# Wall heat-flux
# Time        	patch         	min           	max           	integral      
3900          	base	-2.011355e+06	-3.007169e+04	-5.204958e+03
