# y+ ()       
# Time        	patch         	min           	max           	average       
0             	base	1.043778e-02	6.014817e-01	2.267798e-01
