# Wall heat-flux
# Time        	patch         	min           	max           	integral      
10000         	base	-2.396272e+05	-8.626920e+03	-1.351885e+02
