# Moment      
# CofR        : (0.000000e+00 0.000000e+00 0.000000e+00)
#
# Time        	(total_x total_y total_z)	(pressure_x pressure_y pressure_z)	(viscous_x viscous_y viscous_z)
801           	(3.207393e+00 8.386884e-02 -2.919345e+01)	(3.207641e+00 0.000000e+00 -2.919411e+01)	(-2.483970e-04 8.386884e-02 6.600108e-04)
802           	(3.207460e+00 8.390450e-02 -2.919394e+01)	(3.207709e+00 0.000000e+00 -2.919460e+01)	(-2.483739e-04 8.390450e-02 6.599740e-04)
803           	(3.207529e+00 8.394040e-02 -2.919445e+01)	(3.207777e+00 0.000000e+00 -2.919511e+01)	(-2.483431e-04 8.394040e-02 6.597685e-04)
804           	(3.207598e+00 8.397653e-02 -2.919496e+01)	(3.207846e+00 0.000000e+00 -2.919562e+01)	(-2.482845e-04 8.397653e-02 6.592059e-04)
805           	(3.207669e+00 8.401288e-02 -2.919548e+01)	(3.207917e+00 0.000000e+00 -2.919614e+01)	(-2.482253e-04 8.401288e-02 6.586238e-04)
806           	(3.207740e+00 8.404946e-02 -2.919601e+01)	(3.207988e+00 0.000000e+00 -2.919666e+01)	(-2.481680e-04 8.404946e-02 6.580971e-04)
807           	(3.207812e+00 8.408625e-02 -2.919654e+01)	(3.208060e+00 0.000000e+00 -2.919720e+01)	(-2.481156e-04 8.408625e-02 6.576772e-04)
808           	(3.207886e+00 8.412326e-02 -2.919709e+01)	(3.208134e+00 0.000000e+00 -2.919775e+01)	(-2.480774e-04 8.412326e-02 6.573931e-04)
809           	(3.207960e+00 8.416047e-02 -2.919764e+01)	(3.208208e+00 0.000000e+00 -2.919830e+01)	(-2.480591e-04 8.416047e-02 6.572907e-04)
810           	(3.208034e+00 8.419788e-02 -2.919820e+01)	(3.208282e+00 0.000000e+00 -2.919886e+01)	(-2.480645e-04 8.419788e-02 6.574353e-04)
811           	(3.208110e+00 8.423547e-02 -2.919877e+01)	(3.208358e+00 0.000000e+00 -2.919942e+01)	(-2.480975e-04 8.423547e-02 6.578957e-04)
812           	(3.208185e+00 8.427325e-02 -2.919933e+01)	(3.208433e+00 0.000000e+00 -2.919999e+01)	(-2.481630e-04 8.427325e-02 6.587271e-04)
813           	(3.208261e+00 8.431120e-02 -2.919990e+01)	(3.208510e+00 0.000000e+00 -2.920056e+01)	(-2.482654e-04 8.431120e-02 6.599596e-04)
814           	(3.208338e+00 8.434932e-02 -2.920047e+01)	(3.208586e+00 0.000000e+00 -2.920114e+01)	(-2.484080e-04 8.434932e-02 6.615946e-04)
815           	(3.208414e+00 8.438759e-02 -2.920104e+01)	(3.208662e+00 0.000000e+00 -2.920171e+01)	(-2.485899e-04 8.438759e-02 6.636059e-04)
816           	(3.208490e+00 8.442601e-02 -2.920161e+01)	(3.208739e+00 0.000000e+00 -2.920228e+01)	(-2.488082e-04 8.442601e-02 6.659467e-04)
817           	(3.208566e+00 8.446457e-02 -2.920217e+01)	(3.208815e+00 0.000000e+00 -2.920284e+01)	(-2.490569e-04 8.446457e-02 6.685554e-04)
818           	(3.208641e+00 8.450328e-02 -2.920273e+01)	(3.208890e+00 0.000000e+00 -2.920340e+01)	(-2.493304e-04 8.450328e-02 6.713622e-04)
819           	(3.208716e+00 8.454212e-02 -2.920329e+01)	(3.208966e+00 0.000000e+00 -2.920396e+01)	(-2.496232e-04 8.454212e-02 6.742939e-04)
820           	(3.208791e+00 8.458110e-02 -2.920384e+01)	(3.209041e+00 0.000000e+00 -2.920452e+01)	(-2.499142e-04 8.458110e-02 6.772653e-04)
821           	(3.208865e+00 8.462021e-02 -2.920438e+01)	(3.209115e+00 0.000000e+00 -2.920506e+01)	(-2.502136e-04 8.462021e-02 6.802130e-04)
822           	(3.208938e+00 8.465946e-02 -2.920493e+01)	(3.209189e+00 0.000000e+00 -2.920561e+01)	(-2.505150e-04 8.465946e-02 6.830711e-04)
823           	(3.209012e+00 8.469885e-02 -2.920546e+01)	(3.209262e+00 0.000000e+00 -2.920615e+01)	(-2.507970e-04 8.469885e-02 6.857736e-04)
824           	(3.209085e+00 8.473838e-02 -2.920600e+01)	(3.209336e+00 0.000000e+00 -2.920669e+01)	(-2.510535e-04 8.473838e-02 6.882719e-04)
825           	(3.209157e+00 8.477806e-02 -2.920653e+01)	(3.209409e+00 0.000000e+00 -2.920722e+01)	(-2.512996e-04 8.477806e-02 6.905430e-04)
826           	(3.209230e+00 8.481788e-02 -2.920706e+01)	(3.209481e+00 0.000000e+00 -2.920776e+01)	(-2.515281e-04 8.481788e-02 6.925672e-04)
827           	(3.209302e+00 8.485785e-02 -2.920759e+01)	(3.209554e+00 0.000000e+00 -2.920829e+01)	(-2.517183e-04 8.485785e-02 6.943308e-04)
828           	(3.209374e+00 8.489797e-02 -2.920813e+01)	(3.209626e+00 0.000000e+00 -2.920882e+01)	(-2.518735e-04 8.489797e-02 6.958459e-04)
829           	(3.209447e+00 8.493825e-02 -2.920866e+01)	(3.209699e+00 0.000000e+00 -2.920936e+01)	(-2.520052e-04 8.493825e-02 6.971392e-04)
830           	(3.209520e+00 8.497868e-02 -2.920920e+01)	(3.209772e+00 0.000000e+00 -2.920989e+01)	(-2.521211e-04 8.497868e-02 6.982436e-04)
831           	(3.209593e+00 8.501927e-02 -2.920973e+01)	(3.209845e+00 0.000000e+00 -2.921043e+01)	(-2.522375e-04 8.501927e-02 6.992014e-04)
832           	(3.209666e+00 8.506000e-02 -2.921027e+01)	(3.209918e+00 0.000000e+00 -2.921097e+01)	(-2.523343e-04 8.506000e-02 7.000367e-04)
833           	(3.209739e+00 8.510089e-02 -2.921082e+01)	(3.209992e+00 0.000000e+00 -2.921152e+01)	(-2.524127e-04 8.510089e-02 7.007860e-04)
834           	(3.209813e+00 8.514193e-02 -2.921136e+01)	(3.210066e+00 0.000000e+00 -2.921207e+01)	(-2.524804e-04 8.514193e-02 7.014871e-04)
835           	(3.209888e+00 8.518312e-02 -2.921191e+01)	(3.210140e+00 0.000000e+00 -2.921262e+01)	(-2.525457e-04 8.518312e-02 7.021752e-04)
836           	(3.209962e+00 8.522445e-02 -2.921247e+01)	(3.210215e+00 0.000000e+00 -2.921317e+01)	(-2.526130e-04 8.522445e-02 7.028791e-04)
837           	(3.210037e+00 8.526592e-02 -2.921302e+01)	(3.210290e+00 0.000000e+00 -2.921373e+01)	(-2.526833e-04 8.526592e-02 7.036204e-04)
838           	(3.210112e+00 8.530753e-02 -2.921358e+01)	(3.210365e+00 0.000000e+00 -2.921429e+01)	(-2.527571e-04 8.530753e-02 7.044172e-04)
839           	(3.210188e+00 8.534928e-02 -2.921414e+01)	(3.210440e+00 0.000000e+00 -2.921485e+01)	(-2.528359e-04 8.534928e-02 7.052854e-04)
840           	(3.210263e+00 8.539116e-02 -2.921471e+01)	(3.210516e+00 0.000000e+00 -2.921541e+01)	(-2.529222e-04 8.539116e-02 7.062392e-04)
841           	(3.210339e+00 8.543316e-02 -2.921527e+01)	(3.210592e+00 0.000000e+00 -2.921598e+01)	(-2.530182e-04 8.543316e-02 7.072912e-04)
842           	(3.210415e+00 8.547528e-02 -2.921584e+01)	(3.210668e+00 0.000000e+00 -2.921655e+01)	(-2.531249e-04 8.547528e-02 7.084509e-04)
843           	(3.210491e+00 8.551753e-02 -2.921640e+01)	(3.210745e+00 0.000000e+00 -2.921711e+01)	(-2.532435e-04 8.551753e-02 7.097267e-04)
844           	(3.210568e+00 8.555989e-02 -2.921697e+01)	(3.210821e+00 0.000000e+00 -2.921768e+01)	(-2.533751e-04 8.555989e-02 7.111246e-04)
845           	(3.210644e+00 8.560236e-02 -2.921753e+01)	(3.210897e+00 0.000000e+00 -2.921825e+01)	(-2.535203e-04 8.560236e-02 7.126466e-04)
846           	(3.210720e+00 8.564493e-02 -2.921810e+01)	(3.210974e+00 0.000000e+00 -2.921881e+01)	(-2.536791e-04 8.564493e-02 7.142886e-04)
847           	(3.210796e+00 8.568761e-02 -2.921866e+01)	(3.211050e+00 0.000000e+00 -2.921938e+01)	(-2.538491e-04 8.568761e-02 7.160364e-04)
848           	(3.210872e+00 8.573039e-02 -2.921922e+01)	(3.211126e+00 0.000000e+00 -2.921994e+01)	(-2.540286e-04 8.573039e-02 7.178686e-04)
849           	(3.210948e+00 8.577327e-02 -2.921978e+01)	(3.211202e+00 0.000000e+00 -2.922050e+01)	(-2.542163e-04 8.577327e-02 7.197558e-04)
850           	(3.211023e+00 8.581625e-02 -2.922034e+01)	(3.211278e+00 0.000000e+00 -2.922106e+01)	(-2.544132e-04 8.581625e-02 7.216592e-04)
851           	(3.211099e+00 8.585933e-02 -2.922090e+01)	(3.211353e+00 0.000000e+00 -2.922162e+01)	(-2.546018e-04 8.585933e-02 7.235250e-04)
852           	(3.211174e+00 8.590250e-02 -2.922145e+01)	(3.211429e+00 0.000000e+00 -2.922218e+01)	(-2.547801e-04 8.590250e-02 7.253047e-04)
853           	(3.211249e+00 8.594576e-02 -2.922200e+01)	(3.211504e+00 0.000000e+00 -2.922273e+01)	(-2.549437e-04 8.594576e-02 7.269481e-04)
854           	(3.211325e+00 8.598913e-02 -2.922256e+01)	(3.211580e+00 0.000000e+00 -2.922329e+01)	(-2.550894e-04 8.598913e-02 7.284097e-04)
855           	(3.211400e+00 8.603260e-02 -2.922311e+01)	(3.211655e+00 0.000000e+00 -2.922384e+01)	(-2.552159e-04 8.603260e-02 7.296548e-04)
856           	(3.211475e+00 8.607618e-02 -2.922366e+01)	(3.211730e+00 0.000000e+00 -2.922440e+01)	(-2.553102e-04 8.607618e-02 7.306481e-04)
857           	(3.211551e+00 8.611986e-02 -2.922422e+01)	(3.211806e+00 0.000000e+00 -2.922495e+01)	(-2.553844e-04 8.611986e-02 7.313748e-04)
858           	(3.211627e+00 8.616365e-02 -2.922478e+01)	(3.211882e+00 0.000000e+00 -2.922551e+01)	(-2.554258e-04 8.616365e-02 7.318226e-04)
859           	(3.211703e+00 8.620756e-02 -2.922535e+01)	(3.211959e+00 0.000000e+00 -2.922608e+01)	(-2.554501e-04 8.620756e-02 7.320087e-04)
860           	(3.211780e+00 8.625157e-02 -2.922591e+01)	(3.212035e+00 0.000000e+00 -2.922665e+01)	(-2.554421e-04 8.625157e-02 7.319433e-04)
861           	(3.211857e+00 8.629570e-02 -2.922649e+01)	(3.212113e+00 0.000000e+00 -2.922722e+01)	(-2.554053e-04 8.629570e-02 7.316597e-04)
862           	(3.211936e+00 8.633995e-02 -2.922707e+01)	(3.212191e+00 0.000000e+00 -2.922780e+01)	(-2.553513e-04 8.633995e-02 7.312074e-04)
863           	(3.212014e+00 8.638431e-02 -2.922766e+01)	(3.212270e+00 0.000000e+00 -2.922839e+01)	(-2.553044e-04 8.638431e-02 7.306537e-04)
864           	(3.212094e+00 8.642877e-02 -2.922825e+01)	(3.212349e+00 0.000000e+00 -2.922898e+01)	(-2.552489e-04 8.642877e-02 7.300493e-04)
865           	(3.212174e+00 8.647334e-02 -2.922886e+01)	(3.212429e+00 0.000000e+00 -2.922958e+01)	(-2.551857e-04 8.647334e-02 7.294593e-04)
866           	(3.212255e+00 8.651801e-02 -2.922946e+01)	(3.212510e+00 0.000000e+00 -2.923019e+01)	(-2.551248e-04 8.651801e-02 7.289564e-04)
867           	(3.212336e+00 8.656278e-02 -2.923008e+01)	(3.212591e+00 0.000000e+00 -2.923080e+01)	(-2.550795e-04 8.656278e-02 7.286149e-04)
868           	(3.212418e+00 8.660763e-02 -2.923069e+01)	(3.212673e+00 0.000000e+00 -2.923142e+01)	(-2.550555e-04 8.660763e-02 7.284971e-04)
869           	(3.212501e+00 8.665257e-02 -2.923131e+01)	(3.212756e+00 0.000000e+00 -2.923204e+01)	(-2.550607e-04 8.665257e-02 7.286590e-04)
870           	(3.212583e+00 8.669757e-02 -2.923194e+01)	(3.212838e+00 0.000000e+00 -2.923267e+01)	(-2.550963e-04 8.669757e-02 7.291360e-04)
871           	(3.212666e+00 8.674265e-02 -2.923256e+01)	(3.212921e+00 0.000000e+00 -2.923329e+01)	(-2.551692e-04 8.674265e-02 7.299522e-04)
872           	(3.212749e+00 8.678778e-02 -2.923318e+01)	(3.213004e+00 0.000000e+00 -2.923392e+01)	(-2.552774e-04 8.678778e-02 7.311058e-04)
873           	(3.212831e+00 8.683296e-02 -2.923381e+01)	(3.213087e+00 0.000000e+00 -2.923454e+01)	(-2.554167e-04 8.683296e-02 7.325753e-04)
874           	(3.212913e+00 8.687819e-02 -2.923443e+01)	(3.213169e+00 0.000000e+00 -2.923516e+01)	(-2.555831e-04 8.687819e-02 7.343235e-04)
875           	(3.212995e+00 8.692346e-02 -2.923504e+01)	(3.213251e+00 0.000000e+00 -2.923578e+01)	(-2.557730e-04 8.692346e-02 7.363012e-04)
876           	(3.213077e+00 8.696877e-02 -2.923565e+01)	(3.213333e+00 0.000000e+00 -2.923639e+01)	(-2.559827e-04 8.696877e-02 7.384512e-04)
877           	(3.213158e+00 8.701411e-02 -2.923626e+01)	(3.213414e+00 0.000000e+00 -2.923700e+01)	(-2.562068e-04 8.701411e-02 7.407109e-04)
878           	(3.213239e+00 8.705950e-02 -2.923686e+01)	(3.213495e+00 0.000000e+00 -2.923760e+01)	(-2.564379e-04 8.705950e-02 7.430169e-04)
879           	(3.213319e+00 8.710491e-02 -2.923746e+01)	(3.213576e+00 0.000000e+00 -2.923820e+01)	(-2.566706e-04 8.710491e-02 7.453124e-04)
880           	(3.213399e+00 8.715036e-02 -2.923805e+01)	(3.213656e+00 0.000000e+00 -2.923880e+01)	(-2.569006e-04 8.715036e-02 7.475495e-04)
881           	(3.213478e+00 8.719585e-02 -2.923864e+01)	(3.213735e+00 0.000000e+00 -2.923939e+01)	(-2.571213e-04 8.719585e-02 7.496886e-04)
882           	(3.213557e+00 8.724138e-02 -2.923922e+01)	(3.213814e+00 0.000000e+00 -2.923997e+01)	(-2.573278e-04 8.724138e-02 7.517024e-04)
883           	(3.213635e+00 8.728695e-02 -2.923980e+01)	(3.213893e+00 0.000000e+00 -2.924055e+01)	(-2.575185e-04 8.728695e-02 7.535765e-04)
884           	(3.213713e+00 8.733256e-02 -2.924038e+01)	(3.213971e+00 0.000000e+00 -2.924113e+01)	(-2.576937e-04 8.733256e-02 7.553069e-04)
885           	(3.213791e+00 8.737821e-02 -2.924095e+01)	(3.214049e+00 0.000000e+00 -2.924171e+01)	(-2.578541e-04 8.737821e-02 7.568958e-04)
886           	(3.213869e+00 8.742390e-02 -2.924153e+01)	(3.214127e+00 0.000000e+00 -2.924228e+01)	(-2.580000e-04 8.742390e-02 7.583492e-04)
887           	(3.213947e+00 8.746964e-02 -2.924210e+01)	(3.214205e+00 0.000000e+00 -2.924286e+01)	(-2.581316e-04 8.746964e-02 7.596737e-04)
888           	(3.214024e+00 8.751543e-02 -2.924267e+01)	(3.214282e+00 0.000000e+00 -2.924343e+01)	(-2.582492e-04 8.751543e-02 7.608751e-04)
889           	(3.214101e+00 8.756126e-02 -2.924324e+01)	(3.214360e+00 0.000000e+00 -2.924400e+01)	(-2.583531e-04 8.756126e-02 7.619572e-04)
890           	(3.214179e+00 8.760713e-02 -2.924380e+01)	(3.214437e+00 0.000000e+00 -2.924457e+01)	(-2.584472e-04 8.760713e-02 7.629252e-04)
891           	(3.214256e+00 8.765305e-02 -2.924437e+01)	(3.214515e+00 0.000000e+00 -2.924514e+01)	(-2.585264e-04 8.765305e-02 7.637718e-04)
892           	(3.214334e+00 8.769901e-02 -2.924494e+01)	(3.214592e+00 0.000000e+00 -2.924571e+01)	(-2.585914e-04 8.769901e-02 7.644956e-04)
893           	(3.214411e+00 8.774502e-02 -2.924551e+01)	(3.214670e+00 0.000000e+00 -2.924628e+01)	(-2.586476e-04 8.774502e-02 7.651023e-04)
894           	(3.214489e+00 8.779106e-02 -2.924608e+01)	(3.214748e+00 0.000000e+00 -2.924685e+01)	(-2.586922e-04 8.779106e-02 7.655899e-04)
895           	(3.214567e+00 8.783716e-02 -2.924666e+01)	(3.214825e+00 0.000000e+00 -2.924742e+01)	(-2.587273e-04 8.783716e-02 7.659669e-04)
896           	(3.214645e+00 8.788329e-02 -2.924723e+01)	(3.214904e+00 0.000000e+00 -2.924800e+01)	(-2.587512e-04 8.788329e-02 7.662426e-04)
897           	(3.214723e+00 8.792947e-02 -2.924781e+01)	(3.214982e+00 0.000000e+00 -2.924857e+01)	(-2.587695e-04 8.792947e-02 7.664422e-04)
898           	(3.214802e+00 8.797568e-02 -2.924839e+01)	(3.215060e+00 0.000000e+00 -2.924915e+01)	(-2.587842e-04 8.797568e-02 7.665928e-04)
899           	(3.214880e+00 8.802193e-02 -2.924897e+01)	(3.215139e+00 0.000000e+00 -2.924973e+01)	(-2.587952e-04 8.802193e-02 7.667254e-04)
900           	(3.214959e+00 8.806821e-02 -2.924955e+01)	(3.215218e+00 0.000000e+00 -2.925032e+01)	(-2.588105e-04 8.806821e-02 7.668862e-04)
901           	(3.215038e+00 8.811452e-02 -2.925013e+01)	(3.215297e+00 0.000000e+00 -2.925090e+01)	(-2.588326e-04 8.811452e-02 7.671180e-04)
902           	(3.215118e+00 8.816086e-02 -2.925072e+01)	(3.215377e+00 0.000000e+00 -2.925149e+01)	(-2.588635e-04 8.816086e-02 7.674626e-04)
903           	(3.215197e+00 8.820721e-02 -2.925131e+01)	(3.215456e+00 0.000000e+00 -2.925208e+01)	(-2.589211e-04 8.820721e-02 7.679684e-04)
904           	(3.215276e+00 8.825359e-02 -2.925189e+01)	(3.215535e+00 0.000000e+00 -2.925266e+01)	(-2.589854e-04 8.825359e-02 7.686525e-04)
905           	(3.215356e+00 8.829997e-02 -2.925248e+01)	(3.215615e+00 0.000000e+00 -2.925325e+01)	(-2.590661e-04 8.829997e-02 7.695374e-04)
906           	(3.215435e+00 8.834635e-02 -2.925306e+01)	(3.215694e+00 0.000000e+00 -2.925383e+01)	(-2.591555e-04 8.834635e-02 7.706168e-04)
907           	(3.215513e+00 8.839275e-02 -2.925364e+01)	(3.215773e+00 0.000000e+00 -2.925441e+01)	(-2.592656e-04 8.839275e-02 7.718767e-04)
908           	(3.215592e+00 8.843914e-02 -2.925422e+01)	(3.215851e+00 0.000000e+00 -2.925499e+01)	(-2.593998e-04 8.843914e-02 7.732815e-04)
909           	(3.215670e+00 8.848552e-02 -2.925479e+01)	(3.215930e+00 0.000000e+00 -2.925557e+01)	(-2.595307e-04 8.848552e-02 7.747540e-04)
910           	(3.215748e+00 8.853190e-02 -2.925537e+01)	(3.216008e+00 0.000000e+00 -2.925614e+01)	(-2.596556e-04 8.853190e-02 7.762237e-04)
911           	(3.215826e+00 8.857828e-02 -2.925593e+01)	(3.216086e+00 0.000000e+00 -2.925671e+01)	(-2.597937e-04 8.857828e-02 7.776315e-04)
912           	(3.215903e+00 8.862466e-02 -2.925650e+01)	(3.216163e+00 0.000000e+00 -2.925728e+01)	(-2.599263e-04 8.862466e-02 7.788907e-04)
913           	(3.215981e+00 8.867104e-02 -2.925706e+01)	(3.216241e+00 0.000000e+00 -2.925784e+01)	(-2.600250e-04 8.867104e-02 7.799206e-04)
914           	(3.216058e+00 8.871743e-02 -2.925763e+01)	(3.216318e+00 0.000000e+00 -2.925841e+01)	(-2.600887e-04 8.871743e-02 7.806741e-04)
915           	(3.216135e+00 8.876383e-02 -2.925819e+01)	(3.216395e+00 0.000000e+00 -2.925897e+01)	(-2.601318e-04 8.876383e-02 7.811384e-04)
916           	(3.216212e+00 8.881024e-02 -2.925876e+01)	(3.216473e+00 0.000000e+00 -2.925954e+01)	(-2.601576e-04 8.881024e-02 7.813001e-04)
917           	(3.216290e+00 8.885666e-02 -2.925932e+01)	(3.216550e+00 0.000000e+00 -2.926010e+01)	(-2.601534e-04 8.885666e-02 7.811705e-04)
918           	(3.216368e+00 8.890310e-02 -2.925989e+01)	(3.216628e+00 0.000000e+00 -2.926068e+01)	(-2.601091e-04 8.890310e-02 7.807697e-04)
919           	(3.216446e+00 8.894956e-02 -2.926047e+01)	(3.216706e+00 0.000000e+00 -2.926125e+01)	(-2.600371e-04 8.894956e-02 7.801548e-04)
920           	(3.216525e+00 8.899604e-02 -2.926105e+01)	(3.216785e+00 0.000000e+00 -2.926183e+01)	(-2.599589e-04 8.899604e-02 7.794030e-04)
921           	(3.216604e+00 8.904254e-02 -2.926164e+01)	(3.216864e+00 0.000000e+00 -2.926241e+01)	(-2.598734e-04 8.904254e-02 7.785687e-04)
922           	(3.216684e+00 8.908905e-02 -2.926223e+01)	(3.216943e+00 0.000000e+00 -2.926300e+01)	(-2.597791e-04 8.908905e-02 7.777093e-04)
923           	(3.216764e+00 8.913558e-02 -2.926282e+01)	(3.217024e+00 0.000000e+00 -2.926360e+01)	(-2.596923e-04 8.913558e-02 7.769022e-04)
924           	(3.216844e+00 8.918211e-02 -2.926342e+01)	(3.217104e+00 0.000000e+00 -2.926420e+01)	(-2.596123e-04 8.918211e-02 7.761996e-04)
925           	(3.216926e+00 8.922864e-02 -2.926402e+01)	(3.217185e+00 0.000000e+00 -2.926480e+01)	(-2.595338e-04 8.922864e-02 7.756424e-04)
926           	(3.217007e+00 8.927517e-02 -2.926463e+01)	(3.217266e+00 0.000000e+00 -2.926540e+01)	(-2.594768e-04 8.927517e-02 7.752867e-04)
927           	(3.217089e+00 8.932169e-02 -2.926523e+01)	(3.217348e+00 0.000000e+00 -2.926601e+01)	(-2.594495e-04 8.932169e-02 7.751687e-04)
928           	(3.217170e+00 8.936820e-02 -2.926584e+01)	(3.217430e+00 0.000000e+00 -2.926661e+01)	(-2.594430e-04 8.936820e-02 7.752941e-04)
929           	(3.217252e+00 8.941468e-02 -2.926645e+01)	(3.217512e+00 0.000000e+00 -2.926722e+01)	(-2.594648e-04 8.941468e-02 7.756782e-04)
930           	(3.217334e+00 8.946114e-02 -2.926705e+01)	(3.217594e+00 0.000000e+00 -2.926783e+01)	(-2.595093e-04 8.946114e-02 7.763076e-04)
931           	(3.217416e+00 8.950757e-02 -2.926766e+01)	(3.217675e+00 0.000000e+00 -2.926843e+01)	(-2.595819e-04 8.950757e-02 7.771764e-04)
932           	(3.217497e+00 8.955396e-02 -2.926826e+01)	(3.217757e+00 0.000000e+00 -2.926903e+01)	(-2.596698e-04 8.955396e-02 7.782455e-04)
933           	(3.217578e+00 8.960031e-02 -2.926885e+01)	(3.217838e+00 0.000000e+00 -2.926963e+01)	(-2.597768e-04 8.960031e-02 7.794896e-04)
934           	(3.217659e+00 8.964662e-02 -2.926945e+01)	(3.217919e+00 0.000000e+00 -2.927023e+01)	(-2.598972e-04 8.964662e-02 7.808649e-04)
935           	(3.217745e+00 8.970266e-02 -2.927006e+01)	(3.218003e+00 0.000000e+00 -2.927083e+01)	(-2.586534e-04 8.970266e-02 7.702697e-04)
936           	(3.217836e+00 8.977067e-02 -2.927069e+01)	(3.218091e+00 0.000000e+00 -2.927143e+01)	(-2.551417e-04 8.977067e-02 7.398358e-04)
937           	(3.217944e+00 8.985200e-02 -2.927141e+01)	(3.218194e+00 0.000000e+00 -2.927211e+01)	(-2.504116e-04 8.985200e-02 6.997146e-04)
938           	(3.218068e+00 8.994786e-02 -2.927222e+01)	(3.218314e+00 0.000000e+00 -2.927289e+01)	(-2.459745e-04 8.994786e-02 6.636114e-04)
939           	(3.218206e+00 9.005853e-02 -2.927309e+01)	(3.218449e+00 0.000000e+00 -2.927373e+01)	(-2.433570e-04 9.005853e-02 6.460320e-04)
940           	(3.218344e+00 9.018298e-02 -2.927387e+01)	(3.218588e+00 0.000000e+00 -2.927453e+01)	(-2.440515e-04 9.018298e-02 6.615167e-04)
941           	(3.218460e+00 9.031841e-02 -2.927433e+01)	(3.218710e+00 0.000000e+00 -2.927505e+01)	(-2.496918e-04 9.031841e-02 7.261770e-04)
942           	(3.218523e+00 9.046028e-02 -2.927415e+01)	(3.218785e+00 0.000000e+00 -2.927500e+01)	(-2.617810e-04 9.046028e-02 8.550724e-04)
943           	(3.218497e+00 9.060227e-02 -2.927295e+01)	(3.218779e+00 0.000000e+00 -2.927402e+01)	(-2.816046e-04 9.060227e-02 1.061269e-03)
944           	(3.218460e+00 9.073133e-02 -2.927151e+01)	(3.218745e+00 0.000000e+00 -2.927261e+01)	(-2.846238e-04 9.073133e-02 1.107287e-03)
945           	(3.218330e+00 9.084104e-02 -2.926894e+01)	(3.218630e+00 0.000000e+00 -2.927023e+01)	(-3.007923e-04 9.084104e-02 1.286208e-03)
946           	(3.218076e+00 9.090849e-02 -2.926494e+01)	(3.218403e+00 0.000000e+00 -2.926650e+01)	(-3.264539e-04 9.090849e-02 1.561682e-03)
947           	(3.217720e+00 9.093759e-02 -2.925973e+01)	(3.218072e+00 0.000000e+00 -2.926156e+01)	(-3.515557e-04 9.093759e-02 1.829531e-03)
948           	(3.217399e+00 9.097251e-02 -2.925483e+01)	(3.217760e+00 0.000000e+00 -2.925677e+01)	(-3.613100e-04 9.097251e-02 1.934506e-03)
949           	(3.217140e+00 9.101209e-02 -2.925053e+01)	(3.217503e+00 0.000000e+00 -2.925248e+01)	(-3.629781e-04 9.101209e-02 1.950481e-03)
950           	(3.216932e+00 9.105218e-02 -2.924672e+01)	(3.217295e+00 0.000000e+00 -2.924867e+01)	(-3.631401e-04 9.105218e-02 1.953202e-03)
951           	(3.216758e+00 9.108872e-02 -2.924322e+01)	(3.217123e+00 0.000000e+00 -2.924519e+01)	(-3.649405e-04 9.108872e-02 1.974022e-03)
952           	(3.216604e+00 9.111934e-02 -2.923989e+01)	(3.216972e+00 0.000000e+00 -2.924190e+01)	(-3.682830e-04 9.111934e-02 2.010848e-03)
953           	(3.216464e+00 9.114326e-02 -2.923667e+01)	(3.216836e+00 0.000000e+00 -2.923872e+01)	(-3.720819e-04 9.114326e-02 2.051880e-03)
954           	(3.216337e+00 9.116047e-02 -2.923357e+01)	(3.216713e+00 0.000000e+00 -2.923565e+01)	(-3.754411e-04 9.116047e-02 2.088351e-03)
955           	(3.216226e+00 9.117139e-02 -2.923059e+01)	(3.216604e+00 0.000000e+00 -2.923271e+01)	(-3.779757e-04 9.117139e-02 2.115559e-03)
956           	(3.216131e+00 9.117623e-02 -2.922777e+01)	(3.216511e+00 0.000000e+00 -2.922990e+01)	(-3.795458e-04 9.117623e-02 2.134028e-03)
957           	(3.216052e+00 9.117510e-02 -2.922509e+01)	(3.216433e+00 0.000000e+00 -2.922723e+01)	(-3.806808e-04 9.117510e-02 2.147950e-03)
958           	(3.215987e+00 9.116790e-02 -2.922252e+01)	(3.216368e+00 0.000000e+00 -2.922468e+01)	(-3.817484e-04 9.116790e-02 2.161307e-03)
959           	(3.215932e+00 9.115466e-02 -2.922005e+01)	(3.216315e+00 0.000000e+00 -2.922222e+01)	(-3.828016e-04 9.115466e-02 2.175065e-03)
960           	(3.215887e+00 9.113538e-02 -2.921765e+01)	(3.216270e+00 0.000000e+00 -2.921984e+01)	(-3.838842e-04 9.113538e-02 2.189387e-03)
961           	(3.215849e+00 9.111019e-02 -2.921531e+01)	(3.216234e+00 0.000000e+00 -2.921751e+01)	(-3.849494e-04 9.111019e-02 2.203764e-03)
962           	(3.215818e+00 9.107927e-02 -2.921302e+01)	(3.216204e+00 0.000000e+00 -2.921524e+01)	(-3.859958e-04 9.107927e-02 2.216744e-03)
963           	(3.215795e+00 9.104313e-02 -2.921081e+01)	(3.216182e+00 0.000000e+00 -2.921303e+01)	(-3.865902e-04 9.104313e-02 2.225224e-03)
964           	(3.215782e+00 9.100226e-02 -2.920868e+01)	(3.216169e+00 0.000000e+00 -2.921091e+01)	(-3.866296e-04 9.100226e-02 2.228045e-03)
965           	(3.215781e+00 9.095697e-02 -2.920666e+01)	(3.216167e+00 0.000000e+00 -2.920889e+01)	(-3.861407e-04 9.095697e-02 2.226152e-03)
966           	(3.215791e+00 9.090740e-02 -2.920474e+01)	(3.216177e+00 0.000000e+00 -2.920697e+01)	(-3.855319e-04 9.090740e-02 2.222869e-03)
967           	(3.215809e+00 9.085350e-02 -2.920290e+01)	(3.216195e+00 0.000000e+00 -2.920512e+01)	(-3.851662e-04 9.085350e-02 2.221355e-03)
968           	(3.215833e+00 9.079524e-02 -2.920110e+01)	(3.216218e+00 0.000000e+00 -2.920332e+01)	(-3.850783e-04 9.079524e-02 2.222952e-03)
969           	(3.215860e+00 9.073270e-02 -2.919932e+01)	(3.216245e+00 0.000000e+00 -2.920154e+01)	(-3.852563e-04 9.073270e-02 2.227006e-03)
970           	(3.215889e+00 9.066620e-02 -2.919755e+01)	(3.216274e+00 0.000000e+00 -2.919978e+01)	(-3.854113e-04 9.066620e-02 2.231193e-03)
971           	(3.215922e+00 9.059623e-02 -2.919582e+01)	(3.216307e+00 0.000000e+00 -2.919805e+01)	(-3.852219e-04 9.059623e-02 2.231889e-03)
972           	(3.215961e+00 9.052335e-02 -2.919414e+01)	(3.216346e+00 0.000000e+00 -2.919637e+01)	(-3.844499e-04 9.052335e-02 2.226955e-03)
973           	(3.216008e+00 9.044797e-02 -2.919253e+01)	(3.216391e+00 0.000000e+00 -2.919475e+01)	(-3.833538e-04 9.044797e-02 2.218778e-03)
974           	(3.216061e+00 9.037016e-02 -2.919098e+01)	(3.216444e+00 0.000000e+00 -2.919319e+01)	(-3.823907e-04 9.037016e-02 2.211293e-03)
975           	(3.216119e+00 9.028987e-02 -2.918946e+01)	(3.216501e+00 0.000000e+00 -2.919166e+01)	(-3.815762e-04 9.028987e-02 2.206393e-03)
976           	(3.216179e+00 9.020714e-02 -2.918794e+01)	(3.216560e+00 0.000000e+00 -2.919015e+01)	(-3.809973e-04 9.020714e-02 2.204453e-03)
977           	(3.216240e+00 9.012219e-02 -2.918642e+01)	(3.216620e+00 0.000000e+00 -2.918862e+01)	(-3.805960e-04 9.012219e-02 2.204429e-03)
978           	(3.216302e+00 9.003536e-02 -2.918490e+01)	(3.216682e+00 0.000000e+00 -2.918710e+01)	(-3.800565e-04 9.003536e-02 2.203191e-03)
979           	(3.216367e+00 8.994711e-02 -2.918340e+01)	(3.216747e+00 0.000000e+00 -2.918560e+01)	(-3.792517e-04 8.994711e-02 2.198661e-03)
980           	(3.216437e+00 8.985778e-02 -2.918193e+01)	(3.216815e+00 0.000000e+00 -2.918412e+01)	(-3.782656e-04 8.985778e-02 2.191206e-03)
981           	(3.216511e+00 8.976749e-02 -2.918049e+01)	(3.216888e+00 0.000000e+00 -2.918267e+01)	(-3.770524e-04 8.976749e-02 2.182774e-03)
982           	(3.216588e+00 8.967626e-02 -2.917906e+01)	(3.216964e+00 0.000000e+00 -2.918124e+01)	(-3.760472e-04 8.967626e-02 2.176257e-03)
983           	(3.216666e+00 8.958408e-02 -2.917764e+01)	(3.217041e+00 0.000000e+00 -2.917981e+01)	(-3.751285e-04 8.958408e-02 2.171131e-03)
984           	(3.216745e+00 8.949018e-02 -2.917620e+01)	(3.217120e+00 0.000000e+00 -2.917837e+01)	(-3.743855e-04 8.949018e-02 2.167916e-03)
985           	(3.216825e+00 8.939490e-02 -2.917476e+01)	(3.217199e+00 0.000000e+00 -2.917692e+01)	(-3.736466e-04 8.939490e-02 2.164075e-03)
986           	(3.216908e+00 8.929883e-02 -2.917333e+01)	(3.217280e+00 0.000000e+00 -2.917549e+01)	(-3.725097e-04 8.929883e-02 2.155683e-03)
987           	(3.216995e+00 8.920238e-02 -2.917195e+01)	(3.217366e+00 0.000000e+00 -2.917409e+01)	(-3.709664e-04 8.920238e-02 2.143453e-03)
988           	(3.217087e+00 8.910579e-02 -2.917059e+01)	(3.217457e+00 0.000000e+00 -2.917272e+01)	(-3.692620e-04 8.910579e-02 2.130080e-03)
989           	(3.217183e+00 8.900915e-02 -2.916926e+01)	(3.217551e+00 0.000000e+00 -2.917138e+01)	(-3.676759e-04 8.900915e-02 2.117960e-03)
990           	(3.217282e+00 8.891262e-02 -2.916795e+01)	(3.217648e+00 0.000000e+00 -2.917005e+01)	(-3.662558e-04 8.891262e-02 2.107282e-03)
991           	(3.217383e+00 8.881636e-02 -2.916665e+01)	(3.217748e+00 0.000000e+00 -2.916874e+01)	(-3.649581e-04 8.881636e-02 2.096650e-03)
992           	(3.217487e+00 8.872065e-02 -2.916537e+01)	(3.217850e+00 0.000000e+00 -2.916746e+01)	(-3.634858e-04 8.872065e-02 2.084646e-03)
993           	(3.217595e+00 8.862572e-02 -2.916413e+01)	(3.217957e+00 0.000000e+00 -2.916620e+01)	(-3.617718e-04 8.862572e-02 2.070123e-03)
994           	(3.217707e+00 8.853173e-02 -2.916292e+01)	(3.218067e+00 0.000000e+00 -2.916498e+01)	(-3.600803e-04 8.853173e-02 2.056105e-03)
995           	(3.217824e+00 8.843877e-02 -2.916175e+01)	(3.218182e+00 0.000000e+00 -2.916379e+01)	(-3.584020e-04 8.843877e-02 2.042485e-03)
996           	(3.217945e+00 8.834686e-02 -2.916061e+01)	(3.218302e+00 0.000000e+00 -2.916264e+01)	(-3.567437e-04 8.834686e-02 2.027870e-03)
997           	(3.218070e+00 8.825605e-02 -2.915950e+01)	(3.218425e+00 0.000000e+00 -2.916151e+01)	(-3.549982e-04 8.825605e-02 2.012814e-03)
998           	(3.218198e+00 8.816646e-02 -2.915842e+01)	(3.218551e+00 0.000000e+00 -2.916042e+01)	(-3.533173e-04 8.816646e-02 1.998403e-03)
999           	(3.218329e+00 8.807815e-02 -2.915736e+01)	(3.218680e+00 0.000000e+00 -2.915934e+01)	(-3.517760e-04 8.807815e-02 1.985883e-03)
1000          	(3.218464e+00 8.799126e-02 -2.915633e+01)	(3.218814e+00 0.000000e+00 -2.915830e+01)	(-3.501144e-04 8.799126e-02 1.972085e-03)
1001          	(3.218603e+00 8.790590e-02 -2.915534e+01)	(3.218952e+00 0.000000e+00 -2.915729e+01)	(-3.482035e-04 8.790590e-02 1.955588e-03)
1002          	(3.218748e+00 8.782210e-02 -2.915440e+01)	(3.219094e+00 0.000000e+00 -2.915633e+01)	(-3.462510e-04 8.782210e-02 1.937352e-03)
1003          	(3.218898e+00 8.773989e-02 -2.915350e+01)	(3.219242e+00 0.000000e+00 -2.915542e+01)	(-3.442147e-04 8.773989e-02 1.918997e-03)
1004          	(3.219052e+00 8.765930e-02 -2.915264e+01)	(3.219394e+00 0.000000e+00 -2.915454e+01)	(-3.422527e-04 8.765930e-02 1.901332e-03)
1005          	(3.219210e+00 8.758036e-02 -2.915181e+01)	(3.219550e+00 0.000000e+00 -2.915370e+01)	(-3.404961e-04 8.758036e-02 1.886232e-03)
1006          	(3.219372e+00 8.750308e-02 -2.915102e+01)	(3.219711e+00 0.000000e+00 -2.915290e+01)	(-3.388518e-04 8.750308e-02 1.871803e-03)
1007          	(3.219538e+00 8.742754e-02 -2.915027e+01)	(3.219875e+00 0.000000e+00 -2.915213e+01)	(-3.370947e-04 8.742754e-02 1.856371e-03)
1008          	(3.219709e+00 8.735374e-02 -2.914956e+01)	(3.220044e+00 0.000000e+00 -2.915140e+01)	(-3.352159e-04 8.735374e-02 1.839825e-03)
1009          	(3.219884e+00 8.728166e-02 -2.914889e+01)	(3.220218e+00 0.000000e+00 -2.915072e+01)	(-3.333081e-04 8.728166e-02 1.823145e-03)
1010          	(3.220064e+00 8.721135e-02 -2.914826e+01)	(3.220396e+00 0.000000e+00 -2.915007e+01)	(-3.315213e-04 8.721135e-02 1.808020e-03)
1011          	(3.220248e+00 8.714276e-02 -2.914766e+01)	(3.220578e+00 0.000000e+00 -2.914946e+01)	(-3.298422e-04 8.714276e-02 1.793827e-03)