# p  FACE_DATA 317
# x  y  z  p
-2.24217 0 0.27 23911.7
-2.12942 0 0.27 23884.5
-2.02231 0 0.27 23857.7
-1.92055 0 0.27 23847.3
-1.82389 0 0.27 23844.7
-1.73207 0 0.27 23839.7
-1.64485 0 0.27 23832
-1.562 0 0.27 23827.3
-1.48331 0 0.27 23827
-1.40856 0 0.27 23824.9
-1.33756 0 0.27 23817
-1.27013 0 0.27 23803
-1.20608 0 0.27 23784.5
-1.14539 0 0.27 23763
-1.08787 0 0.27 23743.5
-1.03323 0 0.27 23726.1
-0.981322 0 0.27 23711
-0.932014 0 0.27 23699
-0.885173 0 0.27 23689.6
-0.84068 0 0.27 23682.7
-0.798416 0 0.27 23677.9
-0.758473 0 0.27 23674.8
-0.720912 0 0.27 23673.2
-0.685558 0 0.27 23672.5
-0.652245 0 0.27 23672.4
-0.620811 0 0.27 23672.3
-0.591171 0 0.27 23672.2
-0.563165 0 0.27 23672.4
-0.536572 0 0.27 23673.4
-0.51125 0 0.27 23674.9
-0.487059 0 0.27 23677.3
-0.463863 0 0.27 23680.7
-0.441526 0 0.27 23685
-0.419915 0 0.27 23690.1
-0.398896 0 0.27 23695.7
-0.378338 0 0.27 23701.5
-0.358104 0 0.27 23707.2
-0.33806 0 0.27 23710.7
-0.318069 0 0.27 23738.8
-0.296809 0 0.27 23756.9
-0.275112 0 0.27 23739.1
-0.255001 0 0.27 23735.4
-0.23636 0 0.27 23763.3
-0.219081 0 0.27 23754.6
-0.203066 0 0.27 23731.8
-0.188221 0 0.27 23729.5
-0.174462 0 0.27 23727
-0.161708 0 0.27 23727.1
-0.149886 0 0.27 23728
-0.138929 0 0.27 23727.5
-0.128773 0 0.27 23727.8
-0.119359 0 0.27 23727.1
-0.110632 0 0.27 23727.1
-0.102544 0 0.27 23727.1
-0.0950472 0 0.27 23727.7
-0.0880983 0 0.27 23727.8
-0.0816572 0 0.27 23727.7
-0.0756869 0 0.27 23728.6
-0.070153 0 0.27 23726.9
-0.0650234 0 0.27 23761.8
-0.0602687 0 0.27 25141.5
-0.0558616 0 0.27 32723.4
-0.0517765 0 0.27 41706.1
-0.0479899 0 0.27 45231.9
-0.04448 0 0.27 47493
-0.0412265 0 0.27 49117
-0.0382106 0 0.27 50171.7
-0.0354151 0 0.27 51080.9
-0.0328237 0 0.27 51874.3
-0.0304215 0 0.27 52510.6
-0.0281948 0 0.27 53086.7
-0.0261306 0 0.27 53600.2
-0.0242171 0 0.27 54063
-0.0224431 0 0.27 54476.9
-0.0207985 0 0.27 54851.2
-0.0192738 0 0.27 55190.8
-0.0178602 0 0.27 55499.2
-0.0165496 0 0.27 55780.1
-0.0153345 0 0.27 56035.4
-0.0142077 0 0.27 56267.5
-0.0131629 0 0.27 56479.3
-0.0121939 0 0.27 56673.1
-0.0112952 0 0.27 56850.8
-0.0104616 0 0.27 57014.7
-0.0096884 0 0.27 57166.3
-0.00897103 0 0.27 57307.4
-0.00830536 0 0.27 57439.2
-0.00768758 0 0.27 57562.8
-0.0071141 0 0.27 57679.1
-0.00658165 0 0.27 57788.4
-0.00608714 0 0.27 57892.2
-0.00562772 0 0.27 57990.2
-0.00520074 0 0.27 58083.2
-0.00480375 0 0.27 58171.2
-0.00443446 0 0.27 58254.8
-0.00409073 0 0.27 58333.8
-0.00377059 0 0.27 58408.7
-0.00347218 0 0.27 58478.9
-0.00319379 0 0.27 58551
-0.00293381 0 0.27 58613.8
-0.00269075 0 0.27 58674.5
-0.00246319 0 0.27 58731.7
-0.00224984 0 0.27 58786.1
-0.00204945 0 0.27 58837.4
-0.00186089 0 0.27 58886.1
-0.00168306 0 0.27 58931.8
-0.00151492 0 0.27 58975.3
-0.00135552 0 0.27 59015.8
-0.00120394 0 0.27 59054.3
-0.00105929 0 0.27 59089.5
-0.000920752 0 0.27 59123.3
-0.000787523 0 0.27 59153
-0.000658834 0 0.27 59180.4
-0.000533942 0 0.27 59203.7
-0.000412129 0 0.27 59220.6
-0.000292693 0 0.27 59236.8
-0.000174943 0 0.27 59216.1
-5.82025e-05 0 0.27 59419.7
6.0278e-05 2.68374e-05 0.27 58696.2
0.000182584 8.12915e-05 0.27 58921.3
0.000308438 0.000137325 0.27 58878.9
0.000437939 0.000194983 0.27 58864.4
0.00057119 0.00025431 0.27 58850.8
0.000708293 0.000315353 0.27 58850.4
0.000849358 0.000378158 0.27 58859.7
0.000994492 0.000442776 0.27 58873.9
0.00114381 0.000509256 0.27 58895.4
0.00129743 0.000577649 0.27 58920.1
0.00145545 0.000648007 0.27 58950.3
0.00161801 0.000720386 0.27 58983.6
0.00178523 0.000794839 0.27 59021.4
0.00195724 0.000871423 0.27 59062
0.00213417 0.000950195 0.27 59106.5
0.00231614 0.00103122 0.27 59153.8
0.0025033 0.00111455 0.27 59204.8
0.00269579 0.00120024 0.27 59258.5
0.00289374 0.00128838 0.27 59315.5
0.00309731 0.00137901 0.27 59375.7
0.00330663 0.00147221 0.27 59439.2
0.00352187 0.00156804 0.27 59506.7
0.00374317 0.00166657 0.27 59576.2
0.0039707 0.00176788 0.27 59648.9
0.00420463 0.00187202 0.27 59724.8
0.00444512 0.0019791 0.27 59804
0.00469233 0.00208916 0.27 59886.7
0.00494645 0.0022023 0.27 59972.7
0.00520763 0.00231859 0.27 60062.3
0.00547608 0.00243811 0.27 60155.3
0.00575197 0.00256094 0.27 60252
0.00603549 0.00268717 0.27 60352.4
0.00632683 0.00281688 0.27 60456.4
0.00662618 0.00295016 0.27 60564.3
0.00693375 0.0030871 0.27 60676.2
0.00724974 0.0032278 0.27 60792
0.00757435 0.00337232 0.27 60912
0.0079078 0.00352077 0.27 61036.3
0.00825029 0.00367327 0.27 61165
0.00860204 0.00382988 0.27 61298.3
0.00896328 0.00399071 0.27 61436.3
0.00933422 0.00415586 0.27 61579.1
0.0097151 0.00432544 0.27 61726.9
0.0101061 0.00449954 0.27 61879.8
0.0105076 0.00467828 0.27 62038.4
0.0109197 0.00486175 0.27 62202.4
0.0113426 0.00505007 0.27 62372.6
0.0117768 0.00524333 0.27 62548.7
0.0122222 0.00544166 0.27 62731.5
0.0126792 0.00564515 0.27 62920.6
0.0131482 0.00585394 0.27 63116.9
0.0136292 0.00606812 0.27 63320.1
0.0141227 0.00628781 0.27 63531.1
0.0146288 0.00651313 0.27 63749.8
0.0151477 0.00674419 0.27 63976.5
0.0156799 0.00698113 0.27 64211.5
0.0162254 0.00722403 0.27 64455
0.0167847 0.00747303 0.27 64707.3
0.017358 0.00772826 0.27 64968.7
0.0179454 0.00798982 0.27 65239.5
0.0185474 0.00825783 0.27 65519.8
0.0191641 0.00853242 0.27 65809.9
0.0197959 0.00881371 0.27 66109.9
0.0204431 0.00910183 0.27 66419.9
0.0211057 0.00939688 0.27 66739.8
0.0217843 0.00969898 0.27 67069.8
0.0224789 0.0100083 0.27 67409.9
0.02319 0.0103248 0.27 67760.2
0.0239176 0.0106488 0.27 68121
0.0246623 0.0109804 0.27 68492.2
0.025424 0.0113195 0.27 68873.8
0.0262032 0.0116664 0.27 69266.2
0.0270001 0.0120212 0.27 69669.1
0.0278149 0.012384 0.27 70082.5
0.0286479 0.0127549 0.27 70506.8
0.0294992 0.0131339 0.27 70941.1
0.0303692 0.0135212 0.27 71385.9
0.0312581 0.013917 0.27 71840.5
0.0321659 0.0143213 0.27 72304.7
0.0330931 0.014734 0.27 72778.5
0.0340398 0.0151555 0.27 73261.9
0.0350062 0.0155858 0.27 73754.8
0.0359924 0.0160249 0.27 74257
0.0369987 0.0164729 0.27 74769.6
0.0380251 0.0169299 0.27 75290.6
0.0390719 0.0173959 0.27 75820.7
0.0401391 0.0178711 0.27 76359.4
0.041227 0.0183554 0.27 76905
0.0423356 0.018849 0.27 77458.9
0.043465 0.0193519 0.27 78020.5
0.0446154 0.0198641 0.27 78587.2
0.0457867 0.0203856 0.27 79159.4
0.046979 0.0209164 0.27 79734.7
0.0481924 0.0214567 0.27 80312.4
0.0494267 0.0220063 0.27 80890.1
0.0506823 0.0225652 0.27 81465.6
0.0519588 0.0231335 0.27 82037.1
0.0532563 0.0237113 0.27 82601.9
0.0545749 0.0242983 0.27 83158.7
0.0559142 0.0248946 0.27 83704.5
0.0572744 0.0255002 0.27 84238.5
0.0586552 0.0261149 0.27 84759
0.0600565 0.0267388 0.27 85266.4
0.0614781 0.0273718 0.27 85761.1
0.0629198 0.0280137 0.27 86243.3
0.0643815 0.0286645 0.27 86716.6
0.0658629 0.029324 0.27 87180.9
0.0673636 0.0299922 0.27 87639.8
0.0688836 0.030669 0.27 88094.1
0.0704223 0.0313541 0.27 88546
0.0719795 0.0320474 0.27 88998.3
0.0735549 0.0327488 0.27 89450.2
0.075148 0.0334581 0.27 89902.5
0.0767585 0.0341751 0.27 90355.6
0.0783859 0.0348996 0.27 90807.3
0.0800297 0.0356315 0.27 91258.5
0.0816895 0.0363706 0.27 91708.4
0.0833647 0.0371164 0.27 92149.1
0.085055 0.0378689 0.27 92580.2
0.0867595 0.0386278 0.27 92992.2
0.0884779 0.0393929 0.27 93381.2
0.0902095 0.0401639 0.27 93744.9
0.0919538 0.0409405 0.27 94080.8
0.09371 0.0417224 0.27 94387.4
0.0954776 0.0425094 0.27 94667.4
0.0972558 0.0433011 0.27 94925.1
0.0990439 0.0440972 0.27 95164.3
0.100841 0.0448975 0.27 95383
0.102647 0.0457015 0.27 95584.3
0.104461 0.046509 0.27 95790.1
0.106282 0.0473197 0.27 95984.8
0.108109 0.0481331 0.27 96194.6
0.109941 0.048949 0.27 96399.4
0.111779 0.0497671 0.27 96601.4
0.11362 0.0505868 0.27 96811.9
0.115464 0.051408 0.27 97058.8
0.117311 0.0522302 0.27 97295
0.11916 0.0530531 0.27 97524.4
0.121009 0.0538763 0.27 97803.6
0.122857 0.0546995 0.27 98065
0.124705 0.0555223 0.27 98310.9
0.126552 0.0563444 0.27 98558.1
0.128395 0.0571653 0.27 98797.3
0.130236 0.0579847 0.27 99022.6
0.132072 0.0588023 0.27 99231.4
0.133904 0.0596177 0.27 99422.2
0.13573 0.0604306 0.27 99579.4
0.137549 0.0612407 0.27 99695.9
0.139361 0.0620475 0.27 99794.6
0.141165 0.0628508 0.27 99850.2
0.14296 0.0636503 0.27 99948.1
0.144747 0.0644455 0.27 100026
0.146523 0.0652363 0.27 100080
0.148288 0.0660222 0.27 100127
0.150042 0.0668031 0.27 100156
0.151784 0.0675785 0.27 100217
0.153513 0.0683483 0.27 100235
0.155228 0.0691121 0.27 100268
0.15693 0.0698698 0.27 100336
0.158617 0.070621 0.27 100392
0.160289 0.0713654 0.27 100476
0.161946 0.072103 0.27 100552
0.163586 0.0728334 0.27 100629
0.165211 0.0735564 0.27 100732
0.166817 0.0742718 0.27 100832
0.168406 0.0749795 0.27 100948
0.169978 0.0756793 0.27 101071
0.171532 0.0763709 0.27 101172
0.173067 0.0770543 0.27 101277
0.174583 0.0777293 0.27 101366
0.17608 0.0783958 0.27 101486
0.177557 0.0790535 0.27 101623
0.179014 0.0797025 0.27 101677
0.180452 0.0803425 0.27 101741
0.18187 0.0809736 0.27 101860
0.183266 0.0815956 0.27 101985
0.184643 0.0822085 0.27 102148
0.185999 0.0828122 0.27 102283
0.187334 0.0834066 0.27 102415
0.188648 0.0839917 0.27 102584
0.189942 0.0845675 0.27 102733
0.191214 0.0851339 0.27 102943
0.192465 0.085691 0.27 103116
0.193695 0.0862387 0.27 103327
0.194904 0.086777 0.27 103558
0.196093 0.0873059 0.27 103789
0.197259 0.0878254 0.27 104019
0.198405 0.0883357 0.27 104259
0.19953 0.0888366 0.27 104529
0.200635 0.0893284 0.27 104832
0.201718 0.0898108 0.27 105102
0.202782 0.0902841 0.27 105361
0.203824 0.0907483 0.27 105624
0.204846 0.0912035 0.27 105839
0.205848 0.0916496 0.27 106068
0.206831 0.0920869 0.27 106311
0.207793 0.0925153 0.27 106519
0.208735 0.092935 0.27 106755
0.209658 0.093346 0.27 106653
