# Moment      
# CofR        : (0.000000e+00 0.000000e+00 0.000000e+00)
#
# Time        	(total_x total_y total_z)	(pressure_x pressure_y pressure_z)	(viscous_x viscous_y viscous_z)
2             	(3.094340e+00 7.231794e-01 -2.829464e+01)	(3.094349e+00 0.000000e+00 -2.829473e+01)	(-9.756914e-06 7.231794e-01 8.913101e-05)
3             	(3.117432e+00 7.289525e-01 -2.850580e+01)	(3.117462e+00 0.000000e+00 -2.850607e+01)	(-3.006555e-05 7.289525e-01 2.747448e-04)
4             	(3.140603e+00 7.346688e-01 -2.871768e+01)	(3.140664e+00 0.000000e+00 -2.871824e+01)	(-6.097876e-05 7.346688e-01 5.573261e-04)
5             	(3.163951e+00 7.403882e-01 -2.893118e+01)	(3.164054e+00 0.000000e+00 -2.893212e+01)	(-1.029572e-04 7.403882e-01 9.410868e-04)
6             	(3.191924e+00 7.460395e-01 -2.918696e+01)	(3.192093e+00 0.000000e+00 -2.918850e+01)	(-1.687946e-04 7.460395e-01 1.542998e-03)
7             	(3.225350e+00 7.527879e-01 -2.949261e+01)	(3.225620e+00 0.000000e+00 -2.949508e+01)	(-2.703333e-04 7.527879e-01 2.471345e-03)
8             	(3.260990e+00 7.609174e-01 -2.981851e+01)	(3.261395e+00 0.000000e+00 -2.982222e+01)	(-4.055084e-04 7.609174e-01 3.707261e-03)
9             	(3.301205e+00 7.695037e-01 -3.018625e+01)	(3.301797e+00 0.000000e+00 -3.019167e+01)	(-5.922724e-04 7.695037e-01 5.414901e-03)
10            	(3.343761e+00 7.792211e-01 -3.057539e+01)	(3.344591e+00 0.000000e+00 -3.058298e+01)	(-8.300915e-04 7.792211e-01 7.589397e-03)
11            	(3.390338e+00 7.894310e-01 -3.100131e+01)	(3.391477e+00 0.000000e+00 -3.101172e+01)	(-1.138760e-03 7.894310e-01 1.041175e-02)
12            	(3.439224e+00 8.006183e-01 -3.144834e+01)	(3.440742e+00 0.000000e+00 -3.146222e+01)	(-1.518843e-03 8.006183e-01 1.388716e-02)
13            	(3.491669e+00 8.122960e-01 -3.192792e+01)	(3.493661e+00 0.000000e+00 -3.194613e+01)	(-1.991884e-03 8.122960e-01 1.821261e-02)
14            	(3.546285e+00 8.248336e-01 -3.242735e+01)	(3.548844e+00 0.000000e+00 -3.245075e+01)	(-2.559466e-03 8.248336e-01 2.340261e-02)
15            	(3.604024e+00 8.378408e-01 -3.295535e+01)	(3.607269e+00 0.000000e+00 -3.298502e+01)	(-3.244759e-03 8.378408e-01 2.966906e-02)
16            	(3.663709e+00 8.516117e-01 -3.350115e+01)	(3.667760e+00 0.000000e+00 -3.353818e+01)	(-4.050260e-03 8.516117e-01 3.703479e-02)
17            	(3.726066e+00 8.658220e-01 -3.407138e+01)	(3.731067e+00 0.000000e+00 -3.411710e+01)	(-5.000554e-03 8.658220e-01 4.572467e-02)
18            	(3.790057e+00 8.807135e-01 -3.465656e+01)	(3.796156e+00 0.000000e+00 -3.471232e+01)	(-6.098855e-03 8.807135e-01 5.576810e-02)
19            	(3.856219e+00 8.960095e-01 -3.526159e+01)	(3.863590e+00 0.000000e+00 -3.532899e+01)	(-7.370806e-03 8.960095e-01 6.739961e-02)
20            	(3.923615e+00 9.119129e-01 -3.587792e+01)	(3.932436e+00 0.000000e+00 -3.595857e+01)	(-8.820209e-03 9.119129e-01 8.065402e-02)
21            	(3.992620e+00 9.281850e-01 -3.650895e+01)	(4.003093e+00 0.000000e+00 -3.660472e+01)	(-1.047339e-02 9.281850e-01 9.577208e-02)
22            	(4.062370e+00 9.449992e-01 -3.714681e+01)	(4.074704e+00 0.000000e+00 -3.725960e+01)	(-1.233461e-02 9.449992e-01 1.127929e-01)
23            	(4.133089e+00 9.621482e-01 -3.779353e+01)	(4.147519e+00 0.000000e+00 -3.792549e+01)	(-1.443041e-02 9.621482e-01 1.319592e-01)
24            	(4.203972e+00 9.797825e-01 -3.844176e+01)	(4.220737e+00 0.000000e+00 -3.859507e+01)	(-1.676547e-02 9.797825e-01 1.533138e-01)
25            	(4.275105e+00 9.977213e-01 -3.909228e+01)	(4.294471e+00 0.000000e+00 -3.926937e+01)	(-1.936617e-02 9.977213e-01 1.770980e-01)
26            	(4.345727e+00 1.016097e+00 -3.973812e+01)	(4.367965e+00 0.000000e+00 -3.994148e+01)	(-2.223766e-02 1.016097e+00 2.033590e-01)
27            	(4.415803e+00 1.034753e+00 -4.037897e+01)	(4.441209e+00 0.000000e+00 -4.061131e+01)	(-2.540597e-02 1.034753e+00 2.323350e-01)
28            	(4.484606e+00 1.053805e+00 -4.100819e+01)	(4.513483e+00 0.000000e+00 -4.127227e+01)	(-2.887702e-02 1.053805e+00 2.640801e-01)
29            	(4.551990e+00 1.073118e+00 -4.162442e+01)	(4.584667e+00 0.000000e+00 -4.192325e+01)	(-3.267663e-02 1.073118e+00 2.988306e-01)
30            	(4.617262e+00 1.092794e+00 -4.222134e+01)	(4.654074e+00 0.000000e+00 -4.255799e+01)	(-3.681218e-02 1.092794e+00 3.366541e-01)
31            	(4.680174e+00 1.112713e+00 -4.279668e+01)	(4.721484e+00 0.000000e+00 -4.317446e+01)	(-4.130972e-02 1.112713e+00 3.777890e-01)
32            	(4.740038e+00 1.132963e+00 -4.334413e+01)	(4.786217e+00 0.000000e+00 -4.376645e+01)	(-4.617906e-02 1.132963e+00 4.223249e-01)
33            	(4.796495e+00 1.153430e+00 -4.386043e+01)	(4.847943e+00 0.000000e+00 -4.433094e+01)	(-5.144736e-02 1.153430e+00 4.705106e-01)
34            	(4.848879e+00 1.174179e+00 -4.433946e+01)	(4.906009e+00 0.000000e+00 -4.486194e+01)	(-5.712935e-02 1.174179e+00 5.224808e-01)
35            	(4.896736e+00 1.195089e+00 -4.477708e+01)	(4.959992e+00 0.000000e+00 -4.535560e+01)	(-6.325604e-02 1.195089e+00 5.785194e-01)
36            	(4.939373e+00 1.216191e+00 -4.516694e+01)	(5.009221e+00 0.000000e+00 -4.580577e+01)	(-6.984889e-02 1.216191e+00 6.388227e-01)
37            	(4.976211e+00 1.237334e+00 -4.550377e+01)	(5.053156e+00 0.000000e+00 -4.620749e+01)	(-7.694477e-02 1.237334e+00 7.037282e-01)
38            	(5.006481e+00 1.258482e+00 -4.578048e+01)	(5.091055e+00 0.000000e+00 -4.655400e+01)	(-8.457414e-02 1.258482e+00 7.735146e-01)
39            	(5.029425e+00 1.279413e+00 -4.599019e+01)	(5.122207e+00 0.000000e+00 -4.683878e+01)	(-9.278159e-02 1.279413e+00 8.485899e-01)
40            	(5.044107e+00 1.299989e+00 -4.612428e+01)	(5.145711e+00 0.000000e+00 -4.705357e+01)	(-1.016038e-01 1.299989e+00 9.292902e-01)
41            	(5.049693e+00 1.320196e+00 -4.617516e+01)	(5.160665e+00 0.000000e+00 -4.719014e+01)	(-1.109716e-01 1.320196e+00 1.014982e+00)
42            	(5.045915e+00 1.339329e+00 -4.614035e+01)	(5.166718e+00 0.000000e+00 -4.724526e+01)	(-1.208033e-01 1.339329e+00 1.104919e+00)
43            	(5.032707e+00 1.356540e+00 -4.601924e+01)	(5.163737e+00 0.000000e+00 -4.721772e+01)	(-1.310306e-01 1.356540e+00 1.198475e+00)
44            	(5.009901e+00 1.371860e+00 -4.581031e+01)	(5.151430e+00 0.000000e+00 -4.710483e+01)	(-1.415291e-01 1.371860e+00 1.294512e+00)
45            	(4.976602e+00 1.384550e+00 -4.550536e+01)	(5.128852e+00 0.000000e+00 -4.689794e+01)	(-1.522502e-01 1.384550e+00 1.392585e+00)
46            	(4.931074e+00 1.394384e+00 -4.508848e+01)	(5.094112e+00 0.000000e+00 -4.657974e+01)	(-1.630374e-01 1.394384e+00 1.491260e+00)
47            	(4.872084e+00 1.400001e+00 -4.454837e+01)	(5.045718e+00 0.000000e+00 -4.613656e+01)	(-1.736343e-01 1.400001e+00 1.588193e+00)
48            	(4.799539e+00 1.401006e+00 -4.388421e+01)	(4.983256e+00 0.000000e+00 -4.556463e+01)	(-1.837171e-01 1.401006e+00 1.680417e+00)
49            	(4.712929e+00 1.396127e+00 -4.309132e+01)	(4.905809e+00 0.000000e+00 -4.485554e+01)	(-1.928805e-01 1.396127e+00 1.764224e+00)
50            	(4.612694e+00 1.385013e+00 -4.217373e+01)	(4.813351e+00 0.000000e+00 -4.400906e+01)	(-2.006572e-01 1.385013e+00 1.835335e+00)
51            	(4.501725e+00 1.365760e+00 -4.115791e+01)	(4.708044e+00 0.000000e+00 -4.304500e+01)	(-2.063191e-01 1.365760e+00 1.887083e+00)
52            	(4.432513e+00 1.368098e+00 -4.052488e+01)	(4.643823e+00 0.000000e+00 -4.245758e+01)	(-2.113095e-01 1.368098e+00 1.932701e+00)
53            	(4.336058e+00 1.297139e+00 -3.964230e+01)	(4.542638e+00 0.000000e+00 -4.153160e+01)	(-2.065799e-01 1.297139e+00 1.889299e+00)
54            	(4.256584e+00 1.300920e+00 -3.891492e+01)	(4.466635e+00 0.000000e+00 -4.083593e+01)	(-2.100508e-01 1.300920e+00 1.921014e+00)
55            	(4.130235e+00 1.229567e+00 -3.775855e+01)	(4.330313e+00 0.000000e+00 -3.958821e+01)	(-2.000782e-01 1.229567e+00 1.829658e+00)
56            	(4.036498e+00 1.212983e+00 -3.690065e+01)	(4.233722e+00 0.000000e+00 -3.870413e+01)	(-1.972239e-01 1.212983e+00 1.803478e+00)
57            	(3.909129e+00 1.121861e+00 -3.573509e+01)	(4.083877e+00 0.000000e+00 -3.733276e+01)	(-1.747480e-01 1.121861e+00 1.597665e+00)
58            	(3.828100e+00 1.107390e+00 -3.499353e+01)	(3.997285e+00 0.000000e+00 -3.654022e+01)	(-1.691846e-01 1.107390e+00 1.546694e+00)
59            	(3.695974e+00 1.034473e+00 -3.378416e+01)	(3.841023e+00 0.000000e+00 -3.510988e+01)	(-1.450487e-01 1.034473e+00 1.325718e+00)
60            	(3.591347e+00 9.782174e-01 -3.282658e+01)	(3.709578e+00 0.000000e+00 -3.390676e+01)	(-1.182311e-01 9.782174e-01 1.080188e+00)
61            	(3.524063e+00 9.239491e-01 -3.221087e+01)	(3.609155e+00 0.000000e+00 -3.298767e+01)	(-8.509214e-02 9.239491e-01 7.767976e-01)
62            	(3.492076e+00 8.792936e-01 -3.191829e+01)	(3.543421e+00 0.000000e+00 -3.238614e+01)	(-5.134470e-02 8.792936e-01 4.678472e-01)
63            	(3.489284e+00 8.398372e-01 -3.189296e+01)	(3.508416e+00 0.000000e+00 -3.206592e+01)	(-1.913225e-02 8.398372e-01 1.729675e-01)
64            	(3.510937e+00 8.094989e-01 -3.209136e+01)	(3.506225e+00 0.000000e+00 -3.204607e+01)	(4.712219e-03 8.094989e-01 -4.528444e-02)
65            	(3.542244e+00 7.805150e-01 -3.237804e+01)	(3.525818e+00 0.000000e+00 -3.222565e+01)	(1.642574e-02 7.805150e-01 -1.523871e-01)
66            	(3.646012e+00 7.611439e-01 -3.332839e+01)	(3.624145e+00 0.000000e+00 -3.312628e+01)	(2.186695e-02 7.611439e-01 -2.021124e-01)
67            	(3.711030e+00 7.468718e-01 -3.392336e+01)	(3.690510e+00 0.000000e+00 -3.373368e+01)	(2.051923e-02 7.468718e-01 -1.896868e-01)
68            	(3.740277e+00 7.288534e-01 -3.419080e+01)	(3.724578e+00 0.000000e+00 -3.404532e+01)	(1.569865e-02 7.288534e-01 -1.454759e-01)
69            	(3.747499e+00 7.094350e-01 -3.425651e+01)	(3.736685e+00 0.000000e+00 -3.415583e+01)	(1.081394e-02 7.094350e-01 -1.006849e-01)
70            	(3.745752e+00 6.888714e-01 -3.424008e+01)	(3.738651e+00 0.000000e+00 -3.417344e+01)	(7.101709e-03 6.888714e-01 -6.663567e-02)
71            	(3.738294e+00 6.671514e-01 -3.417136e+01)	(3.734179e+00 0.000000e+00 -3.413215e+01)	(4.114555e-03 6.671514e-01 -3.920958e-02)
72            	(3.720790e+00 6.440036e-01 -3.401061e+01)	(3.718339e+00 0.000000e+00 -3.398671e+01)	(2.451560e-03 6.440036e-01 -2.390064e-02)
73            	(3.690684e+00 6.213365e-01 -3.373411e+01)	(3.687164e+00 0.000000e+00 -3.370048e+01)	(3.519990e-03 6.213365e-01 -3.363287e-02)
74            	(3.675852e+00 5.985141e-01 -3.359761e+01)	(3.669697e+00 0.000000e+00 -3.353986e+01)	(6.155270e-03 5.985141e-01 -5.774430e-02)
75            	(3.681748e+00 5.784629e-01 -3.365098e+01)	(3.674216e+00 0.000000e+00 -3.358064e+01)	(7.531393e-03 5.784629e-01 -7.034692e-02)
76            	(3.688973e+00 5.646568e-01 -3.371673e+01)	(3.682307e+00 0.000000e+00 -3.365430e+01)	(6.666218e-03 5.646568e-01 -6.242459e-02)
77            	(3.684578e+00 5.508330e-01 -3.367616e+01)	(3.679731e+00 0.000000e+00 -3.363041e+01)	(4.846828e-03 5.508330e-01 -4.575033e-02)
78            	(3.674780e+00 5.374646e-01 -3.358587e+01)	(3.671448e+00 0.000000e+00 -3.355398e+01)	(3.332451e-03 5.374646e-01 -3.188531e-02)
79            	(3.662738e+00 5.243693e-01 -3.347522e+01)	(3.660666e+00 0.000000e+00 -3.345489e+01)	(2.071137e-03 5.243693e-01 -2.033547e-02)
80            	(3.650485e+00 5.118410e-01 -3.336247e+01)	(3.649075e+00 0.000000e+00 -3.334817e+01)	(1.410086e-03 5.118410e-01 -1.429421e-02)
81            	(3.639646e+00 4.998436e-01 -3.326277e+01)	(3.638343e+00 0.000000e+00 -3.324943e+01)	(1.303560e-03 4.998436e-01 -1.334107e-02)
82            	(3.630590e+00 4.886711e-01 -3.317954e+01)	(3.629145e+00 0.000000e+00 -3.316489e+01)	(1.445368e-03 4.886711e-01 -1.465292e-02)
83            	(3.622137e+00 4.780145e-01 -3.310177e+01)	(3.620539e+00 0.000000e+00 -3.308572e+01)	(1.597376e-03 4.780145e-01 -1.605130e-02)
84            	(3.613736e+00 4.679743e-01 -3.302445e+01)	(3.612079e+00 0.000000e+00 -3.300785e+01)	(1.657013e-03 4.679743e-01 -1.660240e-02)
85            	(3.605181e+00 4.584641e-01 -3.294571e+01)	(3.603538e+00 0.000000e+00 -3.292923e+01)	(1.643424e-03 4.584641e-01 -1.648712e-02)
86            	(3.596898e+00 4.495445e-01 -3.286943e+01)	(3.595275e+00 0.000000e+00 -3.285313e+01)	(1.622474e-03 4.495445e-01 -1.630763e-02)
87            	(3.589357e+00 4.411482e-01 -3.279999e+01)	(3.587703e+00 0.000000e+00 -3.278338e+01)	(1.653804e-03 4.411482e-01 -1.660831e-02)
88            	(3.583711e+00 4.334152e-01 -3.274794e+01)	(3.581994e+00 0.000000e+00 -3.273073e+01)	(1.717561e-03 4.334152e-01 -1.720519e-02)
89            	(3.580133e+00 4.262446e-01 -3.271485e+01)	(3.578311e+00 0.000000e+00 -3.269667e+01)	(1.822262e-03 4.262446e-01 -1.817645e-02)
90            	(3.577984e+00 4.194901e-01 -3.269487e+01)	(3.576078e+00 0.000000e+00 -3.267591e+01)	(1.906608e-03 4.194901e-01 -1.895991e-02)
91            	(3.576290e+00 4.129544e-01 -3.267906e+01)	(3.574415e+00 0.000000e+00 -3.266037e+01)	(1.875902e-03 4.129544e-01 -1.868686e-02)
92            	(3.573119e+00 4.062703e-01 -3.264967e+01)	(3.571491e+00 0.000000e+00 -3.263326e+01)	(1.627811e-03 4.062703e-01 -1.641841e-02)
93            	(3.568701e+00 3.995639e-01 -3.260886e+01)	(3.567388e+00 0.000000e+00 -3.259532e+01)	(1.312724e-03 3.995639e-01 -1.353623e-02)
94            	(3.564866e+00 3.927580e-01 -3.257341e+01)	(3.563704e+00 0.000000e+00 -3.256125e+01)	(1.161944e-03 3.927580e-01 -1.216236e-02)
95            	(3.557771e+00 3.862446e-01 -3.250804e+01)	(3.557137e+00 0.000000e+00 -3.250071e+01)	(6.342016e-04 3.862446e-01 -7.326146e-03)
96            	(3.549161e+00 3.795196e-01 -3.242876e+01)	(3.549177e+00 0.000000e+00 -3.242738e+01)	(-1.531168e-05 3.795196e-01 -1.374780e-03)
97            	(3.539408e+00 3.729976e-01 -3.233899e+01)	(3.539744e+00 0.000000e+00 -3.234056e+01)	(-3.363404e-04 3.729976e-01 1.564773e-03)
98            	(3.532745e+00 3.665171e-01 -3.227759e+01)	(3.532777e+00 0.000000e+00 -3.227635e+01)	(-3.159500e-05 3.665171e-01 -1.239137e-03)
99            	(3.525337e+00 3.607189e-01 -3.220934e+01)	(3.525478e+00 0.000000e+00 -3.220910e+01)	(-1.412856e-04 3.607189e-01 -2.412915e-04)
100           	(3.519184e+00 3.548019e-01 -3.215263e+01)	(3.519400e+00 0.000000e+00 -3.215306e+01)	(-2.156570e-04 3.548019e-01 4.259288e-04)
101           	(3.512766e+00 3.494234e-01 -3.209351e+01)	(3.513096e+00 0.000000e+00 -3.209496e+01)	(-3.294671e-04 3.494234e-01 1.454063e-03)
102           	(3.506853e+00 3.441653e-01 -3.203902e+01)	(3.507594e+00 0.000000e+00 -3.204425e+01)	(-7.412313e-04 3.441653e-01 5.232151e-03)
103           	(3.499037e+00 3.391328e-01 -3.196703e+01)	(3.500175e+00 0.000000e+00 -3.197590e+01)	(-1.137622e-03 3.391328e-01 8.872513e-03)
104           	(3.493135e+00 3.339792e-01 -3.191261e+01)	(3.494289e+00 0.000000e+00 -3.192164e+01)	(-1.154662e-03 3.339792e-01 9.027949e-03)
105           	(3.487877e+00 3.293654e-01 -3.186413e+01)	(3.488944e+00 0.000000e+00 -3.187235e+01)	(-1.067135e-03 3.293654e-01 8.222906e-03)
106           	(3.482251e+00 3.245995e-01 -3.181222e+01)	(3.483355e+00 0.000000e+00 -3.182079e+01)	(-1.104566e-03 3.245995e-01 8.571169e-03)
107           	(3.476736e+00 3.199819e-01 -3.176136e+01)	(3.477917e+00 0.000000e+00 -3.177063e+01)	(-1.180943e-03 3.199819e-01 9.273114e-03)
108           	(3.471107e+00 3.153862e-01 -3.170945e+01)	(3.472386e+00 0.000000e+00 -3.171962e+01)	(-1.278753e-03 3.153862e-01 1.016762e-02)
109           	(3.465501e+00 3.109270e-01 -3.165776e+01)	(3.466879e+00 0.000000e+00 -3.166883e+01)	(-1.377637e-03 3.109270e-01 1.107115e-02)
110           	(3.459475e+00 3.065497e-01 -3.160219e+01)	(3.460976e+00 0.000000e+00 -3.161439e+01)	(-1.500659e-03 3.065497e-01 1.220045e-02)
111           	(3.454626e+00 3.023064e-01 -3.155745e+01)	(3.456096e+00 0.000000e+00 -3.156936e+01)	(-1.469852e-03 3.023064e-01 1.191267e-02)
112           	(3.449806e+00 2.982557e-01 -3.151293e+01)	(3.451261e+00 0.000000e+00 -3.152471e+01)	(-1.454887e-03 2.982557e-01 1.177778e-02)
113           	(3.445387e+00 2.942368e-01 -3.147210e+01)	(3.446758e+00 0.000000e+00 -3.148310e+01)	(-1.370247e-03 2.942368e-01 1.100083e-02)
114           	(3.441131e+00 2.903043e-01 -3.143274e+01)	(3.442425e+00 0.000000e+00 -3.144305e+01)	(-1.294658e-03 2.903043e-01 1.030571e-02)
115           	(3.436884e+00 2.863980e-01 -3.139347e+01)	(3.438143e+00 0.000000e+00 -3.140344e+01)	(-1.258970e-03 2.863980e-01 9.976128e-03)
116           	(3.432505e+00 2.825238e-01 -3.135298e+01)	(3.433776e+00 0.000000e+00 -3.136306e+01)	(-1.270536e-03 2.825238e-01 1.007982e-02)
117           	(3.427846e+00 2.786430e-01 -3.130990e+01)	(3.429172e+00 0.000000e+00 -3.132049e+01)	(-1.326347e-03 2.786430e-01 1.059054e-02)
118           	(3.422895e+00 2.747840e-01 -3.126415e+01)	(3.424304e+00 0.000000e+00 -3.127549e+01)	(-1.408468e-03 2.747840e-01 1.134377e-02)
119           	(3.417754e+00 2.709681e-01 -3.121664e+01)	(3.419235e+00 0.000000e+00 -3.122864e+01)	(-1.480668e-03 2.709681e-01 1.200647e-02)
120           	(3.412708e+00 2.672228e-01 -3.117000e+01)	(3.414214e+00 0.000000e+00 -3.118224e+01)	(-1.506615e-03 2.672228e-01 1.224419e-02)
121           	(3.407909e+00 2.635833e-01 -3.112565e+01)	(3.409382e+00 0.000000e+00 -3.113758e+01)	(-1.472631e-03 2.635833e-01 1.192995e-02)
122           	(3.403375e+00 2.600312e-01 -3.108373e+01)	(3.404781e+00 0.000000e+00 -3.109504e+01)	(-1.405129e-03 2.600312e-01 1.130751e-02)
123           	(3.399086e+00 2.565776e-01 -3.104406e+01)	(3.400417e+00 0.000000e+00 -3.105469e+01)	(-1.331356e-03 2.565776e-01 1.062831e-02)
124           	(3.394937e+00 2.531833e-01 -3.100568e+01)	(3.396209e+00 0.000000e+00 -3.101576e+01)	(-1.272295e-03 2.531833e-01 1.008565e-02)
125           	(3.390885e+00 2.498571e-01 -3.096817e+01)	(3.392115e+00 0.000000e+00 -3.097787e+01)	(-1.229698e-03 2.498571e-01 9.696148e-03)
126           	(3.386869e+00 2.465729e-01 -3.093098e+01)	(3.388050e+00 0.000000e+00 -3.094023e+01)	(-1.180608e-03 2.465729e-01 9.248777e-03)
127           	(3.382876e+00 2.433405e-01 -3.089398e+01)	(3.383998e+00 0.000000e+00 -3.090269e+01)	(-1.122219e-03 2.433405e-01 8.715508e-03)
128           	(3.378943e+00 2.401634e-01 -3.085752e+01)	(3.380005e+00 0.000000e+00 -3.086568e+01)	(-1.061985e-03 2.401634e-01 8.163708e-03)
129           	(3.375066e+00 2.370359e-01 -3.082155e+01)	(3.376076e+00 0.000000e+00 -3.082924e+01)	(-1.010248e-03 2.370359e-01 7.688532e-03)
130           	(3.371234e+00 2.339533e-01 -3.078599e+01)	(3.372206e+00 0.000000e+00 -3.079332e+01)	(-9.717237e-04 2.339533e-01 7.335015e-03)
131           	(3.367457e+00 2.309209e-01 -3.075091e+01)	(3.368400e+00 0.000000e+00 -3.075799e+01)	(-9.436099e-04 2.309209e-01 7.077184e-03)
132           	(3.363746e+00 2.279363e-01 -3.071644e+01)	(3.364667e+00 0.000000e+00 -3.072330e+01)	(-9.208611e-04 2.279363e-01 6.868962e-03)
133           	(3.360149e+00 2.250091e-01 -3.068299e+01)	(3.361046e+00 0.000000e+00 -3.068965e+01)	(-8.970013e-04 2.250091e-01 6.650436e-03)
134           	(3.356745e+00 2.221465e-01 -3.065133e+01)	(3.357606e+00 0.000000e+00 -3.065764e+01)	(-8.604959e-04 2.221465e-01 6.315185e-03)
135           	(3.353445e+00 2.193252e-01 -3.062061e+01)	(3.354282e+00 0.000000e+00 -3.062671e+01)	(-8.373239e-04 2.193252e-01 6.100738e-03)
136           	(3.350117e+00 2.165272e-01 -3.058964e+01)	(3.350960e+00 0.000000e+00 -3.059579e+01)	(-8.426629e-04 2.165272e-01 6.148502e-03)
137           	(3.346661e+00 2.137496e-01 -3.055749e+01)	(3.347532e+00 0.000000e+00 -3.056390e+01)	(-8.717073e-04 2.137496e-01 6.415712e-03)
138           	(3.343055e+00 2.109918e-01 -3.052395e+01)	(3.343962e+00 0.000000e+00 -3.053069e+01)	(-9.061616e-04 2.109918e-01 6.735950e-03)
139           	(3.339480e+00 2.082738e-01 -3.049067e+01)	(3.340386e+00 0.000000e+00 -3.049741e+01)	(-9.058258e-04 2.082738e-01 6.739345e-03)
140           	(3.336004e+00 2.056140e-01 -3.045827e+01)	(3.336894e+00 0.000000e+00 -3.046487e+01)	(-8.900568e-04 2.056140e-01 6.596194e-03)
141           	(3.332703e+00 2.030207e-01 -3.042749e+01)	(3.333568e+00 0.000000e+00 -3.043385e+01)	(-8.648029e-04 2.030207e-01 6.363259e-03)
142           	(3.329531e+00 2.004807e-01 -3.039791e+01)	(3.330372e+00 0.000000e+00 -3.040406e+01)	(-8.419825e-04 2.004807e-01 6.151968e-03)
143           	(3.326434e+00 1.979809e-01 -3.036902e+01)	(3.327263e+00 0.000000e+00 -3.037505e+01)	(-8.284346e-04 1.979809e-01 6.025799e-03)
144           	(3.323377e+00 1.955149e-01 -3.034049e+01)	(3.324200e+00 0.000000e+00 -3.034646e+01)	(-8.227848e-04 1.955149e-01 5.973777e-03)
145           	(3.320342e+00 1.930781e-01 -3.031215e+01)	(3.321163e+00 0.000000e+00 -3.031811e+01)	(-8.213237e-04 1.930781e-01 5.959738e-03)
146           	(3.317331e+00 1.906735e-01 -3.028403e+01)	(3.318152e+00 0.000000e+00 -3.028998e+01)	(-8.203961e-04 1.906735e-01 5.949885e-03)
147           	(3.314355e+00 1.883067e-01 -3.025623e+01)	(3.315173e+00 0.000000e+00 -3.026216e+01)	(-8.177924e-04 1.883067e-01 5.927194e-03)
148           	(3.311416e+00 1.859770e-01 -3.022877e+01)	(3.312230e+00 0.000000e+00 -3.023466e+01)	(-8.141110e-04 1.859770e-01 5.894235e-03)
149           	(3.308521e+00 1.836839e-01 -3.020170e+01)	(3.309330e+00 0.000000e+00 -3.020754e+01)	(-8.088763e-04 1.836839e-01 5.848359e-03)
150           	(3.305697e+00 1.814332e-01 -3.017527e+01)	(3.306496e+00 0.000000e+00 -3.018103e+01)	(-7.991519e-04 1.814332e-01 5.765976e-03)
151           	(3.303024e+00 1.792361e-01 -3.015020e+01)	(3.303802e+00 0.000000e+00 -3.015577e+01)	(-7.775130e-04 1.792361e-01 5.568842e-03)
152           	(3.300452e+00 1.770786e-01 -3.012608e+01)	(3.301211e+00 0.000000e+00 -3.013148e+01)	(-7.594256e-04 1.770786e-01 5.400731e-03)
153           	(3.297888e+00 1.749456e-01 -3.010206e+01)	(3.298645e+00 0.000000e+00 -3.010743e+01)	(-7.568626e-04 1.749456e-01 5.377335e-03)
154           	(3.295265e+00 1.728302e-01 -3.007748e+01)	(3.296033e+00 0.000000e+00 -3.008296e+01)	(-7.676846e-04 1.728302e-01 5.479730e-03)
155           	(3.292598e+00 1.707374e-01 -3.005249e+01)	(3.293377e+00 0.000000e+00 -3.005807e+01)	(-7.783664e-04 1.707374e-01 5.580602e-03)
156           	(3.289930e+00 1.686697e-01 -3.002748e+01)	(3.290710e+00 0.000000e+00 -3.003308e+01)	(-7.803987e-04 1.686697e-01 5.599615e-03)
157           	(3.287316e+00 1.666353e-01 -3.000298e+01)	(3.288088e+00 0.000000e+00 -3.000850e+01)	(-7.722101e-04 1.666353e-01 5.524414e-03)
158           	(3.284773e+00 1.646363e-01 -2.997912e+01)	(3.285533e+00 0.000000e+00 -2.998453e+01)	(-7.599294e-04 1.646363e-01 5.412082e-03)
159           	(3.282296e+00 1.626756e-01 -2.995587e+01)	(3.283044e+00 0.000000e+00 -2.996117e+01)	(-7.478884e-04 1.626756e-01 5.301012e-03)
160           	(3.279854e+00 1.607418e-01 -2.993293e+01)	(3.280594e+00 0.000000e+00 -2.993816e+01)	(-7.406777e-04 1.607418e-01 5.231962e-03)
161           	(3.277445e+00 1.588372e-01 -2.991028e+01)	(3.278180e+00 0.000000e+00 -2.991546e+01)	(-7.353924e-04 1.588372e-01 5.180981e-03)
162           	(3.275067e+00 1.569593e-01 -2.988791e+01)	(3.275796e+00 0.000000e+00 -2.989304e+01)	(-7.297242e-04 1.569593e-01 5.130262e-03)
163           	(3.272725e+00 1.551106e-01 -2.986587e+01)	(3.273449e+00 0.000000e+00 -2.987094e+01)	(-7.233973e-04 1.551106e-01 5.070687e-03)
164           	(3.270419e+00 1.532889e-01 -2.984413e+01)	(3.271136e+00 0.000000e+00 -2.984915e+01)	(-7.172188e-04 1.532889e-01 5.013627e-03)
165           	(3.268146e+00 1.514970e-01 -2.982270e+01)	(3.268859e+00 0.000000e+00 -2.982768e+01)	(-7.130441e-04 1.514970e-01 4.977808e-03)
166           	(3.265922e+00 1.497321e-01 -2.980169e+01)	(3.266628e+00 0.000000e+00 -2.980661e+01)	(-7.058377e-04 1.497321e-01 4.914310e-03)
167           	(3.263778e+00 1.479992e-01 -2.978140e+01)	(3.264470e+00 0.000000e+00 -2.978619e+01)	(-6.918938e-04 1.479992e-01 4.788477e-03)
168           	(3.261728e+00 1.463032e-01 -2.976198e+01)	(3.262403e+00 0.000000e+00 -2.976661e+01)	(-6.745625e-04 1.463032e-01 4.628462e-03)
169           	(3.259699e+00 1.446232e-01 -2.974273e+01)	(3.260365e+00 0.000000e+00 -2.974729e+01)	(-6.662170e-04 1.446232e-01 4.550803e-03)
170           	(3.257654e+00 1.429620e-01 -2.972333e+01)	(3.258322e+00 0.000000e+00 -2.972790e+01)	(-6.674550e-04 1.429620e-01 4.562813e-03)
171           	(3.255591e+00 1.413158e-01 -2.970373e+01)	(3.256261e+00 0.000000e+00 -2.970832e+01)	(-6.704654e-04 1.413158e-01 4.592034e-03)
172           	(3.253535e+00 1.396913e-01 -2.968419e+01)	(3.254205e+00 0.000000e+00 -2.968878e+01)	(-6.693711e-04 1.396913e-01 4.583460e-03)
173           	(3.251502e+00 1.380883e-01 -2.966485e+01)	(3.252167e+00 0.000000e+00 -2.966939e+01)	(-6.646287e-04 1.380883e-01 4.540777e-03)
174           	(3.249516e+00 1.365075e-01 -2.964594e+01)	(3.250172e+00 0.000000e+00 -2.965040e+01)	(-6.554482e-04 1.365075e-01 4.458480e-03)
175           	(3.247567e+00 1.349528e-01 -2.962733e+01)	(3.248214e+00 0.000000e+00 -2.963172e+01)	(-6.474714e-04 1.349528e-01 4.389083e-03)
176           	(3.245638e+00 1.334226e-01 -2.960890e+01)	(3.246281e+00 0.000000e+00 -2.961325e+01)	(-6.427698e-04 1.334226e-01 4.349002e-03)
177           	(3.243709e+00 1.319117e-01 -2.959035e+01)	(3.244350e+00 0.000000e+00 -2.959471e+01)	(-6.417629e-04 1.319117e-01 4.352222e-03)
178           	(3.241809e+00 1.304226e-01 -2.957207e+01)	(3.242446e+00 0.000000e+00 -2.957639e+01)	(-6.371193e-04 1.304226e-01 4.314854e-03)
179           	(3.239957e+00 1.289586e-01 -2.955424e+01)	(3.240586e+00 0.000000e+00 -2.955847e+01)	(-6.287349e-04 1.289586e-01 4.234179e-03)
180           	(3.238147e+00 1.275171e-01 -2.953679e+01)	(3.238768e+00 0.000000e+00 -2.954095e+01)	(-6.204507e-04 1.275171e-01 4.154168e-03)
181           	(3.236376e+00 1.260974e-01 -2.951968e+01)	(3.236989e+00 0.000000e+00 -2.952376e+01)	(-6.128051e-04 1.260974e-01 4.087063e-03)
182           	(3.234646e+00 1.247002e-01 -2.950287e+01)	(3.235252e+00 0.000000e+00 -2.950690e+01)	(-6.052906e-04 1.247002e-01 4.028206e-03)
183           	(3.233004e+00 1.233315e-01 -2.948690e+01)	(3.233596e+00 0.000000e+00 -2.949080e+01)	(-5.915385e-04 1.233315e-01 3.897125e-03)
184           	(3.231348e+00 1.219842e-01 -2.947052e+01)	(3.231937e+00 0.000000e+00 -2.947444e+01)	(-5.897286e-04 1.219842e-01 3.917682e-03)
185           	(3.229696e+00 1.206421e-01 -2.945415e+01)	(3.230285e+00 0.000000e+00 -2.945808e+01)	(-5.893982e-04 1.206421e-01 3.931001e-03)
186           	(3.228065e+00 1.193246e-01 -2.943788e+01)	(3.228651e+00 0.000000e+00 -2.944180e+01)	(-5.862007e-04 1.193246e-01 3.912452e-03)
187           	(3.226456e+00 1.180196e-01 -2.942177e+01)	(3.227038e+00 0.000000e+00 -2.942565e+01)	(-5.817267e-04 1.180196e-01 3.880334e-03)
188           	(3.224866e+00 1.167328e-01 -2.940576e+01)	(3.225444e+00 0.000000e+00 -2.940961e+01)	(-5.774874e-04 1.167328e-01 3.851174e-03)
189           	(3.223282e+00 1.154582e-01 -2.938965e+01)	(3.223857e+00 0.000000e+00 -2.939349e+01)	(-5.748535e-04 1.154582e-01 3.848438e-03)
190           	(3.221719e+00 1.142011e-01 -2.937355e+01)	(3.222290e+00 0.000000e+00 -2.937739e+01)	(-5.708581e-04 1.142011e-01 3.839333e-03)
191           	(3.220191e+00 1.129613e-01 -2.935765e+01)	(3.220756e+00 0.000000e+00 -2.936145e+01)	(-5.644987e-04 1.129613e-01 3.801734e-03)
192           	(3.218708e+00 1.117419e-01 -2.934216e+01)	(3.219264e+00 0.000000e+00 -2.934588e+01)	(-5.561114e-04 1.117419e-01 3.724362e-03)
193           	(3.217247e+00 1.105390e-01 -2.932663e+01)	(3.217798e+00 0.000000e+00 -2.933032e+01)	(-5.501410e-04 1.105390e-01 3.698370e-03)
194           	(3.215824e+00 1.093571e-01 -2.931134e+01)	(3.216368e+00 0.000000e+00 -2.931500e+01)	(-5.434834e-04 1.093571e-01 3.659563e-03)
195           	(3.214441e+00 1.081924e-01 -2.929633e+01)	(3.214976e+00 0.000000e+00 -2.929993e+01)	(-5.356119e-04 1.081924e-01 3.598316e-03)
196           	(3.213124e+00 1.070496e-01 -2.928197e+01)	(3.213648e+00 0.000000e+00 -2.928546e+01)	(-5.241013e-04 1.070496e-01 3.489551e-03)
197           	(3.211885e+00 1.059275e-01 -2.926836e+01)	(3.212395e+00 0.000000e+00 -2.927171e+01)	(-5.098210e-04 1.059275e-01 3.346933e-03)
198           	(3.210738e+00 1.048351e-01 -2.925580e+01)	(3.211232e+00 0.000000e+00 -2.925898e+01)	(-4.944121e-04 1.048351e-01 3.175077e-03)
199           	(3.209645e+00 1.037585e-01 -2.924387e+01)	(3.210128e+00 0.000000e+00 -2.924691e+01)	(-4.830481e-04 1.037585e-01 3.045326e-03)
200           	(3.208616e+00 1.026953e-01 -2.923281e+01)	(3.209088e+00 0.000000e+00 -2.923571e+01)	(-4.718722e-04 1.026953e-01 2.899738e-03)
201           	(3.207661e+00 1.016489e-01 -2.922286e+01)	(3.208120e+00 0.000000e+00 -2.922557e+01)	(-4.588683e-04 1.016489e-01 2.712975e-03)
202           	(3.206770e+00 1.006156e-01 -2.921398e+01)	(3.207217e+00 0.000000e+00 -2.921650e+01)	(-4.467480e-04 1.006156e-01 2.523789e-03)
203           	(3.205938e+00 9.959559e-02 -2.920612e+01)	(3.206374e+00 0.000000e+00 -2.920846e+01)	(-4.360253e-04 9.959559e-02 2.344582e-03)
204           	(3.205151e+00 9.858980e-02 -2.919921e+01)	(3.205579e+00 0.000000e+00 -2.920139e+01)	(-4.273915e-04 9.858980e-02 2.182465e-03)
205           	(3.204415e+00 9.759732e-02 -2.919319e+01)	(3.204834e+00 0.000000e+00 -2.919522e+01)	(-4.187499e-04 9.759732e-02 2.032590e-03)
206           	(3.203716e+00 9.662060e-02 -2.918793e+01)	(3.204127e+00 0.000000e+00 -2.918984e+01)	(-4.116705e-04 9.662060e-02 1.905593e-03)
207           	(3.203022e+00 9.565133e-02 -2.918306e+01)	(3.203431e+00 0.000000e+00 -2.918489e+01)	(-4.090353e-04 9.565133e-02 1.831628e-03)
208           	(3.202313e+00 9.468917e-02 -2.917825e+01)	(3.202723e+00 0.000000e+00 -2.918006e+01)	(-4.100696e-04 9.468917e-02 1.810225e-03)
209           	(3.201577e+00 9.373274e-02 -2.917328e+01)	(3.201990e+00 0.000000e+00 -2.917511e+01)	(-4.131105e-04 9.373274e-02 1.829380e-03)
210           	(3.200810e+00 9.278378e-02 -2.916797e+01)	(3.201227e+00 0.000000e+00 -2.916985e+01)	(-4.168652e-04 9.278378e-02 1.876652e-03)
211           	(3.199999e+00 9.184214e-02 -2.916210e+01)	(3.200421e+00 0.000000e+00 -2.916406e+01)	(-4.221760e-04 9.184214e-02 1.955109e-03)
212           	(3.199143e+00 9.091117e-02 -2.915558e+01)	(3.199571e+00 0.000000e+00 -2.915763e+01)	(-4.281768e-04 9.091117e-02 2.051567e-03)