# p  FACE_DATA 398
# x  y  z  p
-0.7975 -7.61524e-06 0 225.796
-0.79239 -7.61524e-06 0 155.26
-0.787056 -7.61524e-06 0 118.092
-0.781492 -7.61524e-06 0 108.187
-0.775691 -7.61524e-06 0 101.297
-0.769649 -7.61524e-06 0 95.8629
-0.763361 -7.61524e-06 0 91.3993
-0.756822 -7.61524e-06 0 87.6436
-0.750025 -7.61524e-06 0 84.3366
-0.742968 -7.61524e-06 0 81.4643
-0.735648 -7.61524e-06 0 79.2215
-0.72806 -7.61524e-06 0 77.3752
-0.720203 -7.61524e-06 0 75.724
-0.712075 -7.61524e-06 0 74.2884
-0.703676 -7.61524e-06 0 73.0511
-0.695006 -7.61524e-06 0 71.9282
-0.686065 -7.61524e-06 0 70.8844
-0.676855 -7.61524e-06 0 69.9353
-0.667379 -7.61524e-06 0 69.0878
-0.657641 -7.61524e-06 0 68.3154
-0.647644 -7.61524e-06 0 67.6039
-0.637398 -7.61524e-06 0 66.9566
-0.626906 -7.61524e-06 0 66.3646
-0.616179 -7.61524e-06 0 65.8168
-0.605225 -7.61524e-06 0 65.3031
-0.594054 -7.61524e-06 0 64.8161
-0.582677 -7.61524e-06 0 64.3598
-0.57111 -7.61524e-06 0 63.9418
-0.559364 -7.61524e-06 0 63.5573
-0.547454 -7.61524e-06 0 63.1993
-0.535396 -7.61524e-06 0 62.8658
-0.523205 -7.61524e-06 0 62.5563
-0.510901 -7.61524e-06 0 62.2647
-0.498499 -7.61524e-06 0 61.9844
-0.486021 -7.61524e-06 0 61.7138
-0.473482 -7.61524e-06 0 61.4608
-0.460905 -7.61524e-06 0 61.2339
-0.448307 -7.61524e-06 0 61.0321
-0.435709 -7.61524e-06 0 60.844
-0.42313 -7.61524e-06 0 60.6576
-0.41059 -7.61524e-06 0 60.467
-0.39811 -7.61524e-06 0 60.2809
-0.385706 -7.61524e-06 0 60.1133
-0.373398 -7.61524e-06 0 59.9754
-0.361205 -7.61524e-06 0 59.8658
-0.349142 -7.61524e-06 0 59.7683
-0.337226 -7.61524e-06 0 59.6604
-0.325475 -7.61524e-06 0 59.5287
-0.313901 -7.61524e-06 0 59.3816
-0.30252 -7.61524e-06 0 59.2367
-0.291343 -7.61524e-06 0 59.1119
-0.280381 -7.61524e-06 0 59.0238
-0.269647 -7.61524e-06 0 58.9791
-0.259148 -7.61524e-06 0 58.9728
-0.248893 -7.61524e-06 0 58.9889
-0.23889 -7.61524e-06 0 58.9818
-0.229143 -7.61524e-06 0 58.939
-0.219659 -7.61524e-06 0 58.871
-0.210441 -7.61524e-06 0 58.8018
-0.201491 -7.61524e-06 0 58.8031
-0.192812 -7.61524e-06 0 59.2784
-0.184405 -7.61524e-06 0 60.7959
-0.176269 -7.61524e-06 0 63.8933
-0.168404 -7.61524e-06 0 67.954
-0.160809 -7.61524e-06 0 71.8206
-0.15348 -7.61524e-06 0 75.0106
-0.146415 -7.61524e-06 0 77.6969
-0.13961 -7.61524e-06 0 79.9778
-0.133063 -7.61524e-06 0 82.059
-0.126767 -7.61524e-06 0 84.0744
-0.120717 -7.61524e-06 0 86.0652
-0.11491 -7.61524e-06 0 88.0514
-0.109339 -7.61524e-06 0 90.0112
-0.103997 -7.61524e-06 0 91.925
-0.0988804 -7.61524e-06 0 93.751
-0.0939809 -7.61524e-06 0 95.4861
-0.0892928 -7.61524e-06 0 97.1033
-0.0848096 -7.61524e-06 0 98.5872
-0.0805248 -7.61524e-06 0 99.9362
-0.0764317 -7.61524e-06 0 101.194
-0.0725237 -7.61524e-06 0 102.379
-0.0687943 -7.61524e-06 0 103.512
-0.065237 -7.61524e-06 0 104.609
-0.0618454 -7.61524e-06 0 105.691
-0.058613 -7.61524e-06 0 106.792
-0.0555337 -7.61524e-06 0 107.934
-0.0526013 -7.61524e-06 0 109.135
-0.0498099 -7.61524e-06 0 110.383
-0.0471536 -7.61524e-06 0 111.649
-0.0446266 -7.61524e-06 0 112.908
-0.0422235 -7.61524e-06 0 114.144
-0.0399389 -7.61524e-06 0 115.349
-0.0377676 -7.61524e-06 0 116.522
-0.0357044 -7.61524e-06 0 117.666
-0.0337445 -7.61524e-06 0 118.78
-0.0318832 -7.61524e-06 0 119.86
-0.0301159 -7.61524e-06 0 120.901
-0.0284383 -7.61524e-06 0 121.895
-0.0268462 -7.61524e-06 0 122.835
-0.0253353 -7.61524e-06 0 123.712
-0.023902 -7.61524e-06 0 124.52
-0.0225425 -7.61524e-06 0 125.255
-0.0212532 -7.61524e-06 0 125.915
-0.0200306 -7.61524e-06 0 126.507
-0.0188715 -7.61524e-06 0 127.034
-0.0177727 -7.61524e-06 0 127.502
-0.0167313 -7.61524e-06 0 127.922
-0.0157444 -7.61524e-06 0 128.301
-0.0148093 -7.61524e-06 0 128.651
-0.0139232 -7.61524e-06 0 128.983
-0.0130838 -7.61524e-06 0 129.308
-0.0122887 -7.61524e-06 0 129.637
-0.0115355 -7.61524e-06 0 129.979
-0.0108223 -7.61524e-06 0 130.343
-0.0101469 -7.61524e-06 0 130.735
-0.00950727 -7.61524e-06 0 131.16
-0.00890169 -7.61524e-06 0 131.621
-0.00832834 -7.61524e-06 0 132.118
-0.00778557 -7.61524e-06 0 132.65
-0.00727176 -7.61524e-06 0 133.215
-0.00678541 -7.61524e-06 0 133.81
-0.00632507 -7.61524e-06 0 134.43
-0.00588937 -7.61524e-06 0 135.069
-0.00547703 -7.61524e-06 0 135.725
-0.00508681 -7.61524e-06 0 136.39
-0.00471753 -7.61524e-06 0 137.032
-0.0043681 -7.61524e-06 0 137.67
-0.00403746 -7.61524e-06 0 138.293
-0.00372461 -7.61524e-06 0 138.894
-0.0034286 -7.61524e-06 0 139.47
-0.00314855 -7.61524e-06 0 140.015
-0.00288361 -7.61524e-06 0 140.524
-0.00263295 -7.61524e-06 0 140.995
-0.00239582 -7.61524e-06 0 141.427
-0.00217149 -7.61524e-06 0 141.816
-0.00195929 -7.61524e-06 0 142.163
-0.00175856 -7.61524e-06 0 142.467
-0.00156869 -7.61524e-06 0 142.729
-0.00138908 -7.61524e-06 0 142.949
-0.00121921 -7.61524e-06 0 143.127
-0.00105853 -7.61524e-06 0 143.266
-0.000906546 -7.61524e-06 0 143.366
-0.000762803 -7.61524e-06 0 143.429
-0.000626849 -7.61524e-06 0 143.457
-0.000498266 -7.61524e-06 0 143.456
-0.000376656 -7.61524e-06 0 143.421
-0.000261642 -7.61524e-06 0 143.352
-0.00015287 -7.61524e-06 0 143.246
-5e-05 -7.61524e-06 0 143.134
4.14596e-05 2.03453e-05 0 142.515
0.000125379 7.69412e-05 0 142.491
0.000211356 0.000134924 0 142.409
0.000299438 0.000194328 0 142.345
0.000389678 0.000255186 0 142.294
0.000482128 0.000317535 0 142.247
0.000576841 0.000381409 0 142.202
0.000673871 0.000446848 0 142.158
0.000773276 0.000513887 0 142.113
0.000875112 0.000582565 0 142.069
0.000979439 0.000652924 0 142.024
0.00108632 0.000725003 0 141.98
0.00119581 0.000798843 0 141.937
0.00130797 0.000874487 0 141.893
0.00142287 0.000951979 0 141.855
0.00154058 0.00103136 0 141.816
0.00166117 0.00111268 0 141.781
0.00178469 0.00119599 0 141.75
0.00191123 0.00128133 0 141.723
0.00204085 0.00136875 0 141.702
0.00217364 0.0014583 0 141.686
0.00230966 0.00155003 0 141.678
0.00244899 0.001644 0 141.677
0.00259171 0.00174025 0 141.686
0.00273791 0.00183885 0 141.705
0.00288767 0.00193985 0 141.736
0.00304108 0.0020433 0 141.78
0.0031982 0.00214927 0 141.84
0.00335915 0.00225781 0 141.916
0.003524 0.002369 0 142.011
0.00369286 0.00248287 0 142.127
0.00386582 0.00259951 0 142.266
0.00404297 0.00271899 0 142.43
0.00422442 0.00284136 0 142.621
0.00441026 0.00296669 0 142.842
0.0046006 0.00309506 0 143.094
0.00479556 0.00322653 0 143.38
0.00499523 0.00336119 0 143.7
0.00519972 0.00349911 0 144.056
0.00540916 0.00364036 0 144.45
0.00562366 0.00378501 0 144.883
0.00584334 0.00393316 0 145.355
0.00606831 0.00408489 0 145.868
0.00629871 0.00424027 0 146.423
0.00653466 0.0043994 0 147.02
0.00677629 0.00456236 0 147.66
0.00702374 0.00472923 0 148.344
0.00727714 0.00490013 0 149.074
0.00753663 0.00507513 0 149.851
0.00780234 0.00525433 0 150.676
0.00807444 0.00543783 0 151.551
0.00835306 0.00562573 0 152.478
0.00863835 0.00581814 0 153.458
0.00893047 0.00601514 0 154.495
0.00922958 0.00621687 0 155.588
0.00953584 0.00642341 0 156.742
0.00984939 0.00663489 0 157.956
0.0101705 0.00685141 0 159.24
0.0104992 0.00707309 0 160.588
0.0108357 0.00730005 0 162.005
0.0111802 0.00753241 0 163.498
0.011533 0.0077703 0 165.068
0.0118941 0.00801384 0 166.72
0.0122638 0.00826316 0 168.46
0.0126422 0.00851837 0 170.286
0.0130296 0.00877964 0 172.21
0.0134262 0.00904708 0 174.235
0.0138321 0.00932084 0 176.376
0.0142476 0.00960107 0 178.626
0.0146729 0.00988792 0 181.006
0.0151082 0.0101815 0 183.517
0.0155538 0.0104819 0 186.18
0.0160098 0.0107895 0 188.995
0.0164766 0.0111042 0 191.98
0.0169542 0.0114263 0 195.153
0.0174429 0.011756 0 198.526
0.0179431 0.0120934 0 202.12
0.018455 0.0124386 0 205.962
0.0189789 0.0127918 0 210.064
0.0195149 0.0131533 0 214.469
0.0200633 0.0135232 0 219.213
0.0206245 0.0139016 0 224.308
0.0211986 0.0142888 0 229.795
0.0217861 0.014685 0 235.729
0.022387 0.0150903 0 242.127
0.0230018 0.0155049 0 249.041
0.0236307 0.0159291 0 256.501
0.0242741 0.0163629 0 264.521
0.0249322 0.0168068 0 273.113
0.0256053 0.0172608 0 282.319
0.0262939 0.0177251 0 292.225
0.0269981 0.0182 0 303.069
0.0277183 0.0186857 0 315.298
0.0284548 0.0191825 0 329.337
0.029208 0.0196904 0 345.67
0.0299782 0.0202098 0 364.646
0.0307658 0.0207409 0 386.494
0.031571 0.021284 0 411.955
0.0323942 0.0218393 0 442.568
0.033236 0.0224069 0 479.758
0.0340965 0.0229872 0 524.36
0.0349762 0.0235805 0 576.607
0.0358753 0.0241869 0 636.441
0.0367944 0.0248067 0 703.656
0.0377338 0.0254403 0 778.127
0.0386938 0.0260877 0 859.695
0.039675 0.0267494 0 947.753
0.0406776 0.0274256 0 1042.97
0.0417021 0.0281165 0 1146.86
0.0427488 0.0288225 0 1262.3
0.0438183 0.0295437 0 1393.49
0.0449109 0.0302805 0 1543.32
0.046027 0.0310332 0 1714.4
0.0471671 0.0318021 0 1904.58
0.0483315 0.0325874 0 2110.71
0.0495209 0.0333895 0 2330.47
0.0507354 0.0342086 0 2559.33
0.0519756 0.035045 0 2786.57
0.053242 0.0358991 0 2991.24
0.054535 0.036771 0 3136
0.0558549 0.0376613 0 3215.55
0.0572024 0.03857 0 3255.95
0.0585778 0.0394976 0 3277.24
0.0599816 0.0404443 0 3262.24
0.0614142 0.0414105 0 3214.16
0.0628761 0.0423964 0 3134.8
0.0643678 0.0434024 0 3041.93
0.0658897 0.0444287 0 2942.12
0.0674422 0.0454758 0 2832.84
0.069026 0.0465439 0 2712.27
0.0706413 0.0476333 0 2582.2
0.0722886 0.0487443 0 2453.28
0.0739685 0.0498771 0 2332.7
0.0756813 0.0510323 0 2225.98
0.0774275 0.05221 0 2136.35
0.0792077 0.0534105 0 2063.6
0.0810221 0.0546342 0 2004.7
0.0828712 0.0558812 0 1958
0.0847556 0.0571521 0 1923.22
0.0866757 0.058447 0 1900.78
0.0886318 0.0597661 0 1889.47
0.0906244 0.06111 0 1885.43
0.0926539 0.0624787 0 1879.54
0.0947207 0.0638726 0 1876.91
0.0968252 0.0652919 0 1885.67
0.0989682 0.066737 0 1897.53
0.101149 0.068208 0 1899.17
0.103369 0.0697052 0 1895.1
0.105629 0.0712289 0 1890.84
0.107928 0.0727794 0 1903.34
0.110267 0.0743568 0 1916.19
0.112646 0.0759614 0 1925.45
0.115066 0.0775934 0 1922.32
0.117527 0.079253 0 1915.6
0.120029 0.0809404 0 1910.13
0.122572 0.0826558 0 1910.93
0.125158 0.0843994 0 1916.83
0.127785 0.0861713 0 1923.47
0.130454 0.0879717 0 1924.67
0.133167 0.0898008 0 1922.43
0.135921 0.0916586 0 1919.44
0.138719 0.0935453 0 1921.07
0.141559 0.095461 0 1922.61
0.144443 0.0974057 0 1926.28
0.14737 0.0993798 0 1926.71
0.15034 0.101383 0 1929.61
0.153354 0.103415 0 1937.11
0.156411 0.105477 0 1943.9
0.159511 0.107568 0 1947.64
0.162655 0.109688 0 1954.86
0.165842 0.111837 0 1961.78
0.169073 0.114016 0 1969.58
0.172346 0.116223 0 1978.23
0.175663 0.118461 0 1978
0.179022 0.120727 0 1973.07
0.182425 0.123021 0 1978.76
0.18587 0.125344 0 1986.72
0.189357 0.127696 0 1991.4
0.192886 0.130076 0 1992.39
0.196457 0.132484 0 1986.74
0.200069 0.13492 0 1983.82
0.203722 0.137384 0 1988.5
0.207416 0.139875 0 1990.65
0.21115 0.142393 0 1986.29
0.214924 0.144938 0 1975.03
0.218736 0.147509 0 1960.31
0.222587 0.150107 0 1954.12
0.226476 0.152729 0 1947.76
0.230403 0.155377 0 1938.55
0.234366 0.15805 0 1924.55
0.238366 0.160748 0 1910.72
0.242401 0.163469 0 1901.2
0.24647 0.166214 0 1898.67
0.250573 0.168981 0 1894.5
0.25471 0.17177 0 1881.95
0.258878 0.174582 0 1868.04
0.263078 0.177414 0 1860.93
0.267309 0.180266 0 1855.59
0.271568 0.183139 0 1860.29
0.275856 0.186031 0 1857.48
0.280172 0.188942 0 1849.75
0.284514 0.19187 0 1842.94
0.288881 0.194815 0 1843.13
0.293272 0.197777 0 1844.23
0.297687 0.200754 0 1841.39
0.302124 0.203746 0 1841.12
0.306581 0.206752 0 1836.44
0.311058 0.209772 0 1832.53
0.315554 0.212804 0 1830.92
0.320067 0.215847 0 1829.06
0.324595 0.218901 0 1835.3
0.329138 0.221965 0 1835.44
0.333695 0.225038 0 1830.07
0.338264 0.228119 0 1826.43
0.342843 0.231208 0 1824.84
0.347432 0.234302 0 1826.29
0.352029 0.237402 0 1828.12
0.356632 0.240507 0 1828.88
0.361241 0.243616 0 1825.92
0.365854 0.246727 0 1823.63
0.370469 0.249839 0 1825.17
0.375085 0.252953 0 1827.17
0.379702 0.256066 0 1831.67
0.384317 0.259178 0 1832.66
0.388929 0.262289 0 1830.7
0.393537 0.265396 0 1827.68
0.398139 0.2685 0 1823.7
0.402734 0.271598 0 1825.99
0.407321 0.274692 0 1831.98
0.411898 0.277779 0 1840.12
0.416464 0.280858 0 1842.2
0.421017 0.283929 0 1844.31
0.425557 0.286991 0 1839.42
0.430082 0.290042 0 1830.99
0.434591 0.293083 0 1821.95
0.439082 0.296112 0 1818.23
0.443555 0.299128 0 1820.02
0.448008 0.302131 0 1833.9
0.45244 0.30512 0 1846.26
0.456849 0.308094 0 1853.24
0.461235 0.311052 0 1857.99
0.465596 0.313993 0 1852.64
0.469932 0.316917 0 1845.77
0.474241 0.319823 0 1826.7
0.478523 0.322711 0 1815.97
0.482776 0.325579 0 1807.26
0.486999 0.328427 0 1809.37
0.491191 0.331254 0 1818.4
0.495353 0.334061 0 1848.3
