# p  FACE_DATA 398
# x  y  z  p
-0.7975 -7.61524e-06 0 1136.76
-0.79239 -7.61524e-06 0 893.868
-0.787056 -7.61524e-06 0 734.947
-0.781492 -7.61524e-06 0 707.195
-0.775691 -7.61524e-06 0 674.331
-0.769649 -7.61524e-06 0 653.82
-0.763361 -7.61524e-06 0 642.956
-0.756822 -7.61524e-06 0 635.133
-0.750025 -7.61524e-06 0 628.562
-0.742968 -7.61524e-06 0 621.031
-0.735648 -7.61524e-06 0 613.342
-0.72806 -7.61524e-06 0 605.195
-0.720203 -7.61524e-06 0 602.471
-0.712075 -7.61524e-06 0 603.318
-0.703676 -7.61524e-06 0 606.664
-0.695006 -7.61524e-06 0 609.654
-0.686065 -7.61524e-06 0 612.468
-0.676855 -7.61524e-06 0 614.353
-0.667379 -7.61524e-06 0 615.462
-0.657641 -7.61524e-06 0 616.371
-0.647644 -7.61524e-06 0 616.844
-0.637398 -7.61524e-06 0 616.86
-0.626906 -7.61524e-06 0 616.524
-0.616179 -7.61524e-06 0 616.206
-0.605225 -7.61524e-06 0 615.484
-0.594054 -7.61524e-06 0 614.596
-0.582677 -7.61524e-06 0 613.828
-0.57111 -7.61524e-06 0 613.187
-0.559364 -7.61524e-06 0 612.212
-0.547454 -7.61524e-06 0 611.047
-0.535396 -7.61524e-06 0 609.956
-0.523205 -7.61524e-06 0 609.036
-0.510901 -7.61524e-06 0 607.965
-0.498499 -7.61524e-06 0 606.858
-0.486021 -7.61524e-06 0 606.054
-0.473482 -7.61524e-06 0 605.597
-0.460905 -7.61524e-06 0 604.786
-0.448307 -7.61524e-06 0 603.596
-0.435709 -7.61524e-06 0 602.347
-0.42313 -7.61524e-06 0 601.604
-0.41059 -7.61524e-06 0 601.538
-0.39811 -7.61524e-06 0 601.371
-0.385706 -7.61524e-06 0 600.604
-0.373398 -7.61524e-06 0 599.33
-0.361205 -7.61524e-06 0 597.957
-0.349142 -7.61524e-06 0 596.988
-0.337226 -7.61524e-06 0 596.73
-0.325475 -7.61524e-06 0 597.267
-0.313901 -7.61524e-06 0 597.444
-0.30252 -7.61524e-06 0 596.937
-0.291343 -7.61524e-06 0 595.677
-0.280381 -7.61524e-06 0 594.202
-0.269647 -7.61524e-06 0 592.826
-0.259148 -7.61524e-06 0 591.775
-0.248893 -7.61524e-06 0 591.35
-0.23889 -7.61524e-06 0 591.463
-0.229143 -7.61524e-06 0 592.409
-0.219659 -7.61524e-06 0 593.041
-0.210441 -7.61524e-06 0 593.541
-0.201491 -7.61524e-06 0 593.736
-0.192812 -7.61524e-06 0 593.753
-0.184405 -7.61524e-06 0 593.249
-0.176269 -7.61524e-06 0 592.537
-0.168404 -7.61524e-06 0 591.651
-0.160809 -7.61524e-06 0 590.638
-0.15348 -7.61524e-06 0 589.571
-0.146415 -7.61524e-06 0 588.583
-0.13961 -7.61524e-06 0 587.689
-0.133063 -7.61524e-06 0 586.934
-0.126767 -7.61524e-06 0 586.348
-0.120717 -7.61524e-06 0 585.951
-0.11491 -7.61524e-06 0 585.737
-0.109339 -7.61524e-06 0 585.682
-0.103997 -7.61524e-06 0 585.748
-0.0988804 -7.61524e-06 0 585.987
-0.0939809 -7.61524e-06 0 586.313
-0.0892928 -7.61524e-06 0 586.732
-0.0848096 -7.61524e-06 0 587.163
-0.0805248 -7.61524e-06 0 587.619
-0.0764317 -7.61524e-06 0 588.006
-0.0725237 -7.61524e-06 0 588.33
-0.0687943 -7.61524e-06 0 588.606
-0.065237 -7.61524e-06 0 588.816
-0.0618454 -7.61524e-06 0 588.972
-0.058613 -7.61524e-06 0 589.087
-0.0555337 -7.61524e-06 0 589.168
-0.0526013 -7.61524e-06 0 589.226
-0.0498099 -7.61524e-06 0 589.264
-0.0471536 -7.61524e-06 0 589.292
-0.0446266 -7.61524e-06 0 589.307
-0.0422235 -7.61524e-06 0 589.316
-0.0399389 -7.61524e-06 0 589.316
-0.0377676 -7.61524e-06 0 589.302
-0.0357044 -7.61524e-06 0 589.278
-0.0337445 -7.61524e-06 0 589.249
-0.0318832 -7.61524e-06 0 589.205
-0.0301159 -7.61524e-06 0 589.161
-0.0284383 -7.61524e-06 0 589.1
-0.0268462 -7.61524e-06 0 589.044
-0.0253353 -7.61524e-06 0 588.958
-0.023902 -7.61524e-06 0 588.905
-0.0225425 -7.61524e-06 0 588.968
-0.0212532 -7.61524e-06 0 592.703
-0.0200306 -7.61524e-06 0 619.008
-0.0188715 -7.61524e-06 0 701.387
-0.0177727 -7.61524e-06 0 819.538
-0.0167313 -7.61524e-06 0 916.753
-0.0157444 -7.61524e-06 0 984.13
-0.0148093 -7.61524e-06 0 1035.13
-0.0139232 -7.61524e-06 0 1079.52
-0.0130838 -7.61524e-06 0 1119.05
-0.0122887 -7.61524e-06 0 1154.89
-0.0115355 -7.61524e-06 0 1187.27
-0.0108223 -7.61524e-06 0 1216.17
-0.0101469 -7.61524e-06 0 1242.62
-0.00950727 -7.61524e-06 0 1266.63
-0.00890169 -7.61524e-06 0 1288.62
-0.00832834 -7.61524e-06 0 1308.93
-0.00778557 -7.61524e-06 0 1327.62
-0.00727176 -7.61524e-06 0 1344.86
-0.00678541 -7.61524e-06 0 1360.79
-0.00632507 -7.61524e-06 0 1375.44
-0.00588937 -7.61524e-06 0 1388.84
-0.00547703 -7.61524e-06 0 1400.93
-0.00508681 -7.61524e-06 0 1411.67
-0.00471753 -7.61524e-06 0 1421.02
-0.0043681 -7.61524e-06 0 1429
-0.00403746 -7.61524e-06 0 1435.92
-0.00372461 -7.61524e-06 0 1441.95
-0.0034286 -7.61524e-06 0 1447.3
-0.00314855 -7.61524e-06 0 1452.2
-0.00288361 -7.61524e-06 0 1456.92
-0.00263295 -7.61524e-06 0 1461.66
-0.00239582 -7.61524e-06 0 1466.66
-0.00217149 -7.61524e-06 0 1472.19
-0.00195929 -7.61524e-06 0 1478.51
-0.00175856 -7.61524e-06 0 1485.54
-0.00156869 -7.61524e-06 0 1493.6
-0.00138908 -7.61524e-06 0 1503.02
-0.00121921 -7.61524e-06 0 1513.87
-0.00105853 -7.61524e-06 0 1524.67
-0.000906546 -7.61524e-06 0 1535.97
-0.000762803 -7.61524e-06 0 1547.36
-0.000626849 -7.61524e-06 0 1558.34
-0.000498266 -7.61524e-06 0 1568.21
-0.000376656 -7.61524e-06 0 1576.22
-0.000261642 -7.61524e-06 0 1581.83
-0.00015287 -7.61524e-06 0 1584.75
-5e-05 -7.61524e-06 0 1589.08
4.14596e-05 2.03453e-05 0 1562.47
0.000125379 7.69412e-05 0 1568.8
0.000211356 0.000134924 0 1565.74
0.000299438 0.000194328 0 1562.01
0.000389678 0.000255186 0 1558.2
0.000482128 0.000317535 0 1554.93
0.000576841 0.000381409 0 1552.6
0.000673871 0.000446848 0 1551.12
0.000773276 0.000513887 0 1551.13
0.000875112 0.000582565 0 1552.62
0.000979439 0.000652924 0 1555.6
0.00108632 0.000725003 0 1560.28
0.00119581 0.000798843 0 1566.43
0.00130797 0.000874487 0 1574.26
0.00142287 0.000951979 0 1583.74
0.00154058 0.00103136 0 1594.78
0.00166117 0.00111268 0 1607.4
0.00178469 0.00119599 0 1621.42
0.00191123 0.00128133 0 1636.88
0.00204085 0.00136875 0 1653.68
0.00217364 0.0014583 0 1671.78
0.00230966 0.00155003 0 1691.16
0.00244899 0.001644 0 1711.78
0.00259171 0.00174025 0 1733.66
0.00273791 0.00183885 0 1756.81
0.00288767 0.00193985 0 1781.38
0.00304108 0.0020433 0 1807.51
0.0031982 0.00214927 0 1835.46
0.00335915 0.00225781 0 1865.59
0.003524 0.002369 0 1898.3
0.00369286 0.00248287 0 1933.99
0.00386582 0.00259951 0 1973.1
0.00404297 0.00271899 0 2016
0.00422442 0.00284136 0 2062.94
0.00441026 0.00296669 0 2114.28
0.0046006 0.00309506 0 2170.4
0.00479556 0.00322653 0 2231.86
0.00499523 0.00336119 0 2299.1
0.00519972 0.00349911 0 2372.44
0.00540916 0.00364036 0 2451.99
0.00562366 0.00378501 0 2538.28
0.00584334 0.00393316 0 2631.54
0.00606831 0.00408489 0 2732.16
0.00629871 0.00424027 0 2840.39
0.00653466 0.0043994 0 2957.04
0.00677629 0.00456236 0 3083.12
0.00702374 0.00472923 0 3219.58
0.00727714 0.00490013 0 3367.66
0.00753663 0.00507513 0 3528.84
0.00780234 0.00525433 0 3703.89
0.00807444 0.00543783 0 3894.01
0.00835306 0.00562573 0 4100.54
0.00863835 0.00581814 0 4322.95
0.00893047 0.00601514 0 4561.64
0.00922958 0.00621687 0 4817.46
0.00953584 0.00642341 0 5089.36
0.00984939 0.00663489 0 5379.52
0.0101705 0.00685141 0 5690.08
0.0104992 0.00707309 0 6023.34
0.0108357 0.00730005 0 6381.48
0.0111802 0.00753241 0 6766.33
0.011533 0.0077703 0 7177.44
0.0118941 0.00801384 0 7614.27
0.0122638 0.00826316 0 8077.02
0.0126422 0.00851837 0 8560.36
0.0130296 0.00877964 0 9058.68
0.0134262 0.00904708 0 9572.77
0.0138321 0.00932084 0 10102.1
0.0142476 0.00960107 0 10641.6
0.0146729 0.00988792 0 11181.4
0.0151082 0.0101815 0 11727.3
0.0155538 0.0104819 0 12292.5
0.0160098 0.0107895 0 12880.5
0.0164766 0.0111042 0 13459.1
0.0169542 0.0114263 0 13972.5
0.0174429 0.011756 0 14366.3
0.0179431 0.0120934 0 14623.9
0.018455 0.0124386 0 14785
0.0189789 0.0127918 0 14889.6
0.0195149 0.0131533 0 14973.9
0.0200633 0.0135232 0 15061.7
0.0206245 0.0139016 0 15216.6
0.0211986 0.0142888 0 15455
0.0217861 0.014685 0 15688.9
0.022387 0.0150903 0 15835.6
0.0230018 0.0155049 0 15838.5
0.0236307 0.0159291 0 15786.2
0.0242741 0.0163629 0 15812.6
0.0249322 0.0168068 0 15946.7
0.0256053 0.0172608 0 16067.2
0.0262939 0.0177251 0 16102.2
0.0269981 0.0182 0 16020.1
0.0277183 0.0186857 0 15932.7
0.0284548 0.0191825 0 15882.5
0.029208 0.0196904 0 15862.2
0.0299782 0.0202098 0 15855
0.0307658 0.0207409 0 15832.3
0.031571 0.021284 0 15808.7
0.0323942 0.0218393 0 15777.4
0.033236 0.0224069 0 15741.5
0.0340965 0.0229872 0 15697.5
0.0349762 0.0235805 0 15663.2
0.0358753 0.0241869 0 15641.5
0.0367944 0.0248067 0 15615.6
0.0377338 0.0254403 0 15556.2
0.0386938 0.0260877 0 15471.7
0.039675 0.0267494 0 15387.7
0.0406776 0.0274256 0 15339.2
0.0417021 0.0281165 0 15332.7
0.0427488 0.0288225 0 15332.6
0.0438183 0.0295437 0 15318.3
0.0449109 0.0302805 0 15290.6
0.046027 0.0310332 0 15254.2
0.0471671 0.0318021 0 15224.9
0.0483315 0.0325874 0 15196.3
0.0495209 0.0333895 0 15167.5
0.0507354 0.0342086 0 15131.7
0.0519756 0.035045 0 15092.3
0.053242 0.0358991 0 15050.4
0.054535 0.036771 0 15004.7
0.0558549 0.0376613 0 14954
0.0572024 0.03857 0 14912.1
0.0585778 0.0394976 0 14886.9
0.0599816 0.0404443 0 14867.3
0.0614142 0.0414105 0 14844.2
0.0628761 0.0423964 0 14813.5
0.0643678 0.0434024 0 14781.1
0.0658897 0.0444287 0 14752.5
0.0674422 0.0454758 0 14728.3
0.069026 0.0465439 0 14705.7
0.0706413 0.0476333 0 14680.9
0.0722886 0.0487443 0 14664.3
0.0739685 0.0498771 0 14654.3
0.0756813 0.0510323 0 14651.2
0.0774275 0.05221 0 14650.9
0.0792077 0.0534105 0 14653
0.0810221 0.0546342 0 14645.1
0.0828712 0.0558812 0 14618.7
0.0847556 0.0571521 0 14584.6
0.0866757 0.058447 0 14554.9
0.0886318 0.0597661 0 14532.6
0.0906244 0.06111 0 14517.1
0.0926539 0.0624787 0 14500.4
0.0947207 0.0638726 0 14476.6
0.0968252 0.0652919 0 14451
0.0989682 0.066737 0 14432
0.101149 0.068208 0 14415.6
0.103369 0.0697052 0 14438.3
0.105629 0.0712289 0 14454.6
0.107928 0.0727794 0 14459.6
0.110267 0.0743568 0 14426.8
0.112646 0.0759614 0 14392.8
0.115066 0.0775934 0 14355.9
0.117527 0.079253 0 14340.1
0.120029 0.0809404 0 14323.9
0.122572 0.0826558 0 14305.8
0.125158 0.0843994 0 14292.9
0.127785 0.0861713 0 14285.9
0.130454 0.0879717 0 14269
0.133167 0.0898008 0 14250.5
0.135921 0.0916586 0 14271.4
0.138719 0.0935453 0 14294.5
0.141559 0.095461 0 14303.8
0.144443 0.0974057 0 14293.1
0.14737 0.0993798 0 14268.5
0.15034 0.101383 0 14239.3
0.153354 0.103415 0 14277
0.156411 0.105477 0 14299
0.159511 0.107568 0 14275.8
0.162655 0.109688 0 14251.4
0.165842 0.111837 0 14224.8
0.169073 0.114016 0 14234.3
0.172346 0.116223 0 14268.9
0.175663 0.118461 0 14269.9
0.179022 0.120727 0 14215.8
0.182425 0.123021 0 14223.5
0.18587 0.125344 0 14246.8
0.189357 0.127696 0 14261.9
0.192886 0.130076 0 14268.2
0.196457 0.132484 0 14225.5
0.200069 0.13492 0 14188
0.203722 0.137384 0 14200.5
0.207416 0.139875 0 14219.6
0.21115 0.142393 0 14229.9
0.214924 0.144938 0 14198.2
0.218736 0.147509 0 14132.7
0.222587 0.150107 0 14118.5
0.226476 0.152729 0 14129
0.230403 0.155377 0 14139.6
0.234366 0.15805 0 14125.8
0.238366 0.160748 0 14075
0.242401 0.163469 0 14022.6
0.24647 0.166214 0 14028
0.250573 0.168981 0 14060.8
0.25471 0.17177 0 14067.4
0.258878 0.174582 0 14035.1
0.263078 0.177414 0 13970.2
0.267309 0.180266 0 13896.8
0.271568 0.183139 0 13923.8
0.275856 0.186031 0 13951.3
0.280172 0.188942 0 13957.6
0.284514 0.19187 0 13923.2
0.288881 0.194815 0 13887.4
0.293272 0.197777 0 13876.7
0.297687 0.200754 0 13887.9
0.302124 0.203746 0 13946.4
0.306581 0.206752 0 13985.8
0.311058 0.209772 0 13977.6
0.315554 0.212804 0 13899.4
0.320067 0.215847 0 13804.1
0.324595 0.218901 0 13813.8
0.329138 0.221965 0 13856.9
0.333695 0.225038 0 13908.9
0.338264 0.228119 0 13934.3
0.342843 0.231208 0 13918.3
0.347432 0.234302 0 13837.8
0.352029 0.237402 0 13769.1
0.356632 0.240507 0 13769.7
0.361241 0.243616 0 13824.4
0.365854 0.246727 0 13878.6
0.370469 0.249839 0 13917.9
0.375085 0.252953 0 13914.7
0.379702 0.256066 0 13844.4
0.384317 0.259178 0 13768.5
0.388929 0.262289 0 13751.7
0.393537 0.265396 0 13794.2
0.398139 0.2685 0 13872.3
0.402734 0.271598 0 13945.2
0.407321 0.274692 0 13999.7
0.411898 0.277779 0 13980.4
0.416464 0.280858 0 13866.2
0.421017 0.283929 0 13758.3
0.425557 0.286991 0 13691.1
0.430082 0.290042 0 13714.2
0.434591 0.293083 0 13773.7
0.439082 0.296112 0 13903.4
0.443555 0.299128 0 13977.5
0.448008 0.302131 0 14046.5
0.45244 0.30512 0 14016.8
0.456849 0.308094 0 13882.3
0.461235 0.311052 0 13754.6
0.465596 0.313993 0 13652.2
0.469932 0.316917 0 13653.5
0.474241 0.319823 0 13691.4
0.478523 0.322711 0 13795.6
0.482776 0.325579 0 13976.9
0.486999 0.328427 0 14103.8
0.491191 0.331254 0 14190
0.495353 0.334061 0 14161.3
