# wallHeatFlux  FACE_DATA 398
# x  y  z  wallHeatFlux
-0.7975 -7.61524e-06 0 -177986
-0.79239 -7.61524e-06 0 -35259.9
-0.787056 -7.61524e-06 0 -21454.3
-0.781492 -7.61524e-06 0 -17060.8
-0.775691 -7.61524e-06 0 -14341.4
-0.769649 -7.61524e-06 0 -12591.2
-0.763361 -7.61524e-06 0 -11396.2
-0.756822 -7.61524e-06 0 -10502.9
-0.750025 -7.61524e-06 0 -9806.18
-0.742968 -7.61524e-06 0 -9269.23
-0.735648 -7.61524e-06 0 -9109.37
-0.72806 -7.61524e-06 0 -9428.5
-0.720203 -7.61524e-06 0 -10286.3
-0.712075 -7.61524e-06 0 -11246.6
-0.703676 -7.61524e-06 0 -12021.5
-0.695006 -7.61524e-06 0 -12551.9
-0.686065 -7.61524e-06 0 -12917.4
-0.676855 -7.61524e-06 0 -13144.5
-0.667379 -7.61524e-06 0 -13275.5
-0.657641 -7.61524e-06 0 -13331.9
-0.647644 -7.61524e-06 0 -13345
-0.637398 -7.61524e-06 0 -13320.4
-0.626906 -7.61524e-06 0 -13264
-0.616179 -7.61524e-06 0 -13195.7
-0.605225 -7.61524e-06 0 -13111.5
-0.594054 -7.61524e-06 0 -13016
-0.582677 -7.61524e-06 0 -12925.1
-0.57111 -7.61524e-06 0 -12833.6
-0.559364 -7.61524e-06 0 -12742
-0.547454 -7.61524e-06 0 -12649.5
-0.535396 -7.61524e-06 0 -12556.7
-0.523205 -7.61524e-06 0 -12473.5
-0.510901 -7.61524e-06 0 -12390.4
-0.498499 -7.61524e-06 0 -12306.2
-0.486021 -7.61524e-06 0 -12232.3
-0.473482 -7.61524e-06 0 -12174.1
-0.460905 -7.61524e-06 0 -12109.7
-0.448307 -7.61524e-06 0 -12034.4
-0.435709 -7.61524e-06 0 -11969.3
-0.42313 -7.61524e-06 0 -11908.9
-0.41059 -7.61524e-06 0 -11869.7
-0.39811 -7.61524e-06 0 -11824.7
-0.385706 -7.61524e-06 0 -11773.8
-0.373398 -7.61524e-06 0 -11717.5
-0.361205 -7.61524e-06 0 -11655.6
-0.349142 -7.61524e-06 0 -11609.3
-0.337226 -7.61524e-06 0 -11573.7
-0.325475 -7.61524e-06 0 -11554
-0.313901 -7.61524e-06 0 -11534.3
-0.30252 -7.61524e-06 0 -11498.3
-0.291343 -7.61524e-06 0 -11446.5
-0.280381 -7.61524e-06 0 -11394.6
-0.269647 -7.61524e-06 0 -11348
-0.259148 -7.61524e-06 0 -11301.4
-0.248893 -7.61524e-06 0 -11276.8
-0.23889 -7.61524e-06 0 -11262.9
-0.229143 -7.61524e-06 0 -11265
-0.219659 -7.61524e-06 0 -11262.2
-0.210441 -7.61524e-06 0 -11254
-0.201491 -7.61524e-06 0 -11246.5
-0.192812 -7.61524e-06 0 -11233.2
-0.184405 -7.61524e-06 0 -11210.3
-0.176269 -7.61524e-06 0 -11186.9
-0.168404 -7.61524e-06 0 -11158.6
-0.160809 -7.61524e-06 0 -11130.3
-0.15348 -7.61524e-06 0 -11097.5
-0.146415 -7.61524e-06 0 -11070.2
-0.13961 -7.61524e-06 0 -11042.6
-0.133063 -7.61524e-06 0 -11015.5
-0.126767 -7.61524e-06 0 -10994
-0.120717 -7.61524e-06 0 -10977.9
-0.11491 -7.61524e-06 0 -10962
-0.109339 -7.61524e-06 0 -10951.7
-0.103997 -7.61524e-06 0 -10941.1
-0.0988804 -7.61524e-06 0 -10936.9
-0.0939809 -7.61524e-06 0 -10937.5
-0.0892928 -7.61524e-06 0 -10938.3
-0.0848096 -7.61524e-06 0 -10944.6
-0.0805248 -7.61524e-06 0 -10945.6
-0.0764317 -7.61524e-06 0 -10952
-0.0725237 -7.61524e-06 0 -10953.1
-0.0687943 -7.61524e-06 0 -10954.4
-0.065237 -7.61524e-06 0 -10950.2
-0.0618454 -7.61524e-06 0 -10951.6
-0.058613 -7.61524e-06 0 -10947.4
-0.0555337 -7.61524e-06 0 -10948.9
-0.0526013 -7.61524e-06 0 -10944.8
-0.0498099 -7.61524e-06 0 -10946.2
-0.0471536 -7.61524e-06 0 -10942.2
-0.0446266 -7.61524e-06 0 -10943.6
-0.0422235 -7.61524e-06 0 -10939.7
-0.0399389 -7.61524e-06 0 -10941.1
-0.0377676 -7.61524e-06 0 -10937
-0.0357044 -7.61524e-06 0 -10933.2
-0.0337445 -7.61524e-06 0 -10934.5
-0.0318832 -7.61524e-06 0 -10930.5
-0.0301159 -7.61524e-06 0 -10926.5
-0.0284383 -7.61524e-06 0 -10922.6
-0.0268462 -7.61524e-06 0 -10923.9
-0.0253353 -7.61524e-06 0 -10920
-0.023902 -7.61524e-06 0 -10916
-0.0225425 -7.61524e-06 0 -10922.6
-0.0212532 -7.61524e-06 0 -10977.9
-0.0200306 -7.61524e-06 0 -11156.3
-0.0188715 -7.61524e-06 0 -11136.3
-0.0177727 -7.61524e-06 0 -10085.7
-0.0167313 -7.61524e-06 0 -8498.07
-0.0157444 -7.61524e-06 0 -7522.07
-0.0148093 -7.61524e-06 0 -7544.48
-0.0139232 -7.61524e-06 0 -8265.54
-0.0130838 -7.61524e-06 0 -8943.24
-0.0122887 -7.61524e-06 0 -9460.76
-0.0115355 -7.61524e-06 0 -9838.21
-0.0108223 -7.61524e-06 0 -10135.4
-0.0101469 -7.61524e-06 0 -10389.8
-0.00950727 -7.61524e-06 0 -10606.9
-0.00890169 -7.61524e-06 0 -10802.5
-0.00832834 -7.61524e-06 0 -10966.1
-0.00778557 -7.61524e-06 0 -11103.1
-0.00727176 -7.61524e-06 0 -11197.3
-0.00678541 -7.61524e-06 0 -11259.3
-0.00632507 -7.61524e-06 0 -11305.7
-0.00588937 -7.61524e-06 0 -11325.2
-0.00547703 -7.61524e-06 0 -11323.7
-0.00508681 -7.61524e-06 0 -11311.7
-0.00471753 -7.61524e-06 0 -11321.8
-0.0043681 -7.61524e-06 0 -11364.7
-0.00403746 -7.61524e-06 0 -11456.9
-0.00372461 -7.61524e-06 0 -11609.5
-0.0034286 -7.61524e-06 0 -11833.4
-0.00314855 -7.61524e-06 0 -12118.2
-0.00288361 -7.61524e-06 0 -12464.7
-0.00263295 -7.61524e-06 0 -12856.9
-0.00239582 -7.61524e-06 0 -13290.5
-0.00217149 -7.61524e-06 0 -13755.6
-0.00195929 -7.61524e-06 0 -14242.6
-0.00175856 -7.61524e-06 0 -14726
-0.00156869 -7.61524e-06 0 -15202.4
-0.00138908 -7.61524e-06 0 -15652.6
-0.00121921 -7.61524e-06 0 -16030
-0.00105853 -7.61524e-06 0 -16350
-0.000906546 -7.61524e-06 0 -16577.6
-0.000762803 -7.61524e-06 0 -16583
-0.000626849 -7.61524e-06 0 -16395.2
-0.000498266 -7.61524e-06 0 -15914.4
-0.000376656 -7.61524e-06 0 -15073.9
-0.000261642 -7.61524e-06 0 -13744.5
-0.00015287 -7.61524e-06 0 -11671
-5e-05 -7.61524e-06 0 -8261.55
4.14596e-05 2.03453e-05 0 -7982.2
0.000125379 7.69412e-05 0 -10164.7
0.000211356 0.000134924 0 -11488
0.000299438 0.000194328 0 -12538.9
0.000389678 0.000255186 0 -13468.8
0.000482128 0.000317535 0 -14312
0.000576841 0.000381409 0 -15091.4
0.000673871 0.000446848 0 -15807.7
0.000773276 0.000513887 0 -16471.5
0.000875112 0.000582565 0 -17088.4
0.000979439 0.000652924 0 -17652.4
0.00108632 0.000725003 0 -18169.3
0.00119581 0.000798843 0 -18633.5
0.00130797 0.000874487 0 -19063.3
0.00142287 0.000951979 0 -19458
0.00154058 0.00103136 0 -19813.1
0.00166117 0.00111268 0 -20136.2
0.00178469 0.00119599 0 -20431
0.00191123 0.00128133 0 -20694.5
0.00204085 0.00136875 0 -20928.8
0.00217364 0.0014583 0 -21143.2
0.00230966 0.00155003 0 -21342.6
0.00244899 0.001644 0 -21527.8
0.00259171 0.00174025 0 -21721.1
0.00273791 0.00183885 0 -21926.5
0.00288767 0.00193985 0 -22177.2
0.00304108 0.0020433 0 -22483.7
0.0031982 0.00214927 0 -22866.7
0.00335915 0.00225781 0 -23349.6
0.003524 0.002369 0 -23928.4
0.00369286 0.00248287 0 -24588.4
0.00386582 0.00259951 0 -25304.9
0.00404297 0.00271899 0 -26062.9
0.00422442 0.00284136 0 -26833.9
0.00441026 0.00296669 0 -27626.1
0.0046006 0.00309506 0 -28459.6
0.00479556 0.00322653 0 -29349.9
0.00499523 0.00336119 0 -30326.1
0.00519972 0.00349911 0 -31404.7
0.00540916 0.00364036 0 -32579.1
0.00562366 0.00378501 0 -33827.8
0.00584334 0.00393316 0 -35140.4
0.00606831 0.00408489 0 -36495.4
0.00629871 0.00424027 0 -37924.8
0.00653466 0.0043994 0 -39465.9
0.00677629 0.00456236 0 -41170.3
0.00702374 0.00472923 0 -43059.5
0.00727714 0.00490013 0 -45172.6
0.00753663 0.00507513 0 -47558
0.00780234 0.00525433 0 -50223
0.00807444 0.00543783 0 -53181.5
0.00835306 0.00562573 0 -56496.6
0.00863835 0.00581814 0 -60077.6
0.00893047 0.00601514 0 -63942.7
0.00922958 0.00621687 0 -68110.4
0.00953584 0.00642341 0 -72470.9
0.00984939 0.00663489 0 -77061.2
0.0101705 0.00685141 0 -81931
0.0104992 0.00707309 0 -87111.7
0.0108357 0.00730005 0 -92671.8
0.0111802 0.00753241 0 -98504.6
0.011533 0.0077703 0 -104528
0.0118941 0.00801384 0 -110859
0.0122638 0.00826316 0 -117698
0.0126422 0.00851837 0 -125173
0.0130296 0.00877964 0 -133328
0.0134262 0.00904708 0 -142133
0.0138321 0.00932084 0 -151616
0.0142476 0.00960107 0 -161661
0.0146729 0.00988792 0 -172037
0.0151082 0.0101815 0 -182461
0.0155538 0.0104819 0 -193280
0.0160098 0.0107895 0 -204656
0.0164766 0.0111042 0 -215592
0.0169542 0.0114263 0 -225059
0.0174429 0.011756 0 -231510
0.0179431 0.0120934 0 -235644
0.018455 0.0124386 0 -237538
0.0189789 0.0127918 0 -238826
0.0195149 0.0131533 0 -240233
0.0200633 0.0135232 0 -241703
0.0206245 0.0139016 0 -243519
0.0211986 0.0142888 0 -245929
0.0217861 0.014685 0 -248679
0.022387 0.0150903 0 -248673
0.0230018 0.0155049 0 -246406
0.0236307 0.0159291 0 -243213
0.0242741 0.0163629 0 -241818
0.0249322 0.0168068 0 -242672
0.0256053 0.0172608 0 -242409
0.0262939 0.0177251 0 -240831
0.0269981 0.0182 0 -235334
0.0277183 0.0186857 0 -230469
0.0284548 0.0191825 0 -226072
0.029208 0.0196904 0 -222915
0.0299782 0.0202098 0 -219420
0.0307658 0.0207409 0 -216483
0.031571 0.021284 0 -212933
0.0323942 0.0218393 0 -210116
0.033236 0.0224069 0 -207740
0.0340965 0.0229872 0 -205651
0.0349762 0.0235805 0 -203804
0.0358753 0.0241869 0 -202419
0.0367944 0.0248067 0 -200630
0.0377338 0.0254403 0 -197788
0.0386938 0.0260877 0 -194819
0.039675 0.0267494 0 -192154
0.0406776 0.0274256 0 -191350
0.0417021 0.0281165 0 -190706
0.0427488 0.0288225 0 -189788
0.0438183 0.0295437 0 -188603
0.0449109 0.0302805 0 -186912
0.046027 0.0310332 0 -185456
0.0471671 0.0318021 0 -184385
0.0483315 0.0325874 0 -183734
0.0495209 0.0333895 0 -182453
0.0507354 0.0342086 0 -181043
0.0519756 0.035045 0 -179415
0.053242 0.0358991 0 -177719
0.054535 0.036771 0 -176103
0.0558549 0.0376613 0 -174469
0.0572024 0.03857 0 -173076
0.0585778 0.0394976 0 -172033
0.0599816 0.0404443 0 -171573
0.0614142 0.0414105 0 -170656
0.0628761 0.0423964 0 -169563
0.0643678 0.0434024 0 -168035
0.0658897 0.0444287 0 -166348
0.0674422 0.0454758 0 -165160
0.069026 0.0465439 0 -164013
0.0706413 0.0476333 0 -163343
0.0722886 0.0487443 0 -162611
0.0739685 0.0498771 0 -162133
0.0756813 0.0510323 0 -161516
0.0774275 0.05221 0 -160737
0.0792077 0.0534105 0 -160319
0.0810221 0.0546342 0 -159241
0.0828712 0.0558812 0 -158426
0.0847556 0.0571521 0 -157548
0.0866757 0.058447 0 -156680
0.0886318 0.0597661 0 -156138
0.0906244 0.06111 0 -155593
0.0926539 0.0624787 0 -154755
0.0947207 0.0638726 0 -153771
0.0968252 0.0652919 0 -152878
0.0989682 0.066737 0 -150806
0.101149 0.068208 0 -150225
0.103369 0.0697052 0 -149799
0.105629 0.0712289 0 -152771
0.107928 0.0727794 0 -150745
0.110267 0.0743568 0 -151581
0.112646 0.0759614 0 -148987
0.115066 0.0775934 0 -150824
0.117527 0.079253 0 -147783
0.120029 0.0809404 0 -148116
0.122572 0.0826558 0 -147783
0.125158 0.0843994 0 -148053
0.127785 0.0861713 0 -149061
0.130454 0.0879717 0 -149099
0.133167 0.0898008 0 -148591
0.135921 0.0916586 0 -148836
0.138719 0.0935453 0 -148573
0.141559 0.095461 0 -149966
0.144443 0.0974057 0 -146897
0.14737 0.0993798 0 -145235
0.15034 0.101383 0 -146170
0.153354 0.103415 0 -146755
0.156411 0.105477 0 -146519
0.159511 0.107568 0 -148888
0.162655 0.109688 0 -146511
0.165842 0.111837 0 -146851
0.169073 0.114016 0 -151698
0.172346 0.116223 0 -146694
0.175663 0.118461 0 -146616
0.179022 0.120727 0 -152723
0.182425 0.123021 0 -146897
0.18587 0.125344 0 -145912
0.189357 0.127696 0 -147698
0.192886 0.130076 0 -148985
0.196457 0.132484 0 -151444
0.200069 0.13492 0 -150315
0.203722 0.137384 0 -146570
0.207416 0.139875 0 -147218
0.21115 0.142393 0 -149060
0.214924 0.144938 0 -148406
0.218736 0.147509 0 -149233
0.222587 0.150107 0 -146349
0.226476 0.152729 0 -147163
0.230403 0.155377 0 -147682
0.234366 0.15805 0 -147740
0.238366 0.160748 0 -146389
0.242401 0.163469 0 -149515
0.24647 0.166214 0 -148344
0.250573 0.168981 0 -146384
0.25471 0.17177 0 -146126
0.258878 0.174582 0 -147933
0.263078 0.177414 0 -146317
0.267309 0.180266 0 -154366
0.271568 0.183139 0 -144713
0.275856 0.186031 0 -146189
0.280172 0.188942 0 -146937
0.284514 0.19187 0 -154813
0.288881 0.194815 0 -148383
0.293272 0.197777 0 -144659
0.297687 0.200754 0 -153229
0.302124 0.203746 0 -145162
0.306581 0.206752 0 -145684
0.311058 0.209772 0 -145392
0.315554 0.212804 0 -146121
0.320067 0.215847 0 -154973
0.324595 0.218901 0 -144668
0.329138 0.221965 0 -145599
0.333695 0.225038 0 -145636
0.338264 0.228119 0 -145733
0.342843 0.231208 0 -146430
0.347432 0.234302 0 -144488
0.352029 0.237402 0 -146101
0.356632 0.240507 0 -144331
0.361241 0.243616 0 -143033
0.365854 0.246727 0 -144063
0.370469 0.249839 0 -147443
0.375085 0.252953 0 -148738
0.379702 0.256066 0 -144701
0.384317 0.259178 0 -144828
0.388929 0.262289 0 -143725
0.393537 0.265396 0 -142510
0.398139 0.2685 0 -144298
0.402734 0.271598 0 -145694
0.407321 0.274692 0 -144052
0.411898 0.277779 0 -143980
0.416464 0.280858 0 -143078
0.421017 0.283929 0 -143321
0.425557 0.286991 0 -145089
0.430082 0.290042 0 -144554
0.434591 0.293083 0 -149881
0.439082 0.296112 0 -140362
0.443555 0.299128 0 -148080
0.448008 0.302131 0 -145585
0.45244 0.30512 0 -144572
0.456849 0.308094 0 -155733
0.461235 0.311052 0 -148005
0.465596 0.313993 0 -145215
0.469932 0.316917 0 -138482
0.474241 0.319823 0 -139136
0.478523 0.322711 0 -140478
0.482776 0.325579 0 -141069
0.486999 0.328427 0 -144067
0.491191 0.331254 0 -157047
0.495353 0.334061 0 -135959
