# p  FACE_DATA 203
# x  y  z  p
-0.873265 0 0.0205 3480.19
-0.846493 0 0.0205 2971.04
-0.820677 0 0.0205 2838.47
-0.795786 0 0.0205 2785.86
-0.771783 0 0.0205 2767.38
-0.74637 0 0.0205 2767.23
-0.719597 0 0.0205 2766.09
-0.693782 0 0.0205 2761.81
-0.66889 0 0.0205 2760.15
-0.644887 0 0.0205 2760.75
-0.621743 0 0.0205 2759.98
-0.599426 0 0.0205 2757.14
-0.577905 0 0.0205 2754.88
-0.557154 0 0.0205 2754.33
-0.537145 0 0.0205 2754.9
-0.517849 0 0.0205 2754.43
-0.499243 0 0.0205 2752.44
-0.481301 0 0.0205 2750.26
-0.463999 0 0.0205 2748.86
-0.447314 0 0.0205 2748.78
-0.431225 0 0.0205 2749.66
-0.41571 0 0.0205 2749.92
-0.400747 0 0.0205 2748.76
-0.386317 0 0.0205 2746.81
-0.372401 0 0.0205 2744.56
-0.358981 0 0.0205 2742.66
-0.346039 0 0.0205 2741.74
-0.333556 0 0.0205 2741.83
-0.321518 0 0.0205 2743.46
-0.309908 0 0.0205 2745.29
-0.298709 0 0.0205 2746.57
-0.287908 0 0.0205 2747.06
-0.27749 0 0.0205 2746.54
-0.267441 0 0.0205 2744.87
-0.257748 0 0.0205 2742.44
-0.248397 0 0.0205 2739.77
-0.239378 0 0.0205 2737.14
-0.230677 0 0.0205 2734.86
-0.222282 0 0.0205 2733.26
-0.214183 0 0.0205 2732.52
-0.20637 0 0.0205 2732.38
-0.19883 0 0.0205 2733.02
-0.191555 0 0.0205 2734.04
-0.184536 0 0.0205 2735.43
-0.177762 0 0.0205 2737.04
-0.171224 0 0.0205 2738.96
-0.164914 0 0.0205 2740.87
-0.158824 0 0.0205 2742.56
-0.152944 0 0.0205 2743.89
-0.147268 0 0.0205 2744.79
-0.141788 0 0.0205 2745.27
-0.136496 0 0.0205 2745.43
-0.131387 0 0.0205 2745.35
-0.126452 0 0.0205 2745.02
-0.121685 0 0.0205 2744.51
-0.117081 0 0.0205 2743.79
-0.112632 0 0.0205 2742.84
-0.108332 0 0.0205 2741.67
-0.104177 0 0.0205 2740.29
-0.100161 0 0.0205 2738.75
-0.0962773 0 0.0205 2737.11
-0.0925221 0 0.0205 2735.42
-0.08889 0 0.0205 2733.8
-0.0853762 0 0.0205 2732.3
-0.0819759 0 0.0205 2730.92
-0.0786847 0 0.0205 2729.69
-0.0754981 0 0.0205 2728.59
-0.0724121 0 0.0205 2727.62
-0.0694223 0 0.0205 2726.76
-0.066525 0 0.0205 2726
-0.0637161 0 0.0205 2725.31
-0.060992 0 0.0205 2724.68
-0.0583491 0 0.0205 2724.12
-0.0557837 0 0.0205 2723.62
-0.0532926 0 0.0205 2723.18
-0.0508723 0 0.0205 2722.8
-0.0485197 0 0.0205 2722.48
-0.0462317 0 0.0205 2722.2
-0.0440053 0 0.0205 2722.12
-0.0418373 0 0.0205 2721.66
-0.039725 0 0.0205 2734.94
-0.0376655 0 0.0205 2945.69
-0.0356562 0 0.0205 3809.98
-0.0336943 0 0.0205 4865.05
-0.0317773 0 0.0205 5657.71
-0.0299025 0 0.0205 6258.87
-0.0280674 0 0.0205 6746.5
-0.0262697 0 0.0205 7160.37
-0.024507 0 0.0205 7530.63
-0.0227768 0 0.0205 7865.89
-0.021077 0 0.0205 8176.42
-0.0194052 0 0.0205 8461.24
-0.0177593 0 0.0205 8728.49
-0.016137 0 0.0205 8982.42
-0.014536 0 0.0205 9226.78
-0.0129545 0 0.0205 9458.51
-0.0113902 0 0.0205 9675.59
-0.00984104 0 0.0205 9876.08
-0.00830498 0 0.0205 10060.2
-0.00677997 0 0.0205 10224.4
-0.00526398 0 0.0205 10374.7
-0.00375499 0 0.0205 10502.9
-0.002251 0 0.0205 10715.4
-0.00075 0 0.0205 11669.6
0.000689475 0.000398068 0.0205 11127.2
0.00206843 0.0011942 0.0205 11642.9
0.00344737 0.00199034 0.0205 12413
0.00482631 0.00278648 0.0205 13359.3
0.00620527 0.00358261 0.0205 14558.5
0.00758422 0.00437875 0.0205 16009.1
0.00896317 0.00517489 0.0205 17759.7
0.0103421 0.00597102 0.0205 19852.8
0.0117211 0.00676715 0.0205 22313.7
0.0131 0.00756329 0.0205 25167.4
0.0144789 0.00835943 0.0205 28427.1
0.0158579 0.00915557 0.0205 32113.3
0.0172368 0.00995171 0.0205 36293.1
0.0186158 0.0107478 0.0205 41064.8
0.0199947 0.0115439 0.0205 46583
0.0213737 0.0123401 0.0205 53074.7
0.0227526 0.0131362 0.0205 60642.3
0.0241316 0.0139323 0.0205 69242.9
0.0255106 0.0147285 0.0205 78945.7
0.0268895 0.0155246 0.0205 89554.6
0.0282685 0.0163208 0.0205 100393
0.0296474 0.0171169 0.0205 110798
0.0310264 0.017913 0.0205 120100
0.0324053 0.0187092 0.0205 127466
0.0337843 0.0195054 0.0205 132448
0.0351632 0.0203015 0.0205 134419
0.0365421 0.0210976 0.0205 133152
0.037921 0.0218938 0.0205 126066
0.0393 0.0226898 0.0205 121007
0.0406789 0.023486 0.0205 118090
0.0420579 0.0242821 0.0205 116311
0.0434368 0.0250783 0.0205 114841
0.0448158 0.0258745 0.0205 112111
0.0461948 0.0266706 0.0205 109321
0.0475737 0.0274667 0.0205 106356
0.0489527 0.0282628 0.0205 103460
0.0503316 0.029059 0.0205 101538
0.0517106 0.0298551 0.0205 100332
0.0530895 0.0306512 0.0205 99668.9
0.0544684 0.0314473 0.0205 99704.4
0.0558474 0.0322435 0.0205 99829.3
0.0572264 0.0330397 0.0205 99963.8
0.0586053 0.0338357 0.0205 99873.2
0.0599842 0.0346319 0.0205 99803.9
0.0613632 0.0354281 0.0205 99930.6
0.0627422 0.0362242 0.0205 100165
0.0641211 0.0370204 0.0205 100238
0.0655001 0.0378164 0.0205 100313
0.066879 0.0386126 0.0205 100204
0.0682579 0.0394088 0.0205 99870.5
0.0696369 0.0402049 0.0205 99773.9
0.0710158 0.041001 0.0205 100057
0.0723947 0.0417971 0.0205 100592
0.0737737 0.0425932 0.0205 101116
0.0751527 0.0433894 0.0205 101433
0.0765316 0.0441856 0.0205 101735
0.0779106 0.0449817 0.0205 101637
0.0792895 0.0457778 0.0205 101125
0.0806685 0.0465739 0.0205 100818
0.0820474 0.0473701 0.0205 100529
0.0834263 0.0481662 0.0205 100278
0.0848053 0.0489624 0.0205 100189
0.0861843 0.0497585 0.0205 100197
0.0875632 0.0505546 0.0205 100164
0.0889421 0.0513508 0.0205 100226
0.0903211 0.0521469 0.0205 100384
0.0917 0.0529431 0.0205 100804
0.093079 0.0537392 0.0205 101205
0.094458 0.0545353 0.0205 101765
0.0958369 0.0553315 0.0205 102221
0.0972159 0.0561276 0.0205 102612
0.0985948 0.0569238 0.0205 102655
0.0999737 0.0577198 0.0205 102717
0.101352 0.058516 0.0205 102537
0.102732 0.0593121 0.0205 102224
0.10411 0.0601083 0.0205 101920
0.105489 0.0609044 0.0205 101743
0.106868 0.0617005 0.0205 101684
0.108248 0.0624967 0.0205 101666
0.109627 0.0632928 0.0205 101715
0.111006 0.064089 0.0205 102004
0.112385 0.0648851 0.0205 102256
0.113764 0.0656812 0.0205 102385
0.115143 0.0664774 0.0205 102597
0.116522 0.0672735 0.0205 102806
0.117901 0.0680697 0.0205 102785
0.119279 0.0688658 0.0205 102886
0.120658 0.0696619 0.0205 102735
0.122037 0.0704581 0.0205 102615
0.123415 0.0712542 0.0205 102464
0.124794 0.0720503 0.0205 102276
0.126173 0.0728465 0.0205 102245
0.127552 0.0736426 0.0205 102139
0.128931 0.0744387 0.0205 102080
0.13031 0.0752348 0.0205 102100
0.131689 0.076031 0.0205 102125
0.133069 0.0768271 0.0205 102062
0.134447 0.0776233 0.0205 102094
0.135827 0.0784194 0.0205 101797
