# wallHeatFlux  FACE_DATA 203
# x  y  z  wallHeatFlux
-0.873265 0 0.0205 -296341
-0.846493 0 0.0205 -79724.8
-0.820677 0 0.0205 -77177
-0.795786 0 0.0205 -75743.9
-0.771783 0 0.0205 -74788.4
-0.74637 0 0.0205 -74470
-0.719597 0 0.0205 -73939.2
-0.693782 0 0.0205 -73249.1
-0.66889 0 0.0205 -72665.3
-0.644887 0 0.0205 -72081.4
-0.621743 0 0.0205 -71550.6
-0.599426 0 0.0205 -71072.9
-0.577905 0 0.0205 -70595.2
-0.557154 0 0.0205 -70223.6
-0.537145 0 0.0205 -69799
-0.517849 0 0.0205 -69427.4
-0.499243 0 0.0205 -69055.9
-0.481301 0 0.0205 -68737.4
-0.463999 0 0.0205 -68472
-0.447314 0 0.0205 -68206.6
-0.431225 0 0.0205 -67994.3
-0.41571 0 0.0205 -67782
-0.400747 0 0.0205 -67516.6
-0.386317 0 0.0205 -67251.2
-0.372401 0 0.0205 -66985.8
-0.358981 0 0.0205 -66720.4
-0.346039 0 0.0205 -66508.1
-0.333556 0 0.0205 -66348.9
-0.321518 0 0.0205 -66242.7
-0.309908 0 0.0205 -66189.6
-0.298709 0 0.0205 -66083.5
-0.287908 0 0.0205 -65924.2
-0.27749 0 0.0205 -65818.1
-0.267441 0 0.0205 -65658.8
-0.257748 0 0.0205 -65499.6
-0.248397 0 0.0205 -65340.4
-0.239378 0 0.0205 -65181.1
-0.230677 0 0.0205 -65021.9
-0.222282 0 0.0205 -64862.6
-0.214183 0 0.0205 -64756.5
-0.20637 0 0.0205 -64650.3
-0.19883 0 0.0205 -64597.2
-0.191555 0 0.0205 -64544.2
-0.184536 0 0.0205 -64491.1
-0.177762 0 0.0205 -64438
-0.171224 0 0.0205 -64384.9
-0.164914 0 0.0205 -64384.9
-0.158824 0 0.0205 -64384.9
-0.152944 0 0.0205 -64331.8
-0.147268 0 0.0205 -64278.8
-0.141788 0 0.0205 -64278.8
-0.136496 0 0.0205 -64225.7
-0.131387 0 0.0205 -64172.6
-0.126452 0 0.0205 -64119.5
-0.121685 0 0.0205 -64066.5
-0.117081 0 0.0205 -64013.4
-0.112632 0 0.0205 -63907.2
-0.108332 0 0.0205 -63854.1
-0.104177 0 0.0205 -63801.1
-0.100161 0 0.0205 -63694.9
-0.0962773 0 0.0205 -63641.8
-0.0925221 0 0.0205 -63588.7
-0.08889 0 0.0205 -63482.6
-0.0853762 0 0.0205 -63429.5
-0.0819759 0 0.0205 -63376.4
-0.0786847 0 0.0205 -63270.3
-0.0754981 0 0.0205 -63217.2
-0.0724121 0 0.0205 -63164.1
-0.0694223 0 0.0205 -63111
-0.066525 0 0.0205 -63111
-0.0637161 0 0.0205 -63058
-0.060992 0 0.0205 -63004.9
-0.0583491 0 0.0205 -62951.8
-0.0557837 0 0.0205 -62951.8
-0.0532926 0 0.0205 -62898.7
-0.0508723 0 0.0205 -62845.6
-0.0485197 0 0.0205 -62845.6
-0.0462317 0 0.0205 -62792.6
-0.0440053 0 0.0205 -62792.6
-0.0418373 0 0.0205 -62739.5
-0.039725 0 0.0205 -61943.3
-0.0376655 0 0.0205 -51380.6
-0.0356562 0 0.0205 -28238.1
-0.0336943 0 0.0205 -24097.9
-0.0317773 0 0.0205 -33333.7
-0.0299025 0 0.0205 -41083.2
-0.0280674 0 0.0205 -47611.9
-0.0262697 0 0.0205 -53132.2
-0.024507 0 0.0205 -58387
-0.0227768 0 0.0205 -63217.2
-0.021077 0 0.0205 -67994.3
-0.0194052 0 0.0205 -72187.6
-0.0177593 0 0.0205 -76009.2
-0.016137 0 0.0205 -79406.3
-0.014536 0 0.0205 -82591.1
-0.0129545 0 0.0205 -85510.4
-0.0113902 0 0.0205 -88111.3
-0.00984104 0 0.0205 -90712.2
-0.00830498 0 0.0205 -93737.7
-0.00677997 0 0.0205 -97824.8
-0.00526398 0 0.0205 -103663
-0.00375499 0 0.0205 -112421
-0.002251 0 0.0205 -126541
-0.00075 0 0.0205 -141031
0.000689475 0.000398068 0.0205 -133920
0.00206843 0.0011942 0.0205 -177007
0.00344737 0.00199034 0.0205 -204588
0.00482631 0.00278648 0.0205 -234619
0.00620527 0.00358261 0.0205 -269678
0.00758422 0.00437875 0.0205 -311540
0.00896317 0.00517489 0.0205 -362164
0.0103421 0.00597102 0.0205 -422168
0.0117211 0.00676715 0.0205 -491737
0.0131 0.00756329 0.0205 -570793
0.0144789 0.00835943 0.0205 -658572
0.0158579 0.00915557 0.0205 -754232
0.0172368 0.00995171 0.0205 -860780
0.0186158 0.0107478 0.0205 -978114
0.0199947 0.0115439 0.0205 -1.10182e+06
0.0213737 0.0123401 0.0205 -1.26486e+06
0.0227526 0.0131362 0.0205 -1.43867e+06
0.0241316 0.0139323 0.0205 -1.61822e+06
0.0255106 0.0147285 0.0205 -1.84238e+06
0.0268895 0.0155246 0.0205 -2.08126e+06
0.0282685 0.0163208 0.0205 -2.30624e+06
0.0296474 0.0171169 0.0205 -2.47529e+06
0.0310264 0.017913 0.0205 -2.68439e+06
0.0324053 0.0187092 0.0205 -2.7923e+06
0.0337843 0.0195054 0.0205 -2.7534e+06
0.0351632 0.0203015 0.0205 -2.71105e+06
0.0365421 0.0210976 0.0205 -2.59831e+06
0.037921 0.0218938 0.0205 -2.42072e+06
0.0393 0.0226898 0.0205 -2.21199e+06
0.0406789 0.023486 0.0205 -2.03116e+06
0.0420579 0.0242821 0.0205 -2.09113e+06
0.0434368 0.0250783 0.0205 -2.01498e+06
0.0448158 0.0258745 0.0205 -1.82329e+06
0.0461948 0.0266706 0.0205 -1.83068e+06
0.0475737 0.0274667 0.0205 -1.78945e+06
0.0489527 0.0282628 0.0205 -1.65704e+06
0.0503316 0.029059 0.0205 -1.64997e+06
0.0517106 0.0298551 0.0205 -1.66274e+06
0.0530895 0.0306512 0.0205 -1.61356e+06
0.0544684 0.0314473 0.0205 -1.58613e+06
0.0558474 0.0322435 0.0205 -1.55214e+06
0.0572264 0.0330397 0.0205 -1.62009e+06
0.0586053 0.0338357 0.0205 -1.58911e+06
0.0599842 0.0346319 0.0205 -1.57686e+06
0.0613632 0.0354281 0.0205 -1.61589e+06
0.0627422 0.0362242 0.0205 -1.64662e+06
0.0641211 0.0370204 0.0205 -1.56704e+06
0.0655001 0.0378164 0.0205 -1.58607e+06
0.066879 0.0386126 0.0205 -1.60877e+06
0.0682579 0.0394088 0.0205 -1.53281e+06
0.0696369 0.0402049 0.0205 -1.50204e+06
0.0710158 0.041001 0.0205 -1.51585e+06
0.0723947 0.0417971 0.0205 -1.55831e+06
0.0737737 0.0425932 0.0205 -1.53106e+06
0.0751527 0.0433894 0.0205 -1.49173e+06
0.0765316 0.0441856 0.0205 -1.59585e+06
0.0779106 0.0449817 0.0205 -1.58704e+06
0.0792895 0.0457778 0.0205 -1.48755e+06
0.0806685 0.0465739 0.0205 -1.51589e+06
0.0820474 0.0473701 0.0205 -1.52756e+06
0.0834263 0.0481662 0.0205 -1.45362e+06
0.0848053 0.0489624 0.0205 -1.46794e+06
0.0861843 0.0497585 0.0205 -1.49302e+06
0.0875632 0.0505546 0.0205 -1.45084e+06
0.0889421 0.0513508 0.0205 -1.41599e+06
0.0903211 0.0521469 0.0205 -1.37862e+06
0.0917 0.0529431 0.0205 -1.44173e+06
0.093079 0.0537392 0.0205 -1.42228e+06
0.094458 0.0545353 0.0205 -1.418e+06
0.0958369 0.0553315 0.0205 -1.4585e+06
0.0972159 0.0561276 0.0205 -1.48487e+06
0.0985948 0.0569238 0.0205 -1.42013e+06
0.0999737 0.0577198 0.0205 -1.43664e+06
0.101352 0.058516 0.0205 -1.45376e+06
0.102732 0.0593121 0.0205 -1.38667e+06
0.10411 0.0601083 0.0205 -1.35124e+06
0.105489 0.0609044 0.0205 -1.35294e+06
0.106868 0.0617005 0.0205 -1.37674e+06
0.108248 0.0624967 0.0205 -1.34658e+06
0.109627 0.0632928 0.0205 -1.30991e+06
0.111006 0.064089 0.0205 -1.39856e+06
0.112385 0.0648851 0.0205 -1.40473e+06
0.113764 0.0656812 0.0205 -1.33347e+06
0.115143 0.0664774 0.0205 -1.36552e+06
0.116522 0.0672735 0.0205 -1.38873e+06
0.117901 0.0680697 0.0205 -1.33016e+06
0.119279 0.0688658 0.0205 -1.34689e+06
0.120658 0.0696619 0.0205 -1.36618e+06
0.122037 0.0704581 0.0205 -1.33206e+06
0.123415 0.0712542 0.0205 -1.29982e+06
0.124794 0.0720503 0.0205 -1.26296e+06
0.126173 0.0728465 0.0205 -1.31196e+06
0.127552 0.0736426 0.0205 -1.28781e+06
0.128931 0.0744387 0.0205 -1.27675e+06
0.13031 0.0752348 0.0205 -1.30528e+06
0.131689 0.076031 0.0205 -1.32517e+06
0.133069 0.0768271 0.0205 -1.27408e+06
0.134447 0.0776233 0.0205 -1.28376e+06
0.135827 0.0784194 0.0205 -1.3158e+06
