# Wall heat-flux
# Time        	patch         	min           	max           	integral      
12200         	base	-1.231827e+04	3.515405e+04	3.927372e+02
