/*--------------------------------*- C++ -*----------------------------------*\
| =========                 |                                                 |
| \\      /  F ield         | OpenFOAM: The Open Source CFD Toolbox           |
|  \\    /   O peration     | Version:  v2012                                 |
|   \\  /    A nd           | Website:  www.openfoam.com                      |
|    \\/     M anipulation  |                                                 |
\*---------------------------------------------------------------------------*/
FoamFile
{
    version     2.0;
    format      ascii;
    class       volScalarField;
    location    "0";
    object      Prt;
}
// * * * * * * * * * * * * * * * * * * * * * * * * * * * * * * * * * * * * * //

dimensions      [0 0 0 0 0 0 0];


internalField   nonuniform List<scalar> 
31383
(
0.0610924
0.0616929
0.00117944
0.06168
0.00233334
0.000263921
0.0616695
0.00230962
0.00329313
0.000277298
0.0616612
0.00228989
0.00323348
0.0058615
0.000394899
0.0616543
0.00227462
0.00318381
0.00575209
0.00909366
0.00055063
0.0616487
0.00226184
0.00314544
0.00566093
0.00892407
0.0128549
0.000739049
0.0616434
0.00225111
0.00311331
0.00559049
0.00878267
0.0126179
0.0170834
0.000961775
0.0616388
0.00224139
0.00308626
0.00553156
0.00867335
0.0124198
0.0167765
0.0216959
0.00122491
0.0616349
0.00223295
0.00306188
0.00548188
0.00858186
0.0122665
0.0165185
0.0213262
0.0265307
0.00153307
0.0616312
0.00222572
0.00304065
0.00543716
0.00850477
0.012138
0.0163186
0.0210122
0.0261232
0.0312993
0.00189215
0.061628
0.00221904
0.00302248
0.00539817
0.00843532
0.0120298
0.0161509
0.0207678
0.0257687
0.0309127
0.0356396
0.00227904
0.0616248
0.00221271
0.00300562
0.00536479
0.00837483
0.0119323
0.0160097
0.0205625
0.0254908
0.0305498
0.0353296
0.0391575
0.00272164
0.0616217
0.00220683
0.00298973
0.00533388
0.00832298
0.0118473
0.0158821
0.0203893
0.0252561
0.030261
0.0350016
0.0389815
0.0415896
0.00322372
0.061619
0.00220131
0.00297495
0.0053047
0.00827504
0.0117745
0.0157708
0.0202323
0.0250583
0.0300153
0.0347398
0.0387373
0.0415861
0.0428918
0.00372043
0.0616165
0.00219637
0.00296102
0.00527761
0.00822976
0.0117071
0.0156755
0.0200952
0.0248775
0.0298053
0.0345114
0.03854
0.0414614
0.0430668
0.0431896
0.00424962
0.0616145
0.00219192
0.00294866
0.00525205
0.00818768
0.0116435
0.0155873
0.0199778
0.024719
0.0296162
0.0343066
0.03836
0.0413541
0.0430707
0.0435275
0.0427178
0.00477125
0.0616125
0.00218784
0.00293746
0.00522938
0.00814795
0.0115844
0.0155039
0.019869
0.0245835
0.0294472
0.0341359
0.0381926
0.0412451
0.0430612
0.0436499
0.0431825
0.0417
0.00525493
0.0616108
0.00218429
0.00292726
0.00520884
0.00811277
0.0115285
0.0154264
0.0197661
0.0244575
0.0293027
0.033973
0.0380583
0.0411393
0.0430351
0.0437332
0.0433961
0.0422661
0.0403198
0.00570357
0.0616092
0.00218098
0.00291831
0.00519008
0.0080809
0.0114791
0.0153532
0.0196704
0.0243369
0.0291678
0.033834
0.0379236
0.0410571
0.0429979
0.0437896
0.0435515
0.0425502
0.0409644
0.03872
0.00612159
0.0616078
0.00217814
0.00291
0.00517368
0.00805178
0.0114343
0.0152883
0.0195799
0.024227
0.0290333
0.033705
0.0378032
0.0409675
0.0429762
0.0438198
0.0436699
0.0427588
0.0412966
0.0394235
0.0370085
0.00645996
0.0616066
0.00217557
0.00290282
0.0051584
0.00802626
0.0113933
0.0152296
0.0194997
0.0241217
0.0289199
0.0335712
0.0377001
0.040884
0.0429376
0.0438524
0.0437541
0.0429238
0.0415435
0.0397878
0.0377582
0.0352638
0.00670668
0.0616055
0.00217324
0.00289633
0.00514525
0.00800259
0.0113574
0.0151758
0.019427
0.0240285
0.0288064
0.0334642
0.0375848
0.040819
0.0428997
0.0438649
0.0438346
0.04305
0.0417424
0.0400598
0.0381412
0.0360519
0.0335388
0.00686552
0.0616046
0.00217118
0.00289055
0.00513336
0.00798216
0.0113241
0.0151288
0.0193605
0.0239439
0.0287057
0.0333529
0.0374951
0.0407352
0.0428773
0.0438705
0.0438918
0.043166
0.041899
0.0402815
0.0384289
0.0364442
0.0343621
0.0318673
0.00693738
0.0616037
0.00216933
0.00288533
0.00512272
0.00796364
0.0112954
0.0150851
0.0193022
0.0238663
0.0286136
0.0332542
0.0374
0.0406739
0.0428326
0.0438873
0.0439365
0.0432575
0.0420415
0.0404596
0.0386644
0.03674
0.0347569
0.0327266
0.0302676
0.00692575
0.0616027
0.00216763
0.0028807
0.00511315
0.00794712
0.0112694
0.0150473
0.019248
0.0237984
0.02853
0.0331607
0.0373161
0.0406075
0.0428071
0.043883
0.0439863
0.0433313
0.0421579
0.0406196
0.0388559
0.0369822
0.0350551
0.0331197
0.0311655
0.0287489
0.00683538
0.061602
0.00216606
0.0028764
0.00510462
0.00793224
0.0112462
0.0150132
0.0192012
0.023735
0.0284566
0.0330815
0.0372336
0.0405483
0.0427749
0.0438911
0.0440168
0.0434061
0.0422533
0.0407535
0.0390262
0.0371807
0.035299
0.0334164
0.0315549
0.0296825
0.0273101
0.00667528
0.0616014
0.0021646
0.00287242
0.00509676
0.00791902
0.0112252
0.0149826
0.0191589
0.0236804
0.0283875
0.0330087
0.0371669
0.0404879
0.0427461
0.0438924
0.044055
0.0434624
0.0423463
0.040864
0.0391711
0.037357
0.0355008
0.033659
0.0318482
0.0300673
0.0282775
0.0259462
0.00645576
0.0616006
0.00216333
0.00286881
0.00508944
0.00790676
0.0112066
0.0149551
0.0191211
0.023631
0.0283285
0.0329406
0.0371024
0.0404419
0.0427133
0.0438939
0.0440858
0.0435236
0.042422
0.0409695
0.0392918
0.0375074
0.0356789
0.0338602
0.0320872
0.0303561
0.0286576
0.0269478
0.0246515
0.00618388
0.0615999
0.00216209
0.00286553
0.00508281
0.00789545
0.0111894
0.0149307
0.0190869
0.0235867
0.0282746
0.0328825
0.0370449
0.0403946
0.0426922
0.0438893
0.0441141
0.0435766
0.0424998
0.0410579
0.0394045
0.0376336
0.0358311
0.0340376
0.032286
0.0305912
0.0289416
0.027324
0.0256898
0.0234212
0.00586059
0.0615994
0.00216103
0.00286251
0.00507682
0.00788517
0.0111734
0.0149081
0.0190566
0.0235468
0.0282265
0.0328292
0.0369941
0.0403532
0.0426669
0.0438933
0.044135
0.0436253
0.0425695
0.0411477
0.0395017
0.0377504
0.0359596
0.0341894
0.032461
0.0307865
0.0291722
0.0276031
0.026063
0.0244994
0.0222494
0.00547453
0.061599
0.0021601
0.00285981
0.00507125
0.0078758
0.011159
0.0148871
0.0190285
0.0235114
0.0281829
0.0327814
0.0369478
0.0403168
0.0426467
0.0438907
0.0441611
0.0436651
0.0426327
0.0412286
0.0395984
0.0378524
0.0360784
0.0343183
0.0326112
0.0309586
0.029364
0.0278291
0.0263377
0.0248712
0.0233722
0.0211309
0.00500568
0.0615986
0.00215921
0.00285742
0.00506629
0.00786719
0.0111458
0.0148681
0.0190025
0.0234785
0.0281444
0.0327384
0.0369063
0.0402843
0.0426277
0.0438911
0.0441791
0.0437081
0.0426868
0.0413022
0.0396865
0.0379526
0.0361823
0.0344365
0.0327386
0.0311063
0.0295325
0.028017
0.0265591
0.0251417
0.0237442
0.0223035
0.0200604
0.00446353
0.0615983
0.00215843
0.00285524
0.0050619
0.00785946
0.0111337
0.0148508
0.0189789
0.023448
0.0281085
0.0327004
0.0368684
0.0402543
0.042612
0.0438911
0.0441989
0.0437417
0.0427418
0.0413661
0.0397665
0.0380446
0.0362837
0.0345401
0.032855
0.0312317
0.0296773
0.0281819
0.026743
0.0253587
0.0240112
0.0226778
0.0212889
0.0190329
0.00390782
0.0615979
0.00215776
0.00285329
0.00505792
0.00785262
0.0111228
0.0148349
0.0189574
0.0234204
0.0280751
0.0326645
0.0368356
0.040227
0.0425968
0.0438917
0.044215
0.0437756
0.0427871
0.0414293
0.0398366
0.0381283
0.0363771
0.0346411
0.0329576
0.0313459
0.0298003
0.0283236
0.0269045
0.0255391
0.0242244
0.0229421
0.0216678
0.0203236
0.0180442
0.00336092
0.0615975
0.00215708
0.00285152
0.00505433
0.00784639
0.0111131
0.0148206
0.0189376
0.0233952
0.0280449
0.0326311
0.036804
0.0402028
0.0425823
0.0438911
0.0442305
0.0438043
0.0428316
0.0414832
0.0399053
0.0382018
0.0364617
0.0347339
0.0330567
0.0314468
0.0299122
0.0284444
0.0270433
0.025697
0.0244012
0.0231517
0.0219301
0.0207099
0.0194036
0.0170901
0.00283598
0.0615971
0.0021565
0.00284986
0.00505106
0.00784085
0.0111045
0.0148079
0.01892
0.023372
0.0280176
0.0326013
0.0367747
0.0401798
0.0425703
0.0438904
0.0442439
0.0438311
0.04287
0.0415346
0.0399645
0.0382733
0.0365369
0.0348183
0.0331483
0.0315439
0.0300106
0.0285534
0.0271615
0.0258329
0.0245557
0.0233253
0.0221368
0.0209714
0.0198001
0.018524
0.016166
0.00233985
0.061597
0.00215584
0.00284835
0.00504805
0.00783576
0.0110966
0.0147964
0.0189042
0.0233513
0.0279922
0.0325738
0.0367486
0.0401582
0.0425587
0.0438907
0.0442555
0.043855
0.0429053
0.0415794
0.0400205
0.0383356
0.0366093
0.0348935
0.0332312
0.0316333
0.0301054
0.0286498
0.0272677
0.0259485
0.0246887
0.0234767
0.0223072
0.0211755
0.0200617
0.0189342
0.0176809
0.0152649
0.00187776
0.0615911
0.00215535
0.00284671
0.00504526
0.00783106
0.0110895
0.0147861
0.0188899
0.0233328
0.0279697
0.032549
0.0367249
0.040139
0.0425467
0.0438895
0.0442665
0.0438765
0.0429368
0.041621
0.0400695
0.0383942
0.0366726
0.0349657
0.0333055
0.0317149
0.0301926
0.0287419
0.0273617
0.0260523
0.0248021
0.0236072
0.0224562
0.0213435
0.020264
0.0191977
0.018109
0.0168702
0.0143782
0.00145508
0.064313
0.00214435
0.00284556
0.00504221
0.00782674
0.0110828
0.0147767
0.0188771
0.0233161
0.0279495
0.0325264
0.0367027
0.040122
0.0425368
0.0438891
0.0442757
0.043896
0.0429655
0.0416581
0.0401154
0.0384456
0.0367322
0.0350292
0.0333766
0.0317875
0.0302723
0.0288268
0.0274516
0.0261441
0.0249033
0.0237184
0.0225841
0.0214898
0.0204299
0.0193986
0.0183753
0.0173205
0.0160877
0.0134976
0.00107779
0.0617785
0.00488092
0.00281808
0.00504007
0.00782208
0.0110767
0.014768
0.0188654
0.0233011
0.0279314
0.032506
0.0366827
0.0401055
0.0425283
0.0438884
0.0442848
0.043913
0.0429913
0.0416917
0.0401555
0.0384933
0.0367848
0.0350887
0.0334391
0.0318572
0.0303434
0.0289045
0.0275341
0.0262312
0.024993
0.0238173
0.022693
0.0216157
0.0205741
0.0195629
0.018576
0.0175915
0.0165656
0.0153294
0.0126152
0.00075291
0.0618621
0.00242597
0.00907583
0.00499014
0.00781872
0.0110702
0.0147599
0.0188545
0.0232874
0.0279148
0.0324879
0.0366646
0.0400913
0.0425197
0.0438881
0.0442926
0.043929
0.0430146
0.0417219
0.0401924
0.0385359
0.0368333
0.0351412
0.0334977
0.0319188
0.0304116
0.0289738
0.0276096
0.0263113
0.0250776
0.0239046
0.0227897
0.0217226
0.020698
0.0197053
0.0187389
0.0177927
0.016843
0.0158407
0.0145912
0.0117225
0.000487624
0.0623623
0.00257229
0.00342794
0.0155166
0.00774212
0.0110654
0.0147513
0.0188446
0.0232747
0.0278998
0.0324717
0.0366495
0.0400784
0.0425127
0.043888
0.0443007
0.0439438
0.0430359
0.0417493
0.0402256
0.0385745
0.0368768
0.0351898
0.0335499
0.0319763
0.0304717
0.0290401
0.0276773
0.026385
0.0251556
0.0239872
0.0228753
0.0218175
0.0208034
0.0198275
0.0188799
0.017955
0.0170456
0.0161267
0.0151427
0.013869
0.010811
0.000287484
0.0621546
0.00352442
0.00379976
0.00597948
0.0230133
0.010959
0.014745
0.0188338
0.023263
0.0278861
0.0324568
0.0366356
0.0400673
0.0425056
0.0438879
0.0443075
0.0439577
0.0430555
0.0417746
0.0402557
0.0386096
0.0369164
0.0352333
0.0335978
0.0320272
0.0305277
0.0290989
0.0277417
0.0264509
0.0252272
0.0240628
0.0229556
0.021901
0.0208963
0.0199314
0.019001
0.0180948
0.0172079
0.0163318
0.0154399
0.0144684
0.0131588
0.00987233
0.000152803
0.0618312
0.00316556
0.0061162
0.00665321
0.0091138
0.0312586
0.0146067
0.018826
0.0232503
0.0278732
0.032443
0.0366224
0.0400577
0.0425008
0.0438876
0.0443146
0.0439708
0.0430741
0.0417978
0.0402837
0.0386412
0.036952
0.0352731
0.0336408
0.0320746
0.0305779
0.0291535
0.0277991
0.0265136
0.0252914
0.0241327
0.0230294
0.0219794
0.0209782
0.0200227
0.0191034
0.0182149
0.017347
0.0164946
0.0156484
0.0147794
0.0138147
0.0124566
0.00889784
7.49154e-05
0.0617908
0.00257858
0.0051947
0.0107845
0.0101298
0.0127161
0.0399781
0.0186546
0.0232411
0.0278591
0.0324302
0.0366101
0.0400483
0.0424962
0.0438891
0.0443205
0.0439825
0.0430914
0.0418199
0.0403094
0.0386703
0.0369847
0.0353087
0.0336803
0.0321171
0.0306241
0.0292027
0.0278525
0.0265696
0.0253525
0.0241953
0.0230975
0.0220513
0.0210547
0.0201033
0.0191935
0.0183164
0.0174662
0.0166336
0.0158125
0.0149929
0.0141428
0.0131785
0.0117586
0.00788154
3.6744e-05
0.0615996
0.0025199
0.00373476
0.00909768
0.0163791
0.0140683
0.0167613
0.0487572
0.023037
0.0278491
0.0324163
0.0365991
0.0400397
0.0424912
0.04389
0.0443274
0.0439932
0.043107
0.0418398
0.0403331
0.0386976
0.0370144
0.0353414
0.0337157
0.0321559
0.0306656
0.0292479
0.0279002
0.0266215
0.0254069
0.0242547
0.0231585
0.0221177
0.0211249
0.0201781
0.0192726
0.0184053
0.0175671
0.0167525
0.0159518
0.0151591
0.0143628
0.0135272
0.0125563
0.0110592
0.00682524
2.02691e-05
0.0615896
0.0021696
0.003571
0.00647236
0.0137822
0.0226492
0.0183905
0.0212038
0.0569553
0.0276152
0.0324066
0.0365864
0.0400314
0.0424872
0.0438903
0.0443333
0.0440045
0.0431218
0.0418587
0.0403554
0.0387225
0.037042
0.0353712
0.0337478
0.0321906
0.0307037
0.0292886
0.0279443
0.0266684
0.0254577
0.0243078
0.0232165
0.0221774
0.0211898
0.0202466
0.0193459
0.0184832
0.017655
0.0168529
0.0160706
0.0152992
0.0145318
0.0137553
0.01293
0.011945
0.0103483
0.0057497
1.40093e-05
0.061588
0.002156
0.00285275
0.00616483
0.00978695
0.0190423
0.0294206
0.0230137
0.0259353
0.063802
0.0321486
0.036579
0.0400219
0.0424835
0.0438908
0.0443386
0.0440146
0.0431357
0.0418759
0.0403762
0.038746
0.0370681
0.0353991
0.0337775
0.0322221
0.0307378
0.0293258
0.027984
0.0267112
0.0255032
0.0243571
0.0232685
0.0222339
0.0212484
0.0203102
0.0194132
0.0185551
0.017732
0.01694
0.0161709
0.0154184
0.0146733
0.0139283
0.0131684
0.0123488
0.011341
0.00961497
0.00470548
1.19263e-05
0.0615872
0.00215619
0.00283
0.00503685
0.00930596
0.0135274
0.0247563
0.0364531
0.0278086
0.0307504
0.0685843
0.036305
0.0400174
0.042478
0.0438915
0.0443436
0.0440234
0.0431487
0.0418923
0.040395
0.0387682
0.0370918
0.035425
0.033805
0.0322513
0.030769
0.029359
0.0280203
0.0267501
0.0255452
0.0244018
0.0233167
0.0222846
0.0213035
0.0203673
0.0194755
0.018621
0.0178027
0.0170162
0.0162575
0.0155189
0.0147933
0.0140718
0.0133465
0.0125996
0.0117805
0.0107408
0.00885029
0.00373428
1.12641e-05
0.0615864
0.00215637
0.00282669
0.00499944
0.00779846
0.0128528
0.0176327
0.0307676
0.0433358
0.0325714
0.0353305
0.0711283
0.0397381
0.0424772
0.0438904
0.0443483
0.0440315
0.0431607
0.0419073
0.040413
0.0387877
0.0371142
0.0354489
0.0338308
0.0322785
0.0307977
0.0293897
0.028053
0.0267855
0.0255832
0.0244426
0.0233601
0.0223317
0.0213531
0.0204214
0.0195316
0.0186822
0.0178676
0.017086
0.0163332
0.0156053
0.0148943
0.0141932
0.0134928
0.0127839
0.0120466
0.0112224
0.0101406
0.00804834
0.00285134
1.10333e-05
0.0615855
0.00215633
0.00282513
0.00499054
0.00774254
0.0110223
0.0167588
0.0220463
0.0368
0.0494669
0.0369932
0.0392985
0.0717768
0.042203
0.0438931
0.0443514
0.0440396
0.0431714
0.0419212
0.0404296
0.0388069
0.0371347
0.0354715
0.0338545
0.0323039
0.030824
0.0294174
0.0280826
0.0268175
0.0256178
0.0244799
0.0234
0.0223742
0.0213991
0.0204702
0.0195845
0.0187374
0.0179278
0.0171498
0.0164022
0.0156806
0.0149809
0.0142951
0.0136159
0.012934
0.0122387
0.0115069
0.0106718
0.00953728
0.00720672
0.00207179
1.09323e-05
0.0615849
0.00215637
0.00282314
0.00498625
0.00772567
0.0109447
0.0146746
0.0209913
0.0266766
0.042422
0.0542124
0.0407079
0.0423337
0.0710718
0.043632
0.0443576
0.0440457
0.0431822
0.0419338
0.0404448
0.0388245
0.037154
0.0354922
0.033877
0.0323275
0.030849
0.0294435
0.02811
0.0268465
0.0256488
0.0245136
0.0234365
0.0224134
0.0214408
0.0205153
0.0196322
0.0187892
0.0179822
0.0172092
0.0164653
0.015749
0.0150561
0.014382
0.0137191
0.0130596
0.0123933
0.0117086
0.010978
0.0101255
0.00892174
0.00632661
0.00140995
1.08765e-05
0.0615852
0.00215639
0.00282127
0.00498121
0.00771757
0.0109177
0.0145726
0.0187264
0.0254876
0.0313673
0.0471251
0.0572169
0.0434369
0.044289
0.0694941
0.0441143
0.0440544
0.0431905
0.0419461
0.0404589
0.0388405
0.0371721
0.0355115
0.0338976
0.0323495
0.030872
0.0294679
0.0281353
0.0268731
0.0256772
0.024544
0.0234694
0.0224489
0.0214792
0.0205561
0.0196765
0.0188363
0.0180331
0.0172628
0.0165239
0.0158114
0.015124
0.0144574
0.0138068
0.0131644
0.0125219
0.0118688
0.0111914
0.0104578
0.00958017
0.00828209
0.00541446
0.000876105
1.08398e-05
0.0615613
0.00215684
0.00281989
0.00497629
0.00770824
0.0109047
0.0145339
0.0185987
0.0231138
0.0301041
0.0358555
0.0505281
0.0585495
0.0450772
0.0452042
0.0673841
0.0438306
0.0432012
0.0419567
0.0404724
0.0388551
0.0371885
0.03553
0.0339169
0.03237
0.0308939
0.0294903
0.0281594
0.0268978
0.0257033
0.0245718
0.0234992
0.0224814
0.021514
0.0205937
0.0197166
0.0188799
0.0180795
0.017313
0.016577
0.0158695
0.015186
0.0145251
0.0138825
0.0132532
0.012629
0.0120013
0.0113585
0.0106849
0.00994324
0.00903246
0.00760718
0.00448695
0.000478618
1.08068e-05
0.0623044
0.00205131
0.00282021
0.00497277
0.00769911
0.01089
0.014515
0.0185472
0.0229605
0.0277026
0.0345911
0.0398036
0.0525391
0.0585589
0.0457102
0.0452502
0.064965
0.0429969
0.0419684
0.0404837
0.0388697
0.0372036
0.0355467
0.0339352
0.0323892
0.0309138
0.0295116
0.0281815
0.0269211
0.0257273
0.0245971
0.0235262
0.0225105
0.0215458
0.0206278
0.0197536
0.0189194
0.0181223
0.0173589
0.0166266
0.0159221
0.0152436
0.0145868
0.0139504
0.0133296
0.0127192
0.0121112
0.0114957
0.0108604
0.0101869
0.00943178
0.00847888
0.00688828
0.00357834
0.00021968
1.07784e-05
0.0620455
0.0031674
0.00255311
0.00497271
0.00769258
0.0108755
0.0144942
0.018522
0.0228965
0.0275286
0.0322587
0.0386139
0.0428985
0.0533229
0.057643
0.0455103
0.0446481
0.062379
0.0417826
0.0404967
0.0388817
0.0372183
0.0355618
0.0339516
0.0324071
0.0309329
0.0295314
0.0282023
0.0269428
0.0257502
0.0246206
0.0235512
0.0225372
0.0215743
0.020659
0.0197873
0.0189559
0.0181613
0.017401
0.0166718
0.0159712
0.0152959
0.0146442
0.014012
0.0133977
0.0127967
0.0122034
0.011609
0.0110033
0.0103725
0.00969489
0.00892038
0.00791137
0.00612121
0.00273954
8.28152e-05
1.0759e-05
0.0614662
0.00343671
0.00526795
0.00447919
0.0076918
0.0108652
0.0144734
0.0184938
0.0228667
0.0274553
0.0320756
0.0364536
0.0418492
0.0449621
0.0531507
0.0561265
0.0447024
0.0435992
0.0597153
0.0403286
0.0388952
0.037231
0.0355767
0.0339671
0.0324236
0.0309504
0.0295499
0.0282216
0.0269632
0.0257713
0.024643
0.023574
0.0225614
0.0216003
0.0206871
0.0198179
0.0189889
0.0181972
0.0174397
0.0167136
0.016016
0.0153446
0.0146962
0.0140692
0.0134594
0.0128655
0.0122822
0.0117036
0.0111207
0.0105222
0.00989253
0.00920658
0.00840584
0.00731831
0.00530801
0.0019952
2.75179e-05
1.07488e-05
0.0614755
0.00199733
0.00618206
0.00924234
0.00691723
0.0108633
0.0144585
0.0184665
0.022832
0.0274218
0.0319979
0.0362764
0.039941
0.0440867
0.0459982
0.0522809
0.0542434
0.0434777
0.0422621
0.0570305
0.0387436
0.0372445
0.0355897
0.0339819
0.0324388
0.0309668
0.0295677
0.0282399
0.0269822
0.0257913
0.0246636
0.0235959
0.0225838
0.0216241
0.0207127
0.0198455
0.019019
0.01823
0.0174751
0.0167517
0.0160574
0.0153892
0.0147447
0.0141212
0.0135167
0.0129275
0.0123518
0.0117843
0.0112183
0.0106444
0.0100504
0.0094185
0.0087192
0.00788478
0.00668779
0.00445724
0.00135123
9.65581e-06
1.07467e-05
0.0615719
0.00203759
0.00240147
0.0118715
0.0139963
0.00975658
0.0144555
0.0184468
0.0227984
0.0273829
0.0319622
0.0362017
0.0397834
0.042467
0.045295
0.0461416
0.0509287
0.0520968
0.0419857
0.0407673
0.0543622
0.0371093
0.035603
0.0339949
0.0324536
0.0309819
0.0295838
0.0282572
0.0270001
0.02581
0.0246833
0.0236161
0.0226051
0.0216462
0.020736
0.0198706
0.0190464
0.0182596
0.0175074
0.0167868
0.0160953
0.0154302
0.014789
0.0141694
0.0135688
0.012985
0.0124145
0.0118551
0.0113012
0.0107458
0.0101786
0.00958594
0.008948
0.00822992
0.00735073
0.00600915
0.00358725
0.00082328
4.5799e-06
1.07496e-05
0.0616175
0.0021581
0.00251347
0.00428732
0.0197094
0.0193185
0.012967
0.0184428
0.0227745
0.0273443
0.0319215
0.0361681
0.0397189
0.0423405
0.0439545
0.0455834
0.0455892
0.0492349
0.0498156
0.0403489
0.0392042
0.0517364
0.0354825
0.0340079
0.0324662
0.0309964
0.0295984
0.0282731
0.0270171
0.0258277
0.0247015
0.0236354
0.022625
0.0216669
0.0207577
0.0198935
0.0190711
0.0182866
0.0175369
0.0168188
0.01613
0.0154678
0.0148299
0.0142137
0.0136171
0.0130373
0.0124724
0.0119186
0.0113737
0.0108315
0.0102843
0.00972115
0.00912683
0.0084786
0.0077356
0.00679301
0.00527588
0.00274278
0.000432339
3.2596e-06
1.07556e-05
0.0616254
0.00223575
0.0028169
0.00445639
0.0067751
0.0299229
0.025122
0.0165276
0.0227694
0.0273168
0.0318812
0.0361291
0.0396913
0.042292
0.0438615
0.0444868
0.0451419
0.04455
0.0473401
0.0474823
0.0386541
0.0376409
0.0491555
0.0339004
0.0324793
0.0310092
0.0296127
0.0282877
0.0270326
0.0258443
0.024719
0.0236532
0.0226438
0.0216865
0.020778
0.0199147
0.0190935
0.018311
0.0175635
0.016848
0.0161618
0.0155025
0.0148674
0.0142546
0.0136615
0.0130857
0.0125251
0.0119771
0.0114383
0.0109059
0.0103732
0.00983207
0.0092703
0.00867082
0.00800762
0.00723301
0.0061996
0.00449066
0.00199234
0.000186161
2.94267e-06
1.07653e-05
0.0616344
0.00225527
0.00301223
0.00499724
0.00697203
0.00980256
0.0429907
0.0313482
0.0203949
0.0273113
0.0318524
0.0360912
0.0396589
0.0422728
0.0438309
0.044425
0.0442381
0.0441811
0.0431823
0.045346
0.0451648
0.0369656
0.0361108
0.0466247
0.0323833
0.0310215
0.0296255
0.0283016
0.0270471
0.0258595
0.0247351
0.0236704
0.0226613
0.021705
0.0207972
0.0199348
0.0191144
0.0183332
0.0175876
0.0168743
0.0161908
0.015534
0.0149019
0.014292
0.0137023
0.0131303
0.0125738
0.0120304
0.0114978
0.0109719
0.0104501
0.00992502
0.00938734
0.00882396
0.00821553
0.00753224
0.00671461
0.00555936
0.00367162
0.0013437
6.45733e-05
2.87368e-06
1.07723e-05
0.0616383
0.00226368
0.00306129
0.00534758
0.00778641
0.00997872
0.0134031
0.0595846
0.0379296
0.0244733
0.0318482
0.0360613
0.0396283
0.0422503
0.0438216
0.0444107
0.044199
0.0434272
0.0428665
0.0416184
0.0433268
0.0429155
0.0353251
0.0346323
0.0441684
0.0309356
0.0296373
0.028314
0.0270608
0.0258737
0.0247503
0.0236864
0.0226782
0.0217225
0.0208154
0.0199537
0.0191342
0.0183537
0.0176094
0.0168981
0.016217
0.0155628
0.0149334
0.0143264
0.0137398
0.0131712
0.0126187
0.0120796
0.0115519
0.0110326
0.0105182
0.0100049
0.00948503
0.00894823
0.00838002
0.00775851
0.00704939
0.00616936
0.00486429
0.00284697
0.000806594
1.93408e-05
2.86081e-06
1.07759e-05
0.0616371
0.00227295
0.00308229
0.00543489
0.00831793
0.0110909
0.0134888
0.0176488
0.0806188
0.0447631
0.0285857
0.0360619
0.0396019
0.0422296
0.0438093
0.0444118
0.0441987
0.0434051
0.0422269
0.0413318
0.0399582
0.0413403
0.0407668
0.0337545
0.0332144
0.0418154
0.02956
0.0283256
0.0270731
0.0258874
0.0247643
0.0237014
0.0226941
0.0217389
0.0208325
0.0199715
0.0191527
0.0183732
0.0176298
0.01692
0.0162406
0.0155889
0.0149621
0.014358
0.0137742
0.0132089
0.0126599
0.0121248
0.0116017
0.0110878
0.0105803
0.0100752
0.00956852
0.00905152
0.0085128
0.00793623
0.00729698
0.00655396
0.00558512
0.00411201
0.0020785
0.000409896
5.83375e-06
2.85919e-06
1.07778e-05
0.0616325
0.00227045
0.00310554
0.0054696
0.00844861
0.0118232
0.0149141
0.0175472
0.0226355
0.107281
0.0516731
0.0324657
0.0396084
0.0422094
0.0438
0.0444101
0.0442055
0.0434131
0.042215
0.0407789
0.0396831
0.0382751
0.0394253
0.0387332
0.032258
0.0318632
0.0395839
0.0282556
0.0270844
0.0258995
0.0247776
0.0237151
0.0227087
0.0217545
0.0208487
0.0199884
0.0191704
0.0183915
0.0176489
0.01694
0.0162622
0.0156125
0.0149881
0.0143866
0.0138058
0.0132434
0.0126977
0.0121664
0.0116474
0.0111384
0.0106367
0.0101391
0.00964158
0.00913933
0.00862264
0.00807896
0.00749012
0.00682804
0.00603631
0.00495024
0.00331693
0.00140964
0.000167252
2.3242e-06
2.85929e-06
1.07792e-05
0.0616255
0.0022604
0.0030994
0.00550975
0.00849649
0.0119997
0.0158623
0.0192923
0.0222166
0.0284767
0.141059
0.0583831
0.0357951
0.0422228
0.0437876
0.0444101
0.0442105
0.0434239
0.0422285
0.0407713
0.0391945
0.0379987
0.0366201
0.0376005
0.0368172
0.0308398
0.030578
0.0374771
0.0270203
0.0259105
0.0247897
0.0237282
0.0227224
0.0217691
0.0208642
0.0200045
0.019187
0.018409
0.0176671
0.016959
0.0162821
0.0156338
0.0150115
0.0144125
0.0138345
0.0132752
0.0127326
0.0122047
0.0116896
0.0111849
0.0106884
0.0101971
0.00970772
0.00921571
0.00871552
0.00819647
0.00764445
0.00703902
0.00634731
0.00548451
0.00425708
0.00252555
0.000849335
5.3869e-05
1.49955e-06
2.85955e-06
1.07802e-05
0.0616171
0.00224835
0.00307454
0.00549767
0.00855466
0.0120587
0.0160846
0.0204679
0.0242775
0.0275682
0.0352917
0.183725
0.0645326
0.0382883
0.0438078
0.0444055
0.044219
0.0434356
0.0422422
0.0407878
0.0391866
0.0375574
0.0363336
0.0350242
0.0358677
0.0350117
0.0294987
0.0293577
0.035491
0.0258519
0.0248002
0.02374
0.0227352
0.0217825
0.0208787
0.0200199
0.0192029
0.0184254
0.0176844
0.016977
0.016301
0.0156537
0.0150329
0.0144361
0.0138605
0.013304
0.0127644
0.0122399
0.0117283
0.0112277
0.0107358
0.0102501
0.00976753
0.00928453
0.00879592
0.00829534
0.00777091
0.00720683
0.00658014
0.00584582
0.00488623
0.0035092
0.00180062
0.000428443
1.45663e-05
1.3226e-06
2.85976e-06
1.07805e-05
0.0616081
0.00223322
0.00304477
0.00545105
0.00853413
0.0121346
0.0161516
0.0207338
0.0256888
0.0299262
0.0336674
0.043188
0.237261
0.0697275
0.0397815
0.0444299
0.0442195
0.0434497
0.0422577
0.0408024
0.0392033
0.0375456
0.0359257
0.0347226
0.033496
0.0342265
0.0333104
0.0282323
0.0282002
0.0336193
0.0247467
0.0237503
0.022747
0.0217953
0.020892
0.020034
0.0192182
0.0184411
0.0177006
0.0169941
0.0163187
0.0156723
0.0150525
0.0144574
0.0138839
0.0133301
0.0127935
0.012272
0.0117639
0.011267
0.0107794
0.0102986
0.00982207
0.00934659
0.00886788
0.00838047
0.00787682
0.0073437
0.00676348
0.00610884
0.00531196
0.00423109
0.00273306
0.0011696
0.000170949
3.88061e-06
1.28805e-06
2.85995e-06
1.07804e-05
0.0615974
0.00221539
0.00300711
0.00539591
0.00845978
0.0121024
0.0162434
0.0208042
0.0259929
0.0315761
0.0362859
0.0405577
0.0522348
0.302909
0.0736717
0.0402573
0.0442477
0.043454
0.0422764
0.0408201
0.0392189
0.0375621
0.0359079
0.0343392
0.0331812
0.032042
0.0326742
0.0317075
0.0270377
0.0271015
0.0318555
0.0237012
0.0227568
0.0218067
0.0209045
0.0200474
0.0192323
0.0184562
0.0177163
0.0170102
0.0163357
0.0156899
0.0150713
0.014477
0.0139054
0.0133537
0.0128198
0.0123014
0.0117964
0.0113032
0.0108194
0.0103433
0.00987209
0.009403
0.0089326
0.00845622
0.00796753
0.00745788
0.0069124
0.00631158
0.00561627
0.00473328
0.00351693
0.00198897
0.000653765
5.24133e-05
1.39049e-06
1.28193e-06
2.86012e-06
1.07804e-05
0.0615864
0.00219536
0.00296272
0.00532635
0.0083729
0.0119945
0.0161954
0.0209081
0.0260594
0.0319103
0.0381697
0.0433726
0.0482314
0.0624292
0.38044
0.0762511
0.0397833
0.0434835
0.0422839
0.0408419
0.0392388
0.0375761
0.0359221
0.0343132
0.0328173
0.0317145
0.0306631
0.0312077
0.0301975
0.0259115
0.0260567
0.030193
0.0227115
0.0218163
0.0209158
0.0200597
0.0192454
0.0184702
0.0177312
0.0170258
0.0163517
0.0157068
0.0150888
0.0144956
0.0139249
0.0133751
0.0128435
0.0123279
0.0118261
0.0113363
0.0108563
0.0103842
0.00991791
0.00945463
0.00899127
0.0085241
0.00804773
0.00755512
0.00703622
0.00647437
0.0058457
0.00509096
0.00409842
0.00276117
0.00133575
0.000293342
1.30025e-05
8.69102e-07
1.28096e-06
2.86025e-06
1.07808e-05
0.0615759
0.00217462
0.00291265
0.00524462
0.00826383
0.0118697
0.0160474
0.020839
0.0261704
0.031963
0.0385212
0.045477
0.0511447
0.056599
0.0736669
0.466927
0.0775381
0.0385192
0.0423119
0.0408506
0.0392608
0.0375956
0.0359345
0.0343236
0.0327838
0.0313662
0.0303241
0.029358
0.0298218
0.0287744
0.02485
0.0250628
0.0286254
0.0217743
0.0209252
0.020071
0.0192578
0.0184832
0.0177451
0.0170407
0.0163672
0.015723
0.0151055
0.0145131
0.0139436
0.0133949
0.0128652
0.012352
0.0118531
0.0113664
0.01089
0.0104219
0.00995993
0.00950186
0.00904484
0.0085854
0.0081193
0.00764058
0.00714111
0.00660936
0.00602676
0.00535661
0.00452036
0.00340358
0.00202351
0.000781485
9.99818e-05
3.0858e-06
7.69796e-07
1.28085e-06
2.86042e-06
1.07813e-05
0.0615669
0.0021548
0.00286101
0.00515246
0.00813599
0.0117138
0.0158781
0.0206431
0.0260711
0.0320708
0.0385468
0.0458286
0.053443
0.0594734
0.065476
0.0857644
0.55679
0.0777428
0.0366674
0.0408776
0.0392689
0.0376177
0.0359519
0.0343341
0.0327898
0.0313251
0.0299884
0.029009
0.028124
0.0285119
0.0274328
0.0238488
0.0241142
0.0271467
0.0208863
0.02008
0.019269
0.0184956
0.0177582
0.0170546
0.0163821
0.0157384
0.0151216
0.0145299
0.0139611
0.0134136
0.0128849
0.0123738
0.0118774
0.0113937
0.0109207
0.0104563
0.00999854
0.00954517
0.00909377
0.00864121
0.00818371
0.00771652
0.00723277
0.00672319
0.00617472
0.00556282
0.00483278
0.00389313
0.0026653
0.0013699
0.00036756
2.57342e-05
9.8665e-07
7.52564e-07
1.28089e-06
2.86054e-06
1.07821e-05
0.0615582
0.00213758
0.00281158
0.0050573
0.00799181
0.0115316
0.0156678
0.0204217
0.0258183
0.0319311
0.0386364
0.0458076
0.0537731
0.0619237
0.0681326
0.0746115
0.0984862
0.643758
0.0771093
0.0346029
0.039294
0.0376266
0.0359735
0.0343503
0.0327981
0.0313263
0.0299401
0.0286832
0.0277665
0.0269579
0.0272737
0.0261678
0.0229042
0.0232075
0.0257511
0.0200438
0.0192777
0.0185068
0.0177703
0.0170674
0.0163958
0.0157531
0.015137
0.0145459
0.0139779
0.0134311
0.0129037
0.0123937
0.0118994
0.0114185
0.0109486
0.0104877
0.0100339
0.00958494
0.00913856
0.00869218
0.00824223
0.00778458
0.00731379
0.00682208
0.00629885
0.00572842
0.00507257
0.00426165
0.00320635
0.00194359
0.000806975
0.000130087
5.57739e-06
5.89957e-07
7.49859e-07
1.28091e-06
2.8608e-06
1.07825e-05
0.0615537
0.00212119
0.00276867
0.00496599
0.00784287
0.0113263
0.0154229
0.0201485
0.0255351
0.0316083
0.0384389
0.0458556
0.0536782
0.0622037
0.0706761
0.0768424
0.0837738
0.112078
0.722958
0.0758846
0.0325204
0.0376482
0.0359826
0.0343703
0.0328132
0.0313321
0.0299363
0.0286277
0.0274492
0.0265939
0.0258557
0.0261018
0.0249749
0.022012
0.0223381
0.0244343
0.0192439
0.0185153
0.0177817
0.0170796
0.0164089
0.0157669
0.0151519
0.0145613
0.0139939
0.013448
0.0129214
0.0124126
0.0119197
0.0114409
0.0109738
0.0105162
0.010066
0.00962131
0.00917969
0.00873872
0.0082955
0.00784621
0.00738612
0.00690908
0.00640615
0.00586536
0.00526251
0.00454428
0.00363261
0.00248231
0.00130282
0.000378407
3.36949e-05
1.31298e-06
5.22005e-07
7.49487e-07
1.28098e-06
2.86095e-06
1.07823e-05
0.0615498
0.00211213
0.00272779
0.00488659
0.00769968
0.011114
0.0151469
0.0198313
0.0251894
0.0312516
0.0380297
0.0455761
0.05365
0.0619986
0.0708706
0.0794021
0.0853639
0.0928402
0.126499
0.791926
0.0742798
0.0305247
0.0360016
0.0343792
0.0328313