# p  FACE_DATA 398
# x  y  z  p
-0.7975 0 0.025 4472.5
-0.79239 0 0.025 3630.19
-0.787056 0 0.025 3021.4
-0.781492 0 0.025 2860.38
-0.775691 0 0.025 2756.04
-0.769649 0 0.025 2728.75
-0.763362 0 0.025 2743.74
-0.756822 0 0.025 2766.86
-0.750025 0 0.025 2783.05
-0.742968 0 0.025 2790.14
-0.735648 0 0.025 2795.77
-0.72806 0 0.025 2797.11
-0.720203 0 0.025 2796.03
-0.712076 0 0.025 2795.68
-0.703677 0 0.025 2792.07
-0.695006 0 0.025 2787.09
-0.686065 0 0.025 2784.5
-0.676855 0 0.025 2785.78
-0.667379 0 0.025 2781.72
-0.65764 0 0.025 2778
-0.647644 0 0.025 2776.97
-0.637397 0 0.025 2771.47
-0.626906 0 0.025 2771.48
-0.616179 0 0.025 2769.23
-0.605224 0 0.025 2767.47
-0.594054 0 0.025 2764.5
-0.582678 0 0.025 2763.66
-0.57111 0 0.025 2761.03
-0.559364 0 0.025 2759.75
-0.547454 0 0.025 2756.93
-0.535396 0 0.025 2756.05
-0.523205 0 0.025 2753.68
-0.510901 0 0.025 2750.55
-0.4985 0 0.025 2751.42
-0.486021 0 0.025 2751.32
-0.473483 0 0.025 2749.24
-0.460905 0 0.025 2747.29
-0.448308 0 0.025 2745.44
-0.435709 0 0.025 2743.65
-0.42313 0 0.025 2744.82
-0.41059 0 0.025 2744.5
-0.39811 0 0.025 2741.84
-0.385706 0 0.025 2739.29
-0.373398 0 0.025 2738.52
-0.361205 0 0.025 2739.71
-0.349141 0 0.025 2740.5
-0.337226 0 0.025 2740.64
-0.325475 0 0.025 2738.48
-0.313901 0 0.025 2735.46
-0.30252 0 0.025 2732.27
-0.291343 0 0.025 2730.07
-0.280382 0 0.025 2729.12
-0.269646 0 0.025 2730.95
-0.259148 0 0.025 2734.11
-0.248893 0 0.025 2736.54
-0.23889 0 0.025 2737.4
-0.229143 0 0.025 2737.51
-0.219659 0 0.025 2735.11
-0.210441 0 0.025 2731.42
-0.201491 0 0.025 2727.35
-0.192812 0 0.025 2723.89
-0.184405 0 0.025 2721.01
-0.176269 0 0.025 2719.34
-0.168404 0 0.025 2718.69
-0.160808 0 0.025 2719.21
-0.15348 0 0.025 2720.73
-0.146415 0 0.025 2722.98
-0.13961 0 0.025 2725.41
-0.133063 0 0.025 2728.07
-0.126767 0 0.025 2730.29
-0.120718 0 0.025 2732.01
-0.11491 0 0.025 2733.04
-0.109339 0 0.025 2733.6
-0.103997 0 0.025 2733.71
-0.0988805 0 0.025 2733.3
-0.0939808 0 0.025 2732.49
-0.0892928 0 0.025 2731.36
-0.0848096 0 0.025 2729.9
-0.0805248 0 0.025 2728.23
-0.0764316 0 0.025 2726.4
-0.0725237 0 0.025 2724.48
-0.0687943 0 0.025 2722.51
-0.065237 0 0.025 2720.59
-0.0618454 0 0.025 2718.85
-0.058613 0 0.025 2717.29
-0.0555337 0 0.025 2715.94
-0.0526013 0 0.025 2714.77
-0.0498099 0 0.025 2713.79
-0.0471536 0 0.025 2712.91
-0.0446266 0 0.025 2712.11
-0.0422235 0 0.025 2711.45
-0.039939 0 0.025 2711.52
-0.0377676 0 0.025 2745.38
-0.0357044 0 0.025 3003.07
-0.0337445 0 0.025 3658.56
-0.0318832 0 0.025 4404
-0.0301159 0 0.025 5069.27
-0.0284383 0 0.025 5622.22
-0.0268461 0 0.025 6104.63
-0.0253353 0 0.025 6528.07
-0.023902 0 0.025 6918.45
-0.0225426 0 0.025 7280.97
-0.0212532 0 0.025 7617.73
-0.0200306 0 0.025 7927
-0.0188715 0 0.025 8208.52
-0.0177728 0 0.025 8466.42
-0.0167313 0 0.025 8703.23
-0.0157444 0 0.025 8921.44
-0.0148092 0 0.025 9125.49
-0.0139232 0 0.025 9316.83
-0.0130838 0 0.025 9496.07
-0.0122887 0 0.025 9663.78
-0.0115356 0 0.025 9819.88
-0.0108223 0 0.025 9965.36
-0.0101469 0 0.025 10100.7
-0.00950727 0 0.025 10226.2
-0.00890168 0 0.025 10342.5
-0.00832835 0 0.025 10449.7
-0.00778557 0 0.025 10548.3
-0.00727176 0 0.025 10638.9
-0.0067854 0 0.025 10722.2
-0.00632507 0 0.025 10798.9
-0.00588937 0 0.025 10870.1
-0.00547703 0 0.025 10937.1
-0.0050868 0 0.025 11001.1
-0.00471753 0 0.025 11063.2
-0.0043681 0 0.025 11124.7
-0.00403746 0 0.025 11188
-0.00372461 0 0.025 11253.4
-0.0034286 0 0.025 11322.1
-0.00314855 0 0.025 11394.5
-0.0028836 0 0.025 11472.8
-0.00263294 0 0.025 11560.9
-0.00239581 0 0.025 11651.6
-0.0021715 0 0.025 11748
-0.00195929 0 0.025 11850.8
-0.00175856 0 0.025 11959.9
-0.00156869 0 0.025 12074.2
-0.00138908 0 0.025 12193.2
-0.0012192 0 0.025 12315.8
-0.00105853 0 0.025 12440.7
-0.000906546 0 0.025 12565.8
-0.000762803 0 0.025 12687.9
-0.000626848 0 0.025 12801.8
-0.000498265 0 0.025 12899.4
-0.000376656 0 0.025 12970.2
-0.000261642 0 0.025 13004.8
-0.00015287 0 0.025 13012.3
-5e-05 0 0.025 13091.1
4.14519e-05 2.79596e-05 0.025 12684.4
0.000125371 8.45641e-05 0.025 12771.1
0.000211347 0.000142556 0.025 12743.5
0.000299429 0.000201968 0.025 12677.9
0.000389669 0.000262835 0.025 12599.3
0.000482118 0.000325193 0.025 12518.3
0.000576831 0.000389077 0.025 12441.2
0.000673861 0.000454524 0.025 12372
0.000773265 0.000521574 0.025 12314.7
0.0008751 0.000590262 0.025 12272.6
0.000979426 0.000660632 0.025 12245.2
0.0010863 0.000732721 0.025 12234.8
0.00119579 0.000806572 0.025 12241.8
0.00130795 0.000882227 0.025 12263.9
0.00142285 0.00095973 0.025 12300
0.00154056 0.00103912 0.025 12349.7
0.00166115 0.00112046 0.025 12411.9
0.00178467 0.00120378 0.025 12486.1
0.00191121 0.00128913 0.025 12571.1
0.00204083 0.00137656 0.025 12668.4
0.00217362 0.00146612 0.025 12774.8
0.00230964 0.00155787 0.025 12891.4
0.00244897 0.00165185 0.025 13018.1
0.00259169 0.00174812 0.025 13154.6
0.00273789 0.00184673 0.025 13301.2
0.00288765 0.00194774 0.025 13457.3
0.00304105 0.00205122 0.025 13623.6
0.00319818 0.00215719 0.025 13800.2
0.00335912 0.00226575 0.025 13987.1
0.00352397 0.00237695 0.025 14185
0.00369283 0.00249085 0.025 14394.5
0.00386579 0.00260751 0.025 14616
0.00404294 0.00272699 0.025 14850.2
0.00422438 0.00284938 0.025 15097.8
0.00441022 0.00297474 0.025 15360
0.00460056 0.00310312 0.025 15637.6
0.00479552 0.00323462 0.025 15932
0.00499519 0.0033693 0.025 16243.9
0.00519968 0.00350723 0.025 16575.4
0.00540911 0.00364849 0.025 16927.4
0.00562361 0.00379318 0.025 17302
0.00584329 0.00394134 0.025 17701.1
0.00606826 0.00409309 0.025 18126.4
0.00629865 0.00424849 0.025 18580.2
0.0065346 0.00440764 0.025 19065.4
0.00677623 0.00457063 0.025 19583.9
0.00702368 0.00473753 0.025 20139.3
0.00727707 0.00490844 0.025 20734.3
0.00753655 0.00508347 0.025 21372.2
0.00780227 0.00526269 0.025 22056.8
0.00807436 0.00544622 0.025 22791.6
0.00835298 0.00563415 0.025 23581.8
0.00863826 0.00582659 0.025 24431.3
0.00893038 0.00602362 0.025 25346.8
0.00922949 0.00622537 0.025 26334
0.00953574 0.00643195 0.025 27399.6
0.00984929 0.00664345 0.025 28552.4
0.0101703 0.00686 0.025 29802.6
0.0104991 0.00708171 0.025 31159.8
0.0108356 0.00730871 0.025 32628.8
0.0111801 0.0075411 0.025 34233.2
0.0115329 0.00777902 0.025 35984.6
0.011894 0.00802259 0.025 37900.5
0.0122637 0.00827194 0.025 39999.9
0.0126421 0.00852719 0.025 42302.8
0.0130295 0.0087885 0.025 44825
0.013426 0.00905597 0.025 47586.9
0.013832 0.00932978 0.025 50610.4
0.0142475 0.00961003 0.025 53919.1
0.0146727 0.0098969 0.025 57532.5
0.0151081 0.0101905 0.025 61488.4
0.0155536 0.010491 0.025 65803.3
0.0160097 0.0107986 0.025 70527.6
0.0164764 0.0111134 0.025 75669.5
0.016954 0.0114356 0.025 81302.6
0.0174427 0.0117653 0.025 87430.4
0.0179429 0.0121026 0.025 94158
0.0184548 0.0124479 0.025 101486
0.0189786 0.0128013 0.025 109344
0.0195146 0.0131628 0.025 117824
0.020063 0.0135327 0.025 126875
0.0206242 0.0139112 0.025 136402
0.0211983 0.0142984 0.025 146495
0.0217857 0.0146947 0.025 157225
0.0223867 0.0151 0.025 168733
0.0230015 0.0155147 0.025 180262
0.0236304 0.0159389 0.025 190336
0.0242738 0.0163729 0.025 195596
0.0249318 0.0168167 0.025 197523
0.025605 0.0172708 0.025 190449
0.0262935 0.0177352 0.025 182971
0.0269977 0.0182102 0.025 174643
0.0277178 0.0186959 0.025 165897
0.0284544 0.0191927 0.025 157709
0.0292075 0.0197008 0.025 150480
0.0299777 0.0202203 0.025 144489
0.0307653 0.0207514 0.025 139422
0.0315704 0.0212945 0.025 135049
0.0323937 0.0218499 0.025 131368
0.0332354 0.0224176 0.025 128491
0.0340959 0.022998 0.025 126567
0.0349755 0.0235913 0.025 125252
0.0358747 0.0241978 0.025 124186
0.0367938 0.0248178 0.025 123127
0.0377331 0.0254513 0.025 122417
0.0386932 0.0260989 0.025 122249
0.0396743 0.0267606 0.025 122664
0.0406769 0.0274369 0.025 122738
0.0417013 0.0281279 0.025 122712
0.042748 0.0288339 0.025 122934
0.0438175 0.0295552 0.025 123260
0.04491 0.0302922 0.025 123468
0.0460262 0.031045 0.025 123747
0.0471662 0.031814 0.025 124191
0.0483306 0.0325995 0.025 124775
0.0495199 0.0334016 0.025 125099
0.0507344 0.0342208 0.025 125123
0.0519746 0.0350573 0.025 124937
0.0532409 0.0359114 0.025 125156
0.0545339 0.0367835 0.025 125741
0.0558538 0.0376739 0.025 126575
0.0572012 0.0385827 0.025 126725
0.0585766 0.0395104 0.025 126612
0.0599804 0.0404573 0.025 126290
0.061413 0.0414236 0.025 126205
0.0628748 0.0424096 0.025 126693
0.0643665 0.0434157 0.025 127315
0.0658883 0.0444422 0.025 127466
0.0674408 0.0454894 0.025 127177
0.0690245 0.0465576 0.025 126670
0.0706398 0.0476471 0.025 126224
0.0722871 0.0487582 0.025 125945
0.0739669 0.0498912 0.025 126208
0.0756797 0.0510466 0.025 126586
0.0774258 0.0522244 0.025 126864
0.0792059 0.053425 0.025 126983
0.0810203 0.0546489 0.025 127108
0.0828694 0.0558961 0.025 127221
0.0847537 0.0571671 0.025 127420
0.0866737 0.0584622 0.025 127603
0.0886298 0.0597816 0.025 127646
0.0906224 0.0611256 0.025 127440
0.0926518 0.0624944 0.025 126919
0.0947185 0.0638884 0.025 126480
0.096823 0.065308 0.025 126068
0.0989659 0.0667532 0.025 126315
0.101147 0.0682245 0.025 126787
0.103367 0.0697219 0.025 127714
0.105626 0.0712458 0.025 128453
0.107926 0.0727965 0.025 128640
0.110265 0.074374 0.025 128625
0.112644 0.0759789 0.025 127768
0.115063 0.0776111 0.025 127174
0.117524 0.0792709 0.025 126146
0.120026 0.0809585 0.025 125414
0.122569 0.0826741 0.025 125481
0.125155 0.0844179 0.025 126361
0.127782 0.0861901 0.025 127328
0.130451 0.0879908 0.025 127717
0.133163 0.08982 0.025 127855
0.135918 0.0916781 0.025 127477
0.138716 0.0935651 0.025 127074
0.141556 0.095481 0.025 126788
0.14444 0.097426 0.025 126693
0.147367 0.0994004 0.025 126597
0.150337 0.101404 0.025 127668
0.153351 0.103437 0.025 127676
0.156408 0.105498 0.025 126838
0.159508 0.107589 0.025 127156
0.162651 0.10971 0.025 126133
0.165838 0.111859 0.025 123902
0.169069 0.114039 0.025 124172
0.172343 0.116247 0.025 123745
0.175659 0.118483 0.025 123227
0.179018 0.120749 0.025 122788
0.182421 0.123045 0.025 122538
0.185866 0.125368 0.025 122773
0.189353 0.12772 0.025 123004
0.192882 0.1301 0.025 122910
0.196453 0.132509 0.025 122766
0.200065 0.134946 0.025 121980
0.203718 0.13741 0.025 121549
0.207412 0.139901 0.025 121564
0.211146 0.14242 0.025 120918
0.214919 0.144965 0.025 120522
0.218732 0.147537 0.025 121049
0.222583 0.150134 0.025 120652
0.226472 0.152757 0.025 121356
0.230399 0.155406 0.025 120896
0.234362 0.15808 0.025 120703
0.238362 0.160777 0.025 120133
0.242396 0.163498 0.025 120368
0.246466 0.166244 0.025 120438
0.250569 0.169012 0.025 121533
0.254706 0.171801 0.025 120882
0.258874 0.174613 0.025 120821
0.263074 0.177446 0.025 120460
0.267304 0.180299 0.025 120961
0.271564 0.183172 0.025 121170
0.275852 0.186064 0.025 120624
0.280168 0.188975 0.025 120928
0.28451 0.191904 0.025 120642
0.288876 0.19485 0.025 120336
0.293268 0.197812 0.025 121214
0.297683 0.20079 0.025 120736
0.302119 0.203782 0.025 120732
0.306577 0.206788 0.025 121399
0.311054 0.209808 0.025 120959
0.315549 0.212841 0.025 121271
0.320063 0.215885 0.025 120371
0.324591 0.218939 0.025 120675
0.329134 0.222003 0.025 120631
0.333691 0.225077 0.025 120163
0.33826 0.228159 0.025 120741
0.342839 0.231248 0.025 120789
0.347428 0.234343 0.025 121655
0.352025 0.237444 0.025 120816
0.356628 0.240548 0.025 121185
0.361237 0.243658 0.025 121332
0.36585 0.246769 0.025 120437
0.370465 0.249882 0.025 121577
0.375082 0.252996 0.025 120855
0.379698 0.25611 0.025 120437
0.384313 0.259223 0.025 121160
0.388926 0.262333 0.025 120540
0.393534 0.265442 0.025 120834
0.398136 0.268546 0.025 120989
0.40273 0.271645 0.025 120446
0.407317 0.274739 0.025 120365
0.411894 0.277826 0.025 120040
0.41646 0.280906 0.025 121146
0.421014 0.283977 0.025 120524
0.425554 0.28704 0.025 120385
0.430079 0.290092 0.025 120769
0.434588 0.293133 0.025 120685
0.439079 0.296162 0.025 121285
0.443551 0.299179 0.025 121005
0.448004 0.302183 0.025 120892
0.452437 0.305172 0.025 121000
0.456846 0.308146 0.025 121233
0.461232 0.311105 0.025 121195
0.465593 0.314047 0.025 121313
0.469929 0.316971 0.025 121037
0.474238 0.319878 0.025 121938
0.47852 0.322766 0.025 121598
0.482773 0.325635 0.025 121660
0.486996 0.328483 0.025 121202
0.491189 0.331311 0.025 120670
0.49535 0.334118 0.025 121642
