# p  FACE_DATA 80
# x  y  z  p
-0.275972 0 0.05 671.719
-0.22368 0 0.05 671.719
-0.181118 0 0.05 671.719
-0.146477 0 0.05 671.719
-0.118282 0 0.05 671.719
-0.095333 0 0.05 671.719
-0.0766546 0 0.05 671.718
-0.061452 0 0.05 671.718
-0.0490783 0 0.05 671.718
-0.0390072 0 0.05 671.717
-0.0308101 0 0.05 671.717
-0.0241383 0 0.05 671.717
-0.0187081 0 0.05 671.718
-0.0142883 0 0.05 671.718
-0.0106909 0 0.05 671.718
-0.00776298 0 0.05 671.719
-0.00537988 0 0.05 671.719
-0.00344023 0 0.05 671.72
-0.00186151 0 0.05 671.721
-0.000576564 0 0.05 669.996
0.000597823 0 0.05 1192.19
0.00183445 0 0.05 1019.91
0.00315586 0 0.05 889.243
0.00456785 0 0.05 847.148
0.00607663 0 0.05 807.53
0.00768885 0 0.05 784.576
0.00941159 0 0.05 769.397
0.0112524 0 0.05 757.989
0.0132195 0 0.05 749.836
0.0153213 0 0.05 742.582
0.0175673 0 0.05 737.032
0.0199673 0 0.05 731.754
0.0225317 0 0.05 727.589
0.025272 0 0.05 723.288
0.0282001 0 0.05 719.754
0.031329 0 0.05 715.838
0.0346723 0 0.05 712.388
0.0382448 0 0.05 708.528
0.0420623 0 0.05 704.962
0.0461414 0 0.05 701.736
0.0505002 0 0.05 699.051
0.0551578 0 0.05 697.298
0.0601347 0 0.05 695.942
0.0654528 0 0.05 695.696
0.0711354 0 0.05 695.932
0.0772076 0 0.05 696.522
0.0836961 0 0.05 697.297
0.0906293 0 0.05 698.148
0.0980379 0 0.05 698.978
0.105954 0 0.05 699.674
0.114413 0 0.05 700.075
0.123453 0 0.05 700.309
0.133111 0 0.05 700.383
0.143432 0 0.05 700.327
0.15446 0 0.05 700.149
0.166245 0 0.05 699.825
0.178837 0 0.05 699.382
0.192293 0 0.05 698.894
0.20667 0 0.05 698.446
0.222034 0 0.05 698.033
0.238451 0 0.05 697.599
0.255993 0 0.05 697.111
0.274738 0 0.05 696.563
0.294767 0 0.05 695.94
0.31617 0 0.05 695.239
0.33904 0 0.05 694.543
0.363478 0 0.05 693.931
0.389591 0 0.05 693.381
0.417495 0 0.05 692.863
0.447311 0 0.05 692.4
0.479171 0 0.05 691.972
0.513216 0 0.05 691.582
0.549594 0 0.05 691.192
0.588466 0 0.05 690.771
0.630002 0 0.05 690.301
0.674387 0 0.05 689.751
0.721814 0 0.05 689.256
0.772492 0 0.05 688.821
0.826644 0 0.05 688.848
0.884509 0 0.05 686.973
