# wallShearStress  FACE_DATA 80
# x  y  z  wallShearStress_x  wallShearStress_y  wallShearStress_z
-0.275972 0 0.05 1.25915e-09 -8.12396e-07 0
-0.22368 0 0.05 3.65329e-09 1.05027e-05 0
-0.181118 0 0.05 4.9601e-09 2.45337e-05 0
-0.146477 0 0.05 5.56354e-09 3.87958e-05 0
-0.118282 0 0.05 7.359e-09 5.06339e-05 0
-0.095333 0 0.05 6.6743e-09 6.62405e-05 0
-0.0766546 0 0.05 3.66862e-09 7.21713e-05 0
-0.061452 0 0.05 -2.35456e-09 7.56803e-05 0
-0.0490783 0 0.05 -1.40396e-08 6.84696e-05 0
-0.0390072 0 0.05 -2.4908e-08 5.32047e-05 0
-0.0308101 0 0.05 -4.2788e-08 3.51118e-05 0
-0.0241383 0 0.05 -6.67067e-08 7.16939e-06 0
-0.0187081 0 0.05 -8.26013e-08 -2.423e-05 0
-0.0142883 0 0.05 -9.07305e-08 -5.3241e-05 0
-0.0106909 0 0.05 -8.68032e-08 -7.84128e-05 0
-0.00776298 0 0.05 -6.37966e-08 -9.59128e-05 0
-0.00537988 0 0.05 -4.66625e-08 -0.000104393 0
-0.00344023 0 0.05 -1.32293e-07 -0.000113562 0
-0.00186151 0 0.05 -0.000427835 -0.000256036 0
-0.000576564 0 0.05 -0.036716 -0.521275 0
0.000597823 0 0.05 -261.679 -26.0389 0
0.00183445 0 0.05 -90.9518 -2.84683 0
0.00315586 0 0.05 -55.2614 -0.564586 0
0.00456785 0 0.05 -41.453 -0.213032 0
0.00607663 0 0.05 -34.2703 -0.151285 0
0.00768885 0 0.05 -29.2062 -0.103384 0
0.00941159 0 0.05 -25.6835 -0.0818742 0
0.0112524 0 0.05 -23.0396 -0.0751561 0
0.0132195 0 0.05 -20.9692 -0.072272 0
0.0153213 0 0.05 -19.2843 -0.075016 0
0.0175673 0 0.05 -17.8657 -0.0769371 0
0.0199673 0 0.05 -16.6537 -0.0810681 0
0.0225317 0 0.05 -15.6011 -0.0856934 0
0.025272 0 0.05 -14.6845 -0.093633 0
0.0282001 0 0.05 -13.8829 -0.102473 0
0.031329 0 0.05 -13.1956 -0.113752 0
0.0346723 0 0.05 -12.6136 -0.124299 0
0.0382448 0 0.05 -12.1485 -0.136747 0
0.0420623 0 0.05 -11.7944 -0.14564 0
0.0461414 0 0.05 -11.5723 -0.147951 0
0.0505002 0 0.05 -11.4923 -0.148619 0
0.0551578 0 0.05 -11.5749 -0.124462 0
0.0601347 0 0.05 -11.6715 -0.113342 0
0.0654528 0 0.05 -11.8603 -0.0995489 0
0.0711354 0 0.05 -12.0907 -0.0836222 0
0.0772076 0 0.05 -12.3014 -0.0751838 0
0.0836961 0 0.05 -12.4886 -0.0698025 0
0.0906293 0 0.05 -12.6179 -0.0671936 0
0.0980379 0 0.05 -12.6882 -0.0684938 0
0.105954 0 0.05 -12.6866 -0.0718167 0
0.114413 0 0.05 -12.6279 -0.0787841 0
0.123453 0 0.05 -12.5353 -0.0837704 0
0.133111 0 0.05 -12.3968 -0.0890418 0
0.143432 0 0.05 -12.2235 -0.0934539 0
0.15446 0 0.05 -12.0273 -0.0978857 0
0.166245 0 0.05 -11.8187 -0.1009 0
0.178837 0 0.05 -11.6015 -0.103221 0
0.192293 0 0.05 -11.3773 -0.104813 0
0.20667 0 0.05 -11.1467 -0.106185 0
0.222034 0 0.05 -10.9042 -0.108125 0
0.238451 0 0.05 -10.6449 -0.10965 0
0.255993 0 0.05 -10.3652 -0.109292 0
0.274738 0 0.05 -10.0645 -0.107097 0
0.294767 0 0.05 -9.74611 -0.104822 0
0.31617 0 0.05 -9.41726 -0.103339 0
0.33904 0 0.05 -9.09142 -0.102054 0
0.363478 0 0.05 -8.78027 -0.100976 0
0.389591 0 0.05 -8.48885 -0.0999115 0
0.417495 0 0.05 -8.21017 -0.0999191 0
0.447311 0 0.05 -7.94185 -0.0994953 0
0.479171 0 0.05 -7.6848 -0.0964898 0
0.513216 0 0.05 -7.42931 -0.093026 0
0.549594 0 0.05 -7.17938 -0.0880608 0
0.588466 0 0.05 -6.9347 -0.0832754 0
0.630002 0 0.05 -6.69504 -0.0790635 0
0.674387 0 0.05 -6.46213 -0.0741132 0
0.721814 0 0.05 -6.23049 -0.07024 0
0.772492 0 0.05 -5.98763 -0.068278 0
0.826644 0 0.05 -5.72959 -0.0656101 0
0.884509 0 0.05 -5.46249 -0.0590542 0
