# Wall heat-flux
# Time        	patch         	min           	max           	integral      
1200          	base	-2.288503e+06	-3.313865e+04	-7.587213e+03
