# p  FACE_DATA 276
# x  y  z  p
-1.89807 0 0.0105 22116.8
-1.81671 0 0.0105 22006.4
-1.74016 0 0.0105 22064.4
-1.66815 0 0.0105 22101.9
-1.6004 0 0.0105 22103.5
-1.53666 0 0.0105 22099.9
-1.47668 0 0.0105 22095.9
-1.42024 0 0.0105 22091.8
-1.36711 0 0.0105 22087.5
-1.31712 0 0.0105 22084.2
-1.27005 0 0.0105 22082
-1.22575 0 0.0105 22079.6
-1.18403 0 0.0105 22077.4
-1.14475 0 0.0105 22074.9
-1.10775 0 0.0105 22072.9
-1.07289 0 0.0105 22071.7
-1.04005 0 0.0105 22070.6
-1.0091 0 0.0105 22069.3
-0.979914 0 0.0105 22068.1
-0.952392 0 0.0105 22067.5
-0.926429 0 0.0105 22067.4
-0.901924 0 0.0105 22068.2
-0.878785 0 0.0105 22069.7
-0.856927 0 0.0105 22071.8
-0.836265 0 0.0105 22074.9
-0.816722 0 0.0105 22079.3
-0.798224 0 0.0105 22085.1
-0.780701 0 0.0105 22092.6
-0.764088 0 0.0105 22101.6
-0.74832 0 0.0105 22112
-0.733339 0 0.0105 22123.8
-0.719089 0 0.0105 22137.1
-0.705515 0 0.0105 22151.6
-0.692565 0 0.0105 22167.3
-0.680192 0 0.0105 22183.9
-0.668349 0 0.0105 22201.3
-0.65699 0 0.0105 22219.4
-0.646073 0 0.0105 22238
-0.635557 0 0.0105 22256.9
-0.6254 0 0.0105 22276
-0.615568 0 0.0105 22295.2
-0.60602 0 0.0105 22314.3
-0.596721 0 0.0105 22333.3
-0.587638 0 0.0105 22352.2
-0.578734 0 0.0105 22370.9
-0.569975 0 0.0105 22389.2
-0.56133 0 0.0105 22407.1
-0.552766 0 0.0105 22424.5
-0.54425 0 0.0105 22441.5
-0.535841 0 0.0105 22457.8
-0.527746 0 0.0105 22473
-0.52008 0 0.0105 22487.1
-0.512816 0 0.0105 22500.1
-0.50593 0 0.0105 22511.9
-0.499397 0 0.0105 22522.5
-0.493195 0 0.0105 22532.1
-0.487302 0 0.0105 22540.7
-0.481698 0 0.0105 22548.6
-0.476362 0 0.0105 22555.8
-0.471278 0 0.0105 22562.4
-0.466428 0 0.0105 22568.6
-0.461793 0 0.0105 22574.4
-0.457359 0 0.0105 22579.8
-0.45311 0 0.0105 22585
-0.449029 0 0.0105 22589.7
-0.445105 0 0.0105 22594
-0.441325 0 0.0105 22597.8
-0.437672 0 0.0105 22601.1
-0.434136 0 0.0105 22604.2
-0.430704 0 0.0105 22607.1
-0.427365 0 0.0105 22609.8
-0.424106 0 0.0105 22612.3
-0.420917 0 0.0105 22614.8
-0.417786 0 0.0105 22617.2
-0.414702 0 0.0105 22619.4
-0.411656 0 0.0105 22621.5
-0.408635 0 0.0105 22622.8
-0.405629 0 0.0105 22625.1
-0.402629 0 0.0105 22627.8
-0.399629 0 0.0105 22629.7
-0.396628 0 0.0105 22631.3
-0.393628 0 0.0105 22632.8
-0.390626 0 0.0105 22634.2
-0.387625 0 0.0105 22635.5
-0.384621 0 0.0105 22636.5
-0.381618 0 0.0105 22637.5
-0.378613 0 0.0105 22638.5
-0.375606 0 0.0105 22639.7
-0.372597 0 0.0105 22641
-0.369588 0 0.0105 22642.6
-0.366577 0 0.0105 22644.2
-0.363563 0 0.0105 22645.7
-0.360546 0 0.0105 22647
-0.357529 0 0.0105 22648.1
-0.354508 0 0.0105 22649
-0.351485 0 0.0105 22649.7
-0.348458 0 0.0105 22650.3
-0.345429 0 0.0105 22651
-0.342397 0 0.0105 22651.6
-0.339361 0 0.0105 22652.2
-0.336321 0 0.0105 22652.9
-0.333279 0 0.0105 22653.6
-0.330233 0 0.0105 22654.2
-0.327182 0 0.0105 22654.8
-0.324126 0 0.0105 22655.4
-0.321068 0 0.0105 22655.8
-0.318004 0 0.0105 22656.2
-0.314936 0 0.0105 22656.6
-0.311863 0 0.0105 22656.9
-0.308785 0 0.0105 22657.1
-0.305702 0 0.0105 22657.4
-0.302614 0 0.0105 22657.6
-0.299519 0 0.0105 22657.8
-0.29642 0 0.0105 22657.9
-0.293315 0 0.0105 22658
-0.290203 0 0.0105 22658.1
-0.287086 0 0.0105 22658.2
-0.283963 0 0.0105 22658.3
-0.280832 0 0.0105 22658.5
-0.277695 0 0.0105 22658.7
-0.274551 0 0.0105 22659
-0.271401 0 0.0105 22659.2
-0.268244 0 0.0105 22659.4
-0.265079 0 0.0105 22659.4
-0.261906 0 0.0105 22659.4
-0.258725 0 0.0105 22659.3
-0.255537 0 0.0105 22659.1
-0.252341 0 0.0105 22659
-0.249137 0 0.0105 22659
-0.245924 0 0.0105 22658.9
-0.242703 0 0.0105 22658.7
-0.239474 0 0.0105 22658.6
-0.236236 0 0.0105 22658.3
-0.232987 0 0.0105 22658.1
-0.22973 0 0.0105 22657.8
-0.226464 0 0.0105 22657.5
-0.223189 0 0.0105 22657.1
-0.219903 0 0.0105 22656.8
-0.216607 0 0.0105 22656.4
-0.213302 0 0.0105 22656
-0.209985 0 0.0105 22655.6
-0.20666 0 0.0105 22655.2
-0.203323 0 0.0105 22654.8
-0.199974 0 0.0105 22654.4
-0.196616 0 0.0105 22654
-0.193246 0 0.0105 22653.5
-0.189864 0 0.0105 22653.1
-0.186472 0 0.0105 22652.7
-0.183068 0 0.0105 22652.4
-0.179651 0 0.0105 22652
-0.176222 0 0.0105 22651.6
-0.172781 0 0.0105 22651.2
-0.169328 0 0.0105 22650.8
-0.165862 0 0.0105 22650.3
-0.162383 0 0.0105 22649.8
-0.158892 0 0.0105 22649.3
-0.155387 0 0.0105 22649.4
-0.151868 0 0.0105 22646.7
-0.148337 0 0.0105 22649.8
-0.14479 0 0.0105 22647
-0.141231 0 0.0105 23280.3
-0.137658 0 0.0105 31177.1
-0.134069 0 0.0105 41007.4
-0.130466 0 0.0105 43862.3
-0.126849 0 0.0105 45553.1
-0.123216 0 0.0105 46460.7
-0.119568 0 0.0105 47237
-0.115906 0 0.0105 47829
-0.112228 0 0.0105 48336.4
-0.108534 0 0.0105 48822.8
-0.104824 0 0.0105 49256.8
-0.101098 0 0.0105 49670
-0.097355 0 0.0105 50057.8
-0.0935961 0 0.0105 50430.9
-0.0898204 0 0.0105 50791.4
-0.0860278 0 0.0105 51132.1
-0.0822181 0 0.0105 51451.7
-0.0783911 0 0.0105 51755.9
-0.0745465 0 0.0105 52042.8
-0.0706841 0 0.0105 52314.4
-0.0668039 0 0.0105 52568.1
-0.0629054 0 0.0105 52791.8
-0.0589886 0 0.0105 52969.8
-0.0550531 0 0.0105 53082.3
-0.0510989 0 0.0105 53115.3
-0.0471257 0 0.0105 53060.6
-0.0431332 0 0.0105 52946.3
-0.0391214 0 0.0105 52874.7
-0.0350898 0 0.0105 53187.7
-0.0310384 0 0.0105 53968
-0.0269669 0 0.0105 54676.1
-0.0228751 0 0.0105 55618.4
-0.0187628 0 0.0105 56722.7
-0.0146297 0 0.0105 57958.7
-0.0104756 0 0.0105 59322.5
-0.00630039 0 0.0105 60801.4
-0.00210372 0 0.0105 62365.8
0.00158228 0 0.0105 63883
0.00474683 0 0.0105 65213.1
0.00791139 0 0.0105 66626.4
0.0110759 0 0.0105 68091.8
0.0142405 0 0.0105 69601.3
0.017405 0 0.0105 71142.1
0.0205696 0 0.0105 72706.5
0.0237342 0 0.0105 74286.1
0.0268988 0 0.0105 75872
0.0300633 0 0.0105 77456
0.0332279 0 0.0105 79031.4
0.0363924 0 0.0105 80590.8
0.039557 0 0.0105 82129.3
0.0427215 0 0.0105 83646.3
0.0458861 0 0.0105 85138.7
0.0490507 0 0.0105 86601.5
0.0522152 0 0.0105 88027.7
0.0553798 0 0.0105 89407.4
0.0585443 0 0.0105 90732.1
0.0617089 0 0.0105 92000.9
0.0648734 0 0.0105 93211.6
0.068038 0 0.0105 94367.2
0.0712026 0 0.0105 95474.1
0.0743671 0 0.0105 96539.2
0.0775317 0 0.0105 97566.4
0.0806962 0 0.0105 98554.1
0.0838607 0 0.0105 99499.2
0.0870253 0 0.0105 100397
0.0901899 0 0.0105 101241
0.0933545 0 0.0105 102025
0.096519 0 0.0105 102745
0.0996836 0 0.0105 103400
0.102848 0 0.0105 103998
0.106012 0 0.0105 104554
0.109177 0 0.0105 105087
0.112341 0 0.0105 105617
0.115506 0 0.0105 106160
0.118671 0 0.0105 106727
0.121835 0 0.0105 107320
0.125 0 0.0105 107933
0.128164 0 0.0105 108553
0.131329 0 0.0105 109159
0.134493 0 0.0105 109730
0.137658 0 0.0105 110246
0.140823 0 0.0105 110689
0.143987 0 0.0105 111056
0.147152 0 0.0105 111347
0.150316 0 0.0105 111555
0.153481 0 0.0105 111691
0.156645 0 0.0105 111656
0.15981 0 0.0105 111160
0.162975 0 0.0105 111024
0.166139 0 0.0105 110854
0.169304 0 0.0105 110140
0.172468 0 0.0105 109704
0.175633 0 0.0105 108921
0.178797 0 0.0105 107916
0.181962 0 0.0105 106776
0.185126 0 0.0105 105488
0.188291 0 0.0105 104070
0.191455 0 0.0105 102543
0.19462 0 0.0105 100928
0.197785 0 0.0105 99246.7
0.20095 0 0.0105 97518.7
0.204114 0 0.0105 95759.8
0.207278 0 0.0105 93985.6
0.210443 0 0.0105 92207.7
0.213607 0 0.0105 90435.9
0.216772 0 0.0105 88678
0.219936 0 0.0105 86938.7
0.223101 0 0.0105 85220.8
0.226266 0 0.0105 83527
0.22943 0 0.0105 81858.3
0.232595 0 0.0105 80216.4
0.235759 0 0.0105 78600.9
0.238924 0 0.0105 77018.9
0.242088 0 0.0105 75442.7
0.245253 0 0.0105 73997.6
0.248417 0 0.0105 71797.5
