# wallShearStress  FACE_DATA 276
# x  y  z  wallShearStress_x  wallShearStress_y  wallShearStress_z
-1.89807 0 0.0105 -147.478 -0.535386 6.65373e-17
-1.81671 0 0.0105 -114.426 -0.00252023 -1.52529e-17
-1.74016 0 0.0105 -171.716 0.000470372 2.53347e-19
-1.66815 0 0.0105 -180.85 0.00240112 3.20439e-20
-1.6004 0 0.0105 -180.347 0.00249685 0
-1.53666 0 0.0105 -178.275 0.0021034 -3.20439e-20
-1.47668 0 0.0105 -175.931 0.00179785 -4.80658e-20
-1.42024 0 0.0105 -173.731 0.00170382 -8.01096e-21
-1.36711 0 0.0105 -171.766 0.00157556 0
-1.31712 0 0.0105 -170.031 0.00149389 0
-1.27005 0 0.0105 -168.491 0.00144763 0
-1.22575 0 0.0105 -167.121 0.00138429 -1.60219e-20
-1.18403 0 0.0105 -165.901 0.00130667 -4.00548e-20
-1.14475 0 0.0105 -164.809 0.00120506 -4.80658e-20
-1.10775 0 0.0105 -163.83 0.0012305 -1.60219e-20
-1.07289 0 0.0105 -162.949 0.00125048 -4.80658e-20
-1.04005 0 0.0105 -162.152 0.00124101 -1.60219e-20
-1.0091 0 0.0105 -161.425 0.00119482 -3.20439e-20
-0.979914 0 0.0105 -160.761 0.00114186 3.20439e-20
-0.952392 0 0.0105 -160.159 0.00115078 4.80658e-20
-0.926429 0 0.0105 -159.611 0.00115042 3.20439e-20
-0.901924 0 0.0105 -159.111 0.00118291 1.60219e-20
-0.878785 0 0.0105 -158.656 0.00126589 6.40877e-20
-0.856927 0 0.0105 -158.239 0.00133332 -6.40877e-20
-0.836265 0 0.0105 -157.861 0.00161342 1.60219e-19
-0.816722 0 0.0105 -157.517 0.00182155 -2.88395e-19
-0.798224 0 0.0105 -157.206 0.00207442 -1.28175e-19
-0.780701 0 0.0105 -156.927 0.00243085 -4.48614e-19
-0.764088 0 0.0105 -156.675 0.00273425 -2.56351e-19
-0.74832 0 0.0105 -156.45 0.00302366 -1.92263e-19
-0.733339 0 0.0105 -156.249 0.00329431 1.92263e-19
-0.719089 0 0.0105 -156.07 0.00347828 -5.12702e-19
-0.705515 0 0.0105 -155.91 0.00383863 -1.28175e-19
-0.692565 0 0.0105 -155.769 0.00407217 5.12702e-19
-0.680192 0 0.0105 -155.645 0.00430729 -1.28175e-19
-0.668349 0 0.0105 -155.535 0.0044438 0
-0.65699 0 0.0105 -155.438 0.00459995 -3.84526e-19
-0.646073 0 0.0105 -155.351 0.00468042 0
-0.635557 0 0.0105 -155.275 0.00473884 1.28175e-19
-0.6254 0 0.0105 -155.206 0.00474898 -2.56351e-19
-0.615568 0 0.0105 -155.143 0.00473671 2.56351e-19
-0.60602 0 0.0105 -155.087 0.00464163 -8.97228e-19
-0.596721 0 0.0105 -155.034 0.00454086 -1.0254e-18
-0.587638 0 0.0105 -154.985 0.00438196 1.28175e-19
-0.578734 0 0.0105 -154.938 0.00426116 -1.40993e-18
-0.569975 0 0.0105 -154.892 0.00399028 -2.56351e-19
-0.56133 0 0.0105 -154.848 0.00377015 -1.15358e-18
-0.552766 0 0.0105 -154.802 0.00339227 -2.30716e-18
-0.54425 0 0.0105 -154.756 0.00322952 -1.40993e-18
-0.535841 0 0.0105 -154.709 0.0028758 -2.05081e-18
-0.527746 0 0.0105 -154.663 0.00267677 -6.40877e-19
-0.52008 0 0.0105 -154.619 0.00266725 -1.28175e-19
-0.512816 0 0.0105 -154.575 0.00229171 -1.28175e-19
-0.50593 0 0.0105 -154.532 0.00208699 2.56351e-19
-0.499397 0 0.0105 -154.489 0.00175254 2.17898e-18
-0.493195 0 0.0105 -154.446 0.00151021 1.73037e-18
-0.487302 0 0.0105 -154.404 0.001277 -1.28175e-18
-0.481698 0 0.0105 -154.363 0.00115921 1.60219e-18
-0.476362 0 0.0105 -154.323 0.00103521 1.28175e-19
-0.471278 0 0.0105 -154.286 0.000939052 2.56351e-19
-0.466428 0 0.0105 -154.249 0.0009715 -2.56351e-19
-0.461793 0 0.0105 -154.214 0.00103032 -4.48614e-19
-0.457359 0 0.0105 -154.181 0.00112526 1.92263e-19
-0.45311 0 0.0105 -154.149 0.00100649 1.92263e-18
-0.449029 0 0.0105 -154.118 0.000908288 1.28175e-19
-0.445105 0 0.0105 -154.088 0.000715758 1.92263e-18
-0.441325 0 0.0105 -154.058 0.000527528 1.60219e-19
-0.437672 0 0.0105 -154.028 0.000449075 1.15358e-18
-0.434136 0 0.0105 -153.998 0.000426632 1.60219e-19
-0.430704 0 0.0105 -153.969 0.000468204 6.40877e-19
-0.427365 0 0.0105 -153.939 0.000537319 -1.66628e-18
-0.424106 0 0.0105 -153.911 0.000601729 0
-0.420917 0 0.0105 -153.884 0.000638623 0
-0.417786 0 0.0105 -153.857 0.000660879 -3.20439e-19
-0.414702 0 0.0105 -153.83 0.000689947 -1.28175e-18
-0.411656 0 0.0105 -153.806 0.00074711 5.12702e-19
-0.408635 0 0.0105 -153.778 0.000740582 -2.56351e-19
-0.405629 0 0.0105 -153.749 0.000792294 1.0254e-18
-0.402629 0 0.0105 -153.709 0.000890326 4.61431e-18
-0.399629 0 0.0105 -153.681 0.00104473 -1.15358e-18
-0.396628 0 0.0105 -153.656 0.000974476 -3.84526e-19
-0.393628 0 0.0105 -153.631 0.00106173 -1.40993e-18
-0.390626 0 0.0105 -153.606 0.0011073 2.56351e-19
-0.387625 0 0.0105 -153.581 0.00114511 6.40877e-19
-0.384621 0 0.0105 -153.555 0.00116182 0
-0.381618 0 0.0105 -153.528 0.00114354 2.56351e-19
-0.378613 0 0.0105 -153.5 0.00120225 -1.15358e-18
-0.375606 0 0.0105 -153.472 0.00121155 -1.28175e-18
-0.372597 0 0.0105 -153.444 0.00126871 2.17898e-18
-0.369588 0 0.0105 -153.416 0.00140299 1.28175e-19
-0.366577 0 0.0105 -153.391 0.001501 -3.84526e-19
-0.363563 0 0.0105 -153.368 0.00157364 6.40877e-19
-0.360546 0 0.0105 -153.344 0.00161055 0
-0.357529 0 0.0105 -153.318 0.00161655 3.84526e-19
-0.354508 0 0.0105 -153.292 0.00161771 1.28175e-19
-0.351485 0 0.0105 -153.264 0.00163333 -2.56351e-19
-0.348458 0 0.0105 -153.238 0.00165918 -1.40993e-18
-0.345429 0 0.0105 -153.21 0.00169233 -2.56351e-19
-0.342397 0 0.0105 -153.18 0.00183217 -5.12702e-19
-0.339361 0 0.0105 -153.152 0.00176395 8.97228e-19
-0.336321 0 0.0105 -153.124 0.00175924 -2.56351e-19
-0.333279 0 0.0105 -153.095 0.00178338 -2.56351e-19
-0.330233 0 0.0105 -153.066 0.00183001 1.79446e-18
-0.327182 0 0.0105 -153.038 0.00194447 -1.5381e-18
-0.324126 0 0.0105 -153.011 0.00204119 -2.05081e-18
-0.321068 0 0.0105 -152.982 0.00205516 -2.56351e-19
-0.318004 0 0.0105 -152.952 0.00206271 0
-0.314936 0 0.0105 -152.921 0.00200235 -2.56351e-19
-0.311863 0 0.0105 -152.891 0.00205449 -5.12702e-19
-0.308785 0 0.0105 -152.861 0.00199775 -5.12702e-19
-0.305702 0 0.0105 -152.83 0.00207697 -1.28175e-18
-0.302614 0 0.0105 -152.799 0.00212101 2.56351e-19
-0.299519 0 0.0105 -152.77 0.0021544 5.12702e-19
-0.29642 0 0.0105 -152.738 0.00213714 2.56351e-19
-0.293315 0 0.0105 -152.705 0.00213683 -1.0254e-18
-0.290203 0 0.0105 -152.673 0.00219103 2.56351e-19
-0.287086 0 0.0105 -152.642 0.00220249 5.12702e-19
-0.283963 0 0.0105 -152.609 0.00217852 5.12702e-19
-0.280832 0 0.0105 -152.575 0.00220767 2.56351e-19
-0.277695 0 0.0105 -152.544 0.00219784 -7.69052e-19
-0.274551 0 0.0105 -152.514 0.0022463 7.69052e-19
-0.271401 0 0.0105 -152.482 0.00227547 -5.12702e-19
-0.268244 0 0.0105 -152.448 0.00238245 -2.56351e-19
-0.265079 0 0.0105 -152.416 0.00231346 -2.56351e-19
-0.261906 0 0.0105 -152.384 0.00231286 -2.56351e-19
-0.258725 0 0.0105 -152.349 0.00238428 5.12702e-19
-0.255537 0 0.0105 -152.315 0.00226044 2.56351e-19
-0.252341 0 0.0105 -152.28 0.00231757 0
-0.249137 0 0.0105 -152.245 0.00232601 5.12702e-19
-0.245924 0 0.0105 -152.212 0.00227822 5.12702e-19
-0.242703 0 0.0105 -152.177 0.0023045 0
-0.239474 0 0.0105 -152.143 0.00226286 -7.69052e-19
-0.236236 0 0.0105 -152.108 0.00224854 -2.56351e-19
-0.232987 0 0.0105 -152.071 0.00230928 0
-0.22973 0 0.0105 -152.036 0.00220676 7.69052e-19
-0.226464 0 0.0105 -152.002 0.00220639 -7.69052e-19
-0.223189 0 0.0105 -151.966 0.00227633 -1.5381e-18
-0.219903 0 0.0105 -151.929 0.00226635 5.12702e-19
-0.216607 0 0.0105 -151.892 0.00221793 -1.0254e-18
-0.213302 0 0.0105 -151.854 0.00222206 0
-0.209985 0 0.0105 -151.813 0.00227821 -2.56351e-19
-0.20666 0 0.0105 -151.778 0.00213238 -2.56351e-19
-0.203323 0 0.0105 -151.741 0.00211452 0
-0.199974 0 0.0105 -151.704 0.00214994 0
-0.196616 0 0.0105 -151.666 0.00214302 7.69052e-19
-0.193246 0 0.0105 -151.627 0.00214092 0
-0.189864 0 0.0105 -151.586 0.00214805 5.12702e-19
-0.186472 0 0.0105 -151.55 0.00217954 2.56351e-19
-0.183068 0 0.0105 -151.514 0.00219785 0
-0.179651 0 0.0105 -151.475 0.00211408 2.56351e-19
-0.176222 0 0.0105 -151.435 0.00197353 1.28175e-19
-0.172781 0 0.0105 -151.399 0.00196584 3.84526e-19
-0.169328 0 0.0105 -151.356 0.00202629 2.56351e-19
-0.165862 0 0.0105 -151.317 0.00187311 -1.28175e-19
-0.162383 0 0.0105 -151.28 0.00186564 -3.84526e-19
-0.158892 0 0.0105 -151.236 0.00180421 0
-0.155387 0 0.0105 -151.198 0.00201107 -1.28175e-19
-0.151868 0 0.0105 -151.166 0.00160256 2.69168e-18
-0.148337 0 0.0105 -151.119 0.00111595 -1.08949e-17
-0.14479 0 0.0105 -150.338 0.00431984 5.24494e-16
-0.141231 0 0.0105 -120.596 0.235773 -5.74226e-16
-0.137658 0 0.0105 -2.88023 1.01159 7.21884e-16
-0.134069 0 0.0105 36.8054 0.509423 1.90315e-15
-0.130466 0 0.0105 36.3916 0.280995 -4.92194e-16
-0.126849 0 0.0105 34.735 0.178081 1.80471e-16
-0.123216 0 0.0105 32.4861 0.14142 1.14845e-16
-0.119568 0 0.0105 31.1154 0.0879103 -1.55861e-16
-0.115906 0 0.0105 30.5428 0.0671885 -7.3829e-17
-0.112228 0 0.0105 30.5569 0.0407615 4.10161e-18
-0.108534 0 0.0105 30.8832 0.0353444 -4.92194e-17
-0.104824 0 0.0105 31.3745 0.0191166 -1.23048e-17
-0.101098 0 0.0105 31.8786 0.0105834 -3.07621e-18
-0.097355 0 0.0105 32.3348 0.00706866 1.5381e-18
-0.0935961 0 0.0105 32.7599 0.00887387 1.33302e-17
-0.0898204 0 0.0105 33.0965 0.0109808 3.07621e-18
-0.0860278 0 0.0105 33.3697 0.0119472 -4.10161e-18
-0.0822181 0 0.0105 33.6359 0.00990002 4.10161e-18
-0.0783911 0 0.0105 33.8902 0.00594045 1.69192e-17
-0.0745465 0 0.0105 34.1224 4.3589e-05 2.03078e-18
-0.0706841 0 0.0105 34.3737 -0.00608669 1.5381e-18
-0.0668039 0 0.0105 34.6852 -0.0145671 -7.17782e-18
-0.0629054 0 0.0105 35.1537 -0.0248423 -2.87113e-17
-0.0589886 0 0.0105 35.9821 -0.0358953 1.23048e-17
-0.0550531 0 0.0105 37.5138 -0.0443827 -2.46097e-17
-0.0510989 0 0.0105 40.3853 -0.0531986 -2.87113e-17
-0.0471257 0 0.0105 44.8434 -0.0637394 -4.10161e-18
-0.0431332 0 0.0105 51.1275 -0.0764965 -8.20323e-18
-0.0391214 0 0.0105 58.99 -0.0746913 4.10161e-18
-0.0350898 0 0.0105 66.9176 -0.0670901 0
-0.0310384 0 0.0105 71.6341 -0.0670209 -1.23048e-17
-0.0269669 0 0.0105 74.2329 -0.0656653 -4.10161e-18
-0.0228751 0 0.0105 76.64 -0.0522412 -1.23048e-17
-0.0187628 0 0.0105 77.7389 -0.0255712 -1.0254e-17
-0.0146297 0 0.0105 77.7327 0.00452479 -1.61501e-17
-0.0104756 0 0.0105 76.8343 0.0380824 -1.84573e-17
-0.00630039 0 0.0105 75.1899 0.0839915 -8.20323e-18
-0.00210372 0 0.0105 73.1987 0.124083 0
0.00158228 0 0.0105 71.0317 0.155487 1.64065e-17
0.00474683 0 0.0105 68.434 0.177256 0
0.00791139 0 0.0105 65.3118 0.193675 -4.92194e-17
0.0110759 0 0.0105 61.4243 0.202394 -1.64065e-17
0.0142405 0 0.0105 56.7469 0.204587 1.64065e-17
0.017405 0 0.0105 51.2943 0.201751 1.64065e-17
0.0205696 0 0.0105 45.119 0.194774 1.64065e-17
0.0237342 0 0.0105 38.2649 0.18454 1.64065e-17
0.0268988 0 0.0105 30.7885 0.173461 -8.20323e-17
0.0300633 0 0.0105 22.7583 0.159007 -1.64065e-17
0.0332279 0 0.0105 14.2569 0.142403 0
0.0363924 0 0.0105 5.38826 0.123147 -3.28129e-17
0.039557 0 0.0105 -3.75284 0.0983034 -9.02355e-17
0.0427215 0 0.0105 -13.1001 0.0722345 0
0.0458861 0 0.0105 -22.6344 0.0482623 -8.20323e-18
0.0490507 0 0.0105 -32.3685 0.0260625 3.07621e-17
0.0522152 0 0.0105 -42.3142 0.00605721 -3.58891e-17
0.0553798 0 0.0105 -52.4406 -0.0104394 3.38383e-17
0.0585443 0 0.0105 -62.647 -0.0265884 3.07621e-17
0.0617089 0 0.0105 -72.8037 -0.0395227 -3.28129e-17
0.0648734 0 0.0105 -82.7637 -0.0578014 -1.35353e-16
0.068038 0 0.0105 -92.3696 -0.0772853 9.84387e-17
0.0712026 0 0.0105 -101.501 -0.0988318 1.14845e-16
0.0743671 0 0.0105 -110.105 -0.122352 6.56258e-17
0.0775317 0 0.0105 -118.203 -0.149012 1.80471e-16
0.0806962 0 0.0105 -125.853 -0.178631 1.14845e-16
0.0838607 0 0.0105 -133.132 -0.208623 -1.64065e-17
0.0870253 0 0.0105 -140.138 -0.235026 1.31252e-16
0.0901899 0 0.0105 -146.982 -0.253744 -6.56258e-17
0.0933545 0 0.0105 -153.767 -0.257819 0
0.096519 0 0.0105 -160.551 -0.238933 0
0.0996836 0 0.0105 -167.334 -0.198504 4.10161e-16
0.102848 0 0.0105 -174.066 -0.134765 -5.74226e-16
0.106012 0 0.0105 -180.664 -0.0535517 -3.07621e-16
0.109177 0 0.0105 -187.033 0.0323183 -3.15824e-16
0.112341 0 0.0105 -193.089 0.111983 -8.20323e-18
0.115506 0 0.0105 -198.777 0.170247 0
0.118671 0 0.0105 -204.063 0.199926 1.64065e-17
0.121835 0 0.0105 -208.94 0.197626 1.31252e-16
0.125 0 0.0105 -213.435 0.163904 0
0.128164 0 0.0105 -217.601 0.102669 5.16803e-16
0.131329 0 0.0105 -221.51 0.0236868 2.05081e-18
0.134493 0 0.0105 -225.241 -0.0605769 1.64065e-17
0.137658 0 0.0105 -228.882 -0.139685 5.41413e-16
0.140823 0 0.0105 -232.505 -0.205566 -3.28129e-17
0.143987 0 0.0105 -236.152 -0.249289 6.56258e-17
0.147152 0 0.0105 -239.836 -0.269316 -3.28129e-17
0.150316 0 0.0105 -243.568 -0.26614 3.28129e-17
0.153481 0 0.0105 -247.782 -0.239594 -3.60942e-16
0.156645 0 0.0105 -252.818 -0.173287 5.25006e-16
0.15981 0 0.0105 -258.473 -0.11865 -1.64065e-17
0.162975 0 0.0105 -262.256 -0.053025 5.45515e-16
0.166139 0 0.0105 -267.371 0.0275842 -4.10161e-18
0.169304 0 0.0105 -273.026 0.0191627 -1.66115e-16
0.172468 0 0.0105 -277.4 0.0720917 -3.52739e-16
0.175633 0 0.0105 -283.192 0.10962 8.20323e-18
0.178797 0 0.0105 -288.789 0.149445 -6.23445e-16
0.181962 0 0.0105 -294.133 0.184154 1.64065e-17
0.185126 0 0.0105 -299.241 0.201554 -6.56258e-17
0.188291 0 0.0105 -303.973 0.206996 -3.28129e-17
0.191455 0 0.0105 -308.303 0.204358 -8.20323e-17
0.19462 0 0.0105 -312.199 0.196409 4.92194e-17
0.197785 0 0.0105 -315.632 0.185475 3.28129e-17
0.20095 0 0.0105 -318.568 0.172203 1.64065e-17
0.204114 0 0.0105 -321.032 0.157973 1.64065e-17
0.207278 0 0.0105 -323.051 0.143766 1.96877e-16
0.210443 0 0.0105 -324.64 0.129612 9.84387e-17
0.213607 0 0.0105 -325.812 0.11623 1.80471e-16
0.216772 0 0.0105 -326.597 0.103898 1.64065e-16
0.219936 0 0.0105 -327.032 0.0919331 -1.64065e-17
0.223101 0 0.0105 -327.155 0.0805134 -9.02355e-17
0.226266 0 0.0105 -327.001 0.0702711 2.46097e-17
0.22943 0 0.0105 -326.583 0.0611359 8.20323e-18
0.232595 0 0.0105 -325.924 0.0523279 8.20323e-18
0.235759 0 0.0105 -325.033 0.0446151 0
0.238924 0 0.0105 -323.952 0.0383845 1.0254e-16
0.242088 0 0.0105 -322.59 0.0308953 -8.20323e-18
0.245253 0 0.0105 -322.525 0.0368475 -6.56258e-17
0.248417 0 0.0105 -317.721 0.0170281 6.09734e-17
