# p  FACE_DATA 448
# x  y  z  p
-0.778 -3.80769e-06 0 1196.57
-0.773968 -3.80769e-06 0 934.75
-0.769872 -3.80769e-06 0 761.611
-0.76571 -3.80769e-06 0 735.18
-0.761486 -3.80769e-06 0 699.302
-0.757196 -3.80769e-06 0 676.512
-0.752841 -3.80769e-06 0 663.99
-0.748422 -3.80769e-06 0 654.458
-0.743939 -3.80769e-06 0 647.957
-0.739391 -3.80769e-06 0 642.68
-0.73478 -3.80769e-06 0 638.132
-0.730104 -3.80769e-06 0 634.02
-0.725364 -3.80769e-06 0 629.672
-0.720562 -3.80769e-06 0 624.46
-0.715696 -3.80769e-06 0 617.351
-0.710769 -3.80769e-06 0 610.199
-0.705778 -3.80769e-06 0 604.426
-0.700727 -3.80769e-06 0 601.719
-0.695615 -3.80769e-06 0 601.729
-0.690443 -3.80769e-06 0 605.253
-0.685211 -3.80769e-06 0 608.356
-0.67992 -3.80769e-06 0 611.654
-0.674571 -3.80769e-06 0 614.951
-0.669166 -3.80769e-06 0 617.499
-0.663704 -3.80769e-06 0 619.899
-0.658187 -3.80769e-06 0 622.052
-0.652616 -3.80769e-06 0 623.82
-0.646993 -3.80769e-06 0 625.305
-0.641317 -3.80769e-06 0 626.321
-0.635592 -3.80769e-06 0 627.095
-0.629817 -3.80769e-06 0 627.75
-0.623994 -3.80769e-06 0 628.25
-0.618125 -3.80769e-06 0 628.526
-0.61221 -3.80769e-06 0 628.606
-0.606252 -3.80769e-06 0 628.653
-0.600253 -3.80769e-06 0 628.524
-0.594213 -3.80769e-06 0 628.344
-0.588134 -3.80769e-06 0 628.125
-0.582018 -3.80769e-06 0 627.981
-0.575867 -3.80769e-06 0 627.722
-0.569683 -3.80769e-06 0 627.242
-0.563467 -3.80769e-06 0 626.646
-0.557221 -3.80769e-06 0 626.132
-0.550946 -3.80769e-06 0 625.795
-0.544647 -3.80769e-06 0 625.58
-0.538323 -3.80769e-06 0 625.136
-0.531979 -3.80769e-06 0 624.474
-0.525613 -3.80769e-06 0 623.836
-0.51923 -3.80769e-06 0 623.45
-0.512832 -3.80769e-06 0 623.206
-0.50642 -3.80769e-06 0 622.878
-0.499995 -3.80769e-06 0 622.31
-0.493562 -3.80769e-06 0 621.593
-0.487123 -3.80769e-06 0 620.887
-0.480677 -3.80769e-06 0 620.502
-0.47423 -3.80769e-06 0 620.535
-0.467782 -3.80769e-06 0 620.531
-0.461335 -3.80769e-06 0 620.088
-0.454892 -3.80769e-06 0 619.324
-0.448455 -3.80769e-06 0 618.495
-0.442026 -3.80769e-06 0 617.789
-0.435607 -3.80769e-06 0 617.422
-0.429202 -3.80769e-06 0 617.655
-0.42281 -3.80769e-06 0 617.877
-0.416434 -3.80769e-06 0 617.931
-0.410078 -3.80769e-06 0 617.415
-0.403743 -3.80769e-06 0 616.39
-0.39743 -3.80769e-06 0 615.301
-0.391141 -3.80769e-06 0 614.394
-0.38488 -3.80769e-06 0 613.932
-0.378648 -3.80769e-06 0 613.877
-0.372446 -3.80769e-06 0 614.783
-0.366277 -3.80769e-06 0 615.319
-0.360142 -3.80769e-06 0 615.494
-0.354042 -3.80769e-06 0 615.123
-0.347981 -3.80769e-06 0 614.16
-0.341959 -3.80769e-06 0 612.785
-0.335978 -3.80769e-06 0 611.511
-0.33004 -3.80769e-06 0 610.495
-0.324146 -3.80769e-06 0 609.921
-0.318298 -3.80769e-06 0 609.786
-0.312497 -3.80769e-06 0 610.51
-0.306744 -3.80769e-06 0 611.473
-0.301041 -3.80769e-06 0 612.382
-0.29539 -3.80769e-06 0 612.988
-0.28979 -3.80769e-06 0 613.183
-0.284243 -3.80769e-06 0 613.021
-0.278752 -3.80769e-06 0 612.354
-0.273316 -3.80769e-06 0 611.297
-0.267937 -3.80769e-06 0 609.928
-0.262614 -3.80769e-06 0 608.585
-0.25735 -3.80769e-06 0 607.454
-0.252146 -3.80769e-06 0 606.588
-0.247001 -3.80769e-06 0 606.099
-0.241916 -3.80769e-06 0 605.95
-0.236893 -3.80769e-06 0 606.39
-0.231931 -3.80769e-06 0 606.965
-0.227031 -3.80769e-06 0 607.78
-0.222195 -3.80769e-06 0 608.606
-0.217421 -3.80769e-06 0 609.304
-0.212711 -3.80769e-06 0 609.809
-0.208064 -3.80769e-06 0 610.059
-0.203482 -3.80769e-06 0 610.079
-0.198964 -3.80769e-06 0 609.905
-0.19451 -3.80769e-06 0 609.445
-0.19012 -3.80769e-06 0 608.798
-0.185796 -3.80769e-06 0 607.971
-0.181535 -3.80769e-06 0 607.069
-0.17734 -3.80769e-06 0 606.099
-0.173208 -3.80769e-06 0 605.155
-0.169141 -3.80769e-06 0 604.31
-0.165138 -3.80769e-06 0 603.595
-0.161199 -3.80769e-06 0 603.008
-0.157325 -3.80769e-06 0 602.6
-0.153513 -3.80769e-06 0 602.379
-0.149765 -3.80769e-06 0 602.341
-0.14608 -3.80769e-06 0 602.398
-0.142457 -3.80769e-06 0 602.747
-0.138897 -3.80769e-06 0 603.127
-0.135398 -3.80769e-06 0 603.635
-0.131961 -3.80769e-06 0 604.176
-0.128584 -3.80769e-06 0 604.765
-0.125268 -3.80769e-06 0 605.354
-0.122011 -3.80769e-06 0 605.928
-0.118815 -3.80769e-06 0 606.417
-0.115677 -3.80769e-06 0 606.842
-0.112597 -3.80769e-06 0 607.194
-0.109574 -3.80769e-06 0 607.467
-0.106609 -3.80769e-06 0 607.647
-0.1037 -3.80769e-06 0 607.752
-0.100846 -3.80769e-06 0 607.773
-0.098048 -3.80769e-06 0 607.759
-0.0953042 -3.80769e-06 0 607.633
-0.0926143 -3.80769e-06 0 607.465
-0.0899773 -3.80769e-06 0 607.242
-0.0873927 -3.80769e-06 0 606.978
-0.0848599 -3.80769e-06 0 606.669
-0.082378 -3.80769e-06 0 606.334
-0.0799465 -3.80769e-06 0 605.969
-0.0775645 -3.80769e-06 0 605.58
-0.0752312 -3.80769e-06 0 605.169
-0.0729462 -3.80769e-06 0 604.747
-0.0707085 -3.80769e-06 0 604.321
-0.0685175 -3.80769e-06 0 603.893
-0.0663725 -3.80769e-06 0 603.469
-0.0642727 -3.80769e-06 0 603.058
-0.0622173 -3.80769e-06 0 602.663
-0.0602058 -3.80769e-06 0 602.283
-0.0582373 -3.80769e-06 0 601.92
-0.0563111 -3.80769e-06 0 601.576
-0.0544265 -3.80769e-06 0 601.254
-0.0525827 -3.80769e-06 0 600.948
-0.0507792 -3.80769e-06 0 600.663
-0.0490152 -3.80769e-06 0 600.398
-0.0472898 -3.80769e-06 0 600.156
-0.0456025 -3.80769e-06 0 599.933
-0.0439526 -3.80769e-06 0 599.733
-0.0423394 -3.80769e-06 0 599.554
-0.0407622 -3.80769e-06 0 599.398
-0.0392203 -3.80769e-06 0 599.257
-0.0377131 -3.80769e-06 0 599.138
-0.0362398 -3.80769e-06 0 599.032
-0.0347999 -3.80769e-06 0 598.943
-0.0333926 -3.80769e-06 0 598.857
-0.0320175 -3.80769e-06 0 598.776
-0.0306737 -3.80769e-06 0 598.703
-0.0293607 -3.80769e-06 0 598.696
-0.0280779 -3.80769e-06 0 600.648
-0.0268246 -3.80769e-06 0 618.425
-0.0256004 -3.80769e-06 0 690.226
-0.0244045 -3.80769e-06 0 819.897
-0.0232363 -3.80769e-06 0 934.593
-0.0220954 -3.80769e-06 0 1012.01
-0.0209812 -3.80769e-06 0 1070.64
-0.019893 -3.80769e-06 0 1123.22
-0.0188303 -3.80769e-06 0 1171.25
-0.0177927 -3.80769e-06 0 1217.25
-0.0167794 -3.80769e-06 0 1261.63
-0.0157901 -3.80769e-06 0 1304
-0.0148243 -3.80769e-06 0 1344.63
-0.0138814 -3.80769e-06 0 1383.44
-0.0129608 -3.80769e-06 0 1420.41
-0.0120623 -3.80769e-06 0 1455.6
-0.0111851 -3.80769e-06 0 1488.91
-0.0103289 -3.80769e-06 0 1520.54
-0.00949328 -3.80769e-06 0 1550.63
-0.00867767 -3.80769e-06 0 1579.22
-0.00788168 -3.80769e-06 0 1606.46
-0.00710485 -3.80769e-06 0 1632.1
-0.00634675 -3.80769e-06 0 1656.05
-0.00560698 -3.80769e-06 0 1677.87
-0.0048851 -3.80769e-06 0 1698.07
-0.00418071 -3.80769e-06 0 1716.93
-0.00349342 -3.80769e-06 0 1735.6
-0.00282284 -3.80769e-06 0 1754.4
-0.00216857 -3.80769e-06 0 1776.55
-0.00153026 -3.80769e-06 0 1809.27
-0.00090752 -3.80769e-06 0 1854.64
-0.0003 -3.80769e-06 0 1939.24
0.000259937 0.000146262 2.25537e-21 1818.78
0.000779437 0.000446185 0 1872.63
0.00129893 0.000746101 0 1888.7
0.00181858 0.00104611 2.2554e-21 1918.66
0.00233835 0.00134618 -2.25541e-21 1963.07
0.00285828 0.00164636 2.25542e-21 2015.86
0.00337841 0.00194664 0 2075.88
0.00389877 0.00224706 0 2141.46
0.00441941 0.00254764 -2.25544e-21 2212.16
0.00494034 0.00284839 2.25545e-21 2287.95
0.00546162 0.00314934 -2.25546e-21 2369.02
0.00598328 0.0034505 2.25547e-21 2455.83
0.00650535 0.00375191 2.25547e-21 2548.52
0.00702786 0.00405357 2.25548e-21 2647.56
0.00755087 0.00435552 0 2752.94
0.00807439 0.00465776 -2.25549e-21 2865.05
0.00859847 0.00496033 2.2555e-21 2983.9
0.00912315 0.00526324 0 3109.82
0.00964845 0.00556651 2.25551e-21 3242.8
0.0101744 0.00587017 0 3383
0.0107011 0.00617424 0 3530.41
0.0112285 0.00647873 -2.25552e-21 3685.09
0.0117567 0.00678367 0 3846.85
0.0122857 0.00708907 0 4015.8
0.0128156 0.00739497 0 4192.03
0.0133463 0.00770137 -2.25554e-21 4375.94
0.0138779 0.00800831 0 4567.14
0.0144106 0.0083158 0 4766.09
0.0149442 0.00862387 0 4971.97
0.0154788 0.00893253 0 5184.66
0.0160145 0.00924181 0 5404
0.0165513 0.00955172 2.25556e-21 5630.9
0.0170893 0.00986231 -2.25556e-21 5865.94
0.0176284 0.0101736 0 6109.84
0.0181687 0.0104855 0 6363.56
0.0187103 0.0107982 2.25556e-21 6627.31
0.0192532 0.0111117 2.25557e-21 6903.24
0.0197975 0.0114259 2.25557e-21 7191.17
0.0203431 0.0117408 0 7492.97
0.0208901 0.0120566 4.51114e-21 7808.08
0.0214385 0.0123732 -4.51114e-21 8135.47
0.0219884 0.0126907 0 8472.32
0.0225398 0.0130091 4.51114e-21 8815.95
0.0230928 0.0133283 0 9162.2
0.0236474 0.0136485 0 9508.35
0.0242037 0.0139697 0 9851.49
0.0247616 0.0142918 -4.51113e-21 10192.5
0.0253212 0.0146148 -4.51113e-21 10532.7
0.0258825 0.0149389 -4.51114e-21 10868.1
0.0264456 0.015264 0 11197.7
0.0270106 0.0155902 0 11520.2
0.0275774 0.0159174 -4.51112e-21 11834.8
0.0281462 0.0162457 0 12139.3
0.0287168 0.0165752 4.51111e-21 12425.3
0.0292895 0.0169059 -4.51111e-21 12683
0.0298642 0.0172376 0 12910.8
0.0304409 0.0175706 0 13111.9
0.0310198 0.0179048 4.5111e-21 13273.1
0.0316007 0.0182402 4.5111e-21 13407
0.0321839 0.0185768 -4.51107e-21 13523.4
0.0327693 0.0189148 0 13623.4
0.0333569 0.0192541 0 13713.1
0.0339469 0.0195947 4.51106e-21 13784.8
0.0345392 0.0199366 0 13867.1
0.0351339 0.02028 0 13917.1
0.035731 0.0206247 4.51105e-21 13965.1
0.0363305 0.0209708 -4.51103e-21 13999.9
0.0369326 0.0213184 4.51102e-21 14014.2
0.0375373 0.0216675 0 14023.1
0.0381445 0.0220181 0 14020.9
0.0387543 0.0223702 0 14013.3
0.0393668 0.0227238 4.51099e-21 14005.5
0.0399821 0.023079 -4.51097e-21 13995.3
0.0406001 0.0234358 4.51097e-21 13982.3
0.041221 0.0237942 0 13946.8
0.0418446 0.0241542 0 13912.8
0.0424712 0.024516 4.51092e-21 13876.2
0.0431006 0.0248794 -4.51094e-21 13831.7
0.0437331 0.0252445 0 13796.9
0.0443686 0.0256114 4.51089e-21 13759.5
0.0450071 0.02598 4.51089e-21 13709.1
0.0456487 0.0263505 0 13662.9
0.0462935 0.0267227 0 13605
0.0469415 0.0270968 -4.51085e-21 13564.4
0.0475927 0.0274728 0 13520.2
0.0482473 0.0278507 -4.51081e-21 13484.6
0.0489051 0.0282305 4.51081e-21 13462.1
0.0495663 0.0286122 -4.51079e-21 13430.8
0.050231 0.0289959 0 13402.1
0.0508991 0.0293816 -4.51077e-21 13367.6
0.0515707 0.0297694 4.51073e-21 13331.2
0.0522459 0.0301592 -4.51073e-21 13290.5
0.0529247 0.0305511 0 13259.5
0.0536071 0.0309451 0 13224.5
0.0542933 0.0313412 -4.51067e-21 13204.1
0.0549832 0.0317395 0 13180.6
0.0556769 0.03214 0 13155.4
0.0563744 0.0325427 0 13124
0.0570758 0.0329477 -4.5106e-21 13091.6
0.0577812 0.0333549 0 13061.3
0.0584905 0.0337645 0 13031.5
0.0592039 0.0341763 -4.51056e-21 13008.9
0.0599214 0.0345905 4.51053e-21 12999.1
0.060643 0.0350071 0 12990
0.0613688 0.0354262 4.51049e-21 12988.7
0.0620989 0.0358477 -4.51048e-21 12979.8
0.0628332 0.0362716 4.51046e-21 12973.3
0.0635719 0.0366981 0 12963.9
0.0643149 0.037127 4.51041e-21 12947.5
0.0650624 0.0375586 0 12941.5
0.0658144 0.0379927 0 12920.7
0.0665709 0.0384295 4.51035e-21 12910.2
0.0673321 0.0388689 -4.51035e-21 12890.8
0.0680979 0.039311 0 12876.6
0.0688683 0.0397558 -4.51029e-21 12859.3
0.0696435 0.0402034 4.51029e-21 12840.9
0.0704236 0.0406537 0 12826.7
0.0712085 0.0411069 0 12807.1
0.0719983 0.0415628 0 12792.4
0.0727931 0.0420217 0 12777.7
0.0735929 0.0424834 0 12763.3
0.0743978 0.0429481 0 12756.8
0.0752078 0.0434158 0 12744.5
0.076023 0.0438864 4.5101e-21 12741.7
0.0768435 0.0443601 -4.51009e-21 12736
0.0776693 0.0448369 -4.51004e-21 12733.1
0.0785004 0.0453167 4.51003e-21 12728.3
0.079337 0.0457997 0 12723.6
0.080179 0.0462858 0 12718.3
0.0810266 0.0467751 0 12711.7
0.0818797 0.0472677 0 12700.6
0.0827385 0.0477635 0 12693.3
0.083603 0.0482626 0 12679.4
0.0844733 0.0487651 4.50985e-21 12670.7
0.0853495 0.0492709 -4.50983e-21 12658.2
0.0862316 0.0497801 0 12648.4
0.0871195 0.0502927 -4.50978e-21 12638.8
0.0880135 0.0508089 0 12623.1
0.0889136 0.0513285 0 12610.3
0.0898198 0.0518517 0 12597
0.0907322 0.0523785 0 12585
0.0916509 0.0529089 0 12575.9
0.0925758 0.0534429 4.50963e-21 12567.4
0.0935072 0.0539806 4.50959e-21 12559.8
0.094445 0.054522 0 12554.5
0.0953894 0.0550672 4.50953e-21 12546.5
0.0963404 0.0556162 0 12543.2
0.0972979 0.0561691 0 12535.7
0.0982622 0.0567258 0 12525.1
0.0992333 0.0572865 0 12511.4
0.100211 0.057851 0 12500.6
0.101196 0.0584196 0 12489.8
0.102188 0.0589922 4.50935e-21 12473.7
0.103187 0.0595689 4.50932e-21 12459.5
0.104193 0.0601497 -4.50928e-21 12450.6
0.105206 0.0607347 0 12431.6
0.106226 0.0613239 0 12421.1
0.107254 0.0619172 0 12405.5
0.10829 0.0625149 4.50918e-21 12399.8
0.109332 0.0631169 4.50915e-21 12396.1
0.110382 0.0637232 -4.50911e-21 12386.9
0.11144 0.064334 -4.50908e-21 12373.8
0.112506 0.0649492 4.50905e-21 12362.4
0.11358 0.0655688 4.50902e-21 12361.4
0.114661 0.066193 0 12342.2
0.11575 0.0668218 0 12334.4
0.116847 0.0674552 0 12324.9
0.117952 0.0680932 0 12312
0.119065 0.068736 0 12300.1
0.120187 0.0693834 4.50884e-21 12299.6
0.121316 0.0700357 0 12284.6
0.122455 0.0706928 0 12274.7
0.123601 0.0713548 -4.50875e-21 12272.7
0.124756 0.0720217 0 12257.6
0.12592 0.0726935 -4.5087e-21 12254.5
0.127093 0.0733704 0 12250.5
0.128274 0.0740524 0 12243.7
0.129464 0.0747395 4.50859e-21 12228.9
0.130663 0.0754317 0 12215.3
0.131871 0.0761292 4.50853e-21 12216.5
0.133088 0.0768319 4.50851e-21 12200.4
0.134315 0.0775399 0 12202.5
0.13555 0.0782532 4.50845e-21 12194.8
0.136795 0.078972 0 12191.1
0.13805 0.0796962 0 12183.2
0.139314 0.080426 -4.50834e-21 12174.5
0.140587 0.0811613 -4.50831e-21 12167.7
0.14187 0.0819021 4.50827e-21 12159.2
0.143163 0.0826487 0 12148.2
0.144466 0.0834009 0 12140.7
0.145779 0.0841589 0 12138.5
0.147102 0.0849227 4.50815e-21 12135.8
0.148435 0.0856924 4.50811e-21 12120.1
0.149779 0.0864679 0 12110
0.151133 0.0872495 4.50805e-21 12096
0.152497 0.0880371 4.50801e-21 12089
0.153871 0.0888307 4.50798e-21 12080.2
0.155257 0.0896305 0 12072.3
0.156653 0.0904364 4.50791e-21 12071.5
0.15806 0.0912487 4.50787e-21 12059.3
0.159478 0.0920672 0 12059.6
0.160907 0.092892 0 12044.9
0.162347 0.0937233 0 12034.4
0.163798 0.0945611 4.50774e-21 12037.6
0.16526 0.0954054 0 12025.2
0.166734 0.0962563 0 12028.8
0.168219 0.0971138 0 12029.5
0.169716 0.097978 4.50761e-21 12023.7
0.171225 0.098849 4.50758e-21 12020.2
0.172745 0.0997268 4.50754e-21 12003
0.174278 0.100611 0 11991.3
0.175822 0.101503 0 11982.9
0.177379 0.102402 0 11990.1
0.178947 0.103308 4.50741e-21 11983.5
0.180529 0.10422 4.50737e-21 11979
0.182122 0.10514 4.50734e-21 11984.7
0.183728 0.106068 0 11977.3
0.185347 0.107002 -4.50727e-21 11966.6
0.186979 0.107944 0 11952
0.188623 0.108894 0 11948
0.190281 0.109851 4.50716e-21 11934.6
0.191952 0.110815 0 11940.5
0.193636 0.111787 -4.5071e-21 11943.3
0.195333 0.112767 -4.50707e-21 11950
0.197044 0.113755 -4.50702e-21 11947.3
0.198768 0.114751 -4.507e-21 11948.5
0.200506 0.115754 -4.50696e-21 11923.5
0.202258 0.116766 0 11921.9
0.204024 0.117785 4.50688e-21 11910.5
0.205805 0.118813 4.50686e-21 11915.8
0.207599 0.119849 0 11919.4
0.209408 0.120893 -4.50679e-21 11923.7
0.211231 0.121946 -4.50676e-21 11927.1
0.213068 0.123007 0 11905.8
0.214921 0.124076 0 11894.9
0.216788 0.125154 0 11880.2
0.21867 0.126241 0 11865.1
0.220567 0.127336 0 11855
0.22248 0.12844 0 11860.4
0.224408 0.129553 0 11864.4
0.226351 0.130675 0 11870.7
0.22831 0.131806 0 11872.4
0.230284 0.132946 9.01282e-21 11852.9
0.232275 0.134095 0 11832.7
0.234282 0.135254 9.01268e-21 11824.8
0.236304 0.136421 0 11804.4
0.238344 0.137598 9.01253e-21 11803.9
0.2404 0.138785 0 11806.7
0.242472 0.139982 0 11829.3
