# wallHeatFlux  FACE_DATA 448
# x  y  z  wallHeatFlux
-0.778 -3.80769e-06 0 -198877
-0.773968 -3.80769e-06 0 -40154.3
-0.769872 -3.80769e-06 0 -24476.2
-0.76571 -3.80769e-06 0 -19627.1
-0.761486 -3.80769e-06 0 -16560.4
-0.757196 -3.80769e-06 0 -14607.2
-0.752841 -3.80769e-06 0 -13270.9
-0.748422 -3.80769e-06 0 -12253
-0.743939 -3.80769e-06 0 -11454.3
-0.739391 -3.80769e-06 0 -10797
-0.73478 -3.80769e-06 0 -10249.8
-0.730104 -3.80769e-06 0 -9797.65
-0.725364 -3.80769e-06 0 -9414.09
-0.720562 -3.80769e-06 0 -9131.22
-0.715696 -3.80769e-06 0 -8911.89
-0.710769 -3.80769e-06 0 -8996.94
-0.705778 -3.80769e-06 0 -9312.06
-0.700727 -3.80769e-06 0 -9878.82
-0.695615 -3.80769e-06 0 -10537.1
-0.690443 -3.80769e-06 0 -11206.7
-0.685211 -3.80769e-06 0 -11737.7
-0.67992 -3.80769e-06 0 -12162
-0.674571 -3.80769e-06 0 -12506.1
-0.669166 -3.80769e-06 0 -12759.3
-0.663704 -3.80769e-06 0 -12975.2
-0.658187 -3.80769e-06 0 -13137.5
-0.652616 -3.80769e-06 0 -13256.8
-0.646993 -3.80769e-06 0 -13343.8
-0.641317 -3.80769e-06 0 -13382.8
-0.635592 -3.80769e-06 0 -13415.1
-0.629817 -3.80769e-06 0 -13427.2
-0.623994 -3.80769e-06 0 -13416.1
-0.618125 -3.80769e-06 0 -13395.1
-0.61221 -3.80769e-06 0 -13362.8
-0.606252 -3.80769e-06 0 -13330.3
-0.600253 -3.80769e-06 0 -13286.7
-0.594213 -3.80769e-06 0 -13237.5
-0.588134 -3.80769e-06 0 -13188.1
-0.582018 -3.80769e-06 0 -13138.4
-0.575867 -3.80769e-06 0 -13088.4
-0.569683 -3.80769e-06 0 -13027.3
-0.563467 -3.80769e-06 0 -12966
-0.557221 -3.80769e-06 0 -12910.2
-0.550946 -3.80769e-06 0 -12853
-0.544647 -3.80769e-06 0 -12807.5
-0.538323 -3.80769e-06 0 -12750.6
-0.531979 -3.80769e-06 0 -12693.4
-0.525613 -3.80769e-06 0 -12636
-0.51923 -3.80769e-06 0 -12589
-0.512832 -3.80769e-06 0 -12541.9
-0.50642 -3.80769e-06 0 -12494.5
-0.499995 -3.80769e-06 0 -12447.2
-0.493562 -3.80769e-06 0 -12399.1
-0.487123 -3.80769e-06 0 -12345.7
-0.480677 -3.80769e-06 0 -12302.9
-0.47423 -3.80769e-06 0 -12264.9
-0.467782 -3.80769e-06 0 -12227.3
-0.461335 -3.80769e-06 0 -12189.4
-0.454892 -3.80769e-06 0 -12139.7
-0.448455 -3.80769e-06 0 -12096.4
-0.442026 -3.80769e-06 0 -12051.7
-0.435607 -3.80769e-06 0 -12013.2
-0.429202 -3.80769e-06 0 -11985.1
-0.42281 -3.80769e-06 0 -11956.8
-0.416434 -3.80769e-06 0 -11934
-0.410078 -3.80769e-06 0 -11899.3
-0.403743 -3.80769e-06 0 -11854.6
-0.39743 -3.80769e-06 0 -11804.4
-0.391141 -3.80769e-06 0 -11758.5
-0.38488 -3.80769e-06 0 -11724.3
-0.378648 -3.80769e-06 0 -11689.7
-0.372446 -3.80769e-06 0 -11692.8
-0.366277 -3.80769e-06 0 -11685.3
-0.360142 -3.80769e-06 0 -11671.3
-0.354042 -3.80769e-06 0 -11647.4
-0.347981 -3.80769e-06 0 -11601.5
-0.341959 -3.80769e-06 0 -11545
-0.335978 -3.80769e-06 0 -11493.3
-0.33004 -3.80769e-06 0 -11452.3
-0.324146 -3.80769e-06 0 -11417.7
-0.318298 -3.80769e-06 0 -11398.3
-0.312497 -3.80769e-06 0 -11400.7
-0.306744 -3.80769e-06 0 -11413.9
-0.301041 -3.80769e-06 0 -11416.3
-0.29539 -3.80769e-06 0 -11418.3
-0.28979 -3.80769e-06 0 -11405.1
-0.284243 -3.80769e-06 0 -11385.5
-0.278752 -3.80769e-06 0 -11350.1
-0.273316 -3.80769e-06 0 -11309.5
-0.267937 -3.80769e-06 0 -11258.1
-0.262614 -3.80769e-06 0 -11211.7
-0.25735 -3.80769e-06 0 -11171.8
-0.252146 -3.80769e-06 0 -11136.3
-0.247001 -3.80769e-06 0 -11111.9
-0.241916 -3.80769e-06 0 -11098.2
-0.236893 -3.80769e-06 0 -11100.8
-0.231931 -3.80769e-06 0 -11103.2
-0.227031 -3.80769e-06 0 -11112
-0.222195 -3.80769e-06 0 -11119.7
-0.217421 -3.80769e-06 0 -11127.8
-0.212711 -3.80769e-06 0 -11130.2
-0.208064 -3.80769e-06 0 -11128.5
-0.203482 -3.80769e-06 0 -11119.8
-0.198964 -3.80769e-06 0 -11101.8
-0.19451 -3.80769e-06 0 -11083.6
-0.19012 -3.80769e-06 0 -11054.7
-0.185796 -3.80769e-06 0 -11020.9
-0.181535 -3.80769e-06 0 -10991.7
-0.17734 -3.80769e-06 0 -10957.2
-0.173208 -3.80769e-06 0 -10924
-0.169141 -3.80769e-06 0 -10894.4
-0.165138 -3.80769e-06 0 -10866.9
-0.161199 -3.80769e-06 0 -10848.8
-0.157325 -3.80769e-06 0 -10831.3
-0.153513 -3.80769e-06 0 -10819.1
-0.149765 -3.80769e-06 0 -10811.9
-0.14608 -3.80769e-06 0 -10805.7
-0.142457 -3.80769e-06 0 -10805
-0.138897 -3.80769e-06 0 -10808.1
-0.135398 -3.80769e-06 0 -10813.4
-0.131961 -3.80769e-06 0 -10822.8
-0.128584 -3.80769e-06 0 -10826.7
-0.125268 -3.80769e-06 0 -10837.2
-0.122011 -3.80769e-06 0 -10842.4
-0.118815 -3.80769e-06 0 -10851.3
-0.115677 -3.80769e-06 0 -10856.6
-0.112597 -3.80769e-06 0 -10856
-0.109574 -3.80769e-06 0 -10856.2
-0.106609 -3.80769e-06 0 -10855.3
-0.1037 -3.80769e-06 0 -10855
-0.100846 -3.80769e-06 0 -10849.2
-0.098048 -3.80769e-06 0 -10844
-0.0953042 -3.80769e-06 0 -10838.5
-0.0926143 -3.80769e-06 0 -10827.8
-0.0899773 -3.80769e-06 0 -10817.2
-0.0873927 -3.80769e-06 0 -10806.5
-0.0848599 -3.80769e-06 0 -10796.2
-0.082378 -3.80769e-06 0 -10785.6
-0.0799465 -3.80769e-06 0 -10770
-0.0775645 -3.80769e-06 0 -10759.7
-0.0752312 -3.80769e-06 0 -10744
-0.0729462 -3.80769e-06 0 -10728.5
-0.0707085 -3.80769e-06 0 -10713
-0.0685175 -3.80769e-06 0 -10703
-0.0663725 -3.80769e-06 0 -10687.5
-0.0642727 -3.80769e-06 0 -10672.3
-0.0622173 -3.80769e-06 0 -10662.5
-0.0602058 -3.80769e-06 0 -10647.1
-0.0582373 -3.80769e-06 0 -10637.4
-0.0563111 -3.80769e-06 0 -10622.3
-0.0544265 -3.80769e-06 0 -10612.6
-0.0525827 -3.80769e-06 0 -10603
-0.0507792 -3.80769e-06 0 -10593.4
-0.0490152 -3.80769e-06 0 -10583.9
-0.0472898 -3.80769e-06 0 -10579.9
-0.0456025 -3.80769e-06 0 -10570.4
-0.0439526 -3.80769e-06 0 -10561.1
-0.0423394 -3.80769e-06 0 -10557.1
-0.0407622 -3.80769e-06 0 -10548
-0.0392203 -3.80769e-06 0 -10544.2
-0.0377131 -3.80769e-06 0 -10540.5
-0.0362398 -3.80769e-06 0 -10536.9
-0.0347999 -3.80769e-06 0 -10533.4
-0.0333926 -3.80769e-06 0 -10529.9
-0.0320175 -3.80769e-06 0 -10526.6
-0.0306737 -3.80769e-06 0 -10523.3
-0.0293607 -3.80769e-06 0 -10520.4
-0.0280779 -3.80769e-06 0 -10543.9
-0.0268246 -3.80769e-06 0 -10643.4
-0.0256004 -3.80769e-06 0 -10672.6
-0.0244045 -3.80769e-06 0 -9864.69
-0.0232363 -3.80769e-06 0 -8283.05
-0.0220954 -3.80769e-06 0 -7506.29
-0.0209812 -3.80769e-06 0 -7831.42
-0.019893 -3.80769e-06 0 -8721.44
-0.0188303 -3.80769e-06 0 -9639.44
-0.0177927 -3.80769e-06 0 -10499.4
-0.0167794 -3.80769e-06 0 -11263.9
-0.0157901 -3.80769e-06 0 -11953.8
-0.0148243 -3.80769e-06 0 -12592
-0.0138814 -3.80769e-06 0 -13183.5
-0.0129608 -3.80769e-06 0 -13734.4
-0.0120623 -3.80769e-06 0 -14254.6
-0.0111851 -3.80769e-06 0 -14726.2
-0.0103289 -3.80769e-06 0 -15152.8
-0.00949328 -3.80769e-06 0 -15519.6
-0.00867767 -3.80769e-06 0 -15827.2
-0.00788168 -3.80769e-06 0 -16080.1
-0.00710485 -3.80769e-06 0 -16295.3
-0.00634675 -3.80769e-06 0 -16539.6
-0.00560698 -3.80769e-06 0 -16849.2
-0.0048851 -3.80769e-06 0 -17303.4
-0.00418071 -3.80769e-06 0 -17973.4
-0.00349342 -3.80769e-06 0 -18948.1
-0.00282284 -3.80769e-06 0 -20165.8
-0.00216857 -3.80769e-06 0 -21532.9
-0.00153026 -3.80769e-06 0 -22644.7
-0.00090752 -3.80769e-06 0 -22307.9
-0.0003 -3.80769e-06 0 -19419.1
0.000259937 0.000146262 2.25537e-21 -17488.9
0.000779437 0.000446185 0 -21078.8
0.00129893 0.000746101 0 -24935.5
0.00181858 0.00104611 2.2554e-21 -27937.9
0.00233835 0.00134618 -2.25541e-21 -30410
0.00285828 0.00164636 2.25542e-21 -32450.4
0.00337841 0.00194664 0 -34380.7
0.00389877 0.00224706 0 -36281.5
0.00441941 0.00254764 -2.25544e-21 -38227.3
0.00494034 0.00284839 2.25545e-21 -40234.3
0.00546162 0.00314934 -2.25546e-21 -42356.5
0.00598328 0.0034505 2.25547e-21 -44591.6
0.00650535 0.00375191 2.25547e-21 -46973.1
0.00702786 0.00405357 2.25548e-21 -49506.7
0.00755087 0.00435552 0 -52224.3
0.00807439 0.00465776 -2.25549e-21 -55147.8
0.00859847 0.00496033 2.2555e-21 -58323
0.00912315 0.00526324 0 -61799.4
0.00964845 0.00556651 2.25551e-21 -65607.9
0.0101744 0.00587017 0 -69777
0.0107011 0.00617424 0 -74360.6
0.0112285 0.00647873 -2.25552e-21 -79335.1
0.0117567 0.00678367 0 -84689.1
0.0122857 0.00708907 0 -90334.5
0.0128156 0.00739497 0 -96190
0.0133463 0.00770137 -2.25554e-21 -101902
0.0138779 0.00800831 0 -106704
0.0144106 0.0083158 0 -109477
0.0149442 0.00862387 0 -111083
0.0154788 0.00893253 0 -112480
0.0160145 0.00924181 0 -114228
0.0165513 0.00955172 2.25556e-21 -116681
0.0170893 0.00986231 -2.25556e-21 -119847
0.0176284 0.0101736 0 -123500
0.0181687 0.0104855 0 -127540
0.0187103 0.0107982 2.25556e-21 -131888
0.0192532 0.0111117 2.25557e-21 -136573
0.0197975 0.0114259 2.25557e-21 -141490
0.0203431 0.0117408 0 -146662
0.0208901 0.0120566 4.51114e-21 -152137
0.0214385 0.0123732 -4.51114e-21 -157821
0.0219884 0.0126907 0 -163718
0.0225398 0.0130091 4.51114e-21 -169583
0.0230928 0.0133283 0 -175460
0.0236474 0.0136485 0 -181204
0.0242037 0.0139697 0 -186993
0.0247616 0.0142918 -4.51113e-21 -192809
0.0253212 0.0146148 -4.51113e-21 -198845
0.0258825 0.0149389 -4.51114e-21 -204622
0.0264456 0.015264 0 -210646
0.0270106 0.0155902 0 -216251
0.0275774 0.0159174 -4.51112e-21 -221314
0.0281462 0.0162457 0 -225762
0.0287168 0.0165752 4.51111e-21 -229582
0.0292895 0.0169059 -4.51111e-21 -232697
0.0298642 0.0172376 0 -234909
0.0304409 0.0175706 0 -236117
0.0310198 0.0179048 4.5111e-21 -236810
0.0316007 0.0182402 4.5111e-21 -237094
0.0321839 0.0185768 -4.51107e-21 -236982
0.0327693 0.0189148 0 -236788
0.0333569 0.0192541 0 -236801
0.0339469 0.0195947 4.51106e-21 -236840
0.0345392 0.0199366 0 -236160
0.0351339 0.02028 0 -236053
0.035731 0.0206247 4.51105e-21 -235354
0.0363305 0.0209708 -4.51103e-21 -234366
0.0369326 0.0213184 4.51102e-21 -233413
0.0375373 0.0216675 0 -231948
0.0381445 0.0220181 0 -230260
0.0387543 0.0223702 0 -229088
0.0393668 0.0227238 4.51099e-21 -227246
0.0399821 0.023079 -4.51097e-21 -225969
0.0406001 0.0234358 4.51097e-21 -224390
0.041221 0.0237942 0 -222880
0.0418446 0.0241542 0 -221238
0.0424712 0.024516 4.51092e-21 -219528
0.0431006 0.0248794 -4.51094e-21 -217910
0.0437331 0.0252445 0 -216156
0.0443686 0.0256114 4.51089e-21 -214136
0.0450071 0.02598 4.51089e-21 -212304
0.0456487 0.0263505 0 -209977
0.0462935 0.0267227 0 -208352
0.0469415 0.0270968 -4.51085e-21 -206155
0.0475927 0.0274728 0 -204649
0.0482473 0.0278507 -4.51081e-21 -203076
0.0489051 0.0282305 4.51081e-21 -201392
0.0495663 0.0286122 -4.51079e-21 -200110
0.050231 0.0289959 0 -198738
0.0508991 0.0293816 -4.51077e-21 -197187
0.0515707 0.0297694 4.51073e-21 -195652
0.0522459 0.0301592 -4.51073e-21 -194390
0.0529247 0.0305511 0 -192711
0.0536071 0.0309451 0 -191757
0.0542933 0.0313412 -4.51067e-21 -190443
0.0549832 0.0317395 0 -189358
0.0556769 0.03214 0 -188145
0.0563744 0.0325427 0 -186912
0.0570758 0.0329477 -4.5106e-21 -185649
0.0577812 0.0333549 0 -184402
0.0584905 0.0337645 0 -183169
0.0592039 0.0341763 -4.51056e-21 -182452
0.0599214 0.0345905 4.51053e-21 -181513
0.060643 0.0350071 0 -181052
0.0613688 0.0354262 4.51049e-21 -180322
0.0620989 0.0358477 -4.51048e-21 -179834
0.0628332 0.0362716 4.51046e-21 -179087
0.0635719 0.0366981 0 -178271
0.0643149 0.037127 4.51041e-21 -177662
0.0650624 0.0375586 0 -176577
0.0658144 0.0379927 0 -176022
0.0665709 0.0384295 4.51035e-21 -175024
0.0673321 0.0388689 -4.51035e-21 -174316
0.0680979 0.039311 0 -173642
0.0688683 0.0397558 -4.51029e-21 -172720
0.0696435 0.0402034 4.51029e-21 -172192
0.0704236 0.0406537 0 -171254
0.0712085 0.0411069 0 -170760
0.0719983 0.0415628 0 -169866
0.0727931 0.0420217 0 -169094
0.0735929 0.0424834 0 -168582
0.0743978 0.0429481 0 -167768
0.0752078 0.0434158 0 -167397
0.076023 0.0438864 4.5101e-21 -166725
0.0768435 0.0443601 -4.51009e-21 -166422
0.0776693 0.0448369 -4.51004e-21 -166002
0.0785004 0.0453167 4.51003e-21 -165650
0.079337 0.0457997 0 -165453
0.080179 0.0462858 0 -164950
0.0810266 0.0467751 0 -164359
0.0818797 0.0472677 0 -164158
0.0827385 0.0477635 0 -163369
0.083603 0.0482626 0 -163058
0.0844733 0.0487651 4.50985e-21 -162525
0.0853495 0.0492709 -4.50983e-21 -162030
0.0862316 0.0497801 0 -161788
0.0871195 0.0502927 -4.50978e-21 -161017
0.0880135 0.0508089 0 -160711
0.0889136 0.0513285 0 -160291
0.0898198 0.0518517 0 -159642
0.0907322 0.0523785 0 -159355
0.0916509 0.0529089 0 -158828
0.0925758 0.0534429 4.50963e-21 -158468
0.0935072 0.0539806 4.50959e-21 -158155
0.094445 0.054522 0 -157840
0.0953894 0.0550672 4.50953e-21 -157514
0.0963404 0.0556162 0 -157148
0.0972979 0.0561691 0 -156738
0.0982622 0.0567258 0 -156386
0.0992333 0.0572865 0 -156034
0.100211 0.057851 0 -155532
0.101196 0.0584196 0 -154788
0.102188 0.0589922 4.50935e-21 -154707
0.103187 0.0595689 4.50932e-21 -154351
0.104193 0.0601497 -4.50928e-21 -153095
0.105206 0.0607347 0 -153233
0.106226 0.0613239 0 -152239
0.107254 0.0619172 0 -152082
0.10829 0.0625149 4.50918e-21 -151285
0.109332 0.0631169 4.50915e-21 -150967
0.110382 0.0637232 -4.50911e-21 -150794
0.11144 0.064334 -4.50908e-21 -150382
0.112506 0.0649492 4.50905e-21 -150226
0.11358 0.0655688 4.50902e-21 -149140
0.114661 0.066193 0 -148818
0.11575 0.0668218 0 -148594
0.116847 0.0674552 0 -148123
0.117952 0.0680932 0 -148001
0.119065 0.068736 0 -147645
0.120187 0.0693834 4.50884e-21 -146640
0.121316 0.0700357 0 -146602
0.122455 0.0706928 0 -146559
0.123601 0.0713548 -4.50875e-21 -145075
0.124756 0.0720217 0 -145840
0.12592 0.0726935 -4.5087e-21 -145039
0.127093 0.0733704 0 -144950
0.128274 0.0740524 0 -144249
0.129464 0.0747395 4.50859e-21 -144285
0.130663 0.0754317 0 -143995
0.131871 0.0761292 4.50853e-21 -143198
0.133088 0.0768319 4.50851e-21 -143497
0.134315 0.0775399 0 -143015
0.13555 0.0782532 4.50845e-21 -142359
0.136795 0.078972 0 -142700
0.13805 0.0796962 0 -141776
0.139314 0.080426 -4.50834e-21 -142170
0.140587 0.0811613 -4.50831e-21 -141362
0.14187 0.0819021 4.50827e-21 -141148
0.143163 0.0826487 0 -140864
0.144466 0.0834009 0 -140647
0.145779 0.0841589 0 -140699
0.147102 0.0849227 4.50815e-21 -139864
0.148435 0.0856924 4.50811e-21 -139540
0.149779 0.0864679 0 -139348
0.151133 0.0872495 4.50805e-21 -138526
0.152497 0.0880371 4.50801e-21 -138124
0.153871 0.0888307 4.50798e-21 -138457
0.155257 0.0896305 0 -137691
0.156653 0.0904364 4.50791e-21 -137209
0.15806 0.0912487 4.50787e-21 -137931
0.159478 0.0920672 0 -136870
0.160907 0.092892 0 -136740
0.162347 0.0937233 0 -137087
0.163798 0.0945611 4.50774e-21 -135976
0.16526 0.0954054 0 -136064
0.166734 0.0962563 0 -136307
0.168219 0.0971138 0 -135487
0.169716 0.097978 4.50761e-21 -135622
0.171225 0.098849 4.50758e-21 -135352
0.172745 0.0997268 4.50754e-21 -135392
0.174278 0.100611 0 -134163
0.175822 0.101503 0 -134467
0.177379 0.102402 0 -133342
0.178947 0.103308 4.50741e-21 -134107
0.180529 0.10422 4.50737e-21 -133791
0.182122 0.10514 4.50734e-21 -132983
0.183728 0.106068 0 -133683
0.185347 0.107002 -4.50727e-21 -133379
0.186979 0.107944 0 -132220
0.188623 0.108894 0 -132766
0.190281 0.109851 4.50716e-21 -132078
0.191952 0.110815 0 -132079
0.193636 0.111787 -4.5071e-21 -131302
0.195333 0.112767 -4.50707e-21 -131325
0.197044 0.113755 -4.50702e-21 -130980
0.198768 0.114751 -4.507e-21 -130794
0.200506 0.115754 -4.50696e-21 -130289
0.202258 0.116766 0 -130511
0.204024 0.117785 4.50688e-21 -130008
0.205805 0.118813 4.50686e-21 -130431
0.207599 0.119849 0 -129963
0.209408 0.120893 -4.50679e-21 -129563
0.211231 0.121946 -4.50676e-21 -129189
0.213068 0.123007 0 -129727
0.214921 0.124076 0 -128772
0.216788 0.125154 0 -127763
0.21867 0.126241 0 -128540
0.220567 0.127336 0 -127767
0.22248 0.12844 0 -127023
0.224408 0.129553 0 -127981
0.226351 0.130675 0 -127080
0.22831 0.131806 0 -127234
0.230284 0.132946 9.01282e-21 -126862
0.232275 0.134095 0 -126688
0.234282 0.135254 9.01268e-21 -126034
0.236304 0.136421 0 -126532
0.238344 0.137598 9.01253e-21 -125996
0.2404 0.138785 0 -125351
0.242472 0.139982 0 -124954
