# Wall heat-flux
# Time        	patch         	min           	max           	integral      
3000          	base	-2.914615e+06	-4.177324e+04	-3.293554e+03
