# p  FACE_DATA 398
# x  y  z  p
-0.7975 -7.61524e-06 0 1136.76
-0.79239 -7.61524e-06 0 893.847
-0.787056 -7.61524e-06 0 735.003
-0.781492 -7.61524e-06 0 707.105
-0.775691 -7.61524e-06 0 673.947
-0.769649 -7.61524e-06 0 653.007
-0.763361 -7.61524e-06 0 641.637
-0.756822 -7.61524e-06 0 633.081
-0.750025 -7.61524e-06 0 625.946
-0.742968 -7.61524e-06 0 619.371
-0.735648 -7.61524e-06 0 613.774
-0.72806 -7.61524e-06 0 607.943
-0.720203 -7.61524e-06 0 604.507
-0.712075 -7.61524e-06 0 603.14
-0.703676 -7.61524e-06 0 603.836
-0.695006 -7.61524e-06 0 605.516
-0.686065 -7.61524e-06 0 607.275
-0.676855 -7.61524e-06 0 608.739
-0.667379 -7.61524e-06 0 609.719
-0.657641 -7.61524e-06 0 610.287
-0.647644 -7.61524e-06 0 610.596
-0.637398 -7.61524e-06 0 610.578
-0.626906 -7.61524e-06 0 610.185
-0.616179 -7.61524e-06 0 609.689
-0.605225 -7.61524e-06 0 608.838
-0.594054 -7.61524e-06 0 607.821
-0.582677 -7.61524e-06 0 606.879
-0.57111 -7.61524e-06 0 606.062
-0.559364 -7.61524e-06 0 604.998
-0.547454 -7.61524e-06 0 603.75
-0.535396 -7.61524e-06 0 602.552
-0.523205 -7.61524e-06 0 601.555
-0.510901 -7.61524e-06 0 600.501
-0.498499 -7.61524e-06 0 599.452
-0.486021 -7.61524e-06 0 598.581
-0.473482 -7.61524e-06 0 597.997
-0.460905 -7.61524e-06 0 597.125
-0.448307 -7.61524e-06 0 595.936
-0.435709 -7.61524e-06 0 594.74
-0.42313 -7.61524e-06 0 593.929
-0.41059 -7.61524e-06 0 594.062
-0.39811 -7.61524e-06 0 594.024
-0.385706 -7.61524e-06 0 593.408
-0.373398 -7.61524e-06 0 592.268
-0.361205 -7.61524e-06 0 591.126
-0.349142 -7.61524e-06 0 590.364
-0.337226 -7.61524e-06 0 590.18
-0.325475 -7.61524e-06 0 590.633
-0.313901 -7.61524e-06 0 590.867
-0.30252 -7.61524e-06 0 590.605
-0.291343 -7.61524e-06 0 589.818
-0.280381 -7.61524e-06 0 588.455
-0.269647 -7.61524e-06 0 587.207
-0.259148 -7.61524e-06 0 586.268
-0.248893 -7.61524e-06 0 585.784
-0.23889 -7.61524e-06 0 586.044
-0.229143 -7.61524e-06 0 586.758
-0.219659 -7.61524e-06 0 587.601
-0.210441 -7.61524e-06 0 588.31
-0.201491 -7.61524e-06 0 588.696
-0.192812 -7.61524e-06 0 588.785
-0.184405 -7.61524e-06 0 588.509
-0.176269 -7.61524e-06 0 587.954
-0.168404 -7.61524e-06 0 587.188
-0.160809 -7.61524e-06 0 586.285
-0.15348 -7.61524e-06 0 585.263
-0.146415 -7.61524e-06 0 584.36
-0.13961 -7.61524e-06 0 583.614
-0.133063 -7.61524e-06 0 583.046
-0.126767 -7.61524e-06 0 582.677
-0.120717 -7.61524e-06 0 582.499
-0.11491 -7.61524e-06 0 582.458
-0.109339 -7.61524e-06 0 582.757
-0.103997 -7.61524e-06 0 583.11
-0.0988804 -7.61524e-06 0 583.558
-0.0939809 -7.61524e-06 0 584.06
-0.0892928 -7.61524e-06 0 584.577
-0.0848096 -7.61524e-06 0 585.076
-0.0805248 -7.61524e-06 0 585.52
-0.0764317 -7.61524e-06 0 585.892
-0.0725237 -7.61524e-06 0 586.197
-0.0687943 -7.61524e-06 0 586.451
-0.065237 -7.61524e-06 0 586.661
-0.0618454 -7.61524e-06 0 586.824
-0.058613 -7.61524e-06 0 586.955
-0.0555337 -7.61524e-06 0 587.056
-0.0526013 -7.61524e-06 0 587.131
-0.0498099 -7.61524e-06 0 587.179
-0.0471536 -7.61524e-06 0 587.202
-0.0446266 -7.61524e-06 0 587.208
-0.0422235 -7.61524e-06 0 587.203
-0.0399389 -7.61524e-06 0 587.201
-0.0377676 -7.61524e-06 0 587.14
-0.0357044 -7.61524e-06 0 587.14
-0.0337445 -7.61524e-06 0 587.051
-0.0318832 -7.61524e-06 0 587.01
-0.0301159 -7.61524e-06 0 586.934
-0.0284383 -7.61524e-06 0 586.875
-0.0268462 -7.61524e-06 0 586.782
-0.0253353 -7.61524e-06 0 586.709
-0.023902 -7.61524e-06 0 587.844
-0.0225425 -7.61524e-06 0 616.397
-0.0212532 -7.61524e-06 0 803.096
-0.0200306 -7.61524e-06 0 1096.07
-0.0188715 -7.61524e-06 0 1260.2
-0.0177727 -7.61524e-06 0 1355.59
-0.0167313 -7.61524e-06 0 1424.19
-0.0157444 -7.61524e-06 0 1483.32
-0.0148093 -7.61524e-06 0 1534.22
-0.0139232 -7.61524e-06 0 1577.44
-0.0130838 -7.61524e-06 0 1614.96
-0.0122887 -7.61524e-06 0 1648.24
-0.0115355 -7.61524e-06 0 1678.32
-0.0108223 -7.61524e-06 0 1705.77
-0.0101469 -7.61524e-06 0 1730.59
-0.00950727 -7.61524e-06 0 1753
-0.00890169 -7.61524e-06 0 1773.24
-0.00832834 -7.61524e-06 0 1791.32
-0.00778557 -7.61524e-06 0 1806.99
-0.00727176 -7.61524e-06 0 1820.23
-0.00678541 -7.61524e-06 0 1831.01
-0.00632507 -7.61524e-06 0 1839.51
-0.00588937 -7.61524e-06 0 1845.86
-0.00547703 -7.61524e-06 0 1850.37
-0.00508681 -7.61524e-06 0 1853.66
-0.00471753 -7.61524e-06 0 1856.17
-0.0043681 -7.61524e-06 0 1858.21
-0.00403746 -7.61524e-06 0 1860.22
-0.00372461 -7.61524e-06 0 1862.58
-0.0034286 -7.61524e-06 0 1865.68
-0.00314855 -7.61524e-06 0 1869.93
-0.00288361 -7.61524e-06 0 1875.7
-0.00263295 -7.61524e-06 0 1883.35
-0.00239582 -7.61524e-06 0 1893.13
-0.00217149 -7.61524e-06 0 1905.55
-0.00195929 -7.61524e-06 0 1920.29
-0.00175856 -7.61524e-06 0 1938.36
-0.00156869 -7.61524e-06 0 1958.37
-0.00138908 -7.61524e-06 0 1981.15
-0.00121921 -7.61524e-06 0 2005.03
-0.00105853 -7.61524e-06 0 2029.87
-0.000906546 -7.61524e-06 0 2054.56
-0.000762803 -7.61524e-06 0 2078.04
-0.000626849 -7.61524e-06 0 2098.67
-0.000498266 -7.61524e-06 0 2114.74
-0.000376656 -7.61524e-06 0 2124.76
-0.000261642 -7.61524e-06 0 2128.28
-0.00015287 -7.61524e-06 0 2127.86
-5e-05 -7.61524e-06 0 2130.5
4.14596e-05 2.03453e-05 0 2087.92
0.000125379 7.69412e-05 0 2091.83
0.000211356 0.000134924 0 2082.68
0.000299438 0.000194328 0 2071.6
0.000389678 0.000255186 0 2058.75
0.000482128 0.000317535 0 2045.46
0.000576841 0.000381409 0 2032.32
0.000673871 0.000446848 0 2019.85
0.000773276 0.000513887 0 2008.49
0.000875112 0.000582565 0 1998.68
0.000979439 0.000652924 0 1990.73
0.00108632 0.000725003 0 1985.06
0.00119581 0.000798843 0 1981.1
0.00130797 0.000874487 0 1980.06
0.00142287 0.000951979 0 1981.93
0.00154058 0.00103136 0 1986.32
0.00166117 0.00111268 0 1992.98
0.00178469 0.00119599 0 2002.21
0.00191123 0.00128133 0 2013.97
0.00204085 0.00136875 0 2028.24
0.00217364 0.0014583 0 2044.93
0.00230966 0.00155003 0 2063.97
0.00244899 0.001644 0 2085.3
0.00259171 0.00174025 0 2108.96
0.00273791 0.00183885 0 2134.86
0.00288767 0.00193985 0 2163.19
0.00304108 0.0020433 0 2193.82
0.0031982 0.00214927 0 2226.93
0.00335915 0.00225781 0 2262.59
0.003524 0.002369 0 2300.91
0.00369286 0.00248287 0 2341.99
0.00386582 0.00259951 0 2386.06
0.00404297 0.00271899 0 2433.27
0.00422442 0.00284136 0 2483.85
0.00441026 0.00296669 0 2538.07
0.0046006 0.00309506 0 2596.18
0.00479556 0.00322653 0 2658.52
0.00499523 0.00336119 0 2725.33
0.00519972 0.00349911 0 2797.03
0.00540916 0.00364036 0 2873.95
0.00562366 0.00378501 0 2956.48
0.00584334 0.00393316 0 3045.02
0.00606831 0.00408489 0 3140.03
0.00629871 0.00424027 0 3242.09
0.00653466 0.0043994 0 3351.61
0.00677629 0.00456236 0 3469.38
0.00702374 0.00472923 0 3595.96
0.00727714 0.00490013 0 3732.17
0.00753663 0.00507513 0 3878.85
0.00780234 0.00525433 0 4036.99
0.00807444 0.00543783 0 4207.83
0.00835306 0.00562573 0 4392.78
0.00863835 0.00581814 0 4593.42
0.00893047 0.00601514 0 4811.5
0.00922958 0.00621687 0 5049
0.00953584 0.00642341 0 5307.7
0.00984939 0.00663489 0 5589.94
0.0101705 0.00685141 0 5898.28
0.0104992 0.00707309 0 6235.7
0.0108357 0.00730005 0 6605.93
0.0111802 0.00753241 0 7013.61
0.011533 0.0077703 0 7460.53
0.0118941 0.00801384 0 7954.57
0.0122638 0.00826316 0 8500.69
0.0126422 0.00851837 0 9104.37
0.0130296 0.00877964 0 9772.11
0.0134262 0.00904708 0 10509.8
0.0138321 0.00932084 0 11321.4
0.0142476 0.00960107 0 12214.9
0.0146729 0.00988792 0 13190.2
0.0151082 0.0101815 0 14246.4
0.0155538 0.0104819 0 15368.5
0.0160098 0.0107895 0 16541.8
0.0164766 0.0111042 0 17740.3
0.0169542 0.0114263 0 18921.6
0.0174429 0.011756 0 20022.5
0.0179431 0.0120934 0 20854.7
0.018455 0.0124386 0 21383.4
0.0189789 0.0127918 0 21561.6
0.0195149 0.0131533 0 21346.8
0.0200633 0.0135232 0 20709.2
0.0206245 0.0139016 0 19948.9
0.0211986 0.0142888 0 19167.6
0.0217861 0.014685 0 18405.3
0.022387 0.0150903 0 17747.2
0.0230018 0.0155049 0 17214.1
0.0236307 0.0159291 0 16790.7
0.0242741 0.0163629 0 16471.4
0.0249322 0.0168068 0 16258.8
0.0256053 0.0172608 0 16131.7
0.0262939 0.0177251 0 16045.6
0.0269981 0.0182 0 15979.3
0.0277183 0.0186857 0 15922.7
0.0284548 0.0191825 0 15882.2
0.029208 0.0196904 0 15833.8
0.0299782 0.0202098 0 15783.9
0.0307658 0.0207409 0 15742.9
0.031571 0.021284 0 15759.4
0.0323942 0.0218393 0 15767.5
0.033236 0.0224069 0 15704.1
0.0340965 0.0229872 0 15607.7
0.0349762 0.0235805 0 15514.5
0.0358753 0.0241869 0 15536.4
0.0367944 0.0248067 0 15615.3
0.0377338 0.0254403 0 15620.9
0.0386938 0.0260877 0 15548.8
0.039675 0.0267494 0 15445.6
0.0406776 0.0274256 0 15357.5
0.0417021 0.0281165 0 15328.2
0.0427488 0.0288225 0 15314
0.0438183 0.0295437 0 15277.9
0.0449109 0.0302805 0 15224.3
0.046027 0.0310332 0 15163.1
0.0471671 0.0318021 0 15113.2
0.0483315 0.0325874 0 15078.1
0.0495209 0.0333895 0 15047.5
0.0507354 0.0342086 0 15006.7
0.0519756 0.035045 0 14955.7
0.053242 0.0358991 0 14904.1
0.054535 0.036771 0 14861.7
0.0558549 0.0376613 0 14830.9
0.0572024 0.03857 0 14811.7
0.0585778 0.0394976 0 14789.8
0.0599816 0.0404443 0 14754.5
0.0614142 0.0414105 0 14705.2
0.0628761 0.0423964 0 14658.9
0.0643678 0.0434024 0 14631.2
0.0658897 0.0444287 0 14619.8
0.0674422 0.0454758 0 14614.6
0.069026 0.0465439 0 14599.5
0.0706413 0.0476333 0 14562.3
0.0722886 0.0487443 0 14519.6
0.0739685 0.0498771 0 14487.3
0.0756813 0.0510323 0 14478.1
0.0774275 0.05221 0 14472.7
0.0792077 0.0534105 0 14452.7
0.0810221 0.0546342 0 14430.4
0.0828712 0.0558812 0 14411.9
0.0847556 0.0571521 0 14399.5
0.0866757 0.058447 0 14383
0.0886318 0.0597661 0 14358.7
0.0906244 0.06111 0 14340.2
0.0926539 0.0624787 0 14334.9
0.0947207 0.0638726 0 14336.4
0.0968252 0.0652919 0 14338.7
0.0989682 0.066737 0 14344.4
0.101149 0.068208 0 14350.2
0.103369 0.0697052 0 14350.6
0.105629 0.0712289 0 14313.6
0.107928 0.0727794 0 14269.9
0.110267 0.0743568 0 14204.4
0.112646 0.0759614 0 14161.8
0.115066 0.0775934 0 14132.5
0.117527 0.079253 0 14136
0.120029 0.0809404 0 14167.8
0.122572 0.0826558 0 14203
0.125158 0.0843994 0 14206.6
0.127785 0.0861713 0 14181.7
0.130454 0.0879717 0 14130.4
0.133167 0.0898008 0 14113.2
0.135921 0.0916586 0 14111.5
0.138719 0.0935453 0 14128.5
0.141559 0.095461 0 14114.9
0.144443 0.0974057 0 14094.1
0.14737 0.0993798 0 14082
0.15034 0.101383 0 14085.7
0.153354 0.103415 0 14110
0.156411 0.105477 0 14114.2
0.159511 0.107568 0 14062.7
0.162655 0.109688 0 14041.8
0.165842 0.111837 0 14049
0.169073 0.114016 0 14072.7
0.172346 0.116223 0 14119.4
0.175663 0.118461 0 14101
0.179022 0.120727 0 14062.4
0.182425 0.123021 0 14085.2
0.18587 0.125344 0 14125.3
0.189357 0.127696 0 14147.3
0.192886 0.130076 0 14139.2
0.196457 0.132484 0 14096.9
0.200069 0.13492 0 14090.5
0.203722 0.137384 0 14126.4
0.207416 0.139875 0 14165.6
0.21115 0.142393 0 14172.5
0.214924 0.144938 0 14142.9
0.218736 0.147509 0 14090
0.222587 0.150107 0 14102.6
0.226476 0.152729 0 14143.4
0.230403 0.155377 0 14178
0.234366 0.15805 0 14160.9
0.238366 0.160748 0 14088.7
0.242401 0.163469 0 14003.9
0.24647 0.166214 0 13995
0.250573 0.168981 0 14041.5
0.25471 0.17177 0 14075.5
0.258878 0.174582 0 14044
0.263078 0.177414 0 13964.3
0.267309 0.180266 0 13848.2
0.271568 0.183139 0 13825.3
0.275856 0.186031 0 13847
0.280172 0.188942 0 13893.7
0.284514 0.19187 0 13902.3
0.288881 0.194815 0 13905.6
0.293272 0.197777 0 13883.2
0.297687 0.200754 0 13856
0.302124 0.203746 0 13898.4
0.306581 0.206752 0 13940.9
0.311058 0.209772 0 13953
0.315554 0.212804 0 13922.4
0.320067 0.215847 0 13840.3
0.324595 0.218901 0 13816.4
0.329138 0.221965 0 13818.4
0.333695 0.225038 0 13883.2
0.338264 0.228119 0 13954.8
0.342843 0.231208 0 13991.4
0.347432 0.234302 0 13965.3
0.352029 0.237402 0 13853.8
0.356632 0.240507 0 13687.5
0.361241 0.243616 0 13519.7
0.365854 0.246727 0 13408.8
0.370469 0.249839 0 13397.9
0.375085 0.252953 0 13444.7
0.379702 0.256066 0 13533.2
0.384317 0.259178 0 13623.8
0.388929 0.262289 0 13685.8
0.393537 0.265396 0 13738.2
0.398139 0.2685 0 13784.3
0.402734 0.271598 0 13830.5
0.407321 0.274692 0 13887
0.411898 0.277779 0 13921.8
0.416464 0.280858 0 13912.3
0.421017 0.283929 0 13851
0.425557 0.286991 0 13724.2
0.430082 0.290042 0 13603.8
0.434591 0.293083 0 13475.3
0.439082 0.296112 0 13418.7
0.443555 0.299128 0 13369.7
0.448008 0.302131 0 13395.3
0.45244 0.30512 0 13444.9
0.456849 0.308094 0 13469.7
0.461235 0.311052 0 13535.2
0.465596 0.313993 0 13577.8
0.469932 0.316917 0 13619.1
0.474241 0.319823 0 13603.5
0.478523 0.322711 0 13572.9
0.482776 0.325579 0 13545.5
0.486999 0.328427 0 13478.8
0.491191 0.331254 0 13404.1
0.495353 0.334061 0 13429.2
