# wallHeatFlux  FACE_DATA 398
# x  y  z  wallHeatFlux
-0.7975 -7.61524e-06 0 -177986
-0.79239 -7.61524e-06 0 -35259.9
-0.787056 -7.61524e-06 0 -21449
-0.781492 -7.61524e-06 0 -17060.8
-0.775691 -7.61524e-06 0 -14362.6
-0.769649 -7.61524e-06 0 -12654.9
-0.763361 -7.61524e-06 0 -11513.1
-0.756822 -7.61524e-06 0 -10688.8
-0.750025 -7.61524e-06 0 -10061.3
-0.742968 -7.61524e-06 0 -9582.99
-0.735648 -7.61524e-06 0 -9263.68
-0.72806 -7.61524e-06 0 -9135.69
-0.720203 -7.61524e-06 0 -9306.11
-0.712075 -7.61524e-06 0 -9823.48
-0.703676 -7.61524e-06 0 -10533.5
-0.695006 -7.61524e-06 0 -11233.7
-0.686065 -7.61524e-06 0 -11801.3
-0.676855 -7.61524e-06 0 -12225.4
-0.667379 -7.61524e-06 0 -12532.3
-0.657641 -7.61524e-06 0 -12738.1
-0.647644 -7.61524e-06 0 -12868.6
-0.637398 -7.61524e-06 0 -12940.1
-0.626906 -7.61524e-06 0 -12969.2
-0.616179 -7.61524e-06 0 -12975.9
-0.605225 -7.61524e-06 0 -12945.2
-0.594054 -7.61524e-06 0 -12898
-0.582677 -7.61524e-06 0 -12844.5
-0.57111 -7.61524e-06 0 -12790.7
-0.559364 -7.61524e-06 0 -12725.9
-0.547454 -7.61524e-06 0 -12660.3
-0.535396 -7.61524e-06 0 -12594.3
-0.523205 -7.61524e-06 0 -12532.7
-0.510901 -7.61524e-06 0 -12471.1
-0.498499 -7.61524e-06 0 -12413.8
-0.486021 -7.61524e-06 0 -12361.5
-0.473482 -7.61524e-06 0 -12324.8
-0.460905 -7.61524e-06 0 -12287.3
-0.448307 -7.61524e-06 0 -12238.9
-0.435709 -7.61524e-06 0 -12195.4
-0.42313 -7.61524e-06 0 -12161.8
-0.41059 -7.61524e-06 0 -12154.8
-0.39811 -7.61524e-06 0 -12152.8
-0.385706 -7.61524e-06 0 -12139.5
-0.373398 -7.61524e-06 0 -12104.7
-0.361205 -7.61524e-06 0 -12074.9
-0.349142 -7.61524e-06 0 -12050
-0.337226 -7.61524e-06 0 -12046.5
-0.325475 -7.61524e-06 0 -12064.3
-0.313901 -7.61524e-06 0 -12087.4
-0.30252 -7.61524e-06 0 -12094.2
-0.291343 -7.61524e-06 0 -12085.1
-0.280381 -7.61524e-06 0 -12049.1
-0.269647 -7.61524e-06 0 -12013
-0.259148 -7.61524e-06 0 -11982.3
-0.248893 -7.61524e-06 0 -11962.8
-0.23889 -7.61524e-06 0 -11970.2
-0.229143 -7.61524e-06 0 -11993.5
-0.219659 -7.61524e-06 0 -12033.4
-0.210441 -7.61524e-06 0 -12067.8
-0.201491 -7.61524e-06 0 -12097.7
-0.192812 -7.61524e-06 0 -12121.5
-0.184405 -7.61524e-06 0 -12125.3
-0.176269 -7.61524e-06 0 -12123.1
-0.168404 -7.61524e-06 0 -12105.4
-0.160809 -7.61524e-06 0 -12077
-0.15348 -7.61524e-06 0 -12038.8
-0.146415 -7.61524e-06 0 -12006.1
-0.13961 -7.61524e-06 0 -11978.4
-0.133063 -7.61524e-06 0 -11951.3
-0.126767 -7.61524e-06 0 -11929.7
-0.120717 -7.61524e-06 0 -11913.7
-0.11491 -7.61524e-06 0 -11903.2
-0.109339 -7.61524e-06 0 -11908.9
-0.103997 -7.61524e-06 0 -11919.7
-0.0988804 -7.61524e-06 0 -11931.7
-0.0939809 -7.61524e-06 0 -11948.3
-0.0892928 -7.61524e-06 0 -11965.3
-0.0848096 -7.61524e-06 0 -11987.7
-0.0805248 -7.61524e-06 0 -12004.8
-0.0764317 -7.61524e-06 0 -12022.1
-0.0725237 -7.61524e-06 0 -12039.3
-0.0687943 -7.61524e-06 0 -12056.8
-0.065237 -7.61524e-06 0 -12074.1
-0.0618454 -7.61524e-06 0 -12086.4
-0.058613 -7.61524e-06 0 -12098.4
-0.0555337 -7.61524e-06 0 -12105.4
-0.0526013 -7.61524e-06 0 -12117.5
-0.0498099 -7.61524e-06 0 -12124.4
-0.0471536 -7.61524e-06 0 -12131.3
-0.0446266 -7.61524e-06 0 -12138.2
-0.0422235 -7.61524e-06 0 -12139.7
-0.0399389 -7.61524e-06 0 -12146.6
-0.0377676 -7.61524e-06 0 -12148.1
-0.0357044 -7.61524e-06 0 -12149.8
-0.0337445 -7.61524e-06 0 -12151.2
-0.0318832 -7.61524e-06 0 -12152.8
-0.0301159 -7.61524e-06 0 -12148.9
-0.0284383 -7.61524e-06 0 -12150.5
-0.0268462 -7.61524e-06 0 -12146.7
-0.0253353 -7.61524e-06 0 -12148.2
-0.023902 -7.61524e-06 0 -12224.8
-0.0225425 -7.61524e-06 0 -13444
-0.0212532 -7.61524e-06 0 -18248.3
-0.0200306 -7.61524e-06 0 -19484.6
-0.0188715 -7.61524e-06 0 -16857.4
-0.0177727 -7.61524e-06 0 -16006.2
-0.0167313 -7.61524e-06 0 -16330.5
-0.0157444 -7.61524e-06 0 -17320.6
-0.0148093 -7.61524e-06 0 -18214.1
-0.0139232 -7.61524e-06 0 -18915.7
-0.0130838 -7.61524e-06 0 -19487.1
-0.0122887 -7.61524e-06 0 -19985.2
-0.0115355 -7.61524e-06 0 -20439.4
-0.0108223 -7.61524e-06 0 -20856.7
-0.0101469 -7.61524e-06 0 -21209.7
-0.00950727 -7.61524e-06 0 -21504
-0.00890169 -7.61524e-06 0 -21707.2
-0.00832834 -7.61524e-06 0 -21808.6
-0.00778557 -7.61524e-06 0 -21835
-0.00727176 -7.61524e-06 0 -21802.7
-0.00678541 -7.61524e-06 0 -21679.1
-0.00632507 -7.61524e-06 0 -21518.4
-0.00588937 -7.61524e-06 0 -21395.7
-0.00547703 -7.61524e-06 0 -21349.1
-0.00508681 -7.61524e-06 0 -21394.7
-0.00471753 -7.61524e-06 0 -21592.3
-0.0043681 -7.61524e-06 0 -21963.5
-0.00403746 -7.61524e-06 0 -22514.5
-0.00372461 -7.61524e-06 0 -23224.4
-0.0034286 -7.61524e-06 0 -24077.4
-0.00314855 -7.61524e-06 0 -25052.9
-0.00288361 -7.61524e-06 0 -26125.6
-0.00263295 -7.61524e-06 0 -27263.3
-0.00239582 -7.61524e-06 0 -28452.6
-0.00217149 -7.61524e-06 0 -29662.4
-0.00195929 -7.61524e-06 0 -30847.1
-0.00175856 -7.61524e-06 0 -31988.1
-0.00156869 -7.61524e-06 0 -33040.5
-0.00138908 -7.61524e-06 0 -34004.5
-0.00121921 -7.61524e-06 0 -34841.8
-0.00105853 -7.61524e-06 0 -35573.6
-0.000906546 -7.61524e-06 0 -35863.4
-0.000762803 -7.61524e-06 0 -35750
-0.000626849 -7.61524e-06 0 -35066
-0.000498266 -7.61524e-06 0 -33662.3
-0.000376656 -7.61524e-06 0 -31338.2
-0.000261642 -7.61524e-06 0 -27898.4
-0.00015287 -7.61524e-06 0 -22999.5
-5e-05 -7.61524e-06 0 -15585.5
4.14596e-05 2.03453e-05 0 -14717.3
0.000125379 7.69412e-05 0 -18294.2
0.000211356 0.000134924 0 -20555.1
0.000299438 0.000194328 0 -22370.4
0.000389678 0.000255186 0 -23968.9
0.000482128 0.000317535 0 -25410.8
0.000576841 0.000381409 0 -26735.2
0.000673871 0.000446848 0 -27953.7
0.000773276 0.000513887 0 -29066
0.000875112 0.000582565 0 -30077.9
0.000979439 0.000652924 0 -30993.6
0.00108632 0.000725003 0 -31831
0.00119581 0.000798843 0 -32588.5
0.00130797 0.000874487 0 -33302.1
0.00142287 0.000951979 0 -33976.7
0.00154058 0.00103136 0 -34606.2
0.00166117 0.00111268 0 -35193
0.00178469 0.00119599 0 -35768.9
0.00191123 0.00128133 0 -36344.5
0.00204085 0.00136875 0 -36914.4
0.00217364 0.0014583 0 -37499.8
0.00230966 0.00155003 0 -38090.8
0.00244899 0.001644 0 -38707.4
0.00259171 0.00174025 0 -39340.6
0.00273791 0.00183885 0 -40000.9
0.00288767 0.00193985 0 -40698.2
0.00304108 0.0020433 0 -41425
0.0031982 0.00214927 0 -42193.4
0.00335915 0.00225781 0 -43008.8
0.003524 0.002369 0 -43866.9
0.00369286 0.00248287 0 -44779.1
0.00386582 0.00259951 0 -45742.2
0.00404297 0.00271899 0 -46768.7
0.00422442 0.00284136 0 -47861.9
0.00441026 0.00296669 0 -49026.3
0.0046006 0.00309506 0 -50265.3
0.00479556 0.00322653 0 -51585.5
0.00499523 0.00336119 0 -53005.5
0.00519972 0.00349911 0 -54514.6
0.00540916 0.00364036 0 -56135.4
0.00562366 0.00378501 0 -57867.6
0.00584334 0.00393316 0 -59727.5
0.00606831 0.00408489 0 -61720.2
0.00629871 0.00424027 0 -63861.7
0.00653466 0.0043994 0 -66157.2
0.00677629 0.00456236 0 -68626
0.00702374 0.00472923 0 -71273.7
0.00727714 0.00490013 0 -74135.6
0.00753663 0.00507513 0 -77204.8
0.00780234 0.00525433 0 -80522.5
0.00807444 0.00543783 0 -84097.4
0.00835306 0.00562573 0 -87956.2
0.00863835 0.00581814 0 -92137.8
0.00893047 0.00601514 0 -96659.9
0.00922958 0.00621687 0 -101587
0.00953584 0.00642341 0 -106916
0.00984939 0.00663489 0 -112717
0.0101705 0.00685141 0 -118910
0.0104992 0.00707309 0 -125552
0.0108357 0.00730005 0 -132637
0.0111802 0.00753241 0 -140060
0.011533 0.0077703 0 -147877
0.0118941 0.00801384 0 -156408
0.0122638 0.00826316 0 -165719
0.0126422 0.00851837 0 -175796
0.0130296 0.00877964 0 -186919
0.0134262 0.00904708 0 -199010
0.0138321 0.00932084 0 -212009
0.0142476 0.00960107 0 -225977
0.0146729 0.00988792 0 -241570
0.0151082 0.0101815 0 -258292
0.0155538 0.0104819 0 -276130
0.0160098 0.0107895 0 -295384
0.0164766 0.0111042 0 -315689
0.0169542 0.0114263 0 -337810
0.0174429 0.011756 0 -359346
0.0179431 0.0120934 0 -380330
0.018455 0.0124386 0 -395474
0.0189789 0.0127918 0 -407261
0.0195149 0.0131533 0 -408188
0.0200633 0.0135232 0 -394799
0.0206245 0.0139016 0 -377259
0.0211986 0.0142888 0 -355470
0.0217861 0.014685 0 -333527
0.022387 0.0150903 0 -311392
0.0230018 0.0155049 0 -292050
0.0236307 0.0159291 0 -275753
0.0242741 0.0163629 0 -261493
0.0249322 0.0168068 0 -250959
0.0256053 0.0172608 0 -243880
0.0262939 0.0177251 0 -238685
0.0269981 0.0182 0 -232416
0.0277183 0.0186857 0 -227262
0.0284548 0.0191825 0 -222825
0.029208 0.0196904 0 -220168
0.0299782 0.0202098 0 -216316
0.0307658 0.0207409 0 -212465
0.031571 0.021284 0 -210205
0.0323942 0.0218393 0 -209506
0.033236 0.0224069 0 -207210
0.0340965 0.0229872 0 -203573
0.0349762 0.0235805 0 -198714
0.0358753 0.0241869 0 -198101
0.0367944 0.0248067 0 -200206
0.0377338 0.0254403 0 -200609
0.0386938 0.0260877 0 -198143
0.039675 0.0267494 0 -194146
0.0406776 0.0274256 0 -190427
0.0417021 0.0281165 0 -188070
0.0427488 0.0288225 0 -187202
0.0438183 0.0295437 0 -186803
0.0449109 0.0302805 0 -185717
0.046027 0.0310332 0 -184007
0.0471671 0.0318021 0 -182370
0.0483315 0.0325874 0 -181132
0.0495209 0.0333895 0 -179886
0.0507354 0.0342086 0 -178617
0.0519756 0.035045 0 -177297
0.053242 0.0358991 0 -176168
0.054535 0.036771 0 -175167
0.0558549 0.0376613 0 -174575
0.0572024 0.03857 0 -174278
0.0585778 0.0394976 0 -173918
0.0599816 0.0404443 0 -173304
0.0614142 0.0414105 0 -172303
0.0628761 0.0423964 0 -171352
0.0643678 0.0434024 0 -170658
0.0658897 0.0444287 0 -170758
0.0674422 0.0454758 0 -171368
0.069026 0.0465439 0 -171759
0.0706413 0.0476333 0 -171806
0.0722886 0.0487443 0 -171621
0.0739685 0.0498771 0 -171408
0.0756813 0.0510323 0 -171657
0.0774275 0.05221 0 -172148
0.0792077 0.0534105 0 -172398
0.0810221 0.0546342 0 -172527
0.0828712 0.0558812 0 -172930
0.0847556 0.0571521 0 -173375
0.0866757 0.058447 0 -173977
0.0886318 0.0597661 0 -174524
0.0906244 0.06111 0 -175072
0.0926539 0.0624787 0 -175952
0.0947207 0.0638726 0 -176899
0.0968252 0.0652919 0 -177729
0.0989682 0.066737 0 -176620
0.101149 0.068208 0 -176952
0.103369 0.0697052 0 -176592
0.105629 0.0712289 0 -179132
0.107928 0.0727794 0 -176781
0.110267 0.0743568 0 -177083
0.112646 0.0759614 0 -174686
0.115066 0.0775934 0 -176967
0.117527 0.079253 0 -174290
0.120029 0.0809404 0 -175337
0.122572 0.0826558 0 -175762
0.125158 0.0843994 0 -176011
0.127785 0.0861713 0 -176848
0.130454 0.0879717 0 -176134
0.133167 0.0898008 0 -175435
0.135921 0.0916586 0 -174910
0.138719 0.0935453 0 -174573
0.141559 0.095461 0 -175326
0.144443 0.0974057 0 -171718
0.14737 0.0993798 0 -169481
0.15034 0.101383 0 -170629
0.153354 0.103415 0 -170786
0.156411 0.105477 0 -170121
0.159511 0.107568 0 -172027
0.162655 0.109688 0 -168934
0.165842 0.111837 0 -169702
0.169073 0.114016 0 -174735
0.172346 0.116223 0 -169586
0.175663 0.118461 0 -168339
0.179022 0.120727 0 -174228
0.182425 0.123021 0 -167700
0.18587 0.125344 0 -166269
0.189357 0.127696 0 -168025
0.192886 0.130076 0 -168492
0.196457 0.132484 0 -170803
0.200069 0.13492 0 -169509
0.203722 0.137384 0 -165610
0.207416 0.139875 0 -166127
0.21115 0.142393 0 -168065
0.214924 0.144938 0 -166540
0.218736 0.147509 0 -166861
0.222587 0.150107 0 -163830
0.226476 0.152729 0 -165184
0.230403 0.155377 0 -166008
0.234366 0.15805 0 -165755
0.238366 0.160748 0 -162904
0.242401 0.163469 0 -165552
0.24647 0.166214 0 -163863
0.250573 0.168981 0 -162400
0.25471 0.17177 0 -162525
0.258878 0.174582 0 -163735
0.263078 0.177414 0 -160849
0.267309 0.180266 0 -167272
0.271568 0.183139 0 -155710
0.275856 0.186031 0 -157474
0.280172 0.188942 0 -159082
0.284514 0.19187 0 -168275
0.288881 0.194815 0 -162450
0.293272 0.197777 0 -158891
0.297687 0.200754 0 -167297
0.302124 0.203746 0 -158888
0.306581 0.206752 0 -159048
0.311058 0.209772 0 -158134
0.315554 0.212804 0 -158305
0.320067 0.215847 0 -166973
0.324595 0.218901 0 -155855
0.329138 0.221965 0 -157166
0.333695 0.225038 0 -158989
0.338264 0.228119 0 -161628
0.342843 0.231208 0 -163873
0.347432 0.234302 0 -162692
0.352029 0.237402 0 -162252
0.356632 0.240507 0 -155323
0.361241 0.243616 0 -147297
0.365854 0.246727 0 -143134
0.370469 0.249839 0 -144622
0.375085 0.252953 0 -146571
0.379702 0.256066 0 -145033
0.384317 0.259178 0 -148881
0.388929 0.262289 0 -150007
0.393537 0.265396 0 -149879
0.398139 0.2685 0 -152341
0.402734 0.271598 0 -154524
0.407321 0.274692 0 -154481
0.411898 0.277779 0 -157199
0.416464 0.280858 0 -159499
0.421017 0.283929 0 -160589
0.425557 0.286991 0 -160920
0.430082 0.290042 0 -157060
0.434591 0.293083 0 -156516
0.439082 0.296112 0 -143640
0.443555 0.299128 0 -148747
0.448008 0.302131 0 -145898
0.45244 0.30512 0 -146378
0.456849 0.308094 0 -159990
0.461235 0.311052 0 -154287
0.465596 0.313993 0 -153623
0.469932 0.316917 0 -147995
0.474241 0.319823 0 -147521
0.478523 0.322711 0 -146999
0.482776 0.325579 0 -144123
0.486999 0.328427 0 -144128
0.491191 0.331254 0 -154439
0.495353 0.334061 0 -133668
