# Wall heat-flux
# Time        	patch         	min           	max           	integral      
9200          	base	-3.652506e+06	-3.234967e+04	-9.571219e+03
