# p  FACE_DATA 398
# x  y  z  p
-0.7975 0 0.025 4472.56
-0.79239 0 0.025 3681.76
-0.787056 0 0.025 2933.83
-0.781492 0 0.025 2838.27
-0.775691 0 0.025 2790.7
-0.769649 0 0.025 2789.43
-0.763362 0 0.025 2816.91
-0.756822 0 0.025 2839.41
-0.750025 0 0.025 2854.16
-0.742968 0 0.025 2861.34
-0.735648 0 0.025 2866.1
-0.72806 0 0.025 2867.2
-0.720203 0 0.025 2866.46
-0.712076 0 0.025 2864.8
-0.703677 0 0.025 2864.52
-0.695006 0 0.025 2863.71
-0.686065 0 0.025 2862.38
-0.676855 0 0.025 2861.35
-0.667379 0 0.025 2859.01
-0.65764 0 0.025 2854.96
-0.647644 0 0.025 2853.41
-0.637397 0 0.025 2853.64
-0.626906 0 0.025 2849.25
-0.616179 0 0.025 2848.12
-0.605224 0 0.025 2846
-0.594054 0 0.025 2844.19
-0.582678 0 0.025 2841.55
-0.57111 0 0.025 2840.04
-0.559364 0 0.025 2837.99
-0.547454 0 0.025 2837.07
-0.535396 0 0.025 2834.36
-0.523205 0 0.025 2832.92
-0.510901 0 0.025 2830.86
-0.4985 0 0.025 2828.51
-0.486021 0 0.025 2827.48
-0.473483 0 0.025 2826.05
-0.460905 0 0.025 2824.08
-0.448308 0 0.025 2822.56
-0.435709 0 0.025 2820.45
-0.42313 0 0.025 2818.03
-0.41059 0 0.025 2817.34
-0.39811 0 0.025 2817.43
-0.385706 0 0.025 2816.16
-0.373398 0 0.025 2813.89
-0.361205 0 0.025 2812.22
-0.349141 0 0.025 2810.69
-0.337226 0 0.025 2808.89
-0.325475 0 0.025 2807.25
-0.313901 0 0.025 2806.66
-0.30252 0 0.025 2806.6
-0.291343 0 0.025 2806.5
-0.280382 0 0.025 2805.74
-0.269646 0 0.025 2804.47
-0.259148 0 0.025 2802.61
-0.248893 0 0.025 2801.23
-0.23889 0 0.025 2799.87
-0.229143 0 0.025 2798.77
-0.219659 0 0.025 2797.67
-0.210441 0 0.025 2796.86
-0.201491 0 0.025 2795.88
-0.192812 0 0.025 2794.85
-0.184405 0 0.025 2793.4
-0.176269 0 0.025 2792.39
-0.168404 0 0.025 2791.59
-0.160808 0 0.025 2791.39
-0.15348 0 0.025 2791.6
-0.146415 0 0.025 2792.14
-0.13961 0 0.025 2792.66
-0.133063 0 0.025 2793.28
-0.126767 0 0.025 2793.79
-0.120718 0 0.025 2794.27
-0.11491 0 0.025 2794.49
-0.109339 0 0.025 2794.39
-0.103997 0 0.025 2793.92
-0.0988805 0 0.025 2793.21
-0.0939808 0 0.025 2792.21
-0.0892928 0 0.025 2791.01
-0.0848096 0 0.025 2789.68
-0.0805248 0 0.025 2788.32
-0.0764316 0 0.025 2786.99
-0.0725237 0 0.025 2785.76
-0.0687943 0 0.025 2784.62
-0.065237 0 0.025 2783.56
-0.0618454 0 0.025 2782.59
-0.058613 0 0.025 2781.73
-0.0555337 0 0.025 2780.98
-0.0526013 0 0.025 2780.31
-0.0498099 0 0.025 2779.73
-0.0471536 0 0.025 2779.21
-0.0446266 0 0.025 2778.75
-0.0422235 0 0.025 2778.34
-0.039939 0 0.025 2777.99
-0.0377676 0 0.025 2777.63
-0.0357044 0 0.025 2777.51
-0.0337445 0 0.025 2777.61
-0.0318832 0 0.025 2831.95
-0.0301159 0 0.025 3588.52
-0.0284383 0 0.025 5182.29
-0.0268461 0 0.025 6412.75
-0.0253353 0 0.025 7278
-0.023902 0 0.025 7855.59
-0.0225426 0 0.025 8317.02
-0.0212532 0 0.025 8719.73
-0.0200306 0 0.025 9058.37
-0.0188715 0 0.025 9355.23
-0.0177728 0 0.025 9619.61
-0.0167313 0 0.025 9853.25
-0.0157444 0 0.025 10064.8
-0.0148092 0 0.025 10259.5
-0.0139232 0 0.025 10440.7
-0.0130838 0 0.025 10609.3
-0.0122887 0 0.025 10765.9
-0.0115356 0 0.025 10911.6
-0.0108223 0 0.025 11047
-0.0101469 0 0.025 11171.9
-0.00950727 0 0.025 11286.3
-0.00890168 0 0.025 11390.2
-0.00832835 0 0.025 11484.1
-0.00778557 0 0.025 11568.8
-0.00727176 0 0.025 11645
-0.0067854 0 0.025 11714
-0.00632507 0 0.025 11777.1
-0.00588937 0 0.025 11835.8
-0.00547703 0 0.025 11891.9
-0.0050868 0 0.025 11946.7
-0.00471753 0 0.025 12001.3
-0.0043681 0 0.025 12057.4
-0.00403746 0 0.025 12116.8
-0.00372461 0 0.025 12179.6
-0.0034286 0 0.025 12246.5
-0.00314855 0 0.025 12318.9
-0.0028836 0 0.025 12400.3
-0.00263294 0 0.025 12484.5
-0.00239581 0 0.025 12572.8
-0.0021715 0 0.025 12666.4
-0.00195929 0 0.025 12764.7
-0.00175856 0 0.025 12866.9
-0.00156869 0 0.025 12972.3
-0.00138908 0 0.025 13080
-0.0012192 0 0.025 13189.2
-0.00105853 0 0.025 13298.6
-0.000906546 0 0.025 13406.3
-0.000762803 0 0.025 13509.6
-0.000626848 0 0.025 13604.4
-0.000498265 0 0.025 13684.2
-0.000376656 0 0.025 13740.8
-0.000261642 0 0.025 13767
-0.00015287 0 0.025 13770.9
-5e-05 0 0.025 13849.7
4.14519e-05 2.79596e-05 0.025 13450
0.000125371 8.45641e-05 0.025 13539.7
0.000211347 0.000142556 0.025 13506.3
0.000299429 0.000201968 0.025 13441
0.000389669 0.000262835 0.025 13363.1
0.000482118 0.000325193 0.025 13282.6
0.000576831 0.000389077 0.025 13204.8
0.000673861 0.000454524 0.025 13133.8
0.000773265 0.000521574 0.025 13072.5
0.0008751 0.000590262 0.025 13022.7
0.000979426 0.000660632 0.025 12985.1
0.0010863 0.000732721 0.025 12960.8
0.00119579 0.000806572 0.025 12945.2
0.00130795 0.000882227 0.025 12943.8
0.00142285 0.00095973 0.025 12954.6
0.00154056 0.00103912 0.025 12975.3
0.00166115 0.00112046 0.025 13006.6
0.00178467 0.00120378 0.025 13048.4
0.00191121 0.00128913 0.025 13099.5
0.00204083 0.00137656 0.025 13160.2
0.00217362 0.00146612 0.025 13229.8
0.00230964 0.00155787 0.025 13307.4
0.00244897 0.00165185 0.025 13394.6
0.00259169 0.00174812 0.025 13489.2
0.00273789 0.00184673 0.025 13592.1
0.00288765 0.00194774 0.025 13703.1
0.00304105 0.00205122 0.025 13822.2
0.00319818 0.00215719 0.025 13949.6
0.00335912 0.00226575 0.025 14085.3
0.00352397 0.00237695 0.025 14229.1
0.00369283 0.00249085 0.025 14381.6
0.00386579 0.00260751 0.025 14543.3
0.00404294 0.00272699 0.025 14713.8
0.00422438 0.00284938 0.025 14893.9
0.00441022 0.00297474 0.025 15084
0.00460056 0.00310312 0.025 15284.9
0.00479552 0.00323462 0.025 15497
0.00499519 0.0033693 0.025 15720.6
0.00519968 0.00350723 0.025 15957.3
0.00540911 0.00364849 0.025 16207.3
0.00562361 0.00379318 0.025 16472
0.00584329 0.00394134 0.025 16752.2
0.00606826 0.00409309 0.025 17049
0.00629865 0.00424849 0.025 17363.6
0.0065346 0.00440764 0.025 17697.8
0.00677623 0.00457063 0.025 18052.3
0.00702368 0.00473753 0.025 18429.7
0.00727707 0.00490844 0.025 18830.8
0.00753655 0.00508347 0.025 19257.8
0.00780227 0.00526269 0.025 19713.1
0.00807436 0.00544622 0.025 20198.3
0.00835298 0.00563415 0.025 20716.5
0.00863826 0.00582659 0.025 21269.9
0.00893038 0.00602362 0.025 21861.9
0.00922949 0.00622537 0.025 22495
0.00953574 0.00643195 0.025 23173.2
0.00984929 0.00664345 0.025 23898.8
0.0101703 0.00686 0.025 24676.9
0.0104991 0.00708171 0.025 25509.5
0.0108356 0.00730871 0.025 26401.9
0.0111801 0.0075411 0.025 27361.2
0.0115329 0.00777902 0.025 28390.4
0.011894 0.00802259 0.025 29496.8
0.0122637 0.00827194 0.025 30689.3
0.0126421 0.00852719 0.025 31975.2
0.0130295 0.0087885 0.025 33366.5
0.013426 0.00905597 0.025 34871.7
0.013832 0.00932978 0.025 36509.2
0.0142475 0.00961003 0.025 38289.9
0.0146727 0.0098969 0.025 40229.2
0.0151081 0.0101905 0.025 42343.3
0.0155536 0.010491 0.025 44646.1
0.0160097 0.0107986 0.025 47161.6
0.0164764 0.0111134 0.025 49902
0.016954 0.0114356 0.025 52886.9
0.0174427 0.0117653 0.025 56127.5
0.0179429 0.0121026 0.025 59641.7
0.0184548 0.0124479 0.025 63434.3
0.0189786 0.0128013 0.025 67521.9
0.0195146 0.0131628 0.025 71927.9
0.020063 0.0135327 0.025 76657.7
0.0206242 0.0139112 0.025 81739.8
0.0211983 0.0142984 0.025 87246.3
0.0217857 0.0146947 0.025 93254.7
0.0223867 0.0151 0.025 99847.7
0.0230015 0.0155147 0.025 107045
0.0236304 0.0159389 0.025 114901
0.0242738 0.0163729 0.025 123407
0.0249318 0.0168167 0.025 132574
0.025605 0.0172708 0.025 142398
0.0262935 0.0177352 0.025 152583
0.0269977 0.0182102 0.025 162659
0.0277178 0.0186959 0.025 171211
0.0284544 0.0191927 0.025 176742
0.0292075 0.0197008 0.025 177892
0.0299777 0.0202203 0.025 177775
0.0307653 0.0207514 0.025 172456
0.0315704 0.0212945 0.025 167997
0.0323937 0.0218499 0.025 163692
0.0332354 0.0224176 0.025 159289
0.0340959 0.022998 0.025 154753
0.0349755 0.0235913 0.025 150130
0.0358747 0.0241978 0.025 145682
0.0367938 0.0248178 0.025 141499
0.0377331 0.0254513 0.025 137852
0.0386932 0.0260989 0.025 134806
0.0396743 0.0267606 0.025 132393
0.0406769 0.0274369 0.025 130551
0.0417013 0.0281279 0.025 129217
0.042748 0.0288339 0.025 128304
0.0438175 0.0295552 0.025 127586
0.04491 0.0302922 0.025 126905
0.0460262 0.031045 0.025 126218
0.0471662 0.031814 0.025 125602
0.0483306 0.0325995 0.025 125205
0.0495199 0.0334016 0.025 125247
0.0507344 0.0342208 0.025 125379
0.0519746 0.0350573 0.025 125362
0.0532409 0.0359114 0.025 125505
0.0545339 0.0367835 0.025 125839
0.0558538 0.0376739 0.025 126302
0.0572012 0.0385827 0.025 126509
0.0585766 0.0395104 0.025 126482
0.0599804 0.0404573 0.025 126308
0.061413 0.0414236 0.025 126710
0.0628748 0.0424096 0.025 127522
0.0643665 0.0434157 0.025 128186
0.0658883 0.0444422 0.025 128301
0.0674408 0.0454894 0.025 128106
0.0690245 0.0465576 0.025 127888
0.0706398 0.0476471 0.025 128218
0.0722871 0.0487582 0.025 128733
0.0739669 0.0498912 0.025 129029
0.0756797 0.0510466 0.025 128918
0.0774258 0.0522244 0.025 128442
0.0792059 0.053425 0.025 128027
0.0810203 0.0546489 0.025 128404
0.0828694 0.0558961 0.025 129210
0.0847537 0.0571671 0.025 130319
0.0866737 0.0584622 0.025 131143
0.0886298 0.0597816 0.025 131183
0.0906224 0.0611256 0.025 130974
0.0926518 0.0624944 0.025 130330
0.0947185 0.0638884 0.025 129604
0.096823 0.065308 0.025 128863
0.0989659 0.0667532 0.025 128476
0.101147 0.0682245 0.025 128049
0.103367 0.0697219 0.025 128119
0.105626 0.0712458 0.025 128445
0.107926 0.0727965 0.025 128758
0.110265 0.074374 0.025 129066
0.112644 0.0759789 0.025 129144
0.115063 0.0776111 0.025 129863
0.117524 0.0792709 0.025 129976
0.120026 0.0809585 0.025 130093
0.122569 0.0826741 0.025 130387
0.125155 0.0844179 0.025 130168
0.127782 0.0861901 0.025 129683
0.130451 0.0879908 0.025 128919
0.133163 0.08982 0.025 128336
0.135918 0.0916781 0.025 128348
0.138716 0.0935651 0.025 129165
0.141556 0.095481 0.025 130199
0.14444 0.097426 0.025 130627
0.147367 0.0994004 0.025 129778
0.150337 0.101404 0.025 129673
0.153351 0.103437 0.025 128501
0.156408 0.105498 0.025 126773
0.159508 0.107589 0.025 127520
0.162651 0.10971 0.025 127232
0.165838 0.111859 0.025 125353
0.169069 0.114039 0.025 128161
0.172343 0.116247 0.025 126001
0.175659 0.118483 0.025 125013
0.179018 0.120749 0.025 123627
0.182421 0.123045 0.025 122238
0.185866 0.125368 0.025 122150
0.189353 0.12772 0.025 122580
0.192882 0.1301 0.025 123146
0.196453 0.132509 0.025 123324
0.200065 0.134946 0.025 122321
0.203718 0.13741 0.025 121767
0.207412 0.139901 0.025 121461
0.211146 0.14242 0.025 120334
0.214919 0.144965 0.025 119300
0.218732 0.147537 0.025 119990
0.222583 0.150134 0.025 119734
0.226472 0.152757 0.025 121170
0.230399 0.155406 0.025 121267
0.234362 0.15808 0.025 121703
0.238362 0.160777 0.025 121308
0.242396 0.163498 0.025 121743
0.246466 0.166244 0.025 121567
0.250569 0.169012 0.025 122742
0.254706 0.171801 0.025 121579
0.258874 0.174613 0.025 121155
0.263074 0.177446 0.025 120358
0.267304 0.180299 0.025 120747
0.271564 0.183172 0.025 121184
0.275852 0.186064 0.025 120678
0.280168 0.188975 0.025 121273
0.28451 0.191904 0.025 120902
0.288876 0.19485 0.025 120215
0.293268 0.197812 0.025 120796
0.297683 0.20079 0.025 119753
0.302119 0.203782 0.025 119369
0.306577 0.206788 0.025 120007
0.311054 0.209808 0.025 119350
0.315549 0.212841 0.025 120125
0.320063 0.215885 0.025 119567
0.324591 0.218939 0.025 120993
0.329134 0.222003 0.025 121610
0.333691 0.225077 0.025 121198
0.33826 0.228159 0.025 121880
0.342839 0.231248 0.025 121624
0.347428 0.234343 0.025 122526
0.352025 0.237444 0.025 121093
0.356628 0.240548 0.025 121329
0.361237 0.243658 0.025 121334
0.36585 0.246769 0.025 119939
0.370465 0.249882 0.025 121836
0.375082 0.252996 0.025 120799
0.379698 0.25611 0.025 120276
0.384313 0.259223 0.025 121347
0.388926 0.262333 0.025 120588
0.393534 0.265442 0.025 121001
0.398136 0.268546 0.025 121316
0.40273 0.271645 0.025 120597
0.407317 0.274739 0.025 120449
0.411894 0.277826 0.025 120076
0.41646 0.280906 0.025 121415
0.421014 0.283977 0.025 120604
0.425554 0.28704 0.025 120419
0.430079 0.290092 0.025 120901
0.434588 0.293133 0.025 120684
0.439079 0.296162 0.025 121419
0.443551 0.299179 0.025 121067
0.448004 0.302183 0.025 120990
0.452437 0.305172 0.025 121118
0.456846 0.308146 0.025 121435
0.461232 0.311105 0.025 121318
0.465593 0.314047 0.025 121478
0.469929 0.316971 0.025 121070
0.474238 0.319878 0.025 122176
0.47852 0.322766 0.025 121841
0.482773 0.325635 0.025 121955
0.486996 0.328483 0.025 121523
0.491189 0.331311 0.025 120843
0.49535 0.334118 0.025 122042
