# wallHeatFlux  FACE_DATA 398
# x  y  z  wallHeatFlux
-0.7975 0 0.025 -653671
-0.79239 0 0.025 -120066
-0.787056 0 0.025 -71286.8
-0.781492 0 0.025 -64481.9
-0.775691 0 0.025 -65894.6
-0.769649 0 0.025 -66711.5
-0.763362 0 0.025 -67323.2
-0.756822 0 0.025 -67238.1
-0.750025 0 0.025 -66753.8
-0.742968 0 0.025 -66009.5
-0.735648 0 0.025 -65146.6
-0.72806 0 0.025 -64224.3
-0.720203 0 0.025 -63244.2
-0.712076 0 0.025 -62355.4
-0.703677 0 0.025 -61561.6
-0.695006 0 0.025 -60814.9
-0.686065 0 0.025 -60088.9
-0.676855 0 0.025 -59367.5
-0.667379 0 0.025 -58655.5
-0.65764 0 0.025 -57975.2
-0.647644 0 0.025 -57382.5
-0.637397 0 0.025 -56831.2
-0.626906 0 0.025 -56216.6
-0.616179 0 0.025 -55693
-0.605224 0 0.025 -55164.7
-0.594054 0 0.025 -54660.8
-0.582678 0 0.025 -54158.6
-0.57111 0 0.025 -53702.6
-0.559364 0 0.025 -53277.8
-0.547454 0 0.025 -52892.7
-0.535396 0 0.025 -52446.9
-0.523205 0 0.025 -52034.1
-0.510901 0 0.025 -51669.9
-0.4985 0 0.025 -51327.9
-0.486021 0 0.025 -51027.4
-0.473483 0 0.025 -50692.3
-0.460905 0 0.025 -50348.9
-0.448308 0 0.025 -50015.2
-0.435709 0 0.025 -49706.5
-0.42313 0 0.025 -49416.1
-0.41059 0 0.025 -49199.9
-0.39811 0 0.025 -49008.9
-0.385706 0 0.025 -48767.3
-0.373398 0 0.025 -48488.1
-0.361205 0 0.025 -48202.6
-0.349141 0 0.025 -47941.6
-0.337226 0 0.025 -47723.6
-0.325475 0 0.025 -47553.3
-0.313901 0 0.025 -47431.1
-0.30252 0 0.025 -47324.2
-0.291343 0 0.025 -47180.9
-0.280382 0 0.025 -46994.6
-0.269646 0 0.025 -46769.9
-0.259148 0 0.025 -46535
-0.248893 0 0.025 -46328.8
-0.23889 0 0.025 -46166.1
-0.229143 0 0.025 -46045.6
-0.219659 0 0.025 -45953.8
-0.210441 0 0.025 -45877.8
-0.201491 0 0.025 -45789
-0.192812 0 0.025 -45681.8
-0.184405 0 0.025 -45552.6
-0.176269 0 0.025 -45432.1
-0.168404 0 0.025 -45313.6
-0.160808 0 0.025 -45211.2
-0.15348 0 0.025 -45133.4
-0.146415 0 0.025 -45088.4
-0.13961 0 0.025 -45031.4
-0.133063 0 0.025 -44997.8
-0.126767 0 0.025 -44970.4
-0.120718 0 0.025 -44949
-0.11491 0 0.025 -44933.7
-0.109339 0 0.025 -44903
-0.103997 0 0.025 -44855.4
-0.0988805 0 0.025 -44812.1
-0.0939808 0 0.025 -44755.3
-0.0892928 0 0.025 -44689.4
-0.0848096 0 0.025 -44612.8
-0.0805248 0 0.025 -44525.9
-0.0764316 0 0.025 -44444.8
-0.0725237 0 0.025 -44352.9
-0.0687943 0 0.025 -44267.2
-0.065237 0 0.025 -44186.2
-0.0618454 0 0.025 -44106.2
-0.058613 0 0.025 -44036.1
-0.0555337 0 0.025 -43967
-0.0526013 0 0.025 -43902.6
-0.0498099 0 0.025 -43838.5
-0.0471536 0 0.025 -43785.1
-0.0446266 0 0.025 -43731.8
-0.0422235 0 0.025 -43689.1
-0.039939 0 0.025 -43641.1
-0.0377676 0 0.025 -43603.4
-0.0357044 0 0.025 -43572.2
-0.0337445 0 0.025 -43513
-0.0318832 0 0.025 -41637.2
-0.0301159 0 0.025 -34962.9
-0.0284383 0 0.025 -39701.5
-0.0268461 0 0.025 -59004.8
-0.0253353 0 0.025 -70102.5
-0.023902 0 0.025 -76386.7
-0.0225426 0 0.025 -81469.9
-0.0212532 0 0.025 -85972.9
-0.0200306 0 0.025 -89669
-0.0188715 0 0.025 -93147.4
-0.0177728 0 0.025 -96331.6
-0.0167313 0 0.025 -99194.9
-0.0157444 0 0.025 -101920
-0.0148092 0 0.025 -104499
-0.0139232 0 0.025 -106854
-0.0130838 0 0.025 -108928
-0.0122887 0 0.025 -110733
-0.0115356 0 0.025 -112323
-0.0108223 0 0.025 -113733
-0.0101469 0 0.025 -115000
-0.00950727 0 0.025 -116162
-0.00890168 0 0.025 -117271
-0.00832835 0 0.025 -118376
-0.00778557 0 0.025 -119527
-0.00727176 0 0.025 -120740
-0.0067854 0 0.025 -122035
-0.00632507 0 0.025 -123421
-0.00588937 0 0.025 -124913
-0.00547703 0 0.025 -126506
-0.0050868 0 0.025 -128207
-0.00471753 0 0.025 -130034
-0.0043681 0 0.025 -131987
-0.00403746 0 0.025 -134062
-0.00372461 0 0.025 -136268
-0.0034286 0 0.025 -138634
-0.00314855 0 0.025 -141200
-0.0028836 0 0.025 -143903
-0.00263294 0 0.025 -146545
-0.00239581 0 0.025 -149276
-0.0021715 0 0.025 -152140
-0.00195929 0 0.025 -155099
-0.00175856 0 0.025 -158149
-0.00156869 0 0.025 -161290
-0.00138908 0 0.025 -164533
-0.0012192 0 0.025 -167826
-0.00105853 0 0.025 -171176
-0.000906546 0 0.025 -174548
-0.000762803 0 0.025 -177819
-0.000626848 0 0.025 -180654
-0.000498265 0 0.025 -182135
-0.000376656 0 0.025 -180386
-0.000261642 0 0.025 -171666
-0.00015287 0 0.025 -148904
-5e-05 0 0.025 -96284.5
4.14519e-05 2.79596e-05 0.025 -67851.5
0.000125371 8.45641e-05 0.025 -81139.8
0.000211347 0.000142556 0.025 -95909.4
0.000299429 0.000201968 0.025 -106930
0.000389669 0.000262835 0.025 -116280
0.000482118 0.000325193 0.025 -125186
0.000576831 0.000389077 0.025 -133604
0.000673861 0.000454524 0.025 -141257
0.000773265 0.000521574 0.025 -148057
0.0008751 0.000590262 0.025 -154056
0.000979426 0.000660632 0.025 -159373
0.0010863 0.000732721 0.025 -164109
0.00119579 0.000806572 0.025 -168372
0.00130795 0.000882227 0.025 -172371
0.00142285 0.00095973 0.025 -176060
0.00154056 0.00103912 0.025 -179590
0.00166115 0.00112046 0.025 -182964
0.00178467 0.00120378 0.025 -186270
0.00191121 0.00128913 0.025 -189567
0.00204083 0.00137656 0.025 -192801
0.00217362 0.00146612 0.025 -196061
0.00230964 0.00155787 0.025 -199372
0.00244897 0.00165185 0.025 -202735
0.00259169 0.00174812 0.025 -206098
0.00273789 0.00184673 0.025 -209577
0.00288765 0.00194774 0.025 -213169
0.00304105 0.00205122 0.025 -216845
0.00319818 0.00215719 0.025 -220621
0.00335912 0.00226575 0.025 -224590
0.00352397 0.00237695 0.025 -228656
0.00369283 0.00249085 0.025 -232902
0.00386579 0.00260751 0.025 -237317
0.00404294 0.00272699 0.025 -241944
0.00422438 0.00284938 0.025 -246797
0.00441022 0.00297474 0.025 -251865
0.00460056 0.00310312 0.025 -257164
0.00479552 0.00323462 0.025 -262717
0.00499519 0.0033693 0.025 -268627
0.00519968 0.00350723 0.025 -274797
0.00540911 0.00364849 0.025 -281354
0.00562361 0.00379318 0.025 -288268
0.00584329 0.00394134 0.025 -295573
0.00606826 0.00409309 0.025 -303405
0.00629865 0.00424849 0.025 -311583
0.0065346 0.00440764 0.025 -320333
0.00677623 0.00457063 0.025 -329632
0.00702368 0.00473753 0.025 -339464
0.00727707 0.00490844 0.025 -350016
0.00753655 0.00508347 0.025 -361286
0.00780227 0.00526269 0.025 -373349
0.00807436 0.00544622 0.025 -386348
0.00835298 0.00563415 0.025 -400274
0.00863826 0.00582659 0.025 -415110
0.00893038 0.00602362 0.025 -431371
0.00922949 0.00622537 0.025 -448930
0.00953574 0.00643195 0.025 -467509
0.00984929 0.00664345 0.025 -488095
0.0101703 0.00686 0.025 -510989
0.0104991 0.00708171 0.025 -536179
0.0108356 0.00730871 0.025 -562262
0.0111801 0.0075411 0.025 -593494
0.0115329 0.00777902 0.025 -627945
0.011894 0.00802259 0.025 -667279
0.0122637 0.00827194 0.025 -708995
0.0126421 0.00852719 0.025 -755839
0.0130295 0.0087885 0.025 -801535
0.013426 0.00905597 0.025 -848440
0.013832 0.00932978 0.025 -898624
0.0142475 0.00961003 0.025 -942699
0.0146727 0.0098969 0.025 -987762
0.0151081 0.0101905 0.025 -1.03294e+06
0.0155536 0.010491 0.025 -1.07783e+06
0.0160097 0.0107986 0.025 -1.12708e+06
0.0164764 0.0111134 0.025 -1.17988e+06
0.016954 0.0114356 0.025 -1.23616e+06
0.0174427 0.0117653 0.025 -1.29115e+06
0.0179429 0.0121026 0.025 -1.34925e+06
0.0184548 0.0124479 0.025 -1.41983e+06
0.0189786 0.0128013 0.025 -1.4726e+06
0.0195146 0.0131628 0.025 -1.52864e+06
0.020063 0.0135327 0.025 -1.59222e+06
0.0206242 0.0139112 0.025 -1.63575e+06
0.0211983 0.0142984 0.025 -1.66938e+06
0.0217857 0.0146947 0.025 -1.70872e+06
0.0223867 0.0151 0.025 -1.74173e+06
0.0230015 0.0155147 0.025 -1.77084e+06
0.0236304 0.0159389 0.025 -1.80655e+06
0.0242738 0.0163729 0.025 -1.81563e+06
0.0249318 0.0168167 0.025 -1.83887e+06
0.025605 0.0172708 0.025 -1.8585e+06
0.0262935 0.0177352 0.025 -1.84769e+06
0.0269977 0.0182102 0.025 -1.83616e+06
0.0277178 0.0186959 0.025 -1.81328e+06
0.0284544 0.0191927 0.025 -1.83584e+06
0.0292075 0.0197008 0.025 -1.76456e+06
0.0299777 0.0202203 0.025 -1.71852e+06
0.0307653 0.0207514 0.025 -1.65865e+06
0.0315704 0.0212945 0.025 -1.6161e+06
0.0323937 0.0218499 0.025 -1.58172e+06
0.0332354 0.0224176 0.025 -1.54922e+06
0.0340959 0.022998 0.025 -1.5211e+06
0.0349755 0.0235913 0.025 -1.48426e+06
0.0358747 0.0241978 0.025 -1.47859e+06
0.0367938 0.0248178 0.025 -1.43885e+06
0.0377331 0.0254513 0.025 -1.40994e+06
0.0386932 0.0260989 0.025 -1.38555e+06
0.0396743 0.0267606 0.025 -1.36448e+06
0.0406769 0.0274369 0.025 -1.35043e+06
0.0417013 0.0281279 0.025 -1.33202e+06
0.042748 0.0288339 0.025 -1.32999e+06
0.0438175 0.0295552 0.025 -1.3164e+06
0.04491 0.0302922 0.025 -1.30333e+06
0.0460262 0.031045 0.025 -1.30391e+06
0.0471662 0.031814 0.025 -1.30669e+06
0.0483306 0.0325995 0.025 -1.28989e+06
0.0495199 0.0334016 0.025 -1.28905e+06
0.0507344 0.0342208 0.025 -1.28603e+06
0.0519746 0.0350573 0.025 -1.28319e+06
0.0532409 0.0359114 0.025 -1.28913e+06
0.0545339 0.0367835 0.025 -1.27752e+06
0.0558538 0.0376739 0.025 -1.27678e+06
0.0572012 0.0385827 0.025 -1.27673e+06
0.0585766 0.0395104 0.025 -1.27742e+06
0.0599804 0.0404573 0.025 -1.28713e+06
0.061413 0.0414236 0.025 -1.27472e+06
0.0628748 0.0424096 0.025 -1.30241e+06
0.0643665 0.0434157 0.025 -1.30647e+06
0.0658883 0.0444422 0.025 -1.28381e+06
0.0674408 0.0454894 0.025 -1.27317e+06
0.0690245 0.0465576 0.025 -1.27253e+06
0.0706398 0.0476471 0.025 -1.2643e+06
0.0722871 0.0487582 0.025 -1.26332e+06
0.0739669 0.0498912 0.025 -1.26194e+06
0.0756797 0.0510466 0.025 -1.27136e+06
0.0774258 0.0522244 0.025 -1.282e+06
0.0792059 0.053425 0.025 -1.27043e+06
0.0810203 0.0546489 0.025 -1.29005e+06
0.0828694 0.0558961 0.025 -1.26553e+06
0.0847537 0.0571671 0.025 -1.31424e+06
0.0866737 0.0584622 0.025 -1.27881e+06
0.0886298 0.0597816 0.025 -1.27954e+06
0.0906224 0.0611256 0.025 -1.29036e+06
0.0926518 0.0624944 0.025 -1.25215e+06
0.0947185 0.0638884 0.025 -1.28853e+06
0.096823 0.065308 0.025 -1.24225e+06
0.0989659 0.0667532 0.025 -1.32468e+06
0.101147 0.0682245 0.025 -1.66586e+06
0.103367 0.0697219 0.025 -1.57791e+06
0.105626 0.0712458 0.025 -1.19569e+06
0.107926 0.0727965 0.025 -1.1977e+06
0.110265 0.074374 0.025 -1.24012e+06
0.112644 0.0759789 0.025 -1.86489e+06
0.115063 0.0776111 0.025 -1.25419e+06
0.117524 0.0792709 0.025 -1.73677e+06
0.120026 0.0809585 0.025 -1.89836e+06
0.122569 0.0826741 0.025 -1.6751e+06
0.125155 0.0844179 0.025 -1.48903e+06
0.127782 0.0861901 0.025 -1.28612e+06
0.130451 0.0879908 0.025 -1.24149e+06
0.133163 0.08982 0.025 -1.21724e+06
0.135918 0.0916781 0.025 -1.18877e+06
0.138716 0.0935651 0.025 -1.19405e+06
0.141556 0.095481 0.025 -1.20531e+06
0.14444 0.097426 0.025 -1.59031e+06
0.147367 0.0994004 0.025 -2.32492e+06
0.150337 0.101404 0.025 -1.66585e+06
0.153351 0.103437 0.025 -1.60598e+06
0.156408 0.105498 0.025 -2.20553e+06
0.159508 0.107589 0.025 -1.02175e+06
0.162651 0.10971 0.025 -1.51184e+06
0.165838 0.111859 0.025 -3.50983e+06
0.169069 0.114039 0.025 -1.65875e+06
0.172343 0.116247 0.025 -1.98381e+06
0.175659 0.118483 0.025 -1.86318e+06
0.179018 0.120749 0.025 -1.8534e+06
0.182421 0.123045 0.025 -1.91227e+06
0.185866 0.125368 0.025 -1.68192e+06
0.189353 0.12772 0.025 -1.72733e+06
0.192882 0.1301 0.025 -1.83811e+06
0.196453 0.132509 0.025 -1.73516e+06
0.200065 0.134946 0.025 -2.12065e+06
0.203718 0.13741 0.025 -1.92015e+06
0.207412 0.139901 0.025 -913401
0.211146 0.14242 0.025 -971101
0.214919 0.144965 0.025 -1.577e+06
0.218732 0.147537 0.025 -967728
0.222583 0.150134 0.025 -1.85379e+06
0.226472 0.152757 0.025 -957869
0.230399 0.155406 0.025 -1.78134e+06
0.234362 0.15808 0.025 -1.67952e+06
0.238362 0.160777 0.025 -2.23386e+06
0.242396 0.163498 0.025 -1.9476e+06
0.246466 0.166244 0.025 -2.10455e+06
0.250569 0.169012 0.025 -928419
0.254706 0.171801 0.025 -1.51756e+06
0.258874 0.174613 0.025 -1.51339e+06
0.263074 0.177446 0.025 -1.91296e+06
0.267304 0.180299 0.025 -1.55325e+06
0.271564 0.183172 0.025 -932802
0.275852 0.186064 0.025 -1.58868e+06
0.280168 0.188975 0.025 -906985
0.28451 0.191904 0.025 -1.61044e+06
0.288876 0.19485 0.025 -2.18015e+06
0.293268 0.197812 0.025 -1.57643e+06
0.297683 0.20079 0.025 -1.8533e+06
0.302119 0.203782 0.025 -2.08436e+06
0.306577 0.206788 0.025 -1.48862e+06
0.311054 0.209808 0.025 -1.55169e+06
0.315549 0.212841 0.025 -1.14138e+06
0.320063 0.215885 0.025 -1.91763e+06
0.324591 0.218939 0.025 -1.39967e+06
0.329134 0.222003 0.025 -1.37495e+06
0.333691 0.225077 0.025 -2.07932e+06
0.33826 0.228159 0.025 -1.7598e+06
0.342839 0.231248 0.025 -1.78923e+06
0.347428 0.234343 0.025 -857264
0.352025 0.237444 0.025 -1.86267e+06
0.356628 0.240548 0.025 -1.37828e+06
0.361237 0.243658 0.025 -1.12951e+06
0.36585 0.246769 0.025 -2.38087e+06
0.370465 0.249882 0.025 -1.07791e+06
0.375082 0.252996 0.025 -1.46449e+06
0.379698 0.25611 0.025 -2.31824e+06
0.384313 0.259223 0.025 -1.3688e+06
0.388926 0.262333 0.025 -1.6567e+06
0.393534 0.265442 0.025 -1.37269e+06
0.398136 0.268546 0.025 -861094
0.40273 0.271645 0.025 -1.57124e+06
0.407317 0.274739 0.025 -1.63157e+06
0.411894 0.277826 0.025 -2.00793e+06
0.41646 0.280906 0.025 -823869
0.421014 0.283977 0.025 -1.54659e+06
0.425554 0.28704 0.025 -1.78749e+06
0.430079 0.290092 0.025 -1.44472e+06
0.434588 0.293133 0.025 -1.7535e+06
0.439079 0.296162 0.025 -1.24622e+06
0.443551 0.299179 0.025 -1.60968e+06
0.448004 0.302183 0.025 -1.63594e+06
0.452437 0.305172 0.025 -1.60046e+06
0.456846 0.308146 0.025 -1.49018e+06
0.461232 0.311105 0.025 -1.51412e+06
0.465593 0.314047 0.025 -1.40385e+06
0.469929 0.316971 0.025 -1.8615e+06
0.474238 0.319878 0.025 -969270
0.47852 0.322766 0.025 -1.08189e+06
0.482773 0.325635 0.025 -859427
0.486996 0.328483 0.025 -1.28463e+06
0.491189 0.331311 0.025 -1.91742e+06
0.49535 0.334118 0.025 -1.25456e+06
