# p  FACE_DATA 448
# x  y  z  p
-0.778 -3.80769e-06 0 1196.57
-0.773968 -3.80769e-06 0 934.751
-0.769872 -3.80769e-06 0 761.609
-0.76571 -3.80769e-06 0 735.174
-0.761486 -3.80769e-06 0 699.292
-0.757196 -3.80769e-06 0 676.487
-0.752841 -3.80769e-06 0 663.983
-0.748422 -3.80769e-06 0 654.547
-0.743939 -3.80769e-06 0 648.082
-0.739391 -3.80769e-06 0 642.72
-0.73478 -3.80769e-06 0 637.942
-0.730104 -3.80769e-06 0 633.569
-0.725364 -3.80769e-06 0 629.151
-0.720562 -3.80769e-06 0 623.766
-0.715696 -3.80769e-06 0 616.594
-0.710769 -3.80769e-06 0 609.946
-0.705778 -3.80769e-06 0 604.136
-0.700727 -3.80769e-06 0 601.512
-0.695615 -3.80769e-06 0 601.922
-0.690443 -3.80769e-06 0 606.077
-0.685211 -3.80769e-06 0 609.43
-0.67992 -3.80769e-06 0 613.206
-0.674571 -3.80769e-06 0 616.596
-0.669166 -3.80769e-06 0 619.248
-0.663704 -3.80769e-06 0 621.574
-0.658187 -3.80769e-06 0 623.27
-0.652616 -3.80769e-06 0 624.905
-0.646993 -3.80769e-06 0 626.017
-0.641317 -3.80769e-06 0 626.85
-0.635592 -3.80769e-06 0 627.354
-0.629817 -3.80769e-06 0 627.86
-0.623994 -3.80769e-06 0 628.139
-0.618125 -3.80769e-06 0 628.284
-0.61221 -3.80769e-06 0 628.278
-0.606252 -3.80769e-06 0 628.272
-0.600253 -3.80769e-06 0 628.162
-0.594213 -3.80769e-06 0 627.851
-0.588134 -3.80769e-06 0 627.641
-0.582018 -3.80769e-06 0 627.525
-0.575867 -3.80769e-06 0 627.362
-0.569683 -3.80769e-06 0 627.011
-0.563467 -3.80769e-06 0 626.399
-0.557221 -3.80769e-06 0 625.887
-0.550946 -3.80769e-06 0 625.724
-0.544647 -3.80769e-06 0 625.535
-0.538323 -3.80769e-06 0 625.155
-0.531979 -3.80769e-06 0 624.662
-0.525613 -3.80769e-06 0 624.128
-0.51923 -3.80769e-06 0 623.773
-0.512832 -3.80769e-06 0 623.672
-0.50642 -3.80769e-06 0 623.437
-0.499995 -3.80769e-06 0 622.858
-0.493562 -3.80769e-06 0 622.155
-0.487123 -3.80769e-06 0 621.535
-0.480677 -3.80769e-06 0 621.245
-0.47423 -3.80769e-06 0 621.29
-0.467782 -3.80769e-06 0 621.32
-0.461335 -3.80769e-06 0 621.064
-0.454892 -3.80769e-06 0 620.452
-0.448455 -3.80769e-06 0 619.663
-0.442026 -3.80769e-06 0 618.924
-0.435607 -3.80769e-06 0 618.484
-0.429202 -3.80769e-06 0 618.605
-0.42281 -3.80769e-06 0 618.897
-0.416434 -3.80769e-06 0 619.008
-0.410078 -3.80769e-06 0 618.652
-0.403743 -3.80769e-06 0 617.815
-0.39743 -3.80769e-06 0 616.904
-0.391141 -3.80769e-06 0 616.087
-0.38488 -3.80769e-06 0 615.579
-0.378648 -3.80769e-06 0 615.379
-0.372446 -3.80769e-06 0 615.935
-0.366277 -3.80769e-06 0 616.293
-0.360142 -3.80769e-06 0 616.443
-0.354042 -3.80769e-06 0 616.226
-0.347981 -3.80769e-06 0 615.567
-0.341959 -3.80769e-06 0 614.495
-0.335978 -3.80769e-06 0 613.41
-0.33004 -3.80769e-06 0 612.439
-0.324146 -3.80769e-06 0 611.765
-0.318298 -3.80769e-06 0 611.476
-0.312497 -3.80769e-06 0 611.848
-0.306744 -3.80769e-06 0 612.582
-0.301041 -3.80769e-06 0 613.3
-0.29539 -3.80769e-06 0 613.839
-0.28979 -3.80769e-06 0 614.088
-0.284243 -3.80769e-06 0 614.087
-0.278752 -3.80769e-06 0 613.647
-0.273316 -3.80769e-06 0 612.823
-0.267937 -3.80769e-06 0 611.659
-0.262614 -3.80769e-06 0 610.471
-0.25735 -3.80769e-06 0 609.409
-0.252146 -3.80769e-06 0 608.561
-0.247001 -3.80769e-06 0 608.043
-0.241916 -3.80769e-06 0 607.845
-0.236893 -3.80769e-06 0 608.153
-0.231931 -3.80769e-06 0 608.589
-0.227031 -3.80769e-06 0 609.277
-0.222195 -3.80769e-06 0 609.92
-0.217421 -3.80769e-06 0 610.494
-0.212711 -3.80769e-06 0 610.915
-0.208064 -3.80769e-06 0 611.121
-0.203482 -3.80769e-06 0 611.142
-0.198964 -3.80769e-06 0 610.957
-0.19451 -3.80769e-06 0 610.553
-0.19012 -3.80769e-06 0 609.961
-0.185796 -3.80769e-06 0 609.221
-0.181535 -3.80769e-06 0 608.419
-0.17734 -3.80769e-06 0 607.534
-0.173208 -3.80769e-06 0 606.687
-0.169141 -3.80769e-06 0 605.895
-0.165138 -3.80769e-06 0 605.199
-0.161199 -3.80769e-06 0 604.623
-0.157325 -3.80769e-06 0 604.21
-0.153513 -3.80769e-06 0 603.964
-0.149765 -3.80769e-06 0 603.892
-0.14608 -3.80769e-06 0 603.902
-0.142457 -3.80769e-06 0 604.233
-0.138897 -3.80769e-06 0 604.601
-0.135398 -3.80769e-06 0 605.108
-0.131961 -3.80769e-06 0 605.636
-0.128584 -3.80769e-06 0 606.21
-0.125268 -3.80769e-06 0 606.735
-0.122011 -3.80769e-06 0 607.226
-0.118815 -3.80769e-06 0 607.657
-0.115677 -3.80769e-06 0 608.036
-0.112597 -3.80769e-06 0 608.347
-0.109574 -3.80769e-06 0 608.586
-0.106609 -3.80769e-06 0 608.732
-0.1037 -3.80769e-06 0 608.806
-0.100846 -3.80769e-06 0 608.812
-0.098048 -3.80769e-06 0 608.745
-0.0953042 -3.80769e-06 0 608.607
-0.0926143 -3.80769e-06 0 608.414
-0.0899773 -3.80769e-06 0 608.176
-0.0873927 -3.80769e-06 0 607.905
-0.0848599 -3.80769e-06 0 607.599
-0.082378 -3.80769e-06 0 607.272
-0.0799465 -3.80769e-06 0 606.922
-0.0775645 -3.80769e-06 0 606.557
-0.0752312 -3.80769e-06 0 606.172
-0.0729462 -3.80769e-06 0 605.78
-0.0707085 -3.80769e-06 0 605.385
-0.0685175 -3.80769e-06 0 604.99
-0.0663725 -3.80769e-06 0 604.599
-0.0642727 -3.80769e-06 0 604.22
-0.0622173 -3.80769e-06 0 603.855
-0.0602058 -3.80769e-06 0 603.503
-0.0582373 -3.80769e-06 0 603.164
-0.0563111 -3.80769e-06 0 602.842
-0.0544265 -3.80769e-06 0 602.537
-0.0525827 -3.80769e-06 0 602.246
-0.0507792 -3.80769e-06 0 601.973
-0.0490152 -3.80769e-06 0 601.718
-0.0472898 -3.80769e-06 0 601.482
-0.0456025 -3.80769e-06 0 601.26
-0.0439526 -3.80769e-06 0 601.056
-0.0423394 -3.80769e-06 0 600.868
-0.0407622 -3.80769e-06 0 600.698
-0.0392203 -3.80769e-06 0 600.538
-0.0377131 -3.80769e-06 0 600.395
-0.0362398 -3.80769e-06 0 600.263
-0.0347999 -3.80769e-06 0 600.146
-0.0333926 -3.80769e-06 0 600.036
-0.0320175 -3.80769e-06 0 599.958
-0.0306737 -3.80769e-06 0 599.943
-0.0293607 -3.80769e-06 0 600.567
-0.0280779 -3.80769e-06 0 602.509
-0.0268246 -3.80769e-06 0 608.597
-0.0256004 -3.80769e-06 0 624.398
-0.0244045 -3.80769e-06 0 658.192
-0.0232363 -3.80769e-06 0 714.704
-0.0220954 -3.80769e-06 0 785.8
-0.0209812 -3.80769e-06 0 856.438
-0.019893 -3.80769e-06 0 919.254
-0.0188303 -3.80769e-06 0 978.388
-0.0177927 -3.80769e-06 0 1037.47
-0.0167794 -3.80769e-06 0 1096.32
-0.0157901 -3.80769e-06 0 1153.93
-0.0148243 -3.80769e-06 0 1209.29
-0.0138814 -3.80769e-06 0 1261.9
-0.0129608 -3.80769e-06 0 1311.57
-0.0120623 -3.80769e-06 0 1358.66
-0.0111851 -3.80769e-06 0 1403.25
-0.0103289 -3.80769e-06 0 1445.66
-0.00949328 -3.80769e-06 0 1486.11
-0.00867767 -3.80769e-06 0 1524.84
-0.00788168 -3.80769e-06 0 1562.02
-0.00710485 -3.80769e-06 0 1597.63
-0.00634675 -3.80769e-06 0 1631.69
-0.00560698 -3.80769e-06 0 1664.06
-0.0048851 -3.80769e-06 0 1694.31
-0.00418071 -3.80769e-06 0 1722.76
-0.00349342 -3.80769e-06 0 1750.38
-0.00282284 -3.80769e-06 0 1777.98
-0.00216857 -3.80769e-06 0 1805.95
-0.00153026 -3.80769e-06 0 1839.76
-0.00090752 -3.80769e-06 0 1885.57
-0.0003 -3.80769e-06 0 1947.72
0.000259937 0.000146262 2.25537e-21 1864.28
0.000779437 0.000446185 0 1918.05
0.00129893 0.000746101 0 1946.41
0.00181858 0.00104611 2.2554e-21 1989.82
0.00233835 0.00134618 -2.25541e-21 2045.42
0.00285828 0.00164636 2.25542e-21 2106.76
0.00337841 0.00194664 0 2174.95
0.00389877 0.00224706 0 2248.33
0.00441941 0.00254764 -2.25544e-21 2326.76
0.00494034 0.00284839 2.25545e-21 2410.54
0.00546162 0.00314934 -2.25546e-21 2499.65
0.00598328 0.0034505 2.25547e-21 2594.72
0.00650535 0.00375191 2.25547e-21 2695.8
0.00702786 0.00405357 2.25548e-21 2803.43
0.00755087 0.00435552 0 2917.59
0.00807439 0.00465776 -2.25549e-21 3038.73
0.00859847 0.00496033 2.2555e-21 3166.75
0.00912315 0.00526324 0 3301.82
0.00964845 0.00556651 2.25551e-21 3443.98
0.0101744 0.00587017 0 3593.37
0.0107011 0.00617424 0 3749.93
0.0112285 0.00647873 -2.25552e-21 3913.7
0.0117567 0.00678367 0 4084.79
0.0122857 0.00708907 0 4262.79
0.0128156 0.00739497 0 4447.95
0.0133463 0.00770137 -2.25554e-21 4640.5
0.0138779 0.00800831 0 4840.87
0.0144106 0.0083158 0 5049.34
0.0149442 0.00862387 0 5265.83
0.0154788 0.00893253 0 5490.92
0.0160145 0.00924181 0 5724.59
0.0165513 0.00955172 2.25556e-21 5967.39
0.0170893 0.00986231 -2.25556e-21 6218.98
0.0176284 0.0101736 0 6479.24
0.0181687 0.0104855 0 6748.05
0.0187103 0.0107982 2.25556e-21 7023.76
0.0192532 0.0111117 2.25557e-21 7306.32
0.0197975 0.0114259 2.25557e-21 7593.07
0.0203431 0.0117408 0 7883.74
0.0208901 0.0120566 4.51114e-21 8176.35
0.0214385 0.0123732 -4.51114e-21 8469.53
0.0219884 0.0126907 0 8761.28
0.0225398 0.0130091 4.51114e-21 9051.05
0.0230928 0.0133283 0 9337.42
0.0236474 0.0136485 0 9620.52
0.0242037 0.0139697 0 9899.62
0.0247616 0.0142918 -4.51113e-21 10176.8
0.0253212 0.0146148 -4.51113e-21 10453.7
0.0258825 0.0149389 -4.51114e-21 10725.5
0.0264456 0.015264 0 10988.8
0.0270106 0.0155902 0 11239.6
0.0275774 0.0159174 -4.51112e-21 11475.7
0.0281462 0.0162457 0 11696.9
0.0287168 0.0165752 4.51111e-21 11901.9
0.0292895 0.0169059 -4.51111e-21 12092.4
0.0298642 0.0172376 0 12277.2
0.0304409 0.0175706 0 12463.5
0.0310198 0.0179048 4.5111e-21 12640
0.0316007 0.0182402 4.5111e-21 12811
0.0321839 0.0185768 -4.51107e-21 12974
0.0327693 0.0189148 0 13120.1
0.0333569 0.0192541 0 13247.4
0.0339469 0.0195947 4.51106e-21 13349.3
0.0345392 0.0199366 0 13450.5
0.0351339 0.02028 0 13519.7
0.035731 0.0206247 4.51105e-21 13587.9
0.0363305 0.0209708 -4.51103e-21 13649.4
0.0369326 0.0213184 4.51102e-21 13697.9
0.0375373 0.0216675 0 13747.8
0.0381445 0.0220181 0 13789.4
0.0387543 0.0223702 0 13823.3
0.0393668 0.0227238 4.51099e-21 13847.9
0.0399821 0.023079 -4.51097e-21 13861.9
0.0406001 0.0234358 4.51097e-21 13864.9
0.041221 0.0237942 0 13859.6
0.0418446 0.0241542 0 13855.4
0.0424712 0.024516 4.51092e-21 13853.8
0.0431006 0.0248794 -4.51094e-21 13846.2
0.0437331 0.0252445 0 13846.4
0.0443686 0.0256114 4.51089e-21 13850.1
0.0450071 0.02598 4.51089e-21 13807.6
0.0456487 0.0263505 0 13779.4
0.0462935 0.0267227 0 13713
0.0469415 0.0270968 -4.51085e-21 13667
0.0475927 0.0274728 0 13615.4
0.0482473 0.0278507 -4.51081e-21 13573.9
0.0489051 0.0282305 4.51081e-21 13542
0.0495663 0.0286122 -4.51079e-21 13502.3
0.050231 0.0289959 0 13468.2
0.0508991 0.0293816 -4.51077e-21 13430.5
0.0515707 0.0297694 4.51073e-21 13394.8
0.0522459 0.0301592 -4.51073e-21 13356.1
0.0529247 0.0305511 0 13322.5
0.0536071 0.0309451 0 13281.4
0.0542933 0.0313412 -4.51067e-21 13248.6
0.0549832 0.0317395 0 13214.6
0.0556769 0.03214 0 13182.4
0.0563744 0.0325427 0 13149.2
0.0570758 0.0329477 -4.5106e-21 13119.2
0.0577812 0.0333549 0 13092.6
0.0584905 0.0337645 0 13065.1
0.0592039 0.0341763 -4.51056e-21 13038.7
0.0599214 0.0345905 4.51053e-21 13017.3
0.060643 0.0350071 0 12993.7
0.0613688 0.0354262 4.51049e-21 12974.4
0.0620989 0.0358477 -4.51048e-21 12949
0.0628332 0.0362716 4.51046e-21 12926.6
0.0635719 0.0366981 0 12905.1
0.0643149 0.037127 4.51041e-21 12880.6
0.0650624 0.0375586 0 12868.6
0.0658144 0.0379927 0 12847.5
0.0665709 0.0384295 4.51035e-21 12837.3
0.0673321 0.0388689 -4.51035e-21 12821.7
0.0680979 0.039311 0 12812.9
0.0688683 0.0397558 -4.51029e-21 12803.8
0.0696435 0.0402034 4.51029e-21 12794.5
0.0704236 0.0406537 0 12787.6
0.0712085 0.0411069 0 12774.5
0.0719983 0.0415628 0 12759.9
0.0727931 0.0420217 0 12741.4
0.0735929 0.0424834 0 12718.8
0.0743978 0.0429481 0 12698.6
0.0752078 0.0434158 0 12670.9
0.076023 0.0438864 4.5101e-21 12651.3
0.0768435 0.0443601 -4.51009e-21 12629.9
0.0776693 0.0448369 -4.51004e-21 12616.5
0.0785004 0.0453167 4.51003e-21 12607.3
0.079337 0.0457997 0 12603.8
0.080179 0.0462858 0 12603.5
0.0810266 0.0467751 0 12605.6
0.0818797 0.0472677 0 12602.4
0.0827385 0.0477635 0 12600.7
0.083603 0.0482626 0 12591.4
0.0844733 0.0487651 4.50985e-21 12581.8
0.0853495 0.0492709 -4.50983e-21 12565.7
0.0862316 0.0497801 0 12549.7
0.0871195 0.0502927 -4.50978e-21 12533.6
0.0880135 0.0508089 0 12512.2
0.0889136 0.0513285 0 12495.8
0.0898198 0.0518517 0 12481.9
0.0907322 0.0523785 0 12471.1
0.0916509 0.0529089 0 12465
0.0925758 0.0534429 4.50963e-21 12459.7
0.0935072 0.0539806 4.50959e-21 12457.1
0.094445 0.054522 0 12456.5
0.0953894 0.0550672 4.50953e-21 12454.5
0.0963404 0.0556162 0 12455.2
0.0972979 0.0561691 0 12450.9
0.0982622 0.0567258 0 12441.8
0.0992333 0.0572865 0 12428.9
0.100211 0.057851 0 12417.8
0.101196 0.0584196 0 12407.4
0.102188 0.0589922 4.50935e-21 12392.6
0.103187 0.0595689 4.50932e-21 12381.4
0.104193 0.0601497 -4.50928e-21 12377.3
0.105206 0.0607347 0 12364.9
0.106226 0.0613239 0 12359.9
0.107254 0.0619172 0 12348.9
0.10829 0.0625149 4.50918e-21 12347.5
0.109332 0.0631169 4.50915e-21 12346.6
0.110382 0.0637232 -4.50911e-21 12340.2
0.11144 0.064334 -4.50908e-21 12329
0.112506 0.0649492 4.50905e-21 12319.1
0.11358 0.0655688 4.50902e-21 12318.8
0.114661 0.066193 0 12299.5
0.11575 0.0668218 0 12291.3
0.116847 0.0674552 0 12280.4
0.117952 0.0680932 0 12267.5
0.119065 0.068736 0 12256.6
0.120187 0.0693834 4.50884e-21 12262.1
0.121316 0.0700357 0 12256.2
0.122455 0.0706928 0 12252.4
0.123601 0.0713548 -4.50875e-21 12259.1
0.124756 0.0720217 0 12251.5
0.12592 0.0726935 -4.5087e-21 12251.9
0.127093 0.0733704 0 12249.8
0.128274 0.0740524 0 12245.2
0.129464 0.0747395 4.50859e-21 12232.3
0.130663 0.0754317 0 12219.5
0.131871 0.0761292 4.50853e-21 12220.2
0.133088 0.0768319 4.50851e-21 12202.4
0.134315 0.0775399 0 12201.8
0.13555 0.0782532 4.50845e-21 12191.9
0.136795 0.078972 0 12187.5
0.13805 0.0796962 0 12180.7
0.139314 0.080426 -4.50834e-21 12173.7
0.140587 0.0811613 -4.50831e-21 12168.6
0.14187 0.0819021 4.50827e-21 12161.1
0.143163 0.0826487 0 12149.6
0.144466 0.0834009 0 12142
0.145779 0.0841589 0 12141.4
0.147102 0.0849227 4.50815e-21 12144.2
0.148435 0.0856924 4.50811e-21 12135.9
0.149779 0.0864679 0 12133.4
0.151133 0.0872495 4.50805e-21 12125.2
0.152497 0.0880371 4.50801e-21 12120.7
0.153871 0.0888307 4.50798e-21 12112.1
0.155257 0.0896305 0 12101.6
0.156653 0.0904364 4.50791e-21 12099.7
0.15806 0.0912487 4.50787e-21 12088.6
0.159478 0.0920672 0 12091.8
0.160907 0.092892 0 12078.8
0.162347 0.0937233 0 12068.1
0.163798 0.0945611 4.50774e-21 12069.7
0.16526 0.0954054 0 12054.8
0.166734 0.0962563 0 12056.1
0.168219 0.0971138 0 12056.6
0.169716 0.097978 4.50761e-21 12054.9
0.171225 0.098849 4.50758e-21 12056.6
0.172745 0.0997268 4.50754e-21 12042.3
0.174278 0.100611 0 12031.7
0.175822 0.101503 0 12023.1
0.177379 0.102402 0 12026
0.178947 0.103308 4.50741e-21 12012.5
0.180529 0.10422 4.50737e-21 12005.5
0.182122 0.10514 4.50734e-21 12016.8
0.183728 0.106068 0 12016.7
0.185347 0.107002 -4.50727e-21 12010.1
0.186979 0.107944 0 11997.4
0.188623 0.108894 0 11991.1
0.190281 0.109851 4.50716e-21 11973
0.191952 0.110815 0 11971.2
0.193636 0.111787 -4.5071e-21 11968.8
0.195333 0.112767 -4.50707e-21 11978.7
0.197044 0.113755 -4.50702e-21 11981.2
0.198768 0.114751 -4.507e-21 11986.5
0.200506 0.115754 -4.50696e-21 11969.7
0.202258 0.116766 0 11967.5
0.204024 0.117785 4.50688e-21 11951.6
0.205805 0.118813 4.50686e-21 11949
0.207599 0.119849 0 11945.8
0.209408 0.120893 -4.50679e-21 11948.2
0.211231 0.121946 -4.50676e-21 11952.5
0.213068 0.123007 0 11936.1
0.214921 0.124076 0 11926.1
0.216788 0.125154 0 11908.5
0.21867 0.126241 0 11885.5
0.220567 0.127336 0 11868.1
0.22248 0.12844 0 11864.6
0.224408 0.129553 0 11867.2
0.226351 0.130675 0 11882.6
0.22831 0.131806 0 11893.2
0.230284 0.132946 9.01282e-21 11889.3
0.232275 0.134095 0 11875.1
0.234282 0.135254 9.01268e-21 11866.4
0.236304 0.136421 0 11838.9
0.238344 0.137598 9.01253e-21 11824.9
0.2404 0.138785 0 11823.7
0.242472 0.139982 0 11846.2
