# wallHeatFlux  FACE_DATA 448
# x  y  z  wallHeatFlux
-0.778 -3.80769e-06 0 -198877
-0.773968 -3.80769e-06 0 -40154.3
-0.769872 -3.80769e-06 0 -24476.2
-0.76571 -3.80769e-06 0 -19627.1
-0.761486 -3.80769e-06 0 -16560.4
-0.757196 -3.80769e-06 0 -14601.9
-0.752841 -3.80769e-06 0 -13265.6
-0.748422 -3.80769e-06 0 -12253
-0.743939 -3.80769e-06 0 -11464.9
-0.739391 -3.80769e-06 0 -10813
-0.73478 -3.80769e-06 0 -10255.1
-0.730104 -3.80769e-06 0 -9776.32
-0.725364 -3.80769e-06 0 -9376.75
-0.720562 -3.80769e-06 0 -9120.55
-0.715696 -3.80769e-06 0 -8917.23
-0.710769 -3.80769e-06 0 -9029
-0.705778 -3.80769e-06 0 -9322.75
-0.700727 -3.80769e-06 0 -9798.59
-0.695615 -3.80769e-06 0 -10323
-0.690443 -3.80769e-06 0 -10831.9
-0.685211 -3.80769e-06 0 -11191.3
-0.67992 -3.80769e-06 0 -11470.5
-0.674571 -3.80769e-06 0 -11680.2
-0.669166 -3.80769e-06 0 -11836.5
-0.663704 -3.80769e-06 0 -11955.3
-0.658187 -3.80769e-06 0 -12025.7
-0.652616 -3.80769e-06 0 -12085.4
-0.646993 -3.80769e-06 0 -12118.1
-0.641317 -3.80769e-06 0 -12124.1
-0.635592 -3.80769e-06 0 -12123.6
-0.629817 -3.80769e-06 0 -12108.2
-0.623994 -3.80769e-06 0 -12085.8
-0.618125 -3.80769e-06 0 -12058.9
-0.61221 -3.80769e-06 0 -12020.6
-0.606252 -3.80769e-06 0 -11976.8
-0.600253 -3.80769e-06 0 -11932.7
-0.594213 -3.80769e-06 0 -11883
-0.588134 -3.80769e-06 0 -11838.5
-0.582018 -3.80769e-06 0 -11793.8
-0.575867 -3.80769e-06 0 -11754.2
-0.569683 -3.80769e-06 0 -11703.5
-0.563467 -3.80769e-06 0 -11652.6
-0.557221 -3.80769e-06 0 -11601.8
-0.550946 -3.80769e-06 0 -11555.3
-0.544647 -3.80769e-06 0 -11514.8
-0.538323 -3.80769e-06 0 -11473.9
-0.531979 -3.80769e-06 0 -11427.3
-0.525613 -3.80769e-06 0 -11380.5
-0.51923 -3.80769e-06 0 -11338.8
-0.512832 -3.80769e-06 0 -11302.3
-0.50642 -3.80769e-06 0 -11265.6
-0.499995 -3.80769e-06 0 -11218.2
-0.493562 -3.80769e-06 0 -11175.4
-0.487123 -3.80769e-06 0 -11132.8
-0.480677 -3.80769e-06 0 -11095.3
-0.47423 -3.80769e-06 0 -11068.2
-0.467782 -3.80769e-06 0 -11035.9
-0.461335 -3.80769e-06 0 -11003.5
-0.454892 -3.80769e-06 0 -10964.7
-0.448455 -3.80769e-06 0 -10926.9
-0.442026 -3.80769e-06 0 -10882.3
-0.435607 -3.80769e-06 0 -10849.3
-0.429202 -3.80769e-06 0 -10821.2
-0.42281 -3.80769e-06 0 -10803.9
-0.416434 -3.80769e-06 0 -10786.6
-0.410078 -3.80769e-06 0 -10757.6
-0.403743 -3.80769e-06 0 -10718.4
-0.39743 -3.80769e-06 0 -10679.1
-0.391141 -3.80769e-06 0 -10638.9
-0.38488 -3.80769e-06 0 -10604.9
-0.378648 -3.80769e-06 0 -10575.9
-0.372446 -3.80769e-06 0 -10568.4
-0.366277 -3.80769e-06 0 -10555.7
-0.360142 -3.80769e-06 0 -10542
-0.354042 -3.80769e-06 0 -10518.3
-0.347981 -3.80769e-06 0 -10483.4
-0.341959 -3.80769e-06 0 -10448.9
-0.335978 -3.80769e-06 0 -10408.2
-0.33004 -3.80769e-06 0 -10372.9
-0.324146 -3.80769e-06 0 -10343.9
-0.318298 -3.80769e-06 0 -10314
-0.312497 -3.80769e-06 0 -10306
-0.306744 -3.80769e-06 0 -10303.2
-0.301041 -3.80769e-06 0 -10300.5
-0.29539 -3.80769e-06 0 -10297.5
-0.28979 -3.80769e-06 0 -10284.5
-0.284243 -3.80769e-06 0 -10276
-0.278752 -3.80769e-06 0 -10251.7
-0.273316 -3.80769e-06 0 -10222.2
-0.267937 -3.80769e-06 0 -10187.2
-0.262614 -3.80769e-06 0 -10151.9
-0.25735 -3.80769e-06 0 -10117.6
-0.252146 -3.80769e-06 0 -10087.7
-0.247001 -3.80769e-06 0 -10063.6
-0.241916 -3.80769e-06 0 -10044.8
-0.236893 -3.80769e-06 0 -10036.9
-0.231931 -3.80769e-06 0 -10034.2
-0.227031 -3.80769e-06 0 -10032.5
-0.222195 -3.80769e-06 0 -10035.1
-0.217421 -3.80769e-06 0 -10038.1
-0.212711 -3.80769e-06 0 -10035.5
-0.208064 -3.80769e-06 0 -10028.5
-0.203482 -3.80769e-06 0 -10025.6
-0.198964 -3.80769e-06 0 -10013.1
-0.19451 -3.80769e-06 0 -9995.11
-0.19012 -3.80769e-06 0 -9971.76
-0.185796 -3.80769e-06 0 -9948.81
-0.181535 -3.80769e-06 0 -9925.18
-0.17734 -3.80769e-06 0 -9901.62
-0.173208 -3.80769e-06 0 -9873.92
-0.169141 -3.80769e-06 0 -9849.99
-0.165138 -3.80769e-06 0 -9827.86
-0.161199 -3.80769e-06 0 -9810.02
-0.157325 -3.80769e-06 0 -9792.6
-0.153513 -3.80769e-06 0 -9775.2
-0.149765 -3.80769e-06 0 -9768.16
-0.14608 -3.80769e-06 0 -9756.73
-0.142457 -3.80769e-06 0 -9756.05
-0.138897 -3.80769e-06 0 -9759.38
-0.135398 -3.80769e-06 0 -9759.37
-0.131961 -3.80769e-06 0 -9763.49
-0.128584 -3.80769e-06 0 -9767.6
-0.125268 -3.80769e-06 0 -9772.71
-0.122011 -3.80769e-06 0 -9777.91
-0.118815 -3.80769e-06 0 -9781.67
-0.115677 -3.80769e-06 0 -9781.64
-0.112597 -3.80769e-06 0 -9781.12
-0.109574 -3.80769e-06 0 -9781.27
-0.106609 -3.80769e-06 0 -9780.47
-0.1037 -3.80769e-06 0 -9780.23
-0.100846 -3.80769e-06 0 -9774.44
-0.098048 -3.80769e-06 0 -9769.18
-0.0953042 -3.80769e-06 0 -9763.77
-0.0926143 -3.80769e-06 0 -9753.04
-0.0899773 -3.80769e-06 0 -9747.76
-0.0873927 -3.80769e-06 0 -9737.06
-0.0848599 -3.80769e-06 0 -9726.72
-0.082378 -3.80769e-06 0 -9716.15
-0.0799465 -3.80769e-06 0 -9705.8
-0.0775645 -3.80769e-06 0 -9695.53
-0.0752312 -3.80769e-06 0 -9679.76
-0.0729462 -3.80769e-06 0 -9669.58
-0.0707085 -3.80769e-06 0 -9659.37
-0.0685175 -3.80769e-06 0 -9649.31
-0.0663725 -3.80769e-06 0 -9639.1
-0.0642727 -3.80769e-06 0 -9629.15
-0.0622173 -3.80769e-06 0 -9613.88
-0.0602058 -3.80769e-06 0 -9609.15
-0.0582373 -3.80769e-06 0 -9599.35
-0.0563111 -3.80769e-06 0 -9589.52
-0.0544265 -3.80769e-06 0 -9579.73
-0.0525827 -3.80769e-06 0 -9570
-0.0507792 -3.80769e-06 0 -9560.33
-0.0490152 -3.80769e-06 0 -9556.06
-0.0472898 -3.80769e-06 0 -9546.56
-0.0456025 -3.80769e-06 0 -9542.3
-0.0439526 -3.80769e-06 0 -9532.85
-0.0423394 -3.80769e-06 0 -9528.7
-0.0407622 -3.80769e-06 0 -9519.45
-0.0392203 -3.80769e-06 0 -9515.53
-0.0377131 -3.80769e-06 0 -9511.68
-0.0362398 -3.80769e-06 0 -9507.88
-0.0347999 -3.80769e-06 0 -9504.15
-0.0333926 -3.80769e-06 0 -9500.52
-0.0320175 -3.80769e-06 0 -9496.98
-0.0306737 -3.80769e-06 0 -9488.17
-0.0293607 -3.80769e-06 0 -9474.23
-0.0280779 -3.80769e-06 0 -9427.84
-0.0268246 -3.80769e-06 0 -9274.69
-0.0256004 -3.80769e-06 0 -8906.34
-0.0244045 -3.80769e-06 0 -8216.1
-0.0232363 -3.80769e-06 0 -7283.93
-0.0220954 -3.80769e-06 0 -6318.83
-0.0209812 -3.80769e-06 0 -5563.15
-0.019893 -3.80769e-06 0 -5489.88
-0.0188303 -3.80769e-06 0 -6282.85
-0.0177927 -3.80769e-06 0 -7442.7
-0.0167794 -3.80769e-06 0 -8630.98
-0.0157901 -3.80769e-06 0 -9734.38
-0.0148243 -3.80769e-06 0 -10748.4
-0.0138814 -3.80769e-06 0 -11683.9
-0.0129608 -3.80769e-06 0 -12552
-0.0120623 -3.80769e-06 0 -13373.8
-0.0111851 -3.80769e-06 0 -14158.2
-0.0103289 -3.80769e-06 0 -14903.6
-0.00949328 -3.80769e-06 0 -15617.3
-0.00867767 -3.80769e-06 0 -16305.6
-0.00788168 -3.80769e-06 0 -16952.2
-0.00710485 -3.80769e-06 0 -17542
-0.00634675 -3.80769e-06 0 -18071.1
-0.00560698 -3.80769e-06 0 -18531.4
-0.0048851 -3.80769e-06 0 -18973.9
-0.00418071 -3.80769e-06 0 -19439.1
-0.00349342 -3.80769e-06 0 -20044.1
-0.00282284 -3.80769e-06 0 -20897.7
-0.00216857 -3.80769e-06 0 -21966.9
-0.00153026 -3.80769e-06 0 -23072.5
-0.00090752 -3.80769e-06 0 -22936.7
-0.0003 -3.80769e-06 0 -20294.4
0.000259937 0.000146262 2.25537e-21 -19449.7
0.000779437 0.000446185 0 -23295.6
0.00129893 0.000746101 0 -26922.7
0.00181858 0.00104611 2.2554e-21 -29937.4
0.00233835 0.00134618 -2.25541e-21 -32514.8
0.00285828 0.00164636 2.25542e-21 -34876.9
0.00337841 0.00194664 0 -37294.5
0.00389877 0.00224706 0 -39789.5
0.00441941 0.00254764 -2.25544e-21 -42437.2
0.00494034 0.00284839 2.25545e-21 -45234.8
0.00546162 0.00314934 -2.25546e-21 -48274.3
0.00598328 0.0034505 2.25547e-21 -51586.8
0.00650535 0.00375191 2.25547e-21 -55198.1
0.00702786 0.00405357 2.25548e-21 -59085.7
0.00755087 0.00435552 0 -63288
0.00807439 0.00465776 -2.25549e-21 -67873.9
0.00859847 0.00496033 2.2555e-21 -72718.6
0.00912315 0.00526324 0 -77868.6
0.00964845 0.00556651 2.25551e-21 -83431.8
0.0101744 0.00587017 0 -89171
0.0107011 0.00617424 0 -94535.8
0.0112285 0.00647873 -2.25552e-21 -99167.6
0.0117567 0.00678367 0 -102509
0.0122857 0.00708907 0 -104779
0.0128156 0.00739497 0 -106915
0.0133463 0.00770137 -2.25554e-21 -109068
0.0138779 0.00800831 0 -111560
0.0144106 0.0083158 0 -114046
0.0149442 0.00862387 0 -116872
0.0154788 0.00893253 0 -119846
0.0160145 0.00924181 0 -123146
0.0165513 0.00955172 2.25556e-21 -126552
0.0170893 0.00986231 -2.25556e-21 -129988
0.0176284 0.0101736 0 -133752
0.0181687 0.0104855 0 -137659
0.0187103 0.0107982 2.25556e-21 -141571
0.0192532 0.0111117 2.25557e-21 -145667
0.0197975 0.0114259 2.25557e-21 -149788
0.0203431 0.0117408 0 -153937
0.0208901 0.0120566 4.51114e-21 -158133
0.0214385 0.0123732 -4.51114e-21 -162291
0.0219884 0.0126907 0 -166431
0.0225398 0.0130091 4.51114e-21 -170451
0.0230928 0.0133283 0 -174379
0.0236474 0.0136485 0 -178111
0.0242037 0.0139697 0 -181837
0.0247616 0.0142918 -4.51113e-21 -185542
0.0253212 0.0146148 -4.51113e-21 -189435
0.0258825 0.0149389 -4.51114e-21 -193128
0.0264456 0.015264 0 -197186
0.0270106 0.0155902 0 -201033
0.0275774 0.0159174 -4.51112e-21 -204520
0.0281462 0.0162457 0 -207599
0.0287168 0.0165752 4.51111e-21 -210345
0.0292895 0.0169059 -4.51111e-21 -212816
0.0298642 0.0172376 0 -214940
0.0304409 0.0175706 0 -216752
0.0310198 0.0179048 4.5111e-21 -218585
0.0316007 0.0182402 4.5111e-21 -220289
0.0321839 0.0185768 -4.51107e-21 -221647
0.0327693 0.0189148 0 -222757
0.0333569 0.0192541 0 -223501
0.0339469 0.0195947 4.51106e-21 -223900
0.0345392 0.0199366 0 -223495
0.0351339 0.02028 0 -223293
0.035731 0.0206247 4.51105e-21 -222621
0.0363305 0.0209708 -4.51103e-21 -221760
0.0369326 0.0213184 4.51102e-21 -220919
0.0375373 0.0216675 0 -219845
0.0381445 0.0220181 0 -218519
0.0387543 0.0223702 0 -217693
0.0393668 0.0227238 4.51099e-21 -216095
0.0399821 0.023079 -4.51097e-21 -214727
0.0406001 0.0234358 4.51097e-21 -212870
0.041221 0.0237942 0 -211116
0.0418446 0.0241542 0 -209220
0.0424712 0.024516 4.51092e-21 -207303
0.0431006 0.0248794 -4.51094e-21 -205703
0.0437331 0.0252445 0 -203932
0.0443686 0.0256114 4.51089e-21 -202250
0.0450071 0.02598 4.51089e-21 -200128
0.0456487 0.0263505 0 -198175
0.0462935 0.0267227 0 -195699
0.0469415 0.0270968 -4.51085e-21 -193358
0.0475927 0.0274728 0 -191480
0.0482473 0.0278507 -4.51081e-21 -189590
0.0489051 0.0282305 4.51081e-21 -187461
0.0495663 0.0286122 -4.51079e-21 -185978
0.050231 0.0289959 0 -184696
0.0508991 0.0293816 -4.51077e-21 -182834
0.0515707 0.0297694 4.51073e-21 -181726
0.0522459 0.0301592 -4.51073e-21 -180435
0.0529247 0.0305511 0 -178971
0.0536071 0.0309451 0 -177842
0.0542933 0.0313412 -4.51067e-21 -176290
0.0549832 0.0317395 0 -175062
0.0556769 0.03214 0 -173822
0.0563744 0.0325427 0 -172793
0.0570758 0.0329477 -4.5106e-21 -172038
0.0577812 0.0333549 0 -171095
0.0584905 0.0337645 0 -169990
0.0592039 0.0341763 -4.51056e-21 -169416
0.0599214 0.0345905 4.51053e-21 -168404
0.060643 0.0350071 0 -167720
0.0613688 0.0354262 4.51049e-21 -166894
0.0620989 0.0358477 -4.51048e-21 -166206
0.0628332 0.0362716 4.51046e-21 -165358
0.0635719 0.0366981 0 -164474
0.0643149 0.037127 4.51041e-21 -164187
0.0650624 0.0375586 0 -163192
0.0658144 0.0379927 0 -162944
0.0665709 0.0384295 4.51035e-21 -162190
0.0673321 0.0388689 -4.51035e-21 -161911
0.0680979 0.039311 0 -161631
0.0688683 0.0397558 -4.51029e-21 -160842
0.0696435 0.0402034 4.51029e-21 -160933
0.0704236 0.0406537 0 -160273
0.0712085 0.0411069 0 -160273
0.0719983 0.0415628 0 -159810
0.0727931 0.0420217 0 -159278
0.0735929 0.0424834 0 -158865
0.0743978 0.0429481 0 -158118
0.0752078 0.0434158 0 -157583
0.076023 0.0438864 4.5101e-21 -156520
0.0768435 0.0443601 -4.51009e-21 -156254
0.0776693 0.0448369 -4.51004e-21 -155589
0.0785004 0.0453167 4.51003e-21 -155003
0.079337 0.0457997 0 -154987
0.080179 0.0462858 0 -154664
0.0810266 0.0467751 0 -154139
0.0818797 0.0472677 0 -154370
0.0827385 0.0477635 0 -153796
0.083603 0.0482626 0 -153777
0.0844733 0.0487651 4.50985e-21 -153468
0.0853495 0.0492709 -4.50983e-21 -153024
0.0862316 0.0497801 0 -152762
0.0871195 0.0502927 -4.50978e-21 -151736
0.0880135 0.0508089 0 -151398
0.0889136 0.0513285 0 -151099
0.0898198 0.0518517 0 -150357
0.0907322 0.0523785 0 -150028
0.0916509 0.0529089 0 -149585
0.0925758 0.0534429 4.50963e-21 -149413
0.0935072 0.0539806 4.50959e-21 -149084
0.094445 0.054522 0 -149036
0.0953894 0.0550672 4.50953e-21 -148822
0.0963404 0.0556162 0 -148552
0.0972979 0.0561691 0 -148093
0.0982622 0.0567258 0 -148002
0.0992333 0.0572865 0 -147791
0.100211 0.057851 0 -147398
0.101196 0.0584196 0 -146618
0.102188 0.0589922 4.50935e-21 -146735
0.103187 0.0595689 4.50932e-21 -146496
0.104193 0.0601497 -4.50928e-21 -145580
0.105206 0.0607347 0 -145773
0.106226 0.0613239 0 -145195
0.107254 0.0619172 0 -145103
0.10829 0.0625149 4.50918e-21 -144525
0.109332 0.0631169 4.50915e-21 -144403
0.110382 0.0637232 -4.50911e-21 -144345
0.11144 0.064334 -4.50908e-21 -143918
0.112506 0.0649492 4.50905e-21 -144053
0.11358 0.0655688 4.50902e-21 -142978
0.114661 0.066193 0 -142919
0.11575 0.0668218 0 -142568
0.116847 0.0674552 0 -142259
0.117952 0.0680932 0 -142286
0.119065 0.068736 0 -141985
0.120187 0.0693834 4.50884e-21 -141073
0.121316 0.0700357 0 -141095
0.122455 0.0706928 0 -141194
0.123601 0.0713548 -4.50875e-21 -139838
0.124756 0.0720217 0 -140738
0.12592 0.0726935 -4.5087e-21 -140141
0.127093 0.0733704 0 -140167
0.128274 0.0740524 0 -139481
0.129464 0.0747395 4.50859e-21 -139744
0.130663 0.0754317 0 -139606
0.131871 0.0761292 4.50853e-21 -138772
0.133088 0.0768319 4.50851e-21 -139018
0.134315 0.0775399 0 -138578
0.13555 0.0782532 4.50845e-21 -137849
0.136795 0.078972 0 -138121
0.13805 0.0796962 0 -137188
0.139314 0.080426 -4.50834e-21 -137579
0.140587 0.0811613 -4.50831e-21 -136738
0.14187 0.0819021 4.50827e-21 -136276
0.143163 0.0826487 0 -135961
0.144466 0.0834009 0 -135913
0.145779 0.0841589 0 -136027
0.147102 0.0849227 4.50815e-21 -135166
0.148435 0.0856924 4.50811e-21 -135174
0.149779 0.0864679 0 -135261
0.151133 0.0872495 4.50805e-21 -134576
0.152497 0.0880371 4.50801e-21 -134431
0.153871 0.0888307 4.50798e-21 -134780
0.155257 0.0896305 0 -134052
0.156653 0.0904364 4.50791e-21 -133591
0.15806 0.0912487 4.50787e-21 -134244
0.159478 0.0920672 0 -132994
0.160907 0.092892 0 -132880
0.162347 0.0937233 0 -133151
0.163798 0.0945611 4.50774e-21 -131951
0.16526 0.0954054 0 -131921
0.166734 0.0962563 0 -132150
0.168219 0.0971138 0 -131210
0.169716 0.097978 4.50761e-21 -131474
0.171225 0.098849 4.50758e-21 -131363
0.172745 0.0997268 4.50754e-21 -131523
0.174278 0.100611 0 -130368
0.175822 0.101503 0 -130744
0.177379 0.102402 0 -129576
0.178947 0.103308 4.50741e-21 -130320
0.180529 0.10422 4.50737e-21 -129976
0.182122 0.10514 4.50734e-21 -129285
0.183728 0.106068 0 -130047
0.185347 0.107002 -4.50727e-21 -129775
0.186979 0.107944 0 -128647
0.188623 0.108894 0 -129213
0.190281 0.109851 4.50716e-21 -128370
0.191952 0.110815 0 -128407
0.193636 0.111787 -4.5071e-21 -127276
0.195333 0.112767 -4.50707e-21 -127431
0.197044 0.113755 -4.50702e-21 -127134
0.198768 0.114751 -4.507e-21 -126970
0.200506 0.115754 -4.50696e-21 -126446
0.202258 0.116766 0 -126703
0.204024 0.117785 4.50688e-21 -126093
0.205805 0.118813 4.50686e-21 -126395
0.207599 0.119849 0 -125859
0.209408 0.120893 -4.50679e-21 -125539
0.211231 0.121946 -4.50676e-21 -125192
0.213068 0.123007 0 -125849
0.214921 0.124076 0 -125002
0.216788 0.125154 0 -123960
0.21867 0.126241 0 -124616
0.220567 0.127336 0 -123781
0.22248 0.12844 0 -122949
0.224408 0.129553 0 -123871
0.226351 0.130675 0 -123018
0.22831 0.131806 0 -123178
0.230284 0.132946 9.01282e-21 -123129
0.232275 0.134095 0 -123159
0.234282 0.135254 9.01268e-21 -122441
0.236304 0.136421 0 -122825
0.238344 0.137598 9.01253e-21 -122154
0.2404 0.138785 0 -121309
0.242472 0.139982 0 -120822
