# p  FACE_DATA 203
# x  y  z  p
-0.873265 0 0.0205 3482.11
-0.846493 0 0.0205 2971.65
-0.820677 0 0.0205 2838.56
-0.795786 0 0.0205 2785.74
-0.771783 0 0.0205 2769.3
-0.74637 0 0.0205 2770
-0.719597 0 0.0205 2768.12
-0.693782 0 0.0205 2763.84
-0.66889 0 0.0205 2762.74
-0.644887 0 0.0205 2764.16
-0.621743 0 0.0205 2763.42
-0.599426 0 0.0205 2760.11
-0.577905 0 0.0205 2757.07
-0.557154 0 0.0205 2756.11
-0.537145 0 0.0205 2756.82
-0.517849 0 0.0205 2756.52
-0.499243 0 0.0205 2754.74
-0.481301 0 0.0205 2752.44
-0.463999 0 0.0205 2750.67
-0.447314 0 0.0205 2750.32
-0.431225 0 0.0205 2750.97
-0.41571 0 0.0205 2750.76
-0.400747 0 0.0205 2749.28
-0.386317 0 0.0205 2747.08
-0.372401 0 0.0205 2744.75
-0.358981 0 0.0205 2743.3
-0.346039 0 0.0205 2742.7
-0.333556 0 0.0205 2743.25
-0.321518 0 0.0205 2745.02
-0.309908 0 0.0205 2746.82
-0.298709 0 0.0205 2747.99
-0.287908 0 0.0205 2747.69
-0.27749 0 0.0205 2746.3
-0.267441 0 0.0205 2744.19
-0.257748 0 0.0205 2741.66
-0.248397 0 0.0205 2739.06
-0.239378 0 0.0205 2736.72
-0.230677 0 0.0205 2734.82
-0.222282 0 0.0205 2733.82
-0.214183 0 0.0205 2733.57
-0.20637 0 0.0205 2733.86
-0.19883 0 0.0205 2734.73
-0.191555 0 0.0205 2736.03
-0.184536 0 0.0205 2737.56
-0.177762 0 0.0205 2739.11
-0.171224 0 0.0205 2740.58
-0.164914 0 0.0205 2741.92
-0.158824 0 0.0205 2743.07
-0.152944 0 0.0205 2743.95
-0.147268 0 0.0205 2744.5
-0.141788 0 0.0205 2744.76
-0.136496 0 0.0205 2744.63
-0.131387 0 0.0205 2744.2
-0.126452 0 0.0205 2743.53
-0.121685 0 0.0205 2742.61
-0.117081 0 0.0205 2741.49
-0.112632 0 0.0205 2740.23
-0.108332 0 0.0205 2738.89
-0.104177 0 0.0205 2737.52
-0.100161 0 0.0205 2736.17
-0.0962773 0 0.0205 2734.87
-0.0925221 0 0.0205 2733.63
-0.08889 0 0.0205 2732.42
-0.0853762 0 0.0205 2731.28
-0.0819759 0 0.0205 2730.2
-0.0786847 0 0.0205 2729.19
-0.0754981 0 0.0205 2728.27
-0.0724121 0 0.0205 2727.44
-0.0694223 0 0.0205 2726.71
-0.066525 0 0.0205 2726.08
-0.0637161 0 0.0205 2725.53
-0.060992 0 0.0205 2725.08
-0.0583491 0 0.0205 2724.7
-0.0557837 0 0.0205 2724.4
-0.0532926 0 0.0205 2724.16
-0.0508723 0 0.0205 2723.99
-0.0485197 0 0.0205 2723.87
-0.0462317 0 0.0205 2723.81
-0.0440053 0 0.0205 2723.79
-0.0418373 0 0.0205 2723.8
-0.039725 0 0.0205 2723.85
-0.0376655 0 0.0205 2723.9
-0.0356562 0 0.0205 2724.07
-0.0336943 0 0.0205 2724.07
-0.0317773 0 0.0205 2730.24
-0.0299025 0 0.0205 2848.03
-0.0280674 0 0.0205 3703.14
-0.0262697 0 0.0205 5130.63
-0.024507 0 0.0205 6227.14
-0.0227768 0 0.0205 6964.76
-0.021077 0 0.0205 7535.6
-0.0194052 0 0.0205 7995.28
-0.0177593 0 0.0205 8400.71
-0.016137 0 0.0205 8753.46
-0.014536 0 0.0205 9075.7
-0.0129545 0 0.0205 9376.06
-0.0113902 0 0.0205 9655.48
-0.00984104 0 0.0205 9909.26
-0.00830498 0 0.0205 10136.4
-0.00677997 0 0.0205 10335.4
-0.00526398 0 0.0205 10508.6
-0.00375499 0 0.0205 10651.1
-0.002251 0 0.0205 10848.9
-0.00075 0 0.0205 11737.8
0.000689475 0.000398068 0.0205 11326.6
0.00206843 0.0011942 0.0205 11906.2
0.00344737 0.00199034 0.0205 12833.8
0.00482631 0.00278648 0.0205 13975.5
0.00620527 0.00358261 0.0205 15436.6
0.00758422 0.00437875 0.0205 17219.6
0.00896317 0.00517489 0.0205 19347.3
0.0103421 0.00597102 0.0205 21842.1
0.0117211 0.00676715 0.0205 24740.9
0.0131 0.00756329 0.0205 28130.5
0.0144789 0.00835943 0.0205 32056.2
0.0158579 0.00915557 0.0205 36437.5
0.0172368 0.00995171 0.0205 41500.9
0.0186158 0.0107478 0.0205 47470.5
0.0199947 0.0115439 0.0205 54484.8
0.0213737 0.0123401 0.0205 62489.8
0.0227526 0.0131362 0.0205 71412.3
0.0241316 0.0139323 0.0205 80916
0.0255106 0.0147285 0.0205 90505.9
0.0268895 0.0155246 0.0205 99743.7
0.0282685 0.0163208 0.0205 108404
0.0296474 0.0171169 0.0205 115939
0.0310264 0.017913 0.0205 121601
0.0324053 0.0187092 0.0205 124860
0.0337843 0.0195054 0.0205 126412
0.0351632 0.0203015 0.0205 120554
0.0365421 0.0210976 0.0205 115994
0.037921 0.0218938 0.0205 113279
0.0393 0.0226898 0.0205 112002
0.0406789 0.023486 0.0205 112246
0.0420579 0.0242821 0.0205 110305
0.0434368 0.0250783 0.0205 107780
0.0448158 0.0258745 0.0205 104692
0.0461948 0.0266706 0.0205 102308
0.0475737 0.0274667 0.0205 101403
0.0489527 0.0282628 0.0205 101130
0.0503316 0.029059 0.0205 100969
0.0517106 0.0298551 0.0205 100589
0.0530895 0.0306512 0.0205 100236
0.0544684 0.0314473 0.0205 100128
0.0558474 0.0322435 0.0205 100587
0.0572264 0.0330397 0.0205 101164
0.0586053 0.0338357 0.0205 101445
0.0599842 0.0346319 0.0205 101388
0.0613632 0.0354281 0.0205 100789
0.0627422 0.0362242 0.0205 100487
0.0641211 0.0370204 0.0205 100517
0.0655001 0.0378164 0.0205 100867
0.066879 0.0386126 0.0205 101257
0.0682579 0.0394088 0.0205 101569
0.0696369 0.0402049 0.0205 101696
0.0710158 0.041001 0.0205 101293
0.0723947 0.0417971 0.0205 100875
0.0737737 0.0425932 0.0205 100579
0.0751527 0.0433894 0.0205 100509
0.0765316 0.0441856 0.0205 100644
0.0779106 0.0449817 0.0205 101120
0.0792895 0.0457778 0.0205 101639
0.0806685 0.0465739 0.0205 101983
0.0820474 0.0473701 0.0205 102159
0.0834263 0.0481662 0.0205 101881
0.0848053 0.0489624 0.0205 101453
0.0861843 0.0497585 0.0205 101080
0.0875632 0.0505546 0.0205 100711
0.0889421 0.0513508 0.0205 100589
0.0903211 0.0521469 0.0205 100646
0.0917 0.0529431 0.0205 100986
0.093079 0.0537392 0.0205 101536
0.094458 0.0545353 0.0205 102197
0.0958369 0.0553315 0.0205 102631
0.0972159 0.0561276 0.0205 102990
0.0985948 0.0569238 0.0205 102992
0.0999737 0.0577198 0.0205 102843
0.101352 0.058516 0.0205 102582
0.102732 0.0593121 0.0205 102317
0.10411 0.0601083 0.0205 102080
0.105489 0.0609044 0.0205 101893
0.106868 0.0617005 0.0205 101842
0.108248 0.0624967 0.0205 101852
0.109627 0.0632928 0.0205 102009
0.111006 0.064089 0.0205 102175
0.112385 0.0648851 0.0205 102351
0.113764 0.0656812 0.0205 102486
0.115143 0.0664774 0.0205 102560
0.116522 0.0672735 0.0205 102612
0.117901 0.0680697 0.0205 102625
0.119279 0.0688658 0.0205 102684
0.120658 0.0696619 0.0205 102523
0.122037 0.0704581 0.0205 102445
0.123415 0.0712542 0.0205 102321
0.124794 0.0720503 0.0205 102225
0.126173 0.0728465 0.0205 102095
0.127552 0.0736426 0.0205 101958
0.128931 0.0744387 0.0205 101920
0.13031 0.0752348 0.0205 101887
0.131689 0.076031 0.0205 101899
0.133069 0.0768271 0.0205 101937
0.134447 0.0776233 0.0205 101970
0.135827 0.0784194 0.0205 101777
