# wallHeatFlux  FACE_DATA 203
# x  y  z  wallHeatFlux
-0.873265 0 0.0205 -297614
-0.846493 0 0.0205 -77760.9
-0.820677 0 0.0205 -76327.7
-0.795786 0 0.0205 -75425.4
-0.771783 0 0.0205 -74841.5
-0.74637 0 0.0205 -74788.4
-0.719597 0 0.0205 -74470
-0.693782 0 0.0205 -73779.9
-0.66889 0 0.0205 -73196.1
-0.644887 0 0.0205 -72824.5
-0.621743 0 0.0205 -72346.8
-0.599426 0 0.0205 -71709.8
-0.577905 0 0.0205 -71179.1
-0.557154 0 0.0205 -70754.4
-0.537145 0 0.0205 -70489
-0.517849 0 0.0205 -70117.5
-0.499243 0 0.0205 -69692.8
-0.481301 0 0.0205 -69268.2
-0.463999 0 0.0205 -68896.7
-0.447314 0 0.0205 -68631.3
-0.431225 0 0.0205 -68472
-0.41571 0 0.0205 -68259.7
-0.400747 0 0.0205 -67941.2
-0.386317 0 0.0205 -67622.8
-0.372401 0 0.0205 -67251.2
-0.358981 0 0.0205 -67038.9
-0.346039 0 0.0205 -66826.6
-0.333556 0 0.0205 -66773.5
-0.321518 0 0.0205 -66773.5
-0.309908 0 0.0205 -66720.4
-0.298709 0 0.0205 -66667.3
-0.287908 0 0.0205 -66561.2
-0.27749 0 0.0205 -66348.9
-0.267441 0 0.0205 -66030.4
-0.257748 0 0.0205 -65765
-0.248397 0 0.0205 -65499.6
-0.239378 0 0.0205 -65234.2
-0.230677 0 0.0205 -65021.9
-0.222282 0 0.0205 -64862.6
-0.214183 0 0.0205 -64756.5
-0.20637 0 0.0205 -64703.4
-0.19883 0 0.0205 -64756.5
-0.191555 0 0.0205 -64756.5
-0.184536 0 0.0205 -64809.6
-0.177762 0 0.0205 -64915.7
-0.171224 0 0.0205 -64915.7
-0.164914 0 0.0205 -64968.8
-0.158824 0 0.0205 -64968.8
-0.152944 0 0.0205 -64968.8
-0.147268 0 0.0205 -64968.8
-0.141788 0 0.0205 -64915.7
-0.136496 0 0.0205 -64862.6
-0.131387 0 0.0205 -64756.5
-0.126452 0 0.0205 -64703.4
-0.121685 0 0.0205 -64544.2
-0.117081 0 0.0205 -64438
-0.112632 0 0.0205 -64278.8
-0.108332 0 0.0205 -64119.5
-0.104177 0 0.0205 -63960.3
-0.100161 0 0.0205 -63854.1
-0.0962773 0 0.0205 -63694.9
-0.0925221 0 0.0205 -63588.7
-0.08889 0 0.0205 -63482.6
-0.0853762 0 0.0205 -63376.4
-0.0819759 0 0.0205 -63270.3
-0.0786847 0 0.0205 -63164.1
-0.0754981 0 0.0205 -63111
-0.0724121 0 0.0205 -63004.9
-0.0694223 0 0.0205 -62951.8
-0.066525 0 0.0205 -62845.6
-0.0637161 0 0.0205 -62792.6
-0.060992 0 0.0205 -62739.5
-0.0583491 0 0.0205 -62739.5
-0.0557837 0 0.0205 -62686.4
-0.0532926 0 0.0205 -62633.3
-0.0508723 0 0.0205 -62633.3
-0.0485197 0 0.0205 -62580.2
-0.0462317 0 0.0205 -62580.2
-0.0440053 0 0.0205 -62527.2
-0.0418373 0 0.0205 -62527.2
-0.039725 0 0.0205 -62527.2
-0.0376655 0 0.0205 -62527.2
-0.0356562 0 0.0205 -62527.2
-0.0336943 0 0.0205 -62527.2
-0.0317773 0 0.0205 -62102.5
-0.0299025 0 0.0205 -56847.7
-0.0280674 0 0.0205 -41932.5
-0.0262697 0 0.0205 -40977.1
-0.024507 0 0.0205 -59236.3
-0.0227768 0 0.0205 -71338.3
-0.021077 0 0.0205 -79990.2
-0.0194052 0 0.0205 -86625.1
-0.0177593 0 0.0205 -92463.8
-0.016137 0 0.0205 -97187.8
-0.014536 0 0.0205 -101646
-0.0129545 0 0.0205 -105256
-0.0113902 0 0.0205 -107910
-0.00984104 0 0.0205 -109608
-0.00830498 0 0.0205 -111254
-0.00677997 0 0.0205 -113642
-0.00526398 0 0.0205 -117729
-0.00375499 0 0.0205 -125373
-0.002251 0 0.0205 -139757
-0.00075 0 0.0205 -156106
0.000689475 0.000398068 0.0205 -157823
0.00206843 0.0011942 0.0205 -199439
0.00344737 0.00199034 0.0205 -229043
0.00482631 0.00278648 0.0205 -262200
0.00620527 0.00358261 0.0205 -301978
0.00758422 0.00437875 0.0205 -349662
0.00896317 0.00517489 0.0205 -404700
0.0103421 0.00597102 0.0205 -467339
0.0117211 0.00676715 0.0205 -538931
0.0131 0.00756329 0.0205 -621725
0.0144789 0.00835943 0.0205 -715634
0.0158579 0.00915557 0.0205 -811231
0.0172368 0.00995171 0.0205 -922194
0.0186158 0.0107478 0.0205 -1.04719e+06
0.0199947 0.0115439 0.0205 -1.18836e+06
0.0213737 0.0123401 0.0205 -1.37317e+06
0.0227526 0.0131362 0.0205 -1.5493e+06
0.0241316 0.0139323 0.0205 -1.71334e+06
0.0255106 0.0147285 0.0205 -1.90073e+06
0.0268895 0.0155246 0.0205 -2.0302e+06
0.0282685 0.0163208 0.0205 -2.13799e+06
0.0296474 0.0171169 0.0205 -2.23883e+06
0.0310264 0.017913 0.0205 -2.264e+06
0.0324053 0.0187092 0.0205 -2.2777e+06
0.0337843 0.0195054 0.0205 -2.2507e+06
0.0351632 0.0203015 0.0205 -2.1063e+06
0.0365421 0.0210976 0.0205 -1.97413e+06
0.037921 0.0218938 0.0205 -1.8688e+06
0.0393 0.0226898 0.0205 -1.78554e+06
0.0406789 0.023486 0.0205 -1.78943e+06
0.0420579 0.0242821 0.0205 -1.72866e+06
0.0434368 0.0250783 0.0205 -1.66329e+06
0.0448158 0.0258745 0.0205 -1.60228e+06
0.0461948 0.0266706 0.0205 -1.53551e+06
0.0475737 0.0274667 0.0205 -1.50224e+06
0.0489527 0.0282628 0.0205 -1.50112e+06
0.0503316 0.029059 0.0205 -1.47983e+06
0.0517106 0.0298551 0.0205 -1.46409e+06
0.0530895 0.0306512 0.0205 -1.45022e+06
0.0544684 0.0314473 0.0205 -1.42016e+06
0.0558474 0.0322435 0.0205 -1.43881e+06
0.0572264 0.0330397 0.0205 -1.43186e+06
0.0586053 0.0338357 0.0205 -1.40432e+06
0.0599842 0.0346319 0.0205 -1.41573e+06
0.0613632 0.0354281 0.0205 -1.38691e+06
0.0627422 0.0362242 0.0205 -1.37105e+06
0.0641211 0.0370204 0.0205 -1.37171e+06
0.0655001 0.0378164 0.0205 -1.35813e+06
0.066879 0.0386126 0.0205 -1.35325e+06
0.0682579 0.0394088 0.0205 -1.36328e+06
0.0696369 0.0402049 0.0205 -1.36322e+06
0.0710158 0.041001 0.0205 -1.34975e+06
0.0723947 0.0417971 0.0205 -1.3349e+06
0.0737737 0.0425932 0.0205 -1.3076e+06
0.0751527 0.0433894 0.0205 -1.3241e+06
0.0765316 0.0441856 0.0205 -1.31318e+06
0.0779106 0.0449817 0.0205 -1.30865e+06
0.0792895 0.0457778 0.0205 -1.31625e+06
0.0806685 0.0465739 0.0205 -1.30554e+06
0.0820474 0.0473701 0.0205 -1.29986e+06
0.0834263 0.0481662 0.0205 -1.30328e+06
0.0848053 0.0489624 0.0205 -1.28327e+06
0.0861843 0.0497585 0.0205 -1.27243e+06
0.0875632 0.0505546 0.0205 -1.26482e+06
0.0889421 0.0513508 0.0205 -1.2445e+06
0.0903211 0.0521469 0.0205 -1.26027e+06
0.0917 0.0529431 0.0205 -1.25596e+06
0.093079 0.0537392 0.0205 -1.24141e+06
0.094458 0.0545353 0.0205 -1.26648e+06
0.0958369 0.0553315 0.0205 -1.25998e+06
0.0972159 0.0561276 0.0205 -1.25992e+06
0.0985948 0.0569238 0.0205 -1.2674e+06
0.0999737 0.0577198 0.0205 -1.25423e+06
0.101352 0.058516 0.0205 -1.24586e+06
0.102732 0.0593121 0.0205 -1.2514e+06
0.10411 0.0601083 0.0205 -1.24754e+06
0.105489 0.0609044 0.0205 -1.23967e+06
0.106868 0.0617005 0.0205 -1.22897e+06
0.108248 0.0624967 0.0205 -1.20844e+06
0.109627 0.0632928 0.0205 -1.22858e+06
0.111006 0.064089 0.0205 -1.22143e+06
0.112385 0.0648851 0.0205 -1.21559e+06
0.113764 0.0656812 0.0205 -1.22204e+06
0.115143 0.0664774 0.0205 -1.20966e+06
0.116522 0.0672735 0.0205 -1.20511e+06
0.117901 0.0680697 0.0205 -1.21144e+06
0.119279 0.0688658 0.0205 -1.20271e+06
0.120658 0.0696619 0.0205 -1.19499e+06
0.122037 0.0704581 0.0205 -1.19483e+06
0.123415 0.0712542 0.0205 -1.17816e+06
0.124794 0.0720503 0.0205 -1.19518e+06
0.126173 0.0728465 0.0205 -1.18736e+06
0.127552 0.0736426 0.0205 -1.16688e+06
0.128931 0.0744387 0.0205 -1.18286e+06
0.13031 0.0752348 0.0205 -1.17191e+06
0.131689 0.076031 0.0205 -1.16692e+06
0.133069 0.0768271 0.0205 -1.17418e+06
0.134447 0.0776233 0.0205 -1.15959e+06
0.135827 0.0784194 0.0205 -1.16312e+06
