# Wall heat-flux
# Time        	patch         	min           	max           	integral      
5000          	base	-2.105914e+05	-5.783367e+03	-1.236113e+02
