# Wall heat-flux
# Time        	patch         	min           	max           	integral      
12800         	base	-1.226977e+04	3.515405e+04	3.934121e+02
