# wallHeatFlux  FACE_DATA 398
# x  y  z  wallHeatFlux
-0.7975 0 0.025 -653677
-0.79239 0 0.025 -120092
-0.787056 0 0.025 -71255
-0.781492 0 0.025 -64497.8
-0.775691 0 0.025 -65899.9
-0.769649 0 0.025 -66748.7
-0.763362 0 0.025 -67397.5
-0.756822 0 0.025 -67317.7
-0.750025 0 0.025 -66844.1
-0.742968 0 0.025 -66105.2
-0.735648 0 0.025 -65253
-0.72806 0 0.025 -64341.4
-0.720203 0 0.025 -63409.3
-0.712076 0 0.025 -62488.7
-0.703677 0 0.025 -61668.2
-0.695006 0 0.025 -60884.2
-0.686065 0 0.025 -60147.6
-0.676855 0 0.025 -59452.9
-0.667379 0 0.025 -58725
-0.65764 0 0.025 -58028.7
-0.647644 0 0.025 -57420
-0.637397 0 0.025 -56868.7
-0.626906 0 0.025 -56238
-0.616179 0 0.025 -55709.1
-0.605224 0 0.025 -55202.2
-0.594054 0 0.025 -54698.4
-0.582678 0 0.025 -54180.1
-0.57111 0 0.025 -53718.7
-0.559364 0 0.025 -53304.7
-0.547454 0 0.025 -52919.6
-0.535396 0 0.025 -52463
-0.523205 0 0.025 -52034.1
-0.510901 0 0.025 -51669.9
-0.4985 0 0.025 -51333.3
-0.486021 0 0.025 -51032.8
-0.473483 0 0.025 -50692.3
-0.460905 0 0.025 -50322
-0.448308 0 0.025 -49988.3
-0.435709 0 0.025 -49695.7
-0.42313 0 0.025 -49432.3
-0.41059 0 0.025 -49221.4
-0.39811 0 0.025 -48992.7
-0.385706 0 0.025 -48708.2
-0.373398 0 0.025 -48407.5
-0.361205 0 0.025 -48132.7
-0.349141 0 0.025 -47904
-0.337226 0 0.025 -47718.2
-0.325475 0 0.025 -47553.3
-0.313901 0 0.025 -47409.7
-0.30252 0 0.025 -47249.1
-0.291343 0 0.025 -47073.6
-0.280382 0 0.025 -46882
-0.269646 0 0.025 -46684.1
-0.259148 0 0.025 -46481.4
-0.248893 0 0.025 -46307.4
-0.23889 0 0.025 -46171.4
-0.229143 0 0.025 -46051
-0.219659 0 0.025 -45943.1
-0.210441 0 0.025 -45834.9
-0.201491 0 0.025 -45714
-0.192812 0 0.025 -45585.5
-0.184405 0 0.025 -45440.2
-0.176269 0 0.025 -45309.1
-0.168404 0 0.025 -45190.6
-0.160808 0 0.025 -45093.6
-0.15348 0 0.025 -45026.4
-0.146415 0 0.025 -44992.2
-0.13961 0 0.025 -44956.6
-0.133063 0 0.025 -44928.3
-0.126767 0 0.025 -44900.9
-0.120718 0 0.025 -44879.5
-0.11491 0 0.025 -44848.1
-0.109339 0 0.025 -44812.1
-0.103997 0 0.025 -44769.9
-0.0988805 0 0.025 -44715.8
-0.0939808 0 0.025 -44653.7
-0.0892928 0 0.025 -44582.4
-0.0848096 0 0.025 -44500.4
-0.0805248 0 0.025 -44419
-0.0764316 0 0.025 -44332.4
-0.0725237 0 0.025 -44251.3
-0.0687943 0 0.025 -44170.9
-0.065237 0 0.025 -44100.6
-0.0618454 0 0.025 -44031.3
-0.058613 0 0.025 -43961.2
-0.0555337 0 0.025 -43902.8
-0.0526013 0 0.025 -43843.7
-0.0498099 0 0.025 -43790.3
-0.0471536 0 0.025 -43742.3
-0.0446266 0 0.025 -43699.6
-0.0422235 0 0.025 -43662.3
-0.039939 0 0.025 -43625
-0.0377676 0 0.025 -43598.1
-0.0357044 0 0.025 -43572.2
-0.0337445 0 0.025 -43534.5
-0.0318832 0 0.025 -42376.9
-0.0301159 0 0.025 -36796.3
-0.0284383 0 0.025 -39915.9
-0.0268461 0 0.025 -59953.9
-0.0253353 0 0.025 -71968.7
-0.023902 0 0.025 -78237.1
-0.0225426 0 0.025 -82939.7
-0.0212532 0 0.025 -87062
-0.0200306 0 0.025 -90538.3
-0.0188715 0 0.025 -93796.7
-0.0177728 0 0.025 -96830.8
-0.0167313 0 0.025 -99570.7
-0.0157444 0 0.025 -102177
-0.0148092 0 0.025 -104644
-0.0139232 0 0.025 -106891
-0.0130838 0 0.025 -108853
-0.0122887 0 0.025 -110545
-0.0115356 0 0.025 -112011
-0.0108223 0 0.025 -113298
-0.0101469 0 0.025 -114441
-0.00950727 0 0.025 -115490
-0.00890168 0 0.025 -116513
-0.00832835 0 0.025 -117564
-0.00778557 0 0.025 -118688
-0.00727176 0 0.025 -119917
-0.0067854 0 0.025 -121260
-0.00632507 0 0.025 -122732
-0.00588937 0 0.025 -124337
-0.00547703 0 0.025 -126065
-0.0050868 0 0.025 -127922
-0.00471753 0 0.025 -129910
-0.0043681 0 0.025 -132057
-0.00403746 0 0.025 -134316
-0.00372461 0 0.025 -136711
-0.0034286 0 0.025 -139266
-0.00314855 0 0.025 -142016
-0.0028836 0 0.025 -144894
-0.00263294 0 0.025 -147698
-0.00239581 0 0.025 -150599
-0.0021715 0 0.025 -153629
-0.00195929 0 0.025 -156748
-0.00175856 0 0.025 -159954
-0.00156869 0 0.025 -163258
-0.00138908 0 0.025 -166672
-0.0012192 0 0.025 -170123
-0.00105853 0 0.025 -173639
-0.000906546 0 0.025 -177173
-0.000762803 0 0.025 -180588
-0.000626848 0 0.025 -183565
-0.000498265 0 0.025 -185157
-0.000376656 0 0.025 -183455
-0.000261642 0 0.025 -174669
-0.00015287 0 0.025 -151639
-5e-05 0 0.025 -98265.6
4.14519e-05 2.79596e-05 0.025 -69147.9
0.000125371 8.45641e-05 0.025 -82243.7
0.000211347 0.000142556 0.025 -97047.5
0.000299429 0.000201968 0.025 -108088
0.000389669 0.000262835 0.025 -117402
0.000482118 0.000325193 0.025 -126286
0.000576831 0.000389077 0.025 -134688
0.000673861 0.000454524 0.025 -142342
0.000773265 0.000521574 0.025 -149150
0.0008751 0.000590262 0.025 -155163
0.000979426 0.000660632 0.025 -160478
0.0010863 0.000732721 0.025 -165207
0.00119579 0.000806572 0.025 -169452
0.00130795 0.000882227 0.025 -173445
0.00142285 0.00095973 0.025 -177112
0.00154056 0.00103912 0.025 -180609
0.00166115 0.00112046 0.025 -183955
0.00178467 0.00120378 0.025 -187229
0.00191121 0.00128913 0.025 -190505
0.00204083 0.00137656 0.025 -193711
0.00217362 0.00146612 0.025 -196944
0.00230964 0.00155787 0.025 -200219
0.00244897 0.00165185 0.025 -203555
0.00259169 0.00174812 0.025 -206901
0.00273789 0.00184673 0.025 -210349
0.00288765 0.00194774 0.025 -213924
0.00304105 0.00205122 0.025 -217584
0.00319818 0.00215719 0.025 -221354
0.00335912 0.00226575 0.025 -225303
0.00352397 0.00237695 0.025 -229359
0.00369283 0.00249085 0.025 -233593
0.00386579 0.00260751 0.025 -237993
0.00404294 0.00272699 0.025 -242608
0.00422438 0.00284938 0.025 -247456
0.00441022 0.00297474 0.025 -252529
0.00460056 0.00310312 0.025 -257839
0.00479552 0.00323462 0.025 -263386
0.00499519 0.0033693 0.025 -269302
0.00519968 0.00350723 0.025 -275477
0.00540911 0.00364849 0.025 -282040
0.00562361 0.00379318 0.025 -288964
0.00584329 0.00394134 0.025 -296263
0.00606826 0.00409309 0.025 -304101
0.00629865 0.00424849 0.025 -312342
0.0065346 0.00440764 0.025 -321104
0.00677623 0.00457063 0.025 -330429
0.00702368 0.00473753 0.025 -340271
0.00727707 0.00490844 0.025 -350855
0.00753655 0.00508347 0.025 -362131
0.00780227 0.00526269 0.025 -374219
0.00807436 0.00544622 0.025 -387214
0.00835298 0.00563415 0.025 -401161
0.00863826 0.00582659 0.025 -416172
0.00893038 0.00602362 0.025 -432205
0.00922949 0.00622537 0.025 -449716
0.00953574 0.00643195 0.025 -468529
0.00984929 0.00664345 0.025 -488834
0.0101703 0.00686 0.025 -511000
0.0104991 0.00708171 0.025 -536232
0.0108356 0.00730871 0.025 -563254
0.0111801 0.0075411 0.025 -592053
0.0115329 0.00777902 0.025 -626797
0.011894 0.00802259 0.025 -665471
0.0122637 0.00827194 0.025 -706445
0.0126421 0.00852719 0.025 -753363
0.0130295 0.0087885 0.025 -799637
0.013426 0.00905597 0.025 -847212
0.013832 0.00932978 0.025 -895514
0.0142475 0.00961003 0.025 -940838
0.0146727 0.0098969 0.025 -988070
0.0151081 0.0101905 0.025 -1.03267e+06
0.0155536 0.010491 0.025 -1.07741e+06
0.0160097 0.0107986 0.025 -1.12599e+06
0.0164764 0.0111134 0.025 -1.17841e+06
0.016954 0.0114356 0.025 -1.23465e+06
0.0174427 0.0117653 0.025 -1.28927e+06
0.0179429 0.0121026 0.025 -1.34759e+06
0.0184548 0.0124479 0.025 -1.41764e+06
0.0189786 0.0128013 0.025 -1.47008e+06
0.0195146 0.0131628 0.025 -1.52513e+06
0.020063 0.0135327 0.025 -1.58796e+06
0.0206242 0.0139112 0.025 -1.63066e+06
0.0211983 0.0142984 0.025 -1.66351e+06
0.0217857 0.0146947 0.025 -1.70219e+06
0.0223867 0.0151 0.025 -1.73457e+06
0.0230015 0.0155147 0.025 -1.76343e+06
0.0236304 0.0159389 0.025 -1.7992e+06
0.0242738 0.0163729 0.025 -1.80902e+06
0.0249318 0.0168167 0.025 -1.83354e+06
0.025605 0.0172708 0.025 -1.85452e+06
0.0262935 0.0177352 0.025 -1.84449e+06
0.0269977 0.0182102 0.025 -1.83294e+06
0.0277178 0.0186959 0.025 -1.80896e+06
0.0284544 0.0191927 0.025 -1.8322e+06
0.0292075 0.0197008 0.025 -1.76359e+06
0.0299777 0.0202203 0.025 -1.70381e+06
0.0307653 0.0207514 0.025 -1.65298e+06
0.0315704 0.0212945 0.025 -1.60812e+06
0.0323937 0.0218499 0.025 -1.56912e+06
0.0332354 0.0224176 0.025 -1.53282e+06
0.0340959 0.022998 0.025 -1.50339e+06
0.0349755 0.0235913 0.025 -1.46705e+06
0.0358747 0.0241978 0.025 -1.4621e+06
0.0367938 0.0248178 0.025 -1.42455e+06
0.0377331 0.0254513 0.025 -1.3978e+06
0.0386932 0.0260989 0.025 -1.37623e+06
0.0396743 0.0267606 0.025 -1.35445e+06
0.0406769 0.0274369 0.025 -1.33957e+06
0.0417013 0.0281279 0.025 -1.32019e+06
0.042748 0.0288339 0.025 -1.32038e+06
0.0438175 0.0295552 0.025 -1.30604e+06
0.04491 0.0302922 0.025 -1.29086e+06
0.0460262 0.031045 0.025 -1.29581e+06
0.0471662 0.031814 0.025 -1.30391e+06
0.0483306 0.0325995 0.025 -1.28945e+06
0.0495199 0.0334016 0.025 -1.28781e+06
0.0507344 0.0342208 0.025 -1.28091e+06
0.0519746 0.0350573 0.025 -1.28382e+06
0.0532409 0.0359114 0.025 -1.29309e+06
0.0545339 0.0367835 0.025 -1.28152e+06
0.0558538 0.0376739 0.025 -1.27874e+06
0.0572012 0.0385827 0.025 -1.27762e+06
0.0585766 0.0395104 0.025 -1.27984e+06
0.0599804 0.0404573 0.025 -1.29468e+06
0.061413 0.0414236 0.025 -1.28079e+06
0.0628748 0.0424096 0.025 -1.30367e+06
0.0643665 0.0434157 0.025 -1.30138e+06
0.0658883 0.0444422 0.025 -1.27712e+06
0.0674408 0.0454894 0.025 -1.27059e+06
0.0690245 0.0465576 0.025 -1.27304e+06
0.0706398 0.0476471 0.025 -1.26815e+06
0.0722871 0.0487582 0.025 -1.26243e+06
0.0739669 0.0498912 0.025 -1.25765e+06
0.0756797 0.0510466 0.025 -1.26764e+06
0.0774258 0.0522244 0.025 -1.27596e+06
0.0792059 0.053425 0.025 -1.27131e+06
0.0810203 0.0546489 0.025 -1.29306e+06
0.0828694 0.0558961 0.025 -1.26485e+06
0.0847537 0.0571671 0.025 -1.30987e+06
0.0866737 0.0584622 0.025 -1.27388e+06
0.0886298 0.0597816 0.025 -1.27944e+06
0.0906224 0.0611256 0.025 -1.28857e+06
0.0926518 0.0624944 0.025 -1.25219e+06
0.0947185 0.0638884 0.025 -1.28813e+06
0.096823 0.065308 0.025 -1.24003e+06
0.0989659 0.0667532 0.025 -1.32024e+06
0.101147 0.0682245 0.025 -1.65873e+06
0.103367 0.0697219 0.025 -1.57584e+06
0.105626 0.0712458 0.025 -1.19816e+06
0.107926 0.0727965 0.025 -1.20037e+06
0.110265 0.074374 0.025 -1.24262e+06
0.112644 0.0759789 0.025 -1.86e+06
0.115063 0.0776111 0.025 -1.25074e+06
0.117524 0.0792709 0.025 -1.73001e+06
0.120026 0.0809585 0.025 -1.89085e+06
0.122569 0.0826741 0.025 -1.66962e+06
0.125155 0.0844179 0.025 -1.48315e+06
0.127782 0.0861901 0.025 -1.28421e+06
0.130451 0.0879908 0.025 -1.23816e+06
0.133163 0.08982 0.025 -1.21474e+06
0.135918 0.0916781 0.025 -1.18567e+06
0.138716 0.0935651 0.025 -1.19042e+06
0.141556 0.095481 0.025 -1.20175e+06
0.14444 0.097426 0.025 -1.58215e+06
0.147367 0.0994004 0.025 -2.30484e+06
0.150337 0.101404 0.025 -1.65671e+06
0.153351 0.103437 0.025 -1.59725e+06
0.156408 0.105498 0.025 -2.1886e+06
0.159508 0.107589 0.025 -1.01671e+06
0.162651 0.10971 0.025 -1.5018e+06
0.165838 0.111859 0.025 -3.46767e+06
0.169069 0.114039 0.025 -1.65078e+06
0.172343 0.116247 0.025 -1.97104e+06
0.175659 0.118483 0.025 -1.85249e+06
0.179018 0.120749 0.025 -1.84276e+06
0.182421 0.123045 0.025 -1.89934e+06
0.185866 0.125368 0.025 -1.66987e+06
0.189353 0.12772 0.025 -1.71341e+06
0.192882 0.1301 0.025 -1.82439e+06
0.196453 0.132509 0.025 -1.72357e+06
0.200065 0.134946 0.025 -2.10403e+06
0.203718 0.13741 0.025 -1.90986e+06
0.207412 0.139901 0.025 -909931
0.211146 0.14242 0.025 -966759
0.214919 0.144965 0.025 -1.5675e+06
0.218732 0.147537 0.025 -962818
0.222583 0.150134 0.025 -1.8372e+06
0.226472 0.152757 0.025 -952120
0.230399 0.155406 0.025 -1.76617e+06
0.234362 0.15808 0.025 -1.66692e+06
0.238362 0.160777 0.025 -2.21777e+06
0.242396 0.163498 0.025 -1.93871e+06
0.246466 0.166244 0.025 -2.09895e+06
0.250569 0.169012 0.025 -926882
0.254706 0.171801 0.025 -1.51411e+06
0.258874 0.174613 0.025 -1.50823e+06
0.263074 0.177446 0.025 -1.90159e+06
0.267304 0.180299 0.025 -1.54381e+06
0.271564 0.183172 0.025 -927663
0.275852 0.186064 0.025 -1.5767e+06
0.280168 0.188975 0.025 -902082
0.28451 0.191904 0.025 -1.59886e+06
0.288876 0.19485 0.025 -2.16298e+06
0.293268 0.197812 0.025 -1.56666e+06
0.297683 0.20079 0.025 -1.84139e+06
0.302119 0.203782 0.025 -2.01188e+06
0.306577 0.206788 0.025 -1.47747e+06
0.311054 0.209808 0.025 -1.54142e+06
0.315549 0.212841 0.025 -1.13459e+06
0.320063 0.215885 0.025 -1.89911e+06
0.324591 0.218939 0.025 -1.38631e+06
0.329134 0.222003 0.025 -1.3652e+06
0.333691 0.225077 0.025 -2.05993e+06
0.33826 0.228159 0.025 -1.74722e+06
0.342839 0.231248 0.025 -1.77968e+06
0.347428 0.234343 0.025 -854877
0.352025 0.237444 0.025 -1.8538e+06
0.356628 0.240548 0.025 -1.37355e+06
0.361237 0.243658 0.025 -1.12543e+06
0.36585 0.246769 0.025 -2.35941e+06
0.370465 0.249882 0.025 -1.08291e+06
0.375082 0.252996 0.025 -1.45826e+06
0.379698 0.25611 0.025 -2.29784e+06
0.384313 0.259223 0.025 -1.36293e+06
0.388926 0.262333 0.025 -1.64765e+06
0.393534 0.265442 0.025 -1.3666e+06
0.398136 0.268546 0.025 -858070
0.40273 0.271645 0.025 -1.56362e+06
0.407317 0.274739 0.025 -1.62418e+06
0.411894 0.277826 0.025 -1.99804e+06
0.41646 0.280906 0.025 -821471
0.421014 0.283977 0.025 -1.53956e+06
0.425554 0.28704 0.025 -1.78061e+06
0.430079 0.290092 0.025 -1.43858e+06
0.434588 0.293133 0.025 -1.74547e+06
0.439079 0.296162 0.025 -1.24178e+06
0.443551 0.299179 0.025 -1.60284e+06
0.448004 0.302183 0.025 -1.62886e+06
0.452437 0.305172 0.025 -1.59419e+06
0.456846 0.308146 0.025 -1.48449e+06
0.461232 0.311105 0.025 -1.50933e+06
0.465593 0.314047 0.025 -1.39885e+06
0.469929 0.316971 0.025 -1.85612e+06
0.474238 0.319878 0.025 -966712
0.47852 0.322766 0.025 -1.07885e+06
0.482773 0.325635 0.025 -857201
0.486996 0.328483 0.025 -1.28059e+06
0.491189 0.331311 0.025 -1.90888e+06
0.49535 0.334118 0.025 -1.25117e+06
