# Wall heat-flux
# Time        	patch         	min           	max           	integral      
1100          	base	-2.276079e+06	-3.359950e+04	-7.574520e+03
