# y+ ()       
# Time        	patch         	min           	max           	average       
5100          	base	7.353519e-03	2.543647e+01	5.549112e+00
