/*--------------------------------*- C++ -*----------------------------------*\
| =========                 |                                                 |
| \\      /  F ield         | OpenFOAM: The Open Source CFD Toolbox           |
|  \\    /   O peration     | Version:  v2012                                 |
|   \\  /    A nd           | Website:  www.openfoam.com                      |
|    \\/     M anipulation  |                                                 |
\*---------------------------------------------------------------------------*/
FoamFile
{
    version     2.0;
    format      ascii;
    class       volScalarField;
    location    "11500";
    object      alphat;
}
// * * * * * * * * * * * * * * * * * * * * * * * * * * * * * * * * * * * * * //

dimensions      [1 -1 -1 0 0 0 0];


internalField   nonuniform List<scalar> 
53312
(
2.35274e-09
7.81411e-11
2.06981e-09
2.09758e-11
7.23059e-11
2.14396e-09
1.20445e-11
1.95273e-11
7.16262e-11
2.69804e-09
8.01578e-12
1.12654e-11
1.85686e-11
8.33441e-11
3.55071e-09
5.75619e-12
7.52256e-12
1.07146e-11
1.84582e-11
1.269e-10
4.43586e-09
4.48834e-12
5.41378e-12
7.17136e-12
1.04844e-11
2.0283e-11
2.25056e-10
5.20044e-09
3.67756e-12
4.22806e-12
5.17219e-12
7.01471e-12
1.09241e-11
2.62777e-11
4.01291e-10
5.82768e-09
3.11677e-12
3.46892e-12
4.04987e-12
5.07915e-12
7.26121e-12
1.27625e-11
4.04176e-11
6.72481e-10
6.36973e-09
2.70785e-12
2.94354e-12
3.33543e-12
4.01528e-12
5.31064e-12
8.35874e-12
1.75726e-11
6.80005e-11
1.04276e-09
6.91014e-09
2.39368e-12
2.56121e-12
2.84731e-12
3.36883e-12
4.32624e-12
6.23917e-12
1.12319e-11
2.75305e-11
1.15993e-10
1.49994e-09
7.43461e-09
2.14701e-12
2.26867e-12
2.51167e-12
2.97014e-12
3.84483e-12
5.40326e-12
8.67799e-12
1.72727e-11
4.57824e-11
1.92746e-10
2.01799e-09
7.91795e-09
1.95631e-12
2.04259e-12
2.28237e-12
2.82359e-12
3.70805e-12
5.34601e-12
8.12077e-12
1.37952e-11
2.85031e-11
7.66349e-11
3.0742e-10
2.56315e-09
8.36637e-09
1.82932e-12
1.87571e-12
2.17645e-12
2.906e-12
4.21931e-12
6.04416e-12
8.98424e-12
1.37651e-11
2.33494e-11
4.77929e-11
1.25667e-10
4.68934e-10
3.10158e-09
8.79611e-09
1.76264e-12
1.77822e-12
2.24805e-12
3.4786e-12
5.56837e-12
8.3217e-12
1.15817e-11
1.64679e-11
2.42954e-11
3.98786e-11
7.90395e-11
1.99707e-10
6.84287e-10
3.60769e-09
9.22188e-09
1.77938e-12
1.77185e-12
2.5381e-12
5.04698e-12
8.72369e-12
1.31583e-11
1.78926e-11
2.29335e-11
3.04097e-11
4.25661e-11
6.69073e-11
1.27321e-10
3.06614e-10
9.57032e-10
4.06689e-09
9.66089e-09
1.90506e-12
1.89971e-12
3.5241e-12
8.25036e-12
1.58262e-11
2.3483e-11
3.07855e-11
3.74354e-11
4.41177e-11
5.46409e-11
7.25899e-11
1.0916e-10
1.98974e-10
4.54721e-10
1.2862e-09
4.47601e-09
1.0145e-08
2.14655e-12
2.216e-12
5.62282e-12
1.54784e-11
3.00868e-11
4.59606e-11
5.77206e-11
6.68058e-11
7.38908e-11
8.10595e-11
9.45976e-11
1.19833e-10
1.72746e-10
3.01524e-10
6.52068e-10
1.66577e-09
4.84081e-09
1.07198e-08
2.45899e-12
2.72308e-12
9.37905e-12
3.00054e-11
6.07782e-11
9.13881e-11
1.15812e-10
1.27774e-10
1.34143e-10
1.37539e-10
1.42228e-10
1.57761e-10
1.91515e-10
2.65277e-10
4.43423e-10
9.05415e-10
2.08465e-09
5.1745e-09
1.13516e-08
2.77294e-12
3.3203e-12
1.47217e-11
5.54098e-11
1.21911e-10
1.87761e-10
2.34126e-10
2.58827e-10
2.58985e-10
2.52016e-10
2.43137e-10
2.39395e-10
2.54158e-10
2.9686e-10
3.95833e-10
6.3355e-10
1.21897e-09
2.52846e-09
5.49405e-09
1.20108e-08
3.05361e-12
3.90448e-12
2.05341e-11
9.10407e-11
2.28217e-10
3.79029e-10
4.83399e-10
5.27499e-10
5.26996e-10
4.89172e-10
4.48144e-10
4.11309e-10
3.88501e-10
3.9682e-10
4.47239e-10
5.74718e-10
8.80409e-10
1.59333e-09
2.9814e-09
5.82045e-09
1.26148e-08
3.28936e-12
4.39943e-12
2.6081e-11
1.29329e-10
3.7647e-10
7.10535e-10
9.76908e-10
1.09121e-09
1.07943e-09
9.9809e-10
8.73084e-10
7.61495e-10
6.70212e-10
6.10534e-10
6.02156e-10
6.56098e-10
8.12961e-10
1.19109e-09
2.02476e-09
3.42818e-09
6.15544e-09
1.31721e-08
3.4909e-12
4.81775e-12
3.05374e-11
1.65586e-10
5.34831e-10
1.17089e-09
1.83003e-09
2.20498e-09
2.23533e-09
2.05187e-09
1.78504e-09
1.48801e-09
1.24556e-09
1.05724e-09
9.32373e-10
8.90134e-10
9.38625e-10
1.12148e-09
1.57015e-09
2.50489e-09
3.85545e-09
6.49207e-09
1.37615e-08
3.65162e-12
5.16803e-12
3.43363e-11
1.94423e-10
6.83937e-10
1.66035e-09
3.01029e-09
4.12582e-09
4.51493e-09
4.25255e-09
3.68081e-09
3.04789e-09
2.44068e-09
1.97204e-09
1.62079e-09
1.38733e-09
1.28404e-09
1.31099e-09
1.51001e-09
2.01854e-09
2.99104e-09
4.25332e-09
6.84506e-09
1.44164e-08
3.78278e-12
5.44361e-12
3.74516e-11
2.18927e-10
8.01963e-10
2.11902e-09
4.26038e-09
6.77452e-09
8.43798e-09
8.5848e-09
7.63414e-09
6.3017e-09
5.00822e-09
3.87495e-09
3.03455e-09
2.42178e-09
2.01527e-09
1.80978e-09
1.7892e-09
1.98585e-09
2.53252e-09
3.44162e-09
4.61784e-09
7.23434e-09
1.51595e-08
3.88207e-12
5.66611e-12
3.9861e-11
2.38887e-10
9.01854e-10
2.48061e-09
5.42674e-09
9.56975e-09
1.38305e-08
1.60262e-08
1.54038e-08
1.30803e-08
1.03815e-08
7.96677e-09
5.98031e-09
4.55219e-09
3.53419e-09
2.86178e-09
2.49455e-09
2.38768e-09
2.55252e-09
3.03611e-09
3.9156e-09
4.95292e-09
7.68906e-09
1.6011e-08
3.95953e-12
5.83257e-12
4.17735e-11
2.54197e-10
9.82858e-10
2.78572e-09
6.34341e-09
1.21679e-08
1.95032e-08
2.62236e-08
2.87237e-08
2.63809e-08
2.15675e-08
1.65558e-08
1.23216e-08
8.99974e-09
6.67176e-09
5.04462e-09
3.9766e-09
3.36487e-09
3.11746e-09
3.2086e-09
3.52529e-09
4.41057e-09
5.27632e-09
8.20036e-09
1.69528e-08
4.01292e-12
5.96151e-12
4.31645e-11
2.66224e-10
1.04462e-09
3.03234e-09
7.11474e-09
1.42041e-08
2.47556e-08
3.69149e-08
4.69222e-08
4.91393e-08
4.34815e-08
3.44291e-08
2.56705e-08
1.85867e-08
1.32364e-08
9.56787e-09
7.0498e-09
5.41076e-09
4.44415e-09
3.9844e-09
3.8431e-09
4.0465e-09
4.94233e-09
5.6106e-09
8.78132e-09
1.79214e-08
4.04285e-12
6.04729e-12
4.42289e-11
2.74836e-10
1.09275e-09
3.21932e-09
7.73604e-09
1.59138e-08
2.8863e-08
4.67785e-08
6.59364e-08
8.01297e-08
8.08947e-08
6.93831e-08
5.34442e-08
3.88251e-08
2.74088e-08
1.90552e-08
1.34397e-08
9.6523e-09
7.21256e-09
5.74991e-09
4.98792e-09
4.48175e-09
4.60277e-09
5.54518e-09
5.95372e-09
9.4246e-09
1.89288e-08
4.0561e-12
6.09603e-12
4.48812e-11
2.81334e-10
1.1268e-09
3.36426e-09
8.206e-09
1.72875e-08
3.23032e-08
5.44754e-08
8.34104e-08
1.12394e-07
1.31662e-07
1.28916e-07
1.07663e-07
8.09359e-08
5.74161e-08
3.95777e-08
2.68801e-08
1.85038e-08
1.29538e-08
9.42301e-09
7.29134e-09
5.90163e-09
5.17638e-09
5.19352e-09
6.3084e-09
6.29919e-09
1.01331e-08
1.97923e-08
4.06159e-12
6.11864e-12
4.52224e-11
2.85162e-10
1.15222e-09
3.46573e-09
8.56763e-09
1.83228e-08
3.50627e-08
6.09091e-08
9.70228e-08
1.41922e-07
1.84309e-07
2.09379e-07
1.99751e-07
1.62983e-07
1.19866e-07
8.31599e-08
5.60188e-08
3.718e-08
2.49814e-08
1.70463e-08
1.20711e-08
8.96052e-09
6.88859e-09
5.93117e-09
5.83286e-09
6.81748e-09
6.66305e-09
1.09097e-08
2.05925e-08
4.05765e-12
6.12828e-12
4.53642e-11
2.86951e-10
1.16664e-09
3.54072e-09
8.81938e-09
1.9117e-08
3.71372e-08
6.60602e-08
1.08375e-07
1.64884e-07
2.3228e-07
2.92459e-07
3.23655e-07
3.01879e-07
2.4126e-07
1.73881e-07
1.18088e-07
7.77739e-08
5.0447e-08
3.30825e-08
2.20028e-08
1.51694e-08
1.05404e-08
7.97605e-09
6.75381e-09
6.57139e-09
7.30431e-09
7.07096e-09
1.18044e-08
2.09125e-08
4.0425e-12
6.12078e-12
4.53984e-11
2.87505e-10
1.1728e-09
3.58206e-09
9.00386e-09
1.96659e-08
3.87226e-08
6.99241e-08
1.17453e-07
1.83992e-07
2.69496e-07
3.67788e-07
4.50964e-07
4.87819e-07
4.45998e-07
3.49779e-07
2.47328e-07
1.64516e-07
1.05957e-07
6.71597e-08
4.29855e-08
2.7869e-08
1.81701e-08
1.22963e-08
9.17868e-09
7.66277e-09
7.55397e-09
7.75162e-09
7.55068e-09
1.27585e-08
2.09016e-08
4.01958e-12
6.09542e-12
4.52631e-11
2.87401e-10
1.17396e-09
3.59824e-09
9.10316e-09
2.00651e-08
3.98134e-08
7.28705e-08
1.24248e-07
1.99243e-07
3.00414e-07
4.26096e-07
5.65755e-07
6.77766e-07
7.18481e-07
6.45166e-07
4.97165e-07
3.45192e-07
2.2495e-07
1.41675e-07
8.77475e-08
5.48185e-08
3.42881e-08
2.13134e-08
1.42541e-08
1.0518e-08
8.70679e-09
9.06766e-09
8.11172e-09
8.12706e-09
1.37301e-08
2.07431e-08
3.99365e-12
6.0591e-12
4.50022e-11
2.86184e-10
1.17242e-09
3.59916e-09
9.13865e-09
2.02768e-08
4.06024e-08
7.48877e-08
1.29414e-07
2.10653e-07
3.25044e-07
4.74413e-07
6.54374e-07
8.48023e-07
9.95047e-07
1.03566e-06
9.14683e-07
6.93281e-07
4.72879e-07
3.01945e-07
1.85962e-07
1.12548e-07
6.86412e-08
4.03685e-08
2.48284e-08
1.64534e-08
1.20314e-08
1.00442e-08
1.02188e-08
8.36232e-09
8.81885e-09
1.46563e-08
2.04409e-08
3.96441e-12
6.01876e-12
4.46563e-11
2.84198e-10
1.16647e-09
3.592e-09
9.13561e-09
2.0346e-08
4.10132e-08
7.63424e-08
1.32948e-07
2.19302e-07
3.43441e-07
5.12848e-07
7.27612e-07
9.79051e-07
1.24119e-06
1.42912e-06
1.46245e-06
1.2717e-06
9.48771e-07
6.35973e-07
3.97904e-07
2.39663e-07
1.41754e-07
8.17117e-08
4.71772e-08
2.87919e-08
1.89461e-08
1.38213e-08
1.19946e-08
1.11046e-08
8.52876e-09
9.62373e-09
1.55424e-08
2.00484e-08
3.92984e-12
5.97183e-12
4.42876e-11
2.81706e-10
1.15746e-09
3.57126e-09
9.11299e-09
2.03312e-08
4.114e-08
7.70904e-08
1.35479e-07
2.25202e-07
3.57368e-07
5.41512e-07
7.85774e-07
1.08701e-06
1.43005e-06
1.77657e-06
2.00985e-06
2.02419e-06
1.73452e-06
1.2744e-06
8.39792e-07
5.14847e-07
3.03328e-07
1.72302e-07
9.57451e-08
5.48442e-08
3.32907e-08
2.18372e-08
1.61354e-08
1.50759e-08
1.17819e-08
8.67465e-09
1.05376e-08
1.6589e-08
1.95999e-08
3.89399e-12
5.91635e-12
4.38632e-11
2.79071e-10
1.14635e-09
3.54167e-09
9.05595e-09
2.0272e-08
4.10958e-08
7.73061e-08
1.36774e-07
2.29421e-07
3.66843e-07
5.63177e-07
8.29095e-07
1.17257e-06
1.58514e-06
2.04222e-06
2.48923e-06
2.7695e-06
2.74715e-06
2.32102e-06
1.68031e-06
1.08881e-06
6.54175e-07
3.75755e-07
2.02341e-07
1.11528e-07
6.35442e-08
3.84825e-08
2.53607e-08
1.95254e-08
1.72073e-08
1.2122e-08
8.87452e-09
1.15284e-08
1.8129e-08
1.90721e-08
3.85983e-12
5.86117e-12
4.33735e-11
2.76117e-10
1.13481e-09
3.5058e-09
8.97694e-09
2.01383e-08
4.0965e-08
7.72052e-08
1.37126e-07
2.31562e-07
3.73609e-07
5.77908e-07
8.61763e-07
1.23621e-06
1.70774e-06
2.25958e-06
2.85438e-06
3.41645e-06
3.74069e-06
3.65648e-06
3.04741e-06
2.1747e-06
1.38618e-06
8.16433e-07
4.42011e-07
2.36049e-07
1.29396e-07
7.35393e-08
4.46528e-08
3.00895e-08
2.48599e-08
1.90704e-08
1.2075e-08
9.18404e-09
1.24422e-08
1.86768e-08
1.85126e-08
3.82653e-12
5.80898e-12
4.29109e-11
2.72751e-10
1.12202e-09
3.4685e-09
8.88209e-09
1.99564e-08
4.06839e-08
7.69439e-08
1.36928e-07
2.32129e-07
3.77038e-07
5.8839e-07
8.83964e-07
1.28413e-06
1.79882e-06
2.43099e-06
3.15192e-06
3.90738e-06
4.59533e-06
4.95418e-06
4.77373e-06
3.92617e-06
2.76285e-06
1.73321e-06
9.70842e-07
5.16179e-07
2.74079e-07
1.49838e-07
8.52604e-08
5.24567e-08
3.71887e-08
3.00432e-08
2.04336e-08
1.17087e-08
9.59071e-09
1.33153e-08
1.91839e-08
1.79187e-08
3.79111e-12
5.75662e-12
4.24741e-11
2.69589e-10
1.10758e-09
3.42756e-09
8.78431e-09
1.97401e-08
4.03077e-08
7.64027e-08
1.36443e-07
2.31764e-07
3.77908e-07
5.93685e-07
8.99733e-07
1.31667e-06
1.86729e-06
2.55816e-06
3.38599e-06
4.30567e-06
5.24164e-06
6.06016e-06
6.43551e-06
6.11446e-06
4.96409e-06
3.44626e-06
2.08146e-06
1.13424e-06
5.99569e-07
3.17359e-07
1.73607e-07
9.9571e-08
6.3397e-08
4.84752e-08
3.44285e-08
2.09355e-08
1.11843e-08
1.00957e-08
1.41447e-08
1.95799e-08
1.73575e-08
3.75065e-12
5.69974e-12
4.203e-11
2.66615e-10
1.09408e-09
3.38206e-09
8.67764e-09
1.9517e-08
3.98624e-08
7.56865e-08
1.35471e-07
2.30929e-07
3.77309e-07
5.95022e-07
9.07713e-07
1.33975e-06
1.91378e-06
2.65355e-06
3.55931e-06
4.61813e-06
5.7637e-06
6.8942e-06
7.8394e-06
8.20214e-06
7.68582e-06
6.16106e-06
4.13833e-06
2.43186e-06
1.31692e-06
6.93942e-07
3.67269e-07
2.02039e-07
1.18466e-07
8.03288e-08
5.89982e-08
3.82175e-08
2.03532e-08
1.0703e-08
1.06891e-08
1.49259e-08
1.97948e-08
1.68676e-08
3.70854e-12
5.63495e-12
4.15399e-11
2.63627e-10
1.0814e-09
3.33922e-09
8.5594e-09
1.92752e-08
3.94055e-08
7.48429e-08
1.34194e-07
2.29274e-07
3.75937e-07
5.94065e-07
9.09702e-07
1.35147e-06
1.9467e-06
2.71831e-06
3.68917e-06
4.84929e-06
6.17205e-06
7.5649e-06
8.89585e-06
9.95216e-06
1.02614e-05
9.4848e-06
7.36785e-06
4.81897e-06
2.82109e-06
1.52208e-06
8.02042e-07
4.26074e-07
2.38024e-07
1.46207e-07
1.06356e-07
6.89703e-08
4.05325e-08
1.87664e-08
1.04222e-08
1.13469e-08
1.55861e-08
1.98703e-08
1.64638e-08
3.67494e-12
5.57052e-12
4.09828e-11
2.60317e-10
1.06864e-09
3.2991e-09
8.4486e-09
1.90082e-08
3.89114e-08
7.39771e-08
1.32694e-07
2.27114e-07
3.73253e-07
5.91929e-07
9.08303e-07
1.35443e-06
1.9635e-06
2.76418e-06
3.7774e-06
5.0221e-06
6.47385e-06
8.08836e-06
9.74192e-06
1.12679e-05
1.24067e-05
1.26087e-05
1.12812e-05
8.54941e-06
5.56638e-06
3.25492e-06
1.75473e-06
9.27899e-07
4.98235e-07
2.8807e-07
1.90118e-07
1.27679e-07
7.82383e-08
4.05025e-08
1.66111e-08
1.04065e-08
1.20423e-08
1.61346e-08
1.97955e-08
1.61254e-08
3.64256e-12
5.52012e-12
4.04713e-11
2.56642e-10
1.05475e-09
3.25905e-09
8.34435e-09
1.87582e-08
3.83682e-08
7.3044e-08
1.31155e-07
2.24582e-07
3.69753e-07
5.87755e-07
9.05085e-07
1.35243e-06
1.96779e-06
2.78775e-06
3.83981e-06
5.1396e-06
6.69916e-06
8.47481e-06
1.04007e-05
1.23177e-05
1.40204e-05
1.51986e-05
1.49589e-05
1.30569e-05
9.83171e-06
6.3884e-06
3.74088e-06
2.02182e-06
1.07903e-06
5.9386e-07
3.64862e-07
2.44893e-07
1.50567e-07
8.48908e-08
3.76303e-08
1.44742e-08
1.06358e-08
1.27474e-08
1.6511e-08
1.95881e-08
1.58971e-08
3.60863e-12
5.46975e-12
4.00771e-11
2.5327e-10
1.03931e-09
3.2155e-09
8.24097e-09
1.85237e-08
3.7858e-08
7.20202e-08
1.295e-07
2.21989e-07
3.6567e-07
5.82328e-07
8.98825e-07
1.34782e-06
1.96513e-06
2.79396e-06
3.87216e-06
5.22283e-06
6.85264e-06
8.76306e-06
1.08871e-05
1.31337e-05
1.53041e-05
1.71507e-05
1.80329e-05
1.73147e-05
1.49724e-05
1.12229e-05
7.29541e-06
4.29005e-06
2.33586e-06
1.27197e-06
7.34224e-07
4.87556e-07
2.95145e-07
1.72305e-07
8.67966e-08
3.24197e-08
1.28188e-08
1.10411e-08
1.34448e-08
1.67897e-08
1.97686e-08
1.53643e-08
3.57264e-12
5.41588e-12
3.96707e-11
2.50645e-10
1.02527e-09
3.16754e-09
8.12898e-09
1.82908e-08
3.73804e-08
7.10611e-08
1.27687e-07
2.19202e-07
3.61484e-07
5.75972e-07
8.90691e-07
1.33873e-06
1.95871e-06
2.79058e-06
3.881e-06
5.26641e-06
6.96126e-06
8.95971e-06
1.12496e-05
1.37364e-05
1.63007e-05
1.87003e-05
2.03911e-05
2.09017e-05
1.98562e-05
1.7035e-05
1.27339e-05
8.30046e-06
4.92208e-06
2.72406e-06
1.54327e-06
9.55623e-07
5.97786e-07
3.48619e-07
1.88732e-07
8.19835e-08
2.61883e-08
1.18236e-08
1.15387e-08
1.41133e-08
1.71873e-08
1.945e-08
1.52062e-08
3.5359e-12
5.35882e-12
3.92213e-11
2.47982e-10
1.01425e-09
3.12382e-09
8.00615e-09
1.80395e-08
3.69074e-08
7.01602e-08
1.25989e-07
2.16155e-07
3.56997e-07
5.69486e-07
8.81178e-07
1.32692e-06
1.94598e-06
2.78196e-06
3.87705e-06
5.27888e-06
7.01896e-06
9.09925e-06
1.14977e-05
1.41856e-05
1.70378e-05
1.99031e-05
2.22527e-05
2.36814e-05
2.40029e-05
2.25908e-05
1.92494e-05
1.43746e-05
9.43023e-06
5.68121e-06
3.2485e-06
1.96167e-06
1.23454e-06
7.17228e-07
3.98804e-07
1.94874e-07
7.06053e-08
2.0469e-08
1.14207e-08
1.20676e-08
1.48381e-08
1.76834e-08
1.8806e-08
1.51355e-08
3.50127e-12
5.30145e-12
3.87532e-11
2.45041e-10
1.00312e-09
3.08941e-09
7.89424e-09
1.77653e-08
3.63984e-08
6.92713e-08
1.24397e-07
2.13294e-07
3.52089e-07
5.62519e-07
8.71442e-07
1.31313e-06
1.92939e-06
2.76468e-06
3.86595e-06
5.27462e-06
7.03644e-06
9.17437e-06
1.16739e-05
1.44943e-05
1.75875e-05
2.07949e-05
2.36967e-05
2.58837e-05
2.72558e-05
2.73551e-05
2.55199e-05
2.16237e-05
1.61754e-05
1.07533e-05
6.67215e-06
4.03348e-06
2.61227e-06
1.49269e-06
8.40757e-07
4.36154e-07
1.85699e-07
5.51694e-08
1.62412e-08
1.14305e-08
1.26515e-08
1.55621e-08
1.79636e-08
1.81046e-08
1.50918e-08
3.47312e-12
5.24946e-12
3.8297e-11
2.41982e-10
9.90888e-10
3.0548e-09
7.80585e-09
1.7515e-08
3.5843e-08
6.83166e-08
1.22826e-07
2.10618e-07
3.47485e-07
5.54915e-07
8.61019e-07
1.299e-06
1.90995e-06
2.74205e-06
3.84314e-06
5.26085e-06
7.03244e-06
9.19862e-06
1.17706e-05
1.47141e-05
1.79672e-05
2.14613e-05
2.47751e-05
2.76013e-05
2.98465e-05
3.11367e-05
3.09552e-05
2.86462e-05
2.4185e-05
1.82353e-05
1.24425e-05
8.11158e-06
5.2599e-06
3.15297e-06
1.77295e-06
9.51896e-07
4.49346e-07
1.60313e-07
3.96675e-08
1.36742e-08
1.17049e-08
1.32518e-08
1.6158e-08
1.80902e-08
1.74757e-08
1.50629e-08
3.44651e-12
5.20746e-12
3.79043e-11
2.3903e-10
9.78285e-10
3.01695e-09
7.71732e-09
1.73169e-08
3.53372e-08
6.7275e-08
1.21139e-07
2.07979e-07
3.43174e-07
5.47778e-07
8.49611e-07
1.28387e-06
1.89009e-06
2.71553e-06
3.81322e-06
5.23178e-06
7.01607e-06
9.19592e-06
1.18042e-05
1.48373e-05
1.82389e-05
2.19247e-05
2.5584e-05
2.88919e-05
3.18741e-05
3.41637e-05
3.53222e-05
3.48024e-05
3.2003e-05
2.70645e-05
2.08043e-05
1.4859e-05
1.03176e-05
6.52608e-06
3.75249e-06
2.04743e-06
1.02841e-06
4.27007e-07
1.23459e-07
2.73828e-08
1.24298e-08
1.21067e-08
1.38737e-08
1.66066e-08
1.80509e-08
1.69218e-08
1.5043e-08
3.41571e-12
5.16571e-12
3.75957e-11
2.36526e-10
9.66125e-10
2.97811e-09
7.62078e-09
1.71194e-08
3.49364e-08
6.63281e-08
1.19304e-07
2.05149e-07
3.38927e-07
5.41098e-07
8.38919e-07
1.26732e-06
1.86879e-06
2.68838e-06
3.77801e-06
5.19323e-06
6.98003e-06
9.17745e-06
1.18042e-05
1.48834e-05
1.83944e-05
2.2258e-05
2.61575e-05
2.98635e-05
3.34101e-05
3.65505e-05
3.88434e-05
3.98117e-05
3.89295e-05
3.57309e-05
3.05836e-05
2.44024e-05
1.85205e-05
1.29073e-05
7.72335e-06
4.36253e-06
2.27494e-06
1.0454e-06
3.66217e-07
8.46846e-08
1.94219e-08
1.20341e-08
1.25396e-08
1.4505e-08
1.69098e-08
1.81828e-08
1.64405e-08
1.50268e-08
3.38173e-12
5.11597e-12
3.72607e-11
2.34547e-10
9.55843e-10
2.94065e-09
7.52181e-09
1.69044e-08
3.45371e-08
6.55768e-08
1.17634e-07
2.02071e-07
3.34378e-07
5.34513e-07
8.28909e-07
1.2518e-06
1.84548e-06
2.65925e-06
3.74198e-06
5.14782e-06
6.93192e-06
9.13414e-06
1.17846e-05
1.48883e-05
1.84574e-05
2.24539e-05
2.65747e-05
3.05604e-05
3.45739e-05
3.83727e-05
4.16375e-05
4.38805e-05
4.46273e-05
4.34679e-05
4.01975e-05
3.5406e-05
2.97168e-05
2.29302e-05
1.50547e-05
8.94659e-06
4.90697e-06
2.40621e-06
9.79212e-07
2.77406e-07
5.30467e-08
1.5105e-08
1.20755e-08
1.29673e-08
1.49926e-08
1.71323e-08
1.85818e-08
1.60185e-08
1.50139e-08
3.34718e-12
5.06199e-12
3.68415e-11
2.32391e-10
9.47714e-10
2.90911e-09
7.42706e-09
1.66845e-08
3.41034e-08
6.48296e-08
1.16309e-07
1.99272e-07
3.29429e-07
5.27467e-07
8.19073e-07
1.23729e-06
1.82363e-06
2.62735e-06
3.70326e-06
5.10132e-06
6.8749e-06
9.0757e-06
1.17342e-05
1.48692e-05
1.84702e-05
2.25394e-05
2.68365e-05
3.10707e-05
3.54161e-05
3.97628e-05
4.37919e-05
4.71389e-05
4.92961e-05
4.98844e-05
4.87613e-05
4.60008e-05
4.22595e-05
3.62926e-05
2.61929e-05
1.72086e-05
1.00598e-05
5.2937e-06
2.39018e-06
8.25554e-07
1.83512e-07
3.22699e-08
1.31424e-08
1.23e-08
1.34061e-08
1.54009e-08
1.70577e-08
1.81497e-08
1.56725e-08
1.50027e-08
3.31761e-12
5.00898e-12
3.64048e-11
2.29704e-10
9.38879e-10
2.88415e-09
7.34696e-09
1.64739e-08
3.36606e-08
6.40191e-08
1.14993e-07
1.9705e-07
3.24926e-07
5.19796e-07
8.08498e-07
1.22301e-06
1.8032e-06
2.59747e-06
3.66081e-06
5.05128e-06
6.81652e-06
9.00612e-06
1.16653e-05
1.48127e-05
1.8454e-05
2.25644e-05
2.69746e-05
3.1402e-05
3.6038e-05
4.07801e-05
4.54483e-05
4.96742e-05
5.30708e-05
5.51842e-05
5.58067e-05
5.51387e-05
5.28287e-05
4.96296e-05
4.0694e-05
2.94035e-05
1.91375e-05
1.09018e-05
5.42627e-06
2.18483e-06
6.10572e-07
1.07323e-07
2.08698e-08
1.24393e-08
1.25902e-08
1.38591e-08
1.56764e-08
1.69386e-08
1.75736e-08
1.52408e-08
1.49935e-08
3.29753e-12
4.96592e-12
3.60038e-11
2.26925e-10
9.27942e-10
2.8571e-09
7.28375e-09
1.62965e-08
3.3237e-08
6.31921e-08
1.13567e-07
1.94846e-07
3.21363e-07
5.12833e-07
7.97017e-07
1.20767e-06
1.78308e-06
2.56953e-06
3.62107e-06
4.9963e-06
6.75357e-06
8.93474e-06
1.15825e-05
1.47337e-05
1.83932e-05
2.25545e-05
2.70301e-05
3.15827e-05
3.64551e-05
4.15373e-05
4.66746e-05
5.1641e-05
5.60378e-05
5.95168e-05
6.16788e-05
6.21874e-05
6.07628e-05
5.78094e-05
5.40087e-05
4.4956e-05
3.22713e-05
2.05915e-05
1.13098e-05
5.21264e-06
1.79251e-06
3.89417e-07
5.81198e-08
1.54906e-08
1.23255e-08
1.29011e-08
1.40988e-08
1.58389e-08
1.68557e-08
1.74637e-08
1.46647e-08
1.49873e-08
3.2791e-12
4.93714e-12
3.57076e-11
2.24407e-10
9.16668e-10
2.82376e-09
7.21534e-09
1.61563e-08
3.28809e-08
6.24017e-08
1.12115e-07
1.92459e-07
3.17822e-07
5.07312e-07
7.86577e-07
1.19097e-06
1.76147e-06
2.54203e-06
3.58395e-06
4.94489e-06
6.6843e-06
8.85759e-06
1.14975e-05
1.46378e-05
1.83053e-05
2.24923e-05
2.70561e-05
3.16663e-05
3.66828e-05
4.20615e-05
4.75964e-05
5.31156e-05
5.83622e-05
6.29403e-05
6.65589e-05
6.82178e-05
6.80184e-05
6.59328e-05
6.22847e-05
5.78765e-05
4.86859e-05
3.44616e-05
2.13343e-05
1.11379e-05
4.60163e-06
1.28292e-06
2.15105e-07
3.18062e-08
1.32934e-08
1.24461e-08
1.31827e-08
1.4284e-08
1.59525e-08
1.70596e-08
1.70563e-08
1.44934e-08
1.49834e-08
3.2592e-12
4.90985e-12
3.55216e-11
2.22577e-10
9.06507e-10
2.78948e-09
7.13126e-09
1.60054e-08
3.25998e-08
6.17387e-08
1.10727e-07
1.90027e-07
3.1399e-07
5.01835e-07
7.78318e-07
1.17582e-06
1.73792e-06
2.51244e-06
3.54739e-06
4.89695e-06
6.61956e-06
8.77249e-06
1.14053e-05
1.4539e-05
1.81973e-05
2.23977e-05
2.70228e-05
3.17153e-05
3.68055e-05
4.23437e-05
4.82509e-05
5.42375e-05
6.01276e-05
6.56558e-05
7.03585e-05
7.3462e-05
7.45859e-05
7.36885e-05
7.0882e-05
6.65669e-05
6.18834e-05
5.15142e-05
3.56429e-05
2.11699e-05
1.02707e-05
3.63473e-06
7.84545e-07
1.06578e-07
1.96958e-08
1.25593e-08
1.26508e-08
1.32838e-08
1.4487e-08
1.6216e-08
1.72261e-08
1.64574e-08
1.44151e-08
1.49807e-08
3.23451e-12
4.87808e-12
3.53335e-11
2.21447e-10
8.9915e-10
2.75867e-09
7.04514e-09
1.58199e-08
3.22965e-08
6.12166e-08
1.09562e-07
1.87707e-07
3.10083e-07
4.95909e-07
7.70148e-07
1.16386e-06
1.71656e-06
2.48014e-06
3.50799e-06
4.84968e-06
6.55924e-06
8.69303e-06
1.13033e-05
1.44316e-05
1.80854e-05
2.2279e-05
2.6951e-05
3.16948e-05
3.68821e-05
4.2523e-05
4.86033e-05
5.50431e-05
6.14886e-05
6.7748e-05
7.3447e-05
7.78031e-05
8.0437e-05
8.08916e-05
7.91795e-05
7.5629e-05
7.08605e-05
6.65192e-05
5.31461e-05
3.55401e-05
1.99494e-05
8.6957e-06
2.48891e-06
4.10013e-07
5.10361e-08
1.47682e-08
1.24257e-08
1.27952e-08
1.33723e-08
1.4788e-08
1.65173e-08
1.7922e-08
1.5881e-08
1.43633e-08
1.4979e-08
3.20439e-12
4.83707e-12
3.50806e-11
2.20311e-10
8.94689e-10
2.73657e-09
6.96804e-09
1.563e-08
3.19262e-08
6.0653e-08
1.08646e-07
1.85761e-07
3.06367e-07
4.89867e-07
7.61264e-07
1.152e-06
1.69975e-06
2.4509e-06
3.46493e-06
4.79855e-06
6.49974e-06
8.61909e-06
1.12082e-05
1.43123e-05
1.79631e-05
2.21557e-05
2.68519e-05
3.16279e-05
3.68767e-05
4.26348e-05
4.88574e-05
5.54953e-05
6.24597e-05
6.93817e-05
7.58789e-05
8.14036e-05
8.53938e-05
8.74306e-05
8.70591e-05
8.43837e-05
8.00897e-05
7.52231e-05
7.1291e-05
5.32241e-05
3.39584e-05
1.76002e-05
6.56282e-06
1.44403e-06
1.88591e-07
2.6618e-08
1.30024e-08
1.24742e-08
1.28199e-08
1.35581e-08
1.51959e-08
1.66512e-08
1.77929e-08
1.54004e-08
1.43273e-08
1.49778e-08
3.17472e-12
4.78878e-12
3.47406e-11
2.18746e-10
8.90213e-10
2.72314e-09
6.91256e-09
1.54604e-08
3.15461e-08
5.99638e-08
1.07661e-07
1.84238e-07
3.03258e-07
4.84118e-07
7.52224e-07
1.13914e-06
1.68306e-06
2.42789e-06
3.42589e-06
4.74259e-06
6.43521e-06
8.54618e-06
1.11199e-05
1.42012e-05
1.78267e-05
2.20198e-05
2.67473e-05
3.1529e-05
3.68167e-05
4.26518e-05
4.90167e-05
5.58404e-05
6.30572e-05
7.05298e-05
7.77926e-05
8.42689e-05
8.95816e-05
9.30485e-05
9.42569e-05
9.29483e-05
8.93321e-05
8.44422e-05
7.97963e-05
7.19609e-05
5.14673e-05
3.07844e-05
1.42212e-05
4.26794e-06
7.09016e-07
8.1425e-08
1.70645e-08
1.24665e-08
1.25166e-08
1.28912e-08
1.38299e-08
1.55977e-08
1.6651e-08
1.71649e-08
1.47255e-08
1.43016e-08
1.49771e-08
3.14739e-12
4.74245e-12
3.43591e-11
2.16634e-10
8.84033e-10
2.70987e-09
6.87931e-09
1.53389e-08
3.12079e-08
5.92602e-08
1.06457e-07
1.82596e-07
3.00818e-07
4.79312e-07
7.4362e-07
1.126e-06
1.66491e-06
2.40509e-06
3.3954e-06
4.69203e-06
6.36446e-06
8.46677e-06
1.10327e-05
1.40981e-05
1.76998e-05
2.18671e-05
2.6615e-05
3.14225e-05
3.67177e-05
4.26037e-05
4.90655e-05
5.60624e-05
6.35101e-05
7.13268e-05
7.91738e-05
8.65397e-05
9.29354e-05
9.78772e-05
0.000100641
0.000100826
9.85071e-05
9.41363e-05
8.90029e-05
8.46632e-05
7.04633e-05
4.76253e-05
2.60543e-05
1.01888e-05
2.33168e-06
3.03429e-07
3.68506e-08
1.36716e-08
1.23293e-08
1.25334e-08
1.30387e-08
1.41869e-08
1.58151e-08
1.65823e-08
1.68343e-08
1.41359e-08
1.42854e-08
1.49766e-08
3.12997e-12
4.703e-12
3.40108e-11
2.14279e-10
8.75605e-10
2.69154e-09
6.84693e-09
1.52672e-08
3.09669e-08
5.86329e-08
1.05223e-07
1.80587e-07
2.98196e-07
4.75567e-07
7.36449e-07
1.11351e-06
1.6464e-06
2.38024e-06
3.36509e-06
4.65265e-06
6.30053e-06
8.37948e-06
1.09375e-05
1.39964e-05
1.75825e-05
2.17254e-05
2.64478e-05
3.12985e-05
3.66088e-05
4.25102e-05
4.90371e-05
5.61554e-05
6.38118e-05
7.19021e-05
8.02097e-05
8.82703e-05
9.56754e-05
0.000101823
0.00010616
0.000107995
0.000107095
0.000103755
9.87815e-05
9.38054e-05
8.86288e-05
6.65879e-05
4.16325e-05
2.00785e-05
6.23708e-06
1.07047e-06
1.20229e-07
2.02493e-08
1.25645e-08
1.22965e-08
1.26063e-08
1.32267e-08
1.45175e-08
1.60233e-08
1.6798e-08
1.62293e-08
1.39551e-08
1.42766e-08
1.49764e-08
3.12023e-12
4.68053e-12
3.37561e-11
2.12152e-10
8.66351e-10
2.66641e-09
6.80144e-09
1.51969e-08
3.08249e-08
5.81874e-08
1.04129e-07
1.78535e-07
2.94982e-07
4.7152e-07
7.30859e-07
1.10313e-06
1.62882e-06
2.35487e-06
3.33198e-06
4.61345e-06
6.25097e-06
8.30073e-06
1.08323e-05
1.38847e-05
1.74665e-05
2.15947e-05
2.62929e-05
3.11527e-05
3.64819e-05
4.24018e-05
4.89545e-05
5.61571e-05
6.39621e-05
7.23026e-05
8.09426e-05
8.95817e-05
9.78163e-05
0.000105114
0.000110789
0.000114262
0.000114978
0.000112909
0.000108607
0.00010331
9.8723e-05
8.55112e-05
6.0082e-05
3.37783e-05
1.35961e-05
3.17772e-06
4.27397e-07
4.88098e-08
1.45487e-08
1.22386e-08
1.23315e-08
1.272e-08
1.34363e-08
1.48438e-08
1.62761e-08
1.77386e-08
1.55611e-08
1.38675e-08
1.42717e-08
1.49762e-08
3.11067e-12
4.66858e-12
3.36503e-11
2.10658e-10
8.57942e-10
2.63874e-09
6.73934e-09
1.50989e-08
3.06883e-08
5.79295e-08
1.03355e-07
1.7671e-07
2.91696e-07
4.66559e-07
7.24836e-07
1.09507e-06
1.61419e-06
2.33075e-06
3.29812e-06
4.57052e-06
6.2017e-06
8.24011e-06
1.07377e-05
1.3761e-05
1.73386e-05
2.14656e-05
2.61506e-05
3.10169e-05
3.63322e-05
4.22724e-05
4.88519e-05
5.60942e-05
6.4007e-05
7.25287e-05
8.14744e-05
9.05265e-05
9.94536e-05
0.000107719
0.000114683
0.000119621
0.000121999
0.000121427
0.000118161
0.000113075
0.000107886
0.000102818
7.94109e-05
5.07668e-05
2.4703e-05
7.76837e-06
1.35463e-06
1.57858e-07
2.36377e-08
1.27215e-08
1.21593e-08
1.2414e-08
1.28329e-08
1.36616e-08
1.52802e-08
1.6423e-08
1.73621e-08
1.49777e-08
1.38165e-08
1.42689e-08
1.49761e-08
3.09744e-12
4.65463e-12
3.36091e-11
2.1012e-10
8.52179e-10
2.61384e-09
6.6711e-09
1.49639e-08
3.04951e-08
5.76806e-08
1.02912e-07
1.7543e-07
2.88785e-07
4.61486e-07
7.1743e-07
1.08636e-06
1.60292e-06
2.31078e-06
3.26595e-06
4.52653e-06
6.14751e-06
8.17972e-06
1.06653e-05
1.365e-05
1.71962e-05
2.13221e-05
2.60098e-05
3.08948e-05
3.61925e-05
4.21173e-05
4.87241e-05
5.60042e-05
6.39737e-05
7.26312e-05
8.1806e-05
9.1233e-05
0.000100668
0.000109747
0.000117822
0.000124182
0.000128106
0.000129181
0.000127212
0.000122798
0.000117308
0.000112544
9.83555e-05
7.00049e-05
3.94042e-05
1.56494e-05
3.64923e-06
5.04647e-07
5.92457e-08
1.53877e-08
1.21753e-08
1.21968e-08
1.25017e-08
1.29548e-08
1.40135e-08
1.56187e-08
1.64502e-08
1.66539e-08
1.39606e-08
1.37867e-08
1.42675e-08
1.49761e-08
3.07435e-12
4.63114e-12
3.35222e-11
2.0997e-10
8.50275e-10
2.597e-09
6.60956e-09
1.48154e-08
3.02281e-08
5.73282e-08
1.02486e-07
1.74705e-07
2.86746e-07
4.57008e-07
7.09851e-07
1.07563e-06
1.59071e-06
2.29545e-06
3.23943e-06
4.48481e-06
6.0919e-06
8.11305e-06
1.05932e-05
1.35658e-05
1.70688e-05
2.11615e-05
2.58522e-05
3.07739e-05
3.60674e-05
4.19723e-05
4.85668e-05
5.5884e-05
6.39048e-05
7.26398e-05
8.19956e-05
9.17094e-05
0.000101599
0.000111297
0.000120321
0.000127935
0.000133398
0.000136057
0.000135615
0.000132207
0.000126886
0.000121557
0.000115929
8.98054e-05
5.72234e-05
2.71806e-05
8.21827e-06
1.43295e-06
1.75614e-07
2.62666e-08
1.284e-08
1.20573e-08
1.22684e-08
1.25848e-08
1.31462e-08
1.44174e-08
1.58956e-08
1.64538e-08
1.6133e-08
1.36326e-08
1.37713e-08
1.42667e-08
1.49761e-08
3.04667e-12
4.59136e-12
3.33195e-11
2.09518e-10
8.49997e-10
2.592e-09
6.56863e-09
1.46824e-08
2.99357e-08
5.68388e-08
1.01878e-07
1.74009e-07
2.85612e-07
4.53885e-07
7.03167e-07
1.06464e-06
1.57559e-06
2.27878e-06
3.21917e-06
4.45052e-06
6.03915e-06
8.04457e-06
1.05134e-05
1.34819e-05
1.69731e-05
2.1018e-05
2.56747e-05
3.06339e-05
3.59436e-05
4.18429e-05
4.84193e-05
5.57298e-05
6.37989e-05
7.26034e-05
8.20704e-05
9.20181e-05
0.000102266
0.00011251
0.000122285
0.000130989
0.000137839
0.000142109
0.00014323
0.00014113
0.000136381
0.000130665
0.000125593
0.000108843
7.72111e-05
4.24351e-05
1.59492e-05
3.50014e-06
4.97738e-07
6.25297e-08
1.59322e-08
1.21149e-08
1.20771e-08
1.23355e-08
1.27e-08
1.34164e-08
1.48129e-08
1.60666e-08
1.74804e-08
1.53684e-08
1.35033e-08
1.37641e-08
1.42664e-08
1.4976e-08
3.01985e-12
4.54727e-12
3.2987e-11
2.08306e-10
8.48474e-10
2.5918e-09
6.55749e-09
1.45948e-08
2.96734e-08
5.63014e-08
1.01031e-07
1.73013e-07
2.84529e-07
4.52171e-07
6.98546e-07
1.05496e-06
1.5601e-06
2.25807e-06
3.19707e-06
4.4245e-06
5.99599e-06
7.97956e-06
1.04309e-05
1.33883e-05
1.68778e-05
2.0912e-05
2.55166e-05
3.04712e-05
3.57986e-05
4.1715e-05
4.82884e-05
5.55835e-05
6.36533e-05
7.25212e-05
8.20872e-05
9.21878e-05
0.00010273
0.000113419
0.000123853
0.000133457
0.000141542
0.00014731
0.000150057
0.0001494
0.000145607
0.000139869
0.000134396
0.000126422
9.75152e-05
6.12996e-05
2.74857e-05
7.59014e-06
1.25632e-06
1.64264e-07
2.65679e-08
1.28709e-08
1.19564e-08
1.21285e-08
1.24208e-08
1.28569e-08
1.37159e-08
1.52352e-08
1.62334e-08
1.70749e-08
1.46512e-08
1.34411e-08
1.37605e-08
1.42662e-08
1.4976e-08
2.99619e-12
4.50567e-12
3.265e-11
2.06306e-10
8.43899e-10
2.588e-09
6.55891e-09
1.45735e-08
2.95031e-08
5.58211e-08
1.001e-07
1.71616e-07
2.82961e-07
4.50549e-07
6.96052e-07
1.04832e-06
1.54649e-06
2.23683e-06
3.16944e-06
4.39599e-06
5.96347e-06
7.92667e-06
1.03529e-05
1.32915e-05
1.67707e-05
2.08059e-05
2.54013e-05
3.03273e-05
3.56273e-05
4.15629e-05
4.81583e-05
5.54537e-05
6.35152e-05
7.23917e-05