/*--------------------------------*- C++ -*----------------------------------*\
| =========                 |                                                 |
| \\      /  F ield         | OpenFOAM: The Open Source CFD Toolbox           |
|  \\    /   O peration     | Version:  v2012                                 |
|   \\  /    A nd           | Website:  www.openfoam.com                      |
|    \\/     M anipulation  |                                                 |
\*---------------------------------------------------------------------------*/
FoamFile
{
    version     2.0;
    format      ascii;
    class       volScalarField;
    location    "11500";
    object      betann;
}
// * * * * * * * * * * * * * * * * * * * * * * * * * * * * * * * * * * * * * //

dimensions      [0 0 0 0 0 0 0];


internalField   nonuniform List<scalar> 
53312
(
1.0058
1.0128
1.02079
1.01357
1.02403
1.02244
1.01387
1.02429
1.02465
1.02284
1.01402
1.02441
1.0247
1.02489
1.0229
1.01413
1.02447
1.02476
1.02481
1.02496
1.02286
1.01421
1.02451
1.0248
1.02486
1.02486
1.02492
1.02279
1.01427
1.02455
1.02482
1.02488
1.0249
1.02487
1.0248
1.02273
1.01432
1.02457
1.02484
1.0249
1.02492
1.02492
1.02486
1.02467
1.02267
1.01435
1.02459
1.02486
1.02491
1.02493
1.02493
1.02492
1.02484
1.02453
1.02261
1.01438
1.0246
1.02487
1.02492
1.02494
1.02494
1.02494
1.02491
1.02481
1.02442
1.02256
1.01441
1.02462
1.02487
1.02493
1.02494
1.02495
1.02495
1.02493
1.0249
1.02478
1.02433
1.02251
1.01443
1.02463
1.02488
1.02493
1.02494
1.02495
1.02495
1.02494
1.02492
1.02487
1.02474
1.02426
1.02246
1.01444
1.02463
1.02488
1.02492
1.02494
1.02494
1.02494
1.02494
1.02493
1.0249
1.02485
1.0247
1.0242
1.02244
1.01444
1.02463
1.02487
1.02491
1.02492
1.02492
1.02493
1.02493
1.02492
1.02491
1.02488
1.02482
1.02466
1.02416
1.02253
1.01443
1.02462
1.02485
1.02488
1.02489
1.02489
1.0249
1.02491
1.02491
1.0249
1.02489
1.02485
1.02479
1.02461
1.02412
1.02324
1.01439
1.0246
1.02481
1.02482
1.02483
1.02484
1.02485
1.02487
1.02488
1.02488
1.02488
1.02486
1.02483
1.02475
1.02457
1.02408
1.02663
1.01435
1.02456
1.02473
1.02472
1.02473
1.02475
1.02478
1.02481
1.02483
1.02485
1.02486
1.02485
1.02484
1.0248
1.02472
1.02452
1.02405
1.03536
1.0143
1.02451
1.02462
1.02457
1.02457
1.02461
1.02466
1.02471
1.02475
1.02479
1.02481
1.02482
1.02483
1.02481
1.02477
1.02468
1.02448
1.02403
1.02242
1.01426
1.02447
1.02449
1.02435
1.02433
1.02439
1.02448
1.02456
1.02463
1.02469
1.02474
1.02477
1.02479
1.02479
1.02478
1.02473
1.02464
1.02444
1.024
1.00632
1.01423
1.02443
1.02438
1.02412
1.024
1.02405
1.02418
1.02432
1.02445
1.02455
1.02463
1.02469
1.02473
1.02475
1.02476
1.02474
1.02469
1.0246
1.0244
1.02398
0.987738
1.01421
1.0244
1.0243
1.02393
1.02364
1.02358
1.02372
1.02394
1.02415
1.02432
1.02445
1.02456
1.02463
1.02468
1.02471
1.02472
1.02471
1.02466
1.02456
1.02437
1.02396
0.974838
1.01419
1.02438
1.02425
1.02378
1.02335
1.02309
1.02311
1.02336
1.02368
1.02396
1.02418
1.02435
1.02448
1.02457
1.02463
1.02467
1.02468
1.02467
1.02462
1.02452
1.02434
1.02393
0.96862
1.01417
1.02437
1.0242
1.02369
1.02313
1.02268
1.02246
1.02259
1.02296
1.02339
1.02375
1.02403
1.02424
1.02439
1.0245
1.02458
1.02462
1.02464
1.02463
1.02458
1.02448
1.02432
1.0239
0.966438
1.01416
1.02436
1.02417
1.02361
1.02298
1.02236
1.02192
1.02176
1.02201
1.02252
1.02307
1.02352
1.02386
1.02411
1.02429
1.02443
1.02452
1.02457
1.02459
1.02458
1.02454
1.02444
1.02429
1.02387
0.96602
1.01415
1.02435
1.02415
1.02356
1.02286
1.02216
1.02151
1.02108
1.02099
1.02137
1.02204
1.02272
1.02326
1.02367
1.02398
1.02419
1.02434
1.02445
1.02452
1.02455
1.02454
1.0245
1.02441
1.02428
1.02383
0.965874
1.01414
1.02434
1.02413
1.02352
1.02278
1.022
1.02123
1.02056
1.02015
1.02015
1.02067
1.02151
1.02233
1.02299
1.02347
1.02383
1.02408
1.02426
1.02438
1.02446
1.0245
1.0245
1.02446
1.02438
1.02426
1.0238
0.96574
1.01414
1.02434
1.02412
1.02349
1.02272
1.02188
1.02103
1.02021
1.01951
1.01914
1.01923
1.01992
1.02094
1.02192
1.02269
1.02326
1.02367
1.02396
1.02416
1.02431
1.0244
1.02444
1.02445
1.02442
1.02435
1.02425
1.02376
0.96561
1.01414
1.02434
1.02411
1.02347
1.02267
1.0218
1.02087
1.01995
1.01909
1.01837
1.01803
1.01823
1.01909
1.02031
1.02146
1.02236
1.02302
1.02349
1.02382
1.02406
1.02423
1.02433
1.02439
1.02441
1.02439
1.02433
1.02424
1.02373
0.965488
1.01414
1.02433
1.02411
1.02345
1.02264
1.02174
1.02076
1.01976
1.01877
1.01786
1.01713
1.01683
1.01714
1.01819
1.01963
1.02097
1.02201
1.02276
1.0233
1.02368
1.02396
1.02414
1.02427
1.02434
1.02437
1.02435
1.02431
1.02423
1.02369
0.965372
1.01414
1.02433
1.0241
1.02344
1.02262
1.02169
1.02068
1.01962
1.01853
1.01747
1.01652
1.01578
1.01553
1.01596
1.01722
1.01889
1.02043
1.02162
1.02248
1.0231
1.02353
1.02384
1.02406
1.0242
1.02429
1.02432
1.02432
1.0243
1.02422
1.02365
0.965292
1.01414
1.02433
1.0241
1.02344
1.02261
1.02166
1.02063
1.01952
1.01836
1.01719
1.01607
1.01507
1.01432
1.01412
1.01469
1.01617
1.0181
1.01985
1.0212
1.02219
1.02289
1.02338
1.02373
1.02397
1.02413
1.02423
1.02428
1.02429
1.02429
1.02421
1.02361
0.965223
1.01414
1.02433
1.0241
1.02344
1.0226
1.02165
1.02059
1.01945
1.01824
1.01698
1.01573
1.01454
1.0135
1.01274
1.0126
1.01332
1.01504
1.01723
1.01923
1.02076
1.02187
1.02266
1.02321
1.0236
1.02388
1.02406
1.02418
1.02424
1.02426
1.02429
1.02419
1.02357
0.96515
1.01414
1.02433
1.0241
1.02344
1.0226
1.02164
1.02057
1.0194
1.01815
1.01684
1.01549
1.01415
1.01289
1.01181
1.01104
1.01097
1.01185
1.01382
1.01631
1.01856
1.02028
1.02153
1.02241
1.02304
1.02348
1.02379
1.02399
1.02412
1.0242
1.02424
1.0243
1.02418
1.02353
0.965077
1.01414
1.02433
1.0241
1.02344
1.0226
1.02164
1.02056
1.01937
1.01809
1.01674
1.01531
1.01387
1.01243
1.0111
1.00998
1.00922
1.00923
1.01028
1.01253
1.01532
1.01784
1.01977
1.02117
1.02216
1.02286
1.02335
1.02369
1.02392
1.02407
1.02416
1.02422
1.0243
1.02415
1.0235
0.965
1.01415
1.02434
1.02411
1.02344
1.02261
1.02164
1.02056
1.01936
1.01806
1.01667
1.0152
1.01366
1.01211
1.01059
1.00919
1.00803
1.00728
1.00738
1.00861
1.01115
1.01428
1.01708
1.01924
1.0208
1.0219
1.02267
1.02322
1.0236
1.02385
1.02401
1.02411
1.02422
1.02432
1.02413
1.02349
0.964921
1.01415
1.02434
1.02411
1.02345
1.02261
1.02165
1.02056
1.01936
1.01805
1.01663
1.01511
1.01352
1.01187
1.01022
1.0086
1.00714
1.00596
1.00522
1.00542
1.00686
1.0097
1.01317
1.01629
1.01868
1.02041
1.02164
1.02249
1.02309
1.0235
1.02377
1.02395
1.02407
1.02422
1.02433
1.02411
1.03364
0.964842
1.01415
1.02434
1.02411
1.02345
1.02262
1.02165
1.02057
1.01936
1.01805
1.01662
1.01507
1.01343
1.01172
1.00995
1.00818
1.00648
1.00497
1.00376
1.00306
1.00338
1.00503
1.00819
1.01202
1.01546
1.0181
1.02002
1.02137
1.0223
1.02295
1.02339
1.02369
1.02388
1.02404
1.02424
1.02433
1.02408
0.969761
0.964757
1.01415
1.02434
1.02412
1.02346
1.02263
1.02167
1.02058
1.01938
1.01805
1.01661
1.01505
1.01338
1.01161
1.00977
1.00788
1.00602
1.00424
1.00267
1.00147
1.00082
1.00126
1.00315
1.00664
1.01083
1.0146
1.01751
1.01961
1.02109
1.0221
1.0228
1.02328
1.0236
1.02382
1.02403
1.02427
1.02434
1.02406
0.969327
0.964677
1.01416
1.02434
1.02412
1.02346
1.02264
1.02168
1.0206
1.01939
1.01807
1.01662
1.01505
1.01336
1.01155
1.00964
1.00768
1.00567
1.00372
1.00187
1.00028
0.999094
0.998515
0.999106
1.00123
1.00505
1.00962
1.01373
1.01691
1.0192
1.0208
1.02189
1.02264
1.02315
1.0235
1.02376
1.02404
1.02431
1.02433
1.02404
0.969438
0.964596
1.01416
1.02434
1.02412
1.02347
1.02265
1.02169
1.02061
1.01941
1.01809
1.01664
1.01506
1.01336
1.01153
1.00958
1.00754
1.00545
1.00334
1.0013
0.999406
0.997809
0.996664
0.99618
0.99693
0.999295
1.00345
1.0084
1.01285
1.01631
1.01878
1.0205
1.02167
1.02247
1.02301
1.02339
1.02372
1.02407
1.02435
1.02432
1.02403
0.969584
0.964516
1.01416
1.02434
1.02412
1.02347
1.02265
1.0217
1.02063
1.01943
1.01811
1.01666
1.01508
1.01337
1.01152
1.00955
1.00746
1.00529
1.00309
1.00088
0.998784
0.996868
0.995292
0.994214
0.993845
0.994767
0.997379
1.00186
1.00717
1.01196
1.01568
1.01834
1.02018
1.02143
1.02228
1.02286
1.02329
1.02371
1.02413
1.02439
1.02431
1.02402
0.970152
0.964435
1.01417
1.02435
1.02413
1.02348
1.02266
1.02172
1.02065
1.01946
1.01814
1.01669
1.01511
1.01339
1.01154
1.00955
1.00744
1.00521
1.00291
1.00061
0.998333
0.996198
0.994288
0.992762
0.991776
0.991544
0.992648
0.995503
1.0003
1.00596
1.01106
1.01504
1.01788
1.01984
1.02116
1.02207
1.02269
1.02322
1.02373
1.02421
1.02441
1.0243
1.02401
0.969601
0.964359
1.01417
1.02435
1.02413
1.02348
1.02267
1.02173
1.02067
1.01948
1.01817
1.01673
1.01515
1.01343
1.01157
1.00956
1.00743
1.00518
1.00282
1.00041
0.998032
0.995714
0.993575
0.991703
0.990257
0.989388
0.98931
0.990599
0.993686
0.998764
1.00474
1.01015
1.01438
1.01739
1.01947
1.02086
1.02182
1.02254
1.02318
1.0238
1.02429
1.02443
1.02429
1.024
0.969267
0.96493
1.01417
1.02435
1.02413
1.02349
1.02268
1.02174
1.02068
1.0195
1.0182
1.01676
1.01519
1.01347
1.01161
1.0096
1.00745
1.00517
1.00279
1.00031
0.997823
0.995391
0.99306
0.990953
0.989152
0.987813
0.987083
0.987169
0.98864
0.991934
0.997261
1.00352
1.0092
1.01367
1.01685
1.01905
1.02052
1.02158
1.02242
1.02319
1.02391
1.02437
1.02443
1.02428
1.024
0.969165
1.01259
1.01417
1.02435
1.02414
1.0235
1.02269
1.02176
1.0207
1.01953
1.01823
1.0168
1.01523
1.01352
1.01166
1.00965
1.00749
1.00519
1.00278
1.00028
0.997712
0.995166
0.992717
0.990412
0.98837
0.986671
0.985463
0.984887
0.98514
0.986774
0.990244
0.995784
1.00229
1.00822
1.01291
1.01625
1.01856
1.02014
1.02135
1.02235
1.02327
1.02405
1.02444
1.02443
1.02427
1.024
0.969118
1.02458
1.01418
1.02435
1.02414
1.0235
1.0227
1.02177
1.02072
1.01955
1.01825
1.01683
1.01527
1.01357
1.01171
1.0097
1.00754
1.00523
1.0028
1.00027
0.997672
0.995046
0.99248
0.990052
0.987807
0.985864
0.984261
0.982417
0.981788
0.982613
0.985002
0.988617
0.994329
1.00104
1.00719
1.01208
1.01558
1.01802
1.01977
1.02117
1.02236
1.02342
1.0242
1.02448
1.02443
1.02426
1.024
0.969079
1.02147
1.01418
1.02435
1.02414
1.02351
1.02271
1.02179
1.02074
1.01957
1.01828
1.01687
1.01532
1.01362
1.01177
1.00976
1.00761
1.00529
1.00285
1.00029
0.997665
0.995003
0.992352
0.989802
0.987433
0.985284
0.982703
0.979765
0.978034
0.977775
0.979397
0.982764
0.987055
0.992887
0.99975
1.00607
1.01115
1.01481
1.01746
1.01945
1.02106
1.02246
1.02364
1.02434
1.0245
1.02442
1.02426
1.02404
0.969045
1.02107
1.01418
1.02436
1.02415
1.02351
1.02272
1.0218
1.02076
1.0196
1.01831
1.0169
1.01536
1.01367
1.01183
1.00983
1.00767
1.00537
1.00291
1.00034
0.997686
0.994995
0.992305
0.989668
0.987175
0.9849
0.981403
0.977914
0.97536
0.973998
0.974089
0.976037
0.980337
0.985556
0.991454
0.998409
1.00486
1.01012
1.01398
1.01693
1.0192
1.02107
1.02268
1.02389
1.02444
1.02451
1.02441
1.02425
1.02416
0.969004
1.02099
1.01419
1.02436
1.02415
1.02352
1.02273
1.02181
1.02077
1.01962
1.01835
1.01694
1.0154
1.01372
1.01189
1.0099
1.00774
1.00544
1.00299
1.00042
0.997742
0.995016
0.992295
0.989618
0.987035
0.984636
0.980547
0.976602
0.973496
0.971315
0.970306
0.970735
0.972986
0.978071
0.983962
0.990025
0.997004
1.00354
1.009
1.0132
1.01648
1.01907
1.02124
1.02301
1.02413
1.02451
1.02451
1.02441
1.02425
1.02484
0.968957
1.02095
1.01419
1.02436
1.02415
1.02353
1.02274
1.02182
1.02079
1.01964
1.01838
1.01698
1.01544
1.01376
1.01194
1.00996
1.00782
1.00552
1.00307
1.0005
0.997819
0.995075
0.992316
0.989606
0.986983
0.984492
0.979961
0.975741
0.972181
0.969449
0.967624
0.966962
0.967715
0.970246
0.975572
0.98185
0.988603
0.995552
1.00216
1.00792
1.01251
1.01618
1.01913
1.02158
1.0234
1.02432
1.02455
1.02451
1.0244
1.02424
1.02641
0.968906
1.02094
1.01419
1.02436
1.02415
1.02353
1.02275
1.02184
1.02081
1.01966
1.0184
1.01702
1.01549
1.01382
1.012
1.01003
1.0079
1.00561
1.00316
1.00059
0.99791
0.995156
0.992378
0.989627
0.986968
0.984437
0.979647
0.975153
0.97132
0.968136
0.965763
0.964292
0.963965
0.96503
0.967824
0.97327
0.979869
0.987224
0.994118
1.00083
1.00698
1.01199
1.01608
1.01942
1.02208
1.02379
1.02446
1.02456
1.0245
1.02439
1.02424
1.03365
0.968859
1.02093
1.01419
1.02436
1.02416
1.02353
1.02275
1.02185
1.02083
1.01969
1.01843
1.01705
1.01553
1.01387
1.01206
1.01009
1.00797
1.00569
1.00326
1.00068
0.998004
0.995252
0.992461
0.98969
0.986989
0.984421
0.979522
0.974838
0.970735
0.967279
0.96446
0.962443
0.961317
0.961315
0.962683
0.965735
0.971293
0.978085
0.985957
0.992838
0.999714
1.00625
1.01171
1.01627
1.01998
1.02269
1.02411
1.02455
1.02457
1.0245
1.02439
1.02424
0.983428
0.968868
1.02092
1.0142
1.02436
1.02416
1.02354
1.02276
1.02186
1.02084
1.01971
1.01845
1.01708
1.01557
1.01392
1.01212
1.01016
1.00804
1.00577
1.00335
1.00079
0.998107
0.995351
0.992561
0.989775
0.987053
0.984441
0.979477
0.97471
0.970422
0.966701
0.963612
0.961153
0.959486
0.958694
0.959012
0.960684
0.964008
0.969694
0.97658
0.984893
0.991843
0.998895
1.00583
1.01179
1.01682
1.02078
1.0233
1.02435
1.02459
1.02457
1.02449
1.02439
1.02425
0.970416
0.971895
1.02092
1.0142
1.02436
1.02416
1.02354
1.02277
1.02187
1.02086
1.01973
1.01848
1.01711
1.0156
1.01396
1.01218
1.01023
1.00812
1.00585
1.00344
1.00089
0.998221
0.995459
0.992664
0.989877
0.987139
0.984504
0.979513
0.974662
0.970291
0.966394
0.963044
0.960319
0.958214
0.956886
0.956423
0.95706
0.959044
0.962652
0.968501
0.975428
0.983919
0.991145
0.998477
1.00584
1.01232
1.01776
1.02173
1.02381
1.02451
1.02461
1.02456
1.02449
1.02439
1.02425
0.970376
1.02009
1.02091
1.0142
1.02437
1.02417
1.02355
1.02278
1.02188
1.02087
1.01975
1.01851
1.01714
1.01565
1.01401
1.01223
1.0103
1.0082
1.00594
1.00352
1.00098
0.998326
0.995579
0.992776
0.989982
0.987242
0.984591
0.979643
0.974697
0.970243
0.966262
0.962745
0.959764
0.957396
0.955634
0.954638
0.954502
0.955458
0.957763
0.961678
0.967745
0.974676
0.983237
0.99083
0.998555
1.00637
1.01336
1.01905
1.02265
1.02419
1.02459
1.02461
1.02456
1.02449
1.02439
1.0243
0.970331
1.02562
1.02091
1.0142
1.02437
1.02417
1.02356
1.02278
1.02189
1.02088
1.01976
1.01853
1.01718
1.01569
1.01405
1.01228
1.01035
1.00828
1.00603
1.00362
1.00108
0.998427
0.99569
0.992901
0.990097
0.987348
0.984693
0.979818
0.974823
0.970277
0.966217
0.962613
0.959476
0.956855
0.954835
0.953408
0.952737
0.952925
0.954202
0.956834
0.961074
0.967418
0.974338
0.983176
0.991006
0.99922
1.00752
1.01494
1.0205
1.02342
1.02443
1.02463
1.02461
1.02456
1.02449
1.0244
1.02453
0.970289
1.02338
1.02091
1.0142
1.02437
1.02417
1.02356
1.02279
1.0219
1.0209
1.01978
1.01855
1.0172
1.01572
1.0141
1.01233
1.01041
1.00834
1.00611
1.00372
1.00118
0.998527
0.995796
0.993016
0.990225
0.987463
0.984799
0.980024
0.974993
0.9704
0.966253
0.962572
0.959343
0.95658
0.95431
0.952627
0.951526
0.951174
0.951682
0.953284
0.956263
0.960884
0.967636
0.974528
0.983804
0.991787
1.00056
1.00935
1.01694
1.02186
1.02397
1.02457
1.02464
1.02461
1.02456
1.02449
1.0244
1.02766
0.970255
1.02321
1.02091
1.01421
1.02437
1.02417
1.02356
1.0228
1.02191
1.02091
1.0198
1.01857
1.01722
1.01576
1.01415
1.01239
1.01047
1.0084
1.00618
1.00381
1.00129
0.998636
0.995901
0.993126
0.990343
0.987593
0.984914
0.980234
0.975193
0.970566
0.966375
0.962611
0.95931
0.956447
0.954046
0.952119
0.950761
0.949978
0.949938
0.950766
0.952716
0.956091
0.961191
0.968486
0.975338
0.984974
0.993263
1.00265
1.01185
1.01909
1.02295
1.02433
1.02464
1.02465
1.02461
1.02456
1.02449
1.02439
1.00338
0.970238
1.02317
1.02091
1.01421
1.02437
1.02417
1.02356
1.0228
1.02192
1.02093
1.01982
1.0186
1.01725
1.01578
1.01418
1.01244
1.01053
1.00847
1.00625
1.00389
1.00139
0.998757
0.996017
0.993235
0.990455
0.987712
0.985043
0.980464
0.975397
0.97076
0.966537
0.962732
0.959352
0.956424
0.953917
0.951862
0.950269
0.949225
0.948749
0.94902
0.950189
0.952535
0.956388
0.962067
0.969441
0.97685
0.986509
0.99552
1.00553
1.0148
1.02102
1.02372
1.02454
1.02467
1.02465
1.02461
1.02456
1.02449
1.02439
0.971017
0.972153
1.02316
1.02091
1.01421
1.02437
1.02418
1.02357
1.0228
1.02192
1.02094
1.01984
1.01862
1.01728
1.01581
1.01421
1.01248
1.01059
1.00854
1.00633
1.00396
1.00147
0.998863
0.996144
0.993355
0.990567
0.987825
0.985161
0.980722
0.975618
0.970956
0.966726
0.962891
0.959473
0.95647
0.953903
0.951741
0.950016
0.948742
0.948003
0.947833
0.948431
0.949978
0.952798
0.957225
0.963611
0.97091
0.979156
0.988781
0.998633
1.00913
1.01777
1.02248
1.0242
1.02464
1.02468
1.02465
1.02461
1.02456
1.02449
1.02441
0.970931
1.02404
1.02315
1.02091
1.01421
1.02437
1.02418
1.02357
1.02281
1.02193
1.02094
1.01985
1.01865
1.01731
1.01585
1.01425
1.01251
1.01064
1.00861
1.0064
1.00405
1.00155
0.998948
0.996256
0.993487
0.990689
0.987937
0.985274
0.980954
0.975867
0.971168
0.966916
0.963075
0.959629
0.956591
0.953954
0.951735
0.949905
0.948493
0.947523
0.947084
0.947232
0.948189
0.950184
0.953569
0.958694
0.965971
0.973105
0.98243
0.991928
1.00262
1.01312
1.0203
1.02347
1.02449
1.02468
1.02468
1.02465
1.02461
1.02456
1.02449
1.02446
0.970898
1.02551
1.02315
1.02091
1.01422
1.02437
1.02418
1.02358
1.02282
1.02194
1.02095
1.01986
1.01866
1.01734
1.01589
1.01429
1.01255
1.01068
1.00866
1.00648
1.00413
1.00165
0.999037
0.996345
0.993604
0.990824
0.988061
0.985385
0.98117
0.97609
0.971408
0.967121
0.96326
0.959809
0.956744
0.954075
0.951791
0.949906
0.948392
0.947279
0.946604
0.94647
0.946958
0.948345
0.950862
0.954917
0.960904
0.968395
0.976075
0.986109
0.99604
1.00734
1.01691
1.02212
1.02409
1.02463
1.0247
1.02468
1.02465
1.02461
1.02456
1.02449
1.02745
0.970871
1.02396
1.02315
1.02091
1.01422
1.02438
1.02418
1.02358
1.02283
1.02195
1.02096
1.01987
1.01867
1.01736
1.01592
1.01433
1.0126
1.01072
1.0087
1.00654
1.00421
1.00174
0.999135
0.99644
0.993696
0.990944
0.988197
0.985508
0.981388
0.976297
0.97162
0.96735
0.963457
0.959988
0.956921
0.954226
0.951912
0.949965
0.948397
0.947182
0.946362
0.945984
0.946174
0.947055
0.948922
0.952077
0.956941
0.963949
0.971209
0.980046
0.989966
1.00108
1.01229
1.01992
1.0233
1.02444
1.0247
1.02471
1.02468
1.02465
1.02461
1.02456
1.02449
0.98377
0.970889
1.02388
1.02314
1.02091
1.01422
1.02438
1.02418
1.02358
1.02283
1.02196
1.02098
1.01988
1.01868
1.01737
1.01594
1.01437
1.01265
1.01078
1.00875
1.00659
1.00428
1.00183
0.999234
0.996543
0.993794
0.991039
0.988317
0.985644
0.981632
0.976505
0.971818
0.967553
0.963678
0.960178
0.957095
0.954399
0.952062
0.950086
0.948458
0.947189
0.946263
0.945731
0.945665
0.946215
0.947545
0.949996
0.953898
0.959726
0.967287
0.974779
0.985052
0.994947
1.0068
1.0167
1.02198
1.02401
1.02463
1.02472
1.02471
1.02468
1.02465
1.02461
1.02455
1.02449
0.971278
0.980949
1.02386
1.02314
1.02091
1.01422
1.02438
1.02418
1.02359
1.02284
1.02197
1.02099
1.0199
1.0187
1.01738
1.01595
1.0144
1.0127
1.01084
1.00882
1.00664
1.00434
1.0019
0.999327
0.996647
0.993902
0.991139
0.988413
0.985764
0.981904
0.97674
0.972015
0.96774
0.963871
0.96039
0.957278
0.954569
0.95223
0.950233
0.948578
0.947251
0.946267
0.945624
0.94539
0.945662
0.946628
0.948484
0.951614
0.956412
0.963375
0.970631
0.979343
0.989483
1.00091
1.01249
1.01997
1.02326
1.02442
1.02471
1.02473
1.02471
1.02468
1.02465
1.0246
1.02455
1.02451
0.971241
1.03266
1.02385
1.02314
1.02091
1.01422
1.02438
1.02418
1.02359
1.02284
1.02197
1.021
1.01992
1.01872
1.0174
1.01597
1.01441
1.01272
1.01088
1.00888
1.00671
1.0044
1.00196
0.999405
0.996745
0.99401
0.991249
0.988514
0.985858
0.982137
0.977001
0.972238
0.967927
0.96405
0.960574
0.957481
0.954745
0.952395
0.950398
0.948722
0.947368
0.946326
0.945621
0.945263
0.945348
0.946003
0.947447
0.949915
0.953858
0.959719
0.967183
0.974729
0.985038
0.995177
1.00743
1.01719
1.0221
1.02402
1.02463
1.02473
1.02473
1.02471
1.02468
1.02464
1.0246
1.02455
1.02553
0.971217
1.02442
1.02385
1.02314
1.02091
1.01422
1.02438
1.02419
1.02359
1.02284
1.02198
1.02101
1.01993
1.01874
1.01742
1.01599
1.01443
1.01274
1.01092
1.00893
1.00678
1.00447
1.00202
0.999467
0.996827
0.994112
0.99136
0.988625
0.985959
0.982313
0.977224
0.972487
0.968139
0.964227
0.960744
0.957656
0.954939
0.952565
0.950559
0.948883
0.947508
0.946439
0.945673
0.945245
0.945188
0.945629
0.946718
0.94871
0.951907
0.956822
0.963918
0.970995
0.979859
0.990033
1.00188
1.01351
1.02045
1.02337
1.02443
1.02472
1.02474
1.02473
1.02471
1.02468
1.02464
1.0246
1.02455
0.987453
0.971253
1.0242
1.02385
1.02314
1.02091
1.01423
1.02438
1.02419
1.02359
1.02284
1.02198
1.02101
1.01994
1.01876
1.01745
1.01602
1.01445
1.01276
1.01094
1.00897
1.00684
1.00455
1.00211
0.999539
0.996894
0.994197
0.991464
0.988737
0.98607
0.982506
0.977391
0.972699
0.968375
0.964428
0.960911
0.957816
0.955106
0.952751
0.950722
0.949039
0.947664
0.946573
0.945777
0.945283
0.94514
0.945413
0.94625
0.947834
0.950476
0.954547
0.960612
0.967854
0.975603
0.985818
0.996258
1.00891
1.01815
1.02245
1.0241
1.02464
1.02475
1.02475
1.02473
1.0247
1.02468
1.02464
1.0246
1.02456
0.971489
0.989606
1.02418
1.02385
1.02314
1.02091
1.01423
1.02438
1.02419
1.0236
1.02285
1.02198
1.02101
1.01994
1.01877
1.01747
1.01605
1.01449
1.01279
1.01096
1.00899
1.00688
1.00461
1.00219
0.999628
0.996969
0.994266
0.991552
0.988842
0.986181
0.982725
0.977577
0.972857
0.968576
0.964653
0.961101
0.957974
0.955258
0.95291
0.9509
0.949195
0.947814
0.946722
0.945903
0.945373
0.945154
0.94532
0.945957
0.947241
0.949402
0.952823
0.95794
0.965225
0.972103
0.981288
0.991248
1.00346
1.01499
1.02115
1.02361
1.02449
1.02473
1.02476
1.02475
1.02473
1.0247
1.02467
1.02464
1.0246
1.02459
0.971446
1.02756
1.02417
1.02385
1.02314
1.02091
1.01423
1.02438
1.0242
1.0236
1.02285
1.02199
1.02101
1.01994
1.01877
1.01749
1.01607
1.01452
1.01283
1.01099
1.00902
1.00691
1.00466
1.00226
0.999716
0.997063
0.994345
0.991623
0.988931
0.986287
0.982946
0.977786
0.973033
0.968724
0.964844
0.961314
0.958154
0.955406
0.953053
0.95105
0.949365
0.947964
0.946866
0.946042
0.945485
0.945222
0.945296
0.945797
0.946838
0.948636
0.951488
0.955843
0.962178
0.96912
0.977168
0.987143
0.997925
1.01065
1.01929
1.02291
1.02424
1.02468
1.02476
1.02476
1.02474
1.02473
1.0247
1.02467
1.02464
1.0246
1.03065
0.971435
1.02444
1.02417
1.02385
1.02314
1.02091
1.01423
1.02438
1.0242
1.02361
1.02286
1.022
1.02102
1.01995
1.01877
1.01749
1.01609
1.01455
1.01287
1.01103
1.00905
1.00693
1.00469
1.00231
0.999791
0.997156
0.994443
0.991703
0.989003
0.986375
0.983152
0.977998
0.973233
0.96889
0.964982
0.961494
0.958355
0.955574
0.953191
0.951185
0.949507
0.948125
0.947008
0.946178
0.945612
0.945313
0.94533
0.945718
0.946584
0.948085
0.950496
0.954178
0.959637
0.966568
0.973742
0.983374
0.993018
1.00538
1.01639
1.02191
1.02388
1.02457
1.02475
1.02477
1.02476
1.02474
1.02472
1.0247
1.02467
1.02464
1.02461
0.972264
0.972987
1.02436
1.02417
1.02385
1.02314
1.02091
1.01423
1.02438
1.0242
1.02361
1.02287
1.02201
1.02104
1.01996
1.01877
1.01749
1.01609
1.01457
1.0129
1.01108
1.0091
1.00697
1.00471
1.00234
0.999842
0.997235
0.994539
0.991803
0.989085
0.986446
0.983318
0.978196
0.973434
0.969079
0.96514
0.961623
0.958524
0.955763
0.953349
0.951314
0.949633
0.948259
0.94716
0.94631
0.945735
0.945421
0.94539
0.945702
0.946427
0.947706
0.94975
0.952895
0.957565
0.964315
0.970834
0.97924
0.988909
1.0001
1.01237
1.02024
1.02337
1.0244
1.02472
1.02478
1.02477
1.02476
1.02474
1.02472
1.0247
1.02467
1.02464
1.02464
0.971601
1.0389
1.02435
1.02417
1.02385
1.02314
1.02091
1.01423
1.02438
1.0242
1.02361
1.02287
1.02201
1.02105
1.01997
1.01879
1.01749
1.01609
1.01457
1.01292
1.01112
1.00915
1.00702
1.00476
1.00237
0.999873
0.997289
0.994622
0.991903
0.989186
0.986528
0.983448
0.978355
0.973622
0.969271
0.965319
0.961772
0.958643
0.955922
0.953527
0.951462
0.949754
0.948377
0.947285
0.946452
0.945856
0.945529
0.945471
0.94572
0.946344
0.947445
0.949204
0.951897
0.955921
0.961765
0.968334
0.975821
0.985553
0.995205
1.00762
1.01765
1.0225
1.02415
1.02465
1.02477
1.02478
1.02477
1.02476
1.02474
1.02472
1.0247
1.02467
1.02464
1.02535
0.971588
1.02465
1.02434
1.02417
1.02385
1.02314
1.02091
1.01423
1.02439
1.0242
1.02361
1.02287
1.02202
1.02106
1.01999
1.01881
1.01751
1.01609
1.01457
1.01292
1.01114
1.00919
1.00708
1.00481
1.00241
0.999907
0.997322
0.994678
0.991988
0.989287
0.98663
0.983608
0.97848
0.973774
0.969448
0.965501
0.961941
0.958783
0.956032
0.953674
0.951627
0.949891
0.948488
0.947394
0.946567
0.945985
0.945634
0.945556
0.945764
0.946304
0.947271
0.948803
0.951134
0.954604
0.959686
0.966189
0.972927
0.98177
0.991031
1.00252
1.0141
1.02103
1.02373
1.02454
1.02476
1.02479
1.02479
1.02477
1.02476
1.02474
1.02472
1.0247
1.02467
1.02464
0.978006
0.972491
1.02447
1.02434
1.02417
1.02385
1.02314
1.02091
1.01423
1.02439
1.0242
1.02361
1.02287
1.02202
1.02106
1.02
1.01882
1.01753
1.01611
1.01457
1.01292
1.01114
1.00922
1.00713
1.00487
1.00247
0.999954
0.997357
0.994712
0.992045
0.989372
0.986731
0.983815
0.978634
0.973892
0.969592
0.965669
0.962112
0.958942
0.956162
0.953776
0.951764
0.950045
0.948615
0.947496
0.946667
0.94609
0.945747
0.945639
0.945816
0.946298
0.947153
0.948509
0.950548
0.953567
0.957978
0.964309
0.970417
0.978289
0.987581
0.997719
1.0098
1.01875
1.02298
1.02436
1.02472
1.02479
1.0248
1.02479
1.02477
1.02476
1.02474
1.02472
1.02469
1.02467
1.02468
0.971718
1.03804
1.02446
1.02434
1.02417
1.02385
1.02314
1.02091
1.01424
1.02439
1.0242
1.02361
1.02287
1.02201
1.02106
1.02001
1.01884
1.01755
1.01614
1.01459
1.01292
1.01114
1.00922
1.00715
1.00492
1.00254
1.00002
0.997407
0.994749
0.992081
0.98943
0.986816
0.984019
0.978834
0.97404
0.969704
0.965805
0.962271
0.959102
0.95631
0.953896
0.951857
0.950172
0.948757
0.947612
0.946759
0.946179
0.945838
0.945732
0.945871
0.946308
0.947081
0.948289
0.950098
0.952745
0.956597
0.962136
0.968245
0.975338
0.984739
0.993492
1.00511
1.01569
1.02168
1.024
1.02465
1.02479
1.0248
1.0248
1.02478
1.02477
1.02476
1.02474
1.02472
1.02469
1.02467
1.02753
0.971705
1.02469
1.02445
1.02434
1.02417
1.02385
1.02314
1.02091
1.01424
1.02439
1.0242
1.02361
1.02287
1.02201
1.02106
1.02001
1.01885
1.01757
1.01616
1.01462
1.01295
1.01114
1.00921
1.00716
1.00495
1.00259
1.00009
0.997476
0.994801
0.992119
0.989467
0.986874
0.984185
0.979032
0.974232
0.969845
0.965912
0.962399
0.959251
0.956461
0.954034
0.951968
0.950255
0.948874
0.947743
0.946864
0.94626
0.945915
0.945805
0.945937
0.946325
0.947035
0.94813
0.949746
0.952095
0.955478
0.960339
0.966373
0.972797
0.981112
0.989918
1.00048
1.01192
1.01973
1.02333
1.0245
1.02477
1.02481
1.02481
1.0248
1.02478
1.02477
1.02475
1.02474
1.02472
1.02469
1.02467
0.975584
0.974703
1.02454
1.02445
1.02434
1.02417
1.02385
1.02314
1.02091
1.01424
1.02439
1.0242
1.02361
1.02287
1.02201
1.02105
1.02
1.01885
1.01758
1.01618
1.01465
1.01298
1.01117
1.00922
1.00715
1.00496
1.00263
1.00015
0.997549
0.994872
0.992172
0.989506
0.986911
0.984286
0.979192
0.974423
0.970029
0.966046
0.9625
0.959371
0.9566
0.954174
0.952095
0.950357
0.948949
0.947849
0.946982
0.946352
0.945983
0.945866
0.945987
0.946358
0.947002
0.94801
0.949474
0.951572
0.954575
0.958854
0.964797
0.970558
0.978061
0.986951
0.99623
1.00774
1.01712
1.02222
1.02419
1.02473
1.02481
1.02481
1.02481
1.0248
1.02478
1.02477
1.02475
1.02473
1.02471
1.02469
1.02469
0.971798
1.02965
1.02453
1.02445
1.02434
1.02417
1.02385
1.02315
1.02091
1.01424
1.02439
1.02421
1.02362
1.02288
1.02202
1.02105
1.01999
1.01883
1.01758
1.01619
1.01467
1.01301
1.0112
1.00924
1.00716
1.00495
1.00263
1.00018
0.997612
0.994949
0.992245
0.98956
0.986951
0.984331
0.979289
0.974575
0.970212
0.966223
0.962628
0.959466
0.956712
0.954303
0.952224
0.950474
0.949041
0.947915
0.947078
0.946458
0.946062
0.945919
0.946027
0.946378
0.946991
0.947913
0.949257
0.951155
0.953835
0.957634
0.962993
0.968604
0.975423
0.98431
0.992557
1.00336
1.01394
1.02059
1.02361
1.0246
1.02481
1.02482
1.02481
1.0248
1.02479
1.02478
1.02477
1.02475
1.02473
1.02471
1.02469
1.03754
0.971833
1.02464
1.02453
1.02445
1.02434
1.02417
1.02385
1.02315
1.02091
1.01424
1.02439
1.02421
1.02362
1.02288
1.02202
1.02106
1.01999
1.01883
1.01756
1.01619
1.01469
1.01304
1.01124
1.00929
1.00718
1.00496
1.00262
1.00018
0.997648
0.995014
0.992324
0.989634
0.987005
0.984376
0.979344
0.974668
0.970357
0.966398
0.962796
0.959587
0.9568
0.954407
0.952343
0.950592
0.949148
0.947999
0.947135
0.946543
0.946153
0.945981
0.946061
0.946393
0.946973
0.947845
0.949076
0.950813
0.95323
0.956618
0.961384
0.966927
0.97312
0.981076
0.989427
0.999234
1.01025
1.01842
1.02269
1.02433
1.02477
1.02483
1.02482
1.02481
1.0248
1.02479
1.02478
1.02477
1.02475
1.02473
1.02471
1.0247
0.972426
1.00166
1.02459
1.02453
1.02445
1.02434
1.02417
1.02385
1.02315
1.02091
1.01425
1.02439
1.02421
1.02363
1.02289
1.02204
1.02107
1.02
1.01883
1.01756
1.01617
1.01468
1.01305
1.01127
1.00933
1.00723
1.00499
1.00263
1.00017
0.997649
0.995051
0.992391
0.989714
0.98708
0.984446
0.979412
0.974721
0.970445
0.966538
0.962964
0.959747
0.956914
0.954489
0.95244
0.950702
0.949256
0.948094
0.947209
0.94659
0.946225
0.946055
0.946103
0.946402
0.946956
0.947778
0.948936
0.950526
0.952728
0.955775
0.960026
0.965499
0.971088
0.978313
0.986785
0.995455
1.00634
1.01576
1.02136
1.02385
1.02467
1.02483
1.02483
1.02482
1.02481
1.0248
1.02479
1.02478
1.02477
1.02475
1.02473
1.02471
1.02488
0.971871
1.02518
1.02459
1.02453
1.02445
1.02434
1.02417
1.02385
1.02315
1.02091
1.01425
1.02439
1.02421
1.02363
1.0229
1.02204
1.02108
1.02001
1.01883
1.01755
1.01617
1.01466
1.01305
1.01128
1.00936
1.00727
1.00504
1.00266
1.00018
0.997639
0.995052
0.992429
0.989783
0.98716
0.98455
0.979517
0.974787
0.970496
0.966621
0.963097
0.959907
0.957066
0.954596
0.952515
0.95079
0.949355
0.948192
0.947294
0.946654
0.946262
0.946113
0.946158
0.946421
0.946935
0.947719
0.948807
0.950292
0.952303
0.955068
0.958885
0.964184
0.969305
0.97592
0.984431
0.992173
1.00233
1.01265
1.01959
1.0231
1.02445
1.02481
1.02484
1.02483
1.02482
1.02481
1.0248
1.02479
1.02478
1.02476
1.02475
1.02473
1.02471
1.00109
0.973218
1.02464
1.02458
1.02453
1.02445
1.02434
1.02417
1.02385
1.02315
1.02091
1.01425
1.02439
1.02421
1.02363
1.0229
1.02205
1.02109
1.02003
1.01885
1.01756
1.01616
1.01465
1.01302
1.01128
1.00937
1.00731
1.00508
1.00271
1.00021
0.997645
0.995042
0.99243
0.989821
0.987229
0.98466
0.97967
0.974889
0.97056
0.96667
0.963176
0.960033
0.957218
0.954739
0.952615
0.950859
0.949436
0.948281
0.94738
0.946728
0.946315
0.946138
0.946199
0.946452
0.946925
0.94766
0.948695
0.950083
0.951949