/*--------------------------------*- C++ -*----------------------------------*\
| =========                 |                                                 |
| \\      /  F ield         | OpenFOAM: The Open Source CFD Toolbox           |
|  \\    /   O peration     | Version:  v2012                                 |
|   \\  /    A nd           | Website:  www.openfoam.com                      |
|    \\/     M anipulation  |                                                 |
\*---------------------------------------------------------------------------*/
FoamFile
{
    version     2.0;
    format      ascii;
    class       volScalarField;
    location    "11500";
    object      Fs;
}
// * * * * * * * * * * * * * * * * * * * * * * * * * * * * * * * * * * * * * //

dimensions      [0 0 0 0 0 0 0];


internalField   nonuniform List<scalar> 
53312
(
0
0.000113211
0
3.50119e-05
0.000562506
0
4.70735e-05
3.67218e-05
0.00121483
0
4.29663e-05
4.84071e-05
3.57625e-05
0.00194864
0
4.43524e-05
4.29325e-05
4.90221e-05
3.56796e-05
0.00237543
0
4.54276e-05
4.45259e-05
4.21159e-05
4.94342e-05
3.63981e-05
0.00227638
0
4.59815e-05
4.56353e-05
4.41176e-05
4.12689e-05
4.9839e-05
3.75329e-05
0.00183875
8.99281e-15
4.55251e-05
4.59026e-05
4.54329e-05
4.37103e-05
4.04899e-05
5.01579e-05
3.87773e-05
0.00129485
5.9911e-12
4.35755e-05
4.56203e-05
4.56436e-05
4.52639e-05
4.32923e-05
3.97236e-05
5.18771e-05
3.97855e-05
0.00079285
1.06972e-09
4.23541e-05
4.39921e-05
4.54498e-05
4.54752e-05
4.5055e-05
4.2868e-05
3.90157e-05
5.3672e-05
4.06372e-05
0.000416634
6.63619e-08
4.30506e-05
4.29512e-05
4.41033e-05
4.5327e-05
4.52853e-05
4.4861e-05
4.24467e-05
3.83972e-05
5.5696e-05
4.0506e-05
0.000188163
1.84282e-06
4.59731e-05
4.3497e-05
4.32159e-05
4.4013e-05
4.52133e-05
4.51076e-05
4.46623e-05
4.2048e-05
3.77817e-05
5.76947e-05
3.95855e-05
7.40262e-05
2.66207e-05
4.92374e-05
4.58843e-05
4.37079e-05
4.32062e-05
4.39684e-05
4.51094e-05
4.49468e-05
4.44494e-05
4.16125e-05
3.72214e-05
5.97017e-05
3.69745e-05
2.51622e-05
0.000212864
4.87891e-05
4.85111e-05
4.5746e-05
4.37222e-05
4.321e-05
4.39291e-05
4.50221e-05
4.47672e-05
4.42456e-05
4.11729e-05
3.66888e-05
6.14166e-05
3.28694e-05
7.03528e-06
0.00126007
4.56667e-05
4.79277e-05
4.80185e-05
4.56222e-05
4.37047e-05
4.32116e-05
4.39015e-05
4.49288e-05
4.45993e-05
4.40054e-05
4.07104e-05
3.61708e-05
6.27757e-05
2.79823e-05
1.56855e-06
0.00697693
4.31711e-05
4.53882e-05
4.72673e-05
4.77689e-05
4.55147e-05
4.36764e-05
4.32165e-05
4.38795e-05
4.48378e-05
4.44239e-05
4.37489e-05
4.02226e-05
3.56316e-05
6.12857e-05
2.29472e-05
2.76606e-07
0.0332016
4.32439e-05
4.3322e-05
4.51381e-05
4.69351e-05
4.72641e-05
4.53976e-05
4.36375e-05
4.32226e-05
4.38604e-05
4.47517e-05
4.42307e-05
4.3486e-05
3.97043e-05
3.51222e-05
5.6257e-05
1.83855e-05
3.76926e-08
0.123514
4.50529e-05
4.35514e-05
4.35026e-05
4.49282e-05
4.66243e-05
4.70232e-05
4.52469e-05
4.35902e-05
4.32284e-05
4.38417e-05
4.46502e-05
4.40413e-05
4.31753e-05
3.91466e-05
3.45029e-05
5.03726e-05
1.41204e-05
6.02146e-09
0.339462
4.69062e-05
4.49508e-05
4.37834e-05
4.34525e-05
4.47283e-05
4.63192e-05
4.69837e-05
4.50818e-05
4.35359e-05
4.32322e-05
4.38221e-05
4.45439e-05
4.38233e-05
4.28362e-05
3.85411e-05
3.37718e-05
4.39734e-05
1.02665e-05
1.39221e-09
0.60858
4.68727e-05
4.66689e-05
4.50376e-05
4.38608e-05
4.34127e-05
4.45381e-05
4.60172e-05
4.6963e-05
4.49087e-05
4.34768e-05
4.3236e-05
4.37991e-05
4.44234e-05
4.35891e-05
4.24545e-05
3.78818e-05
3.27962e-05
3.74747e-05
7.09648e-06
2.68271e-10
0.816594
4.63703e-05
4.65411e-05
4.66895e-05
4.50981e-05
4.39276e-05
4.33918e-05
4.43524e-05
4.57254e-05
4.68162e-05
4.47266e-05
4.34151e-05
4.32403e-05
4.37727e-05
4.42863e-05
4.33276e-05
4.202e-05
3.71642e-05
3.1513e-05
3.39202e-05
4.62572e-06
4.29359e-11
0.926985
4.55611e-05
4.62093e-05
4.64518e-05
4.68215e-05
4.51757e-05
4.40182e-05
4.33879e-05
4.41654e-05
4.545e-05
4.65779e-05
4.45387e-05
4.33527e-05
4.32434e-05
4.37396e-05
4.41301e-05
4.30369e-05
4.15264e-05
3.63358e-05
2.99223e-05
3.04042e-05
2.82926e-06
4.50218e-12
0.979664
4.48152e-05
4.55606e-05
4.62296e-05
4.65484e-05
4.69265e-05
4.52524e-05
4.41114e-05
4.33981e-05
4.39701e-05
4.51507e-05
4.62376e-05
4.43458e-05
4.32918e-05
4.32461e-05
4.36958e-05
4.39482e-05
4.2709e-05
4.09539e-05
3.54393e-05
2.80256e-05
2.66455e-05
1.58737e-06
3.40117e-13
0.997435
4.50689e-05
4.49481e-05
4.56649e-05
4.63392e-05
4.66093e-05
4.70269e-05
4.53271e-05
4.42074e-05
4.34031e-05
4.37826e-05
4.47716e-05
4.58489e-05
4.4147e-05
4.32321e-05
4.32467e-05
4.364e-05
4.37358e-05
4.23366e-05
4.03163e-05
3.43359e-05
2.61817e-05
2.27792e-05
8.2769e-07
8.54872e-15
0.999905
4.57547e-05
4.51844e-05
4.51154e-05
4.57677e-05
4.64421e-05
4.66689e-05
4.71278e-05
4.54039e-05
4.43065e-05
4.3409e-05
4.35927e-05
4.4516e-05
4.55586e-05
4.39487e-05
4.31732e-05
4.32421e-05
4.3568e-05
4.34877e-05
4.19123e-05
3.95443e-05
3.30495e-05
2.40064e-05
1.9018e-05
3.70608e-07
1.11022e-16
0.999995
4.60555e-05
4.57434e-05
4.53239e-05
4.52088e-05
4.58794e-05
4.65352e-05
4.67385e-05
4.72185e-05
4.54909e-05
4.44166e-05
4.34289e-05
4.33837e-05
4.42028e-05
4.52984e-05
4.37411e-05
4.31152e-05
4.32302e-05
4.34752e-05
4.31951e-05
4.14254e-05
3.87184e-05
3.16146e-05
2.14998e-05
1.53882e-05
1.515e-07
0
0.999998
4.60161e-05
4.60068e-05
4.5807e-05
4.54218e-05
4.53084e-05
4.59907e-05
4.66349e-05
4.67976e-05
4.73264e-05
4.55798e-05
4.45353e-05
4.34464e-05
4.31728e-05
4.38767e-05
4.50424e-05
4.35381e-05
4.30558e-05
4.32067e-05
4.33559e-05
4.28498e-05
4.0846e-05
3.76796e-05
3.00947e-05
1.87909e-05
1.22289e-05
5.86904e-08
0
0.999997
4.61399e-05
4.59691e-05
4.6052e-05
4.59e-05
4.55234e-05
4.54265e-05
4.60998e-05
4.6735e-05
4.68648e-05
4.74248e-05
4.56782e-05
4.46697e-05
4.34776e-05
4.29499e-05
4.35366e-05
4.47827e-05
4.33279e-05
4.29938e-05
4.31682e-05
4.32035e-05
4.24417e-05
4.01518e-05
3.64686e-05
2.83158e-05
1.59632e-05
9.37392e-06
2.42097e-08
0
0.999994
4.61938e-05
4.60753e-05
4.60039e-05
4.61501e-05
4.59817e-05
4.56343e-05
4.55469e-05
4.6219e-05
4.68311e-05
4.69432e-05
4.75383e-05
4.57887e-05
4.4825e-05
4.35192e-05
4.27159e-05
4.31826e-05
4.44795e-05
4.31144e-05
4.29258e-05
4.31095e-05
4.30103e-05
4.19555e-05
3.93e-05
3.52435e-05
2.62392e-05
1.31002e-05
6.94225e-06
1.05545e-08
1.11022e-16
1
4.58961e-05
4.61222e-05
4.60865e-05
4.60923e-05
4.62317e-05
4.60694e-05
4.57463e-05
4.56782e-05
4.63407e-05
4.69482e-05
4.70298e-05
4.76742e-05
4.59082e-05
4.50042e-05
4.35684e-05
4.24728e-05
4.28024e-05
4.41498e-05
4.28981e-05
4.28522e-05
4.30244e-05
4.27675e-05
4.13862e-05
3.82557e-05
3.37835e-05
2.39447e-05
1.03061e-05
4.89823e-06
6.10618e-09
3.88578e-16
1
4.53189e-05
4.58931e-05
4.61342e-05
4.61458e-05
4.61697e-05
4.63129e-05
4.6149e-05
4.58648e-05
4.58199e-05
4.64706e-05
4.7057e-05
4.71304e-05
4.78199e-05
4.60442e-05
4.52166e-05
4.36457e-05
4.22238e-05
4.2421e-05
4.38069e-05
4.26792e-05
4.2758e-05
4.29059e-05
4.24506e-05
4.06936e-05
3.71518e-05
3.20031e-05
2.13905e-05
7.75857e-06
3.25425e-06
3.76814e-09
2.9976e-14
1
4.49535e-05
4.54214e-05
4.59514e-05
4.6204e-05
4.61984e-05
4.62408e-05
4.63854e-05
4.62269e-05
4.59904e-05
4.59616e-05
4.6609e-05
4.71863e-05
4.72378e-05
4.79971e-05
4.61921e-05
4.54718e-05
4.37457e-05
4.19596e-05
4.20291e-05
4.34431e-05
4.24479e-05
4.26564e-05
4.27444e-05
4.20655e-05
3.98222e-05
3.58892e-05
2.99785e-05
1.86769e-05
5.57775e-06
1.97945e-06
1.90395e-09
4.44522e-12
1
4.49829e-05
4.51126e-05
4.55279e-05
4.60401e-05
4.62727e-05
4.62405e-05
4.63058e-05
4.64515e-05
4.63103e-05
4.61187e-05
4.61164e-05
4.67536e-05
4.73218e-05
4.73689e-05
4.82127e-05
4.63536e-05
4.57756e-05
4.38654e-05
4.17135e-05
4.16211e-05
4.30561e-05
4.22197e-05
4.25245e-05
4.25212e-05
4.15313e-05
3.88789e-05
3.43375e-05
2.76882e-05
1.57821e-05
3.83843e-06
1.11958e-06
7.17542e-10
1.42474e-09
1
4.56179e-05
4.51367e-05
4.52559e-05
4.56136e-05
4.61124e-05
4.63389e-05
4.62778e-05
4.63644e-05
4.65182e-05
4.63882e-05
4.62495e-05
4.62777e-05
4.6911e-05
4.74734e-05
4.75168e-05
4.84669e-05
4.65338e-05
4.61638e-05
4.40416e-05
4.14574e-05
4.12234e-05
4.26427e-05
4.19807e-05
4.23653e-05
4.22325e-05
4.08488e-05
3.77728e-05
3.25554e-05
2.50813e-05
1.28937e-05
2.55806e-06
5.5451e-07
2.32648e-10
3.1177e-07
0.999999
4.59396e-05
4.567e-05
4.52742e-05
4.53585e-05
4.56994e-05
4.61796e-05
4.63984e-05
4.6317e-05
4.64139e-05
4.658e-05
4.64665e-05
4.63878e-05
4.64501e-05
4.70917e-05
4.76396e-05
4.76981e-05
4.87676e-05
4.67092e-05
4.65834e-05
4.42693e-05
4.12164e-05
4.08221e-05
4.21916e-05
4.17289e-05
4.21558e-05
4.17897e-05
4.00957e-05
3.64214e-05
3.05046e-05
2.22274e-05
1.00893e-05
1.67042e-06
2.3306e-07
7.36911e-11
9.76096e-05
0.999997
4.56704e-05
4.59377e-05
4.57482e-05
4.5395e-05
4.54568e-05
4.57774e-05
4.62386e-05
4.64485e-05
4.6352e-05
4.64627e-05
4.66356e-05
4.65498e-05
4.65393e-05
4.66384e-05
4.72758e-05
4.78289e-05
4.7897e-05
4.91607e-05
4.70037e-05
4.69498e-05
4.45657e-05
4.0998e-05
4.04194e-05
4.1723e-05
4.14743e-05
4.18908e-05
4.11971e-05
3.91754e-05
3.48161e-05
2.81702e-05
1.91167e-05
7.53787e-06
1.08871e-06
8.09727e-08
2.46274e-11
0.180726
0.999993
4.53689e-05
4.57074e-05
4.59862e-05
4.58264e-05
4.54786e-05
4.55216e-05
4.58505e-05
4.62897e-05
4.64877e-05
4.63855e-05
4.65065e-05
4.66966e-05
4.66335e-05
4.66875e-05
4.68304e-05
4.74823e-05
4.80379e-05
4.81371e-05
4.95573e-05
4.76159e-05
4.72778e-05
4.49703e-05
4.08051e-05
4.00414e-05
4.12318e-05
4.11821e-05
4.14429e-05
4.05774e-05
3.80014e-05
3.29406e-05
2.55384e-05
1.5878e-05
5.3644e-06
7.38366e-07
2.34593e-08
6.29502e-12
0.996152
1
4.52813e-05
4.54664e-05
4.57744e-05
4.60624e-05
4.58997e-05
4.55463e-05
4.55817e-05
4.59171e-05
4.63377e-05
4.65181e-05
4.6415e-05
4.65472e-05
4.67497e-05
4.67156e-05
4.68446e-05
4.70471e-05
4.77215e-05
4.82787e-05
4.84172e-05
4.99134e-05
4.84956e-05
4.76182e-05
4.54974e-05
4.06425e-05
3.96618e-05
4.07565e-05
4.07793e-05
4.08567e-05
3.97701e-05
3.65828e-05
3.07651e-05
2.26409e-05
1.26067e-05
3.63881e-06
5.39772e-07
5.64742e-09
1.04039e-12
0.999506
1
4.53657e-05
4.53907e-05
4.55694e-05
4.5851e-05
4.6127e-05
4.59672e-05
4.56065e-05
4.56393e-05
4.59793e-05
4.63779e-05
4.65422e-05
4.64367e-05
4.6586e-05
4.67995e-05
4.68052e-05
4.70265e-05
4.72789e-05
4.79789e-05
4.85516e-05
4.87523e-05
5.0268e-05
4.9556e-05
4.79681e-05
4.61721e-05
4.05628e-05
3.93771e-05
4.03187e-05
4.02504e-05
4.03135e-05
3.86998e-05
3.48853e-05
2.82717e-05
1.94936e-05
9.51027e-06
2.38283e-06
4.60749e-07
1.20332e-09
9.81104e-13
0.99814
1
4.53569e-05
4.54583e-05
4.54995e-05
4.56509e-05
4.59179e-05
4.61816e-05
4.60281e-05
4.56615e-05
4.56995e-05
4.60324e-05
4.64144e-05
4.65606e-05
4.64536e-05
4.66179e-05
4.68564e-05
4.6897e-05
4.72027e-05
4.75291e-05
4.82674e-05
4.88619e-05
4.91124e-05
5.06816e-05
5.07792e-05
4.83837e-05
4.68758e-05
4.05848e-05
3.92255e-05
3.98568e-05
3.96896e-05
3.95819e-05
3.74103e-05
3.28733e-05
2.54561e-05
1.62169e-05
6.74474e-06
1.54524e-06
4.78899e-07
2.85993e-10
6.36191e-12
0.996565
1
4.51347e-05
4.54498e-05
4.55529e-05
4.55805e-05
4.57277e-05
4.59793e-05
4.62279e-05
4.60818e-05
4.5714e-05
4.57625e-05
4.60778e-05
4.64414e-05
4.65711e-05
4.64635e-05
4.66521e-05
4.69028e-05
4.69934e-05
4.74046e-05
4.78044e-05
4.85905e-05
4.92098e-05
4.95118e-05
5.1219e-05
5.21039e-05
4.92171e-05
4.73624e-05
4.07077e-05
3.91742e-05
3.93846e-05
3.90677e-05
3.85919e-05
3.58395e-05
3.05194e-05
2.23455e-05
1.29072e-05
4.49983e-06
1.05584e-06
5.71492e-07
8.526e-11
7.24949e-11
0.991472
0.999999
4.49685e-05
4.52622e-05
4.55431e-05
4.56337e-05
4.56583e-05
4.57981e-05
4.60332e-05
4.62645e-05
4.61275e-05
4.57634e-05
4.58262e-05
4.61116e-05
4.64618e-05
4.6573e-05
4.64661e-05
4.66791e-05
4.69566e-05
4.70986e-05
4.76177e-05
4.81052e-05
4.89437e-05
4.96017e-05
5.00108e-05
5.18816e-05
5.33632e-05
5.07259e-05
4.77596e-05
4.10233e-05
3.91596e-05
3.89188e-05
3.83181e-05
3.74243e-05
3.39581e-05
2.78095e-05
1.89938e-05
9.76223e-06
2.83926e-06
8.27797e-07
7.13675e-07
3.13092e-11
5.74832e-10
0.996125
0.999972
4.49634e-05
4.51286e-05
4.53786e-05
4.56114e-05
4.57126e-05
4.5737e-05
4.58598e-05
4.60789e-05
4.62909e-05
4.61648e-05
4.58114e-05
4.5888e-05
4.61369e-05
4.64725e-05
4.65659e-05
4.64633e-05
4.67096e-05
4.70087e-05
4.72113e-05
4.78495e-05
4.84205e-05
4.93512e-05
5.00985e-05
5.05425e-05
5.26381e-05
5.44575e-05
5.25825e-05
4.8053e-05
4.14564e-05
3.92162e-05
3.84063e-05
3.74261e-05
3.60084e-05
3.17291e-05
2.4748e-05
1.55254e-05
6.95561e-06
1.75781e-06
8.154e-07
7.7354e-07
1.90694e-11
7.8976e-09
0.998989
0.994447
4.50468e-05
4.51332e-05
4.52716e-05
4.5456e-05
4.56805e-05
4.57864e-05
4.58117e-05
4.59156e-05
4.61144e-05
4.63099e-05
4.61949e-05
4.58566e-05
4.59422e-05
4.61535e-05
4.64739e-05
4.65514e-05
4.64559e-05
4.67384e-05
4.70631e-05
4.73327e-05
4.80994e-05
4.87974e-05
4.98114e-05
5.06241e-05
5.11447e-05
5.34516e-05
5.55861e-05
5.46361e-05
4.83497e-05
4.18127e-05
3.93096e-05
3.78403e-05
3.63876e-05
3.43075e-05
2.91245e-05
2.13772e-05
1.20871e-05
4.67656e-06
1.14722e-06
1.04275e-06
6.39125e-07
1.73442e-11
2.85698e-07
0.999879
0.47658
4.51327e-05
4.51992e-05
4.52871e-05
4.53623e-05
4.55268e-05
4.57491e-05
4.58549e-05
4.58769e-05
4.59657e-05
4.61417e-05
4.63186e-05
4.62165e-05
4.58986e-05
4.59747e-05
4.61612e-05
4.64671e-05
4.65268e-05
4.64452e-05
4.67701e-05
4.7123e-05
4.74685e-05
4.83863e-05
4.9198e-05
5.03055e-05
5.12192e-05
5.17871e-05
5.4331e-05
5.68556e-05
5.66677e-05
4.93092e-05
4.19328e-05
3.95271e-05
3.71939e-05
3.51766e-05
3.22714e-05
2.61282e-05
1.77879e-05
8.89873e-06
3.01422e-06
8.84496e-07
1.61273e-06
3.59422e-07
3.53172e-11
1.64874e-06
0.999996
0.0276878
4.51531e-05
4.52625e-05
4.53395e-05
4.53842e-05
4.54445e-05
4.5591e-05
4.5816e-05
4.59157e-05
4.59365e-05
4.60081e-05
4.61615e-05
4.63167e-05
4.62253e-05
4.59364e-05
4.59981e-05
4.61624e-05
4.64492e-05
4.64977e-05
4.64337e-05
4.68057e-05
4.71973e-05
4.76276e-05
4.86932e-05
4.96324e-05
5.08481e-05
5.18552e-05
5.24955e-05
5.52741e-05
5.81658e-05
5.84956e-05
5.09674e-05
4.19812e-05
3.98642e-05
3.64413e-05
3.37288e-05
2.98564e-05
2.27709e-05
1.41293e-05
6.16236e-06
1.96625e-06
8.97218e-07
2.54232e-06
1.22113e-07
7.77386e-11
7.27231e-05
0.999999
0.00405407
4.51207e-05
4.52777e-05
4.53818e-05
4.54307e-05
4.5474e-05
4.5522e-05
4.56508e-05
4.58755e-05
4.59698e-05
4.59883e-05
4.60445e-05
4.61672e-05
4.63034e-05
4.62204e-05
4.59634e-05
4.60109e-05
4.61533e-05
4.64225e-05
4.64607e-05
4.64187e-05
4.6842e-05
4.7296e-05
4.7796e-05
4.9024e-05
5.00957e-05
5.14318e-05
5.25609e-05
5.32459e-05
5.62386e-05
5.9466e-05
6.00594e-05
5.28007e-05
4.20219e-05
4.04969e-05
3.55074e-05
3.19901e-05
2.70092e-05
1.91263e-05
1.06158e-05
4.05267e-06
1.42819e-06
1.2279e-06
3.44869e-06
2.838e-08
1.70234e-10
0.000459344
1
0.00111728
4.50419e-05
4.52508e-05
4.5392e-05
4.54631e-05
4.5517e-05
4.55573e-05
4.55929e-05
4.57018e-05
4.59265e-05
4.6018e-05
4.60336e-05
4.60711e-05
4.61675e-05
4.6278e-05
4.62049e-05
4.5983e-05
4.60147e-05
4.61352e-05
4.63884e-05
4.64157e-05
4.64046e-05
4.68889e-05
4.7404e-05
4.79885e-05
4.93817e-05
5.05959e-05
5.20558e-05
5.32982e-05
5.40111e-05
5.71766e-05
6.05858e-05
6.13423e-05
5.44829e-05
4.18492e-05
4.12585e-05
3.43007e-05
2.9807e-05
2.37213e-05
1.53324e-05
7.4904e-06
2.6394e-06
1.30538e-06
2.07987e-06
3.62548e-06
5.2159e-09
7.98229e-10
0.00143037
1
0.000477829
4.49824e-05
4.51867e-05
4.53672e-05
4.54723e-05
4.55399e-05
4.55971e-05
4.56341e-05
4.56557e-05
4.57465e-05
4.59698e-05
4.60597e-05
4.60686e-05
4.60815e-05
4.61505e-05
4.62437e-05
4.61785e-05
4.59868e-05
4.60137e-05
4.61085e-05
4.63453e-05
4.63709e-05
4.63938e-05
4.69383e-05
4.75298e-05
4.8201e-05
4.97572e-05
5.11177e-05
5.27129e-05
5.40817e-05
5.47833e-05
5.80387e-05
6.15028e-05
6.24561e-05
5.57428e-05
4.17564e-05
4.15232e-05
3.26382e-05
2.71261e-05
2.00268e-05
1.15974e-05
4.98967e-06
1.865e-06
1.60618e-06
3.73335e-06
2.7441e-06
1.12309e-09
5.66884e-09
0.00666113
1
0.000267781
4.49785e-05
4.51409e-05
4.53151e-05
4.54474e-05
4.55475e-05
4.56122e-05
4.56736e-05
4.57045e-05
4.57102e-05
4.57832e-05
4.60032e-05
4.6091e-05
4.60896e-05
4.60789e-05
4.61019e-05
4.61938e-05
4.61292e-05
4.59548e-05
4.59953e-05
4.60738e-05
4.62987e-05
4.63214e-05
4.63871e-05
4.69953e-05
4.76766e-05
4.84286e-05
5.01612e-05
5.16605e-05
5.339e-05
5.48695e-05
5.5505e-05
5.87356e-05
6.20868e-05
6.31099e-05
5.59426e-05
4.22461e-05
4.16257e-05
3.03569e-05
2.38723e-05
1.60528e-05
8.21356e-06
3.24659e-06
1.63039e-06
2.51357e-06
5.9876e-06
1.38972e-06
5.80433e-10
4.7873e-08
0.0186032
1
0.000181121
4.49976e-05
4.51341e-05
4.52797e-05
4.5403e-05
4.55241e-05
4.56176e-05
4.56796e-05
4.5745e-05
4.57681e-05
4.57584e-05
4.5811e-05
4.60304e-05
4.61092e-05
4.61026e-05
4.60682e-05
4.60537e-05
4.61143e-05
4.60686e-05
4.59234e-05
4.59701e-05
4.60323e-05
4.62465e-05
4.62708e-05
4.63951e-05
4.70653e-05
4.78393e-05
4.86788e-05
5.05737e-05
5.22137e-05
5.40736e-05
5.56443e-05
5.61549e-05
5.9186e-05
6.19821e-05
6.31531e-05
5.45383e-05
4.18699e-05
4.08255e-05
2.72901e-05
2.00277e-05
1.2055e-05
5.45261e-06
2.25906e-06
1.93585e-06
4.27317e-06
7.92002e-06
4.16374e-07
5.86073e-10
6.30785e-07
0.192402
0.999991
0.000133005
4.504e-05
4.51428e-05
4.52688e-05
4.53733e-05
4.54867e-05
4.55954e-05
4.56836e-05
4.57406e-05
4.58098e-05
4.58243e-05
4.57982e-05
4.58314e-05
4.60464e-05
4.61195e-05
4.61054e-05
4.60316e-05
4.59986e-05
4.60313e-05
4.59952e-05
4.58815e-05
4.5941e-05
4.60014e-05
4.61912e-05
4.6222e-05
4.64208e-05
4.71385e-05
4.80194e-05
4.8946e-05
5.09999e-05
5.27601e-05
5.47254e-05
5.63784e-05
5.66509e-05
5.93072e-05
6.12585e-05
6.24089e-05
5.18149e-05
3.995e-05
3.65444e-05
2.33868e-05
1.57659e-05
8.37529e-06
3.51972e-06
1.9363e-06
2.98969e-06
6.66023e-06
7.9182e-06
9.55499e-08
2.81545e-10
1.14471e-05
0.887616
0.999559
0.000103997
4.50414e-05
4.51838e-05
4.52621e-05
4.53581e-05
4.54605e-05
4.55663e-05
4.56634e-05
4.57459e-05
4.57956e-05
4.58667e-05
4.58726e-05
4.58294e-05
4.5839e-05
4.60459e-05
4.61189e-05
4.6092e-05
4.59862e-05
4.59147e-05
4.59406e-05
4.59018e-05
4.58315e-05
4.59041e-05
4.5956e-05
4.61353e-05
4.61746e-05
4.64677e-05
4.72168e-05
4.82207e-05
4.92227e-05
5.1418e-05
5.32769e-05
5.53429e-05
5.70144e-05
5.69687e-05
5.91234e-05
5.99394e-05
6.08153e-05
4.85659e-05
3.88301e-05
2.98526e-05
1.87687e-05
1.14203e-05
5.40471e-06
2.43244e-06
2.29503e-06
4.96877e-06
9.2394e-06
6.1649e-06
4.10605e-08
2.8452e-10
3.90657e-05
0.9998
0.973158
8.38304e-05
4.50072e-05
4.51878e-05
4.52995e-05
4.53452e-05
4.54431e-05
4.55455e-05
4.56428e-05
4.57271e-05
4.57997e-05
4.58442e-05
4.5917e-05
4.59124e-05
4.58509e-05
4.58354e-05
4.60303e-05
4.61022e-05
4.60613e-05
4.59305e-05
4.58114e-05
4.58319e-05
4.57968e-05
4.57769e-05
4.58639e-05
4.58888e-05
4.60805e-05
4.61288e-05
4.65462e-05
4.72935e-05
4.84307e-05
4.95034e-05
5.18193e-05
5.37486e-05
5.58589e-05
5.75012e-05
5.71288e-05
5.87029e-05
5.83578e-05
5.78183e-05
4.28124e-05
3.80346e-05
2.30924e-05
1.37892e-05
7.52169e-06
3.37182e-06
2.12644e-06
3.57521e-06
7.55567e-06
1.10762e-05
3.16325e-06
1.94949e-08
1.61978e-09
9.2941e-05
0.999994
0.4013
6.97486e-05
4.50067e-05
4.51622e-05
4.5311e-05
4.5382e-05
4.54218e-05
4.55269e-05
4.56287e-05
4.57144e-05
4.57827e-05
4.58476e-05
4.58864e-05
4.59697e-05
4.59427e-05
4.58622e-05
4.58199e-05
4.59989e-05
4.60721e-05
4.60129e-05
4.58632e-05
4.56884e-05
4.57153e-05
4.56827e-05
4.57168e-05
4.5819e-05
4.58435e-05
4.60208e-05
4.60825e-05
4.66622e-05
4.73699e-05
4.86441e-05
4.97774e-05
5.2184e-05
5.41307e-05
5.62414e-05
5.78225e-05
5.70549e-05
5.79568e-05
5.67445e-05
5.30841e-05
3.48162e-05
3.2339e-05
1.65513e-05
9.10015e-06
4.52544e-06
2.30087e-06
2.65029e-06
5.96878e-06
1.01826e-05
1.1687e-05
1.46568e-06
3.1067e-09
1.30427e-08
0.000412788
1
0.0188654
6.06229e-05
4.50047e-05
4.51679e-05
4.5302e-05
4.53969e-05
4.54577e-05
4.54943e-05
4.56082e-05
4.57081e-05
4.57802e-05
4.58338e-05
4.58889e-05
4.59195e-05
4.59885e-05
4.59631e-05
4.58623e-05
4.57896e-05
4.59482e-05
4.6023e-05
4.59486e-05
4.57768e-05
4.5547e-05
4.55855e-05
4.55691e-05
4.56504e-05
4.57697e-05
4.58037e-05
4.5979e-05
4.60378e-05
4.68129e-05
4.74933e-05
4.88456e-05
5.00269e-05
5.24805e-05
5.44052e-05
5.6409e-05
5.78842e-05
5.6527e-05
5.68968e-05
5.53643e-05
4.73745e-05
3.05391e-05
2.32479e-05
1.07417e-05
5.3069e-06
2.64822e-06
2.09529e-06
4.38615e-06
8.94788e-06
1.21096e-05
9.9049e-06
9.48783e-07
1.09787e-09
1.05334e-07
0.00223387
1
0.0017803
5.49704e-05
4.49773e-05
4.51649e-05
4.53189e-05
4.53959e-05
4.5476e-05
4.55289e-05
4.55647e-05
4.56854e-05
4.57828e-05
4.58409e-05
4.58776e-05
4.59207e-05
4.59421e-05
4.6006e-05
4.59714e-05
4.58473e-05
4.57427e-05
4.58821e-05
4.59502e-05
4.58694e-05
4.56726e-05
4.53954e-05
4.54333e-05
4.546e-05
4.55788e-05
4.57147e-05
4.57557e-05
4.59313e-05
4.59829e-05
4.69094e-05
4.76965e-05
4.90246e-05
5.02336e-05
5.26914e-05
5.45083e-05
5.63057e-05
5.75344e-05
5.54807e-05
5.4946e-05
5.32232e-05
3.72294e-05
2.687e-05
1.49341e-05
6.1061e-06
2.78924e-06
1.78067e-06
2.90218e-06
7.5295e-06
1.15683e-05
1.35314e-05
7.83686e-06
3.04177e-07
8.79572e-10
1.09175e-06
0.0260988
0.999998
0.000510348
5.14041e-05
4.49909e-05
4.51345e-05
4.53145e-05
4.54197e-05
4.54843e-05
4.55525e-05
4.55987e-05
4.56302e-05
4.57584e-05
4.58519e-05
4.58958e-05
4.59114e-05
4.59417e-05
4.5954e-05
4.60113e-05
4.59679e-05
4.58147e-05
4.56822e-05
4.58043e-05
4.58599e-05
4.57753e-05
4.55576e-05
4.52412e-05
4.52572e-05
4.53552e-05
4.55117e-05
4.56554e-05
4.57122e-05
4.58653e-05
4.59411e-05
4.6884e-05
4.79492e-05
4.91484e-05
5.03594e-05
5.27399e-05
5.43337e-05
5.58187e-05
5.66298e-05
5.38712e-05
5.27466e-05
5.07521e-05
3.04049e-05
1.88942e-05
8.37838e-06
3.01702e-06
1.44814e-06
1.77012e-06
5.37823e-06
1.12335e-05
1.31873e-05
1.25449e-05
6.68508e-06
8.62448e-08
9.07886e-10
1.51757e-05
0.695841
0.999889
0.000231137
4.9157e-05
4.50465e-05
4.51387e-05
4.52735e-05
4.54117e-05
4.55148e-05
4.55693e-05
4.56271e-05
4.56631e-05
4.5691e-05
4.5825e-05
4.59157e-05
4.59416e-05
4.59373e-05
4.59513e-05
4.59541e-05
4.60022e-05
4.59512e-05
4.57651e-05
4.56076e-05
4.57118e-05
4.57567e-05
4.56696e-05
4.54337e-05
4.50865e-05
4.50678e-05
4.5235e-05
4.54599e-05
4.56079e-05
4.56652e-05
4.58223e-05
4.59454e-05
4.68207e-05
4.82215e-05
4.93451e-05
5.03765e-05
5.25842e-05
5.39395e-05
5.49685e-05
5.50732e-05
5.17893e-05
5.01026e-05
4.69005e-05
2.52239e-05
1.1302e-05
4.02797e-06
1.32591e-06
9.50732e-07
2.92433e-06
9.81127e-06
1.41285e-05
1.40454e-05
1.12982e-05
4.02076e-06
2.65809e-08
2.17351e-09
4.59968e-05
0.999405
0.983185
0.000132833
4.76935e-05
4.51013e-05
4.51864e-05
4.5263e-05
4.5365e-05
4.55041e-05
4.56092e-05
4.56517e-05
4.56947e-05
4.57204e-05
4.57471e-05
4.58865e-05
4.59716e-05
4.59799e-05
4.59501e-05
4.59481e-05
4.59412e-05
4.59817e-05
4.59217e-05
4.56994e-05
4.55158e-05
4.56e-05
4.56409e-05
4.55539e-05
4.53016e-05
4.49285e-05
4.48854e-05
4.5086e-05
4.53938e-05
4.55775e-05
4.5611e-05
4.57881e-05
4.59406e-05
4.67206e-05
4.831e-05
4.95854e-05
5.04208e-05
5.22848e-05
5.3037e-05
5.38286e-05
5.31946e-05
4.81879e-05
4.48404e-05
4.01062e-05
1.87029e-05
5.8216e-06
1.63926e-06
6.01185e-07
1.09935e-06
6.24704e-06
1.48705e-05
1.5897e-05
1.31817e-05
1.18582e-05
2.06521e-06
5.86389e-09
2.27686e-08
0.000149284
0.999992
0.351139
8.84285e-05
4.6744e-05
4.51422e-05
4.52373e-05
4.53038e-05
4.53439e-05
4.54512e-05
4.55957e-05
4.57e-05
4.57274e-05
4.57588e-05
4.57746e-05
4.5796e-05
4.59408e-05
4.60184e-05
4.60071e-05
4.59497e-05
4.59309e-05
4.59135e-05
4.59463e-05
4.58777e-05
4.56182e-05
4.54073e-05
4.54761e-05
4.55134e-05
4.54284e-05
4.5161e-05
4.47668e-05
4.47187e-05
4.49346e-05
4.52862e-05
4.55576e-05
4.55458e-05
4.57464e-05
4.58776e-05
4.66669e-05
4.8027e-05
4.9547e-05
5.01869e-05
5.17436e-05
5.18865e-05
5.16729e-05
4.99777e-05
4.34493e-05
3.93209e-05
2.91816e-05
1.03235e-05
2.46267e-06
5.98598e-07
3.99696e-07
2.37857e-06
1.17391e-05
1.85952e-05
1.6584e-05
1.21029e-05
9.20472e-06
8.53058e-07
2.30109e-09
1.92101e-07
0.000568144
0.999999
0.0126613
6.65128e-05
4.6159e-05
4.51233e-05
4.52722e-05
4.5354e-05
4.53829e-05
4.542e-05
4.55322e-05
4.5682e-05
4.57841e-05
4.57998e-05
4.5817e-05
4.58212e-05
4.58365e-05
4.59851e-05
4.60545e-05
4.60234e-05
4.59378e-05
4.58974e-05
4.58696e-05
4.58963e-05
4.58199e-05
4.55212e-05
4.52844e-05
4.53394e-05
4.53764e-05
4.5294e-05
4.50169e-05
4.46027e-05
4.45578e-05
4.47993e-05
4.51526e-05
4.55405e-05
4.54685e-05
4.56869e-05
4.58409e-05
4.66318e-05
4.77969e-05
4.92156e-05
4.96443e-05
5.07564e-05
5.01166e-05
4.82679e-05
4.53713e-05
3.93948e-05
3.46003e-05
2.12899e-05
4.70338e-06
8.62595e-07
2.42884e-07
6.03018e-07
6.10437e-06
1.68086e-05
2.07597e-05
1.71516e-05
1.29854e-05
6.79539e-06
2.14176e-07
2.10636e-09
2.39231e-06
0.0233703
0.999995
0.000907972
5.62642e-05
4.58165e-05
4.51801e-05
4.52621e-05
4.53968e-05
4.54362e-05
4.54566e-05
4.54895e-05
4.56113e-05
4.57617e-05
4.5864e-05
4.58674e-05
4.5868e-05
4.58586e-05
4.58697e-05
4.60207e-05
4.60793e-05
4.60267e-05
4.59087e-05
4.58501e-05
4.58114e-05
4.58294e-05
4.57465e-05
4.5412e-05
4.51503e-05
4.51912e-05
4.52294e-05
4.51538e-05
4.48668e-05
4.44379e-05
4.43995e-05
4.46659e-05
4.50035e-05
4.55185e-05
4.54057e-05
4.55991e-05
4.57728e-05
4.64853e-05
4.75904e-05
4.88444e-05
4.88787e-05
4.91226e-05
4.71203e-05
4.45088e-05
4.10547e-05
3.46807e-05
2.85211e-05
1.21031e-05
1.73654e-06
2.72474e-07
1.84293e-07
1.90159e-06
1.17745e-05
1.94967e-05
2.09462e-05
1.85207e-05
1.35395e-05
4.7384e-06
4.90771e-08
2.50811e-09
3.28799e-05
0.892202
0.999667
0.000246939
5.10704e-05
4.56193e-05
4.51735e-05
4.53122e-05
4.53973e-05
4.54852e-05
4.55123e-05
4.55259e-05
4.55567e-05
4.56884e-05
4.58377e-05
4.59403e-05
4.59287e-05
4.59123e-05
4.58881e-05
4.58909e-05
4.60432e-05
4.60914e-05
4.60126e-05
4.58654e-05
4.57848e-05
4.57367e-05
4.57471e-05
4.56613e-05
4.52925e-05
4.50045e-05
4.50328e-05
4.50765e-05
4.50064e-05
4.47152e-05
4.42759e-05
4.42427e-05
4.45288e-05
4.48347e-05
4.54275e-05
4.53822e-05
4.54774e-05
4.56413e-05
4.63139e-05
4.71047e-05
4.81453e-05
4.75284e-05
4.67467e-05
4.43753e-05
4.01969e-05
3.6224e-05
2.94734e-05
2.03796e-05
5.31252e-06
5.1704e-07
1.084e-07
4.23447e-07
6.03143e-06
1.62515e-05
2.02073e-05
1.9615e-05
1.73889e-05
1.31457e-05
2.48161e-06
1.01504e-08
1.37833e-08
6.77588e-05
0.999822
0.912792
0.000117142
4.83144e-05
4.55094e-05
4.51612e-05
4.53027e-05
4.54482e-05
4.54922e-05
4.55685e-05
4.55848e-05
4.55916e-05
4.56213e-05
4.57577e-05
4.59092e-05
4.60119e-05
4.59839e-05
4.59455e-05
4.59057e-05
4.59e-05
4.60506e-05
4.60905e-05
4.59809e-05
4.58062e-05
4.57043e-05
4.56452e-05
4.56514e-05
4.55675e-05
4.51629e-05
4.48505e-05
4.4867e-05
4.49167e-05
4.48548e-05
4.4563e-05
4.41108e-05
4.40871e-05
4.43878e-05
4.46715e-05
4.52192e-05
4.53542e-05
4.53672e-05
4.54402e-05
4.59475e-05
4.65253e-05
4.69614e-05
4.61555e-05
4.42324e-05
4.06967e-05
3.52913e-05
3.0788e-05
2.44388e-05
1.15706e-05
1.78228e-06
1.45261e-07
1.10735e-07
2.01482e-06
1.15584e-05
1.88573e-05
2.00068e-05
1.86572e-05
1.64057e-05
1.1958e-05
1.06755e-06
2.99075e-09
1.40916e-07
0.000246713
0.999995
0.0646965
7.51828e-05
4.68276e-05
4.54512e-05
4.51224e-05
4.52864e-05
4.54323e-05
4.55533e-05
4.55844e-05
4.56494e-05
4.56541e-05
4.5652e-05
4.56773e-05
4.58202e-05
4.5974e-05
4.60728e-05
4.60288e-05
4.59693e-05
4.59104e-05
4.58984e-05
4.60329e-05
4.60744e-05
4.59331e-05
4.57313e-05
4.56062e-05
4.55397e-05
4.55444e-05
4.54607e-05
4.5027e-05
4.46881e-05
4.46935e-05
4.47517e-05
4.47005e-05
4.44073e-05
4.39454e-05
4.39313e-05
4.42398e-05
4.45181e-05
4.49446e-05
4.51893e-05
4.53303e-05
4.51933e-05
4.55124e-05
4.58258e-05
4.5804e-05
4.40486e-05
4.12528e-05
3.58306e-05
3.02162e-05
2.58795e-05
1.76367e-05
5.09138e-06
4.60348e-07
6.22051e-08
4.37592e-07
7.15036e-06
1.55982e-05
2.05934e-05
2.0066e-05
1.70608e-05
1.538e-05
9.27193e-06
2.77707e-07
2.89506e-09
1.72741e-06
0.00807258
0.999994
0.0019886
5.82041e-05
4.60761e-05
4.5422e-05
4.5147e-05
4.52378e-05
4.54026e-05
4.55281e-05
4.56474e-05
4.56784e-05
4.57279e-05
4.57166e-05
4.57074e-05
4.57299e-05
4.58801e-05
4.60311e-05
4.61207e-05
4.6065e-05
4.59803e-05
4.59033e-05
4.58817e-05
4.60126e-05
4.60432e-05
4.58693e-05
4.56389e-05
4.54939e-05
4.54237e-05
4.54279e-05
4.53448e-05
4.48817e-05
4.45192e-05
4.45163e-05
4.45839e-05
4.45387e-05
4.42486e-05
4.37777e-05
4.37752e-05
4.40807e-05
4.43406e-05
4.46744e-05
4.47884e-05
4.51836e-05
4.48063e-05
4.50326e-05
4.47345e-05
4.44208e-05
4.09864e-05
3.74138e-05
3.11006e-05
2.52681e-05
2.09306e-05
9.85863e-06
1.6308e-06
1.20589e-07
1.06322e-07
2.65908e-06
1.23652e-05
1.81797e-05
2.19264e-05
1.93289e-05
1.53985e-05
1.33885e-05
5.62768e-06
6.62476e-08
4.44321e-09
2.61786e-05
0.862182
0.999556
0.000267707
5.11466e-05
4.57045e-05
4.54079e-05
4.51598e-05
4.52666e-05
4.53424e-05
4.54854e-05
4.56183e-05
4.57379e-05
4.57651e-05
4.57997e-05
4.57762e-05
4.57575e-05
4.57757e-05
4.59314e-05
4.60808e-05
4.61651e-05
4.60919e-05
4.59785e-05
4.58814e-05
4.58511e-05
4.5978e-05
4.59976e-05
4.57899e-05
4.55328e-05
4.53705e-05
4.52947e-05
4.52991e-05
4.52248e-05
4.47298e-05
4.43458e-05
4.4335e-05
4.44078e-05
4.43692e-05
4.4085e-05
4.36074e-05
4.36126e-05
4.39057e-05
4.41172e-05
4.44022e-05
4.4321e-05
4.46956e-05
4.40267e-05
4.39233e-05
4.29084e-05
4.20814e-05
3.77507e-05
3.3108e-05
2.63336e-05
2.06156e-05
1.45925e-05
4.19503e-06
4.04005e-07
6.63673e-08
8.05462e-07
8.22457e-06
1.44951e-05
1.96933e-05
2.24549e-05
1.84688e-05
1.45084e-05
1.14521e-05
2.5555e-06
1.25111e-08
3.43633e-08
7.46794e-05
0.999759
0.841192
0.000107745
4.79296e-05
4.55287e-05
4.54014e-05
4.51759e-05
4.52804e-05
4.53724e-05
4.54156e-05
4.55653e-05
4.57037e-05
4.58284e-05
4.58486e-05
4.58664e-05
4.58276e-05
4.57999e-05
4.58133e-05
4.59761e-05
4.61202e-05
4.61823e-05
4.61066e-05
4.59633e-05
4.58432e-05
4.58058e-05
4.59275e-05
4.5936e-05
4.5696e-05
4.54153e-05
4.52355e-05
4.51543e-05
4.51636e-05
4.50954e-05
4.45731e-05
4.41671e-05
4.4148e-05
4.42267e-05
4.4192e-05
4.39137e-05
4.34301e-05
4.34413e-05
4.37052e-05
4.38468e-05
4.40677e-05
4.39144e-05
4.40876e-05
4.31432e-05
4.25366e-05
4.08269e-05
3.91119e-05
3.39984e-05
2.85638e-05
2.18699e-05
1.59236e-05
7.93784e-06
1.26121e-06
1.05087e-07
2.34407e-07
5.10034e-06
1.22489e-05
1.54327e-05
2.09745e-05
2.24388e-05
1.8203e-05
1.3882e-05
9.21056e-06
7.78053e-07
5.09903e-09
4.0548e-07
0.000389306
0.999992
0.0245648
6.74978e-05
4.64642e-05
4.54505e-05
4.53987e-05
4.51399e-05
4.52992e-05
4.53903e-05