/*--------------------------------*- C++ -*----------------------------------*\
| =========                 |                                                 |
| \\      /  F ield         | OpenFOAM: The Open Source CFD Toolbox           |
|  \\    /   O peration     | Version:  v2012                                 |
|   \\  /    A nd           | Website:  www.openfoam.com                      |
|    \\/     M anipulation  |                                                 |
\*---------------------------------------------------------------------------*/
FoamFile
{
    version     2.0;
    format      ascii;
    class       volScalarField;
    location    "11500";
    object      heatTransferCoeff(T);
}
// * * * * * * * * * * * * * * * * * * * * * * * * * * * * * * * * * * * * * //

dimensions      [1 0 -3 -1 0 0 0];


internalField   uniform 0;

boundaryField
{
    base
    {
        type            calculated;
        value           nonuniform List<scalar> 
448
(
-2549.72
-514.805
-313.789
-251.649
-212.337
-187.278
-170.162
-157.126
-146.874
-138.417
-131.383
-125.552
-120.672
-117.349
-114.37
-115.496
-119.226
-125.576
-132.497
-138.978
-143.56
-147.01
-149.579
-151.394
-152.827
-153.83
-154.521
-154.816
-154.864
-154.768
-154.554
-154.184
-153.713
-153.189
-152.683
-152.119
-151.473
-150.835
-150.227
-149.641
-149.025
-148.348
-147.697
-147.138
-146.594
-146.013
-145.416
-144.82
-144.266
-143.78
-143.303
-142.761
-142.194
-141.643
-141.171
-140.804
-140.447
-140.03
-139.53
-139.007
-138.496
-138.076
-137.735
-137.505
-137.249
-136.897
-136.414
-135.912
-135.426
-135.021
-134.658
-134.561
-134.387
-134.179
-133.897
-133.505
-133.019
-132.524
-132.059
-131.665
-131.347
-131.21
-131.164
-131.144
-131.097
-130.983
-130.833
-130.549
-130.187
-129.741
-129.278
-128.837
-128.448
-128.137
-127.913
-127.833
-127.776
-127.789
-127.803
-127.808
-127.787
-127.721
-127.626
-127.47
-127.264
-127.011
-126.718
-126.41
-126.096
-125.766
-125.452
-125.161
-124.904
-124.688
-124.509
-124.392
-124.269
-124.271
-124.263
-124.292
-124.338
-124.403
-124.462
-124.511
-124.548
-124.575
-124.587
-124.584
-124.564
-124.527
-124.48
-124.417
-124.329
-124.228
-124.117
-123.994
-123.863
-123.73
-123.593
-123.454
-123.313
-123.173
-123.031
-122.889
-122.75
-122.614
-122.483
-122.356
-122.233
-122.115
-122.002
-121.893
-121.79
-121.692
-121.6
-121.513
-121.431
-121.354
-121.282
-121.212
-121.148
-121.086
-121.031
-120.978
-120.932
-120.86
-120.711
-120.205
-118.695
-114.89
-107.368
-96.4164
-84.4513
-73.8722
-71.0316
-80.0443
-94.9041
-110.365
-124.737
-137.857
-149.846
-161.047
-171.643
-181.703
-191.282
-200.481
-209.277
-217.617
-225.178
-231.915
-237.713
-243.21
-249.055
-256.655
-267.474
-281.254
-295.553
-293.95
-260.285
-249.23
-298.515
-344.916
-383.598
-416.722
-447.097
-478.324
-510.507
-544.637
-580.747
-620.076
-662.732
-709.197
-759.293
-813.342
-872.375
-934.73
-1000.98
-1072.12
-1145.91
-1214.8
-1274.05
-1316.82
-1345.98
-1373.29
-1401.37
-1433.16
-1464.9
-1501.58
-1539.57
-1582.19
-1625.93
-1669.99
-1718.52
-1769.03
-1819.46
-1872.48
-1925.84
-1979.7
-2034.06
-2087.85
-2141.4
-2193.11
-2243.4
-2290.97
-2338.49
-2385.71
-2435.41
-2482.48
-2534.15
-2582.92
-2627.06
-2666.02
-2701.1
-2732.95
-2760.52
-2784.05
-2807.59
-2829.17
-2845.96
-2859.48
-2868.25
-2873.02
-2867.71
-2865.54
-2857.75
-2847.68
-2837.83
-2824.67
-2808.08
-2797.64
-2777.02
-2759.15
-2735.13
-2712.35
-2687.93
-2663.49
-2642.66
-2619.94
-2598.21
-2571.04
-2545.95
-2513
-2482.68
-2459.45
-2434.93
-2406.78
-2386.41
-2368.17
-2344.78
-2329
-2311.87
-2292.81
-2277.86
-2257.56
-2242.38
-2225.21
-2211.55
-2201.24
-2188.58
-2174.28
-2166.13
-2152.36
-2142.69
-2129.92
-2121.17
-2109.43
-2098.14
-2093.42
-2080.85
-2077.62
-2066.83
-2062.66
-2058.17
-2047.24
-2048.02
-2039.36
-2040.01
-2035.66
-2030.34
-2026.48
-2018.52
-2012.63
-1999.57
-1996.02
-1986.97
-1978.9
-1978.44
-1973.86
-1967.06
-1969.76
-1962.2
-1961.48
-1957.35
-1951.67
-1948.44
-1935.54
-1931.49
-1928.2
-1919.54
-1916.16
-1909.77
-1907.46
-1902.87
-1901.19
-1895.96
-1893.69
-1888.12
-1887.41
-1884.76
-1880.65
-1870.99
-1872.64
-1869.53
-1857.84
-1860.18
-1852.82
-1852.01
-1845.23
-1844.84
-1845.77
-1841.49
-1844.29
-1832.59
-1831.95
-1828.21
-1824.73
-1823.72
-1819.42
-1806.25
-1805.11
-1805.81
-1787.82
-1799.15
-1791.9
-1793.03
-1785.08
-1789.14
-1787.68
-1777.26
-1780.36
-1774.78
-1765.48
-1768.84
-1756.75
-1761.63
-1750.7
-1744.59
-1740.49
-1739.78
-1741.15
-1729.89
-1730.03
-1731.08
-1722.48
-1721.09
-1725.95
-1717.24
-1711.64
-1720.22
-1703.95
-1702.25
-1705.4
-1689.69
-1689.14
-1691.81
-1679.57
-1681.87
-1681.83
-1684.04
-1669.41
-1674.34
-1659.38
-1668.77
-1664.41
-1655.44
-1665.22
-1661.46
-1646.88
-1653.77
-1643.16
-1643.86
-1629.29
-1631.35
-1627.6
-1625.47
-1618.25
-1621.94
-1614.19
-1618.15
-1611.41
-1607.41
-1602.99
-1611.43
-1600.74
-1587.33
-1595.76
-1585.12
-1574.43
-1586.33
-1575.42
-1577.54
-1576.98
-1577.39
-1568.32
-1573.3
-1564.72
-1553.78
-1547.34
)
;
    }
    inlet
    {
        type            calculated;
        value           uniform 0;
    }
    outlet
    {
        type            calculated;
        value           uniform 0;
    }
    top
    {
        type            calculated;
        value           uniform 0;
    }
    w1
    {
        type            wedge;
    }
    w2
    {
        type            wedge;
    }
}


// ************************************************************************* //
