/*--------------------------------*- C++ -*----------------------------------*\
| =========                 |                                                 |
| \\      /  F ield         | OpenFOAM: The Open Source CFD Toolbox           |
|  \\    /   O peration     | Version:  v2012                                 |
|   \\  /    A nd           | Website:  www.openfoam.com                      |
|    \\/     M anipulation  |                                                 |
\*---------------------------------------------------------------------------*/
FoamFile
{
    version     2.0;
    format      ascii;
    class       volScalarField;
    location    "11500";
    object      I1;
}
// * * * * * * * * * * * * * * * * * * * * * * * * * * * * * * * * * * * * * //

dimensions      [0 0 0 0 0 0 0];


internalField   nonuniform List<scalar> 
53312
(
2.16682e-08
1.04128e-09
1.33482e-05
7.73535e-11
9.19789e-07
0.000359772
2.56892e-11
8.34052e-08
4.208e-05
0.00198797
1.1402e-11
2.92366e-08
4.94057e-06
0.000415849
0.00330246
5.90132e-12
1.33004e-08
1.8539e-06
6.82766e-05
0.00189242
0.00347229
3.59539e-12
7.0197e-09
8.71331e-07
2.77655e-05
0.000411258
0.00522565
0.00304239
2.41715e-12
4.32722e-09
4.71149e-07
1.3639e-05
0.000182626
0.00145958
0.0106781
0.00234773
1.738e-12
2.93317e-09
2.94934e-07
7.60698e-06
9.4463e-05
0.000707053
0.00371197
0.018338
0.00169552
1.3127e-12
2.12216e-09
2.02063e-07
4.85394e-06
5.46282e-05
0.000386298
0.00198357
0.00763448
0.0260453
0.00124164
1.02627e-12
1.61035e-09
1.47203e-07
3.36853e-06
3.56702e-05
0.000229689
0.0011455
0.00435864
0.0138068
0.0311243
0.000913664
8.26008e-13
1.26347e-09
1.12319e-07
2.45632e-06
2.49933e-05
0.000154308
0.000705401
0.00270033
0.00820328
0.0215006
0.0360323
0.000647624
6.85957e-13
1.01954e-09
8.80794e-08
1.88381e-06
1.76025e-05
0.000110639
0.000486795
0.00175053
0.00526972
0.0140644
0.0287987
0.0419739
0.000445233
5.99676e-13
8.47679e-10
7.10319e-08
1.41848e-06
1.36714e-05
7.99592e-05
0.000359282
0.00123089
0.00364151
0.00916944
0.0212562
0.0374937
0.0435437
0.000307981
5.56422e-13
7.38438e-10
5.83298e-08
1.11359e-06
1.05219e-05
6.28482e-05
0.000267245
0.000925449
0.00266531
0.00649281
0.0149307
0.0282212
0.0493016
0.0403569
0.00021465
5.66278e-13
6.85183e-10
4.57909e-08
9.22216e-07
8.38457e-06
4.93978e-05
0.00021208
0.000711796
0.0020223
0.00501163
0.010613
0.0217883
0.0367187
0.0580864
0.0389114
0.000147023
6.47813e-13
6.95186e-10
4.24742e-08
7.47897e-07
6.9974e-06
3.9962e-05
0.000169328
0.000575537
0.00158154
0.00394238
0.00826413
0.0165544
0.0282881
0.0485002
0.0606217
0.0392448
9.95145e-05
8.20783e-13
7.92143e-10
4.29841e-08
6.94242e-07
5.80274e-06
3.35734e-05
0.000139385
0.000464267
0.00131323
0.00309902
0.00682705
0.0127691
0.0233932
0.03633
0.0578919
0.0661595
0.0359326
6.84561e-05
1.07505e-12
9.97642e-10
4.87135e-08
7.00896e-07
5.39706e-06
2.82866e-05
0.000118342
0.000386158
0.00108331
0.00258724
0.00557226
0.0105357
0.0191349
0.0296607
0.0476309
0.061728
0.0769037
0.0300941
4.64489e-05
1.36527e-12
1.29649e-09
6.08691e-08
7.90011e-07
5.43534e-06
2.64116e-05
0.000100798
0.000332797
0.000904997
0.00219987
0.00462659
0.00904128
0.0154968
0.0261695
0.0375006
0.0567239
0.0688005
0.0802013
0.0265405
3.10732e-05
1.6535e-12
1.63267e-09
7.83893e-08
9.78666e-07
6.09022e-06
2.65784e-05
9.42726e-05
0.000287765
0.000783806
0.00187805
0.00394366
0.00776894
0.013203
0.0224129
0.0322963
0.0486274
0.0606449
0.0817946
0.0746755
0.0245394
2.03793e-05
1.91697e-12
1.96115e-09
9.79234e-08
1.24716e-06
7.47995e-06
2.95709e-05
9.50229e-05
0.000268821
0.000690883
0.00162353
0.00347219
0.00655787
0.0118992
0.0186334
0.0297243
0.0400644
0.0574928
0.0678373
0.0876931
0.0749955
0.0207278
1.36954e-05
2.15737e-12
2.25706e-09
1.1677e-07
1.54321e-06
9.42996e-06
3.59384e-05
0.000105276
0.000270072
0.000650704
0.00143639
0.00306651
0.00575323
0.0104259
0.0165157
0.026153
0.0356987
0.0512611
0.0611852
0.0809514
0.0840946
0.0816328
0.0161985
9.35457e-06
2.35928e-12
2.52311e-09
1.33625e-07
1.82548e-06
1.15408e-05
4.48529e-05
0.000126311
0.00029889
0.000648934
0.00137247
0.00269961
0.00524433
0.00899865
0.0152236
0.0224331
0.0337521
0.0434333
0.059911
0.0682478
0.0873784
0.0872035
0.0795415
0.0130117
6.5305e-06
2.53077e-12
2.74358e-09
1.48648e-07
2.07563e-06
1.35253e-05
5.43542e-05
0.000155455
0.00035593
0.000710747
0.00137801
0.00256424
0.00472998
0.00812059
0.0136602
0.020229
0.0306238
0.039526
0.0548196
0.0631547
0.0813094
0.0845298
0.0987515
0.069334
0.0104749
4.66094e-06
2.66471e-12
2.92839e-09
1.60997e-07
2.2952e-06
1.52855e-05
6.29787e-05
0.000186893
0.00043033
0.000843558
0.00148589
0.00261041
0.00442668
0.00758416
0.0120455
0.0191296
0.0265885
0.0384924
0.047223
0.0632479
0.0700009
0.0876876
0.0884025
0.100398
0.0654729
0.00760914
3.06535e-06
2.77157e-12
3.07128e-09
1.71221e-07
2.47423e-06
1.68102e-05
7.05878e-05
0.000214931
0.000509576
0.00101267
0.00173094
0.00282849
0.00444501
0.00725936
0.0110824
0.017568
0.0244398
0.0354451
0.043949
0.0588484
0.0658921
0.082939
0.0849741
0.100999
0.0913974
0.0665435
0.00529388
1.67558e-06
2.84641e-12
3.18293e-09
1.78966e-07
2.62198e-06
1.80161e-05
7.7339e-05
0.000238152
0.000583876
0.00117496
0.00207451
0.00321318
0.00487882
0.00712204
0.0109712
0.0157067
0.0236965
0.0311856
0.0435208
0.0515584
0.0670366
0.0724258
0.0891206
0.0889661
0.103887
0.0912704
0.0607071
0.00366661
9.12314e-07
2.88874e-12
3.25989e-09
1.84944e-07
2.73164e-06
1.90072e-05
8.25861e-05
0.000258708
0.000644814
0.00132431
0.00240093
0.00375436
0.00556754
0.00762963
0.0110189
0.0151659
0.0221308
0.029201
0.0406964
0.0485514
0.0634389
0.0689902
0.0853224
0.0861224
0.101703
0.0956723
0.100452
0.0497523
0.00242992
5.29785e-07
2.90767e-12
3.3026e-09
1.88957e-07
2.81345e-06
1.97612e-05
8.65779e-05
0.000276182
0.000691344
0.00146587
0.00264412
0.00436583
0.00629358
0.00882227
0.0114086
0.0157719
0.0205766
0.0288764
0.0362599
0.0488951
0.0560163
0.0713157
0.0751842
0.0911596
0.0899895
0.104807
0.0969529
0.0990033
0.0432587
0.00162506
2.19577e-07
2.91544e-12
3.31735e-09
1.91002e-07
2.8673e-06
2.03078e-05
8.96227e-05
0.000289142
0.000731234
0.00157346
0.00287456
0.00482956
0.00710496
0.010061
0.0127248
0.0167253
0.0206773
0.0280585
0.0344316
0.0464009
0.0533657
0.0681314
0.0724408
0.0880341
0.0876841
0.102632
0.0969227
0.108705
0.0873661
0.0391543
0.00114719
2.95452e-08
2.90975e-12
3.32189e-09
1.91438e-07
2.89339e-06
2.06255e-05
9.2111e-05
0.000297077
0.000768397
0.00163876
0.00311239
0.00511424
0.00796673
0.0109258
0.0147799
0.0178242
0.0227106
0.0269117
0.0354162
0.0417103
0.054621
0.0606116
0.0756466
0.0782304
0.0934818
0.0912845
0.105648
0.0985392
0.109365
0.0849476
0.0315313
0.000723505
5.20016e-09
2.88808e-12
3.31077e-09
1.91358e-07
2.89539e-06
2.07687e-05
9.34893e-05
0.000303836
0.000790998
0.00170292
0.00326299
0.00542161
0.00854072
0.0118462
0.0163341
0.0197849
0.0248465
0.0282169
0.0355702
0.0408278
0.0524231
0.0583864
0.0729139
0.0758868
0.0910163
0.0894144
0.103821
0.0977374
0.110794
0.0984557
0.0905008
0.0228772
0.000381588
1.1606e-08
2.85557e-12
3.28253e-09
1.90396e-07
2.88872e-06
2.07826e-05
9.37664e-05
0.000309335
0.000801122
0.00176834
0.00332672
0.00577479
0.00877793
0.0129976
0.0169504
0.0224821
0.0261072
0.0320252
0.0352147
0.0434544
0.0482179
0.0605444
0.0653211
0.0800027
0.0812433
0.0960217
0.0927205
0.10663
0.0993506
0.112107
0.0984306
0.0849603
0.0167884
0.000186039
4.90411e-09
2.81907e-12
3.24316e-09
1.88527e-07
2.86991e-06
2.07205e-05
9.36288e-05
0.000310734
0.000810574
0.00180137
0.00340646
0.00596188
0.0091189
0.0136335
0.0179024
0.0239846
0.0281789
0.0347885
0.0376972
0.045099
0.0484146
0.0594879
0.0634736
0.0777589
0.079294
0.0939523
0.091263
0.105137
0.0985022
0.111624
0.101688
0.109701
0.0700743
0.0118035
8.32161e-05
1.02216e-10
2.77814e-12
3.19969e-09
1.85989e-07
2.83989e-06
2.05428e-05
9.35271e-05
0.000308596
0.00081988
0.00179922
0.00352002
0.00596315
0.00963622
0.0136595
0.0193921
0.0241197
0.0312454
0.0353244
0.0427472
0.0451115
0.0532274
0.0557301
0.0673245
0.0700182
0.0843328
0.0841827
0.0984792
0.0942449
0.107666
0.100013
0.112984
0.102563
0.109106
0.0612388
0.00719916
3.41069e-05
4.87051e-11
2.73008e-12
3.15086e-09
1.83251e-07
2.79962e-06
2.03066e-05
9.27871e-05
0.000307329
0.000817882
0.00180456
0.00355283
0.00605204
0.00982437
0.0140076
0.0199967
0.0250167
0.032619
0.0370243
0.0453131
0.0478298
0.0559876
0.0572145
0.0674436
0.0691353
0.0824799
0.0826295
0.0967818
0.0930452
0.106509
0.0992821
0.112185
0.102816
0.115674
0.0957708
0.0551709
0.00397668
1.34906e-05
8.72879e-10
2.6807e-12
3.09459e-09
1.80262e-07
2.75477e-06
2.00332e-05
9.14639e-05
0.0003063
0.000807981
0.00182091
0.0035037
0.00623522
0.00968726
0.014731
0.0196639
0.0268729
0.0320312
0.0405729
0.0444648
0.0534316
0.0550901
0.0638148
0.0640849
0.0747459
0.0751045
0.0884717
0.087018
0.100824
0.0956857
0.108764
0.100649
0.113514
0.103961
0.117247
0.0918878
0.0420343
0.00204238
4.74981e-06
7.66965e-10
2.63404e-12
3.03725e-09
1.76881e-07
2.70767e-06
1.97148e-05
9.01245e-05
0.00030275
0.0008015
0.00181288
0.00349427
0.00624735
0.00975686
0.0149075
0.0199579
0.027413
0.0327672
0.0417253
0.0458312
0.0552888
0.0572487
0.0664678
0.0661553
0.0759229
0.0751543
0.0874356
0.0857841
0.0994672
0.0947171
0.107809
0.10007
0.112725
0.103389
0.117614
0.105725
0.0950094
0.0273288
0.000836067
3.38182e-06
1.62025e-11
2.58896e-12
2.98326e-09
1.73443e-07
2.65654e-06
1.935e-05
8.8925e-05
0.000296983
0.000798642
0.00177793
0.00353644
0.00609716
0.0100458
0.0145041
0.0209879
0.0265247
0.0351024
0.0401981
0.0498974
0.0531215
0.0630109
0.0638555
0.0734377
0.0720871
0.0822536
0.080358
0.0926693
0.0896798
0.103025
0.0970243
0.109787
0.101291
0.113987
0.104658
0.120053
0.105431
0.0839367
0.017095
0.000329877
1.38342e-06
1.08459e-11
2.54141e-12
2.93074e-09
1.70202e-07
2.60394e-06
1.89739e-05
8.73939e-05
0.000292398
0.000787581
0.00175889
0.00350997
0.00607201
0.0100201
0.0145217
0.0211053
0.0267614
0.0355088
0.040778
0.0507523
0.0541345
0.0643696
0.0651776
0.0752605
0.0737146
0.083651
0.0809191
0.0923902
0.088931
0.101938
0.0962834
0.109008
0.100801
0.113301
0.103889
0.118541
0.109532
0.115662
0.0632656
0.00955436
0.00016569
1.67814e-07
3.73962e-10
2.48763e-12
2.87605e-09
1.67085e-07
2.553e-06
1.86208e-05
8.55104e-05
0.000288852
0.000769984
0.00175587
0.00341859
0.00616124
0.00970971
0.0149865
0.020292
0.0281708
0.0339528
0.0436356
0.0482365
0.0587104
0.0609037
0.0713378
0.0708488
0.0810604
0.0784827
0.0886466
0.0851128
0.096848
0.0922854
0.105035
0.0982798
0.11073
0.101895
0.114519
0.105255
0.121438
0.11099
0.10972
0.0485815
0.00449867
6.12768e-05
4.33136e-08
2.76818e-10
2.43234e-12
2.81519e-09
1.63871e-07
2.50523e-06
1.82652e-05
8.38501e-05
0.000283508
0.000757688
0.00173115
0.00337675
0.0061031
0.00964687
0.0149321
0.020248
0.0281924
0.0340875
0.0439287
0.0486192
0.0593233
0.0615671
0.0722479
0.0717055
0.082002
0.0793088
0.0894683
0.0855086
0.096711
0.0921527
0.104247
0.0977803
0.110123
0.10149
0.11388
0.104449
0.119399
0.111363
0.124883
0.0892919
0.0358605
0.00211746
1.28551e-05
1.17993e-07
2.30138e-12
2.38865e-12
2.7528e-09
1.60274e-07
2.45702e-06
1.79018e-05
8.24839e-05
0.000276936
0.000749926
0.00168574
0.00338628
0.00590574
0.00982926
0.0143505
0.0210102
0.0268535
0.0359582
0.0415684
0.052109
0.0557706
0.0667219
0.0675887
0.0782466
0.0763774
0.0866118
0.0828813
0.0932372
0.0888623
0.100397
0.095005
0.106872
0.099521
0.11164
0.102496
0.115104
0.105983
0.122583
0.113611
0.122648
0.0766654
0.0213577
0.000894046
3.62342e-06
6.71572e-08
8.04638e-13
2.34687e-12
2.70219e-09
1.56673e-07
2.4032e-06
1.75527e-05
8.0969e-05
0.000271922
0.000736545
0.00165783
0.0033383
0.00583458
0.00972625
0.0142383
0.0208958
0.0267743
0.0358941
0.0415818
0.0522593
0.0560146
0.0670879
0.068009
0.0787801
0.0768696
0.0871336
0.0831066
0.0933815
0.0887481
0.100125
0.0948045
0.106701
0.0991926
0.111253
0.102225
0.114509
0.105102
0.120473
0.112683
0.129124
0.103865
0.066327
0.010623
0.000224571
1.53204e-06
1.12713e-09
9.95029e-12
2.3035e-12
2.65448e-09
1.53727e-07
2.34913e-06
1.71712e-05
7.94202e-05
0.000267114
0.000723836
0.0016301
0.00328639
0.00575894
0.00961786
0.0141051
0.0207466
0.0266458
0.0357981
0.0415176
0.0522705
0.0561371
0.0673366
0.0682771
0.0791762
0.0772153
0.0875307
0.0833325
0.0933892
0.0884666
0.0996511
0.094477
0.106238
0.0993224
0.110803
0.102138
0.114107
0.104517
0.118759
0.111009
0.129199
0.114559
0.105808
0.0427078
0.00484698
0.000118297
2.4229e-07
1.3691e-09
2.30952e-12
2.25794e-12
2.60537e-09
1.50951e-07
2.30449e-06
1.6792e-05
7.77402e-05
0.000262197
0.000711607
0.00160374
0.00323503
0.00567702
0.00950255
0.013965
0.020569
0.0264796
0.0356423
0.041421
0.0521983
0.0561374
0.0674598
0.0684577
0.0794277
0.0774668
0.0878078
0.0835109
0.0934574
0.0881345
0.0990476
0.0937503
0.105585
0.0991138
0.110866
0.102057
0.113945
0.104214
0.117507
0.109371
0.127418
0.116925
0.125629
0.0806396
0.0277072
0.00182982
1.27672e-05
3.90945e-08
5.06333e-08
3.16046e-14
2.21191e-12
2.55391e-09
1.48101e-07
2.2628e-06
1.64771e-05
7.60746e-05
0.000256879
0.000699094
0.00157837
0.00318599
0.00559599
0.00937778
0.0138159
0.0203827
0.0262827
0.0354415
0.0412661
0.0520889
0.0560711
0.0674548
0.0685425
0.0795957
0.0776166
0.0880145
0.0836277
0.0935189
0.0879675
0.0984638
0.0928721
0.104488
0.0985465
0.110465
0.102451
0.113744
0.104238
0.116686
0.108005
0.125283
0.11643
0.132227
0.104991
0.0683768
0.0134044
0.000540099
1.137e-05
8.65372e-09
6.39206e-08
1.69295e-14
2.16899e-12
2.50203e-09
1.45142e-07
2.22008e-06
1.61826e-05
7.46864e-05
0.000251624
0.000685617
0.00155239
0.00313876
0.00551862
0.00925414
0.0136541
0.0201839
0.0260759
0.0352041
0.0410685
0.0519154
0.0559707
0.0673852
0.068524
0.079672
0.0777149
0.0881345
0.0837097
0.0935542
0.0878606
0.0981203
0.0920714
0.10326
0.0973123
0.109591
0.102399
0.114106
0.104347
0.116339
0.10698
0.123253
0.115063
0.13291
0.115762
0.104381
0.0420847
0.00589921
0.000191506
1.93128e-07
1.61049e-08
1.00344e-09
8.88351e-14
2.13435e-12
2.45385e-09
1.42192e-07
2.17576e-06
1.58814e-05
7.33879e-05
0.000247229
0.000672313
0.0015244
0.00309041
0.00544396
0.00913601
0.0134941
0.0199684
0.0258555
0.0349546
0.0408353
0.0516946
0.0558133
0.0672777
0.0684631
0.0796471
0.0777502
0.088212
0.0837421
0.0935851
0.087769
0.0978801
0.0915659
0.102182
0.0958958
0.107937
0.101659
0.113859
0.104894
0.116031
0.1064
0.121485
0.113523
0.13167
0.119085
0.124783
0.0761517
0.0253038
0.0020113
5.84696e-05
1.52562e-08
1.96901e-08
9.53782e-10
3.36293e-14
2.10183e-12
2.41444e-09
1.39445e-07
2.13194e-06
1.55713e-05
7.20606e-05
0.000243113
0.000661144
0.00149685
0.00303823
0.00536722
0.00902189
0.0133407
0.0197552
0.0256155
0.0346882
0.0405908
0.0514347
0.0556164
0.067112
0.0683697
0.0795868
0.0777111
0.0882354
0.0837596
0.0935818
0.0876986
0.0976937
0.0912102
0.10149
0.0946928
0.106116
0.0998845
0.112752
0.104837
0.116137
0.105956
0.119975
0.112075
0.12985
0.119165
0.133098
0.101057
0.0593061
0.0115434
0.000528977
3.00149e-06
1.36709e-08
1.52401e-09
6.444e-08
1.92347e-15
2.0645e-12
2.37798e-09
1.37216e-07
2.09147e-06
1.5265e-05
7.07e-05
0.000238906
0.000650685
0.00147368
0.00298704
0.00528458
0.0089045
0.0131922
0.0195507
0.0253783
0.0343985
0.0403295
0.0511613
0.0553853
0.0669054
0.068229
0.0794905
0.077659
0.0881897
0.0837455
0.0935732
0.087618
0.0975629
0.090931
0.10099
0.0939034
0.104589
0.0979352
0.110349
0.103701
0.115451
0.105463
0.118574
0.110647
0.127936
0.11816
0.135158
0.114111
0.0942541
0.0325959
0.00408417
0.000120092
1.05882e-07
1.31608e-08
2.54253e-09
3.59509e-08
5.74246e-16
2.02379e-12
2.33741e-09
1.35139e-07
2.05842e-06
1.49835e-05
6.93564e-05
0.000234593
0.000639987
0.00145191
0.00294388
0.00520359
0.00877802
0.0130393
0.0193523
0.0251502
0.0341125
0.0400446
0.0508691
0.055143
0.0666633
0.0680581
0.0793491
0.0775768
0.0881406
0.0836878
0.0935398
0.0875572
0.0974347
0.0907237
0.100607
0.0933285
0.103575
0.0963534
0.10788
0.101061
0.113478
0.10443
0.11619
0.109506
0.125826
0.116812
0.134467
0.119311
0.118221
0.0624764
0.016247
0.00105405
1.4307e-05
4.09399e-07
3.04407e-10
1.34026e-07
2.40941e-10
1.06039e-15
1.98282e-12
2.29231e-09
1.32823e-07
2.02754e-06
1.47529e-05
6.81275e-05
0.000230364
0.000629046
0.00142962
0.00290322
0.00513512
0.00865421
0.0128743
0.0191476
0.024929
0.0338371
0.0397637
0.0505506
0.054884
0.066409
0.0678596
0.079179
0.0774616
0.088057
0.0836438
0.0934692
0.0874795
0.097339
0.0905404
0.100327
0.0928772
0.102829
0.0953022
0.105949
0.0985961
0.110133
0.102294
0.114223
0.106582
0.12388
0.11512
0.132831
0.120448
0.130503
0.0995827
0.0380677
0.00566256
0.000223435
2.38521e-06
2.44933e-06
1.99681e-11
5.94112e-07
9.41394e-11
2.42328e-16
1.9481e-12
2.24686e-09
1.30284e-07
1.99332e-06
1.45369e-05
6.71186e-05
0.00022649
0.000618313
0.00140684
0.00286159
0.00507046
0.00854936
0.0127128
0.0189266
0.0246996
0.0335689
0.0394926
0.0502369
0.0546011
0.0661376
0.0676517
0.078982
0.077328
0.0879451
0.0835714
0.0934246
0.087385
0.0972276
0.090407
0.100091
0.0925413
0.102253
0.0945135
0.104666
0.0969242
0.107747
0.0999447
0.11142
0.104917
0.11988
0.113397
0.130509
0.119743
0.135033
0.120453
0.066195
0.0187743
0.0014409
3.83797e-05
5.91301e-08
7.70963e-08
2.32947e-10
1.92837e-08
1.47668e-09
4.4804e-18
1.92464e-12
2.20811e-09
1.27751e-07
1.95604e-06
1.42983e-05
6.61703e-05
0.000223307
0.000608513
0.00138453
0.00281905
0.00500407
0.00845007
0.0125762
0.0187111
0.0244524
0.0332909
0.0392283
0.0499332
0.0543234
0.0658409
0.0674297
0.0787749
0.0771752
0.0878178
0.0834806
0.093342
0.0873307
0.0971205
0.0902574
0.0999206
0.0922586
0.101828
0.0938957
0.103701
0.0958315
0.106269
0.0986589
0.110261
0.102826
0.117267
0.110459
0.127836
0.118
0.13541
0.116217
0.101268
0.0396986
0.00626345
0.000301662
7.46477e-06
3.15738e-06
5.62162e-08
2.76782e-09
2.50773e-08
2.87256e-10
9.70109e-19
1.90321e-12
2.18127e-09
1.25605e-07
1.9191e-06
1.40399e-05
6.51258e-05
0.000220303
0.000600429
0.00136418
0.00277737
0.0049364
0.00834811
0.0124462
0.0185282
0.0242111
0.0329911
0.0389534
0.0496371
0.0540544
0.06555
0.0671868
0.0785545
0.0770154
0.087673
0.083383
0.0932464
0.0872377
0.0970559
0.0901594
0.0997265
0.092055
0.101479
0.0934317
0.102983
0.0949381
0.105242
0.0976108
0.109365
0.102223
0.115399
0.107442
0.124297
0.115708
0.133543
0.119396
0.120551
0.0661144
0.0186249
0.00151283
5.95517e-05
8.41121e-08
1.54825e-07
4.99478e-07
3.30996e-09
1.47225e-06
2.07216e-12
1.81043e-18
1.88018e-12
2.15768e-09
1.24129e-07
1.88796e-06
1.37851e-05
6.39989e-05
0.000216995
0.000592806
0.00134737
0.00273945
0.00487007
0.00824405
0.0123123
0.0183534
0.0240058
0.0326989
0.0386568
0.0493292
0.0537909
0.0652674
0.0669508
0.0783136
0.0768463
0.0875204
0.0832749
0.0931469
0.0871382
0.0969419
0.0900777
0.0996518
0.0918302
0.101222
0.093045
0.102436
0.0942745
0.104285
0.0967588
0.108223
0.101251
0.114405
0.106384
0.120105
0.112986
0.130475
0.134127
0.115495
0.0997735
0.0377898
0.00572288
0.000324093
9.12662e-06
5.68136e-07
2.00298e-07
8.63364e-08
8.81324e-09
9.00386e-07
4.6706e-13
3.06259e-19
1.85188e-12
2.13307e-09
1.22836e-07
1.86661e-06
1.3571e-05
6.28919e-05
0.000213447
0.000584401
0.00133141
0.00270814
0.00480971
0.00814225
0.0121755
0.0181736
0.02381
0.0324502
0.0383683
0.0489964
0.053516
0.0649906
0.066721
0.0780795
0.0766614
0.0873587
0.0831625
0.0930375
0.087041
0.0968269
0.0899697
0.09954
0.0917677
0.10096
0.0927551
0.101979
0.0937348
0.103508
0.0958425
0.107137
0.100133
0.113175
0.105462
0.11766
0.109737
0.12694
0.1314
0.117876
0.118477
0.0626313
0.0161471
0.00132358
5.82359e-05
3.83396e-08
8.45783e-08
7.40766e-06
5.98353e-10
7.81387e-07
5.38928e-09
1.78693e-12
5.03266e-21
1.81764e-12
2.10195e-09
1.21476e-07
1.84805e-06
1.34253e-05
6.19684e-05
0.00020998
0.000575409
0.00131388
0.00267827
0.00475968
0.00804953
0.012042
0.0179902
0.023607
0.0322114
0.0381226
0.0486734
0.0532199
0.0647018
0.066495
0.0778506
0.0764841
0.0871834
0.083043
0.092923
0.0869384
0.0967178
0.0898662
0.099423
0.0916273
0.100904
0.0925101
0.101627
0.0932635
0.102838
0.0950356
0.105944
0.0990003
0.111899
0.104498
0.117046
0.106323
0.122923
0.114196
0.131636
0.113174
0.0949546
0.032939
0.00449507
0.000275549
4.91207e-06
9.79532e-08
1.59023e-07
5.17042e-06
1.09379e-10
3.38771e-06
1.85649e-09
2.81036e-13
5.8348e-22
1.78428e-12
2.06545e-09
1.19765e-07
1.8284e-06
1.32987e-05
6.13372e-05
0.000207081
0.00056664
0.00129513
0.00264536
0.00471191
0.0079729
0.0119208
0.0178109
0.0233998
0.0319649
0.0378858
0.0483975
0.0529326
0.0643902
0.0662585
0.0776256
0.0763104
0.0870162
0.0829148
0.092808
0.086832
0.0966035
0.089773
0.0993141
0.0915161
0.100731
0.0924043
0.101396
0.0929233
0.102273
0.0943077
0.104896
0.0978174
0.11037
0.103237
0.116372
0.106081
0.118439
0.110993
0.128553
0.114965
0.113697
0.0556855
0.0123959
0.000989862
3.31642e-05
1.92216e-08
3.19587e-08
8.88094e-06
1.18601e-07
3.08803e-09
1.02742e-07
2.73054e-08
1.26561e-15
6.28372e-22
1.75384e-12
2.02865e-09
1.17765e-07
1.80379e-06
1.31645e-05
6.07913e-05
0.000205105
0.000559324
0.00127691
0.0026104
0.00465932
0.00789931
0.0118199
0.0176478
0.0231976
0.0317128
0.03764
0.0481304
0.0526873
0.0640883
0.0660044
0.0773899
0.0761388
0.0868509
0.0827949
0.0926908
0.0867312
0.0964865
0.0896779
0.0992185
0.0914154
0.100606
0.0922266
0.101218
0.0926837
0.101874
0.0937195
0.103936
0.0966605
0.108867
0.101752
0.114801
0.105568
0.116003
0.119818
0.111318
0.128322
0.108926
0.0862312
0.0258654
0.00312797
0.000165603
9.74815e-07
4.2017e-08
6.20129e-08
1.05643e-05
6.38655e-08
3.24563e-08
9.86663e-08
4.10751e-09
1.31118e-16
6.06697e-23
1.73453e-12
1.9955e-09
1.15761e-07
1.77506e-06
1.29955e-05
6.02149e-05
0.000203413
0.000554379
0.00126179
0.00257645
0.00460334
0.00781803
0.0117228
0.0175125
0.0230143
0.0314666
0.0373891
0.047854
0.0524487
0.0638305
0.0657594
0.0771373
0.075959
0.086687
0.0826764
0.0925816
0.086637
0.0963725
0.0895808
0.0991201
0.0913321
0.100497
0.0921055
0.101026
0.0924403
0.101529
0.0932531
0.103142
0.0956479
0.107308
0.100238
0.113062
0.104392
0.1156
0.115286
0.108315
0.125137
0.111043
0.105424
0.0455001
0.00837731
0.000598805
1.16652e-05
3.36857e-08
1.88954e-08
2.86481e-06
3.37278e-07
8.34197e-08
3.17214e-08
4.61719e-06
1.19843e-11
3.29197e-16
4.86803e-25
1.72374e-12
1.97433e-09
1.13981e-07
1.74645e-06
1.28013e-05
5.94865e-05
0.000201601
0.000550106
0.00125152
0.00254823
0.0045492
0.00773203
0.0116154
0.0173816
0.0228615
0.0312434
0.0371446
0.0475719
0.0522007
0.0635785
0.0655492
0.0768936
0.0757667
0.0865162
0.0825581
0.0924725
0.0865533
0.096261
0.0894822
0.0990246
0.0912446
0.100408
0.0920029
0.100889
0.0922494
0.101218
0.0928329
0.102471
0.0947506
0.105972
0.098737
0.111263
0.103073
0.114897
0.103063
0.116183
0.108446
0.124301
0.102918
0.0731008
0.0179503
0.00184763
6.77378e-05
1.5925e-08
2.76562e-08
2.83413e-08
5.52988e-06
3.34679e-07
5.00934e-11
1.1326e-07
1.90703e-06
1.34165e-12
2.73288e-17
3.19916e-26
1.71314e-12
1.96275e-09
1.12872e-07
1.72137e-06
1.26066e-05
5.86487e-05
0.000199325
0.000545558
0.00124273
0.00252922
0.00450434
0.00764877
0.011502
0.0172367
0.0227129
0.0310575
0.0369226
0.0472962
0.0519477
0.0633169
0.0653422
0.0766842
0.0755828
0.086335
0.0824332
0.0923639
0.0864697
0.0961616
0.0893829
0.0989271
0.0911635
0.100317
0.0919207
0.100775
0.0921094
0.100984
0.0924896
0.101904
0.0940189
0.104777
0.0974149
0.109481
0.101587
0.113839
0.102874
0.112675
0.10552
0.121614
0.106026
0.093528
0.0331278
0.00485543
0.000272854
1.75567e-06
1.75174e-08
1.26417e-08
5.62425e-07
3.09785e-07
4.22469e-06
1.08879e-09
1.20944e-05
7.5787e-09
3.44703e-12
6.94008e-20
2.05788e-26
1.69858e-12
1.95226e-09
1.12296e-07
1.70614e-06
1.24382e-05
5.78156e-05
0.000196721
0.000539832
0.00123328
0.00251289
0.00447421
0.00758009
0.0113925
0.0170839
0.0225484
0.0308763
0.0367377
0.0470465
0.0517012
0.0630499
0.0651273
0.0764777
0.0754252
0.0861616
0.0823023
0.0922507
0.0863847
0.0960609
0.0892988
0.0988263
0.0910819
0.100236
0.0918338
0.100681
0.0919946
0.100807
0.0922259
0.101446
0.0933853
0.103787
0.0962299
0.107851
0.10009
0.112437
0.113309
0.101004
0.113403
0.105714
0.119795
0.094673
0.0565445
0.0106182
0.000850056
1.76367e-05
1.32016e-08
3.80086e-08
1.58636e-08
1.23736e-06
4.40012e-07
1.38364e-06
8.31591e-09
1.81066e-05
1.41058e-09
2.32853e-13
3.8879e-21
9.9749e-28
1.67339e-12
1.93695e-09
1.11773e-07
1.69857e-06
1.23377e-05
5.71006e-05
0.000194126
0.000533268
0.00122136
0.00249531
0.00444826
0.00753402
0.0113023
0.0169371
0.0223754
0.0306754
0.0365561
0.046838
0.0514779
0.0627901
0.0649086
0.0762632
0.0752669
0.0860112
0.0821801
0.0921329
0.0862948
0.0959601
0.0892143
0.0987409
0.0910009
0.100153
0.0917619
0.10059
0.0918945
0.100659
0.0920299
0.101083
0.0928723
0.10294
0.0952352
0.106377
0.0986807
0.110897
0.112454
0.101148
0.110336
0.103117
0.118165
0.0997868
0.0774031
0.0208892
0.00222873
7.99954e-05
8.97267e-08
2.94122e-08
1.43981e-08
1.2861e-07
1.58658e-07
1.33106e-05
4.35359e-08
6.47186e-07
2.08053e-07
6.10478e-09
3.92089e-16
4.94792e-21
3.56335e-30
1.6435e-12
1.91049e-09
1.10969e-07
1.69174e-06
1.2291e-05
5.66844e-05
0.000191921
0.00052677
0.00120779
0.00247314
0.00442018
0.00749422
0.011242
0.0168159
0.0222093
0.0304643
0.0363545
0.0466325
0.0512911
0.0625543
0.064696
0.0760452
0.0751029
0.0858601
0.0820743
0.0920217
0.086203
0.0958565
0.0891269
0.098655
0.0909367
0.100069
0.0916904
0.100513
0.0918027
0.100531
0.0918551
0.100806
0.092456
0.102238
0.0943667
0.105129
0.0973531
0.109377
0.100782
0.111765
0.0992204
0.111238
0.103427
0.114741
0.0836613
0.0380455
0.00515789
0.00025234
2.11955e-06
1.63325e-08
5.52336e-08
1.75993e-08
2.47987e-07
2.82539e-07
1.1133e-05
2.93736e-10
7.98523e-06
9.058e-08
3.32756e-10
1.879e-17
1.88124e-22
1.6154e-31
1.61482e-12
1.87906e-09
1.09559e-07
1.68068e-06
1.22486e-05
5.64973e-05
0.000190657
0.000521286
0.00119436
0.0024479
0.00438477
0.00745118
0.0111899
0.0167353
0.0220729
0.0302621
0.0361435
0.0464051
0.0511059
0.0623566
0.0645036
0.0758336
0.074937
0.0857042
0.0819648
0.0919247
0.0861219
0.0957519
0.0890343
0.0985665
0.0908718
0.100004
0.0916204
0.10044
0.0917287
0.10042
0.0917146
0.100562
0.0921331
0.101649
0.0936349
0.104025
0.09623
0.10788
0.0997332
0.111314
0.0994731
0.108746
0.101224
0.114854
0.0919562
0.0577097
0.0107495
0.000720831
1.13747e-05
1.45585e-08
3.66265e-08
2.11424e-08
7.25001e-08
6.80488e-08
1.30228e-05
3.52641e-07
3.45722e-09
4.98075e-07
1.44249e-06
4.83075e-13
2.373e-17
2.08722e-25
4.00534e-32
1.5897e-12
1.84797e-09
1.07887e-07
1.66116e-06
1.2177e-05
5.63319e-05
0.000190131
0.000518212
0.00118311
0.00242299
0.00434459
0.00739685
0.0111332
0.0166657
0.0219822
0.0300961
0.0359418
0.0461676
0.0509
0.0621599
0.0643412
0.0756409
0.0747764
0.0855466
0.0818519
0.0918238
0.0860517
0.0956569
0.0889434
0.0984743
0.0908032
0.0999392
0.0915703
0.100367
0.0916566
0.100331
0.0915925
0.100367
0.0918467
0.101182
0.0930213
0.103095
0.0951743
0.106542
0.108739
0.100037
0.110463
0.0976141
0.109783
0.101168
0.108682
0.0694723
0.0212277
0.00187752
3.60929e-05
1.35635e-07
1.42737e-08
5.36571e-08
2.22702e-08
9.42287e-08
1.38154e-07
1.77908e-05
1.67831e-07
9.77834e-08
5.81588e-07
1.60398e-07
1.73836e-14
7.25089e-19
5.5755e-27
2.08365e-33
1.57109e-12
1.82103e-09
1.06225e-07
1.63765e-06
1.20465e-05
5.60353e-05
0.000189656
0.000516991
0.00117694
0.00240229
0.00430502
0.00733526
0.0110614
0.0165895
0.0219037
0.0299865
0.0357768
0.0459408
0.0506861
0.0619427
0.0641785
0.0754781
0.0746307
0.0853943
0.0817385
0.0917205
0.085973
0.0955732
0.0888676
0.098386
0.0907297
0.0998688
0.0915203
0.100314
0.0915876
0.100247
0.0914942
0.100201
0.0916219
0.100783
0.0925296
0.102303
0.0942808
0.105277
0.107454
0.0991649
0.110432
0.0979847
0.107472
0.0995061
0.110952
0.0815873
0.0368684
0.00422175
0.000127259
1.07573e-06
2.13314e-08
3.61152e-08
1.87137e-08
5.49382e-08
4.2638e-08
5.38275e-06
7.25781e-07
9.23469e-08
1.90343e-07
2.61788e-05
1.80868e-10
2.03518e-14
5.06142e-22
2.64256e-27
2.36398e-34
1.56451e-12
1.80128e-09
1.04828e-07
1.6145e-06
1.18901e-05
5.5487e-05
0.000188759
0.0005159
0.00117463
0.00239116
0.00427239
0.00727467
0.0109802
0.0164931
0.0218173
0.0298912
0.0356679
0.0457548
0.0504828
0.0617176
0.0639983
0.0753143
0.0745065
0.0852551
0.0816305
0.0916182
0.0858933
0.0954815
0.0888031
0.0983112
0.0906608
0.0997951
0.0914644
0.100259
0.091543
0.100165
0.0914047
0.100069
0.0914302
0.100458
0.0921032
0.101632
0.09351
0.104163
0.0964
0.108413
0.0993545
0.10927
0.0961615
0.108455
0.0986869
0.10092
0.0522741
0.00913326
0.000468483
1.27694e-06
6.7734e-08
2.15616e-08
3.96932e-08
1.81937e-08
5.96931e-08
7.66327e-08
1.18665e-05
6.39326e-07
6.75357e-09
6.59767e-07
7.75711e-06
6.55784e-12
5.08543e-16
9.35603e-24
4.85396e-29
4.12092e-35
1.56231e-12
1.79444e-09
1.03825e-07
1.59522e-06
1.17362e-05
5.48266e-05
0.000187079
0.000513725
0.00117255
0.00238724
0.00425523
0.00722499
0.0109007
0.0163842
0.0217075
0.0297858
0.0355728
0.0456317
0.0503169
0.0615032
0.0638126
0.0751347
0.0743795
0.0851355
0.0815321
0.0915207
0.0858154
0.0953897
0.0887252
0.0982475
0.09061
0.0997269
0.0914023
0.100201
0.0914983
0.100106
0.0913213
0.0999507
0.0912774
0.100187
0.0917588
0.101076
0.0928309
0.103178
0.095406
0.107206
0.0987478
0.109442
0.0965818
0.10638
0.097647
0.10539
0.068562
0.0193852
0.00112989
8.43376e-06
8.02402e-08
4.61928e-08
5.73596e-08
1.62292e-08
4.07156e-08
3.11169e-08
1.56878e-06
8.0528e-07
3.44221e-06
4.10972e-08
6.34222e-05
1.65292e-08
6.58521e-12
2.39618e-19
4.72291e-24
1.08777e-30
9.57969e-37
1.55847e-12
1.79347e-09
1.03561e-07
1.58206e-06
1.16103e-05
5.41783e-05
0.000185052
0.00050956
0.00116819
0.00238378
0.00424962
0.00719957
0.0108361
0.0162776
0.0215843
0.0296525
0.0354675
0.0455247
0.0502071
0.0613275
0.0636373
0.0749505
0.0742407
0.0850135
0.081447
0.0914303
0.0857427
0.0953008
0.0886463
0.0981697
0.0905693
0.0996761
0.0913459
0.100137
0.0914466
0.100051
0.091266
0.099839
0.0911418
0.0999653
0.0914673
0.100624
0.0922718
0.102345
0.0945023
0.106052
0.09791
0.109308
0.0972371
0.105219
0.0962036
0.107473
0.0797749
0.0356889
0.00285182
5.08367e-05
1.14549e-07
7.33969e-08
1.46243e-07
2.37591e-08
3.17046e-08
1.90798e-08
1.81645e-07
3.27529e-07
2.33448e-05
1.32591e-07
2.03094e-06
7.70582e-07
4.96968e-08
2.98007e-15
1.37659e-19
3.85807e-27
1.29165e-31