/*--------------------------------*- C++ -*----------------------------------*\
| =========                 |                                                 |
| \\      /  F ield         | OpenFOAM: The Open Source CFD Toolbox           |
|  \\    /   O peration     | Version:  v2012                                 |
|   \\  /    A nd           | Website:  www.openfoam.com                      |
|    \\/     M anipulation  |                                                 |
\*---------------------------------------------------------------------------*/
FoamFile
{
    version     2.0;
    format      ascii;
    class       volScalarField;
    location    "11500";
    object      I2;
}
// * * * * * * * * * * * * * * * * * * * * * * * * * * * * * * * * * * * * * //

dimensions      [0 0 0 0 0 0 0];


internalField   nonuniform List<scalar> 
53312
(
2.12086e-08
6.94408e-10
1.31533e-05
5.15696e-11
9.21075e-07
0.000238745
2.56894e-11
5.56042e-08
4.22862e-05
0.00132069
1.14021e-11
1.94912e-08
4.94729e-06
0.000277348
0.00341171
3.93422e-12
1.33013e-08
1.23593e-06
6.86079e-05
0.0012613
0.00358246
2.39693e-12
7.02006e-09
5.8088e-07
2.78482e-05
0.000274123
0.00545127
0.0020063
2.41715e-12
2.88482e-09
4.71336e-07
9.09234e-06
0.000184012
0.000972707
0.0113408
0.00154052
1.738e-12
1.95545e-09
2.95025e-07
5.07126e-06
9.49783e-05
0.000471271
0.00384341
0.0121969
0.0017122
8.7513e-13
2.12221e-09
1.34708e-07
4.85992e-06
3.64176e-05
0.000390563
0.0013219
0.0080256
0.0173179
0.00124519
6.84183e-13
1.61038e-09
9.81343e-08
3.37196e-06
2.37794e-05
0.000231637
0.00076353
0.00452212
0.00919376
0.034577
0.00059178
8.2601e-13
8.42316e-10
1.12339e-07
1.63752e-06
2.50625e-05
0.000102866
0.000715911
0.00179976
0.00862931
0.0143126
0.0404152
0.000417815
6.8596e-13
6.79697e-10
8.80943e-08
1.25585e-06
1.76431e-05
7.37556e-05
0.000492777
0.00116682
0.00548865
0.00936629
0.0317716
0.0279422
0.000438307
3.99785e-13
8.47702e-10
4.73551e-08
1.41942e-06
9.11402e-06
8.03535e-05
0.000239502
0.00125505
0.00242707
0.00967689
0.0141517
0.041969
0.0290215
0.000301449
3.70947e-13
7.3845e-10
3.88871e-08
1.11426e-06
7.01455e-06
6.31233e-05
0.00017815
0.00094113
0.0017765
0.00679223
0.00994802
0.0310327
0.0327954
0.0459172
0.000136861
5.66276e-13
4.56786e-10
4.57963e-08
6.14822e-07
8.3982e-06
3.29314e-05
0.000213788
0.00047448
0.00207324
0.00334016
0.0112448
0.0145151
0.040939
0.0386351
0.0443363
9.341e-05
6.47813e-13
4.63453e-10
4.24784e-08
4.986e-07
7.00775e-06
2.66416e-05
0.00017055
0.00038366
0.00161662
0.00262766
0.00869401
0.0110304
0.0311306
0.0322625
0.0701762
0.0263338
9.59652e-05
5.47189e-13
7.92154e-10
2.86558e-08
6.94545e-07
3.8685e-06
3.36813e-05
9.29238e-05
0.000469823
0.000875385
0.00319589
0.00455004
0.0136028
0.0155854
0.040513
0.0385036
0.077174
0.0241993
6.57411e-05
7.16703e-13
9.97663e-10
3.24757e-08
7.01205e-07
3.598e-06
2.83686e-05
7.88958e-05
0.000390375
0.000722161
0.00266101
0.00371391
0.0111563
0.0127497
0.0327081
0.0317166
0.0712602
0.0511622
0.0342553
2.92733e-05
1.36527e-12
8.6433e-10
6.08777e-08
5.26678e-07
5.44215e-06
1.76075e-05
0.000101351
0.000221867
0.000920165
0.00146644
0.00480421
0.00602565
0.0166148
0.0174352
0.0418787
0.0377653
0.0801415
0.0533722
0.030119
1.95567e-05
1.6535e-12
1.08845e-09
7.84017e-08
6.52457e-07
6.09842e-06
1.7719e-05
9.47706e-05
0.00019184
0.000795991
0.00125198
0.00408324
0.00517803
0.0140769
0.0149341
0.0357552
0.0323856
0.0699402
0.0543891
0.0883058
0.0167001
1.93725e-05
1.27798e-12
1.96119e-09
6.52825e-08
1.24792e-06
4.9868e-06
2.96586e-05
6.335e-05
0.00027123
0.000460577
0.00166001
0.00231464
0.00685938
0.0079304
0.0201129
0.019804
0.0448918
0.0382849
0.0789306
0.0583054
0.0888631
0.0141672
1.29549e-05
1.43824e-12
2.25711e-09
7.78464e-08
1.54424e-06
6.28682e-06
3.60557e-05
7.01885e-05
0.000272499
0.000433805
0.00146652
0.00204429
0.00600046
0.00694916
0.0177453
0.0174262
0.0397273
0.0341412
0.0705725
0.0538716
0.0998257
0.0544282
0.0181763
5.8584e-06
2.35928e-12
1.68207e-09
1.3365e-07
1.21698e-06
1.15618e-05
2.99032e-05
0.000127084
0.000199279
0.000658017
0.000914999
0.00277776
0.00349608
0.00948608
0.0101464
0.0243984
0.0224878
0.0488917
0.0398978
0.0793964
0.0581418
0.103934
0.0530923
0.0145218
4.08341e-06
2.53077e-12
1.82905e-09
1.48678e-07
1.38375e-06
1.3552e-05
3.62368e-05
0.00015651
0.000237313
0.000721156
0.000918768
0.00263645
0.00315323
0.00853697
0.00910525
0.0219061
0.0204057
0.0442327
0.0365135
0.0729681
0.0541241
0.100312
0.0656528
0.0821654
0.00730188
4.21771e-06
1.77647e-12
2.92847e-09
1.07332e-07
2.29708e-06
1.01903e-05
6.32488e-05
0.000124599
0.000435201
0.000562455
0.0015175
0.00174052
0.00459164
0.00505595
0.0128041
0.0127504
0.0291395
0.0256469
0.0534258
0.042123
0.0815399
0.0583632
0.105393
0.0667537
0.0774777
0.00535714
2.67098e-06
1.84771e-12
3.07137e-09
1.14148e-07
2.47634e-06
1.12068e-05
7.09091e-05
0.00014329
0.00051584
0.000675194
0.00177062
0.0018861
0.0046108
0.00483995
0.0117481
0.0117108
0.0266806
0.0236195
0.0494915
0.0391984
0.0763512
0.055215
0.100784
0.0671878
0.109724
0.0446797
0.00571927
1.03535e-06
2.84642e-12
2.12195e-09
1.79007e-07
1.74799e-06
1.80576e-05
5.15594e-05
0.000240151
0.00038926
0.00119702
0.00138322
0.00331414
0.00325349
0.00746086
0.00731488
0.0168399
0.0157956
0.0344454
0.0289989
0.0586615
0.0446484
0.0845634
0.0593243
0.106
0.0691076
0.109686
0.0408949
0.00389526
5.55658e-07
2.88875e-12
2.17326e-09
1.84987e-07
1.8211e-06
1.90523e-05
5.50577e-05
0.000260977
0.000429882
0.00135076
0.00160075
0.00388201
0.00371282
0.0080047
0.00734808
0.0162388
0.0147532
0.0321437
0.0271209
0.0550173
0.042258
0.0802052
0.0568076
0.102168
0.0676725
0.115173
0.0668434
0.0584568
0.00172549
3.98948e-07
1.93845e-12
3.30271e-09
1.25971e-07
2.816e-06
1.31742e-05
8.70173e-05
0.000184124
0.000701305
0.000977269
0.00271927
0.00291088
0.00657272
0.00588367
0.0120999
0.0105183
0.0222877
0.01925
0.040369
0.0325828
0.0640939
0.0475008
0.0880262
0.0606883
0.107216
0.0697336
0.116982
0.065914
0.0506306
0.00114754
1.28148e-07
1.94363e-12
3.31745e-09
1.27334e-07
2.86993e-06
1.35385e-05
9.00853e-05
0.000192763
0.000742092
0.001049
0.00295993
0.00321996
0.00744024
0.00670932
0.0135389
0.0111558
0.0223974
0.0187096
0.0382133
0.0309269
0.0608529
0.0453871
0.084531
0.0586176
0.104135
0.0682992
0.116603
0.0723358
0.105045
0.0267646
0.0011547
1.23942e-08
2.90975e-12
2.21459e-09
1.91483e-07
1.92892e-06
2.06764e-05
6.14072e-05
0.000299878
0.000512271
0.00167539
0.00207498
0.00531841
0.00531169
0.0115708
0.00985682
0.0191855
0.0151492
0.0294889
0.0236166
0.0467974
0.0364043
0.0697426
0.0503895
0.0918787
0.0622395
0.108841
0.0703018
0.118823
0.0727952
0.102087
0.0217094
0.000722166
1.0932e-09
2.88809e-12
2.20718e-09
1.91403e-07
1.93026e-06
2.08202e-05
6.2326e-05
0.000306732
0.000527335
0.00174176
0.00217539
0.00564491
0.00569419
0.0125769
0.0108918
0.0213817
0.0165741
0.0309765
0.0237271
0.0457422
0.0349469
0.0669925
0.0485789
0.0888814
0.0606068
0.106334
0.0690996
0.117507
0.0737189
0.119448
0.060439
0.0263985
0.000262367
1.24792e-10
1.90371e-12
3.28263e-09
1.26931e-07
2.89138e-06
1.3855e-05
9.42615e-05
0.000206222
0.000813582
0.0011789
0.00343349
0.00385
0.00924194
0.00866576
0.0182128
0.014992
0.0285494
0.0213645
0.0390946
0.0289885
0.0545783
0.0403607
0.075577
0.0532981
0.0957144
0.0639345
0.110663
0.0709644
0.119704
0.0746015
0.119618
0.0568445
0.019315
0.000126362
7.34476e-12
1.87938e-12
3.24326e-09
1.25684e-07
2.87255e-06
1.38136e-05
9.41227e-05
0.000207155
0.00082326
0.00120091
0.00351713
0.00397469
0.0096111
0.00908955
0.0192763
0.0159927
0.0309247
0.0232054
0.0419924
0.0300915
0.0547936
0.0396737
0.0732516
0.0518191
0.0932105
0.0625677
0.108705
0.0699829
0.118426
0.0742733
0.123354
0.0731366
0.083621
0.00846322
8.34104e-05
1.26716e-13
2.77814e-12
2.13313e-09
1.86033e-07
1.89326e-06
2.05934e-05
6.2351e-05
0.000311562
0.000546583
0.00184143
0.00234667
0.00622155
0.00642435
0.0145702
0.012929
0.0262885
0.0208349
0.0392122
0.0285163
0.0507774
0.0355184
0.0636669
0.0449022
0.0814216
0.0561974
0.099479
0.0655773
0.112617
0.0716617
0.120479
0.0751816
0.124682
0.0728038
0.0726773
0.00528697
3.43441e-05
6.97458e-18
2.73008e-12
2.10057e-09
1.83294e-07
1.86641e-06
2.03565e-05
6.18577e-05
0.000310277
0.000545249
0.00184697
0.00236854
0.00631632
0.00654969
0.0149543
0.013332
0.0273128
0.0217493
0.0412128
0.0302206
0.0540367
0.0373598
0.0654292
0.0450035
0.0802902
0.0549835
0.0974696
0.0644624
0.111007
0.0709007
0.119385
0.0746533
0.124584
0.0770442
0.116821
0.0373765
0.00456169
9.07408e-06
4.84173e-15
1.78713e-12
3.09468e-09
1.20175e-07
2.75726e-06
1.33554e-05
9.19418e-05
0.000204199
0.000820611
0.00121392
0.00361926
0.00415679
0.0102273
0.00982088
0.0212537
0.0179166
0.0353887
0.0270532
0.0500225
0.0356368
0.0628137
0.0425868
0.0738802
0.0498804
0.0878064
0.0589777
0.103125
0.0671505
0.11448
0.0723969
0.121243
0.075539
0.126241
0.0781377
0.111924
0.0287322
0.00232889
3.28837e-06
5.28217e-14
1.75603e-12
3.03734e-09
1.1792e-07
2.71009e-06
1.31432e-05
9.05921e-05
0.000201833
0.000813985
0.00120857
0.00360936
0.00416485
0.0103029
0.00993835
0.0215847
0.0182763
0.0362473
0.0278202
0.0516622
0.0368712
0.0654506
0.0443489
0.0764088
0.0506765
0.0878075
0.0583231
0.101491
0.066273
0.113181
0.0717744
0.120372
0.0750208
0.125198
0.0783042
0.129612
0.063662
0.0316794
0.000697976
1.70417e-06
1.66973e-13
2.58896e-12
1.98884e-09
1.73482e-07
1.77102e-06
1.93964e-05
5.92832e-05
0.000299788
0.000532425
0.00181942
0.00235759
0.00636459
0.00669711
0.0155032
0.013992
0.0290413
0.0234029
0.0449682
0.0332695
0.0604513
0.0420224
0.0735733
0.0490018
0.0838039
0.0549062
0.0944094
0.0618164
0.106535
0.0686407
0.116223
0.0730863
0.122033
0.0758613
0.127003
0.0799598
0.129529
0.0563592
0.0196613
0.000289683
5.01801e-07
1.92088e-13
2.54141e-12
1.95383e-09
1.7024e-07
1.73596e-06
1.90188e-05
5.82623e-05
0.000295137
0.000525052
0.00179973
0.00233994
0.0063378
0.00667992
0.015523
0.0140701
0.029313
0.0236734
0.0456577
0.0338384
0.0616904
0.0429235
0.075235
0.0502033
0.0858364
0.0558404
0.0949913
0.0616696
0.105506
0.0679528
0.115223
0.0725867
0.121303
0.0754083
0.125759
0.0789106
0.134324
0.0773343
0.0752406
0.00699548
0.000169819
7.93746e-08
1.04211e-13
1.65842e-12
2.87613e-09
1.1139e-07
2.55522e-06
1.24138e-05
8.59419e-05
0.000192566
0.000781741
0.00117057
0.00353003
0.00410742
0.010252
0.00999079
0.0219621
0.0187804
0.0376334
0.0290915
0.0545649
0.0391447
0.0699774
0.0475711
0.0822999
0.0540744
0.0918362
0.0591794
0.100337
0.0646489
0.109858
0.0700162
0.117864
0.07373
0.122795
0.0762185
0.127681
0.0808612
0.136601
0.0734921
0.0568831
0.00345739
6.15073e-05
1.60238e-08
1.51069e-14
1.62156e-12
2.81527e-09
1.09247e-07
2.50739e-06
1.21768e-05
8.42693e-05
0.000189004
0.000769158
0.00115408
0.00348614
0.00406867
0.010184
0.00995448
0.0219126
0.0187947
0.037792
0.0292862
0.0550293
0.0395519
0.0708046
0.0481739
0.0833904
0.0546927
0.0929152
0.0597052
0.100769
0.0645712
0.109569
0.0695429
0.117142
0.0733607
0.122193
0.0758028
0.126423
0.0794844
0.136524
0.0833915
0.108917
0.0244
0.00235995
1.30893e-05
3.57674e-09
4.39146e-15
2.38865e-12
1.8352e-09
1.60309e-07
1.63801e-06
1.79431e-05
5.4989e-05
0.00027946
0.000499944
0.00172403
0.00225749
0.00616078
0.00655273
0.0153342
0.0140064
0.0294205
0.0239718
0.046601
0.03474
0.0637027
0.0444849
0.0782705
0.0521743
0.0892681
0.0577686
0.0974468
0.0622223
0.105048
0.0670366
0.113272
0.0712945
0.119448
0.074369
0.123566
0.0766173
0.128562
0.0816225
0.139836
0.0820294
0.09252
0.0147124
0.000965779
3.86809e-06
3.04364e-10
1.46397e-14
2.34687e-12
1.80146e-09
1.56707e-07
1.60213e-06
1.75928e-05
5.39791e-05
0.000274378
0.000491025
0.00169517
0.00222549
0.00608492
0.00648407
0.0152106
0.0139302
0.0293299
0.0239289
0.0466188
0.0348396
0.0640037
0.0447278
0.0788035
0.0525271
0.0899068
0.0581072
0.0977779
0.0622983
0.104883
0.066845
0.112826
0.0712341
0.118897
0.0741586
0.123152
0.0762394
0.12724
0.0801996
0.138137
0.0861442
0.128175
0.0447628
0.0119949
0.000232976
1.54897e-06
2.56487e-12
4.04468e-14
2.3035e-12
1.76965e-09
1.5376e-07
1.56609e-06
1.721e-05
5.29466e-05
0.000269505
0.000482553
0.00166651
0.00219088
0.00600434
0.00641176
0.0150637
0.0138308
0.0291833
0.0238646
0.0465429
0.0348467
0.0641569
0.0448923
0.0791471
0.0527888
0.0903605
0.0583656
0.098091
0.0622905
0.10457
0.0665037
0.11225
0.0709429
0.118915
0.0739167
0.122944
0.0760102
0.126354
0.079058
0.135565
0.0861026
0.141859
0.0710921
0.0496323
0.00356126
0.000111517
2.24436e-07
1.90468e-13
3.49473e-14
2.25794e-12
1.73692e-09
1.50983e-07
1.53633e-06
1.68295e-05
5.18266e-05
0.000264522
0.0004744
0.00163927
0.00215665
0.00591717
0.00633485
0.0149089
0.0137124
0.0289934
0.0237608
0.0464289
0.0347981
0.0641609
0.0449734
0.0793781
0.0529552
0.0906922
0.0585466
0.0983399
0.0623247
0.104197
0.0660776
0.111301
0.0704872
0.118417
0.0740205
0.122676
0.0759528
0.125869
0.0782383
0.133153
0.0848662
0.144463
0.0840639
0.0978604
0.0188957
0.00213629
2.12772e-05
3.78615e-08
2.77898e-12
1.1955e-14
2.21191e-12
1.70261e-09
1.48132e-07
1.50853e-06
1.65135e-05
5.07162e-05
0.000259134
0.000466058
0.00161305
0.00212396
0.00583099
0.00625167
0.0147444
0.0135881
0.0287681
0.0236269
0.0462464
0.0347248
0.0640808
0.0449696
0.0794896
0.0530655
0.0908961
0.0586816
0.0985102
0.0623581
0.104011
0.065674
0.110223
0.0697277
0.117506
0.0737617
0.123039
0.0758758
0.125785
0.07773
0.131165
0.0834265
0.143328
0.0882875
0.129757
0.046219
0.0149739
0.000490686
8.26831e-06
5.36735e-09
8.07071e-13
4.2782e-15
2.16899e-12
1.66802e-09
1.45172e-07
1.48005e-06
1.62181e-05
4.97908e-05
0.00025381
0.000457074
0.00158622
0.00209248
0.00574872
0.00616927
0.0145662
0.0134555
0.0285311
0.0234687
0.0460128
0.0346091
0.0639592
0.0449225
0.0794723
0.053115
0.0910289
0.0587602
0.0986331
0.0623773
0.103899
0.0654325
0.109249
0.0688823
0.115895
0.0731559
0.122697
0.0761899
0.125705
0.0775525
0.129673
0.0820789
0.141158
0.0886295
0.143727
0.0701883
0.0489114
0.00417845
0.000211635
1.03342e-06
6.08552e-10
9.27615e-18
1.8073e-15
2.13435e-12
1.6359e-09
1.42221e-07
1.45051e-06
1.59159e-05
4.89251e-05
0.000249358
0.000448205
0.00155732
0.00206024
0.00566935
0.00609052
0.0143899
0.0133118
0.0282787
0.0233022
0.0457369
0.0344618
0.0637689
0.0448503
0.0793982
0.0530978
0.091082
0.0588099
0.0986942
0.0623948
0.103807
0.065264
0.108627
0.0681494
0.114118
0.0720194
0.121563
0.0760219
0.126291
0.0773986
0.128758
0.0809366
0.138841
0.0877474
0.147646
0.0836224
0.0919701
0.0172733
0.00149936
5.21054e-05
1.11538e-07
2.02511e-11
2.37811e-13
4.76319e-16
2.10183e-12
1.60963e-09
1.39474e-07
1.42129e-06
1.56048e-05
4.80403e-05
0.000245189
0.00044076
0.00152888
0.00202546
0.00558782
0.00601444
0.0142211
0.0131697
0.0280045
0.0231245
0.0454469
0.0342885
0.0635297
0.0447396
0.079283
0.0530568
0.091041
0.0588239
0.0987283
0.0623914
0.10374
0.0651351
0.108196
0.0676746
0.112622
0.0707763
0.11924
0.0752549
0.125918
0.0775482
0.127877
0.0799864
0.13671
0.0865175
0.147293
0.0889822
0.124669
0.0401413
0.00796878
0.000629129
1.02119e-05
1.11053e-08
7.35729e-14
9.28612e-13
8.62163e-17
2.0645e-12
1.58532e-09
1.37244e-07
1.39431e-06
1.52975e-05
4.71332e-05
0.000240929
0.000433787
0.00150496
0.00199133
0.0055001
0.00593618
0.0140577
0.0130334
0.0277336
0.0229314
0.0451374
0.034106
0.0632487
0.0446017
0.0791103
0.0529918
0.0909784
0.0587928
0.0987219
0.0623836
0.103662
0.0650448
0.107866
0.0673332
0.111629
0.0697448
0.116762
0.0736134
0.12426
0.077086
0.127088
0.0790906
0.134627
0.085265
0.145579
0.0902319
0.141839
0.0635053
0.0373584
0.0028859
0.000143473
1.56305e-06
1.08189e-09
5.60069e-17
9.1079e-14
2.41512e-17
2.02379e-12
1.55827e-09
1.35166e-07
1.37228e-06
1.50151e-05
4.62374e-05
0.000236561
0.000426655
0.00148249
0.00196256
0.00541413
0.00585187
0.0138896
0.0129011
0.027473
0.0227407
0.0448004
0.0339111
0.0629529
0.0444403
0.0788987
0.0528971
0.0908764
0.0587592
0.0986595
0.0623597
0.103599
0.0649587
0.107627
0.0670734
0.110915
0.0690566
0.114766
0.0719361
0.120807
0.0757246
0.125481
0.0775882
0.132775
0.0839151
0.143496
0.0897096
0.148396
0.0793999
0.0743377
0.0111569
0.00118614
2.36109e-05
3.43814e-08
7.37455e-11
6.63676e-20
2.10455e-17
9.57749e-18
1.98282e-12
1.52821e-09
1.3285e-07
1.3517e-06
1.47838e-05
4.54182e-05
0.000232279
0.000419361
0.0014595
0.00193545
0.00534146
0.00576934
0.0137084
0.0127646
0.0272205
0.0225571
0.0444682
0.0336987
0.0626374
0.0442706
0.0786526
0.0527834
0.0907339
0.0587024
0.0986088
0.0623119
0.103514
0.0648928
0.107422
0.0668841
0.110366
0.0685516
0.113425
0.0706373
0.117636
0.0734483
0.122472
0.0762741
0.128717
0.0826612
0.141019
0.0886149
0.149491
0.0874453
0.0670706
0.0439418
0.00395992
0.000266129
7.65593e-06
1.56533e-11
8.14768e-13
7.85923e-13
8.24999e-14
2.5082e-18
1.9481e-12
1.49791e-09
1.3031e-07
1.32888e-06
1.45671e-05
4.47456e-05
0.000228357
0.000412206
0.00143601
0.0019077
0.00527286
0.00569945
0.013531
0.0126174
0.0269589
0.0223783
0.0441474
0.0334896
0.062293
0.0440894
0.0783937
0.0526521
0.090567
0.0586273
0.0985191
0.0622816
0.103406
0.064817
0.107269
0.0667267
0.109964
0.0681641
0.112433
0.0697716
0.115511
0.0718248
0.119405
0.0743387
0.126344
0.0800332
0.13845
0.0871169
0.148194
0.0903513
0.0809226
0.0790571
0.0128652
0.00159326
3.99248e-05
1.33919e-07
2.50268e-15
2.14634e-15
4.78366e-11
7.84697e-13
3.80773e-19
1.92464e-12
1.47207e-09
1.27776e-07
1.30402e-06
1.43278e-05
4.41135e-05
0.000225134
0.000405672
0.001413
0.00187934
0.00520248
0.00563325
0.0133809
0.0124737
0.0266774
0.022193
0.043835
0.0332871
0.0619546
0.0438916
0.0781174
0.0525139
0.0903757
0.0585419
0.0984075
0.0622252
0.103346
0.0647447
0.107096
0.0666111
0.109636
0.0678788
0.11167
0.0691217
0.114105
0.0708322
0.11775
0.073513
0.123321
0.0783433
0.13415
0.0853869
0.145623
0.0905542
0.14489
0.0682255
0.0458968
0.00436831
0.000345904
1.12072e-05
1.3131e-10
4.7991e-14
1.65929e-13
1.44069e-10
7.0797e-13
6.98668e-20
1.90321e-12
1.45418e-09
1.25629e-07
1.2794e-06
1.40685e-05
4.34171e-05
0.000222094
0.000400284
0.00139202
0.00185155
0.00513076
0.00556528
0.0132382
0.0123517
0.0264025
0.0219932
0.0435107
0.0330897
0.0616266
0.0436976
0.0778157
0.0523668
0.0901751
0.0584453
0.0982853
0.0621607
0.10323
0.0647019
0.106984
0.0664807
0.109394
0.0676471
0.111104
0.0686412
0.112977
0.0701391
0.116428
0.0728831
0.122459
0.0770023
0.130061
0.0830358
0.142328
0.0893436
0.148939
0.0810891
0.078941
0.0127553
0.00166244
5.25821e-05
1.13126e-07
2.37063e-15
1.38667e-13
1.43948e-13
1.28138e-10
1.16199e-13
1.88097e-20
1.88018e-12
1.43845e-09
1.24153e-07
1.25864e-06
1.38131e-05
4.26658e-05
0.000218745
0.000395201
0.0013747
0.00182628
0.00506049
0.00549591
0.0130915
0.0122352
0.0261686
0.0217984
0.0431613
0.0328844
0.0613058
0.0435091
0.0775211
0.0522063
0.0899622
0.0583437
0.0981505
0.0620938
0.103107
0.0646243
0.106894
0.0664299
0.109127
0.0674744
0.110646
0.0682754
0.112155
0.0694975
0.115327
0.0721185
0.121212
0.076258
0.128363
0.0802559
0.138324
0.087348
0.0899234
0.144337
0.0673074
0.043547
0.00399292
0.00036526
1.03866e-05
1.99798e-09
7.41853e-11
4.3239e-12
1.19532e-14
1.43102e-11
2.35284e-14
3.02979e-21
1.85188e-12
1.42204e-09
1.22859e-07
1.2444e-06
1.35982e-05
4.19278e-05
0.000215154
0.000389598
0.00135825
0.0018054
0.00499656
0.00542804
0.0129415
0.0121154
0.0259456
0.0216326
0.0428207
0.0326628
0.060972
0.0433246
0.0772341
0.0520499
0.0897297
0.0582359
0.0980097
0.0620209
0.102986
0.0645466
0.106759
0.0663568
0.109066
0.0672987
0.110296
0.0679731
0.111492
0.0689795
0.114168
0.0713867
0.119792
0.0754058
0.126845
0.0785696
0.133673
0.0849899
0.0881526
0.147604
0.0799086
0.074528
0.0110679
0.00144952
4.94111e-05
3.97536e-08
9.15827e-11
3.83208e-10
1.15946e-11
1.05454e-11
1.17744e-14
5.50093e-15
2.86265e-22
1.81764e-12
1.4013e-09
1.215e-07
1.23204e-06
1.34521e-05
4.13122e-05
0.000211646
0.000383603
0.0013402
0.00178549
0.00494359
0.00536623
0.0127952
0.0119931
0.0257149
0.0214734
0.0425307
0.0324474
0.0606129
0.0431321
0.0769526
0.0518972
0.089504
0.058119
0.0978599
0.0619449
0.102858
0.0644732
0.106631
0.0662769
0.108902
0.067262
0.110001
0.0677378
0.110927
0.0685331
0.113157
0.0705887
0.118314
0.0745534
0.125603
0.0780099
0.128745
0.082286
0.141285
0.0885967
0.142109
0.0642388
0.037684
0.00314631
0.000307569
5.40579e-06
6.35116e-10
5.6447e-12
1.04958e-10
2.10919e-12
1.49792e-10
2.55128e-13
7.07656e-16
3.54272e-23
1.78428e-12
1.37697e-09
1.19787e-07
1.21893e-06
1.33251e-05
4.08914e-05
0.000208712
0.000377757
0.00132087
0.00176355
0.00489302
0.00531515
0.0126625
0.0118735
0.0254794
0.0213091
0.0422516
0.0322634
0.0602634
0.0429246
0.0766591
0.0517471
0.0892831
0.0580071
0.0976977
0.0618684
0.102726
0.0643971
0.106515
0.0662032
0.108765
0.067148
0.109894
0.0675829
0.110508
0.0681595
0.112247
0.069892
0.116794
0.073527
0.12401
0.077531
0.127949
0.0791685
0.136585
0.0865221
0.144786
0.077141
0.0658579
0.00851974
0.00108655
2.90505e-05
1.1846e-08
6.85803e-11
2.02653e-10
6.92469e-15
2.39743e-13
3.00919e-10
3.37713e-12
5.25112e-17
5.89018e-24
1.75384e-12
1.35243e-09
1.17787e-07
1.20252e-06
1.31906e-05
4.05274e-05
0.000206713
0.00037288
0.00130212
0.00174024
0.0048374
0.00526609
0.012552
0.0117648
0.0252497
0.021141
0.0419623
0.0320854
0.0599645
0.0427233
0.0763443
0.0515901
0.0890662
0.0578967
0.0975426
0.0617903
0.102601
0.0643199
0.106398
0.0661386
0.108641
0.067063
0.109684
0.0674679
0.11023
0.0678931
0.111527
0.0692517
0.115325
0.0725228
0.12205
0.0764881
0.12728
0.0773858
0.0802153
0.137939
0.0867886
0.13774
0.0587251
0.0293113
0.00220242
0.00018723
1.30889e-06
5.77879e-11
7.35772e-15
7.69447e-11
5.29204e-14
2.38922e-13
1.88172e-10
3.78635e-12
6.24838e-18
5.25806e-25
1.73453e-12
1.33034e-09
1.15783e-07
1.18338e-06
1.30211e-05
4.01432e-05
0.000205001
0.000369584
0.00128654
0.00171761
0.00477819
0.00521191
0.0124457
0.0116746
0.0250414
0.0209769
0.041667
0.0319012
0.0596745
0.0425512
0.0760389
0.0514219
0.08884
0.0577874
0.0973897
0.0617169
0.102482
0.0642444
0.106279
0.0660736
0.108537
0.0669896
0.109534
0.0673414
0.109946
0.0676658
0.110948
0.0687276
0.114033
0.071487
0.120099
0.0753199
0.125775
0.0770307
0.0769621
0.133216
0.0845368
0.140814
0.0722461
0.0534769
0.00579653
0.000663949
1.12752e-05
1.50953e-08
1.99755e-12
1.68546e-13
3.63329e-11
6.27701e-11
7.34016e-13
2.10459e-11
5.35098e-13
8.25261e-19
2.71825e-26
1.72374e-12
1.31622e-09
1.14002e-07
1.1643e-06
1.28262e-05
3.96576e-05
0.000203168
0.000366735
0.00127597
0.0016988
0.00472094
0.00515458
0.0123284
0.0115873
0.0248679
0.0208281
0.0413793
0.0317131
0.0593739
0.0423833
0.0757759
0.0512595
0.0885985
0.0576737
0.097239
0.0616439
0.102372
0.0641701
0.106158
0.0660111
0.108434
0.0669293
0.109409
0.0672484
0.10972
0.0674618
0.110437
0.0682817
0.112906
0.0705973
0.118162
0.0741178
0.124033
0.0765616
0.124328
0.0776848
0.134497
0.0845668
0.131154
0.0503494
0.0202139
0.00131635
7.91949e-05
3.88726e-08
5.38259e-11
6.50597e-15
4.64979e-13
1.13873e-11
2.28813e-11
7.23353e-11
8.87573e-22
4.98099e-14
6.22823e-20
1.81085e-27
1.71314e-12
1.3085e-09
1.12893e-07
1.14758e-06
1.2631e-05
3.9099e-05
0.000200866
0.000363703
0.00126692
0.00168613
0.00467351
0.00509907
0.0122044
0.0114908
0.0246994
0.0207041
0.041118
0.0315293
0.0590671
0.0422089
0.0755183
0.0511196
0.0883651
0.0575532
0.0970812
0.0615715
0.102263
0.0641031
0.106032
0.0659467
0.108337
0.0668702
0.109306
0.0671715
0.109549
0.0673082
0.110023
0.0679074
0.111976
0.0698074
0.116447
0.0729303
0.122103
0.0758492
0.124111
0.0751672
0.129408
0.0824442
0.135478
0.0649398
0.0386826
0.00342804
0.000302418
2.07532e-06
1.81958e-10
2.59794e-13
7.73017e-14
1.91255e-12
6.12936e-15
9.83655e-12
3.47867e-10
2.97205e-12
5.19453e-15
2.65831e-21
1.49473e-28
1.69858e-12
1.3015e-09
1.12316e-07
1.13743e-06
1.24622e-05
3.85436e-05
0.000198231
0.000359886
0.00125719
0.00167523
0.00464165
0.00505329
0.0120848
0.011389
0.0245131
0.0205833
0.0409004
0.0313628
0.0587682
0.042031
0.075252
0.0509819
0.0881633
0.0574375
0.0969161
0.0614962
0.102154
0.0640355
0.10592
0.0658798
0.108238
0.0668171
0.109208
0.0671085
0.109406
0.0671898
0.109705
0.0676064
0.111188
0.0691493
0.114918
0.0718452
0.120135
0.074916
0.0755162
0.12186
0.0757846
0.130917
0.0820234
0.121502
0.0394998
0.0119703
0.00062916
1.97898e-05
1.14463e-08
2.08372e-12
6.26458e-17
1.63611e-12
3.74037e-12
9.03047e-13
7.26277e-13
4.68054e-10
9.03328e-12
3.17245e-16
1.46055e-22
6.57258e-30
1.6734e-12
1.2913e-09
1.11793e-07
1.13238e-06
1.23613e-05
3.8067e-05
0.000195607
0.00035551
0.00124493
0.00166352
0.00461423
0.00502257
0.0119861
0.011291
0.024317
0.0204495
0.0406872
0.0312238
0.058497
0.0418578
0.0749805
0.0508391
0.087963
0.0573368
0.0967584
0.0614181
0.102041
0.0639684
0.105809
0.0658219
0.108136
0.066763
0.109123
0.0670498
0.109287
0.0670898
0.109458
0.0673682
0.11055
0.0685879
0.113634
0.0708655
0.118278
0.0738898
0.0749465
0.122049
0.0736364
0.126339
0.0802412
0.128433
0.0545745
0.0241891
0.00165192
9.18932e-05
1.57776e-07
2.36295e-11
2.01923e-15
5.90811e-13
1.32854e-12
7.20031e-12
8.58449e-11
9.51239e-13
5.01321e-11
5.72351e-12
1.24597e-17
9.22134e-24
1.56717e-31
1.6435e-12
1.27366e-09
1.10989e-07
1.12782e-06
1.23144e-05
3.77895e-05
0.000193376
0.000351178
0.00123097
0.00164874
0.00458458
0.00499604
0.0119201
0.0112103
0.0241288
0.0203087
0.0404509
0.0310868
0.05827
0.0417005
0.0747164
0.0506938
0.0877567
0.0572361
0.0966199
0.0613437
0.101925
0.0638996
0.105698
0.0657642
0.10805
0.0667076
0.109039
0.0670004
0.109181
0.067006
0.109245
0.0671819
0.110032
0.0681245
0.112527
0.0700337
0.116553
0.0728693
0.121389
0.0745158
0.11976
0.0743922
0.128111
0.0789491
0.107693
0.0270137
0.00586498
0.000208282
2.38751e-06
4.40846e-10
7.46018e-15
6.81265e-19
1.66874e-11
1.10635e-13
2.7294e-12
2.1347e-11
2.89114e-11
4.40371e-20
4.71321e-13
5.14715e-19
3.20061e-25
4.57687e-33
1.61482e-12
1.2527e-09
1.09579e-07
1.12045e-06
1.22719e-05
3.76648e-05
0.000192098
0.000347521
0.00121714
0.00163192
0.0045472
0.00496735
0.0118633
0.0111565
0.0239742
0.0201739
0.0402034
0.0309353
0.0580458
0.0415687
0.0744765
0.0505527
0.0875476
0.0571324
0.0964799
0.0612785
0.101819
0.0638303
0.105581
0.0657054
0.107964
0.0666635
0.108952
0.0669525
0.109094
0.0669339
0.109073
0.0670225
0.109619
0.0677392
0.1116
0.0693054
0.115061
0.0718751
0.119958
0.0742137
0.120137
0.0726297
0.124215
0.0781694
0.118606
0.04117
0.0123327
0.000585752
1.37998e-05
5.67881e-09
2.15875e-12
2.05652e-14
3.51223e-12
3.4539e-11
4.75626e-13
4.71883e-16
7.22338e-12
3.2762e-10
1.25417e-11
1.2427e-14
2.66263e-20
6.04992e-27
1.47953e-34
1.5897e-12
1.23198e-09
1.07907e-07
1.10744e-06
1.22002e-05
3.75545e-05
0.000191566
0.000345472
0.00120557
0.0016153
0.00450478
0.00493114
0.0118014
0.0111101
0.0238713
0.0200633
0.0399666
0.0307769
0.0577974
0.0414376
0.0742738
0.0504241
0.0873445
0.0570275
0.0963371
0.0612113
0.101724
0.0637668
0.105467
0.0656443
0.107877
0.0666195
0.108884
0.0669049
0.10901
0.0668761
0.108928
0.0668931
0.109266
0.0674274
0.110828
0.0686905
0.113713
0.0709788
0.0724592
0.120557
0.0736849
0.118003
0.0735038
0.125666
0.0752642
0.0883719
0.0152098
0.00215218
3.87667e-05
1.03275e-07
2.00246e-11
5.73173e-16
1.59024e-13
3.3283e-11
2.57272e-11
5.17557e-12
6.56771e-12
3.32818e-21
3.21064e-10
2.71638e-11
4.15397e-16
7.77437e-22
1.22677e-28
2.31673e-36
1.57109e-12
1.21402e-09
1.06244e-07
1.09176e-06
1.20693e-05
3.73568e-05
0.000191084
0.000344658
0.00119922
0.00160151
0.004463
0.00489008
0.0117232
0.0110594
0.0237825
0.0199902
0.0397726
0.0306257
0.0575388
0.0412929
0.0740722
0.0503154
0.087159
0.0569258
0.096193
0.0611427
0.101623
0.0637101
0.105366
0.065586
0.107785
0.0665728
0.108817
0.0668685
0.108926
0.0668219
0.10881
0.0667851
0.108984
0.0671643
0.110186
0.0681697
0.112552
0.0701414
0.0715946
0.119378
0.0736444
0.118432
0.0718763
0.122448
0.075898
0.105214
0.0261066
0.00477341
0.000123815
7.90489e-07
1.5893e-10
9.17532e-14
8.22637e-15
1.29225e-11
5.50355e-11
9.16595e-12
4.28125e-12
7.67177e-11
3.55017e-12
1.28502e-11
3.8999e-12
1.93994e-17
1.01274e-23
2.97418e-30
1.55328e-38
1.56451e-12
1.20085e-09
1.04846e-07
1.07634e-06
1.19125e-05
3.69912e-05
0.000190178
0.000343931
0.00119684
0.00159409
0.00442853
0.00484968
0.0116347
0.0109951
0.0236848
0.0199267
0.0396445
0.0305017
0.0572925
0.0411429
0.07385
0.0502063
0.0870003
0.0568329
0.0960546
0.0610747
0.101523
0.0636491
0.105277
0.0655359
0.107699
0.0665242
0.108746
0.0668317
0.108864
0.0667686
0.108703
0.0666985
0.108749
0.0669497
0.109648
0.0677219
0.111559
0.0694031
0.115524
0.0722499
0.11985
0.0729161
0.116397
0.0727692
0.123121
0.0704286
0.064599
0.0064115
0.000537463
2.90764e-06
1.69104e-09
1.66914e-12
2.27984e-14
3.9058e-12
4.39479e-11
7.22672e-11
1.50417e-14
3.1479e-13
3.85239e-11
2.1237e-10
4.18752e-12
1.60162e-13
3.57463e-19
1.76671e-25
3.18415e-32
5.71435e-40
1.56231e-12
1.1963e-09
1.03844e-07
1.06348e-06
1.17581e-05
3.6551e-05
0.000188479
0.000342481
0.0011947
0.00159147
0.0044104
0.00481655
0.0115479
0.0109225
0.023561
0.0198564
0.0395331
0.0304196
0.0570909
0.0409999
0.0736202
0.0500868
0.0868404
0.0567529
0.0959269
0.0610096
0.101424
0.0635884
0.105177
0.0654923
0.10763
0.0664795
0.10867
0.0667932
0.108805
0.0667287
0.108602
0.0666216
0.108558
0.0667721
0.109211
0.0673558
0.110665
0.0687525
0.114203
0.0714478
0.118962
0.0730245
0.116803
0.071249
0.120701
0.072905
0.0873384
0.0132026
0.00121939
1.22916e-05
1.66558e-08
8.23361e-12
6.67137e-14
4.56626e-12
2.80731e-11
3.88854e-11
1.00921e-10
6.12738e-13
2.02096e-15
2.37805e-14
9.84022e-10
3.04423e-11
3.90575e-15
4.54237e-21
2.96424e-27
1.44511e-34
2.24628e-41
1.55847e-12
1.19565e-09
1.03579e-07
1.0547e-06
1.16319e-05
3.61188e-05
0.00018643
0.000339705
0.00119022
0.00158916
0.00440446
0.00479961
0.0114774
0.0108514
0.0234216
0.0197677
0.03941
0.0303483
0.0569572
0.0408827
0.0734023
0.0499641
0.086667
0.0566717
0.0958156
0.0609491
0.10133
0.0635294
0.105078
0.0654406
0.107571
0.0664454
0.108601
0.0667513
0.10874
0.0666917
0.108527
0.0665495
0.108391
0.0666263
0.108846
0.0670576
0.109951
0.0681966
0.113015
0.0706768
0.117841
0.0729085
0.117621
0.0703925
0.117993
0.0733671
0.103289
0.0252049
0.00287522
4.49215e-05
5.45366e-08
2.63577e-11
3.35037e-14
5.51724e-12
5.37198e-11
2.39515e-11
9.08751e-11
2.79813e-11
5.94715e-11
2.83852e-11
2.70068e-12
4.48902e-11