/*--------------------------------*- C++ -*----------------------------------*\
| =========                 |                                                 |
| \\      /  F ield         | OpenFOAM: The Open Source CFD Toolbox           |
|  \\    /   O peration     | Version:  v2012                                 |
|   \\  /    A nd           | Website:  www.openfoam.com                      |
|    \\/     M anipulation  |                                                 |
\*---------------------------------------------------------------------------*/
FoamFile
{
    version     2.0;
    format      ascii;
    class       volScalarField;
    location    "11500";
    object      k;
}
// * * * * * * * * * * * * * * * * * * * * * * * * * * * * * * * * * * * * * //

dimensions      [0 2 -2 0 0 0 0];


internalField   nonuniform List<scalar> 
53312
(
359.291
17.7699
68.4702
7.1153
2.91402
29.6245
4.37881
1.1387
1.03192
21.5545
3.22682
0.697563
0.376011
0.613431
20.2554
2.48052
0.513215
0.228611
0.182652
0.56838
20.651
2.01105
0.394224
0.167932
0.108547
0.118847
0.684876
21.3049
1.69844
0.319528
0.129006
0.0794156
0.0664001
0.102946
0.897233
21.8094
1.47021
0.269846
0.104695
0.0611429
0.0480546
0.051585
0.113584
1.17385
22.1101
1.29988
0.23363
0.0886762
0.0500442
0.0373374
0.0365474
0.050713
0.144243
1.49339
22.2584
1.16674
0.206708
0.0772066
0.0431598
0.0314718
0.0290148
0.0349646
0.059646
0.193129
1.83725
22.2749
1.06131
0.185802
0.0692238
0.0388928
0.0287768
0.0259857
0.0286503
0.0402279
0.0773471
0.260031
2.18864
22.1642
0.981638
0.169577
0.0638942
0.0375959
0.0287235
0.0264143
0.0276807
0.0339754
0.051552
0.104051
0.345192
2.53219
21.9469
0.935566
0.158037
0.061815
0.0397749
0.0332068
0.0307896
0.0314182
0.0349407
0.0445173
0.0691235
0.140591
0.448712
2.85365
21.6496
0.924314
0.152825
0.065032
0.0486988
0.0448907
0.0430359
0.041631
0.042823
0.0476495
0.0605862
0.0936325
0.188087
0.569903
3.14255
21.3005
0.954711
0.156133
0.0769186
0.0718756
0.0717577
0.0695278
0.0652401
0.0611417
0.0610036
0.0663798
0.0829247
0.126077
0.247751
0.707124
3.39217
20.9236
1.04267
0.171432
0.109523
0.122174
0.132312
0.12638
0.11446
0.101151
0.0905233
0.0870053
0.0921176
0.11257
0.167656
0.320687
0.857675
3.59985
20.5383
1.18588
0.204224
0.179093
0.235048
0.260363
0.251213
0.218263
0.183745
0.153514
0.131719
0.122333
0.126166
0.150791
0.219681
0.407701
1.01775
3.76634
20.1481
1.35829
0.253729
0.305474
0.467294
0.539301
0.51545
0.444464
0.356976
0.283241
0.226059
0.187272
0.168882
0.170107
0.199041
0.283483
0.509129
1.18209
3.89531
19.7078
1.51311
0.309903
0.485597
0.883418
1.11003
1.08568
0.925065
0.733393
0.554812
0.420331
0.32342
0.260303
0.228938
0.225781
0.258905
0.360287
0.624506
1.34458
3.99088
19.2169
1.65016
0.360737
0.679609
1.47222
2.12938
2.25001
1.95758
1.53597
1.14417
0.826793
0.603991
0.451191
0.35454
0.305169
0.295255
0.332025
0.451048
0.75232
1.49861
4.05871
18.6898
1.75774
0.403242
0.855743
2.10165
3.56752
4.32587
4.06301
3.25559
2.4045
1.70836
1.191
0.844987
0.616057
0.474345
0.400615
0.380768
0.419988
0.556223
0.889803
1.63752
4.10745
18.1637
1.84703
0.43738
0.995151
2.67131
5.09984
7.24831
7.81164
6.75833
5.09999
3.59816
2.46379
1.66905
1.15612
0.825834
0.624753
0.518669
0.484658
0.524173
0.675533
1.03278
1.75531
4.14093
17.6626
1.91794
0.465232
1.10931
3.11854
6.48235
10.3546
13.0792
12.9872
10.5852
7.63469
5.19789
3.45577
2.28676
1.55251
1.08959
0.81144
0.662984
0.609213
0.645531
0.807682
1.17559
1.84731
4.16744
17.1916
1.97404
0.487072
1.20069
3.48435
7.56427
13.1497
18.6673
21.7257
20.3284
15.8408
11.0317
7.30036
4.73811
3.07451
2.05169
1.41772
1.04069
0.837345
0.756476
0.784358
0.950062
1.31219
1.91088
4.19555
16.739
2.01662
0.504275
1.27104
3.77565
8.44691
15.3315
23.6833
30.9796
33.9766
30.4029
22.8806
15.4971
10.0212
6.37489
4.06796
2.67391
1.82179
1.31918
1.04546
0.92801
0.939946
1.09853
1.43773
1.94601
4.22629
16.2893
2.04821
0.517178
1.32575
3.99846
9.14751
17.1079
27.5917
39.269
48.4076
50.7714
43.8864
32.1306
21.2775
13.4972
8.44099
5.3082
3.442
2.31444
1.65379
1.29064
1.12453
1.1103
1.24899
1.54728
1.9549
4.21813
15.8361
2.07064
0.526821
1.36569
4.17041
9.68106
18.5145
30.7676
45.7172
61.3068
72.2717
73.225
61.588
44.0988
28.6647
17.8887
11.0231
6.8422
4.3812
2.90893
2.05115
1.57544
1.34555
1.29181
1.39781
1.63612
1.94019
4.16621
15.4004
2.08292
0.533395
1.3954
4.29447
10.0905
19.5817
33.2761
50.949
71.3284
91.4534
104.14
102.66
84.4611
59.382
38.0005
23.3822
14.2208
8.72214
5.51854
3.61861
2.51707
1.90112
1.58898
1.48143
1.5408
1.70006
1.9047
4.09526
14.9756
2.08819
0.537084
1.41404
4.38575
10.3835
20.3974
35.1761
55.0741
79.4462
106.339
131.665
145.864
140.634
113.629
78.6832
49.6842
30.1945
18.147
11.005
6.88193
4.45603
3.05588
2.26715
1.85077
1.67658
1.67352
1.73388
1.8535
4.01645
14.6202
2.08968
0.538943
1.42388
4.44128
10.5972
20.977
36.6209
58.1903
85.8392
118.38
153.007
184.242
199.605
188.96
150.397
102.814
64.1768
38.5688
22.9238
13.7501
8.49849
5.4317
3.66954
2.67058
2.12922
1.87416
1.79156
1.72705
1.79302
3.93528
14.3068
2.08741
0.539616
1.42869
4.46836
10.7239
21.3966
37.6438
60.5547
90.6591
127.85
170.242
213.973
251.862
267.86
249.716
196.249
132.698
81.9924
48.7706
28.6815
17.0172
10.3928
6.55272
4.35672
3.10749
2.42262
2.07083
1.89111
1.68117
1.73012
3.84812
14.1458
2.08069
0.539073
1.42992
4.47995
10.7823
21.6406
38.3794
62.2204
94.3067
134.978
183.786
237.948
292.29
337.579
353.455
325.239
252.858
169.365
103.695
61.0856
35.553
20.8614
12.5839
7.82123
5.11199
3.57771
2.72912
2.26339
1.96886
1.60013
1.66956
3.74652
14.1243
2.07076
0.537259
1.42662
4.48041
10.8034
21.7473
38.8007
63.4114
96.868
140.362
193.964
256.761
324.853
391.444
444.815
459.494
418.085
322.045
213.913
129.886
75.8047
43.6632
25.3298
15.0826
9.23279
5.93472
4.08147
3.04703
2.44934
2.01703
1.4897
1.61355
3.63966
14.1763
2.05902
0.534644
1.42
4.46609
10.7977
21.7794
38.9756
64.0867
98.6915
144.131
201.633
270.891
350.371
434.75
515.275
577.273
589.309
530.943
405.692
267.505
161.171
93.2121
53.1252
30.4558
17.8878
10.7803
6.82789
4.61931
3.37553
2.62642
2.00779
1.36006
1.56346
3.53539
14.2841
2.0462
0.531596
1.41118
4.44162
10.7569
21.7578
39.0176
64.354
99.7127
146.805
206.997
281.515
369.509
468.646
571.805
667.895
738.762
746.248
666.472
505.669
331.275
198.139
113.559
64.0244
36.2488
20.9836
12.4718
7.79609
5.19327
3.71522
2.78923
1.93015
1.22452
1.51867
3.43585
14.4295
2.03184
0.528135
1.40142
4.41055
10.6921
21.6652
38.9657
64.4054
100.105
148.291
210.783
288.927
383.882
494.033
615.989
740.422
853.462
933.037
933.425
827.089
623.719
406.25
241.313
137.041
76.4009
42.6902
24.382
14.3189
8.8465
5.80854
4.06803
2.91747
1.78554
1.09693
1.47947
3.34994
14.6002
2.01615
0.524206
1.39027
4.37658
10.6112
21.5262
38.7865
64.2997
100.16
148.841
212.878
294.15
393.884
513.069
649.039
796.999
944.981
1075.89
1163.35
1153.41
1014.75
761.175
493.279
291.068
163.764
90.2387
49.776
28.109
16.3389
9.99221
6.47465
4.43171
2.94435
1.58512
0.987823
1.44617
3.25337
14.8055
2.00073
0.520126
1.37773
4.33856
10.5242
21.3552
38.5254
63.9881
99.9749
148.895
213.629
297.02
400.92
526.304
673.768
839.257
1016.2
1189.48
1338.45
1432.07
1407.84
1230.61
918.883
592.847
347.592
193.708
105.473
57.5595
32.201
18.5585
11.2548
7.2048
4.77895
2.84605
1.35209
0.902194
1.41502
3.20466
15.0325
1.98582
0.516142
1.36555
4.29611
10.4277
21.1717
38.2073
63.5425
99.4698
148.596
213.68
298.032
404.777
535.581
690.942
870.822
1069.3
1277.62
1477.05
1643.19
1740.19
1697.1
1474.75
1096.96
704.982
410.81
226.723
122.219
66.1151
36.7131
21.0204
12.6679
8.00342
5.01015
2.61234
1.11724
0.838499
1.38461
3.17926
15.2839
1.97072
0.512167
1.35375
4.25521
10.3207
20.9697
37.8688
63.0045
98.7598
147.823
213.22
298.065
406.1
540.648
702.953
892.71
1108.89
1343.2
1584.27
1809.45
1990.5
2086.98
2019.9
1745.96
1294.55
829.196
480.373
262.942
140.621
75.5506
41.7305
23.7912
14.2723
8.82057
5.03355
2.25693
0.909071
0.792665
1.35502
3.153
15.5297
1.95439
0.507995
1.34174
4.21583
10.2181
20.7482
37.498
62.4324
97.9065
146.75
212.09
297.398
406.123
542.367
709.504
907.982
1136.31
1391.96
1663.82
1937.54
2186.46
2378.68
2469.74
2373.09
2041.62
1509.86
964.487
556.251
302.613
160.892
86.0283
47.3843
26.9658
16.079
9.44987
4.79527
1.82578
0.744675
0.760063
1.3261
3.12209
15.7505
1.9366
0.503441
1.32869
4.17604
10.1194
20.5349
37.0923
61.8093
97.0039
145.467
210.533
295.8
405.185
542.361
711.689
916.303
1155.38
1425.68
1722.81
2032.32
2336.73
2605.53
2803.8
2883.54
2751.85
2357.8
1740.29
1110.21
638.836
346.11
183.358
97.7982
53.8711
30.6416
17.9531
9.72075
4.2741
1.38839
0.626868
0.736531
1.29852
3.08843
15.9361
1.92075
0.498774
1.31438
4.13261
10.0197
20.3304
36.7032
61.1296
96.0228
144.11
208.678
293.616
402.994
541.092
711.67
919.06
1165.77
1449.1
1763.56
2102.36
2447.55
2778.62
3061.74
3259.63
3321.68
3149.92
2689.57
1984.05
1266.52
728.649
393.986
208.487
111.234
61.445
34.7936
19.4082
9.49238
3.51504
1.0107
0.548716
0.71879
1.27159
3.05708
16.1035
1.90599
0.494765
1.30105
4.08579
9.91231
20.125
36.3291
60.4781
94.9566
142.64
206.718
291.02
400.008
538.166
709.985
919.012
1169.18
1461.85
1791.75
2150.65
2529.15
2905.76
3257.4
3547.8
3738.11
3776.1
3560.24
3033.53
2240.32
1433.51
826.383
446.997
236.993
126.859
70.2936
38.9329
20.1731
8.66219
2.64067
0.729096
0.499555
0.704265
1.2479
3.03228
16.5897
1.89136
0.490836
1.28993
4.04232
9.79623
19.9039
35.9552
59.8534
93.9326
141.045
204.599
288.282
396.476
534.198
706.166
916.855
1169.13
1466.01
1807.1
2183.97
2585.29
2998.99
3400.57
3765.09
4054.68
4229.99
4238.33
3977.87
3387.03
2507.53
1611.32
933.042
506.341
269.895
145.225
80.0974
42.1865
19.9109
7.25504
1.81605
0.543344
0.469297
0.691805
1.22771
3.07811
16.7541
1.87616
0.486815
1.27858
4.00596
9.68934
19.6667
35.5539
59.2285
92.9523
139.517
202.305
285.325
392.752
529.495
701.001
911.969
1166.4
1465.96
1812.09
2202.1
2623.85
3062.95
3505.06
3923.33
4291.86
4572.32
4725.9
4702.22
4398.18
3746.22
2784.12
1800.32
1050.21
573.703
308.419
166.335
88.9864
43.9092
18.3528
5.47404
1.16923
0.431483
0.450579
0.681135
1.22624
3.13622
16.7675
1.86062
0.482634
1.26641
3.96921
9.59953
19.4479
35.1246
58.5602
91.9743
138.05
200.108
282.13
388.738
524.556
694.896
905.38
1160.3
1462.6
1812.08
2207.98
2644.85
3106.75
3576.53
4038.24
4463.79
4827.17
5090.81
5218.89
5162
4815.16
4106.62
3068.42
2001.04
1180.11
651.099
353.202
188.12
95.7124
43.3282
15.4798
3.68142
0.738477
0.368104
0.438871
0.676948
1.24181
3.18708
16.7856
1.84505
0.478439
1.25392
3.92975
9.509
19.2637
34.7288
57.8479
90.9305
136.592
198.002
279.064
384.402
519.228
688.471
897.608
1152.07
1455.12
1808.04
2208.03
2651.64
3130.52
3625.21
4116.58
4587.92
5010.93
5360.72
5602.78
5702.65
5610.45
5222.2
4463.54
3358.06
2214.3
1325
739.726
402.065
206.701
98.7033
39.8338
11.6774
2.2215
0.486545
0.333567
0.433111
0.677933
1.25741
3.24128
16.7977
1.8313
0.47443
1.24178
3.88926
9.41205
19.0788
34.3952
57.1904
89.818
135.038
195.908
276.132
380.246
513.485
681.561
889.432
1142.36
1445.05
1799.05
2203.26
2651.79
3138.19
3651.58
4169.63
4672.21
5142.8
5554.35
5884.93
6101.65
6169.47
6040
5612.17
4811.25
3650.28
2440.05
1485.55
836.458
445.542
219.247
96.2335
33.3892
7.73579
1.24449
0.352078
0.315742
0.431895
0.680899
1.26924
3.293
16.8048
1.81897
0.470934
1.23094
3.85025
9.31336
18.8814
34.0612
56.6355
88.7931
133.382
193.677
273.218
376.268
507.979
674.103
880.638
1132.17
1433.19
1786.98
2192.71
2646.26
3138.47
3660.07
4198.24
4728.94
5231.96
5692.36
6086.15
6393.06
6579.63
6611.69
6442.9
5977.32
5142.94
3940.43
2674.3
1655.6
926.773
478.785
222.081
87.113
24.8817
4.48106
0.689758
0.284542
0.30757
0.433347
0.684171
1.27746
3.33967
16.8085
1.80635
0.467583
1.22175
3.81594
9.21823
18.6809
33.7051
56.0818
87.9276
131.859
191.307
270.118
372.318
502.71
666.963
871.163
1121.2
1420.71
1772.76
2178.51
2634.09
3132.2
3660.46
4207.44
4759.31
5291.53
5785.12
6228.58
6599.68
6877.34
7029
7021.51
6811.02
6308.84
5449.63
4218.91
2903.47
1813.23
996.677
494.748
211.737
71.589
16.1028
2.32115
0.409986
0.252269
0.304863
0.435057
0.68675
1.28383
3.37957
16.8119
1.79248
0.463934
1.21202
3.78678
9.13485
18.4879
33.344
55.4923
87.0643
130.571
189.125
266.826
368.123
497.477
660.126
862.085
1109.39
1407.31
1757.82
2161.82
2617.75
3118.42
3653.45
4207.89
4769.06
5323.13
5846.62
6323.7
6744.75
7087.12
7330.18
7442.45
7391.39
7135.92
6596.67
5718.35
4467.45
3096.89
1929.08
1034.73
486.006
186.608
51.9762
8.95929
1.13416
0.279209
0.237869
0.30478
0.436812
0.688646
1.2821
3.41333
16.8143
1.77784
0.460053
1.20067
3.75573
9.06403
18.3192
32.9981
54.8954
86.1468
129.288
187.28
263.797
363.668
491.925
653.354
853.401
1098.08
1392.87
1741.76
2144.29
2598.57
3100
3638.16
4200.15
4769.48
5333.22
5878.81
6386.07
6840.89
7233.19
7541.12
7744.62
7812.91
7713.76
7408.77
6829.23
5931.5
4655.99
3220.68
1986.47
1028.38
447.469
148.523
32.4813
4.35804
0.566496
0.221142
0.232172
0.305809
0.439161
0.688971
1.27963
3.44264
16.8166
1.76388
0.456145
1.18908
3.71945
8.98871
18.1759
32.6951
54.3236
85.219
127.926
185.444
261.234
359.566
486.029
646.147
844.786
1087.25
1379.06
1724.47
2125.45
2578.43
3078.41
3617.79
4183.48
4761.01
5333.48
5889.04
6418.12
6903.22
7329.12
7686.68
7954.99
8114.2
8133.74
7981.25
7620.71
6993.33
6065.52
4748.92
3267.16
1967.95
968.248
379.159
103.768
17.2459
1.94413
0.317661
0.19657
0.230531
0.306999
0.439649
0.688686
1.28438
3.51665
16.8191
1.75288
0.452662
1.17832
3.68264
8.90108
18.0238
32.4382
53.8242
84.3312
126.55
183.497
258.686
356.102
480.611
638.516
835.635
1076.52
1365.83
1707.93
2105.16
2556.77
3055.75
3593.97
4161.36
4743.09
5324.26
5888.9
6428.1
6934.44
7390.48
7781.35
8098.85
8322.84
8432.99
8398.7
8186.44
7760.55
7073.85
6099.83
4741.65
3219.32
1862.56
851.986
288.701
61.8866
7.90768
0.853557
0.214282
0.186876
0.230495
0.30777
0.438776
0.689844
1.3141
3.53805
16.8221
1.74298
0.449976
1.16972
3.64893
8.81241
17.8474
32.1659
53.4003
83.5565
125.234
181.532
255.985
352.654
476.026
631.492
825.935
1065.11
1352.71
1692.09
2085.77
2533.48
3031.39
3568.99
4135.57
4719.48
5305.27
5878.86
6427.22
6943.94
7420.31
7840.96
8191.45
8464.2
8639.4
8695.69
8601.39
8322.08
7823.52
7067.35
6033.48
4621.92
3061.02
1668.26
687.899
191.67
31.098
3.28247
0.403957
0.173022
0.183495
0.230673
0.307793
0.438215
0.699632
1.33705
3.53912
16.8236
1.73387
0.447429
1.1634
3.62243
8.73152
17.6693
31.8506
52.9525
82.8997
124.088
179.653
253.26
349.003
471.467
625.554
817.016
1053.03
1338.77
1676.38
2067.2
2511.23
3005.2
3542.13
4108.53
4692.05
5280.42
5858.9
6416.14
6941.99
7429.13
7869
8248.77
8554.29
8778.06
8900.12
8896.97
8736.97
8383.21
7801.8
6964.25
5857.2
4384.95
2784.33
1395.61
496.875
107.752
13.4294
1.31379
0.228076
0.157306
0.182406
0.23059
0.307571
0.441442
0.709709
1.35286
3.53741
16.825
1.72379
0.444828
1.157
3.60319
8.66821
17.5071
31.5332
52.4345
82.2049
123.117
178.016
250.658
345.318
466.643
619.659
809.478
1041.91
1324
1659.68
2048.77
2489.91
2980.2
3513.3
4079.54
4663.34
5251.67
5833.01
6395.16
6929.8
7425.8
7876.91
8274.88
8609.06
8865.66
9036.51
9100.85
9033.39
8799.85
8361.68
7686.48
6755.82
5565.12
4027.19
2397.23
1069.24
311.001
50.6973
5.24196
0.546664
0.161722
0.151574
0.181912
0.230317
0.309132
0.446543
0.714874
1.36582
3.53493
16.8261
1.71199
0.441821
1.1494
3.58374
8.62268
17.3811
31.2453
51.9132
81.4052
122.09
176.629
248.391
341.807
461.774
613.403
801.984
1032.53
1310.44
1641.99
2029.15
2468.73
2956.23
3485.79
4048.43
4632.58
5221.69
5803.25
6368.26
6907.82
7412.43
7871.99
8281.64
8633.39
8918.07
9122.21
9236.28
9238.52
9099.72
8782.51
8248.87
7469.8
6436.58
5159.35
3547.48
1924.43
729.602
163.439
20.5234
1.95904
0.262052
0.137475
0.14947
0.18152
0.230925
0.31229
0.451574
0.71657
1.37465
3.53312
16.8256
1.6997
0.438381
1.14004
3.56011
8.5767
17.2901
31.0206
51.4409
80.5989
120.907
175.168
246.475
338.752
457.136
607.102
794.053
1023.19
1298.96
1625.73
2008.38
2446.18
2932.43
3459.43
4018.8
4599.64
5189.61
5772.31
6337.6
6880.12
7389.59
7857.47
8275.08
8638.75
8940.99
9172.93
9321.41
9374.86
9308.75
9089.51
8677.19
8037.02
7144.93
6005.72
4631.53
2959.18
1408.63
427.713
71.6485
7.55867
0.743576
0.159852
0.128835
0.148584
0.181597
0.232786
0.315424
0.454662
0.719464
1.39275
3.53198
16.8244
1.68718
0.435005
1.12989
3.5309
8.52088
17.1991
30.8599
51.0736
79.8706
119.72
173.486
244.453
336.164
453.1
601.098
786.038
1013.29
1287.54
1612
1989.32
2422.33
2907.05
3433.23
3990.37
4568.3
5155.33
5739.32
6305.85
6848.76
7361.24
7833.91
8259.48
8630.73
8944.92
9194.96
9371.59
9461.24
9448.85
9306.1
8995.66
8477.32
7720.16
6707.53
5466.66
3987.67
2292.08
910.095
208.561
27.2172
2.67054
0.312528
0.124228
0.125758
0.148315
0.182509
0.235047
0.317708
0.457504
0.733279
1.39411
3.53142
16.8239
1.67706
0.431871
1.12051
3.49946
8.45133
17.0888
30.7003
50.8127
79.3058
118.645
171.793
242.127
333.439
449.692
595.88
778.412
1003.31
1275.44
1598.31
1973.22
2400.42
2880.2
3405.26
3962.11
4538.27
5122.78
5704.19
6272.24
6816.48
7329.46
7805.13
8235.39
8614.29
8935.84
9197.86
9393.48
9512.34
9538.91
9453.83
9224.73
8812.4
8177.48
7293.64
6160.66
4828.06
3243.68
1603.88
498.381
84.7513
9.52779
0.946289
0.164539
0.112138
0.124752
0.148731
0.183846
0.236865
0.319597
0.464219
0.742711
1.39115
3.53104
16.8228
1.66981
0.429574
1.11319
3.47068
8.37748
16.9511
30.5051
50.5525
78.904
117.813
170.268
239.792
330.304
446.093
591.467
771.792
993.817
1263.23
1583.8
1957.13
2381.91
2855.58
3375.68
3931.91
4508.36
5091.6
5670.92
6236.69
6782.51
7296.95
7773.18
8206.43
8589.92
8918.87
9188.32
9396.3
9535.39
9593.14
9551
9384.94
9059.91
8534.88
7772.08
6757.06
5516.22
4083.37
2438.4
977.481
224.206
30.275
3.21876
0.361064
0.115341
0.108192
0.124725
0.149562
0.18506
0.238553
0.323595
0.468893
0.747232
1.38807
3.53074
16.8203
1.66373
0.427922
1.1089
3.44904
8.30956
16.8046
30.2627
50.2366
78.5078
117.226
169.088
237.683
327.155
441.959
586.817
766.198
985.56
1251.62
1569.14
1940.06
2363.4
2834.76
3348.6
3900.01
4476.39
5060.54
5639.08
6203.11
6746.76
7262.95
7740.74
8174.6
8561.06
8894.59
9171.36
9387.13
9539.49
9619.39
9611.55
9493.73
9238.22
8807.21
8157.3
7258.68
6119.05
4791.46
3251.74
1630.79
495.186
84.3108
10.1321
1.08422
0.168953
0.0995287
0.107125
0.125228
0.150373
0.186213
0.241118
0.327993
0.471434
0.748709
1.38587
3.53054
16.8173
1.65782
0.426306
1.10591
3.43719
8.25938
16.6709
30.0054
49.8424
78.0234
116.646
168.259
236.06
324.318
437.806
581.474
760.297
978.6
1241.53
1555.21
1922.82
2343.75
2813.9
3325.68
3870.84
4442.66
5027.31
5607.36
6171.04
6713.12
7227.37
7707.05
8142.54
8529.66
8866.18
9147.64
9370.87
9531.81
9626.62
9643.79
9564.64
9363.9
9009.89
8460.7
7675.93
6641.51
5396.97
3980.49
2372.13
930.64
203.277
28.4281
3.2915
0.387364
0.107989
0.0947436
0.107175
0.125837
0.151106
0.187948
0.244176
0.331444
0.474414
0.75164
1.38457
3.53026
16.8152
1.64942
0.424372
1.10199
3.42921
8.23267
16.5729
29.7702
49.4239
77.4186
115.938
167.44
234.922
322.134
434.073
576.107
753.52
971.248
1233.02
1543.12
1906.44
2323.88
2791.74
3302.67
3846.14
4411.86
4992.28
5573.37
6139.07
6681.06
7194.03
7672.02
8109.48
8498.3
8835.59
9120.13
9348.33
9517.18
9621.92
9656.55
9606.41
9449.91
9158.37
8694.41
8016.03
7091.27
5933.55
4611.4
3097.24
1512.56
430.905
70.5789
9.11421
1.06612
0.167347
0.0893817
0.0935772
0.107571
0.12638
0.15216
0.190165
0.24679
0.334579
0.481179
0.747826
1.38393
3.52998
16.8129
1.63887
0.421614
1.0957
3.41799
8.21557
16.5225
29.5995
49.0432
76.7794
115.053
166.44
233.799
320.611
431.202
571.285
746.707
962.801
1224.02
1532.92
1892.24
2305.02
2769.34
3278.21
3821.27
4385.76
4960.34
5537.61
6104.79
6649.09
7162.34
7639.34
8075.36
8466.23
8805.28
9090.78
9322.27
9496.62
9610.19
9656.88
9627.78
9505.31
9264.79
8872.2
8287.2
7470.84
6410.85
5156.52
3754.73
2178.01
802.637
160.531
22.5037
2.84941
0.36584
0.100267
0.0840592
0.093555
0.107993
0.127082
0.153589
0.192313
0.249513
0.33854
0.482169
0.744716
1.3836
3.52963
16.8103
1.62796
0.41852
1.08681
3.39882
8.1905
16.4907
29.5133
48.7686
76.1971
114.117
165.189
232.428
319.114
429.206
567.587
740.592
954.313
1213.69
1522.11
1880.24
2288.66
2748.05
3253.44
3794.81
4359.43
4933.31
5505.1
6068.79
6614.8
7130.76
7608.4
8043.71
8433.36
8774.53
9061.91
9294.67
9472.76
9592.69
9649.73
9635.74
9538.91
9338.58
9005.05
8500.87
7784.06
6827.98
5651.67
4326.62
2840.78
1322.37
337.081
51.8604
6.90704
0.892498
0.152671
0.0806237
0.0827981
0.093829
0.108519
0.127991
0.155099
0.194529
0.25321
0.340845
0.480961
0.742743
1.38333
3.52929
16.8079
1.61734
0.415507
1.0779
3.37174
8.14645
16.4436
29.4619
48.6333
75.7802
113.266
163.867
230.711
317.279
427.25
565.024
735.914
946.703
1203.3
1509.69
1867.5
2274.82
2729.62
3229.95
3767.99
4331.34
4905.91
5477.54
6036.13
6578.87
7096.88
7577.59
8013.87
8403.07
8743.28
9032.86
9267.69
9447.54
9571.94
9636.7
9635.34
9557.6
9388.63
9102.87
8666.6
8039.35
7184.55
6099.29
4837.43
3442.98
1925.38
651.398
114.67
15.6961
2.08158
0.300686
0.0899974
0.0752483
0.0827091
0.0942412
0.109182
0.128978
0.156706
0.197282
0.256451
0.342506
0.479007
0.741727
1.38312
3.52894
16.8042
1.60819
0.412766
1.06975
3.34469
8.08325
16.3583
29.3824
48.5547
75.5794
112.66
162.666
228.897
314.977
424.848
562.517
732.694
940.892
1194.01
1497.22
1852.88
2260.13
2714
3209.58
3742.58
4302.9
4876.7
5449.57
6008.51
6546.39
7061.42
7544.51
7984.19
8374.68
8714.67
9003.58
9240.74
9422.98
9549.92
9620.29
9628.64
9566.58
9421.68
9174.28
8794.58
8244.41
7485.85
6496.55
5305.88
3983.94
2526.82
1105.67
251.288
34.7951
4.60255
0.637103
0.127122
0.0723206
0.0740091
0.0829817
0.0947774
0.109907
0.129979
0.158796
0.200052
0.258978
0.344219
0.475608
0.741298
1.38301
3.5286
16.8015
1.60127
0.410618
1.06341
3.32048
8.02079
16.2355
29.235
48.4312
75.4668
112.375
161.817
227.25
312.544
421.825
559.429
729.53
936.896
1186.92
1486.08
1838.18
2243.22
2697.34
3192.29
3720.54
4275.93
4847.05
5419.67
5980.34
6518.94
7029.54
7509.99
7952.32
8346.48
8688.04
8976.98
9213.81
9398.62
9528.47
9602.5
9618.13
9568.42
9443.13
9226.02
8892.82
8408.72
7735.23
6843.45
5733.89
4474.55
3093.2
1636.52
505.996
80.998
9.98703
1.33798
0.217323
0.0778496
0.067678
0.0739451
0.0834173
0.0953733
0.110594
0.131394
0.161038
0.202834
0.261362
0.342393
0.473357
0.741113
1.38294
3.52822
16.8002
1.59776
0.409407
1.05935
3.30223
7.96501
16.1139
29.0218
48.1967
75.2851
112.22
161.426
226.091
310.338
418.631
555.536
725.627
932.98
1182.05
1477.59
1825.07
2226.26
2678.22
3173.83
3701.8
4252.56
4818.97
5389.29
5950.18
6490.84
7002.64
7479.09
7919.12
8316.16
8661.65
8952.43
9189.57
9374.47
9507.27
9585.01
9605.87
9565.69
9456.12
9263.75
8968.07
8539.56
7941.43
7139.49
6120.37
4919.97
3611.85
2189.95
879.511
182.977
23.6933
2.78749
0.405422
0.0985355
0.0644666
0.0666876
0.0742427
0.0839246
0.0959326
0.111538
0.132942
0.1634
0.205809
0.26227
0.340149
0.472206
0.741026
1.38285
3.52774
16.7978
1.59417
0.408586
1.05924
3.29163
7.92408
16.0059
28.8108
47.8542
74.933
111.967
161.223
225.57
308.797
415.74
551.427
720.709
928.15
1177.29
1471.77
1815.1
2211.13
2659.01
3152.61
3681.72
4232.65
4794.65
5360.55
5919.5
6460.7
6974.99
7453.11
7889.58
8284.67
8633.25
8928.16
9167.41
9352.95
9486.4
9567.71
9593.46
9560.54
9463.36
9291.03
9025.56
8643.64
8110.54
7391.42
6460.77
5334.48
4082.39
2723.82
1345.3
373.34
57.0719
6.49519
0.781539
0.145512
0.0659894
0.0611242
0.0667104
0.074663
0.084411
0.0966456
0.112535
0.134815
0.165859
0.207694
0.262976
0.33656
0.471746
0.740971
1.38276
3.52732
16.7956
1.58993
0.407626
1.05819
3.29372
7.90142
15.928
28.624
47.5156
74.4135
111.457
160.876
225.313
308.119
413.739
547.715
715.51
922.028
1171.39
1466.07
1808.27
2199.66
2641.92
3131.31
3658.64
4211.21
4773.86
5335.68
5890.49
6430.01
6945.25
7426.28
7864.87
8256.86
8603.8
8902
9145.57
9333.51
9468.04
9550.76
9580.99
9554.56
9467.21
9310.91
9070.85
8725.83
8249.01
7603.55
6758.97
5710.6
4514.21
3220.12
1847.19
674.336
130.074
16.2643
1.71789
0.239108
0.0748826
0.057497
0.0605161
0.067022
0.0750867
0.0849971
0.0973657
0.113853
0.136808
0.167913
0.209527
0.260419
0.334398
0.471595
0.740931
1.38268
3.52691
16.7936
1.58451
0.406215
1.05617
3.29209
7.90924
15.8868
28.4914
47.2171
73.9006
110.705
160.17
224.854
307.8
412.872
545.15
710.821
915.572
1163.93
1459.01
1801.57
2191.79
2628.97
3112.39
3635.49
4186.58
4751.39
5314.36
5865.41
6401
6914.91
7397.34
7839.23
8233.71
8578.01
8874.93
9121.97
9314.42
9451.72
9536.09
9568.74
9548.07
9469.22
9325.98
9106.52
8793.28
8361.78
7781.34
7016.65
6050.36
4910.8
3675.77
2345.15
1066.42
269.362
40.3875
4.29199
0.462776
0.0954971
0.056317
0.0555296
0.0606433
0.06739
0.075581
0.0855789
0.0982922
0.11528
0.138852
0.170609
0.20989
0.257415
0.333383
0.471541
0.7409
1.3826
3.52669
16.7914
1.57677
0.404255
1.05213
3.28747
7.90847
15.9073
28.4245
47.0081
73.4496
109.961
159.114
223.898
307.214
412.49
544.076
707.611
909.757
1156.04
1450.05
1793.26
2184.05
2620.07
3098.06
3614.93
4161.86
4725.57
5291.2
5843.87
6375.97
6886.29
7367.77
7811.45
8209.59
8556.74
8851.44
9097.56
9293.7
9435.74
9523.34
9558.43
9541.48
9470.03
9337.91
9135.58
8848.42
8455.94
7929.46
7237.52
6352.12
5281.01
4091.73
2819.66
1510.59
497.226
91.7969
11.4012
1.08843
0.145413
0.0584259
0.0517304
0.0552933
0.0609495
0.0678215
0.0760755
0.0862812
0.0992237
0.116947
0.141201
0.172387
0.209464
0.254196
0.333012
0.47151
0.74087
1.38251
3.52646
16.7915
1.56735
0.401631
1.04554
3.27609
7.89996
15.9102
28.4677
46.908
73.1386
109.31
158.073
222.461
305.95
411.749
543.618
706.289
905.797
1148.95
1440.59
1782.7
2174.43
2611.29
3088.19
3599.41
4140
4699.66
5264.56
5820.34
6354.4
6861.64
7339.89
7783.02
8183.34
8534.45
8832.3
9076.64
9272.25
9418.22
9510.87
9549.81
9536.35
9470.24
9347.66
9159.78
8894.63
8534.54
8055
7425.17
6617.08
5619.69
4478.73
3257.97
1970.24
813.233
190.066
28.5434
2.95952
0.286731
0.0672865
0.0492041
0.0508133
0.0554967
0.0613352
0.068265
0.0766551
0.0869375
0.100344
0.118846
0.143191
0.173513
0.206452
0.252432
0.332909
0.471492
0.740837
1.38246
3.52601
16.7901
1.55752
0.398795
1.03699
3.25646
7.87578
15.8978
28.4799
46.9877
72.9968
108.865
157.162
221.041
304.037
410.117
542.708
705.768
904.203
1144.15
1432.1
1771.55
2162.22
2600.38
3078.43
3588.67
4123.47
4676.78
5237.83
5793.23
6330.7
6840.34
7315.95
7756.24
8156.39
8510.03
8812.12
9059.86
9254.17
9400.06
9496.97
9541.37
9532.57
9471.25
9356.04
9180.46
8933.82
8601.44
8161.39
7586.58
6846.76
5924.92
4839.67
3665.73
2415.29
1195.15
354.354
64.4045
8.02257
0.733412
0.0959892
0.0485447
0.0471172
0.0508338
0.0558357
0.0617456
0.0687803
0.0772054
0.0876917
0.101662
0.120721
0.145144
0.173197
0.203221
0.251732
0.332877
0.471474
0.740796
1.38246
3.52564
16.7885
1.54768
0.395988
1.02863
3.23058
7.83131
15.854
28.4644
47.0174
73.1325
108.672
156.548
219.808
302.149
407.623
540.632
704.659
903.618
1142.26
1426.38
1761.56
2149.32
2586.5
3066.25
3577.97
4112
4659.55
5214.29
5766.02
6303.34
6816.77
7295.22
7733.33
8131.04
8484.9
8789.85
9042.06
9239.99
9385.07
9482.43
9531.53
9528.76
9473.13
9364.36
9198.73
8967.81
8658.73
8252.88
7725.08
7047.45
6195.69
5174.69
4042.46
2840.9
1604.34
597.704
131.372
19.9574
2.06872
0.192895
0.0523443
0.0442705
0.0468276
0.0511057
0.0562125
0.0622136
0.0692841
0.0778142
0.0885677
0.103203
0.122618
0.146413
0.171594
0.200703
0.25152
0.332859
0.471454
0.740765
1.3823
3.52542
16.7879
1.53937
0.393435
1.02109
3.20565
7.77199
15.7696
28.3941
47.0026
73.1918
108.89
156.297
218.981
300.508
405.16
537.443
702.069
902.292
1141.61
1424.17
1754.88
2137.81
2571.89
3050.78
3564.63
4100.49
4647.5
5196.61
5742.13
6275.88
6789.48
7272.11
7713.49
8109.46
8461.27
8766.82
9022.22
9224.8
9373.73
9470.83
9521.04
9523.53
9474.67
9372.89
9215.82
8997.99
8708.71
8331.76
7845.25
7221.91
6436.85
5480.43
4393.14
3236.62
2021.97
906.803
246.012
44.5182
5.57008
0.509216
0.0703169
0.0427067
0.0434529
0.0469991
0.0514435
0.0566329
0.0626713
0.0698169
0.078472
0.0896682
0.104918
0.124331
0.146811
0.168357
0.199543
0.251466
0.332847
0.471438
0.740707
1.38222
3.52513
16.7869
1.53263
0.391557
1.01534
3.18369
7.71497
15.6554
28.2505
46.8966
73.1829
108.997
156.629
218.661
299.426
403.028
534.29
698.057
899.111
1140.05
1423.47
1752.35
2130.15
2558.85
3034.51
3547.7
4086.12
4635.31
5184.16
5724.24
6251.85
6762.11
7245.24
7691.12
8090.77
8441.29
8745.21
9001.57
9207.63
9361.39
9462.58
9513.18
9517.57
9474.68
9380.63
9232.25
9025.57
8753.17
8400.84
7949.51
7374.72
6649.58
5758.99
4720.49
3605.37
2425.35
1265.74
420.742
89.3608
13.6784
1.42978
0.137412
0.0441508
0.0407356
0.0434667
0.0472906
0.0518229
0.0570445
0.0631353
0.0703513
0.0792218
0.0909777
0.10668
0.125775
0.145678
0.165403
0.199177
0.251452
0.332842
0.47141
0.740673
1.38208
3.5248
16.7872
1.52975
0.390359
1.0122
3.16767
7.66539
15.5457
28.054
46.6714
73.034
109.003
156.808
219.153
299.035
401.638
531.571
694.092
894.143
1136.2
1421.66
1751.6
2127.29
2550.23
3020.03
3529.93
4067.89
4620.07
5171.46
5711.6
6233.94
6738.2
7218.24
7665
8069.49
8424.05
8727.09
8982.22
9189.62
9347.15
9453.36
9508.31
9513.87
9473.8
9386.63
9247.26
9051.41
8793.3
8462.32
8041.12
7508.18
6838.11
6009.19
5026.45
3945.73
2809.52
1641.96
663.468
166.126
30.0104
3.78789
0.354987
0.0557264
0.0388972
0.040479
0.0436914
0.0476375
0.0522014
0.0574566
0.0635856
0.0708977
0.0800846
0.0924402
0.10822
0.126417
0.143149
0.163781
0.199092
0.251446
0.33284
0.471393
0.740636
1.38203
3.52455
16.7868
1.52878
0.39013
1.01211
3.16009
7.63028
15.4515
27.8661
46.3592
72.6982
108.8
156.838
219.431
299.734
401.168
529.819
690.684
889.244
1130.16
1417.07
1749.5
2126.47
2547.03
3010.5
3514.13
4048.81
4600.76
5155.55
5698.54
6221.25
6720.48
7194.77
7638.7
8044.42
8404.13
8711.51
8966.2
9172.76
9332.03
9442.3
9502.5
9512.75
9474.74
9391.5
9260.19
9074.99
8830.31
8517.39
8122.72
7625.93
7004.13
6234.48
5308.55
4265.52
3166.13
2020.14
957.497
288.273
59.8582
9.06893
0.968552
0.101184
0.0391854
0.0379954
0.0406123
0.043991
0.047997
0.0525861
0.0578633
0.0640414
0.0714902
0.0810793
0.0939302
0.109699
0.12626
0.140073
0.163218
0.199072
0.251449
0.332826
0.471383
0.740587
1.38193
3.5243
16.7864
1.52862
0.390162
1.01449
3.16257
7.61537
15.3861
27.7048
46.0594
72.2286
108.324
156.576