/*--------------------------------*- C++ -*----------------------------------*\
| =========                 |                                                 |
| \\      /  F ield         | OpenFOAM: The Open Source CFD Toolbox           |
|  \\    /   O peration     | Version:  v2012                                 |
|   \\  /    A nd           | Website:  www.openfoam.com                      |
|    \\/     M anipulation  |                                                 |
\*---------------------------------------------------------------------------*/
FoamFile
{
    version     2.0;
    format      ascii;
    class       volScalarField;
    location    "11500";
    object      lamda2;
}
// * * * * * * * * * * * * * * * * * * * * * * * * * * * * * * * * * * * * * //

dimensions      [0 0 0 0 0 0 0];


internalField   nonuniform List<scalar> 
53312
(
0.000237811
5.27032e-05
0.00591953
1.43624e-05
0.00156702
0.0309028
8.27677e-06
0.000471611
0.0106096
0.0726825
5.51411e-06
0.000279222
0.00363109
0.0333075
0.0946395
3.96697e-06
0.000188332
0.00222345
0.0135109
0.0710296
0.0969604
3.0964e-06
0.00013682
0.00152431
0.00861136
0.0331133
0.119386
0.0895835
2.53884e-06
0.000107421
0.00112101
0.0060307
0.022111
0.0623765
0.17147
0.0784988
2.15283e-06
8.84409e-05
0.000886914
0.00450389
0.0158936
0.0434175
0.100401
0.220879
0.0671959
1.87097e-06
7.52274e-05
0.000734051
0.00359889
0.0120694
0.0321861
0.0727158
0.144562
0.263195
0.0573505
1.65431e-06
6.55309e-05
0.000626528
0.0029979
0.00975282
0.0248024
0.0552641
0.108831
0.191768
0.296419
0.0486531
1.48415e-06
5.80453e-05
0.000547306
0.00255931
0.0081696
0.0202846
0.0435355
0.0848471
0.149836
0.23927
0.319873
0.040881
1.35249e-06
5.2142e-05
0.000484664
0.0022413
0.00685526
0.0171762
0.0361415
0.0683174
0.119791
0.193559
0.284412
0.334319
0.0340913
1.26457e-06
4.75449e-05
0.000435224
0.00194523
0.00603789
0.0146204
0.0309517
0.0575759
0.0985307
0.158558
0.237922
0.325811
0.340714
0.0282859
1.21811e-06
4.43755e-05
0.000394396
0.00172352
0.005297
0.0129602
0.0266946
0.0498897
0.0842971
0.133115
0.19948
0.281158
0.36219
0.3404
0.0233976
1.22885e-06
4.27451e-05
0.000349451
0.00156821
0.00473049
0.0114772
0.0238295
0.0435651
0.0739011
0.115588
0.170752
0.240957
0.321888
0.393116
0.334641
0.0193298
1.31434e-06
4.30559e-05
0.000336555
0.00141223
0.00432133
0.0103231
0.0212883
0.0391745
0.0653037
0.102521
0.15039
0.210052
0.281591
0.359235
0.41826
0.324554
0.0159758
1.47944e-06
4.59608e-05
0.00033856
0.00136077
0.0039337
0.00946971
0.0192794
0.0352921
0.0591738
0.0916198
0.134908
0.187549
0.249683
0.320251
0.392447
0.437947
0.311122
0.0132259
1.69317e-06
5.15792e-05
0.00036042
0.00136728
0.00379368
0.00869139
0.0177647
0.0321784
0.0537461
0.0836567
0.121884
0.170088
0.225829
0.288479
0.356183
0.421376
0.452381
0.295069
0.010821
1.90807e-06
5.8799e-05
0.000402902
0.00145145
0.00380831
0.00839226
0.0164174
0.0297904
0.0493332
0.0765883
0.112144
0.15525
0.206952
0.264085
0.32547
0.388666
0.446009
0.462048
0.277078
0.0088446
2.09984e-06
6.59832e-05
0.000457226
0.0016155
0.00403132
0.00841879
0.0158762
0.0277012
0.0458969
0.0707667
0.103461
0.143917
0.19074
0.24441
0.30131
0.35992
0.417578
0.466429
0.467401
0.258457
0.00718319
2.26095e-06
7.23172e-05
0.000511009
0.00182394
0.00446623
0.00888666
0.0159185
0.026834
0.0429221
0.0661695
0.0962214
0.133764
0.178106
0.227325
0.281453
0.336677
0.391331
0.442739
0.48293
0.468822
0.238052
0.00587474
2.39854e-06
7.75815e-05
0.000558019
0.00202894
0.00501471
0.00979754
0.0167557
0.0268965
0.041656
0.0622141
0.0904277
0.125197
0.166723
0.213759
0.264017
0.317206
0.369547
0.419402
0.464205
0.495864
0.466597
0.216295
0.00484083
2.50827e-06
8.20261e-05
0.000596964
0.00220634
0.00555005
0.0109368
0.0183809
0.0282332
0.0417443
0.0604979
0.0854595
0.118255
0.157007
0.201459
0.249921
0.299919
0.35096
0.399489
0.444
0.482252
0.505587
0.460835
0.193685
0.00404149
2.59783e-06
8.55349e-05
0.000629629
0.00235266
0.00600854
0.0120394
0.0203947
0.0308099
0.0436942
0.0606224
0.0832724
0.112307
0.149042
0.190843
0.237057
0.285697
0.33426
0.38217
0.426234
0.465292
0.497026
0.512456
0.451416
0.170902
0.00335275
2.66569e-06
8.83694e-05
0.00065523
0.00247447
0.00638446
0.012973
0.0223248
0.0339706
0.0474323
0.0632805
0.0834391
0.109657
0.14221
0.182041
0.225835
0.272632
0.320293
0.366427
0.410478
0.449752
0.48317
0.508989
0.516735
0.43878
0.146385
0.00266823
2.71861e-06
9.04997e-05
0.000675715
0.00256919
0.00669531
0.0137353
0.0239407
0.036975
0.051969
0.0683264
0.0868584
0.109883
0.13914
0.174479
0.216432
0.261115
0.307373
0.353048
0.395972
0.435683
0.469958
0.498151
0.518412
0.518945
0.422751
0.122257
0.00203505
2.75508e-06
9.21293e-05
0.000690867
0.00264423
0.00693528
0.014361
0.0252531
0.0394594
0.0562353
0.0743834
0.0932866
0.114079
0.139441
0.171054
0.208326
0.251361
0.295868
0.340581
0.38345
0.422604
0.457732
0.487132
0.510399
0.525766
0.518859
0.40445
0.101071
0.00149085
2.77549e-06
9.32365e-05
0.000702312
0.00269896
0.00712361
0.0148402
0.026323
0.0414672
0.0597205
0.0800188
0.1009
0.121866
0.144376
0.171442
0.204634
0.242926
0.286035
0.329368
0.371691
0.411135
0.44618
0.476687
0.501433
0.520279
0.531178
0.517082
0.3828
0.083078
0.00103135
2.78456e-06
9.3846e-05
0.000709848
0.00273969
0.00725924
0.0152138
0.0271384
0.0430907
0.0625226
0.0845613
0.107905
0.130969
0.15341
0.177036
0.205118
0.239074
0.277489
0.319695
0.361014
0.400284
0.435893
0.466686
0.4927
0.513206
0.528142
0.535169
0.513474
0.356978
0.0677506
0.000584547
2.78828e-06
9.40553e-05
0.000713679
0.0027658
0.00735894
0.0154793
0.0277678
0.0443216
0.0647764
0.0881975
0.113489
0.13925
0.163821
0.187115
0.211242
0.239651
0.273566
0.31125
0.351721
0.390336
0.426085
0.457647
0.484221
0.506057
0.522682
0.534336
0.537906
0.50818
0.327198
0.0552368
0.000222658
2.78556e-06
9.41189e-05
0.000714536
0.00277771
0.00742084
0.0156725
0.0282123
0.0452668
0.0664737
0.0911039
0.117937
0.145763
0.173176
0.198563
0.222115
0.246164
0.274226
0.307354
0.343561
0.381598
0.417007
0.448952
0.47643
0.498957
0.516932
0.53029
0.539198
0.539612
0.501241
0.294682
0.0437246
6.6127e-05
2.77517e-06
9.39612e-05
0.000714385
0.00277867
0.00744659
0.0157894
0.0285321
0.0459275
0.0677704
0.0932822
0.121468
0.15092
0.180442
0.208727
0.234255
0.257481
0.280908
0.308072
0.339768
0.373882
0.408959
0.440812
0.468869
0.492369
0.511172
0.525736
0.536321
0.543024
0.540558
0.491687
0.259759
0.0323955
1.82422e-05
2.7595e-06
9.35604e-05
0.000712547
0.00277611
0.00744446
0.0158336
0.0287209
0.0463994
0.0686703
0.0949387
0.124097
0.154999
0.18618
0.216509
0.244883
0.269916
0.292332
0.314732
0.34052
0.370247
0.401799
0.433541
0.461728
0.485918
0.505705
0.521076
0.532783
0.541113
0.546265
0.540928
0.476842
0.22285
0.0224822
4.42561e-06
2.74181e-06
9.29977e-05
0.00070904
0.00276706
0.00743332
0.0158219
0.0287857
0.0466735
0.0693083
0.0960792
0.12609
0.158025
0.190678
0.22263
0.252925
0.280679
0.304666
0.3259
0.346938
0.370956
0.398365
0.427035
0.455276
0.479748
0.500271
0.516622
0.529086
0.538332
0.545062
0.548971
0.540876
0.455261
0.183992
0.0148955
7.11944e-07
2.72183e-06
9.23716e-05
0.000704294
0.00275191
0.00740595
0.0157925
0.0287553
0.0467582
0.0696714
0.096885
0.127459
0.160304
0.194003
0.227412
0.259228
0.288686
0.315194
0.337735
0.357481
0.376926
0.398989
0.423803
0.449437
0.47412
0.495034
0.512161
0.525479
0.535394
0.542792
0.548385
0.551799
0.539643
0.425411
0.145423
0.00956236
5.28188e-09
2.69819e-06
9.1664e-05
0.000699091
0.00273233
0.00736325
0.0157299
0.0286961
0.0467011
0.0697757
0.0973353
0.128416
0.16186
0.196504
0.230928
0.264127
0.294953
0.322936
0.347682
0.368457
0.386573
0.404306
0.42428
0.446408
0.468971
0.490192
0.507789
0.521855
0.532544
0.54042
0.546455
0.551591
0.555137
0.534816
0.38666
0.109302
0.00602464
1.13628e-07
2.67368e-06
9.08425e-05
0.000693324
0.00271097
0.00730902
0.0156378
0.0285796
0.0465986
0.0696828
0.0974531
0.128946
0.162947
0.198201
0.233566
0.267706
0.299798
0.328957
0.354886
0.377554
0.396387
0.412731
0.428804
0.446678
0.466123
0.485706
0.50369
0.518268
0.529638
0.538134
0.544442
0.549687
0.555099
0.559062
0.523922
0.339011
0.0782968
0.00362677
3.7531e-07
2.6503e-06
8.99969e-05
0.000686791
0.00268769
0.0072507
0.0155227
0.0284136
0.0464108
0.069529
0.0973207
0.129071
0.163541
0.199383
0.235344
0.27038
0.303328
0.333588
0.360496
0.384038
0.40437
0.421184
0.435842
0.450229
0.466126
0.483004
0.499831
0.514871
0.526742
0.535815
0.54256
0.547799
0.552895
0.559658
0.56216
0.504627
0.284008
0.0528385
0.00213139
8.17245e-07
2.62753e-06
8.91928e-05
0.000680123
0.00266159
0.00718761
0.0153991
0.0282081
0.0461487
0.0692563
0.09711
0.1289
0.163672
0.20002
0.236576
0.272181
0.30596
0.336955
0.364799
0.389084
0.409987
0.427941
0.442727
0.455742
0.468641
0.482713
0.497258
0.511635
0.523987
0.533498
0.54069
0.546142
0.550859
0.556704
0.565543
0.561987
0.474802
0.224804
0.0340401
0.00115667
8.76558e-07
2.60329e-06
8.84042e-05
0.000673738
0.00263511
0.00711736
0.0152659
0.0279889
0.045828
0.0688825
0.0967459
0.128632
0.163462
0.200146
0.237235
0.273425
0.307723
0.339462
0.367904
0.392933
0.41436
0.432591
0.448122
0.461046
0.472612
0.484145
0.496667
0.509251
0.521355
0.531289
0.538838
0.544571
0.549211
0.554081
0.561821
0.571865
0.556181
0.432606
0.167278
0.0212427
0.00056347
5.27159e-07
2.57559e-06
8.75761e-05
0.000667504
0.00260978
0.00704666
0.0151196
0.0277536
0.0454858
0.0684272
0.0962538
0.128178
0.163141
0.199908
0.237354
0.274083
0.308936
0.341125
0.370203
0.3957
0.417686
0.436216
0.451773
0.465078
0.476324
0.486536
0.497086
0.508523
0.519251
0.529211
0.537104
0.543065
0.547776
0.552154
0.558127
0.568722
0.576488
0.542189
0.377761
0.117599
0.0127934
0.00025317
2.00711e-07
2.54681e-06
8.66445e-05
0.000661051
0.00258524
0.00697905
0.0149719
0.0274957
0.0451196
0.0679436
0.0956582
0.127572
0.162606
0.199544
0.237091
0.274187
0.309571
0.342264
0.37173
0.397753
0.420069
0.438971
0.454655
0.467729
0.479015
0.488693
0.498115
0.508217
0.518593
0.52742
0.535521
0.541704
0.546487
0.550646
0.555482
0.563859
0.576332
0.577552
0.517108
0.31241
0.0788137
0.00723581
9.76617e-05
1.32536e-07
2.52383e-06
8.56784e-05
0.000653792
0.00255969
0.00691326
0.0148309
0.0272371
0.0447189
0.0674265
0.095026
0.126841
0.161898
0.198945
0.236698
0.273915
0.309657
0.342859
0.372773
0.399098
0.421829
0.440945
0.456834
0.469852
0.480702
0.490136
0.498888
0.508188
0.517829
0.526947
0.534021
0.540558
0.545414
0.549425
0.553597
0.559971
0.571393
0.582986
0.572816
0.478031
0.242589
0.0505361
0.00393349
2.84892e-05
2.41989e-07
2.50166e-06
8.48872e-05
0.000646406
0.00253151
0.00684549
0.0146941
0.0269889
0.0443181
0.0668627
0.0943502
0.126066
0.161047
0.198153
0.236052
0.273502
0.309379
0.342922
0.373307
0.400011
0.422979
0.442394
0.458376
0.471471
0.482109
0.490938
0.499193
0.507803
0.517088
0.525948
0.533794
0.539359
0.544641
0.54854
0.55223
0.557203
0.566391
0.579583
0.587007
0.559161
0.423144
0.176277
0.0305271
0.00203204
3.20304e-06
3.28418e-07
2.47844e-06
8.41344e-05
0.000640298
0.00250287
0.00677064
0.0145529
0.0267486
0.0439342
0.0662982
0.0936138
0.125237
0.160147
0.19721
0.235208
0.272832
0.308964
0.342651
0.373345
0.400475
0.423756
0.443325
0.459516
0.472617
0.483179
0.491695
0.499161
0.507074
0.515766
0.524655
0.532702
0.539398
0.543753
0.548094
0.551399
0.555338
0.562345
0.57439
0.586865
0.587009
0.533262
0.353537
0.119353
0.01722
0.000947493
8.72852e-07
3.05275e-07
2.45381e-06
8.33527e-05
0.000634492
0.00247897
0.00669542
0.0143981
0.0265008
0.0435615
0.0657572
0.0928795
0.124333
0.159184
0.19621
0.2342
0.271962
0.308291
0.342242
0.373085
0.400487
0.424139
0.44395
0.46024
0.473453
0.483928
0.492295
0.499298
0.506201
0.514111
0.522518
0.530989
0.538312
0.544134
0.547522
0.551191
0.554314
0.559422
0.569469
0.582636
0.592142
0.579875
0.491137
0.274923
0.0750096
0.00922543
0.00038916
2.72224e-06
2.18677e-07
2.42867e-06
8.25253e-05
0.000628472
0.00245644
0.00663231
0.0142431
0.0262301
0.0431767
0.065232
0.0921728
0.123434
0.158135
0.195141
0.233136
0.270926
0.307421
0.341586
0.372692
0.400245
0.424121
0.444251
0.460719
0.473966
0.484486
0.492706
0.499432
0.505767
0.512539
0.520079
0.52812
0.53632
0.543182
0.5483
0.550911
0.554136
0.557602
0.565378
0.577673
0.58991
0.594264
0.562462
0.429972
0.19663
0.0443029
0.00469378
0.000146524
1.46703e-06
1.30816e-07
2.40499e-06
8.16828e-05
0.000622162
0.00243315
0.00657274
0.0141125
0.0259598
0.0427586
0.06469
0.0914872
0.122568
0.157089
0.193976
0.231995
0.269831
0.30639
0.340745
0.37207
0.399876
0.423899
0.444205
0.460934
0.4743
0.48481
0.493002
0.499509
0.505504
0.511596
0.517864
0.524909
0.532775
0.540947
0.547567
0.55205
0.553968
0.556965
0.562286
0.572988
0.585619
0.595414
0.590695
0.529862
0.351029
0.129282
0.0237094
0.00203315
4.02839e-05
6.09136e-09
6.94224e-08
2.38571e-06
8.08925e-05
0.000615806
0.00240874
0.00651126
0.0139893
0.0257316
0.0423417
0.0641011
0.0907796
0.121728
0.156084
0.192817
0.230753
0.26866
0.305301
0.339748
0.371278
0.399299
0.423558
0.444005
0.460859
0.474434
0.485015
0.493149
0.499579
0.505289
0.510936
0.516444
0.522109
0.528834
0.536729
0.545131
0.551441
0.555205
0.556412
0.56038
0.568987
0.580995
0.592444
0.598348
0.578351
0.476659
0.262856
0.0774432
0.0117761
0.000667947
7.34866e-06
9.75318e-07
3.56396e-08
2.36746e-06
8.02404e-05
0.000609829
0.00238436
0.00644733
0.0138622
0.0255161
0.0419886
0.0635161
0.0900102
0.120858
0.155106
0.191699
0.229519
0.267381
0.304135
0.338697
0.370343
0.398572
0.423035
0.443693
0.460681
0.474331
0.485073
0.493231
0.499566
0.505131
0.510432
0.515459
0.520287
0.525491
0.532076
0.540105
0.548653
0.554418
0.55695
0.558539
0.565637
0.576707
0.588277
0.597663
0.596598
0.551772
0.400706
0.178536
0.0408208
0.00639122
0.000172085
5.42486e-07
1.57363e-06
1.85705e-08
2.34635e-06
7.96321e-05
0.000604936
0.00236162
0.00638358
0.0137307
0.0252939
0.0416551
0.06302
0.0892486
0.119915
0.154093
0.190612
0.228328
0.266112
0.302862
0.337572
0.369356
0.397716
0.422382
0.443226
0.460399
0.474173
0.484944
0.493216
0.499534
0.504949
0.510078
0.514702
0.518973
0.523258
0.528185
0.534685
0.542636
0.550903
0.555287
0.556883
0.562461
0.572481
0.584003
0.594326
0.600773
0.586968
0.504005
0.307832
0.107441
0.0195283
0.00250044
5.37123e-05
1.49675e-08
4.92826e-07
9.82878e-09
2.32309e-06
7.895e-05
0.000600339
0.00234288
0.0063244
0.0135996
0.025064
0.0413113
0.0625502
0.0886015
0.118983
0.152995
0.189486
0.227166
0.264884
0.3016
0.336342
0.368299
0.396813
0.421617
0.442652
0.459987
0.473917
0.484806
0.493065
0.499438
0.504801
0.50974
0.514152
0.51797
0.521648
0.525572
0.530275
0.536418
0.543501
0.550362
0.553494
0.557093
0.568694
0.579362
0.590241
0.599031
0.5998
0.56356
0.430087
0.211253
0.0559803
0.0097182
0.000302785
1.7175e-05
4.2069e-10
9.17508e-09
5.05371e-09
2.29946e-06
7.81846e-05
0.000595173
0.00232525
0.00627552
0.0134786
0.0248366
0.0409566
0.0620658
0.0879876
0.118189
0.151912
0.188264
0.225961
0.263689
0.30038
0.335125
0.367144
0.395847
0.420811
0.441984
0.459493
0.473558
0.484572
0.492943
0.499247
0.504603
0.509481
0.513682
0.517239
0.520404
0.523647
0.527288
0.531554
0.536604
0.542027
0.547085
0.552355
0.560295
0.575017
0.585343
0.595365
0.601911
0.591423
0.51796
0.333187
0.125856
0.0265809
0.00553387
6.46082e-06
1.80529e-06
1.44769e-06
5.74456e-07
2.58622e-09
2.27924e-06
7.74056e-05
0.000589457
0.00230554
0.00622939
0.0133784
0.0246265
0.0406057
0.0615667
0.0873545
0.117435
0.150989
0.187061
0.224654
0.262445
0.299187
0.333945
0.366003
0.39479
0.41995
0.44128
0.458921
0.473138
0.484261
0.492727
0.499126
0.50435
0.509184
0.513328
0.51663
0.519491
0.522165
0.525068
0.528286
0.531925
0.536003
0.540463
0.545302
0.555316
0.565803
0.580211
0.590312
0.599409
0.60117
0.568938
0.443082
0.22685
0.0648327
0.0126372
0.000597562
1.00054e-07
7.56543e-08
1.38328e-05
1.44656e-06
1.23414e-09
2.26547e-06
7.67352e-05
0.000583698
0.00228388
0.00617804
0.0132836
0.0244524
0.0402826
0.061074
0.0867027
0.116656
0.15011
0.186036
0.223372
0.2611
0.297946
0.332792
0.364895
0.393749
0.419006
0.440528
0.458318
0.472655
0.483908
0.492458
0.4989
0.504207
0.5089
0.512931
0.516183
0.518745
0.521071
0.523351
0.52582
0.528805
0.532287
0.536855
0.542266
0.548901
0.559797
0.571509
0.584421
0.59441
0.601845
0.592978
0.5224
0.340326
0.132186
0.0302948
0.00669544
1.87125e-05
4.38137e-07
6.65189e-07
2.40057e-05
1.37402e-06
5.28647e-10
2.25283e-06
7.62675e-05
0.000578774
0.00226221
0.00612192
0.0131783
0.0242871
0.0400142
0.0606212
0.0860593
0.115857
0.149202
0.185056
0.222277
0.259778
0.296602
0.33159
0.363812
0.392736
0.418079
0.439704
0.457676
0.472149
0.483509
0.492164
0.498641
0.503935
0.508731
0.512672
0.515677
0.518196
0.520181
0.522075
0.523989
0.526285
0.529676
0.53395
0.539938
0.547057
0.554986
0.563091
0.576319
0.587937
0.597808
0.600847
0.569523
0.442767
0.225878
0.0662176
0.0145027
0.000549219
9.73781e-08
6.08095e-07
7.58809e-07
1.84851e-05
6.81759e-07
2.23962e-10
2.23915e-06
7.58539e-05
0.000575363
0.00224378
0.0060661
0.0130638
0.0241037
0.0397593
0.0602447
0.0854699
0.115068
0.148269
0.184042
0.221226
0.258649
0.295286
0.33029
0.362681
0.391743
0.417177
0.438899
0.456974
0.471611
0.483089
0.491838
0.498372
0.503646
0.508426
0.512464
0.51548
0.517587
0.519517
0.521038
0.522591
0.524441
0.527248
0.531519
0.537098
0.544376
0.552297
0.559554
0.566589
0.579959
0.591094
0.599744
0.591894
0.518874
0.331725
0.126379
0.0311288
0.00644565
7.29923e-05
1.72262e-05
3.39564e-06
2.18662e-07
6.17742e-06
3.06779e-07
8.98858e-11
2.22224e-06
7.542e-05
0.000572358
0.00223106
0.00601877
0.0129503
0.0239054
0.0394765
0.0598849
0.08498
0.114346
0.147351
0.183001
0.22014
0.257567
0.294161
0.329017
0.361457
0.390707
0.416291
0.438112
0.456289
0.471022
0.482642
0.491498
0.49808
0.503361
0.508121
0.512153
0.515196
0.517446
0.51884
0.520246
0.521433
0.522949
0.525279
0.528946
0.534366
0.541304
0.549202
0.556371
0.560606
0.570534
0.583061
0.59381
0.598265
0.565362
0.430619
0.210408
0.0618542
0.0140586
0.000325582
1.91398e-05
3.19669e-05
6.81016e-06
5.30292e-06
2.1702e-07
1.21116e-07
3.38387e-11
2.2016e-06
7.48679e-05
0.000569182
0.00221994
0.00598637
0.0128549
0.0237101
0.0391716
0.0594876
0.0845101
0.113744
0.146509
0.181979
0.219026
0.256442
0.293076
0.32793
0.360263
0.389588
0.415365
0.437339
0.455619
0.470451
0.482158
0.491136
0.497775
0.50306
0.507832
0.511857
0.514886
0.517074
0.518698
0.519575
0.52053
0.521673
0.523576
0.52669
0.531371
0.538087
0.54609
0.553751
0.558605
0.560353
0.573711
0.58587
0.595304
0.587503
0.506908
0.309139
0.112184
0.0285709
0.00465007
4.11537e-05
4.75171e-06
1.67298e-05
2.90461e-06
1.99861e-05
1.0102e-06
4.34406e-08
1.19042e-11
2.1813e-06
7.42151e-05
0.000565157
0.00220811
0.00595805
0.0127893
0.0235455
0.038872
0.0590593
0.0839893
0.113166
0.14581
0.181046
0.217932
0.255288
0.291953
0.326879
0.359241
0.388497
0.414365
0.436532
0.45496
0.46989
0.481693
0.490744
0.497467
0.502749
0.507532
0.511589
0.5146
0.516759
0.518258
0.519333
0.519934
0.520726
0.522147
0.52465
0.528742
0.534757
0.542317
0.55037
0.556888
0.558688
0.562738
0.576455
0.588293
0.592774
0.555486
0.405587
0.184605
0.0535893
0.0107797
0.000177731
1.65626e-05
2.32466e-05
1.6643e-07
7.99572e-07
3.4694e-05
3.00095e-06
1.44929e-08
3.96323e-12
2.16262e-06
7.35509e-05
0.000560418
0.00219319
0.00592791
0.0127322
0.0234327
0.0386202
0.0586404
0.0834324
0.112527
0.145136
0.180266
0.216931
0.254158
0.290799
0.325786
0.358248
0.387561
0.413392
0.435664
0.454269
0.469339
0.481235
0.490368
0.497153
0.502454
0.507228
0.511319
0.514348
0.516477
0.517931
0.518854
0.519492
0.520095
0.521126
0.523029
0.526314
0.531514
0.538601
0.546178
0.55313
0.557285
0.556366
0.566446
0.579186
0.589198
0.578785
0.484665
0.273417
0.09386
0.0223032
0.00228813
1.24137e-05
1.71554e-07
1.43243e-05
4.60089e-07
7.98201e-07
2.74352e-05
3.17757e-06
4.99935e-09
1.18412e-12
2.15068e-06
7.29476e-05
0.000555631
0.00217566
0.00588972
0.0126717
0.0233356
0.0384491
0.0582903
0.0828881
0.111842
0.144387
0.179512
0.216099
0.253128
0.289668
0.324666
0.357218
0.38665
0.412559
0.43482
0.453528
0.468763
0.48078
0.489998
0.496858
0.502173
0.50693
0.511045
0.514096
0.516238
0.517647
0.518514
0.519004
0.51945
0.520253
0.52172
0.524319
0.528644
0.534741
0.54197
0.548889
0.554116
0.555088
0.554841
0.569599
0.581504
0.584933
0.537573
0.366597
0.15227
0.0419314
0.00671571
0.000200631
2.82669e-06
6.70414e-07
1.20554e-05
1.29378e-05
1.71349e-06
7.49149e-06
1.46301e-06
1.48347e-09
3.29742e-13
2.14398e-06
7.25594e-05
0.000551342
0.00215806
0.00584551
0.0125949
0.0232312
0.0383007
0.0580514
0.082433
0.111176
0.143591
0.178676
0.215289
0.252267
0.288639
0.323572
0.356163
0.385703
0.411744
0.434092
0.452811
0.468148
0.480307
0.489632
0.496564
0.501914
0.506636
0.510763
0.513852
0.516002
0.517414
0.51823
0.518646
0.518937
0.519468
0.520564
0.522615
0.526128
0.531403
0.537756
0.544492
0.550419
0.553396
0.551048
0.55744
0.572217
0.581607
0.565356
0.448774
0.227885
0.0725631
0.0145147
0.000394323
1.19806e-05
1.61319e-07
1.11353e-06
6.74901e-06
7.81133e-06
1.701e-05
4.86504e-11
4.46363e-07
4.07537e-10
8.51081e-14
2.13738e-06
7.23463e-05
0.000548652
0.0021425
0.00580088
0.0125058
0.0230995
0.038142
0.0578462
0.0821249
0.110621
0.142816
0.177788
0.21439
0.251428
0.287779
0.322574
0.35513
0.384735
0.410896
0.433378
0.452193
0.467552
0.479805
0.48925
0.496272
0.501656
0.506372
0.510472
0.513602
0.51578
0.517186
0.517995
0.518349
0.518547
0.518877
0.519625
0.521181
0.524039
0.528422
0.533991
0.540112
0.546292
0.550815
0.550585
0.548333
0.561735
0.574262
0.574212
0.509666
0.313109
0.117099
0.0283312
0.00288119
2.20277e-05
1.0194e-06
4.54024e-07
2.7659e-06
1.27847e-07
6.27266e-06
3.04572e-05
3.44793e-06
1.17695e-07
1.03118e-10
1.99649e-14
2.12827e-06
7.21527e-05
0.00054725
0.002133
0.00576199
0.0124167
0.0229478
0.0379413
0.0576248
0.0818593
0.110247
0.142173
0.176926
0.213438
0.250497
0.286938
0.32174
0.354191
0.383788
0.410029
0.432638
0.451584
0.467037
0.479323
0.488848
0.495969
0.5014
0.506105
0.510214
0.513341
0.515554
0.51698
0.517771
0.518106
0.518222
0.51842
0.518903
0.520025
0.522263
0.525925
0.530612
0.536079
0.542048
0.547416
0.549604
0.545771
0.55058
0.564867
0.572795
0.545
0.397491
0.176098
0.0501661
0.0072601
0.000213975
2.35724e-06
1.58298e-08
2.08877e-06
3.86801e-06
1.55181e-06
1.70444e-06
3.5329e-05
6.01108e-06
2.90859e-08
2.41707e-11
4.18651e-15
2.11244e-06
7.18693e-05
0.000545974
0.00212826
0.00573864
0.0123397
0.0227957
0.03771
0.0573445
0.0815725
0.109924
0.14174
0.176213
0.212518
0.249512
0.286003
0.320921
0.353405
0.382928
0.409183
0.431882
0.45095
0.466525
0.478902
0.488465
0.495653
0.501132
0.505839
0.509956
0.513116
0.515321
0.516771
0.517578
0.51788
0.51795
0.518034
0.518339
0.519108
0.52082
0.523786
0.527755
0.532411
0.53801
0.543653
0.547527
0.546177
0.542721
0.555305
0.566538
0.559701
0.467224
0.248868
0.0812876
0.0156337
0.000794421
7.93801e-06
8.98716e-08
1.25519e-06
2.30524e-06
4.38187e-06
1.85305e-05
1.59268e-06
1.41608e-05
3.90675e-06
7.05966e-09
4.95886e-12
7.9175e-16
2.09348e-06
7.13768e-05
0.000544007
0.00212398
0.00572776
0.0122946
0.0226656
0.0374795
0.0570234
0.0812094
0.109573
0.141365
0.175734
0.211757
0.248564
0.285018
0.320011
0.352629
0.382205
0.408414
0.431146
0.450306
0.465996
0.478481
0.488128
0.495353
0.500859
0.505567
0.509697
0.512891
0.515123
0.516556
0.517385
0.517689
0.517709
0.51771
0.517854
0.518389
0.519645
0.522013
0.525278
0.529278
0.534225
0.539886
0.544758
0.545952
0.541234
0.545499
0.559028
0.561957
0.514304
0.328717
0.123789
0.028864
0.0025227
4.19927e-05
1.41045e-07
1.65078e-09
6.6708e-06
6.65238e-07
2.69785e-06
9.24056e-06
8.78049e-06
4.19701e-10
1.1211e-06
1.43487e-09
9.23849e-13
1.35305e-16
2.07513e-06
7.07871e-05
0.000540541
0.00211703
0.00571786
0.0122743
0.0225907
0.0372838
0.0567038
0.080794
0.10913
0.140959
0.175321
0.211249
0.247781
0.28407
0.319055
0.351769
0.381491
0.407768
0.430475
0.449678
0.46546
0.478048
0.487787
0.49509
0.500608
0.505293
0.509427
0.512661
0.514925
0.516385
0.517188
0.517504
0.517512
0.517432
0.517463
0.517774
0.518707
0.520535
0.523194
0.526518
0.53093
0.536191
0.541664
0.544844
0.542054
0.538998
0.550808
0.559176
0.538724
0.405808
0.178707
0.0484046
0.00606319
0.000150716
2.39931e-06
2.86811e-07
3.06038e-06
1.1754e-05
1.1262e-06
4.34457e-08
4.38889e-06
3.62005e-05
5.78313e-06
2.22953e-07
2.66465e-10
1.55562e-13
1.9863e-17
2.05893e-06
7.01991e-05
0.0005364
0.0021047
0.00570113
0.0122563
0.0225594
0.0371738
0.0564349
0.0803817
0.108624
0.140444
0.174869
0.210809
0.24726
0.28329
0.318137
0.350867
0.380697
0.407125
0.429908
0.449106
0.464939
0.477608
0.487439
0.494818
0.500384
0.505042
0.509161
0.512423
0.514725
0.516215
0.517031
0.51732
0.517319
0.517208
0.517133
0.517274
0.517903
0.519336
0.521449
0.524177
0.527931
0.532837
0.538365
0.542961
0.542899
0.537407
0.542232
0.553886
0.548687
0.46757
0.246656
0.0752863
0.0124526
0.000524763
8.94978e-06
3.90956e-08
7.97556e-07
9.42096e-06
1.01444e-05
3.71504e-06
5.12551e-06
9.42081e-11
3.58365e-05
8.51098e-06
4.07626e-08
4.5532e-11
2.2152e-14
2.48555e-18
2.04685e-06
6.96855e-05
0.000532253
0.00208975
0.00567049
0.012224
0.0225311
0.0371299
0.0562867
0.0800376
0.108123
0.139858
0.174297
0.210327
0.246808
0.282773
0.317383
0.350004
0.37987
0.406413
0.429343
0.448622
0.464462
0.477183
0.487087
0.494541
0.500144
0.504817
0.508928
0.512195
0.514515
0.516034
0.516879
0.517179
0.517127
0.516999
0.516863
0.516856
0.517259
0.518322
0.519995
0.522187
0.525333
0.529684
0.535143
0.540405
0.54275
0.538346
0.536195
0.547034
0.550992
0.508574
0.323151
0.111787
0.0222545
0.00145171
2.52135e-05
4.94647e-07
1.81399e-07
5.87026e-06
1.48372e-05
4.94394e-06
4.13824e-06
1.43031e-05
3.76838e-06
5.85382e-06
3.94963e-06
7.19249e-09
6.3647e-12
2.81623e-15
2.49261e-19
2.04255e-06
6.93066e-05
0.000528739
0.00207493
0.00563354
0.0121641
0.0224777
0.0370908
0.0562312
0.079852
0.107709
0.139279
0.173646
0.209715
0.246311
0.282324
0.316884
0.349295
0.379079
0.405674
0.428719
0.448135
0.464053
0.476793
0.48675
0.494266
0.499906
0.504576
0.508721
0.512
0.514318
0.515846
0.516717
0.517037
0.516987
0.516792
0.516619
0.516521
0.516724
0.517493
0.518774
0.520469
0.5231
0.526889
0.531954
0.537587
0.54143
0.54006
0.533882
0.539515
0.548474
0.530768
0.401811
0.160144
0.0377396
0.00341036
6.7152e-05
2.5839e-06
2.46568e-07
3.95262e-06
1.08256e-05
1.7002e-05
2.00277e-07
1.12212e-06
1.01356e-05
2.91458e-05
3.34166e-06
8.00404e-07
9.76338e-10
8.40644e-13
2.91394e-16
4.78094e-20
2.04112e-06
6.9175e-05
0.000526205
0.0020625
0.00559694
0.0120915
0.0223773
0.0370125
0.056181
0.0797865
0.10749
0.138803
0.173007
0.209021
0.245678
0.281826
0.316449
0.348824
0.378431
0.404969
0.428073
0.447602
0.463641
0.476457
0.486437
0.494002
0.49967
0.504335
0.508488
0.511829
0.51416
0.515672
0.516544
0.516888
0.516851
0.516638
0.516388
0.516223
0.516286
0.516806
0.517778
0.51906
0.52108
0.524414
0.529024
0.534594
0.5395
0.540461
0.534775
0.53385
0.543273
0.540018
0.464923
0.229805
0.056756
0.00701187
0.000210746
5.73885e-06
4.21786e-07
4.27376e-06
8.65225e-06
1.24716e-05
1.6405e-05
1.56555e-06
7.34114e-08
3.08419e-07
5.12253e-05
1.10349e-05
1.02056e-07
1.34794e-10
8.89081e-14
2.40426e-17
7.73956e-21
2.03861e-06
6.91562e-05
0.000525534
0.00205398
0.00556682
0.0120198
0.0222555
0.0368622
0.0560762
0.0797286
0.107418
0.138558
0.172485
0.20834
0.244965
0.281195
0.315968
0.348416
0.378
0.404389
0.42746
0.447053
0.463194
0.476116
0.486165
0.493757
0.499448
0.504101
0.508256
0.511627
0.514022
0.51554
0.516385
0.516725
0.516703
0.516495
0.516215
0.515944
0.515903
0.516241
0.516945
0.517909
0.519461
0.52229
0.526371
0.531702
0.537052
0.540031
0.536572
0.530632
0.537385
0.541727
0.504073
0.317521
0.0869353
0.0134047
0.000381342
1.0268e-05
2.98903e-07
4.69776e-06
1.19688e-05
9.78805e-06
1.55671e-05
1.05795e-05
1.25933e-05
1.06556e-05
2.68362e-06
1.34e-05
6.47088e-06
1.51174e-08
1.40168e-11
8.42467e-15
1.73269e-18
3.69278e-23
2.03252e-06
6.90914e-05
0.00052566
0.00205245
0.00554691
0.0119617
0.0221356
0.0366801
0.0558701
0.0795956
0.107353
0.138486
0.172223
0.207792
0.244268
0.280485
0.315355
0.347961
0.377623
0.404002
0.426955
0.446531
0.462738
0.475748
0.485887
0.493541
0.499239
0.503882
0.508035
0.511426
0.513847
0.515428
0.516279
0.516579
0.516538
0.516343
0.516052
0.515732
0.515559
0.515752
0.516267
0.516943
0.518123
0.520461
0.524197
0.528965
0.53444
0.53863
0.538139
0.531167
0.531875
0.539327
0.524233
0.402369
0.139179
0.0206915
0.000621766
2.76621e-05
3.97598e-08
2.43149e-06
1.72261e-05
1.47775e-05
1.16613e-05
1.71343e-05
6.00779e-08
4.13561e-06
8.78803e-06
1.96213e-05
2.63076e-06
1.38491e-06
1.51511e-09
1.37465e-12
5.9912e-16
3.05142e-19
2.18243e-22
2.02218e-06
6.89226e-05
0.000525417
0.00205371
0.00554496
0.0119246
0.0220398
0.0365014
0.0556211
0.0793335
0.107197
0.138418
0.172152
0.207522
0.243709
0.279792
0.314668
0.347385
0.377205
0.403661
0.426615
0.446099
0.462305
0.475376
0.48559
0.493315
0.499051
0.503675
0.507829
0.511236
0.513671
0.515278
0.516193
0.516483
0.516396
0.516175
0.515883
0.515542
0.515294
0.515317
0.515681
0.51614
0.516977
0.518898
0.522151
0.526581
0.531794
0.536736
0.5384
0.533159
0.528647
0.535269
0.53261
0.464221
0.221187
0.0362899
0.00242012
3.75213e-05
1.15012e-06
1.09601e-07
1.56213e-05
2.58488e-05
1.54055e-05
1.05723e-05
8.39274e-06
3.6573e-06
9.24159e-09
1.06807e-07
5.62483e-05
1.29243e-05
1.30719e-07
1.55714e-10
1.04758e-13
3.21667e-17
1.1018e-19
7.77094e-24
2.00623e-06
6.86187e-05
0.000524445
0.00205377
0.0055503
0.0119246
0.021981
0.0363605
0.0553768
0.0790154
0.10688
0.138241
0.172086
0.207457
0.243443
0.279242
0.314002
0.346741
0.376676
0.403285
0.426315
0.445805
0.461943
0.475024
0.485294
0.49308
0.49885
0.503483
0.507636
0.511065
0.513513
0.515128
0.516055
0.516414
0.51631
0.516026
0.5157
0.515351
0.515057
0.514973
0.515154
0.515453
0.516036
0.517558
0.520351
0.524333
0.529334
0.534511
0.537798
0.535248
0.527901
0.530596
0.534226
0.500726
0.319865
0.066804
0.0049499
0.000145469
2.63156e-06
4.13121e-08
7.88264e-06
2.92668e-05
2.84935e-05
1.19064e-05
7.86132e-06
2.81914e-06
9.9743e-06
6.00275e-06
8.20942e-07
1.17016e-05
6.93516e-06
1.44447e-08
1.18585e-11
6.6765e-15
5.65925e-18
1.22957e-20