/*--------------------------------*- C++ -*----------------------------------*\
| =========                 |                                                 |
| \\      /  F ield         | OpenFOAM: The Open Source CFD Toolbox           |
|  \\    /   O peration     | Version:  v2012                                 |
|   \\  /    A nd           | Website:  www.openfoam.com                      |
|    \\/     M anipulation  |                                                 |
\*---------------------------------------------------------------------------*/
FoamFile
{
    version     2.0;
    format      ascii;
    class       volScalarField;
    location    "11500";
    object      lamda1;
}
// * * * * * * * * * * * * * * * * * * * * * * * * * * * * * * * * * * * * * //

dimensions      [0 0 0 0 0 0 0];


internalField   nonuniform List<scalar> 
53312
(
0.000241324
5.26948e-05
0.0060029
1.43623e-05
0.00156635
0.0312936
8.27676e-06
0.000471607
0.0106023
0.0734789
5.51412e-06
0.00027922
0.00363103
0.0332768
0.0957871
3.96697e-06
0.000188332
0.00222341
0.0135105
0.0709508
0.0983184
3.0964e-06
0.00013682
0.00152431
0.00861114
0.0331117
0.119237
0.0909286
2.53884e-06
0.000107421
0.00112101
0.00603073
0.0221102
0.062372
0.171234
0.0796661
2.15283e-06
8.84408e-05
0.000886911
0.00450386
0.0158937
0.0434155
0.100391
0.22055
0.0682079
1.87097e-06
7.52275e-05
0.000734051
0.00359888
0.0120693
0.0321863
0.0727119
0.144543
0.26277
0.0582379
1.65431e-06
6.55311e-05
0.000626529
0.00299789
0.00975276
0.0248021
0.0552644
0.108824
0.191738
0.295899
0.0494391
1.48415e-06
5.80454e-05
0.000547309
0.00255932
0.00816959
0.0202844
0.043535
0.0848477
0.149826
0.239224
0.319258
0.0415804
1.35249e-06
5.21418e-05
0.000484665
0.00224131
0.00685528
0.0171762
0.0361411
0.0683163
0.119792
0.193546
0.284348
0.333607
0.0347166
1.26457e-06
4.75447e-05
0.000435222
0.00194523
0.00603792
0.0146204
0.0309516
0.0575752
0.0985288
0.158559
0.237905
0.325727
0.339907
0.0288494
1.21811e-06
4.43754e-05
0.000394393
0.00172351
0.005297
0.0129602
0.0266946
0.0498895
0.0842959
0.133112
0.199481
0.281136
0.362084
0.3395
0.0239046
1.22885e-06
4.27452e-05
0.00034945
0.00156819
0.00473045
0.0114772
0.0238297
0.0435652
0.0739006
0.115586
0.170748
0.240958
0.321863
0.392987
0.333655
0.0197825
1.31435e-06
4.30561e-05
0.000336557
0.00141222
0.00432126
0.010323
0.0212883
0.0391747
0.0653039
0.102521
0.150387
0.210046
0.281592
0.359204
0.418105
0.323494
0.0163795
1.47944e-06
4.59609e-05
0.000338562
0.00136078
0.00393367
0.00946954
0.0192792
0.0352921
0.0591742
0.0916199
0.134907
0.187545
0.249676
0.320251
0.392407
0.437763
0.310013
0.0135861
1.69316e-06
5.15791e-05
0.000360421
0.00136729
0.00379369
0.00869134
0.0177643
0.0321779
0.0537461
0.0836572
0.121884
0.170087
0.225824
0.28847
0.356183
0.421327
0.452164
0.293976
0.0111383
1.90807e-06
5.87988e-05
0.000402901
0.00145145
0.00380833
0.0083923
0.0164173
0.0297897
0.0493324
0.0765883
0.112144
0.15525
0.206949
0.264078
0.325458
0.388664
0.445949
0.461795
0.276067
0.00912287
2.09984e-06
6.59831e-05
0.000457224
0.00161549
0.00403132
0.00841885
0.0158763
0.027701
0.0458958
0.0707656
0.10346
0.143918
0.19074
0.244407
0.301302
0.359906
0.417575
0.466358
0.467106
0.257583
0.00742492
2.26095e-06
7.23173e-05
0.000511008
0.00182394
0.00446621
0.00888667
0.0159186
0.026834
0.0429216
0.0661677
0.0962198
0.133764
0.178106
0.227324
0.28145
0.336666
0.391314
0.442735
0.482847
0.468477
0.237387
0.00609325
2.39854e-06
7.75816e-05
0.00055802
0.00202893
0.00501468
0.0097975
0.0167557
0.0268966
0.041656
0.0622132
0.0904249
0.125194
0.166723
0.21376
0.264016
0.317202
0.369534
0.419383
0.464199
0.495769
0.466193
0.215961
0.00505153
2.50827e-06
8.20262e-05
0.000596965
0.00220634
0.00555005
0.0109367
0.0183808
0.0282332
0.0417445
0.0604979
0.0854579
0.118251
0.157004
0.201458
0.249922
0.299917
0.350954
0.399474
0.443978
0.482245
0.505477
0.460362
0.193813
0.00425466
2.59783e-06
8.55349e-05
0.00062963
0.00235266
0.00600856
0.0120394
0.0203946
0.0308097
0.043694
0.0606225
0.0832723
0.112305
0.149037
0.190839
0.237056
0.285698
0.334257
0.382163
0.426217
0.465267
0.497016
0.512331
0.450857
0.171793
0.00358996
2.66569e-06
8.83694e-05
0.000655231
0.00247448
0.00638448
0.0129731
0.0223248
0.0339704
0.047432
0.0632802
0.0834389
0.109656
0.142207
0.182034
0.22583
0.27263
0.320293
0.366424
0.410469
0.449733
0.483141
0.508977
0.516589
0.438122
0.14833
0.00293629
2.71861e-06
9.04997e-05
0.000675715
0.0025692
0.00669533
0.0137354
0.0239408
0.036975
0.0519687
0.0683259
0.0868577
0.109883
0.139139
0.174474
0.216425
0.26111
0.307371
0.353048
0.395968
0.435673
0.469935
0.498118
0.518397
0.518777
0.421963
0.125124
0.00230485
2.75508e-06
9.21293e-05
0.000690867
0.00264423
0.00693529
0.014361
0.0252532
0.0394596
0.0562354
0.0743831
0.093286
0.114078
0.13944
0.171052
0.20832
0.251351
0.295862
0.340579
0.38345
0.422598
0.45772
0.487106
0.51036
0.525748
0.51866
0.403495
0.104175
0.00174227
2.77549e-06
9.32365e-05
0.000702312
0.00269896
0.0071236
0.0148402
0.0263231
0.0414674
0.0597209
0.0800191
0.1009
0.121865
0.144374
0.17144
0.204632
0.242918
0.286024
0.329361
0.371689
0.411134
0.446174
0.476673
0.501403
0.520235
0.531157
0.516846
0.381635
0.0862968
0.00125709
2.78456e-06
9.3846e-05
0.000709848
0.00273969
0.00725924
0.0152138
0.0271385
0.0430909
0.062523
0.084562
0.107906
0.130969
0.153409
0.177033
0.205115
0.23907
0.277479
0.319682
0.361006
0.400281
0.435892
0.466679
0.492684
0.513173
0.528092
0.535146
0.513193
0.355584
0.0708616
0.00085015
2.78828e-06
9.40553e-05
0.000713679
0.0027658
0.00735894
0.0154793
0.0277678
0.0443217
0.0647768
0.0881981
0.11349
0.139251
0.163821
0.187114
0.211238
0.239646
0.273561
0.311239
0.351706
0.390327
0.426081
0.457644
0.484212
0.506038
0.522644
0.534278
0.537881
0.507843
0.325491
0.0581994
0.00060495
2.78556e-06
9.4119e-05
0.000714536
0.00277771
0.00742085
0.0156726
0.0282122
0.0452668
0.0664739
0.0911045
0.117937
0.145764
0.173177
0.198563
0.222114
0.246159
0.27422
0.307347
0.343548
0.381582
0.416997
0.448948
0.476427
0.498946
0.516912
0.530247
0.53913
0.539585
0.500837
0.292624
0.0458277
0.000441145
2.77517e-06
9.39612e-05
0.000714386
0.00277868
0.00744659
0.0157894
0.0285321
0.0459275
0.0677704
0.0932825
0.121469
0.150921
0.180444
0.208729
0.234256
0.257479
0.280902
0.308063
0.339759
0.373866
0.40894
0.440801
0.468863
0.492364
0.511159
0.525712
0.536273
0.542946
0.540531
0.49121
0.257414
0.0336819
0.000327482
2.7595e-06
9.35604e-05
0.000712547
0.00277611
0.00744446
0.0158336
0.0287209
0.0463994
0.0686703
0.0949387
0.124097
0.155
0.186182
0.216512
0.244886
0.269916
0.29233
0.314724
0.340509
0.370236
0.401782
0.43352
0.461716
0.485912
0.505699
0.521061
0.532756
0.541057
0.546175
0.5409
0.476277
0.220365
0.0230513
0.000239792
2.74181e-06
9.29977e-05
0.00070904
0.00276706
0.00743333
0.0158219
0.0287857
0.0466735
0.0693084
0.0960791
0.12609
0.158026
0.19068
0.222633
0.252928
0.280682
0.304668
0.325898
0.346928
0.370941
0.398351
0.427014
0.455253
0.479735
0.500264
0.516614
0.529068
0.538301
0.544999
0.548866
0.540848
0.454601
0.181582
0.0150533
0.000184075
2.72183e-06
9.23715e-05
0.000704293
0.00275192
0.00740596
0.0157925
0.0287554
0.0467582
0.0696715
0.096885
0.127459
0.160304
0.194003
0.227414
0.259231
0.28869
0.315198
0.337738
0.357479
0.376914
0.39897
0.423785
0.449414
0.474095
0.495019
0.512153
0.525469
0.535373
0.542756
0.548313
0.551677
0.539613
0.424647
0.143377
0.00956398
0.000150135
2.69819e-06
9.1664e-05
0.00069909
0.00273233
0.00736325
0.01573
0.0286962
0.0467012
0.0697757
0.0973354
0.128416
0.16186
0.196504
0.230929
0.264129
0.294956
0.322942
0.347687
0.368461
0.386572
0.40429
0.424257
0.446387
0.468945
0.490164
0.507773
0.521845
0.532531
0.540396
0.546414
0.551509
0.554996
0.534778
0.38581
0.107954
0.00632263
0.000129349
2.67368e-06
9.08426e-05
0.000693324
0.00271097
0.00730901
0.0156378
0.0285797
0.0465987
0.0696829
0.0974531
0.128946
0.162947
0.198201
0.233566
0.267707
0.299801
0.328961
0.354893
0.377561
0.396392
0.412729
0.428785
0.44665
0.466098
0.485676
0.50366
0.518251
0.529627
0.538119
0.544414
0.549641
0.555006
0.5589
0.523863
0.338135
0.0782127
0.00472525
0.000150137
2.6503e-06
8.99969e-05
0.000686791
0.00268769
0.0072507
0.0155227
0.0284136
0.0464109
0.0695291
0.0973208
0.129071
0.163541
0.199383
0.235344
0.27038
0.30333
0.333592
0.360501
0.384046
0.404378
0.42119
0.43584
0.450207
0.466093
0.482973
0.499797
0.514838
0.526723
0.535801
0.542543
0.547766
0.552842
0.559552
0.561973
0.504522
0.283273
0.0547196
0.00357413
0.000172975
2.62753e-06
8.91928e-05
0.000680123
0.0026616
0.00718761
0.0153991
0.0282081
0.0461487
0.0692564
0.0971102
0.1289
0.163672
0.200021
0.236576
0.272182
0.305961
0.336958
0.364803
0.38909
0.409996
0.427952
0.442735
0.45574
0.468615
0.482673
0.497222
0.511597
0.523952
0.533476
0.540673
0.54612
0.550821
0.556643
0.565424
0.561771
0.474599
0.224513
0.0369987
0.00242243
0.000169476
2.60329e-06
8.84042e-05
0.000673738
0.00263511
0.00711736
0.0152659
0.0279888
0.045828
0.0688826
0.0967461
0.128632
0.163462
0.200146
0.237235
0.273425
0.307723
0.339463
0.367907
0.392938
0.414367
0.432602
0.448134
0.461056
0.472609
0.484115
0.496619
0.509209
0.521312
0.53125
0.538814
0.544552
0.549186
0.554037
0.561751
0.57173
0.55593
0.43221
0.167803
0.0239107
0.00173508
0.000146048
2.57559e-06
8.75761e-05
0.000667504
0.00260978
0.00704666
0.0151196
0.0277536
0.0454857
0.0684272
0.0962538
0.128179
0.163141
0.199908
0.237354
0.274084
0.308937
0.341126
0.370204
0.395703
0.417691
0.436224
0.451786
0.465093
0.476337
0.486533
0.49705
0.508467
0.519201
0.529162
0.53706
0.543038
0.547754
0.552125
0.558077
0.568642
0.576336
0.54189
0.37703
0.119398
0.0147822
0.00125781
0.000110425
2.54681e-06
8.66445e-05
0.000661051
0.00258524
0.00697905
0.0149719
0.0274957
0.0451196
0.0679435
0.0956582
0.127572
0.162607
0.199545
0.237092
0.274188
0.309572
0.342265
0.371731
0.397755
0.420073
0.438978
0.454664
0.467745
0.479033
0.488708
0.498112
0.508175
0.518528
0.527362
0.535465
0.541656
0.546457
0.55062
0.555448
0.563801
0.576241
0.577382
0.516737
0.311171
0.0822762
0.00878217
0.00114444
7.26306e-05
2.52383e-06
8.56784e-05
0.000653792
0.00255969
0.00691326
0.0148309
0.0272371
0.0447189
0.0674265
0.0950259
0.126841
0.161898
0.198945
0.236698
0.273915
0.309657
0.34286
0.372774
0.399099
0.421831
0.44095
0.456842
0.469863
0.48072
0.490158
0.498906
0.508184
0.517779
0.526872
0.533954
0.540494
0.54536
0.54939
0.553567
0.559931
0.571326
0.582882
0.572623
0.47754
0.240716
0.0555501
0.00482313
0.00118593
3.74942e-05
2.50166e-06
8.48872e-05
0.000646406
0.00253151
0.00684549
0.0146941
0.0269889
0.0443182
0.0668628
0.0943502
0.126065
0.161047
0.198154
0.236053
0.273503
0.30938
0.342923
0.373308
0.400013
0.42298
0.442397
0.458381
0.47148
0.482121
0.490959
0.499219
0.507825
0.517083
0.525891
0.533709
0.539281
0.544569
0.54848
0.552191
0.557168
0.566344
0.579508
0.586888
0.558937
0.422445
0.173804
0.0368156
0.00227275
0.00138871
1.5703e-05
2.47844e-06
8.41344e-05
0.000640298
0.00250287
0.00677064
0.0145529
0.0267486
0.0439342
0.0662983
0.0936139
0.125237
0.160147
0.197209
0.235209
0.272833
0.308964
0.342651
0.373346
0.400477
0.423758
0.443327
0.45952
0.472623
0.48319
0.49171
0.499186
0.507105
0.515791
0.524649
0.532636
0.5393
0.543662
0.548011
0.551332
0.555293
0.562304
0.574336
0.586779
0.586871
0.532988
0.352508
0.116666
0.0238199
0.00103815
0.00184366
6.4024e-06
2.45381e-06
8.33527e-05
0.000634492
0.00247897
0.00669542
0.0143981
0.0265008
0.0435615
0.0657572
0.0928795
0.124333
0.159184
0.196209
0.234199
0.271962
0.308292
0.342242
0.373085
0.400488
0.42414
0.443952
0.460242
0.473457
0.483936
0.492308
0.499316
0.50623
0.514147
0.522547
0.53098
0.538236
0.544022
0.547418
0.551095
0.554238
0.559371
0.569421
0.582574
0.592044
0.579711
0.490768
0.273449
0.0730369
0.0158285
0.000331922
0.00208043
2.99775e-06
2.42867e-06
8.25253e-05
0.000628472
0.00245644
0.00663231
0.0142431
0.0262301
0.0431768
0.065232
0.0921728
0.123434
0.158135
0.195141
0.233135
0.270925
0.307421
0.341587
0.372693
0.400245
0.424122
0.444254
0.460722
0.473969
0.484491
0.492715
0.499447
0.505787
0.512572
0.520121
0.528153
0.53631
0.543095
0.548173
0.550792
0.554026
0.557516
0.565319
0.577618
0.589839
0.594153
0.562257
0.429425
0.194663
0.0444495
0.0111579
0.000289841
0.00235766
1.50639e-06
2.40499e-06
8.16828e-05
0.000622162
0.00243315
0.00657274
0.0141125
0.0259598
0.0427586
0.0646901
0.0914872
0.122568
0.157089
0.193976
0.231995
0.26983
0.30639
0.340745
0.372071
0.399877
0.423899
0.444206
0.460936
0.474303
0.484814
0.493008
0.49952
0.505521
0.511619
0.517902
0.524957
0.532813
0.540934
0.547468
0.551907
0.553831
0.556837
0.562188
0.57292
0.585556
0.595333
0.590566
0.529582
0.350183
0.12691
0.0275824
0.00737429
0.000360653
0.00230087
8.24027e-07
2.38571e-06
8.08925e-05
0.000615806
0.00240874
0.00651126
0.0139893
0.0257316
0.0423417
0.0641011
0.0907797
0.121728
0.156084
0.192817
0.230754
0.26866
0.305301
0.339748
0.371278
0.3993
0.423559
0.444005
0.460861
0.474437
0.485019
0.493154
0.499587
0.505302
0.510956
0.51647
0.522151
0.528889
0.536772
0.545115
0.551329
0.555043
0.556255
0.560232
0.568877
0.580917
0.592373
0.598256
0.578195
0.476235
0.261595
0.0750106
0.0200657
0.00448147
0.000580856
0.0020484
4.74447e-07
2.36746e-06
8.02404e-05
0.000609829
0.00238436
0.00644733
0.0138622
0.0255161
0.0419886
0.0635161
0.0900102
0.120858
0.155106
0.191699
0.229519
0.267381
0.304135
0.338697
0.370343
0.398573
0.423036
0.443694
0.460682
0.474332
0.485076
0.493235
0.499572
0.505141
0.510447
0.515481
0.520317
0.525539
0.532139
0.540154
0.548634
0.55429
0.556767
0.558357
0.565466
0.576583
0.588189
0.597583
0.596494
0.551565
0.400024
0.17685
0.0391358
0.0169088
0.00244984
0.000762076
0.00162178
2.81615e-07
2.34635e-06
7.96321e-05
0.000604936
0.00236162
0.00638358
0.0137307
0.0252939
0.0416551
0.06302
0.0892487
0.119915
0.154093
0.190612
0.228328
0.266112
0.302862
0.337572
0.369356
0.397716
0.422383
0.443227
0.4604
0.474174
0.484947
0.49322
0.499539
0.504956
0.510089
0.51472
0.518999
0.523292
0.528239
0.534755
0.54269
0.550881
0.55514
0.556674
0.562252
0.572285
0.583864
0.594227
0.600684
0.586848
0.503689
0.306776
0.105469
0.0201679
0.0140322
0.000903049
0.0013857
0.001151
1.61105e-07
2.32309e-06
7.895e-05
0.000600339
0.00234288
0.0063244
0.0135996
0.025064
0.0413113
0.0625502
0.0886015
0.118983
0.152995
0.189486
0.227166
0.264884
0.3016
0.336343
0.368299
0.396813
0.421617
0.442653
0.459989
0.473919
0.484807
0.493068
0.499443
0.504807
0.509749
0.514166
0.517991
0.521677
0.525611
0.530335
0.536497
0.543562
0.550336
0.553323
0.556856
0.568457
0.579142
0.590086
0.598922
0.599703
0.563405
0.429555
0.209803
0.0540836
0.014082
0.0145213
7.20097e-05
0.00242497
0.000722768
8.88945e-08
2.29946e-06
7.81846e-05
0.000595173
0.00232525
0.00627552
0.0134786
0.0248366
0.0409566
0.0620658
0.0879876
0.118189
0.151912
0.188265
0.225961
0.263689
0.30038
0.335125
0.367145
0.395848
0.420811
0.441984
0.459494
0.47356
0.484574
0.492945
0.49925
0.504609
0.509489
0.513693
0.517256
0.520427
0.523681
0.527331
0.53162
0.536692
0.542095
0.547054
0.552157
0.560028
0.57475
0.585099
0.595196
0.601793
0.591316
0.517723
0.332318
0.124155
0.0251779
0.0122629
0.0142217
8.21211e-06
0.00502645
0.000401194
4.48395e-08
2.27924e-06
7.74056e-05
0.000589457
0.00230554
0.00622939
0.0133784
0.0246265
0.0406057
0.0615667
0.0873545
0.117435
0.150989
0.187061
0.224654
0.262446
0.299187
0.333945
0.366003
0.394791
0.41995
0.44128
0.458921
0.473139
0.484263
0.49273
0.499128
0.504354
0.509191
0.513337
0.516643
0.51951
0.522193
0.525106
0.528334
0.531998
0.536101
0.540541
0.545265
0.555091
0.565507
0.579911
0.590047
0.599228
0.601046
0.568807
0.442664
0.225601
0.0631737
0.0125045
0.0113081
0.0103842
5.99517e-05
0.00656674
0.000197788
2.0506e-08
2.26547e-06
7.67353e-05
0.000583698
0.00228388
0.00617804
0.0132836
0.0244524
0.0402826
0.061074
0.0867027
0.116656
0.15011
0.186036
0.223372
0.2611
0.297946
0.332792
0.364895
0.393749
0.419007
0.440528
0.458318
0.472656
0.48391
0.492461
0.498902
0.50421
0.508905
0.51294
0.516193
0.51876
0.521094
0.523383
0.525863
0.528858
0.532366
0.536962
0.542352
0.548855
0.559547
0.571184
0.584088
0.594128
0.601656
0.592848
0.522199
0.3396
0.130706
0.028969
0.00833087
0.0159708
0.00657072
0.000310762
0.00775403
7.62318e-05
8.98591e-09
2.25283e-06
7.62675e-05
0.000578774
0.00226221
0.00612192
0.0131783
0.0242871
0.0400142
0.0606212
0.0860593
0.115857
0.149202
0.185056
0.222277
0.259778
0.296602
0.331591
0.363812
0.392736
0.41808
0.439705
0.457676
0.472149
0.48351
0.492165
0.498644
0.503938
0.508734
0.512678
0.515687
0.518209
0.520199
0.522101
0.524026
0.526334
0.529734
0.534036
0.540053
0.547151
0.554928
0.562816
0.575961
0.587578
0.597515
0.600658
0.569373
0.44239
0.224792
0.0648291
0.0137174
0.00479803
0.0185966
0.00360793
0.000823855
0.00749768
2.75041e-05
3.80455e-09
2.23915e-06
7.58539e-05
0.000575363
0.00224378
0.0060661
0.0130638
0.0241037
0.0397593
0.0602447
0.0854699
0.115068
0.148269
0.184042
0.221226
0.258648
0.295286
0.33029
0.362682
0.391743
0.417177
0.438899
0.456974
0.471611
0.483089
0.491839
0.498374
0.503649
0.50843
0.512467
0.515487
0.517599
0.519532
0.52106
0.522622
0.524482
0.527302
0.531581
0.53719
0.544501
0.552397
0.559507
0.566289
0.57957
0.590717
0.599453
0.59171
0.518645
0.331031
0.125106
0.0300477
0.00639687
0.00736076
0.0187258
0.00129564
0.00195034
0.00592645
1.1588e-05
1.55015e-09
2.22224e-06
7.542e-05
0.000572358
0.00223106
0.00601877
0.0129503
0.0239054
0.0394765
0.0598849
0.08498
0.114346
0.147351
0.183001
0.22014
0.257567
0.29416
0.329017
0.361457
0.390707
0.416291
0.438112
0.456289
0.471023
0.482643
0.491498
0.49808
0.503363
0.508124
0.512157
0.515201
0.517455
0.518854
0.520264
0.521458
0.522985
0.525326
0.529006
0.534433
0.541403
0.549337
0.556475
0.560526
0.570209
0.582648
0.593431
0.597991
0.565163
0.430178
0.20934
0.0607237
0.0135383
0.00176142
0.0108444
0.0180767
7.7048e-05
0.00483126
0.00377049
5.02121e-06
6.06848e-10
2.2016e-06
7.48679e-05
0.000569182
0.00221994
0.00598637
0.0128549
0.0237101
0.0391716
0.0594876
0.0845101
0.113744
0.146509
0.181979
0.219026
0.256442
0.293076
0.327929
0.360263
0.389589
0.415366
0.437339
0.455619
0.470451
0.482158
0.491137
0.497775
0.503061
0.507834
0.511861
0.514891
0.517079
0.518708
0.519592
0.52055
0.521703
0.523617
0.526742
0.531437
0.538159
0.546195
0.553898
0.558706
0.560232
0.573359
0.58545
0.594946
0.587258
0.506613
0.308302
0.110938
0.0278238
0.00486622
0.0026069
0.014509
0.0150572
2.10521e-05
0.0105583
0.00196814
2.07705e-06
2.204e-10
2.1813e-06
7.42151e-05
0.000565157
0.00220811
0.00595805
0.0127893
0.0235455
0.038872
0.0590593
0.0839893
0.113166
0.14581
0.181046
0.217932
0.255288
0.291953
0.326879
0.35924
0.388497
0.414365
0.436532
0.45496
0.46989
0.481693
0.490745
0.497468
0.50275
0.507533
0.511591
0.514604
0.516764
0.518265
0.519345
0.519954
0.52075
0.522181
0.524696
0.5288
0.534829
0.542395
0.550483
0.557049
0.558758
0.562589
0.576088
0.587893
0.592472
0.555239
0.405025
0.183331
0.0524717
0.0107057
0.00116003
0.00408948
0.0194897
0.00882396
0.000222962
0.0145579
0.000880455
7.58758e-07
7.33263e-11
2.16262e-06
7.35509e-05
0.000560418
0.00219319
0.00592791
0.0127322
0.0234327
0.0386202
0.0586404
0.0834324
0.112527
0.145136
0.180266
0.216931
0.254158
0.290799
0.325786
0.358248
0.38756
0.413392
0.435664
0.45427
0.469339
0.481235
0.490368
0.497154
0.502455
0.507228
0.51132
0.514352
0.516482
0.517937
0.518862
0.519506
0.520118
0.521154
0.523068
0.526367
0.531578
0.53868
0.546261
0.553253
0.557467
0.556464
0.566276
0.578832
0.588863
0.578566
0.484284
0.27242
0.0924031
0.0216142
0.00310034
0.00154374
0.00646526
0.0222936
0.00449955
0.000729582
0.0158982
0.000311134
2.38e-07
2.27496e-11
2.15068e-06
7.29476e-05
0.000555631
0.00217566
0.00588972
0.0126717
0.0233356
0.0384491
0.0582903
0.0828881
0.111842
0.144387
0.179512
0.216099
0.253128
0.289668
0.324666
0.357218
0.38665
0.412559
0.43482
0.453528
0.468764
0.480781
0.489998
0.496858
0.502174
0.506931
0.511046
0.514097
0.516242
0.517653
0.518522
0.519014
0.519467
0.52028
0.521752
0.524363
0.528702
0.534812
0.542057
0.548979
0.554251
0.555288
0.554929
0.569426
0.581211
0.584732
0.537376
0.365835
0.150952
0.0406674
0.00658398
0.00129717
0.00213223
0.010843
0.021784
0.00121593
0.0034728
0.0133228
8.58257e-05
7.20931e-08
6.64018e-12
2.14398e-06
7.25594e-05
0.000551342
0.00215806
0.00584551
0.0125949
0.0232312
0.0383007
0.0580514
0.082433
0.111176
0.143591
0.178676
0.215289
0.252267
0.288639
0.323572
0.356163
0.385703
0.411744
0.434092
0.452811
0.468149
0.480308
0.489633
0.496564
0.501914
0.506637
0.510765
0.513853
0.516004
0.517418
0.518237
0.518655
0.518949
0.519489
0.520595
0.522652
0.526177
0.531468
0.537834
0.544587
0.550517
0.553546
0.551271
0.557519
0.572083
0.581459
0.565336
0.448319
0.226621
0.0713334
0.0138238
0.000979302
0.00114514
0.00292297
0.0161237
0.0202485
1.73064e-05
0.0105034
0.00844006
2.65701e-05
2.08023e-08
1.77605e-12
2.13738e-06
7.23463e-05
0.000548652
0.0021425
0.00580088
0.0125058
0.0230995
0.038142
0.0578462
0.0821249
0.110621
0.142815
0.177787
0.21439
0.251428
0.287779
0.322574
0.35513
0.384735
0.410896
0.433378
0.452193
0.467552
0.479805
0.48925
0.496272
0.501656
0.506372
0.510473
0.513604
0.515782
0.517188
0.518
0.518357
0.518557
0.51889
0.519649
0.521217
0.524081
0.528477
0.534063
0.540197
0.546397
0.550926
0.550759
0.548578
0.561827
0.57425
0.574345
0.509695
0.311961
0.115652
0.0276218
0.00308073
0.000925279
0.0011825
0.00458413
0.0222762
0.0138267
9.36549e-05
0.0206038
0.00396351
7.98896e-06
5.53781e-09
4.32415e-13
2.12827e-06
7.21527e-05
0.00054725
0.002133
0.00576199
0.0124167
0.0229478
0.0379413
0.0576249
0.0818593
0.110247
0.142173
0.176926
0.213438
0.250497
0.286938
0.32174
0.354191
0.383788
0.410029
0.432638
0.451584
0.467037
0.479322
0.488849
0.49597
0.5014
0.506105
0.510214
0.513342
0.515556
0.516982
0.517775
0.518113
0.518231
0.518431
0.518918
0.520052
0.522304
0.525972
0.530673
0.536156
0.54214
0.547534
0.549733
0.545973
0.550848
0.565036
0.57306
0.545517
0.396999
0.174285
0.0490497
0.00731972
0.00105172
0.00103322
0.0013434
0.00713528
0.0270951
0.00701907
0.000611436
0.0258557
0.00143505
2.15276e-06
1.31272e-09
9.60606e-14
2.11244e-06
7.18693e-05
0.000545974
0.00212826
0.00573864
0.0123397
0.0227957
0.0377099
0.0573445
0.0815725
0.109924
0.14174
0.176213
0.212518
0.249512
0.286003
0.320921
0.353405
0.382928
0.409183
0.431882
0.45095
0.466525
0.478902
0.488465
0.495654
0.501133
0.50584
0.509956
0.513115
0.515322
0.516773
0.51758
0.517884
0.517957
0.518045
0.518353
0.519125
0.520852
0.523833
0.527806
0.532477
0.538094
0.543755
0.547664
0.546331
0.542953
0.555624
0.566916
0.560512
0.467877
0.247212
0.0794672
0.0151764
0.00150908
0.0011914
0.00114457
0.00181393
0.0121049
0.026252
0.00211896
0.00391951
0.0240454
0.00037819
5.00403e-07
2.87304e-10
1.93259e-14
2.09348e-06
7.13768e-05
0.000544007
0.00212398
0.00572776
0.0122946
0.0226656
0.0374795
0.0570234
0.0812094
0.109573
0.141365
0.175734
0.211757
0.248564
0.285017
0.320011
0.352629
0.382205
0.408414
0.431145
0.450306
0.465996
0.478481
0.488127
0.495353
0.50086
0.505569
0.509698
0.512891
0.515122
0.516558
0.517388
0.517692
0.517715
0.517719
0.517867
0.518405
0.519666
0.522049
0.525331
0.529335
0.534296
0.539978
0.544871
0.546113
0.541423
0.54577
0.559487
0.562817
0.515829
0.328622
0.121585
0.0277992
0.00282303
0.00110061
0.00142229
0.0013875
0.00296764
0.0181609
0.0232903
3.48352e-05
0.0156438
0.0154621
8.19163e-05
1.10273e-07
5.66322e-11
3.47358e-15
2.07513e-06
7.07871e-05
0.000540541
0.00211703
0.00571786
0.0122743
0.0225907
0.0372838
0.0567038
0.080794
0.10913
0.140959
0.175321
0.211249
0.247781
0.28407
0.319055
0.351769
0.381491
0.407768
0.430475
0.449678
0.46546
0.478048
0.487787
0.495089
0.500607
0.505294
0.509428
0.512662
0.514925
0.516385
0.517189
0.517508
0.517516
0.517439
0.517474
0.517789
0.518724
0.520558
0.523234
0.526577
0.530993
0.536269
0.541765
0.544972
0.54225
0.539231
0.551164
0.559973
0.540526
0.40736
0.177396
0.0470951
0.00621514
0.000920336
0.00120007
0.00152719
0.00166632
0.00529547
0.0259031
0.0142736
0.00017154
0.0303957
0.00692551
1.87664e-05
2.18049e-08
9.95216e-12
5.66494e-16
2.05893e-06
7.01991e-05
0.0005364
0.0021047
0.00570113
0.0122563
0.0225594
0.0371738
0.0564349
0.0803817
0.108624
0.140444
0.174869
0.210809
0.247259
0.28329
0.318137
0.350867
0.380698
0.407125
0.429908
0.449106
0.464939
0.477609
0.487439
0.494819
0.500383
0.505041
0.509162
0.512425
0.514726
0.516215
0.51703
0.517321
0.517324
0.517214
0.517141
0.517287
0.51792
0.519356
0.521476
0.524223
0.527997
0.532906
0.53845
0.543074
0.54305
0.537652
0.542529
0.554451
0.550318
0.470464
0.246836
0.0741258
0.0129703
0.00150223
0.000880305
0.00120538
0.00155767
0.00213023
0.00975796
0.0297291
0.00616257
0.00128222
0.0375439
0.00212943
3.77972e-06
3.81515e-09
1.57212e-12
9.83828e-17
2.04684e-06
6.96855e-05
0.000532253
0.00208975
0.00567049
0.012224
0.0225311
0.0371299
0.0562867
0.0800376
0.108123
0.139858
0.174297
0.210327
0.246808
0.282773
0.317383
0.350004
0.37987
0.406413
0.429343
0.448622
0.464461
0.477183
0.487087
0.494541
0.500144
0.504817
0.508927
0.512196
0.514517
0.516036
0.516879
0.517178
0.517129
0.517004
0.516869
0.516866
0.517273
0.518341
0.520018
0.522216
0.525384
0.529758
0.53522
0.540499
0.542879
0.538527
0.536504
0.547471
0.552056
0.511905
0.325832
0.11101
0.023134
0.00362636
0.00123722
0.000869299
0.00118179
0.00150678
0.00302514
0.0166009
0.0283671
0.00108763
0.00921269
0.030588
0.000440573
6.60038e-07
6.05433e-10
2.15338e-13
3.08434e-17
2.04255e-06
6.93066e-05
0.000528739
0.00207493
0.00563354
0.0121641
0.0224777
0.0370908
0.0562312
0.079852
0.107709
0.139279
0.173646
0.209715
0.246311
0.282324
0.316884
0.349295
0.379079
0.405674
0.428719
0.448136
0.464053
0.476792
0.486749
0.494266
0.499906
0.504576
0.50872
0.511998
0.514319
0.515848
0.516719
0.517037
0.516986
0.516795
0.516625
0.516529
0.516735
0.51751
0.518797
0.520495
0.523132
0.526945
0.532036
0.537672
0.541537
0.540214
0.534108
0.53993
0.549245
0.532897
0.406256
0.161105
0.0377454
0.00670794
0.00278784
0.00121866
0.000883906
0.00111823
0.00158543
0.00510151
0.0257239
0.0211947
0.000249304
0.031805
0.0164361
7.40532e-05
1.06353e-07
8.28509e-11
2.70812e-14
1.92935e-17
2.04112e-06
6.9175e-05
0.000526205
0.0020625
0.00559694
0.0120915
0.0223773
0.0370125
0.0561811
0.0797865
0.10749
0.138803
0.173007
0.209021
0.245678
0.281826
0.316449
0.348824
0.378431
0.404968
0.428073
0.447602
0.463642
0.476457
0.486437
0.494002
0.499671
0.504335
0.508488
0.511828
0.514158
0.515673
0.516547
0.51689
0.516851
0.516637
0.51639
0.516231
0.516296
0.51682
0.517798
0.519086
0.521109
0.52445
0.529085
0.534686
0.539597
0.540588
0.534967
0.534139
0.543898
0.541771
0.469186
0.232543
0.0566945
0.0091457
0.00454493
0.00258092
0.00120969
0.000930115
0.00109012
0.00193299
0.00968039
0.0337321
0.0111075
0.00160639
0.0474326
0.00559049
1.24256e-05
1.45111e-08
1.00363e-11
3.38699e-15
1.67161e-17
2.03861e-06
6.91562e-05
0.000525534
0.00205398
0.00556682
0.0120198
0.0222555
0.0368622
0.0560762
0.0797287
0.107418
0.138558
0.172485
0.20834
0.244965
0.281195
0.315968
0.348416
0.378
0.404389
0.427459
0.447053
0.463195
0.476117
0.486165
0.493757
0.499447
0.504101
0.508257
0.511628
0.514021
0.515538
0.516386
0.516729
0.516706
0.516495
0.516214
0.515947
0.515913
0.516252
0.516961
0.517932
0.519492
0.522322
0.526411
0.531769
0.537156
0.540144
0.53673
0.530882
0.537799
0.542841
0.508128
0.323149
0.0882441
0.0139237
0.00469201
0.00425375
0.00232822
0.00127536
0.00103015
0.00109838
0.00273167
0.0174393
0.0361489
0.0036207
0.00667704
0.044594
0.00115868
1.68936e-06
1.77835e-09
1.05806e-12
7.008e-16
1.65422e-17
2.03252e-06
6.90914e-05
0.00052566
0.00205245
0.00554691
0.0119617
0.0221356
0.0366801
0.0558701
0.0795957
0.107353
0.138486
0.172223
0.207792
0.244268
0.280485
0.315355
0.347961
0.377624
0.404002
0.426955
0.446531
0.462737
0.475749
0.485887
0.49354
0.499238
0.503881
0.508035
0.511427
0.513847
0.515427
0.516276
0.51658
0.516543
0.516347
0.516053
0.515731
0.515562
0.515763
0.516279
0.516961
0.518149
0.520496
0.524234
0.529009
0.534514
0.538749
0.538275
0.531369
0.532223
0.540022
0.526556
0.409489
0.142491
0.0212284
0.00266819
0.00492965
0.00386308
0.0021748
0.00142569
0.00120793
0.00117172
0.00437259
0.0267961
0.027068
6.04836e-05
0.032277
0.0253601
0.000151414
2.12308e-07
1.85362e-10
1.00254e-13
3.63752e-16
1.63423e-17
2.02218e-06
6.89226e-05
0.000525417
0.00205371
0.00554496
0.0119246
0.0220398
0.0365014
0.0556211
0.0793335
0.107197
0.138418
0.172152
0.207522
0.243709
0.279792
0.314668
0.347385
0.377205
0.403661
0.426615
0.446099
0.462304
0.475376
0.485591
0.493316
0.49905
0.503674
0.507829
0.511237
0.513672
0.515279
0.516191
0.51648
0.516397
0.51618
0.515887
0.515543
0.515293
0.515321
0.515693
0.516154
0.516998
0.518927
0.522191
0.526622
0.531844
0.536819
0.538543
0.533332
0.528918
0.53581
0.534139
0.469712
0.227494
0.0394036
0.00243995
0.00310987
0.00475312
0.00347166
0.00208099
0.00166732
0.00146918
0.0015273
0.00807148
0.0327337
0.0131092
0.00229956
0.0564579
0.00855957
1.97813e-05
2.21381e-08
1.67945e-11
1.12478e-14
3.36676e-16
1.61597e-17
2.00623e-06
6.86187e-05
0.000524445
0.00205377
0.0055503
0.0119246
0.021981
0.0363605
0.0553768
0.0790154
0.10688
0.138241
0.172086
0.207457
0.243443
0.279242
0.314002
0.346741
0.376677
0.403285
0.426315
0.445805
0.461943
0.475024
0.485294
0.49308
0.49885
0.503483
0.507635
0.511065
0.513513
0.515129
0.516056
0.516412
0.516307
0.516028
0.515706
0.515355
0.515059
0.514971
0.515159
0.515468
0.516052
0.517581
0.520385
0.524379
0.529381
0.534568
0.537895
0.535424
0.528133
0.530994
0.535213
0.504389
0.329815
0.0708447
0.00712664
0.00017737
0.00413902
0.00455035
0.00299743
0.00196661
0.00181382
0.00180894
0.00275821
0.0161383
0.0349511
0.00231306
0.0128123
0.0546201
0.00157075
2.06733e-06
2.03162e-09
1.33583e-12
2.52648e-15
3.34181e-16
1.59643e-17
1.98844e-06
6.81385e-05
0.000522432
0.00205096
0.00555232
0.0119388
0.0219869
0.0362779
0.0551874
0.0787062
0.1065
0.137879
0.171895
0.207395
0.243385
0.278986
0.313477
0.346117
0.376087
0.402812
0.425983
0.445543
0.461691
0.474727