/*--------------------------------*- C++ -*----------------------------------*\
| =========                 |                                                 |
| \\      /  F ield         | OpenFOAM: The Open Source CFD Toolbox           |
|  \\    /   O peration     | Version:  v2012                                 |
|   \\  /    A nd           | Website:  www.openfoam.com                      |
|    \\/     M anipulation  |                                                 |
\*---------------------------------------------------------------------------*/
FoamFile
{
    version     2.0;
    format      ascii;
    class       volScalarField;
    location    "11500";
    object      Mg;
}
// * * * * * * * * * * * * * * * * * * * * * * * * * * * * * * * * * * * * * //

dimensions      [0 0 0 0 0 0 0];


internalField   nonuniform List<scalar> 
53312
(
0.00010396
1.12489e-05
0.000228425
3.7215e-06
2.51328e-05
0.00037734
2.21762e-06
8.56769e-06
4.0931e-05
0.000555606
1.55454e-06
5.15404e-06
1.40467e-05
6.04424e-05
0.000653465
1.15636e-06
3.62941e-06
8.50284e-06
1.98605e-05
9.35154e-05
0.000680586
9.20046e-07
2.71032e-06
6.00775e-06
1.19951e-05
2.68298e-05
0.00014761
0.000663801
7.65706e-07
2.16168e-06
4.50149e-06
8.49037e-06
1.58798e-05
3.7041e-05
0.000224268
0.000623249
6.56094e-07
1.80231e-06
3.59981e-06
6.38718e-06
1.1228e-05
2.09216e-05
5.37894e-05
0.0003197
0.000575781
5.75204e-07
1.54661e-06
3.0098e-06
5.1385e-06
8.50236e-06
1.47327e-05
2.88828e-05
7.96183e-05
0.000426297
0.000531432
5.12492e-07
1.35785e-06
2.59198e-06
4.33915e-06
6.95045e-06
1.12759e-05
2.01198e-05
4.14808e-05
0.0001163
0.00053462
0.000489096
4.62959e-07
1.21166e-06
2.2923e-06
3.79478e-06
6.04035e-06
9.51204e-06
1.57049e-05
2.86786e-05
6.02204e-05
0.000165007
0.000634566
0.00044777
4.24904e-07
1.09701e-06
2.07119e-06
3.48404e-06
5.49221e-06
8.73188e-06
1.37929e-05
2.28158e-05
4.1563e-05
8.63887e-05
0.000225918
0.000718664
0.000408441
4.00765e-07
1.01091e-06
1.92932e-06
3.33079e-06
5.52007e-06
8.61539e-06
1.34032e-05
2.07228e-05
3.35743e-05
5.98324e-05
0.000121109
0.000298763
0.000781662
0.000371936
3.90465e-07
9.59545e-07
1.88221e-06
3.4625e-06
5.9874e-06
9.53053e-06
1.41466e-05
2.09647e-05
3.11899e-05
4.89147e-05
8.45125e-05
0.000165298
0.000381733
0.000822171
0.000338618
3.98518e-07
9.5072e-07
1.9236e-06
4.00604e-06
7.13004e-06
1.13313e-05
1.65871e-05
2.30348e-05
3.23117e-05
4.61084e-05
6.98026e-05
0.000116601
0.000219547
0.000472217
0.000841393
0.000308591
4.30784e-07
9.99643e-07
2.24965e-06
4.94422e-06
9.22871e-06
1.44164e-05
2.05954e-05
2.77784e-05
3.62893e-05
4.84365e-05
6.64638e-05
9.72494e-05
0.000157006
0.000284038
0.000566229
0.000842207
0.000281846
4.87382e-07
1.12747e-06
2.88474e-06
6.72134e-06
1.23092e-05
1.93888e-05
2.68796e-05
3.51618e-05
4.43598e-05
5.50835e-05
7.04462e-05
9.33544e-05
0.000132274
0.000206444
0.000358109
0.000659808
0.000828341
0.000258125
5.58249e-07
1.33131e-06
3.88885e-06
9.49789e-06
1.73645e-05
2.6485e-05
3.6616e-05
4.63837e-05
5.66862e-05
6.78199e-05
8.07737e-05
9.96082e-05
0.000127925
0.000175836
0.000265398
0.000440692
0.000748218
0.000803425
0.000234954
6.26331e-07
1.57177e-06
5.18642e-06
1.34667e-05
2.49558e-05
3.76819e-05
5.04838e-05
6.35103e-05
7.51825e-05
8.7146e-05
9.99014e-05
0.00011491
0.000137284
0.000171328
0.000228722
0.000333708
0.00052993
0.000827487
0.000770761
0.000213792
6.86554e-07
1.79902e-06
6.54365e-06
1.83651e-05
3.56152e-05
5.4323e-05
7.20105e-05
8.79869e-05
0.000103215
0.000115972
0.000128866
0.000142606
0.000159212
0.000184901
0.000224636
0.000291443
0.000411027
0.000623181
0.000894263
0.000735252
0.000193949
7.35807e-07
1.99265e-06
7.77836e-06
2.3367e-05
4.86455e-05
7.7564e-05
0.000103865
0.00012564
0.000143444
0.000159495
0.000171934
0.000184538
0.000198186
0.00021551
0.000243852
0.000288722
0.000364128
0.000496168
0.000717478
0.000945998
0.000694654
0.000176965
7.77322e-07
2.15133e-06
8.77594e-06
2.78691e-05
6.18575e-05
0.000105849
0.000148227
0.000181209
0.000204966
0.000222189
0.000236808
0.00024677
0.000257213
0.000269083
0.000285676
0.000315403
0.000364139
0.000446403
0.000587427
0.000809601
0.000981021
0.000650749
0.000162622
8.10229e-07
2.283e-06
9.59569e-06
3.14652e-05
7.36896e-05
0.000134401
0.000202045
0.000258445
0.00029557
0.000317664
0.000330562
0.000340372
0.000344718
0.000350256
0.000357846
0.000371498
0.000400545
0.000451006
0.000537307
0.000682807
0.00089622
0.000998318
0.000605458
0.000150913
8.36754e-07
2.38624e-06
1.02631e-05
3.44119e-05
8.30897e-05
0.00015987
0.000256182
0.000351868
0.000421267
0.000458019
0.000472868
0.000476001
0.000476178
0.000470495
0.000467241
0.000467004
0.000474514
0.000499831
0.000548869
0.000635632
0.000779465
0.000974512
0.000997314
0.000561209
0.000140202
8.56627e-07
2.46873e-06
1.07787e-05
3.67957e-05
9.07685e-05
0.00018001
0.000304287
0.000445525
0.000572934
0.000652441
0.000681697
0.000681315
0.000667118
0.000650982
0.000629204
0.000611806
0.000598864
0.000595834
0.000613262
0.000656828
0.000738856
0.000874939
0.00104247
0.000980504
0.000512875
0.000128028
8.71853e-07
2.52999e-06
1.11851e-05
3.86246e-05
9.69557e-05
0.000196434
0.000342181
0.000528502
0.000724513
0.000886381
0.000970532
0.000982155
0.000955499
0.000913664
0.000872171
0.000826119
0.00078741
0.00075528
0.000735944
0.000740159
0.000772979
0.000845242
0.000966812
0.00109963
0.000949131
0.000461864
0.000114427
8.82389e-07
2.57653e-06
1.14805e-05
4.00539e-05
0.00010168
0.000209621
0.000373021
0.000593613
0.000858326
0.00111942
0.00131714
0.00139755
0.00137741
0.00130959
0.00122636
0.00114743
0.00106642
0.000997018
0.000937386
0.000894547
0.000879133
0.000895474
0.000951859
0.00105405
0.00114333
0.000908745
0.00041352
0.000100305
8.88237e-07
2.60795e-06
1.17026e-05
4.10794e-05
0.000105347
0.000219645
0.00039771
0.000646526
0.000962956
0.00132443
0.00166104
0.00189434
0.0019587
0.00188782
0.00175921
0.00161657
0.00148461
0.00135473
0.00124274
0.00114534
0.00107043
0.00102809
0.00102159
0.00105695
0.00113481
0.00117465
0.000857783
0.000370959
8.56121e-05
8.90721e-07
2.62547e-06
1.1844e-05
4.18416e-05
0.000107953
0.000227392
0.000416437
0.000688754
0.00104784
0.0014841
0.00196242
0.00238526
0.00265127
0.00268246
0.00253597
0.00232115
0.00209606
0.00189083
0.00169469
0.0015255
0.00137816
0.00126145
0.00118432
0.00114875
0.00115944
0.00120918
0.00119165
0.000796385
0.000332935
6.94414e-05
8.91618e-07
2.63272e-06
1.19177e-05
4.23125e-05
0.000109871
0.000232847
0.000430821
0.0007207
0.00111548
0.00161348
0.00219641
0.00281359
0.00333226
0.00362474
0.00359982
0.0033458
0.0030125
0.00267573
0.00237208
0.00208836
0.00184464
0.0016336
0.00146466
0.001345
0.00127519
0.00125868
0.00127642
0.00119178
0.00072771
0.000300641
5.56478e-05
8.90648e-07
2.63525e-06
1.19442e-05
4.2537e-05
0.000111023
0.00023683
0.000440904
0.000745173
0.0011665
0.00171633
0.00238565
0.00314476
0.00392334
0.00454595
0.00485449
0.00474355
0.00434153
0.0038495
0.00336499
0.0029322
0.00253575
0.00219779
0.00190818
0.00167637
0.00150686
0.00140049
0.00135459
0.00133657
0.00117605
0.000657136
0.000266343
4.57184e-05
8.87519e-07
2.63161e-06
1.19483e-05
4.25971e-05
0.000111536
0.000239171
0.00044821
0.000762219
0.00120548
0.00179379
0.00253579
0.003412
0.00437832
0.0053408
0.0060723
0.00637993
0.00614454
0.00554579
0.00484601
0.00417046
0.00357228
0.00303415
0.0025808
0.00219739
0.00189282
0.00166918
0.00152426
0.00144753
0.00139038
0.00114202
0.000586391
0.00022683
3.85465e-05
8.82849e-07
2.62148e-06
1.19185e-05
4.25801e-05
0.000111623
0.000240147
0.000452427
0.000774499
0.00123252
0.00185282
0.00264854
0.00362366
0.00474497
0.00594927
0.00711513
0.00795468
0.0082378
0.00783201
0.0069776
0.0060119
0.00509471
0.00428946
0.00357895
0.00298792
0.00249637
0.00211117
0.00183159
0.00164711
0.00153954
0.00143671
0.00108196
0.000515977
0.000185926
3.28163e-05
8.77515e-07
2.60709e-06
1.18609e-05
4.24392e-05
0.000111508
0.000240217
0.000454077
0.000781508
0.0012519
0.00189359
0.00273432
0.00378248
0.00503431
0.00643835
0.00790904
0.00929247
0.0102316
0.0104588
0.00982696
0.00864819
0.00735101
0.00613532
0.00507815
0.00416225
0.00341225
0.00279977
0.0023313
0.00199414
0.00177097
0.00163119
0.00146691
0.000996776
0.000444694
0.000148931
2.88281e-05
8.71615e-07
2.59087e-06
1.17834e-05
4.22022e-05
0.000111076
0.00023986
0.000454027
0.000784081
0.0012628
0.00192274
0.00279349
0.00390288
0.00525103
0.00682356
0.00854523
0.0103029
0.011908
0.0129301
0.0130593
0.0121381
0.0105618
0.0088593
0.00728411
0.00592768
0.00477485
0.00384626
0.00310651
0.00255254
0.00215899
0.00189784
0.00172606
0.00147221
0.000890665
0.000375111
0.000117739
2.61864e-05
8.64702e-07
2.57259e-06
1.16986e-05
4.18975e-05
0.000110399
0.000238818
0.000453204
0.000783788
0.00126666
0.00193896
0.00283553
0.0039857
0.00541521
0.0071114
0.00904481
0.01111
0.0131654
0.0149824
0.0160571
0.0160407
0.0147619
0.0127084
0.0105251
0.00852711
0.00682506
0.00540606
0.00428623
0.00341607
0.00277737
0.00232908
0.00203279
0.00182244
0.00143825
0.000772591
0.000309339
9.43277e-05
2.45043e-05
8.57427e-07
2.55129e-06
1.16036e-05
4.15668e-05
0.000109543
0.000237274
0.000451088
0.000782133
0.00126589
0.00194443
0.00285883
0.00404447
0.00552777
0.00732908
0.00941699
0.0117414
0.0141641
0.0165077
0.018513
0.0195989
0.019377
0.0176756
0.0150671
0.0123269
0.00984527
0.00775539
0.00604781
0.00473098
0.00373012
0.003009
0.00250966
0.00218047
0.00190197
0.00135477
0.00065144
0.000251228
7.85258e-05
2.66188e-05
8.504e-07
2.52944e-06
1.14951e-05
4.12031e-05
0.000108628
0.000235353
0.000448043
0.000778302
0.00126298
0.00194294
0.00286634
0.00407678
0.00560752
0.00747794
0.00969768
0.0122108
0.014942
0.0177139
0.0203199
0.0224667
0.0235103
0.0230289
0.0208347
0.0176022
0.0142357
0.0112169
0.008704
0.00669724
0.00518181
0.00405255
0.00325347
0.00270822
0.0023437
0.00194621
0.00122191
0.000534916
0.000200769
6.65385e-05
2.88422e-05
8.43629e-07
2.50844e-06
1.13876e-05
4.07915e-05
0.000107629
0.000233302
0.000444291
0.000772892
0.00125657
0.00193821
0.00286388
0.00408699
0.00565116
0.00758303
0.00988952
0.0125641
0.0155189
0.0186493
0.0217399
0.0245553
0.026785
0.0277226
0.0269214
0.0241854
0.0202695
0.0162206
0.0126214
0.00966563
0.00735468
0.00564302
0.00439029
0.00352002
0.00293448
0.00250578
0.00192849
0.0010521
0.000427589
0.000158247
5.40417e-05
2.88585e-05
8.36594e-07
2.48783e-06
1.12842e-05
4.03868e-05
0.000106508
0.000231078
0.000440316
0.000766297
0.00124767
0.00192814
0.00285659
0.00408311
0.00566446
0.00764035
0.0100246
0.012805
0.0159522
0.0193402
0.0228348
0.0261847
0.0291402
0.0313704
0.0321446
0.0309795
0.0276574
0.0230224
0.0182557
0.0140471
0.0106379
0.00802469
0.00612282
0.00475419
0.00382157
0.00319254
0.00263924
0.00182784
0.000865674
0.000334236
0.000122616
4.47531e-05
2.70895e-05
8.28659e-07
2.46621e-06
1.1182e-05
3.99989e-05
0.000105412
0.000228612
0.000436024
0.000759308
0.00123687
0.00191434
0.00284159
0.00407253
0.00565903
0.00765755
0.0100982
0.0129742
0.0162465
0.0198569
0.0236403
0.0274339
0.0309631
0.0339647
0.0361209
0.0366751
0.0351014
0.031192
0.0258375
0.0203222
0.015487
0.0116264
0.00871675
0.00663439
0.00516023
0.00417272
0.00346016
0.0027052
0.00163876
0.000684904
0.000258149
9.3316e-05
3.71973e-05
2.38262e-05
8.2024e-07
2.44196e-06
1.10737e-05
3.9618e-05
0.000104363
0.000226194
0.000431277
0.000751798
0.00122548
0.00189769
0.00282121
0.00405103
0.00564424
0.00765006
0.0101197
0.0130662
0.0164528
0.0202078
0.0242419
0.0283496
0.0323519
0.0359578
0.0389139
0.0409185
0.0411924
0.0392391
0.0347818
0.0286925
0.0224064
0.0169461
0.0126418
0.00944701
0.00719767
0.0056293
0.00457839
0.00370171
0.00266401
0.00137906
0.000525198
0.000198909
6.95969e-05
3.44935e-05
1.95186e-05
8.13264e-07
2.41694e-06
1.09522e-05
3.92123e-05
0.00010333
0.000223885
0.00042665
0.000743513
0.00121326
0.00188015
0.00279668
0.00402206
0.00561461
0.00763025
0.0101103
0.0130928
0.016565
0.0204533
0.0246484
0.0290304
0.0333666
0.0374654
0.0410406
0.0438628
0.0456372
0.0456612
0.0434041
0.0384037
0.0315603
0.0245078
0.0184359
0.0137047
0.01024
0.00784021
0.00618183
0.004995
0.00386658
0.00248407
0.00108832
0.00039419
0.000153233
5.02015e-05
3.44485e-05
1.41084e-05
8.06576e-07
2.39628e-06
1.08336e-05
3.87658e-05
0.000102244
0.000221622
0.000422214
0.000735454
0.00119984
0.00186136
0.00277088
0.00398735
0.00557478
0.00759074
0.0100845
0.013081
0.016597
0.0205865
0.0249319
0.0294898
0.0341173
0.0385601
0.0426399
0.0460861
0.0486844
0.0502458
0.0501131
0.0475871
0.0420193
0.03443
0.0266393
0.0199804
0.014846
0.0111302
0.00859417
0.00680875
0.00538212
0.00389157
0.0021588
0.000812715
0.00029182
0.000117299
3.43564e-05
3.70176e-05
9.25695e-06
7.99744e-07
2.37614e-06
1.07365e-05
3.83314e-05
0.000101046
0.00021924
0.000417883
0.00072775
0.00118676
0.00184075
0.00274327
0.00395087
0.00552731
0.00753795
0.0100333
0.0130488
0.0165834
0.0206241
0.0250861
0.0298095
0.0346218
0.0393682
0.0437975
0.0477449
0.0509673
0.0533464
0.0547869
0.0545465
0.0517161
0.0456
0.0373074
0.0288282
0.0216189
0.0161094
0.0121605
0.00948136
0.00745236
0.0056647
0.00372346
0.00173054
0.000584038
0.000213025
8.87321e-05
2.2952e-05
4.31967e-05
5.94403e-06
7.92597e-07
2.35537e-06
1.06401e-05
3.79732e-05
9.98926e-05
0.000216635
0.000413334
0.000720214
0.00117427
0.00182074
0.00271302
0.00391185
0.00547743
0.00747486
0.00996529
0.0129846
0.0165441
0.0206088
0.0251293
0.029983
0.0349716
0.0399096
0.0446466
0.0489391
0.0526616
0.0556497
0.057888
0.0592642
0.0588642
0.0557516
0.0491415
0.0402285
0.0311202
0.0234026
0.0175487
0.0133703
0.0104389
0.00804132
0.00575707
0.00331877
0.00127615
0.000411114
0.000153112
6.81143e-05
1.33898e-05
4.64721e-05
4.08006e-06
7.85288e-07
2.33367e-06
1.05384e-05
3.76208e-05
9.89367e-05
0.000214128
0.000408376
0.000712311
0.00116208
0.00180158
0.0026837
0.00386917
0.00542415
0.00740886
0.0098842
0.0128993
0.0164659
0.0205624
0.0251133
0.030031
0.0351622
0.0402839
0.0452127
0.0498135
0.0538757
0.0573463
0.0601822
0.0623447
0.0635835
0.0630137
0.0596841
0.0526858
0.0432365
0.0335711
0.0253883
0.0192075
0.014751
0.0114015
0.00846803
0.00557305
0.00271048
0.000875765
0.00028614
0.000110193
5.4309e-05
1.17575e-05
5.01329e-05
2.91986e-06
7.78183e-07
2.31169e-06
1.04333e-05
3.72494e-05
9.79971e-05
0.000212047
0.000403619
0.000703739
0.00114931
0.0017829
0.00265564
0.00382775
0.00536584
0.00733821
0.00979916
0.0127979
0.0163622
0.0204699
0.0250602
0.0300151
0.0352142
0.0404868
0.0456024
0.0503939
0.054758
0.058556
0.0618663
0.064609
0.0666057
0.0676647
0.0669791
0.0635343
0.0562631
0.0463704
0.0362199
0.0276056
0.0211214
0.0161964
0.012245
0.00860972
0.00503547
0.0019999
0.000573786
0.000198079
8.01387e-05
4.21887e-05
1.25059e-05
5.01368e-05
2.19028e-06
7.72212e-07
2.29081e-06
1.03292e-05
3.68661e-05
9.70098e-05
0.000210005
0.000399659
0.000695519
0.00113546
0.00176337
0.00262829
0.00378817
0.00530936
0.00726101
0.0097084
0.0126916
0.0162389
0.0203474
0.0249537
0.0299559
0.0351994
0.0405417
0.0458136
0.0507918
0.0553407
0.0594341
0.0630595
0.0662556
0.0688113
0.0705921
0.0714993
0.0707647
0.067327
0.0598586
0.0496103
0.0390424
0.0300818
0.0231559
0.0175764
0.0128121
0.00834321
0.00416106
0.00132991
0.000370556
0.000135103
6.32077e-05
3.15389e-05
1.54967e-05
4.78778e-05
1.68366e-06
7.66716e-07
2.27326e-06
1.02334e-05
3.64897e-05
9.59983e-05
0.000207864
0.000395781
0.000688663
0.00112223
0.00174219
0.00259965
0.00374959
0.00525531
0.00718628
0.00960898
0.0125781
0.0161099
0.0202021
0.0248133
0.029837
0.0351351
0.040529
0.0458696
0.0510066
0.0557382
0.0600091
0.0639176
0.0674136
0.0704107
0.0727235
0.0742975
0.0750905
0.0743565
0.0709757
0.0633622
0.0527698
0.0420025
0.0327528
0.0251895
0.0186895
0.0129314
0.00755447
0.00307575
0.000813016
0.00024062
8.8491e-05
5.53724e-05
2.25638e-05
1.77127e-05
4.3021e-05
1.30376e-06
7.60648e-07
2.25671e-06
1.01542e-05
3.61473e-05
9.50059e-05
0.00020568
0.00039172
0.000681964
0.00111119
0.00172201
0.00256871
0.00370921
0.00520265
0.00711476
0.00951285
0.0124537
0.0159719
0.0200497
0.0246466
0.0296804
0.0350055
0.0404609
0.0458596
0.0510624
0.0559507
0.0603985
0.0644717
0.0682448
0.0715238
0.0742505
0.0763218
0.0777173
0.0784053
0.0776338
0.0742666
0.0664113
0.0556158
0.0451884
0.035451
0.0269537
0.0193137
0.0124382
0.00624335
0.00200576
0.000476796
0.00015499
5.82592e-05
4.84408e-05
1.3185e-05
2.40286e-05
3.6462e-05
9.85377e-07
7.53968e-07
2.23825e-06
1.00755e-05
3.5863e-05
9.41075e-05
0.000203538
0.000387581
0.000674953
0.00110038
0.00170516
0.00253924
0.00366561
0.00514758
0.00704498
0.00942079
0.0123336
0.0158207
0.0198867
0.0244718
0.0294946
0.0348357
0.0403231
0.0457886
0.0510553
0.0560049
0.0606016
0.0648442
0.0687706
0.0723138
0.0753021
0.0777635
0.0796174
0.0808325
0.0813295
0.0803004
0.0766805
0.0686839
0.058262
0.0484543
0.0378559
0.028165
0.0192337
0.011173
0.00458286
0.0011622
0.000279599
9.68802e-05
4.48146e-05
4.89341e-05
3.24202e-06
3.20754e-05
2.89649e-05
7.28173e-07
7.47077e-07
2.21804e-06
9.98452e-06
3.5579e-05
9.33609e-05
0.000201609
0.000383551
0.000667827
0.0010891
0.00168866
0.00251461
0.00362416
0.0050881
0.00697202
0.00933118
0.0122186
0.0156748
0.019708
0.0242848
0.0292998
0.0346343
0.0401435
0.0456452
0.0509821
0.0560007
0.0606483
0.0650273
0.0691195
0.0728062
0.0760412
0.0787388
0.0809501
0.0825879
0.0835438
0.0836103
0.0820633
0.0780634
0.0707368
0.0610266
0.0513084
0.039605
0.028558
0.0182306
0.00913844
0.00292173
0.000620838
0.000165375
6.0134e-05
3.96239e-05
4.85153e-05
1.53958e-06
4.72263e-05
2.15972e-05
5.13486e-07
7.40886e-07
2.19761e-06
9.88788e-06
3.52517e-05
9.26144e-05
0.000200004
0.000379914
0.000660891
0.00107764
0.00167144
0.00249051
0.00358949
0.00503158
0.00689322
0.0092371
0.0121064
0.0155349
0.0195358
0.0240795
0.0290914
0.0344231
0.0399308
0.0454595
0.0508356
0.0559254
0.0606436
0.0650595
0.0692764
0.0731278
0.076489
0.079415
0.0818368
0.0838027
0.0851649
0.0857775
0.0854025
0.0834712
0.0794114
0.073243
0.063803
0.05328
0.0403982
0.0278758
0.0161197
0.00659053
0.00161398
0.000322543
9.82832e-05
3.94234e-05
3.61242e-05
4.05605e-05
3.94878e-06
5.49996e-05
1.52734e-05
3.45513e-07
7.36336e-07
2.17976e-06
9.79443e-06
3.49065e-05
9.17581e-05
0.000198399
0.000376892
0.000654655
0.00106651
0.00165398
0.00246534
0.00355553
0.0049844
0.00681859
0.00913581
0.0119887
0.0153984
0.0193704
0.0238819
0.0288621
0.0341969
0.0397077
0.0452399
0.0506472
0.0557775
0.0605611
0.0650481
0.0692976
0.0732521
0.0767764
0.0798099
0.0824405
0.0845915
0.0862652
0.0873846
0.0877614
0.0873256
0.0854809
0.0817555
0.0756173
0.0659905
0.0541279
0.0399646
0.0258625
0.0129254
0.0040724
0.000793486
0.000170943
5.92542e-05
2.99968e-05
4.39341e-05
3.13636e-05
8.48351e-06
6.13661e-05
9.50394e-06
2.29279e-07
7.32204e-07
2.16663e-06
9.71715e-06
3.45763e-05
9.08584e-05
0.000196563
0.000373866
0.000649463
0.00105652
0.00163704
0.0024399
0.00352011
0.00493808
0.00675616
0.00903977
0.0118617
0.0152551
0.019209
0.0236921
0.0286418
0.0339479
0.0394688
0.0450097
0.0504253
0.0555893
0.0604081
0.0649495
0.0692759
0.0732743
0.0768598
0.0800551
0.0827734
0.0851147
0.0869852
0.0884246
0.0894754
0.0898816
0.0896428
0.0880507
0.084372
0.0769983
0.0670845
0.0536448
0.0380629
0.022333
0.0090603
0.00213572
0.000367141
9.44847e-05
3.79977e-05
1.96066e-05
4.79783e-05
2.25826e-05
1.38125e-05
6.12633e-05
5.73394e-06
1.49571e-07
7.28123e-07
2.15462e-06
9.66185e-06
3.43063e-05
9.00029e-05
0.000194641
0.000370411
0.000644275
0.00104821
0.00162187
0.00241522
0.00348428
0.00488976
0.0066948
0.00895947
0.0117417
0.0151005
0.0190394
0.0235065
0.0284301
0.0337092
0.0392055
0.0447632
0.0501921
0.0553688
0.0602171
0.0647831
0.0691612
0.073236
0.0768927
0.0800938
0.0829669
0.0853792
0.0874411
0.0891066
0.0905077
0.0916309
0.0922108
0.09209
0.0903705
0.0860075
0.0776063
0.0667164
0.0516457
0.03441
0.0173905
0.00536347
0.000971652
0.00017217
5.58974e-05
2.43002e-05
2.46287e-05
4.80876e-05
1.29649e-05
2.15624e-05
5.46267e-05
3.72998e-06
9.56842e-08
7.23287e-07
2.14235e-06
9.60978e-06
3.41145e-05
8.93055e-05
0.000192819
0.000366812
0.000638354
0.00103987
0.00160926
0.00239313
0.00344961
0.00484088
0.00663081
0.00888064
0.0116413
0.0149544
0.0188563
0.0233113
0.0282229
0.0334794
0.0389535
0.0444912
0.0499426
0.0551376
0.0599943
0.0645815
0.0689828
0.0731107
0.0768253
0.0801363
0.0829677
0.0855131
0.0876416
0.0895034
0.0911244
0.0925964
0.0938626
0.0946038
0.0943095
0.0918462
0.0858793
0.077365
0.0647759
0.0478797
0.0288791
0.0116966
0.0026467
0.000405149
8.80766e-05
3.44726e-05
1.01685e-05
3.06467e-05
4.70737e-05
2.58904e-06
3.48296e-05
4.33374e-05
2.45432e-06
5.98533e-08
7.17451e-07
2.12734e-06
9.55197e-06
3.39347e-05
8.88149e-05
0.000191346
0.000363417
0.000632197
0.00103041
0.00159659
0.00237474
0.00341859
0.00479372
0.00656618
0.0087981
0.0115424
0.0148324
0.0186836
0.0231008
0.0280045
0.0332543
0.0387106
0.0442313
0.0496674
0.0548899
0.0597611
0.0643497
0.0687726
0.072926
0.0766903
0.0800325
0.0830028
0.085497
0.0877181
0.0896407
0.0914293
0.0931023
0.0946836
0.0961118
0.0968569
0.0960044
0.0920932
0.0844996
0.0756469
0.0610711
0.042095
0.0216652
0.00653178
0.00111323
0.000170135
5.0125e-05
1.89136e-05
1.24005e-05
3.63076e-05
4.23657e-05
2.06083e-06
5.34997e-05
3.10193e-05
1.57543e-06
3.59768e-08
7.11538e-07
2.10976e-06
9.47931e-06
3.37322e-05
8.83553e-05
0.000190306
0.000360667
0.000626405
0.00102056
0.00158218
0.00235629
0.00339284
0.00475165
0.0065038
0.00871485
0.0114391
0.0147118
0.0185392
0.0229021
0.0277688
0.0330168
0.0384727
0.0439806
0.0494059
0.0546164
0.059515
0.0641082
0.0685333
0.0727136
0.0764998
0.0798858
0.0828659
0.085493
0.0877075
0.0896805
0.0914943
0.0932769
0.0950558
0.09683
0.0982178
0.0985434
0.0966848
0.090921
0.0828622
0.0722648
0.0553599
0.0341545
0.0138265
0.00298759
0.000425147
8.01708e-05
2.7765e-05
7.31412e-06
1.59011e-05
4.31277e-05
3.12812e-05
6.06252e-06
6.46025e-05
2.0656e-05
9.49612e-07
2.0713e-08
7.05822e-07
2.09209e-06
9.39685e-06
3.34777e-05
8.78377e-05
0.000189339
0.000358736
0.000621728
0.00101133
0.00156728
0.00233535
0.00336692
0.00471656
0.00644811
0.00863458
0.0113347
0.0145856
0.018396
0.0227361
0.0275468
0.0327608
0.0382208
0.0437351
0.0491529
0.0543567
0.0592467
0.063858
0.0682859
0.0724745
0.0762851
0.0796886
0.0827049
0.0853301
0.0876303
0.0896445
0.0914918
0.0932614
0.0950907
0.0970025
0.0988378
0.0998261
0.099206
0.0957444
0.0881419
0.0803141
0.0669808
0.0473588
0.0244698
0.00717073
0.00115709
0.000164057
4.1202e-05
1.29945e-05
8.45011e-06
2.05584e-05
4.66776e-05
2.15633e-05
1.0751e-05
6.90977e-05
1.21826e-05
5.31613e-07
1.15419e-08
7.01754e-07
2.0758e-06
9.31675e-06
3.31904e-05
8.71828e-05
0.000188252
0.000356955
0.000618469
0.00100392
0.00155332
0.00231366
0.00333745
0.00468125
0.00640186
0.00856312
0.0112342
0.0144584
0.0182464
0.0225711
0.0273615
0.0325197
0.0379493
0.0434752
0.0489046
0.054106
0.0589934
0.0635901
0.0680289
0.0722279
0.0760448
0.0794715
0.0824998
0.0851548
0.0874505
0.0894894
0.091365
0.0931518
0.0949423
0.0968881
0.0988163
0.100344
0.100583
0.0986242
0.0931411
0.0846452
0.0759495
0.0594441
0.0370134
0.0145866
0.00300176
0.00041202
6.96527e-05
1.97438e-05
7.0662e-06
1.01088e-05
2.74829e-05
4.60294e-05
1.05427e-05
2.37858e-05
6.34015e-05
6.36569e-06
2.92767e-07
6.23754e-09
6.99196e-07
2.06474e-06
9.24919e-06
3.29137e-05
8.64542e-05
0.000186874
0.000354934
0.000615445
0.000998734
0.00154211
0.00229344
0.00330708
0.00464114
0.0063551
0.00850356
0.0111447
0.014336
0.0180955
0.0223983
0.0271763
0.0323178
0.0376941
0.0431947
0.0486415
0.0538599
0.0587484
0.0633385
0.0677528
0.0719691
0.0758008
0.0792307
0.0822788
0.0849422
0.0872599
0.0892893
0.0911519
0.0929199
0.0946913
0.0965611
0.098563
0.100254
0.101137
0.10036
0.0967237
0.0891139
0.0810453
0.0694251
0.0493753
0.025045
0.00689232
0.00107444
0.00014832
3.07806e-05
5.87015e-06
6.57734e-06
1.20513e-05
3.44812e-05
4.40289e-05
1.28264e-06
4.32962e-05
4.96563e-05
3.53253e-06
1.57338e-07
3.22258e-09
6.96879e-07
2.05789e-06
9.20851e-06
3.2686e-05
8.57492e-05
0.000185339
0.000352386
0.000612037
0.000993976
0.00153434
0.00227724
0.00327874
0.00459983
0.00630198
0.00844334
0.0110702
0.0142269
0.0179501
0.0222241
0.0269823
0.0321156
0.0374807
0.0429314
0.0483581
0.0535986
0.0585078
0.0630955
0.0674956
0.0716883
0.0755456
0.0789886
0.0820362
0.0847157
0.0870368
0.0890795
0.0909156
0.0926461
0.0943603
0.09618
0.0980951
0.0998944
0.101082
0.101176
0.0990766
0.0933291
0.0846135
0.0762109
0.0603119
0.0368326
0.0136772
0.00261413
0.000361412
5.58441e-05
1.1991e-05
5.40128e-06
6.75783e-06
1.54233e-05
4.16475e-05
3.52784e-05
3.56175e-06
6.38456e-05
3.32085e-05
1.93218e-06
8.10878e-08
1.59061e-09
6.94208e-07
2.05135e-06
9.18491e-06
3.2555e-05
8.5178e-05
0.000183867
0.000349558
0.000607726
0.000988572
0.00152719
0.00226605
0.00325616
0.00456142
0.00624738
0.00837493
0.0109947
0.0141361
0.0178209
0.0220566
0.0267868
0.031904
0.0372661
0.0427111
0.0480926
0.0533175
0.0582525
0.0628569
0.0672464
0.0714284
0.0752688
0.0787372
0.0817956
0.0844712
0.0868038
0.0888416
0.0906771
0.0923597
0.0940087
0.0957345
0.0975866
0.0993215
0.100711
0.10132
0.100382
0.0964878
0.0884781
0.0802849
0.0688609
0.0483733
0.0230909
0.00577209
0.000868788
0.000120551
2.05943e-05
5.50173e-06
5.7942e-06
7.29669e-06
1.9693e-05
4.68696e-05
2.40912e-05
8.55029e-06
7.37328e-05
1.95857e-05
9.99776e-07
3.94743e-08
7.51646e-10
6.89878e-07
2.04281e-06
9.15825e-06
3.24824e-05
8.4857e-05
0.000182683
0.000346841
0.000602939
0.000981731
0.00151907
0.00225574
0.00324059
0.00453082
0.00619679
0.00830471
0.0109088
0.0140438
0.0177132
0.0219075
0.026599
0.0316907
0.0370409
0.0424881
0.0478702
0.0530547
0.0579778
0.0626033
0.067002
0.0711775
0.0750144
0.0784655
0.0815472
0.084232
0.0865557
0.0885965
0.0904153
0.0920805
0.0936531
0.0952878
0.0970294
0.09872
0.100107
0.101078
0.100913
0.0985415
0.0923651
0.083321
0.0748465
0.0584872
0.0339625
0.0112382
0.00197479
0.000274958
3.90343e-05
7.02109e-06
5.78926e-06
6.16935e-06
8.56409e-06
2.65505e-05
4.60634e-05
1.23935e-05
2.16859e-05
7.17385e-05
9.87555e-06
4.81718e-07
1.84709e-08
3.3923e-10
6.84584e-07
2.0292e-06
9.11614e-06
3.23973e-05
8.46902e-05
0.000182038
0.000344681
0.000598368
0.000974178
0.00150879
0.00224402
0.00322622
0.00450982
0.00615653
0.00823974
0.0108208
0.0139389
0.0176034
0.0217832
0.0264318
0.0314859
0.0368143
0.0422548
0.0476441
0.0528343
0.0577212
0.0623314
0.0667435
0.0709309
0.0747692
0.0782172
0.0812799
0.0839875
0.0863159
0.0883422
0.0901513
0.0917842
0.0933208
0.0948474
0.0964801
0.0980728
0.0994674
0.100543
0.100957
0.0997042
0.0953561
0.0869794
0.0785208
0.0666837
0.0449279
0.0192412
0.0041542
0.00061033
8.2294e-05
1.13378e-05
5.20514e-06
6.40364e-06
6.83034e-06
1.11635e-05
3.36296e-05
4.29304e-05
1.05397e-06
4.61785e-05
5.60286e-05
4.5535e-06
2.2608e-07
8.20227e-09
1.46278e-10
6.79309e-07
2.01338e-06
9.04993e-06
3.22544e-05
8.44883e-05
0.000181713
0.000343526
0.000594759
0.000966965
0.00149743
0.00222917
0.0032099
0.00449048
0.00612897
0.00818826
0.0107395
0.0138314
0.0174784
0.0216559
0.0262921
0.0313036
0.0365968
0.0420201
0.0474073
0.052609
0.0575067
0.0620792
0.0664675
0.0706691
0.0745279
0.0779785
0.0810392
0.0837253
0.0860736
0.0880996
0.0898842
0.0914974
0.0929818
0.0944445
0.0959478
0.0974426
0.098774
0.0999402
0.100617
0.100245
0.0974214
0.0906175
0.0815127
0.0724679
0.0551675
0.0291412
0.00811091
0.00128409
0.000177733
2.19103e-05
4.64232e-06
5.45802e-06
6.67436e-06
7.50977e-06
1.53429e-05
4.15952e-05
3.22607e-05
4.21973e-06
6.85797e-05
3.59904e-05
2.16809e-06
1.00469e-07
3.44291e-09
6.16059e-11
6.74434e-07
1.99776e-06
8.97783e-06
3.20296e-05
8.41373e-05
0.000181318
0.000342982
0.000592876
0.000961317
0.00148662
0.00221282
0.00318921
0.00446843
0.00610361
0.00815304
0.0106753
0.0137325
0.0173508
0.0215111
0.0261486
0.0311505
0.0364029
0.0417951
0.0471692
0.0523733
0.0572855
0.0618678
0.0662116
0.0703916
0.0742724
0.0777445
0.0808085
0.0834899
0.0858167
0.0878559
0.0896334
0.0912139
0.0926604
0.0940466
0.0954656
0.0968389
0.0980961
0.0992411
0.100132
0.10027
0.0987072
0.0936738
0.0848708
0.0762035
0.0634203
0.040199
0.0144893
0.00260488
0.000366306
4.64577e-05
6.61363e-06
4.37354e-06
5.49663e-06
6.7277e-06
8.57985e-06
2.16177e-05
4.52698e-05
2.00995e-05
1.0931e-05
7.88921e-05
1.92323e-05
9.69339e-07
4.20202e-08
1.37418e-09
2.76895e-11
6.70533e-07
1.98382e-06
8.90879e-06
3.17842e-05
8.3573e-05
0.000180601
0.000342294
0.000592025
0.000958437
0.00147822
0.00219728
0.00316644
0.00444041
0.00607463
0.00812066
0.0106316
0.0136544
0.0172335
0.0213635
0.0259855
0.0309931
0.03624
0.0415939
0.0469412
0.0521367
0.0570542
0.0616478
0.065997
0.070137
0.0740026
0.0774961
0.0805807
0.083266
0.0855879
0.0875985
0.0893859
0.0909492
0.0923508
0.0936821
0.0950063
0.0962884
0.0974438
0.0985415
0.0994968
0.100026
0.0992927
0.0959196
0.0883158
0.079199
0.0693189
0.0507
0.02369
0.00515321
0.000727516
9.52813e-05
1.30029e-05
5.15709e-06
4.34668e-06
5.43623e-06
6.60041e-06
1.04142e-05
2.9362e-05
4.40555e-05
7.70523e-06
3.02531e-05
7.04114e-05
8.5197e-06
4.04575e-07
1.6746e-08
5.14555e-10
1.6004e-11
6.68357e-07
1.97321e-06
8.8525e-06
3.15529e-05
8.29625e-05
0.000179442
0.000341002
0.000590934
0.000957201
0.00147403
0.00218528
0.00314482
0.00440961
0.00603773
0.0080835
0.0105911
0.0136012
0.0171411
0.0212282
0.0258195
0.030814
0.0360713
0.0414239
0.0467369
0.0519106
0.0568229
0.0614189
0.0657727
0.0699239
0.0737559
0.0772348
0.0803396
0.083046
0.0853696
0.0873727
0.0891266
0.0906932
0.0920677
0.0933388
0.0945895
0.0957764
0.0968348
0.0978618
0.0988257
0.0995423
0.099451
0.0972919
0.0915316
0.0822514
0.0733101
0.0591783
0.0346239
0.0101397
0.00143502
0.000188709
2.45723e-05
8.35243e-06
4.98567e-06
4.38631e-06
5.26136e-06
6.79745e-06
1.39264e-05
3.81287e-05
3.70437e-05
4.58427e-06
6.16943e-05
4.90985e-05
3.44941e-06
1.623e-07
6.20103e-09
1.88626e-10
1.19158e-11
6.67384e-07
1.96833e-06
8.81394e-06
3.13683e-05
8.23885e-05
0.000178184
0.000338897
0.00058881
0.000955569
0.00147232
0.00217944
0.00312824
0.00438046
0.00599722
0.00803613
0.0105446
0.013552
0.017078
0.0211217
0.0256675
0.0306321
0.03588
0.0412476
0.046564
0.0517073
0.0566018
0.0611902
0.0655396
0.0696982
0.0735508
0.0769983
0.0800867
0.0828115
0.085156