/*--------------------------------*- C++ -*----------------------------------*\
| =========                 |                                                 |
| \\      /  F ield         | OpenFOAM: The Open Source CFD Toolbox           |
|  \\    /   O peration     | Version:  v2012                                 |
|   \\  /    A nd           | Website:  www.openfoam.com                      |
|    \\/     M anipulation  |                                                 |
\*---------------------------------------------------------------------------*/
FoamFile
{
    version     2.0;
    format      ascii;
    class       volScalarField;
    location    "11500";
    object      nk;
}
// * * * * * * * * * * * * * * * * * * * * * * * * * * * * * * * * * * * * * //

dimensions      [0 0 0 0 0 0 0];


internalField   nonuniform List<scalar> 
53312
(
0.0524521
0.0536997
0.0018374
0.0537762
0.00108937
0.000380025
0.0538107
0.00103769
0.000143909
0.000176066
0.0538318
0.00102716
0.000125359
4.49116e-05
0.000120613
0.0538444
0.00102483
0.00012267
3.1405e-05
2.57813e-05
9.70605e-05
0.0538522
0.00102244
0.000122238
2.99371e-05
1.24495e-05
2.12167e-05
8.32123e-05
0.0538576
0.00102158
0.000121895
2.97189e-05
1.11225e-05
7.24628e-06
2.02376e-05
7.33466e-05
0.0538634
0.00102119
0.000121938
2.96821e-05
1.09232e-05
5.78928e-06
5.72807e-06
2.01681e-05
6.56944e-05
0.053871
0.0010212
0.000122273
2.99421e-05
1.10013e-05
5.56602e-06
4.06609e-06
5.45119e-06
2.02116e-05
5.95734e-05
0.0538777
0.00102195
0.000122985
3.05738e-05
1.14256e-05
5.72282e-06
3.80411e-06
3.57379e-06
5.65327e-06
2.01032e-05
5.45156e-05
0.0538811
0.00102349
0.000124755
3.18312e-05
1.23684e-05
6.31253e-06
4.03298e-06
3.2703e-06
3.57952e-06
6.04629e-06
1.97664e-05
5.01989e-05
0.053882
0.00102706
0.000128336
3.48183e-05
1.42632e-05
7.59528e-06
4.79659e-06
3.56985e-06
3.23646e-06
3.81385e-06
6.50282e-06
1.91973e-05
4.6446e-05
0.0538848
0.00103512
0.00013656
4.10622e-05
1.86603e-05
1.02274e-05
6.44256e-06
4.51674e-06
3.60839e-06
3.43645e-06
4.16224e-06
6.95717e-06
1.84217e-05
4.31534e-05
0.0539032
0.00105086
0.000155438
5.53101e-05
2.81225e-05
1.6177e-05
9.85978e-06
6.54865e-06
4.74872e-06
3.88453e-06
3.75904e-06
4.56847e-06
7.36725e-06
1.74872e-05
4.02558e-05
0.0539418
0.00108738
0.000193133
8.83519e-05
4.94634e-05
2.91363e-05
1.74836e-05
1.07964e-05
7.18942e-06
5.22928e-06
4.28867e-06
4.15174e-06
5.00005e-06
7.70425e-06
1.64474e-05
3.7704e-05
0.0539969
0.00115729
0.00027865
0.000157845
9.8734e-05
5.82774e-05
3.41943e-05
2.02073e-05
1.2315e-05
8.10198e-06
5.8495e-06
4.7699e-06
4.58618e-06
5.4341e-06
7.94812e-06
1.53555e-05
3.54575e-05
0.054051
0.00126431
0.000441896
0.000307807
0.000204288
0.000125425
7.17509e-05
4.09162e-05
2.36231e-05
1.4154e-05
9.17819e-06
6.559e-06
5.30146e-06
5.04409e-06
5.85147e-06
8.0855e-06
1.4258e-05
3.34631e-05
0.0540908
0.00138337
0.000691575
0.000593689
0.000429001
0.000270684
0.000158213
8.74662e-05
4.8576e-05
2.74706e-05
1.62075e-05
1.03683e-05
7.33185e-06
5.86685e-06
5.51108e-06
6.23467e-06
8.10727e-06
1.31932e-05
3.16013e-05
0.0541176
0.00147764
0.000968758
0.00103016
0.000856851
0.000578097
0.000346436
0.000194586
0.000104686
5.69169e-05
3.16458e-05
1.84276e-05
1.16471e-05
8.15207e-06
6.45343e-06
5.97356e-06
6.56612e-06
8.01156e-06
1.21855e-05
2.98452e-05
0.0541339
0.00154614
0.00118667
0.00151338
0.00150892
0.0011627
0.000743391
0.000428836
0.000233779
0.000123159
6.58409e-05
3.61028e-05
2.07902e-05
1.29988e-05
9.00753e-06
7.04948e-06
6.41732e-06
6.82859e-06
7.80299e-06
1.12529e-05
2.819e-05
0.0541473
0.00158689
0.00134423
0.00189205
0.00222899
0.00205218
0.00149738
0.00092169
0.00051706
0.00027555
0.0001428
7.53097e-05
4.08205e-05
2.32794e-05
1.44105e-05
9.88624e-06
7.6423e-06
6.82684e-06
7.00603e-06
7.49222e-06
1.04103e-05
2.66706e-05
0.054157
0.00161761
0.0014367
0.00216485
0.00279182
0.00303206
0.00264273
0.00185672
0.00111203
0.000610888
0.000319845
0.000163585
8.53059e-05
4.57829e-05
2.58817e-05
1.58694e-05
1.07751e-05
8.21747e-06
7.18523e-06
7.08464e-06
7.09543e-06
9.65603e-06
2.53012e-05
0.0541639
0.00163906
0.00150632
0.0023246
0.00319596
0.00379626
0.00390149
0.00327472
0.00223939
0.00131421
0.000710342
0.000366685
0.000185516
9.58195e-05
5.09736e-05
2.85803e-05
1.73593e-05
1.1658e-05
8.75828e-06
7.4748e-06
7.05395e-06
6.63313e-06
8.99536e-06
2.40698e-05
0.0541681
0.00165394
0.00155437
0.0024445
0.00343249
0.00434334
0.00488125
0.00482954
0.00394613
0.0026451
0.00152836
0.000815515
0.000416094
0.000208587
0.000106829
5.63711e-05
3.1354e-05
1.88601e-05
1.2516e-05
9.24623e-06
7.6774e-06
6.9132e-06
6.12902e-06
8.43003e-06
2.2942e-05
0.0541699
0.00166498
0.00158711
0.00252703
0.00360948
0.00466351
0.00558065
0.00603744
0.00581326
0.00465656
0.0030741
0.00175478
0.000926568
0.000468113
0.000232779
0.000118302
6.19414e-05
3.41733e-05
2.03464e-05
1.33267e-05
9.66033e-06
7.77601e-06
6.67542e-06
5.60879e-06
7.94727e-06
2.18947e-05
0.0541714
0.00167257
0.00161075
0.00258287
0.00373109
0.00490247
0.0059902
0.00689742
0.0072611
0.0068518
0.00540618
0.00352704
0.00199385
0.00104355
0.000522711
0.000258034
0.000130183
6.76376e-05
3.69993e-05
2.17869e-05
1.40637e-05
9.97874e-06
7.76706e-06
6.35522e-06
5.09477e-06
7.47088e-06
2.09177e-05
0.0541725
0.00167845
0.00162638
0.00262279
0.00381299
0.00506649
0.00629506
0.00740137
0.00828902
0.00855048
0.00794489
0.00619568
0.00400448
0.00224574
0.00116645
0.000579781
0.00028426
0.000142387
7.33925e-05
3.97831e-05
2.31445e-05
1.46983e-05
1.01803e-05
7.65784e-06
5.96803e-06
4.6025e-06
6.99586e-06
2.00328e-05
0.0541733
0.00168193
0.00163816
0.00264875
0.00387114
0.00517651
0.00650407
0.00777563
0.00889207
0.00975326
0.00990489
0.0090924
0.00702502
0.00450638
0.00251034
0.00129504
0.000639143
0.000311292
0.000154794
7.91209e-05
4.24642e-05
2.43766e-05
1.52007e-05
1.02624e-05
7.45644e-06
5.53013e-06
4.14161e-06
6.55837e-06
1.92237e-05
0.0541733
0.00168433
0.00164397
0.00266805
0.00390852
0.00525427
0.00664404
0.00803209
0.00933879
0.0104598
0.0112887
0.0113235
0.0102937
0.00789385
0.00503253
0.00278738
0.00142909
0.00070053
0.000338902
0.000167241
8.47151e-05
4.49721e-05
2.54377e-05
1.55416e-05
1.02328e-05
7.17314e-06
5.05274e-06
3.72122e-06
6.1663e-06
1.85624e-05
0.0541743
0.00168685
0.0016473
0.00267695
0.00393608
0.00530378
0.00674239
0.00820339
0.00964492
0.0109819
0.0121027
0.0128936
0.0128043
0.0115467
0.00880062
0.00558182
0.0030762
0.00156797
0.00076343
0.000366758
0.000179517
9.00449e-05
4.7228e-05
2.62804e-05
1.57288e-05
1.01003e-05
6.82069e-06
4.53158e-06
3.34833e-06
5.81877e-06
1.80172e-05
0.0541747
0.0016883
0.00165053
0.00268144
0.00394812
0.00533999
0.00680471
0.00832344
0.009849
0.0113396
0.0127027
0.0138185
0.0145649
0.0143437
0.0128477
0.00974213
0.00615217
0.00337527
0.00171059
0.000827168
0.00039444
0.00019137
9.49617e-05
4.91473e-05
2.68753e-05
1.57742e-05
9.87561e-06
6.41446e-06
3.99437e-06
3.0271e-06
5.50096e-06
1.77168e-05
0.0541751
0.00168932
0.00165217
0.00268576
0.00395365
0.00535523
0.00684996
0.00839905
0.00999158
0.0115777
0.0131137
0.0144983
0.0156031
0.0162971
0.0159352
0.0141903
0.0107135
0.00674022
0.00368236
0.00185554
0.000890857
0.000421404
0.000202499
9.93043e-05
5.06469e-05
2.72443e-05
1.56923e-05
9.57244e-06
5.97033e-06
3.46437e-06
2.75585e-06
5.20235e-06
1.76262e-05
0.0541749
0.00168962
0.00165184
0.00268749
0.0039589
0.00536161
0.00686845
0.00845362
0.010081
0.0117436
0.0133869
0.0149638
0.0163641
0.01745
0.0180814
0.0175686
0.0155649
0.0117074
0.00734062
0.00399435
0.00200083
0.000953306
0.000447029
0.000212573
0.000102908
5.17332e-05
2.74136e-05
1.55002e-05
9.20821e-06
5.48966e-06
2.95931e-06
2.52976e-06
4.93353e-06
1.76477e-05
0.0541739
0.00169007
0.00165077
0.00268567
0.00396035
0.0053676
0.00687552
0.0084755
0.0101453
0.0118474
0.0135767
0.015273
0.0168848
0.0182923
0.0193485
0.0199047
0.01923
0.016958
0.0127127
0.00794649
0.00430683
0.00214401
0.00101321
0.000470637
0.000221239
0.000105666
5.24538e-05
2.74109e-05
1.52196e-05
8.79952e-06
4.92691e-06
2.49755e-06
2.34398e-06
4.69952e-06
1.77505e-05
0.0541729
0.00169052
0.0016497
0.00268276
0.00395659
0.00536854
0.00688205
0.00848317
0.0101705
0.0119217
0.0136953
0.0154873
0.0172303
0.0188681
0.0202708
0.0212834
0.0217481
0.0208998
0.0183511
0.0137152
0.00854876
0.00461456
0.00228205
0.00106903
0.00049144
0.000228146
0.000107674
5.2863e-05
2.72692e-05
1.48758e-05
8.35226e-06
4.29323e-06
2.09531e-06
2.19197e-06
4.49629e-06
1.79079e-05
0.0541726
0.00169053
0.00164885
0.0026798
0.00395136
0.00536235
0.00688231
0.00849028
0.0101789
0.0119505
0.0137797
0.0156208
0.0174691
0.0192496
0.0209005
0.0222825
0.0232331
0.0235875
0.0225523
0.0197206
0.0146977
0.00913588
0.00491129
0.00241148
0.00111904
0.000508652
0.000233405
0.000109045
5.30231e-05
2.70324e-05
1.4495e-05
7.83488e-06
3.62239e-06
1.76382e-06
2.06896e-06
4.32965e-06
1.8102e-05
0.0541728
0.00169033
0.00164719
0.00267727
0.00394593
0.00535438
0.00687347
0.00848955
0.0101864
0.0119594
0.0138122
0.0157156
0.0176176
0.0195125
0.0213169
0.0229632
0.0243037
0.0251698
0.0253921
0.0241565
0.0210388
0.0156384
0.00969481
0.00518938
0.00252846
0.00116147
0.000522034
0.000237252
0.000109908
5.30143e-05
2.67516e-05
1.40855e-05
7.12027e-06
2.95417e-06
1.50562e-06
1.97105e-06
4.16362e-06
1.83414e-05
0.0541728
0.00169071
0.00164496
0.00267347
0.00394125
0.00534614
0.00686241
0.0084779
0.0101848
0.0119674
0.0138218
0.0157518
0.0177227
0.0196759
0.021603
0.0234124
0.025031
0.026304
0.0270596
0.0271254
0.0256767
0.0222745
0.0165135
0.0102102
0.00544062
0.00262889
0.0011948
0.000532092
0.000239954
0.000110415
5.29342e-05
2.64766e-05
1.35863e-05
6.22844e-06
2.33381e-06
1.31475e-06
1.88898e-06
4.06902e-06
1.86128e-05
0.0541723
0.00169111
0.0016441
0.00266866
0.00393478
0.00533888
0.00685096
0.00846356
0.0101701
0.0119648
0.0138304
0.0157621
0.0177628
0.019791
0.0217804
0.0237199
0.0255097
0.0270717
0.0282468
0.0288627
0.0287469
0.0270748
0.0233939
0.0172984
0.0106658
0.00565648
0.00270889
0.0012202
0.000539403
0.00024183
0.000110757
5.28965e-05
2.62133e-05
1.2783e-05
5.20466e-06
1.80215e-06
1.17787e-06
1.81815e-06
4.0114e-06
1.89172e-05
0.0541716
0.00169106
0.00164348
0.00266625
0.00392683
0.00532929
0.00684089
0.00844876
0.0101524
0.0119471
0.0138268
0.0157713
0.0177738
0.0198348
0.021905
0.0239103
0.025836
0.0275752
0.0290466
0.03009
0.0305359
0.0302144
0.0283119
0.0243642
0.0179673
0.0110458
0.00582883
0.00276963
0.00123883
0.000544636
0.000243271
0.000111164
5.29979e-05
2.58103e-05
1.1573e-05
4.12309e-06
1.38357e-06
1.0813e-06
1.75633e-06
3.95913e-06
1.92136e-05
0.0541712
0.00169057
0.00164208
0.00266431
0.00392244
0.00531784
0.00682798
0.00843561
0.010134
0.0119259
0.0138061
0.0157668
0.0177839
0.0198467
0.0219525
0.0240435
0.0260376
0.0279165
0.0295687
0.0309121
0.0317889
0.0320357
0.0314883
0.0293516
0.0251547
0.0184971
0.011336
0.00595687
0.00281341
0.00125215
0.000548592
0.000244757
0.000111889
5.31969e-05
2.4776e-05
9.98545e-06
3.08438e-06
1.07987e-06
1.01324e-06
1.70146e-06
3.90647e-06
1.9475e-05
0.0541713
0.0016897
0.00163941
0.00266117
0.00391882
0.00531107
0.00681259
0.00841914
0.0101177
0.0119039
0.0137814
0.0157432
0.0177787
0.0198577
0.0219653
0.0240943
0.0261781
0.0281268
0.0299206
0.031446
0.0326224
0.0332991
0.033322
0.0325326
0.0301633
0.0257406
0.0188675
0.0115324
0.00604548
0.00284323
0.00126196
0.000552271
0.000246862
0.00011308
5.30384e-05
2.29176e-05
8.11179e-06
2.18999e-06
8.74266e-07
9.6443e-07
1.65313e-06
3.85475e-06
1.96889e-05
0.054171
0.00168963
0.00163613
0.00265578
0.00391345
0.00530543
0.00680329
0.00839966
0.0100976
0.0118845
0.013756
0.0157153
0.0177524
0.0198519
0.0219775
0.0241082
0.0262316
0.028273
0.0301369
0.0318031
0.0331604
0.0341334
0.0345814
0.0343609
0.0333202
0.0307253
0.0261006
0.0190758
0.0116437
0.00610017
0.00286256
0.00127022
0.000556862
0.000250125
0.000114406
5.13365e-05
2.02145e-05
6.12754e-06
1.50423e-06
7.42211e-07
9.28235e-07
1.60951e-06
3.80943e-06
1.98825e-05
0.0541708
0.00169036
0.00163494
0.00264946
0.00390493
0.00529763
0.00679538
0.00838758
0.010074
0.0118606
0.0137333
0.0156864
0.0177212
0.0198234
0.0219715
0.0241218
0.0262464
0.0283286
0.0302863
0.0320217
0.0335173
0.0346679
0.0354061
0.035604
0.0351284
0.0338341
0.0310209
0.0262362
0.0191349
0.0116783
0.00612656
0.00287504
0.00127942
0.000563665
0.000254572
0.000114307
4.79342e-05
1.67575e-05
4.26763e-06
1.03487e-06
6.6002e-07
8.99834e-07
1.57268e-06
3.77483e-06
2.04749e-05
0.0541701
0.00169009
0.00163515
0.00264676
0.00389493
0.00528552
0.00678489
0.00837737
0.010059
0.0118327
0.0137058
0.0156608
0.0176893
0.0197896
0.0219411
0.024116
0.0262618
0.0283445
0.030343
0.0321721
0.0337347
0.035019
0.0359304
0.0364109
0.0363456
0.0356117
0.0340636
0.0310568
0.0261639
0.0190555
0.0116448
0.00613098
0.00288546
0.00129237
0.000573445
0.000258534
0.000110882
4.26788e-05
1.28421e-05
2.75009e-06
7.43007e-07
6.09084e-07
8.76978e-07
1.54223e-06
3.82977e-06
2.06731e-05
0.0541697
0.00168945
0.00163388
0.00264644
0.00389039
0.00527154
0.00676899
0.00836402
0.0100463
0.0118149
0.0136737
0.0156299
0.017661
0.0197548
0.0219053
0.0240843
0.0262566
0.0283618
0.0303601
0.032229
0.0338834
0.0352317
0.0362711
0.0369195
0.037129
0.0367974
0.0358053
0.0340198
0.0308526
0.0258985
0.0188505
0.011553
0.00612129
0.00289912
0.00131139
0.000584604
0.000256544
0.000103649
3.56778e-05
8.94514e-06
1.67819e-06
5.73519e-07
5.77079e-07
8.58491e-07
1.53717e-06
3.90075e-06
2.06865e-05
0.0541693
0.00168869
0.00163144
0.00264382
0.00388936
0.00526481
0.0067507
0.00834415
0.0100301
0.0117998
0.0136532
0.0155939
0.017627
0.0197245
0.0218686
0.0240472
0.0262247
0.0283577
0.0303797
0.0322471
0.0339392
0.0353764
0.0364761
0.0372463
0.0376189
0.0375545
0.0369581
0.0357222
0.0337247
0.0304257
0.0254546
0.0185332
0.0114127
0.00610619
0.00292051
0.00133542
0.00058962
0.000247098
9.22307e-05
2.748e-05
5.61295e-06
1.01609e-06
4.79063e-07
5.56641e-07
8.4976e-07
1.55455e-06
3.96264e-06
2.07057e-05
0.0541695
0.00168821
0.00162892
0.00263913
0.00388507
0.00526288
0.00674161
0.00832141
0.0100062
0.0117808
0.0136358
0.0155706
0.0175874
0.0196878
0.0218366
0.0240094
0.0261873
0.0283266
0.0303774
0.0322692
0.0339584
0.03543
0.0366146
0.0374415
0.0379297
0.0380243
0.0376893
0.0368428
0.0353865
0.0331982
0.0297935
0.0248483
0.0181149
0.0112343
0.00609181
0.00294911
0.00135433
0.000579065
0.00022893
7.68652e-05
1.90951e-05
3.19811e-06
6.48406e-07
4.27506e-07
5.45447e-07
8.4857e-07
1.57255e-06
4.02744e-06
2.07169e-05
0.0541697
0.00168824
0.001627
0.00263434
0.00387772
0.00525675
0.00673869
0.0083098
0.00997887
0.0117529
0.013614
0.0155512
0.0175619
0.0196452
0.0217983
0.0239768
0.0261495
0.0282901
0.0303481
0.0322692
0.0339832
0.0354505
0.0366654
0.0375724
0.038114
0.0383189
0.0381406
0.0375504
0.0364774
0.0348203
0.0324605
0.0289739
0.0240945
0.0176083
0.0110254
0.00607724
0.0029701
0.00134006
0.00055049
0.000201353
5.88025e-05
1.17769e-05
1.71249e-06
4.58395e-07
4.00189e-07
5.41348e-07
8.50955e-07
1.58645e-06
4.08724e-06
2.07216e-05
0.0541695
0.00168854
0.00162672
0.00263061
0.00387032
0.00524649
0.00673058
0.00830581
0.00996471
0.0117209
0.0135822
0.0155269
0.0175408
0.0196181
0.0217533
0.0239377
0.0261176
0.0282539
0.0303141
0.0322431
0.0339862
0.035478
0.0366872
0.0376198
0.0382368
0.0384926
0.0384203
0.0379857
0.0371651
0.0358855
0.0340453
0.0315316
0.0279848
0.0232087
0.0170241
0.0107826
0.00604098
0.00293867
0.00128898
0.000501463
0.000165303
4.03415e-05
6.42953e-06
9.17646e-07
3.64338e-07
3.86835e-07
5.41346e-07
8.54389e-07
1.59601e-06
4.13916e-06
2.07223e-05
0.0541691
0.00168804
0.00162698
0.00262985
0.00386449
0.0052362
0.00671723
0.00829569
0.00995971
0.0117042
0.0135457
0.0154914
0.0175143
0.0195958
0.0217252
0.0238918
0.026079
0.028224
0.0302808
0.0322129
0.0339644
0.0354846
0.0367172
0.0376433
0.0382806
0.0386074
0.0385848
0.0382532
0.0375878
0.0365578
0.03509
0.0330829
0.0304316
0.0268453
0.0222075
0.0163665
0.0104821
0.0059207
0.00282986
0.00119585
0.000431823
0.000124047
2.42959e-05
3.17973e-06
5.32397e-07
3.19262e-07
3.81483e-07
5.42124e-07
8.57482e-07
1.60319e-06
4.18244e-06
2.07233e-05
0.0541685
0.00168651
0.00162526
0.00263005
0.00386307
0.00522802
0.00670382
0.00827915
0.00994754
0.0116982
0.0135266
0.0154507
0.0174756
0.0195677
0.0217025
0.0238637
0.0260334
0.0281876
0.0302549
0.0321845
0.0339397
0.0354681
0.0367279
0.0376757
0.0383065
0.0386483
0.038693
0.0384106
0.0378464
0.0369726
0.0357526
0.0341135
0.0319542
0.0291816
0.0255781
0.0211082
0.0156277
0.0100603
0.00565341
0.0026386
0.00105863
0.000345636
8.29714e-05
1.27397e-05
1.50154e-06
3.56506e-07
2.98691e-07
3.80091e-07
5.4383e-07
8.59719e-07
1.60006e-06
4.21893e-06
2.07239e-05
0.0541684
0.00168548
0.00162144
0.00262686
0.00386316
0.00522585
0.00669324
0.00826259
0.00992778
0.0116841
0.0135197
0.0154292
0.0174309
0.0195263
0.0216738
0.0238417
0.0260068
0.0281441
0.0302224
0.0321641
0.0339177
0.0354502
0.0367177
0.0376908
0.0383409
0.0386771
0.0387322
0.0385137
0.0379993
0.0372262
0.0361647
0.034773
0.0329777
0.0306812
0.0278071
0.0242118
0.0199272
0.0147702
0.00945817
0.00524052
0.00236352
0.000882432
0.000251618
4.83005e-05
5.91958e-06
7.32243e-07
2.79165e-07
2.90063e-07
3.80437e-07
5.46886e-07
8.60125e-07
1.59575e-06
4.25103e-06
2.0725e-05
0.0541688
0.00168491
0.00161839
0.00262007
0.00385828
0.0052258
0.0066902
0.00824939
0.00990798
0.0116611
0.0135038
0.0154218
0.0174076
0.0194783
0.0216303
0.0238131
0.0259867
0.0281206
0.0301829
0.0321376
0.0339047
0.0354364
0.0367077
0.0376877
0.0383606
0.0387134
0.0387651
0.0385525
0.0380995
0.0373779
0.0364181
0.0351884
0.0336412
0.0317046
0.0292879
0.026337
0.0227655
0.0186483
0.0137231
0.00870278
0.00469016
0.0020139
0.000680886
0.000162267
2.4204e-05
2.55479e-06
4.04013e-07
2.46319e-07
2.87044e-07
3.81202e-07
5.47698e-07
8.59793e-07
1.59964e-06
4.33949e-06
2.07271e-05
0.0541692
0.00168523
0.00161695
0.0026146
0.00384815
0.00521912
0.00669003
0.00824553
0.00989219
0.0116381
0.0134778
0.0154043
0.0174
0.0194537
0.0215801
0.023769
0.0259597
0.0281039
0.0301643
0.0321044
0.0338861
0.0354323
0.0367033
0.0376864
0.0383651
0.0387379
0.0388032
0.0385902
0.0381398
0.0374777
0.0365725
0.0354467
0.0340664
0.0323793
0.0303168
0.0277945
0.0247714
0.0212176
0.0172274
0.0125193
0.00780127
0.00402608
0.00161153
0.000475592
9.03555e-05
1.06219e-05
1.09662e-06
2.69681e-07
2.33065e-07
2.86337e-07
3.8222e-07
5.46851e-07
8.61245e-07
1.63381e-06
4.36415e-06
2.073e-05
0.0541696
0.00168584
0.0016178
0.00261202
0.00383994
0.0052054
0.00668149
0.00824524
0.00988751
0.0116198
0.0134517
0.0153755
0.0173812
0.0194462
0.0215547
0.0237174
0.0259162
0.02808
0.0301529
0.0320926
0.0338613
0.0354233
0.0367094
0.0376922
0.0383731
0.0387502
0.0388331
0.0386298
0.0381829
0.0375221
0.036675
0.0356081
0.0343354
0.0328208
0.0310092
0.0288285
0.0262069
0.0231176
0.0195757
0.0156853
0.0111855
0.00676712
0.00328479
0.00119028
0.000292385
4.297e-05
4.27515e-06
5.11411e-07
2.1631e-07
2.28144e-07
2.86043e-07
3.82386e-07
5.46394e-07
8.73344e-07
1.65902e-06
4.36407e-06
2.07313e-05
0.0541695
0.00168566
0.0016192
0.00261345
0.00383605
0.00519423
0.00666402
0.00823487
0.00988722
0.0116144
0.0134309
0.0153465
0.0173499
0.0194267
0.0215482
0.0236925
0.0258648
0.0280389
0.0301339
0.0320884
0.0338583
0.0354089
0.0367115
0.0377094
0.0383895
0.0387676
0.0388538
0.038665
0.0382244
0.037571
0.0367266
0.0357169
0.0345085
0.0331063
0.0314719
0.0295424
0.02725
0.0245341
0.0213819
0.0178482
0.0140454
0.00975776
0.00563384
0.00251529
0.000792352
0.000154019
1.78149e-05
1.67665e-06
2.86089e-07
1.95844e-07
2.26284e-07
2.85937e-07
3.8233e-07
5.50644e-07
8.85566e-07
1.67542e-06
4.36092e-06
2.07325e-05
0.0541687
0.00168451
0.00161929
0.00261592
0.00383811
0.00518892
0.00664977
0.00821359
0.00987496
0.0116142
0.0134248
0.0153235
0.0173183
0.0193935
0.0215288
0.0236878
0.0258417
0.0279896
0.0300972
0.0320763
0.0338631
0.0354165
0.0367092
0.0377235
0.0384182
0.0387948
0.0388808
0.0386935
0.038265
0.0376153
0.0367815
0.0357789
0.0346277
0.0332963
0.0317791
0.0300327
0.0279911
0.0255897
0.0227817
0.019573
0.0160512
0.012341
0.00825932
0.00445576
0.00177414
0.000461428
6.88543e-05
6.76363e-06
6.88809e-07
2.0171e-07
1.88172e-07
2.25388e-07
2.85621e-07
3.84547e-07
5.57028e-07
8.91332e-07
1.68871e-06
4.35712e-06
2.07336e-05
0.0541686
0.00168301
0.00161692
0.00261624
0.00384184
0.00519172
0.00664303
0.00819614
0.00984991
0.0116002
0.0134248
0.0153169
0.0172934
0.01936
0.0214943
0.0236693
0.0258401
0.0279699
0.0300522
0.0320461
0.0338598
0.0354319
0.0367286
0.0377343
0.0384449
0.0388349
0.0389187
0.0387295
0.0383014
0.0376619
0.0368302
0.0358402
0.0347034
0.0334303
0.0319908
0.0303678
0.0285151
0.0263639
0.0238526
0.0209559
0.0177037
0.0142095
0.0106176
0.00672204
0.0032997
0.00112263
0.000228339
2.68715e-05
2.48373e-06
3.27652e-07
1.70844e-07
1.85234e-07
2.24902e-07
2.86475e-07
3.88766e-07
5.63295e-07
8.92378e-07
1.69753e-06
4.35438e-06
2.07328e-05
0.0541682
0.00168103
0.00161309
0.00261232
0.00384247
0.00519679
0.00664652
0.00818788
0.00982921
0.0115713
0.0134093
0.0153175
0.0172868
0.0193336
0.0214595
0.0236347
0.0258235
0.0279725
0.0300376
0.0320075
0.0338383
0.0354393
0.0367561
0.0377667
0.0384693
0.038874
0.0389702
0.0387771
0.0383458
0.0377062
0.0368834
0.0358956
0.0347723
0.033522
0.0321443
0.030607
0.0288849
0.0269275
0.0246652
0.0220445
0.0190659
0.0157866
0.0123498
0.00886777
0.00519576
0.00223978
0.000616052
9.5598e-05
9.6632e-06
9.32831e-07
1.98924e-07
1.5973e-07
1.83985e-07
2.25002e-07
2.88966e-07
3.92896e-07
5.67129e-07
8.94432e-07
1.71839e-06
4.35264e-06
2.07312e-05
0.0541688
0.00168016
0.00160929
0.00260579
0.0038369
0.00519786
0.00665313
0.00819221
0.00981949
0.0115475
0.0133768
0.0153006
0.0172881
0.0193273
0.0214323
0.0235994
0.0257899
0.0279594
0.0300461
0.0320002
0.0338087
0.0354283
0.0367754
0.037807
0.0385148
0.0389121
0.0390217
0.0388388
0.0384026
0.0377588
0.0369357
0.0359562
0.0348364
0.033601
0.0322535
0.0307839
0.0291568
0.0273385
0.0252738
0.0228973
0.0201742
0.0171286
0.0138446
0.010501
0.00711521
0.00374232
0.00135115
0.000284603
3.51841e-05
3.36521e-06
3.89622e-07
1.54125e-07
1.55729e-07
1.83654e-07
2.26175e-07
2.91967e-07
3.95891e-07
5.70534e-07
9.09745e-07
1.71915e-06
4.35176e-06
2.07305e-05
0.0541697
0.00168008
0.00160725
0.00259948
0.00382738
0.00519062
0.0066548
0.00820055
0.00982478
0.0115363
0.0133498
0.0152646
0.0172703
0.0193299
0.0214269
0.0235723
0.0257556
0.0279284
0.0300381
0.0320161
0.0338106
0.0354098
0.0367768
0.0378392
0.0385684
0.0389708
0.039073
0.0389018
0.0384737
0.0378241
0.0369965
0.0360171
0.0349056
0.0336762
0.0323467
0.0309141
0.0293614
0.0276484
0.025733
0.0235584
0.02107
0.0182552
0.0151617
0.0119101
0.00869089
0.005405
0.00244641
0.000697252
0.000111128
1.20779e-05
1.18249e-06
2.04336e-07
1.38888e-07
1.54428e-07
1.84176e-07
2.27905e-07
2.94427e-07
3.98397e-07
5.78637e-07
9.19557e-07
1.71497e-06
4.35118e-06
2.07291e-05
0.0541706
0.00168103
0.00160804
0.0025961
0.00381838
0.00517803
0.00664583
0.00820283
0.00983489
0.0115426
0.0133374
0.0152348
0.0172311
0.0193114
0.0214312
0.0235686
0.0257298
0.0278964
0.0300113
0.0320149
0.0338354
0.0354226
0.036771
0.037854
0.0386139
0.0390374
0.0391441
0.038966
0.0385471
0.0379039
0.03707
0.036086
0.0349756
0.0337553
0.032435
0.0310256
0.0295177
0.0278871
0.0260878
0.0240718
0.0217877
0.0191937
0.0162996
0.0131875
0.0100186
0.006903
0.0038057
0.00140189
0.00029918
3.86782e-05
4.03449e-06
4.48952e-07
1.42911e-07
1.33896e-07
1.54391e-07
1.85228e-07
2.29505e-07
2.96736e-07
4.03353e-07
5.83924e-07
9.23542e-07
1.71084e-06
4.35073e-06
2.07261e-05
0.054171
0.00168165
0.00161108
0.0025978
0.00381354
0.00516612
0.00663013
0.00819233
0.00983809
0.0115548
0.0133449
0.0152211
0.0171986
0.0192695
0.0214127
0.0235753
0.0257286
0.0278733
0.0299834
0.0319943
0.0338427
0.0354579
0.0367964
0.0378623
0.0386428
0.0390962
0.0392232
0.0390492
0.0386228
0.0379869
0.0371578
0.0361675
0.035053
0.0338351
0.0325256
0.0311296
0.0296514
0.0280744
0.0263668
0.0244783
0.0223603
0.0199693
0.0172768
0.0143248
0.0112397
0.00820138
0.00516994
0.00239403
0.000673917
0.000108821
1.27495e-05
1.35026e-06
2.09456e-07
1.2318e-07
1.3257e-07
1.55022e-07
1.86263e-07
2.3105e-07
3.00118e-07
4.0882e-07
5.86229e-07
9.24171e-07
1.70793e-06
4.35046e-06
2.07223e-05
0.0541703
0.00168114
0.0016133
0.00260344
0.00381632
0.00515985
0.00661531
0.00817346
0.00982604
0.011559
0.0133593
0.0152301
0.0171841
0.0192348
0.0213689
0.0235576
0.0257386
0.027876
0.0299646
0.0319723
0.0338301
0.0354752
0.0368431
0.0379012
0.0386659
0.0391392
0.0392948
0.0391402
0.0387167
0.0380731
0.0372496
0.0362629
0.0351425
0.0339214
0.0326163
0.0312337
0.0297742
0.0282345
0.0265904
0.0248039
0.0228241
0.0206045
0.0181082
0.0153316
0.0123572
0.00935714
0.00643475
0.0035555
0.00129314
0.000265759
3.59557e-05
4.10704e-06
4.80598e-07
1.33666e-07
1.17221e-07
1.32635e-07
1.55791e-07
1.87211e-07
2.33346e-07
3.04051e-07
4.13047e-07
5.88767e-07
9.27023e-07
1.70622e-06
4.35008e-06
2.07198e-05
0.0541698
0.00167944
0.00161296
0.00260768
0.00382496
0.00516386
0.00660755
0.00815563
0.00980401
0.0115455
0.0133647
0.0152469
0.0171947
0.0192198
0.0213325
0.0235126
0.0257225
0.0278901
0.0299724
0.0319596
0.0338161
0.0354725
0.0368717
0.0379601
0.0387186
0.0391771
0.0393514
0.0392241
0.0388183
0.0381765
0.0373454
0.0363629
0.0352453
0.0340192
0.0327124
0.0313367
0.029894
0.0283795
0.0267819
0.0250695
0.023202
0.0211299
0.0188067
0.0162132
0.0133775
0.0104331
0.00756991
0.00473477
0.00214566
0.000572115
8.98706e-05
1.13997e-05
1.32397e-06
2.0719e-07
1.10569e-07
1.15777e-07
1.33136e-07
1.56482e-07
1.88566e-07
2.36261e-07
3.07418e-07
4.16786e-07
5.95843e-07
9.21914e-07
1.70538e-06
4.34973e-06
2.07169e-05
0.0541697
0.00167664
0.00160918
0.00260751
0.00383166
0.0051759
0.00661293
0.00814647
0.0097833
0.0115205
0.0133501
0.0152537
0.0172143
0.0192324
0.0213176
0.0234754
0.0256775
0.0278768
0.0299918
0.0319739
0.0338112
0.0354682
0.0368803
0.0380008
0.03879
0.0392435
0.0394037
0.0392941
0.0389132
0.0382875
0.0374572
0.0364674
0.0353529
0.0341293
0.0328189
0.0314437
0.0300111
0.0285177
0.0269531
0.0252974
0.023515
0.0215647
0.0193964
0.0169726
0.0142968
0.0114434
0.00859258
0.0058471
0.00315532
0.00108451
0.000206255
2.82323e-05
3.5425e-06
4.53115e-07
1.24026e-07
1.03975e-07
1.15754e-07
1.33671e-07
1.57369e-07
1.90413e-07
2.39097e-07
3.10788e-07
4.2136e-07
5.95893e-07
9.1787e-07
1.70494e-06
4.34929e-06
2.07138e-05
0.0541695
0.00167463
0.00160361
0.00260135
0.00383186
0.00518532
0.00662861
0.00815335
0.00977272
0.0114969
0.0133221
0.0152381
0.0172229
0.0192551
0.0213327
0.0234611
0.0256405
0.027833
0.0299825
0.0319997
0.0338334
0.0354727
0.0368872
0.0380218
0.0388432
0.0393271
0.0394833
0.0393604
0.0389951
0.0383922
0.0375767
0.0365869
0.0354655
0.0342442
0.0329364
0.0315596
0.0301303
0.0286513
0.0271132
0.0254996
0.0237844
0.02193
0.019892
0.0176269
0.0151092
0.01238
0.00956728
0.00685151
0.00420123
0.00182254
0.000438221
6.53318e-05
8.59828e-06
1.10592e-06
1.88853e-07
9.97071e-08
1.02416e-07
1.16102e-07
1.34332e-07
1.58515e-07
1.92384e-07
2.42015e-07
3.15377e-07
4.23562e-07
5.93567e-07
9.15325e-07
1.70459e-06
4.34887e-06
2.07107e-05
0.0541701
0.00167352
0.00159991
0.00259226
0.00382324
0.00518611
0.00664117
0.00817301
0.00978123
0.011485
0.0132956
0.0152074
0.0172066
0.0192658
0.0213587
0.0234793
0.0256278
0.0277975
0.0299415
0.0319959
0.0338666
0.035504
0.0369025
0.0380408
0.0388771
0.0393928
0.0395784
0.0394524
0.0390738
0.0384849
0.0376902
0.0367138
0.0355919
0.0343643
0.0330586
0.0316851
0.0302568
0.0287846
0.0272658
0.0256853
0.0240221
0.0222458
0.0203144
0.0181856
0.0158242
0.0132309
0.0104959
0.00778707
0.00518997
0.00271
0.000860077
0.000145318
1.95721e-05
2.58063e-06
3.71968e-07
1.11284e-07
9.30588e-08
1.02311e-07
1.16621e-07
1.3516e-07
1.59766e-07
1.94518e-07
2.45541e-07
3.19359e-07
4.24693e-07
5.90666e-07
9.14019e-07
1.70432e-06
4.34844e-06
2.07061e-05
0.0541711
0.00167293
0.00159791
0.00258633
0.00381027
0.00517499
0.00664272
0.00818886
0.00980509
0.0114953
0.0132826
0.0151784
0.0171734
0.0192491
0.0213719
0.0235092
0.0256497
0.0277875
0.0299088
0.0319593
0.0338696
0.0355458
0.036944
0.038068
0.0389089
0.0394397
0.0396562
0.0395585
0.0391768
0.038575
0.0377927
0.0368352
0.0357254
0.034497
0.033186
0.0318147
0.030391
0.0289229
0.0274154
0.0258603
0.0242378
0.0225239
0.0206816
0.0186688
0.0164462
0.013999
0.0113653
0.00868517
0.00611317
0.00363002
0.00148747
0.000321389
4.34921e-05
5.70957e-06
7.88193e-07
1.57164e-07
8.94237e-08
9.15289e-08
1.02656e-07
1.17289e-07
1.36065e-07
1.61054e-07
1.97259e-07
2.4907e-07
3.22341e-07
4.25809e-07
5.86242e-07
9.13465e-07
1.70419e-06
4.34802e-06
2.07029e-05
0.0541727
0.00167329
0.00159798
0.00258333
0.00380201
0.00515813
0.00662915
0.00819142
0.00982457
0.0115236
0.0132948
0.0151642
0.0171419
0.0192137
0.0213553
0.0235252
0.0256838
0.0278138
0.0299029
0.0319311
0.0338392
0.0355567
0.036995
0.0381202
0.0389483
0.0394843
0.0397157
0.0396478
0.0392925
0.0386877
0.0378929
0.0369465
0.0358539
0.0346365
0.0333247
0.0319493
0.0305285
0.029067
0.0275675
0.026029
0.0244386
0.0227737
0.0210047
0.0190914
0.016992
0.0146797
0.0121703
0.00954562
0.0069857
0.00453095
0.0022461
0.000655789
0.000101651
1.24006e-05
1.65549e-06
2.68634e-07
9.62408e-08
8.36847e-08
9.14555e-08
1.032e-07
1.18031e-07
1.36925e-07
1.62884e-07
2.00198e-07
2.52531e-07
3.24921e-07
4.22766e-07
5.83362e-07
9.13227e-07
1.7041e-06
4.34755e-06
2.07013e-05
0.0541735
0.00167523
0.00160015
0.00258407
0.00379801
0.00514745
0.0066083
0.00817555
0.00982833
0.0115469
0.0133278
0.0151786
0.0171269
0.0191802
0.0213183
0.0235093
0.0257031
0.0278525
0.0299344
0.0319304
0.0338171
0.0355342
0.0370149
0.0381808
0.0390114
0.0395359
0.0397728
0.0397196
0.0393921
0.0388117
0.0380142
0.0370558
0.0359732
0.0347714
0.0334697
0.0320938
0.0306706
0.0292132
0.0277229
0.0261972
0.0246295
0.023004
0.0212935
0.0194639
0.0174727
0.0152863
0.0128995
0.0103643
0.00781211
0.00538929
0.00306666
0.00115904
0.000231207
2.9463e-05
3.45005e-06
5.01027e-07
1.2178e-07
7.96974e-08
8.24645e-08
9.18275e-08
1.03831e-07
1.18727e-07
1.38115e-07
1.64905e-07
2.0326e-07
2.56227e-07
3.25367e-07
4.1952e-07
5.81896e-07
9.13115e-07
1.70399e-06