/*--------------------------------*- C++ -*----------------------------------*\
| =========                 |                                                 |
| \\      /  F ield         | OpenFOAM: The Open Source CFD Toolbox           |
|  \\    /   O peration     | Version:  v2012                                 |
|   \\  /    A nd           | Website:  www.openfoam.com                      |
|    \\/     M anipulation  |                                                 |
\*---------------------------------------------------------------------------*/
FoamFile
{
    version     2.0;
    format      ascii;
    class       volScalarField;
    location    "11500";
    object      nut;
}
// * * * * * * * * * * * * * * * * * * * * * * * * * * * * * * * * * * * * * //

dimensions      [0 2 -1 0 0 0 0];


internalField   nonuniform List<scalar> 
53312
(
8.74421e-08
3.39458e-09
8.59136e-08
1.10785e-09
3.27468e-09
9.26345e-08
6.57072e-10
1.05977e-09
3.35931e-09
1.17546e-07
4.5886e-10
6.28408e-10
1.03298e-09
4.0243e-09
1.53443e-07
3.40203e-10
4.38819e-10
6.10328e-10
1.04971e-09
6.27675e-09
1.88276e-07
2.70051e-10
3.2534e-10
4.25954e-10
6.08771e-10
1.17638e-09
1.13527e-08
2.15265e-07
2.2435e-10
2.58271e-10
3.15894e-10
4.23676e-10
6.45554e-10
1.55097e-09
2.05634e-08
2.34015e-07
1.91957e-10
2.14597e-10
2.51095e-10
3.14943e-10
4.4544e-10
7.66475e-10
2.42286e-09
3.48794e-08
2.47331e-07
1.68084e-10
1.83666e-10
2.09216e-10
2.52461e-10
3.34012e-10
5.20264e-10
1.07114e-09
4.13243e-09
5.45488e-08
2.58818e-07
1.49601e-10
1.60944e-10
1.79991e-10
2.14096e-10
2.75641e-10
3.97707e-10
7.08636e-10
1.7011e-09
7.13314e-09
7.88667e-08
2.68103e-07
1.35029e-10
1.43446e-10
1.5979e-10
1.90091e-10
2.47408e-10
3.48621e-10
5.60215e-10
1.10363e-09
2.86424e-09
1.19739e-08
1.0628e-07
2.74507e-07
1.23872e-10
1.29894e-10
1.46019e-10
1.81756e-10
2.40134e-10
3.48119e-10
5.30271e-10
9.01283e-10
1.84281e-09
4.84871e-09
1.92581e-08
1.34739e-07
2.78522e-07
1.16864e-10
1.20037e-10
1.39974e-10
1.88014e-10
2.7467e-10
3.95875e-10
5.9173e-10
9.09168e-10
1.54286e-09
3.12407e-09
8.03166e-09
2.95679e-08
1.62155e-07
2.80908e-07
1.13952e-10
1.14775e-10
1.45433e-10
2.2614e-10
3.64163e-10
5.47618e-10
7.66868e-10
1.09655e-09
1.62229e-09
2.6634e-09
5.2193e-09
1.2878e-08
4.33452e-08
1.86884e-07
2.82313e-07
1.16298e-10
1.15699e-10
1.65556e-10
3.29904e-10
5.73015e-10
8.69516e-10
1.1898e-09
1.53454e-09
2.04627e-09
2.87208e-09
4.51384e-09
8.48632e-09
1.99239e-08
6.07773e-08
2.07922e-07
2.83264e-07
1.25697e-10
1.25424e-10
2.32487e-10
5.436e-10
1.04487e-09
1.55798e-09
2.05489e-09
2.51463e-09
2.98213e-09
3.71414e-09
4.94681e-09
7.43429e-09
1.33749e-08
2.97368e-08
8.17094e-08
2.24923e-07
2.84264e-07
1.42236e-10
1.47746e-10
3.75075e-10
1.03115e-09
2.00167e-09
3.06383e-09
3.86683e-09
4.50294e-09
5.01236e-09
5.53325e-09
6.49294e-09
8.24391e-09
1.18689e-08
2.04218e-08
4.28552e-08
1.05604e-07
2.38063e-07
2.85464e-07
1.62864e-10
1.82431e-10
6.31955e-10
2.02127e-09
4.08722e-09
6.13739e-09
7.7931e-09
8.64113e-09
9.12804e-09
9.41929e-09
9.80134e-09
1.09298e-08
1.32938e-08
1.83753e-08
3.02307e-08
5.97098e-08
1.31534e-07
2.47876e-07
2.84297e-07
1.82468e-10
2.22469e-10
9.97188e-10
3.77111e-09
8.2902e-09
1.27421e-08
1.58676e-08
1.75768e-08
1.76771e-08
1.73087e-08
1.68061e-08
1.66495e-08
1.77663e-08
2.07806e-08
2.76224e-08
4.34316e-08
8.0526e-08
1.58309e-07
2.5508e-07
2.81497e-07
1.99878e-10
2.60059e-10
1.39173e-09
6.23124e-09
1.56821e-08
2.60109e-08
3.30969e-08
3.60707e-08
3.61098e-08
3.3691e-08
3.10586e-08
2.86877e-08
2.72601e-08
2.79758e-08
3.15546e-08
4.03715e-08
6.06166e-08
1.05236e-07
1.84618e-07
2.60634e-07
2.7765e-07
2.14009e-10
2.91591e-10
1.758e-09
8.8608e-09
2.60245e-08
4.92791e-08
6.76368e-08
7.53608e-08
7.44591e-08
6.89916e-08
6.06655e-08
5.32431e-08
4.71559e-08
4.32061e-08
4.2796e-08
4.66276e-08
5.74354e-08
8.22555e-08
1.33416e-07
2.0917e-07
2.64374e-07
2.74112e-07
2.25894e-10
3.1748e-10
2.04892e-09
1.1287e-08
3.70211e-08
8.17162e-08
1.28065e-07
1.53987e-07
1.55686e-07
1.42754e-07
1.24454e-07
1.0429e-07
8.78409e-08
7.50192e-08
6.65225e-08
6.37444e-08
6.71466e-08
7.96105e-08
1.08602e-07
1.64262e-07
2.30824e-07
2.65987e-07
2.71671e-07
2.35318e-10
3.38791e-10
2.29105e-09
1.31948e-08
4.71158e-08
1.16062e-07
2.12026e-07
2.91248e-07
3.17973e-07
2.98646e-07
2.58246e-07
2.14302e-07
1.72513e-07
1.40245e-07
1.15951e-07
9.97544e-08
9.26026e-08
9.43319e-08
1.07584e-07
1.39599e-07
1.94664e-07
2.48706e-07
2.65912e-07
2.70326e-07
2.42867e-10
3.5543e-10
2.48629e-09
1.47781e-08
5.50159e-08
1.47455e-07
3.00622e-07
4.81409e-07
6.00722e-07
6.09611e-07
5.40506e-07
4.45795e-07
3.55065e-07
2.76164e-07
2.17569e-07
1.74618e-07
1.45971e-07
1.3136e-07
1.29383e-07
1.41829e-07
1.74795e-07
2.21603e-07
2.62363e-07
2.64883e-07
2.69732e-07
2.48554e-10
3.68627e-10
2.63592e-09
1.60458e-08
6.15445e-08
1.7192e-07
3.81272e-07
6.8139e-07
9.91306e-07
1.15041e-06
1.10271e-06
9.33526e-07
7.40395e-07
5.6942e-07
4.2966e-07
3.28955e-07
2.56739e-07
2.08706e-07
1.82107e-07
1.73351e-07
1.82483e-07
2.08678e-07
2.4854e-07
2.71924e-07
2.63456e-07
2.69515e-07
2.52859e-10
3.78434e-10
2.75265e-09
1.70086e-08
6.67469e-08
1.92073e-07
4.43924e-07
8.62791e-07
1.40081e-06
1.89531e-06
2.07857e-06
1.90354e-06
1.55137e-06
1.19018e-06
8.87703e-07
6.51678e-07
4.8578e-07
3.69064e-07
2.91832e-07
2.46864e-07
2.26988e-07
2.29244e-07
2.40689e-07
2.74859e-07
2.78213e-07
2.62045e-07
2.69415e-07
2.55826e-10
3.85818e-10
2.83676e-09
1.77514e-08
7.06719e-08
2.08074e-07
4.95377e-07
1.00328e-06
1.77088e-06
2.67369e-06
3.41881e-06
3.58401e-06
3.16189e-06
2.49564e-06
1.8599e-06
1.34948e-06
9.65745e-07
7.01693e-07
5.19178e-07
3.9932e-07
3.27373e-07
2.90579e-07
2.73896e-07
2.73652e-07
3.00979e-07
2.82266e-07
2.6084e-07
2.69348e-07
2.57409e-10
3.90697e-10
2.89939e-09
1.82774e-08
7.36729e-08
2.20072e-07
5.36069e-07
1.11838e-06
2.05677e-06
3.37463e-06
4.81432e-06
5.88418e-06
5.94546e-06
5.08383e-06
3.90325e-06
2.83454e-06
2.00503e-06
1.40046e-06
9.92394e-07
7.15159e-07
5.34898e-07
4.24844e-07
3.63814e-07
3.17936e-07
3.07298e-07
3.28249e-07
2.83757e-07
2.59886e-07
2.69214e-07
2.58052e-10
3.93346e-10
2.93707e-09
1.86625e-08
7.57695e-08
2.29189e-07
5.66493e-07
1.20913e-06
2.29033e-06
3.91473e-06
6.06604e-06
8.27017e-06
9.74163e-06
9.54561e-06
7.94727e-06
5.95467e-06
4.22311e-06
2.91635e-06
1.98932e-06
1.37505e-06
9.65004e-07
7.01644e-07
5.39724e-07
4.29794e-07
3.64608e-07
3.41003e-07
3.60817e-07
2.82309e-07
2.59152e-07
2.69073e-07
2.58186e-10
3.94489e-10
2.95558e-09
1.88835e-08
7.72836e-08
2.3548e-07
5.89419e-07
1.2767e-06
2.4741e-06
4.35491e-06
7.02835e-06
1.0401e-05
1.36625e-05
1.5605e-05
1.48975e-05
1.21177e-05
8.88205e-06
6.16082e-06
4.15674e-06
2.76968e-06
1.86725e-06
1.27587e-06
9.01546e-07
6.63579e-07
4.99911e-07
4.13614e-07
3.74984e-07
3.74243e-07
2.78475e-07
2.5874e-07
2.68849e-07
2.57821e-10
3.9477e-10
2.96239e-09
1.89769e-08
7.81127e-08
2.39967e-07
6.05132e-07
1.32741e-06
2.61048e-06
4.70045e-06
7.81052e-06
1.20352e-05
1.71476e-05
2.18327e-05
2.42902e-05
2.2671e-05
1.80627e-05
1.29738e-05
8.80923e-06
5.80938e-06
3.78094e-06
2.48567e-06
1.65323e-06
1.13507e-06
7.79678e-07
5.75488e-07
4.64735e-07
4.11527e-07
3.81968e-07
2.73335e-07
2.58479e-07
2.68614e-07
2.56807e-10
3.94094e-10
2.96195e-09
1.89972e-08
7.84193e-08
2.42334e-07
6.16216e-07
1.36188e-06
2.7124e-06
4.95612e-06
8.42335e-06
1.33599e-05
1.9812e-05
2.73383e-05
3.38897e-05
3.68532e-05
3.37172e-05
2.6363e-05
1.85765e-05
1.23541e-05
7.96386e-06
5.06154e-06
3.24423e-06
2.10003e-06
1.36031e-06
9.06821e-07
6.56698e-07
5.18259e-07
4.58108e-07
3.83044e-07
2.67839e-07
2.58238e-07
2.68561e-07
2.5536e-10
3.92363e-10
2.95156e-09
1.89725e-08
7.84259e-08
2.4309e-07
6.21874e-07
1.38595e-06
2.78124e-06
5.14663e-06
8.87556e-06
1.43952e-05
2.19668e-05
3.15337e-05
4.23233e-05
5.12503e-05
5.46167e-05
4.90815e-05
3.77107e-05
2.60906e-05
1.69977e-05
1.07098e-05
6.64571e-06
4.15232e-06
2.58822e-06
1.59398e-06
1.04577e-06
7.43897e-07
5.76173e-07
5.28932e-07
3.75506e-07
2.62685e-07
2.58003e-07
2.68613e-07
2.5371e-10
3.90017e-10
2.93366e-09
1.88813e-08
7.82469e-08
2.42926e-07
6.2341e-07
1.39796e-06
2.82897e-06
5.27452e-06
9.21117e-06
1.5158e-05
2.36463e-05
3.49156e-05
4.87256e-05
6.38128e-05
7.56715e-05
7.91814e-05
6.99952e-05
5.29019e-05
3.5953e-05
2.29477e-05
1.41303e-05
8.55961e-06
5.21305e-06
3.0484e-06
1.85156e-06
1.19785e-06
8.38165e-07
6.46895e-07
5.68927e-07
3.59422e-07
2.58251e-07
2.57796e-07
2.68695e-07
2.51894e-10
3.87396e-10
2.91088e-09
1.87436e-08
7.78013e-08
2.42198e-07
6.22599e-07
1.40068e-06
2.85213e-06
5.36274e-06
9.4361e-06
1.57222e-05
2.48808e-05
3.75453e-05
5.38677e-05
7.33066e-05
9.38921e-05
0.00010924
0.000112396
9.78426e-05
7.27997e-05
4.86167e-05
3.03994e-05
1.82928e-05
1.08163e-05
6.21485e-06
3.55842e-06
2.13645e-06
1.36467e-06
9.44414e-07
7.47188e-07
5.84966e-07
3.37388e-07
2.54765e-07
2.57612e-07
2.68782e-07
2.49817e-10
3.84415e-10
2.88652e-09
1.85769e-08
7.71693e-08
2.40639e-07
6.20407e-07
1.39826e-06
2.85666e-06
5.40469e-06
9.58979e-06
1.60986e-05
2.57917e-05
3.94734e-05
5.78557e-05
8.09011e-05
0.0001076
0.000135014
0.00015432
0.000156288
0.0001341
9.82777e-05
6.45127e-05
3.95156e-05
2.32382e-05
1.31771e-05
7.283e-06
4.12436e-06
2.45187e-06
1.55083e-06
1.07607e-06
9.01814e-07
5.81629e-07
3.1341e-07
2.52191e-07
2.58233e-07
2.68859e-07
2.47625e-10
3.81003e-10
2.85899e-09
1.84001e-08
7.64153e-08
2.38539e-07
6.16089e-07
1.39267e-06
2.85064e-06
5.41147e-06
9.66204e-06
1.6355e-05
2.6397e-05
4.08924e-05
6.07727e-05
8.67714e-05
0.000118513
0.0001543
0.000189908
0.000213447
0.000212944
0.000180202
0.000130153
8.39998e-05
5.04041e-05
2.8867e-05
1.54909e-05
8.47101e-06
4.75418e-06
2.80496e-06
1.76857e-06
1.26353e-06
9.80167e-07
5.5507e-07
2.91141e-07
2.50558e-07
2.52696e-07
2.68933e-07
2.45507e-10
3.77556e-10
2.82809e-09
1.82052e-08
7.56301e-08
2.3607e-07
6.10417e-07
1.38246e-06
2.83839e-06
5.39862e-06
9.67155e-06
1.64736e-05
2.6808e-05
4.18334e-05
6.2912e-05
9.1054e-05
0.000126918
0.000169578
0.000216384
0.000261442
0.000289147
0.000284327
0.000237427
0.000169075
0.000107319
6.30954e-05
3.4015e-05
1.80653e-05
9.79534e-06
5.46017e-06
3.21007e-06
2.05066e-06
1.55042e-06
1.02457e-06
5.07584e-07
2.72828e-07
2.46917e-07
2.49832e-07
2.69005e-07
2.43454e-10
3.74256e-10
2.79856e-09
1.79887e-08
7.47736e-08
2.335e-07
6.03809e-07
1.36926e-06
2.81672e-06
5.37417e-06
9.64694e-06
1.64871e-05
2.69965e-05
4.24689e-05
6.43278e-05
9.41863e-05
0.000133032
0.000181295
0.000237236
0.000296935
0.000352409
0.000383736
0.000372062
0.000306712
0.000215427
0.000134545
7.51782e-05
3.97396e-05
2.09341e-05
1.12803e-05
6.26392e-06
3.70444e-06
2.46299e-06
1.79135e-06
1.02434e-06
4.47488e-07
2.58183e-07
2.43579e-07
2.48416e-07
2.69059e-07
2.4133e-10
3.70961e-10
2.77037e-09
1.77833e-08
7.383e-08
2.30722e-07
5.96988e-07
1.35402e-06
2.78913e-06
5.33205e-06
9.60143e-06
1.64425e-05
2.70137e-05
4.2757e-05
6.52803e-05
9.62539e-05
0.000137491
0.000189795
0.000253162
0.000324713
0.000398918
0.000465287
0.000499021
0.000477209
0.000388478
0.00026925
0.000161851
8.79021e-05
4.61108e-05
2.41447e-05
1.29644e-05
7.21343e-06
4.37708e-06
3.09923e-06
1.94441e-06
9.67859e-07
3.85707e-07
2.47332e-07
2.41131e-07
2.47674e-07
2.69078e-07
2.38973e-10
3.6747e-10
2.74184e-09
1.75881e-08
7.29391e-08
2.27706e-07
5.8966e-07
1.33828e-06
2.7574e-06
5.27897e-06
9.52503e-06
1.63634e-05
2.69393e-05
4.27798e-05
6.57097e-05
9.76402e-05
0.000140428
0.000195969
0.00026467
0.000345827
0.000435081
0.00052492
0.000601968
0.000636048
0.000600053
0.000482504
0.000323624
0.000189198
0.000101999
5.32187e-05
2.77688e-05
1.49208e-05
8.42838e-06
5.39196e-06
3.61287e-06
2.02251e-06
8.57406e-07
3.31761e-07
2.39891e-07
2.39403e-07
2.4729e-07
2.69058e-07
2.36474e-10
3.63603e-10
2.711e-09
1.73929e-08
7.20947e-08
2.24841e-07
5.81722e-07
1.32148e-06
2.72483e-06
5.21827e-06
9.42951e-06
1.62321e-05
2.68081e-05
4.26597e-05
6.57376e-05
9.82622e-05
0.000142389
0.000200028
0.000273005
0.000361042
0.00046243
0.000570976
0.000676892
0.000763469
0.000794914
0.000739947
0.000576785
0.00037675
0.000219304
0.000117627
6.12099e-05
3.19298e-05
1.73223e-05
1.01665e-05
6.8948e-06
4.0082e-06
1.9857e-06
7.1251e-07
2.90515e-07
2.35049e-07
2.3822e-07
2.46985e-07
2.69005e-07
2.34389e-10
3.59705e-10
2.67677e-09
1.71809e-08
7.12487e-08
2.22133e-07
5.7422e-07
1.30335e-06
2.69014e-06
5.15596e-06
9.32052e-06
1.6069e-05
2.65931e-05
4.24525e-05
6.55554e-05
9.82989e-05
0.000143267
0.000202732
0.000278478
0.000372014
0.000482076
0.000605654
0.000734384
0.000855879
0.000949787
0.000974625
0.000878386
0.000668166
0.000434463
0.000252432
0.000135042
7.02996e-05
3.68901e-05
2.05724e-05
1.28472e-05
7.93152e-06
4.26873e-06
1.81289e-06
5.63717e-07
2.62209e-07
2.32046e-07
2.37362e-07
2.46734e-07
2.69155e-07
2.32396e-10
3.56518e-10
2.64513e-09
1.6951e-08
7.03461e-08
2.19443e-07
5.671e-07
1.28623e-06
2.65287e-06
5.08982e-06
9.20882e-06
1.58836e-05
2.63266e-05
4.2115e-05
6.52389e-05
9.80293e-05
0.000143312
0.000203942
0.000282107
0.000379207
0.000496194
0.00063048
0.000777466
0.000926362
0.00106188
0.00115976
0.00115239
0.00101335
0.000765993
0.000496989
0.000288908
0.000154597
8.09227e-05
4.32816e-05
2.54426e-05
1.59742e-05
8.88012e-06
4.29477e-06
1.51876e-06
4.37513e-07
2.44344e-07
2.30225e-07
2.36778e-07
2.46742e-07
2.81474e-07
2.30372e-10
3.53357e-10
2.61974e-09
1.67386e-08
6.93648e-08
2.16573e-07
5.60072e-07
1.27003e-06
2.61757e-06
5.01889e-06
9.09046e-06
1.56938e-05
2.60252e-05
4.16984e-05
6.47279e-05
9.75668e-05
0.000142932
0.000204003
0.000283732
0.000383971
0.000505445
0.000648264
0.00080825
0.000978974
0.00114693
0.00129374
0.00136996
0.00132766
0.00115656
0.000870235
0.000564621
0.000329231
0.000176984
9.41078e-05
5.24416e-05
3.30033e-05
1.84362e-05
9.54314e-06
4.01585e-06
1.16649e-06
3.45997e-07
2.33719e-07
2.2919e-07
2.36608e-07
2.54105e-07
2.84564e-07
2.28252e-10
3.50071e-10
2.59373e-09
1.65668e-08
6.8467e-08
2.13483e-07
5.52601e-07
1.25402e-06
2.58426e-06
4.95192e-06
8.9638e-06
1.54929e-05
2.57166e-05
4.12261e-05
6.4099e-05
9.68183e-05
0.000142275
0.000203484
0.000283817
0.000386109
0.000511547
0.000659909
0.000830234
0.00101649
0.0012102
0.00139498
0.00153022
0.00157893
0.00151331
0.00130762
0.000980887
0.000637679
0.000374417
0.000203868
0.000112193
6.65435e-05
3.90096e-05
2.06567e-05
9.69197e-06
3.4189e-06
8.34084e-07
2.87347e-07
2.27669e-07
2.28764e-07
2.40395e-07
2.58837e-07
2.8364e-07
2.26092e-10
3.46632e-10
2.56565e-09
1.63936e-08
6.77358e-08
2.1065e-07
5.4459e-07
1.23708e-06
2.55141e-06
4.8885e-06
8.84427e-06
1.52784e-05
2.53911e-05
4.0745e-05
6.3388e-05
9.58994e-05
0.000141217
0.00020258
0.000283139
0.000386235
0.000514307
0.00066759
0.000844643
0.00104323
0.0012553
0.00147014
0.00165043
0.00176581
0.00180053
0.00170868
0.00146566
0.00109762
0.000717274
0.000427112
0.000239238
0.000139471
8.3301e-05
4.47502e-05
2.21652e-05
9.14582e-06
2.61834e-06
5.76837e-07
2.53142e-07
2.24461e-07
2.30579e-07
2.45247e-07
2.60041e-07
2.83407e-07
2.24005e-10
3.43189e-10
2.53674e-09
1.62067e-08
6.70011e-08
2.08337e-07
5.37251e-07
1.21899e-06
2.51674e-06
4.82623e-06
8.73124e-06
1.50754e-05
2.50432e-05
4.02364e-05
6.26619e-05
9.4863e-05
0.000139918
0.000201131
0.00028194
0.00038538
0.000514508
0.000671091
0.000854133
0.0010608
0.00128741
0.00152377
0.00173951
0.00190647
0.00201682
0.00203476
0.00191242
0.00162985
0.00122135
0.000807316
0.000494042
0.000291034
0.000180659
9.68985e-05
4.96664e-05
2.24411e-05
7.84204e-06
1.80195e-06
4.07961e-07
2.34605e-07
2.23896e-07
2.33815e-07
2.4861e-07
2.60533e-07
2.83272e-07
2.2224e-10
3.39999e-10
2.5087e-09
1.60144e-08
6.62125e-08
2.06025e-07
5.31241e-07
1.2024e-06
2.47975e-06
4.7606e-06
8.62024e-06
1.48841e-05
2.47146e-05
3.96946e-05
6.18973e-05
9.38053e-05
0.000138453
0.000199351
0.000280011
0.000383839
0.000513473
0.000671416
0.000858534
0.00107238
0.0013086
0.00156197
0.00180356
0.00201132
0.00218052
0.00228337
0.00227978
0.00212306
0.00180049
0.00135775
0.000918821
0.000589205
0.00037001
0.000210771
0.000109781
5.26252e-05
2.10832e-05
6.00118e-06
1.1384e-06
3.10466e-07
2.25639e-07
2.25364e-07
2.37028e-07
2.50797e-07
2.60784e-07
2.83166e-07
2.20614e-10
3.37317e-10
2.48415e-09
1.583e-08
6.5409e-08
2.03552e-07
5.25257e-07
1.18879e-06
2.4459e-06
4.6906e-06
8.50333e-06
1.46964e-05
2.44044e-05
3.91825e-05
6.1081e-05
9.26913e-05
0.000136962
0.000197348
0.000277649
0.000381356
0.000511557
0.000670225
0.000859078
0.00107788
0.00132262
0.00158737
0.00184938
0.0020872
0.002303
0.00247259
0.00256359
0.00253369
0.00234108
0.0019851
0.00152275
0.00107516
0.000731974
0.000445097
0.000240659
0.000119706
5.24866e-05
1.79729e-05
4.0508e-06
6.95308e-07
2.59489e-07
2.22413e-07
2.27831e-07
2.39745e-07
2.5229e-07
2.60882e-07
2.83077e-07
2.18834e-10
3.34715e-10
2.46412e-09
1.5671e-08
6.46382e-08
2.01043e-07
5.18875e-07
1.1753e-06
2.41809e-06
4.62667e-06
8.37907e-06
1.44988e-05
2.41003e-05
3.86993e-05
6.03108e-05
9.15042e-05
0.00013539
0.000195305
0.000274986
0.000378304
0.00050845
0.000667929
0.000857773
0.00107878
0.00132946
0.00160427
0.00188061
0.00214175
0.00239249
0.0026154
0.00278142
0.00285546
0.00279678
0.00257436
0.00220409
0.00174995
0.00130799
0.000890104
0.000507427
0.000266056
0.000124087
4.84858e-05
1.36068e-05
2.42721e-06
4.43011e-07
2.3518e-07
2.22324e-07
2.30346e-07
2.41931e-07
2.53822e-07
2.60832e-07
2.83001e-07
2.16892e-10
3.31768e-10
2.44282e-09
1.55406e-08
6.3976e-08
1.98638e-07
5.12407e-07
1.16093e-06
2.39055e-06
4.57409e-06
8.26548e-06
1.42889e-05
2.3781e-05
3.82254e-05
5.95839e-05
9.03834e-05
0.000133715
0.000193155
0.000272276
0.000374872
0.000504633
0.000664157
0.000855125
0.00107746
0.00133093
0.00161283
0.00190178
0.00217952
0.00245737
0.00272072
0.0029471
0.00310458
0.00315839
0.00307602
0.00284608
0.00250021
0.0020813
0.00157486
0.00100342
0.000561963
0.000281622
0.000120721
4.05663e-05
8.98829e-06
1.3381e-06
3.1567e-07
2.24931e-07
2.23604e-07
2.32596e-07
2.43867e-07
2.49882e-07
2.60699e-07
2.82938e-07
2.14884e-10
3.28608e-10
2.41725e-09
1.54014e-08
6.3433e-08
1.96581e-07
5.06254e-07
1.14641e-06
2.36129e-06
4.52211e-06
8.17203e-06
1.40972e-05
2.34416e-05
3.77283e-05
5.88733e-05
8.93268e-05
0.000132136
0.000190865
0.000269422
0.000371382
0.000500334
0.000659517
0.000850691
0.00107453
0.00132973
0.00161517
0.00191375
0.00220542
0.00250287
0.00279782
0.00307079
0.00329622
0.00344133
0.00347803
0.00339245
0.0031936
0.00291682
0.00247542
0.00174278
0.00110129
0.0005988
0.000282398
0.000108508
3.00362e-05
5.1684e-06
7.28928e-07
2.57067e-07
2.21554e-07
2.25427e-07
2.34769e-07
2.42993e-07
2.47073e-07
2.61106e-07
2.82887e-07
2.13079e-10
3.25463e-10
2.39096e-09
1.52347e-08
6.28548e-08
1.94894e-07
5.00971e-07
1.13259e-06
2.33176e-06
4.46695e-06
8.07977e-06
1.39395e-05
2.31315e-05
3.71999e-05
5.81245e-05
8.82919e-05
0.000130647
0.000188707
0.000266382
0.000367706
0.000495969
0.000654293
0.000845214
0.00106948
0.00132665
0.00161432
0.00191901
0.00222092
0.0025345
0.00285272
0.00316233
0.00344096
0.00366159
0.00379564
0.00382686
0.00376453
0.00358898
0.00334092
0.00269413
0.0018867
0.00116719
0.000608558
0.000265158
8.81466e-05
1.92681e-05
2.65205e-06
4.32001e-07
2.32298e-07
2.21293e-07
2.27282e-07
2.35291e-07
2.41452e-07
2.46547e-07
2.70542e-07
2.82849e-07
2.11769e-10
3.22795e-10
2.36669e-09
1.50648e-08
6.21673e-08
1.93101e-07
4.96648e-07
1.12077e-06
2.30371e-06
4.41134e-06
7.98194e-06
1.37839e-05
2.28771e-05
3.67185e-05
5.73314e-05
8.72036e-05
0.000129188
0.000186671
0.00026352
0.000363788
0.00049137
0.000648988
0.00083904
0.00106321
0.00132112
0.00161131
0.00191977
0.00222832
0.0025545
0.00289143
0.00322857
0.0035494
0.00383011
0.00404637
0.00417373
0.00418713
0.00406317
0.00383449
0.00353617
0.00287571
0.00198518
0.00118653
0.000584729
0.000229399
6.31526e-05
1.06388e-05
1.28652e-06
3.00991e-07
2.22979e-07
2.222e-07
2.28178e-07
2.34704e-07
2.40953e-07
2.53101e-07
2.71711e-07
2.82826e-07
2.10573e-10
3.20884e-10
2.34809e-09
1.49101e-08
6.14686e-08
1.9098e-07
4.92065e-07
1.11109e-06
2.27975e-06
4.35854e-06
7.88358e-06
1.36191e-05
2.26256e-05
3.63225e-05
5.66076e-05
8.60488e-05
0.000127655
0.000184679
0.000260823
0.000360104
0.000486469
0.000643397
0.000832777
0.00105612
0.00131415
0.00160549
0.0019189
0.00223048
0.00256423
0.00291723
0.00327606
0.00362927
0.0039581
0.00423957
0.00445315
0.00453453
0.00448844
0.00430823
0.00402207
0.00367183
0.00299545
0.00201765
0.00114946
0.000525441
0.000178986
3.89976e-05
5.15288e-06
6.4769e-07
2.47427e-07
2.20231e-07
2.22989e-07
2.28113e-07
2.34315e-07
2.45007e-07
2.5622e-07
2.70907e-07
2.82815e-07
2.0938e-10
3.19081e-10
2.3355e-09
1.47935e-08
6.08364e-08
1.8883e-07
4.86655e-07
1.10087e-06
2.26016e-06
4.31358e-06
7.79014e-06
1.34532e-05
2.23595e-05
3.59318e-05
5.60133e-05
8.49973e-05
0.000126026
0.000182583
0.000258182
0.000356638
0.000481866
0.000637437
0.000826163
0.00104891
0.00130625
0.00159801
0.00191495
0.00223083
0.00256849
0.00292967
0.00330907
0.00368762
0.00405404
0.00438874
0.0046649
0.00482999
0.00486173
0.00475553
0.00451388
0.0041709
0.00378781
0.00303311
0.00196908
0.00105318
0.000434412
0.000122731
2.05907e-05
2.29598e-06
3.78527e-07
2.27163e-07
2.1972e-07
2.23056e-07
2.27888e-07
2.36623e-07
2.49144e-07
2.5654e-07
2.70504e-07
2.82807e-07
2.07994e-10
3.17134e-10
2.32287e-09
1.47159e-08
6.03618e-08
1.8689e-07
4.81196e-07
1.08881e-06
2.23943e-06
4.27686e-06
7.71059e-06
1.32961e-05
2.20917e-05
3.55184e-05
5.54286e-05
8.41351e-05
0.000124545
0.000180355
0.000255401
0.000353242
0.00047754
0.000631847
0.000819118
0.00104132
0.00129821
0.00158944
0.00190908
0.00222763
0.00257036
0.00293718
0.00332513
0.00372909
0.00412558
0.00450275
0.00483352
0.00507102
0.00518897
0.0051606
0.00498536
0.00467933
0.00429135
0.00390798
0.00297343
0.00183325
0.000902444
0.000323373
7.21622e-05
9.4578e-06
1.01844e-06
2.73284e-07
2.2008e-07
2.19547e-07
2.22769e-07
2.29309e-07
2.40174e-07
2.49572e-07
2.56216e-07
2.70204e-07
2.82802e-07
2.0631e-10
3.14756e-10
2.30702e-09
1.46385e-08
6.0051e-08
1.85449e-07
4.76294e-07
1.07666e-06
2.21515e-06
4.23803e-06
7.64567e-06
1.31624e-05
2.18387e-05
3.51025e-05
5.48069e-05
8.32848e-05
0.000123334
0.000178334
0.000252446
0.000349657
0.000473299
0.000626599
0.000812518
0.00103322
0.00128971
0.00158074
0.00190206
0.00222214
0.00256809
0.00294108
0.00333711
0.00375064
0.00417628
0.00458943
0.00496611
0.00526793
0.00546361
0.00552431
0.00542417
0.00516953
0.00479862
0.00438552
0.00400267
0.00280588
0.00161438
0.000710816
0.000210682
3.61298e-05
3.94046e-06
5.05072e-07
2.34473e-07
2.1767e-07
2.19209e-07
2.23491e-07
2.32131e-07
2.42358e-07
2.47345e-07
2.55898e-07
2.69993e-07
2.82798e-07
2.04634e-10
3.11983e-10
2.28668e-09
1.4539e-08
5.97414e-08
1.84501e-07
4.72636e-07
1.06577e-06
2.19061e-06
4.19247e-06
7.57733e-06
1.30538e-05
2.16241e-05
3.47097e-05
5.4183e-05
8.23837e-05
0.000122136
0.000176679
0.000249762
0.000345845
0.000468815
0.000621461
0.000806336
0.00102565
0.00128064
0.0015715
0.0018949
0.00221534
0.00256316
0.00294028
0.00334386
0.00376814
0.00420623
0.0046499
0.0050682
0.00542507
0.00569342
0.00583523
0.00582231
0.00564202
0.00530809
0.00487902
0.0044556
0.00383603
0.00252932
0.0013272
0.000502352
0.000117224
1.56863e-05
1.59077e-06
3.13345e-07
2.20797e-07
2.16714e-07
2.19463e-07
2.25497e-07
2.34668e-07
2.42358e-07
2.46706e-07
2.62749e-07
2.69849e-07
2.82796e-07
2.03009e-10
3.09307e-10
2.26416e-09
1.44109e-08
5.9344e-08
1.83571e-07
4.70261e-07
1.05769e-06
2.16872e-06
4.1467e-06
7.49715e-06
1.2939e-05
2.14491e-05
3.43766e-05
5.35937e-05
8.14753e-05
0.000120865
0.000175047
0.000247579
0.000342399
0.000464048
0.000616011
0.000800284
0.00101856
0.00127217
0.00156161
0.00188622
0.00220832
0.00255664
0.00293632
0.00334521
0.00377879
0.00423034
0.00469174
0.00514189
0.00554733
0.00587834
0.00610087
0.00617529
0.00607526
0.0058093
0.00540566
0.00493839
0.004506
0.00353509
0.00215267
0.000998895
0.000309054
5.54084e-05
6.14694e-06
6.89793e-07
2.45536e-07
2.1606e-07
2.16553e-07
2.20782e-07
2.27748e-07
2.35778e-07
2.42617e-07
2.5198e-07
2.62572e-07
2.69765e-07
2.82794e-07
2.01854e-10
3.06929e-10
2.24361e-09
1.42701e-08
5.88268e-08
1.8238e-07
4.67965e-07
1.05251e-06
2.15255e-06
4.10579e-06
7.41634e-06
1.28044e-05
2.12649e-05
3.41069e-05
5.30957e-05
8.06192e-05
0.000119587
0.00017331
0.000245419
0.0003396
0.000459742
0.000610213
0.000793851
0.00101162
0.00126429
0.00155241
0.00187572
0.00220061
0.00254981
0.00293054
0.00334283
0.00378317
0.00424605
0.00472344
0.00519821
0.0056417
0.00602763
0.00631961
0.00647963
0.00647176
0.00627878
0.00592548
0.0054611
0.00497561
0.00447058
0.00310899
0.00170135
0.000669756
0.000161566
2.2726e-05
2.30213e-06
3.68614e-07
2.22544e-07
2.14639e-07
2.17385e-07
2.22517e-07
2.29234e-07
2.36631e-07
2.46807e-07
2.53572e-07
2.61572e-07
2.69725e-07
2.82794e-07
2.01124e-10
3.05407e-10
2.22817e-09
1.41433e-08
5.82685e-08
1.80822e-07
4.64976e-07
1.04746e-06
2.14219e-06
4.07566e-06
7.34454e-06
1.26693e-05
2.10485e-05
3.38214e-05
5.26918e-05
7.98981e-05
0.000118384
0.000171564
0.000243116
0.000336825
0.000456255
0.000604991
0.000786988
0.00100423
0.00125656
0.00154386
0.00186601
0.00219212
0.00254236
0.00292422
0.00333827
0.00378315
0.00425442
0.0047455
0.00523978
0.00571475
0.00614662
0.00650115
0.00673805
0.00681765
0.00671348
0.00642336
0.00598592
0.00547494
0.0049813
0.00405516
0.00257357
0.00122188
0.000387485
7.16923e-05
8.42194e-06
9.02189e-07
2.60213e-07
2.15168e-07
2.1484e-07
2.18772e-07
2.2384e-07
2.30382e-07
2.39835e-07
2.47402e-07
2.52933e-07
2.60961e-07
2.69702e-07
2.82793e-07
2.00467e-10
3.04467e-10
2.22074e-09
1.4052e-08
5.77619e-08
1.79137e-07
4.61091e-07
1.04097e-06
2.13229e-06
4.05667e-06
7.29184e-06
1.25489e-05
2.08311e-05
3.34861e-05
5.22657e-05
7.93152e-05
0.000117369
0.000169919
0.000240798
0.000333862
0.000452803
0.000600785
0.00078084
0.000996345
0.00124831
0.00153551
0.00185702
0.00218424
0.00253421
0.00291717
0.00333293
0.00378053
0.00425775
0.00475917
0.00527036
0.0057698
0.00623955
0.00664769
0.00695449
0.00711771
0.00710183
0.00689203
0.00650195
0.00599029
0.00545478
0.00490803
0.00349924
0.00195846
0.000772745
0.000189233
2.76994e-05
2.97186e-06
4.2738e-07
2.25299e-07
2.1334e-07
2.15891e-07
2.19952e-07
2.24871e-07
2.33004e-07
2.41947e-07
2.46876e-07
2.52734e-07
2.60576e-07
2.69689e-07
2.82793e-07
1.9972e-10
3.03491e-10
2.21683e-09
1.4013e-08
5.74067e-08
1.77624e-07
4.56901e-07
1.03245e-06
2.11936e-06
4.03847e-06
7.25895e-06
1.24613e-05
2.06383e-05
3.31495e-05
5.17641e-05
7.86985e-05
0.000116554
0.000168539
0.000238618
0.000330875
0.000449103
0.000596612
0.000775912
0.000989304
0.00123948
0.00152653
0.00184824
0.00217715
0.00252665
0.00290939
0.00332672
0.00377679
0.00425788
0.00476692
0.00529139
0.0058118
0.0063117
0.00676474
0.00713321
0.00737336
0.00744524
0.0073207
0.00699827
0.00651208
0.00594696
0.00540238
0.00440597
0.00282255
0.00133765
0.000416429
7.83431e-05
9.71832e-06
1.08476e-06
2.74715e-07
2.14867e-07
2.13647e-07
2.17003e-07
2.20843e-07
2.26888e-07
2.35489e-07
2.42964e-07
2.47164e-07
2.57053e-07
2.60353e-07
2.69682e-07
2.82793e-07
1.98492e-10
3.02111e-10
2.21058e-09
1.39954e-08
5.72652e-08
1.76578e-07
4.53132e-07
1.02326e-06
2.10239e-06
4.01471e-06
7.22752e-06
1.24071e-05
2.04983e-05
3.28522e-05
5.12604e-05
7.79716e-05
0.00011569
0.000167435
0.000236799
0.000328075
0.000445373
0.000592126
0.000771019
0.000983703
0.00123164
0.00151691
0.00183875
0.00217026
0.00251991
0.00290217
0.00331966
0.00377196
0.00425644
0.00477077
0.00530563
0.00584282
0.00636833
0.00685826
0.00727912
0.00758882
0.00774318
0.00770777
0.00746251
0.00702628
0.00645833
0.00586874
0.00525351
0.00372883
0.00206891
0.000792305
0.000187978
2.83671e-05
3.26385e-06
4.73115e-07
2.27987e-07
2.12469e-07
2.14544e-07
2.17875e-07
2.22334e-07
2.2924e-07
2.37213e-07
2.44351e-07
2.51169e-07
2.55153e-07
2.60246e-07
2.69679e-07
2.82792e-07
1.96986e-10
2.99897e-10
2.19827e-09
1.39618e-08
5.72149e-08
1.76196e-07
4.50574e-07
1.01506e-06
2.08417e-06
3.98339e-06
7.18627e-06
1.23554e-05
2.04129e-05
3.26372e-05
5.08163e-05
7.7241e-05
0.000114667
0.000166258
0.000235346
0.000325746
0.000441878
0.000587604
0.000765746
0.000978139
0.00122546
0.00150841
0.00182854
0.00216259
0.00251339
0.00289581
0.00331314
0.00376617
0.00425362
0.00477259
0.00531498
0.00586576
0.00641241
0.00693326
0.00739871
0.00776884
0.00799994
0.00804991
0.00789138
0.00751852
0.00697579
0.00635409
0.00574529
0.00461706
0.00292239
0.00134092
0.00039465
7.18599e-05
9.41099e-06
1.13799e-06
2.84672e-07
2.14727e-07
2.12557e-07
2.15389e-07
2.19098e-07
2.24221e-07
2.31204e-07
2.39084e-07
2.46431e-07
2.50154e-07
2.5418e-07
2.60198e-07
2.69677e-07
2.82792e-07
1.95504e-10
2.9743e-10
2.17903e-09
1.38874e-08
5.7098e-08
1.76085e-07
4.49698e-07
1.00955e-06
2.0679e-06
3.94972e-06
7.13173e-06
1.22874e-05
2.03319e-05
3.25076e-05
5.04981e-05
7.65986e-05
0.00011364
0.000164862
0.000233795
0.000323897
0.000438987
0.00058337
0.000760412
0.000972107
0.00121933
0.00150181
0.0018196
0.00215415
0.00250606
0.0028897
0.0033075
0.00376076
0.00424966
0.00477259
0.00532159
0.00588265
0.00644649
0.00699361
0.0074966
0.00791988
0.00821917
0.00835142
0.00827796
0.0079842
0.00748413
0.00685593
0.00621333
0.00544629
0.00382077
0.00206792
0.000740695
0.00016352
2.42419e-05
3.02577e-06
4.78154e-07
2.2936e-07
2.11675e-07
2.13219e-07
2.16478e-07
2.20619e-07
2.25971e-07
2.33321e-07
2.41667e-07
2.46321e-07
2.49774e-07
2.53641e-07
2.60174e-07
2.69676e-07
2.82792e-07
1.94128e-10
2.95079e-10
2.1597e-09
1.37708e-08
5.68154e-08
1.75781e-07
4.49546e-07
1.00783e-06
2.05715e-06
3.91976e-06
7.07317e-06
1.2197e-05
2.02244e-05
3.23855e-05
5.03087e-05
7.61419e-05
0.00011274
0.000163461
0.000231944
0.000321913
0.000436705
0.000579894
0.000755441
0.000966002
0.00121263
0.00149523
0.00181276
0.00214691
0.00249784
0.0028827
0.00330209
0.00375619
0.00424603
0.00477117
0.00532597
0.00589587
0.00647312
0.00704216
0.00757758
0.00804568
0.00840661
0.00861394
0.00862672
0.00841402
0.00797772
0.00736417
0.00668854
0.00600972
0.0046971
0.00291424
0.00127567
0.000339659
5.73459e-05
7.61812e-06
1.03061e-06
2.82696e-07
2.14279e-07
2.11508e-07
2.14202e-07
2.17822e-07
2.2208e-07
2.27839e-07
2.35981e-07
2.43234e-07
2.46747e-07
2.51115e-07
2.53368e-07
2.60163e-07
2.69676e-07
2.82792e-07
1.93042e-10
2.93033e-10
2.14227e-09
1.36536e-08