/*--------------------------------*- C++ -*----------------------------------*\
| =========                 |                                                 |
| \\      /  F ield         | OpenFOAM: The Open Source CFD Toolbox           |
|  \\    /   O peration     | Version:  v2012                                 |
|   \\  /    A nd           | Website:  www.openfoam.com                      |
|    \\/     M anipulation  |                                                 |
\*---------------------------------------------------------------------------*/
FoamFile
{
    version     2.0;
    format      ascii;
    class       volScalarField;
    location    "11500";
    object      omega;
}
// * * * * * * * * * * * * * * * * * * * * * * * * * * * * * * * * * * * * * //

dimensions      [0 0 -1 0 0 0 0];


internalField   nonuniform List<scalar> 
53312
(
4.1089e+09
5.23479e+09
7.96966e+08
6.42264e+09
8.89864e+08
3.198e+08
6.66412e+09
1.07448e+09
3.07182e+08
1.8337e+08
7.03225e+09
1.11005e+09
3.64005e+08
1.52432e+08
1.32006e+08
7.2913e+09
1.16954e+09
3.74571e+08
1.74001e+08
9.05532e+07
1.09685e+08
7.44691e+09
1.21173e+09
3.9425e+08
1.78305e+08
1.01028e+08
6.03272e+07
9.89706e+07
7.57052e+09
1.23718e+09
4.08383e+08
1.87444e+08
1.02858e+08
6.63755e+07
4.36324e+07
9.31964e+07
7.65906e+09
1.25746e+09
4.16954e+08
1.9414e+08
1.07881e+08
6.73016e+07
4.68802e+07
3.36544e+07
8.93948e+07
7.73352e+09
1.27203e+09
4.2385e+08
1.98225e+08
1.11785e+08
7.02477e+07
4.7345e+07
3.49052e+07
2.73771e+07
8.6e+07
7.79903e+09
1.28434e+09
4.28948e+08
2.01591e+08
1.14177e+08
7.29552e+07
4.93407e+07
3.50631e+07
2.70749e+07
2.32957e+07
8.30831e+07
7.85989e+09
1.29527e+09
4.33217e+08
2.04601e+08
1.16313e+08
7.45387e+07
5.11416e+07
3.64506e+07
2.70044e+07
2.17164e+07
2.05932e+07
8.07418e+07
7.92462e+09
1.30551e+09
4.37576e+08
2.06848e+08
1.19614e+08
7.5877e+07
5.22012e+07
3.76967e+07
2.79746e+07
2.14594e+07
1.79245e+07
1.87932e+07
7.87976e+07
8.00559e+09
1.31657e+09
4.41618e+08
2.11553e+08
1.20897e+08
7.77762e+07
5.30955e+07
3.84315e+07
2.88538e+07
2.21261e+07
1.75045e+07
1.51756e+07
1.75983e+07
7.70702e+07
8.1114e+09
1.33151e+09
4.47162e+08
2.15348e+08
1.23271e+08
7.85875e+07
5.42871e+07
3.90525e+07
2.93718e+07
2.27477e+07
1.79397e+07
1.46053e+07
1.3148e+07
1.68156e+07
7.545e+07
8.20914e+09
1.34947e+09
4.64609e+08
2.17868e+08
1.25228e+08
7.99614e+07
5.4833e+07
3.98436e+07
2.9812e+07
2.31121e+07
1.83712e+07
1.48565e+07
1.24349e+07
1.16347e+07
1.63146e+07
7.3866e+07
8.29514e+09
1.36682e+09
4.71095e+08
2.24749e+08
1.26629e+08
8.11177e+07
5.57012e+07
4.02249e+07
3.03553e+07
2.34254e+07
1.86216e+07
1.5142e+07
1.25351e+07
1.07842e+07
1.04967e+07
1.60048e+07
7.22508e+07
8.33742e+09
1.38227e+09
4.77485e+08
2.27947e+08
1.30073e+08
8.1993e+07
5.64451e+07
4.08056e+07
3.06272e+07
2.38049e+07
1.8841e+07
1.53041e+07
1.27047e+07
1.07572e+07
9.51344e+06
9.63745e+06
1.58208e+07
7.05802e+07
8.33999e+09
1.39082e+09
4.83379e+08
2.31188e+08
1.31948e+08
8.39852e+07
5.7033e+07
4.13113e+07
3.10298e+07
2.39996e+07
1.91067e+07
1.54515e+07
1.2796e+07
1.0832e+07
9.37732e+06
8.52671e+06
8.98697e+06
1.57148e+07
6.93212e+07
8.29245e+09
1.39302e+09
4.86966e+08
2.34259e+08
1.33897e+08
8.52045e+07
5.8299e+07
4.1725e+07
3.1386e+07
2.42844e+07
1.92442e+07
1.56342e+07
1.28861e+07
1.0865e+07
9.37302e+06
8.2955e+06
7.75533e+06
8.49337e+06
1.56456e+07
6.82666e+07
8.25585e+09
1.38713e+09
4.88318e+08
2.36264e+08
1.35785e+08
8.65025e+07
5.91468e+07
4.25823e+07
3.16859e+07
2.45405e+07
1.94468e+07
1.57277e+07
1.30058e+07
1.09083e+07
9.35695e+06
8.22424e+06
7.441e+06
7.14891e+06
8.11736e+06
1.55725e+07
6.73143e+07
8.21337e+09
1.3829e+09
4.8677e+08
2.37185e+08
1.37083e+08
8.77829e+07
6.00709e+07
4.32e+07
3.22929e+07
2.47618e+07
1.96323e+07
1.58704e+07
1.30643e+07
1.09787e+07
9.36103e+06
8.16615e+06
7.31235e+06
6.76213e+06
6.66939e+06
7.82865e+06
1.55365e+07
6.62637e+07
8.1765e+09
1.37766e+09
4.85696e+08
2.36672e+08
1.37755e+08
8.87011e+07
6.09977e+07
4.38891e+07
3.27581e+07
2.52053e+07
1.97967e+07
1.60039e+07
1.31615e+07
1.10083e+07
9.39159e+06
8.1367e+06
7.21792e+06
6.58422e+06
6.22027e+06
6.2874e+06
7.60452e+06
1.55682e+07
6.50146e+07
8.15043e+09
1.37321e+09
4.84194e+08
2.36345e+08
1.37583e+08
8.92161e+07
6.16866e+07
4.45914e+07
3.32897e+07
2.55643e+07
2.01277e+07
1.61257e+07
1.32556e+07
1.107e+07
9.397e+06
8.13438e+06
7.15945e+06
6.45819e+06
6.00027e+06
5.78574e+06
5.97956e+06
7.42767e+06
1.56722e+07
6.35958e+07
8.12807e+09
1.37037e+09
4.82925e+08
2.35779e+08
1.37492e+08
8.91778e+07
6.20955e+07
4.51295e+07
3.384e+07
2.59852e+07
2.04099e+07
1.63761e+07
1.33443e+07
1.11329e+07
9.4301e+06
8.11898e+06
7.12944e+06
6.3744e+06
5.84682e+06
5.53032e+06
5.43529e+06
5.72684e+06
7.28337e+06
1.58393e+07
6.2058e+07
8.11343e+09
1.36798e+09
4.82201e+08
2.35305e+08
1.37249e+08
8.91782e+07
6.21165e+07
4.54653e+07
3.42746e+07
2.64278e+07
2.07495e+07
1.66006e+07
1.3535e+07
1.11954e+07
9.46785e+06
8.12849e+06
7.09586e+06
6.32077e+06
5.7409e+06
5.35335e+06
5.15086e+06
5.15025e+06
5.51341e+06
7.15646e+06
1.60417e+07
6.04395e+07
8.10021e+09
1.36663e+09
4.81628e+08
2.35084e+08
1.37048e+08
8.90697e+07
6.2154e+07
4.55139e+07
3.45569e+07
2.67879e+07
2.11137e+07
1.68794e+07
1.37153e+07
1.13404e+07
9.50879e+06
8.14543e+06
7.08551e+06
6.27111e+06
5.66692e+06
5.22815e+06
4.95415e+06
4.84331e+06
4.91515e+06
5.32569e+06
7.02661e+06
1.6097e+07
5.87794e+07
8.09395e+09
1.36546e+09
4.81427e+08
2.34934e+08
1.36986e+08
8.89803e+07
6.21093e+07
4.55676e+07
3.46193e+07
2.70307e+07
2.14183e+07
1.71841e+07
1.3947e+07
1.14859e+07
9.6181e+06
8.16841e+06
7.08489e+06
6.24375e+06
5.60295e+06
5.1366e+06
4.81239e+06
4.63058e+06
4.59243e+06
4.71695e+06
5.15167e+06
6.87362e+06
1.59722e+07
5.71768e+07
8.09187e+09
1.36524e+09
4.81273e+08
2.34961e+08
1.36964e+08
8.89783e+07
6.20743e+07
4.55562e+07
3.46799e+07
2.71003e+07
2.16314e+07
1.74468e+07
1.4206e+07
1.16806e+07
9.7356e+06
8.24904e+06
7.09256e+06
6.22806e+06
5.56084e+06
5.05987e+06
4.7057e+06
4.47488e+06
4.36757e+06
4.38557e+06
4.54429e+06
4.9813e+06
6.71243e+06
1.57579e+07
5.56272e+07
8.09214e+09
1.36542e+09
4.81445e+08
2.35003e+08
1.37041e+08
8.89982e+07
6.20944e+07
4.55486e+07
3.46877e+07
2.71639e+07
2.17052e+07
1.76374e+07
1.44364e+07
1.19038e+07
9.90065e+06
8.34373e+06
7.14984e+06
6.2225e+06
5.53202e+06
5.00487e+06
4.61763e+06
4.35531e+06
4.20057e+06
4.1527e+06
4.212e+06
4.38728e+06
4.80542e+06
6.5655e+06
1.54984e+07
5.43356e+07
8.09369e+09
1.36618e+09
4.81759e+08
2.35193e+08
1.37121e+08
8.90819e+07
6.21306e+07
4.55787e+07
3.46952e+07
2.71831e+07
2.17699e+07
1.77139e+07
1.46097e+07
1.2109e+07
1.00954e+07
8.48465e+06
7.22545e+06
6.26033e+06
5.51486e+06
4.9645e+06
4.55134e+06
4.25726e+06
4.07028e+06
3.9772e+06
3.97558e+06
4.06235e+06
4.23673e+06
4.61478e+06
6.43872e+06
1.52094e+07
5.32151e+07
8.09634e+09
1.36691e+09
4.82278e+08
2.35462e+08
1.37287e+08
8.91646e+07
6.22076e+07
4.56185e+07
3.47289e+07
2.71996e+07
2.17966e+07
1.77789e+07
1.46878e+07
1.22688e+07
1.02805e+07
8.65639e+06
7.34651e+06
6.31983e+06
5.5363e+06
4.9371e+06
4.50079e+06
4.18109e+06
3.96359e+06
3.8383e+06
3.79447e+06
3.82732e+06
3.92818e+06
4.084e+06
4.40135e+06
6.32967e+06
1.48876e+07
5.26622e+07
8.10213e+09
1.36788e+09
4.82763e+08
2.35822e+08
1.37495e+08
8.93009e+07
6.22824e+07
4.56872e+07
3.47687e+07
2.72346e+07
2.18186e+07
1.78106e+07
1.47532e+07
1.23482e+07
1.04296e+07
8.82528e+06
7.49939e+06
6.42433e+06
5.58203e+06
4.94457e+06
4.46429e+06
4.12156e+06
3.87886e+06
3.72434e+06
3.64917e+06
3.64378e+06
3.70005e+06
3.80166e+06
3.92071e+06
4.17742e+06
6.23344e+06
1.4508e+07
5.25927e+07
8.10917e+09
1.36929e+09
4.83344e+08
2.36153e+08
1.37754e+08
8.94616e+07
6.23932e+07
4.57531e+07
3.4829e+07
2.72727e+07
2.18537e+07
1.78366e+07
1.47884e+07
1.24135e+07
1.05099e+07
8.96569e+06
7.6549e+06
6.56143e+06
5.67249e+06
4.97828e+06
4.45971e+06
4.07695e+06
3.81145e+06
3.63232e+06
3.52939e+06
3.49432e+06
3.51759e+06
3.58668e+06
3.67519e+06
3.73825e+06
3.96718e+06
6.14251e+06
1.4107e+07
5.27761e+07
8.11565e+09
1.37082e+09
4.84038e+08
2.36536e+08
1.37995e+08
8.96546e+07
6.252e+07
4.58431e+07
3.4886e+07
2.73258e+07
2.18901e+07
1.78711e+07
1.48172e+07
1.24515e+07
1.0575e+07
9.04635e+06
7.78773e+06
6.70541e+06
5.796e+06
5.05661e+06
4.48282e+06
4.06194e+06
3.75967e+06
3.55808e+06
3.43134e+06
3.37023e+06
3.36644e+06
3.40924e+06
3.48052e+06
3.5407e+06
3.52908e+06
3.78402e+06
6.05405e+06
1.37139e+07
5.31609e+07
8.12328e+09
1.37223e+09
4.84795e+08
2.36968e+08
1.38261e+08
8.98351e+07
6.26689e+07
4.59448e+07
3.49608e+07
2.73751e+07
2.19367e+07
1.79056e+07
1.48512e+07
1.24821e+07
1.0615e+07
9.11099e+06
7.8682e+06
6.83129e+06
5.92966e+06
5.16819e+06
4.5505e+06
4.07553e+06
3.73557e+06
3.49998e+06
3.3513e+06
3.26745e+06
3.23969e+06
3.25907e+06
3.31269e+06
3.37478e+06
3.38962e+06
3.2996e+06
3.62942e+06
5.96107e+06
1.33373e+07
5.3685e+07
8.13329e+09
1.37387e+09
4.85504e+08
2.37422e+08
1.38554e+08
9.00319e+07
6.28067e+07
4.60611e+07
3.50426e+07
2.74375e+07
2.198e+07
1.79474e+07
1.48839e+07
1.25156e+07
1.0647e+07
9.15219e+06
7.93184e+06
6.91065e+06
6.04864e+06
5.29208e+06
4.65116e+06
4.13369e+06
3.74054e+06
3.46802e+06
3.28773e+06
3.18266e+06
3.13351e+06
3.13152e+06
3.16654e+06
3.22206e+06
3.26237e+06
3.21196e+06
3.0699e+06
3.49997e+06
5.86646e+06
1.29726e+07
5.43045e+07
8.14196e+09
1.37586e+09
4.8628e+08
2.37857e+08
1.38862e+08
9.02419e+07
6.29561e+07
4.617e+07
3.51359e+07
2.75047e+07
2.20324e+07
1.79853e+07
1.49216e+07
1.25468e+07
1.06798e+07
9.18505e+06
7.97361e+06
6.97271e+06
6.12587e+06
5.40375e+06
4.76534e+06
4.224e+06
3.78998e+06
3.46511e+06
3.24902e+06
3.1145e+06
3.04505e+06
3.02337e+06
3.04021e+06
3.0835e+06
3.13138e+06
3.13475e+06
3.00393e+06
2.8557e+06
3.39293e+06
5.77182e+06
1.28747e+07
5.50526e+07
8.14938e+09
1.37761e+09
4.87159e+08
2.38315e+08
1.39154e+08
9.04611e+07
6.31133e+07
4.62857e+07
3.52224e+07
2.75803e+07
2.20884e+07
1.80301e+07
1.49552e+07
1.25809e+07
1.07097e+07
9.21713e+06
8.00678e+06
7.01431e+06
6.18551e+06
5.4776e+06
4.86893e+06
4.32815e+06
3.87018e+06
3.50641e+06
3.23887e+06
3.07008e+06
2.9732e+06
2.93239e+06
2.93166e+06
2.96079e+06
3.00474e+06
3.03396e+06
2.98162e+06
2.77779e+06
2.66378e+06
3.30682e+06
5.73074e+06
1.28273e+07
5.58818e+07
8.15683e+09
1.37912e+09
4.87946e+08
2.38822e+08
1.39457e+08
9.06711e+07
6.32771e+07
4.64066e+07
3.53141e+07
2.76501e+07
2.215e+07
1.80767e+07
1.49937e+07
1.26111e+07
1.0741e+07
9.24574e+06
8.03795e+06
7.04717e+06
6.22609e+06
5.53383e+06
4.93799e+06
4.42256e+06
3.96372e+06
3.57651e+06
3.27249e+06
3.05333e+06
2.92409e+06
2.85778e+06
2.83937e+06
2.85358e+06
2.88852e+06
2.92475e+06
2.9215e+06
2.79685e+06
2.55027e+06
2.49668e+06
3.24769e+06
5.68444e+06
1.27982e+07
5.68049e+07
8.16608e+09
1.38065e+09
4.88653e+08
2.39282e+08
1.3979e+08
9.08872e+07
6.34331e+07
4.65316e+07
3.54089e+07
2.77236e+07
2.22071e+07
1.81278e+07
1.50331e+07
1.26447e+07
1.07682e+07
9.27454e+06
8.06521e+06
7.07712e+06
6.25794e+06
5.57245e+06
4.98974e+06
4.48537e+06
4.04772e+06
3.65869e+06
3.33236e+06
3.07966e+06
2.90141e+06
2.80499e+06
2.763e+06
2.76134e+06
2.78471e+06
2.81865e+06
2.83709e+06
2.78369e+06
2.58873e+06
2.33188e+06
2.35689e+06
3.20487e+06
5.61945e+06
1.27305e+07
5.77144e+07
8.17826e+09
1.38241e+09
4.89356e+08
2.39698e+08
1.4009e+08
9.11184e+07
6.35927e+07
4.66513e+07
3.55068e+07
2.7799e+07
2.22666e+07
1.81746e+07
1.50755e+07
1.26781e+07
1.07975e+07
9.29927e+06
8.09174e+06
7.10297e+06
6.28638e+06
5.60262e+06
5.02541e+06
4.5315e+06
4.10278e+06
3.731e+06
3.4024e+06
3.12922e+06
2.92083e+06
2.77706e+06
2.70752e+06
2.68428e+06
2.69404e+06
2.72074e+06
2.74589e+06
2.73332e+06
2.61561e+06
2.37096e+06
2.12942e+06
2.24461e+06
3.16836e+06
5.53918e+06
1.26252e+07
5.85394e+07
8.18949e+09
1.38459e+09
4.9011e+08
2.401e+08
1.40363e+08
9.13309e+07
6.37629e+07
4.67729e+07
3.55999e+07
2.78764e+07
2.23271e+07
1.82232e+07
1.51143e+07
1.27137e+07
1.08262e+07
9.32508e+06
8.11425e+06
7.12741e+06
6.31056e+06
5.62905e+06
5.05315e+06
4.56329e+06
4.14217e+06
3.77689e+06
3.46182e+06
3.18644e+06
2.96001e+06
2.7899e+06
2.67504e+06
2.62711e+06
2.61747e+06
2.63345e+06
2.6571e+06
2.6637e+06
2.60385e+06
2.42522e+06
2.15243e+06
1.94858e+06
2.15779e+06
3.13353e+06
5.45093e+06
1.25045e+07
5.92408e+07
8.1947e+09
1.38662e+09
4.91033e+08
2.40536e+08
1.4063e+08
9.15236e+07
6.39183e+07
4.69019e+07
3.56943e+07
2.79501e+07
2.2389e+07
1.82722e+07
1.5154e+07
1.27458e+07
1.0856e+07
9.34965e+06
8.13705e+06
7.14782e+06
6.33285e+06
5.65131e+06
5.0771e+06
4.58781e+06
4.16913e+06
3.80852e+06
3.49728e+06
3.23193e+06
3.00379e+06
2.81856e+06
2.68155e+06
2.59077e+06
2.5596e+06
2.55868e+06
2.57543e+06
2.58847e+06
2.56333e+06
2.44697e+06
2.2237e+06
1.93892e+06
1.79292e+06
2.09267e+06
3.09762e+06
5.35716e+06
1.23902e+07
5.98299e+07
8.20147e+09
1.38777e+09
4.91866e+08
2.41036e+08
1.40908e+08
9.17098e+07
6.40611e+07
4.70197e+07
3.57939e+07
2.80245e+07
2.24479e+07
1.83221e+07
1.5194e+07
1.27785e+07
1.08828e+07
9.37487e+06
8.15826e+06
7.16797e+06
6.35129e+06
5.67143e+06
5.09709e+06
4.6088e+06
4.18977e+06
3.82982e+06
3.52027e+06
3.25594e+06
3.0345e+06
2.84832e+06
2.69951e+06
2.59107e+06
2.52011e+06
2.5011e+06
2.50404e+06
2.51538e+06
2.50779e+06
2.43723e+06
2.27171e+06
2.01691e+06
1.7387e+06
1.66646e+06
2.04447e+06
3.05903e+06
5.27032e+06
1.22893e+07
5.89385e+07
8.21003e+09
1.38907e+09
4.92388e+08
2.41497e+08
1.41228e+08
9.19041e+07
6.41975e+07
4.71274e+07
3.58854e+07
2.81028e+07
2.25071e+07
1.83692e+07
1.52343e+07
1.2811e+07
1.09098e+07
9.3972e+06
8.17958e+06
7.18621e+06
6.36903e+06
5.68785e+06
5.11487e+06
4.62618e+06
4.20733e+06
3.84595e+06
3.53524e+06
3.26958e+06
3.04622e+06
2.86347e+06
2.71465e+06
2.59808e+06
2.51416e+06
2.45914e+06
2.44775e+06
2.44929e+06
2.44747e+06
2.40643e+06
2.28825e+06
2.08641e+06
1.8066e+06
1.55685e+06
1.57037e+06
2.00796e+06
3.01847e+06
5.18878e+06
1.21136e+07
5.88764e+07
8.2197e+09
1.39062e+09
4.92951e+08
2.41806e+08
1.41518e+08
9.21231e+07
6.43391e+07
4.72309e+07
3.59687e+07
2.81743e+07
2.25691e+07
1.84165e+07
1.52723e+07
1.28437e+07
1.09362e+07
9.41939e+06
8.19823e+06
7.20429e+06
6.3847e+06
5.70333e+06
5.12926e+06
4.64148e+06
4.22177e+06
3.85968e+06
3.5464e+06
3.2777e+06
3.05006e+06
2.86237e+06
2.7137e+06
2.59808e+06
2.50986e+06
2.44668e+06
2.40389e+06
2.39529e+06
2.38922e+06
2.36397e+06
2.28114e+06
2.12566e+06
1.89361e+06
1.60111e+06
1.40182e+06
1.50161e+06
1.9791e+06
2.97745e+06
5.10095e+06
1.21166e+07
5.91153e+07
8.22947e+09
1.39235e+09
4.93603e+08
2.4212e+08
1.4172e+08
9.2323e+07
6.44973e+07
4.73376e+07
3.60484e+07
2.82398e+07
2.26257e+07
1.8466e+07
1.53101e+07
1.28741e+07
1.09626e+07
9.44093e+06
8.21643e+06
7.21984e+06
6.39996e+06
5.71667e+06
5.14254e+06
4.65368e+06
4.23437e+06
3.8709e+06
3.55595e+06
3.28348e+06
3.0509e+06
2.85608e+06
2.69943e+06
2.58076e+06
2.4943e+06
2.43055e+06
2.38432e+06
2.34995e+06
2.33865e+06
2.31703e+06
2.25831e+06
2.13882e+06
1.95479e+06
1.69256e+06
1.40601e+06
1.28022e+06
1.45414e+06
1.95522e+06
2.93586e+06
5.0635e+06
1.2256e+07
5.92279e+07
8.23665e+09
1.3941e+09
4.94305e+08
2.42477e+08
1.41923e+08
9.24644e+07
6.46416e+07
4.74555e+07
3.61303e+07
2.8302e+07
2.26774e+07
1.85112e+07
1.53496e+07
1.29044e+07
1.09871e+07
9.46215e+06
8.23387e+06
7.23471e+06
6.41284e+06
5.7295e+06
5.15373e+06
4.66482e+06
4.24432e+06
3.88062e+06
3.56369e+06
3.28851e+06
3.0509e+06
2.84925e+06
2.68278e+06
2.55321e+06
2.46065e+06
2.39915e+06
2.35564e+06
2.32216e+06
2.29204e+06
2.27144e+06
2.22554e+06
2.13316e+06
1.98732e+06
1.77504e+06
1.48908e+06
1.23283e+06
1.19263e+06
1.42182e+06
1.93443e+06
2.89944e+06
5.05775e+06
1.2441e+07
5.92989e+07
8.2402e+09
1.39539e+09
4.94989e+08
2.4286e+08
1.42149e+08
9.26047e+07
6.4745e+07
4.75634e+07
3.62206e+07
2.83657e+07
2.27265e+07
1.85522e+07
1.53855e+07
1.29359e+07
1.10112e+07
9.48168e+06
8.2509e+06
7.24875e+06
6.42494e+06
5.74007e+06
5.16442e+06
4.67398e+06
4.25327e+06
3.88818e+06
3.57039e+06
3.2925e+06
3.05113e+06
2.84319e+06
2.66811e+06
2.52629e+06
2.42013e+06
2.34964e+06
2.30837e+06
2.28003e+06
2.25439e+06
2.22391e+06
2.18675e+06
2.11387e+06
1.99712e+06
1.82866e+06
1.58369e+06
1.28904e+06
1.09319e+06
1.13403e+06
1.39932e+06
1.91644e+06
2.87265e+06
5.06081e+06
1.26273e+07
5.93464e+07
8.24505e+09
1.39611e+09
4.95518e+08
2.43225e+08
1.42387e+08
9.27596e+07
6.48467e+07
4.76413e+07
3.63029e+07
2.8436e+07
2.27766e+07
1.85909e+07
1.54181e+07
1.29645e+07
1.10362e+07
9.50076e+06
8.26632e+06
7.26224e+06
6.43612e+06
5.74977e+06
5.17296e+06
4.68271e+06
4.26046e+06
3.8949e+06
3.57543e+06
3.29599e+06
3.05115e+06
2.83845e+06
2.65588e+06
2.50386e+06
2.3834e+06
2.29699e+06
2.24409e+06
2.21732e+06
2.19812e+06
2.17464e+06
2.13947e+06
2.08218e+06
1.98948e+06
1.85522e+06
1.65972e+06
1.3844e+06
1.10622e+06
992017
1.09655e+06
1.38287e+06
1.90206e+06
2.85375e+06
5.06346e+06
1.28014e+07
5.93779e+07
8.25444e+09
1.39696e+09
4.95815e+08
2.43504e+08
1.42613e+08
9.292e+07
6.49581e+07
4.7717e+07
3.63625e+07
2.84997e+07
2.28316e+07
1.86304e+07
1.54487e+07
1.29902e+07
1.10588e+07
9.52047e+06
8.28127e+06
7.27433e+06
6.44673e+06
5.75861e+06
5.18063e+06
4.68942e+06
4.2674e+06
3.90018e+06
3.57989e+06
3.2984e+06
3.05131e+06
2.83437e+06
2.64609e+06
2.48552e+06
2.3536e+06
2.25143e+06
2.18092e+06
2.14041e+06
2.12131e+06
2.10464e+06
2.07817e+06
2.0371e+06
1.96418e+06
1.85956e+06
1.70636e+06
1.47649e+06
1.18344e+06
956305
925453
1.07266e+06
1.37126e+06
1.88871e+06
2.83861e+06
5.05798e+06
1.29569e+07
5.94058e+07
8.26439e+09
1.39837e+09
4.96157e+08
2.43671e+08
1.42786e+08
9.30733e+07
6.50732e+07
4.77997e+07
3.64202e+07
2.85458e+07
2.28813e+07
1.86736e+07
1.54797e+07
1.30143e+07
1.10789e+07
9.5381e+06
8.29664e+06
7.28588e+06
6.45603e+06
5.76681e+06
5.18744e+06
4.69531e+06
4.27242e+06
3.9054e+06
3.58326e+06
3.30049e+06
3.05097e+06
2.83108e+06
2.63786e+06
2.47074e+06
2.32941e+06
2.21496e+06
2.12806e+06
2.06935e+06
2.03552e+06
2.01682e+06
1.99745e+06
1.96646e+06
1.9225e+06
1.84127e+06
1.72574e+06
1.54577e+06
1.28127e+06
996774
847589
884499
1.05752e+06
1.36303e+06
1.87799e+06
2.82386e+06
5.13084e+06
1.3093e+07
5.94276e+07
8.27351e+09
1.40001e+09
4.96712e+08
2.43857e+08
1.42891e+08
9.31891e+07
6.5181e+07
4.78846e+07
3.64829e+07
2.85902e+07
2.29173e+07
1.87126e+07
1.55138e+07
1.30386e+07
1.10976e+07
9.55369e+06
8.31022e+06
7.29768e+06
6.4648e+06
5.77382e+06
5.19366e+06
4.70041e+06
4.27671e+06
3.90884e+06
3.58681e+06
3.30197e+06
3.05065e+06
2.82795e+06
2.63111e+06
2.4584e+06
2.30985e+06
2.1854e+06
2.08599e+06
2.01138e+06
1.96044e+06
1.92807e+06
1.90424e+06
1.88088e+06
1.84801e+06
1.80376e+06
1.7174e+06
1.58453e+06
1.36877e+06
1.0814e+06
843208
777162
860250
1.04793e+06
1.35658e+06
1.87061e+06
2.83535e+06
5.17914e+06
1.31849e+07
5.94463e+07
8.27806e+09
1.40152e+09
4.97325e+08
2.44143e+08
1.43008e+08
9.32608e+07
6.52635e+07
4.79641e+07
3.6547e+07
2.86384e+07
2.29517e+07
1.87406e+07
1.55444e+07
1.30654e+07
1.11166e+07
9.5681e+06
8.32209e+06
7.30793e+06
6.47367e+06
5.78028e+06
5.19877e+06
4.70494e+06
4.28033e+06
3.91168e+06
3.58874e+06
3.30385e+06
3.05025e+06
2.82519e+06
2.62514e+06
2.44821e+06
2.29353e+06
2.16142e+06
2.05177e+06
1.96515e+06
1.9001e+06
1.85374e+06
1.81929e+06
1.78859e+06
1.76269e+06
1.73168e+06
1.68605e+06
1.59105e+06
1.42994e+06
1.17722e+06
895048
733066
735324
846199
1.04175e+06
1.35074e+06
1.86853e+06
2.85227e+06
5.20945e+06
1.29985e+07
5.94633e+07
8.2773e+09
1.40232e+09
4.97875e+08
2.44454e+08
1.4318e+08
9.33389e+07
6.53143e+07
4.80243e+07
3.66068e+07
2.86875e+07
2.2989e+07
1.87672e+07
1.55659e+07
1.30891e+07
1.11373e+07
9.58257e+06
8.33293e+06
7.31674e+06
6.48122e+06
5.78677e+06
5.20336e+06
4.70849e+06
4.28343e+06
3.91396e+06
3.59022e+06
3.3043e+06
3.05046e+06
2.82296e+06
2.61995e+06
2.43943e+06
2.28002e+06
2.14137e+06
2.02388e+06
1.9272e+06
1.8514e+06
1.79356e+06
1.7491e+06
1.71061e+06
1.67519e+06
1.64886e+06
1.62167e+06
1.56975e+06
1.45706e+06
1.25851e+06
979953
743283
663460
711922
838090
1.03733e+06
1.34882e+06
1.86948e+06
2.86298e+06
5.19202e+06
1.30214e+07
5.94787e+07
8.27731e+09
1.4023e+09
4.98158e+08
2.44728e+08
1.43364e+08
9.3452e+07
6.53692e+07
4.80614e+07
3.66516e+07
2.87331e+07
2.30266e+07
1.87961e+07
1.55865e+07
1.31055e+07
1.11556e+07
9.59845e+06
8.34371e+06
7.32463e+06
6.4875e+06
5.79212e+06
5.2079e+06
4.71154e+06
4.28565e+06
3.91582e+06
3.59127e+06
3.30446e+06
3.04947e+06
2.82149e+06
2.61593e+06
2.43185e+06
2.26849e+06
2.12473e+06
2.00047e+06
1.89606e+06
1.81081e+06
1.74386e+06
1.69077e+06
1.64559e+06
1.60325e+06
1.5672e+06
1.54298e+06
1.51712e+06
1.45134e+06
1.30919e+06
1.07087e+06
797433
637017
623689
699283
833194
1.03446e+06
1.3493e+06
1.87019e+06
2.85556e+06
5.21837e+06
1.3064e+07
5.94864e+07
8.28095e+09
1.40224e+09
4.98136e+08
2.44866e+08
1.43525e+08
9.35725e+07
6.54481e+07
4.81007e+07
3.66788e+07
2.87668e+07
2.30616e+07
1.88252e+07
1.56087e+07
1.31212e+07
1.11679e+07
9.61225e+06
8.35562e+06
7.33241e+06
6.493e+06
5.79635e+06
5.21146e+06
4.71451e+06
4.28745e+06
3.91694e+06
3.59201e+06
3.30438e+06
3.04839e+06
2.81912e+06
2.61275e+06
2.42607e+06
2.25863e+06
2.11058e+06
1.98096e+06
1.86974e+06
1.77708e+06
1.70164e+06
1.64121e+06
1.59028e+06
1.54338e+06
1.49999e+06
1.46638e+06
1.44569e+06
1.41403e+06
1.32513e+06
1.14379e+06
877953
652208
572214
602535
692479
830171
1.03377e+06
1.34966e+06
1.86559e+06
2.84859e+06
5.27349e+06
1.30771e+07
5.94929e+07
8.28772e+09
1.40265e+09
4.98093e+08
2.4485e+08
1.43604e+08
9.3676e+07
6.55309e+07
4.81575e+07
3.67079e+07
2.87867e+07
2.30872e+07
1.8852e+07
1.56311e+07
1.3138e+07
1.11794e+07
9.62117e+06
8.36578e+06
7.34108e+06
6.49833e+06
5.79989e+06
5.21404e+06
4.71664e+06
4.28913e+06
3.91766e+06
3.59214e+06
3.3041e+06
3.04725e+06
2.81688e+06
2.60904e+06
2.42117e+06
2.25109e+06
2.0986e+06
1.9644e+06
1.84771e+06
1.74834e+06
1.666e+06
1.59832e+06
1.54196e+06
1.49178e+06
1.445e+06
1.40333e+06
1.37304e+06
1.35439e+06
1.30764e+06
1.18483e+06
961739
702546
554247
536767
591771
688723
828578
1.03388e+06
1.3481e+06
1.85925e+06
2.8644e+06
5.33072e+06
1.30825e+07
5.94977e+07
8.29817e+09
1.40369e+09
4.98217e+08
2.44816e+08
1.43589e+08
9.37242e+07
6.56008e+07
4.82168e+07
3.67493e+07
2.88082e+07
2.31019e+07
1.88712e+07
1.56514e+07
1.3155e+07
1.11921e+07
9.62941e+06
8.37187e+06
7.34822e+06
6.50434e+06
5.80327e+06
5.21601e+06
4.7179e+06
4.29011e+06
3.91829e+06
3.59195e+06
3.30332e+06
3.04604e+06
2.81477e+06
2.6057e+06
2.41618e+06
2.24451e+06
2.08929e+06
1.9505e+06
1.829e+06
1.72417e+06
1.63537e+06
1.56159e+06
1.4995e+06
1.44562e+06
1.39728e+06
1.35311e+06
1.31391e+06
1.28734e+06
1.2643e+06
1.19206e+06
1.02643e+06
775763
568046
497159
518842
586314
686682
828065
1.03326e+06
1.34532e+06
1.86325e+06
2.89705e+06
5.37187e+06
1.3086e+07
5.94969e+07
8.30602e+09
1.40514e+09
4.98557e+08
2.44866e+08
1.43564e+08
9.37129e+07
6.56332e+07
4.82663e+07
3.67929e+07
2.88391e+07
2.31174e+07
1.88815e+07
1.56655e+07
1.31703e+07
1.12047e+07
9.63847e+06
8.37743e+06
7.35208e+06
6.5091e+06
5.80717e+06
5.21781e+06
4.7186e+06
4.29031e+06
3.91831e+06
3.59168e+06
3.30233e+06
3.04447e+06
2.81272e+06
2.60266e+06
2.41176e+06
2.23827e+06
2.0811e+06
1.93941e+06
1.81335e+06
1.70361e+06
1.60949e+06
1.52974e+06
1.46259e+06
1.40461e+06
1.35387e+06
1.30924e+06
1.26823e+06
1.23113e+06
1.20738e+06
1.16995e+06
1.06135e+06
851421
611210
481865
467431
510149
583499
685624
827462
1.03233e+06
1.34413e+06
1.87599e+06
2.91629e+06
5.30068e+06
1.30887e+07
5.9493e+07
8.3109e+09
1.40638e+09
4.99033e+08
2.45016e+08
1.43584e+08
9.36919e+07
6.56229e+07
4.82881e+07
3.68285e+07
2.88711e+07
2.31403e+07
1.88927e+07
1.56726e+07
1.31805e+07
1.12158e+07
9.64756e+06
8.38368e+06
7.35541e+06
6.51107e+06
5.80995e+06
5.21999e+06
4.71915e+06
4.29001e+06
3.91768e+06
3.59094e+06
3.3013e+06
3.04276e+06
2.81045e+06
2.59983e+06
2.40784e+06
2.23282e+06
2.07366e+06
1.92973e+06
1.80055e+06
1.68638e+06
1.58741e+06
1.50269e+06
1.43033e+06
1.36838e+06
1.31492e+06
1.26915e+06
1.22846e+06
1.18907e+06
1.15374e+06
1.12803e+06
1.06476e+06
911103
674838
491211
434450
453075
505947
582051
684892
826647
1.03205e+06
1.34749e+06
1.8857e+06
2.91007e+06
5.30942e+06
1.30907e+07
5.94915e+07
8.30826e+09
1.40707e+09
4.99421e+08
2.45229e+08
1.43665e+08
9.36989e+07
6.56039e+07
4.82777e+07
3.68428e+07
2.88971e+07
2.31642e+07
1.89096e+07
1.56803e+07
1.31848e+07
1.12228e+07
9.65541e+06
8.3898e+06
7.3593e+06
6.51259e+06
5.81042e+06
5.22124e+06
4.72e+06
4.28955e+06
3.91658e+06
3.58958e+06
3.29989e+06
3.04106e+06
2.80813e+06
2.59694e+06
2.40427e+06
2.22805e+06
2.06723e+06
1.92114e+06
1.78951e+06
1.67202e+06
1.56877e+06
1.47946e+06
1.40273e+06
1.3365e+06
1.28002e+06
1.2328e+06
1.19211e+06
1.15346e+06
1.11368e+06
1.07996e+06
1.04332e+06
942712
744124
524562
419246
411049
446373
503891
581219
684182
826210
1.03329e+06
1.35061e+06
1.8809e+06
2.929e+06
5.3184e+06
1.30913e+07
5.94878e+07
8.30238e+09
1.40656e+09
4.99597e+08
2.45395e+08
1.43774e+08
9.37448e+07
6.56058e+07
4.82618e+07
3.68334e+07
2.89066e+07
2.31829e+07
1.8927e+07
1.56925e+07
1.31897e+07
1.1225e+07
9.65971e+06
8.39489e+06
7.36305e+06
6.51458e+06
5.81051e+06
5.22056e+06
4.72004e+06
4.28937e+06
3.91534e+06
3.58785e+06
3.29796e+06
3.03907e+06
2.80584e+06
2.59407e+06
2.40079e+06
2.22378e+06
2.06163e+06
1.91377e+06
1.77985e+06
1.65974e+06
1.55311e+06
1.45975e+06
1.37886e+06
1.30895e+06
1.24902e+06
1.19977e+06
1.15872e+06
1.1207e+06
1.08132e+06
1.04118e+06
1.00696e+06
947480
799980
578618
422291
382187
400209
443258
502826
580546
683641
826750
1.03547e+06
1.34924e+06
1.89527e+06
2.95427e+06
5.31906e+06
1.30913e+07
5.94793e+07
8.29924e+09
1.40548e+09
4.99339e+08
2.45449e+08
1.43859e+08
9.38091e+07
6.56328e+07
4.82595e+07
3.68186e+07
2.88972e+07
2.31886e+07
1.89406e+07
1.57051e+07
1.31983e+07
1.12276e+07
9.66016e+06
8.39712e+06
7.36595e+06
6.51643e+06
5.81097e+06
5.21949e+06
4.71843e+06
4.28847e+06
3.91432e+06
3.58596e+06
3.29568e+06
3.03663e+06
2.80335e+06
2.59129e+06
2.39744e+06
2.21974e+06
2.05668e+06
1.90737e+06
1.77158e+06
1.6491e+06
1.53975e+06
1.44306e+06
1.3585e+06
1.28498e+06
1.22193e+06
1.17001e+06
1.12788e+06
1.09023e+06
1.05212e+06
1.01114e+06
971791
929270
832690
640814
445540
365788
364828
395322
441763
502134
580051
683662
828091
1.03482e+06
1.35564e+06
1.9096e+06
2.96244e+06
5.31849e+06
1.30912e+07
5.94685e+07
8.30069e+09
1.40467e+09
4.98873e+08
2.45287e+08
1.43875e+08
9.38553e+07
6.56716e+07
4.82757e+07
3.68145e+07
2.88838e+07
2.31795e+07
1.89434e+07
1.57144e+07
1.3207e+07
1.12332e+07
9.66088e+06
8.39608e+06
7.36641e+06
6.51755e+06
5.8113e+06
5.21873e+06
4.71647e+06
4.28616e+06
3.91269e+06
3.58429e+06
3.29328e+06
3.03389e+06
2.8005e+06
2.58839e+06
2.39422e+06
2.21592e+06
2.05209e+06
1.90177e+06
1.76442e+06
1.63999e+06
1.52823e+06
1.42883e+06
1.34114e+06
1.26439e+06
1.19818e+06
1.14363e+06
1.0996e+06
1.06166e+06
1.02489e+06
985147
943025
903431
840419
695726
488143
362867
338690
357095
393097
440941
501646
579883
684224
828374
1.03689e+06
1.36417e+06
1.91943e+06
2.92407e+06
5.31804e+06
1.30904e+07
5.94614e+07
8.30979e+09
1.40469e+09
4.98508e+08
2.45025e+08
1.43764e+08
9.38561e+07
6.56987e+07
4.83005e+07
3.68241e+07
2.88783e+07
2.3167e+07
1.89344e+07
1.57151e+07
1.32129e+07
1.12388e+07
9.66403e+06
8.39529e+06
7.3642e+06
6.5166e+06
5.81099e+06
5.21784e+06
4.71478e+06
4.28351e+06
3.90985e+06
3.5821e+06
3.29109e+06
3.03106e+06
2.79737e+06
2.5852e+06
2.39097e+06
2.21232e+06
2.04784e+06
1.89665e+06
1.75818e+06
1.6321e+06
1.51836e+06
1.41657e+06
1.32628e+06
1.2467e+06
1.17759e+06
1.12022e+06
1.07407e+06
1.03501e+06
999030
961289
919459
877774
830621
731090
543863
375463
321295
326644
353713
392048
440428
501394
580056
684377
829545
1.04037e+06
1.36926e+06
1.91576e+06
2.9309e+06
5.3178e+06
1.30896e+07
5.9453e+07
8.3197e+09
1.40586e+09
4.98439e+08
2.4481e+08
1.43591e+08
9.37731e+07
6.56929e+07
4.83157e+07
3.68393e+07
2.88832e+07
2.31608e+07
1.89228e+07
1.57063e+07
1.3212e+07
1.12421e+07
9.66724e+06
8.3965e+06
7.3622e+06
6.51345e+06
5.80893e+06
5.21641e+06
4.71293e+06
4.28107e+06
3.90667e+06
3.57885e+06
3.28847e+06
3.02843e+06
2.7942e+06
2.58179e+06
2.38751e+06
2.20874e+06
2.04387e+06
1.89198e+06
1.75255e+06
1.62526e+06
1.50981e+06
1.40605e+06
1.31347e+06
1.23147e+06
1.15978e+06
1.09965e+06
1.05107e+06
1.01054e+06
974474
938483
898680
855811
813229
745285
598573
406768
313161
302775
321477
352221
391471
440141
501387
580024
684989
831790
1.04362e+06
1.37377e+06
1.92749e+06
2.92988e+06
5.31752e+06
1.30883e+07
5.94441e+07
8.32698e+09
1.40712e+09
4.98759e+08
2.44741e+08
1.43446e+08
9.3652e+07
6.5629e+07
4.8307e+07
3.68475e+07
2.88924e+07
2.31625e+07
1.8916e+07
1.56952e+07
1.32033e+07
1.12398e+07
9.66848e+06
8.39768e+06
7.36184e+06
6.51046e+06
5.80504e+06
5.21351e+06
4.71065e+06
4.27853e+06
3.90369e+06
3.57527e+06
3.28491e+06
3.02545e+06
2.79123e+06
2.57837e+06
2.38387e+06
2.20504e+06
2.04e+06
1.88766e+06
1.74746e+06
1.61913e+06
1.5024e+06
1.39692e+06
1.30244e+06
1.21833e+06
1.14433e+06
1.08169e+06
1.03057e+06
988154
951476
916450
879021
837318
794417
743511
639469
455088
317150
284921
294966
319293
351516
391156
440059
501291
580144
686369
833737
1.04777e+06
1.38374e+06
1.92558e+06
2.92833e+06
5.31695e+06
1.30871e+07
5.94355e+07
8.3313e+09
1.40812e+09
4.99096e+08
2.44846e+08
1.43385e+08
9.35461e+07
6.55369e+07
4.82555e+07
3.68375e+07
2.8896e+07
2.31674e+07
1.89153e+07
1.5688e+07
1.31926e+07
1.12311e+07
9.66503e+06
8.39722e+06
7.3614e+06
6.50884e+06
5.80127e+06
5.20906e+06
4.70709e+06
4.27558e+06
3.9006e+06
3.57187e+06
3.28104e+06
3.02166e+06
2.78799e+06
2.57516e+06
2.38024e+06
2.20122e+06
2.03609e+06
1.8835e+06
1.74279e+06
1.61362e+06
1.49578e+06
1.389e+06
1.29283e+06
1.20694e+06
1.13097e+06
1.06595e+06
1.01246e+06
967970
930072
895361
859850
820517
777752
733000
660681
510633
337603
273709
273240
291754
318354
351169
391044
439963
501247
580771
687794
836006
1.05434e+06
1.38808e+06
1.90753e+06
2.92747e+06
5.31636e+06
1.30858e+07
5.94223e+07
8.33082e+09
1.4086e+09
4.99353e+08
2.44968e+08
1.43425e+08
9.34944e+07
6.54566e+07
4.81839e+07
3.6795e+07
2.88855e+07
2.31678e+07
1.89171e+07
1.56857e+07
1.31851e+07
1.12208e+07
9.65636e+06
8.3929e+06
7.35958e+06
6.50712e+06
5.79862e+06
5.20467e+06
4.70222e+06
4.27157e+06
3.89717e+06
3.56836e+06
3.2773e+06
3.01755e+06
2.78403e+06
2.57173e+06
2.37687e+06
2.19744e+06
2.03209e+06
1.87938e+06
1.73836e+06
1.60862e+06
1.48987e+06
1.38193e+06
1.28448e+06
1.19698e+06
1.11932e+06
1.0523e+06
996414
949923
910527
875382
841198
804443