/*--------------------------------*- C++ -*----------------------------------*\
| =========                 |                                                 |
| \\      /  F ield         | OpenFOAM: The Open Source CFD Toolbox           |
|  \\    /   O peration     | Version:  v2012                                 |
|   \\  /    A nd           | Website:  www.openfoam.com                      |
|    \\/     M anipulation  |                                                 |
\*---------------------------------------------------------------------------*/
FoamFile
{
    version     2.0;
    format      ascii;
    class       volScalarField;
    location    "11500";
    object      p;
}
// * * * * * * * * * * * * * * * * * * * * * * * * * * * * * * * * * * * * * //

dimensions      [1 -1 -2 0 0 0 0];


internalField   nonuniform List<scalar> 
53312
(
1196.57
934.75
1200.75
761.61
935.169
1198.96
735.18
761.663
935.614
1195.46
699.3
735.195
761.72
936.038
1189.31
676.513
699.317
735.212
761.771
936.552
1181.93
663.994
676.523
699.333
735.231
761.818
937.206
1174.36
654.467
664.001
676.531
699.35
735.251
761.862
937.935
1166.9
647.951
654.474
664.006
676.543
699.368
735.271
761.905
938.69
1158.68
642.634
647.956
654.479
664.014
676.554
699.383
735.298
761.948
939.557
1149.79
638.046
642.635
647.96
654.485
664.021
676.564
699.399
735.327
761.995
940.513
1140.26
633.881
638.044
642.639
647.966
654.492
664.028
676.575
699.416
735.358
762.032
941.611
1130.15
629.45
633.879
638.047
642.643
647.971
654.498
664.036
676.587
699.434
735.392
762.073
942.85
1119.45
623.787
629.451
633.879
638.049
642.648
647.977
654.505
664.043
676.599
699.452
735.43
762.141
944.244
1108.2
616.316
623.793
629.451
633.879
638.05
642.652
647.983
654.512
664.052
676.611
699.469
735.47
762.218
945.849
1096.22
609.649
616.321
623.793
629.45
633.878
638.052
642.657
647.989
654.519
664.059
676.624
699.487
735.516
762.294
947.669
1083.49
604.009
609.65
616.323
623.793
629.449
633.877
638.054
642.662
647.996
654.527
664.067
676.638
699.506
735.553
762.386
949.743
1070.26
601.612
604.006
609.651
616.325
623.793
629.447
633.875
638.055
642.667
648.003
654.534
664.076
676.652
699.525
735.576
762.476
952.074
1056.52
602.081
601.608
604.005
609.652
616.327
623.791
629.444
633.873
638.056
642.673
648.011
654.543
664.085
676.667
699.542
735.604
762.581
954.827
1042.25
606.187
602.078
601.602
604.002
609.654
616.329
623.791
629.44
633.869
638.058
642.679
648.02
654.553
664.095
676.682
699.56
735.634
762.694
958.112
1027.49
609.525
606.185
602.075
601.6
604.002
609.656
616.331
623.79
629.436
633.866
638.059
642.685
648.029
654.562
664.106
676.699
699.584
735.671
762.82
961.635
1012.58
613.321
609.525
606.182
602.071
601.596
604.001
609.659
616.334
623.791
629.432
633.861
638.06
642.692
648.038
654.573
664.117
676.716
699.61
735.718
762.963
965.75
997.523
616.724
613.321
609.522
606.179
602.067
601.592
604.001
609.662
616.337
623.79
629.426
633.856
638.061
642.699
648.048
654.584
664.129
676.735
699.637
735.779
763.135
970.142
982.487
619.334
616.723
613.319
609.52
606.176
602.063
601.588
604.001
609.666
616.34
623.789
629.42
633.851
638.062
642.707
648.059
654.596
664.142
676.757
699.669
735.844
763.342
975.074
967.576
621.673
619.332
616.721
613.316
609.517
606.172
602.059
601.584
604.001
609.67
616.345
623.787
629.413
633.845
638.063
642.716
648.071
654.608
664.156
676.776
699.694
735.915
763.632
979.954
953.011
623.421
621.672
619.331
616.72
613.314
609.515
606.169
602.054
601.58
604.001
609.676
616.349
623.784
629.406
633.838
638.064
642.725
648.083
654.621
664.17
676.799
699.731
735.996
763.959
985.615
940.82
625.052
623.42
621.671
619.33
616.718
613.312
609.512
606.166
602.05
601.575
604.001
609.681
616.354
623.781
629.398
633.831
638.066
642.734
648.097
654.635
664.187
676.829
699.769
736.075
764.5
989.328
931.315
626.138
625.051
623.419
621.67
619.329
616.717
613.309
609.51
606.162
602.044
601.57
604.002
609.687
616.358
623.778
629.389
633.824
638.068
642.745
648.111
654.65
664.204
676.858
699.807
736.167
765.319
991.985
922.058
626.926
626.138
625.05
623.418
621.67
619.329
616.715
613.307
609.507
606.158
602.039
601.565
604.003
609.693
616.364
623.775
629.38
633.816
638.07
642.756
648.126
654.667
664.228
676.894
699.847
736.268
766.644
992.02
915.122
627.409
626.926
626.137
625.049
623.417
621.669
619.328
616.713
613.304
609.504
606.154
602.033
601.56
604.003
609.7
616.37
623.772
629.371
633.808
638.072
642.768
648.142
654.684
664.247
676.934
699.893
736.386
768.655
989.222
904.742
627.923
627.409
626.926
626.136
625.048
623.416
621.668
619.327
616.711
613.301
609.501
606.15
602.026
601.554
604.004
609.708
616.376
623.769
629.361
633.8
638.075
642.781
648.159
654.704
664.273
676.981
699.939
736.52
772.086
982.804
901.751
628.189
627.923
627.409
626.925
626.136
625.047
623.415
621.668
619.327
616.709
613.298
609.498
606.145
602.019
601.548
604.006
609.716
616.382
623.766
629.351
633.792
638.079
642.795
648.177
654.723
664.303
677.035
699.986
736.695
777.033
976.196
889.131
628.298
628.188
627.922
627.408
626.925
626.135
625.046
623.414
621.668
619.327
616.707
613.295
609.494
606.14
602.012
601.541
604.008
609.725
616.389
623.763
629.341
633.785
638.083
642.81
648.197
654.746
664.336
677.101
700.026
736.898
783.381
968.912
870.289
628.259
628.297
628.188
627.922
627.408
626.925
626.134
625.045
623.413
621.668
619.326
616.705
613.291
609.49
606.135
602.003
601.534
604.01
609.735
616.397
623.76
629.331
633.778
638.088
642.826
648.218
654.769
664.375
677.175
700.056
737.169
791.23
962.245
849.92
628.248
628.259
628.297
628.187
627.921
627.408
626.925
626.133
625.043
623.412
621.668
619.326
616.703
613.288
609.486
606.129
601.995
601.526
604.012
609.746
616.405
623.758
629.322
633.771
638.095
642.844
648.24
654.796
664.419
677.269
700.077
737.516
801.037
955.065
826.541
628.128
628.248
628.258
628.297
628.187
627.921
627.407
626.924
626.132
625.042
623.411
621.668
619.326
616.701
613.284
609.482
606.122
601.985
601.517
604.015
609.758
616.415
623.757
629.313
633.765
638.102
642.863
648.265
654.826
664.472
677.386
700.085
737.999
812.398
949.538
801.842
627.805
628.128
628.247
628.258
628.296
628.186
627.92
627.407
626.924
626.131
625.04
623.41
621.668
619.326
616.698
613.279
609.476
606.114
601.975
601.509
604.018
609.771
616.425
623.756
629.304
633.761
638.113
642.884
648.292
654.859
664.533
677.53
700.072
738.632
825.875
941.973
776.967
627.567
627.805
628.128
628.247
628.258
628.296
628.186
627.92
627.407
626.924
626.131
625.039
623.409
621.668
619.326
616.695
613.274
609.47
606.106
601.962
601.501
604.022
609.786
616.436
623.757
629.297
633.757
638.123
642.906
648.322
654.897
664.608
677.711
700.052
739.524
840.339
938.392
750.17
627.408
627.567
627.805
628.127
628.247
628.258
628.296
628.185
627.919
627.407
626.924
626.129
625.037
623.407
621.668
619.326
616.692
613.269
609.464
606.098
601.948
601.493
604.027
609.801
616.448
623.759
629.291
633.757
638.137
642.931
648.355
654.94
664.695
677.933
700.009
740.767
856.264
937.217
724.303
627.221
627.408
627.567
627.804
628.127
628.247
628.258
628.295
628.184
627.918
627.407
626.924
626.128
625.035
623.406
621.669
619.326
616.689
613.263
609.457
606.089
601.933
601.485
604.032
609.819
616.462
623.762
629.288
633.757
638.152
642.959
648.392
654.988
664.803
678.206
700.01
742.555
871.155
933.643
698.484
626.867
627.22
627.408
627.566
627.804
628.127
628.247
628.258
628.295
628.184
627.918
627.407
626.924
626.127
625.033
623.405
621.669
619.326
616.685
613.257
609.448
606.078
601.916
601.477
604.04
609.839
616.477
623.767
629.286
633.761
638.171
642.989
648.434
655.046
664.932
678.537
700.111
745.201
884.048
927.798
673.898
626.271
626.867
627.22
627.408
627.566
627.804
628.126
628.246
628.258
628.295
628.183
627.917
627.407
626.924
626.126
625.031
623.403
621.669
619.325
616.681
613.25
609.439
606.067
601.898
601.47
604.052
609.862
616.494
623.776
629.288
633.769
638.193
643.023
648.483
655.114
665.095
678.927
700.375
749.105
896.019
918.214
651.148
625.763
626.27
626.867
627.22
627.408
627.566
627.803
628.126
628.246
628.258
628.295
628.183
627.917
627.407
626.924
626.125
625.029
623.401
621.669
619.325
616.676
613.242
609.429
606.053
601.88
601.458
604.067
609.887
616.513
623.786
629.293
633.78
638.219
643.062
648.538
655.197
665.295
679.359
700.992
754.559
904.301
906.749
630.882
625.594
625.762
626.27
626.867
627.22
627.408
627.565
627.803
628.126
628.246
628.258
628.295
628.182
627.916
627.407
626.924
626.123
625.026
623.399
621.669
619.324
616.671
613.233
609.418
606.039
601.865
601.449
604.087
609.914
616.533
623.799
629.301
633.796
638.25
643.106
648.604
655.296
665.546
679.841
702.086
761.891
911.232
893.566
613.881
625.382
625.593
625.762
626.27
626.867
627.221
627.408
627.565
627.803
628.125
628.246
628.258
628.295
628.182
627.915
627.407
626.924
626.122
625.023
623.397
621.669
619.322
616.664
613.223
609.406
606.025
601.85
601.443
604.111
609.947
616.557
623.818
629.315
633.818
638.286
643.156
648.681
655.425
665.855
680.376
703.933
771.285
912.253
877.79
601.32
624.982
625.382
625.592
625.761
626.27
626.867
627.221
627.408
627.565
627.802
628.125
628.246
628.258
628.295
628.181
627.915
627.407
626.924
626.12
625.02
623.394
621.668
619.321
616.658
613.213
609.392
606.009
601.838
601.438
604.139
609.987
616.586
623.841
629.335
633.847
638.33
643.216
648.776
655.586
666.23
681.009
706.672
784.174
910.482
856.63
594.086
624.48
624.982
625.381
625.592
625.761
626.27
626.867
627.221
627.408
627.565
627.802
628.125
628.246
628.259
628.295
628.18
627.914
627.407
626.924
626.118
625.017
623.391
621.667
619.319
616.65
613.201
609.379
605.995
601.827
601.438
604.167
610.031
616.618
623.871
629.362
633.886
638.383
643.286
648.893
655.799
666.677
681.819
710.753
799.084
905.654
825.176
590.082
623.941
624.479
624.981
625.381
625.591
625.76
626.269
626.867
627.221
627.408
627.565
627.801
628.125
628.247
628.259
628.295
628.18
627.914
627.407
626.923
626.116
625.013
623.388
621.666
619.316
616.642
613.19
609.366
605.98
601.819
601.445
604.204
610.084
616.657
623.91
629.401
633.937
638.448
643.372
649.039
656.077
667.205
682.876
716.206
814.635
905.364
791.748
587.064
623.572
623.941
624.479
624.981
625.381
625.591
625.76
626.269
626.867
627.222
627.409
627.564
627.801
628.124
628.247
628.26
628.295
628.179
627.913
627.407
626.923
626.113
625.009
623.384
621.664
619.313
616.634
613.179
609.353
605.966
601.814
601.457
604.25
610.143
616.7
623.963
629.455
634.003
638.527
643.477
649.225
656.437
667.826
684.29
723.283
828.57
901.062
756.344
584.649
623.458
623.572
623.941
624.479
624.981
625.38
625.59
625.759
626.269
626.868
627.223
627.409
627.564
627.801
628.124
628.247
628.261
628.295
628.179
627.912
627.407
626.923
626.111
625.004
623.38
621.662
619.309
616.626
613.169
609.341
605.953
601.814
601.476
604.308
610.217
616.764
624.033
629.526
634.087
638.624
643.609
649.457
656.907
668.569
686.219
732.513
841.395
895.395
722.116
582.628
623.226
623.457
623.572
623.94
624.479
624.981
625.38
625.59
625.758
626.269
626.868
627.223
627.41
627.564
627.8
628.124
628.248
628.261
628.296
628.178
627.911
627.407
626.922
626.108
624.999
623.375
621.659
619.305
616.618
613.158
609.329
605.941
601.819
601.502
604.377
610.292
616.847
624.128
629.62
634.194
638.745
643.772
649.752
657.499
669.461
688.871
743.365
851.754
884.148
689.653
580.986
622.663
623.226
623.457
623.572
623.94
624.479
624.981
625.379
625.589
625.758
626.268
626.869
627.224
627.411
627.564
627.8
628.124
628.248
628.262
628.296
628.177
627.911
627.406
626.921
626.104
624.994
623.37
621.656
619.301
616.61
613.149
609.318
605.932
601.83
601.538
604.473
610.386
616.947
624.25
629.741
634.331
638.893
643.98
650.116
658.248
670.578
692.54
756.423
859.648
869.945
660.925
579.649
621.971
622.662
623.225
623.457
623.572
623.94
624.479
624.981
625.379
625.588
625.757
626.268
626.869
627.225
627.411
627.564
627.799
628.123
628.248
628.264
628.297
628.177
627.91
627.406
626.921
626.101
624.989
623.365
621.653
619.297
616.602
613.141
609.309
605.926
601.847
601.582
604.582
610.512
617.117
624.408
629.899
634.5
639.079
644.233
650.576
659.142
671.902
697.585
771
863.545
849.747
636.647
578.614
621.357
621.971
622.662
623.225
623.457
623.571
623.94
624.479
624.981
625.379
625.588
625.756
626.268
626.87
627.226
627.412
627.564
627.799
628.123
628.249
628.265
628.298
628.176
627.909
627.406
626.919
626.098
624.983
623.359
621.649
619.292
616.596
613.135
609.302
605.921
601.868
601.638
604.727
610.7
617.319
624.608
630.095
634.712
639.301
644.539
651.162
660.186
673.723
703.94
787.84
863.189
826.128
617.456
577.823
621.068
621.357
621.97
622.662
623.225
623.457
623.572
623.941
624.479
624.981
625.378
625.587
625.756
626.268
626.871
627.227
627.413
627.564
627.798
628.123
628.25
628.266
628.299
628.176
627.908
627.405
626.918
626.094
624.978
623.354
621.645
619.288
616.591
613.131
609.298
605.919
601.892
601.704
604.871
610.854
617.571
624.857
630.341
634.969
639.57
644.913
651.89
661.31
675.882
712.191
803.602
862.975
792.654
602.982
577.255
621.117
621.068
621.356
621.971
622.662
623.225
623.457
623.572
623.941
624.479
624.981
625.378
625.586
625.755
626.268
626.872
627.229
627.415
627.564
627.798
628.122
628.25
628.268
628.3
628.176
627.907
627.405
626.916
626.091
624.973
623.348
621.641
619.285
616.587
613.131
609.293
605.912
601.907
601.783
605.163
611.114
617.871
625.165
630.64
635.278
639.866
645.392
652.753
662.65
679.238
724.043
817.558
860.618
755.363
592.806
576.841
621.145
621.117
621.067
621.356
621.971
622.662
623.226
623.457
623.572
623.941
624.479
624.981
625.378
625.585
625.754
626.267
626.873
627.23
627.416
627.564
627.798
628.122
628.251
628.27
628.301
628.176
627.907
627.405
626.914
626.088
624.968
623.342
621.637
619.282
616.585
613.133
609.289
605.906
601.916
601.891
605.377
611.42
618.242
625.533
630.999
635.626
640.232
645.982
653.723
664.062
682.465
736.901
828.201
855.462
715.566
586.542
576.55
620.882
621.144
621.116
621.067
621.356
621.971
622.663
623.226
623.457
623.572
623.941
624.479
624.981
625.377
625.584
625.753
626.267
626.874
627.232
627.417
627.565
627.797
628.122
628.252
628.272
628.303
628.175
627.905
627.404
626.912
626.084
624.964
623.338
621.634
619.28
616.586
613.139
609.289
605.897
601.918
601.999
605.603
611.785
618.676
625.973
631.417
636.011
640.648
646.699
654.845
666.114
688.452
752.392
836.773
844.961
677.325
582.925
576.348
620.271
620.881
621.144
621.116
621.067
621.356
621.971
622.663
623.226
623.458
623.572
623.941
624.48
624.981
625.377
625.583
625.753
626.267
626.875
627.234
627.419
627.565
627.797
628.122
628.253
628.274
628.305
628.176
627.906
627.404
626.911
626.08
624.961
623.334
621.632
619.279
616.59
613.15
609.293
605.906
601.959
602.285
605.997
612.224
619.196
626.478
631.875
636.439
641.201
647.51
655.987
668.079
695.015
768.433
840.012
826.923
644.378
580.495
576.214
619.495
620.27
620.88
621.143
621.116
621.067
621.357
621.971
622.663
623.226
623.458
623.573
623.942
624.48
624.982
625.377
625.582
625.752
626.267
626.877
627.236
627.421
627.565
627.797
628.122
628.254
628.276
628.307
628.176
627.905
627.404
626.911
626.076
624.96
623.331
621.631
619.283
616.6
613.17
609.298
605.859
601.917
602.344
606.377
612.74
619.791
627.043
632.364
636.941
641.785
648.456
657.541
671.182
704.947
785.269
839.068
799.479
619.046
578.818
576.127
618.769
619.495
620.27
620.88
621.143
621.115
621.067
621.357
621.971
622.663
623.227
623.458
623.573
623.942
624.481
624.982
625.376
625.582
625.751
626.268
626.878
627.238
627.423
627.566
627.797
628.123
628.256
628.278
628.309
628.177
627.905
627.403
626.91
626.073
624.956
623.33
621.633
619.282
616.608
613.192
609.303
605.909
602.145
602.584
606.874
613.332
620.477
627.628
632.871
637.537
642.553
649.433
658.809
674.667
716.884
801.505
838.83
761.271
601.589
577.663
576.073
618.344
618.768
619.495
620.27
620.88
621.143
621.115
621.067
621.357
621.972
622.664
623.227
623.459
623.573
623.943
624.481
624.982
625.376
625.581
625.751
626.268
626.88
627.241
627.425
627.567
627.797
628.123
628.257
628.282
628.311
628.178
627.906
627.405
626.911
626.074
624.957
623.325
621.633
619.303
616.619
613.219
609.371
605.862
602.201
602.892
607.418
614.021
621.225
628.185
633.478
638.196
643.331
650.724
660.798
679.736
732.678
811.56
832.663
717.424
590.205
576.937
576.04
618.43
618.343
618.768
619.494
620.27
620.88
621.142
621.115
621.067
621.357
621.972
622.664
623.228
623.459
623.574
623.943
624.482
624.983
625.376
625.58
625.75
626.268
626.882
627.244
627.427
627.568
627.797
628.123
628.259
628.285
628.314
628.179
627.907
627.405
626.907
626.078
624.964
623.337
621.645
619.284
616.677
613.305
609.37
605.805
602.336
603.278
608.063
614.785
621.983
628.764
634.088
639.01
644.398
651.837
662.645
686.302
749.546
822.096
824.329
674.224
583.638
576.516
576.021
618.738
618.43
618.343
618.768
619.495
620.27
620.88
621.142
621.114
621.066
621.357
621.973
622.665
623.228
623.46
623.575
623.944
624.483
624.983
625.376
625.579
625.75
626.269
626.884
627.246
627.43
627.569
627.798
628.124
628.261
628.289
628.316
628.182
627.909
627.406
626.914
626.072
624.968
623.328
621.654
619.369
616.699
613.335
609.376
605.74
602.564
603.739
608.793
615.643
622.704
629.382
634.791
639.848
645.488
653.358
665.296
695.696
767.528
823.44
803.907
637.403
580.237
576.274
576.011
618.855
618.737
618.429
618.343
618.768
619.495
620.27
620.879
621.142
621.114
621.066
621.358
621.973
622.666
623.229
623.461
623.576
623.945
624.483
624.984
625.376
625.579
625.749
626.27
626.887
627.249
627.433
627.571
627.799
628.125
628.263
628.293
628.32
628.184
627.912
627.409
626.914
626.093
624.987
623.374
621.697
619.362
616.735
613.391
609.408
605.704
602.806
604.268
609.614
616.459
623.473
630.048
635.458
640.937
647.004
654.996
668.682
707.433
785.65
823.334
771.344
610.709
578.276
576.139
576.005
618.518
618.855
618.737
618.429
618.342
618.768
619.495
620.27
620.879
621.142
621.114
621.067
621.358
621.974
622.667
623.23
623.462
623.576
623.946
624.484
624.985
625.376
625.578
625.749
626.271
626.889
627.253
627.436
627.573
627.801
628.127
628.266
628.297
628.325
628.187
627.915
627.413
626.92
626.093
625.007
623.377
621.711
619.402
616.767
613.443
609.368
605.747
603.085
604.919
610.532
617.306
624.355
630.744
636.228
641.883
648.405
656.999
673.737
723.215
797.565
819.758
725.707
593.957
577.155
576.067
576.002
617.693
618.517
618.854
618.737
618.429
618.342
618.768
619.495
620.27
620.879
621.141
621.114
621.067
621.358
621.975
622.668
623.231
623.463
623.578
623.947
624.485
624.986
625.376
625.578
625.75
626.272
626.892
627.256
627.439
627.576
627.803
628.129
628.269
628.302
628.332
628.191
627.92
627.419
626.926
626.109
625.031
623.408
621.744
619.433
616.793
613.49
609.388
605.862
603.369
605.592
611.361
618.22
625.336
631.506
636.977
643.04
650.041
659.543
680.796
741.119
808.244
812.071
677.676
584.606
576.556
576.031
576.001
616.798
617.692
618.517
618.854
618.736
618.429
618.342
618.768
619.495
620.27
620.879
621.141
621.114
621.067
621.359
621.975
622.669
623.232
623.464
623.579
623.948
624.487
624.987
625.376
625.578
625.75
626.274
626.895
627.26
627.443
627.579
627.806
628.131
628.273
628.307
628.339
628.2
627.925
627.425
626.93
626.114
625.05
623.443
621.78
619.468
616.814
613.515
609.444
605.979
603.783
606.411
612.255
619.375
626.377
632.348
637.893
644.101
651.632
662.607
691.574
759.704
810.198
793.288
636.101
580.03
576.257
576.013
576
615.989
616.798
617.692
618.517
618.854
618.736
618.428
618.342
618.768
619.495
620.27
620.879
621.141
621.114
621.067
621.36
621.976
622.67
623.233
623.465
623.58
623.949
624.488
624.988
625.377
625.578
625.751
626.276
626.898
627.263
627.447
627.582
627.809
628.135
628.277
628.313
628.346
628.21
627.94
627.444
626.953
626.151
625.097
623.481
621.824
619.498
616.814
613.568
609.511
606.14
604.177
606.928
613.263
620.581
627.547
633.278
638.813
645.294
653.341
667.013
704.898
779.07
809.443
755.827
607.007
577.885
576.112
576.006
576
615.485
615.989
616.798
617.693
618.517
618.854
618.736
618.428
618.342
618.769
619.495
620.27
620.879
621.141
621.113
621.067
621.361
621.978
622.671
623.235
623.467
623.582
623.951
624.49
624.989
625.378
625.579
625.752
626.278
626.902
627.267
627.451
627.587
627.814
628.139
628.282
628.319
628.355
628.22
627.953
627.459
626.969
626.167
625.138
623.529
621.871
619.524
616.778
613.701
609.58
606.178
604.644
607.718
614.404
621.91
628.689
634.303
639.894
646.554
655.33
672.785
723.938
790.296
805.959
707.024
590.191
576.826
576.046
576.002
576
615.29
615.484
615.989
616.798
617.693
618.517
618.853
618.736
618.428
618.342
618.769
619.496
620.27
620.879
621.141
621.113
621.068
621.361
621.979
622.673
623.236
623.469
623.583
623.953
624.491
624.991
625.379
625.58
625.754
626.281
626.905
627.272
627.456
627.592
627.82
628.145
628.289
628.327
628.366
628.233
627.973
627.482
626.995
626.201
625.194
623.58
621.918
619.535
616.758
613.815
609.722
606.384
604.687
608.54
615.655
623.214
629.924
635.423
641.104
648.03
657.818
682.139
742.501
800.988
791.88
656.121
581.903
576.342
576.018
576.001
576
615.849
615.29
615.484
615.989
616.798
617.693
618.517
618.853
618.735
618.428
618.342
618.769
619.496
620.27
620.879
621.141
621.113
621.068
621.363
621.98
622.674
623.238
623.47
623.585
623.954
624.493
624.993
625.38
625.581
625.757
626.284
626.909
627.276
627.461
627.599
627.827
628.151
628.297
628.337
628.379
628.249
627.997
627.51
627.026
626.234
625.254
623.637
621.966
619.543
616.753
613.979
609.718
605.946
604.97
609.636
616.962
624.578
631.111
636.67
642.544
649.718
661.534
694.313
764.702
800.802
765.197
617.282
578.402
576.133
576.006
576
576
616.205
615.849
615.289
615.484
615.989
616.798
617.693
618.517
618.853
618.735
618.428
618.342
618.769
619.496
620.271
620.879
621.14
621.114
621.069
621.364
621.982
622.676
623.24
623.472
623.587
623.957
624.495
624.995
625.382
625.583
625.76
626.288
626.914
627.281
627.467
627.607
627.836
628.16
628.307
628.348
628.395
628.269
628.027
627.546
627.066
626.275
625.323
623.692
622.001
619.602
616.762
614.053
609.764
605.423
605.238
610.731
618.38
625.899
632.346
638.046
644.165
651.789
666.62
712.008
779.41
801.843
718.207
594.077
576.941
576.048
576.002
576
576
616.352
616.204
615.848
615.289
615.484
615.989
616.798
617.693
618.517
618.853
618.735
618.428
618.342
618.77
619.497
620.271
620.879
621.141
621.114
621.07
621.365
621.983
622.678
623.242
623.474
623.589
623.959
624.498
624.997
625.384
625.586
625.764
626.293
626.918
627.286
627.474
627.616
627.846
628.17
628.319
628.362
628.413
628.293
628.064
627.59
627.114
626.316
625.395
623.751
622.06
619.673
616.805
614.432
609.309
605.206
605.898
612.163
619.881
627.259
633.585
639.54
646.023
654.305
674.807
730.5
790.77
791.068
664.119
582.788
576.344
576.016
576.001
576
576
616.129
616.351
616.203
615.847
615.289
615.484
615.989
616.798
617.694
618.518
618.853
618.735
618.428
618.342
618.77
619.497
620.271
620.88
621.141
621.115
621.07
621.366
621.985
622.68
623.244
623.477
623.592
623.961
624.5
624.999
625.387
625.589
625.769
626.298
626.923
627.292
627.481
627.627
627.859
628.183
628.334
628.378
628.436
628.322
628.109
627.643
627.17
626.361
625.472
623.788
622.172
619.822
616.814
613.554
608.383
605.03
606.564
613.641
621.452
628.598
634.839
641.117
648.11
658.07
686.256
751.908
789.678
764.509
619.857
578.39
576.117
576.005
576
576
576
615.463
616.129
616.351
616.203
615.847
615.288
615.483
615.989
616.799
617.694
618.518
618.853
618.735
618.428
618.343
618.771
619.498
620.272
620.88
621.141
621.115
621.071
621.368
621.987
622.682
623.246
623.479
623.595
623.964
624.503
625.002
625.39
625.594
625.775
626.305
626.929
627.298
627.49
627.64
627.874
628.198
628.352
628.398
628.463
628.356
628.162
627.706
627.235
626.399
625.548
623.831
622.263
619.909
617.044
613.341
607.559
605.16
607.807
615.35
623.069
629.933
636.068
642.735
650.57
663.739
704.512
768.221
788.708
715.409
593.777
576.819
576.037
576.001
576
576
576
614.394
615.463
616.128
616.35
616.202
615.846
615.288
615.483
615.989
616.799
617.695
618.518
618.853
618.735
618.429
618.343
618.771
619.499
620.273
620.88
621.141
621.115
621.073
621.37
621.99
622.685
623.249
623.482
623.598
623.967
624.507
625.006
625.394
625.599
625.782
626.312
626.935
627.305
627.499
627.655
627.891
628.216
628.374
628.423
628.495
628.394
628.224
627.777
627.308
626.438
625.633
623.923
622.401
620.353
616.697
611.283
606.705
605.243
609.091
617.152
624.707
631.23
637.305
644.353
653.506
673.295
725.431
782.516
783.227
658.957
581.937
576.261
576.011
576
576
576
576
613.316
614.393
615.463
616.128
616.35
616.202
615.846
615.288
615.483
615.989
616.799
617.695
618.518
618.854
618.735
618.429
618.344
618.772
619.499
620.273
620.881
621.142
621.116
621.074
621.372
621.992
622.688
623.252
623.485
623.601
623.971
624.511
625.01
625.399
625.606
625.791
626.321
626.942
627.312
627.511
627.672
627.911
628.238
628.402
628.452
628.532
628.437
628.294
627.855
627.384
626.459
625.764
623.985
622.468
619.948
616.047
610.862
606.118
605.642
610.874
619.102
626.397
632.6
638.632
645.985
657.258
686.198
749.747
784.331
751.859
613.837
577.811
576.077
576.003
576
576
576
576
612.358
613.316
614.393
615.463
616.128
616.35
616.202
615.845
615.288
615.484
615.99
616.8
617.696
618.519
618.854
618.736
618.429
618.344
618.773
619.5
620.274
620.881
621.142
621.116
621.075
621.374
621.995
622.69
623.255
623.488
623.605
623.975
624.515
625.014
625.405
625.613
625.801
626.33
626.95
627.321
627.524
627.693
627.935
628.265
628.435
628.488
628.576
628.484
628.373
627.932
627.465
626.487
625.879
624.103
622.985
620.043
614.858
609.239
605.723
606.048
612.77
621.149
628.206
634.204
640.276
647.857
662.453
704.458
765.768
781.181
700.718
589.454
576.537
576.02
576
576
576
576
576
611.697
612.358
613.316
614.394
615.463
616.128
616.349
616.201
615.844
615.287
615.484
615.99
616.8
617.696
618.519
618.854
618.736
618.43
618.345
618.774
619.501
620.275
620.882
621.143
621.117
621.077
621.377
621.998
622.694
623.258
623.492
623.609
623.979
624.52
625.019
625.411
625.623
625.813
626.342
626.96
627.332
627.539
627.717
627.962
628.296
628.475
628.531
628.626
628.536
628.457
628.013
627.555
626.542
626.025
624.169
622.55
618.525
613.942
608.418
605.523
606.912
614.938
623.269
630.17
636.164
642.372
650.601
671.246
725.22
776.138
771.703
642.306
579.879
576.145
576.005
576
576
576
576
576
611.418
611.697
612.358
613.316
614.394
615.463
616.128
616.349
616.201
615.844
615.287
615.484
615.99
616.801
617.697
618.52
618.855
618.736
618.43
618.345
618.775
619.503
620.276
620.883
621.143
621.118
621.079
621.379
622.001
622.697
623.262
623.496
623.614
623.984
624.525
625.025
625.419
625.634
625.828
626.355
626.97
627.345
627.557
627.745
627.994
628.332
628.524
628.581
628.683
628.594
628.543
628.077
627.688
626.572
626.173
624.331
622.561
618.343
612.695
607.297
605.542
608.147
617.095
625.342
632.2
638.394
645.003
655.106
685.95
747.457
775.667
731.965
602.161
577.01
576.036
576.001
576
576
576
576
576
611.766
611.417
611.697
612.358
613.316
614.394
615.463
616.128
616.349
616.2
615.843
615.287
615.484
615.991
616.802
617.698
618.521
618.855
618.737
618.431
618.346
618.776
619.504
620.277
620.883
621.144
621.12
621.081
621.382
622.004
622.7
623.265
623.5
623.619
623.99
624.531
625.032
625.428
625.647
625.844
626.37
626.983
627.36
627.579
627.778
628.03
628.374
628.582
628.638
628.748
628.649
628.626
628.158
627.874
626.592
626.51
624.277
620.785
616.658
611.357
606.587
605.627
609.867
619.205
627.217
634.109
640.584
648.07
662.884
706.461
764.91
773.535
673.263
583.618
576.255
576.008
576
576
576
576
576
576
612.505
611.766
611.417
611.697
612.358
613.316
614.395
615.463
616.128
616.348
616.2
615.843
615.287
615.484
615.992
616.802
617.699
618.522
618.856
618.737
618.432
618.347
618.777
619.505
620.278
620.885
621.145
621.121
621.084
621.385
622.008
622.704
623.269
623.505
623.625
623.996
624.539
625.04
625.438
625.662
625.863
626.387
626.998
627.378
627.604
627.816
628.071
628.423
628.649
628.702
628.824
628.705
628.705
628.247
628.05
626.669
626.207
623.843
620.723
616.112
609.966
606.034
605.751
611.943
621.19
628.896
635.715
642.53
651.609
674.43
731.53
771.809
747.174
618.785
577.829
576.058
576.001
576
576
576
576
576
576
613.219
612.504
611.765
611.417
611.697
612.359
613.317
614.395
615.464
616.128
616.348
616.199
615.842
615.287
615.484
615.992
616.803
617.7
618.523
618.856
618.738
618.433
618.348
618.779
619.507
620.28
620.886
621.147
621.123
621.086
621.389
622.012
622.708
623.274
623.51
623.632
624.003
624.547
625.048
625.45
625.679
625.885
626.406
627.015
627.4
627.633
627.86
628.117
628.48
628.729
628.775
628.911
628.748
628.799
628.334
628.309
626.78
626.137
623.048
619.577
614.472
608.719
605.888
606.449
614.303
623.206
630.53
637.247
644.333
656.415
691.999
751.003
769.176
699.518
589.334
576.408
576.011
576
576
576
576
576
576
576
613.754
613.218
612.503
611.765
611.417
611.697
612.359
613.317
614.396
615.464
616.128
616.348
616.199
615.842
615.287
615.485
615.993
616.804
617.701
618.524
618.857
618.738
618.434
618.349
618.78
619.509
620.282
620.887
621.148
621.125
621.09
621.393
622.016
622.713
623.279
623.516
623.64
624.012
624.556
625.059
625.463
625.698
625.91
626.429
627.035
627.426
627.668
627.911
628.169
628.545
628.821
628.854
629.008
628.805
628.962
628.373
628.574
627.039
625.02
622.471
618.889
613.347
607.637
605.955
608.017
616.998
625.443
632.469
639.06
646.91
664.718
714.247
764.868
764.607
637.547
579.051
576.083
576.002
576
576
576
576
576
576
576
614.004
613.753
613.217
612.502
611.764
611.416
611.697
612.359
613.318
614.396
615.464
616.128
616.348
616.199
615.841
615.288
615.485
615.994
616.805
617.702
618.525
618.858
618.739
618.435
618.351
618.782
619.511
620.283
620.889
621.15
621.127
621.093
621.398
622.021
622.718
623.284
623.522
623.648
624.021
624.566
625.07
625.478
625.721
625.939
626.454
627.06
627.459
627.709
627.971
628.226
628.616
628.921
628.941
629.106
628.883
629.109
628.582
628.472
626.975
624.887
621.757
617.628
611.613
606.981
606.205