/*--------------------------------*- C++ -*----------------------------------*\
| =========                 |                                                 |
| \\      /  F ield         | OpenFOAM: The Open Source CFD Toolbox           |
|  \\    /   O peration     | Version:  v2012                                 |
|   \\  /    A nd           | Website:  www.openfoam.com                      |
|    \\/     M anipulation  |                                                 |
\*---------------------------------------------------------------------------*/
FoamFile
{
    version     2.0;
    format      ascii;
    class       volScalarField;
    location    "11500";
    object      Prt;
}
// * * * * * * * * * * * * * * * * * * * * * * * * * * * * * * * * * * * * * //

dimensions      [0 0 0 0 0 0 0];


internalField   nonuniform List<scalar> 
53312
(
0.465877
0.467505
0.466721
0.467688
0.46737
0.46702
0.467755
0.467461
0.467421
0.467105
0.46779
0.467486
0.467507
0.467422
0.467117
0.467816
0.4675
0.467522
0.467528
0.467411
0.467106
0.467834
0.46751
0.467529
0.467538
0.467538
0.467408
0.467091
0.467848
0.467518
0.467535
0.467544
0.467547
0.467541
0.467412
0.467075
0.467859
0.467523
0.467539
0.467548
0.467551
0.46755
0.467539
0.467418
0.467061
0.467867
0.467527
0.467542
0.46755
0.467554
0.467554
0.467551
0.467535
0.467423
0.467047
0.467874
0.46753
0.467544
0.467552
0.467556
0.467557
0.467555
0.467549
0.467529
0.467424
0.467034
0.46788
0.467533
0.467546
0.467553
0.467556
0.467557
0.467557
0.467554
0.467545
0.467522
0.46742
0.467021
0.467885
0.467536
0.467547
0.467554
0.467556
0.467557
0.467557
0.467555
0.467551
0.467541
0.467515
0.467413
0.467009
0.467888
0.467537
0.467548
0.467553
0.467555
0.467556
0.467556
0.467555
0.467553
0.467548
0.467536
0.467507
0.467405
0.466991
0.467889
0.467538
0.467547
0.467551
0.467552
0.467552
0.467553
0.467553
0.467552
0.467549
0.467543
0.46753
0.467499
0.467396
0.466942
0.467887
0.467538
0.467545
0.467545
0.467545
0.467546
0.467547
0.467548
0.467548
0.467548
0.467545
0.467538
0.467524
0.467491
0.467388
0.466726
0.467883
0.467536
0.467539
0.467536
0.467535
0.467535
0.467538
0.46754
0.467542
0.467543
0.467543
0.46754
0.467533
0.467517
0.467483
0.467381
0.465775
0.467875
0.467533
0.46753
0.467522
0.467518
0.467519
0.467523
0.467528
0.467532
0.467536
0.467538
0.467538
0.467535
0.467527
0.46751
0.467475
0.467374
0.462528
0.467866
0.467528
0.467517
0.467501
0.467494
0.467495
0.467501
0.467509
0.467516
0.467523
0.467528
0.467531
0.467532
0.467529
0.467521
0.467503
0.467467
0.467368
0.45478
0.467859
0.467522
0.467502
0.467475
0.467461
0.467461
0.467469
0.46748
0.467493
0.467504
0.467513
0.46752
0.467524
0.467526
0.467523
0.467515
0.467496
0.46746
0.467362
0.445129
0.467852
0.467517
0.467489
0.467447
0.46742
0.467413
0.467422
0.467439
0.467457
0.467475
0.46749
0.467503
0.467512
0.467517
0.467519
0.467517
0.467508
0.467489
0.467453
0.467356
0.437666
0.467847
0.467514
0.467479
0.467423
0.467376
0.467354
0.467358
0.467379
0.467405
0.467432
0.467456
0.467476
0.467491
0.467502
0.467509
0.467512
0.46751
0.467501
0.467482
0.467447
0.46735
0.433701
0.467843
0.467511
0.467471
0.467404
0.467338
0.467292
0.467278
0.467296
0.46733
0.467368
0.467404
0.467435
0.467459
0.467478
0.467492
0.467501
0.467504
0.467503
0.467494
0.467475
0.467441
0.467343
0.431801
0.46784
0.467509
0.467465
0.46739
0.467308
0.467238
0.467195
0.467194
0.467227
0.467277
0.467328
0.467374
0.467412
0.467442
0.467465
0.467481
0.467491
0.467496
0.467495
0.467487
0.467468
0.467435
0.467336
0.431151
0.467838
0.467507
0.46746
0.467379
0.467286
0.467196
0.467124
0.467087
0.4671
0.467151
0.467219
0.467284
0.467341
0.467387
0.467423
0.46745
0.46747
0.467482
0.467488
0.467487
0.467479
0.467462
0.467431
0.467328
0.431048
0.467836
0.467505
0.467457
0.467371
0.46727
0.467165
0.467067
0.466995
0.466967
0.466996
0.467068
0.467155
0.467236
0.467305
0.467361
0.467403
0.467435
0.467457
0.467472
0.467479
0.467479
0.467472
0.467456
0.467426
0.467319
0.43103
0.467835
0.467504
0.467454
0.467365
0.467257
0.467142
0.467027
0.466923
0.466853
0.466835
0.466883
0.466978
0.467086
0.467184
0.467267
0.467332
0.467382
0.467418
0.467444
0.467461
0.46747
0.467471
0.467465
0.467451
0.467422
0.46731
0.431016
0.467834
0.467504
0.467452
0.46736
0.467248
0.467124
0.466996
0.466872
0.466764
0.466697
0.466691
0.46676
0.46688
0.467011
0.467128
0.467226
0.467302
0.467358
0.467401
0.46743
0.46745
0.467461
0.467464
0.467459
0.467446
0.467419
0.467301
0.431001
0.467834
0.467503
0.467451
0.467357
0.467241
0.467111
0.466972
0.466833
0.4667
0.466589
0.466526
0.466533
0.466625
0.466773
0.46693
0.467068
0.467181
0.467269
0.467334
0.467382
0.467416
0.467438
0.467451
0.467456
0.467452
0.467441
0.467415
0.467292
0.430988
0.467833
0.467503
0.46745
0.467354
0.467236
0.467101
0.466955
0.466803
0.466652
0.466512
0.466397
0.46634
0.466362
0.46648
0.466658
0.466842
0.467004
0.467134
0.467234
0.467308
0.467362
0.467401
0.467426
0.467441
0.467448
0.467446
0.467437
0.467412
0.467284
0.430975
0.467833
0.467503
0.46745
0.467353
0.467232
0.467094
0.466942
0.466781
0.466615
0.466453
0.466306
0.466189
0.466138
0.466177
0.466323
0.466534
0.466748
0.466934
0.467083
0.467197
0.46728
0.467342
0.467385
0.467414
0.467432
0.46744
0.467441
0.467435
0.467409
0.467274
0.430966
0.467833
0.467503
0.467449
0.467352
0.46723
0.467089
0.466933
0.466765
0.466588
0.466409
0.466237
0.466082
0.465964
0.46592
0.465978
0.466154
0.4664
0.466648
0.46686
0.467029
0.467157
0.467252
0.46732
0.467369
0.467402
0.467422
0.467433
0.467435
0.467433
0.467405
0.467264
0.430959
0.467834
0.467503
0.467449
0.467352
0.467229
0.467087
0.466927
0.466753
0.466568
0.466376
0.466184
0.466001
0.46584
0.46572
0.465685
0.465764
0.465973
0.466257
0.46654
0.466781
0.466972
0.467116
0.467221
0.467298
0.467353
0.46739
0.467413
0.467425
0.46743
0.467432
0.4674
0.467254
0.430951
0.467834
0.467503
0.46745
0.467352
0.467229
0.467085
0.466923
0.466745
0.466554
0.466352
0.466146
0.46594
0.465746
0.465579
0.465459
0.465433
0.465535
0.465779
0.466105
0.466425
0.466697
0.466911
0.467073
0.46719
0.467276
0.467336
0.467377
0.467403
0.467417
0.467425
0.467432
0.467395
0.467245
0.430943
0.467835
0.467503
0.46745
0.467352
0.467229
0.467085
0.466922
0.466741
0.466545
0.466336
0.466117
0.465895
0.465675
0.465472
0.465299
0.465178
0.465164
0.46529
0.465573
0.465942
0.466304
0.466609
0.466848
0.467028
0.467158
0.467253
0.467319
0.467364
0.467392
0.46741
0.467422
0.467433
0.467389
0.467237
0.430934
0.467835
0.467503
0.46745
0.467353
0.46723
0.467085
0.466921
0.466739
0.466539
0.466324
0.466098
0.465862
0.465624
0.465391
0.465177
0.464999
0.46488
0.464878
0.465031
0.465354
0.465771
0.466175
0.466516
0.466782
0.466981
0.467125
0.467229
0.467301
0.46735
0.467382
0.467402
0.467421
0.467433
0.467383
0.467227
0.430926
0.467836
0.467504
0.467451
0.467354
0.467231
0.467086
0.466922
0.466739
0.466537
0.466318
0.466084
0.465839
0.465585
0.465332
0.465086
0.464862
0.46468
0.464564
0.464576
0.464758
0.465124
0.46559
0.46604
0.466419
0.466714
0.466933
0.467091
0.467204
0.467283
0.467336
0.467371
0.467395
0.467422
0.467434
0.467376
0.46075
0.430918
0.467836
0.467504
0.467451
0.467355
0.467232
0.467088
0.466923
0.466739
0.466537
0.466315
0.466076
0.465823
0.46556
0.465288
0.465019
0.46476
0.464528
0.464343
0.464231
0.464259
0.464472
0.464883
0.465401
0.4659
0.466318
0.466643
0.466884
0.467056
0.467179
0.467263
0.46732
0.467359
0.46739
0.467425
0.467433
0.46737
0.431536
0.430908
0.467837
0.467504
0.467452
0.467356
0.467234
0.46709
0.466926
0.466741
0.466537
0.466315
0.466073
0.465814
0.465541
0.465259
0.46497
0.464685
0.464414
0.464175
0.463988
0.463883
0.463929
0.464174
0.464632
0.465204
0.465754
0.466215
0.466571
0.466834
0.46702
0.467151
0.467242
0.467303
0.467347
0.467388
0.467429
0.467432
0.467364
0.431411
0.4309
0.467838
0.467505
0.467452
0.467357
0.467235
0.467092
0.466928
0.466744
0.46654
0.466316
0.466073
0.465811
0.465531
0.465238
0.464936
0.46463
0.464331
0.46405
0.463805
0.463619
0.463522
0.463588
0.463867
0.464374
0.465001
0.465603
0.466109
0.466497
0.466781
0.466981
0.467122
0.467219
0.467285
0.467336
0.467389
0.467435
0.467429
0.467359
0.431455
0.430891
0.467838
0.467505
0.467453
0.467358
0.467237
0.467094
0.466931
0.466748
0.466544
0.466319
0.466075
0.465811
0.465527
0.465226
0.464913
0.464593
0.46427
0.463959
0.463668
0.46342
0.463237
0.463152
0.463239
0.463553
0.464109
0.464793
0.46545
0.466
0.46642
0.466726
0.46694
0.467091
0.467193
0.467266
0.46733
0.467395
0.467441
0.467425
0.467355
0.431507
0.430882
0.467839
0.467505
0.467454
0.467359
0.467239
0.467097
0.466934
0.466752
0.466548
0.466324
0.466078
0.465812
0.465527
0.465222
0.4649
0.464567
0.464229
0.463891
0.463569
0.463272
0.463024
0.462846
0.462774
0.462884
0.463234
0.46384
0.464583
0.465293
0.465888
0.46634
0.466667
0.466895
0.467055
0.467164
0.467249
0.467328
0.467405
0.467446
0.467421
0.467352
0.431687
0.430874
0.46784
0.467506
0.467454
0.46736
0.467241
0.4671
0.466938
0.466756
0.466553
0.466329
0.466084
0.465817
0.465529
0.465222
0.464895
0.464552
0.4642
0.463846
0.463495
0.463164
0.462864
0.462618
0.46245
0.462393
0.462528
0.462915
0.46357
0.464369
0.465132
0.465771
0.466254
0.466603
0.466846
0.467015
0.467134
0.467236
0.467333
0.467418
0.467449
0.467417
0.467349
0.431519
0.430866
0.46784
0.467506
0.467455
0.467361
0.467242
0.467102
0.466941
0.46676
0.466558
0.466335
0.46609
0.465823
0.465534
0.465224
0.464895
0.464547
0.464184
0.463814
0.463446
0.463085
0.462749
0.462449
0.462209
0.462052
0.462014
0.462174
0.462597
0.4633
0.464152
0.464966
0.465648
0.466163
0.466533
0.466789
0.466971
0.467108
0.467231
0.467345
0.467432
0.46745
0.467414
0.467348
0.431416
0.431056
0.467841
0.467506
0.467456
0.467362
0.467244
0.467104
0.466945
0.466765
0.466564
0.466341
0.466097
0.465831
0.465542
0.46523
0.464898
0.464547
0.464178
0.463796
0.463411
0.463032
0.462664
0.462326
0.46203
0.461799
0.461657
0.461639
0.461827
0.462284
0.463029
0.463931
0.464793
0.465518
0.466063
0.466455
0.466726
0.466926
0.467088
0.467234
0.467365
0.467445
0.467449
0.467411
0.467347
0.431385
0.449592
0.467842
0.467507
0.467456
0.467364
0.467246
0.467107
0.466948
0.466769
0.466569
0.466348
0.466105
0.465839
0.46555
0.465238
0.464904
0.464549
0.464178
0.46379
0.463392
0.462994
0.462607
0.462236
0.461901
0.461612
0.461394
0.46127
0.461275
0.461487
0.461973
0.462756
0.463703
0.464611
0.465377
0.465951
0.466365
0.466656
0.466886
0.467078
0.467249
0.467389
0.467455
0.467447
0.467409
0.467347
0.431377
0.465667
0.467842
0.467507
0.467457
0.467365
0.467248
0.46711
0.466952
0.466773
0.466575
0.466355
0.466113
0.465847
0.46556
0.465248
0.464913
0.464557
0.464181
0.463789
0.463385
0.462973
0.462567
0.462175
0.461806
0.461477
0.4612
0.460998
0.460894
0.460921
0.461155
0.461665
0.462481
0.463468
0.464418
0.465222
0.465825
0.466266
0.466591
0.466856
0.46708
0.467276
0.467415
0.467461
0.467445
0.467407
0.467343
0.431373
0.466513
0.467843
0.467507
0.467457
0.467366
0.46725
0.467113
0.466955
0.466778
0.46658
0.466361
0.466121
0.465857
0.46557
0.465259
0.464925
0.464567
0.464189
0.463792
0.463384
0.462965
0.462544
0.462133
0.461742
0.461379
0.46106
0.460798
0.460615
0.460531
0.460577
0.46083
0.461361
0.462203
0.463225
0.46421
0.465049
0.465684
0.466163
0.466535
0.46684
0.4671
0.467314
0.467438
0.467464
0.467443
0.467405
0.467326
0.431369
0.466617
0.467844
0.467508
0.467458
0.467367
0.467251
0.467115
0.466959
0.466783
0.466585
0.466368
0.466128
0.465866
0.465581
0.46527
0.464936
0.46458
0.4642
0.463801
0.463387
0.462964
0.462536
0.462109
0.461698
0.461312
0.460959
0.460655
0.460411
0.460247
0.460182
0.460246
0.460515
0.461062
0.461923
0.462969
0.463984
0.464857
0.465532
0.46607
0.466493
0.466844
0.46714
0.467357
0.467456
0.467464
0.467441
0.467404
0.467289
0.431365
0.466639
0.467844
0.467508
0.467458
0.467368
0.467253
0.467117
0.466962
0.466787
0.466592
0.466374
0.466136
0.465875
0.465591
0.465283
0.464949
0.464593
0.464214
0.463814
0.463397
0.462968
0.462534
0.4621
0.461673
0.461267
0.46089
0.46055
0.460264
0.460039
0.459894
0.459846
0.459928
0.460211
0.460768
0.46164
0.4627
0.463737
0.46465
0.465392
0.465993
0.466473
0.466875
0.467197
0.467399
0.467467
0.467463
0.467439
0.467402
0.4671
0.43136
0.466645
0.467845
0.467508
0.467459
0.467369
0.467255
0.46712
0.466965
0.466791
0.466597
0.466382
0.466144
0.465884
0.465602
0.465295
0.464963
0.464607
0.464228
0.463828
0.46341
0.462978
0.462538
0.462098
0.461663
0.46124
0.460843
0.460481
0.460158
0.459891
0.459684
0.459556
0.459527
0.459624
0.45992
0.460481
0.461353
0.462417
0.463476
0.464454
0.465271
0.465941
0.466486
0.466937
0.467265
0.467434
0.467473
0.467462
0.467437
0.467402
0.466672
0.431354
0.466647
0.467845
0.467509
0.46746
0.46737
0.467256
0.467122
0.466968
0.466795
0.466602
0.466389
0.466153
0.465893
0.465612
0.465306
0.464977
0.464622
0.464243
0.463844
0.463426
0.462992
0.462549
0.462102
0.461661
0.46123
0.460816
0.460433
0.460087
0.459784
0.459534
0.459346
0.459236
0.459224
0.459338
0.459643
0.460201
0.461064
0.46213
0.463227
0.464284
0.46518
0.465927
0.466541
0.467027
0.467334
0.467459
0.467475
0.46746
0.467436
0.467401
0.460445
0.431349
0.466648
0.467846
0.467509
0.46746
0.467371
0.467258
0.467125
0.466972
0.466799
0.466607
0.466394
0.466161
0.465904
0.465622
0.465318
0.46499
0.464637
0.464261
0.463861
0.463442
0.463009
0.462563
0.462113
0.461665
0.461228
0.460806
0.460405
0.460039
0.459713
0.459427
0.459196
0.459025
0.458934
0.45894
0.45907
0.459381
0.45993
0.460782
0.461868
0.463021
0.464153
0.465133
0.465965
0.466643
0.467134
0.467392
0.467474
0.467475
0.467459
0.467435
0.4674
0.43554
0.43136
0.466648
0.467846
0.467509
0.467461
0.467372
0.467259
0.467127
0.466975
0.466803
0.466612
0.4664
0.466168
0.465913
0.465634
0.46533
0.465003
0.464652
0.464277
0.463879
0.46346
0.463026
0.462581
0.462128
0.461677
0.461232
0.460803
0.460394
0.460011
0.459664
0.459356
0.459088
0.458876
0.458724
0.458652
0.458677
0.458821
0.459138
0.459679
0.460537
0.461663
0.462867
0.464077
0.465149
0.466066
0.466786
0.46724
0.467437
0.467481
0.467475
0.467458
0.467435
0.467399
0.431521
0.432302
0.466649
0.467847
0.46751
0.467461
0.467373
0.46726
0.467129
0.466978
0.466807
0.466617
0.466407
0.466175
0.465921
0.465645
0.465343
0.465016
0.464666
0.464293
0.463897
0.463481
0.463046
0.4626
0.462147
0.461692
0.461244
0.460808
0.460392
0.46
0.459637
0.459308
0.459018
0.458769
0.458576
0.458444
0.458391
0.458435
0.458596
0.458926
0.459474
0.460359
0.461517
0.462781
0.464075
0.465245
0.466237
0.466953
0.467332
0.467466
0.467484
0.467474
0.467457
0.467435
0.467398
0.431512
0.452781
0.466649
0.467848
0.46751
0.467462
0.467374
0.467262
0.46713
0.46698
0.466811
0.466622
0.466413
0.466182
0.465929
0.465654
0.465356
0.465031
0.464681
0.464309
0.463915
0.4635
0.463067
0.46262
0.462166
0.461711
0.46126
0.460819
0.460396
0.459998
0.459626
0.459281
0.45897
0.4587
0.458471
0.458297
0.458185
0.458153
0.45822
0.458408
0.458764
0.459335
0.460242
0.461441
0.46278
0.464167
0.465434
0.466465
0.467115
0.467403
0.467482
0.467484
0.467473
0.467457
0.467436
0.467386
0.431507
0.466479
0.466649
0.467848
0.46751
0.467462
0.467375
0.467264
0.467133
0.466983
0.466814
0.466627
0.466419
0.466189
0.465938
0.465663
0.465366
0.465045
0.464698
0.464325
0.463932
0.463518
0.463088
0.462642
0.462187
0.461731
0.461279
0.460836
0.460408
0.460002
0.459623
0.45927
0.458944
0.458653
0.458403
0.458194
0.458041
0.457951
0.457943
0.458037
0.458259
0.458649
0.459256
0.460192
0.461448
0.462885
0.464372
0.465717
0.46672
0.467253
0.46745
0.467489
0.467484
0.467472
0.467457
0.467436
0.46732
0.431503
0.46709
0.466649
0.467848
0.46751
0.467463
0.467375
0.467265
0.467135
0.466986
0.466817
0.466631
0.466424
0.466197
0.465946
0.465673
0.465377
0.465057
0.464713
0.464343
0.46395
0.463537
0.463107
0.462664
0.462211
0.461753
0.4613
0.460855
0.460424
0.460014
0.459628
0.459268
0.458934
0.458628
0.458358
0.458128
0.45794
0.457809
0.457743
0.457763
0.457891
0.45815
0.458583
0.459231
0.460223
0.461561
0.463112
0.4647
0.466074
0.466961
0.467356
0.467478
0.467491
0.467484
0.467472
0.467458
0.467436
0.466463
0.431499
0.467135
0.466649
0.467849
0.467511
0.467463
0.467376
0.467266
0.467137
0.466989
0.466821
0.466635
0.466429
0.466203
0.465955
0.465683
0.465388
0.465069
0.464726
0.46436
0.463969
0.463556
0.463127
0.462685
0.462233
0.461777
0.461322
0.460876
0.460444
0.46003
0.45964
0.459273
0.458933
0.458619
0.458334
0.458085
0.457876
0.45771
0.457603
0.457565
0.457616
0.457782
0.458086
0.458565
0.459264
0.460348
0.461801
0.463479
0.465146
0.466453
0.467157
0.467427
0.467491
0.467492
0.467483
0.467472
0.467458
0.467434
0.44247
0.4315
0.467145
0.466649
0.467849
0.467511
0.467463
0.467377
0.467267
0.467139
0.466991
0.466825
0.466639
0.466434
0.466208
0.465962
0.465693
0.465399
0.465081
0.464739
0.464375
0.463988
0.463577
0.463147
0.462705
0.462255
0.4618
0.461347
0.460899
0.460465
0.46005
0.459657
0.459286
0.458939
0.458618
0.458326
0.458062
0.457834
0.457647
0.457506
0.457425
0.457417
0.457505
0.457716
0.458069
0.458605
0.459376
0.460587
0.462185
0.463993
0.465671
0.466792
0.467302
0.467469
0.467496
0.467492
0.467484
0.467473
0.467457
0.467432
0.431595
0.432096
0.467148
0.466649
0.46785
0.467511
0.467464
0.467377
0.467268
0.46714
0.466994
0.466829
0.466644
0.466439
0.466214
0.465968
0.465701
0.46541
0.465094
0.464753
0.464389
0.464003
0.463597
0.46317
0.462727
0.462276
0.461823
0.46137
0.460924
0.460488
0.460071
0.459677
0.459303
0.458952
0.458625
0.458326
0.458054
0.457814
0.457608
0.457444
0.457328
0.457276
0.457304
0.457434
0.457693
0.458104
0.458708
0.459597
0.460962
0.462731
0.464636
0.466195
0.467059
0.467399
0.467491
0.467498
0.467492
0.467484
0.467472
0.467457
0.467428
0.431572
0.454734
0.46715
0.466649
0.467851
0.467511
0.467464
0.467378
0.467269
0.467141
0.466995
0.466831
0.466648
0.466445
0.46622
0.465975
0.465708
0.465419
0.465106
0.464767
0.464404
0.464019
0.463614
0.463191
0.462751
0.462299
0.461845
0.461393
0.460947
0.460513
0.460094
0.459698
0.459323
0.458969
0.458639
0.458333
0.458056
0.457806
0.457588
0.457406
0.457268
0.457179
0.45716
0.457228
0.457405
0.457718
0.458197
0.45889
0.459943
0.461504
0.463443
0.465347
0.466642
0.467248
0.467458
0.4675
0.467499
0.467492
0.467484
0.467472
0.467457
0.467413
0.431569
0.466858
0.467151
0.466649
0.467851
0.467512
0.467465
0.467379
0.46727
0.467143
0.466997
0.466833
0.466652
0.46645
0.466227
0.465982
0.465716
0.465427
0.465116
0.46478
0.464419
0.464035
0.46363
0.463208
0.462773
0.462323
0.461868
0.461415
0.46097
0.460537
0.460119
0.45972
0.459344
0.458989
0.458656
0.458347
0.458064
0.457809
0.457582
0.457388
0.45723
0.457118
0.45706
0.45708
0.45719
0.45742
0.457799
0.458362
0.459174
0.460437
0.462231
0.464288
0.466015
0.466977
0.467373
0.467489
0.467503
0.467499
0.467492
0.467483
0.467472
0.467456
0.466595
0.431566
0.467279
0.467151
0.466649
0.467851
0.467512
0.467465
0.46738
0.467272
0.467144
0.466999
0.466835
0.466654
0.466454
0.466233
0.46599
0.465724
0.465436
0.465125
0.464792
0.464434
0.464052
0.463648
0.463226
0.462791
0.462347
0.461893
0.461439
0.460993
0.46056
0.460142
0.459745
0.459366
0.45901
0.458676
0.458365
0.458079
0.457818
0.457586
0.457382
0.457212
0.457079
0.456997
0.456975
0.457034
0.457194
0.457488
0.457948
0.45861
0.459601
0.461109
0.463135
0.46517
0.466552
0.467208
0.467447
0.467502
0.467504
0.467499
0.467492
0.467483
0.467472
0.467454
0.43547
0.431575
0.467303
0.467151
0.466649
0.467852
0.467512
0.467465
0.467381
0.467273
0.467146
0.467001
0.466838
0.466657
0.466457
0.466238
0.465997
0.465733
0.465446
0.465135
0.464802
0.464447
0.464067
0.463666
0.463245
0.46281
0.462366
0.461917
0.461465
0.461017
0.460582
0.460165
0.459768
0.459391
0.459032
0.458697
0.458386
0.458097
0.457833
0.457596
0.457387
0.457206
0.457061
0.456957
0.456908
0.456923
0.457028
0.457248
0.457619
0.458173
0.458963
0.460192
0.461998
0.464163
0.465951
0.466939
0.467355
0.467487
0.467507
0.467504
0.467499
0.467492
0.467483
0.467472
0.467452
0.431613
0.434686
0.467307
0.467151
0.466649
0.467852
0.467512
0.467466
0.467381
0.467274
0.467148
0.467003
0.466841
0.466659
0.46646
0.466241
0.466003
0.465741
0.465455
0.465146
0.464812
0.464458
0.464082
0.463683
0.463264
0.46283
0.462385
0.461937
0.461489
0.461043
0.460607
0.460188
0.459791
0.459414
0.459057
0.45872
0.458407
0.458118
0.457852
0.457611
0.457397
0.457211
0.457055
0.456937
0.456864
0.45685
0.456907
0.457067
0.45736
0.457821
0.458484
0.459465
0.460978
0.463074
0.465178
0.466545
0.467196
0.467441
0.467504
0.467508
0.467504
0.467499
0.467492
0.467483
0.467471
0.467445
0.431606
0.465065
0.467309
0.467151
0.466649
0.467852
0.467512
0.467466
0.467381
0.467275
0.467149
0.467006
0.466844
0.466663
0.466463
0.466245
0.466007
0.465747
0.465464
0.465157
0.464824
0.464469
0.464094
0.463698
0.463282
0.46285
0.462406
0.461957
0.461509
0.461068
0.460633
0.460212
0.459813
0.459437
0.45908
0.458744
0.458429
0.458139
0.457873
0.45763
0.457413
0.457222
0.45706
0.45693
0.456841
0.456801
0.456825
0.456933
0.457161
0.457539
0.458103
0.458904
0.460143
0.462005
0.464249
0.466018
0.466954
0.467354
0.467487
0.46751
0.467509
0.467504
0.467499
0.467492
0.467483
0.467471
0.467164
0.431603
0.467311
0.46731
0.467151
0.466649
0.467853
0.467513
0.467466
0.467382
0.467275
0.46715
0.467008
0.466847
0.466667
0.466467
0.466249
0.466011
0.465752
0.465471
0.465167
0.464837
0.464482
0.464106
0.463711
0.463298
0.462869
0.462427
0.461978
0.46153
0.461088
0.460657
0.460238
0.459837
0.459459
0.459102
0.458767
0.458453
0.458161
0.457894
0.457651
0.457431
0.457238
0.45707
0.456934
0.456832
0.456773
0.456768
0.456839
0.457009
0.457316
0.457793
0.458475
0.459482
0.461043
0.46322
0.465338
0.466623
0.467216
0.467444
0.467506
0.467512
0.467509
0.467504
0.467499
0.467492
0.467483
0.467469
0.436567
0.431617
0.467373
0.46731
0.467151
0.46665
0.467853
0.467513
0.467467
0.467382
0.467276
0.467151
0.467009
0.466849
0.46667
0.466472
0.466254
0.466015
0.465756
0.465477
0.465175
0.464848
0.464496
0.46412
0.463724
0.463312
0.462886
0.462447
0.462
0.461552
0.461109
0.460678
0.460262
0.459862
0.459482
0.459124
0.458789
0.458476
0.458185
0.457916
0.457672
0.457452
0.457256
0.457086
0.456943
0.456833
0.45676
0.456734
0.456772
0.456898
0.457142
0.457543
0.458129
0.458966
0.46025
0.462173
0.46449
0.466177
0.467021
0.467371
0.46749
0.467514
0.467513
0.467509
0.467504
0.467499
0.467492
0.467482
0.467467
0.431638
0.437289
0.467379
0.46731
0.467151
0.46665
0.467854
0.467513
0.467467
0.467383
0.467276
0.467151
0.467009
0.46685
0.466673
0.466476
0.466259
0.466021
0.465761
0.465482
0.46518
0.464857
0.464508
0.464135
0.46374
0.463326
0.4629
0.462464
0.46202
0.461574
0.461131
0.460699
0.460283
0.459887
0.459507
0.459147
0.458811
0.458498
0.458207
0.45794
0.457694
0.457474
0.457277
0.457104
0.456958
0.45684
0.456758
0.456715
0.456728
0.456817
0.457011
0.457341
0.457846
0.458562
0.459618
0.461237
0.463481
0.465583
0.466753
0.467263
0.467456
0.46751
0.467516
0.467513
0.467509
0.467504
0.467498
0.467491
0.467482
0.467455
0.431628
0.466542
0.46738
0.46731
0.467151
0.46665
0.467854
0.467513
0.467467
0.467384
0.467278
0.467152
0.46701
0.466851
0.466674
0.466479
0.466264
0.466027
0.465768
0.465487
0.465186
0.464863
0.464517
0.464148
0.463755
0.463343
0.462915
0.46248
0.462039
0.461595
0.461153
0.460721
0.460304
0.459907
0.459531
0.459172
0.458833
0.458519
0.458229
0.457962
0.457717
0.457495
0.457298
0.457124
0.456975
0.456853
0.456762
0.456708
0.456701
0.45676
0.45691
0.457183
0.457611
0.458232
0.459118
0.460464
0.462452
0.464778
0.46638
0.467114
0.467401
0.467498
0.467517
0.467516
0.467513
0.467509
0.467504
0.467498
0.467491
0.467481
0.465801
0.431628
0.467393
0.467381
0.46731
0.467151
0.46665
0.467854
0.467514
0.467468
0.467384
0.467279
0.467154
0.467011
0.466852
0.466675
0.466481
0.466267
0.466032
0.465775
0.465494
0.465192
0.464869
0.464524
0.464158
0.463769
0.463359
0.462933
0.462495
0.462054
0.461614
0.461175
0.460743
0.460326
0.459927
0.459551
0.459196
0.458858
0.458541
0.45825
0.457983
0.457739
0.457518
0.457319
0.457145
0.456994
0.456868
0.456772
0.456708
0.456686
0.456721
0.456836
0.457057
0.457421
0.457958
0.458716
0.459839
0.461537
0.463803
0.465818
0.466902
0.467323
0.467473
0.467515
0.467519
0.467516
0.467513
0.467509
0.467504
0.467498
0.467491
0.467478
0.431847
0.432108
0.467417
0.467381
0.46731
0.467151
0.46665
0.467855
0.467514
0.467468
0.467385
0.46728
0.467156
0.467013
0.466853
0.466676
0.466482
0.466269
0.466037
0.465781
0.465502
0.4652
0.464876
0.464531
0.464166
0.46378
0.463374
0.46295
0.462513
0.462071
0.46163
0.461194
0.460765
0.460348
0.459949
0.459572
0.459215
0.458881
0.458565
0.458272
0.458003
0.45776
0.457539
0.457342
0.457165
0.457013
0.456886
0.456785
0.456714
0.45668
0.456697
0.456782
0.456962
0.457266
0.457732
0.458392
0.459336
0.460764
0.462826
0.465063
0.466555
0.467211
0.467436
0.467507
0.46752
0.467519
0.467516
0.467513
0.467508
0.467504
0.467498
0.46749
0.467467
0.431645
0.463308
0.467419
0.467381
0.46731
0.467151
0.46665
0.467855
0.467514
0.467468
0.467385
0.467281
0.467157
0.467015
0.466856
0.466678
0.466483
0.46627
0.466039
0.465786
0.465509
0.465209
0.464885
0.464539
0.464173
0.463788
0.463386
0.462966
0.462532
0.462089
0.461646
0.46121
0.460784
0.460369
0.459971
0.459593
0.459236
0.4589
0.458588
0.458295
0.458025
0.45778
0.45756
0.457362
0.457187
0.457033
0.456905
0.456801
0.456724
0.456681
0.456683
0.456745
0.456889
0.457143
0.457543
0.458122
0.458928
0.46013
0.461916
0.464186
0.466037
0.467021
0.467381
0.467492
0.46752
0.467522
0.467519
0.467516
0.467512
0.467508
0.467504
0.467498
0.46749
0.467271
0.431644
0.46739
0.46742
0.467381
0.46731
0.467151
0.46665
0.467855
0.467514
0.467468
0.467385
0.467281
0.467158
0.467017
0.466858
0.466681
0.466486
0.466272
0.46604
0.465788
0.465515
0.465217
0.464894
0.464548
0.464181
0.463796
0.463395
0.462978
0.462548
0.462108
0.461665
0.461227
0.4608
0.460388
0.459992
0.459615
0.459257
0.458921
0.458607
0.458318
0.458048
0.457801
0.457579
0.457382
0.457207
0.457054
0.456923
0.456817
0.456737
0.456687
0.456677
0.45672
0.456834
0.457046
0.457388
0.457894
0.458601
0.459614
0.461135
0.463244
0.465357
0.466708
0.467286
0.467468
0.467516
0.467524
0.467522
0.467519
0.467516
0.467512
0.467508
0.467503
0.467497
0.467488
0.4336
0.431923
0.467441
0.46742
0.467381
0.46731
0.467151
0.46665
0.467855
0.467514
0.467468
0.467385
0.467281
0.467159
0.467019
0.466861
0.466684
0.466489
0.466274
0.466041
0.465789
0.465517
0.465223
0.464903
0.464559
0.464191
0.463805
0.463403
0.462987
0.462561
0.462125
0.461685
0.461247
0.460818
0.460405
0.460011
0.459635
0.459278
0.458941
0.458627
0.458336
0.458069
0.457823
0.457599
0.457401
0.457226
0.457073
0.456943
0.456834
0.456751
0.456695
0.456676
0.456705
0.456795
0.45697
0.457262
0.457704
0.458328
0.459197
0.460487
0.462358
0.464556
0.466238
0.467119
0.467424
0.467508
0.467524
0.467524
0.467522
0.467519
0.467516
0.467512
0.467508
0.467503
0.467497
0.467474
0.431659
0.462745
0.467444
0.467421
0.467381
0.46731
0.467151
0.46665
0.467856
0.467514
0.467468
0.467386
0.467281
0.467159
0.46702
0.466862
0.466687
0.466493
0.466279
0.466044
0.465791
0.465519
0.465226
0.46491
0.464568
0.464203
0.463816
0.463412
0.462996
0.462571
0.462139
0.461702
0.461266
0.460837
0.460422
0.460027
0.459654
0.459299
0.458962
0.458647
0.458355
0.458087
0.457844
0.457621
0.45742
0.457244
0.457091
0.456961
0.456852
0.456765
0.456706
0.45668
0.456695
0.456767
0.456912
0.45716
0.457543
0.458097
0.458855
0.459952
0.461572
0.463696
0.465633
0.466836
0.467343
0.467491
0.467523
0.467526
0.467525
0.467522
0.467519
0.467516
0.467512
0.467508
0.467503
0.467496
0.466695
0.431657
0.467417
0.467445
0.467421
0.467381
0.46731
0.467151
0.46665
0.467856
0.467514
0.467469
0.467386
0.467281
0.467159
0.467019
0.466863
0.466689
0.466496
0.466283
0.466049
0.465795
0.46552
0.465227
0.464912
0.464575
0.464213
0.463828
0.463424
0.463006
0.46258
0.462149
0.461716
0.461284
0.460857
0.460442
0.460044
0.45967
0.459317
0.458982
0.458668
0.458375
0.458106
0.457862
0.457641
0.457441
0.457263
0.457109
0.456978
0.456869
0.456781
0.456718
0.456686
0.456692
0.456746
0.456868
0.457078
0.457411
0.457898
0.458573
0.459514
0.460903
0.462845
0.464921
0.466423
0.467193
0.467456
0.467518
0.467527
0.467527
0.467524
0.467522
0.467519
0.467516
0.467512
0.467508
0.467503
0.467494
0.432835
0.432584
0.467459
0.467445
0.467421
0.467381
0.46731
0.467151
0.46665
0.467857
0.467515
0.467469
0.467386
0.467282
0.467159
0.467019
0.466863
0.46669
0.466498
0.466287
0.466054
0.4658
0.465524
0.465229
0.464914
0.464578
0.464221
0.463839
0.463437
0.463018
0.46259
0.462158
0.461726
0.461298
0.460875
0.460461
0.460064
0.459687
0.459334
0.459001
0.458688
0.458395
0.458126
0.45788
0.457658
0.457461
0.457283
0.457126
0.456994
0.456884
0.456796
0.456731
0.456693
0.456691
0.456733
0.456833
0.457014
0.457301
0.45773
0.458331
0.459153
0.460346
0.462059
0.464152
0.465892
0.466948
0.467383
0.467506
0.467527
0.467529
0.467527
0.467524
0.467521
0.467519
0.467515
0.467512
0.467508
0.467502
0.467486
0.431668
0.466093
0.467462
0.467445
0.467421
0.467381
0.46731
0.467152
0.46665
0.467857
0.467515
0.46747
0.467387
0.467283
0.46716
0.467019
0.466863
0.46669
0.4665
0.466289
0.466058
0.465805
0.46553
0.465233
0.464916
0.46458
0.464224
0.463847
0.463449
0.463032
0.462603
0.462169
0.461736
0.461308
0.460889
0.460479
0.460083
0.459707
0.459351
0.459017
0.458706
0.458415
0.458145
0.457899
0.457676
0.457477
0.457302
0.457145
0.457011
0.456899
0.45681
0.456743
0.456703
0.456693
0.456725
0.456808
0.456961
0.457212
0.457589
0.458125
0.458852
0.459881
0.461377
0.463351
0.465274
0.466596
0.467254
0.467476
0.467525
0.46753
0.467529
0.467527
0.467524
0.467521
0.467518
0.467515
0.467512
0.467508
0.467502
0.463984
0.431679
0.467458
0.467462
0.467445
0.467421
0.467381
0.46731
0.467152
0.46665
0.467857
0.467515
0.46747
0.467388
0.467284
0.467161
0.46702
0.466863
0.46669
0.466499
0.466291
0.466061
0.46581
0.465536
0.46524
0.46492
0.464582
0.464225
0.463851
0.463457
0.463044
0.462617
0.462182
0.461747
0.461318
0.4609
0.460493
0.460101
0.459726
0.45937
0.459034
0.458722
0.458432
0.458164
0.457918
0.457694
0.457494
0.457317
0.457163
0.457028