/*--------------------------------*- C++ -*----------------------------------*\
| =========                 |                                                 |
| \\      /  F ield         | OpenFOAM: The Open Source CFD Toolbox           |
|  \\    /   O peration     | Version:  v2012                                 |
|   \\  /    A nd           | Website:  www.openfoam.com                      |
|    \\/     M anipulation  |                                                 |
\*---------------------------------------------------------------------------*/
FoamFile
{
    version     2.0;
    format      ascii;
    class       volScalarField;
    location    "11500";
    object      q2;
}
// * * * * * * * * * * * * * * * * * * * * * * * * * * * * * * * * * * * * * //

dimensions      [0 0 0 0 0 0 0];


internalField   nonuniform List<scalar> 
53312
(
1
1
1
1
1
1
1
1
1
1
1
1
1
1
1
1
1
1
1
1
1
1
1
1
1
1
1
1
1
1
1
1
1
1
1
1
1
1
1
1
1
1
1
1
1
1
1
1
1
1
1
1
1
1
1
1
1
1
1
1
1
1
1
1
1
0.99996
1
1
1
1
1
1
1
1
1
1
1
0.998039
1
1
1
1
1
1
1
1
1
1
1
1
0.97872
1
1
1
1
1
1
1
1
1
1
1
1
0.99999
0.906923
1
1
1
1
1
1
1
1
1
1
1
1
1
0.999049
0.770268
1
1
1
1
1
1
1
1
1
1
1
1
1
1
0.984733
0.603227
1
1
1
1
1
1
1
1
1
1
1
1
1
1
0.999999
0.917138
0.447246
1
1
1
1
1
1
1
1
1
1
1
1
1
1
1
0.999785
0.77182
0.32152
1
1
1
1
1
1
1
1
1
1
1
1
1
1
1
1
0.993744
0.587767
0.228102
1
1
1
1
1
1
1
1
1
1
1
1
1
1
1
1
0.99998
0.950108
0.419081
0.159422
1
1
1
1
1
1
1
1
1
1
1
1
1
1
1
1
1
0.99871
0.825114
0.287311
0.111286
1
1
1
1
1
1
1
1
1
1
1
1
1
1
1
1
1
0.999996
0.982322
0.637323
0.193852
0.0766069
1
1
1
1
1
1
1
1
1
1
1
1
1
1
1
1
1
1
0.999619
0.908833
0.451053
0.128906
0.0520887
1
1
1
1
1
1
1
1
1
1
1
1
1
1
1
1
1
1
0.999997
0.992577
0.753657
0.304484
0.0843566
0.0345999
1
1
1
1
1
1
1
1
1
1
1
1
1
1
1
1
1
1
1
0.999682
0.949887
0.560257
0.201733
0.0541727
0.0229364
1
1
1
1
1
1
1
1
1
1
1
1
1
1
1
1
1
1
1
0.99999
0.99388
0.832858
0.387035
0.132712
0.0352879
0.0159895
1
1
1
1
1
1
1
1
1
1
1
1
1
1
1
1
1
1
1
1
0.999416
0.957408
0.653793
0.256432
0.0877623
0.0240541
0.0118825
1
1
1
1
1
1
1
1
1
1
1
1
1
1
1
1
1
1
1
1
0.999953
0.991237
0.852568
0.468631
0.166956
0.0581907
0.0167344
0.00945378
1
1
1
1
1
1
1
1
1
1
1
1
1
1
1
1
1
1
1
1
0.999997
0.998421
0.947841
0.682936
0.317848
0.107369
0.0388271
0.0116024
0.0082063
1
1
1
1
1
1
1
1
1
1
1
1
1
1
1
1
1
1
1
1
1
0.999741
0.9836
0.835412
0.49906
0.208631
0.0686834
0.0260329
0.00801903
0.00887943
1
1
1
1
1
1
1
1
1
1
1
1
1
1
1
1
1
1
1
1
1
0.999961
0.995226
0.922966
0.66477
0.343229
0.134403
0.0438021
0.0174573
0.00543252
0.0113334
1
1
1
1
1
1
1
1
1
1
1
1
1
1
1
1
1
1
1
1
1
0.999994
0.99869
0.966515
0.792497
0.48525
0.227703
0.0855065
0.0279163
0.0116245
0.00381499
0.0142537
1
1
1
1
1
1
1
1
1
1
1
1
1
1
1
1
1
1
1
1
1
0.999999
0.999662
0.986174
0.879312
0.616791
0.334722
0.147744
0.0538403
0.0177743
0.00773364
0.00303524
0.0160847
1
1
1
1
1
1
1
1
1
1
1
1
1
1
1
1
1
1
1
1
1
1
0.999917
0.994567
0.933197
0.727586
0.444676
0.223119
0.0942035
0.0336322
0.0113808
0.00521415
0.00275672
0.0176589
1
1
1
1
1
1
1
1
1
1
1
1
1
1
1
1
1
1
1
1
1
1
0.99998
0.997963
0.964687
0.813925
0.550115
0.305438
0.145373
0.0593401
0.020885
0.00732861
0.00366331
0.00277312
0.0178335
1
1
1
1
1
1
1
1
1
1
1
1
1
1
1
1
1
1
1
1
1
1
0.999996
0.999262
0.982092
0.877783
0.645685
0.390376
0.203517
0.0931871
0.0368552
0.0129084
0.00480174
0.00273294
0.00298843
0.016405
1
1
1
1
1
1
1
1
1
1
1
1
1
1
1
1
1
1
1
1
1
1
0.999998
0.999747
0.991251
0.922778
0.728957
0.474282
0.266114
0.132861
0.0587871
0.0226196
0.00798129
0.0032451
0.00219362
0.00328179
0.0139552
1
1
1
1
1
1
1
1
1
1
1
1
1
1
1
1
1
1
1
1
1
1
0.999999
0.999892
0.99599
0.95307
0.799007
0.555383
0.331128
0.176891
0.085292
0.0365323
0.0137331
0.00496638
0.00230365
0.00189128
0.00321136
0.00763138
1
1
1
1
1
1
1
1
1
1
1
1
1
1
1
1
1
1
1
1
1
1
0.999999
0.999949
0.997978
0.973298
0.855929
0.632102
0.397763
0.22402
0.115435
0.0538949
0.0223468
0.00826694
0.00314717
0.00175067
0.00172035
0.00312537
0.00426847
1
1
1
1
1
1
1
1
1
1
1
1
1
1
1
1
1
1
1
1
1
1
0.999999
0.999971
0.998991
0.984549
0.902711
0.703336
0.465432
0.274006
0.148399
0.0741268
0.033489
0.0134726
0.00496428
0.00206336
0.00144389
0.00170093
0.00359
0.00309172
1
1
1
1
1
1
1
1
1
1
1
1
1
1
1
1
1
1
1
1
1
1
0.999999
0.99998
0.999503
0.991715
0.936004
0.771728
0.533889
0.326908
0.184143
0.0966807
0.0468453
0.0204698
0.00800397
0.00300069
0.00142917
0.0013054
0.00185185
0.00416695
0.00272394
1
1
1
1
1
1
1
1
1
1
1
1
1
1
1
1
1
1
1
1
1
1
0.999999
0.999983
0.999741
0.996083
0.96196
0.831184
0.60696
0.383251
0.222961
0.121564
0.0620203
0.0291137
0.0122821
0.00471276
0.00185155
0.00106985
0.00127648
0.00222144
0.00493665
0.00289714
1
1
1
1
1
1
1
1
1
1
1
1
1
1
1
1
1
1
1
1
1
1
0.999999
0.999986
0.999842
0.99823
0.981043
0.886935
0.681278
0.447671
0.265692
0.149098
0.0790403
0.0391674
0.0177727
0.00724218
0.00276733
0.00119037
0.000885829
0.00131986
0.00301233
0.0043218
0.00374745
1
1
1
1
1
1
1
1
1
1
1
1
1
1
1
1
1
1
1
1
1
1
0.999999
0.999987
0.999897
0.999122
0.991562
0.937305
0.762658
0.521428
0.316697
0.180115
0.0981874
0.0506526
0.0243328
0.0106322
0.00420586
0.00164274
0.000820239
0.000819225
0.00143566
0.00466826
0.00301583
0.00693716
1
1
1
1
1
1
1
1
1
1
1
1
1
1
1
1
1
1
1
1
1
1
0.999998
0.999988
0.999925
0.999527
0.996171
0.970233
0.851845
0.61226
0.380449
0.218277
0.120184
0.063805
0.0320073
0.0148369
0.00623189
0.002423
0.00100561
0.000623569
0.000844185
0.00167396
0.00884087
0.00170748
0.0185988
1
1
1
1
1
1
1
1
1
1
1
1
1
1
1
1
1
1
1
1
1
1
0.999998
0.999988
0.99994
0.99971
0.998171
0.986617
0.92262
0.729676
0.4661
0.269337
0.14791
0.0792299
0.0409896
0.0199371
0.00885276
0.00358814
0.00139939
0.000653808
0.000536728
0.000973791
0.00212285
0.0188023
0.000817686
0.0480216
1
1
1
1
1
1
1
1
1
1
1
1
1
1
1
1
1
1
1
1
1
1
0.999998
0.999988
0.999949
0.999798
0.999022
0.993955
0.963969
0.842651
0.592164
0.342284
0.187243
0.0991714
0.0518202
0.0260967
0.012156
0.00516899
0.00203783
0.000827835
0.000467754
0.000531707
0.00126127
0.00272068
0.0599248
0.000504714
0.0980577
1
1
1
1
1
1
1
1
1
1
1
1
1
1
1
1
1
1
1
1
1
1
0.999998
0.999988
0.999954
0.999846
0.999394
0.997004
0.983897
0.921784
0.735842
0.460794
0.246018
0.129078
0.0663135
0.0338918
0.0163875
0.00725312
0.00295625
0.00115469
0.000516923
0.000381965
0.000613078
0.00174508
0.00336302
0.0847663
0.000302765
0.182213
1
1
1
1
1
1
1
1
1
1
1
1
1
1
1
1
1
1
1
1
1
1
0.999998
0.999988
0.999958
0.999874
0.99958
0.998289
0.992379
0.964466
0.857228
0.616564
0.349029
0.175552
0.0894223
0.0448696
0.022229
0.0100644
0.00423268
0.00166289
0.000666178
0.000355359
0.000367583
0.000811384
0.00254787
0.00471669
0.0635098
0.000226507
0.300537
1
1
1
1
1
1
1
1
1
1
1
1
1
1
1
1
1
1
1
1
1
1
0.999998
0.999988
0.99996
0.999891
0.999683
0.998906
0.995916
0.983559
0.93243
0.773289
0.500583
0.262434
0.127057
0.0637316
0.0311064
0.0141988
0.00605583
0.00241541
0.000929644
0.000404418
0.000282315
0.000421374
0.0012423
0.00330223
0.00775698
0.0236851
0.000191008
0.451671
1
1
1
1
1
1
1
1
1
1
1
1
1
1
1
1
1
1
1
1
1
1
0.999998
0.999989
0.999962
0.999903
0.999745
0.999231
0.99755
0.991571
0.968757
0.886113
0.678919
0.401969
0.201514
0.0967964
0.0478078
0.0213325
0.00891797
0.0035637
0.0013524
0.000527105
0.000271349
0.00027007
0.000571501
0.00234028
0.00323338
0.014612
0.0109449
0.000189921
0.62301
1
1
1
1
1
1
1
1
1
1
1
1
1
1
1
1
1
1
1
1
1
1
0.999998
0.999989
0.999964
0.999912
0.999786
0.999418
0.998385
0.995226
0.984485
0.946377
0.827337
0.588283
0.329744
0.16549
0.0805562
0.0361845
0.0142817
0.00550079
0.00204773
0.000749647
0.000314581
0.000213269
0.00031674
0.000949035
0.00471303
0.00331457
0.0472137
0.00303289
0.00022191
0.818003
1
1
1
1
1
1
1
1
1
1
1
1
1
1
1
1
1
1
1
1
1
1
0.999998
0.999989
0.999965
0.999918
0.999814
0.999536
0.998846
0.997036
0.991618
0.973786
0.915754
0.763449
0.517796
0.290759
0.151055
0.0697114
0.0260382
0.00941156
0.00331359
0.00114953
0.000420453
0.000208912
0.000207148
0.000459515
0.0019872
0.0067098
0.00240118
0.834501
0.000854571
0.00031259
0.957522
1
1
1
1
1
1
1
1
1
1
1
1
1
1
1
1
1
1
1
1
1
1
0.999998
0.99999
0.999967
0.999924
0.999835
0.999614
0.999125
0.998001
0.995082
0.986397
0.958864
0.879269
0.70824
0.478526
0.282763
0.143714
0.0552962
0.0184775
0.00605889
0.00193826
0.000636164
0.000248382
0.000165748
0.000256242
0.000846717
0.00464302
0.00652522
0.00168367
1
0.000184622
0.000531217
0.998582
1
1
1
1
1
1
1
1
1
1
1
1
1
1
1
1
1
1
1
1
1
1
0.999998
0.99999
0.999969
0.999928
0.999852
0.999669
0.999303
0.998562
0.996869
0.992418
0.979262
0.94026
0.841985
0.666
0.451669
0.273102
0.11927
0.0421016
0.0128254
0.00376921
0.00109979
0.000354282
0.000164973
0.000168013
0.000410916
0.00192164
0.00974245
0.00722135
0.00188792
0.754882
8.43531e-05
0.00113543
1
1
1
1
1
1
1
1
1
1
1
1
1
1
1
1
1
1
1
1
1
1
1
0.999998
0.999991
0.999971
0.999933
0.999863
0.99971
0.999426
0.998906
0.99787
0.99544
0.988954
0.970393
0.918804
0.800378
0.601906
0.389216
0.224403
0.0951654
0.0307321
0.008553
0.00224759
0.000608243
0.000207758
0.000134372
0.000227192
0.000848338
0.0047941
0.0141076
0.00283606
0.00265942
0.0548074
4.6299e-05
0.00330252
1
1
1
1
1
1
1
1
1
1
1
1
1
1
1
1
1
1
1
1
1
1
1
0.999999
0.999992
0.999972
0.999937
0.999876
0.999738
0.999506
0.999138
0.998458
0.997072
0.993714
0.984711
0.959605
0.888092
0.737841
0.52111
0.31761
0.173884
0.0737257
0.0214023
0.00540504
0.001279
0.000335344
0.000138587
0.00014623
0.000412974
0.00211335
0.0106603
0.0443345
0.00144178
0.00468307
0.0085281
3.45061e-05
0.0104128
1
1
1
1
1
1
1
1
1
1
1
1
1
1
1
1
1
1
1
1
1
1
1
0.999999
0.999992
0.999974
0.999941
0.999887
0.999767
0.999564
0.999271
0.998843
0.997995
0.996196
0.9917
0.979241
0.941518
0.842292
0.65928
0.436207
0.252313
0.134447
0.0538602
0.0141244
0.00320719
0.000698381
0.000193832
0.000117284
0.000223144
0.000969628
0.00531253
0.0243596
0.0169208
0.000939342
0.0158863
0.0015551
3.53377e-05
0.0260382
1
1
1
1
1
1
1
1
1
1
1
1
1
1
1
1
1
1
1
1
1
1
1
0.999999
0.999993
0.999976
0.999945
0.999896
0.99979
0.999618
0.999378
0.999044
0.998568
0.997546
0.995252
0.989076
0.970038
0.913904
0.780655
0.570462
0.354839
0.198563
0.107159
0.0365857
0.00870727
0.00178366
0.000374589
0.000129259
0.000140125
0.000470742
0.00256509
0.0130521
0.264826
0.00598789
0.000665086
0.615107
0.000251825
5.0985e-05
0.0625997
1
1
1
1
1
1
1
1
1
1
1
1
1
1
1
1
1
1
1
1
1
1
1
0.999999
0.999994
0.999977
0.999948
0.999904
0.999809
0.99966
0.999466
0.999215
0.998858
0.998322
0.997116
0.99404
0.984725
0.95544
0.873862
0.703608
0.476795
0.280696
0.15603
0.0848796
0.0232572
0.00497727
0.000935668
0.000209873
0.000114313
0.000247482
0.00123827
0.00662912
0.0475073
0.122687
0.00244313
0.000608141
0.996799
4.75951e-05
9.93164e-05
0.160361
1
1
1
1
1
1
1
1
1
1
1
1
1
1
1
1
1
1
1
1
1
1
1
0.999999
0.999994
0.999979
0.999952
0.999912
0.999825
0.999694
0.999532
0.999343
0.999101
0.998733
0.998104
0.996554
0.992024
0.97771
0.932743
0.816832
0.613213
0.387069
0.218882
0.123046
0.0567364
0.0136998
0.00263142
0.000477706
0.000138275
0.000153135
0.000605602
0.0033998
0.0217658
0.580398
0.0411283
0.000984403
0.000988691
0.0724918
1.94082e-05
0.000253546
0.46346
1
1
1
1
1
1
1
1
1
1
1
1
1
1
1
1
1
1
1
1
1
1
1
0.999999
0.999995
0.999981
0.999955
0.999919
0.999841
0.999722
0.999584
0.999436
0.999269
0.999046
0.998668
0.99785
0.995602
0.988695
0.966225
0.898032
0.741574
0.516332
0.308682
0.172616
0.0981409
0.0343843
0.00740083
0.00130111
0.000255577
0.000128499
0.000317229
0.00171897
0.0104995
0.130967
0.336145
0.0132927
0.000514433
0.00196384
0.00801082
1.21735e-05
0.000861056
0.959814
1
1
1
1
1
1
1
1
1
1
1
1
1
1
1
1
1
1
1
1
1
1
1
0.999999
0.999995
0.999982
0.999958
0.999924
0.999855
0.999747
0.999626
0.999506
0.999389
0.999253
0.999043
0.9986
0.997452
0.994107
0.983242
0.947384
0.846752
0.651542
0.422066
0.243673
0.138286
0.0744529
0.0192234
0.00365907
0.000625342
0.000166983
0.000196002
0.000874529
0.00523195
0.049906
0.563104
0.143251
0.00380674
0.000351606
0.0101039
0.000480731
1.17592e-05
0.00414759
1
1
1
1
1
1
1
1
1
1
1
1
1
1
1
1
1
1
1
1
1
1
1
1
0.999999
0.999995
0.999983
0.999961
0.999929
0.999867
0.99977
0.999662
0.999562
0.999477
0.999394
0.999282
0.999046
0.998452
0.99682
0.991673
0.974073
0.916882
0.775221
0.551831
0.336503
0.192013
0.111552
0.0444871
0.00981499
0.00168749
0.000321782
0.000167002
0.000470367
0.00268153
0.0218753
0.823366
0.561299
0.0593851
0.00129238
0.000261287
0.988262
5.39315e-05
1.78622e-05
0.0166795
1
1
1
1
1
1
1
1
1
1
1
1
1
1
1
1
1
1
1
1
1
1
1
1
0.999999
0.999996
0.999984
0.999963
0.999933
0.999877
0.999791
0.999695
0.999609
0.999545
0.999495
0.999439
0.999319
0.999008
0.998192
0.995748
0.987399
0.958009
0.868982
0.684064
0.450733
0.263885
0.15276
0.085686
0.0236658
0.00452875
0.00076682
0.000215428
0.000295228
0.00142526
0.00995851
0.179269
0.879045
0.392292
0.019538
0.000486546
0.000331087
0.209403
1.18345e-05
4.32009e-05
0.0696455
1
1
1
1
1
1
1
1
1
1
1
1
1
1
1
1
1
1
1
1
1
1
1
1
0.999999
0.999996
0.999985
0.999965
0.999938
0.999887
0.999808
0.999723
0.99965
0.999601
0.999572
0.999549
0.999493
0.999332
0.998916
0.99773
0.993823
0.979551
0.930145
0.798647
0.578822
0.357059
0.20637
0.122811
0.050567
0.0113926
0.0019552
0.000391413
0.000243611
0.000809342
0.00501075
0.0631834
0.872095
0.667982
0.226369
0.00638161
0.000225374
0.000675861
0.00890659
5.68888e-06
0.000156135
0.329297
1
1
1
1
1
1
1
1
1
1
1
1
1
1
1
1
1
1
1
1
1
1
1
1
1
0.999996
0.999986
0.999967
0.999941
0.999896
0.999824
0.999747
0.999686
0.999647
0.999632
0.999628
0.999609
0.99953
0.999316
0.998729
0.996876
0.990169
0.96489
0.883789
0.704565
0.469649
0.277464
0.163313
0.0929854
0.0257684
0.00493002
0.00086022
0.000286818
0.000510018
0.00275772
0.0259552
0.654306
0.748976
0.436278
0.0968128
0.00176921
0.000155666
0.00298909
0.000330817
4.78579e-06
0.000834383
0.969371
1
1
1
1
1
1
1
1
1
1
1
1
1
1
1
1
1
1
1
1
1
1
1
1
1
0.999997
0.999987
0.999969
0.999944
0.999903
0.999839
0.999769
0.999715
0.999686
0.999681
0.999689
0.999691
0.999657
0.999548
0.999251
0.998361
0.995219
0.983014
0.937915
0.812109
0.592459
0.367838
0.215138
0.129189
0.0523022
0.0116954
0.0020358
0.000461879
0.000395696
0.00160803
0.0125701
0.289261
0.91005
0.464834
0.23033
0.03002
0.000584389
0.00012503
0.641607
2.31973e-05
7.41785e-06
0.0058381
1
1
1
1
1
1
1
1
1
1
1
1
1
1
1
1
1
1
1
1
1
1
1
1
1
1
0.999997
0.999988
0.999971
0.999947
0.99991
0.999852
0.999789
0.999741
0.999718
0.99972
0.999737
0.99975
0.999741
0.999689
0.999539
0.999098
0.997624
0.991871
0.968819
0.890461
0.712583
0.474713
0.282124
0.168772
0.0921533
0.0253773
0.00486003
0.000910568
0.000405296
0.00101749
0.00668664
0.10857
0.983867
0.740348
0.295882
0.118248
0.0079519
0.000205072
0.000189713
0.0624309
5.06821e-06
2.04394e-05
0.036971
1
1
1
1
1
1
1
1
1
1
1
1
1
1
1
1
1
1
1
1
1
1
1
1
1
1
0.999997
0.999989
0.999972
0.99995
0.999916
0.999862
0.999806
0.999765
0.999747
0.999753
0.999774
0.999795
0.9998
0.999778
0.999703
0.999483
0.998772
0.996097
0.984868
0.941131
0.814213
0.591891
0.365937
0.21665
0.13036
0.0496581
0.0110706
0.00201029
0.000556861
0.000732777
0.00389372
0.0446581
0.846677
0.972795
0.565565
0.197434
0.0541934
0.00194632
0.000103704
0.000504493
0.00197587
2.49217e-06
9.71355e-05
0.274124
1
1
1
1
1
1
1
1
1
1
1
1
1
1
1
1
1
1
1
1
1
1
1
1
1
1
0.999997
0.999989
0.999973
0.999953
0.999922
0.999872
0.99982
0.999785
0.999772
0.999781
0.999804
0.999829
0.999842
0.999837
0.999801
0.999691
0.999343
0.998081
0.992801
0.970137
0.890228
0.706286
0.466659
0.277505
0.169132
0.0861911
0.02318
0.00453062
0.000991944
0.000649198
0.00243001
0.0223447
0.37926
0.936899
0.904533
0.419536
0.140533
0.020917
0.000522832
7.34758e-05
0.00505557
5.83828e-05
2.69865e-06
0.00076755
0.989692
1
1
1
1
1
1
1
1
1
1
1
1
1
1
1
1
1
1
1
1
1
1
1
1
1
1
0.999997
0.99999
0.999975
0.999955
0.999927
0.99988
0.999833
0.999801
0.999793
0.999805
0.99983
0.999856
0.999873
0.999878
0.999863
0.999807
0.999634
0.999032
0.99656
0.98546
0.939847
0.806313
0.577369
0.355384
0.212311
0.127865
0.0444988
0.00981406
0.00198057
0.000765712
0.00165679
0.012107
0.175866
0.566777
0.838202
0.756028
0.315902
0.0873594
0.00607131
0.000159589
7.9176e-05
0.0313595
4.70239e-06
5.85913e-06
0.00791219
1
1
1
1
1
1
1
1
1
1
1
1
1
1
1
1
1
1
1
1
1
1
1
1
1
1
1
0.999998
0.99999
0.999976
0.999957
0.999931
0.999889
0.999844
0.999816
0.999811
0.999825
0.999851
0.999878
0.999897
0.999906
0.999903
0.999875
0.999788
0.999496
0.998336
0.993046
0.96905
0.882497
0.688696
0.448093
0.268533
0.165173
0.0769861
0.0200789
0.00407767
0.00115886
0.001264
0.00770595
0.109379
0.362676
0.466112
0.682172
0.545429
0.223722
0.0431161
0.00142107
6.31268e-05
0.00015754
0.00124468
1.6014e-06
2.61388e-05
0.0798666
1
1
1
1
1
1
1
1
1
1
1
1
1
1
1
1
1
1
1
1
1
1
1
1
1
1
1
0.999998
0.999991
0.999977
0.999959
0.999935
0.999896
0.999856
0.999829
0.999825
0.999842
0.999869
0.999896
0.999915
0.999927
0.999929
0.999917
0.999873
0.999728
0.999178
0.996692
0.984651
0.933969
0.788034
0.552596
0.337784
0.206563
0.120877
0.0379082
0.00841246
0.00200459
0.00122968
0.0047681
0.0601404
0.422341
0.293127
0.382266
0.474542
0.334756
0.149746
0.016804
0.000345882
3.61895e-05
0.000637472
8.76768e-05
1.36007e-06
0.000217576
0.797724
1
1
1
1
1
1
1
1
1
1
1
1
1
1
1
1
1
1
1
1
1
1
1
1
1
1
1
0.999998
0.999991
0.999978
0.999961
0.999939
0.999903
0.999865
0.999842
0.999839
0.999855
0.999882
0.99991
0.99993
0.999942
0.999947
0.999943
0.999921
0.999848
0.999584
0.998421
0.992602
0.964928
0.866957
0.659942
0.422548
0.254808
0.158126
0.0658029
0.0166534
0.00372205
0.00152801
0.00308214
0.0378725
0.825912
0.299737
0.234159
0.293572
0.281016
0.180559
0.0912484
0.00530916
0.000106961
3.94554e-05
0.18783
4.10498e-06
2.81314e-06
0.00337182
1
1
1
1
1
1
1
1
1
1
1
1
1
1
1
1
1
1
1
1
1
1
1
1
1
1
1
1
0.999998
0.999991
0.999979
0.999963
0.999943
0.999909
0.999874
0.999853
0.999853
0.999868
0.999894
0.999921
0.999941
0.999954
0.99996
0.99996
0.99995
0.999913
0.999784
0.999237
0.996491
0.982289
0.92221
0.759815
0.519122
0.316506
0.196489
0.10401
0.0309135
0.00708757
0.00220887
0.00240896
0.0185048
0.677783
0.675693
0.21896
0.188747
0.21329
0.150164
0.0903628
0.0407228
0.00131031
4.81508e-05
9.05888e-05
0.000585135
1.02985e-06
1.34149e-05
0.05004
1
1
1
1
1
1
1
1
1
1
1
1
1
1
1
1
1
1
1
1
1
1
1
1
1
1
1
1
0.999998
0.999991
0.999979
0.999964
0.999946
0.999913
0.999881
0.999863
0.999863
0.99988
0.999905
0.99993
0.99995
0.999963
0.99997
0.999972
0.999967
0.999949
0.999885
0.999625
0.998343
0.991375
0.957438
0.842347
0.621734
0.391528
0.239926
0.147201
0.0536243
0.0133894
0.00352449
0.00234341
0.0101575
0.239137
1
0.341907
0.15974
0.160647
0.156261
0.0888064
0.0441302
0.0108564
0.000269587
2.75301e-05
0.000984674
2.40327e-05
8.31859e-07
0.00014046
0.768532
1
1
1
1
1
1
1
1
1
1
1
1
1
1
1
1
1
1
1
1
1
1
1
1
1
1
1
1
0.999998
0.999992
0.999979
0.999964
0.999948
0.999919
0.999887
0.999871
0.999873
0.99989
0.999914
0.999938
0.999957
0.999969
0.999977
0.99998
0.999978
0.999969
0.999937
0.999812
0.999215
0.995893
0.97795
0.903959
0.720728
0.47918
0.293009
0.183945
0.0858696
0.024409
0.00602637
0.00272286
0.00620773
0.0961614
0.998738
1
0.189035
0.129256
0.150801
0.1338
0.0660191
0.0224143
0.00201837
6.16298e-05
2.63095e-05
0.115288
2.02059e-06
1.99176e-06
0.0031267
1
1
1
1
1
1
1
1
1
1
1
1
1
1
1
1
1
1
1
1
1
1
1
1
1
1
1
1
1
0.999998
0.999992
0.99998
0.999965
0.99995
0.999923
0.999894
0.999878
0.999881
0.999898
0.999922
0.999946
0.999963
0.999974
0.999982
0.999985
0.999985
0.999981
0.999965
0.999904
0.999625
0.998071
0.989037
0.94535
0.808123
0.574751
0.357808
0.223876
0.12783
0.0419399
0.0106599
0.00360416
0.00441446
0.0495343
0.489683
1
0.999577
0.105566
0.107225
0.152587
0.140307
0.0616171
0.0113617
0.000417761
2.13261e-05
5.81391e-05
0.000578686
5.62612e-07
1.25258e-05
0.0717176
1
1
1
1
1
1
1
1
1
1
1
1
1
1
1
1
1
1
1
1
1
1
1
1
1
1
1
1
1
0.999998
0.999992
0.99998
0.999965
0.999951
0.999925
0.9999
0.999886
0.999888
0.999905
0.999929
0.999951
0.999968
0.999978
0.999985
0.999989
0.99999
0.999988
0.99998
0.99995
0.999819
0.999097
0.99472
0.970683
0.877342
0.672419
0.434738
0.268452
0.168714
0.0681377
0.0187082
0.00534316
0.00390188
0.0234089
0.355014
0.509837
1
0.567268
0.0664852
0.0838572
0.141988
0.143048
0.060404
0.00526496
9.95475e-05
1.4176e-05
0.000571882
6.91142e-06
6.19559e-07
0.000204561
0.978269
1
1
1
1
1
1
1
1
1
1
1
1
1
1
1
1
1
1
1
1
1
1
1
1
1
1
1
1
1
0.999998
0.999992
0.999981
0.999966
0.999952
0.999927
0.999904
0.999892
0.999896
0.999912
0.999934
0.999956
0.999972
0.999982
0.999988
0.999991
0.999993
0.999992
0.999988
0.999973
0.999911
0.99958
0.997507
0.984996
0.926722
0.763151
0.522313
0.323674
0.205531
0.103119
0.0319033
0.00854246
0.00414226
0.0112984
0.335764
0.387888
0.792312
1
0.126665
0.0403713
0.0557936
0.0895603
0.0932314
0.0383177
0.00141973
3.23426e-05
1.98407e-05
0.00674954
7.73155e-07
2.129e-06
0.00686377
1
1
1
1
1
1
1
1
1
1
1
1
1
1
1
1
1
1
1
1
1
1
1
1
1
1
1
1
1
1
0.999998
0.999992
0.999981
0.999967
0.999954
0.999929
0.999906
0.999896
0.999902
0.999918
0.999939
0.99996
0.999975
0.999985
0.99999
0.999993
0.999995
0.999995
0.999993
0.999985
0.999956
0.999803
0.998846
0.992609
0.958821
0.839987
0.615164
0.389775
0.245761
0.146986
0.0517898
0.0142529
0.00510814
0.00696467
0.1383
0.618721
0.26614
0.961541
1
0.0458369
0.0263465
0.0338805
0.0405531
0.0346424
0.0103618
0.000252235
1.36817e-05
0.000101062
4.89751e-05
3.49798e-07
2.2807e-05
0.252361
1
1
1
1
1
1
1
1
1
1
1
1
1
1
1
1
1
1
1
1
1
1
1
1
1
1
1
1
1
1
0.999998
0.999992
0.999981
0.999968
0.999955
0.999932
0.999909
0.9999
0.999906
0.999924
0.999944
0.999964
0.999978
0.999987
0.999992
0.999995
0.999996
0.999996
0.999996
0.999992
0.999978
0.999906
0.999468
0.996482
0.978059
0.898899
0.707112
0.466842
0.290843
0.185465
0.0799424
0.0236313
0.00720569
0.00564945
0.0418667
0.809751
0.303727
0.216202
0.999999
0.908251
0.023133
0.0198583
0.0228101
0.0198625
0.012192
0.00177382
4.39076e-05
1.03516e-05
0.00704358
1.4392e-06
6.61902e-07
0.000739863
1
1
1
1
1
1
1
1
1
1
1
1
1
1
1
1
1
1
1
1
1
1
1
1
1
1
1
1
1
1
1
0.999998
0.999992
0.999981
0.999968
0.999957
0.999935
0.999913
0.999903
0.999909
0.999928
0.999949
0.999967
0.99998
0.999988
0.999993
0.999996
0.999997
0.999998
0.999997
0.999995
0.999988
0.999955
0.999755
0.998357
0.988876
0.939986
0.790131
0.552472
0.346721
0.222046
0.116019
0.0381265
0.010952
0.00563601
0.0170482
0.772234
0.745579
0.200626
0.207012
1
0.278863
0.0167446
0.0192863
0.0203881
0.0143363
0.00545979
0.000312526
1.24014e-05
1.89221e-05
0.000699298
2.77477e-07
4.42428e-06
0.0371361
1
1
1
1
1
1
1
1
1
1
1
1
1
1
1
1
1
1
1
1
1
1
1
1
1
1
1
1
1
1
1
0.999998
0.999992
0.999981
0.999967
0.999957
0.999938
0.999917
0.999907
0.999913
0.999931
0.999952
0.99997
0.999982
0.99999
0.999994
0.999997
0.999998
0.999998
0.999998
0.999997
0.999994
0.999978
0.999888
0.999244
0.994556
0.966513
0.858813
0.64116
0.412261
0.262437
0.160356
0.0591521
0.0173279
0.00659097
0.00984455
0.27953
0.963736
0.33101
0.106803
0.292741
1
0.0768173
0.0159353
0.0231689
0.0239569
0.0148273
0.00254439
6.02239e-05
7.46156e-06
0.000266036
3.79255e-06
3.05316e-07
0.000107698
0.987339
1
1
1
1
1
1
1
1
1
1
1
1
1
1
1
1
1
1
1
1
1
1
1
1
1
1
1
1
1
1
1
0.999998
0.999992
0.99998
0.999967
0.999956
0.999939
0.999921
0.999912
0.999916
0.999933
0.999954
0.999972
0.999984
0.999991
0.999995
0.999997
0.999998
0.999999
0.999999
0.999998
0.999997
0.999989
0.999948
0.999657
0.997409
0.982197
0.911163
0.727262
0.486995
0.30693
0.197815
0.0879508
0.0273859
0.00885368
0.0074523
0.0621333
0.999979
0.851904
0.239702
0.0931612
0.616836
1
0.0239568
0.0155507
0.0255115
0.0259148
0.0126388
0.000640917
1.62411e-05
8.01494e-06
0.00782913
3.99289e-07
1.30482e-06
0.007287
1
1
1
1
1
1
1
1
1
1
1
1
1
1
1
1
1
1
1
1
1
1
1
1
1
1
1
1
1
1
1
1
0.999998
0.999992
0.99998
0.999966
0.999956
0.99994
0.999924
0.999917
0.999921
0.999936
0.999956
0.999974
0.999986
0.999992
0.999996
0.999998
0.999999
0.999999
0.999999
0.999999
0.999998
0.999995
0.999976
0.999845
0.998796
0.990925
0.947218
0.804823
0.569301
0.360784
0.233476
0.123973
0.0423528
0.0128714
0.00703038
0.0232975
0.993495
0.997751
0.570364
0.118829
0.0910633
0.988337
0.507521
0.0103269
0.0125304
0.0179373
0.0158303
0.00430294
0.000101633
5.76237e-06
4.36571e-05
2.33809e-05
1.7769e-07
2.3119e-05
0.567188
1
1
1
1
1
1
1
1
1
1
1
1
1
1
1
1
1
1
1
1
1
1
1
1
1
1
1
1
1
1
1
1
0.999998
0.999992
0.99998
0.999966
0.999955
0.999939
0.999924
0.999919
0.999926
0.999941
0.999959
0.999975
0.999987
0.999993
0.999997
0.999998
0.999999
0.999999
0.999999
0.999999
0.999999
0.999997
0.999989
0.99993
0.999452
0.995545
0.970264
0.868248
0.654163
0.424419
0.272518
0.167435
0.0634389
0.0194877
0.00786309
0.0127325
0.468835
0.999908
0.759168
0.280428
0.0714491
0.124241
1
0.0630318
0.00597022
0.00846054
0.00955096
0.00656198
0.000741478
1.87323e-05
5.06655e-06
0.00503125
3.89498e-07
5.56286e-07
0.00179566
1
1
1
1
1
1
1
1
1
1
1
1
1
1
1
1
1
1
1
1
1
1
1
1
1
1
1
1
1
1
1
1
1
0.999998
0.999992
0.99998
0.999967
0.999955
0.999939
0.999924
0.999921
0.999929
0.999945
0.999962
0.999977
0.999987
0.999994
0.999997
0.999999
0.999999
1
1
1
0.999999
0.999999
0.999995
0.999968
0.999755
0.997887
0.984057
0.916066
0.73562
0.496128
0.315625
0.204774
0.0916512
0.0295927
0.0101261
0.00914714
0.0827784
1
0.982684
0.459475
0.12027
0.0449377
0.234526
1
0.0119071
0.00432599
0.0062793
0.00619002
0.00269505
0.000130284
5.58599e-06
2.553e-05
2.37281e-05
1.53581e-07
7.33275e-06
0.202471
1
1
1
1
1
1
1
1
1
1
1
1
1
1
1
1
1
1
1
1
1
1
1
1
1
1
1
1
1
1
1
1
1
0.999998
0.999991
0.99998
0.999967
0.999956
0.999939
0.999924
0.999921
0.999931
0.999948
0.999965
0.999979
0.999988
0.999994
0.999997
0.999999
0.999999
1
1
1
1
0.999999
0.999997
0.999986
0.999891
0.999025
0.991834
0.949449
0.808337
0.574205
0.366796
0.239086
0.126495
0.044216
0.0141091
0.00829061
0.0299397
0.999948
0.996977
0.617768
0.178709
0.0511137
0.0329857
0.797756
0.699707
0.00425811
0.004163
0.00610094
0.00564388
0.00100502
2.22634e-05
3.8106e-06
0.00252517
5.74504e-07
2.75053e-07
0.000553868
1
1
1
1
1
1
1
1
1
1
1
1
1
1
1
1
1
1
1
1
1
1
1
1
1
1
1
1
1
1
1
1
1
1
0.999998
0.999991
0.999979
0.999966
0.999957
0.99994
0.999925
0.999921
0.999932
0.999949
0.999967
0.999981
0.99999
0.999995
0.999998
0.999999
0.999999
1
1
1
1
1
0.999999
0.999993
0.999951
0.999557
0.995981
0.971183
0.868491
0.654112
0.427095
0.276907
0.16806
0.0643862
0.02052
0.00888043
0.0159262
0.712541
1
0.886934
0.383042
0.0913464
0.0249063
0.0448227
0.999958
0.0514857
0.00306189
0.00447724
0.00643575
0.00410816
0.000182776
5.29414e-06
8.26354e-06
0.000251719
1.12907e-07
3.22962e-06
0.08354
1
1
1
1
1
1
1
1
1
1
1
1
1
1
1
1
1
1
1
1
1
1
1
1
1
1
1
1
1
1
1
1
1
1
0.999997
0.99999
0.999978
0.999965
0.999956
0.999942
0.999927
0.999922
0.999932
0.99995
0.999968
0.999982
0.999991
0.999995
0.999998
0.999999
1
1
1
1
1
1
0.999999
0.999997
0.999978
0.9998
0.998079
0.98441
0.914856
0.731337
0.493442
0.318075
0.207122
0.0910477
0.0300895
0.0109263
0.0109534
0.109876
1
0.999975
0.773185
0.229306
0.0463732
0.0169949
0.0779735
1
0.00822334
0.00235012
0.00393801
0.00436784
0.00105507
2.35465e-05
2.85466e-06
0.000230852
5.59856e-07
1.84297e-07
0.000225017
1
1
1
1
1
1
1
1
1
1
1
1
1
1
1
1
1
1
1
1
1
1
1
1
1
1
1
1
1
1
1
1
1
1
1
0.999997
0.99999
0.999977
0.999964
0.999955
0.999943
0.99993
0.999925
0.999933
0.99995
0.999969
0.999983
0.999991
0.999996
0.999998
0.999999
1
1
1
1
1
1
1
0.999999
0.99999
0.999911
0.999096
0.991881
0.947956
0.801816
0.566359
0.363773
0.239885
0.123963
0.0437367
0.0145818
0.00945716
0.039071
0.999978
1
0.968903
0.527901
0.153097
0.0273786
0.0164602
0.286619
0.896055
0.00222486
0.00197248
0.00272098
0.00176595
0.000144937
4.8491e-06
4.95689e-06
5.10237e-05
1.08041e-07
1.7896e-06
0.0485656
1
1
1
1
1
1
1
1
1
1
1
1
1
1
1
1
1
1
1
1
1
1
1
1
1
1
1
1
1
1
1
1
1
1
1
0.999997
0.99999
0.999976
0.999962
0.999953
0.999942
0.999931
0.999928
0.999935
0.999951
0.999969
0.999984
0.999992
0.999996
0.999998
0.999999
1
1
1
1
1
1
1
0.999999
0.999996
0.999961
0.999584
0.995884
0.969645
0.861627
0.642696
0.419185
0.27478
0.162535
0.062286
0.0204377
0.00962963
0.0198398
0.740271
1
0.999358
0.801869
0.384517
0.0858361
0.0168228
0.024831
0.998669
0.023641
0.0014029
0.00184432
0.00209313
0.000661587
2.18043e-05
2.137e-06
8.32499e-05
5.73089e-07
1.34175e-07
0.00013455
1
1
1
1
1
1
1
1
1
1
1
1
1
1
1
1
1
1
1
1
1
1
1
1
1
1
1
1
1
1
1
1
1
1
1
1
0.999997
0.999989
0.999975
0.99996
0.999951
0.99994
0.999931
0.99993
0.999939
0.999953
0.99997
0.999984
0.999992
0.999997
0.999999
0.999999
1
1
1
1
1
1
1
1
0.999998
0.999983
0.999813
0.997987
0.982953
0.90805
0.717654
0.481643
0.313451
0.203891
0.0863757
0.0290631
0.0112993
0.012996
0.154115
1
0.999953
0.828783
0.446004
0.184134
0.0375493
0.012179
0.0733487
0.999999
0.0044244
0.0012763
0.00224475
0.0022885
0.000189486
4.71607e-06
3.53426e-06
0.000204905
8.21966e-08
1.30279e-06
0.0387092
1
1
1
1
1
1
1
1
1
1
1
1
1
1
1
1
1
1
1
1
1
1
1
1
1
1
1
1
1
1
1
1
1
1
1
1
0.999997
0.999989
0.999974
0.999959
0.999949
0.999938
0.999929
0.99993
0.999941
0.999956
0.999971
0.999984
0.999993
0.999997
0.999999
1
1
1
1
1
1
1
1
1
0.999999
0.999992
0.999917
0.999043
0.990833
0.941567
0.786362
0.549788
0.355511
0.235677
0.116414
0.041064
0.0143988
0.0106863
0.0525889
1
1
0.945535
0.505379
0.223121
0.0749213
0.0147422
0.0113842
0.44972
0.436768
0.00120576
0.00141843
0.00294702
0.0014006
2.76462e-05
2.01985e-06
9.93925e-05
4.35088e-07
1.09329e-07
0.000115688
1
1
1
1
1
1
1
1
1
1
1
1
1
1
1
1
1
1
1
1
1
1
1
1
1
1
1
1
1
1
1
1
1
1
1
1
1
0.999997
0.999989
0.999974
0.999958
0.999948
0.999935
0.999926
0.999929
0.999942
0.999958
0.999973
0.999985
0.999993
0.999997
0.999999
1
1
1
1
1
1
1
1
1
1
0.999997
0.999963
0.999556
0.995257
0.964598
0.845156
0.621215
0.405432
0.268246
0.15164
0.0573037
0.0193427
0.0102574
0.0255613
0.843013
1
0.99936
0.760367
0.282255
0.10633
0.0252828
0.0068879
0.0158416
0.999826
0.00509714
0.000753932
0.00125659
0.00162069
0.000155637
3.98969e-06
2.80444e-06
5.16962e-05
7.52377e-08
1.14973e-06
0.0370884
1
1
1
1
1
1
1
1
1
1
1
1
1
1
1
1
1
1
1
1
1
1
1
1
1
1
1
1
1
1
1
1
1
1
1
1
1
0.999997
0.999988
0.999974
0.999958
0.999947
0.999934
0.999923
0.999926
0.999941
0.999959
0.999975
0.999987
0.999993
0.999997
0.999999
1
1
1
1
1
1
1
1
1
1
0.999998
0.999984
0.999797
0.997629
0.97953
0.892944
0.691571
0.46236
0.304452
0.192372