/*--------------------------------*- C++ -*----------------------------------*\
| =========                 |                                                 |
| \\      /  F ield         | OpenFOAM: The Open Source CFD Toolbox           |
|  \\    /   O peration     | Version:  v2012                                 |
|   \\  /    A nd           | Website:  www.openfoam.com                      |
|    \\/     M anipulation  |                                                 |
\*---------------------------------------------------------------------------*/
FoamFile
{
    version     2.0;
    format      ascii;
    class       volScalarField;
    location    "11500";
    object      q3;
}
// * * * * * * * * * * * * * * * * * * * * * * * * * * * * * * * * * * * * * //

dimensions      [0 0 0 0 0 0 0];


internalField   nonuniform List<scalar> 
53312
(
0.0011926
0.000245177
0.00132388
0.00012865
0.000277391
0.00135138
9.78753e-05
0.000147503
0.000259948
0.00159538
8.00481e-05
0.000113646
0.000135916
0.000268146
0.00203056
6.79437e-05
9.32372e-05
0.000104764
0.000128342
0.000320276
0.00261063
6.00628e-05
7.90198e-05
8.62333e-05
9.81158e-05
0.000129493
0.000418373
0.00331185
5.44137e-05
6.99664e-05
7.33181e-05
8.08776e-05
9.62057e-05
0.000144008
0.000555451
0.00413129
5.01266e-05
6.34729e-05
6.5065e-05
6.90444e-05
7.90957e-05
0.00010146
0.000175583
0.000724906
0.0050776
4.67482e-05
5.8541e-05
5.92008e-05
6.16188e-05
6.79895e-05
8.27013e-05
0.000116823
0.000225236
0.000923025
0.00617289
4.39727e-05
5.46423e-05
5.48047e-05
5.66252e-05
6.16504e-05
7.19975e-05
9.40916e-05
0.000144153
0.000292665
0.00114784
0.00744019
4.16611e-05
5.14738e-05
5.15416e-05
5.33758e-05
5.83879e-05
6.7373e-05
8.33401e-05
0.000114985
0.000184081
0.000377675
0.00139892
0.0089039
3.97804e-05
4.88749e-05
4.92292e-05
5.21614e-05
5.79702e-05
6.73332e-05
8.10735e-05
0.000103501
0.000146082
0.000236894
0.000480636
0.0016769
0.0105949
3.84759e-05
4.68677e-05
4.815e-05
5.3371e-05
6.19977e-05
7.22946e-05
8.56835e-05
0.000103943
0.000133047
0.000187734
0.000303147
0.000602402
0.00198325
0.0125527
3.77754e-05
4.56701e-05
4.90769e-05
5.87523e-05
7.17471e-05
8.50701e-05
9.81484e-05
0.000114217
0.000136374
0.000172315
0.000240462
0.000383775
0.000744018
0.00232121
0.0148243
3.79518e-05
4.5607e-05
5.28998e-05
7.09551e-05
9.02876e-05
0.000107679
0.000122361
0.000135884
0.000153232
0.000178735
0.000221864
0.000305138
0.000480069
0.000906702
0.00269587
0.0174686
3.926e-05
4.72257e-05
6.23751e-05
9.1708e-05
0.000121925
0.000144563
0.000161479
0.00017416
0.000185936
0.000203288
0.00023173
0.000282585
0.000382945
0.000593523
0.00109191
0.00311493
0.0205629
4.16574e-05
5.09793e-05
7.87819e-05
0.00012572
0.000169594
0.000202771
0.000222142
0.000233976
0.000241396
0.000249258
0.00026537
0.000296422
0.000355683
0.000475336
0.000725839
0.00130132
0.00358903
0.0241913
4.45667e-05
5.64641e-05
0.000101676
0.000175013
0.000241295
0.000288082
0.000315493
0.000325017
0.000326969
0.00032566
0.000327281
0.000340836
0.000374178
0.000442642
0.000583992
0.000878963
0.00153677
0.00413353
0.0284234
4.7307e-05
6.22983e-05
0.000127237
0.000237628
0.000341669
0.00041343
0.000451551
0.000463813
0.000456229
0.000442971
0.000429063
0.000421856
0.000431385
0.000466657
0.000545193
0.00071081
0.00105483
0.00180058
0.00476791
0.0333541
4.96291e-05
6.75156e-05
0.000150093
0.000304168
0.000467033
0.000587261
0.000649732
0.000666081
0.000652519
0.000619584
0.00058507
0.00055418
0.000535214
0.00053903
0.000575786
0.000665283
0.000857844
0.00125543
0.0020958
0.00551611
0.0391466
5.14982e-05
7.16424e-05
0.000168984
0.000362006
0.000598886
0.000803232
0.000923404
0.000959481
0.000938918
0.000887292
0.000819587
0.000756919
0.000704051
0.000669952
0.000666094
0.00070375
0.000805073
0.00102721
0.00148278
0.00242653
0.00641648
0.0460089
5.30439e-05
7.49598e-05
0.000182736
0.00040909
0.000712651
0.00102932
0.00126248
0.00136351
0.00135339
0.00127846
0.00117474
0.00106148
0.000962776
0.000882175
0.000829052
0.000815215
0.000852984
0.000966888
0.00122112
0.00173896
0.00279845
0.00751184
0.0542279
5.42453e-05
7.76326e-05
0.00019369
0.000442922
0.000804815
0.00122357
0.00161638
0.00186321
0.00192286
0.00184378
0.00169442
0.00152251
0.00135134
0.00120753
0.00109256
0.0010159
0.000989341
0.00102615
0.0011532
0.00144177
0.00202604
0.00321956
0.0088707
0.0641494
5.52061e-05
7.96805e-05
0.000202235
0.000469744
0.00087068
0.00138035
0.00191943
0.00238347
0.00262612
0.00261897
0.00244483
0.00219795
0.00193939
0.00169613
0.00149674
0.00133974
0.00123429
0.00119172
0.00122613
0.00136657
0.00169129
0.00234705
0.00370128
0.0105843
0.0762379
5.59226e-05
8.13586e-05
0.000208616
0.000490514
0.00092258
0.001492
0.00216278
0.00282747
0.00335653
0.003575
0.00347201
0.00317283
0.00280192
0.00243549
0.00210377
0.00183673
0.00162883
0.00148842
0.00142589
0.00145598
0.00160966
0.00197178
0.0027075
0.004259
0.0127852
0.0909792
5.64755e-05
8.26363e-05
0.000213731
0.000505896
0.000962719
0.00157981
0.00233597
0.00318277
0.00397852
0.00456563
0.00473704
0.00450485
0.00404651
0.00352106
0.00302234
0.00258326
0.00223462
0.00196548
0.00178287
0.00169567
0.00171892
0.00188513
0.00228664
0.00311431
0.00491599
0.0154928
0.108727
5.68542e-05
8.34565e-05
0.000217527
0.000517916
0.00099228
0.00164752
0.00247224
0.00343581
0.00447492
0.00540841
0.00604552
0.00614348
0.0057441
0.00508745
0.00437218
0.00371296
0.00314474
0.00269832
0.00235591
0.00212265
0.00200511
0.00201825
0.00219554
0.00264134
0.00357693
0.00570202
0.0188113
0.129565
5.70658e-05
8.3988e-05
0.000219898
0.000526568
0.00101507
0.00169718
0.00257711
0.00363441
0.00482854
0.00607915
0.00715782
0.00783601
0.00783054
0.00722026
0.00632023
0.00537431
0.00452206
0.00379949
0.00323654
0.00280689
0.00251308
0.00235846
0.00235742
0.00254554
0.00304282
0.00410766
0.00665676
0.0229042
0.153905
5.71598e-05
8.44811e-05
0.000221406
0.000532526
0.00103117
0.00173518
0.00265371
0.00378696
0.00510551
0.00655645
0.00804067
0.00927311
0.00998244
0.00983916
0.00896794
0.00777259
0.00654897
0.00546615
0.00456001
0.00385879
0.00332569
0.00295982
0.0027602
0.00273987
0.00294195
0.0035002
0.00472033
0.00783558
0.0279952
0.180292
5.71996e-05
8.46373e-05
0.000222484
0.000536146
0.0010427
0.00176136
0.00271193
0.00389817
0.00531768
0.00693029
0.00866893
0.0104119
0.0118083
0.0125368
0.0122162
0.0110265
0.00947611
0.00792029
0.0065634
0.00543991
0.00457529
0.00392005
0.00346884
0.003215
0.00317276
0.00339353
0.00402581
0.00542254
0.00932343
0.0343544
0.207784
5.71733e-05
8.47021e-05
0.000222702
0.00053805
0.00104925
0.00178031
0.00275186
0.00398233
0.00547241
0.00721652
0.00916134
0.0112229
0.0132528
0.0148243
0.015558
0.0150143
0.0134399
0.0114658
0.00951479
0.00783372
0.0064539
0.00539698
0.00459813
0.00404642
0.00372895
0.00366542
0.00391193
0.00463691
0.00623882
0.0112347
0.0425306
0.231726
5.70684e-05
8.46459e-05
0.000222796
0.00053838
0.00105209
0.00179116
0.00278013
0.00404028
0.00558897
0.00742556
0.00953804
0.0118579
0.0142825
0.0166304
0.0183901
0.0191119
0.0182921
0.0162571
0.0137804
0.0113616
0.0092986
0.00761756
0.00633539
0.00536857
0.00469927
0.0043128
0.00423013
0.00451314
0.0053573
0.00720089
0.0137269
0.0525313
0.252913
5.69085e-05
8.43235e-05
0.000222585
0.000538326
0.0010527
0.00179577
0.00279619
0.00408083
0.00566886
0.00758229
0.00981303
0.0123444
0.0150882
0.0179205
0.0206217
0.0225824
0.0232704
0.0221142
0.0195316
0.0164621
0.013492
0.0109808
0.00894753
0.00740269
0.00624052
0.00543906
0.00498065
0.00488343
0.00521973
0.00621217
0.00835063
0.0169967
0.0643271
0.273141
5.67266e-05
8.41311e-05
0.000221731
0.00053742
0.00105243
0.00179584
0.002803
0.00410293
0.00572543
0.00768927
0.0100192
0.0126985
0.0157057
0.018929
0.0222182
0.0253117
0.0274847
0.0281131
0.0265511
0.0233218
0.0195563
0.0159397
0.0129048
0.0104614
0.00861164
0.00722576
0.00628262
0.00575104
0.00564821
0.00606337
0.00719814
0.00975096
0.0212845
0.0776499
0.292479
5.65208e-05
8.39342e-05
0.000220991
0.000535405
0.00104986
0.0017947
0.00280247
0.00411184
0.0057562
0.00776501
0.0101597
0.0129644
0.0161555
0.0197016
0.0234666
0.0272667
0.0307922
0.0331874
0.0337251
0.0316773
0.0276898
0.0231115
0.01874
0.0150961
0.0121773
0.00997586
0.00834514
0.00725212
0.00664929
0.00655705
0.00708444
0.00832579
0.0114987
0.0267968
0.0924702
0.311303
5.62763e-05
8.35213e-05
0.000220345
0.000533108
0.00104567
0.0017902
0.00279952
0.00411111
0.00576778
0.00780579
0.0102587
0.0131449
0.0164915
0.0202663
0.0244245
0.0287965
0.0331654
0.0371613
0.0397869
0.0401955
0.0375719
0.0327003
0.027179
0.0219298
0.0175812
0.0141144
0.0115209
0.00962613
0.0083772
0.00771117
0.00765602
0.00831898
0.00961466
0.0137348
0.033761
0.108314
0.329784
5.60215e-05
8.30776e-05
0.000219153
0.000530852
0.00104108
0.0017827
0.00279175
0.00410597
0.00576513
0.00782032
0.0103111
0.013272
0.0167212
0.0206882
0.0251245
0.0299711
0.0350208
0.0400173
0.0445212
0.0473823
0.0476155
0.0443155
0.0384216
0.0318111
0.0255475
0.0203879
0.0163012
0.013282
0.0111052
0.00969935
0.00898778
0.00900571
0.00973901
0.0110884
0.0166511
0.0422616
0.12519
0.347671
5.57775e-05
8.27448e-05
0.000217822
0.000528087
0.00103628
0.00177439
0.00278017
0.00409394
0.00575732
0.00781622
0.0103291
0.0133402
0.0168837
0.0209762
0.0256468
0.0308287
0.0364458
0.0422482
0.0479289
0.0529773
0.0560726
0.0560775
0.0519904
0.0449223
0.0370621
0.0296326
0.0235478
0.0187843
0.0153056
0.0128323
0.0112773
0.0105517
0.0106655
0.0113529
0.0127884
0.0204669
0.0523654
0.144213
0.36484
5.55386e-05
8.24503e-05
0.00021678
0.000524918
0.00103028
0.00176567
0.0027666
0.00407641
0.00574041
0.00780576
0.0103243
0.0133632
0.0169707
0.0211797
0.0260028
0.0314687
0.0374896
0.0439633
0.0505904
0.0570103
0.0626346
0.065956
0.0656722
0.0606792
0.0522721
0.0429883
0.0342277
0.0271246
0.0216239
0.0176545
0.0148772
0.0131955
0.0124973
0.012632
0.0131547
0.0147992
0.0253769
0.0638455
0.164414
0.38138
5.52832e-05
8.19991e-05
0.000215819
0.000521921
0.00102378
0.00175513
0.00275249
0.00405592
0.0057153
0.00778213
0.0103098
0.0133563
0.0169987
0.0212883
0.0262531
0.0319063
0.0382688
0.0452227
0.0526383
0.0601592
0.0673702
0.0735924
0.0771276
0.0764901
0.0704647
0.0605433
0.0496491
0.0394128
0.0311986
0.0249012
0.0204161
0.0173401
0.0155722
0.0149151
0.0148936
0.0151175
0.0172681
0.031504
0.0764318
0.184501
0.399056
5.49899e-05
8.15915e-05
0.000214552
0.000519287
0.00101798
0.00174378
0.00273629
0.00403455
0.00568591
0.00774755
0.0102776
0.013337
0.0169902
0.0213241
0.0263901
0.0322159
0.0388024
0.0461613
0.0541425
0.0625819
0.0710633
0.0791089
0.085946
0.0896811
0.0886211
0.0814312
0.0698142
0.0571431
0.0452964
0.0358776
0.0287269
0.0237136
0.0203638
0.0185548
0.0177957
0.01744
0.0172062
0.0204114
0.0388903
0.0899268
0.203307
0.419345
5.46827e-05
8.11266e-05
0.0002133
0.000516391
0.00101252
0.00173392
0.00271822
0.00401044
0.00565543
0.00770825
0.0102318
0.0132953
0.0169651
0.0213129
0.0264358
0.0323852
0.0391783
0.0468051
0.0552646
0.0643643
0.0739059
0.0834068
0.0923224
0.0997911
0.103707
0.102157
0.0936732
0.0802081
0.0656172
0.052021
0.0413079
0.0332563
0.0277241
0.0241421
0.0222661
0.0211534
0.0202062
0.019413
0.0244856
0.0475238
0.103649
0.220686
0.442947
5.44365e-05
8.07271e-05
0.000211876
0.000513183
0.00100662
0.00172422
0.0027017
0.00398427
0.00562119
0.00766749
0.0101793
0.0132355
0.0169115
0.0212821
0.0264232
0.032442
0.0393866
0.0472599
0.0560355
0.0656951
0.0760017
0.0867161
0.0972861
0.107108
0.115218
0.119299
0.117205
0.107344
0.0919122
0.0752587
0.059779
0.0476903
0.0387102
0.0326965
0.0288939
0.0266593
0.024986
0.0230604
0.0218184
0.029708
0.0573102
0.117282
0.236401
0.468459
5.41981e-05
8.04414e-05
0.000210678
0.000509592
0.00100019
0.00171396
0.00268682
0.00395966
0.0055841
0.00762075
0.0101247
0.0131668
0.0168373
0.0212146
0.0263868
0.0324277
0.0394569
0.0475134
0.0565797
0.0666103
0.0775652
0.0891578
0.101108
0.112797
0.123555
0.132321
0.136572
0.133942
0.122666
0.105159
0.0863107
0.0688279
0.0553085
0.0454021
0.038948
0.0347357
0.0318252
0.0291969
0.0258162
0.0246433
0.036183
0.0680818
0.130368
0.250371
0.500768
5.39471e-05
7.99891e-05
0.000209787
0.000506496
0.000992986
0.00170271
0.0026712
0.00393645
0.00555003
0.00756891
0.0100629
0.013096
0.0167501
0.0211215
0.0263061
0.0323842
0.0394438
0.0475996
0.0568865
0.0672569
0.0786431
0.0909803
0.103932
0.117178
0.130031
0.141762
0.15122
0.155717
0.152609
0.139899
0.120247
0.099097
0.0795302
0.0645646
0.0537516
0.0467758
0.0416802
0.0377693
0.0335581
0.028314
0.0282349
0.0438647
0.0795332
0.143194
0.264822
0.532836
5.36796e-05
7.95921e-05
0.000208589
0.000504126
0.000986701
0.00169028
0.00265349
0.00391312
0.00551705
0.00752111
0.00999543
0.0130156
0.0166593
0.0210121
0.0261895
0.0322854
0.0393919
0.047587
0.0569924
0.0676255
0.0794069
0.0922386
0.106039
0.120417
0.135017
0.149087
0.161848
0.172104
0.176969
0.173475
0.159369
0.137567
0.114059
0.0923913
0.0760084
0.0642235
0.0561509
0.0498625
0.044355
0.0376667
0.0305454
0.0329426
0.0524986
0.0914496
0.155845
0.276157
0.566509
5.34049e-05
7.91132e-05
0.00020754
0.000501235
0.000982218
0.00167985
0.00263385
0.0038878
0.00548298
0.00747717
0.00993223
0.0129291
0.0165594
0.0208986
0.0260547
0.0321468
0.0392717
0.0475295
0.0569814
0.067757
0.0798481
0.0931309
0.107499
0.122834
0.138709
0.154728
0.170088
0.184002
0.195208
0.200588
0.196861
0.181493
0.157633
0.131802
0.108097
0.0902965
0.0770664
0.0673062
0.0592879
0.0512169
0.0410324
0.0327733
0.0389154
0.0617898
0.103862
0.170217
0.286637
0.603377
5.31447e-05
7.86852e-05
0.000206174
0.000498522
0.000976894
0.00167189
0.00261733
0.00385895
0.00544824
0.00743213
0.00987358
0.0128477
0.0164468
0.0207753
0.025914
0.0319842
0.039105
0.0473898
0.0569154
0.0677515
0.0800046
0.0936511
0.108532
0.124512
0.141461
0.158906
0.176431
0.193224
0.208459
0.220779
0.226873
0.223165
0.206784
0.181134
0.153119
0.127481
0.107955
0.0923205
0.0804123
0.0697349
0.0576583
0.0432552
0.0355197
0.0460188
0.0717201
0.116669
0.184326
0.298024
0.643468
5.29323e-05
7.83004e-05
0.000204848
0.000495424
0.000971016
0.00166272
0.00260457
0.0038333
0.00540768
0.00738343
0.00981559
0.012774
0.0163442
0.0206377
0.02576
0.0318135
0.0389119
0.0471894
0.0567551
0.0676755
0.0800025
0.0938378
0.109137
0.125702
0.143375
0.162024
0.181136
0.200322
0.218726
0.235452
0.249089
0.256172
0.252861
0.235889
0.208921
0.178957
0.151262
0.128763
0.110344
0.0954319
0.0806042
0.0627141
0.0443
0.0393517
0.0540665
0.0817796
0.128862
0.197917
0.312167
0.686792
5.27307e-05
7.7963e-05
0.000203802
0.000492186
0.00096492
0.0016526
0.0025901
0.00381503
0.00537037
0.0073284
0.00974958
0.0126983
0.0162517
0.0205086
0.0255917
0.0316229
0.038709
0.046957
0.0565237
0.0674869
0.0799204
0.0938441
0.109363
0.126408
0.144732
0.164195
0.184643
0.205589
0.226626
0.246825
0.26525
0.280462
0.288895
0.286511
0.269566
0.241888
0.210103
0.179394
0.153278
0.131289
0.111964
0.0907244
0.0653887
0.0446823
0.0446081
0.0625403
0.0924277
0.140522
0.210615
0.329094
0.733228
5.24964e-05
7.76739e-05
0.000202904
0.000489631
0.000958946
0.00164154
0.00257424
0.00379486
0.0053453
0.0072792
0.00967692
0.0126131
0.0161559
0.0203899
0.0254356
0.0314185
0.0384802
0.0467177
0.0562468
0.0672215
0.079705
0.0937576
0.109383
0.126673
0.145546
0.165728
0.187088
0.209512
0.232492
0.255577
0.277783
0.298151
0.315253
0.325489
0.324712
0.308536
0.280608
0.246572
0.212032
0.181809
0.154972
0.128998
0.098349
0.0651558
0.0454305
0.0511324
0.0710352
0.103892
0.151461
0.22333
0.348098
0.782659
5.22365e-05
7.74104e-05
0.00020217
0.000487611
0.000953906
0.00163132
0.00255703
0.00377153
0.0053181
0.00724463
0.00961364
0.0125201
0.0160477
0.0202693
0.0252879
0.0312298
0.0382336
0.0464484
0.0559638
0.0669022
0.0793998
0.0935179
0.10929
0.126706
0.145859
0.166655
0.188817
0.212242
0.236855
0.26207
0.287426
0.311887
0.334497
0.353861
0.366407
0.367949
0.353128
0.32474
0.288122
0.249616
0.214335
0.180651
0.144545
0.10155
0.062397
0.0476304
0.058298
0.0796048
0.114171
0.162661
0.234945
0.36827
0.835193
5.19708e-05
7.70814e-05
0.000201273
0.000485802
0.000949918
0.00162325
0.00254111
0.00374749
0.0052854
0.00720737
0.00956742
0.0124377
0.01593
0.0201384
0.0251408
0.0310541
0.0380063
0.0461547
0.0556501
0.0665718
0.0790357
0.0931698
0.109019
0.126606
0.145906
0.167018
0.189861
0.214173
0.239885
0.266893
0.294573
0.322447
0.349466
0.374658
0.396673
0.41198
0.41634
0.40301
0.373651
0.3352
0.292219
0.25036
0.206569
0.1556
0.0991
0.0585702
0.0516411
0.0656323
0.0887239
0.123736
0.173295
0.246662
0.389925
0.89096
5.17423e-05
7.6673e-05
0.000200067
0.000483512
0.000946293
0.00161642
0.00252843
0.00372412
0.00525177
0.00716324
0.00951776
0.0123773
0.0158276
0.0199925
0.0249803
0.0308731
0.0377931
0.0458833
0.0553048
0.0662063
0.0786537
0.0927538
0.108628
0.126304
0.145798
0.167083
0.190273
0.21534
0.242025
0.270237
0.29987
0.330269
0.360965
0.390879
0.419011
0.444021
0.462367
0.469604
0.457796
0.428209
0.38778
0.339506
0.288491
0.229407
0.158762
0.0913322
0.0557399
0.057002
0.0731282
0.0986207
0.133505
0.184553
0.258686
0.415917
0.950214
5.15866e-05
7.63388e-05
0.000198967
0.000480595
0.000941689
0.00161011
0.00251778
0.00370449
0.00521917
0.00711782
0.00946183
0.0123132
0.0157506
0.0198688
0.024806
0.0306783
0.0375745
0.0456282
0.0549829
0.065802
0.0782351
0.0923164
0.10816
0.125865
0.145467
0.166963
0.190353
0.2158
0.243313
0.27259
0.303528
0.336051
0.369471
0.403331
0.436507
0.467952
0.496262
0.517867
0.527966
0.518769
0.488902
0.445631
0.39045
0.325773
0.244153
0.151827
0.080409
0.0554808
0.0631569
0.0809152
0.106364
0.143418
0.196366
0.274548
0.440865
1.01343
5.14435e-05
7.603e-05
0.000198149
0.000477938
0.000935999
0.00160209
0.00250777
0.00368995
0.00519173
0.00707548
0.00940198
0.0122433
0.0156665
0.019768
0.0246482
0.030466
0.0373411
0.0453681
0.0546805
0.0654257
0.0777728
0.0918415
0.107664
0.125343
0.144982
0.166601
0.190217
0.21589
0.243819
0.273985
0.306093
0.34002
0.375735
0.41252
0.449914
0.486775
0.521989
0.554156
0.579502
0.592763
0.585836
0.555796
0.508069
0.442731
0.356776
0.24521
0.13534
0.0698156
0.0579975
0.0697267
0.0891811
0.11447
0.153547
0.210122
0.290415
0.468134
1.08078
5.12885e-05
7.57642e-05
0.000197614
0.000475991
0.00093085
0.00159245
0.00249604
0.00367517
0.00517267
0.00704015
0.00934668
0.0121667
0.0155772
0.0196636
0.0245247
0.0302694
0.0370842
0.0450887
0.0543786
0.0650723
0.0773379
0.0913165
0.107117
0.124786
0.144393
0.166067
0.189813
0.215734
0.243917
0.27454
0.307582
0.342788
0.380004
0.419254
0.459787
0.501154
0.542256
0.581849
0.618449
0.648019
0.664621
0.658962
0.628146
0.573505
0.49164
0.373471
0.229173
0.113018
0.0629195
0.0624696
0.0768256
0.0956857
0.123174
0.164805
0.224491
0.305908
0.498276
1.15258
5.10954e-05
7.55718e-05
0.000197093
0.000474754
0.000927545
0.00158443
0.00248206
0.00365779
0.00515338
0.00701262
0.009302
0.0120922
0.0154836
0.0195527
0.0243982
0.0301227
0.0368523
0.0447876
0.0540544
0.0647241
0.0769277
0.0908179
0.106521
0.124171
0.143768
0.165409
0.189217
0.215277
0.243733
0.274631
0.30819
0.344355
0.382961
0.423807
0.466978
0.511716
0.557638
0.603598
0.648211
0.689911
0.724135
0.744194
0.738981
0.704711
0.638403
0.528915
0.367118
0.197496
0.0908068
0.0610187
0.0681943
0.0836714
0.102663
0.132676
0.177334
0.238345
0.321899
0.53066
1.22912
5.08586e-05
7.52468e-05
0.000196382
0.000473528
0.00092521
0.00157963
0.00246971
0.00363873
0.00512736
0.00698614
0.00926579
0.0120375
0.0153926
0.0194346
0.024262
0.029973
0.0366736
0.0445156
0.0536988
0.0643488
0.0765231
0.0903454
0.105957
0.123498
0.143083
0.164711
0.188489
0.214607
0.24321
0.274399
0.308256
0.345007
0.384594
0.426925
0.471782
0.519342
0.568864
0.619966
0.671453
0.721763
0.769159
0.808097
0.830298
0.824848
0.782996
0.695724
0.542305
0.333265
0.157238
0.0743093
0.0632111
0.0743255
0.089373
0.110406
0.143376
0.190032
0.251412
0.339088
0.565296
1.31065
5.06242e-05
7.48705e-05
0.000195427
0.000472133
0.000922457
0.00157492
0.00246098
0.00361926
0.00510043
0.0069528
0.00923061
0.011993
0.0153228
0.0193262
0.0241187
0.0298071
0.0364935
0.0443008
0.053376
0.0639332
0.0760896
0.0898825
0.105427
0.122862
0.142328
0.163945
0.187714
0.213796
0.242457
0.273799
0.307959
0.345022
0.385264
0.428604
0.47502
0.524348
0.576858
0.631777
0.688737
0.746495
0.803383
0.857294
0.900814
0.922941
0.914691
0.857641
0.733166
0.519509
0.276105
0.118463
0.0661718
0.0676589
0.0801885
0.0957137
0.118811
0.155201
0.203413
0.264101
0.359873
0.602253
1.39755
5.04071e-05
7.45054e-05
0.000194357
0.000469835
0.000920182
0.00157042
0.00245399
0.00360655
0.00507522
0.0069166
0.0091869
0.0119483
0.0152674
0.0192382
0.0239829
0.0296314
0.0362973
0.0440864
0.0531284
0.0635622
0.0756098
0.0893905
0.104898
0.122267
0.141613
0.163102
0.186861
0.212926
0.241543
0.27295
0.307263
0.344646
0.385194
0.429251
0.476729
0.527687
0.58203
0.640096
0.701118
0.764703
0.829553
0.893899
0.954362
1.00134
1.02191
1.00363
0.918212
0.733501
0.455655
0.209321
0.08939
0.0650774
0.0727546
0.085576
0.102697
0.128506
0.16708
0.216968
0.278456
0.380723
0.641758
1.49024
5.02685e-05
7.41518e-05
0.000193363
0.000467293
0.000916295
0.00156655
0.00244823
0.003598
0.00505755
0.00688246
0.00913871
0.011891
0.0152095
0.0191679
0.023875
0.0294719
0.0360865
0.0438572
0.0528794
0.0632718
0.075178
0.0888397
0.104338
0.121678
0.140943
0.162308
0.185929
0.211971
0.24057
0.271919
0.306305
0.34384
0.384706
0.429062
0.477297
0.529375
0.585421
0.645381
0.709659
0.777444
0.848642
0.921512
0.993631
1.06015
1.1087
1.12411
1.0831
0.947206
0.680944
0.361158
0.149136
0.0732138
0.0677748
0.0778096
0.0915331
0.110318
0.138996
0.179798
0.23271
0.292184
0.403513
0.684009
1.58907
5.01909e-05
7.39782e-05
0.000192651
0.000465251
0.000911484
0.00156003
0.00244226
0.00358982
0.00504579
0.00685874
0.00909471
0.0118301
0.0151409
0.0190967
0.0237895
0.0293404
0.0358954
0.0436135
0.0526112
0.0629744
0.0748392
0.0883363
0.103718
0.121037
0.140288
0.16156
0.185053
0.210942
0.239509
0.27083
0.305144
0.342742
0.383762
0.428427
0.476953
0.52981
0.586983
0.6487
0.714909
0.78616
0.861728
0.941305
1.02288
1.10289
1.17408
1.22045
1.22292
1.1389
0.921958
0.572948
0.260718
0.105615
0.0677463
0.0720063
0.0831361
0.098048
0.118764
0.150362
0.193521
0.247345
0.305803
0.428976
0.729129
1.69442
5.01147e-05
7.38841e-05
0.000192346
0.000463616
0.000907587
0.00155278
0.00243224
0.00358251
0.00503477
0.00684541
0.00906568
0.0117753
0.0150627
0.01901
0.0236996
0.0292351
0.0357406
0.0433785
0.0523221
0.0626578
0.0744935
0.087954
0.103153
0.120338
0.139576
0.160825
0.184217
0.209972
0.238356
0.269644
0.303912
0.341424
0.382505
0.427313
0.476138
0.529262
0.58722
0.650084
0.718096
0.79133
0.870412
0.954572
1.0435
1.13421
1.2215
1.2948
1.33417
1.30255
1.14673
0.824573
0.431879
0.177242
0.0806105
0.0684148
0.0765862
0.0889783
0.105078
0.128004
0.163159
0.207938
0.260733
0.320978
0.45661
0.777286
1.80673
5.0009e-05
7.38747e-05
0.000192229
0.000462756
0.000904554
0.00154625
0.00242115
0.00356814
0.00502437
0.00683079
0.00905108
0.0117387
0.0149948
0.0189174
0.0235934
0.029132
0.0356194
0.043193
0.0520445
0.0623274
0.074128
0.0875643
0.102716
0.119705
0.138793
0.16004
0.183398
0.209049
0.237272
0.268356
0.302579
0.340027
0.381001
0.425866
0.474814
0.52821
0.586408
0.650029
0.719179
0.794228
0.875277
0.963188
1.05695
1.15582
1.2556
1.34835
1.41913
1.43964
1.34403
1.07901
0.659676
0.296876
0.119633
0.0705116
0.0716376
0.0818287
0.0952344
0.112741
0.138661
0.176449
0.222815
0.272441
0.339204
0.486345
0.828658
1.92659
4.98237e-05
7.36828e-05
0.000192223
0.000462338
0.000903033
0.00154133
0.00241116
0.00355061
0.00500448
0.00681462
0.00903284
0.0117173
0.0149484
0.0188358
0.0234846
0.029003
0.0354959
0.0430566
0.0518277
0.0620114
0.0737519
0.0871517
0.102279
0.11921
0.138083
0.159165
0.18253
0.208136
0.236246
0.26714
0.301134
0.338532
0.379412
0.424151
0.473129
0.526617
0.585062
0.64887
0.71876
0.794914
0.877814
0.967674
1.06536
1.16953
1.27866
1.3866
1.48167
1.54282
1.51337
1.31611
0.919775
0.470388
0.193801
0.0867075
0.0691454
0.0760595
0.0875422
0.101964
0.121348
0.150507
0.190587
0.238182
0.285137
0.358342
0.51829
0.883471
2
4.96005e-05
7.32701e-05
0.000191636
0.000462335
0.00090238
0.00153907
0.00240378
0.0035363
0.00498251
0.00679043
0.00901161
0.0116964
0.0149168
0.0187788
0.0233888
0.0288687
0.0353389
0.0429064
0.0516625
0.0617556
0.0733936
0.0867203
0.10182
0.118725
0.137531
0.158378
0.181569
0.207171
0.235224
0.265989
0.299779
0.336921
0.377731
0.422349
0.471166
0.524655
0.583153
0.647157
0.717162
0.793994
0.877948
0.96966
1.06932
1.17775
1.2929
1.41196
1.52586
1.61682
1.64919
1.53039
1.189
0.690848
0.308211
0.126349
0.0727288
0.0717137
0.0812158
0.093643
0.10935
0.131099
0.163417
0.205105
0.253629
0.297094
0.38016
0.55251
0.941938
2
4.93831e-05
7.3011e-05
0.000190546
0.000461271
0.000902516
0.00153894
0.00240061
0.00352587
0.00496458
0.00676331
0.00897996
0.0116729
0.0148954
0.0187411
0.0233173
0.0287527
0.0351781
0.0427213
0.0514868
0.0615637
0.0730967
0.0863082
0.101318
0.118203
0.136987
0.157773
0.180695
0.206114
0.234145
0.264853
0.298497
0.335399
0.37594
0.420446
0.469114
0.522398
0.580845
0.644849
0.714999
0.791868
0.876447
0.969154
1.07066
1.18111
1.30108
1.42731
1.5549
1.67044
1.74694
1.71523
1.45199
0.95592
0.463845
0.194012
0.0889794
0.0698754
0.0760146
0.0868221
0.100266
0.117562
0.141863
0.177545
0.220444
0.266188
0.310626
0.404417
0.589064
1.00432
2
4.91904e-05
7.26744e-05
0.000189856
0.00045906
0.000900578
0.00154012
0.00240081
0.00352331
0.0049505
0.00673957
0.00894459
0.0116328
0.0148703
0.0187141
0.0232768
0.0286724
0.0350381
0.0425287
0.0512755
0.0613646
0.0728813
0.0859774
0.100852
0.117638
0.136398
0.157158
0.180013
0.205138
0.23298
0.26366
0.297236
0.333966
0.374226
0.418424
0.466959
0.52004
0.578236
0.642123
0.7122
0.789143
0.873637
0.966861
1.06928
1.18167
1.30385
1.43584
1.57253
1.70552
1.81537
1.85431
1.70272
1.25338
0.668501
0.290674
0.123576
0.0734364
0.0721168
0.0811208
0.092897
0.10754
0.126537
0.154126
0.192077
0.23648
0.27761
0.326952
0.430743
0.628091
1.07087
2
4.90463e-05
7.23098e-05
0.000188967
0.000457123
0.000896436
0.00153627
0.0024026
0.00352383
0.00494733
0.00672101
0.00891382
0.0115886
0.0148202
0.018682
0.0232461
0.0286293
0.0349476
0.0423605
0.0510551
0.0611252
0.072659
0.0857265
0.100479
0.11712
0.135787
0.156515
0.179342
0.204391
0.231903
0.262372
0.2959
0.332563
0.372614
0.416502
0.464676
0.517597
0.575534
0.639103
0.708991
0.785766
0.87023
0.96323
1.06609
1.17933
1.30362
1.43828
1.58237
1.72742
1.8608
1.95119
1.90703
1.56446
0.934986
0.422853
0.177704
0.0867252
0.0703623
0.0763916
0.0867541
0.0995657
0.115415
0.136619
0.167395
0.207941
0.251453
0.288448
0.345399
0.459125
0.66976
1.14187
2
4.89951e-05
7.21236e-05
0.000188073
0.000455126
0.000892845
0.00152951
0.00239805
0.00352507
0.00494866
0.00671737
0.00889008
0.0115489
0.0147631
0.0186201
0.0232014
0.0285856
0.0348962
0.042252
0.0508589
0.0608694
0.0723802
0.0854716
0.100195
0.116699
0.135214
0.155841
0.178635
0.203652
0.231076
0.261182
0.294465
0.331069
0.371048
0.414696
0.462507
0.515033
0.57274
0.635992
0.70548
0.781983
0.866166
0.959015
1.06148
1.17505
1.30015
1.43733
1.58499
1.74
1.88969
2
2
1.86606
1.29
0.605924
0.254207
0.112491
0.0726138
0.0727154
0.0815351
0.0929581
0.106782
0.124029
0.147786
0.182561
0.223346
0.266051
0.299587
0.36668
0.489549
0.714227
1.21761
2
4.89791e-05
7.21036e-05
0.000187736
0.00045346
0.000889152
0.00152448
0.00238924
0.00352025
0.00495256
0.00672211
0.00888622
0.0115227
0.0147134
0.0185513
0.0231306
0.0285318
0.0348447
0.0421995
0.0507294
0.0606377
0.0720841
0.0851523
0.0999114
0.116386
0.134742
0.155203
0.177886
0.202863
0.230246
0.260254
0.293149
0.329471
0.369387
0.412932
0.460475
0.512588
0.569837
0.632787
0.701887
0.777883
0.861707
0.954134
1.05632
1.16932
1.2947
1.43276
1.58365
1.74371
1.90679
2
2
2
1.67509
0.898101
0.361962
0.152569
0.0811986
0.0706119
0.0770801
0.0872947
0.0996951
0.11458
0.133473
0.160738
0.197683
0.240422
0.277538
0.31367
0.390312
0.522066
0.761663
1.29841
2
4.89498e-05
7.21771e-05
0.000188096
0.000453139
0.000886736
0.00151854
0.00238163
0.00350939
0.00494641
0.00673042
0.0088962
0.0115213
0.0146851
0.0184939
0.0230504
0.0284536
0.0347868
0.0421534
0.050668
0.0604936
0.0718157
0.084821
0.0995491
0.116076
0.134387
0.154672
0.177174
0.20203
0.229368
0.259323
0.292106
0.328013
0.367618
0.411081
0.458495
0.510287
0.567076
0.629492
0.698219
0.773738
0.856924
0.948869
1.05047
1.16301
1.2877
1.42604
1.57807
1.74272
1.9132
2
2
2
1.98544
1.29632
0.545273
0.20972
0.0980806
0.071036
0.0734374
0.0823511
0.0935957
0.106965
0.123034
0.144188
0.174545
0.214135
0.255992
0.287721
0.330262
0.41596
0.556782
0.812267
1.38461
2
4.88777e-05
7.21332e-05
0.000188326
0.000454222
0.000886331
0.00151475
0.00237281
0.00349855
0.00492938
0.00672246
0.00890703
0.0115311
0.01469
0.0184594
0.0229824
0.0283579
0.034693
0.0420862
0.0506128
0.0604223
0.0716603
0.0845241
0.0991734
0.115679
0.134037
0.154274
0.176582
0.201242
0.228439
0.258341
0.291077
0.326855
0.365989
0.409134
0.456432
0.508064
0.564474
0.626359
0.694467
0.769541
0.852114
0.943282
1.04423
1.156
1.28003
1.4176
1.57009
1.73656
1.9139
2
2
2
2
1.72384
0.844132
0.309328
0.125054
0.0752361
0.0708442
0.0780435
0.0882341
0.100416
0.114823
0.132349
0.155972
0.1901
0.230092
0.27056
0.297284
0.350036
0.443551
0.593826
0.866255
1.47658
2
4.87544e-05
7.19314e-05
0.00018828
0.000454619
0.000888045
0.00151343
0.00236733
0.00348614
0.00491453
0.00669762
0.00889662
0.0115417
0.0147025
0.018465
0.0229404
0.0282735
0.0345788
0.0419757
0.0505428
0.0603527
0.0715871
0.0843453
0.0988462
0.115252
0.133601
0.153876
0.176133
0.200591
0.227571
0.257319
0.289994
0.325701
0.364702
0.407313
0.454269
0.505754
0.561968
0.623412
0.690907
0.765248
0.847279
0.937697
1.03772
1.14867
1.27171
1.40851
1.56017
1.72759
1.908
2
2
2
2
2
1.26856
0.485925
0.173225
0.0845187
0.0697447
0.0743681
0.0834903
0.0946394
0.10778
0.123341
0.142532
0.169536
0.206264
0.247127
0.281384
0.309905
0.372487
0.473064
0.633351
0.923851
1.57473
2
4.85627e-05
7.17114e-05
0.000187813
0.000454676
0.000889633
0.00151669
0.00236699
0.00347872
0.00490017
0.00667789
0.0088686
0.0115293