/*--------------------------------*- C++ -*----------------------------------*\
| =========                 |                                                 |
| \\      /  F ield         | OpenFOAM: The Open Source CFD Toolbox           |
|  \\    /   O peration     | Version:  v2012                                 |
|   \\  /    A nd           | Website:  www.openfoam.com                      |
|    \\/     M anipulation  |                                                 |
\*---------------------------------------------------------------------------*/
FoamFile
{
    version     2.0;
    format      ascii;
    class       volScalarField;
    location    "11500";
    object      Res;
}
// * * * * * * * * * * * * * * * * * * * * * * * * * * * * * * * * * * * * * //

dimensions      [0 0 0 0 0 0 0];


internalField   nonuniform List<scalar> 
53312
(
0.0919994
0.05033
0.743792
0.0266446
0.405383
1.96691
0.0203186
0.224378
1.02804
3.78257
0.0166334
0.175659
0.589644
1.86829
5.5581
0.0141345
0.144382
0.46435
1.10304
2.90136
7.36412
0.0125036
0.122249
0.383505
0.872913
1.7541
4.11688
9.33755
0.0113332
0.108394
0.326419
0.723841
1.39382
2.53896
5.51337
11.4956
0.0104443
0.0984241
0.290093
0.619239
1.15946
2.02402
3.45907
7.09563
13.8561
0.00974293
0.0908304
0.263976
0.551446
0.995943
1.68722
2.76439
4.52042
8.87342
16.438
0.0091664
0.0847575
0.243894
0.502346
0.888577
1.45444
2.3082
3.61894
5.73272
10.8678
19.2631
0.00868608
0.0798154
0.227848
0.464656
0.810442
1.30011
1.99532
3.02637
4.59491
7.11421
13.0932
22.3601
0.00829498
0.0756715
0.214695
0.434506
0.750455
1.18722
1.78659
2.62173
3.84596
5.70245
8.6745
15.5854
25.7622
0.00802292
0.0722942
0.203653
0.409716
0.702412
1.10046
1.63331
2.35031
3.33743
4.77446
6.95513
10.4468
18.3684
29.5066
0.00787608
0.0699126
0.19462
0.388844
0.662789
1.03092
1.51537
2.15066
2.99503
4.14868
5.82165
8.36964
12.4538
21.483
33.6305
0.00791004
0.0686416
0.188188
0.371702
0.629363
0.973412
1.42079
1.9971
2.74284
3.72617
5.06352
7.00033
9.96686
14.735
24.9739
38.187
0.00817827
0.0689054
0.184763
0.359414
0.601837
0.924833
1.3424
1.87402
2.54901
3.4154
4.5504
6.092
8.32544
11.7746
17.3225
28.8946
43.2479
0.00867259
0.0711613
0.185326
0.352901
0.581952
0.884717
1.2761
1.77172
2.3938
3.17619
4.17382
5.47757
7.24652
9.81521
13.8168
20.2736
33.3105
48.9011
0.00927315
0.0753387
0.191176
0.353752
0.571489
0.855544
1.22124
1.68511
2.26441
2.98443
3.88403
5.02675
6.51753
8.54215
11.4948
16.1384
23.638
38.2988
55.1915
0.00983938
0.0804046
0.202092
0.36459
0.572611
0.840345
1.18107
1.6133
2.15481
2.8246
3.65134
4.67973
5.9832
7.68308
9.99678
13.3853
18.7855
27.4859
43.941
62.412
0.0103187
0.0851676
0.215307
0.384932
0.589739
0.841722
1.16039
1.5604
2.06379
2.68914
3.4574
4.40127
5.57203
7.05451
8.98938
11.6316
15.5277
21.8082
31.896
50.4283
70.4942
0.0107047
0.0891756
0.227679
0.409496
0.622006
0.866431
1.16204
1.53353
1.99634
2.57654
3.29305
4.16913
5.24212
6.57105
8.254
10.4547
13.4728
17.9577
25.2727
36.957
57.8203
79.963
0.0110237
0.0923967
0.238035
0.432427
0.660918
0.913102
1.19569
1.53552
1.96256
2.49255
3.15627
3.97254
4.96739
6.18351
7.68887
9.59747
12.1002
15.5507
20.7225
29.2582
42.7719
66.4449
91.106
0.0112717
0.0950437
0.246332
0.451523
0.697347
0.969294
1.25953
1.5798
1.96501
2.45116
3.0536
3.8087
4.73465
5.8609
7.23645
8.93989
11.1038
13.9517
17.9013
23.8858
33.857
49.4471
76.6922
104.666
0.0114701
0.0971028
0.253122
0.466798
0.727376
1.02191
1.33602
1.66356
2.02143
2.45446
3.00407
3.68506
4.54076
5.58786
6.86009
8.41394
10.3406
12.7949
16.039
20.5773
27.5085
39.18
57.061
89.1046
120.564
0.0116183
0.0988872
0.258359
0.479238
0.751128
1.06497
1.407
1.76312
2.1278
2.52472
3.00837
3.6264
4.39324
5.36019
6.5418
7.97697
9.73128
11.9109
14.697
18.4021
23.6155
31.6898
45.3492
65.7706
103.13
136.903
0.0117326
0.100314
0.26294
0.488785
0.770589
1.09909
1.46518
1.85529
2.25378
2.65632
3.09403
3.6318
4.32442
5.18586
6.27642
7.6078
9.22567
11.2063
13.6737
16.8414
21.0775
27.1027
36.5269
52.5561
75.5589
117.606
152.199
0.011811
0.101014
0.266636
0.496736
0.785446
1.1269
1.51167
1.93113
2.37025
2.8128
3.25413
3.73468
4.33082
5.10546
6.07156
7.29979
8.79883
10.6225
12.8599
15.6567
19.2656
24.1271
31.1096
42.1648
60.9017
86.667
133.016
165.468
0.0118547
0.101465
0.268195
0.502856
0.797517
1.14807
1.54952
1.99149
2.46599
2.95665
3.44465
3.92684
4.45308
5.11274
5.97792
7.06018
8.44298
10.1301
12.1865
14.7167
17.8926
22.0145
27.6112
35.7395
48.7322
70.6827
99.1641
150.624
175.143
0.0118743
0.102174
0.269413
0.506449
0.806535
1.16506
1.57803
2.04042
2.54205
3.07393
3.61881
4.15458
4.68004
5.25556
5.98503
6.95082
8.16297
9.71906
11.619
13.9401
16.8058
20.4203
25.1419
31.6149
41.1177
56.4576
82.089
113.26
170.665
177.28
0.0118825
0.102286
0.27073
0.509009
0.812595
1.17708
1.60076
2.0773
2.60323
3.16757
3.76015
4.36259
4.94827
5.51962
6.1489
6.95603
8.03404
9.39216
11.1448
13.2863
15.9098
19.1619
23.2868
28.719
36.2281
47.3992
65.5601
95.3891
129.322
194.681
181.616
0.0118772
0.102313
0.270567
0.510569
0.816387
1.18554
1.61678
2.10647
2.64953
3.24281
3.87378
4.53035
5.1924
5.83073
6.45177
7.14072
8.03443
9.2389
10.7626
12.7386
15.1557
18.1264
21.8264
26.5486
32.8174
41.5843
54.7781
76.3191
110.845
147.982
218.549
183.346
0.0118555
0.10221
0.270548
0.510267
0.817986
1.19119
1.62745
2.12748
2.68586
3.30016
3.96462
4.66504
5.38879
6.11235
6.80633
7.48018
8.23524
9.22878
10.5775
12.2906
14.5221
17.2544
20.627
24.8487
30.2786
37.5477
47.8322
63.4913
89.0862
128.837
169.381
235.17
183.619
0.0118225
0.101629
0.270459
0.510056
0.817919
1.19375
1.63473
2.1412
2.71185
3.34462
4.03372
4.7735
5.54616
6.33818
7.12472
7.87613
8.60634
9.43837
10.5487
12.0632
13.995
16.5195
19.6179
23.456
28.2928
34.5545
43.0359
55.165
73.873
104.235
149.461
193.033
241.759
181.128
0.0117851
0.101456
0.269235
0.50956
0.8178
1.19289
1.63836
2.14974
2.7296
3.37621
4.08769
4.85498
5.67256
6.51894
7.37932
8.22917
9.03796
9.83069
10.7537
12.0009
13.7108
15.8971
18.7624
22.2829
26.6672
32.2268
39.4945
49.4289
63.8413
86.2265
122.186
173.053
217.037
240.242
181.807
0.0117426
0.101307
0.268556
0.507738
0.816194
1.1923
1.637
2.15392
2.74077
3.39789
4.1257
4.91895
5.76775
6.66364
7.5836
8.50904
9.41962
10.2859
11.1484
12.1809
13.5955
15.5354
18.0223
21.283
25.299
30.3283
36.7484
45.214
56.9392
74.1447
101.084
143.445
199.21
239.314
233.639
187.288
0.0116921
0.100702
0.26816
0.505858
0.813282
1.19029
1.63529
2.15266
2.74564
3.4113
4.15171
4.9637
5.84149
6.77365
7.74741
8.73469
9.72069
10.6844
11.6084
12.553
13.7194
15.3394
17.5558
20.3998
24.1246
28.7267
34.5185
41.9661
51.8926
65.814
86.5002
118.954
168.378
226.968
257.792
229.395
197.582
0.0116395
0.100106
0.266667
0.504159
0.810523
1.18595
1.63211
2.15011
2.74303
3.41676
4.16701
4.99428
5.89415
6.85891
7.87117
8.91552
9.96191
10.9964
12.0062
12.9902
14.0291
15.3676
17.242
19.7934
23.0655
27.3412
32.6394
39.3347
48.0216
59.7338
76.3807
101.386
140.481
197.219
254.407
272.015
243.585
241.429
0.0115891
0.0997607
0.265086
0.501894
0.807554
1.18169
1.62673
2.14567
2.7396
3.4135
4.17306
5.01303
5.93071
6.91915
7.96678
9.05114
10.1546
11.2459
12.3152
13.3613
14.4089
15.5674
17.1189
19.3139
22.2741
26.0662
31.0086
37.1214
44.8993
55.092
69.0064
89.052
119.444
166.371
229.592
278.828
284.025
259.002
292.706
0.0115397
0.099483
0.26403
0.499347
0.803322
1.17705
1.62059
2.13841
2.73431
3.40971
4.16983
5.02008
5.95276
6.96103
8.03395
9.15602
10.3006
11.4458
12.5627
13.6486
14.7255
15.8415
17.1487
18.9748
21.5718
25.0369
29.4831
35.1964
42.2782
51.3644
63.4027
80.0548
104.377
141.391
197.191
264.24
297.552
289.051
257
325.858
0.0114869
0.0988413
0.263078
0.496747
0.799101
1.17084
1.61398
2.13008
2.72491
3.40282
4.16501
5.01603
5.9602
6.98588
8.07985
9.23016
10.4136
11.5974
12.7606
13.8791
14.9678
16.0657
17.2679
18.7689
20.9396
24.0434
28.1678
33.3779
39.9945
48.243
58.9224
73.2412
93.3209
122.997
168.189
233.206
298.553
308.319
283.397
258.103
340.166
0.0114263
0.0983625
0.261466
0.494631
0.795307
1.1646
1.60609
2.12109
2.71404
3.39094
4.15605
5.00997
5.95556
6.99459
8.10881
9.28183
10.493
11.7139
12.9106
14.0634
15.1621
16.2372
17.361
18.6769
20.4196
23.0363
26.8348
31.7359
37.8234
45.5228
55.1813
67.8169
84.9743
109.369
145.83
200.661
273.906
328.615
312.01
268.231
255.853
333.538
0.0113628
0.0978258
0.260143
0.492145
0.791709
1.15947
1.59743
2.11064
2.70238
3.37817
4.14164
4.9993
5.94809
6.98885
8.11908
9.31362
10.5476
11.7962
13.0263
14.2034
15.3191
16.378
17.4333
18.5975
20.056
22.1334
25.4016
30.0254
35.7831
42.9221
51.9193
63.3009
78.3554
99.0676
128.933
173.904
239.618
317.323
349.605
311.352
245.041
280.975
306.117
0.011312
0.0974252
0.258667
0.489586
0.787621
1.15398
1.58933
2.09989
2.68892
3.36448
4.12581
4.9817
5.93503
6.98038
8.11279
9.32455
10.5821
11.8529
13.1074
14.3121
15.44
16.4932
17.4991
18.5421
19.7648
21.4433
24.072
28.1093
33.6189
40.3868
48.7918
59.3648
72.861
90.92
116.114
153.018
208.436
285.102
359.196
358.271
307.319
212.015
325.731
248.739
0.0112626
0.0971578
0.257448
0.486746
0.783457
1.14798
1.58242
2.08913
2.67507
3.34769
4.10875
4.9622
5.9157
6.96488
8.10393
9.31753
10.5935
11.8884
13.1629
14.3881
15.5335
16.5826
17.5586
18.5132
19.555
20.9008
23.0105
26.2939
31.1302
37.6711
45.644
55.582
68.0736
84.171
105.97
136.934
182.841
250.493
335.757
393.428
353.895
299.157
167.447
397.745
177.779
0.0112108
0.0965124
0.256509
0.484268
0.77885
1.14178
1.57487
2.07881
2.66208
3.32929
4.08832
4.94173
5.89283
6.94207
8.08756
9.30746
10.5868
11.8993
13.1984
14.4395
15.5983
16.6532
17.607
18.5008
19.4134
20.5082
22.1691
24.7956
28.7335
34.496
42.2488
51.6683
63.4667
78.2869
97.574
124.09
162.655
219.777
300.782
387.54
413.341
336.554
285.268
129.496
508.822
127.896
0.0111554
0.0960473
0.254965
0.482264
0.77468
1.13501
1.56634
2.06868
2.64875
3.31188
4.06682
4.91703
5.86816
6.91554
8.0604
9.28872
10.5755
11.8923
13.2085
14.4727
15.6423
16.7015
17.646
18.4961
19.3181
20.2342
21.5441
23.6014
26.7144
31.4053
38.2445
47.4421
58.579
72.6098
90.2235
113.433
146.341
194.605
265.383
358.287
433.24
414.21
308.598
274.254
82.4096
597.376
99.5353
0.0110986
0.0954177
0.25403
0.479499
0.771879
1.12952
1.55694
2.05833
2.6347
3.29623
4.04569
4.89184
5.84062
6.887
8.0302
9.26017
10.5537
11.8812
13.2007
14.4817
15.6717
16.733
17.6721
18.496
19.2526
20.0408
21.1104
22.7173
25.1123
28.7689
34.3359
42.4397
53.3238
66.4491
83.0825
103.957
132.468
173.828
234.443
320.698
419.154
463.373
394.338
279.805
269.638
88.3718
708.54
80.2264
0.0110448
0.0949105
0.252387
0.477548
0.768109
1.1252
1.54929
2.04602
2.62234
3.27988
4.0262
4.86699
5.80894
6.85619
7.99738
9.22728
10.5223
11.8589
13.1883
14.4739
15.6761
16.7544
17.6865
18.4935
19.2055
19.9022
20.8018
22.0988
23.9254
26.6839
30.973
37.5548
47.1083
59.8763
75.1681
94.6589
119.656
155.843
208.01
284.002
385.219
474.87
469.079
358.188
257.212
253.547
113.224
780.719
67.5266
0.0110009
0.0944451
0.250771
0.475002
0.764212
1.1197
1.54313
2.03462
2.60666
3.26314
4.00758
4.84527
5.78025
6.82146
7.96104
9.19109
10.488
11.8241
13.1662
14.4594
15.666
16.7532
17.6954
18.4874
19.1682
19.8019
20.576
21.6513
23.0905
25.1488
28.329
33.3409
41.0694
52.138
66.7984
84.1858
106.962
138.94
184.595
250.776
344.743
454.927
512.606
447.761
309.57
257.19
225.489
164.711
826.185
58.3481
0.0109592
0.0939986
0.249514
0.472007
0.76015
1.11399
1.53551
2.02716
2.59096
3.24365
3.98579
4.82242
5.75555
6.78774
7.9225
9.14879
10.4497
11.7861
13.1315
14.4349
15.6507
16.7409
17.6878
18.4825
19.1358
19.7245
20.4083
21.3218
22.4871
24.0719
26.3999
30.0594
35.8528
44.7223
57.1232
73.1913
92.6668
121.294
162.237
220.277
304.258
416.51
519.604
520.009
403.844
250.104
278.238
188.611
214.273
827.567
51.1968
0.0109106
0.0936917
0.248302
0.469635
0.755996
1.10725
1.52767
2.01833
2.5821
3.22541
3.96195
4.79633
5.7288
6.75718
7.88607
9.10595
10.4039
11.7467
13.0906
14.4011
15.6255
16.7242
17.6728
18.4646
19.1128
19.6598
20.2778
21.0761
22.0391
23.2883
25.0471
27.6878
31.8526
38.3654
48.0935
61.0895
77.8335
101.689
138.65
190.585
264.954
370.383
494.691
562.941
492.72
340.075
202.585
297.2
128.056
328.776
785.916
44.0903
0.0108569
0.0935494
0.247734
0.467686
0.752188
1.10123
1.51855
2.008
2.57197
3.21397
3.94114
4.76834
5.69791
6.72569
7.8505
9.0663
10.3568
11.6992
13.0492
14.3609
15.5915
16.6998
17.6528
18.4446
19.0831
19.6126
20.1729
20.8835
21.7024
22.7044
24.0636
26.0318
29.0059
33.6068
40.5123
50.3005
63.0066
81.6874
113.48
159.322
225.658
321.178
449.115
566.978
568.229
434.698
264.636
195.855
352.465
40.2446
501.502
701.232
37.2776
0.0108019
0.0932798
0.247215
0.466624
0.749049
1.09644
1.51032
1.9973
2.55882
3.20104
3.92681
4.74301
5.66504
6.69253
7.81541
9.02909
10.3136
11.6491
13.0015
14.3189
15.5534
16.6658
17.6265
18.4193
19.0555
19.5658
20.0894
20.7317
21.4395
22.2637
23.3267
24.8231
27.0229
30.2842
35.0737
41.8241
50.7977
64.0743
88.2583
127.224
184.508
269.816
391.191
535.24
612.37
528.997
353.832
198.431
213.982
399.969
15.4117
835.681
587.218
30.1227
0.0107547
0.0927955
0.245948
0.4655
0.747242
1.09186
1.5037
1.98649
2.54526
3.1848
3.91062
4.72533
5.63679
6.65515
7.77825
8.98888
10.2723
11.6028
12.9498
14.2706
15.5116
16.6287
17.593
18.3903
19.0228
19.5274
20.0132
20.6089
21.2333
21.9199
22.7683
23.9176
25.5724
27.9793
31.4293
36.2034
42.7843
51.422
68.2287
96.6629
143.683
216.129
325.906
475.471
613.434
609.425
451.451
268.318
157.091
240.93
385.058
47.8142
1084.18
454.563
23.1703
0.0107225
0.0923753
0.244704
0.463171
0.745245
1.08905
1.49744
1.97669
2.53162
3.16801
3.89262
4.70593
5.61567
6.62514
7.73899
8.94763
10.2279
11.5583
12.9011
14.2179
15.4653
16.5878
17.5582
18.3561
18.9907
19.4831
19.9553
20.5065
21.0639
21.651
22.3324
23.2292
24.4846
26.2847
28.8875
32.6073
37.9774
45.2727
55.0569
73.6009
107.36
164.451
256.769
397.036
568.047
656.781
550.79
353.909
196.859
147.323
336.063
343.49
125.117
1323.63
316.776
17.4459
0.0106928
0.0918761
0.243631
0.460837
0.741527
1.08589
1.49338
1.96962
2.5192
3.15265
3.87209
4.68598
5.59074
6.59781
7.70168
8.9037
10.1832
11.5109
12.854
14.1686
15.4151
16.5445
17.5184
18.3231
18.9555
19.4438
19.8874
20.4274
20.9365
21.4259
21.9913
22.6901
23.6544
25.0218
26.9801
29.9931
34.2887
40.4098
48.755
60.0801
80.1663
121.121
191.626
309.848
484.201
650.105
638.34
450.852
260.357
150.468
127.948
421.264
284.432
232.834
1460.29
215.306
12.9098
0.0106606
0.0914875
0.242835
0.45883
0.737833
1.08052
1.48991
1.96409
2.51143
3.1388
3.85376
4.6618
5.56665
6.56915
7.67095
8.85942
10.1345
11.4625
12.8068
14.1207
15.3666
16.4978
17.4746
18.2853
18.9203
19.4042
19.8272
20.3399
20.8312
21.2735
21.7044
22.2668
23.0025
24.0491
25.5744
27.9211
31.4197
36.3848
43.3674
52.8782
65.5503
89.0318
139.113
228.034
379.09
581.28
687.211
554.126
338.659
190.782
115.839
184.592
485.77
189.077
410.753
1449.6
158.481
9.37124
0.0106207
0.0913476
0.24218
0.457376
0.735382
1.07612
1.48371
1.95921
2.50572
3.12755
3.83846
4.6373
5.5406
6.54146
7.63943
8.82726
10.0888
11.413
12.7587
14.0746
15.3187
16.4511
17.4303
18.243
18.8824
19.3644
19.7697
20.2634
20.7236
21.1328
21.5225
21.9161
22.4885
23.2812
24.4672
26.3102
29.0764
33.1439
38.8906
46.8452
57.4361
70.7477
101.294
163.45
277.29
466.59
665.323
647.408
431.576
244.321
141.389
67.7929
261.89
544.844
50.9904
753.266
1283.4
118.391
6.66768
0.0105716
0.0909888
0.241463
0.456132
0.733118
1.07361
1.47779
1.95253
2.49768
3.12001
3.82477
4.6212
5.51402
6.51022
7.60808
8.79447
10.0524
11.3664
12.7071
14.0274
15.2722
16.4039
17.3868
18.2007
18.8424
19.3226
19.7148
20.193
20.6309
21.0018
21.3398
21.6923
22.0785
22.6724
23.5817
25.0204
27.2166
30.4579
35.1958
41.887
50.9451
62.3488
76.4946
117.811
196.944
343.833
566.014
693.035
535.175
312.062
177.706
94.0182
94.9337
353.306
561.479
30.2287
1312.2
1027.42
86.4471
4.56895
0.0105232
0.0905835
0.240564
0.455373
0.730484
1.06929
1.47285
1.94319
2.48884
3.11155
3.81511
4.60636
5.49456
6.48282
7.57364
8.75897
10.0165
11.3268
12.6582
13.9752
15.2261
16.3589
17.3438
18.1595
18.8013
19.2803
19.6583
20.1282
20.5482
20.8903
21.1813
21.465
21.7939
22.2072
22.8826
23.9911
25.7107
28.3156
32.1499
37.6549
45.368
55.5521
67.5518
87.5218
140.542
243.572
430.243
650.484
628.397
396.544
222.261
120.288
50.9627
137.6
478.194
477.711
113.872
1769.25
750.709
59.3293
2.99636
0.0104783
0.0901643
0.239525
0.453685
0.729883
1.06561
1.46724
1.9367
2.47884
3.10056
3.80473
4.59516
5.47771
6.45963
7.54082
8.7197
9.97955
11.2882
12.6193
13.9282
15.1752
16.3163
17.2997
18.1197
18.7613
19.2396
19.6062
20.0625
20.4738
20.7939
21.0479
21.2757
21.5202
21.8432
22.3428
23.1835
24.5217
26.5705
29.6536
34.1892
40.5611
49.2566
60.2554
72.8896
103.442
172.57
308.061
530.063
666.438
492.475
279.336
152.256
71.1965
67.2961
200.896
593.805
380.015
237.721
2067.42
497.784
37.7411
1.8977
0.0104496
0.0896826
0.238441
0.451767
0.728051
1.06459
1.46352
1.93102
2.47059
3.08801
3.79081
4.58173
5.4633
6.43912
7.51464
8.68631
9.93653
11.2508
12.5806
13.8884
15.1286
16.2672
17.2595
18.0796
18.7218
19.2011
19.563
19.9974
20.4009
20.707
20.9352
21.1179
21.2958
21.5236
21.8931
22.5311
23.5667
25.1827
27.6382
31.2888
36.5947
43.9144
53.5262
64.9587
79.9551
125.578
218.266
393.377
610.897
578.559
350.643
191.973
90.8828
51.615
90.6904
304.785
674.138
219.043
607.379
2092.35
293.75
23.5993
1.16575
0.0104335
0.0894476
0.237513
0.450349
0.725065
1.0619
1.46207
1.92629
2.46347
3.07784
3.77612
4.56577
5.45003
6.42289
7.49187
8.65679
9.90024
11.2083
12.5427
13.8461
15.088
16.2196
17.2156
18.0389
18.6847
19.1619
19.5228
19.9385
20.3287
20.6258
20.8349
20.9844
21.1106
21.2604
21.5206
21.9952
22.7872
24.0541
26.0099
28.9627
33.291
39.45
47.7529
58.1038
69.8364
94.9644
157.133
282.581
491.064
610.613
431.557
240.803
118.642
38.2929
55.1063
121.931
436.898
744.325
28.8667
1258.8
1820.58
184.726
14.405
0.685477
0.0104176
0.0893142
0.236903
0.44862
0.722831
1.0587
1.45833
1.92566
2.45762
3.0711
3.76544
4.54957
5.43022
6.40648
7.47162
8.63025
9.86996
11.1657
12.4975
13.8061
15.0448
16.1825
17.1731
17.9984
18.6477
19.1241
19.4799
19.8843
20.2602
20.5466
20.742
20.8669
20.954
21.0437
21.2131
21.5574
22.1569
23.1412
24.6968
27.0727
30.6123
35.7173
42.8208
52.0581
62.8058
76.3019
117.223
203.394
367.745
561.386
504.33
297.612
155.217
60.5089
42.3579
63.8024
176.682
605.055
687.923
77.2365
2087.21
1355.79
114.77
8.44682
0.384559
0.0103956
0.0894359
0.236588
0.447034
0.720171
1.0554
1.45395
1.92083
2.45641
3.06388
3.7595
4.53719
5.41206
6.3866
7.45285
8.61103
9.84348
11.1325
12.4527
13.7633
15.0056
16.1427
17.1367
17.9604
18.6101
19.0901
19.4386
19.8276
20.1976
20.4711
20.6532
20.7601
20.8168
20.8608
20.9588
21.1957
21.642
22.4024
23.6309
25.5463
28.4269
32.6547
38.6436
46.7372
56.6843
67.6109
91.0191
149.597
269.247
460.456
538.366
359.492
195.226
84.6412
39.4519
51.0603
77.6339
256.541
781.987
542.246
229.283
2664.62
882.086
67.5964
4.6742
0.206098
0.0103572
0.0892428
0.236894
0.446007
0.717727
1.0517
1.44949
1.91347
2.4502
3.06013
3.75125
4.52787
5.39735
6.36731
7.43324
8.58981
9.82243
11.108
12.4189
13.721
14.9657
16.1071
17.1002
17.9255
18.5744
19.0538
19.4034
19.7714
20.1344
20.4019
20.5691
20.6605
20.6937
20.7018
20.7422
20.8946
21.2171
21.7967
22.7663
24.3039
26.657
30.1365
35.1711
42.1375
51.1522
61.3973
74.2381
113.987
197.856
354.346
510.839
419.788
238.066
112.682
41.9542
47.9168
61.3113
103.503
393.456
884.638
329.058
687.989
2823.44
503.013
37.0118
2.48558
0.105117
0.010311
0.0886983
0.236432
0.446471
0.716157
1.0484
1.44456
1.90769
2.443
3.0545
3.74639
4.51969
5.3828
6.35066
7.41411
8.56662
9.79801
11.0836
12.3909
13.6855
14.9268
16.0685
17.0699
17.8927
18.5415
19.0212
19.3674
19.7218
20.0705
20.3329
20.4937
20.5674
20.5817
20.5606
20.5566
20.6389
20.8613
21.2981
22.0545
23.2905
25.207
28.0869
32.282
38.2472
46.2303
55.8828
66.4658
89.9999
148.371
265.924
436.483
458.297
285.246
143.084
51.8659
40.5936
59.8201
77.1704
152.957
569.223
951.698
46.3714
1668.33
2440.22
262.538
19.7439
1.25444
0.0506758
0.0102661
0.0885506
0.235319
0.446208
0.716952
1.04728
1.44028
1.90142
2.43746
3.04756
3.73927
4.51637
5.37634
6.33456
7.39399
8.54541
9.77292
11.0583
12.3658
13.657
14.8911
16.0307
17.0299
17.8633
18.5097
18.9912
19.3338
19.6744
20.0131
20.2644
20.4191
20.4835
20.4793
20.4329
20.393
20.4205
20.5603
20.8793
21.4683
22.4527
24.0191
26.3961
29.9137
34.9578
41.9594
50.8524
60.7199
74.4621
114.578
198.948
348.283
455.923
333.511
177.048
70.9189
33.0068
48.345
70.6943
96.7263
238.202
807.013
828.24
118.441
2769.44
1739.99
142.001
9.97961
0.597827
0.0232724
0.0102262
0.0881702
0.235084
0.444821
0.716555
1.0495
1.43897
1.8978
2.42976
3.04084
3.73071
4.50794
5.3753
6.32641
7.37892
8.52661
9.74937
11.0308
12.3426
13.6337
14.865
15.9995
16.995
17.826
18.481
18.9582
19.3001
19.6276
19.9612
20.204
20.3463
20.4026
20.3844
20.3169
20.2456
20.2284
20.3042
20.5243
20.9743
21.763
23.0343
25.0044
27.9397
32.2231
38.2631
46.3184
55.7472
66.2702
91.5764
151.139
267.401
411.03
373.4
212.757
95.9117
38.2507
36.743
55.1952
81.3514
125.465
381.007
1012.91
597.608
379.259
3509.08
1033.4
72.2441
4.74579
0.270139
0.0110286
0.0101964
0.0876365
0.234119
0.443753
0.714423
1.04794
1.44171
1.89609
2.42529
3.03146
3.72259
4.49825
5.36529
6.32406
7.37054
8.51262
9.73189
11.0049
12.3172
13.6135
14.8448
15.9721
16.9666
17.7951
18.4514
18.933
19.2669
19.5842
19.9111
20.1501
20.28
20.3235
20.2943
20.2114
20.1114
20.0581
20.0792
20.2227
20.5571
21.1821
22.2203
23.8438
26.3033
29.9221
35.1249
42.2431
51.1489
60.6743
76.16
118.107
203.751
339.348
390.502
249.65
120.825
54.9778
39.4059
41.5946
62.232
91.1699
172.337
590.68
1136.19
275.586
1226.56
3418.05
517.553
34.2854
2.14969
0.113675
0.00702259
0.0101858
0.087404
0.232679
0.442065
0.712785
1.04492
1.44099
1.89787
2.42339
3.02618
3.71145
4.4882
5.3527
6.31234
7.36409
8.49895
9.71619
10.9854
12.2911
13.589
14.8247
15.9527
16.94
17.7683
18.4251
18.9067
19.2413
19.5402
19.8641
20.0983
20.2214
20.2505
20.2081
20.1111
19.9903
19.9046
19.8802
19.9595
20.2027
20.69
21.5345
22.8805
24.9354
27.9987
32.4436
38.6858
46.8166
56.1368
66.701
95.0115
157.389
268.953
370.6
285.101
146.558
69.5016
54.549
44.5542
47.7944
68.9576
106.826
260.494
877.377
1108.28
147.994
2839.75
2639.64
237.568
15.6439
0.904323
0.0458381
0.00631726
0.0101823
0.0873297
0.232103
0.440098
0.710196
1.04378
1.4386
1.89852
2.42742
3.02612
3.70547
4.47795
5.34082
6.29884
7.35347
8.49136
9.70094
10.9723
12.2698
13.5615
14.8009
15.9337
16.923
17.7445
18.3993
18.8815
19.2133
19.5019
19.8136
20.0475
20.1678
20.1862
20.1284
20.0151
19.8777
19.7652
19.7027
19.7268
19.8933
20.2711
20.9539
22.07
23.7949
26.379
30.1787
35.594
42.9178
51.7422
61.1655
79.0924
123.941
211.282
322.679
313.007
170.31
75.1904
64.3833
59.6984
50.5678
55.9372
77.6608
135.29
423.008
1195.21
881.166
442.382
4066.4
1602.23
109.983
6.57118
0.357943
0.0184332
0.00668781
0.0101762
0.0875165
0.232272
0.439701
0.708126
1.04021
1.43696
1.89718
2.42837
3.03338
3.70807
4.47317
5.33199
6.28775
7.34043
8.48358
9.69556
10.9627
12.2554
13.5427
14.7737
15.9148
16.9059
17.7312
18.3745
18.8551
19.186
19.4624
19.7696
19.9926
20.1125
20.129
20.0583
19.9276
19.77
19.6362
19.5427
19.5203
19.621
19.9075
20.4576
21.3829
22.8339
25.0283
28.2615
32.9439
39.4272
47.6886
56.6689
67.9786
100.232
165.783
268.735
317.269
200.994
86.7755
59.9201
70.8599
64.4415
59.2357
67.2805
89.0222
185.319
677.818
1438.62
552.248
1071.08
4294.97
789.195
46.0054
2.6164
0.132176
0.00953507
0.00756694
0.0101612
0.0874689
0.23262
0.440122
0.707604
1.03737
1.4323
1.89501
2.42441
3.03443
3.71636
4.47335
5.33075
6.27756
7.32898
8.46961
9.68675
10.9572
12.2439
13.5268
14.7594
15.8926
16.8893
17.7191
18.3608
18.8296
19.1578
19.4251
19.7249
19.9445
20.0552
20.0703
19.9953
19.8519
19.6718
19.5151
19.3948
19.3344
19.3803
19.5886
20.0285
20.7947
22.0162
23.8827
26.6539
30.6742
36.3657
43.8975
52.7005
62.0781
83.364
131.933
218.014
295.676
233.403
100.939
40.8228
70.2047
76.7312
70.8609
71.597
83.4142
105.121
272.332
1002.57
1397.86
77.3887
2971.64
3371.13
315.961
18.5357
0.960838
0.0462745
0.00781248
0.00855471
0.0101356
0.0871742
0.232555
0.440245
0.707412
1.03547
1.42859
1.88908
2.42155
3.02731
3.71705
4.48017
5.33046
6.27532
7.31733
8.45545
9.67145
10.9478
12.2419
13.5115
14.7459
15.8785
16.8724
17.7038
18.3521
18.8134
19.1281
19.3883
19.6847
19.8986
20.0044
20.0082
19.933
19.7811
19.5867
19.4046
19.2569
19.1649
19.1648
19.306
19.6532
20.2846
21.3149
22.9044
25.2813
28.7523
33.7021
40.4712
48.8199
57.6497
71.5037
107.313
175.654
260.783
254.362
130.429
35.9572
50.5472
78.5221
82.631
78.971
88.6737
105.443
137.86
434.719
1308.09
1059.65
568.976
4711.25
2001.65
128.69
6.80722
0.328995
0.0176293
0.00854852
0.00967585
0.0100959
0.0869796
0.231993
0.440214
0.708606
1.03536
1.42775
1.88452
2.41658
3.02364
3.71172
4.48105
5.3376
6.27973
7.31473
8.4464
9.66069
10.9353
12.2366
13.5122
14.7278
15.8622
16.8568
17.6884
18.3426
18.8051
19.1117
19.351
19.6483
19.8604
19.9574
19.9547
19.8663
19.7118
19.5081
19.3066
19.1303
19.0078
18.9683
19.0541
19.3202
19.8401
20.7098
22.0657
24.106
27.1047
31.4173
37.4146
45.1737
53.8185
63.6047
89.2719
141.957
222.507
257.822
158.445
58.8803
10.6964
67.1144
87.459
87.1886
87.5155
105.809
134.236
214.649
736.648
1575.96
477.799
1649.09
5059.93
913.659
47.1642
2.34586
0.105551
0.00950349
0.00968714
0.0109406
0.0100513
0.0868495
0.231541
0.439861
0.708699
1.03838
1.42941
1.88544
2.41309
3.02011
3.70712
4.4774
5.33908
6.29
7.31815
8.44326
9.65483
10.9239
12.2244
13.5115
14.7298
15.8483
16.8444
17.673
18.3284
18.7993
19.1035
19.3251
19.6084
19.8238
19.918
19.9051
19.807
19.6426
19.4305
19.2175
19.0172
18.8632
18.7876
18.8256
19.0253
19.4474
20.1814
21.3408
23.0973
25.6894
29.443
34.7405
41.8015
50.176
58.9692
76.2577
116.136
185.637
244.24
186.277
81.347
27.8988
12.1604
82.5888
93.9207
88.8076
91.9881
116.992
168.487
376.45
1204.83
1600.04
94.3793
3763.97
3782.27
324.316
16.4763
0.740755
0.0330249
0.00965948
0.010936
0.0123661
0.0100075
0.0868678
0.231121
0.439794
0.708311
1.03868
1.43196
1.88955
2.41215
3.01609
3.70295
4.47491
5.33417
6.29533
7.33122
8.44753
9.6511
10.9174
12.2122
13.4991
14.729
15.8533
16.8326
17.6585
18.3123
18.7887
19.0953
19.3091
19.5765
19.7797
19.878
19.8617
19.7545
19.5788
19.354
19.1308
18.9168
18.7332
18.6227
18.6175
18.7596
19.0995
19.7145
20.7106
22.2257
24.4725
27.7376
32.3923
38.7616
46.6989
55.1203
66.7165
96.9244
153.26
221.618
209.777
96.2843
55.0706
13.6183
29.3455
100.556
99.871
88.1306
90.2863
119.902
211.553
636.552
1716.1
1228.47
570.616
5763.99
2047.72
114.184
5.2162
0.217993
0.012545
0.0109415
0.0123606
0.0139722
0.00996752
0.0861319
0.230621
0.438467
0.7092
1.03826
1.4325
1.89108
2.41498
3.01497
3.69849
4.47026
5.33581
6.29106
7.33956
8.46024
9.65415
10.9128
12.2051
13.4876
14.7221
15.8535
16.8365
17.6477
18.2948
18.7746
19.0866
19.292
19.5541
19.743
19.8328
19.8196
19.7081
19.5204
19.286
19.0448
18.8206
18.6181
18.4737
18.428
18.5176
18.7885
19.304
20.1542
21.4697
23.4194
26.2634
30.3455
36.0288
43.4204
51.7465
60.7272
82.4118
126.966
193.513
218.426
120.107
60.1723
57.4056
5.62122
55.0496
117.311
108.284
89.97
89.7523
120.984
273.488
1026.85
1966.3
572.282
2498.33
5582.44
806.06
36.1997
1.52902
0.0588414
0.0109288
0.0123474
0.0139655
0.0157806
0.00993934
0.0858319
0.229372
0.436931
0.707218
1.03948
1.43211
1.89199
2.41931
3.0185
3.69672
4.46387
5.32904
6.29072
7.33821
8.47111
9.674
10.9162
12.203
13.4794
14.7154
15.8486
16.8379
17.6514
18.2857
18.7583
19.0735
19.2743
19.5357
19.7196
19.7935
19.7726
19.6619
19.4707
19.2225
18.9686
18.7249
18.5096
18.3399
18.2554
18.2976
18.5068
18.9367
19.6663
20.8015
22.5065
24.9888
28.5688
33.6135
40.3693
48.4267
56.7666
71.7123
106.222
165.241
212.359
154.226
53.7231
63.6161
46.3807
5.12819
94.3882
138.482
123.931
105.241
104.284
141.085
423.415
1493.7
1757.9
249.818
5184.47
3698.83
249.792
10.7262
0.409333
0.0185791
0.0123378
0.0139496
0.0157727
0.0178156
0.00992593
0.0859848
0.229052
0.435415
0.704948
1.03686
1.43215
1.89363
2.42307
3.02671
3.70437
4.46369
5.31947
6.28371
7.33965
8.47327
9.68308
10.9395
12.2122
13.4828
14.7077
15.843
16.8334
17.6518
18.2903
18.7456
19.0568
19.2566
19.517
19.7003
19.7678
19.731
19.6123
19.4207
19.1661
18.8988
18.6389
18.4028
18.2157
18.1004
18.0985
18.2515
18.6068
19.2318
20.2175
21.7022
23.8812
27.0247
31.486
37.5994
45.2502
53.3687
63.6373
90.3239
139.107
197.287
182.067
67.306
51.8662
73.345
37.9622
16.3617
132.748
159.596
146.391
137.832
145.817
218.291
753.203
1989.7
1021.4
1300.7
6754.05
1676.63
74.6087
2.88851
0.0998326
0.0124186
0.0139312
0.0157553
0.0178065
0.0201043
0.00993113
0.08589
0.229417
0.43563
0.702676
1.03506
1.43036
1.8938
2.42534
3.03149
3.71449
4.47559
5.32119
6.27305
7.33114
8.47259
9.6821
10.9511
12.2305
13.4932
14.7088
15.8399
16.8297
17.6542
18.2923
18.7516
19.0434
19.2378
19.493
19.6822
19.7453
19.7019
19.567
19.3684
19.1145
18.8351
18.5606
18.3065
18.0953
17.9582
17.9187
18.0199
18.3085
18.841
19.7006
20.9978
22.9069
25.6798
29.6216
35.1012
42.2356
50.3099
58.8015
78.1139
117.431
175.067
193.43
101.645
42.7205
70.0221
78.8395
24.4505
39.6161
166.821
175.341
167.22
175.406
206.734
393.134
1348.99
2183.63
243.82
4214.84
5460.73
525.182
20.2882
0.702832
0.027006
0.0139217
0.0157303
0.0177875
0.020094
0.0226764
0.00994203
0.0859501
0.229252
0.436368
0.703063
1.03203
1.42983
1.89158
2.42799
3.03164
3.71712
4.48634
5.33918
6.27648
7.32302
8.46467
9.68213
10.9491
12.2418
13.5122
14.7172
15.8434
16.8302
17.6599
18.2985
18.7557
19.0453
19.2188
19.4639
19.6545
19.724
19.6776
19.5328
19.3201
19.0585
18.7755
18.4889
18.2177
17.986
17.8228
17.7542
17.8104
18.037
18.49
19.2358
20.3766
22.0557
24.4952
27.9916
32.8852
39.428
47.2386
55.2801
68.9286
100.081
152.049
191.533
137.172
37.5013
48.0616
80.8908
79.9191
18.3562
71.0929
185.793
177.06
173.765
195.711
270.254
701.263
2056.01
1785.93
535.495
7295.65
2897.74
142.409
4.97433
0.155984
0.0140317
0.0157218
0.0177607
0.0200731
0.0226649
0.025565
0.00995299
0.0860777
0.22903
0.436166
0.704096
1.03105
1.42583
1.89085
2.42541
3.03471
3.72025
4.49025
5.35302
6.29531
7.33075
8.46118
9.67781
10.9552
12.2469
13.5297
14.7408
15.8495
16.8363
17.6607
18.3094
18.7628
19.052
19.2153
19.433
19.618
19.698
19.6553
19.5059