/*--------------------------------*- C++ -*----------------------------------*\
| =========                 |                                                 |
| \\      /  F ield         | OpenFOAM: The Open Source CFD Toolbox           |
|  \\    /   O peration     | Version:  v2012                                 |
|   \\  /    A nd           | Website:  www.openfoam.com                      |
|    \\/     M anipulation  |                                                 |
\*---------------------------------------------------------------------------*/
FoamFile
{
    version     2.0;
    format      ascii;
    class       volScalarField;
    location    "11500";
    object      Rew;
}
// * * * * * * * * * * * * * * * * * * * * * * * * * * * * * * * * * * * * * //

dimensions      [0 0 0 0 0 0 0];


internalField   nonuniform List<scalar> 
53312
(
0.0913169
0.0503341
0.738177
0.0266446
0.405473
1.95196
0.0203186
0.224379
1.02844
3.75443
0.0166334
0.175659
0.589649
1.86934
5.50987
0.0141345
0.144382
0.464353
1.10306
2.90355
7.29
0.0125036
0.122249
0.383505
0.872925
1.75415
4.12083
9.23862
0.0113332
0.108394
0.32642
0.72384
1.39385
2.53908
5.51985
11.3782
0.0104443
0.0984241
0.290094
0.61924
1.15945
2.02408
3.45932
7.10562
13.7168
0.00974292
0.0908303
0.263976
0.551447
0.995947
1.68722
2.76449
4.52089
8.88814
16.2727
0.0091664
0.0847574
0.243893
0.502346
0.88858
1.45445
2.30819
3.6191
5.73354
10.8887
19.0658
0.00868608
0.0798153
0.227848
0.464655
0.810443
1.30011
1.99534
3.02635
4.59515
7.11555
13.1222
22.1234
0.00829499
0.0756717
0.214695
0.434505
0.750454
1.18723
1.7866
2.62176
3.84594
5.70279
8.67659
15.6247
25.4764
0.00802292
0.0722944
0.203653
0.409716
0.70241
1.10046
1.63331
2.35033
3.33748
4.77443
6.95562
10.45
18.4208
29.1585
0.00787608
0.0699127
0.194621
0.388845
0.662789
1.03091
1.51537
2.15066
2.99506
4.14876
5.82163
8.37032
12.4584
21.5513
33.2072
0.00791003
0.0686415
0.188189
0.371704
0.629366
0.973411
1.42078
1.9971
2.74285
3.72622
5.06362
7.0003
9.96778
14.7415
25.0614
37.6765
0.00817827
0.0689052
0.184763
0.359416
0.601842
0.924839
1.3424
1.87401
2.54901
3.41542
4.55047
6.09215
8.32542
11.7759
17.3316
29.0044
42.6341
0.00867259
0.0711612
0.185325
0.3529
0.581954
0.884726
1.27611
1.77172
2.39379
3.17619
4.17384
5.47767
7.24674
9.81521
13.8187
20.2862
33.4452
48.1637
0.00927315
0.0753388
0.191176
0.353751
0.571487
0.855547
1.22125
1.68512
2.26441
2.98441
3.88403
5.0268
6.51767
8.54245
11.4949
16.1411
23.6553
38.4544
54.3077
0.00983938
0.0804047
0.202092
0.364589
0.572609
0.840343
1.18107
1.61332
2.15483
2.8246
3.65133
4.67973
5.98326
7.68328
9.9972
13.3853
18.7893
27.5094
44.1107
61.3532
0.0103187
0.0851676
0.215308
0.384933
0.589738
0.841719
1.16039
1.56041
2.06383
2.68917
3.45741
4.40125
5.57204
7.0546
8.98966
11.6322
15.5278
21.8135
31.9279
50.6022
69.2301
0.0107047
0.0891756
0.227679
0.409497
0.622007
0.86643
1.16204
1.53353
1.99635
2.57659
3.29309
4.16914
5.2421
6.57107
8.25412
10.4551
13.4735
17.958
25.2798
37.0002
57.9784
78.396
0.0110237
0.0923966
0.238035
0.432427
0.66092
0.913104
1.19569
1.53552
1.96256
2.49257
3.15634
3.97259
4.9674
6.18349
7.68891
9.59764
12.1007
15.5517
20.7229
29.2677
42.8304
66.541
89.0421
0.0112717
0.0950436
0.246332
0.451523
0.697347
0.969297
1.25954
1.5798
1.96501
2.45116
3.05364
3.8088
4.73473
5.86091
7.23643
8.93994
11.1041
13.9524
17.9026
23.8864
33.8697
49.5262
76.6469
101.83
0.0114702
0.0971028
0.253122
0.466797
0.727375
1.02191
1.33602
1.66357
2.02144
2.45446
3.00407
3.68512
4.54089
5.58796
6.86012
8.41392
10.3407
12.7952
16.04
20.5791
27.5094
39.1969
57.1687
88.7101
116.264
0.0116183
0.0988872
0.258359
0.479237
0.751127
1.06497
1.407
1.76312
2.12781
2.52473
3.00837
3.62641
4.39333
5.36036
6.54192
7.97701
9.73127
11.911
14.6974
18.4034
23.6178
31.6911
45.3719
65.9167
102.031
130.156
0.0117326
0.100314
0.26294
0.488785
0.770587
1.09908
1.46518
1.85529
2.25379
2.65633
3.09404
3.63182
4.32445
5.18597
6.27664
7.60795
9.22572
11.2063
13.6739
16.842
21.0791
27.1058
36.5288
52.5866
75.7605
115.523
142.58
0.011811
0.101014
0.266636
0.496736
0.785445
1.1269
1.51166
1.93112
2.37025
2.81281
3.25415
3.73471
4.33085
5.1055
6.07172
7.30007
8.79904
10.6226
12.86
15.657
19.2664
24.1292
31.1136
42.1674
60.9434
86.9485
130.088
152.566
0.0118547
0.101465
0.268195
0.502857
0.797517
1.14807
1.54952
1.99148
2.46598
2.95664
3.44466
3.92686
4.45313
5.11279
5.97799
7.0604
8.44334
10.1303
12.1866
14.7167
17.893
22.0156
27.614
35.745
48.7357
70.7399
99.5607
146.64
158.092
0.0118743
0.102174
0.269413
0.506449
0.806535
1.16506
1.57803
2.04042
2.54204
3.07391
3.6188
4.15459
4.68007
5.25563
5.98512
6.95092
8.16325
9.71952
11.6193
13.9403
16.8059
20.4208
25.1433
31.6185
41.1249
56.4622
82.1685
113.811
165.544
146.251
0.0118825
0.102285
0.27073
0.509009
0.812595
1.17708
1.60076
2.0773
2.60322
3.16755
3.76012
4.36257
4.94828
5.51965
6.149
6.95617
8.0342
9.39254
11.1454
13.2867
15.91
19.1621
23.2875
28.7208
36.2328
47.4088
65.5659
95.4993
130.113
188.119
109.101
0.0118772
0.102312
0.270567
0.510569
0.816386
1.18554
1.61678
2.10647
2.64952
3.2428
3.87376
4.53031
5.19237
5.83073
6.45181
7.14086
8.03464
9.23914
10.7631
12.7393
15.1562
18.1266
21.8267
26.5495
32.8198
41.5905
54.791
76.3262
110.998
149.118
212.134
70.0644
0.0118555
0.10221
0.270548
0.510267
0.817986
1.19119
1.62745
2.12748
2.68586
3.30015
3.96459
4.66501
5.38873
6.11231
6.80632
7.48023
8.23544
9.22908
10.5779
12.2912
14.523
17.255
20.6274
24.8491
30.28
37.5508
47.8403
63.5087
89.0947
129.047
170.95
229.64
42.7355
0.0118225
0.101629
0.270459
0.510056
0.817919
1.19375
1.63473
2.1412
2.71185
3.34462
4.03371
4.77347
5.54611
6.3381
7.12465
7.87611
8.6064
9.43865
10.5492
12.0637
13.9958
16.5207
19.6187
23.4565
28.2935
34.5563
43.04
55.1758
73.8965
104.245
149.747
195.089
238.226
24.2769
0.0117851
0.101456
0.269235
0.50956
0.8178
1.19289
1.63836
2.14974
2.7296
3.37621
4.08769
4.85497
5.67252
6.51888
7.37922
8.22906
9.03791
9.83076
10.7541
12.0015
13.7115
15.8982
18.7639
22.2839
26.6679
32.2277
39.4969
49.4343
63.8555
86.2584
122.198
173.439
219.551
238.805
11.1628
0.0117426
0.101307
0.268556
0.507738
0.816193
1.1923
1.637
2.15392
2.74077
3.39789
4.1257
4.91895
5.76773
6.66359
7.58352
8.5089
9.41947
10.2859
11.1485
12.1814
13.5964
15.5363
18.0237
21.2848
25.3002
30.3292
36.7497
45.2173
56.9463
74.1634
101.127
143.46
199.725
242.065
233.617
1.09734
0.0116921
0.100702
0.26816
0.505858
0.813282
1.19029
1.63529
2.15266
2.74564
3.41129
4.15171
4.9637
5.84149
6.77361
7.74733
8.73458
9.7205
10.6842
11.6083
12.5531
13.7201
15.3406
17.5571
20.4017
24.1269
28.7283
34.5197
41.9679
51.8971
65.8234
86.5251
119.013
168.4
227.629
260.187
223.464
5.79145
0.0116395
0.100106
0.266667
0.504159
0.810523
1.18595
1.6321
2.15011
2.74303
3.41676
4.167
4.99428
5.89414
6.8589
7.87112
8.91542
9.96176
10.9962
12.0059
12.99
14.0292
15.3686
17.2437
19.7951
23.0679
27.344
32.6414
39.3364
48.0241
59.7397
76.3932
101.42
140.562
197.259
255.195
272.218
211.468
11.9303
0.0115891
0.0997607
0.265086
0.501894
0.807554
1.18169
1.62673
2.14567
2.7396
3.4135
4.17306
5.01303
5.9307
6.91915
7.96676
9.05107
10.1545
11.2457
12.3149
13.3609
14.4086
15.5675
17.1202
19.3161
22.2764
26.0692
31.0121
37.1239
44.9015
55.0955
69.0144
89.0687
119.488
166.482
229.674
279.602
277.63
197.154
19.8728
0.0115397
0.099483
0.26403
0.499347
0.803322
1.17705
1.6206
2.13841
2.73431
3.40971
4.16983
5.02008
5.95275
6.96102
8.03394
9.156
10.3005
11.4456
12.5624
13.6482
14.725
15.8411
17.1488
18.9765
21.5748
25.0399
29.487
35.2007
42.2814
51.3673
63.4074
80.0655
104.4
141.451
197.342
264.422
297.918
274.584
174.791
23.1516
0.0114869
0.0988413
0.263078
0.496747
0.799101
1.17084
1.61399
2.13008
2.72491
3.40282
4.165
5.01603
5.96019
6.98587
8.07984
9.23015
10.4135
11.5973
12.7603
13.8788
14.9672
16.0651
17.2673
18.7691
20.9417
24.0473
28.1719
33.3829
40
48.2471
58.9263
73.2476
93.3354
123.028
168.27
233.414
298.953
307.503
264.341
144.386
20.2046
0.0114263
0.0983625
0.261466
0.494631
0.795307
1.1646
1.60609
2.12109
2.71404
3.39094
4.15605
5.00997
5.95555
6.99458
8.10879
9.28181
10.493
11.7138
12.9104
14.0631
15.1617
16.2365
17.3601
18.6761
20.4198
23.0392
26.8399
31.7413
37.8298
45.5297
55.1865
67.8222
84.9831
109.389
145.872
200.77
274.193
329.441
308.419
247.151
112.506
14.0768
0.0113628
0.0978258
0.260143
0.492145
0.791709
1.15947
1.59743
2.11064
2.70238
3.37817
4.14164
4.99929
5.94808
6.98884
8.11907
9.31359
10.5476
11.7961
13.0263
14.2032
15.3188
16.3775
17.4324
18.5963
20.055
22.1336
25.4052
30.0321
35.7902
42.9304
51.9281
63.3077
78.3625
99.0798
128.959
173.961
239.765
317.729
351.182
302.145
220.321
80.0943
12.9699
0.011312
0.0974252
0.258667
0.489586
0.787621
1.15398
1.58933
2.09989
2.68892
3.36448
4.12582
4.98169
5.93502
6.98037
8.11278
9.32454
10.582
11.8528
13.1074
14.312
15.4397
16.4928
17.4985
18.5409
19.7633
21.4419
24.0724
28.114
33.6277
40.3962
48.8027
59.3759
72.8698
90.9297
116.13
153.054
208.515
285.299
359.795
361.012
289.005
190.091
49.0087
19.8704
0.0112626
0.0971578
0.257448
0.486746
0.783457
1.14798
1.58242
2.08913
2.67507
3.34769
4.10875
4.9622
5.91569
6.96486
8.10391
9.31752
10.5935
11.8884
13.1628
14.3881
15.5333
16.5823
17.5581
18.5124
19.5536
20.8989
23.0088
26.2943
31.1364
37.6824
45.6564
55.5962
68.0879
84.1826
105.983
136.957
182.891
250.601
336.023
394.359
358.22
266.749
157.901
18.4232
25.6228
0.0112108
0.0965124
0.256509
0.484268
0.77885
1.14178
1.57487
2.07881
2.66208
3.32928
4.08832
4.94173
5.89284
6.94207
8.08754
9.30744
10.5868
11.8993
13.1984
14.4394
15.5982
16.653
17.6067
18.5001
19.4124
20.5065
22.1667
24.7934
28.7341
34.504
42.2632
51.6846
63.4853
78.3054
97.5894
124.108
162.687
219.846
300.933
387.91
414.827
342.44
236.096
123.529
10.6057
27.8722
0.0111554
0.0960474
0.254965
0.482264
0.774679
1.13501
1.56634
2.06868
2.64875
3.31188
4.06682
4.91703
5.86816
6.91555
8.06039
9.2887
10.5754
11.8923
13.2085
14.4726
15.6422
16.7014
17.6457
18.4956
19.3173
20.233
21.542
23.5984
26.7118
31.4062
38.2546
47.4606
58.6003
72.6343
90.2476
113.454
146.366
194.649
265.478
358.499
433.784
416.554
314.299
202.482
89.3701
20.6574
26.8492
0.0110986
0.0954177
0.25403
0.4795
0.771879
1.12952
1.55694
2.05833
2.6347
3.29623
4.04568
4.89184
5.84062
6.88701
8.0302
9.26016
10.5536
11.8812
13.2007
14.4816
15.6716
16.7329
17.6719
18.4957
19.252
20.0398
21.109
22.7147
25.1086
28.7655
34.3372
42.4526
53.3475
66.477
83.1148
103.989
132.496
173.862
234.504
320.83
419.459
464.231
397.909
279.221
167.915
62.5202
16.8366
23.6213
0.0110448
0.0949105
0.252387
0.477548
0.768109
1.1252
1.54929
2.04601
2.62234
3.27988
4.0262
4.86699
5.80893
6.85619
7.99739
9.22728
10.5223
11.8588
13.1882
14.4739
15.6761
16.7543
17.6863
18.4932
19.2051
19.9014
20.8006
22.097
23.9223
26.6794
30.9689
37.5565
47.1247
59.9066
75.2043
94.7016
119.698
155.881
208.058
284.086
385.401
475.33
470.468
363.391
235.06
127.446
37.3593
1.20946
19.5873
0.0110009
0.0944451
0.250771
0.475002
0.764212
1.1197
1.54313
2.03462
2.60666
3.26314
4.00758
4.84527
5.78025
6.82145
7.96104
9.1911
10.488
11.8241
13.1661
14.4593
15.6659
16.7531
17.6952
18.4872
19.1679
19.8014
20.5751
21.6498
23.0885
25.1452
28.3236
33.3359
41.0717
52.1587
66.8366
84.2326
107.018
138.995
184.647
250.842
344.859
455.183
513.343
449.971
316.47
189.704
83.3807
18.1291
17.2289
15.9839
0.0109592
0.0939986
0.249514
0.472007
0.76015
1.11399
1.53551
2.02716
2.59096
3.24365
3.98579
4.82242
5.75555
6.78774
7.92249
9.14879
10.4498
11.7861
13.1315
14.4348
15.6506
16.7408
17.6877
18.4823
19.1355
19.7241
20.4076
21.3207
22.4853
24.0694
26.3956
30.0529
35.8468
44.7253
57.1491
73.2387
92.7265
121.368
162.31
220.348
304.347
416.669
519.984
521.216
407.169
256.781
161.749
48.146
5.5632
24.7714
13.1418
0.0109106
0.0936917
0.248302
0.469635
0.755996
1.10725
1.52767
2.01833
2.5821
3.22541
3.96194
4.79633
5.7288
6.75718
7.88606
9.10594
10.4038
11.7467
13.0906
14.4011
15.6254
16.7241
17.6727
18.4644
19.1125
19.6595
20.2773
21.0753
22.0378
23.2863
25.0441
27.6827
31.8448
38.3581
48.0972
61.1213
77.891
101.765
138.747
190.681
265.051
370.504
494.909
563.55
494.625
344.782
198.821
116.417
30.5157
1.04045
15.7217
10.887
0.0108569
0.0935494
0.247734
0.467686
0.752187
1.10123
1.51855
2.008
2.57197
3.21397
3.94114
4.76834
5.6979
6.72569
7.8505
9.06629
10.3568
11.6992
13.0492
14.3609
15.5915
16.6997
17.6527
18.4445
19.0829
19.6122
20.1724
20.8828
21.7013
22.7028
24.0612
26.0284
28.9999
33.5976
40.5037
50.3051
63.0446
81.7561
113.576
159.449
225.786
321.308
449.275
567.291
569.25
437.473
270.662
159.078
45.5553
19.5688
0.1986
2.43149
8.88621
0.0108019
0.0932798
0.247215
0.466624
0.749049
1.09644
1.51032
1.9973
2.55882
3.20104
3.92681
4.74301
5.66503
6.69253
7.81541
9.02909
10.3136
11.6491
13.0015
14.3189
15.5534
16.6658
17.6264
18.4192
19.0553
19.5655
20.089
20.7311
21.4387
22.2624
23.3248
24.8202
27.0189
30.2772
35.063
41.8141
50.8032
64.119
88.3418
127.346
184.672
269.984
391.363
535.449
612.87
530.631
357.575
204.947
138.101
7.5275
7.21495
13.1927
21.7918
7.23314
0.0107547
0.0927955
0.245948
0.4655
0.747242
1.09186
1.5037
1.98649
2.54526
3.1848
3.91062
4.72533
5.63679
6.65515
7.77824
8.98888
10.2723
11.6028
12.9498
14.2706
15.5116
16.6287
17.5929
18.3902
19.0227
19.5273
20.013
20.6084
21.2326
21.919
22.7668
23.9153
25.569
27.9746
31.4213
36.191
42.7727
51.4288
68.2829
96.7649
143.84
216.338
326.124
475.69
613.721
610.284
453.833
273.014
158.028
50.7352
1.07378
1.68584
45.8983
38.3736
5.68363
0.0107225
0.0923753
0.244704
0.463171
0.745245
1.08905
1.49744
1.97669
2.53162
3.16801
3.89262
4.70593
5.61567
6.62514
7.73898
8.94762
10.2279
11.5583
12.9011
14.2179
15.4653
16.5878
17.5582
18.356
18.9906
19.4829
19.9552
20.5061
21.0633
21.6502
22.3313
23.2274
24.4819
26.2808
28.8822
32.5982
37.9632
45.259
55.0657
73.6661
107.486
164.649
257.036
397.313
568.318
657.238
552.202
357.049
202.252
130.714
10.0933
2.57921
5.6912
67.4935
42.2067
4.23119
0.0106928
0.0918761
0.243631
0.460837
0.741527
1.08589
1.49338
1.96962
2.5192
3.15265
3.87209
4.68598
5.59074
6.59781
7.70168
8.9037
10.1832
11.5109
12.854
14.1686
15.415
16.5445
17.5184
18.3231
18.9554
19.4436
19.8872
20.4272
20.9361
21.4252
21.9904
22.6887
23.6522
25.0186
26.9756
29.9871
34.2784
40.3935
48.739
60.0925
80.2449
121.277
191.877
310.183
484.539
650.453
639.153
452.926
264.091
155.297
41.2571
0.832784
3.47353
6.86937
66.5159
33.7481
3.13211
0.0106606
0.0914875
0.242835
0.45883
0.737833
1.08052
1.48991
1.96409
2.51143
3.1388
3.85376
4.6618
5.56665
6.56915
7.67096
8.85942
10.1345
11.4625
12.8068
14.1207
15.3666
16.4977
17.4746
18.2853
18.9203
19.4041
19.827
20.3397
20.8309
21.273
21.7035
22.2656
23.0008
24.0466
25.5708
27.9158
31.4129
36.3731
43.3485
52.8596
65.5612
89.1272
139.309
228.348
379.499
581.673
687.752
555.495
341.325
194.913
116.319
16.9496
12.7703
9.34842
4.15909
43.3057
25.7125
2.25654
0.0106207
0.0913476
0.24218
0.457376
0.735382
1.07612
1.48371
1.95921
2.50572
3.12755
3.83846
4.6373
5.5406
6.54146
7.63943
8.82727
10.0888
11.413
12.7587
14.0746
15.3187
16.4511
17.4302
18.243
18.8824
19.3644
19.7695
20.2632
20.7233
21.1325
21.5219
21.9151
22.4871
23.2791
24.4642
26.3059
29.0704
33.1361
38.8771
46.8229
57.415
70.7678
101.413
163.694
277.676
467.063
665.796
648.374
433.608
247.335
144.443
28.4361
9.89988
19.9442
15.0658
23.275
9.14314
18.3524
1.57447
0.0105716
0.0909888
0.241463
0.456132
0.733118
1.07361
1.47779
1.95253
2.49768
3.12001
3.82477
4.6212
5.51402
6.51022
7.60808
8.79447
10.0525
11.3664
12.7071
14.0274
15.2722
16.4039
17.3868
18.2007
18.8423
19.3226
19.7147
20.1928
20.6306
21.0014
21.3394
21.6916
22.0772
22.6708
23.5793
25.0168
27.2117
30.4509
35.1869
41.8716
50.9188
62.3266
76.5275
117.96
197.246
344.286
566.521
693.736
536.81
314.69
180.558
91.7519
11.3919
5.63592
16.4866
11.1959
51.4547
22.2665
12.4864
1.06183
0.0105232
0.0905835
0.240564
0.455373
0.730484
1.06929
1.47285
1.94319
2.48884
3.11155
3.81511
4.60636
5.49456
6.48282
7.57364
8.75896
10.0165
11.3268
12.6582
13.9752
15.2261
16.3589
17.3438
18.1595
18.8012
19.2803
19.6583
20.1282
20.5481
20.89
21.1809
21.4645
21.793
22.2057
22.8807
23.9883
25.7066
28.3099
32.1418
37.6448
45.35
55.5203
67.535
87.5681
140.728
243.927
430.719
651.05
629.599
398.955
225.324
120.751
19.5289
8.23037
14.2784
1.88055
6.72332
76.3997
42.6009
8.1935
0.696604
0.0104783
0.0901643
0.239525
0.453685
0.729883
1.06561
1.46724
1.9367
2.47884
3.10056
3.80473
4.59516
5.47771
6.45963
7.54082
8.71969
9.97955
11.2882
12.6193
13.9282
15.1752
16.3163
17.2997
18.1197
18.7613
19.2396
19.6061
20.0625
20.4737
20.7936
21.0475
21.2752
21.5196
21.8421
22.341
23.1813
24.5184
26.5657
29.647
34.1798
40.5492
49.2353
60.2167
72.8644
103.505
172.792
308.438
530.483
667.301
494.362
282.498
155.087
60.6598
5.81807
0.952039
12.8531
3.58738
7.65744
75.4497
49.5063
5.46766
0.43295
0.0104496
0.0896826
0.238441
0.451767
0.728051
1.06459
1.46352
1.93102
2.47059
3.08801
3.79081
4.58173
5.4633
6.43912
7.51464
8.68631
9.93653
11.2508
12.5806
13.8884
15.1286
16.2672
17.2595
18.0796
18.7219
19.2011
19.563
19.9973
20.4008
20.7069
20.9349
21.1174
21.2952
21.5229
21.8918
22.529
23.5641
25.1789
27.6326
31.2811
36.5836
43.9005
53.5007
64.9129
79.9302
125.655
218.498
393.665
611.315
580.086
353.147
195.696
91.8682
19.8491
3.15487
2.14878
13.5652
21.8855
12.7131
44.0093
38.0431
3.38449
0.259777
0.0104335
0.0894476
0.237513
0.450349
0.725065
1.0619
1.46207
1.92629
2.46347
3.07784
3.77613
4.56577
5.45003
6.42289
7.49187
8.65679
9.90024
11.2083
12.5426
13.8461
15.088
16.2196
17.2156
18.0389
18.6847
19.1619
19.5228
19.9385
20.3286
20.6258
20.8348
20.9841
21.1101
21.2598
21.5198
21.9937
22.7847
24.0511
26.0055
28.9562
33.282
39.4368
47.7364
58.0729
69.7816
94.938
157.209
282.733
491.099
611.551
433.856
243.632
121.972
24.0154
5.4647
0.8572
3.17309
11.6857
19.3669
45.654
0.125525
23.8354
2.01598
0.150055
0.0104176
0.0893142
0.236903
0.44862
0.722831
1.0587
1.45833
1.92566
2.45762
3.0711
3.76544
4.54957
5.43022
6.40648
7.47162
8.63025
9.86996
11.1657
12.4975
13.8061
15.0448
16.1825
17.1731
17.9983
18.6477
19.124
19.4799
19.8843
20.2601
20.5465
20.7419
20.8667
20.9536
21.0431
21.2124
21.5565
22.1551
23.1383
24.6933
27.0675
30.6047
35.7068
42.8051
52.0377
62.7674
76.2363
117.184
203.402
367.569
561.33
506.435
300.433
157.599
58.4036
6.36663
1.81071
1.64039
5.74535
1.84652
19.8449
69.1113
37.5403
13.8958
1.15256
0.0826314
0.0103956
0.0894359
0.236588
0.447034
0.720171
1.0554
1.45395
1.92083
2.45641
3.06388
3.7595
4.53719
5.41206
6.3866
7.45285
8.61103
9.84348
11.1326
12.4527
13.7633
15.0056
16.1427
17.1367
17.9604
18.61
19.0901
19.4386
19.8276
20.1976
20.4711
20.6531
20.7599
20.8166
20.8603
20.9581
21.1949
21.6408
22.4003
23.6275
25.5422
28.421
32.6459
38.6312
46.7178
56.6586
67.563
90.9334
149.507
268.991
459.623
539.268
362.705
198.073
84.2636
17.4735
2.36411
0.256758
4.02436
7.82068
7.39635
11.8217
83.1532
55.0614
7.84699
0.634236
0.0430256
0.0103572
0.0892428
0.236894
0.446007
0.717727
1.0517
1.44949
1.91347
2.4502
3.06013
3.75125
4.52787
5.39735
6.36731
7.43324
8.58981
9.82243
11.108
12.4189
13.721
14.9657
16.1071
17.1002
17.9255
18.5744
19.0538
19.4033
19.7714
20.1344
20.4019
20.569
20.6603
20.6935
20.7015
20.7417
20.8938
21.2161
21.7953
22.7639
24.2999
26.6522
30.1296
35.1607
42.1226
51.1277
61.3641
74.1778
113.859
197.589
353.328
509.712
422.589
241.859
114.608
30.1061
3.7869
0.525065
2.60964
4.83964
9.59745
29.4824
13.0167
58.1122
50.2299
4.3934
0.326544
0.0212763
0.010311
0.0886983
0.236432
0.446471
0.716157
1.0484
1.44456
1.90769
2.443
3.0545
3.74638
4.51969
5.38281
6.35066
7.41412
8.56662
9.798
11.0836
12.3909
13.6855
14.9268
16.0685
17.0699
17.8927
18.5416
19.0213
19.3674
19.7217
20.0704
20.3329
20.4937
20.5673
20.5815
20.5604
20.5562
20.6383
20.8604
21.297
22.0529
23.2876
25.2025
28.0814
32.2739
38.2349
46.2121
55.8512
66.4219
89.9142
148.13
265.113
434.2
458.451
289.217
146.354
48.8794
7.71612
0.573457
0.081042
6.87463
2.98327
8.69395
23.8145
34.684
0.352052
30.4677
2.25153
0.16022
0.0100016
0.0102661
0.0885506
0.235319
0.446208
0.716952
1.04729
1.44028
1.90142
2.43746
3.04756
3.73927
4.51637
5.37634
6.33456
7.39399
8.54542
9.77292
11.0582
12.3658
13.657
14.8911
16.0307
17.0299
17.8633
18.5097
18.9913
19.3338
19.6744
20.013
20.2644
20.4191
20.4836
20.4792
20.4326
20.3927
20.42
20.5595
20.8782
21.467
22.4509
24.0157
26.3907
29.9071
34.9483
41.9445
50.8295
60.6782
74.4016
114.434
198.386
346.098
453.526
335.641
180.183
69.973
13.1128
2.09003
0.931444
3.98303
10.4415
4.46957
1.27262
18.7361
79.3897
46.2075
15.4179
1.10306
0.0747426
0.0043578
0.0102262
0.0881702
0.235084
0.444821
0.716555
1.0495
1.43897
1.8978
2.42976
3.04084
3.73071
4.50794
5.3753
6.32641
7.37892
8.52661
9.74937
11.0308
12.3426
13.6337
14.865
15.9995
16.995
17.826
18.481
18.9582
19.3002
19.6276
19.9612
20.2038
20.3462
20.4026
20.3845
20.3167
20.2453
20.2281
20.3036
20.5234
20.973
21.7615
23.0322
25.0004
27.9333
32.2153
38.2518
46.3001
55.7178
66.2137
91.4813
150.838
265.871
407.026
373.129
215.044
93.7351
22.2408
3.60566
0.303489
1.76974
7.98303
11.1066
9.38878
15.9178
0.0991211
87.9341
62.4999
7.48939
0.518426
0.0320664
0.00175295
0.0101964
0.0876365
0.234119
0.443753
0.714423
1.04794
1.44171
1.89609
2.42529
3.03146
3.72259
4.49826
5.36528
6.32406
7.37054
8.51262
9.7319
11.0049
12.3172
13.6135
14.8448
15.9721
16.9666
17.7951
18.4514
18.933
19.2669
19.5843
19.9112
20.1501
20.2798
20.3234
20.2943
20.2114
20.1113
20.0577
20.0787
20.222
20.5561
21.1807
22.2185
23.8414
26.2987
29.9145
35.1155
42.2291
51.1257
60.6359
76.0781
117.926
202.989
335.492
386.771
250.96
118.099
33.9851
5.45495
0.963624
0.744823
5.48296
11.4495
8.89989
11.4351
30.6771
22.4694
39.1097
48.0701
3.57641
0.220406
0.0129999
0.000631311
0.0101858
0.087404
0.232679
0.442065
0.712785
1.04492
1.44099
1.89787
2.42339
3.02619
3.71146
4.48821
5.3527
6.31234
7.36409
8.49895
9.7162
10.9854
12.2911
13.589
14.8247
15.9526
16.94
17.7683
18.4251
18.9066
19.2413
19.5402
19.8642
20.0984
20.2213
20.2503
20.208
20.1111
19.9903
19.9044
19.8797
19.959
20.2018
20.6888
21.5328
22.8785
24.9326
27.9933
32.4344
38.6743
46.799
56.1066
66.6487
94.8741
156.963
266.972
365.047
283.682
146.544
48.3195
8.08533
1.98314
0.774909
3.97056
8.50387
14.022
2.0564
6.8974
29.463
71.0172
32.8728
24.5079
1.49845
0.0910915
0.00475481
0.000314471
0.0101823
0.0873297
0.232103
0.440098
0.710196
1.04378
1.4386
1.89852
2.42742
3.02612
3.70547
4.47795
5.34082
6.29884
7.35347
8.49135
9.70094
10.9723
12.2698
13.5615
14.8009
15.9337
16.923
17.7445
18.3993
18.8815
19.2133
19.5019
19.8135
20.0476
20.1679
20.1862
20.1282
20.015
19.8777
19.7653
19.7025
19.7263
19.8927
20.2701
20.9525
22.068
23.7925
26.3757
30.1723
35.5827
42.9034
51.7191
61.1247
79.0129
123.67
209.991
318.061
309.458
170.432
64.9824
13.1198
2.67846
0.911994
3.6837
6.71006
10.4261
15.7642
6.65533
2.02713
5.88734
105.283
66.0813
9.93555
0.633259
0.0336896
0.00155305
0.000143905
0.0101762
0.0875165
0.232272
0.439701
0.708126
1.04021
1.43696
1.89718
2.42837
3.03338
3.70807
4.47317
5.332
6.28775
7.34043
8.48358
9.69556
10.9627
12.2554
13.5427
14.7737
15.9148
16.9059
17.7311
18.3746
18.8552
19.186
19.4624
19.7696
19.9926
20.1126
20.1292
20.0583
19.9273
19.7698
19.6362
19.5428
19.52
19.6203
19.9067
20.4565
21.3812
22.8315
25.0255
28.2576
32.9362
39.413
47.6698
56.6377
67.9195
100.088
165.139
265.031
310.911
198.872
84.9291
16.2293
3.26482
0.69531
3.47426
7.0437
8.15065
13.3111
14.5374
21.8236
28.2485
19.7506
58.9454
57.1149
4.34685
0.232276
0.0117944
0.000474119
1.13058e-05
0.0101612
0.0874689
0.23262
0.440122
0.707604
1.03737
1.4323
1.89501
2.42441
3.03443
3.71636
4.47335
5.33075
6.27757
7.32898
8.46961
9.68674
10.9572
12.2439
13.5268
14.7594
15.8926
16.8893
17.7191
18.3608
18.8296
19.1578
19.4252
19.7249
19.9444
20.0551
20.0704
19.9955
19.8518
19.6715
19.5149
19.3948
19.3345
19.38
19.5879
20.0276
20.7934
22.0143
23.8798
26.6505
30.6695
36.3563
43.8792
52.6754
62.0346
83.2633
131.613
216.269
288.616
229.049
99.4383
19.1664
4.91559
0.230911
2.26241
7.60441
8.93985
10.1628
15.9864
1.25576
14.4652
29.3565
60.372
28.9144
29.881
1.56518
0.0827427
0.00357724
0.000226275
3.12622e-05
0.0101356
0.0871742
0.232555
0.440245
0.707412
1.03547
1.42859
1.88909
2.42155
3.02731
3.71704
4.48016
5.33047
6.27532
7.31734
8.45546
9.67145
10.9478
12.2419
13.5115
14.7459
15.8786
16.8725
17.7038
18.352
18.8133
19.1281
19.3884
19.6847
19.8986
20.0044
20.0081
19.9331
19.7813
19.5867
19.4042
19.2566
19.1648
19.1649
19.3057
19.6523
20.2836
21.3134
22.9021
25.2778
28.7482
33.6963
40.4595
48.7957
57.615
71.4367
107.111
174.722
255.985
247.659
123.932
35.8032
5.27488
1.13846
0.437071
6.55592
10.6442
10.4244
11.0576
12.7956
11.3469
0.787918
3.69294
114.229
70.8383
10.4185
0.570827
0.0259835
0.00094277
0.000154645
6.70979e-06
0.0100959
0.0869796
0.231993
0.440214
0.708606
1.03536
1.42775
1.88452
2.41658
3.02364
3.71172
4.48104
5.3376
6.27973
7.31473
8.44641
9.6607
10.9353
12.2366
13.5122
14.7278
15.8623
16.8569
17.6885
18.3426
18.8051
19.1116
19.351
19.6483
19.8604
19.9573
19.9547
19.8663
19.7119
19.5083
19.3065
19.1299
19.0075
18.9682
19.0541
19.3199
19.839
20.7087
22.0639
24.1032
27.1004
31.4121
37.4072
45.1585
53.7855
63.5536
89.1484
141.47
219.738
248.801
152.262
48.3288
9.67456
1.58598
0.245798
4.23828
10.2582
12.765
10.4633
10.8882
8.51366
21.7143
23.2266
11.7168
56.9474
58.4577
3.93721
0.179216
0.00746207
0.000449784
5.87601e-05
3.91111e-06
0.0100513
0.0868495
0.231541
0.439861
0.708699
1.03838
1.42941
1.88544
2.4131
3.02011
3.70712
4.4774
5.33907
6.29
7.31815
8.44327
9.65484
10.9239
12.2244
13.5115
14.7297
15.8483
16.8444
17.673
18.3284
18.7993
19.1035
19.325
19.6084
19.8239
19.918
19.9051
19.8069
19.6425
19.4307
19.2178
19.0171
18.8628
18.7872
18.8255
19.0254
19.447
20.1802
21.3395
23.0952
25.686
29.4377
34.7338
41.7915
50.1556
58.9228
76.1712
115.866
184.203
237.695
179.872
64.4282
13.0836
2.6651
0.260063
2.31211
8.16629
12.7027
12.8357
9.95983
9.8273
1.06692
15.2907
25.0118
57.1605
40.4039
27.2253
1.21714
0.0528406
0.00171474
0.00019966
4.90868e-06
1.89813e-06
0.0100075
0.0868678
0.231121
0.439794
0.708311
1.03868
1.43196
1.88955
2.41215
3.01609
3.70295
4.47491
5.33417
6.29532
7.33122
8.44753
9.65111
10.9174
12.2122
13.4991
14.729
15.8533
16.8326
17.6585
18.3123
18.7887
19.0953
19.309
19.5765
19.7798
19.8781
19.8618
19.7544
19.5787
19.3539
19.131
18.9172
18.7331
18.6222
18.6171
18.7595
19.0996
19.714
20.7092
22.2242
24.4701
27.7334
32.3854
38.7526
46.6847
55.0918
66.6456
96.7518
152.546
217.332
200.392
86.6738
20.0296
3.40317
2.15725
1.7694
5.91151
11.1064
14.1231
11.372
7.622
9.26126
11.4212
0.582642
23.3633
97.7988
78.0706
8.23134
0.365423
0.014033
0.00054083
2.56961e-05
2.78195e-06
1.73085e-06
0.00996752
0.0861319
0.230621
0.438467
0.7092
1.03826
1.4325
1.89108
2.41498
3.01497
3.6985
4.47026
5.33581
6.29105
7.33956
8.46023
9.65415
10.9128
12.2051
13.4876
14.7221
15.8535
16.8364
17.6477
18.2948
18.7746
19.0866
19.292
19.554
19.743
19.8328
19.8198
19.7082
19.5204
19.2859
19.0447
18.8208
18.6185
18.4736
18.4274
18.5171
18.7883
19.304
20.1536
21.468
23.4176
26.2605
30.3403
36.0198
43.4079
51.7258
60.6852
82.2844
126.553
191.46
208.979
115.101
27.6508
5.32194
0.876055
2.8672
4.99497
8.82511
13.7676
13.679
7.92314
6.35219
4.11894
19.9911
34.9873
22.2394
24.192
51.3862
2.53544
0.0982512
0.00293968
0.000190769
2.81567e-05
6.28932e-07
2.14314e-06
0.00993934
0.0858319
0.229372
0.436931
0.707218
1.03948
1.43211
1.89199
2.41931
3.0185
3.69672
4.46387
5.32904
6.29072
7.33821
8.4711
9.67399
10.9162
12.203
13.4795
14.7154
15.8486
16.8378
17.6514
18.2857
18.7583
19.0736
19.2744
19.5357
19.7195
19.7934
19.7727
19.6621
19.4708
19.2224
18.9685
18.7247
18.5098
18.3404
18.2553
18.297
18.5062
18.9364
19.6663
20.8008
22.5045
24.9867
28.5652
33.6068
40.357
48.4086
56.7348
71.6414
105.96
163.992
206.676
145.583
40.99
7.83721
1.90006
1.48341
6.21364
7.83336
11.9088
14.7847
10.9064
3.95535
4.10361
3.59671
10.6997
31.7135
88.127
64.0946
17.6913
0.68351
0.0228028
0.000629672
1.69099e-05
4.85974e-07
1.11019e-07
2.26418e-06
0.00992593
0.0859848
0.229052
0.435415
0.704948
1.03686
1.43215
1.89363
2.42307
3.02671
3.70437
4.46369
5.31947
6.28372
7.33965
8.47326
9.68306
10.9395
12.2122
13.4828
14.7077
15.843
16.8334
17.6518
18.2903
18.7456
19.0568
19.2567
19.5171
19.7003
19.7677
19.7309
19.6123
19.4209
19.1662
18.8987
18.6387
18.4026
18.216
18.1009
18.0983
18.2508
18.6061
19.2314
20.2175
21.7013
23.8787
27.0221
31.4815
37.5906
45.233
53.3416
63.584
90.1826
138.475
193.489
170.158
62.471
11.0304
2.50904
1.44439
6.02002
7.29932
10.236
13.9706
13.5398
6.66373
0.966914
4.75688
19.0243
25.0085
12.9928
62.8917
71.5437
4.80098
0.16084
0.00447281
0.00013209
8.64184e-05
1.17885e-06
8.32182e-07
2.63217e-06
0.00993113
0.08589
0.229417
0.43563
0.702676
1.03506
1.43036
1.8938
2.42534
3.03149
3.71448
4.4756
5.3212
6.27305
7.33115
8.47259
9.68209
10.9511
12.2305
13.4932
14.7088
15.84
16.8298
17.6542
18.2922
18.7516
19.0434
19.2379
19.4931
19.6823
19.7453
19.7018
19.5669
19.3684
19.1147
18.8352
18.5606
18.3063
18.0951
17.9585
17.9192
18.0197
18.3077
18.8402
19.7001
20.9978
22.9058
25.6767
29.6184
35.0953
42.2236
50.2855
58.76
78.0098
117.089
173.381
184.353
91.8986
16.3455
1.85725
2.32859
4.04028
12.0716
8.01905
11.7495
13.9239
10.5288
3.91905
2.97807
2.43452
13.4557
46.7895
52.8451
30.9671
32.4745
1.12154
0.033682
0.000836742
0.000118315
5.57225e-06
1.57919e-06
5.05863e-07
2.8614e-06
0.00994203
0.0859501
0.229252
0.436368
0.703063
1.03203
1.42983
1.89158
2.42799
3.03164
3.71712
4.48634
5.33918
6.27649
7.32302
8.46467
9.68214
10.9491
12.2418
13.5122
14.7172
15.8435
16.8302
17.66
18.2985
18.7556
19.0452
19.2188
19.464
19.6547
19.7241
19.6776
19.5326
19.3199
19.0586
18.7758
18.4891
18.2176
17.9858
17.8225
17.7545
17.8111
18.0369
18.489
19.2348
20.376
22.0556
24.4937
27.9876
32.8809
39.4198
47.2218
55.2443
68.858
99.8553
151.012
186.627
123.991
28.6415
3.56697
2.35143
4.75065
7.27471
12.5656
9.09639
11.8255
12.2717
8.58224
2.76437
5.33772
10.6343
4.36259
26.8597
109.758
83.8794
7.81792
0.240634
0.00592207
9.74458e-05
0.000112417
5.32852e-06
3.0149e-07
7.95604e-07
3.23696e-06
0.00995299
0.0860777
0.22903
0.436166
0.704096
1.03105
1.42583
1.89085
2.42541
3.03471
3.72025
4.49024
5.35302