/*--------------------------------*- C++ -*----------------------------------*\
| =========                 |                                                 |
| \\      /  F ield         | OpenFOAM: The Open Source CFD Toolbox           |
|  \\    /   O peration     | Version:  v2012                                 |
|   \\  /    A nd           | Website:  www.openfoam.com                      |
|    \\/     M anipulation  |                                                 |
\*---------------------------------------------------------------------------*/
FoamFile
{
    version     2.0;
    format      ascii;
    class       volScalarField;
    location    "11500";
    object      rho;
}
// * * * * * * * * * * * * * * * * * * * * * * * * * * * * * * * * * * * * * //

dimensions      [1 -3 0 0 0 0 0];


internalField   nonuniform List<scalar> 
53312
(
0.012535
0.0107617
0.0112442
0.00885515
0.0103197
0.0108089
0.00857419
0.00861337
0.0099662
0.0107214
0.00817177
0.0083806
0.00840376
0.00968039
0.0108092
0.00791539
0.00801423
0.00820755
0.00822104
0.00944987
0.0110052
0.00777557
0.00777955
0.00787133
0.00805208
0.00806126
0.00926588
0.0112842
0.007669
0.00765356
0.00765503
0.00774101
0.00791187
0.00792145
0.00912145
0.0116316
0.00759654
0.00755741
0.00754087
0.00754024
0.00762164
0.0077851
0.00779939
0.0090119
0.0120286
0.00753738
0.00749284
0.0074538
0.00743618
0.00743388
0.00751189
0.00767044
0.00769345
0.0089353
0.0124696
0.0074862
0.0074401
0.00739617
0.00735699
0.00733839
0.00733495
0.00741079
0.00756677
0.00760253
0.00888977
0.012951
0.0074395
0.00739425
0.00734915
0.00730544
0.00726604
0.00724666
0.00724268
0.00731759
0.00747332
0.00752579
0.00887517
0.0134709
0.00738929
0.00735204
0.00730807
0.00726347
0.0072198
0.0071802
0.00716035
0.00715647
0.00723168
0.00738958
0.00746302
0.00889163
0.0140282
0.00732404
0.00730578
0.00726989
0.00722665
0.0071823
0.00713858
0.0070989
0.00707893
0.00707586
0.00715267
0.00731527
0.00741446
0.00894016
0.014623
0.0072374
0.00724361
0.0072272
0.00719211
0.00714926
0.00710501
0.00706126
0.00702169
0.00700204
0.00700053
0.00708033
0.0072503
0.00738037
0.00902283
0.0152529
0.00715874
0.00715999
0.00716784
0.00715266
0.00711799
0.00707535
0.00703113
0.00698745
0.00694824
0.00692937
0.00693027
0.00701454
0.00719483
0.00736136
0.00914197
0.015918
0.00709124
0.00708147
0.00708709
0.00709592
0.00708152
0.00704702
0.00700446
0.0069603
0.00691683
0.0068783
0.00686076
0.006865
0.00695535
0.00714904
0.00735874
0.00930097
0.0166229
0.00706091
0.00701241
0.00700883
0.00701789
0.0070272
0.00701326
0.00697876
0.00693626
0.00689223
0.00684917
0.0068117
0.00679613
0.00680472
0.00690294
0.00711345
0.00737383
0.00950366
0.017369
0.00706404
0.00697863
0.00693857
0.00693996
0.00695178
0.00696119
0.00694748
0.00691291
0.00687047
0.00682671
0.00678434
0.00674835
0.00673545
0.00674954
0.00685759
0.00708902
0.0074088
0.00975647
0.0181588
0.00710997
0.00697765
0.00690184
0.00686872
0.00687422
0.00688826
0.0068975
0.00688387
0.0068492
0.0068069
0.0067636
0.00672223
0.00668825
0.00667882
0.00669968
0.00681978
0.00707676
0.0074661
0.0100663
0.0189926
0.00714754
0.00701921
0.00689748
0.00682958
0.00680224
0.00681111
0.00682695
0.00683584
0.00682219
0.00678745
0.00674542
0.00670281
0.00666282
0.00663143
0.00662637
0.00665545
0.00679019
0.00707806
0.00754893
0.0104369
0.0198849
0.00719088
0.00705368
0.00693533
0.00682236
0.00676105
0.00673858
0.00675025
0.00676757
0.00677597
0.00676226
0.00672752
0.00668594
0.00664431
0.00660615
0.00657803
0.00657836
0.0066173
0.00676958
0.00709466
0.00766119
0.0108813
0.0208409
0.00722989
0.00709447
0.00696725
0.00685706
0.00675146
0.00669571
0.00667735
0.00669136
0.0067099
0.00671769
0.00670394
0.00666933
0.00662843
0.00658813
0.00655232
0.00652823
0.00653512
0.00658577
0.00675897
0.0071287
0.00780765
0.0114067
0.0218728
0.00725987
0.00713153
0.00700598
0.00688689
0.00678348
0.00668417
0.00663312
0.00661826
0.0066342
0.00665375
0.00666089
0.00664716
0.00661285
0.00657289
0.00653435
0.00650149
0.0064823
0.00649709
0.00656161
0.00675966
0.00718272
0.00799399
0.0120301
0.0229932
0.00728681
0.00716012
0.00704147
0.00692391
0.0068116
0.00671392
0.00662003
0.00657298
0.00656107
0.00657863
0.00659902
0.00660547
0.00659187
0.00655807
0.00651941
0.00648309
0.00645387
0.0064406
0.00646479
0.00654563
0.00677309
0.00725996
0.00822723
0.0127634
0.0242258
0.00730696
0.00718595
0.00706899
0.00695814
0.00684723
0.00674065
0.00664789
0.00655869
0.00651504
0.00650563
0.00652451
0.00654563
0.0065514
0.00653808
0.00650506
0.00646808
0.00643456
0.00640977
0.00640356
0.0064389
0.00653896
0.00680139
0.00736448
0.00851387
0.0136389
0.0256062
0.00732586
0.00720535
0.00709397
0.00698484
0.00688044
0.00677515
0.00667353
0.00658501
0.00649992
0.00645915
0.00645183
0.00647178
0.00649353
0.00649867
0.00648583
0.00645391
0.00641908
0.006389
0.00636954
0.00637172
0.00642025
0.00654293
0.00684682
0.00750101
0.00886468
0.0146239
0.0271215
0.00733851
0.00722369
0.00711282
0.00700916
0.00690649
0.00680755
0.00670712
0.00660983
0.00652502
0.00644355
0.00640521
0.00639961
0.00642041
0.00644274
0.00644735
0.00643522
0.00640477
0.00637262
0.00634673
0.00633365
0.00634573
0.00640979
0.00655908
0.00691232
0.00767586
0.0092909
0.0157319
0.0286772
0.00734775
0.00723611
0.00713076
0.00702761
0.00693032
0.00683312
0.0067389
0.00664274
0.00654929
0.00646776
0.00638948
0.00635317
0.00634897
0.00637043
0.00639331
0.0063975
0.00638636
0.00635783
0.00632899
0.00630813
0.00630263
0.00632639
0.00640879
0.00658945
0.0070016
0.00789657
0.00980719
0.0169461
0.0303034
0.00735347
0.00724531
0.00714307
0.00704527
0.00694848
0.00685659
0.00676413
0.00667408
0.00658174
0.00649175
0.00641315
0.0063377
0.00630305
0.00629994
0.00632188
0.00634532
0.00634925
0.00633945
0.00631335
0.00628851
0.00627368
0.00627714
0.00631464
0.00641858
0.00663642
0.00711926
0.00817251
0.0104294
0.0182712
0.0317014
0.0073596
0.00725111
0.0071523
0.00705753
0.00696595
0.00687457
0.00678735
0.00669911
0.00661282
0.00652395
0.00643712
0.00636117
0.00628824
0.00625492
0.00625261
0.00627489
0.00629889
0.00630276
0.00629471
0.00627162
0.00625161
0.00624393
0.00625798
0.00631165
0.00644104
0.00670303
0.00727102
0.00851514
0.0111837
0.0197025
0.03301
0.00736287
0.00725737
0.00715824
0.00706685
0.00697823
0.00689191
0.00680523
0.00672219
0.00663777
0.00655493
0.00646929
0.0063854
0.00631188
0.00624121
0.00620892
0.00620714
0.0062296
0.00625422
0.00625826
0.00625241
0.00623302
0.00621878
0.00621957
0.00624608
0.00631875
0.00647829
0.00679302
0.00746414
0.00893865
0.0120914
0.0213394
0.0335517
0.00736435
0.0072609
0.00716467
0.00707295
0.00698767
0.00690426
0.00682252
0.00674004
0.0066608
0.00657993
0.00650033
0.00641776
0.00633667
0.00626543
0.00619678
0.00616523
0.00616371
0.0061862
0.00621151
0.00621601
0.00621291
0.00619799
0.00619061
0.00620139
0.00624259
0.00633769
0.00653304
0.00691116
0.00770769
0.00945938
0.0131765
0.0230851
0.0335401
0.0073641
0.00726273
0.0071685
0.00707958
0.00699394
0.00691382
0.00683496
0.00675732
0.0066787
0.00660302
0.00652553
0.00644906
0.00636947
0.00629108
0.006222
0.00615518
0.0061241
0.00612256
0.00614497
0.00617105
0.00617634
0.00617659
0.00616705
0.00616779
0.00619034
0.00624884
0.00637046
0.0066086
0.00706334
0.00801324
0.0100975
0.0144604
0.0248654
0.0332787
0.00736417
0.00726289
0.00717067
0.00708369
0.00700076
0.00692027
0.00684467
0.00676989
0.00669603
0.00662104
0.00654878
0.00647459
0.00640122
0.00632457
0.00624887
0.00618187
0.0061167
0.00608583
0.00608401
0.00610619
0.00613316
0.00613962
0.00614395
0.00614082
0.00615115
0.00618759
0.0062665
0.00641963
0.00670914
0.00725738
0.00839562
0.0108753
0.0159606
0.0265635
0.0327832
0.00736298
0.00726334
0.00717122
0.0070862
0.00700514
0.00692728
0.00685129
0.00677976
0.00670875
0.00663846
0.00656699
0.0064981
0.00642721
0.00635698
0.00628333
0.00621032
0.00614538
0.00608171
0.00605078
0.00604841
0.00607022
0.00609821
0.00610632
0.00611554
0.00612003
0.00614167
0.00619448
0.00629759
0.00648834
0.00684003
0.0075032
0.0088732
0.0118162
0.0176554
0.028189
0.0321428
0.00735945
0.0072626
0.00717205
0.00708712
0.00700796
0.00693191
0.00685849
0.00678655
0.00671879
0.00665138
0.00658456
0.00651659
0.00645112
0.00638361
0.00631661
0.00624605
0.00617581
0.00611293
0.00605062
0.00601938
0.00601617
0.00603748
0.00606666
0.00607696
0.00609202
0.00610555
0.00614056
0.0062127
0.00634459
0.00658053
0.00700806
0.00781361
0.00946842
0.0129378
0.0195291
0.0295987
0.031414
0.00735691
0.00725958
0.00717172
0.0070883
0.00700922
0.00693502
0.00686335
0.00679393
0.00672576
0.0066616
0.0065977
0.00653437
0.00646997
0.00640803
0.00634405
0.00628046
0.00621313
0.00614575
0.00608494
0.00602383
0.00599207
0.00598774
0.00600843
0.00603903
0.00605217
0.00607417
0.0060984
0.00614917
0.00624429
0.00641058
0.00670119
0.0072221
0.00820526
0.0102079
0.0142482
0.0215041
0.0309594
0.0305591
0.00735528
0.00725752
0.00716917
0.00708835
0.00701072
0.00693659
0.00686672
0.006799
0.00673329
0.00666873
0.00660811
0.00654776
0.006488
0.00642732
0.00636912
0.0063089
0.00624892
0.006185
0.00612059
0.0060619
0.00600184
0.00596932
0.00596363
0.00598362
0.00601588
0.00603266
0.00606291
0.00609984
0.00616929
0.00629174
0.00649943
0.00685677
0.0074936
0.00869951
0.0111198
0.0157348
0.0235505
0.0322511
0.029654
0.00735331
0.00725633
0.00716755
0.00708622
0.00701111
0.00693838
0.00686857
0.0068026
0.00673857
0.00667642
0.0066154
0.00655836
0.00650169
0.00644568
0.00638895
0.00633476
0.00627856
0.00622244
0.00616212
0.00610079
0.00604422
0.0059851
0.00595163
0.00594437
0.00596363
0.00599791
0.00601927
0.00605933
0.00611131
0.00620298
0.00635817
0.00661605
0.00705555
0.00783782
0.00932353
0.0122306
0.0173635
0.0255483
0.033319
0.0286963
0.0073494
0.0072548
0.00716678
0.00708501
0.00700938
0.00693907
0.0068706
0.00680469
0.00674237
0.00668187
0.00662324
0.00656582
0.0065125
0.00645971
0.00640772
0.00635523
0.00630536
0.00625347
0.00620147
0.00614493
0.00608677
0.00603235
0.00597405
0.00593948
0.00593052
0.00594913
0.00598586
0.00601301
0.00606476
0.00613467
0.00625284
0.00644751
0.00676676
0.00730853
0.00827472
0.0101101
0.0135543
0.0190796
0.027415
0.0341129
0.027795
0.00734267
0.00725137
0.00716566
0.00708462
0.00700851
0.00693768
0.00687157
0.00680695
0.00674466
0.00668585
0.00662885
0.0065738
0.00652012
0.00647075
0.00642212
0.00637448
0.00632659
0.00628139
0.00623412
0.00618648
0.00613386
0.00607894
0.00602668
0.00596912
0.00593337
0.00592274
0.00594085
0.00598065
0.00601512
0.0060808
0.00617212
0.00632212
0.00656474
0.00695975
0.00763016
0.00883069
0.0110953
0.0150804
0.0208273
0.0291376
0.0345552
0.027012
0.00733695
0.00724518
0.00716266
0.00708385
0.00700845
0.00693713
0.00687047
0.00680814
0.00674711
0.00668832
0.00663298
0.00657954
0.00652823
0.00647853
0.0064334
0.00638931
0.0063464
0.00630349
0.0062633
0.00622093
0.00617784
0.00612926
0.00607762
0.0060275
0.00597067
0.00593374
0.00592164
0.00593969
0.00598338
0.00602704
0.0061094
0.0062264
0.00641488
0.00671626
0.00720581
0.00803989
0.00953927
0.0123111
0.0167697
0.0225644
0.0305775
0.0347164
0.0263701
0.00733518
0.00723998
0.00715697
0.00708124
0.00700801
0.00693735
0.00687019
0.0068073
0.0067485
0.00669091
0.00663559
0.0065838
0.0065341
0.00648676
0.00644135
0.00640085
0.00636171
0.00632394
0.00628639
0.00625154
0.00621429
0.00617589
0.0061314
0.00608304
0.00603512
0.00597912
0.00594121
0.00592808
0.00594676
0.00599539
0.00605061
0.00615298
0.00630096
0.00653632
0.00691042
0.00751933
0.00856352
0.0104412
0.0137738
0.018552
0.0242571
0.0317678
0.0346125
0.025825
0.00733291
0.0072386
0.00715222
0.00707599
0.00700575
0.00693719
0.00687066
0.00680725
0.00674787
0.00669246
0.0066383
0.00658652
0.00653845
0.00649273
0.00644971
0.00640898
0.00637354
0.00633979
0.00630756
0.00627572
0.00624647
0.00621451
0.00618087
0.00614048
0.00609542
0.00604977
0.00599484
0.00595648
0.00594308
0.00596346
0.0060183
0.00608805
0.00621454
0.00640015
0.00669312
0.0071582
0.0079197
0.00923538
0.0115799
0.0154645
0.020347
0.0258803
0.0325891
0.0342462
0.025392
0.00732843
0.00723673
0.0071512
0.00707164
0.00700089
0.00693523
0.00687073
0.00680793
0.006748
0.00669201
0.00663997
0.00658932
0.00654125
0.00649716
0.00645576
0.00641744
0.00638184
0.00635192
0.00632402
0.00629771
0.00627185
0.00624838
0.00622177
0.00619291
0.00615662
0.00611489
0.00607176
0.00601849
0.0059805
0.00596787
0.00599145
0.00605412
0.0061421
0.00629786
0.00652949
0.00689388
0.00747438
0.00843329
0.0100989
0.0129899
0.0173187
0.0220826
0.0274192
0.0331629
0.0335598
0.0251425
0.00732276
0.0072327
0.00714968
0.00707093
0.00699689
0.00693071
0.00686904
0.0068082
0.00674885
0.00669229
0.00663966
0.00659107
0.0065441
0.0065
0.00646022
0.00642356
0.00639041
0.00636041
0.00633646
0.00631481
0.00629473
0.00627504
0.00625744
0.0062362
0.00621208
0.00617989
0.00614169
0.00610162
0.00605083
0.00601436
0.00600392
0.00603282
0.00610523
0.00621623
0.00640767
0.00669598
0.00715008
0.00787903
0.00909546
0.011205
0.0146757
0.0192348
0.0236911
0.0288361
0.0334133
0.0324151
0.0250102
0.00731667
0.0072275
0.00714605
0.00706973
0.00699645
0.00692702
0.00686482
0.00680673
0.00674929
0.00669326
0.00664003
0.00659085
0.00654588
0.00650285
0.00646308
0.00642804
0.00639657
0.00636909
0.00634515
0.00632759
0.00631253
0.00629887
0.00628546
0.00627373
0.0062578
0.00623841
0.00621046
0.00617623
0.00613997
0.00609274
0.00605936
0.00605312
0.00609016
0.00617467
0.00631468
0.00654986
0.00690863
0.00747734
0.00839956
0.00995271
0.0126014
0.016587
0.0210901
0.0251309
0.0300781
0.0336964
0.0311962
0.0249199
0.00731255
0.00722188
0.00714126
0.00706646
0.00699552
0.00692681
0.00686138
0.00680276
0.00674799
0.00669382
0.00664109
0.00659129
0.00654572
0.00650464
0.0064659
0.00643086
0.00640103
0.00637527
0.00635393
0.0063365
0.00632567
0.00631741
0.00631029
0.00630314
0.00629724
0.00628658
0.00627199
0.00624866
0.00621902
0.00618749
0.00614525
0.00611703
0.00611765
0.00616664
0.00626621
0.00644253
0.00673142
0.00717964
0.00789682
0.00907335
0.0110618
0.0143088
0.0186098
0.022776
0.0264133
0.0311092
0.0337646
0.0299758
0.024861
0.00731139
0.00721816
0.00713605
0.00706204
0.00699256
0.00692611
0.00686136
0.00679954
0.00674423
0.00669267
0.00664174
0.00659239
0.00654617
0.00650448
0.00646764
0.0064336
0.00640379
0.00637968
0.00636011
0.00634538
0.0063348
0.00633092
0.0063296
0.00632902
0.00632807
0.0063279
0.00632256
0.00631312
0.00629494
0.00627059
0.00624496
0.00620959
0.00618924
0.00620005
0.00626578
0.00638426
0.00660527
0.00696191
0.00752568
0.00843768
0.00995049
0.0124805
0.0162865
0.0205893
0.0242494
0.0274864
0.0318623
0.0336923
0.0289064
0.0248229
0.00730884
0.00721733
0.0071327
0.00705719
0.00698846
0.00692343
0.00686087
0.00679968
0.00674119
0.00668908
0.00664069
0.00659308
0.00654728
0.0065049
0.00646744
0.00643527
0.00640642
0.00638234
0.00636446
0.00635154
0.00634377
0.00634029
0.00634349
0.00634911
0.006355
0.00636015
0.00636576
0.00636601
0.00636216
0.00634968
0.00633156
0.00631334
0.0062872
0.0062781
0.00630315
0.00639072
0.00653299
0.00680989
0.00725478
0.00796934
0.00914021
0.0110937
0.0142412
0.0184086
0.0223925
0.0254455
0.0284644
0.0323759
0.0333895
0.0279792
0.024798
0.00730243
0.00721512
0.00713215
0.00705414
0.00698392
0.00691961
0.00685842
0.00679934
0.00674145
0.00668616
0.00663722
0.00659209
0.00654798
0.00650597
0.00646779
0.00643497
0.00640795
0.00638481
0.00636697
0.00635579
0.0063499
0.00634935
0.00635311
0.00636337
0.00637588
0.00638814
0.00639937
0.006411
0.00641722
0.00641941
0.00641339
0.00640265
0.00639371
0.00637963
0.00638567
0.00642936
0.00654351
0.00671721
0.00706668
0.00762756
0.00854205
0.0100591
0.0125697
0.0163051
0.0204937
0.0239205
0.0263659
0.0294346
0.032669
0.0329844
0.0271884
0.0247782
0.00729452
0.00720914
0.00713023
0.00705382
0.00698114
0.00691535
0.00685484
0.00679709
0.00674123
0.0066865
0.0066344
0.00658871
0.006547
0.00650663
0.00646877
0.0064352
0.0064075
0.00638616
0.00636924
0.00635812
0.00635402
0.00635543
0.00636225
0.00637326
0.0063905
0.00640978
0.00642839
0.00644592
0.00646388
0.00647643
0.00648526
0.00648663
0.00648472
0.00648722
0.00648822
0.00651317
0.00657904
0.00672488
0.00694688
0.00738942
0.00810444
0.00928758
0.0112641
0.0144172
0.018529
0.022369
0.0250965
0.027109
0.0301299
0.0328361
0.0323877
0.0265047
0.0247624
0.00728752
0.00720169
0.00712462
0.00705217
0.00698103
0.00691279
0.00685081
0.00679371
0.00673914
0.00668638
0.00663478
0.00658593
0.00654365
0.00650563
0.00646934
0.00643604
0.00640756
0.00638552
0.00637036
0.00636015
0.00635615
0.00635941
0.00636825
0.00638247
0.00640066
0.00642475
0.00645075
0.00647591
0.00649999
0.00652459
0.00654393
0.00656016
0.00657007
0.00657867
0.00659484
0.00661345
0.00665993
0.00675201
0.00693851
0.00723268
0.00779643
0.00871944
0.0102664
0.0128297
0.01659
0.0206936
0.0238996
0.0259528
0.0277997
0.0306637
0.0328107
0.0316989
0.0259483
0.0247484
0.0072843
0.00719512
0.00711757
0.00704688
0.0069796
0.00691285
0.00684844
0.00678988
0.00673593
0.00668442
0.00663472
0.00658631
0.00654087
0.00650226
0.00646827
0.00643649
0.00640822
0.00638535
0.00636947
0.00636099
0.0063579
0.00636129
0.00637207
0.00638839
0.00640991
0.00643518
0.00646602
0.00649889
0.00653088
0.00656173
0.00659334
0.00662007
0.00664465
0.00666447
0.00668531
0.00671701
0.00675525
0.00682551
0.00695358
0.00719257
0.00758782
0.00831347
0.00952088
0.0115563
0.0147969
0.018912
0.0225831
0.0250332
0.0265965
0.0285043
0.031143
0.0327894
0.0307577
0.0255071
0.0247365
0.00728501
0.00719222
0.00711137
0.00704018
0.0069746
0.0069116
0.00684864
0.00678766
0.00673226
0.00668133
0.00663284
0.00658627
0.00654122
0.00649944
0.00646483
0.00643529
0.00640849
0.00638578
0.00636903
0.00635981
0.00635842
0.00636273
0.00637369
0.00639201
0.00641574
0.00644444
0.0064767
0.00651442
0.00655436
0.00659341
0.0066313
0.00667039
0.00670528
0.00673931
0.00677053
0.0068055
0.00685528
0.00691639
0.00701553
0.00719495
0.00750123
0.00803126
0.00897788
0.0105761
0.01324
0.017098
0.0211153
0.0240591
0.025841
0.0271418
0.0288835
0.0315447
0.0326955
0.0297735
0.0251767
0.0247283
0.00728546
0.00719314
0.00710875
0.0070343
0.00696821
0.00690687
0.00684756
0.00678797
0.00673016
0.00667778
0.00662984
0.00658444
0.00654117
0.00649971
0.00646192
0.00643174
0.00640711
0.00638581
0.00636918
0.00635905
0.0063569
0.0063629
0.00637478
0.00639334
0.00641915
0.00645014
0.00648593
0.00652532
0.00657012
0.0066172
0.00666358
0.00670888
0.00675608
0.00680004
0.00684475
0.00688933
0.00694115
0.00701315
0.00710252
0.00723893
0.00747963
0.00788159
0.00859127
0.00984343
0.0119734
0.0153538
0.0195053
0.0229551
0.0251165
0.0264193
0.027636
0.0292713
0.0318237
0.0325389
0.0287247
0.0249892
0.0247228
0.00728251
0.0071938
0.00710984
0.00703191
0.0069626
0.00690073
0.00684304
0.00678701
0.00673054
0.00667576
0.00662638
0.0065815
0.00653935
0.0064996
0.00646207
0.00642867
0.00640339
0.0063842
0.00636893
0.00635886
0.00635577
0.006361
0.00637456
0.00639407
0.00642016
0.00645333
0.00649147
0.00653445
0.00658114
0.00663316
0.00668745
0.00674152
0.00679473
0.00685081
0.00690491
0.00696207
0.00702274
0.00709516
0.00719439
0.0073189
0.00750269
0.00781641
0.00835488
0.009309
0.0109867
0.013803
0.0177921
0.0216943
0.0243241
0.0258464
0.0269163
0.0278397
0.0297166
0.0320338
0.0322518
0.0276812
0.0248936
0.0247191
0.00727552
0.00719114
0.00711066
0.00703314
0.0069604
0.00689535
0.00683712
0.00678268
0.00672969
0.0066762
0.00662441
0.00657809
0.00653642
0.00649775
0.00646186
0.00642866
0.00640012
0.00638025
0.00636704
0.00635828
0.0063552
0.00635946
0.00637224
0.00639343
0.00642049
0.00645399
0.00649438
0.00653977
0.00659013
0.0066442
0.0067036
0.00676523
0.0068274
0.00688916
0.00695506
0.00702086
0.00709296
0.00717306
0.00727068
0.00740374
0.00757201
0.00781731
0.00822811
0.00895264
0.0102457
0.0125081
0.0160882
0.0202521
0.0234237
0.0252631
0.0263947
0.0272451
0.0280613
0.030146
0.0321465
0.0317742
0.0267456
0.0248322
0.0247167
0.00726661
0.00718455
0.00710826
0.0070341
0.00696174
0.00689331
0.00683194
0.00677696
0.00672551
0.00667541
0.00662487
0.00657613
0.00653301
0.0064948
0.00645994
0.00642831
0.0063999
0.00637673
0.0063628
0.00635606
0.00635425
0.00635847
0.00637025
0.00639065
0.0064194
0.00645389
0.00649466
0.00654235
0.00659514
0.00665292
0.00671446
0.00678148
0.0068507
0.00692141
0.00699255
0.00706967
0.00714935
0.00723932
0.00734305
0.00747141
0.00764524
0.00786627
0.00818189
0.00873676
0.00972207
0.0114887
0.0145058
0.0186567
0.0223651
0.0246363
0.0259244
0.0267909
0.0273395
0.0283593
0.030601
0.0321149
0.031047
0.0260043
0.0247895
0.0247151
0.00725827
0.00717606
0.00710199
0.0070319
0.00696282
0.00689474
0.00683004
0.00677195
0.00671995
0.00667137
0.00662413
0.00657658
0.00653104
0.00649136
0.00645691
0.00642627
0.00639936
0.00637625
0.00635897
0.00635148
0.00635164
0.00635711
0.00636882
0.00638819
0.00641614
0.00645233
0.0064941
0.00654218
0.00659733
0.00665758
0.00672284
0.00679198
0.00686687
0.00694412
0.0070239
0.00710559
0.0071957
0.00729173
0.00740325
0.00753591
0.00770271
0.0079285
0.0082151
0.00862169
0.0093798
0.010733
0.0131535
0.0169734
0.0211109
0.0239242
0.0254592
0.0263957
0.0270007
0.0274598
0.0286704
0.0310705
0.0321141
0.0300272
0.0254851
0.0247583
0.0247141
0.00725342
0.00716812
0.00709386
0.00702593
0.00696079
0.00689591
0.00683153
0.00677014
0.00671508
0.00666594
0.00662017
0.00657585
0.00653144
0.00648933
0.00645341
0.00642313
0.00639715
0.00637547
0.00635818
0.00634729
0.00634667
0.00635407
0.006367
0.00638626
0.00641317
0.00644855
0.00649202
0.0065411
0.00659667
0.00665929
0.00672703
0.00679987
0.00687679
0.00695986
0.00704585
0.00713565
0.00722932
0.0073346
0.00745051
0.00758821
0.00775611
0.00797088
0.00825793
0.00862208
0.00916783
0.0102102
0.012088
0.0153414
0.0196371
0.0230646
0.0249728
0.0260307
0.0266775
0.0270571
0.0276081
0.0291197
0.0313552
0.0319465
0.0288324
0.0251339
0.0247379
0.0247135
0.00725456
0.00716357
0.00708626
0.00701811
0.00695507
0.00689404
0.00683276
0.00677168
0.00671334
0.00666116
0.00661484
0.00657197
0.0065307
0.00648965
0.00645127
0.0064195
0.00639384
0.00637305
0.00635712
0.00634614
0.00634206
0.00634865
0.00636349
0.00638396
0.00641073
0.00644505
0.00648769
0.00653845
0.006595
0.00665807
0.00672819
0.00680347
0.00688402
0.00696895
0.00706061
0.00715631
0.00725752
0.00736517
0.00748829
0.00762737
0.00779812
0.00800939
0.00828077
0.00864151
0.00910308
0.00986157
0.0113109
0.0139188
0.01799
0.0219962
0.0244086
0.0256808
0.0263945
0.0267826
0.0271101
0.027788
0.0296052
0.0316535
0.0317569
0.0276215
0.0249297
0.0247265
0.0247131
0.00725824
0.00716488
0.00708195
0.00701079
0.00694752
0.00688854
0.00683103
0.00677296
0.0067149
0.00665948
0.00661014
0.0065667
0.00652684
0.00648887
0.00645149
0.00641723
0.00639006
0.00636953
0.00635444
0.00634475
0.00634052
0.00634359
0.00635759
0.00637995
0.0064079
0.00644206
0.00648362
0.00653352
0.00659172
0.00665575
0.00672633
0.00680396
0.00688688
0.00697533
0.00706866
0.0071697
0.00727599
0.0073903
0.00751408
0.00765876
0.00782737
0.00803649
0.00830052
0.00864133
0.00908906
0.00969162
0.010765
0.0128031
0.0163219
0.0206797
0.0237099
0.0252896
0.0261384
0.0265913
0.0268337
0.0271813
0.0280612
0.0301197
0.0317233
0.031223
0.0265516
0.0248325
0.0247201
0.0247129
0.0072597
0.00716864
0.00708339
0.00700667
0.00694045
0.00688122
0.00682572
0.00677132
0.00671621
0.00666103
0.00660847
0.00656204
0.00652161
0.00648501
0.00645063
0.0064173
0.0063876
0.00636553
0.00635065
0.00634176
0.00633876
0.00634161
0.00635203
0.00637353
0.00640337
0.00643869
0.00648006
0.00652884
0.00658613
0.00665178
0.00672328
0.00680136
0.00688659
0.00697728
0.00707396
0.00717626
0.00728752
0.00740618
0.00753546
0.00767885
0.00784925
0.00805211
0.00830964
0.00863816
0.00906187
0.00961475
0.0104435
0.0119758
0.0148383
0.0191282
0.0228356
0.0248248
0.025856
0.0263978
0.0266455
0.0268818
0.0272754
0.0284012
0.0306564
0.0317301
0.0303542
0.0257605
0.024778
0.0247165
0.0247128
0.00725586
0.00717021
0.00708719
0.00700822
0.00693649
0.00687436
0.0068186
0.00676618
0.00671467
0.00666235
0.00661
0.00656035
0.00651696
0.00647977
0.00644673
0.00641632
0.00638749
0.00636285
0.00634639
0.00633766
0.00633541
0.00633943
0.00634958
0.00636743
0.00639639
0.00643359
0.00647611
0.00652465
0.00658078
0.00664547
0.00671855
0.0067975
0.00688312
0.00697606
0.00707477
0.00718017
0.00729226
0.00741496
0.00754741
0.00769452
0.00786076
0.00806256
0.00830842
0.00862441
0.00903085
0.00955131
0.0102567
0.0114332
0.0136411
0.0174814
0.0217317
0.0242603
0.0255299
0.0261866
0.0264911
0.0266892
0.026933
0.0274234
0.0288736
0.0310048
0.031649
0.0290815
0.0252578
0.0247459
0.0247145
0.0247128
0.00724635
0.00716662
0.00708885
0.00701204
0.0069381
0.00687054
0.00681193
0.00675926
0.00670967
0.00666088
0.00661131
0.00656185
0.00651524
0.00647509
0.00644145
0.00641235
0.00638635
0.00636252
0.00634344
0.0063331
0.00633095
0.00633568
0.00634695
0.00636447
0.00638973
0.00642603
0.00647041
0.00652008
0.00657591
0.00663939
0.00671144
0.00679193
0.00687834
0.00697157
0.00707242
0.00717959
0.00729439
0.00741728
0.0075529
0.00770159
0.00786968
0.00806383
0.0083038
0.00860195
0.00898923
0.00948851
0.0101266
0.0110821
0.0127785
0.0159264
0.020374
0.023588
0.0251463
0.0259541
0.0263297
0.0265305
0.0267337
0.0270034
0.0276421
0.029401
0.0313252
0.0314574
0.0277226
0.0249681
0.0247285
0.0247135
0.0247127
0.00723602
0.0071575
0.00708546
0.00701377
0.00694194
0.0068722
0.00680821
0.00675274
0.00670289
0.006656
0.00660989
0.00656313
0.00651667
0.0064733
0.00643671
0.00640699
0.00638227
0.00636119
0.00634285
0.00632983
0.00632604
0.00633083
0.00634277
0.00636136
0.00638623
0.00641877
0.00646224
0.00651375
0.00657066
0.00663378
0.00670457
0.00678395
0.00687183
0.00696575
0.00706674
0.00717588
0.00729211
0.00741715
0.00755212
0.00770258
0.00787023
0.00806353
0.0082917
0.00857848
0.0089408
0.00941401
0.0100223
0.0108318
0.012181
0.0146592
0.018806
0.0227282
0.0247106
0.0256848
0.0261648
0.0263771
0.0265631
0.0267743
0.0270985
0.0279726
0.0299511
0.0314141
0.0309675
0.0265167
0.0248291
0.02472
0.0247131
0.0247127
0.00722669
0.00714758
0.00707667
0.00701054
0.0069437
0.00687602
0.0068099
0.0067491
0.00669649
0.00664934
0.00660511
0.00656173
0.0065179
0.00647465
0.00643481
0.00640215
0.00637679
0.00635695
0.00634129
0.00632894
0.00632241
0.00632552
0.00633747
0.00635671
0.00638261
0.00641472
0.00645436
0.00650492
0.00656362
0.00662779
0.00669816
0.00677621
0.00686289
0.00695819
0.00705974
0.00716879
0.00728671
0.00741279
0.00754926
0.00769802
0.00786586
0.0080563
0.00828004
0.00854946
0.00889391
0.00933441
0.00990944
0.0106537
0.0117467
0.0137003
0.0172363
0.0216386
0.0242031
0.0253728
0.0259754
0.0262352
0.0264074
0.0265932
0.0268239
0.0272442
0.0283756
0.0305252
0.0314009
0.029921
0.0256504
0.0247676
0.0247159
0.0247129
0.0247127
0.0072209
0.00713864
0.00706709
0.00700203
0.00694062
0.0068778
0.0068137
0.0067508
0.00669292
0.00664305
0.00659855
0.00655703
0.0065165
0.00647581
0.00643605
0.00640012
0.00637181
0.00635131
0.00633685
0.00632711
0.00632119
0.0063215
0.00633173
0.00635094
0.00637746
0.00641055
0.00644972
0.00649637
0.00655408
0.00662
0.00669138
0.00676893
0.0068542
0.00694819
0.00705099
0.00716042
0.00727798
0.00740534
0.0075422
0.00769156
0.00785622
0.00804458
0.00826219
0.00852321
0.00884369
0.00925899
0.00979363
0.0104885
0.0114372
0.0129806
0.0158454
0.0203119
0.0235887
0.0250301
0.0257453
0.0260908
0.0262707
0.026438
0.0266268
0.0268935
0.0274306
0.0289492
0.0308538
0.0313195
0.0285628
0.0251439
0.0247367
0.024714
0.0247128
0.0247127
0.00721874
0.00713314
0.00705846
0.00699274
0.00693236
0.00687485
0.0068155
0.00675456
0.00669461
0.00663951
0.00659235
0.00655055
0.00651185
0.0064744
0.00643712
0.00640122
0.00636961
0.00634614
0.006331
0.00632243
0.00631905
0.0063199
0.00632729
0.00634474
0.00637119
0.00640487
0.00644498
0.0064911
0.00654482
0.0066097
0.00668278
0.00676129
0.00684599
0.00693846
0.00703981
0.00715033
0.00726801
0.00739464
0.00753229
0.00768123
0.00784539
0.0080287
0.00824161
0.00849235
0.00879913
0.0091825
0.00968427
0.0103302
0.0111808
0.0124631
0.0147128
0.0186975
0.0228393
0.0246634
0.0254817
0.025914
0.0261367
0.026306
0.0264707
0.0266785
0.0269788
0.0277333
0.0294884
0.0311834
0.0309145
0.0271032
0.024888
0.0247226
0.0247132
0.0247127
0.0247127
0.00722533
0.00713119
0.00705319
0.00698438
0.00692332
0.00686681
0.00681266
0.00675638
0.00669833
0.00664118
0.00658882
0.00654439
0.00650542
0.00646977
0.00643568
0.00640217
0.00637056
0.00634374
0.00632562
0.00631634
0.00631409
0.00631743
0.00632529
0.00633984
0.0063645
0.00639807
0.00643874
0.00648575
0.00653887
0.00659968
0.00667166
0.00675182
0.0068374
0.00692921
0.00702892
0.0071378
0.00725637
0.0073828
0.00751925
0.00766832
0.007831
0.00801236
0.00821782
0.00846038
0.0087516
0.00911494
0.00957575
0.0101814
0.0109593
0.0120506
0.0138652
0.0171899
0.0217796
0.0242807
0.0252143
0.0257005
0.025975
0.0261753
0.0263404
0.0265208
0.0267394
0.0271098
0.0281006
0.0301563
0.0311771
0.0301866
0.0259589
0.0247826
0.0247165
0.0247129
0.0247127
0.0247127
0.00722955
0.00713772
0.0070514
0.00697928
0.00691518
0.00685798
0.0068048
0.00675362
0.00670014
0.00664485
0.00659046
0.00654086
0.00649931
0.00646337
0.00643105
0.00640068
0.00637137
0.00634451
0.00632298
0.00631069
0.00630772
0.00631215
0.00632243
0.00633741
0.00635911
0.00639086
0.00643138
0.00647892
0.00653286
0.00659301
0.00666083
0.00673982
0.00682699
0.0069196
0.00701853
0.00712563
0.00724233
0.00736938
0.0075052
0.00765245
0.00781441
0.00799295
0.00819458
0.00842667
0.0087054
0.00904659
0.00947979
0.0100345
0.0107628
0.0117215
0.0132032
0.0158504
0.020341
0.0238589
0.0249746
0.025499
0.0257857
0.0260197
0.0262099
0.026386
0.0265809
0.0268179
0.0272735
0.0286518
0.0305644
0.0312233
0.0288786
0.0252614
0.0247403
0.0247141
0.0247128
0.0247127
0.0247127
0.00723133
0.00714196
0.00705782
0.00697761
0.00691022
0.00685004
0.00679617
0.00674593
0.00669745
0.00664663
0.00659405
0.00654244
0.00649574
0.00645725
0.00642464
0.00639601
0.00636979
0.00634516
0.00632355
0.00630778
0.00630177
0.00630545
0.00631681
0.00633415
0.00635622
0.00638496
0.00642364