/*--------------------------------*- C++ -*----------------------------------*\
| =========                 |                                                 |
| \\      /  F ield         | OpenFOAM: The Open Source CFD Toolbox           |
|  \\    /   O peration     | Version:  v2012                                 |
|   \\  /    A nd           | Website:  www.openfoam.com                      |
|    \\/     M anipulation  |                                                 |
\*---------------------------------------------------------------------------*/
FoamFile
{
    version     2.0;
    format      ascii;
    class       volScalarField;
    location    "11500";
    object      T;
}
// * * * * * * * * * * * * * * * * * * * * * * * * * * * * * * * * * * * * * //

dimensions      [0 0 0 1 0 0 0];


internalField   nonuniform List<scalar> 
53312
(
332.557
302.601
372.032
299.634
315.702
386.437
298.713
308.066
327.055
388.451
298.127
305.62
315.773
336.864
383.317
297.754
303.995
312.071
322.814
345.271
374.15
297.499
302.958
309.521
318.105
329.232
352.373
362.564
297.306
302.245
307.89
314.739
323.75
335.062
358.23
349.502
297.153
301.699
306.764
312.582
319.677
329.031
340.325
362.877
335.585
297.028
301.268
305.895
311.087
317.06
324.355
333.962
345.031
366.326
321.233
296.924
300.912
305.208
309.923
315.236
321.341
328.787
338.551
349.179
368.577
306.729
296.837
300.615
304.638
309.001
313.805
319.229
325.44
332.983
342.799
352.757
369.614
292.276
296.765
300.367
304.161
308.233
312.669
317.56
323.081
329.366
336.947
346.699
355.743
369.415
278.007
296.715
300.157
303.761
307.589
311.719
316.229
321.2
326.8
333.124
340.677
350.239
358.104
367.954
264.021
296.671
300.012
303.421
307.047
310.919
315.112
319.695
324.735
330.393
336.715
344.167
353.397
359.795
365.202
250.38
296.686
299.881
303.184
306.583
310.243
314.168
318.426
323.075
328.172
333.862
340.135
347.404
356.144
360.76
361.136
237.132
296.74
299.924
302.966
306.257
309.662
313.367
317.349
321.669
326.377
331.513
337.205
343.376
350.369
358.443
360.932
355.739
224.302
296.831
300.074
303.033
305.954
309.252
312.675
316.431
320.47
324.848
329.604
334.758
340.416
346.425
353.039
360.248
360.236
349.007
211.911
296.931
300.329
303.267
306.041
308.865
312.184
315.634
319.444
323.539
327.969
332.759
337.905
343.487
349.265
355.383
361.503
358.585
340.946
199.958
297.025
300.606
303.668
306.349
308.968
311.715
315.066
318.549
322.414
326.561
331.032
335.837
340.946
346.406
351.872
357.362
362.144
355.885
331.59
188.473
297.09
300.865
304.098
306.879
309.343
311.832
314.515
317.908
321.427
325.345
329.538
334.038
338.837
343.873
349.153
354.219
358.932
362.095
352.039
320.99
177.402
297.139
301.043
304.502
307.445
309.988
312.265
314.645
317.276
320.717
324.273
328.241
332.47
336.982
341.748
346.67
351.707
356.271
360.038
361.271
346.946
309.198
166.748
297.176
301.177
304.777
307.976
310.671
313.011
315.128
317.416
320.005
323.499
327.091
331.102
335.356
339.86
344.561
349.32
354.04
357.986
360.617
359.576
340.514
296.299
156.486
297.201
301.274
304.98
308.332
311.315
313.797
315.962
317.942
320.153
322.707
326.257
329.882
333.928
338.19
342.661
347.261
351.801
356.12
359.316
360.597
356.903
332.667
282.373
146.602
297.221
301.34
305.126
308.594
311.739
314.538
316.835
318.851
320.713
322.86
325.385
328.993
332.645
336.714
340.965
345.375
349.829
354.086
357.906
360.203
359.895
353.14
323.359
267.481
137.048
297.234
301.391
305.224
308.78
312.049
315.019
317.661
319.795
321.684
323.446
325.54
328.042
331.707
335.378
339.454
343.671
347.984
352.243
356.141
359.353
360.583
358.416
348.167
312.606
251.758
128.002
297.243
301.425
305.299
308.901
312.266
315.367
318.186
320.693
322.684
324.466
326.144
328.196
330.676
334.396
338.075
342.141
346.295
350.471
354.475
357.929
360.407
360.38
356.057
341.866
300.447
235.685
119.629
297.246
301.447
305.346
308.992
312.405
315.609
318.565
321.251
323.639
325.505
327.196
328.805
330.825
333.286
337.056
340.73
344.762
348.821
352.811
356.492
359.403
361.004
359.508
352.702
334.121
286.972
219.673
112.015
297.246
301.452
305.375
309.048
312.507
315.759
318.823
321.651
324.219
326.502
328.256
329.873
331.428
333.424
335.866
339.681
343.331
347.303
351.227
354.976
358.254
360.511
361.073
357.87
348.225
324.827
272.335
203.941
105.206
297.243
301.449
305.379
309.08
312.567
315.868
318.979
321.918
324.63
327.091
329.28
330.935
332.493
334.008
335.988
338.409
342.261
345.867
349.745
353.489
356.932
359.718
361.191
360.533
355.358
342.492
313.909
256.759
188.617
99.4259
297.239
301.44
305.369
309.079
312.599
315.927
319.089
322.075
324.9
327.504
329.866
331.968
333.534
335.047
336.537
338.508
340.906
344.784
348.32
352.068
355.577
358.64
360.829
361.373
359.29
351.851
335.366
301.333
240.511
173.78
95.169
297.233
301.426
305.35
309.061
312.591
315.956
319.145
322.183
325.051
327.768
330.27
332.535
334.558
336.043
337.526
339.003
340.974
343.345
347.234
350.671
354.244
357.456
360.053
361.526
360.977
357.239
347.218
326.711
287.124
223.881
159.371
92.3221
297.225
301.407
305.326
309.032
312.563
315.94
319.169
322.232
325.152
327.908
330.52
332.92
335.091
337.036
338.449
339.914
341.393
343.371
345.71
349.592
352.895
356.242
359.085
361.117
361.74
359.912
354.264
341.316
316.405
271.393
207.122
146.22
90.3969
297.217
301.383
305.292
308.995
312.523
315.901
319.143
322.248
325.191
327.997
330.642
333.146
335.442
337.517
339.385
340.732
342.193
343.688
345.681
347.981
351.836
354.964
358.025
360.417
361.77
361.39
358.073
350.234
333.999
304.354
254.335
190.623
134.817
88.9746
297.208
301.358
305.252
308.947
312.474
315.85
319.093
322.21
325.197
328.022
330.714
333.243
335.635
337.821
339.795
341.585
342.87
344.341
345.868
347.883
350.136
353.939
356.844
359.551
361.396
361.941
360.384
355.345
345.008
325.114
290.501
236.257
174.847
125.257
87.835
297.2
301.334
305.21
308.891
312.411
315.788
319.03
322.147
325.146
328.017
330.721
333.293
335.699
337.97
340.037
341.901
343.609
344.837
346.331
347.905
349.951
352.147
355.868
358.497
360.769
361.958
361.549
358.618
351.598
338.433
314.516
274.868
217.587
160.304
117.351
86.908
297.189
301.307
305.17
308.832
312.339
315.711
318.955
322.073
325.071
327.95
330.701
333.278
335.72
337.992
340.128
342.064
343.809
345.429
346.604
348.133
349.771
351.856
353.984
357.587
359.876
361.622
362.03
360.5
355.976
346.69
330.349
302.086
257.584
198.895
147.329
110.871
86.1653
297.179
301.278
305.125
308.775
312.264
315.624
318.864
321.986
324.984
327.862
330.618
333.24
335.68
337.978
340.1
342.084
343.873
345.487
347.013
348.137
349.715
351.434
353.566
355.611
359.053
360.93
362.044
361.528
358.69
352.328
340.467
320.595
287.744
238.917
180.82
136.14
105.595
85.5211
297.17
301.249
305.077
308.714
312.192
315.534
318.764
321.882
324.885
327.763
330.515
333.139
335.621
337.906
340.043
341.995
343.809
345.434
346.903
348.328
349.405
351.043
352.858
355.041
356.986
360.215
361.597
361.958
360.357
355.998
347.529
332.764
309.019
271.485
219.312
164.011
126.666
101.239
85.0924
297.161
301.222
305.03
308.648
312.115
315.447
318.659
321.768
324.768
327.653
330.405
333.022
335.499
337.823
339.935
341.887
343.648
345.27
346.714
348.025
349.341
350.373
352.081
354.004
356.241
358.064
361.018
361.808
361.279
358.408
352.294
341.423
323.412
295.496
253.417
199.393
148.986
118.792
97.6209
84.7977
297.151
301.196
304.986
308.584
312.032
315.355
318.559
321.65
324.642
327.524
330.283
332.9
335.367
337.679
339.824
341.737
343.481
345.026
346.436
347.68
348.822
350.022
351.011
352.797
354.835
357.122
358.793
361.397
361.483
359.906
355.561
347.429
333.841
312.245
279.948
233.815
179.947
136.068
112.342
94.752
84.4658
297.141
301.168
304.943
308.523
311.952
315.256
318.453
321.538
324.513
327.387
330.143
332.767
335.234
337.532
339.654
341.595
343.284
344.792
346.097
347.273
348.303
349.266
350.345
351.291
353.156
355.309
357.632
359.116
361.275
360.531
357.726
351.676
341.243
324.607
299.114
262.387
213.176
161.798
125.304
107.132
92.573
83.9802
297.131
301.139
304.898
308.464
311.876
315.162
318.34
321.419
324.389
327.247
329.996
332.617
335.089
337.386
339.491
341.398
343.105
344.541
345.788
346.83
347.756
348.56
349.337
350.29
351.189
353.127
355.383
357.717
358.963
360.566
358.846
354.614
346.605
333.564
313.55
283.907
242.97
192.246
145.627
116.5
103.03
90.9926
83.3469
297.122
301.11
304.85
308.404
311.802
315.072
318.232
321.294
324.26
327.114
329.847
332.461
334.93
337.231
339.333
341.217
342.878
344.322
345.477
346.439
347.2
347.862
348.433
349.018
349.839
350.684
352.678
355.009
357.308
358.256
359.17
356.309
350.426
340.182
324.214
300.507
266.587
222.066
171.952
131.842
109.423
99.9301
89.939
82.8127
297.114
301.086
304.805
308.339
311.727
314.986
318.131
321.175
324.123
326.975
329.706
332.304
334.767
337.063
339.168
341.047
342.68
344.063
345.214
346.063
346.72
347.188
347.579
347.913
348.303
348.984
349.756
351.769
354.127
356.327
356.905
356.972
352.787
345.007
332.231
313.016
285.349
247.242
200.322
153.274
120.527
103.824
97.5208
89.296
82.5016
297.105
301.063
304.766
308.278
311.647
314.897
318.032
321.062
323.994
326.829
329.56
332.157
334.604
336.895
338.994
340.873
342.497
343.846
344.92
345.752
346.275
346.613
346.781
346.899
346.995
347.186
347.711
348.374
350.354
352.672
354.684
354.811
353.843
348.131
338.188
322.579
299.803
268.011
226.157
178.678
136.991
111.486
99.6348
95.6473
88.9259
82.3179
297.096
301.037
304.728
308.225
311.571
314.802
317.931
320.953
323.873
326.692
329.405
332.005
334.452
336.728
338.821
340.693
342.315
343.652
344.685
345.422
345.914
346.097
346.111
345.978
345.825
345.681
345.664
346.001
346.506
348.382
350.571
352.278
351.859
349.641
342.18
329.8
311.046
284.437
248.544
203.897
158.26
123.491
104.517
96.5407
94.4272
88.6856
82.1956
297.087
301.012
304.688
308.174
311.506
314.714
317.824
320.842
323.755
326.563
329.262
331.845
334.296
336.574
338.652
340.517
342.13
343.46
344.478
345.167
345.545
345.685
345.522
345.212
344.782
344.36
343.974
343.724
343.832
344.118
345.799
347.743
348.992
347.923
344.211
334.772
319.675
297.463
266.845
227.187
181.38
140.135
112.802
99.2852
94.3554
93.6039
88.4176
82.0715
297.079
300.987
304.647
308.12
311.443
314.638
317.724
320.723
323.635
326.438
329.128
331.697
334.132
336.416
338.498
340.349
341.954
343.273
344.279
344.948
345.272
345.277
345.057
344.55
343.922
343.202
342.512
341.865
341.351
341.183
341.175
342.545
344.101
344.697
342.865
337.409
325.771
307.64
281.696
247.07
204.466
159.825
125.019
104.669
95.3981
92.7886
92.9709
87.9029
81.9277
297.072
300.963
304.606
308.065
311.376
314.564
317.639
320.613
323.506
326.31
328.998
331.56
333.983
336.251
338.34
340.197
341.788
343.098
344.09
344.743
345.041
344.986
344.611
344.033
343.191
342.254
341.247
340.276
339.346
338.537
338.036
337.639
338.559
339.56
339.284
336.56
329.133
315.021
293.533
263.679
225.336
181.289
140.517
113.125
98.5863
92.8436
91.9976
92.5845
87.0296
81.7696
297.065
300.943
304.569
308.01
311.308
314.485
317.555
320.52
323.388
326.173
328.864
331.427
333.845
336.102
338.176
340.042
341.64
342.937
343.919
344.554
344.83
344.742
344.302
343.55
342.624
341.457
340.217
338.916
337.649
336.414
335.27
334.368
333.474
333.782
334.044
332.692
328.942
319.291
302.349
277.239
243.459
202.167
158.948
124.431
104.154
94.3151
90.9817
91.6531
92.2506
85.8715
81.6211
297.057
300.923
304.537
307.961
311.242
314.405
317.466
320.428
323.288
326.049
328.721
331.289
333.71
335.965
338.031
339.882
341.491
342.797
343.765
344.389
344.643
344.526
344.046
343.226
342.106
340.844
339.361
337.815
336.209
334.633
333.068
331.542
330.161
328.649
328.179
327.539
324.973
319.973
307.749
287.627
258.707
221.271
178.485
138.906
111.898
97.6636
91.5073
89.5283
91.6724
91.8835
84.6881
81.4984
297.048
300.901
304.506
307.919
311.182
314.328
317.376
320.33
323.19
325.945
328.593
331.142
333.571
335.831
337.897
339.743
341.339
342.657
343.635
344.244
344.485
344.343
343.827
342.958
341.768
340.295
338.707
336.908
335.049
333.133
331.232
329.303
327.341
325.398
323.158
321.778
320.145
316.274
309.479
294.382
270.771
238.003
197.657
155.674
122.321
102.657
93.2708
89.6472
89.1478
91.6195
91.4035
83.6815
81.4049
297.04
300.877
304.47
307.877
311.129
314.259
317.289
320.232
323.084
325.841
328.485
331.011
333.422
335.693
337.767
339.616
341.208
342.514
343.506
344.127
344.352
344.194
343.649
342.737
341.49
339.946
338.132
336.218
334.102
331.929
329.694
327.446
325.117
322.663
320.085
317.05
314.716
312.018
306.631
297.348
279.104
251.751
215.384
173.597
135.349
109.624
96.2342
90.438
88.2165
89.5091
91.6525
90.7941
82.8994
81.3397
297.033
300.855
304.433
307.829
311.078
314.198
317.211
320.137
322.979
325.73
328.378
330.902
333.291
335.544
337.632
339.492
341.091
342.395
343.377
344.012
344.249
344.074
343.51
342.566
341.27
339.658
337.775
335.625
333.386
330.956
328.466
325.9
323.28
320.51
317.513
314.262
310.407
307.115
303.046
295.874
283.546
261.85
230.649
191.42
150.581
118.801
100.565
92.0327
88.532
87.0441
89.8947
91.6891
89.7808
82.3565
81.2986
297.028
300.836
304.398
307.78
311.019
314.138
317.144
320.052
322.877
325.618
328.263
330.793
333.182
335.415
337.487
339.363
340.976
342.29
343.272
343.898
344.151
343.988
343.406
342.439
341.105
339.441
337.48
335.264
332.783
330.221
327.481
324.67
321.756
318.737
315.489
311.903
307.92
303.182
298.836
293.021
283.821
268.021
242.591
207.735
167.158
130.376
106.483
94.52
89.3364
87.1841
87.3311
90.2913
91.7014
88.3851
82.0291
81.2672
297.023
300.821
304.368
307.733
310.959
314.069
317.076
319.979
322.786
325.511
328.147
330.675
333.074
335.31
337.362
339.223
340.856
342.188
343.183
343.811
344.055
343.909
343.338
342.351
340.992
339.286
337.269
334.966
332.421
329.621
326.742
323.691
320.55
317.271
313.826
310.05
305.806
300.986
295.241
289.666
281.968
270.259
250.701
221.39
183.597
144.224
114.351
98.038
90.675
87.5671
86.0319
87.7045
90.665
91.5908
86.7856
81.7713
81.2444
297.017
300.807
304.346
307.694
310.902
313.999
316.999
319.905
322.709
325.417
328.036
330.558
332.956
335.204
337.262
339.106
340.725
342.08
343.096
343.741
343.989
343.833
343.279
342.303
340.922
339.187
337.125
334.764
332.124
329.261
326.157
322.962
319.599
316.116
312.452
308.538
304.163
299.168
293.399
286.513
279.533
269.92
255.101
231.534
198.491
159.366
124.535
102.879
92.623
88.2658
86.2159
86.1516
88.2062
91.0025
91.2716
85.2444
81.5793
81.2281
297.01
300.791
304.324
307.665
310.855
313.934
316.921
319.82
322.63
325.336
327.939
330.444
332.838
335.087
337.162
339.015
340.619
341.961
343.003
343.672
343.94
343.789
343.227
342.267
340.895
339.136
337.044
334.636
331.936
328.972
325.801
322.405
318.898
315.216
311.377
307.291
302.847
297.794
291.948
285.107
276.955
268.41
256.581
238.239
210.544
174.49
136.829
109.481
95.3657
89.2924
86.5831
85.4268
86.2859
88.8036
91.0346
90.666
83.9348
81.44
81.217
297.002
300.771
304.298
307.636
310.82
313.881
316.848
319.734
322.539
325.253
327.857
330.347
332.724
334.971
337.049
338.921
340.538
341.868
342.899
343.596
343.891
343.764
343.207
342.238
340.882
339.131
337.014
334.574
331.827
328.803
325.529
322.059
318.38
314.566
310.554
306.328
301.77
296.729
290.91
284.107
276.08
266.576
256.475
241.794
219.569
187.944
150.595
118.083
99.2163
90.7544
87.1418
85.5045
85.5272
86.5993
89.4
91.0217
89.7101
82.9338
81.3446
81.21
296.995
300.75
304.267
307.602
310.785
313.84
316.788
319.655
322.447
325.157
327.771
330.264
332.628
334.86
336.936
338.815
340.454
341.8
342.822
343.51
343.836
343.738
343.206
342.244
340.878
339.142
337.032
334.567
331.787
328.715
325.383
321.814
318.054
314.095
309.974
305.613
300.964
295.878
290.162
283.475
275.578
266.238
255.354
243.489
225.403
199.08
164.339
128.821
104.439
92.8371
87.9261
85.7146
85.0038
85.5944
87.1101
89.8695
90.9979
88.3239
82.2371
81.2846
81.2058
296.989
300.73
304.235
307.561
310.744
313.801
316.743
319.591
322.362
325.06
327.671
330.178
332.547
334.766
336.829
338.709
340.357
341.73
342.771
343.453
343.77
343.705
343.205
342.27
340.911
339.165
337.069
334.612
331.806
328.701
325.322
321.698
317.846
313.804
309.561
305.12
300.38
295.265
289.582
283.094
275.439
266.336
255.597
243.323
229.101
207.256
176.963
141.071
111.446
95.684
89.0308
86.0998
84.9779
85.0828
85.7744
87.6556
90.1706
90.8031
86.6862
81.8081
81.2493
81.2032
296.985
300.714
304.204
307.519
310.694
313.753
316.7
319.543
322.295
324.971
327.571
330.075
332.461
334.688
336.741
338.609
340.261
341.645
342.716
343.421
343.735
343.663
343.198
342.295
340.965
339.226
337.119
334.676
331.878
328.747
325.336
321.668
317.766
313.642
309.325
304.785
300
294.845
289.21
282.858
275.5
266.766
256.368
244.229
230.518
213.121
187.286
153.877
120.448
99.5852
90.5025
86.6869
85.0541
84.7893
85.1536
86.0424
88.2031
90.4806
90.4307
85.0377
81.5607
81.2275
81.2017
296.981
300.701
304.18
307.479
310.643
313.695
316.647
319.497
322.245
324.902
327.48
329.973
332.357
334.605
336.668
338.528
340.169
341.56
342.646
343.384
343.725
343.653
343.18
342.314
341.017
339.308
337.208
334.755
331.971
328.849
325.413
321.714
317.773
313.607
309.219
304.622
299.768
294.612
288.998
282.777
275.669
267.338
257.422
245.674
232.178
216.601
195.385
165.656
131.405
104.904
92.4781
87.4466
85.2808
84.5672
84.8252
85.2706
86.3707
88.7765
90.4289
89.6985
83.633
81.4027
81.2144
81.2009
296.978
300.693
304.161
307.448
310.595
313.636
316.582
319.439
322.196
324.851
327.409
329.881
332.254
334.502
336.589
338.463
340.099
341.48
342.576
343.331
343.709
343.666
343.196
342.323
341.063
339.388
337.32
334.873
332.081
328.974
325.547
321.825
317.856
313.657
309.236
304.583
299.697
294.509
288.945
282.818
275.933
267.971
258.565
247.383
234.285
219.471
201.088
175.784
143.128
112.276
95.1174
88.4183
85.6209
84.5867
84.5935
84.8855
85.4088
86.7766
89.2816
90.3981
88.5286
82.591
81.3062
81.2073
81.2004
296.973
300.684
304.149
307.423
310.558
313.581
316.516
319.367
322.134
324.801
327.359
329.811
332.163
334.4
336.488
338.389
340.043
341.422
342.51
343.278
343.676
343.673
343.234
342.366
341.1
339.462
337.429
335.016
332.232
329.117
325.706
321.994
318.005
313.782
309.336
304.663
299.74
294.549
288.998
282.981
276.274
268.639
259.721
249.141
236.646
222.265
205.748
183.766
154.49
121.671
98.9602
89.6583
86.0713
84.6424
84.4132
84.6379
84.9835
85.5899
87.2611
89.6172
90.2359
86.9357
81.9244
81.2539
81.2036
81.2002
296.967
300.671
304.135
307.408
310.53
313.539
316.455
319.295
322.057
324.735
327.308
329.761
332.095
334.311
336.39
338.293
339.977
341.378
342.468
343.23
343.643
343.661
343.266
342.431
341.171
339.527
337.532
335.155
332.407
329.3
325.883
322.188
318.212
313.973
309.51
304.822
299.895
294.691
289.172
283.22
276.693
269.33
260.849
250.872
239.04
225.249
209.645
190.461
164.497
132.47
104.539
91.3074
86.6349
84.7668
84.2816
84.4397
84.7102
85.0899
85.8026
87.8173
89.8882
89.9343
85.1611
81.5701
81.2265
81.2017
81.2001
296.96
300.652
304.115
307.391
310.512
313.507
316.41
319.229
321.981
324.654
327.24
329.711
332.047
334.246
336.305
338.2
339.888
341.323
342.437
343.205
343.614
343.65
343.278
342.488
341.264
339.628
337.625
335.288
332.577
329.509
326.1
322.401
318.443
314.22
309.746
305.051
300.122
294.934
289.433
283.555
277.153
270.05
261.943
252.511
241.377
228.262
213.26
196.013
173.312
143.491
112.338
93.8472
87.3223
84.9599
84.1963
84.251
84.4752
84.7889
85.1854
86.131
88.3662
89.8504
89.2439
83.572
81.3848
81.2123
81.2007
81.2
296.953
300.634
304.087
307.365
310.492
313.489
316.375
319.181
321.91
324.574
327.156
329.642
331.999
334.202
336.245
338.12
339.802
341.242
342.395
343.191
343.608
343.643
343.291
342.526
341.348
339.749
337.755
335.411
332.742
329.712
326.344
322.655
318.695
314.493
310.039
305.34
300.415
295.241
289.779
283.956
277.679
270.768
263.008
254.061
243.573
231.21
216.85
200.639
180.767
154.134
122.116
97.7152
88.2733
85.2086
84.1663
84.0938
84.2757
84.5358
84.8538
85.2931
86.5436
88.9144
89.8046
88.0035
82.443
81.2853
81.2054
81.2003
81.2
296.947
300.615
304.058
307.328
310.461
313.467
316.356
319.145
321.86
324.5
327.072
329.555
331.93
334.157
336.206
338.069
339.731
341.166
342.326
343.163
343.612
343.658
343.306
342.564
341.412
339.861
337.905
335.572
332.897
329.91
326.581
322.934
318.985
314.784
310.356
305.682
300.762
295.607
290.18
284.424
278.244
271.517
264.027
255.521
245.627
233.986
220.378
204.865
186.935
163.603
133.276
103.706
89.7539
85.5156
84.1556
83.9465
84.116
84.3206
84.5941
84.8919
85.4465
87.1202
89.2351
89.6505
86.2358
81.7738
81.2375
81.2022
81.2001
81.2
296.943
300.601
304.03
307.291
310.417
313.431
316.333
319.126
321.824
324.449
326.996
329.469
331.841
334.088
336.165
338.035
339.688
341.105
342.261
343.107
343.601
343.683
343.345
342.603
341.476
339.952
338.046
335.752
333.089
330.097
326.813
323.207
319.302
315.115
310.691
306.047
301.16
296.021
290.629
284.934
278.856
272.276
265.036
256.885
247.531
236.584
223.728
208.936
192.175
171.579
144.374
112.985
92.2364
85.9589
84.1711
83.7831
83.9636
84.1514
84.3755
84.6228
84.9449
85.689
87.7203
89.4863
89.2382
84.3368
81.4544
81.2158
81.2009
81.2
81.2
296.942
300.588
304.008
307.255
310.372
313.38
316.293
319.101
321.805
324.413
326.945
329.392
331.754
334
336.099
338
339.662
341.073
342.212
343.056
343.561
343.691
343.391
342.666
341.541
340.042
338.164
335.922
333.3
330.321
327.033
323.473
319.611
315.469
311.062
306.429
301.577
296.482
291.12
285.48
279.492
273.055
266.022
258.196
249.289
238.977
226.889
212.82
196.944
178.303
154.27
123.569
96.9252
86.8013
84.2322
83.6318
83.7694
83.9977
84.2065
84.4055
84.6501
85.0119
86.0784
88.3422
89.4835
88.3105
82.8422
81.3087
81.2061
81.2003
81.2
81.2
296.939
300.586
303.989
307.228
310.33
313.329
316.236
319.058
321.779
324.395
326.91
329.343
331.677
333.913
336.011
337.937
339.634
341.057
342.194
343.023
343.526
343.668
343.419
342.736
341.629
340.133
338.282
336.068
333.5
330.564
327.29
323.727
319.913
315.817
311.457
306.844
302.01
296.957
291.651
286.058
280.15
273.837
266.996
259.444
250.945
241.176
229.805
216.534
201.335
184.154
162.739
134.965
104.435
88.4021
84.427
83.4413
83.5468
83.8024
84.051
84.2428
84.4269
84.6714
85.1514
86.574
88.8392
89.4673
86.6419
81.9293
81.2418
81.2023
81.2001
81.2
81.2
296.937
300.581
303.988
307.204
310.298
313.281
316.179
318.996
321.733
324.369
326.894
329.309
331.63
333.837
335.926
337.852
339.575
341.037
342.188
343.018
343.509
343.65
343.415
342.785
341.723
340.247
338.399
336.214
333.677
330.796
327.565
324.018
320.203
316.156
311.844
307.282
302.473
297.445
292.191
286.668
280.828
274.625
267.948
260.644
252.495
243.224
232.486
219.981
205.566
189.309
170.039
145.211
114.989
91.8043
84.9035
83.4621
83.3193
83.5779
83.8578
84.0914
84.2608
84.4401
84.723
85.3285
87.2087
89.1325
89.1629
84.6359
81.4783
81.2158
81.2008
81.2
81.2
81.2
296.933
300.574
303.981
307.205
310.27
313.245
316.126
318.934
321.666
324.321
326.869
329.295
331.6
333.794
335.853
337.77
339.494
340.985
342.178
343.025
343.522
343.651
343.417
342.801
341.795
340.365
338.539
336.358
333.852
331.003
327.829
324.325
320.528
316.482
312.223
307.71
302.957
297.96
292.74
287.281
281.529
275.419
268.886
261.794
253.957
245.12
234.972
223.171
209.514
194.064
176.367
154.188
125.742
97.9645
85.9666
83.5521
83.1051
83.341
83.6363
83.9124
84.1041
84.2576
84.4697
84.7789
85.6991
87.8754
89.0313
88.2827
82.939
81.3073
81.2053
81.2002
81.2
81.2
81.2
296.928
300.564
303.971
307.196
310.273
313.214
316.088
318.877
321.6
324.249
326.818
329.27
331.588
333.767
335.814
337.701
339.418
340.91
342.133
343.026
343.541
343.682
343.438
342.823
341.832
340.461
338.683
336.526
334.024
331.207
328.067
324.622
320.868
316.843
312.586
308.13
303.429
298.492
293.311
287.898
282.224
276.223
269.813
262.905
255.335
246.883
237.259
226.131
213.211
198.469
181.918
161.94
136.4
106.718
88.2569
83.9121
83.1267
83.1083
83.3907
83.7062
83.9427
84.0874
84.2576
84.4929
84.9461
86.2806
88.3934
89.0349
86.5827
81.9169
81.2364
81.2017
81.2001
81.2
81.2
81.2
296.921
300.55
303.957
307.185
310.264
313.22
316.055
318.836
321.54
324.18
326.743
329.219
331.565
333.759
335.792
337.668
339.355
340.839
342.066
342.991
343.555
343.717
343.488
342.865
341.875
340.52
338.802
336.695
334.219
331.408
328.302
324.892
321.199
317.216
312.983
308.533
303.891
299.011
293.896
288.531
282.917
277.012
270.737
263.986
256.649
248.526
239.366
228.85
216.661
202.637
186.917
168.683
145.746
117.287
92.7878
84.5573
83.2328
83.0427
83.1405
83.4667
83.7579
83.9394
84.0655
84.2471
84.5705
85.2201
86.995
88.8311
88.7501
84.4523
81.4423
81.2119
81.2005
81.2
81.2
81.2
81.2
296.915
300.532
303.936
307.167
310.252
313.211
316.064
318.802
321.498
324.118
326.671
329.141
331.513
333.738
335.788
337.651
339.329
340.783
342.003
342.933
343.531
343.745
343.539
342.935
341.937
340.584
338.883
336.84
334.416
331.632
328.532
325.158
321.501
317.58
313.391
308.966
304.335
299.519
294.465
289.173
283.619
277.791
271.632
265.048
257.908
250.074
241.313
231.342
219.84
206.56
191.528
174.596
153.895
127.699
99.9351
85.9661
83.5073
83.0791
83.0234
83.2094
83.5386
83.7788
83.9297
84.0369
84.2588
84.6527
85.6701
87.7591
88.9118
87.7564
82.7064
81.2814
81.2035
81.2001
81.2
81.2
81.2
81.2
296.909
300.514
303.908
307.14
310.232
313.198
316.056
318.816
321.462
324.075
326.607
329.067
331.432
333.686
335.77
337.653
339.319
340.766
341.956
342.879
343.483
343.732
343.582
343.003
342.03
340.669
338.97
336.944
334.586
331.856
328.784
325.417
321.799
317.916
313.789
309.41
304.808
300.007
295.022
289.797
284.325
278.57
272.508
266.065
259.129
251.541
243.132
233.636
222.754
210.201
195.886
179.865
160.999
137.315
109.372
88.9812
83.8886
83.2146
83.0253
83.0294
83.2807
83.5853
83.7934
83.9136
84.0366
84.2773
84.8475
86.2384
88.3167
88.7673
85.9858
81.7442
81.2243
81.201
81.2
81.2
81.2
81.2
81.2
296.903
300.497
303.881
307.104
310.2
313.176
316.042
318.807
321.481
324.039
326.565
329.002
331.358
333.604
335.718
337.638
339.326
340.764
341.948
342.842
343.441
343.697
343.582
343.062
342.115
340.783
339.077
337.054
334.715
332.054
329.037
325.699
322.088
318.245
314.158
309.844
305.288
300.52
295.557
290.407
285.009
279.347
273.375
267.052
260.287
252.946
244.839
235.766
225.433
213.556
199.954
184.718
167.271
145.796
119.102
94.5111
84.6513
83.4356
83.1357
83.0131
83.0566
83.3364
83.621
83.7974
83.9123
84.0604
84.3772
85.1093
86.9668
88.6087
88.4288
83.8108
81.3635
81.2067
81.2002
81.2
81.2
81.2
81.2
81.2
296.899
300.484
303.856
307.069
310.157
313.139
316.018
318.794
321.473
324.062
326.528
328.96
331.293
333.529
335.636
337.587
339.315
340.777
341.955
342.846
343.416
343.667
343.561
343.077
342.191
340.887
339.213
337.183
334.848
332.207
329.262
325.98
322.398
318.565
314.521
310.247
305.759
301.039
296.114
290.992
285.676
280.097
274.231
268.018
261.401
254.266
246.457
237.748
227.913
216.649
203.74
189.175
172.869
153.263
128.887
101.948
86.4736
83.6818
83.3026
83.0841
83.011
83.0668
83.3778
83.6394
83.8011
83.929
84.136
84.5166
85.6316
87.6744
88.6461
87.1091
82.2487
81.2458
81.2017
81.2
81.2
81.2
81.2
81.2
81.2
296.898
300.473
303.836
307.038
310.115
313.09
315.976
318.768
321.46
324.056
326.557
328.924
331.253
333.465
335.561
337.505
339.266
340.771
341.976
342.863
343.431
343.655
343.544
343.07
342.221
340.981
339.336
337.342
335
332.365
329.441
326.233
322.708
318.905
314.871
310.643
306.197
301.547
296.672
291.595
286.315
280.826
275.054
268.964
262.481
255.527
247.965
239.613
230.211
219.514
207.253
193.358
177.892
159.884
137.612
111.277
90.12
84.043
83.4687
83.2433
83.0506
82.9918
83.0802
83.4037
83.6419
83.8037
83.9675
84.232
84.8022
86.3016
88.2822
88.474
84.9758
81.5095
81.2118
81.2004
81.2
81.2
81.2
81.2
81.2
81.2
296.898
300.47
303.821
307.013
310.078
313.043
315.922
318.723
321.433
324.043
326.552
328.96
331.218
333.427
335.499
337.432
339.185
340.724
341.975
342.891
343.459
343.683
343.546
343.068
342.23
341.027
339.449
337.485
335.183
332.541
329.623
326.439
322.99
319.244
315.242
311.025
306.628
302.023
297.22
292.197
286.969
281.526
275.854
269.871
263.529
256.738
249.396
241.338
232.357
222.162
210.521
197.258
182.494
165.769
145.412
120.293
96.14
84.9786
83.6503
83.4235
83.1843
83.0105
82.9477
83.1075
83.4209
83.6361
83.8102
84.0136
84.3626
85.1833
87.1542
88.3947
87.6509
82.9005
81.2812
81.2027
81.2001
81.2
81.2
81.2
81.2
81.2
81.2
296.898
300.471
303.818
306.995
310.05
313.001
315.87
318.664
321.385
324.014
326.54
328.956
331.26
333.394
335.465
337.373
339.115
340.646
341.932
342.896
343.496
343.723
343.588
343.084
342.242
341.051
339.513
337.617
335.347
332.747
329.823
326.646
323.223
319.556
315.61
311.426
307.042
302.489
297.734
292.786
287.616
282.234
276.618
270.747
264.53
257.904
250.759
242.966
234.333
224.627
213.547
200.923
186.741
171.002
152.324
129.327
103.494
87.1784
83.8282
83.5594
83.3626
83.12
82.9601
82.8842
83.1433
83.4375
83.6437
83.8282
84.0683
84.5265
85.787
87.7417
88.3956
85.9657
81.7394
81.2189
81.2006
81.2
81.2
81.2
81.2
81.2
81.2
81.2
296.898
300.472
303.821
306.993
310.029
312.97
315.825
318.608
321.321
323.963
326.51
328.944
331.258
333.443
335.435
337.343
339.06
340.58
341.856
342.857
343.508
343.769
343.64
343.14
342.273
341.079
339.553
337.698
335.499
332.933
330.053
326.87
323.456
319.816
315.951
311.824
307.474
302.937
298.238
293.341
288.249
282.93
277.386
271.585
265.494
259.011
252.058
244.504
236.187
226.888
216.362
204.333
190.772
175.748
158.459
137.34
112.324
91.2435
84.2483
83.6772
83.5312
83.302
83.0407
82.9031
82.8747
83.195
83.4738
83.6712
83.8696
84.1628
84.808
86.5212
88.2265
88.0684
83.6353
81.3293
81.204
81.2001
81.2
81.2
81.2
81.2
81.2
81.2
81.2
296.896
300.472
303.824
306.998
310.03
312.948
315.791
318.559
321.261
323.895
326.456
328.915
331.247
333.443
335.49
337.316
339.035
340.53
341.796
342.786
343.474
343.788
343.696
343.207
342.345
341.126
339.596
337.755
335.599
333.106
330.263
327.125
323.704
320.075
316.24
312.195
307.903
303.401
298.721
293.883
288.847
283.611
278.137
272.419
266.413
260.074
253.289
245.959
237.928
229.003
218.941
207.514
194.534
180.155
163.965
144.514
120.777
97.3205
85.3657
83.7912
83.6384