/*--------------------------------*- C++ -*----------------------------------*\
| =========                 |                                                 |
| \\      /  F ield         | OpenFOAM: The Open Source CFD Toolbox           |
|  \\    /   O peration     | Version:  v2012                                 |
|   \\  /    A nd           | Website:  www.openfoam.com                      |
|    \\/     M anipulation  |                                                 |
\*---------------------------------------------------------------------------*/
FoamFile
{
    version     2.0;
    format      ascii;
    class       volScalarField;
    location    "11500";
    object      TuM;
}
// * * * * * * * * * * * * * * * * * * * * * * * * * * * * * * * * * * * * * //

dimensions      [0 0 0 0 0 0 0];


internalField   nonuniform List<scalar> 
53312
(
0.0733275
0.0170956
0.0302649
0.0108713
0.00677774
0.0195328
0.00854139
0.00428905
0.00396269
0.016618
0.00733949
0.00337038
0.00243439
0.00301046
0.0162169
0.00643903
0.00289865
0.00190942
0.00167809
0.00286231
0.0165739
0.00580015
0.00254483
0.00164324
0.00130317
0.00134036
0.00311016
0.0171011
0.00533181
0.00229375
0.00144406
0.00112062
0.00101032
0.00123658
0.0035306
0.0176227
0.00496188
0.00210971
0.00130326
0.000986665
0.00086495
0.000883326
0.00128881
0.00401239
0.018108
0.00466678
0.00196441
0.00120107
0.000894763
0.000765561
0.000748855
0.000869339
0.00144244
0.00450433
0.0185701
0.00442225
0.00184893
0.00112196
0.000832463
0.000704879
0.000670356
0.000727506
0.000936389
0.00165912
0.00498078
0.0190112
0.00421792
0.00175387
0.0010634
0.00079141
0.000675527
0.000636485
0.000661923
0.000775412
0.00105969
0.00191537
0.00542863
0.019427
0.00405548
0.00167608
0.00102248
0.000779099
0.000676119
0.000643367
0.000652988
0.000716509
0.000872612
0.00122215
0.00219756
0.00584074
0.0198215
0.00395597
0.001618
0.00100627
0.000802222
0.000728105
0.000696064
0.000697679
0.000729452
0.00081553
0.00100489
0.00141343
0.00249722
0.00621272
0.0202015
0.00392719
0.00159006
0.00103232
0.000888366
0.000847674
0.000824412
0.000804987
0.000810079
0.0008472
0.000946312
0.00116361
0.00162752
0.0028077
0.00654414
0.0205766
0.00399061
0.0016054
0.00112215
0.00107967
0.00107279
0.00104947
0.00100975
0.000970433
0.000961793
0.000994735
0.00110153
0.00134394
0.00186069
0.00312332
0.00683724
0.0209556
0.0041709
0.00168187
0.00133773
0.00140713
0.00145757
0.00141659
0.00133977
0.00125095
0.00117482
0.00114282
0.001166
0.00127734
0.00154321
0.00211013
0.00343896
0.00709666
0.0213473
0.00444749
0.00183561
0.00171019
0.00195012
0.0020442
0.0019987
0.0018526
0.00168921
0.00153354
0.00141019
0.00134854
0.00135812
0.00147185
0.0017598
0.00237328
0.00374978
0.00732859
0.0217529
0.00476142
0.00204519
0.00223314
0.00274889
0.00293998
0.00286271
0.00264605
0.00235804
0.00208729
0.00185206
0.00167349
0.00157708
0.00156993
0.00168412
0.00199248
0.0026475
0.00405048
0.0075406
0.0221477
0.00503187
0.00226039
0.00281375
0.00377846
0.0042166
0.00415229
0.00381747
0.00338338
0.00292612
0.00253093
0.00220499
0.00196393
0.001828
0.00180105
0.00191362
0.00224
0.00292959
0.00433627
0.00773947
0.0225265
0.00525744
0.00244119
0.00332806
0.00487359
0.00583775
0.00597563
0.00555079
0.00489703
0.00420702
0.0035559
0.00302013
0.00259263
0.00228187
0.00210151
0.00205147
0.00215987
0.00250083
0.00321565
0.00460285
0.0079328
0.0228982
0.00542985
0.00258181
0.00373738
0.00582056
0.00754843
0.00828158
0.00799403
0.00712711
0.0061002
0.00511802
0.00424894
0.0035564
0.00301623
0.00262814
0.0023981
0.00232121
0.00242219
0.00277286
0.00350113
0.00484664
0.00813103
0.0232836
0.00556901
0.00269036
0.00403097
0.00656591
0.00901978
0.0107074
0.0110781
0.010265
0.00888231
0.00743016
0.00611977
0.00500808
0.00414198
0.00347738
0.00300383
0.0027183
0.00261016
0.0026995
0.00305336
0.00378083
0.00506509
0.00833992
0.023701
0.00567618
0.00277589
0.00425777
0.00709451
0.0101732
0.0127882
0.0143158
0.0142207
0.0127916
0.0108221
0.00889261
0.00721704
0.00583711
0.00477961
0.00397791
0.00341002
0.00306245
0.00291785
0.00299019
0.00333877
0.00404885
0.00525706
0.00857039
0.0241583
0.0057599
0.00284073
0.00443122
0.00750168
0.0109887
0.0144149
0.017088
0.0183669
0.0177145
0.0155825
0.0129552
0.0104948
0.00841543
0.00674012
0.00547209
0.00451964
0.0038476
0.00343056
0.00324332
0.00329202
0.00362465
0.00430033
0.00542316
0.0088354
0.024655
0.00582104
0.00289097
0.00455966
0.00781122
0.0116153
0.0155626
0.01925
0.0219113
0.0228674
0.021572
0.0186503
0.0152928
0.0122456
0.00972147
0.00772154
0.00622229
0.00510413
0.00431709
0.00382218
0.00358503
0.00360187
0.00390562
0.00453339
0.00556611
0.00914042
0.0251664
0.00586646
0.0029273
0.00465741
0.00803893
0.0120903
0.016443
0.0207733
0.0246701
0.0272668
0.0278333
0.0258103
0.0220115
0.0178479
0.0141543
0.0111417
0.00878563
0.00703278
0.00573256
0.00481846
0.0042362
0.00394065
0.00391578
0.00417827
0.00474607
0.00569057
0.00943782
0.0256674
0.00589787
0.00295441
0.00472626
0.00821091
0.0124384
0.0171092
0.0219401
0.0266119
0.0306842
0.033172
0.0332862
0.0304515
0.0256845
0.0206347
0.0162307
0.0126825
0.00993655
0.00790562
0.0064054
0.00535101
0.00467073
0.00430698
0.00422886
0.00444116
0.00493667
0.0058007
0.00971538
0.0261581
0.00591505
0.00297246
0.00477725
0.00833066
0.0126999
0.0175958
0.0228212
0.0280975
0.033088
0.037312
0.0396523
0.0392521
0.0355191
0.0296884
0.0236672
0.0184846
0.0143503
0.0111776
0.00884209
0.00712231
0.00591312
0.00512298
0.00467995
0.00453896
0.00469267
0.0051037
0.00589983
0.00999691
0.0266164
0.0059219
0.00298259
0.00480852
0.00841844
0.0128806
0.0179601
0.023464
0.0292178
0.0349248
0.0402227
0.0445805
0.0467377
0.0457601
0.0410387
0.0340438
0.0269605
0.0209262
0.0161511
0.0125114
0.00984237
0.00788188
0.0065021
0.00558921
0.00505456
0.00484571
0.00493136
0.00524307
0.00599392
0.0102946
0.0270523
0.0059239
0.00298747
0.00482507
0.0084707
0.0130121
0.0182102
0.0239433
0.0300336
0.036309
0.0424446
0.0480448
0.0525217
0.0544601
0.0528399
0.0470357
0.0387706
0.0305292
0.0235641
0.0180887
0.0139387
0.0109052
0.00868134
0.00711417
0.00606465
0.00543085
0.00514875
0.00515624
0.0053408
0.00609119
0.0106161
0.0273528
0.00592035
0.00298932
0.00483284
0.00849634
0.0130884
0.0183909
0.0242711
0.0306406
0.0373155
0.0441177
0.0506864
0.0565876
0.06117
0.0628519
0.0605197
0.0535334
0.0438868
0.034385
0.0264044
0.0201652
0.0154586
0.0120276
0.00951645
0.00774427
0.00654558
0.00580957
0.00544816
0.00536725
0.0053982
0.00620165
0.0109622
0.0276146
0.00591061
0.00298772
0.00483499
0.0085068
0.013124
0.0184941
0.0245066
0.0310541
0.038063
0.045333
0.0526748
0.0596848
0.0658851
0.0705575
0.0719419
0.0688242
0.0605524
0.0494076
0.0385367
0.029451
0.0223802
0.0170675
0.0132047
0.0103815
0.00838628
0.0070338
0.00619197
0.00574486
0.00556495
0.00541697
0.00633382
0.0112925
0.0278859
0.0058962
0.00298265
0.00482934
0.00850753
0.0131362
0.0185398
0.0246392
0.0313497
0.0385708
0.0462344
0.0541178
0.0620144
0.0694749
0.0759713
0.0807117
0.081751
0.077771
0.0681073
0.0553411
0.0429893
0.0327033
0.0247292
0.0187596
0.0144295
0.0112693
0.00904039
0.007532
0.00658023
0.0060413
0.00574305
0.00539912
0.00649055
0.0115914
0.0281596
0.00587949
0.00297532
0.00481821
0.00849402
0.0131335
0.018553
0.0246955
0.0315148
0.0389324
0.0468451
0.0551861
0.0637052
0.072173
0.0800883
0.0868711
0.0916505
0.0922921
0.0873669
0.0762007
0.0616905
0.0477405
0.0361567
0.0272053
0.0205264
0.0156927
0.0121742
0.00971042
0.00804366
0.00697813
0.00634077
0.00586491
0.00535259
0.00667103
0.0118521
0.0284492
0.00586138
0.00296692
0.00480325
0.00847108
0.0131091
0.0185451
0.0247085
0.031582
0.0391324
0.047279
0.0559098
0.0649549
0.0741302
0.0831817
0.0915492
0.0985981
0.103375
0.10356
0.097602
0.0848234
0.0684481
0.0527825
0.0398002
0.0297968
0.0223555
0.0169831
0.0131016
0.0104016
0.00857411
0.0073916
0.00664352
0.00591166
0.00529229
0.00686652
0.0120712
0.0287458
0.00584036
0.00295744
0.00478687
0.00844167
0.0130704
0.0185066
0.0246943
0.0315948
0.039212
0.0475175
0.0564216
0.0658002
0.075576
0.0854244
0.0950624
0.103868
0.111147
0.115868
0.115525
0.108446
0.0939534
0.0755941
0.0580993
0.0436171
0.032487
0.0242317
0.0183048
0.0140588
0.0111213
0.0091318
0.00782867
0.00693289
0.00587356
0.00523907
0.00706948
0.0122627
0.0290396
0.00581775
0.00294632
0.00476825
0.00840979
0.0130216
0.0184488
0.0246393
0.0315723
0.0392236
0.0476098
0.0567026
0.0663973
0.0765524
0.0870798
0.0976088
0.107822
0.117033
0.12449
0.129085
0.128135
0.119847
0.103545
0.0830975
0.0636632
0.0475835
0.0352549
0.0261499
0.0196676
0.0150555
0.0118807
0.00972895
0.0082945
0.00713622
0.00574623
0.00521427
0.00727101
0.0123829
0.029353
0.0057955
0.00293491
0.00474667
0.0083742
0.0129695
0.0183768
0.0245589
0.0314986
0.0391923
0.0476203
0.0568087
0.0667238
0.0772413
0.0881977
0.099486
0.110686
0.121443
0.131006
0.138568
0.142949
0.141306
0.131729
0.113536
0.09091
0.0694374
0.0516681
0.0380795
0.0281232
0.0210845
0.0161062
0.0126958
0.010381
0.00877315
0.00722311
0.00553921
0.00523227
0.00745639
0.0125515
0.0296516
0.00577426
0.00292375
0.00472589
0.0083333
0.0129118
0.0183001
0.0244598
0.0313928
0.0390975
0.0475792
0.0568186
0.066846
0.077618
0.0889842
0.100753
0.112797
0.124638
0.135882
0.145716
0.153287
0.15735
0.154929
0.14399
0.123849
0.0989692
0.0753755
0.0558363
0.040979
0.0301688
0.0225742
0.0172311
0.0135892
0.0110983
0.00918609
0.00716262
0.00528073
0.00529244
0.00761637
0.0127312
0.0299504
0.00575275
0.00291276
0.00470575
0.00829423
0.012846
0.0182157
0.0243548
0.0312634
0.0389633
0.0474613
0.0567663
0.0668546
0.0777566
0.0894141
0.101644
0.114221
0.126989
0.139412
0.151058
0.161057
0.168519
0.172149
0.168867
0.156511
0.134383
0.107203
0.0814261
0.0601001
0.0439752
0.0323109
0.0241634
0.0184595
0.014587
0.0118576
0.00945974
0.00693101
0.00501423
0.00538448
0.00774785
0.012869
0.0302495
0.00572879
0.0029012
0.0046854
0.0082565
0.0127833
0.0181205
0.0242399
0.0311263
0.0388
0.0472963
0.0566236
0.0667911
0.0777657
0.0895717
0.102131
0.11522
0.128575
0.142006
0.15492
0.166851
0.176884
0.184102
0.187184
0.182961
0.169157
0.145031
0.115537
0.0875833
0.064486
0.0471
0.0345831
0.02589
0.0198299
0.0157015
0.0125398
0.00953708
0.00652871
0.00478603
0.00549441
0.00784887
0.0129556
0.0305518
0.00570259
0.00288822
0.00466323
0.00821868
0.0127229
0.0180294
0.0241105
0.030977
0.0386278
0.0470962
0.0564253
0.0666217
0.0776901
0.0895806
0.102309
0.115768
0.129686
0.143757
0.157756
0.171037
0.183108
0.193021
0.199858
0.202273
0.197048
0.181788
0.155688
0.123944
0.0938813
0.0690334
0.0503987
0.0370342
0.0278064
0.0213803
0.0168813
0.0130544
0.00935675
0.00599512
0.00462856
0.00560935
0.00791992
0.012997
0.0308478
0.00567981
0.00287484
0.00463827
0.00817719
0.0126622
0.0179418
0.0239873
0.0308095
0.0384405
0.0468852
0.0561853
0.0663876
0.0774926
0.0894935
0.10232
0.115968
0.130298
0.144981
0.15967
0.174106
0.187598
0.199641
0.209276
0.215591
0.217236
0.210968
0.194277
0.166322
0.13246
0.100364
0.0737969
0.0539321
0.0397312
0.0299758
0.0231091
0.017929
0.0133126
0.00887569
0.00540852
0.00455119
0.00571778
0.007958
0.0130064
0.0311093
0.00565805
0.00286365
0.00461488
0.00813134
0.0125966
0.0178544
0.0238684
0.0306499
0.0382312
0.0466564
0.0559325
0.066105
0.0772201
0.0892669
0.10222
0.115981
0.13052
0.145658
0.161005
0.176175
0.190884
0.204408
0.216245
0.225445
0.23111
0.231902
0.224583
0.206589
0.176957
0.141117
0.107087
0.0788473
0.057787
0.0427616
0.032443
0.0248786
0.0187581
0.0132052
0.0080997
0.00486552
0.0045418
0.00581032
0.00798032
0.013
0.0316349
0.00563638
0.00285238
0.00459584
0.00808851
0.0125238
0.0177597
0.0237502
0.0304964
0.0380313
0.0464012
0.0556588
0.0658075
0.0768924
0.0889551
0.101964
0.115871
0.130538
0.145905
0.161746
0.177617
0.193099
0.207891
0.221257
0.232714
0.24133
0.246241
0.246135
0.237857
0.218731
0.187598
0.149961
0.114125
0.084289
0.0620789
0.0462111
0.035146
0.026462
0.0192292
0.0126358
0.00711218
0.00444286
0.00457711
0.00587851
0.00799265
0.0131252
0.0318267
0.00561403
0.00284079
0.00457588
0.00805349
0.0124564
0.0176557
0.0236226
0.0303436
0.0378391
0.0461578
0.0553539
0.0654857
0.0765474
0.0885793
0.101611
0.115583
0.130416
0.145927
0.162018
0.178421
0.194639
0.210236
0.224911
0.237932
0.248846
0.256758
0.260847
0.259894
0.250778
0.230684
0.198264
0.159055
0.121586
0.090259
0.066936
0.0500807
0.0377255
0.0277167
0.0191708
0.0115593
0.0060637
0.00417001
0.004632
0.00592575
0.00803932
0.0132664
0.031863
0.00559102
0.00282882
0.00455436
0.00801717
0.012401
0.0175591
0.0234828
0.0301792
0.0376485
0.0459234
0.0550633
0.0651279
0.0761748
0.0881849
0.101187
0.115189
0.1301
0.145795
0.162048
0.178717
0.195501
0.211865
0.227368
0.241726
0.25423
0.264468
0.271597
0.274887
0.27316
0.263301
0.242422
0.208986
0.168477
0.129615
0.0969107
0.0724189
0.0540962
0.040009
0.028426
0.0184153
0.0100506
0.00512112
0.00402998
0.00469033
0.00597549
0.00812565
0.0133939
0.0319044
0.00556768
0.00281672
0.00453236
0.00797792
0.0123437
0.0174795
0.023353
0.0299996
0.0374437
0.0456914
0.0547836
0.0647861
0.0757606
0.0877585
0.10074
0.114715
0.129665
0.145451
0.161908
0.178757
0.195822
0.212777
0.229069
0.244275
0.258136
0.269979
0.279451
0.285804
0.28834
0.28588
0.275382
0.253931
0.219781
0.17833
0.138352
0.104333
0.0783262
0.0578037
0.0417513
0.0283258
0.0168597
0.0083171
0.00440088
0.00398258
0.00475343
0.00603012
0.00820424
0.0135468
0.0319439
0.00554728
0.00280501
0.00451083
0.0079378
0.0122819
0.0173975
0.0232459
0.0298328
0.0372201
0.0454427
0.0545069
0.0644579
0.0753652
0.0872854
0.100259
0.114217
0.129141
0.144976
0.161537
0.17861
0.195872
0.21312
0.230026
0.246033
0.260753
0.273965
0.285054
0.293755
0.29936
0.301153
0.297996
0.286966
0.26518
0.230673
0.188691
0.147862
0.112332
0.0838476
0.0609464
0.0426115
0.0271555
0.0145731
0.00663885
0.00393552
0.00399249
0.00481165
0.00606915
0.00825989
0.0137227
0.0319815
0.00552901
0.00279491
0.00449139
0.00789888
0.0122193
0.0173095
0.0231359
0.0296948
0.0370126
0.0451712
0.0542104
0.0641334
0.0749851
0.0868336
0.0997244
0.113679
0.128591
0.144406
0.161026
0.178216
0.195719
0.213182
0.230389
0.247024
0.262553
0.27663
0.289093
0.299412
0.307362
0.312215
0.313272
0.309455
0.297995
0.27612
0.241638
0.199489
0.157893
0.120051
0.0887226
0.0631168
0.042193
0.0247493
0.0118453
0.00525217
0.00368716
0.00402874
0.00486884
0.0060952
0.00830155
0.0139125
0.0320141
0.00550991
0.00278523
0.00447508
0.00786427
0.0121584
0.0172203
0.0230179
0.0295536
0.0368409
0.0449195
0.0538876
0.063786
0.0746098
0.0863994
0.0992139
0.113082
0.127997
0.143805
0.160411
0.177672
0.195306
0.213026
0.230461
0.247403
0.263568
0.278456
0.291783
0.303476
0.31304
0.320223
0.324317
0.324643
0.320191
0.308383
0.286648
0.252507
0.210317
0.167537
0.12681
0.0924695
0.0637999
0.0401222
0.0211902
0.00911953
0.00426994
0.00358526
0.00407206
0.00491793
0.006106
0.00833881
0.0140928
0.0320414
0.00548884
0.00277446
0.00445776
0.00783515
0.0121046
0.0171338
0.0228986
0.0294025
0.0366654
0.0447109
0.053588
0.063408
0.0742087
0.0859705
0.0987234
0.112512
0.127338
0.143157
0.159764
0.177018
0.194735
0.212597
0.230304
0.247486
0.26396
0.279484
0.293619
0.306171
0.3171
0.325888
0.33229
0.335619
0.335211
0.330125
0.318004
0.296533
0.262828
0.220182
0.175716
0.132111
0.0944601
0.0624473
0.0361732
0.0169248
0.00679304
0.00367889
0.00356249
0.0041135
0.00493836
0.00611626
0.00835514
0.0142479
0.0320621
0.00546659
0.00276296
0.00443713
0.00780401
0.0120592
0.0170575
0.0227835
0.0292498
0.0364777
0.0444981
0.0533396
0.0630572
0.073772
0.0855128
0.0982404
0.111965
0.126709
0.142438
0.159065
0.176329
0.194046
0.212004
0.229862
0.247327
0.264051
0.279884
0.294647
0.307999
0.319779
0.329921
0.337911
0.343522
0.346075
0.344913
0.339152
0.326657
0.305383
0.271798
0.228052
0.181915
0.135264
0.0940015
0.0585664
0.0305145
0.0126596
0.00507129
0.00338156
0.00357433
0.00415371
0.00494156
0.00611663
0.00837519
0.0143763
0.0320772
0.00544532
0.00275137
0.00441597
0.00776688
0.0120108
0.0169933
0.0226815
0.0291025
0.0362884
0.0442708
0.0530865
0.0627663
0.0733665
0.0850144
0.0977231
0.111425
0.126104
0.141751
0.158289
0.175585
0.193322
0.211289
0.229253
0.246877
0.263889
0.279979
0.295051
0.309013
0.321584
0.332563
0.341893
0.349074
0.35388
0.355636
0.35367
0.347136
0.334072
0.312612
0.27853
0.233826
0.185423
0.135508
0.0904042
0.0519304
0.0238748
0.00902524
0.00396484
0.00326014
0.00359993
0.00418967
0.00493367
0.00611398
0.00843799
0.0145778
0.0320877
0.00542832
0.00274103
0.00439629
0.00772904
0.0119534
0.0169247
0.0225959
0.0289724
0.0361059
0.0440417
0.0528165
0.06247
0.0730309
0.0845523
0.0971614
0.110848
0.125509
0.141091
0.157549
0.174758
0.19254
0.210537
0.228519
0.246257
0.263432
0.279813
0.295144
0.309411
0.322571
0.33433
0.344482
0.352985
0.359344
0.363325
0.364243
0.361387
0.353889
0.339956
0.317809
0.283059
0.236985
0.185545
0.132066
0.0831274
0.0429188
0.0173752
0.00631661
0.00335882
0.00322637
0.00362749
0.00418813
0.00491777
0.00611851
0.0086022
0.0146513
0.0320967
0.00541301
0.00273293
0.00438058
0.00769435
0.0118949
0.0168437
0.0225048
0.028863
0.035945
0.043821
0.0525448
0.0621544
0.0726887
0.084169
0.0966396
0.110221
0.124872
0.140442
0.156837
0.173969
0.19167
0.209724
0.227747
0.245512
0.262808
0.279353
0.294971
0.309495
0.322959
0.335277
0.346197
0.355505
0.36317
0.368693
0.371814
0.371828
0.367976
0.359383
0.344336
0.321037
0.284903
0.236816
0.181572
0.124227
0.072052
0.0327563
0.0119539
0.00452872
0.0030814
0.00322918
0.00365326
0.00417936
0.00490452
0.00616541
0.00875657
0.0146766
0.0321027
0.00539928
0.00272524
0.00436886
0.0076671
0.0118416
0.0167614
0.0223971
0.0287469
0.0358097
0.0436265
0.0522829
0.0618367
0.0723247
0.0837788
0.0962072
0.109639
0.12418
0.139748
0.156137
0.173212
0.19084
0.208819
0.226912
0.244726
0.262056
0.278726
0.294506
0.309306
0.323024
0.335651
0.347093
0.357158
0.365611
0.372426
0.377089
0.3793
0.378352
0.373389
0.363495
0.346946
0.321998
0.283622
0.232472
0.172818
0.11151
0.0579894
0.0231667
0.00797343
0.00350089
0.00297784
0.00324468
0.00365012
0.00416616
0.00491338
0.00622036
0.00888738
0.0146903
0.0321072
0.00538382
0.00271758
0.00435699
0.00764702
0.0117998
0.0166865
0.0222881
0.02861
0.035666
0.0434633
0.0520521
0.0615312
0.0719582
0.0833641
0.0957679
0.109157
0.123538
0.138993
0.155389
0.172466
0.190043
0.207958
0.225982
0.243878
0.261264
0.277973
0.293877
0.308831
0.322815
0.335687
0.34745
0.357997
0.367191
0.374783
0.380733
0.384505
0.38577
0.383744
0.377487
0.36599
0.34757
0.32036
0.278808
0.223215
0.158639
0.094101
0.0429313
0.0154379
0.00534225
0.00300238
0.00295127
0.00325517
0.00364517
0.00416261
0.0049409
0.00626403
0.0089992
0.0146977
0.0321104
0.00536539
0.00270856
0.00434314
0.00762669
0.0117694
0.0166282
0.0221893
0.0284714
0.0354974
0.04329
0.0518584
0.0612615
0.0716063
0.0829466
0.0952998
0.108666
0.123006
0.138292
0.154575
0.171668
0.189259
0.207129
0.225098
0.242933
0.260411
0.277181
0.293125
0.308196
0.322326
0.335454
0.347449
0.358327
0.367973
0.376287
0.383009
0.388077
0.390931
0.391153
0.387873
0.380047
0.36663
0.345763
0.315543
0.26956
0.208328
0.138711
0.0734376
0.029406
0.00991435
0.0037916
0.00280203
0.00294912
0.00324978
0.00364319
0.00416973
0.00496916
0.00630517
0.00908258
0.0147026
0.0321114
0.0053459
0.00269807
0.00432579
0.00760248
0.0117386
0.0165856
0.0221121
0.0283458
0.0353265
0.0430865
0.0516536
0.0610359
0.0712963
0.0825458
0.0948296
0.108146
0.122465
0.137711
0.153818
0.1708
0.18842
0.206315
0.224247
0.242036
0.259459
0.276329
0.292336
0.307441
0.321686
0.334951
0.347188
0.358283
0.368268
0.377016
0.38444
0.390283
0.394445
0.396298
0.395331
0.390552
0.380882
0.365138
0.341299
0.306851
0.255002
0.187189
0.11359
0.0525782
0.0189768
0.00631463
0.00300854
0.00273495
0.00294907
0.00324928
0.00364701
0.00417973
0.00498645
0.00636739
0.00918078
0.0147056
0.032111
0.00532586
0.00268762
0.0043067
0.00757199
0.0117019
0.016543
0.0220562
0.0282482
0.035172
0.0428811
0.0514132
0.060797
0.071036
0.0821924
0.0943781
0.107621
0.121889
0.13712
0.153192
0.169995
0.187507
0.205443
0.223411
0.241171
0.258556
0.275378
0.291488
0.306651
0.320927
0.334301
0.346667
0.357991
0.368179
0.377266
0.385124
0.391659
0.396605
0.399799
0.400535
0.39815
0.391607
0.379719
0.361053
0.333567
0.293543
0.234048
0.159596
0.0856253
0.034844
0.0117851
0.00418041
0.00268007
0.00271368
0.00294508
0.00325423
0.00365319
0.004187
0.00500662
0.00648866
0.00920932
0.0147076
0.032111
0.00530985
0.0026778
0.00428879
0.00753866
0.0116554
0.0164922
0.0220005
0.0281779
0.0350522
0.0426951
0.05117
0.0605169
0.0707614
0.0818969
0.0939804
0.107117
0.121311
0.136492
0.152554
0.169328
0.186658
0.204494
0.222516
0.240323
0.257688
0.274477
0.290544
0.305808
0.320136
0.333539
0.346008
0.357453
0.367855
0.377132
0.385321
0.392297
0.397943
0.401951
0.404074
0.403465
0.399476
0.390827
0.376164
0.353954
0.322079
0.2745
0.205964
0.126661
0.0590813
0.0218107
0.00721351
0.00307397
0.00256183
0.00270568
0.00294797
0.00326125
0.00365608
0.00419322
0.00505315
0.00659311
0.00921348
0.0147088
0.0321103
0.00529878
0.00267071
0.00427461
0.00750774
0.0116053
0.0164277
0.0219339
0.0281076
0.0349658
0.0425511
0.0509506
0.0602342
0.0704394
0.0815841
0.0936471
0.106674
0.120756
0.135861
0.151877
0.168648
0.185956
0.203612
0.221542
0.239414
0.256835
0.273612
0.289652
0.304873
0.319296
0.332748
0.345243
0.356783
0.367296
0.376775
0.385148
0.392451
0.398539
0.403265
0.406248
0.407135
0.405051
0.399085
0.387855
0.369835
0.343484
0.305578
0.248571
0.170971
0.0919414
0.0378431
0.0131559
0.00453305
0.00259483
0.00252351
0.00270464
0.00295402
0.00326603
0.00365763
0.00421986
0.00509937
0.00666836
0.00921221
0.0147094
0.0321081
0.00528938
0.0026658
0.00426648
0.00748413
0.0115585
0.016358
0.0218496
0.0280242
0.0348805
0.042448
0.0507809
0.0599785
0.0701142
0.0812182
0.0932954
0.106303
0.120267
0.135256
0.151196
0.167925
0.185239
0.202882
0.220636
0.238424
0.255922
0.272762
0.288794
0.303992
0.318369
0.331913
0.344451
0.356013
0.366615
0.376197
0.384762
0.392242
0.398664
0.40385
0.407588
0.409428
0.408931
0.405041
0.396715
0.382347
0.36038
0.329246
0.283011
0.214317
0.130922
0.0610004
0.0229935
0.00780905
0.0031338
0.00242042
0.00251064
0.00270897
0.00295954
0.00326837
0.00366734
0.00425129
0.00514834
0.00671691
0.00921039
0.0147096
0.0321053
0.00528038
0.00266092
0.00426113
0.00747152
0.0115234
0.0162935
0.0217586
0.0279181
0.0347785
0.042346
0.0506598
0.0597817
0.0698209
0.0808486
0.0928842
0.105911
0.119858
0.134722
0.150543
0.167199
0.184479
0.202135
0.219886
0.237504
0.254927
0.271852
0.287954
0.303146
0.317497
0.330994
0.343621
0.355221
0.365841
0.375506
0.384165
0.391831
0.398434
0.403965
0.408197
0.410854
0.411402
0.40928
0.403248
0.392032
0.373924
0.347445
0.309928
0.252851
0.172708
0.0909877
0.0377321
0.0135002
0.00473099
0.00251992
0.00236407
0.00251059
0.00271394
0.00296347
0.00327453
0.00368308
0.00427429
0.00521176
0.00675737
0.00920902
0.0147094
0.0321034
0.0052671
0.00265511
0.00425385
0.00746356
0.0115052
0.0162454
0.0216742
0.0278036
0.0346488
0.0422245
0.0505402
0.0596415
0.0695948
0.080516
0.0924688
0.105454
0.119426
0.134276
0.149968
0.166504
0.183714
0.201344
0.219117
0.236743
0.254002
0.270862
0.287054
0.302318
0.316661
0.330132
0.342711
0.354397
0.365049
0.374728
0.383466
0.391221
0.398004
0.403725
0.408334
0.41154
0.412994
0.412065
0.408007
0.399363
0.384671
0.362252
0.330679
0.28413
0.213393
0.126919
0.0578432
0.0222429
0.00781698
0.00313354
0.00229759
0.00234922
0.00251415
0.00271812
0.00297031
0.00328289
0.00369631
0.00430118
0.00530289
0.0067548
0.00920845
0.0147089
0.0321011
0.00525032
0.00264658
0.00424212
0.00745187
0.0114944
0.0162214
0.021612
0.0276979
0.0345093
0.0420698
0.0503978
0.0595032
0.0694346
0.0802595
0.0920949
0.104991
0.118922
0.133805
0.149486
0.165889
0.182981
0.200548
0.218304
0.235961
0.253237
0.26994
0.286075
0.301432
0.315843
0.329307
0.341861
0.353497
0.36423
0.373936
0.382685
0.390516
0.397387
0.403292
0.408113
0.411738
0.413817
0.413923
0.411251
0.40485
0.393042
0.37427
0.347047
0.308582
0.249751
0.166442
0.0841378
0.0344738
0.0127192
0.00462467
0.00243388
0.00222868
0.00234841
0.00251775
0.00272418
0.00297879
0.00329134
0.00371782
0.00434345
0.00535863
0.00674841
0.00920816
0.0147083
0.0320988
0.00523289
0.00263695
0.0042251
0.00743176
0.0114777
0.0162074
0.0215815
0.0276203
0.0343804
0.0419032
0.0502163
0.0593389
0.0692771
0.0800782
0.0918073
0.104575
0.118412
0.133255
0.148977
0.165375
0.182334
0.199786
0.217485
0.235133
0.252449
0.269179
0.285163
0.300468
0.314969
0.328502
0.341049
0.35266
0.363342
0.373124
0.381895
0.389735
0.396682
0.402681
0.407699
0.411579
0.414148
0.414982
0.413505
0.408739
0.399492
0.383908
0.36052
0.327743
0.279476
0.206351
0.116923
0.0512766
0.0196931
0.00720728
0.00300207
0.00218399
0.00221168
0.00235088
0.00252256
0.00273206
0.00298671
0.00330204
0.00374825
0.00438913
0.00538831
0.00674359
0.00920764
0.0147076
0.0320964
0.00521577
0.00262752
0.00420797
0.0074026
0.0114481
0.0161856
0.0215649
0.0275834
0.0342864
0.0417494
0.050021
0.0591292
0.0690898
0.0799008
0.0916045
0.104256
0.117955
0.1327
0.148384
0.164832
0.181791
0.199111
0.216702
0.234301
0.251616
0.26839
0.28441
0.29957
0.314019
0.327643
0.340258
0.351862
0.362519
0.372249
0.381091
0.388949
0.395906
0.401983
0.407108
0.411211
0.414089
0.415503
0.4149
0.411554
0.404246
0.391569
0.371637
0.343128
0.302905
0.241828
0.15573
0.0740173
0.0294376
0.0109844
0.0042103
0.00230835
0.00210976
0.00220988
0.002355
0.00252925
0.00273971
0.00299264
0.00331821
0.00377613
0.00444682
0.00539937
0.00674096
0.00920712
0.0147069
0.0320928
0.00520091
0.00261887
0.00419224
0.00737336
0.0114046
0.0161455
0.0215376
0.0275639
0.0342426
0.0416379
0.049841
0.0589035
0.0688503
0.0796897
0.0914065
0.104032
0.117603
0.132201
0.147785
0.1642
0.181217
0.198545
0.216007
0.233505
0.250779
0.267559
0.283629
0.298829
0.313136
0.326709
0.339415
0.351087
0.361736
0.37144
0.380229
0.388155
0.395127
0.40122
0.406434
0.410666
0.413811
0.415612
0.415719
0.413439
0.407827
0.397453
0.380773
0.355966
0.321495
0.270849
0.195078
0.105064
0.0432304
0.0162889
0.00612574
0.00274414
0.0020694
0.00209203
0.00221277
0.00236117
0.00253655
0.00274617
0.00300088
0.00333797
0.00380038
0.00450713
0.00539071
0.00673991
0.00920684
0.0147062
0.0320903
0.00518948
0.00261204
0.0041799
0.00734705
0.0113613
0.0160863
0.0214863
0.0275311
0.0342206
0.0415872
0.0497109
0.0586954
0.0685923
0.079419
0.0911706
0.103812
0.117357
0.131818
0.147248
0.16356
0.18055
0.197945
0.215422
0.232797
0.249978
0.266725
0.282806
0.298058
0.312406
0.325841
0.338501
0.350262
0.360978
0.370673
0.379436
0.387308
0.394345
0.400455
0.405696
0.410037
0.413346
0.415475
0.416076
0.414672
0.410371
0.402033
0.388037
0.36676
0.336675
0.294085
0.229876
0.142632
0.0643968
0.0238748
0.00887263
0.00358951
0.00214806
0.00200172
0.00209056
0.0022182
0.00236825
0.00254383
0.00275471
0.00301177
0.00335693
0.00383638
0.0045356
0.00538275
0.00673947
0.00920664
0.0147054
0.0320891
0.00518375
0.00260807
0.00417193
0.00732708
0.0113225
0.0160274
0.0214099
0.0274681
0.0341822
0.0415628
0.0496532
0.0585457
0.0683547
0.0791274
0.0908679
0.103551
0.117116
0.13155
0.146835
0.162988
0.179876
0.19725
0.214803
0.232199
0.249263
0.265926
0.281979
0.297247
0.311644
0.325125
0.337651
0.349369
0.360173
0.369932
0.378686
0.386532
0.393518
0.399691
0.404953
0.409341
0.41279
0.415133
0.416151
0.415382
0.412173
0.405447
0.393866
0.375618
0.349268
0.312808
0.258974
0.180171
0.0933124
0.0364594
0.0127884
0.00490713
0.00241856
0.0019547
0.0019866
0.00209442
0.00222471
0.00237514
0.00255328
0.00276353
0.00302585
0.00338524
0.00388138
0.00454571
0.00537842
0.00673924
0.00920636
0.0147044
0.0320868
0.00517799
0.00260545
0.00417153
0.00731539
0.0112938
0.0159748
0.021334
0.0273732
0.0341069
0.0415192
0.0496268
0.0584808
0.0681847
0.0788591
0.090542
0.103216
0.116831
0.131288
0.146546
0.162548
0.179273
0.196548
0.214086
0.231567
0.248658
0.265211
0.281189
0.296432
0.310844
0.324376
0.336951
0.34854
0.359303
0.369149
0.377965
0.3858
0.392761
0.398886
0.404215
0.408636
0.412158
0.414685
0.415989
0.41574
0.413368
0.408003
0.398384
0.382944
0.359893
0.328093
0.282691
0.214875
0.127193
0.0555917
0.0194772
0.0068101
0.00294224
0.00197922
0.00190319
0.00198667
0.00210016
0.00223095
0.00238328
0.00256224
0.00277393
0.00304268
0.00341015
0.00393231
0.00453411
0.00537665
0.00673905
0.00920606
0.0147035
0.0320847
0.00517124
0.00260244
0.00416946
0.00731738
0.0112779
0.0159366
0.0212665
0.027279
0.0339924
0.0414305
0.0495774
0.058453
0.0681124
0.0786685
0.0902424
0.102855
0.116463
0.130978
0.146264
0.162239
0.178809
0.19592
0.213363
0.230836
0.248018
0.264604
0.28048
0.295654
0.310042
0.323589
0.336216
0.347858
0.358496
0.368304
0.377204
0.3851
0.392049
0.398152
0.40344
0.407936
0.411511
0.414148
0.415697
0.415832
0.414124
0.409844
0.401912
0.388813
0.368901
0.340719
0.301895
0.244459
0.163462
0.0813248
0.0306548
0.0100957
0.00377466
0.00211054
0.00184732
0.00189357
0.00199132
0.00210608
0.00223811
0.00239092
0.0025714
0.00278125
0.00306359
0.00343791
0.0039531
0.00452424
0.00537614
0.00673889
0.00920578
0.0147027
0.0320828
0.00516258
0.00259803
0.00416558
0.00731559
0.0112829
0.0159163
0.0212183
0.0271957
0.0338787
0.0412955
0.0494756
0.0583981
0.0680833
0.0785888
0.0900296
0.102523
0.116067
0.130579
0.145931
0.161937
0.178483
0.195436
0.212716
0.230098
0.247279
0.263961
0.279875
0.294952
0.309275
0.322801
0.335446
0.347139
0.357833
0.367521
0.376386
0.384363
0.39137
0.397463
0.402734
0.407201
0.410866
0.413583
0.415294
0.415758
0.414564
0.411157
0.40459
0.393552
0.376341
0.351477
0.317543
0.268854
0.19749
0.112167
0.0477433
0.0159394
0.005253
0.00238542
0.00183002
0.00181516
0.00189568
0.00199704
0.00211286
0.0022452
0.00239967
0.00257731
0.00279481
0.00308329
0.00347238
0.00395466
0.00451933
0.00537595
0.00673876
0.00920553
0.0147022
0.0320806
0.00515
0.00259188
0.00415779
0.00731065
0.0112824
0.0159257
0.0211939
0.0271368
0.0337784
0.0411611
0.0493184
0.0582823
0.0680237
0.078559
0.0899434
0.102289
0.115703
0.130149
0.145501
0.161583
0.178163
0.195093
0.212217
0.229438
0.246534
0.263221