/*--------------------------------*- C++ -*----------------------------------*\
| =========                 |                                                 |
| \\      /  F ield         | OpenFOAM: The Open Source CFD Toolbox           |
|  \\    /   O peration     | Version:  v2012                                 |
|   \\  /    A nd           | Website:  www.openfoam.com                      |
|    \\/     M anipulation  |                                                 |
\*---------------------------------------------------------------------------*/
FoamFile
{
    version     2.0;
    format      ascii;
    class       volVectorField;
    location    "11500";
    object      U;
}
// * * * * * * * * * * * * * * * * * * * * * * * * * * * * * * * * * * * * * //

dimensions      [0 1 -1 0 0 0 0];


internalField   nonuniform List<vector> 
53312
(
(113.881 3.49293 5.20013e-16)
(25.0257 0.046765 7.37905e-16)
(272.551 10.4174 1.48788e-15)
(15.8239 0.0138673 1.44788e-15)
(73.103 0.134343 2.15949e-15)
(394.379 17.7225 1.94281e-15)
(12.4093 0.000541175 2.29808e-16)
(46.8231 0.0606603 4.25503e-15)
(119.746 0.320923 3.49433e-15)
(494.152 24.8509 1.75535e-15)
(10.6504 0.00265576 -8.23033e-16)
(36.8353 0.00805279 6.85859e-16)
(77.4479 0.139839 7.11688e-15)
(165.275 0.590394 4.68189e-15)
(578.646 31.6511 1.58215e-15)
(9.33679 0.00139264 -1.40546e-15)
(31.6312 0.0136035 -2.44598e-15)
(61.0474 0.0260352 1.15381e-15)
(107.85 0.249205 9.48486e-15)
(209.977 0.946744 5.78468e-15)
(651.193 37.8711 1.32621e-15)
(8.40628 0.000306509 5.17636e-16)
(27.7552 0.00764144 -4.19207e-15)
(52.4146 0.0331483 -3.92316e-15)
(85.1555 0.0550128 1.65803e-15)
(138.174 0.386293 1.17128e-14)
(254.08 1.40421 7.31897e-15)
(714.23 43.5169 1.74253e-15)
(7.72495 -0.000311038 -2.30758e-16)
(24.9984 0.00322024 1.54532e-15)
(46.0045 0.0198102 -6.5792e-15)
(73.1046 0.0614159 -5.04449e-15)
(109.269 0.0953778 2.13013e-15)
(168.562 0.54994 1.41678e-14)
(297.765 1.97074 8.9275e-15)
(769.598 48.6881 2.07333e-15)
(7.18678 7.58863e-05 1.26194e-15)
(22.9773 0.00113373 -6.79702e-16)
(41.4364 0.0101754 2.23581e-15)
(64.1851 0.0376239 -9.01447e-15)
(93.8003 0.0988039 -5.91402e-15)
(133.494 0.147387 2.72542e-15)
(199.143 0.740384 1.63242e-14)
(341.17 2.64547 1.04367e-14)
(818.669 53.4455 2.49162e-15)
(6.75716 0.00185372 -6.75315e-17)
(21.3797 0.0015871 3.7837e-15)
(38.0827 0.00588635 -1.07567e-15)
(57.8155 0.0208504 2.76007e-15)
(82.3878 0.0615523 -1.10896e-14)
(114.596 0.145308 -6.78053e-15)
(157.937 0.212156 3.02163e-15)
(230.045 0.958712 1.79918e-14)
(384.397 3.43338 1.20726e-14)
(862.482 57.7827 2.80774e-15)
(6.40135 0.00305377 -6.5681e-16)
(20.1028 0.00638925 -2.0198e-16)
(35.4315 0.00552247 6.23517e-15)
(53.1342 0.0134986 -1.59065e-15)
(74.222 0.0355582 3.04383e-15)
(100.697 0.091557 -1.32604e-14)
(135.582 0.201822 -6.924e-15)
(182.701 0.290951 3.64377e-15)
(261.386 1.20749 1.96193e-14)
(427.504 4.33919 1.37826e-14)
(901.852 61.7245 3.10055e-15)
(6.10507 0.00233205 3.39899e-16)
(19.0448 0.00936743 -1.33097e-15)
(33.3109 0.0119091 -4.15189e-16)
(49.4329 0.0117226 8.21634e-15)
(68.2144 0.0241856 -1.89565e-15)
(90.736 0.0543878 2.88082e-15)
(119.197 0.128284 -1.50531e-14)
(156.85 0.26843 -7.3614e-15)
(207.885 0.384801 4.19926e-15)
(293.276 1.48788 2.1106e-14)
(470.55 5.37323 1.50362e-14)
(937.415 65.2967 3.17055e-15)
(5.8714 -0.000504487 1.38459e-15)
(18.1626 0.00717326 1.00642e-15)
(31.5532 0.0159955 -2.00872e-15)
(46.4701 0.0193443 -3.21287e-16)
(63.4633 0.0202425 1.03346e-14)
(83.399 0.0380127 -1.96344e-15)
(107.433 0.0775871 2.90423e-15)
(137.966 0.171872 -1.74504e-14)
(178.485 0.346121 -7.96831e-15)
(233.59 0.495309 5.01194e-15)
(325.827 1.80646 2.25074e-14)
(513.575 6.54119 1.66044e-14)
(969.696 68.5234 3.23584e-15)
(5.7318 -0.00345346 2.93245e-16)
(17.4653 -0.000715174 4.12426e-15)
(30.0864 0.0123984 1.41266e-15)
(44.0138 0.024046 -2.67664e-15)
(59.6575 0.0285699 -2.44531e-16)
(77.5948 0.0311475 1.26737e-14)
(98.7585 0.0551773 -2.05958e-15)
(124.385 0.105456 3.26724e-15)
(157.08 0.223057 -2.00416e-14)
(200.572 0.435668 -8.16992e-15)
(259.913 0.624419 5.6974e-15)
(359.148 2.16612 2.412e-14)
(556.549 7.84525 1.73917e-14)
(999.116 71.4348 3.04758e-15)
(5.6962 -0.00310386 2.40721e-16)
(17.0456 -0.0089325 8.77621e-16)
(28.9245 6.78586e-05 6.51521e-15)
(41.9624 0.0186416 1.81049e-15)
(56.5015 0.0334985 -3.12618e-15)
(72.9422 0.0396821 -1.72392e-16)
(91.8941 0.0445722 1.49726e-14)
(114.361 0.0758249 -2.16093e-15)
(141.663 0.138419 3.6593e-15)
(176.616 0.282447 -2.22611e-14)
(223.197 0.538106 -8.12055e-15)
(286.95 0.774486 6.56532e-15)
(393.325 2.57782 2.56769e-14)
(599.432 9.29457 1.79182e-14)
(1026.03 74.0702 2.84506e-15)
(5.78692 -0.000346809 3.1395e-16)
(16.9369 -0.00827732 8.19405e-16)
(28.2202 -0.0128732 1.14749e-15)
(40.3347 0.0018083 8.89436e-15)
(53.8637 0.026042 2.45727e-15)
(69.0829 0.0444455 -3.40612e-15)
(86.388 0.0527669 -9.76591e-17)
(106.424 0.0606337 1.72132e-14)
(130.27 0.100398 -2.65146e-15)
(159.335 0.176825 4.37486e-15)
(196.65 0.350861 -2.45296e-14)
(246.442 0.654664 -7.95705e-15)
(314.799 0.949046 7.55289e-15)
(428.435 3.04679 2.71938e-14)
(642.153 10.9024 1.84552e-14)
(1050.72 76.414 2.60457e-15)
(6.04437 0.00198846 2.54452e-16)
(17.2023 -0.00127794 9.34441e-16)
(28.0336 -0.0119788 1.37443e-15)
(39.3418 -0.0161161 1.39521e-15)
(51.7678 0.00451913 1.11745e-14)
(65.8554 0.0346789 3.32333e-15)
(81.8195 0.0569774 -4.135e-15)
(100.055 0.0679585 4.01949e-18)
(121.248 0.0796347 1.98367e-14)
(146.552 0.129032 -3.1428e-15)
(177.47 0.221438 5.0948e-15)
(217.255 0.429232 -2.68702e-14)
(270.393 0.786802 -8.23783e-15)
(343.549 1.15121 8.58083e-15)
(464.547 3.58327 2.89897e-14)
(684.617 12.6812 1.80862e-14)
(1073.44 78.4285 2.27971e-15)
(6.44269 0.00186749 9.13533e-16)
(17.9625 0.00449433 7.53927e-16)
(28.4641 -0.00240481 1.57039e-15)
(39.0739 -0.0152456 1.69045e-15)
(50.4823 -0.0186249 1.80452e-15)
(63.2873 0.00819532 1.32891e-14)
(77.9967 0.0446586 4.17914e-15)
(94.7689 0.0712166 -5.33436e-15)
(114.003 0.085428 -2.74922e-16)
(136.426 0.101748 2.25194e-14)
(163.27 0.162362 -3.3726e-15)
(196.139 0.272722 5.82531e-15)
(238.508 0.518657 -2.88015e-14)
(295.132 0.936335 -8.14664e-15)
(373.292 1.38275 9.77093e-15)
(501.725 4.19302 3.14463e-14)
(726.698 14.6379 1.94135e-14)
(1094.41 80.1057 1.94674e-15)
(6.89245 0.000142023 1.63596e-15)
(19.1395 0.00396226 2.70641e-15)
(29.712 0.00540768 1.02801e-15)
(39.6644 -0.00383828 2.18493e-15)
(50.1312 -0.0181348 1.75695e-15)
(61.7047 -0.020413 2.18423e-15)
(74.9511 0.0129777 1.54195e-14)
(90.3432 0.0561034 5.26174e-15)
(107.987 0.0873118 -6.36438e-15)
(128.288 0.105389 -5.53906e-16)
(152.016 0.12735 2.55307e-14)
(180.489 0.200713 -3.65772e-15)
(215.411 0.331563 5.5728e-15)
(260.484 0.620392 -3.0415e-14)
(320.742 1.10483 -8.08369e-15)
(404.126 1.6488 1.1776e-14)
(539.987 4.88198 3.27326e-14)
(768.254 16.7813 2.01062e-14)
(1113.83 81.4261 1.79471e-15)
(7.27276 -0.00139767 2.87355e-16)
(20.4655 -0.00058106 4.88615e-15)
(31.6472 0.00362071 4.60907e-15)
(41.3926 0.00499422 1.27647e-15)
(50.8797 -0.00561563 2.53489e-15)
(61.269 -0.0206658 1.61274e-15)
(73.0658 -0.0217018 2.56263e-15)
(86.8131 0.018986 1.79679e-14)
(102.949 0.0691566 6.31242e-15)
(121.528 0.105446 -7.66689e-15)
(142.966 0.128091 -9.3109e-16)
(168.08 0.1568 2.82182e-14)
(198.273 0.244745 -4.06073e-15)
(235.354 0.39882 5.0958e-15)
(283.261 0.735909 -3.17437e-14)
(347.311 1.29545 -7.82094e-15)
(436.137 1.95369 1.3084e-14)
(579.331 5.66098 3.39352e-14)
(809.102 19.1534 2.001e-14)
(1131.79 82.3552 1.50481e-15)
(7.59379 -0.00135887 9.94579e-16)
(21.5849 -0.00493125 8.66098e-16)
(33.8238 -0.00306808 8.00408e-15)
(44.0756 0.00149936 6.7937e-15)
(53.0861 0.00337596 1.73713e-15)
(62.1757 -0.00776987 2.8617e-15)
(72.5445 -0.0228372 1.9968e-15)
(84.619 -0.0223903 2.93406e-15)
(98.9252 0.0263313 2.07783e-14)
(115.865 0.0839829 7.4405e-15)
(135.447 0.125832 -9.04765e-15)
(158.094 0.153831 -1.36116e-15)
(184.677 0.190544 3.1315e-14)
(216.686 0.295092 -4.39899e-15)
(256.04 0.475518 4.85682e-15)
(306.915 0.866859 -3.20987e-14)
(374.925 1.51053 -7.62837e-15)
(469.401 2.30273 1.39934e-14)
(619.73 6.53897 3.38446e-14)
(849.048 21.7552 1.86656e-14)
(1148.51 82.8762 1.12238e-15)
(7.83639 -0.000896102 -4.15273e-16)
(22.5257 -0.00456459 2.93986e-15)
(35.658 -0.00957261 8.89096e-16)
(47.0888 -0.00714604 1.05732e-14)
(56.5144 -0.00229709 8.99756e-15)
(64.8631 0.000534906 2.42859e-15)
(73.6118 -0.0103633 3.30594e-15)
(84.0112 -0.0246536 2.03129e-15)
(96.415 -0.0221666 3.3437e-15)
(111.338 0.0351503 2.38331e-14)
(129.144 0.100767 8.44709e-15)
(149.795 0.148706 -1.0913e-14)
(173.731 0.182953 -1.48752e-15)
(201.87 0.229098 3.40174e-14)
(235.795 0.352539 -4.45076e-15)
(277.541 0.562851 4.56479e-15)
(331.526 1.01516 -3.25549e-14)
(403.668 1.75477 -7.46833e-15)
(503.986 2.70138 1.5181e-14)
(661.11 7.52539 3.53844e-14)
(887.976 24.621 1.73332e-14)
(1164.11 82.9166 5.24309e-16)
(8.03218 -0.000182756 8.41003e-16)
(23.2357 -0.00313141 -1.13914e-15)
(37.1932 -0.00828815 4.8257e-15)
(49.6241 -0.0157298 1.11499e-15)
(60.3591 -0.0129283 1.29863e-14)
(69.0407 -0.00794484 1.11146e-14)
(76.7865 -0.00371431 3.10681e-15)
(85.2428 -0.0134347 3.67182e-15)
(95.7196 -0.0261376 1.72253e-15)
(108.503 -0.0209618 3.48088e-15)
(124.102 0.0456 2.71386e-14)
(142.838 0.119719 9.05531e-15)
(164.63 0.174354 -1.23995e-14)
(189.933 0.215851 -2.59334e-15)
(219.718 0.27305 3.59263e-14)
(255.667 0.417961 -4.74924e-15)
(299.93 0.662197 4.26506e-15)
(357.173 1.18293 -3.19562e-14)
(433.622 2.03195 -7.55905e-15)
(539.947 3.15612 1.49976e-14)
(703.344 8.63052 3.38338e-14)
(925.693 27.7964 1.48967e-14)
(1178.71 82.3599 6.42513e-17)
(8.18438 0.000491142 3.10007e-16)
(23.8065 -0.00100869 2.49093e-15)
(38.3492 -0.00600198 -1.86889e-15)
(51.7382 -0.0132226 6.59254e-15)
(63.5895 -0.0234085 1.38549e-15)
(73.7188 -0.0204752 1.53918e-14)
(81.7223 -0.0155388 1.32437e-14)
(88.9145 -0.00943904 4.29288e-15)
(97.1211 -0.0170498 4.05127e-15)
(107.719 -0.0273169 1.45293e-15)
(120.932 -0.0187524 3.60999e-15)
(137.265 0.057849 3.01775e-14)
(156.998 0.141069 9.95944e-15)
(180.005 0.203092 -1.39078e-14)
(206.758 0.252992 -2.98939e-15)
(238.288 0.323091 3.78479e-14)
(276.373 0.492373 -5.04789e-15)
(323.283 0.775105 4.7021e-15)
(383.936 1.37296 -3.14548e-14)
(464.866 2.34804 -7.37118e-15)
(577.321 3.67499 1.42959e-14)
(746.253 9.86421 3.2856e-14)
(962.073 31.3344 1.25232e-14)
(1192.42 81.1493 -5.08838e-16)
(8.30287 0.00029323 7.94558e-16)
(24.2489 0.000937698 9.18146e-16)
(39.2749 -0.00262798 4.08574e-15)
(53.3273 -0.00985971 -2.60817e-15)
(66.2746 -0.0193193 8.35548e-15)
(77.6454 -0.0326309 2.1045e-15)
(87.2424 -0.0299129 1.7807e-14)
(94.6233 -0.0252523 1.50577e-14)
(101.303 -0.0168751 5.43431e-15)
(109.297 -0.0212465 4.16631e-15)
(120.058 -0.0280538 1.21236e-15)
(133.75 -0.0153587 3.94815e-15)
(150.88 0.0721062 3.27961e-14)
(171.678 0.165086 9.85165e-15)
(195.976 0.235281 -1.5579e-14)
(224.269 0.294901 -2.30568e-15)
(257.645 0.380015 3.89982e-14)
(297.982 0.576949 -5.25257e-15)
(347.677 0.90345 4.96307e-15)
(411.893 1.58764 -3.00129e-14)
(497.48 2.70787 -7.12596e-15)
(616.114 4.26437 1.36411e-14)
(789.572 11.2418 3.18716e-14)
(997.06 35.2686 1.01119e-14)
(1205.4 78.9443 -8.84525e-16)
(8.3918 -0.000308921 -3.24212e-16)
(24.5914 0.000405218 2.65066e-15)
(39.9895 0.000521819 1.51258e-15)
(54.5955 -0.00501689 5.65027e-15)
(68.2899 -0.0146716 -3.53976e-15)
(80.8977 -0.0265957 1.0023e-14)
(91.8709 -0.0435316 2.94579e-15)
(100.998 -0.0413616 2.07841e-14)
(107.803 -0.0372562 1.70179e-14)
(114.006 -0.026077 6.21606e-15)
(121.821 -0.0261833 4.59361e-15)
(132.785 -0.0284081 1.22336e-15)
(147.006 -0.0106504 5.0882e-15)
(164.996 0.088596 3.5727e-14)
(186.931 0.192072 1.02753e-14)
(212.602 0.271345 -1.59691e-14)
(242.527 0.342188 -1.73082e-15)
(277.854 0.444722 3.93971e-14)
(320.567 0.673011 -5.32851e-15)
(373.187 1.0491 6.35058e-15)
(441.128 1.83121 -2.77315e-14)
(531.538 3.11569 -6.08375e-15)
(656.298 4.93276 1.43216e-14)
(832.915 12.7671 3.03174e-14)
(1030.53 39.8723 8.52087e-15)
(1217.46 75.6174 -1.64812e-15)
(8.45713 -0.000558165 -6.51958e-16)
(24.8473 -0.00114153 -9.45387e-16)
(40.5399 -0.000128401 4.51169e-15)
(55.571 -0.000539131 2.09614e-15)
(69.8935 -0.00820512 7.31516e-15)
(83.3372 -0.0205179 -4.13941e-15)
(95.6927 -0.0351597 1.17902e-14)
(106.339 -0.0562071 3.84545e-15)
(115.05 -0.0550385 2.41366e-14)
(121.319 -0.0518053 1.89725e-14)
(127.074 -0.0373662 6.80759e-15)
(134.742 -0.0318882 4.99635e-15)
(145.947 -0.0282688 1.26696e-15)
(160.75 -0.00460942 6.11704e-15)
(179.667 0.107552 3.88786e-14)
(202.812 0.222371 1.05509e-14)
(229.94 0.311766 -1.64591e-14)
(261.595 0.395552 -1.20303e-15)
(298.985 0.518258 3.90415e-14)
(344.203 0.782094 -5.7601e-15)
(399.896 1.21476 7.72151e-15)
(471.727 2.1076 -2.49246e-14)
(567.095 3.58118 -6.56735e-15)
(697.779 5.68511 1.52609e-14)
(875.899 14.4717 2.87037e-14)
(1061.69 44.9979 6.05261e-15)
(1228.39 71.7338 -1.52613e-15)
(8.50324 -0.000522155 4.38342e-17)
(25.0338 -0.00177921 -2.28309e-15)
(40.9474 -0.00227818 -1.36812e-15)
(56.3187 -0.00119421 6.65025e-15)
(71.1236 -0.00220395 2.57805e-15)
(85.2737 -0.012242 8.96626e-15)
(98.5577 -0.0273957 -4.72336e-15)
(110.735 -0.0451146 1.33378e-14)
(121.118 -0.0708111 4.61511e-15)
(129.461 -0.071157 2.77613e-14)
(135.229 -0.069173 2.12057e-14)
(140.562 -0.0509181 7.33995e-15)
(148.11 -0.0384857 5.27919e-15)
(159.596 -0.027755 1.2728e-15)
(175.032 0.00288507 7.35469e-15)
(194.943 0.129318 4.20803e-14)
(219.378 0.256376 1.08982e-14)
(248.053 0.357099 -1.75911e-14)
(281.539 0.4558 -5.49831e-16)
(321.111 0.601828 3.80304e-14)
(368.966 0.905941 -6.38589e-15)
(427.885 1.40261 8.34885e-15)
(503.763 2.42075 -2.16816e-14)
(604.19 4.11073 -6.09018e-15)
(740.438 6.52831 1.52356e-14)
(918.058 16.3585 2.69299e-14)
(1090.19 50.329 6.05956e-15)
(1238.12 67.4566 -1.16794e-15)
(8.52834 -0.000629029 8.27753e-16)
(25.1634 -0.00160975 -1.45496e-16)
(41.2411 -0.00314557 -3.86237e-15)
(56.8687 -0.00385223 -1.76373e-15)
(72.0625 -0.00276934 8.75234e-15)
(86.7549 -0.00456667 2.71008e-15)
(100.826 -0.0171589 1.07248e-14)
(114.03 -0.0354693 -5.13652e-15)
(126.097 -0.0565404 1.4876e-14)
(136.274 -0.0875936 5.8665e-15)
(144.291 -0.089978 3.1444e-14)
(149.587 -0.089698 2.38106e-14)
(154.521 -0.0670659 8.7472e-15)
(161.975 -0.0461109 5.62104e-15)
(173.779 -0.0266567 1.35287e-15)
(189.905 0.0119953 7.80686e-15)
(210.882 0.154151 4.45533e-14)
(236.687 0.294533 1.1275e-14)
(267.003 0.407983 -1.73874e-14)
(302.428 0.523859 1.00843e-15)
(344.303 0.696815 3.60878e-14)
(394.936 1.04671 -7.09853e-15)
(457.233 1.61684 8.20811e-15)
(537.308 2.77519 -2.00118e-14)
(642.85 4.71464 -5.85509e-15)
(784.078 7.46648 1.67033e-14)
(958.877 18.4184 2.50577e-14)
(1116.15 55.2924 5.93655e-15)
(1246.6 63.2098 -8.67133e-16)
(8.53913 -0.00067139 -5.92219e-16)
(25.2322 -0.00182877 2.44131e-15)
(41.4421 -0.00277169 -4.87014e-16)
(57.2611 -0.00490112 -5.26575e-15)
(72.7495 -0.00583653 -2.18258e-15)
(87.8825 -0.00491666 1.08818e-14)
(102.559 -0.00765472 2.88445e-15)
(116.633 -0.0230276 1.25042e-14)
(129.828 -0.0447543 -5.50255e-15)
(141.846 -0.0696433 1.6274e-14)
(151.867 -0.106664 6.55419e-15)
(159.597 -0.111833 3.46607e-14)
(164.448 -0.113777 2.63847e-14)
(169.003 -0.0861329 1.01635e-14)
(176.387 -0.0548813 6.87583e-15)
(188.547 -0.0250872 1.51794e-15)
(205.418 0.0229279 8.2301e-15)
(227.537 0.18247 4.69129e-14)
(254.799 0.337356 1.16301e-14)
(286.855 0.465147 -1.913e-14)
(324.332 0.600785 2.6739e-15)
(368.638 0.8048 3.48844e-14)
(422.191 1.20675 -7.34358e-15)
(488.019 1.86013 7.99801e-15)
(572.428 3.17767 -1.96796e-14)
(683.063 5.40167 -4.16204e-15)
(828.394 8.50207 1.74121e-14)
(997.872 20.6165 2.50378e-14)
(1139.76 60.3548 5.36658e-15)
(1253.72 58.2638 2.49216e-16)
(8.54208 -0.000405048 7.7933e-16)
(25.257 -0.00191079 -1.43942e-15)
(41.5439 -0.00302806 3.97511e-15)
(57.5263 -0.00422821 -5.73264e-16)
(73.2357 -0.00698934 -6.54114e-15)
(88.7032 -0.00825022 -2.21738e-15)
(103.873 -0.00765354 1.31687e-14)
(118.619 -0.0115346 3.0816e-15)
(132.771 -0.0299469 1.41468e-14)
(146.022 -0.0554294 -5.35032e-15)
(158.046 -0.0845639 1.72182e-14)
(167.96 -0.128439 7.2466e-15)
(175.438 -0.137065 3.78133e-14)
(179.866 -0.141873 2.84032e-14)
(184.059 -0.108533 1.18181e-14)
(191.398 -0.0649809 8.28934e-15)
(203.952 -0.022825 1.63153e-15)
(221.627 0.0360484 9.52054e-15)
(244.967 0.214673 4.87102e-14)
(273.777 0.385438 1.22946e-14)
(307.676 0.529445 -2.1399e-14)
(347.322 0.687811 5.64567e-15)
(394.194 0.927636 3.45955e-14)
(450.811 1.38911 -7.32186e-15)
(520.319 2.13598 7.41515e-15)
(609.175 3.63455 -1.95795e-14)
(724.769 6.18262 -2.3175e-15)
(873.001 9.63592 1.90875e-14)
(1034.63 22.9433 2.24582e-14)
(1161.19 65.1913 4.61523e-15)
(1259.05 53.7985 -1.84093e-16)
(8.53741 9.15309e-05 -9.56101e-16)
(25.2619 -0.00119798 2.30251e-15)
(41.5733 -0.00310089 -2.2603e-15)
(57.653 -0.00440355 5.63325e-15)
(73.5592 -0.00594511 -6.45986e-16)
(89.2801 -0.00943946 -7.80868e-15)
(104.827 -0.0111371 -2.26587e-15)
(120.122 -0.0110334 1.52177e-14)
(135.013 -0.0162824 3.0662e-15)
(149.311 -0.0379972 1.58918e-14)
(162.677 -0.0676409 -6.03573e-15)
(174.76 -0.101549 1.89212e-14)
(184.611 -0.15312 8.00538e-15)
(191.867 -0.16609 4.08167e-14)
(195.892 -0.174504 3.10288e-14)
(199.74 -0.134664 1.35992e-14)
(207.059 -0.0765722 9.22952e-15)
(220.046 -0.019903 1.78385e-15)
(238.588 0.0516217 1.13645e-14)
(263.232 0.251262 5.09355e-14)
(293.686 0.439432 1.32332e-14)
(329.536 0.601847 -2.23666e-14)
(371.475 0.786342 8.11343e-15)
(421.049 1.06737 3.38986e-14)
(480.878 1.597 -7.05063e-15)
(554.212 2.45017 7.36532e-15)
(647.581 4.15322 -1.74594e-14)
(767.844 7.06798 -1.55677e-16)
(917.414 10.8698 1.94854e-14)
(1068.85 25.2826 1.97656e-14)
(1180.79 69.3291 4.39681e-15)
(1262.65 50.5728 -7.26272e-16)
(8.52361 0.000405261 8.58922e-16)
(25.2415 0.000180988 -2.40983e-15)
(41.5705 -0.00201996 4.04305e-15)
(57.6811 -0.00444712 -2.86791e-15)
(73.7073 -0.0059462 7.56811e-15)
(89.6592 -0.00794241 -1.01962e-15)
(105.494 -0.0122595 -9.12373e-15)
(121.209 -0.0144835 -2.24973e-15)
(136.706 -0.0151155 1.72491e-14)
(151.812 -0.0219937 2.78594e-15)
(166.319 -0.0473258 1.77887e-14)
(179.856 -0.0815022 -6.54827e-15)
(192.045 -0.120817 2.03078e-14)
(201.874 -0.181137 9.53919e-15)
(208.937 -0.19938 4.4567e-14)
(212.578 -0.212293 3.28784e-14)
(216.097 -0.165133 1.54398e-14)
(223.419 -0.0899022 1.05028e-14)
(236.88 -0.0162012 2.46082e-15)
(256.357 0.0700048 1.26227e-14)
(282.394 0.292743 5.34859e-14)
(314.591 0.500181 1.3769e-14)
(352.506 0.683479 -2.38866e-14)
(396.868 0.898108 1.08483e-14)
(449.284 1.22662 3.37118e-14)
(512.474 1.83333 -8.71248e-15)
(589.758 2.80779 7.91537e-15)
(687.655 4.74243 -1.51927e-14)
(812.083 8.06684 4.27042e-15)
(961.049 12.2027 2.09699e-14)
(1100.4 27.7003 1.69023e-14)
(1197.92 72.7199 3.66838e-15)
(1265.06 47.4116 -1.22839e-15)
(8.50327 0.000380653 1.71385e-16)
(25.1967 0.00106768 2.58014e-15)
(41.5265 7.26841e-05 -3.94755e-15)
(57.6655 -0.00301768 5.70994e-15)
(73.7305 -0.00594647 -3.477e-15)
(89.826 -0.00766457 9.35472e-15)
(105.927 -0.0102102 -1.63615e-15)
(121.965 -0.0154604 -1.04111e-14)
(137.928 -0.0183659 -1.97989e-15)
(153.7 -0.0199708 1.90438e-14)
(169.086 -0.0287307 2.03464e-15)
(183.859 -0.0580484 2.02722e-14)
(197.619 -0.0972949 -6.49877e-15)
(209.957 -0.142629 2.1538e-14)
(219.799 -0.212863 1.06988e-14)
(226.693 -0.237412 4.85498e-14)
(229.968 -0.255909 3.42047e-14)
(233.177 -0.20045 1.79679e-14)
(240.529 -0.105117 1.11116e-14)
(254.51 -0.011679 2.4384e-15)
(274.994 0.0916041 1.4901e-14)
(302.517 0.339826 5.61191e-14)
(336.562 0.568479 1.44184e-14)
(376.662 0.775639 -2.43298e-14)
(423.577 1.02484 1.26097e-14)
(478.98 1.40841 3.1918e-14)
(545.671 2.10263 -9.87075e-15)
(627.011 3.21531 8.04465e-15)
(729.354 5.41 -1.25512e-14)
(857.18 9.18573 9.27398e-15)
(1003.29 13.6374 1.63381e-14)
(1129.04 30.1722 1.69108e-14)
(1212.36 75.2236 3.26437e-15)
(1266.73 44.2563 -2.45133e-15)
(8.47923 -0.000162076 4.51755e-16)
(25.132 0.00101036 1.61573e-16)
(41.4436 0.00145209 4.28865e-15)
(57.5928 -0.000147217 -5.71337e-15)
(73.6973 -0.00415603 7.2831e-15)
(89.842 -0.00761522 -4.05756e-15)
(106.111 -0.00953806 1.07491e-14)
(122.453 -0.0127741 -2.23955e-15)
(138.774 -0.0190678 -1.15524e-14)
(155.058 -0.0228098 -1.68677e-15)
(171.171 -0.0256627 2.03703e-14)
(186.899 -0.0366627 1.26311e-15)
(201.991 -0.0703328 2.27557e-14)
(216.019 -0.115136 -6.3808e-15)
(228.543 -0.167323 2.21785e-14)
(238.43 -0.248838 1.27546e-14)
(245.177 -0.280772 5.20345e-14)
(248.106 -0.306155 3.52879e-14)
(251.024 -0.241257 2.05314e-14)
(258.44 -0.122659 1.15601e-14)
(272.987 -0.00613921 2.43461e-15)
(294.559 0.116917 1.75719e-14)
(323.665 0.393097 5.6675e-14)
(359.67 0.645443 1.39976e-14)
(402.081 0.879895 -2.47048e-14)
(451.688 1.16931 1.28751e-14)
(510.219 1.61523 3.05406e-14)
(580.541 2.40992 -1.1627e-14)
(666 3.67939 8.27637e-15)
(772.594 6.16652 -6.16069e-15)
(902.727 10.4286 1.44449e-14)
(1043.5 15.1749 1.75628e-14)
(1154.53 32.7794 1.50364e-14)
(1224.2 76.7786 2.854e-15)
(1267.94 41.4563 -1.3924e-15)
(8.45287 -0.0004318 -4.84193e-16)
(25.0569 -0.000463549 1.41655e-15)
(41.3282 0.00139725 1.54761e-16)
(57.466 0.0017299 6.08651e-15)
(73.5931 -0.00049951 -7.23632e-15)
(89.7896 -0.0054322 8.89843e-15)
(106.117 -0.00945189 -4.51245e-15)
(122.652 -0.0115943 1.1911e-14)
(139.315 -0.0156297 -2.83933e-15)
(155.996 -0.0231215 -1.28723e-14)
(172.67 -0.0278661 -1.35474e-15)
(189.186 -0.0322811 2.10638e-14)
(205.309 -0.0458568 4.25088e-16)
(220.768 -0.0843509 2.46547e-14)
(235.102 -0.135377 -6.08871e-15)
(247.843 -0.195194 2.22276e-14)
(257.8 -0.289497 1.56305e-14)
(264.423 -0.330038 5.54196e-14)
(267.026 -0.363951 3.64887e-14)
(269.68 -0.288323 2.46321e-14)
(277.2 -0.142594 1.25273e-14)
(292.368 0.000375724 1.52209e-15)
(315.114 0.146509 1.8817e-14)
(345.908 0.453444 5.68606e-14)
(383.989 0.732182 1.25813e-14)
(428.842 0.99792 -2.54957e-14)
(481.281 1.33387 1.02857e-14)
(543.079 1.85136 2.55348e-14)
(617.147 2.76061 -1.43366e-14)
(706.735 4.20852 8.10749e-15)
(817.217 7.02139 -4.35219e-15)
(948.166 11.7902 2.05311e-14)
(1080.99 16.8235 1.91956e-14)
(1176.61 35.4797 1.34172e-14)
(1233.81 77.5693 2.33771e-15)
(1268.86 38.5473 -2.85386e-16)
(8.42316 -0.000204456 -9.0295e-17)
(24.9752 -0.00119434 -1.43622e-15)
(41.1955 -0.000816695 2.3208e-15)
(57.2964 0.00169479 1.5085e-16)
(73.42 0.00191406 7.71345e-15)
(89.6501 -0.000974004 -9.09605e-15)
(106.045 -0.00684677 1.04928e-14)
(122.649 -0.0114605 -4.98517e-15)
(139.531 -0.013842 1.29379e-14)
(156.592 -0.0187965 -3.44911e-15)
(173.7 -0.0276398 -1.49809e-14)
(190.826 -0.0335925 -1.07099e-15)
(207.803 -0.0399306 2.19453e-14)
(224.368 -0.0565159 5.53143e-17)
(240.235 -0.100355 2.64334e-14)
(254.906 -0.15818 -6.55754e-15)
(267.886 -0.226707 2.23492e-14)
(277.933 -0.335505 1.76968e-14)
(284.45 -0.385729 5.93048e-14)
(286.752 -0.429922 3.76366e-14)
(289.18 -0.342412 2.82668e-14)
(296.854 -0.165419 1.2971e-14)
(312.707 0.0081571 6.45952e-16)
(336.724 0.181133 2.0258e-14)
(369.315 0.521765 5.70714e-14)
(409.598 0.830257 1.24979e-14)
(457.028 1.13242 -2.47666e-14)
(512.438 1.52108 8.00447e-15)
(577.635 2.12118 2.05558e-14)
(655.534 3.16108 -1.67774e-14)
(749.179 4.81152 3.95913e-15)
(862.942 7.98255 3.33484e-15)
(992.802 13.2594 3.10184e-14)
(1115.11 18.5953 2.18294e-14)
(1195.28 38.2927 1.16208e-14)
(1241.56 77.2863 1.84412e-15)
(1269.56 35.8463 7.32838e-16)
(8.39058 5.17376e-05 -2.69516e-16)
(24.8836 -0.000563492 3.44083e-16)
(41.0521 -0.00189853 -2.18848e-15)
(57.1024 -0.00123505 3.22045e-15)
(73.1921 0.00191927 1.47807e-16)
(89.429 0.00201225 9.41407e-15)
(105.869 -0.00156214 -1.07924e-14)
(122.554 -0.00839314 1.23364e-14)
(139.517 -0.0136284 -5.77323e-15)
(156.823 -0.0162895 1.35591e-14)
(174.353 -0.0223044 -4.09842e-15)
(191.953 -0.032665 -1.67406e-14)
(209.588 -0.0400731 -7.3789e-16)
(227.074 -0.0487454 2.27171e-14)
(244.123 -0.0687727 1.82634e-16)
(260.425 -0.118477 2.82012e-14)
(275.453 -0.183952 -6.47844e-15)
(288.685 -0.262138 2.28974e-14)
(298.838 -0.387521 2.00339e-14)
(305.267 -0.449097 6.32051e-14)
(307.302 -0.504576 3.88529e-14)
(309.556 -0.40435 3.20293e-14)
(317.451 -0.191309 1.37051e-14)
(334.061 0.0173222 4.66703e-16)
(359.456 0.221418 2.23237e-14)
(393.963 0.599062 5.54432e-14)
(436.577 0.941124 9.63062e-15)
(486.72 1.2855 -2.41422e-14)
(545.238 1.73483 8.11263e-15)
(613.952 2.42979 1.92775e-14)
(695.723 3.61844 -1.6348e-14)
(793.234 5.49822 4.36458e-15)
(909.366 9.05658 1.18033e-14)
(1035.82 14.8147 3.1151e-14)
(1145.32 20.5016 2.32532e-14)
(1210.67 41.1864 9.12707e-15)
(1247.81 75.6164 2.01143e-15)
(1270.16 32.8681 2.1637e-15)
(8.35843 0.000125653 -1.52114e-16)
(24.7838 0.00013462 -7.91217e-16)
(40.8942 -0.000916394 7.28233e-16)
(56.8943 -0.00266546 -2.95565e-15)
(72.9349 -0.00171467 3.66119e-15)
(89.142 0.00208011 1.34524e-16)
(105.598 0.00199137 1.12051e-14)
(122.341 -0.00226568 -1.24625e-14)
(139.4 -0.0100683 1.36249e-14)
(156.798 -0.0159569 -6.41957e-15)
(174.599 -0.0189548 1.4319e-14)
(192.662 -0.0261654 -4.6477e-15)
(210.812 -0.0382653 -1.84919e-14)
(229.008 -0.0473611 -2.72282e-16)
(247.042 -0.0587832 2.38573e-14)
(264.603 -0.0828025 3.44111e-16)
(281.359 -0.139044 2.97927e-14)
(296.752 -0.21289 -6.58665e-15)
(310.24 -0.302024 2.31582e-14)
(320.507 -0.445847 2.2885e-14)
(326.868 -0.521739 6.75281e-14)
(328.685 -0.588571 4.01672e-14)
(330.833 -0.475119 3.58857e-14)
(339.032 -0.220662 1.45736e-14)
(356.485 0.0280936 7.53121e-16)
(383.381 0.268409 2.49569e-14)
(419.931 0.686789 5.50941e-14)
(465.011 1.0678 5.47907e-15)
(518.003 1.45936 -2.35815e-14)
(579.756 1.97921 8.93342e-15)
(652.08 2.78301 1.49546e-14)
(737.703 4.14099 -1.49216e-14)
(838.717 6.27829 4.69531e-15)
(955.918 10.2449 1.61054e-14)
(1076.3 16.4167 2.46269e-14)
(1171.28 22.5648 1.96176e-14)
(1223.2 44.2913 7.35675e-15)
(1252.92 73.05 2.46257e-15)
(1270.6 29.0828 2.85823e-16)
(8.32725 5.49906e-05 6.37371e-17)
(24.6858 0.000334263 -9.61657e-16)
(40.7236 0.000109644 -1.26931e-15)
(56.6664 -0.00132413 1.39939e-15)
(72.6597 -0.00347517 -3.7381e-15)
(88.8189 -0.00225157 3.97369e-15)
(105.249 0.00217244 -5.57234e-17)
(122.018 0.00189163 1.28296e-14)
(139.148 -0.00307482 -1.42944e-14)
(156.658 -0.0118836 1.45434e-14)
(174.564 -0.0184429 -6.80341e-15)
(192.925 -0.0218442 1.50352e-14)
(211.58 -0.0304176 -5.31268e-15)
(230.332 -0.0444446 -2.02184e-14)
(249.127 -0.0555426 7.32316e-16)
(267.738 -0.0702359 2.4106e-14)
(285.826 -0.09883 5.14834e-16)
(303.039 -0.16229 3.17014e-14)
(318.791 -0.245452 -6.8237e-15)
(332.529 -0.346706 2.4463e-14)
(342.913 -0.51089 2.58442e-14)
(349.241 -0.604705 7.06659e-14)
(350.899 -0.682551 4.2175e-14)
(353.034 -0.555681 4.04025e-14)
(361.642 -0.253587 1.59868e-14)
(380.041 0.0409504 1.01251e-15)
(408.58 0.322726 2.68771e-14)
(447.306 0.786827 5.51514e-14)
(494.983 1.21181 2.36773e-15)
(550.955 1.6581 -2.29469e-14)
(616.061 2.25895 9.80787e-15)
(692.05 3.18757 9.19311e-15)
(781.408 4.73727 -1.62862e-14)
(885.332 7.1623 4.88166e-15)
(1001.85 11.5431 1.54706e-14)
(1113.36 18.0255 1.7765e-14)
(1192.95 24.7953 1.67903e-14)
(1233.21 47.6647 5.54895e-15)
(1257.03 70.5892 1.85326e-15)
(1270.91 24.8979 -5.54108e-15)
(8.29559 6.14596e-05 5.58631e-16)
(24.5908 0.000138004 4.95191e-16)
(40.5551 0.000415182 -1.73089e-15)
(56.4216 3.63506e-05 -1.86314e-15)
(72.3593 -0.0017634 2.08922e-15)
(88.474 -0.00432113 -4.06724e-15)
(104.86 -0.00283642 4.3658e-15)
(121.608 0.00219353 -2.66691e-16)
(138.773 0.00172246 1.41987e-14)
(156.367 -0.0039907 -1.54849e-14)
(174.399 -0.0138217 1.54065e-14)
(192.879 -0.0210923 -7.06799e-15)
(211.859 -0.024962 1.53888e-14)
(231.158 -0.0350853 -6.01955e-15)
(250.551 -0.0512892 -2.13716e-14)
(269.974 -0.0647225 2.26997e-15)
(289.177 -0.0832622 2.45381e-14)
(307.79 -0.117028 6.34565e-16)
(325.447 -0.1885 3.3192e-14)
(341.541 -0.281872 -6.79745e-15)
(355.513 -0.396771 2.55378e-14)
(366.02 -0.583095 3.00904e-14)
(372.355 -0.699096 7.44156e-14)
(373.938 -0.787113 4.48467e-14)
(376.18 -0.646963 4.46751e-14)
(385.329 -0.290672 1.68844e-14)
(404.803 0.0555372 9.05678e-16)
(435.143 0.385321 3.19837e-14)
(476.172 0.901121 5.46428e-14)
(526.576 1.37505 -1.82733e-15)
(585.654 1.88532 -2.22796e-14)
(654.205 2.57954 7.51738e-15)
(733.863 3.65109 7.29295e-15)
(826.707 5.41733 -2.03986e-14)
(932.633 8.15832 3.90762e-15)
(1046.23 12.9374 1.92383e-14)
(1146.17 19.5672 1.86314e-14)
(1210.53 27.2074 1.25177e-14)
(1241.15 50.6979 3.8535e-15)
(1260.2 68.2237 9.92545e-16)
(1271.25 20.5096 -2.11661e-15)
(8.26118 0.000246706 1.01084e-15)
(24.494 0.000163791 1.65024e-15)
(40.3919 0.000132159 1.15114e-15)
(56.1804 0.00044602 -2.48445e-15)
(72.039 -8.17624e-05 -2.44952e-15)
(88.1009 -0.00223484 2.77825e-15)
(104.444 -0.00518796 -4.80804e-15)
(121.15 -0.00346158 4.62142e-15)
(138.299 0.00214517 -8.43534e-16)
(155.939 0.00148087 1.56467e-14)
(174.069 -0.00499518 -1.6829e-14)
(192.691 -0.0159007 1.64121e-14)
(211.804 -0.023904 -6.87961e-15)
(231.454 -0.028322 1.57253e-14)
(251.438 -0.0401891 -7.35878e-15)
(271.5 -0.058863 -2.31185e-14)
(291.564 -0.0749717 4.60052e-15)
(311.351 -0.097935 2.57499e-14)
(330.471 -0.137648 5.45281e-16)
(348.544 -0.217937 3.43701e-14)
(364.95 -0.322585 -6.77696e-15)
(379.136 -0.452388 2.6604e-14)
(389.779 -0.663004 3.54196e-14)
(396.174 -0.805753 7.84734e-14)
(397.795 -0.902931 4.73351e-14)
(400.292 -0.748917 4.71483e-14)
(410.164 -0.332236 1.74125e-14)
(430.868 0.0719769 9.52212e-16)
(463.159 0.457623 3.35932e-14)
(506.617 1.03119 5.39497e-14)
(559.874 1.56165 -4.38681e-15)
(622.17 2.14562 -2.0588e-14)
(694.225 2.94733 3.39603e-15)
(777.47 4.1822 8.06614e-15)
(873.365 6.19091 -2.29952e-14)
(979.977 9.27198 1.01149e-14)
(1087.97 14.3992 2.4483e-14)
(1174.2 20.9925 2.24493e-14)
(1224.49 29.7608 1.39529e-14)
(1247.37 53.4077 2.86778e-15)
(1262.57 65.7458 8.06924e-16)
(1271.7 16.3156 5.98957e-15)
(8.22351 0.000387511 1.50098e-15)
(24.3903 0.000684845 2.89872e-15)
(40.2279 0.000179116 2.78274e-15)
(55.9477 8.21062e-05 1.73745e-15)
(71.7237 0.000431221 -3.201e-15)
(87.7029 -0.000239365 -2.90573e-15)
(103.996 -0.00272472 3.18035e-15)
(120.662 -0.00606608 -5.63719e-15)
(137.772 -0.00411384 4.96551e-15)
(155.4 0.00206027 -1.05083e-15)
(173.586 0.00117444 1.71088e-14)