/*--------------------------------*- C++ -*----------------------------------*\
| =========                 |                                                 |
| \\      /  F ield         | OpenFOAM: The Open Source CFD Toolbox           |
|  \\    /   O peration     | Version:  v2012                                 |
|   \\  /    A nd           | Website:  www.openfoam.com                      |
|    \\/     M anipulation  |                                                 |
\*---------------------------------------------------------------------------*/
FoamFile
{
    version     2.0;
    format      ascii;
    class       volScalarField;
    location    "11500";
    object      wallHeatFlux;
}
// * * * * * * * * * * * * * * * * * * * * * * * * * * * * * * * * * * * * * //

dimensions      [1 0 -3 0 0 0 0];


internalField   uniform 0;

boundaryField
{
    base
    {
        type            calculated;
        value           nonuniform List<scalar> 
448
(
-198877
-40154.3
-24476.2
-19627.1
-16560.4
-14607.2
-13270.9
-12258.3
-11454.3
-10797
-10249.8
-9792.31
-9414.09
-9152.57
-8922.57
-9007.63
-9301.37
-9793.24
-10333.7
-10842.6
-11196.6
-11465.1
-11669.5
-11809.6
-11923
-11998.9
-12053.1
-12075.1
-12081.1
-12069.8
-12054.4
-12026.6
-11988.8
-11950.5
-11906.7
-11868
-11812.9
-11762.9
-11718.2
-11673.2
-11622.5
-11571.6
-11520.7
-11474.2
-11433.7
-11387.3
-11340.8
-11293.9
-11252.2
-11215.7
-11179
-11137
-11088.8
-11046.1
-11008.7
-10981.5
-10954.7
-10922.3
-10883.5
-10840.2
-10801.1
-10768.1
-10745.5
-10722.7
-10705.4
-10676.4
-10642.6
-10603.4
-10563.2
-10529.2
-10505.6
-10498.1
-10480
-10466.3
-10442.7
-10413.2
-10373.3
-10338.1
-10302.8
-10268.4
-10243.9
-10235.9
-10233.1
-10230.4
-10227.4
-10214.5
-10206
-10181.8
-10152.2
-10117.2
-10081.9
-10047.6
-10017.8
-9993.7
-9974.95
-9972.45
-9964.37
-9968.03
-9970.65
-9968.32
-9965.7
-9964.16
-9955.82
-9943.39
-9925.41
-9907.43
-9884.48
-9860.87
-9837.32
-9809.63
-9785.72
-9763.59
-9740.4
-9723
-9710.96
-9703.93
-9692.51
-9691.83
-9695.17
-9695.17
-9699.29
-9703.41
-9708.52
-9713.72
-9712.15
-9717.46
-9716.95
-9717.1
-9716.3
-9710.72
-9710.28
-9705.02
-9699.61
-9688.88
-9683.59
-9672.89
-9662.55
-9651.98
-9641.63
-9631.36
-9620.94
-9605.41
-9595.19
-9585.13
-9574.92
-9564.96
-9555.03
-9544.94
-9535.14
-9525.3
-9515.5
-9505.77
-9501.45
-9491.81
-9482.31
-9478.05
-9473.94
-9464.43
-9460.52
-9456.59
-9447.37
-9443.57
-9439.82
-9436.18
-9432.63
-9429.18
-9415.21
-9374.18
-9258.59
-8960.03
-8377.2
-7520.28
-6587.49
-5762.03
-5538.28
-6245.19
-7405.03
-8609.44
-9728.99
-10753.8
-11689.3
-12562.8
-13390
-14174.4
-14919.9
-15639
-16321.9
-16974
-17563.9
-18087.6
-18542.4
-18968.3
-19427.9
-20021.5
-20863.4
-21938
-23054.9
-22930.8
-20300.2
-19438.8
-23284.6
-26906.2
-29921
-32503.9
-34871.4
-37310.7
-39821.8
-42480.2
-45299.2
-48365.3
-51693.7
-55315.6
-59224.5
-63442.7
-68044.5
-72910.4
-78076.4
-83623.5
-89378.6
-94754.1
-99375.3
-102711
-104986
-107117
-109307
-111788
-114264
-117121
-120085
-123412
-126822
-130259
-134045
-137984
-141919
-146052
-150216
-154417
-158657
-162853
-167031
-171063
-174986
-178697
-182400
-186085
-189962
-193632
-197666
-201468
-204910
-207949
-210684
-213172
-215321
-217155
-218992
-220676
-221986
-223040
-223725
-224096
-223681
-223510
-222907
-222121
-221349
-220322
-219030
-218215
-216610
-215216
-213341
-211561
-209660
-207753
-206128
-204357
-202663
-200542
-198585
-196013
-193650
-191836
-189924
-187732
-186142
-184717
-182892
-181662
-180324
-178839
-177673
-176089
-174908
-173568
-172501
-171697
-170707
-169592
-168960
-167885
-167132
-166132
-165453
-164537
-163653
-163287
-162308
-162057
-161210
-160887
-160535
-159684
-159746
-159073
-159121
-158783
-158367
-158063
-157445
-156984
-155967
-155690
-154984
-154352
-154320
-153960
-153432
-153641
-153052
-152996
-152672
-152228
-151979
-150971
-150654
-150398
-149722
-149462
-148960
-148784
-148424
-148293
-147884
-147710
-147275
-147216
-147012
-146692
-145936
-146068
-145824
-144914
-145092
-144519
-144458
-143927
-143898
-143970
-143637
-143853
-142941
-142892
-142600
-142328
-142250
-141916
-140888
-140801
-140854
-139449
-140333
-139768
-139857
-139238
-139555
-139438
-138625
-138866
-138431
-137707
-137969
-137025
-137410
-136554
-136076
-135761
-135701
-135811
-134929
-134941
-135023
-134354
-134246
-134622
-133947
-133507
-134175
-132909
-132774
-133019
-131797
-131753
-131961
-131005
-131184
-131184
-131356
-130214
-130600
-129431
-130164
-129826
-129127
-129889
-129595
-128456
-128997
-128169
-128222
-127086
-127246
-126951
-126787
-126225
-126511
-125905
-126215
-125690
-125378
-125036
-125691
-124856
-123809
-124469
-123641
-122805
-123732
-122884
-123049
-123006
-123035
-122328
-122716
-122046
-121193
-120691
)
;
    }
    inlet
    {
        type            calculated;
        value           uniform 0;
    }
    outlet
    {
        type            calculated;
        value           uniform 0;
    }
    top
    {
        type            calculated;
        value           uniform 0;
    }
    w1
    {
        type            wedge;
    }
    w2
    {
        type            wedge;
    }
}


// ************************************************************************* //
