/*--------------------------------*- C++ -*----------------------------------*\
| =========                 |                                                 |
| \\      /  F ield         | OpenFOAM: The Open Source CFD Toolbox           |
|  \\    /   O peration     | Version:  v2012                                 |
|   \\  /    A nd           | Website:  www.openfoam.com                      |
|    \\/     M anipulation  |                                                 |
\*---------------------------------------------------------------------------*/
FoamFile
{
    version     2.0;
    format      ascii;
    class       volScalarField;
    location    "11500";
    object      xx;
}
// * * * * * * * * * * * * * * * * * * * * * * * * * * * * * * * * * * * * * //

dimensions      [0 0 0 0 0 0 0];


internalField   nonuniform List<scalar> 
53312
(
5.4886e-05
1.96499e-06
4.45261e-05
5.3169e-07
1.75989e-06
4.48964e-05
3.06067e-07
4.84319e-07
1.6976e-06
5.62979e-05
2.04016e-07
2.81131e-07
4.52004e-07
1.93206e-06
7.48072e-05
1.46655e-07
1.885e-07
2.63175e-07
4.41902e-07
2.88821e-06
9.51096e-05
1.14432e-07
1.36017e-07
1.77253e-07
2.53814e-07
4.78453e-07
5.04554e-06
0.000114091
9.38101e-08
1.0642e-07
1.28358e-07
1.71194e-07
2.60969e-07
6.11766e-07
8.88802e-06
0.00013135
7.95388e-08
8.74343e-08
1.00788e-07
1.24607e-07
1.75134e-07
3.01198e-07
9.3007e-07
1.47544e-05
0.000147967
6.91286e-08
7.42747e-08
8.31879e-08
9.88675e-08
1.28888e-07
1.99407e-07
4.1012e-07
1.54888e-06
2.27206e-05
0.000165877
6.11267e-08
6.4688e-08
7.1137e-08
8.31875e-08
1.05457e-07
1.49894e-07
2.65227e-07
6.36003e-07
2.61869e-06
3.25361e-05
0.00018484
5.48403e-08
5.7344e-08
6.28429e-08
7.35099e-08
9.40462e-08
1.30459e-07
2.06501e-07
4.04007e-07
1.04787e-06
4.31878e-06
4.36835e-05
0.000204298
4.99773e-08
5.16621e-08
5.7175e-08
7.00168e-08
9.09511e-08
1.29589e-07
1.943e-07
3.25318e-07
6.60807e-07
1.73934e-06
6.84542e-06
5.55057e-05
0.000224445
4.67378e-08
4.74654e-08
5.45758e-08
7.21759e-08
1.03731e-07
1.46979e-07
2.15907e-07
3.26516e-07
5.45956e-07
1.09895e-06
2.83078e-06
1.0391e-05
6.73589e-05
0.000245779
4.50393e-08
4.50135e-08
5.64173e-08
8.65111e-08
1.37165e-07
2.02906e-07
2.79316e-07
3.92492e-07
5.71578e-07
9.24987e-07
1.80369e-06
4.46883e-06
1.51103e-05
7.87803e-05
0.000268822
4.54668e-08
4.48673e-08
6.37326e-08
1.25656e-07
2.15239e-07
3.21566e-07
4.32814e-07
5.48701e-07
7.19045e-07
9.93601e-07
1.54025e-06
2.88535e-06
6.82192e-06
2.10911e-05
8.95381e-05
0.000294188
4.86726e-08
4.81014e-08
8.85394e-08
2.05571e-07
3.91021e-07
5.74977e-07
7.46594e-07
8.98617e-07
1.04747e-06
1.2822e-06
1.68184e-06
2.49523e-06
4.48081e-06
1.00693e-05
2.8335e-05
9.9641e-05
0.000322753
5.48282e-08
5.60897e-08
1.41245e-07
3.85951e-07
7.44079e-07
1.12717e-06
1.40283e-06
1.60814e-06
1.76056e-06
1.91036e-06
2.20365e-06
2.75685e-06
3.92285e-06
6.75212e-06
1.43859e-05
3.67482e-05
0.000109292
0.00035514
6.27903e-08
6.88784e-08
2.35461e-07
7.48004e-07
1.50448e-06
2.24383e-06
2.81991e-06
3.08308e-06
3.20583e-06
3.25352e-06
3.32802e-06
3.6494e-06
4.37654e-06
5.98773e-06
9.88125e-06
1.99239e-05
4.61439e-05
0.000118868
0.000388454
7.07877e-08
8.3923e-08
3.69204e-07
1.3802e-06
3.01683e-06
4.61501e-06
5.70811e-06
6.25813e-06
6.20534e-06
5.98063e-06
5.71131e-06
5.56309e-06
5.84007e-06
6.74133e-06
8.88547e-06
1.40602e-05
2.67885e-05
5.62788e-05
0.000128858
0.000423344
7.79383e-08
9.86213e-08
5.14395e-07
2.26461e-06
5.6419e-06
9.31284e-06
1.18001e-05
1.27726e-05
1.26551e-05
1.16405e-05
1.05624e-05
9.59627e-06
8.96816e-06
9.06023e-06
1.00969e-05
1.28377e-05
1.94755e-05
3.50186e-05
6.68937e-05
0.000139891
0.000460995
8.39445e-08
1.11072e-07
6.5267e-07
3.21233e-06
9.2914e-06
1.74377e-05
2.38367e-05
2.64587e-05
2.59615e-05
2.38077e-05
2.06373e-05
1.78283e-05
1.55341e-05
1.40037e-05
1.36659e-05
1.47322e-05
1.8082e-05
2.62882e-05
4.45745e-05
7.77508e-05
0.000152206
0.000504058
8.90798e-08
1.21592e-07
7.63651e-07
4.10728e-06
1.31765e-05
2.86799e-05
4.45941e-05
5.34381e-05
5.38443e-05
4.90251e-05
4.22999e-05
3.49425e-05
2.89723e-05
2.4349e-05
2.12554e-05
2.00875e-05
2.09732e-05
2.48558e-05
3.4613e-05
5.53344e-05
8.86641e-05
0.000165861
0.000555355
9.31756e-08
1.30401e-07
8.58212e-07
4.8182e-06
1.68224e-05
4.05865e-05
7.31952e-05
9.98444e-05
0.000108695
0.000101774
8.73768e-05
7.17613e-05
5.69473e-05
4.55817e-05
3.70997e-05
3.14438e-05
2.88249e-05
2.91669e-05
3.33752e-05
4.44986e-05
6.64362e-05
9.95312e-05
0.000181534
0.000616906
9.65171e-08
1.37332e-07
9.35733e-07
5.42188e-06
1.97041e-05
5.1701e-05
0.000103359
0.000163552
0.000202821
0.000205331
0.000181547
0.000148642
0.000117173
8.98478e-05
6.97117e-05
5.51086e-05
4.54261e-05
4.04326e-05
3.96592e-05
4.38123e-05
5.59085e-05
7.7043e-05
0.00011039
0.000200207
0.000690853
9.90463e-08
1.42927e-07
9.95693e-07
5.91345e-06
2.21411e-05
6.04495e-05
0.00013138
0.000230473
0.000331588
0.000382669
0.000366073
0.000309121
0.000243346
0.00018524
0.000137821
0.000103959
7.99716e-05
6.41786e-05
5.54926e-05
5.27672e-05
5.62699e-05
6.72279e-05
8.85762e-05
0.000121472
0.000223331
0.000778769
1.0102e-07
1.47113e-07
1.04327e-06
6.29051e-06
2.41166e-05
6.78248e-05
0.000153367
0.000292381
0.000466383
0.000624466
0.000681413
0.000623005
0.00050657
0.00038569
0.000284766
0.000206179
0.000151498
0.000113546
8.87626e-05
7.45764e-05
6.87458e-05
7.07612e-05
7.84389e-05
0.000101134
0.000133388
0.00025128
0.00088055
1.02382e-07
1.50357e-07
1.07788e-06
6.58664e-06
2.56231e-05
7.37844e-05
0.000171851
0.000340825
0.000590555
0.000876683
0.00110999
0.00115832
0.0010205
0.000803779
0.000594428
0.000427022
0.000301504
0.000216084
0.000157894
0.000120267
9.81973e-05
8.77551e-05
8.49037e-05
9.06653e-05
0.00011528
0.000146961
0.000285189
0.000993317
1.03145e-07
1.52519e-07
1.10438e-06
6.79873e-06
2.67968e-05
7.83045e-05
0.000186736
0.000381461
0.000687517
0.00110812
0.00155546
0.00188334
0.00189498
0.00161851
0.00124031
0.000893734
0.000626094
0.000431659
0.000301972
0.0002152
0.000159731
0.000126759
0.00010984
9.93445e-05
0.000104107
0.000132109
0.000162472
0.000325853
0.0011173
1.03484e-07
1.5375e-07
1.12066e-06
6.95893e-06
2.76276e-05
8.18074e-05
0.000198002
0.000414105
0.000768655
0.0012885
0.00196253
0.00263423
0.0030751
0.00300148
0.00249651
0.00186743
0.00131409
0.000899049
0.00060572
0.000413765
0.000287629
0.000208053
0.000160514
0.000130101
0.000115337
0.000118923
0.00015423
0.000180132
0.000374686
0.00123748
1.03626e-07
1.54324e-07
1.12921e-06
7.05363e-06
2.82485e-05
8.42616e-05
0.000206669
0.000438729
0.000833736
0.00143913
0.00227934
0.00331745
0.00429261
0.00486042
0.00462298
0.00375725
0.00274999
0.00189265
0.00126574
0.000833665
0.000556157
0.000377156
0.00026591
0.000197182
0.000152241
0.000133123
0.000135671
0.000171965
0.000200863
0.000433505
0.00134692
1.03528e-07
1.54573e-07
1.13281e-06
7.09825e-06
2.86025e-05
8.60784e-05
0.00021271
0.000457615
0.000882713
0.00155976
0.00254334
0.00384839
0.00539546
0.00677021
0.00746871
0.00694612
0.00553019
0.00396727
0.00267307
0.00174837
0.00112591
0.000733612
0.000485395
0.000333676
0.000232129
0.000177014
0.000153079
0.000155875
0.000191251
0.000226094
0.000506989
0.00141175
1.03144e-07
1.54393e-07
1.13374e-06
7.11247e-06
2.87558e-05
8.70867e-05
0.000217145
0.00047069
0.000920148
0.00165037
0.00275452
0.00428995
0.00625085
0.00849165
0.0103788
0.0111928
0.0102047
0.00797356
0.00561306
0.0037048
0.00237053
0.00149259
0.000949968
0.000613445
0.000399494
0.00027138
0.00020496
0.000175904
0.000183571
0.000212121
0.000257714
0.000593112
0.00144246
1.02562e-07
1.53763e-07
1.13046e-06
7.11057e-06
2.87869e-05
8.74883e-05
0.000219553
0.000480221
0.000945957
0.00171948
0.00291286
0.0046426
0.00696117
0.00982449
0.0129876
0.0155123
0.0163954
0.0146823
0.0112734
0.00779422
0.00504091
0.00315561
0.0019428
0.0012081
0.000753704
0.000468921
0.000315767
0.000236854
0.000203125
0.000226975
0.000233743
0.000297836
0.000688894
0.00145557
1.01902e-07
1.52857e-07
1.12406e-06
7.08138e-06
2.87528e-05
8.75216e-05
0.000220436
0.000485329
0.000964674
0.00176692
0.0030333
0.00490695
0.00752757
0.0109288
0.0150034
0.0193623
0.0226551
0.0235114
0.0207092
0.0156412
0.0106259
0.00673534
0.00412538
0.00248389
0.00150962
0.000887008
0.000547354
0.000366537
0.000273963
0.000239115
0.000265137
0.000255802
0.000348612
0.000789105
0.00145398
1.01158e-07
1.51848e-07
1.11554e-06
7.03323e-06
2.86115e-05
8.73612e-05
0.000220396
0.000487058
0.000974543
0.00180123
0.00311597
0.00510753
0.00795168
0.0118083
0.0166695
0.0223301
0.0281968
0.03238
0.0330401
0.0286539
0.0213037
0.0142264
0.00883859
0.00529789
0.00312037
0.0017949
0.00103739
0.000637001
0.000425369
0.000319253
0.000292791
0.000300835
0.000279282
0.000411248
0.0008918
0.00144214
1.00279e-07
1.50674e-07
1.10645e-06
6.97261e-06
2.83956e-05
8.68735e-05
0.00021989
0.00048679
0.000977728
0.00181914
0.00317536
0.00524488
0.00827311
0.0124662
0.017995
0.0247766
0.0324594
0.0401742
0.0453362
0.0455287
0.0389082
0.0284898
0.0187083
0.0113934
0.00668537
0.00378586
0.0021027
0.00120849
0.000740523
0.000495391
0.000379498
0.00037951
0.000336057
0.000306503
0.000486573
0.000993039
0.00142274
9.93671e-08
1.49286e-07
1.09596e-06
6.90836e-06
2.81284e-05
8.61724e-05
0.000218563
0.000485473
0.000976875
0.00182459
0.00320628
0.00534343
0.00849279
0.0129642
0.0189857
0.0267198
0.0359631
0.0461538
0.0560589
0.0622252
0.0615448
0.0518554
0.0374147
0.0241667
0.0144301
0.00826264
0.00444162
0.00245162
0.00140531
0.000862504
0.0005831
0.000469704
0.000449741
0.000367425
0.000340593
0.000573239
0.00106746
0.00139548
9.84981e-08
1.47905e-07
1.08387e-06
6.83626e-06
2.78502e-05
8.53185e-05
0.00021671
0.000482394
0.000973995
0.00182263
0.00321526
0.00539446
0.00865026
0.0133046
0.0197342
0.0281713
0.0387409
0.0510539
0.0642639
0.0766675
0.0837604
0.081635
0.0678444
0.0482542
0.0306699
0.0179625
0.00970492
0.00518187
0.00285095
0.00163529
0.00101096
0.000703728
0.000614956
0.000521661
0.000392801
0.000384465
0.000662864
0.00114748
0.00136177
9.76506e-08
1.46598e-07
1.07244e-06
6.75408e-06
2.75415e-05
8.44287e-05
0.000214475
0.000478168
0.000967584
0.00181693
0.00321143
0.00540907
0.00873185
0.0135479
0.020246
0.0292668
0.0408143
0.0549315
0.0709639
0.0876913
0.102821
0.110624
0.106276
0.0871507
0.0611255
0.0382509
0.0213199
0.0113267
0.00602435
0.00331426
0.0019105
0.00120332
0.000888568
0.000769125
0.000590455
0.000412819
0.00043833
0.000755112
0.00122361
0.00132294
9.67492e-08
1.45287e-07
1.06164e-06
6.67686e-06
2.71928e-05
8.34513e-05
0.000212165
0.000473123
0.00095893
0.00180471
0.00320097
0.00540206
0.00875455
0.0136739
0.0206113
0.0300158
0.0423777
0.0578246
0.0762574
0.0966602
0.11734
0.135293
0.1434
0.135828
0.109937
0.076073
0.0458529
0.0248833
0.0131631
0.00699438
0.00386229
0.00225409
0.00147878
0.00118945
0.000919194
0.000645828
0.000431076
0.000502314
0.000847653
0.00128815
0.00128685
9.57196e-08
1.43861e-07
1.05065e-06
6.60422e-06
2.68667e-05
8.23637e-05
0.000209643
0.000467902
0.000948633
0.00178838
0.00317922
0.00538425
0.00874329
0.0137091
0.0208013
0.03055
0.0434476
0.0600025
0.0802022
0.103732
0.12911
0.154059
0.174753
0.182518
0.17049
0.136232
0.0912127
0.0535184
0.028891
0.0152618
0.00812957
0.00453096
0.00271764
0.00191349
0.00149599
0.00107389
0.000677979
0.000453601
0.000575523
0.000938021
0.00133477
0.00125822
9.46475e-08
1.42237e-07
1.03852e-06
6.53117e-06
2.65603e-05
8.13394e-05
0.000206844
0.000462238
0.000938037
0.00176904
0.00315036
0.00534755
0.00871438
0.0136915
0.0208543
0.0308295
0.0442095
0.0614944
0.0831705
0.109003
0.138371
0.169217
0.198588
0.221693
0.228215
0.210263
0.162797
0.106147
0.0620824
0.0334319
0.0176969
0.00949081
0.00539507
0.00341121
0.00260067
0.00182094
0.00121158
0.000682735
0.000486543
0.000656021
0.00101899
0.00136368
0.00123805
9.37923e-08
1.40621e-07
1.02472e-06
6.45015e-06
2.62517e-05
8.03801e-05
0.000204221
0.000455976
0.000926563
0.00174913
0.00311624
0.00529911
0.00865539
0.0136471
0.0208294
0.030909
0.0446117
0.0625576
0.0852078
0.112963
0.145274
0.181129
0.21778
0.251494
0.276407
0.280502
0.250151
0.188941
0.122656
0.0717077
0.0386416
0.020577
0.0111943
0.00662003
0.00453102
0.00322494
0.0021704
0.00130365
0.00066651
0.000533584
0.000740983
0.00108826
0.00137492
0.00122152
9.29679e-08
1.39358e-07
1.01204e-06
6.36014e-06
2.59155e-05
7.94211e-05
0.000201751
0.00045011
0.000913933
0.00172764
0.00308114
0.005242
0.00857751
0.0135561
0.0207634
0.0308749
0.044728
0.0631241
0.0866584
0.115686
0.150458
0.190007
0.23284
0.275422
0.313136
0.338945
0.333189
0.289879
0.217551
0.140988
0.0826122
0.0447122
0.0240992
0.0134955
0.00853302
0.00599331
0.00395826
0.00250137
0.00132125
0.000644459
0.000594763
0.000827035
0.00114194
0.00137072
0.00126108
9.21041e-08
1.38094e-07
1.00229e-06
6.27754e-06
2.55413e-05
7.83771e-05
0.0001993
0.000444605
0.000902062
0.00170403
0.00304332
0.00518329
0.00848605
0.0134362
0.020628
0.0307817
0.0446854
0.0632937
0.0874405
0.117629
0.154032
0.196673
0.244078
0.294186
0.342567
0.383639
0.402924
0.38651
0.333173
0.248943
0.161475
0.0951143
0.0519778
0.028682
0.0169317
0.0116564
0.00746473
0.00475819
0.00275111
0.00125719
0.00063377
0.00066685
0.000909713
0.00118472
0.00138939
0.00126542
9.11877e-08
1.36743e-07
9.9222e-07
6.21331e-06
2.5201e-05
7.72264e-05
0.00019664
0.00043913
0.000890945
0.00168189
0.00300183
0.00512007
0.00839192
0.0132948
0.0204496
0.0305868
0.0445575
0.0632437
0.0876835
0.118689
0.156582
0.201284
0.252517
0.308204
0.365638
0.419406
0.45724
0.468375
0.444692
0.380406
0.28354
0.184552
0.109756
0.0611329
0.0352383
0.0224506
0.0146897
0.00918318
0.0055357
0.00283485
0.00113228
0.000645723
0.000743638
0.000986463
0.00122903
0.00137089
0.00125668
9.0252e-08
1.35311e-07
9.81079e-07
6.14807e-06
2.49343e-05
7.61772e-05
0.00019372
0.000433216
0.000879921
0.00166109
0.00296294
0.00505083
0.00829084
0.0131499
0.0202393
0.0303294
0.0442867
0.0630751
0.0876333
0.119034
0.157998
0.204582
0.258377
0.318741
0.382914
0.447461
0.5005
0.532823
0.539982
0.50818
0.431948
0.321807
0.211018
0.127685
0.0737259
0.0455151
0.0296862
0.018236
0.0110453
0.00615153
0.00270157
0.000990515
0.000681787
0.000819535
0.00106202
0.00127602
0.00132973
0.00125314
8.93704e-08
1.33871e-07
9.69473e-07
6.076e-06
2.46643e-05
7.53521e-05
0.00019106
0.000426754
0.000868041
0.00164054
0.00292644
0.00498574
0.00818005
0.0129939
0.020023
0.0300259
0.0439271
0.0627103
0.0874208
0.118994
0.158482
0.206441
0.262575
0.326094
0.395917
0.468539
0.534433
0.584368
0.615945
0.618499
0.577354
0.488327
0.364738
0.242708
0.151521
0.0928739
0.0618428
0.0369489
0.0222975
0.012848
0.00640402
0.00236373
0.000876444
0.000735611
0.000895316
0.00113342
0.00130534
0.00128803
0.00125194
8.86537e-08
1.32567e-07
9.58158e-07
6.00098e-06
2.43678e-05
7.45216e-05
0.00018896
0.000420856
0.000855063
0.00161843
0.00289038
0.00492482
0.00807599
0.0128233
0.0197909
0.0297137
0.0435015
0.0622223
0.0869427
0.118737
0.158471
0.207113
0.264991
0.331378
0.405045
0.484441
0.560121
0.625032
0.677036
0.707486
0.70426
0.652703
0.550601
0.415017
0.283995
0.186676
0.123332
0.0765388
0.0454908
0.0265939
0.0142738
0.00613515
0.00191445
0.000814
0.000800729
0.000964636
0.00118739
0.00131972
0.00125648
0.00125215
8.79762e-08
1.31513e-07
9.48422e-07
5.9286e-06
2.40619e-05
7.36127e-05
0.000186856
0.000416191
0.000843241
0.00159428
0.0028516
0.00486468
0.00797845
0.0126629
0.0195363
0.0293784
0.0430645
0.0616442
0.0863003
0.118132
0.158175
0.207161
0.265918
0.334484
0.411635
0.495686
0.579581
0.656006
0.725412
0.779429
0.807859
0.797742
0.735517
0.622343
0.479013
0.343951
0.241417
0.156497
0.0939679
0.0549171
0.0306343
0.0148618
0.00531501
0.00148436
0.000803934
0.00086701
0.00103152
0.00122515
0.00132062
0.00123405
0.00125295
8.71918e-08
1.30465e-07
9.40779e-07
5.86721e-06
2.37668e-05
7.26793e-05
0.000184559
0.000411537
0.00083388
0.00157232
0.00280938
0.00480007
0.00788226
0.0125126
0.0192973
0.0290109
0.0425943
0.0610483
0.085535
0.117307
0.15743
0.206843
0.266065
0.335751
0.41559
0.503844
0.593594
0.679557
0.762555
0.836818
0.892223
0.917589
0.90029
0.82972
0.711819
0.569848
0.43606
0.308207
0.190396
0.113515
0.0644536
0.0336899
0.0142035
0.00413107
0.00116872
0.000831273
0.000926766
0.00109684
0.00124724
0.001318
0.00121677
0.00125363
8.63262e-08
1.29216e-07
9.32471e-07
5.81875e-06
2.35174e-05
7.17789e-05
0.000182202
0.000406465
0.000824546
0.0015549
0.00277093
0.00472973
0.00777909
0.0123643
0.0190732
0.0286654
0.0420786
0.0604075
0.0847461
0.116322
0.156404
0.205954
0.265752
0.336056
0.417311
0.50886
0.603869
0.696706
0.790975
0.881212
0.959937
1.01588
1.03783
1.01569
0.94482
0.835884
0.70557
0.550766
0.368542
0.228142
0.133854
0.0729303
0.0347236
0.0121681
0.00292346
0.00099144
0.000874878
0.000979249
0.00113881
0.00126441
0.00128107
0.00120079
0.0012541
8.54463e-08
1.27861e-07
9.22065e-07
5.76587e-06
2.33204e-05
7.10214e-05
0.000179946
0.000401275
0.000814402
0.00153757
0.00274043
0.00466569
0.00766671
0.0122054
0.0188528
0.028342
0.0415939
0.0597038
0.0838959
0.115305
0.155168
0.204709
0.264726
0.335788
0.417853
0.511179
0.610557
0.709352
0.811837
0.915403
1.01281
1.09547
1.15159
1.17207
1.153
1.09636
1.01404
0.878211
0.643862
0.434243
0.267343
0.153039
0.0787035
0.0327988
0.00917254
0.00198197
0.00092176
0.000920352
0.00102969
0.00116485
0.00125843
0.00124845
0.00118931
0.00125425
8.46931e-08
1.26529e-07
9.11221e-07
5.69989e-06
2.3106e-05
7.04228e-05
0.000178039
0.000396302
0.000804034
0.00151876
0.00271013
0.00461489
0.00756432
0.0120323
0.0186155
0.0280232
0.0411398
0.0590426
0.0829611
0.114207
0.153891
0.203201
0.263259
0.334648
0.417691
0.512065
0.614169
0.71782
0.827337
0.940752
1.05383
1.15814
1.24451
1.30236
1.32657
1.32143
1.27894
1.21275
1.00653
0.74265
0.50095
0.304696
0.168494
0.0795776
0.0276025
0.0060852
0.00139887
0.000913905
0.00096342
0.00107964
0.00118034
0.00124912
0.00122313
0.0012199
0.00125416
8.41816e-08
1.25448e-07
9.01266e-07
5.63164e-06
2.28402e-05
6.97726e-05
0.000176537
0.000392118
0.000794115
0.00149955
0.00267727
0.00456447
0.00748334
0.0118748
0.0183577
0.0276804
0.0406925
0.0584229
0.0820827
0.112997
0.152509
0.201636
0.261461
0.332965
0.416476
0.512092
0.615832
0.722517
0.837998
0.959721
1.08455
1.20715
1.31837
1.40989
1.47238
1.49769
1.4784
1.42444
1.34731
1.14084
0.841672
0.5634
0.336202
0.176714
0.0736096
0.0201667
0.00367522
0.00110687
0.000934238
0.00100334
0.0010945
0.00118708
0.00124279
0.00123569
0.00121448
0.00125416
8.37124e-08
1.24725e-07
8.93918e-07
5.56982e-06
2.25661e-05
6.89702e-05
0.000174908
0.000388814
0.000785779
0.00148118
0.00264378
0.00450984
0.00740283
0.01175
0.0181227
0.0273072
0.0402113
0.0578125
0.0812603
0.111861
0.150983
0.199939
0.259592
0.330877
0.414604
0.510867
0.61672
0.72491
0.843905
0.973107
1.10774
1.24427
1.37665
1.49573
1.59457
1.64941
1.66233
1.63189
1.56598
1.47873
1.27284
0.934027
0.615848
0.357118
0.173611
0.0603366
0.0126624
0.00218823
0.00099198
0.0009635
0.0010398
0.00110388
0.00119042
0.00125924
0.00123039
0.00120594
0.00125421
8.32058e-08
1.2404e-07
8.89313e-07
5.52492e-06
2.23192e-05
6.81448e-05
0.000172903
0.000385252
0.000779212
0.00146578
0.00261175
0.00445412
0.00731568
0.0116261
0.0179369
0.0269676
0.0396867
0.0571554
0.0804496
0.110798
0.14955
0.19806
0.257555
0.328692
0.412238
0.508849
0.616174
0.726367
0.847292
0.980424
1.12443
1.2726
1.42128
1.56425
1.69071
1.78207
1.82928
1.83089
1.78883
1.71277
1.62552
1.39389
1.0117
0.652301
0.361387
0.155708
0.0424508
0.00697807
0.00143735
0.000964145
0.000995617
0.00104623
0.00111285
0.00120538
0.00127385
0.00120998
0.00120257
0.00125426
8.2577e-08
1.23243e-07
8.84653e-07
5.49728e-06
2.21406e-05
6.74031e-05
0.000170848
0.000380867
0.000772111
0.00145367
0.00258488
0.00440097
0.00722673
0.0114921
0.017753
0.0266994
0.0392093
0.0564377
0.0795755
0.109749
0.148209
0.196295
0.255295
0.326305
0.409747
0.506231
0.61467
0.726128
0.849427
0.985221
1.13355
1.29312
1.45574
1.61737
1.76919
1.89265
1.9785
2.0158
2.0043
1.9513
1.87216
1.80416
1.49761
1.06674
0.665873
0.342699
0.122921
0.0252004
0.00361274
0.00111997
0.000973516
0.00101687
0.00105147
0.00112791
0.00122732
0.00126595
0.00118703
0.00120048
0.0012543
8.18097e-08
1.22213e-07
8.7838e-07
5.46949e-06
2.20328e-05
6.6872e-05
0.000169009
0.000376374
0.000763428
0.00144058
0.00256378
0.00435637
0.00714208
0.0113553
0.017553
0.0264335
0.0388335
0.0557857
0.0786201
0.108615
0.146887
0.194645
0.25317
0.323646
0.407009
0.503458
0.612478
0.724724
0.849539
0.988209
1.1402
1.30478
1.48048
1.65882
1.83122
1.98458
2.10553
2.18383
2.20852
2.18138
2.11898
2.0484
2.00537
1.57422
1.0912
0.648201
0.29585
0.0822705
0.0128124
0.00198435
0.00101178
0.000990413
0.00101755
0.00106199
0.00115088
0.00123745
0.00123966
0.00116759
0.00119898
0.00125432
8.10537e-08
1.21e-07
8.69936e-07
5.43111e-06
2.19244e-05
6.65505e-05
0.000167688
0.000372362
0.000754508
0.00142454
0.00254108
0.00432153
0.00707127
0.0112251
0.0173494
0.0261453
0.0384603
0.055272
0.0777506
0.107374
0.145453
0.193018
0.251188
0.321147
0.403943
0.500382
0.610096
0.722501
0.848267
0.988833
1.14432
1.31365
1.49578
1.68812
1.87992
2.05784
2.21287
2.3286
2.39483
2.40549
2.36495
2.29924
2.24923
2.11182
1.61387
1.07589
0.590684
0.22314
0.0456886
0.00592686
0.00131533
0.000987237
0.00100001
0.00102236
0.00107654
0.00117482
0.00123776
0.00121562
0.00118558
0.00119779
0.00125432
8.03573e-08
1.19835e-07
8.60454e-07
5.37923e-06
2.17745e-05
6.62328e-05
0.0001669
0.000369495
0.000746574
0.00140816
0.00251327
0.00428391
0.00701577
0.0111162
0.0171555
0.0258504
0.0380548
0.0547631
0.0770698
0.106247
0.143882
0.191248
0.249232
0.318813
0.401059
0.496916
0.607056
0.720019
0.845988
0.98779
1.14566
1.31926
1.50728
1.70838
1.91517
2.11574
2.29885
2.45285
2.56022
2.61092
2.60724
2.56029
2.50403
2.48215
2.17519
1.6041
1.01039
0.487773
0.140627
0.0213967
0.00280302
0.00107752
0.000985378
0.00100036
0.00103175
0.00109706
0.00118701
0.00123538
0.00121604
0.00117504
0.00119699
0.00125433
7.99137e-08
1.18843e-07
8.51797e-07
5.32131e-06
2.15696e-05
6.57928e-05
0.000166132
0.000367811
0.000740933
0.00139356
0.00248475
0.00423782
0.00695607
0.0110315
0.0169937
0.02557
0.037641
0.0542092
0.0763937
0.105367
0.142454
0.189304
0.247096
0.316512
0.398375
0.493655
0.603209
0.717111
0.843378
0.985561
1.145
1.32158
1.51476
1.72285
1.94133
2.15978
2.36874
2.55419
2.70271
2.7975
2.83272
2.81645
2.77004
2.73874
2.71755
2.18552
1.53217
0.884741
0.347919
0.0723974
0.00898715
0.00158441
0.00100322
0.000985085
0.00100529
0.00104317
0.00111526
0.00119831
0.00125465
0.00119648
0.00116484
0.0011966
0.00125433
7.96658e-08
1.18279e-07
8.45471e-07
5.26901e-06
2.13444e-05
6.51877e-05
0.00016505
0.000366158
0.000737625
0.0013832
0.00245946
0.00419071
0.00688284
0.0109399
0.0168678
0.0253368
0.0372476
0.0536432
0.0756565
0.104491
0.141342
0.187538
0.244742
0.313989
0.395721
0.490622
0.59959
0.713683
0.840318
0.982863
1.14292
1.32153
1.51836
1.73263
1.9596
2.19274
2.42309
2.63815
2.82179
2.95981
3.03874
3.05824
3.03351
2.99915
3.00554
2.7637
2.12641
1.38848
0.695917
0.20363
0.0312227
0.00378364
0.00115836
0.000983206
0.000987443
0.00101287
0.00105542
0.00113256
0.00121794
0.00124715
0.00116781
0.00116
0.0011964
0.00125434
7.94224e-08
1.1798e-07
8.42862e-07
5.23233e-06
2.11397e-05
6.45207e-05
0.000163569
0.000363849
0.000734444
0.00137724
0.00244159
0.00414881
0.00680787
0.0108275
0.0167321
0.0251559
0.0369199
0.0531048
0.0749019
0.103535
0.140238
0.186171
0.24261
0.311204
0.392804
0.487627
0.596227
0.710421
0.836708
0.97963
1.14023
1.31977
1.51918
1.7379
1.97244
2.21611
2.46408
2.70415
2.92116
3.09785
3.22108
3.28161
3.28699
3.26191
3.25714
3.28212
2.73656
1.97428
1.16374
0.464396
0.0960495
0.0120923
0.00187399
0.00102175
0.000976513
0.000993301
0.0010201
0.0010678
0.00115892
0.00122939
0.00122671
0.00114742
0.00115722
0.00119628
0.00125434
7.90855e-08
1.1763e-07
8.41855e-07
5.21929e-06
2.09997e-05
6.39207e-05
0.000161939
0.00036066
0.00072993
0.00137149
0.00243142
0.00411946
0.00674143
0.0107124
0.0165652
0.0249605
0.0366675
0.0526581
0.0741847
0.102554
0.139029
0.184812
0.240966
0.308681
0.389571
0.484313
0.592905
0.707434
0.833251
0.975774
1.13688
1.31719
1.51793
1.7399
1.98006
2.23302
2.49393
2.75475
3.00056
3.21423
3.37852
3.48338
3.5248
3.52021
3.50992
3.55124
3.31866
2.61228
1.72549
0.862867
0.248177
0.0380809
0.00467033
0.00123501
0.000980029
0.000978974
0.000999088
0.00102748
0.00108886
0.00117992
0.00123372
0.00119945
0.00115425
0.00115553
0.00119622
0.00125434
7.84973e-08
1.1704e-07
8.39709e-07
5.21577e-06
2.09543e-05
6.35155e-05
0.00016047
0.000357143
0.000723676
0.00136333
0.00242166
0.00410294
0.00669497
0.0106108
0.0163942
0.0247199
0.0363942
0.0523153
0.0735915
0.101623
0.137787
0.183318
0.239331
0.306747
0.386643
0.480625
0.589207
0.704483
0.830086
0.972056
1.13281
1.31383
1.51562
1.73939
1.98388
2.24386
2.51604
2.79267
3.06274
3.30902
3.51353
3.6607
3.74357
3.7672
3.76309
3.79024
3.84525
3.24245
2.36136
1.37785
0.527907
0.106029
0.0137454
0.00210473
0.00103525
0.000970211
0.000983828
0.00100439
0.00103991
0.00111274
0.00119703
0.00123758
0.00118765
0.00113786
0.00115466
0.00119618
0.00125434
7.77923e-08
1.16041e-07
8.34674e-07
5.20477e-06
2.09483e-05
6.33983e-05
0.000159494
0.000353995
0.000716809
0.00135196
0.00240769
0.0040871
0.00666927
0.0105399
0.0162432
0.0244729
0.0360565
0.051943
0.0731382
0.100856
0.136608
0.181783
0.237531
0.304825
0.384416
0.477287
0.585075
0.701105
0.826957
0.968647
1.12886
1.30962
1.51234
1.73756
1.98463
2.25022
2.5312
2.82137
3.11057
3.38484
3.62557
3.81502
3.9398
3.9991
4.01078
4.02695
4.10237
3.82797
3.03438
1.99031
0.951689
0.251502
0.0386224
0.00499783
0.00128594
0.000977177
0.00097137
0.000988226
0.00101237
0.00105699
0.00113577
0.00121043
0.0012387
0.00115436
0.00112997
0.00115427
0.00119617
0.00125434
7.71088e-08
1.14932e-07
8.26403e-07
5.17499e-06
2.09118e-05
6.33962e-05
0.000159237
0.000351926
0.000710653
0.00133944
0.00238816
0.00406439
0.00664478
0.0105013
0.0161389
0.0242552
0.0357097
0.0514815
0.0726448
0.100272
0.135639
0.180325
0.235673
0.302699
0.382204
0.474774
0.581337
0.69723
0.823359
0.965283
1.12523
1.30548
1.50807
1.73453
1.9837
2.25285
2.54088
2.84198
3.14761
3.44481
3.71735
3.94608
4.11369
4.21169
4.24912
4.26291
4.32557
4.3533
3.68592
2.68473
1.50787
0.522558
0.0963379
0.0130864
0.00214509
0.00104022
0.000964098
0.000974755
0.000994255
0.00102351
0.00107512
0.00116055
0.00122366
0.00121408
0.00113131
0.00112626
0.00115408
0.00119616
0.00125434
7.65057e-08
1.13886e-07
8.18022e-07
5.12578e-06
2.08007e-05
6.33067e-05
0.000159279
0.000351443
0.000706662
0.00132825
0.00236665
0.00403241
0.00660925
0.0104648
0.0160829
0.0241058
0.0354047
0.0510073
0.0720302
0.0996349
0.134906
0.179131
0.233912
0.3005
0.379744
0.472271
0.578542
0.693725
0.819179
0.961382
1.12164
1.30164
1.50384
1.73031
1.98133
2.25334
2.54605
2.85611
3.17524
3.49212
3.79142
4.05536
4.26464
4.40452
4.47322
4.49762
4.54035
4.64587
4.2843
3.39546
2.19442
0.958723
0.218252
0.0323796
0.00458319
0.00127744
0.000972871
0.000963906
0.000979765
0.00100254
0.00103535
0.00109816
0.00118193
0.00123063
0.00118619
0.00112471
0.00112436
0.00115399
0.00119616
0.00125434
7.60559e-08
1.13013e-07
8.10486e-07
5.07586e-06
2.06111e-05
6.29914e-05
0.000159095
0.000351608
0.000705842
0.00132109
0.00234747
0.00399714
0.00655886
0.0104113
0.0160303
0.0240277
0.0351966
0.0505913
0.0713985
0.0988388
0.134105
0.178235
0.232473
0.298419
0.377196
0.469484
0.575771
0.691225
0.815372
0.956791
1.11743
1.29787
1.49989
1.72603
1.97755
2.25202
2.54863
2.86488
3.19516
3.52847
3.85127
4.14591
4.39367
4.57568
4.68247
4.72666
4.75986
4.86036
4.81569
4.06981
2.94395
1.58104
0.459121
0.074908
0.0104396
0.00196849
0.0010295
0.000958083
0.000967812
0.000987055
0.00101119
0.00105043
0.00112262
0.00120252
0.00122996
0.00115959
0.00111073
0.00112353
0.00115395
0.00119616
0.00125434
7.58966e-08
1.12422e-07
8.05077e-07
5.03201e-06
2.04211e-05
6.24454e-05
0.000158351
0.000351295
0.000706319
0.00131982
0.00233533
0.00396571
0.00650322
0.0103346
0.015952
0.023954
0.0350901
0.0503099
0.0708457
0.098017
0.133096
0.17725
0.231403
0.296722
0.374784
0.466583
0.572664
0.688778
0.812685
0.95261
1.11244
1.29339
1.49597
1.72207
1.97358
2.24899
2.54893
2.87033
3.20867
3.55596
3.8986
4.22081
4.5027
4.72532
4.87296
4.94761
4.98333
5.0566
5.19167
4.68384
3.68339
2.35062
0.923312
0.16654
0.0233754
0.00364121
0.00121087
0.000964938
0.000958052
0.000974519
0.000994916
0.00102099
0.00106878
0.00115158
0.00121518
0.00121578
0.00112377
0.00110412
0.0011232
0.00115394
0.00119616
0.00125434
7.58461e-08
1.12347e-07
8.02209e-07
5.00181e-06
2.02548e-05
6.18955e-05
0.000157038
0.000349757
0.000705846
0.00132096
0.00233354
0.00394601
0.00645374
0.0102498
0.015839
0.0238428
0.0349902
0.0501691
0.0704748
0.0972999
0.132055
0.176006
0.230226
0.295476
0.372827
0.463839
0.569418
0.685948
0.810084
0.949677
1.10786
1.28803
1.49128
1.7181
1.96981
2.24566
2.54713
2.87297
3.21813
3.5758
3.93558
4.28139
4.59499
4.85506
5.04396
5.154
5.20611
5.26197
5.40043
5.2331
4.38336
3.12074
1.62228
0.388814
0.051446
0.00731217
0.00166286
0.00100478
0.000951675
0.000963294
0.00098225
0.00100309
0.001033
0.00109308
0.00117417
0.00122601
0.00118527
0.00111531
0.00110127
0.00112307
0.00115394
0.00119616
0.00125433
7.57542e-08
1.12321e-07
8.04179e-07
4.98841e-06
2.01449e-05
6.14186e-05
0.000155716
0.000346973
0.000702958
0.00132039
0.00233598
0.00394377
0.00642318
0.0101746
0.015714
0.0236813
0.0348379
0.0500382
0.0702951
0.0968238
0.131148
0.174716
0.228724
0.294098
0.371406
0.461623
0.56635
0.682929
0.807054
0.946856
1.10467
1.28307
1.48558
1.71324
1.96602
2.24238
2.54479
2.87308
3.22413
3.59066
3.9637
4.33013
4.67131
4.96642
5.19535
5.34443
5.42141
5.47271
5.58633
5.72042
5.02456
3.89374
2.40559
0.849009
0.125021
0.015031
0.00264922
0.00111668
0.000953733
0.000953088
0.000970516
0.000990266
0.00101252
0.00104894
0.00111738
0.00119469
0.0012235
0.00115963
0.00109462
0.00110008
0.00112302
0.00115394
0.00119616
0.00125433
7.55296e-08
1.12192e-07
8.05039e-07
5.00553e-06
2.01025e-05
6.11136e-05
0.000154577
0.000344173
0.000697585
0.00131529
0.0023354
0.00394863
0.00642066
0.010129
0.0156034
0.0235018
0.0346126
0.0498341
0.0701277
0.0966016
0.130553