/*--------------------------------*- C++ -*----------------------------------*\
| =========                 |                                                 |
| \\      /  F ield         | OpenFOAM: The Open Source CFD Toolbox           |
|  \\    /   O peration     | Version:  v2012                                 |
|   \\  /    A nd           | Website:  www.openfoam.com                      |
|    \\/     M anipulation  |                                                 |
\*---------------------------------------------------------------------------*/
FoamFile
{
    version     2.0;
    format      ascii;
    class       volScalarField;
    location    "11500";
    object      yPlus;
}
// * * * * * * * * * * * * * * * * * * * * * * * * * * * * * * * * * * * * * //

dimensions      [0 0 0 0 0 0 0];


internalField   uniform 0;

boundaryField
{
    base
    {
        type            calculated;
        value           nonuniform List<scalar> 
448
(
0.0403323
0.0070236
0.00362183
0.00274047
0.00223354
0.0018916
0.00166965
0.00151087
0.00139058
0.00129588
0.00121819
0.00115355
0.001101
0.00106458
0.00104492
0.0010499
0.00108644
0.00115341
0.0012347
0.00131135
0.00137625
0.00142851
0.0014717
0.00150526
0.0015321
0.00155211
0.00156754
0.00157808
0.00158395
0.00158654
0.0015876
0.00158681
0.00158383
0.00157931
0.00157418
0.00156839
0.00156151
0.00155435
0.00154749
0.00154078
0.00153361
0.00152538
0.00151676
0.00150986
0.00150317
0.00149613
0.00148863
0.00148093
0.00147365
0.0014677
0.00146204
0.00145547
0.0014482
0.00144077
0.00143437
0.00143001
0.001426
0.00142165
0.00141624
0.00140961
0.00140306
0.00139699
0.00139311
0.00139093
0.00138879
0.00138583
0.00138063
0.00137439
0.00136831
0.00136293
0.0013589
0.00135747
0.00135701
0.00135617
0.00135415
0.00135069
0.00134533
0.00133931
0.0013334
0.001328
0.0013242
0.00132239
0.0013231
0.00132457
0.00132605
0.00132653
0.00132605
0.00132441
0.00132105
0.00131612
0.00131046
0.00130455
0.00129943
0.0012953
0.0012925
0.00129133
0.00129156
0.00129258
0.00129437
0.00129605
0.00129761
0.00129829
0.00129848
0.00129776
0.0012962
0.0012938
0.00129059
0.00128712
0.00128333
0.00127895
0.00127504
0.00127089
0.00126744
0.00126441
0.00126199
0.00126043
0.00125914
0.00125847
0.00125914
0.00125966
0.00126096
0.00126258
0.00126405
0.0012654
0.001267
0.00126807
0.00126908
0.0012697
0.00127032
0.00127051
0.00127039
0.00126999
0.00126932
0.00126837
0.00126717
0.00126579
0.00126421
0.00126256
0.00126076
0.00125886
0.00125694
0.00125489
0.00125283
0.00125069
0.0012486
0.00124647
0.00124436
0.00124233
0.00124029
0.00123831
0.00123639
0.00123452
0.00123271
0.00123096
0.00122926
0.00122764
0.00122607
0.00122456
0.00122307
0.00122163
0.00122025
0.00121892
0.00121767
0.00121643
0.00121514
0.00121327
0.00120839
0.00119598
0.00115914
0.00106267
0.000851994
0.000507444
0.000123313
0.00025265
0.000509374
0.000718589
0.000886178
0.00101292
0.00110794
0.00118069
0.00123984
0.00129254
0.00134147
0.00138762
0.00143258
0.00147597
0.00151713
0.00155422
0.00158584
0.00161079
0.00162945
0.00164902
0.00168169
0.00173424
0.00181293
0.00192517
0.0020394
0.00207913
0.00122162
0.00107283
0.00209655
0.00263934
0.00318067
0.00354926
0.00382777
0.00409001
0.00433092
0.0045654
0.00480722
0.00507024
0.00535796
0.00568177
0.00603845
0.00643167
0.0069242
0.00747864
0.00821022
0.00925468
0.0106843
0.0122202
0.0133099
0.0137031
0.0138025
0.0142011
0.0148441
0.0157152
0.0168584
0.0181711
0.0195644
0.0213882
0.0234625
0.0254464
0.0277455
0.0304651
0.0331287
0.0364969
0.0402469
0.0447046
0.050129
0.055393
0.0608402
0.0667127
0.0733761
0.0804694
0.0884973
0.0963182
0.105265
0.115819
0.124843
0.134355
0.148118
0.162498
0.174136
0.186515
0.19964
0.211724
0.223946
0.235044
0.246856
0.256385
0.267617
0.280246
0.289339
0.299509
0.307126
0.312761
0.319026
0.325978
0.328223
0.332909
0.337623
0.34098
0.344483
0.346035
0.346658
0.347096
0.34569
0.345764
0.347364
0.345227
0.341967
0.339837
0.337007
0.336406
0.335623
0.333448
0.331513
0.329603
0.325803
0.322591
0.322346
0.32202
0.320376
0.318455
0.3166
0.314687
0.311367
0.30834
0.308407
0.306936
0.305825
0.305796
0.304513
0.303213
0.301897
0.300483
0.299309
0.298098
0.29709
0.294711
0.292348
0.290373
0.291177
0.291243
0.289475
0.290326
0.290206
0.288128
0.287471
0.288078
0.288434
0.287097
0.284196
0.281471
0.281322
0.281617
0.281244
0.280376
0.277622
0.277589
0.277758
0.273806
0.273207
0.276044
0.276543
0.2736
0.268923
0.266808
0.267705
0.266925
0.265164
0.265327
0.265699
0.266664
0.267298
0.266838
0.264791
0.260667
0.257919
0.263303
0.267442
0.254996
0.253777
0.251542
0.23739
0.236307
0.250217
0.261964
0.24896
0.236861
0.246075
0.25885
0.259741
0.256794
0.256665
0.257662
0.254506
0.251483
0.251811
0.254444
0.253255
0.237235
0.237958
0.251235
0.250953
0.236159
0.236445
0.249035
0.248077
0.248616
0.247116
0.245725
0.24568
0.241939
0.240081
0.240619
0.242329
0.239277
0.236676
0.238383
0.236916
0.223413
0.224833
0.235021
0.232697
0.233332
0.233285
0.234648
0.232872
0.231482
0.230606
0.228195
0.22631
0.215507
0.216965
0.226845
0.225143
0.224571
0.230342
0.234502
0.234456
0.213401
0.215277
0.232258
0.219691
0.221456
0.23137
0.229772
0.230432
0.217561
0.217546
0.215419
0.215779
0.207439
0.207217
0.196338
0.185964
0.193789
0.187027
0.185912
0.204055
0.202872
0.185807
0.202211
0.200037
0.18399
0.199558
0.215821
0.217086
0.197997
0.198791
0.21518
0.198234
0.197243
0.214254
0.212289
0.222354
0.221948
)
;
    }
    inlet
    {
        type            calculated;
        value           uniform 0;
    }
    outlet
    {
        type            calculated;
        value           uniform 0;
    }
    top
    {
        type            calculated;
        value           uniform 0;
    }
    w1
    {
        type            wedge;
    }
    w2
    {
        type            wedge;
    }
}


// ************************************************************************* //
