# y+ ()       
# Time        	patch         	min           	max           	average       
1000          	base	2.577372e-02	6.037796e-01	2.450444e-01
