# p  FACE_DATA 197
# x  y  z  p
-0.758794 0 0.025 3306.04
-0.718051 0 0.025 2915.95
-0.680507 0 0.025 2817.78
-0.645901 0 0.025 2780.07
-0.613992 0 0.025 2766.28
-0.584556 0 0.025 2761.06
-0.557391 0 0.025 2760.34
-0.532305 0 0.025 2759.21
-0.509124 0 0.025 2757.04
-0.487686 0 0.025 2754.92
-0.467842 0 0.025 2753.7
-0.449454 0 0.025 2753.46
-0.432393 0 0.025 2753.55
-0.41654 0 0.025 2753.13
-0.401786 0 0.025 2752.25
-0.388026 0 0.025 2751.14
-0.375167 0 0.025 2749.9
-0.363116 0 0.025 2748.81
-0.351791 0 0.025 2747.98
-0.341113 0 0.025 2747.37
-0.331006 0 0.025 2746.94
-0.321402 0 0.025 2746.64
-0.312233 0 0.025 2746.46
-0.303433 0 0.025 2746.34
-0.294945 0 0.025 2746.2
-0.286706 0 0.025 2745.84
-0.27866 0 0.025 2745.4
-0.270751 0 0.025 2744.86
-0.262924 0 0.025 2744.24
-0.25508 0 0.025 2743.58
-0.247306 0 0.025 2742.94
-0.239754 0 0.025 2742.38
-0.232416 0 0.025 2741.87
-0.225285 0 0.025 2741.39
-0.218356 0 0.025 2740.95
-0.211622 0 0.025 2740.63
-0.205079 0 0.025 2740.5
-0.198717 0 0.025 2740.53
-0.192534 0 0.025 2740.68
-0.186524 0 0.025 2740.92
-0.18068 0 0.025 2741.23
-0.174998 0 0.025 2741.54
-0.169472 0 0.025 2741.82
-0.164098 0 0.025 2741.96
-0.15887 0 0.025 2741.92
-0.153785 0 0.025 2741.68
-0.148838 0 0.025 2741.37
-0.144023 0 0.025 2740.92
-0.139338 0 0.025 2740.34
-0.134777 0 0.025 2739.64
-0.130336 0 0.025 2738.86
-0.126013 0 0.025 2738.01
-0.121802 0 0.025 2737.14
-0.1177 0 0.025 2736.29
-0.113704 0 0.025 2735.52
-0.109809 0 0.025 2734.84
-0.106012 0 0.025 2734.25
-0.10231 0 0.025 2733.77
-0.0986994 0 0.025 2733.35
-0.0951774 0 0.025 2733
-0.0917405 0 0.025 2732.72
-0.0883856 0 0.025 2732.51
-0.0851099 0 0.025 2732.38
-0.0819102 0 0.025 2732.34
-0.0787839 0 0.025 2732.38
-0.075728 0 0.025 2732.51
-0.0727398 0 0.025 2732.72
-0.0698168 0 0.025 2732.98
-0.0669562 0 0.025 2733.28
-0.0641556 0 0.025 2733.62
-0.0614123 0 0.025 2733.98
-0.0587239 0 0.025 2734.34
-0.056088 0 0.025 2734.71
-0.0535024 0 0.025 2735.07
-0.0509647 0 0.025 2735.39
-0.0484725 0 0.025 2735.85
-0.0460237 0 0.025 2735.63
-0.043616 0 0.025 2760.69
-0.0412474 0 0.025 3211.74
-0.0389157 0 0.025 4953.48
-0.0366188 0 0.025 6564.87
-0.0343547 0 0.025 7492.92
-0.0321212 0 0.025 8147.46
-0.0299165 0 0.025 8633.19
-0.0277386 0 0.025 9038.41
-0.0255855 0 0.025 9391.63
-0.0234553 0 0.025 9699.5
-0.0213461 0 0.025 9994.97
-0.019256 0 0.025 10262.4
-0.0171831 0 0.025 10520.4
-0.0151255 0 0.025 10759.2
-0.0130816 0 0.025 10981.5
-0.0110493 0 0.025 11180.4
-0.00902685 0 0.025 11337.8
-0.00701253 0 0.025 11460.7
-0.00500447 0 0.025 11537.1
-0.00300089 0 0.025 11719.6
-0.001 0 0.025 12922
0.000866025 0.0005 0.025 12461
0.0025844 0.00149211 0.025 12942.8
0.0042763 0.00246893 0.025 13727.9
0.00594322 0.00343132 0.025 14673.4
0.00758635 0.00437998 0.025 15911.6
0.00920736 0.00531588 0.025 17417
0.0108073 0.00623961 0.025 19210.5
0.0123876 0.00715197 0.025 21335.7
0.0139495 0.00805372 0.025 23881.6
0.0154937 0.00894529 0.025 26922.7
0.017022 0.00982767 0.025 30510.3
0.0185348 0.0107011 0.025 34764
0.0200339 0.0115666 0.025 39815
0.0215202 0.0124247 0.025 45667.7
0.0229941 0.0132757 0.025 52429.5
0.0244573 0.0141204 0.025 60224.9
0.0259099 0.0149591 0.025 68931.6
0.0273538 0.0157927 0.025 78544.7
0.0287896 0.0166217 0.025 89046.6
0.0302178 0.0174463 0.025 100285
0.0316401 0.0182674 0.025 112007
0.0330561 0.019085 0.025 124300
0.034468 0.0199001 0.025 136238
0.0358755 0.0207127 0.025 146363
0.0372803 0.0215238 0.025 152187
0.0386833 0.0223338 0.025 157476
0.0400841 0.0231425 0.025 147779
0.0414849 0.0239513 0.025 140451
0.0428849 0.0247597 0.025 133413
0.0442867 0.025569 0.025 126193
0.0456908 0.0263796 0.025 119773
0.0470965 0.0271912 0.025 114611
0.0485064 0.0280052 0.025 110561
0.0499192 0.0288209 0.025 107293
0.0513378 0.0296399 0.025 104549
0.0527619 0.0304621 0.025 102156
0.0541922 0.031288 0.025 100229
0.0556308 0.0321185 0.025 98939.1
0.0570761 0.0329529 0.025 98331.9
0.0585312 0.0337931 0.025 98143.3
0.0599948 0.034638 0.025 97866.8
0.0614698 0.0354896 0.025 97492.3
0.062957 0.0363482 0.025 97529.5
0.064455 0.0372131 0.025 98086.9
0.0659672 0.0380861 0.025 98794.4
0.0674915 0.0389662 0.025 99263.1
0.0690319 0.0398556 0.025 99339.8
0.0705882 0.0407541 0.025 99514.4
0.0721604 0.0416618 0.025 99865.7
0.0737453 0.0425769 0.025 100477
0.0753344 0.0434943 0.025 101095
0.0769309 0.0444161 0.025 101189
0.0785326 0.0453408 0.025 101194
0.0801411 0.0462695 0.025 101072
0.0817575 0.0472027 0.025 100881
0.0833785 0.0481386 0.025 100733
0.0850076 0.0490792 0.025 100642
0.0866416 0.0500226 0.025 100559
0.0882842 0.0509709 0.025 100705
0.0899348 0.0519239 0.025 100971
0.0915911 0.0528801 0.025 101296
0.0932563 0.0538415 0.025 101669
0.0949268 0.0548061 0.025 102055
0.0966067 0.0557759 0.025 102147
0.0982939 0.05675 0.025 102114
0.0999887 0.0577286 0.025 102070
0.101693 0.0587127 0.025 101874
0.103404 0.0597003 0.025 101871
0.105125 0.0606937 0.025 101821
0.106852 0.0616907 0.025 101672
0.108588 0.0626936 0.025 102021
0.110336 0.0637025 0.025 102079
0.11209 0.0647152 0.025 101899
0.113855 0.0657342 0.025 101786
0.115627 0.0667569 0.025 101451
0.117409 0.0677862 0.025 101621
0.119201 0.0688211 0.025 101712
0.121003 0.069861 0.025 101652
0.122816 0.0709077 0.025 102106
0.124635 0.0719583 0.025 102850
0.126468 0.0730161 0.025 103071
0.128308 0.0740787 0.025 103321
0.13016 0.0751478 0.025 103262
0.132024 0.0762243 0.025 103065
0.133897 0.0773051 0.025 103038
0.135782 0.0783936 0.025 102455
0.137675 0.0794865 0.025 102516
0.139581 0.0805871 0.025 102347
0.1415 0.081695 0.025 102087
0.143428 0.0828082 0.025 102410
0.145371 0.0839296 0.025 102329
0.147321 0.0850557 0.025 102450
0.149286 0.08619 0.025 102690
0.151261 0.0873308 0.025 102435
0.153249 0.0884787 0.025 102555
0.155252 0.0896351 0.025 102670
0.157265 0.0907968 0.025 102673
0.159292 0.0919672 0.025 102807
0.161329 0.093143 0.025 102813
