# wallHeatFlux  FACE_DATA 197
# x  y  z  wallHeatFlux
-0.758794 0 0.025 -238822
-0.718051 0 0.025 -80367.3
-0.680507 0 0.025 -76844.5
-0.645901 0 0.025 -75084.5
-0.613992 0 0.025 -73650.5
-0.584556 0 0.025 -72772.6
-0.557391 0 0.025 -72297.9
-0.532305 0 0.025 -71791.7
-0.509124 0 0.025 -71200.8
-0.487686 0 0.025 -70582.7
-0.467842 0 0.025 -69995.6
-0.449454 0 0.025 -69498.4
-0.432393 0 0.025 -69094.1
-0.41654 0 0.025 -68785.2
-0.401786 0 0.025 -68631.1
-0.388026 0 0.025 -68520.4
-0.375167 0 0.025 -68454.9
-0.363116 0 0.025 -68264.5
-0.351791 0 0.025 -68064
-0.341113 0 0.025 -67796.1
-0.331006 0 0.025 -67523.3
-0.321402 0 0.025 -67239.8
-0.312233 0 0.025 -66950.9
-0.303433 0 0.025 -66714.2
-0.294945 0 0.025 -66530.8
-0.286706 0 0.025 -66459.7
-0.27866 0 0.025 -66385.9
-0.270751 0 0.025 -66368.4
-0.262924 0 0.025 -66408.1
-0.25508 0 0.025 -66448.1
-0.247306 0 0.025 -66487.4
-0.239754 0 0.025 -66465.4
-0.232416 0 0.025 -66382.1
-0.225285 0 0.025 -66296
-0.218356 0 0.025 -66148.3
-0.211622 0 0.025 -65997.8
-0.205079 0 0.025 -65785.7
-0.198717 0 0.025 -65570.7
-0.192534 0 0.025 -65412
-0.186524 0 0.025 -65250.8
-0.18068 0 0.025 -65146.3
-0.174998 0 0.025 -65039.5
-0.169472 0 0.025 -64989.9
-0.164098 0 0.025 -64997.6
-0.15887 0 0.025 -64944.1
-0.153785 0 0.025 -64948.2
-0.148838 0 0.025 -64950.6
-0.144023 0 0.025 -64951.3
-0.139338 0 0.025 -64950.4
-0.134777 0 0.025 -64950.3
-0.130336 0 0.025 -64943.9
-0.126013 0 0.025 -64876.1
-0.121802 0 0.025 -64814.5
-0.1177 0 0.025 -64740.9
-0.113704 0 0.025 -64673.9
-0.109809 0 0.025 -64542.8
-0.106012 0 0.025 -64470.4
-0.10231 0 0.025 -64339.5
-0.0986994 0 0.025 -64259.5
-0.0951774 0 0.025 -64125.1
-0.0917405 0 0.025 -64048
-0.0883856 0 0.025 -63968.8
-0.0851099 0 0.025 -63829.1
-0.0819102 0 0.025 -63748.4
-0.0787839 0 0.025 -63666.6
-0.075728 0 0.025 -63644.6
-0.0727398 0 0.025 -63621
-0.0698168 0 0.025 -63596.9
-0.0669562 0 0.025 -63572
-0.0641556 0 0.025 -63606.5
-0.0614123 0 0.025 -63580.9
-0.0587239 0 0.025 -63614.1
-0.056088 0 0.025 -63647
-0.0535024 0 0.025 -63679.3
-0.0509647 0 0.025 -63711.4
-0.0484725 0 0.025 -63802.5
-0.0460237 0 0.025 -63772.8
-0.043616 0 0.025 -62587.7
-0.0412474 0 0.025 -52221.3
-0.0389157 0 0.025 -44642.6
-0.0366188 0 0.025 -60179.2
-0.0343547 0 0.025 -72137.7
-0.0321212 0 0.025 -80087.3
-0.0299165 0 0.025 -85422.3
-0.0277386 0 0.025 -89969.7
-0.0255855 0 0.025 -94032.7
-0.0234553 0 0.025 -97671.7
-0.0213461 0 0.025 -101374
-0.019256 0 0.025 -104529
-0.0171831 0 0.025 -107200
-0.0151255 0 0.025 -109443
-0.0130816 0 0.025 -111505
-0.0110493 0 0.025 -113873
-0.00902685 0 0.025 -117223
-0.00701253 0 0.025 -122594
-0.00500447 0 0.025 -132195
-0.00300089 0 0.025 -150134
-0.001 0 0.025 -175624
0.000866025 0.0005 0.025 -156897
0.0025844 0.00149211 0.025 -176113
0.0042763 0.00246893 0.025 -210538
0.00594322 0.00343132 0.025 -236782
0.00758635 0.00437998 0.025 -267595
0.00920736 0.00531588 0.025 -303311
0.0108073 0.00623961 0.025 -345478
0.0123876 0.00715197 0.025 -395841
0.0139495 0.00805372 0.025 -456713
0.0154937 0.00894529 0.025 -530728
0.017022 0.00982767 0.025 -618798
0.0185348 0.0107011 0.025 -724891
0.0200339 0.0115666 0.025 -852835
0.0215202 0.0124247 0.025 -1.00058e+06
0.0229941 0.0132757 0.025 -1.17249e+06
0.0244573 0.0141204 0.025 -1.36789e+06
0.0259099 0.0149591 0.025 -1.57537e+06
0.0273538 0.0157927 0.025 -1.8007e+06
0.0287896 0.0166217 0.025 -2.04097e+06
0.0302178 0.0174463 0.025 -2.28102e+06
0.0316401 0.0182674 0.025 -2.50277e+06
0.0330561 0.019085 0.025 -2.75634e+06
0.034468 0.0199001 0.025 -3.00042e+06
0.0358755 0.0207127 0.025 -3.12517e+06
0.0372803 0.0215238 0.025 -3.23954e+06
0.0386833 0.0223338 0.025 -3.28001e+06
0.0400841 0.0231425 0.025 -3.04448e+06
0.0414849 0.0239513 0.025 -2.82896e+06
0.0428849 0.0247597 0.025 -2.62765e+06
0.0442867 0.025569 0.025 -2.44446e+06
0.0456908 0.0263796 0.025 -2.2644e+06
0.0470965 0.0271912 0.025 -2.12466e+06
0.0485064 0.0280052 0.025 -2.02876e+06
0.0499192 0.0288209 0.025 -1.91459e+06
0.0513378 0.0296399 0.025 -1.84574e+06
0.0527619 0.0304621 0.025 -1.77432e+06
0.0541922 0.031288 0.025 -1.71625e+06
0.0556308 0.0321185 0.025 -1.68302e+06
0.0570761 0.0329529 0.025 -1.65372e+06
0.0585312 0.0337931 0.025 -1.62133e+06
0.0599948 0.034638 0.025 -1.60341e+06
0.0614698 0.0354896 0.025 -1.5811e+06
0.062957 0.0363482 0.025 -1.57522e+06
0.064455 0.0372131 0.025 -1.56785e+06
0.0659672 0.0380861 0.025 -1.56179e+06
0.0674915 0.0389662 0.025 -1.5522e+06
0.0690319 0.0398556 0.025 -1.53072e+06
0.0705882 0.0407541 0.025 -1.52649e+06
0.0721604 0.0416618 0.025 -1.53226e+06
0.0737453 0.0425769 0.025 -1.51904e+06
0.0753344 0.0434943 0.025 -1.53499e+06
0.0769309 0.0444161 0.025 -1.507e+06
0.0785326 0.0453408 0.025 -1.49365e+06
0.0801411 0.0462695 0.025 -1.47978e+06
0.0817575 0.0472027 0.025 -1.46513e+06
0.0833785 0.0481386 0.025 -1.44621e+06
0.0850076 0.0490792 0.025 -1.44522e+06
0.0866416 0.0500226 0.025 -1.42074e+06
0.0882842 0.0509709 0.025 -1.42029e+06
0.0899348 0.0519239 0.025 -1.40993e+06
0.0915911 0.0528801 0.025 -1.42902e+06
0.0932563 0.0538415 0.025 -1.40429e+06
0.0949268 0.0548061 0.025 -1.41553e+06
0.0966067 0.0557759 0.025 -1.3869e+06
0.0982939 0.05675 0.025 -1.37665e+06
0.0999887 0.0577286 0.025 -1.50914e+06
0.101693 0.0587127 0.025 -1.56667e+06
0.103404 0.0597003 0.025 -1.64052e+06
0.105125 0.0606937 0.025 -1.54141e+06
0.106852 0.0616907 0.025 -1.34333e+06
0.108588 0.0626936 0.025 -1.47694e+06
0.110336 0.0637025 0.025 -1.41747e+06
0.11209 0.0647152 0.025 -1.39629e+06
0.113855 0.0657342 0.025 -1.45569e+06
0.115627 0.0667569 0.025 -1.2889e+06
0.117409 0.0677862 0.025 -1.58327e+06
0.119201 0.0688211 0.025 -1.54517e+06
0.121003 0.069861 0.025 -1.28036e+06
0.122816 0.0709077 0.025 -1.26225e+06
0.124635 0.0719583 0.025 -1.5435e+06
0.126468 0.0730161 0.025 -1.49828e+06
0.128308 0.0740787 0.025 -1.5513e+06
0.13016 0.0751478 0.025 -1.45188e+06
0.132024 0.0762243 0.025 -1.43248e+06
0.133897 0.0773051 0.025 -1.51264e+06
0.135782 0.0783936 0.025 -1.25079e+06
0.137675 0.0794865 0.025 -1.38868e+06
0.139581 0.0805871 0.025 -1.25465e+06
0.1415 0.081695 0.025 -1.18343e+06
0.143428 0.0828082 0.025 -1.36905e+06
0.145371 0.0839296 0.025 -1.2081e+06
0.147321 0.0850557 0.025 -1.266e+06
0.149286 0.08619 0.025 -1.38774e+06
0.151261 0.0873308 0.025 -1.19471e+06
0.153249 0.0884787 0.025 -1.32988e+06
0.155252 0.0896351 0.025 -1.38321e+06
0.157265 0.0907968 0.025 -1.38413e+06
0.159292 0.0919672 0.025 -1.44681e+06
0.161329 0.093143 0.025 -1.42944e+06
