# Wall heat-flux
# Time        	patch         	min           	max           	integral      
10100         	base	-1.246376e+04	3.469351e+04	3.927779e+02
