# p  FACE_DATA 276
# x  y  z  p
-1.89807 0 0.0105 22131.8
-1.81671 0 0.0105 22000.4
-1.74016 0 0.0105 22064.9
-1.66815 0 0.0105 22112.5
-1.6004 0 0.0105 22112
-1.53666 0 0.0105 22107.2
-1.47668 0 0.0105 22102.1
-1.42024 0 0.0105 22096.9
-1.36711 0 0.0105 22092.1
-1.31712 0 0.0105 22088.6
-1.27005 0 0.0105 22086.1
-1.22575 0 0.0105 22083.4
-1.18403 0 0.0105 22080.8
-1.14475 0 0.0105 22078.1
-1.10775 0 0.0105 22076.5
-1.07289 0 0.0105 22075.5
-1.04005 0 0.0105 22074.3
-1.0091 0 0.0105 22073
-0.979914 0 0.0105 22071.7
-0.952392 0 0.0105 22071
-0.926429 0 0.0105 22070.8
-0.901924 0 0.0105 22071.6
-0.878785 0 0.0105 22073.3
-0.856927 0 0.0105 22075.9
-0.836265 0 0.0105 22079.5
-0.816722 0 0.0105 22084.5
-0.798224 0 0.0105 22091.1
-0.780701 0 0.0105 22099.3
-0.764088 0 0.0105 22108.9
-0.74832 0 0.0105 22119.9
-0.733339 0 0.0105 22132.5
-0.719089 0 0.0105 22146.5
-0.705515 0 0.0105 22161.7
-0.692565 0 0.0105 22177.9
-0.680192 0 0.0105 22195
-0.668349 0 0.0105 22212.8
-0.65699 0 0.0105 22231.2
-0.646073 0 0.0105 22250.1
-0.635557 0 0.0105 22269.1
-0.6254 0 0.0105 22288.3
-0.615568 0 0.0105 22307.4
-0.60602 0 0.0105 22326.5
-0.596721 0 0.0105 22345.5
-0.587638 0 0.0105 22364.1
-0.578734 0 0.0105 22382.4
-0.569975 0 0.0105 22400.3
-0.56133 0 0.0105 22417.7
-0.552766 0 0.0105 22434.6
-0.54425 0 0.0105 22451
-0.535841 0 0.0105 22466.8
-0.527746 0 0.0105 22481.7
-0.52008 0 0.0105 22495.2
-0.512816 0 0.0105 22507.3
-0.50593 0 0.0105 22518.2
-0.499397 0 0.0105 22528.3
-0.493195 0 0.0105 22537.8
-0.487302 0 0.0105 22546.5
-0.481698 0 0.0105 22554.6
-0.476362 0 0.0105 22561.9
-0.471278 0 0.0105 22568.5
-0.466428 0 0.0105 22574.6
-0.461793 0 0.0105 22580.1
-0.457359 0 0.0105 22585.2
-0.45311 0 0.0105 22589.8
-0.449029 0 0.0105 22594.2
-0.445105 0 0.0105 22598.2
-0.441325 0 0.0105 22601.9
-0.437672 0 0.0105 22605.4
-0.434136 0 0.0105 22608.8
-0.430704 0 0.0105 22611.9
-0.427365 0 0.0105 22614.8
-0.424106 0 0.0105 22617.5
-0.420917 0 0.0105 22620.2
-0.417786 0 0.0105 22622.6
-0.414702 0 0.0105 22625
-0.411656 0 0.0105 22627.2
-0.408635 0 0.0105 22628.6
-0.405629 0 0.0105 22631
-0.402629 0 0.0105 22633.9
-0.399629 0 0.0105 22635.9
-0.396628 0 0.0105 22637.7
-0.393628 0 0.0105 22639.4
-0.390626 0 0.0105 22641.1
-0.387625 0 0.0105 22642.5
-0.384621 0 0.0105 22643.7
-0.381618 0 0.0105 22644.9
-0.378613 0 0.0105 22646.1
-0.375606 0 0.0105 22647.6
-0.372597 0 0.0105 22649.3
-0.369588 0 0.0105 22651.2
-0.366577 0 0.0105 22652.9
-0.363563 0 0.0105 22654.5
-0.360546 0 0.0105 22655.8
-0.357529 0 0.0105 22656.9
-0.354508 0 0.0105 22657.9
-0.351485 0 0.0105 22658.9
-0.348458 0 0.0105 22659.8
-0.345429 0 0.0105 22660.8
-0.342397 0 0.0105 22661.6
-0.339361 0 0.0105 22662.4
-0.336321 0 0.0105 22663.1
-0.333279 0 0.0105 22663.8
-0.330233 0 0.0105 22664.4
-0.327182 0 0.0105 22665
-0.324126 0 0.0105 22665.5
-0.321068 0 0.0105 22666
-0.318004 0 0.0105 22666.4
-0.314936 0 0.0105 22666.8
-0.311863 0 0.0105 22667.2
-0.308785 0 0.0105 22667.6
-0.305702 0 0.0105 22667.9
-0.302614 0 0.0105 22668.3
-0.299519 0 0.0105 22668.6
-0.29642 0 0.0105 22668.8
-0.293315 0 0.0105 22669.1
-0.290203 0 0.0105 22669.3
-0.287086 0 0.0105 22669.6
-0.283963 0 0.0105 22669.9
-0.280832 0 0.0105 22670.3
-0.277695 0 0.0105 22670.7
-0.274551 0 0.0105 22671.1
-0.271401 0 0.0105 22671.4
-0.268244 0 0.0105 22671.6
-0.265079 0 0.0105 22671.7
-0.261906 0 0.0105 22671.7
-0.258725 0 0.0105 22671.7
-0.255537 0 0.0105 22671.7
-0.252341 0 0.0105 22671.6
-0.249137 0 0.0105 22671.5
-0.245924 0 0.0105 22671.4
-0.242703 0 0.0105 22671.3
-0.239474 0 0.0105 22671.1
-0.236236 0 0.0105 22670.9
-0.232987 0 0.0105 22670.7
-0.22973 0 0.0105 22670.5
-0.226464 0 0.0105 22670.3
-0.223189 0 0.0105 22670
-0.219903 0 0.0105 22669.7
-0.216607 0 0.0105 22669.4
-0.213302 0 0.0105 22669
-0.209985 0 0.0105 22668.5
-0.20666 0 0.0105 22668.1
-0.203323 0 0.0105 22667.6
-0.199974 0 0.0105 22667.1
-0.196616 0 0.0105 22666.6
-0.193246 0 0.0105 22666.2
-0.189864 0 0.0105 22665.9
-0.186472 0 0.0105 22665.5
-0.183068 0 0.0105 22665.1
-0.179651 0 0.0105 22664.6
-0.176222 0 0.0105 22664.1
-0.172781 0 0.0105 22663.5
-0.169328 0 0.0105 22662.9
-0.165862 0 0.0105 22662.3
-0.162383 0 0.0105 22661.7
-0.158892 0 0.0105 22661.1
-0.155387 0 0.0105 22660.2
-0.151868 0 0.0105 22661.4
-0.148337 0 0.0105 22652.5
-0.14479 0 0.0105 22699.5
-0.141231 0 0.0105 24531.6
-0.137658 0 0.0105 34353.9
-0.134069 0 0.0105 42048.7
-0.130466 0 0.0105 44427.4
-0.126849 0 0.0105 45680.2
-0.123216 0 0.0105 46578.2
-0.119568 0 0.0105 47217.1
-0.115906 0 0.0105 47757.2
-0.112228 0 0.0105 48277.6
-0.108534 0 0.0105 48760.2
-0.104824 0 0.0105 49225.5
-0.101098 0 0.0105 49670.6
-0.097355 0 0.0105 50120.3
-0.0935961 0 0.0105 50532.9
-0.0898204 0 0.0105 50931.5
-0.0860278 0 0.0105 51309.5
-0.0822181 0 0.0105 51667.6
-0.0783911 0 0.0105 52001.8
-0.0745465 0 0.0105 52319.1
-0.0706841 0 0.0105 52616
-0.0668039 0 0.0105 52888.1
-0.0629054 0 0.0105 53125.5
-0.0589886 0 0.0105 53310.9
-0.0550531 0 0.0105 53425.3
-0.0510989 0 0.0105 53464.3
-0.0471257 0 0.0105 53434.4
-0.0431332 0 0.0105 53316.4
-0.0391214 0 0.0105 53322.5
-0.0350898 0 0.0105 53694.9
-0.0310384 0 0.0105 54469.1
-0.0269669 0 0.0105 55180
-0.0228751 0 0.0105 56102.6
-0.0187628 0 0.0105 57169.1
-0.0146297 0 0.0105 58356.6
-0.0104756 0 0.0105 59671.8
-0.00630039 0 0.0105 61114.5
-0.00210372 0 0.0105 62657.7
0.00158228 0 0.0105 64154.3
0.00474683 0 0.0105 65465.6
0.00791139 0 0.0105 66856.4
0.0110759 0 0.0105 68293.9
0.0142405 0 0.0105 69775
0.017405 0 0.0105 71286.9
0.0205696 0 0.0105 72819.2
0.0237342 0 0.0105 74365.9
0.0268988 0 0.0105 75919.4
0.0300633 0 0.0105 77473.4
0.0332279 0 0.0105 79022.6
0.0363924 0 0.0105 80564.6
0.039557 0 0.0105 82099.3
0.0427215 0 0.0105 83619.7
0.0458861 0 0.0105 85117.7
0.0490507 0 0.0105 86585.4
0.0522152 0 0.0105 88013.4
0.0553798 0 0.0105 89390.8
0.0585443 0 0.0105 90709.5
0.0617089 0 0.0105 91970
0.0648734 0 0.0105 93168.7
0.068038 0 0.0105 94308.9
0.0712026 0 0.0105 95395.3
0.0743671 0 0.0105 96432.3
0.0775317 0 0.0105 97424.1
0.0806962 0 0.0105 98373.2
0.0838607 0 0.0105 99280
0.0870253 0 0.0105 100143
0.0901899 0 0.0105 100958
0.0933545 0 0.0105 101725
0.096519 0 0.0105 102443
0.0996836 0 0.0105 103117
0.102848 0 0.0105 103753
0.106012 0 0.0105 104361
0.109177 0 0.0105 104951
0.112341 0 0.0105 105533
0.115506 0 0.0105 106114
0.118671 0 0.0105 106698
0.121835 0 0.0105 107284
0.125 0 0.0105 107868
0.128164 0 0.0105 108440
0.131329 0 0.0105 108991
0.134493 0 0.0105 109508
0.137658 0 0.0105 109979
0.140823 0 0.0105 110392
0.143987 0 0.0105 110747
0.147152 0 0.0105 111044
0.150316 0 0.0105 111278
0.153481 0 0.0105 111438
0.156645 0 0.0105 111448
0.15981 0 0.0105 110987
0.162975 0 0.0105 110868
0.166139 0 0.0105 110730
0.169304 0 0.0105 109934
0.172468 0 0.0105 109516
0.175633 0 0.0105 108697
0.178797 0 0.0105 107699
0.181962 0 0.0105 106555
0.185126 0 0.0105 105255
0.188291 0 0.0105 103824
0.191455 0 0.0105 102290
0.19462 0 0.0105 100676
0.197785 0 0.0105 99002
0.20095 0 0.0105 97285.8
0.204114 0 0.0105 95542.4
0.207278 0 0.0105 93786
0.210443 0 0.0105 92027.4
0.213607 0 0.0105 90276.1
0.216772 0 0.0105 88538.3
0.219936 0 0.0105 86817.7
0.223101 0 0.0105 85116.8
0.226266 0 0.0105 83437.5
0.22943 0 0.0105 81781.2
0.232595 0 0.0105 80149.7
0.235759 0 0.0105 78543.1
0.238924 0 0.0105 76968.5
0.242088 0 0.0105 75397.5
0.245253 0 0.0105 73956.2
0.248417 0 0.0105 71763.1
