# wallShearStress  FACE_DATA 276
# x  y  z  wallShearStress_x  wallShearStress_y  wallShearStress_z
-1.89807 0 0.0105 -144.57 -0.542089 6.80124e-17
-1.81671 0 0.0105 -108.604 0.00745556 -1.57976e-17
-1.74016 0 0.0105 -170.366 0.0164107 1.85854e-18
-1.66815 0 0.0105 -180.064 0.0526057 7.69052e-19
-1.6004 0 0.0105 -179.376 0.0642115 -7.69052e-19
-1.53666 0 0.0105 -177.142 0.0561748 -1.28175e-18
-1.47668 0 0.0105 -174.677 0.0508784 -2.05081e-18
-1.42024 0 0.0105 -172.388 0.046266 0
-1.36711 0 0.0105 -170.345 0.0414577 1.28175e-18
-1.31712 0 0.0105 -168.542 0.0363917 1.28175e-18
-1.27005 0 0.0105 -166.954 0.023577 -1.28175e-19
-1.22575 0 0.0105 -165.547 0.0196973 0
-1.18403 0 0.0105 -164.298 0.0158492 -3.84526e-19
-1.14475 0 0.0105 -163.182 0.0164636 -5.12702e-19
-1.10775 0 0.0105 -162.187 0.018189 -1.28175e-19
-1.07289 0 0.0105 -161.291 0.018258 -7.69052e-19
-1.04005 0 0.0105 -160.481 0.0155415 -3.84526e-19
-1.0091 0 0.0105 -159.743 0.0148292 -8.97228e-19
-0.979914 0 0.0105 -159.069 0.0144481 6.40877e-19
-0.952392 0 0.0105 -158.455 0.0130824 1.0254e-18
-0.926429 0 0.0105 -157.897 0.0116703 6.40877e-19
-0.901924 0 0.0105 -157.388 0.0108224 3.84526e-19
-0.878785 0 0.0105 -156.925 0.0108301 2.56351e-19
-0.856927 0 0.0105 -156.502 0.0115535 0
-0.836265 0 0.0105 -156.117 0.0116457 2.56351e-19
-0.816722 0 0.0105 -155.768 0.0111294 6.40877e-19
-0.798224 0 0.0105 -155.453 0.0105385 1.66628e-18
-0.780701 0 0.0105 -155.168 0.00917261 2.43533e-18
-0.764088 0 0.0105 -154.911 0.00839402 0
-0.74832 0 0.0105 -154.679 0.00933095 -1.0254e-18
-0.733339 0 0.0105 -154.472 0.0112114 1.28175e-18
-0.719089 0 0.0105 -154.287 0.0119643 0
-0.705515 0 0.0105 -154.12 0.0109921 -2.56351e-19
-0.692565 0 0.0105 -153.972 0.00941726 -2.05081e-18
-0.680192 0 0.0105 -153.837 0.00825297 -5.12702e-19
-0.668349 0 0.0105 -153.718 0.00778607 -7.69052e-19
-0.65699 0 0.0105 -153.61 0.00781276 5.12702e-19
-0.646073 0 0.0105 -153.513 0.00785246 0
-0.635557 0 0.0105 -153.425 0.00796998 5.12702e-19
-0.6254 0 0.0105 -153.345 0.00812568 0
-0.615568 0 0.0105 -153.271 0.00800726 0
-0.60602 0 0.0105 -153.203 0.0079171 -1.5381e-18
-0.596721 0 0.0105 -153.14 0.00766829 -2.81986e-18
-0.587638 0 0.0105 -153.08 0.00721886 -5.12702e-19
-0.578734 0 0.0105 -153.022 0.00674437 -2.30716e-18
-0.569975 0 0.0105 -152.965 0.00633273 -5.12702e-19
-0.56133 0 0.0105 -152.91 0.00599404 -7.69052e-19
-0.552766 0 0.0105 -152.855 0.00578916 2.56351e-19
-0.54425 0 0.0105 -152.8 0.00616572 7.69052e-19
-0.535841 0 0.0105 -152.746 0.00681146 3.58891e-18
-0.527746 0 0.0105 -152.693 0.00733073 1.5381e-18
-0.52008 0 0.0105 -152.64 0.00750525 1.0254e-18
-0.512816 0 0.0105 -152.587 0.00795616 0
-0.50593 0 0.0105 -152.536 0.00889637 1.0254e-18
-0.499397 0 0.0105 -152.488 0.0107848 -8.20323e-18
-0.493195 0 0.0105 -152.443 0.0123025 -9.74133e-18
-0.487302 0 0.0105 -152.401 0.0134386 5.63972e-18
-0.481698 0 0.0105 -152.361 0.0136809 0
-0.476362 0 0.0105 -152.32 0.0131101 2.05081e-18
-0.471278 0 0.0105 -152.282 0.0118875 6.15242e-18
-0.466428 0 0.0105 -152.242 0.0104974 8.71593e-18
-0.461793 0 0.0105 -152.203 0.00902444 7.17782e-18
-0.457359 0 0.0105 -152.165 0.00804506 1.64065e-17
-0.45311 0 0.0105 -152.129 0.00717458 1.07667e-17
-0.449029 0 0.0105 -152.093 0.00665283 1.0254e-18
-0.445105 0 0.0105 -152.06 0.00635315 3.07621e-18
-0.441325 0 0.0105 -152.027 0.00625935 1.5381e-18
-0.437672 0 0.0105 -151.996 0.00625363 -2.56351e-18
-0.434136 0 0.0105 -151.966 0.00636822 1.0254e-18
-0.430704 0 0.0105 -151.936 0.00650743 5.12702e-19
-0.427365 0 0.0105 -151.908 0.00664742 -5.12702e-19
-0.424106 0 0.0105 -151.88 0.00669608 5.12702e-19
-0.420917 0 0.0105 -151.851 0.00671243 1.0254e-18
-0.417786 0 0.0105 -151.824 0.00664576 0
-0.414702 0 0.0105 -151.796 0.00657947 5.12702e-19
-0.411656 0 0.0105 -151.772 0.00646885 -5.12702e-19
-0.408635 0 0.0105 -151.743 0.00659805 -5.12702e-19
-0.405629 0 0.0105 -151.713 0.00647242 -3.58891e-18
-0.402629 0 0.0105 -151.667 0.00616844 -1.0254e-17
-0.399629 0 0.0105 -151.638 0.00568672 3.58891e-18
-0.396628 0 0.0105 -151.612 0.00554292 3.07621e-18
-0.393628 0 0.0105 -151.586 0.00517891 3.58891e-18
-0.390626 0 0.0105 -151.56 0.00532057 1.0254e-18
-0.387625 0 0.0105 -151.532 0.00560636 1.5381e-18
-0.384621 0 0.0105 -151.505 0.00578537 -2.56351e-18
-0.381618 0 0.0105 -151.476 0.00575399 -1.5381e-18
-0.378613 0 0.0105 -151.447 0.00559562 4.61431e-18
-0.375606 0 0.0105 -151.417 0.0053606 6.66512e-18
-0.372597 0 0.0105 -151.388 0.00506769 -3.07621e-18
-0.369588 0 0.0105 -151.358 0.00507698 1.0254e-18
-0.366577 0 0.0105 -151.33 0.00544485 -5.12702e-19
-0.363563 0 0.0105 -151.305 0.00602446 1.0254e-17
-0.360546 0 0.0105 -151.277 0.00686012 8.71593e-18
-0.357529 0 0.0105 -151.247 0.00820914 -1.74319e-17
-0.354508 0 0.0105 -151.218 0.00910826 6.15242e-18
-0.351485 0 0.0105 -151.189 0.0102901 -5.12702e-18
-0.348458 0 0.0105 -151.161 0.0114041 -4.51177e-17
-0.345429 0 0.0105 -151.132 0.0125532 -3.07621e-18
-0.342397 0 0.0105 -151.101 0.013165 -3.07621e-18
-0.339361 0 0.0105 -151.071 0.0135361 -7.17782e-18
-0.336321 0 0.0105 -151.041 0.013843 -1.0254e-17
-0.333279 0 0.0105 -151.007 0.0140176 -2.05081e-18
-0.330233 0 0.0105 -150.974 0.0139772 -4.10161e-18
-0.327182 0 0.0105 -150.942 0.0137698 1.0254e-18
-0.324126 0 0.0105 -150.911 0.0133026 1.74319e-17
-0.321068 0 0.0105 -150.879 0.0125302 2.05081e-18
-0.318004 0 0.0105 -150.846 0.0116268 -4.10161e-18
-0.314936 0 0.0105 -150.814 0.0107675 -1.12794e-17
-0.311863 0 0.0105 -150.781 0.00987256 -2.76859e-17
-0.308785 0 0.0105 -150.747 0.00893979 2.46097e-17
-0.305702 0 0.0105 -150.714 0.00792828 7.17782e-18
-0.302614 0 0.0105 -150.68 0.00670038 -4.61431e-18
-0.299519 0 0.0105 -150.648 0.00518707 1.12794e-17
-0.29642 0 0.0105 -150.614 0.00362385 4.35796e-18
-0.293315 0 0.0105 -150.579 0.00231645 2.35843e-17
-0.290203 0 0.0105 -150.545 0.000855757 -1.76241e-17
-0.287086 0 0.0105 -150.512 -0.000545852 -2.49301e-17
-0.283963 0 0.0105 -150.477 -0.00172315 -2.05081e-18
-0.280832 0 0.0105 -150.441 -0.00261276 -3.84526e-18
-0.277695 0 0.0105 -150.408 -0.00329588 2.05081e-18
-0.274551 0 0.0105 -150.376 -0.00370501 -7.69052e-18
-0.271401 0 0.0105 -150.341 -0.00387506 5.12702e-19
-0.268244 0 0.0105 -150.304 -0.00373649 -6.15242e-18
-0.265079 0 0.0105 -150.268 -0.00339475 2.56351e-19
-0.261906 0 0.0105 -150.233 -0.00286908 -6.92147e-18
-0.258725 0 0.0105 -150.196 -0.00204197 2.56351e-18
-0.255537 0 0.0105 -150.159 -0.00094689 1.23048e-17
-0.252341 0 0.0105 -150.12 0.000432575 2.27511e-18
-0.249137 0 0.0105 -150.083 0.00206426 -1.12794e-17
-0.245924 0 0.0105 -150.046 0.00295335 7.69052e-19
-0.242703 0 0.0105 -150.009 0.00511149 -6.15242e-18
-0.239474 0 0.0105 -149.971 0.0063059 2.35843e-17
-0.236236 0 0.0105 -149.933 0.00757103 1.12794e-17
-0.232987 0 0.0105 -149.893 0.00874363 2.05081e-18
-0.22973 0 0.0105 -149.855 0.00968441 1.0254e-18
-0.226464 0 0.0105 -149.819 0.0103974 -4.10161e-18
-0.223189 0 0.0105 -149.78 0.0109536 -8.20323e-18
-0.219903 0 0.0105 -149.74 0.0113377 -2.05081e-18
-0.216607 0 0.0105 -149.701 0.0117335 7.17782e-18
-0.213302 0 0.0105 -149.66 0.0121628 5.12702e-18
-0.209985 0 0.0105 -149.617 0.0127645 5.12702e-18
-0.20666 0 0.0105 -149.577 0.0134902 0
-0.203323 0 0.0105 -149.535 0.0141842 -1.0254e-18
-0.199974 0 0.0105 -149.495 0.014687 -4.10161e-18
-0.196616 0 0.0105 -149.454 0.0150745 -2.05081e-18
-0.193246 0 0.0105 -149.41 0.0153432 0
-0.189864 0 0.0105 -149.366 0.0154042 6.15242e-18
-0.186472 0 0.0105 -149.328 0.0153334 5.12702e-18
-0.183068 0 0.0105 -149.289 0.0149947 2.05081e-18
-0.179651 0 0.0105 -149.247 0.0145225 1.0254e-18
-0.176222 0 0.0105 -149.204 0.0139623 -1.0254e-18
-0.172781 0 0.0105 -149.163 0.0133627 0
-0.169328 0 0.0105 -149.115 0.0127289 0
-0.165862 0 0.0105 -149.07 0.0121169 -1.0254e-18
-0.162383 0 0.0105 -149.028 0.0115661 1.0254e-18
-0.158892 0 0.0105 -148.982 0.0111615 -6.15242e-18
-0.155387 0 0.0105 -148.934 0.0103269 0
-0.151868 0 0.0105 -148.932 0.0113784 4.10161e-18
-0.148337 0 0.0105 -148.825 0.00796589 -1.28175e-17
-0.14479 0 0.0105 -145.802 0.0137034 6.64461e-16
-0.141231 0 0.0105 -89.3149 0.363989 -1.31252e-16
-0.137658 0 0.0105 22.7959 0.274674 -9.51574e-16
-0.134069 0 0.0105 37.1322 -0.139026 9.35168e-16
-0.130466 0 0.0105 33.0415 -0.188169 1.64065e-17
-0.126849 0 0.0105 31.775 -0.0808025 -1.23048e-16
-0.123216 0 0.0105 30.4499 -0.0922908 1.64065e-17
-0.119568 0 0.0105 29.4493 -0.0804855 -8.20323e-18
-0.115906 0 0.0105 29.1541 -0.103072 -7.3829e-17
-0.112228 0 0.0105 29.3939 -0.114924 -2.46097e-17
-0.108534 0 0.0105 29.7471 -0.150752 -6.56258e-17
-0.104824 0 0.0105 30.1784 -0.179874 0
-0.101098 0 0.0105 30.7313 -0.183457 0
-0.097355 0 0.0105 31.2157 -0.161094 3.28129e-17
-0.0935961 0 0.0105 31.606 -0.103278 3.28129e-16
-0.0898204 0 0.0105 31.9524 -0.019924 2.17385e-16
-0.0860278 0 0.0105 32.2123 0.0873461 -2.87113e-16
-0.0822181 0 0.0105 32.4406 0.196233 -9.84387e-17
-0.0783911 0 0.0105 32.6586 0.31134 -2.62503e-16
-0.0745465 0 0.0105 32.8826 0.419522 -3.28129e-17
-0.0706841 0 0.0105 33.114 0.526044 3.28129e-17
-0.0668039 0 0.0105 33.395 0.62831 0
-0.0629054 0 0.0105 33.8343 0.721709 1.96877e-16
-0.0589886 0 0.0105 34.6634 0.797827 6.56258e-17
-0.0550531 0 0.0105 36.2501 0.841904 6.56258e-17
-0.0510989 0 0.0105 39.233 0.861594 0
-0.0471257 0 0.0105 43.7909 0.866936 -6.56258e-17
-0.0431332 0 0.0105 50.3702 0.864355 1.31252e-16
-0.0391214 0 0.0105 58.1189 0.877404 -6.56258e-17
-0.0350898 0 0.0105 65.9213 0.849722 6.56258e-17
-0.0310384 0 0.0105 70.4195 0.779299 3.93755e-16
-0.0269669 0 0.0105 73.0299 0.746337 0
-0.0228751 0 0.0105 75.3904 0.706145 1.31252e-16
-0.0187628 0 0.0105 76.5132 0.660002 1.31252e-16
-0.0146297 0 0.0105 76.6675 0.604258 0
-0.0104756 0 0.0105 76.1593 0.533942 6.56258e-17
-0.00630039 0 0.0105 74.9824 0.446287 0
-0.00210372 0 0.0105 73.3628 0.34432 -6.56258e-17
0.00158228 0 0.0105 71.4292 0.253361 -1.64065e-17
0.00474683 0 0.0105 68.9418 0.169574 -3.28129e-17
0.00791139 0 0.0105 65.8652 0.0854727 0
0.0110759 0 0.0105 62.0028 0.00563732 5.53718e-17
0.0142405 0 0.0105 57.3548 -0.0601034 8.20323e-18
0.017405 0 0.0105 51.9379 -0.120259 0
0.0205696 0 0.0105 45.8104 -0.168158 6.56258e-17
0.0237342 0 0.0105 39.0255 -0.208286 3.28129e-17
0.0268988 0 0.0105 31.6392 -0.242215 0
0.0300633 0 0.0105 23.7278 -0.274122 -9.84387e-17
0.0332279 0 0.0105 15.3843 -0.308152 0
0.0363924 0 0.0105 6.69725 -0.34064 3.28129e-17
0.039557 0 0.0105 -2.27414 -0.361332 3.28129e-17
0.0427215 0 0.0105 -11.4986 -0.370454 6.56258e-17
0.0458861 0 0.0105 -20.9699 -0.37149 0
0.0490507 0 0.0105 -30.6982 -0.367501 9.84387e-17
0.0522152 0 0.0105 -40.6772 -0.35435 9.84387e-17
0.0553798 0 0.0105 -50.8417 -0.324882 6.56258e-17
0.0585443 0 0.0105 -61.0552 -0.285453 -3.28129e-17
0.0617089 0 0.0105 -71.1671 -0.235066 1.14845e-16
0.0648734 0 0.0105 -81.0189 -0.172634 4.10161e-16
0.068038 0 0.0105 -90.4585 -0.116968 -1.47658e-16
0.0712026 0 0.0105 -99.3871 -0.0686954 -1.23048e-16
0.0743671 0 0.0105 -107.776 -0.0334326 -6.97274e-17
0.0775317 0 0.0105 -115.66 -0.0221225 1.23048e-17
0.0806962 0 0.0105 -123.106 -0.0312342 4.51177e-17
0.0838607 0 0.0105 -130.203 -0.0469993 8.20323e-18
0.0870253 0 0.0105 -137.049 -0.0595872 4.10161e-17
0.0901899 0 0.0105 -143.752 -0.0660316 0
0.0933545 0 0.0105 -150.395 -0.0623956 -1.64065e-17
0.096519 0 0.0105 -157.022 -0.042692 4.10161e-18
0.0996836 0 0.0105 -163.624 -0.0050971 3.08134e-16
0.102848 0 0.0105 -170.141 0.0551128 -4.51177e-16
0.106012 0 0.0105 -176.483 0.139216 -2.95316e-16
0.109177 0 0.0105 -182.552 0.234745 -2.95316e-16
0.112341 0 0.0105 -188.266 0.333417 -6.56258e-17
0.115506 0 0.0105 -193.571 0.419369 -1.31252e-16
0.118671 0 0.0105 -198.449 0.477002 6.56258e-17
0.121835 0 0.0105 -202.923 0.493157 6.56258e-17
0.125 0 0.0105 -207.049 0.460876 -3.28129e-17
0.128164 0 0.0105 -210.907 0.382481 5.25006e-16
0.131329 0 0.0105 -214.585 0.26594 3.28129e-17
0.134493 0 0.0105 -218.183 0.129372 -6.56258e-17
0.137658 0 0.0105 -221.786 -0.0119962 8.53136e-16
0.140823 0 0.0105 -225.439 -0.143656 3.28129e-17
0.143987 0 0.0105 -229.171 -0.24888 3.28129e-17
0.147152 0 0.0105 -232.994 -0.322946 6.56258e-17
0.150316 0 0.0105 -236.881 -0.36313 9.84387e-17
0.153481 0 0.0105 -241.206 -0.398126 1.31252e-16
0.156645 0 0.0105 -246.314 -0.401825 2.95316e-16
0.15981 0 0.0105 -251.901 -0.369276 0
0.162975 0 0.0105 -255.68 -0.336128 2.2969e-16
0.166139 0 0.0105 -260.81 -0.301342 0
0.169304 0 0.0105 -266.225 -0.343349 9.84387e-17
0.172468 0 0.0105 -270.556 -0.299052 -9.84387e-17
0.175633 0 0.0105 -276.226 -0.276747 0
0.178797 0 0.0105 -281.82 -0.208469 -7.21884e-16
0.181962 0 0.0105 -287.176 -0.142907 0
0.185126 0 0.0105 -292.303 -0.0870025 2.46097e-17
0.188291 0 0.0105 -297.035 -0.0440606 -6.3575e-16
0.191455 0 0.0105 -301.382 -0.0149408 1.84573e-16
0.19462 0 0.0105 -305.315 0.0156992 -1.70217e-16
0.197785 0 0.0105 -308.81 0.0408337 -4.10161e-18
0.20095 0 0.0105 -311.849 0.0615537 -1.14845e-16
0.204114 0 0.0105 -314.427 0.0793485 0
0.207278 0 0.0105 -316.538 0.0927727 -1.47658e-16
0.210443 0 0.0105 -318.228 0.101871 -4.92194e-17
0.213607 0 0.0105 -319.528 0.10783 -7.3829e-17
0.216772 0 0.0105 -320.46 0.111631 -1.64065e-17
0.219936 0 0.0105 -321.051 0.113693 -1.64065e-17
0.223101 0 0.0105 -321.325 0.112586 -3.28129e-17
0.226266 0 0.0105 -321.31 0.108217 0
0.22943 0 0.0105 -321.026 0.10307 -8.20323e-18
0.232595 0 0.0105 -320.499 0.0982649 8.20323e-18
0.235759 0 0.0105 -319.739 0.0932412 -1.64065e-17
0.238924 0 0.0105 -318.788 0.0882692 6.56258e-17
0.242088 0 0.0105 -317.551 0.0818906 8.20323e-18
0.245253 0 0.0105 -317.63 0.088405 -1.47658e-16
0.248417 0 0.0105 -312.915 0.0603016 1.04776e-16
