# Wall heat-flux
# Time        	patch         	min           	max           	integral      
2400          	base	-1.338521e+04	3.337548e+04	3.829441e+02
