# Wall heat-flux
# Time        	patch         	min           	max           	integral      
3500          	base	-1.665655e+05	-6.256296e+02	-1.629485e+02
