# Wall heat-flux
# Time        	patch         	min           	max           	integral      
6000          	base	-1.988821e+05	-8.175060e+03	-1.196844e+02
