# p  FACE_DATA 398
# x  y  z  p
-0.7975 -7.61524e-06 0 1136.76
-0.79239 -7.61524e-06 0 893.87
-0.787056 -7.61524e-06 0 734.944
-0.781492 -7.61524e-06 0 707.191
-0.775691 -7.61524e-06 0 674.339
-0.769649 -7.61524e-06 0 653.869
-0.763361 -7.61524e-06 0 643.137
-0.756822 -7.61524e-06 0 635.663
-0.750025 -7.61524e-06 0 629.422
-0.742968 -7.61524e-06 0 618.503
-0.735648 -7.61524e-06 0 611.927
-0.72806 -7.61524e-06 0 602.183
-0.720203 -7.61524e-06 0 600.91
-0.712075 -7.61524e-06 0 603.331
-0.703676 -7.61524e-06 0 606.705
-0.695006 -7.61524e-06 0 610.088
-0.686065 -7.61524e-06 0 613.197
-0.676855 -7.61524e-06 0 615.128
-0.667379 -7.61524e-06 0 615.921
-0.657641 -7.61524e-06 0 616.448
-0.647644 -7.61524e-06 0 616.855
-0.637398 -7.61524e-06 0 616.753
-0.626906 -7.61524e-06 0 616.213
-0.616179 -7.61524e-06 0 615.735
-0.605225 -7.61524e-06 0 614.958
-0.594054 -7.61524e-06 0 614.021
-0.582677 -7.61524e-06 0 613.221
-0.57111 -7.61524e-06 0 612.626
-0.559364 -7.61524e-06 0 611.753
-0.547454 -7.61524e-06 0 610.676
-0.535396 -7.61524e-06 0 609.619
-0.523205 -7.61524e-06 0 608.708
-0.510901 -7.61524e-06 0 607.677
-0.498499 -7.61524e-06 0 606.677
-0.486021 -7.61524e-06 0 606.047
-0.473482 -7.61524e-06 0 605.78
-0.460905 -7.61524e-06 0 605.142
-0.448307 -7.61524e-06 0 604.109
-0.435709 -7.61524e-06 0 603.017
-0.42313 -7.61524e-06 0 602.413
-0.41059 -7.61524e-06 0 602.519
-0.39811 -7.61524e-06 0 602.542
-0.385706 -7.61524e-06 0 601.902
-0.373398 -7.61524e-06 0 600.857
-0.361205 -7.61524e-06 0 599.765
-0.349142 -7.61524e-06 0 599.106
-0.337226 -7.61524e-06 0 599.072
-0.325475 -7.61524e-06 0 599.536
-0.313901 -7.61524e-06 0 599.667
-0.30252 -7.61524e-06 0 599.034
-0.291343 -7.61524e-06 0 597.701
-0.280381 -7.61524e-06 0 596.253
-0.269647 -7.61524e-06 0 594.959
-0.259148 -7.61524e-06 0 594.093
-0.248893 -7.61524e-06 0 593.765
-0.23889 -7.61524e-06 0 594.362
-0.229143 -7.61524e-06 0 595.071
-0.219659 -7.61524e-06 0 595.748
-0.210441 -7.61524e-06 0 596.284
-0.201491 -7.61524e-06 0 596.547
-0.192812 -7.61524e-06 0 596.596
-0.184405 -7.61524e-06 0 596.239
-0.176269 -7.61524e-06 0 595.638
-0.168404 -7.61524e-06 0 594.842
-0.160809 -7.61524e-06 0 593.898
-0.15348 -7.61524e-06 0 592.9
-0.146415 -7.61524e-06 0 591.979
-0.13961 -7.61524e-06 0 591.153
-0.133063 -7.61524e-06 0 590.471
-0.126767 -7.61524e-06 0 589.959
-0.120717 -7.61524e-06 0 589.631
-0.11491 -7.61524e-06 0 589.485
-0.109339 -7.61524e-06 0 589.442
-0.103997 -7.61524e-06 0 589.664
-0.0988804 -7.61524e-06 0 589.951
-0.0939809 -7.61524e-06 0 590.307
-0.0892928 -7.61524e-06 0 590.675
-0.0848096 -7.61524e-06 0 591.017
-0.0805248 -7.61524e-06 0 591.328
-0.0764317 -7.61524e-06 0 591.599
-0.0725237 -7.61524e-06 0 591.842
-0.0687943 -7.61524e-06 0 592.035
-0.065237 -7.61524e-06 0 592.303
-0.0618454 -7.61524e-06 0 593.627
-0.058613 -7.61524e-06 0 604.725
-0.0555337 -7.61524e-06 0 641.986
-0.0526013 -7.61524e-06 0 701.99
-0.0498099 -7.61524e-06 0 761.409
-0.0471536 -7.61524e-06 0 817.062
-0.0446266 -7.61524e-06 0 875.082
-0.0422235 -7.61524e-06 0 935.699
-0.0399389 -7.61524e-06 0 996.621
-0.0377676 -7.61524e-06 0 1055.57
-0.0357044 -7.61524e-06 0 1110.93
-0.0337445 -7.61524e-06 0 1162.94
-0.0318832 -7.61524e-06 0 1211.38
-0.0301159 -7.61524e-06 0 1256.07
-0.0284383 -7.61524e-06 0 1297.09
-0.0268462 -7.61524e-06 0 1334.76
-0.0253353 -7.61524e-06 0 1369.56
-0.023902 -7.61524e-06 0 1401.62
-0.0225425 -7.61524e-06 0 1431.25
-0.0212532 -7.61524e-06 0 1458.7
-0.0200306 -7.61524e-06 0 1484.2
-0.0188715 -7.61524e-06 0 1507.9
-0.0177727 -7.61524e-06 0 1529.95
-0.0167313 -7.61524e-06 0 1550.39
-0.0157444 -7.61524e-06 0 1569.36
-0.0148093 -7.61524e-06 0 1586.97
-0.0139232 -7.61524e-06 0 1603.29
-0.0130838 -7.61524e-06 0 1618.34
-0.0122887 -7.61524e-06 0 1632.19
-0.0115355 -7.61524e-06 0 1644.9
-0.0108223 -7.61524e-06 0 1656.53
-0.0101469 -7.61524e-06 0 1667.15
-0.00950727 -7.61524e-06 0 1676.83
-0.00890169 -7.61524e-06 0 1685.66
-0.00832834 -7.61524e-06 0 1693.75
-0.00778557 -7.61524e-06 0 1701.23
-0.00727176 -7.61524e-06 0 1708.21
-0.00678541 -7.61524e-06 0 1714.86
-0.00632507 -7.61524e-06 0 1721.31
-0.00588937 -7.61524e-06 0 1727.68
-0.00547703 -7.61524e-06 0 1734.13
-0.00508681 -7.61524e-06 0 1740.78
-0.00471753 -7.61524e-06 0 1747.74
-0.0043681 -7.61524e-06 0 1755.07
-0.00403746 -7.61524e-06 0 1762.84
-0.00372461 -7.61524e-06 0 1771.05
-0.0034286 -7.61524e-06 0 1779.82
-0.00314855 -7.61524e-06 0 1789.37
-0.00288361 -7.61524e-06 0 1799.21
-0.00263295 -7.61524e-06 0 1809.45
-0.00239582 -7.61524e-06 0 1820.14
-0.00217149 -7.61524e-06 0 1831.08
-0.00195929 -7.61524e-06 0 1842.14
-0.00175856 -7.61524e-06 0 1853.34
-0.00156869 -7.61524e-06 0 1864.46
-0.00138908 -7.61524e-06 0 1875.36
-0.00121921 -7.61524e-06 0 1885.75
-0.00105853 -7.61524e-06 0 1895.41
-0.000906546 -7.61524e-06 0 1904.05
-0.000762803 -7.61524e-06 0 1911.32
-0.000626849 -7.61524e-06 0 1916.94
-0.000498266 -7.61524e-06 0 1920.6
-0.000376656 -7.61524e-06 0 1922.26
-0.000261642 -7.61524e-06 0 1922.04
-0.00015287 -7.61524e-06 0 1921.57
-5e-05 -7.61524e-06 0 1921.01
4.14596e-05 2.03453e-05 0 1906.33
0.000125379 7.69412e-05 0 1907.93
0.000211356 0.000134924 0 1905.03
0.000299438 0.000194328 0 1901.73
0.000389678 0.000255186 0 1897.89
0.000482128 0.000317535 0 1893.93
0.000576841 0.000381409 0 1889.97
0.000673871 0.000446848 0 1886.15
0.000773276 0.000513887 0 1882.57
0.000875112 0.000582565 0 1879.35
0.000979439 0.000652924 0 1876.6
0.00108632 0.000725003 0 1874.39
0.00119581 0.000798843 0 1872.87
0.00130797 0.000874487 0 1871.91
0.00142287 0.000951979 0 1871.85
0.00154058 0.00103136 0 1872.64
0.00166117 0.00111268 0 1874.28
0.00178469 0.00119599 0 1876.78
0.00191123 0.00128133 0 1880.21
0.00204085 0.00136875 0 1884.56
0.00217364 0.0014583 0 1889.84
0.00230966 0.00155003 0 1896.06
0.00244899 0.001644 0 1903.14
0.00259171 0.00174025 0 1911.17
0.00273791 0.00183885 0 1920.11
0.00288767 0.00193985 0 1930
0.00304108 0.0020433 0 1940.77
0.0031982 0.00214927 0 1952.46
0.00335915 0.00225781 0 1965.06
0.003524 0.002369 0 1978.58
0.00369286 0.00248287 0 1993.04
0.00386582 0.00259951 0 2008.43
0.00404297 0.00271899 0 2024.79
0.00422442 0.00284136 0 2042.14
0.00441026 0.00296669 0 2060.5
0.0046006 0.00309506 0 2079.89
0.00479556 0.00322653 0 2100.37
0.00499523 0.00336119 0 2121.95
0.00519972 0.00349911 0 2144.71
0.00540916 0.00364036 0 2168.67
0.00562366 0.00378501 0 2193.92
0.00584334 0.00393316 0 2220.5
0.00606831 0.00408489 0 2248.5
0.00629871 0.00424027 0 2277.97
0.00653466 0.0043994 0 2309.01
0.00677629 0.00456236 0 2341.72
0.00702374 0.00472923 0 2376.16
0.00727714 0.00490013 0 2412.43
0.00753663 0.00507513 0 2450.66
0.00780234 0.00525433 0 2490.91
0.00807444 0.00543783 0 2533.32
0.00835306 0.00562573 0 2577.98
0.00863835 0.00581814 0 2624.97
0.00893047 0.00601514 0 2674.4
0.00922958 0.00621687 0 2726.31
0.00953584 0.00642341 0 2780.78
0.00984939 0.00663489 0 2837.79
0.0101705 0.00685141 0 2897.42
0.0104992 0.00707309 0 2959.57
0.0108357 0.00730005 0 3024.33
0.0111802 0.00753241 0 3091.96
0.011533 0.0077703 0 3163.05
0.0118941 0.00801384 0 3238.81
0.0122638 0.00826316 0 3320.69
0.0126422 0.00851837 0 3410.14
0.0130296 0.00877964 0 3508.55
0.0134262 0.00904708 0 3617.63
0.0138321 0.00932084 0 3740.05
0.0142476 0.00960107 0 3881.25
0.0146729 0.00988792 0 4049.76
0.0151082 0.0101815 0 4251.25
0.0155538 0.0104819 0 4479.66
0.0160098 0.0107895 0 4726.4
0.0164766 0.0111042 0 4989.26
0.0169542 0.0114263 0 5266.51
0.0174429 0.011756 0 5559.97
0.0179431 0.0120934 0 5872.15
0.018455 0.0124386 0 6206.09
0.0189789 0.0127918 0 6563.23
0.0195149 0.0131533 0 6947.62
0.0200633 0.0135232 0 7359.19
0.0206245 0.0139016 0 7798.25
0.0211986 0.0142888 0 8267.62
0.0217861 0.014685 0 8770.04
0.022387 0.0150903 0 9312.14
0.0230018 0.0155049 0 9899.56
0.0236307 0.0159291 0 10539.6
0.0242741 0.0163629 0 11230.1
0.0249322 0.0168068 0 11959.5
0.0256053 0.0172608 0 12731.7
0.0262939 0.0177251 0 13549
0.0269981 0.0182 0 14451.9
0.0277183 0.0186857 0 15421.5
0.0284548 0.0191825 0 16452.8
0.029208 0.0196904 0 17537.9
0.0299782 0.0202098 0 18659
0.0307658 0.0207409 0 19736.6
0.031571 0.021284 0 20691.8
0.0323942 0.0218393 0 21528.7
0.033236 0.0224069 0 22319.2
0.0340965 0.0229872 0 22976.1
0.0349762 0.0235805 0 23292
0.0358753 0.0241869 0 23259.9
0.0367944 0.0248067 0 22729.7
0.0377338 0.0254403 0 22010.1
0.0386938 0.0260877 0 21155.4
0.039675 0.0267494 0 20233.5
0.0406776 0.0274256 0 19317.7
0.0417021 0.0281165 0 18500.8
0.0427488 0.0288225 0 17788
0.0438183 0.0295437 0 17176.3
0.0449109 0.0302805 0 16657.9
0.046027 0.0310332 0 16205.8
0.0471671 0.0318021 0 15806.1
0.0483315 0.0325874 0 15456.1
0.0495209 0.0333895 0 15174.5
0.0507354 0.0342086 0 14962.5
0.0519756 0.035045 0 14817
0.053242 0.0358991 0 14724.2
0.054535 0.036771 0 14680.3
0.0558549 0.0376613 0 14666.7
0.0572024 0.03857 0 14667.5
0.0585778 0.0394976 0 14655.2
0.0599816 0.0404443 0 14643.9
0.0614142 0.0414105 0 14661.8
0.0628761 0.0423964 0 14706.7
0.0643678 0.0434024 0 14735
0.0658897 0.0444287 0 14707
0.0674422 0.0454758 0 14634.6
0.069026 0.0465439 0 14574.6
0.0706413 0.0476333 0 14558.9
0.0722886 0.0487443 0 14568.1
0.0739685 0.0498771 0 14586.4
0.0756813 0.0510323 0 14588.3
0.0774275 0.05221 0 14570.2
0.0792077 0.0534105 0 14542.2
0.0810221 0.0546342 0 14529.6
0.0828712 0.0558812 0 14521.6
0.0847556 0.0571521 0 14531.1
0.0866757 0.058447 0 14549.8
0.0886318 0.0597661 0 14558.4
0.0906244 0.06111 0 14550.1
0.0926539 0.0624787 0 14532
0.0947207 0.0638726 0 14514.9
0.0968252 0.0652919 0 14523.4
0.0989682 0.066737 0 14534.9
0.101149 0.068208 0 14531.4
0.103369 0.0697052 0 14516.4
0.105629 0.0712289 0 14488.4
0.107928 0.0727794 0 14473.9
0.110267 0.0743568 0 14462.1
0.112646 0.0759614 0 14466
0.115066 0.0775934 0 14481.9
0.117527 0.079253 0 14518.2
0.120029 0.0809404 0 14526.9
0.122572 0.0826558 0 14493.6
0.125158 0.0843994 0 14431.9
0.127785 0.0861713 0 14380.7
0.130454 0.0879717 0 14332.9
0.133167 0.0898008 0 14323.5
0.135921 0.0916586 0 14331.5
0.138719 0.0935453 0 14394.5
0.141559 0.095461 0 14450.5
0.144443 0.0974057 0 14473.9
0.14737 0.0993798 0 14467
0.15034 0.101383 0 14388.2
0.153354 0.103415 0 14322.1
0.156411 0.105477 0 14284.3
0.159511 0.107568 0 14245.5
0.162655 0.109688 0 14298.6
0.165842 0.111837 0 14356.9
0.169073 0.114016 0 14402.6
0.172346 0.116223 0 14429.9
0.175663 0.118461 0 14420.1
0.179022 0.120727 0 14321.3
0.182425 0.123021 0 14277
0.18587 0.125344 0 14287.6
0.189357 0.127696 0 14322
0.192886 0.130076 0 14341.8
0.196457 0.132484 0 14321.3
0.200069 0.13492 0 14298.7
0.203722 0.137384 0 14308.6
0.207416 0.139875 0 14321.7
0.21115 0.142393 0 14321.1
0.214924 0.144938 0 14288.7
0.218736 0.147509 0 14232.6
0.222587 0.150107 0 14208.6
0.226476 0.152729 0 14224.7
0.230403 0.155377 0 14237.7
0.234366 0.15805 0 14207.5
0.238366 0.160748 0 14148.6
0.242401 0.163469 0 14097.7
0.24647 0.166214 0 14082.1
0.250573 0.168981 0 14095.7
0.25471 0.17177 0 14095.3
0.258878 0.174582 0 14032.6
0.263078 0.177414 0 13997.5
0.267309 0.180266 0 13969.8
0.271568 0.183139 0 14037.4
0.275856 0.186031 0 14061.2
0.280172 0.188942 0 14069.6
0.284514 0.19187 0 13997.7
0.288881 0.194815 0 13943.8
0.293272 0.197777 0 13905.5
0.297687 0.200754 0 13893.3
0.302124 0.203746 0 13929.6
0.306581 0.206752 0 13939.7
0.311058 0.209772 0 13914
0.315554 0.212804 0 13891.6
0.320067 0.215847 0 13867.6
0.324595 0.218901 0 13934.7
0.329138 0.221965 0 13978.8
0.333695 0.225038 0 13992.3
0.338264 0.228119 0 13967.2
0.342843 0.231208 0 13897.2
0.347432 0.234302 0 13843.5
0.352029 0.237402 0 13819.1
0.356632 0.240507 0 13876.4
0.361241 0.243616 0 13930.5
0.365854 0.246727 0 13943
0.370469 0.249839 0 13926.2
0.375085 0.252953 0 13866.7
0.379702 0.256066 0 13821.7
0.384317 0.259178 0 13807.5
0.388929 0.262289 0 13864.3
0.393537 0.265396 0 13955.9
0.398139 0.2685 0 14025.4
0.402734 0.271598 0 14040
0.407321 0.274692 0 13975.7
0.411898 0.277779 0 13881.2
0.416464 0.280858 0 13790.8
0.421017 0.283929 0 13731.4
0.425557 0.286991 0 13766.7
0.430082 0.290042 0 13878.6
0.434591 0.293083 0 13976.2
0.439082 0.296112 0 14043.2
0.443555 0.299128 0 14044.2
0.448008 0.302131 0 13973.7
0.45244 0.30512 0 13858.8
0.456849 0.308094 0 13738.4
0.461235 0.311052 0 13677.7
0.465596 0.313993 0 13695.8
0.469932 0.316917 0 13806.9
0.474241 0.319823 0 13952.6
0.478523 0.322711 0 14081.2
0.482776 0.325579 0 14157.8
0.486999 0.328427 0 14154.3
0.491191 0.331254 0 14059.5
0.495353 0.334061 0 13905.8
