# wallHeatFlux  FACE_DATA 398
# x  y  z  wallHeatFlux
-0.7975 -7.61524e-06 0 -177986
-0.79239 -7.61524e-06 0 -35259.9
-0.787056 -7.61524e-06 0 -21454.3
-0.781492 -7.61524e-06 0 -17060.8
-0.775691 -7.61524e-06 0 -14341.4
-0.769649 -7.61524e-06 0 -12591.2
-0.763361 -7.61524e-06 0 -11390.9
-0.756822 -7.61524e-06 0 -10471
-0.750025 -7.61524e-06 0 -9768.97
-0.742968 -7.61524e-06 0 -9232
-0.735648 -7.61524e-06 0 -9343.49
-0.72806 -7.61524e-06 0 -9934.26
-0.720203 -7.61524e-06 0 -10978.8
-0.712075 -7.61524e-06 0 -11928.9
-0.703676 -7.61524e-06 0 -12592.2
-0.695006 -7.61524e-06 0 -13032.2
-0.686065 -7.61524e-06 0 -13328.6
-0.676855 -7.61524e-06 0 -13497.1
-0.667379 -7.61524e-06 0 -13580.3
-0.657641 -7.61524e-06 0 -13620.8
-0.647644 -7.61524e-06 0 -13618
-0.637398 -7.61524e-06 0 -13577.5
-0.626906 -7.61524e-06 0 -13515.9
-0.616179 -7.61524e-06 0 -13442.4
-0.605225 -7.61524e-06 0 -13358.3
-0.594054 -7.61524e-06 0 -13262.9
-0.582677 -7.61524e-06 0 -13172.1
-0.57111 -7.61524e-06 0 -13086.1
-0.559364 -7.61524e-06 0 -12994.6
-0.547454 -7.61524e-06 0 -12902.2
-0.535396 -7.61524e-06 0 -12814.8
-0.523205 -7.61524e-06 0 -12726.3
-0.510901 -7.61524e-06 0 -12643.3
-0.498499 -7.61524e-06 0 -12559.1
-0.486021 -7.61524e-06 0 -12485.3
-0.473482 -7.61524e-06 0 -12427
-0.460905 -7.61524e-06 0 -12362.7
-0.448307 -7.61524e-06 0 -12292.7
-0.435709 -7.61524e-06 0 -12216.9
-0.42313 -7.61524e-06 0 -12161.8
-0.41059 -7.61524e-06 0 -12117.2
-0.39811 -7.61524e-06 0 -12082.9
-0.385706 -7.61524e-06 0 -12026.5
-0.373398 -7.61524e-06 0 -11970.2
-0.361205 -7.61524e-06 0 -11908.3
-0.349142 -7.61524e-06 0 -11861.9
-0.337226 -7.61524e-06 0 -11826.2
-0.325475 -7.61524e-06 0 -11806.5
-0.313901 -7.61524e-06 0 -11781.3
-0.30252 -7.61524e-06 0 -11739.9
-0.291343 -7.61524e-06 0 -11682.6
-0.280381 -7.61524e-06 0 -11630.7
-0.269647 -7.61524e-06 0 -11573.2
-0.259148 -7.61524e-06 0 -11531.9
-0.248893 -7.61524e-06 0 -11501.9
-0.23889 -7.61524e-06 0 -11498.7
-0.229143 -7.61524e-06 0 -11490
-0.219659 -7.61524e-06 0 -11487.1
-0.210441 -7.61524e-06 0 -11478.8
-0.201491 -7.61524e-06 0 -11466
-0.192812 -7.61524e-06 0 -11452.6
-0.184405 -7.61524e-06 0 -11435
-0.176269 -7.61524e-06 0 -11406.2
-0.168404 -7.61524e-06 0 -11377.9
-0.160809 -7.61524e-06 0 -11344.3
-0.15348 -7.61524e-06 0 -11311.4
-0.146415 -7.61524e-06 0 -11278.8
-0.13961 -7.61524e-06 0 -11245.8
-0.133063 -7.61524e-06 0 -11218.7
-0.126767 -7.61524e-06 0 -11197.2
-0.120717 -7.61524e-06 0 -11181.1
-0.11491 -7.61524e-06 0 -11170.6
-0.109339 -7.61524e-06 0 -11154.9
-0.103997 -7.61524e-06 0 -11155
-0.0988804 -7.61524e-06 0 -11150.9
-0.0939809 -7.61524e-06 0 -11151.4
-0.0892928 -7.61524e-06 0 -11152.3
-0.0848096 -7.61524e-06 0 -11153.2
-0.0805248 -7.61524e-06 0 -11154.2
-0.0764317 -7.61524e-06 0 -11150
-0.0725237 -7.61524e-06 0 -11151.1
-0.0687943 -7.61524e-06 0 -11152.4
-0.065237 -7.61524e-06 0 -11158.9
-0.0618454 -7.61524e-06 0 -11112.2
-0.058613 -7.61524e-06 0 -10685.1
-0.0555337 -7.61524e-06 0 -9096.42
-0.0526013 -7.61524e-06 0 -6543.34
-0.0498099 -7.61524e-06 0 -4498.44
-0.0471536 -7.61524e-06 0 -3888.43
-0.0446266 -7.61524e-06 0 -4199.61
-0.0422235 -7.61524e-06 0 -4837.66
-0.0399389 -7.61524e-06 0 -5609.83
-0.0377676 -7.61524e-06 0 -6408.94
-0.0357044 -7.61524e-06 0 -7154.82
-0.0337445 -7.61524e-06 0 -7847.11
-0.0318832 -7.61524e-06 0 -8496.76
-0.0301159 -7.61524e-06 0 -9098.31
-0.0284383 -7.61524e-06 0 -9651.75
-0.0268462 -7.61524e-06 0 -10157.1
-0.0253353 -7.61524e-06 0 -10630.3
-0.023902 -7.61524e-06 0 -11050.1
-0.0225425 -7.61524e-06 0 -11437.6
-0.0212532 -7.61524e-06 0 -11782.8
-0.0200306 -7.61524e-06 0 -12106.1
-0.0188715 -7.61524e-06 0 -12397.5
-0.0177727 -7.61524e-06 0 -12678.3
-0.0167313 -7.61524e-06 0 -12937.7
-0.0157444 -7.61524e-06 0 -13181.1
-0.0148093 -7.61524e-06 0 -13419
-0.0139232 -7.61524e-06 0 -13647
-0.0130838 -7.61524e-06 0 -13868.7
-0.0122887 -7.61524e-06 0 -14081
-0.0115355 -7.61524e-06 0 -14292.5
-0.0108223 -7.61524e-06 0 -14493.8
-0.0101469 -7.61524e-06 0 -14695.2
-0.00950727 -7.61524e-06 0 -14896.9
-0.00890169 -7.61524e-06 0 -15093.4
-0.00832834 -7.61524e-06 0 -15295.6
-0.00778557 -7.61524e-06 0 -15503.5
-0.00727176 -7.61524e-06 0 -15722.5
-0.00678541 -7.61524e-06 0 -15952.5
-0.00632507 -7.61524e-06 0 -16194
-0.00588937 -7.61524e-06 0 -16446.7
-0.00547703 -7.61524e-06 0 -16721.5
-0.00508681 -7.61524e-06 0 -17013.4
-0.00471753 -7.61524e-06 0 -17322.4
-0.0043681 -7.61524e-06 0 -17643.1
-0.00403746 -7.61524e-06 0 -17981.4
-0.00372461 -7.61524e-06 0 -18332.2
-0.0034286 -7.61524e-06 0 -18684.9
-0.00314855 -7.61524e-06 0 -19039.8
-0.00288361 -7.61524e-06 0 -19387.1
-0.00263295 -7.61524e-06 0 -19726.9
-0.00239582 -7.61524e-06 0 -20049.7
-0.00217149 -7.61524e-06 0 -20345.4
-0.00195929 -7.61524e-06 0 -20615.6
-0.00175856 -7.61524e-06 0 -20856.4
-0.00156869 -7.61524e-06 0 -21015.3
-0.00138908 -7.61524e-06 0 -21084.1
-0.00121921 -7.61524e-06 0 -21042.8
-0.00105853 -7.61524e-06 0 -20856.9
-0.000906546 -7.61524e-06 0 -20489.4
-0.000762803 -7.61524e-06 0 -19891.7
-0.000626849 -7.61524e-06 0 -19017
-0.000498266 -7.61524e-06 0 -17811.1
-0.000376656 -7.61524e-06 0 -16223.5
-0.000261642 -7.61524e-06 0 -14219.2
-0.00015287 -7.61524e-06 0 -11665
-5e-05 -7.61524e-06 0 -8078.75
4.14596e-05 2.03453e-05 0 -7795.41
0.000125379 7.69412e-05 0 -9947.25
0.000211356 0.000134924 0 -11210.3
0.000299438 0.000194328 0 -12252.2
0.000389678 0.000255186 0 -13205.9
0.000482128 0.000317535 0 -14115.9
0.000576841 0.000381409 0 -14999.3
0.000673871 0.000446848 0 -15850.9
0.000773276 0.000513887 0 -16681.5
0.000875112 0.000582565 0 -17475.1
0.000979439 0.000652924 0 -18242.3
0.00108632 0.000725003 0 -18977.6
0.00119581 0.000798843 0 -19676.1
0.00130797 0.000874487 0 -20340.3
0.00142287 0.000951979 0 -20979.8
0.00154058 0.00103136 0 -21584.2
0.00166117 0.00111268 0 -22166.8
0.00178469 0.00119599 0 -22721.8
0.00191123 0.00128133 0 -23251.3
0.00204085 0.00136875 0 -23767.9
0.00217364 0.0014583 0 -24268.7
0.00230966 0.00155003 0 -24755
0.00244899 0.001644 0 -25226.6
0.00259171 0.00174025 0 -25695
0.00273791 0.00183885 0 -26156.5
0.00288767 0.00193985 0 -26615.9
0.00304108 0.0020433 0 -27074.1
0.0031982 0.00214927 0 -27533.6
0.00335915 0.00225781 0 -28002.5
0.003524 0.002369 0 -28471.5
0.00369286 0.00248287 0 -28948.7
0.00386582 0.00259951 0 -29439.1
0.00404297 0.00271899 0 -29942.6
0.00422442 0.00284136 0 -30460
0.00441026 0.00296669 0 -30991.7
0.0046006 0.00309506 0 -31542
0.00479556 0.00322653 0 -32112.8
0.00499523 0.00336119 0 -32706.7
0.00519972 0.00349911 0 -33328.4
0.00540916 0.00364036 0 -33971.4
0.00562366 0.00378501 0 -34646.2
0.00584334 0.00393316 0 -35358.3
0.00606831 0.00408489 0 -36102.2
0.00629871 0.00424027 0 -36878
0.00653466 0.0043994 0 -37696.3
0.00677629 0.00456236 0 -38562.3
0.00702374 0.00472923 0 -39465
0.00727714 0.00490013 0 -40420.7
0.00753663 0.00507513 0 -41424.8
0.00780234 0.00525433 0 -42475.6
0.00807444 0.00543783 0 -43580.7
0.00835306 0.00562573 0 -44735.1
0.00863835 0.00581814 0 -45941.4
0.00893047 0.00601514 0 -47183.3
0.00922958 0.00621687 0 -48463
0.00953584 0.00642341 0 -49760.6
0.00984939 0.00663489 0 -51073
0.0101705 0.00685141 0 -52361.6
0.0104992 0.00707309 0 -53621.9
0.0108357 0.00730005 0 -54869.5
0.0111802 0.00753241 0 -56135.7
0.011533 0.0077703 0 -57477.9
0.0118941 0.00801384 0 -59028.6
0.0122638 0.00826316 0 -60849
0.0126422 0.00851837 0 -62989.3
0.0130296 0.00877964 0 -65470.4
0.0134262 0.00904708 0 -68256.4
0.0138321 0.00932084 0 -71327
0.0142476 0.00960107 0 -74696.5
0.0146729 0.00988792 0 -78418.7
0.0151082 0.0101815 0 -82400.8
0.0155538 0.0104819 0 -86281.8
0.0160098 0.0107895 0 -90158.5
0.0164766 0.0111042 0 -94218.5
0.0169542 0.0114263 0 -98518
0.0174429 0.011756 0 -103186
0.0179431 0.0120934 0 -108260
0.018455 0.0124386 0 -113673
0.0189789 0.0127918 0 -119458
0.0195149 0.0131533 0 -125797
0.0200633 0.0135232 0 -132715
0.0206245 0.0139016 0 -140233
0.0211986 0.0142888 0 -148164
0.0217861 0.014685 0 -156741
0.022387 0.0150903 0 -165743
0.0230018 0.0155049 0 -175394
0.0236307 0.0159291 0 -185880
0.0242741 0.0163629 0 -197239
0.0249322 0.0168068 0 -209653
0.0256053 0.0172608 0 -223632
0.0262939 0.0177251 0 -238627
0.0269981 0.0182 0 -255082
0.0277183 0.0186857 0 -273272
0.0284548 0.0191825 0 -292137
0.029208 0.0196904 0 -312813
0.0299782 0.0202098 0 -334888
0.0307658 0.0207409 0 -357751
0.031571 0.021284 0 -378512
0.0323942 0.0218393 0 -396785
0.033236 0.0224069 0 -412702
0.0340965 0.0229872 0 -423476
0.0349762 0.0235805 0 -424560
0.0358753 0.0241869 0 -417418
0.0367944 0.0248067 0 -396213
0.0377338 0.0254403 0 -374521
0.0386938 0.0260877 0 -350508
0.039675 0.0267494 0 -326742
0.0406776 0.0274256 0 -306104
0.0417021 0.0281165 0 -286719
0.0427488 0.0288225 0 -271247
0.0438183 0.0295437 0 -259190
0.0449109 0.0302805 0 -249214
0.046027 0.0310332 0 -240989
0.0471671 0.0318021 0 -234209
0.0483315 0.0325874 0 -228524
0.0495209 0.0333895 0 -223634
0.0507354 0.0342086 0 -220067
0.0519756 0.035045 0 -217928
0.053242 0.0358991 0 -216542
0.054535 0.036771 0 -215557
0.0558549 0.0376613 0 -215108
0.0572024 0.03857 0 -214389
0.0585778 0.0394976 0 -212581
0.0599816 0.0404443 0 -210612
0.0614142 0.0414105 0 -209556
0.0628761 0.0423964 0 -210004
0.0643678 0.0434024 0 -210446
0.0658897 0.0444287 0 -208997
0.0674422 0.0454758 0 -205779
0.069026 0.0465439 0 -201757
0.0706413 0.0476333 0 -199765
0.0722886 0.0487443 0 -198194
0.0739685 0.0498771 0 -197677
0.0756813 0.0510323 0 -197238
0.0774275 0.05221 0 -196045
0.0792077 0.0534105 0 -194469
0.0810221 0.0546342 0 -192232
0.0828712 0.0558812 0 -190217
0.0847556 0.0571521 0 -188682
0.0866757 0.058447 0 -187928
0.0886318 0.0597661 0 -187041
0.0906244 0.06111 0 -185704
0.0926539 0.0624787 0 -184081
0.0947207 0.0638726 0 -182684
0.0968252 0.0652919 0 -181439
0.0989682 0.066737 0 -179105
0.101149 0.068208 0 -177399
0.103369 0.0697052 0 -175129
0.105629 0.0712289 0 -175162
0.107928 0.0727794 0 -172400
0.110267 0.0743568 0 -171816
0.112646 0.0759614 0 -169427
0.115066 0.0775934 0 -171359
0.117527 0.079253 0 -168740
0.120029 0.0809404 0 -168141
0.122572 0.0826558 0 -166292
0.125158 0.0843994 0 -164114
0.127785 0.0861713 0 -163201
0.130454 0.0879717 0 -161711
0.133167 0.0898008 0 -160202
0.135921 0.0916586 0 -159147
0.138719 0.0935453 0 -159084
0.141559 0.095461 0 -160039
0.144443 0.0974057 0 -157121
0.14737 0.0993798 0 -154068
0.15034 0.101383 0 -153568
0.153354 0.103415 0 -151696
0.156411 0.105477 0 -149476
0.159511 0.107568 0 -150015
0.162655 0.109688 0 -147113
0.165842 0.111837 0 -148067
0.169073 0.114016 0 -152115
0.172346 0.116223 0 -146883
0.175663 0.118461 0 -145603
0.179022 0.120727 0 -149919
0.182425 0.123021 0 -142732
0.18587 0.125344 0 -140410
0.189357 0.127696 0 -141378
0.192886 0.130076 0 -141516
0.196457 0.132484 0 -143528
0.200069 0.13492 0 -141915
0.203722 0.137384 0 -138049
0.207416 0.139875 0 -137723
0.21115 0.142393 0 -138670
0.214924 0.144938 0 -136901
0.218736 0.147509 0 -136880
0.222587 0.150107 0 -133355
0.226476 0.152729 0 -133158
0.230403 0.155377 0 -133010
0.234366 0.15805 0 -132199
0.238366 0.160748 0 -130278
0.242401 0.163469 0 -132887
0.24647 0.166214 0 -130988
0.250573 0.168981 0 -128498
0.25471 0.17177 0 -127688
0.258878 0.174582 0 -128251
0.263078 0.177414 0 -126289
0.267309 0.180266 0 -133427
0.271568 0.183139 0 -124398
0.275856 0.186031 0 -124807
0.280172 0.188942 0 -125081
0.284514 0.19187 0 -131408
0.288881 0.194815 0 -125219
0.293272 0.197777 0 -121587
0.297687 0.200754 0 -128469
0.302124 0.203746 0 -121160
0.306581 0.206752 0 -121032
0.311058 0.209772 0 -120230
0.315554 0.212804 0 -120666
0.320067 0.215847 0 -129027
0.324595 0.218901 0 -119992
0.329138 0.221965 0 -119799
0.333695 0.225038 0 -119193
0.338264 0.228119 0 -118256
0.342843 0.231208 0 -117989
0.347432 0.234302 0 -116660
0.352029 0.237402 0 -118005
0.356632 0.240507 0 -116956
0.361241 0.243616 0 -115862
0.365854 0.246727 0 -116305
0.370469 0.249839 0 -118258
0.375085 0.252953 0 -118945
0.379702 0.256066 0 -115747
0.384317 0.259178 0 -115507
0.388929 0.262289 0 -115294
0.393537 0.265396 0 -114334
0.398139 0.2685 0 -115317
0.402734 0.271598 0 -115431
0.407321 0.274692 0 -113227
0.411898 0.277779 0 -112460
0.416464 0.280858 0 -112199
0.421017 0.283929 0 -112714
0.425557 0.286991 0 -115408
0.430082 0.290042 0 -114406
0.434591 0.293083 0 -119471
0.439082 0.296112 0 -111056
0.443555 0.299128 0 -116555
0.448008 0.302131 0 -112875
0.45244 0.30512 0 -111781
0.456849 0.308094 0 -121736
0.461235 0.311052 0 -115358
0.465596 0.313993 0 -114226
0.469932 0.316917 0 -108365
0.474241 0.319823 0 -110433
0.478523 0.322711 0 -111262
0.482776 0.325579 0 -110633
0.486999 0.328427 0 -112142
0.491191 0.331254 0 -121357
0.495353 0.334061 0 -103139
