# Force       
# CofR        : (0.000000e+00 0.000000e+00 0.000000e+00)
#
# Time        	(total_x total_y total_z)	(pressure_x pressure_y pressure_z)	(viscous_x viscous_y viscous_z)
702           	(1.192410e+00 -6.434152e+01 0.000000e+00)	(0.000000e+00 -6.435669e+01 0.000000e+00)	(1.192410e+00 1.516420e-02 0.000000e+00)
703           	(1.187899e+00 -6.424972e+01 0.000000e+00)	(0.000000e+00 -6.426976e+01 0.000000e+00)	(1.187899e+00 2.004721e-02 0.000000e+00)
704           	(1.188065e+00 -6.419363e+01 0.000000e+00)	(0.000000e+00 -6.420870e+01 0.000000e+00)	(1.188065e+00 1.506954e-02 0.000000e+00)
705           	(1.192453e+00 -6.418853e+01 0.000000e+00)	(0.000000e+00 -6.419494e+01 0.000000e+00)	(1.192453e+00 6.413406e-03 0.000000e+00)
706           	(1.200355e+00 -6.422743e+01 0.000000e+00)	(0.000000e+00 -6.422651e+01 0.000000e+00)	(1.200355e+00 -9.135903e-04 0.000000e+00)
707           	(1.207754e+00 -6.428536e+01 0.000000e+00)	(0.000000e+00 -6.428200e+01 0.000000e+00)	(1.207754e+00 -3.362965e-03 0.000000e+00)
708           	(1.213595e+00 -6.433873e+01 0.000000e+00)	(0.000000e+00 -6.433557e+01 0.000000e+00)	(1.213595e+00 -3.166343e-03 0.000000e+00)
709           	(1.217687e+00 -6.437640e+01 0.000000e+00)	(0.000000e+00 -6.437493e+01 0.000000e+00)	(1.217687e+00 -1.469181e-03 0.000000e+00)
710           	(1.220335e+00 -6.440048e+01 0.000000e+00)	(0.000000e+00 -6.440050e+01 0.000000e+00)	(1.220335e+00 2.798628e-05 0.000000e+00)
711           	(1.222052e+00 -6.441667e+01 0.000000e+00)	(0.000000e+00 -6.441742e+01 0.000000e+00)	(1.222052e+00 7.457820e-04 0.000000e+00)
712           	(1.223274e+00 -6.442849e+01 0.000000e+00)	(0.000000e+00 -6.442953e+01 0.000000e+00)	(1.223274e+00 1.037925e-03 0.000000e+00)
713           	(1.224293e+00 -6.443683e+01 0.000000e+00)	(0.000000e+00 -6.443811e+01 0.000000e+00)	(1.224293e+00 1.272463e-03 0.000000e+00)
714           	(1.225280e+00 -6.444251e+01 0.000000e+00)	(0.000000e+00 -6.444397e+01 0.000000e+00)	(1.225280e+00 1.460968e-03 0.000000e+00)
715           	(1.226334e+00 -6.444697e+01 0.000000e+00)	(0.000000e+00 -6.444845e+01 0.000000e+00)	(1.226334e+00 1.483659e-03 0.000000e+00)
716           	(1.227494e+00 -6.445151e+01 0.000000e+00)	(0.000000e+00 -6.445284e+01 0.000000e+00)	(1.227494e+00 1.337107e-03 0.000000e+00)
717           	(1.228757e+00 -6.445655e+01 0.000000e+00)	(0.000000e+00 -6.445767e+01 0.000000e+00)	(1.228757e+00 1.128691e-03 0.000000e+00)
718           	(1.230096e+00 -6.446189e+01 0.000000e+00)	(0.000000e+00 -6.446284e+01 0.000000e+00)	(1.230096e+00 9.492747e-04 0.000000e+00)
719           	(1.231477e+00 -6.446723e+01 0.000000e+00)	(0.000000e+00 -6.446805e+01 0.000000e+00)	(1.231477e+00 8.160937e-04 0.000000e+00)
720           	(1.232874e+00 -6.447246e+01 0.000000e+00)	(0.000000e+00 -6.447316e+01 0.000000e+00)	(1.232874e+00 7.067135e-04 0.000000e+00)
721           	(1.234271e+00 -6.447751e+01 0.000000e+00)	(0.000000e+00 -6.447812e+01 0.000000e+00)	(1.234271e+00 6.062343e-04 0.000000e+00)
722           	(1.235656e+00 -6.448233e+01 0.000000e+00)	(0.000000e+00 -6.448285e+01 0.000000e+00)	(1.235656e+00 5.173355e-04 0.000000e+00)
723           	(1.237023e+00 -6.448683e+01 0.000000e+00)	(0.000000e+00 -6.448728e+01 0.000000e+00)	(1.237023e+00 4.454381e-04 0.000000e+00)
724           	(1.238370e+00 -6.449095e+01 0.000000e+00)	(0.000000e+00 -6.449134e+01 0.000000e+00)	(1.238370e+00 3.881765e-04 0.000000e+00)
725           	(1.239697e+00 -6.449469e+01 0.000000e+00)	(0.000000e+00 -6.449502e+01 0.000000e+00)	(1.239697e+00 3.383087e-04 0.000000e+00)
726           	(1.241008e+00 -6.449806e+01 0.000000e+00)	(0.000000e+00 -6.449835e+01 0.000000e+00)	(1.241008e+00 2.904064e-04 0.000000e+00)
727           	(1.242304e+00 -6.450111e+01 0.000000e+00)	(0.000000e+00 -6.450135e+01 0.000000e+00)	(1.242304e+00 2.432127e-04 0.000000e+00)
728           	(1.243589e+00 -6.450386e+01 0.000000e+00)	(0.000000e+00 -6.450406e+01 0.000000e+00)	(1.243589e+00 1.972655e-04 0.000000e+00)
729           	(1.244864e+00 -6.450636e+01 0.000000e+00)	(0.000000e+00 -6.450651e+01 0.000000e+00)	(1.244864e+00 1.526924e-04 0.000000e+00)
730           	(1.246130e+00 -6.450862e+01 0.000000e+00)	(0.000000e+00 -6.450873e+01 0.000000e+00)	(1.246130e+00 1.092399e-04 0.000000e+00)
731           	(1.247390e+00 -6.451069e+01 0.000000e+00)	(0.000000e+00 -6.451076e+01 0.000000e+00)	(1.247390e+00 6.650794e-05 0.000000e+00)
732           	(1.248643e+00 -6.451258e+01 0.000000e+00)	(0.000000e+00 -6.451260e+01 0.000000e+00)	(1.248643e+00 2.447689e-05 0.000000e+00)
733           	(1.249889e+00 -6.451432e+01 0.000000e+00)	(0.000000e+00 -6.451430e+01 0.000000e+00)	(1.249889e+00 -1.643477e-05 0.000000e+00)
734           	(1.251128e+00 -6.451593e+01 0.000000e+00)	(0.000000e+00 -6.451587e+01 0.000000e+00)	(1.251128e+00 -5.581361e-05 0.000000e+00)
735           	(1.252360e+00 -6.451742e+01 0.000000e+00)	(0.000000e+00 -6.451733e+01 0.000000e+00)	(1.252360e+00 -9.348156e-05 0.000000e+00)
736           	(1.253584e+00 -6.451881e+01 0.000000e+00)	(0.000000e+00 -6.451868e+01 0.000000e+00)	(1.253584e+00 -1.292891e-04 0.000000e+00)
737           	(1.254800e+00 -6.452010e+01 0.000000e+00)	(0.000000e+00 -6.451994e+01 0.000000e+00)	(1.254800e+00 -1.631895e-04 0.000000e+00)
738           	(1.256007e+00 -6.452132e+01 0.000000e+00)	(0.000000e+00 -6.452112e+01 0.000000e+00)	(1.256007e+00 -1.951666e-04 0.000000e+00)
739           	(1.257205e+00 -6.452245e+01 0.000000e+00)	(0.000000e+00 -6.452222e+01 0.000000e+00)	(1.257205e+00 -2.249272e-04 0.000000e+00)
740           	(1.258392e+00 -6.452351e+01 0.000000e+00)	(0.000000e+00 -6.452326e+01 0.000000e+00)	(1.258392e+00 -2.525582e-04 0.000000e+00)
741           	(1.259568e+00 -6.452451e+01 0.000000e+00)	(0.000000e+00 -6.452423e+01 0.000000e+00)	(1.259568e+00 -2.783911e-04 0.000000e+00)
742           	(1.260734e+00 -6.452544e+01 0.000000e+00)	(0.000000e+00 -6.452514e+01 0.000000e+00)	(1.260734e+00 -3.021866e-04 0.000000e+00)
743           	(1.261887e+00 -6.452632e+01 0.000000e+00)	(0.000000e+00 -6.452600e+01 0.000000e+00)	(1.261887e+00 -3.235471e-04 0.000000e+00)
744           	(1.263027e+00 -6.452713e+01 0.000000e+00)	(0.000000e+00 -6.452679e+01 0.000000e+00)	(1.263027e+00 -3.424984e-04 0.000000e+00)
745           	(1.264154e+00 -6.452788e+01 0.000000e+00)	(0.000000e+00 -6.452752e+01 0.000000e+00)	(1.264154e+00 -3.591028e-04 0.000000e+00)
746           	(1.265267e+00 -6.452857e+01 0.000000e+00)	(0.000000e+00 -6.452820e+01 0.000000e+00)	(1.265267e+00 -3.735827e-04 0.000000e+00)
747           	(1.266366e+00 -6.452920e+01 0.000000e+00)	(0.000000e+00 -6.452881e+01 0.000000e+00)	(1.266366e+00 -3.861096e-04 0.000000e+00)
748           	(1.267450e+00 -6.452976e+01 0.000000e+00)	(0.000000e+00 -6.452936e+01 0.000000e+00)	(1.267450e+00 -3.970118e-04 0.000000e+00)
749           	(1.268520e+00 -6.453027e+01 0.000000e+00)	(0.000000e+00 -6.452986e+01 0.000000e+00)	(1.268520e+00 -4.063878e-04 0.000000e+00)
750           	(1.269574e+00 -6.453072e+01 0.000000e+00)	(0.000000e+00 -6.453031e+01 0.000000e+00)	(1.269574e+00 -4.143683e-04 0.000000e+00)
751           	(1.270614e+00 -6.453112e+01 0.000000e+00)	(0.000000e+00 -6.453070e+01 0.000000e+00)	(1.270614e+00 -4.209729e-04 0.000000e+00)
752           	(1.271639e+00 -6.453148e+01 0.000000e+00)	(0.000000e+00 -6.453105e+01 0.000000e+00)	(1.271639e+00 -4.263250e-04 0.000000e+00)
753           	(1.272648e+00 -6.453178e+01 0.000000e+00)	(0.000000e+00 -6.453135e+01 0.000000e+00)	(1.272648e+00 -4.301759e-04 0.000000e+00)
754           	(1.273642e+00 -6.453204e+01 0.000000e+00)	(0.000000e+00 -6.453160e+01 0.000000e+00)	(1.273642e+00 -4.325439e-04 0.000000e+00)
755           	(1.274620e+00 -6.453225e+01 0.000000e+00)	(0.000000e+00 -6.453181e+01 0.000000e+00)	(1.274620e+00 -4.337485e-04 0.000000e+00)
756           	(1.275583e+00 -6.453241e+01 0.000000e+00)	(0.000000e+00 -6.453198e+01 0.000000e+00)	(1.275583e+00 -4.338406e-04 0.000000e+00)
757           	(1.276530e+00 -6.453253e+01 0.000000e+00)	(0.000000e+00 -6.453210e+01 0.000000e+00)	(1.276530e+00 -4.332040e-04 0.000000e+00)
758           	(1.277461e+00 -6.453262e+01 0.000000e+00)	(0.000000e+00 -6.453219e+01 0.000000e+00)	(1.277461e+00 -4.315414e-04 0.000000e+00)
759           	(1.278376e+00 -6.453267e+01 0.000000e+00)	(0.000000e+00 -6.453224e+01 0.000000e+00)	(1.278376e+00 -4.288282e-04 0.000000e+00)
760           	(1.279276e+00 -6.453268e+01 0.000000e+00)	(0.000000e+00 -6.453226e+01 0.000000e+00)	(1.279276e+00 -4.250070e-04 0.000000e+00)
761           	(1.280159e+00 -6.453266e+01 0.000000e+00)	(0.000000e+00 -6.453224e+01 0.000000e+00)	(1.280159e+00 -4.204190e-04 0.000000e+00)
762           	(1.281026e+00 -6.453261e+01 0.000000e+00)	(0.000000e+00 -6.453219e+01 0.000000e+00)	(1.281026e+00 -4.151213e-04 0.000000e+00)
763           	(1.281878e+00 -6.453252e+01 0.000000e+00)	(0.000000e+00 -6.453211e+01 0.000000e+00)	(1.281878e+00 -4.090173e-04 0.000000e+00)
764           	(1.282714e+00 -6.453241e+01 0.000000e+00)	(0.000000e+00 -6.453201e+01 0.000000e+00)	(1.282714e+00 -4.023794e-04 0.000000e+00)
765           	(1.283534e+00 -6.453227e+01 0.000000e+00)	(0.000000e+00 -6.453187e+01 0.000000e+00)	(1.283534e+00 -3.949793e-04 0.000000e+00)
766           	(1.284338e+00 -6.453210e+01 0.000000e+00)	(0.000000e+00 -6.453171e+01 0.000000e+00)	(1.284338e+00 -3.867185e-04 0.000000e+00)
767           	(1.285127e+00 -6.453191e+01 0.000000e+00)	(0.000000e+00 -6.453153e+01 0.000000e+00)	(1.285127e+00 -3.777702e-04 0.000000e+00)
768           	(1.285899e+00 -6.453169e+01 0.000000e+00)	(0.000000e+00 -6.453132e+01 0.000000e+00)	(1.285899e+00 -3.684933e-04 0.000000e+00)
769           	(1.286656e+00 -6.453145e+01 0.000000e+00)	(0.000000e+00 -6.453109e+01 0.000000e+00)	(1.286656e+00 -3.587780e-04 0.000000e+00)
770           	(1.287397e+00 -6.453119e+01 0.000000e+00)	(0.000000e+00 -6.453084e+01 0.000000e+00)	(1.287397e+00 -3.484746e-04 0.000000e+00)
771           	(1.288123e+00 -6.453091e+01 0.000000e+00)	(0.000000e+00 -6.453057e+01 0.000000e+00)	(1.288123e+00 -3.376217e-04 0.000000e+00)
772           	(1.288833e+00 -6.453061e+01 0.000000e+00)	(0.000000e+00 -6.453028e+01 0.000000e+00)	(1.288833e+00 -3.263281e-04 0.000000e+00)
773           	(1.289528e+00 -6.453030e+01 0.000000e+00)	(0.000000e+00 -6.452998e+01 0.000000e+00)	(1.289528e+00 -3.146140e-04 0.000000e+00)
774           	(1.290208e+00 -6.452997e+01 0.000000e+00)	(0.000000e+00 -6.452966e+01 0.000000e+00)	(1.290208e+00 -3.024518e-04 0.000000e+00)
775           	(1.290873e+00 -6.452962e+01 0.000000e+00)	(0.000000e+00 -6.452933e+01 0.000000e+00)	(1.290873e+00 -2.897892e-04 0.000000e+00)
776           	(1.291522e+00 -6.452926e+01 0.000000e+00)	(0.000000e+00 -6.452898e+01 0.000000e+00)	(1.291522e+00 -2.767727e-04 0.000000e+00)
777           	(1.292157e+00 -6.452888e+01 0.000000e+00)	(0.000000e+00 -6.452862e+01 0.000000e+00)	(1.292157e+00 -2.632970e-04 0.000000e+00)
778           	(1.292777e+00 -6.452849e+01 0.000000e+00)	(0.000000e+00 -6.452824e+01 0.000000e+00)	(1.292777e+00 -2.496502e-04 0.000000e+00)
779           	(1.293382e+00 -6.452809e+01 0.000000e+00)	(0.000000e+00 -6.452786e+01 0.000000e+00)	(1.293382e+00 -2.357142e-04 0.000000e+00)
780           	(1.293973e+00 -6.452768e+01 0.000000e+00)	(0.000000e+00 -6.452746e+01 0.000000e+00)	(1.293973e+00 -2.215720e-04 0.000000e+00)
781           	(1.294549e+00 -6.452726e+01 0.000000e+00)	(0.000000e+00 -6.452705e+01 0.000000e+00)	(1.294549e+00 -2.071266e-04 0.000000e+00)
782           	(1.295112e+00 -6.452683e+01 0.000000e+00)	(0.000000e+00 -6.452663e+01 0.000000e+00)	(1.295112e+00 -1.920531e-04 0.000000e+00)
783           	(1.295661e+00 -6.452639e+01 0.000000e+00)	(0.000000e+00 -6.452621e+01 0.000000e+00)	(1.295661e+00 -1.768474e-04 0.000000e+00)
784           	(1.296195e+00 -6.452594e+01 0.000000e+00)	(0.000000e+00 -6.452578e+01 0.000000e+00)	(1.296195e+00 -1.617131e-04 0.000000e+00)
785           	(1.296716e+00 -6.452548e+01 0.000000e+00)	(0.000000e+00 -6.452533e+01 0.000000e+00)	(1.296716e+00 -1.465152e-04 0.000000e+00)
786           	(1.297224e+00 -6.452502e+01 0.000000e+00)	(0.000000e+00 -6.452489e+01 0.000000e+00)	(1.297224e+00 -1.311115e-04 0.000000e+00)
787           	(1.297718e+00 -6.452455e+01 0.000000e+00)	(0.000000e+00 -6.452443e+01 0.000000e+00)	(1.297718e+00 -1.154146e-04 0.000000e+00)
788           	(1.298199e+00 -6.452407e+01 0.000000e+00)	(0.000000e+00 -6.452397e+01 0.000000e+00)	(1.298199e+00 -9.944248e-05 0.000000e+00)
789           	(1.298667e+00 -6.452359e+01 0.000000e+00)	(0.000000e+00 -6.452351e+01 0.000000e+00)	(1.298667e+00 -8.333007e-05 0.000000e+00)
790           	(1.299123e+00 -6.452311e+01 0.000000e+00)	(0.000000e+00 -6.452304e+01 0.000000e+00)	(1.299123e+00 -6.711513e-05 0.000000e+00)
791           	(1.299567e+00 -6.452262e+01 0.000000e+00)	(0.000000e+00 -6.452257e+01 0.000000e+00)	(1.299567e+00 -5.078310e-05 0.000000e+00)
792           	(1.299997e+00 -6.452212e+01 0.000000e+00)	(0.000000e+00 -6.452209e+01 0.000000e+00)	(1.299997e+00 -3.452028e-05 0.000000e+00)
793           	(1.300416e+00 -6.452163e+01 0.000000e+00)	(0.000000e+00 -6.452161e+01 0.000000e+00)	(1.300416e+00 -1.808635e-05 0.000000e+00)
794           	(1.300824e+00 -6.452113e+01 0.000000e+00)	(0.000000e+00 -6.452113e+01 0.000000e+00)	(1.300824e+00 -1.287628e-06 0.000000e+00)
795           	(1.301219e+00 -6.452062e+01 0.000000e+00)	(0.000000e+00 -6.452064e+01 0.000000e+00)	(1.301219e+00 1.572907e-05 0.000000e+00)
796           	(1.301603e+00 -6.452012e+01 0.000000e+00)	(0.000000e+00 -6.452015e+01 0.000000e+00)	(1.301603e+00 3.257991e-05 0.000000e+00)
797           	(1.301976e+00 -6.451961e+01 0.000000e+00)	(0.000000e+00 -6.451966e+01 0.000000e+00)	(1.301976e+00 4.939286e-05 0.000000e+00)
798           	(1.302337e+00 -6.451910e+01 0.000000e+00)	(0.000000e+00 -6.451916e+01 0.000000e+00)	(1.302337e+00 6.620853e-05 0.000000e+00)
799           	(1.302689e+00 -6.451859e+01 0.000000e+00)	(0.000000e+00 -6.451867e+01 0.000000e+00)	(1.302689e+00 8.310277e-05 0.000000e+00)
800           	(1.303029e+00 -6.451807e+01 0.000000e+00)	(0.000000e+00 -6.451817e+01 0.000000e+00)	(1.303029e+00 1.000941e-04 0.000000e+00)
801           	(1.303359e+00 -6.451756e+01 0.000000e+00)	(0.000000e+00 -6.451768e+01 0.000000e+00)	(1.303359e+00 1.171804e-04 0.000000e+00)
802           	(1.303679e+00 -6.451705e+01 0.000000e+00)	(0.000000e+00 -6.451718e+01 0.000000e+00)	(1.303679e+00 1.341679e-04 0.000000e+00)
803           	(1.303990e+00 -6.451654e+01 0.000000e+00)	(0.000000e+00 -6.451669e+01 0.000000e+00)	(1.303990e+00 1.512154e-04 0.000000e+00)
804           	(1.304290e+00 -6.451602e+01 0.000000e+00)	(0.000000e+00 -6.451619e+01 0.000000e+00)	(1.304290e+00 1.681844e-04 0.000000e+00)
805           	(1.304581e+00 -6.451551e+01 0.000000e+00)	(0.000000e+00 -6.451570e+01 0.000000e+00)	(1.304581e+00 1.851386e-04 0.000000e+00)
806           	(1.304863e+00 -6.451500e+01 0.000000e+00)	(0.000000e+00 -6.451520e+01 0.000000e+00)	(1.304863e+00 2.020717e-04 0.000000e+00)
807           	(1.305136e+00 -6.451449e+01 0.000000e+00)	(0.000000e+00 -6.451471e+01 0.000000e+00)	(1.305136e+00 2.189399e-04 0.000000e+00)
808           	(1.305400e+00 -6.451399e+01 0.000000e+00)	(0.000000e+00 -6.451422e+01 0.000000e+00)	(1.305400e+00 2.357804e-04 0.000000e+00)
809           	(1.305656e+00 -6.451348e+01 0.000000e+00)	(0.000000e+00 -6.451373e+01 0.000000e+00)	(1.305656e+00 2.526930e-04 0.000000e+00)
810           	(1.305903e+00 -6.451298e+01 0.000000e+00)	(0.000000e+00 -6.451324e+01 0.000000e+00)	(1.305903e+00 2.695259e-04 0.000000e+00)
811           	(1.306142e+00 -6.451247e+01 0.000000e+00)	(0.000000e+00 -6.451276e+01 0.000000e+00)	(1.306142e+00 2.863794e-04 0.000000e+00)
812           	(1.306373e+00 -6.451197e+01 0.000000e+00)	(0.000000e+00 -6.451227e+01 0.000000e+00)	(1.306373e+00 3.030796e-04 0.000000e+00)
813           	(1.306596e+00 -6.451147e+01 0.000000e+00)	(0.000000e+00 -6.451179e+01 0.000000e+00)	(1.306596e+00 3.197616e-04 0.000000e+00)
814           	(1.306811e+00 -6.451097e+01 0.000000e+00)	(0.000000e+00 -6.451131e+01 0.000000e+00)	(1.306811e+00 3.363702e-04 0.000000e+00)
815           	(1.307020e+00 -6.451048e+01 0.000000e+00)	(0.000000e+00 -6.451083e+01 0.000000e+00)	(1.307020e+00 3.528254e-04 0.000000e+00)
816           	(1.307221e+00 -6.450999e+01 0.000000e+00)	(0.000000e+00 -6.451036e+01 0.000000e+00)	(1.307221e+00 3.691480e-04 0.000000e+00)
817           	(1.307415e+00 -6.450950e+01 0.000000e+00)	(0.000000e+00 -6.450989e+01 0.000000e+00)	(1.307415e+00 3.854544e-04 0.000000e+00)
818           	(1.307602e+00 -6.450902e+01 0.000000e+00)	(0.000000e+00 -6.450942e+01 0.000000e+00)	(1.307602e+00 4.017728e-04 0.000000e+00)
819           	(1.307783e+00 -6.450854e+01 0.000000e+00)	(0.000000e+00 -6.450896e+01 0.000000e+00)	(1.307783e+00 4.180169e-04 0.000000e+00)
820           	(1.307958e+00 -6.450806e+01 0.000000e+00)	(0.000000e+00 -6.450850e+01 0.000000e+00)	(1.307958e+00 4.340820e-04 0.000000e+00)
821           	(1.308127e+00 -6.450759e+01 0.000000e+00)	(0.000000e+00 -6.450804e+01 0.000000e+00)	(1.308127e+00 4.500585e-04 0.000000e+00)
822           	(1.308289e+00 -6.450712e+01 0.000000e+00)	(0.000000e+00 -6.450759e+01 0.000000e+00)	(1.308289e+00 4.661590e-04 0.000000e+00)
823           	(1.308446e+00 -6.450666e+01 0.000000e+00)	(0.000000e+00 -6.450714e+01 0.000000e+00)	(1.308446e+00 4.821578e-04 0.000000e+00)
824           	(1.308597e+00 -6.450619e+01 0.000000e+00)	(0.000000e+00 -6.450669e+01 0.000000e+00)	(1.308597e+00 4.980772e-04 0.000000e+00)
825           	(1.308743e+00 -6.450574e+01 0.000000e+00)	(0.000000e+00 -6.450625e+01 0.000000e+00)	(1.308743e+00 5.137203e-04 0.000000e+00)
826           	(1.308883e+00 -6.450528e+01 0.000000e+00)	(0.000000e+00 -6.450581e+01 0.000000e+00)	(1.308883e+00 5.293226e-04 0.000000e+00)
827           	(1.309018e+00 -6.450483e+01 0.000000e+00)	(0.000000e+00 -6.450538e+01 0.000000e+00)	(1.309018e+00 5.448865e-04 0.000000e+00)
828           	(1.309149e+00 -6.450438e+01 0.000000e+00)	(0.000000e+00 -6.450494e+01 0.000000e+00)	(1.309149e+00 5.604718e-04 0.000000e+00)
829           	(1.309274e+00 -6.450394e+01 0.000000e+00)	(0.000000e+00 -6.450452e+01 0.000000e+00)	(1.309274e+00 5.758841e-04 0.000000e+00)
830           	(1.309395e+00 -6.450350e+01 0.000000e+00)	(0.000000e+00 -6.450409e+01 0.000000e+00)	(1.309395e+00 5.911501e-04 0.000000e+00)
831           	(1.309512e+00 -6.450307e+01 0.000000e+00)	(0.000000e+00 -6.450368e+01 0.000000e+00)	(1.309512e+00 6.062710e-04 0.000000e+00)
832           	(1.309624e+00 -6.450264e+01 0.000000e+00)	(0.000000e+00 -6.450326e+01 0.000000e+00)	(1.309624e+00 6.212987e-04 0.000000e+00)
833           	(1.309732e+00 -6.450222e+01 0.000000e+00)	(0.000000e+00 -6.450285e+01 0.000000e+00)	(1.309732e+00 6.363013e-04 0.000000e+00)
834           	(1.309836e+00 -6.450180e+01 0.000000e+00)	(0.000000e+00 -6.450245e+01 0.000000e+00)	(1.309836e+00 6.512734e-04 0.000000e+00)
835           	(1.309936e+00 -6.450138e+01 0.000000e+00)	(0.000000e+00 -6.450205e+01 0.000000e+00)	(1.309936e+00 6.661762e-04 0.000000e+00)
836           	(1.310033e+00 -6.450097e+01 0.000000e+00)	(0.000000e+00 -6.450165e+01 0.000000e+00)	(1.310033e+00 6.809142e-04 0.000000e+00)
837           	(1.310126e+00 -6.450056e+01 0.000000e+00)	(0.000000e+00 -6.450126e+01 0.000000e+00)	(1.310126e+00 6.955438e-04 0.000000e+00)
838           	(1.310215e+00 -6.450016e+01 0.000000e+00)	(0.000000e+00 -6.450087e+01 0.000000e+00)	(1.310215e+00 7.101046e-04 0.000000e+00)
839           	(1.310301e+00 -6.449976e+01 0.000000e+00)	(0.000000e+00 -6.450049e+01 0.000000e+00)	(1.310301e+00 7.244784e-04 0.000000e+00)
840           	(1.310384e+00 -6.449937e+01 0.000000e+00)	(0.000000e+00 -6.450011e+01 0.000000e+00)	(1.310384e+00 7.387271e-04 0.000000e+00)
841           	(1.310464e+00 -6.449898e+01 0.000000e+00)	(0.000000e+00 -6.449973e+01 0.000000e+00)	(1.310464e+00 7.528533e-04 0.000000e+00)
842           	(1.310541e+00 -6.449860e+01 0.000000e+00)	(0.000000e+00 -6.449937e+01 0.000000e+00)	(1.310541e+00 7.668919e-04 0.000000e+00)
843           	(1.310616e+00 -6.449822e+01 0.000000e+00)	(0.000000e+00 -6.449900e+01 0.000000e+00)	(1.310616e+00 7.808711e-04 0.000000e+00)
844           	(1.310687e+00 -6.449785e+01 0.000000e+00)	(0.000000e+00 -6.449864e+01 0.000000e+00)	(1.310687e+00 7.949235e-04 0.000000e+00)
845           	(1.310756e+00 -6.449748e+01 0.000000e+00)	(0.000000e+00 -6.449829e+01 0.000000e+00)	(1.310756e+00 8.089111e-04 0.000000e+00)
846           	(1.310823e+00 -6.449712e+01 0.000000e+00)	(0.000000e+00 -6.449794e+01 0.000000e+00)	(1.310823e+00 8.227374e-04 0.000000e+00)
847           	(1.310887e+00 -6.449676e+01 0.000000e+00)	(0.000000e+00 -6.449759e+01 0.000000e+00)	(1.310887e+00 8.362823e-04 0.000000e+00)
848           	(1.310949e+00 -6.449640e+01 0.000000e+00)	(0.000000e+00 -6.449725e+01 0.000000e+00)	(1.310949e+00 8.497895e-04 0.000000e+00)
849           	(1.311008e+00 -6.449605e+01 0.000000e+00)	(0.000000e+00 -6.449692e+01 0.000000e+00)	(1.311008e+00 8.631123e-04 0.000000e+00)
850           	(1.311066e+00 -6.449571e+01 0.000000e+00)	(0.000000e+00 -6.449659e+01 0.000000e+00)	(1.311066e+00 8.764039e-04 0.000000e+00)
851           	(1.311122e+00 -6.449537e+01 0.000000e+00)	(0.000000e+00 -6.449626e+01 0.000000e+00)	(1.311122e+00 8.896485e-04 0.000000e+00)
852           	(1.311176e+00 -6.449504e+01 0.000000e+00)	(0.000000e+00 -6.449594e+01 0.000000e+00)	(1.311176e+00 9.027552e-04 0.000000e+00)
853           	(1.311228e+00 -6.449471e+01 0.000000e+00)	(0.000000e+00 -6.449563e+01 0.000000e+00)	(1.311228e+00 9.157147e-04 0.000000e+00)
854           	(1.311278e+00 -6.449439e+01 0.000000e+00)	(0.000000e+00 -6.449532e+01 0.000000e+00)	(1.311278e+00 9.286051e-04 0.000000e+00)
855           	(1.311327e+00 -6.449407e+01 0.000000e+00)	(0.000000e+00 -6.449501e+01 0.000000e+00)	(1.311327e+00 9.414755e-04 0.000000e+00)
856           	(1.311374e+00 -6.449375e+01 0.000000e+00)	(0.000000e+00 -6.449471e+01 0.000000e+00)	(1.311374e+00 9.542978e-04 0.000000e+00)
857           	(1.311420e+00 -6.449345e+01 0.000000e+00)	(0.000000e+00 -6.449441e+01 0.000000e+00)	(1.311420e+00 9.670280e-04 0.000000e+00)
858           	(1.311464e+00 -6.449314e+01 0.000000e+00)	(0.000000e+00 -6.449412e+01 0.000000e+00)	(1.311464e+00 9.796258e-04 0.000000e+00)
859           	(1.311507e+00 -6.449284e+01 0.000000e+00)	(0.000000e+00 -6.449383e+01 0.000000e+00)	(1.311507e+00 9.920386e-04 0.000000e+00)
860           	(1.311549e+00 -6.449255e+01 0.000000e+00)	(0.000000e+00 -6.449355e+01 0.000000e+00)	(1.311549e+00 1.004375e-03 0.000000e+00)
861           	(1.311590e+00 -6.449226e+01 0.000000e+00)	(0.000000e+00 -6.449328e+01 0.000000e+00)	(1.311590e+00 1.016691e-03 0.000000e+00)
862           	(1.311630e+00 -6.449197e+01 0.000000e+00)	(0.000000e+00 -6.449300e+01 0.000000e+00)	(1.311630e+00 1.029070e-03 0.000000e+00)
863           	(1.311668e+00 -6.449169e+01 0.000000e+00)	(0.000000e+00 -6.449274e+01 0.000000e+00)	(1.311668e+00 1.041133e-03 0.000000e+00)
864           	(1.311706e+00 -6.449142e+01 0.000000e+00)	(0.000000e+00 -6.449247e+01 0.000000e+00)	(1.311706e+00 1.053305e-03 0.000000e+00)
865           	(1.311742e+00 -6.449114e+01 0.000000e+00)	(0.000000e+00 -6.449221e+01 0.000000e+00)	(1.311742e+00 1.065320e-03 0.000000e+00)
866           	(1.311777e+00 -6.449087e+01 0.000000e+00)	(0.000000e+00 -6.449195e+01 0.000000e+00)	(1.311777e+00 1.077168e-03 0.000000e+00)
867           	(1.311812e+00 -6.449061e+01 0.000000e+00)	(0.000000e+00 -6.449170e+01 0.000000e+00)	(1.311812e+00 1.088906e-03 0.000000e+00)
868           	(1.311846e+00 -6.449035e+01 0.000000e+00)	(0.000000e+00 -6.449145e+01 0.000000e+00)	(1.311846e+00 1.100630e-03 0.000000e+00)
869           	(1.311879e+00 -6.449009e+01 0.000000e+00)	(0.000000e+00 -6.449121e+01 0.000000e+00)	(1.311879e+00 1.112394e-03 0.000000e+00)
870           	(1.311912e+00 -6.448984e+01 0.000000e+00)	(0.000000e+00 -6.449097e+01 0.000000e+00)	(1.311912e+00 1.124047e-03 0.000000e+00)
871           	(1.311944e+00 -6.448959e+01 0.000000e+00)	(0.000000e+00 -6.449073e+01 0.000000e+00)	(1.311944e+00 1.135497e-03 0.000000e+00)
872           	(1.311975e+00 -6.448935e+01 0.000000e+00)	(0.000000e+00 -6.449050e+01 0.000000e+00)	(1.311975e+00 1.146867e-03 0.000000e+00)
873           	(1.312006e+00 -6.448911e+01 0.000000e+00)	(0.000000e+00 -6.449027e+01 0.000000e+00)	(1.312006e+00 1.158156e-03 0.000000e+00)
874           	(1.312037e+00 -6.448888e+01 0.000000e+00)	(0.000000e+00 -6.449004e+01 0.000000e+00)	(1.312037e+00 1.169275e-03 0.000000e+00)
875           	(1.312067e+00 -6.448864e+01 0.000000e+00)	(0.000000e+00 -6.448982e+01 0.000000e+00)	(1.312067e+00 1.180386e-03 0.000000e+00)
876           	(1.312096e+00 -6.448842e+01 0.000000e+00)	(0.000000e+00 -6.448961e+01 0.000000e+00)	(1.312096e+00 1.191433e-03 0.000000e+00)
877           	(1.312126e+00 -6.448820e+01 0.000000e+00)	(0.000000e+00 -6.448940e+01 0.000000e+00)	(1.312126e+00 1.202454e-03 0.000000e+00)
878           	(1.312155e+00 -6.448798e+01 0.000000e+00)	(0.000000e+00 -6.448919e+01 0.000000e+00)	(1.312155e+00 1.213309e-03 0.000000e+00)
879           	(1.312184e+00 -6.448777e+01 0.000000e+00)	(0.000000e+00 -6.448899e+01 0.000000e+00)	(1.312184e+00 1.223988e-03 0.000000e+00)
880           	(1.312212e+00 -6.448756e+01 0.000000e+00)	(0.000000e+00 -6.448879e+01 0.000000e+00)	(1.312212e+00 1.234525e-03 0.000000e+00)
881           	(1.312241e+00 -6.448735e+01 0.000000e+00)	(0.000000e+00 -6.448860e+01 0.000000e+00)	(1.312241e+00 1.245260e-03 0.000000e+00)
882           	(1.312269e+00 -6.448715e+01 0.000000e+00)	(0.000000e+00 -6.448841e+01 0.000000e+00)	(1.312269e+00 1.256091e-03 0.000000e+00)
883           	(1.312297e+00 -6.448696e+01 0.000000e+00)	(0.000000e+00 -6.448822e+01 0.000000e+00)	(1.312297e+00 1.266667e-03 0.000000e+00)
884           	(1.312325e+00 -6.448676e+01 0.000000e+00)	(0.000000e+00 -6.448804e+01 0.000000e+00)	(1.312325e+00 1.277090e-03 0.000000e+00)
885           	(1.312352e+00 -6.448657e+01 0.000000e+00)	(0.000000e+00 -6.448786e+01 0.000000e+00)	(1.312352e+00 1.287480e-03 0.000000e+00)
886           	(1.312380e+00 -6.448639e+01 0.000000e+00)	(0.000000e+00 -6.448769e+01 0.000000e+00)	(1.312380e+00 1.297822e-03 0.000000e+00)
887           	(1.312407e+00 -6.448621e+01 0.000000e+00)	(0.000000e+00 -6.448751e+01 0.000000e+00)	(1.312407e+00 1.308142e-03 0.000000e+00)
888           	(1.312435e+00 -6.448603e+01 0.000000e+00)	(0.000000e+00 -6.448735e+01 0.000000e+00)	(1.312435e+00 1.318296e-03 0.000000e+00)
889           	(1.312462e+00 -6.448586e+01 0.000000e+00)	(0.000000e+00 -6.448718e+01 0.000000e+00)	(1.312462e+00 1.328340e-03 0.000000e+00)
890           	(1.312489e+00 -6.448568e+01 0.000000e+00)	(0.000000e+00 -6.448702e+01 0.000000e+00)	(1.312489e+00 1.338497e-03 0.000000e+00)
891           	(1.312517e+00 -6.448552e+01 0.000000e+00)	(0.000000e+00 -6.448687e+01 0.000000e+00)	(1.312517e+00 1.348540e-03 0.000000e+00)
892           	(1.312544e+00 -6.448535e+01 0.000000e+00)	(0.000000e+00 -6.448671e+01 0.000000e+00)	(1.312544e+00 1.358459e-03 0.000000e+00)
893           	(1.312571e+00 -6.448519e+01 0.000000e+00)	(0.000000e+00 -6.448656e+01 0.000000e+00)	(1.312571e+00 1.368294e-03 0.000000e+00)
894           	(1.312599e+00 -6.448504e+01 0.000000e+00)	(0.000000e+00 -6.448641e+01 0.000000e+00)	(1.312599e+00 1.378070e-03 0.000000e+00)
895           	(1.312626e+00 -6.448488e+01 0.000000e+00)	(0.000000e+00 -6.448627e+01 0.000000e+00)	(1.312626e+00 1.387778e-03 0.000000e+00)
896           	(1.312654e+00 -6.448473e+01 0.000000e+00)	(0.000000e+00 -6.448613e+01 0.000000e+00)	(1.312654e+00 1.397425e-03 0.000000e+00)
897           	(1.312681e+00 -6.448459e+01 0.000000e+00)	(0.000000e+00 -6.448599e+01 0.000000e+00)	(1.312681e+00 1.407051e-03 0.000000e+00)
898           	(1.312709e+00 -6.448444e+01 0.000000e+00)	(0.000000e+00 -6.448586e+01 0.000000e+00)	(1.312709e+00 1.416667e-03 0.000000e+00)
899           	(1.312737e+00 -6.448430e+01 0.000000e+00)	(0.000000e+00 -6.448573e+01 0.000000e+00)	(1.312737e+00 1.426295e-03 0.000000e+00)
900           	(1.312765e+00 -6.448416e+01 0.000000e+00)	(0.000000e+00 -6.448560e+01 0.000000e+00)	(1.312765e+00 1.435666e-03 0.000000e+00)
901           	(1.312793e+00 -6.448403e+01 0.000000e+00)	(0.000000e+00 -6.448547e+01 0.000000e+00)	(1.312793e+00 1.445079e-03 0.000000e+00)
902           	(1.312822e+00 -6.448390e+01 0.000000e+00)	(0.000000e+00 -6.448535e+01 0.000000e+00)	(1.312822e+00 1.454350e-03 0.000000e+00)
903           	(1.312850e+00 -6.448377e+01 0.000000e+00)	(0.000000e+00 -6.448523e+01 0.000000e+00)	(1.312850e+00 1.463688e-03 0.000000e+00)
904           	(1.312879e+00 -6.448364e+01 0.000000e+00)	(0.000000e+00 -6.448512e+01 0.000000e+00)	(1.312879e+00 1.472901e-03 0.000000e+00)
905           	(1.312908e+00 -6.448352e+01 0.000000e+00)	(0.000000e+00 -6.448500e+01 0.000000e+00)	(1.312908e+00 1.481954e-03 0.000000e+00)
906           	(1.312937e+00 -6.448341e+01 0.000000e+00)	(0.000000e+00 -6.448490e+01 0.000000e+00)	(1.312937e+00 1.490973e-03 0.000000e+00)
907           	(1.312967e+00 -6.448329e+01 0.000000e+00)	(0.000000e+00 -6.448479e+01 0.000000e+00)	(1.312967e+00 1.500023e-03 0.000000e+00)
908           	(1.312996e+00 -6.448318e+01 0.000000e+00)	(0.000000e+00 -6.448469e+01 0.000000e+00)	(1.312996e+00 1.509058e-03 0.000000e+00)
909           	(1.313026e+00 -6.448307e+01 0.000000e+00)	(0.000000e+00 -6.448459e+01 0.000000e+00)	(1.313026e+00 1.518087e-03 0.000000e+00)
910           	(1.313056e+00 -6.448296e+01 0.000000e+00)	(0.000000e+00 -6.448449e+01 0.000000e+00)	(1.313056e+00 1.527112e-03 0.000000e+00)
911           	(1.313086e+00 -6.448286e+01 0.000000e+00)	(0.000000e+00 -6.448439e+01 0.000000e+00)	(1.313086e+00 1.535878e-03 0.000000e+00)
912           	(1.313116e+00 -6.448275e+01 0.000000e+00)	(0.000000e+00 -6.448430e+01 0.000000e+00)	(1.313116e+00 1.544660e-03 0.000000e+00)
913           	(1.313147e+00 -6.448266e+01 0.000000e+00)	(0.000000e+00 -6.448421e+01 0.000000e+00)	(1.313147e+00 1.553335e-03 0.000000e+00)