# Moment      
# CofR        : (0.000000e+00 0.000000e+00 0.000000e+00)
#
# Time        	(total_x total_y total_z)	(pressure_x pressure_y pressure_z)	(viscous_x viscous_y viscous_z)
702           	(3.217076e+00 5.962049e-02 -2.921205e+01)	(3.217834e+00 0.000000e+00 -2.921710e+01)	(-7.582100e-04 5.962049e-02 5.056791e-03)
703           	(3.212486e+00 5.939496e-02 -2.916737e+01)	(3.213488e+00 0.000000e+00 -2.917513e+01)	(-1.002360e-03 5.939496e-02 7.760224e-03)
704           	(3.209682e+00 5.940325e-02 -2.913571e+01)	(3.210435e+00 0.000000e+00 -2.914179e+01)	(-7.534769e-04 5.940325e-02 6.078818e-03)
705           	(3.209426e+00 5.962264e-02 -2.912705e+01)	(3.209747e+00 0.000000e+00 -2.912930e+01)	(-3.206703e-04 5.962264e-02 2.254239e-03)
706           	(3.211371e+00 6.001773e-02 -2.914222e+01)	(3.211326e+00 0.000000e+00 -2.914054e+01)	(4.567951e-05 6.001773e-02 -1.675544e-03)
707           	(3.214268e+00 6.038769e-02 -2.916883e+01)	(3.214100e+00 0.000000e+00 -2.916567e+01)	(1.681482e-04 6.038769e-02 -3.154471e-03)
708           	(3.216937e+00 6.067976e-02 -2.919667e+01)	(3.216778e+00 0.000000e+00 -2.919322e+01)	(1.583171e-04 6.067976e-02 -3.457514e-03)
709           	(3.218820e+00 6.088437e-02 -2.921789e+01)	(3.218746e+00 0.000000e+00 -2.921512e+01)	(7.345905e-05 6.088437e-02 -2.773550e-03)
710           	(3.220024e+00 6.101673e-02 -2.923184e+01)	(3.220025e+00 0.000000e+00 -2.922990e+01)	(-1.399314e-06 6.101673e-02 -1.933721e-03)
711           	(3.220834e+00 6.110258e-02 -2.924084e+01)	(3.220871e+00 0.000000e+00 -2.923942e+01)	(-3.728910e-05 6.110258e-02 -1.422670e-03)
712           	(3.221425e+00 6.116371e-02 -2.924712e+01)	(3.221477e+00 0.000000e+00 -2.924593e+01)	(-5.189627e-05 6.116371e-02 -1.190894e-03)
713           	(3.221842e+00 6.121466e-02 -2.925146e+01)	(3.221905e+00 0.000000e+00 -2.925042e+01)	(-6.362315e-05 6.121466e-02 -1.038927e-03)
714           	(3.222125e+00 6.126402e-02 -2.925431e+01)	(3.222198e+00 0.000000e+00 -2.925339e+01)	(-7.304840e-05 6.126402e-02 -9.126329e-04)
715           	(3.222349e+00 6.131669e-02 -2.925635e+01)	(3.222423e+00 0.000000e+00 -2.925549e+01)	(-7.418294e-05 6.131669e-02 -8.626279e-04)
716           	(3.222575e+00 6.137469e-02 -2.925835e+01)	(3.222642e+00 0.000000e+00 -2.925744e+01)	(-6.685535e-05 6.137469e-02 -9.085363e-04)
717           	(3.222827e+00 6.143786e-02 -2.926065e+01)	(3.222884e+00 0.000000e+00 -2.925965e+01)	(-5.643456e-05 6.143786e-02 -1.006598e-03)
718           	(3.223094e+00 6.150479e-02 -2.926325e+01)	(3.223142e+00 0.000000e+00 -2.926215e+01)	(-4.746374e-05 6.150479e-02 -1.103153e-03)
719           	(3.223362e+00 6.157383e-02 -2.926598e+01)	(3.223403e+00 0.000000e+00 -2.926480e+01)	(-4.080469e-05 6.157383e-02 -1.177172e-03)
720           	(3.223623e+00 6.164370e-02 -2.926874e+01)	(3.223658e+00 0.000000e+00 -2.926750e+01)	(-3.533568e-05 6.164370e-02 -1.234782e-03)
721           	(3.223875e+00 6.171354e-02 -2.927147e+01)	(3.223906e+00 0.000000e+00 -2.927019e+01)	(-3.031171e-05 6.171354e-02 -1.285086e-03)
722           	(3.224117e+00 6.178279e-02 -2.927413e+01)	(3.224142e+00 0.000000e+00 -2.927280e+01)	(-2.586677e-05 6.178279e-02 -1.329094e-03)
723           	(3.224342e+00 6.185115e-02 -2.927666e+01)	(3.224364e+00 0.000000e+00 -2.927530e+01)	(-2.227191e-05 6.185115e-02 -1.364280e-03)
724           	(3.224548e+00 6.191850e-02 -2.927902e+01)	(3.224567e+00 0.000000e+00 -2.927763e+01)	(-1.940882e-05 6.191850e-02 -1.390965e-03)
725           	(3.224734e+00 6.198486e-02 -2.928118e+01)	(3.224751e+00 0.000000e+00 -2.927977e+01)	(-1.691544e-05 6.198486e-02 -1.412676e-03)
726           	(3.224903e+00 6.205039e-02 -2.928315e+01)	(3.224917e+00 0.000000e+00 -2.928172e+01)	(-1.452032e-05 6.205039e-02 -1.432875e-03)
727           	(3.225055e+00 6.211520e-02 -2.928495e+01)	(3.225068e+00 0.000000e+00 -2.928350e+01)	(-1.216063e-05 6.211520e-02 -1.452961e-03)
728           	(3.225193e+00 6.217943e-02 -2.928659e+01)	(3.225203e+00 0.000000e+00 -2.928512e+01)	(-9.863274e-06 6.217943e-02 -1.472939e-03)
729           	(3.225318e+00 6.224318e-02 -2.928808e+01)	(3.225326e+00 0.000000e+00 -2.928659e+01)	(-7.634618e-06 6.224318e-02 -1.492741e-03)
730           	(3.225431e+00 6.230651e-02 -2.928945e+01)	(3.225437e+00 0.000000e+00 -2.928794e+01)	(-5.461995e-06 6.230651e-02 -1.512561e-03)
731           	(3.225534e+00 6.236949e-02 -2.929071e+01)	(3.225538e+00 0.000000e+00 -2.928917e+01)	(-3.325397e-06 6.236949e-02 -1.532590e-03)
732           	(3.225629e+00 6.243213e-02 -2.929187e+01)	(3.225630e+00 0.000000e+00 -2.929031e+01)	(-1.223845e-06 6.243213e-02 -1.552828e-03)
733           	(3.225716e+00 6.249445e-02 -2.929294e+01)	(3.225715e+00 0.000000e+00 -2.929137e+01)	(8.217385e-07 6.249445e-02 -1.573093e-03)
734           	(3.225797e+00 6.255641e-02 -2.929395e+01)	(3.225794e+00 0.000000e+00 -2.929236e+01)	(2.790681e-06 6.255641e-02 -1.593138e-03)
735           	(3.225871e+00 6.261801e-02 -2.929489e+01)	(3.225866e+00 0.000000e+00 -2.929328e+01)	(4.674078e-06 6.261801e-02 -1.612791e-03)
736           	(3.225941e+00 6.267922e-02 -2.929578e+01)	(3.225934e+00 0.000000e+00 -2.929414e+01)	(6.464457e-06 6.267922e-02 -1.631947e-03)
737           	(3.226005e+00 6.274002e-02 -2.929661e+01)	(3.225997e+00 0.000000e+00 -2.929496e+01)	(8.159475e-06 6.274002e-02 -1.650550e-03)
738           	(3.226066e+00 6.280037e-02 -2.929741e+01)	(3.226056e+00 0.000000e+00 -2.929574e+01)	(9.758329e-06 6.280037e-02 -1.668490e-03)
739           	(3.226122e+00 6.286023e-02 -2.929816e+01)	(3.226111e+00 0.000000e+00 -2.929647e+01)	(1.124636e-05 6.286023e-02 -1.685580e-03)
740           	(3.226175e+00 6.291958e-02 -2.929887e+01)	(3.226163e+00 0.000000e+00 -2.929717e+01)	(1.262791e-05 6.291958e-02 -1.701849e-03)
741           	(3.226225e+00 6.297841e-02 -2.929956e+01)	(3.226211e+00 0.000000e+00 -2.929784e+01)	(1.391955e-05 6.297841e-02 -1.717425e-03)
742           	(3.226272e+00 6.303668e-02 -2.930021e+01)	(3.226257e+00 0.000000e+00 -2.929847e+01)	(1.510933e-05 6.303668e-02 -1.732153e-03)
743           	(3.226316e+00 6.309433e-02 -2.930083e+01)	(3.226300e+00 0.000000e+00 -2.929908e+01)	(1.617736e-05 6.309433e-02 -1.745782e-03)
744           	(3.226357e+00 6.315135e-02 -2.930141e+01)	(3.226340e+00 0.000000e+00 -2.929965e+01)	(1.712492e-05 6.315135e-02 -1.758283e-03)
745           	(3.226394e+00 6.320771e-02 -2.930197e+01)	(3.226376e+00 0.000000e+00 -2.930020e+01)	(1.795514e-05 6.320771e-02 -1.769718e-03)
746           	(3.226429e+00 6.326336e-02 -2.930249e+01)	(3.226410e+00 0.000000e+00 -2.930071e+01)	(1.867914e-05 6.326336e-02 -1.780154e-03)
747           	(3.226460e+00 6.331830e-02 -2.930298e+01)	(3.226440e+00 0.000000e+00 -2.930119e+01)	(1.930548e-05 6.331830e-02 -1.789663e-03)
748           	(3.226488e+00 6.337251e-02 -2.930343e+01)	(3.226468e+00 0.000000e+00 -2.930163e+01)	(1.985059e-05 6.337251e-02 -1.798356e-03)
749           	(3.226513e+00 6.342598e-02 -2.930385e+01)	(3.226493e+00 0.000000e+00 -2.930205e+01)	(2.031939e-05 6.342598e-02 -1.806347e-03)
750           	(3.226536e+00 6.347872e-02 -2.930425e+01)	(3.226515e+00 0.000000e+00 -2.930243e+01)	(2.071842e-05 6.347872e-02 -1.813699e-03)
751           	(3.226556e+00 6.353071e-02 -2.930461e+01)	(3.226535e+00 0.000000e+00 -2.930279e+01)	(2.104864e-05 6.353071e-02 -1.820399e-03)
752           	(3.226574e+00 6.358194e-02 -2.930495e+01)	(3.226552e+00 0.000000e+00 -2.930313e+01)	(2.131625e-05 6.358194e-02 -1.826420e-03)
753           	(3.226589e+00 6.363241e-02 -2.930526e+01)	(3.226568e+00 0.000000e+00 -2.930343e+01)	(2.150879e-05 6.363241e-02 -1.831724e-03)
754           	(3.226602e+00 6.368210e-02 -2.930555e+01)	(3.226580e+00 0.000000e+00 -2.930371e+01)	(2.162720e-05 6.368210e-02 -1.836293e-03)
755           	(3.226612e+00 6.373101e-02 -2.930581e+01)	(3.226591e+00 0.000000e+00 -2.930397e+01)	(2.168742e-05 6.373101e-02 -1.840187e-03)
756           	(3.226621e+00 6.377914e-02 -2.930604e+01)	(3.226599e+00 0.000000e+00 -2.930419e+01)	(2.169203e-05 6.377914e-02 -1.843564e-03)
757           	(3.226627e+00 6.382648e-02 -2.930624e+01)	(3.226605e+00 0.000000e+00 -2.930440e+01)	(2.166020e-05 6.382648e-02 -1.846554e-03)
758           	(3.226631e+00 6.387304e-02 -2.930643e+01)	(3.226609e+00 0.000000e+00 -2.930458e+01)	(2.157707e-05 6.387304e-02 -1.849056e-03)
759           	(3.226634e+00 6.391880e-02 -2.930659e+01)	(3.226612e+00 0.000000e+00 -2.930474e+01)	(2.144141e-05 6.391880e-02 -1.850912e-03)
760           	(3.226634e+00 6.396378e-02 -2.930673e+01)	(3.226613e+00 0.000000e+00 -2.930488e+01)	(2.125035e-05 6.396378e-02 -1.852181e-03)
761           	(3.226633e+00 6.400795e-02 -2.930685e+01)	(3.226612e+00 0.000000e+00 -2.930499e+01)	(2.102095e-05 6.400795e-02 -1.853002e-03)
762           	(3.226630e+00 6.405132e-02 -2.930694e+01)	(3.226610e+00 0.000000e+00 -2.930509e+01)	(2.075606e-05 6.405132e-02 -1.853478e-03)
763           	(3.226626e+00 6.409392e-02 -2.930702e+01)	(3.226606e+00 0.000000e+00 -2.930516e+01)	(2.045087e-05 6.409392e-02 -1.853643e-03)
764           	(3.226620e+00 6.413571e-02 -2.930708e+01)	(3.226600e+00 0.000000e+00 -2.930522e+01)	(2.011897e-05 6.413571e-02 -1.853403e-03)
765           	(3.226613e+00 6.417671e-02 -2.930712e+01)	(3.226594e+00 0.000000e+00 -2.930526e+01)	(1.974896e-05 6.417671e-02 -1.852676e-03)
766           	(3.226605e+00 6.421692e-02 -2.930714e+01)	(3.226586e+00 0.000000e+00 -2.930529e+01)	(1.933592e-05 6.421692e-02 -1.851489e-03)
767           	(3.226595e+00 6.425634e-02 -2.930715e+01)	(3.226576e+00 0.000000e+00 -2.930530e+01)	(1.888851e-05 6.425634e-02 -1.850028e-03)
768           	(3.226584e+00 6.429497e-02 -2.930714e+01)	(3.226566e+00 0.000000e+00 -2.930529e+01)	(1.842466e-05 6.429497e-02 -1.848324e-03)
769           	(3.226572e+00 6.433281e-02 -2.930711e+01)	(3.226555e+00 0.000000e+00 -2.930527e+01)	(1.793890e-05 6.433281e-02 -1.846273e-03)
770           	(3.226559e+00 6.436987e-02 -2.930707e+01)	(3.226542e+00 0.000000e+00 -2.930523e+01)	(1.742373e-05 6.436987e-02 -1.843859e-03)
771           	(3.226545e+00 6.440615e-02 -2.930702e+01)	(3.226529e+00 0.000000e+00 -2.930518e+01)	(1.688109e-05 6.440615e-02 -1.841150e-03)
772           	(3.226531e+00 6.444167e-02 -2.930695e+01)	(3.226514e+00 0.000000e+00 -2.930511e+01)	(1.631641e-05 6.444167e-02 -1.838235e-03)
773           	(3.226515e+00 6.447642e-02 -2.930687e+01)	(3.226499e+00 0.000000e+00 -2.930504e+01)	(1.573070e-05 6.447642e-02 -1.835100e-03)
774           	(3.226498e+00 6.451041e-02 -2.930678e+01)	(3.226483e+00 0.000000e+00 -2.930495e+01)	(1.512259e-05 6.451041e-02 -1.831712e-03)
775           	(3.226481e+00 6.454365e-02 -2.930668e+01)	(3.226466e+00 0.000000e+00 -2.930485e+01)	(1.448946e-05 6.454365e-02 -1.828048e-03)
776           	(3.226463e+00 6.457612e-02 -2.930657e+01)	(3.226449e+00 0.000000e+00 -2.930474e+01)	(1.383863e-05 6.457612e-02 -1.824113e-03)
777           	(3.226444e+00 6.460786e-02 -2.930645e+01)	(3.226431e+00 0.000000e+00 -2.930463e+01)	(1.316485e-05 6.460786e-02 -1.819928e-03)
778           	(3.226425e+00 6.463884e-02 -2.930631e+01)	(3.226412e+00 0.000000e+00 -2.930450e+01)	(1.248251e-05 6.463884e-02 -1.815542e-03)
779           	(3.226405e+00 6.466910e-02 -2.930617e+01)	(3.226393e+00 0.000000e+00 -2.930436e+01)	(1.178571e-05 6.466910e-02 -1.811020e-03)
780           	(3.226384e+00 6.469864e-02 -2.930602e+01)	(3.226373e+00 0.000000e+00 -2.930422e+01)	(1.107860e-05 6.469864e-02 -1.806319e-03)
781           	(3.226363e+00 6.472747e-02 -2.930586e+01)	(3.226353e+00 0.000000e+00 -2.930406e+01)	(1.035633e-05 6.472747e-02 -1.801428e-03)
782           	(3.226341e+00 6.475560e-02 -2.930570e+01)	(3.226332e+00 0.000000e+00 -2.930390e+01)	(9.602656e-06 6.475560e-02 -1.796248e-03)
783           	(3.226319e+00 6.478303e-02 -2.930553e+01)	(3.226310e+00 0.000000e+00 -2.930374e+01)	(8.842372e-06 6.478303e-02 -1.790880e-03)
784           	(3.226297e+00 6.480976e-02 -2.930535e+01)	(3.226289e+00 0.000000e+00 -2.930356e+01)	(8.085653e-06 6.480976e-02 -1.785427e-03)
785           	(3.226274e+00 6.483581e-02 -2.930516e+01)	(3.226267e+00 0.000000e+00 -2.930338e+01)	(7.325761e-06 6.483581e-02 -1.779904e-03)
786           	(3.226251e+00 6.486119e-02 -2.930497e+01)	(3.226244e+00 0.000000e+00 -2.930320e+01)	(6.555573e-06 6.486119e-02 -1.774270e-03)
787           	(3.226227e+00 6.488590e-02 -2.930478e+01)	(3.226222e+00 0.000000e+00 -2.930301e+01)	(5.770728e-06 6.488590e-02 -1.768454e-03)
788           	(3.226204e+00 6.490996e-02 -2.930457e+01)	(3.226199e+00 0.000000e+00 -2.930281e+01)	(4.972124e-06 6.490996e-02 -1.762443e-03)
789           	(3.226180e+00 6.493337e-02 -2.930437e+01)	(3.226175e+00 0.000000e+00 -2.930261e+01)	(4.166503e-06 6.493337e-02 -1.756304e-03)
790           	(3.226155e+00 6.495616e-02 -2.930415e+01)	(3.226152e+00 0.000000e+00 -2.930240e+01)	(3.355756e-06 6.495616e-02 -1.750069e-03)
791           	(3.226131e+00 6.497833e-02 -2.930394e+01)	(3.226128e+00 0.000000e+00 -2.930219e+01)	(2.539155e-06 6.497833e-02 -1.743761e-03)
792           	(3.226106e+00 6.499987e-02 -2.930372e+01)	(3.226104e+00 0.000000e+00 -2.930198e+01)	(1.726014e-06 6.499987e-02 -1.737412e-03)
793           	(3.226081e+00 6.502082e-02 -2.930349e+01)	(3.226080e+00 0.000000e+00 -2.930176e+01)	(9.043177e-07 6.502082e-02 -1.730964e-03)
794           	(3.226056e+00 6.504118e-02 -2.930326e+01)	(3.226056e+00 0.000000e+00 -2.930154e+01)	(6.438139e-08 6.504118e-02 -1.724297e-03)
795           	(3.226031e+00 6.506095e-02 -2.930303e+01)	(3.226032e+00 0.000000e+00 -2.930131e+01)	(-7.864536e-07 6.506095e-02 -1.717476e-03)
796           	(3.226006e+00 6.508014e-02 -2.930279e+01)	(3.226007e+00 0.000000e+00 -2.930108e+01)	(-1.628996e-06 6.508014e-02 -1.710647e-03)
797           	(3.225980e+00 6.509878e-02 -2.930255e+01)	(3.225983e+00 0.000000e+00 -2.930085e+01)	(-2.469643e-06 6.509878e-02 -1.703826e-03)
798           	(3.225955e+00 6.511687e-02 -2.930231e+01)	(3.225958e+00 0.000000e+00 -2.930062e+01)	(-3.310426e-06 6.511687e-02 -1.696960e-03)
799           	(3.225929e+00 6.513443e-02 -2.930207e+01)	(3.225933e+00 0.000000e+00 -2.930038e+01)	(-4.155138e-06 6.513443e-02 -1.690004e-03)
800           	(3.225904e+00 6.515146e-02 -2.930182e+01)	(3.225909e+00 0.000000e+00 -2.930014e+01)	(-5.004707e-06 6.515146e-02 -1.682969e-03)
801           	(3.225878e+00 6.516797e-02 -2.930157e+01)	(3.225884e+00 0.000000e+00 -2.929990e+01)	(-5.859020e-06 6.516797e-02 -1.675901e-03)
802           	(3.225852e+00 6.518397e-02 -2.930132e+01)	(3.225859e+00 0.000000e+00 -2.929965e+01)	(-6.708396e-06 6.518397e-02 -1.668797e-03)
803           	(3.225827e+00 6.519948e-02 -2.930107e+01)	(3.225834e+00 0.000000e+00 -2.929941e+01)	(-7.560770e-06 6.519948e-02 -1.661659e-03)
804           	(3.225801e+00 6.521451e-02 -2.930082e+01)	(3.225810e+00 0.000000e+00 -2.929916e+01)	(-8.409219e-06 6.521451e-02 -1.654514e-03)
805           	(3.225776e+00 6.522906e-02 -2.930056e+01)	(3.225785e+00 0.000000e+00 -2.929892e+01)	(-9.256931e-06 6.522906e-02 -1.647350e-03)
806           	(3.225750e+00 6.524316e-02 -2.930031e+01)	(3.225760e+00 0.000000e+00 -2.929867e+01)	(-1.010358e-05 6.524316e-02 -1.640157e-03)
807           	(3.225725e+00 6.525680e-02 -2.930005e+01)	(3.225736e+00 0.000000e+00 -2.929842e+01)	(-1.094699e-05 6.525680e-02 -1.632954e-03)
808           	(3.225699e+00 6.527001e-02 -2.929980e+01)	(3.225711e+00 0.000000e+00 -2.929817e+01)	(-1.178902e-05 6.527001e-02 -1.625730e-03)
809           	(3.225674e+00 6.528279e-02 -2.929954e+01)	(3.225687e+00 0.000000e+00 -2.929792e+01)	(-1.263465e-05 6.528279e-02 -1.618458e-03)
810           	(3.225649e+00 6.529514e-02 -2.929928e+01)	(3.225662e+00 0.000000e+00 -2.929767e+01)	(-1.347630e-05 6.529514e-02 -1.611166e-03)
811           	(3.225624e+00 6.530709e-02 -2.929902e+01)	(3.225638e+00 0.000000e+00 -2.929742e+01)	(-1.431897e-05 6.530709e-02 -1.603875e-03)
812           	(3.225599e+00 6.531863e-02 -2.929876e+01)	(3.225614e+00 0.000000e+00 -2.929717e+01)	(-1.515398e-05 6.531863e-02 -1.596613e-03)
813           	(3.225574e+00 6.532979e-02 -2.929851e+01)	(3.225590e+00 0.000000e+00 -2.929692e+01)	(-1.598808e-05 6.532979e-02 -1.589368e-03)
814           	(3.225549e+00 6.534057e-02 -2.929825e+01)	(3.225566e+00 0.000000e+00 -2.929667e+01)	(-1.681851e-05 6.534057e-02 -1.582126e-03)
815           	(3.225524e+00 6.535098e-02 -2.929799e+01)	(3.225542e+00 0.000000e+00 -2.929641e+01)	(-1.764127e-05 6.535098e-02 -1.574919e-03)
816           	(3.225499e+00 6.536103e-02 -2.929773e+01)	(3.225518e+00 0.000000e+00 -2.929617e+01)	(-1.845740e-05 6.536103e-02 -1.567751e-03)
817           	(3.225475e+00 6.537074e-02 -2.929748e+01)	(3.225494e+00 0.000000e+00 -2.929592e+01)	(-1.927272e-05 6.537074e-02 -1.560568e-03)
818           	(3.225451e+00 6.538011e-02 -2.929722e+01)	(3.225471e+00 0.000000e+00 -2.929567e+01)	(-2.008864e-05 6.538011e-02 -1.553354e-03)
819           	(3.225427e+00 6.538917e-02 -2.929697e+01)	(3.225448e+00 0.000000e+00 -2.929542e+01)	(-2.090085e-05 6.538917e-02 -1.546159e-03)
820           	(3.225403e+00 6.539791e-02 -2.929671e+01)	(3.225425e+00 0.000000e+00 -2.929518e+01)	(-2.170410e-05 6.539791e-02 -1.539016e-03)
821           	(3.225380e+00 6.540634e-02 -2.929646e+01)	(3.225402e+00 0.000000e+00 -2.929493e+01)	(-2.250293e-05 6.540634e-02 -1.531878e-03)
822           	(3.225356e+00 6.541447e-02 -2.929621e+01)	(3.225379e+00 0.000000e+00 -2.929469e+01)	(-2.330795e-05 6.541447e-02 -1.524714e-03)
823           	(3.225333e+00 6.542230e-02 -2.929596e+01)	(3.225357e+00 0.000000e+00 -2.929444e+01)	(-2.410789e-05 6.542230e-02 -1.517570e-03)
824           	(3.225310e+00 6.542986e-02 -2.929571e+01)	(3.225335e+00 0.000000e+00 -2.929420e+01)	(-2.490386e-05 6.542986e-02 -1.510461e-03)
825           	(3.225287e+00 6.543713e-02 -2.929547e+01)	(3.225312e+00 0.000000e+00 -2.929396e+01)	(-2.568602e-05 6.543713e-02 -1.503447e-03)
826           	(3.225264e+00 6.544416e-02 -2.929522e+01)	(3.225291e+00 0.000000e+00 -2.929372e+01)	(-2.646613e-05 6.544416e-02 -1.496470e-03)
827           	(3.225242e+00 6.545092e-02 -2.929498e+01)	(3.225269e+00 0.000000e+00 -2.929349e+01)	(-2.724433e-05 6.545092e-02 -1.489453e-03)
828           	(3.225219e+00 6.545743e-02 -2.929473e+01)	(3.225247e+00 0.000000e+00 -2.929325e+01)	(-2.802359e-05 6.545743e-02 -1.482415e-03)
829           	(3.225197e+00 6.546370e-02 -2.929449e+01)	(3.225226e+00 0.000000e+00 -2.929301e+01)	(-2.879421e-05 6.546370e-02 -1.475444e-03)
830           	(3.225175e+00 6.546976e-02 -2.929425e+01)	(3.225205e+00 0.000000e+00 -2.929278e+01)	(-2.955750e-05 6.546976e-02 -1.468553e-03)
831           	(3.225154e+00 6.547559e-02 -2.929401e+01)	(3.225184e+00 0.000000e+00 -2.929255e+01)	(-3.031355e-05 6.547559e-02 -1.461713e-03)
832           	(3.225132e+00 6.548120e-02 -2.929378e+01)	(3.225163e+00 0.000000e+00 -2.929232e+01)	(-3.106493e-05 6.548120e-02 -1.454909e-03)
833           	(3.225111e+00 6.548661e-02 -2.929354e+01)	(3.225143e+00 0.000000e+00 -2.929209e+01)	(-3.181506e-05 6.548661e-02 -1.448132e-03)
834           	(3.225090e+00 6.549181e-02 -2.929331e+01)	(3.225122e+00 0.000000e+00 -2.929187e+01)	(-3.256367e-05 6.549181e-02 -1.441365e-03)
835           	(3.225069e+00 6.549682e-02 -2.929308e+01)	(3.225102e+00 0.000000e+00 -2.929165e+01)	(-3.330881e-05 6.549682e-02 -1.434624e-03)
836           	(3.225048e+00 6.550164e-02 -2.929285e+01)	(3.225082e+00 0.000000e+00 -2.929142e+01)	(-3.404571e-05 6.550164e-02 -1.427952e-03)
837           	(3.225028e+00 6.550628e-02 -2.929263e+01)	(3.225063e+00 0.000000e+00 -2.929120e+01)	(-3.477719e-05 6.550628e-02 -1.421321e-03)
838           	(3.225008e+00 6.551075e-02 -2.929240e+01)	(3.225043e+00 0.000000e+00 -2.929099e+01)	(-3.550523e-05 6.551075e-02 -1.414707e-03)
839           	(3.224988e+00 6.551506e-02 -2.929218e+01)	(3.225024e+00 0.000000e+00 -2.929077e+01)	(-3.622392e-05 6.551506e-02 -1.408175e-03)
840           	(3.224968e+00 6.551921e-02 -2.929196e+01)	(3.225005e+00 0.000000e+00 -2.929056e+01)	(-3.693635e-05 6.551921e-02 -1.401718e-03)
841           	(3.224949e+00 6.552322e-02 -2.929175e+01)	(3.224987e+00 0.000000e+00 -2.929035e+01)	(-3.764267e-05 6.552322e-02 -1.395287e-03)
842           	(3.224930e+00 6.552707e-02 -2.929153e+01)	(3.224968e+00 0.000000e+00 -2.929015e+01)	(-3.834459e-05 6.552707e-02 -1.388886e-03)
843           	(3.224911e+00 6.553079e-02 -2.929132e+01)	(3.224950e+00 0.000000e+00 -2.928994e+01)	(-3.904355e-05 6.553079e-02 -1.382506e-03)
844           	(3.224892e+00 6.553437e-02 -2.929111e+01)	(3.224932e+00 0.000000e+00 -2.928974e+01)	(-3.974618e-05 6.553437e-02 -1.376114e-03)
845           	(3.224874e+00 6.553782e-02 -2.929091e+01)	(3.224915e+00 0.000000e+00 -2.928954e+01)	(-4.044556e-05 6.553782e-02 -1.369705e-03)
846           	(3.224856e+00 6.554115e-02 -2.929070e+01)	(3.224897e+00 0.000000e+00 -2.928934e+01)	(-4.113687e-05 6.554115e-02 -1.363371e-03)
847           	(3.224838e+00 6.554435e-02 -2.929050e+01)	(3.224880e+00 0.000000e+00 -2.928914e+01)	(-4.181411e-05 6.554435e-02 -1.357146e-03)
848           	(3.224820e+00 6.554744e-02 -2.929030e+01)	(3.224863e+00 0.000000e+00 -2.928895e+01)	(-4.248948e-05 6.554744e-02 -1.350996e-03)
849           	(3.224803e+00 6.555041e-02 -2.929011e+01)	(3.224846e+00 0.000000e+00 -2.928876e+01)	(-4.315561e-05 6.555041e-02 -1.344898e-03)
850           	(3.224785e+00 6.555329e-02 -2.928991e+01)	(3.224829e+00 0.000000e+00 -2.928857e+01)	(-4.382020e-05 6.555329e-02 -1.338816e-03)
851           	(3.224769e+00 6.555608e-02 -2.928972e+01)	(3.224813e+00 0.000000e+00 -2.928839e+01)	(-4.448243e-05 6.555608e-02 -1.332774e-03)
852           	(3.224752e+00 6.555878e-02 -2.928953e+01)	(3.224797e+00 0.000000e+00 -2.928820e+01)	(-4.513776e-05 6.555878e-02 -1.326768e-03)
853           	(3.224735e+00 6.556138e-02 -2.928934e+01)	(3.224781e+00 0.000000e+00 -2.928802e+01)	(-4.578573e-05 6.556138e-02 -1.320822e-03)
854           	(3.224719e+00 6.556390e-02 -2.928916e+01)	(3.224766e+00 0.000000e+00 -2.928785e+01)	(-4.643025e-05 6.556390e-02 -1.314915e-03)
855           	(3.224703e+00 6.556634e-02 -2.928898e+01)	(3.224750e+00 0.000000e+00 -2.928767e+01)	(-4.707378e-05 6.556634e-02 -1.309035e-03)
856           	(3.224688e+00 6.556870e-02 -2.928880e+01)	(3.224735e+00 0.000000e+00 -2.928750e+01)	(-4.771489e-05 6.556870e-02 -1.303186e-03)
857           	(3.224672e+00 6.557098e-02 -2.928863e+01)	(3.224721e+00 0.000000e+00 -2.928733e+01)	(-4.835140e-05 6.557098e-02 -1.297366e-03)
858           	(3.224657e+00 6.557321e-02 -2.928845e+01)	(3.224706e+00 0.000000e+00 -2.928716e+01)	(-4.898129e-05 6.557321e-02 -1.291600e-03)
859           	(3.224642e+00 6.557536e-02 -2.928828e+01)	(3.224692e+00 0.000000e+00 -2.928700e+01)	(-4.960193e-05 6.557536e-02 -1.285910e-03)
860           	(3.224627e+00 6.557746e-02 -2.928812e+01)	(3.224678e+00 0.000000e+00 -2.928684e+01)	(-5.021877e-05 6.557746e-02 -1.280274e-03)
861           	(3.224613e+00 6.557949e-02 -2.928795e+01)	(3.224664e+00 0.000000e+00 -2.928668e+01)	(-5.083456e-05 6.557949e-02 -1.274661e-03)
862           	(3.224599e+00 6.558148e-02 -2.928779e+01)	(3.224650e+00 0.000000e+00 -2.928652e+01)	(-5.145352e-05 6.558148e-02 -1.269061e-03)
863           	(3.224585e+00 6.558340e-02 -2.928763e+01)	(3.224637e+00 0.000000e+00 -2.928637e+01)	(-5.205667e-05 6.558340e-02 -1.263523e-03)
864           	(3.224571e+00 6.558528e-02 -2.928747e+01)	(3.224623e+00 0.000000e+00 -2.928622e+01)	(-5.266523e-05 6.558528e-02 -1.258017e-03)
865           	(3.224557e+00 6.558710e-02 -2.928732e+01)	(3.224610e+00 0.000000e+00 -2.928607e+01)	(-5.326598e-05 6.558710e-02 -1.252566e-03)
866           	(3.224544e+00 6.558887e-02 -2.928717e+01)	(3.224598e+00 0.000000e+00 -2.928592e+01)	(-5.385841e-05 6.558887e-02 -1.247184e-03)
867           	(3.224531e+00 6.559061e-02 -2.928702e+01)	(3.224585e+00 0.000000e+00 -2.928578e+01)	(-5.444531e-05 6.559061e-02 -1.241833e-03)
868           	(3.224518e+00 6.559231e-02 -2.928687e+01)	(3.224573e+00 0.000000e+00 -2.928563e+01)	(-5.503150e-05 6.559231e-02 -1.236467e-03)
869           	(3.224505e+00 6.559397e-02 -2.928673e+01)	(3.224560e+00 0.000000e+00 -2.928550e+01)	(-5.561971e-05 6.559397e-02 -1.231093e-03)
870           	(3.224492e+00 6.559560e-02 -2.928658e+01)	(3.224548e+00 0.000000e+00 -2.928536e+01)	(-5.620237e-05 6.559560e-02 -1.225783e-03)
871           	(3.224480e+00 6.559720e-02 -2.928644e+01)	(3.224536e+00 0.000000e+00 -2.928522e+01)	(-5.677483e-05 6.559720e-02 -1.220558e-03)
872           	(3.224467e+00 6.559877e-02 -2.928631e+01)	(3.224525e+00 0.000000e+00 -2.928509e+01)	(-5.734336e-05 6.559877e-02 -1.215388e-03)
873           	(3.224455e+00 6.560032e-02 -2.928617e+01)	(3.224513e+00 0.000000e+00 -2.928496e+01)	(-5.790778e-05 6.560032e-02 -1.210264e-03)
874           	(3.224444e+00 6.560184e-02 -2.928604e+01)	(3.224502e+00 0.000000e+00 -2.928484e+01)	(-5.846375e-05 6.560184e-02 -1.205183e-03)
875           	(3.224432e+00 6.560334e-02 -2.928591e+01)	(3.224491e+00 0.000000e+00 -2.928471e+01)	(-5.901928e-05 6.560334e-02 -1.200121e-03)
876           	(3.224421e+00 6.560482e-02 -2.928578e+01)	(3.224480e+00 0.000000e+00 -2.928459e+01)	(-5.957165e-05 6.560482e-02 -1.195077e-03)
877           	(3.224410e+00 6.560629e-02 -2.928566e+01)	(3.224470e+00 0.000000e+00 -2.928447e+01)	(-6.012271e-05 6.560629e-02 -1.190069e-03)
878           	(3.224399e+00 6.560774e-02 -2.928554e+01)	(3.224460e+00 0.000000e+00 -2.928435e+01)	(-6.066545e-05 6.560774e-02 -1.185127e-03)
879           	(3.224388e+00 6.560918e-02 -2.928542e+01)	(3.224449e+00 0.000000e+00 -2.928424e+01)	(-6.119938e-05 6.560918e-02 -1.180289e-03)
880           	(3.224378e+00 6.561061e-02 -2.928530e+01)	(3.224440e+00 0.000000e+00 -2.928413e+01)	(-6.172625e-05 6.561061e-02 -1.175506e-03)
881           	(3.224368e+00 6.561203e-02 -2.928519e+01)	(3.224430e+00 0.000000e+00 -2.928402e+01)	(-6.226300e-05 6.561203e-02 -1.170632e-03)
882           	(3.224358e+00 6.561344e-02 -2.928508e+01)	(3.224420e+00 0.000000e+00 -2.928391e+01)	(-6.280457e-05 6.561344e-02 -1.165722e-03)
883           	(3.224348e+00 6.561484e-02 -2.928497e+01)	(3.224411e+00 0.000000e+00 -2.928380e+01)	(-6.333337e-05 6.561484e-02 -1.160897e-03)
884           	(3.224338e+00 6.561623e-02 -2.928486e+01)	(3.224402e+00 0.000000e+00 -2.928370e+01)	(-6.385450e-05 6.561623e-02 -1.156161e-03)
885           	(3.224329e+00 6.561761e-02 -2.928475e+01)	(3.224393e+00 0.000000e+00 -2.928360e+01)	(-6.437398e-05 6.561761e-02 -1.151464e-03)
886           	(3.224319e+00 6.561899e-02 -2.928465e+01)	(3.224384e+00 0.000000e+00 -2.928350e+01)	(-6.489109e-05 6.561899e-02 -1.146779e-03)
887           	(3.224310e+00 6.562037e-02 -2.928455e+01)	(3.224376e+00 0.000000e+00 -2.928341e+01)	(-6.540711e-05 6.562037e-02 -1.142121e-03)
888           	(3.224301e+00 6.562174e-02 -2.928445e+01)	(3.224367e+00 0.000000e+00 -2.928331e+01)	(-6.591482e-05 6.562174e-02 -1.137516e-03)
889           	(3.224293e+00 6.562310e-02 -2.928435e+01)	(3.224359e+00 0.000000e+00 -2.928322e+01)	(-6.641699e-05 6.562310e-02 -1.132954e-03)
890           	(3.224284e+00 6.562447e-02 -2.928426e+01)	(3.224351e+00 0.000000e+00 -2.928313e+01)	(-6.692487e-05 6.562447e-02 -1.128402e-03)
891           	(3.224276e+00 6.562583e-02 -2.928417e+01)	(3.224343e+00 0.000000e+00 -2.928304e+01)	(-6.742698e-05 6.562583e-02 -1.123885e-03)
892           	(3.224268e+00 6.562720e-02 -2.928408e+01)	(3.224336e+00 0.000000e+00 -2.928296e+01)	(-6.792294e-05 6.562720e-02 -1.119393e-03)
893           	(3.224260e+00 6.562857e-02 -2.928399e+01)	(3.224328e+00 0.000000e+00 -2.928287e+01)	(-6.841471e-05 6.562857e-02 -1.114949e-03)
894           	(3.224252e+00 6.562993e-02 -2.928390e+01)	(3.224321e+00 0.000000e+00 -2.928279e+01)	(-6.890352e-05 6.562993e-02 -1.110555e-03)
895           	(3.224244e+00 6.563131e-02 -2.928382e+01)	(3.224313e+00 0.000000e+00 -2.928271e+01)	(-6.938888e-05 6.563131e-02 -1.106200e-03)
896           	(3.224237e+00 6.563269e-02 -2.928374e+01)	(3.224306e+00 0.000000e+00 -2.928264e+01)	(-6.987123e-05 6.563269e-02 -1.101861e-03)
897           	(3.224229e+00 6.563407e-02 -2.928366e+01)	(3.224300e+00 0.000000e+00 -2.928256e+01)	(-7.035255e-05 6.563407e-02 -1.097525e-03)
898           	(3.224222e+00 6.563546e-02 -2.928358e+01)	(3.224293e+00 0.000000e+00 -2.928249e+01)	(-7.083335e-05 6.563546e-02 -1.093199e-03)
899           	(3.224215e+00 6.563686e-02 -2.928351e+01)	(3.224286e+00 0.000000e+00 -2.928242e+01)	(-7.131475e-05 6.563686e-02 -1.088902e-03)
900           	(3.224208e+00 6.563826e-02 -2.928343e+01)	(3.224280e+00 0.000000e+00 -2.928235e+01)	(-7.178332e-05 6.563826e-02 -1.084671e-03)
901           	(3.224201e+00 6.563967e-02 -2.928336e+01)	(3.224274e+00 0.000000e+00 -2.928228e+01)	(-7.225396e-05 6.563967e-02 -1.080477e-03)
902           	(3.224195e+00 6.564108e-02 -2.928329e+01)	(3.224268e+00 0.000000e+00 -2.928222e+01)	(-7.271751e-05 6.564108e-02 -1.076315e-03)
903           	(3.224188e+00 6.564251e-02 -2.928323e+01)	(3.224262e+00 0.000000e+00 -2.928215e+01)	(-7.318442e-05 6.564251e-02 -1.072155e-03)
904           	(3.224182e+00 6.564395e-02 -2.928316e+01)	(3.224256e+00 0.000000e+00 -2.928209e+01)	(-7.364504e-05 6.564395e-02 -1.068011e-03)
905           	(3.224176e+00 6.564540e-02 -2.928310e+01)	(3.224250e+00 0.000000e+00 -2.928203e+01)	(-7.409768e-05 6.564540e-02 -1.063903e-03)
906           	(3.224170e+00 6.564686e-02 -2.928304e+01)	(3.224245e+00 0.000000e+00 -2.928198e+01)	(-7.454866e-05 6.564686e-02 -1.059827e-03)
907           	(3.224165e+00 6.564833e-02 -2.928298e+01)	(3.224240e+00 0.000000e+00 -2.928192e+01)	(-7.500113e-05 6.564833e-02 -1.055769e-03)
908           	(3.224159e+00 6.564980e-02 -2.928292e+01)	(3.224234e+00 0.000000e+00 -2.928187e+01)	(-7.545289e-05 6.564980e-02 -1.051720e-03)
909           	(3.224153e+00 6.565129e-02 -2.928286e+01)	(3.224229e+00 0.000000e+00 -2.928182e+01)	(-7.590437e-05 6.565129e-02 -1.047681e-03)
910           	(3.224148e+00 6.565279e-02 -2.928281e+01)	(3.224224e+00 0.000000e+00 -2.928177e+01)	(-7.635558e-05 6.565279e-02 -1.043671e-03)
911           	(3.224143e+00 6.565429e-02 -2.928276e+01)	(3.224220e+00 0.000000e+00 -2.928172e+01)	(-7.679391e-05 6.565429e-02 -1.039728e-03)