# p  FACE_DATA 398
# x  y  z  p
-0.7975 -7.61524e-06 0 225.796
-0.79239 -7.61524e-06 0 155.26
-0.787056 -7.61524e-06 0 118.092
-0.781492 -7.61524e-06 0 108.187
-0.775691 -7.61524e-06 0 101.297
-0.769649 -7.61524e-06 0 95.8629
-0.763361 -7.61524e-06 0 91.3993
-0.756822 -7.61524e-06 0 87.6436
-0.750025 -7.61524e-06 0 84.3365
-0.742968 -7.61524e-06 0 81.4643
-0.735648 -7.61524e-06 0 79.2217
-0.72806 -7.61524e-06 0 77.3754
-0.720203 -7.61524e-06 0 75.724
-0.712075 -7.61524e-06 0 74.2887
-0.703676 -7.61524e-06 0 73.0513
-0.695006 -7.61524e-06 0 71.9279
-0.686065 -7.61524e-06 0 70.8856
-0.676855 -7.61524e-06 0 69.9383
-0.667379 -7.61524e-06 0 69.0874
-0.657641 -7.61524e-06 0 68.3095
-0.647644 -7.61524e-06 0 67.5995
-0.637398 -7.61524e-06 0 66.9606
-0.626906 -7.61524e-06 0 66.3745
-0.616179 -7.61524e-06 0 65.8254
-0.605225 -7.61524e-06 0 65.3067
-0.594054 -7.61524e-06 0 64.8158
-0.582677 -7.61524e-06 0 64.3571
-0.57111 -7.61524e-06 0 63.9382
-0.559364 -7.61524e-06 0 63.5552
-0.547454 -7.61524e-06 0 63.2004
-0.535396 -7.61524e-06 0 62.8693
-0.523205 -7.61524e-06 0 62.56
-0.510901 -7.61524e-06 0 62.2676
-0.498499 -7.61524e-06 0 61.9869
-0.486021 -7.61524e-06 0 61.7158
-0.473482 -7.61524e-06 0 61.4609
-0.460905 -7.61524e-06 0 61.2313
-0.448307 -7.61524e-06 0 61.0276
-0.435709 -7.61524e-06 0 60.8402
-0.42313 -7.61524e-06 0 60.6564
-0.41059 -7.61524e-06 0 60.4682
-0.39811 -7.61524e-06 0 60.2827
-0.385706 -7.61524e-06 0 60.114
-0.373398 -7.61524e-06 0 59.9741
-0.361205 -7.61524e-06 0 59.8632
-0.349142 -7.61524e-06 0 59.7662
-0.337226 -7.61524e-06 0 59.6605
-0.325475 -7.61524e-06 0 59.53
-0.313901 -7.61524e-06 0 59.384
-0.30252 -7.61524e-06 0 59.2388
-0.291343 -7.61524e-06 0 59.1122
-0.280381 -7.61524e-06 0 59.0223
-0.269647 -7.61524e-06 0 58.9751
-0.259148 -7.61524e-06 0 58.9675
-0.248893 -7.61524e-06 0 58.9828
-0.23889 -7.61524e-06 0 58.9784
-0.229143 -7.61524e-06 0 58.9407
-0.219659 -7.61524e-06 0 58.8774
-0.210441 -7.61524e-06 0 58.8126
-0.201491 -7.61524e-06 0 58.8151
-0.192812 -7.61524e-06 0 59.2838
-0.184405 -7.61524e-06 0 60.852
-0.176269 -7.61524e-06 0 64.5371
-0.168404 -7.61524e-06 0 70.4549
-0.160809 -7.61524e-06 0 77.2304
-0.15348 -7.61524e-06 0 83.2578
-0.146415 -7.61524e-06 0 88.3149
-0.13961 -7.61524e-06 0 92.0947
-0.133063 -7.61524e-06 0 94.9862
-0.126767 -7.61524e-06 0 97.3301
-0.120717 -7.61524e-06 0 99.1733
-0.11491 -7.61524e-06 0 100.63
-0.109339 -7.61524e-06 0 101.802
-0.103997 -7.61524e-06 0 102.754
-0.0988804 -7.61524e-06 0 103.578
-0.0939809 -7.61524e-06 0 104.182
-0.0892928 -7.61524e-06 0 104.744
-0.0848096 -7.61524e-06 0 105.264
-0.0805248 -7.61524e-06 0 105.824
-0.0764317 -7.61524e-06 0 106.466
-0.0725237 -7.61524e-06 0 107.213
-0.0687943 -7.61524e-06 0 108.071
-0.065237 -7.61524e-06 0 109.02
-0.0618454 -7.61524e-06 0 110.029
-0.058613 -7.61524e-06 0 111.085
-0.0555337 -7.61524e-06 0 112.181
-0.0526013 -7.61524e-06 0 113.306
-0.0498099 -7.61524e-06 0 114.439
-0.0471536 -7.61524e-06 0 115.567
-0.0446266 -7.61524e-06 0 116.675
-0.0422235 -7.61524e-06 0 117.747
-0.0399389 -7.61524e-06 0 118.767
-0.0377676 -7.61524e-06 0 119.731
-0.0357044 -7.61524e-06 0 120.637
-0.0337445 -7.61524e-06 0 121.485
-0.0318832 -7.61524e-06 0 122.275
-0.0301159 -7.61524e-06 0 123.01
-0.0284383 -7.61524e-06 0 123.69
-0.0268462 -7.61524e-06 0 124.317
-0.0253353 -7.61524e-06 0 124.892
-0.023902 -7.61524e-06 0 125.417
-0.0225425 -7.61524e-06 0 125.893
-0.0212532 -7.61524e-06 0 126.324
-0.0200306 -7.61524e-06 0 126.714
-0.0188715 -7.61524e-06 0 127.069
-0.0177727 -7.61524e-06 0 127.397
-0.0167313 -7.61524e-06 0 127.707
-0.0157444 -7.61524e-06 0 128.009
-0.0148093 -7.61524e-06 0 128.312
-0.0139232 -7.61524e-06 0 128.625
-0.0130838 -7.61524e-06 0 128.956
-0.0122887 -7.61524e-06 0 129.31
-0.0115355 -7.61524e-06 0 129.692
-0.0108223 -7.61524e-06 0 130.109
-0.0101469 -7.61524e-06 0 130.56
-0.00950727 -7.61524e-06 0 131.046
-0.00890169 -7.61524e-06 0 131.564
-0.00832834 -7.61524e-06 0 132.111
-0.00778557 -7.61524e-06 0 132.683
-0.00727176 -7.61524e-06 0 133.277
-0.00678541 -7.61524e-06 0 133.896
-0.00632507 -7.61524e-06 0 134.537
-0.00588937 -7.61524e-06 0 135.169
-0.00547703 -7.61524e-06 0 135.797
-0.00508681 -7.61524e-06 0 136.419
-0.00471753 -7.61524e-06 0 137.03
-0.0043681 -7.61524e-06 0 137.626
-0.00403746 -7.61524e-06 0 138.201
-0.00372461 -7.61524e-06 0 138.751
-0.0034286 -7.61524e-06 0 139.273
-0.00314855 -7.61524e-06 0 139.762
-0.00288361 -7.61524e-06 0 140.217
-0.00263295 -7.61524e-06 0 140.635
-0.00239582 -7.61524e-06 0 141.016
-0.00217149 -7.61524e-06 0 141.36
-0.00195929 -7.61524e-06 0 141.665
-0.00175856 -7.61524e-06 0 141.934
-0.00156869 -7.61524e-06 0 142.167
-0.00138908 -7.61524e-06 0 142.365
-0.00121921 -7.61524e-06 0 142.531
-0.00105853 -7.61524e-06 0 142.666
-0.000906546 -7.61524e-06 0 142.772
-0.000762803 -7.61524e-06 0 142.851
-0.000626849 -7.61524e-06 0 142.905
-0.000498266 -7.61524e-06 0 142.937
-0.000376656 -7.61524e-06 0 142.947
-0.000261642 -7.61524e-06 0 142.933
-0.00015287 -7.61524e-06 0 142.882
-5e-05 -7.61524e-06 0 142.841
4.14596e-05 2.03453e-05 0 142.302
0.000125379 7.69412e-05 0 142.203
0.000211356 0.000134924 0 142.106
0.000299438 0.000194328 0 142.031
0.000389678 0.000255186 0 141.968
0.000482128 0.000317535 0 141.909
0.000576841 0.000381409 0 141.853
0.000673871 0.000446848 0 141.796
0.000773276 0.000513887 0 141.738
0.000875112 0.000582565 0 141.68
0.000979439 0.000652924 0 141.621
0.00108632 0.000725003 0 141.561
0.00119581 0.000798843 0 141.502
0.00130797 0.000874487 0 141.444
0.00142287 0.000951979 0 141.385
0.00154058 0.00103136 0 141.328
0.00166117 0.00111268 0 141.274
0.00178469 0.00119599 0 141.223
0.00191123 0.00128133 0 141.176
0.00204085 0.00136875 0 141.135
0.00217364 0.0014583 0 141.101
0.00230966 0.00155003 0 141.075
0.00244899 0.001644 0 141.057
0.00259171 0.00174025 0 141.053
0.00273791 0.00183885 0 141.062
0.00288767 0.00193985 0 141.086
0.00304108 0.0020433 0 141.127
0.0031982 0.00214927 0 141.189
0.00335915 0.00225781 0 141.272
0.003524 0.002369 0 141.379
0.00369286 0.00248287 0 141.511
0.00386582 0.00259951 0 141.671
0.00404297 0.00271899 0 141.859
0.00422442 0.00284136 0 142.076
0.00441026 0.00296669 0 142.325
0.0046006 0.00309506 0 142.604
0.00479556 0.00322653 0 142.916
0.00499523 0.00336119 0 143.26
0.00519972 0.00349911 0 143.638
0.00540916 0.00364036 0 144.052
0.00562366 0.00378501 0 144.501
0.00584334 0.00393316 0 144.988
0.00606831 0.00408489 0 145.514
0.00629871 0.00424027 0 146.081
0.00653466 0.0043994 0 146.69
0.00677629 0.00456236 0 147.343
0.00702374 0.00472923 0 148.043
0.00727714 0.00490013 0 148.791
0.00753663 0.00507513 0 149.588
0.00780234 0.00525433 0 150.436
0.00807444 0.00543783 0 151.338
0.00835306 0.00562573 0 152.293
0.00863835 0.00581814 0 153.305
0.00893047 0.00601514 0 154.373
0.00922958 0.00621687 0 155.5
0.00953584 0.00642341 0 156.687
0.00984939 0.00663489 0 157.935
0.0101705 0.00685141 0 159.249
0.0104992 0.00707309 0 160.625
0.0108357 0.00730005 0 162.067
0.0111802 0.00753241 0 163.583
0.011533 0.0077703 0 165.17
0.0118941 0.00801384 0 166.833
0.0122638 0.00826316 0 168.575
0.0126422 0.00851837 0 170.395
0.0130296 0.00877964 0 172.307
0.0134262 0.00904708 0 174.307
0.0138321 0.00932084 0 176.404
0.0142476 0.00960107 0 178.597
0.0146729 0.00988792 0 180.904
0.0151082 0.0101815 0 183.316
0.0155538 0.0104819 0 185.85
0.0160098 0.0107895 0 188.508
0.0164766 0.0111042 0 191.305
0.0169542 0.0114263 0 194.241
0.0174429 0.011756 0 197.336
0.0179431 0.0120934 0 200.599
0.018455 0.0124386 0 204.039
0.0189789 0.0127918 0 207.679
0.0195149 0.0131533 0 211.533
0.0200633 0.0135232 0 215.636
0.0206245 0.0139016 0 220.014
0.0211986 0.0142888 0 224.692
0.0217861 0.014685 0 229.725
0.022387 0.0150903 0 235.143
0.0230018 0.0155049 0 241.007
0.0236307 0.0159291 0 247.373
0.0242741 0.0163629 0 254.3
0.0249322 0.0168068 0 261.854
0.0256053 0.0172608 0 270.126
0.0262939 0.0177251 0 279.221
0.0269981 0.0182 0 289.253
0.0277183 0.0186857 0 300.424
0.0284548 0.0191825 0 312.923
0.029208 0.0196904 0 327.11
0.0299782 0.0202098 0 343.44
0.0307658 0.0207409 0 362.517
0.031571 0.021284 0 385.028
0.0323942 0.0218393 0 411.393
0.033236 0.0224069 0 441.81
0.0340965 0.0229872 0 476.363
0.0349762 0.0235805 0 515.131
0.0358753 0.0241869 0 558.138
0.0367944 0.0248067 0 605.632
0.0377338 0.0254403 0 657.605
0.0386938 0.0260877 0 714.539
0.039675 0.0267494 0 776.852
0.0406776 0.0274256 0 845.267
0.0417021 0.0281165 0 920.501
0.0427488 0.0288225 0 1003.73
0.0438183 0.0295437 0 1095.64
0.0449109 0.0302805 0 1197.13
0.046027 0.0310332 0 1309.34
0.0471671 0.0318021 0 1432.43
0.0483315 0.0325874 0 1566.18
0.0495209 0.0333895 0 1709.04
0.0507354 0.0342086 0 1860.22
0.0519756 0.035045 0 2021.32
0.053242 0.0358991 0 2198.5
0.054535 0.036771 0 2395.56
0.0558549 0.0376613 0 2605.26
0.0572024 0.03857 0 2800.96
0.0585778 0.0394976 0 2957.5
0.0599816 0.0404443 0 3074.1
0.0614142 0.0414105 0 3165.51
0.0628761 0.0423964 0 3223.8
0.0643678 0.0434024 0 3246.1
0.0658897 0.0444287 0 3255.04
0.0674422 0.0454758 0 3257.08
0.069026 0.0465439 0 3206.87
0.0706413 0.0476333 0 3131.6
0.0722886 0.0487443 0 3024.78
0.0739685 0.0498771 0 2892.21
0.0756813 0.0510323 0 2736.32
0.0774275 0.05221 0 2563.18
0.0792077 0.0534105 0 2390.77
0.0810221 0.0546342 0 2247.91
0.0828712 0.0558812 0 2135.44
0.0847556 0.0571521 0 2049.96
0.0866757 0.058447 0 1991.37
0.0886318 0.0597661 0 1954
0.0906244 0.06111 0 1927.41
0.0926539 0.0624787 0 1905.85
0.0947207 0.0638726 0 1889.13
0.0968252 0.0652919 0 1883.17
0.0989682 0.066737 0 1885.64
0.101149 0.068208 0 1888.3
0.103369 0.0697052 0 1890.63
0.105629 0.0712289 0 1896.76
0.107928 0.0727794 0 1908.13
0.110267 0.0743568 0 1909.75
0.112646 0.0759614 0 1909.28
0.115066 0.0775934 0 1905.94
0.117527 0.079253 0 1912.66
0.120029 0.0809404 0 1927.01
0.122572 0.0826558 0 1937.32
0.125158 0.0843994 0 1935.41
0.127785 0.0861713 0 1925.6
0.130454 0.0879717 0 1913.76
0.133167 0.0898008 0 1911.48
0.135921 0.0916586 0 1919.83
0.138719 0.0935453 0 1934.2
0.141559 0.095461 0 1942.14
0.144443 0.0974057 0 1945.06
0.14737 0.0993798 0 1939.29
0.15034 0.101383 0 1939.04
0.153354 0.103415 0 1947.98
0.156411 0.105477 0 1956.69
0.159511 0.107568 0 1962.04
0.162655 0.109688 0 1968.92
0.165842 0.111837 0 1973.83
0.169073 0.114016 0 1983.31
0.172346 0.116223 0 1993.73
0.175663 0.118461 0 1992.48
0.179022 0.120727 0 1982.23
0.182425 0.123021 0 1974.44
0.18587 0.125344 0 1975.02
0.189357 0.127696 0 1978.67
0.192886 0.130076 0 1982.1
0.196457 0.132484 0 1983.71
0.200069 0.13492 0 1985.03
0.203722 0.137384 0 1986.9
0.207416 0.139875 0 1984.64
0.21115 0.142393 0 1978.88
0.214924 0.144938 0 1967.26
0.218736 0.147509 0 1954.05
0.222587 0.150107 0 1947.99
0.226476 0.152729 0 1941.05
0.230403 0.155377 0 1932.04
0.234366 0.15805 0 1918.22
0.238366 0.160748 0 1904.43
0.242401 0.163469 0 1894.36
0.24647 0.166214 0 1890.39
0.250573 0.168981 0 1886.37
0.25471 0.17177 0 1876.01
0.258878 0.174582 0 1864.11
0.263078 0.177414 0 1859.03
0.267309 0.180266 0 1855.51
0.271568 0.183139 0 1861.06
0.275856 0.186031 0 1858.03
0.280172 0.188942 0 1851.13
0.284514 0.19187 0 1843.37
0.288881 0.194815 0 1843.54
0.293272 0.197777 0 1843.75
0.297687 0.200754 0 1842.68
0.302124 0.203746 0 1843.99
0.306581 0.206752 0 1840.5
0.311058 0.209772 0 1837.57
0.315554 0.212804 0 1836.48
0.320067 0.215847 0 1833.62
0.324595 0.218901 0 1838.12
0.329138 0.221965 0 1837.17
0.333695 0.225038 0 1831.9
0.338264 0.228119 0 1828.84
0.342843 0.231208 0 1827.83
0.347432 0.234302 0 1828.76
0.352029 0.237402 0 1829.12
0.356632 0.240507 0 1828.51
0.361241 0.243616 0 1824.2
0.365854 0.246727 0 1821.8
0.370469 0.249839 0 1823.04
0.375085 0.252953 0 1826.09
0.379702 0.256066 0 1831.28
0.384317 0.259178 0 1832.72
0.388929 0.262289 0 1830.89
0.393537 0.265396 0 1827.56
0.398139 0.2685 0 1822.78
0.402734 0.271598 0 1824.68
0.407321 0.274692 0 1830.58
0.411898 0.277779 0 1838.23
0.416464 0.280858 0 1840.36
0.421017 0.283929 0 1842.2
0.425557 0.286991 0 1837.97
0.430082 0.290042 0 1830.01
0.434591 0.293083 0 1821.77
0.439082 0.296112 0 1818.81
0.443555 0.299128 0 1821.45
0.448008 0.302131 0 1835.69
0.45244 0.30512 0 1848.24
0.456849 0.308094 0 1854.56
0.461235 0.311052 0 1858.85
0.465596 0.313993 0 1852.82
0.469932 0.316917 0 1845.18
0.474241 0.319823 0 1825.34
0.478523 0.322711 0 1814.43
0.482776 0.325579 0 1805.55
0.486999 0.328427 0 1808
0.491191 0.331254 0 1817.86
0.495353 0.334061 0 1848.43
