# wallHeatFlux  FACE_DATA 398
# x  y  z  wallHeatFlux
-0.7975 -7.61524e-06 0 -98551.4
-0.79239 -7.61524e-06 0 -22460.2
-0.787056 -7.61524e-06 0 -13918
-0.781492 -7.61524e-06 0 -10969.2
-0.775691 -7.61524e-06 0 -9216.04
-0.769649 -7.61524e-06 0 -8010.15
-0.763361 -7.61524e-06 0 -7121.32
-0.756822 -7.61524e-06 0 -6428.17
-0.750025 -7.61524e-06 0 -5867.76
-0.742968 -7.61524e-06 0 -5408.38
-0.735648 -7.61524e-06 0 -5033.57
-0.72806 -7.61524e-06 0 -4722.24
-0.720203 -7.61524e-06 0 -4453.3
-0.712075 -7.61524e-06 0 -4221.49
-0.703676 -7.61524e-06 0 -4016.06
-0.695006 -7.61524e-06 0 -3837.07
-0.686065 -7.61524e-06 0 -3673.9
-0.676855 -7.61524e-06 0 -3526.57
-0.667379 -7.61524e-06 0 -3395.07
-0.657641 -7.61524e-06 0 -3279.49
-0.647644 -7.61524e-06 0 -3163.62
-0.637398 -7.61524e-06 0 -3058.28
-0.626906 -7.61524e-06 0 -2968.99
-0.616179 -7.61524e-06 0 -2884.72
-0.605225 -7.61524e-06 0 -2805.77
-0.594054 -7.61524e-06 0 -2732.03
-0.582677 -7.61524e-06 0 -2663.42
-0.57111 -7.61524e-06 0 -2594.66
-0.559364 -7.61524e-06 0 -2536.57
-0.547454 -7.61524e-06 0 -2478.3
-0.535396 -7.61524e-06 0 -2425.3
-0.523205 -7.61524e-06 0 -2372.07
-0.510901 -7.61524e-06 0 -2329.59
-0.498499 -7.61524e-06 0 -2286.89
-0.486021 -7.61524e-06 0 -2244.12
-0.473482 -7.61524e-06 0 -2201.24
-0.460905 -7.61524e-06 0 -2163.6
-0.448307 -7.61524e-06 0 -2131.31
-0.435709 -7.61524e-06 0 -2098.94
-0.42313 -7.61524e-06 0 -2066.43
-0.41059 -7.61524e-06 0 -2039.26
-0.39811 -7.61524e-06 0 -2006.64
-0.385706 -7.61524e-06 0 -1979.32
-0.373398 -7.61524e-06 0 -1957.39
-0.361205 -7.61524e-06 0 -1935.43
-0.349142 -7.61524e-06 0 -1913.38
-0.337226 -7.61524e-06 0 -1891.33
-0.325475 -7.61524e-06 0 -1874.64
-0.313901 -7.61524e-06 0 -1852.58
-0.30252 -7.61524e-06 0 -1830.5
-0.291343 -7.61524e-06 0 -1808.47
-0.280381 -7.61524e-06 0 -1791.81
-0.269647 -7.61524e-06 0 -1780.49
-0.259148 -7.61524e-06 0 -1769.2
-0.248893 -7.61524e-06 0 -1763.33
-0.23889 -7.61524e-06 0 -1752.13
-0.229143 -7.61524e-06 0 -1740.91
-0.219659 -7.61524e-06 0 -1729.76
-0.210441 -7.61524e-06 0 -1718.61
-0.201491 -7.61524e-06 0 -1702.24
-0.192812 -7.61524e-06 0 -1675.07
-0.184405 -7.61524e-06 0 -1632.04
-0.176269 -7.61524e-06 0 -1546.15
-0.168404 -7.61524e-06 0 -1417.56
-0.160809 -7.61524e-06 0 -1256.91
-0.15348 -7.61524e-06 0 -1091.03
-0.146415 -7.61524e-06 0 -957.281
-0.13961 -7.61524e-06 0 -850.256
-0.133063 -7.61524e-06 0 -759.322
-0.126767 -7.61524e-06 0 -695.144
-0.120717 -7.61524e-06 0 -636.324
-0.11491 -7.61524e-06 0 -593.555
-0.109339 -7.61524e-06 0 -556.14
-0.103997 -7.61524e-06 0 -540.104
-0.0988804 -7.61524e-06 0 -534.814
-0.0939809 -7.61524e-06 0 -529.49
-0.0892928 -7.61524e-06 0 -545.579
-0.0848096 -7.61524e-06 0 -572.369
-0.0805248 -7.61524e-06 0 -604.521
-0.0764317 -7.61524e-06 0 -642.033
-0.0725237 -7.61524e-06 0 -679.553
-0.0687943 -7.61524e-06 0 -722.445
-0.065237 -7.61524e-06 0 -770.688
-0.0618454 -7.61524e-06 0 -829.666
-0.058613 -7.61524e-06 0 -883.289
-0.0555337 -7.61524e-06 0 -947.655
-0.0526013 -7.61524e-06 0 -1006.67
-0.0498099 -7.61524e-06 0 -1065.7
-0.0471536 -7.61524e-06 0 -1119.4
-0.0446266 -7.61524e-06 0 -1173.1
-0.0422235 -7.61524e-06 0 -1226.83
-0.0399389 -7.61524e-06 0 -1280.56
-0.0377676 -7.61524e-06 0 -1328.94
-0.0357044 -7.61524e-06 0 -1377.37
-0.0337445 -7.61524e-06 0 -1431.13
-0.0318832 -7.61524e-06 0 -1479.56
-0.0301159 -7.61524e-06 0 -1533.36
-0.0284383 -7.61524e-06 0 -1592.54
-0.0268462 -7.61524e-06 0 -1651.73
-0.0253353 -7.61524e-06 0 -1716.3
-0.023902 -7.61524e-06 0 -1780.89
-0.0225425 -7.61524e-06 0 -1845.47
-0.0212532 -7.61524e-06 0 -1910.14
-0.0200306 -7.61524e-06 0 -1974.76
-0.0188715 -7.61524e-06 0 -2034.05
-0.0177727 -7.61524e-06 0 -2088
-0.0167313 -7.61524e-06 0 -2141.97
-0.0157444 -7.61524e-06 0 -2190.58
-0.0148093 -7.61524e-06 0 -2233.81
-0.0139232 -7.61524e-06 0 -2271.82
-0.0130838 -7.61524e-06 0 -2309.67
-0.0122887 -7.61524e-06 0 -2342.36
-0.0115355 -7.61524e-06 0 -2369.55
-0.0108223 -7.61524e-06 0 -2391.45
-0.0101469 -7.61524e-06 0 -2413.37
-0.00950727 -7.61524e-06 0 -2435.33
-0.00890169 -7.61524e-06 0 -2446.57
-0.00832834 -7.61524e-06 0 -2463.21
-0.00778557 -7.61524e-06 0 -2469.15
-0.00727176 -7.61524e-06 0 -2480.51
-0.00678541 -7.61524e-06 0 -2481.14
-0.00632507 -7.61524e-06 0 -2481.86
-0.00588937 -7.61524e-06 0 -2482.62
-0.00547703 -7.61524e-06 0 -2478.06
-0.00508681 -7.61524e-06 0 -2468.21
-0.00471753 -7.61524e-06 0 -2458.45
-0.0043681 -7.61524e-06 0 -2437.99
-0.00403746 -7.61524e-06 0 -2417.67
-0.00372461 -7.61524e-06 0 -2392.1
-0.0034286 -7.61524e-06 0 -2366.68
-0.00314855 -7.61524e-06 0 -2330.63
-0.00288361 -7.61524e-06 0 -2294.85
-0.00263295 -7.61524e-06 0 -2253.88
-0.00239582 -7.61524e-06 0 -2207.86
-0.00217149 -7.61524e-06 0 -2162.21
-0.00195929 -7.61524e-06 0 -2106.18
-0.00175856 -7.61524e-06 0 -2050.73
-0.00156869 -7.61524e-06 0 -1985.06
-0.00138908 -7.61524e-06 0 -1920.23
-0.00121921 -7.61524e-06 0 -1850.88
-0.00105853 -7.61524e-06 0 -1771.76
-0.000906546 -7.61524e-06 0 -1688.41
-0.000762803 -7.61524e-06 0 -1601
-0.000626849 -7.61524e-06 0 -1503.88
-0.000498266 -7.61524e-06 0 -1402.36
-0.000376656 -7.61524e-06 0 -1289.71
-0.000261642 -7.61524e-06 0 -1157.24
-0.00015287 -7.61524e-06 0 -997.626
-5e-05 -7.61524e-06 0 -743.009
4.14596e-05 2.03453e-05 0 -752.623
0.000125379 7.69412e-05 0 -1014.8
0.000211356 0.000134924 0 -1177.11
0.000299438 0.000194328 0 -1301.31
0.000389678 0.000255186 0 -1407.68
0.000482128 0.000317535 0 -1497.64
0.000576841 0.000381409 0 -1582.86
0.000673871 0.000446848 0 -1658
0.000773276 0.000513887 0 -1728.45
0.000875112 0.000582565 0 -1799.62
0.000979439 0.000652924 0 -1860.69
0.00108632 0.000725003 0 -1927.21
0.00119581 0.000798843 0 -1983.65
0.00130797 0.000874487 0 -2046.32
0.00142287 0.000951979 0 -2103.86
0.00154058 0.00103136 0 -2165.89
0.00166117 0.00111268 0 -2222.55
0.00178469 0.00119599 0 -2280.17
0.00191123 0.00128133 0 -2338.45
0.00204085 0.00136875 0 -2397.04
0.00217364 0.0014583 0 -2454.55
0.00230966 0.00155003 0 -2512.77
0.00244899 0.001644 0 -2575.88
0.00259171 0.00174025 0 -2633.34
0.00273791 0.00183885 0 -2692.26
0.00288767 0.00193985 0 -2751.53
0.00304108 0.0020433 0 -2813.79
0.0031982 0.00214927 0 -2875.62
0.00335915 0.00225781 0 -2935.32
0.003524 0.002369 0 -2995.04
0.00369286 0.00248287 0 -3062.91
0.00386582 0.00259951 0 -3124.58
0.00404297 0.00271899 0 -3194.09
0.00422442 0.00284136 0 -3259.2
0.00441026 0.00296669 0 -3328.32
0.0046006 0.00309506 0 -3401.33
0.00479556 0.00322653 0 -3469.5
0.00499523 0.00336119 0 -3544.33
0.00519972 0.00349911 0 -3618.72
0.00540916 0.00364036 0 -3687.8
0.00562366 0.00378501 0 -3767.51
0.00584334 0.00393316 0 -3841.9
0.00606831 0.00408489 0 -3916.3
0.00629871 0.00424027 0 -3990.69
0.00653466 0.0043994 0 -4070.4
0.00677629 0.00456236 0 -4143.06
0.00702374 0.00472923 0 -4220.99
0.00727714 0.00490013 0 -4300.64
0.00753663 0.00507513 0 -4375.59
0.00780234 0.00525433 0 -4455.18
0.00807444 0.00543783 0 -4534.9
0.00835306 0.00562573 0 -4616.41
0.00863835 0.00581814 0 -4696.14
0.00893047 0.00601514 0 -4777.78
0.00922958 0.00621687 0 -4862.75
0.00953584 0.00642341 0 -4945.78
0.00984939 0.00663489 0 -5032.9
0.0101705 0.00685141 0 -5118.7
0.0104992 0.00707309 0 -5210.59
0.0108357 0.00730005 0 -5305.68
0.0111802 0.00753241 0 -5400.42
0.011533 0.0077703 0 -5493.08
0.0118941 0.00801384 0 -5596.44
0.0122638 0.00826316 0 -5697.64
0.0126422 0.00851837 0 -5806.32
0.0130296 0.00877964 0 -5918.5
0.0134262 0.00904708 0 -6035.45
0.0138321 0.00932084 0 -6155.2
0.0142476 0.00960107 0 -6280.1
0.0146729 0.00988792 0 -6415.78
0.0151082 0.0101815 0 -6553.94
0.0155538 0.0104819 0 -6694
0.0160098 0.0107895 0 -6849.28
0.0164766 0.0111042 0 -7007.46
0.0169542 0.0114263 0 -7174.85
0.0174429 0.011756 0 -7354.15
0.0179431 0.0120934 0 -7539.69
0.018455 0.0124386 0 -7735.88
0.0189789 0.0127918 0 -7942.67
0.0195149 0.0131533 0 -8156.83
0.0200633 0.0135232 0 -8388.61
0.0206245 0.0139016 0 -8622.22
0.0211986 0.0142888 0 -8868.47
0.0217861 0.014685 0 -9127.57
0.022387 0.0150903 0 -9390.75
0.0230018 0.0155049 0 -9667.95
0.0236307 0.0159291 0 -9965.33
0.0242741 0.0163629 0 -10284.2
0.0249322 0.0168068 0 -10650.4
0.0256053 0.0172608 0 -11067.2
0.0262939 0.0177251 0 -11537.4
0.0269981 0.0182 0 -12075.5
0.0277183 0.0186857 0 -12678.5
0.0284548 0.0191825 0 -13340
0.029208 0.0196904 0 -14066.7
0.0299782 0.0202098 0 -14884.3
0.0307658 0.0207409 0 -15828.8
0.031571 0.021284 0 -16967.2
0.0323942 0.0218393 0 -18350.9
0.033236 0.0224069 0 -20021.1
0.0340965 0.0229872 0 -21951.1
0.0349762 0.0235805 0 -24119.1
0.0358753 0.0241869 0 -26503.6
0.0367944 0.0248067 0 -29082.6
0.0377338 0.0254403 0 -31845
0.0386938 0.0260877 0 -34803.7
0.039675 0.0267494 0 -37978.3
0.0406776 0.0274256 0 -41401.5
0.0417021 0.0281165 0 -45131.2
0.0427488 0.0288225 0 -49262.4
0.0438183 0.0295437 0 -53869.7
0.0449109 0.0302805 0 -59034.5
0.046027 0.0310332 0 -64828.9
0.0471671 0.0318021 0 -71256.5
0.0483315 0.0325874 0 -78206.8
0.0495209 0.0333895 0 -85482
0.0507354 0.0342086 0 -92807.2
0.0519756 0.035045 0 -100175
0.053242 0.0358991 0 -107876
0.054535 0.036771 0 -116175
0.0558549 0.0376613 0 -125011
0.0572024 0.03857 0 -132738
0.0585778 0.0394976 0 -137974
0.0599816 0.0404443 0 -141146
0.0614142 0.0414105 0 -143113
0.0628761 0.0423964 0 -143462
0.0643678 0.0434024 0 -141910
0.0658897 0.0444287 0 -139964
0.0674422 0.0454758 0 -136947
0.069026 0.0465439 0 -132147
0.0706413 0.0476333 0 -125922
0.0722886 0.0487443 0 -118486
0.0739685 0.0498771 0 -110322
0.0756813 0.0510323 0 -101715
0.0774275 0.05221 0 -93001.2
0.0792077 0.0534105 0 -84770.8
0.0810221 0.0546342 0 -78138.3
0.0828712 0.0558812 0 -72978.6
0.0847556 0.0571521 0 -69012.3
0.0866757 0.058447 0 -66149.4
0.0886318 0.0597661 0 -64117.1
0.0906244 0.06111 0 -62455.4
0.0926539 0.0624787 0 -60986.4
0.0947207 0.0638726 0 -59526.1
0.0968252 0.0652919 0 -58202.2
0.0989682 0.066737 0 -56928.3
0.101149 0.068208 0 -56116.6
0.103369 0.0697052 0 -55977.2
0.105629 0.0712289 0 -56737.4
0.107928 0.0727794 0 -55760.8
0.110267 0.0743568 0 -56087.3
0.112646 0.0759614 0 -54400.2
0.115066 0.0775934 0 -54117.8
0.117527 0.079253 0 -53146
0.120029 0.0809404 0 -53632.4
0.122572 0.0826558 0 -53905.7
0.125158 0.0843994 0 -53727.3
0.127785 0.0861713 0 -52394.7
0.130454 0.0879717 0 -51197.2
0.133167 0.0898008 0 -50671.3
0.135921 0.0916586 0 -50971
0.138719 0.0935453 0 -50937.8
0.141559 0.095461 0 -51705.5
0.144443 0.0974057 0 -49941.5
0.14737 0.0993798 0 -49255.2
0.15034 0.101383 0 -48902.8
0.153354 0.103415 0 -47990.2
0.156411 0.105477 0 -47808.3
0.159511 0.107568 0 -48538
0.162655 0.109688 0 -48272.3
0.165842 0.111837 0 -48426.8
0.169073 0.114016 0 -49575.3
0.172346 0.116223 0 -48068.1
0.175663 0.118461 0 -46597.5
0.179022 0.120727 0 -47402.2
0.182425 0.123021 0 -45372.6
0.18587 0.125344 0 -44763.4
0.189357 0.127696 0 -44863.9
0.192886 0.130076 0 -45400.8
0.196457 0.132484 0 -45410.2
0.200069 0.13492 0 -44884.1
0.203722 0.137384 0 -43591.8
0.207416 0.139875 0 -43748.8
0.21115 0.142393 0 -43278.7
0.214924 0.144938 0 -42856.3
0.218736 0.147509 0 -43120.4
0.222587 0.150107 0 -41625.7
0.226476 0.152729 0 -41176
0.230403 0.155377 0 -40576.3
0.234366 0.15805 0 -40039
0.238366 0.160748 0 -39584.7
0.242401 0.163469 0 -40087
0.24647 0.166214 0 -39581.3
0.250573 0.168981 0 -38366.5
0.25471 0.17177 0 -38389.2
0.258878 0.174582 0 -38653.8
0.263078 0.177414 0 -37449.6
0.267309 0.180266 0 -38953.4
0.271568 0.183139 0 -36744.5
0.275856 0.186031 0 -36885.1
0.280172 0.188942 0 -37076
0.284514 0.19187 0 -37627.1
0.288881 0.194815 0 -36418
0.293272 0.197777 0 -35919.7
0.297687 0.200754 0 -37547.4
0.302124 0.203746 0 -36214.1
0.306581 0.206752 0 -36015.1
0.311058 0.209772 0 -35820.4
0.315554 0.212804 0 -36118.9
0.320067 0.215847 0 -38371.2
0.324595 0.218901 0 -36665.2
0.329138 0.221965 0 -35344.8
0.333695 0.225038 0 -35608.1
0.338264 0.228119 0 -35392
0.342843 0.231208 0 -34945.8
0.347432 0.234302 0 -35060.4
0.352029 0.237402 0 -34886.6
0.356632 0.240507 0 -34836.4
0.361241 0.243616 0 -35397.6
0.365854 0.246727 0 -35027.7
0.370469 0.249839 0 -34690.5
0.375085 0.252953 0 -35934.7
0.379702 0.256066 0 -35135.2
0.384317 0.259178 0 -34279.2
0.388929 0.262289 0 -34435.6
0.393537 0.265396 0 -34126.9
0.398139 0.2685 0 -33913.1
0.402734 0.271598 0 -33854.5
0.407321 0.274692 0 -33703.3
0.411898 0.277779 0 -33896.6
0.416464 0.280858 0 -35066.3
0.421017 0.283929 0 -34912.7
0.425557 0.286991 0 -34404.3
0.430082 0.290042 0 -33812.9
0.434591 0.293083 0 -33948.1
0.439082 0.296112 0 -33148.9
0.443555 0.299128 0 -34179
0.448008 0.302131 0 -33263.8
0.45244 0.30512 0 -33489.5
0.456849 0.308094 0 -35660.8
0.461235 0.311052 0 -34071.7
0.465596 0.313993 0 -34709.5
0.469932 0.316917 0 -32514.7
0.474241 0.319823 0 -33551.3
0.478523 0.322711 0 -32790.9
0.482776 0.325579 0 -32673.9
0.486999 0.328427 0 -32554.4
0.491191 0.331254 0 -34235.9
0.495353 0.334061 0 -31409.9
