# p  FACE_DATA 276
# x  y  z  p
-1.89807 0 0.0105 22126.8
-1.81671 0 0.0105 22002.8
-1.74016 0 0.0105 22063.4
-1.66815 0 0.0105 22104.9
-1.6004 0 0.0105 22107.2
-1.53666 0 0.0105 22103.2
-1.47668 0 0.0105 22098.9
-1.42024 0 0.0105 22094.4
-1.36711 0 0.0105 22089.9
-1.31712 0 0.0105 22086.5
-1.27005 0 0.0105 22084.2
-1.22575 0 0.0105 22081.6
-1.18403 0 0.0105 22079.3
-1.14475 0 0.0105 22076.7
-1.10775 0 0.0105 22074.7
-1.07289 0 0.0105 22073.6
-1.04005 0 0.0105 22072.5
-1.0091 0 0.0105 22071.1
-0.979914 0 0.0105 22069.8
-0.952392 0 0.0105 22069.2
-0.926429 0 0.0105 22069.1
-0.901924 0 0.0105 22069.9
-0.878785 0 0.0105 22071.5
-0.856927 0 0.0105 22073.8
-0.836265 0 0.0105 22077.2
-0.816722 0 0.0105 22081.9
-0.798224 0 0.0105 22088.2
-0.780701 0 0.0105 22096.1
-0.764088 0 0.0105 22105.5
-0.74832 0 0.0105 22116.3
-0.733339 0 0.0105 22128.5
-0.719089 0 0.0105 22142.1
-0.705515 0 0.0105 22157.1
-0.692565 0 0.0105 22173.1
-0.680192 0 0.0105 22190
-0.668349 0 0.0105 22207.7
-0.65699 0 0.0105 22226
-0.646073 0 0.0105 22244.7
-0.635557 0 0.0105 22263.7
-0.6254 0 0.0105 22282.8
-0.615568 0 0.0105 22302
-0.60602 0 0.0105 22321.1
-0.596721 0 0.0105 22340.1
-0.587638 0 0.0105 22358.8
-0.578734 0 0.0105 22377.3
-0.569975 0 0.0105 22395.3
-0.56133 0 0.0105 22412.9
-0.552766 0 0.0105 22430
-0.54425 0 0.0105 22446.6
-0.535841 0 0.0105 22462.5
-0.527746 0 0.0105 22477.6
-0.52008 0 0.0105 22491.4
-0.512816 0 0.0105 22504.1
-0.50593 0 0.0105 22515.5
-0.499397 0 0.0105 22525.8
-0.493195 0 0.0105 22535.1
-0.487302 0 0.0105 22543.5
-0.481698 0 0.0105 22551.3
-0.476362 0 0.0105 22558.4
-0.471278 0 0.0105 22565.1
-0.466428 0 0.0105 22571.4
-0.461793 0 0.0105 22577.3
-0.457359 0 0.0105 22582.7
-0.45311 0 0.0105 22587.7
-0.449029 0 0.0105 22592.2
-0.445105 0 0.0105 22596.2
-0.441325 0 0.0105 22599.8
-0.437672 0 0.0105 22603.1
-0.434136 0 0.0105 22606.2
-0.430704 0 0.0105 22609.2
-0.427365 0 0.0105 22612
-0.424106 0 0.0105 22614.7
-0.420917 0 0.0105 22617.2
-0.417786 0 0.0105 22619.6
-0.414702 0 0.0105 22622
-0.411656 0 0.0105 22624.1
-0.408635 0 0.0105 22625.5
-0.405629 0 0.0105 22627.8
-0.402629 0 0.0105 22630.6
-0.399629 0 0.0105 22632.7
-0.396628 0 0.0105 22634.4
-0.393628 0 0.0105 22636
-0.390626 0 0.0105 22637.5
-0.387625 0 0.0105 22638.8
-0.384621 0 0.0105 22639.9
-0.381618 0 0.0105 22640.9
-0.378613 0 0.0105 22642
-0.375606 0 0.0105 22643.3
-0.372597 0 0.0105 22644.8
-0.369588 0 0.0105 22646.6
-0.366577 0 0.0105 22648.3
-0.363563 0 0.0105 22649.9
-0.360546 0 0.0105 22651.3
-0.357529 0 0.0105 22652.4
-0.354508 0 0.0105 22653.3
-0.351485 0 0.0105 22654
-0.348458 0 0.0105 22654.7
-0.345429 0 0.0105 22655.4
-0.342397 0 0.0105 22656.2
-0.339361 0 0.0105 22656.9
-0.336321 0 0.0105 22657.6
-0.333279 0 0.0105 22658.4
-0.330233 0 0.0105 22659.1
-0.327182 0 0.0105 22659.8
-0.324126 0 0.0105 22660.4
-0.321068 0 0.0105 22660.9
-0.318004 0 0.0105 22661.3
-0.314936 0 0.0105 22661.6
-0.311863 0 0.0105 22662
-0.308785 0 0.0105 22662.3
-0.305702 0 0.0105 22662.6
-0.302614 0 0.0105 22662.9
-0.299519 0 0.0105 22663.1
-0.29642 0 0.0105 22663.3
-0.293315 0 0.0105 22663.5
-0.290203 0 0.0105 22663.6
-0.287086 0 0.0105 22663.7
-0.283963 0 0.0105 22663.9
-0.280832 0 0.0105 22664.1
-0.277695 0 0.0105 22664.4
-0.274551 0 0.0105 22664.7
-0.271401 0 0.0105 22665
-0.268244 0 0.0105 22665.1
-0.265079 0 0.0105 22665.2
-0.261906 0 0.0105 22665.1
-0.258725 0 0.0105 22665
-0.255537 0 0.0105 22664.9
-0.252341 0 0.0105 22664.9
-0.249137 0 0.0105 22664.8
-0.245924 0 0.0105 22664.7
-0.242703 0 0.0105 22664.6
-0.239474 0 0.0105 22664.4
-0.236236 0 0.0105 22664.1
-0.232987 0 0.0105 22663.9
-0.22973 0 0.0105 22663.6
-0.226464 0 0.0105 22663.3
-0.223189 0 0.0105 22662.9
-0.219903 0 0.0105 22662.5
-0.216607 0 0.0105 22662.1
-0.213302 0 0.0105 22661.7
-0.209985 0 0.0105 22661.3
-0.20666 0 0.0105 22660.9
-0.203323 0 0.0105 22660.4
-0.199974 0 0.0105 22660
-0.196616 0 0.0105 22659.6
-0.193246 0 0.0105 22659.2
-0.189864 0 0.0105 22658.8
-0.186472 0 0.0105 22658.4
-0.183068 0 0.0105 22658
-0.179651 0 0.0105 22657.5
-0.176222 0 0.0105 22657.1
-0.172781 0 0.0105 22656.6
-0.169328 0 0.0105 22656.1
-0.165862 0 0.0105 22655.6
-0.162383 0 0.0105 22655.1
-0.158892 0 0.0105 22654.5
-0.155387 0 0.0105 22654.2
-0.151868 0 0.0105 22652.6
-0.148337 0 0.0105 22650.9
-0.14479 0 0.0105 22671.3
-0.141231 0 0.0105 23851.8
-0.137658 0 0.0105 33156.1
-0.134069 0 0.0105 41874.4
-0.130466 0 0.0105 44433.6
-0.126849 0 0.0105 45877.3
-0.123216 0 0.0105 46770.1
-0.119568 0 0.0105 47460.5
-0.115906 0 0.0105 48010.5
-0.112228 0 0.0105 48484.2
-0.108534 0 0.0105 48966
-0.104824 0 0.0105 49375.7
-0.101098 0 0.0105 49778.3
-0.097355 0 0.0105 50162.1
-0.0935961 0 0.0105 50525.2
-0.0898204 0 0.0105 50873.4
-0.0860278 0 0.0105 51205
-0.0822181 0 0.0105 51515.3
-0.0783911 0 0.0105 51813.1
-0.0745465 0 0.0105 52093.1
-0.0706841 0 0.0105 52359.7
-0.0668039 0 0.0105 52606.6
-0.0629054 0 0.0105 52824.3
-0.0589886 0 0.0105 52995
-0.0550531 0 0.0105 53100.3
-0.0510989 0 0.0105 53126.6
-0.0471257 0 0.0105 53071.3
-0.0431332 0 0.0105 52950
-0.0391214 0 0.0105 52911.8
-0.0350898 0 0.0105 53242.1
-0.0310384 0 0.0105 54011.7
-0.0269669 0 0.0105 54718.3
-0.0228751 0 0.0105 55650.4
-0.0187628 0 0.0105 56736.8
-0.0146297 0 0.0105 57955.9
-0.0104756 0 0.0105 59302
-0.00630039 0 0.0105 60776.1
-0.00210372 0 0.0105 62344.8
0.00158228 0 0.0105 63866.3
0.00474683 0 0.0105 65201.6
0.00791139 0 0.0105 66619.6
0.0110759 0 0.0105 68087.9
0.0142405 0 0.0105 69599.7
0.017405 0 0.0105 71143.4
0.0205696 0 0.0105 72710
0.0237342 0 0.0105 74291.4
0.0268988 0 0.0105 75879.3
0.0300633 0 0.0105 77466.1
0.0332279 0 0.0105 79044.4
0.0363924 0 0.0105 80608.7
0.039557 0 0.0105 82153.6
0.0427215 0 0.0105 83674.6
0.0458861 0 0.0105 85167.7
0.0490507 0 0.0105 86626.4
0.0522152 0 0.0105 88042
0.0553798 0 0.0105 89402.3
0.0585443 0 0.0105 90701.5
0.0617089 0 0.0105 91936.5
0.0648734 0 0.0105 93105.7
0.068038 0 0.0105 94215.3
0.0712026 0 0.0105 95274.7
0.0743671 0 0.0105 96293.6
0.0775317 0 0.0105 97278.6
0.0806962 0 0.0105 98233.7
0.0838607 0 0.0105 99161.9
0.0870253 0 0.0105 100063
0.0901899 0 0.0105 100932
0.0933545 0 0.0105 101765
0.096519 0 0.0105 102556
0.0996836 0 0.0105 103301
0.102848 0 0.0105 104000
0.106012 0 0.0105 104660
0.109177 0 0.0105 105283
0.112341 0 0.0105 105876
0.115506 0 0.0105 106442
0.118671 0 0.0105 106985
0.121835 0 0.0105 107507
0.125 0 0.0105 108009
0.128164 0 0.0105 108493
0.131329 0 0.0105 108959
0.134493 0 0.0105 109411
0.137658 0 0.0105 109849
0.140823 0 0.0105 110273
0.143987 0 0.0105 110680
0.147152 0 0.0105 111066
0.150316 0 0.0105 111412
0.153481 0 0.0105 111686
0.156645 0 0.0105 111816
0.15981 0 0.0105 111435
0.162975 0 0.0105 111363
0.166139 0 0.0105 111214
0.169304 0 0.0105 110428
0.172468 0 0.0105 109979
0.175633 0 0.0105 109127
0.178797 0 0.0105 108049
0.181962 0 0.0105 106816
0.185126 0 0.0105 105435
0.188291 0 0.0105 103935
0.191455 0 0.0105 102342
0.19462 0 0.0105 100683
0.197785 0 0.0105 98978.9
0.20095 0 0.0105 97246.6
0.204114 0 0.0105 95498.1
0.207278 0 0.0105 93744.4
0.210443 0 0.0105 91993.1
0.213607 0 0.0105 90251.2
0.216772 0 0.0105 88523.7
0.219936 0 0.0105 86813.2
0.223101 0 0.0105 85121.2
0.226266 0 0.0105 83449.6
0.22943 0 0.0105 81799.2
0.232595 0 0.0105 80171.5
0.235759 0 0.0105 78566.6
0.238924 0 0.0105 76991.9
0.242088 0 0.0105 75420.4
0.245253 0 0.0105 73976.4
0.248417 0 0.0105 71782.5
