# wallShearStress  FACE_DATA 276
# x  y  z  wallShearStress_x  wallShearStress_y  wallShearStress_z
-1.89807 0 0.0105 -145.388 -0.536898 6.56107e-17
-1.81671 0 0.0105 -111.03 -0.00176721 -1.52609e-17
-1.74016 0 0.0105 -170.507 -0.000493563 1.94266e-19
-1.66815 0 0.0105 -179.854 0.00186684 1.60219e-20
-1.6004 0 0.0105 -179.26 0.00240595 8.01096e-21
-1.53666 0 0.0105 -177.123 0.00237116 0
-1.47668 0 0.0105 -174.735 0.00211295 -6.40877e-20
-1.42024 0 0.0105 -172.501 0.0019013 0
-1.36711 0 0.0105 -170.501 0.00169009 1.60219e-20
-1.31712 0 0.0105 -168.725 0.00169067 8.01096e-21
-1.27005 0 0.0105 -167.16 0.00152465 -8.01096e-21
-1.22575 0 0.0105 -165.773 0.00157429 -3.20439e-20
-1.18403 0 0.0105 -164.542 0.00129552 -8.01096e-21
-1.14475 0 0.0105 -163.439 0.00121309 -1.60219e-20
-1.10775 0 0.0105 -162.45 0.00131713 1.60219e-20
-1.07289 0 0.0105 -161.565 0.00135096 -1.60219e-20
-1.04005 0 0.0105 -160.762 0.00134481 -3.20439e-20
-1.0091 0 0.0105 -160.03 0.00129157 -4.80658e-20
-0.979914 0 0.0105 -159.363 0.00114079 -1.60219e-20
-0.952392 0 0.0105 -158.756 0.00123921 3.20439e-20
-0.926429 0 0.0105 -158.205 0.00121542 8.01096e-20
-0.901924 0 0.0105 -157.699 0.00122125 1.60219e-20
-0.878785 0 0.0105 -157.24 0.00123766 3.20439e-20
-0.856927 0 0.0105 -156.821 0.00139362 -4.80658e-20
-0.836265 0 0.0105 -156.438 0.00156818 2.24307e-19
-0.816722 0 0.0105 -156.091 0.00177856 -4.80658e-19
-0.798224 0 0.0105 -155.779 0.00216436 -1.92263e-19
-0.780701 0 0.0105 -155.497 0.00246194 -4.1657e-19
-0.764088 0 0.0105 -155.243 0.00270892 -1.28175e-19
-0.74832 0 0.0105 -155.014 0.00299913 -1.92263e-19
-0.733339 0 0.0105 -154.81 0.0032655 4.48614e-19
-0.719089 0 0.0105 -154.626 0.00353574 -3.20439e-19
-0.705515 0 0.0105 -154.462 0.00379017 -3.20439e-19
-0.692565 0 0.0105 -154.316 0.00400873 1.28175e-19
-0.680192 0 0.0105 -154.184 0.00419382 -3.84526e-19
-0.668349 0 0.0105 -154.068 0.00437018 0
-0.65699 0 0.0105 -153.964 0.00450948 1.28175e-19
-0.646073 0 0.0105 -153.87 0.00460236 3.84526e-19
-0.635557 0 0.0105 -153.785 0.00468827 1.28175e-19
-0.6254 0 0.0105 -153.708 0.00467551 -1.28175e-19
-0.615568 0 0.0105 -153.637 0.00465735 0
-0.60602 0 0.0105 -153.572 0.00462815 -2.56351e-19
-0.596721 0 0.0105 -153.512 0.00463192 -5.12702e-19
-0.587638 0 0.0105 -153.455 0.00451292 -1.28175e-19
-0.578734 0 0.0105 -153.4 0.00436039 -1.28175e-18
-0.569975 0 0.0105 -153.347 0.00417783 -3.84526e-19
-0.56133 0 0.0105 -153.294 0.00398458 -8.97228e-19
-0.552766 0 0.0105 -153.242 0.0037675 -2.05081e-18
-0.54425 0 0.0105 -153.19 0.00350254 -1.0254e-18
-0.535841 0 0.0105 -153.137 0.00328135 -1.40993e-18
-0.527746 0 0.0105 -153.086 0.00319121 -5.12702e-19
-0.52008 0 0.0105 -153.037 0.00306679 0
-0.512816 0 0.0105 -152.989 0.00278713 -1.28175e-19
-0.50593 0 0.0105 -152.941 0.00243709 3.84526e-19
-0.499397 0 0.0105 -152.895 0.00220178 1.28175e-18
-0.493195 0 0.0105 -152.849 0.00204615 3.84526e-19
-0.487302 0 0.0105 -152.805 0.00201084 -5.12702e-19
-0.481698 0 0.0105 -152.762 0.00186654 -3.84526e-19
-0.476362 0 0.0105 -152.72 0.00205319 2.56351e-19
-0.471278 0 0.0105 -152.682 0.00210598 0
-0.466428 0 0.0105 -152.644 0.00220626 -1.28175e-19
-0.461793 0 0.0105 -152.609 0.00226872 0
-0.457359 0 0.0105 -152.575 0.00218717 3.71709e-18
-0.45311 0 0.0105 -152.541 0.0019241 3.97344e-18
-0.449029 0 0.0105 -152.507 0.00173216 3.84526e-19
-0.445105 0 0.0105 -152.473 0.00156715 1.0254e-18
-0.441325 0 0.0105 -152.439 0.00150232 5.12702e-19
-0.437672 0 0.0105 -152.408 0.0015465 -1.5381e-18
-0.434136 0 0.0105 -152.377 0.00165624 1.79446e-18
-0.430704 0 0.0105 -152.347 0.00177149 1.40993e-18
-0.427365 0 0.0105 -152.318 0.00187072 -2.56351e-18
-0.424106 0 0.0105 -152.289 0.00199809 0
-0.420917 0 0.0105 -152.261 0.00195998 0
-0.417786 0 0.0105 -152.233 0.00203179 -2.05081e-18
-0.414702 0 0.0105 -152.206 0.00225077 -2.05081e-18
-0.411656 0 0.0105 -152.181 0.00212499 -5.12702e-19
-0.408635 0 0.0105 -152.153 0.00213722 -1.0254e-18
-0.405629 0 0.0105 -152.123 0.00225889 7.69052e-19
-0.402629 0 0.0105 -152.08 0.00228258 3.07621e-18
-0.399629 0 0.0105 -152.052 0.0024359 -1.79446e-18
-0.396628 0 0.0105 -152.026 0.00250731 -7.69052e-19
-0.393628 0 0.0105 -152 0.00258552 -5.12702e-19
-0.390626 0 0.0105 -151.973 0.00259506 -2.56351e-19
-0.387625 0 0.0105 -151.946 0.00265746 5.12702e-19
-0.384621 0 0.0105 -151.918 0.00271806 -1.5381e-18
-0.381618 0 0.0105 -151.89 0.00278175 1.28175e-18
-0.378613 0 0.0105 -151.86 0.00284388 -1.5381e-18
-0.375606 0 0.0105 -151.83 0.00292083 -4.61431e-18
-0.372597 0 0.0105 -151.8 0.00310886 3.84526e-18
-0.369588 0 0.0105 -151.772 0.00329534 -5.12702e-19
-0.366577 0 0.0105 -151.746 0.00338483 2.56351e-19
-0.363563 0 0.0105 -151.72 0.00359941 1.5381e-18
-0.360546 0 0.0105 -151.695 0.00356928 -5.12702e-19
-0.357529 0 0.0105 -151.666 0.00354261 1.0254e-18
-0.354508 0 0.0105 -151.637 0.00346078 -5.12702e-19
-0.351485 0 0.0105 -151.608 0.00351982 -1.0254e-18
-0.348458 0 0.0105 -151.579 0.00359027 -4.10161e-18
-0.345429 0 0.0105 -151.55 0.00366723 -1.0254e-18
-0.342397 0 0.0105 -151.518 0.00373747 -1.0254e-18
-0.339361 0 0.0105 -151.489 0.00386187 -3.07621e-18
-0.336321 0 0.0105 -151.46 0.00394005 -2.56351e-18
-0.333279 0 0.0105 -151.429 0.00400123 -2.05081e-18
-0.330233 0 0.0105 -151.398 0.00406252 3.07621e-18
-0.327182 0 0.0105 -151.369 0.00422299 -5.12702e-19
-0.324126 0 0.0105 -151.34 0.00411299 1.0254e-18
-0.321068 0 0.0105 -151.309 0.00418063 5.12702e-19
-0.318004 0 0.0105 -151.277 0.00424688 2.05081e-18
-0.314936 0 0.0105 -151.244 0.00420021 0
-0.311863 0 0.0105 -151.213 0.00424253 5.12702e-19
-0.308785 0 0.0105 -151.18 0.00429136 -1.5381e-18
-0.305702 0 0.0105 -151.147 0.00434403 -1.0254e-18
-0.302614 0 0.0105 -151.115 0.00440353 5.12702e-19
-0.299519 0 0.0105 -151.083 0.00445152 0
-0.29642 0 0.0105 -151.05 0.00448863 -5.12702e-19
-0.293315 0 0.0105 -151.015 0.00452159 -2.05081e-18
-0.290203 0 0.0105 -150.982 0.00456544 -1.0254e-18
-0.287086 0 0.0105 -150.949 0.00461472 1.0254e-18
-0.283963 0 0.0105 -150.914 0.00468797 -5.12702e-19
-0.280832 0 0.0105 -150.878 0.00475879 2.05081e-18
-0.277695 0 0.0105 -150.845 0.00480839 5.12702e-19
-0.274551 0 0.0105 -150.814 0.00482385 1.0254e-18
-0.271401 0 0.0105 -150.779 0.00481956 -1.0254e-18
-0.268244 0 0.0105 -150.743 0.00482294 -5.12702e-19
-0.265079 0 0.0105 -150.708 0.00482276 0
-0.261906 0 0.0105 -150.673 0.00482821 -1.0254e-18
-0.258725 0 0.0105 -150.638 0.00484798 5.12702e-19
-0.255537 0 0.0105 -150.602 0.0048791 0
-0.252341 0 0.0105 -150.565 0.00491657 0
-0.249137 0 0.0105 -150.528 0.00493838 0
-0.245924 0 0.0105 -150.492 0.00494672 5.12702e-19
-0.242703 0 0.0105 -150.457 0.00493218 -5.12702e-19
-0.239474 0 0.0105 -150.421 0.00491497 0
-0.236236 0 0.0105 -150.383 0.00489824 -2.05081e-18
-0.232987 0 0.0105 -150.344 0.00489433 -5.12702e-19
-0.22973 0 0.0105 -150.306 0.004894 1.0254e-18
-0.226464 0 0.0105 -150.27 0.00489984 -5.12702e-19
-0.223189 0 0.0105 -150.232 0.00489675 5.12702e-19
-0.219903 0 0.0105 -150.193 0.00489331 5.12702e-19
-0.216607 0 0.0105 -150.154 0.00488267 -2.05081e-18
-0.213302 0 0.0105 -150.114 0.00487348 -2.05081e-18
-0.209985 0 0.0105 -150.072 0.00486681 5.12702e-19
-0.20666 0 0.0105 -150.033 0.00485152 0
-0.203323 0 0.0105 -149.995 0.00484308 -1.0254e-18
-0.199974 0 0.0105 -149.956 0.00484602 0
-0.196616 0 0.0105 -149.916 0.00486541 2.05081e-18
-0.193246 0 0.0105 -149.874 0.00490838 5.12702e-19
-0.189864 0 0.0105 -149.831 0.00492455 5.12702e-19
-0.186472 0 0.0105 -149.793 0.00491822 1.5381e-18
-0.183068 0 0.0105 -149.755 0.00487715 1.0254e-18
-0.179651 0 0.0105 -149.714 0.0048154 -5.12702e-19
-0.176222 0 0.0105 -149.672 0.00476564 0
-0.172781 0 0.0105 -149.633 0.00473349 1.0254e-18
-0.169328 0 0.0105 -149.587 0.00480768 5.12702e-19
-0.165862 0 0.0105 -149.546 0.00466798 0
-0.162383 0 0.0105 -149.506 0.00462288 1.0254e-18
-0.158892 0 0.0105 -149.46 0.00460012 -2.05081e-18
-0.155387 0 0.0105 -149.417 0.00370469 -1.0254e-18
-0.151868 0 0.0105 -149.399 0.00537436 2.10208e-17
-0.148337 0 0.0105 -149.305 -0.00348007 -4.33233e-17
-0.14479 0 0.0105 -147.68 0.0230072 9.80286e-16
-0.141231 0 0.0105 -103.838 0.443663 -4.59381e-16
-0.137658 0 0.0105 13.929 0.822586 -5.25006e-16
-0.134069 0 0.0105 37.0644 0.265173 1.57502e-15
-0.130466 0 0.0105 34.5915 0.188074 -3.11723e-16
-0.126849 0 0.0105 33.0129 0.0713631 1.14845e-16
-0.123216 0 0.0105 31.4252 0.104053 -2.46097e-17
-0.119568 0 0.0105 30.3975 0.0789472 -9.84387e-17
-0.115906 0 0.0105 29.8339 0.0584182 -2.46097e-17
-0.112228 0 0.0105 29.9726 0.0585472 1.64065e-17
-0.108534 0 0.0105 30.2883 0.037055 -5.74226e-17
-0.104824 0 0.0105 30.6505 0.029187 -6.15242e-18
-0.101098 0 0.0105 31.16 0.0267165 0
-0.097355 0 0.0105 31.6023 0.0154516 -2.05081e-18
-0.0935961 0 0.0105 31.9841 0.00920909 -2.87113e-17
-0.0898204 0 0.0105 32.2922 0.0049535 -9.74133e-18
-0.0860278 0 0.0105 32.5188 0.00255469 7.17782e-18
-0.0822181 0 0.0105 32.7251 -0.000677755 3.1403e-18
-0.0783911 0 0.0105 32.9295 -0.00353893 1.12794e-17
-0.0745465 0 0.0105 33.1318 -0.00781397 2.05081e-18
-0.0706841 0 0.0105 33.3544 -0.013049 0
-0.0668039 0 0.0105 33.6265 -0.0194508 -2.05081e-18
-0.0629054 0 0.0105 34.0582 -0.0242338 -1.0254e-17
-0.0589886 0 0.0105 34.8683 -0.0273556 2.05081e-18
-0.0550531 0 0.0105 36.4005 -0.0293616 -4.10161e-18
-0.0510989 0 0.0105 39.3106 -0.0313126 -2.05081e-18
-0.0471257 0 0.0105 43.7712 -0.0300889 8.20323e-18
-0.0431332 0 0.0105 50.1636 -0.0340589 2.05081e-18
-0.0391214 0 0.0105 57.9181 -0.0240832 -1.64065e-17
-0.0350898 0 0.0105 65.7109 -0.0118963 -4.10161e-18
-0.0310384 0 0.0105 70.2866 -0.0022089 -1.58938e-17
-0.0269669 0 0.0105 72.8754 0.00189363 -2.56351e-19
-0.0228751 0 0.0105 75.2531 0.00974179 1.0254e-18
-0.0187628 0 0.0105 76.3742 0.0156279 3.07621e-18
-0.0146297 0 0.0105 76.4817 0.0162513 2.05081e-18
-0.0104756 0 0.0105 75.8543 0.0159609 3.07621e-18
-0.00630039 0 0.0105 74.5481 0.0144324 -1.0254e-18
-0.00210372 0 0.0105 72.8585 0.0119272 -3.07621e-18
0.00158228 0 0.0105 70.9226 0.0105691 1.0254e-18
0.00474683 0 0.0105 68.4752 0.00791535 0
0.00791139 0 0.0105 65.4625 0.00460288 -5.12702e-19
0.0110759 0 0.0105 61.6666 0.00119988 2.6276e-18
0.0142405 0 0.0105 57.0749 -0.00137419 -2.56351e-19
0.017405 0 0.0105 51.7091 -0.00356155 -1.0254e-18
0.0205696 0 0.0105 45.6214 -0.00050841 -8.58775e-18
0.0237342 0 0.0105 38.8537 0.00688817 -1.5381e-17
0.0268988 0 0.0105 31.4562 0.0174549 4.10161e-18
0.0300633 0 0.0105 23.5002 0.0302943 2.66605e-17
0.0332279 0 0.0105 15.074 0.0431839 -2.05081e-17
0.0363924 0 0.0105 6.27304 0.0545246 0
0.039557 0 0.0105 -2.81946 0.061145 -8.20323e-18
0.0427215 0 0.0105 -12.1481 0.0567268 -8.20323e-18
0.0458861 0 0.0105 -21.6984 0.0380963 8.20323e-18
0.0490507 0 0.0105 -31.4782 0.00984564 4.92194e-17
0.0522152 0 0.0105 -41.4814 -0.0217609 -4.92194e-17
0.0553798 0 0.0105 -51.6466 -0.0572293 5.74226e-17
0.0585443 0 0.0105 -61.8451 -0.0850595 3.28129e-17
0.0617089 0 0.0105 -71.9237 -0.108655 -4.92194e-17
0.0648734 0 0.0105 -81.7235 -0.123713 -3.28129e-17
0.068038 0 0.0105 -91.0896 -0.128835 0
0.0712026 0 0.0105 -99.9234 -0.123724 0
0.0743671 0 0.0105 -108.206 -0.109963 -6.56258e-17
0.0775317 0 0.0105 -115.988 -0.0865357 -1.88674e-16
0.0806962 0 0.0105 -123.354 -0.0499047 -1.64065e-16
0.0838607 0 0.0105 -130.407 0.000893882 1.92263e-19
0.0870253 0 0.0105 -137.265 0.0618288 -2.543e-16
0.0901899 0 0.0105 -144.053 0.130798 2.46097e-16
0.0933545 0 0.0105 -150.865 0.195137 -2.62503e-16
0.096519 0 0.0105 -157.741 0.242697 0
0.0996836 0 0.0105 -164.655 0.261578 -3.28129e-17
0.102848 0 0.0105 -171.518 0.244014 2.2969e-16
0.106012 0 0.0105 -178.206 0.192071 2.62503e-16
0.109177 0 0.0105 -184.574 0.102425 3.69145e-16
0.112341 0 0.0105 -190.504 -0.00828756 1.0254e-18
0.115506 0 0.0105 -195.918 -0.123928 1.64065e-17
0.118671 0 0.0105 -200.783 -0.229836 -3.11723e-16
0.121835 0 0.0105 -205.125 -0.310872 4.59381e-16
0.125 0 0.0105 -209.025 -0.356583 -3.28129e-17
0.128164 0 0.0105 -212.601 -0.361515 -6.56258e-17
0.131329 0 0.0105 -215.997 -0.326417 3.28129e-17
0.134493 0 0.0105 -219.366 -0.253981 6.56258e-17
0.137658 0 0.0105 -222.851 -0.151996 -7.54697e-16
0.140823 0 0.0105 -226.534 -0.0309225 0
0.143987 0 0.0105 -230.439 0.0915153 0
0.147152 0 0.0105 -234.551 0.203061 0
0.150316 0 0.0105 -238.804 0.294792 -9.84387e-17
0.153481 0 0.0105 -243.467 0.337334 -1.64065e-16
0.156645 0 0.0105 -249.035 0.354637 -3.28129e-17
0.15981 0 0.0105 -254.949 0.362194 -3.28129e-17
0.162975 0 0.0105 -258.895 0.303515 -6.89071e-16
0.166139 0 0.0105 -263.991 0.191084 -4.92194e-17
0.169304 0 0.0105 -269.422 0.121688 5.086e-16
0.172468 0 0.0105 -273.622 0.0430408 5.98836e-16
0.175633 0 0.0105 -279.212 -0.0477605 -8.20323e-18
0.178797 0 0.0105 -284.554 -0.134683 1.2633e-15
0.181962 0 0.0105 -289.633 -0.215586 1.64065e-17
0.185126 0 0.0105 -294.485 -0.278326 9.84387e-17
0.188291 0 0.0105 -298.975 -0.319306 7.21884e-16
0.191455 0 0.0105 -303.121 -0.341194 -6.56258e-17
0.19462 0 0.0105 -306.898 -0.34584 3.28129e-17
0.197785 0 0.0105 -310.285 -0.336673 -3.28129e-17
0.20095 0 0.0105 -313.263 -0.316464 -1.31252e-16
0.204114 0 0.0105 -315.81 -0.28853 3.28129e-17
0.207278 0 0.0105 -317.929 -0.256425 -3.93755e-16
0.210443 0 0.0105 -319.65 -0.222635 -2.62503e-16
0.213607 0 0.0105 -320.986 -0.189608 -4.59381e-16
0.216772 0 0.0105 -321.952 -0.158471 -4.59381e-16
0.219936 0 0.0105 -322.572 -0.129959 3.28129e-17
0.223101 0 0.0105 -322.865 -0.104924 2.05081e-16
0.226266 0 0.0105 -322.857 -0.0840246 0
0.22943 0 0.0105 -322.577 -0.0667194 0
0.232595 0 0.0105 -322.046 -0.0529648 -1.23048e-17
0.235759 0 0.0105 -321.273 -0.0428815 0
0.238924 0 0.0105 -320.298 -0.0357543 -6.97274e-17
0.242088 0 0.0105 -319.032 -0.0327734 1.23048e-17
0.245253 0 0.0105 -319.06 -0.0217429 -6.97274e-17
0.248417 0 0.0105 -314.325 -0.0456181 1.18631e-16
