# wallHeatFlux  FACE_DATA 398
# x  y  z  wallHeatFlux
-0.7975 0 0.025 -653677
-0.79239 0 0.025 -120113
-0.787056 0 0.025 -71223.3
-0.781492 0 0.025 -64487.2
-0.775691 0 0.025 -65899.9
-0.769649 0 0.025 -66769.9
-0.763362 0 0.025 -67434.7
-0.756822 0 0.025 -67376.2
-0.750025 0 0.025 -66929.1
-0.742968 0 0.025 -66190.3
-0.735648 0 0.025 -65322.2
-0.72806 0 0.025 -64400
-0.720203 0 0.025 -63494.5
-0.712076 0 0.025 -62568.6
-0.703677 0 0.025 -61721.6
-0.695006 0 0.025 -60932.3
-0.686065 0 0.025 -60190.3
-0.676855 0 0.025 -59490.3
-0.667379 0 0.025 -58757
-0.65764 0 0.025 -58050.1
-0.647644 0 0.025 -57430.7
-0.637397 0 0.025 -56868.7
-0.626906 0 0.025 -56238
-0.616179 0 0.025 -55709.1
-0.605224 0 0.025 -55191.5
-0.594054 0 0.025 -54693
-0.582678 0 0.025 -54174.7
-0.57111 0 0.025 -53708
-0.559364 0 0.025 -53283.2
-0.547454 0 0.025 -52903.4
-0.535396 0 0.025 -52452.2
-0.523205 0 0.025 -52023.3
-0.510901 0 0.025 -51648.4
-0.4985 0 0.025 -51290.3
-0.486021 0 0.025 -50995.1
-0.473483 0 0.025 -50665.4
-0.460905 0 0.025 -50305.8
-0.448308 0 0.025 -49950.6
-0.435709 0 0.025 -49647.3
-0.42313 0 0.025 -49367.7
-0.41059 0 0.025 -49151.5
-0.39811 0 0.025 -48944.3
-0.385706 0 0.025 -48675.9
-0.373398 0 0.025 -48386
-0.361205 0 0.025 -48089.7
-0.349141 0 0.025 -47834.1
-0.337226 0 0.025 -47637.6
-0.325475 0 0.025 -47478.1
-0.313901 0 0.025 -47350.6
-0.30252 0 0.025 -47211.5
-0.291343 0 0.025 -47041.4
-0.280382 0 0.025 -46839
-0.269646 0 0.025 -46625.1
-0.259148 0 0.025 -46411.7
-0.248893 0 0.025 -46227
-0.23889 0 0.025 -46075
-0.229143 0 0.025 -45960
-0.219659 0 0.025 -45857.4
-0.210441 0 0.025 -45754.6
-0.201491 0 0.025 -45644.5
-0.192812 0 0.025 -45521.2
-0.184405 0 0.025 -45381.3
-0.176269 0 0.025 -45244.9
-0.168404 0 0.025 -45121
-0.160808 0 0.025 -45018.7
-0.15348 0 0.025 -44946.2
-0.146415 0 0.025 -44917.3
-0.13961 0 0.025 -44892.4
-0.133063 0 0.025 -44874.8
-0.126767 0 0.025 -44863.5
-0.120718 0 0.025 -44847.5
-0.11491 0 0.025 -44821.4
-0.109339 0 0.025 -44796
-0.103997 0 0.025 -44753.8
-0.0988805 0 0.025 -44699.8
-0.0939808 0 0.025 -44637.7
-0.0892928 0 0.025 -44561
-0.0848096 0 0.025 -44479.1
-0.0805248 0 0.025 -44392.2
-0.0764316 0 0.025 -44300.3
-0.0725237 0 0.025 -44197.8
-0.0687943 0 0.025 -44101.3
-0.065237 0 0.025 -44009.6
-0.0618454 0 0.025 -43924.2
-0.058613 0 0.025 -43843.4
-0.0555337 0 0.025 -43768.9
-0.0526013 0 0.025 -43693.8
-0.0498099 0 0.025 -43629.7
-0.0471536 0 0.025 -43570.9
-0.0446266 0 0.025 -43517.5
-0.0422235 0 0.025 -43469.5
-0.039939 0 0.025 -43432.2
-0.0377676 0 0.025 -43394.5
-0.0357044 0 0.025 -43363.2
-0.0337445 0 0.025 -43330.8
-0.0318832 0 0.025 -42526.9
-0.0301159 0 0.025 -37718.3
-0.0284383 0 0.025 -39363.7
-0.0268461 0 0.025 -59846.6
-0.0253353 0 0.025 -72419.2
-0.023902 0 0.025 -78832.4
-0.0225426 0 0.025 -83427.8
-0.0212532 0 0.025 -87496.6
-0.0200306 0 0.025 -90956.8
-0.0188715 0 0.025 -94107.9
-0.0177728 0 0.025 -97072.3
-0.0167313 0 0.025 -99758.5
-0.0157444 0 0.025 -102333
-0.0148092 0 0.025 -104783
-0.0139232 0 0.025 -107015
-0.0130838 0 0.025 -108971
-0.0122887 0 0.025 -110647
-0.0115356 0 0.025 -112108
-0.0108223 0 0.025 -113373
-0.0101469 0 0.025 -114500
-0.00950727 0 0.025 -115533
-0.00890168 0 0.025 -116534
-0.00832835 0 0.025 -117559
-0.00778557 0 0.025 -118661
-0.00727176 0 0.025 -119857
-0.0067854 0 0.025 -121174
-0.00632507 0 0.025 -122625
-0.00588937 0 0.025 -124197
-0.00547703 0 0.025 -125903
-0.0050868 0 0.025 -127739
-0.00471753 0 0.025 -129722
-0.0043681 0 0.025 -131852
-0.00403746 0 0.025 -134105
-0.00372461 0 0.025 -136506
-0.0034286 0 0.025 -139066
-0.00314855 0 0.025 -141832
-0.0028836 0 0.025 -144731
-0.00263294 0 0.025 -147574
-0.00239581 0 0.025 -150507
-0.0021715 0 0.025 -153569
-0.00195929 0 0.025 -156731
-0.00175856 0 0.025 -159981
-0.00156869 0 0.025 -163340
-0.00138908 0 0.025 -166809
-0.0012192 0 0.025 -170321
-0.00105853 0 0.025 -173905
-0.000906546 0 0.025 -177501
-0.000762803 0 0.025 -180981
-0.000626848 0 0.025 -184019
-0.000498265 0 0.025 -185675
-0.000376656 0 0.025 -184009
-0.000261642 0 0.025 -175220
-0.00015287 0 0.025 -152101
-5e-05 0 0.025 -98489.7
4.14519e-05 2.79596e-05 0.025 -69147.9
0.000125371 8.45641e-05 0.025 -82137.8
0.000211347 0.000142556 0.025 -96969.8
0.000299429 0.000201968 0.025 -108022
0.000389669 0.000262835 0.025 -117342
0.000482118 0.000325193 0.025 -126210
0.000576831 0.000389077 0.025 -134601
0.000673861 0.000454524 0.025 -142234
0.000773265 0.000521574 0.025 -149010
0.0008751 0.000590262 0.025 -154980
0.000979426 0.000660632 0.025 -160258
0.0010863 0.000732721 0.025 -164934
0.00119579 0.000806572 0.025 -169136
0.00130795 0.000882227 0.025 -173066
0.00142285 0.00095973 0.025 -176690
0.00154056 0.00103912 0.025 -180139
0.00166115 0.00112046 0.025 -183443
0.00178467 0.00120378 0.025 -186680
0.00191121 0.00128913 0.025 -189913
0.00204083 0.00137656 0.025 -193077
0.00217362 0.00146612 0.025 -196268
0.00230964 0.00155787 0.025 -199505
0.00244897 0.00165185 0.025 -202793
0.00259169 0.00174812 0.025 -206098
0.00273789 0.00184673 0.025 -209508
0.00288765 0.00194774 0.025 -213041
0.00304105 0.00205122 0.025 -216654
0.00319818 0.00215719 0.025 -220387
0.00335912 0.00226575 0.025 -224303
0.00352397 0.00237695 0.025 -228321
0.00369283 0.00249085 0.025 -232513
0.00386579 0.00260751 0.025 -236871
0.00404294 0.00272699 0.025 -241439
0.00422438 0.00284938 0.025 -246239
0.00441022 0.00297474 0.025 -251264
0.00460056 0.00310312 0.025 -256531
0.00479552 0.00323462 0.025 -262047
0.00499519 0.0033693 0.025 -267915
0.00519968 0.00350723 0.025 -274037
0.00540911 0.00364849 0.025 -280547
0.00562361 0.00379318 0.025 -287418
0.00584329 0.00394134 0.025 -294659
0.00606826 0.00409309 0.025 -302443
0.00629865 0.00424849 0.025 -310632
0.0065346 0.00440764 0.025 -319361
0.00677623 0.00457063 0.025 -328628
0.00702368 0.00473753 0.025 -338412
0.00727707 0.00490844 0.025 -348927
0.00753655 0.00508347 0.025 -360155
0.00780227 0.00526269 0.025 -372160
0.00807436 0.00544622 0.025 -385095
0.00835298 0.00563415 0.025 -398951
0.00863826 0.00582659 0.025 -413872
0.00893038 0.00602362 0.025 -429869
0.00922949 0.00622537 0.025 -447237
0.00953574 0.00643195 0.025 -465841
0.00984929 0.00664345 0.025 -486175
0.0101703 0.00686 0.025 -507829
0.0104991 0.00708171 0.025 -532928
0.0108356 0.00730871 0.025 -559993
0.0111801 0.0075411 0.025 -588209
0.0115329 0.00777902 0.025 -622739
0.011894 0.00802259 0.025 -661175
0.0122637 0.00827194 0.025 -702104
0.0126421 0.00852719 0.025 -748697
0.0130295 0.0087885 0.025 -795112
0.013426 0.00905597 0.025 -842905
0.013832 0.00932978 0.025 -890632
0.0142475 0.00961003 0.025 -936206
0.0146727 0.0098969 0.025 -983736
0.0151081 0.0101905 0.025 -1.02806e+06
0.0155536 0.010491 0.025 -1.07318e+06
0.0160097 0.0107986 0.025 -1.12175e+06
0.0164764 0.0111134 0.025 -1.17491e+06
0.016954 0.0114356 0.025 -1.23188e+06
0.0174427 0.0117653 0.025 -1.28743e+06
0.0179429 0.0121026 0.025 -1.34803e+06
0.0184548 0.0124479 0.025 -1.41979e+06
0.0189786 0.0128013 0.025 -1.47323e+06
0.0195146 0.0131628 0.025 -1.52971e+06
0.020063 0.0135327 0.025 -1.59384e+06
0.0206242 0.0139112 0.025 -1.63777e+06
0.0211983 0.0142984 0.025 -1.67152e+06
0.0217857 0.0146947 0.025 -1.71079e+06
0.0223867 0.0151 0.025 -1.74391e+06
0.0230015 0.0155147 0.025 -1.77331e+06
0.0236304 0.0159389 0.025 -1.80903e+06
0.0242738 0.0163729 0.025 -1.81734e+06
0.0249318 0.0168167 0.025 -1.8392e+06
0.025605 0.0172708 0.025 -1.85693e+06
0.0262935 0.0177352 0.025 -1.84367e+06
0.0269977 0.0182102 0.025 -1.82896e+06
0.0277178 0.0186959 0.025 -1.80211e+06
0.0284544 0.0191927 0.025 -1.82222e+06
0.0292075 0.0197008 0.025 -1.76034e+06
0.0299777 0.0202203 0.025 -1.69021e+06
0.0307653 0.0207514 0.025 -1.64083e+06
0.0315704 0.0212945 0.025 -1.59785e+06
0.0323937 0.0218499 0.025 -1.55915e+06
0.0332354 0.0224176 0.025 -1.52189e+06
0.0340959 0.022998 0.025 -1.49174e+06
0.0349755 0.0235913 0.025 -1.45563e+06
0.0358747 0.0241978 0.025 -1.4509e+06
0.0367938 0.0248178 0.025 -1.41465e+06
0.0377331 0.0254513 0.025 -1.38889e+06
0.0386932 0.0260989 0.025 -1.36641e+06
0.0396743 0.0267606 0.025 -1.34585e+06
0.0406769 0.0274369 0.025 -1.33191e+06
0.0417013 0.0281279 0.025 -1.31382e+06
0.042748 0.0288339 0.025 -1.31593e+06
0.0438175 0.0295552 0.025 -1.30204e+06
0.04491 0.0302922 0.025 -1.29041e+06
0.0460262 0.031045 0.025 -1.29539e+06
0.0471662 0.031814 0.025 -1.30365e+06
0.0483306 0.0325995 0.025 -1.29036e+06
0.0495199 0.0334016 0.025 -1.28809e+06
0.0507344 0.0342208 0.025 -1.28161e+06
0.0519746 0.0350573 0.025 -1.28326e+06
0.0532409 0.0359114 0.025 -1.29248e+06
0.0545339 0.0367835 0.025 -1.28218e+06
0.0558538 0.0376739 0.025 -1.2802e+06
0.0572012 0.0385827 0.025 -1.27906e+06
0.0585766 0.0395104 0.025 -1.27952e+06
0.0599804 0.0404573 0.025 -1.29293e+06
0.061413 0.0414236 0.025 -1.27894e+06
0.0628748 0.0424096 0.025 -1.30212e+06
0.0643665 0.0434157 0.025 -1.298e+06
0.0658883 0.0444422 0.025 -1.27597e+06
0.0674408 0.0454894 0.025 -1.2692e+06
0.0690245 0.0465576 0.025 -1.27276e+06
0.0706398 0.0476471 0.025 -1.26936e+06
0.0722871 0.0487582 0.025 -1.2645e+06
0.0739669 0.0498912 0.025 -1.25913e+06
0.0756797 0.0510466 0.025 -1.26579e+06
0.0774258 0.0522244 0.025 -1.27398e+06
0.0792059 0.053425 0.025 -1.27084e+06
0.0810203 0.0546489 0.025 -1.29474e+06
0.0828694 0.0558961 0.025 -1.26928e+06
0.0847537 0.0571671 0.025 -1.31606e+06
0.0866737 0.0584622 0.025 -1.27728e+06
0.0886298 0.0597816 0.025 -1.27983e+06
0.0906224 0.0611256 0.025 -1.28696e+06
0.0926518 0.0624944 0.025 -1.25078e+06
0.0947185 0.0638884 0.025 -1.28804e+06
0.096823 0.065308 0.025 -1.24188e+06
0.0989659 0.0667532 0.025 -1.32469e+06
0.101147 0.0682245 0.025 -1.6629e+06
0.103367 0.0697219 0.025 -1.57132e+06
0.105626 0.0712458 0.025 -1.18899e+06
0.107926 0.0727965 0.025 -1.18745e+06
0.110265 0.074374 0.025 -1.23138e+06
0.112644 0.0759789 0.025 -1.84422e+06
0.115063 0.0776111 0.025 -1.24881e+06
0.117524 0.0792709 0.025 -1.73e+06
0.120026 0.0809585 0.025 -1.89369e+06
0.122569 0.0826741 0.025 -1.67056e+06
0.125155 0.0844179 0.025 -1.48296e+06
0.127782 0.0861901 0.025 -1.28248e+06
0.130451 0.0879908 0.025 -1.23566e+06
0.133163 0.08982 0.025 -1.21162e+06
0.135918 0.0916781 0.025 -1.1818e+06
0.138716 0.0935651 0.025 -1.18599e+06
0.141556 0.095481 0.025 -1.19746e+06
0.14444 0.097426 0.025 -1.5732e+06
0.147367 0.0994004 0.025 -2.28657e+06
0.150337 0.101404 0.025 -1.64845e+06
0.153351 0.103437 0.025 -1.59093e+06
0.156408 0.105498 0.025 -2.18003e+06
0.159508 0.107589 0.025 -1.01493e+06
0.162651 0.10971 0.025 -1.49609e+06
0.165838 0.111859 0.025 -3.43487e+06
0.169069 0.114039 0.025 -1.64291e+06
0.172343 0.116247 0.025 -1.96101e+06
0.175659 0.118483 0.025 -1.84382e+06
0.179018 0.120749 0.025 -1.83306e+06
0.182421 0.123045 0.025 -1.8861e+06
0.185866 0.125368 0.025 -1.6605e+06
0.189353 0.12772 0.025 -1.70346e+06
0.192882 0.1301 0.025 -1.81109e+06
0.196453 0.132509 0.025 -1.71365e+06
0.200065 0.134946 0.025 -2.08931e+06
0.203718 0.13741 0.025 -1.89536e+06
0.207412 0.139901 0.025 -907108
0.211146 0.14242 0.025 -963889
0.214919 0.144965 0.025 -1.56178e+06
0.218732 0.147537 0.025 -960814
0.222583 0.150134 0.025 -1.82996e+06
0.226472 0.152757 0.025 -950707
0.230399 0.155406 0.025 -1.75859e+06
0.234362 0.15808 0.025 -1.65834e+06
0.238362 0.160777 0.025 -2.19943e+06
0.242396 0.163498 0.025 -1.92567e+06
0.246466 0.166244 0.025 -2.08057e+06
0.250569 0.169012 0.025 -922907
0.254706 0.171801 0.025 -1.50382e+06
0.258874 0.174613 0.025 -1.49977e+06
0.263074 0.177446 0.025 -1.89211e+06
0.267304 0.180299 0.025 -1.53564e+06
0.271564 0.183172 0.025 -925070
0.275852 0.186064 0.025 -1.56949e+06
0.280168 0.188975 0.025 -899825
0.28451 0.191904 0.025 -1.5924e+06
0.288876 0.19485 0.025 -2.15013e+06
0.293268 0.197812 0.025 -1.55959e+06
0.297683 0.20079 0.025 -1.82835e+06
0.302119 0.203782 0.025 -2.04102e+06
0.306577 0.206788 0.025 -1.47035e+06
0.311054 0.209808 0.025 -1.53366e+06
0.315549 0.212841 0.025 -1.12992e+06
0.320063 0.215885 0.025 -1.88559e+06
0.324591 0.218939 0.025 -1.37745e+06
0.329134 0.222003 0.025 -1.35954e+06
0.333691 0.225077 0.025 -2.04783e+06
0.33826 0.228159 0.025 -1.74127e+06
0.342839 0.231248 0.025 -1.77324e+06
0.347428 0.234343 0.025 -853627
0.352025 0.237444 0.025 -1.84521e+06
0.356628 0.240548 0.025 -1.3695e+06
0.361237 0.243658 0.025 -1.12264e+06
0.36585 0.246769 0.025 -2.34052e+06
0.370465 0.249882 0.025 -1.08112e+06
0.375082 0.252996 0.025 -1.45287e+06
0.379698 0.25611 0.025 -2.28197e+06
0.384313 0.259223 0.025 -1.35838e+06
0.388926 0.262333 0.025 -1.64004e+06
0.393534 0.265442 0.025 -1.36164e+06
0.398136 0.268546 0.025 -856412
0.40273 0.271645 0.025 -1.55771e+06
0.407317 0.274739 0.025 -1.61751e+06
0.411894 0.277826 0.025 -1.9827e+06
0.41646 0.280906 0.025 -820322
0.421014 0.283977 0.025 -1.53417e+06
0.425554 0.28704 0.025 -1.76986e+06
0.430079 0.290092 0.025 -1.43303e+06
0.434588 0.293133 0.025 -1.73833e+06
0.439079 0.296162 0.025 -1.23822e+06
0.443551 0.299179 0.025 -1.59698e+06
0.448004 0.302183 0.025 -1.62241e+06
0.452437 0.305172 0.025 -1.58864e+06
0.456846 0.308146 0.025 -1.47888e+06
0.461232 0.311105 0.025 -1.50201e+06
0.465593 0.314047 0.025 -1.39386e+06
0.469929 0.316971 0.025 -1.84696e+06
0.474238 0.319878 0.025 -965001
0.47852 0.322766 0.025 -1.07647e+06
0.482773 0.325635 0.025 -855760
0.486996 0.328483 0.025 -1.27718e+06
0.491189 0.331311 0.025 -1.90047e+06
0.49535 0.334118 0.025 -1.24692e+06
