# wallHeatFlux  FACE_DATA 298
# x  y  z  wallHeatFlux
-0.789454 0 0.005 -321986
-0.76864 0 0.005 -54530
-0.748373 0 0.005 -57414.5
-0.72864 0 0.005 -62867.1
-0.709426 0 0.005 -66350.8
-0.690719 0 0.005 -68635.4
-0.672503 0 0.005 -70054.9
-0.654767 0 0.005 -70759.5
-0.637498 0 0.005 -71202.8
-0.620683 0 0.005 -71309.1
-0.604311 0 0.005 -71257.3
-0.588369 0 0.005 -71147.5
-0.572847 0 0.005 -71037
-0.557734 0 0.005 -70807.4
-0.543018 0 0.005 -70480.9
-0.52869 0 0.005 -70153.1
-0.514738 0 0.005 -69878.5
-0.501153 0 0.005 -69679.3
-0.487926 0 0.005 -69491.8
-0.475046 0 0.005 -69246.7
-0.462505 0 0.005 -68987.4
-0.450294 0 0.005 -68723
-0.438403 0 0.005 -68493
-0.426826 0 0.005 -68306.3
-0.415552 0 0.005 -68132.4
-0.404575 0 0.005 -67962.9
-0.393887 0 0.005 -67760.2
-0.383478 0 0.005 -67555.9
-0.373344 0 0.005 -67355.4
-0.363476 0 0.005 -67171.8
-0.353866 0 0.005 -67015.9
-0.34451 0 0.005 -66874.9
-0.335398 0 0.005 -66749
-0.326526 0 0.005 -66628.7
-0.317887 0 0.005 -66492.7
-0.309474 0 0.005 -66350.7
-0.301281 0 0.005 -66196.1
-0.293304 0 0.005 -66047.1
-0.285535 0 0.005 -65895.5
-0.277971 0 0.005 -65770.1
-0.270605 0 0.005 -65648.8
-0.263431 0 0.005 -65555.8
-0.256444 0 0.005 -65470.2
-0.249642 0 0.005 -65405.8
-0.243016 0 0.005 -65341.2
-0.236565 0 0.005 -65281.7
-0.230282 0 0.005 -65221.6
-0.224163 0 0.005 -65150.9
-0.218204 0 0.005 -65069.2
-0.2124 0 0.005 -64977.6
-0.206748 0 0.005 -64876
-0.201243 0 0.005 -64770.6
-0.195882 0 0.005 -64649.1
-0.190661 0 0.005 -64524.4
-0.185575 0 0.005 -64400.3
-0.180621 0 0.005 -64289
-0.175796 0 0.005 -64188.4
-0.171097 0 0.005 -64104.2
-0.16652 0 0.005 -64025.9
-0.162061 0 0.005 -63963.7
-0.157718 0 0.005 -63917.6
-0.153487 0 0.005 -63888.4
-0.149367 0 0.005 -63862.8
-0.145351 0 0.005 -63845.2
-0.14144 0 0.005 -63835.7
-0.13763 0 0.005 -63826.4
-0.133918 0 0.005 -63820.6
-0.130302 0 0.005 -63824.7
-0.126778 0 0.005 -63811.1
-0.123345 0 0.005 -63800.7
-0.119999 0 0.005 -63801.6
-0.116739 0 0.005 -63797.3
-0.113562 0 0.005 -63796.5
-0.110466 0 0.005 -63789.2
-0.107449 0 0.005 -63780.2
-0.104509 0 0.005 -63767.7
-0.101644 0 0.005 -63746.5
-0.0988499 0 0.005 -63724.5
-0.0961267 0 0.005 -63698.6
-0.0934723 0 0.005 -63668.7
-0.0908845 0 0.005 -63634.7
-0.0883616 0 0.005 -63600.5
-0.0859017 0 0.005 -63555.8
-0.0835029 0 0.005 -63516.6
-0.0811636 0 0.005 -63478
-0.0788823 0 0.005 -63433.1
-0.0766572 0 0.005 -63390.3
-0.0744867 0 0.005 -63345.7
-0.0723694 0 0.005 -63297.9
-0.0703036 0 0.005 -63253.6
-0.068288 0 0.005 -63205.7
-0.0663211 0 0.005 -63157.5
-0.0644014 0 0.005 -63114.7
-0.0625277 0 0.005 -63066.8
-0.0606985 0 0.005 -63024.5
-0.0589126 0 0.005 -62982.4
-0.0571687 0 0.005 -62940.4
-0.0554656 0 0.005 -62898.6
-0.0538019 0 0.005 -62863.1
-0.0521766 0 0.005 -62825.8
-0.0505886 0 0.005 -62791.4
-0.0490366 0 0.005 -62754.5
-0.0475196 0 0.005 -62725.2
-0.0460364 0 0.005 -62695.4
-0.0445861 0 0.005 -62661.1
-0.0431675 0 0.005 -62631.2
-0.0417798 0 0.005 -62601.5
-0.0404219 0 0.005 -62579
-0.0390927 0 0.005 -62556
-0.0377914 0 0.005 -62463.8
-0.0365171 0 0.005 -61027
-0.0352688 0 0.005 -52838
-0.0340456 0 0.005 -39576.8
-0.0328467 0 0.005 -42681.2
-0.0316712 0 0.005 -54973.5
-0.0305183 0 0.005 -62579
-0.0293871 0 0.005 -68447.5
-0.028277 0 0.005 -72948.8
-0.0271869 0 0.005 -76797
-0.0261162 0 0.005 -80177
-0.0250641 0 0.005 -83159.8
-0.02403 0 0.005 -85877.4
-0.023013 0 0.005 -88365.1
-0.0220124 0 0.005 -90650.4
-0.0210274 0 0.005 -92918
-0.0200575 0 0.005 -95099.9
-0.0191018 0 0.005 -97169.2
-0.0181598 0 0.005 -99125.2
-0.0172307 0 0.005 -100981
-0.0163139 0 0.005 -102715
-0.0154087 0 0.005 -104251
-0.0145146 0 0.005 -105610
-0.0136307 0 0.005 -106873
-0.0127566 0 0.005 -108006
-0.0118916 0 0.005 -108979
-0.011035 0 0.005 -109863
-0.0101864 0 0.005 -110701
-0.00934497 0 0.005 -111685
-0.00851021 0 0.005 -112778
-0.00768153 0 0.005 -114365
-0.00685832 0 0.005 -116426
-0.00604 0 0.005 -119492
-0.00522598 0 0.005 -123199
-0.0044157 0 0.005 -128180
-0.00360857 0 0.005 -134524
-0.002804 0 0.005 -141990
-0.00200143 0 0.005 -150638
-0.00120028 0 0.005 -154314
-0.0004 0 0.005 -158327
0.00034641 0.0002 0.005 -119407
0.00103936 0.000600074 0.005 -139328
0.00173269 0.00100037 0.005 -164888
0.00242667 0.00140104 0.005 -182139
0.00312154 0.00180222 0.005 -196089
0.00381758 0.00220408 0.005 -208191
0.00451503 0.00260675 0.005 -221057
0.00521415 0.00301039 0.005 -234743
0.0059152 0.00341514 0.005 -249704
0.00661845 0.00382117 0.005 -265950
0.00732415 0.0042286 0.005 -283862
0.00803257 0.00463761 0.005 -303647
0.00874396 0.00504833 0.005 -325556
0.0094586 0.00546093 0.005 -349762
0.0101767 0.00587555 0.005 -376560
0.0108987 0.00629234 0.005 -405890
0.0116246 0.00671146 0.005 -438756
0.0123549 0.00713309 0.005 -474944
0.0130897 0.00755735 0.005 -515150
0.0138294 0.00798441 0.005 -560020
0.0145742 0.00841443 0.005 -609840
0.0153244 0.00884757 0.005 -665581
0.0160804 0.009284 0.005 -727612
0.0168422 0.00972386 0.005 -796994
0.0176104 0.0101673 0.005 -873693
0.018385 0.0106146 0.005 -958207
0.0191664 0.0110657 0.005 -1.04782e+06
0.019955 0.011521 0.005 -1.14365e+06
0.0207509 0.0119805 0.005 -1.24342e+06
0.0215546 0.0124445 0.005 -1.34526e+06
0.0223662 0.0129131 0.005 -1.44975e+06
0.0231861 0.0133865 0.005 -1.55296e+06
0.0240146 0.0138648 0.005 -1.65418e+06
0.0248521 0.0143483 0.005 -1.75e+06
0.0256987 0.0148371 0.005 -1.83554e+06
0.0265549 0.0153315 0.005 -1.91482e+06
0.0274209 0.0158315 0.005 -1.98901e+06
0.0282971 0.0163373 0.005 -2.07133e+06
0.0291837 0.0168492 0.005 -2.11917e+06
0.0300812 0.0173674 0.005 -2.16079e+06
0.0309898 0.017892 0.005 -2.19184e+06
0.03191 0.0184232 0.005 -2.21006e+06
0.0328419 0.0189613 0.005 -2.18745e+06
0.033786 0.0195063 0.005 -2.15318e+06
0.0347427 0.0200587 0.005 -2.10614e+06
0.0357122 0.0206184 0.005 -2.03905e+06
0.036695 0.0211858 0.005 -1.96835e+06
0.0376913 0.0217611 0.005 -1.90416e+06
0.0387017 0.0223444 0.005 -1.83007e+06
0.0397264 0.022936 0.005 -1.76196e+06
0.0407658 0.0235361 0.005 -1.70209e+06
0.0418202 0.0241449 0.005 -1.65019e+06
0.0428902 0.0247627 0.005 -1.59947e+06
0.0439762 0.0253897 0.005 -1.5543e+06
0.0450784 0.0260261 0.005 -1.51748e+06
0.0461974 0.0266721 0.005 -1.48275e+06
0.0473334 0.0273279 0.005 -1.45307e+06
0.0484871 0.027994 0.005 -1.42618e+06
0.0496586 0.0286704 0.005 -1.42356e+06
0.0508486 0.0293575 0.005 -1.39878e+06
0.0520574 0.0300554 0.005 -1.37071e+06
0.0532855 0.0307644 0.005 -1.36585e+06
0.0545335 0.0314849 0.005 -1.34777e+06
0.0558016 0.0322171 0.005 -1.33996e+06
0.0570903 0.0329612 0.005 -1.3202e+06
0.0584003 0.0337174 0.005 -1.31991e+06
0.0597319 0.0344863 0.005 -1.30679e+06
0.0610857 0.0352678 0.005 -1.31198e+06
0.062462 0.0360624 0.005 -1.30653e+06
0.0638616 0.0368705 0.005 -1.28802e+06
0.0652848 0.0376922 0.005 -1.29099e+06
0.0667321 0.0385279 0.005 -1.27499e+06
0.0682043 0.0393778 0.005 -1.27986e+06
0.0697018 0.0402423 0.005 -1.25718e+06
0.071225 0.0411218 0.005 -1.25272e+06
0.0727747 0.0420165 0.005 -1.23864e+06
0.0743514 0.0429267 0.005 -1.24039e+06
0.0759556 0.043853 0.005 -1.23439e+06
0.0775879 0.0447954 0.005 -1.23512e+06
0.0792491 0.0457545 0.005 -1.23095e+06
0.0809395 0.0467305 0.005 -1.23179e+06
0.08266 0.0477239 0.005 -1.21663e+06
0.0844112 0.0487348 0.005 -1.20114e+06
0.0861936 0.0497639 0.005 -1.19808e+06
0.0880081 0.0508114 0.005 -1.19216e+06
0.089855 0.0518778 0.005 -1.18009e+06
0.0917354 0.0529634 0.005 -1.1691e+06
0.0936497 0.0540687 0.005 -1.17013e+06
0.0955988 0.055194 0.005 -1.16172e+06
0.0975833 0.0563398 0.005 -1.17283e+06
0.0996037 0.0575064 0.005 -1.33476e+06
0.101662 0.0586943 0.005 -1.25633e+06
0.103757 0.0599039 0.005 -1.26526e+06
0.10589 0.0611359 0.005 -1.13662e+06
0.108064 0.0623905 0.005 -1.11613e+06
0.110277 0.0636682 0.005 -1.14296e+06
0.112531 0.0649695 0.005 -1.19447e+06
0.114826 0.0662949 0.005 -1.28845e+06
0.117164 0.0676448 0.005 -1.36751e+06
0.119546 0.0690198 0.005 -1.22869e+06
0.121972 0.0704204 0.005 -1.21148e+06
0.124443 0.0718472 0.005 -1.09018e+06
0.126961 0.0733005 0.005 -1.20908e+06
0.129525 0.0747811 0.005 -1.08128e+06
0.132137 0.0762893 0.005 -1.19558e+06
0.134798 0.0778258 0.005 -1.36224e+06
0.13751 0.0793912 0.005 -1.30945e+06
0.140272 0.080986 0.005 -1.06073e+06
0.143086 0.0826109 0.005 -1.31335e+06
0.145954 0.0842664 0.005 -1.27188e+06
0.148875 0.085953 0.005 -1.2586e+06
0.151852 0.0876716 0.005 -1.24301e+06
0.154884 0.0894226 0.005 -1.14088e+06
0.157975 0.0912068 0.005 -1.31165e+06
0.161123 0.0930248 0.005 -1.27884e+06
0.164332 0.0948773 0.005 -1.16313e+06
0.167602 0.096765 0.005 -1.15826e+06
0.170933 0.0986885 0.005 -1.03603e+06
0.174328 0.100649 0.005 -996864
0.177788 0.102646 0.005 -991155
0.181313 0.104681 0.005 -986093
0.184907 0.106756 0.005 -1.33581e+06
0.188568 0.10887 0.005 -995030
0.192299 0.111024 0.005 -1.25483e+06
0.196102 0.113219 0.005 -1.12887e+06
0.199977 0.115456 0.005 -1.21401e+06
0.203926 0.117737 0.005 -1.20866e+06
0.20795 0.120061 0.005 -997360
0.212053 0.122428 0.005 -1.20715e+06
0.216234 0.124843 0.005 -1.24603e+06
0.220494 0.127302 0.005 -1.20907e+06
0.224837 0.129809 0.005 -902757
0.229262 0.132365 0.005 -1.26575e+06
0.233773 0.134969 0.005 -1.21587e+06
0.23837 0.137624 0.005 -953985
0.243057 0.140328 0.005 -1.10427e+06
0.247833 0.143086 0.005 -1.0745e+06
0.2527 0.145896 0.005 -1.14619e+06
0.257662 0.148761 0.005 -1.0488e+06
0.262718 0.151681 0.005 -1.15417e+06
0.267873 0.154657 0.005 -1.20293e+06
0.273127 0.15769 0.005 -1.1286e+06
0.278482 0.160781 0.005 -864153
0.28394 0.163933 0.005 -1.15923e+06
0.289504 0.167145 0.005 -1.09025e+06
0.295175 0.170419 0.005 -1.17568e+06
0.300955 0.173756 0.005 -1.09819e+06
0.306846 0.177158 0.005 -860293
0.312851 0.180625 0.005 -1.21586e+06
