# p  FACE_DATA 240
# x  y  z  p
-0.771783 0 0.026 3539.03
-0.74637 0 0.026 2986.49
-0.719597 0 0.026 2840.63
-0.693782 0 0.026 2789.24
-0.66889 0 0.026 2773.85
-0.644887 0 0.026 2767.02
-0.621743 0 0.026 2764.5
-0.599426 0 0.026 2765.63
-0.577906 0 0.026 2766.68
-0.557155 0 0.026 2765.4
-0.537145 0 0.026 2763.6
-0.517849 0 0.026 2762.08
-0.499243 0 0.026 2761.02
-0.481301 0 0.026 2759.83
-0.463999 0 0.026 2758.58
-0.447315 0 0.026 2757.51
-0.431226 0 0.026 2756.77
-0.41571 0 0.026 2755.98
-0.400747 0 0.026 2755.07
-0.386317 0 0.026 2754.19
-0.372401 0 0.026 2753.12
-0.358982 0 0.026 2751.96
-0.346039 0 0.026 2751.06
-0.333557 0 0.026 2750.5
-0.321518 0 0.026 2750
-0.309908 0 0.026 2749.43
-0.298709 0 0.026 2748.92
-0.287908 0 0.026 2748.7
-0.27749 0 0.026 2748.66
-0.267441 0 0.026 2748.53
-0.257748 0 0.026 2748.08
-0.248397 0 0.026 2747.34
-0.239378 0 0.026 2746.4
-0.230676 0 0.026 2745.33
-0.222282 0 0.026 2744.26
-0.214183 0 0.026 2743.31
-0.20637 0 0.026 2742.51
-0.19883 0 0.026 2741.83
-0.191555 0 0.026 2741.32
-0.184536 0 0.026 2741.01
-0.177762 0 0.026 2740.84
-0.171224 0 0.026 2740.91
-0.165013 0 0.026 2741.16
-0.159119 0 0.026 2741.5
-0.153435 0 0.026 2741.89
-0.14795 0 0.026 2742.29
-0.14266 0 0.026 2742.66
-0.137557 0 0.026 2743.01
-0.132633 0 0.026 2743.28
-0.127882 0 0.026 2743.43
-0.123298 0 0.026 2743.44
-0.118874 0 0.026 2743.32
-0.114605 0 0.026 2743.09
-0.110484 0 0.026 2742.79
-0.106508 0 0.026 2742.44
-0.10267 0 0.026 2742.04
-0.0989664 0 0.026 2741.6
-0.0953906 0 0.026 2741.13
-0.0919392 0 0.026 2740.64
-0.0886074 0 0.026 2740.12
-0.085391 0 0.026 2739.59
-0.0822859 0 0.026 2739.06
-0.079288 0 0.026 2738.53
-0.0763938 0 0.026 2738.02
-0.0735993 0 0.026 2737.52
-0.0709011 0 0.026 2737.06
-0.0682959 0 0.026 2736.65
-0.0657802 0 0.026 2736.29
-0.063351 0 0.026 2735.99
-0.0610052 0 0.026 2735.75
-0.05874 0 0.026 2735.55
-0.0565524 0 0.026 2735.4
-0.0544398 0 0.026 2735.27
-0.0523995 0 0.026 2735.17
-0.0504291 0 0.026 2735.09
-0.048526 0 0.026 2735.01
-0.046688 0 0.026 2734.95
-0.0449127 0 0.026 2734.9
-0.043198 0 0.026 2734.85
-0.0415419 0 0.026 2734.81
-0.0399422 0 0.026 2734.78
-0.0383971 0 0.026 2734.76
-0.0369046 0 0.026 2734.75
-0.0354628 0 0.026 2734.74
-0.0340701 0 0.026 2734.74
-0.0327248 0 0.026 2734.74
-0.0314253 0 0.026 2734.75
-0.0301698 0 0.026 2734.77
-0.0289571 0 0.026 2734.79
-0.0277855 0 0.026 2734.82
-0.0266537 0 0.026 2734.85
-0.0255603 0 0.026 2734.89
-0.0245039 0 0.026 2734.97
-0.0234834 0 0.026 2734.93
-0.0224975 0 0.026 2734.96
-0.0215449 0 0.026 2734.99
-0.0206246 0 0.026 2735.03
-0.0197355 0 0.026 2735.06
-0.0188765 0 0.026 2735.1
-0.0180466 0 0.026 2735.13
-0.0172447 0 0.026 2735.16
-0.0164699 0 0.026 2735.19
-0.0157213 0 0.026 2735.22
-0.0149981 0 0.026 2735.27
-0.0142993 0 0.026 2737.85
-0.0136241 0 0.026 2838.34
-0.0129717 0 0.026 3927.57
-0.0123413 0 0.026 5758.91
-0.0117322 0 0.026 6656.9
-0.0111437 0 0.026 7135.71
-0.010575 0 0.026 7492.52
-0.0100256 0 0.026 7772.15
-0.00949468 0 0.026 8006.63
-0.00898166 0 0.026 8206.49
-0.00848594 0 0.026 8389.77
-0.00800694 0 0.026 8556.61
-0.00754409 0 0.026 8711.13
-0.00709684 0 0.026 8855.66
-0.00666467 0 0.026 8989.89
-0.00624706 0 0.026 9114.3
-0.00584352 0 0.026 9229.65
-0.00545358 0 0.026 9336.08
-0.00507677 0 0.026 9433.75
-0.00471265 0 0.026 9522.46
-0.0043608 0 0.026 9602.3
-0.0040208 0 0.026 9673.21
-0.00369224 0 0.026 9735.37
-0.00337474 0 0.026 9789.81
-0.00306793 0 0.026 9837.5
-0.00277146 0 0.026 9881.61
-0.00248495 0 0.026 9924.6
-0.00220809 0 0.026 9968.61
-0.00194054 0 0.026 10019.5
-0.001682 0 0.026 10078.5
-0.00143216 0 0.026 10151.2
-0.00119071 0 0.026 10266
-0.000957397 0 0.026 10384
-0.000731928 0 0.026 10528.7
-0.00051404 0 0.026 10695.3
-0.00030348 0 0.026 10956.6
-0.0001 0 0.026 11829.7
8.66025e-05 5e-05 0.026 10489
0.000259964 0.00015009 0.026 10724
0.000433795 0.000250451 0.026 10640.3
0.000608407 0.000351264 0.026 10556.9
0.000784117 0.000452711 0.026 10537.7
0.000961243 0.000554974 0.026 10564.8
0.0011401 0.000658238 0.026 10627.2
0.00132102 0.000762689 0.026 10720.7
0.00150431 0.000868516 0.026 10841.6
0.00169033 0.000975909 0.026 10983.6
0.00187939 0.00108506 0.026 11144.7
0.00207184 0.00119618 0.026 11325.7
0.00226802 0.00130945 0.026 11526.9
0.00246831 0.00142508 0.026 11748.2
0.00267303 0.00154328 0.026 11989.8
0.00288259 0.00166427 0.026 12253.4
0.00309735 0.00178825 0.026 12539.6
0.00331769 0.00191547 0.026 12850.6
0.00354401 0.00204614 0.026 13188.1
0.00377673 0.0021805 0.026 13553.8
0.00401626 0.00231879 0.026 13949.4
0.00426304 0.00246127 0.026 14376.9
0.0045175 0.00260818 0.026 14837.6
0.00478012 0.0027598 0.026 15333.8
0.00505136 0.0029164 0.026 15869
0.0053317 0.00307826 0.026 16445
0.00562167 0.00324567 0.026 17065.2
0.00592177 0.00341894 0.026 17732.2
0.00623257 0.00359837 0.026 18450.4
0.0065546 0.0037843 0.026 19224.6
0.00688845 0.00397706 0.026 20061.7
0.00723473 0.00417698 0.026 20967
0.00759407 0.00438444 0.026 21944.3
0.0079671 0.00459981 0.026 22997.9
0.0083545 0.00482347 0.026 24132.6
0.00875697 0.00505584 0.026 25357.2
0.00917525 0.00529733 0.026 26683.8
0.00961007 0.00554838 0.026 28126.8
0.0100622 0.00580943 0.026 29705.2
0.0105325 0.00608095 0.026 31438.2
0.0110218 0.00636345 0.026 33353.8
0.011531 0.00665743 0.026 35483.4
0.012061 0.00696343 0.026 37855.8
0.0126127 0.00728197 0.026 40504.9
0.0131872 0.00761366 0.026 43474
0.0137855 0.00795908 0.026 46797.8
0.0144087 0.00831886 0.026 50482.6
0.0150578 0.00869364 0.026 54559.8
0.0157341 0.0090841 0.026 59041
0.0164388 0.00949095 0.026 63905.7
0.0171732 0.00991493 0.026 69056.4
0.0179385 0.0103568 0.026 74305.5
0.0187362 0.0108173 0.026 79577.5
0.0195677 0.0112974 0.026 84825.9
0.0204344 0.0117978 0.026 89989.2
0.0213381 0.0123195 0.026 94847.1
0.0222801 0.0128635 0.026 99212.9
0.0232625 0.0134306 0.026 102575
0.0242867 0.014022 0.026 104641
0.0253548 0.0146386 0.026 106041
0.0264686 0.0152817 0.026 107456
0.0276302 0.0159524 0.026 108650
0.0288416 0.0166517 0.026 108160
0.0301051 0.0173812 0.026 106696
0.0314228 0.018142 0.026 105669
0.0327972 0.0189355 0.026 105304
0.0342308 0.0197632 0.026 104908
0.0357262 0.0206265 0.026 103821
0.0372859 0.021527 0.026 102747
0.038913 0.0224664 0.026 102266
0.0406102 0.0234463 0.026 102253
0.0423807 0.0244685 0.026 102014
0.0442276 0.0255348 0.026 101635
0.0461543 0.0266472 0.026 101467
0.0481643 0.0278077 0.026 101657
0.0502611 0.0290183 0.026 101831
0.0524487 0.0302813 0.026 101863
0.0547308 0.0315988 0.026 101552
0.0571116 0.0329735 0.026 101194
0.0595956 0.0344075 0.026 101152
0.0621869 0.0359036 0.026 101465
0.0648905 0.0374645 0.026 101860
0.0677111 0.039093 0.026 102075
0.0706539 0.040792 0.026 102157
0.073724 0.0425646 0.026 102213
0.0769272 0.044414 0.026 102207
0.0802692 0.0463434 0.026 102142
0.0837559 0.0483565 0.026 102077
0.0873938 0.0504568 0.026 101969
0.0911892 0.0526481 0.026 101923
0.0951492 0.0549344 0.026 101967
0.0992806 0.0573198 0.026 102152
0.103592 0.0598086 0.026 102400
0.10809 0.0624052 0.026 102399
0.112782 0.0651144 0.026 102288
0.117678 0.0679412 0.026 102390
0.122786 0.0708904 0.026 102528
0.128115 0.0739676 0.026 102681
0.133677 0.0771782 0.026 102627
