# wallHeatFlux  FACE_DATA 240
# x  y  z  wallHeatFlux
-0.771783 0 0.026 -320120
-0.74637 0 0.026 -80892.5
-0.719597 0 0.026 -77813.9
-0.693782 0 0.026 -76487
-0.66889 0 0.026 -75903.1
-0.644887 0 0.026 -75160
-0.621743 0 0.026 -74416.9
-0.599426 0 0.026 -74045.3
-0.577906 0 0.026 -73779.9
-0.557155 0 0.026 -73408.4
-0.537145 0 0.026 -72930.7
-0.517849 0 0.026 -72399.9
-0.499243 0 0.026 -71869.1
-0.481301 0 0.026 -71338.3
-0.463999 0 0.026 -71019.8
-0.447315 0 0.026 -70807.5
-0.431226 0 0.026 -70595.2
-0.41571 0 0.026 -70223.6
-0.400747 0 0.026 -69799
-0.386317 0 0.026 -69321.3
-0.372401 0 0.026 -69002.8
-0.358982 0 0.026 -68843.6
-0.346039 0 0.026 -68737.4
-0.333557 0 0.026 -68684.3
-0.321518 0 0.026 -68578.2
-0.309908 0 0.026 -68365.9
-0.298709 0 0.026 -68153.5
-0.287908 0 0.026 -67835.1
-0.27749 0 0.026 -67569.7
-0.267441 0 0.026 -67357.4
-0.257748 0 0.026 -67198.1
-0.248397 0 0.026 -67038.9
-0.239378 0 0.026 -66932.7
-0.230676 0 0.026 -66826.6
-0.222282 0 0.026 -66720.4
-0.214183 0 0.026 -66561.2
-0.20637 0 0.026 -66401.9
-0.19883 0 0.026 -66242.7
-0.191555 0 0.026 -66083.5
-0.184536 0 0.026 -65977.3
-0.177762 0 0.026 -65871.1
-0.171224 0 0.026 -65765
-0.165013 0 0.026 -65765
-0.159119 0 0.026 -65765
-0.153435 0 0.026 -65818.1
-0.14795 0 0.026 -65871.1
-0.14266 0 0.026 -65924.2
-0.137557 0 0.026 -66030.4
-0.132633 0 0.026 -66030.4
-0.127882 0 0.026 -66083.5
-0.123298 0 0.026 -66083.5
-0.118874 0 0.026 -66083.5
-0.114605 0 0.026 -66030.4
-0.110484 0 0.026 -66030.4
-0.106508 0 0.026 -65977.3
-0.10267 0 0.026 -65871.1
-0.0989664 0 0.026 -65818.1
-0.0953906 0 0.026 -65711.9
-0.0919392 0 0.026 -65605.7
-0.0886074 0 0.026 -65499.6
-0.085391 0 0.026 -65340.4
-0.0822859 0 0.026 -65234.2
-0.079288 0 0.026 -65075
-0.0763938 0 0.026 -64915.7
-0.0735993 0 0.026 -64809.6
-0.0709011 0 0.026 -64650.3
-0.0682959 0 0.026 -64544.2
-0.0657802 0 0.026 -64384.9
-0.063351 0 0.026 -64278.8
-0.0610052 0 0.026 -64172.6
-0.05874 0 0.026 -64066.5
-0.0565524 0 0.026 -63960.3
-0.0544398 0 0.026 -63907.2
-0.0523995 0 0.026 -63801.1
-0.0504291 0 0.026 -63748
-0.048526 0 0.026 -63694.9
-0.046688 0 0.026 -63588.7
-0.0449127 0 0.026 -63535.7
-0.043198 0 0.026 -63482.6
-0.0415419 0 0.026 -63429.5
-0.0399422 0 0.026 -63376.4
-0.0383971 0 0.026 -63376.4
-0.0369046 0 0.026 -63323.3
-0.0354628 0 0.026 -63270.3
-0.0340701 0 0.026 -63270.3
-0.0327248 0 0.026 -63217.2
-0.0314253 0 0.026 -63217.2
-0.0301698 0 0.026 -63217.2
-0.0289571 0 0.026 -63164.1
-0.0277855 0 0.026 -63164.1
-0.0266537 0 0.026 -63164.1
-0.0255603 0 0.026 -63164.1
-0.0245039 0 0.026 -63111
-0.0234834 0 0.026 -63164.1
-0.0224975 0 0.026 -63111
-0.0215449 0 0.026 -63111
-0.0206246 0 0.026 -63111
-0.0197355 0 0.026 -63164.1
-0.0188765 0 0.026 -63164.1
-0.0180466 0 0.026 -63164.1
-0.0172447 0 0.026 -63164.1
-0.0164699 0 0.026 -63164.1
-0.0157213 0 0.026 -63164.1
-0.0149981 0 0.026 -63164.1
-0.0142993 0 0.026 -63429.5
-0.0136241 0 0.026 -71550.6
-0.0129717 0 0.026 -125585
-0.0123413 0 0.026 -118844
-0.0117322 0 0.026 -96657
-0.0111437 0 0.026 -95913.9
-0.010575 0 0.026 -102390
-0.0100256 0 0.026 -106954
-0.00949468 0 0.026 -110298
-0.00898166 0 0.026 -113218
-0.00848594 0 0.026 -115925
-0.00800694 0 0.026 -118366
-0.00754409 0 0.026 -120649
-0.00709684 0 0.026 -122931
-0.00666467 0 0.026 -125107
-0.00624706 0 0.026 -126965
-0.00584352 0 0.026 -128611
-0.00545358 0 0.026 -129885
-0.00507677 0 0.026 -130840
-0.00471265 0 0.026 -131265
-0.0043608 0 0.026 -131318
-0.0040208 0 0.026 -131052
-0.00369224 0 0.026 -130468
-0.00337474 0 0.026 -129938
-0.00306793 0 0.026 -129778
-0.00277146 0 0.026 -130575
-0.00248495 0 0.026 -132273
-0.00220809 0 0.026 -135192
-0.00194054 0 0.026 -139492
-0.001682 0 0.026 -144959
-0.00143216 0 0.026 -151753
-0.00119071 0 0.026 -159980
-0.000957397 0 0.026 -166615
-0.000731928 0 0.026 -172825
-0.00051404 0 0.026 -178240
-0.00030348 0 0.026 -181690
-0.0001 0 0.026 -184503
8.66025e-05 5e-05 0.026 -106984
0.000259964 0.00015009 0.026 -152055
0.000433795 0.000250451 0.026 -167731
0.000608407 0.000351264 0.026 -179078
0.000784117 0.000452711 0.026 -187881
0.000961243 0.000554974 0.026 -195085
0.0011401 0.000658238 0.026 -201275
0.00132102 0.000762689 0.026 -206983
0.00150431 0.000868516 0.026 -212627
0.00169033 0.000975909 0.026 -218354
0.00187939 0.00108506 0.026 -224145
0.00207184 0.00119618 0.026 -230240
0.00226802 0.00130945 0.026 -236607
0.00246831 0.00142508 0.026 -243284
0.00267303 0.00154328 0.026 -250356
0.00288259 0.00166427 0.026 -257794
0.00309735 0.00178825 0.026 -265611
0.00331769 0.00191547 0.026 -273850
0.00354401 0.00204614 0.026 -282567
0.00377673 0.0021805 0.026 -291713
0.00401626 0.00231879 0.026 -301406
0.00426304 0.00246127 0.026 -311515
0.0045175 0.00260818 0.026 -322212
0.00478012 0.0027598 0.026 -333344
0.00505136 0.0029164 0.026 -345221
0.0053317 0.00307826 0.026 -357703
0.00562167 0.00324567 0.026 -370840
0.00592177 0.00341894 0.026 -384466
0.00623257 0.00359837 0.026 -398685
0.0065546 0.0037843 0.026 -413443
0.00688845 0.00397706 0.026 -428995
0.00723473 0.00417698 0.026 -445324
0.00759407 0.00438444 0.026 -462522
0.0079671 0.00459981 0.026 -480620
0.0083545 0.00482347 0.026 -499722
0.00875697 0.00505584 0.026 -520097
0.00917525 0.00529733 0.026 -542115
0.00961007 0.00554838 0.026 -566236
0.0100622 0.00580943 0.026 -592780
0.0105325 0.00608095 0.026 -621995
0.0110218 0.00636345 0.026 -654026
0.011531 0.00665743 0.026 -689913
0.012061 0.00696343 0.026 -730328
0.0126127 0.00728197 0.026 -776201
0.0131872 0.00761366 0.026 -826524
0.0137855 0.00795908 0.026 -883399
0.0144087 0.00831886 0.026 -945192
0.0150578 0.00869364 0.026 -1.01286e+06
0.0157341 0.0090841 0.026 -1.08825e+06
0.0164388 0.00949095 0.026 -1.17045e+06
0.0171732 0.00991493 0.026 -1.25861e+06
0.0179385 0.0103568 0.026 -1.34191e+06
0.0187362 0.0108173 0.026 -1.4268e+06
0.0195677 0.0112974 0.026 -1.50844e+06
0.0204344 0.0117978 0.026 -1.56312e+06
0.0213381 0.0123195 0.026 -1.62443e+06
0.0222801 0.0128635 0.026 -1.66242e+06
0.0232625 0.0134306 0.026 -1.68765e+06
0.0242867 0.014022 0.026 -1.68806e+06
0.0253548 0.0146386 0.026 -1.67049e+06
0.0264686 0.0152817 0.026 -1.64253e+06
0.0276302 0.0159524 0.026 -1.65724e+06
0.0288416 0.0166517 0.026 -1.62815e+06
0.0301051 0.0173812 0.026 -1.58277e+06
0.0314228 0.018142 0.026 -1.55083e+06
0.0327972 0.0189355 0.026 -1.52698e+06
0.0342308 0.0197632 0.026 -1.53494e+06
0.0357262 0.0206265 0.026 -1.49024e+06
0.0372859 0.021527 0.026 -1.44851e+06
0.038913 0.0224664 0.026 -1.42443e+06
0.0406102 0.0234463 0.026 -1.41239e+06
0.0423807 0.0244685 0.026 -1.41282e+06
0.0442276 0.0255348 0.026 -1.34266e+06
0.0461543 0.0266472 0.026 -1.36173e+06
0.0481643 0.0278077 0.026 -1.33573e+06
0.0502611 0.0290183 0.026 -1.29983e+06
0.0524487 0.0302813 0.026 -1.33695e+06
0.0547308 0.0315988 0.026 -1.30176e+06
0.0571116 0.0329735 0.026 -1.23333e+06
0.0595956 0.0344075 0.026 -1.25415e+06
0.0621869 0.0359036 0.026 -1.2506e+06
0.0648905 0.0374645 0.026 -1.2411e+06
0.0677111 0.039093 0.026 -1.23106e+06
0.0706539 0.040792 0.026 -1.21302e+06
0.073724 0.0425646 0.026 -1.21045e+06
0.0769272 0.044414 0.026 -1.18629e+06
0.0802692 0.0463434 0.026 -1.16743e+06
0.0837559 0.0483565 0.026 -1.17997e+06
0.0873938 0.0504568 0.026 -1.15526e+06
0.0911892 0.0526481 0.026 -1.13925e+06
0.0951492 0.0549344 0.026 -1.14429e+06
0.0992806 0.0573198 0.026 -1.20421e+06
0.103592 0.0598086 0.026 -1.34532e+06
0.10809 0.0624052 0.026 -1.30745e+06
0.112782 0.0651144 0.026 -1.21622e+06
0.117678 0.0679412 0.026 -1.26969e+06
0.122786 0.0708904 0.026 -1.26296e+06
0.128115 0.0739676 0.026 -1.23617e+06
0.133677 0.0771782 0.026 -1.15645e+06
