# wallHeatFlux  FACE_DATA 398
# x  y  z  wallHeatFlux
-0.7975 0 0.025 -653671
-0.79239 0 0.025 -120087
-0.787056 0 0.025 -71265.6
-0.781492 0 0.025 -63856.4
-0.775691 0 0.025 -65258
-0.769649 0 0.025 -65957.8
-0.763362 0 0.025 -66441.8
-0.756822 0 0.025 -66319.1
-0.750025 0 0.025 -65786.6
-0.742968 0 0.025 -65036.4
-0.735648 0 0.025 -64114.5
-0.72806 0 0.025 -63117.1
-0.720203 0 0.025 -62136.3
-0.712076 0 0.025 -61262.9
-0.703677 0 0.025 -60489.7
-0.695006 0 0.025 -59694.3
-0.686065 0 0.025 -58951.6
-0.676855 0 0.025 -58304.3
-0.667379 0 0.025 -57570.2
-0.65764 0 0.025 -56889.3
-0.647644 0 0.025 -56333.5
-0.637397 0 0.025 -55754.8
-0.626906 0 0.025 -55144.9
-0.616179 0 0.025 -54669
-0.605224 0 0.025 -54140.1
-0.594054 0 0.025 -53651.9
-0.582678 0 0.025 -53127.7
-0.57111 0 0.025 -52676.7
-0.559364 0 0.025 -52246.1
-0.547454 0 0.025 -51887.5
-0.535396 0 0.025 -51452.1
-0.523205 0 0.025 -51028.4
-0.510901 0 0.025 -50637.1
-0.4985 0 0.025 -50268
-0.486021 0 0.025 -49988.9
-0.473483 0 0.025 -49691.4
-0.460905 0 0.025 -49347.9
-0.448308 0 0.025 -49014.3
-0.435709 0 0.025 -48700.2
-0.42313 0 0.025 -48404.6
-0.41059 0 0.025 -48156.2
-0.39811 0 0.025 -47959.9
-0.385706 0 0.025 -47729.4
-0.373398 0 0.025 -47477.3
-0.361205 0 0.025 -47229.6
-0.349141 0 0.025 -46995.8
-0.337226 0 0.025 -46772.7
-0.325475 0 0.025 -46565.1
-0.313901 0 0.025 -46373.4
-0.30252 0 0.025 -46202.4
-0.291343 0 0.025 -46048.7
-0.280382 0 0.025 -45911.1
-0.269646 0 0.025 -45783.2
-0.259148 0 0.025 -45650.5
-0.248893 0 0.025 -45519.6
-0.23889 0 0.025 -45378.5
-0.229143 0 0.025 -45231.5
-0.219659 0 0.025 -45075.6
-0.210441 0 0.025 -44908.8
-0.201491 0 0.025 -44739.9
-0.192812 0 0.025 -44584.8
-0.184405 0 0.025 -44450.4
-0.176269 0 0.025 -44346.2
-0.168404 0 0.025 -44265.3
-0.160808 0 0.025 -44211.2
-0.15348 0 0.025 -44181.5
-0.146415 0 0.025 -44163.3
-0.13961 0 0.025 -44133.1
-0.133063 0 0.025 -44099.6
-0.126767 0 0.025 -44056.2
-0.120718 0 0.025 -44002.7
-0.11491 0 0.025 -43944.5
-0.109339 0 0.025 -43871
-0.103997 0 0.025 -43796.7
-0.0988805 0 0.025 -43715.9
-0.0939808 0 0.025 -43632.3
-0.0892928 0 0.025 -43550.2
-0.0848096 0 0.025 -43473.5
-0.0805248 0 0.025 -43402.6
-0.0764316 0 0.025 -43348.1
-0.0725237 0 0.025 -43298.9
-0.0687943 0 0.025 -43250.5
-0.065237 0 0.025 -43212.3
-0.0618454 0 0.025 -43180.3
-0.058613 0 0.025 -43147.6
-0.0555337 0 0.025 -43121.2
-0.0526013 0 0.025 -43099.5
-0.0498099 0 0.025 -43083.5
-0.0471536 0 0.025 -43067.5
-0.0446266 0 0.025 -43051.5
-0.0422235 0 0.025 -43041
-0.039939 0 0.025 -43030.4
-0.0377676 0 0.025 -43019.4
-0.0357044 0 0.025 -43009.5
-0.0337445 0 0.025 -43009.3
-0.0318832 0 0.025 -42982.6
-0.0301159 0 0.025 -42087.4
-0.0284383 0 0.025 -35830.5
-0.0268461 0 0.025 -33105.7
-0.0253353 0 0.025 -50828.6
-0.023902 0 0.025 -63771.8
-0.0225426 0 0.025 -71482
-0.0212532 0 0.025 -76943.8
-0.0200306 0 0.025 -81878.3
-0.0188715 0 0.025 -86208.8
-0.0177728 0 0.025 -89875.2
-0.0167313 0 0.025 -93188.5
-0.0157444 0 0.025 -96261.4
-0.0148092 0 0.025 -99092
-0.0139232 0 0.025 -101752
-0.0130838 0 0.025 -104170
-0.0122887 0 0.025 -106317
-0.0115356 0 0.025 -108202
-0.0108223 0 0.025 -109854
-0.0101469 0 0.025 -111303
-0.00950727 0 0.025 -112576
-0.00890168 0 0.025 -113706
-0.00832835 0 0.025 -114741
-0.00778557 0 0.025 -115746
-0.00727176 0 0.025 -116775
-0.0067854 0 0.025 -117864
-0.00632507 0 0.025 -119045
-0.00588937 0 0.025 -120336
-0.00547703 0 0.025 -121755
-0.0050868 0 0.025 -123309
-0.00471753 0 0.025 -124999
-0.0043681 0 0.025 -126847
-0.00403746 0 0.025 -128844
-0.00372461 0 0.025 -130999
-0.0034286 0 0.025 -133301
-0.00314855 0 0.025 -135798
-0.0028836 0 0.025 -138530
-0.00263294 0 0.025 -141382
-0.00239581 0 0.025 -144117
-0.0021715 0 0.025 -147018
-0.00195929 0 0.025 -150049
-0.00175856 0 0.025 -153175
-0.00156869 0 0.025 -156407
-0.00138908 0 0.025 -159749
-0.0012192 0 0.025 -163172
-0.00105853 0 0.025 -166658
-0.000906546 0 0.025 -170202
-0.000762803 0 0.025 -173662
-0.000626848 0 0.025 -176750
-0.000498265 0 0.025 -178606
-0.000376656 0 0.025 -177305
-0.000261642 0 0.025 -169085
-0.00015287 0 0.025 -146855
-5e-05 0 0.025 -95205.5
4.14519e-05 2.79596e-05 0.025 -67527.4
0.000125371 8.45641e-05 0.025 -81251.3
0.000211347 0.000142556 0.025 -96670
0.000299429 0.000201968 0.025 -107664
0.000389669 0.000262835 0.025 -116937
0.000482118 0.000325193 0.025 -125807
0.000576831 0.000389077 0.025 -134189
0.000673861 0.000454524 0.025 -141807
0.000773265 0.000521574 0.025 -148569
0.0008751 0.000590262 0.025 -154539
0.000979426 0.000660632 0.025 -159829
0.0010863 0.000732721 0.025 -164543
0.00119579 0.000806572 0.025 -168906
0.00130795 0.000882227 0.025 -172943
0.00142285 0.00095973 0.025 -176712
0.00154056 0.00103912 0.025 -180347
0.00166115 0.00112046 0.025 -183870
0.00178467 0.00120378 0.025 -187352
0.00191121 0.00128913 0.025 -190830
0.00204083 0.00137656 0.025 -194265
0.00217362 0.00146612 0.025 -197753
0.00230964 0.00155787 0.025 -201305
0.00244897 0.00165185 0.025 -204864
0.00259169 0.00174812 0.025 -208519
0.00273789 0.00184673 0.025 -212280
0.00288765 0.00194774 0.025 -216180
0.00304105 0.00205122 0.025 -220179
0.00319818 0.00215719 0.025 -224310
0.00335912 0.00226575 0.025 -228642
0.00352397 0.00237695 0.025 -233115
0.00369283 0.00249085 0.025 -237801
0.00386579 0.00260751 0.025 -242681
0.00404294 0.00272699 0.025 -247793
0.00422438 0.00284938 0.025 -253170
0.00441022 0.00297474 0.025 -258824
0.00460056 0.00310312 0.025 -264759
0.00479552 0.00323462 0.025 -270963
0.00499519 0.0033693 0.025 -277555
0.00519968 0.00350723 0.025 -284458
0.00540911 0.00364849 0.025 -291833
0.00562361 0.00379318 0.025 -299608
0.00584329 0.00394134 0.025 -307795
0.00606826 0.00409309 0.025 -316541
0.00629865 0.00424849 0.025 -325776
0.0065346 0.00440764 0.025 -335637
0.00677623 0.00457063 0.025 -346127
0.00702368 0.00473753 0.025 -357237
0.00727707 0.00490844 0.025 -369181
0.00753655 0.00508347 0.025 -381864
0.00780227 0.00526269 0.025 -395425
0.00807436 0.00544622 0.025 -410032
0.00835298 0.00563415 0.025 -425694
0.00863826 0.00582659 0.025 -442820
0.00893038 0.00602362 0.025 -461663
0.00922949 0.00622537 0.025 -481256
0.00953574 0.00643195 0.025 -502104
0.00984929 0.00664345 0.025 -525792
0.0101703 0.00686 0.025 -552001
0.0104991 0.00708171 0.025 -580443
0.0108356 0.00730871 0.025 -614881
0.0111801 0.0075411 0.025 -651808
0.0115329 0.00777902 0.025 -691232
0.011894 0.00802259 0.025 -736038
0.0122637 0.00827194 0.025 -782067
0.0126421 0.00852719 0.025 -827352
0.0130295 0.0087885 0.025 -871102
0.013426 0.00905597 0.025 -915896
0.013832 0.00932978 0.025 -960055
0.0142475 0.00961003 0.025 -1.00351e+06
0.0146727 0.0098969 0.025 -1.04414e+06
0.0151081 0.0101905 0.025 -1.08695e+06
0.0155536 0.010491 0.025 -1.13227e+06
0.0160097 0.0107986 0.025 -1.17893e+06
0.0164764 0.0111134 0.025 -1.2293e+06
0.016954 0.0114356 0.025 -1.28277e+06
0.0174427 0.0117653 0.025 -1.33555e+06
0.0179429 0.0121026 0.025 -1.39212e+06
0.0184548 0.0124479 0.025 -1.45932e+06
0.0189786 0.0128013 0.025 -1.50514e+06
0.0195146 0.0131628 0.025 -1.55438e+06
0.020063 0.0135327 0.025 -1.61329e+06
0.0206242 0.0139112 0.025 -1.65059e+06
0.0211983 0.0142984 0.025 -1.67788e+06
0.0217857 0.0146947 0.025 -1.71045e+06
0.0223867 0.0151 0.025 -1.73794e+06
0.0230015 0.0155147 0.025 -1.76052e+06
0.0236304 0.0159389 0.025 -1.7897e+06
0.0242738 0.0163729 0.025 -1.79176e+06
0.0249318 0.0168167 0.025 -1.80834e+06
0.025605 0.0172708 0.025 -1.81943e+06
0.0262935 0.0177352 0.025 -1.79658e+06
0.0269977 0.0182102 0.025 -1.76888e+06
0.0277178 0.0186959 0.025 -1.7288e+06
0.0284544 0.0191927 0.025 -1.74026e+06
0.0292075 0.0197008 0.025 -1.68283e+06
0.0299777 0.0202203 0.025 -1.63208e+06
0.0307653 0.0207514 0.025 -1.60187e+06
0.0315704 0.0212945 0.025 -1.57359e+06
0.0323937 0.0218499 0.025 -1.55025e+06
0.0332354 0.0224176 0.025 -1.52437e+06
0.0340959 0.022998 0.025 -1.50042e+06
0.0349755 0.0235913 0.025 -1.46695e+06
0.0358747 0.0241978 0.025 -1.46379e+06
0.0367938 0.0248178 0.025 -1.42799e+06
0.0377331 0.0254513 0.025 -1.40142e+06
0.0386932 0.0260989 0.025 -1.3822e+06
0.0396743 0.0267606 0.025 -1.36602e+06
0.0406769 0.0274369 0.025 -1.35349e+06
0.0417013 0.0281279 0.025 -1.33962e+06
0.042748 0.0288339 0.025 -1.33799e+06
0.0438175 0.0295552 0.025 -1.32424e+06
0.04491 0.0302922 0.025 -1.31137e+06
0.0460262 0.031045 0.025 -1.31223e+06
0.0471662 0.031814 0.025 -1.31695e+06
0.0483306 0.0325995 0.025 -1.30708e+06
0.0495199 0.0334016 0.025 -1.31075e+06
0.0507344 0.0342208 0.025 -1.30685e+06
0.0519746 0.0350573 0.025 -1.30564e+06
0.0532409 0.0359114 0.025 -1.30901e+06
0.0545339 0.0367835 0.025 -1.29482e+06
0.0558538 0.0376739 0.025 -1.29195e+06
0.0572012 0.0385827 0.025 -1.28999e+06
0.0585766 0.0395104 0.025 -1.28795e+06
0.0599804 0.0404573 0.025 -1.29622e+06
0.061413 0.0414236 0.025 -1.28092e+06
0.0628748 0.0424096 0.025 -1.30733e+06
0.0643665 0.0434157 0.025 -1.31113e+06
0.0658883 0.0444422 0.025 -1.28503e+06
0.0674408 0.0454894 0.025 -1.27446e+06
0.0690245 0.0465576 0.025 -1.27325e+06
0.0706398 0.0476471 0.025 -1.26541e+06
0.0722871 0.0487582 0.025 -1.261e+06
0.0739669 0.0498912 0.025 -1.25913e+06
0.0756797 0.0510466 0.025 -1.26882e+06
0.0774258 0.0522244 0.025 -1.28082e+06
0.0792059 0.053425 0.025 -1.27376e+06
0.0810203 0.0546489 0.025 -1.29701e+06
0.0828694 0.0558961 0.025 -1.26726e+06
0.0847537 0.0571671 0.025 -1.30932e+06
0.0866737 0.0584622 0.025 -1.26972e+06
0.0886298 0.0597816 0.025 -1.26993e+06
0.0906224 0.0611256 0.025 -1.28053e+06
0.0926518 0.0624944 0.025 -1.24717e+06
0.0947185 0.0638884 0.025 -1.29022e+06
0.096823 0.065308 0.025 -1.24869e+06
0.0989659 0.0667532 0.025 -1.33617e+06
0.101147 0.0682245 0.025 -1.68044e+06
0.103367 0.0697219 0.025 -1.58561e+06
0.105626 0.0712458 0.025 -1.19619e+06
0.107926 0.0727965 0.025 -1.19172e+06
0.110265 0.074374 0.025 -1.23039e+06
0.112644 0.0759789 0.025 -1.82874e+06
0.115063 0.0776111 0.025 -1.23387e+06
0.117524 0.0792709 0.025 -1.70224e+06
0.120026 0.0809585 0.025 -1.86699e+06
0.122569 0.0826741 0.025 -1.65737e+06
0.125155 0.0844179 0.025 -1.48127e+06
0.127782 0.0861901 0.025 -1.28538e+06
0.130451 0.0879908 0.025 -1.24267e+06
0.133163 0.08982 0.025 -1.2219e+06
0.135918 0.0916781 0.025 -1.19233e+06
0.138716 0.0935651 0.025 -1.19381e+06
0.141556 0.095481 0.025 -1.20327e+06
0.14444 0.097426 0.025 -1.58336e+06
0.147367 0.0994004 0.025 -2.35669e+06
0.150337 0.101404 0.025 -1.66269e+06
0.153351 0.103437 0.025 -1.61125e+06
0.156408 0.105498 0.025 -2.25631e+06
0.159508 0.107589 0.025 -1.02143e+06
0.162651 0.10971 0.025 -1.50713e+06
0.165838 0.111859 0.025 -3.65585e+06
0.169069 0.114039 0.025 -1.61026e+06
0.172343 0.116247 0.025 -1.97328e+06
0.175659 0.118483 0.025 -1.87271e+06
0.179018 0.120749 0.025 -1.86964e+06
0.182421 0.123045 0.025 -1.93793e+06
0.185866 0.125368 0.025 -1.69868e+06
0.189353 0.12772 0.025 -1.73599e+06
0.192882 0.1301 0.025 -1.84266e+06
0.196453 0.132509 0.025 -1.74292e+06
0.200065 0.134946 0.025 -2.18712e+06
0.203718 0.13741 0.025 -1.93834e+06
0.207412 0.139901 0.025 -922654
0.211146 0.14242 0.025 -985605
0.214919 0.144965 0.025 -1.61381e+06
0.218732 0.147537 0.025 -986138
0.222583 0.150134 0.025 -1.94661e+06
0.226472 0.152757 0.025 -975769
0.230399 0.155406 0.025 -1.82781e+06
0.234362 0.15808 0.025 -1.7229e+06
0.238362 0.160777 0.025 -2.36648e+06
0.242396 0.163498 0.025 -1.95209e+06
0.246466 0.166244 0.025 -2.11284e+06
0.250569 0.169012 0.025 -928728
0.254706 0.171801 0.025 -1.52887e+06
0.258874 0.174613 0.025 -1.53079e+06
0.263074 0.177446 0.025 -1.94827e+06
0.267304 0.180299 0.025 -1.57526e+06
0.271564 0.183172 0.025 -946099
0.275852 0.186064 0.025 -1.62146e+06
0.280168 0.188975 0.025 -922261
0.28451 0.191904 0.025 -1.64791e+06
0.288876 0.19485 0.025 -2.28359e+06
0.293268 0.197812 0.025 -1.60285e+06
0.297683 0.20079 0.025 -1.92909e+06
0.302119 0.203782 0.025 -1.79918e+06
0.306577 0.206788 0.025 -1.36569e+06
0.311054 0.209808 0.025 -1.56719e+06
0.315549 0.212841 0.025 -1.16389e+06
0.320063 0.215885 0.025 -2.03203e+06
0.324591 0.218939 0.025 -1.42475e+06
0.329134 0.222003 0.025 -1.40944e+06
0.333691 0.225077 0.025 -2.22584e+06
0.33826 0.228159 0.025 -1.78045e+06
0.342839 0.231248 0.025 -1.82765e+06
0.347428 0.234343 0.025 -872301
0.352025 0.237444 0.025 -1.93089e+06
0.356628 0.240548 0.025 -1.40949e+06
0.361237 0.243658 0.025 -1.15305e+06
0.36585 0.246769 0.025 -2.59224e+06
0.370465 0.249882 0.025 -1.01725e+06
0.375082 0.252996 0.025 -1.44565e+06
0.379698 0.25611 0.025 -2.14657e+06
0.384313 0.259223 0.025 -1.37653e+06
0.388926 0.262333 0.025 -1.70546e+06
0.393534 0.265442 0.025 -1.40518e+06
0.398136 0.268546 0.025 -878728
0.40273 0.271645 0.025 -1.62618e+06
0.407317 0.274739 0.025 -1.67863e+06
0.411894 0.277826 0.025 -2.11584e+06
0.41646 0.280906 0.025 -833074
0.421014 0.283977 0.025 -1.58712e+06
0.425554 0.28704 0.025 -1.85885e+06
0.430079 0.290092 0.025 -1.48098e+06
0.434588 0.293133 0.025 -1.82173e+06
0.439079 0.296162 0.025 -1.27541e+06
0.443551 0.299179 0.025 -1.65806e+06
0.448004 0.302183 0.025 -1.6901e+06
0.452437 0.305172 0.025 -1.64944e+06
0.456846 0.308146 0.025 -1.53148e+06
0.461232 0.311105 0.025 -1.55782e+06
0.465593 0.314047 0.025 -1.44315e+06
0.469929 0.316971 0.025 -1.93681e+06
0.474238 0.319878 0.025 -991025
0.47852 0.322766 0.025 -1.10996e+06
0.482773 0.325635 0.025 -880494
0.486996 0.328483 0.025 -1.32431e+06
0.491189 0.331311 0.025 -2.02249e+06
0.49535 0.334118 0.025 -1.28223e+06
