# Wall heat-flux
# Time        	patch         	min           	max           	integral      
6300          	base	-3.626803e+06	-2.993671e+04	-9.597661e+03
