# wallHeatFlux  FACE_DATA 398
# x  y  z  wallHeatFlux
-0.7975 0 0.025 -653671
-0.79239 0 0.025 -120055
-0.787056 0 0.025 -71292.1
-0.781492 0 0.025 -64434.2
-0.775691 0 0.025 -65905.2
-0.769649 0 0.025 -66722.1
-0.763362 0 0.025 -67312.6
-0.756822 0 0.025 -67227.4
-0.750025 0 0.025 -66732.5
-0.742968 0 0.025 -65966.9
-0.735648 0 0.025 -65050.8
-0.72806 0 0.025 -64075.3
-0.720203 0 0.025 -63105.7
-0.712076 0 0.025 -62232.9
-0.703677 0 0.025 -61449.6
-0.695006 0 0.025 -60676.1
-0.686065 0 0.025 -59944.7
-0.676855 0 0.025 -59255.3
-0.667379 0 0.025 -58559.2
-0.65764 0 0.025 -57879
-0.647644 0 0.025 -57286.2
-0.637397 0 0.025 -56756.2
-0.626906 0 0.025 -56146.9
-0.616179 0 0.025 -55628.7
-0.605224 0 0.025 -55121.7
-0.594054 0 0.025 -54634
-0.582678 0 0.025 -54126.4
-0.57111 0 0.025 -53675.7
-0.559364 0 0.025 -53234.8
-0.547454 0 0.025 -52844.3
-0.535396 0 0.025 -52420
-0.523205 0 0.025 -52023.3
-0.510901 0 0.025 -51643
-0.4985 0 0.025 -51268.8
-0.486021 0 0.025 -50946.7
-0.473483 0 0.025 -50638.5
-0.460905 0 0.025 -50338.1
-0.448308 0 0.025 -50026
-0.435709 0 0.025 -49690.4
-0.42313 0 0.025 -49373.1
-0.41059 0 0.025 -49124.6
-0.39811 0 0.025 -48938.9
-0.385706 0 0.025 -48735
-0.373398 0 0.025 -48493.5
-0.361205 0 0.025 -48251
-0.349141 0 0.025 -47995.4
-0.337226 0 0.025 -47755.8
-0.325475 0 0.025 -47547.9
-0.313901 0 0.025 -47382.8
-0.30252 0 0.025 -47254.4
-0.291343 0 0.025 -47127.2
-0.280382 0 0.025 -46967.8
-0.269646 0 0.025 -46812.8
-0.259148 0 0.025 -46658.3
-0.248893 0 0.025 -46521.8
-0.23889 0 0.025 -46380.4
-0.229143 0 0.025 -46243.8
-0.219659 0 0.025 -46098.4
-0.210441 0 0.025 -45936.6
-0.201491 0 0.025 -45762.2
-0.192812 0 0.025 -45590.8
-0.184405 0 0.025 -45429.5
-0.176269 0 0.025 -45314.5
-0.168404 0 0.025 -45228
-0.160808 0 0.025 -45173.8
-0.15348 0 0.025 -45160.1
-0.146415 0 0.025 -45168.6
-0.13961 0 0.025 -45186.5
-0.133063 0 0.025 -45206.3
-0.126767 0 0.025 -45211
-0.120718 0 0.025 -45211
-0.11491 0 0.025 -45195.7
-0.109339 0 0.025 -45154.3
-0.103997 0 0.025 -45090.7
-0.0988805 0 0.025 -45015.3
-0.0939808 0 0.025 -44926.5
-0.0892928 0 0.025 -44828.4
-0.0848096 0 0.025 -44725.1
-0.0805248 0 0.025 -44622.2
-0.0764316 0 0.025 -44519.7
-0.0725237 0 0.025 -44417.1
-0.0687943 0 0.025 -44315.4
-0.065237 0 0.025 -44234.4
-0.0618454 0 0.025 -44149
-0.058613 0 0.025 -44073.6
-0.0555337 0 0.025 -44004.5
-0.0526013 0 0.025 -43940.1
-0.0498099 0 0.025 -43881.3
-0.0471536 0 0.025 -43833.3
-0.0446266 0 0.025 -43790.7
-0.0422235 0 0.025 -43748
-0.039939 0 0.025 -43716.1
-0.0377676 0 0.025 -43689.2
-0.0357044 0 0.025 -43668.6
-0.0337445 0 0.025 -43614.9
-0.0318832 0 0.025 -42178.5
-0.0301159 0 0.025 -33992.6
-0.0284383 0 0.025 -29852.5
-0.0268461 0 0.025 -47127.7
-0.0253353 0 0.025 -60186.7
-0.023902 0 0.025 -68775.9
-0.0225426 0 0.025 -75092
-0.0212532 0 0.025 -80581.2
-0.0200306 0 0.025 -85237.1
-0.0188715 0 0.025 -89433.9
-0.0177728 0 0.025 -93181.2
-0.0167313 0 0.025 -96570.1
-0.0157444 0 0.025 -99675.7
-0.0148092 0 0.025 -102555
-0.0139232 0 0.025 -105200
-0.0130838 0 0.025 -107569
-0.0122887 0 0.025 -109664
-0.0115356 0 0.025 -111522
-0.0108223 0 0.025 -113153
-0.0101469 0 0.025 -114608
-0.00950727 0 0.025 -115904
-0.00890168 0 0.025 -117093
-0.00832835 0 0.025 -118226
-0.00778557 0 0.025 -119349
-0.00727176 0 0.025 -120492
-0.0067854 0 0.025 -121685
-0.00632507 0 0.025 -122937
-0.00588937 0 0.025 -124272
-0.00547703 0 0.025 -125693
-0.0050868 0 0.025 -127211
-0.00471753 0 0.025 -128838
-0.0043681 0 0.025 -130579
-0.00403746 0 0.025 -132438
-0.00372461 0 0.025 -134422
-0.0034286 0 0.025 -136543
-0.00314855 0 0.025 -138837
-0.0028836 0 0.025 -141322
-0.00263294 0 0.025 -143879
-0.00239581 0 0.025 -146368
-0.0021715 0 0.025 -149006
-0.00195929 0 0.025 -151763
-0.00175856 0 0.025 -154610
-0.00156869 0 0.025 -157539
-0.00138908 0 0.025 -160572
-0.0012192 0 0.025 -163646
-0.00105853 0 0.025 -166774
-0.000906546 0 0.025 -169941
-0.000762803 0 0.025 -173028
-0.000626848 0 0.025 -175717
-0.000498265 0 0.025 -177170
-0.000376656 0 0.025 -175578
-0.000261642 0 0.025 -167293
-0.00015287 0 0.025 -145293
-5e-05 0 0.025 -94150.1
4.14519e-05 2.79596e-05 0.025 -67269.2
0.000125371 8.45641e-05 0.025 -80844.3
0.000211347 0.000142556 0.025 -95892.7
0.000299429 0.000201968 0.025 -106952
0.000389669 0.000262835 0.025 -116362
0.000482118 0.000325193 0.025 -125251
0.000576831 0.000389077 0.025 -133593
0.000673861 0.000454524 0.025 -141165
0.000773265 0.000521574 0.025 -147880
0.0008751 0.000590262 0.025 -153825
0.000979426 0.000660632 0.025 -159094
0.0010863 0.000732721 0.025 -163810
0.00119579 0.000806572 0.025 -168152
0.00130795 0.000882227 0.025 -172179
0.00142285 0.00095973 0.025 -175921
0.00154056 0.00103912 0.025 -179536
0.00166115 0.00112046 0.025 -183017
0.00178467 0.00120378 0.025 -186446
0.00191121 0.00128913 0.025 -189871
0.00204083 0.00137656 0.025 -193243
0.00217362 0.00146612 0.025 -196657
0.00230964 0.00155787 0.025 -200117
0.00244897 0.00165185 0.025 -203603
0.00259169 0.00174812 0.025 -207130
0.00273789 0.00184673 0.025 -210780
0.00288765 0.00194774 0.025 -214552
0.00304105 0.00205122 0.025 -218414
0.00319818 0.00215719 0.025 -222396
0.00335912 0.00226575 0.025 -226553
0.00352397 0.00237695 0.025 -230816
0.00369283 0.00249085 0.025 -235285
0.00386579 0.00260751 0.025 -239933
0.00404294 0.00272699 0.025 -244802
0.00422438 0.00284938 0.025 -249917
0.00441022 0.00297474 0.025 -255283
0.00460056 0.00310312 0.025 -260911
0.00479552 0.00323462 0.025 -266798
0.00499519 0.0033693 0.025 -273070
0.00519968 0.00350723 0.025 -279606
0.00540911 0.00364849 0.025 -286562
0.00562361 0.00379318 0.025 -293943
0.00584329 0.00394134 0.025 -301735
0.00606826 0.00409309 0.025 -310082
0.00629865 0.00424849 0.025 -318823
0.0065346 0.00440764 0.025 -328131
0.00677623 0.00457063 0.025 -338065
0.00702368 0.00473753 0.025 -348574
0.00727707 0.00490844 0.025 -359874
0.00753655 0.00508347 0.025 -372045
0.00780227 0.00526269 0.025 -385053
0.00807436 0.00544622 0.025 -398960
0.00835298 0.00563415 0.025 -414060
0.00863826 0.00582659 0.025 -430330
0.00893038 0.00602362 0.025 -447696
0.00922949 0.00622537 0.025 -466603
0.00953574 0.00643195 0.025 -487191
0.00984929 0.00664345 0.025 -510543
0.0101703 0.00686 0.025 -534604
0.0104991 0.00708171 0.025 -561002
0.0108356 0.00730871 0.025 -593432
0.0111801 0.0075411 0.025 -628676
0.0115329 0.00777902 0.025 -666717
0.011894 0.00802259 0.025 -710199
0.0122637 0.00827194 0.025 -755573
0.0126421 0.00852719 0.025 -800987
0.0130295 0.0087885 0.025 -848363
0.013426 0.00905597 0.025 -896970
0.013832 0.00932978 0.025 -939725
0.0142475 0.00961003 0.025 -982731
0.0146727 0.0098969 0.025 -1.02716e+06
0.0151081 0.0101905 0.025 -1.07101e+06
0.0155536 0.010491 0.025 -1.11891e+06
0.0160097 0.0107986 0.025 -1.16761e+06
0.0164764 0.0111134 0.025 -1.2206e+06
0.016954 0.0114356 0.025 -1.27663e+06
0.0174427 0.0117653 0.025 -1.33062e+06
0.0179429 0.0121026 0.025 -1.38951e+06
0.0184548 0.0124479 0.025 -1.45889e+06
0.0189786 0.0128013 0.025 -1.50865e+06
0.0195146 0.0131628 0.025 -1.5602e+06
0.020063 0.0135327 0.025 -1.62067e+06
0.0206242 0.0139112 0.025 -1.66048e+06
0.0211983 0.0142984 0.025 -1.69045e+06
0.0217857 0.0146947 0.025 -1.72695e+06
0.0223867 0.0151 0.025 -1.75837e+06
0.0230015 0.0155147 0.025 -1.78524e+06
0.0236304 0.0159389 0.025 -1.81844e+06
0.0242738 0.0163729 0.025 -1.82447e+06
0.0249318 0.0168167 0.025 -1.84544e+06
0.025605 0.0172708 0.025 -1.86257e+06
0.0262935 0.0177352 0.025 -1.84708e+06
0.0269977 0.0182102 0.025 -1.82863e+06
0.0277178 0.0186959 0.025 -1.79688e+06
0.0284544 0.0191927 0.025 -1.81113e+06
0.0292075 0.0197008 0.025 -1.74173e+06
0.0299777 0.0202203 0.025 -1.69427e+06
0.0307653 0.0207514 0.025 -1.6521e+06
0.0315704 0.0212945 0.025 -1.61503e+06
0.0323937 0.0218499 0.025 -1.58602e+06
0.0332354 0.0224176 0.025 -1.55755e+06
0.0340959 0.022998 0.025 -1.53292e+06
0.0349755 0.0235913 0.025 -1.49912e+06
0.0358747 0.0241978 0.025 -1.49625e+06
0.0367938 0.0248178 0.025 -1.45792e+06
0.0377331 0.0254513 0.025 -1.43016e+06
0.0386932 0.0260989 0.025 -1.40766e+06
0.0396743 0.0267606 0.025 -1.38524e+06
0.0406769 0.0274369 0.025 -1.37062e+06
0.0417013 0.0281279 0.025 -1.35159e+06
0.042748 0.0288339 0.025 -1.35139e+06
0.0438175 0.0295552 0.025 -1.33449e+06
0.04491 0.0302922 0.025 -1.3193e+06
0.0460262 0.031045 0.025 -1.32138e+06
0.0471662 0.031814 0.025 -1.32789e+06
0.0483306 0.0325995 0.025 -1.31296e+06
0.0495199 0.0334016 0.025 -1.31052e+06
0.0507344 0.0342208 0.025 -1.30283e+06
0.0519746 0.0350573 0.025 -1.30372e+06
0.0532409 0.0359114 0.025 -1.31213e+06
0.0545339 0.0367835 0.025 -1.29966e+06
0.0558538 0.0376739 0.025 -1.29567e+06
0.0572012 0.0385827 0.025 -1.29304e+06
0.0585766 0.0395104 0.025 -1.29251e+06
0.0599804 0.0404573 0.025 -1.30445e+06
0.061413 0.0414236 0.025 -1.28883e+06
0.0628748 0.0424096 0.025 -1.31112e+06
0.0643665 0.0434157 0.025 -1.31091e+06
0.0658883 0.0444422 0.025 -1.28863e+06
0.0674408 0.0454894 0.025 -1.27897e+06
0.0690245 0.0465576 0.025 -1.28029e+06
0.0706398 0.0476471 0.025 -1.27229e+06
0.0722871 0.0487582 0.025 -1.26423e+06
0.0739669 0.0498912 0.025 -1.25765e+06
0.0756797 0.0510466 0.025 -1.26738e+06
0.0774258 0.0522244 0.025 -1.2822e+06
0.0792059 0.053425 0.025 -1.28145e+06
0.0810203 0.0546489 0.025 -1.30664e+06
0.0828694 0.0558961 0.025 -1.27516e+06
0.0847537 0.0571671 0.025 -1.31602e+06
0.0866737 0.0584622 0.025 -1.27411e+06
0.0886298 0.0597816 0.025 -1.2746e+06
0.0906224 0.0611256 0.025 -1.28505e+06
0.0926518 0.0624944 0.025 -1.25281e+06
0.0947185 0.0638884 0.025 -1.29698e+06
0.096823 0.065308 0.025 -1.25437e+06
0.0989659 0.0667532 0.025 -1.33726e+06
0.101147 0.0682245 0.025 -1.68258e+06
0.103367 0.0697219 0.025 -1.5847e+06
0.105626 0.0712458 0.025 -1.19416e+06
0.107926 0.0727965 0.025 -1.19184e+06
0.110265 0.074374 0.025 -1.2377e+06
0.112644 0.0759789 0.025 -1.86561e+06
0.115063 0.0776111 0.025 -1.25709e+06
0.117524 0.0792709 0.025 -1.74677e+06
0.120026 0.0809585 0.025 -1.91283e+06
0.122569 0.0826741 0.025 -1.68415e+06
0.125155 0.0844179 0.025 -1.49445e+06
0.127782 0.0861901 0.025 -1.2905e+06
0.130451 0.0879908 0.025 -1.24633e+06
0.133163 0.08982 0.025 -1.22305e+06
0.135918 0.0916781 0.025 -1.19233e+06
0.138716 0.0935651 0.025 -1.19552e+06
0.141556 0.095481 0.025 -1.20592e+06
0.14444 0.097426 0.025 -1.59262e+06
0.147367 0.0994004 0.025 -2.3505e+06
0.150337 0.101404 0.025 -1.6751e+06
0.153351 0.103437 0.025 -1.62044e+06
0.156408 0.105498 0.025 -2.25309e+06
0.159508 0.107589 0.025 -1.03036e+06
0.162651 0.10971 0.025 -1.52473e+06
0.165838 0.111859 0.025 -3.59583e+06
0.169069 0.114039 0.025 -1.6461e+06
0.172343 0.116247 0.025 -1.9977e+06
0.175659 0.118483 0.025 -1.88602e+06
0.179018 0.120749 0.025 -1.88526e+06
0.182421 0.123045 0.025 -1.95693e+06
0.185866 0.125368 0.025 -1.72098e+06
0.189353 0.12772 0.025 -1.7567e+06
0.192882 0.1301 0.025 -1.86273e+06
0.196453 0.132509 0.025 -1.7605e+06
0.200065 0.134946 0.025 -2.13222e+06
0.203718 0.13741 0.025 -1.95598e+06
0.207412 0.139901 0.025 -924726
0.211146 0.14242 0.025 -984914
0.214919 0.144965 0.025 -1.61032e+06
0.218732 0.147537 0.025 -986441
0.222583 0.150134 0.025 -1.92825e+06
0.226472 0.152757 0.025 -979308
0.230399 0.155406 0.025 -1.83617e+06
0.234362 0.15808 0.025 -1.728e+06
0.238362 0.160777 0.025 -2.34366e+06
0.242396 0.163498 0.025 -1.9704e+06
0.246466 0.166244 0.025 -2.1245e+06
0.250569 0.169012 0.025 -931335
0.254706 0.171801 0.025 -1.52639e+06
0.258874 0.174613 0.025 -1.52319e+06
0.263074 0.177446 0.025 -1.93398e+06
0.267304 0.180299 0.025 -1.5702e+06
0.271564 0.183172 0.025 -943447
0.275852 0.186064 0.025 -1.61743e+06
0.280168 0.188975 0.025 -919984
0.28451 0.191904 0.025 -1.6436e+06
0.288876 0.19485 0.025 -2.23961e+06
0.293268 0.197812 0.025 -1.6085e+06
0.297683 0.20079 0.025 -1.89394e+06
0.302119 0.203782 0.025 -2.17049e+06
0.306577 0.206788 0.025 -1.53915e+06
0.311054 0.209808 0.025 -1.58439e+06
0.315549 0.212841 0.025 -1.15676e+06
0.320063 0.215885 0.025 -1.97597e+06
0.324591 0.218939 0.025 -1.42541e+06
0.329134 0.222003 0.025 -1.40185e+06
0.333691 0.225077 0.025 -2.1842e+06
0.33826 0.228159 0.025 -1.78587e+06
0.342839 0.231248 0.025 -1.82285e+06
0.347428 0.234343 0.025 -869317
0.352025 0.237444 0.025 -1.90586e+06
0.356628 0.240548 0.025 -1.40215e+06
0.361237 0.243658 0.025 -1.14482e+06
0.36585 0.246769 0.025 -2.47219e+06
0.370465 0.249882 0.025 -1.04633e+06
0.375082 0.252996 0.025 -1.44466e+06
0.379698 0.25611 0.025 -2.53723e+06
0.384313 0.259223 0.025 -1.38395e+06
0.388926 0.262333 0.025 -1.69239e+06
0.393534 0.265442 0.025 -1.39695e+06
0.398136 0.268546 0.025 -872388
0.40273 0.271645 0.025 -1.60254e+06
0.407317 0.274739 0.025 -1.66427e+06
0.411894 0.277826 0.025 -2.05771e+06
0.41646 0.280906 0.025 -832911
0.421014 0.283977 0.025 -1.57487e+06
0.425554 0.28704 0.025 -1.8297e+06
0.430079 0.290092 0.025 -1.46791e+06
0.434588 0.293133 0.025 -1.79116e+06
0.439079 0.296162 0.025 -1.26514e+06
0.443551 0.299179 0.025 -1.63975e+06
0.448004 0.302183 0.025 -1.66672e+06
0.452437 0.305172 0.025 -1.62883e+06
0.456846 0.308146 0.025 -1.51396e+06
0.461232 0.311105 0.025 -1.53892e+06
0.465593 0.314047 0.025 -1.42582e+06
0.469929 0.316971 0.025 -1.90116e+06
0.474238 0.319878 0.025 -980093
0.47852 0.322766 0.025 -1.09583e+06
0.482773 0.325635 0.025 -869812
0.486996 0.328483 0.025 -1.30401e+06
0.491189 0.331311 0.025 -1.95837e+06
0.49535 0.334118 0.025 -1.2711e+06
