# p  FACE_DATA 448
# x  y  z  p
-0.778 -3.80769e-06 0 1196.57
-0.773968 -3.80769e-06 0 934.751
-0.769872 -3.80769e-06 0 761.61
-0.76571 -3.80769e-06 0 735.172
-0.761486 -3.80769e-06 0 699.302
-0.757196 -3.80769e-06 0 676.486
-0.752841 -3.80769e-06 0 663.957
-0.748422 -3.80769e-06 0 654.459
-0.743939 -3.80769e-06 0 648.029
-0.739391 -3.80769e-06 0 642.842
-0.73478 -3.80769e-06 0 638.294
-0.730104 -3.80769e-06 0 634.136
-0.725364 -3.80769e-06 0 629.939
-0.720562 -3.80769e-06 0 625.403
-0.715696 -3.80769e-06 0 619.493
-0.710769 -3.80769e-06 0 613.711
-0.705778 -3.80769e-06 0 607.825
-0.700727 -3.80769e-06 0 604.704
-0.695615 -3.80769e-06 0 603.95
-0.690443 -3.80769e-06 0 605.891
-0.685211 -3.80769e-06 0 608.478
-0.67992 -3.80769e-06 0 611.346
-0.674571 -3.80769e-06 0 614.019
-0.669166 -3.80769e-06 0 616.306
-0.663704 -3.80769e-06 0 618.252
-0.658187 -3.80769e-06 0 619.958
-0.652616 -3.80769e-06 0 621.438
-0.646993 -3.80769e-06 0 622.58
-0.641317 -3.80769e-06 0 623.367
-0.635592 -3.80769e-06 0 623.938
-0.629817 -3.80769e-06 0 624.447
-0.623994 -3.80769e-06 0 624.806
-0.618125 -3.80769e-06 0 624.976
-0.61221 -3.80769e-06 0 624.997
-0.606252 -3.80769e-06 0 624.939
-0.600253 -3.80769e-06 0 624.772
-0.594213 -3.80769e-06 0 624.566
-0.588134 -3.80769e-06 0 624.352
-0.582018 -3.80769e-06 0 624.211
-0.575867 -3.80769e-06 0 623.954
-0.569683 -3.80769e-06 0 623.527
-0.563467 -3.80769e-06 0 622.992
-0.557221 -3.80769e-06 0 622.531
-0.550946 -3.80769e-06 0 622.263
-0.544647 -3.80769e-06 0 622.055
-0.538323 -3.80769e-06 0 621.642
-0.531979 -3.80769e-06 0 621.081
-0.525613 -3.80769e-06 0 620.516
-0.51923 -3.80769e-06 0 620.152
-0.512832 -3.80769e-06 0 619.976
-0.50642 -3.80769e-06 0 619.677
-0.499995 -3.80769e-06 0 619.13
-0.493562 -3.80769e-06 0 618.447
-0.487123 -3.80769e-06 0 617.822
-0.480677 -3.80769e-06 0 617.519
-0.47423 -3.80769e-06 0 617.59
-0.467782 -3.80769e-06 0 617.622
-0.461335 -3.80769e-06 0 617.292
-0.454892 -3.80769e-06 0 616.674
-0.448455 -3.80769e-06 0 615.939
-0.442026 -3.80769e-06 0 615.287
-0.435607 -3.80769e-06 0 614.95
-0.429202 -3.80769e-06 0 615.048
-0.42281 -3.80769e-06 0 615.284
-0.416434 -3.80769e-06 0 615.358
-0.410078 -3.80769e-06 0 614.954
-0.403743 -3.80769e-06 0 614.127
-0.39743 -3.80769e-06 0 613.228
-0.391141 -3.80769e-06 0 612.423
-0.38488 -3.80769e-06 0 611.941
-0.378648 -3.80769e-06 0 611.792
-0.372446 -3.80769e-06 0 612.414
-0.366277 -3.80769e-06 0 612.797
-0.360142 -3.80769e-06 0 612.957
-0.354042 -3.80769e-06 0 612.781
-0.347981 -3.80769e-06 0 612.154
-0.341959 -3.80769e-06 0 611.114
-0.335978 -3.80769e-06 0 610.06
-0.33004 -3.80769e-06 0 609.139
-0.324146 -3.80769e-06 0 608.54
-0.318298 -3.80769e-06 0 608.312
-0.312497 -3.80769e-06 0 608.775
-0.306744 -3.80769e-06 0 609.468
-0.301041 -3.80769e-06 0 610.132
-0.29539 -3.80769e-06 0 610.604
-0.28979 -3.80769e-06 0 610.812
-0.284243 -3.80769e-06 0 610.792
-0.278752 -3.80769e-06 0 610.353
-0.273316 -3.80769e-06 0 609.589
-0.267937 -3.80769e-06 0 608.512
-0.262614 -3.80769e-06 0 607.409
-0.25735 -3.80769e-06 0 606.42
-0.252146 -3.80769e-06 0 605.618
-0.247001 -3.80769e-06 0 605.113
-0.241916 -3.80769e-06 0 604.929
-0.236893 -3.80769e-06 0 605.166
-0.231931 -3.80769e-06 0 605.571
-0.227031 -3.80769e-06 0 606.196
-0.222195 -3.80769e-06 0 606.829
-0.217421 -3.80769e-06 0 607.398
-0.212711 -3.80769e-06 0 607.825
-0.208064 -3.80769e-06 0 608.062
-0.203482 -3.80769e-06 0 608.113
-0.198964 -3.80769e-06 0 608.019
-0.19451 -3.80769e-06 0 607.705
-0.19012 -3.80769e-06 0 607.238
-0.185796 -3.80769e-06 0 606.617
-0.181535 -3.80769e-06 0 605.904
-0.17734 -3.80769e-06 0 605.105
-0.173208 -3.80769e-06 0 604.304
-0.169141 -3.80769e-06 0 603.554
-0.165138 -3.80769e-06 0 602.889
-0.161199 -3.80769e-06 0 602.327
-0.157325 -3.80769e-06 0 601.914
-0.153513 -3.80769e-06 0 601.654
-0.149765 -3.80769e-06 0 601.545
-0.14608 -3.80769e-06 0 601.513
-0.142457 -3.80769e-06 0 601.76
-0.138897 -3.80769e-06 0 602.031
-0.135398 -3.80769e-06 0 602.454
-0.131961 -3.80769e-06 0 602.939
-0.128584 -3.80769e-06 0 603.484
-0.125268 -3.80769e-06 0 604.039
-0.122011 -3.80769e-06 0 604.559
-0.118815 -3.80769e-06 0 605.01
-0.115677 -3.80769e-06 0 605.394
-0.112597 -3.80769e-06 0 605.7
-0.109574 -3.80769e-06 0 605.927
-0.106609 -3.80769e-06 0 606.074
-0.1037 -3.80769e-06 0 606.167
-0.100846 -3.80769e-06 0 606.203
-0.098048 -3.80769e-06 0 606.197
-0.0953042 -3.80769e-06 0 606.107
-0.0926143 -3.80769e-06 0 605.994
-0.0899773 -3.80769e-06 0 605.834
-0.0873927 -3.80769e-06 0 605.633
-0.0848599 -3.80769e-06 0 605.386
-0.082378 -3.80769e-06 0 605.11
-0.0799465 -3.80769e-06 0 604.802
-0.0775645 -3.80769e-06 0 604.471
-0.0752312 -3.80769e-06 0 604.117
-0.0729462 -3.80769e-06 0 603.752
-0.0707085 -3.80769e-06 0 603.381
-0.0685175 -3.80769e-06 0 603.007
-0.0663725 -3.80769e-06 0 602.636
-0.0642727 -3.80769e-06 0 602.276
-0.0622173 -3.80769e-06 0 601.928
-0.0602058 -3.80769e-06 0 601.596
-0.0582373 -3.80769e-06 0 601.279
-0.0563111 -3.80769e-06 0 600.976
-0.0544265 -3.80769e-06 0 600.692
-0.0525827 -3.80769e-06 0 600.419
-0.0507792 -3.80769e-06 0 600.164
-0.0490152 -3.80769e-06 0 599.923
-0.0472898 -3.80769e-06 0 599.7
-0.0456025 -3.80769e-06 0 599.488
-0.0439526 -3.80769e-06 0 599.293
-0.0423394 -3.80769e-06 0 599.109
-0.0407622 -3.80769e-06 0 598.942
-0.0392203 -3.80769e-06 0 598.78
-0.0377131 -3.80769e-06 0 598.634
-0.0362398 -3.80769e-06 0 598.496
-0.0347999 -3.80769e-06 0 598.373
-0.0333926 -3.80769e-06 0 598.254
-0.0320175 -3.80769e-06 0 598.153
-0.0306737 -3.80769e-06 0 598.058
-0.0293607 -3.80769e-06 0 597.979
-0.0280779 -3.80769e-06 0 597.901
-0.0268246 -3.80769e-06 0 597.849
-0.0256004 -3.80769e-06 0 597.793
-0.0244045 -3.80769e-06 0 597.767
-0.0232363 -3.80769e-06 0 597.724
-0.0220954 -3.80769e-06 0 597.715
-0.0209812 -3.80769e-06 0 597.713
-0.019893 -3.80769e-06 0 597.854
-0.0188303 -3.80769e-06 0 598.159
-0.0177927 -3.80769e-06 0 599.227
-0.0167794 -3.80769e-06 0 602.248
-0.0157901 -3.80769e-06 0 610.603
-0.0148243 -3.80769e-06 0 632.623
-0.0138814 -3.80769e-06 0 683.468
-0.0129608 -3.80769e-06 0 769.985
-0.0120623 -3.80769e-06 0 869.075
-0.0111851 -3.80769e-06 0 952.959
-0.0103289 -3.80769e-06 0 1018.47
-0.00949328 -3.80769e-06 0 1071.36
-0.00867767 -3.80769e-06 0 1118.05
-0.00788168 -3.80769e-06 0 1159.1
-0.00710485 -3.80769e-06 0 1197.36
-0.00634675 -3.80769e-06 0 1233
-0.00560698 -3.80769e-06 0 1266.07
-0.0048851 -3.80769e-06 0 1296.42
-0.00418071 -3.80769e-06 0 1324.27
-0.00349342 -3.80769e-06 0 1348.86
-0.00282284 -3.80769e-06 0 1368.47
-0.00216857 -3.80769e-06 0 1385.09
-0.00153026 -3.80769e-06 0 1405.08
-0.00090752 -3.80769e-06 0 1433.95
-0.0003 -3.80769e-06 0 1518.11
0.000259937 0.000146262 2.25537e-21 1445.46
0.000779437 0.000446185 0 1504.24
0.00129893 0.000746101 0 1543.61
0.00181858 0.00104611 2.2554e-21 1610.46
0.00233835 0.00134618 -2.25541e-21 1690.39
0.00285828 0.00164636 2.25542e-21 1784.37
0.00337841 0.00194664 0 1889.69
0.00389877 0.00224706 0 2005.18
0.00441941 0.00254764 -2.25544e-21 2128.8
0.00494034 0.00284839 2.25545e-21 2261.4
0.00546162 0.00314934 -2.25546e-21 2402.79
0.00598328 0.0034505 2.25547e-21 2554.78
0.00650535 0.00375191 2.25547e-21 2716.45
0.00702786 0.00405357 2.25548e-21 2888.33
0.00755087 0.00435552 0 3068.99
0.00807439 0.00465776 -2.25549e-21 3257.92
0.00859847 0.00496033 2.2555e-21 3454.84
0.00912315 0.00526324 0 3659.54
0.00964845 0.00556651 2.25551e-21 3871.14
0.0101744 0.00587017 0 4089.37
0.0107011 0.00617424 0 4313.79
0.0112285 0.00647873 -2.25552e-21 4545.14
0.0117567 0.00678367 0 4784.19
0.0122857 0.00708907 0 5032.74
0.0128156 0.00739497 0 5292.26
0.0133463 0.00770137 -2.25554e-21 5563.4
0.0138779 0.00800831 0 5847.63
0.0144106 0.0083158 0 6146.05
0.0149442 0.00862387 0 6458.67
0.0154788 0.00893253 0 6790.99
0.0160145 0.00924181 0 7147.69
0.0165513 0.00955172 2.25556e-21 7531.96
0.0170893 0.00986231 -2.25556e-21 7933.44
0.0176284 0.0101736 0 8335.58
0.0181687 0.0104855 0 8725.92
0.0187103 0.0107982 2.25556e-21 9094.61
0.0192532 0.0111117 2.25557e-21 9449.02
0.0197975 0.0114259 2.25557e-21 9796.25
0.0203431 0.0117408 0 10152.1
0.0208901 0.0120566 4.51114e-21 10519.5
0.0214385 0.0123732 -4.51114e-21 10894
0.0219884 0.0126907 0 11255.8
0.0225398 0.0130091 4.51114e-21 11597
0.0230928 0.0133283 0 11903.7
0.0236474 0.0136485 0 12179.1
0.0242037 0.0139697 0 12420.9
0.0247616 0.0142918 -4.51113e-21 12638.9
0.0253212 0.0146148 -4.51113e-21 12839.1
0.0258825 0.0149389 -4.51114e-21 13012.9
0.0264456 0.015264 0 13151.3
0.0270106 0.0155902 0 13261
0.0275774 0.0159174 -4.51112e-21 13353.5
0.0281462 0.0162457 0 13446.8
0.0287168 0.0165752 4.51111e-21 13537.6
0.0292895 0.0169059 -4.51111e-21 13609.1
0.0298642 0.0172376 0 13655.1
0.0304409 0.0175706 0 13687.3
0.0310198 0.0179048 4.5111e-21 13700.2
0.0316007 0.0182402 4.5111e-21 13716.4
0.0321839 0.0185768 -4.51107e-21 13740.6
0.0327693 0.0189148 0 13752.4
0.0333569 0.0192541 0 13760.2
0.0339469 0.0195947 4.51106e-21 13672.6
0.0345392 0.0199366 0 13623.6
0.0351339 0.02028 0 13575.5
0.035731 0.0206247 4.51105e-21 13549.4
0.0363305 0.0209708 -4.51103e-21 13534.8
0.0369326 0.0213184 4.51102e-21 13514.8
0.0375373 0.0216675 0 13495
0.0381445 0.0220181 0 13463.3
0.0387543 0.0223702 0 13426.7
0.0393668 0.0227238 4.51099e-21 13391.5
0.0399821 0.023079 -4.51097e-21 13360.1
0.0406001 0.0234358 4.51097e-21 13332.3
0.041221 0.0237942 0 13304.1
0.0418446 0.0241542 0 13277.3
0.0424712 0.024516 4.51092e-21 13249.7
0.0431006 0.0248794 -4.51094e-21 13214.7
0.0437331 0.0252445 0 13190.9
0.0443686 0.0256114 4.51089e-21 13168.6
0.0450071 0.02598 4.51089e-21 13145.5
0.0456487 0.0263505 0 13133.7
0.0462935 0.0267227 0 13113.6
0.0469415 0.0270968 -4.51085e-21 13106.4
0.0475927 0.0274728 0 13088.3
0.0482473 0.0278507 -4.51081e-21 13070.2
0.0489051 0.0282305 4.51081e-21 13054.3
0.0495663 0.0286122 -4.51079e-21 13027.6
0.050231 0.0289959 0 13003.6
0.0508991 0.0293816 -4.51077e-21 12974.9
0.0515707 0.0297694 4.51073e-21 12946
0.0522459 0.0301592 -4.51073e-21 12913.2
0.0529247 0.0305511 0 12886
0.0536071 0.0309451 0 12854.9
0.0542933 0.0313412 -4.51067e-21 12843.6
0.0549832 0.0317395 0 12840
0.0556769 0.03214 0 12846
0.0563744 0.0325427 0 12848
0.0570758 0.0329477 -4.5106e-21 12849.4
0.0577812 0.0333549 0 12844.5
0.0584905 0.0337645 0 12830.8
0.0592039 0.0341763 -4.51056e-21 12812.3
0.0599214 0.0345905 4.51053e-21 12794
0.060643 0.0350071 0 12772.2
0.0613688 0.0354262 4.51049e-21 12756.9
0.0620989 0.0358477 -4.51048e-21 12738.5
0.0628332 0.0362716 4.51046e-21 12727.1
0.0635719 0.0366981 0 12717.6
0.0643149 0.037127 4.51041e-21 12706.5
0.0650624 0.0375586 0 12703.9
0.0658144 0.0379927 0 12690.1
0.0665709 0.0384295 4.51035e-21 12684.7
0.0673321 0.0388689 -4.51035e-21 12671.6
0.0680979 0.039311 0 12665.1
0.0688683 0.0397558 -4.51029e-21 12657.6
0.0696435 0.0402034 4.51029e-21 12653.3
0.0704236 0.0406537 0 12653.8
0.0712085 0.0411069 0 12652.2
0.0719983 0.0415628 0 12652.6
0.0727931 0.0420217 0 12648.5
0.0735929 0.0424834 0 12642.2
0.0743978 0.0429481 0 12635.5
0.0752078 0.0434158 0 12620.4
0.076023 0.0438864 4.5101e-21 12607.8
0.0768435 0.0443601 -4.51009e-21 12589.8
0.0776693 0.0448369 -4.51004e-21 12572.6
0.0785004 0.0453167 4.51003e-21 12555.4
0.079337 0.0457997 0 12541.4
0.080179 0.0462858 0 12531.4
0.0810266 0.0467751 0 12523.9
0.0818797 0.0472677 0 12516.9
0.0827385 0.0477635 0 12514.3
0.083603 0.0482626 0 12508.2
0.0844733 0.0487651 4.50985e-21 12505.7
0.0853495 0.0492709 -4.50983e-21 12500.5
0.0862316 0.0497801 0 12497.9
0.0871195 0.0502927 -4.50978e-21 12493.4
0.0880135 0.0508089 0 12482.3
0.0889136 0.0513285 0 12471.6
0.0898198 0.0518517 0 12457.6
0.0907322 0.0523785 0 12444.3
0.0916509 0.0529089 0 12432.8
0.0925758 0.0534429 4.50963e-21 12421.5
0.0935072 0.0539806 4.50959e-21 12411.8
0.094445 0.054522 0 12402.4
0.0953894 0.0550672 4.50953e-21 12391.3
0.0963404 0.0556162 0 12383.6
0.0972979 0.0561691 0 12374.5
0.0982622 0.0567258 0 12365.2
0.0992333 0.0572865 0 12356.6
0.100211 0.057851 0 12351.6
0.101196 0.0584196 0 12346.3
0.102188 0.0589922 4.50935e-21 12333.1
0.103187 0.0595689 4.50932e-21 12321.4
0.104193 0.0601497 -4.50928e-21 12313
0.105206 0.0607347 0 12297.1
0.106226 0.0613239 0 12289.1
0.107254 0.0619172 0 12278.7
0.10829 0.0625149 4.50918e-21 12278.5
0.109332 0.0631169 4.50915e-21 12279.2
0.110382 0.0637232 -4.50911e-21 12276.1
0.11144 0.064334 -4.50908e-21 12270.3
0.112506 0.0649492 4.50905e-21 12266.7
0.11358 0.0655688 4.50902e-21 12275.8
0.114661 0.066193 0 12268.2
0.11575 0.0668218 0 12266.8
0.116847 0.0674552 0 12260.1
0.117952 0.0680932 0 12247.5
0.119065 0.068736 0 12234.5
0.120187 0.0693834 4.50884e-21 12233.8
0.121316 0.0700357 0 12220.6
0.122455 0.0706928 0 12215.9
0.123601 0.0713548 -4.50875e-21 12216.9
0.124756 0.0720217 0 12202.8
0.12592 0.0726935 -4.5087e-21 12197.6
0.127093 0.0733704 0 12189.4
0.128274 0.0740524 0 12178.2
0.129464 0.0747395 4.50859e-21 12165.1
0.130663 0.0754317 0 12154.3
0.131871 0.0761292 4.50853e-21 12159.3
0.133088 0.0768319 4.50851e-21 12147.6
0.134315 0.0775399 0 12148.1
0.13555 0.0782532 4.50845e-21 12137
0.136795 0.078972 0 12131.2
0.13805 0.0796962 0 12124.1
0.139314 0.080426 -4.50834e-21 12121.1
0.140587 0.0811613 -4.50831e-21 12123.1
0.14187 0.0819021 4.50827e-21 12122.7
0.143163 0.0826487 0 12114.1
0.144466 0.0834009 0 12102.7
0.145779 0.0841589 0 12091.7
0.147102 0.0849227 4.50815e-21 12078.8
0.148435 0.0856924 4.50811e-21 12059.1
0.149779 0.0864679 0 12050.3
0.151133 0.0872495 4.50805e-21 12042
0.152497 0.0880371 4.50801e-21 12042.9
0.153871 0.0888307 4.50798e-21 12040.5
0.155257 0.0896305 0 12030.1
0.156653 0.0904364 4.50791e-21 12024.5
0.15806 0.0912487 4.50787e-21 12009.1
0.159478 0.0920672 0 12007.7
0.160907 0.092892 0 11997.1
0.162347 0.0937233 0 11992.8
0.163798 0.0945611 4.50774e-21 12002.7
0.16526 0.0954054 0 11996.2
0.166734 0.0962563 0 11996.3
0.168219 0.0971138 0 11986.2
0.169716 0.097978 4.50761e-21 11973.8
0.171225 0.098849 4.50758e-21 11966.4
0.172745 0.0997268 4.50754e-21 11954
0.174278 0.100611 0 11949
0.175822 0.101503 0 11954.6
0.177379 0.102402 0 11964.2
0.178947 0.103308 4.50741e-21 11956.9
0.180529 0.10422 4.50737e-21 11945
0.182122 0.10514 4.50734e-21 11937.5
0.183728 0.106068 0 11921.3
0.185347 0.107002 -4.50727e-21 11908.3
0.186979 0.107944 0 11896.7
0.188623 0.108894 0 11905.7
0.190281 0.109851 4.50716e-21 11904.7
0.191952 0.110815 0 11914.6
0.193636 0.111787 -4.5071e-21 11915.2
0.195333 0.112767 -4.50707e-21 11916.6
0.197044 0.113755 -4.50702e-21 11905
0.198768 0.114751 -4.507e-21 11901.9
0.200506 0.115754 -4.50696e-21 11883.2
0.202258 0.116766 0 11889.1
0.204024 0.117785 4.50688e-21 11887.6
0.205805 0.118813 4.50686e-21 11896.8
0.207599 0.119849 0 11895.4
0.209408 0.120893 -4.50679e-21 11888.8
0.211231 0.121946 -4.50676e-21 11879.7
0.213068 0.123007 0 11851.3
0.214921 0.124076 0 11842.1
0.216788 0.125154 0 11834.7
0.21867 0.126241 0 11833
0.220567 0.127336 0 11837
0.22248 0.12844 0 11847.6
0.224408 0.129553 0 11849.2
0.226351 0.130675 0 11844.4
0.22831 0.131806 0 11833
0.230284 0.132946 9.01282e-21 11808
0.232275 0.134095 0 11785.6
0.234282 0.135254 9.01268e-21 11786.5
0.236304 0.136421 0 11773.9
0.238344 0.137598 9.01253e-21 11788.1
0.2404 0.138785 0 11793.9
0.242472 0.139982 0 11804.1
