# wallHeatFlux  FACE_DATA 448
# x  y  z  wallHeatFlux
-0.778 -3.80769e-06 0 -198882
-0.773968 -3.80769e-06 0 -40154.3
-0.769872 -3.80769e-06 0 -24476.2
-0.76571 -3.80769e-06 0 -19627.1
-0.761486 -3.80769e-06 0 -16565.7
-0.757196 -3.80769e-06 0 -14607.2
-0.752841 -3.80769e-06 0 -13270.9
-0.748422 -3.80769e-06 0 -12247.7
-0.743939 -3.80769e-06 0 -11454.3
-0.739391 -3.80769e-06 0 -10813
-0.73478 -3.80769e-06 0 -10276.4
-0.730104 -3.80769e-06 0 -9818.97
-0.725364 -3.80769e-06 0 -9430.09
-0.720562 -3.80769e-06 0 -9147.23
-0.715696 -3.80769e-06 0 -8991.98
-0.710769 -3.80769e-06 0 -9130.51
-0.705778 -3.80769e-06 0 -9515.19
-0.700727 -3.80769e-06 0 -10156.9
-0.695615 -3.80769e-06 0 -10906.3
-0.690443 -3.80769e-06 0 -11602.9
-0.685211 -3.80769e-06 0 -12160.9
-0.67992 -3.80769e-06 0 -12596.1
-0.674571 -3.80769e-06 0 -12929.8
-0.669166 -3.80769e-06 0 -13172.5
-0.663704 -3.80769e-06 0 -13356.4
-0.658187 -3.80769e-06 0 -13492
-0.652616 -3.80769e-06 0 -13590
-0.646993 -3.80769e-06 0 -13644.9
-0.641317 -3.80769e-06 0 -13667.9
-0.635592 -3.80769e-06 0 -13673.4
-0.629817 -3.80769e-06 0 -13664.1
-0.623994 -3.80769e-06 0 -13636.9
-0.618125 -3.80769e-06 0 -13599.9
-0.61221 -3.80769e-06 0 -13551.5
-0.606252 -3.80769e-06 0 -13497.5
-0.600253 -3.80769e-06 0 -13437.8
-0.594213 -3.80769e-06 0 -13377.8
-0.588134 -3.80769e-06 0 -13312.3
-0.582018 -3.80769e-06 0 -13251.8
-0.575867 -3.80769e-06 0 -13191.1
-0.569683 -3.80769e-06 0 -13124.6
-0.563467 -3.80769e-06 0 -13057.9
-0.557221 -3.80769e-06 0 -12991.2
-0.550946 -3.80769e-06 0 -12934.1
-0.544647 -3.80769e-06 0 -12877.8
-0.538323 -3.80769e-06 0 -12815.5
-0.531979 -3.80769e-06 0 -12758.4
-0.525613 -3.80769e-06 0 -12695.5
-0.51923 -3.80769e-06 0 -12643.2
-0.512832 -3.80769e-06 0 -12596
-0.50642 -3.80769e-06 0 -12543.2
-0.499995 -3.80769e-06 0 -12490.6
-0.493562 -3.80769e-06 0 -12437
-0.487123 -3.80769e-06 0 -12383.6
-0.480677 -3.80769e-06 0 -12340.8
-0.47423 -3.80769e-06 0 -12302.8
-0.467782 -3.80769e-06 0 -12265.2
-0.461335 -3.80769e-06 0 -12227.4
-0.454892 -3.80769e-06 0 -12183
-0.448455 -3.80769e-06 0 -12134.3
-0.442026 -3.80769e-06 0 -12084.2
-0.435607 -3.80769e-06 0 -12045.7
-0.429202 -3.80769e-06 0 -12017.6
-0.42281 -3.80769e-06 0 -11989.3
-0.416434 -3.80769e-06 0 -11966.5
-0.410078 -3.80769e-06 0 -11931.8
-0.403743 -3.80769e-06 0 -11887.1
-0.39743 -3.80769e-06 0 -11842.3
-0.391141 -3.80769e-06 0 -11796.4
-0.38488 -3.80769e-06 0 -11762.2
-0.378648 -3.80769e-06 0 -11727.6
-0.372446 -3.80769e-06 0 -11719.8
-0.366277 -3.80769e-06 0 -11706.9
-0.360142 -3.80769e-06 0 -11687.5
-0.354042 -3.80769e-06 0 -11663.6
-0.347981 -3.80769e-06 0 -11628.5
-0.341959 -3.80769e-06 0 -11588.2
-0.335978 -3.80769e-06 0 -11547.3
-0.33004 -3.80769e-06 0 -11506.3
-0.324146 -3.80769e-06 0 -11471.7
-0.318298 -3.80769e-06 0 -11446.9
-0.312497 -3.80769e-06 0 -11438.5
-0.306744 -3.80769e-06 0 -11430.1
-0.301041 -3.80769e-06 0 -11427
-0.29539 -3.80769e-06 0 -11423.7
-0.28979 -3.80769e-06 0 -11410.5
-0.284243 -3.80769e-06 0 -11396.3
-0.278752 -3.80769e-06 0 -11371.7
-0.273316 -3.80769e-06 0 -11341.8
-0.267937 -3.80769e-06 0 -11306.5
-0.262614 -3.80769e-06 0 -11265.5
-0.25735 -3.80769e-06 0 -11231
-0.252146 -3.80769e-06 0 -11200.8
-0.247001 -3.80769e-06 0 -11176.4
-0.241916 -3.80769e-06 0 -11157.3
-0.236893 -3.80769e-06 0 -11143.8
-0.231931 -3.80769e-06 0 -11140.8
-0.227031 -3.80769e-06 0 -11138.8
-0.222195 -3.80769e-06 0 -11141.1
-0.217421 -3.80769e-06 0 -11138.5
-0.212711 -3.80769e-06 0 -11135.6
-0.208064 -3.80769e-06 0 -11133.9
-0.203482 -3.80769e-06 0 -11125.2
-0.198964 -3.80769e-06 0 -11112.6
-0.19451 -3.80769e-06 0 -11094.4
-0.19012 -3.80769e-06 0 -11076.2
-0.185796 -3.80769e-06 0 -11053
-0.181535 -3.80769e-06 0 -11029.2
-0.17734 -3.80769e-06 0 -11005.4
-0.173208 -3.80769e-06 0 -10977.6
-0.169141 -3.80769e-06 0 -10953.4
-0.165138 -3.80769e-06 0 -10931.1
-0.161199 -3.80769e-06 0 -10907.8
-0.157325 -3.80769e-06 0 -10890.2
-0.153513 -3.80769e-06 0 -10878
-0.149765 -3.80769e-06 0 -10865.4
-0.14608 -3.80769e-06 0 -10853.9
-0.142457 -3.80769e-06 0 -10853.1
-0.138897 -3.80769e-06 0 -10850.9
-0.135398 -3.80769e-06 0 -10850.9
-0.131961 -3.80769e-06 0 -10849.5
-0.128584 -3.80769e-06 0 -10853.5
-0.125268 -3.80769e-06 0 -10858.6
-0.122011 -3.80769e-06 0 -10863.8
-0.118815 -3.80769e-06 0 -10867.3
-0.115677 -3.80769e-06 0 -10867.3
-0.112597 -3.80769e-06 0 -10872.1
-0.109574 -3.80769e-06 0 -10872.2
-0.106609 -3.80769e-06 0 -10866
-0.1037 -3.80769e-06 0 -10865.7
-0.100846 -3.80769e-06 0 -10859.9
-0.098048 -3.80769e-06 0 -10854.6
-0.0953042 -3.80769e-06 0 -10849.2
-0.0926143 -3.80769e-06 0 -10843.8
-0.0899773 -3.80769e-06 0 -10833.2
-0.0873927 -3.80769e-06 0 -10827.9
-0.0848599 -3.80769e-06 0 -10817.6
-0.082378 -3.80769e-06 0 -10807
-0.0799465 -3.80769e-06 0 -10796.7
-0.0775645 -3.80769e-06 0 -10786.5
-0.0752312 -3.80769e-06 0 -10776.1
-0.0729462 -3.80769e-06 0 -10760.6
-0.0707085 -3.80769e-06 0 -10750.5
-0.0685175 -3.80769e-06 0 -10740.5
-0.0663725 -3.80769e-06 0 -10730.3
-0.0642727 -3.80769e-06 0 -10715.1
-0.0622173 -3.80769e-06 0 -10705.3
-0.0602058 -3.80769e-06 0 -10695.3
-0.0582373 -3.80769e-06 0 -10685.6
-0.0563111 -3.80769e-06 0 -10675.8
-0.0544265 -3.80769e-06 0 -10666.1
-0.0525827 -3.80769e-06 0 -10656.5
-0.0507792 -3.80769e-06 0 -10647
-0.0490152 -3.80769e-06 0 -10637.5
-0.0472898 -3.80769e-06 0 -10633.5
-0.0456025 -3.80769e-06 0 -10624
-0.0439526 -3.80769e-06 0 -10620
-0.0423394 -3.80769e-06 0 -10610.7
-0.0407622 -3.80769e-06 0 -10606.9
-0.0392203 -3.80769e-06 0 -10597.8
-0.0377131 -3.80769e-06 0 -10594.1
-0.0362398 -3.80769e-06 0 -10585.2
-0.0347999 -3.80769e-06 0 -10581.6
-0.0333926 -3.80769e-06 0 -10578.2
-0.0320175 -3.80769e-06 0 -10569.5
-0.0306737 -3.80769e-06 0 -10566.3
-0.0293607 -3.80769e-06 0 -10563.3
-0.0280779 -3.80769e-06 0 -10560
-0.0268246 -3.80769e-06 0 -10557.5
-0.0256004 -3.80769e-06 0 -10554.5
-0.0244045 -3.80769e-06 0 -10546.7
-0.0232363 -3.80769e-06 0 -10544.5
-0.0220954 -3.80769e-06 0 -10542.1
-0.0209812 -3.80769e-06 0 -10540.4
-0.019893 -3.80769e-06 0 -10538.9
-0.0188303 -3.80769e-06 0 -10527
-0.0177927 -3.80769e-06 0 -10510.2
-0.0167794 -3.80769e-06 0 -10456.2
-0.0157901 -3.80769e-06 0 -10332.3
-0.0148243 -3.80769e-06 0 -10133.9
-0.0138814 -3.80769e-06 0 -9947
-0.0129608 -3.80769e-06 0 -9739.3
-0.0120623 -3.80769e-06 0 -9213.09
-0.0111851 -3.80769e-06 0 -8520.86
-0.0103289 -3.80769e-06 0 -8175.06
-0.00949328 -3.80769e-06 0 -8324.15
-0.00867767 -3.80769e-06 0 -8965.65
-0.00788168 -3.80769e-06 0 -9620.78
-0.00710485 -3.80769e-06 0 -10203.7
-0.00634675 -3.80769e-06 0 -10665.9
-0.00560698 -3.80769e-06 0 -11014.1
-0.0048851 -3.80769e-06 0 -11276.6
-0.00418071 -3.80769e-06 0 -11495.6
-0.00349342 -3.80769e-06 0 -11716.9
-0.00282284 -3.80769e-06 0 -12069.8
-0.00216857 -3.80769e-06 0 -12794.7
-0.00153026 -3.80769e-06 0 -14158.8
-0.00090752 -3.80769e-06 0 -14997.3
-0.0003 -3.80769e-06 0 -14063.3
0.000259937 0.000146262 2.25537e-21 -13801.1
0.000779437 0.000446185 0 -17552.8
0.00129893 0.000746101 0 -20955.8
0.00181858 0.00104611 2.2554e-21 -24021.2
0.00233835 0.00134618 -2.25541e-21 -26762.1
0.00285828 0.00164636 2.25542e-21 -29606
0.00337841 0.00194664 0 -32559
0.00389877 0.00224706 0 -35537.9
0.00441941 0.00254764 -2.25544e-21 -38592.9
0.00494034 0.00284839 2.25545e-21 -41806.4
0.00546162 0.00314934 -2.25546e-21 -45210.9
0.00598328 0.0034505 2.25547e-21 -48821.9
0.00650535 0.00375191 2.25547e-21 -52549
0.00702786 0.00405357 2.25548e-21 -56321.4
0.00755087 0.00435552 0 -60049.9
0.00807439 0.00465776 -2.25549e-21 -63731.4
0.00859847 0.00496033 2.2555e-21 -67394.2
0.00912315 0.00526324 0 -71075.4
0.00964845 0.00556651 2.25551e-21 -74756.8
0.0101744 0.00587017 0 -78449.2
0.0107011 0.00617424 0 -82137.9
0.0112285 0.00647873 -2.25552e-21 -85848.3
0.0117567 0.00678367 0 -89573.2
0.0122857 0.00708907 0 -93400.9
0.0128156 0.00739497 0 -97295.4
0.0133463 0.00770137 -2.25554e-21 -101355
0.0138779 0.00800831 0 -105599
0.0144106 0.0083158 0 -109975
0.0149442 0.00862387 0 -114539
0.0154788 0.00893253 0 -119373
0.0160145 0.00924181 0 -124613
0.0165513 0.00955172 2.25556e-21 -130491
0.0170893 0.00986231 -2.25556e-21 -136846
0.0176284 0.0101736 0 -143308
0.0181687 0.0104855 0 -149392
0.0187103 0.0107982 2.25556e-21 -154633
0.0192532 0.0111117 2.25557e-21 -159338
0.0197975 0.0114259 2.25557e-21 -163550
0.0203431 0.0117408 0 -167669
0.0208901 0.0120566 4.51114e-21 -171994
0.0214385 0.0123732 -4.51114e-21 -176539
0.0219884 0.0126907 0 -181017
0.0225398 0.0130091 4.51114e-21 -184919
0.0230928 0.0133283 0 -188124
0.0236474 0.0136485 0 -190259
0.0242037 0.0139697 0 -191836
0.0247616 0.0142918 -4.51113e-21 -192750
0.0253212 0.0146148 -4.51113e-21 -193542
0.0258825 0.0149389 -4.51114e-21 -193277
0.0264456 0.015264 0 -193010
0.0270106 0.0155902 0 -192398
0.0275774 0.0159174 -4.51112e-21 -191385
0.0281462 0.0162457 0 -190141
0.0287168 0.0165752 4.51111e-21 -188887
0.0292895 0.0169059 -4.51111e-21 -187758
0.0298642 0.0172376 0 -186333
0.0304409 0.0175706 0 -184225
0.0310198 0.0179048 4.5111e-21 -182058
0.0316007 0.0182402 4.5111e-21 -179833
0.0321839 0.0185768 -4.51107e-21 -177929
0.0327693 0.0189148 0 -175929
0.0333569 0.0192541 0 -174650
0.0339469 0.0195947 4.51106e-21 -171656
0.0345392 0.0199366 0 -169476
0.0351339 0.02028 0 -167741
0.035731 0.0206247 4.51105e-21 -166327
0.0363305 0.0209708 -4.51103e-21 -165274
0.0369326 0.0213184 4.51102e-21 -164473
0.0375373 0.0216675 0 -163250
0.0381445 0.0220181 0 -162146
0.0387543 0.0223702 0 -161550
0.0393668 0.0227238 4.51099e-21 -160087
0.0399821 0.023079 -4.51097e-21 -159482
0.0406001 0.0234358 4.51097e-21 -158335
0.041221 0.0237942 0 -157641
0.0418446 0.0241542 0 -156767
0.0424712 0.024516 4.51092e-21 -155766
0.0431006 0.0248794 -4.51094e-21 -155276
0.0437331 0.0252445 0 -154602
0.0443686 0.0256114 4.51089e-21 -153668
0.0450071 0.02598 4.51089e-21 -153386
0.0456487 0.0263505 0 -152666
0.0462935 0.0267227 0 -152458
0.0469415 0.0270968 -4.51085e-21 -151879
0.0475927 0.0274728 0 -151357
0.0482473 0.0278507 -4.51081e-21 -150866
0.0489051 0.0282305 4.51081e-21 -149897
0.0495663 0.0286122 -4.51079e-21 -149108
0.050231 0.0289959 0 -148244
0.0508991 0.0293816 -4.51077e-21 -147178
0.0515707 0.0297694 4.51073e-21 -146348
0.0522459 0.0301592 -4.51073e-21 -145851
0.0529247 0.0305511 0 -144913
0.0536071 0.0309451 0 -144589
0.0542933 0.0313412 -4.51067e-21 -143843
0.0549832 0.0317395 0 -143552
0.0556769 0.03214 0 -143165
0.0563744 0.0325427 0 -143042
0.0570758 0.0329477 -4.5106e-21 -142861
0.0577812 0.0333549 0 -142835
0.0584905 0.0337645 0 -142188
0.0592039 0.0341763 -4.51056e-21 -142160
0.0599214 0.0345905 4.51053e-21 -141438
0.060643 0.0350071 0 -141089
0.0613688 0.0354262 4.51049e-21 -140400
0.0620989 0.0358477 -4.51048e-21 -140045
0.0628332 0.0362716 4.51046e-21 -139500
0.0635719 0.0366981 0 -139049
0.0643149 0.037127 4.51041e-21 -138922
0.0650624 0.0375586 0 -138382
0.0658144 0.0379927 0 -138301
0.0665709 0.0384295 4.51035e-21 -137836
0.0673321 0.0388689 -4.51035e-21 -137538
0.0680979 0.039311 0 -137395
0.0688683 0.0397558 -4.51029e-21 -136846
0.0696435 0.0402034 4.51029e-21 -136835
0.0704236 0.0406537 0 -136489
0.0712085 0.0411069 0 -136665
0.0719983 0.0415628 0 -136265
0.0727931 0.0420217 0 -136143
0.0735929 0.0424834 0 -135990
0.0743978 0.0429481 0 -135517
0.0752078 0.0434158 0 -135331
0.076023 0.0438864 4.5101e-21 -134823
0.0768435 0.0443601 -4.51009e-21 -134509
0.0776693 0.0448369 -4.51004e-21 -134020
0.0785004 0.0453167 4.51003e-21 -133663
0.079337 0.0457997 0 -133572
0.080179 0.0462858 0 -133128
0.0810266 0.0467751 0 -132781
0.0818797 0.0472677 0 -133001
0.0827385 0.0477635 0 -132530
0.083603 0.0482626 0 -132524
0.0844733 0.0487651 4.50985e-21 -132361
0.0853495 0.0492709 -4.50983e-21 -132076
0.0862316 0.0497801 0 -132005
0.0871195 0.0502927 -4.50978e-21 -131489
0.0880135 0.0508089 0 -131375
0.0889136 0.0513285 0 -131072
0.0898198 0.0518517 0 -130572
0.0907322 0.0523785 0 -130423
0.0916509 0.0529089 0 -130067
0.0925758 0.0534429 4.50963e-21 -129783
0.0935072 0.0539806 4.50959e-21 -129617
0.094445 0.054522 0 -129490
0.0953894 0.0550672 4.50953e-21 -129224
0.0963404 0.0556162 0 -128954
0.0972979 0.0561691 0 -128664
0.0982622 0.0567258 0 -128413
0.0992333 0.0572865 0 -128314
0.100211 0.057851 0 -128136
0.101196 0.0584196 0 -127481
0.102188 0.0589922 4.50935e-21 -127631
0.103187 0.0595689 4.50932e-21 -127447
0.104193 0.0601497 -4.50928e-21 -126551
0.105206 0.0607347 0 -126903
0.106226 0.0613239 0 -126392
0.107254 0.0619172 0 -126420
0.10829 0.0625149 4.50918e-21 -126122
0.109332 0.0631169 4.50915e-21 -126159
0.110382 0.0637232 -4.50911e-21 -126393
0.11144 0.064334 -4.50908e-21 -126074
0.112506 0.0649492 4.50905e-21 -126241
0.11358 0.0655688 4.50902e-21 -125587
0.114661 0.066193 0 -125543
0.11575 0.0668218 0 -125483
0.116847 0.0674552 0 -125163
0.117952 0.0680932 0 -124911
0.119065 0.068736 0 -124894
0.120187 0.0693834 4.50884e-21 -124129
0.121316 0.0700357 0 -124240
0.122455 0.0706928 0 -124318
0.123601 0.0713548 -4.50875e-21 -123371
0.124756 0.0720217 0 -124009
0.12592 0.0726935 -4.5087e-21 -123547
0.127093 0.0733704 0 -123453
0.128274 0.0740524 0 -122880
0.129464 0.0747395 4.50859e-21 -122946
0.130663 0.0754317 0 -122651
0.131871 0.0761292 4.50853e-21 -122042
0.133088 0.0768319 4.50851e-21 -122530
0.134315 0.0775399 0 -122048
0.13555 0.0782532 4.50845e-21 -121502
0.136795 0.078972 0 -121754
0.13805 0.0796962 0 -121040
0.139314 0.080426 -4.50834e-21 -121440
0.140587 0.0811613 -4.50831e-21 -120853
0.14187 0.0819021 4.50827e-21 -120899
0.143163 0.0826487 0 -120724
0.144466 0.0834009 0 -120530
0.145779 0.0841589 0 -120432
0.147102 0.0849227 4.50815e-21 -119481
0.148435 0.0856924 4.50811e-21 -119479
0.149779 0.0864679 0 -119100
0.151133 0.0872495 4.50805e-21 -118664
0.152497 0.0880371 4.50801e-21 -118409
0.153871 0.0888307 4.50798e-21 -118864
0.155257 0.0896305 0 -118141
0.156653 0.0904364 4.50791e-21 -117774
0.15806 0.0912487 4.50787e-21 -118079
0.159478 0.0920672 0 -117325
0.160907 0.092892 0 -117010
0.162347 0.0937233 0 -117272
0.163798 0.0945611 4.50774e-21 -116352
0.16526 0.0954054 0 -116828
0.166734 0.0962563 0 -116712
0.168219 0.0971138 0 -116147
0.169716 0.097978 4.50761e-21 -116193
0.171225 0.098849 4.50758e-21 -115627
0.172745 0.0997268 4.50754e-21 -115748
0.174278 0.100611 0 -114848
0.175822 0.101503 0 -115142
0.177379 0.102402 0 -114304
0.178947 0.103308 4.50741e-21 -114975
0.180529 0.10422 4.50737e-21 -114600
0.182122 0.10514 4.50734e-21 -113832
0.183728 0.106068 0 -114228
0.185347 0.107002 -4.50727e-21 -113827
0.186979 0.107944 0 -113126
0.188623 0.108894 0 -113786
0.190281 0.109851 4.50716e-21 -113387
0.191952 0.110815 0 -113566
0.193636 0.111787 -4.5071e-21 -112758
0.195333 0.112767 -4.50707e-21 -112880
0.197044 0.113755 -4.50702e-21 -112319
0.198768 0.114751 -4.507e-21 -111936
0.200506 0.115754 -4.50696e-21 -111785
0.202258 0.116766 0 -111996
0.204024 0.117785 4.50688e-21 -111281
0.205805 0.118813 4.50686e-21 -111633
0.207599 0.119849 0 -111081
0.209408 0.120893 -4.50679e-21 -110796
0.211231 0.121946 -4.50676e-21 -110372
0.213068 0.123007 0 -110935
0.214921 0.124076 0 -110022
0.216788 0.125154 0 -109242
0.21867 0.126241 0 -110158
0.220567 0.127336 0 -109468
0.22248 0.12844 0 -108785
0.224408 0.129553 0 -109640
0.226351 0.130675 0 -108704
0.22831 0.131806 0 -108650
0.230284 0.132946 9.01282e-21 -108202
0.232275 0.134095 0 -108257
0.234282 0.135254 9.01268e-21 -107585
0.236304 0.136421 0 -108160
0.238344 0.137598 9.01253e-21 -107846
0.2404 0.138785 0 -107196
0.242472 0.139982 0 -106524
