# p  FACE_DATA 235
# x  y  z  p
-0.57565 0 0.0205 3675.86
-0.556783 0 0.0205 3044.68
-0.538647 0 0.0205 2861.19
-0.521213 0 0.0205 2791.29
-0.504453 0 0.0205 2776.04
-0.48834 0 0.0205 2771.55
-0.472849 0 0.0205 2769.28
-0.457957 0 0.0205 2767.54
-0.443638 0 0.0205 2764.56
-0.429872 0 0.0205 2759.95
-0.416636 0 0.0205 2754.46
-0.40391 0 0.0205 2748.86
-0.391674 0 0.0205 2743.54
-0.379908 0 0.0205 2738.46
-0.368594 0 0.0205 2733.59
-0.357715 0 0.0205 2728.97
-0.347254 0 0.0205 2724.51
-0.337194 0 0.0205 2720.17
-0.327521 0 0.0205 2716.01
-0.318219 0 0.0205 2712.06
-0.309273 0 0.0205 2708.32
-0.300671 0 0.0205 2704.87
-0.292398 0 0.0205 2701.67
-0.284442 0 0.0205 2698.79
-0.27679 0 0.0205 2696.13
-0.269431 0 0.0205 2693.8
-0.262355 0 0.0205 2691.62
-0.255549 0 0.0205 2689.81
-0.249003 0 0.0205 2688.08
-0.242707 0 0.0205 2686.52
-0.236652 0 0.0205 2684.97
-0.230829 0 0.0205 2683.66
-0.225228 0 0.0205 2682.35
-0.219841 0 0.0205 2681.19
-0.21466 0 0.0205 2680.01
-0.209676 0 0.0205 2679.13
-0.204883 0 0.0205 2678.96
-0.200177 0 0.0205 2677.5
-0.1955 0 0.0205 2676.68
-0.190906 0 0.0205 2676.11
-0.186428 0 0.0205 2675.65
-0.182051 0 0.0205 2674.97
-0.177762 0 0.0205 2674.24
-0.17358 0 0.0205 2673.52
-0.169482 0 0.0205 2672.84
-0.165477 0 0.0205 2672.24
-0.161572 0 0.0205 2671.55
-0.157735 0 0.0205 2671.02
-0.153994 0 0.0205 2670.52
-0.150346 0 0.0205 2670
-0.146761 0 0.0205 2669.64
-0.143265 0 0.0205 2669.35
-0.139847 0 0.0205 2669.08
-0.136496 0 0.0205 2668.84
-0.133229 0 0.0205 2668.63
-0.130025 0 0.0205 2668.49
-0.126893 0 0.0205 2668.36
-0.123837 0 0.0205 2668.01
-0.120834 0 0.0205 2667.88
-0.117903 0 0.0205 2667.83
-0.115044 0 0.0205 2667.46
-0.112234 0 0.0205 2667.28
-0.109492 0 0.0205 2667.16
-0.106804 0 0.0205 2666.99
-0.104153 0 0.0205 2666.84
-0.101546 0 0.0205 2666.7
-0.0989719 0 0.0205 2666.62
-0.0964343 0 0.0205 2666.53
-0.0939374 0 0.0205 2666.4
-0.0914684 0 0.0205 2666.39
-0.0890386 0 0.0205 2666.42
-0.0866475 0 0.0205 2666.36
-0.0842832 0 0.0205 2666.39
-0.0819566 0 0.0205 2666.44
-0.0796635 0 0.0205 2666.49
-0.0774002 0 0.0205 2666.52
-0.0751735 0 0.0205 2666.52
-0.0729758 0 0.0205 2666.58
-0.0708106 0 0.0205 2666.66
-0.0686812 0 0.0205 2666.52
-0.0665768 0 0.0205 2666.49
-0.0645079 0 0.0205 2666.59
-0.0624742 0 0.0205 2666.34
-0.0604652 0 0.0205 2666.22
-0.0584911 0 0.0205 2666.13
-0.0565486 0 0.0205 2665.99
-0.054634 0 0.0205 2665.85
-0.0527543 0 0.0205 2665.66
-0.050906 0 0.0205 2665.49
-0.0490962 0 0.0205 2665.52
-0.0473279 0 0.0205 2665.08
-0.04559 0 0.0205 2664.83
-0.0438927 0 0.0205 2664.89
-0.0422356 0 0.0205 2664.5
-0.0406076 0 0.0205 2664.27
-0.039019 0 0.0205 2664.26
-0.0374658 0 0.0205 2664.04
-0.0359442 0 0.0205 2663.88
-0.0344609 0 0.0205 2663.77
-0.0330083 0 0.0205 2663.69
-0.0315898 0 0.0205 2663.78
-0.0302086 0 0.0205 2663.6
-0.0288534 0 0.0205 2663.44
-0.0275349 0 0.0205 2663.37
-0.0262527 0 0.0205 2677.66
-0.0249956 0 0.0205 3404.3
-0.023774 0 0.0205 12149.9
-0.0225842 0 0.0205 13690.6
-0.021422 0 0.0205 11587.1
-0.0202944 0 0.0205 12004
-0.0191938 0 0.0205 13063.5
-0.0181234 0 0.0205 13979.9
-0.0170867 0 0.0205 14757.7
-0.016072 0 0.0205 15047.3
-0.0150901 0 0.0205 15142.8
-0.0141406 0 0.0205 15352.9
-0.013212 0 0.0205 15763.6
-0.012315 0 0.0205 16309.3
-0.0114453 0 0.0205 16896.7
-0.010599 0 0.0205 17495.4
-0.00978278 0 0.0205 18080.4
-0.0089888 0 0.0205 18639.1
-0.0082203 0 0.0205 19164.3
-0.00748044 0 0.0205 19645.8
-0.00675745 0 0.0205 20083.2
-0.00606198 0 0.0205 20480
-0.0053934 0 0.0205 20837.3
-0.00473991 0 0.0205 21166.1
-0.004112 0 0.0205 21483.4
-0.00350529 0 0.0205 21797.1
-0.00291537 0 0.0205 22159.7
-0.00234888 0 0.0205 22623
-0.0017977 0 0.0205 23059.5
-0.00126472 0 0.0205 23650.5
-0.0007527 0 0.0205 24553.6
-0.00025 0 0.0205 26736.8
0.00020726 0.000139798 0.0205 23088.9
0.00062196 0.000419517 0.0205 23518.7
0.00103721 0.000699604 0.0205 23391
0.00145336 0.000980299 0.0205 23259.1
0.00187079 0.00126186 0.0205 23411.8
0.00228985 0.00154452 0.0205 23806.8
0.00271091 0.00182854 0.0205 24298
0.00313435 0.00211415 0.0205 24838.8
0.00356054 0.00240162 0.0205 25453.3
0.00398984 0.00269118 0.0205 26130
0.00442264 0.0029831 0.0205 26855.7
0.00485931 0.00327765 0.0205 27624.5
0.00530023 0.00357505 0.0205 28432.4
0.00574579 0.00387559 0.0205 29275.5
0.00619639 0.00417951 0.0205 30147.5
0.00665241 0.0044871 0.0205 31040.4
0.00711424 0.00479861 0.0205 31940.4
0.00758231 0.00511434 0.0205 32832.2
0.00805703 0.00543453 0.0205 33694.5
0.00853879 0.00575948 0.0205 34526.4
0.00902802 0.00608948 0.0205 35348.1
0.00952516 0.0064248 0.0205 36206.7
0.0100306 0.00676576 0.0205 37133.6
0.0105449 0.00711263 0.0205 38205.4
0.0110684 0.00746574 0.0205 39441.2
0.0116016 0.00782537 0.0205 41027
0.0121449 0.00819186 0.0205 43095.2
0.0126989 0.00856552 0.0205 45810.4
0.013264 0.00894669 0.0205 49328.5
0.0138407 0.00933568 0.0205 53774.6
0.0144295 0.00973285 0.0205 59484.1
0.015031 0.0101386 0.0205 66177.2
0.0156456 0.0105531 0.0205 73431
0.016274 0.0109769 0.0205 81789.3
0.0169165 0.0114103 0.0205 93282.4
0.0175739 0.0118537 0.0205 110275
0.0182466 0.0123075 0.0205 132756
0.0189354 0.0127721 0.0205 159301
0.0196407 0.0132478 0.0205 186540
0.0203631 0.0137352 0.0205 211799
0.0211035 0.0142345 0.0205 223010
0.0218623 0.0147463 0.0205 206428
0.0226403 0.0152711 0.0205 160519
0.023438 0.0158092 0.0205 121990
0.0242564 0.0163611 0.0205 114700
0.0250958 0.0169274 0.0205 124461
0.0259573 0.0175084 0.0205 138107
0.0268416 0.0181049 0.0205 148187
0.0277493 0.0187172 0.0205 153902
0.0286813 0.0193458 0.0205 155387
0.0296385 0.0199914 0.0205 150885
0.0306216 0.0206545 0.0205 137981
0.0316314 0.0213357 0.0205 122261
0.032669 0.0220355 0.0205 112271
0.0337352 0.0227547 0.0205 109204
0.034831 0.0234938 0.0205 112633
0.0359572 0.0242533 0.0205 120183
0.0371148 0.0250343 0.0205 127034
0.038305 0.0258371 0.0205 131555
0.0395287 0.0266625 0.0205 132755
0.040787 0.0275112 0.0205 130167
0.0420811 0.0283841 0.0205 126329
0.043412 0.0292818 0.0205 123809
0.0447809 0.0302051 0.0205 123470
0.046189 0.0311548 0.0205 124211
0.0476375 0.0321318 0.0205 124845
0.0491277 0.0331371 0.0205 125188
0.0506609 0.0341713 0.0205 124830
0.0522386 0.0352353 0.0205 124014
0.0538619 0.0363303 0.0205 123655
0.0555324 0.0374571 0.0205 124138
0.0572515 0.0386166 0.0205 125378
0.0590207 0.03981 0.0205 126862
0.0608417 0.0410383 0.0205 128051
0.0627159 0.0423024 0.0205 128591
0.064645 0.0436036 0.0205 128240
0.0666306 0.044943 0.0205 127741
0.0686746 0.0463217 0.0205 127620
0.0707788 0.0477409 0.0205 127661
0.0729449 0.0492019 0.0205 127401
0.0751749 0.0507061 0.0205 126758
0.0774706 0.0522546 0.0205 125933
0.0798342 0.0538489 0.0205 125297
0.0822678 0.0554903 0.0205 124953
0.0847732 0.0571803 0.0205 124848
0.087353 0.0589204 0.0205 124975
0.0900092 0.060712 0.0205 125304
0.0927443 0.0625568 0.0205 125755
0.0955605 0.0644564 0.0205 126237
0.0984604 0.0664124 0.0205 126968
0.101446 0.0684266 0.0205 127963
0.104521 0.0705006 0.0205 128393
0.107688 0.0726364 0.0205 128655
0.110949 0.0748358 0.0205 128894
0.114306 0.0771006 0.0205 128634
0.117764 0.079433 0.0205 128380
0.121326 0.081835 0.0205 127810
0.124992 0.0843085 0.0205 127209
0.128769 0.0868559 0.0205 125287
