# wallHeatFlux  FACE_DATA 235
# x  y  z  wallHeatFlux
-0.57565 0 0.0205 -356798
-0.556783 0 0.0205 -82431.8
-0.538647 0 0.0205 -77017.8
-0.521213 0 0.0205 -75903.1
-0.504453 0 0.0205 -75319.2
-0.48834 0 0.0205 -74576.1
-0.472849 0 0.0205 -73620.7
-0.457957 0 0.0205 -72612.2
-0.443638 0 0.0205 -71603.7
-0.429872 0 0.0205 -70648.3
-0.416636 0 0.0205 -69745.9
-0.40391 0 0.0205 -69002.8
-0.391674 0 0.0205 -68365.9
-0.379908 0 0.0205 -67782
-0.368594 0 0.0205 -67304.3
-0.357715 0 0.0205 -66879.6
-0.347254 0 0.0205 -66508.1
-0.337194 0 0.0205 -66242.7
-0.327521 0 0.0205 -66030.4
-0.318219 0 0.0205 -65871.1
-0.309273 0 0.0205 -65711.9
-0.300671 0 0.0205 -65552.7
-0.292398 0 0.0205 -65446.5
-0.284442 0 0.0205 -65393.4
-0.27679 0 0.0205 -65287.3
-0.269431 0 0.0205 -65234.2
-0.262355 0 0.0205 -65181.1
-0.255549 0 0.0205 -65128
-0.249003 0 0.0205 -65128
-0.242707 0 0.0205 -65128
-0.236652 0 0.0205 -65128
-0.230829 0 0.0205 -65075
-0.225228 0 0.0205 -65075
-0.219841 0 0.0205 -65021.9
-0.21466 0 0.0205 -65021.9
-0.209676 0 0.0205 -65021.9
-0.204883 0 0.0205 -65128
-0.200177 0 0.0205 -64915.7
-0.1955 0 0.0205 -64915.7
-0.190906 0 0.0205 -64915.7
-0.186428 0 0.0205 -64968.8
-0.182051 0 0.0205 -64968.8
-0.177762 0 0.0205 -64968.8
-0.17358 0 0.0205 -64915.7
-0.169482 0 0.0205 -64915.7
-0.165477 0 0.0205 -64915.7
-0.161572 0 0.0205 -64862.6
-0.157735 0 0.0205 -64862.6
-0.153994 0 0.0205 -64809.6
-0.150346 0 0.0205 -64809.6
-0.146761 0 0.0205 -64756.5
-0.143265 0 0.0205 -64756.5
-0.139847 0 0.0205 -64703.4
-0.136496 0 0.0205 -64650.3
-0.133229 0 0.0205 -64650.3
-0.130025 0 0.0205 -64650.3
-0.126893 0 0.0205 -64597.2
-0.123837 0 0.0205 -64597.2
-0.120834 0 0.0205 -64597.2
-0.117903 0 0.0205 -64544.2
-0.115044 0 0.0205 -64544.2
-0.112234 0 0.0205 -64491.1
-0.109492 0 0.0205 -64491.1
-0.106804 0 0.0205 -64438
-0.104153 0 0.0205 -64438
-0.101546 0 0.0205 -64384.9
-0.0989719 0 0.0205 -64384.9
-0.0964343 0 0.0205 -64331.8
-0.0939374 0 0.0205 -64278.8
-0.0914684 0 0.0205 -64278.8
-0.0890386 0 0.0205 -64225.7
-0.0866475 0 0.0205 -64225.7
-0.0842832 0 0.0205 -64172.6
-0.0819566 0 0.0205 -64172.6
-0.0796635 0 0.0205 -64172.6
-0.0774002 0 0.0205 -64119.5
-0.0751735 0 0.0205 -64119.5
-0.0729758 0 0.0205 -64119.5
-0.0708106 0 0.0205 -64119.5
-0.0686812 0 0.0205 -64119.5
-0.0665768 0 0.0205 -64066.5
-0.0645079 0 0.0205 -64066.5
-0.0624742 0 0.0205 -64066.5
-0.0604652 0 0.0205 -64013.4
-0.0584911 0 0.0205 -64013.4
-0.0565486 0 0.0205 -63960.3
-0.054634 0 0.0205 -63960.3
-0.0527543 0 0.0205 -63907.2
-0.050906 0 0.0205 -63907.2
-0.0490962 0 0.0205 -63854.1
-0.0473279 0 0.0205 -63801.1
-0.04559 0 0.0205 -63801.1
-0.0438927 0 0.0205 -63748
-0.0422356 0 0.0205 -63694.9
-0.0406076 0 0.0205 -63641.8
-0.039019 0 0.0205 -63588.7
-0.0374658 0 0.0205 -63588.7
-0.0359442 0 0.0205 -63535.7
-0.0344609 0 0.0205 -63482.6
-0.0330083 0 0.0205 -63429.5
-0.0315898 0 0.0205 -63429.5
-0.0302086 0 0.0205 -63376.4
-0.0288534 0 0.0205 -63376.4
-0.0275349 0 0.0205 -63323.3
-0.0262527 0 0.0205 -65128
-0.0249956 0 0.0205 -141190
-0.023774 0 0.0205 -692204
-0.0225842 0 0.0205 -609029
-0.021422 0 0.0205 -252073
-0.0202944 0 0.0205 -168420
-0.0191938 0 0.0205 -161148
-0.0181234 0 0.0205 -170225
-0.0170867 0 0.0205 -192518
-0.016072 0 0.0205 -202815
-0.0150901 0 0.0205 -199100
-0.0141406 0 0.0205 -194800
-0.013212 0 0.0205 -199630
-0.012315 0 0.0205 -212422
-0.0114453 0 0.0205 -228665
-0.010599 0 0.0205 -245862
-0.00978278 0 0.0205 -261733
-0.0089888 0 0.0205 -276064
-0.0082203 0 0.0205 -289228
-0.00748044 0 0.0205 -301808
-0.00675745 0 0.0205 -315131
-0.00606198 0 0.0205 -330470
-0.0053934 0 0.0205 -349207
-0.00473991 0 0.0205 -371714
-0.004112 0 0.0205 -398782
-0.00350529 0 0.0205 -430259
-0.00291537 0 0.0205 -466725
-0.00234888 0 0.0205 -502873
-0.0017977 0 0.0205 -530525
-0.00126472 0 0.0205 -553932
-0.0007527 0 0.0205 -566954
-0.00025 0 0.0205 -572757
0.00020726 0.000139798 0.0205 -395356
0.00062196 0.000419517 0.0205 -475192
0.00103721 0.000699604 0.0205 -578428
0.00145336 0.000980299 0.0205 -622416
0.00187079 0.00126186 0.0205 -659427
0.00228985 0.00154452 0.0205 -685721
0.00271091 0.00182854 0.0205 -716345
0.00313435 0.00211415 0.0205 -742510
0.00356054 0.00240162 0.0205 -769085
0.00398984 0.00269118 0.0205 -795564
0.00442264 0.0029831 0.0205 -822495
0.00485931 0.00327765 0.0205 -849266
0.00530023 0.00357505 0.0205 -875348
0.00574579 0.00387559 0.0205 -900052
0.00619639 0.00417951 0.0205 -923166
0.00665241 0.0044871 0.0205 -942940
0.00711424 0.00479861 0.0205 -958738
0.00758231 0.00511434 0.0205 -964463
0.00805703 0.00543453 0.0205 -962342
0.00853879 0.00575948 0.0205 -948930
0.00902802 0.00608948 0.0205 -925002
0.00952516 0.0064248 0.0205 -890026
0.0100306 0.00676576 0.0205 -845691
0.0105449 0.00711263 0.0205 -788114
0.0110684 0.00746574 0.0205 -720341
0.0116016 0.00782537 0.0205 -652577
0.0121449 0.00819186 0.0205 -590673
0.0126989 0.00856552 0.0205 -535566
0.013264 0.00894669 0.0205 -498013
0.0138407 0.00933568 0.0205 -481046
0.0144295 0.00973285 0.0205 -507645
0.015031 0.0101386 0.0205 -549510
0.0156456 0.0105531 0.0205 -541565
0.016274 0.0109769 0.0205 -466765
0.0169165 0.0114103 0.0205 -471296
0.0175739 0.0118537 0.0205 -554584
0.0182466 0.0123075 0.0205 -1.03854e+06
0.0189354 0.0127721 0.0205 -1.83321e+06
0.0196407 0.0132478 0.0205 -2.84781e+06
0.0203631 0.0137352 0.0205 -3.97055e+06
0.0211035 0.0142345 0.0205 -4.64547e+06
0.0218623 0.0147463 0.0205 -4.57944e+06
0.0226403 0.0152711 0.0205 -3.22232e+06
0.023438 0.0158092 0.0205 -1.51551e+06
0.0242564 0.0163611 0.0205 -909588
0.0250958 0.0169274 0.0205 -1.18499e+06
0.0259573 0.0175084 0.0205 -1.70116e+06
0.0268416 0.0181049 0.0205 -2.12163e+06
0.0277493 0.0187172 0.0205 -2.49957e+06
0.0286813 0.0193458 0.0205 -2.74497e+06
0.0296385 0.0199914 0.0205 -2.83351e+06
0.0306216 0.0206545 0.0205 -2.48324e+06
0.0316314 0.0213357 0.0205 -1.94614e+06
0.032669 0.0220355 0.0205 -1.50705e+06
0.0337352 0.0227547 0.0205 -1.22393e+06
0.034831 0.0234938 0.0205 -1.21958e+06
0.0359572 0.0242533 0.0205 -1.46422e+06
0.0371148 0.0250343 0.0205 -1.727e+06
0.038305 0.0258371 0.0205 -1.93412e+06
0.0395287 0.0266625 0.0205 -2.07387e+06
0.040787 0.0275112 0.0205 -2.0286e+06
0.0420811 0.0283841 0.0205 -1.90785e+06
0.043412 0.0292818 0.0205 -1.79043e+06
0.0447809 0.0302051 0.0205 -1.74876e+06
0.046189 0.0311548 0.0205 -1.74909e+06
0.0476375 0.0321318 0.0205 -1.77567e+06
0.0491277 0.0331371 0.0205 -1.77962e+06
0.0506609 0.0341713 0.0205 -1.75799e+06
0.0522386 0.0352353 0.0205 -1.72363e+06
0.0538619 0.0363303 0.0205 -1.70249e+06
0.0555324 0.0374571 0.0205 -1.68754e+06
0.0572515 0.0386166 0.0205 -1.70948e+06
0.0590207 0.03981 0.0205 -1.75914e+06
0.0608417 0.0410383 0.0205 -1.80908e+06
0.0627159 0.0423024 0.0205 -1.80605e+06
0.064645 0.0436036 0.0205 -1.81879e+06
0.0666306 0.044943 0.0205 -1.80862e+06
0.0686746 0.0463217 0.0205 -1.79433e+06
0.0707788 0.0477409 0.0205 -1.77962e+06
0.0729449 0.0492019 0.0205 -1.7486e+06
0.0751749 0.0507061 0.0205 -1.74997e+06
0.0774706 0.0522546 0.0205 -1.7346e+06
0.0798342 0.0538489 0.0205 -1.70211e+06
0.0822678 0.0554903 0.0205 -1.70165e+06
0.0847732 0.0571803 0.0205 -1.68249e+06
0.087353 0.0589204 0.0205 -1.66148e+06
0.0900092 0.060712 0.0205 -1.69286e+06
0.0927443 0.0625568 0.0205 -1.7128e+06
0.0955605 0.0644564 0.0205 -1.69794e+06
0.0984604 0.0664124 0.0205 -1.72184e+06
0.101446 0.0684266 0.0205 -1.90018e+06
0.104521 0.0705006 0.0205 -1.74394e+06
0.107688 0.0726364 0.0205 -1.76314e+06
0.110949 0.0748358 0.0205 -1.83523e+06
0.114306 0.0771006 0.0205 -1.80493e+06
0.117764 0.079433 0.0205 -1.91646e+06
0.121326 0.081835 0.0205 -1.97107e+06
0.124992 0.0843085 0.0205 -1.93203e+06
0.128769 0.0868559 0.0205 -1.72971e+06
