# wallHeatFlux  FACE_DATA 398
# x  y  z  wallHeatFlux
-0.7975 0 0.025 -653671
-0.79239 0 0.025 -120087
-0.787056 0 0.025 -71260.3
-0.781492 0 0.025 -63835.2
-0.775691 0 0.025 -65226.2
-0.769649 0 0.025 -65878.2
-0.763362 0 0.025 -66303.7
-0.756822 0 0.025 -66149.1
-0.750025 0 0.025 -65600.6
-0.742968 0 0.025 -64781.2
-0.735648 0 0.025 -63821.9
-0.72806 0 0.025 -62835
-0.720203 0 0.025 -61891.3
-0.712076 0 0.025 -60991.1
-0.703677 0 0.025 -60169.7
-0.695006 0 0.025 -59379.5
-0.686065 0 0.025 -58641.9
-0.676855 0 0.025 -57999.7
-0.667379 0 0.025 -57265.5
-0.65764 0 0.025 -56573.7
-0.647644 0 0.025 -56023
-0.637397 0 0.025 -55444.2
-0.626906 0 0.025 -54839.4
-0.616179 0 0.025 -54358.1
-0.605224 0 0.025 -53829
-0.594054 0 0.025 -53351.3
-0.582678 0 0.025 -52832.4
-0.57111 0 0.025 -52359.7
-0.559364 0 0.025 -51923.7
-0.547454 0 0.025 -51575.8
-0.535396 0 0.025 -51151
-0.523205 0 0.025 -50716.4
-0.510901 0 0.025 -50319.7
-0.4985 0 0.025 -49966.7
-0.486021 0 0.025 -49692.9
-0.473483 0 0.025 -49395.4
-0.460905 0 0.025 -49052
-0.448308 0 0.025 -48712.9
-0.435709 0 0.025 -48398.9
-0.42313 0 0.025 -48103.2
-0.41059 0 0.025 -47854.9
-0.39811 0 0.025 -47664.1
-0.385706 0 0.025 -47444.3
-0.373398 0 0.025 -47197.7
-0.361205 0 0.025 -46939.3
-0.349141 0 0.025 -46684.1
-0.337226 0 0.025 -46471.8
-0.325475 0 0.025 -46269.7
-0.313901 0 0.025 -46094.2
-0.30252 0 0.025 -45934
-0.291343 0 0.025 -45785.8
-0.280382 0 0.025 -45642.9
-0.269646 0 0.025 -45504.4
-0.259148 0 0.025 -45361.1
-0.248893 0 0.025 -45224.9
-0.23889 0 0.025 -45083.9
-0.229143 0 0.025 -44937
-0.219659 0 0.025 -44781.1
-0.210441 0 0.025 -44614.4
-0.201491 0 0.025 -44450.9
-0.192812 0 0.025 -44301.2
-0.184405 0 0.025 -44161.5
-0.176269 0 0.025 -44057.4
-0.168404 0 0.025 -43976.4
-0.160808 0 0.025 -43922.4
-0.15348 0 0.025 -43892.7
-0.146415 0 0.025 -43885.3
-0.13961 0 0.025 -43865.8
-0.133063 0 0.025 -43842.9
-0.126767 0 0.025 -43810.2
-0.120718 0 0.025 -43767.4
-0.11491 0 0.025 -43714.6
-0.109339 0 0.025 -43651.8
-0.103997 0 0.025 -43582.8
-0.0988805 0 0.025 -43507.3
-0.0939808 0 0.025 -43423.7
-0.0892928 0 0.025 -43341.6
-0.0848096 0 0.025 -43259.6
-0.0805248 0 0.025 -43183.3
-0.0764316 0 0.025 -43112.7
-0.0725237 0 0.025 -43047.5
-0.0687943 0 0.025 -42993.7
-0.065237 0 0.025 -42939.3
-0.0618454 0 0.025 -42891.3
-0.058613 0 0.025 -42853.2
-0.0555337 0 0.025 -42816
-0.0526013 0 0.025 -42783.6
-0.0498099 0 0.025 -42751.5
-0.0471536 0 0.025 -42730.1
-0.0446266 0 0.025 -42708.8
-0.0422235 0 0.025 -42692.8
-0.039939 0 0.025 -42676.8
-0.0377676 0 0.025 -42660.4
-0.0357044 0 0.025 -42650.5
-0.0337445 0 0.025 -42639.5
-0.0318832 0 0.025 -42602
-0.0301159 0 0.025 -41449.4
-0.0284383 0 0.025 -34570.6
-0.0268461 0 0.025 -32467.6
-0.0253353 0 0.025 -49906.2
-0.023902 0 0.025 -62200.3
-0.0225426 0 0.025 -69910.3
-0.0212532 0 0.025 -75538.1
-0.0200306 0 0.025 -80547.6
-0.0188715 0 0.025 -84979.9
-0.0177728 0 0.025 -88742.7
-0.0167313 0 0.025 -92093.5
-0.0157444 0 0.025 -95182.3
-0.0148092 0 0.025 -98055.8
-0.0139232 0 0.025 -100764
-0.0130838 0 0.025 -103235
-0.0122887 0 0.025 -105436
-0.0115356 0 0.025 -107364
-0.0108223 0 0.025 -109048
-0.0101469 0 0.025 -110507
-0.00950727 0 0.025 -111791
-0.00890168 0 0.025 -112932
-0.00832835 0 0.025 -113993
-0.00778557 0 0.025 -115041
-0.00727176 0 0.025 -116124
-0.0067854 0 0.025 -117294
-0.00632507 0 0.025 -118566
-0.00588937 0 0.025 -119964
-0.00547703 0 0.025 -121486
-0.0050868 0 0.025 -123137
-0.00471753 0 0.025 -124908
-0.0043681 0 0.025 -126809
-0.00403746 0 0.025 -128866
-0.00372461 0 0.025 -131031
-0.0034286 0 0.025 -133328
-0.00314855 0 0.025 -135787
-0.0028836 0 0.025 -138465
-0.00263294 0 0.025 -141263
-0.00239581 0 0.025 -143927
-0.0021715 0 0.025 -146741
-0.00195929 0 0.025 -149690
-0.00175856 0 0.025 -152734
-0.00156869 0 0.025 -155882
-0.00138908 0 0.025 -159140
-0.0012192 0 0.025 -162478
-0.00105853 0 0.025 -165900
-0.000906546 0 0.025 -169372
-0.000762803 0 0.025 -172752
-0.000626848 0 0.025 -175774
-0.000498265 0 0.025 -177578
-0.000376656 0 0.025 -176272
-0.000261642 0 0.025 -168135
-0.00015287 0 0.025 -145972
-5e-05 0 0.025 -94669
4.14519e-05 2.79596e-05 0.025 -67230.8
0.000125371 8.45641e-05 0.025 -80883.3
0.000211347 0.000142556 0.025 -96142.5
0.000299429 0.000201968 0.025 -107184
0.000389669 0.000262835 0.025 -116455
0.000482118 0.000325193 0.025 -125300
0.000576831 0.000389077 0.025 -133653
0.000673861 0.000454524 0.025 -141251
0.000773265 0.000521574 0.025 -147993
0.0008751 0.000590262 0.025 -153943
0.000979426 0.000660632 0.025 -159212
0.0010863 0.000732721 0.025 -163906
0.00119579 0.000806572 0.025 -168254
0.00130795 0.000882227 0.025 -172280
0.00142285 0.00095973 0.025 -176050
0.00154056 0.00103912 0.025 -179686
0.00166115 0.00112046 0.025 -183204
0.00178467 0.00120378 0.025 -186686
0.00191121 0.00128913 0.025 -190164
0.00204083 0.00137656 0.025 -193594
0.00217362 0.00146612 0.025 -197083
0.00230964 0.00155787 0.025 -200634
0.00244897 0.00165185 0.025 -204204
0.00259169 0.00174812 0.025 -207865
0.00273789 0.00184673 0.025 -211636
0.00288765 0.00194774 0.025 -215541
0.00304105 0.00205122 0.025 -219552
0.00319818 0.00215719 0.025 -223693
0.00335912 0.00226575 0.025 -228036
0.00352397 0.00237695 0.025 -232519
0.00369283 0.00249085 0.025 -237216
0.00386579 0.00260751 0.025 -242102
0.00404294 0.00272699 0.025 -247225
0.00422438 0.00284938 0.025 -252617
0.00441022 0.00297474 0.025 -258287
0.00460056 0.00310312 0.025 -264243
0.00479552 0.00323462 0.025 -270480
0.00499519 0.0033693 0.025 -277093
0.00519968 0.00350723 0.025 -284011
0.00540911 0.00364849 0.025 -291387
0.00562361 0.00379318 0.025 -299188
0.00584329 0.00394134 0.025 -307429
0.00606826 0.00409309 0.025 -316265
0.00629865 0.00424849 0.025 -325563
0.0065346 0.00440764 0.025 -335429
0.00677623 0.00457063 0.025 -345983
0.00702368 0.00473753 0.025 -357184
0.00727707 0.00490844 0.025 -369122
0.00753655 0.00508347 0.025 -381927
0.00780227 0.00526269 0.025 -395908
0.00807436 0.00544622 0.025 -410781
0.00835298 0.00563415 0.025 -426363
0.00863826 0.00582659 0.025 -443441
0.00893038 0.00602362 0.025 -462492
0.00922949 0.00622537 0.025 -482323
0.00953574 0.00643195 0.025 -503825
0.00984929 0.00664345 0.025 -527775
0.0101703 0.00686 0.025 -555209
0.0104991 0.00708171 0.025 -584775
0.0108356 0.00730871 0.025 -619314
0.0111801 0.0075411 0.025 -657355
0.0115329 0.00777902 0.025 -696523
0.011894 0.00802259 0.025 -743030
0.0122637 0.00827194 0.025 -787632
0.0126421 0.00852719 0.025 -833169
0.0130295 0.0087885 0.025 -876489
0.013426 0.00905597 0.025 -920692
0.013832 0.00932978 0.025 -964506
0.0142475 0.00961003 0.025 -1.00707e+06
0.0146727 0.0098969 0.025 -1.04647e+06
0.0151081 0.0101905 0.025 -1.09083e+06
0.0155536 0.010491 0.025 -1.13688e+06
0.0160097 0.0107986 0.025 -1.18359e+06
0.0164764 0.0111134 0.025 -1.23421e+06
0.016954 0.0114356 0.025 -1.28766e+06
0.0174427 0.0117653 0.025 -1.34094e+06
0.0179429 0.0121026 0.025 -1.39722e+06
0.0184548 0.0124479 0.025 -1.46369e+06
0.0189786 0.0128013 0.025 -1.50924e+06
0.0195146 0.0131628 0.025 -1.55844e+06
0.020063 0.0135327 0.025 -1.61664e+06
0.0206242 0.0139112 0.025 -1.6527e+06
0.0211983 0.0142984 0.025 -1.67843e+06
0.0217857 0.0146947 0.025 -1.71056e+06
0.0223867 0.0151 0.025 -1.73825e+06
0.0230015 0.0155147 0.025 -1.76156e+06
0.0236304 0.0159389 0.025 -1.79167e+06
0.0242738 0.0163729 0.025 -1.79354e+06
0.0249318 0.0168167 0.025 -1.80828e+06
0.025605 0.0172708 0.025 -1.81525e+06
0.0262935 0.0177352 0.025 -1.78761e+06
0.0269977 0.0182102 0.025 -1.75596e+06
0.0277178 0.0186959 0.025 -1.71485e+06
0.0284544 0.0191927 0.025 -1.72686e+06
0.0292075 0.0197008 0.025 -1.67201e+06
0.0299777 0.0202203 0.025 -1.62297e+06
0.0307653 0.0207514 0.025 -1.59195e+06
0.0315704 0.0212945 0.025 -1.56232e+06
0.0323937 0.0218499 0.025 -1.53702e+06
0.0332354 0.0224176 0.025 -1.51071e+06
0.0340959 0.022998 0.025 -1.48743e+06
0.0349755 0.0235913 0.025 -1.45541e+06
0.0358747 0.0241978 0.025 -1.45383e+06
0.0367938 0.0248178 0.025 -1.42017e+06
0.0377331 0.0254513 0.025 -1.39713e+06
0.0386932 0.0260989 0.025 -1.37898e+06
0.0396743 0.0267606 0.025 -1.36015e+06
0.0406769 0.0274369 0.025 -1.34934e+06
0.0417013 0.0281279 0.025 -1.33394e+06
0.042748 0.0288339 0.025 -1.3354e+06
0.0438175 0.0295552 0.025 -1.32273e+06
0.04491 0.0302922 0.025 -1.31016e+06
0.0460262 0.031045 0.025 -1.312e+06
0.0471662 0.031814 0.025 -1.31968e+06
0.0483306 0.0325995 0.025 -1.31056e+06
0.0495199 0.0334016 0.025 -1.31153e+06
0.0507344 0.0342208 0.025 -1.30568e+06
0.0519746 0.0350573 0.025 -1.3008e+06
0.0532409 0.0359114 0.025 -1.30242e+06
0.0545339 0.0367835 0.025 -1.2911e+06
0.0558538 0.0376739 0.025 -1.29131e+06
0.0572012 0.0385827 0.025 -1.29098e+06
0.0585766 0.0395104 0.025 -1.29e+06
0.0599804 0.0404573 0.025 -1.29784e+06
0.061413 0.0414236 0.025 -1.27906e+06
0.0628748 0.0424096 0.025 -1.30243e+06
0.0643665 0.0434157 0.025 -1.30465e+06
0.0658883 0.0444422 0.025 -1.27787e+06
0.0674408 0.0454894 0.025 -1.26865e+06
0.0690245 0.0465576 0.025 -1.26786e+06
0.0706398 0.0476471 0.025 -1.2635e+06
0.0722871 0.0487582 0.025 -1.26121e+06
0.0739669 0.0498912 0.025 -1.26334e+06
0.0756797 0.0510466 0.025 -1.2726e+06
0.0774258 0.0522244 0.025 -1.28321e+06
0.0792059 0.053425 0.025 -1.27548e+06
0.0810203 0.0546489 0.025 -1.29422e+06
0.0828694 0.0558961 0.025 -1.26403e+06
0.0847537 0.0571671 0.025 -1.30545e+06
0.0866737 0.0584622 0.025 -1.26572e+06
0.0886298 0.0597816 0.025 -1.26541e+06
0.0906224 0.0611256 0.025 -1.27623e+06
0.0926518 0.0624944 0.025 -1.24151e+06
0.0947185 0.0638884 0.025 -1.2828e+06
0.096823 0.065308 0.025 -1.24198e+06
0.0989659 0.0667532 0.025 -1.32932e+06
0.101147 0.0682245 0.025 -1.67482e+06
0.103367 0.0697219 0.025 -1.585e+06
0.105626 0.0712458 0.025 -1.19757e+06
0.107926 0.0727965 0.025 -1.19316e+06
0.110265 0.074374 0.025 -1.23001e+06
0.112644 0.0759789 0.025 -1.82448e+06
0.115063 0.0776111 0.025 -1.23211e+06
0.117524 0.0792709 0.025 -1.69762e+06
0.120026 0.0809585 0.025 -1.86561e+06
0.122569 0.0826741 0.025 -1.65786e+06
0.125155 0.0844179 0.025 -1.48175e+06
0.127782 0.0861901 0.025 -1.28657e+06
0.130451 0.0879908 0.025 -1.24172e+06
0.133163 0.08982 0.025 -1.21992e+06
0.135918 0.0916781 0.025 -1.18974e+06
0.138716 0.0935651 0.025 -1.19089e+06
0.141556 0.095481 0.025 -1.20029e+06
0.14444 0.097426 0.025 -1.57672e+06
0.147367 0.0994004 0.025 -2.3344e+06
0.150337 0.101404 0.025 -1.65573e+06
0.153351 0.103437 0.025 -1.60584e+06
0.156408 0.105498 0.025 -2.2449e+06
0.159508 0.107589 0.025 -1.01995e+06
0.162651 0.10971 0.025 -1.50379e+06
0.165838 0.111859 0.025 -3.62364e+06
0.169069 0.114039 0.025 -1.60348e+06
0.172343 0.116247 0.025 -1.96618e+06
0.175659 0.118483 0.025 -1.87066e+06
0.179018 0.120749 0.025 -1.86563e+06
0.182421 0.123045 0.025 -1.93446e+06
0.185866 0.125368 0.025 -1.69611e+06
0.189353 0.12772 0.025 -1.7308e+06
0.192882 0.1301 0.025 -1.83483e+06
0.196453 0.132509 0.025 -1.73394e+06
0.200065 0.134946 0.025 -2.15875e+06
0.203718 0.13741 0.025 -1.92668e+06
0.207412 0.139901 0.025 -921309
0.211146 0.14242 0.025 -983165
0.214919 0.144965 0.025 -1.6101e+06
0.218732 0.147537 0.025 -984974
0.222583 0.150134 0.025 -1.93812e+06
0.226472 0.152757 0.025 -974040
0.230399 0.155406 0.025 -1.81896e+06
0.234362 0.15808 0.025 -1.71371e+06
0.238362 0.160777 0.025 -2.35121e+06
0.242396 0.163498 0.025 -1.93736e+06
0.246466 0.166244 0.025 -2.0997e+06
0.250569 0.169012 0.025 -926443
0.254706 0.171801 0.025 -1.52409e+06
0.258874 0.174613 0.025 -1.528e+06
0.263074 0.177446 0.025 -1.94788e+06
0.267304 0.180299 0.025 -1.57277e+06
0.271564 0.183172 0.025 -944818
0.275852 0.186064 0.025 -1.61604e+06
0.280168 0.188975 0.025 -920337
0.28451 0.191904 0.025 -1.64133e+06
0.288876 0.19485 0.025 -2.27267e+06
0.293268 0.197812 0.025 -1.5983e+06
0.297683 0.20079 0.025 -1.91941e+06
0.302119 0.203782 0.025 -1.78023e+06
0.306577 0.206788 0.025 -1.35744e+06
0.311054 0.209808 0.025 -1.56403e+06
0.315549 0.212841 0.025 -1.16206e+06
0.320063 0.215885 0.025 -2.01856e+06
0.324591 0.218939 0.025 -1.41714e+06
0.329134 0.222003 0.025 -1.4044e+06
0.333691 0.225077 0.025 -2.21538e+06
0.33826 0.228159 0.025 -1.77245e+06
0.342839 0.231248 0.025 -1.8199e+06
0.347428 0.234343 0.025 -870364
0.352025 0.237444 0.025 -1.92438e+06
0.356628 0.240548 0.025 -1.40491e+06
0.361237 0.243658 0.025 -1.15053e+06
0.36585 0.246769 0.025 -2.57178e+06
0.370465 0.249882 0.025 -1.01519e+06
0.375082 0.252996 0.025 -1.43865e+06
0.379698 0.25611 0.025 -2.207e+06
0.384313 0.259223 0.025 -1.37673e+06
0.388926 0.262333 0.025 -1.69615e+06
0.393534 0.265442 0.025 -1.39906e+06
0.398136 0.268546 0.025 -876496
0.40273 0.271645 0.025 -1.62122e+06
0.407317 0.274739 0.025 -1.6714e+06
0.411894 0.277826 0.025 -2.10768e+06
0.41646 0.280906 0.025 -831120
0.421014 0.283977 0.025 -1.58024e+06
0.425554 0.28704 0.025 -1.89479e+06
0.430079 0.290092 0.025 -1.47534e+06
0.434588 0.293133 0.025 -1.81615e+06
0.439079 0.296162 0.025 -1.27172e+06
0.443551 0.299179 0.025 -1.65185e+06
0.448004 0.302183 0.025 -1.68373e+06
0.452437 0.305172 0.025 -1.64291e+06
0.456846 0.308146 0.025 -1.52713e+06
0.461232 0.311105 0.025 -1.55252e+06
0.465593 0.314047 0.025 -1.43883e+06
0.469929 0.316971 0.025 -1.94566e+06
0.474238 0.319878 0.025 -988418
0.47852 0.322766 0.025 -1.10756e+06
0.482773 0.325635 0.025 -878996
0.486996 0.328483 0.025 -1.32062e+06
0.491189 0.331311 0.025 -2.01269e+06
0.49535 0.334118 0.025 -1.2784e+06
