# wallShearStress  FACE_DATA 80
# x  y  z  wallShearStress_x  wallShearStress_y  wallShearStress_z
-0.275972 0 0.05 0 0 0
-0.22368 0 0.05 0 0 0
-0.181118 0 0.05 0 0 0
-0.146477 0 0.05 0 0 0
-0.118282 0 0.05 0 0 0
-0.095333 0 0.05 0 0 0
-0.0766546 0 0.05 0 0 0
-0.061452 0 0.05 0 0 0
-0.0490783 0 0.05 0 0 0
-0.0390072 0 0.05 0 0 0
-0.0308101 0 0.05 0 0 0
-0.0241383 0 0.05 0 0 0
-0.0187081 0 0.05 0 0 0
-0.0142883 0 0.05 0 0 0
-0.0106909 0 0.05 0 0 0
-0.00776298 0 0.05 0 0 0
-0.00537988 0 0.05 0 0 0
-0.00344023 0 0.05 0 0 0
-0.00186151 0 0.05 0 0 0
-0.000576564 0 0.05 0 0 0
0.000597823 0 0.05 -158.281 0 0
0.00183445 0 0.05 -158.281 0 0
0.00315586 0 0.05 -158.281 0 0
0.00456785 0 0.05 -158.281 0 0
0.00607663 0 0.05 -158.281 0 0
0.00768885 0 0.05 -158.281 0 0
0.00941159 0 0.05 -158.281 0 0
0.0112524 0 0.05 -158.281 0 0
0.0132195 0 0.05 -158.281 0 0
0.0153213 0 0.05 -158.281 0 0
0.0175673 0 0.05 -158.281 0 0
0.0199673 0 0.05 -158.281 0 0
0.0225317 0 0.05 -158.281 0 0
0.025272 0 0.05 -158.281 0 0
0.0282001 0 0.05 -158.281 0 0
0.031329 0 0.05 -158.281 0 0
0.0346723 0 0.05 -158.281 0 0
0.0382448 0 0.05 -158.281 0 0
0.0420623 0 0.05 -158.281 0 0
0.0461414 0 0.05 -158.281 0 0
0.0505002 0 0.05 -158.281 0 0
0.0551578 0 0.05 -158.281 0 0
0.0601347 0 0.05 -158.281 0 0
0.0654528 0 0.05 -158.281 0 0
0.0711354 0 0.05 -158.281 0 0
0.0772076 0 0.05 -158.281 0 0
0.0836961 0 0.05 -158.281 0 0
0.0906293 0 0.05 -158.281 0 0
0.0980379 0 0.05 -158.281 0 0
0.105954 0 0.05 -158.281 0 0
0.114413 0 0.05 -158.281 0 0
0.123453 0 0.05 -158.281 0 0
0.133111 0 0.05 -158.281 0 0
0.143432 0 0.05 -158.281 0 0
0.15446 0 0.05 -158.281 0 0
0.166245 0 0.05 -158.281 0 0
0.178837 0 0.05 -158.281 0 0
0.192293 0 0.05 -158.281 0 0
0.20667 0 0.05 -158.281 0 0
0.222034 0 0.05 -158.281 0 0
0.238451 0 0.05 -158.281 0 0
0.255993 0 0.05 -158.281 0 0
0.274738 0 0.05 -158.281 0 0
0.294767 0 0.05 -158.281 0 0
0.31617 0 0.05 -158.281 0 0
0.33904 0 0.05 -158.281 0 0
0.363478 0 0.05 -158.281 0 0
0.389591 0 0.05 -158.281 0 0
0.417495 0 0.05 -158.281 0 0
0.447311 0 0.05 -158.281 0 0
0.479171 0 0.05 -158.281 0 0
0.513216 0 0.05 -158.281 0 0
0.549594 0 0.05 -158.281 0 0
0.588466 0 0.05 -158.281 0 0
0.630002 0 0.05 -158.281 0 0
0.674387 0 0.05 -158.281 0 0
0.721814 0 0.05 -158.281 0 0
0.772492 0 0.05 -158.281 0 0
0.826644 0 0.05 -158.281 0 0
0.884509 0 0.05 -158.281 0 0
