# p  FACE_DATA 203
# x  y  z  p
-0.873265 0 0.0205 3482.08
-0.846493 0 0.0205 2971.64
-0.820677 0 0.0205 2838.41
-0.795786 0 0.0205 2785.73
-0.771783 0 0.0205 2770.95
-0.74637 0 0.0205 2768.95
-0.719597 0 0.0205 2765.73
-0.693782 0 0.0205 2765.69
-0.66889 0 0.0205 2765.12
-0.644887 0 0.0205 2762.13
-0.621743 0 0.0205 2760.14
-0.599426 0 0.0205 2760.46
-0.577905 0 0.0205 2760.51
-0.557154 0 0.0205 2758.29
-0.537145 0 0.0205 2755.56
-0.517849 0 0.0205 2753.86
-0.499243 0 0.0205 2753.62
-0.481301 0 0.0205 2754.05
-0.463999 0 0.0205 2753.21
-0.447314 0 0.0205 2751.36
-0.431225 0 0.0205 2749.29
-0.41571 0 0.0205 2747.8
-0.400747 0 0.0205 2747.2
-0.386317 0 0.0205 2747.79
-0.372401 0 0.0205 2748.84
-0.358981 0 0.0205 2749.15
-0.346039 0 0.0205 2747.82
-0.333556 0 0.0205 2745.72
-0.321518 0 0.0205 2743.44
-0.309908 0 0.0205 2741.24
-0.298709 0 0.0205 2739.43
-0.287908 0 0.0205 2738.8
-0.27749 0 0.0205 2738.75
-0.267441 0 0.0205 2739.4
-0.257748 0 0.0205 2740.76
-0.248397 0 0.0205 2742.47
-0.239378 0 0.0205 2744.1
-0.230677 0 0.0205 2745.17
-0.222282 0 0.0205 2745.76
-0.214183 0 0.0205 2745.26
-0.20637 0 0.0205 2744.29
-0.19883 0 0.0205 2742.91
-0.191555 0 0.0205 2741.11
-0.184536 0 0.0205 2739.03
-0.177762 0 0.0205 2736.88
-0.171224 0 0.0205 2734.85
-0.164914 0 0.0205 2733.11
-0.158824 0 0.0205 2731.73
-0.152944 0 0.0205 2730.75
-0.147268 0 0.0205 2730.09
-0.141788 0 0.0205 2729.67
-0.136496 0 0.0205 2729.64
-0.131387 0 0.0205 2729.77
-0.126452 0 0.0205 2730.06
-0.121685 0 0.0205 2730.54
-0.117081 0 0.0205 2731.19
-0.112632 0 0.0205 2731.98
-0.108332 0 0.0205 2732.86
-0.104177 0 0.0205 2733.78
-0.100161 0 0.0205 2734.69
-0.0962773 0 0.0205 2735.56
-0.0925221 0 0.0205 2736.38
-0.08889 0 0.0205 2737.13
-0.0853762 0 0.0205 2737.82
-0.0819759 0 0.0205 2738.44
-0.0786847 0 0.0205 2738.98
-0.0754981 0 0.0205 2739.47
-0.0724121 0 0.0205 2739.9
-0.0694223 0 0.0205 2740.28
-0.066525 0 0.0205 2740.61
-0.0637161 0 0.0205 2740.89
-0.060992 0 0.0205 2741.11
-0.0583491 0 0.0205 2741.26
-0.0557837 0 0.0205 2741.41
-0.0532926 0 0.0205 2741.48
-0.0508723 0 0.0205 2741.49
-0.0485197 0 0.0205 2741.46
-0.0462317 0 0.0205 2741.39
-0.0440053 0 0.0205 2741.26
-0.0418373 0 0.0205 2741.09
-0.039725 0 0.0205 2740.89
-0.0376655 0 0.0205 2740.64
-0.0356562 0 0.0205 2740.43
-0.0336943 0 0.0205 2740.06
-0.0317773 0 0.0205 2747.6
-0.0299025 0 0.0205 2881.58
-0.0280674 0 0.0205 3761.8
-0.0262697 0 0.0205 5161.89
-0.024507 0 0.0205 6240.26
-0.0227768 0 0.0205 6975.8
-0.021077 0 0.0205 7548.32
-0.0194052 0 0.0205 8006.61
-0.0177593 0 0.0205 8412.32
-0.016137 0 0.0205 8764.73
-0.014536 0 0.0205 9084.77
-0.0129545 0 0.0205 9382.41
-0.0113902 0 0.0205 9658.78
-0.00984104 0 0.0205 9908.15
-0.00830498 0 0.0205 10131.4
-0.00677997 0 0.0205 10326.1
-0.00526398 0 0.0205 10494.5
-0.00375499 0 0.0205 10632
-0.002251 0 0.0205 10823
-0.00075 0 0.0205 11703.1
0.000689475 0.000398068 0.0205 11301.9
0.00206843 0.0011942 0.0205 11876.5
0.00344737 0.00199034 0.0205 12797.9
0.00482631 0.00278648 0.0205 13932.3
0.00620527 0.00358261 0.0205 15383.8
0.00758422 0.00437875 0.0205 17156.4
0.00896317 0.00517489 0.0205 19275.2
0.0103421 0.00597102 0.0205 21756.4
0.0117211 0.00676715 0.0205 24641.1
0.0131 0.00756329 0.0205 28013
0.0144789 0.00835943 0.0205 31890.2
0.0158579 0.00915557 0.0205 36270.6
0.0172368 0.00995171 0.0205 41417.7
0.0186158 0.0107478 0.0205 47408.7
0.0199947 0.0115439 0.0205 54360.5
0.0213737 0.0123401 0.0205 62272.1
0.0227526 0.0131362 0.0205 71177.6
0.0241316 0.0139323 0.0205 80811.9
0.0255106 0.0147285 0.0205 90595.1
0.0268895 0.0155246 0.0205 99902.3
0.0282685 0.0163208 0.0205 108460
0.0296474 0.0171169 0.0205 115799
0.0310264 0.017913 0.0205 121260
0.0324053 0.0187092 0.0205 124357
0.0337843 0.0195054 0.0205 126186
0.0351632 0.0203015 0.0205 120566
0.0365421 0.0210976 0.0205 116195
0.037921 0.0218938 0.0205 113686
0.0393 0.0226898 0.0205 112533
0.0406789 0.023486 0.0205 112543
0.0420579 0.0242821 0.0205 110696
0.0434368 0.0250783 0.0205 108250
0.0448158 0.0258745 0.0205 105487
0.0461948 0.0266706 0.0205 103173
0.0475737 0.0274667 0.0205 102116
0.0489527 0.0282628 0.0205 101399
0.0503316 0.029059 0.0205 100750
0.0517106 0.0298551 0.0205 100133
0.0530895 0.0306512 0.0205 99719.9
0.0544684 0.0314473 0.0205 99691.8
0.0558474 0.0322435 0.0205 100009
0.0572264 0.0330397 0.0205 100374
0.0586053 0.0338357 0.0205 100518
0.0599842 0.0346319 0.0205 100581
0.0613632 0.0354281 0.0205 100507
0.0627422 0.0362242 0.0205 100527
0.0641211 0.0370204 0.0205 100599
0.0655001 0.0378164 0.0205 100679
0.066879 0.0386126 0.0205 100730
0.0682579 0.0394088 0.0205 100767
0.0696369 0.0402049 0.0205 100802
0.0710158 0.041001 0.0205 100831
0.0723947 0.0417971 0.0205 100931
0.0737737 0.0425932 0.0205 101051
0.0751527 0.0433894 0.0205 101293
0.0765316 0.0441856 0.0205 101571
0.0779106 0.0449817 0.0205 101918
0.0792895 0.0457778 0.0205 102191
0.0806685 0.0465739 0.0205 102357
0.0820474 0.0473701 0.0205 102416
0.0834263 0.0481662 0.0205 102189
0.0848053 0.0489624 0.0205 101843
0.0861843 0.0497585 0.0205 101533
0.0875632 0.0505546 0.0205 101249
0.0889421 0.0513508 0.0205 101092
0.0903211 0.0521469 0.0205 101114
0.0917 0.0529431 0.0205 101362
0.093079 0.0537392 0.0205 101793
0.094458 0.0545353 0.0205 102327
0.0958369 0.0553315 0.0205 102643
0.0972159 0.0561276 0.0205 102896
0.0985948 0.0569238 0.0205 102829
0.0999737 0.0577198 0.0205 102574
0.101352 0.058516 0.0205 102206
0.102732 0.0593121 0.0205 101859
0.10411 0.0601083 0.0205 101560
0.105489 0.0609044 0.0205 101359
0.106868 0.0617005 0.0205 101281
0.108248 0.0624967 0.0205 101300
0.109627 0.0632928 0.0205 101494
0.111006 0.064089 0.0205 101705
0.112385 0.0648851 0.0205 101943
0.113764 0.0656812 0.0205 102149
0.115143 0.0664774 0.0205 102295
0.116522 0.0672735 0.0205 102405
0.117901 0.0680697 0.0205 102443
0.119279 0.0688658 0.0205 102507
0.120658 0.0696619 0.0205 102323
0.122037 0.0704581 0.0205 102208
0.123415 0.0712542 0.0205 102050
0.124794 0.0720503 0.0205 101944
0.126173 0.0728465 0.0205 101829
0.127552 0.0736426 0.0205 101747
0.128931 0.0744387 0.0205 101778
0.13031 0.0752348 0.0205 101836
0.131689 0.076031 0.0205 101935
0.133069 0.0768271 0.0205 102049
0.134447 0.0776233 0.0205 102141
0.135827 0.0784194 0.0205 101977
