# wallHeatFlux  FACE_DATA 203
# x  y  z  wallHeatFlux
-0.873265 0 0.0205 -297614
-0.846493 0 0.0205 -77760.9
-0.820677 0 0.0205 -76327.7
-0.795786 0 0.0205 -75372.3
-0.771783 0 0.0205 -75106.9
-0.74637 0 0.0205 -74735.3
-0.719597 0 0.0205 -74151.5
-0.693782 0 0.0205 -73939.2
-0.66889 0 0.0205 -73514.5
-0.644887 0 0.0205 -72718.3
-0.621743 0 0.0205 -72081.4
-0.599426 0 0.0205 -71709.8
-0.577905 0 0.0205 -71391.4
-0.557154 0 0.0205 -70913.7
-0.537145 0 0.0205 -70329.8
-0.517849 0 0.0205 -69852.1
-0.499243 0 0.0205 -69586.7
-0.481301 0 0.0205 -69427.4
-0.463999 0 0.0205 -69162
-0.447314 0 0.0205 -68737.4
-0.431225 0 0.0205 -68312.8
-0.41571 0 0.0205 -67994.3
-0.400747 0 0.0205 -67782
-0.386317 0 0.0205 -67675.8
-0.372401 0 0.0205 -67675.8
-0.358981 0 0.0205 -67569.7
-0.346039 0 0.0205 -67357.4
-0.333556 0 0.0205 -67038.9
-0.321518 0 0.0205 -66614.3
-0.309908 0 0.0205 -66189.6
-0.298709 0 0.0205 -65871.1
-0.287908 0 0.0205 -65658.8
-0.27749 0 0.0205 -65552.7
-0.267441 0 0.0205 -65605.7
-0.257748 0 0.0205 -65711.9
-0.248397 0 0.0205 -65818.1
-0.239378 0 0.0205 -65977.3
-0.230677 0 0.0205 -66030.4
-0.222282 0 0.0205 -66083.5
-0.214183 0 0.0205 -65977.3
-0.20637 0 0.0205 -65765
-0.19883 0 0.0205 -65552.7
-0.191555 0 0.0205 -65287.3
-0.184536 0 0.0205 -64968.8
-0.177762 0 0.0205 -64650.3
-0.171224 0 0.0205 -64331.8
-0.164914 0 0.0205 -64013.4
-0.158824 0 0.0205 -63801.1
-0.152944 0 0.0205 -63588.7
-0.147268 0 0.0205 -63429.5
-0.141788 0 0.0205 -63323.3
-0.136496 0 0.0205 -63270.3
-0.131387 0 0.0205 -63217.2
-0.126452 0 0.0205 -63217.2
-0.121685 0 0.0205 -63217.2
-0.117081 0 0.0205 -63270.3
-0.112632 0 0.0205 -63376.4
-0.108332 0 0.0205 -63482.6
-0.104177 0 0.0205 -63588.7
-0.100161 0 0.0205 -63694.9
-0.0962773 0 0.0205 -63801.1
-0.0925221 0 0.0205 -63907.2
-0.08889 0 0.0205 -64013.4
-0.0853762 0 0.0205 -64066.5
-0.0819759 0 0.0205 -64172.6
-0.0786847 0 0.0205 -64278.8
-0.0754981 0 0.0205 -64331.8
-0.0724121 0 0.0205 -64384.9
-0.0694223 0 0.0205 -64438
-0.066525 0 0.0205 -64491.1
-0.0637161 0 0.0205 -64544.2
-0.060992 0 0.0205 -64597.2
-0.0583491 0 0.0205 -64597.2
-0.0557837 0 0.0205 -64650.3
-0.0532926 0 0.0205 -64650.3
-0.0508723 0 0.0205 -64650.3
-0.0485197 0 0.0205 -64650.3
-0.0462317 0 0.0205 -64650.3
-0.0440053 0 0.0205 -64650.3
-0.0418373 0 0.0205 -64597.2
-0.039725 0 0.0205 -64597.2
-0.0376655 0 0.0205 -64544.2
-0.0356562 0 0.0205 -64491.1
-0.0336943 0 0.0205 -64438
-0.0317773 0 0.0205 -63854.1
-0.0299025 0 0.0205 -57537.7
-0.0280674 0 0.0205 -41560.9
-0.0262697 0 0.0205 -41879.4
-0.024507 0 0.0205 -60297.8
-0.0227768 0 0.0205 -72452.9
-0.021077 0 0.0205 -81157.9
-0.0194052 0 0.0205 -87739.7
-0.0177593 0 0.0205 -93472.3
-0.016137 0 0.0205 -98196.3
-0.014536 0 0.0205 -102549
-0.0129545 0 0.0205 -105999
-0.0113902 0 0.0205 -108547
-0.00984104 0 0.0205 -110086
-0.00830498 0 0.0205 -111572
-0.00677997 0 0.0205 -113802
-0.00526398 0 0.0205 -117676
-0.00375499 0 0.0205 -125107
-0.002251 0 0.0205 -139120
-0.00075 0 0.0205 -154991
0.000689475 0.000398068 0.0205 -157087
0.00206843 0.0011942 0.0205 -198336
0.00344737 0.00199034 0.0205 -227695
0.00482631 0.00278648 0.0205 -260484
0.00620527 0.00358261 0.0205 -299772
0.00758422 0.00437875 0.0205 -346966
0.00896317 0.00517489 0.0205 -401574
0.0103421 0.00597102 0.0205 -463601
0.0117211 0.00676715 0.0205 -534702
0.0131 0.00756329 0.0205 -616577
0.0144789 0.00835943 0.0205 -708525
0.0158579 0.00915557 0.0205 -803693
0.0172368 0.00995171 0.0205 -917720
0.0186158 0.0107478 0.0205 -1.04394e+06
0.0199947 0.0115439 0.0205 -1.18499e+06
0.0213737 0.0123401 0.0205 -1.36973e+06
0.0227526 0.0131362 0.0205 -1.54881e+06
0.0241316 0.0139323 0.0205 -1.72327e+06
0.0255106 0.0147285 0.0205 -1.92047e+06
0.0268895 0.0155246 0.0205 -2.05184e+06
0.0282685 0.0163208 0.0205 -2.15375e+06
0.0296474 0.0171169 0.0205 -2.24386e+06
0.0310264 0.017913 0.0205 -2.25671e+06
0.0324053 0.0187092 0.0205 -2.25625e+06
0.0337843 0.0195054 0.0205 -2.2344e+06
0.0351632 0.0203015 0.0205 -2.09705e+06
0.0365421 0.0210976 0.0205 -1.97449e+06
0.037921 0.0218938 0.0205 -1.87977e+06
0.0393 0.0226898 0.0205 -1.80307e+06
0.0406789 0.023486 0.0205 -1.80395e+06
0.0420579 0.0242821 0.0205 -1.74208e+06
0.0434368 0.0250783 0.0205 -1.67947e+06
0.0448158 0.0258745 0.0205 -1.63078e+06
0.0461948 0.0266706 0.0205 -1.5686e+06
0.0475737 0.0274667 0.0205 -1.52995e+06
0.0489527 0.0282628 0.0205 -1.51264e+06
0.0503316 0.029059 0.0205 -1.47088e+06
0.0517106 0.0298551 0.0205 -1.44214e+06
0.0530895 0.0306512 0.0205 -1.42552e+06
0.0544684 0.0314473 0.0205 -1.40214e+06
0.0558474 0.0322435 0.0205 -1.42324e+06
0.0572264 0.0330397 0.0205 -1.41709e+06
0.0586053 0.0338357 0.0205 -1.38887e+06
0.0599842 0.0346319 0.0205 -1.40261e+06
0.0613632 0.0354281 0.0205 -1.38575e+06
0.0627422 0.0362242 0.0205 -1.37644e+06
0.0641211 0.0370204 0.0205 -1.37858e+06
0.0655001 0.0378164 0.0205 -1.35948e+06
0.066879 0.0386126 0.0205 -1.34687e+06
0.0682579 0.0394088 0.0205 -1.34967e+06
0.0696369 0.0402049 0.0205 -1.34502e+06
0.0710158 0.041001 0.0205 -1.33982e+06
0.0723947 0.0417971 0.0205 -1.33398e+06
0.0737737 0.0425932 0.0205 -1.31392e+06
0.0751527 0.0433894 0.0205 -1.33801e+06
0.0765316 0.0441856 0.0205 -1.33114e+06
0.0779106 0.0449817 0.0205 -1.32575e+06
0.0792895 0.0457778 0.0205 -1.33188e+06
0.0806685 0.0465739 0.0205 -1.31952e+06
0.0820474 0.0473701 0.0205 -1.31292e+06
0.0834263 0.0481662 0.0205 -1.31884e+06
0.0848053 0.0489624 0.0205 -1.30074e+06
0.0861843 0.0497585 0.0205 -1.29045e+06
0.0875632 0.0505546 0.0205 -1.28352e+06
0.0889421 0.0513508 0.0205 -1.26166e+06
0.0903211 0.0521469 0.0205 -1.27571e+06
0.0917 0.0529431 0.0205 -1.26761e+06
0.093079 0.0537392 0.0205 -1.24907e+06
0.094458 0.0545353 0.0205 -1.27169e+06
0.0958369 0.0553315 0.0205 -1.26243e+06
0.0972159 0.0561276 0.0205 -1.25949e+06
0.0985948 0.0569238 0.0205 -1.26403e+06
0.0999737 0.0577198 0.0205 -1.24749e+06
0.101352 0.058516 0.0205 -1.23483e+06
0.102732 0.0593121 0.0205 -1.23651e+06
0.10411 0.0601083 0.0205 -1.22958e+06
0.105489 0.0609044 0.0205 -1.22049e+06
0.106868 0.0617005 0.0205 -1.20911e+06
0.108248 0.0624967 0.0205 -1.18913e+06
0.109627 0.0632928 0.0205 -1.2105e+06
0.111006 0.064089 0.0205 -1.20525e+06
0.112385 0.0648851 0.0205 -1.20143e+06
0.113764 0.0656812 0.0205 -1.20911e+06
0.115143 0.0664774 0.0205 -1.19784e+06
0.116522 0.0672735 0.0205 -1.19444e+06
0.117901 0.0680697 0.0205 -1.20139e+06
0.119279 0.0688658 0.0205 -1.19346e+06
0.120658 0.0696619 0.0205 -1.18604e+06
0.122037 0.0704581 0.0205 -1.18607e+06
0.123415 0.0712542 0.0205 -1.16989e+06
0.124794 0.0720503 0.0205 -1.18696e+06
0.126173 0.0728465 0.0205 -1.18098e+06
0.127552 0.0736426 0.0205 -1.16278e+06
0.128931 0.0744387 0.0205 -1.18071e+06
0.13031 0.0752348 0.0205 -1.17295e+06
0.131689 0.076031 0.0205 -1.17109e+06
0.133069 0.0768271 0.0205 -1.18104e+06
0.134447 0.0776233 0.0205 -1.16927e+06
0.135827 0.0784194 0.0205 -1.17434e+06
