/*--------------------------------*- C++ -*----------------------------------*\
| =========                 |                                                 |
| \\      /  F ield         | OpenFOAM: The Open Source CFD Toolbox           |
|  \\    /   O peration     | Version:  v2012                                 |
|   \\  /    A nd           | Website:  www.openfoam.com                      |
|    \\/     M anipulation  |                                                 |
\*---------------------------------------------------------------------------*/
FoamFile
{
    version     2.0;
    format      ascii;
    class       volScalarField;
    location    "2000";
    object      alphat;
}
// * * * * * * * * * * * * * * * * * * * * * * * * * * * * * * * * * * * * * //

dimensions      [1 -1 -1 0 0 0 0];


internalField   nonuniform List<scalar> 
31383
(
1.30759e-11
1.45249e-11
1.29005e-11
1.34719e-11
2.74691e-11
2.38776e-11
1.26992e-11
2.52268e-11
3.27972e-10
1.07238e-10
1.21392e-11
2.358e-11
2.98788e-10
2.53738e-09
4.65157e-10
1.16873e-11
2.23919e-11
2.77347e-10
2.30989e-09
1.2161e-08
1.62317e-09
1.13043e-11
2.14377e-11
2.61922e-10
2.14276e-09
1.10701e-08
4.33016e-08
4.78135e-09
1.09837e-11
2.06353e-11
2.49577e-10
2.02257e-09
1.02685e-08
3.94332e-08
1.26525e-07
1.24834e-08
1.07155e-11
1.99634e-11
2.39249e-10
1.9264e-09
9.69203e-09
3.65883e-08
1.15353e-07
3.1995e-07
2.98624e-08
1.04806e-11
1.94019e-11
2.30598e-10
1.84598e-09
9.2307e-09
3.45408e-08
1.07118e-07
2.9236e-07
7.20351e-07
6.68809e-08
1.0271e-11
1.89144e-11
2.23376e-10
1.77862e-09
8.84493e-09
3.29017e-08
1.01184e-07
2.71933e-07
6.60707e-07
1.46562e-06
1.42152e-07
1.00774e-11
1.84796e-11
2.1714e-10
1.7224e-09
8.52181e-09
3.15308e-08
9.64278e-08
2.57175e-07
6.16224e-07
1.35159e-06
2.71816e-06
2.89001e-07
9.89958e-12
1.80791e-11
2.11584e-10
1.67388e-09
8.2521e-09
3.03821e-08
9.24468e-08
2.45324e-07
5.83957e-07
1.2656e-06
2.52403e-06
4.63071e-06
5.63695e-07
9.73576e-12
1.77124e-11
2.06474e-10
1.63065e-09
8.01933e-09
2.9423e-08
8.91089e-08
2.35387e-07
5.57963e-07
1.20289e-06
2.37542e-06
4.33316e-06
7.31519e-06
1.05502e-06
9.58878e-12
1.73751e-11
2.01805e-10
1.5909e-09
7.81198e-09
2.85951e-08
8.63199e-08
2.27046e-07
5.36103e-07
1.15213e-06
2.26638e-06
4.10147e-06
6.89845e-06
1.08371e-05
1.89091e-06
9.45622e-12
1.70742e-11
1.97518e-10
1.5546e-09
7.62132e-09
2.78576e-08
8.39112e-08
2.20067e-07
5.17726e-07
1.10923e-06
2.1776e-06
3.93041e-06
6.56772e-06
1.02943e-05
1.50054e-05
3.23418e-06
9.33891e-12
1.68036e-11
1.93705e-10
1.52126e-09
7.44723e-09
2.71795e-08
8.17651e-08
2.14034e-07
5.02308e-07
1.07312e-06
2.10213e-06
3.79027e-06
6.32215e-06
9.85392e-06
1.44185e-05
1.99429e-05
5.28376e-06
9.23382e-12
1.65641e-11
1.90287e-10
1.49163e-09
7.28737e-09
2.65603e-08
7.97906e-08
2.08656e-07
4.88962e-07
1.04271e-06
2.03851e-06
3.67034e-06
6.1198e-06
9.52533e-06
1.39132e-05
1.92473e-05
2.59512e-05
8.23317e-06
9.14059e-12
1.63507e-11
1.87258e-10
1.46506e-09
7.14525e-09
2.59916e-08
7.79879e-08
2.03701e-07
4.77052e-07
1.01632e-06
1.98466e-06
3.56904e-06
5.94552e-06
9.25358e-06
1.35359e-05
1.86199e-05
2.5128e-05
3.32214e-05
1.22325e-05
9.05696e-12
1.61608e-11
1.84571e-10
1.44152e-09
7.01784e-09
2.54859e-08
7.63316e-08
1.99179e-07
4.66052e-07
9.92754e-07
1.93773e-06
3.48281e-06
5.79776e-06
9.01801e-06
1.32253e-05
1.81463e-05
2.43451e-05
3.22592e-05
4.19047e-05
1.7313e-05
8.98269e-12
1.59918e-11
1.82175e-10
1.42065e-09
6.90498e-09
2.50326e-08
7.48588e-08
1.9502e-07
4.56015e-07
9.70908e-07
1.8958e-06
3.40735e-06
5.67151e-06
8.81716e-06
1.29429e-05
1.7753e-05
2.37544e-05
3.12919e-05
4.0822e-05
5.21906e-05
2.30192e-05
8.91641e-12
1.58416e-11
1.80053e-10
1.40203e-09
6.80486e-09
2.46311e-08
7.35379e-08
1.9132e-07
4.46775e-07
9.50995e-07
1.85678e-06
3.33996e-06
5.5605e-06
8.64526e-06
1.2684e-05
1.74107e-05
2.32635e-05
3.05674e-05
3.96536e-05
5.10257e-05
6.42756e-05
2.8876e-05
8.85733e-12
1.57078e-11
1.78168e-10
1.38554e-09
6.7156e-09
2.42748e-08
7.23674e-08
1.87999e-07
4.38546e-07
9.32611e-07
1.82125e-06
3.27693e-06
5.46143e-06
8.4935e-06
1.24625e-05
1.71158e-05
2.2839e-05
2.9964e-05
3.87729e-05
4.96247e-05
6.3089e-05
7.8351e-05
3.53912e-05
8.80425e-12
1.55886e-11
1.76491e-10
1.3709e-09
6.63652e-09
2.39571e-08
7.13285e-08
1.85055e-07
4.31151e-07
9.16218e-07
1.78833e-06
3.21944e-06
5.36837e-06
8.35795e-06
1.22663e-05
1.6865e-05
2.24758e-05
2.94403e-05
3.80391e-05
4.85657e-05
6.14272e-05
7.72394e-05
9.4602e-05
4.27367e-05
8.75608e-12
1.54818e-11
1.74996e-10
1.35787e-09
6.56629e-09
2.36757e-08
7.04021e-08
1.82441e-07
4.24596e-07
9.01445e-07
1.75892e-06
3.16607e-06
5.28331e-06
8.23034e-06
1.20906e-05
1.66408e-05
2.21681e-05
2.8993e-05
3.74013e-05
4.76807e-05
6.01637e-05
7.52904e-05
9.36718e-05
0.000113195
5.09296e-05
8.71179e-12
1.53848e-11
1.7366e-10
1.34626e-09
6.5038e-09
2.34257e-08
6.95812e-08
1.80109e-07
4.18767e-07
8.88354e-07
1.73233e-06
3.1183e-06
5.20423e-06
8.11338e-06
1.19253e-05
1.64382e-05
2.18924e-05
2.86126e-05
3.68549e-05
4.69111e-05
5.91042e-05
7.37951e-05
9.1414e-05
0.000112403
0.000134199
5.99039e-05
8.67119e-12
1.52956e-11
1.72445e-10
1.33588e-09
6.44811e-09
2.32032e-08
6.88518e-08
1.78042e-07
4.13564e-07
8.76695e-07
1.70881e-06
3.075e-06
5.13328e-06
8.00469e-06
1.17733e-05
1.62484e-05
2.16426e-05
2.82743e-05
3.63884e-05
4.62512e-05
5.81814e-05
7.25385e-05
8.96652e-05
0.000109833
0.000132916
0.0001574
6.95613e-05
8.63413e-12
1.52141e-11
1.71329e-10
1.32645e-09
6.39834e-09
2.30049e-08
6.82025e-08
1.76204e-07
4.08949e-07
8.66283e-07
1.68776e-06
3.03674e-06
5.06883e-06
7.90692e-06
1.16321e-05
1.60744e-05
2.14091e-05
2.7966e-05
3.59763e-05
4.56856e-05
5.73945e-05
7.14417e-05
8.81921e-05
0.000107824
0.000130071
0.00015612
0.000183078
7.96682e-05
8.60025e-12
1.51398e-11
1.70311e-10
1.31778e-09
6.35309e-09
2.28277e-08
6.76238e-08
1.74568e-07
4.04845e-07
8.57039e-07
1.66896e-06
3.00234e-06
5.01186e-06
7.81795e-06
1.1505e-05
1.59121e-05
2.1194e-05
2.76793e-05
3.56014e-05
4.51855e-05
5.67175e-05
7.05082e-05
8.69039e-05
0.000106127
0.000127833
0.00015294
0.000182388
0.000211789
8.96641e-05
8.56933e-12
1.50719e-11
1.69383e-10
1.30988e-09
6.31154e-09
2.26666e-08
6.71066e-08
1.73109e-07
4.01189e-07
8.48814e-07
1.65226e-06
2.97165e-06
4.9605e-06
7.73919e-06
1.13891e-05
1.57663e-05
2.09951e-05
2.74132e-05
3.52507e-05
4.47341e-05
5.6117e-05
6.97075e-05
8.58047e-05
0.00010464
0.000125938
0.000150399
0.000178875
0.00021205
0.000243756
9.85553e-05
8.54122e-12
1.50101e-11
1.68536e-10
1.30267e-09
6.27361e-09
2.25186e-08
6.66362e-08
1.71805e-07
3.97927e-07
8.41477e-07
1.63739e-06
2.94428e-06
4.9147e-06
7.6681e-06
1.12864e-05
1.56336e-05
2.08144e-05
2.71681e-05
3.49255e-05
4.43096e-05
5.5575e-05
6.89943e-05
8.48667e-05
0.000103369
0.000124282
0.000148236
0.000176007
0.000208222
0.00024546
0.000279189
0.000105604
8.51594e-12
1.4954e-11
1.67766e-10
1.29609e-09
6.23904e-09
2.23836e-08
6.6204e-08
1.70619e-07
3.95009e-07
8.34927e-07
1.6241e-06
2.91989e-06
4.87371e-06
7.60471e-06
1.11937e-05
1.55157e-05
2.06504e-05
2.69452e-05
3.46248e-05
4.39172e-05
5.50669e-05
6.83477e-05
8.40281e-05
0.000102286
0.00012286
0.000146341
0.000173547
0.000205006
0.000241365
0.000283006
0.000318268
0.000113104
8.49324e-12
1.49037e-11
1.6707e-10
1.29011e-09
6.20747e-09
2.22605e-08
6.58096e-08
1.69529e-07
3.92354e-07
8.29067e-07
1.61223e-06
2.8981e-06
4.83722e-06
7.54785e-06
1.11109e-05
1.54098e-05
2.05048e-05
2.67426e-05
3.43533e-05
4.35531e-05
5.45969e-05
6.77448e-05
8.32659e-05
0.000101316
0.000121647
0.000144713
0.000171387
0.000202222
0.000237787
0.000278727
0.000325095
0.000361134
0.000127462
8.47259e-12
1.48585e-11
1.66445e-10
1.28471e-09
6.17879e-09
2.2148e-08
6.54501e-08
1.68534e-07
3.89915e-07
8.2373e-07
1.60161e-06
2.8786e-06
4.80454e-06
7.49721e-06
1.10366e-05
1.53152e-05
2.03737e-05
2.65629e-05
3.4106e-05
4.3225e-05
5.41597e-05
6.71858e-05
8.25562e-05
0.000100433
0.000120562
0.000143323
0.00016953
0.000199768
0.000234649
0.00027478
0.000320772
0.000372152
0.000407849
0.000138194
8.45357e-12
1.48174e-11
1.65883e-10
1.27986e-09
6.15287e-09
2.20459e-08
6.5122e-08
1.67626e-07
3.87688e-07
8.18823e-07
1.59192e-06
2.86114e-06
4.77528e-06
7.45182e-06
1.09704e-05
1.52296e-05
2.02562e-05
2.64007e-05
3.38864e-05
4.29266e-05
5.37663e-05
6.66656e-05
8.1897e-05
9.96115e-05
0.000119573
0.00014208
0.000167943
0.000197656
0.000231872
0.000271263
0.000316465
0.000368006
0.000424617
0.000458359
0.000139168
8.436e-12
1.47795e-11
1.65373e-10
1.2755e-09
6.12958e-09
2.19535e-08
6.48238e-08
1.66798e-07
3.85655e-07
8.14343e-07
1.58301e-06
2.8452e-06
4.74904e-06
7.41113e-06
1.0911e-05
1.51538e-05
2.0151e-05
2.62557e-05
3.36881e-05
4.26608e-05
5.34089e-05
6.61981e-05
8.1286e-05
9.88479e-05
0.000118654
0.000140945
0.000166522
0.000195849
0.000229478
0.000268132
0.000312547
0.000363371
0.000420973
0.000482924
0.000512438
0.000136539
8.4182e-12
1.47446e-11
1.64903e-10
1.27153e-09
6.10867e-09
2.18705e-08
6.45539e-08
1.66045e-07
3.83799e-07
8.10253e-07
1.57487e-06
2.83053e-06
4.72509e-06
7.37463e-06
1.08577e-05
1.50855e-05
2.00572e-05
2.6126e-05
3.3511e-05
4.24213e-05
5.30901e-05
6.57736e-05
8.07362e-05
9.8142e-05
0.000117801
0.000139891
0.000165224
0.000194231
0.000227427
0.000265427
0.000309033
0.000359036
0.000416077
0.000480261
0.000547495
0.000569348
0.000130105
8.40287e-12
1.47089e-11
1.64468e-10
1.26788e-09
6.08965e-09
2.1796e-08
6.43114e-08
1.65364e-07
3.82112e-07
8.06517e-07
1.56744e-06
2.81713e-06
4.70302e-06
7.34127e-06
1.08098e-05
1.50249e-05
1.99728e-05
2.60098e-05
3.33518e-05
4.22071e-05
5.28031e-05
6.53949e-05
8.02366e-05
9.7506e-05
0.000117013
0.000138912
0.000164018
0.00019275
0.000225588
0.000263107
0.000305985
0.000355109
0.000411321
0.000475219
0.000546488
0.000618704
0.000625568
0.000119858
8.44083e-12
1.46789e-11
1.64022e-10
1.26451e-09
6.07213e-09
2.17282e-08
6.40937e-08
1.64752e-07
3.80586e-07
8.0312e-07
1.56064e-06
2.80488e-06
4.68281e-06
7.31048e-06
1.07661e-05
1.49697e-05
1.98972e-05
2.59056e-05
3.32097e-05
4.20144e-05
5.25462e-05
6.50533e-05
7.97909e-05
9.69277e-05
0.000116301
0.000138008
0.000162899
0.000191375
0.000223904
0.000261023
0.000303368
0.000351689
0.000406955
0.000470055
0.000541483
0.000620299
0.000696853
0.000680796
0.000106043
1.3872e-11
1.46701e-11
1.63655e-10
1.26104e-09
6.05597e-09
2.16658e-08
6.38955e-08
1.64202e-07
3.79214e-07
8.00044e-07
1.55446e-06
2.79367e-06
4.66433e-06
7.28228e-06
1.07257e-05
1.49197e-05
1.98294e-05
2.58118e-05
3.30821e-05
4.18424e-05
5.23153e-05
6.47479e-05
7.93889e-05
9.64113e-05
0.000115654
0.000137191
0.000161864
0.000190097
0.000222339
0.000259111
0.000301013
0.000348745
0.000403134
0.000465232
0.000535953
0.000615611
0.000702351
0.00078213
0.000734354
8.92795e-05
8.96654e-12
6.30197e-11
1.62788e-10
1.25819e-09
6.03934e-09
2.16081e-08
6.37128e-08
1.63701e-07
3.7798e-07
7.9728e-07
1.54885e-06
2.78348e-06
4.64745e-06
7.25652e-06
1.06887e-05
1.48732e-05
1.97675e-05
2.5728e-05
3.29675e-05
4.16883e-05
5.21088e-05
6.44734e-05
7.90295e-05
9.59466e-05
0.000115076
0.00013645
0.000160931
0.000188917
0.000220884
0.000257334
0.000298849
0.000346092
0.000399835
0.000460983
0.000530667
0.000609796
0.000698392
0.000793293
0.000874554
0.000785214
7.06735e-05
9.1061e-12
1.87547e-11
9.60964e-10
1.25106e-09
6.02567e-09
2.15488e-08
6.35443e-08
1.63239e-07
3.76857e-07
7.94793e-07
1.5438e-06
2.77421e-06
4.63208e-06
7.23296e-06
1.0655e-05
1.48309e-05
1.97097e-05
2.5651e-05
3.28646e-05
4.15497e-05
5.19238e-05
6.42275e-05
7.87065e-05
9.55304e-05
0.000114556
0.000135787
0.000160083
0.000187853
0.000219541
0.000255683
0.000296836
0.00034365
0.000396855
0.0004573
0.000525967
0.000604058
0.000692428
0.000790654
0.000893738
0.000973916
0.000831936
5.1814e-05
1.07608e-11
2.02414e-11
2.34863e-10
7.20986e-09
5.99115e-09
2.15002e-08
6.33709e-08
1.62813e-07
3.75821e-07
7.92527e-07
1.53928e-06
2.76587e-06
4.61812e-06
7.21152e-06
1.0624e-05
1.47921e-05
1.96573e-05
2.55801e-05
3.27702e-05
4.14246e-05
5.17579e-05
6.40071e-05
7.84165e-05
9.51561e-05
0.000114089
0.00013519
0.000159326
0.000186887
0.000218331
0.000254157
0.000294964
0.000341374
0.000394106
0.000453964
0.000521874
0.000598893
0.000686276
0.000784758
0.000893256
0.00100422
0.00107969
0.000872864
3.4626e-05
9.80137e-12
3.23737e-11
2.66592e-10
1.83485e-09
3.34608e-08
2.13762e-08
6.32286e-08
1.62375e-07
3.74864e-07
7.90437e-07
1.53515e-06
2.75837e-06
4.60558e-06
7.19201e-06
1.05958e-05
1.47567e-05
1.96092e-05
2.55151e-05
3.26835e-05
4.13104e-05
5.16074e-05
6.38097e-05
7.81565e-05
9.482e-05
0.000113668
0.000134655
0.000158643
0.000186022
0.000217231
0.000252783
0.000293234
0.000339256
0.00039154
0.000450877
0.000518152
0.000594371
0.000680648
0.000778272
0.000887754
0.00100706
0.00112516
0.00119097
0.000906422
2.09165e-05
8.68072e-12
2.6303e-11
4.9964e-10
2.11059e-09
8.76879e-09
1.16441e-07
6.28619e-08
1.62015e-07
3.73874e-07
7.88505e-07
1.53133e-06
2.75155e-06
4.59428e-06
7.17455e-06
1.05702e-05
1.47244e-05
1.95654e-05
2.54555e-05
3.26038e-05
4.12052e-05
5.14703e-05
6.36309e-05
7.79238e-05
9.45183e-05
0.000113291
0.000134172
0.000158031
0.000185244
0.000216248
0.000251535
0.000291678
0.000337298
0.000389148
0.00044799
0.000514696
0.000590236
0.000675684
0.000772204
0.000881068
0.00100243
0.0011329
0.00125677
0.00130632
0.00093155
1.16581e-05
8.48068e-12
1.89569e-11
3.78636e-10
3.98058e-09
1.02366e-08
3.0986e-08
3.35294e-07
1.6107e-07
3.73063e-07
7.86497e-07
1.52781e-06
2.74524e-06
4.58398e-06
7.15881e-06
1.05473e-05
1.46951e-05
1.95253e-05
2.54012e-05
3.25309e-05
4.11085e-05
5.13437e-05
6.34675e-05
7.77133e-05
9.4248e-05
0.000112952
0.00013374
0.00015748
0.000184546
0.000215363
0.000250419
0.000290265
0.000335539
0.000386938
0.000445295
0.000511458
0.000586382
0.000671116
0.000766796
0.000874615
0.000995757
0.00112983
0.00127156
0.00139898
0.00142366
0.00094848
6.45605e-06
8.29186e-12
1.80143e-11
2.3843e-10
2.95991e-09
1.92818e-08
3.66977e-08
9.03918e-08
8.41185e-07
3.70881e-07
7.84854e-07
1.52416e-06
2.73941e-06
4.57446e-06
7.14438e-06
1.05266e-05
1.4669e-05
1.94892e-05
2.53519e-05
3.24642e-05
4.10202e-05
5.12275e-05
6.33169e-05
7.75205e-05
9.40037e-05
0.000112648
0.000133351
0.000156985
0.000183917
0.000214569
0.000249415
0.000288999
0.000333942
0.000384953
0.000442806
0.000508431
0.000582761
0.000666835
0.00076178
0.000868783
0.000989022
0.0011235
0.00127101
0.00142368
0.00155133
0.00153526
0.000960333
3.9697e-06
8.25527e-12
1.45997e-11
2.20124e-10
1.82592e-09
1.41519e-08
6.91574e-08
1.07504e-07
2.29661e-07
1.88369e-06
7.80285e-07
1.52118e-06
2.73338e-06
4.56564e-06
7.13102e-06
1.05076e-05
1.46454e-05
1.94566e-05
2.5307e-05
3.24038e-05
4.09394e-05
5.11214e-05
6.31784e-05
7.73429e-05
9.37799e-05
0.000112373
0.000133002
0.00015654
0.000183353
0.000213853
0.000248512
0.000287861
0.00033251
0.00038315
0.00044057
0.000505633
0.000579368
0.0006628
0.00075705
0.000863318
0.000982815
0.00111664
0.00126549
0.00142699
0.0015897
0.00171284
0.00162533
0.00097541
2.95525e-06
8.24184e-12
1.43582e-11
1.61257e-10
1.66826e-09
8.62956e-09
5.02458e-08
2.03613e-07
2.71174e-07
5.22865e-07
3.79117e-06
1.51249e-06
2.72849e-06
4.5565e-06
7.11869e-06
1.04901e-05
1.46239e-05
1.94274e-05
2.52666e-05
3.23487e-05
4.08661e-05
5.10244e-05
6.30519e-05
7.71794e-05
9.35734e-05
0.000112121
0.000132686
0.00015614
0.000182845
0.000213211
0.0002477
0.000286839
0.000331224
0.000381534
0.00043854
0.00050312
0.00057623
0.000659008
0.000752571
0.000858122
0.000976918
0.00111015
0.00125878
0.00142296
0.00159869
0.00176976
0.00188189
0.00169793
0.000999113
2.61651e-06
8.23197e-12
1.43216e-11
1.58213e-10
1.23086e-09
7.82167e-09
3.03167e-08
1.46788e-07
5.19637e-07
6.06712e-07
1.08281e-06
6.85955e-06
2.71346e-06
4.5491e-06
7.10586e-06
1.04738e-05
1.4604e-05
1.94007e-05
2.52305e-05
3.22994e-05
4.07994e-05
5.09363e-05
6.29364e-05
7.70301e-05
9.33835e-05
0.000111888
0.000132397
0.000155778
0.000182389
0.000212633
0.00024697
0.000285919
0.000330068
0.000380083
0.000436719
0.000500838
0.000573413
0.000655497
0.000748349
0.000853175
0.000971253
0.00110387
0.00125215
0.00141677
0.00159712
0.00178688
0.00196356
0.00205597
0.00175602
0.000979799
2.52776e-06
8.21824e-12
1.42979e-11
1.5739e-10
1.20698e-09
5.86539e-09
2.72727e-08
8.74901e-08
3.72632e-07
1.18036e-06
1.22944e-06
2.05601e-06
1.12106e-05
4.5254e-06
7.09556e-06
1.04569e-05
1.45855e-05
1.93761e-05
2.51975e-05
3.22551e-05
4.07397e-05
5.08563e-05
6.28313e-05
7.68938e-05
9.32101e-05
0.000111675
0.000132129
0.000155447
0.000181976
0.000212113
0.000246314
0.000285092
0.000329028
0.000378779
0.000435086
0.000498792
0.000570854
0.000652347
0.000744433
0.000848494
0.000965822
0.00109775
0.00124556
0.00141024
0.001592
0.0017891
0.00199209
0.00217022
0.00223156
0.00179991
0.00088623
2.51621e-06
8.20498e-12
1.42665e-11
1.56921e-10
1.19852e-09
5.7469e-09
2.08524e-08
7.81154e-08
2.18757e-07
8.4466e-07
2.40711e-06
2.28595e-06
3.59969e-06
1.6774e-05
7.06132e-06
1.04434e-05
1.45659e-05
1.93531e-05
2.51667e-05
3.22146e-05
4.06862e-05
5.07847e-05
6.27361e-05
7.67698e-05
9.30516e-05
0.000111479
0.000131884
0.000155141
0.000181598
0.000211644
0.000245724
0.000284348
0.000328093
0.000377605
0.000433617
0.000496955
0.000568558
0.000649484
0.000740919
0.000844144
0.000960656
0.00109183
0.00123903
0.00140349
0.00158591
0.00178585
0.00199992
0.00221444
0.00238805
0.00240383
0.00182683
0.000761624
2.52379e-06
8.19502e-12
1.42363e-11
1.56361e-10
1.19386e-09
5.69859e-09
2.04149e-08
6.11649e-08
1.94346e-07
4.88816e-07
1.72674e-06
4.40815e-06
3.92503e-06
5.85059e-06
2.3394e-05
1.03974e-05
1.45506e-05
1.93287e-05
2.51383e-05
3.21767e-05
4.0637e-05
5.07204e-05
6.26509e-05
7.66575e-05
9.29076e-05
0.000111301
0.000131659
0.00015486
0.000181248
0.000211212
0.00024519
0.000283681
0.000327251
0.00037655
0.000432294
0.000495304
0.000566499
0.000646915
0.000737727
0.000840237
0.000955841
0.00108616
0.00123264
0.00139663
0.00157921
0.00178069
0.00199962
0.00223033
0.0024535
0.00261435
0.00253672
0.00183238
0.000612414
2.53417e-06
8.18916e-12
1.42142e-11
1.55812e-10
1.18853e-09
5.67249e-09
2.02214e-08
5.98449e-08
1.56466e-07
4.35068e-07
9.9581e-07
3.18844e-06
7.27366e-06
6.26899e-06
8.90786e-06
3.09248e-05
1.44988e-05
1.93098e-05
2.51081e-05
3.21419e-05
4.05911e-05
5.06613e-05
6.25742e-05
7.6557e-05
9.27771e-05
0.000111138
0.000131454
0.000154603
0.000180926
0.000210813
0.000244699
0.000283074
0.000326495
0.0003756
0.000431105
0.000493818
0.000564646
0.000644612
0.000734861
0.000836687
0.000951516
0.00108086
0.00122647
0.00138981
0.00157216
0.00177437
0.0019961
0.00223449
0.00248074
0.00270812
0.00284517
0.00263002
0.0018142
0.000448327
2.54414e-06
8.17179e-12
1.42002e-11
1.55421e-10
1.18326e-09
5.64334e-09
2.01181e-08
5.92301e-08
1.53039e-07
3.60018e-07
8.92778e-07
1.8711e-06
5.33685e-06
1.09561e-05
9.40103e-06
1.28384e-05
3.9265e-05
1.92463e-05
2.50845e-05
3.21049e-05
4.05488e-05
5.06061e-05
6.25038e-05
7.64664e-05
9.266e-05
0.000110991
0.000131267
0.000154367
0.000180632
0.000210447
0.000244246
0.000282518
0.00032581
0.000374745
0.000430036
0.000492482
0.00056298
0.000642539
0.000732291
0.000833499
0.000947583
0.0010761
0.00122067
0.00138315
0.00156499
0.00176734
0.00199063
0.00223359
0.0024914
0.00275099
0.00297609
0.00307505
0.0026908
0.00177759
0.000287047
2.55403e-06
6.98617e-12
1.41697e-11
1.55168e-10
1.17953e-09
5.61435e-09
2.00043e-08
5.89044e-08
1.51386e-07
3.5215e-07
7.57578e-07
1.69265e-06
3.26037e-06
8.19758e-06
1.53584e-05
1.3374e-05
1.75041e-05
4.83561e-05
2.50065e-05
3.20756e-05
4.05038e-05
5.05552e-05
6.24381e-05
7.63834e-05
9.25546e-05
0.000110858
0.000131098
0.000154154
0.000180364
0.000210112
0.000243829
0.000282004
0.00032518
0.000373971
0.000429073
0.00049128
0.000561482
0.000640674
0.000729976
0.000830639
0.000944048
0.00107176
0.00121545
0.00137685
0.00155789
0.00175996
0.00198394
0.00222964
0.00249447
0.00277089
0.00304019
0.00325395
0.00329667
0.00272299
0.00173832
0.000152774
2.56244e-06
1.96545e-12
1.15626e-11
1.5478e-10
1.17714e-09
5.59394e-09
1.98907e-08
5.85501e-08
1.50518e-07
3.48255e-07
7.41369e-07
1.47004e-06
2.97791e-06
5.29644e-06
1.17686e-05
2.04344e-05
1.79138e-05
2.3059e-05
5.81725e-05
3.19833e-05
4.04679e-05
5.05009e-05
6.23772e-05
7.63059e-05
9.24579e-05
0.000110738
0.000130946
0.00015396
0.00018012
0.000209806
0.000243448
0.00028153
0.000324597
0.000373259
0.0004282
0.000490197
0.000560133
0.000638997
0.000727895
0.000828063
0.000940878
0.00106786
0.00121069
0.00137117
0.00155112
0.00175252
0.00197657
0.00222375
0.00249296
0.00277978
0.00307297
0.00334642
0.00353661
0.00346417
0.00272599
0.00170063
6.50268e-05
2.56803e-06
1.22705e-12
6.12925e-12
1.2042e-10
1.17382e-09
5.58096e-09
1.98109e-08
5.81934e-08
1.49575e-07
3.46228e-07
7.33204e-07
1.43991e-06
2.64209e-06
4.88381e-06
8.08004e-06
1.60864e-05
2.62114e-05
2.3375e-05
2.98188e-05
6.8715e-05
4.03631e-05
5.04575e-05
6.23124e-05
7.62337e-05
9.23675e-05
0.000110628
0.000130808
0.000153786
0.000179899
0.000209528
0.0002431
0.000281097
0.00032406
0.000372599
0.000427397
0.000489214
0.000558917
0.000637487
0.000726023
0.000825748
0.000938022
0.00106436
0.0012064
0.00136598
0.001545
0.00174533
0.00196893
0.00221672
0.00248854
0.00278199
0.00309013
0.00339682
0.00366641
0.00381701
0.003567
0.0026933
0.0015504
2.32755e-05
2.57072e-06
1.67863e-12
2.74074e-12
9.33091e-11
9.07448e-10
5.56387e-09
1.97606e-08
5.79449e-08
1.48631e-07
3.44031e-07
7.28978e-07
1.42455e-06
2.59136e-06
4.41649e-06
7.5154e-06
1.16803e-05
2.1232e-05
3.27301e-05
3.00065e-05
3.80267e-05
8.00108e-05
5.03372e-05
6.22604e-05
7.61572e-05
9.22834e-05
0.000110525
0.000130682
0.000153629
0.0001797
0.000209276
0.000242784
0.000280703
0.00032357
0.000371993
0.000426653
0.000488311
0.000557814
0.000636127
0.000724337
0.000823665
0.000935455
0.0010612
0.00120256
0.0013613
0.00153939
0.0017388
0.00196143
0.00220911
0.00248232
0.00277994
0.0030978
0.00342553
0.00374055
0.00399513
0.00408579
0.00361325
0.00261687
0.0012663
8.35413e-06
2.57135e-06
1.4196e-12
2.57845e-12
3.56949e-11
7.1459e-10
4.28643e-09
1.96965e-08
5.77892e-08
1.47969e-07
3.41822e-07
7.24415e-07
1.41665e-06
2.56527e-06
4.33849e-06
6.90828e-06
1.09441e-05
1.60591e-05
2.72891e-05
3.90261e-05
3.79738e-05
4.78887e-05
9.21217e-05
6.21178e-05
7.60954e-05
9.2194e-05
0.00011043
0.000130564
0.000153484
0.000179521
0.00020905
0.000242498
0.000280345
0.000323124
0.000371439
0.000425968
0.000487472
0.000556799
0.000634892
0.000722819
0.000821788
0.000933145
0.00105837
0.00119909
0.0013571
0.00153431
0.00173279
0.00195457
0.00220147
0.00247508
0.0027752
0.00309938
0.00344098
0.0037851
0.00410079
0.00432547
0.00430264
0.00360784
0.00250537
0.000930776
3.93665e-06
2.57078e-06
1.28599e-12
2.3228e-12
2.43881e-11
2.70362e-10
3.35247e-09
1.51226e-08
5.75941e-08
1.47556e-07
3.40281e-07
7.1981e-07
1.40812e-06
2.55194e-06
4.2982e-06
6.79741e-06
1.01963e-05
1.51127e-05
2.11529e-05
3.37274e-05
4.6916e-05
4.74859e-05
5.96096e-05
0.000105157
7.59209e-05
9.21219e-05
0.000110327
0.000130454
0.000153348
0.000179356
0.000208846
0.000242241
0.00028002
0.000322718
0.000370934
0.000425343
0.000486701
0.000555857
0.000633754
0.00072144
0.000820097
0.000931062
0.00105581
0.00119597
0.00135331
0.00152976
0.00172735
0.00194823
0.0021944
0.00246755
0.00276884
0.00309706
0.00344791
0.00381144
0.00416674
0.00447234
0.00464772
0.00442925
0.00355303
0.00240032
0.000586921
2.77238e-06
2.56934e-06
1.21734e-12
2.25863e-12
2.39255e-11
1.81765e-10
1.26602e-09
1.17338e-08
4.40701e-08
1.47049e-07
3.39322e-07
7.16605e-07
1.39949e-06
2.53756e-06
4.27776e-06
6.73995e-06
1.00478e-05
1.42749e-05
1.99641e-05
2.73113e-05
4.13231e-05
5.6673e-05
5.87462e-05
7.3317e-05
0.000118124
9.19043e-05
0.000110247
0.000130336
0.000153222
0.000179201
0.000208658
0.00024201
0.000279728
0.000322351
0.000370476
0.000424773
0.000485997
0.00055499
0.000632697
0.000720169
0.000818562
0.000929186
0.00105351
0.00119317
0.0013499
0.00152565
0.00172246
0.00194246
0.00218783
0.00246049
0.00276179
0.00309228
0.00344929
0.003826
0.00420804
0.00456677
0.0048476
0.00494924
0.00447552
0.00345069
0.0023164
0.000298888
2.49315e-06
2.567e-06
1.18198e-12
2.19519e-12
2.49082e-11
1.80114e-10
8.57788e-10
4.43388e-09
3.39927e-08
1.12188e-07
3.38163e-07
7.14617e-07
1.39348e-06
2.5229e-06
4.25556e-06
6.71096e-06
9.97104e-06
1.40937e-05
1.89708e-05
2.58503e-05
3.46212e-05
5.06607e-05
6.83073e-05
7.19863e-05
8.87059e-05
0.000132543
0.000109975
0.000130242
0.000153087
0.000179056
0.000208481
0.000241797
0.000279467
0.000322022
0.000370061
0.000424256
0.000485355
0.000554198
0.000631725
0.000718986
0.000817145
0.000927481
0.00105144
0.00119063
0.00134684
0.00152195
0.00171804
0.00193727
0.00218181
0.00245383
0.00275503
0.00308626
0.00344708
0.00383281
0.00423328
0.00462829
0.00497941
0.00521611
0.00516359
0.00444615
0.00330276
0.00194432
0.000116225
2.43122e-06
2.56519e-06
1.18901e-12
2.15799e-12
2.47807e-11
1.88583e-10
8.5188e-10
3.03711e-09
1.28893e-08
8.63696e-08
2.57484e-07
7.12235e-07
1.38978e-06
2.51273e-06
4.23307e-06
6.67956e-06
9.93263e-06
1.40032e-05
1.87426e-05
2.46695e-05
3.29364e-05
4.34181e-05
6.18778e-05
8.18828e-05
8.73612e-05
0.000105997
0.000150225
0.000129925
0.000152979
0.000178901
0.000208316
0.000241596
0.000279225
0.000321725
0.00036969
0.000423789
0.000484773
0.000553476
0.000630837
0.000717897
0.000815825
0.000925906
0.00104955
0.00118835
0.00134407
0.00151862
0.00171406
0.00193257
0.00217639
0.0024477
0.00274854
0.00308022
0.00344283
0.00383449
0.00424785
0.00466821
0.00506788
0.00539622
0.00556404
0.00526742
0.00434123
0.00311806
0.00143946
3.64897e-05
2.41859e-06
2.56415e-06
1.21846e-12
2.17372e-12
2.46228e-11
1.8802e-10
8.92556e-10
3.01832e-09
8.93372e-09
3.30122e-08
1.99093e-07
5.42109e-07
1.38536e-06
2.50653e-06
4.21736e-06
6.64762e-06
9.89109e-06
1.39582e-05
1.86279e-05
2.43825e-05
3.15789e-05
4.14035e-05
5.39383e-05
7.50913e-05
9.75247e-05
0.000104773
0.000125733
0.000171626
0.000152608
0.000178777
0.00020814
0.000241408
0.000278997
0.000321451
0.000369355
0.000423372
0.000484248
0.000552823
0.000630027
0.000716903
0.000814609
0.000924439
0.00104781
0.00118628
0.00134157
0.00151561
0.00171047
0.00192832
0.00217146
0.00244215
0.00274249
0.00307424
0.00343812
0.00383309
0.00425525
0.00469363
0.00512764
0.0055201
0.00580553
0.00584907
0.00526788
0.00416059
0.00294029
0.000903099
1.10785e-05
2.41577e-06
2.56342e-06
1.27069e-12
2.22332e-12
2.48303e-11
1.87003e-10
8.90418e-10
3.16274e-09
8.87852e-09
2.3156e-08
7.72571e-08
4.24661e-07
1.05618e-06
2.4991e-06
4.20788e-06
6.62538e-06
9.84861e-06
1.39096e-05
1.85701e-05
2.42382e-05
3.12187e-05
3.98799e-05
5.15129e-05
6.63878e-05
9.04038e-05
0.000115344
0.000123948
0.000148191
0.000196647
0.000178343
0.000207998
0.000241207
0.000278785
0.000321195
0.000369047
0.000422995
0.000483778
0.000552234
0.000629294
0.000715997
0.0008135
0.000923086
0.00104618
0.00118435
0.0013393
0.00151289
0.00170723
0.0019245
0.00216701
0.00243709
0.00273698
0.00306856
0.00343315
0.00383057
0.00425811
0.00470916
0.00516795
0.00560632
0.00597526
0.00619183
0.00599968
0.00516588
0.00391788
0.00264324
0.000444872
4.33333e-06
2.41503e-06
2.56278e-06
1.33798e-12
2.31057e-12
2.53603e-11
1.88607e-10
8.85835e-10
3.15656e-09
9.30221e-09
2.30006e-08
5.48182e-08
1.69149e-07
8.47257e-07
1.91196e-06
4.19655e-06
6.61207e-06
9.81924e-06
1.386e-05
1.85109e-05
2.41695e-05
3.10433e-05
3.9437e-05
4.97772e-05
6.34747e-05
8.09407e-05
0.000107722
0.000135267
0.000145763
0.000173686
0.000224847
0.000207489
0.000241045
0.000278557
0.000320955
0.000368758
0.000422648
0.000483355
0.000551707
0.000628635
0.000715178
0.000812489
0.000921851
0.00104468
0.00118256
0.00133719
0.00151042
0.0017043
0.00192105
0.002163
0.00243251
0.00273193
0.00306333
0.00342826
0.0038273
0.00425894
0.00471822
0.00519483
0.00566676
0.00609624
0.00641996
0.00651713
0.00602219
0.00496187
0.003659
0.00199031
0.000162145
2.7344e-06
2.41484e-06
2.56221e-06
1.40944e-12
2.42281e-12
2.62842e-11
1.92646e-10
8.93539e-10
3.14105e-09
9.28827e-09
2.40919e-08
5.43917e-08
1.21252e-07
3.5186e-07
1.58878e-06
3.22483e-06
6.59608e-06
9.80174e-06
1.38259e-05
1.84497e-05
2.40973e-05
3.09601e-05
3.92234e-05
4.92348e-05
6.1487e-05
7.74971e-05
9.75566e-05
0.000126635
0.000157019
0.000170528
0.000202562
0.000256315
0.000240447
0.000278371
0.000320696
0.000368486
0.000422322
0.000482966
0.000551233
0.000628046
0.000714442
0.000811576
0.000920726
0.00104331
0.0011809
0.00133522
0.00150813
0.00170163
0.00191792
0.00215936
0.00242837
0.00272733
0.0030585
0.00342366
0.00382376
0.00425833
0.00472397
0.00521265
0.00570917
0.00618348
0.00658595
0.00683641
0.00669101
0.00591721
0.0046687
0.00342034
0.00127182
4.59079e-05
2.38934e-06
2.41476e-06
2.56176e-06
1.4731e-12
2.53922e-12
2.74668e-11
1.99668e-10
9.12868e-10
3.16883e-09
9.24486e-09
2.40674e-08
5.69473e-08
1.20098e-07
2.54277e-07
7.02493e-07
2.80467e-06
5.08795e-06
9.78041e-06
1.38059e-05
1.84068e-05
2.4024e-05
3.08706e-05
3.91261e-05
4.8982e-05
6.08262e-05
7.52278e-05
9.36854e-05
0.000115797
0.000148102
0.000181585
0.000198591
0.000235201
0.000291877
0.000277669
0.000320484
0.000368193
0.000422016
0.000482601
0.000550798
0.000627516
0.000713784
0.000810756
0.00091971
0.00104207
0.00117939
0.00133339
0.00150597
0.00169915
0.00191507
0.00215607
0.00242461
0.00272318
0.00305408
0.00341935
0.00382029
0.00425695
0.00472732
0.00522543
0.00573913
0.00624682
0.00670836
0.00705978
0.00717603
0.00671728
0.00568372
0.0043241
0.00293722
0.000632247
1.22822e-05
2.32106e-06
2.41468e-06
2.56134e-06
1.52757e-12
2.6395e-12
2.8662e-11
2.08624e-10
9.46333e-10
3.2381e-09
9.32836e-09
2.39615e-08
5.69195e-08
1.25656e-07
2.51183e-07
5.10249e-07
1.35386e-06
4.66518e-06
7.5564e-06
1.37809e-05
1.83833e-05
2.39719e-05
3.07811e-05
3.90224e-05
4.88605e-05
6.05253e-05
7.44358e-05
9.11571e-05
0.000111743
0.000136588
0.000172418
0.000209291
0.00023034
0.000272024
0.000331845
0.000319663
0.000367953
0.000421687
0.000482257
0.000550389
0.000627031
0.000713194
0.000810023
0.000918799
0.00104094
0.00117801
0.00133173
0.00150398
0.00169682
0.00191241
0.00215306
0.00242121
0.00271939
0.00305006
0.00341536
0.00381691
0.00425529
0.0047292
0.0052345
0.00576172
0.00629333
0.0067995
0.00722767
0.00749706
0.00734922
0.00659403
0.00533569
0.00400559
0.00209069
0.000224595
4.3017e-06
2.30868e-06