/*--------------------------------*- C++ -*----------------------------------*\
| =========                 |                                                 |
| \\      /  F ield         | OpenFOAM: The Open Source CFD Toolbox           |
|  \\    /   O peration     | Version:  v2012                                 |
|   \\  /    A nd           | Website:  www.openfoam.com                      |
|    \\/     M anipulation  |                                                 |
\*---------------------------------------------------------------------------*/
FoamFile
{
    version     2.0;
    format      ascii;
    class       volScalarField;
    location    "0";
    object      c;
}
// * * * * * * * * * * * * * * * * * * * * * * * * * * * * * * * * * * * * * //

dimensions      [0 1 -1 0 0 0 0];


internalField   nonuniform List<scalar> 
31383
(
332.907
332.942
332.629
332.946
332.708
332.307
332.948
332.72
332.422
331.935
332.95
332.731
332.448
332.078
331.505
332.952
332.738
332.468
332.121
331.666
331.007
332.953
332.745
332.483
332.154
331.73
331.173
330.43
332.955
332.751
332.496
332.179
331.779
331.263
330.583
329.759
332.956
332.756
332.508
332.2
331.816
331.333
330.706
329.877
328.98
332.957
332.76
332.517
332.219
331.849
331.386
330.802
330.041
329.035
328.07
332.957
332.764
332.526
332.234
331.876
331.43
330.873
330.167
329.249
328.037
327.002
332.958
332.767
332.533
332.248
331.899
331.469
330.933
330.262
329.413
328.314
326.878
325.705
332.959
332.77
332.54
332.26
331.919
331.501
330.984
330.341
329.535
328.521
327.223
325.557
324.186
332.96
332.773
332.546
332.27
331.936
331.528
331.028
330.408
329.636
328.676
327.479
325.975
324.086
322.426
332.96
332.775
332.551
332.279
331.951
331.553
331.065
330.465
329.723
328.804
327.672
326.285
324.583
322.486
320.309
332.961
332.778
332.556
332.288
331.965
331.574
331.098
330.514
329.796
328.912
327.83
326.521
324.95
323.064
320.775
317.978
332.962
332.78
332.56
332.296
331.978
331.593
331.126
330.556
329.859
329.006
327.963
326.713
325.229
323.49
321.437
318.967
315.394
332.962
332.781
332.564
332.303
331.989
331.61
331.152
330.594
329.913
329.085
328.08
326.873
325.457
323.814
321.925
319.718
317.078
312.584
332.962
332.783
332.567
332.309
331.999
331.626
331.175
330.628
329.962
329.153
328.178
327.015
325.648
324.078
322.296
320.269
317.921
315.131
309.613
332.963
332.784
332.571
332.314
332.009
331.64
331.196
330.658
330.005
329.214
328.263
327.134
325.814
324.301
322.598
320.687
318.535
316.069
313.147
306.549
332.964
332.786
332.573
332.32
332.016
331.653
331.214
330.685
330.044
329.267
328.338
327.236
325.956
324.495
322.852
321.028
319.001
316.744
314.18
311.142
303.439
332.964
332.788
332.576
332.325
332.024
331.664
331.232
330.71
330.079
329.318
328.404
327.328
326.078
324.659
323.073
321.316
319.381
317.256
314.915
312.272
309.127
300.289
332.964
332.788
332.579
332.329
332.031
331.675
331.247
330.732
330.111
329.362
328.466
327.409
326.187
324.801
323.262
321.565
319.702
317.676
315.474
313.067
310.359
307.113
297.081
332.964
332.789
332.581
332.333
332.037
331.684
331.261
330.752
330.139
329.402
328.521
327.483
326.283
324.929
323.424
321.777
319.979
318.029
315.931
313.67
311.211
308.451
305.106
293.835
332.964
332.79
332.583
332.336
332.043
331.693
331.274
330.771
330.165
329.438
328.57
327.55
326.371
325.04
323.569
321.96
320.216
318.334
316.316
314.164
311.858
309.36
306.555
303.106
290.572
332.965
332.791
332.585
332.339
332.048
331.7
331.285
330.787
330.188
329.47
328.614
327.609
326.45
325.142
323.697
322.124
320.42
318.596
316.649
314.58
312.388
310.05
307.52
304.672
301.114
287.305
332.965
332.792
332.586
332.342
332.052
331.708
331.296
330.802
330.209
329.499
328.654
327.663
326.522
325.234
323.813
322.267
320.603
318.82
316.934
314.939
312.834
310.614
308.251
305.692
302.796
299.124
284.045
332.965
332.793
332.588
332.345
332.056
331.713
331.305
330.815
330.229
329.525
328.691
327.712
326.585
325.317
323.918
322.398
320.763
319.021
317.18
315.248
313.219
311.09
308.85
306.466
303.873
300.921
297.128
280.797
332.965
332.793
332.589
332.347
332.06
331.719
331.313
330.828
330.246
329.55
328.724
327.756
326.643
325.391
324.012
322.516
320.908
319.197
317.398
315.514
313.55
311.5
309.354
307.098
304.688
302.056
299.045
295.122
277.554
332.965
332.794
332.59
332.349
332.064
331.724
331.321
330.838
330.261
329.571
328.754
327.796
326.695
325.459
324.097
322.623
321.039
319.358
317.59
315.75
313.836
311.853
309.789
307.63
305.353
302.912
300.239
297.168
293.102
274.292
332.965
332.794
332.591
332.351
332.067
331.729
331.328
330.848
330.275
329.591
328.78
327.832
326.743
325.519
324.174
322.717
321.157
319.502
317.765
315.957
314.089
312.157
310.163
308.089
305.913
303.611
301.138
298.421
295.287
291.064
270.972
332.965
332.795
332.593
332.353
332.07
331.734
331.335
330.857
330.288
329.609
328.805
327.865
326.786
325.575
324.244
322.805
321.264
319.632
317.922
316.145
314.311
312.427
310.486
308.484
306.397
304.2
301.871
299.363
296.603
293.4
289.004
267.584
332.966
332.796
332.593
332.355
332.072
331.738
331.34
330.866
330.3
329.625
328.827
327.894
326.825
325.625
324.307
322.883
321.36
319.749
318.063
316.314
314.513
312.664
310.772
308.825
306.813
304.708
302.488
300.13
297.588
294.781
291.505
286.917
264.232
332.965
332.796
332.594
332.356
332.075
331.742
331.345
330.874
330.311
329.64
328.847
327.921
326.86
325.671
324.364
322.954
321.447
319.855
318.19
316.467
314.693
312.877
311.023
309.126
307.172
305.145
303.02
300.776
298.389
295.81
292.955
289.601
284.795
260.988
332.966
332.796
332.596
332.358
332.077
331.745
331.351
330.881
330.321
329.654
328.865
327.946
326.892
325.712
324.417
323.019
321.527
319.951
318.306
316.604
314.856
313.07
311.249
309.391
307.49
305.523
303.478
301.332
299.063
296.646
294.029
291.122
287.683
282.634
257.75
332.966
332.797
332.596
332.359
332.08
331.748
331.356
330.888
330.33
329.666
328.883
327.968
326.922
325.749
324.464
323.078
321.599
320.039
318.411
316.729
315.003
313.243
311.452
309.629
307.768
305.856
303.874
301.811
299.644
297.349
294.9
292.243
289.282
285.748
280.423
254.423
332.966
332.797
332.597
332.361
332.082
331.752
331.359
330.894
330.338
329.678
328.898
327.989
326.948
325.783
324.507
323.132
321.666
320.119
318.507
316.842
315.137
313.399
311.635
309.844
308.018
306.148
304.223
302.226
300.144
297.954
295.632
293.149
290.45
287.43
283.793
278.153
250.984
332.966
332.797
332.598
332.363
332.084
331.755
331.364
330.899
330.346
329.688
328.912
328.008
326.973
325.815
324.547
323.18
321.726
320.192
318.594
316.946
315.258
313.542
311.8
310.036
308.243
306.411
304.529
302.59
300.577
298.476
296.262
293.911
291.393
288.649
285.567
281.815
275.806
247.406
332.966
332.798
332.599
332.363
332.086
331.757
331.368
330.905
330.353
329.699
328.925
328.025
326.996
325.844
324.582
323.225
321.78
320.258
318.674
317.04
315.37
313.672
311.951
310.211
308.446
306.646
304.804
302.91
300.957
298.927
296.805
294.566
292.184
289.631
286.838
283.688
279.807
273.357
243.666
332.96
332.798
332.599
332.364
332.087
331.76
331.372
330.91
330.361
329.707
328.938
328.041
327.016
325.87
324.615
323.266
321.83
320.319
318.747
317.127
315.471
313.79
312.088
310.37
308.629
306.859
305.05
303.197
301.291
299.323
297.275
295.131
292.865
290.451
287.858
285.016
281.793
277.766
270.782
239.74
332.966
332.763
332.6
332.366
332.089
331.762
331.375
330.914
330.367
329.716
328.949
328.056
327.036
325.894
324.646
323.303
321.876
320.374
318.812
317.205
315.564
313.897
312.214
310.514
308.796
307.051
305.273
303.454
301.59
299.671
297.687
295.619
293.451
291.157
288.71
286.076
283.179
279.877
275.684
268.056
235.605
332.966
332.795
332.518
332.367
332.091
331.765
331.378
330.919
330.373
329.724
328.96
328.07
327.054
325.917
324.674
323.337
321.918
320.424
318.873
317.277
315.648
313.997
312.328
310.646
308.949
307.227
305.474
303.687
301.858
299.982
298.048
296.047
293.959
291.766
289.443
286.96
284.281
281.327
277.937
273.555
265.149
231.252
332.964
332.794
332.588
332.218
332.092
331.767
331.381
330.923
330.378
329.732
328.969
328.083
327.07
325.938
324.7
323.369
321.956
320.471
318.927
317.342
315.725
314.087
312.433
310.767
309.087
307.386
305.657
303.897
302.1
300.261
298.372
296.423
294.403
292.293
290.074
287.719
285.198
282.474
279.457
275.97
271.369
262.031
226.701
332.965
332.785
332.585
332.342
331.854
331.769
331.384
330.928
330.384
329.739
328.979
328.095
327.086
325.957
324.724
323.399
321.992
320.513
318.978
317.402
315.796
314.169
312.529
310.878
309.215
307.532
305.824
304.088
302.319
300.513
298.662
296.759
294.793
292.753
290.62
288.373
285.985
283.425
280.65
277.567
273.97
269.117
258.664
222.025
332.966
332.792
332.565
332.335
332.049
331.414
331.386
330.931
330.389
329.746
328.988
328.106
327.1
325.976
324.746
323.426
322.025
320.553
319.025
317.457
315.86
314.244
312.616
310.979
309.331
307.665
305.977
304.263
302.519
300.74
298.924
297.059
295.141
293.157
291.097
288.938
286.662
284.239
281.637
278.81
275.653
271.934
266.787
255.014
217.384
332.966
332.798
332.582
332.298
332.037
331.7
330.883
330.934
330.394
329.753
328.996
328.117
327.114
325.993
324.768
323.452
322.056
320.59
319.069
317.508
315.919
314.313
312.696
311.072
309.438
307.789
306.117
304.422
302.701
300.948
299.16
297.331
295.453
293.518
291.515
289.432
287.248
284.941
282.481
279.834
276.95
273.713
269.855
264.363
251.048
213.014
332.967
332.8
332.599
332.33
331.975
331.682
331.284
330.248
330.397
329.759
329.005
328.128
327.127
326.009
324.787
323.476
322.084
320.624
319.109
317.554
315.974
314.376
312.769
311.156
309.535
307.9
306.246
304.569
302.867
301.138
299.376
297.577
295.735
293.841
291.888
289.866
287.759
285.546
283.206
280.708
278.014
275.068
271.742
267.725
261.827
246.764
209.186
332.966
332.801
332.602
332.362
332.03
331.589
331.259
330.79
329.5
329.762
329.012
328.138
327.139
326.025
324.806
323.498
322.112
320.656
319.147
317.598
316.024
314.435
312.837
311.233
309.625
308.003
306.363
304.703
303.02
301.311
299.573
297.801
295.989
294.133
292.223
290.251
288.208
286.075
283.833
281.459
278.919
276.174
273.162
269.738
265.537
259.139
242.212
206.439
332.966
332.802
332.605
332.37
332.082
331.671
331.125
330.754
330.203
328.65
329.017
328.147
327.152
326.038
324.824
323.519
322.137
320.686
319.181
317.639
316.072
314.489
312.899
311.305
309.706
308.096
306.47
304.826
303.161
301.471
299.754
298.005
296.222
294.397
292.525
290.597
288.606
286.539
284.38
282.108
279.696
277.113
274.313
271.228
267.693
263.279
256.253
237.549
204.766
332.967
332.801
332.607
332.376
332.097
331.753
331.245
330.572
330.156
329.509
327.715
328.154
327.161
326.053
324.84
323.539
322.161
320.714
319.215
317.677
316.116
314.539
312.956
311.371
309.781
308.182
306.569
304.938
303.289
301.617
299.919
298.193
296.434
294.637
292.798
290.909
288.963
286.951
284.859
282.672
280.367
277.917
275.287
272.429
269.264
265.603
260.94
253.132
232.938
203.686
332.967
332.802
332.607
332.379
332.107
331.775
331.362
330.737
329.918
329.45
328.698
326.724
327.171
326.065
324.857
323.559
322.183
320.741
319.246
317.714
316.157
314.587
313.01
311.432
309.851
308.261
306.659
305.041
303.406
301.751
300.071
298.365
296.628
294.858
293.048
291.192
289.286
287.32
285.285
283.167
280.951
278.611
276.12
273.439
270.517
267.264
263.459
258.503
249.743
228.37
202.884
332.967
332.802
332.608
332.38
332.112
331.791
331.395
330.898
330.137
329.159
328.626
327.767
325.701
326.077
324.871
323.578
322.205
320.765
319.275
317.748
316.196
314.631
313.061
311.488
309.915
308.334
306.742
305.136
303.514
301.873
300.211
298.523
296.807
295.059
293.275
291.451
289.578
287.653
285.666
283.607
281.462
279.214
276.838
274.302
271.568
268.576
265.224
261.254
255.953
246.06
223.811
202.273
332.967
332.802
332.609
332.381
332.114
331.798
331.418
330.945
330.349
329.434
328.299
327.684
326.722
324.664
324.886
323.593
322.227
320.79
319.302
317.779
316.232
314.673
313.107
311.542
309.975
308.402
306.818
305.223
303.612
301.985
300.338
298.668
296.971
295.244
293.484
291.685
289.845
287.954
286.01
283.999
281.915
279.741
277.461
275.045
272.463
269.671
266.603
263.138
258.977
253.251
242.055
219.311
201.812
332.967
332.802
332.609
332.382
332.115
331.801
331.427
330.976
330.411
329.702
328.626
327.349
326.628
325.575
323.617
323.614
322.244
320.814
319.329
317.81
316.267
314.712
313.152
311.591
310.031
308.466
306.889
305.303
303.703
302.088
300.455
298.8
297.121
295.414
293.675
291.901
290.088
288.23
286.32
284.354
282.321
280.21
278.005
275.689
273.232
270.6
267.745
264.592
261
256.614
250.344
237.714
214.947
201.442
332.967
332.803
332.609
332.383
332.117
331.803
331.432
330.989
330.453
329.781
328.944
327.716
326.328
325.472
324.346
322.563
322.269
320.833
319.356
317.839
316.3
314.749
313.194
311.639
310.084
308.525
306.956
305.377
303.787
302.183
300.562
298.922
297.259
295.57
293.851
292.1
290.311
288.481
286.605
284.675
282.687
280.628
278.488
276.252
273.899
271.398
268.711
265.786
262.538
258.8
254.15
247.18
233.048
210.844
201.091
332.977
332.803
332.61
332.384
332.118
331.805
331.435
330.995
330.47
329.835
329.042
328.07
326.716
325.248
324.235
323.049
321.496
320.865
319.377
317.868
316.331
314.784
313.234
311.684
310.134
308.58
307.018
305.447
303.864
302.27
300.66
299.033
297.385
295.713
294.013
292.282
290.516
288.712
286.864
284.969
283.018
281.005
278.92
276.751
274.481
272.088
269.538
266.793
263.792
260.436
256.53
251.567
243.72
228.145
207.196
200.793
333.172
332.833
332.61
332.385
332.12
331.808
331.438
331
330.478
329.856
329.109
328.189
327.084
325.636
324.118
322.927
321.694
320.412
319.414
317.891
316.363
314.819
313.272
311.726
310.182
308.633
307.076
305.512
303.937
302.351
300.751
299.136
297.5
295.844
294.161
292.449
290.705
288.923
287.102
285.237
283.321
281.347
279.309
277.195
274.995
272.689
270.253
267.652
264.842
261.755
258.278
254.175
248.826
239.932
223.202
204.243
200.591
333.24
333.391
332.664
332.386
332.121
331.809
331.441
331.004
330.484
329.867
329.134
328.266
327.221
325.994
324.489
322.942
321.555
320.298
319.305
317.935
316.387
314.853
313.308
311.766
310.226
308.683
307.132
305.573
304.006
302.427
300.836
299.23
297.607
295.963
294.296
292.602
290.878
289.119
287.321
285.483
283.597
281.659
279.662
277.597
275.454
273.22
270.875
268.393
265.737
262.855
259.673
256.056
251.721
245.873
235.795
218.384
202.371
200.488
333.026
333.587
333.59
332.468
332.122
331.811
331.444
331.008
330.49
329.875
329.149
328.298
327.306
326.147
324.815
323.284
321.724
320.137
318.874
318.17
316.439
314.878
313.344
311.805
310.269
308.731
307.185
305.632
304.07
302.498
300.915
299.318
297.705
296.074
294.42
292.742
291.036
289.298
287.523
285.708
283.851
281.945
279.983
277.961
275.868
273.694
271.424
269.037
266.505
263.788
260.827
257.538
253.758
249.15
242.648
231.302
213.747
201.525
200.458
333.001
332.999
333.914
333.769
332.239
331.813
331.446
331.011
330.496
329.882
329.158
328.315
327.344
326.236
324.98
323.562
322.033
320.455
318.687
317.44
317.001
314.938
313.372
311.844
310.31
308.775
307.235
305.687
304.131
302.565
300.989
299.4
297.796
296.176
294.535
292.871
291.181
289.461
287.707
285.916
284.083
282.205
280.277
278.292
276.243
274.12
271.913
269.605
267.174
264.588
261.803
258.754
255.341
251.373
246.429
239.1
226.474
209.493
201.07
200.473
332.99
332.933
332.97
334.223
333.928
331.97
331.449
331.014
330.5
329.889
329.168
328.326
327.364
326.278
325.069
323.735
322.246
320.736
319.134
317.219
316.005
315.793
313.44
311.873
310.351
308.819
307.282
305.739
304.189
302.629
301.059
299.478
297.882
296.27
294.641
292.99
291.314
289.611
287.877
286.107
284.298
282.445
280.547
278.595
276.584
274.507
272.354
270.11
267.761
265.281
262.636
259.776
256.628
253.072
248.882
243.506
235.191
221.443
205.905
200.791
200.518
332.983
332.9
332.864
332.937
334.516
334.068
331.653
331.019
330.504
329.894
329.177
328.338
327.376
326.301
325.116
323.821
322.42
320.877
319.394
317.777
315.745
314.578
314.538
311.949
310.382
308.862
307.328
305.789
304.243
302.689
301.126
299.55
297.962
296.359
294.739
293.099
291.437
289.749
288.032
286.282
284.495
282.667
280.794
278.873
276.897
274.859
272.752
270.565
268.283
265.89
263.358
260.647
257.703
254.441
250.721
246.268
240.319
230.902
216.53
203.193
200.645
200.596
332.979
332.88
332.809
332.795
332.903
334.797
334.187
331.279
330.509
329.899
329.183
328.349
327.39
326.316
325.142
323.871
322.501
321.048
319.468
318.02
316.4
314.274
313.155
313.226
310.465
308.895
307.374
305.837
304.296
302.747
301.188
299.62
298.038
296.442
294.831
293.201
291.55
289.876
288.174
286.442
284.675
282.87
281.022
279.129
277.183
275.181
273.115
270.976
268.753
266.431
263.989
261.399
258.616
255.577
252.184
248.272
243.491
236.813
226.26
211.919
201.589
200.627
200.65
332.978
332.87
332.779
332.718
332.722
332.866
335.065
334.28
330.838
329.906
329.188
328.356
327.403
326.332
325.158
323.899
322.554
321.121
319.633
318.034
316.629
315.01
312.811
311.737
311.864
308.986
307.408
305.884
304.346
302.801
301.248
299.685
298.11
296.521
294.917
293.296
291.655
289.993
288.305
286.589
284.84
283.056
281.232
279.363
277.446
275.476
273.447
271.351
269.178
266.917
264.55
262.056
259.401
256.537
253.391
249.846
245.705
240.496
232.942
221.35
207.711
200.933
200.637
200.674
332.977
332.867
332.762
332.675
332.623
332.647
332.824
335.323
334.346
330.317
329.197
328.363
327.412
326.347
325.176
323.916
322.584
321.175
319.695
318.189
316.586
315.232
313.614
311.357
310.321
310.466
307.507
305.921
304.396
302.854
301.305
299.748
298.178
296.596
294.998
293.385
291.754
290.101
288.425
286.724
284.992
283.226
281.424
279.579
277.689
275.748
273.751
271.693
269.564
267.355
265.053
262.638
260.086
257.36
254.404
251.133
247.412
242.995
237.217
228.676
216.381
204.302
200.695
200.662
200.683
332.976
332.863
332.757
332.652
332.569
332.524
332.567
332.779
335.568
334.377
329.702
328.373
327.42
326.358
325.193
323.936
322.602
321.206
319.75
318.239
316.729
315.137
313.834
312.215
309.908
308.905
309.041
306.028
304.434
302.906
301.36
299.807
298.243
296.667
295.076
293.47
291.846
290.203
288.538
286.849
285.131
283.383
281.599
279.777
277.912
275.998
274.031
272.007
269.918
267.754
265.506
263.159
260.691
258.076
255.269
252.208
248.794
244.865
240.091
233.599
224.03
211.664
202.041
200.63
200.678
200.686
332.975
332.86
332.75
332.645
332.539
332.46
332.42
332.482
332.728
335.801
334.367
328.986
327.432
326.366
325.204
323.955
322.624
321.225
319.782
318.293
316.767
315.264
313.692
312.437
310.811
308.461
307.491
307.595
304.549
302.946
301.415
299.864
298.305
296.734
295.15
293.55
291.933
290.299
288.643
286.964
285.26
283.527
281.761
279.959
278.116
276.228
274.289
272.295
270.241
268.119
265.919
263.629
261.232
258.707
256.02
253.122
249.941
246.359
242.179
236.926
229.59
219.122
207.42
201.042
200.634
200.685
200.685
332.974
332.857
332.744
332.635
332.53
332.423
332.344
332.31
332.39
332.671
336.018
334.308
328.162
326.38
325.213
323.967
322.644
321.249
319.801
318.325
316.819
315.289
313.802
312.255
311.037
309.4
307.016
306.075
306.125
303.069
301.457
299.921
298.365
296.799
295.22
293.627
292.017
290.389
288.742
287.073
285.38
283.66
281.909
280.125
278.302
276.437
274.525
272.561
270.538
268.453
266.296
264.056
261.72
259.269
256.679
253.912
250.91
247.589
243.81
239.307
233.438
225.17
214.224
203.96
200.722
200.641
200.688
200.675
332.974
332.855
332.739
332.626
332.516
332.411
332.3
332.222
332.191
332.289
332.607
336.218
334.194
327.23
325.229
323.978
322.658
321.27
319.826
318.345
316.85
315.338
313.813
312.348
310.822
309.63
307.978
305.572
304.658
304.635
301.588
299.965
298.424
296.861
295.287
293.699
292.096
290.475
288.836
287.175
285.492
283.784
282.046
280.278
278.474
276.63
274.742
272.805
270.813
268.76
266.64
264.446
262.162
259.776
257.266
254.603
251.745
248.623
245.138
241.12
236.183
229.57
220.396
209.63
201.779
200.648
200.656
200.691
200.662
332.973
332.852
332.735
332.619
332.505
332.394
332.285
332.17
332.092
332.062
332.179
332.534
336.395
334.017
326.197
323.995
322.669
321.284
319.849
318.37
316.871
315.369
313.858
312.346
310.9
309.389
308.217
306.546
304.13
303.238
303.126
300.104
298.469
296.923
295.351
293.769
292.172
290.557
288.924
287.272
285.597
283.899
282.174
280.419
278.631
276.807
274.94
273.028
271.064
269.042
266.957
264.802
262.566
260.235
257.793
255.218
252.473
249.51
246.248
242.57
238.241
232.744
225.283
215.473
205.612
200.901
200.636
200.665
200.693
200.649
332.973
332.851
332.73
332.612
332.495
332.379
332.264
332.151
332.032
331.951
331.922
332.057
332.451
336.547
333.78
325.07
322.687
321.297
319.863
318.394
316.897
315.389
313.889
312.386
310.886
309.454
307.957
306.799
305.105
302.687
301.812
301.598
298.617
296.969
295.416
293.836
292.243
290.635
289.009
287.364
285.697
284.007
282.293
280.551
278.777
276.97
275.123
273.233
271.295
269.302
267.249
265.129
262.934
260.654
258.271
255.768
253.118
250.279
247.195
243.77
239.855
235.109
228.928
220.609
210.775
202.635
200.677
200.642
200.668
200.693
200.639
332.972
332.849
332.727
332.606
332.486
332.366
332.245
332.126
332.008
331.882
331.798
331.77
331.922
332.358
336.668
333.48
323.859
321.316
319.876
318.409
316.921
315.415
313.907
312.415
310.922
309.43
308.009
306.525
305.374
303.654
301.244
300.38
300.05
297.125
295.464
293.903
292.313
290.71
289.09
287.451
285.792
284.111
282.405
280.674
278.913
277.12
275.291
273.42
271.505
269.539
267.517
265.43
263.273
261.036
258.706
256.266
253.694
250.959
248.013
244.787
241.168
236.94
231.66
224.694
215.737
206.542
201.114
200.639
200.65
200.668
200.691
200.628
332.972
332.848
332.725
332.602
332.478
332.354
332.229
332.103
331.978
331.853
331.721
331.632
331.603
331.774
332.253
336.754
333.126
322.577
319.897
318.423
316.936
315.44
313.935
312.433
310.949
309.462
307.975
306.563
305.092
303.943
302.194
299.8
298.938
298.485
295.629
293.952
292.382
290.782
289.167
287.535
285.882
284.208
282.511
280.789
279.039
277.259
275.445
273.593
271.699
269.757
267.762
265.707
263.584
261.386
259.102
256.719
254.215
251.565
248.733
245.662
242.269
238.408
233.762
227.832
220.067
211.033
203.161
200.711
200.643
200.651
200.668
200.69
200.615
332.972
332.847
332.723
332.598
332.472
332.344
332.215
332.084
331.951
331.819
331.686
331.545
331.452
331.422
331.612
332.139
336.805
332.721
321.233
318.444
316.95
315.456
313.959
312.46
310.966
309.487
308.003
306.52
305.119
303.659
302.504
300.724
298.353
297.487
296.903
294.126
292.433
290.854
289.241
287.615
285.968
284.302
282.612
280.898
279.158
277.39
275.589
273.753
271.877
269.957
267.987
265.96
263.87
261.709
259.466
257.131
254.687
252.111
249.373
246.428
243.211
239.619
235.43
230.256
223.583
215.238
206.729
201.272
200.638
200.647
200.651
200.668
200.69
200.599
332.972
332.846
332.721
332.595
332.467
332.336
332.202
332.066
331.928
331.787
331.646
331.504
331.354
331.257
331.229
331.439
332.018
336.823
332.273
319.835
316.972
315.469
313.975
312.484
310.994
309.504
308.026
306.544
305.067
303.674
302.223
301.057
299.246
296.903
296.023
295.304
292.616
290.906
289.316
287.691
286.051
284.391
282.708
281.002
279.271
277.512
275.723
273.901
272.041
270.14
268.192
266.192
264.132
262.004
259.8
257.508
255.116
252.605
249.947
247.107
244.032
240.643
236.79
232.172
226.361
218.952
210.57
203.217
200.717
200.639
200.646
200.65
200.669
200.689
200.579
332.971
332.846
332.72
332.593
332.463
332.33
332.193
332.051
331.907
331.76
331.608
331.457
331.305
331.147
331.048
331.025
331.259
331.896
336.813
331.787
318.394
315.491
313.989
312.501
311.018
309.532
308.042
306.565
305.085
303.613
302.227
300.783
299.602
297.759
295.447
294.546
293.69
291.1
289.37
287.769
286.131
284.476
282.8
281.102
279.378
277.628
275.85
274.039
272.195
270.31
268.382
266.404
264.371
262.275
260.106
257.856
255.51
253.055
250.467
247.715
244.757
241.529
237.924
233.721
228.569
222.046
214.156
206.294
201.25
200.634
200.64
200.645
200.651
200.67
200.689
200.553
332.971
332.845
332.719
332.592
332.46
332.325
332.185
332.04
331.889
331.735
331.576
331.414
331.253
331.091
330.927
330.829
330.816
331.077
331.775
336.78
331.267
316.916
314.01
312.516
311.035
309.556
308.07
306.58
305.104
303.627
302.159
300.779
299.339
298.137
296.262
293.986
293.052
292.059
289.574
287.825
286.21
284.558
282.889
281.197
279.481
277.739
275.969
274.17
272.337
270.468
268.557
266.6
264.591
262.522
260.387
258.174
255.871
253.465
250.938
248.263
245.404
242.306
238.894
235.001
230.35
224.563
217.383
209.557
202.86
200.706
200.628
200.639
200.645
200.652
200.672
200.688
200.533
332.971
332.844
332.717
332.589
332.458
332.322
332.179
332.03
331.875
331.713
331.547
331.377
331.202
331.032
330.862
330.697
330.606
330.609
330.9
331.663
336.73
330.717
315.414
312.536
311.051
309.573
308.095
306.608
305.118
303.644
302.168
300.704
299.327
297.89
296.662
294.755
292.518
291.543
290.414
288.038
286.269
284.641
282.973
281.288
279.579
277.844
276.083
274.293
272.471
270.614
268.719
266.78
264.793
262.75
260.643
258.464
256.202
253.842
251.368
248.759
245.985
242.998
239.738
236.084
231.813
226.611
220.144
212.642
205.387
201.084
200.63
200.63
200.638
200.646
200.653
200.673
200.685
200.514
332.97
332.842
332.716
332.587
332.455
332.319
332.175
332.023
331.864
331.697
331.522
331.343
331.16
330.974
330.795
330.623
330.462
330.384
330.41
330.732
331.559
336.668
330.136
313.893
311.07
309.588
308.111
306.632
305.146
303.656
302.182
300.707
299.246
297.872
296.434
295.175
293.239
291.039
290.015
288.754
286.494
284.701
283.058
281.375
279.672
277.945
276.192
274.41
272.598
270.752
268.871
266.948
264.979
262.958
260.878
258.73
256.503
254.186
251.762
249.212
246.509
243.617
240.483
237.017
233.04
228.295
222.458
215.439
208.135
202.235
200.675
200.624
200.63
200.638
200.646
200.653
200.673
200.682
200.492
332.969
332.841
332.714
332.585
332.453
332.315
332.171
332.018
331.856
331.684
331.503
331.314
331.121
330.926
330.731
330.549
330.38
330.23
330.172
330.223
330.576
331.466
336.595
329.527
312.357
309.608
308.126
306.649
305.17
303.683
302.192
300.718
299.244
297.786
296.411
294.969
293.676
291.713
289.552
288.468
287.08
284.938
283.12
281.463
279.762
278.043
276.296
274.522
272.719
270.884
269.013
267.104
265.152
263.151
261.094
258.974
256.779
254.501
252.122
249.625
246.987
244.176
241.148
237.832
234.089
229.7
224.384
217.921
210.779
204.156
200.875
200.625
200.624
200.63
200.639
200.647
200.653
200.673
200.678
200.469
332.969
332.839
332.711
332.582
332.449
332.312
332.167
332.014
331.849
331.674
331.488
331.292
331.088
330.881
330.676
330.477
330.297
330.139
330.007
329.973
330.052
330.434
331.382
336.514
328.887
310.813
308.146
306.664
305.187
303.707
302.219
300.727
299.252
297.777
296.321
294.944
293.495
292.165
290.177
288.051
286.903
285.393
283.371
281.527
279.853
278.135
276.396
274.629
272.834
271.008
269.148
267.252
265.314
263.33
261.294
259.197
257.032
254.788
252.45
250.002
247.422
244.682
241.745
238.553
234.998
230.893
225.997
220.055
213.207
206.42
201.539
200.639
200.623
200.624
200.63
200.639
200.646
200.654
200.674
200.674
200.444
332.969
332.838
332.709
332.578
332.445
332.307
332.162
332.008
331.844
331.666
331.476
331.274
331.062
330.844
330.626
330.416
330.218
330.049
329.908
329.8
329.792
329.898
330.306
331.307
336.425
328.216
309.265
306.684
305.202
303.725
302.243
300.753
299.259
297.783
296.306
294.851
293.47
292.01
290.64
288.629
286.538
285.317
283.691
281.792
279.919
278.229
276.491
274.733
272.945
271.127
269.276
267.39
265.465
263.497
261.478
259.404
257.265
255.051
252.75
250.346
247.819
245.144
242.286
239.199
235.797
231.922
227.366
221.881
215.412
208.662
202.819
200.72
200.619
200.623
200.625
200.631
200.638
200.646
200.655
200.674
200.668
200.419
332.968
332.836
332.706
332.574
332.44
332.302
332.156
332.003
331.838
331.66
331.467
331.261
331.042
330.815
330.584
330.361
330.151
329.962
329.81
329.693
329.61
329.628
329.76
330.191
331.24
336.33
327.512
307.714
305.221
303.739
302.26
300.777
299.284
297.787
296.309
294.831
293.376
291.988
290.513
289.1
287.071
285.008
283.711
281.974
280.201
278.297
276.588
274.831
273.051
271.241
269.399
267.523
265.609
263.653
261.651
259.595
257.479
255.293
253.024
250.66
248.18
245.563
242.777
239.78
236.504
232.819
228.541
223.445
217.382
210.77
204.545
200.988
200.609
200.619
200.624
200.626
200.63
200.637
200.646
200.657
200.673
200.661
200.393
332.968
332.835
332.703
332.57
332.435
332.296
332.15
331.995
331.831
331.653
331.46
331.251
331.028
330.792
330.552
330.314
330.091
329.89
329.718
329.588
329.497
329.44
329.481
329.637
330.087
331.18
336.229
326.774
306.164
303.758
302.275
300.794
299.307
297.811
296.311
294.83
293.349
291.893
290.496
289.002
287.546
285.501
283.461
282.086
280.239
278.597
276.658
274.931
273.152
271.35
269.516
267.649
265.745
263.801
261.813
259.774
257.677
255.515
253.276
250.947
248.51
245.944
243.222
240.306
237.137
233.609
229.56
224.79
219.109
212.709
206.397
201.651
200.62
200.61
200.619
200.624
200.626
200.63
200.637
200.646
200.659
200.673
200.65
200.37
332.967
332.833
332.7
332.566
332.429
332.289
332.142
331.988
331.822
331.645
331.452
331.242
331.016
330.776
330.527
330.279
330.04
329.825
329.64
329.489
329.385
329.32
329.287
329.351
329.526
329.994
331.125
336.121
325.996
304.615
302.294
300.809
299.324
297.834
296.334
294.83
293.346
291.861
290.401
288.993
287.477
285.976
283.92
281.896
280.441
278.491
276.978
275.004
273.256
271.455
269.63
267.77
265.875
263.942
261.965
259.941
257.862
255.722
253.508
251.21
248.811
246.292
243.626
240.781
237.707
234.311
230.454
225.956
220.621
214.477
208.193
202.734
200.695
200.593
200.609
200.619
200.624
200.625
200.629
200.637
200.647
200.661
200.673
200.632
200.346
332.966
332.831
332.697
332.562
332.423
332.281
332.133
331.978
331.812
331.634
331.441
331.232
331.006
330.762
330.508
330.25
330.001
329.77
329.571
329.407
329.281
329.201
329.162
329.151
329.233
329.428
329.911
331.076
336.009
325.179
303.069
300.827
299.339
297.851
296.356
294.851
293.342
291.853
290.365
288.9
287.478
285.938