/*--------------------------------*- C++ -*----------------------------------*\
| =========                 |                                                 |
| \\      /  F ield         | OpenFOAM: The Open Source CFD Toolbox           |
|  \\    /   O peration     | Version:  v2012                                 |
|   \\  /    A nd           | Website:  www.openfoam.com                      |
|    \\/     M anipulation  |                                                 |
\*---------------------------------------------------------------------------*/
FoamFile
{
    version     2.0;
    format      ascii;
    class       volScalarField;
    location    "0";
    object      I1_4;
}
// * * * * * * * * * * * * * * * * * * * * * * * * * * * * * * * * * * * * * //

dimensions      [0 0 0 0 0 0 0];


internalField   nonuniform List<scalar> 
31383
(
-0.191038
-9.99037
-0.0183598
-33.5308
-4.53576
-0.00660946
-1481.98
-8.22321
-1.91975
-0.0033148
-1.70592
-54.6962
-8.26856
-0.923119
-0.00191184
-1.49691
-0.380961
-3.70125
-12.5842
-0.465409
-0.00121877
-2.80354
-0.306111
-0.290415
-0.814674
-72.634
-0.258996
-0.000842211
-3.57041
-0.562541
-0.191019
-0.282243
-0.265543
-38.7414
-0.13821
-0.000607285
-3.09204
-0.742928
-0.343484
-0.137699
-0.391419
-0.104618
-2.93239
-0.0694131
-0.000448337
-30.9955
-0.676899
-0.49072
-0.24484
-0.115684
-1.12319
-0.0463566
-0.695211
-0.0369736
-0.000332952
-66.3833
-6.01115
-0.541471
-0.414358
-0.203672
-0.111319
-22.2592
-0.0221429
-0.230392
-0.0225746
-0.000236904
-73.1534
-12.038
-3.65696
-0.595768
-0.444713
-0.195153
-0.128824
-0.239803
-0.0111797
-0.089436
-0.016559
-0.000164711
-157.142
-13.3824
-6.68899
-2.76537
-0.848702
-0.723179
-0.227131
-0.203796
-0.0440512
-0.0060629
-0.0408344
-0.025193
-0.00707538
-626.114
-27.8822
-7.28608
-4.36792
-2.52416
-3.79348
-4.7191
-0.376328
-0.780786
-0.0134154
-0.00327529
-0.0204205
-0.153838
-0.00618709
-12449.1
-98.5867
-14.7548
-4.56213
-3.32928
-3.06521
-2.88723
-1.45387
-1.90515
-2.75058
-0.0051628
-0.00194423
-0.0110434
-0.0646262
-0.00369043
-11572.7
-1524.11
-48.2055
-8.96167
-3.26752
-2.92774
-6.83822
-0.1633
-0.116011
-1.88718
-0.103305
-0.00235264
-0.0011793
-0.00644472
-20.2436
-0.00389004
-1932.73
-5209.05
-434.097
-27.421
-6.24168
-2.60621
-3.1274
-17473.2
-0.0329428
-0.0258213
-0.117529
-0.0231619
-0.00122073
-0.000771322
-0.003989
-6.08064
-0.0029658
-855.035
-876.135
-127269
-199.911
-18.4288
-4.82109
-2.32244
-4.66712
-2.08703
-0.0097286
-0.00831742
-0.028575
-0.00837261
-0.00070226
-0.000530082
-0.00255052
-0.000464554
-0.0126743
-481.282
-392.888
-1376.28
-14217.3
-117.768
-13.9809
-4.17687
-2.47438
-17.5144
-0.315914
-0.00358903
-0.00339499
-0.0106374
-0.00390443
-0.000438395
-0.000378548
-0.00160619
-0.000233795
-0.012821
-925.655
-220.085
-498.741
-2892.73
-2336.62
-89.5142
-12.3453
-4.17089
-3.29763
-48.3566
-0.0870371
-0.00154776
-0.00163559
-0.00504325
-0.00214772
-0.000293432
-0.000284319
-0.00107775
-0.000137466
-0.00347312
-69134.7
-419.046
-266.95
-746.428
-17462.4
-1454.68
-94.1441
-13.4097
-5.33437
-8.17642
-1.6389
-0.0318779
-0.000756486
-0.000892657
-0.00282004
-0.00132474
-0.000209907
-0.000218345
-0.000763565
-9.01522e-05
-0.00287712
-3248.25
-44385.2
-1356.97
-379.813
-1743.11
-169103
-2875.31
-174.763
-21.0429
-11.9917
-233315
-0.342365
-0.0141139
-0.000412781
-0.000532341
-0.00174985
-0.00088718
-0.000155949
-0.000173454
-0.000568249
-6.40446e-05
-0.0122726
-354.48
-215.694
-352.803
-1.02434e+08
-836.858
-3273.08
-7333.89
-5352.28
-33752
-107.407
-414.446
-3.89153
-0.120847
-0.00730985
-0.000249687
-0.000347796
-0.00116348
-0.000633015
-0.000120512
-0.000141104
-0.000439662
-0.0604177
-0.0129454
-10.3902
-9465.94
-42.6723
-72.5379
-681.766
-1762.43
-1526.23
-460.837
-125.212
-64.1312
-77.7293
-10.551
-0.715426
-0.0553303
-0.0042935
-0.000163603
-0.000239958
-0.000827493
-0.000474549
-9.6231e-05
-0.000117573
-0.000350888
-0.0467812
-0.0148914
-4.17393
-39.3043
-26.3495
-14.0004
-26.4468
-206.003
-1135.76
-246.662
-63.2065
-20.547
-9.20301
-5.3865
-1.61119
-0.24839
-0.0300903
-0.00275587
-0.00011323
-0.000174576
-0.000618899
-0.000370033
-7.88924e-05
-9.971e-05
-0.000288555
-2.9963e-05
-0.0189152
-1.15281
-47.9755
-13.7305
-6.21295
-5.89711
-14.1685
-148.97
-206.618
-44.6998
-13.2967
-5.24437
-2.44635
-1.38252
-0.52719
-0.117175
-0.0183425
-0.001879
-8.2736e-05
-0.000132801
-0.000481486
-0.000298199
-6.62222e-05
-8.60051e-05
-0.000241004
-0.0160509
-0.0283417
-0.938218
-3.78763
-1.38409
-1.89029
-2.18939
-3.30091
-10.3117
-376.515
-36.5347
-10.2815
-3.70529
-1.75717
-0.90215
-0.541471
-0.241242
-0.0654198
-0.0121558
-0.00135382
-6.29425e-05
-0.000104709
-0.000387567
-0.000246951
-5.66839e-05
-7.52368e-05
-0.000205807
-0.013501
-0.116767
-8.24369
-0.74941
-1.04532
-0.351376
-0.540398
-1.09075
-2.35186
-11.2678
-348.1
-8.14944
-3.01739
-1.36794
-0.729495
-0.414756
-0.268231
-0.132801
-0.0408534
-0.00853182
-0.00102009
-4.96515e-05
-8.51046e-05
-0.00032037
-0.000209237
-4.938e-05
-6.66165e-05
-0.000179825
-0.00750478
-0.463384
-9.68738
-2.82631
-9.08878
-0.209345
-0.122235
-0.239951
-0.726628
-2.22963
-30.1525
-13.4504
-2.2807
-1.07981
-0.583434
-0.35625
-0.223992
-0.153731
-0.0814021
-0.0277189
-0.00631945
-0.000798866
-4.03934e-05
-7.09398e-05
-0.000271203
-0.000180789
-4.35718e-05
-5.94961e-05
-0.000157812
-0.00654993
-10.4579
-6.64176
-2.70777
-2.99072
-1.22821
-0.0615364
-0.0548227
-0.148589
-0.651269
-3.57136
-103.621
-2.37587
-0.787795
-0.452988
-0.287176
-0.198679
-0.135334
-0.0970614
-0.0545762
-0.0200118
-0.00488085
-0.000645071
-3.37135e-05
-6.03389e-05
-0.00023391
-0.000158626
-0.735714
-5.26798e-05
-0.00014004
-0.00375733
-0.207548
-5.28298
-1.88391
-2.2245
-8.75204
-0.226654
-0.0229682
-0.0334788
-0.125346
-0.982814
-53.3404
-2.65226
-0.657384
-0.333991
-0.221481
-0.16148
-0.121889
-0.0884634
-0.0662663
-0.0391166
-0.0151689
-0.00391053
-0.000535585
-2.87174e-05
-5.22994e-05
-0.000205145
-0.000140878
-0.6621
-4.77105e-05
-0.000124062
-0.0120433
-0.0217567
-5.28032
-1.37771
-1.34556
-2.61979
-13.2416
-0.052012
-0.012772
-0.0259922
-0.169256
-10.4778
-2.55529
-0.494428
-0.241936
-0.162024
-0.122699
-0.0990596
-0.0804335
-0.061835
-0.0481232
-0.0295579
-0.0119782
-0.00321851
-0.000454728
-2.49247e-05
-4.60256e-05
-0.00018206
-0.00012842
-3.1754e-05
-4.33638e-05
-0.000110865
-0.00868753
-0.00677755
-5.418
-1.31724
-0.961231
-1.14887
-2.4521
-204.039
-0.019552
-0.00929199
-0.0284005
-1.02021
-0.876893
-0.301774
-0.155572
-0.110091
-0.0885803
-0.0752125
-0.0654815
-0.0566658
-0.0456148
-0.0365091
-0.0231825
-0.00975085
-0.00271314
-0.000393615
-2.19245e-05
-4.09678e-05
-0.000163277
-0.000116144
-2.89625e-05
-3.95775e-05
-0.0404907
-0.00628858
-0.0137567
-6.41025
-1.31713
-0.901044
-0.753913
-1.19557
-1.83934
-1.61169
-0.013199
-0.00919821
-0.0638847
-0.253724
-0.0928947
-0.0819064
-0.0649916
-0.0587776
-0.0543054
-0.0496244
-0.0460456
-0.0419078
-0.0349935
-0.0288478
-0.018839
-0.00816238
-0.00233696
-0.000345652
-1.95215e-05
-3.68031e-05
-0.000147744
-0.000105797
-2.65589e-05
-3.61928e-05
-0.0360122
-0.0100155
-0.00425945
-16.7292
-1.52524
-0.907464
-0.687635
-0.674359
-0.929716
-3.60947
-0.75211
-0.011879
-0.015988
-3.90271
-0.0212879
-0.0240338
-0.0312074
-0.0331366
-0.0346941
-0.0355165
-0.0348416
-0.0341102
-0.0323096
-0.0278953
-0.0235635
-0.0157399
-0.00698118
-0.00204726
-0.000307402
-1.75538e-05
-3.3372e-05
-0.000134538
-9.69061e-05
-2.44506e-05
-3.36848e-05
-7.925e-05
-0.00804506
-0.000945048
-23.6361
-4.08106
-0.965876
-0.719538
-0.602374
-0.655539
-0.575116
-44.8858
-0.701843
-0.0184826
-0.388472
-0.0144156
-0.0052401
-0.00910703
-0.0151493
-0.018888
-0.0223229
-0.0248974
-0.0256745
-0.0263141
-0.0258168
-0.022887
-0.0197445
-0.0134524
-0.00607765
-0.00181461
-0.000276161
-1.59134e-05
-3.04357e-05
-0.000123321
-8.92435e-05
-2.25854e-05
-3.09134e-05
-7.09961e-05
-0.00563201
-0.00134711
-17.9021
-6.64826
-2.65993
-0.711474
-0.614141
-0.593537
-0.612508
-0.627688
-36.5222
-1.42347
-0.212068
-0.0105614
-0.0025968
-0.00195165
-0.00435363
-0.00846856
-0.0119764
-0.0154054
-0.0182758
-0.0197818
-0.0209874
-0.0211926
-0.0192676
-0.0168807
-0.0116763
-0.00536593
-0.00162515
-0.000250062
-1.45265e-05
-2.79657e-05
-0.000113596
-8.25618e-05
-2.09249e-05
-2.83291e-05
-0.0104875
-0.0119565
-0.0014517
-1.76157e+07
-4.01868
-4.16645
-1.98057
-0.585005
-0.581112
-0.583089
-0.468972
-0.867075
-7.73956
-30.1982
-0.018611
-0.00138383
-0.000856979
-0.000911472
-0.00243255
-0.00526032
-0.00811903
-0.0112144
-0.0140467
-0.015759
-0.0172108
-0.0178505
-0.0165212
-0.0146928
-0.0102961
-0.00479512
-0.00146925
-0.000228097
-1.33384e-05
-2.57877e-05
-0.000105129
-0.117493
-1.89222e-05
-2.59499e-05
-0.0092103
-0.00942779
-0.00118804
-73.8029
-5167.88
-2.95413
-3.13936
-1.65512
-0.525804
-0.657455
-0.44332
-0.247744
-0.602012
-1.30116
-0.226587
-0.00213413
-0.000419957
-0.000381334
-0.000501469
-0.00149589
-0.00352812
-0.00583115
-0.00851917
-0.0111575
-0.0129357
-0.0144587
-0.0153476
-0.0144218
-0.012971
-0.00919489
-0.00432758
-0.00133808
-0.000209471
-1.23179e-05
-2.39115e-05
-9.76973e-05
-0.109422
-1.75902e-05
-0.0215804
-4.93521e-05
-0.00683191
-0.00141875
-0.184024
-100.683
-275.413
-2.515
-2.83286
-1.49187
-0.508441
-0.779705
-0.311437
-0.190772
-0.359313
-0.310367
-0.0388849
-0.000597038
-0.000178987
-0.000202211
-0.000307933
-0.00100283
-0.00253132
-0.00441123
-0.00673313
-0.00913784
-0.0108608
-0.0124175
-0.0133903
-0.0127587
-0.0115806
-0.00828899
-0.00393344
-0.00122651
-0.000193129
-1.14258e-05
-2.2252e-05
-9.25977e-05
-6.66158e-05
-1.63544e-05
-0.0196557
-0.0036098
-0.0102025
-0.00207883
-4.35294
-0.216938
-14.2418
-73.0218
-2.59265
-2.79316
-1.39805
-0.522966
-0.572313
-0.193302
-0.209772
-0.202509
-0.098707
-0.0125767
-0.000246202
-9.13415e-05
-0.000121025
-0.000205257
-0.000717106
-0.00190331
-0.00346027
-0.0054831
-0.0076597
-0.00931056
-0.0108402
-0.0118524
-0.0114137
-0.0104361
-0.00752699
-0.00359681
-0.00113097
-0.000179119
-1.0635e-05
-2.07756e-05
-8.65623e-05
-6.22886e-05
-1.55849e-05
-1.99308e-05
-0.0109593
-0.00799601
-0.00761306
-25.4374
-2.38362
-0.0644458
-1.36145
-23.8975
-3.29391
-2.94898
-21842.9
-0.433064
-0.271293
-0.143046
-0.149406
-0.111089
-0.0400308
-0.00544112
-0.000125636
-5.40525e-05
-7.91941e-05
-0.000145637
-0.000536815
-0.00148453
-0.00280647
-0.00458614
-0.00655993
-0.00811983
-0.00958883
-0.0106067
-0.0103132
-0.0094934
-0.0068924
-0.00331477
-0.00104758
-0.000166788
-9.93314e-06
-1.94531e-05
-8.11508e-05
-5.82948e-05
-1.44784e-05
-1.82625e-05
-0.00740414
-0.00590989
-0.0171066
-41.8836
-22.5432
-0.38825
-0.0172343
-0.325082
-10.6193
-6.08323
-2.56493
-89.9459
-0.361791
-0.146532
-0.137461
-0.100937
-0.0608665
-0.0195499
-0.00285754
-7.2823e-05
-3.50366e-05
-5.567e-05
-0.000108334
-0.000418884
-0.00120091
-0.0023402
-0.00391889
-0.0057071
-0.00717443
-0.00857338
-0.00957596
-0.00938486
-0.00869235
-0.00634545
-0.00306621
-0.000974658
-0.000155865
-9.31799e-06
-1.8262e-05
-0.0473657
-5.36946e-05
-0.0148951
-1.63707e-05
-0.00493612
-0.00467857
-0.0927544
-156.96
-25.0389
-10.2211
-0.0853714
-0.00437872
-0.112784
-6.26495
-22.8182
-1.14366
-8237.89
-0.207951
-0.11534
-0.111769
-0.0692995
-0.0356639
-0.0107939
-0.00166922
-4.68727e-05
-2.42474e-05
-4.0993e-05
-8.45173e-05
-0.000338054
-0.000996508
-0.00199189
-0.00340279
-0.00503838
-0.00641052
-0.00773378
-0.0087146
-0.00858985
-0.00799533
-0.00586642
-0.00285098
-0.000910868
-0.000146112
-8.74829e-06
-1.71836e-05
-0.0444887
-5.03029e-05
-0.0137808
-0.00432247
-0.00325629
-0.00262741
-0.219021
-1031.7
-164.428
-7.70244
-7.25178
-0.0257376
-0.00105977
-0.0479023
-4.74073
-64.9687
-0.529783
-4737.37
-0.141308
-0.0952786
-0.0815171
-0.0484112
-0.0221609
-0.00659219
-0.00107942
-3.22951e-05
-1.78729e-05
-3.17808e-05
-6.78181e-05
-0.000280337
-0.000846591
-0.00173029
-0.00300021
-0.004505
-0.00578743
-0.00703664
-0.00798518
-0.0079178
-0.00740192
-0.00545496
-0.00266294
-0.000852978
-0.000137288
-8.23928e-06
-1.68435e-05
-6.74343e-05
-0.0159187
-1.11678e-05
-0.00381929
-0.00212734
-0.000976916
-0.17705
-16.2307
-335.002
-34.6465
-2.86355
-13.7498
-0.0101338
-0.000254193
-0.023659
-4.13689
-3.59809
-0.697308
-16.0469
-0.186912
-0.0810038
-0.0597853
-0.0343573
-0.0147359
-0.00434323
-0.000754229
-2.36449e-05
-1.37002e-05
-2.54708e-05
-5.61092e-05
-0.000237991
-0.000732905
-0.0015229
-0.00268001
-0.00406451
-0.00526149
-0.00644687
-0.00736167
-0.00732953
-0.00687891
-0.00508807
-0.203822
-0.000793963
-0.000129336
-7.77036e-06
-1.58931e-05
-6.34909e-05
-0.0148853
-1.05041e-05
-0.00216299
-0.00297818
-0.00347566
-0.120136
-0.0620176
-9.39396
-36.4756
-7.53218
-1.35482
-37.2492
-0.00509368
-6.81518e-05
-0.0135705
-12.7164
-1.14839
-0.417864
-1229.96
-0.143382
-0.0702878
-0.0461161
-0.025101
-0.0102356
-0.00304179
-0.000552603
-1.81595e-05
-1.09508e-05
-2.09817e-05
-4.75632e-05
-0.000205378
-0.000643041
-0.00135624
-0.00241113
-0.00369652
-0.0048161
-0.00595116
-0.00682376
-0.00681857
-0.0064199
-0.00476702
-0.190688
-0.000748043
-0.000122122
-7.34395e-06
-1.50074e-05
-6.07351e-05
-4.17715e-05
-0.00444018
-0.00187325
-0.0035462
-0.00893987
-0.0465751
-0.0168632
-0.0238316
-3.2539
-5.35874
-1.84348
-0.841569
-3077.01
-0.00299866
-2.2922e-05
-0.00937369
-136.974
-0.601068
-0.185035
-0.161948
-0.0831746
-0.0607663
-0.035965
-0.0188051
-0.00746331
-0.00226607
-0.000423218
-1.43918e-05
-8.98948e-06
-1.77822e-05
-4.10955e-05
-0.000180457
-0.000572188
-0.00121894
-0.00218883
-0.00338327
-0.00444054
-0.00550735
-0.00634801
-0.00636943
-0.00601842
-0.00450351
-0.00220621
-0.000705994
-0.0471477
-6.4708e-06
-0.0188821
-5.61513e-05
-3.88595e-05
-0.00402491
-0.00103925
-0.00231069
-0.00878847
-0.0200015
-0.00193915
-0.00562393
-0.00921418
-1.56049
-1.0737
-0.509467
-0.87852
-744.788
-0.00196863
-1.4263e-05
-0.0080161
-142.528
-0.63122
-0.219323
-672.885
-0.0679237
-0.0477149
-0.0287973
-0.0145407
-0.00565273
-0.00174399
-0.000335929
-1.18085e-05
-7.57918e-06
-1.53201e-05
-3.61665e-05
-0.000160823
-0.000514993
-0.00110622
-0.00200095
-0.00311227
-0.00410925
-0.0051204
-0.0059296
-0.00596958
-0.00565965
-0.00424202
-0.00208193
-0.056974
-0.0446308
-0.0226548
-0.0178417
-0.00886961
-0.0050167
-0.00234019
-0.00312819
-0.00153341
-0.00657685
-0.0214011
-6.93422e-05
-0.000472671
-0.00235135
-0.00541643
-1.02922
-0.294317
-0.175775
-2.6429
-0.087439
-0.00154466
-1.38581e-05
-0.00887341
-26.8992
-0.720206
-0.252824
-526.791
-0.0563515
-0.0378194
-0.0231637
-0.0115075
-0.00445348
-0.00139515
-0.000275988
-9.90593e-06
-6.49645e-06
-1.33809e-05
-3.21294e-05
-0.000144353
-0.000467514
-0.00101145
-0.00184036
-0.00288211
-0.00382483
-0.433411
-0.005522
-0.00561616
-0.152097
-0.104057
-0.00195751
-0.0539877
-0.00010154
-0.0214495
-1.21654e-05
-0.00831351
-0.00463131
-0.00208569
-0.00207302
-0.00160482
-0.000908077
-0.0363021
-0.000436809
-1.6132e-05
-0.000257794
-0.00128897
-0.00561299
-0.89474
-0.108467
-0.079765
-82.2466
-0.0590484
-0.00152681
-1.63223e-05
-0.0137036
-17.6044
-0.709602
-0.198456
-0.0881439
-0.0474014
-0.0309681
-0.0190945
-0.00928179
-0.003606
-0.00114349
-0.000230958
-8.4853e-06
-5.66572e-06
-1.18697e-05
-2.88202e-05
-0.000130571
-0.000426881
-0.000930573
-0.00170137
-0.00268085
-0.00357387
-0.406427
-0.00519266
-0.164586
-0.14385
-0.0984764
-0.00186642
-0.000605082
-9.81712e-05
-5.8957e-06
-1.19389e-05
-4.70555e-05
-0.00275511
-0.00119034
-0.00291922
-0.00226733
-3.84387e-05
-0.0557895
-0.00336137
-0.000103935
-9.11504e-06
-0.00016729
-0.000845583
-0.00270755
-1.55796
-0.0542264
-0.0485468
-3.20442
-139.508
-0.00179652
-1.89649e-05
-0.037511
-12.4133
-0.521954
-0.146714
-0.0703074
-0.0402258
-0.0258675
-0.0159932
-0.00773143
-0.0029792
-0.00096151
-0.000198816
-7.41691e-06
-5.03226e-06
-1.06297e-05
-2.60549e-05
-0.000119177
-0.000391891
-0.000859642
-0.00158328
-0.00249956
-0.0033789
-0.00421736
-0.00490197
-0.155938
-0.00476889
-0.00357587
-0.00177094
-0.000574546
-9.31625e-05
-5.58351e-06
-0.00625217
-0.0037804
-0.00251077
-0.00372074
-0.00345801
-0.00281538
-0.000161346
-0.0887375
-0.00566748
-0.000780186
-5.80121e-05
-6.03591e-06
-0.000120772
-0.000623874
-0.00220131
-17.3594
-0.0273605
-0.0373013
-1394.58
-633.217
-0.00329048
-1.90258e-05
-1.68023
-5.30974
-0.277619
-0.111517
-0.0571518
-0.0341368
-0.0221303
-0.0135126
-0.00654137
-0.00253361
-0.000827517
-0.000173397
-6.54429e-06
-4.50227e-06
-9.63714e-06
-2.38079e-05
-0.000109493
-0.000362182
-0.000797264
-0.00147686
-0.00234235
-0.00317411
-0.00397277
-0.00465987
-0.00476359
-0.00452034
-0.00339491
-0.00168206
-0.000545377
-8.83614e-05
-5.28227e-06
-0.00587613
-0.00350859
-0.00147535
-0.00257775
-0.00338349
-0.00274379
-4.25901e-05
-0.109146
-0.00946237
-0.00127231
-0.0004437
-3.79399e-05
-4.37813e-06
-9.27239e-05
-0.000492675
-0.00201985
-2.46046
-0.0208939
-0.0376547
-0.243907
-0.23628
-0.0138814
-1.64455e-05
-0.0508916
-2.02124
-0.162528
-0.086318
-0.047135
-0.029253
-0.0190149
-0.0116982
-0.00560961
-0.00218281
-0.000721337
-0.000152695
-5.87311e-06
-4.07209e-06
-8.7855e-06
-2.18916e-05
-0.000101351
-0.000336385
-0.00074417
-0.00138349
-0.00219867
-0.00299307
-0.00375733
-0.00441268
-0.0045193
-0.00429292
-0.00322626
-0.00159819
-0.000517921
-0.00926592
-0.00575971
-9.91455e-06
-0.00210453
-0.00469502
-0.00175536
-0.00320006
-0.00315932
-1.8542e-05
-0.17365
-49.3924
-0.00215952
-0.000742211
-0.00029292
-2.74554e-05
-3.41048e-06
-7.43655e-05
-0.000425671
-0.00143723
-0.548953
-0.0195603
-0.0544657
-0.0247344
-0.0189369
-0.18845
-1.26652e-05
-0.00940067
-1.03783
-0.106196
-0.0685391
-0.0394234
-0.0254229
-0.0166321
-0.0101879
-0.00487848
-0.00191557
-0.000639081
-0.000136731
-5.29777e-06
-3.69981e-06
-8.05268e-06
-2.02277e-05
-9.40932e-05
-0.000313761
-0.000697215
-0.00130018
-0.00207583
-0.00282896
-0.0035567
-0.00418414
-0.00429523
-0.00408326
-0.00306855
-0.0186425
-0.0115513
-0.00877715
-0.00543119
-0.00267519
-0.00193185
-0.00335184
-0.00252211
-0.00207719
-0.00372737
-0.000274051
-0.422218
-5809.18
-24.7459
-0.00127654
-0.000497433
-0.000212592
-2.14122e-05
-9.40153e-06
-6.40394e-05
-0.000394125
-0.00174058
-0.257024
-0.0189688
-0.229731
-0.0095863
-0.00643469
-0.00484355
-9.20955e-06
-0.00365895
-0.624231
-0.0736682
-0.0549065
-0.0336763
-0.0220877
-0.0147166
-0.00899834
-0.00431226
-0.00169954
-0.000569363
-0.000123017
-4.8198e-06
-3.38463e-06
-7.41846e-06
-1.87066e-05
-8.78804e-05
-0.000293865
-0.000655139
-0.00122339
-0.0019591
-0.00267708
-0.00337711
-0.00397927
-0.00408217
-0.00388685
-0.00291864
-0.0177297
-0.0109638
-7.50697e-05
-4.42392e-06
-0.00248867
-0.00114707
-0.00236581
-0.00300626
-0.00237679
-0.00330392
-2.371e-05
-1.04304
-451.857
-1463.14
-80.6667
-0.000866865
-0.000362351
-0.000165369
-5.28486e-06
-2.27725e-06
-5.84699e-05
-0.000321562
-0.00158947
-0.31094
-0.0309159
-0.754528
-0.00501567
-0.00250281
-1.13749
-7.93955e-06
-0.00195452
-81.8509
-0.0522879
-0.0450216
-0.0291841
-0.0195203
-0.0131329
-0.00798738
-0.0038489
-0.00152227
-0.000514284
-0.000111895
-4.41656e-06
-3.12298e-06
-6.9023e-06
-1.74744e-05
-8.21434e-05
-0.00027574
-0.000616592
-0.00115582
-0.122017
-0.00251974
-0.00320923
-0.0482671
-0.00386761
-0.003703
-0.0178798
-0.00137312
-0.000442583
-0.00410431
-0.0024859
-0.00148753
-0.00364613
-0.0016481
-0.00292202
-0.00215177
-0.00307162
-2.37682e-05
-2.85081
-2071.38
-87.0354
-741.636
-103.689
-0.000633945
-0.000290865
-0.000121782
-2.99593e-05
-2.29947e-07
-4.83841e-05
-0.000293297
-0.00164444
-1.9665
-0.100265
-0.0395524
-0.00248542
-0.00146682
-0.516856
-5.47995e-06
-0.00125987
-54.1607
-0.0400512
-0.037437
-0.0253423
-0.0172895
-0.0117506
-0.00717159
-0.00347398
-0.0013732
-0.000467095
-0.00010279
-4.07319e-06
-2.90249e-06
-6.41958e-06
-1.63441e-05
-7.71888e-05
-0.000260297
-0.000582634
-0.00109602
-0.11577
-0.0684437
-0.00303027
-0.0459378
-0.00368716
-0.0204213
-0.0170278
-0.00130383
-0.000419043
-0.00386636
-0.00232201
-0.0048993
-0.00262218
-0.00242974
-0.00271809
-0.00153614
-0.00197561
-0.00132489
-4.78284
-36124.4
-451.993
-40.6165
-328.045
-5.23886
-0.000509212
-0.000257484
-0.000128858
-1.17501e-05
-1.69089e-06
-4.45932e-05
-0.000287776
-0.00117506
-0.529898
-2021.05
-0.0122947
-0.00153164
-0.00103837
-0.000339962
-7.59612e-06
-0.000906862
-0.181387
-0.0314123
-0.0317665
-0.0223244
-0.0155692
-0.0106133
-0.00647741
-0.00314302
-0.00125175
-0.000427616
-9.43684e-05
-3.7651e-06
-2.69738e-06
-5.99515e-06
-1.53561e-05
-7.27195e-05
-0.00024544
-0.000551725
-0.0010564
-0.00167417
-0.0650593
-0.00290698
-0.00344074
-0.00351333
-0.0194741
-0.00251722
-0.00705057
-0.00410952
-0.00236605
-0.0013949
-0.00359514
-0.00402642
-0.00296903
-0.00231579
-0.00150908
-4.81299e-05
-0.0033485
-6.5859
-50505.3
-9698.04
-279.964
-24.1494
-178.348
-1.24196
-0.000521164
-0.000188983
-9.04229e-05
-1.03142e-05
-1.55905e-06
-4.41345e-05
-0.000319011
-0.000851998
-0.0488387
-0.0825282
-0.00559814
-0.00100231
-0.000867979
-0.000239678
-2.78204e-06
-0.000704545
-0.135795
-0.0257039
-0.0274256
-0.0199286
-0.0140339
-0.00963268
-0.00592835
-0.00287501
-0.00114562
-0.000393168
-8.73457e-05
-3.50331e-06
-2.52883e-06
-5.62465e-06
-1.4442e-05
-0.190128
-0.000221354
-0.000522534
-0.00100427
-0.00161372
-0.00217048
-0.00277196
-0.00327812
-0.0175063
-0.00320474
-0.00239237
-0.0066815
-0.00387441
-0.0022139
-0.00462516
-0.00261197
-0.00304128
-0.00292555
-0.00199376
-0.00179115
-0.00025857
-0.00165126
-8.47262
-10461.2
-11691.2
-6246.88
-282.441
-15.8653
-86.6203
-0.415359
-0.000338405
-0.000153755
-7.85821e-05
-9.56034e-06
-3.13698e-06
-4.69087e-05
-0.00030387
-0.000787029
-0.0133364
-0.017465
-0.00356379
-0.000913578
-0.00082131
-0.000179216
-0.324429
-0.000594365
-0.10649
-0.0215043
-0.0238154
-0.0179194
-0.0127666
-0.00884536
-0.0053885
-0.00263101
-0.00105752
-0.000364431
-8.14979e-05
-3.27385e-06
-2.3691e-06
-5.30389e-06
-1.36719e-05
-0.179739
-0.000210044
-0.000496582
-0.000956188
-0.00153699
-0.00206841
-0.00264705
-0.00313065
-0.0166739
-0.00304977
-0.00742712
-0.00447007
-0.00247282
-0.00135191
-0.00341183
-0.00188208
-0.00195227
-0.00271671
-0.00167449
-0.00222828
-3.42989e-05
-0.000333452
-8.81972
-3174.26
-2335.05
-6401.5
-4438.8
-282.581
-10.9049
-50.4438
-0.179156
-0.000286762
-0.000135083
-7.20469e-05
-5.57129e-06
-6.6129e-07
-4.88933e-05
-0.000348979
-0.000726291
-0.00543119
-0.00748149
-0.00279702
-0.000867639
-0.000766368
-0.0475191
-0.259763
-0.000536107
-0.0858082
-0.0183619
-0.0210059
-0.0162029
-0.0116117
-0.00808803
-0.00497786
-0.00243212
-0.000978995
-0.000339222
-7.60491e-05
-3.08194e-06
-2.23331e-06
-5.01093e-06
-1.5885e-05
-6.19438e-05
-0.000199674
-0.000472756
-0.0439282
-0.0014475
-0.00197639
-0.0189264
-0.00298658
-0.00306508
-0.00868348
-0.00703078
-0.00421107
-0.00746694
-0.00436428
-0.00249529
-0.00290018
-0.00240802
-0.00170467
-0.00148754
-0.00249715
-9.35539e-05
-0.0456109
-14.9148
-2259.25
-546.861
-1254.28
-3936.24
-3340.51
-223.917
-8.02042
-27.088
-0.0843028
-0.000257268
-0.000126505
-6.58168e-05
-1.37699e-05
-1.67757e-06
-5.49451e-05
-0.000399077
-0.000540618
-0.00259606
-0.0048248
-0.0024274
-0.000734776
-0.000753381
-0.0426927
-1.65012e-06
-0.000509961
-0.0711748
-9.29862
-0.0183613
-0.0146871
-0.0106958
-0.00748505
-0.00461556
-0.00225348
-0.000910075
-0.000317185
-7.13781e-05
-2.89745e-06
-2.10134e-06
-0.158545
-1.20985e-05
-5.88664e-05
-0.000190058
-0.000450726
-0.0418686
-0.00138067
-0.00188641
-0.0180892
-0.0118616
-0.00925448
-0.00824294
-0.00502468
-0.00290499
-0.00179208
-0.0032342
-0.00180972
-0.00219267
-0.00238758
-0.00187326
-0.00095087
-0.00111788
-0.00182125
-0.095554
-17.9188
-1767.16
-347.699
-286.52
-799.329
-2739.48
-2639.58
-180.897
-6.01992
-18.2803
-0.0440732
-0.000241936
-0.000128109
-7.59836e-05
-1.01079e-05
-2.98179e-06
-5.71258e-05
-0.000466709
-0.000488596
-0.00147158
-0.00363466
-0.00218208
-0.000730337
-0.000802707
-0.000126449
-1.46678e-06
-0.0152022
-0.060425
-8.18763
-0.0164639
-0.0134617
-0.00986685
-0.00693417
-0.00427945
-0.00209575
-0.000848416
-0.000296465
-6.70728e-05
-2.72609e-06
-1.9953e-06
-0.150115
-1.14796e-05
-5.59502e-05
-0.000181227
-0.000441031
-0.000829777
-0.00131854
-0.00181764
-0.00230308
-0.0113168
-0.00882526
-0.00598769
-0.00473032
-0.00272953
-0.00117678
-0.00238256
-0.00281389
-0.00140583
-0.00222538
-0.00198323
-0.00116832
-1.69561e-05
-0.017822
-0.0564968
-16.4996
-1938.03
-405.761
-177.114
-194.891
-552.376
-2033.15
-2089.95
-151.427
-4.45337
-9.84294
-0.0240581
-0.000273712
-0.000123088
-7.48774e-05
-8.55066e-06
-1.4474e-06
-8.98414e-05
-0.000533715
-0.000411538
-0.000950074
-0.00283105
-0.00211919
-0.00073557
-0.000800336
-0.0223196
-1.63758e-06
-0.0151816
-0.0522951
-0.012554
-0.0148963
-0.0123172
-0.00911735
-0.00644268
-0.00398113
-0.00195725
-0.000794267
-0.00027871
-6.33261e-05
-2.57908e-06
-3.32673e-06
-4.37311e-06
-1.09301e-05
-5.33403e-05
-0.0362329
-0.0268823
-0.000778108
-0.0154399
-0.0119954
-0.00219747
-0.0026044
-0.00263943
-0.00567284
-0.00351453
-0.00193772
-0.00320729
-0.00174007
-0.00214709
-0.00264071
-0.00187695
-0.00113689
-0.00182675
-0.00201949
-0.134595
-0.131451
-14.2808
-1852.5
-258.128
-124.524
-124.158
-131.248
-406.961
-1581.69
-1655.91
-134.958
-3.54473
-6.81501
-0.0144565
-0.000253264
-0.000131327
-8.08166e-05
-1.67196e-05
-2.77142e-06
-9.99214e-05
-0.000601855
-0.000355301
-0.000676173
-0.00245258
-0.00208149
-0.000696911
-0.000819389
-0.0234518
-0.0587361
-0.000510038
-0.0454884
-0.0113269
-0.013526
-0.011391
-0.00847161
-0.00599398
-0.00371501
-0.00183818
-0.000748821
-0.000262918
-5.97746e-05
-2.45094e-06
-3.15719e-06
-4.15659e-06
-0.0514068
-4.6135e-05
-0.0345871
-0.0256934
-0.000743723
-0.0147432
-0.0114493
-0.00777641
-0.0065042
-0.00532411
-0.00426818
-0.00742302
-0.00439866
-0.00240099
-0.00269302
-0.0013938
-0.00250878
-0.00159049
-0.000675943
-0.00253763
-0.00257051
-1.81135
-0.0227566
-12.2954
-1006.22
-238.595
-167.069
-81.621
-80.7049
-97.9181
-311.94
-1249.03
-1317.35
-119.307
-2.76926
-3.80809
-0.00929811
-0.000281062
-0.000152116
-0.00010137
-1.63101e-05
-4.64202e-06
-0.000129553
-0.000667428
-0.000315308
-0.000508518
-0.254929
-0.00211166
-0.181728
-0.000877992
-0.000143346
-0.0552355
-0.000524959
-0.0400831
-0.0103124
-0.0123714
-0.010571
-0.00787786
-0.00561348
-0.00349101
-0.316845
-0.000739145
-0.000248455
-0.133587
-4.09037e-06
-3.00938e-06
-3.95817e-06
-0.0490995
-4.83354e-05
-0.000165137
-0.000374219
-0.000723112
-0.00116593
-0.00156856
-0.00740352
-0.00618395
-0.00503486
-0.00402397
-0.00277369
-0.00340091
-0.00362594
-0.00206518
-0.00266378
-0.00212954
-0.00131824
-0.000718852
-0.000588451
-0.000213251
-3.61267
-0.676785
-10.5311
-1116.86
-230.816
-153.048
-88.0492
-58.4556
-60.3858
-76.5967
-244.583
-1036
-1037.47
-112.887
-2.3383
-2.69771
-0.00643121
-0.000353057
-0.000175018
-0.000117609
-2.07736e-05
-3.78225e-06
-0.000169911
-0.000723162
-0.00028591
-0.000402375
-0.228893
-0.107739
-0.189394
-0.000941322
-0.0144571
-2.05158e-06
-0.000548459
-0.0355339
-0.00942149
-0.0114104
-0.00985418
-0.00740327
-0.00527072
-0.00327771
-0.299168
-0.000699784
-0.000236001
-0.12696
-3.89939e-06
-2.865e-06
-5.38144e-06
-9.6098e-06
-4.61046e-05
-0.000157734
-0.000357989
-0.00947418
-0.00109871
-0.00614734
-0.00521815
-0.0045755
-0.00385697
-0.00315392
-0.00217259
-0.00262382
-0.00284006
-0.00135494
-0.00256633
-0.00179293
-0.00116833
-0.0016362
-0.00175475
-0.0127862
-4.08187
-0.632935
-8.75406
-2312.1
-255.553
-102.067
-81.134
-62.1585
-46.9616
-47.166
-61.767
-200.446
-894.122
-811.362
-106.705
-2.02288
-1.64286
-0.00473267
-0.000406954
-0.000225434
-0.000148065
-2.7289e-05
-8.04396e-06
-0.000231934
-0.000773959
-0.000241013
-0.000319757
-0.00176855
-0.111101
-0.000785882
-0.00102125
-0.0159979
-1.77376e-06
-0.000581212
-0.0317828
-0.00872485
-0.0105542
-0.00920102
-0.00694681
-0.0049601
-0.00302807
-0.00153865
-0.000662111
-0.000208233
-5.07979e-05
-3.71525e-06
-2.73207e-06
-5.13545e-06
-9.18362e-06
-4.41094e-05
-0.000150854
-0.000341865
-0.00905432
-0.00595623
-0.00583471
-0.00494921
-0.00431701
-0.00758733
-0.0055882
-0.00644522
-0.00368626
-0.00192366
-0.0025762
-0.00163942
-0.00116442
-0.000608961
-0.00282422
-0.00428203
-0.35729
-4.51338
-0.474193
-6.7462
-1240.79
-271.993
-110.038
-66.7106
-57.2937
-41.0541
-36.681
-38.1059
-51.3656
-171.836
-787.055
-623.181
-107.888
-1.79367
-1.15612
-0.00376124
-0.000550239
-0.000256485
-0.000186814
-3.73432e-05
-1.01187e-05
-0.000313373
-0.000761801
-0.000217491
-0.00027905
-0.00168338
-0.00235955
-0.000825885
-0.0523825
-0.000195771
-0.0190938
-0.000628279
-0.0284552
-0.00806252
-0.00975926
-0.00861273
-0.00650995
-0.00467801
-0.00285312
-0.00145397
-0.000629383
-0.000198025
-4.84558e-05
-3.54464e-06
-0.0332137
-3.36876e-06
-8.78589e-06
-0.0131429
-0.000137619
-0.00740309
-0.000619094
-0.00569681
-0.00407532
-0.00363562
-0.00332065
-0.00607549
-0.00449329
-0.00524234
-0.00292681
-0.00241678
-0.00249062
-0.00139526
-0.00121725
-0.000649182
-0.000445485
-0.00248942
-1.26972
-3.62958
-0.985097
-5.03568
-2420.62
-281.019
-177.435
-71.8534
-55.4521
-36.8885
-32.2613
-28.1979
-31.5514
-42.4406
-148.167
-716.643
-474.856
-110.136
-1.66569
-0.793145
-0.00311623
-0.000708907
-0.000345687
-0.000252578
-5.19843e-05
-1.30271e-05
-0.000397079
-0.00075762
-0.000196459
-0.000252721
-0.00165036
-0.00256467
-0.000896781
-0.0601818
-0.0109407
-0.0178952
-0.000687549
-0.025749
-0.00749467
-0.00909687
-0.00809087
-0.00613715
-0.00442159
-0.00271165
-0.00138073
-0.000597534
-0.0610269
-5.31235e-05
-0.0342418
-0.0316777
-3.22391e-06
-8.38202e-06
-0.0125793
-0.0075267
-0.00705954
-0.00456927
-0.00383424
-0.00385291
-0.00343579
-0.00641512
-0.00489589
-0.00363732
-0.00236007
-0.00206065
-0.00248462
-0.00160142
-0.00149216
-0.000786524
-0.00296745
-0.00612268
-0.0177266
-0.982082
-3.49863
-1.05203
-4.0745
-1105
-269.112
-114.044
-73.5472
-51.4626
-41.8898
-31.2156
-27.2675
-23.5537
-26.8099
-37.033
-130.658
-674.979
-357.738
-119.148
-1.57318
-0.630552
-0.00265911
-0.00101362
-0.000456807
-0.000332433
-7.41617e-05
-2.25369e-05
-0.000538581
-0.000747327
-0.000180432
-0.00023168
-0.00164409
-0.00285823
-0.000987815
-0.00155094
-0.012794
-1.78232e-06
-0.000766266
-0.211886
-0.0068399
-0.00853308
-0.0076404