/*--------------------------------*- C++ -*----------------------------------*\
| =========                 |                                                 |
| \\      /  F ield         | OpenFOAM: The Open Source CFD Toolbox           |
|  \\    /   O peration     | Version:  v2012                                 |
|   \\  /    A nd           | Website:  www.openfoam.com                      |
|    \\/     M anipulation  |                                                 |
\*---------------------------------------------------------------------------*/
FoamFile
{
    version     2.0;
    format      ascii;
    class       volScalarField;
    location    "0";
    object      I2_2;
}
// * * * * * * * * * * * * * * * * * * * * * * * * * * * * * * * * * * * * * //

dimensions      [0 0 0 0 0 0 0];


internalField   nonuniform List<scalar> 
31383
(
-1.37014e-19
-3.45273e-24
-1.0009e-14
-3.04828e-24
-3.29069e-11
-2.5597e-16
-6.24083e-16
-1.85061e-19
-1.75023e-08
-8.02934e-14
-5.4563e-16
1.90729e-19
-1.41833e-08
-1.98127e-13
-1.39282e-08
-4.11087e-24
-1.94666e-11
5.12265e-16
-8.94595e-07
-7.88815e-12
-1.98967e-07
-2.84137e-24
-1.7419e-11
-8.46476e-17
-7.67407e-07
2.25187e-12
-0.000151397
-1.35248e-09
-4.05019e-16
-3.19341e-19
-9.52273e-09
9.42701e-15
-1.4106e-05
3.78687e-11
-0.000673294
-1.0866e-08
-3.76245e-16
-1.0555e-19
-8.67083e-09
-3.84833e-14
-1.269e-05
5.45495e-11
-0.000593492
-4.10791e-09
-4.58113e-05
-7.56179e-25
-1.3505e-11
-7.17957e-17
-5.66228e-07
-5.40436e-13
-0.00010534
4.10602e-10
-0.00178355
-1.24764e-08
-0.000168336
-1.07073e-24
-1.2655e-11
-9.96437e-18
-5.25049e-07
-4.16487e-13
-9.74214e-05
2.03356e-10
-0.00164462
4.3298e-09
-0.00718102
-1.04585e-06
-3.13346e-16
-1.32901e-19
-7.00689e-09
3.48767e-15
-1.00155e-05
1.54132e-12
-0.000464997
1.06507e-09
-0.0036753
9.88668e-09
-0.0101618
-3.07567e-06
-2.97144e-16
-1.91698e-19
-6.61847e-09
-5.26188e-15
-9.44258e-06
7.65707e-12
-0.000438576
5.57521e-10
-0.00349917
1.36706e-08
-0.00975267
-5.82076e-08
-0.00297995
-6.98422e-25
-1.07049e-11
-2.28453e-16
-4.39998e-07
2.97223e-14
-8.132e-05
8.64648e-11
-0.00139486
2.28707e-09
-0.0062221
2.57143e-08
-0.0123252
-4.924e-08
-0.00530745
-1.8804e-25
-1.01931e-11
-2.09824e-16
-4.18436e-07
-3.32637e-13
-7.76158e-05
8.02635e-11
-0.00133802
1.9174e-09
-0.00602966
1.83129e-08
-0.0120625
3.78702e-08
-0.0155708
-1.74147e-05
-2.59214e-16
-3.43236e-20
-5.69035e-09
-2.64443e-14
-8.15223e-06
-9.85222e-13
-0.000383391
4.7419e-10
-0.0031271
5.46463e-09
-0.00899511
3.05926e-08
-0.014004
4.94896e-08
-0.0163096
-2.2048e-05
-2.49758e-16
-5.28189e-21
-5.45099e-09
-1.73271e-14
-7.8109e-06
-6.01343e-12
-0.000369713
3.57568e-10
-0.00303923
5.48326e-09
-0.00882469
2.35795e-08
-0.0138535
7.88546e-08
-0.0161633
2.31629e-07
-0.0114351
1.90694e-25
-9.02093e-12
-2.794e-17
-3.66925e-07
-4.62415e-13
-6.8805e-05
-1.29201e-11
-0.00121234
1.4752e-09
-0.00559725
1.17338e-08
-0.0115214
3.59834e-08
-0.0151625
1.01129e-07
-0.0166781
4.59753e-07
-0.0122409
1.49887e-25
-8.72619e-12
-1.63951e-17
-3.53647e-07
-2.01178e-13
-6.64119e-05
-2.01161e-11
-0.00117874
1.07771e-09
-0.0054892
1.08668e-08
-0.0113857
3.24383e-08
-0.0150648
8.05238e-08
-0.0166017
1.97737e-07
-0.0171393
-3.46361e-05
-2.2794e-16
6.46134e-21
-4.89978e-09
-2.75428e-15
-6.99492e-06
-9.62499e-13
-0.000335594
3.39177e-11
-0.00283078
3.34153e-09
-0.00841366
1.92935e-08
-0.0135018
4.55114e-08
-0.0159107
1.02477e-07
-0.0169225
2.72394e-07
-0.0170788
-3.84729e-05
-2.2241e-16
-1.86916e-21
-4.76119e-09
-2.41231e-15
-6.78722e-06
-5.45267e-14
-0.000326419
7.12201e-11
-0.00276856
2.44764e-09
-0.00830044
1.71146e-08
-0.0134115
4.45421e-08
-0.0158514
8.56261e-08
-0.0168922
1.89239e-07
-0.0169949
1.66649e-06
-0.0162432
-7.87204e-26
-8.0475e-12
-2.45308e-17
-3.23198e-07
-7.28844e-14
-6.07744e-05
1.23043e-11
-0.00109375
5.54626e-10
-0.00521437
6.14697e-09
-0.0110569
2.69488e-08
-0.01486
5.87612e-08
-0.0164523
1.0766e-07
-0.0170201
2.26612e-07
-0.0168415
2.23227e-06
-0.0172178
-8.33285e-27
-7.87409e-12
-3.78751e-17
-3.15397e-07
-8.14543e-14
-5.93203e-05
1.17832e-11
-0.00107091
6.76391e-10
-0.00513593
5.33235e-09
-0.0109633
2.33066e-08
-0.0148031
5.59946e-08
-0.0164176
9.79224e-08
-0.0170063
1.87391e-07
-0.0168496
5.34268e-07
-0.0165335
-4.12401e-05
-2.09499e-16
-1.67313e-20
-4.43794e-09
-6.31242e-15
-6.30187e-06
-3.15051e-13
-0.00030462
1.19054e-10
-0.0026205
2.26559e-09
-0.00801356
1.06208e-08
-0.0131784
3.3542e-08
-0.0157329
7.20786e-08
-0.016811
1.20857e-07
-0.0169861
2.2312e-07
-0.0166401
6.46724e-07
-0.0163155
-4.01702e-05
-2.06097e-16
-1.68467e-20
-4.35508e-09
-7.20402e-15
-6.17728e-06
-1.23391e-12
-0.000298987
1.06659e-10
-0.0025808
2.15998e-09
-0.00793243
1.03946e-08
-0.0131115
2.8928e-08
-0.0157026
6.60984e-08
-0.0167873
1.17312e-07
-0.0169831
1.91781e-07
-0.0166499
3.71339e-07
-0.016103
4.58564e-06
-0.0187127
5.46995e-26
-7.4654e-12
-4.07366e-17
-2.97244e-07
-2.51536e-13
-5.59101e-05
5.98423e-13
-0.00101687
5.64463e-10
-0.00494176
5.30542e-09
-0.0107183
1.71618e-08
-0.0146588
3.94178e-08
-0.0163355
8.37574e-08
-0.0169678
1.42156e-07
-0.0168618
2.27029e-07
-0.0164011
4.32615e-07
-0.0158859
5.63521e-06
-0.0187788
1.05332e-25
-7.35476e-12
-4.92659e-17
-2.92535e-07
-2.51038e-13
-5.50243e-05
-5.97705e-12
-0.00100261
5.09658e-10
-0.00489003
5.02401e-09
-0.0106492
1.73506e-08
-0.0146159
3.55927e-08
-0.0163119
7.45303e-08
-0.0169576
1.36422e-07
-0.0168655
2.07426e-07
-0.0164146
3.57379e-07
-0.0158968
1.09934e-06
-0.0158385
-3.34322e-05
-1.97658e-16
-8.18553e-21
-4.15523e-09
-7.1626e-15
-5.88326e-06
-2.87877e-12
-0.000285554
3.22507e-11
-0.00248558
1.76376e-09
-0.00773359
9.72738e-09
-0.0129321
2.53399e-08
-0.0156122
4.69419e-08
-0.0167348
9.26784e-08
-0.0169728
1.63398e-07
-0.0166758
2.4321e-07
-0.0161502
4.12309e-07
-0.0157717
1.28845e-06
-0.0157973
-3.00898e-05
-1.9536e-16
1.25812e-20
-4.10063e-09
-6.85623e-15
-5.80519e-06
-3.07196e-12
-0.000282049
9.94639e-12
-0.0024604
1.54924e-09
-0.00767788
9.31922e-09
-0.0128828
2.45048e-08
-0.0155864
4.49437e-08
-0.016718
8.2524e-08
-0.0169711
1.51064e-07
-0.0166844
2.35081e-07
-0.0161633
3.57105e-07
-0.0157775
6.66822e-07
-0.0156513
9.75393e-06
-0.0184025
9.46139e-25
-7.08167e-12
-2.24995e-17
-2.80893e-07
-3.13567e-13
-5.29086e-05
-1.4273e-11
-0.000968683
2.5173e-10
-0.0047638
4.02349e-09
-0.0104793
1.54669e-08
-0.0145041
3.33221e-08
-0.0162469
5.76731e-08
-0.0169308
1.00951e-07
-0.0168723
1.79091e-07
-0.0164468
2.72991e-07
-0.0159324
4.10721e-07
-0.0157061
7.62758e-07
-0.015601
1.1467e-05
-0.0185699
1.65515e-24
-7.0069e-12
1.62873e-18
-2.77709e-07
-2.74321e-13
-5.23313e-05
-1.96765e-11
-0.00095968
2.14754e-10
-0.00472984
3.6689e-09
-0.0104332
1.47625e-08
-0.0144728
3.21573e-08
-0.0162288
5.73869e-08
-0.0169215
9.22896e-08
-0.0168753
1.60729e-07
-0.0164555
2.63345e-07
-0.0159406
3.75583e-07
-0.0157103
6.18025e-07
-0.0155923
2.09997e-06
-0.0157577
-1.55263e-05
-1.89707e-16
1.56192e-19
-3.96561e-09
-8.43689e-16
-5.61021e-06
-5.03681e-12
-0.000273476
-3.8954e-11
-0.0023997
1.07164e-09
-0.00754547
7.66055e-09
-0.01276
2.20012e-08
-0.015518
4.22884e-08
-0.0166735
7.15208e-08
-0.016964
1.1094e-07
-0.0167004
1.88718e-07
-0.0161939
3.0383e-07
-0.0157942
4.30393e-07
-0.0156494
7.00125e-07
-0.0155434
2.50615e-06
-0.01576
-1.0014e-05
-1.88199e-16
2.26194e-19
-3.92882e-09
1.9199e-15
-5.55648e-06
-4.97937e-12
-0.0002711
-5.84435e-11
-0.00238331
9.4986e-10
-0.00751033
7.16258e-09
-0.0127257
2.10692e-08
-0.0154975
4.13352e-08
-0.0166613
6.97757e-08
-0.0169617
1.05752e-07
-0.0167034
1.698e-07
-0.0162013
2.81697e-07
-0.0157992
4.14244e-07
-0.0156533
6.06053e-07
-0.015543
1.1177e-06
-0.0154819
1.78432e-05
-0.0172811
2.97223e-24
-6.82553e-12
1.93095e-16
-2.69813e-07
1.16826e-13
-5.08911e-05
-3.45236e-11
-0.000937189
1.23596e-11
-0.00464785
2.91169e-09
-0.0103192
1.25585e-08
-0.0143951
2.91893e-08
-0.0161809
5.33315e-08
-0.0169029
8.53296e-08
-0.016879
1.25641e-07
-0.0164746
1.976e-07
-0.0159648
3.23997e-07
-0.0157158
4.71957e-07
-0.0155971
6.82098e-07
-0.0154963
1.26221e-06
-0.0154554
2.02446e-05
-0.0156153
1.95817e-24
-6.77684e-12
2.16659e-16
-2.67687e-07
1.48339e-13
-5.04946e-05
-3.6757e-11
-0.000930949
-4.2648e-11
-0.00462519
2.48634e-09
-0.0102885
1.21196e-08
-0.0143737
2.81468e-08
-0.0161689
5.20144e-08
-0.0168958
8.33008e-08
-0.0168809
1.24431e-07
-0.0164823
1.79991e-07
-0.0159723
2.91067e-07
-0.0157193
4.56342e-07
-0.0155989
6.24378e-07
-0.0154973
9.89048e-07
-0.0154245
4.15124e-06
-0.0158124
-6.66477e-06
-1.84438e-16
2.02187e-19
-3.8399e-09
2.13008e-14
-5.42463e-06
1.27701e-12
-0.000265176
-1.05989e-10
-0.00234167
4.37163e-10
-0.00742196
5.78298e-09
-0.0126425
1.88032e-08
-0.0154506
3.79422e-08
-0.0166304
6.54322e-08
-0.0169566
1.00466e-07
-0.0167163
1.45976e-07
-0.0162259
2.0739e-07
-0.015811
3.33409e-07
-0.0156598
5.17166e-07
-0.0155461
6.9889e-07
-0.0154532
1.10028e-06
-0.0153956
4.87356e-06
-0.0158423
-2.96683e-06
-1.83285e-16
1.42915e-19
-3.81537e-09
3.07514e-14
-5.38917e-06
5.96308e-13
-0.000263544
-1.02983e-10
-0.00233008
4.21629e-10
-0.00739747
5.15915e-09
-0.0126204
1.79718e-08
-0.0154383
3.69911e-08
-0.0166217
6.42708e-08
-0.0169538
9.96214e-08
-0.0167196
1.4341e-07
-0.0162314
1.97141e-07
-0.0158136
3.00486e-07
-0.0156598
4.79144e-07
-0.0155475
6.73276e-07
-0.0154558
9.42673e-07
-0.0153872
1.79499e-06
-0.0154184
2.73218e-05
-0.0136068
-1.00155e-25
-6.64973e-12
1.47109e-16
-2.62487e-07
7.11542e-13
-4.95249e-05
4.06103e-11
-0.000915318
-5.07777e-11
-0.00456771
1.8224e-09
-0.01021
9.76773e-09
-0.0143201
2.57269e-08
-0.0161348
4.87068e-08
-0.0168813
7.96407e-08
-0.0168842
1.18888e-07
-0.0164986
1.66745e-07
-0.0159888
2.26046e-07
-0.0157253
3.42008e-07
-0.0156039
5.39557e-07
-0.0154988
7.49854e-07
-0.015416
1.03957e-06
-0.0153607
2.0118e-06
-0.0154209
2.94888e-05
-0.0129898
3.59701e-24
-6.61434e-12
-9.09398e-17
-2.61023e-07
4.0067e-13
-4.92637e-05
-4.43437e-11
-0.00091107
1.40227e-09
-0.00455135
1.96912e-09
-0.0101881
9.07368e-09
-0.0143056
2.42022e-08
-0.0161265
4.77888e-08
-0.0168752
7.87644e-08
-0.016885
1.1733e-07
-0.0165012
1.64418e-07
-0.0159934
2.23929e-07
-0.015727
3.0959e-07
-0.0156048
4.83859e-07
-0.0155011
7.28529e-07
-0.0154166
9.49914e-07
-0.0153554
1.48025e-06
-0.0153374
7.80788e-06
-0.0163124
1.32257e-05
-7.10671e-16
-7.42591e-19
-3.75077e-09
-3.67816e-15
-5.30074e-06
3.19525e-12
-0.000259583
8.35357e-11
-0.00230124
6.31591e-10
-0.00733446
4.71408e-09
-0.0125609
1.47945e-08
-0.0154048
3.32914e-08
-0.0166005
6.12934e-08
-0.0169479
9.61971e-08
-0.0167266
1.38765e-07
-0.0162479
1.89962e-07
-0.0158221
2.5576e-07
-0.0156668
3.49396e-07
-0.0155505
5.41105e-07
-0.0154574
8.08292e-07
-0.0153838
1.04144e-06
-0.0153304
1.62297e-06
-0.0153278
9.13624e-06
-0.0166167
1.95168e-05
-2.19239e-16
1.16152e-17
-3.79678e-09
-2.68511e-14
-5.27327e-06
-5.97775e-13
-0.000258481
1.23443e-10
-0.00229345
4.36834e-09
-0.00731735
5.54111e-09
-0.0125442
1.43268e-08
-0.0153949
3.15573e-08
-0.0165936
5.98551e-08
-0.0169478
9.53722e-08
-0.0167292
1.38479e-07
-0.0162516
1.90275e-07
-0.0158245
2.52621e-07
-0.0156675
3.30929e-07
-0.0155514
4.85397e-07
-0.0154562
7.46971e-07
-0.0153808
1.00574e-06
-0.0153301
1.35258e-06
-0.0153052
2.83334e-06
-0.0154809
3.17393e-05
-0.0107462
1.2354e-23
-1.08143e-11
1.01955e-14
-2.61062e-07
-1.05671e-12
-4.85753e-05
7.32736e-12
-0.000900572
9.57632e-10
-0.00451207
3.94937e-09
-0.0101329
9.71513e-09
-0.0142677
2.10501e-08
-0.0161029
4.22918e-08
-0.0168654
7.51017e-08
-0.0168851
1.15413e-07
-0.016512
1.6263e-07
-0.0160057
2.19275e-07
-0.0157315
2.87272e-07
-0.0156105
3.70446e-07
-0.0155021
5.38346e-07
-0.0154183
8.2388e-07
-0.01535
1.09827e-06
-0.0153066
1.46165e-06
-0.0152942
3.19004e-06
-0.0155204
2.87311e-05
-0.00977891
2.12835e-23
-1.14003e-11
9.7786e-15
-1.71733e-06
-2.88036e-11
-4.83851e-05
8.22964e-11
-0.000897617
1.56745e-09
-0.00450107
1.1605e-08
-0.010117
1.2534e-08
-0.0142569
2.07436e-08
-0.0160958
4.08621e-08
-0.0168627
7.25796e-08
-0.0168848
1.14299e-07
-0.0165143
1.62771e-07
-0.0160087
2.18311e-07
-0.0157316
2.84971e-07
-0.0156128
3.66645e-07
-0.0155057
4.82876e-07
-0.0154182
7.33616e-07
-0.0153511
1.0727e-06
-0.015305
1.32774e-06
-0.0152823
2.09634e-06
-0.0153331
1.40986e-05
-0.0177051
3.18068e-05
-2.80655e-16
3.07917e-18
-7.78858e-09
1.86577e-12
-2.94255e-05
-4.89929e-10
-0.000255564
5.12502e-10
-0.00227369
3.15741e-09
-0.00727407
1.17587e-08
-0.0125026
1.78491e-08
-0.0153722
2.88756e-08
-0.0165778
5.33396e-08
-0.0169423
9.00608e-08
-0.0167317
1.36728e-07
-0.0162618
1.90125e-07
-0.0158294
2.51092e-07
-0.0156706
3.22609e-07
-0.0155561
4.08254e-07
-0.0154591
5.31712e-07
-0.0153829
8.02715e-07
-0.0153249
1.16821e-06
-0.0152856
1.42237e-06
-0.0152728
2.26815e-06
-0.0153486
1.56447e-05
-0.0180969
3.1776e-05
-1.98468e-16
1.92082e-18
-1.19567e-08
-4.25376e-13
-1.0303e-05
5.56531e-10
-0.000256735
-1.72758e-10
-0.00226759
3.78564e-09
-0.00726209
1.1121e-08
-0.0124913
2.38491e-08
-0.0153647
2.95158e-08
-0.0165726
5.21362e-08
-0.016941
8.66101e-08
-0.0167335
1.35223e-07
-0.0162643
1.90377e-07
-0.0158316
2.52625e-07
-0.0156711
3.2566e-07
-0.015558
4.05812e-07
-0.0154595
5.0033e-07
-0.0153837
7.10504e-07
-0.015324
1.07285e-06
-0.0152827
1.38213e-06
-0.0152643
1.77898e-06
-0.0152926
4.62891e-06
-0.0156957
-1.60708e-05
-0.00526205
-3.37766e-24
-9.36801e-12
4.51858e-15
-8.66036e-07
-2.32852e-11
-8.65035e-05
3.81471e-09
-0.000894439
6.98263e-10
-0.00447243
2.49515e-09
-0.010078
1.68711e-09
-0.0142293
3.05926e-08
-0.0160795
3.92974e-08
-0.0168537
6.61679e-08
-0.0168854
1.06021e-07
-0.0165184
1.60376e-07
-0.0160163
2.21228e-07
-0.0157356
2.89153e-07
-0.0156137
3.66852e-07
-0.0155074
4.49207e-07
-0.01542
5.46559e-07
-0.0153517
7.70764e-07
-0.0152989
1.15938e-06
-0.0152681
1.47383e-06
-0.0152584
1.87343e-06
-0.0153017
5.25965e-06
-0.0157843
-5.21824e-05
-0.00324505
-9.76015e-24
-8.6314e-12
2.66965e-15
-6.27054e-07
-7.14806e-13
-0.000107026
7.45298e-09
-0.00281663
-7.48402e-08
-0.00446387
7.31304e-09
-0.0100672
1.04993e-08
-0.0142214
2.09289e-08
-0.0160742
4.20926e-08
-0.0168504
6.51196e-08
-0.0168854
1.03344e-07
-0.0165213
1.56715e-07
-0.0160177
2.20892e-07
-0.0157356
2.9191e-07
-0.015616
3.67395e-07
-0.015509
4.48953e-07
-0.0154204
5.42984e-07
-0.0153508
6.81858e-07
-0.0152991
1.01932e-06
-0.0152649
1.45528e-06
-0.0152512
1.67328e-06
-0.0152735
2.80024e-06
-0.0154411
1.73277e-05
-0.0188092
7.69144e-06
-1.72929e-16
-1.13211e-18
-5.43158e-09
5.47146e-13
-1.25591e-05
-8.73521e-11
-0.000520714
3.28844e-08
-0.00587699
-1.85842e-07
-0.00722962
3.85432e-09
-0.0124625
2.48843e-09
-0.0153477
3.46485e-08
-0.0165618
5.3493e-08
-0.0169385
8.09573e-08
-0.0167362
1.25253e-07
-0.0162718
1.83917e-07
-0.0158351
2.55639e-07
-0.0156739
3.33062e-07
-0.0155592
4.12263e-07
-0.0154631
4.95834e-07
-0.0153838
5.89995e-07
-0.0153238
7.30438e-07
-0.0152788
1.0906e-06
-0.0152512
1.54716e-06
-0.0152464
1.73396e-06
-0.0152804
2.9709e-06
-0.0154919
1.49953e-05
-0.0182532
7.80299e-07
-1.7211e-16
-1.76878e-18
-3.60412e-09
1.22194e-14
-8.75876e-06
4.36838e-10
-0.00070072
-1.76734e-08
-0.00310009
1.01705e-07
-0.00722505
7.88253e-09
-0.0124521
-1.29556e-08
-0.015343
3.82694e-08
-0.0165587
5.72851e-08
-0.0169372
8.07273e-08
-0.0167369
1.23029e-07
-0.0162723
1.79198e-07
-0.0158373
2.53768e-07
-0.0156749
3.35941e-07
-0.0155608
4.18451e-07
-0.0154631
5.05259e-07
-0.0153838
5.88388e-07
-0.0153251
6.81154e-07
-0.0152768
9.46214e-07
-0.0152484
1.40892e-06
-0.0152417
1.70294e-06
-0.0152601
2.05913e-06
-0.0153622
7.42136e-06
-0.0168949
-0.000154783
-4.94091e-06
-2.18538e-23
-6.15066e-12
-1.95784e-15
-2.45563e-07
1.65951e-12
-7.8053e-05
3.16649e-09
-0.00216854
-5.41542e-08
-0.00566504
1.72302e-07
-0.0100372
7.04529e-09
-0.0142017
-1.08403e-09
-0.0160621
4.68262e-08
-0.0168444
7.04935e-08
-0.0168848
9.88247e-08
-0.0165259
1.47002e-07
-0.016023
2.10241e-07
-0.0157385
2.92508e-07
-0.015617
3.80689e-07
-0.0155105
4.67732e-07
-0.0154216
5.55456e-07
-0.0153525
6.36053e-07
-0.0152979
7.22638e-07
-0.0152606
9.96935e-07
-0.0152391
1.48337e-06
-0.0152364
1.75058e-06
-0.0152685
2.06569e-06
-0.0153935
7.91847e-06
-0.0174568
-0.000162341
-3.39497e-07
-2.43608e-23
-6.1201e-12
-2.41606e-15
-2.36468e-07
-3.46479e-12
-6.89955e-05
2.92487e-09
-0.00173561
-1.31088e-08
-0.00628788
3.51147e-07
-0.0154912
-6.69167e-07
-0.0141956
-9.98251e-09
-0.0160587
4.49669e-08
-0.0168422
7.89735e-08
-0.0168845
1.00106e-07
-0.0165251
1.44965e-07
-0.0160248
2.07638e-07
-0.0157382
2.88396e-07
-0.0156156
3.82085e-07
-0.0155098
4.75253e-07
-0.0154219
5.6177e-07
-0.0153528
6.42482e-07
-0.0152994
7.24557e-07
-0.0152599
8.57238e-07
-0.0152358
1.27752e-06
-0.0152308
1.7665e-06
-0.0152513
1.76157e-06
-0.0153296
3.47536e-06
-0.015703
-1.54649e-05
-0.0133247
3.81666e-10
-1.69848e-16
-2.8441e-18
-3.40304e-09
-3.01193e-13
-4.79287e-06
-3.60473e-11
-0.000341785
1.33613e-08
-0.00401948
-1.88552e-08
-0.00919341
4.68422e-07
-0.016923
-7.29319e-07
-0.0153298
5.20271e-09
-0.0165494
5.68471e-08
-0.0169341
9.2564e-08
-0.0167382
1.20187e-07
-0.0162762
1.72056e-07
-0.015838
2.42105e-07
-0.0156764
3.30869e-07
-0.0155605
4.31415e-07
-0.0154636
5.29467e-07
-0.0153838
6.16805e-07
-0.0153245
6.92652e-07
-0.0152767
7.62652e-07
-0.0152453
8.87539e-07
-0.0152293
1.31988e-06
-0.0152317
1.80399e-06
-0.0152626
1.68752e-06
-0.0153561
3.65929e-06
-0.0158505
-3.35164e-05
-0.0118149
6.44622e-11
-1.69231e-16
-3.06336e-18
-3.3756e-09
-3.52417e-13
-4.72009e-06
-8.92006e-11
-0.000242711
2.08126e-09
-0.00292577
9.39786e-08
-0.0117764
-1.95047e-07
-0.0133726
3.70993e-07
-0.0153173
3.35359e-08
-0.0165467
4.17987e-08
-0.016934
8.6331e-08
-0.0167382
1.2223e-07
-0.0162771
1.70136e-07
-0.0158401
2.3868e-07
-0.0156777
3.24501e-07
-0.0155626
4.30713e-07
-0.0154625
5.36855e-07
-0.0153859
6.32039e-07
-0.0153214
7.15444e-07
-0.0152762
7.68511e-07
-0.0152445
8.1529e-07
-0.0152263
1.09868e-06
-0.0152257
1.6216e-06
-0.01525
1.70927e-06
-0.0153154
1.73268e-06
-0.0155426
4.12607e-06
-0.0188838
-9.77142e-05
-1.19398e-09
-2.64205e-23
-6.01596e-12
-3.37906e-15
-2.29218e-07
-1.07449e-11
-4.36086e-05
-5.65757e-10
-0.000852117
7.02727e-09
-0.00534864
1.54859e-07
-0.0143794
-1.81879e-07
-0.0147876
4.05345e-07
-0.0160398
5.46632e-08
-0.016838
5.25272e-08
-0.0168846
1.04046e-07
-0.0165283
1.44497e-07
-0.0160281
2.00612e-07
-0.015739
2.78063e-07
-0.0156176
3.69625e-07
-0.0155122
4.83762e-07
-0.0154217
5.95799e-07
-0.0153511
6.91152e-07
-0.0152971
7.68498e-07
-0.0152578
8.05359e-07
-0.0152318
8.28355e-07
-0.0152204
1.1051e-06
-0.0152247
1.62597e-06
-0.015259
1.59714e-06
-0.0153423
1.43129e-06
-0.0156106
-9.48955e-07
-0.0192132
-6.33144e-05
-3.91621e-10
-1.46328e-23
-5.99963e-12
-3.57662e-15
-2.27108e-07
-1.19401e-11
-4.32413e-05
-7.18526e-10
-0.000830591
-1.16152e-09
-0.00493648
1.54893e-07
-0.0131803
3.42077e-08
-0.0150472
4.52994e-07
-0.0177572
-4.01672e-07
-0.0168363
4.62488e-08
-0.0168829
1.01953e-07
-0.0165281
1.48211e-07
-0.016028
2.0044e-07
-0.0157399
2.74801e-07
-0.0156194
3.68494e-07
-0.0155113
4.78923e-07
-0.0154222
6.00117e-07
-0.0153527
7.08311e-07
-0.015296
7.86329e-07
-0.0152574
8.31094e-07
-0.0152314
8.41095e-07
-0.0152189
8.98555e-07
-0.0152219
1.3368e-06
-0.0152468
1.71258e-06
-0.0153143
9.95878e-07
-0.0154769
2.85753e-06
-0.0174513
-0.000116171
-0.0060553
1.02455e-12
-1.05234e-16
1.12013e-18
-3.31741e-09
-4.47087e-13
-4.59019e-06
-1.48054e-10
-0.000230315
-2.85172e-09
-0.00213157
-1.61254e-09
-0.00771357
2.14513e-07
-0.0149158
4.25786e-08
-0.015836
3.47181e-07
-0.0176002
-1.64055e-07
-0.0169312
6.32401e-08
-0.0167391
1.21479e-07
-0.0162803
1.73352e-07
-0.0158402
2.34772e-07
-0.0156779
3.18349e-07
-0.0155628
4.18406e-07
-0.0154637
5.36844e-07
-0.0153843
6.62525e-07
-0.0153234
7.72467e-07
-0.015275
8.44355e-07
-0.0152402
8.67114e-07
-0.0152219
8.47448e-07
-0.0152134
8.64595e-07
-0.0152224
1.28424e-06
-0.0152601
1.57206e-06
-0.0153405
5.22529e-07
-0.0155308
1.09728e-06
-0.0181245
-0.000148225
-0.00356785
1.4656e-13
-2.42452e-18
1.36969e-17
-3.29348e-09
-4.04779e-13
-4.55842e-06
-1.61377e-10
-0.00022835
-3.46022e-09
-0.00210784
-1.24657e-08
-0.00705933
4.90686e-08
-0.0130319
2.02296e-07
-0.0168692
1.47379e-07
-0.0165429
2.85071e-07
-0.0169227
1.36788e-07
-0.0167389
1.06265e-07
-0.0162804
1.76272e-07
-0.0158412
2.35354e-07
-0.015678
3.16158e-07
-0.0155631
4.17217e-07
-0.0154635
5.30091e-07
-0.0153846
6.65402e-07
-0.0153206
7.90079e-07
-0.0152737
8.76563e-07
-0.0152408
9.12565e-07
-0.0152221
8.67897e-07
-0.0152117
7.6314e-07
-0.0152196
9.65321e-07
-0.0152502
1.37089e-06
-0.0153142
7.26023e-07
-0.0154515
-1.5135e-07
-0.0161645
-4.16801e-05
-0.0169549
2.55798e-06
-1.19691e-12
1.8389e-21
-1.06076e-13
3.19537e-14
-2.2305e-07
-1.22137e-11
-4.21441e-05
-1.05918e-09
-0.000807727
-9.63145e-09
-0.00421744
-2.11439e-08
-0.00987512
6.30559e-08
-0.0145626
1.77331e-07
-0.0168374
2.85745e-07
-0.0166935
8.77581e-08
-0.016874
1.78606e-07
-0.0165298
1.31715e-07
-0.0160298
2.07549e-07
-0.0157393
2.74851e-07
-0.0156182
3.64116e-07
-0.0155128
4.70526e-07
-0.0154236
5.8938e-07
-0.0153528
7.33484e-07
-0.0152954
8.575e-07
-0.015257
9.35684e-07
-0.015229
9.52407e-07
-0.0152129
8.64424e-07
-0.0152104
6.93698e-07
-0.0152224
8.42438e-07
-0.0152623
1.15675e-06
-0.0153403
1.58742e-07
-0.0155013
-1.2741e-06
-0.0167463
-6.54067e-05
-0.0149436
2.94994e-07
-6.5576e-15
2.88704e-23
-1.17322e-14
4.34631e-14
-1.47219e-07
4.6885e-11
-4.19673e-05
-1.12171e-09
-0.000801353
-1.09635e-08
-0.00419673
-2.811e-08
-0.00978762
-4.63816e-09
-0.0143696
1.71041e-07
-0.0164283
1.16225e-07
-0.0169133
1.48969e-07
-0.016934
1.14869e-06
-0.0165313
1.30035e-07
-0.0160299
2.04822e-07
-0.015739
2.78153e-07
-0.0156193
3.65016e-07
-0.0155117
4.71843e-07
-0.0154217
5.91917e-07
-0.0153509
7.29456e-07
-0.0152948
8.70063e-07
-0.0152557
9.73394e-07
-0.0152273
9.96863e-07
-0.0152103
9.23178e-07
-0.015207
7.41955e-07
-0.0152209
5.51185e-07
-0.0152525
7.9827e-07
-0.015321
5.4689e-07
-0.0154465
-2.18266e-06
-0.0157764
-1.71163e-05
-0.0197681
-0.000151328
-1.2469e-06
1.98415e-20
-8.66381e-19
7.59373e-19
-4.13173e-12
6.13693e-12
-3.06767e-06
8.68842e-10
-0.000224012
-4.54931e-09
-0.00206675
-2.31652e-08
-0.00689833
-4.19471e-08
-0.0122274
-8.72173e-09
-0.0154216
1.01347e-07
-0.0165177
1.46923e-07
-0.0168962
2.17024e-07
-0.0167136
1.97467e-06
-0.0162816
1.60384e-07
-0.0158412
2.40883e-07
-0.0156786
3.24013e-07
-0.0155628
4.18343e-07
-0.0154649
5.32367e-07
-0.0153846
6.56999e-07
-0.0153202
8.00842e-07
-0.0152725
9.43392e-07
-0.0152385
1.04147e-06
-0.015216
1.03521e-06
-0.0152064
9.12086e-07
-0.0152093
6.47626e-07
-0.0152276
3.49766e-07
-0.0152675
4.75888e-07
-0.0153498
-1.00102e-07
-0.0154943
-3.61036e-06
-0.0160479
-3.18306e-05
-0.0198701
-9.21022e-05
-4.16158e-08
9.11691e-19
-6.47786e-19
-1.91982e-19
-2.67421e-11
2.31345e-13
-1.87608e-07
4.58241e-09
-0.000222645
-3.79881e-09
-0.00205688
-2.61632e-08
-0.0068716
-5.40148e-08
-0.0121891
-5.45198e-08
-0.0152524
2.06009e-08
-0.0165119
-1.30826e-07
-0.0172141
7.73436e-07
-0.0162341
-1.29342e-06
-0.016277
3.437e-07
-0.0158429
2.40792e-07
-0.0156774
3.29297e-07
-0.0155635
4.24553e-07
-0.0154634
5.34792e-07
-0.0153859
6.59448e-07
-0.0153211
7.92222e-07
-0.0152741
9.51054e-07
-0.0152369
1.07516e-06
-0.0152144
1.0999e-06
-0.0152059
1.00669e-06
-0.0152063
7.09148e-07
-0.0152226
2.30058e-07
-0.0152585
6.69122e-08
-0.0153256
-1.90543e-07
-0.0154527
-3.05868e-06
-0.0156841
-1.33739e-05
-0.0190386
-0.000162848
-0.00550309
1.13889e-12
-4.34601e-16
2.03387e-23
-2.32766e-14
-3.50966e-16
-1.96635e-09
3.07356e-12
-2.46596e-06
4.12598e-08
-0.000789952
-1.04071e-08
-0.00413654
-4.55314e-08
-0.00968915
-7.3068e-08
-0.0140104
-6.22646e-08
-0.0159863
-3.14328e-08
-0.016736
-2.85863e-07
-0.017112
1.034e-06
-0.0159708
-1.98459e-06
-0.0160317
4.22405e-07
-0.0157404
2.84471e-07
-0.0156194
3.82077e-07
-0.0155114
4.84175e-07
-0.0154215
6.01731e-07
-0.0153527
7.30903e-07
-0.0152946
8.64034e-07
-0.0152524
1.03013e-06
-0.0152246
1.14501e-06
-0.0152062
1.14259e-06
-0.0152017
9.87347e-07
-0.0152119
5.91242e-07
-0.0152306
-3.93005e-08
-0.0152758
-3.87238e-07
-0.0153572
-9.91907e-07
-0.0155003
-4.82609e-06
-0.0158081
-2.28564e-05
-0.0196692
-0.000185282
-0.0019386
2.05554e-16
-1.17463e-17
2.25844e-23
-2.00087e-14
-3.59413e-16
-1.39283e-09
3.42173e-12
-6.67736e-09
4.30751e-08
-0.000605213
1.496e-07
-0.00412738
-4.76469e-08
-0.0096604
-8.30351e-08
-0.013996
-8.0174e-08
-0.0159686
-2.50406e-08
-0.0168075
-1.16672e-07
-0.0168067
-1.74556e-07
-0.0163106
5.96009e-07
-0.0165519
4.86102e-06
-0.0157417
2.73918e-07
-0.0156192
3.82123e-07
-0.0155114
4.93293e-07
-0.0154231
6.10089e-07
-0.0153525
7.37472e-07
-0.0152964
8.70375e-07
-0.0152542
1.02465e-06
-0.0152233
1.17008e-06
-0.0152071
1.21489e-06
-0.0151989
1.08445e-06
-0.0152064
7.2074e-07
-0.0152289
8.19911e-08
-0.015269
-7.48902e-07
-0.0153359
-1.30276e-06
-0.0154617
-3.6998e-06
-0.0156636
-1.35889e-05
-0.018078
-0.000113227
-0.0139844
2.3674e-07
-1.65436e-20
6.55062e-21
-5.15006e-19
-8.07389e-20
-1.2177e-11
-6.34271e-14
-3.52076e-08
5.94224e-11
-4.80388e-08
2.91781e-07
-0.00163359
3.99573e-07
-0.00681296
-7.16499e-08
-0.012121
-1.02012e-07
-0.0151923
-7.95923e-08
-0.0164838
-2.64444e-08
-0.016889
-1.67576e-07
-0.0166199
-3.82379e-07
-0.016047
8.23248e-07
-0.0164174
6.08849e-06
-0.0156792
3.18342e-07
-0.0155628
4.39345e-07
-0.015467
5.62548e-07
-0.0153849
6.86054e-07
-0.0153208
8.16983e-07
-0.015271
9.50393e-07
-0.0152341
1.10499e-06
-0.0152121
1.24527e-06
-0.0152
1.25963e-06
-0.0151985
1.06223e-06
-0.0152123
5.83596e-07
-0.0152385
-2.42053e-07
-0.015289
-1.35114e-06
-0.01537
-2.30915e-06
-0.0155091
-5.72277e-06
-0.0157514
-2.12371e-05
-0.0189192
-0.000145929
-0.0105558
-2.52975e-10
-1.23847e-16
1.059e-23
-5.55036e-19
-7.21518e-20
-1.13008e-11
-7.98316e-14
-2.91648e-08
-4.67517e-11
-3.92555e-06
1.46125e-09
-0.000357927
2.09884e-06
-0.0067967
-5.31154e-08
-0.0121051
-1.16798e-07
-0.0151805
-1.02026e-07
-0.0164765
-7.28373e-08
-0.0169057
-3.82306e-07
-0.0165914
-6.00495e-07
-0.0162696
2.2073e-06
-0.0155812
-4.00599e-06
-0.0156862
7.2862e-07
-0.0155627
4.57277e-07
-0.0154661
5.74753e-07
-0.0153839
7.02989e-07
-0.0153199
8.33505e-07
-0.0152713
9.62755e-07
-0.0152366
1.09467e-06
-0.0152108
1.2632e-06
-0.0151987
1.32865e-06
-0.0151987
1.18681e-06
-0.015209
7.65541e-07
-0.015233
-9.09048e-08
-0.0152777
-1.43843e-06
-0.0153524
-2.71558e-06
-0.0154751
-5.25027e-06
-0.0156639
-1.47359e-05
-0.0174594
-8.73056e-05
-0.0180979
-4.69414e-05
-2.43294e-10
1.75593e-19
6.31856e-25
2.40284e-23
-2.0376e-14
-4.4249e-16
-9.23605e-10
-3.61834e-12
-3.7281e-07
-4.81603e-10
-1.9705e-05
7.59271e-09
-0.00100206
4.81041e-06
-0.00961241
-7.03205e-08
-0.0139489
-1.31327e-07
-0.0159406
-9.65963e-08
-0.0168015
-8.20289e-08
-0.0168666
-4.86092e-07
-0.0163481
-7.8667e-07
-0.0160224
2.92626e-06
-0.0154941
-4.74095e-06
-0.0156299
8.58483e-07
-0.0155111
5.33023e-07
-0.0154226
6.5242e-07
-0.0153496
7.90198e-07
-0.0152949
9.17746e-07
-0.0152509
1.04774e-06
-0.0152194
1.17407e-06
-0.0152031
1.33899e-06
-0.0151937
1.37333e-06
-0.015199
1.1574e-06
-0.0152173
6.07385e-07
-0.0152495
-4.84076e-07
-0.0153025
-2.17579e-06
-0.0153857
-3.96003e-06
-0.0155225
-7.60798e-06
-0.0157413
-2.17839e-05
-0.0183406
-0.000120184
-0.0153776
-3.62797e-06
-2.4659e-15
5.83129e-21
-9.16641e-25
2.37307e-23
-2.31598e-14
-4.55715e-16
-9.49022e-10
-3.62404e-12
-3.36009e-07
-5.76146e-10
-1.78358e-05
2.18622e-08
-2.48159e-06
9.59199e-06
-0.00866821
2.31417e-06
-0.0139425
-1.36155e-07
-0.0159321
-1.12272e-07
-0.0167997
-6.37839e-08
-0.0168837
-6.12182e-08
-0.0164689
-4.00522e-07
-0.0158545
-1.43586e-06
-0.0156649
1.74258e-06
-0.0158379
9.93291e-06
-0.0155137
4.73566e-07
-0.0154228
6.55542e-07
-0.01535
8.13611e-07
-0.0152935
9.47747e-07
-0.0152498
1.07215e-06
-0.0152203
1.1924e-06
-0.0152
1.33644e-06
-0.0151927
1.42812e-06
-0.015197
1.30254e-06
-0.0152145
7.90268e-07
-0.0152444
-2.0645e-07
-0.0152941
-1.87256e-06
-0.0153694
-4.28355e-06
-0.015491
-7.4121e-06
-0.0156718
-1.65275e-05
-0.0171391
-7.40211e-05
-0.0197377
-0.000153847
-2.6488e-05
1.09202e-18
-1.36836e-21
1.17171e-23
-8.61094e-19
-1.90187e-19
-1.42621e-11
-8.47102e-14
-2.51947e-08
-7.05264e-11
-2.67055e-06
-3.99073e-09
-7.15206e-05
8.91606e-08
-5.53154e-06
2.0209e-05
-0.011267
3.23972e-06
-0.0151566
-1.38456e-07
-0.0164625
-1.06825e-07
-0.0169195
-5.54876e-08
-0.0167461
-7.61254e-08
-0.0162088
-4.71035e-07
-0.0157419
-1.90073e-06
-0.0155979
2.0556e-06
-0.0157988
1.12293e-05
-0.0154659
5.37629e-07
-0.0153833
7.41983e-07
-0.0153216
9.10489e-07
-0.0152694
1.04421e-06
-0.015236
1.15929e-06
-0.0152086
1.2688e-06
-0.0151959
1.40246e-06
-0.0151924
1.47423e-06
-0.0152007
1.26448e-06
-0.0152244
6.05202e-07
-0.0152598
-6.48764e-07
-0.0153188
-2.71678e-06
-0.0154037
-5.80875e-06
-0.0155402
-1.01613e-05
-0.0157509
-2.36724e-05
-0.0180078
-0.000104993
-0.0178697
-6.8962e-05
-1.32648e-08
1.35132e-17
-3.09618e-22
8.33515e-23
-9.83726e-19
-2.48549e-19
-1.66629e-11
-9.38289e-14
-2.73276e-08
-7.33036e-11
-2.56044e-06
-5.22971e-09
-6.56616e-05
-5.61541e-08
-0.000562994
1.42885e-07
-0.00623413
1.89094e-05
-0.0151539
-7.72375e-08
-0.0164597
-1.29378e-07
-0.0169176
-6.7108e-08
-0.0167499
-1.24403e-07
-0.016262
-7.4951e-07
-0.015732
-1.52062e-06
-0.0157256
4.43327e-06
-0.0152767
-7.16117e-06
-0.0154773
1.39375e-06
-0.0153841
8.00115e-07
-0.0153217
9.28992e-07
-0.0152717
1.08482e-06
-0.0152345
1.2027e-06
-0.0152083
1.30363e-06
-0.0151934
1.39117e-06
-0.0151919
1.51424e-06
-0.0151991
1.39911e-06
-0.0152177
8.4804e-07
-0.0152571
-2.94875e-07
-0.0153113
-2.39587e-06
-0.0153933
-5.71885e-06
-0.0155139
-1.01065e-05
-0.0156876
-1.98697e-05
-0.0170279
-6.93452e-05
-0.0202621
-0.000186015
-0.00149452
-3.38211e-16
-1.0889e-16
1.83934e-25
-2.41382e-22
1.88446e-23
-3.61872e-14
-6.36822e-16
-1.36375e-09
-4.22005e-12
-3.57381e-07
-7.8744e-10
-1.42886e-05
-2.59194e-08
-0.000213063
-1.63267e-07
-0.00118467
2.47534e-07
-0.00839349
2.49836e-05
-0.0159234
-4.43456e-08
-0.0167874
-1.20822e-07
-0.0168852
-4.76449e-08
-0.0165454
-1.2767e-07
-0.0160104
-8.34521e-07
-0.0156567
-1.77817e-06
-0.0156829
5.11726e-06
-0.0152204
-7.8742e-06
-0.0154335
1.63262e-06
-0.0153479
9.07469e-07
-0.0152914
1.0408e-06
-0.0152505
1.19997e-06
-0.015219
1.30107e-06
-0.0152006
1.38498e-06
-0.0151895
1.45203e-06
-0.0151922
1.54491e-06
-0.0152059
1.3528e-06
-0.0152324
6.39721e-07
-0.0152735
-7.9989e-07