/*--------------------------------*- C++ -*----------------------------------*\
| =========                 |                                                 |
| \\      /  F ield         | OpenFOAM: The Open Source CFD Toolbox           |
|  \\    /   O peration     | Version:  v2012                                 |
|   \\  /    A nd           | Website:  www.openfoam.com                      |
|    \\/     M anipulation  |                                                 |
\*---------------------------------------------------------------------------*/
FoamFile
{
    version     2.0;
    format      ascii;
    class       volScalarField;
    location    "0";
    object      I2_3;
}
// * * * * * * * * * * * * * * * * * * * * * * * * * * * * * * * * * * * * * //

dimensions      [0 0 0 0 0 0 0];


internalField   nonuniform List<scalar> 
31383
(
2.65751e-13
9.53586e-11
4.64414e-10
8.21189e-11
1.02689e-07
3.23501e-08
7.3029e-11
8.86733e-08
6.74109e-06
6.16215e-07
6.67727e-11
7.90236e-08
5.85937e-06
0.000105708
5.79009e-06
6.19272e-11
7.23646e-08
5.24785e-06
9.28434e-05
0.000718787
3.40936e-05
5.79603e-11
6.71969e-08
4.82349e-06
8.38205e-05
0.000639933
0.00284061
0.000142139
5.47415e-11
6.296e-08
4.4927e-06
7.75025e-05
0.000583807
0.00256866
0.00768193
0.000467716
5.21172e-11
5.95186e-08
4.2206e-06
7.25447e-05
0.000544053
0.00237188
0.00706225
0.0157411
0.00128148
4.98731e-11
5.67105e-08
3.99877e-06
6.84428e-05
0.00051255
0.00223046
0.00660529
0.014707
0.0262114
0.00305208
4.79103e-11
5.43053e-08
3.81749e-06
6.50829e-05
0.000486287
0.00211724
0.00627209
0.013933
0.0248362
0.0372213
0.00676518
4.61335e-11
5.22014e-08
3.66171e-06
6.23213e-05
0.00046464
0.00202198
0.00600206
0.0133593
0.0238156
0.035757
0.0469154
0.0132652
4.45292e-11
5.02937e-08
3.5251e-06
5.99419e-05
0.000446746
0.00194282
0.00577249
0.0128886
0.0230485
0.0346728
0.0456473
0.0543321
0.0207375
4.30777e-11
4.85722e-08
3.40105e-06
5.78496e-05
0.000431249
0.001877
0.00558002
0.012484
0.0224107
0.0338291
0.0446787
0.0533575
0.0593032
0.0304705
4.17951e-11
4.70115e-08
3.28908e-06
5.59439e-05
0.000417568
0.00181956
0.0054189
0.0121425
0.0218621
0.033128
0.0438996
0.0525966
0.0586254
0.0623553
0.0407939
4.06542e-11
4.56333e-08
3.18732e-06
5.42179e-05
0.000405058
0.00176865
0.0052775
0.0118538
0.0213843
0.0325392
0.0432518
0.0519897
0.0580987
0.0618892
0.0643123
0.0458886
3.96595e-11
4.44063e-08
3.0973e-06
5.26468e-05
0.000393672
0.00172187
0.00515122
0.0115986
0.0209818
0.0319786
0.0427037
0.0514746
0.0576817
0.0615416
0.0639273
0.0656268
0.0508373
3.87759e-11
4.33345e-08
3.01722e-06
5.12529e-05
0.000383285
0.00167911
0.00503466
0.0113697
0.0206225
0.0315246
0.0421774
0.0510117
0.0573157
0.0612602
0.0636691
0.0652773
0.0663109
0.0532044
3.80027e-11
4.23854e-08
2.947e-06
5.00088e-05
0.000374042
0.00163995
0.0049278
0.0111586
0.0202995
0.0311176
0.0417412
0.0506105
0.0569879
0.060997
0.063454
0.0650779
0.0660247
0.0664736
0.0556737
3.73147e-11
4.15518e-08
2.88481e-06
4.89177e-05
0.000365754
0.00160495
0.00482921
0.0109608
0.0200111
0.0307438
0.0413672
0.050249
0.0567013
0.0607835
0.0632595
0.0649316
0.0659133
0.0662413
0.0663161
0.0609578
3.67087e-11
4.08108e-08
2.83016e-06
4.7948e-05
0.000358477
0.0015735
0.00474078
0.0107792
0.0197168
0.0304143
0.0409953
0.0499446
0.0564484
0.0606062
0.0631022
0.0648047
0.0658349
0.0662085
0.0661008
0.0659528
0.0642453
3.61725e-11
4.01582e-08
2.78142e-06
4.70955e-05
0.000351998
0.00154578
0.00466104
0.0106156
0.0194564
0.0300701
0.0406616
0.0496313
0.056213
0.0604427
0.0629914
0.064687
0.0657617
0.0661666
0.0660978
0.0657022
0.0654573
0.0667859
3.56973e-11
3.95792e-08
2.7386e-06
4.63346e-05
0.000346276
0.00152102
0.00459053
0.0104673
0.0192207
0.0297677
0.0403443
0.0493509
0.0559963
0.0602885
0.0628802
0.064596
0.0656869
0.0661309
0.0660844
0.0657236
0.0651367
0.0648922
0.0687541
3.52739e-11
3.9068e-08
2.70056e-06
4.56629e-05
0.000341177
0.00149911
0.0045273
0.0103358
0.0190074
0.0294904
0.0400452
0.0490945
0.0557924
0.0601571
0.0627874
0.0645101
0.0656237
0.0660954
0.0660783
0.065735
0.0651775
0.0644702
0.0643184
0.0699584
3.48911e-11
3.86096e-08
2.66684e-06
4.50685e-05
0.000336665
0.00147951
0.00447131
0.0102173
0.0188149
0.0292491
0.0397744
0.0488397
0.0556033
0.0600195
0.0627067
0.0644379
0.0655621
0.0660613
0.0660706
0.065747
0.0652034
0.0645141
0.0637662
0.0637666
0.0705807
3.45414e-11
3.81975e-08
2.63676e-06
4.45391e-05
0.000332646
0.00146216
0.00442096
0.0101121
0.018642
0.0290127
0.0395382
0.0486129
0.0554197
0.0598961
0.0626167
0.0643805
0.0655096
0.0660311
0.0660624
0.0657557
0.0652297
0.064552
0.0638058
0.0631913
0.0633155
0.0707404
3.42228e-11
3.78192e-08
2.60958e-06
4.40675e-05
0.000329088
0.00144667
0.00437624
0.0100174
0.0184882
0.0288098
0.0393039
0.0484037
0.0552502
0.0597791
0.0625399
0.0643185
0.0654658
0.0660047
0.0660571
0.0657654
0.0652507
0.0645876
0.0638515
0.0632213
0.0628764
0.0630502
0.0704562
3.3932e-11
3.74753e-08
2.58462e-06
4.36401e-05
0.000325896
0.0014329
0.00433636
0.009933
0.0183493
0.0286242
0.039107
0.0482139
0.055095
0.0596702
0.0624657
0.0642575
0.0654254
0.0659788
0.066044
0.0657763
0.0652711
0.0646212
0.063892
0.0632542
0.0628892
0.0627129
0.0629371
0.0700257
3.36685e-11
3.71621e-08
2.56193e-06
4.32491e-05
0.000323006
0.00142055
0.00430081
0.00985756
0.0182251
0.0284594
0.0389189
0.0480463
0.0549549
0.0595652
0.0623969
0.0642005
0.0653815
0.0659556
0.0660395
0.0657798
0.0652936
0.0646462
0.0639265
0.0632881
0.0629048
0.06271
0.0625661
0.0628837
0.0697672
3.34279e-11
3.68771e-08
2.54131e-06
4.28905e-05
0.000320364
0.00140934
0.00426892
0.00979011
0.0181138
0.0283119
0.0387539
0.0478875
0.0548248
0.059474
0.0623283
0.0641474
0.0653372
0.0659351
0.0660291
0.0657831
0.0653083
0.0646721
0.0639539
0.0633161
0.0629196
0.0627146
0.0625568
0.0624312
0.0628435
0.0701763
3.32099e-11
3.66171e-08
2.52251e-06
4.25658e-05
0.000317936
0.00139907
0.00423987
0.00972936
0.0180142
0.0281772
0.0386045
0.0477467
0.0547098
0.0593883
0.0622689
0.0640999
0.0653002
0.065911
0.0660259
0.0657909
0.0653176
0.064695
0.063979
0.0633381
0.0629355
0.0627259
0.0625588
0.0624105
0.0623095
0.0628181
0.0714392
3.30158e-11
3.63822e-08
2.50538e-06
4.22695e-05
0.000315733
0.00138971
0.00421321
0.00967429
0.0179241
0.0280581
0.0384702
0.0476141
0.0546051
0.0593073
0.0622142
0.0640529
0.0652654
0.0658963
0.0660212
0.0657958
0.0653353
0.0647117
0.0640074
0.0633628
0.0629496
0.062733
0.0625636
0.0624134
0.0622795
0.0622024
0.0628187
0.0716784
3.28407e-11
3.6172e-08
2.48986e-06
4.20005e-05
0.000313714
0.00138113
0.00418877
0.00962342
0.0178424
0.0279496
0.0383506
0.0475017
0.0545072
0.0592353
0.0621595
0.0640115
0.0652337
0.0658753
0.0660153
0.0658003
0.0653434
0.0647266
0.0640268
0.06338
0.0629628
0.0627395
0.0625742
0.0624138
0.062279
0.0621576
0.0621097
0.0628433
0.066862
3.26817e-11
3.59825e-08
2.47588e-06
4.1755e-05
0.000311886
0.00137329
0.00416651
0.00957675
0.0177668
0.0278506
0.0382421
0.0473985
0.0544211
0.0591757
0.062114
0.0639737
0.0652028
0.0658628
0.0660093
0.0658004
0.0653555
0.0647452
0.0640466
0.0634023
0.0629687
0.0627409
0.0625833
0.0624242
0.0622821
0.0621538
0.0620492
0.0620376
0.0628839
0.0624923
3.25359e-11
3.58111e-08
2.46344e-06
4.15354e-05
0.00031022
0.00136615
0.00414613
0.00953419
0.0176975
0.02776
0.0381416
0.0473043
0.0543409
0.0591169
0.0620735
0.063942
0.0651776
0.0658441
0.0660034
0.0658055
0.0653686
0.0647653
0.0640681
0.0634222
0.0629821
0.0627501
0.062583
0.062429
0.0622843
0.062157
0.0620431
0.0619603
0.0619858
0.0629397
0.0601063
3.24016e-11
3.56541e-08
2.45215e-06
4.13394e-05
0.000308731
0.00135967
0.00412752
0.00949519
0.017634
0.0276761
0.0380492
0.0472183
0.0542693
0.0590622
0.0620341
0.0639076
0.065153
0.0658331
0.0660021
0.0658071
0.0653768
0.0647837
0.0640919
0.0634363
0.0629944
0.0627544
0.0625917
0.0624369
0.0622878
0.0621548
0.0620387
0.0619433
0.0618824
0.0619469
0.0630129
0.0585878
3.22665e-11
3.55094e-08
2.44169e-06
4.11605e-05
0.000307384
0.00135382
0.00411057
0.00945956
0.0175758
0.0275994
0.0379655
0.0471362
0.0542062
0.0590131
0.0620012
0.0638792
0.0651302
0.0658176
0.065995
0.0658118
0.0653856
0.0647972
0.0641064
0.063454
0.0630012
0.062758
0.0625918
0.0624369
0.0622917
0.062162
0.062046
0.0619403
0.0618611
0.0618133
0.0619325
0.0631899
0.0569823
3.21495e-11
3.53619e-08
2.43211e-06
4.09957e-05
0.00030617
0.0013486
0.00409535
0.00942717
0.0175226
0.0275295
0.0378873
0.0470633
0.0541441
0.05897
0.0619677
0.063852
0.0651121
0.0658066
0.0659908
0.065814
0.0653907
0.0648079
0.0641248
0.0634659
0.0630076
0.0627665
0.0625968
0.0624426
0.062292
0.0621613
0.0620398
0.0619391
0.0618544
0.0617897
0.0617595
0.0619366
0.0635963
0.0552299
3.24449e-11
3.52364e-08
2.42227e-06
4.08432e-05
0.000305049
0.00134385
0.00408173
0.00939798
0.017474
0.0274638
0.0378168
0.0469961
0.0540885
0.05893
0.0619383
0.0638303
0.0650884
0.0657907
0.0659828
0.0658162
0.0654009
0.0648148
0.0641394
0.0634781
0.063018
0.0627709
0.0626078
0.0624452
0.0623007
0.0621676
0.0620478
0.0619407
0.0618455
0.0617758
0.0617232
0.0617247
0.0619616
0.0642393
0.0532883
7.96365e-11
3.55489e-08
2.41406e-06
4.06896e-05
0.000304012
0.00133947
0.00406928
0.00937165
0.0174304
0.0274049
0.0377496
0.0469316
0.0540357
0.0588931
0.0619114
0.0638076
0.065075
0.0657828
0.0659795
0.0658146
0.0654038
0.0648279
0.0641499
0.0634909
0.0630238
0.0627748
0.0626107
0.0624541
0.0623001
0.0621637
0.0620505
0.0619403
0.0618526
0.0617717
0.0617087
0.0616738
0.0616981
0.0620135
0.0650349
0.0511111
3.6359e-11
1.70778e-07
2.43376e-06
4.05587e-05
0.000302961
0.00133541
0.00405775
0.00934776
0.0173911
0.0273517
0.0376909
0.0468759
0.0539878
0.0588561
0.0618849
0.0637867
0.0650567
0.0657734
0.0659792
0.0658165
0.0654107
0.0648335
0.0641595
0.0635038
0.0630302
0.0627785
0.0626126
0.0624553
0.0623024
0.062171
0.0620473
0.0619406
0.0618446
0.0617642
0.0617081
0.0616541
0.0616396
0.0616867
0.0620866
0.0659218
0.0486115
3.73892e-11
4.89027e-08
9.39411e-06
4.08472e-05
0.000302069
0.0013313
0.00404719
0.00932564
0.0173552
0.0273055
0.0376355
0.0468261
0.0539444
0.058826
0.0618644
0.0637679
0.065044
0.0657654
0.0659735
0.0658165
0.06541
0.0648432
0.0641696
0.0635107
0.0630374
0.0627831
0.0626196
0.0624605
0.0623115
0.0621707
0.0620539
0.0619459
0.0618432
0.061762
0.0616982
0.0616446
0.0616127
0.0616097
0.0616923
0.0621876
0.0668763
0.0456278
5.12722e-11
5.06536e-08
3.74824e-06
0.000143407
0.00030384
0.00132783
0.00403629
0.00930523
0.017322
0.0272611
0.0375862
0.0467772
0.0539067
0.0587962
0.0618424
0.0637493
0.0650311
0.0657584
0.0659698
0.0658156
0.0654161
0.0648491
0.0641801
0.0635186
0.0630419
0.0627834
0.0626179
0.0624666
0.0623156
0.0621803
0.0620584
0.0619456
0.0618473
0.0617649
0.0616964
0.0616406
0.0615957
0.0615786
0.0615913
0.0617094
0.0623123
0.0678778
0.0418608
4.28662e-11
6.87233e-08
3.92921e-06
6.5316e-05
0.000953123
0.00133373
0.00402717
0.00928434
0.017291
0.0272206
0.037542
0.0467311
0.0538683
0.0587681
0.061824
0.0637338
0.0650154
0.0657468
0.0659649
0.0658167
0.0654172
0.0648551
0.0641865
0.0635265
0.0630434
0.0627862
0.0626208
0.062463
0.0623152
0.0621774
0.0620556
0.0619489
0.061851
0.0617637
0.0616945
0.0616339
0.0615881
0.0615612
0.0615528
0.061596
0.0617497
0.0624649
0.0689122
0.0368392
3.40247e-11
5.65679e-08
5.22887e-06
6.99906e-05
0.000473487
0.00369652
0.00403951
0.00926676
0.0172601
0.027182
0.0375008
0.0466944
0.0538358
0.0587443
0.0618038
0.0637186
0.065002
0.0657424
0.0659616
0.0658138
0.0654219
0.0648598
0.0641928
0.0635345
0.0630491
0.0627898
0.0626222
0.0624691
0.0623203
0.0621804
0.0620567
0.0619499
0.0618532
0.0617661
0.0616925
0.0616259
0.0615805
0.061548
0.0615303
0.06154
0.0616038
0.0618126
0.0626435
0.0699174
0.030141
3.25248e-11
4.44391e-08
4.23695e-06
9.08568e-05
0.00052656
0.00195593
0.00985834
0.00928341
0.0172331
0.0271454
0.0374615
0.0466569
0.053806
0.0587203
0.0617885
0.0637061
0.064993
0.0657349
0.0659595
0.0658171
0.0654251
0.06486
0.0641988
0.0635387
0.0630557
0.062794
0.0626292
0.062469
0.0623204
0.062185
0.0620589
0.0619509
0.061853
0.0617672
0.061688
0.0616247
0.061575
0.0615409
0.0615139
0.0615143
0.0615423
0.0616277
0.0618947
0.0628773
0.0707308
0.0218256
3.13033e-11
4.20779e-08
3.29999e-06
7.32604e-05
0.000665843
0.00225421
0.00557638
0.0199443
0.0172465
0.0271107
0.0374241
0.0466236
0.0537777
0.0586986
0.0617725
0.0636921
0.0649809
0.0657263
0.0659586
0.0658173
0.065428
0.0648676
0.0642038
0.0635423
0.063053
0.0627939
0.0626271
0.0624751
0.0623238
0.0621892
0.062062
0.0619518
0.0618525
0.061765
0.0616879
0.0616257
0.0615739
0.0615327
0.061504
0.061495
0.0615051
0.0615538
0.0616622
0.0619927
0.0633894
0.0709508
0.01086
3.10394e-11
3.47313e-08
3.08994e-06
5.71097e-05
0.000540305
0.00278691
0.00647244
0.0120921
0.0325662
0.0271125
0.037389
0.0465874
0.053753
0.058679
0.0617583
0.0636808
0.0649737
0.0657193
0.0659553
0.0658159
0.0654289
0.0648714
0.0642128
0.0635495
0.0630585
0.0627931
0.0626296
0.0624702
0.0623235
0.0621915
0.0620662
0.0619539
0.0618536
0.0617703
0.0616924
0.0616207
0.0615709
0.0615291
0.0614956
0.0614841
0.0614819
0.0615037
0.0615723
0.0617135
0.0621265
0.0644147
0.0696565
0.00229976
3.09412e-11
3.37413e-08
2.35071e-06
5.30595e-05
0.000424907
0.00229587
0.00788915
0.0137963
0.0212605
0.0451272
0.0373744
0.0465615
0.0537231
0.0586632
0.0617457
0.0636709
0.0649656
0.0657149
0.0659517
0.0658201
0.0654307
0.0648725
0.064214
0.0635573
0.0630642
0.062802
0.0626322
0.0624766
0.0623276
0.0621888
0.0620664
0.06195
0.0618536
0.0617641
0.061696
0.0616255
0.061566
0.0615204
0.0614885
0.0614705
0.0614693
0.0614844
0.0615184
0.0615988
0.0617888
0.0622928
0.0658184
0.0660495
0.000288094
3.08688e-11
3.35698e-08
2.28988e-06
3.92141e-05
0.000392872
0.00182638
0.00663665
0.0167538
0.0235136
0.0317778
0.0553418
0.0465324
0.0537042
0.0586445
0.0617327
0.0636601
0.0649568
0.0657106
0.0659503
0.0658157
0.065432
0.0648796
0.0642208
0.0635563
0.0630613
0.0628017
0.0626354
0.0624778
0.0623281
0.0621931
0.062068
0.061955
0.0618548
0.0617697
0.0616947
0.0616228
0.0615651
0.0615222
0.0614828
0.0614633
0.0614533
0.0614549
0.0614873
0.061541
0.0616442
0.0618721
0.0624779
0.0672986
0.0611802
4.82368e-05
3.07675e-11
3.34584e-08
2.2726e-06
3.82398e-05
0.000291197
0.00168221
0.00532693
0.0144422
0.0285842
0.0340676
0.0419049
0.0621421
0.0536681
0.0586275
0.0617217
0.0636511
0.0649468
0.065705
0.0659458
0.0658149
0.0654354
0.0648775
0.0642216
0.0635612
0.0630625
0.0628009
0.0626329
0.062474
0.0623322
0.0621914
0.0620653
0.0619558
0.0618588
0.0617703
0.0616943
0.0616269
0.0615622
0.0615206
0.0614865
0.0614549
0.0614403
0.0614402
0.0614583
0.0614947
0.061573
0.0617043
0.0619768
0.0626868
0.0686887
0.0566554
1.27211e-05
3.06695e-11
3.33174e-08
2.26245e-06
3.78853e-05
0.00028427
0.00128002
0.00488842
0.0116392
0.02528
0.0411029
0.0438857
0.0502751
0.0659142
0.0585938
0.0617103
0.063641
0.0649412
0.0657018
0.0659437
0.0658174
0.0654342
0.0648821
0.0642243
0.0635633
0.0630661
0.0628056
0.0626361
0.0624755
0.0623268
0.062194
0.0620676
0.0619561
0.0618537
0.061768
0.0616942
0.0616256
0.0615657
0.061519
0.0614812
0.061456
0.0614373
0.0614308
0.0614425
0.0614747
0.0615251
0.0616141
0.0617757
0.0621082
0.0630821
0.0699357
0.052272
3.60585e-06
3.05952e-11
3.31794e-08
2.25027e-06
3.76834e-05
0.000281385
0.00125176
0.00389099
0.0106983
0.0204561
0.0372628
0.0517616
0.0517978
0.0563378
0.0676283
0.0616787
0.0636347
0.0649343
0.0656964
0.0659436
0.065815
0.0654341
0.0648864
0.0642268
0.0635693
0.0630718
0.0628032
0.0626396
0.0624771
0.0623325
0.0621932
0.0620646
0.0619528
0.0618593
0.0617666
0.0616859
0.0616188
0.0615643
0.0615172
0.0614791
0.0614457
0.0614299
0.0614227
0.0614271
0.0614494
0.0614911
0.0615619
0.0616676
0.0618647
0.0622698
0.064027
0.071061
0.047292
1.10872e-06
3.05528e-11
3.30778e-08
2.23825e-06
3.74542e-05
0.000279774
0.00123894
0.00381402
0.00898807
0.0190469
0.0305838
0.047967
0.0591325
0.0574093
0.0602451
0.0681562
0.0636027
0.0649299
0.065694
0.0659388
0.0658152
0.0654358
0.0648858
0.0642288
0.0635699
0.0630715
0.0628031
0.06264
0.0624794
0.0623331
0.0621978
0.0620723
0.0619552
0.0618525
0.0617657
0.0616893
0.0616207
0.0615618
0.0615147
0.0614713
0.0614449
0.0614286
0.0614138
0.0614146
0.0614242
0.061461
0.0615155
0.0616048
0.0617403
0.0619714
0.0624518
0.0655467
0.0719555
0.0411972
5.26809e-07
3.04234e-11
3.30179e-08
2.22954e-06
3.72239e-05
0.000277989
0.00123197
0.00377709
0.00883607
0.016795
0.0289919
0.0405353
0.0557972
0.0633043
0.0609498
0.0625604
0.0680629
0.0649027
0.0656897
0.06594
0.0658107
0.0654369
0.0648853
0.0642348
0.0635696
0.0630745
0.0628054
0.0626384
0.0624841
0.0623344
0.0621953
0.0620696
0.0619565
0.0618593
0.0617699
0.0616866
0.0616175
0.0615645
0.0615137
0.06147
0.0614438
0.0614229
0.0614101
0.0614004
0.0614173
0.0614363
0.0614831
0.0615597
0.0616649
0.0618283
0.0621015
0.0626551
0.0673052
0.0720908
0.0333331
2.85558e-07
2.22897e-11
3.28674e-08
2.22433e-06
3.70597e-05
0.000276198
0.00122424
0.00375736
0.00875979
0.0165628
0.026554
0.0390393
0.0490167
0.0605937
0.0651996
0.0630614
0.0639982
0.0676612
0.0656684
0.0659361
0.0658136
0.0654364
0.0648879
0.0642351
0.0635733
0.0630721
0.0628074
0.0626402
0.0624816
0.062333
0.0621915
0.0620678
0.061953
0.0618549
0.0617691
0.0616913
0.0616149
0.0615608
0.0615087
0.0614674
0.0614371
0.061418
0.0614077
0.0613952
0.0614044
0.0614189
0.0614642
0.061519
0.0616102
0.0617359
0.061928
0.062247
0.0630343
0.069059
0.0704174
0.0233724
8.63893e-08
1.80314e-12
2.42512e-08
2.21362e-06
3.69613e-05
0.000274922
0.00121648
0.00373596
0.00871692
0.0164396
0.0262608
0.0367995
0.0478095
0.0553775
0.0630977
0.0657752
0.0645215
0.0649237
0.0671212
0.065914
0.06581
0.065436
0.0648925
0.0642353
0.0635765
0.0630747
0.062808
0.0626405
0.062482
0.0623338
0.0621949
0.0620672
0.0619559
0.0618556
0.0617697
0.0616838
0.0616128
0.0615573
0.0615101
0.0614688
0.0614417
0.0614185
0.0613975
0.0613906
0.0613938
0.0614119
0.0614386
0.0614933
0.0615652
0.0616646
0.0618154
0.0620366
0.0624075
0.0639361
0.0706742
0.0664752
0.0112777
1.0902e-08
6.02343e-13
2.24009e-09
1.65137e-06
3.6779e-05
0.000274157
0.00121104
0.00371376
0.00867317
0.0163699
0.0261036
0.0364908
0.0460286
0.0545259
0.0596331
0.064219
0.0656925
0.0655033
0.0653175
0.0665329
0.0657865
0.0654376
0.0648897
0.0642382
0.0635743
0.0630715
0.0628039
0.0626448
0.0624811
0.0623331
0.0621994
0.0620697
0.0619603
0.0618587
0.0617702
0.0616885
0.0616158
0.0615543
0.0615124
0.0614706
0.061437
0.0614111
0.0613937
0.0613902
0.0613874
0.0614027
0.0614198
0.061472
0.0615261
0.0616157
0.0617358
0.0619092
0.0621724
0.062598
0.0654758
0.0721231
0.0611874
0.00194729
3.22672e-10
1.25537e-12
5.15751e-10
1.77177e-07
2.78804e-05
0.000272834
0.00120765
0.00369846
0.00862748
0.0162978
0.0260181
0.0363256
0.0457564
0.0532806
0.0591057
0.0622275
0.064624
0.0657227
0.0658889
0.0652108
0.0659425
0.065413
0.0648934
0.0642364
0.0635747
0.0630756
0.0628031
0.0626389
0.0624839
0.0623357
0.0621965
0.0620684
0.0619552
0.0618557
0.0617652
0.0616823
0.0616143
0.0615576
0.0615088
0.0614665
0.0614322
0.0614001
0.0613866
0.0613807
0.0613781
0.0613963
0.061416
0.0614511
0.0615009
0.0615776
0.0616843
0.0618302
0.0620247
0.06232
0.0629118
0.0674054
0.0733507
0.0544194
0.000115814
3.64369e-14
9.08809e-13
1.32829e-09
2.5723e-08
3.55946e-06
0.000211113
0.0012022
0.00368849
0.0085949
0.0162254
0.0259258
0.036238
0.0456091
0.0530751
0.0583282
0.0619564
0.0638086
0.0648585
0.0662801
0.065844
0.0647665
0.0653718
0.0648667
0.0642383
0.0635802
0.0630747
0.0628073
0.062642
0.0624859
0.062333
0.0622004
0.0620712
0.0619532
0.0618556
0.0617675
0.0616826
0.0616133
0.0615542
0.0614988
0.0614624
0.0614272
0.0614017
0.0613829
0.061376
0.0613728
0.0613844
0.061405
0.0614346
0.0614828
0.0615419
0.0616346
0.0617628
0.0619286
0.0621553
0.0624842
0.0636414
0.069459
0.0736916
0.0445426
1.20151e-05
5.5665e-12
7.4866e-13
9.73216e-10
8.94277e-08
1.75342e-07
3.27456e-05
0.000952858
0.00367337
0.008575
0.0161736
0.0258336
0.0361443
0.0455327
0.0529642
0.0581957
0.0615024
0.0637483
0.0648432
0.065309
0.0666686
0.0655052
0.0641131
0.0649788
0.0642193
0.0635808
0.0630791
0.0628084
0.062639
0.0624876
0.0623348
0.0621958
0.062067
0.0619551
0.061859
0.0617672
0.0616849
0.0616133
0.0615585
0.0615023
0.061458
0.0614228
0.0613973
0.0613798
0.0613743
0.0613696
0.0613761
0.0613939
0.0614208
0.0614566
0.0615186
0.0615958
0.0616988
0.0618457
0.0620423
0.0622975
0.0626721
0.0650119
0.0714363
0.071336
0.0313025
1.32395e-06
6.40039e-11
6.72047e-13
8.15235e-10
6.82326e-08
1.56957e-06
7.51021e-07
0.000182318
0.00299
0.00854513
0.0161436
0.0257688
0.0360466
0.0454491
0.0529041
0.0581168
0.0614222
0.0634599
0.0649432
0.0654289
0.0656943
0.0664049
0.0649812
0.0634176
0.0649402
0.0635698
0.0630784
0.0628068
0.0626445
0.0624843
0.0623349
0.0621955
0.0620715
0.0619547
0.0618596
0.0617699
0.061689
0.0616137
0.0615582
0.0614999
0.0614546
0.0614248
0.0613987
0.0613751
0.0613647
0.0613631
0.0613709
0.0613913
0.0614103
0.061443
0.0614932
0.0615659
0.061656
0.061785
0.0619482
0.0621728
0.0624544
0.0630099
0.0668762
0.0730734
0.0656953
0.015566
2.4933e-08
6.35584e-12
6.34342e-13
7.37023e-10
5.81194e-08
1.24723e-06
1.29717e-05
3.53551e-06
0.00071085
0.0071533
0.0160983
0.0257307
0.0359825
0.0453592
0.0528372
0.0580771
0.0613703
0.063413
0.0647929
0.0656151
0.0656268
0.0656137
0.06575
0.0643116
0.0629273
0.0649549
0.0630767
0.0628094
0.062641
0.0624837
0.0623342
0.0621956
0.0620768
0.061959
0.0618582
0.0617695
0.0616852
0.0616185
0.0615533
0.0615047
0.0614516
0.0614212
0.0613945
0.0613774
0.0613616
0.0613554
0.0613669
0.0613762
0.061402
0.061438
0.0614832
0.0615482
0.0616216
0.0617292
0.0618777
0.062069
0.0623089
0.0626214
0.063875
0.0689765
0.073919
0.0585736
0.00277925
6.74863e-14
1.21161e-13
6.4248e-13
6.9823e-10
5.29303e-08
1.08083e-06
1.07427e-05
6.68294e-05
1.31687e-05
0.00211056
0.0138661
0.0256746
0.0359384
0.0453061
0.0527669
0.0580309
0.0613411
0.0633776
0.0647698
0.0655999
0.0658274
0.0654899
0.0651267
0.0649547
0.0636157
0.0626236
0.0646044
0.0628112
0.0626429
0.062484
0.062333
0.0621994
0.0620766
0.0619582
0.0618563
0.0617678
0.0616842
0.0616132
0.0615501
0.0614986
0.0614505
0.0614187
0.0613908
0.0613727
0.0613579
0.0613528
0.0613544
0.0613694
0.0613923
0.0614241
0.0614645
0.0615272
0.0616029
0.0616932
0.0618226
0.0619871
0.0621995
0.0624594
0.0628633
0.0653969
0.0711506
0.0732494
0.048531
6.06468e-05
2.39894e-11
1.64764e-15
6.7536e-13
7.08471e-10
5.03599e-08
9.92036e-07
9.47552e-06
5.77005e-05
0.000248838
3.81587e-05
0.00503054
0.0227434
0.0358781
0.0452641
0.0527206
0.0579837
0.0613094
0.0633578
0.0647507
0.0656022
0.0658702
0.0657007
0.0650518
0.064421
0.0642091
0.0630946
0.0623802
0.0639705
0.0626434
0.0624848
0.0623328
0.0621957
0.0620741
0.0619563
0.0618538
0.0617651
0.0616816
0.0616118
0.0615509
0.0614957
0.0614572
0.0614162
0.0613874
0.0613689
0.0613544
0.0613441
0.0613544
0.0613659
0.0613831
0.0614152
0.0614491
0.061511
0.0615721
0.0616602
0.0617765
0.0619253
0.0621091
0.0623405
0.0626257
0.0634617
0.0673854
0.0732206
0.0694049
0.0322877
3.97499e-07
3.48216e-11
8.72901e-17
7.34991e-13
7.46013e-10
5.11913e-08
9.48454e-07
8.76757e-06
5.18047e-05
0.000223877
0.000729486
9.09503e-05
0.00998856
0.0326483
0.0452039
0.0526909
0.0579468
0.0612794
0.063339
0.0647449
0.0655993
0.0659007
0.0657686
0.0653091
0.0644146
0.0636787
0.0635578
0.0628004
0.0621467
0.0633954
0.0624899
0.0623379
0.0621947
0.0620737
0.0619575
0.06185
0.0617614
0.0616842
0.0616142
0.0615489
0.0614956
0.0614534
0.0614106
0.0613867
0.0613665
0.0613507
0.0613407
0.0613464
0.0613552
0.0613779
0.0614057
0.0614424
0.0614943
0.061557
0.0616402
0.061738
0.0618684
0.0620354
0.0622402
0.0624979
0.0628408
0.06471
0.0696742
0.074529
0.0623806
0.0120124
2.02937e-10
2.23762e-12
1.83527e-17
8.1533e-13
8.12502e-10
5.3976e-08
9.65775e-07
8.42778e-06
4.83388e-05
0.00020459
0.000682735
0.00177481
0.000182461
0.0169835
0.0421714
0.0526463
0.0579289
0.0612546
0.0633166
0.0647318
0.0655948
0.065906
0.0658132
0.0653991
0.0647322
0.063703
0.0631132
0.0631042
0.0625967
0.0619342
0.0630812
0.0623389
0.0622001
0.0620712
0.0619581
0.0618522
0.0617624
0.0616798
0.0616105
0.0615513
0.0614927
0.0614526
0.0614129
0.0613854
0.0613582
0.061348
0.0613381
0.0613448
0.0613497
0.0613696
0.0613975
0.0614262
0.0614799
0.0615451
0.0616171
0.0617115
0.0618248
0.061972
0.0621566
0.0623867
0.0626528
0.063358
0.066559
0.0720914
0.073426
0.0524229
0.000890073
1.95149e-12
1.21928e-14
1.83142e-18
9.05092e-13
9.01686e-10
5.8812e-08
1.0192e-06
8.59508e-06
4.67299e-05
0.000192524
0.00063471
0.00172328
0.00370924
0.000310765
0.025306
0.0502186
0.0579018
0.0612448
0.0633031
0.0647142
0.0655828
0.0659062
0.065827
0.0654551
0.0648482
0.0640491
0.0631158
0.0628146
0.0628891
0.062417
0.0617366
0.0629795
0.0621978
0.0620718
0.0619608
0.0618518
0.0617633
0.0616861
0.0616113
0.0615454
0.0614942
0.0614554
0.0614121
0.0613813
0.0613652
0.0613468
0.0613363
0.0613372
0.0613427
0.0613595
0.0613875
0.0614244
0.0614717
0.061522
0.0615925
0.0616852
0.0617906
0.0619197
0.0620861
0.0622936
0.0625404
0.0628737
0.0645038
0.0688251
0.0741451
0.0688302
0.0359151
5.66088e-06
2.06973e-11
5.25941e-15
3.31136e-23
9.89107e-13
1.00103e-09
6.52395e-08
1.11026e-06
9.07349e-06
4.7725e-05
0.000187196
0.000602308
0.00162792
0.0037216
0.00681623
0.000450811
0.0337434
0.0563454
0.0612259
0.0632908
0.0647067
0.0655704
0.0659013
0.0658255
0.0654649
0.0649174
0.0641875
0.0633987
0.0627863
0.062647
0.0627744
0.0622441
0.0615617
0.06293
0.0620719
0.0619589
0.0618542
0.0617627
0.0616863
0.0616113
0.0615515
0.061495
0.0614513
0.0614154
0.0613805
0.0613605
0.06134
0.0613352
0.0613357
0.0613356
0.061355
0.061381
0.0614058
0.0614575
0.0615142
0.0615798
0.061664
0.0617615
0.0618908
0.062037
0.0622238
0.0624478
0.0627029
0.0634152
0.0662761
0.0713489
0.0746717
0.0612816
0.0131177
6.83716e-09
1.652e-11
2.78263e-15
2.27104e-19
1.06404e-12
1.09405e-09
7.23608e-08
1.22983e-06
9.87426e-06
5.03671e-05
0.000191419
0.000588982
0.00155744
0.00356815
0.00703534
0.0111915
0.000524069
0.0411246
0.0607934
0.0632794
0.0646921
0.0655628
0.0658943
0.0658172
0.0654739
0.064931
0.0642672
0.063524
0.0629577
0.062586
0.0624885
0.0626622
0.0620617
0.0614097
0.0628886
0.0619515
0.0618569
0.061757
0.0616839
0.0616047
0.0615444
0.0614944
0.0614506
0.0614092
0.0613767
0.0613596
0.0613427
0.0613295
0.0613291
0.0613365
0.0613507
0.0613733
0.0614039
0.0614457
0.0614963
0.0615592
0.061647
0.0617399
0.0618558
0.0619934
0.0621579
0.0623651
0.0626044
0.0629516
0.0645783
0.0685129
0.073722
0.071562
0.0492439
0.00081173
7.30752e-13
7.25624e-13
4.14443e-17
7.13406e-21
1.12954e-12
1.17693e-09
7.90332e-08
1.36138e-06
1.09102e-05
5.47095e-05
0.000201824
0.000602797
0.00153148
0.00343994
0.00683386
0.0118317
0.0166068
0.000431561
0.0468012
0.0640866
0.0646888
0.0655671
0.0658964
0.0658318
0.0654772
0.0649529
0.0643032
0.0635946
0.0630313
0.0627189
0.0623933
0.0623446
0.0625509
0.0618884
0.0612803
0.0628576
0.0618429
0.0617611
0.0616788
0.0616079
0.0615428
0.0614927
0.0614487
0.0614084
0.0613774
0.0613554
0.0613354
0.0613263
0.061324
0.0613307
0.0613397
0.0613708
0.0613924
0.0614371
0.0614926
0.0615475
0.0616295
0.0617211
0.0618245
0.0619556
0.0621065
0.0622925
0.0625137
0.0627563
0.063595
0.0663567
0.0710712
0.0747922
0.0649597
0.0284471
2.60823e-06
1.26647e-11
2.9008e-15
9.89055e-19
3.48013e-21
1.18887e-12
1.24968e-09
8.49733e-08
1.48443e-06
1.20397e-05
6.02311e-05
0.000218619
0.000634552
0.00156794
0.00339954
0.00663451
0.0116171
0.0179147
0.0224488
0.000181411
0.0507384
0.0629203
0.0655689
0.0659037
0.0658413
0.0654912
0.0649759
0.0643167
0.0636379
0.0630787
0.0627677
0.0625333
0.0622108
0.0622116
0.0624511
0.0617284
0.0611672
0.0628379
0.0617521
0.0616826
0.0616079
0.0615459
0.0614967
0.0614473
0.0614128
0.0613757
0.0613552
0.0613375
0.0613248
0.0613205
0.0613266
0.0613361
0.0613611
0.0613882
0.0614307
0.0614763
0.0615405
0.0616133
0.0616994
0.0618047
0.0619253
0.0620725
0.062242
0.0624402
0.0626679
0.0630776
0.0648634
0.0686111
0.0735285
0.0722989
0.0552731
0.00575351
9.64004e-11
1.63547e-12
7.68202e-19
2.36585e-18
1.19864e-20
1.24701e-12
1.31567e-09
9.01919e-08
1.59386e-06
1.30934e-05
6.61851e-05
0.000239569
0.000684912
0.00164706
0.00348023
0.00658476
0.0113473
0.0177383
0.024657
0.0277949
9.02706e-06
0.0532203
0.0617855
0.0659048
0.065842
0.0654948
0.0649777
0.0643301
0.0636441
0.0631075
0.0627983
0.0625903
0.0623541
0.0620439
0.0620915
0.0623589
0.0615804
0.0610854
0.0628304
0.0616673
0.0616113
0.0615456
0.0614934
0.0614451
0.0614098
0.0613737
0.0613542
0.0613382
0.0613215
0.061321
0.0613247
0.0613335
0.0613527
0.0613826
0.0614162
0.0614631
0.0615265
0.0615918
0.0616803
0.0617757
0.0618967
0.0620326
0.0622006
0.0623871
0.0625907
0.0628623
0.0638887
0.0667111
0.0712004
0.0746633
0.0663762
0.037177
5.91165e-05
2.89086e-12
1.50353e-20
2.14248e-17
7.2368e-21
4.43261e-26
1.3125e-12
1.38064e-09
9.49371e-08
1.69e-06
1.40275e-05
7.17193e-05
0.000261872
0.000746281
0.00176981
0.00364629
0.00673819
0.0113034
0.0174154
0.0245683
0.0311184
0.0316593
2.22675e-06
0.0545749
0.0608051
0.065845
0.0654997
0.0649726
0.0643452
0.0636425
0.0631093
0.0628181
0.0626269
0.0624126
0.0621881
0.0618822
0.0619911
0.0622671
0.0614378
0.0610273
0.0628346
0.0615905
0.0615433
0.0614922
0.0614401
0.0614006
0.0613769
0.0613451
0.0613361
0.0613214
0.0613168
0.0613181
0.0613259
0.0613456
0.0613765
0.0614067
0.0614529
0.0615126
0.0615756
0.0616612
0.0617589
0.0618735
0.0619985
0.0621579
0.062332
0.0625333
0.0627509
0.0633179
0.0653302
0.0690352
0.0736098
0.0722038
0.0577034
0.0110208
2.9675e-09
6.18242e-14
1.44025e-15
2.27661e-18
3.81614e-20
5.48974e-19
1.39522e-12
1.45374e-09
9.96246e-08
1.77763e-06
1.4849e-05
7.66067e-05
0.000282458
0.000810665
0.00191558
0.00389684
0.00703608
0.0115555
0.017397
0.024219
0.0311497
0.0363223
0.0333214
0.000241032
0.0551666
0.0598055
0.0655185
0.0649717
0.0643405
0.0636637
0.0631122
0.0628239
0.0626412
0.0624558
0.0622456
0.0620294
0.0617398
0.0619026
0.0621776
0.0613028
0.0609858
0.06284
0.06152
0.0614895
0.0614391
0.0614022
0.0613729
0.0613482
0.0613327
0.06132
0.061318
0.0613224
0.0613276
0.0613395
0.0613714
0.0613975
0.0614493
0.0615034
0.0615724
0.0616448
0.0617399
0.0618443