/*--------------------------------*- C++ -*----------------------------------*\
| =========                 |                                                 |
| \\      /  F ield         | OpenFOAM: The Open Source CFD Toolbox           |
|  \\    /   O peration     | Version:  v2012                                 |
|   \\  /    A nd           | Website:  www.openfoam.com                      |
|    \\/     M anipulation  |                                                 |
\*---------------------------------------------------------------------------*/
FoamFile
{
    version     2.0;
    format      ascii;
    class       volScalarField;
    location    "0";
    object      I2_4;
}
// * * * * * * * * * * * * * * * * * * * * * * * * * * * * * * * * * * * * * //

dimensions      [0 0 0 0 0 0 0];


internalField   nonuniform List<scalar> 
31383
(
0.00912384
24.9519
8.42705e-05
281.078
5.14328
1.09212e-05
549065
16.9053
0.921357
2.74697e-06
0.727538
747.919
17.0923
0.213037
9.13781e-07
0.560181
0.0362829
3.42481
39.5905
0.0541515
3.71353e-07
1.96496
0.023426
0.0210853
0.165924
1318.92
0.0167697
1.7733e-07
3.18695
0.079113
0.00912205
0.0199153
0.0176282
375.223
0.00477553
9.21989e-08
2.39018
0.137986
0.0294953
0.00474029
0.0383021
0.00273625
2.14973
0.00120455
5.02515e-08
240.181
0.114548
0.0602016
0.0149867
0.00334572
0.31539
0.000537234
0.12083
0.000341761
2.77142e-08
1101.68
9.03348
0.0732978
0.0429232
0.0103706
0.00309799
123.868
0.000122577
0.0132701
0.000127403
1.40309e-08
1337.85
36.2285
3.34335
0.0887349
0.0494423
0.00952117
0.00414893
0.0143763
3.12465e-05
0.0019997
6.85505e-05
6.78245e-09
6173.37
44.7721
11.1857
1.91181
0.180074
0.130747
0.0128972
0.0103832
0.000485128
9.18968e-06
0.000416862
0.000158671
1.25153e-05
98004.6
194.354
13.2717
4.76968
1.59285
3.59763
5.56748
0.0354057
0.152407
4.49934e-05
2.68187e-06
0.000104249
0.00591653
9.57001e-06
3.87451e+07
2429.83
54.4263
5.20325
2.77102
2.34888
2.08403
0.528433
0.907396
1.89142
6.66362e-06
9.45012e-07
3.04893e-05
0.00104414
3.40483e-06
3.34819e+07
580730
580.942
20.0779
2.66917
2.14291
11.6903
0.00666672
0.00336464
0.890363
0.00266798
1.38373e-06
3.4769e-07
1.03836e-05
102.451
3.7831e-06
933858
6.78356e+06
47110
187.978
9.73963
1.69808
2.44515
7.63285e+07
0.000271307
0.000166685
0.00345325
0.000134118
3.72547e-07
1.48734e-07
3.97804e-06
9.24355
2.19899e-06
182771
191903
4.04937e+09
9991.08
84.9051
5.81073
1.34843
5.4455
1.08893
2.36614e-05
1.72949e-05
0.000204133
1.75252e-05
1.23292e-07
7.02467e-08
1.62629e-06
5.39525e-08
4.01595e-05
57908.1
38590.3
473535
5.05331e+07
3467.35
48.8662
4.36156
1.53064
76.6886
0.0249504
3.22028e-06
2.88149e-06
2.82884e-05
3.81114e-06
4.80475e-08
3.58247e-08
6.44958e-07
1.3665e-08
4.10944e-05
214209
12109.3
62185.7
2.09197e+06
1.36494e+06
2003.2
38.1015
4.34908
2.71859
584.591
0.00189386
5.98891e-07
6.68785e-07
6.3586e-06
1.15318e-06
2.15256e-08
2.02093e-08
2.90384e-07
4.72425e-09
3.01565e-06
1.1949e+09
43900
17815.6
139289
7.62336e+07
529024
2215.78
44.9552
7.11388
16.7135
0.671501
0.000254051
1.43068e-07
1.99209e-07
1.98816e-06
4.38733e-07
1.10152e-08
1.19186e-08
1.45758e-07
2.03185e-09
2.06946e-06
2.63777e+06
4.92512e+08
460340
36064.5
759610
7.14897e+09
2.06685e+06
7635.57
110.701
35.9505
1.3609e+10
0.0293034
4.98008e-05
4.2597e-08
7.08469e-08
7.6549e-07
1.96772e-07
6.08005e-09
7.52158e-09
8.07266e-08
1.02543e-09
3.76539e-05
31414
11631
31117.5
2.6232e+15
175083
2.67826e+06
1.34465e+07
7.16174e+06
2.848e+08
2884.05
42941.4
3.786
0.003651
1.33585e-05
1.5586e-08
3.02404e-08
3.38421e-07
1.00177e-07
3.63076e-09
4.9776e-09
4.83258e-08
0.000912574
4.1896e-05
26.9891
2.2401e+07
455.231
1315.44
116201
776536
582342
53092.6
3919.5
1028.2
1510.46
27.8311
0.127958
0.000765359
4.60854e-06
6.69152e-09
1.43949e-08
1.71186e-07
5.62992e-08
2.3151e-09
3.45588e-09
3.07806e-08
0.00054712
5.54388e-05
4.35542
386.208
173.574
49.0026
174.859
10609.3
322488
15210.5
998.765
105.544
21.1738
7.25361
0.648987
0.0154244
0.000226357
1.89871e-06
3.20528e-09
7.61917e-09
9.5759e-08
3.42311e-08
1.556e-09
2.48552e-09
2.0816e-08
2.24446e-10
8.9446e-05
0.332242
575.412
47.1316
9.65019
8.69397
50.1867
5548.05
10672.7
499.518
44.2006
6.87586
1.49616
0.477838
0.0694823
0.00343249
8.41118e-05
8.82656e-07
1.71131e-09
4.40906e-09
5.79572e-08
2.22307e-08
1.09635e-09
1.84922e-09
1.45208e-08
6.4408e-05
0.000200814
0.220063
3.58653
0.478927
0.8933
1.19835
2.724
26.5828
35441
333.695
26.4275
3.43229
0.771916
0.203469
0.0732976
0.0145494
0.00106994
3.6941e-05
4.5821e-07
9.90438e-10
2.74099e-09
3.75521e-08
1.52461e-08
8.03267e-10
1.41514e-09
1.05891e-08
4.5569e-05
0.00340862
16.9896
0.140404
0.273173
0.0308664
0.0730076
0.297431
1.38282
31.7407
30293.4
16.6034
2.27616
0.467814
0.133041
0.0430057
0.017987
0.00440904
0.00041725
1.8198e-05
2.60145e-07
6.16319e-10
1.8107e-09
2.56593e-08
1.0945e-08
6.09596e-10
1.10944e-09
8.08429e-09
1.40804e-05
0.0536811
23.4614
1.99701
20.6515
0.0109563
0.00373534
0.0143941
0.131997
1.24281
227.294
45.2281
1.30039
0.291499
0.0850988
0.0317285
0.0125431
0.0059083
0.00165657
0.000192084
9.98387e-06
1.59547e-07
4.07908e-10
1.25811e-09
1.83877e-08
8.17113e-09
4.74626e-10
8.84946e-10
6.22618e-09
1.07254e-05
27.342
11.0282
1.83301
2.2361
0.377123
0.000946682
0.000751381
0.00551968
0.106038
3.18865
2684.31
1.41119
0.155155
0.0512996
0.0206175
0.00986837
0.0045788
0.00235523
0.000744641
0.000100118
5.95568e-06
1.04029e-07
2.8415e-10
9.10197e-10
1.36784e-08
6.29054e-09
0.135319
6.93791e-10
4.90277e-09
3.52938e-06
0.0107691
6.97746
0.88728
1.2371
19.1496
0.012843
0.000131885
0.000280208
0.00392791
0.241481
711.299
1.75862
0.108038
0.0278876
0.0122635
0.00651894
0.00371424
0.00195644
0.00109781
0.000382528
5.75241e-05
3.82306e-06
7.17128e-08
2.06172e-10
6.83806e-10
1.05211e-08
4.96162e-09
0.109594
5.69072e-10
3.84786e-09
3.62602e-05
0.000118338
6.97044
0.474518
0.452632
1.71583
43.8352
0.000676311
4.07808e-05
0.000168898
0.00716191
27.4458
1.63238
0.0611147
0.0146333
0.00656298
0.00376375
0.0024532
0.00161739
0.000955892
0.000578959
0.000218417
3.58692e-05
2.5897e-06
5.16945e-08
1.5531e-10
5.29588e-10
8.28647e-09
4.12293e-09
2.52079e-10
4.70104e-10
3.07279e-09
1.88683e-05
1.14838e-05
7.33869
0.433781
0.230991
0.329974
1.5032
10407.9
9.55705e-05
2.15853e-05
0.000201648
0.260206
0.192235
0.0227669
0.00605068
0.00303002
0.00196162
0.00141423
0.00107196
0.000802754
0.000520178
0.000333228
0.000134357
2.37698e-05
1.84028e-06
3.87332e-08
1.20171e-10
4.19591e-10
6.66483e-09
3.37234e-09
2.09707e-10
3.91595e-10
0.000409875
9.88657e-06
4.73115e-05
10.2728
0.433705
0.20297
0.142096
0.357345
0.84579
0.649385
4.35537e-05
2.11517e-05
0.00102031
0.016094
0.00215736
0.00167716
0.00105598
0.000863702
0.000737268
0.000615646
0.00053005
0.000439066
0.000306137
0.000208049
8.87268e-05
1.66561e-05
1.36534e-06
2.98688e-08
9.52723e-11
3.38617e-10
5.45709e-09
2.79824e-09
1.76344e-10
3.2748e-10
0.00032422
2.50775e-05
4.53572e-06
69.9667
0.58159
0.205873
0.11821
0.11369
0.216093
3.25708
0.141417
3.52778e-05
6.39043e-05
3.80779
0.000113294
0.000144406
0.000243476
0.000274509
0.000300919
0.000315356
0.000303485
0.000290876
0.000260978
0.000194537
0.00013881
6.19357e-05
1.21842e-05
1.04782e-06
2.36241e-08
7.70342e-11
2.78423e-10
4.5251e-09
2.3477e-09
1.49458e-10
2.83667e-10
1.57014e-09
1.61807e-05
2.23279e-07
139.666
4.16376
0.233229
0.129434
0.0907135
0.107433
0.0826896
503.684
0.123146
8.54013e-05
0.0377275
5.19524e-05
6.86465e-06
2.07345e-05
5.73755e-05
8.91893e-05
0.000124578
0.00015497
0.000164795
0.000173107
0.000166627
0.000130953
9.74611e-05
4.52416e-05
9.23445e-06
8.232e-07
1.90662e-08
6.33088e-11
2.31583e-10
3.80201e-09
1.9911e-09
1.27525e-10
2.3891e-10
1.26011e-09
7.92989e-06
4.53679e-07
80.1211
11.0498
1.7688
0.126549
0.0942924
0.0880715
0.0937915
0.098498
333.468
0.50657
0.0112432
2.78861e-05
1.68584e-06
9.52237e-07
4.73852e-06
1.79291e-05
3.58583e-05
5.93315e-05
8.35015e-05
9.78297e-05
0.000110118
0.000112282
9.28103e-05
7.12399e-05
3.40838e-05
7.1983e-06
6.60275e-07
1.56328e-08
5.27546e-11
1.95521e-10
3.22603e-09
1.70411e-09
1.09463e-10
2.00634e-10
2.7497e-05
3.57395e-05
5.26862e-07
7.75781e+13
4.03744
4.33982
0.980666
0.0855579
0.0844228
0.0849981
0.0549837
0.187955
14.9752
227.984
8.65927e-05
4.78748e-07
1.83603e-07
2.07695e-07
1.47932e-06
6.91775e-06
1.64797e-05
3.14406e-05
4.93272e-05
6.20868e-05
7.40528e-05
7.96598e-05
6.82375e-05
5.39699e-05
2.65023e-05
5.74828e-06
5.39676e-07
1.30071e-08
4.4478e-11
1.66251e-10
2.76301e-09
0.00345116
8.95129e-11
1.68349e-10
2.12074e-05
2.22208e-05
3.52861e-07
1361.72
6.67675e+06
2.18172
2.4639
0.684857
0.0691175
0.108062
0.0491331
0.0153442
0.0906046
0.423256
0.0128355
1.13862e-06
4.4091e-08
3.63538e-08
6.28679e-08
5.59421e-07
3.1119e-06
8.50058e-06
1.8144e-05
3.11223e-05
4.18333e-05
5.22636e-05
5.88869e-05
5.19971e-05
4.20615e-05
2.11365e-05
4.68198e-06
4.47615e-07
1.09695e-08
3.79327e-11
1.4294e-10
2.38619e-09
0.00299327
7.73537e-11
0.000116428
6.08907e-10
1.16688e-05
5.03213e-07
0.00846622
2534.25
18963.1
1.58131
2.00627
0.556416
0.064628
0.151985
0.0242482
0.00909851
0.0322765
0.0240819
0.000378008
8.91135e-08
8.0091e-09
1.02224e-08
2.37056e-08
2.51419e-07
1.60189e-06
4.86474e-06
1.13338e-05
2.0875e-05
2.94894e-05
3.85486e-05
4.48249e-05
4.06959e-05
3.35278e-05
1.71768e-05
3.868e-06
3.76079e-07
9.32471e-09
3.26375e-11
1.23787e-10
2.14359e-09
1.10942e-09
6.68663e-11
9.65871e-05
3.25766e-06
2.60225e-05
1.08038e-06
4.73703
0.0117655
50.7073
1333.05
1.68046
1.95044
0.488634
0.0683733
0.0818854
0.00934139
0.0110011
0.0102525
0.00243577
3.95432e-05
1.51538e-08
2.08582e-09
3.66174e-09
1.05326e-08
1.2856e-07
9.05647e-07
2.99338e-06
7.5161e-06
1.46678e-05
2.16716e-05
2.93777e-05
3.51197e-05
3.25681e-05
2.7228e-05
1.41639e-05
3.23427e-06
3.19772e-07
8.02092e-09
2.82757e-11
1.07907e-10
1.87326e-09
9.69967e-10
6.07225e-11
9.93096e-11
3.00263e-05
1.5984e-05
1.44897e-05
161.765
1.42041
0.00103832
0.463384
142.773
2.71247
2.17413
1.19278e+08
0.0468862
0.0184
0.00511551
0.00558054
0.00308518
0.000400617
7.40146e-06
3.94609e-09
7.30419e-10
1.56792e-09
5.3025e-09
7.20426e-08
5.50954e-07
1.96907e-06
5.25818e-06
1.07582e-05
1.64829e-05
2.29864e-05
2.81258e-05
2.65904e-05
2.25312e-05
1.18763e-05
2.74692e-06
2.74356e-07
6.95459e-09
2.46668e-11
9.46054e-11
1.64636e-09
8.4957e-10
5.24059e-11
8.33801e-11
1.37053e-05
8.7317e-06
7.31593e-05
438.559
127.049
0.0376845
7.42554e-05
0.0264196
28.1922
9.25143
1.64471
2022.57
0.0327231
0.00536789
0.00472389
0.00254707
0.000926184
9.55494e-05
2.04138e-06
1.3258e-09
3.0689e-10
7.74788e-10
2.93404e-09
4.3866e-08
3.60548e-07
1.36914e-06
3.83943e-06
8.14274e-06
1.28681e-05
1.83757e-05
2.29248e-05
2.20189e-05
1.88892e-05
1.00662e-05
2.35041e-06
2.3749e-07
6.07346e-09
2.17062e-11
8.33749e-11
0.000560877
7.20777e-10
5.54657e-05
6.69998e-11
6.09133e-06
5.47227e-06
0.00215085
6159.15
156.737
26.1179
0.00182207
4.79329e-06
0.00318003
9.8124
130.168
0.326991
1.69657e+07
0.0108109
0.00332584
0.00312308
0.00120061
0.000317979
2.91271e-05
6.96572e-07
5.49263e-10
1.46984e-10
4.20106e-10
1.78579e-09
2.85702e-08
2.48257e-07
9.91902e-07
2.89474e-06
6.34632e-06
1.02737e-05
1.49528e-05
1.89861e-05
1.84464e-05
1.59813e-05
8.60371e-06
2.03202e-06
2.0742e-07
5.33719e-09
1.91331e-11
7.38195e-11
0.000494812
6.32594e-10
4.74778e-05
4.67094e-06
2.65085e-06
1.72582e-06
0.0119926
266101
6759.11
14.8319
13.1471
0.000165605
2.80777e-07
0.000573657
5.61864
1055.23
0.0701675
5.61066e+06
0.004992
0.0022695
0.00166126
0.000585912
0.000122776
1.08642e-05
2.91284e-07
2.60743e-10
7.98604e-11
2.52504e-10
1.14982e-09
1.96472e-08
1.79179e-07
7.4848e-07
2.25031e-06
5.07376e-06
8.37359e-06
1.23786e-05
1.59408e-05
1.56729e-05
1.36971e-05
7.43914e-06
1.77281e-06
1.81893e-07
4.712e-09
1.69714e-11
7.09263e-11
1.13685e-09
6.3351e-05
3.11798e-11
3.64673e-06
1.1314e-06
2.38591e-07
0.0078367
65.8592
28056.7
300.094
2.04999
47.2643
2.56732e-05
1.61535e-08
0.000139937
4.27847
3.23656
0.12156
64.3755
0.00873403
0.0016404
0.000893571
0.000295106
5.42869e-05
4.7159e-06
1.42215e-07
1.3977e-10
4.6924e-11
1.6219e-10
7.8706e-10
1.41599e-08
1.34288e-07
5.79805e-07
1.79562e-06
4.13006e-06
6.92082e-06
1.03905e-05
1.35485e-05
1.34305e-05
1.18299e-05
6.47211e-06
0.0103859
1.57594e-07
4.18197e-09
1.50946e-11
6.31475e-11
1.00777e-09
5.53928e-05
2.75838e-11
1.16964e-06
2.21738e-06
3.02006e-06
0.00360815
0.000961547
22.0616
332.617
14.1834
0.458882
346.876
6.48639e-06
1.16117e-09
4.60397e-05
40.4268
0.329701
0.0436525
378200
0.00513963
0.00123509
0.000531674
0.000157515
2.61921e-05
2.31312e-06
7.63426e-08
8.24415e-11
2.99801e-11
1.10058e-10
5.65564e-10
1.05451e-08
1.03375e-07
4.59848e-07
1.45339e-06
3.41606e-06
5.79869e-06
8.85409e-06
1.16409e-05
1.16232e-05
1.03038e-05
5.68113e-06
0.00909043
1.39892e-07
3.72844e-09
1.34834e-11
5.63054e-11
9.22187e-10
4.36214e-10
4.9288e-06
8.77269e-07
3.14389e-06
1.99803e-05
0.00054231
7.10917e-05
0.000141986
2.64697
7.17903
0.849608
0.17706
2.367e+06
2.248e-06
1.31354e-10
2.19665e-05
4690.46
0.0903206
0.00855953
0.00655678
0.00172951
0.000923136
0.000323371
8.8408e-05
1.39252e-05
1.28377e-06
4.47784e-08
5.1781e-11
2.02027e-11
7.90515e-11
4.22211e-10
8.14121e-09
8.18497e-08
3.71456e-07
1.19774e-06
2.86162e-06
4.92959e-06
7.58272e-06
1.00743e-05
1.01424e-05
9.05535e-06
5.0704e-06
1.21684e-06
1.24607e-07
0.000555727
1.04678e-11
8.91336e-05
7.88243e-10
3.77516e-10
4.04998e-06
2.7001e-07
1.33482e-06
1.93093e-05
0.000100015
9.40075e-07
7.90715e-06
2.12253e-05
0.60878
0.288209
0.0648892
0.192949
138677
9.68881e-07
5.08583e-11
1.60645e-05
5078.55
0.0996095
0.0120256
113193
0.00115341
0.000569178
0.000207322
5.28583e-05
7.98833e-06
7.60373e-07
2.82121e-08
3.48604e-11
1.4361e-11
5.86761e-11
3.27004e-10
6.46602e-09
6.63045e-08
3.05932e-07
1.00095e-06
2.42156e-06
4.22149e-06
6.55462e-06
8.79003e-06
8.90898e-06
8.0079e-06
4.49868e-06
1.08361e-06
0.000811509
0.000497976
0.00012831
7.95814e-05
1.96675e-05
6.29182e-06
1.36913e-06
2.4464e-06
5.87836e-07
1.08137e-05
0.000114501
1.20209e-09
5.58544e-08
1.38222e-06
7.33444e-06
0.264823
0.0216556
0.0077242
1.74622
0.00191139
5.96492e-07
4.80116e-11
1.96844e-05
180.892
0.129674
0.0159799
69377.3
0.000793872
0.000357577
0.000134139
3.31057e-05
4.95837e-06
4.86609e-07
1.90424e-08
2.45319e-11
1.0551e-11
4.47623e-11
2.58075e-10
5.20944e-09
5.46423e-08
2.55756e-07
8.46731e-07
2.07664e-06
3.65734e-06
0.0469612
7.62311e-06
7.88533e-06
0.0057834
0.00270699
9.57957e-07
0.000728668
2.57759e-09
0.000115021
3.6999e-11
1.72786e-05
5.36227e-06
1.08752e-06
1.07435e-06
6.43864e-07
2.06151e-07
0.000329461
4.77006e-08
6.50604e-11
1.66145e-08
4.15359e-07
7.8764e-06
0.20014
0.00294128
0.00159061
1691.13
0.000871677
5.82791e-07
6.66041e-11
4.6947e-05
77.4785
0.125884
0.00984619
0.00194234
0.000561724
0.000239756
9.11504e-05
2.15379e-05
3.25081e-06
3.26895e-07
1.33354e-08
1.80001e-11
8.0251e-12
3.52225e-11
2.0765e-10
4.26218e-09
4.55568e-08
2.16492e-07
7.23661e-07
1.79674e-06
3.19314e-06
0.0412958
6.74092e-06
0.00677214
0.0051732
0.0024244
8.70879e-07
9.15312e-08
2.4094e-09
8.68983e-12
3.56344e-11
5.53554e-10
1.89766e-06
3.54225e-07
2.13046e-06
1.2852e-06
3.69383e-10
0.000778117
2.8247e-06
2.7006e-09
2.0771e-11
6.99648e-09
1.78753e-07
1.83271e-06
0.606811
0.000735124
0.000589199
2.56708
4865.59
8.0687e-07
8.99172e-11
0.000351769
38.5223
0.0681089
0.00538122
0.00123578
0.000404528
0.000167282
6.39456e-05
1.49438e-05
2.2189e-06
2.31125e-07
9.88193e-09
1.37527e-11
6.33092e-12
2.82476e-11
1.69715e-10
3.55082e-09
3.83946e-08
1.84746e-07
6.26696e-07
1.56195e-06
2.85424e-06
4.44654e-06
6.00734e-06
0.00607918
5.68559e-06
3.19671e-06
7.84058e-07
8.25258e-08
2.16981e-09
7.7939e-12
9.77241e-06
3.57286e-06
1.57599e-06
3.46098e-06
2.98947e-06
1.9816e-06
6.5081e-09
0.00196859
8.03007e-06
1.52173e-07
8.4135e-10
9.10805e-12
3.64645e-09
9.73048e-08
1.21144e-06
75.3374
0.000187149
0.000347847
486213
100241
2.70681e-06
9.04951e-11
0.705794
7.04834
0.019268
0.003109
0.000816581
0.00029133
0.000122437
4.56479e-05
1.06974e-05
1.60479e-06
1.71196e-07
7.51662e-09
1.07069e-11
5.06761e-12
2.32186e-11
1.41704e-10
2.99719e-09
3.27939e-08
1.58908e-07
5.45278e-07
1.37165e-06
2.51874e-06
3.94573e-06
5.4286e-06
5.67294e-06
5.10836e-06
2.88135e-06
7.07333e-07
7.43589e-08
1.95194e-09
6.97559e-12
8.63223e-06
3.07755e-06
5.44162e-07
1.6612e-06
2.862e-06
1.8821e-06
4.53478e-10
0.00297819
2.23841e-05
4.0469e-07
4.92174e-08
3.5986e-10
4.79201e-12
2.14943e-09
6.06822e-08
1.01995e-06
1.51347
0.000109139
0.000354469
0.0148726
0.013957
4.81736e-05
6.76135e-11
0.000647489
1.02135
0.00660383
0.0018627
0.000555428
0.000213935
9.0392e-05
3.42122e-05
7.86692e-06
1.19116e-06
1.30082e-07
5.82891e-09
8.62336e-12
4.14548e-12
1.92962e-11
1.19811e-10
2.56799e-09
2.82886e-08
1.38447e-07
4.78514e-07
1.20854e-06
2.23962e-06
3.52939e-06
4.86793e-06
5.10601e-06
4.60728e-06
2.6022e-06
6.38552e-07
6.70606e-08
2.14643e-05
8.29357e-06
2.45746e-11
1.10726e-06
5.51081e-06
7.70321e-07
2.5601e-06
2.49532e-06
8.59518e-11
0.00753861
609.903
1.16588e-06
1.37719e-07
2.14506e-08
1.8845e-10
2.90784e-12
1.38256e-09
4.52989e-08
5.16405e-07
0.0753372
9.56516e-05
0.000741628
0.000152947
8.96519e-05
0.00887838
4.0102e-11
2.20932e-05
0.269275
0.00281938
0.0011744
0.000388552
0.000161581
6.91568e-05
2.59482e-05
5.94989e-06
9.17356e-07
1.02106e-07
4.67386e-09
7.01659e-12
3.42215e-12
1.62114e-11
1.0229e-10
2.21338e-09
2.46114e-08
1.21527e-07
4.22616e-07
1.07726e-06
2.00076e-06
3.16252e-06
4.37676e-06
4.61225e-06
4.16826e-06
2.354e-06
8.68854e-05
3.33581e-05
1.92596e-05
7.37446e-06
1.78916e-06
9.33007e-07
2.80871e-06
1.59026e-06
1.07868e-06
3.47333e-06
1.8776e-08
0.044567
8.43665e+06
153.09
4.07386e-07
6.186e-08
1.12988e-08
1.1462e-10
2.20972e-11
1.02526e-09
3.88337e-08
7.57403e-07
0.0165154
8.99538e-05
0.0131941
2.29743e-05
1.03513e-05
5.865e-06
2.1204e-11
3.34698e-06
0.0974161
0.00135675
0.000753681
0.000283523
0.000121967
5.41446e-05
2.02426e-05
4.6489e-06
7.22111e-07
8.10435e-08
3.78333e-09
5.80762e-12
2.86393e-12
1.37584e-11
8.74845e-11
1.93074e-09
2.15891e-08
1.07302e-07
3.74174e-07
9.59521e-07
1.79168e-06
2.85122e-06
3.95865e-06
4.16603e-06
3.7769e-06
2.12961e-06
7.85857e-05
3.00511e-05
1.40886e-09
4.89277e-12
1.54836e-06
3.28945e-07
1.39927e-06
2.25941e-06
1.41229e-06
2.72896e-06
1.40541e-10
0.271982
51043.7
535197
1626.78
1.87864e-07
3.28246e-08
6.8367e-09
6.98244e-12
1.29647e-12
8.54682e-10
2.58506e-08
6.31606e-07
0.0241709
0.000238949
0.142328
6.28923e-06
1.56602e-06
0.323472
1.57591e-11
9.5504e-07
1674.89
0.000683506
0.000506735
0.000212928
9.526e-05
4.31182e-05
1.59496e-05
3.70351e-06
5.79325e-07
6.61219e-08
3.13012e-09
4.8765e-12
2.43825e-12
1.19104e-11
7.63383e-11
1.68688e-09
1.90082e-08
9.50465e-08
3.33979e-07
0.00372203
1.58727e-06
2.57479e-06
0.000582428
3.73959e-06
3.42805e-06
7.9922e-05
4.71367e-07
4.89699e-08
4.21133e-06
1.54492e-06
5.53184e-07
3.32356e-06
6.79057e-07
2.13456e-06
1.15753e-06
2.35871e-06
1.41232e-10
2.03178
1.07265e+06
1893.79
137506
2687.86
1.00471e-07
2.11507e-08
3.70772e-09
2.2439e-10
1.32189e-14
5.85256e-10
2.15058e-08
6.76049e-07
0.966776
0.00251328
0.000391097
1.54433e-06
5.37888e-07
0.066785
7.50748e-12
3.96821e-07
733.345
0.000401025
0.000350382
0.000160558
7.47319e-05
3.45193e-05
1.28579e-05
3.01714e-06
4.71422e-07
5.45444e-08
2.64145e-09
4.14772e-12
2.10611e-12
1.03028e-11
6.6782e-11
1.48953e-09
1.69386e-08
8.48656e-08
3.00312e-07
0.00335068
0.00117113
2.29563e-06
0.00052757
3.39879e-06
0.000104258
7.24867e-05
4.24992e-07
4.38993e-08
3.73718e-06
1.34793e-06
6.0008e-06
1.71896e-06
1.47591e-06
1.847e-06
5.89931e-07
9.75759e-07
4.38831e-07
5.71889
3.26242e+08
51074.3
412.425
26903.4
6.86141
6.48243e-08
1.65745e-08
4.15109e-09
3.45164e-11
7.1478e-13
4.97139e-10
2.07037e-08
3.45192e-07
0.0701979
1.02116e+06
3.77901e-05
5.86478e-07
2.69554e-07
2.88935e-08
1.44253e-11
2.056e-07
0.00822533
0.000246682
0.000252277
0.000124595
6.05997e-05
2.81605e-05
1.04892e-05
2.46964e-06
3.91717e-07
4.57138e-08
2.22635e-09
3.54399e-12
1.81896e-12
8.98545e-12
5.89528e-11
1.32203e-09
1.50602e-08
7.61e-08
2.78995e-07
7.00713e-07
0.00105818
2.11264e-06
2.95968e-06
3.08586e-06
9.48102e-05
1.5841e-06
1.24276e-05
4.22203e-06
1.39955e-06
4.86437e-07
3.23126e-06
4.05302e-06
2.20378e-06
1.34072e-06
5.69328e-07
5.79122e-10
2.80311e-06
10.8435
6.37697e+08
2.3513e+07
19595
145.799
7952.03
0.385619
6.79031e-08
8.92867e-09
2.04407e-09
2.65956e-11
6.07656e-13
4.86963e-10
2.54421e-08
1.81475e-07
0.000596304
0.00170273
7.8348e-06
2.51155e-07
1.88347e-07
1.43614e-08
1.93494e-12
1.24096e-07
0.00461009
0.000165172
0.000188041
9.92878e-05
4.92374e-05
2.31971e-05
8.78634e-06
2.06642e-06
3.28109e-07
3.86452e-08
1.90732e-09
3.0683e-12
1.59875e-12
7.90917e-12
5.21428e-11
0.00903721
1.22494e-08
6.82605e-08
2.52142e-07
6.51024e-07
1.17775e-06
1.92093e-06
2.68651e-06
7.66172e-05
2.56758e-06
1.43086e-06
1.11606e-05
3.75276e-06
1.22534e-06
5.34802e-06
1.70559e-06
2.31234e-06
2.13972e-06
9.93769e-07
8.02053e-07
1.67147e-08
6.81667e-07
17.9463
2.7359e+07
3.4171e+07
9.75588e+06
19943.2
62.9272
1875.77
0.0431308
2.86295e-08
5.91017e-09
1.54379e-09
2.285e-11
2.46017e-12
5.50105e-10
2.30842e-08
1.54853e-07
4.44652e-05
7.62563e-05
3.17515e-06
2.08656e-07
1.68638e-07
8.02963e-09
0.0263136
8.83173e-08
0.00283505
0.000115609
0.000141794
8.02766e-05
4.07468e-05
1.95601e-05
7.25899e-06
1.73055e-06
2.79586e-07
3.32024e-08
1.66048e-09
2.67952e-12
1.40315e-12
7.03281e-12
4.67301e-11
0.00807655
1.10296e-08
6.16485e-08
2.28574e-07
5.90583e-07
1.06958e-06
1.75172e-06
2.45025e-06
6.95046e-05
2.32528e-06
1.37905e-05
4.99537e-06
1.52871e-06
4.56916e-07
2.91015e-06
8.8556e-07
9.52843e-07
1.84512e-06
7.00975e-07
1.24131e-06
2.94104e-10
2.77975e-08
19.4468
2.51898e+06
1.36312e+06
1.02448e+07
4.92573e+06
19963
29.7293
636.144
0.00802425
2.05581e-08
4.56187e-09
1.29769e-09
7.75981e-12
1.09326e-13
5.97639e-10
3.04466e-08
1.31875e-07
7.37446e-06
1.39932e-05
1.95583e-06
1.882e-07
1.4683e-07
0.000564516
0.0168692
7.18528e-08
0.00184076
8.42895e-05
0.000110312
6.56331e-05
3.37078e-05
1.63541e-05
6.19477e-06
1.47881e-06
2.39608e-07
2.87679e-08
1.44587e-09
2.37459e-12
1.24692e-12
6.27737e-12
6.30835e-11
9.59257e-10
9.96741e-09
5.58746e-08
0.000482422
5.23814e-07
9.76531e-07
8.95522e-05
2.22992e-06
2.34868e-06
1.88507e-05
1.2358e-05
4.43327e-06
1.39388e-05
4.76174e-06
1.55662e-06
2.10276e-06
1.44964e-06
7.26478e-07
5.53195e-07
1.55894e-06
2.18808e-09
0.000520088
55.6129
1.27605e+06
74764.2
393305
3.8735e+06
2.78975e+06
12534.7
16.0818
183.44
0.00177674
1.65467e-08
4.00087e-09
1.08296e-09
4.74023e-11
7.03558e-13
7.54742e-10
3.98155e-08
7.30669e-08
1.68488e-06
5.81968e-06
1.47306e-06
1.34974e-07
1.41896e-07
0.000455667
6.80728e-13
6.50151e-08
0.00126646
21.6161
8.42841e-05
5.39274e-05
2.86001e-05
1.40065e-05
5.32584e-06
1.26955e-06
2.07059e-07
2.51516e-08
1.27371e-09
2.09881e-12
1.10391e-12
0.00628413
3.65935e-11
8.66314e-10
9.03051e-09
5.07886e-08
0.000438245
4.76564e-07
8.89638e-07
8.18048e-05
3.51742e-05
2.14114e-05
1.69865e-05
6.31184e-06
2.10974e-06
8.02885e-07
2.61501e-06
8.18769e-07
1.20195e-06
1.42513e-06
8.77278e-07
2.26038e-07
3.12412e-07
8.29241e-07
0.00228264
80.2708
780714
30223.7
20523.4
159732
1.87618e+06
1.74185e+06
8180.91
9.05985
83.5425
0.000485611
1.46332e-08
4.10301e-09
1.44338e-09
2.55425e-11
2.22276e-12
8.15838e-10
5.44543e-08
5.96816e-08
5.41388e-07
3.3027e-06
1.19037e-06
1.33348e-07
1.61085e-07
3.99737e-09
5.37864e-13
5.77771e-05
0.000912796
16.7593
6.77651e-05
4.53043e-05
2.43387e-05
1.20207e-05
4.57842e-06
1.09805e-06
1.79952e-07
2.19728e-08
1.12469e-09
1.8579e-12
9.95302e-13
0.00563364
3.29456e-11
7.82608e-10
8.21085e-09
4.86272e-08
1.72133e-07
4.34637e-07
8.25958e-07
1.32604e-06
3.20174e-05
1.94713e-05
8.9631e-06
5.59397e-06
1.86258e-06
3.46203e-07
1.41915e-06
1.9795e-06
4.94091e-07
1.23808e-06
9.833e-07
3.41243e-07
7.18777e-11
7.94059e-05
0.000797973
68.0593
938993
41160.6
7842.31
9495.64
76279.9
1.03342e+06
1.09198e+06
5732.57
4.95813
24.2208
0.000144698
1.87296e-08
3.78766e-09
1.40166e-09
1.82785e-11
5.23745e-13
2.01787e-09
7.12129e-08
4.23408e-08
2.2566e-07
2.00371e-06
1.12274e-06
1.35266e-07
1.60135e-07
0.000124541
6.70417e-13
5.762e-05
0.000683695
3.94009e-05
5.54751e-05
3.79282e-05
2.07815e-05
1.0377e-05
3.96235e-06
9.57703e-07
1.57715e-07
1.94199e-08
1.00255e-09
1.66291e-12
2.76679e-12
4.78103e-12
2.98669e-11
7.11298e-10
0.000328206
0.000180664
1.51363e-07
5.95979e-05
3.59722e-05
1.20722e-06
1.69572e-06
1.74164e-06
8.04528e-06
3.08798e-06
9.38692e-07
2.57168e-06
7.56964e-07
1.1525e-06
1.74334e-06
8.80738e-07
3.23128e-07
8.34254e-07
1.01958e-06
0.00452896
0.00431986
50.985
857936
16657.5
3876.56
3853.83
4306.51
41404.3
625433
685506
4553.41
3.14128
11.6111
5.22478e-05
1.60357e-08
4.31171e-09
1.63283e-09
6.98862e-11
1.92019e-12
2.49607e-09
9.05572e-08
3.15596e-08
1.14303e-07
1.50378e-06
1.08315e-06
1.21421e-07
1.6785e-07
0.000137497
0.000862481
6.50347e-08
0.000517299
3.20746e-05
4.57383e-05
3.2439e-05
1.7942e-05
8.98194e-06
3.45032e-06
8.44726e-07
1.40183e-07
1.72815e-08
8.9325e-10
1.50177e-12
2.49197e-12
4.31931e-12
0.000660666
5.32109e-10
0.000299068
0.000165038
1.38281e-07
5.43402e-05
3.27715e-05
1.51182e-05
1.05761e-05
7.08655e-06
4.55434e-06
1.37753e-05
4.83705e-06
1.44118e-06
1.81309e-06
4.8567e-07
1.57349e-06
6.32414e-07
1.14225e-07
1.60989e-06
1.65188e-06
0.820252
0.000129466
37.794
253119
14231.9
6978.04
1665.5
1628.32
2396.99
24326.6
390017
433855
3558.53
1.9172
3.62538
2.16137e-05
1.9749e-08
5.7848e-09
2.56899e-09
6.65051e-11
5.38709e-12
4.196e-09
1.11365e-07
2.48548e-08
6.46476e-08
0.0162472
1.11478e-06
0.00825623
1.92717e-07
5.13704e-09
0.00076274
6.88955e-08
0.000401663
2.65863e-05
3.82629e-05
2.79363e-05
1.55152e-05
7.87778e-06
3.04678e-06
0.0250977
1.36584e-07
1.54325e-08
0.00446136
4.18278e-12
2.26409e-12
3.91678e-12
0.000602691
5.84078e-10
6.81759e-09
3.501e-08
1.30723e-07
3.3985e-07
6.15095e-07
1.3703e-05
9.56031e-06
6.33745e-06
4.04809e-06
1.92333e-06
2.89154e-06
3.28687e-06
1.06624e-06
1.77393e-06
1.13374e-06
4.34441e-07
1.29187e-07
8.65686e-08
1.1369e-08
3.26285
0.11451
27.7262
311846
13319
5855.95
1938.17
854.264
911.61
1466.77
14955.2
268325
269088
3185.88
1.36691
1.81941
1.03401e-05
3.11624e-08
7.65779e-09
3.45795e-09
1.07886e-10
3.57635e-12
7.21746e-09
1.30741e-07
2.04361e-08
4.04763e-08
0.013098
0.00290191
0.00896757
2.21522e-07
5.22522e-05
1.05225e-12
7.52019e-08
0.000315664
2.21911e-05
3.25494e-05
2.42762e-05
1.37021e-05
6.94513e-06
2.68584e-06
0.0223753
1.22424e-07
1.39241e-08
0.00402968
3.8013e-12
2.05205e-12
7.23998e-12
2.30871e-11
5.31409e-10
6.22e-09
3.20391e-08
2.244e-05
3.01794e-07
9.44746e-06
6.80728e-06
5.2338e-06
3.71905e-06
2.4868e-06
1.18004e-06
1.72111e-06
2.01648e-06
4.58967e-07
1.64651e-06
8.03651e-07
3.41251e-07
6.69286e-07
7.69787e-07
4.08717e-05
4.16542
0.100152
19.1584
1.33646e+06
16326.8
2604.43
1645.68
965.921
551.348
556.157
953.79
10044.7
199863
164577
2846.47
1.02301
0.674746
5.59955e-06
4.14029e-08
1.27051e-08
5.48084e-09
1.86172e-10
1.61763e-11
1.34484e-08
1.49753e-07
1.45218e-08
2.55611e-08
7.81942e-07
0.00308585
1.54403e-07
2.60739e-07
6.39828e-05
7.86559e-13
8.44518e-08
0.000252536
1.90308e-05
2.78479e-05
2.11647e-05
1.20645e-05
6.15066e-06
2.2923e-06
5.91859e-07
1.09598e-07
1.08402e-08
6.45107e-10
3.45078e-12
1.86605e-12
6.59322e-12
2.10847e-11
4.86409e-10
5.68923e-09
2.92179e-08
2.04952e-05
8.86917e-06
8.51096e-06
6.12367e-06
4.65914e-06
1.43919e-05
7.807e-06
1.03852e-05
3.39713e-06
9.25117e-07
1.6592e-06
6.71926e-07
3.38968e-07
9.27085e-08
1.99405e-06
4.58395e-06
0.0319141
5.09266
0.0562147
11.3778
384891
18495.1
3027.11
1112.58
820.641
421.36
336.373
363.014
659.606
7381.88
154864
97088.6
2909.98
0.804313
0.334154
3.53674e-06
7.56908e-08
1.64461e-08
8.7249e-09
3.48628e-10
2.55971e-11
2.45507e-08
1.45085e-07
1.18256e-08
1.94672e-08
7.08446e-07
1.39187e-06
1.70521e-07
0.000685981
9.58155e-09
9.11429e-05
9.86835e-08
0.000202425
1.62511e-05
2.38108e-05
1.85448e-05
1.05949e-05
5.47094e-06
2.03507e-06
5.28505e-07
9.90307e-08
9.80343e-09
5.8699e-10
3.14113e-12
0.000275787
2.83713e-12
1.9298e-11
4.31839e-05
4.73474e-09
1.37014e-05
9.58194e-08
8.1134e-06
4.15206e-06
3.30444e-06
2.75669e-06
9.22789e-06
5.04741e-06
6.87053e-06
2.14155e-06
1.46021e-06
1.5508e-06
4.86686e-07
3.70427e-07
1.05359e-07
4.96143e-08
1.5493e-06
0.403049
3.29346
0.242604
6.33953
1.46485e+06
19742.9
7870.84
1290.73
768.734
340.191
260.197
198.781
248.872
450.301
5488.33
128394
56372
3032.5
0.69363
0.15727
2.42772e-06
1.25637e-07
2.98749e-08
1.59489e-08
6.75593e-10
4.24263e-11
3.94179e-08
1.43497e-07
9.64908e-09
1.5967e-08
6.80926e-07
1.64439e-06
2.01054e-07
0.000905463
2.99248e-05
8.00595e-05
1.18181e-07
0.000165753
1.40425e-05
2.06883e-05
1.63655e-05
9.41616e-06
4.88761e-06
1.83826e-06
4.76602e-07
8.92616e-08
0.000931069
7.05528e-10
0.000293125
0.00025087
2.5984e-12
1.75646e-11
3.95595e-05
1.41628e-05
1.24593e-05
5.21956e-06
3.67536e-06
3.71123e-06
2.95116e-06
1.02884e-05
5.99244e-06
3.30752e-06
1.39249e-06
1.06157e-06
1.54333e-06
6.41135e-07
5.56635e-07
1.54655e-07
2.20144e-06
9.37181e-06
7.85583e-05
0.241121
3.0601
0.27669
4.15039
305258
18105.4
3251.52
1352.3
662.1
438.688
243.604
185.879
138.694
179.693
342.861
4267.85
113899
31994.1
3549.08
0.61872
0.0993989
1.76771e-06
2.56858e-07
5.21683e-08
2.76279e-08
1.37499e-09
1.26978e-10
7.25175e-08
1.39624e-07
8.1389e-09
1.34189e-08
6.75762e-07
2.04237e-06
2.43944e-07
6.01352e-07
4.09218e-05
7.94167e-13
1.46791e-07
0.011224
1.16961e-05
1.82034e-05
1.45939e-05
8.47179e-06
4.38217e-06
1.65573e-06
4.31423e-07
8.12134e-08
0.000846928
6.45659e-10
0.000268329
4.57503e-13
2.36518e-12
2.7862e-05
3.09583e-10
1.29522e-05
2.22277e-08
4.73348e-06
3.32683e-06
1.95162e-06
1.71843e-06
6.63043e-06
3.92144e-06
5.45402e-06
2.14982e-06
1.50228e-06
1.41817e-06
4.66058e-07
3.95445e-07
3.8708e-08
1.77721e-06
8.04065e-05
0.32598
0.313958
2.80038
0.243916
2.86208
246996
15491.6
7877.23
1383.64
961.718
483.14
200.098
157.463
128.163
102.735
137.189
288.372
3394.94
111385
18276.2
5020.85
0.541485
0.0637221
1.39296e-06
5.61744e-07
1.00692e-07
5.36414e-08
3.11178e-09
4.38235e-10
1.1196e-07
1.36434e-07
6.84749e-09
1.15125e-08
6.94211e-07
2.67753e-06
2.93135e-07
8.76344e-07