/*--------------------------------*- C++ -*----------------------------------*\
| =========                 |                                                 |
| \\      /  F ield         | OpenFOAM: The Open Source CFD Toolbox           |
|  \\    /   O peration     | Version:  v2012                                 |
|   \\  /    A nd           | Website:  www.openfoam.com                      |
|    \\/     M anipulation  |                                                 |
\*---------------------------------------------------------------------------*/
FoamFile
{
    version     2.0;
    format      ascii;
    class       volScalarField;
    location    "2000";
    object      k;
}
// * * * * * * * * * * * * * * * * * * * * * * * * * * * * * * * * * * * * * //

dimensions      [0 2 -2 0 0 0 0];


internalField   nonuniform List<scalar> 
31383
(
0.795136
0.885678
0.128864
0.823187
0.286167
0.0807654
0.776631
0.263384
1.14233
0.169094
0.742584
0.246419
1.04309
4.09719
0.407122
0.715237
0.234079
0.969221
3.73875
10.8952
0.87598
0.692233
0.22421
0.915685
3.472
9.94093
24.0482
1.70349
0.672865
0.215964
0.872989
3.27874
9.23084
21.9438
46.9976
3.07759
0.656465
0.209021
0.837475
3.12464
8.71638
20.3776
42.9022
84.1707
5.27147
0.642207
0.203159
0.807571
2.99651
8.30618
19.2426
39.8518
76.9128
140.57
8.67872
0.629767
0.198101
0.782374
2.88862
7.96512
18.3375
37.64
71.4971
128.704
220.425
13.8574
0.618598
0.193677
0.760741
2.79773
7.67797
17.585
35.8757
67.5652
119.82
202.514
324.897
21.5665
0.60862
0.189699
0.741793
2.71973
7.43605
16.9513
34.4083
64.4258
113.353
189.016
300.017
450.102
32.7597
0.599594
0.186142
0.724737
2.6514
7.22843
16.4174
33.1722
61.813
108.18
179.148
281.07
418.249
587.327
48.5528
0.591475
0.18292
0.709474
2.58989
7.04659
15.9591
32.1305
59.6104
103.87
171.232
267.14
393.704
549.492
726.047
69.8861
0.584138
0.180038
0.695641
2.53485
6.88289
15.5578
31.2362
57.7529
100.23
164.62
255.92
375.552
519.99
683.793
857.561
97.0038
0.577596
0.177444
0.683318
2.48497
6.73641
15.1965
30.4529
56.1577
97.1573
159.024
246.509
360.849
498.036
650.472
812.408
977.164
129.977
0.571655
0.17513
0.672247
2.44054
6.60365
14.8733
29.7478
54.7602
94.5165
154.289
238.535
348.45
480.148
625.529
776.451
930.096
1082.05
167.906
0.566323
0.173045
0.662377
2.40064
6.48541
14.5803
29.1168
53.5018
92.2014
150.216
231.756
337.945
464.999
605.106
749.4
892.339
1034.16
1170.74
209.93
0.561467
0.171171
0.653528
2.36506
6.37921
14.3193
28.5449
52.3756
90.1157
146.641
225.913
328.953
452.133
587.752
727.193
863.826
995.487
1122.97
1243.28
254.759
0.557081
0.16948
0.645564
2.33317
6.28454
14.0849
28.0355
51.3548
88.2485
143.416
220.78
321.18
441.062
572.966
708.251
840.379
966.174
1084.09
1196.36
1300.79
299.234
0.553106
0.167956
0.638427
2.30447
6.19969
13.8759
27.5779
50.4452
86.5559
140.533
216.141
314.359
431.449
560.183
692.075
820.345
942.04
1054.52
1157.78
1255.24
1344.95
341.698
0.549514
0.16658
0.632004
2.27877
6.12333
13.6887
27.1699
49.628
85.0469
137.915
212.005
308.174
423.045
549.049
678.04
803.253
921.362
1030.15
1128.36
1217.31
1301.19
1377.66
381.207
0.546251
0.165339
0.626219
2.25563
6.05491
13.5201
26.8041
48.899
83.6906
135.579
208.239
302.67
415.397
539.345
665.796
788.4
903.692
1009.23
1104.09
1188.32
1264.13
1336.09
1400.83
416.482
0.543276
0.164217
0.621008
2.2348
5.99335
13.3691
26.4749
48.2454
82.4798
133.477
204.873
297.647
408.595
530.492
655.137
775.416
888.318
991.319
1083.23
1164.4
1235.77
1300.02
1361.86
1416.16
446.444
0.54054
0.163193
0.61631
2.21604
5.93793
13.2332
26.18
47.6569
81.3938
131.598
201.838
293.152
402.386
522.626
645.421
764.115
874.848
975.724
1065.34
1143.81
1212.34
1272.39
1326.84
1380.26
1425.15
470.26
0.538026
0.162252
0.612023
2.19913
5.888
13.1109
25.9145
47.1296
80.4153
129.913
199.126
289.084
396.817
515.455
636.79
753.853
863.124
962.024
1049.77
1126.13
1192.17
1249.54
1300
1346.34
1392.73
1428.95
487.565
0.535707
0.161389
0.608085
2.1837
5.84301
13.0007
25.6755
46.6549
79.5382
128.392
196.686
285.458
391.762
509.006
628.936
744.73
852.517
950.102
1036.04
1110.73
1174.8
1229.87
1277.78
1320.3
1359.92
1400.43
1428.44
498.338
0.533561
0.160596
0.604484
2.16952
5.80195
12.9013
25.4601
46.2273
78.7482
127.028
194.481
282.177
387.258
503.137
621.86
736.446
843.092
939.352
1024.09
1097.13
1159.67
1212.89
1258.62
1298.71
1334.71
1368.77
1404.1
1424.21
502.572
0.531568
0.159863
0.601174
2.15656
5.76423
12.8107
25.266
45.8419
78.0362
125.798
192.502
279.213
383.161
497.9
615.408
728.973
834.547
929.813
1013.36
1085.28
1146.3
1198.09
1242.08
1280.09
1313.76
1344.39
1373.63
1404.3
1416.7
499.996
0.529709
0.159186
0.598125
2.14465
5.72974
12.7274
25.0889
45.4946
77.3944
124.689
190.716
276.544
379.462
493.12
609.641
722.156
826.834
921.18
1003.85
1074.68
1134.63
1184.99
1227.63
1263.99
1295.67
1324.09
1350.1
1375.09
1401.55
1406.23
489.34
0.527985
0.158558
0.595314
2.13368
5.69805
12.6513
24.9261
45.1775
76.8156
123.689
189.102
274.13
376.117
488.799
604.36
716.047
819.794
913.381
995.269
1065.3
1124.23
1173.57
1214.84
1249.9
1280.01
1306.53
1330.46
1352.44
1373.64
1396.23
1393.07
468.019
0.526377
0.157978
0.592722
2.12357
5.66885
12.5813
24.7773
44.8862
76.2872
122.786
187.646
271.947
373.09
484.881
599.582
710.44
813.471
906.259
987.502
1056.85
1115.04
1163.4
1203.68
1237.42
1266.3
1291.32
1313.45
1333.47
1351.9
1369.71
1388.67
1377.42
435.198
0.524871
0.15744
0.590333
2.11424
5.64194
12.5168
24.6406
44.6199
75.8017
121.962
186.33
269.973
370.344
481.33
595.237
705.364
807.657
899.852
980.407
1049.2
1106.78
1154.43
1193.75
1226.53
1254.14
1277.98
1298.7
1317.02
1333.62
1348.89
1363.65
1379.13
1359.42
395.921
0.523448
0.156937
0.588124
2.10566
5.61714
12.4574
24.5146
44.375
75.3578
121.204
185.128
268.189
367.856
478.099
591.288
700.731
802.391
893.951
974.015
1042.2
1099.29
1146.39
1185.02
1216.86
1243.52
1266.14
1285.74
1302.73
1317.73
1331.32
1343.78
1355.72
1367.82
1339.19
353.139
0.522106
0.156463
0.586065
2.09771
5.59429
12.4026
24.3985
44.1494
74.9494
120.511
184.022
266.556
365.604
475.164
587.688
696.507
797.565
888.601
968.12
1035.9
1092.45
1139.09
1177.2
1208.36
1234.1
1255.79
1274.23
1290.17
1303.92
1316
1326.93
1336.85
1346.16
1354.89
1316.8
308.804
0.520755
0.156018
0.58413
2.09031
5.57316
12.3522
24.2914
43.9416
74.5731
119.873
183.01
265.053
363.541
472.505
584.408
692.65
793.154
883.678
962.769
1030.07
1086.27
1132.42
1170.1
1200.76
1225.83
1246.62
1264.16
1278.99
1291.76
1302.68
1312.2
1320.73
1328.32
1335.15
1340.43
1292.31
263.913
0.519672
0.155566
0.582315
2.08336
5.55347
12.3055
24.1928
43.7498
74.2263
119.285
182.078
263.678
361.641
470.065
581.433
689.131
789.119
879.172
957.829
1024.78
1080.55
1126.39
1163.6
1193.86
1218.45
1238.57
1255.23
1269.2
1280.92
1290.93
1299.36
1306.59
1312.96
1318.4
1322.83
1324.5
1265.53
219.339
0.520814
0.155209
0.58046
2.07683
5.53497
12.262
24.1015
43.5731
73.9062
118.743
181.219
262.41
359.9
467.815
578.699
685.933
785.437
875.043
953.301
1019.88
1075.36
1120.81
1157.74
1187.54
1211.73
1231.39
1247.42
1260.53
1271.42
1280.43
1288.03
1294.26
1299.44
1303.83
1307.23
1309.31
1307.12
1236.17
176.023
0.841936
0.154758
0.579014
2.07016
5.51762
12.2212
24.0165
43.4096
73.6112
118.242
180.426
261.239
358.293
465.753
576.18
682.989
782.078
871.271
949.143
1015.38
1070.53
1115.72
1152.3
1181.83
1205.59
1224.86
1240.44
1252.94
1263
1271.22
1277.88
1283.35
1287.61
1290.93
1293.48
1294.94
1294.65
1288.26
1203.69
135.057
0.536047
0.54812
0.574625
2.06497
5.49989
12.1828
23.9366
43.2571
73.3379
117.78
179.691
260.157
356.808
463.848
573.869
680.28
778.987
867.82
945.341
1011.24
1066.1
1111
1147.33
1176.53
1200.04
1218.89
1234.1
1246.16
1255.63
1263.06
1268.97
1273.56
1277.14
1279.62
1281.22
1282.04
1281.62
1278.91
1267.85
1167.39
97.7697
0.5422
0.18183
2.91188
2.04855
5.48607
12.1437
23.8616
43.1138
73.0831
117.352
179.013
259.154
355.434
462.084
571.731
677.79
776.143
864.646
941.856
1007.46
1062.01
1106.65
1142.72
1171.69
1194.88
1213.49
1228.29
1240.01
1249.06
1255.92
1261.07
1264.95
1267.72
1269.59
1270.45
1270.45
1269.61
1267.33
1262.1
1245.78
1126.38
65.6515
0.640946
0.195077
0.736908
10.1307
5.44217
12.1132
23.785
42.9794
72.8436
116.953
178.384
258.225
354.156
460.449
569.746
675.483
773.523
861.723
938.65
1003.98
1058.27
1102.63
1138.47
1167.19
1190.16
1208.47
1223.05
1234.37
1243.1
1249.55
1254.15
1257.31
1259.41
1260.54
1260.87
1260.23
1258.71
1256.27
1252.12
1244.21
1221.88
1079.58
40.1457
0.589875
0.312506
0.828571
2.6212
25.9926
12.0159
23.7254
42.8421
72.6188
116.577
177.797
257.362
352.975
458.925
567.903
673.339
771.095
859.027
935.694
1000.78
1054.83
1098.95
1134.54
1163.03
1185.77
1203.87
1218.16
1229.28
1237.63
1243.78
1247.99
1250.62
1252.03
1252.55
1252.21
1251.11
1249.07
1246.1
1242.07
1236.01
1225.21
1195.96
1025.61
22.1245
0.527237
0.257787
1.55793
2.96543
6.91402
55.5839
23.5342
42.7352
72.3886
116.224
177.244
256.556
351.871
457.514
566.181
671.343
768.837
856.527
932.968
997.824
1051.66
1095.56
1130.92
1159.19
1181.71
1199.6
1213.69
1224.54
1232.7
1238.48
1242.4
1244.67
1245.58
1245.43
1244.53
1242.84
1240.43
1237.04
1232.66
1227.05
1218.99
1205.02
1167.77
962.827
11.219
0.518035
0.188192
1.20647
5.61744
7.83007
15.1794
105.233
42.3892
72.2094
115.861
176.724
255.795
350.837
456.193
564.582
669.475
766.731
854.201
930.437
995.101
1048.73
1092.44
1127.6
1155.66
1177.96
1195.64
1209.53
1220.2
1228.09
1233.7
1237.28
1239.27
1239.83
1239.21
1237.69
1235.49
1232.56
1228.9
1224.22
1218.45
1211.23
1201.05
1183.54
1137.02
889.44
5.66184
0.508321
0.180332
0.773392
4.29353
14.8113
17.1421
29.6123
181.537
71.6217
115.58
176.192
255.079
349.861
454.948
563.081
667.735
764.752
852.026
928.08
992.569
1046.03
1089.56
1124.53
1152.4
1174.5
1191.97
1205.67
1216.15
1223.88
1229.24
1232.65
1234.32
1234.62
1233.67
1231.7
1228.93
1225.54
1221.45
1216.6
1210.66
1203.48
1194.59
1182.15
1160.65
1103.3
804.075
3.18931
0.506786
0.15256
0.722577
2.70909
11.2301
32.3324
33.2126
53.1239
288.457
114.635
175.779
254.347
348.94
453.77
561.662
666.095
762.906
849.979
925.872
990.21
1043.52
1086.9
1121.7
1149.39
1171.31
1188.59
1202.09
1212.39
1219.94
1225.15
1228.33
1229.85
1229.85
1228.66
1226.37
1223.18
1219.26
1214.78
1209.58
1203.57
1196.37
1187.77
1177.13
1162.22
1136.15
1065.75
707.232
2.22429
0.506343
0.151038
0.565739
2.51362
7.03863
24.378
62.3243
58.9923
89.2319
422.8
174.341
253.783
347.998
452.659
560.316
664.544
761.16
848.063
923.791
987.997
1041.18
1084.42
1119.09
1146.61
1168.37
1185.47
1198.8
1208.91
1216.29
1221.33
1224.37
1225.67
1225.53
1224.06
1221.56
1218.07
1213.76
1208.79
1203.26
1197.01
1189.85
1181.39
1171.31
1158.81
1141.16
1109.82
1023.24
603.316
1.90053
0.505916
0.150843
0.558523
2.00812
6.50276
15.2197
46.8504
109.595
97.9131
141.464
572.277
251.718
347.275
451.521
559.043
663.065
759.505
846.247
921.837
985.908
1038.98
1082.11
1116.65
1144.05
1165.65
1182.59
1195.75
1205.7
1212.9
1217.79
1220.67
1221.84
1221.5
1219.9
1217.13
1213.45
1208.87
1203.54
1197.58
1191.05
1183.76
1175.46
1165.7
1154.09
1139.57
1118.87
1081.38
974.424
497.773
1.80097
0.505247
0.150686
0.556706
1.98173
5.31794
14.0204
29.2218
82.4353
178.355
153.265
212.046
720.62
344.487
450.654
557.74
661.664
757.923
844.519
919.979
983.94
1036.9
1079.94
1114.38
1141.66
1163.14
1179.93
1192.94
1202.72
1209.77
1214.49
1217.23
1218.26
1217.79
1216.01
1213.13
1209.2
1204.45
1198.86
1192.58
1185.68
1178.19
1169.87
1160.42
1149.31
1136.06
1119.35
1095.18
1050.51
917.945
394.285
1.77024
0.504718
0.150445
0.555579
1.97289
5.2453
11.7147
26.8808
51.6139
134.962
269.655
226.794
300.228
855.718
447.11
556.755
660.231
756.424
842.865
918.209
982.064
1034.94
1077.88
1112.24
1139.43
1160.8
1177.47
1190.34
1199.98
1206.88
1211.45
1214.04
1214.93
1214.33
1212.44
1209.39
1205.36
1200.39
1194.65
1188.14
1180.95
1173.15
1164.71
1155.34
1144.7
1132.19
1117.18
1098.03
1069.9
1016.85
852.573
296.736
1.75953
0.50428
0.15025
0.554118
1.96771
5.21724
11.5486
22.9055
47.5036
85.5171
206.769
378.857
317.063
401.499
972.526
552.483
659.156
754.887
841.297
916.51
980.274
1033.06
1075.94
1110.22
1137.33
1158.61
1175.18
1187.93
1197.44
1204.2
1208.64
1211.09
1211.83
1211.11
1209.1
1205.96
1201.78
1196.71
1190.78
1184.13
1176.74
1168.69
1160
1150.61
1140.19
1128.31
1114.3
1097.37
1075.5
1042.8
979.582
777.318
208.887
1.75503
0.503954
0.150096
0.552825
1.96136
5.20123
11.4789
22.5712
41.2095
78.9216
134.203
296.692
496.486
419.066
508.75
1070.9
654.219
753.744
839.685
914.899
978.554
1031.27
1074.07
1108.3
1135.34
1156.56
1173.04
1185.69
1195.09
1201.72
1206.03
1208.35
1208.97
1208.11
1205.99
1202.74
1198.48
1193.28
1187.27
1180.46
1172.96
1164.73
1155.83
1146.27
1135.91
1124.39
1111.21
1095.59
1076.55
1051.6
1013.58
937.475
691.703
134.105
1.75286
0.502954
0.149976
0.551867
1.95557
5.18219
11.4397
22.423
40.5973
69.5867
124.416
200.037
399.481
612.75
525.638
614.66
1152.8
748.201
838.497
913.238
976.919
1029.54
1072.29
1106.46
1133.45
1154.6
1171.03
1183.6
1192.9
1199.43
1203.62
1205.81
1206.31
1205.34
1203.1
1199.75
1195.39
1190.12
1184
1177.12
1169.47
1161.16
1152.12
1142.4
1131.95
1120.6
1107.93
1093.35
1075.98
1054.59
1026.15
981.896
888.954
596.487
75.6219
1.75119
0.427641
0.149688
0.551152
1.95134
5.16457
11.394
22.3408
40.3156
68.5504
111.381
186.567
282.966
507.815
721.221
629.843
713.828
1220.67
832.429
912.025
975.229
1027.9
1070.57
1104.69
1131.64
1152.75
1169.11
1181.63
1190.86
1197.3
1201.39
1203.46
1203.85
1202.77
1200.42
1196.96
1192.51
1187.16
1180.98
1174.01
1166.32
1157.88
1148.79
1138.95
1128.39
1117.04
1104.66
1090.77
1074.69
1055.4
1031.37
998.896
947.347
832.301
494.939
35.767
1.74973
0.0797958
0.121519
0.54997
1.9483
5.15181
11.3513
22.2462
40.1609
68.0604
109.751
169.517
265.85
379.583
615.078
819.082
726.819
803.575
1276.78
905.512
974.008
1026.2
1068.93
1102.98
1129.9
1150.97
1167.3
1179.76
1188.93
1195.31
1199.31
1201.29
1201.57
1200.38
1197.93
1194.37
1189.82
1184.4
1178.15
1171.13
1163.37
1154.91
1145.72
1135.85
1125.22
1113.82
1101.53
1088.06
1072.87
1055.15
1033.73
1006.72
969.569
909.105
765.963
393.518
13.8332
1.74867
0.0232323
0.0429084
0.425828
1.94371
5.1428
11.3205
22.1567
39.9836
67.7937
108.965
167.142
245.115
359.519
483.723
716.623
905.675
814.446
882.445
1323.06
967.131
1024.98
1067.23
1101.36
1128.21
1149.25
1165.55
1177.98
1187.11
1193.43
1197.36
1199.27
1199.46
1198.17
1195.62
1191.97
1187.34
1181.82
1175.51
1168.44
1160.65
1152.13
1142.94
1133.01
1122.38
1110.94
1098.67
1085.39
1070.77
1054.16
1034.64
1010.83
980.412
937.821
865.88
688.887
296.998
4.66013
1.74806
0.0261232
0.00896138
0.220803
1.49589
5.12989
11.2991
22.0928
39.8163
67.4892
108.541
165.985
241.935
336.147
461.867
588.435
809.505
981.371
891.068
949.864
1361.05
1017.83
1066.02
1099.67
1126.61
1147.59
1163.86
1176.27
1185.37
1191.65
1195.54
1197.38
1197.49
1196.12
1193.47
1189.73
1185.02
1179.43
1173.05
1165.93
1158.1
1149.57
1140.33
1130.42
1119.76
1108.36
1096.09
1082.92
1068.6
1052.73
1034.57
1013.06
986.556
952.209
903.245
815.963
600.787
208.074
1.63133
1.748
0.0201643
0.00686697
0.0395099
0.791747
3.93502
11.2694
22.0488
39.6962
67.2001
108.057
165.362
240.375
332.247
437.332
566.01
688.004
892.168
1046.83
956.128
1006.27
1392.03
1058.68
1098.47
1124.93
1146.01
1162.23
1174.62
1183.7
1189.95
1193.8
1195.6
1195.65
1194.21
1191.49
1187.65
1182.86
1177.21
1170.76
1163.58
1155.71
1147.16
1137.93
1128
1117.38
1105.98
1093.79
1080.67
1066.54
1051.11
1033.88
1014.01
990.268
960.702
921.808
865.134
757.379
502.717
130.863
0.761494
1.74827
0.0175089
0.00566988
0.0219219
0.140296
2.07643
8.61398
21.9887
39.6141
66.9939
107.596
164.651
239.538
330.329
432.938
541.715
665.989
779.029
964.261
1103.23
1010.03
1052.76
1416.99
1091.01
1123.75
1144.35
1160.67
1173.01
1182.08
1188.32
1192.15
1193.92
1193.93
1192.43
1189.64
1185.73
1180.86
1175.13
1168.62
1161.39
1153.47
1144.9
1135.67
1125.76
1115.15
1103.81
1091.66
1078.67
1064.65
1049.5
1032.86
1014.13
992.37
966.111
933.036
888.843
822.245
688.218
399.486
70.7309
0.533953
1.74875
0.0161348
0.00528331
0.0196719
0.0763297
0.367537
4.5212
16.7407
39.5042
66.8535
107.268
163.972
238.577
329.301
430.773
537.101
642.893
758.116
859.954
1026.57
1150.02
1053.79
1090.77
1436.6
1116.23
1143.18
1159.03
1171.48
1180.51
1186.74
1190.56
1192.31
1192.29
1190.76
1187.91
1183.95
1179
1173.2
1166.63
1159.35
1151.39
1142.79
1133.55
1123.66
1113.08
1101.78
1089.72
1076.81
1062.96
1047.99
1031.74
1013.78
993.402
969.51
940.395
903.276
852.89
772.906
607.344
300.685
31.2452
0.479199
1.74947
0.0153786
0.00499812
0.0196207
0.0690995
0.200822
0.800619
8.74013
29.9489
66.6674
107.045
163.491
237.658
328.104
429.612
534.84
638.303
736.612
840.512
929.861
1079.12
1187.56
1088.72
1121.8
1451.4
1135.66
1157.88
1169.86
1179
1185.2
1189.02
1190.77
1190.73
1189.17
1186.29
1182.28
1177.27
1171.41
1164.77
1157.44
1149.45
1140.82
1131.56
1121.68
1111.14
1099.9
1087.91
1075.1
1061.38
1046.63
1030.64
1013.2
993.781
971.565
945.272
912.891
871.087
813.094
715.125
515.489
209.668
11.0387
0.467151
1.75005
0.0152351
0.00482291
0.0189974
0.0692938
0.182034
0.440877
1.55016
15.5694
50.3388
106.751
163.163
237.006
326.975
428.247
533.626
636.073
732.19
820.884
911.955
988.841
1122.24
1216.95
1116.27
1147.18
1461.58
1150.37
1168.74
1177.42
1183.73
1187.52
1189.27
1189.23
1187.66
1184.76
1180.71
1175.66
1169.74
1163.05
1155.66
1147.63
1138.98
1129.71
1119.82
1109.31
1098.12
1086.21
1073.51
1059.93
1045.36
1029.65
1012.56
993.806
972.768
948.483
919.461
883.324
836.071
768.091
646.878
415.081
129.936
3.33328
0.464846
1.75041
0.0154232
0.0047843
0.0185272
0.0672257
0.18262
0.399607
0.861656
2.77053
26.1166
80.3556
162.73
236.563
326.162
426.968
532.177
634.889
730.074
816.75
894.254
972.267
1037.49
1156.87
1239.49
1137.82
1167.9
1467.34
1161.25
1176.31
1182.18
1186.08
1187.8
1187.78
1186.21
1183.3
1179.23
1174.15
1168.19
1161.45
1154.01
1145.93
1137.25
1127.97
1118.08
1107.58
1096.45
1084.61
1072.01
1058.57
1044.19
1028.71
1011.97
993.666
973.463
950.613
923.989
891.847
851.369
797.612
716.061
566.447
314.227
67.9472
1.00137
0.464478
1.75063
0.0159149
0.00483389
0.0183998
0.0656209
0.177245
0.400805
0.780481
1.55642
4.67588
41.7735
122.333
235.974
325.614
426.043
530.832
633.426
728.956
814.808
890.471
956.332
1022.02
1076.88
1184.32
1256.33
1154.53
1184.68
1469.15
1168.86
1181.09
1184.56
1186.4
1186.35
1184.79
1181.89
1177.82
1172.73
1166.74
1159.96
1152.48
1144.35
1135.63
1126.33
1116.45
1105.97
1094.86
1083.1
1070.6
1057.29
1043.07
1027.82
1011.37
993.507
973.879
952.06
927.17
897.884
862.154
816.639
754.527
654.828
474.082
220.612
28.3954
0.390825
0.464446
1.75082
0.0166061
0.00497047
0.0185627
0.0651787
0.173047
0.389111
0.782459
1.40823
2.65798
7.56073
64.126
177.588
324.881
425.418
529.858
632.094
727.524
813.78
888.732
952.903
1007.59
1062.26
1108.39
1205.89
1268.49
1167.32
1198.14
1467.54
1173.68
1183.49
1184.91
1184.99
1183.41
1180.53
1176.46
1171.37
1165.37
1158.56
1151.05
1142.88
1134.12
1124.79
1114.91
1104.45
1093.38
1081.66
1069.25
1056.07
1042.01
1026.97
1010.8
993.298
974.197
953.098
929.467
902.261
869.928
830.054
778.58
705.151
582.286
374.68
137.343
9.29664
0.246576
0.464469
1.75102
0.0173512
0.00516451
0.0190342
0.0657575
0.171899
0.379952
0.759833
1.4109
2.40137
4.35302
11.8195
94.6527
245.287
424.573
529.191
631.126
726.243
812.419
887.809
951.372
1004.48
1049.05
1094.29
1133.41
1222.64
1276.79
1176.81
1208.78
1462.95
1176.13
1183.86
1183.53
1182.08
1179.18
1175.14
1170.06
1164.06
1157.25
1149.71
1141.52
1132.73
1123.37
1113.46
1103.01
1091.97
1080.31
1067.97
1054.9
1041
1026.16
1010.24
993.065
974.409
953.946
931.204
905.524
875.678
839.838
795.159
736.085
647.381
497.374
276.825
71.3851
2.53367
0.215479
0.464494
1.75115
0.0180046
0.00536862
0.0197087
0.0674243
0.173454
0.377481
0.742062
1.37049
2.4039
3.9256
6.89763
17.9623
134.2
321.821
528.277
630.44
725.314
811.227
886.547
950.556
1003.13
1046.19
1082.04
1119.51
1153.17
1235.45
1281.85
1183.52
1217
1455.75
1176.54
1182.5
1180.66
1177.89
1173.85
1168.79
1162.81
1156
1148.45
1140.24
1131.43
1122.04
1112.12
1101.66
1090.64
1079.03
1066.76
1053.79
1040.02
1025.36
1009.68
992.808
974.547
954.622
932.643
908.053
880.045
847.166
807.275
756.887
687.554
578.915
401.851
186.102
29.1975
0.671973
0.209361
0.464515
1.75128
0.0185485
0.00554027
0.0203985
0.069801
0.177877
0.380972
0.737359
1.33867
2.33578
3.92554
6.20682
10.628
26.6021
182.384
401.277
629.5
724.631
810.363
885.472
949.401
1002.43
1045.02
1079.35
1107.95
1139.2
1168.71
1244.86
1284.09
1187.88
1223.13
1446.19
1175.23
1179.66
1176.51
1172.6
1167.54
1161.59
1154.8
1147.26
1139.04
1130.21
1120.81
1110.87
1100.39
1089.38
1077.81
1065.61
1052.72
1039.08
1024.59
1009.12
992.528
974.624
955.167
933.834
910.159
883.476
852.805
816.427
771.843
714.124
630.906
498.054
303.228
107.508
9.11109
0.234996
0.208266
0.464536
1.75143
0.0189972
0.00567396
0.0209519
0.0722207
0.184159
0.39077
0.744357
1.33044
2.28199
3.81561
6.19829
9.53932
15.9539
38.3894
237.397
476.794
723.688
809.709
884.686
948.467
1001.39
1044.41
1078.31
1105.33
1128.1
1154.44
1180.66
1251.33
1283.86
1190.27
1227.42
1434.53
1172.43
1175.53
1171.25
1166.33
1160.38
1153.63
1146.11
1137.91
1129.08
1119.67
1109.71
1099.22
1088.21
1076.65
1064.51
1051.71
1038.18
1023.83
1008.56
992.222
974.646
955.61
934.83
911.925
886.338
857.27
823.536
783.112
732.865
665.252
563.788
405.471
210.956
49.6729
2.28097
0.142998
0.208088
0.46456
1.75161
0.0193863
0.00577908
0.0213471
0.0741543
0.190537
0.404598
0.763668
1.34343
2.26842
3.72857
6.02704
9.50968
14.2773
23.3129
53.8558
296.481
541.826
808.79
884.071
947.765
1000.58
1043.48
1077.78
1104.4
1125.48
1143.6
1166.01
1189.58
1255.25
1281.47
1191.03
1230.07
1421
1168.36
1170.29
1165.02
1159.21
1152.47
1144.99
1136.82
1128
1118.59
1108.63
1098.13
1087.12
1075.57
1063.46
1050.73
1037.31
1023.1
1008
991.897
974.614
955.96
935.675
913.423
888.752
860.994
829.194
791.928
746.807
689.148
608.171
484.365
308.279
127.736
17.326
0.539282
0.125385
0.208067
0.464591
1.75181
0.0197629
0.00586974
0.0216365
0.0755243
0.195632
0.418604
0.790749
1.37861
2.29122
3.70714
5.89098
9.25087
14.2013
20.791
33.0673
73.2375
356.771
595.648
883.191
947.176
999.948
1042.78
1076.93
1103.91
1124.58
1140.91
1155.32
1174.47
1195.92
1256.97
1277.22
1190.4
1231.23
1405.8
1163.17
1164.09
1157.95
1151.35
1143.89
1135.75
1126.97
1117.57
1107.61
1097.12
1086.1
1074.56
1062.47
1049.79
1036.46
1022.38
1007.45
991.548
974.538
956.226
936.386
914.713
890.81
864.142
833.908
798.966
757.61
706.668
638.997
540.519
393.22
216.092
62.047
4.52816
0.167783
0.122315
0.208073
0.464615
1.75206
0.0201938
0.00596488
0.0218832
0.0765186
0.199235
0.42979
0.818101
1.42756
2.35176
3.74539
5.85816
9.04439
13.8213
20.6211
29.3729
45.3591
96.2567
415.988
639.491
946.352
999.388
1042.2
1076.33
1103.12
1124.13
1139.99
1152.52
1163.82
1180.31
1200.09
1256.76
1271.36
1188.62
1230.99
1389.12
1157.02
1157.04
1150.13
1142.81
1134.7
1125.96
1116.6
1106.66
1096.18
1085.16
1073.63
1061.55
1048.9
1035.64
1021.67
1006.89
991.186
974.417
956.421
936.976
915.822
892.597
866.831
837.894
804.822
766.249
720.067
661.371
580.237
460.575
297.421
131.749
22.5455
0.986267
0.0971799
0.121831
0.208076
0.464658
1.75229
0.0207501
0.00607291
0.0221744
0.0773635
0.201846
0.437694
0.839926
1.47685
2.43526
3.84511
5.91981
8.99486
13.5162
20.0791
29.0281
40.1135
60.0105
122.211
472.752
674.678
998.629
1041.67
1075.81
1102.59
1123.39
1139.56
1151.55
1160.88
1169.59
1183.94
1202.39
1254.86
1264.11
1185.85
1229.42
1371.16
1150.02
1149.24
1141.64
1133.67
1124.96
1115.65
1105.75
1095.29
1084.29
1072.76
1060.7
1048.08
1034.86
1020.98
1006.33
990.807
974.262
956.547
937.467
916.769
894.147
869.177
841.304
809.771
773.429
730.649
678.274
609.088
510.511
369.541
206.39
63.9102
5.94929
0.228771
0.0850233
0.121764
0.208087
0.464682
1.7525
0.0214734
0.00623986
0.0225016
0.078373
0.204059
0.44341
0.855331
1.51612
2.519
3.98123
6.07793
9.09016
13.4414
19.6407
28.2783
39.4714
52.8262
76.5605
150.263
526.513
702.724
1040.97
1075.29
1102.13
1122.91
1138.86
1151.11
1159.83
1166.47
1173.08
1185.69
1203.11
1251.48
1255.67
1182.25
1226.56
1352.08
1142.27
1140.77
1132.55
1123.98
1114.7
1104.86
1094.44
1083.47
1071.96
1059.92
1047.32
1034.14
1020.31
1005.77
990.407
974.072
956.616
937.861
917.584
895.488
871.22
844.281
814.007
779.489
739.367
691.432
630.733
547.557
428.445
275.009
123.02
22.7472
1.23573
0.0889976
0.0831231
0.121758
0.208095
0.464714
1.75275
0.0223938
0.00646031
0.0231183
0.0795064
0.206709
0.448245
0.866445
1.5438
2.58562
4.11708
6.29132
9.33177
13.5816
19.5263
27.6661
38.4675
51.7261
67.1028
94.7614
179.724
577.198
725.053
1074.64
1101.64
1122.5
1138.41
1150.44
1159.38
1165.32
1169.74
1174.63
1185.86
1202.44
1246.78
1246.21
1177.93
1222.43
1332.03
1133.85
1131.7
1122.91
1113.78
1103.97
1093.61
1082.68
1071.21
1059.19
1046.62
1033.47
1019.7
1005.23
989.993
973.843
956.628
938.173
918.27
896.661
873.002
846.879
817.702
784.678
746.713
702.135
647.385
575.45
474.561
336.986
185.737
56.9572
5.73846
0.252817
0.0658148
0.0828548
0.121761
0.2081
0.464738
1.75314
0.0235216
0.00674581
0.0239438
0.0816818
0.209684
0.454038
0.875823
1.56371
2.63244
4.22489
6.503
9.65391
13.9363
19.7202
27.4891
37.6387
50.4264
65.3633
82.4776
114.36
210.171
625.002
742.993
1101
1122.04
1138.04
1150.04
1158.72
1164.84
1168.46
1171.05
1174.55
1184.69
1200.58
1240.89
1235.9
1172.97
1217.04
1311.18
1124.84
1122.08
1112.76
1103.1
1092.78
1081.92
1070.49
1058.51
1045.97
1032.85
1019.13
1004.73
989.585
973.586
956.585
938.406
918.846
897.667
874.571
849.154
820.929
789.194
753.005
711.052
660.748
596.802
510.103
389.544
244.4
105.028
18.8044
1.116
0.0804015
0.0623328
0.0828225
0.121765
0.208107
0.464786
1.75349
0.0248509
0.00709662
0.025029
0.0845976
0.215413
0.460546
0.887082
1.58046
2.66601
4.3004
6.67052
9.97129
14.4028
20.2159
27.7362
37.365
49.3408
63.7342
79.9175
98.5751
134.999
241.438
670.172
757.635
1121.41
1137.6
1149.68
1158.34
1164.19
1167.92
1169.61
1170.68
1173.09
1182.38
1197.64
1233.94
1224.88
1167.43
1210.38
1289.67
1115.29
1111.96
1102.14
1091.97
1081.16
1069.79
1057.86
1045.36
1032.28
1018.6
1004.26
989.203
973.321
956.497
938.563
919.319
898.535
875.936
851.167
823.762
793.138
758.466
718.626
671.736
613.762
537.51
432.917
297.619
157.119
44.3812
4.31082
0.212802
0.0533952
0.0618596
0.0828197
0.121768
0.208117
0.464816
1.75393
0.026356
0.0075086
0.0263658
0.0884344
0.223091
0.473108
0.899742
1.60063
2.69417
4.35425
6.78728
10.2211
14.8585
20.8595
28.3898
37.6496
48.9274
62.3571
77.9321
95.0298
115.164
156.382
273.521
713.067
769.796
1136.97
1149.26
1158
1163.83
1167.27
1168.99
1169.06
1168.9
1170.48
1179.09
1193.73
1226.01
1213.27
1161.34
1202.44
1267.62
1105.25
1101.36
1091.07
1080.4
1069.1
1057.23
1044.79
1031.76
1018.12
1003.84
988.849
973.069
956.387
938.66
919.696
899.272
877.124
852.931
826.275
796.605
763.233
725.174
680.966
627.541
559.234
467.233
344.876
207.513
81.0735
12.9292
0.769979
0.065273
0.04957
0.0618023
0.082821
0.121772
0.208125
0.464852
1.75438
0.0280036
0.00797217
0.0279303
0.093163
0.233198
0.489942
0.924216
1.62332
2.72812
4.39927
6.86983
10.3939
15.2146
21.4814
29.2279
38.4563
49.2171
61.758
76.2355
92.6636
110.494
132.136
178.338
306.526
754.054
780.164
1148.64
1157.59
1163.49
1166.91
1168.31
1168.35
1167.08
1165.92
1166.89
1174.94
1188.94
1217.18
1201.18
1154.71
1193.23
1245.16
1094.76
1090.31
1079.56
1068.4
1056.61
1044.24
1031.27
1017.68
1003.45
988.527
972.837
956.276
938.715
919.993
899.888
878.151
854.476
828.484
799.684
767.427
730.891
688.883
638.988
576.758
494.862
384.971
253.226
123.428
29.7944
2.60236
0.142942
0.0437846
0.0490803
0.0617968
0.0828236
0.121777
0.208132
0.464875
1.75485
0.0297489
0.00847703
0.0296817
0.0986902
0.245652
0.512103
0.957027
1.66731
2.76642
4.45372
6.93846
10.5146
15.4577
21.9619
30.0275
39.4797
50.148
62.0106
75.4085
90.6246
107.718
126.229
149.47
200.79
340.621
793.43
789.308
1156.98
1163.09
1166.58
1167.96
1167.63
1166.25
1163.89
1161.94
1162.47
1170.06
1183.31
1207.53
1188.7
1147.53
1182.77
1222.35
1083.88
1078.83
1067.63
1055.97
1043.68
1030.79
1017.27
1003.1
988.239
972.627
956.174
938.758
920.229
900.405
879.032
855.824
830.428
802.398
771.152
735.924
695.738
648.707
591.196
517.218
418.849
294.967
165.984
55.4291
7.3217
0.42914
0.0489722
0.0409582
0.0490244
0.0617975
0.0828263
0.121782
0.208136
0.464906
1.75534
0.0315864
0.00901097
0.0315798
0.104879
0.260208
0.539411
1.00022
1.7263
2.84095
4.51526
7.02202
10.6142
15.6246
22.2842
30.6359
40.4429
51.3208
63.0217
75.5829
89.5366
105.317
123.007
142.229
167.195
223.775
376.013
831.432
797.66
1162.48
1166.18
1167.63
1167.27
1165.48
1162.92
1159.66
1157.1
1157.33
1164.5
1176.89
1197.11
1175.9
1139.78
1171.08
1199.2
1072.64
1066.92
1055.27
1043.12
1030.3
1016.87
1002.77
987.979
972.443
956.084
938.797
920.439
900.842
879.791
856.998
832.135
804.789
774.436
740.389
701.741
657.043
603.328
535.597
446.711
332.155
205.815
87.5591
16.8583
1.27975
0.0842447
0.036376
0.0406224
0.0490195
0.0617992
0.0828284
0.121786
0.208151
0.464918
1.75584
0.0334752
0.00956625
0.033582
0.111582
0.276508
0.571327
1.05344
1.80396
2.94088
4.63574
7.11662
10.7366
15.761
22.4996
31.0332
41.1609
52.4085
64.2923
76.6289
89.6002
103.944
120.224
138.513
158.527
185.366
247.396
412.911
868.22
805.55
1165.58
1167.23
1166.93
1165.1
1162.08
1158.53
1154.55
1151.53
1151.58
1158.34
1169.69
1185.96
1162.84
1131.38
1158.25
1175.72
1061.11
1054.59
1042.48
1029.81
1016.46
1002.45
987.742
972.282
956.013
938.838
920.632
901.236
880.449
858.025
833.635
806.898
777.334
744.322
707.056
664.287
613.643
550.942
469.884
364.483
241.977
121.913
32.4114
3.39732
0.202621
0.0368854
0.0348514
0.0405873
0.0490203
0.0618008
0.0828309
0.121792
0.208162
0.464931
1.75632
0.0353482
0.0101342
0.0356423
0.118649
0.294157
0.607048
1.11563
1.89963
3.0725
4.79735
7.30351
10.8756
15.9309
22.6725
31.288
41.6113
53.1972
65.453
77.9464
90.6448
103.877
118.551
135.33
154.265
175.176
204.058
271.789
451.488
903.918
813.21
1166.64
1166.53
1164.75
1161.67
1157.6
1153.24
1148.69
1145.34
1145.28
1151.61
1161.74
1174.15
1149.56
1122.28
1144.34