/*--------------------------------*- C++ -*----------------------------------*\
| =========                 |                                                 |
| \\      /  F ield         | OpenFOAM: The Open Source CFD Toolbox           |
|  \\    /   O peration     | Version:  v2012                                 |
|   \\  /    A nd           | Website:  www.openfoam.com                      |
|    \\/     M anipulation  |                                                 |
\*---------------------------------------------------------------------------*/
FoamFile
{
    version     2.0;
    format      ascii;
    class       volScalarField;
    location    "0";
    object      lambda2;
}
// * * * * * * * * * * * * * * * * * * * * * * * * * * * * * * * * * * * * * //

dimensions      [0 0 0 0 0 0 0];


internalField   nonuniform List<scalar> 
31383
(
-1.03102e-06
-1.95303e-05
-4.31005e-05
-1.81239e-05
-0.000640903
-0.000359723
-1.70914e-05
-0.000595561
-0.00519272
-0.00156999
-1.63429e-05
-0.000562223
-0.00484123
-0.0205629
-0.00481252
-1.57388e-05
-0.000538013
-0.00458164
-0.0192711
-0.0536204
-0.011678
-1.52263e-05
-0.000518447
-0.00439249
-0.0183107
-0.0505938
-0.106595
-0.0238444
-1.47975e-05
-0.000501836
-0.0042392
-0.0176071
-0.0483242
-0.101364
-0.175293
-0.0432535
-1.44384e-05
-0.000487929
-0.00410882
-0.0170346
-0.0466499
-0.0974038
-0.168074
-0.250927
-0.0715954
-1.41242e-05
-0.000476279
-0.00399938
-0.016546
-0.0452791
-0.0944555
-0.162546
-0.242544
-0.323798
-0.110491
-1.38435e-05
-0.00046607
-0.00390768
-0.0161348
-0.0441039
-0.0920269
-0.158393
-0.236076
-0.31519
-0.385857
-0.164501
-1.35843e-05
-0.000456953
-0.00382712
-0.0157888
-0.043111
-0.0899329
-0.154946
-0.231165
-0.308646
-0.37819
-0.433199
-0.230349
-1.3346e-05
-0.000448525
-0.00375505
-0.0154844
-0.0422727
-0.0881549
-0.151954
-0.227056
-0.303635
-0.372413
-0.427305
-0.466185
-0.28801
-1.31267e-05
-0.000440782
-0.00368839
-0.0152118
-0.0415331
-0.0866488
-0.149399
-0.223463
-0.299404
-0.367854
-0.422747
-0.461985
-0.487045
-0.349116
-1.29298e-05
-0.000433643
-0.00362717
-0.0149591
-0.040869
-0.0853126
-0.147226
-0.220386
-0.295717
-0.364022
-0.419045
-0.458679
-0.484254
-0.499421
-0.40395
-1.27521e-05
-0.000427239
-0.00357062
-0.0147266
-0.0402521
-0.0841107
-0.145293
-0.217751
-0.292467
-0.360772
-0.415941
-0.456025
-0.482074
-0.497551
-0.507198
-0.428432
-1.25952e-05
-0.000421456
-0.00351983
-0.0145116
-0.0396823
-0.0829908
-0.143544
-0.215394
-0.289702
-0.357651
-0.413298
-0.45376
-0.48034
-0.496152
-0.505677
-0.512355
-0.450943
-1.24541e-05
-0.000416339
-0.00347403
-0.0143182
-0.0391553
-0.081954
-0.141911
-0.213258
-0.287211
-0.355103
-0.410743
-0.451715
-0.478814
-0.495016
-0.504655
-0.510989
-0.515018
-0.461322
-1.23293e-05
-0.000411754
-0.00343337
-0.0141434
-0.0386803
-0.0809926
-0.140397
-0.211269
-0.284953
-0.352803
-0.408613
-0.449935
-0.477443
-0.493951
-0.503802
-0.510207
-0.513905
-0.51565
-0.471906
-1.22172e-05
-0.000407685
-0.00339695
-0.0139882
-0.0382494
-0.0801236
-0.138985
-0.209388
-0.282921
-0.350678
-0.406779
-0.448326
-0.476241
-0.493086
-0.503029
-0.509634
-0.513472
-0.514748
-0.515038
-0.493793
-1.21175e-05
-0.000404034
-0.00336461
-0.0138489
-0.037867
-0.0793348
-0.137707
-0.207646
-0.280833
-0.348794
-0.404946
-0.446966
-0.475177
-0.492366
-0.502403
-0.509135
-0.513166
-0.51462
-0.514202
-0.513626
-0.506933
-1.20287e-05
-0.00040079
-0.00333552
-0.0137252
-0.0375232
-0.0786327
-0.136544
-0.206064
-0.278972
-0.346814
-0.403294
-0.445561
-0.474186
-0.491702
-0.501962
-0.508673
-0.512881
-0.514458
-0.51419
-0.512649
-0.511692
-0.51686
-1.19494e-05
-0.00039789
-0.00330975
-0.0136139
-0.037217
-0.0780005
-0.135507
-0.20462
-0.277277
-0.345067
-0.401718
-0.444301
-0.473271
-0.491074
-0.501519
-0.508315
-0.512589
-0.514318
-0.514138
-0.512732
-0.510438
-0.509479
-0.52442
-1.18784e-05
-0.000395312
-0.00328668
-0.0135149
-0.0369419
-0.0774367
-0.13457
-0.203331
-0.275735
-0.343455
-0.400226
-0.443146
-0.472408
-0.490539
-0.501148
-0.507977
-0.512342
-0.514181
-0.514114
-0.512777
-0.510598
-0.50782
-0.507221
-0.528993
-1.18137e-05
-0.000392987
-0.00326609
-0.0134266
-0.0366969
-0.0769288
-0.133736
-0.202162
-0.274335
-0.342048
-0.398871
-0.441994
-0.471607
-0.489978
-0.500826
-0.507692
-0.512102
-0.514048
-0.514084
-0.512823
-0.510699
-0.507993
-0.505039
-0.505041
-0.53134
-1.17544e-05
-0.000390884
-0.00324762
-0.0133475
-0.0364772
-0.0764763
-0.132981
-0.201118
-0.273071
-0.340662
-0.397684
-0.440967
-0.470828
-0.489474
-0.500467
-0.507466
-0.511897
-0.51393
-0.514052
-0.512857
-0.510802
-0.508142
-0.505196
-0.502757
-0.503251
-0.531941
-1.17e-05
-0.000388943
-0.00323084
-0.0132767
-0.0362816
-0.0760702
-0.132306
-0.200174
-0.271943
-0.339469
-0.396504
-0.440017
-0.470107
-0.488995
-0.50016
-0.507222
-0.511726
-0.513828
-0.514032
-0.512895
-0.510884
-0.508282
-0.505377
-0.502877
-0.501503
-0.502196
-0.530872
-1.16502e-05
-0.000387171
-0.00321535
-0.0132121
-0.0361052
-0.0757073
-0.131702
-0.199329
-0.270919
-0.338374
-0.39551
-0.439153
-0.469446
-0.48855
-0.499863
-0.506981
-0.511568
-0.513727
-0.513981
-0.512938
-0.510964
-0.508414
-0.505537
-0.503008
-0.501554
-0.500851
-0.501745
-0.529247
-1.16049e-05
-0.00038555
-0.00320121
-0.0131528
-0.0359448
-0.0753804
-0.131161
-0.19857
-0.270001
-0.337398
-0.394557
-0.438389
-0.468849
-0.48812
-0.499588
-0.506756
-0.511396
-0.513637
-0.513963
-0.512951
-0.511052
-0.508512
-0.505674
-0.503143
-0.501616
-0.500839
-0.500264
-0.501532
-0.52827
-1.15634e-05
-0.000384068
-0.00318829
-0.0130982
-0.0357974
-0.0750825
-0.130674
-0.19789
-0.269175
-0.336523
-0.39372
-0.437664
-0.468294
-0.487746
-0.499313
-0.506547
-0.511223
-0.513557
-0.513923
-0.512964
-0.51111
-0.508614
-0.505782
-0.503254
-0.501676
-0.500858
-0.500227
-0.499725
-0.501372
-0.529816
-1.15256e-05
-0.000382712
-0.00317648
-0.0130485
-0.0356615
-0.0748084
-0.130229
-0.197275
-0.268434
-0.335721
-0.392961
-0.437021
-0.467803
-0.487394
-0.499075
-0.506359
-0.511078
-0.513463
-0.51391
-0.512995
-0.511146
-0.508704
-0.505882
-0.503341
-0.501739
-0.500903
-0.500235
-0.499642
-0.499238
-0.501271
-0.534562
-1.14919e-05
-0.000381482
-0.00316568
-0.013003
-0.0355377
-0.0745575
-0.129818
-0.196716
-0.267762
-0.335011
-0.392276
-0.436413
-0.467355
-0.487062
-0.498855
-0.506173
-0.510942
-0.513406
-0.513892
-0.513014
-0.511216
-0.50877
-0.505994
-0.50344
-0.501795
-0.500931
-0.500254
-0.499653
-0.499117
-0.498808
-0.501273
-0.535457
-1.14614e-05
-0.000380379
-0.00315586
-0.0129616
-0.0354239
-0.074327
-0.129441
-0.196198
-0.267151
-0.334362
-0.391666
-0.435898
-0.466935
-0.486766
-0.498636
-0.50601
-0.510818
-0.513324
-0.513869
-0.513031
-0.511247
-0.508829
-0.50607
-0.503508
-0.501848
-0.500957
-0.500297
-0.499655
-0.499115
-0.498628
-0.498437
-0.501371
-0.517154
-1.14336e-05
-0.000379381
-0.00314698
-0.0129236
-0.0353206
-0.0741158
-0.129097
-0.195722
-0.266584
-0.33377
-0.391112
-0.435424
-0.466567
-0.486521
-0.498453
-0.505861
-0.510697
-0.513275
-0.513846
-0.513032
-0.511294
-0.508902
-0.506149
-0.503596
-0.501871
-0.500963
-0.500333
-0.499697
-0.499128
-0.498613
-0.498194
-0.498147
-0.501533
-0.499969
-1.1408e-05
-0.000378477
-0.00313907
-0.0128896
-0.0352261
-0.0739228
-0.128781
-0.195286
-0.266064
-0.333227
-0.390597
-0.434991
-0.466223
-0.486279
-0.498291
-0.505735
-0.510598
-0.513202
-0.513823
-0.513051
-0.511346
-0.50898
-0.506234
-0.503675
-0.501925
-0.501
-0.500332
-0.499716
-0.499137
-0.498626
-0.498169
-0.497837
-0.497939
-0.501756
-0.490332
-1.13845e-05
-0.000377646
-0.00313187
-0.0128591
-0.0351415
-0.0737474
-0.128492
-0.194887
-0.265586
-0.332723
-0.390124
-0.434595
-0.465915
-0.486054
-0.498133
-0.505599
-0.510502
-0.513159
-0.513818
-0.513058
-0.511378
-0.509053
-0.506328
-0.503731
-0.501974
-0.501016
-0.500367
-0.499747
-0.499151
-0.498617
-0.498152
-0.497768
-0.497524
-0.497782
-0.502047
-0.484098
-1.13607e-05
-0.000376879
-0.00312518
-0.0128313
-0.0350647
-0.0735887
-0.128227
-0.194521
-0.265147
-0.332262
-0.389695
-0.434218
-0.465645
-0.485852
-0.498001
-0.505487
-0.510412
-0.513099
-0.51379
-0.513076
-0.511412
-0.509106
-0.506385
-0.503802
-0.502001
-0.501031
-0.500367
-0.499747
-0.499166
-0.498646
-0.498181
-0.497756
-0.497438
-0.497246
-0.497725
-0.502752
-0.477419
-1.13401e-05
-0.000376095
-0.00311905
-0.0128056
-0.0349954
-0.0734465
-0.12799
-0.194187
-0.264746
-0.33184
-0.389293
-0.433882
-0.465378
-0.485675
-0.497866
-0.505379
-0.510341
-0.513056
-0.513774
-0.513085
-0.511432
-0.509148
-0.506457
-0.503849
-0.502026
-0.501065
-0.500387
-0.49977
-0.499167
-0.498643
-0.498156
-0.497751
-0.497411
-0.497151
-0.497029
-0.497741
-0.504366
-0.470021
-1.13921e-05
-0.000375427
-0.00311273
-0.0127817
-0.0349313
-0.0733172
-0.127777
-0.193886
-0.264378
-0.331444
-0.388931
-0.433572
-0.465139
-0.48551
-0.497748
-0.505293
-0.510249
-0.512994
-0.513742
-0.513093
-0.511472
-0.509175
-0.506515
-0.503897
-0.502068
-0.501083
-0.500431
-0.499781
-0.499202
-0.498669
-0.498188
-0.497758
-0.497375
-0.497095
-0.496883
-0.496889
-0.497842
-0.506909
-0.461685
-1.78479e-05
-0.000377088
-0.00310745
-0.0127577
-0.0348719
-0.0731975
-0.127582
-0.193615
-0.264049
-0.331089
-0.388585
-0.433274
-0.464911
-0.485358
-0.49764
-0.505203
-0.510196
-0.512963
-0.513729
-0.513087
-0.511483
-0.509227
-0.506557
-0.503948
-0.502091
-0.501098
-0.500442
-0.499816
-0.4992
-0.498653
-0.498199
-0.497756
-0.497404
-0.497078
-0.496825
-0.496684
-0.496782
-0.49805
-0.510039
-0.452155
-1.20597e-05
-0.000826506
-0.0031201
-0.0127371
-0.0348115
-0.0730866
-0.127401
-0.193368
-0.26375
-0.330767
-0.388283
-0.433017
-0.464706
-0.485206
-0.497534
-0.505121
-0.510124
-0.512926
-0.513728
-0.513094
-0.51151
-0.509248
-0.506594
-0.503999
-0.502116
-0.501113
-0.50045
-0.499821
-0.499209
-0.498682
-0.498186
-0.497757
-0.497372
-0.497048
-0.496822
-0.496605
-0.496546
-0.496736
-0.498343
-0.513505
-0.440961
-1.22293e-05
-0.000442279
-0.00612996
-0.0127824
-0.0347603
-0.0729741
-0.127235
-0.193139
-0.263479
-0.330488
-0.387997
-0.432787
-0.464518
-0.485081
-0.497451
-0.505046
-0.510075
-0.512895
-0.513706
-0.513094
-0.511507
-0.509286
-0.506634
-0.504026
-0.502145
-0.501131
-0.500478
-0.499842
-0.499245
-0.498681
-0.498212
-0.497779
-0.497366
-0.497039
-0.496782
-0.496567
-0.496438
-0.496426
-0.496759
-0.498749
-0.517209
-0.427213
-1.43209e-05
-0.000450127
-0.00387207
-0.0239505
-0.034862
-0.0728787
-0.127064
-0.192927
-0.263226
-0.330219
-0.387743
-0.432561
-0.464356
-0.484959
-0.497362
-0.504972
-0.510024
-0.512868
-0.513692
-0.513091
-0.511531
-0.50931
-0.506676
-0.504058
-0.502163
-0.501132
-0.500471
-0.499866
-0.499262
-0.498719
-0.498231
-0.497778
-0.497382
-0.497051
-0.496775
-0.49655
-0.496369
-0.496301
-0.496352
-0.496828
-0.499248
-0.521067
-0.409198
-1.30945e-05
-0.000524303
-0.00396445
-0.0161637
-0.0617454
-0.0730406
-0.12692
-0.192711
-0.262991
-0.329973
-0.387515
-0.432348
-0.464191
-0.484843
-0.497289
-0.504911
-0.509963
-0.512823
-0.513673
-0.513095
-0.511536
-0.509333
-0.506701
-0.504089
-0.502169
-0.501143
-0.500483
-0.499852
-0.49926
-0.498708
-0.498219
-0.497791
-0.497397
-0.497046
-0.496768
-0.496524
-0.496339
-0.496231
-0.496197
-0.496371
-0.49699
-0.49986
-0.525023
-0.383871
-1.16661e-05
-0.00047568
-0.00457335
-0.0167321
-0.0435195
-0.121598
-0.127114
-0.192528
-0.262755
-0.32974
-0.387303
-0.432178
-0.464051
-0.484744
-0.497207
-0.504851
-0.50991
-0.512806
-0.51366
-0.513084
-0.511554
-0.509352
-0.506726
-0.504121
-0.502192
-0.501158
-0.500489
-0.499876
-0.499281
-0.49872
-0.498223
-0.497795
-0.497406
-0.497056
-0.496759
-0.496491
-0.496308
-0.496177
-0.496106
-0.496145
-0.496402
-0.497243
-0.500574
-0.528838
-0.347223
-1.14061e-05
-0.000421612
-0.00411677
-0.0190638
-0.0458938
-0.0884517
-0.198578
-0.192701
-0.26255
-0.329517
-0.387099
-0.432004
-0.463922
-0.484645
-0.497146
-0.504801
-0.509875
-0.512776
-0.513652
-0.513097
-0.511566
-0.509353
-0.50675
-0.504138
-0.502218
-0.501175
-0.500517
-0.499876
-0.499281
-0.498739
-0.498233
-0.497799
-0.497405
-0.49706
-0.496741
-0.496486
-0.496286
-0.496149
-0.49604
-0.496041
-0.496154
-0.496498
-0.497573
-0.501507
-0.531905
-0.295469
-1.11899e-05
-0.000410258
-0.00363318
-0.0171185
-0.0516079
-0.0949571
-0.14935
-0.282448
-0.262652
-0.329307
-0.386906
-0.43185
-0.4638
-0.484556
-0.497082
-0.504746
-0.509827
-0.512743
-0.513648
-0.513098
-0.511578
-0.509382
-0.506769
-0.504152
-0.502207
-0.501174
-0.500508
-0.4999
-0.499295
-0.498755
-0.498245
-0.497802
-0.497403
-0.497051
-0.496741
-0.49649
-0.496282
-0.496116
-0.496
-0.495964
-0.496004
-0.496201
-0.496637
-0.497967
-0.503545
-0.532732
-0.208423
-1.11426e-05
-0.000372727
-0.00351565
-0.0151142
-0.0464889
-0.105582
-0.160903
-0.219928
-0.360922
-0.329318
-0.386725
-0.431682
-0.463694
-0.484475
-0.497024
-0.504701
-0.509799
-0.512715
-0.513635
-0.513092
-0.511582
-0.509397
-0.506805
-0.504181
-0.502229
-0.501171
-0.500518
-0.499881
-0.499294
-0.498765
-0.498262
-0.497811
-0.497408
-0.497073
-0.496759
-0.49647
-0.49627
-0.496101
-0.495966
-0.49592
-0.495911
-0.495999
-0.496275
-0.496844
-0.498504
-0.507601
-0.52785
-0.0959117
-1.1125e-05
-0.000367376
-0.00306641
-0.0145684
-0.0412266
-0.0958305
-0.177642
-0.234915
-0.29162
-0.424863
-0.386649
-0.431562
-0.463565
-0.48441
-0.496973
-0.504662
-0.509767
-0.512699
-0.513621
-0.513108
-0.511589
-0.509401
-0.50681
-0.504211
-0.502252
-0.501206
-0.500529
-0.499906
-0.49931
-0.498754
-0.498262
-0.497795
-0.497408
-0.497048
-0.496774
-0.49649
-0.49625
-0.496066
-0.495937
-0.495865
-0.49586
-0.495921
-0.496058
-0.496382
-0.497147
-0.49917
-0.513102
-0.514002
-0.0339467
-1.11119e-05
-0.000366441
-0.00302647
-0.0125242
-0.039642
-0.0854724
-0.162931
-0.258873
-0.306683
-0.356527
-0.470497
-0.431428
-0.463483
-0.484333
-0.496922
-0.504619
-0.509732
-0.512682
-0.513616
-0.513091
-0.511593
-0.509429
-0.506837
-0.504207
-0.50224
-0.501205
-0.500541
-0.499911
-0.499312
-0.498771
-0.498269
-0.497815
-0.497412
-0.49707
-0.496768
-0.496479
-0.496246
-0.496074
-0.495915
-0.495836
-0.495796
-0.495802
-0.495933
-0.496149
-0.496565
-0.497482
-0.499912
-0.518839
-0.494693
-0.0138905
-1.10937e-05
-0.000365833
-0.00301503
-0.0123677
-0.034129
-0.0820295
-0.145972
-0.240351
-0.338138
-0.369148
-0.409414
-0.498566
-0.463328
-0.484262
-0.496877
-0.504584
-0.509693
-0.51266
-0.513598
-0.513088
-0.511607
-0.509421
-0.506839
-0.504227
-0.502245
-0.501202
-0.500531
-0.499896
-0.499328
-0.498764
-0.498258
-0.497819
-0.497429
-0.497072
-0.496767
-0.496495
-0.496235
-0.496067
-0.49593
-0.495802
-0.495743
-0.495743
-0.495816
-0.495962
-0.496278
-0.496807
-0.497903
-0.500747
-0.524171
-0.476048
-0.00713333
-1.1076e-05
-0.000365061
-0.00300829
-0.0123102
-0.0337206
-0.0715546
-0.139834
-0.215771
-0.317994
-0.405477
-0.418978
-0.448442
-0.513475
-0.484123
-0.496831
-0.504544
-0.509671
-0.512647
-0.51359
-0.513098
-0.511602
-0.509439
-0.50685
-0.504235
-0.502259
-0.501221
-0.500544
-0.499902
-0.499307
-0.498774
-0.498268
-0.49782
-0.497408
-0.497063
-0.496766
-0.49649
-0.496249
-0.496061
-0.495908
-0.495806
-0.495731
-0.495705
-0.495752
-0.495882
-0.496085
-0.496444
-0.497094
-0.49843
-0.502323
-0.528907
-0.457261
-0.00379781
-1.10626e-05
-0.000364304
-0.00300018
-0.0122774
-0.0335491
-0.0707605
-0.124756
-0.206865
-0.28605
-0.386071
-0.455023
-0.455183
-0.474712
-0.520109
-0.496704
-0.504518
-0.509644
-0.512626
-0.51359
-0.513089
-0.511602
-0.509456
-0.50686
-0.504259
-0.502282
-0.501211
-0.500558
-0.499909
-0.49933
-0.498771
-0.498255
-0.497806
-0.49743
-0.497058
-0.496733
-0.496463
-0.496243
-0.496053
-0.495899
-0.495765
-0.495701
-0.495672
-0.49569
-0.49578
-0.495948
-0.496233
-0.496659
-0.497452
-0.499078
-0.506071
-0.533145
-0.434935
-0.00210591
-1.10549e-05
-0.000363746
-0.00299216
-0.01224
-0.0334529
-0.0703971
-0.123516
-0.189611
-0.276021
-0.349764
-0.438027
-0.486343
-0.479205
-0.490898
-0.522135
-0.504392
-0.509627
-0.512617
-0.513571
-0.513089
-0.511608
-0.509454
-0.506868
-0.504261
-0.502281
-0.501211
-0.50056
-0.499918
-0.499332
-0.49879
-0.498286
-0.497816
-0.497403
-0.497054
-0.496747
-0.49647
-0.496233
-0.496043
-0.495868
-0.495762
-0.495696
-0.495636
-0.495639
-0.495678
-0.495827
-0.496046
-0.496406
-0.496952
-0.497881
-0.499807
-0.512042
-0.53649
-0.405942
-0.00145163
-1.10315e-05
-0.000363417
-0.00298633
-0.0122023
-0.033346
-0.0701988
-0.122916
-0.188001
-0.259191
-0.34054
-0.402668
-0.472429
-0.503207
-0.49376
-0.500242
-0.521777
-0.50952
-0.5126
-0.513576
-0.513072
-0.511613
-0.509452
-0.506892
-0.50426
-0.502293
-0.50122
-0.500553
-0.499936
-0.499337
-0.49878
-0.498275
-0.497821
-0.49743
-0.497071
-0.496736
-0.496457
-0.496244
-0.496039
-0.495863
-0.495757
-0.495673
-0.495621
-0.495582
-0.49565
-0.495727
-0.495916
-0.496225
-0.496648
-0.497306
-0.498404
-0.50062
-0.518865
-0.536995
-0.365147
-0.00106875
-9.44239e-06
-0.000362587
-0.00298284
-0.0121753
-0.0332384
-0.0699783
-0.122595
-0.187188
-0.257393
-0.325908
-0.395168
-0.442794
-0.492316
-0.510684
-0.502241
-0.505957
-0.520235
-0.512517
-0.513561
-0.513083
-0.511611
-0.509462
-0.506893
-0.504275
-0.502283
-0.501228
-0.50056
-0.499926
-0.499332
-0.498764
-0.498268
-0.497807
-0.497413
-0.497068
-0.496755
-0.496447
-0.496229
-0.496019
-0.495852
-0.49573
-0.495653
-0.495612
-0.495561
-0.495598
-0.495657
-0.495839
-0.49606
-0.496428
-0.496934
-0.497707
-0.498987
-0.502133
-0.525581
-0.530725
-0.305761
-0.000587841
-2.68562e-06
-0.000311456
-0.00297565
-0.0121592
-0.0331616
-0.0697561
-0.122245
-0.186729
-0.256434
-0.324104
-0.383664
-0.437308
-0.470649
-0.502385
-0.512933
-0.508022
-0.509602
-0.518155
-0.513475
-0.513069
-0.511609
-0.50948
-0.506894
-0.504288
-0.502294
-0.501231
-0.500562
-0.499928
-0.499335
-0.498778
-0.498266
-0.497819
-0.497416
-0.49707
-0.496724
-0.496439
-0.496215
-0.496025
-0.495858
-0.495749
-0.495655
-0.49557
-0.495543
-0.495555
-0.495629
-0.495736
-0.495957
-0.496247
-0.496647
-0.497254
-0.498143
-0.49963
-0.505712
-0.531692
-0.515656
-0.212393
-0.000208825
-1.55222e-06
-9.46591e-05
-0.00257012
-0.0121291
-0.0331154
-0.0696
-0.121881
-0.18626
-0.255889
-0.323132
-0.382051
-0.429086
-0.467016
-0.488398
-0.50683
-0.512611
-0.511872
-0.511146
-0.51588
-0.512978
-0.511616
-0.509469
-0.506905
-0.504279
-0.502281
-0.501214
-0.500579
-0.499924
-0.499332
-0.498796
-0.498276
-0.497837
-0.497428
-0.497072
-0.496743
-0.496451
-0.496203
-0.496034
-0.495865
-0.49573
-0.495625
-0.495555
-0.495541
-0.49553
-0.495591
-0.49566
-0.495871
-0.496089
-0.49645
-0.496934
-0.497631
-0.498688
-0.500392
-0.511765
-0.537115
-0.494722
-0.0882562
-3.59261e-05
-2.24086e-06
-4.54203e-05
-0.000841847
-0.0105604
-0.0330353
-0.0695026
-0.12163
-0.185769
-0.255326
-0.322602
-0.381186
-0.427815
-0.461652
-0.486233
-0.498909
-0.508425
-0.512729
-0.513376
-0.510728
-0.513585
-0.511519
-0.509484
-0.506898
-0.50428
-0.502297
-0.501211
-0.500555
-0.499936
-0.499342
-0.498785
-0.498271
-0.497816
-0.497416
-0.497052
-0.496718
-0.496445
-0.496216
-0.496019
-0.495849
-0.495711
-0.495581
-0.495526
-0.495503
-0.495492
-0.495566
-0.495645
-0.495787
-0.495988
-0.496297
-0.496726
-0.497314
-0.498095
-0.499279
-0.501644
-0.519251
-0.541667
-0.466559
-0.0215234
-3.81769e-07
-1.90663e-06
-7.28915e-05
-0.000320768
-0.00377331
-0.0290595
-0.0693454
-0.121466
-0.185417
-0.254758
-0.32203
-0.380726
-0.427126
-0.460761
-0.483025
-0.497821
-0.505207
-0.509347
-0.514898
-0.513202
-0.508985
-0.511358
-0.509379
-0.506905
-0.504302
-0.502294
-0.501228
-0.500568
-0.499944
-0.499332
-0.4988
-0.498282
-0.497808
-0.497416
-0.497061
-0.49672
-0.49644
-0.496202
-0.495979
-0.495832
-0.49569
-0.495587
-0.495512
-0.495484
-0.495471
-0.495518
-0.495601
-0.49572
-0.495914
-0.496153
-0.496526
-0.497042
-0.497709
-0.498619
-0.499937
-0.504545
-0.527101
-0.542924
-0.422102
-0.00693256
-4.71869e-06
-1.7305e-06
-6.23928e-05
-0.000598089
-0.000837478
-0.0114447
-0.0617368
-0.121217
-0.185203
-0.254351
-0.321457
-0.380233
-0.426768
-0.460279
-0.482476
-0.495993
-0.504969
-0.509286
-0.511112
-0.516405
-0.511879
-0.506411
-0.509819
-0.50683
-0.504305
-0.502311
-0.501232
-0.500556
-0.49995
-0.499339
-0.498782
-0.498265
-0.497815
-0.49743
-0.49706
-0.496729
-0.496441
-0.49622
-0.495993
-0.495815
-0.495673
-0.49557
-0.495499
-0.495477
-0.495458
-0.495484
-0.495556
-0.495665
-0.495809
-0.496059
-0.49637
-0.496785
-0.497376
-0.498166
-0.499189
-0.500688
-0.509949
-0.534551
-0.534176
-0.35385
-0.00230126
-1.60005e-05
-1.63957e-06
-5.71047e-05
-0.000522428
-0.00250565
-0.00173323
-0.027005
-0.109362
-0.18488
-0.254115
-0.321053
-0.379719
-0.426376
-0.460018
-0.482149
-0.49567
-0.503825
-0.509679
-0.511581
-0.512618
-0.515383
-0.509828
-0.503657
-0.509667
-0.504261
-0.502308
-0.501226
-0.500578
-0.499937
-0.499339
-0.49878
-0.498283
-0.497814
-0.497432
-0.497071
-0.496745
-0.496442
-0.496219
-0.495984
-0.495801
-0.49568
-0.495575
-0.49548
-0.495438
-0.495432
-0.495463
-0.495545
-0.495622
-0.495754
-0.495957
-0.49625
-0.496612
-0.497132
-0.497788
-0.498689
-0.499817
-0.502035
-0.517209
-0.540642
-0.512622
-0.249527
-0.000315804
-5.04216e-06
-1.59291e-06
-5.42964e-05
-0.000482159
-0.00223359
-0.00720325
-0.00376059
-0.0533235
-0.169154
-0.253758
-0.320816
-0.379381
-0.425954
-0.459727
-0.481984
-0.495461
-0.503639
-0.509089
-0.512309
-0.512354
-0.512303
-0.512835
-0.507195
-0.501706
-0.509725
-0.502302
-0.501236
-0.500564
-0.499935
-0.499336
-0.498781
-0.498304
-0.497831
-0.497426
-0.49707
-0.49673
-0.496461
-0.496199
-0.496003
-0.495789
-0.495666
-0.495558
-0.495489
-0.495425
-0.4954
-0.495447
-0.495484
-0.495589
-0.495734
-0.495916
-0.496178
-0.496474
-0.496907
-0.497505
-0.498273
-0.499235
-0.500486
-0.50547
-0.525267
-0.543761
-0.48404
-0.105437
-5.19562e-07
-6.96164e-07
-1.6031e-06
-5.28481e-05
-0.000460132
-0.00207926
-0.00655522
-0.0163499
-0.00725773
-0.0918817
-0.235509
-0.320466
-0.379149
-0.425705
-0.459421
-0.481792
-0.495343
-0.503498
-0.508998
-0.512249
-0.513137
-0.51182
-0.510399
-0.509724
-0.504443
-0.500494
-0.508348
-0.501243
-0.500571
-0.499936
-0.499332
-0.498796
-0.498303
-0.497828
-0.497419
-0.497063
-0.496726
-0.49644
-0.496186
-0.495978
-0.495784
-0.495656
-0.495543
-0.49547
-0.495411
-0.49539
-0.495396
-0.495457
-0.495549
-0.495678
-0.495841
-0.496093
-0.496399
-0.496762
-0.497283
-0.497944
-0.498797
-0.499837
-0.501451
-0.511457
-0.533481
-0.541292
-0.440595
-0.0155752
-9.79579e-06
-8.11822e-08
-1.64361e-06
-5.32342e-05
-0.00044882
-0.00199202
-0.00615647
-0.0151922
-0.0315492
-0.0123545
-0.141853
-0.301618
-0.37883
-0.425507
-0.459219
-0.481596
-0.495215
-0.50342
-0.508923
-0.512259
-0.513304
-0.512643
-0.510105
-0.507626
-0.50679
-0.502373
-0.49952
-0.505848
-0.500573
-0.499939
-0.499331
-0.498781
-0.498294
-0.49782
-0.497408
-0.497052
-0.496716
-0.496435
-0.496189
-0.495967
-0.495811
-0.495646
-0.49553
-0.495455
-0.495396
-0.495355
-0.495397
-0.495443
-0.495512
-0.495642
-0.495779
-0.496028
-0.496274
-0.496629
-0.497098
-0.497696
-0.498434
-0.499362
-0.500502
-0.503832
-0.519174
-0.541186
-0.526896
-0.359376
-0.00126095
-1.1802e-05
-1.86858e-08
-1.71463e-06
-5.46265e-05
-0.00045251
-0.00194777
-0.00592202
-0.0143951
-0.029925
-0.054018
-0.0190736
-0.199886
-0.361377
-0.425224
-0.45909
-0.481443
-0.495093
-0.503345
-0.5089
-0.512247
-0.513423
-0.512908
-0.511113
-0.507601
-0.504693
-0.504214
-0.5012
-0.498585
-0.503569
-0.49996
-0.499351
-0.498777
-0.498292
-0.497825
-0.497393
-0.497037
-0.496726
-0.496444
-0.496181
-0.495966
-0.495796
-0.495623
-0.495527
-0.495445
-0.495381
-0.495341
-0.495364
-0.4954
-0.495491
-0.495603
-0.495752
-0.495961
-0.496214
-0.496549
-0.496943
-0.497467
-0.498138
-0.49896
-0.499992
-0.501361
-0.508763
-0.527917
-0.546
-0.499522
-0.219203
-2.84912e-05
-2.99174e-06
-8.56801e-09
-1.80591e-06
-5.70088e-05
-0.000464655
-0.00196548
-0.00580613
-0.0139052
-0.028607
-0.0522584
-0.0842571
-0.0270156
-0.260642
-0.410714
-0.458895
-0.481369
-0.494993
-0.503256
-0.508849
-0.51223
-0.513443
-0.513081
-0.511465
-0.50885
-0.504789
-0.502447
-0.502411
-0.500387
-0.497732
-0.502319
-0.499355
-0.498799
-0.498282
-0.497828
-0.497402
-0.497041
-0.496708
-0.496429
-0.496191
-0.495955
-0.495793
-0.495633
-0.495522
-0.495412
-0.49537
-0.495331
-0.495358
-0.495377
-0.495458
-0.49557
-0.495686
-0.495903
-0.496166
-0.496456
-0.496836
-0.497292
-0.497883
-0.498625
-0.499547
-0.500611
-0.50342
-0.51598
-0.536997
-0.541945
-0.457921
-0.0596682
-2.79391e-06
-2.20842e-07
-2.7066e-09
-1.90273e-06
-6.00562e-05
-0.000485024
-0.00201911
-0.00586347
-0.0136718
-0.0277506
-0.0503869
-0.0830247
-0.121807
-0.0352571
-0.318157
-0.44819
-0.481256
-0.494954
-0.503202
-0.50878
-0.512183
-0.513444
-0.513136
-0.511684
-0.509306
-0.506159
-0.502457
-0.501257
-0.501554
-0.499668
-0.496937
-0.501914
-0.49879
-0.498284
-0.497839
-0.4974
-0.497044
-0.496734
-0.496432
-0.496167
-0.49596
-0.495804
-0.495629
-0.495505
-0.49544
-0.495366
-0.495323
-0.495327
-0.495349
-0.495417
-0.49553
-0.495679
-0.49587
-0.496073
-0.496357
-0.49673
-0.497154
-0.497674
-0.498342
-0.499174
-0.500162
-0.501492
-0.507952
-0.524691
-0.544592
-0.52471
-0.379026
-0.00475852
-9.09887e-06
-1.45044e-07
-1.15089e-11
-1.98908e-06
-6.32781e-05
-0.00051084
-0.00210738
-0.00602445
-0.0138167
-0.0273639
-0.0490839
-0.0806949
-0.12201
-0.165121
-0.0424646
-0.367388
-0.474744
-0.494877
-0.503153
-0.50875
-0.512134
-0.513425
-0.51313
-0.511722
-0.509578
-0.506705
-0.503582
-0.501144
-0.500588
-0.501096
-0.498975
-0.496233
-0.501717
-0.498285
-0.497831
-0.49741
-0.497042
-0.496735
-0.496432
-0.496192
-0.495964
-0.495788
-0.495643
-0.495502
-0.495421
-0.495338
-0.495319
-0.495321
-0.495321
-0.495399
-0.495504
-0.495604
-0.495812
-0.496041
-0.496305
-0.496645
-0.497037
-0.497557
-0.498145
-0.498894
-0.499791
-0.500811
-0.503647
-0.514883
-0.534224
-0.546522
-0.495102
-0.229065
-0.000165374
-8.12895e-06
-1.05501e-07
-9.53109e-10
-2.06304e-06
-6.61529e-05
-0.000537999
-0.00221795
-0.00628467
-0.014194
-0.0276709
-0.0485379
-0.078929
-0.119468
-0.167754
-0.21158
-0.0457851
-0.405584
-0.493126
-0.503108
-0.508693
-0.512105
-0.513398
-0.513097
-0.511757
-0.509631
-0.507019
-0.50408
-0.501827
-0.500344
-0.499954
-0.500648
-0.498244
-0.49562
-0.501552
-0.497801
-0.497421
-0.497019
-0.496725
-0.496406
-0.496163
-0.495961
-0.495785
-0.495618
-0.495486
-0.495417
-0.495349
-0.495296
-0.495294
-0.495324
-0.495381
-0.495473
-0.495596
-0.495765
-0.495969
-0.496222
-0.496576
-0.49695
-0.497417
-0.497969
-0.49863
-0.49946
-0.500417
-0.501803
-0.508245
-0.523499
-0.543036
-0.535021
-0.443819
-0.0569818
-1.70968e-06
-1.70367e-06
-1.28755e-08
-1.68927e-10
-2.1256e-06
-6.86129e-05
-0.000562257
-0.00233356
-0.00660613
-0.0147932
-0.0284129
-0.0491039
-0.0782681
-0.117302
-0.165334
-0.217547
-0.257735
-0.0415481
-0.432672
-0.506306
-0.50868
-0.512122
-0.513406
-0.513154
-0.51177
-0.509717
-0.507162
-0.504359
-0.502121
-0.500875
-0.499573
-0.499378
-0.500204
-0.497547
-0.495097
-0.501429
-0.497365
-0.497035
-0.496704
-0.496419
-0.496157
-0.495955
-0.495777
-0.495614
-0.495489
-0.4954
-0.49532
-0.495283
-0.495274
-0.495301
-0.495337
-0.495463
-0.49555
-0.49573
-0.495954
-0.496176
-0.496506
-0.496875
-0.497291
-0.497818
-0.498423
-0.499169
-0.500055
-0.501024
-0.504361
-0.515196
-0.533184
-0.546963
-0.509744
-0.337325
-0.00323
-7.11749e-06
-1.07718e-07
-1.98903e-09
-1.17985e-10
-2.1807e-06
-7.07015e-05
-0.000583004
-0.00243675
-0.00693965
-0.0155217
-0.0295715
-0.0503806
-0.0791944
-0.116611
-0.162905
-0.215565
-0.267692
-0.299658
-0.0269378
-0.450504
-0.501678
-0.512129
-0.513434
-0.513191
-0.511825
-0.509807
-0.507215
-0.504531
-0.502309
-0.50107
-0.500133
-0.498842
-0.498845
-0.499804
-0.496904
-0.49464
-0.50135
-0.497
-0.49672
-0.496419
-0.496169
-0.495971
-0.495771
-0.495632
-0.495482
-0.4954
-0.495328
-0.495277
-0.49526
-0.495284
-0.495323
-0.495423
-0.495533
-0.495704
-0.495888
-0.496147
-0.49644
-0.496787
-0.497211
-0.497696
-0.498287
-0.498967
-0.499761
-0.500671
-0.502305
-0.509366
-0.523874
-0.542323
-0.537769
-0.470204
-0.151704
-1.96367e-05
-2.55771e-06
-1.75294e-09
-3.07626e-09
-2.18965e-10
-2.23339e-06
-7.25444e-05
-0.000600639
-0.00252496
-0.00723695
-0.0162708
-0.030956
-0.0523416
-0.081168
-0.117987
-0.162293
-0.213047
-0.266371
-0.314051
-0.333436
-0.00600901
-0.46139
-0.497134
-0.513439
-0.513194
-0.511839
-0.509814
-0.507268
-0.504556
-0.502424
-0.501192
-0.500361
-0.499416
-0.498172
-0.498363
-0.499435
-0.496308
-0.494309
-0.50132
-0.496658
-0.496433
-0.496168
-0.495957
-0.495763
-0.49562
-0.495474
-0.495396
-0.495331
-0.495263
-0.495262
-0.495276
-0.495312
-0.49539
-0.49551
-0.495646
-0.495835
-0.496091
-0.496354
-0.49671
-0.497094
-0.497581
-0.498127
-0.498801
-0.499548
-0.500363
-0.501447
-0.505524
-0.51657
-0.533668
-0.546492
-0.515272
-0.385627
-0.0153775
-3.40051e-06
-2.45237e-10
-9.25738e-09
-1.70139e-10
-4.21075e-13
-2.29129e-06
-7.4314e-05
-0.000616237
-0.0026
-0.00749067
-0.0169374
-0.0323649
-0.0546363
-0.0841383
-0.120769
-0.164173
-0.212635
-0.263935
-0.313486
-0.352808
-0.355861
-0.00298446
-0.467226
-0.493174
-0.513205
-0.511858
-0.509795
-0.507327
-0.504549
-0.502431
-0.501271
-0.500508
-0.49965
-0.498751
-0.497523
-0.49796
-0.499068
-0.495733
-0.494074
-0.501336
-0.496349
-0.496158
-0.495953
-0.495742
-0.495583
-0.495487
-0.495359
-0.495323
-0.495263
-0.495245
-0.49525
-0.495281
-0.495361
-0.495486
-0.495607
-0.495794
-0.496035
-0.496289
-0.496633
-0.497027
-0.497488
-0.49799
-0.49863
-0.499328
-0.500133
-0.501003
-0.503261
-0.511195
-0.525491
-0.542622
-0.537415
-0.480431
-0.20996
-0.000108949
-4.97289e-07
-7.59012e-08
-3.01769e-09
-3.90699e-10
-1.48186e-09
-2.36239e-06
-7.6256e-05
-0.000631267
-0.00266656
-0.00770687
-0.017505
-0.033613
-0.0569444
-0.0875346
-0.124849
-0.167763
-0.214993
-0.263795
-0.311249
-0.352986
-0.381168
-0.365083
-0.0310504
-0.469752
-0.489103
-0.511932
-0.509791
-0.507309
-0.504633
-0.502443
-0.501294
-0.500564
-0.499823
-0.498981
-0.498114
-0.49695
-0.497605
-0.498709
-0.495188
-0.493906
-0.501358
-0.496064
-0.495941
-0.495738
-0.495589
-0.495471
-0.495371
-0.495309
-0.495258
-0.49525
-0.495267
-0.495288
-0.495336
-0.495465
-0.49557
-0.495779
-0.495997
-0.496276
-0.496567
-0.49695
-0.49737
-0.4979
-0.498484
-0.499157
-0.499902