/*--------------------------------*- C++ -*----------------------------------*\
| =========                 |                                                 |
| \\      /  F ield         | OpenFOAM: The Open Source CFD Toolbox           |
|  \\    /   O peration     | Version:  v2012                                 |
|   \\  /    A nd           | Website:  www.openfoam.com                      |
|    \\/     M anipulation  |                                                 |
\*---------------------------------------------------------------------------*/
FoamFile
{
    version     2.0;
    format      ascii;
    class       volScalarField;
    location    "0";
    object      lambda1;
}
// * * * * * * * * * * * * * * * * * * * * * * * * * * * * * * * * * * * * * //

dimensions      [0 0 0 0 0 0 0];


internalField   nonuniform List<scalar> 
31383
(
1.03109e-06
1.95303e-05
4.31029e-05
1.81239e-05
0.000640903
0.000359742
1.70914e-05
0.000595561
0.00519272
0.00157007
1.63429e-05
0.000562223
0.00484123
0.0205629
0.00481275
1.57388e-05
0.000538013
0.00458164
0.0192711
0.0536204
0.0116785
1.52263e-05
0.000518447
0.00439249
0.0183107
0.0505938
0.106595
0.0238454
1.47975e-05
0.000501836
0.0042392
0.0176071
0.0483242
0.101364
0.175293
0.0432551
1.44384e-05
0.000487929
0.00410882
0.0170346
0.0466499
0.0974038
0.168074
0.250927
0.0715977
1.41242e-05
0.000476279
0.00399938
0.016546
0.0452791
0.0944555
0.162546
0.242544
0.323798
0.110494
1.38435e-05
0.00046607
0.00390768
0.0161348
0.0441039
0.0920269
0.158393
0.236076
0.31519
0.385857
0.164505
1.35843e-05
0.000456953
0.00382712
0.0157888
0.043111
0.0899329
0.154946
0.231165
0.308646
0.37819
0.433199
0.230353
1.3346e-05
0.000448525
0.00375505
0.0154844
0.0422727
0.0881549
0.151954
0.227056
0.303635
0.372413
0.427305
0.466185
0.288014
1.31267e-05
0.000440782
0.00368839
0.0152118
0.0415331
0.0866488
0.149399
0.223463
0.299404
0.367854
0.422747
0.461985
0.487045
0.34912
1.29298e-05
0.000433643
0.00362717
0.0149591
0.040869
0.0853126
0.147226
0.220386
0.295717
0.364022
0.419045
0.458679
0.484254
0.499421
0.403953
1.27521e-05
0.000427239
0.00357062
0.0147266
0.0402521
0.0841107
0.145293
0.217751
0.292467
0.360772
0.415941
0.456025
0.482074
0.497551
0.507198
0.428436
1.25952e-05
0.000421456
0.00351983
0.0145116
0.0396823
0.0829908
0.143544
0.215394
0.289702
0.357651
0.413298
0.45376
0.48034
0.496152
0.505677
0.512355
0.450947
1.24541e-05
0.000416339
0.00347403
0.0143182
0.0391553
0.081954
0.141911
0.213258
0.287211
0.355103
0.410743
0.451715
0.478814
0.495016
0.504655
0.510989
0.515018
0.461326
1.23293e-05
0.000411754
0.00343337
0.0141434
0.0386803
0.0809926
0.140397
0.211269
0.284953
0.352803
0.408613
0.449935
0.477443
0.493951
0.503802
0.510207
0.513905
0.51565
0.471911
1.22172e-05
0.000407685
0.00339695
0.0139882
0.0382494
0.0801236
0.138985
0.209388
0.282921
0.350678
0.406779
0.448326
0.476241
0.493086
0.503029
0.509634
0.513472
0.514748
0.515038
0.493798
1.21175e-05
0.000404034
0.00336461
0.0138489
0.037867
0.0793348
0.137707
0.207646
0.280833
0.348794
0.404946
0.446966
0.475177
0.492366
0.502403
0.509135
0.513166
0.51462
0.514202
0.513626
0.506939
1.20287e-05
0.00040079
0.00333552
0.0137252
0.0375232
0.0786327
0.136544
0.206064
0.278972
0.346814
0.403294
0.445561
0.474186
0.491702
0.501962
0.508673
0.512881
0.514458
0.51419
0.512649
0.511692
0.516865
1.19494e-05
0.00039789
0.00330975
0.0136139
0.037217
0.0780005
0.135507
0.20462
0.277277
0.345067
0.401718
0.444301
0.473271
0.491074
0.501519
0.508315
0.512589
0.514318
0.514138
0.512732
0.510438
0.509479
0.524426
1.18784e-05
0.000395312
0.00328668
0.0135149
0.0369419
0.0774367
0.13457
0.203331
0.275735
0.343455
0.400226
0.443146
0.472408
0.490539
0.501148
0.507977
0.512342
0.514181
0.514114
0.512777
0.510598
0.50782
0.507221
0.529
1.18137e-05
0.000392987
0.00326609
0.0134266
0.0366969
0.0769288
0.133736
0.202162
0.274335
0.342048
0.398871
0.441994
0.471607
0.489978
0.500826
0.507692
0.512102
0.514048
0.514084
0.512823
0.510699
0.507993
0.505039
0.505041
0.531348
1.17544e-05
0.000390884
0.00324762
0.0133475
0.0364772
0.0764763
0.132981
0.201118
0.273071
0.340662
0.397684
0.440967
0.470828
0.489474
0.500467
0.507466
0.511897
0.51393
0.514052
0.512857
0.510802
0.508142
0.505196
0.502757
0.503251
0.531949
1.17e-05
0.000388943
0.00323084
0.0132767
0.0362816
0.0760702
0.132306
0.200174
0.271943
0.339469
0.396504
0.440017
0.470107
0.488995
0.50016
0.507222
0.511726
0.513828
0.514032
0.512895
0.510884
0.508282
0.505377
0.502877
0.501503
0.502195
0.530881
1.16502e-05
0.000387171
0.00321535
0.0132121
0.0361052
0.0757073
0.131702
0.199329
0.270919
0.338374
0.39551
0.439153
0.469446
0.48855
0.499863
0.506981
0.511568
0.513727
0.513981
0.512938
0.510964
0.508414
0.505537
0.503008
0.501554
0.500851
0.501744
0.529257
1.16049e-05
0.00038555
0.00320121
0.0131528
0.0359448
0.0753804
0.131161
0.19857
0.270001
0.337398
0.394557
0.438389
0.468849
0.48812
0.499588
0.506756
0.511396
0.513637
0.513963
0.512951
0.511052
0.508512
0.505674
0.503143
0.501616
0.500839
0.500264
0.501531
0.52828
1.15634e-05
0.000384068
0.00318829
0.0130982
0.0357974
0.0750825
0.130674
0.19789
0.269175
0.336523
0.39372
0.437664
0.468294
0.487746
0.499313
0.506547
0.511223
0.513557
0.513923
0.512964
0.51111
0.508614
0.505782
0.503254
0.501676
0.500858
0.500227
0.499725
0.501371
0.529828
1.15256e-05
0.000382712
0.00317648
0.0130485
0.0356615
0.0748084
0.130229
0.197275
0.268434
0.335721
0.392961
0.437021
0.467803
0.487394
0.499075
0.506359
0.511078
0.513463
0.51391
0.512995
0.511146
0.508704
0.505882
0.503341
0.501739
0.500903
0.500235
0.499642
0.499237
0.501269
0.534574
1.14919e-05
0.000381482
0.00316568
0.013003
0.0355377
0.0745575
0.129818
0.196716
0.267762
0.335011
0.392276
0.436413
0.467355
0.487062
0.498855
0.506173
0.510942
0.513406
0.513892
0.513014
0.511216
0.50877
0.505994
0.50344
0.501795
0.500931
0.500254
0.499653
0.499117
0.498808
0.501271
0.53547
1.14614e-05
0.000380379
0.00315586
0.0129616
0.0354239
0.074327
0.129441
0.196198
0.267151
0.334362
0.391666
0.435898
0.466935
0.486766
0.498636
0.50601
0.510818
0.513324
0.513869
0.513031
0.511247
0.508829
0.50607
0.503508
0.501848
0.500957
0.500297
0.499655
0.499115
0.498628
0.498436
0.501369
0.517171
1.14336e-05
0.000379381
0.00314698
0.0129236
0.0353206
0.0741158
0.129097
0.195722
0.266584
0.33377
0.391112
0.435424
0.466567
0.486521
0.498453
0.505861
0.510697
0.513275
0.513846
0.513032
0.511294
0.508902
0.506149
0.503596
0.501871
0.500963
0.500333
0.499697
0.499128
0.498613
0.498194
0.498147
0.50153
0.49999
1.1408e-05
0.000378477
0.00313907
0.0128896
0.0352261
0.0739228
0.128781
0.195286
0.266064
0.333227
0.390597
0.434991
0.466223
0.486279
0.498291
0.505735
0.510598
0.513202
0.513823
0.513051
0.511346
0.50898
0.506234
0.503675
0.501925
0.501
0.500332
0.499716
0.499137
0.498626
0.498169
0.497837
0.497939
0.501752
0.490356
1.13845e-05
0.000377646
0.00313187
0.0128591
0.0351415
0.0737474
0.128492
0.194887
0.265586
0.332723
0.390124
0.434595
0.465915
0.486054
0.498133
0.505599
0.510502
0.513159
0.513818
0.513058
0.511378
0.509053
0.506328
0.503731
0.501974
0.501016
0.500367
0.499747
0.499151
0.498617
0.498152
0.497768
0.497524
0.497782
0.502043
0.484125
1.13607e-05
0.000376879
0.00312518
0.0128313
0.0350647
0.0735887
0.128227
0.194521
0.265147
0.332262
0.389695
0.434218
0.465645
0.485852
0.498001
0.505487
0.510412
0.513099
0.51379
0.513076
0.511412
0.509106
0.506385
0.503802
0.502001
0.501031
0.500367
0.499747
0.499166
0.498646
0.498181
0.497756
0.497438
0.497246
0.497725
0.502747
0.477447
1.13401e-05
0.000376095
0.00311905
0.0128056
0.0349954
0.0734465
0.12799
0.194187
0.264746
0.33184
0.389293
0.433882
0.465378
0.485675
0.497866
0.505379
0.510341
0.513056
0.513774
0.513085
0.511432
0.509148
0.506457
0.503849
0.502026
0.501065
0.500387
0.49977
0.499167
0.498643
0.498156
0.497751
0.497411
0.497151
0.497029
0.497741
0.50436
0.47005
1.13921e-05
0.000375427
0.00311273
0.0127817
0.0349313
0.0733172
0.127777
0.193886
0.264378
0.331444
0.388931
0.433572
0.465139
0.48551
0.497748
0.505293
0.510249
0.512994
0.513742
0.513093
0.511472
0.509175
0.506515
0.503897
0.502068
0.501083
0.500431
0.499781
0.499202
0.498669
0.498188
0.497758
0.497375
0.497095
0.496883
0.496889
0.497841
0.506902
0.461714
1.78479e-05
0.000377088
0.00310745
0.0127577
0.0348719
0.0731975
0.127582
0.193615
0.264049
0.331089
0.388585
0.433274
0.464911
0.485358
0.49764
0.505203
0.510196
0.512963
0.513729
0.513087
0.511483
0.509227
0.506557
0.503948
0.502091
0.501098
0.500442
0.499816
0.4992
0.498653
0.498199
0.497756
0.497404
0.497078
0.496825
0.496684
0.496782
0.49805
0.51003
0.452184
1.20597e-05
0.000826506
0.0031201
0.0127371
0.0348115
0.0730866
0.127401
0.193368
0.26375
0.330767
0.388283
0.433017
0.464706
0.485206
0.497534
0.505121
0.510124
0.512926
0.513728
0.513094
0.51151
0.509248
0.506594
0.503999
0.502116
0.501113
0.50045
0.499821
0.499209
0.498682
0.498186
0.497757
0.497372
0.497048
0.496822
0.496605
0.496546
0.496736
0.498343
0.513495
0.440988
1.22293e-05
0.000442279
0.00612996
0.0127824
0.0347603
0.0729741
0.127235
0.193139
0.263479
0.330488
0.387997
0.432787
0.464518
0.485081
0.497451
0.505046
0.510075
0.512895
0.513706
0.513094
0.511507
0.509286
0.506634
0.504026
0.502145
0.501131
0.500478
0.499842
0.499245
0.498681
0.498212
0.497779
0.497366
0.497039
0.496782
0.496567
0.496438
0.496426
0.496759
0.498748
0.517197
0.42724
1.43209e-05
0.000450127
0.00387207
0.0239505
0.034862
0.0728787
0.127064
0.192927
0.263226
0.330219
0.387743
0.432561
0.464356
0.484959
0.497362
0.504972
0.510024
0.512868
0.513692
0.513091
0.511531
0.50931
0.506676
0.504058
0.502163
0.501132
0.500471
0.499866
0.499262
0.498719
0.498231
0.497778
0.497382
0.497051
0.496775
0.49655
0.496369
0.496301
0.496352
0.496828
0.499248
0.521054
0.409225
1.30945e-05
0.000524303
0.00396445
0.0161637
0.0617454
0.0730406
0.12692
0.192711
0.262991
0.329973
0.387515
0.432348
0.464191
0.484843
0.497289
0.504911
0.509963
0.512823
0.513673
0.513095
0.511536
0.509333
0.506701
0.504089
0.502169
0.501143
0.500483
0.499852
0.49926
0.498708
0.498219
0.497791
0.497397
0.497046
0.496768
0.496524
0.496339
0.496231
0.496197
0.496371
0.49699
0.499858
0.525009
0.383898
1.16661e-05
0.00047568
0.00457335
0.0167321
0.0435195
0.121598
0.127114
0.192528
0.262755
0.32974
0.387303
0.432178
0.464051
0.484744
0.497207
0.504851
0.50991
0.512806
0.51366
0.513084
0.511554
0.509352
0.506726
0.504121
0.502192
0.501158
0.500489
0.499876
0.499281
0.49872
0.498223
0.497795
0.497406
0.497056
0.496759
0.496491
0.496308
0.496177
0.496106
0.496145
0.496402
0.497243
0.500572
0.528825
0.347251
1.14061e-05
0.000421612
0.00411677
0.0190638
0.0458938
0.0884517
0.198578
0.192701
0.26255
0.329517
0.387099
0.432004
0.463922
0.484645
0.497146
0.504801
0.509875
0.512776
0.513652
0.513097
0.511566
0.509353
0.50675
0.504138
0.502218
0.501175
0.500517
0.499876
0.499281
0.498739
0.498233
0.497799
0.497405
0.49706
0.496741
0.496486
0.496286
0.496149
0.49604
0.496041
0.496154
0.496498
0.497573
0.501504
0.531897
0.295501
1.11899e-05
0.000410258
0.00363318
0.0171185
0.0516079
0.0949571
0.14935
0.282448
0.262652
0.329307
0.386906
0.43185
0.4638
0.484556
0.497082
0.504746
0.509827
0.512743
0.513648
0.513098
0.511578
0.509382
0.506769
0.504152
0.502207
0.501174
0.500508
0.4999
0.499295
0.498755
0.498245
0.497802
0.497403
0.497051
0.496741
0.49649
0.496282
0.496116
0.496
0.495964
0.496004
0.496201
0.496637
0.497967
0.503541
0.532734
0.208461
1.11426e-05
0.000372727
0.00351565
0.0151142
0.0464889
0.105582
0.160903
0.219928
0.360922
0.329318
0.386725
0.431682
0.463694
0.484475
0.497024
0.504701
0.509799
0.512715
0.513635
0.513092
0.511582
0.509397
0.506805
0.504181
0.502229
0.501171
0.500518
0.499881
0.499294
0.498765
0.498262
0.497811
0.497408
0.497073
0.496759
0.49647
0.49627
0.496101
0.495966
0.49592
0.495911
0.495999
0.496275
0.496844
0.498503
0.507596
0.52787
0.0959564
1.1125e-05
0.000367376
0.00306641
0.0145684
0.0412266
0.0958305
0.177642
0.234915
0.29162
0.424863
0.386649
0.431562
0.463565
0.48441
0.496973
0.504662
0.509767
0.512699
0.513621
0.513108
0.511589
0.509401
0.50681
0.504211
0.502252
0.501206
0.500529
0.499906
0.49931
0.498754
0.498262
0.497795
0.497408
0.497048
0.496774
0.49649
0.49625
0.496066
0.495937
0.495865
0.49586
0.495921
0.496058
0.496382
0.497147
0.49917
0.513095
0.514047
0.0339872
1.11119e-05
0.000366441
0.00302647
0.0125242
0.039642
0.0854724
0.162931
0.258873
0.306683
0.356527
0.470497
0.431428
0.463483
0.484333
0.496922
0.504619
0.509732
0.512682
0.513616
0.513091
0.511593
0.509429
0.506837
0.504207
0.50224
0.501205
0.500541
0.499911
0.499312
0.498771
0.498269
0.497815
0.497412
0.49707
0.496768
0.496479
0.496246
0.496074
0.495915
0.495836
0.495796
0.495802
0.495933
0.496149
0.496565
0.497482
0.49991
0.518831
0.494762
0.0139215
1.10937e-05
0.000365833
0.00301503
0.0123677
0.034129
0.0820295
0.145972
0.240351
0.338138
0.369148
0.409414
0.498566
0.463328
0.484262
0.496877
0.504584
0.509693
0.51266
0.513598
0.513088
0.511607
0.509421
0.506839
0.504227
0.502245
0.501202
0.500531
0.499896
0.499328
0.498764
0.498258
0.497819
0.497429
0.497072
0.496767
0.496495
0.496235
0.496067
0.49593
0.495802
0.495743
0.495743
0.495816
0.495962
0.496278
0.496807
0.497903
0.500745
0.524161
0.476128
0.00715639
1.1076e-05
0.000365061
0.00300829
0.0123102
0.0337206
0.0715546
0.139834
0.215771
0.317994
0.405477
0.418978
0.448442
0.513475
0.484123
0.496831
0.504544
0.509671
0.512647
0.51359
0.513098
0.511602
0.509439
0.50685
0.504235
0.502259
0.501221
0.500544
0.499902
0.499307
0.498774
0.498268
0.49782
0.497408
0.497063
0.496766
0.49649
0.496249
0.496061
0.495908
0.495806
0.495731
0.495705
0.495752
0.495882
0.496085
0.496444
0.497094
0.49843
0.502321
0.528898
0.457338
0.0038145
1.10626e-05
0.000364304
0.00300018
0.0122774
0.0335491
0.0707605
0.124756
0.206865
0.28605
0.386071
0.455023
0.455183
0.474712
0.520109
0.496704
0.504518
0.509644
0.512626
0.51359
0.513089
0.511602
0.509456
0.50686
0.504259
0.502282
0.501211
0.500558
0.499909
0.49933
0.498771
0.498255
0.497806
0.49743
0.497058
0.496733
0.496463
0.496243
0.496053
0.495899
0.495765
0.495701
0.495672
0.49569
0.49578
0.495948
0.496233
0.496659
0.497452
0.499078
0.506068
0.533138
0.434996
0.00211819
1.10549e-05
0.000363746
0.00299216
0.01224
0.0334529
0.0703971
0.123516
0.189611
0.276021
0.349764
0.438027
0.486344
0.479205
0.490897
0.522135
0.504392
0.509627
0.512617
0.513571
0.513089
0.511608
0.509454
0.506868
0.504261
0.502281
0.501211
0.50056
0.499918
0.499332
0.49879
0.498286
0.497816
0.497403
0.497054
0.496747
0.49647
0.496233
0.496043
0.495868
0.495762
0.495696
0.495636
0.495639
0.495678
0.495827
0.496046
0.496406
0.496952
0.497881
0.499807
0.512038
0.536489
0.405978
0.00146133
1.10315e-05
0.000363417
0.00298633
0.0122023
0.033346
0.0701988
0.122916
0.188001
0.259191
0.34054
0.402668
0.472429
0.503207
0.49376
0.500241
0.521777
0.50952
0.5126
0.513576
0.513072
0.511613
0.509452
0.506892
0.50426
0.502293
0.50122
0.500553
0.499936
0.499337
0.49878
0.498275
0.497821
0.49743
0.497071
0.496736
0.496457
0.496244
0.496039
0.495863
0.495757
0.495673
0.495621
0.495582
0.49565
0.495727
0.495916
0.496224
0.496648
0.497306
0.498404
0.50062
0.518861
0.537003
0.365147
0.00107657
9.44239e-06
0.000362587
0.00298284
0.0121753
0.0332384
0.0699783
0.122595
0.187188
0.257393
0.325908
0.395168
0.442794
0.492316
0.510684
0.502241
0.505957
0.520235
0.512517
0.513561
0.513083
0.511611
0.509462
0.506893
0.504275
0.502283
0.501228
0.50056
0.499926
0.499332
0.498764
0.498268
0.497807
0.497413
0.497068
0.496755
0.496447
0.496229
0.496019
0.495852
0.49573
0.495653
0.495612
0.495561
0.495598
0.495657
0.49584
0.49606
0.496428
0.496934
0.497707
0.498987
0.502132
0.525579
0.530751
0.305724
0.000593557
2.68737e-06
0.000311455
0.00297565
0.0121592
0.0331616
0.0697561
0.122245
0.186729
0.256434
0.324104
0.383664
0.437308
0.470649
0.502385
0.512933
0.508022
0.509602
0.518155
0.513475
0.513069
0.511609
0.50948
0.506894
0.504288
0.502294
0.501231
0.500562
0.499928
0.499335
0.498778
0.498266
0.497819
0.497416
0.49707
0.496724
0.496439
0.496215
0.496025
0.495858
0.495749
0.495655
0.49557
0.495543
0.495555
0.495629
0.495736
0.495957
0.496247
0.496647
0.497254
0.498143
0.49963
0.505711
0.531692
0.51571
0.212333
0.000212275
1.55516e-06
9.46767e-05
0.00257011
0.0121291
0.0331154
0.0696
0.121881
0.18626
0.255889
0.323132
0.382051
0.429086
0.467016
0.488398
0.50683
0.512611
0.511872
0.511146
0.51588
0.512978
0.511616
0.509469
0.506905
0.504279
0.502281
0.501214
0.500579
0.499924
0.499332
0.498796
0.498276
0.497837
0.497428
0.497072
0.496743
0.496451
0.496203
0.496034
0.495865
0.49573
0.495625
0.495555
0.495541
0.49553
0.495591
0.49566
0.495871
0.496089
0.49645
0.496934
0.497631
0.498688
0.500392
0.511764
0.537118
0.494808
0.0882045
3.7436e-05
2.24087e-06
4.54541e-05
0.000841919
0.0105604
0.0330353
0.0695026
0.12163
0.185769
0.255326
0.322602
0.381186
0.427815
0.461652
0.486233
0.498909
0.508425
0.512729
0.513376
0.510728
0.513586
0.511519
0.509484
0.506898
0.50428
0.502297
0.501211
0.500555
0.499936
0.499342
0.498785
0.498271
0.497816
0.497416
0.497052
0.496718
0.496445
0.496216
0.496019
0.495849
0.495711
0.495581
0.495526
0.495503
0.495492
0.495565
0.495645
0.495787
0.495988
0.496297
0.496726
0.497313
0.498095
0.49928
0.501645
0.51925
0.541674
0.466655
0.0215043
6.33431e-07
1.90663e-06
7.28906e-05
0.000320939
0.00377355
0.0290594
0.0693454
0.121466
0.185417
0.254758
0.32203
0.380726
0.427126
0.460761
0.483025
0.497821
0.505207
0.509347
0.514898
0.513202
0.508985
0.511358
0.509379
0.506905
0.504302
0.502294
0.501228
0.500568
0.499944
0.499332
0.4988
0.498282
0.497808
0.497416
0.497061
0.49672
0.49644
0.496202
0.495979
0.495832
0.49569
0.495587
0.495512
0.495483
0.495471
0.495517
0.495601
0.49572
0.495915
0.496153
0.496526
0.497043
0.497709
0.498619
0.499937
0.504546
0.527103
0.542941
0.422166
0.00692561
4.30853e-06
1.73052e-06
6.23928e-05
0.000598079
0.000838179
0.0114453
0.0617366
0.121217
0.185203
0.254351
0.321457
0.380233
0.426768
0.460279
0.482476
0.495993
0.504969
0.509286
0.511112
0.516405
0.511879
0.506411
0.509819
0.506831
0.504305
0.502311
0.501232
0.500556
0.49995
0.499339
0.498782
0.498265
0.497815
0.49743
0.49706
0.496729
0.496441
0.49622
0.495993
0.495815
0.495672
0.49557
0.495499
0.495477
0.495458
0.495484
0.495556
0.495665
0.495809
0.496059
0.49637
0.496785
0.497376
0.498166
0.49919
0.500689
0.50995
0.534557
0.534213
0.353853
0.00229878
1.51624e-05
1.6396e-06
5.71047e-05
0.000522426
0.00250559
0.00173516
0.0270058
0.109362
0.18488
0.254115
0.321053
0.379719
0.426376
0.460018
0.482149
0.49567
0.503825
0.509679
0.511581
0.512618
0.515383
0.509828
0.503657
0.509667
0.504261
0.502308
0.501226
0.500578
0.499937
0.499339
0.49878
0.498283
0.497814
0.497432
0.497071
0.496745
0.496442
0.496219
0.495984
0.495801
0.49568
0.495575
0.49548
0.495438
0.495432
0.495463
0.495545
0.495622
0.495754
0.495957
0.49625
0.496613
0.497132
0.497788
0.498689
0.499818
0.502037
0.517211
0.540654
0.512695
0.24947
0.000315039
4.56288e-06
1.59295e-06
5.42967e-05
0.00048216
0.00223359
0.00720307
0.00376451
0.0533243
0.169154
0.253758
0.320816
0.379381
0.425954
0.459727
0.481984
0.495461
0.503639
0.509089
0.512309
0.512354
0.512303
0.512835
0.507195
0.501706
0.509725
0.502302
0.501236
0.500564
0.499935
0.499336
0.498781
0.498304
0.497831
0.497426
0.49707
0.49673
0.496461
0.496199
0.496003
0.495789
0.495666
0.495558
0.495489
0.495425
0.4954
0.495447
0.495484
0.495588
0.495734
0.495916
0.496178
0.496474
0.496908
0.497505
0.498273
0.499235
0.500486
0.505472
0.525273
0.543782
0.484145
0.105357
5.03284e-07
5.576e-07
1.60314e-06
5.28485e-05
0.000460133
0.00207926
0.0065552
0.0163494
0.00726455
0.0918825
0.235508
0.320466
0.379149
0.425705
0.459421
0.481792
0.495343
0.503498
0.508998
0.512249
0.513137
0.51182
0.510399
0.509724
0.504443
0.500494
0.508348
0.501244
0.500571
0.499936
0.499332
0.498796
0.498303
0.497828
0.497419
0.497063
0.496726
0.49644
0.496186
0.495978
0.495784
0.495656
0.495543
0.49547
0.495411
0.49539
0.495396
0.495457
0.495549
0.495678
0.495841
0.496093
0.496399
0.496763
0.497284
0.497945
0.498797
0.499838
0.501452
0.51146
0.533491
0.541325
0.440695
0.0155355
9.96895e-06
9.72531e-08
1.64365e-06
5.32347e-05
0.000448822
0.00199202
0.00615646
0.0151921
0.0315482
0.0123604
0.141853
0.301618
0.37883
0.425507
0.459219
0.481596
0.495215
0.50342
0.508923
0.512259
0.513304
0.512643
0.510105
0.507626
0.50679
0.502373
0.49952
0.505848
0.500574
0.499939
0.499331
0.498781
0.498294
0.49782
0.497408
0.497052
0.496716
0.496435
0.496189
0.495967
0.495811
0.495646
0.49553
0.495455
0.495396
0.495355
0.495396
0.495443
0.495512
0.495642
0.495778
0.496028
0.496274
0.496629
0.497098
0.497696
0.498435
0.499363
0.500503
0.503834
0.519179
0.541204
0.526953
0.359421
0.00124987
1.19819e-05
8.83917e-08
1.71467e-06
5.46269e-05
0.000452512
0.00194778
0.00592202
0.0143951
0.0299249
0.0540163
0.0190842
0.199886
0.361376
0.425224
0.45909
0.481443
0.495093
0.503345
0.5089
0.512247
0.513423
0.512908
0.511113
0.507601
0.504693
0.504214
0.5012
0.498585
0.503569
0.49996
0.499351
0.498777
0.498292
0.497825
0.497393
0.497037
0.496726
0.496444
0.496181
0.495966
0.495796
0.495623
0.495527
0.495445
0.495381
0.495341
0.495364
0.4954
0.495491
0.495603
0.495752
0.495961
0.496214
0.496549
0.496943
0.497467
0.498139
0.498961
0.499993
0.501363
0.508766
0.527926
0.546028
0.499621
0.219173
2.7396e-05
3.04071e-06
1.09736e-07
1.80595e-06
5.70093e-05
0.000464657
0.00196549
0.00580615
0.0139052
0.028607
0.0522581
0.0842543
0.0270237
0.260642
0.410713
0.458896
0.481369
0.494993
0.503256
0.508849
0.51223
0.513443
0.513081
0.511465
0.50885
0.504789
0.502447
0.502411
0.500387
0.497731
0.502319
0.499356
0.498799
0.498282
0.497828
0.497402
0.497041
0.496708
0.496429
0.496191
0.495955
0.495793
0.495633
0.495522
0.495412
0.49537
0.495331
0.495358
0.495377
0.495457
0.49557
0.495686
0.495903
0.496166
0.496456
0.496836
0.497292
0.497884
0.498626
0.499548
0.500612
0.503422
0.515985
0.537011
0.541986
0.458043
0.0596156
4.02283e-06
2.21987e-07
1.39983e-07
1.90276e-06
6.00566e-05
0.000485026
0.00201912
0.0058635
0.0136719
0.0277506
0.0503868
0.0830243
0.121803
0.0352709
0.318157
0.448189
0.481256
0.494954
0.503202
0.50878
0.512183
0.513444
0.513136
0.511684
0.509306
0.506159
0.502457
0.501257
0.501554
0.499668
0.496937
0.501914
0.498791
0.498284
0.497839
0.4974
0.497044
0.496734
0.496432
0.496167
0.49596
0.495804
0.495629
0.495505
0.49544
0.495366
0.495323
0.495327
0.495349
0.495417
0.49553
0.495679
0.49587
0.496072
0.496357
0.49673
0.497154
0.497674
0.498343
0.499175
0.500164
0.501495
0.507956
0.524699
0.544616
0.524775
0.379111
0.00473669
1.07355e-05
1.35371e-07
1.90534e-07
1.9891e-06
6.32784e-05
0.000510843
0.00210739
0.00602447
0.0138167
0.027364
0.0490839
0.0806947
0.122009
0.165115
0.0424803
0.367387
0.474743
0.494878
0.503153
0.50875
0.512134
0.513425
0.51313
0.511722
0.509578
0.506705
0.503582
0.501144
0.500587
0.501096
0.498976
0.496232
0.501717
0.498286
0.497831
0.49741
0.497042
0.496735
0.496432
0.496192
0.495964
0.495788
0.495643
0.495502
0.495421
0.495338
0.495319
0.495321
0.495321
0.495399
0.495504
0.495604
0.495812
0.496041
0.496305
0.496645
0.497037
0.497557
0.498145
0.498895
0.499793
0.500814
0.503651
0.514889
0.534238
0.546558
0.495207
0.229069
0.000161111
9.68883e-06
8.76136e-08
2.48524e-07
2.06306e-06
6.61532e-05
0.000538001
0.00221796
0.00628469
0.014194
0.027671
0.048538
0.0789289
0.119468
0.167753
0.211573
0.0458112
0.405584
0.493125
0.503108
0.508693
0.512105
0.513398
0.513097
0.511757
0.509631
0.507019
0.50408
0.501828
0.500344
0.499954
0.500648
0.498245
0.495619
0.501551
0.497803
0.497421
0.497019
0.496725
0.496406
0.496163
0.495961
0.495785
0.495618
0.495486
0.495417
0.495349
0.495296
0.495294
0.495324
0.495381
0.495472
0.495596
0.495765
0.495969
0.496222
0.496576
0.49695
0.497416
0.49797
0.49863
0.499462
0.50042
0.501807
0.508251
0.523509
0.543058
0.535074
0.443947
0.0569375
1.46967e-06
2.65787e-06
5.67156e-09
2.88264e-07
2.12562e-06
6.86131e-05
0.000562259
0.00233357
0.00660616
0.0147932
0.028413
0.049104
0.0782682
0.117302
0.165334
0.217546
0.257726
0.0416041
0.432672
0.506305
0.50868
0.512122
0.513406
0.513154
0.51177
0.509717
0.507162
0.504359
0.502121
0.500875
0.499573
0.499378
0.500203
0.497549
0.495096
0.501427
0.497366
0.497035
0.496704
0.496419
0.496157
0.495955
0.495777
0.495614
0.495489
0.4954
0.49532
0.495283
0.495274
0.495301
0.495337
0.495463
0.495549
0.49573
0.495954
0.496175
0.496506
0.496874
0.49729
0.497818
0.498424
0.49917
0.500057
0.501028
0.504366
0.515204
0.533199
0.546997
0.509829
0.337412
0.00321152
8.44554e-06
6.65614e-07
1.16868e-08
3.30919e-07
2.18073e-06
7.07017e-05
0.000583005
0.00243675
0.00693967
0.0155218
0.0295716
0.0503808
0.0791946
0.116611
0.162905
0.215564
0.267691
0.299648
0.0270761
0.450507
0.501677
0.512129
0.513434
0.513191
0.511825
0.509807
0.507215
0.504531
0.502309
0.50107
0.500133
0.498842
0.498845
0.499804
0.496906
0.494638
0.501348
0.497002
0.49672
0.496419
0.496169
0.495971
0.495771
0.495632
0.495482
0.4954
0.495328
0.495277
0.49526
0.495284
0.495322
0.495423
0.495533
0.495704
0.495888
0.496147
0.49644
0.496787
0.497211
0.497696
0.498287
0.498967
0.499762
0.500674
0.50231
0.509374
0.523887
0.542347
0.537819
0.470326
0.151706
1.81589e-05
3.43029e-06
3.95528e-07
1.69602e-08
3.98684e-07
2.23341e-06
7.25446e-05
0.00060064
0.00252497
0.00723697
0.0162709
0.0309561
0.0523418
0.0811682
0.117987
0.162293
0.213047
0.26637
0.314049
0.333423
0.00637564
0.461399
0.497133
0.51344
0.513194
0.511839
0.509814
0.507268
0.504556
0.502424
0.501192
0.500361
0.499416
0.498172
0.498362
0.499435
0.496311
0.494307
0.501317
0.496661
0.496432
0.496168
0.495957
0.495762
0.49562
0.495474
0.495395
0.495331
0.495263
0.495262
0.495276
0.495312
0.495389
0.49551
0.495646
0.495835
0.49609
0.496353
0.49671
0.497094
0.49758
0.498127
0.498801
0.499549
0.500365
0.501451
0.505531
0.516581
0.533688
0.546527
0.515347
0.385746
0.0153579
4.16313e-06
1.60051e-07
3.54499e-07
1.12183e-08
4.93959e-07
2.29131e-06
7.43142e-05
0.000616239
0.0026
0.00749069
0.0169375
0.032365
0.0546364
0.0841385
0.120769
0.164173
0.212635
0.263934
0.313485
0.352806
0.355847
0.00372117
0.467244
0.493174
0.513207
0.511858
0.509795
0.507327
0.504549
0.502431
0.501271
0.500508
0.49965
0.498751
0.497523
0.497959
0.499068
0.495737
0.494071
0.501333
0.496352
0.496158
0.495953
0.495742
0.495583
0.495487
0.495359
0.495322
0.495263
0.495245
0.49525
0.495281
0.495361
0.495485
0.495607
0.495794
0.496034
0.496288
0.496633
0.497026
0.497487
0.497989
0.498629
0.499328
0.500134
0.501006
0.503267
0.511206
0.525507
0.542651
0.537467
0.480538
0.210006
0.000107089
8.31912e-07
1.2808e-07
3.36993e-07
9.19738e-09
6.26902e-07
2.36241e-06
7.62562e-05
0.000631268
0.00266656
0.00770689
0.0175051
0.0336131
0.0569445
0.0875348
0.12485
0.167763
0.214993
0.263795
0.311248
0.352985
0.381166
0.365066
0.0319437
0.469786
0.489105
0.511933
0.509791
0.507309
0.504633
0.502443
0.501294
0.500564
0.499823
0.498981
0.498114
0.49695
0.497603
0.498708
0.495193
0.493901
0.501354
0.496069
0.495941
0.495738
0.495589
0.495471
0.495371
0.495309
0.495257
0.495249
0.495267
0.495288
0.495336
0.495465
0.49557
0.495779
0.495997
0.496275
0.496567
0.49695
0.49737
0.4979
0.498484
0.499157
0.499903
0.500749
0.502085
0.507331
0.518913
0.535434
0.545634
0.515546
0.401931
0.0312587
7.87919e-07
5.03417e-08
1.4554e-07
3.25341e-07
1.1303e-08
7.98765e-07
2.45169e-06
7.86357e-05
0.000647735
0.00273085
0.00789889
0.0179893
0.0346754
0.05898
0.0909058
0.129407
0.172903
0.219281
0.266536
0.311401
0.350989
0.382126
0.39779
0.331866
0.0732706
0.470879
0.485146
0.509907
0.507295
0.504646
0.502456
0.501309
0.500612
0.499907
0.499176
0.498373
0.497546
0.49644
0.497306
0.498395
0.494678
0.493806
0.501402
0.495789
0.49578
0.495579
0.495479
0.495382
0.495296
0.495272
0.495216
0.495244
0.49528
0.49535
0.495448
0.495565
0.495728
0.495954
0.496217
0.496493
0.496896
0.497302
0.497781
0.49835
0.499035
0.499738
0.500529
0.501495
0.504802
0.513781
0.528193
0.543689
0.534896
0.48064
0.225296
0.000461724
2.67659e-07
4.78559e-08
2.23072e-07
3.1516e-07
1.56604e-08
9.14778e-07
2.56279e-06
8.16179e-05
0.000667891
0.00280121
0.00808496
0.0184192
0.03558
0.0607079
0.0938695
0.133865
0.178502
0.225262
0.271325
0.314396
0.351438
0.380347
0.399696
0.402831
0.273171
0.116541
0.471172
0.481016
0.507406
0.504634
0.502494
0.501288
0.500617
0.499958
0.499283
0.498593
0.497795
0.497027
0.49598
0.497063
0.498054
0.494189
0.493806
0.501497
0.495566
0.495602
0.495471
0.495363
0.495281
0.49523
0.495204
0.495238
0.495261
0.49532
0.495418
0.49556
0.495681
0.495929
0.496142
0.496444
0.496817
0.497221
0.4977
0.49827
0.498873
0.499573
0.500335
0.501138
0.503196
0.509905
0.522108
0.538042
0.543445
0.511936
0.396113
0.0312385
9.38908e-07
3.5259e-07
4.94483e-08
3.11907e-07
2.63175e-07
2.6427e-08
8.33207e-07
2.69694e-06
8.53173e-05
0.000693044
0.00288711
0.0082882
0.0188381
0.0363856
0.0621776
0.0963748
0.137771
0.183892
0.231598
0.277778
0.319437
0.354556
0.381097
0.398132
0.405971
0.397504
0.213606
0.155761
0.471434
0.477054
0.504713
0.50248
0.501317
0.500642
0.499982
0.499348
0.498676
0.498029
0.497233
0.49652
0.495645
0.496889
0.497731
0.493787
0.49381
0.501638
0.495335
0.495465
0.495326
0.495284
0.495211
0.495213
0.495199
0.49526
0.495304
0.495389
0.495506
0.495666
0.495869
0.496119
0.496404
0.496741
0.497167
0.497608
0.498139
0.498759
0.499441
0.500153
0.500927
0.502269
0.507109
0.51715
0.531778
0.544594
0.529692
0.472192
0.204505
0.000476695
1.17127e-06
2.59648e-07
1.58826e-07
3.2635e-07
1.7828e-07
4.13449e-08
7.84231e-07
2.85397e-06
8.97763e-05
0.000724137
0.0029939
0.00853558
0.0192939
0.0371713
0.0634933
0.0985044
0.141058
0.188586
0.237582
0.284402
0.325964
0.359644
0.384273
0.399206
0.404681
0.402203
0.383664
0.158659
0.191044
0.471895
0.473316
0.502534
0.501339
0.500661
0.500016
0.499369
0.498754
0.498143
0.4975
0.496694
0.496027
0.495329
0.496752
0.49743
0.493448
0.493887
0.501794
0.495124
0.495351
0.495245
0.495218
0.495196
0.495215
0.495249
0.495305
0.49538
0.495491
0.495654
0.495841
0.496084
0.496355
0.496723