/*--------------------------------*- C++ -*----------------------------------*\
| =========                 |                                                 |
| \\      /  F ield         | OpenFOAM: The Open Source CFD Toolbox           |
|  \\    /   O peration     | Version:  v2012                                 |
|   \\  /    A nd           | Website:  www.openfoam.com                      |
|    \\/     M anipulation  |                                                 |
\*---------------------------------------------------------------------------*/
FoamFile
{
    version     2.0;
    format      ascii;
    class       volScalarField;
    location    "0";
    object      Mg;
}
// * * * * * * * * * * * * * * * * * * * * * * * * * * * * * * * * * * * * * //

dimensions      [0 0 0 0 0 0 0];


internalField   nonuniform List<scalar> 
31383
(
3.46477e-07
1.59676e-06
9.07628e-07
1.48268e-06
5.3146e-06
2.10414e-06
1.39833e-06
4.91022e-06
3.17743e-05
6.50456e-06
1.33693e-06
4.61118e-06
2.92367e-05
0.000129855
1.82592e-05
1.2875e-06
4.394e-06
2.73592e-05
0.000119431
0.000381649
4.35973e-05
1.24575e-06
4.21952e-06
2.59975e-05
0.000111722
0.000351018
0.000913484
9.17966e-05
1.21071e-06
4.07272e-06
2.49052e-05
0.000106131
0.000328364
0.000840567
0.00190072
0.000177778
1.1812e-06
3.94948e-06
2.39886e-05
0.000101648
0.000311935
0.000786617
0.00175132
0.00355246
0.000324469
1.15547e-06
3.84585e-06
2.32186e-05
9.78861e-05
0.000298752
0.000747448
0.00164054
0.0032815
0.00605465
0.000568997
1.13275e-06
3.75581e-06
2.25718e-05
9.47264e-05
0.000287693
0.000716008
0.00155997
0.00308007
0.00561304
0.00944434
0.000988519
1.11206e-06
3.6763e-06
2.20113e-05
9.2071e-05
0.000278405
0.000689624
0.00149522
0.00293304
0.00528607
0.00881035
0.0135121
0.00167458
1.0933e-06
3.60388e-06
2.1516e-05
8.97712e-05
0.000270597
0.000667452
0.00144082
0.00281458
0.00504621
0.00833895
0.0127151
0.0178499
0.00260245
1.07618e-06
3.53829e-06
2.10649e-05
8.77395e-05
0.000263835
0.000648818
0.00139505
0.00271483
0.00485213
0.00798792
0.0121094
0.0169424
0.0219829
0.00397179
1.06079e-06
3.47838e-06
2.06568e-05
8.58895e-05
0.000257863
0.000632657
0.00135656
0.00263084
0.00468888
0.00770364
0.0116518
0.0162397
0.0210302
0.0256201
0.00579259
1.04689e-06
3.42473e-06
2.02838e-05
8.4215e-05
0.000252424
0.000618392
0.00132318
0.00256004
0.00454971
0.00746635
0.0112798
0.0157081
0.0202841
0.0246611
0.0287468
0.00746872
1.03456e-06
3.37637e-06
1.99506e-05
8.2686e-05
0.000247499
0.000605401
0.00129367
0.00249855
0.00443261
0.00725716
0.0109674
0.0152713
0.019718
0.0239067
0.0277771
0.0314105
0.0094044
1.02342e-06
3.33342e-06
1.96508e-05
8.13194e-05
0.000243005
0.000593639
0.00126681
0.0024442
0.00433065
0.00708347
0.0106917
0.014896
0.0192472
0.0233299
0.0270196
0.0304297
0.0335559
0.0111697
1.0135e-06
3.29483e-06
1.93842e-05
8.00898e-05
0.000238988
0.000582902
0.00124249
0.00239481
0.00424053
0.00693206
0.0104598
0.0145756
0.0188423
0.0228442
0.026437
0.0296747
0.032593
0.035196
0.0130688
1.00453e-06
3.26036e-06
1.91454e-05
7.8997e-05
0.000235371
0.000573303
0.00122027
0.00234977
0.00415977
0.00679717
0.0102603
0.0142973
0.0184948
0.0224326
0.0259493
0.0291014
0.0318687
0.0342618
0.0364232
0.015662
9.96498e-07
3.22934e-06
1.89319e-05
7.80173e-05
0.000232159
0.000564663
0.0012004
0.00230875
0.00408359
0.00667676
0.0100779
0.0140582
0.0181933
0.0220812
0.0255342
0.0286243
0.0313173
0.033577
0.0355096
0.0373146
0.0179351
9.89277e-07
3.20157e-06
1.87402e-05
7.71419e-05
0.00022928
0.000556985
0.00118251
0.00227205
0.00401537
0.00656262
0.00991368
0.0138385
0.017927
0.0217731
0.0251856
0.0282109
0.0308566
0.033044
0.0348493
0.0364004
0.0379372
0.0200379
9.82793e-07
3.17664e-06
1.85689e-05
7.63566e-05
0.000226704
0.000550106
0.00116661
0.00223897
0.00395425
0.00646059
0.00976407
0.0136402
0.0176907
0.0215003
0.0248767
0.0278597
0.0304549
0.0326012
0.0343366
0.0357655
0.0370072
0.0383552
0.0219584
9.76942e-07
3.1543e-06
1.84152e-05
7.56539e-05
0.000224397
0.00054395
0.00115234
0.00220957
0.00389925
0.00636869
0.00962639
0.0134621
0.0174738
0.0212623
0.0246076
0.0275508
0.0301098
0.0322174
0.0339135
0.0352745
0.0363964
0.0373951
0.0386308
0.0235757
9.71614e-07
3.13412e-06
1.82773e-05
7.50244e-05
0.000222332
0.00053843
0.00113959
0.00218315
0.00384999
0.00628722
0.00950293
0.0132955
0.0172786
0.0210396
0.024372
0.0272809
0.0298059
0.031885
0.0335472
0.0348684
0.0359237
0.0368002
0.0376276
0.0388071
0.024885
9.66716e-07
3.11578e-06
1.81533e-05
7.44591e-05
0.000220478
0.000533494
0.00112815
0.00215952
0.00380582
0.0062118
0.00939302
0.0131466
0.0170975
0.0208407
0.0241514
0.0270466
0.0295394
0.0315945
0.0332304
0.034517
0.0355338
0.0363446
0.037044
0.0378187
0.0389485
0.0258846
9.62226e-07
3.0989e-06
1.80403e-05
7.39509e-05
0.000218818
0.000529062
0.0011179
0.00213831
0.00376627
0.00614544
0.00929116
0.0130112
0.0169337
0.0206578
0.0239556
0.02683
0.0293068
0.0313387
0.0329547
0.0342146
0.0351966
0.0359686
0.036603
0.0372416
0.0380611
0.0391184
0.0265603
9.58097e-07
3.08345e-06
1.79363e-05
7.34878e-05
0.000217323
0.000525089
0.00110871
0.0021193
0.00373074
0.0060853
0.0092018
0.0128898
0.0167846
0.0204919
0.0237756
0.0266343
0.0290959
0.0311135
0.0327074
0.0339515
0.0349058
0.035646
0.0362384
0.0368031
0.0374833
0.0383184
0.0393135
0.0270102
9.54307e-07
3.06929e-06
1.78413e-05
7.30624e-05
0.000215961
0.00052151
0.00110046
0.00210224
0.00369887
0.0060316
0.00911954
0.0127808
0.0166512
0.020339
0.0236124
0.0264557
0.0289045
0.0309104
0.0324939
0.0337162
0.0346542
0.0353643
0.0359239
0.0364427
0.0370428
0.0377391
0.038532
0.0394934
0.0273489
9.50811e-07
3.05626e-06
1.77543e-05
7.26723e-05
0.000214711
0.000518252
0.00109304
0.00208693
0.00367023
0.00598338
0.00904633
0.0126808
0.0165292
0.020203
0.0234615
0.0262936
0.0287288
0.0307292
0.0322992
0.03351
0.0344293
0.0351204
0.0356501
0.0361316
0.0366783
0.037298
0.0379553
0.0387069
0.0396389
0.0277516
9.47591e-07
3.04428e-06
1.76744e-05
7.23157e-05
0.000213564
0.000515257
0.00108628
0.00207313
0.0036445
0.00593971
0.00898027
0.0125913
0.0164195
0.020078
0.0233268
0.0261458
0.028571
0.0305625
0.0321282
0.0333276
0.0342302
0.0349046
0.0354114
0.0358609
0.036366
0.0369358
0.0375175
0.0381305
0.0388506
0.0397548
0.0282526
9.44657e-07
3.03328e-06
1.76009e-05
7.1988e-05
0.000212515
0.000512521
0.00108006
0.00206057
0.00362128
0.00590067
0.00892067
0.0125093
0.0163201
0.0199639
0.0232032
0.0260114
0.0284264
0.0304145
0.0319728
0.0331642
0.034057
0.0347138
0.0352033
0.0356267
0.0360954
0.0366226
0.0371557
0.0376976
0.0382755
0.038969
0.0398506
0.0280674
9.41958e-07
3.02325e-06
1.75337e-05
7.16876e-05
0.00021155
0.000510009
0.00107436
0.00204901
0.00360015
0.0058653
0.0088672
0.0124366
0.0162293
0.0198607
0.0230895
0.0258886
0.028296
0.0302761
0.0318311
0.0330168
0.0338995
0.0345438
0.0350183
0.0354175
0.0358594
0.0363513
0.0368474
0.0373369
0.0378454
0.0383927
0.0390664
0.0399278
0.0257267
9.39466e-07
3.01406e-06
1.74721e-05
7.14114e-05
0.000210666
0.000507699
0.00106915
0.00203842
0.00358068
0.00583306
0.00881881
0.0123706
0.0161476
0.0197686
0.0229873
0.0257771
0.0281754
0.0301538
0.0317014
0.0328813
0.0337598
0.0343955
0.0348547
0.0352376
0.0356479
0.036112
0.0365801
0.0370315
0.0374893
0.0379653
0.0384893
0.0391493
0.0399835
0.0234226
9.37139e-07
3.00558e-06
1.74161e-05
7.116e-05
0.000209855
0.000505582
0.00106436
0.00202872
0.00356287
0.00580345
0.00877441
0.0123107
0.016073
0.0196834
0.0228945
0.0256761
0.0280669
0.0300382
0.0315838
0.0327594
0.0336339
0.0342637
0.0347119
0.0350779
0.0354665
0.0359043
0.036342
0.0367644
0.0371825
0.0376126
0.0380652
0.0385719
0.0392205
0.0400187
0.0216754
9.34967e-07
2.99767e-06
1.73644e-05
7.09307e-05
0.000209116
0.000503642
0.00105996
0.00201981
0.00354653
0.00577628
0.00873358
0.0122559
0.0160056
0.0196057
0.022809
0.025582
0.0279668
0.0299356
0.0314772
0.0326481
0.0335171
0.034144
0.0345857
0.034935
0.0353059
0.0357205
0.0361361
0.0365326
0.0369172
0.0373061
0.0377118
0.0381468
0.0386389
0.039278
0.0400354
0.0201039
9.32778e-07
2.9903e-06
1.73161e-05
7.07186e-05
0.000208439
0.00050187
0.00105593
0.00201162
0.00353149
0.00575134
0.00869636
0.012205
0.0159445
0.0195353
0.022732
0.025497
0.027875
0.0298389
0.0313777
0.0325465
0.0334119
0.0340332
0.0344677
0.0348092
0.035162
0.0355576
0.0359519
0.0363241
0.0366853
0.0370451
0.0374128
0.0377972
0.0382164
0.0386917
0.0393292
0.0400813
0.0184181
9.30958e-07
2.9828e-06
1.72711e-05
7.05208e-05
0.000207816
0.000500252
0.00105225
0.00200412
0.00351769
0.00572845
0.00866193
0.0121588
0.0158872
0.0194712
0.0226609
0.025419
0.0277921
0.0297515
0.0312868
0.0324531
0.0333133
0.0339319
0.0343622
0.0346931
0.0350335
0.0354163
0.035791
0.0361441
0.0364786
0.0368128
0.037147
0.0374964
0.0378684
0.0382735
0.0387355
0.0393715
0.0402226
0.0166123
9.34122e-07
2.97666e-06
1.7225e-05
7.03361e-05
0.000207234
0.00049876
0.00104889
0.00199726
0.00350501
0.0057072
0.00863044
0.0121162
0.0158351
0.0194119
0.022596
0.025349
0.0277137
0.0296691
0.0312015
0.0323668
0.033226
0.0338369
0.0342658
0.0345874
0.0349187
0.0352885
0.0356527
0.0359836
0.0363015
0.0366106
0.036921
0.0372369
0.0375663
0.0379252
0.0383167
0.0387737
0.0394064
0.04046
0.0146904
1.48789e-06
2.97903e-06
1.71881e-05
7.01483e-05
0.000206692
0.000497367
0.00104578
0.00199099
0.00349344
0.0056878
0.00860104
0.0120764
0.0157865
0.0193575
0.0225362
0.0252836
0.0276451
0.0295964
0.0311249
0.0322858
0.033142
0.0337532
0.034175
0.0344925
0.0348123
0.0351723
0.0355255
0.0358456
0.0361407
0.0364284
0.0367185
0.0370084
0.0373117
0.0376285
0.037972
0.038354
0.0388012
0.0394367
0.040739
0.0126644
9.75153e-07
8.38081e-06
1.71596e-05
6.99964e-05
0.000206139
0.000496067
0.00104288
0.0019852
0.00348283
0.00567003
0.00857436
0.0120403
0.0157419
0.0193065
0.0224807
0.0252233
0.0275797
0.0295289
0.031056
0.0322128
0.0330667
0.0336727
0.034092
0.0344051
0.0347163
0.0350662
0.0354097
0.0357187
0.0360005
0.0362729
0.036538
0.0368061
0.0370814
0.0373685
0.0376798
0.0380108
0.0383856
0.0388226
0.0394579
0.0410128
0.0105578
9.87631e-07
3.5029e-06
5.54753e-05
6.98567e-05
0.000205693
0.000494744
0.00104018
0.00197979
0.00347304
0.00565396
0.00854953
0.0120073
0.0157007
0.0192602
0.0224305
0.0251681
0.0275211
0.0294671
0.0309905
0.0321452
0.032994
0.0336005
0.0340156
0.0343229
0.0346278
0.0349707
0.0353064
0.0356057
0.0358788
0.0361325
0.0363832
0.0366312
0.0368798
0.037143
0.037421
0.0377171
0.0380431
0.0384065
0.0388388
0.0394719
0.0412496
0.00841458
1.16235e-06
3.66101e-06
2.17954e-05
0.000223236
0.000205235
0.000493676
0.00103741
0.00197474
0.00346387
0.00563882
0.00852684
0.0119761
0.0156632
0.0192169
0.0223829
0.0251164
0.0274665
0.0294102
0.0309309
0.0320827
0.0329306
0.0335325
0.0339456
0.0342472
0.034546
0.0348803
0.035209
0.0355031
0.0357664
0.036012
0.0362461
0.036474
0.0367054
0.0369452
0.0371976
0.0374639
0.0377489
0.0380671
0.0384211
0.0388466
0.0394735
0.0414108
0.00631514
1.06608e-06
5.00966e-06
2.34039e-05
9.02983e-05
0.00064645
0.000492435
0.00103519
0.00196959
0.00345528
0.00562469
0.00850593
0.011947
0.0156275
0.0191764
0.0223394
0.0250689
0.0274146
0.0293557
0.0308751
0.032026
0.0328701
0.0334704
0.0338796
0.0341776
0.0344687
0.0347987
0.0351208
0.0354058
0.0356616
0.0358973
0.0361205
0.0363373
0.0365512
0.0367694
0.0369991
0.03724
0.0374967
0.0377764
0.0380837
0.0384355
0.0388516
0.0394616
0.0414501
0.00439125
9.51139e-07
4.32897e-06
3.46431e-05
9.79697e-05
0.000265649
0.00153279
0.00103223
0.00196545
0.00344658
0.0056114
0.00848627
0.0119211
0.015595
0.0191394
0.0222978
0.0250244
0.0273666
0.0293076
0.0308243
0.0319718
0.0328161
0.0334128
0.0338189
0.0341137
0.0343994
0.0347236
0.0350395
0.0353201
0.0355695
0.035795
0.0360085
0.0362146
0.0364149
0.0366154
0.036824
0.03704
0.0372746
0.0375242
0.0377946
0.038096
0.0384391
0.0388522
0.0394303
0.041278
0.00281332
9.322e-07
3.47759e-06
2.88157e-05
0.000145401
0.000292394
0.000632739
0.00317141
0.00195902
0.00343951
0.00559806
0.00846773
0.011896
0.0155646
0.0191043
0.0222602
0.0249834
0.0273232
0.0292615
0.0307774
0.0319244
0.0327656
0.0333581
0.0337634
0.0340536
0.034336
0.0346543
0.0349667
0.035239
0.0354816
0.0357035
0.0359069
0.0361034
0.0362923
0.0364795
0.0366677
0.0368667
0.0370777
0.0373049
0.0375441
0.0378099
0.0381049
0.0384383
0.0388447
0.0393896
0.0407319
0.00169315
9.14593e-07
3.35707e-06
2.15831e-05
0.000119443
0.000433669
0.000707546
0.0013167
0.00588919
0.0034268
0.00558698
0.00844918
0.0118728
0.0155359
0.0190715
0.0222244
0.0249443
0.027281
0.0292177
0.0307341
0.0318792
0.032719
0.0333107
0.0337118
0.0339979
0.0342734
0.0345885
0.0348952
0.0351664
0.0354029
0.0356185
0.0358154
0.0360019
0.0361812
0.0363568
0.0365321
0.0367141
0.0369057
0.0371085
0.0373261
0.0375616
0.0378182
0.0381072
0.0384294
0.0388253
0.0394507
0.0395148
0.000912805
9.11274e-07
2.94028e-06
2.05001e-05
8.83396e-05
0.000353062
0.00105042
0.00148294
0.00247629
0.00987095
0.00556425
0.00843385
0.0118486
0.0155093
0.0190407
0.0221907
0.0249081
0.0272431
0.029177
0.0306925
0.0318363
0.0326749
0.0332655
0.0336661
0.0339484
0.0342196
0.0345275
0.0348311
0.0350941
0.035328
0.0355398
0.0357311
0.0359106
0.0360808
0.0362495
0.0364134
0.036577
0.0367522
0.0369369
0.0371317
0.0373459
0.037572
0.0378201
0.0381014
0.0384143
0.038801
0.0397232
0.0371229
0.000412602
9.10153e-07
2.90409e-06
1.68704e-05
8.33274e-05
0.000259026
0.000849399
0.00221044
0.00277948
0.00427405
0.0149053
0.00839698
0.0118304
0.015481
0.0190123
0.0221591
0.0248742
0.0272068
0.0291396
0.0306532
0.0317984
0.0326342
0.0332223
0.0336208
0.0339031
0.0341703
0.0344759
0.0347725
0.0350327
0.0352606
0.0354643
0.035652
0.035823
0.0359891
0.0361461
0.0363063
0.0364596
0.0366161
0.0367816
0.0369598
0.0371514
0.0373589
0.0375806
0.0378196
0.0380871
0.0383951
0.0387656
0.0401108
0.0333316
0.000193648
9.09233e-07
2.89845e-06
1.66465e-05
6.83717e-05
0.000242928
0.000618271
0.00177991
0.00417447
0.00473367
0.00680761
0.0202884
0.0117766
0.0154602
0.0189826
0.0221288
0.0248413
0.027172
0.0291042
0.030617
0.0317591
0.0325956
0.0331848
0.0335811
0.0338576
0.0341208
0.0344243
0.0347186
0.0349738
0.0351968
0.0353978
0.0355793
0.035747
0.0359047
0.0360579
0.0362059
0.0363499
0.0364967
0.03665
0.0368076
0.0369811
0.0371658
0.0373626
0.0375794
0.037812
0.0380689
0.0383613
0.0387065
0.0404145
0.0289034
0.000112155
9.07883e-07
2.89448e-06
1.65861e-05
6.74412e-05
0.00020024
0.000576453
0.00128361
0.00335998
0.00715773
0.00740404
0.0100164
0.0251197
0.0153895
0.0189592
0.0220986
0.0248105
0.0271382
0.0290699
0.0305813
0.0317234
0.0325603
0.0331455
0.0335415
0.0338179
0.034077
0.0343763
0.0346664
0.034917
0.0351398
0.0353333
0.0355098
0.0356744
0.0358287
0.0359737
0.0361154
0.036253
0.0363878
0.0365308
0.0366777
0.036829
0.0369946
0.0371733
0.0373662
0.0375702
0.0377971
0.0380434
0.0383168
0.0386195
0.0404959
0.024629
7.71144e-05
9.06682e-07
2.88905e-06
1.65497e-05
6.71144e-05
0.000197403
0.000479405
0.00118922
0.00239677
0.00579076
0.0111299
0.0107023
0.0136377
0.0288972
0.0188748
0.0220746
0.0247788
0.0271075
0.0290379
0.0305482
0.0316908
0.0325249
0.0331114
0.0335051
0.0337796
0.0340373
0.0343346
0.0346208
0.0348671
0.0350827
0.035276
0.0354479
0.0356069
0.0357537
0.0358953
0.0360317
0.0361627
0.0362916
0.0364235
0.0365579
0.036699
0.0368469
0.0370063
0.0371795
0.0373665
0.037562
0.0377739
0.0380063
0.0382604
0.0385814
0.0402662
0.0204592
5.49248e-05
9.05737e-07
2.88413e-06
1.65043e-05
6.69254e-05
0.00019626
0.000472376
0.00100358
0.00221109
0.004096
0.00911503
0.0156386
0.0143411
0.0172902
0.0316185
0.0219792
0.0247553
0.0270755
0.0290066
0.0305173
0.0316578
0.0324916
0.0330791
0.0334708
0.0337455
0.0340012
0.0342925
0.0345788
0.0348211
0.0350351
0.0352216
0.0353883
0.0355426
0.0356892
0.0358227
0.0359508
0.0360765
0.0362018
0.0363255
0.0364512
0.0365777
0.0367139
0.0368577
0.0370122
0.0371792
0.0373569
0.0375451
0.0377423
0.0379589
0.0381891
0.0387656
0.0396633
0.0162454
4.02914e-05
9.05128e-07
2.8804e-06
1.64617e-05
6.67025e-05
0.000195613
0.000469295
0.000988547
0.00190378
0.00378755
0.00647218
0.0130547
0.0199624
0.0179406
0.0206346
0.0335199
0.0246502
0.027052
0.0289756
0.030486
0.031627
0.0324606
0.0330459
0.033438
0.0337108
0.0339648
0.0342542
0.0345383
0.0347788
0.0349888
0.0351738
0.0353382
0.0354861
0.0356237
0.0357555
0.0358811
0.0360012
0.0361184
0.0362361
0.0363512
0.0364729
0.0365983
0.0367254
0.0368636
0.0370098
0.0371716
0.0373405
0.0375185
0.0377044
0.0378977
0.0380916
0.0391568
0.0385451
0.0120392
3.32358e-05
9.03269e-07
2.87791e-06
1.64305e-05
6.64886e-05
0.000194872
0.000467592
0.000981595
0.00187532
0.00333173
0.00603164
0.00950132
0.017062
0.0235621
0.0211864
0.0235036
0.0348487
0.0269404
0.0289517
0.0304562
0.0315958
0.0324305
0.0330144
0.0334084
0.0336775
0.0339317
0.0342193
0.0344996
0.0347407
0.0349465
0.0351264
0.0352872
0.0354332
0.0355697
0.0356958
0.0358136
0.0359288
0.0360441
0.0361541
0.0362631
0.036377
0.036492
0.03661
0.0367303
0.0368665
0.037006
0.0371591
0.0373222
0.0374862
0.0376551
0.0378218
0.0379602
0.0395349
0.0365756
0.00801449
2.84047e-05
7.70363e-07
2.8718e-06
1.64096e-05
6.6334e-05
0.000194156
0.000465656
0.000977814
0.00186164
0.00328334
0.00541718
0.00894198
0.0129779
0.020643
0.0263128
0.0239634
0.0259323
0.035788
0.0288357
0.0304324
0.0315668
0.0324012
0.0329854
0.0333776
0.0336474
0.0338979
0.0341861
0.0344648
0.0347019
0.0349058
0.0350819
0.0352403
0.0353822
0.0355145
0.0356385
0.0357546
0.0358618
0.0359721
0.0360767
0.0361811
0.0362872
0.0363954
0.0365066
0.0366155
0.0367356
0.0368601
0.0370006
0.037143
0.0372943
0.0374431
0.0375903
0.0377215
0.0378644
0.0397076
0.0333007
0.00454282
2.0931e-05
1.7715e-07
2.39452e-06
1.63711e-05
6.62326e-05
0.000193641
0.000463777
0.00097359
0.00185403
0.00325914
0.00534245
0.00819357
0.012344
0.0165637
0.0235906
0.0283571
0.0263628
0.0279773
0.0364628
0.030311
0.0315432
0.032371
0.0329586
0.0333478
0.0336184
0.0338677
0.034154
0.0344311
0.0346665
0.0348688
0.0350438
0.0351976
0.0353379
0.0354658
0.035586
0.0356943
0.0357998
0.0359051
0.0360077
0.0361075
0.0362095
0.03631
0.0364085
0.0365123
0.0366198
0.0367345
0.0368538
0.0369857
0.0371201
0.0372538
0.0373857
0.0375044
0.0375903
0.0379626
0.039522
0.0288134
0.00198043
1.24004e-05
7.26561e-08
7.76894e-07
1.33313e-05
6.60625e-05
0.000193306
0.00046244
0.000969398
0.00184581
0.0032457
0.0053046
0.00809051
0.0115256
0.0159164
0.0199247
0.0259451
0.0298938
0.0283984
0.0296023
0.0369558
0.0314174
0.03235
0.0329275
0.0333207
0.033588
0.033836
0.034121
0.0344008
0.0346327
0.0348333
0.0350086
0.0351594
0.0352979
0.0354219
0.0355376
0.0356443
0.0357453
0.0358432
0.0359442
0.0360394
0.0361337
0.0362273
0.036322
0.0364205
0.0365174
0.0366212
0.0367248
0.0368447
0.0369616
0.0370859
0.0372051
0.0373137
0.0374017
0.0374273
0.0382801
0.0388648
0.023817
0.000573493
5.16094e-06
9.25945e-08
2.45096e-07
5.35669e-06
5.36197e-05
0.000192777
0.000461561
0.000966459
0.00183765
0.00323113
0.0052841
0.00803822
0.0114004
0.01511
0.0193176
0.0228593
0.0278297
0.0312484
0.0299903
0.0308052
0.0373209
0.032221
0.0329078
0.0332905
0.0335602
0.0338089
0.0340906
0.0343673
0.0346019
0.0348012
0.0349724
0.0351218
0.0352561
0.0353785
0.0354899
0.0355927
0.0356925
0.0357891
0.0358825
0.0359734
0.0360631
0.0361492
0.0362403
0.0363323
0.0364224
0.0365205
0.0366163
0.0367177
0.036823
0.0369346
0.0370461
0.0371493
0.0372275
0.0372688
0.0372691
0.0386363
0.0375925
0.018512
0.0001386
6.36852e-07
7.50363e-08
2.72704e-07
1.38175e-06
2.22045e-05
0.000156144
0.000460243
0.00096449
0.00183182
0.0032169
0.00526135
0.00801025
0.0113366
0.0149752
0.0185888
0.0223251
0.0253533
0.0294224
0.032644
0.0311885
0.0316601
0.0375938
0.0327763
0.0332702
0.0335335
0.0337807
0.0340637
0.034339
0.0345723
0.0347681
0.0349411
0.0350883
0.0352183
0.0353394
0.0354494
0.0355479
0.0356438
0.0357359
0.0358224
0.035912
0.0359972
0.0360825
0.0361668
0.036253
0.0363377
0.0364258
0.0365154
0.0366053
0.0367008
0.0367958
0.0368965
0.036994
0.0370734
0.0371189
0.0371002
0.0372446
0.0388142
0.0352762
0.0128897
5.0135e-05
1.73677e-06
6.66115e-08
2.29157e-07
1.4186e-06
4.25142e-06
6.57876e-05
0.00037198
0.000961648
0.00182805
0.00320675
0.00523922
0.00797929
0.0113027
0.0149067
0.0184583
0.0216991
0.0249108
0.0274698
0.0308983
0.0338255
0.032058
0.0322447
0.0378738
0.0331414
0.033513
0.0337537
0.0340365
0.0343088
0.0345435
0.0347385
0.0349073
0.0350536
0.0351848
0.0353045
0.0354104
0.0355076
0.0355992
0.0356901
0.0357728
0.0358549
0.0359361
0.0360176
0.0360987
0.0361814
0.0362603
0.036341
0.0364229
0.0365053
0.0365866
0.0366752
0.0367624
0.0368465
0.0369247
0.0369793
0.0369803
0.0368898
0.037432
0.0386002
0.0311955
0.00763138
2.3323e-05
3.2769e-06
6.2241e-08
2.11574e-07
1.2543e-06
5.56459e-06
1.00224e-05
0.000159285
0.000775722
0.00182269
0.00320035
0.00522357
0.00794857
0.0112647
0.0148698
0.0183904
0.0215796
0.024373
0.0271204
0.0292135
0.0321809
0.034561
0.0326673
0.0326613
0.0382673
0.0333876
0.0337328
0.034007
0.0342839
0.0345134
0.0347092
0.0348769
0.0350243
0.0351519
0.0352705
0.0353753
0.0354711
0.0355581
0.0356456
0.0357242
0.0358025
0.0358828
0.0359602
0.0360344
0.036111
0.0361873
0.036264
0.0363426
0.0364153
0.0364892
0.0365647
0.0366432
0.0367176
0.0367897
0.0368422
0.0368632
0.0368059
0.0366882
0.0377017
0.0377279
0.0256944
0.00349334
7.93371e-06
1.79072e-06
5.98937e-08
2.00634e-07
1.20252e-06
4.98632e-06
1.58875e-05
2.22268e-05
0.000338025
0.00146867
0.00319132
0.00521361
0.00792755
0.0112266
0.0148275
0.0183545
0.021517
0.0242666
0.0266722
0.0289382
0.0305928
0.033101
0.034966
0.0330599
0.0330519
0.0386327
0.0336119
0.0339877
0.0342534
0.0344856
0.0346804
0.0348478
0.0349969
0.0351229
0.0352374
0.0353411
0.0354331
0.035522
0.0356022
0.0356824
0.0357539
0.0358308
0.0359043
0.035978
0.0360482
0.0361188
0.0361936
0.0362623
0.0363338
0.0364043
0.036472
0.0365405
0.0366019
0.0366629
0.0367156
0.0367421
0.0367134
0.036584
0.0366586
0.0378397
0.0358608
0.0198868
0.00100795
3.066e-07
6.10652e-07
5.98044e-08
1.94427e-07
1.15543e-06
4.81046e-06
1.43763e-05
3.72176e-05
4.40498e-05
0.00065339
0.00257318
0.0051998
0.00791315
0.0112015
0.0147861
0.0183125
0.0214829
0.0242104
0.0265794
0.028586
0.0303627
0.0316323
0.0336832
0.0351746
0.0333169
0.033437
0.0387538
0.0338682
0.0342341
0.0344573
0.0346526
0.0348213
0.0349678
0.0350927
0.0352056
0.0353082
0.0353987
0.0354836
0.0355625
0.0356387
0.0357096
0.0357828
0.0358527
0.0359226
0.0359897
0.0360575
0.0361238
0.0361918
0.036258
0.0363222
0.0363831
0.0364459
0.0365036
0.0365533
0.0365994
0.0366257
0.0366151
0.036527
0.0363351
0.0368213
0.0376442
0.032611
0.0137903
0.000164642
1.36973e-06
2.14627e-07
6.09291e-08
1.9436e-07
1.12668e-06
4.63357e-06
1.39209e-05
3.39986e-05
7.6658e-05
7.90038e-05
0.00117524
0.00420737
0.0078938
0.0111833
0.0147573
0.0182721
0.0214432
0.0241801
0.0265317
0.02851
0.0300779
0.0314394
0.0323583
0.0340256
0.0353001
0.0335556
0.0337792
0.0386724
0.0341135
0.0344373
0.0346241
0.0347924
0.0349384
0.035063
0.0351748
0.0352762
0.0353656
0.0354493
0.0355272
0.0355994
0.0356724
0.0357382
0.0358047
0.0358715
0.0359354
0.0359972
0.0360649
0.0361278
0.0361879
0.0362487
0.0363028
0.0363614
0.0364082
0.0364532
0.0364929
0.0365186
0.0365138
0.0364555
0.0362953
0.0361787
0.0370132
0.0368608
0.0276096
0.00768563
2.32507e-05
1.50127e-06
1.93565e-07
6.32178e-08
1.97924e-07
1.12752e-06
4.52476e-06
1.3431e-05
3.30331e-05
7.07128e-05
0.000144456
0.000131421
0.00198901
0.00643439
0.0111584
0.0147381
0.0182423
0.0214061
0.0241446
0.0265078
0.0284722
0.0300213
0.0312042
0.0322127
0.0328353
0.0342348
0.035385
0.0338234
0.0340678
0.0385727
0.0343185
0.0346062
0.0347637
0.0349112
0.0350355
0.0351443
0.0352449
0.0353363
0.0354189
0.0354929
0.035564
0.0356331
0.0356952
0.0357614
0.0358244
0.035885
0.0359439
0.0360058
0.0360646
0.0361245
0.0361802
0.0362325
0.0362832
0.0363277
0.0363682
0.0363968
0.0364165
0.0364158
0.0363728
0.0362584
0.0360227
0.0362202
0.0370462
0.035007
0.0215288
0.00295436
2.07748e-06
7.54872e-07
2.20625e-07
6.62749e-08
2.05066e-07
1.14795e-06
4.53098e-06
1.31309e-05
3.19206e-05
6.89352e-05
0.000134604
0.000255023
0.000204975
0.00317892
0.00919893
0.0147112
0.0182238
0.0213784
0.0241105
0.0264753
0.0284508
0.0299911
0.0311615
0.0320193
0.0327383
0.033145
0.0344341
0.035497
0.034075
0.0343184
0.0385677
0.034485
0.0347459
0.0348818
0.0350091
0.0351175
0.035217
0.035305
0.0353868
0.0354627
0.0355294
0.0355976
0.0356591
0.0357208
0.0357777
0.0358384
0.0358946
0.0359543
0.0360079
0.0360637
0.036117
0.0361627
0.0362116
0.0362551
0.036288
0.0363141
0.0363258
0.0363223
0.0362882
0.0361994
0.0360047
0.0358145
0.0363732
0.0366835
0.0313706
0.0150537
0.000623453
6.21623e-07
2.03711e-07
2.5467e-07
6.95402e-08
2.14589e-07
1.18823e-06
4.61577e-06
1.31575e-05
3.12452e-05
6.67171e-05
0.000131661
0.00024015
0.00042788
0.000301019
0.0047918
0.0123016
0.018198
0.0213614
0.0240866
0.0264441
0.0284204
0.0299738
0.0311391
0.0319887
0.0325825
0.0330767
0.0334039
0.0346872
0.0356708
0.03429
0.0345361
0.0386386
0.0346227
0.0348618
0.0349822
0.0350906
0.0351897
0.0352799
0.0353582
0.0354297
0.035499
0.035566
0.0356239
0.0356819
0.0357418
0.0357957
0.035849
0.0359032
0.0359547
0.036006
0.0360568
0.0361046
0.0361482
0.0361824
0.0362128
0.0362373
0.0362461
0.036237
0.0362057
0.0361325
0.0359812
0.0357157
0.0357923
0.0364509
0.0354992
0.0259786
0.00844554
7.45834e-05
9.61055e-07
1.59063e-07
3.03876e-07
7.24293e-08
2.24628e-07
1.24162e-06
4.77996e-06
1.34128e-05
3.13309e-05
6.53888e-05
0.000127626
0.000235675
0.000407327
0.000687811
0.000416389
0.00678846
0.0154574
0.0213364
0.0240687
0.0264234
0.0283929
0.0299482
0.0311231
0.0319683
0.0325633
0.0329514
0.0333164
0.0336976
0.0349469
0.0358503
0.0344686
0.034731
0.0387058
0.0347389
0.0349609
0.0350637
0.0351628
0.0352526
0.0353302
0.0354041
0.0354697
0.035533
0.0355929
0.0356471
0.0357027
0.0357534
0.035807
0.0358585
0.0359048
0.035955
0.0360024
0.0360418
0.0360858
0.0361217
0.0361484
0.0361682
0.0361737
0.0361678
0.0361335
0.0360679
0.0359421
0.0357086
0.0354949
0.0358938
0.0362288
0.0328222
0.0196667
0.00312805
6.67963e-06
8.98629e-07
1.27861e-07
3.48892e-07
7.48715e-08
2.33361e-07
1.29711e-06
4.99578e-06
1.38984e-05
3.19617e-05
6.56216e-05
0.000125253
0.000228825
0.000401081
0.000662104
0.00106266
0.000531203
0.00902348
0.0184302
0.0240458
0.0264048
0.0283736
0.0299251
0.0310983
0.0319589
0.0325478
0.0329412
0.0332006
0.0335628
0.033988
0.0351643
0.0359941
0.0346093
0.0349084
0.0387487
0.0348338
0.0350449
0.0351321
0.035225
0.0352998
0.0353729
0.0354409
0.0355033
0.0355592
0.0356128
0.0356682
0.0357184
0.0357655
0.0358143
0.0358621
0.0359076
0.0359509
0.0359912
0.0360286
0.0360599
0.0360845
0.0361056
0.0361095
0.0360995
0.0360666
0.0360014
0.0358927
0.0357006
0.0354057
0.0354479
0.0359433
0.0353127
0.0280152
0.0128113
0.000599193
3.62765e-07
4.58172e-07
3.11256e-08
3.71686e-07
7.69137e-08
2.40548e-07
1.34462e-06
5.21912e-06
1.45309e-05
3.31415e-05
6.69927e-05
0.000125807
0.000224899
0.000390079
0.000654085
0.0010347
0.00157659
0.000600023
0.0112912
0.0210872
0.026385
0.0283627
0.0299113
0.0310868
0.031941
0.0325459
0.0329381
0.0331888
0.0334339
0.0338341
0.03423
0.035349
0.036106
0.0347267
0.0350722
0.0387714
0.0349135
0.0351139
0.0351945
0.0352751
0.035345
0.0354127
0.0354742
0.0355298
0.0355829
0.0356343
0.0356812
0.0357282
0.0357739
0.0358188
0.0358599
0.0359055
0.0359393
0.0359763
0.0360087
0.0360287
0.0360467
0.0360506
0.0360364
0.0360052
0.0359424
0.0358403
0.0356741
0.0353934
0.0351973
0.0355065
0.0357232
0.0329888
0.0218927
0.0061335
5.75328e-05
6.97168e-07
2.07366e-07
4.51162e-08
3.94396e-07
7.86997e-08
2.46466e-07
1.38269e-06
5.41029e-06
1.51828e-05
3.46613e-05
6.95142e-05
0.000128535
0.000226086
0.000383957
0.00063725
0.00102517
0.00155309
0.00223602
0.000545546
0.0134133
0.022209
0.0283456
0.0299027
0.0310777
0.0319317
0.0325387
0.0329341
0.0331913
0.0334126
0.0336999
0.0340764
0.0344336
0.0355048
0.0361954
0.0348278
0.0352225
0.0387766
0.0349843
0.0351762
0.0352472
0.0353203
0.0353877
0.0354463
0.0355041
0.0355533
0.0356042
0.0356507
0.0356941
0.0357368
0.0357795
0.0358185
0.0358594
0.0358943
0.0359286
0.0359546
0.0359784
0.0359917
0.0359936
0.0359824
0.0359499
0.0358928
0.0357959
0.0356425
0.0354015
0.0350894
0.0351487
0.0355011
0.0348285
0.0284842
0.0151973
0.00168022
1.991e-06
4.14074e-07
1.44878e-07
5.41873e-08
4.32391e-07
8.04161e-08
2.51636e-07
1.41346e-06
5.56326e-06
1.57413e-05
3.6221e-05
7.27259e-05
0.000133471
0.000231175
0.000386316
0.00062818
0.00100054
0.00154253
0.00222961
0.00300967
0.000277051
0.0152816
0.0230186
0.0298864
0.0310671
0.0319216
0.0325261
0.0329242
0.0331848
0.0334095
0.0336708
0.0339499
0.034277
0.0346082
0.0356378
0.0362641
0.0349154
0.0353691
0.0387668
0.0350425
0.0352288
0.0352926
0.0353602
0.0354187
0.0354756
0.0355248
0.0355752
0.0356212
0.0356614
0.0357041
0.0357437
0.0357804
0.0358165
0.0358513
0.0358798
0.0359054
0.0359277
0.0359372
0.035941
0.0359267
0.0358977
0.0358412
0.0357546
0.0356142
0.0353943
0.0350786
0.0349111
0.0351655
0.0352063
0.032513
0.0225542
0.00808623
0.00019083
5.30195e-07
7.425e-08
1.35615e-07
4.21086e-08
4.83468e-07
8.23365e-08
2.5677e-07
1.44031e-06
5.68685e-06
1.61881e-05
3.75586e-05
7.60062e-05
0.000139672
0.000240212
0.00039532
0.000632577
0.000987796
0.0015081
0.0022183
0.00304263
0.00381525
0.000232672
0.0168509
0.0236296
0.0310529
0.0319134
0.0325131
0.0329192
0.0331693
0.0334018
0.0336636
0.0339227
0.0341533
0.0344465
0.034755
0.035755
0.0363121
0.0349899
0.0355096
0.0387436
0.0350913
0.0352714
0.0353322
0.0353905
0.0354449
0.0354998
0.0355436
0.0355922
0.0356322
0.0356714
0.0357082
0.0357426
0.035777
0.0358106
0.0358361
0.0358603
0.0358801
0.0358881
0.0358909
0.0358793
0.0358505
0.0357938
0.0357117
0.0355808
0.0353855
0.035088
0.0347919
0.0348723
0.0350836
0.0341675
0.0280086
0.0159633
0.00253922
6.57222e-06
1.78833e-07
6.03815e-08
1.33221e-07
3.58155e-08
5.4969e-07
8.47501e-08
2.62478e-07
1.4679e-06
5.7949e-06
1.655e-05
3.86292e-05
7.88174e-05
0.000145971
0.000251393
0.000410965
0.000647687
0.000995368
0.001491
0.00217234
0.00303012
0.003924
0.00453273
0.000905239
0.0181434
0.0240419
0.0319073
0.0325031
0.0329074
0.0331683
0.0333891