/*--------------------------------*- C++ -*----------------------------------*\
| =========                 |                                                 |
| \\      /  F ield         | OpenFOAM: The Open Source CFD Toolbox           |
|  \\    /   O peration     | Version:  v2012                                 |
|   \\  /    A nd           | Website:  www.openfoam.com                      |
|    \\/     M anipulation  |                                                 |
\*---------------------------------------------------------------------------*/
FoamFile
{
    version     2.0;
    format      ascii;
    class       volScalarField;
    location    "0";
    object      nu;
}
// * * * * * * * * * * * * * * * * * * * * * * * * * * * * * * * * * * * * * //

dimensions      [0 2 -1 0 0 0 0];


internalField   nonuniform List<scalar> 
31383
(
5.72953e-05
5.73894e-05
5.71245e-05
5.74508e-05
5.72453e-05
5.69271e-05
5.74763e-05
5.73123e-05
5.70699e-05
5.66996e-05
5.7485e-05
5.73423e-05
5.71446e-05
5.68593e-05
5.64377e-05
5.74977e-05
5.73543e-05
5.71806e-05
5.6944e-05
5.66073e-05
5.61349e-05
5.75164e-05
5.73702e-05
5.71976e-05
5.6988e-05
5.67047e-05
5.6307e-05
5.57856e-05
5.75283e-05
5.73917e-05
5.72173e-05
5.70108e-05
5.67587e-05
5.64203e-05
5.59489e-05
5.53816e-05
5.753e-05
5.74055e-05
5.72422e-05
5.70354e-05
5.67888e-05
5.64863e-05
5.60816e-05
5.55228e-05
5.49144e-05
5.75365e-05
5.74094e-05
5.72589e-05
5.70643e-05
5.682e-05
5.65259e-05
5.61628e-05
5.56793e-05
5.50174e-05
5.43719e-05
5.75554e-05
5.74174e-05
5.72653e-05
5.70848e-05
5.6854e-05
5.65645e-05
5.62136e-05
5.57786e-05
5.52026e-05
5.44219e-05
5.37404e-05
5.75885e-05
5.74378e-05
5.72755e-05
5.70944e-05
5.68791e-05
5.66051e-05
5.62614e-05
5.58433e-05
5.53236e-05
5.46427e-05
5.37357e-05
5.29797e-05
5.76332e-05
5.74723e-05
5.72978e-05
5.71075e-05
5.68926e-05
5.66356e-05
5.631e-05
5.5902e-05
5.54047e-05
5.4789e-05
5.39948e-05
5.29604e-05
5.20972e-05
5.76837e-05
5.7518e-05
5.73339e-05
5.71321e-05
5.6909e-05
5.66536e-05
5.63473e-05
5.596e-05
5.54767e-05
5.4889e-05
5.41688e-05
5.32601e-05
5.21059e-05
5.10875e-05
5.77294e-05
5.75696e-05
5.73811e-05
5.71701e-05
5.69364e-05
5.66741e-05
5.63709e-05
5.60053e-05
5.55461e-05
5.49765e-05
5.42906e-05
5.34643e-05
5.24475e-05
5.11866e-05
4.98896e-05
5.77712e-05
5.76164e-05
5.74341e-05
5.72192e-05
5.69773e-05
5.67052e-05
5.63966e-05
5.60359e-05
5.56007e-05
5.50588e-05
5.43957e-05
5.36096e-05
5.2683e-05
5.15704e-05
5.02158e-05
4.85925e-05
5.78069e-05
5.76591e-05
5.74819e-05
5.72738e-05
5.70285e-05
5.67492e-05
5.64319e-05
5.60675e-05
5.56397e-05
5.5125e-05
5.44914e-05
5.37336e-05
5.28523e-05
5.18374e-05
5.06424e-05
4.92028e-05
4.71811e-05
5.78353e-05
5.76954e-05
5.75257e-05
5.73234e-05
5.70851e-05
5.68033e-05
5.64796e-05
5.61081e-05
5.56785e-05
5.51735e-05
5.45714e-05
5.38449e-05
5.29961e-05
5.20309e-05
5.0941e-05
4.96733e-05
4.8159e-05
4.56766e-05
5.78579e-05
5.77242e-05
5.7563e-05
5.73683e-05
5.71364e-05
5.68622e-05
5.6537e-05
5.61605e-05
5.57251e-05
5.52206e-05
5.46308e-05
5.39389e-05
5.31242e-05
5.21942e-05
5.11589e-05
5.00033e-05
4.86738e-05
4.70989e-05
4.41209e-05
5.78749e-05
5.77477e-05
5.7593e-05
5.74066e-05
5.7183e-05
5.69158e-05
5.6599e-05
5.6222e-05
5.5783e-05
5.52744e-05
5.46873e-05
5.40105e-05
5.32319e-05
5.23393e-05
5.1342e-05
5.02454e-05
4.90341e-05
4.7657e-05
4.60343e-05
4.2553e-05
5.78865e-05
5.77652e-05
5.7617e-05
5.74379e-05
5.72228e-05
5.69645e-05
5.66551e-05
5.62876e-05
5.58492e-05
5.53381e-05
5.47494e-05
5.40765e-05
5.33164e-05
5.24616e-05
5.1504e-05
5.04485e-05
4.92995e-05
4.80458e-05
4.66348e-05
4.49742e-05
4.10006e-05
5.78937e-05
5.77773e-05
5.76352e-05
5.74631e-05
5.72555e-05
5.70063e-05
5.67063e-05
5.63471e-05
5.59192e-05
5.54106e-05
5.48202e-05
5.41485e-05
5.33929e-05
5.25586e-05
5.16405e-05
5.06272e-05
4.9522e-05
4.83335e-05
4.70506e-05
4.5617e-05
4.39259e-05
3.94658e-05
5.78977e-05
5.77849e-05
5.7648e-05
5.74821e-05
5.72819e-05
5.70403e-05
5.67503e-05
5.6401e-05
5.59825e-05
5.54855e-05
5.48993e-05
5.42269e-05
5.34746e-05
5.26461e-05
5.17501e-05
5.0778e-05
4.97169e-05
4.85744e-05
4.73593e-05
4.60582e-05
4.46112e-05
4.2894e-05
3.79432e-05
5.78993e-05
5.77893e-05
5.76562e-05
5.74957e-05
5.7302e-05
5.70681e-05
5.67866e-05
5.64475e-05
5.604e-05
5.55533e-05
5.49798e-05
5.43128e-05
5.35614e-05
5.27375e-05
5.18484e-05
5.09e-05
4.98816e-05
4.87848e-05
4.76173e-05
4.63865e-05
4.50762e-05
4.36229e-05
4.18816e-05
3.64421e-05
5.79e-05
5.77914e-05
5.76614e-05
5.75048e-05
5.73166e-05
5.70899e-05
5.68161e-05
5.64863e-05
5.60898e-05
5.56148e-05
5.50528e-05
5.43997e-05
5.36541e-05
5.28326e-05
5.19491e-05
5.10091e-05
5.00161e-05
4.89631e-05
4.78423e-05
4.66609e-05
4.54231e-05
4.41104e-05
4.26551e-05
4.08889e-05
3.49729e-05
5.7901e-05
5.77927e-05
5.76641e-05
5.75106e-05
5.73269e-05
5.71057e-05
5.68396e-05
5.65181e-05
5.61312e-05
5.56684e-05
5.51187e-05
5.44782e-05
5.37478e-05
5.29326e-05
5.20522e-05
5.11191e-05
5.01359e-05
4.91094e-05
4.80334e-05
4.68995e-05
4.57126e-05
4.44744e-05
4.31638e-05
4.17082e-05
3.99155e-05
3.35425e-05
5.79012e-05
5.77938e-05
5.76655e-05
5.75139e-05
5.73334e-05
5.71172e-05
5.68571e-05
5.65437e-05
5.61659e-05
5.57134e-05
5.51766e-05
5.4549e-05
5.38323e-05
5.30326e-05
5.21594e-05
5.12301e-05
5.02552e-05
4.92396e-05
4.8191e-05
4.71023e-05
4.5964e-05
4.47781e-05
4.35441e-05
4.22373e-05
4.07787e-05
3.89583e-05
3.21542e-05
5.79002e-05
5.77944e-05
5.76672e-05
5.75163e-05
5.73374e-05
5.71247e-05
5.68695e-05
5.65628e-05
5.61937e-05
5.57509e-05
5.52256e-05
5.46118e-05
5.39084e-05
5.3123e-05
5.22657e-05
5.13444e-05
5.03741e-05
4.93674e-05
4.8331e-05
4.72707e-05
4.6178e-05
4.50413e-05
4.38611e-05
4.26333e-05
4.13279e-05
3.98634e-05
3.80137e-05
3.0809e-05
5.7898e-05
5.77938e-05
5.76683e-05
5.75183e-05
5.73405e-05
5.71296e-05
5.68786e-05
5.65773e-05
5.62151e-05
5.57815e-05
5.52666e-05
5.46645e-05
5.39759e-05
5.32043e-05
5.23616e-05
5.14566e-05
5.04952e-05
4.94938e-05
4.8467e-05
4.74198e-05
4.6356e-05
4.52659e-05
4.41354e-05
4.29628e-05
4.1739e-05
4.04324e-05
3.89615e-05
3.70798e-05
2.95039e-05
5.7894e-05
5.77916e-05
5.76678e-05
5.75197e-05
5.73432e-05
5.71335e-05
5.68849e-05
5.65877e-05
5.62313e-05
5.58055e-05
5.53005e-05
5.47096e-05
5.40329e-05
5.32767e-05
5.24483e-05
5.15584e-05
5.06135e-05
4.96213e-05
4.86004e-05
4.75634e-05
4.65136e-05
4.5453e-05
4.43697e-05
4.32477e-05
4.20807e-05
4.08582e-05
3.95501e-05
3.80722e-05
3.61548e-05
2.82292e-05
5.78878e-05
5.77879e-05
5.76662e-05
5.752e-05
5.73453e-05
5.71371e-05
5.68897e-05
5.65952e-05
5.62436e-05
5.58242e-05
5.53273e-05
5.4747e-05
5.40822e-05
5.33382e-05
5.25253e-05
5.16501e-05
5.07206e-05
4.97457e-05
4.87342e-05
4.77034e-05
4.66645e-05
4.56187e-05
4.45657e-05
4.34911e-05
4.23758e-05
4.12119e-05
3.99903e-05
3.86805e-05
3.71949e-05
3.52374e-05
2.69698e-05
5.78791e-05
5.77821e-05
5.76629e-05
5.75188e-05
5.73462e-05
5.71402e-05
5.68943e-05
5.66015e-05
5.62531e-05
5.58387e-05
5.53488e-05
5.47774e-05
5.41232e-05
5.33916e-05
5.25914e-05
5.17319e-05
5.08173e-05
4.9858e-05
4.88636e-05
4.78428e-05
4.68108e-05
4.57763e-05
4.47388e-05
4.36953e-05
4.26283e-05
4.1517e-05
4.03555e-05
3.91346e-05
3.7823e-05
3.63285e-05
3.43257e-05
2.5724e-05
5.78684e-05
5.77738e-05
5.76573e-05
5.75158e-05
5.73455e-05
5.71415e-05
5.68982e-05
5.66072e-05
5.62609e-05
5.585e-05
5.53659e-05
5.48017e-05
5.41571e-05
5.34364e-05
5.26486e-05
5.18021e-05
5.09037e-05
4.99593e-05
4.89807e-05
4.7977e-05
4.69553e-05
4.59282e-05
4.49027e-05
4.38757e-05
4.28403e-05
4.17782e-05
4.06701e-05
3.95111e-05
3.82907e-05
3.69769e-05
3.54721e-05
3.34179e-05
2.45297e-05
5.78558e-05
5.77631e-05
5.76492e-05
5.75106e-05
5.73431e-05
5.71417e-05
5.69004e-05
5.66121e-05
5.62681e-05
5.58596e-05
5.53794e-05
5.48215e-05
5.41848e-05
5.34738e-05
5.26971e-05
5.18634e-05
5.09781e-05
5.005e-05
4.90864e-05
4.80986e-05
4.7094e-05
4.60775e-05
4.50601e-05
4.40456e-05
4.30277e-05
4.19981e-05
4.09399e-05
3.98351e-05
3.8678e-05
3.74581e-05
3.61412e-05
3.46245e-05
3.25117e-05
2.34097e-05
5.78423e-05
5.77508e-05
5.76389e-05
5.7503e-05
5.73382e-05
5.71397e-05
5.69012e-05
5.66156e-05
5.62744e-05
5.58687e-05
5.53911e-05
5.48376e-05
5.42073e-05
5.35048e-05
5.27382e-05
5.19158e-05
5.10436e-05
5.01285e-05
4.91812e-05
4.82085e-05
4.72197e-05
4.62204e-05
4.52136e-05
4.42078e-05
4.32034e-05
4.21923e-05
4.11673e-05
4.01129e-05
3.90111e-05
3.78558e-05
3.66357e-05
3.53152e-05
3.37848e-05
3.16054e-05
2.23265e-05
5.78283e-05
5.77375e-05
5.7627e-05
5.74928e-05
5.73312e-05
5.71356e-05
5.69e-05
5.66174e-05
5.62789e-05
5.58764e-05
5.5402e-05
5.48516e-05
5.42261e-05
5.35304e-05
5.27723e-05
5.19601e-05
5.10995e-05
5.01977e-05
4.92635e-05
4.8307e-05
4.73331e-05
4.63498e-05
4.53603e-05
4.43655e-05
4.33706e-05
4.23734e-05
4.13679e-05
4.03474e-05
3.92967e-05
3.81978e-05
3.70439e-05
3.5823e-05
3.44983e-05
3.29515e-05
3.06958e-05
2.12492e-05
5.78144e-05
5.77237e-05
5.76139e-05
5.74813e-05
5.73214e-05
5.7129e-05
5.68965e-05
5.6617e-05
5.62817e-05
5.58824e-05
5.54115e-05
5.48644e-05
5.42425e-05
5.35519e-05
5.2801e-05
5.19977e-05
5.11474e-05
5.02572e-05
4.93362e-05
4.83929e-05
4.74351e-05
4.64666e-05
4.5493e-05
4.45158e-05
4.35322e-05
4.25454e-05
4.15545e-05
4.05545e-05
3.95384e-05
3.84909e-05
3.73943e-05
3.62416e-05
3.50198e-05
3.36894e-05
3.21236e-05
2.97802e-05
2.01727e-05
5.78069e-05
5.77101e-05
5.76004e-05
5.74686e-05
5.73103e-05
5.71198e-05
5.68907e-05
5.66145e-05
5.62826e-05
5.58866e-05
5.54192e-05
5.48761e-05
5.42578e-05
5.35709e-05
5.28253e-05
5.20292e-05
5.11881e-05
5.03084e-05
4.93992e-05
4.84688e-05
4.75242e-05
4.65718e-05
4.56131e-05
4.46517e-05
4.3686e-05
4.2711e-05
4.1731e-05
4.07463e-05
3.97515e-05
3.87394e-05
3.76949e-05
3.66003e-05
3.54483e-05
3.42248e-05
3.2888e-05
3.12998e-05
2.88526e-05
1.90925e-05
5.77403e-05
5.77029e-05
5.75871e-05
5.74555e-05
5.7298e-05
5.7109e-05
5.6882e-05
5.66093e-05
5.6281e-05
5.58887e-05
5.54248e-05
5.48854e-05
5.42714e-05
5.35885e-05
5.28468e-05
5.20564e-05
5.12227e-05
5.03521e-05
4.94534e-05
4.85349e-05
4.76034e-05
4.66641e-05
4.57213e-05
4.47749e-05
4.38251e-05
4.2868e-05
4.19005e-05
4.0927e-05
3.99485e-05
3.89584e-05
3.79502e-05
3.69083e-05
3.58153e-05
3.46635e-05
3.34376e-05
3.20931e-05
3.04784e-05
2.79055e-05
1.80058e-05
5.76977e-05
5.76365e-05
5.758e-05
5.74424e-05
5.72851e-05
5.70974e-05
5.68721e-05
5.66014e-05
5.62767e-05
5.58882e-05
5.54282e-05
5.4893e-05
5.42829e-05
5.36043e-05
5.28667e-05
5.20804e-05
5.12526e-05
5.03897e-05
4.95003e-05
4.85921e-05
4.76722e-05
4.67459e-05
4.58163e-05
4.48859e-05
4.39511e-05
4.30103e-05
4.20607e-05
4.11003e-05
4.01334e-05
3.91604e-05
3.81749e-05
3.71698e-05
3.61302e-05
3.50384e-05
3.38863e-05
3.26575e-05
3.1304e-05
2.96579e-05
2.69324e-05
1.69104e-05
5.77415e-05
5.75763e-05
5.75141e-05
5.74355e-05
5.72725e-05
5.7085e-05
5.68608e-05
5.65921e-05
5.627e-05
5.5885e-05
5.54292e-05
5.4898e-05
5.42923e-05
5.36178e-05
5.28846e-05
5.21027e-05
5.12792e-05
5.04222e-05
4.95404e-05
4.86415e-05
4.77323e-05
4.68175e-05
4.59009e-05
4.49834e-05
4.40647e-05
4.31392e-05
4.2206e-05
4.12635e-05
4.03101e-05
3.93494e-05
3.83816e-05
3.74003e-05
3.6398e-05
3.53603e-05
3.42693e-05
3.31165e-05
3.18839e-05
3.05193e-05
2.88364e-05
2.59271e-05
1.58069e-05
5.77485e-05
5.76357e-05
5.74249e-05
5.737e-05
5.7266e-05
5.70729e-05
5.68492e-05
5.65816e-05
5.62614e-05
5.58792e-05
5.54276e-05
5.49005e-05
5.42991e-05
5.3629e-05
5.29001e-05
5.21226e-05
5.13037e-05
5.04515e-05
4.95755e-05
4.86846e-05
4.77844e-05
4.68802e-05
4.5975e-05
4.50705e-05
4.41652e-05
4.32555e-05
4.23376e-05
4.14116e-05
4.04764e-05
3.95294e-05
3.85746e-05
3.76114e-05
3.66339e-05
3.56343e-05
3.45979e-05
3.35073e-05
3.23532e-05
3.11161e-05
2.97386e-05
2.8012e-05
2.48833e-05
1.4699e-05
5.76898e-05
5.7642e-05
5.75083e-05
5.72401e-05
5.72007e-05
5.70668e-05
5.68374e-05
5.65706e-05
5.62516e-05
5.58718e-05
5.54228e-05
5.48999e-05
5.43029e-05
5.36375e-05
5.29134e-05
5.21403e-05
5.13261e-05
5.04782e-05
4.96071e-05
4.8722e-05
4.78297e-05
4.69347e-05
4.60402e-05
4.51471e-05
4.42546e-05
4.33582e-05
4.24562e-05
4.15459e-05
4.06272e-05
3.96987e-05
3.87579e-05
3.78084e-05
3.68496e-05
3.58755e-05
3.48781e-05
3.38428e-05
3.27521e-05
3.15962e-05
3.03534e-05
2.89604e-05
2.71822e-05
2.37949e-05
1.35984e-05
5.77121e-05
5.75792e-05
5.75131e-05
5.73563e-05
5.70159e-05
5.70018e-05
5.68317e-05
5.65596e-05
5.62414e-05
5.58631e-05
5.54165e-05
5.48968e-05
5.43042e-05
5.36432e-05
5.29237e-05
5.21554e-05
5.13458e-05
5.05027e-05
4.9636e-05
4.87557e-05
4.78695e-05
4.69824e-05
4.60969e-05
4.52145e-05
4.43334e-05
4.34501e-05
4.25614e-05
4.16671e-05
4.0764e-05
3.98521e-05
3.89298e-05
3.79949e-05
3.70503e-05
3.60956e-05
3.51244e-05
3.41287e-05
3.30941e-05
3.20031e-05
3.08448e-05
2.95951e-05
2.81836e-05
2.63446e-05
2.26561e-05
1.25278e-05
5.77619e-05
5.76048e-05
5.74431e-05
5.73589e-05
5.71756e-05
5.67462e-05
5.67673e-05
5.65543e-05
5.62312e-05
5.58536e-05
5.5409e-05
5.48917e-05
5.43024e-05
5.36458e-05
5.2931e-05
5.21676e-05
5.13627e-05
5.05243e-05
4.96624e-05
4.87867e-05
4.79053e-05
4.70242e-05
4.61467e-05
4.52735e-05
4.4403e-05
4.35312e-05
4.26556e-05
4.17745e-05
4.08875e-05
3.99912e-05
3.90859e-05
3.81696e-05
3.72399e-05
3.62999e-05
3.53487e-05
3.43801e-05
3.33859e-05
3.23519e-05
3.12597e-05
3.00982e-05
2.88403e-05
2.74068e-05
2.5496e-05
2.14633e-05
1.15236e-05
5.77685e-05
5.76577e-05
5.7475e-05
5.72783e-05
5.71753e-05
5.69609e-05
5.64218e-05
5.64906e-05
5.62264e-05
5.58444e-05
5.54006e-05
5.48853e-05
5.42988e-05
5.36459e-05
5.29355e-05
5.21767e-05
5.13766e-05
5.05431e-05
4.9686e-05
4.88151e-05
4.79384e-05
4.70621e-05
4.61906e-05
4.53253e-05
4.4464e-05
4.3603e-05
4.27389e-05
4.18708e-05
4.09971e-05
4.01171e-05
3.92274e-05
3.8328e-05
3.74172e-05
3.64925e-05
3.55566e-05
3.46088e-05
3.36424e-05
3.26492e-05
3.16151e-05
3.05217e-05
2.93561e-05
2.80883e-05
2.66285e-05
2.46333e-05
2.02166e-05
1.06297e-05
5.77738e-05
5.76653e-05
5.75342e-05
5.73195e-05
5.708e-05
5.69569e-05
5.67063e-05
5.60355e-05
5.61637e-05
5.58406e-05
5.53924e-05
5.48783e-05
5.42938e-05
5.36437e-05
5.29369e-05
5.21828e-05
5.13876e-05
5.05588e-05
4.97066e-05
4.88404e-05
4.79684e-05
4.7097e-05
4.62303e-05
4.53711e-05
4.45179e-05
4.36661e-05
4.28127e-05
4.19564e-05
4.10956e-05
4.0229e-05
3.93553e-05
3.84717e-05
3.75781e-05
3.66723e-05
3.5752e-05
3.48202e-05
3.38751e-05
3.29107e-05
3.19183e-05
3.08838e-05
2.97883e-05
2.86179e-05
2.7338e-05
2.58468e-05
2.37513e-05
1.89246e-05
9.887e-06
5.77731e-05
5.76712e-05
5.75434e-05
5.73881e-05
5.71349e-05
5.68428e-05
5.66976e-05
5.64043e-05
5.55824e-05
5.57785e-05
5.53893e-05
5.48714e-05
5.42879e-05
5.36402e-05
5.29362e-05
5.21859e-05
5.13954e-05
5.05716e-05
4.97241e-05
4.88627e-05
4.79955e-05
4.71288e-05
4.6267e-05
4.54126e-05
4.45656e-05
4.37219e-05
4.28779e-05
4.20322e-05
4.11832e-05
4.03294e-05
3.94693e-05
3.86018e-05
3.77241e-05
3.68354e-05
3.59344e-05
3.50183e-05
3.40899e-05
3.31475e-05
3.21847e-05
3.11927e-05
3.01574e-05
2.90593e-05
2.78828e-05
2.65886e-05
2.50595e-05
2.284e-05
1.76147e-05
9.37655e-06
5.77704e-05
5.76708e-05
5.75501e-05
5.74001e-05
5.72159e-05
5.69147e-05
5.65592e-05
5.63898e-05
5.60468e-05
5.50708e-05
5.53287e-05
5.48691e-05
5.42822e-05
5.36354e-05
5.29342e-05
5.21868e-05
5.14002e-05
5.05811e-05
4.97385e-05
4.88819e-05
4.80195e-05
4.71573e-05
4.63004e-05
4.54509e-05
4.46088e-05
4.37713e-05
4.29354e-05
4.20991e-05
4.12608e-05
4.0419e-05
3.95718e-05
3.87179e-05
3.78562e-05
3.69835e-05
3.60997e-05
3.52029e-05
3.42908e-05
3.33655e-05
3.24255e-05
3.14639e-05
3.04721e-05
2.94353e-05
2.8334e-05
2.71499e-05
2.58384e-05
2.42643e-05
2.18882e-05
1.63374e-05
9.07479e-06
5.77715e-05
5.76681e-05
5.75504e-05
5.74087e-05
5.72316e-05
5.70131e-05
5.66536e-05
5.62219e-05
5.60256e-05
5.56266e-05
5.45115e-05
5.481e-05
5.42809e-05
5.36314e-05
5.29312e-05
5.21863e-05
5.14027e-05
5.05874e-05
4.97496e-05
4.88979e-05
4.80402e-05
4.71828e-05
4.63304e-05
4.54858e-05
4.46486e-05
4.38163e-05
4.29868e-05
4.21586e-05
4.13297e-05
4.04985e-05
3.96632e-05
3.88223e-05
3.79742e-05
3.71176e-05
3.625e-05
3.53706e-05
3.44779e-05
3.35691e-05
3.26468e-05
3.17087e-05
3.07481e-05
2.9756e-05
2.87173e-05
2.76118e-05
2.64185e-05
2.50862e-05
2.34583e-05
2.0889e-05
1.51377e-05
8.88386e-06
5.77702e-05
5.76693e-05
5.75481e-05
5.74095e-05
5.7243e-05
5.70335e-05
5.67734e-05
5.63438e-05
5.58252e-05
5.55977e-05
5.51379e-05
5.39225e-05
5.42241e-05
5.3631e-05
5.29283e-05
5.21848e-05
5.14036e-05
5.05916e-05
4.97577e-05
4.89106e-05
4.80578e-05
4.72051e-05
4.63574e-05
4.55174e-05
4.46851e-05
4.38575e-05
4.30332e-05
4.22115e-05
4.13911e-05
4.05692e-05
3.97446e-05
3.89156e-05
3.80803e-05
3.72377e-05
3.6386e-05
3.55228e-05
3.46476e-05
3.37584e-05
3.28531e-05
3.19332e-05
3.09968e-05
3.00369e-05
2.9044e-05
2.8003e-05
2.68922e-05
2.56878e-05
2.43303e-05
2.26382e-05
1.98394e-05
1.40099e-05
8.7441e-06
5.77721e-05
5.76683e-05
5.75494e-05
5.74077e-05
5.72447e-05
5.70483e-05
5.68e-05
5.64901e-05
5.59787e-05
5.53667e-05
5.51017e-05
5.45802e-05
5.33194e-05
5.35766e-05
5.29293e-05
5.21833e-05
5.14035e-05
5.0594e-05
4.97633e-05
4.89201e-05
4.80719e-05
4.7224e-05
4.6381e-05
4.55456e-05
4.47179e-05
4.38954e-05
4.30761e-05
4.22596e-05
4.14456e-05
4.06321e-05
3.98172e-05
3.89988e-05
3.81754e-05
3.73456e-05
3.65079e-05
3.56607e-05
3.48017e-05
3.39303e-05
3.30447e-05
3.21422e-05
3.12246e-05
3.02895e-05
2.933e-05
2.83358e-05
2.72915e-05
2.61742e-05
2.49564e-05
2.35687e-05
2.18004e-05
1.87392e-05
1.29428e-05
8.63883e-06
5.77727e-05
5.76702e-05
5.75486e-05
5.74092e-05
5.72435e-05
5.70515e-05
5.68194e-05
5.65247e-05
5.61554e-05
5.55534e-05
5.485e-05
5.45373e-05
5.39589e-05
5.27121e-05
5.28774e-05
5.21853e-05
5.14038e-05
5.05954e-05
4.97672e-05
4.89273e-05
4.80828e-05
4.72396e-05
4.64014e-05
4.55707e-05
4.47477e-05
4.39297e-05
4.31154e-05
4.23039e-05
4.14953e-05
4.06884e-05
3.98817e-05
3.9073e-05
3.82605e-05
3.74425e-05
3.66177e-05
3.57845e-05
3.49415e-05
3.40864e-05
3.32184e-05
3.23358e-05
3.14361e-05
3.05205e-05
2.95865e-05
2.86268e-05
2.76309e-05
2.65826e-05
2.54574e-05
2.42232e-05
2.27991e-05
2.09357e-05
1.75907e-05
1.19452e-05
8.56009e-06
5.77694e-05
5.76709e-05
5.75507e-05
5.74088e-05
5.72455e-05
5.7051e-05
5.68241e-05
5.6549e-05
5.61994e-05
5.57624e-05
5.50667e-05
5.42835e-05
5.39098e-05
5.32824e-05
5.21041e-05
5.2137e-05
5.14068e-05
5.05969e-05
4.977e-05
4.89328e-05
4.80914e-05
4.7252e-05
4.64184e-05
4.55923e-05
4.4774e-05
4.39607e-05
4.3151e-05
4.23446e-05
4.15409e-05
4.07394e-05
3.99394e-05
3.91391e-05
3.83364e-05
3.75292e-05
3.67162e-05
3.5896e-05
3.5067e-05
3.42279e-05
3.33763e-05
3.25116e-05
3.16319e-05
3.07346e-05
2.98207e-05
2.88874e-05
2.79272e-05
2.69288e-05
2.58755e-05
2.47404e-05
2.34865e-05
2.20186e-05
2.00315e-05
1.64003e-05
1.10291e-05
8.49739e-06
5.77692e-05
5.76677e-05
5.75515e-05
5.74112e-05
5.72452e-05
5.70533e-05
5.68245e-05
5.6556e-05
5.62301e-05
5.58166e-05
5.53047e-05
5.45226e-05
5.36786e-05
5.32286e-05
5.25633e-05
5.14961e-05
5.13622e-05
5.06012e-05
4.97731e-05
4.8937e-05
4.80984e-05
4.7262e-05
4.64321e-05
4.56106e-05
4.47967e-05
4.39885e-05
4.31833e-05
4.23815e-05
4.15828e-05
4.07864e-05
3.99921e-05
3.91985e-05
3.8404e-05
3.76068e-05
3.68046e-05
3.59962e-05
3.51802e-05
3.43551e-05
3.35197e-05
3.26714e-05
3.18096e-05
3.09326e-05
3.00373e-05
2.9125e-05
2.8192e-05
2.72306e-05
2.62292e-05
2.51695e-05
2.40225e-05
2.27446e-05
2.12239e-05
1.90779e-05
1.5183e-05
1.02131e-05
8.43837e-06
5.76115e-05
5.76676e-05
5.75486e-05
5.7412e-05
5.7248e-05
5.70536e-05
5.68272e-05
5.65574e-05
5.62393e-05
5.58543e-05
5.53705e-05
5.47805e-05
5.3928e-05
5.30437e-05
5.25051e-05
5.18117e-05
5.08856e-05
5.05606e-05
4.97784e-05
4.89414e-05
4.81038e-05
4.72701e-05
4.64435e-05
4.56256e-05
4.48163e-05
4.40125e-05
4.3212e-05
4.2415e-05
4.1621e-05
4.08298e-05
4.00404e-05
3.92523e-05
3.84649e-05
3.7676e-05
3.68836e-05
3.60862e-05
3.5282e-05
3.447e-05
3.36485e-05
3.28164e-05
3.19712e-05
3.11121e-05
3.02374e-05
2.93441e-05
2.84328e-05
2.74997e-05
2.65367e-05
2.55311e-05
2.44637e-05
2.33022e-05
2.19952e-05
2.04114e-05
1.80703e-05
1.39714e-05
9.52317e-06
8.38853e-06
4.69877e-05
5.75226e-05
5.75487e-05
5.74092e-05
5.72493e-05
5.70567e-05
5.68282e-05
5.65608e-05
5.62421e-05
5.58663e-05
5.54154e-05
5.4858e-05
5.41924e-05
5.32915e-05
5.23845e-05
5.17478e-05
5.10344e-05
5.02702e-05
4.9742e-05
4.89476e-05
4.81097e-05
4.72771e-05
4.6453e-05
4.56383e-05
4.48328e-05
4.40333e-05
4.32373e-05
4.24449e-05
4.16557e-05
4.08691e-05
4.00849e-05
3.93021e-05
3.85202e-05
3.77382e-05
3.69544e-05
3.61667e-05
3.53735e-05
3.45734e-05
3.3765e-05
3.2947e-05
3.21179e-05
3.12756e-05
3.04189e-05
2.95463e-05
2.86545e-05
2.7744e-05
2.68103e-05
2.5845e-05
2.48342e-05
2.37573e-05
2.2578e-05
2.1236e-05
1.95729e-05
1.70089e-05
1.28185e-05
8.98868e-06
8.35498e-06
3.2104e-05
4.7096e-05
5.7419e-05
5.74098e-05
5.72464e-05
5.70584e-05
5.6832e-05
5.65625e-05
5.62463e-05
5.58706e-05
5.54303e-05
5.49089e-05
5.42803e-05
5.35475e-05
5.26201e-05
5.17046e-05
5.09611e-05
5.02411e-05
4.96471e-05
4.89157e-05
4.8117e-05
4.72842e-05
4.64611e-05
4.56488e-05
4.48466e-05
4.40508e-05
4.32594e-05
4.24713e-05
4.16867e-05
4.09048e-05
4.01254e-05
3.93478e-05
3.85711e-05
3.77949e-05
3.70179e-05
3.62389e-05
3.54557e-05
3.46665e-05
3.38701e-05
3.30651e-05
3.225e-05
3.14238e-05
3.05841e-05
2.97296e-05
2.88587e-05
2.79684e-05
2.70581e-05
2.61234e-05
2.51547e-05
2.41376e-05
2.30488e-05
2.1848e-05
2.04636e-05
1.86953e-05
1.58992e-05
1.17588e-05
8.66082e-06
8.33833e-06
2.90574e-05
3.22227e-05
4.7197e-05
5.72979e-05
5.72475e-05
5.7056e-05
5.6834e-05
5.6567e-05
5.62489e-05
5.58761e-05
5.54366e-05
5.49273e-05
5.43355e-05
5.3644e-05
5.28555e-05
5.19215e-05
5.10063e-05
5.01561e-05
4.94407e-05
4.90134e-05
4.80897e-05
4.72924e-05
4.64695e-05
4.56583e-05
4.48585e-05
4.40658e-05
4.32781e-05
4.24946e-05
4.17144e-05
4.09371e-05
4.01623e-05
3.93895e-05
3.8618e-05
3.7847e-05
3.70758e-05
3.63038e-05
3.55292e-05
3.47502e-05
3.39646e-05
3.31715e-05
3.23697e-05
3.15576e-05
3.0734e-05
2.98965e-05
2.90442e-05
2.81749e-05
2.72854e-05
2.63749e-05
2.54383e-05
2.44654e-05
2.34401e-05
2.23372e-05
2.111e-05
1.96745e-05
1.77679e-05
1.47505e-05
1.07972e-05
8.51531e-06
8.33425e-06
2.77549e-05
2.90489e-05
3.2336e-05
4.72876e-05
5.71567e-05
5.70572e-05
5.68318e-05
5.65693e-05
5.62542e-05
5.58796e-05
5.54428e-05
5.49352e-05
5.43572e-05
5.37011e-05
5.29581e-05
5.21264e-05
5.1202e-05
5.02856e-05
4.93416e-05
4.86428e-05
4.83663e-05
4.727e-05
4.64784e-05
4.56679e-05
4.4869e-05
4.40789e-05
4.32943e-05
4.25144e-05
4.17386e-05
4.09658e-05
4.01957e-05
3.94274e-05
3.86606e-05
3.78949e-05
3.71293e-05
3.63631e-05
3.55956e-05
3.48249e-05
3.40496e-05
3.32675e-05
3.24777e-05
3.16787e-05
3.08693e-05
3.0048e-05
2.92127e-05
2.83622e-05
2.74941e-05
2.66052e-05
2.56939e-05
2.47547e-05
2.37763e-05
2.27411e-05
2.16206e-05
2.03618e-05
1.88623e-05
1.67841e-05
1.35805e-05
9.96415e-06
8.43776e-06
8.33757e-06
2.7171e-05
2.77347e-05
2.90398e-05
3.2443e-05
4.73688e-05
5.69914e-05
5.68338e-05
5.65677e-05
5.62572e-05
5.58858e-05
5.54476e-05
5.49426e-05
5.43667e-05
5.37253e-05
5.30149e-05
5.22323e-05
5.13676e-05
5.04635e-05
4.95422e-05
4.85261e-05
4.7853e-05
4.77038e-05
4.6461e-05
4.56778e-05
4.48798e-05
4.40906e-05
4.33086e-05
4.25318e-05
4.17597e-05
4.09913e-05
4.02255e-05
3.94618e-05
3.86998e-05
3.79388e-05
3.71784e-05
3.64177e-05
3.5656e-05
3.48927e-05
3.41259e-05
3.33539e-05
3.2575e-05
3.17881e-05
3.09918e-05
3.01848e-05
2.93659e-05
2.85326e-05
2.76834e-05
2.68161e-05
2.59273e-05
2.50146e-05
2.40718e-05
2.30864e-05
2.20389e-05
2.08971e-05
1.95999e-05
1.80153e-05
1.57434e-05
1.24303e-05
9.29668e-06
8.39035e-06
8.34619e-06
2.68072e-05
2.71448e-05
2.77142e-05
2.90298e-05
3.2545e-05
4.74401e-05
5.67974e-05
5.65703e-05
5.6256e-05
5.58893e-05
5.54549e-05
5.49483e-05
5.4375e-05
5.37367e-05
5.30413e-05
5.2287e-05
5.14735e-05
5.05862e-05
4.97066e-05
4.87866e-05
4.77164e-05
4.70757e-05
4.7021e-05
4.56648e-05
4.48905e-05
4.41026e-05
4.33213e-05
4.25472e-05
4.17781e-05
4.10133e-05
4.02519e-05
3.94928e-05
3.87353e-05
3.79789e-05
3.72234e-05
3.64678e-05
3.57117e-05
3.49543e-05
3.41948e-05
3.34315e-05
3.26628e-05
3.18869e-05
3.11027e-05
3.0309e-05
2.95043e-05
2.86872e-05
2.78554e-05
2.70074e-05
2.61408e-05
2.52512e-05
2.43364e-05
2.33887e-05
2.23945e-05
2.1332e-05
2.01644e-05
1.8821e-05
1.71215e-05
1.46531e-05
1.13729e-05
8.81307e-06
8.36578e-06
8.36042e-06
2.65589e-05
2.6778e-05
2.71185e-05
2.76934e-05
2.90191e-05
3.26427e-05
4.75008e-05
5.65691e-05
5.62591e-05
5.58888e-05
5.54592e-05
5.49571e-05
5.43822e-05
5.37461e-05
5.30541e-05
5.23155e-05
5.15248e-05
5.06893e-05
4.97905e-05
4.89396e-05
4.80269e-05
4.69169e-05
4.63101e-05
4.63148e-05
4.48821e-05
4.41141e-05
4.33344e-05
4.2561e-05
4.17948e-05
4.10329e-05
4.02751e-05
3.95202e-05
3.87671e-05
3.80154e-05
3.72644e-05
3.65138e-05
3.57629e-05
3.50111e-05
3.42577e-05
3.35017e-05
3.27417e-05
3.1976e-05
3.1203e-05
3.04212e-05
2.96298e-05
2.88271e-05
2.80118e-05
2.71814e-05
2.63342e-05
2.54674e-05
2.45767e-05
2.36586e-05
2.27047e-05
2.16997e-05
2.06188e-05
1.94198e-05
1.8017e-05
1.61734e-05
1.3532e-05
1.04382e-05
8.53545e-06
8.36293e-06
8.37102e-06
2.63556e-05
2.6528e-05
2.67487e-05
2.70917e-05
2.7672e-05
2.90075e-05
3.27366e-05
4.75496e-05
5.63002e-05
5.58928e-05
5.54591e-05
5.49619e-05
5.43919e-05
5.37544e-05
5.30642e-05
5.23293e-05
5.15545e-05
5.07353e-05
4.98888e-05
4.89887e-05
4.8171e-05
4.72687e-05
4.61308e-05
4.55545e-05
4.55893e-05
4.41101e-05
4.33466e-05
4.25751e-05
4.18095e-05
4.10505e-05
4.02958e-05
3.95444e-05
3.87955e-05
3.80483e-05
3.73018e-05
3.65559e-05
3.58099e-05
3.50634e-05
3.43156e-05
3.35656e-05
3.28132e-05
3.20563e-05
3.12934e-05
3.05228e-05
2.97435e-05
2.8954e-05
2.81533e-05
2.73393e-05
2.65099e-05
2.56631e-05
2.47958e-05
2.3903e-05
2.29805e-05
2.20186e-05
2.10001e-05
1.98968e-05
1.86599e-05
1.71756e-05
1.51684e-05
1.24115e-05
9.63258e-06
8.4235e-06
8.36446e-06
8.37637e-06
2.61954e-05
2.63245e-05
2.64971e-05
2.67191e-05
2.70642e-05
2.76496e-05
2.89948e-05
3.28265e-05
4.75835e-05
5.59831e-05
5.54642e-05
5.49625e-05
5.43975e-05
5.37654e-05
5.30738e-05
5.23402e-05
5.15694e-05
5.07656e-05
4.99284e-05
4.90809e-05
4.81881e-05
4.74067e-05
4.65148e-05
4.53585e-05
4.48076e-05
4.48522e-05
4.3347e-05
4.25882e-05
4.18248e-05
4.10664e-05
4.03143e-05
3.95661e-05
3.88208e-05
3.80777e-05
3.73358e-05
3.65943e-05
3.5853e-05
3.51113e-05
3.43688e-05
3.36247e-05
3.28782e-05
3.21288e-05
3.13748e-05
3.06146e-05
2.98464e-05
2.90691e-05
2.82817e-05
2.74824e-05
2.66697e-05
2.58409e-05
2.49938e-05
2.41252e-05
2.32294e-05
2.23011e-05
2.13293e-05
2.02941e-05
1.91635e-05
1.78793e-05
1.62858e-05
1.41108e-05
1.13434e-05
9.01243e-06
8.38304e-06
8.3687e-06
8.37949e-06
2.60579e-05
2.61637e-05
2.62933e-05
2.64659e-05
2.66887e-05
2.70356e-05
2.7626e-05
2.89806e-05
3.29127e-05
4.76003e-05
5.56113e-05
5.49686e-05
5.43991e-05
5.37717e-05
5.30855e-05
5.23506e-05
5.15806e-05
5.07811e-05
4.99585e-05
4.91132e-05
4.82724e-05
4.73952e-05
4.66502e-05
4.5767e-05
4.45967e-05
4.407e-05
4.41089e-05
4.25927e-05
4.18384e-05
4.10826e-05
4.03312e-05
3.95857e-05
3.88434e-05
3.8104e-05
3.73661e-05
3.66291e-05
3.58923e-05
3.51553e-05
3.44176e-05
3.3679e-05
3.29383e-05
3.21951e-05
3.14487e-05
3.06973e-05
2.99395e-05
2.91735e-05
2.83981e-05
2.76122e-05
2.68143e-05
2.60024e-05
2.51739e-05
2.4326e-05
2.34553e-05
2.25552e-05
2.16193e-05
2.0635e-05
1.95795e-05
1.84158e-05
1.70673e-05
1.53405e-05
1.30177e-05
1.03896e-05
8.61705e-06
8.37191e-06
8.37142e-06
8.38179e-06
2.594e-05
2.60257e-05
2.61318e-05
2.62618e-05
2.64339e-05
2.66573e-05
2.70054e-05
2.76007e-05
2.8965e-05
3.29943e-05
4.75959e-05
5.51798e-05
5.44062e-05
5.37736e-05
5.30927e-05
5.23632e-05
5.1592e-05
5.07927e-05
4.99742e-05
4.91425e-05
4.82977e-05
4.74704e-05
4.66137e-05
4.59024e-05
4.5025e-05
4.38449e-05
4.33404e-05
4.33626e-05
4.18473e-05
4.1097e-05
4.03485e-05
3.96035e-05
3.88642e-05
3.81276e-05
3.73934e-05
3.66605e-05
3.59281e-05
3.51957e-05
3.44627e-05
3.37288e-05
3.29936e-05
3.22562e-05
3.1516e-05
3.07722e-05
3.00234e-05
2.92678e-05
2.85037e-05
2.77302e-05
2.69457e-05
2.61487e-05
2.53371e-05
2.45082e-05
2.36588e-05
2.27851e-05
2.18794e-05
2.09339e-05
1.9934e-05
1.88538e-05
1.7649e-05
1.62114e-05
1.43376e-05
1.19271e-05
9.57983e-06
8.44594e-06
8.37229e-06
8.37258e-06
8.38359e-06
2.58346e-05
2.59073e-05
2.59933e-05
2.60995e-05
2.62294e-05
2.64008e-05
2.66242e-05
2.69733e-05
2.75733e-05
2.89473e-05
3.3071e-05
4.75664e-05
5.46863e-05
5.37817e-05
5.30951e-05
5.23708e-05
5.16054e-05
5.08048e-05
4.99861e-05
4.91582e-05
4.83255e-05
4.7488e-05
4.66784e-05
4.58448e-05
4.51607e-05
4.4287e-05
4.31023e-05
4.26186e-05
4.26135e-05
4.111e-05
4.03635e-05
3.96219e-05
3.8883e-05
3.81492e-05
3.7418e-05
3.66887e-05
3.59604e-05
3.52322e-05
3.45039e-05
3.37747e-05
3.30443e-05
3.23124e-05
3.15781e-05
3.08407e-05
3.00995e-05
2.93529e-05
2.85994e-05
2.78371e-05
2.70649e-05
2.62816e-05
2.54853e-05
2.46736e-05
2.38436e-05
2.29919e-05
2.21137e-05
2.12007e-05
2.02432e-05
1.92241e-05
1.81136e-05
1.6853e-05
1.53025e-05
1.32846e-05
1.09025e-05
8.95297e-06
8.39159e-06
8.37345e-06
8.37311e-06
8.38426e-06
2.57414e-05
2.58015e-05
2.58745e-05
2.59604e-05
2.60663e-05
2.61957e-05
2.6366e-05
2.65893e-05
2.69388e-05
2.75436e-05
2.89274e-05
3.31411e-05
4.75094e-05
5.4132e-05
5.31041e-05
5.23739e-05
5.16136e-05
5.08188e-05
4.99988e-05
4.91701e-05
4.83406e-05
4.7514e-05
4.66885e-05
4.58995e-05
4.50863e-05
4.44239e-05
4.35515e-05
4.23686e-05
4.1904e-05
4.18626e-05
4.03806e-05
3.96376e-05
3.89022e-05
3.8169e-05
3.74406e-05
3.67142e-05
3.59895e-05
3.52654e-05
3.45414e-05
3.38167e-05
3.3091e-05
3.23641e-05
3.16352e-05
3.09038e-05
3.0169e-05
2.94301e-05
2.86858e-05
2.7934e-05
2.71733e-05
2.64024e-05
2.56198e-05
2.48235e-05
2.40113e-05
2.31794e-05
2.23243e-05
2.14402e-05
2.05177e-05
1.95453e-05
1.85028e-05
1.73543e-05
1.60153e-05
1.43355e-05
1.22077e-05
9.99799e-06
8.57289e-06
8.379e-06
8.37567e-06
8.37367e-06
8.38443e-06
2.56579e-05
2.5708e-05
2.57682e-05
2.58412e-05
2.59266e-05
2.6032e-05
2.61603e-05
2.63293e-05
2.65519e-05
2.69016e-05
2.75109e-05
2.89048e-05
3.32039e-05
4.74208e-05
5.35218e-05
5.23837e-05
5.16172e-05
5.08273e-05
5.00133e-05
4.91831e-05
4.83526e-05
4.75288e-05
4.67121e-05
4.59023e-05
4.51323e-05
4.43363e-05
4.36917e-05
4.28192e-05
4.16438e-05
4.11955e-05
4.11106e-05
3.96587e-05
3.89186e-05
3.81893e-05
3.74613e-05
3.67376e-05
3.6016e-05
3.52956e-05