/*--------------------------------*- C++ -*----------------------------------*\
| =========                 |                                                 |
| \\      /  F ield         | OpenFOAM: The Open Source CFD Toolbox           |
|  \\    /   O peration     | Version:  v2012                                 |
|   \\  /    A nd           | Website:  www.openfoam.com                      |
|    \\/     M anipulation  |                                                 |
\*---------------------------------------------------------------------------*/
FoamFile
{
    version     2.0;
    format      ascii;
    class       volScalarField;
    location    "2000";
    object      nut;
}
// * * * * * * * * * * * * * * * * * * * * * * * * * * * * * * * * * * * * * //

dimensions      [0 2 -1 0 0 0 0];


internalField   nonuniform List<scalar> 
31383
(
4.33084e-11
4.81788e-11
4.2656e-11
4.47331e-11
9.0986e-11
7.87996e-11
4.21856e-11
8.36518e-11
1.08448e-09
3.53108e-10
4.0331e-11
7.82284e-11
9.89156e-10
8.37281e-09
1.52769e-09
3.88379e-11
7.42996e-11
9.18666e-10
7.63197e-09
4.00291e-08
5.31488e-09
3.75771e-11
7.1151e-11
8.67766e-10
7.08412e-09
3.64901e-08
1.42108e-07
1.56014e-08
3.65188e-11
6.85114e-11
8.27099e-10
6.68864e-09
3.38721e-08
1.29617e-07
4.13753e-07
4.05678e-08
3.5628e-11
6.62952e-11
7.93173e-10
6.37273e-09
3.19818e-08
1.20367e-07
3.77892e-07
1.04182e-06
9.6587e-08
3.48507e-11
6.44336e-11
7.64681e-10
6.10928e-09
3.04715e-08
1.13682e-07
3.51264e-07
9.53912e-07
2.33364e-06
2.15124e-07
3.41647e-11
6.28222e-11
7.40785e-10
5.88803e-09
2.92119e-08
1.08338e-07
3.31989e-07
8.88311e-07
2.14543e-06
4.71926e-06
4.54264e-07
3.35398e-11
6.1399e-11
7.20211e-10
5.70248e-09
2.8154e-08
1.0388e-07
3.16564e-07
8.40691e-07
2.0038e-06
4.36392e-06
8.69066e-06
9.16229e-07
3.29735e-11
6.01033e-11
7.02033e-10
5.54279e-09
2.72667e-08
1.00134e-07
3.03683e-07
8.02498e-07
1.90053e-06
4.09313e-06
8.09535e-06
1.46861e-05
1.77046e-06
3.24562e-11
5.89304e-11
6.85489e-10
5.4017e-09
2.65031e-08
9.69914e-08
2.92851e-07
7.70545e-07
1.81742e-06
3.89449e-06
7.63383e-06
1.37921e-05
2.29907e-05
3.27772e-06
3.19915e-11
5.78595e-11
6.70525e-10
5.27331e-09
2.58284e-08
9.42856e-08
2.83754e-07
7.43638e-07
1.74767e-06
3.73381e-06
7.29292e-06
1.30849e-05
2.17699e-05
3.37238e-05
5.79774e-06
3.1572e-11
5.69028e-11
6.56869e-10
5.15719e-09
2.52144e-08
9.18951e-08
2.75918e-07
7.21006e-07
1.68884e-06
3.5983e-06
7.01546e-06
1.25589e-05
2.07818e-05
3.21829e-05
4.62013e-05
9.77255e-06
3.11994e-11
5.60421e-11
6.44715e-10
5.05123e-09
2.46592e-08
8.97192e-08
2.68994e-07
7.01493e-07
1.6392e-06
3.48378e-06
6.77991e-06
1.21278e-05
2.00417e-05
3.09006e-05
4.46239e-05
6.07133e-05
1.57073e-05
3.08635e-11
5.52774e-11
6.33806e-10
4.95695e-09
2.41525e-08
8.77516e-08
2.62687e-07
6.84237e-07
1.59634e-06
3.38676e-06
6.58064e-06
1.17592e-05
1.94313e-05
2.99338e-05
4.32087e-05
5.8933e-05
7.80715e-05
2.40408e-05
3.05638e-11
5.45924e-11
6.24112e-10
4.87234e-09
2.37016e-08
8.59556e-08
2.56985e-07
6.68505e-07
1.5584e-06
3.30277e-06
6.41074e-06
1.14467e-05
1.8906e-05
2.91332e-05
4.21393e-05
5.72323e-05
7.60768e-05
9.87199e-05
3.50429e-05
3.02929e-11
5.39799e-11
6.15468e-10
4.79716e-09
2.3297e-08
8.4357e-08
2.51778e-07
6.54284e-07
1.52373e-06
3.22838e-06
6.26306e-06
1.11785e-05
1.84585e-05
2.84394e-05
4.12578e-05
5.59294e-05
7.4022e-05
9.65322e-05
0.00012296
4.86202e-05
3.00505e-11
5.3431e-11
6.07726e-10
4.73013e-09
2.29374e-08
8.29225e-08
2.47143e-07
6.41288e-07
1.49241e-06
3.16016e-06
6.13229e-06
1.09443e-05
1.80727e-05
2.78445e-05
4.04531e-05
5.48452e-05
7.24467e-05
9.40771e-05
0.0001207
0.000151186
6.33403e-05
2.98324e-11
5.29401e-11
6.00828e-10
4.67009e-09
2.26169e-08
8.16476e-08
2.42982e-07
6.29711e-07
1.46375e-06
3.09866e-06
6.01191e-06
1.07373e-05
1.77339e-05
2.733e-05
3.97058e-05
5.39008e-05
7.11333e-05
9.22085e-05
0.000117843
0.000149042
0.00018379
7.78139e-05
2.96367e-11
5.24998e-11
5.94663e-10
4.61661e-09
2.23298e-08
8.05108e-08
2.39282e-07
6.19308e-07
1.4382e-06
3.04222e-06
5.9036e-06
1.05458e-05
1.74353e-05
2.68763e-05
3.90587e-05
5.30798e-05
6.99972e-05
9.06455e-05
0.00011565
0.000145749
0.000182027
0.000221128
9.33441e-05
2.946e-11
5.2105e-11
5.89144e-10
4.56881e-09
2.2074e-08
7.94925e-08
2.35982e-07
6.10056e-07
1.41521e-06
2.99183e-06
5.80387e-06
1.03735e-05
1.7158e-05
2.64767e-05
3.84863e-05
5.23724e-05
6.90166e-05
8.92873e-05
0.000113813
0.000143207
0.000178281
0.000220123
0.000263514
0.000110268
2.92991e-11
5.17497e-11
5.84199e-10
4.52603e-09
2.18454e-08
7.85855e-08
2.33025e-07
6.01797e-07
1.39476e-06
2.94634e-06
5.71463e-06
1.02145e-05
1.69081e-05
2.61051e-05
3.79813e-05
5.17401e-05
6.81741e-05
8.81159e-05
0.000112213
0.00014107
0.000175364
0.000215925
0.000263681
0.000311184
0.000128503
2.91513e-11
5.14262e-11
5.7976e-10
4.48771e-09
2.16408e-08
7.77745e-08
2.3039e-07
5.94394e-07
1.37648e-06
2.9059e-06
5.63381e-06
1.0072e-05
1.66777e-05
2.577e-05
3.75129e-05
5.11783e-05
6.74189e-05
8.71048e-05
0.000110827
0.000139204
0.000172896
0.000212609
0.000259056
0.000312533
0.000364094
0.000147767
2.90156e-11
5.1129e-11
5.75717e-10
4.45331e-09
2.14575e-08
7.70483e-08
2.28033e-07
5.87793e-07
1.36008e-06
2.86967e-06
5.56205e-06
9.94255e-06
1.64704e-05
2.54614e-05
3.70898e-05
5.06613e-05
6.67468e-05
8.6205e-05
0.000109624
0.000137585
0.000170736
0.000209793
0.000255344
0.000307566
0.000365034
0.000421413
0.000167717
2.88911e-11
5.0857e-11
5.72003e-10
4.42198e-09
2.1293e-08
7.63978e-08
2.25923e-07
5.81888e-07
1.34544e-06
2.83714e-06
5.49744e-06
9.82777e-06
1.62816e-05
2.5183e-05
3.67007e-05
5.01979e-05
6.613e-05
8.53999e-05
0.000108562
0.000136172
0.000168874
0.000207318
0.000252176
0.000303508
0.000359915
0.000423466
0.000483641
0.000187716
2.87765e-11
5.06077e-11
5.68611e-10
4.39321e-09
2.11431e-08
7.5814e-08
2.24032e-07
5.76599e-07
1.33234e-06
2.80809e-06
5.43941e-06
9.72377e-06
1.61142e-05
2.49288e-05
3.63492e-05
4.97708e-05
6.55753e-05
8.46657e-05
0.000107613
0.000134922
0.000167238
0.000205188
0.000249381
0.000300024
0.000355666
0.000418149
0.000488569
0.000551957
0.000206415
2.86711e-11
5.03788e-11
5.65506e-10
4.36692e-09
2.10055e-08
7.52822e-08
2.22335e-07
5.71855e-07
1.32059e-06
2.78204e-06
5.3875e-06
9.63046e-06
1.59619e-05
2.4703e-05
3.60278e-05
4.93862e-05
6.50697e-05
8.40003e-05
0.000106742
0.000133817
0.000165786
0.000203322
0.000246967
0.00029694
0.000351999
0.00041359
0.000483191
0.000560913
0.0006266
0.000221581
2.85739e-11
5.01688e-11
5.62658e-10
4.34287e-09
2.08798e-08
7.47936e-08
2.20789e-07
5.67596e-07
1.31005e-06
2.75866e-06
5.34091e-06
9.54661e-06
1.58253e-05
2.44971e-05
3.57417e-05
4.90345e-05
6.46081e-05
8.3397e-05
0.000105954
0.000132797
0.000164502
0.000201655
0.000244862
0.000294264
0.000348753
0.000409608
0.000478356
0.000555676
0.000641097
0.000707736
0.000231716
2.84852e-11
4.99763e-11
5.60052e-10
4.32081e-09
2.07647e-08
7.43474e-08
2.19368e-07
5.63715e-07
1.30058e-06
2.73766e-06
5.29902e-06
9.47127e-06
1.5702e-05
2.43123e-05
3.54804e-05
4.87209e-05
6.41874e-05
8.28453e-05
0.000105238
0.000131878
0.000163322
0.000200174
0.000242973
0.000291934
0.000345919
0.000406067
0.000474066
0.000550622
0.000636296
0.000729744
0.00079542
0.000242005
2.84038e-11
4.98008e-11
5.57671e-10
4.30062e-09
2.06591e-08
7.39389e-08
2.18069e-07
5.60148e-07
1.29195e-06
2.71879e-06
5.26134e-06
9.40343e-06
1.55912e-05
2.41449e-05
3.52457e-05
4.84351e-05
6.38121e-05
8.23415e-05
0.000104588
0.000131039
0.000162259
0.000198822
0.000241289
0.000289836
0.000343442
0.000402968
0.000470226
0.000546042
0.000631113
0.000725795
0.00082748
0.000889554
0.000265935
2.83287e-11
4.96405e-11
5.55505e-10
4.28219e-09
2.05625e-08
7.35641e-08
2.16881e-07
5.56889e-07
1.28401e-06
2.70156e-06
5.22744e-06
9.34231e-06
1.54911e-05
2.39944e-05
3.50324e-05
4.81777e-05
6.34692e-05
8.18927e-05
0.000103992
0.00013028
0.000161285
0.000197603
0.000239754
0.000287963
0.000341213
0.000400252
0.000466857
0.000541907
0.000626273
0.00072061
0.000824962
0.000934917
0.00098982
0.000281287
2.82585e-11
4.94926e-11
5.53529e-10
4.26541e-09
2.04743e-08
7.32212e-08
2.15791e-07
5.53904e-07
1.27676e-06
2.68572e-06
5.19647e-06
9.28727e-06
1.54008e-05
2.38581e-05
3.48403e-05
4.79414e-05
6.31591e-05
8.14811e-05
0.000103461
0.000129585
0.000160406
0.000196485
0.000238369
0.000286259
0.00033922
0.000397804
0.000463896
0.000538265
0.000621851
0.000715561
0.000819965
0.000934632
0.00105263
0.00109557
0.000276283
2.81929e-11
4.93547e-11
5.51709e-10
4.25012e-09
2.0394e-08
7.29079e-08
2.14794e-07
5.51165e-07
1.27011e-06
2.67124e-06
5.16797e-06
9.23691e-06
1.53193e-05
2.37348e-05
3.46659e-05
4.77297e-05
6.28775e-05
8.11096e-05
0.000102974
0.000128964
0.000159603
0.000195477
0.000237106
0.00028472
0.000337415
0.000395612
0.00046122
0.000535054
0.00061794
0.000710876
0.000814787
0.000930094
0.00105568
0.00118113
0.00120574
0.000264113
2.81267e-11
4.92262e-11
5.50015e-10
4.23602e-09
2.03209e-08
7.26227e-08
2.13882e-07
5.4866e-07
1.26401e-06
2.65796e-06
5.1419e-06
9.19054e-06
1.52447e-05
2.36235e-05
3.4508e-05
4.75362e-05
6.26229e-05
8.07724e-05
0.000102534
0.000128394
0.000158882
0.000194556
0.000235965
0.000283324
0.000335792
0.000393628
0.000458822
0.000532145
0.00061448
0.000706707
0.000809878
0.000924901
0.00105198
0.00118899
0.0013208
0.00131804
0.000244908
2.80718e-11
4.90953e-11
5.48435e-10
4.22291e-09
2.02534e-08
7.23628e-08
2.13053e-07
5.46369e-07
1.25843e-06
2.64577e-06
5.11798e-06
9.1481e-06
1.51759e-05
2.35214e-05
3.4365e-05
4.73626e-05
6.23901e-05
8.04657e-05
0.000102132
0.000127879
0.000158222
0.000193731
0.000234922
0.000282061
0.000334323
0.000391845
0.00045665
0.000529532
0.000611332
0.000703001
0.000805467
0.000919825
0.00104693
0.00118665
0.00133546
0.00147185
0.00142383
0.000219232
2.81661e-11
4.8989e-11
5.46817e-10
4.21069e-09
2.01907e-08
7.21233e-08
2.12296e-07
5.44284e-07
1.25332e-06
2.63459e-06
5.09599e-06
9.10911e-06
1.51129e-05
2.34271e-05
3.4234e-05
4.72028e-05
6.21792e-05
8.01862e-05
0.000101767
0.000127407
0.000157625
0.000192972
0.000233986
0.000280905
0.000332988
0.000390233
0.0004547
0.000527165
0.000608498
0.000699613
0.000801524
0.000915207
0.00104177
0.00118199
0.00133521
0.00149596
0.00163422
0.00152212
0.000188145
4.62564e-11
4.89031e-11
5.45524e-10
4.19815e-09
2.01323e-08
7.19004e-08
2.11598e-07
5.42379e-07
1.24867e-06
2.62437e-06
5.07583e-06
9.07325e-06
1.50549e-05
2.33406e-05
3.41129e-05
4.70577e-05
6.19882e-05
7.99314e-05
0.000101435
0.000126979
0.000157078
0.000192285
0.000233125
0.000279866
0.000331767
0.000388769
0.000452937
0.00052504
0.000605929
0.000696554
0.000797903
0.000911048
0.001037
0.00117687
0.00133125
0.00149876
0.00167128
0.00180754
0.00161106
0.000153338
2.9921e-11
2.09893e-10
5.42012e-10
4.18815e-09
2.00724e-08
7.16928e-08
2.10948e-07
5.40622e-07
1.24442e-06
2.61504e-06
5.0573e-06
9.04032e-06
1.50015e-05
2.32611e-05
3.40019e-05
4.69223e-05
6.18127e-05
7.97013e-05
0.000101132
0.00012659
0.00015658
0.000191657
0.000232346
0.000278912
0.000330669
0.000387429
0.000451339
0.000523121
0.000603623
0.000693778
0.000794619
0.000907205
0.00103266
0.00117202
0.00132636
0.00149597
0.00167846
0.00186209
0.00199095
0.0016881
0.000117232
3.03904e-11
6.25195e-11
3.19586e-09
4.15962e-09
2.00245e-08
7.148e-08
2.10343e-07
5.38986e-07
1.2405e-06
2.60652e-06
5.04041e-06
9.00999e-06
1.49525e-05
2.31879e-05
3.38996e-05
4.67989e-05
6.16488e-05
7.94886e-05
0.000100857
0.000126234
0.000156127
0.000191083
0.000231633
0.000278046
0.000329657
0.000386224
0.000449875
0.000521382
0.000601542
0.000691286
0.000791634
0.000903702
0.00102862
0.00116755
0.00132154
0.00149154
0.00167745
0.00187543
0.00206888
0.00218302
0.00174995
8.28024e-05
3.58766e-11
6.74832e-11
7.81955e-10
2.39345e-08
1.9887e-08
7.131e-08
2.09723e-07
5.37463e-07
1.23684e-06
2.59864e-06
5.02497e-06
8.98229e-06
1.49073e-05
2.31205e-05
3.38052e-05
4.6685e-05
6.14999e-05
7.92927e-05
0.000100604
0.000125909
0.000155714
0.00019056
0.00023098
0.000277252
0.000328737
0.000385112
0.000448557
0.000519789
0.000599658
0.000689039
0.000788953
0.000900508
0.00102491
0.00116334
0.00131701
0.0014869
0.00167381
0.00187702
0.00209072
0.00229185
0.00238159
0.00179308
5.3179e-05
3.26902e-11
1.07818e-10
8.87683e-10
6.09991e-09
1.10836e-07
7.08179e-08
2.09228e-07
5.35901e-07
1.23343e-06
2.5913e-06
5.01068e-06
8.9569e-06
1.48661e-05
2.30582e-05
3.37181e-05
4.65799e-05
6.13619e-05
7.91126e-05
0.000100371
0.000125611
0.000155335
0.000190085
0.000230383
0.000276524
0.000327889
0.000384101
0.000447341
0.000518355
0.000597931
0.000687006
0.000786534
0.000897634
0.00102151
0.00115944
0.00131267
0.00148242
0.00166957
0.00187465
0.00209605
0.00232531
0.00253078
0.00258361
0.00181445
3.08139e-05
2.89774e-11
8.7636e-11
1.6618e-09
7.01719e-09
2.91002e-08
3.84679e-07
2.07777e-07
5.34656e-07
1.22992e-06
2.58444e-06
4.99734e-06
8.93342e-06
1.48281e-05
2.30014e-05
3.36376e-05
4.64823e-05
6.12347e-05
7.8946e-05
0.000100155
0.000125336
0.000154987
0.000189648
0.000229841
0.000275857
0.000327112
0.000383167
0.000446234
0.00051703
0.000596375
0.000685142
0.000784351
0.000895045
0.00101845
0.00115585
0.00130862
0.00147804
0.00166529
0.0018711
0.00209557
0.00233586
0.00257993
0.00278493
0.00278495
0.00181246
1.64647e-05
2.83128e-11
6.32169e-11
1.25994e-09
1.32182e-08
3.3973e-08
1.02614e-07
1.10414e-06
5.30932e-07
1.22713e-06
2.57735e-06
4.98489e-06
8.91145e-06
1.47928e-05
2.29489e-05
3.35639e-05
4.63924e-05
6.11168e-05
7.87924e-05
9.99569e-05
0.000125082
0.000154666
0.000189246
0.000229343
0.00027525
0.000326398
0.000382311
0.000445211
0.000515822
0.00059494
0.000683461
0.000782347
0.00089271
0.00101569
0.00115261
0.00130487
0.00147388
0.00166096
0.00186721
0.0020931
0.00233812
0.00259773
0.00285506
0.00305282
0.00298023
0.00178845
8.75543e-06
2.7685e-11
6.00808e-11
7.94151e-10
9.83445e-09
6.39044e-08
1.21531e-07
2.98595e-07
2.75945e-06
1.21856e-06
2.57172e-06
4.97204e-06
8.89092e-06
1.47598e-05
2.28999e-05
3.34958e-05
4.63097e-05
6.1008e-05
7.86505e-05
9.9773e-05
0.000124849
0.00015437
0.000188875
0.000228884
0.000274693
0.000325746
0.000381524
0.000444272
0.000514706
0.000593627
0.000681909
0.000780537
0.000890567
0.00101321
0.00114969
0.00130146
0.00147
0.00165677
0.00186308
0.00208989
0.00233728
0.00260385
0.00288275
0.00315075
0.00333206
0.00315243
0.00174946
5.19206e-06
2.75624e-11
4.8697e-11
7.33281e-10
6.07306e-09
4.69353e-08
2.2867e-07
3.55111e-07
7.56388e-07
6.15135e-06
2.55386e-06
4.9619e-06
8.86978e-06
1.47289e-05
2.28539e-05
3.34321e-05
4.6233e-05
6.09071e-05
7.85186e-05
9.96038e-05
0.000124632
0.000154097
0.000188532
0.00022846
0.000274178
0.000325145
0.000380803
0.000443407
0.00051368
0.000592414
0.000680489
0.000778866
0.000888627
0.00101092
0.00114707
0.0012984
0.00146646
0.00165282
0.00185897
0.00208616
0.0023351
0.00260535
0.00289425
0.0031918
0.00346644
0.00361906
0.00326917
0.00171193
3.76454e-06
2.75163e-11
4.78912e-11
5.37238e-10
5.54956e-09
2.86539e-08
1.66283e-07
6.71366e-07
8.9303e-07
1.71594e-06
1.23166e-05
4.928e-06
8.85322e-06
1.4697e-05
2.28109e-05
3.3372e-05
4.6161e-05
6.08137e-05
7.83962e-05
9.94456e-05
0.000124432
0.000153844
0.000188216
0.000228069
0.000273703
0.000324592
0.00038014
0.000442615
0.000512734
0.000591298
0.000679176
0.000777337
0.000886838
0.00100886
0.00114465
0.00129564
0.00146327
0.00164918
0.00185501
0.00208225
0.00233204
0.00260471
0.00289905
0.00321068
0.00352539
0.00380078
0.00390889
0.00333955
0.0016866
3.27933e-06
2.74838e-11
4.77668e-11
5.27094e-10
4.09506e-09
2.59766e-08
1.00464e-07
4.84531e-07
1.70766e-06
1.9908e-06
3.53865e-06
2.21584e-05
8.79465e-06
1.46721e-05
2.27664e-05
3.33157e-05
4.60931e-05
6.0726e-05
7.8283e-05
9.92996e-05
0.000124245
0.00015361
0.000187924
0.000227707
0.000273264
0.000324079
0.000379527
0.000441884
0.000511867
0.000590267
0.000677965
0.000775922
0.000885199
0.00100695
0.00114246
0.00129309
0.00146039
0.00164589
0.00185133
0.0020784
0.00232855
0.00260267
0.00290062
0.00322006
0.00355429
0.00388351
0.0041514
0.00419491
0.00337015
0.00159038
3.13493e-06
2.74374e-11
4.76887e-11
5.2433e-10
4.01562e-09
1.94825e-08
9.03999e-08
2.89245e-07
1.22625e-06
3.86366e-06
4.01691e-06
6.68607e-06
3.59947e-05
1.45797e-05
2.2732e-05
3.32572e-05
4.6029e-05
6.06432e-05
7.81764e-05
9.91641e-05
0.000124073
0.000153392
0.000187654
0.000227373
0.000272858
0.000323606
0.000378959
0.000441209
0.000511066
0.00058932
0.000676846
0.000774614
0.00088368
0.0010052
0.00114044
0.0012908
0.00145774
0.00164293
0.00184799
0.00207477
0.00232495
0.00259986
0.00290007
0.00322471
0.00356993
0.00392587
0.00426542
0.00451456
0.00446854
0.00336248
0.00138263
3.09627e-06
2.73941e-11
4.75831e-11
5.22778e-10
3.98729e-09
1.90891e-08
6.91315e-08
2.58333e-07
7.21198e-07
2.76951e-06
7.84293e-06
7.43152e-06
1.16398e-05
5.35212e-05
2.25979e-05
3.32127e-05
4.59614e-05
6.05647e-05
7.8075e-05
9.9036e-05
0.000123913
0.000153191
0.000187402
0.000227063
0.000272483
0.000323168
0.000378435
0.000440582
0.000510325
0.000588446
0.000675819
0.000773406
0.000882276
0.00100358
0.00113859
0.00128867
0.00145534
0.0016402
0.00184499
0.00207145
0.00232148
0.00259672
0.0028983
0.0032263
0.00357882
0.00394999
0.00432572
0.00466939
0.00488487
0.00471892
0.00331277
0.00114127
3.08713e-06
2.73611e-11
4.74839e-11
5.20904e-10
3.97188e-09
1.8928e-08
6.76828e-08
2.02323e-07
6.4097e-07
1.60618e-06
5.63764e-06
1.42878e-05
1.2687e-05
1.87978e-05
7.41689e-05
3.30316e-05
4.59117e-05
6.04819e-05
7.79797e-05
9.89138e-05
0.000123761
0.000153003
0.000187169
0.000226775
0.000272135
0.000322762
0.00037795
0.000440005
0.000509636
0.000587635
0.000674868
0.000772296
0.000880974
0.00100208
0.00113686
0.00128671
0.00145312
0.00163772
0.00184222
0.00206846
0.00231827
0.00259356
0.00289589
0.00322604
0.0035834
0.00396467
0.00436123
0.00475344
0.00509243
0.00525493
0.00487518
0.00321551
0.000881156
3.08592e-06
2.73399e-11
4.74106e-11
5.19095e-10
3.95411e-09
1.88418e-08
6.70396e-08
1.97964e-07
5.16183e-07
1.43027e-06
3.25927e-06
1.03589e-05
2.34393e-05
2.01331e-05
2.84202e-05
9.74138e-05
4.5701e-05
6.04213e-05
7.78791e-05
9.87991e-05
0.000123616
0.000152825
0.000186951
0.000226508
0.00027181
0.000322384
0.0003775
0.00043947
0.000509001
0.000586881
0.000673984
0.000771265
0.000879777
0.00100069
0.00113527
0.0012849
0.00145108
0.00163543
0.00183969
0.00206569
0.00231537
0.00259058
0.00289325
0.00322472
0.00358528
0.00397334
0.0043837
0.00480411
0.00520765
0.0055299
0.00561499
0.00493905
0.00307036
0.00061964
3.08692e-06
2.72818e-11
4.73614e-11
5.17798e-10
3.93671e-09
1.87448e-08
6.6699e-08
1.95927e-07
5.04908e-07
1.18395e-06
2.92379e-06
6.09595e-06
1.7243e-05
3.50861e-05
2.99785e-05
4.06519e-05
0.000122881
6.01627e-05
7.7805e-05
9.86783e-05
0.00012348
0.000152655
0.000186744
0.000226258
0.000271509
0.000322032
0.000377082
0.000438973
0.000508414
0.000586187
0.000673164
0.000770306
0.000878667
0.0009994
0.00113379
0.00128321
0.00144918
0.00163331
0.00183735
0.00206317
0.00231267
0.0025879
0.00289069
0.0032229
0.00358554
0.0039782
0.00439794
0.00483701
0.00527837
0.00568566
0.00597508
0.00595265
0.00492625
0.00289138
0.000381734
3.08838e-06
2.32589e-11
4.72594e-11
5.16928e-10
3.92436e-09
1.86493e-08
6.63213e-08
1.94857e-07
4.99451e-07
1.15818e-06
2.48205e-06
5.51853e-06
1.05658e-05
2.63244e-05
4.88592e-05
4.23239e-05
5.4983e-05
0.000150332
7.74885e-05
9.85884e-05
0.000123336
0.000152495
0.000186546
0.00022602
0.000271226
0.000321702
0.000376691
0.000438512
0.000507868
0.000585545
0.000672406
0.000769417
0.000877632
0.000998208
0.00113241
0.00128164
0.00144741
0.00163134
0.00183518
0.00206082
0.00231021
0.00258537
0.00288835
0.00322098
0.00358492
0.00398068
0.00440687
0.00485871
0.0053251
0.00578272
0.00618314
0.00641877
0.00625252
0.00484651
0.00270968
0.000196199
3.0896e-06
5.33194e-12
3.8462e-11
5.15634e-10
3.91621e-09
1.85818e-08
6.59478e-08
1.93685e-07
4.96609e-07
1.14538e-06
2.42922e-06
4.79509e-06
9.65856e-06
1.7061e-05
3.75423e-05
6.45561e-05
5.62343e-05
7.18258e-05
0.000179632
9.82141e-05
0.000123228
0.000152325
0.000186359
0.000225793
0.000270958
0.000321392
0.000376326
0.000438081
0.000507362
0.000584947
0.000671704
0.000768592
0.000876668
0.000997094
0.00113114
0.00128019
0.00144576
0.0016295
0.00183316
0.00205864
0.0023079
0.00258303
0.00288612
0.00321919
0.00358394
0.00398177
0.00441243
0.00487316
0.00535676
0.00584769
0.00631452
0.00669362
0.00684883
0.00642778
0.0047021
0.00253723
8.11468e-05
3.09037e-06
2.27366e-12
1.66488e-11
4.00161e-10
3.90517e-09
1.85377e-08
6.56845e-08
1.92515e-07
4.935e-07
1.13877e-06
2.40252e-06
4.6975e-06
8.57412e-06
1.57469e-05
2.58544e-05
5.09554e-05
8.2207e-05
7.27558e-05
9.2077e-05
0.000210724
0.000122801
0.000152198
0.000186161
0.000225577
0.0002707
0.000321096
0.000375981
0.000437678
0.000506888
0.000584391
0.000671053
0.000767828
0.000875775
0.000996054
0.00112995
0.00127883
0.00144423
0.00162779
0.00183128
0.0020566
0.00230576
0.00258085
0.00288403
0.00321741
0.00358296
0.00398215
0.00441589
0.00488291
0.00537861
0.00589254
0.00640338
0.00686935
0.00720796
0.00724978
0.00646231
0.00448682
0.00221426
2.85154e-05
3.0907e-06
2.81806e-12
5.08888e-12
2.53761e-10
3.01193e-09
1.84811e-08
6.55146e-08
1.91697e-07
4.90415e-07
1.13156e-06
2.38882e-06
4.64759e-06
8.41099e-06
1.42487e-05
2.40731e-05
3.71048e-05
6.67564e-05
0.000101879
9.25745e-05
0.000116381
0.000243622
0.000151709
0.000186013
0.000225348
0.000270454
0.000320811
0.000375652
0.000437297
0.000506445
0.000583873
0.000670449
0.000767123
0.000874949
0.000995093
0.00112883
0.00127757
0.0014428
0.00162619
0.00182951
0.00205469
0.00230375
0.00257881
0.00288207
0.00321572
0.00358187
0.00398233
0.00441818
0.00488963
0.005394
0.00592422
0.00646556
0.00698929
0.00744052
0.00771387
0.00760247
0.00637541
0.00419487
0.00173249
1.01493e-05
3.09086e-06
2.27664e-12
4.32796e-12
6.64075e-11
1.94547e-09
1.42075e-08
6.53026e-08
1.91173e-07
4.88244e-07
1.12437e-06
2.37393e-06
4.62215e-06
8.32685e-06
1.40001e-05
2.21424e-05
3.48054e-05
5.06219e-05
8.51377e-05
0.00012052
0.000116096
0.000145248
0.000278441
0.000185442
0.000225177
0.000270194
0.000320539
0.000375334
0.000436933
0.000506026
0.000583389
0.000669883
0.000766467
0.000874186
0.000994203
0.0011278
0.00127638
0.00144146
0.0016247
0.00182786
0.0020529
0.00230185
0.00257688
0.0028802
0.00321411
0.00358078
0.00398222
0.00441996
0.00489454
0.00540515
0.00594716
0.00651024
0.00707413
0.00760059
0.00801849
0.00819534
0.00783199
0.00618099
0.00385012
0.00122328
4.76098e-06
3.09096e-06
2.01909e-12
3.72361e-12
4.09286e-11
5.03918e-10
9.1359e-09
5.00432e-08
1.90531e-07
4.86861e-07
1.11934e-06
2.35902e-06
4.5945e-06
8.28425e-06
1.38712e-05
2.17924e-05
3.24477e-05
4.76948e-05
6.61372e-05
0.000104379
0.000143693
0.000143843
0.000179167
0.000315423
0.000224497
0.00027
0.00032025
0.000375031
0.00043658
0.000505624
0.000582931
0.000669354
0.000765852
0.000873475
0.000993381
0.00112685
0.00127527
0.0014402
0.00162329
0.00182632
0.00205122
0.00230007
0.00257505
0.00287844
0.00321254
0.00357968
0.00398197
0.00442122
0.00489853
0.00541361
0.00596424
0.00654321
0.00713587
0.00771487
0.00822997
0.00859027
0.00863224
0.00787225
0.00588956
0.00352653
0.000745171
3.34356e-06
3.091e-06
1.88578e-12
3.54429e-12
3.83383e-11
3.04983e-10
2.36386e-09
3.20033e-08
1.45558e-07
4.85202e-07
1.11614e-06
2.34861e-06
4.56673e-06
8.23798e-06
1.38065e-05
2.16102e-05
3.19839e-05
4.50789e-05
6.24951e-05
8.46684e-05
0.000126818
0.000172104
0.000176302
0.000218381
0.000351506
0.00026918
0.000320039
0.000374708
0.000436243
0.000505235
0.000582491
0.000668855
0.000765278
0.000872811
0.000992616
0.00112596
0.00127426
0.00143903
0.00162196
0.00182485
0.00204964
0.00229839
0.00257332
0.00287675
0.00321104
0.00357856
0.00398161
0.00442215
0.00490167
0.00542058
0.00597748
0.00656818
0.00718205
0.00779887
0.00838222
0.008867
0.00913879
0.00900006
0.00774757
0.00551311
0.0032538
0.000369546
3.00247e-06
3.09098e-06
1.81408e-12
3.3985e-12
3.90653e-11
2.88495e-10
1.43898e-09
8.29267e-09
9.27798e-08
3.69706e-07
1.11236e-06
2.34202e-06
4.54735e-06
8.19123e-06
1.37357e-05
2.15196e-05
3.17432e-05
4.45199e-05
5.94208e-05
8.02336e-05
0.00010639
0.000154139
0.000205641
0.000214028
0.000261836
0.000391128
0.000319052
0.000374471
0.000435883
0.000504862
0.000582062
0.000668376
0.000764737
0.000872193
0.000991902
0.00112514
0.00127331
0.00143795
0.00162073
0.00182347
0.00204813
0.0022968
0.00257168
0.00287513
0.00320958
0.00357745
0.00398115
0.00442283
0.00490422
0.00542627
0.00598846
0.00658779
0.00721747
0.00786232
0.00849508
0.00906783
0.00949743
0.00964224
0.00917927
0.00747371
0.00506664
0.00261598
0.00014144
2.9274e-06
3.09098e-06
1.81092e-12
3.30989e-12
3.83409e-11
2.95605e-10
1.36389e-09
5.09377e-09
2.41459e-08
2.35876e-07
8.4626e-07
2.3343e-06
4.53516e-06
8.15864e-06
1.36647e-05
2.14205e-05
3.16245e-05
4.42395e-05
5.87245e-05
7.66103e-05
0.000101328
0.000132227
0.000186625
0.00024435
0.000257328
0.000310048
0.000439463
0.000373347
0.000435619
0.000504464
0.00058165
0.000667907
0.000764214
0.000871606
0.000991238
0.00112438
0.00127244
0.00143695
0.00161959
0.00182218
0.00204671
0.00229527
0.00257011
0.00287358
0.00320815
0.00357634
0.00398061
0.00442327
0.00490631
0.00543101
0.00599755
0.00660411
0.0072455
0.00791145
0.00858102
0.00921783
0.00975985
0.0101024
0.0100739
0.00913473
0.00706057
0.00457788
0.00186054
4.41171e-05
2.91246e-06
3.09097e-06
1.84449e-12
3.30848e-12
3.77412e-11
2.90726e-10
1.39829e-09
4.83027e-09
1.49797e-08
6.19379e-08
5.43946e-07
1.77611e-06
4.52094e-06
8.13837e-06
1.36148e-05
2.13208e-05
3.14951e-05
4.4103e-05
5.83732e-05
7.57437e-05
9.71983e-05
0.000126229
0.000162773
0.000224482
0.000288454
0.000305754
0.000364439
0.000497576
0.000434339
0.00050417
0.000581211
0.000667455
0.000763703
0.000871039
0.000990606
0.00112367
0.00127163
0.00143603
0.00161854
0.00182099
0.00204538
0.00229382
0.00256861
0.00287209
0.00320677
0.00357522
0.00398
0.00442354
0.00490801
0.00543503
0.00600523
0.00661773
0.00726886
0.0079506
0.00864806
0.00933286
0.0099573
0.0104422
0.0106579
0.0103575
0.00888804
0.00652104
0.00412507
0.00112929
1.33622e-05
2.9098e-06
3.09096e-06
1.91347e-12
3.36335e-12
3.77675e-11
2.86444e-10
1.37593e-09
4.95185e-09
1.42016e-08
3.88166e-08
1.45165e-07
1.16047e-06
3.4475e-06
8.1147e-06
1.3584e-05
2.1251e-05
3.13641e-05
4.39537e-05
5.81997e-05
7.53068e-05
9.61213e-05
0.000121633
0.000155612
0.000198512
0.000267867
0.00033812
0.000358354
0.000425628
0.000564896
0.000502712
0.000580886
0.000666971
0.000763213
0.000870487
0.000989996
0.001123
0.00127087
0.00143517
0.00161756
0.00181989
0.00204415
0.00229247
0.00256716
0.00287064
0.00320542
0.0035741
0.00397932
0.00442365
0.00490937
0.0054384
0.00601181
0.00662929
0.00728847
0.00798325
0.00870174
0.00942316
0.0101097
0.0106997
0.0110935
0.0111342
0.0103716
0.0084519
0.00589356
0.00354831
0.000544072
5.22316e-06
2.90938e-06
3.09095e-06
2.00569e-12
3.47697e-12
3.83379e-11
2.86683e-10
1.35598e-09
4.8745e-09
1.45552e-08
3.67718e-08
9.18644e-08
3.18271e-07
2.31518e-06
6.21376e-06
1.35484e-05
2.12082e-05
3.12731e-05
4.38035e-05
5.80206e-05
7.51035e-05
9.5596e-05
0.000120321
0.000150418
0.000189977
0.000239815
0.000316345
0.000392965
0.000417497
0.000494295
0.000639868
0.000579227
0.000666612
0.000762684
0.000869956
0.000989403
0.00112234
0.00127016
0.00143437
0.00161666
0.00181888
0.00204301
0.00229121
0.0025658
0.00286923
0.00320409
0.00357298
0.00397858
0.00442359
0.00491046
0.00544126
0.00601744
0.00663927
0.00730518
0.0080107
0.00874651
0.00949574
0.01023
0.0108997
0.0114264
0.0116869
0.0114633
0.0101377
0.00784173
0.00526552
0.00256566
0.000196344
3.29594e-06
2.90934e-06
3.09094e-06
2.10422e-12
3.62934e-12
3.95251e-11
2.91028e-10
1.35724e-09
4.80472e-09
1.43334e-08
3.76716e-08
8.69096e-08
2.03124e-07
6.6293e-07
4.33994e-06
1.04281e-05
2.11586e-05
3.12174e-05
4.36997e-05
5.78381e-05
7.48882e-05
9.53531e-05
0.000119688
0.000148826
0.000184074
0.0002298
0.000286404
0.000368562
0.000452023
0.000483863
0.000571181
0.00072247
0.000664726
0.000762286
0.00086938
0.000988827
0.00112171
0.00126946
0.00143361
0.00161583
0.00181794
0.00204197
0.00229005
0.00256454
0.0028679
0.00320276
0.00357183
0.0039778
0.0044234
0.00491126
0.00544367
0.00602228
0.0066479
0.00731963
0.00803415
0.00878423
0.00955628
0.010327
0.0110584
0.0116866
0.012113
0.0121887
0.0114916
0.00966976
0.00709695
0.00470436
0.00158525
5.54134e-05
2.88018e-06
2.90934e-06
3.09094e-06
2.19135e-12
3.78823e-12
4.11157e-11
3.00041e-10
1.37807e-09
4.80985e-09
1.41311e-08
3.7113e-08
8.89828e-08
1.91783e-07
4.25808e-07
1.32512e-06
7.65622e-06
1.63596e-05
3.11523e-05
4.36368e-05
5.77089e-05
7.4673e-05
9.50901e-05
0.000119408
0.000148084
0.000182149
0.000223106
0.000275233
0.000336841
0.000427152
0.00051795
0.000558203
0.00065709
0.000814719
0.000760142
0.000868943
0.000988202
0.00112108
0.00126878
0.00143288
0.00161503
0.00181707
0.002041
0.00228899
0.00256338
0.00286667
0.00320151
0.00357067
0.00397694
0.0044231
0.00491184
0.00544565
0.00602647
0.00665539
0.0073322
0.00805449
0.00881649
0.00960736
0.010408
0.0111868
0.0118941
0.0124485
0.0127286
0.0125133
0.0112373
0.00898276
0.00629722
0.00386832
0.000771312
1.48143e-05
2.79822e-06
2.90934e-06
3.09093e-06
2.265e-12
3.9236e-12
4.27296e-11
3.12068e-10
1.42101e-09
4.88466e-09
1.41485e-08
3.65972e-08
8.77032e-08
1.96191e-07
4.00842e-07
8.54083e-07
2.55654e-06
1.27218e-05
2.41435e-05
4.35621e-05
5.7636e-05
7.45184e-05
9.4831e-05
0.000119109
0.000147739
0.000181276
0.000220818
0.000267825
0.000325248
0.000393664
0.000492756
0.000591438
0.000641346
0.000752894
0.000917125
0.000866511
0.000987726
0.00112041
0.00126812
0.00143216
0.00161427
0.00181625
0.00204011
0.00228802
0.00256232
0.00286554
0.00320035
0.00356955
0.00397603
0.00442266
0.00491221
0.00544726
0.00603001
0.00666192
0.00734317
0.0080722
0.0088445
0.00965108
0.0104763
0.0112941
0.0120626
0.0127175
0.013157
0.0132352
0.012511
0.010712
0.00812057
0.00557558
0.00264882
0.000271622
5.18786e-06
2.78347e-06
2.90936e-06
3.09092e-06
2.32647e-12
4.03152e-12
4.40497e-11
3.24216e-10
1.47809e-09
5.03799e-09
1.43716e-08
3.66487e-08
8.65056e-08
1.93468e-07
4.09566e-07
8.00556e-07
1.64799e-06
4.76964e-06
1.99571e-05
3.33904e-05
5.75412e-05
7.44143e-05
9.46464e-05
0.000118778
0.000147373
0.000180841
0.000219726
0.000265191