/*--------------------------------*- C++ -*----------------------------------*\
| =========                 |                                                 |
| \\      /  F ield         | OpenFOAM: The Open Source CFD Toolbox           |
|  \\    /   O peration     | Version:  v2012                                 |
|   \\  /    A nd           | Website:  www.openfoam.com                      |
|    \\/     M anipulation  |                                                 |
\*---------------------------------------------------------------------------*/
FoamFile
{
    version     2.0;
    format      ascii;
    class       volScalarField;
    location    "2000";
    object      omega;
}
// * * * * * * * * * * * * * * * * * * * * * * * * * * * * * * * * * * * * * //

dimensions      [0 0 -1 0 0 0 0];


internalField   nonuniform List<scalar> 
31383
(
1.83598e+10
1.83831e+10
3.02101e+09
1.84022e+10
3.14518e+09
1.02495e+09
1.84099e+10
3.14858e+09
1.05335e+09
4.78873e+08
1.84122e+10
3.14999e+09
1.05452e+09
4.89344e+08
2.66495e+08
1.84159e+10
3.15048e+09
1.05503e+09
4.8988e+08
2.72181e+08
1.64816e+08
1.84217e+10
3.15119e+09
1.05522e+09
4.9011e+08
2.72428e+08
1.69225e+08
1.09188e+08
1.84252e+10
3.15224e+09
1.05548e+09
4.90195e+08
2.7252e+08
1.69297e+08
1.13589e+08
7.5863e+07
1.84256e+10
3.15289e+09
1.05585e+09
4.90314e+08
2.72542e+08
1.69295e+08
1.1353e+08
8.07923e+07
5.45775e+07
1.84274e+10
3.153e+09
1.05609e+09
4.90484e+08
2.72589e+08
1.69267e+08
1.13453e+08
8.06288e+07
6.02362e+07
4.03429e+07
1.84333e+10
3.15336e+09
1.05614e+09
4.90593e+08
2.72667e+08
1.69262e+08
1.13377e+08
8.04866e+07
5.99901e+07
4.67074e+07
3.05051e+07
1.84437e+10
3.1544e+09
1.05627e+09
4.90617e+08
2.72714e+08
1.69281e+08
1.13328e+08
8.03686e+07
5.97963e+07
4.64065e+07
3.73847e+07
2.35384e+07
1.84579e+10
3.15622e+09
1.05664e+09
4.90678e+08
2.72715e+08
1.69285e+08
1.13303e+08
8.02817e+07
5.96426e+07
4.61788e+07
3.70604e+07
3.06481e+07
1.85035e+07
1.84739e+10
3.15867e+09
1.05726e+09
4.90845e+08
2.72739e+08
1.69266e+08
1.13274e+08
8.02199e+07
5.95241e+07
4.60003e+07
3.6819e+07
3.03254e+07
2.55463e+07
1.4813e+07
1.84885e+10
3.16145e+09
1.05809e+09
4.91133e+08
2.72823e+08
1.69264e+08
1.13234e+08
8.01604e+07
5.94333e+07
4.58598e+07
3.66301e+07
3.00885e+07
2.52409e+07
2.15292e+07
1.2054e+07
1.85018e+10
3.16396e+09
1.05903e+09
4.91518e+08
2.72974e+08
1.693e+08
1.13208e+08
8.01004e+07
5.93488e+07
4.57495e+07
3.64794e+07
2.99034e+07
2.50214e+07
2.12471e+07
1.82709e+07
9.92615e+06
1.8513e+10
3.16626e+09
1.05988e+09
4.91953e+08
2.7318e+08
1.69379e+08
1.13211e+08
8.00546e+07
5.92712e+07
4.56471e+07
3.63587e+07
2.97539e+07
2.485e+07
2.10505e+07
1.80141e+07
1.55647e+07
8.27497e+06
1.85221e+10
3.16821e+09
1.06065e+09
4.92347e+08
2.73415e+08
1.69493e+08
1.13244e+08
8.0031e+07
5.92084e+07
4.55566e+07
3.6248e+07
2.96321e+07
2.471e+07
2.0897e+07
1.7843e+07
1.53345e+07
1.32812e+07
6.98422e+06
1.85292e+10
3.16977e+09
1.06131e+09
4.92707e+08
2.73627e+08
1.69626e+08
1.13301e+08
8.0032e+07
5.91641e+07
4.54817e+07
3.61512e+07
2.95233e+07
2.45953e+07
2.07703e+07
1.77095e+07
1.51895e+07
1.30764e+07
1.13405e+07
5.99067e+06
1.85346e+10
3.17101e+09
1.06184e+09
4.93012e+08
2.73822e+08
1.69746e+08
1.13373e+08
8.00502e+07
5.91416e+07
4.54224e+07
3.60708e+07
2.94272e+07
2.44946e+07
2.06668e+07
1.75988e+07
1.50766e+07
1.29556e+07
1.11582e+07
9.6888e+06
5.23978e+06
1.85382e+10
3.17194e+09
1.06226e+09
4.93258e+08
2.73986e+08
1.69856e+08
1.13438e+08
8.00807e+07
5.91315e+07
4.53825e+07
3.60029e+07
2.93468e+07
2.44049e+07
2.05774e+07
1.75079e+07
1.49832e+07
1.28617e+07
1.10582e+07
9.52521e+06
8.28447e+06
4.65432e+06
1.85405e+10
3.17257e+09
1.06258e+09
4.93454e+08
2.74118e+08
1.69949e+08
1.13498e+08
8.01086e+07
5.91328e+07
4.53527e+07
3.59521e+07
2.92773e+07
2.43291e+07
2.0497e+07
1.743e+07
1.49056e+07
1.27841e+07
1.09805e+07
9.44197e+06
8.13644e+06
7.09304e+06
4.18282e+06
1.85417e+10
3.17297e+09
1.06279e+09
4.93601e+08
2.74223e+08
1.70022e+08
1.13548e+08
8.01346e+07
5.91342e+07
4.53336e+07
3.59111e+07
2.92224e+07
2.42638e+07
2.04288e+07
1.73595e+07
1.48388e+07
1.27192e+07
1.09165e+07
9.37771e+06
8.06649e+06
6.95837e+06
6.08451e+06
3.78932e+06
1.85422e+10
3.17319e+09
1.06293e+09
4.93702e+08
2.74301e+08
1.7008e+08
1.13586e+08
8.01549e+07
5.91364e+07
4.53165e+07
3.58793e+07
2.91773e+07
2.42102e+07
2.03706e+07
1.72996e+07
1.47782e+07
1.26633e+07
1.08628e+07
9.32503e+06
8.01298e+06
6.89873e+06
5.96201e+06
5.2323e+06
3.44916e+06
1.85424e+10
3.17329e+09
1.06301e+09
4.93766e+08
2.74353e+08
1.70122e+08
1.13614e+08
8.01689e+07
5.91354e+07
4.53026e+07
3.58507e+07
2.91395e+07
2.41656e+07
2.03214e+07
1.72489e+07
1.47266e+07
1.26124e+07
1.08165e+07
9.2807e+06
7.96936e+06
6.85372e+06
5.91031e+06
5.12163e+06
4.51282e+06
3.14682e+06
1.85426e+10
3.17333e+09
1.06304e+09
4.93802e+08
2.74386e+08
1.70149e+08
1.13633e+08
8.01774e+07
5.91319e+07
4.52866e+07
3.58261e+07
2.91055e+07
2.41273e+07
2.02804e+07
1.72053e+07
1.46833e+07
1.25689e+07
1.07745e+07
9.24249e+06
7.93265e+06
6.81725e+06
5.87196e+06
5.07606e+06
4.41368e+06
3.90524e+06
2.87664e+06
1.85426e+10
3.17338e+09
1.06306e+09
4.93818e+08
2.74403e+08
1.70164e+08
1.13644e+08
8.01805e+07
5.91256e+07
4.52709e+07
3.58008e+07
2.90755e+07
2.40927e+07
2.02446e+07
1.71689e+07
1.46458e+07
1.25326e+07
1.07383e+07
9.20794e+06
7.90092e+06
6.78658e+06
5.84103e+06
5.04285e+06
4.3729e+06
3.81533e+06
3.39086e+06
2.63739e+06
1.85423e+10
3.1734e+09
1.06308e+09
4.93827e+08
2.7441e+08
1.7017e+08
1.13647e+08
8.01784e+07
5.91168e+07
4.5254e+07
3.57777e+07
2.90461e+07
2.40616e+07
2.02123e+07
1.71369e+07
1.46143e+07
1.25012e+07
1.07082e+07
9.178e+06
7.87239e+06
6.75996e+06
5.81504e+06
5.01621e+06
4.34376e+06
3.77846e+06
3.30707e+06
2.95351e+06
2.42218e+06
1.85415e+10
3.17334e+09
1.06309e+09
4.93835e+08
2.74413e+08
1.70171e+08
1.13645e+08
8.01723e+07
5.91052e+07
4.52365e+07
3.57541e+07
2.90193e+07
2.4032e+07
2.01829e+07
1.71079e+07
1.45866e+07
1.24748e+07
1.06823e+07
9.15307e+06
7.84756e+06
6.73612e+06
5.79246e+06
4.99385e+06
4.32049e+06
3.7527e+06
3.27341e+06
2.8739e+06
2.5803e+06
2.22911e+06
1.85402e+10
3.17322e+09
1.06307e+09
4.93839e+08
2.74415e+08
1.70169e+08
1.13639e+08
8.01636e+07
5.90918e+07
4.5218e+07
3.57313e+07
2.89927e+07
2.40047e+07
2.01554e+07
1.70815e+07
1.45614e+07
1.24515e+07
1.06605e+07
9.13171e+06
7.82684e+06
6.71535e+06
5.77225e+06
4.97443e+06
4.30097e+06
3.73227e+06
3.25054e+06
2.84284e+06
2.50361e+06
2.26093e+06
2.05505e+06
1.85382e+10
3.173e+09
1.06303e+09
4.93832e+08
2.74416e+08
1.70167e+08
1.13633e+08
8.01531e+07
5.90773e+07
4.51992e+07
3.57085e+07
2.89678e+07
2.39782e+07
2.01297e+07
1.70568e+07
1.45384e+07
1.24305e+07
1.06413e+07
9.11386e+06
7.8092e+06
6.698e+06
5.75465e+06
4.95705e+06
4.28404e+06
3.71515e+06
3.23256e+06
2.82239e+06
2.47462e+06
2.18617e+06
1.98694e+06
1.89242e+06
1.85354e+10
3.17266e+09
1.06296e+09
4.93814e+08
2.74411e+08
1.70164e+08
1.13627e+08
8.01425e+07
5.90624e+07
4.51804e+07
3.56863e+07
2.89433e+07
2.39535e+07
2.0105e+07
1.70336e+07
1.4517e+07
1.24111e+07
1.0624e+07
9.09819e+06
7.79448e+06
6.68326e+06
5.73994e+06
4.94191e+06
4.26891e+06
3.70032e+06
3.21753e+06
2.80649e+06
2.4562e+06
2.1588e+06
1.91331e+06
1.75136e+06
1.72841e+06
1.85319e+10
3.1722e+09
1.06285e+09
4.93781e+08
2.744e+08
1.70158e+08
1.13621e+08
8.01329e+07
5.90481e+07
4.51621e+07
3.5665e+07
2.892e+07
2.39296e+07
2.00821e+07
1.70115e+07
1.44968e+07
1.23931e+07
1.06081e+07
9.08398e+06
7.78165e+06
6.67099e+06
5.72744e+06
4.92924e+06
4.25571e+06
3.68709e+06
3.20453e+06
2.79323e+06
2.44207e+06
2.14208e+06
1.88719e+06
1.67819e+06
1.54844e+06
1.55963e+06
1.85279e+10
3.1716e+09
1.0627e+09
4.9373e+08
2.7438e+08
1.70148e+08
1.13613e+08
8.01235e+07
5.9035e+07
4.51449e+07
3.56446e+07
2.88979e+07
2.39069e+07
2.00601e+07
1.6991e+07
1.44776e+07
1.23761e+07
1.05932e+07
9.07092e+06
7.76995e+06
6.66036e+06
5.71705e+06
4.91846e+06
4.24465e+06
3.67553e+06
3.19295e+06
2.78179e+06
2.43034e+06
2.12945e+06
1.87188e+06
1.65298e+06
1.47514e+06
1.3734e+06
1.40753e+06
1.85236e+10
3.17092e+09
1.0625e+09
4.93658e+08
2.74351e+08
1.70134e+08
1.13603e+08
8.01133e+07
5.90226e+07
4.5129e+07
3.56257e+07
2.8877e+07
2.38856e+07
2.00393e+07
1.69714e+07
1.44598e+07
1.236e+07
1.05791e+07
9.05873e+06
7.75919e+06
6.65062e+06
5.70806e+06
4.90949e+06
4.2352e+06
3.66583e+06
3.18282e+06
2.77162e+06
2.42024e+06
2.11904e+06
1.86053e+06
1.63883e+06
1.45054e+06
1.29943e+06
1.22236e+06
1.27818e+06
1.85191e+10
3.17018e+09
1.06227e+09
4.93566e+08
2.7431e+08
1.70114e+08
1.1359e+08
8.0102e+07
5.901e+07
4.51142e+07
3.56082e+07
2.88577e+07
2.38656e+07
2.00197e+07
1.69529e+07
1.44427e+07
1.23449e+07
1.05658e+07
9.04711e+06
7.74915e+06
6.64164e+06
5.6998e+06
4.90171e+06
4.22733e+06
3.65752e+06
3.1743e+06
2.76273e+06
2.41129e+06
2.1101e+06
1.85124e+06
1.62856e+06
1.43732e+06
1.27516e+06
1.14711e+06
1.09211e+06
1.16921e+06
1.85146e+10
3.16941e+09
1.06203e+09
4.93461e+08
2.74258e+08
1.70087e+08
1.13574e+08
8.0089e+07
5.8997e+07
4.50997e+07
3.55919e+07
2.88398e+07
2.3847e+07
2.00015e+07
1.69354e+07
1.44267e+07
1.23305e+07
1.05532e+07
9.0362e+06
7.73956e+06
6.63328e+06
5.69218e+06
4.89457e+06
4.22049e+06
3.65057e+06
3.167e+06
2.75523e+06
2.40346e+06
2.1022e+06
1.8433e+06
1.62024e+06
1.42797e+06
1.26269e+06
1.12293e+06
1.01486e+06
979975
1.0776e+06
1.85122e+10
3.16866e+09
1.06177e+09
4.93347e+08
2.74199e+08
1.70053e+08
1.13553e+08
8.00737e+07
5.89832e+07
4.50853e+07
3.55762e+07
2.88233e+07
2.38299e+07
1.99845e+07
1.69193e+07
1.44115e+07
1.23169e+07
1.05412e+07
9.02582e+06
7.73057e+06
6.62529e+06
5.68511e+06
4.88798e+06
4.21419e+06
3.64452e+06
3.16088e+06
2.74879e+06
2.39684e+06
2.09529e+06
1.83631e+06
1.61318e+06
1.42048e+06
1.25411e+06
1.11102e+06
990542
899889
883444
1.00049e+06
1.84908e+10
3.16825e+09
1.06153e+09
4.93229e+08
2.74135e+08
1.70014e+08
1.13528e+08
8.00559e+07
5.89682e+07
4.50706e+07
3.55611e+07
2.88074e+07
2.38142e+07
1.99689e+07
1.69042e+07
1.43975e+07
1.23041e+07
1.05299e+07
9.01589e+06
7.72198e+06
6.6178e+06
5.67835e+06
4.88188e+06
4.2084e+06
3.63896e+06
3.15553e+06
2.74339e+06
2.39115e+06
2.08944e+06
1.8302e+06
1.60697e+06
1.41417e+06
1.24733e+06
1.10308e+06
979049
875228
799841
800207
935571
1.82015e+10
3.16459e+09
1.06139e+09
4.93113e+08
2.74069e+08
1.69973e+08
1.135e+08
8.00355e+07
5.89516e+07
4.50555e+07
3.5546e+07
2.87923e+07
2.37992e+07
1.99546e+07
1.68904e+07
1.43844e+07
1.22922e+07
1.05193e+07
9.00651e+06
7.71375e+06
6.61061e+06
5.67201e+06
4.87605e+06
4.20305e+06
3.63383e+06
3.15061e+06
2.73865e+06
2.38637e+06
2.0844e+06
1.82502e+06
1.60155e+06
1.40865e+06
1.24167e+06
1.09691e+06
971622
864007
774647
712714
728332
880785
1.79154e+10
2.61143e+09
1.06017e+09
4.9305e+08
2.74003e+08
1.69931e+08
1.13471e+08
8.00135e+07
5.89335e+07
4.50394e+07
3.55311e+07
2.87774e+07
2.37848e+07
1.99409e+07
1.68776e+07
1.43725e+07
1.22811e+07
1.05094e+07
8.99769e+06
7.70595e+06
6.60375e+06
5.66592e+06
4.87059e+06
4.19792e+06
3.62912e+06
3.14609e+06
2.7343e+06
2.38217e+06
2.08016e+06
1.82055e+06
1.59696e+06
1.40383e+06
1.23674e+06
1.09181e+06
965969
856992
763567
686814
636807
666156
833988
1.78411e+10
2.90837e+09
9.1114e+08
4.92485e+08
2.73968e+08
1.69889e+08
1.13441e+08
7.99906e+07
5.89145e+07
4.50225e+07
3.55156e+07
2.87629e+07
2.37708e+07
1.99278e+07
1.68654e+07
1.43613e+07
1.2271e+07
1.05001e+07
8.98947e+06
7.69863e+06
6.59723e+06
5.66011e+06
4.86534e+06
4.19315e+06
3.6246e+06
3.14193e+06
2.73029e+06
2.37831e+06
2.07643e+06
1.81679e+06
1.59299e+06
1.39975e+06
1.23245e+06
1.08739e+06
961345
851770
756871
675756
610040
570667
612200
792869
1.78653e+10
2.89075e+09
9.42393e+08
4.23266e+08
2.73655e+08
1.69866e+08
1.13412e+08
7.99672e+07
5.88949e+07
4.50052e+07
3.54996e+07
2.87482e+07
2.37572e+07
1.99152e+07
1.68538e+07
1.43508e+07
1.22616e+07
1.04916e+07
8.98183e+06
7.69181e+06
6.59109e+06
5.65459e+06
4.86035e+06
4.18857e+06
3.62041e+06
3.13796e+06
2.72662e+06
2.37476e+06
2.07301e+06
1.81347e+06
1.58964e+06
1.39622e+06
1.22881e+06
1.08356e+06
957375
847557
752004
669291
598893
542886
513053
565059
754916
1.80444e+10
2.89847e+09
9.33409e+08
4.29711e+08
2.34514e+08
1.69673e+08
1.13395e+08
7.99441e+07
5.88754e+07
4.49878e+07
3.54836e+07
2.87334e+07
2.37437e+07
1.99029e+07
1.68427e+07
1.43407e+07
1.22526e+07
1.04838e+07
8.97478e+06
7.68546e+06
6.58538e+06
5.6494e+06
4.85562e+06
4.18422e+06
3.61638e+06
3.13427e+06
2.72312e+06
2.37151e+06
2.06986e+06
1.81043e+06
1.5867e+06
1.39325e+06
1.22566e+06
1.0803e+06
953937
843968
748137
664710
592580
531545
484123
462903
523305
718005
1.81948e+10
2.94157e+09
9.37494e+08
4.22595e+08
2.37594e+08
1.44494e+08
1.13266e+08
7.99302e+07
5.88563e+07
4.49705e+07
3.54676e+07
2.87186e+07
2.37301e+07
1.98907e+07
1.68318e+07
1.43311e+07
1.22441e+07
1.04763e+07
8.96824e+06
7.6796e+06
6.58008e+06
5.64457e+06
4.85116e+06
4.1801e+06
3.61257e+06
3.13074e+06
2.71986e+06
2.36841e+06
2.06698e+06
1.80763e+06
1.58399e+06
1.39062e+06
1.22301e+06
1.0775e+06
951024
840874
744874
661133
588222
525310
472489
432693
419313
485378
681395
1.82968e+10
2.97693e+09
9.57554e+08
4.24979e+08
2.30479e+08
1.47927e+08
9.53071e+07
7.98392e+07
5.88443e+07
4.49537e+07
3.5452e+07
2.87041e+07
2.37167e+07
1.98786e+07
1.68211e+07
1.43216e+07
1.22359e+07
1.04692e+07
8.96203e+06
7.67416e+06
6.57518e+06
5.64008e+06
4.84701e+06
4.17623e+06
3.60896e+06
3.12739e+06
2.71675e+06
2.36554e+06
2.06423e+06
1.80508e+06
1.5815e+06
1.38821e+06
1.22067e+06
1.07513e+06
948516
838257
742077
658149
584885
521122
466264
420674
387689
381520
449576
646666
1.83609e+10
3.00149e+09
9.73859e+08
4.3658e+08
2.31773e+08
1.41051e+08
9.91721e+07
6.57873e+07
5.87756e+07
4.49425e+07
3.54365e+07
2.86899e+07
2.37036e+07
1.98668e+07
1.68105e+07
1.43124e+07
1.22279e+07
1.04623e+07
8.95611e+06
7.669e+06
6.57063e+06
5.63593e+06
4.84316e+06
4.17262e+06
3.60558e+06
3.12423e+06
2.71381e+06
2.36279e+06
2.06169e+06
1.80265e+06
1.57924e+06
1.386e+06
1.21853e+06
1.07305e+06
946397
836005
739716
655608
582137
517977
462192
414393
375197
348328
348829
414301
614266
1.83868e+10
3.13284e+09
9.85403e+08
4.46083e+08
2.39267e+08
1.41394e+08
9.35273e+07
7.02337e+07
4.68932e+07
4.48869e+07
3.54257e+07
2.86757e+07
2.36909e+07
1.98552e+07
1.68001e+07
1.43032e+07
1.222e+07
1.04556e+07
8.95036e+06
7.66407e+06
6.5663e+06
5.63208e+06
4.8396e+06
4.16928e+06
3.60243e+06
3.12128e+06
2.71104e+06
2.3602e+06
2.05927e+06
1.8004e+06
1.57708e+06
1.38399e+06
1.21656e+06
1.07113e+06
944528
834104
737689
653468
579814
515425
459198
410389
368798
335277
313934
320448
378813
590854
1.84016e+10
3.15378e+09
1.05305e+09
4.52941e+08
2.45643e+08
1.46605e+08
9.28322e+07
6.60586e+07
5.20017e+07
3.43276e+07
3.53776e+07
2.86656e+07
2.36782e+07
1.9844e+07
1.679e+07
1.42942e+07
1.22122e+07
1.0449e+07
8.94475e+06
7.65927e+06
6.56217e+06
5.62842e+06
4.8363e+06
4.16618e+06
3.59951e+06
3.11852e+06
2.70845e+06
2.35776e+06
2.05698e+06
1.79826e+06
1.57509e+06
1.38207e+06
1.21477e+06
1.06938e+06
942822
832431
735979
651636
577865
513288
456807
407508
364817
328704
300244
283922
295559
344348
579549
1.84077e+10
3.15791e+09
1.05963e+09
4.90376e+08
2.50332e+08
1.51494e+08
9.66922e+07
6.41782e+07
4.91828e+07
3.99768e+07
2.58266e+07
2.86218e+07
2.3669e+07
1.98328e+07
1.67802e+07
1.42855e+07
1.22046e+07
1.04424e+07
8.93924e+06
7.65458e+06
6.55815e+06
5.62493e+06
4.83317e+06
4.16332e+06
3.59681e+06
3.11597e+06
2.70603e+06
2.35549e+06
2.05483e+06
1.79624e+06
1.57319e+06
1.3803e+06
1.21306e+06
1.06778e+06
941256
830904
734478
650092
576201
511501
454825
405246
362013
324703
293439
269516
257785
273450
312991
574484
1.84145e+10
3.15978e+09
1.06175e+09
4.93504e+08
2.7296e+08
1.55093e+08
1.01028e+08
6.72255e+07
4.61623e+07
3.81548e+07
3.17145e+07
2.00202e+07
2.36279e+07
1.98247e+07
1.67705e+07
1.4277e+07
1.21971e+07
1.0436e+07
8.93372e+06
7.64997e+06
6.55421e+06
5.62153e+06
4.83018e+06
4.1606e+06
3.59432e+06
3.11361e+06
2.7038e+06
2.35336e+06
2.05283e+06
1.79434e+06
1.5714e+06
1.37862e+06
1.21149e+06
1.06626e+06
939832
829504
733109
648740
574801
509982
453176
403392
359852
321943
289378
262424
242588
235091
253491
285171
571735
1.84243e+10
3.16173e+09
1.06274e+09
4.94794e+08
2.74779e+08
1.69455e+08
1.04055e+08
7.15668e+07
4.87315e+07
3.43819e+07
3.05179e+07
2.57931e+07
1.59884e+07
1.97855e+07
1.67633e+07
1.42687e+07
1.21899e+07
1.04297e+07
8.92834e+06
7.64535e+06
6.55033e+06
5.6182e+06
4.82728e+06
4.15801e+06
3.59194e+06
3.11143e+06
2.70173e+06
2.3514e+06
2.05096e+06
1.79257e+06
1.56973e+06
1.37704e+06
1.21e+06
1.06487e+06
938482
828233
731855
647511
573578
508707
451781
401860
358102
319855
286632
258264
235155
219023
215484
235077
260006
569956
1.84306e+10
3.16423e+09
1.06376e+09
4.95409e+08
2.75635e+08
1.70629e+08
1.13213e+08
7.4112e+07
5.32424e+07
3.66765e+07
2.65162e+07
2.49913e+07
2.13588e+07
1.31123e+07
1.67259e+07
1.42625e+07
1.21829e+07
1.04236e+07
8.92309e+06
7.64084e+06
6.54645e+06
5.61491e+06
4.82443e+06
4.1555e+06
3.58969e+06
3.10936e+06
2.69982e+06
2.34959e+06
2.04923e+06
1.79092e+06
1.56816e+06
1.37555e+06
1.2086e+06
1.06354e+06
937238
827029
730718
646385
572471
507596
450613
400570
356665
318186
284591
255502
230858
211196
198442
198545
217588
237060
568721
1.84329e+10
3.16588e+09
1.06498e+09
4.9603e+08
2.76047e+08
1.71226e+08
1.14017e+08
7.98349e+07
5.51796e+07
4.11758e+07
2.86412e+07
2.11817e+07
2.08148e+07
1.7901e+07
1.09933e+07
1.42271e+07
1.21776e+07
1.04176e+07
8.91799e+06
7.63643e+06
6.54266e+06
5.61163e+06
4.82162e+06
4.15304e+06
3.58751e+06
3.10739e+06
2.69801e+06
2.34791e+06
2.04764e+06
1.7894e+06
1.56671e+06
1.37417e+06
1.20729e+06
1.0623e+06
936063
825922
729643
645365
571458
506595
449600
399493
355463
316827
282984
253486
228052
206724
190167
180513
183767
200447
216425
567834
1.84355e+10
3.16662e+09
1.0658e+09
4.96752e+08
2.7646e+08
1.71513e+08
1.14446e+08
8.04053e+07
5.87748e+07
4.25529e+07
3.28148e+07
2.31676e+07
1.74642e+07
1.75338e+07
1.51201e+07
9.38144e+06
1.21447e+07
1.04133e+07
8.91295e+06
7.63216e+06
6.53894e+06
5.60841e+06
4.81882e+06
4.15062e+06
3.58537e+06
3.1055e+06
2.69629e+06
2.34632e+06
2.04616e+06
1.788e+06
1.56537e+06
1.37289e+06
1.20607e+06
1.06113e+06
934958
824875
728655
644404
570541
505680
448690
398563
354463
315698
281685
251920
226039
203847
185483
171738
164951
170644
183272
198101
567024
1.83861e+10
3.16737e+09
1.06621e+09
4.9724e+08
2.76931e+08
1.718e+08
1.14652e+08
8.07199e+07
5.9188e+07
4.48746e+07
3.38073e+07
2.67813e+07
1.92906e+07
1.47612e+07
1.48815e+07
1.28337e+07
8.11981e+06
1.0383e+07
8.90938e+06
7.62792e+06
6.53535e+06
5.60526e+06
4.81607e+06
4.14821e+06
3.58328e+06
3.10364e+06
2.69463e+06
2.34481e+06
2.04476e+06
1.7867e+06
1.56413e+06
1.3717e+06
1.20493e+06
1.06005e+06
933923
823893
727723
643521
569680
504854
447861
397731
353603
314761
280614
250668
224498
201816
182509
166804
155621
151514
158674
166068
182299
566329
1.49656e+10
3.15945e+09
1.06659e+09
4.97496e+08
2.77251e+08
1.72126e+08
1.14858e+08
8.08703e+07
5.94218e+07
4.51793e+07
3.53522e+07
2.75248e+07
2.22486e+07
1.63836e+07
1.26879e+07
1.26902e+07
1.09219e+07
7.10774e+06
8.88174e+06
7.62497e+06
6.53177e+06
5.60223e+06
4.81338e+06
4.14585e+06
3.58119e+06
3.10182e+06
2.69301e+06
2.34336e+06
2.04344e+06
1.78547e+06
1.56298e+06
1.37061e+06
1.20388e+06
1.05905e+06
932964
822974
726848
642689
568889
504080
447114
396977
352839
313961
279730
249642
223277
200283
180439
163706
150400
141567
139925
147368
149440
170471
565847
1.0218e+10
2.57727e+09
1.06414e+09
4.97728e+08
2.77423e+08
1.72347e+08
1.15091e+08
8.10204e+07
5.95326e+07
4.53546e+07
3.5581e+07
2.85878e+07
2.28312e+07
1.87095e+07
1.40637e+07
1.1017e+07
1.08468e+07
9.30678e+06
6.27864e+06
7.60002e+06
6.52932e+06
5.59918e+06
4.8108e+06
4.14354e+06
3.57915e+06
3.10001e+06
2.69143e+06
2.34195e+06
2.04218e+06
1.7843e+06
1.5619e+06
1.36959e+06
1.20291e+06
1.05812e+06
932073
822123
726031
641909
568144
503369
446416
396298
352148
313254
278978
248799
222284
199079
178897
161578
147151
136018
129359
129836
136299
134130
163425
565589
9.26989e+09
1.76098e+09
8.70123e+08
4.96655e+08
2.77575e+08
1.72467e+08
1.15248e+08
8.1189e+07
5.96426e+07
4.54369e+07
3.57142e+07
2.87641e+07
2.35914e+07
1.91861e+07
1.58587e+07
1.21263e+07
9.61768e+06
9.2796e+06
7.93741e+06
5.58676e+06
6.50712e+06
5.59713e+06
4.80819e+06
4.14132e+06
3.57716e+06
3.09825e+06
2.68986e+06
2.34057e+06
2.04094e+06
1.78319e+06
1.56087e+06
1.36864e+06
1.20202e+06
1.05726e+06
931249
821332
725274
641181
567447
502702
445775
395666
351529
312618
278319
248087
221472
198109
177699
160013
144945
132592
123441
118809
120871
125146
120101
160733
565537
8.85704e+09
1.58665e+09
5.94962e+08
4.0697e+08
2.76967e+08
1.72571e+08
1.15334e+08
8.13039e+07
5.9767e+07
4.5518e+07
3.57761e+07
2.88675e+07
2.37318e+07
1.97509e+07
1.62621e+07
1.35114e+07
1.04791e+07
8.40662e+06
7.94233e+06
6.77791e+06
4.99937e+06
5.57767e+06
4.80645e+06
4.13906e+06
3.57524e+06
3.09651e+06
2.68832e+06
2.3392e+06
2.03973e+06
1.7821e+06
1.55989e+06
1.36773e+06
1.20117e+06
1.05647e+06
930488
820601
724570
640506
566797
502078
445174
395086
350953
312048
277729
247466
220791
197320
176741
158808
143341
130288
119811
112479
109723
112625
113661
106977
159945
565608
8.67165e+09
1.52268e+09
5.35614e+08
2.78411e+08
2.27283e+08
1.72131e+08
1.15407e+08
8.13663e+07
5.98514e+07
4.56103e+07
3.58365e+07
2.89149e+07
2.38141e+07
1.98665e+07
1.6695e+07
1.38603e+07
1.15457e+07
9.06477e+06
7.33867e+06
6.80161e+06
5.7994e+06
4.49234e+06
4.78957e+06
4.13757e+06
3.57328e+06
3.09486e+06
2.68682e+06
2.33786e+06
2.03853e+06
1.78105e+06
1.55894e+06
1.36687e+06
1.20037e+06
1.05572e+06
929787
819925
723921
639879
566195
501496
444614
394544
350427
311522
277203
246915
220202
196662
175965
157852
142118
128631
117389
108615
102968
101845
104662
101965
94919.1
159696
565755
8.55603e+09
1.49065e+09
5.13114e+08
2.50275e+08
1.55482e+08
1.41273e+08
1.15011e+08
8.14181e+07
5.9897e+07
4.56729e+07
3.59058e+07
2.89606e+07
2.38512e+07
1.99338e+07
1.67928e+07
1.42008e+07
1.18498e+07
9.88019e+06
7.83864e+06
6.39794e+06
5.83077e+06
4.97644e+06
4.04493e+06
4.12302e+06
3.572e+06
3.09316e+06
2.68538e+06
2.33655e+06
2.03736e+06
1.78e+06
1.55801e+06
1.36604e+06
1.19961e+06
1.05502e+06
929126
819302
723321
639301
565637
500958
444092
394039
349936
311041
276718
246424
219682
196097
175323
157082
141154
127378
115663
106056
98839.9
94764.9
94880.2
96597.3
90770.8
84550.3
159602
565991
8.47734e+09
1.47069e+09
5.02254e+08
2.39517e+08
1.39558e+08
9.65454e+07
9.42029e+07
8.10075e+07
5.99332e+07
4.57062e+07
3.59529e+07
2.90137e+07
2.38869e+07
1.99638e+07
1.6849e+07
1.42854e+07
1.21234e+07
1.01441e+07
8.46019e+06
6.77448e+06
5.57581e+06
5.00708e+06
4.28435e+06
3.63996e+06
3.55946e+06
3.09205e+06
2.68389e+06
2.3353e+06
2.03622e+06
1.77897e+06
1.5571e+06
1.36522e+06
1.19888e+06
1.05435e+06
928503
818717
722766
638767
565120
500458
443610
393570
349479
310595
276277
245975
219220
195601
174775
156448
140382
126398
114368
104245
96119.8
90340.8
87705
88504.1
88266.4
80149
78045.1
159579
566180
8.41291e+09
1.45712e+09
4.95486e+08
2.34414e+08
1.33466e+08
8.65521e+07
6.41998e+07
6.60065e+07
5.94839e+07
4.57314e+07
3.59773e+07
2.90497e+07
2.39284e+07
1.99924e+07
1.68738e+07
1.4333e+07
1.21976e+07
1.03662e+07
8.68801e+06
7.24692e+06
5.85492e+06
4.8601e+06
4.31029e+06
3.69999e+06
3.26622e+06
3.08124e+06
2.68294e+06
2.334e+06
2.03513e+06
1.77797e+06
1.5562e+06
1.36442e+06
1.19816e+06
1.0537e+06
927911
818165
722246
638273
564644
499997
443162
393136
349055
310180
275868
245567
218801
195163
174298
155911
139750
125616
113363
102897
94208.5
87437
82994.2
81570.1
82360.2
79473.9
69837.8
75555.2
159606
566297
8.36176e+09
1.44607e+09
4.90902e+08
2.31234e+08
1.30602e+08
8.27298e+07
5.75215e+07
4.47307e+07
4.80132e+07
4.52426e+07
3.59948e+07
2.90677e+07
2.39565e+07
2.00259e+07
1.68971e+07
1.43541e+07
1.22387e+07
1.04317e+07
8.86854e+06
7.44266e+06
6.21201e+06
5.06509e+06
4.23572e+06
3.72136e+06
3.20464e+06
2.91742e+06
2.67361e+06
2.33316e+06
2.03399e+06
1.77702e+06
1.55532e+06
1.36363e+06
1.19746e+06
1.05307e+06
927338
817641
721758
637812
564204
499571
442749
392733
348663
309795
275489
245191
218421
194768
173879
155447
139219
124980
112564
101857
92795.2
85408.4
79881.4
76677
76106.2
76023.3
70747.3
60167.9
74940
159625
566373
8.3173e+09
1.43722e+09
4.87185e+08
2.29088e+08
1.28818e+08
8.09405e+07
5.49571e+07
4.00968e+07
3.22107e+07
3.59972e+07
3.54845e+07
2.90799e+07
2.39703e+07
2.00482e+07
1.69248e+07
1.43736e+07
1.22569e+07
1.04675e+07
8.92636e+06
7.58938e+06
6.37884e+06
5.33225e+06
4.38941e+06
3.69474e+06
3.22175e+06
2.78337e+06
2.59216e+06
2.32511e+06
2.03326e+06
1.77602e+06
1.55448e+06
1.36286e+06
1.19677e+06
1.05245e+06
926782
817135
721294
637378
563793
499178
442367
392362
348301
309440
275138
244842
218072
194411
173503
155043
138764
124449
111918
101034
91710.8
83916.8
77716.9
73345.3
71225.6
71006.8
69251.2
62173.9
52190.5
74825.3
159637
566436
8.27949e+09
1.42954e+09
4.84187e+08
2.27355e+08
1.27618e+08
7.98259e+07
5.3758e+07
3.82966e+07
2.89337e+07
2.37556e+07
2.76981e+07
2.85797e+07
2.39792e+07
2.00591e+07
1.69429e+07
1.43967e+07
1.22734e+07
1.04832e+07
8.95733e+06
7.64009e+06
6.49803e+06
5.4729e+06
4.58715e+06
3.81193e+06
3.22801e+06
2.79599e+06
2.42394e+06
2.2935e+06
2.02629e+06
1.77538e+06
1.5536e+06
1.36212e+06
1.19608e+06
1.05184e+06
926237
816645
720846
636966
563407
498812
442016
392020
347966
309112
274816
244521
217750
194085
173165
154681
138368
123996
111381
100371
90857
82778.3
76133.4
71024.5
67726.5
66432.3
65940.3
62277.4
53531.2
47348.8
74812.1
159648
566499
8.24591e+09
1.42299e+09
4.81573e+08
2.25949e+08
1.26653e+08
7.90789e+07
5.30113e+07
3.74527e+07
2.76306e+07
2.14303e+07
1.78291e+07
2.18097e+07
2.35219e+07
2.00662e+07
1.69518e+07
1.44119e+07
1.22931e+07
1.04973e+07
8.97085e+06
7.66683e+06
6.54213e+06
5.56945e+06
4.70409e+06
3.95738e+06
3.31731e+06
2.8246e+06
2.43211e+06
2.11628e+06
2.02493e+06
1.76934e+06
1.55304e+06
1.36134e+06
1.19544e+06
1.05124e+06
925702
816166
720414
636570
563041
498467
441688
391704
347657
308809
274517
244226
217454
193785
172858
154358
138017
123605
110927
99824
90171.7
81885.3
74930.1
69333.9
65237.5
62889.2
62051
60617.2
55303.6
45030.8
45723.1
74814.3
159656
566543
8.21618e+09
1.41718e+09
4.79348e+08
2.24717e+08
1.25867e+08
7.84809e+07
5.25129e+07
3.69276e+07
2.70153e+07
2.0469e+07
1.61989e+07
1.35552e+07
1.75282e+07
1.96717e+07
1.69579e+07
1.44192e+07
1.23061e+07
1.05141e+07
8.98307e+06
7.67853e+06
6.56512e+06
5.60742e+06
4.78191e+06
4.05351e+06
3.42348e+06
2.8923e+06
2.47485e+06
2.12023e+06
1.8521e+06
1.78681e+06
1.5478e+06
1.36085e+06
1.19475e+06
1.05067e+06
925174
815694
719991
636188
562690
498142
441380
391410
347373
308530
274242
243953
217182
193510
172576
154065
137705
123261
110537
99363.6
89608.7
81171.4
73989.8
68053.9
63422.3
60264.1
58655.9
57786.8
54884.7
48109.3
37854.4
45359.8
74819.2
159663
566588
8.18917e+09
1.41204e+09
4.77387e+08
2.23672e+08
1.25176e+08
7.79937e+07
5.21158e+07
3.65786e+07
2.66327e+07
2.00088e+07
1.54844e+07
1.24437e+07
1.04055e+07
1.43363e+07
1.66205e+07
1.44247e+07
1.23123e+07
1.05253e+07
8.99764e+06
7.68905e+06
6.57527e+06
5.62717e+06
4.81418e+06
4.11581e+06
3.50255e+06
2.96879e+06
2.52632e+06
2.17113e+06
1.85216e+06
1.62457e+06
1.57687e+06
1.35628e+06
1.19432e+06
1.05007e+06
924671
815228
719574
635814
562352
497830
441090
391134
347108
308272
273988
243702
216931
193258
172318
153798
137423
122956
110195
98969.9
89137.4
80587.5
73240.9
67057.7
62052.5
58317.5
55982.6
54811.6
53334.6
49005
40587.2
33543.3
45297.3
74822.2
159669
566635
8.16565e+09
1.4074e+09
4.75642e+08
2.22755e+08
1.24592e+08
7.75647e+07
5.17937e+07
3.63026e+07
2.63797e+07
1.97222e+07
1.51338e+07
1.19159e+07
9.68082e+06
8.0487e+06
1.18954e+07
1.40986e+07
1.23173e+07
1.05308e+07
9.00721e+06
7.70167e+06
6.5844e+06
5.63589e+06
4.83112e+06
4.14297e+06
3.55253e+06
3.03404e+06
2.58051e+06
2.21051e+06
1.90693e+06
1.62117e+06
1.42801e+06
1.39193e+06
1.19032e+06
1.04968e+06
924135
814784
719163
635445
562021
497530
440812
390875
346861
308033
273754
243470
216700
193026
172083
153554
137167
122683
109895
98627.9
88736.7
80101
72630.6
66266.9
60990.8
56842.8
53932.8
52234.1
51090.5
48470.2
42948.3
33253.6
32017.7
45288.6
74823.6
159677
566696
8.14491e+09
1.40333e+09
4.74069e+08
2.21938e+08
1.24082e+08
7.72037e+07
5.15102e+07
3.60807e+07
2.61821e+07
1.95339e+07
1.49146e+07
1.16457e+07
9.30028e+06
7.6017e+06
6.2698e+06
9.98332e+06
1.19266e+07
1.05355e+07
9.01184e+06
7.70983e+06
6.59517e+06
5.64372e+06
4.83849e+06
4.15727e+06
3.57542e+06
3.07442e+06
2.63423e+06
2.24803e+06
1.93741e+06
1.67676e+06
1.42163e+06
1.25773e+06
1.22895e+06
1.04618e+06
923789
814310
718770
635082
561695
497236
440545
390627
346628
307810
273538
243256
216488
192813
171867
153333
136935
122436
109626
98327.8
88390.5
79689.3
72124.4
65624.5
60150.5
55704.8
52354.4
50151.6
48821.9
47208.1
43426.5
36461.9
27646.9
31681.4
45288.1
74825.1
159686
566761
8.12707e+09
1.39977e+09
4.72693e+08
2.212e+08
1.23626e+08
7.68894e+07
5.12732e+07
3.58865e+07
2.60255e+07
1.93897e+07
1.47718e+07
1.14751e+07
9.09113e+06
7.34155e+06
6.00363e+06
4.92625e+06
8.45487e+06
1.00724e+07
9.01626e+06
7.71362e+06
6.60191e+06
5.65285e+06
4.84503e+06
4.16354e+06
3.58748e+06
3.09385e+06
2.66689e+06
2.29209e+06
1.96254e+06
1.70073e+06
1.47591e+06
1.24885e+06
1.10978e+06
1.08526e+06
920723
814000
718350
634734
561373
496948
440284
390389
346406
307601
273336
243059
216292
192616
171668
153130
136725
122212
109385
98061.6
88088.3
79335.4
71697.5
65093.6
59469.9
54806.4
51127.8
48501
46825.7
45500.9
42958.5
38202.5
29645.4
24964.7
31624.3
45288.9
74827.9
159693
566846
8.11179e+09
1.3967e+09
4.71495e+08
2.20557e+08
1.23215e+08
7.66083e+07
5.10678e+07
3.57257e+07
2.58903e+07
1.92785e+07
1.46656e+07
1.13656e+07
8.95677e+06
7.18024e+06
5.84383e+06
4.7527e+06
3.91577e+06
7.21383e+06
8.49958e+06
7.71776e+06
6.605e+06
5.6584e+06
4.85274e+06
4.16901e+06
3.59283e+06
3.10408e+06
2.6834e+06
2.31851e+06
1.99851e+06
1.71674e+06
1.49516e+06
1.30038e+06
1.09892e+06
980880
958518
811298
718071
634361
561064
496662
440028
390157
346193
307402
273146
242875
216111
192435
171486
152944
136533
122010
109167
97823.2
87821.5
79028
71332.5
64647.5
58909.3
54081
50161.3
47192.8
45166
43767.3
42012.6
38530.4
32472.1
23805.8
24237.1
31616
45289.8
74828.7