/*--------------------------------*- C++ -*----------------------------------*\
| =========                 |                                                 |
| \\      /  F ield         | OpenFOAM: The Open Source CFD Toolbox           |
|  \\    /   O peration     | Version:  v2012                                 |
|   \\  /    A nd           | Website:  www.openfoam.com                      |
|    \\/     M anipulation  |                                                 |
\*---------------------------------------------------------------------------*/
FoamFile
{
    version     2.0;
    format      ascii;
    class       volScalarField;
    location    "2000";
    object      p;
}
// * * * * * * * * * * * * * * * * * * * * * * * * * * * * * * * * * * * * * //

dimensions      [1 -1 -2 0 0 0 0];


internalField   nonuniform List<scalar> 
31383
(
23901.1
23870.8
23901.1
23846.1
23870.8
23901.1
23836.2
23846.1
23870.8
23901.1
23833.1
23836.2
23846.1
23870.8
23901.1
23828.3
23833.1
23836.2
23846.1
23870.8
23901.1
23820.9
23828.3
23833.1
23836.2
23846.1
23870.8
23901.1
23816.4
23820.9
23828.3
23833.1
23836.2
23846.1
23870.8
23901.1
23815.9
23816.4
23820.9
23828.3
23833.1
23836.2
23846.1
23870.8
23901.1
23813.5
23815.9
23816.4
23820.9
23828.3
23833.1
23836.2
23846.1
23870.8
23901.1
23805.9
23813.5
23815.9
23816.4
23820.9
23828.3
23833.1
23836.2
23846.1
23870.8
23901.1
23792.4
23805.9
23813.5
23815.9
23816.4
23820.9
23828.3
23833.1
23836.2
23846.1
23870.8
23901.1
23774.2
23792.4
23805.9
23813.5
23815.9
23816.4
23820.9
23828.3
23833.1
23836.2
23846.1
23870.8
23901.1
23753.5
23774.2
23792.4
23805.9
23813.5
23815.9
23816.4
23820.9
23828.3
23833.1
23836.2
23846.1
23870.8
23901.2
23734.8
23753.5
23774.2
23792.4
23805.9
23813.5
23815.9
23816.4
23820.9
23828.3
23833.1
23836.2
23846.1
23870.8
23901.2
23717.8
23734.8
23753.5
23774.2
23792.4
23805.9
23813.5
23815.9
23816.4
23820.9
23828.3
23833.1
23836.2
23846.1
23870.8
23901.3
23703.3
23717.8
23734.8
23753.5
23774.2
23792.4
23805.9
23813.5
23815.9
23816.4
23820.9
23828.3
23833.1
23836.2
23846.1
23870.9
23901.3
23691.8
23703.3
23717.8
23734.8
23753.5
23774.2
23792.4
23805.9
23813.5
23815.9
23816.4
23820.9
23828.3
23833.1
23836.2
23846.1
23870.9
23901.4
23682.6
23691.8
23703.3
23717.8
23734.8
23753.5
23774.2
23792.4
23805.9
23813.5
23815.9
23816.4
23820.9
23828.3
23833.1
23836.2
23846.1
23870.9
23901.5
23675.8
23682.6
23691.8
23703.3
23717.8
23734.8
23753.5
23774.2
23792.4
23805.9
23813.5
23815.9
23816.4
23820.9
23828.3
23833.1
23836.2
23846.1
23870.9
23901.6
23671.2
23675.8
23682.6
23691.8
23703.3
23717.8
23734.8
23753.5
23774.2
23792.4
23805.9
23813.5
23815.9
23816.4
23820.9
23828.3
23833.1
23836.2
23846.1
23870.9
23901.6
23668.3
23671.2
23675.8
23682.6
23691.8
23703.3
23717.8
23734.8
23753.5
23774.2
23792.4
23805.9
23813.5
23815.9
23816.4
23820.9
23828.3
23833.1
23836.2
23846.1
23870.9
23901.7
23666.7
23668.3
23671.2
23675.8
23682.6
23691.8
23703.3
23717.8
23734.8
23753.5
23774.2
23792.4
23805.9
23813.5
23815.9
23816.4
23820.9
23828.3
23833.1
23836.2
23846.1
23870.9
23901.8
23666.1
23666.7
23668.3
23671.2
23675.8
23682.6
23691.8
23703.3
23717.8
23734.8
23753.5
23774.2
23792.4
23805.9
23813.5
23815.9
23816.4
23820.9
23828.3
23833.1
23836.2
23846.1
23871
23901.9
23665.8
23666.1
23666.7
23668.3
23671.2
23675.8
23682.6
23691.8
23703.3
23717.8
23734.8
23753.5
23774.2
23792.4
23805.9
23813.5
23815.9
23816.4
23820.9
23828.3
23833.1
23836.2
23846.1
23871
23902
23665.6
23665.8
23666.1
23666.7
23668.3
23671.2
23675.8
23682.6
23691.8
23703.3
23717.8
23734.8
23753.5
23774.2
23792.4
23805.9
23813.5
23815.9
23816.4
23820.9
23828.3
23833.1
23836.2
23846.1
23871
23902.1
23665.5
23665.6
23665.8
23666.1
23666.7
23668.3
23671.2
23675.8
23682.6
23691.8
23703.3
23717.8
23734.8
23753.5
23774.2
23792.4
23805.9
23813.5
23815.9
23816.4
23820.9
23828.3
23833.1
23836.2
23846.1
23871.1
23902.2
23665.9
23665.5
23665.6
23665.8
23666.1
23666.7
23668.3
23671.2
23675.8
23682.6
23691.8
23703.3
23717.8
23734.8
23753.5
23774.2
23792.4
23805.9
23813.5
23815.9
23816.4
23820.9
23828.3
23833.1
23836.2
23846.1
23871.1
23902.4
23666.9
23665.9
23665.5
23665.6
23665.8
23666.1
23666.7
23668.3
23671.2
23675.8
23682.6
23691.8
23703.3
23717.8
23734.8
23753.5
23774.2
23792.4
23805.9
23813.5
23815.9
23816.4
23820.9
23828.3
23833.1
23836.2
23846.1
23871.2
23902.5
23668.6
23666.9
23665.9
23665.5
23665.6
23665.8
23666.1
23666.7
23668.3
23671.2
23675.8
23682.6
23691.8
23703.3
23717.8
23734.8
23753.5
23774.2
23792.4
23805.9
23813.5
23815.9
23816.4
23820.9
23828.3
23833.1
23836.2
23846.1
23871.2
23902.6
23671.1
23668.6
23666.9
23665.9
23665.5
23665.6
23665.8
23666.1
23666.7
23668.3
23671.2
23675.8
23682.6
23691.8
23703.3
23717.8
23734.8
23753.5
23774.2
23792.4
23805.9
23813.5
23815.9
23816.4
23820.9
23828.3
23833.2
23836.2
23846.1
23871.3
23902.7
23674.7
23671.1
23668.6
23666.9
23665.9
23665.5
23665.6
23665.8
23666.1
23666.7
23668.3
23671.2
23675.8
23682.6
23691.8
23703.3
23717.8
23734.8
23753.5
23774.2
23792.4
23805.9
23813.5
23815.9
23816.4
23820.9
23828.3
23833.2
23836.2
23846.1
23871.4
23902.7
23679.2
23674.7
23671.1
23668.6
23666.9
23665.9
23665.5
23665.6
23665.8
23666.1
23666.7
23668.3
23671.2
23675.8
23682.6
23691.8
23703.3
23717.8
23734.8
23753.5
23774.2
23792.4
23805.9
23813.5
23815.9
23816.4
23820.9
23828.3
23833.2
23836.2
23846.1
23871.5
23902.8
23684.3
23679.2
23674.7
23671.1
23668.6
23666.9
23665.9
23665.5
23665.6
23665.8
23666.1
23666.7
23668.3
23671.2
23675.8
23682.6
23691.8
23703.3
23717.8
23734.8
23753.5
23774.2
23792.4
23805.9
23813.5
23815.9
23816.4
23820.9
23828.3
23833.2
23836.2
23846.2
23871.6
23903
23689.9
23684.3
23679.2
23674.7
23671.1
23668.6
23666.9
23665.9
23665.5
23665.6
23665.8
23666.1
23666.7
23668.3
23671.2
23675.8
23682.6
23691.8
23703.3
23717.8
23734.8
23753.5
23774.2
23792.4
23805.9
23813.5
23815.9
23816.4
23820.9
23828.3
23833.2
23836.2
23846.2
23871.8
23903
23695.6
23689.9
23684.3
23679.2
23674.7
23671.1
23668.6
23666.9
23665.9
23665.5
23665.6
23665.8
23666.1
23666.7
23668.3
23671.2
23675.8
23682.6
23691.8
23703.3
23717.8
23734.8
23753.5
23774.2
23792.4
23805.9
23813.5
23815.9
23816.4
23820.9
23828.3
23833.2
23836.2
23846.2
23871.9
23903
23701.3
23695.6
23689.9
23684.3
23679.2
23674.7
23671.1
23668.6
23666.9
23665.9
23665.5
23665.6
23665.8
23666.1
23666.7
23668.3
23671.2
23675.8
23682.6
23691.8
23703.3
23717.8
23734.8
23753.5
23774.2
23792.4
23805.9
23813.5
23815.9
23816.4
23820.9
23828.3
23833.2
23836.2
23846.2
23872.1
23903.1
23704.4
23701.3
23695.6
23689.9
23684.3
23679.2
23674.7
23671.1
23668.6
23666.9
23665.9
23665.5
23665.6
23665.8
23666.1
23666.7
23668.3
23671.2
23675.8
23682.6
23691.8
23703.3
23717.8
23734.8
23753.5
23774.2
23792.4
23805.9
23813.5
23815.9
23816.4
23820.9
23828.3
23833.2
23836.2
23846.3
23872.4
23903.1
23731.8
23704.4
23701.3
23695.6
23689.9
23684.3
23679.2
23674.7
23671.1
23668.6
23666.9
23665.9
23665.5
23665.6
23665.8
23666.1
23666.7
23668.3
23671.2
23675.8
23682.6
23691.8
23703.3
23717.8
23734.8
23753.5
23774.2
23792.4
23805.9
23813.5
23815.9
23816.4
23820.9
23828.4
23833.2
23836.2
23846.3
23872.6
23903.1
23747.7
23731.8
23704.4
23701.3
23695.6
23689.9
23684.3
23679.2
23674.7
23671.1
23668.6
23666.9
23665.9
23665.5
23665.6
23665.8
23666.1
23666.7
23668.3
23671.2
23675.8
23682.6
23691.8
23703.3
23717.8
23734.8
23753.5
23774.2
23792.4
23805.9
23813.5
23815.9
23816.4
23820.9
23828.4
23833.2
23836.3
23846.3
23872.9
23903.1
23731.2
23747.7
23731.8
23704.4
23701.3
23695.6
23689.9
23684.3
23679.2
23674.7
23671.1
23668.6
23666.9
23665.9
23665.5
23665.6
23665.8
23666.1
23666.7
23668.3
23671.2
23675.8
23682.6
23691.8
23703.3
23717.8
23734.8
23753.5
23774.2
23792.4
23805.9
23813.5
23815.9
23816.4
23820.9
23828.4
23833.2
23836.3
23846.4
23873.3
23903
23728.3
23731.2
23747.7
23731.8
23704.4
23701.3
23695.6
23689.9
23684.3
23679.2
23674.7
23671.1
23668.6
23666.9
23665.9
23665.5
23665.6
23665.8
23666.1
23666.7
23668.3
23671.2
23675.8
23682.6
23691.8
23703.3
23717.8
23734.8
23753.5
23774.2
23792.4
23805.9
23813.5
23815.9
23816.4
23820.9
23828.4
23833.2
23836.3
23846.5
23873.6
23902.7
23752.1
23728.3
23731.2
23747.7
23731.8
23704.4
23701.3
23695.6
23689.8
23684.3
23679.2
23674.7
23671.1
23668.6
23666.9
23665.9
23665.5
23665.6
23665.8
23666.1
23666.7
23668.3
23671.2
23675.8
23682.6
23691.8
23703.3
23717.8
23734.8
23753.5
23774.2
23792.4
23805.9
23813.5
23815.9
23816.4
23820.9
23828.4
23833.2
23836.3
23846.6
23874
23902.4
23743.2
23752.1
23728.3
23731.2
23747.7
23731.8
23704.4
23701.3
23695.6
23689.9
23684.3
23679.2
23674.7
23671.1
23668.6
23666.9
23665.9
23665.5
23665.6
23665.8
23666.1
23666.7
23668.3
23671.2
23675.8
23682.6
23691.8
23703.3
23717.8
23734.8
23753.5
23774.2
23792.4
23805.9
23813.5
23815.9
23816.4
23821
23828.4
23833.3
23836.3
23846.7
23874.3
23901.2
23723
23743.2
23752.1
23728.3
23731.2
23747.7
23731.8
23704.4
23701.3
23695.6
23689.9
23684.3
23679.2
23674.7
23671.1
23668.6
23666.9
23665.9
23665.5
23665.6
23665.8
23666.1
23666.7
23668.3
23671.2
23675.8
23682.6
23691.8
23703.3
23717.8
23734.8
23753.5
23774.2
23792.4
23805.9
23813.5
23815.9
23816.4
23821
23828.4
23833.3
23836.4
23846.8
23874.6
23900.1
23720.3
23723
23743.2
23752.1
23728.3
23731.2
23747.7
23731.8
23704.4
23701.3
23695.6
23689.8
23684.3
23679.2
23674.7
23671.1
23668.6
23666.9
23665.9
23665.5
23665.6
23665.8
23666.1
23666.7
23668.3
23671.2
23675.8
23682.6
23691.8
23703.3
23717.8
23734.8
23753.5
23774.2
23792.4
23805.9
23813.5
23815.9
23816.4
23821
23828.5
23833.3
23836.4
23846.9
23874.7
23898.8
23718.2
23720.3
23723
23743.2
23752.1
23728.3
23731.2
23747.7
23731.8
23704.4
23701.3
23695.6
23689.9
23684.3
23679.2
23674.7
23671.1
23668.6
23666.9
23665.9
23665.5
23665.6
23665.8
23666.1
23666.7
23668.3
23671.2
23675.8
23682.6
23691.8
23703.3
23717.8
23734.8
23753.5
23774.2
23792.5
23805.9
23813.5
23815.9
23816.4
23821
23828.5
23833.3
23836.5
23847.1
23875.5
23897.6
23718.5
23718.2
23720.3
23723
23743.2
23752.1
23728.3
23731.2
23747.7
23731.8
23704.4
23701.3
23695.6
23689.9
23684.3
23679.2
23674.7
23671.1
23668.6
23666.9
23665.9
23665.5
23665.6
23665.8
23666.1
23666.7
23668.3
23671.2
23675.8
23682.6
23691.8
23703.3
23717.8
23734.8
23753.5
23774.2
23792.5
23805.9
23813.5
23815.9
23816.4
23821
23828.5
23833.4
23836.5
23847.3
23876.2
23896.7
23719.6
23718.5
23718.2
23720.3
23723
23743.2
23752.1
23728.2
23731.2
23747.7
23731.8
23704.4
23701.3
23695.6
23689.9
23684.3
23679.2
23674.7
23671.1
23668.6
23666.9
23665.9
23665.5
23665.6
23665.8
23666.1
23666.7
23668.3
23671.2
23675.8
23682.6
23691.8
23703.3
23717.8
23734.8
23753.5
23774.2
23792.5
23805.9
23813.6
23815.9
23816.5
23821
23828.5
23833.4
23836.6
23847.5
23877.1
23895.9
23719.2
23719.6
23718.5
23718.2
23720.3
23723
23743.2
23752.1
23728.2
23731.2
23747.7
23731.8
23704.4
23701.3
23695.6
23689.8
23684.3
23679.2
23674.7
23671.1
23668.6
23666.9
23665.9
23665.5
23665.6
23665.8
23666.1
23666.7
23668.3
23671.2
23675.8
23682.6
23691.8
23703.3
23717.8
23734.8
23753.5
23774.2
23792.5
23806
23813.6
23816
23816.5
23821.1
23828.6
23833.5
23836.7
23847.7
23877.6
23894.7
23719.7
23719.2
23719.6
23718.5
23718.2
23720.3
23723
23743.2
23752.1
23728.2
23731.2
23747.7
23731.8
23704.4
23701.3
23695.6
23689.8
23684.3
23679.2
23674.7
23671.1
23668.6
23666.9
23665.9
23665.5
23665.6
23665.8
23666.1
23666.7
23668.3
23671.2
23675.8
23682.6
23691.8
23703.4
23717.8
23734.8
23753.6
23774.3
23792.5
23806
23813.6
23816
23816.5
23821.1
23828.6
23833.5
23836.8
23848
23877.6
23893.3
23718.9
23719.7
23719.2
23719.6
23718.5
23718.2
23720.3
23723
23743.2
23752.1
23728.2
23731.2
23747.7
23731.8
23704.4
23701.3
23695.6
23689.8
23684.3
23679.2
23674.7
23671.1
23668.6
23666.9
23665.9
23665.5
23665.6
23665.8
23666.1
23666.7
23668.3
23671.2
23675.8
23682.6
23691.8
23703.4
23717.8
23734.9
23753.6
23774.3
23792.5
23806
23813.6
23816
23816.5
23821.1
23828.7
23833.6
23837
23848.4
23877.5
23891.7
23718.7
23718.9
23719.7
23719.2
23719.6
23718.5
23718.2
23720.3
23723
23743.2
23752.1
23728.3
23731.2
23747.7
23731.8
23704.4
23701.3
23695.6
23689.8
23684.3
23679.2
23674.7
23671.1
23668.6
23666.9
23665.9
23665.5
23665.6
23665.8
23666.1
23666.7
23668.3
23671.2
23675.8
23682.6
23691.8
23703.4
23717.8
23734.9
23753.6
23774.3
23792.5
23806
23813.6
23816
23816.6
23821.2
23828.7
23833.7
23837.2
23848.9
23877.4
23889.9
23720.1
23718.7
23718.9
23719.7
23719.2
23719.6
23718.5
23718.2
23720.3
23723
23743.2
23752.1
23728.3
23731.2
23747.7
23731.8
23704.4
23701.3
23695.6
23689.8
23684.3
23679.2
23674.7
23671.1
23668.6
23666.9
23665.9
23665.5
23665.6
23665.8
23666.1
23666.7
23668.3
23671.2
23675.8
23682.6
23691.8
23703.4
23717.8
23734.9
23753.6
23774.3
23792.5
23806
23813.6
23816
23816.6
23821.2
23828.8
23833.8
23837.5
23849.4
23877.6
23888.5
23720.2
23720.1
23718.7
23718.9
23719.7
23719.2
23719.6
23718.5
23718.2
23720.3
23723
23743.2
23752.1
23728.3
23731.2
23747.7
23731.8
23704.4
23701.3
23695.6
23689.8
23684.3
23679.2
23674.7
23671.1
23668.6
23666.9
23665.9
23665.5
23665.6
23665.8
23666.1
23666.7
23668.3
23671.2
23675.8
23682.6
23691.8
23703.4
23717.8
23734.9
23753.6
23774.3
23792.5
23806
23813.7
23816.1
23816.6
23821.3
23828.9
23833.9
23837.8
23850.1
23877.4
23886.6
23787.5
23720.2
23720.1
23718.7
23718.9
23719.7
23719.2
23719.6
23718.5
23718.2
23720.3
23723
23743.2
23752.1
23728.3
23731.2
23747.7
23731.8
23704.4
23701.3
23695.6
23689.8
23684.3
23679.2
23674.7
23671.1
23668.6
23666.9
23665.9
23665.5
23665.6
23665.8
23666.1
23666.7
23668.3
23671.2
23675.8
23682.6
23691.8
23703.4
23717.8
23734.9
23753.6
23774.3
23792.6
23806.1
23813.7
23816.1
23816.7
23821.3
23829
23834.1
23838.1
23850.8
23877.4
23884.8
29227
23787.5
23720.2
23720.1
23718.7
23718.9
23719.7
23719.2
23719.6
23718.5
23718.2
23720.3
23723
23743.2
23752.1
23728.3
23731.2
23747.7
23731.8
23704.4
23701.3
23695.6
23689.8
23684.3
23679.2
23674.7
23671.1
23668.6
23666.9
23665.9
23665.5
23665.6
23665.8
23666.1
23666.7
23668.3
23671.2
23675.8
23682.6
23691.8
23703.4
23717.8
23734.9
23753.6
23774.3
23792.6
23806.1
23813.7
23816.1
23816.7
23821.4
23829.1
23834.3
23838.6
23851.5
23877.4
23882.8
42807.9
29228.4
23787.5
23720.2
23720.1
23718.7
23718.9
23719.7
23719.2
23719.6
23718.5
23718.2
23720.3
23723
23743.2
23752.1
23728.3
23731.1
23747.7
23731.8
23704.3
23701.3
23695.6
23689.8
23684.3
23679.2
23674.7
23671.1
23668.6
23666.9
23665.9
23665.5
23665.6
23665.8
23666.1
23666.7
23668.3
23671.2
23675.8
23682.7
23691.8
23703.4
23717.9
23734.9
23753.6
23774.4
23792.6
23806.1
23813.8
23816.2
23816.8
23821.5
23829.2
23834.6
23839
23852.2
23877.4
23880.6
47188.1
42809.2
29227.9
23787.5
23720.2
23720.1
23718.7
23718.9
23719.7
23719.2
23719.6
23718.5
23718.2
23720.3
23723
23743.2
23752.1
23728.3
23731.1
23747.7
23731.8
23704.3
23701.3
23695.6
23689.8
23684.3
23679.2
23674.7
23671.1
23668.6
23666.9
23665.9
23665.5
23665.6
23665.8
23666.1
23666.7
23668.3
23671.2
23675.8
23682.7
23691.9
23703.4
23717.9
23734.9
23753.7
23774.4
23792.6
23806.1
23813.8
23816.2
23816.9
23821.6
23829.4
23834.9
23839.5
23852.6
23877.9
23878.2
49389.4
47188.2
42808.5
29227.8
23787.5
23720.2
23720.1
23718.7
23718.9
23719.7
23719.2
23719.6
23718.5
23718.2
23720.3
23723
23743.2
23752.1
23728.3
23731.1
23747.7
23731.8
23704.3
23701.3
23695.6
23689.8
23684.3
23679.2
23674.7
23671.1
23668.6
23666.9
23665.9
23665.5
23665.6
23665.8
23666.1
23666.7
23668.3
23671.2
23675.8
23682.7
23691.9
23703.4
23717.9
23734.9
23753.7
23774.4
23792.7
23806.2
23813.9
23816.3
23817
23821.8
23829.6
23835.3
23840
23852.3
23878
23875.6
50444.7
49389.4
47188.1
42808.4
29227.5
23787.6
23720.2
23720.1
23718.7
23718.9
23719.7
23719.2
23719.6
23718.5
23718.2
23720.3
23723
23743.2
23752.1
23728.3
23731.1
23747.7
23731.8
23704.3
23701.3
23695.6
23689.8
23684.3
23679.2
23674.7
23671.1
23668.6
23666.9
23665.9
23665.5
23665.6
23665.8
23666.1
23666.8
23668.3
23671.2
23675.8
23682.7
23691.9
23703.4
23717.9
23735
23753.7
23774.4
23792.7
23806.2
23813.9
23816.4
23817.1
23821.9
23829.9
23835.7
23840.7
23852.3
23878.2
23872.7
51125.2
50444.6
49389.4
47188
42808.2
29227.2
23787.5
23720.2
23720.1
23718.7
23718.9
23719.7
23719.2
23719.6
23718.5
23718.2
23720.3
23723
23743.2
23752.1
23728.3
23731.1
23747.8
23731.8
23704.3
23701.3
23695.6
23689.8
23684.3
23679.2
23674.7
23671.1
23668.6
23666.9
23665.9
23665.5
23665.6
23665.8
23666.1
23666.8
23668.3
23671.2
23675.8
23682.7
23691.9
23703.4
23717.9
23735
23753.7
23774.5
23792.8
23806.3
23814
23816.5
23817.2
23822.1
23830.2
23836.2
23841.4
23852.3
23878
23869.6
51601.3
51125
50444.6
49389.4
47188
42807.9
29226.9
23787.5
23720.2
23720.1
23718.7
23718.9
23719.7
23719.2
23719.6
23718.5
23718.2
23720.3
23723
23743.2
23752.1
23728.3
23731
23747.8
23731.8
23704.3
23701.3
23695.6
23689.8
23684.3
23679.2
23674.7
23671.1
23668.6
23666.9
23665.9
23665.5
23665.6
23665.8
23666.1
23666.8
23668.3
23671.2
23675.9
23682.7
23691.9
23703.5
23717.9
23735
23753.8
23774.5
23792.8
23806.4
23814.1
23816.6
23817.4
23822.3
23830.5
23836.7
23842.2
23852.4
23877.8
23865.8
51998.6
51601.1
51125.1
50444.6
49389.3
47187.9
42807.4
29226.1
23787.5
23720.2
23720.1
23718.7
23718.9
23719.7
23719.2
23719.6
23718.5
23718.2
23720.3
23723
23743.2
23752.1
23728.3
23731
23747.8
23731.8
23704.3
23701.2
23695.6
23689.8
23684.3
23679.2
23674.7
23671.1
23668.6
23666.9
23665.9
23665.5
23665.6
23665.9
23666.1
23666.8
23668.3
23671.2
23675.9
23682.7
23691.9
23703.5
23718
23735.1
23753.8
23774.6
23792.9
23806.4
23814.2
23816.7
23817.5
23822.6
23831
23837.1
23842.3
23852.8
23877.8
23861.7
52316.1
51998.4
51601.2
51125
50444.6
49389.3
47187.9
42807.1
29225.7
23787.6
23720.2
23720.1
23718.7
23718.9
23719.7
23719.2
23719.6
23718.5
23718.2
23720.3
23723
23743.2
23752.1
23728.3
23731
23747.8
23731.9
23704.3
23701.2
23695.6
23689.8
23684.3
23679.2
23674.7
23671.1
23668.6
23666.9
23665.9
23665.5
23665.6
23665.9
23666.1
23666.8
23668.3
23671.2
23675.9
23682.7
23691.9
23703.5
23718
23735.1
23753.9
23774.6
23792.9
23806.5
23814.3
23816.9
23817.7
23822.9
23831.5
23837.8
23842.1
23853.2
23877.8
23857.1
52591.5
52315.9
51998.4
51601.1
51125
50444.6
49389.3
47187.8
42806.4
29225
23787.6
23720.2
23720.1
23718.7
23718.9
23719.7
23719.2
23719.6
23718.5
23718.2
23720.3
23723
23743.2
23752.1
23728.3
23730.9
23747.8
23731.9
23704.3
23701.2
23695.6
23689.8
23684.3
23679.2
23674.7
23671.1
23668.6
23666.9
23665.9
23665.5
23665.6
23665.9
23666.1
23666.8
23668.4
23671.3
23675.9
23682.8
23692
23703.5
23718
23735.1
23753.9
23774.7
23793
23806.6
23814.4
23817
23818
23823.3
23831.9
23838.5
23841.4
23853.6
23877.8
23852.1
52830.1
52591.3
52316
51998.4
51601.1
51125
50444.6
49389.3
47187.7
42806.2
29224.6
23787.6
23720.2
23720.1
23718.7
23718.9
23719.7
23719.2
23719.6
23718.5
23718.2
23720.3
23723
23743.2
23752.1
23728.3
23730.9
23747.9
23731.9
23704.3
23701.2
23695.6
23689.8
23684.3
23679.2
23674.7
23671.1
23668.6
23666.9
23665.9
23665.5
23665.6
23665.9
23666.2
23666.8
23668.4
23671.3
23675.9
23682.8
23692
23703.6
23718.1
23735.2
23754
23774.8
23793.1
23806.7
23814.6
23817.2
23818.3
23823.7
23832.3
23839.4
23841.4
23854.1
23877.8
23846.4
53045.3
52830
52591.4
52316
51998.4
51601.1
51125
50444.6
49389.2
47187.6
42805.4
29224.3
23787.6
23720.2
23720.1
23718.7
23718.9
23719.7
23719.2
23719.6
23718.5
23718.2
23720.3
23722.9
23743.2
23752.2
23728.3
23730.9
23747.9
23731.9
23704.3
23701.2
23695.6
23689.8
23684.3
23679.2
23674.7
23671.2
23668.6
23666.9
23666
23665.5
23665.6
23665.9
23666.2
23666.8
23668.4
23671.3
23675.9
23682.8
23692
23703.6
23718.1
23735.2
23754
23774.8
23793.2
23806.9
23814.7
23817.5
23818.7
23824.2
23832.8
23839.1
23841.5
23854.5
23877.7
23840.1
53236.9
53045.2
52830
52591.4
52315.9
51998.4
51601.1
51125
50444.5
49389.2
47187.5
42805.4
29223.7
23787.5
23720.2
23720.1
23718.7
23718.9
23719.7
23719.2
23719.6
23718.5
23718.2
23720.3
23722.9
23743.1
23752.2
23728.3
23730.8
23747.9
23731.9
23704.3
23701.2
23695.6
23689.8
23684.3
23679.2
23674.7
23671.2
23668.6
23666.9
23666
23665.5
23665.6
23665.9
23666.2
23666.8
23668.4
23671.3
23676
23682.8
23692.1
23703.7
23718.2
23735.3
23754.1
23774.9
23793.3
23807
23814.9
23817.8
23819.1
23824.7
23833.7
23838.5
23841.7
23855.1
23877.7
23833
53409.9
53236.7
53045.2
52830
52591.3
52315.9
51998.3
51601.1
51125
50444.5
49389.1
47187.4
42805
29223.3
23787.4
23720.2
23720.1
23718.7
23718.9
23719.7
23719.2
23719.6
23718.5
23718.2
23720.3
23722.9
23743.1
23752.2
23728.3
23730.8
23747.9
23731.9
23704.3
23701.2
23695.6
23689.8
23684.3
23679.2
23674.7
23671.2
23668.6
23666.9
23666
23665.5
23665.6
23665.9
23666.2
23666.8
23668.4
23671.3
23676
23682.9
23692.1
23703.7
23718.2
23735.4
23754.2
23775.1
23793.5
23807.2
23815.2
23818.1
23819.5
23825
23834.5
23838.2
23841.9
23855.7
23877.6
23825.7
53564
53409.8
53236.8
53045.2
52830
52591.3
52315.9
51998.3
51601
51125
50444.5
49389.1
47187.3
42804.9
29222.7
23787.3
23720.2
23720.1
23718.7
23718.9
23719.7
23719.2
23719.6
23718.5
23718.2
23720.3
23722.9
23743.1
23752.2
23728.2
23730.8
23748
23731.9
23704.3
23701.2
23695.6
23689.8
23684.3
23679.2
23674.7
23671.2
23668.6
23666.9
23666
23665.5
23665.7
23665.9
23666.2
23666.9
23668.4
23671.4
23676
23682.9
23692.2
23703.8
23718.3
23735.5
23754.3
23775.2
23793.6
23807.4
23815.5
23818.5
23820.1
23825.6
23834.2
23838.2
23842.1
23856.3
23877.4
23817.8
53700.9
53563.8
53409.8
53236.8
53045.2
52829.9
52591.3
52315.9
51998.3
51601
51124.9
50444.5
49389
47187.2
42804.5
29221.6
23787.1
23720.2
23720.1
23718.7
23718.9
23719.7
23719.2
23719.6
23718.5
23718.2
23720.3
23722.9
23743.1
23752.2
23728.2
23730.7
23748
23731.9
23704.3
23701.2
23695.6
23689.8
23684.3
23679.2
23674.7
23671.2
23668.6
23667
23666
23665.6
23665.7
23665.9
23666.2
23666.9
23668.5
23671.4
23676.1
23683
23692.2
23703.8
23718.4
23735.6
23754.4
23775.3
23793.8
23807.7
23815.8
23819
23820.4
23826.9
23833
23838.4
23842.3
23857
23877.2
23809
53819.9
53700.8
53563.9
53409.8
53236.8
53045.2
52829.9
52591.2
52315.8
51998.2
51601
51124.9
50444.5
49389
47187
42804.3
29220.7
23786.8
23720.2
23720.1
23718.7
23718.9
23719.7
23719.2
23719.6
23718.5
23718.2
23720.3
23722.9
23743.1
23752.2
23728.2
23730.7
23748
23731.9
23704.2
23701.2
23695.6
23689.8
23684.3
23679.2
23674.7
23671.2
23668.6
23667
23666
23665.6
23665.7
23665.9
23666.3
23666.9
23668.5
23671.4
23676.1
23683
23692.3
23703.9
23718.5
23735.7
23754.6
23775.5
23794
23808
23816.2
23819.5
23820.8
23827.1
23833
23838.5
23842.6
23857.7
23876.9
23799.2
53922.4
53819.8
53700.8
53563.9
53409.8
53236.7
53045.1
52829.9
52591.2
52315.8
51998.2
51601
51124.9
50444.4
49388.9
47186.8
42804.3
29219.8
23786.6
23720.2
23720.1
23718.7
23718.9
23719.7
23719.2
23719.6
23718.5
23718.2
23720.3
23722.9
23743.1
23752.2
23728.2
23730.7
23748
23731.9
23704.2
23701.2
23695.6
23689.8
23684.3
23679.2
23674.7
23671.2
23668.6
23667
23666
23665.6
23665.7
23666
23666.3
23666.9
23668.5
23671.5
23676.2
23683.1
23692.4
23704
23718.6
23735.8
23754.7
23775.7
23794.3
23808.3
23816.6
23819.8
23822
23825.9
23833.1
23838.7
23843
23858.5
23876.6
23788.5
54009.7
53922.2
53819.8
53700.8
53563.9
53409.8
53236.7
53045.1
52829.9
52591.2
52315.7
51998.2
51600.9
51124.9
50444.4
49388.8
47186.7
42804
29218.7
23786.5
23720.2
23720.1
23718.7
23718.9
23719.7
23719.2
23719.6
23718.5
23718.2
23720.3
23722.9
23743.1
23752.2
23728.2
23730.7
23748
23731.9
23704.2
23701.2
23695.6
23689.8
23684.3
23679.2
23674.7
23671.2
23668.7
23667
23666
23665.6
23665.7
23666
23666.3
23667
23668.6
23671.5
23676.2
23683.1
23692.4
23704.1
23718.7
23736
23754.9
23775.9
23794.6
23808.7
23817.1
23820.1
23822.7
23825.6
23833.2
23838.9
23843.4
23859.4
23876
23776.5
54083.3
54009.6
53922.3
53819.8
53700.8
53563.9
53409.8
53236.7
53045.1
52829.8
52591.1
52315.7
51998.1
51600.9
51124.8
50444.4
49388.7
47186.5
42803.4
29217.4
23786.4
23720.2
23720.1
23718.7
23718.9
23719.7
23719.2
23719.6
23718.5
23718.2
23720.3
23722.8
23743.1
23752.3
23728.1
23730.7
23748.1
23732
23704.2
23701.2
23695.6
23689.8
23684.3
23679.2
23674.7
23671.2
23668.7
23667
23666.1
23665.6
23665.7
23666
23666.3
23667
23668.6
23671.6
23676.3
23683.2
23692.5
23704.2
23718.9
23736.2
23755.1
23776.2
23794.9
23809.1
23817.3
23821.5
23821.5
23825.7
23833.3
23839.1
23843.9
23860.2
23875.3
23763.3
54144.9
54083.2
54009.7
53922.3
53819.8
53700.8
53563.8
53409.7
53236.7
53045.1
52829.8
52591.1
52315.6
51998.1
51600.9
51124.8
50444.4
49388.6
47186.3
42802.9
29216.2
23786.2
23720.1
23720.1
23718.7
23718.9
23719.7
23719.2
23719.6
23718.5
23718.2
23720.3
23722.8
23743.1
23752.3
23728.1
23730.7
23748.1
23732
23704.2
23701.2
23695.6
23689.8
23684.3
23679.2
23674.7
23671.2
23668.7
23667
23666.1
23665.6
23665.8
23666.1
23666.4
23667.1
23668.7
23671.7
23676.4
23683.3
23692.7
23704.4
23719
23736.4
23755.4
23776.5
23795.3
23809.6
23817.4
23822.2
23821.1
23825.9
23833.4
23839.3
23844.5
23861.2
23874.4
23748.1
54196.8
54144.8
54083.2
54009.6
53922.3
53819.8
53700.8
53563.8
53409.7
53236.7
53045
52829.7
52591
52315.6
51998
51600.8
51124.8
50444.3
49388.6
47186.1
42802.5
29214.6
23786.1
23720.1
23720.1
23718.7
23718.9
23719.7
23719.2
23719.6
23718.5
23718.2
23720.3
23722.8
23743.1
23752.3
23728.1
23730.8
23748.1
23732
23704.2
23701.2
23695.6
23689.8
23684.3
23679.2
23674.7
23671.2
23668.7
23667
23666.1
23665.7
23665.8
23666.1
23666.4
23667.1
23668.8
23671.7
23676.5
23683.4
23692.8
23704.5
23719.2
23736.6
23755.7
23776.9
23795.8
23809.8
23819.4
23820.6
23821.3
23826
23833.5
23839.6
23845.1
23862.1
23873.1
23731.7
54240.7
54196.6
54144.9
54083.2
54009.6
53922.3
53819.8
53700.8
53563.8
53409.7
53236.6
53045
52829.7
52591
52315.5
51998
51600.8
51124.7
50444.3
49388.5
47185.9
42802.1
29213
23786
23720.1
23720.1
23718.7
23718.9
23719.7
23719.2
23719.6
23718.5
23718.1
23720.3
23722.8
23743.1
23752.3
23728
23730.8
23748.1
23732.1
23704.2
23701.2
23695.6
23689.8
23684.3
23679.2
23674.8
23671.3
23668.7
23667.1
23666.1
23665.7
23665.8
23666.1
23666.5
23667.2
23668.8
23671.8
23676.6
23683.6
23692.9
23704.7
23719.5
23736.9
23756
23777.2
23796.1
23810
23819.3
23820.5
23821.5
23826.2
23833.6
23839.8
23845.9
23863
23871.3
23713.9
54278.9
54240.6
54196.7
54144.9
54083.2
54009.6
53922.3
53819.8
53700.8
53563.8
53409.7
53236.6
53045
52829.7
52590.9
52315.5
51997.9
51600.7
51124.7
50444.2
49388.4
47185.7
42801.7
29211.3
23785.8
23720
23720
23718.7
23718.9
23719.7
23719.2
23719.6
23718.5
23718.1
23720.2
23722.8
23743.1
23752.3
23728
23730.8
23748
23732.1
23704.2
23701.2
23695.6
23689.9
23684.3
23679.2
23674.8
23671.3
23668.7
23667.1
23666.1
23665.7
23665.9
23666.2
23666.5
23667.3
23668.9
23671.9
23676.7
23683.7
23693.1
23704.9
23719.7
23737.2
23756.4
23777.8
23796.3
23811.9
23817.6
23820.5
23821.7
23826.4
23833.7
23840.2
23846.9
23863.8
23868.5
23694.9
54313.3
54278.8
54240.7
54196.7
54144.9
54083.2
54009.6
53922.2
53819.7
53700.8
53563.8
53409.7
53236.6
53044.9
52829.6
52590.9
52315.4
51997.9
51600.7
51124.6
50444.1
49388.2
47185.6
42801.4
29209.2
23785.6
23720
23720
23718.7
23718.9
23719.7
23719.2
23719.6
23718.5
23718.1
23720.2
23722.8
23743.2
23752.3
23727.9
23731
23748
23732.1
23704.2
23701.2
23695.6
23689.9
23684.3
23679.3
23674.8
23671.3
23668.8
23667.1
23666.2
23665.8
23665.9
23666.2
23666.6
23667.3
23669
23672
23676.8
23683.9
23693.3
23705.2
23720
23737.6
23756.8
23777.9
23797.3
23810.9
23817.4
23820.7
23822
23826.6
23833.9
23840.6
23848.1
23864.6
23865
23675
54345.3
54313.1
54278.9
54240.7
54196.7
54144.9
54083.2
54009.6
53922.2
53819.7
53700.7
53563.8
53409.6
53236.6
53044.9
52829.6
52590.8
52315.4
51997.8
51600.6
51124.6
50444
49388.1
47185.5
42801.2
29206.9
23785.5
23720
23720
23718.7
23718.9
23719.7
23719.2
23719.6
23718.5
23718.1
23720.2
23722.8
23743.2
23752.3
23727.9
23731.1
23748
23732.2
23704.2
23701.2
23695.6
23689.9
23684.4
23679.3
23674.8
23671.3
23668.8
23667.2
23666.2
23665.8
23666
23666.3
23666.7
23667.4
23669.1
23672.2
23677
23684.1
23693.6
23705.5
23720.3
23738
23757.3
23778
23798.4
23810
23817.4
23820.9
23822.4
23826.9
23834
23841
23849.4
23864.8
23859.2
23654.4
54375.2
54345.2
54313.2
54278.9
54240.7
54196.7
54144.8
54083.2
54009.6
53922.2
53819.7
53700.7
53563.7
53409.6
53236.5
53044.9
52829.5
52590.7
52315.3
51997.8
51600.6
51124.5
50443.9
49387.9
47185
42800.9
29204.5
23785.3
23719.9
23720
23718.7
23718.9
23719.7
23719.2
23719.6
23718.5
23718.1
23720.2
23722.8
23743.2
23752.2
23727.8
23731.3
23748
23732.2
23704.2
23701.2
23695.6
23689.9
23684.4
23679.3
23674.8
23671.4
23668.8
23667.2
23666.3
23665.9
23666
23666.4
23666.8
23667.5
23669.3
23672.3
23677.2
23684.3
23693.8
23705.8
23720.7
23738.5
23757.5
23780.1
23796.6
23809.5
23817.4
23821.1
23822.7
23827.1
23834.1
23841.5
23851.1
23864.8
23852.6
23633.6
54407
54375
54345.2
54313.2
54278.9
54240.7
54196.7
54144.8
54083.2
54009.6
53922.2
53819.7
53700.7
53563.7
53409.6
53236.5
53044.8
52829.4
52590.7
52315.2
51997.7
51600.5
51124.4
50443.8
49387.7
47184.6
42801.6
29201.7
23785.1
23719.8
23720
23718.7
23718.9
23719.7
23719.2
23719.6
23718.4
23718.1
23720.1
23722.7
23743.3
23752.2
23727.7
23731.5
23747.9
23732.1
23704.2
23701.2
23695.6
23689.9
23684.4
23679.3
23674.9
23671.4
23668.9
23667.2
23666.3
23665.9
23666.1
23666.5
23666.9
23667.7
23669.4
23672.5
23677.4
23684.5
23694.1
23706.2
23721.1
23738.8
23758.2
23779.4
23796
23809.7
23817.4
23821.2
23823.2
23827.5
23834.3
23842.1
23853
23864.7
23842.8
23613.3
54439.5
54406.8
54375.1
54345.2
54313.2
54278.9
54240.7
54196.7
54144.8
54083.2
54009.6
53922.2
53819.7
53700.7
53563.7
53409.6
53236.5
53044.8
52829.4
52590.6
52315.2
51997.6
51600.4
51124.3
50443.6
49387.5
47184.3
42801.9
29198.3
23784.9
23719.8
23720
23718.7
23718.9
23719.6
23719.1
23719.6
23718.4
23718
23720.1
23722.7
23743.3
23752.2
23727.7
23731.8
23747.8
23732.1
23704.3
23701.2
23695.6
23689.9
23684.4
23679.3
23674.9
23671.4
23668.9
23667.3
23666.4
23666
23666.2
23666.6
23667
23667.8
23669.6
23672.7
23677.6
23684.8
23694.5
23706.5
23721.6
23738.8
23759.9
23777.9
23796
23809.5
23817.4
23821.5
23823.7
23827.8
23834.5
23842.9
23854.9
23864.6
23829.9
23594
54474.1
54439.4
54406.9
54375.1
54345.2
54313.2
54278.8
54240.6
54196.6
54144.8
54083.1
54009.6
53922.2
53819.7
53700.7
53563.7
53409.5
53236.4
53044.7
52829.3
52590.5
52315.1
51997.5
51600.3
51124.2
50443.5
49387.3
47184.1
42800.2
29194.5
23784.7
23719.7
23720
23718.7
23718.9
23719.6
23719.1
23719.5
23718.4