/*--------------------------------*- C++ -*----------------------------------*\
| =========                 |                                                 |
| \\      /  F ield         | OpenFOAM: The Open Source CFD Toolbox           |
|  \\    /   O peration     | Version:  v2012                                 |
|   \\  /    A nd           | Website:  www.openfoam.com                      |
|    \\/     M anipulation  |                                                 |
\*---------------------------------------------------------------------------*/
FoamFile
{
    version     2.0;
    format      ascii;
    class       volScalarField;
    location    "0";
    object      p1;
}
// * * * * * * * * * * * * * * * * * * * * * * * * * * * * * * * * * * * * * //

dimensions      [0 1 0 0 0 0 0];


internalField   nonuniform List<scalar> 
31383
(
4.85683e-11
5.1194e-11
1.18827e-10
4.93037e-11
1.70084e-10
2.77275e-10
4.78692e-11
1.62997e-10
1.01467e-09
8.58705e-10
4.68023e-11
1.5759e-10
9.68514e-10
4.13646e-09
2.39427e-09
4.59232e-11
1.53569e-10
9.3314e-10
3.94706e-09
1.21272e-08
5.67868e-09
4.51644e-11
1.50263e-10
9.06839e-10
3.80186e-09
1.15734e-08
2.89786e-08
1.19535e-08
4.45197e-11
1.47425e-10
8.85226e-10
3.6939e-09
1.11486e-08
2.76698e-08
6.03534e-08
2.31247e-08
4.39728e-11
1.45006e-10
8.6673e-10
3.60517e-09
1.08326e-08
2.66644e-08
5.76938e-08
1.13556e-07
4.2068e-08
4.34884e-11
1.42953e-10
8.50921e-10
3.52925e-09
1.05729e-08
2.59155e-08
5.56427e-08
1.0877e-07
1.96829e-07
7.30232e-08
4.30514e-11
1.41146e-10
8.37502e-10
3.46437e-09
1.03506e-08
2.52994e-08
5.41128e-08
1.05056e-07
1.89111e-07
3.17866e-07
1.22031e-07
4.26438e-11
1.39515e-10
8.2574e-10
3.40926e-09
1.01605e-08
2.47721e-08
5.28522e-08
1.02276e-07
1.83059e-07
3.06654e-07
4.82146e-07
1.97294e-07
4.2266e-11
1.37996e-10
8.15106e-10
3.36098e-09
9.99913e-09
2.43211e-08
5.17714e-08
9.99801e-08
1.78509e-07
2.97719e-07
4.67372e-07
6.92232e-07
3.09326e-07
4.19151e-11
1.3659e-10
8.05209e-10
3.31736e-09
9.85768e-09
2.39377e-08
5.0846e-08
9.80072e-08
1.74735e-07
2.90968e-07
4.55339e-07
6.7439e-07
9.48663e-07
4.70397e-07
4.15974e-11
1.35283e-10
7.9606e-10
3.27674e-09
9.7299e-09
2.36015e-08
5.0059e-08
9.63166e-08
1.71481e-07
2.85338e-07
4.46202e-07
6.59454e-07
9.28701e-07
1.25157e-06
6.93528e-07
4.13089e-11
1.34107e-10
7.87561e-10
3.23919e-09
9.6109e-09
2.32979e-08
4.93687e-08
9.48751e-08
1.68689e-07
2.8045e-07
4.38535e-07
6.48059e-07
9.11351e-07
1.23073e-06
1.60278e-06
9.92233e-07
4.10521e-11
1.33041e-10
7.79928e-10
3.20433e-09
9.50091e-09
2.30151e-08
4.87445e-08
9.36092e-08
1.66301e-07
2.7626e-07
4.31825e-07
6.38438e-07
8.98057e-07
1.21158e-06
1.58225e-06
2.00837e-06
1.37774e-06
4.08204e-11
1.32089e-10
7.73023e-10
3.17301e-09
9.39874e-09
2.27537e-08
4.81629e-08
9.24643e-08
1.64199e-07
2.72657e-07
4.26081e-07
6.29953e-07
8.86778e-07
1.19685e-06
1.56167e-06
1.98881e-06
2.47677e-06
1.8553e-06
4.0614e-11
1.31236e-10
7.6685e-10
3.14467e-09
9.307e-09
2.25108e-08
4.76253e-08
9.13946e-08
1.62297e-07
2.69477e-07
4.21107e-07
6.2267e-07
8.76746e-07
1.18433e-06
1.54579e-06
1.96662e-06
2.45927e-06
3.01716e-06
2.41859e-06
4.04277e-11
1.30472e-10
7.6133e-10
3.11935e-09
9.22391e-09
2.22926e-08
4.71254e-08
9.0407e-08
1.60512e-07
2.66598e-07
4.16692e-07
6.16337e-07
8.68086e-07
1.17307e-06
1.53229e-06
1.94944e-06
2.43534e-06
3.00324e-06
3.63927e-06
3.04615e-06
4.02617e-11
1.29788e-10
7.56378e-10
3.0967e-09
9.14973e-09
2.20951e-08
4.66762e-08
8.94876e-08
1.58867e-07
2.63882e-07
4.12708e-07
6.1068e-07
8.60543e-07
1.16325e-06
1.52006e-06
1.93479e-06
2.41674e-06
2.97748e-06
3.63125e-06
4.3535e-06
3.71663e-06
4.01128e-11
1.29177e-10
7.51959e-10
3.07637e-09
9.08338e-09
2.19186e-08
4.62692e-08
8.86606e-08
1.57333e-07
2.61388e-07
4.08926e-07
6.05595e-07
8.53766e-07
1.15471e-06
1.50931e-06
1.92154e-06
2.40085e-06
2.95737e-06
3.60371e-06
4.35441e-06
5.17036e-06
4.41929e-06
3.99797e-11
1.28631e-10
7.48019e-10
3.05826e-09
9.02381e-09
2.17609e-08
4.59055e-08
8.7911e-08
1.55952e-07
2.59051e-07
4.05457e-07
6.00734e-07
8.47685e-07
1.147e-06
1.5e-06
1.90997e-06
2.38647e-06
2.94013e-06
3.58201e-06
4.3253e-06
5.18397e-06
6.10022e-06
5.15251e-06
3.98598e-11
1.28142e-10
7.44489e-10
3.04207e-09
8.9707e-09
2.16191e-08
4.55802e-08
8.72409e-08
1.54698e-07
2.56945e-07
4.02195e-07
5.96265e-07
8.41847e-07
1.14006e-06
1.49154e-06
1.89999e-06
2.3739e-06
2.92451e-06
3.5633e-06
4.30202e-06
5.15379e-06
6.13091e-06
7.1532e-06
5.91677e-06
3.97507e-11
1.27702e-10
7.41329e-10
3.0276e-09
8.92329e-09
2.14927e-08
4.52882e-08
8.66407e-08
1.53577e-07
2.55023e-07
3.9925e-07
5.92064e-07
8.36467e-07
1.13341e-06
1.4839e-06
1.89088e-06
2.36312e-06
2.91085e-06
3.54633e-06
4.28181e-06
5.12912e-06
6.10049e-06
7.2054e-06
8.33889e-06
6.71447e-06
3.965e-11
1.27302e-10
7.38499e-10
3.01464e-09
8.88087e-09
2.13798e-08
4.50278e-08
8.61015e-08
1.52572e-07
2.53312e-07
3.96554e-07
5.88263e-07
8.31405e-07
1.12725e-06
1.47659e-06
1.88259e-06
2.35326e-06
2.89912e-06
3.53147e-06
4.26343e-06
5.10744e-06
6.07473e-06
7.176e-06
8.41743e-06
9.6668e-06
7.53848e-06
3.95577e-11
1.26933e-10
7.35912e-10
3.00302e-09
8.84291e-09
2.12789e-08
4.47945e-08
8.56206e-08
1.51668e-07
2.51772e-07
3.94159e-07
5.8477e-07
8.26818e-07
1.12147e-06
1.46979e-06
1.87469e-06
2.3442e-06
2.8884e-06
3.51872e-06
4.24734e-06
5.08766e-06
6.05182e-06
7.14983e-06
8.39089e-06
9.78141e-06
1.1148e-05
8.37224e-06
3.9473e-11
1.26594e-10
7.33527e-10
2.99241e-09
8.80883e-09
2.11885e-08
4.45863e-08
8.51905e-08
1.50861e-07
2.50387e-07
3.91989e-07
5.81679e-07
8.22596e-07
1.11621e-06
1.46343e-06
1.86733e-06
2.33561e-06
2.87852e-06
3.50704e-06
4.23348e-06
5.07035e-06
6.03083e-06
7.12611e-06
8.36509e-06
9.75982e-06
1.13159e-05
1.27965e-05
9.21628e-06
3.93956e-11
1.26285e-10
7.31345e-10
2.98263e-09
8.77773e-09
2.11072e-08
4.43997e-08
8.48057e-08
1.50139e-07
2.4915e-07
3.90043e-07
5.7886e-07
8.18861e-07
1.11137e-06
1.45764e-06
1.86044e-06
2.32758e-06
2.86912e-06
3.49625e-06
4.2208e-06
5.05542e-06
6.0124e-06
7.10415e-06
8.3411e-06
9.73531e-06
1.13022e-05
1.30385e-05
1.46257e-05
1.0057e-05
3.93247e-11
1.26001e-10
7.29354e-10
2.97369e-09
8.74909e-09
2.10332e-08
4.42324e-08
8.44606e-08
1.49493e-07
2.48042e-07
3.88301e-07
5.76341e-07
8.15444e-07
1.10708e-06
1.4523e-06
1.85418e-06
2.32008e-06
2.86036e-06
3.48602e-06
4.20905e-06
5.04174e-06
5.99652e-06
7.08486e-06
8.31867e-06
9.71147e-06
1.12799e-05
1.30371e-05
1.4968e-05
1.66476e-05
1.08808e-05
3.92601e-11
1.25743e-10
7.27529e-10
2.96551e-09
8.72284e-09
2.0965e-08
4.40795e-08
8.41511e-08
1.48914e-07
2.47049e-07
3.86743e-07
5.74072e-07
8.12396e-07
1.10316e-06
1.44757e-06
1.84841e-06
2.31324e-06
2.85218e-06
3.47642e-06
4.19791e-06
5.029e-06
5.98189e-06
7.06823e-06
8.29886e-06
9.68882e-06
1.12567e-05
1.30186e-05
1.4985e-05
1.71246e-05
1.88731e-05
1.16893e-05
3.92021e-11
1.25508e-10
7.25865e-10
2.95802e-09
8.69885e-09
2.09026e-08
4.39385e-08
8.38684e-08
1.48393e-07
2.46159e-07
3.85342e-07
5.72045e-07
8.09641e-07
1.09967e-06
1.44325e-06
1.84329e-06
2.30697e-06
2.84471e-06
3.46749e-06
4.18744e-06
5.01694e-06
5.96825e-06
7.05285e-06
8.28172e-06
9.66868e-06
1.12341e-05
1.29968e-05
1.49725e-05
1.71682e-05
1.95296e-05
2.13114e-05
1.25166e-05
3.91497e-11
1.25296e-10
7.24358e-10
2.9512e-09
8.67688e-09
2.08454e-08
4.38095e-08
8.36076e-08
1.47918e-07
2.45358e-07
3.84085e-07
5.70222e-07
8.07182e-07
1.0965e-06
1.4394e-06
1.83862e-06
2.30139e-06
2.83784e-06
3.45934e-06
4.17768e-06
5.00559e-06
5.9553e-06
7.03843e-06
8.26583e-06
9.65127e-06
1.12138e-05
1.29748e-05
1.49532e-05
1.71647e-05
1.9611e-05
2.22054e-05
2.39684e-05
1.33759e-05
3.91021e-11
1.25106e-10
7.22999e-10
2.94502e-09
8.65689e-09
2.07931e-08
4.36916e-08
8.3369e-08
1.47479e-07
2.44627e-07
3.82955e-07
5.68583e-07
8.04969e-07
1.09368e-06
1.43591e-06
1.83447e-06
2.29631e-06
2.83177e-06
3.45185e-06
4.1688e-06
4.99497e-06
5.94308e-06
7.0247e-06
8.25082e-06
9.63503e-06
1.11962e-05
1.29548e-05
1.49324e-05
1.71494e-05
1.96205e-05
2.234e-05
2.5175e-05
2.6846e-05
1.41367e-05
3.90581e-11
1.24933e-10
7.21781e-10
2.93946e-09
8.63875e-09
2.07454e-08
4.35836e-08
8.31504e-08
1.47077e-07
2.43951e-07
3.8192e-07
5.67111e-07
8.02976e-07
1.09113e-06
1.43279e-06
1.83068e-06
2.29179e-06
2.82623e-06
3.44521e-06
4.16063e-06
4.98533e-06
5.93168e-06
7.01175e-06
8.23657e-06
9.61953e-06
1.11797e-05
1.29373e-05
1.49131e-05
1.71307e-05
1.96112e-05
2.23682e-05
2.53837e-05
2.84617e-05
2.99379e-05
1.47021e-05
3.90175e-11
1.24773e-10
7.20673e-10
2.93446e-09
8.62245e-09
2.07022e-08
4.34852e-08
8.29505e-08
1.4671e-07
2.43332e-07
3.80965e-07
5.6576e-07
8.01186e-07
1.08884e-06
1.42998e-06
1.82732e-06
2.28768e-06
2.82131e-06
3.43918e-06
4.15341e-06
4.97652e-06
5.92133e-06
6.99967e-06
8.22303e-06
9.6048e-06
1.11638e-05
1.29207e-05
1.48961e-05
1.71129e-05
1.95959e-05
2.23676e-05
2.54383e-05
2.87729e-05
3.20883e-05
3.32272e-05
1.50297e-05
3.89765e-11
1.24626e-10
7.19644e-10
2.9299e-09
8.60779e-09
2.06634e-08
4.33958e-08
8.27685e-08
1.46373e-07
2.42766e-07
3.8009e-07
5.64513e-07
7.99545e-07
1.08678e-06
1.42746e-06
1.82427e-06
2.28401e-06
2.81684e-06
3.4338e-06
4.14684e-06
4.96867e-06
5.91187e-06
6.98871e-06
8.21042e-06
9.59079e-06
1.11486e-05
1.29046e-05
1.48798e-05
1.70969e-05
1.95805e-05
2.23574e-05
2.545e-05
2.88639e-05
3.25396e-05
3.60758e-05
3.66833e-05
1.50755e-05
3.8941e-11
1.24475e-10
7.18701e-10
2.9257e-09
8.59442e-09
2.06284e-08
4.33156e-08
8.26034e-08
1.46066e-07
2.42247e-07
3.79288e-07
5.63369e-07
7.98025e-07
1.08489e-06
1.42517e-06
1.82155e-06
2.28071e-06
2.81285e-06
3.42892e-06
4.14099e-06
4.96155e-06
5.90344e-06
6.97867e-06
8.19903e-06
9.57775e-06
1.1134e-05
1.2889e-05
1.48637e-05
1.70811e-05
1.95661e-05
2.23451e-05
2.54469e-05
2.88928e-05
3.26815e-05
3.6718e-05
4.04424e-05
4.02677e-05
1.48028e-05
3.90288e-11
1.24348e-10
7.17718e-10
2.92181e-09
8.58209e-09
2.05966e-08
4.32433e-08
8.24548e-08
1.45788e-07
2.41775e-07
3.78553e-07
5.62323e-07
7.96627e-07
1.08314e-06
1.42309e-06
1.81909e-06
2.27775e-06
2.80925e-06
3.42457e-06
4.13567e-06
4.95522e-06
5.89581e-06
6.96977e-06
8.18855e-06
9.5659e-06
1.11205e-05
1.28742e-05
1.48481e-05
1.70653e-05
1.95515e-05
2.23334e-05
2.54395e-05
2.88999e-05
3.27343e-05
3.69293e-05
4.13428e-05
4.52016e-05
4.39376e-05
1.4181e-05
5.04118e-11
1.24311e-10
7.16918e-10
2.9178e-09
8.57069e-09
2.05673e-08
4.31776e-08
8.23209e-08
1.45538e-07
2.41345e-07
3.77884e-07
5.61362e-07
7.95347e-07
1.08152e-06
1.42115e-06
1.81683e-06
2.27507e-06
2.80601e-06
3.42066e-06
4.13094e-06
4.94946e-06
5.88899e-06
6.96169e-06
8.17924e-06
9.5551e-06
1.11083e-05
1.28603e-05
1.48329e-05
1.70499e-05
1.95363e-05
2.23205e-05
2.54314e-05
2.88992e-05
3.27552e-05
3.70154e-05
4.16493e-05
4.64486e-05
5.03601e-05
4.76352e-05
1.31944e-05
4.08672e-11
2.83504e-10
7.15018e-10
2.91451e-09
8.55897e-09
2.054e-08
4.31168e-08
8.21988e-08
1.45312e-07
2.40959e-07
3.77272e-07
5.60488e-07
7.94178e-07
1.08005e-06
1.41937e-06
1.81473e-06
2.27263e-06
2.80309e-06
3.41714e-06
4.12668e-06
4.94434e-06
5.88283e-06
6.95445e-06
8.17085e-06
9.54545e-06
1.10971e-05
1.28478e-05
1.48188e-05
1.70347e-05
1.95213e-05
2.23065e-05
2.54211e-05
2.88962e-05
3.27637e-05
3.70552e-05
4.17805e-05
4.68848e-05
5.20692e-05
5.59147e-05
5.12899e-05
1.18561e-05
4.12722e-11
1.46617e-10
1.87284e-09
2.90623e-09
8.54931e-09
2.05121e-08
4.30606e-08
8.2086e-08
1.45106e-07
2.40611e-07
3.76724e-07
5.59688e-07
7.93114e-07
1.0787e-06
1.41775e-06
1.81282e-06
2.27034e-06
2.80044e-06
3.41396e-06
4.12288e-06
4.93972e-06
5.87733e-06
6.94795e-06
8.1633e-06
9.53679e-06
1.10872e-05
1.28364e-05
1.48062e-05
1.70206e-05
1.95064e-05
2.22924e-05
2.54089e-05
2.88897e-05
3.27677e-05
3.70766e-05
4.18462e-05
4.70775e-05
5.26811e-05
5.82356e-05
6.18497e-05
5.48213e-05
1.02193e-05
4.48126e-11
1.52789e-10
9.10908e-10
7.5198e-09
8.52477e-09
2.04891e-08
4.30024e-08
8.1982e-08
1.44917e-07
2.40294e-07
3.76231e-07
5.5897e-07
7.9214e-07
1.07747e-06
1.41626e-06
1.81105e-06
2.26824e-06
2.79796e-06
3.41104e-06
4.1194e-06
4.93561e-06
5.87238e-06
6.94214e-06
8.15652e-06
9.52895e-06
1.10782e-05
1.28262e-05
1.47946e-05
1.70079e-05
1.94925e-05
2.2278e-05
2.53961e-05
2.88801e-05
3.27661e-05
3.70897e-05
4.18848e-05
4.71783e-05
5.29574e-05
5.90845e-05
6.49738e-05
6.81321e-05
5.81478e-05
8.39307e-06
4.25635e-11
1.92868e-10
9.75198e-10
3.76768e-09
2.17398e-08
2.04299e-08
4.29549e-08
8.18746e-08
1.44741e-07
2.4e-07
3.75781e-07
5.58323e-07
7.91268e-07
1.07635e-06
1.4149e-06
1.80945e-06
2.26634e-06
2.79566e-06
3.40834e-06
4.11623e-06
4.93186e-06
5.86795e-06
6.9369e-06
8.15044e-06
9.52196e-06
1.10701e-05
1.2817e-05
1.47843e-05
1.69963e-05
1.948e-05
2.22644e-05
2.53825e-05
2.88694e-05
3.27607e-05
3.70953e-05
4.19104e-05
4.72403e-05
5.31061e-05
5.94738e-05
6.6141e-05
7.23019e-05
7.47082e-05
6.11979e-05
6.55103e-06
3.99076e-11
1.72604e-10
1.33139e-09
4.07492e-09
1.1067e-08
5.1597e-08
4.28302e-08
8.17866e-08
1.44558e-07
2.39729e-07
3.75365e-07
5.57735e-07
7.90482e-07
1.07536e-06
1.41367e-06
1.80798e-06
2.26459e-06
2.79359e-06
3.40585e-06
4.11328e-06
4.92841e-06
5.86391e-06
6.93219e-06
8.14499e-06
9.51567e-06
1.1063e-05
1.28088e-05
1.47751e-05
1.69861e-05
1.94686e-05
2.22525e-05
2.53699e-05
2.88573e-05
3.27523e-05
3.70946e-05
4.19253e-05
4.72828e-05
5.31989e-05
5.96871e-05
6.66831e-05
7.38939e-05
8.02264e-05
8.14968e-05
6.39284e-05
4.91562e-06
3.93373e-11
1.45724e-10
1.14708e-09
5.57701e-09
1.21409e-08
2.63378e-08
1.07634e-07
8.15476e-08
1.44408e-07
2.39444e-07
3.74979e-07
5.57188e-07
7.89766e-07
1.07446e-06
1.41257e-06
1.80666e-06
2.26301e-06
2.79169e-06
3.40359e-06
4.11058e-06
4.9252e-06
5.86021e-06
6.92793e-06
8.14012e-06
9.51006e-06
1.10565e-05
1.28014e-05
1.47668e-05
1.69768e-05
1.94585e-05
2.22415e-05
2.53587e-05
2.88458e-05
3.27425e-05
3.70904e-05
4.19317e-05
4.73102e-05
5.3264e-05
5.98218e-05
6.6983e-05
7.46417e-05
8.23825e-05
8.87377e-05
8.83826e-05
6.63369e-05
3.67958e-06
3.88307e-11
1.41481e-10
9.03033e-10
4.74617e-09
1.66048e-08
2.93532e-08
5.48715e-08
2.04805e-07
1.43988e-07
2.39213e-07
3.74578e-07
5.56683e-07
7.89103e-07
1.07363e-06
1.41158e-06
1.80547e-06
2.26156e-06
2.78997e-06
3.40152e-06
4.10811e-06
4.92227e-06
5.85679e-06
6.92399e-06
8.13566e-06
9.50498e-06
1.10507e-05
1.27948e-05
1.47594e-05
1.69686e-05
1.94494e-05
2.22317e-05
2.53484e-05
2.88357e-05
3.27325e-05
3.70834e-05
4.19329e-05
4.73259e-05
5.33081e-05
5.99168e-05
6.71739e-05
7.5058e-05
8.34059e-05
9.16383e-05
9.78053e-05
9.52213e-05
6.84435e-05
2.90731e-06
3.87174e-11
1.24676e-10
8.62637e-10
3.68974e-09
1.40058e-08
4.0215e-08
6.16188e-08
1.03777e-07
3.62185e-07
2.38528e-07
3.74253e-07
5.56159e-07
7.88486e-07
1.07286e-06
1.41067e-06
1.80441e-06
2.26029e-06
2.7884e-06
3.39966e-06
4.10586e-06
4.9196e-06
5.85364e-06
6.92036e-06
8.13154e-06
9.50037e-06
1.10454e-05
1.27889e-05
1.47527e-05
1.69612e-05
1.94413e-05
2.22231e-05
2.53392e-05
2.88265e-05
3.27245e-05
3.70763e-05
4.193e-05
4.73342e-05
5.33365e-05
5.99831e-05
6.73085e-05
7.53239e-05
8.3979e-05
9.30301e-05
0.000101681
0.000107369
0.000101876
7.02031e-05
2.52415e-06
3.86693e-11
1.23229e-10
7.14265e-10
3.50032e-09
1.08004e-08
3.36783e-08
8.50413e-08
1.1627e-07
1.81653e-07
5.98996e-07
3.73226e-07
5.55738e-07
7.87843e-07
1.07215e-06
1.40983e-06
1.80344e-06
2.25914e-06
2.78702e-06
3.39796e-06
4.10384e-06
4.91717e-06
5.85076e-06
6.91702e-06
8.12774e-06
9.49613e-06
1.10407e-05
1.27836e-05
1.47468e-05
1.69546e-05
1.94341e-05
2.22152e-05
2.53313e-05
2.88183e-05
3.27167e-05
3.70704e-05
4.19264e-05
4.7337e-05
5.33544e-05
6.00279e-05
6.74043e-05
7.55115e-05
8.43452e-05
9.38125e-05
0.000103562
0.000112512
0.000117335
0.000108229
7.13304e-05
2.37874e-06
3.86402e-11
1.22988e-10
7.05288e-10
2.88979e-09
1.01867e-08
2.57518e-08
7.07889e-08
1.6312e-07
2.0119e-07
2.97519e-07
9.26266e-07
5.5432e-07
7.8733e-07
1.07141e-06
1.40905e-06
1.80253e-06
2.25809e-06
2.78579e-06
3.39646e-06
4.10201e-06
4.91499e-06
5.84815e-06
6.91395e-06
8.12424e-06
9.49219e-06
1.10363e-05
1.27787e-05
1.47414e-05
1.69487e-05
1.94277e-05
2.22084e-05
2.53241e-05
2.88114e-05
3.271e-05
3.70647e-05
4.19237e-05
4.73381e-05
5.33649e-05
6.0059e-05
6.74712e-05
7.56463e-05
8.46029e-05
9.43125e-05
0.000104625
0.000115041
0.00012411
0.000127565
0.000114155
7.12826e-05
2.33601e-06
3.86004e-11
1.22851e-10
7.02734e-10
2.85254e-09
8.44837e-09
2.41428e-08
5.35071e-08
1.35059e-07
2.89305e-07
3.24468e-07
4.59153e-07
1.34086e-06
7.85527e-07
1.07082e-06
1.40822e-06
1.8017e-06
2.25713e-06
2.78465e-06
3.39513e-06
4.10038e-06
4.91301e-06
5.84582e-06
6.9112e-06
8.12105e-06
9.48854e-06
1.10322e-05
1.27742e-05
1.47365e-05
1.69433e-05
1.94219e-05
2.22024e-05
2.53178e-05
2.88049e-05
3.27043e-05
3.70598e-05
4.19209e-05
4.73397e-05
5.3372e-05
6.00795e-05
6.75195e-05
7.57427e-05
8.47894e-05
9.46637e-05
0.000105303
0.000116476
0.000127491
0.000136419
0.000137868
0.000119521
6.96305e-05
2.32713e-06
3.85597e-11
1.22677e-10
7.01368e-10
2.83875e-09
8.33492e-09
2.01981e-08
4.98262e-08
1.00386e-07
2.38394e-07
4.77611e-07
4.9347e-07
6.71772e-07
1.82962e-06
1.06871e-06
1.40758e-06
1.80079e-06
2.25623e-06
2.7836e-06
3.39391e-06
4.09895e-06
4.91128e-06
5.8437e-06
6.90871e-06
8.11817e-06
9.48527e-06
1.10285e-05
1.27701e-05
1.4732e-05
1.69385e-05
1.94168e-05
2.21969e-05
2.53122e-05
2.87994e-05
3.26989e-05
3.70559e-05
4.19185e-05
4.73409e-05
5.33793e-05
6.00954e-05
6.75535e-05
7.58139e-05
8.49247e-05
9.49179e-05
0.000105777
0.000117391
0.000129419
0.000140914
0.000149342
0.000147984
0.00012421
6.62524e-05
2.32732e-06
3.85298e-11
1.22501e-10
6.99773e-10
2.8315e-09
8.28678e-09
1.99164e-08
4.2274e-08
9.29982e-08
1.73688e-07
3.92062e-07
7.34051e-07
7.12498e-07
9.38135e-07
2.37833e-06
1.4053e-06
1.80011e-06
2.25523e-06
2.78264e-06
3.39276e-06
4.09763e-06
4.90972e-06
5.84186e-06
6.90651e-06
8.11559e-06
9.48226e-06
1.10251e-05
1.27662e-05
1.47277e-05
1.6934e-05
1.94121e-05
2.21921e-05
2.53072e-05
2.87945e-05
3.26947e-05
3.70524e-05
4.19172e-05
4.73418e-05
5.33856e-05
6.01099e-05
6.75806e-05
7.58658e-05
8.50258e-05
9.51051e-05
0.000106123
0.00011803
0.000130649
0.000143493
0.000155281
0.00016273
0.000157638
0.000128134
6.09674e-05
2.32939e-06
3.85125e-11
1.22374e-10
6.98156e-10
2.82339e-09
8.26171e-09
1.9787e-08
4.16685e-08
8.04092e-08
1.60998e-07
2.81345e-07
6.01398e-07
1.05194e-06
9.83488e-07
1.26001e-06
2.97678e-06
1.79782e-06
2.2545e-06
2.78157e-06
3.39172e-06
4.0964e-06
4.90831e-06
5.84019e-06
6.90455e-06
8.11329e-06
9.47962e-06
1.1022e-05
1.27627e-05
1.47238e-05
1.69297e-05
1.94076e-05
2.21875e-05
2.53027e-05
2.879e-05
3.26907e-05
3.70494e-05
4.19157e-05
4.73435e-05
5.33912e-05
6.01231e-05
6.76053e-05
7.59078e-05
8.51016e-05
9.52465e-05
0.000106377
0.000118494
0.000131506
0.000145141
0.000158718
0.000170526
0.000176368
0.000166614
0.000131208
5.35075e-05
2.33159e-06
3.84689e-11
1.22297e-10
6.97014e-10
2.81512e-09
8.23426e-09
1.97202e-08
4.13758e-08
7.92435e-08
1.41929e-07
2.62125e-07
4.31008e-07
8.62714e-07
1.4174e-06
1.30758e-06
1.63969e-06
3.61916e-06
2.25228e-06
2.78075e-06
3.39055e-06
4.09526e-06
4.90698e-06
5.8387e-06
6.90283e-06
8.11126e-06
9.47724e-06
1.10193e-05
1.27596e-05
1.47202e-05
1.69257e-05
1.94034e-05
2.21831e-05
2.52984e-05
2.87861e-05
3.26875e-05
3.7047e-05
4.19147e-05
4.73449e-05
5.33971e-05
6.01345e-05
6.76268e-05
7.59451e-05
8.51632e-05
9.53538e-05
0.000106572
0.00011884
0.000132128
0.000146284
0.000160915
0.00017508
0.000186526
0.000189967
0.000174722
0.000133261
4.38972e-05
2.33381e-06
3.55672e-11
1.2215e-10
6.96294e-10
2.80931e-09
8.20626e-09
1.96478e-08
4.12257e-08
7.86604e-08
1.39885e-07
2.35182e-07
4.04024e-07
6.2811e-07
1.16817e-06
1.81933e-06
1.68643e-06
2.08183e-06
4.30282e-06
2.77876e-06
3.38966e-06
4.09399e-06
4.90576e-06
5.8373e-06
6.90124e-06
8.10949e-06
9.47517e-06
1.10168e-05
1.27568e-05
1.47171e-05
1.69223e-05
1.93995e-05
2.21791e-05
2.52946e-05
2.87826e-05
3.26844e-05
3.70449e-05
4.19141e-05
4.73466e-05
5.34021e-05
6.01457e-05
6.76461e-05
7.59781e-05
8.52179e-05
9.54413e-05
0.000106721
0.000119104
0.000132591
0.000147114
0.000162437
0.000178002
0.000192531
0.000203092
0.000203143
0.000181817
0.000133965
3.28063e-05
2.3357e-06
1.88754e-11
1.10334e-10
6.953e-10
2.80568e-09
8.18666e-09
1.95739e-08
4.10645e-08
7.83633e-08
1.38836e-07
2.31881e-07
3.6829e-07
5.92372e-07
8.75691e-07
1.51376e-06
2.25566e-06
2.12444e-06
2.59546e-06
5.0272e-06
3.38804e-06
4.09301e-06
4.90439e-06
5.83598e-06
6.89975e-06
8.10786e-06
9.47337e-06
1.10148e-05
1.27544e-05
1.47143e-05
1.69191e-05
1.9396e-05
2.21754e-05
2.52907e-05
2.8779e-05
3.26813e-05
3.70429e-05
4.19136e-05
4.73484e-05
5.34072e-05
6.01555e-05
6.76643e-05
7.60074e-05
8.52656e-05
9.55177e-05
0.000106842
0.000119308
0.000132948
0.000147735
0.000163542
0.000180022
0.000196399
0.000210963
0.000219952
0.000215482
0.000187802
0.000132744
2.18178e-05
2.33698e-06
1.4917e-11
8.03732e-11
6.13223e-10
2.80107e-09
8.17443e-09
1.95222e-08
4.08989e-08
7.80453e-08
1.38306e-07
2.30156e-07
3.6335e-07
5.47651e-07
8.30486e-07
1.17554e-06
1.90347e-06
2.73164e-06
2.63105e-06
3.19186e-06
5.79328e-06
4.09193e-06
4.90331e-06
5.83451e-06
6.89838e-06
8.10631e-06
9.47169e-06
1.10129e-05
1.27522e-05
1.47119e-05
1.69163e-05
1.9393e-05
2.2172e-05
2.52873e-05
2.87757e-05
3.26785e-05
3.7041e-05
4.19132e-05
4.73501e-05
5.34121e-05
6.01651e-05
6.76806e-05
7.60346e-05
8.5308e-05
9.55854e-05
0.000106948
0.000119475
0.000133225
0.000148212
0.00016437
0.000181489
0.000199073
0.000216061
0.000230201
0.000236735
0.000226639
0.000192567
0.000128485
1.32093e-05
2.33764e-06
1.74357e-11
5.37568e-11
5.40035e-10
2.46261e-09
8.15969e-09
1.94902e-08
4.07842e-08
7.77201e-08
1.3774e-07
2.29292e-07
3.60739e-07
5.40753e-07
7.77161e-07
1.12014e-06
1.52961e-06
2.34629e-06
3.25721e-06
3.21682e-06
3.88286e-06
6.60354e-06
4.90285e-06
5.83334e-06
6.89683e-06
8.10491e-06
9.47011e-06
1.10112e-05
1.27504e-05
1.47098e-05
1.69139e-05
1.93903e-05
2.21692e-05
2.52841e-05
2.87724e-05
3.26756e-05
3.70389e-05
4.19126e-05
4.73515e-05
5.34168e-05
6.01743e-05
6.76959e-05
7.60592e-05
8.53467e-05
9.56442e-05
0.000107041
0.000119618
0.00013345
0.000148587
0.000165007
0.000182589
0.000201013
0.000219591
0.000236888
0.000249981
0.000252961
0.000236327
0.000195859
0.000120105
7.94632e-06
2.33781e-06
1.60326e-11
5.22278e-11
3.3409e-10
2.18641e-09
7.16218e-09
1.94528e-08
4.07132e-08
7.74931e-08
1.37159e-07
2.28372e-07
3.59439e-07
5.37076e-07
7.68068e-07
1.05881e-06
1.46297e-06
1.94131e-06
2.85036e-06
3.84872e-06
3.89323e-06
4.68017e-06
7.46292e-06
5.8335e-06
6.89556e-06
8.10328e-06
9.46867e-06
1.10097e-05
1.27488e-05
1.4708e-05
1.69119e-05
1.9388e-05
2.21666e-05
2.52814e-05
2.87697e-05
3.26729e-05
3.70368e-05
4.19116e-05
4.73529e-05
5.34208e-05
6.01825e-05
6.77101e-05
7.6082e-05
8.5382e-05
9.56986e-05
0.000107122
0.000119744
0.000133645
0.00014889
0.000165507
0.000183437
0.000202471
0.000222152
0.00024153
0.000258701
0.000269929
0.000268067
0.000244355
0.000197265
0.000106935
5.45585e-06
2.3377e-06
1.52591e-11
4.94514e-11
2.76431e-10
1.34535e-09
6.34004e-09
1.70507e-08
4.06319e-08
7.73536e-08
1.36755e-07
2.27423e-07
3.58061e-07
5.35261e-07
7.63201e-07
1.04735e-06
1.39412e-06
1.86192e-06
2.41744e-06
3.42563e-06
4.52601e-06
4.67257e-06
5.59476e-06
8.37936e-06
6.89633e-06
8.10195e-06
9.467e-06
1.10081e-05
1.27471e-05
1.47064e-05
1.69102e-05
1.93861e-05
2.21645e-05
2.52791e-05
2.87674e-05
3.26707e-05
3.70348e-05
4.19107e-05
4.73535e-05
5.34243e-05
6.01898e-05
6.77229e-05
7.61028e-05
8.54143e-05
9.5747e-05
0.000107196
0.000119853
0.000133812
0.00014915
0.000165914
0.000184105
0.000203597
0.000224077
0.000244901
0.000264781
0.000281229
0.000289541
0.000281553
0.000250654
0.00019602
8.86035e-05
4.5757e-06
2.33741e-06
1.4846e-11
4.87615e-11
2.73344e-10
1.1039e-09
3.89915e-09
1.50511e-08
3.55752e-08
7.7197e-08
1.36508e-07
2.26765e-07
3.56632e-07
5.33343e-07
7.60828e-07
1.0412e-06
1.38008e-06
1.78549e-06
2.32358e-06
2.96806e-06
4.08746e-06
5.30045e-06
5.56738e-06
6.63663e-06
9.37037e-06
8.10329e-06
9.46555e-06
1.10064e-05
1.27456e-05
1.47048e-05
1.69087e-05
1.93845e-05
2.21628e-05
2.52771e-05
2.87655e-05
3.26686e-05
3.70333e-05
4.19095e-05
4.73538e-05
5.3427e-05
6.01963e-05
6.77345e-05
7.6122e-05
8.54439e-05
9.57919e-05
0.000107262
0.000119953
0.00013396
0.000149374
0.00016626
0.000184646
0.000204484
0.000225569
0.000247439
0.000269204
0.000289148
0.000304073
0.000308176
0.000293014
0.000255125
0.000191034
6.61114e-05
4.3373e-06
2.33692e-06
1.46285e-11
4.80709e-11
2.78891e-10
1.09749e-09
3.21108e-09
9.2679e-09
3.1383e-08
6.75562e-08
1.36235e-07
2.26364e-07
3.55642e-07
5.31341e-07
7.58309e-07
1.03823e-06
1.37258e-06
1.76857e-06
2.2387e-06
2.85798e-06
3.60437e-06
4.84908e-06
6.18045e-06
6.58982e-06
7.81759e-06
1.04664e-05
9.4676e-06
1.10049e-05
1.27439e-05
1.47033e-05
1.69072e-05
1.93832e-05
2.21614e-05
2.52757e-05
2.87638e-05
3.26671e-05
3.7032e-05
4.19087e-05
4.7354e-05
5.34291e-05
6.02017e-05
6.7745e-05
7.6139e-05
8.54706e-05
9.58326e-05
0.000107322
0.000120042
0.000134093
0.00014957
0.000166558
0.000185105
0.000205203
0.000226744
0.000249405
0.000272541
0.000294933
0.000314338
0.000326698
0.000325122
0.000302153
0.000257226
0.000180662
4.25709e-05
4.28305e-06
2.33653e-06
1.46716e-11
4.76606e-11
2.78173e-10
1.12296e-09
3.19673e-09
7.67151e-09
1.93934e-08
5.97791e-08
1.19276e-07
2.25929e-07
3.55044e-07
5.29954e-07
7.5569e-07
1.0351e-06
1.36901e-06
1.75961e-06
2.21839e-06
2.76389e-06
3.47589e-06
4.3392e-06
5.72166e-06
7.1778e-06
7.75136e-06
9.15409e-06
1.17049e-05
1.10076e-05
1.27423e-05
1.47016e-05
1.69057e-05
1.93819e-05
2.21603e-05
2.52746e-05
2.87628e-05
3.26662e-05
3.7031e-05
4.19083e-05
4.73543e-05
5.34309e-05
6.02061e-05
6.77538e-05
7.61545e-05
8.5495e-05
9.58695e-05
0.000107377
0.000120122
0.000134211
0.000149745
0.000166817
0.000185499
0.000205811
0.000227698
0.000250961
0.000275127
0.000299304
0.000321867
0.000339911
0.000348397
0.000339762
0.000308812
0.000256355
0.00016322
2.41642e-05
4.27175e-06
2.33628e-06
1.48522e-11
4.78321e-11
2.77275e-10
1.12128e-09
3.27208e-09
7.64108e-09
1.61375e-08
3.72114e-08
1.06438e-07
1.98135e-07
3.544e-07
5.2913e-07
7.53865e-07
1.03182e-06
1.36526e-06
1.75539e-06
2.20774e-06
2.73961e-06
3.37193e-06
4.18952e-06
5.18513e-06
6.71514e-06
8.31178e-06
9.06432e-06
1.06641e-05
1.31301e-05
1.27457e-05
1.47e-05
1.69041e-05
1.93805e-05
2.21591e-05
2.52739e-05
2.8762e-05
3.26656e-05
3.70306e-05
4.19082e-05
4.73549e-05
5.34328e-05
6.021e-05
6.77613e-05
7.61676e-05
8.55168e-05
9.59026e-05
0.000107427
0.000120196
0.000134317
0.000149901
0.000167048
0.000185841
0.000206331
0.0002285
0.00025222
0.000277179
0.000302699
0.000327573
0.000349659
0.000365269
0.000368325
0.000351605
0.000313064
0.00025056
0.000137
1.33531e-05
4.26955e-06
2.33612e-06
1.51677e-11
4.83755e-11
2.78428e-10
1.1182e-09
3.26821e-09
7.82169e-09
1.60752e-08
3.11138e-08
6.71323e-08
1.79548e-07
3.11697e-07
5.2825e-07
7.52797e-07
1.02956e-06
1.3613e-06
1.75098e-06
2.20277e-06
2.727e-06
3.34299e-06
4.07472e-06
5.01173e-06
6.15422e-06
7.84022e-06
9.5933e-06
1.05466e-05
1.2366e-05
1.47867e-05
1.47041e-05
1.69024e-05
1.9379e-05
2.2158e-05
2.52729e-05
2.87614e-05
3.26653e-05
3.70307e-05
4.19088e-05
4.7356e-05
5.34348e-05
6.02139e-05
6.77679e-05
7.61791e-05
8.55354e-05
9.59323e-05
0.000107472
0.000120262
0.000134415
0.000150042
0.000167254
0.000186144
0.000206779
0.000229181
0.000253276
0.000278838
0.000305397
0.000332016
0.000357076
0.000377813
0.000389621
0.000385657
0.000360382
0.000314412
0.000238895
0.000102102
8.35493e-06
4.26908e-06
2.33598e-06
1.55643e-11
4.93177e-11
2.81389e-10
1.12292e-09
3.25964e-09
7.81435e-09
1.64546e-08
3.09868e-08
5.63471e-08
1.15749e-07
2.89113e-07
4.66283e-07
7.5167e-07
1.02824e-06
1.3586e-06
1.74634e-06
2.19765e-06
2.72119e-06
3.32818e-06
4.04041e-06
4.88495e-06
5.95522e-06
7.25777e-06
9.1098e-06
1.10334e-05
1.22197e-05
1.42801e-05
1.67031e-05
1.69073e-05
1.93772e-05
2.21566e-05
2.52721e-05
2.87612e-05
3.26655e-05
3.70311e-05
4.19096e-05
4.73576e-05
5.34371e-05
6.02178e-05
6.7774e-05
7.61889e-05
8.55515e-05
9.59584e-05
0.000107512
0.000120322
0.000134502
0.000150169
0.000167438
0.000186413
0.000207177
0.000229772
0.000254175
0.000280228
0.000307582
0.000335551
0.000362869
0.000387406
0.000405644
0.000411996
0.000399725
0.000365946
0.000310813
0.000218925
6.43953e-05
6.63749e-06
4.26889e-06
2.33586e-06
1.59745e-11
5.05025e-11
2.86487e-10
1.13491e-09
3.27357e-09
7.79478e-09
1.64434e-08
3.1715e-08
5.6084e-08
9.7357e-08
1.92828e-07
4.46084e-07
6.65832e-07
1.02686e-06
1.35703e-06
1.74316e-06
2.1922e-06
2.71527e-06
3.32144e-06
4.02309e-06
4.84453e-06
5.81548e-06
7.03219e-06
8.50718e-06
1.05405e-05
1.26504e-05
1.41049e-05
1.64286e-05
1.88888e-05
1.93828e-05
2.21548e-05
2.5271e-05
2.87604e-05
3.26654e-05
3.70317e-05
4.19108e-05
4.73593e-05
5.34401e-05
6.02219e-05
6.77806e-05
7.61987e-05
8.55664e-05
9.59812e-05
0.000107547
0.000120375
0.000134581
0.000150284
0.000167604
0.000186653
0.000207529
0.000230292
0.000254949
0.000281406
0.000309405
0.000338417
0.000367489
0.000394926
0.000417977
0.000432245
0.000431408
0.000410045
0.000367913
0.000300849
0.000187626
3.48128e-05
6.20466e-06
4.26879e-06
2.33576e-06
1.63313e-11
5.17019e-11
2.92872e-10
1.15551e-09
3.30887e-09
7.82859e-09
1.64042e-08
3.1702e-08
5.73916e-08
9.67958e-08
1.6213e-07
3.12662e-07
6.60905e-07
9.11938e-07
1.35537e-06
1.74133e-06
2.18848e-06
2.70894e-06
3.31456e-06
4.01523e-06
4.82432e-06
5.76823e-06
6.87892e-06
8.25435e-06
9.91925e-06
1.21526e-05
1.44667e-05
1.62258e-05
1.88357e-05
2.13533e-05
2.2161e-05
2.52691e-05
2.87598e-05
3.26653e-05
3.70325e-05
4.19122e-05
4.73617e-05
5.34433e-05
6.02264e-05
6.77868e-05
7.62081e-05
8.558e-05
9.60019e-05
0.000107579
0.000120422
0.000134651
0.000150387
0.000167754
0.00018687
0.000207842
0.00023075
0.000255627
0.000282419
0.000310948
0.000340806
0.000371238
0.000400941
0.000427692
0.00044799
0.000456517
0.000447035
0.000416369
0.000365242
0.000283561
0.000142744
1.80719e-05
6.11554e-06
4.2687e-06
2.33566e-06
1.66309e-11
5.27131e-11
2.99177e-10
1.18119e-09
3.36929e-09
7.91384e-09
1.64767e-08
3.16308e-08
5.73853e-08
9.90213e-08
1.60894e-07
2.61985e-07
4.95673e-07
9.42012e-07
1.20525e-06
1.73937e-06
2.18635e-06
2.70461e-06
3.30719e-06
4.0073e-06
4.81519e-06
5.74476e-06
6.82431e-06
8.08732e-06
9.63642e-06
1.15153e-05
1.3966e-05
1.65049e-05
1.86083e-05
2.15277e-05
2.41166e-05
2.52762e-05
2.87579e-05
3.26648e-05
3.70329e-05
4.19138e-05