/*--------------------------------*- C++ -*----------------------------------*\
| =========                 |                                                 |
| \\      /  F ield         | OpenFOAM: The Open Source CFD Toolbox           |
|  \\    /   O peration     | Version:  v2012                                 |
|   \\  /    A nd           | Website:  www.openfoam.com                      |
|    \\/     M anipulation  |                                                 |
\*---------------------------------------------------------------------------*/
FoamFile
{
    version     2.0;
    format      ascii;
    class       volScalarField;
    location    "0";
    object      q2;
}
// * * * * * * * * * * * * * * * * * * * * * * * * * * * * * * * * * * * * * //

dimensions      [0 0 0 0 0 0 0];


internalField   nonuniform List<scalar> 
31383
(
1
1
1
1
1
1
1
1
1
1
1
1
1
1
1
1
1
1
1
1
1
1
1
1
1
1
1
1
1
1
1
1
1
1
1
1
1
1
1
1
1
1
1
1
1
1
1
1
1
1
1
1
1
1
1
1
1
1
1
1
1
1
1
1
1
1
1
1
1
1
1
1
1
1
1
1
0.999999
1
1
1
1
1
1
1
1
1
1
1
1
0.999961
1
1
1
1
1
1
1
1
1
1
1
1
0.999977
0.999877
1
1
1
1
1
1
1
1
1
1
1
1
0.999985
0.999908
0.999896
1
1
1
1
1
1
1
1
1
1
1
1
0.999989
0.999923
0.999913
0.999951
1
1
1
1
1
1
1
1
1
1
1
1
0.999992
0.999934
0.999918
0.999961
0.999986
0.999998
1
1
1
1
1
1
1
1
1
1
1
0.999994
0.999942
0.999923
0.999963
0.99999
0.999998
0.999999
1
1
1
1
1
1
1
1
1
1
1
0.999995
0.999949
0.999926
0.999965
0.999989
0.999999
1
0.999999
1
1
1
1
1
1
1
1
1
1
1
0.999996
0.999954
0.999929
0.999966
0.999989
0.999999
1
1
0.999998
1
1
1
1
1
1
1
1
1
1
1
0.999997
0.999959
0.999932
0.999966
0.999989
0.999999
1
1
1
0.999996
1
1
1
1
1
1
1
1
1
1
1
0.999997
0.999962
0.999933
0.999966
0.999989
0.999998
1
1
1
1
0.999987
1
1
1
1
1
1
1
1
1
1
1
0.999998
0.999965
0.999935
0.999965
0.999989
0.999998
1
1
1
1
1
0.999954
1
1
1
1
1
1
1
1
1
1
1
0.999998
0.999968
0.999937
0.999965
0.999988
0.999998
1
1
1
1
1
1
0.999875
1
1
1
1
1
1
1
1
1
1
1
0.999998
0.99997
0.999938
0.999964
0.999988
0.999998
1
1
1
1
1
1
1
0.999719
1
1
1
1
1
1
1
1
1
1
1
0.999999
0.999972
0.99994
0.999964
0.999988
0.999998
1
1
1
1
1
1
1
1
0.999406
1
1
1
1
1
1
1
1
1
1
1
0.999999
0.999975
0.999941
0.999963
0.999988
0.999998
1
1
1
1
1
1
1
1
1
0.998746
1
1
1
1
1
1
1
1
1
1
1
0.999999
0.999976
0.999943
0.999963
0.999987
0.999998
1
1
1
1
1
1
1
1
1
1
0.997116
1
1
1
1
1
1
1
1
1
1
1
0.999999
0.999978
0.999944
0.999963
0.999987
0.999998
1
1
1
1
1
1
1
1
1
1
1
0.992003
1
1
1
1
1
1
1
1
1
1
1
0.999999
0.999979
0.999945
0.999963
0.999987
0.999998
1
1
1
1
1
1
1
1
1
1
1
1
0.972113
1
1
1
1
1
1
1
1
1
1
1
0.999999
0.99998
0.999946
0.999963
0.999987
0.999998
1
1
1
1
1
1
1
1
1
1
1
1
1
0.903691
1
1
1
1
1
1
1
1
1
1
1
0.999999
0.999981
0.999947
0.999962
0.999987
0.999997
1
1
1
1
1
1
1
1
1
1
1
1
1
1
0.805601
1
1
1
1
1
1
1
1
1
1
1
0.999999
0.999982
0.999948
0.999962
0.999987
0.999997
1
1
1
1
1
1
1
1
1
1
1
1
1
1
1
0.837767
1
1
1
1
1
1
1
1
1
1
1
0.999999
0.999982
0.999949
0.999962
0.999987
0.999997
1
1
1
1
1
1
1
1
1
1
1
1
1
1
1
1
0.827039
1
1
1
1
1
1
1
1
1
1
1
0.999999
0.999983
0.99995
0.999962
0.999987
0.999997
1
1
1
1
1
1
1
1
1
1
1
1
1
1
1
1
1
0.689765
1
1
1
1
1
1
1
1
1
1
1
1
0.999984
0.999951
0.999963
0.999987
0.999997
1
1
1
1
1
1
1
1
1
1
1
1
1
1
1
1
1
1
0.48834
1
1
1
1
1
1
1
1
1
1
1
1
0.999984
0.999951
0.999962
0.999987
0.999997
1
1
1
1
1
1
1
1
1
1
1
1
1
1
1
1
1
1
1
0.294404
1
1
1
1
1
1
1
1
1
1
1
1
0.999985
0.999952
0.999963
0.999987
0.999997
1
1
1
1
1
1
1
1
1
1
1
1
1
1
1
1
1
1
1
1
0.152804
1
1
1
1
1
1
1
1
1
1
1
1
0.999985
0.999952
0.999963
0.999986
0.999997
1
1
1
1
1
1
1
1
1
1
1
1
1
1
1
1
1
1
1
1
1
0.0686914
1
1
1
1
1
1
1
1
1
1
1
1
0.999985
0.999953
0.999963
0.999986
0.999997
1
1
1
1
1
1
1
1
1
1
1
1
1
1
1
1
1
1
1
1
1
1
0.0265221
1
0.000463795
1
1
1
1
1
1
1
1
1
1
0.999986
0.999953
0.999963
0.999986
0.999997
1
1
1
1
1
1
1
1
1
1
1
1
1
1
1
1
1
1
1
1
1
1
1
0.00866278
1
1
7.21272e-05
1
1
1
1
1
1
1
1
1
0.999986
0.999954
0.999963
0.999986
0.999997
1
1
1
1
1
1
1
1
1
1
1
1
1
1
1
1
1
1
1
1
1
1
1
1
0.00236619
1
1
1
2.64034e-05
1
1
1
1
1
1
1
1
0.999986
0.999954
0.999963
0.999986
0.999997
1
1
1
1
1
1
1
1
1
1
1
1
1
1
1
1
1
1
1
1
1
1
1
1
1
0.000548517
1
0.478464
0.999103
1
1.45158e-05
1
1
1
1
1
1
1
0.999987
0.999955
0.999963
0.999986
0.999997
1
1
1
1
1
1
1
1
1
1
1
1
1
1
1
1
1
1
1
1
1
1
1
1
1
1
0.000117132
1
0.927258
0.0620955
0.860836
1
1.01442e-05
1
1
1
1
1
1
0.999987
0.999955
0.999963
0.999986
0.999997
1
1
1
1
1
1
1
1
1
1
1
1
1
1
1
1
1
1
1
1
1
1
1
1
1
1
0.999996
2.80088e-05
1
1
0.194044
0.0204633
0.572902
1
8.46072e-06
1
1
1
1
1
0.999987
0.999955
0.999963
0.999986
0.999997
1
1
1
1
1
1
1
1
1
1
1
1
1
1
1
1
1
1
1
1
1
1
1
1
1
1
1
0.999293
9.87268e-06
1
1
0.999995
0.0646938
0.0106291
0.404049
0.999966
8.44248e-06
1
1
1
1
0.999987
0.999956
0.999963
0.999987
0.999997
1
1
1
1
1
1
1
1
1
1
1
1
1
1
1
1
1
1
1
1
1
1
1
1
1
1
1
1
0.984936
8.01334e-06
1
1
1
0.969053
0.0334714
0.00712077
0.303465
0.999358
1.04814e-05
1
1
1
0.999987
0.999956
0.999963
0.999987
0.999997
1
1
1
1
1
1
1
1
1
1
1
1
1
1
1
1
1
1
1
1
1
1
1
1
1
1
1
1
1
0.926072
2.02906e-05
1
1
1
0.999969
0.776834
0.0223921
0.00567529
0.259814
0.995406
1.7212e-05
1
1
0.999988
0.999956
0.999963
0.999987
0.999997
1
1
1
1
1
1
1
1
1
1
1
1
1
1
1
1
1
1
1
1
1
1
1
1
1
1
1
1
1
1
0.845512
7.25938e-05
1
1
1
1
0.986508
0.574053
0.0174529
0.00526173
0.234954
0.98391
3.60743e-05
1
0.999988
0.999956
0.999963
0.999987
0.999997
1
1
1
1
1
1
1
1
1
1
1
1
1
1
1
1
1
1
1
1
1
1
1
1
1
1
1
1
1
1
1
0.704022
0.00017186
1
1
1
1
1
0.89201
0.439924
0.0156357
0.00572278
0.240222
0.976418
9.18286e-05
0.999988
0.999957
0.999963
0.999987
0.999997
1
1
1
1
1
1
1
1
1
1
1
1
1
1
1
1
1
1
1
1
1
1
1
1
1
1
1
1
1
1
1
1
0.444513
0.000262517
1
1
1
1
1
1
0.768365
0.358544
0.0159122
0.00757749
0.267219
0.979287
0.000257319
0.999957
0.999963
0.999987
0.999997
1
1
1
1
1
1
1
1
1
1
1
1
1
1
1
1
1
1
1
1
1
1
1
1
1
1
1
1
1
1
1
1
0.999997
0.219726
0.00036976
1
1
1
1
1
1
1
0.652171
0.29195
0.0186697
0.0121892
0.34814
0.98562
0.000723409
0.999963
0.999987
0.999997
1
1
1
1
1
1
1
1
1
1
1
1
1
1
1
1
1
1
1
1
1
1
1
1
1
1
1
1
1
1
1
1
1
0.9991
0.0885778
0.000481024
1
1
1
1
1
1
1
1
0.538529
0.264061
0.0252087
0.0235731
0.474231
0.996208
0.00195034
0.999987
0.999997
1
1
1
1
1
1
1
1
1
1
1
1
1
1
1
1
1
1
1
1
1
1
1
1
1
1
1
1
1
1
1
1
1
1
0.973132
0.0286121
0.000441541
1
1
1
1
1
1
1
1
1
0.458052
0.256906
0.0399289
0.0474482
0.674548
0.999365
0.00494406
0.999997
1
1
1
1
1
1
1
1
1
1
1
1
1
1
1
1
1
1
1
1
1
1
1
1
1
1
1
1
1
1
1
1
1
1
1
0.836991
0.00706689
0.000364679
1
1
1
1
1
1
1
1
1
1
0.457111
0.286217
0.0691523
0.0997378
0.87604
0.999961
0.0116994
1
1
1
1
1
1
1
1
1
1
1
1
1
1
1
1
1
1
1
1
1
1
1
1
1
1
1
1
1
1
1
1
1
1
1
1
0.630247
0.00128022
0.000470943
1
1
1
1
1
1
1
1
1
1
0.999997
0.466288
0.370599
0.128901
0.202825
0.979754
0.999999
0.0259937
1
1
1
1
1
1
1
1
1
1
1
1
1
1
1
1
1
1
1
1
1
1
1
1
1
1
1
1
1
1
1
1
1
1
1
0.999964
0.467309
0.000207022
0.00117592
1
1
1
1
1
1
1
1
1
1
1
0.999829
0.530521
0.512716
0.247709
0.389563
0.998128
1
0.0542567
1
1
1
1
1
1
1
1
1
1
1
1
1
1
1
1
1
1
1
1
1
1
1
1
1
1
1
1
1
1
1
1
1
1
1
0.994457
0.291051
7.07827e-05
0.00858215
1
1
1
1
1
1
1
1
1
1
1
0.999985
0.99918
0.662624
0.687354
0.451903
0.65469
0.999951
1
0.107762
1
1
1
1
1
1
1
1
1
1
1
1
1
1
1
1
1
1
1
1
1
1
1
1
1
1
1
1
1
1
1
1
1
1
1
0.911567
0.137677
7.25643e-05
0.992291
1
1
1
1
1
1
1
1
1
1
1
1
0.999811
0.998873
0.808092
0.84954
0.718979
0.862944
1
1
0.203088
1
1
1
1
1
1
1
1
1
1
1
1
1
1
1
1
1
1
1
1
1
1
1
1
1
1
1
1
1
1
1
1
1
1
1
0.67067
0.0564495
9.16535e-05
0.0540874
1
1
1
1
1
1
1
1
1
1
1
1
0.999976
0.999564
0.999363
0.915954
0.956239
0.914533
0.974638
1
1
0.35121
1
1
1
1
1
1
1
1
1
1
1
1
1
1
1
1
1
1
1
1
1
1
1
1
1
1
1
1
1
1
1
1
1
1
0.999398
0.455289
0.019372
0.000196574
0.00436171
1
1
1
1
1
1
1
1
1
1
1
1
0.99998
0.999903
0.99969
0.999812
0.977216
0.993972
0.989182
0.998859
1
1
0.540204
1
1
1
1
1
1
1
1
1
1
1
1
1
1
1
1
1
1
1
1
1
1
1
1
1
1
1
1
1
1
1
1
1
1
0.967945
0.340564
0.00571133
0.00200904
0.0133262
1
1
1
1
1
1
1
1
1
1
1
1
0.999975
0.999924
0.999924
0.999915
0.999955
0.996923
0.999679
0.999701
0.999992
1
1
0.750951
1
1
1
1
1
1
1
1
1
1
1
1
1
1
1
1
1
1
1
1
1
1
1
1
1
1
1
1
1
1
1
1
1
1
0.782443
0.184267
0.00209957
1
0.146425
1
1
1
1
1
1
1
1
1
1
1
1
0.99998
0.999909
0.999931
0.999972
0.999979
0.999996
0.999818
0.999997
0.999999
1
1
1
0.924901
1
1
1
1
1
1
1
1
1
1
1
1
1
1
1
1
1
1
1
1
1
1
1
1
1
1
1
1
1
1
1
1
1
0.999174
0.512241
0.0818153
0.00198187
0.0991531
0.891326
1
1
1
1
1
1
1
1
1
1
1
1
0.999984
0.999921
0.999917
0.999972
0.999992
0.999998
1
0.999998
1
1
1
1
1
0.991875
1
1
1
1
1
1
1
1
1
1
1
1
1
1
1
1
1
1
1
1
1
1
1
1
1
1
1
1
1
1
1
1
1
0.953383
0.339693
0.0344173
0.00436052
0.0390441
0.92089
1
1
1
1
1
1
1
1
1
1
1
1
0.999984
0.999939
0.999926
0.999965
0.999993
0.999999
1
1
1
1
1
1
1
1
0.99982
1
1
1
1
1
1
1
1
1
1
1
1
1
1
1
1
1
1
1
1
1
1
1
1
1
1
1
1
1
1
1
1
0.999979
0.716148
0.224407
0.0154004
0.181384
0.158198
0.612281
1
1
1
1
1
1
1
1
1
1
1
1
0.999985
0.999937
0.999935
0.999969
0.999991
0.999999
1
1
1
1
1
1
1
1
1
1
1
1
1
1
1
1
1
1
1
1
1
1
1
1
1
1
1
1
1
1
1
1
1
1
1
1
1
1
1
1
1
1
0.990931
0.444386
0.106956
0.0110068
0.891173
0.99953
0.272049
1
1
1
1
1
1
1
1
1
1
1
1
0.999991
0.999932
0.999932
0.999972
0.999992
0.999999
1
1
1
1
1
1
1
1
1
1
1
1
1
1
1
1
1
1
1
1
1
1
1
1
1
1
1
1
1
1
1
1
1
1
1
1
1
1
1
1
1
1
0.999998
0.843255
0.29324
0.0494997
0.0159665
0.132562
0.999634
0.0935243
1
1
1
1
1
1
1
1
1
1
1
1
1
0.999884
0.99993
0.999972
0.999993
0.999999
1
1
1
1
1
1
1
1
1
1
1
1
1
1
1
1
1
1
1
1
1
1
1
1
1
1
1
1
1
1
1
1
1
1
1
1
1
1
1
1
1
1
1
0.996769
0.52968
0.177717
0.0269187
0.0760411
0.0793925
0.999191
0.0324586
1
1
1
1
1
1
1
1
1
1
1
1
1
1
0.999668
0.999971
0.999992
0.999999
1
1
1
1
1
1
1
1
1
1
1
1
1
1
1
1
1
1
1
1
1
1
1
1
1
1
1
1
1
1
1
1
1
1
1
1
1
1
1
1
1
1
1
0.999999
0.891374
0.324437
0.0839088
0.0233368
1
0.32843
1
0.0135465
1
1
1
1
1
1
1
1
1
1
1
1
1
1
1
0.99956
0.999992
0.999999
1
1
1
1
1
1
1
1
1
1
1
1
1
1
1
1
1
1
1
1
1
1
1
1
1
1
1
1
1
1
1
1
1
1
1
1
1
1
1
1
1
1
1
1
0.997246
0.575238
0.22648
0.0428126
0.0452392
0.245872
0.982808
1
0.00571494
1
1
1
1
1
1
1
1
1
1
1
1
1
1
1
1
0.999945
0.999999
1
1
1
1
1
1
1
1
1
1
1
1
1
1
1
1
1
1
1
1
1
1
1
1
1
1
1
1
1
1
1
1
1
1
1
1
1
1
1
1
1
1
1
1
0.999996
0.893366
0.341604
0.105931
0.0299269
0.967982
0.457446
0.997518
1
0.00224104
1
1
1
1
1
1
1
1
1
1
1
1
1
1
1
1
1
0.999997
1
1
1
1
1
1
1
1
1
1
1
1
1
1
1
1
1
1
1
1
1
1
1
1
1
1
1
1
1
1
1
1
1
1
1
1
1
1
1
1
1
1
1
1
1
0.994915
0.568987
0.230878
0.051871
0.0515154
0.955362
1
0.962649
1
0.00084349
1
1
1
1
1
1
1
1
1
1
1
1
1
1
1
1
1
1
1
1
1
1
1
1
1
1
1
1
1
1
1
1
1
1
1
1
1
1
1
1
1
1
1
1
1
1
1
1
1
1
1
1
1
1
1
1
1
1
1
1
1
1
1
0.999968
0.857319
0.330028
0.108816
0.0355352
0.844421
1
1
0.813428
1
0.000304865
1
1
1
1
1
1
1
1
1
1
1
1
1
1
1
1
1
1
1
1
1
1
1
1
1
1
1
1
1
1
1
1
1
1
1
1
1
1
1
1
1
1
1
1
1
1
1
1
1
1
1
1
1
1
1
1
1
1
1
1
1
1
1
1
0.984964
0.51809
0.216048
0.0522331
0.0522563
1
1
1
0.55749
0.99985
0.000108546
1
1
1
1
1
1
1
1
1
1
1
1
1
1
1
1
1
1
1
1
1
1
1
1
1
1
1
1
1
1
1
1
1
1
1
1
1
1
1
1
1
1
1
1
1
1
1
1
1
1
1
1
1
1
1
1
1
1
1
1
1
1
1
1
0.999602
0.775786
0.295539
0.0972809
0.0370947
0.380667
1
1
0.999886
0.3216
0.910391
4.60615e-05
1
1
1
1
1
1
1
1
1
1
1
1
1
1
1
1
1
1
1
1
1
1
1
1
1
1
1
1
1
1
1
1
1
1
1
1
1
1
1
1
1
1
1
1
1
1
1
1
1
1
1
1
1
1
1
1
1
1
1
1
1
1
1
1
0.999997
0.949392
0.44072
0.184637
0.0470061
0.0656286
1
1
1
0.899735
0.223626
0.377465
2.78039e-05
1
1
1
1
1
1
1
1
1
1
1
1
1
1
1
1
1
1
1
1
1
1
1
1
1
1
1
1
1
1
1
1
1
1
1
1
1
1
1
1
1
1
1
1
1
1
1
1
1
1
1
1
1
1
1
1
1
1
1
1
1
1
1
1
1
0.995371
0.646451
0.250642
0.0777877
0.0363473
0.381216
1
1
1
0.621986
0.208996
0.106542
1.5811e-05
1
1
1
1
1
1
1
1
1
1
1
1
1
1
1
1
1
1
1
1
1
1
1
1
1
1
1
1
1
1
1
1
1
1
1
1
1
1
1
1
1
1
1
1
1
1
1
1
1
1
1
1
1
1
1
1
1
1
1
1
1
1
1
1
1
0.99983
0.853227
0.350512
0.135315
0.0398044
0.0930822
1
1
1
1
0.427598
0.190782
0.0330418
9.21829e-06
1
1
1
1
1
1
1
1
1
1
1
1
1
1
1
1
1
1
1
1
1
1
1
1
1
1
1
1
1
1
1
1
1
1
1
1
1
1
1
1
1
1
1
1
1
1
1
1
1
1
1
1
1
1
1
1
1
1
1
1
1
1
1
1
1
0.999997
0.963963
0.495761
0.203231
0.0566915
0.0365437
0.804092
1
1
0.999717
0.999999
0.194417
0.188117
0.00934021
5.53573e-06
1
1
1
1
1
1
1
1
1
1
1
1
1
1
1
1
1
1
1
1
1
1
1
1
1
1
1
1
1
1
1
1
1
1
1
1
1
1
1
1
1
1
1
1
1
1
1
1
1
1
1
1
1
1
1
1
1
1
1
1
1
1
1
1
1
1
0.995092
0.675903
0.265033
0.0904638
0.0339905
0.21609
1
1
0.999207
0.995269
0.980202
0.0726142
0.397
0.00247699
3.5176e-06
1
1
1
1
1
1
1
1
1
1
1
1
1
1
1
1
1
1
1
1
1
1
1
1
1
1
1
1
1
1
1
1
1
1
1
1
1
1
1
1
1
1
1
1
1
1
1
1
1
1
1
1
1
1
1
1
1
1
1
1
1
1
1
1
1
1
0.999619
0.845038
0.357565
0.146949
0.0403914
0.055641
0.72424
1
1
0.995681
0.758157
0.848702
0.0261368
1
0.000569807
2.37744e-06
1
1
1
1
1
1
1
1
1
1
1
1
1
1
1
1
1
1
1
1
1
1
1
1
1
1
1
1
1
1
1
1
1
1
1
1
1
1
1
1
1
1
1
1
1
1
1
1
1
1
1
1
1
1
1
1
1
1
1
1
1
1
1
1
1
1
0.999982
0.94657
0.479689
0.198056
0.057177
0.0308932
0.935687
1
1
1
0.884514
0.590667
0.367436
0.0125979
1
9.22056e-05
1.71919e-06
1
1
1
1
1
1
1
1
1
1
1
1
1
1
1
1
1
1
1
1
1
1
1
1
1
1
1
1
1
1
1
1
1
1
1
1
1
1
1
1
1
1
1
1
1
1
1
1
1
1
1
1
1
1
1
1
1
1
1
1
1
1
1
1
1
1
0.999999
0.987007
0.622368
0.249161
0.0853786
0.0308747
0.186858
1
0.999999
1
1
0.758395
0.384985
0.134148
0.00780295
1
1.41101e-05
1.36018e-06
1
1
1
1
1
1
1
1
1
1
1
1
1
1
1
1
1
1
1
1
1
1
1
1
1
1
1
1
1
1
1
1
1
1
1
1
1
1
1
1
1
1
1
1
1
1
1
1
1
1
1
1
1
1
1
1
1
1
1
1
1
1
1
1
1
1
1
0.997754
0.768811
0.319288
0.128459
0.0361092
0.0518173
0.651664
0.811015
0.997887
1
0.999232
0.569212
0.195672
0.0427027
0.0051695
0.486834
2.46119e-06
1.20105e-06
1
1
1
1
1
1
1
1
1
1
1
1
1
1
1
1
1
1
1
1
1
1
1
1
1
1
1
1
1
1
1
1
1
1
1
1
1
1
1
1
1
1
1
1
1
1
1
1
1
1
1
1
1
1
1
1
1
1
1
1
1
1
1
1
1
1
1
0.999713
0.883812
0.409667
0.174945
0.0478582
0.027084
0.195918
0.537589
0.378815
0.755849
0.998147
0.972261
0.376318
0.0937029
0.0139729
0.0044092
0.0530166
7.94252e-07
1.27607e-06
1
1
1
1
1
1
1
1
1
1
1
1
1
1
1
1
1
1
1
1
1
1
1
1
1
1
1
1
1
1
1
1
1
1
1
1
1
1
1
1
1
1
1
1
1
1
1
1
1
1
1
1
1
1
1
1
1
1
1
1
1
1
1
1
1
1
1
0.999971
0.951677
0.514373
0.212235
0.0669044
0.0264871
0.288839
0.861074
0.0983526
0.160136
0.459849
0.999999
0.700115
0.225181
0.0420613
0.00457014
0.00526117
0.00511832
2.89719e-07
1.89416e-06
1
1
1
1
1
1
1
1
1
1
1
1
1
1
1
1
1
1
1
1
1
1
1
1
1
1
1
1
1
1
1
1
1
1
1
1
1
1
1
1
1
1
1
1
1
1
1
1
1
1
1
1
1
1
1
1
1
1
1
1
1
1
1
1
1
1
1
0.999998
0.983318
0.627839
0.257735
0.0940138
0.0290967
0.0710255
0.957322
0.065276
0.0435841
0.07657
0.278883
0.952516
0.352729
0.153678
0.0181199
0.00161439
0.00905218
0.000425848
1.2384e-07
3.11145e-06
1
1
1
1
1
1
1
1
1
1
1
1
1
1
1
1
1
1
1
1
1
1
1
1
1
1
1
1
1
1
1
1
1
1
1
1
1
1
1
1
1
1
1
1
1
1
1
1
1
1
1
1
1
1
1
1
1
1
1
1
1
1
1
1
1
1
1
1
0.995215
0.741607
0.314859
0.131042
0.0350915
0.0318858
0.159351
0.107798
0.021882
0.0218943
0.0387818
0.127991
0.348424
0.157181
0.0729766
0.00753367
0.000607484
0.0347131
3.01576e-05
6.37321e-08
4.90454e-06
1
1
1
1
1
1
1
1
1
1
1
1
1
1
1
1
1
1
1
1
1
1
1
1
1
1
1
1
1
1
1
1
1
1
1
1
1
1
1
1
1
1
1
1
1
1
1
1
1
1
1
1
1
1
1
1
1
1
1
1
1
1
1
1
1
1
1
1
0.998815
0.839387
0.383561
0.166232
0.0451441
0.0224508
0.698761
0.363762
0.021591
0.0108107
0.0121095
0.019687
0.0551003
0.0975022
0.0749522
0.0374739
0.00338461
0.000260073
0.224281
3.03792e-06
4.18085e-08
7.42173e-06
1
1
1
1
1
1
1
1
1
1
1
1
1
1
1
1
1
1
1
1
1
1
1
1
1
1
1
1
1
1
1
1
1
1
1
1
1
1
1
1
1
1
1
1
1
1
1
1
1
1
1
1
1
1
1
1
1
1
1
1
1
1
1
1
1
1
1
1
0.999738
0.909193
0.461184
0.194674
0.0594054
0.0226289
0.158899
0.960786
0.0287662
0.00991216
0.00603314
0.00647266
0.00977179
0.0226303
0.0274415
0.0449323
0.0300819
0.00138525
0.000151848
0.0312996
2.61883e-07
3.49184e-08
1.12391e-05
1
1
1
1
1
1
1
1
1
1
1
1
1
1
1
1
1
1
1
1
1
1
1
1
1
1
1
1
1
1
1
1
1
1
1
1
1
1
1
1
1
1
1
1
1
1
1
1
1
1
1
1
1
1
1
1
1
1
1
1
1
1
1
1
1
1
1
1
0.999946
0.952711
0.542126
0.226633
0.0781292
0.0245987
0.0637628
0.575296
0.0486186
0.0112518
0.00544147
0.00336022
0.00342789
0.00484442
0.00894735
0.00872129
0.0342876
0.0118876
0.000572979
0.000129745
0.00177543
5.74608e-08
3.66285e-08
1.76822e-05
1
1
1
1
1
1
1
1
1
1
1
1
1
1
1
1
1
1
1
1
1
1
1
1
1
1
1
1
1
1
1
1
1
1
1
1
1
1
1
1
1
1
1
1
1
1
1
1
1
1
1
1
1
1
1
1
1
1
1
1
1
1
1
1
1
1
1
1
0.99999
0.977142
0.624339
0.263453
0.10186
0.0283224
0.0335337
0.135896
0.140722
0.0141023
0.00572659
0.00300972
0.00187521
0.00186193
0.00237099
0.00337417
0.00284874
0.0150774
0.00453443
0.000252107
0.000128236
4.33454e-05
1.81762e-08
4.70816e-08
3.1905e-05
1
1
1
1
1
1
1
1
1
1
1
1
1
1
1
1
1
1
1
1
1
1
1
1
1
1
1
1
1
1
1
1
1
1
1
1
1
1
1
1
1
1
1
1
1
1
1
1
1
1
1
1
1
1
1
1
1
1
1
1
1
1
1
1
1
1
1
1
0.999998
0.989698
0.705425
0.305619
0.130756
0.0339634
0.0213766
0.67817
0.5049
0.0232444
0.00672279
0.00305457
0.00167344
0.0010655
0.00102619
0.00112387
0.00126236
0.00100117
0.00727114
0.00203109
0.000145215
0.000206597
1.57498e-06
8.45609e-09
7.31035e-08
6.54873e-05
1
1
1
1
1
1
1
1
1
1
1
1
1
1
1
1
1
1
1
1
1
1
1
1
1
1
1
1
1
1
1
1
1
1
1
1
1
1
1
1
1
1
1
1
1
1
1
1
1
1
1
1
1
1
1
1
1
1
1
1
1
1
1
1
1
1
1
1
1
0.995643
0.779739
0.352923
0.155688
0.0416214
0.0183843
0.216587
0.995905
0.0454311
0.0105004
0.00356842
0.00163113
0.000934955
0.000626402
0.000564526
0.000521887
0.000471589
0.000386106
0.00117039
0.000763338
0.000103341
0.0065018
1.12595e-07
5.38323e-09
1.38423e-07
0.000160363
1
1
1
1
1
1
1
1
1
1
1
1
1
1
1
1
1
1
1
1
1
1
1
1
1
1
1
1
1
1
1
1
1
1
1
1
1
1
1
1
1
1
1
1
1
1
1
1
1
1
1
1
1
1
1
1
1
1
1
1
1
1
1
1
1
1
1
1
1
0.998246
0.842338
0.404149
0.175341
0.0512516
0.018815
0.095637
0.893897
0.0989258
0.0187331
0.00540402
0.0018827
0.000881885
0.000530684
0.000372944
0.000318772
0.000246646
0.000176444
0.000158165
0.000232393
0.000254542
0.000104442
0.000162763
1.57448e-08
5.07375e-09
3.10197e-07
0.000555466
1
1
1
1
1
1
1
1
1
1
1
1
1
1
1
1
1
1
1
1
1
1
1
1
1
1
1
1
1
1
1
1
1
1
1
1
1
1
1
1
1
1
1
1
1
1
1
1
1
1
1
1
1
1
1
1
1
1
1
1
1
1
1
1
1
1
1
1
1
0.999319
0.89114
0.45776
0.195908
0.0627618
0.0200728
0.0535164
0.309286
0.30385
0.0349816
0.00940259
0.00277771
0.00101162
0.000482904
0.000302191
0.000231398
0.000181596
0.000123259
6.76471e-05
6.22791e-05
5.03942e-05
5.54609e-05
0.00016886
2.57124e-06
4.08971e-09
6.20043e-09
9.41243e-07
0.00182656
1
1
1
1
1
1
1
1
1
1
1
1
1
1
1
1
1
1
1
1
1
1
1
1
1
1
1
1
1
1
1
1
1
1
1
1
1
1
1
1
1
1
1
1
1
1
1
1
1
1
1
1
1
1
1
1
1
1
1
1
1
1
1
1
1
1
1
1
1
0.999742
0.927043
0.511768
0.218058
0.0762633
0.0221152
0.035236
0.886397
0.873467
0.0745132
0.016584
0.00481934
0.00145058
0.000546557
0.000271958
0.000176134
0.000147594
0.000108453
5.8905e-05
2.96264e-05
2.25409e-05
1.36438e-05
1.02112e-05
0.000238272
1.06098e-07
1.61143e-09
1.1861e-08
2.93624e-06
0.019849
1
1
1
1
1
1
1
1
1
1
1
1
1
1
1
1
1
1
1
1
1
1
1
1
1
1
1
1
1
1
1
1
1
1
1
1
1
1
1
1
1
1
1
1
1
1
1
1
1
1
1
1
1
1
1
1
1
1
1
1
1
1
1
1
1
1
1
1
1
0.999905
0.952271
0.56531
0.241732
0.0917929
0.0248746
0.0245425
0.443937
1
0.200166
0.0339971
0.00852541
0.00246446
0.000764269
0.000301181
0.000157879
0.000103869
9.91139e-05
6.25701e-05
3.02724e-05
1.34777e-05
9.47492e-06
4.26918e-06
3.65799e-06
0.000152779
7.27099e-09
1.36396e-09
2.46622e-08
2.64248e-05
0.0119561
1
1
1
1
1
1
1
1
1
1
1
1
1
1
1
1
1
1
1
1
1
1
1
1
1
1
1
1
1
1
1
1
1
1
1
1
1
1
1
1
1
1
1
0.999983
1
1
1
1
1
1
1
1
1
1
1
1
1
1
1
1
1
1
1
1
1
1
1
1
1
0.999965
0.969619
0.618123
0.267377
0.109269
0.0283596
0.0176633
0.227593
1
0.571973
0.0878735
0.0165449
0.00429299
0.00127279
0.000398693
0.000169802
9.52094e-05
6.38205e-05
6.4147e-05
3.87396e-05
1.51337e-05
7.88255e-06
3.23254e-06
1.8619e-06
1.53075e-06
9.72614e-07
1.99693e-09
1.23092e-09
1.5807e-07
1.4212e-05
1
1
1
1
1
1
1
1
1
1
1
1
1
1
1
1
1
1
1
1
1
1
1
1
1
1
1
1
1
1
1
1
1
1
1
1
1
1
1
1
1
1
1
1
0.999717
1
1
1
1
1
1
1
1
1
1
1
1
1
1
1
1
1
1
1
1
1
1
1
1
0.999988
0.981048
0.670084
0.295098
0.128763
0.0326167
0.0144747
0.135994
0.963563
0.986256
0.263062
0.0395933
0.00842123
0.00221412
0.000639027
0.000218595
9.71701e-05
6.08271e-05
4.16823e-05
4.54963e-05
2.18109e-05
9.98564e-06
3.67355e-06
1.78975e-06
6.10278e-07
2.51921e-06
1.17694e-07
4.11172e-10
6.35434e-09
6.04996e-08
1
1
1
1
1
1
1
1
1
1
1
1
1
1
1
1
1
1
1
1
1
1
1
1
1
1
1
1
1
1
1
1
1
1
1
1
1
1
1
1
1
1
1
1
1
0.99798
1
1
1
1
1
1
1
1
1
1
1
1
1
1
1
1
1
1
1
1
1
1
1
0.999996
0.988471
0.72007
0.324634
0.144773
0.037685
0.014683
0.0895199
0.996088
0.999659
0.699916
0.106932
0.0183552
0.00384094
0.00108674
0.000332892
0.000118744
5.90415e-05
3.88401e-05
3.03471e-05
2.93388e-05
1.53529e-05
5.16286e-06
2.68783e-06
6.4069e-07
7.88413e-07
1.66973e-07
8.61826e-10
3.62025e-09
7.51707e-10
1
1
1
1
1
1
1
1
1
1
1
1
1
1
1
1
1
1
1
1
1
1
1
1
1
1
1
1
1
1
1
1
1
1
1
1
1
1
1
1
1
1
1
1
1
0.999962
0.993213
1
1
1
1
1
1
1
1
1
1
1
1
1
1
1
1
1
1
1
1
1
1
0.999998
0.993148
0.766718
0.355973
0.157321
0.0434795
0.0152005
0.0631383
0.964092
1
0.972004
0.298997
0.0459092
0.00793304
0.00187152
0.000555447
0.000171919
6.61285e-05
3.57922e-05
2.80765e-05
2.27862e-05
2.43103e-05
7.91559e-06
3.93719e-06
8.31325e-07
1.52026e-06
1.9047e-08
1.28185e-09
1.08038e-09
2.71673e-11
1
1
1
1
1
1
1
1
1
1
1
1
1
1
1
1
1
1
1
1
1
1
1
1
1
1
1
1
1
1
1
1
1
1
1
1
1
1
1
1
1
1
1
1
1
1
0.990433
0.987308
1
1
1
1
1
1
1
1
1
1
1
1
1
1
1
1
1
1
1
1
1
0.999999
0.996022
0.808856
0.388404
0.170079
0.0499454
0.0159885
0.0466344
0.725488
1
1
0.619196
0.135258
0.017066
0.003413
0.000975404
0.000276277
9.12592e-05
3.73365e-05
2.49938e-05
1.88351e-05
2.21743e-05
1.41856e-05
6.36884e-06
9.29991e-07
3.80055e-06
2.44959e-08
6.15133e-10
1.8746e-11
2.6458e-12
1
1
1
1
1
1
1
1
1
1
1
1
1
1
1
1
1
1
1
1
1
1
1
1
1
1
1
1
1
1
1
1
1
1
1
1
1
1
1
1
1
1
1
1
1
1
1
0.862604
0.9846
1
1
1
1
1
1
1
1
1
1
1
1
1
1
1
1
1
1
1
1
1
0.997744
0.845907
0.421745
0.182957
0.0571055
0.0170585
0.035397
0.505243
0.999988
1
0.99918
0.281938
0.0507941
0.00717471
0.00160667
0.000452324
0.00013623
4.55166e-05
2.43711e-05
1.56787e-05
1.81831e-05
1.8293e-05
1.63419e-05
1.0128e-06
2.92035e-06
8.09887e-09
1.98795e-10
2.68378e-12
6.54366e-13
1
1
1
1
1
1
1
1
1
1
1
1
1
1
1
1
1
1
1
1
1
1
1
1
1
1
1
1
1
1
1
1
1
1
1
1
1
1
1
1
1
1
1
1
1
1
1
1
0.583142
0.993194
1
1
1
1
1
1
1
1
1
1
1
1
1
1
1
1
1
1
1
1
0.998745
0.877561
0.455858
0.196432
0.065007
0.0183716
0.0276911
0.366781
0.996159
0.992827
0.999998
0.850703
0.0847126
0.0164959
0.00333144
0.00073526
0.000219772
6.23161e-05
2.66217e-05
1.34796e-05
1.50558e-05
1.58433e-05
0.000505594
1.27866e-06
7.15087e-07
3.29844e-09
6.99716e-11
8.60347e-13
2.58824e-13
1
1
1
1
1
1
1
1
1
1
1
1
1
1
1
1
1
1
1
1
1
1
1
1
1
1
1
1
1
1
1
1
1
1
1
1
1
1
1
1
1
1
1
1
1
1
1
1
1
0.373446
0.999643
1
1
1
1
1
1
1
1
1
1
1
1
1
1
1
1
1
1
1
0.999325
0.904161
0.490221
0.21063
0.0736722
0.0199334
0.0221207
0.229525
0.87873
0.486623
0.57554
0.781217
0.466965
0.030919
0.00636434
0.00137284
0.000349997
9.44123e-05
3.44175e-05
1.27162e-05
1.19084e-05
9.53205e-06
6.35583e-05
1.82974e-06
2.15106e-07
1.63368e-09
3.70827e-11
4.60726e-13
1.32213e-13
1
1
1
1
1
1
1
1
1
1
1
1
1
1
1
1
1
1
1
1
1
1
1
1
1
1
1
1
1
1
1
1
1
1
1
1
1
1
1
1
1
1
1
1
1
1
1
1
1
1
0.279455
0.999999
1
1
1
1
1
1
1
1
1
1
1
1
1
1
1
1
1
1
0.999635
0.92664
0.525216
0.225707
0.0831871
0.0217301
0.0179195
0.168843
0.65717
0.155194
0.113691
0.191978
0.249837
0.0667293
0.0146587
0.00260397
0.000570423
0.000145394
4.80634e-05
1.45547e-05
1.00287e-05
5.56309e-06
2.68688e-05
1.17256e-06
1.77695e-07
1.0579e-09
2.61133e-11
3.16751e-13
7.90496e-14
1
1
1
1
1
1
1
1
1
1
1
1
1
1
1
1
1
1
1
1
1
1
1
1
1
1
1
1
1
1
1
1
1
1
1
1
1
1
1
1
1
1
1
1
1
1
1
1
1
1
0.99889
0.246647
1
1
1
1
1
1
1
1
1
1
1
1
1
1
1
1
1
1
0.999833
0.943718
0.560591
0.24172
0.0936201
0.023799
0.0147328
0.136769
0.410979
0.0660071
0.033385
0.0350032
0.0447962
0.0510482
0.0346039
0.00630499
0.00106451
0.000211661
6.98893e-05
1.83458e-05
1.03403e-05
3.91585e-06
1.09251e-05
7.74723e-07
1.17809e-07
8.27474e-10
1.9397e-11
2.4065e-13
5.19535e-14
1
1
1
1
1
1
1
1
1
1
1
1
1
1
1
1
1
1
1
1
1
1
1
1
1
1
1
1
1
1
1
1
1
1
1
1
1
1
1
1
1
1
1
1
1
1
1
1
1
1
1
0.959824
0.237046
1
1
1
1
1
1
1
1
1
1
1
1
1
1
1
1
1
0.999865
0.961186
0.594572
0.258686
0.10506
0.0261656
0.0122887
0.103414
0.327573
0.0397159
0.016579
0.0143468
0.0118445
0.0140673
0.01557
0.0132215
0.00292977
0.00035048
0.000104671
2.44092e-05
1.17835e-05
3.34082e-06
5.7927e-06
4.77613e-07
6.35195e-08
6.71618e-10
1.51014e-11
1.93122e-13
3.45762e-14
1
1
1
1
1
1
1
1
1
1
1
1
1
1
1
1
1
1
1
1
1
1
1
1
1
1
1
1
1
1
1
1
1
1
1
1
1
1
1
1
1
1
1
1
1
1
1
1
1
1
1
1
0.789009
0.237183
1
1
1
1
1
1
1
1
1
1
1
1
1
1
1
1
0.999882
0.965506
0.63548
0.277217
0.117465
0.0289204
0.0115149
0.0808158
0.265442
0.0299286
0.00974241
0.00760629
0.00492886
0.0039901
0.00404727
0.00494145
0.0027922
0.00103676
0.000176673
3.75277e-05
1.4853e-05
3.22523e-06
4.09837e-06
3.05592e-07
3.65319e-08
5.44796e-10
1.2246e-11
1.59556e-13
2.5064e-14
1
1
1
1
1
1
1
1
1
1
1
1
1
1
1
1
1
1
1
1
1
1
1
1
1
1
1
1
1
1
1
1
1
1
1
1
1
1
1
1
1
1
1
1
1
1
1
1
1
1
1
1
1
0.545768
0.243179
1
1
1
1
1
1
1
1
1
1
1
1
1
1
1
0.999958
0.968553
0.657788
0.294633
0.131768
0.0319651
0.0118178
0.0638155
0.194513
0.0283484
0.00789511
0.00525897
0.00297253
0.00181851
0.00146892
0.00130705
0.00128086
0.000838612
0.000350504
7.08444e-05
2.46798e-05
3.68425e-06
3.35814e-06
2.16309e-07
3.19092e-08
4.3358e-10
1.02876e-11
1.34689e-13
1.81625e-14
1
1
1
1
1
1
1
1
1
1
1
1
1
1
1
1
1
1
1
1
1
1
1
1
1
1
1
1
1
1
1
1
1
1
1
1
1
1
1
1
1
1
1
1
1
1
1
1
1
1
1
1
1
1
0.345735
0.256758
1
1
1
1
1
1
1
1
1
1
1
1
1
1
0.999982
0.980545
0.67154
0.314207
0.13249
0.0358952
0.0121636
0.0528878
0.141344
0.0304167
0.00771133
0.00497366
0.00241699
0.00135516
0.00077825
0.0005785
0.000423598
0.0003521
0.000256006
0.000100357
4.1837e-05
5.35356e-06
4.29058e-06
1.5858e-07
2.73889e-08
3.402e-10
8.95328e-12
1.16234e-13
5.03918e-14
1
1
1
1
1
1
1
1
1
1
1
1
1
1
1
1
1
1
1
1
1
1
1
1
1
1
1
1
1
1
1
1
1
1
1
1
1
1
1
1
1
1
1
1
1
1
1
1
1
1
1
1
1
1
0.999966
0.214194
0.283464
1
1
1
1
1
1
1
1
1
1
1
1
1
0.999991
0.986882
0.721892
0.323495
0.147916
0.0375237
0.0129337
0.0428166
0.0999522
0.0311506
0.00807013
0.00540956
0.00262324
0.00135579
0.000665169
0.000390874
0.000231122
0.000169388
0.000115781
7.5908e-05
3.58887e-05
9.40423e-06
5.92217e-06
1.6727e-07
2.70634e-08
3.20621e-10
7.91816e-12
1.01765e-13
7.91636e-13
1
1
1
1
1
1
1
1
1
1
1
1
1
1
1
1
1
1
1
1
1
1
1
1
1
1
1
1
1
1
1
1
1
1
1
1
1
1
1
1
1
1
1
1
1
1
1
1
1
1
1
1
1
1
1
0.973737
0.136793
0.33176
1
1
1
1
1
1
1
1
1
1
1
1
0.999996
0.990703
0.758755
0.356569
0.154086
0.0430889
0.0123838
0.0369432
0.0880956
0.0362267
0.00825004
0.00603792
0.00317331
0.00173284
0.000804646
0.000397047
0.000206895
0.00012718
7.77651e-05
5.59727e-05
2.63445e-05
9.31333e-06
6.14561e-06
2.28877e-07
1.63402e-08
1.75084e-10
7.39086e-12
9.03783e-14
9.87751e-12
1
1
1
1
1
1
1
1
1
1
1
1
1
1
1
1
1
1
1
1
1
1
1
1
1
1
1
1
1
1
1
1
1
1
1
1
1
1
1
1
1
1
1
1
1
1
1
1
1
1
1
1
1
1
1
1
0.692789
0.0927736
0.413569
1
1
1
1
1
1
1
1
1
1
1
0.999998
0.993522
0.78671
0.381557
0.167017
0.0478234
0.0136525
0.0275542
0.102201
0.0439194
0.00858162
0.00654844
0.00401297
0.00249125
0.00116561
0.000552016
0.000256887
0.000148766
8.092e-05
5.25178e-05
2.5543e-05
1.09662e-05
5.55128e-06
2.15164e-07
9.32447e-09
1.27429e-10
4.23951e-12
8.05161e-14
5.2305e-11
1
1
1
1
1
1
1
1
1
1
1
1
1
1
1
1
1
1
1
1
1
1
1
1
1
1
1
1
1
1
1
1
1
1
1
1
1
1
1
1
1
1
1
1
1
1
1
1
1
1
1
1
1
1
1
1
1
0.334282
0.0695828
0.511056
1
1
1
1
1
1
1
1
1
1
0.999999
0.995614
0.813049
0.401294
0.177728
0.053968
0.0146133
0.024668
0.0631754
0.059301
0.00779055
0.00567347
0.00501943
0.00343377
0.00188976
0.000958008
0.000419022
0.000224749
0.000118021
7.2648e-05
3.40961e-05
1.57211e-05
7.82356e-06
2.64302e-07
6.19137e-09
9.09821e-11
3.8197e-12
7.28073e-14
1.75963e-10
1
1
1
1
1
1
1
1
1
1
1
1
1
1
1
1
1
1
1
1
1
1
1
1
1
1
1
1
1
1
1
1
1
1
1
1
1
1
1
1
1
1
1
1
1
1
1
1
1
1
1
1
1
1
1
1
1
0.999982
0.151401
0.0607527
0.597654
1
1
1
1
1
1
1
1
1
0.999999
0.99671
0.840196
0.422443
0.184961
0.0600247
0.0160982
0.0188159
0.182358
0.0297776
0.00951464
0.00494565
0.00400468
0.00463481
0.00290629
0.00182752
0.000807105
0.000409913
0.000201939
0.000125014
5.42655e-05
2.71589e-05
1.12389e-05
2.33683e-07
5.59338e-09
8.05172e-11
3.17239e-12
7.0958e-14
3.39766e-10
1
1
1
1
1
1
1
1
1
1
1
1
1
1
1
1
1
1
1
1
1
1
1
1
1
1
1
1
1
1
1
1
1
1
1
1
1
1
1
1
1
1
1
1
1
1
1
1
1
1
1
1
1
1
1
1
1
1
0.934037
0.0754818
0.0618953
0.562687
1
1
1
1
1
1
1
1
1
0.997452
0.857964
0.447984
0.193377
0.065452
0.0175516
0.0190489
0.0118694
0.211586
0.0033727
0.00524107
0.0034915
0.00340016
0.00440562
0.00338012
0.00170303
0.000896647
0.000439745
0.000247873
0.000102562
4.88442e-05
1.70118e-05
1.62367e-07
5.24404e-09
8.05106e-11
3.33989e-12
6.731e-14
5.74417e-10
1
1
1
1
1
1
1
1
1
1
1
1
1
1
1
1
1
1
1
1
1
1
1
1
1
1
1
1
1
1
1
1
1
1
1
1
1
1
1
1
1
1
1
1
1
1
1
1
1
1
1
1
1
1
1
1
1
1
1
0.473924
0.0438021
0.0733435
0.503494
1
1
1
1
1
1
1
1
0.99799
0.871936
0.466705
0.203615
0.0709474
0.0186735
0.0176885
0.0147003
0.00151494
0.0187232
0.00228682
0.00342233
0.00291742
0.00339802
0.00585075
0.00391752
0.00234571
0.00113518
0.000664017
0.000250319
7.80136e-05
2.56344e-05
1.31336e-07
5.33398e-09
7.93516e-11
3.22086e-12
6.49499e-14
6.57912e-10
1
1
1
1
1
1
1
1
1
1
1
1
1
1
1
1
1
1
1
1
1
1
1
1
1
1
1
1
1
1
1
1
1
1
1
1
1
1
1
1
1
1
1
1
1
1
1
1
1
1
1
1
1
1
1
1
1
1
1
1
0.170855
0.0305452
0.102745
0.371541
1
1
1
1
1
1
1
0.998407
0.88406
0.481731
0.212136
0.0763611
0.019744
0.014908
0.0414448
0.000694596
0.000613981
0.00615801
0.00172937
0.00251392
0.00263671
0.00487035
0.00737974
0.0055133
0.00352636
0.00189504
0.000639579
0.000123358
3.27236e-05
1.15275e-07
5.40136e-09
6.42897e-11
3.05423e-12
6.04903e-14
6.4708e-10
1
1
1
1
1
1
1
1
1
1
1
1
1
1
1
1
1
1
1
1
1
1
1
1
1
1
1
1
1
1
1
1
1
1
1
1
1
1
1
1
1
1
1
1
1
1
1
1
1
1
1
1
1
1
1
1
1
1
1
1
0.962119
0.0670652
0.0268447
0.156669
0.223483
1
1
1
1
1
1
0.998711
0.894621
0.495822
0.218719
0.0818586
0.0208514
0.0133392
0.169095
0.0572715
3.85114e-05
0.00104707
0.00229075
0.00142623
0.00187146
0.00318809
0.00873731
0.0100555
0.00765378
0.00495338
0.00170162
0.000152826
3.61117e-05
1.04747e-07
5.08594e-09
5.9991e-11
2.88942e-12
5.6856e-14
4.81823e-10
1
1
1
1
1
1
1
1
1
1
1
1
1
1
1
1
1
1
1
1
1
1
1
1
1
1
1
1
1
1
1
1
1
1
1
1
1
1
1
1
1
1
1
1
1
1
1
1
1
1
1
1
1
1
1
1
1
1
1
1
1
0.440845
0.03204
0.0308117
0.226531
0.134676
1
1
1
1
1
0.998949
0.903984
0.509667
0.22456
0.0866487
0.0220638
0.0117388
0.1153
0.0320305
0.000415603
4.35401e-05
0.00137859
0.00124965
0.00113748
0.00182501
0.00403002
0.0140488
0.018095
0.0127052
0.00368787
0.000207523
2.56055e-05
1.05913e-07
4.54781e-09
5.28496e-11
2.37198e-12
5.52341e-14
4.23276e-10
1
1
1
1
1
1
1
1
1
1
1