/*--------------------------------*- C++ -*----------------------------------*\
| =========                 |                                                 |
| \\      /  F ield         | OpenFOAM: The Open Source CFD Toolbox           |
|  \\    /   O peration     | Version:  v2012                                 |
|   \\  /    A nd           | Website:  www.openfoam.com                      |
|    \\/     M anipulation  |                                                 |
\*---------------------------------------------------------------------------*/
FoamFile
{
    version     2.0;
    format      ascii;
    class       volScalarField;
    location    "0";
    object      q4;
}
// * * * * * * * * * * * * * * * * * * * * * * * * * * * * * * * * * * * * * //

dimensions      [0 0 0 0 0 0 0];


internalField   uniform 0;

boundaryField
{
    base
    {
        type            calculated;
        value           nonuniform List<scalar> 
317
(
0.0121354
0.0124249
0.0121954
0.0120184
0.0118849
0.0117737
0.011677
0.0115941
0.0115233
0.0114602
0.011403
0.0113493
0.0112994
0.0112528
0.0112105
0.0111719
0.0111374
0.0111062
0.0110783
0.0110531
0.0110306
0.0110103
0.0109922
0.0109759
0.010961
0.0109472
0.0109345
0.0109229
0.0109123
0.0109025
0.0108936
0.0108857
0.0108785
0.0108719
0.0108658
0.0108602
0.0108545
0.0108497
0.0108621
0.0121495
0.0110176
0.0110561
0.0115002
0.0112463
0.0109268
0.0108655
0.0108137
0.0108023
0.010798
0.0107948
0.0107904
0.0107861
0.0107829
0.0107809
0.0107752
0.0103623
0.00751491
0.00671366
0.00727184
0.00697328
0.00679983
0.00670612
0.00665675
0.00666656
0.0067074
0.00677816
0.00686603
0.00695581
0.00703298
0.00709711
0.00714991
0.00719546
0.00723809
0.00728411
0.00733946
0.00740731
0.00748929
0.00758491
0.0076925
0.00780841
0.0079294
0.00805194
0.00817493
0.00829604
0.00841172
0.00852102
0.00862354
0.00871865
0.00880629
0.00888704
0.00896423
0.00904018
0.00909684
0.00913689
0.00917926
0.00921656
0.00924692
0.00926988
0.00928644
0.00929687
0.00929966
0.00929436
0.00928078
0.00926015
0.00923072
0.00919307
0.00914394
0.00908332
0.00900521
0.00890983
0.00878472
0.00861754
0.00838343
0.00802189
0.00749886
0.00645531
0.00514922
0.00279298
0.00434785
0.00173283
0.00330879
0.00414588
0.00487394
0.00560978
0.00622782
0.0067538
0.00718133
0.00751275
0.00778285
0.00802685
0.00824138
0.00841907
0.0085931
0.00872746
0.00887206
0.0090322
0.00914813
0.00927449
0.0093897
0.00946393
0.00953426
0.00961687
0.00971427
0.00980934
0.00988086
0.00990538
0.00997072
0.0100327
0.0100949
0.0101997
0.0102563
0.0103104
0.0103632
0.0103695
0.0104197
0.0105331
0.0105821
0.0105619
0.0106022
0.0106471
0.0107088
0.0106452
0.0105188
0.0107723
0.0110228
0.0110631
0.0111
0.0111332
0.0109473
0.0109783
0.0112302
0.0112608
0.0112891
0.0112643
0.0112901
0.0113156
0.0112834
0.0111303
0.0109729
0.0109848
0.0109948
0.0112301
0.0114667
0.011252
0.0110871
0.0109403
0.0109339
0.010901
0.0106646
0.0113938
0.0115838
0.0110436
0.010985
0.0109361
0.0108704
0.0107929
0.0107302
0.0106408
0.0110284
0.0109239
0.0103043
0.0101459
0.00999122
0.0102889
0.0101085
0.00969697
0.00986473
0.00976064
0.00908897
0.0083794
0.0080419
0.00767889
0.0071151
0.00698689
0.00645256
0.00556738
0.00520346
0.00422427
0.00283755
0.0006138
0.00307166
0.00433161
0.00534584
0.00608108
0.00684996
0.00745986
0.00812242
0.00875399
0.0091834
0.00999361
0.0108236
0.0114134
0.011749
0.0122664
0.013099
0.0136666
0.0141711
0.0147332
0.0152144
0.0157072
0.0169107
0.0173502
0.0169757
0.018196
0.0185399
0.01675
0.0154381
0.0200351
0.024901
0.0250566
0.0211216
0.0181004
0.0179208
0.0174405
0.0237373
0.027096
0.0264352
0.0231855
0.0235337
0.0245637
0.0197755
0.0189672
0.0189955
0.0194146
0.0263461
0.0304225
0.0257247
0.0198999
0.0200575
0.0256154
0.0259847
0.0224755
0.0218868
0.0271282
0.0284859
0.0291861
0.028773
0.0217897
0.027814
0.0282174
0.0295779
0.0295727
0.0237496
0.0238467
0.0286054
0.028892
0.0288137
0.0286579
0.0222034
0.028939
0.0293068
0.0225915
0.0224434
0.0235186
0.024946
0.0246617
0.0287648
0.0309183
0.0244787
0.029919
0.0298377
0.0238051
0.0299556
0.0299693
0.0238858
0.023841
0.0292387
0.0347627
0.0297483
0.0295149
0.0297855
0.0235229
0.0234152
0.0294605
0.0310795
0.0309426
0.0301129
)
;
    }
    frontAndBack
    {
        type            empty;
    }
    inlet
    {
        type            calculated;
        value           uniform 0;
    }
    outlet
    {
        type            calculated;
        value           uniform 0;
    }
    top
    {
        type            calculated;
        value           uniform 0;
    }
}


// ************************************************************************* //
