/*--------------------------------*- C++ -*----------------------------------*\
| =========                 |                                                 |
| \\      /  F ield         | OpenFOAM: The Open Source CFD Toolbox           |
|  \\    /   O peration     | Version:  v2012                                 |
|   \\  /    A nd           | Website:  www.openfoam.com                      |
|    \\/     M anipulation  |                                                 |
\*---------------------------------------------------------------------------*/
FoamFile
{
    version     2.0;
    format      ascii;
    class       volScalarField;
    location    "0";
    object      Rekd;
}
// * * * * * * * * * * * * * * * * * * * * * * * * * * * * * * * * * * * * * //

dimensions      [0 0 0 0 0 0 0];


internalField   nonuniform List<scalar> 
31383
(
0.000155633
0.000163986
0.000189275
0.000157926
0.000281463
0.000252607
0.000153327
0.00026971
0.000947633
0.000519902
0.000149906
0.000260743
0.000904352
0.00255199
0.00105873
0.000147087
0.000254077
0.000871192
0.0024348
0.00545966
0.00194588
0.000144655
0.000248595
0.000846539
0.00234392
0.00520684
0.0101643
0.00330283
0.000142588
0.000243889
0.000826283
0.00227684
0.00501197
0.00968903
0.0172974
0.00530015
0.000140835
0.000239879
0.000808949
0.00222173
0.00486772
0.00932595
0.0164874
0.0276475
0.00817265
0.000139282
0.000236475
0.000794144
0.0021746
0.00474967
0.00905673
0.0158667
0.0263534
0.0421939
0.0122434
0.000137881
0.00023348
0.000781568
0.00213433
0.00464788
0.00883509
0.0154062
0.0253641
0.0401722
0.0617262
0.0179526
0.000136574
0.000230776
0.000770551
0.00210013
0.00456131
0.00864519
0.015028
0.0246282
0.0386761
0.0588494
0.0869357
0.0259158
0.000135363
0.000228257
0.000760597
0.00207017
0.00448781
0.00848342
0.0147052
0.0240238
0.0375622
0.0567025
0.0831398
0.118367
0.0368401
0.000134238
0.000225927
0.000751329
0.00204312
0.00442344
0.00834646
0.0144286
0.0235068
0.0366479
0.0551021
0.0802674
0.11346
0.155962
0.051731
0.00013322
0.000223763
0.000742764
0.00201794
0.00436535
0.0082258
0.0141947
0.0230654
0.0358655
0.0537852
0.0780245
0.10966
0.149872
0.199652
0.0716602
0.000132296
0.000221813
0.000734808
0.00199467
0.00431125
0.00811726
0.0139893
0.0226912
0.0351965
0.0526986
0.0762209
0.106811
0.145141
0.19227
0.249389
0.0975142
0.000131472
0.000220046
0.000727665
0.00197306
0.0042613
0.00801624
0.0138039
0.022363
0.0346288
0.0516925
0.074712
0.104458
0.141589
0.186561
0.240686
0.305686
0.130579
0.00013073
0.000218469
0.000721196
0.00195366
0.00421492
0.00792299
0.0136318
0.0220669
0.0341308
0.0508724
0.0733492
0.102435
0.138677
0.182268
0.233889
0.29538
0.369129
0.171955
0.000130068
0.000217056
0.00071542
0.0019361
0.00417343
0.00783662
0.0134725
0.0217915
0.0336822
0.0501536
0.0722209
0.100732
0.136111
0.178733
0.228799
0.287433
0.357048
0.440362
0.223029
0.000129471
0.00021579
0.000710255
0.00192042
0.00413557
0.00775882
0.0133252
0.0215373
0.0332886
0.049505
0.0712569
0.0992227
0.133968
0.17566
0.224601
0.281438
0.347732
0.426231
0.520213
0.285185
0.000128938
0.000214656
0.000705619
0.00190639
0.00410192
0.0076883
0.0131924
0.0213013
0.0328789
0.0489239
0.0703369
0.0979464
0.132083
0.173009
0.220957
0.276456
0.340712
0.415395
0.503717
0.609709
0.358851
0.000128462
0.000213644
0.000701486
0.00189379
0.0040718
0.00762545
0.0130727
0.0210897
0.032521
0.0483437
0.0695041
0.0967492
0.130468
0.17077
0.217839
0.272176
0.334917
0.407239
0.491147
0.590505
0.710122
0.445425
0.000128035
0.000212739
0.000697794
0.00188267
0.00404479
0.00756932
0.0129654
0.0208982
0.0322
0.0478266
0.0687368
0.0956541
0.128974
0.168782
0.21516
0.268525
0.329933
0.400508
0.481705
0.575933
0.687734
0.822899
0.546888
0.000127651
0.000211929
0.000694494
0.00187255
0.00402081
0.0075189
0.0128696
0.020727
0.0319093
0.0473619
0.0680238
0.0946623
0.127596
0.166977
0.212803
0.265404
0.325663
0.394709
0.473912
0.565005
0.670874
0.796843
0.949788
0.664927
0.000127301
0.000211201
0.000691536
0.00186359
0.0039992
0.00747393
0.0127837
0.0205737
0.0316497
0.0469556
0.0673823
0.0937074
0.126342
0.165316
0.21067
0.262645
0.322021
0.389765
0.467211
0.556005
0.658243
0.777323
0.91948
1.09276
0.801186
0.000126978
0.000210537
0.000688884
0.00185557
0.00397995
0.00743388
0.0127071
0.0204363
0.0314173
0.0465647
0.0668143
0.092863
0.125158
0.163762
0.208698
0.260162
0.318805
0.385541
0.461486
0.548261
0.647836
0.762715
0.896881
1.05763
1.2542
0.957323
0.000126682
0.000209925
0.000686466
0.00184837
0.00396274
0.00739787
0.0126386
0.0203138
0.0312086
0.0462283
0.0662812
0.0920967
0.124082
0.162338
0.20687
0.257839
0.315901
0.381812
0.456601
0.541661
0.638912
0.750706
0.880006
1.03146
1.2136
1.43678
1.13524
0.000126411
0.000209364
0.000684234
0.0018418
0.00394729
0.00736575
0.0125774
0.0202044
0.0310226
0.045926
0.0658258
0.0914122
0.123115
0.161035
0.205163
0.255703
0.313212
0.378449
0.452296
0.536023
0.631299
0.74042
0.866142
1.01194
1.18328
1.39007
1.6436
1.33706
0.000126162
0.000208851
0.000682192
0.00183574
0.00393319
0.00733691
0.0125225
0.0201064
0.0308563
0.0456563
0.0653967
0.0908068
0.122252
0.159867
0.203632
0.253722
0.310729
0.375345
0.448412
0.531055
0.624809
0.731643
0.854279
0.995933
1.16071
1.35491
1.58988
1.87808
1.56494
0.000125935
0.000208382
0.000680327
0.00183021
0.00392019
0.0073106
0.0124733
0.0200188
0.0307076
0.0454152
0.0650232
0.0902448
0.121475
0.158808
0.202237
0.251933
0.308432
0.372468
0.444831
0.526586
0.619086
0.724167
0.844161
0.982248
1.1422
1.32879
1.54912
1.81628
2.14411
1.82066
0.000125728
0.000207953
0.000678618
0.00182514
0.0039083
0.00728633
0.0124284
0.0199401
0.0305745
0.0451994
0.0646895
0.0897584
0.120784
0.157862
0.200992
0.250307
0.306349
0.369812
0.441522
0.522464
0.613933
0.717579
0.835544
0.970585
1.1264
1.3074
1.51889
1.76902
2.07296
2.44605
2.10384
0.000125542
0.000207564
0.000677061
0.0018205
0.00389742
0.00726413
0.0123871
0.0198683
0.0304547
0.0450061
0.0643902
0.0893086
0.120159
0.157018
0.199868
0.248851
0.304461
0.367413
0.438466
0.518662
0.609201
0.711651
0.827957
0.960643
1.11294
1.28914
1.49414
1.73402
2.01815
2.36411
2.78896
2.40702
0.000125374
0.000207214
0.000675651
0.00181628
0.0038875
0.00724383
0.0123492
0.0198022
0.0303456
0.0448324
0.064122
0.0889128
0.119593
0.156255
0.198865
0.247543
0.302769
0.365231
0.435707
0.515157
0.604839
0.706215
0.821135
0.951903
1.10148
1.2736
1.47306
1.7054
1.97763
2.30051
2.69454
3.17861
2.71598
0.000125222
0.000206899
0.000674383
0.00181245
0.00387839
0.00722525
0.0123146
0.0197416
0.030245
0.0446741
0.0638812
0.0885576
0.119091
0.155567
0.19796
0.246365
0.301245
0.363277
0.433203
0.511989
0.600816
0.701207
0.814882
0.944047
1.0914
1.26036
1.45511
1.68105
1.94453
2.25359
2.6207
3.06973
3.62168
3.02867
0.000125081
0.000206612
0.00067324
0.001809
0.00387019
0.0072083
0.0122829
0.0196862
0.0301529
0.0445278
0.0636613
0.0882386
0.118641
0.154954
0.197144
0.245302
0.299875
0.361516
0.430957
0.509114
0.597185
0.696597
0.809138
0.936864
1.08235
1.24873
1.43983
1.66031
1.91639
2.21532
2.56641
2.98403
3.49591
4.12573
3.34622
0.000124951
0.000206347
0.0006722
0.00180591
0.00386278
0.00719298
0.012254
0.0196354
0.0300688
0.0443942
0.0634584
0.087947
0.118236
0.154404
0.196415
0.244356
0.298645
0.359935
0.428932
0.506536
0.593897
0.692434
0.803852
0.930264
1.07408
1.2383
1.42641
1.64268
1.89246
2.1828
2.52214
2.92113
3.39636
3.98029
4.6998
3.66814
0.000124819
0.000206103
0.000671242
0.00180308
0.00385613
0.00717914
0.0122279
0.0195893
0.0299916
0.0442718
0.0632728
0.0876782
0.117866
0.15391
0.195763
0.243499
0.297538
0.358514
0.427114
0.504212
0.590939
0.688666
0.799084
0.924198
1.06649
1.22877
1.41438
1.62719
1.87209
2.15518
2.48458
2.86991
3.32351
3.8646
4.53095
5.35424
3.9852
0.000124705
0.000205853
0.000670369
0.00180048
0.00385007
0.00716671
0.0122042
0.0195473
0.0299214
0.0441597
0.0631027
0.087432
0.117525
0.153457
0.195171
0.242735
0.296544
0.357234
0.425471
0.502127
0.588277
0.685278
0.794762
0.918731
1.05953
1.22004
1.4034
1.61331
1.85421
2.13166
2.45268
2.82652
3.26428
3.78018
4.39646
5.1573
6.10141
4.28261
0.000124986
0.000205642
0.00066944
0.00179808
0.00384447
0.00715538
0.012183
0.0195096
0.0298576
0.0440577
0.0629473
0.0872066
0.117215
0.153042
0.194632
0.242042
0.295652
0.356084
0.423998
0.500242
0.585883
0.682224
0.79088
0.913772
1.05325
1.21204
1.39337
1.60068
1.8382
2.11102
2.42551
2.78965
3.21412
3.71161
4.29858
5.00083
5.87001
6.95596
4.53847
0.000160236
0.000205579
0.000668688
0.00179558
0.0038393
0.00714492
0.0121637
0.0194757
0.0298002
0.043965
0.0628056
0.0869998
0.116925
0.152658
0.194137
0.241412
0.294848
0.355048
0.422671
0.498549
0.583721
0.679481
0.787381
0.909316
1.04756
1.20482
1.38416
1.58912
1.82365
2.09257
2.40169
2.75831
3.17154
3.65366
4.21925
4.88732
5.68782
6.68136
7.93438
4.72238
0.00012882
0.0154261
0.000666911
0.00179354
0.00383397
0.00713524
0.0121458
0.0194446
0.0297484
0.0438815
0.0626788
0.0868116
0.116662
0.152305
0.193679
0.240828
0.294111
0.354115
0.421482
0.497026
0.581777
0.677004
0.784232
0.905307
1.04245
1.19829
1.37586
1.57854
1.81035
2.07581
2.3804
2.73082
3.13536
3.60448
4.15225
4.79548
5.55614
6.46909
7.60535
9.05532
4.79543
0.000129819
0.000930811
0.0485196
0.00178844
0.00382959
0.00712529
0.0121292
0.019416
0.0297012
0.0438063
0.0625597
0.0866422
0.116423
0.151983
0.193262
0.240295
0.293432
0.353262
0.420405
0.495656
0.580026
0.674772
0.781392
0.901694
1.03784
1.19241
1.36835
1.569
1.79818
2.0605
2.36109
2.70627
3.10365
3.5627
4.09546
4.71804
5.44978
6.31617
7.35779
8.65808
10.3395
4.71431
0.000141124
0.00160777
0.00263099
0.107123
0.00381859
0.0071171
0.0121123
0.0193895
0.0296577
0.0437375
0.0624551
0.0864871
0.116205
0.15169
0.192879
0.239804
0.29281
0.352478
0.419422
0.494417
0.578455
0.672762
0.77883
0.898433
1.03369
1.18712
1.36161
1.56036
1.78721
2.04649
2.34346
2.68403
3.07533
3.52608
4.04718
4.65239
5.36019
6.19293
7.18012
8.36916
9.85801
11.8092
4.44555
0.000134684
0.00385385
0.00468087
0.0059256
0.190044
0.00709653
0.0120983
0.0193622
0.0296172
0.0436739
0.0623593
0.0863453
0.11601
0.151423
0.192527
0.239353
0.292236
0.351754
0.418518
0.493287
0.577033
0.670956
0.776526
0.895491
1.02994
1.18235
1.35552
1.55261
1.77729
2.03389
2.32737
2.66371
3.04968
3.49344
4.00494
4.59666
5.28441
6.08934
7.03726
8.16255
9.52058
11.2264
13.4863
3.99635
0.00012675
0.00294217
0.0122713
0.0106281
0.0109795
0.296765
0.0120631
0.0193399
0.0295776
0.0436152
0.0622707
0.086218
0.11583
0.151182
0.192209
0.238942
0.291713
0.351091
0.417684
0.492244
0.575735
0.669323
0.774449
0.892843
1.02657
1.17805
1.35004
1.54562
1.76838
2.02249
2.31287
2.64519
3.02631
3.46387
3.96729
4.5479
5.22003
6.0017
6.91744
7.99689
9.28004
10.8319
12.7876
15.3877
3.45143
0.000125281
0.0014412
0.00906933
0.0280692
0.0193951
0.017685
0.426838
0.0192831
0.0295413
0.043554
0.0621887
0.0861
0.115668
0.150964
0.191921
0.238567
0.291233
0.350484
0.416919
0.491285
0.574533
0.66783
0.772575
0.890462
1.02353
1.17416
1.34509
1.53933
1.76034
2.01224
2.29976
2.62852
3.00499
3.43694
3.93321
4.50444
5.16373
5.92738
6.81614
7.85818
9.0878
10.5515
12.3259
14.5697
17.5167
2.96532
0.000123878
0.00119703
0.00415942
0.0206038
0.0509278
0.0308613
0.0266955
0.57844
0.0294537
0.043504
0.0621058
0.0859904
0.115518
0.150765
0.19166
0.238229
0.290795
0.349929
0.416217
0.490405
0.573433
0.666454
0.770859
0.888306
1.02078
1.17066
1.34063
1.53363
1.7531
2.003
2.28798
2.61346
2.98582
3.41242
3.9022
4.46516
5.11359
5.8624
6.73029
7.7411
8.92715
10.3283
11.9988
14.029
16.6056
19.8485
2.66932
0.000123604
0.000392264
0.00340903
0.00940822
0.0372545
0.0807673
0.0455191
0.0380431
0.747157
0.043374
0.0620346
0.0858777
0.115378
0.150578
0.191422
0.237923
0.290398
0.349419
0.415575
0.489598
0.572421
0.66519
0.769277
0.886334
1.0183
1.16751
1.3366
1.52849
1.74655
1.99467
2.27736
2.59991
2.9685
3.39039
3.87397
4.42947
5.0683
5.80455
6.65524
7.64188
8.79174
10.1422
11.7393
13.6467
15.9711
18.9335
22.3108
2.62225
0.000123504
0.000327068
0.00115065
0.0077152
0.0170461
0.0588865
0.117574
0.0630733
0.0526861
0.920231
0.061848
0.0857861
0.115234
0.150407
0.191198
0.237642
0.290039
0.348959
0.414987
0.488858
0.571493
0.664028
0.767826
0.884514
1.01604
1.16465
1.33297
1.52387
1.74065
1.98714
2.26779
2.5877
2.95292
3.37046
3.84864
4.397
5.02719
5.75234
6.58849
7.55526
8.6771
9.98561
11.5236
13.3448
15.5236
18.1866
21.5965
24.7858
2.79399
0.000123429
0.000221017
0.000971011
0.0027625
0.0141914
0.0271363
0.0857184
0.161187
0.0845053
0.0713789
1.08855
0.0855284
0.115118
0.150229
0.190993
0.23738
0.289709
0.348542
0.414455
0.488181
0.570642
0.662961
0.76649
0.882846
1.01395
1.16204
1.32968
1.51969
1.73532
1.98037
2.25913
2.5767
2.93889
3.35256
3.8257
4.36783
4.98979
5.70498
6.52831
7.47819
8.57711
9.85308
11.3424
13.0946
15.1719
17.6621
20.7153
24.6356
27.1064
3.09941
0.000123327
0.000210879
0.000702603
0.00239604
0.00555296
0.0229104
0.0398844
0.117596
0.211026
0.10936
0.09371
1.23935
0.114774
0.150087
0.190779
0.237135
0.289403
0.348157
0.413969
0.487567
0.569862
0.661982
0.765264
0.881309
1.01203
1.15964
1.32668
1.5159
1.7305
1.97422
2.25131
2.56675
2.92623
3.3364
3.80511
4.34147
4.95625
5.66191
6.47371
7.40881
8.48819
9.73761
11.1893
12.8848
14.8815
17.252
20.0996
23.6026
28.086
29.0797
3.48281
0.000123227
0.00021803
0.0006758
0.00184206
0.00477058
0.00970849
0.0337321
0.0555955
0.154517
0.265036
0.138595
0.120434
1.36774
0.149646
0.190607
0.236884
0.289116
0.347799
0.413524
0.487007
0.569155
0.661085
0.764137
0.879902
1.01026
1.15743
1.32391
1.51245
1.72616
1.96869
2.24425
2.55775
2.91479
3.32186
3.78655
4.31777
4.92595
5.62331
6.42416
7.34589
8.40815
9.63499
11.0558
12.7078
14.6386
16.9147
19.6205
22.8787
26.9009
31.9688
30.4634
3.92079
0.000123152
0.000212164
0.000691128
0.00178738
0.00386945
0.00836276
0.0153803
0.0472692
0.0755804
0.195967
0.320854
0.170239
0.153231
1.477
0.190061
0.236682
0.28882
0.347465
0.413108
0.48649
0.568507
0.660271
0.763108
0.878605
1.00864
1.1554
1.32136
1.50926
1.72217
1.96368
2.2379
2.54963
2.90443
3.30868
3.76982
4.29643
4.89868
5.58844
6.37972
7.28882
8.33564
9.54264
10.9374
12.5536
14.4339
16.6332
19.2284
22.3184
26.0483
30.6716
36.2769
30.8946
4.40855
0.000123108
0.0002045
0.000675702
0.00181432
0.00378224
0.00709394
0.0135976
0.0232119
0.0646212
0.0994225
0.241344
0.37407
0.20624
0.188994
1.57022
0.236012
0.288584
0.347121
0.412722
0.486009
0.567913
0.659522
0.762168
0.877419
1.00715
1.15353
1.31903
1.50633
1.7185
1.9591
2.23213
2.54231
2.89507
3.29678
3.75466
4.27718
4.87413
5.5571
6.33965
7.23771
8.26992
9.45905
10.8309
12.4169
14.2558
16.3964
18.9022
21.8622
25.392
29.6646
34.9843
40.9472
29.9093
4.95132
0.000122977
0.000203952
0.000656443
0.0017831
0.00381658
0.00696797
0.0119481
0.0209642
0.0342226
0.0862478
0.12828
0.287831
0.427668
0.244025
0.231
1.65131
0.287771
0.346847
0.412321
0.48556
0.567354
0.658836
0.761309
0.876335
1.00578
1.15181
1.31688
1.50363
1.71513
1.95487
2.22684
2.53566
2.88665
3.28603
3.74097
4.25974
4.85199
5.52887
6.30356
7.19153
8.21104
9.38334
10.7346
12.294
14.0979
16.1906
18.628
21.4835
24.8604
28.8948
33.7916
39.904
45.8205
27.0577
5.55957
0.000113699
0.000203878
0.000655759
0.00174569
0.00376371
0.00701149
0.0118406
0.0189546
0.0317818
0.0490948
0.110694
0.161266
0.335396
0.477126
0.284282
0.27655
1.72459
0.345866
0.412002
0.485096
0.566837
0.658193
0.760513
0.875347
1.00454
1.15024
1.3149
1.50116
1.71203
1.95099
2.22198
2.52959
2.879
3.27632
3.7286
4.24399
4.83194
5.50337
6.2711
7.15008
8.15796
9.31565
10.6473
12.1829
13.9562
16.0083
18.3902
21.1663
24.4211
28.2746
32.887
38.5019
45.4762
50.6001
22.2631
6.2364
6.02157e-05
0.000183332
0.000655675
0.00174487
0.00370393
0.00693601
0.0119003
0.0189
0.0290901
0.0463921
0.0677689
0.141119
0.196998
0.381829
0.525565
0.324948
0.328762
1.79198
0.410829
0.484731
0.566298
0.657592
0.759767
0.87443
1.00339
1.1488
1.31309
1.49888
1.70918
1.94742
2.21751
2.52399
2.872
3.26751
3.71742
4.22975
4.81381
5.48031
6.24175
7.11268
8.11022
9.2545
10.5693
12.0825
13.8281
15.8447
18.1797
20.8913
24.0537
27.7644
32.1629
37.4378
43.8787
51.7055
54.8607
16.3641
6.98302
4.75537e-05
0.000132723
0.000576623
0.00174689
0.00370553
0.00684796
0.0117773
0.0191013
0.0288211
0.0428678
0.0647892
0.09219
0.175799
0.236154
0.427086
0.573182
0.374592
0.388276
1.85704
0.483331
0.565876
0.65697
0.759076
0.873572
1.00233
1.14748
1.31143
1.4968
1.70656
1.94413
2.21339
2.51884
2.86556
3.25946
3.70729
4.2169
4.7974
5.45944
6.21521
7.07895
8.06721
9.19959
10.499
11.9927
13.7124
15.697
17.9909
20.6482
23.7358
27.3386
31.5699
36.5916
42.6258
50.0147
58.5203
57.9606
10.9968
7.80431
5.57117e-05
8.86027e-05
0.000503869
0.00153188
0.00371062
0.00685462
0.0116782
0.0189024
0.0290914
0.0424285
0.0608138
0.087955
0.121814
0.213347
0.280449
0.474149
0.621104
0.429966
0.455683
1.91911
0.564217
0.656482
0.758356
0.87277
1.00134
1.14626
1.30991
1.49488
1.70415
1.94111
2.20962
2.51409
2.85962
3.25203
3.69801
4.20523
4.78261
5.44057
6.19122
7.04844
8.02842
9.15007
10.4358
11.9117
13.6088
15.5635
17.8206
20.4304
23.455
26.9711
31.0766
35.9018
41.6357
48.5394
56.9903
65.7147
58.9405
7.38239
8.71045
5.12429e-05
8.59523e-05
0.0003107
0.00134633
0.00324649
0.0068689
0.0116564
0.018736
0.0287951
0.0424889
0.0602781
0.0838338
0.117256
0.156918
0.255792
0.329627
0.524023
0.673164
0.493232
0.530714
1.98118
0.654528
0.757795
0.871935
1.00041
1.14511
1.3085
1.49313
1.70195
1.93834
2.20614
2.50974
2.85418
3.24522
3.68945
4.19453
4.76917
5.42357
6.16951
7.02082
7.99329
9.10545
10.3789
11.839
13.5157
15.4444
17.6668
20.2338
23.2036
26.6467
30.6512
35.3299
40.8328
47.3799
55.2767
64.8426
72.8378
56.5049
5.67849
9.71407
4.87764e-05
8.18318e-05
0.000257746
0.000825593
0.00284013
0.00599855
0.011638
0.0186443
0.0284729
0.0421832
0.0603107
0.0833591
0.112834
0.152349
0.197365
0.303909
0.38157
0.577054
0.731275
0.563382
0.615843
2.05231
0.755501
0.871288
0.999449
1.14404
1.30717
1.49149
1.69992
1.93579
2.20294
2.50574
2.84917
3.23893
3.68158
4.18469
4.75687
5.40807
6.14989
6.99581
7.96152
9.06505
10.3275
11.7735
13.4319
15.3371
17.5296
20.0567
22.9769
26.3566
30.2764
34.8379
40.1699
46.4457
53.9196
62.944
73.5133
79.1372
49.67
5.33456
10.8271
4.74591e-05
8.06789e-05
0.000255688
0.000680438
0.00173773
0.00521164
0.0101444
0.0185567
0.0283695
0.0417423
0.0599406
0.0834543
0.112272
0.147505
0.192683
0.243147
0.355261
0.438264
0.635105
0.794941
0.643449
0.711588
2.13027
0.868613
0.998697
1.14292
1.30593
1.48996
1.69804
1.93346
2.20001
2.50205
2.84455
3.23315
3.67437
4.17563
4.74554
5.39392
6.13209
6.97323
7.93275
9.02849
10.281
11.7143
13.3565
15.2408
17.4062
19.8986
22.7726
26.0952
29.9418
34.405
39.6009
45.6772
52.8334
61.361
71.6337
82.7731
83.7137
38.8493
5.6543
12.0604
4.67662e-05
7.94868e-05
0.000260896
0.000678747
0.00144057
0.00318481
0.00874928
0.0161362
0.0283052
0.0417177
0.0594296
0.08292
0.112342
0.146529
0.18704
0.237562
0.295239
0.411713
0.501528
0.699584
0.869296
0.734241
0.819765
2.21669
0.995594
1.14205
1.30463
1.48852
1.69626
1.93128
2.19732
2.49868
2.84031
3.22783
3.66772
4.1673
4.73512
5.38085
6.11577
6.95273
7.90678
8.99536
10.2389
11.6608
13.2885
15.1541
17.2951
19.7564
22.5905
25.8596
29.6403
34.0187
39.1009
45.019
51.9424
60.0991
69.8194
81.374
92.119
84.9671
26.5981
6.23014
13.4396
4.69055e-05
7.89249e-05
0.00026015
0.000694422
0.00143886
0.00265933
0.00534331
0.0138255
0.0245506
0.0416537
0.0594326
0.0824906
0.111647
0.14656
0.186261
0.232321
0.289168
0.352548
0.475668
0.570927
0.774342
0.949855
0.837287
0.941859
2.31331
1.13844
1.30364
1.48703
1.6946
1.92924
2.19481
2.49557
2.83643
3.22295
3.6616
4.15964
4.72552
5.36885
6.10073
6.93397
7.88315
8.96547
10.2008
11.6124
13.2269
15.0758
17.1953
19.6287
22.427
25.6499
29.3688
33.6711
38.6551
44.4418
51.1818
59.068
68.3588
79.4114
92.0592
100.541
80.8596
16.522
6.93178
14.9849
4.74831e-05
7.91288e-05
0.000259903
0.000693068
0.00147306
0.00265759
0.00449798
0.00844226
0.0209001
0.0360476
0.0594407
0.0824037
0.111146
0.145821
0.186327
0.231855
0.283796
0.34714
0.417507
0.545024
0.650596
0.857949
1.04208
0.954596
1.07954
2.42434
1.29944
1.48587
1.69287
1.92731
2.19244
2.49267
2.83284
3.21848
3.65597
4.15259
4.71669
5.35782
6.08692
6.91665
7.86155
8.9383
10.1663
11.5685
13.1712
15.005
17.1052
19.5139
22.2799
25.4615
29.1273
33.3582
38.2541
43.9275
50.5153
58.1896
67.1675
77.737
90.2096
103.305
106.778
69.7194
10.1511
7.72597
16.7116
4.84905e-05
8.00498e-05
0.000260576
0.000692547
0.00146985
0.00272068
0.00449238
0.0071672
0.0127745
0.0305299
0.051324
0.0823154
0.110921
0.144921
0.185469
0.231939
0.282831
0.341004
0.411618
0.489624
0.623865
0.73877
0.95102
1.14966
1.08854
1.23537
2.54978
1.481
1.69154
1.92531
2.19023
2.48993
2.82949
3.21434
3.65081
4.14613
4.70859
5.34766
6.07423
6.90071
7.84159
8.91335
10.135
11.5289
13.1207
14.9407
17.0237
19.4103
22.1477
25.2922
28.9101
33.0799
37.8935
43.4652
49.9227
57.421
66.1547
76.3657
88.3597
102.167
114.284
108.972
52.5866
7.08411
8.61582
18.639
4.97583e-05
8.15786e-05
0.00026329
0.000694565
0.00146924
0.00271599
0.00460009
0.00715595
0.0109452
0.0187364
0.0434002
0.0710837
0.110745
0.144823
0.184732
0.230942
0.282858
0.340038
0.405428
0.483533
0.569913
0.713014
0.83832
1.05803
1.27286
1.23944
1.41115
2.6958
1.68587
1.92376
2.1879
2.48738
2.82633
3.21049
3.64602
4.14017
4.70113
5.33828
6.06249
6.88606
7.82322
8.89036
10.1064
11.4929
13.0751
14.8826
16.9499
19.3164
22.0284
25.1402
28.7155
32.8302
37.5733
43.0497
49.3898
56.7381
65.2697
75.2011
86.7972
100.323
114.995
123.706
104.027
34.2472
6.27696
9.61054
20.79
5.10699e-05
8.3549e-05
0.000267916
0.000702167
0.00147415
0.00271455
0.00459519
0.00732707
0.0109276
0.0161984
0.0267987
0.0601364
0.0956277
0.14482
0.184607
0.230169
0.281761
0.340398
0.404359
0.477246
0.563684
0.660058
0.810925
0.950731
1.18245
1.41271
1.41071
1.60964
2.86055
1.91717
2.18612
2.4847
2.82337
3.20683
3.64158
4.13466
4.69425
5.32972
6.05172
6.8726
7.8064
8.86926
10.0799
11.4598
13.0336
14.8301
16.883
19.2314
21.9205
25.003
28.5405
32.606
37.2857
42.681
48.9117
56.1248
64.4839
74.1849
85.4653
98.5962
113.605
127.961
129.769
89.5236
20.0743
6.54511
10.7209
23.1919
5.2211e-05
8.55171e-05
0.000274169
0.000714404
0.00149033
0.0027243
0.00459335
0.00732419
0.0111928
0.0161748
0.0234152
0.0375884
0.0813966
0.125168
0.184446
0.229867
0.280954
0.339252
0.404754
0.476056
0.557236
0.653513
0.760083
0.922352
1.07643
1.32195
1.5752
1.60479
1.83434
3.05483
2.17842
2.48262
2.82027
3.2034
3.63737
4.12954
4.68792
5.32182
6.04182
6.86018
7.79087
8.84981
10.0556
11.4293
12.9956
14.7824
16.8225
19.1545
21.8227
24.8788
28.3826
32.4046
37.0277
42.3503
48.4871
55.5746
63.7789
73.2824
84.3018
97.0901
111.864
127.93
139.632
129.436
66.7031
11.5503
7.19527
11.9595
25.8729
5.31675e-05
8.72571e-05
0.000279974
0.000730738
0.00151659
0.00275469
0.00460892
0.00732155
0.0111878
0.0165569
0.0233549
0.0331641
0.0518204
0.107488
0.159464
0.22971
0.280952
0.338266
0.403815
0.476404
0.556416
0.647315
0.753157
0.872505
1.0474
1.21813
1.48296
1.7594
1.82427
2.08857
3.28064
2.47366
2.81788
3.19982
3.63342
4.12469
4.682
5.31449
6.03271
6.84878
7.77655
8.83195
10.0332
11.4013
12.9605
14.7386
16.7676
19.0848
21.7342
24.7663
28.2399
32.2231
36.7963
42.0534
48.1069
55.0861
63.1461
72.4735
83.2692
95.7681
110.216
126.568
142.537
147.997
118.617
42.3069
7.62177
8.00463
13.3413
28.8628
5.3962e-05
8.85778e-05
0.000284807
0.000746163
0.00155152
0.00280354
0.00466229
0.0073476
0.0111857
0.016561
0.0239045
0.0330625
0.0461642
0.0703224
0.138681
0.197972
0.280669
0.338302
0.402839
0.47544
0.557227
0.646017
0.747458
0.865202
0.999272
1.18803
1.38072
1.66676
1.96967
2.07265
2.37474
3.54601
2.80741
3.19707
3.62927
4.12011
4.67639
5.30767
6.02427
6.8383
7.76344
8.81552
10.0126
11.3756
12.9282
14.6981
16.7171
19.0215
21.6541
24.6644
28.1104
32.0589
36.5873
41.7872
47.7654
54.649
62.5851
71.7468
82.3428
94.5912
108.735
124.933
142.385
155.841
150.365
95.3934
23.7219
6.63195
8.92567
14.8838
32.1968
5.46511e-05
8.96254e-05
0.000288397
0.000759332
0.00158421
0.00286834
0.00474622
0.00743416
0.0112309
0.0165546
0.0239147
0.0338165
0.0459814
0.0631634
0.0937859
0.174996
0.240317
0.338013
0.402451
0.474348
0.555679
0.646281
0.746022
0.858954
0.991395
1.14149
1.34801
1.564
1.87523
2.20859
2.35322
2.69973
3.84981
3.18486
3.62608
4.11531
4.6711
5.30121
6.01641
6.82857
7.75136
8.80038
9.9937
11.3518
12.8986
14.661
16.6707
18.9636
21.5813
24.5724
27.9933
31.91
36.3984
41.5471
47.4594
54.2569
62.0827
71.1029
81.511
93.5357
107.406
123.34
141.162
158.429
165.626
141.597
64.7905
12.8776
6.92669
9.95689
16.6048
35.9147
5.53014e-05
9.05458e-05
0.000291292
0.000768758
0.00161207
0.00293001
0.0048542
0.00757197
0.0113597
0.0166273
0.0239109
0.0338514
0.0469983
0.0628599
0.0849653
0.123014
0.216456
0.286716
0.402192
0.47407
0.554067
0.645138
0.745762
0.857851
0.984415
1.13309
1.30162
1.52813
1.77137
2.11115
2.48109
2.67082
3.06641
4.2019
3.61182
4.11162
4.66558
5.2951
6.00897
6.8195
7.74018
8.78645
9.97624
11.33
12.8712
14.6268
16.6278
18.9099
21.5145
24.4885
27.8872
31.7752
36.2274
41.3301
47.1837
53.9052
61.6325
70.5269
80.7741
92.5863
106.211
121.868
139.639
158.465
172.872
168.91
117.661
37.2518
8.01248
7.63201
11.1082
18.5247
40.0619
5.6007e-05
9.14853e-05
0.000293697
0.000775961
0.0016321
0.00298166
0.00496041
0.00774774
0.0115758
0.0168237
0.0240126
0.0338473
0.0470575
0.0641909
0.0844275
0.112124
0.158379
0.263354
0.337945
0.473908
0.553921
0.64386
0.744423
0.85801
0.983288
1.1259
1.29254
1.48193
1.73157
2.00605
2.37962
2.78862
3.02964
3.48164
4.60983
4.09498
4.66131
5.2887
6.00193
6.81089
7.72971
8.77354
9.96018
11.31
12.8461
14.5954
16.5885
18.8607
21.4528
24.4115
27.7908
31.6532
36.0725
41.1334
46.934
53.5884
61.229
70.0103
80.1143
91.7453
105.134
120.533
138.104
157.464
175.72
183.159
159.808
82.1616
19.4234
6.8022
8.4975
12.3926
20.6666
44.6894
5.68644e-05
9.24876e-05
0.000296321
0.000782186
0.00164747
0.0030187
0.00504982
0.0079142
0.0118437
0.0171403
0.0243148
0.0340059
0.0470678
0.0642852
0.0860731
0.111227
0.145122
0.200176
0.316165
0.394888
0.553959
0.643472
0.74364
0.856061
0.983757
1.1246
1.28561
1.47213
1.68523
1.96329
2.27159
2.68408
3.13727
3.43488
3.95049
5.07896
4.64185
5.28376
5.99453
6.80276
7.71976
8.76149
9.94533
11.2915
12.823
14.5664
16.5522
18.8154
21.3961
24.3406
27.7024
31.5424
35.9323
40.9553
46.7082
53.3018
60.8655
69.5481
79.523
90.9924
104.178
119.322
136.654
156.1
176.166
190.729
185.766
133.039
47.6127
10.4357
7.09798
9.47724
13.8256
23.0553
49.8535
5.79249e-05
9.39061e-05
0.000299051
0.000789087
0.0016607
0.0030485
0.0051124
0.00805302
0.0120968
0.0175464
0.0247723
0.0344202
0.0472936
0.064322
0.086266
0.113239
0.143692
0.184134
0.248813
0.375578
0.458382
0.643268
0.743522
0.855143
0.98161
1.12499
1.28417
1.46547
1.67508
1.9156
2.22462
2.57207
3.02903
3.53264
3.89296
4.48218
5.62029
5.261
5.98881
6.79424
7.71039
8.75002
9.93144
11.2744
12.8017
14.5398
16.519
18.7737
21.344
24.2753
27.6207
31.4408
35.8048
40.7943
46.5035
53.0424
60.5366
69.131
78.9939
90.317
103.323
118.245
135.318
154.661
175.527
194.219
200.431
173.728
92.0897
24.2483
7.26109
7.82957
10.5725
15.4238
25.7206
55.6168
5.92196e-05
9.56774e-05
0.000303634
0.000796294
0.00167529
0.00307151
0.00516291
0.00815311
0.0123059
0.017915
0.0253421
0.0350805
0.047881
0.0646401
0.0863021
0.11351
0.145945
0.1821
0.22993
0.304851
0.442533
0.5296
0.743194
0.855465
0.980685
1.12319
1.28446
1.46438
1.66816
1.90528
2.17588
2.51971
2.91314
3.42023
3.98242
4.41244
5.08298
6.23923
5.96215
6.78762
7.70056
8.73925
9.91825
11.2583
12.7819
14.5153
16.4882
18.7353
21.296
24.2154
27.5455
31.3468
35.6879
40.6477
46.3187
52.8075
60.2389
68.7545
78.5169
89.7129
102.554
117.278
134.121
153.256
174.419
195.402
208.993
200.403
141.105
52.1667
12.2371
6.96602
8.72058
11.7947
17.207
28.6937
62.0372
6.07486e-05
9.78824e-05
0.000309434
0.000808891
0.00168972
0.00309717
0.00519981
0.0082329
0.0124559
0.0182162
0.0258783
0.0358755
0.0487776
0.0654299
0.0867354
0.113597
0.146379
0.184494
0.226714
0.283234
0.369087
0.518101
0.609658
0.85506
0.981008
1.12213
1.283
1.46452
1.66696
1.89777
2.16408
2.46948
2.85518
3.29842
3.86427
4.49011
4.99944
5.76257
6.94778
6.75638
7.69287
8.72789
9.90575
11.2431
12.7635
14.4925
16.46
18.7
21.2518
24.1602
27.4765
31.2605
35.5799
40.5133
46.1503
52.5954
59.9695
68.4133
78.0855
89.1687
101.867
116.409
133.04
151.965
173.131
195.331
213.614
216.764
182.257
93.7131
25.7038
7.69823
7.56286
9.72655
13.1581
19.1964
32.0119
69.1943
6.24922e-05
0.000100569
0.000316732
0.000824791
0.00171632
0.00312398
0.00524138
0.00829509
0.0125767
0.0184452
0.0263232
0.0366198
0.049867
0.066627
0.0877446
0.114102
0.14649
0.185105
0.229222
0.278125
0.344758
0.442765
0.603527
0.700142
0.980653
1.12214
1.2813
1.4623
1.66732
1.89562
2.15668
2.45642
2.80227
3.23413
3.73527
4.36738
5.06464
5.66286
6.53096
7.75617
7.65623
8.71897
9.89271
11.2287
12.746
14.4713
16.4338
18.6674
21.2109
24.1092
27.413
31.1809
35.4805
40.3892
45.9959
52.4023
59.7261
68.1047
77.6955
88.6758
101.248
115.633
132.067
150.784
171.856
194.598
215.907
226.932
211.238
140.676
50.4691
12.5231
6.99864
8.40489
10.8505
14.6793
21.4165
35.7123
77.1775
6.4399e-05
0.00010352
0.000325593
0.000844248
0.00175077
0.00317289
0.00528875
0.00836185
0.0126767
0.0186197
0.0266399
0.0372405
0.0508805
0.0680401
0.0893159
0.115376
0.147104
0.185256
0.230006
0.280516
0.336979
0.415408
0.527291
0.700303
0.802652
1.1219
1.28106
1.46048
1.66489
1.89619
2.15508
2.44905
2.78787
3.17888
3.66315
4.2294
4.93605
5.71395
6.4139
7.4014
8.6779
8.676
9.88234
11.2136
12.7294
14.4511
16.4093
18.6373
21.1736
24.0624
27.3546
31.1078
35.3891
40.275
45.8534
52.2249
59.5047
67.8256
77.3426
88.2307
100.686
114.93
131.195
149.714
170.636
193.623
216.617
233.24
230.66
182.955
87.0405
23.8192
7.73721
7.52272
9.37193
12.1047
16.3769
23.8929
39.8394
86.0798
6.64199e-05
0.000106664
0.000335394
0.000867919
0.00179201
0.00323604
0.00537324
0.0084339
0.012782
0.0187652
0.0268966
0.0376878
0.0517059
0.0693722
0.0911251
0.117318
0.148622
0.185928
0.230182
0.281514
0.339125
0.404316
0.496417
0.62436
0.810228
0.918925
1.28118
1.4607
1.66357
1.89385
2.15456
2.44756
2.77949
3.16308