/*--------------------------------*- C++ -*----------------------------------*\
| =========                 |                                                 |
| \\      /  F ield         | OpenFOAM: The Open Source CFD Toolbox           |
|  \\    /   O peration     | Version:  v2012                                 |
|   \\  /    A nd           | Website:  www.openfoam.com                      |
|    \\/     M anipulation  |                                                 |
\*---------------------------------------------------------------------------*/
FoamFile
{
    version     2.0;
    format      ascii;
    class       volScalarField;
    location    "0";
    object      Res;
}
// * * * * * * * * * * * * * * * * * * * * * * * * * * * * * * * * * * * * * //

dimensions      [0 0 0 0 0 0 0];


internalField   nonuniform List<scalar> 
31383
(
0.00732845
0.0319815
0.0712182
0.0308033
0.283319
0.197885
0.0299091
0.273374
0.678159
0.38244
0.0292438
0.26579
0.661221
0.930967
0.600894
0.0286957
0.260128
0.647911
0.922278
0.99341
0.796921
0.0282228
0.255448
0.637745
0.914769
0.991846
0.999729
0.922011
0.0278207
0.251399
0.629198
0.908846
0.990397
0.99962
0.999996
0.978633
0.0274798
0.247954
0.621699
0.903675
0.989167
0.999511
0.999993
1
0.996077
0.0271777
0.245026
0.61524
0.898994
0.988049
0.999409
0.99999
1
1
0.999575
0.0269052
0.242429
0.609698
0.894848
0.98697
0.99931
0.999986
1
1
1
0.999982
0.0266511
0.240083
0.604734
0.891205
0.985989
0.99921
0.999983
1
1
1
1
1
0.0264154
0.237893
0.600219
0.887879
0.9851
0.999114
0.999979
1
1
1
1
1
1
0.0261965
0.235861
0.595972
0.884799
0.984265
0.999025
0.999975
1
1
1
1
1
1
1
0.0259986
0.233971
0.592014
0.881858
0.983475
0.998937
0.999971
1
1
1
1
1
1
1
1
0.0258186
0.232261
0.588305
0.879073
0.982702
0.998851
0.999968
1
1
1
1
1
1
1
1
1
0.0256584
0.230705
0.584933
0.87643
0.981954
0.998766
0.999964
1
1
1
1
1
1
1
1
1
1
0.0255139
0.229319
0.581852
0.873993
0.981232
0.998681
0.99996
1
1
1
1
1
1
1
1
1
1
1
0.0253851
0.228071
0.579091
0.871743
0.980561
0.998597
0.999956
0.999999
1
1
1
1
1
1
1
1
1
1
1
0.025269
0.226955
0.576595
0.869706
0.979917
0.998516
0.999952
0.999999
1
1
1
1
1
1
1
1
1
1
1
1
0.0251653
0.225949
0.574359
0.867843
0.979333
0.998438
0.999947
0.999999
1
1
1
1
1
1
1
1
1
1
1
1
1
0.0250727
0.225051
0.572334
0.866163
0.978792
0.998366
0.999943
0.999999
1
1
1
1
1
1
1
1
1
1
1
1
1
1
0.0249895
0.224245
0.570523
0.864659
0.978297
0.998298
0.99994
0.999999
1
1
1
1
1
1
1
1
1
1
1
1
1
1
1
0.0249149
0.223527
0.568896
0.863248
0.977847
0.998235
0.999936
0.999999
1
1
1
1
1
1
1
1
1
1
1
1
1
1
1
1
0.0248467
0.222876
0.567435
0.862003
0.977428
0.998177
0.999932
0.999999
1
1
1
1
1
1
1
1
1
1
1
1
1
1
1
1
1
0.0247839
0.222285
0.566115
0.860875
0.977049
0.998123
0.999929
0.999999
1
1
1
1
1
1
1
1
1
1
1
1
1
1
1
1
1
1
0.0247263
0.22174
0.564915
0.859854
0.976707
0.998073
0.999926
0.999999
1
1
1
1
1
1
1
1
1
1
1
1
1
1
1
1
1
1
1
0.0246735
0.22124
0.563801
0.858918
0.976393
0.998027
0.999923
0.999999
1
1
1
1
1
1
1
1
1
1
1
1
1
1
1
1
1
1
1
1
0.0246251
0.220781
0.562779
0.858051
0.976104
0.997985
0.99992
0.999999
1
1
1
1
1
1
1
1
1
1
1
1
1
1
1
1
1
1
1
1
1
0.0245809
0.220362
0.561843
0.857247
0.975835
0.997946
0.999918
0.999999
1
1
1
1
1
1
1
1
1
1
1
1
1
1
1
1
1
1
1
1
1
1
0.0245406
0.219976
0.560983
0.85651
0.975584
0.997909
0.999916
0.999999
1
1
1
1
1
1
1
1
1
1
1
1
1
1
1
1
1
1
1
1
0.999999
1
1
0.0245045
0.219626
0.560195
0.855832
0.975353
0.997875
0.999913
0.999998
1
1
1
1
1
1
1
1
1
1
1
1
1
1
1
1
1
1
1
1
0.999999
0.999999
0.999999
1
0.0244718
0.219312
0.559478
0.85521
0.97514
0.997843
0.999911
0.999998
1
1
1
1
1
1
1
1
1
1
1
1
1
1
1
1
1
1
1
1
0.999999
0.999999
0.999998
0.999999
1
0.024442
0.219027
0.55883
0.854639
0.974941
0.997813
0.999909
0.999998
1
1
1
1
1
1
1
1
1
1
1
1
1
1
1
1
1
1
1
1
0.999999
0.999999
0.999998
0.999997
0.999999
1
0.0244147
0.218769
0.558247
0.854123
0.97476
0.997786
0.999908
0.999998
1
1
1
1
1
1
1
1
1
1
1
1
1
1
1
1
1
1
1
1
0.999999
0.999999
0.999997
0.999996
0.999996
0.999999
1
0.0243893
0.218532
0.557715
0.853661
0.974596
0.99776
0.999906
0.999998
1
1
1
1
1
1
1
1
1
1
1
1
1
1
1
1
1
1
1
1
0.999999
0.999999
0.999997
0.999996
0.999995
0.999995
1
1
0.0243637
0.218311
0.557225
0.853236
0.974447
0.997737
0.999904
0.999998
1
1
1
1
1
1
1
1
1
1
1
1
1
1
1
1
1
1
1
1
0.999999
0.999999
0.999997
0.999996
0.999994
0.999993
0.999994
1
1
0.0243416
0.218087
0.556786
0.852842
0.974311
0.997716
0.999903
0.999998
1
1
1
1
1
1
1
1
1
1
1
1
1
1
1
1
1
1
1
1
0.999999
0.999999
0.999997
0.999996
0.999994
0.999992
0.999991
0.999994
1
1
0.0243973
0.217895
0.556304
0.852482
0.974185
0.997697
0.999902
0.999998
1
1
1
1
1
1
1
1
1
1
1
1
1
1
1
1
1
1
1
1
0.999999
0.999999
0.999998
0.999996
0.999994
0.999992
0.999989
0.999989
0.999994
1
1
0.0305623
0.218369
0.555911
0.852104
0.974067
0.997679
0.9999
0.999998
1
1
1
1
1
1
1
1
1
1
1
1
1
1
1
1
1
1
1
1
0.999999
0.999999
0.999998
0.999996
0.999994
0.999991
0.999989
0.999987
0.999987
0.999994
1
1
0.0251043
1
0.556841
0.851787
0.973947
0.997662
0.999899
0.999998
1
1
1
1
1
1
1
1
1
1
1
1
1
1
1
1
1
1
1
1
0.999999
0.999999
0.999998
0.999996
0.999994
0.999991
0.999988
0.999986
0.999984
0.999986
0.999995
1
1
0.0252809
0.999114
1
0.852477
0.973844
0.997645
0.999898
0.999998
1
1
1
1
1
1
1
1
1
1
1
1
1
1
1
1
1
1
1
1
0.999999
0.999999
0.999998
0.999996
0.999994
0.999991
0.999988
0.999985
0.999982
0.999982
0.999986
0.999996
1
1
0.0273648
1
0.999999
1
0.974044
0.99763
0.999897
0.999998
1
1
1
1
1
1
1
1
1
1
1
1
1
1
1
1
1
1
1
1
0.999999
0.999999
0.999998
0.999996
0.999994
0.999991
0.999988
0.999985
0.999981
0.999979
0.99998
0.999986
0.999997
1
1
0.0261627
1
1
1
1
0.997654
0.999896
0.999998
1
1
1
1
1
1
1
1
1
1
1
1
1
1
1
1
1
1
1
1
0.999999
0.999999
0.999998
0.999996
0.999994
0.999991
0.999988
0.999984
0.999981
0.999978
0.999976
0.999978
0.999987
0.999998
1
1
0.02469
1
1
1
1
1
0.999897
0.999998
1
1
1
1
1
1
1
1
1
1
1
1
1
1
1
1
1
1
1
1
0.999999
0.999999
0.999998
0.999996
0.999994
0.999991
0.999988
0.999984
0.99998
0.999976
0.999974
0.999974
0.999978
0.999989
0.999999
1
1
0.0244123
1
1
1
1
1
1
0.999998
1
1
1
1
1
1
1
1
1
1
1
1
1
1
1
1
1
1
1
1
0.999999
0.999999
0.999998
0.999996
0.999994
0.999991
0.999988
0.999984
0.99998
0.999976
0.999972
0.999971
0.999972
0.999979
0.999991
1
1
1
0.0241791
0.999994
1
1
1
1
1
1
1
1
1
1
1
1
1
1
1
1
1
1
1
1
1
1
1
1
1
1
0.999999
0.999999
0.999998
0.999996
0.999994
0.999991
0.999988
0.999984
0.99998
0.999975
0.999971
0.999969
0.999968
0.999972
0.999981
0.999994
1
1
1
0.0241278
0.668019
1
1
1
1
1
1
1
1
1
1
1
1
1
1
1
1
1
1
1
1
1
1
1
1
1
1
0.999999
0.999999
0.999998
0.999996
0.999994
0.999991
0.999988
0.999984
0.999979
0.999975
0.999971
0.999967
0.999966
0.999967
0.999972
0.999983
0.999996
1
1
1
0.0241087
0.512708
0.953655
1
1
1
1
1
1
1
1
1
1
1
1
1
1
1
1
1
1
1
1
1
1
1
1
1
0.999999
0.999999
0.999998
0.999996
0.999994
0.999991
0.999988
0.999984
0.999979
0.999975
0.99997
0.999966
0.999963
0.999963
0.999966
0.999974
0.999986
0.999998
1
1
1
0.0240943
0.253326
0.873684
0.995371
1
1
1
1
1
1
1
1
1
1
1
1
1
1
1
1
1
1
1
1
1
1
1
1
0.999999
0.999999
0.999998
0.999996
0.999994
0.999991
0.999988
0.999984
0.999979
0.999974
0.99997
0.999965
0.999962
0.99996
0.999962
0.999967
0.999977
0.99999
0.999999
1
1
1
0.0240746
0.231659
0.609591
0.980508
0.999805
1
1
1
1
1
1
1
1
1
1
1
1
1
1
1
1
1
1
1
1
1
1
1
0.999999
0.999999
0.999998
0.999996
0.999994
0.999991
0.999988
0.999984
0.999979
0.999974
0.999969
0.999965
0.999961
0.999958
0.999958
0.999962
0.999969
0.99998
0.999993
1
1
1
1
0.0240553
0.247266
0.57599
0.879077
0.997998
0.999994
1
1
1
1
1
1
1
1
1
1
1
1
1
1
1
1
1
1
1
1
1
1
0.999999
0.999999
0.999998
0.999996
0.999994
0.999991
0.999988
0.999984
0.999979
0.999974
0.999969
0.999964
0.99996
0.999957
0.999956
0.999958
0.999963
0.999972
0.999984
0.999996
1
1
1
1
0.0240408
0.234882
0.596717
0.860318
0.979448
0.999865
1
1
1
1
1
1
1
1
1
1
1
1
1
1
1
1
1
1
1
1
1
1
0.999999
0.999999
0.999998
0.999996
0.999994
0.999991
0.999988
0.999984
0.999979
0.999974
0.999969
0.999964
0.999959
0.999956
0.999954
0.999954
0.999958
0.999965
0.999976
0.999989
0.999998
1
1
1
1
0.0240323
0.21894
0.57773
0.871087
0.975174
0.998088
0.999995
1
1
1
1
1
1
1
1
1
1
1
1
1
1
1
1
1
1
1
1
1
0.999999
0.999999
0.999998
0.999996
0.999994
0.999991
0.999988
0.999984
0.999979
0.999974
0.999969
0.999963
0.999959
0.999955
0.999952
0.999952
0.999954
0.999959
0.999969
0.999981
0.999992
0.999999
1
1
1
1
0.0240066
0.217915
0.553171
0.86055
0.977379
0.997611
0.999911
1
1
1
1
1
1
1
1
1
1
1
1
1
1
1
1
1
1
1
1
1
0.999999
0.999999
0.999998
0.999996
0.999994
0.999991
0.999988
0.999984
0.999979
0.999974
0.999968
0.999963
0.999958
0.999954
0.999951
0.99995
0.999951
0.999955
0.999962
0.999973
0.999985
0.999996
1
1
1
1
1
0.0222033
0.21797
0.552707
0.84661
0.974803
0.997856
0.999898
0.999998
1
1
1
1
1
1
1
1
1
1
1
1
1
1
1
1
1
1
1
1
0.999999
0.999999
0.999998
0.999996
0.999994
0.999991
0.999988
0.999984
0.999979
0.999974
0.999968
0.999963
0.999958
0.999953
0.99995
0.999948
0.999948
0.999951
0.999957
0.999967
0.999978
0.99999
0.999998
1
1
1
1
1
0.0118047
0.200435
0.553127
0.846727
0.971411
0.997577
0.999911
0.999998
1
1
1
1
1
1
1
1
1
1
1
1
1
1
1
1
1
1
1
1
0.999999
0.999999
0.999998
0.999996
0.999994
0.999992
0.999988
0.999984
0.999979
0.999974
0.999968
0.999962
0.999957
0.999952
0.999949
0.999947
0.999946
0.999948
0.999953
0.999961
0.999972
0.999983
0.999994
0.999999
1
1
1
1
1
0.00897021
0.109722
0.517752
0.84805
0.971689
0.997177
0.999894
0.999999
1
1
1
1
1
1
1
1
1
1
1
1
1
1
1
1
1
1
1
1
0.999999
0.999999
0.999998
0.999996
0.999994
0.999992
0.999988
0.999984
0.999979
0.999974
0.999968
0.999962
0.999957
0.999952
0.999948
0.999945
0.999944
0.999946
0.99995
0.999956
0.999966
0.999977
0.999988
0.999997
1
1
1
1
1
1
0.010795
0.0757721
0.307234
0.817873
0.9722
0.997242
0.999879
0.999998
1
1
1
1
1
1
1
1
1
1
1
1
1
1
1
1
1
1
1
1
0.999999
0.999999
0.999998
0.999996
0.999994
0.999992
0.999988
0.999984
0.999979
0.999974
0.999968
0.999962
0.999956
0.999951
0.999947
0.999944
0.999943
0.999944
0.999947
0.999952
0.999961
0.999971
0.999983
0.999993
0.999998
1
1
1
1
1
1
0.00995898
0.0957788
0.190569
0.570852
0.961091
0.997347
0.999876
0.999998
1
1
1
1
1
1
1
1
1
1
1
1
1
1
1
1
1
1
1
1
0.999999
0.999999
0.999998
0.999996
0.999994
0.999992
0.999988
0.999984
0.999979
0.999973
0.999968
0.999962
0.999956
0.999951
0.999946
0.999943
0.999942
0.999942
0.999944
0.999949
0.999956
0.999966
0.999977
0.999988
0.999996
0.999999
1
1
1
1
1
1
0.00948846
0.0891131
0.259774
0.286154
0.810032
0.995485
0.999875
0.999998
1
1
1
1
1
1
1
1
1
1
1
1
1
1
1
1
1
1
1
1
0.999999
0.999999
0.999998
0.999996
0.999994
0.999992
0.999988
0.999984
0.999979
0.999973
0.999968
0.999962
0.999956
0.99995
0.999946
0.999942
0.99994
0.99994
0.999942
0.999946
0.999952
0.999961
0.999972
0.999983
0.999992
0.999998
1
1
1
1
1
1
1
0.00923626
0.0851992
0.243724
0.479622
0.385549
0.944724
0.999729
0.999997
1
1
1
1
1
1
1
1
1
1
1
1
1
1
1
1
1
1
1
1
0.999999
0.999999
0.999998
0.999996
0.999994
0.999992
0.999988
0.999984
0.999979
0.999973
0.999967
0.999961
0.999956
0.99995
0.999945
0.999942
0.999939
0.999939
0.99994
0.999943
0.999949
0.999957
0.999967
0.999978
0.999988
0.999996
0.999999
1
1
1
1
1
1
1
0.0091041
0.0829591
0.234255
0.457055
0.703017
0.52778
0.989917
0.999992
1
1
1
1
1
1
1
1
1
1
1
1
1
1
1
1
1
1
1
1
0.999999
0.999999
0.999998
0.999996
0.999994
0.999992
0.999988
0.999984
0.999979
0.999973
0.999967
0.999961
0.999955
0.99995
0.999945
0.999941
0.999938
0.999937
0.999938
0.999941
0.999946
0.999954
0.999963
0.999973
0.999984
0.999993
0.999998
1
1
1
1
1
1
1
1
0.00913333
0.0820746
0.228757
0.442301
0.681849
0.868828
0.670086
0.9989
1
1
1
1
1
1
1
1
1
1
1
1
1
1
1
1
1
1
1
1
0.999999
0.999999
0.999998
0.999996
0.999994
0.999992
0.999988
0.999984
0.999979
0.999973
0.999967
0.999961
0.999955
0.999949
0.999944
0.99994
0.999937
0.999936
0.999937
0.999939
0.999944
0.999951
0.999959
0.999969
0.99998
0.999989
0.999996
0.999999
1
1
1
1
1
1
1
1
0.00924821
0.0822016
0.226933
0.433361
0.666572
0.856113
0.956413
0.786079
0.999931
1
1
1
1
1
1
1
1
1
1
1
1
1
1
1
1
1
1
1
0.999999
0.999999
0.999998
0.999996
0.999994
0.999992
0.999988
0.999984
0.999979
0.999973
0.999967
0.999961
0.999955
0.999949
0.999944
0.999939
0.999936
0.999935
0.999935
0.999937
0.999941
0.999948
0.999956
0.999966
0.999976
0.999986
0.999993
0.999998
1
1
1
1
1
1
1
1
1
0.00944627
0.0833192
0.227137
0.430375
0.656162
0.845309
0.951434
0.989229
0.868885
0.999997
1
1
1
1
1
1
1
1
1
1
1
1
1
1
1
1
1
1
0.999999
0.999999
0.999998
0.999996
0.999994
0.999992
0.999988
0.999984
0.999979
0.999973
0.999967
0.999961
0.999955
0.999949
0.999943
0.999939
0.999936
0.999934
0.999934
0.999935
0.999939
0.999945
0.999953
0.999962
0.999972
0.999982
0.999991
0.999996
0.999999
1
1
1
1
1
1
1
1
1
0.00969485
0.0850646
0.230027
0.43112
0.653252
0.837633
0.946525
0.988105
0.998045
0.920987
1
1
1
1
1
1
1
1
1
1
1
1
1
1
1
1
0.999999
1
0.999999
0.999999
0.999998
0.999996
0.999994
0.999992
0.999988
0.999984
0.999979
0.999973
0.999967
0.999961
0.999954
0.999948
0.999943
0.999938
0.999935
0.999933
0.999932
0.999934
0.999937
0.999943
0.99995
0.999959
0.999969
0.999979
0.999988
0.999995
0.999998
1
1
1
1
1
1
1
1
1
1
0.00995173
0.0873396
0.234719
0.436632
0.654722
0.835492
0.94284
0.986611
0.997944
0.999743
0.949563
1
1
1
1
1
1
1
1
1
1
1
1
1
1
1
1
0.999999
1
0.999999
0.999998
0.999996
0.999994
0.999992
0.999988
0.999984
0.999979
0.999973
0.999967
0.999961
0.999954
0.999948
0.999943
0.999938
0.999934
0.999932
0.999931
0.999932
0.999936
0.999941
0.999948
0.999956
0.999966
0.999976
0.999985
0.999992
0.999997
0.999999
1
1
1
1
1
1
1
1
1
1
0.0101754
0.0896243
0.241273
0.444684
0.66145
0.837043
0.941908
0.985439
0.99766
0.999757
0.999975
0.962934
1
1
1
1
1
1
1
1
1
1
1
1
1
1
1
0.999999
0.999998
1
0.999998
0.999996
0.999994
0.999992
0.999988
0.999984
0.999979
0.999973
0.999967
0.999961
0.999954
0.999948
0.999942
0.999937
0.999934
0.999931
0.99993
0.999931
0.999934
0.999939
0.999945
0.999953
0.999963
0.999973
0.999982
0.99999
0.999996
0.999999
1
1
1
1
1
1
1
1
1
1
1
0.0103632
0.0917839
0.24732
0.455556
0.671206
0.84271
0.942771
0.985173
0.997391
0.999719
0.99998
0.999998
0.962895
1
1
1
1
1
1
1
1
1
1
1
1
1
1
1
0.999999
0.999996
1
0.999996
0.999994
0.999992
0.999988
0.999984
0.999979
0.999973
0.999967
0.99996
0.999954
0.999948
0.999942
0.999937
0.999933
0.99993
0.999929
0.99993
0.999932
0.999937
0.999943
0.999951
0.99996
0.99997
0.999979
0.999988
0.999994
0.999998
1
1
1
1
1
1
1
1
1
1
0.999995
1
0.0105193
0.0934463
0.252763
0.465811
0.68398
0.850579
0.946027
0.985547
0.99735
0.999682
0.999977
0.999999
1
0.940068
1
1
1
1
1
1
1
1
1
1
1
1
1
1
1
0.999998
0.999994
1
0.999994
0.999992
0.999988
0.999984
0.999979
0.999973
0.999967
0.99996
0.999954
0.999948
0.999942
0.999937
0.999933
0.99993
0.999928
0.999929
0.999931
0.999935
0.999941
0.999949
0.999958
0.999967
0.999977
0.999986
0.999992
0.999997
0.999999
1
1
1
1
1
1
1
1
1
1
1
1
0.0106551
0.0948015
0.257234
0.475343
0.695631
0.860499
0.950273
0.986756
0.997466
0.999677
0.999974
0.999999
1
1
0.834037
1
1
1
1
1
1
1
1
1
1
1
1
1
0.999999
0.999999
0.999996
0.999992
1
0.999991
0.999988
0.999984
0.999979
0.999973
0.999967
0.99996
0.999954
0.999947
0.999942
0.999936
0.999932
0.999929
0.999928
0.999928
0.99993
0.999933
0.999939
0.999946
0.999955
0.999965
0.999974
0.999983
0.999991
0.999996
0.999999
1
1
1
1
1
1
1
1
1
1
1
1
1
0.0107833
0.0960094
0.261184
0.482762
0.706239
0.869489
0.955167
0.988302
0.997747
0.999699
0.999974
0.999998
1
1
1
0.428523
1
1
1
1
1
1
1
1
1
1
1
1
0.999999
0.999999
0.999998
0.999993
0.999988
1
0.999988
0.999984
0.999979
0.999973
0.999967
0.99996
0.999954
0.999947
0.999941
0.999936
0.999932
0.999929
0.999927
0.999927
0.999928
0.999932
0.999937
0.999944
0.999953
0.999962
0.999972
0.999981
0.999989
0.999995
0.999998
1
1
1
1
1
1
1
1
1
1
1
1
1
1
0.0109223
0.0971902
0.264477
0.488907
0.714444
0.877232
0.959647
0.989967
0.998114
0.999745
0.999976
0.999998
1
1
1
1
0.278769
1
1
1
1
1
1
1
1
1
1
1
1
0.999999
0.999998
0.999997
0.99999
0.999984
1
0.999983
0.999979
0.999973
0.999967
0.99996
0.999953
0.999947
0.999941
0.999936
0.999931
0.999928
0.999926
0.999926
0.999927
0.999931
0.999936
0.999943
0.999951
0.99996
0.99997
0.999979
0.999987
0.999993
0.999997
0.999999
1
1
1
1
1
1
1
1
1
1
1
1
1
1
0.0110908
0.0984604
0.267644
0.494295
0.721213
0.88306
0.963376
0.991335
0.998471
0.999798
0.999981
0.999999
1
1
1
1
1
0.654755
1
1
1
1
1
1
1
1
1
1
0.999999
0.999999
0.999998
0.999996
0.999996
0.999986
0.999979
0.999999
0.999978
0.999973
0.999966
0.99996
0.999953
0.999947
0.999941
0.999935
0.999931
0.999928
0.999926
0.999925
0.999926
0.999929
0.999934
0.999941
0.999949
0.999958
0.999967
0.999977
0.999985
0.999992
0.999996
0.999999
1
1
1
1
1
1
1
1
1
1
0.999988
1
1
1
1
0.0112988
0.1
0.271007
0.499529
0.72708
0.888066
0.966011
0.992417
0.998746
0.999849
0.999986
0.999999
1
1
1
1
1
0.99999
0.796375
1
1
1
1
1
1
1
1
1
1
0.999999
0.999998
0.999996
0.999994
0.999993
0.999981
0.999975
0.999998
0.999972
0.999966
0.99996
0.999953
0.999947
0.999941
0.999935
0.99993
0.999927
0.999925
0.999924
0.999926
0.999928
0.999933
0.999939
0.999947
0.999956
0.999965
0.999975
0.999983
0.99999
0.999995
0.999998
1
1
1
1
1
1
1
1
1
1
1
0.999999
1
1
1
1
0.0115523
0.101881
0.27513
0.505095
0.732703
0.89183
0.968229
0.993189
0.998952
0.999883
0.99999
0.999999
1
1
1
1
1
1
0.999153
0.849532
1
1
1
1
1
1
1
1
1
0.999999
0.999998
0.999997
0.999993
0.999991
0.99999
0.999975
0.99997
0.999996
0.999966
0.99996
0.999953
0.999946
0.99994
0.999935
0.99993
0.999927
0.999924
0.999924
0.999925
0.999927
0.999932
0.999938
0.999945
0.999954
0.999964
0.999973
0.999982
0.999989
0.999994
0.999998
0.999999
1
1
1
1
1
1
1
1
1
1
1
1
1
1
1
1
0.0118513
0.104179
0.280151
0.512234
0.738211
0.895431
0.969777
0.993812
0.999092
0.999907
0.999993
1
1
1
1
1
1
1
0.999998
0.982798
0.869542
1
1
1
1
1
1
1
1
0.999999
0.999998
0.999997
0.999995
0.99999
0.999988
0.999987
0.999968
0.999966
0.999994
0.999959
0.999953
0.999946
0.99994
0.999934
0.99993
0.999926
0.999924
0.999923
0.999924
0.999926
0.999931
0.999936
0.999944
0.999952
0.999962
0.999971
0.99998
0.999988
0.999993
0.999997
0.999999
1
1
1
1
1
1
1
1
1
1
1
1
1
1
1
1
1
0.0121921
0.107042
0.286211
0.520787
0.745636
0.899166
0.971241
0.994272
0.999203
0.999924
0.999995
1
1
1
1
1
1
1
0.999999
0.999956
0.891633
0.87955
1
1
1
1
1
1
1
0.999999
0.999998
0.999997
0.999994
0.999992
0.999986
0.999984
0.999983
0.999961
0.999962
0.999991
0.999952
0.999946
0.99994
0.999934
0.999929
0.999926
0.999923
0.999922
0.999923
0.999925
0.99993
0.999935
0.999942
0.999951
0.99996
0.99997
0.999978
0.999986
0.999992
0.999997
0.999999
1
1
1
1
1
1
1
1
1
1
1
1
1
1
1
1
1
1
0.0125644
0.110088
0.293643
0.530435
0.754799
0.904004
0.97291
0.994675
0.999289
0.999936
0.999996
1
1
1
1
1
1
1
0.999999
0.99997
0.999296
0.704778
0.886824
1
1
1
1
1
1
0.999999
0.999998
0.999997
0.999995
0.999991
0.999988
0.99998
0.999979
0.999979
0.999954
0.999958
0.999987
0.999945
0.99994
0.999934
0.999929
0.999925
0.999923
0.999922
0.999922
0.999925
0.999929
0.999934
0.999941
0.999949
0.999959
0.999968
0.999977
0.999985
0.999991
0.999996
0.999998
1
1
1
1
1
1
1
1
1
1
1
1
1
1
1
1
1
1
1
0.0129587
0.113275
0.301657
0.542131
0.76449
0.909767
0.974962
0.995094
0.999361
0.999945
0.999997
1
1
1
1
1
1
1
0.999999
0.999971
0.99953
0.994019
0.55282
0.893943
1
1
1
1
1
0.999999
0.999998
0.999997
0.999995
0.999992
0.999987
0.999982
0.999974
0.999974
0.999974
0.999947
0.999955
0.999983
0.999937
0.999934
0.999929
0.999925
0.999922
0.999921
0.999922
0.999924
0.999928
0.999933
0.99994
0.999948
0.999957
0.999966
0.999976
0.999984
0.99999
0.999995
0.999998
0.999999
1
1
1
1
1
1
1
1
1
1
1
1
1
1
1
1
1
1
1
0.0133643
0.116989
0.309905
0.553883
0.77539
0.915765
0.977217
0.995616
0.99943
0.999952
0.999997
1
1
1
1
1
1
1
0.999999
0.999977
0.999567
0.995888
0.971152
0.399343
0.90312
0.999999
1
1
1
0.999999
0.999998
0.999997
0.999995
0.999992
0.999988
0.999982
0.999976
0.999968
0.999969
0.999969
0.999941
0.999953
0.999979
0.99993
0.999928
0.999924
0.999922
0.999921
0.999921
0.999923
0.999927
0.999932
0.999939
0.999947
0.999956
0.999965
0.999974
0.999982
0.999989
0.999994
0.999998
0.999999
1
1
1
1
1
1
1
1
1
1
1
0.999999
1
1
1
1
1
1
1
1
0.0137772
0.120605
0.319005
0.566104
0.786734
0.922252
0.979482
0.996166
0.999509
0.999959
0.999998
1
1
1
1
1
1
1
1
0.999983
0.99965
0.996346
0.979395
0.911968
0.263255
0.914045
0.999999
0.999999
1
0.999999
0.999998
0.999997
0.999996
0.999993
0.999989
0.999984
0.999976
0.999969
0.999961
0.999964
0.999963
0.999936
0.999951
0.999975
0.999924
0.999924
0.999921
0.99992
0.99992
0.999922
0.999926
0.999931
0.999938
0.999946
0.999954
0.999964
0.999973
0.999981
0.999988
0.999994
0.999997
0.999999
1
1
1
1
1
1
1
1
1
1
1
1
1
1
1
1
1
1
0.999998
1
1
0.0141895
0.124099
0.328244
0.580116
0.798495
0.928764
0.981836
0.996698
0.999591
0.999966
0.999998
1
1
1
1
1
1
1
1
0.999989
0.999732
0.996979
0.982015
0.934349
0.809628
0.150154
0.926227
0.999999
0.999997
0.999999
0.999998
0.999997
0.999996
0.999993
0.99999
0.999985
0.999978
0.999969
0.999962
0.999955
0.999959
0.999958
0.999932
0.99995
0.999972
0.999918
0.999921
0.999919
0.99992
0.999921
0.999925
0.99993
0.999937
0.999944
0.999953
0.999962
0.999972
0.99998
0.999987
0.999993
0.999997
0.999999
1
1
1
1
1
1
1
1
1
1
1
1
1
1
1
1
1
1
1
1
1
1
0.0145888
0.127963
0.337552
0.593661
0.810999
0.935441
0.984032
0.997221
0.999668
0.999974
0.999999
1
1
1
1
1
1
1
1
0.999992
0.99981
0.997596
0.984784
0.942928
0.851649
0.677911
0.0651644
0.939237
0.999999
0.999992
0.999999
0.999997
0.999996
0.999993
0.99999
0.999985
0.999979
0.999972
0.999961
0.999954
0.999948
0.999955
0.999953
0.99993
0.999949
0.999968
0.999915
0.999919
0.999919
0.999921
0.999924
0.999929
0.999936
0.999943
0.999952
0.999961
0.99997
0.999979
0.999986
0.999992
0.999996
0.999999
1
1
1
1
1
1
1
1
1
1
1
1
1
1
1
1
1
1
1
1
1
1
1
0.0149711
0.131571
0.347187
0.606565
0.822706
0.941967
0.986221
0.997697
0.999738
0.99998
0.999999
1
1
1
1
1
1
1
1
0.999994
0.999856
0.998197
0.987405
0.950613
0.870569
0.73894
0.538953
0.0607411
0.952698
0.999999
0.999983
0.999997
0.999996
0.999993
0.99999
0.999986
0.99998
0.999973
0.999964
0.999953
0.999947
0.999942
0.999951
0.999949
0.99993
0.99995
0.99996
0.999913
0.999918
0.99992
0.999923
0.999928
0.999935
0.999942
0.999951
0.99996
0.999969
0.999978
0.999986
0.999992
0.999996
0.999998
0.999999
1
1
1
1
1
1
1
1
1
1
1
1
1
1
1
1
1
1
1
1
1
1
1
0.0153337
0.134799
0.356055
0.620527
0.833512
0.947632
0.988289
0.998128
0.999797
0.999985
0.999999
1
1
1
1
1
1
1
1
0.999995
0.999885
0.998573
0.990035
0.957618
0.885669
0.770299
0.614152
0.409028
0.119101
0.964953
0.999999
0.999964
0.999996
0.999994
0.999991
0.999987
0.999981
0.999975
0.999966
0.999956
0.999945
0.99994
0.999937
0.999948
0.999945
0.99993
0.999951
0.999951
0.999913
0.999919
0.999922
0.999927
0.999934
0.999941
0.99995
0.999959
0.999968
0.999977
0.999985
0.999991
0.999995
0.999998
0.999999
1
1
1
1
1
1
1
1
1
1
1
1
1
1
1
1
1
1
1
1
1
1
1
1
0.0156737
0.138003
0.364084
0.632954
0.844255
0.952944
0.989915
0.9985
0.999846
0.999989
0.999999
1
1
1
1
1
1
1
1
0.999996
0.999906
0.998823
0.991779
0.964827
0.898836
0.793379
0.656939
0.492998
0.294999
0.179916
0.975841
1
0.999932
0.999994
0.999991
0.999987
0.999982
0.999976
0.999968
0.999959
0.999948
0.999936
0.999933
0.999933
0.999945
0.999942
0.999931
0.999952
0.999945
0.999914
0.999922
0.999926
0.999933
0.99994
0.999949
0.999958
0.999967
0.999976
0.999984
0.99999
0.999995
0.999998
0.999999
1
1
1
1
1
1
1
1
1
1
1
1
1
1
1
1
1
1
1
1
1
1
1
1
1
0.01599
0.140962
0.371901
0.64351
0.853825
0.95781
0.99139
0.99879
0.999885
0.999993
1
1
1
1
1
1
1
1
1
0.999997
0.999926
0.999011
0.992987
0.969873
0.912531
0.812525
0.686595
0.544749
0.384075
0.162189
0.237801
0.984462
1
0.999881
0.999991
0.999987
0.999982
0.999977
0.99997
0.999961
0.999951
0.99994
0.999929
0.999928
0.999931
0.999943
0.999941
0.999933
0.999953
0.99994
0.999918
0.999926
0.999932
0.999939
0.999948
0.999957
0.999966
0.999975
0.999983
0.99999
0.999994
0.999997
0.999999
1
1
1
1
1
1
1
1
1
1
1
1
1
1
1
1
1
1
1
1
1
1
1
1
1
1
0.0162844
0.143721
0.379045
0.653916
0.862169
0.961874
0.992699
0.999029
0.999914
0.999995
1
1
1
1
1
1
1
1
1
0.999998
0.999945
0.999194
0.993935
0.973548
0.922572
0.832519
0.710129
0.578919
0.442053
0.289954
0.0758812
0.293327
0.990937
1
0.999806
0.999988
0.999983
0.999977
0.999971
0.999963
0.999953
0.999943
0.999932
0.999922
0.999924
0.999929
0.999942
0.999941
0.999936
0.999955
0.999937
0.999923
0.999931
0.999938
0.999947
0.999956
0.999965
0.999974
0.999982
0.999989
0.999994
0.999997
0.999999
1
1
1
1
1
1
1
1
1
1
1
1
1
1
1
1
1
1
1
1
1
1
1
1
1
1
1
0.0165675
0.146286
0.385723
0.663219
0.869706
0.965388
0.993703
0.999222
0.999935
0.999996
1
1
1
1
1
1
1
1
1
0.999999
0.99996
0.99937
0.994886
0.976515
0.930273
0.847608
0.734316
0.604843
0.479035
0.351913
0.209616
0.0233587
0.348396
0.995146
1
0.999701
0.999983
0.999978
0.999971
0.999964
0.999956
0.999946
0.999935
0.999924
0.999917
0.999921
0.999929
0.999942
0.999941
0.999939
0.999956
0.999936
0.999929
0.999937
0.999946
0.999955
0.999964
0.999973
0.999981
0.999988
0.999993
0.999997
0.999999
1
1
1
1
1
1
1
1
1
1
1
1
1
1
1
1
1
1
1
1
1
1
1
1
1
1
1
1
0.016846
0.148747
0.391841
0.671802
0.876281
0.968392
0.994528
0.999366
0.999952
0.999998
1
1
1
1
1
1
1
1
1
0.999999
0.999973
0.999529
0.995839
0.97955
0.936602
0.85967
0.752977
0.630776
0.505881
0.390508
0.274266
0.141036
0.0143133
0.407874
0.997661
1
0.999572
0.999978
0.999972
0.999965
0.999957
0.999948
0.999938
0.999927
0.999918
0.999913
0.99992
0.99993
0.999943
0.999943
0.999943
0.999958
0.999936
0.999936
0.999945
0.999954
0.999963
0.999972
0.999981
0.999988
0.999993
0.999997
0.999999
1
1
1
1
1
1
1
1
1
1
1
1
1
1
1
1
1
1
1
1
1
1
1
1
1
1
1
1
1
0.0170565
0.151138
0.397683
0.679495
0.882187
0.970917
0.995207
0.999478
0.999963
0.999998
1
1
1
1
1
1
1
1
1
0.999999
0.999982
0.99966
0.996738
0.982707
0.943199
0.869831
0.768333
0.650997
0.531707
0.417593
0.313797
0.207421
0.0819839
0.0471235
0.473818
0.999001
1
0.999418
0.999973
0.999966
0.999958
0.99995
0.999941
0.999931
0.999921
0.999913
0.999912
0.999921
0.999932
0.999944
0.999946
0.999948
0.99996
0.999939
0.999944
0.999953
0.999962
0.999972
0.99998
0.999987
0.999992
0.999996
0.999998
1
1
1
1
1
1
1
1
1
1
1
1
1
1
1
1
1
1
1
1
1
1
1
1
1
1
1
1
1
1
0.0172074
0.152969
0.403224
0.686691
0.887325
0.973098
0.995752
0.999565
0.999972
0.999999
1
1
1
1
1
1
1
1
1
1
0.999988
0.999761
0.997526
0.985849
0.950334
0.880642
0.781561
0.667976
0.551788
0.442257
0.340853
0.247718
0.149436
0.0304744
0.0833472
0.546756
0.99963
1
0.999254
0.999967
0.999959
0.999951
0.999943
0.999934
0.999924
0.999915
0.999911
0.999912
0.999923
0.999935
0.999946
0.99995
0.999953
0.999963
0.999943
0.999953
0.999961
0.999971
0.999979
0.999986
0.999992
0.999996
0.999998
0.999999
1
1
1
1
1
1
1
1
1
1
1
1
1
1
1
1
1
1
1
1
1
1
1
1
1
1
1
1
1
1
0.0173644
0.154268
0.407507
0.693318
0.891987
0.974944
0.996205
0.999632
0.999978
0.999999
1
1
1
1
1
1
1
1
1
1
0.999992
0.999836
0.998169
0.988749
0.957751
0.89264
0.795879
0.682964
0.569041
0.461174
0.36397
0.274678
0.190531
0.0983491
0.0160365
0.121227
0.626147
0.999884
1
0.999086
0.99996
0.999953
0.999944
0.999936
0.999927
0.999918
0.999912
0.99991
0.999914
0.999927
0.999939
0.99995
0.999954
0.999958
0.999966
0.999949
0.999962
0.99997
0.999978
0.999986
0.999992
0.999996
0.999998
0.999999
1
1
1
1
1
1
1
1
1
1
1
1
1
1
1
1
1
1
1
1
1
1
1
1
1
1
1
1
1
1
1
0.0175033
0.155587
0.410524
0.698337
0.896116
0.976546
0.996573
0.999684
0.999982
0.999999
1
1
1
1
1
1
1
1
1
1
0.999994
0.999883
0.99868
0.991246
0.964945
0.905507
0.812088
0.6992
0.584454
0.477819
0.381291
0.296117
0.217729
0.140472
0.0524177
0.057483
0.160584
0.709684
0.99997
1
0.998931
0.999954
0.999946
0.999938
0.99993
0.999922
0.999914
0.99991
0.999911
0.999918
0.999932
0.999943
0.999953
0.999959
0.999963
0.99997
0.999957
0.99997
0.999978
0.999985
0.999991
0.999995
0.999998
0.999999
1
1
1
1
1
1
1
1
1
1
1
1
1
1
1
1
1
1
1
1
1
1
1
1
1
1
1
1
1
1
1
1
0.0176159
0.156719
0.413468
0.701906
0.899183
0.977917
0.996882
0.999725
0.999985
0.999999
1
1
1
1
1
1
1
1
1
1
0.999995
0.999914
0.999017
0.993358
0.971456
0.918571
0.829959
0.717962
0.601205
0.492661
0.39676
0.31187
0.237603
0.168352
0.0960078
0.0106352
0.0971573
0.204905
0.794112
0.999994
1
0.998809
0.999947
0.999939
0.999932
0.999924
0.999917
0.999912
0.99991
0.999914
0.999923
0.999938
0.999949
0.999958
0.999964
0.999968
0.999974
0.999966
0.999978
0.999985
0.999991
0.999995
0.999998
0.999999
1
1
1
1
1
1
1
1
1
1
1
1
1
1
1
1
1
1
1
1
1
1
1
1
1
1
1
1
1
1
1
1
1
0.0177007
0.157611
0.415934
0.705251
0.901359
0.978928
0.997134
0.999757
0.999988
1
1
1
1
1
1
1
1
1
1
1
0.999996
0.999932
0.99925
0.994837
0.97726
0.931014
0.848809
0.739239
0.620762
0.508952
0.410718
0.326098
0.251793
0.186811
0.12503
0.0559424
0.0297222
0.136839
0.276433
0.868561
0.999999
1
0.998726
0.999941
0.999933
0.999926
0.99992
0.999915
0.999911
0.999912
0.999918
0.999929
0.999944
0.999954
0.999963
0.999969
0.999973
0.999979
0.999974
0.999985
0.99999
0.999995
0.999998
0.999999
1
1
1
1
1
1
1
1
1
1
1
1
1
1
1
1
1
1
1
1
1
1
1
1
1
1
1
1
1
1
1
1
1
1
0.0177607
0.158255
0.417794
0.70799
0.90331
0.979629
0.997316
0.999783
0.999989
1
1
1
1
1
1
1
1
1
1
1
0.999997
0.999944
0.9994
0.995913
0.981577
0.94265
0.867483
0.762238
0.643426
0.528148
0.425968
0.339006
0.264707
0.199573
0.142147
0.0864191
0.019973
0.0659761
0.177472
0.354591
0.92377
1
1
0.998704
0.999935
0.999928
0.999922
0.999917
0.999914
0.999912
0.999916
0.999925
0.999937
0.99995
0.99996
0.999968
0.999974
0.999978
0.999984
0.999982
0.99999
0.999994
0.999997
0.999999
1
1
1
1
1
1
1
1
1
1
1
1
1
1
1
1
1
1
1
1
1
1
1
1
1
1
1
1
1
1
1
1
1
1
1
0.0177972
0.158713
0.419062
0.710022
0.904853
0.98023
0.997441
0.999801
0.999991
1
1
1
1
1
1
1
1
1
1
1
0.999997
0.99995
0.999495
0.996641
0.984873
0.951741
0.88567
0.785674
0.668366
0.550553
0.444052
0.353009
0.276683
0.211457
0.15391
0.102475
0.0513679
0.017408
0.100304
0.219563
0.438152
0.961374
1
1
0.998749
0.99993
0.999923
0.999918
0.999915
0.999914
0.999916
0.999922
0.999932
0.999944
0.999957
0.999966
0.999973
0.999979
0.999983
0.999988
0.999988
0.999994
0.999997
0.999999
1
1
1
1
1
1
1
1
1
1
1
1
1
1
1
1
1
1
1
1
1
1
1
1
1
1
1
1
1
1
1
1
1
1
1
0.0178043
0.158886
0.419887
0.711266
0.905989
0.980688