/*--------------------------------*- C++ -*----------------------------------*\
| =========                 |                                                 |
| \\      /  F ield         | OpenFOAM: The Open Source CFD Toolbox           |
|  \\    /   O peration     | Version:  v2012                                 |
|   \\  /    A nd           | Website:  www.openfoam.com                      |
|    \\/     M anipulation  |                                                 |
\*---------------------------------------------------------------------------*/
FoamFile
{
    version     2.0;
    format      ascii;
    class       volScalarField;
    location    "0";
    object      Rew;
}
// * * * * * * * * * * * * * * * * * * * * * * * * * * * * * * * * * * * * * //

dimensions      [0 0 0 0 0 0 0];


internalField   nonuniform List<scalar> 
31383
(
0.00732821
0.0319815
0.0712163
0.0308033
0.283319
0.19788
0.0299091
0.273374
0.678159
0.382431
0.0292438
0.26579
0.661221
0.930967
0.600882
0.0286957
0.260128
0.647911
0.922278
0.99341
0.796911
0.0282228
0.255448
0.637745
0.914769
0.991846
0.999729
0.922005
0.0278207
0.251399
0.629198
0.908846
0.990397
0.99962
0.999996
0.978631
0.0274798
0.247954
0.621699
0.903675
0.989167
0.999511
0.999993
1
0.996076
0.0271777
0.245026
0.61524
0.898994
0.988049
0.999409
0.99999
1
1
0.999575
0.0269052
0.242429
0.609698
0.894848
0.98697
0.99931
0.999986
1
1
1
0.999982
0.0266511
0.240083
0.604734
0.891205
0.985989
0.99921
0.999983
1
1
1
1
1
0.0264154
0.237893
0.600219
0.887879
0.9851
0.999114
0.999979
1
1
1
1
1
1
0.0261965
0.235861
0.595972
0.884799
0.984265
0.999025
0.999975
1
1
1
1
1
1
1
0.0259986
0.233971
0.592014
0.881858
0.983475
0.998937
0.999971
1
1
1
1
1
1
1
1
0.0258186
0.232261
0.588305
0.879073
0.982702
0.998851
0.999968
1
1
1
1
1
1
1
1
1
0.0256584
0.230705
0.584933
0.87643
0.981954
0.998766
0.999964
1
1
1
1
1
1
1
1
1
1
0.0255139
0.229319
0.581852
0.873993
0.981232
0.998681
0.99996
1
1
1
1
1
1
1
1
1
1
1
0.0253851
0.228071
0.579091
0.871743
0.980561
0.998597
0.999956
0.999999
1
1
1
1
1
1
1
1
1
1
1
0.025269
0.226955
0.576595
0.869706
0.979917
0.998516
0.999952
0.999999
1
1
1
1
1
1
1
1
1
1
1
1
0.0251653
0.225949
0.574359
0.867843
0.979333
0.998438
0.999947
0.999999
1
1
1
1
1
1
1
1
1
1
1
1
1
0.0250727
0.225051
0.572334
0.866163
0.978792
0.998366
0.999943
0.999999
1
1
1
1
1
1
1
1
1
1
1
1
1
1
0.0249895
0.224245
0.570523
0.864659
0.978297
0.998298
0.99994
0.999999
1
1
1
1
1
1
1
1
1
1
1
1
1
1
1
0.0249149
0.223527
0.568896
0.863248
0.977847
0.998235
0.999936
0.999999
1
1
1
1
1
1
1
1
1
1
1
1
1
1
1
1
0.0248467
0.222876
0.567435
0.862003
0.977428
0.998177
0.999932
0.999999
1
1
1
1
1
1
1
1
1
1
1
1
1
1
1
1
1
0.0247839
0.222285
0.566115
0.860875
0.977049
0.998123
0.999929
0.999999
1
1
1
1
1
1
1
1
1
1
1
1
1
1
1
1
1
1
0.0247263
0.22174
0.564915
0.859854
0.976707
0.998073
0.999926
0.999999
1
1
1
1
1
1
1
1
1
1
1
1
1
1
1
1
1
1
1
0.0246735
0.22124
0.563801
0.858918
0.976393
0.998027
0.999923
0.999999
1
1
1
1
1
1
1
1
1
1
1
1
1
1
1
1
1
1
1
1
0.0246251
0.220781
0.562779
0.858051
0.976104
0.997985
0.99992
0.999999
1
1
1
1
1
1
1
1
1
1
1
1
1
1
1
1
1
1
1
1
1
0.0245809
0.220362
0.561843
0.857247
0.975835
0.997946
0.999918
0.999999
1
1
1
1
1
1
1
1
1
1
1
1
1
1
1
1
1
1
1
1
1
1
0.0245406
0.219976
0.560983
0.85651
0.975584
0.997909
0.999916
0.999999
1
1
1
1
1
1
1
1
1
1
1
1
1
1
1
1
1
1
1
1
0.999999
1
1
0.0245045
0.219626
0.560195
0.855832
0.975353
0.997875
0.999913
0.999998
1
1
1
1
1
1
1
1
1
1
1
1
1
1
1
1
1
1
1
1
0.999999
0.999999
0.999999
1
0.0244718
0.219312
0.559478
0.85521
0.97514
0.997843
0.999911
0.999998
1
1
1
1
1
1
1
1
1
1
1
1
1
1
1
1
1
1
1
1
0.999999
0.999999
0.999998
0.999999
1
0.024442
0.219027
0.55883
0.854639
0.974941
0.997813
0.999909
0.999998
1
1
1
1
1
1
1
1
1
1
1
1
1
1
1
1
1
1
1
1
0.999999
0.999999
0.999998
0.999997
0.999999
1
0.0244147
0.218769
0.558247
0.854123
0.97476
0.997786
0.999908
0.999998
1
1
1
1
1
1
1
1
1
1
1
1
1
1
1
1
1
1
1
1
0.999999
0.999999
0.999997
0.999996
0.999996
0.999999
1
0.0243893
0.218532
0.557715
0.853661
0.974596
0.99776
0.999906
0.999998
1
1
1
1
1
1
1
1
1
1
1
1
1
1
1
1
1
1
1
1
0.999999
0.999999
0.999997
0.999996
0.999995
0.999995
1
1
0.0243637
0.218311
0.557225
0.853236
0.974447
0.997737
0.999904
0.999998
1
1
1
1
1
1
1
1
1
1
1
1
1
1
1
1
1
1
1
1
0.999999
0.999999
0.999997
0.999996
0.999994
0.999993
0.999994
1
1
0.0243416
0.218087
0.556786
0.852842
0.974311
0.997716
0.999903
0.999998
1
1
1
1
1
1
1
1
1
1
1
1
1
1
1
1
1
1
1
1
0.999999
0.999999
0.999997
0.999996
0.999994
0.999992
0.999991
0.999994
1
1
0.0243973
0.217895
0.556304
0.852482
0.974185
0.997697
0.999902
0.999998
1
1
1
1
1
1
1
1
1
1
1
1
1
1
1
1
1
1
1
1
0.999999
0.999999
0.999998
0.999996
0.999994
0.999992
0.999989
0.999989
0.999994
1
1
0.0305623
0.218369
0.555911
0.852104
0.974067
0.997679
0.9999
0.999998
1
1
1
1
1
1
1
1
1
1
1
1
1
1
1
1
1
1
1
1
0.999999
0.999999
0.999998
0.999996
0.999994
0.999991
0.999989
0.999987
0.999987
0.999994
1
1
0.0251043
1
0.556841
0.851787
0.973947
0.997662
0.999899
0.999998
1
1
1
1
1
1
1
1
1
1
1
1
1
1
1
1
1
1
1
1
0.999999
0.999999
0.999998
0.999996
0.999994
0.999991
0.999988
0.999986
0.999984
0.999986
0.999995
1
1
0.0252809
0.999114
1
0.852477
0.973844
0.997645
0.999898
0.999998
1
1
1
1
1
1
1
1
1
1
1
1
1
1
1
1
1
1
1
1
0.999999
0.999999
0.999998
0.999996
0.999994
0.999991
0.999988
0.999985
0.999982
0.999982
0.999986
0.999996
1
1
0.0273648
1
0.999999
1
0.974044
0.99763
0.999897
0.999998
1
1
1
1
1
1
1
1
1
1
1
1
1
1
1
1
1
1
1
1
0.999999
0.999999
0.999998
0.999996
0.999994
0.999991
0.999988
0.999985
0.999981
0.999979
0.99998
0.999986
0.999997
1
1
0.0261627
1
1
1
1
0.997654
0.999896
0.999998
1
1
1
1
1
1
1
1
1
1
1
1
1
1
1
1
1
1
1
1
0.999999
0.999999
0.999998
0.999996
0.999994
0.999991
0.999988
0.999984
0.999981
0.999978
0.999976
0.999978
0.999987
0.999998
1
1
0.02469
1
1
1
1
1
0.999897
0.999998
1
1
1
1
1
1
1
1
1
1
1
1
1
1
1
1
1
1
1
1
0.999999
0.999999
0.999998
0.999996
0.999994
0.999991
0.999988
0.999984
0.99998
0.999976
0.999974
0.999974
0.999978
0.999989
0.999999
1
1
0.0244123
1
1
1
1
1
1
0.999998
1
1
1
1
1
1
1
1
1
1
1
1
1
1
1
1
1
1
1
1
0.999999
0.999999
0.999998
0.999996
0.999994
0.999991
0.999988
0.999984
0.99998
0.999976
0.999972
0.999971
0.999972
0.999979
0.999991
1
1
1
0.0241791
0.999994
1
1
1
1
1
1
1
1
1
1
1
1
1
1
1
1
1
1
1
1
1
1
1
1
1
1
0.999999
0.999999
0.999998
0.999996
0.999994
0.999991
0.999988
0.999984
0.99998
0.999975
0.999971
0.999969
0.999968
0.999972
0.999981
0.999994
1
1
1
0.0241278
0.668019
1
1
1
1
1
1
1
1
1
1
1
1
1
1
1
1
1
1
1
1
1
1
1
1
1
1
0.999999
0.999999
0.999998
0.999996
0.999994
0.999991
0.999988
0.999984
0.999979
0.999975
0.999971
0.999967
0.999966
0.999967
0.999972
0.999983
0.999996
1
1
1
0.0241087
0.512708
0.953655
1
1
1
1
1
1
1
1
1
1
1
1
1
1
1
1
1
1
1
1
1
1
1
1
1
0.999999
0.999999
0.999998
0.999996
0.999994
0.999991
0.999988
0.999984
0.999979
0.999975
0.99997
0.999966
0.999963
0.999963
0.999966
0.999974
0.999986
0.999998
1
1
1
0.0240943
0.253326
0.873684
0.995371
1
1
1
1
1
1
1
1
1
1
1
1
1
1
1
1
1
1
1
1
1
1
1
1
0.999999
0.999999
0.999998
0.999996
0.999994
0.999991
0.999988
0.999984
0.999979
0.999974
0.99997
0.999965
0.999962
0.99996
0.999962
0.999967
0.999977
0.99999
0.999999
1
1
1
0.0240746
0.231659
0.609591
0.980508
0.999805
1
1
1
1
1
1
1
1
1
1
1
1
1
1
1
1
1
1
1
1
1
1
1
0.999999
0.999999
0.999998
0.999996
0.999994
0.999991
0.999988
0.999984
0.999979
0.999974
0.999969
0.999965
0.999961
0.999958
0.999958
0.999962
0.999969
0.99998
0.999993
1
1
1
1
0.0240553
0.247266
0.57599
0.879077
0.997998
0.999994
1
1
1
1
1
1
1
1
1
1
1
1
1
1
1
1
1
1
1
1
1
1
0.999999
0.999999
0.999998
0.999996
0.999994
0.999991
0.999988
0.999984
0.999979
0.999974
0.999969
0.999964
0.99996
0.999957
0.999956
0.999958
0.999963
0.999972
0.999984
0.999996
1
1
1
1
0.0240408
0.234882
0.596717
0.860318
0.979448
0.999865
1
1
1
1
1
1
1
1
1
1
1
1
1
1
1
1
1
1
1
1
1
1
0.999999
0.999999
0.999998
0.999996
0.999994
0.999991
0.999988
0.999984
0.999979
0.999974
0.999969
0.999964
0.999959
0.999956
0.999954
0.999954
0.999958
0.999965
0.999976
0.999989
0.999998
1
1
1
1
0.0240323
0.21894
0.57773
0.871087
0.975174
0.998088
0.999995
1
1
1
1
1
1
1
1
1
1
1
1
1
1
1
1
1
1
1
1
1
0.999999
0.999999
0.999998
0.999996
0.999994
0.999991
0.999988
0.999984
0.999979
0.999974
0.999969
0.999963
0.999959
0.999955
0.999952
0.999952
0.999954
0.999959
0.999969
0.999981
0.999992
0.999999
1
1
1
1
0.0240066
0.217915
0.553171
0.86055
0.977379
0.997611
0.999911
1
1
1
1
1
1
1
1
1
1
1
1
1
1
1
1
1
1
1
1
1
0.999999
0.999999
0.999998
0.999996
0.999994
0.999991
0.999988
0.999984
0.999979
0.999974
0.999968
0.999963
0.999958
0.999954
0.999951
0.99995
0.999951
0.999955
0.999962
0.999973
0.999985
0.999996
1
1
1
1
1
0.0222034
0.21797
0.552707
0.84661
0.974803
0.997856
0.999898
0.999998
1
1
1
1
1
1
1
1
1
1
1
1
1
1
1
1
1
1
1
1
0.999999
0.999999
0.999998
0.999996
0.999994
0.999991
0.999988
0.999984
0.999979
0.999974
0.999968
0.999963
0.999958
0.999953
0.99995
0.999948
0.999948
0.999951
0.999957
0.999967
0.999978
0.99999
0.999998
1
1
1
1
1
0.0118009
0.200435
0.553127
0.846727
0.971411
0.997577
0.999911
0.999998
1
1
1
1
1
1
1
1
1
1
1
1
1
1
1
1
1
1
1
1
0.999999
0.999999
0.999998
0.999996
0.999994
0.999992
0.999988
0.999984
0.999979
0.999974
0.999968
0.999962
0.999957
0.999952
0.999949
0.999947
0.999946
0.999948
0.999953
0.999961
0.999972
0.999983
0.999994
0.999999
1
1
1
1
1
0.0089617
0.109712
0.517753
0.84805
0.971689
0.997177
0.999894
0.999999
1
1
1
1
1
1
1
1
1
1
1
1
1
1
1
1
1
1
1
1
0.999999
0.999999
0.999998
0.999996
0.999994
0.999992
0.999988
0.999984
0.999979
0.999974
0.999968
0.999962
0.999957
0.999952
0.999948
0.999945
0.999944
0.999946
0.99995
0.999956
0.999966
0.999977
0.999988
0.999997
1
1
1
1
1
1
0.010795
0.0757439
0.307222
0.817874
0.9722
0.997242
0.999879
0.999998
1
1
1
1
1
1
1
1
1
1
1
1
1
1
1
1
1
1
1
1
0.999999
0.999999
0.999998
0.999996
0.999994
0.999992
0.999988
0.999984
0.999979
0.999974
0.999968
0.999962
0.999956
0.999951
0.999947
0.999944
0.999943
0.999944
0.999947
0.999952
0.999961
0.999971
0.999983
0.999993
0.999998
1
1
1
1
1
1
0.00995897
0.0957793
0.190519
0.570837
0.961092
0.997347
0.999876
0.999998
1
1
1
1
1
1
1
1
1
1
1
1
1
1
1
1
1
1
1
1
0.999999
0.999999
0.999998
0.999996
0.999994
0.999992
0.999988
0.999984
0.999979
0.999973
0.999968
0.999962
0.999956
0.999951
0.999946
0.999943
0.999942
0.999942
0.999944
0.999949
0.999956
0.999966
0.999977
0.999988
0.999996
0.999999
1
1
1
1
1
1
0.00948842
0.0891131
0.259777
0.286038
0.810023
0.995486
0.999875
0.999998
1
1
1
1
1
1
1
1
1
1
1
1
1
1
1
1
1
1
1
1
0.999999
0.999999
0.999998
0.999996
0.999994
0.999992
0.999988
0.999984
0.999979
0.999973
0.999968
0.999962
0.999956
0.99995
0.999946
0.999942
0.99994
0.99994
0.999942
0.999946
0.999952
0.999961
0.999972
0.999983
0.999992
0.999998
1
1
1
1
1
1
1
0.00923617
0.0851992
0.243724
0.479627
0.385348
0.94472
0.999729
0.999997
1
1
1
1
1
1
1
1
1
1
1
1
1
1
1
1
1
1
1
1
0.999999
0.999999
0.999998
0.999996
0.999994
0.999992
0.999988
0.999984
0.999979
0.999973
0.999967
0.999961
0.999956
0.99995
0.999945
0.999942
0.999939
0.999939
0.99994
0.999943
0.999949
0.999957
0.999967
0.999978
0.999988
0.999996
0.999999
1
1
1
1
1
1
1
0.00910398
0.0829589
0.234255
0.457055
0.703023
0.527545
0.989917
0.999992
1
1
1
1
1
1
1
1
1
1
1
1
1
1
1
1
1
1
1
1
0.999999
0.999999
0.999998
0.999996
0.999994
0.999992
0.999988
0.999984
0.999979
0.999973
0.999967
0.999961
0.999955
0.99995
0.999945
0.999941
0.999938
0.999937
0.999938
0.999941
0.999946
0.999954
0.999963
0.999973
0.999984
0.999993
0.999998
1
1
1
1
1
1
1
1
0.0091332
0.0820743
0.228757
0.442301
0.681849
0.868834
0.669856
0.9989
1
1
1
1
1
1
1
1
1
1
1
1
1
1
1
1
1
1
1
1
0.999999
0.999999
0.999998
0.999996
0.999994
0.999992
0.999988
0.999984
0.999979
0.999973
0.999967
0.999961
0.999955
0.999949
0.999944
0.99994
0.999937
0.999936
0.999937
0.999939
0.999944
0.999951
0.999959
0.999969
0.99998
0.999989
0.999996
0.999999
1
1
1
1
1
1
1
1
0.0092481
0.0822012
0.226932
0.433361
0.666572
0.856114
0.956416
0.785971
0.999931
1
1
1
1
1
1
1
1
1
1
1
1
1
1
1
1
1
1
1
0.999999
0.999999
0.999998
0.999996
0.999994
0.999992
0.999988
0.999984
0.999979
0.999973
0.999967
0.999961
0.999955
0.999949
0.999944
0.999939
0.999936
0.999935
0.999935
0.999937
0.999941
0.999948
0.999956
0.999966
0.999976
0.999986
0.999993
0.999998
1
1
1
1
1
1
1
1
1
0.00944617
0.0833189
0.227137
0.430374
0.656162
0.845309
0.951435
0.98923
0.86878
0.999997
1
1
1
1
1
1
1
1
1
1
1
1
1
1
1
1
1
1
0.999999
0.999999
0.999998
0.999996
0.999994
0.999992
0.999988
0.999984
0.999979
0.999973
0.999967
0.999961
0.999955
0.999949
0.999943
0.999939
0.999936
0.999934
0.999934
0.999935
0.999939
0.999945
0.999953
0.999962
0.999972
0.999982
0.999991
0.999996
0.999999
1
1
1
1
1
1
1
1
1
0.00969476
0.0850643
0.230027
0.431119
0.653251
0.837632
0.946525
0.988106
0.998045
0.920944
1
1
1
1
1
1
1
1
1
1
1
1
1
1
1
1
0.999999
1
0.999999
0.999999
0.999998
0.999996
0.999994
0.999992
0.999988
0.999984
0.999979
0.999973
0.999967
0.999961
0.999954
0.999948
0.999943
0.999938
0.999935
0.999933
0.999932
0.999934
0.999937
0.999943
0.99995
0.999959
0.999969
0.999979
0.999988
0.999995
0.999998
1
1
1
1
1
1
1
1
1
1
0.00995165
0.0873393
0.234719
0.436631
0.654721
0.835491
0.94284
0.986611
0.997944
0.999743
0.94952
1
1
1
1
1
1
1
1
1
1
1
1
1
1
1
1
0.999999
1
0.999999
0.999998
0.999996
0.999994
0.999992
0.999988
0.999984
0.999979
0.999973
0.999967
0.999961
0.999954
0.999948
0.999943
0.999938
0.999934
0.999932
0.999931
0.999932
0.999936
0.999941
0.999948
0.999956
0.999966
0.999976
0.999985
0.999992
0.999997
0.999999
1
1
1
1
1
1
1
1
1
0.671614
0.0101753
0.0896241
0.241273
0.444683
0.661449
0.837042
0.941907
0.985439
0.99766
0.999757
0.999975
0.962901
1
1
1
1
1
1
1
1
1
1
1
1
1
1
1
0.999999
0.999998
1
0.999998
0.999996
0.999994
0.999992
0.999988
0.999984
0.999979
0.999973
0.999967
0.999961
0.999954
0.999948
0.999942
0.999937
0.999934
0.999931
0.99993
0.999931
0.999934
0.999939
0.999945
0.999953
0.999963
0.999973
0.999982
0.99999
0.999996
0.999999
1
1
1
1
1
1
1
1
1
1
1
0.0103631
0.0917837
0.24732
0.455555
0.671205
0.84271
0.942771
0.985173
0.997391
0.999719
0.99998
0.999998
0.962843
1
1
1
1
1
1
1
1
1
1
1
1
1
1
1
0.999999
0.999996
1
0.999996
0.999994
0.999992
0.999988
0.999984
0.999979
0.999973
0.999967
0.99996
0.999954
0.999948
0.999942
0.999937
0.999933
0.99993
0.999929
0.99993
0.999932
0.999937
0.999943
0.999951
0.99996
0.99997
0.999979
0.999988
0.999994
0.999998
1
1
1
1
1
1
1
1
1
1
1
0.999872
0.0105193
0.0934461
0.252762
0.46581
0.683979
0.850579
0.946027
0.985547
0.99735
0.999682
0.999977
0.999999
1
0.939897
1
1
1
1
1
1
1
1
1
1
1
1
1
1
1
0.999998
0.999994
1
0.999994
0.999992
0.999988
0.999984
0.999979
0.999973
0.999967
0.99996
0.999954
0.999948
0.999942
0.999937
0.999933
0.99993
0.999928
0.999929
0.999931
0.999935
0.999941
0.999949
0.999958
0.999967
0.999977
0.999986
0.999992
0.999997
0.999999
1
1
1
1
1
1
1
1
1
1
0.99985
0.999913
0.010655
0.0948013
0.257234
0.475342
0.69563
0.860499
0.950273
0.986756
0.997465
0.999677
0.999974
0.999999
1
1
0.832915
1
1
1
1
1
1
1
1
1
1
1
1
1
0.999999
0.999999
0.999996
0.999992
1
0.999991
0.999988
0.999984
0.999979
0.999973
0.999967
0.99996
0.999954
0.999947
0.999942
0.999936
0.999932
0.999929
0.999928
0.999928
0.99993
0.999933
0.999939
0.999946
0.999955
0.999965
0.999974
0.999983
0.999991
0.999996
0.999999
1
1
1
1
1
1
1
1
1
1
0.971168
0.999999
1
0.0107832
0.0960092
0.261184
0.482761
0.706239
0.869488
0.955167
0.988302
0.997746
0.999699
0.999974
0.999998
1
1
1
0.416621
1
1
1
1
1
1
1
1
1
1
1
1
0.999999
0.999999
0.999998
0.999993
0.999988
1
0.999988
0.999984
0.999979
0.999973
0.999967
0.99996
0.999954
0.999947
0.999941
0.999936
0.999932
0.999929
0.999927
0.999927
0.999928
0.999932
0.999937
0.999944
0.999953
0.999962
0.999972
0.999981
0.999989
0.999995
0.999998
1
1
1
1
1
1
1
1
1
1
0.447489
0.999989
0.973295
0.433924
0.0109223
0.0971901
0.264477
0.488907
0.714444
0.877231
0.959646
0.989967
0.998114
0.999745
0.999976
0.999998
1
1
1
1
0.249343
1
1
1
1
1
1
1
1
1
1
1
1
0.999999
0.999998
0.999997
0.99999
0.999984
1
0.999983
0.999979
0.999973
0.999967
0.99996
0.999953
0.999947
0.999941
0.999936
0.999931
0.999928
0.999926
0.999926
0.999927
0.999931
0.999936
0.999943
0.999951
0.99996
0.99997
0.999979
0.999987
0.999993
0.999997
0.999999
1
1
1
1
1
1
1
1
1
1
1
0.999627
0.999402
1
0.0110907
0.0984603
0.267644
0.494294
0.721212
0.883059
0.963376
0.991335
0.998471
0.999798
0.999981
0.999999
1
1
1
1
1
0.647035
1
1
1
1
1
1
1
1
1
1
0.999999
0.999999
0.999998
0.999996
0.999996
0.999986
0.999979
0.999999
0.999978
0.999973
0.999966
0.99996
0.999953
0.999947
0.999941
0.999935
0.999931
0.999928
0.999926
0.999925
0.999926
0.999929
0.999934
0.999941
0.999949
0.999958
0.999967
0.999977
0.999985
0.999992
0.999996
0.999999
1
1
1
1
1
1
1
1
1
0.999982
1
1
0.946052
1
1
0.0112987
0.1
0.271006
0.499529
0.727079
0.888066
0.966011
0.992417
0.998746
0.999849
0.999986
0.999999
1
1
1
1
1
0.99999
0.792222
1
1
1
1
1
1
1
1
1
1
0.999999
0.999998
0.999996
0.999994
0.999993
0.999981
0.999975
0.999998
0.999972
0.999966
0.99996
0.999953
0.999947
0.999941
0.999935
0.99993
0.999927
0.999925
0.999924
0.999926
0.999928
0.999933
0.999939
0.999947
0.999956
0.999965
0.999975
0.999983
0.99999
0.999995
0.999998
1
1
1
1
1
1
1
1
1
1
0.702215
1
0.473968
1
1
1
0.0115523
0.101881
0.27513
0.505095
0.732703
0.89183
0.968229
0.993189
0.998952
0.999883
0.99999
0.999999
1
1
1
1
1
1
0.999154
0.846434
1
1
1
1
1
1
1
1
1
0.999999
0.999998
0.999997
0.999993
0.999991
0.99999
0.999975
0.99997
0.999996
0.999966
0.99996
0.999953
0.999946
0.99994
0.999935
0.99993
0.999927
0.999924
0.999924
0.999925
0.999927
0.999932
0.999938
0.999945
0.999954
0.999964
0.999973
0.999982
0.999989
0.999994
0.999998
0.999999
1
1
1
1
1
1
1
1
1
0.999998
1
0.999721
0.999998
1
0.999999
1
0.0118513
0.104179
0.280151
0.512234
0.73821
0.89543
0.969777
0.993812
0.999092
0.999907
0.999993
1
1
1
1
1
1
1
0.999998
0.98281
0.866677
1
1
1
1
1
1
1
1
0.999999
0.999998
0.999997
0.999995
0.99999
0.999988
0.999987
0.999968
0.999966
0.999994
0.999959
0.999953
0.999946
0.99994
0.999934
0.99993
0.999926
0.999924
0.999923
0.999924
0.999926
0.999931
0.999936
0.999944
0.999952
0.999962
0.999971
0.99998
0.999988
0.999993
0.999997
0.999999
1
1
1
1
1
1
1
1
1
1
1
0.999994
0.999999
0.999991
1
0.999707
1
0.0121921
0.107042
0.28621
0.520787
0.745635
0.899166
0.971241
0.994272
0.999203
0.999924
0.999995
1
1
1
1
1
1
1
0.999999
0.999956
0.891681
0.876646
1
1
1
1
1
1
1
0.999999
0.999998
0.999997
0.999994
0.999992
0.999986
0.999984
0.999983
0.999961
0.999962
0.999991
0.999952
0.999946
0.99994
0.999934
0.999929
0.999926
0.999923
0.999922
0.999923
0.999925
0.99993
0.999935
0.999942
0.999951
0.99996
0.99997
0.999978
0.999986
0.999992
0.999997
0.999999
1
1
1
1
1
1
1
1
1
1
1
0.999998
0.768098
0.997756
1
1
1
1
0.0125644
0.110088
0.293643
0.530435
0.754799
0.904004
0.97291
0.994675
0.999289
0.999936
0.999996
1
1
1
1
1
1
1
0.999999
0.99997
0.999296
0.7048
0.883773
1
1
1
1
1
1
0.999999
0.999998
0.999997
0.999995
0.999991
0.999988
0.99998
0.999979
0.999979
0.999954
0.999958
0.999987
0.999945
0.99994
0.999934
0.999929
0.999925
0.999923
0.999922
0.999922
0.999925
0.999929
0.999934
0.999941
0.999949
0.999959
0.999968
0.999977
0.999985
0.999991
0.999996
0.999998
1
1
1
1
1
1
1
1
1
1
1
0.996946
0.10113
0.99998
1
1
1
1
1
0.0129587
0.113275
0.301657
0.54213
0.76449
0.909767
0.974961
0.995094
0.999361
0.999945
0.999997
1
1
1
1
1
1
1
0.999999
0.999971
0.99953
0.994019
0.552613
0.890702
1
1
1
1
1
0.999999
0.999998
0.999997
0.999995
0.999992
0.999987
0.999982
0.999974
0.999974
0.999974
0.999947
0.999955
0.999983
0.999937
0.999934
0.999929
0.999925
0.999922
0.999921
0.999922
0.999924
0.999928
0.999933
0.99994
0.999948
0.999957
0.999966
0.999976
0.999984
0.99999
0.999995
0.999998
0.999999
1
1
1
1
1
1
1
1
1
1
1
0.997972
0.999551
1
1
0.40124
1
1
1
0.0133643
0.116989
0.309905
0.553883
0.77539
0.915765
0.977217
0.995616
0.99943
0.999952
0.999997
1
1
1
1
1
1
1
0.999999
0.999977
0.999568
0.995888
0.971155
0.398603
0.899743
0.999999
1
1
1
0.999999
0.999998
0.999997
0.999995
0.999992
0.999988
0.999982
0.999976
0.999968
0.999969
0.999969
0.999941
0.999953
0.999979
0.99993
0.999928
0.999924
0.999922
0.999921
0.999921
0.999923
0.999927
0.999932
0.999939
0.999947
0.999956
0.999965
0.999974
0.999982
0.999989
0.999994
0.999998
0.999999
1
1
1
1
1
1
1
1
1
1
1
0.803295
0.996109
0.999988
1
1
1
1
1
1
0.0137771
0.120605
0.319005
0.566103
0.786734
0.922252
0.979482
0.996166
0.999509
0.999959
0.999998
1
1
1
1
1
1
1
1
0.999983
0.99965
0.996346
0.979398
0.911975
0.26128
0.910601
0.999999
0.999999
1
0.999999
0.999998
0.999997
0.999996
0.999993
0.999989
0.999984
0.999976
0.999969
0.999961
0.999964
0.999963
0.999936
0.999951
0.999975
0.999924
0.999924
0.999921
0.99992
0.99992
0.999922
0.999926
0.999931
0.999938
0.999946
0.999954
0.999964
0.999973
0.999981
0.999988
0.999994
0.999997
0.999999
1
1
1
1
1
1
1
1
1
1
1
0.997291
0.999996
0.985852
1
1
0.99279
1
1
1
0.999999
0.0141895
0.124099
0.328244
0.580116
0.798494
0.928764
0.981836
0.996698
0.999591
0.999966
0.999998
1
1
1
1
1
1
1
1
0.999989
0.999732
0.996979
0.982018
0.934359
0.809633
0.144947
0.922939
0.999999
0.999997
0.999999
0.999998
0.999997
0.999996
0.999993
0.99999
0.999985
0.999978
0.999969
0.999962
0.999955
0.999959
0.999958
0.999932
0.99995
0.999972
0.999918
0.999921
0.999919
0.99992
0.999921
0.999925
0.99993
0.999937
0.999944
0.999953
0.999962
0.999972
0.99998
0.999987
0.999993
0.999997
0.999999
1
1
1
1
1
1
1
1
1
1
1
0.999208
0.999737
0.993568
1
1
1
0.999996
1
1
1
1
0.0145888
0.127963
0.337552
0.593661
0.810999
0.935441
0.984032
0.997221
0.999668
0.999974
0.999999
1
1
1
1
1
1
1
1
0.999992
0.99981
0.997596
0.984785
0.942938
0.851669
0.677903
0.0474339
0.936071
0.999999
0.999992
0.999999
0.999997
0.999996
0.999993
0.99999
0.999985
0.999979
0.999972
0.999961
0.999954
0.999948
0.999955
0.999953
0.99993
0.999949
0.999968
0.999914
0.999919
0.999919
0.999921
0.999924
0.999929
0.999936
0.999943
0.999952
0.999961
0.99997
0.999979
0.999986
0.999992
0.999996
0.999999
1
1
1
1
1
1
1
1
1
1
1
1
0.80715
0.869314
1
1
1
1
0.996369
1
1
1
1
0.0149711
0.131571
0.347187
0.606564
0.822706
0.941967
0.986221
0.997697
0.999738
0.99998
0.999999
1
1
1
1
1
1
1
1
0.999994
0.999856
0.998196
0.987405
0.950618
0.870592
0.738971
0.538915
0.0349283
0.949704
0.999999
0.999982
0.999997
0.999996
0.999993
0.99999
0.999986
0.99998
0.999973
0.999964
0.999953
0.999947
0.999942
0.999951
0.999949
0.999929
0.99995
0.99996
0.999912
0.999918
0.99992
0.999923
0.999928
0.999935
0.999942
0.999951
0.99996
0.999969
0.999978
0.999986
0.999992
0.999996
0.999998
0.999999
1
1
1
1
1
1
1
1
1
1
1
0.753911
0.987717
1
1
1
1
1
0.924152
1
1
1
1
0.0153336
0.134798
0.356055
0.620526
0.833511
0.947631
0.988289
0.998128
0.999797
0.999985
0.999999
1
1
1
1
1
1
1
1
0.999995
0.999885
0.998573
0.990035
0.957619
0.885679
0.770341
0.61418
0.408958
0.105866
0.962355
0.999999
0.999964
0.999996
0.999994
0.999991
0.999987
0.999981
0.999975
0.999966
0.999956
0.999945
0.99994
0.999937
0.999948
0.999945
0.99993
0.999951
0.999952
0.999912
0.999919
0.999922
0.999927
0.999934
0.999941
0.99995
0.999959
0.999968
0.999977
0.999985
0.999991
0.999995
0.999998
0.999999
1
1
1
1
1
1
1
1
1
1
1
0.917848
0.972168
1
1
1
0.999732
0.999795
0.999999
1
1
1
1
1
0.0156736
0.138003
0.364084
0.632954
0.844254
0.952944
0.989915
0.9985
0.999846
0.999989
0.999999
1
1
1
1
1
1
1
1
0.999996
0.999906
0.998822
0.991778
0.964826
0.898838
0.793399
0.657002
0.493015
0.29487
0.169771
0.97374
1
0.99993
0.999994
0.999991
0.999987
0.999982
0.999976
0.999968
0.999959
0.999948
0.999936
0.999933
0.999933
0.999945
0.999942
0.999931
0.999952
0.999945
0.999914
0.999922
0.999926
0.999933
0.99994
0.999949
0.999958
0.999967
0.999976
0.999984
0.99999
0.999995
0.999998
0.999999
1
1
1
1
1
1
1
1
1
1
1
1
0.484243
1
1
1
0.999996
0.652752
1
0.99891
1
1
1
1
1
0.01599
0.140962
0.3719
0.643509
0.853825
0.957809
0.99139
0.99879
0.999885
0.999993
1
1
1
1
1
1
1
1
1
0.999997
0.999926
0.99901
0.992986
0.969871
0.912528
0.812529
0.686627
0.544832
0.384092
0.161936
0.228783
0.982876
1
0.999877
0.999991
0.999987
0.999982
0.999977
0.99997
0.999961
0.999951
0.99994
0.999929
0.999928
0.999931
0.999943
0.999941
0.999933
0.999953
0.999941
0.999917
0.999926
0.999932
0.999939
0.999948
0.999957
0.999966
0.999975
0.999983
0.99999
0.999994
0.999997
0.999999
1
1
1
1
1
1
1
1
1
1
1
1
0.999932
1
1
1
1
1
1
0.99996
0.989834
1
1
1
1
1
0.0162843
0.143721
0.379045
0.653916
0.862169
0.961874
0.992699
0.999029
0.999914
0.999995
1
1
1
1
1
1
1
1
1
0.999998
0.999945
0.999194
0.993935
0.973544
0.922565
0.832511
0.710137
0.578964
0.442156
0.289972
0.0753952
0.28468
0.989853
1
0.999798
0.999987
0.999983
0.999977
0.999971
0.999963
0.999953
0.999943
0.999932
0.999922
0.999924
0.999929
0.999942
0.99994
0.999935
0.999955
0.999937
0.999922
0.999931
0.999938
0.999947
0.999956
0.999965
0.999974
0.999982
0.999989
0.999994
0.999997
0.999999
1
1
1
1
1
1
1
1
1
1
1
1
1
1
1
1
1
0.999984
0.69858
1
1
1
1
0.999963
1
1
1
0.0165674
0.146286
0.385723
0.663219
0.869706
0.965388
0.993703
0.999222
0.999935
0.999996
1
1
1
1
1
1
1
1
1
0.999999
0.99996
0.99937
0.994885
0.976512
0.930262
0.847591
0.734301
0.604853
0.479093
0.352035
0.209637
0.0220524
0.339724
0.994463
1
0.999687
0.999983
0.999978
0.999971
0.999964
0.999956
0.999946
0.999935
0.999924
0.999917
0.999921
0.999929
0.999942
0.999941
0.999939
0.999957
0.999936
0.999929
0.999937
0.999946
0.999955
0.999964
0.999973
0.999981
0.999988
0.999993
0.999997
0.999999
1
1
1
1
1
1
1
1
1
1
1
1
0.99359
1
1
1
1
1
0.959209
1
1
1
1
1
0.33655
1
1
1
0.0168459
0.148747
0.391841
0.671801
0.876281
0.968392
0.994528
0.999366
0.999952
0.999998
1
1
1
1
1
1
1
1
1
0.999999
0.999973
0.999529
0.995838
0.979547
0.936591
0.859645
0.752944
0.630748
0.505893
0.39058
0.274404
0.141057
0.0125771
0.39904
0.997272
1
0.999547
0.999978
0.999972
0.999965
0.999957
0.999948
0.999938
0.999927
0.999918
0.999913
0.99992
0.99993
0.999943
0.999943
0.999943
0.999958
0.999936
0.999936
0.999945
0.999954
0.999963
0.999972
0.999981
0.999988
0.999993
0.999997
0.999999
1
1
1
1
1
1
1
1
1
1
1
1
1
1
1
1
0.999385
1
1
0.999364
0.999999
0.998244
0.993396
0.99988
1
1
1
1
1
0.0170565
0.151138
0.397682
0.679495
0.882187
0.970917
0.995207
0.999478
0.999963
0.999998
1
1
1
1
1
1
1
1
1
0.999999
0.999982
0.99966
0.996738
0.982705
0.94319
0.869805
0.768285
0.65094
0.531662
0.417603
0.313881
0.207573
0.0819868
0.0468269
0.46486
0.998804
1
0.999377
0.999973
0.999966
0.999958
0.99995
0.999941
0.999931
0.999921
0.999913
0.999912
0.999921
0.999932
0.999944
0.999946
0.999948
0.999961
0.999939
0.999944
0.999953
0.999962
0.999972
0.99998
0.999987
0.999992
0.999996
0.999998
1
1
1
1
1
1
1
1
1
1
1
1
1
0.950577
1
1
1
1
1
0.995897
0.636856
0.328845
0.999957
1
1
1
1
1
1
1
0.0172073
0.152969
0.403223
0.686691
0.887325
0.973098
0.995752
0.999565
0.999972
0.999999
1
1
1
1
1
1
1
1
1
1
0.999988
0.999761
0.997526
0.985848
0.950327
0.88062
0.781512
0.667897
0.551699
0.442186
0.340857
0.247814
0.149597
0.0303609
0.083403
0.537852
0.999543
1
0.99919
0.999967
0.999959
0.999951
0.999943
0.999934
0.999924
0.999915
0.999911
0.999912
0.999923
0.999935
0.999947
0.99995
0.999953
0.999963
0.999943
0.999953
0.999961
0.999971
0.999979
0.999986
0.999992
0.999996
0.999998
0.999999
1
1
1
1
1
1
1
1
1
1
1
1
1
1
1
0.999998
1
1
0.993016
0.999065
0.997905
1
0.996376
1
1
1
1
1
1
1
0.0173643
0.154268
0.407507
0.693318
0.891987
0.974944
0.996205
0.999632
0.999978
0.999999
1
1
1
1
1
1
1
1
1
1
0.999992
0.999836
0.998168
0.988749
0.957747
0.892623
0.795835
0.682883
0.568922
0.461041
0.363862
0.274667
0.190636
0.0985051
0.0155608
0.121506
0.617578
0.999851
1
0.998992
0.99996
0.999953
0.999944
0.999936
0.999927
0.999918
0.999912
0.99991
0.999914
0.999927
0.999939
0.99995
0.999954
0.999958
0.999966
0.99995
0.999962
0.99997
0.999978
0.999986
0.999992
0.999996
0.999998
0.999999
1
1
1
1
1
1
1
1
1
1
1
1
0.997188
1
1
0.996634
1
0.951926
0.999987
0.999429
1
0.999912
1
1
1
1
1
1
1
1
1
0.0175032
0.155586
0.410523
0.698337
0.896115
0.976546
0.996573
0.999684
0.999982
0.999999
1
1
1
1
1
1
1
1
1
1
0.999994
0.999883
0.99868
0.991246
0.964943
0.905495
0.812053
0.699127
0.58433
0.477646
0.381099
0.295953
0.217688
0.140577
0.0525228
0.0572756
0.161053
0.701846
0.999959
1
0.998799
0.999954
0.999946
0.999938
0.99993
0.999922
0.999914
0.99991
0.999911
0.999918
0.999932
0.999944
0.999954
0.999959
0.999963
0.99997
0.999957
0.99997
0.999978
0.999985
0.999991
0.999995
0.999998
0.999999
1
1
1
1
1
1
1
1
1
1
1
1
1
1
1
1
1
0.999688
0.875386
0.762009
0.999975
1
0.999995
1
1
1
1
1
1
1
1
1
0.0176159
0.156719
0.413467
0.701905
0.899183
0.977917
0.996882
0.999725
0.999985
0.999999
1
1
1
1
1
1
1
1
1
1
0.999995
0.999914
0.999017
0.993358
0.971455
0.918564
0.829934
0.717901
0.601091
0.492483
0.396518
0.311596
0.237355
0.168252
0.0960867
0.010134
0.097011
0.205581
0.787555
0.999991
1
0.998631
0.999947
0.999939
0.999932
0.999924
0.999917
0.999912
0.99991
0.999914
0.999923
0.999938
0.999949
0.999958
0.999964
0.999968
0.999974
0.999966
0.999978
0.999985
0.999991
0.999995
0.999998
0.999999
1
1
1
1
1
1
1
1
1
1
1
1
1
1
1
1
0.994424
0.999498
0.999888
0.994942
0.999996
0.999873
0.673885
0.99857
0.999978
0.492106
1
1
1
1
1
1
1
0.0177006
0.15761
0.415934
0.70525
0.901359
0.978928
0.997134
0.999757
0.999988
1
1
1
1
1
1
1
1
1
1
1
0.999996
0.999932
0.99925
0.994837
0.97726
0.93101
0.848791
0.739192
0.620665
0.508787
0.410471
0.325762
0.251399
0.186429
0.124812
0.0558889
0.0291334
0.136739
0.277308
0.863721
0.999998
1
0.998496
0.999941
0.999933
0.999926
0.99992
0.999915
0.999911
0.999912
0.999918
0.999929
0.999944
0.999954
0.999963
0.999969
0.999973
0.999979
0.999974
0.999985
0.99999
0.999995
0.999998
0.999999
1
1
1
1
1
1
1
1
1
1
1
1
1
1
1
1
0.99995
0.445604
0.377562
0.178523
0.763766
0.934448
0.99995
0.567929
1
1
1
1
1
1
1
1
1
1
0.0177606
0.158255
0.417794
0.70799
0.90331
0.979629
0.997316
0.999783
0.999989
1
1
1
1
1
1
1
1
1
1
1
0.999997
0.999944
0.9994
0.995914
0.981578
0.942649
0.867471
0.762202
0.643348
0.528004
0.425736
0.338666
0.26424
0.199001
0.141541
0.0859505
0.0190524
0.0654955
0.177407
0.355669
0.920637
1
1
0.998423
0.999935
0.999928
0.999922
0.999917
0.999914
0.999912
0.999916
0.999925
0.999937
0.99995
0.99996
0.999968
0.999974