/*--------------------------------*- C++ -*----------------------------------*\
| =========                 |                                                 |
| \\      /  F ield         | OpenFOAM: The Open Source CFD Toolbox           |
|  \\    /   O peration     | Version:  v2012                                 |
|   \\  /    A nd           | Website:  www.openfoam.com                      |
|    \\/     M anipulation  |                                                 |
\*---------------------------------------------------------------------------*/
FoamFile
{
    version     2.0;
    format      ascii;
    class       volScalarField;
    location    "2000";
    object      rho;
}
// * * * * * * * * * * * * * * * * * * * * * * * * * * * * * * * * * * * * * //

dimensions      [1 -3 0 0 0 0 0];


internalField   nonuniform List<scalar> 
31383
(
0.301925
0.301479
0.30243
0.301161
0.301904
0.303017
0.301032
0.301569
0.302423
0.303697
0.300989
0.301425
0.302064
0.30305
0.304484
0.300925
0.301373
0.301902
0.302659
0.303804
0.305402
0.300829
0.301299
0.301835
0.302473
0.303373
0.304709
0.30647
0.300769
0.301195
0.30175
0.302388
0.303156
0.304228
0.305798
0.307717
0.300761
0.301129
0.301635
0.302288
0.303049
0.303973
0.305254
0.307108
0.309177
0.300729
0.301115
0.301561
0.302161
0.302929
0.303837
0.304951
0.306485
0.308681
0.310895
0.300632
0.301078
0.301539
0.302075
0.302786
0.303694
0.30478
0.306124
0.307961
0.310562
0.312928
0.30046
0.300976
0.301496
0.302044
0.302686
0.30353
0.304608
0.305908
0.307528
0.309719
0.312768
0.315425
0.300228
0.3008
0.301388
0.301992
0.302643
0.303413
0.304419
0.305701
0.307259
0.3092
0.311787
0.315312
0.318389
0.299966
0.300565
0.301206
0.301877
0.302581
0.303357
0.304281
0.305482
0.307009
0.308868
0.311171
0.314178
0.318181
0.321875
0.299729
0.300299
0.300966
0.301689
0.302457
0.303282
0.304207
0.305318
0.306752
0.308566
0.310764
0.313451
0.31688
0.321347
0.326145
0.299513
0.300058
0.300695
0.301442
0.30226
0.303146
0.304116
0.305222
0.306558
0.308266
0.310401
0.312959
0.316032
0.319867
0.324784
0.330945
0.299329
0.299839
0.300451
0.301166
0.302006
0.302939
0.303967
0.305113
0.306435
0.308033
0.310054
0.312528
0.31545
0.318891
0.323112
0.328477
0.336389
0.299183
0.299653
0.300228
0.300916
0.301723
0.302676
0.303747
0.304946
0.306303
0.307879
0.309774
0.312125
0.314945
0.318213
0.321999
0.326596
0.332403
0.342466
0.299066
0.299505
0.300039
0.300689
0.301467
0.302384
0.303472
0.304711
0.306116
0.307719
0.309583
0.311795
0.314478
0.31763
0.321218
0.325339
0.330298
0.336522
0.349071
0.298979
0.299386
0.299887
0.300496
0.301234
0.30212
0.30317
0.304422
0.305862
0.307508
0.309391
0.311562
0.314097
0.317096
0.320552
0.324449
0.32889
0.334181
0.3408
0.356087
0.29892
0.299297
0.299766
0.30034
0.301036
0.30188
0.302897
0.304107
0.305556
0.307234
0.309151
0.311336
0.313817
0.316657
0.319947
0.323694
0.327888
0.33262
0.338212
0.345208
0.363422
0.298883
0.299236
0.299675
0.300215
0.300875
0.301675
0.302648
0.303822
0.305225
0.306905
0.308851
0.311061
0.313552
0.316329
0.319449
0.323014
0.327041
0.331504
0.336494
0.342357
0.349722
0.37109
0.298863
0.299198
0.299612
0.300121
0.300746
0.30151
0.302436
0.303563
0.304926
0.306556
0.308498
0.310732
0.313241
0.316022
0.31907
0.322454
0.326284
0.330562
0.33526
0.34048
0.346591
0.354324
0.379147
0.298855
0.299177
0.299572
0.300056
0.300649
0.301376
0.302263
0.303342
0.304655
0.30624
0.308127
0.310353
0.312879
0.315672
0.318719
0.322021
0.325658
0.329726
0.334224
0.339128
0.344552
0.350892
0.359002
0.387572
0.298851
0.299167
0.299548
0.300013
0.30058
0.301273
0.302123
0.30316
0.304422
0.305954
0.307792
0.309957
0.312472
0.315277
0.31833
0.321624
0.325169
0.329032
0.333307
0.337994
0.343079
0.348688
0.355246
0.363755
0.396329
0.298847
0.299162
0.299537
0.299988
0.300534
0.301201
0.302015
0.303013
0.304231
0.305707
0.307489
0.3096
0.312048
0.314838
0.317899
0.321194
0.324723
0.328485
0.332544
0.336996
0.341848
0.347093
0.352874
0.359651
0.368584
0.405394
0.298846
0.299157
0.299531
0.299974
0.300506
0.301151
0.301937
0.302898
0.304074
0.305504
0.307226
0.309277
0.311666
0.314386
0.317428
0.320726
0.324249
0.327989
0.331939
0.336164
0.340767
0.345763
0.351155
0.357105
0.364121
0.373506
0.414754
0.298851
0.299155
0.299525
0.299966
0.300491
0.30112
0.301884
0.302815
0.303951
0.305337
0.307008
0.308996
0.311322
0.313978
0.316946
0.32022
0.323742
0.327471
0.331391
0.335499
0.339866
0.3446
0.349725
0.355259
0.361394
0.368673
0.378541
0.424408
0.298863
0.299159
0.299521
0.299959
0.30048
0.301102
0.301848
0.302755
0.30386
0.305204
0.306828
0.308763
0.311021
0.313611
0.316512
0.319708
0.323201
0.326925
0.330829
0.3349
0.339141
0.343627
0.348478
0.353727
0.359417
0.365756
0.373312
0.383706
0.434388
0.298884
0.299171
0.299525
0.299954
0.300471
0.301089
0.301826
0.302715
0.303795
0.305105
0.306684
0.308568
0.310771
0.313289
0.31612
0.319245
0.322656
0.326347
0.330242
0.334293
0.338491
0.342843
0.347434
0.352395
0.35778
0.363643
0.370196
0.378044
0.389014
0.444782
0.298916
0.299191
0.299535
0.299956
0.300464
0.301077
0.30181
0.302689
0.303749
0.305031
0.306575
0.308411
0.31056
0.31302
0.315777
0.318829
0.322165
0.325768
0.329627
0.333665
0.337837
0.34214
0.346589
0.351279
0.35636
0.361897
0.367942
0.374719
0.382876
0.394481
0.455749
0.298961
0.299222
0.299554
0.299965
0.300464
0.301067
0.301795
0.302669
0.303717
0.304978
0.306492
0.308289
0.310389
0.312792
0.315488
0.318462
0.321721
0.325247
0.329015
0.333013
0.337168
0.341441
0.345834
0.350372
0.355169
0.360386
0.366083
0.372317
0.379328
0.387816
0.400126
0.467363
0.299017
0.299266
0.299585
0.299983
0.300472
0.301066
0.301783
0.30265
0.303692
0.30494
0.30643
0.308196
0.310254
0.312606
0.315243
0.318153
0.321331
0.324777
0.328464
0.332368
0.336479
0.340731
0.345088
0.349563
0.354199
0.359118
0.364478
0.370341
0.376773
0.38403
0.392873
0.405971
0.479299
0.299082
0.299322
0.299628
0.300012
0.300488
0.301071
0.301779
0.302635
0.303669
0.304909
0.306385
0.308125
0.310149
0.312457
0.315041
0.317889
0.321001
0.324362
0.327967
0.331786
0.3358
0.340005
0.344336
0.348771
0.353335
0.358082
0.36313
0.368639
0.374676
0.381315
0.388833
0.398059
0.412044
0.49129
0.299152
0.299386
0.299683
0.300054
0.300517
0.301086
0.301782
0.302627
0.303649
0.30488
0.306347
0.308071
0.310068
0.31234
0.314877
0.31767
0.320717
0.32401
0.327527
0.331261
0.335188
0.339291
0.343573
0.347977
0.352494
0.35716
0.362026
0.367209
0.372874
0.379092
0.385949
0.393744
0.403385
0.418373
0.503714
0.299224
0.299456
0.299746
0.300109
0.300557
0.301113
0.301795
0.302627
0.303638
0.304856
0.306312
0.308025
0.310004
0.312247
0.314747
0.317492
0.320481
0.323706
0.327153
0.330797
0.334636
0.338649
0.342826
0.347176
0.351657
0.35627
0.361047
0.366036
0.371359
0.377185
0.383594
0.390682
0.398771
0.408866
0.424999
0.516973
0.299296
0.299528
0.299815
0.300171
0.300611
0.301152
0.30182
0.302638
0.303635
0.30484
0.306282
0.307984
0.30995
0.312174
0.314642
0.317347
0.320286
0.323452
0.326829
0.3304
0.334147
0.33807
0.342153
0.346394
0.350817
0.355388
0.360105
0.364996
0.370113
0.375583
0.381579
0.388189
0.395519
0.403924
0.414518
0.431967
0.53124
0.299335
0.299599
0.299887
0.300239
0.300672
0.301204
0.301857
0.30266
0.303642
0.304833
0.306261
0.307947
0.3099
0.31211
0.314558
0.317231
0.320127
0.323241
0.326556
0.330056
0.333728
0.337556
0.341546
0.345691
0.35
0.354508
0.359177
0.364001
0.369011
0.374263
0.379886
0.386061
0.392882
0.40047
0.409213
0.420359
0.439356
0.546716
0.299681
0.299637
0.299957
0.30031
0.300739
0.301265
0.301908
0.302695
0.303661
0.304836
0.306249
0.30792
0.309856
0.312052
0.314485
0.317135
0.319998
0.323068
0.326329
0.329765
0.333363
0.337113
0.341007
0.345055
0.349265
0.353655
0.358256
0.363027
0.367962
0.373096
0.378488
0.384273
0.390637
0.39768
0.405543
0.41465
0.426413
0.447269
0.563626
0.299893
0.299983
0.299995
0.30038
0.300809
0.30133
0.301966
0.302744
0.303694
0.304852
0.306248
0.307902
0.309822
0.312
0.314418
0.317052
0.31989
0.322925
0.32614
0.329521
0.333054
0.336729
0.340542
0.344491
0.348601
0.352887
0.357366
0.362063
0.366939
0.37199
0.377255
0.382795
0.388749
0.395312
0.402592
0.410746
0.420248
0.432705
0.455821
0.582241
0.299674
0.300247
0.30034
0.300417
0.300878
0.301399
0.302031
0.302801
0.30374
0.304882
0.30626
0.307896
0.309798
0.311959
0.314358
0.316975
0.319796
0.322805
0.325984
0.329318
0.332793
0.336401
0.340137
0.344004
0.348011
0.352193
0.356564
0.361135
0.365931
0.370918
0.376091
0.381492
0.387189
0.393322
0.400094
0.407625
0.41609
0.426023
0.439266
0.465146
0.602854
0.299637
0.299982
0.30069
0.300762
0.300915
0.301467
0.302098
0.302864
0.303795
0.304925
0.306285
0.307903
0.309786
0.311928
0.314309
0.316907
0.31971
0.3227
0.325852
0.329147
0.332574
0.336123
0.33979
0.343578
0.347499
0.351576
0.35584
0.360298
0.364964
0.369865
0.374967
0.380269
0.385814
0.391674
0.397996
0.40499
0.412787
0.421586
0.431991
0.446133
0.475406
0.625754
0.29994
0.299947
0.300354
0.301233
0.30126
0.301502
0.302165
0.302929
0.303856
0.304977
0.306326
0.307925
0.309789
0.31191
0.314271
0.31685
0.319632
0.322603
0.325736
0.329003
0.33239
0.335889
0.339495
0.343212
0.347052
0.351041
0.355196
0.359543
0.364092
0.368857
0.373868
0.379091
0.384528
0.390225
0.396258
0.402779
0.410008
0.418087
0.427247
0.438172
0.45335
0.486796
0.651122
0.299826
0.300263
0.300323
0.300799
0.301895
0.301848
0.302199
0.302994
0.303919
0.305035
0.306374
0.307961
0.309805
0.311907
0.314247
0.316805
0.319567
0.322516
0.325629
0.328875
0.332233
0.335691
0.339246
0.3429
0.346667
0.350572
0.354636
0.358871
0.363305
0.367949
0.372818
0.377944
0.383295
0.388874
0.394731
0.400946
0.407679
0.415156
0.423537
0.433087
0.444591
0.460971
0.499557
0.678803
0.299569
0.300139
0.300661
0.300775
0.301331
0.302697
0.302545
0.303027
0.303982
0.305097
0.306429
0.308006
0.309837
0.311919
0.314238
0.316774
0.319514
0.322442
0.325532
0.328758
0.332094
0.335522
0.339034
0.342635
0.346338
0.350167
0.354144
0.358285
0.362604
0.367129
0.371872
0.376851
0.382098
0.387583
0.393313
0.399338
0.405746
0.412701
0.420443
0.429148
0.439122
0.451275
0.469062
0.51397
0.708067
0.299535
0.299872
0.300518
0.301145
0.301315
0.301966
0.303669
0.303373
0.304014
0.305157
0.306488
0.308058
0.309878
0.311945
0.314244
0.316758
0.319476
0.322382
0.325449
0.328651
0.331966
0.335371
0.338852
0.342409
0.346057
0.349819
0.353719
0.357771
0.361992
0.366398
0.371018
0.375866
0.38096
0.386335
0.391962
0.397849
0.404053
0.410664
0.417856
0.425879
0.434932
0.44537
0.458257
0.477703
0.530337
0.737377
0.299508
0.299835
0.300232
0.300974
0.30173
0.301961
0.302724
0.304838
0.304359
0.305186
0.306546
0.308113
0.309926
0.311982
0.314266
0.316758
0.319453
0.322336
0.32538
0.32856
0.33185
0.335232
0.33869
0.342214
0.345816
0.349522
0.353353
0.357324
0.361454
0.365759
0.370257
0.374977
0.379935
0.385151
0.390661
0.396436
0.40249
0.408882
0.415709
0.423151
0.431475
0.440903
0.451853
0.465577
0.487008
0.548932
0.764571
0.299512
0.299806
0.300191
0.30066
0.301518
0.302434
0.302733
0.303629
0.306224
0.305532
0.306573
0.308167
0.309978
0.312026
0.314298
0.316775
0.319447
0.322306
0.325327
0.328483
0.331749
0.335106
0.33854
0.34204
0.345608
0.349266
0.353038
0.356939
0.360986
0.365196
0.36959
0.374184
0.37901
0.384085
0.389428
0.39508
0.401012
0.407242
0.413832
0.420887
0.428596
0.437242
0.447079
0.458596
0.473284
0.497168
0.569771
0.785023
0.299526
0.299809
0.300159
0.30061
0.301166
0.30217
0.303281
0.303656
0.30471
0.30781
0.306917
0.308192
0.310029
0.312075
0.314337
0.316802
0.319458
0.322294
0.325291
0.328422
0.331664
0.334997
0.338404
0.34188
0.345422
0.349045
0.352768
0.356608
0.360581
0.364706
0.369002
0.373489
0.378184
0.383122
0.388319
0.393798
0.399598
0.405696
0.412112
0.418912
0.426209
0.434203
0.443196
0.453477
0.465629
0.481437
0.508432
0.592382
0.797878
0.29952
0.299823
0.30016
0.300573
0.301105
0.301765
0.302949
0.304297
0.304758
0.305994
0.309569
0.308535
0.310051
0.312121
0.314381
0.316837
0.31948
0.322299
0.325272
0.328378
0.331595
0.334903
0.338286
0.341734
0.345251
0.348846
0.352532
0.356321
0.360232
0.364282
0.368489
0.372875
0.377459
0.382262
0.387317
0.392643
0.398264
0.404222
0.410495
0.417107
0.42413
0.431684
0.439983
0.44935
0.46012
0.472988
0.490111
0.521051
0.616079
0.806319
0.299527
0.299817
0.300173
0.300572
0.30106
0.30169
0.302477
0.303879
0.305504
0.306066
0.307506
0.31145
0.310391
0.31214
0.314424
0.316876
0.31951
0.322315
0.32527
0.328353
0.331544
0.334826
0.338184
0.341606
0.345095
0.348664
0.352321
0.356072
0.359929
0.363914
0.368044
0.372338
0.376819
0.381506
0.386422
0.391601
0.397063
0.402834
0.408958
0.415416
0.422235
0.429494
0.437323
0.445948
0.455722
0.467032
0.480717
0.499395
0.535294
0.640975
0.812658
0.299517
0.299823
0.300167
0.300584
0.301056
0.301634
0.302383
0.303325
0.304985
0.306915
0.307602
0.309256
0.313409
0.312477
0.314439
0.316915
0.319545
0.32234
0.325281
0.328345
0.331512
0.334768
0.338099
0.341496
0.344958
0.348498
0.352127
0.355847
0.359665
0.363595
0.367657
0.371871
0.376258
0.380838
0.385635
0.390669
0.395979
0.401584
0.407513
0.413812
0.420465
0.427504
0.435014
0.443137
0.452115
0.462332
0.474245
0.488867
0.509401
0.551451
0.667349
0.817519
0.299514
0.299813
0.300172
0.300577
0.301066
0.301626
0.302313
0.303206
0.304334
0.306288
0.308526
0.309375
0.311237
0.315415
0.314772
0.316926
0.319578
0.32237
0.325301
0.32835
0.331499
0.33473
0.338034
0.341403
0.344838
0.348351
0.35195
0.355641
0.359427
0.363315
0.367321
0.371465
0.375768
0.380252
0.384937
0.389849
0.39501
0.400456
0.406213
0.412309
0.418793
0.425652
0.432924
0.440702
0.44914
0.458499
0.469204
0.481794
0.497504
0.520333
0.569858
0.695012
0.821202
0.299531
0.29981
0.300161
0.300581
0.301058
0.301634
0.302301
0.303121
0.304186
0.305531
0.307797
0.310319
0.311378
0.313434
0.317458
0.317252
0.319586
0.322399
0.325326
0.328364
0.331498
0.334709
0.337988
0.341331
0.344738
0.348222
0.351793
0.355453
0.359209
0.363064
0.367026
0.371111
0.375342
0.379739
0.384325
0.389122
0.394155
0.399448
0.40504
0.410956
0.417227
0.423906
0.430985
0.438505
0.446569
0.455346
0.46512
0.476365
0.489723
0.50671
0.532495
0.590877
0.723529
0.824167
0.299533
0.299827
0.300158
0.30057
0.301061
0.301625
0.302306
0.303102
0.304081
0.30535
0.306941
0.309508
0.312264
0.313593
0.315814
0.319537
0.319905
0.322403
0.32535
0.328384
0.331506
0.334703
0.337962
0.341278
0.344658
0.348113
0.351655
0.355286
0.35901
0.362833
0.36676
0.3708
0.37497
0.379292
0.383789
0.388482
0.393397
0.398558
0.40399
0.409735
0.415819
0.422276
0.429162
0.436472
0.444257
0.452628
0.461771
0.472001
0.483847
0.498084
0.516585
0.546218
0.614791
0.751955
0.826982
0.300365
0.299828
0.300174
0.300566
0.301049
0.301627
0.302296
0.303104
0.304055
0.305223
0.306722
0.308577
0.311406
0.314341
0.315992
0.318355
0.321662
0.322712
0.325349
0.328403
0.331521
0.334706
0.337949
0.341245
0.344598
0.348025
0.351538
0.355139
0.358832
0.362622
0.366516
0.37052
0.374642
0.378901
0.38332
0.387922
0.392729
0.397767
0.403063
0.408643
0.414548
0.42081
0.427464
0.434569
0.442126
0.450193
0.458895
0.468437
0.479168
0.491691
0.506943
0.527255
0.561847
0.641521
0.778666
0.829374
0.368617
0.300625
0.300175
0.300582
0.301044
0.301613
0.302296
0.303091
0.304053
0.305188
0.306571
0.308319
0.310441
0.313474
0.316537
0.318556
0.321041
0.323842
0.325649
0.328399
0.331534
0.334715
0.337946
0.341226
0.344558
0.347958
0.351442
0.355013
0.358675
0.362434
0.366293
0.370262
0.374347
0.378556
0.38291
0.387431
0.392143
0.39707
0.402239
0.407676
0.413411
0.419487
0.425937
0.432798
0.440136
0.447956
0.456327
0.465386
0.475364
0.486652
0.499943
0.516381
0.538937
0.57974
0.670268
0.801347
0.830979
0.539683
0.36815
0.300929
0.300581
0.30106
0.301607
0.30228
0.303089
0.304038
0.305181
0.306527
0.308147
0.310145
0.31252
0.315695
0.318846
0.32128
0.323846
0.326091
0.328687
0.331526
0.334723
0.33795
0.341218
0.344533
0.347912
0.351367
0.354909
0.35854
0.362267
0.366094
0.370027
0.374075
0.378245
0.382547
0.387
0.391628
0.396457
0.401511
0.406817
0.412405
0.418303
0.424559
0.431207
0.438289
0.445874
0.453976
0.462674
0.472121
0.482578
0.49449
0.50866
0.5265
0.551969
0.600269
0.70019
0.816244
0.831761
0.595668
0.538576
0.367705
0.301285
0.301058
0.301622
0.302273
0.303071
0.304033
0.305162
0.306514
0.308091
0.309957
0.312191
0.314793
0.318052
0.321265
0.324133
0.326744
0.328422
0.331801
0.334711
0.337953
0.341216
0.344519
0.34788
0.351314
0.354826
0.358427
0.362122
0.365917
0.369816
0.373827
0.377959
0.38222
0.386619
0.391176
0.395918
0.40087
0.406058
0.411509
0.417254
0.423326
0.429771
0.436629
0.443946
0.451795
0.4602
0.469251
0.479123
0.490112
0.502727
0.517916
0.537429
0.566747
0.623828
0.73091
0.823124
0.83192
0.623549
0.595766
0.537514
0.36731
0.301701
0.301619
0.302287
0.303063
0.304012
0.305154
0.306492
0.308073
0.30989
0.311994
0.314437
0.317236
0.320529
0.323814
0.32709
0.329703
0.330848
0.334972
0.337936
0.341213
0.344512
0.34786
0.351276
0.354766
0.358337
0.362001
0.365762
0.369628
0.373605
0.377698
0.381919
0.386275
0.390776
0.395445
0.400307
0.405388
0.410716
0.416321
0.422233
0.428487
0.435133
0.442214
0.44978
0.457912
0.466643
0.476078
0.486418
0.498
0.511417
0.527796
0.549367
0.583699
0.650724
0.760887
0.826857
0.831709
0.636915
0.623803
0.59587
0.536519
0.366955
0.302191
0.302282
0.303076
0.304002
0.305131
0.30648
0.308047
0.309866
0.311917
0.314237
0.316862
0.319833
0.323126
0.326501
0.330124
0.332704
0.333384
0.338182
0.341192
0.344503
0.347847
0.351249
0.354721
0.358269
0.361902
0.365632
0.369464
0.373406
0.377463
0.381644
0.385958
0.390415
0.395025
0.39981
0.404798
0.410017
0.415493
0.421259
0.427347
0.433794
0.440654
0.447972
0.455805
0.464241
0.473325
0.48318
0.494038
0.506288
0.520628
0.538414
0.562641
0.603276
0.680646
0.787633
0.829169
0.831233
0.645535
0.637258
0.624061
0.595984
0.535575
0.366645
0.302768
0.303069
0.304013
0.305119
0.306453
0.308032
0.309837
0.311887
0.314152
0.316665
0.319451
0.322568
0.325847
0.329294
0.333213
0.33573
0.336052
0.341423
0.344478
0.347833
0.351231
0.354688
0.358217
0.361827
0.365525
0.369324
0.373231
0.377253
0.381396
0.385669
0.390082
0.394645
0.399369
0.404278
0.409399
0.414762
0.420395
0.42633
0.432605
0.439257
0.446344
0.453915
0.462033
0.470798
0.480266
0.490584
0.502019
0.51503
0.530443
0.549912
0.577668
0.625905
0.711908
0.808799
0.830365
0.830481
0.65156
0.645929
0.637605
0.624323
0.596107
0.534674
0.36638
0.303451
0.304005
0.305128
0.306439
0.308
0.309817
0.311854
0.314116
0.316571
0.319262
0.322188
0.325419
0.328668
0.332168
0.33634
0.338785
0.338873
0.344693
0.347803
0.35121
0.354663
0.358177
0.361768
0.365442
0.369209
0.373082
0.377068
0.381174
0.385408
0.389778
0.394296
0.39897
0.403815
0.408854
0.414115
0.41963
0.425428
0.431544
0.438016
0.444886
0.452214
0.460056
0.468482
0.477602
0.487491
0.498322
0.510408
0.524291
0.540964
0.562528
0.594906
0.651865
0.743246
0.821721
0.830504
0.829896
0.656581
0.651984
0.646326
0.637957
0.624593
0.59624
0.533811
0.366165
0.304261
0.305117
0.306447
0.307984
0.309782
0.31183
0.31408
0.316531
0.319161
0.322013
0.325047
0.328361
0.331562
0.335105
0.339493
0.341874
0.341838
0.348002
0.351176
0.354637
0.358147
0.361721
0.365375
0.369118
0.372958
0.376909
0.380979
0.385174
0.389504
0.393976
0.398604
0.403397
0.408369
0.413544
0.418954
0.424629
0.430602
0.436909
0.44359
0.450691
0.458277
0.46641
0.475168
0.484676
0.495029
0.506433
0.519258
0.534152
0.552325
0.576637
0.614856
0.681115
0.773676
0.827111
0.830428
0.829561
0.660595
0.657015
0.65241
0.646726
0.63832
0.624876
0.596387
0.532988
0.366017
0.305223
0.306432
0.30799
0.309763
0.31179
0.314052
0.316492
0.319117
0.321908
0.324891
0.328003
0.331371
0.334509
0.338095
0.34267
0.345003
0.344924
0.351358
0.354598
0.358114
0.361684
0.365322
0.369043
0.372858
0.376776
0.380809
0.384967
0.389257
0.393688
0.398269
0.403012
0.40793
0.413036
0.418355
0.423921
0.429766
0.435924
0.442433
0.449336
0.456684
0.464546
0.472993
0.482113
0.492046
0.502914
0.514963
0.528636
0.544716
0.564718
0.592694
0.638026
0.712784
0.799704
0.829087
0.83022
0.829328
0.664077
0.661043
0.657451
0.652841
0.647138
0.638698
0.625176
0.596549
0.532201
0.36594
0.306362
0.307972
0.309766
0.311768
0.314008
0.31646
0.319076
0.32186
0.324784
0.32787
0.331034
0.334426
0.337496
0.341133
0.345883
0.34817
0.348112
0.354763
0.358071
0.361645
0.365278
0.368982
0.372776
0.376667
0.380666
0.384787
0.389038
0.393428
0.397966
0.40266
0.407526
0.412575
0.417822
0.423294
0.429025
0.435049
0.441403
0.448127
0.455267
0.462879
0.471039
0.479826
0.48934
0.499743
0.511187
0.52397
0.538626
0.556111
0.578473
0.611209
0.664773
0.744929
0.817672
0.829638
0.830085
0.829126
0.667093
0.664536
0.661494
0.657893
0.653282
0.647565
0.639098
0.625497
0.59673
0.531461
0.365957
0.307698
0.309744
0.31177
0.313984
0.316413
0.319039
0.321817
0.324734
0.327764
0.330925
0.334117
0.337513
0.34052
0.344222
0.349135
0.351381
0.351395
0.358217
0.361596
0.365232
0.368932
0.372707
0.376576
0.380548
0.384634
0.388847
0.393197
0.397692
0.402342
0.407157
0.412152
0.417339
0.422735
0.428368
0.434273
0.440488
0.447049
0.454002
0.461396
0.469292
0.477773
0.48693
0.496877
0.507804
0.519898
0.533524
0.549331
0.568519
0.594039
0.632751
0.694897
0.775747
0.825821
0.829626
0.83003
0.82894
0.669813
0.667563
0.665
0.661952
0.658348
0.653741
0.648014
0.639524
0.625843
0.596933
0.530765
0.366083
0.309245
0.311745
0.313984
0.316386
0.318989
0.321777
0.324689
0.327713
0.330821
0.334035
0.337238
0.340626
0.343593
0.34737
0.352429
0.354638
0.354776
0.361724
0.365179
0.368879
0.37265
0.3765
0.38045
0.384507
0.388684
0.392995
0.397448
0.402054
0.406823
0.411764
0.416895
0.422228
0.427782
0.433585
0.439675
0.446091
0.452874
0.46007
0.467737
0.475939
0.48477
0.494332
0.504759
0.516272
0.529108
0.543711
0.560882
0.582255
0.61193
0.657847
0.727057
0.802284
0.828463
0.829579
0.830003
0.828797
0.672235
0.670292
0.668037
0.665471
0.662423
0.658821
0.654223
0.648491
0.639981
0.626221
0.597162
0.530134
0.366325
0.311008
0.313955
0.316384
0.318959
0.321723
0.324646
0.327666
0.330771
0.333936
0.337184
0.340385
0.343774
0.346721
0.350585
0.355768
0.357944
0.358255
0.365286
0.36882
0.372589
0.376435
0.380365
0.384399
0.388547
0.392821
0.397234
0.401797
0.40652
0.411413
0.416489
0.421763
0.42725
0.43297
0.438953
0.445239
0.451869
0.458888
0.466347
0.474306
0.48284
0.492052
0.502061
0.513025
0.525202
0.53889
0.554641
0.57347
0.597767
0.632737
0.686669
0.7593
0.819703
0.82908
0.829478
0.829973
0.828662
0.674421
0.672723
0.670777
0.66852
0.665956
0.662913
0.65932
0.654734
0.649001
0.640477
0.626637
0.597423
0.529569
0.366707
0.312979
0.316352
0.318955
0.321692
0.324589
0.327621
0.330723
0.333885
0.337092
0.34036
0.343564
0.346965
0.349906
0.353868
0.359151
0.361305
0.361832
0.368908
0.372526
0.376367
0.380293
0.384307
0.38843
0.392673
0.397049
0.401571
0.406249
0.411095
0.41612
0.421336
0.426762
0.432412
0.438308
0.444482
0.450976
0.457835
0.465107
0.472847
0.481123
0.490018
0.49965
0.510155
0.521722
0.534658
0.549339
0.56645
0.587419
0.615572
0.657059
0.718417
0.78929
0.826867
0.829186
0.829426
0.829951
0.828512
0.676369
0.674916
0.673217
0.67127
0.669018
0.666463
0.66343
0.65985
0.655281
0.649552
0.641017
0.627096
0.597719
0.52909
0.367222
0.315152
0.318921
0.321686
0.324556
0.327561
0.330674
0.333838
0.337042
0.340276
0.343564
0.346782
0.3502
0.353149
0.357219
0.362581
0.364726
0.36551
0.372591
0.376298
0.380217
0.384226
0.388329
0.392547
0.396891
0.401374
0.40601
0.41081
0.415786
0.42095
0.426315
0.431899
0.437722
0.443804
0.450181
0.456897
0.464001
0.471544
0.479588
0.488208
0.4975
0.507596
0.518657
0.53091
0.544721
0.560569
0.579354
0.603181
0.636273
0.685212
0.750813
0.812644
0.828718
0.829144
0.829423
0.82995
0.828325
0.678099
0.67687
0.675417
0.673719
0.67178
0.669538
0.666998
0.663981
0.660419
0.655871
0.650149
0.641606
0.627604
0.598054
0.528706
0.367868
0.317511
0.321648
0.32455
0.327527
0.330614
0.333789
0.336996
0.34023
0.343488
0.346805
0.350044
0.35348
0.356452
0.360641
0.366063
0.368212
0.369289
0.376341
0.380142
0.384142
0.38824
0.392437
0.396755
0.401205
0.405801
0.410557
0.415486
0.420599
0.425909
0.431431
0.437184
0.44319
0.44947
0.456063
0.463016
0.470382
0.478217
0.486591
0.495589
0.505317
0.515931
0.527621
0.54066
0.555493
0.572731
0.593704
0.621284
0.660493
0.716519
0.781947
0.824941
0.829039
0.82908
0.829441
0.829953
0.828107
0.679603
0.678605
0.677376
0.675927
0.674239
0.672313
0.670088
0.667568
0.664571
0.661034
0.65651
0.6508
0.642251
0.628164
0.598428
0.528432
0.36864
0.320034
0.324509
0.327519
0.330579
0.333726
0.336945
0.340184
0.343446
0.346737
0.35009
0.353352
0.356807
0.359817
0.364134
0.369598
0.371771
0.373172
0.380161
0.384061
0.388148
0.392339
0.396635
0.401059
0.405621
0.410336
0.415219
0.420282
0.42554
0.431004
0.436692
0.442625
0.448824
0.455315
0.462138
0.469346
0.476994
0.485147
0.493881
0.503293
0.513507
0.524703
0.53711
0.551061
0.567101
0.586078
0.609964
0.64235
0.688576
0.748833
0.808199
0.828256
0.829012
0.829082
0.829468
0.829954
0.827871
0.680898
0.680112
0.679116
0.677893
0.676455
0.674783
0.672876
0.670674
0.66818
0.66521
0.661702
0.657206
0.651508
0.642951
0.628776
0.598838
0.528272
0.369526
0.322715
0.327477
0.33057
0.333689
0.336882
0.340132
0.343401
0.346697
0.350031
0.35342
0.356706
0.360184
0.363247
0.367701
0.373191
0.375407
0.37716
0.384056
0.388061
0.392238
0.396529
0.400929
0.405464
0.410144
0.414984
0.420001
0.425207
0.430617
0.436245
0.442108
0.448231
0.454636
0.461352
0.468422
0.475903
0.483858
0.492356
0.501485
0.511356
0.522115
0.533972
0.547206
0.562225
0.579723
0.601006
0.628686
0.667008
0.71983
0.780378
0.823398
0.828862
0.828986
0.829099
0.829495
0.829944
0.827629
0.682002
0.681409
0.680627
0.679637
0.678427
0.677008
0.675359
0.673478
0.671304
0.668842
0.665904
0.66243
0.657964
0.652275
0.643703
0.629431
0.599271
0.528213
0.370509
0.325541
0.330526
0.33368
0.336843
0.340068
0.343346
0.346653
0.349994
0.35337
0.356796
0.360109
0.363615
0.366747
0.371343
0.376846
0.379129
0.381255
0.388028
0.392145
0.396418
0.400813
0.405323
0.409975
0.41478
0.419752
0.42491
0.430267
0.435837
0.441638
0.447688
0.454013
0.460638
0.467594
0.47493
0.482707
0.490993
0.49987
0.509436
0.51982
0.531195
0.543811
0.558008
0.574295
0.593663
0.618
0.650517
0.695533
0.752102
0.807601
0.82795
0.828861
0.828995
0.829118
0.829518
0.829928
0.827384
0.682932
0.682517
0.681927
0.681152
0.680177
0.678987
0.677592
0.675973
0.674125
0.671986
0.669562
0.66666
0.663222
0.658783
0.653097
0.644495
0.630115
0.599712
0.528238
0.371579
0.328494
0.333636
0.336833
0.340029
0.343282
0.346598
0.349952
0.353338
0.356757
0.36022
0.363564
0.367103
0.370319
0.375063
0.380567
0.382942
0.38546
0.392084
0.396319
0.400693
0.405198
0.409824
0.414599
0.419535
0.424647
0.429953
0.435469
0.44121
0.447194
0.453442
0.459982
0.466842
0.474057
0.48168
0.489778
0.498428
0.507722
0.517774
0.528736
0.540814
0.55431
0.569642
0.587502
0.609361
0.637644
0.676061
0.72704
0.783653
0.823427
0.828641
0.828853
0.829009
0.829133
0.829537
0.829908
0.827133
0.683712
0.68345
0.683037
0.682455
0.681696
0.680742
0.67958
0.678217
0.676634
0.674826
0.672729
0.670347
0.667484
0.66408
0.65966
0.653961
0.645308
0.630806
0.600144
0.528333
0.37273
0.331561
0.336789
0.340017
0.343241
0.346532
0.349896
0.353297
0.356729
0.360192
0.363695
0.367074
0.370652
0.373967
0.378863
0.384359
0.386855
0.389776
0.396227
0.400587
0.405068
0.409689
0.414437
0.419342
0.424416
0.429675
0.435138
0.440822
0.446744
0.452923
0.459382
0.466152
0.473265
0.480759
0.488692
0.49714
0.506191
0.515949
0.526547
0.538167
0.551054
0.565581
0.582283
0.602212
0.627336
0.660604
0.705389
0.75931
0.810433
0.827884
0.828698
0.828864
0.829019
0.829146
0.829557
0.829888
0.826769
0.684368
0.684233
0.683974
0.683569
0.683002
0.682265
0.68134
0.680213
0.67889
0.677351
0.675589
0.673539
0.671202
0.668375
0.664998
0.660579
0.654845
0.646117
0.631483
0.600549
0.528485
0.373952
0.334726
0.339973
0.343228
0.346491
0.349828
0.353241
0.356691
0.360169
0.36368
0.367224
0.370643
0.374268
0.377696
0.382746
0.388228
0.390872
0.394205
0.400462
0.404954
0.409548
0.414291
0.419168
0.42421
0.42943
0.434844
0.440474
0.446336
0.45245
0.458836
0.465521
0.472537
0.479922
0.487718
0.495991
0.504824
0.514318
0.524595
0.535813
0.548187
0.56202
0.577771
0.59623
0.618898
0.648216
0.687407
0.737201
0.790517
0.824755
0.828519
0.828682
0.828874
0.829025
0.829158
0.829581
0.829867
0.82636
0.684926
0.684893
0.684761
0.684509
0.68412
0.683576
0.682869
0.68198
0.680895
0.679619
0.678132
0.676421
0.674421
0.672127
0.669329
0.665959
0.661518
0.655722
0.646896
0.632124
0.600922
0.528676
0.375248
0.337977
0.343184
0.346478
0.349787
0.353172
0.356634
0.360135
0.363662
0.367222
0.370809
0.374274
0.377954
0.381511
0.386715
0.39218
0.395001
0.39875
0.404793
0.409427
0.41414
0.419011
0.424024
0.429211
0.434584
0.440163
0.445968
0.45202
0.458337
0.464945
0.471872
0.479154
0.486833
0.494959
0.503604
0.512862
0.522852
0.533716
0.545643
0.558894
0.573842
0.59112
0.611913
0.63813
0.672654
0.717767
0.769477
0.815352
0.828115
0.828578
0.828691
0.828877
0.829028
0.829179
0.829616
0.829827
0.825918
0.68541
0.685455
0.685425
0.6853
0.685064
0.684697
0.684183
0.683514
0.682669
0.681634
0.680413
0.678983
0.677328
0.675376
0.673116
0.670328
0.666941
0.662448
0.656566
0.647627
0.632719
0.601259
0.528901
0.376615
0.341306
0.346432
0.349773
0.35313
0.356565
0.360078
0.363631
0.367211
0.370822
0.374456
0.377971
0.381717
0.385415
0.390772
0.396221
0.399249
0.403412
0.409226
0.41401
0.418848
0.423855
0.429011
0.434351
0.439887
0.44564
0.451632
0.457885
0.46442
0.471265
0.478452
0.486022
0.494021
0.502508
0.511563
0.521297
0.531845
0.543377
0.556124
0.570406
0.586715
0.606006
0.629849
0.660577
0.700972
0.749866
0.799831
0.82637
0.828534
0.828581
0.828698
0.828876
0.829035
0.829214
0.82964
0.82976
0.825448
0.685846
0.685944
0.685991
0.685969
0.685859
0.685645
0.685309
0.684832
0.684209
0.683417
0.68244
0.681281
0.679911
0.678309
0.676395
0.674151
0.671349
0.667914
0.663341
0.657356
0.648297
0.633261
0.60156
0.529152
0.378054
0.344703
0.349727
0.353116
0.356522
0.360008
0.363575
0.367183
0.370818
0.374484
0.378166
0.381739
0.385561
0.389413