/*--------------------------------*- C++ -*----------------------------------*\
| =========                 |                                                 |
| \\      /  F ield         | OpenFOAM: The Open Source CFD Toolbox           |
|  \\    /   O peration     | Version:  v2012                                 |
|   \\  /    A nd           | Website:  www.openfoam.com                      |
|    \\/     M anipulation  |                                                 |
\*---------------------------------------------------------------------------*/
FoamFile
{
    version     2.0;
    format      ascii;
    class       volScalarField::Internal;
    location    "0";
    object      Rstream;
}
// * * * * * * * * * * * * * * * * * * * * * * * * * * * * * * * * * * * * * //

dimensions      [0 0 -1 0 0 0 0];


value           nonuniform List<scalar> 
31383
(
0
0
0
0
0
0
0
0
0
0
0
0
0
0
1.9514e-21
0
0
0
-2.29521e-25
0
-1.8413e-21
0
0
0
0
-1.75605e-25
2.1391e-25
0
0
0
0
0
0
0
3.64247e-25
0
0
0
0
0
0
0
0
4.14566e-25
0
0
0
0
0
0
2.13177e-25
0
0
-1.22792e-24
0
0
0
0
0
0
0
1.76169e-25
-3.69562e-25
0
0
0
0
0
0
0
0
0
0
0
-3.16918e-25
0
0
2.37399e-20
0
0
0
0
0
0
0
0
0
0
0
0
2.23136e-21
0
0
0
0
0
0
0
0
0
0
0
0
0
-1.96285e-20
0
0
0
0
0
0
0
0
0
0
0
4.54571e-24
0
3.71755e-23
2.02747e-20
0
0
0
0
0
0
0
0
0
0
0
0
4.09817e-24
0
-3.31913e-23
-1.77015e-20
0
0
0
0
0
0
0
0
0
0
0
0
0
0
0
3.21069e-23
1.84589e-20
0
0
0
0
0
0
0
0
0
0
0
0
0
0
0
0
3.20641e-23
-1.60595e-20
0
0
0
0
-1.2074e-25
-1.20506e-25
0
0
0
0
0
-3.11853e-24
0
0
0
0
0
1.49398e-23
0
0
0
0
0
0
-9.68221e-26
-9.95848e-26
0
0
0
0
0
-2.80509e-24
0
-4.47959e-24
0
0
0
7.09661e-24
2.86421e-20
0
0
0
0
0
0
0
0
0
0
0
0
0
0
0
-8.98402e-24
0
1.40254e-23
0
2.62335e-23
2.69311e-21
0
0
0
0
0
0
0
0
0
0
0
0
0
0
-3.99032e-24
0
-9.68134e-24
5.9973e-24
1.33119e-23
-1.25551e-23
-4.05704e-23
-6.01229e-20
0
0
0
6.47221e-26
0
0
0
0
0
0
0
0
0
0
0
-7.95722e-24
0
-1.0366e-23
1.20197e-23
0
-1.20398e-23
1.59051e-22
-4.77493e-21
0
0
0
0
4.95258e-26
0
0
1.73468e-25
0
0
0
-1.45665e-24
0
0
-3.56072e-24
3.92762e-24
-8.51215e-24
0
-1.10311e-23
1.26953e-23
0
2.74982e-23
1.62326e-22
5.00468e-20
0
0
0
0
0
0
0
0
1.48649e-25
0
0
0
-1.30818e-24
0
0
-3.30248e-24
3.67249e-24
-4.26965e-24
0
-5.54761e-24
2.03399e-23
0
5.53441e-23
-3.22253e-22
4.27478e-21
0
0
0
0
0
8.00942e-26
0
0
0
0
0
0
-1.67141e-24
0
0
-1.89981e-24
-4.00668e-24
0
0
0
0
1.34289e-23
0
-2.20751e-24
4.68833e-22
-3.84338e-20
0
0
0
0
0
0
6.61889e-26
0
0
0
0
0
0
-1.51768e-24
-1.88714e-24
0
-3.78757e-24
-3.7713e-24
0
-1.0676e-23
0
0
0
0
-6.09616e-23
0
2.48666e-20
0
0
0
0
0
0
0
0
0
0
0
0
0
0
0
-3.76227e-24
0
-4.02553e-24
-4.48638e-24
0
-1.02187e-23
0
-1.40977e-23
0
0
3.67391e-23
-1.04525e-21
7.33752e-21
0
0
0
0
0
0
0
0
0
0
0
0
0
1.86537e-24
0
0
-1.88073e-24
-2.18234e-24
-4.27147e-24
-8.99959e-24
0
-1.17748e-23
1.3278e-23
-1.36436e-23
0
0
1.37012e-22
1.3839e-21
1.30293e-20
0
0
0
0
0
0
0
0
0
0
0
0
0
0
1.71111e-24
0
-2.19904e-24
0
-2.06587e-24
-6.89578e-24
-9.50144e-24
0
-2.36842e-23
2.67096e-23
0
0
0
-6.09376e-24
0
0
0
0
0
0
0
0
0
0
0
0
0
1.66051e-24
1.76653e-24
0
0
2.0884e-24
0
-2.06794e-24
0
-2.42715e-24
-9.54085e-24
-4.78268e-24
0
-1.19258e-23
1.34459e-23
0
0
0
-1.49752e-22
0
5.57286e-20
0
0
0
0
0
0
1.13428e-25
0
0
0
0
0
1.48934e-24
1.60237e-24
0
0
1.94946e-24
2.29427e-24
0
0
-4.87197e-24
-1.00465e-23
0
0
-2.69481e-23
0
0
0
0
0
0
-8.39921e-20
0
0
0
0
0
0
0
9.57029e-26
0
0
0
0
0
1.85663e-24
1.99164e-24
0
0
0
4.57874e-24
-2.56732e-24
-5.28563e-24
-7.80117e-24
-1.05593e-23
-1.14899e-23
0
-5.43421e-23
-3.1471e-23
-6.96503e-23
0
0
0
0
0
0
0
0
0
0
0
0
0
0
0
0
0
0
0
1.70186e-24
1.84332e-24
0
0
0
4.82087e-24
-5.14547e-24
-5.07538e-24
-5.15807e-24
-5.31897e-24
-1.11401e-23
0
-5.68053e-23
2.12136e-24
-1.40594e-22
0
0
2.0671e-22
0
0
0
0
0
0
0
0
0
0
0
0
0
0
0
0
0
0
0
0
-2.40325e-24
0
2.41841e-24
-8.2177e-24
0
-5.86136e-24
0
0
-2.7281e-23
-5.93518e-23
-3.63492e-23
-1.4656e-22
8.48104e-23
0
-4.14898e-22
0
0
0
0
0
0
0
0
0
0
0
0
0
0
0
0
0
0
0
0
0
-4.79628e-24
0
2.77347e-24
-1.13129e-23
0
-5.68163e-24
0
0
-2.65978e-23
-2.99638e-23
-1.38109e-22
-7.39997e-23
1.71399e-22
0
0
0
-1.45984e-19
0
0
0
0
0
0
0
0
0
0
0
0
0
0
0
0
0
0
2.35546e-24
0
-5.02737e-24
0
5.57302e-24
-1.18387e-23
0
0
-1.31828e-23
-2.75766e-23
0
0
-1.43936e-22
0
1.78509e-22
0
0
0
1.64585e-19
0
0
2.21908e-25
0
0
0
0
0
0
0
0
0
0
0
0
0
0
0
0
4.69469e-24
0
-2.52217e-24
5.7617e-24
8.86585e-24
6.87909e-24
0
0
-1.28504e-23
3.07507e-23
0
-6.96344e-23
-1.49949e-22
-1.70607e-22
9.02105e-23
0
0
-9.00528e-21
1.53401e-19
0
0
0
5.65349e-27
0
0
0
0
0
0
0
0
0
-1.08607e-24
0
0
0
0
0
0
4.90803e-24
0
-2.86382e-24
5.56823e-24
1.22077e-23
2.58718e-23
-1.37761e-23
-1.39724e-23
0
1.16654e-22
0
-1.40767e-22
-1.56145e-22
-1.67426e-22
0
0
0
1.2139e-20
-1.05051e-20
0
0
0
0
0
0
0
0
0
0
0
0
0
0
-9.94873e-25
0
1.09384e-24
0
0
0
0
5.13034e-24
0
-5.75986e-24
0
6.15052e-24
2.70191e-23
-1.34267e-23
-1.36382e-23
-6.01883e-23
-3.99995e-24
0
-1.46704e-22
-1.62528e-22
-1.84738e-22
0
0
0
0
1.55169e-19
0
0
0
0
0
0
0
0
0
0
-1.48038e-24
0
0
0
0
0
0
2.15987e-24
0
0
0
0
5.36075e-24
0
-9.15015e-24
0
1.38235e-23
-9.78133e-25
0
0
-5.88906e-23
-1.27459e-22
-7.07614e-23
-1.52824e-22
-1.6912e-22
-3.73759e-22
2.16328e-22
5.19286e-22
0
1.82954e-20
-1.10738e-20
0
0
0
0
0
0
0
0
0
0
0
-1.31232e-24
0
0
0
0
0
0
2.24379e-24
2.38964e-24
0
0
0
8.51218e-24
0
-6.06965e-24
0
2.79015e-23
-1.42517e-23
0
0
0
-6.44709e-23
-6.94281e-23
-2.4098e-22
-8.54783e-23
-1.88999e-22
2.12814e-22
5.11045e-22
0
-2.71042e-20
-3.51781e-19
2.987e-22
-4.76239e-22
-1.59908e-21
1.5546e-20
0
0
0
0
0
0
0
0
0
0
0
0
1.26421e-24
0
0
2.32812e-24
2.28254e-24
0
0
2.85305e-24
1.17176e-23
0
0
0
1.40825e-23
0
0
-6.63069e-23
0
-7.15671e-23
0
-2.46031e-22
-1.88093e-22
0
0
0
4.42631e-21
-1.39641e-20
0
-1.70598e-21
9.85075e-23
-2.80947e-22
2.73361e-21
1.18658e-20
0
0
0
0
0
0
0
0
0
0
0
0
2.48587e-24
-1.2713e-24
0
2.41682e-24
0
0
0
2.76386e-24
1.22611e-23
-6.69889e-24
0
0
0
0
0
-6.49956e-23
0
-1.44858e-22
0
-2.60826e-22
-1.85027e-22
0
0
-1.2168e-21
-6.95571e-21
2.48865e-20
0
-1.29216e-22
-3.77294e-22
0
8.21693e-22
2.93497e-21
0
0
0
0
0
0
0
0
0
0
0
0
0
1.22729e-24
-2.51821e-24
-1.30134e-24
2.51386e-24
0
2.79351e-24
0
0
1.28308e-23
-1.35325e-23
0
0
0
0
0
0
-1.48461e-22
8.20893e-23
-1.66536e-22
-1.74209e-22
0
0
0
-1.19867e-21
0
0
7.20788e-19
0
5.1086e-22
0
3.34005e-21
2.26817e-21
-1.08102e-20
0
0
0
0
0
0
0
0
0
0
0
0
0
0
-2.6033e-24
-2.59113e-24
2.61713e-24
0
2.70592e-24
0
0
2.03891e-23
-6.83555e-24
3.11378e-23
0
0
0
0
-7.49634e-23
-3.00388e-22
1.52739e-22
-1.63808e-22
0
-4.23062e-22
0
0
0
0
0
-7.04764e-19
0
0
-9.5958e-22
0
-3.71804e-21
-3.38846e-21
3.61544e-21
0
0
0
0
0
0
3.17947e-24
0
0
-1.60268e-24
0
0
0
0
-1.29693e-24
-2.68784e-24
2.73006e-24
0
0
0
0
1.35755e-23
0
3.04575e-23
0
3.57173e-23
0
-7.66264e-23
-1.5166e-22
-1.51912e-22
1.68267e-22
0
0
-8.56986e-22
-4.92562e-22
0
0
0
0
-6.44804e-19
0
0
0
2.34497e-21
0
-2.29427e-20
-7.92306e-21
1.05381e-20
0
0
0
0
0
0
1.58127e-24
0
0
-1.50465e-24
0
0
0
1.4546e-24
-1.45116e-24
-1.34736e-24
2.85652e-24
0
-6.42808e-24
0
0
0
0
0
0
3.50348e-23
0
-7.52733e-23
-7.66895e-23
0
3.40591e-22
0
-4.13664e-22
2.46521e-23
-4.85517e-22
0
-1.6147e-21
-1.04289e-21
0
5.04258e-19
0
0
3.14666e-22
0
-1.54368e-21
0
-3.91123e-20
-2.37905e-20
3.06348e-20
-1.82418e-19
0
0
0
0
0
0
0
0
-1.66743e-24
0
0
0
2.90112e-24
9.90488e-26
0
2.99539e-24
0
-6.26239e-24
0
0
0
0
0
0
0
0
0
0
-1.7373e-22
3.5424e-22
0
-8.37813e-22
4.51936e-22
0
0
-5.16868e-21
-1.27829e-20
0
-8.64324e-19
0
0
0
2.22171e-22
-3.49469e-22
-1.29139e-20
0
-5.11132e-20
0
2.65632e-20
-3.11114e-19
0
0
0
0
0
0
0
0
-3.28919e-24
0
0
0
1.44948e-24
-1.68106e-24
-3.17894e-24
4.77627e-24
-6.80087e-24
0
-2.97063e-23
0
0
0
0
0
4.02994e-23
0
0
-1.75058e-22
-3.51517e-22
3.6832e-22
-4.05061e-22
-4.24054e-22
0
-1.13611e-21
0
-3.52601e-21
0
0
1.57933e-18
0
0
-2.15348e-22
0
2.80903e-22
-6.06562e-22
-7.99816e-21
0
-1.00321e-19
0
0
-1.34608e-19
0
0
0
0
0
-1.80569e-24
0
0
-1.62793e-24
0
0
0
0
-6.31936e-24
-6.42525e-24
6.61044e-24
-6.635e-24
0
-2.90537e-23
0
0
0
0
0
3.96095e-23
0
-1.78281e-22
-3.5406e-22
-5.52601e-22
5.79401e-22
-3.99274e-22
0
0
-1.12072e-21
0
0
0
0
3.89877e-22
0
0
0
1.96319e-22
0
-5.17337e-23
-7.00302e-22
0
0
-6.45767e-20
0
0
0
0
0
0
-1.98647e-24
0
-3.49971e-24
0
1.81758e-24
-1.77705e-24
0
0
0
0
-6.61766e-24
-6.74871e-24
3.34723e-24
0
0
0
3.4547e-23
0
0
0
8.36414e-23
0
0
-1.75509e-22
-1.78976e-22
-7.58508e-22
3.87437e-22
0
0
-1.09273e-21
0
3.15001e-21
0
-3.3285e-20
-5.6267e-20
-6.77193e-19
-2.39838e-23
-2.94084e-22
-3.31989e-22
-2.19304e-22
-2.92856e-23
0
-2.95594e-22
-3.63351e-22
0
0
0
8.15982e-21
0
0
0
0
0
-1.86467e-24
0
-1.70425e-24
0
1.74298e-24
-3.52674e-24
0
0
0
0
-3.34222e-24
2.6033e-23
-3.03692e-23
0
0
0
7.00151e-23
0
0
0
1.25732e-22
0
0
0
0
-3.83596e-22
4.24654e-22
0
-1.01462e-21
-1.07827e-21
0
3.1075e-21
-6.57601e-21
-7.00804e-20
-5.53878e-20
0
0
7.62291e-23
-1.75389e-22
-2.34648e-22
-1.68047e-22
2.94173e-22
0
-5.6127e-23
0
0
0
8.38416e-20
5.95473e-21
0
-2.10121e-19
0
0
0
0
0
-1.83455e-24
0
1.90127e-24
1.07809e-25
0
0
0
3.7009e-24
0
2.87663e-23
-6.16682e-23
0
0
0
7.32371e-23
0
0
0
8.7939e-23
9.37387e-23
0
0
0
-4.1953e-22
8.60475e-22
-9.51283e-22
-2.0623e-21
0
-2.87853e-21
0
-2.22097e-20
-7.78751e-20
3.08957e-20
1.18666e-18
0
0
2.72487e-22
3.1425e-22
4.60636e-22
0
-4.81847e-23
0
6.96251e-22
0
0
0
3.20033e-19
-1.59949e-20
2.94264e-21
-1.99219e-19
0
0
0
-2.06721e-24
0
-1.75918e-24
0
1.83609e-24
3.71805e-24
0
0
0
3.61034e-24
0
0
-3.12958e-23
0
0
0
7.65501e-23
0
0
0
4.44548e-23
1.89512e-22
0
-4.11541e-22
0
-8.49473e-22
4.35713e-22
-9.38774e-22
-1.04729e-21
0
-5.92555e-21
0
-1.54846e-20
-8.46312e-20
3.04964e-20
3.72859e-21
0
0
1.16088e-22
-2.14122e-23
2.4086e-22
-4.58347e-22
1.57447e-23
4.96007e-22
-2.97523e-23
6.07311e-22
0
0
0
-5.60265e-19
1.72379e-20
1.61273e-20
3.92322e-19
0
0
0
-1.9736e-24
0
-1.8593e-24
0
0
3.83123e-24
-1.96453e-24
0
0
1.63112e-23
0
3.43494e-23
0
0
3.79365e-23
0
3.8771e-23
0
0
0
0
9.57595e-23
0
-4.05774e-22
0
-4.29846e-22
-9.57325e-22
0
2.33691e-21
1.35645e-21
-3.04442e-21
0
0
-4.34058e-20
0
3.65389e-21
0
9.6249e-22
0
8.42596e-23
-4.38462e-22
4.78059e-22
-1.43438e-21
0
7.52375e-22
0
0
-5.7394e-21
0
0
0
-2.48823e-20
5.60279e-20
3.75408e-19
0
0
0
0
0
-1.7955e-24
2.02544e-24
0
-2.1466e-24
-1.91357e-24
0
0
-1.20455e-24
0
3.36576e-23
-3.72052e-23
0
3.72585e-23
0
4.29213e-23
0
0
1.94281e-22
0
2.08628e-22
-4.32851e-22
0
0
-9.41212e-22
-9.44971e-22
-1.08634e-21
2.30738e-21
2.78605e-21
-3.58756e-21
0
0
-9.24303e-20
-8.80338e-21
-1.04391e-18
0
5.96749e-21
-1.21851e-21
2.18509e-24
0
-2.42197e-22
-4.82272e-22
-6.46012e-22
0
7.08958e-22
0
0
-5.14831e-21
0
0
0
-5.78186e-20
-6.9884e-19
0
5.13354e-23
0
0
0
0
-1.9446e-24
4.03774e-24
0
-8.1954e-24
0
0
0
-1.6794e-23
0
0
-3.65141e-23
0
4.15262e-23
0
8.69305e-23
0
0
3.92866e-22
0
2.05698e-22
-8.75003e-22
0
0
-1.90855e-21
-1.04261e-21
-3.35326e-21
0
2.97952e-21
-7.49539e-21
0
0
-1.75575e-19
6.77078e-20
0
0
0
7.13861e-21
1.207e-21
0
0
0
-7.41159e-22
0
-4.43e-22
6.21688e-22
0
0
8.69551e-21
7.61921e-21
0
-1.20876e-18
-1.82124e-19
-1.17996e-19
1.85294e-22
9.91519e-23
0
0
0
0
-3.8802e-24
4.13347e-24
0
-4.13238e-24
0
0
0
-1.90119e-23
0
0
0
0
8.42133e-23
0
1.37028e-22
0
-2.00756e-22
1.98554e-22
0
4.47281e-22
-4.42075e-22
0
0
-9.6706e-22
-1.02956e-21
-2.25224e-21
0
1.5314e-21
-3.90243e-21
-1.62351e-20
-6.26802e-20
-8.33988e-20
0
0
0
0
6.68606e-21
-6.89188e-21
1.54379e-21
0
-5.82253e-24
0
0
-1.18687e-21
-3.88466e-22
-4.02843e-22
6.27687e-23
0
7.66797e-21
7.3324e-21
0
1.17941e-18
-1.72667e-19
-1.14686e-22
2.33069e-18
9.61523e-23
0
0
0
0
-3.98136e-24
2.06367e-24
0
1.81613e-23
1.84867e-23
0
0
-1.8644e-23
0
4.19351e-23
-4.2921e-23
0
8.79458e-23
0
1.88327e-22
0
-1.97858e-22
0
4.47865e-22
9.04265e-22
0
0
0
-1.06487e-21
0
0
0
3.6086e-21
0
-1.59755e-20
-1.2828e-19
0
0
1.61585e-18
0
0
0
-1.2032e-20
-1.26526e-20
-2.23754e-21
-3.27324e-21
2.45367e-22
0
-1.33508e-21
-1.04075e-21
4.32795e-22
-3.44875e-22
0
0
2.11467e-20
0
0
0
-1.70817e-19
-2.41103e-19
2.2507e-18
9.02359e-23
0
0
-3.60341e-24
0
-4.09112e-24
0
0
1.77594e-23
3.7437e-23
0
0
-2.10374e-23
0
4.12097e-23
-8.71201e-23
0
1.38914e-22
0
9.52831e-23
-2.08522e-22
0
0
4.41846e-22
4.56901e-22
0
-1.02024e-21
0
-2.16514e-21
0
-2.69015e-21
0
3.56246e-21
0
0
-1.33999e-19
0
-3.57877e-19
-1.43165e-18
0
0
3.56612e-23
-3.56647e-21
-1.97504e-20
-7.22651e-21
-8.41755e-21
3.30973e-21
2.07215e-22
0
-1.17071e-21
-2.50691e-23
3.62634e-22
1.97783e-22
0
-1.57686e-22
1.98692e-20
2.75764e-22
8.77203e-19
-3.39599e-19
-1.63565e-19
-2.31939e-19
0
4.2454e-23
0
0
-3.50383e-24
0
-2.04913e-24
0
0
0
1.89499e-23
0
0
-2.06601e-23
0
0
-9.11353e-23
0
9.2917e-23
0
0
-2.05583e-22
0
0
0
0
0
-2.06736e-21
0
-2.26651e-21
0
-5.52396e-21
0
0
-1.43263e-20
-5.04764e-20
-6.72984e-20
-9.31918e-21
4.2997e-19
0
-2.403e-22
0
1.12071e-22
3.94636e-22
-8.67066e-22
8.56377e-21
-6.144e-20
-2.37069e-20
-6.81139e-23
-5.82135e-24
6.13936e-22
-8.14501e-22
3.29828e-23
0
1.80898e-22
0
-1.87781e-21
2.80433e-22
0
-1.13637e-19
7.89322e-20
0
0
0
0
1.73569e-23
-1.39319e-24
0
0
0
0
0
0
2.12408e-23
0
0
0
0
0
-4.62078e-23
0
1.02237e-22
0
0
0
0
0
0
0
-1.06964e-21
-2.14931e-21
2.30112e-21
-1.15263e-21
0
-2.8317e-21
0
0
-1.41061e-20
-1.03239e-19
0
-6.38163e-20
0
0
7.00417e-23
-9.85881e-23
-2.37777e-22
0
0
1.42665e-20
-1.08972e-20
-1.46932e-20
-8.48386e-21
-1.05766e-20
-3.34879e-22
5.43874e-22
-6.96127e-22
0
2.91832e-23
-4.59294e-23
6.89948e-23
3.63309e-20
-3.14984e-22
-2.68054e-22
-9.807e-22
-6.8524e-20
0
0
0
0
-8.18278e-25
-1.35695e-24
0
0
-1.84973e-23
0
0
0
2.08449e-23
0
0
0
0
0
-1.02217e-22
0
1.00757e-22
0
2.24535e-22
2.32186e-22
0
4.97059e-22
0
0
-3.27775e-21
-2.2378e-21
2.27353e-21
0
0
0
0
1.18933e-20
0
-1.07853e-19
0
-1.18401e-20
4.44358e-19
0
0
-4.72559e-23
-8.20512e-22
-3.06667e-22
-1.49636e-22
5.1179e-22
-8.23962e-21
6.38231e-20
-3.71983e-20
-2.53708e-21
-9.94376e-22
-2.96657e-22
-2.99145e-22
0
1.64333e-23
-3.41996e-23
6.92043e-23
0
-4.54176e-20
-3.40608e-20
1.81475e-19
-1.86543e-22
-4.42402e-19
0
0
0
0
-1.73366e-23
0
1.5509e-23
0
-1.81062e-23
-2.04794e-23
0
2.25184e-23
0
0
0
0
0
0
-1.00697e-22
0
1.10412e-22
0
4.54285e-22
4.69646e-22
0
4.90763e-22
1.06659e-21
0
-3.3493e-21
-2.33414e-21
0
0
0
0
0
3.95855e-20
0
-1.08919e-19
-3.50793e-20
5.88443e-19
-8.9103e-23
-2.18852e-19
0
0
2.66171e-23
-6.53719e-22
0
-5.18272e-22
1.84952e-21
1.69658e-20
-1.65858e-20
0
0
9.22428e-21
0
-2.70671e-22
4.50189e-22
0
0
0
0
0
-7.78918e-20
1.74013e-19
0
1.13332e-18
8.60349e-20
0
8.23284e-18
0
0
0
1.51652e-23
0
0
-2.0082e-23
0
2.21138e-23
0
0
0
0
0
0
-1.10862e-22
0
1.08889e-22
0
2.29705e-22
2.37413e-22
0
0
2.15956e-21
0
-1.14114e-21
-1.18503e-21
-5.3316e-21
-2.90849e-21
-6.5866e-21
-7.84307e-21
0
5.99393e-20
0
-5.38755e-20
-3.48502e-20
-7.54511e-19
8.85383e-23
3.0078e-19
7.38638e-23
-8.89789e-22
2.83198e-22
1.02428e-22
5.13482e-23
0
-7.10364e-22
1.884e-21
-1.62219e-20
0
-8.57159e-21
4.39909e-20
0
0
-3.75366e-23
9.11078e-22
3.51256e-22
0
0
0
0
-4.37716e-20
0
1.52583e-22
2.31375e-18
-4.07733e-20
0
-3.82603e-19
0
0
0
0
0
0
0
0
0
0
0
0
0
0
0
5.98577e-24
0
0
0
0
0
0
0
3.38856e-21
1.19486e-21
-1.25601e-21
-2.63493e-21
3.70887e-22
-2.87403e-21
-6.50687e-21
-7.74406e-21
2.47382e-20
3.19768e-20
0
-6.98678e-20
0
-1.05156e-21
0
0
0
7.37646e-25
-5.17286e-22
1.75339e-22
-4.01364e-23
0
-1.66219e-21
0
0
-7.22113e-21
-1.26522e-20
-3.25701e-19
7.97387e-20
0
0
9.58487e-23
8.0711e-22
7.39934e-23
0
0
0
-2.86927e-22
-6.96364e-20
1.53545e-22
-3.94426e-24
1.18007e-18
-2.61692e-19
0
-8.17052e-18
0
-1.18007e-22
0
0
0
0
0
0
2.57958e-23
0
0
0
0
0
0
2.33488e-22
0
0
0
0
0
0
0
-1.17869e-22
3.67118e-21
-1.24134e-21
-5.37978e-21
1.15667e-20
0
0
0
2.43749e-20
-4.12418e-20
-4.62622e-20
-1.03176e-19
0
-8.48507e-22
-1.24e-21
0
0
0
1.80779e-22
-3.67252e-23
0
-2.34756e-22
0
1.07002e-21
5.544e-22
-3.68852e-21
2.94418e-20
0
1.68408e-19
-1.29924e-19
0
1.34572e-22
-5.87573e-23
3.54546e-22
-2.41045e-22
-6.59057e-24
0
-2.05687e-20
0
-6.74902e-20
0
5.76302e-19
1.29669e-18
0
-3.03765e-21
0
0
1.33292e-22
0
0
0
0
0
0
5.23653e-23
0
0
0
0
-1.22383e-22
0
1.18183e-22
0
-2.55922e-22
-5.20593e-22
0
0
0
0
-1.11595e-21
3.76214e-21
-2.76001e-21
-5.67926e-21
5.92251e-21
7.22329e-21
0
0
0
2.02888e-21
-4.55846e-20
-4.42572e-20
-4.19489e-19
-2.57661e-21
-6.77583e-23
0
0
0
8.12226e-23
4.7038e-25
-1.45581e-21
-7.01742e-22
0
2.18735e-21
1.59495e-21
4.825e-22
8.83241e-22
3.64032e-21
-5.22682e-20
5.34616e-20
0
4.75964e-22
-7.86965e-23
-1.38764e-22
0
-6.6002e-24
-3.10823e-23
6.4268e-23
5.87871e-20
-3.21265e-20
8.79969e-20
1.43396e-22
4.07778e-20
1.26121e-18
4.43276e-20
2.87503e-20
-8.34411e-18
0
0
0
0
0
0
0
0
5.47916e-23
0
0
0
0
-2.48006e-22
0
-2.58342e-22
0
-2.52675e-22
-5.1411e-22
5.56637e-22
5.75152e-22
0
0
-1.36412e-21
1.28574e-21
-2.72813e-21
-2.90183e-21
0
7.13557e-21
0
0
0
4.18433e-20
-5.2528e-20
-1.27256e-20
-1.60019e-19
-1.72811e-21
4.95902e-20
-1.89286e-19
0
0
-1.26771e-22
-1.50778e-23
-8.19512e-23
-1.10427e-21
-4.02427e-22
-3.86558e-22
1.78309e-21
-4.58708e-22
1.0662e-21
-3.76234e-22
-2.42871e-21
6.33848e-20
-7.35526e-20
3.51792e-20
-5.02942e-21
6.2066e-21
1.64221e-22
0
3.99761e-22
-1.07248e-22
2.50354e-22
0
-8.22134e-21
8.6001e-20
0
-5.0841e-19
1.31459e-18
-3.29503e-20
2.81313e-20
-8.15091e-18
0
-1.11441e-22
0
0
2.31186e-23
0
0
0
5.73077e-23
0
0
0
-6.5709e-23
-2.57944e-22
2.66281e-22
-2.54998e-22
2.71293e-22
0
0
5.49933e-22
5.68323e-22
0
0
1.48572e-22
0
0
0
7.44347e-21
0
0
0
0
7.83973e-20
-5.20696e-20
-2.68138e-21
-5.94496e-22
0
0
2.06076e-19
0
1.14452e-22
-4.39621e-23
4.91126e-23
0
1.43725e-22
9.76139e-23
-3.02007e-22
5.19356e-22
-4.67642e-22
-4.70695e-22
0
-1.04133e-21
2.63666e-20
-8.02427e-20
8.26603e-20
3.1583e-20
3.10282e-20
-7.31564e-21
1.74483e-22
2.93994e-22
-5.2424e-23
-3.90104e-23
0
6.50265e-23
0
-4.58946e-22
0
-2.00428e-21
-2.88115e-20
2.9435e-20
0
1.52607e-17
0
1.6549e-23
0
0
4.69286e-23
-2.6181e-23
0
2.94302e-23
5.99059e-23
0
0
0
-6.48208e-23
-2.68086e-22
5.39238e-22
2.78143e-22
8.3061e-22
-5.70964e-22
0
0
6.20734e-22
0
0
-1.63388e-22
3.02225e-21
-6.54614e-21
-7.16456e-21
7.35353e-21
0
0
-3.5089e-20
-3.83528e-20
7.73747e-20
0
5.19929e-19
5.48896e-22
0
0
0
0
0
5.39192e-23
-2.23013e-22
7.76458e-23
-1.67212e-22
0
-9.89403e-23
1.30229e-21
1.07427e-21
-7.08987e-22
4.79829e-22
-1.10007e-21
2.70619e-21
0
0
9.83021e-20
6.42348e-20
-6.21122e-20
-8.02852e-21
-3.29354e-25
3.47083e-22
-4.18888e-22
-3.76531e-23
0
2.07856e-22
-4.60789e-22
2.12757e-19
-4.72333e-22
1.82279e-21
-1.28723e-18
9.89519e-20
1.42759e-20
1.49188e-17
0
1.13658e-22
0
0
2.38045e-23
-5.31959e-23
0
2.89909e-23
9.47785e-23
0
0
0
1.42017e-22
-1.35707e-22
-1.40243e-23
8.51858e-22
5.55808e-22
-5.64087e-22
0
0
1.90596e-21
0
0
-2.81072e-21
2.98763e-21
-6.47022e-21
-7.07954e-21
0
0
0
-7.12254e-20
3.46589e-20
2.82146e-20
9.68837e-20
0
-3.41477e-23
0
0
0
0
0
-4.62391e-24
-1.73453e-23
-1.57769e-22
1.54702e-22
-2.55104e-22
0
0
1.1477e-21
1.00857e-21
-3.3235e-21
4.89758e-22
-1.41894e-21
-2.51357e-21
4.99768e-21
0
-4.93431e-20
-8.37916e-20
2.55779e-20
7.84558e-21
1.31739e-22
6.06653e-22
0
-1.76023e-22
7.92271e-23
6.946e-21
-3.09793e-22
2.07987e-19
1.12154e-21
-4.14552e-21
2.41701e-18
1.30207e-19
2.9609e-19
-1.35577e-17
0
0
0
0
0
-5.57436e-23
0
3.21418e-23
9.70832e-23
0
0
0
-7.33523e-24
0
-2.83344e-22
5.70114e-22
0
-6.15131e-22
0
0
1.95168e-21
0
0
-3.16427e-21
6.82666e-21
0
0
0
2.6591e-20
-3.39749e-20
-3.61165e-20
7.14615e-20
2.80612e-20
-4.83099e-19
0
-5.83044e-22
0
0
1.00735e-19
1.0397e-22
1.42816e-22
-4.5785e-24
-5.86571e-23
0
2.26028e-22
6.16694e-22
-2.3116e-22
-3.27846e-22
1.85594e-22
-3.67381e-22
9.7548e-22
-6.41298e-21
-1.46319e-21
5.54987e-22
5.56452e-21
0
-1.25664e-19
-7.42984e-20
0
-2.53371e-20
-4.70091e-22
7.93692e-23
5.24917e-22
0
-2.80585e-22
-9.66414e-22
7.13046e-21
0
2.10101e-21
0
-4.55846e-21
2.3758e-18
5.65633e-20
5.41445e-19
-2.59572e-17
0
4.72644e-23
0
0
2.79477e-23
-5.84102e-23
0
3.16859e-23
1.03221e-22
0
1.48619e-22
0
-2.98824e-22
6.15037e-22
0
6.21764e-22
0
-1.2472e-21
-1.30437e-21
0
2.07608e-21
-2.9552e-21
0
-3.12819e-21
1.40618e-20
0
0
0
2.61895e-20
-3.34146e-20
0
0
6.00467e-20
0
-2.26106e-22
0
0
0
-5.5408e-20
1.12559e-22
-1.19966e-22
-9.35827e-23
0
-4.50353e-23
7.89242e-23
1.05749e-21
2.26735e-22
-3.20458e-22
0
0
0
0
-6.45492e-21
1.80909e-21
-1.57237e-21
-1.36212e-21
3.21556e-20
-4.45627e-19
0
0
7.15572e-20
0
-1.14963e-22
-5.84068e-23
1.92477e-23
2.45978e-22
3.72902e-22
-1.75125e-20
9.74097e-22
2.27934e-19
8.42053e-19
4.8811e-21
2.13906e-18
-1.56298e-19
2.46346e-19
-1.24258e-17
0
-4.38522e-23
0
0
5.68777e-23
-6.11948e-23
0
0
6.9134e-23
-1.50819e-22
1.46692e-22
0
-1.51276e-22
6.07506e-22
0
1.26003e-21
6.53976e-22
-1.29709e-21
-1.28946e-21
0
1.39375e-21
-6.0341e-21
0
-7.18285e-21
-6.75966e-22
0
0
0
0
0
0
0
-2.40088e-19
0
-4.68858e-22
0
0
-1.00387e-20
-5.96105e-20
0
3.74757e-23
-9.1314e-23
1.67469e-23
-1.98407e-22
-9.01769e-23
7.52176e-23
2.3135e-22
2.80236e-22
4.84069e-22
0
0
0
-2.24687e-22
-9.36911e-21
0
-2.23392e-21
0
0
3.93833e-21
1.58664e-19
3.66659e-20
-6.50185e-22
4.47733e-22
-3.14163e-22
0
9.66401e-23
1.99558e-22
2.34944e-21
-1.66841e-20
0
2.25154e-19
8.25111e-19
-3.21823e-21
2.09816e-18
-8.17871e-20
-6.19654e-21
0
0
-2.44638e-23
0
2.81364e-23
9.05161e-23
-6.40828e-23
0
0
0
8.00477e-24
1.60535e-22
0
0
0
0
1.30921e-21
1.32681e-21
-1.3509e-21
0
0
0
-6.36842e-21
0
6.25559e-22
-1.64959e-20
0
0
-3.09606e-20
0
0
0
-7.96484e-20
6.4904e-19
0
-5.01106e-22
0
0
-2.34531e-21
2.8957e-20
0
-8.02591e-24
1.2594e-23
1.59988e-23
1.15344e-22
-3.75617e-22
-2.29349e-23
2.56843e-22
-5.01407e-22
2.86424e-22
0
0
3.53446e-21
1.22213e-22
9.25196e-22
-4.66484e-21
0
1.19959e-21
0
-7.48089e-23
7.20854e-19
-3.17333e-20
2.42333e-20
4.54547e-20
1.48736e-20
-5.39077e-22
9.67404e-23
4.38518e-23
1.1036e-20
-3.254e-22
0
2.04378e-21
-2.27061e-19
-3.23419e-21
0
0
2.6332e-21
0
0
0
-2.40879e-23
0
2.77268e-23
1.25368e-22
-1.01577e-22
0
0
0
1.54874e-22
1.58533e-22
0
0
0
0
1.3616e-21
1.38176e-21
-2.13319e-21
0
0
-3.28445e-21
-6.75198e-21
0
7.6347e-21
-8.57913e-21
0
-2.85756e-20
2.89681e-21
0
0
4.93783e-21
6.18131e-19
5.9247e-22
5.01088e-22
-2.58355e-22
0
-2.07258e-21
6.66052e-20
1.14757e-19
0
-7.83079e-24
7.29208e-24
1.0931e-23
-4.91164e-24
1.94387e-22
-1.31928e-22
-1.01623e-23
1.32951e-22
-4.24773e-22
4.352e-22
-4.82185e-22
0
-2.24239e-21
-2.50757e-21
1.2468e-21
-4.45039e-22
-2.11087e-21
0
2.15319e-22
6.73055e-22
-8.31534e-19
0
0
-4.22298e-20
-1.35091e-20
-6.00181e-22
-1.00546e-22
-7.57922e-22
-1.92238e-20
-1.83043e-21
-1.98939e-20
-7.03496e-20
-2.24733e-19
0
0
-1.64221e-18
0
-3.22855e-18
-1.79048e-17
-4.06908e-23
0
0
0
6.37501e-23
-1.40292e-22
-1.51777e-22
0
0
0
0
0
0
7.15344e-22
0
2.14529e-21
1.44147e-21
-2.94667e-21
0
0
-3.24752e-21
-3.45813e-21
0
0
0
0
-2.81354e-20
-3.33748e-20
5.83446e-20
0
-1.07607e-19
-6.89177e-19
0
1.00762e-21
0
0
-3.54912e-21
-6.49757e-20
5.62536e-20
0
0
0
0
2.42885e-24
4.1856e-22
1.80356e-22
0
-7.0835e-23
1.41657e-22
-6.32933e-22
-4.72864e-22
-4.76508e-22
3.33528e-22
-5.48894e-21
-2.25567e-21
-1.63888e-21
-2.13863e-21
2.13423e-21
0
-2.4541e-22
-6.58085e-20
2.3351e-19
3.19188e-20
0
4.51506e-20
1.31668e-20
-9.46115e-23
7.93699e-22
-8.46445e-22
-7.06337e-22
-9.02555e-22
-1.86063e-20
-7.10695e-20
0
3.08409e-21
-1.07639e-20
-1.41843e-19
-3.3836e-20
3.14009e-19
-1.7602e-17
1.66329e-22
0
0
0
0
-1.46681e-22
-3.08152e-22
0
-6.84655e-22
0
0
0
0
1.4512e-21
0
2.95764e-21
7.32045e-22
-3.08834e-21
0
-3.48067e-21
3.71946e-21
0
0
-1.04714e-20
2.5048e-20
0
0
-1.27261e-19
2.01272e-20
0
0
0
0
5.06531e-22
0
0
-1.47655e-21
4.87848e-20
0
1.67109e-22
0
0
1.4012e-23
1.74414e-23
-1.47997e-23
7.75239e-22
-3.75786e-22
-3.31103e-22
6.15455e-23
-2.811e-22
-9.35746e-22
-4.67302e-22
0
0
-1.55294e-22
1.17362e-22
-1.11246e-21
2.16069e-21
8.08883e-22
0
5.42286e-22
4.9558e-20
3.92824e-19
0
-2.0799e-19
-6.47141e-21
4.73553e-22
6.13106e-22
2.01852e-21
-3.32899e-23
1.28505e-21
-4.4985e-22
-8.86035e-22
-1.04329e-21
-4.225e-19
0
-7.69975e-21
1.44585e-18
-5.07914e-20
5.58857e-18
1.47607e-17
0
-3.11789e-23
0
0
1.48977e-22
-2.3205e-22
-1.5633e-22
0
-1.38824e-21
0
0
0
0
1.51066e-21
0
2.29666e-21
1.62492e-21
-4.9206e-21
0
-3.44155e-21
7.67073e-21
0
1.00711e-20
-1.03344e-20
2.46895e-20
-3.28276e-20
0
-9.29791e-21
-3.72331e-20
0
0
0
0
0
-7.44848e-22
0
-6.10963e-22
0
-4.69728e-20
0
-4.46467e-22
0
-4.68386e-24
-5.75674e-22
3.43099e-23
0
3.43925e-22
5.37732e-23
-3.00413e-22
-2.26204e-23
-2.47823e-22
0
6.65471e-22
0
1.1294e-21
8.69565e-22
2.79657e-22
0
1.39574e-21
9.11905e-23
0
9.4862e-21
1.31839e-21
5.25353e-20
-3.56679e-19
-3.37017e-20
-3.4404e-20
-2.19351e-20
2.98737e-22
1.44785e-21
6.70347e-22
-1.82295e-20
1.90698e-21
6.9633e-22
7.66037e-20
-8.29369e-19
-1.9459e-21
9.90168e-20
2.25478e-18
-2.13188e-20
2.23823e-20
1.45005e-17
0
-3.07465e-23
0
0
1.47043e-22
-3.20089e-22
3.43698e-22
0
-7.03395e-22
0
0
0
0
2.3834e-21
0
2.45244e-21
3.317e-21
-3.31099e-21
0
0
-4.71815e-21
-9.77818e-21
-1.43474e-21
-2.71053e-20
0
-3.23051e-20
0
5.13756e-20
0
0
0
5.01228e-22
1.04523e-21
0
-1.58099e-21
0
3.9518e-19
1.33316e-20
-1.31756e-19
0
-2.10784e-23
-2.99745e-22
-8.21577e-22
-5.19801e-23
-4.25785e-22
8.45301e-22
-8.00958e-22
0
3.13069e-22
4.56058e-23
0
-3.60723e-22
-2.12436e-22
6.00361e-22
2.30093e-22
-1.07406e-21
8.48641e-22
1.22495e-22
2.18862e-21
-4.43454e-22
-6.63531e-22
3.58895e-21
-3.98918e-21
1.92607e-21
0
-3.83997e-20
6.96547e-19
0
1.00881e-20
1.67402e-22
0
6.07577e-22
-1.10659e-21
7.28432e-21
0
1.50666e-19
-4.06228e-19
-3.76994e-19
3.30228e-19
4.20858e-18
0
0
0
-2.58341e-22
0
0
0
1.63195e-22
-1.62456e-22
3.39485e-22
0
-7.69403e-22
0
0
0
0
2.44421e-21
-1.71686e-21
3.40134e-21
1.69116e-21
0
0
0
-8.56323e-21
-2.06492e-20
-1.12242e-20
-2.67064e-20
3.31312e-20
0
0
5.59384e-21
-8.148e-19
0
0
5.01229e-22
1.04523e-21
0
-1.8217e-21
0
0
-1.59641e-19
-8.47805e-20
2.11026e-22
-2.04587e-23
0
0
-6.53539e-22
0
-9.5408e-22
7.44381e-22
-1.44427e-21
-6.24478e-23
-6.52007e-22
0
-1.63525e-22
-7.21228e-22
9.32353e-22
-4.88585e-23
-1.05072e-21
0
0
0
1.27459e-21
1.00456e-21
-4.34136e-21
-7.48091e-21
-2.07703e-21
0
-1.19802e-19
1.02519e-18
7.94612e-19
-4.77289e-21
0
2.58598e-22
2.86114e-22
0
-1.31036e-21
7.46535e-21
-6.15593e-22
-9.6856e-21
0
-3.7099e-19
5.41675e-19
2.81227e-19
2.73505e-19
0
-1.12402e-17
3.38694e-22
-7.35615e-23
0
0
1.61158e-22
0
0
0
-1.56047e-21
0
0
0
0
2.60644e-21
-3.50278e-21
3.58482e-21
0
0
0
0
0
-1.08486e-20
0
0
3.26164e-20
0
0
7.41474e-21
-1.27438e-21
0
0
4.99324e-22
0
1.06701e-21
-3.33159e-21
0
0
1.63268e-19
-6.25622e-20
0
7.02429e-23
6.4212e-22
0
-6.6487e-22
9.6266e-22
-4.05705e-23
-7.41579e-22
-7.52259e-22
-7.53343e-22
0
-5.74566e-22
6.03306e-24
-1.29338e-22
-1.61864e-22
1.64578e-21
0
0
-1.93074e-21
-7.83286e-22
0
4.8013e-21
-2.68689e-21
-1.19789e-20
-3.91592e-21
3.02335e-21
-2.81175e-20
-8.66554e-19
1.22475e-18
0
0
0
7.36527e-22
6.43803e-21
-4.74434e-23
-2.24024e-22
8.14535e-21
0
-7.19904e-20
0
5.08079e-19
6.86642e-19
-1.67505e-18
3.06738e-19
-2.24684e-17
-1.10708e-17
0
8.21617e-23
0
0
-3.56196e-22
0
3.88366e-22
0
-7.90842e-22
0
0
0
0
3.61108e-21
-1.785e-21
1.83058e-21
0
-4.31635e-21
0
0
0
0
0
0
0
0
0
1.68573e-21
-1.29728e-21
0
0
4.99324e-22
0
1.06701e-21
-5.12442e-21
0
0
-6.46474e-20
-6.25577e-20
2.53385e-22
0
-1.05602e-22
5.19184e-22
6.98435e-22
-1.73469e-21
8.81184e-22
5.16116e-23
0
-6.86694e-22
1.13352e-22
-1.35496e-22
-5.87198e-22
3.86906e-22
1.47179e-23
0
7.79521e-22
-4.79824e-22
-3.4061e-22
-7.65808e-22
0
5.99626e-22
-4.46233e-22
-2.70456e-21
9.80744e-22
0
1.15845e-21
-1.8667e-19
-1.37222e-18
-2.64826e-19
0
-1.18391e-19
-2.05737e-21
-2.65094e-22
-1.56379e-20
-1.46244e-22
1.61741e-21
6.11707e-21
5.01996e-21
0
2.44241e-21
4.75365e-19
4.37236e-19
-6.32219e-20
5.19547e-20
1.83185e-17
1.85193e-17
0
1.52798e-22
0
0
-3.51904e-22
0
7.88087e-22
0
-8.67558e-22
0
0
0
0
1.8395e-21
0
4.18328e-21
4.39202e-21
-4.26679e-21
0
0
1.38057e-20
0
-3.33546e-20
0
-1.97649e-20
0
0
0
-2.69421e-21
0
0
-4.93963e-22
-7.90898e-22
0
-2.7784e-21
0
0
-6.46428e-20
3.71599e-20
7.72766e-24
1.15139e-22
-3.03394e-23
8.22258e-23
0
1.70492e-21
-7.8276e-22
5.01134e-23
3.4434e-23
2.69838e-23
1.10883e-22
-1.33012e-22
-1.24112e-22
-7.06956e-23
1.08964e-22
2.30695e-23
3.24854e-22
-9.77147e-22
2.00133e-22
0
0
1.51574e-21
0
-2.83451e-21
0
9.65371e-22
5.6695e-21
0
-1.90721e-19
-1.07786e-17
-6.25252e-19
-8.0648e-20
-3.88996e-20
0
4.88414e-22
0
-2.65468e-20
1.78217e-21
-2.12193e-21
0
-1.53728e-21
0
4.63817e-20
-3.21946e-20
1.03648e-18
-1.87751e-19
-1.73297e-17
2.40953e-18
0
0
0
0
0
0
3.99602e-22
0
-1.76246e-21
0
-9.57828e-22
-1.96582e-21
0
2.07418e-21
0
4.13642e-21
4.34193e-21
0
1.16568e-20
0
1.3606e-20
3.35112e-20
-1.46476e-21
0
-1.96079e-20
-3.19741e-19
0
0
-1.39693e-21
0
0
-4.93964e-22
-1.49986e-21
0
0
-3.28766e-21
0
0
3.62605e-20
-8.93929e-24
6.8122e-23
3.89587e-23
1.38676e-22
-4.84006e-23
1.96208e-22
1.07244e-21
0
3.34349e-23
5.08585e-23
0
9.86949e-22
0
-8.79793e-22
9.56022e-22
-2.23786e-22
-4.3088e-22
-4.15299e-22
-1.94715e-22
-5.87492e-22
0
1.24288e-21
0
-5.38046e-21
-6.71131e-21
0
1.10031e-20
0
-2.61535e-20
-9.60976e-20
-4.95111e-17
3.67202e-19
-4.13178e-19
1.44952e-19
-2.51515e-22
0
1.40195e-21
5.68417e-20
-6.38048e-22
4.0512e-22
5.23129e-21
0
4.68116e-19
3.18891e-20
-2.70399e-20
1.75277e-18
-1.27074e-19
-1.77604e-18
-2.48625e-18
0
0
0
0
-4.05173e-22
0
0
0
-1.83951e-21
0
-9.47297e-22
-1.94425e-21
0
4.25617e-21
-4.5905e-21
4.84297e-21
0
0
1.15044e-20
0
-3.34373e-20
9.73014e-20
5.88082e-20
0
-1.76598e-19
-2.066e-21
0
2.33434e-21
0
0
0
0
5.27352e-22
0
-4.33213e-21
-3.28768e-21
-2.54453e-19
0
0
-8.76803e-24
3.47396e-23
-8.82985e-22
1.996e-22
-4.71301e-23
1.42367e-21
-9.73803e-22
0
0
-1.1458e-21
-1.00242e-21
-1.395e-22
1.82347e-22
-2.20939e-22
-1.99007e-22
2.5808e-22
5.16547e-22
-4.90492e-22
3.31061e-22
3.82616e-21
-1.12925e-21
0
1.57796e-21
1.15062e-20
-4.8325e-21
-2.49884e-21
8.39279e-21
-1.36986e-20
0
-2.18294e-20
-7.3188e-20
1.52581e-16
1.15247e-18
3.82696e-19
1.98795e-19
-5.60861e-21
-4.10557e-22
-2.27901e-20
-3.96497e-20
-1.04384e-21
4.87904e-21
-4.62623e-20
0
4.37014e-19
3.58232e-20
0
1.40432e-18
-8.41291e-21
1.01041e-17
1.29874e-17
0
0
0
0
-4.00508e-22
0
0
0
-2.91229e-21
0
0
0
0
-1.74794e-22
-4.53871e-21
1.01079e-20
0
0
0
0
-6.62017e-20
1.23584e-19
-4.30804e-21
0
-4.76831e-21
0
0
2.33433e-21
0
0
9.07562e-22
0
1.23632e-21
-2.68103e-21
-1.4157e-20
0
-9.45294e-21
0
-2.46595e-20
0
-8.88932e-22
0
-5.22423e-22
-8.66051e-22