/*--------------------------------*- C++ -*----------------------------------*\
| =========                 |                                                 |
| \\      /  F ield         | OpenFOAM: The Open Source CFD Toolbox           |
|  \\    /   O peration     | Version:  v2012                                 |
|   \\  /    A nd           | Website:  www.openfoam.com                      |
|    \\/     M anipulation  |                                                 |
\*---------------------------------------------------------------------------*/
FoamFile
{
    version     2.0;
    format      ascii;
    class       volSymmTensorField;
    location    "0";
    object      Sp;
}
// * * * * * * * * * * * * * * * * * * * * * * * * * * * * * * * * * * * * * //

dimensions      [0 0 -1 0 0 0 0];


internalField   nonuniform List<symmTensor> 
31383
(
(-5236.71 1.1876e+06 0 9291.32 0 -4054.61)
(-1.75234 5.19308e+06 0 3.73146 0 -1.97912)
(-5248.67 1.27052e+06 0 9240.32 0 -3991.65)
(-4.36689 5.00698e+06 0 7.16262 0 -2.79573)
(0.350675 5.19883e+06 0 0.559691 0 -0.910365)
(-5188.61 1.26104e+06 0 9138.08 0 -3949.47)
(-1.72192 4.8637e+06 0 2.18487 0 -0.462951)
(-6.99648 5.01228e+06 0 9.2544 0 -2.25792)
(1.72359 5.20569e+06 0 -0.55492 0 -1.16867)
(-5124.92 1.25734e+06 0 9026.68 0 -3901.76)
(-4.04143 4.75617e+06 0 7.04762 0 -3.00619)
(-4.23185 4.8687e+06 0 4.66644 0 -0.434597)
(-10.3946 5.01858e+06 0 12.8181 0 -2.42351)
(3.75749 5.2132e+06 0 -2.35369 0 -1.4038)
(-5057.43 1.26423e+06 -2.6196e-19 8905.24 -1.33214e-21 -3847.81)
(-5.89981 4.66801e+06 0 10.8877 0 -4.98793)
(-5.29264 4.76094e+06 0 7.463 0 -2.17036)
(-7.06868 4.87462e+06 0 7.75083 0 -0.682154)
(-14.2787 5.02546e+06 9.32181e-19 17.2482 1.33237e-24 -2.96952)
(6.21251 5.21964e+06 0 -4.50347 0 -1.70905)
(-4985.54 1.2708e+06 2.51347e-19 8772.43 1.26155e-21 -3786.89)
(-4.67074 4.59254e+06 0 8.5201 0 -3.84936)
(-6.17972 4.67259e+06 0 9.60954 0 -3.42982)
(-7.27304 4.76658e+06 0 9.29442 0 -2.02138)
(-10.0436 4.88109e+06 0 11.0265 0 -0.982867)
(-18.2593 5.03138e+06 -8.91185e-19 21.7239 -1.27378e-24 -3.46458)
(8.94686 5.22053e+06 1.29873e-18 -6.97474 -4.48329e-26 -1.97212)
(-4905.53 1.26893e+06 0 8624.9 0 -3719.38)
(-2.44256 4.52801e+06 0 4.14462 0 -1.70206)
(-5.25792 4.59693e+06 0 8.03903 0 -2.78111)
(-7.64632 4.67798e+06 0 10.6663 0 -3.02)
(-9.70022 4.77273e+06 0 11.9495 0 -2.24929)
(-13.0897 4.88672e+06 0 14.3279 0 -1.2382)
(-22.4518 5.03239e+06 0 26.439 0 -3.98722)
(11.979 5.20633e+06 -1.21951e-18 -9.13088 4.21099e-26 -2.84816)
(-4818.21 1.26774e+06 0 8461.66 0 -3643.45)
(-1.91858 4.47263e+06 0 3.16018 0 -1.2416)
(-3.68123 4.53226e+06 0 5.12884 0 -1.44761)
(-6.73665 4.60213e+06 0 9.30656 0 -2.5699)
(-9.80421 4.68389e+06 0 13.0455 0 -3.24125)
(-12.1532 4.77818e+06 0 14.5609 0 -2.40771)
(-16.2301 4.88801e+06 0 17.6726 0 -1.44256)
(-26.8559 5.02012e+06 0 31.3711 0 -4.51527)
(15.9679 5.16067e+06 -1.59672e-18 -12.3836 3.76254e-25 -3.58436)
(-4721.45 1.26888e+06 0 8279.66 0 -3558.22)
(-2.02862 4.42393e+06 0 3.42956 0 -1.40094)
(-3.12144 4.47677e+06 0 4.20119 0 -1.07975)
(-5.312 4.53729e+06 0 6.86772 0 -1.55572)
(-8.73056 4.60784e+06 0 11.5504 0 -2.81982)
(-11.9289 4.68914e+06 0 15.274 0 -3.34504)
(-14.6901 4.77959e+06 -1.38713e-18 17.2198 -2.01793e-24 -2.52969)
(-19.4899 4.87731e+06 0 21.0909 0 -1.601)
(-31.4734 4.97929e+06 0 36.5336 0 -5.06014)
(21.0314 5.06149e+06 1.47846e-18 -17.0433 -3.48833e-25 -3.98808)
(-4612.76 1.27833e+06 0 8072.03 0 -3459.26)
(-2.58013 4.38098e+06 0 4.56989 0 -1.98977)
(-3.15406 4.42797e+06 0 4.41552 0 -1.26146)
(-4.62334 4.4817e+06 0 5.813 0 -1.18967)
(-7.16673 4.54284e+06 0 9.00506 0 -1.83834)
(-10.7101 4.61292e+06 0 13.6892 0 -2.97911)
(-14.124 4.69068e+06 0 17.5363 0 -3.41222)
(-17.3019 4.76995e+06 1.30251e-18 19.8926 1.89483e-24 -2.59065)
(-22.8542 4.84072e+06 1.65734e-18 24.5599 2.51524e-24 -1.70566)
(-36.3032 4.887e+06 0 41.9742 0 -5.67108)
(25.6806 4.87401e+06 0 -21.1895 0 -4.4912)
(-4486.59 1.32464e+06 0 7828.68 0 -3342.09)
(-3.40156 4.34208e+06 0 6.24144 0 -2.83988)
(-3.45139 4.38495e+06 0 5.1224 0 -1.67101)
(-4.59386 4.43274e+06 0 6.00437 0 -1.41052)
(-6.37559 4.48705e+06 0 7.87996 0 -1.50437)
(-9.04734 4.54781e+06 0 11.1249 0 -2.07756)
(-12.7389 4.61453e+06 0 15.8314 0 -3.09246)
(-16.3731 4.68186e+06 0 19.7858 0 -3.41276)
(-19.9945 4.73627e+06 0 22.5908 0 -2.59622)
(-26.2702 4.75684e+06 -1.53461e-18 28.025 -2.32898e-24 -1.75478)
(-41.2905 4.71703e+06 0 47.6475 0 -6.35704)
(28.8995 4.58106e+06 0 -24.1976 0 -4.70182)
(-4313.97 1.38245e+06 -4.14002e-18 7478.27 -1.73485e-20 -3164.3)
(-3.10136 4.30701e+06 0 5.66623 0 -2.56487)
(-3.90312 4.34595e+06 0 6.11206 0 -2.20894)
(-4.75096 4.38961e+06 0 6.50717 0 -1.7562)
(-6.21268 4.43797e+06 0 7.9088 0 -1.69611)
(-8.16232 4.49189e+06 0 9.95276 0 -1.79044)
(-10.9494 4.54944e+06 0 13.2023 0 -2.2529)
(-14.8079 4.6064e+06 0 17.9435 0 -3.13557)
(-18.6852 4.65048e+06 0 22.0417 0 -3.3565)
(-22.7287 4.65847e+06 0 25.2777 0 -2.54906)
(-29.6379 4.60154e+06 0 31.4024 0 -1.76453)
(-46.0146 4.4518e+06 0 53.1439 0 -7.12935)
(26.4656 4.19803e+06 0 -23.0909 0 -3.37476)
(-4078.05 1.36393e+06 -4.76339e-19 7020.18 -1.73962e-21 -2942.13)
(-2.06058 4.27504e+06 0 3.60661 0 -1.54604)
(-3.6814 4.31081e+06 0 5.74435 0 -2.06295)
(-5.02922 4.35049e+06 0 7.20899 0 -2.17977)
(-6.28877 4.3947e+06 0 8.3287 0 -2.03993)
(-7.8424 4.44271e+06 0 9.77739 0 -1.93499)
(-9.92686 4.49362e+06 0 11.9029 0 -1.97607)
(-12.8811 4.54185e+06 0 15.2395 0 -2.35844)
(-16.914 4.57689e+06 0 20.0217 0 -3.10768)
(-21.0246 4.57744e+06 0 24.2644 0 -3.23983)
(-25.4238 4.51224e+06 0 27.8854 0 -2.46163)
(-32.8049 4.35519e+06 0 34.5576 0 -1.75275)
(-50.2828 4.09528e+06 0 58.1718 0 -7.88905)
(19.6686 3.75552e+06 0 -18.0988 0 -1.56978)
(-3831.5 1.3614e+06 4.04306e-18 6546.54 1.50715e-20 -2715.05)
(-1.04388 4.2461e+06 0 1.59542 0 -0.551534)
(-3.01222 4.27877e+06 0 4.47306 0 -1.46084)
(-4.81711 4.31529e+06 0 6.91248 0 -2.09537)
(-6.50509 4.35549e+06 0 8.96821 0 -2.46313)
(-7.80928 4.39936e+06 0 10.0615 0 -2.25223)
(-9.48062 4.44444e+06 0 11.5897 0 -2.10907)
(-11.7186 4.48648e+06 0 13.8164 0 -2.09782)
(-14.8351 4.51394e+06 0 17.2219 0 -2.38674)
(-19.0471 4.50857e+06 0 22.0701 0 -3.023)
(-23.3009 4.43923e+06 0 26.3768 0 -3.07584)
(-27.9842 4.27893e+06 0 30.3271 0 -2.34299)
(-35.6105 4.01816e+06 -1.57734e-17 37.3373 -3.93834e-23 -1.72677)
(-53.8717 3.6756e+06 0 62.3569 0 -8.48526)
(8.26117 3.30121e+06 -1.49488e-17 -9.12021 1.5687e-23 0.859035)
(-3603.01 1.33786e+06 -4.73515e-18 6092.52 -1.6226e-20 -2489.51)
(-0.512756 4.21975e+06 0 0.557239 0 -0.0444832)
(-2.32076 4.24976e+06 0 3.15689 0 -0.836127)
(-4.27744 4.28318e+06 0 5.94502 0 -1.66758)
(-6.25867 4.32019e+06 0 8.65705 0 -2.39838)
(-7.93991 4.36009e+06 0 10.5936 0 -2.65373)
(-9.33988 4.40112e+06 0 11.7459 0 -2.40601)
(-11.1327 4.43769e+06 0 13.3447 0 -2.21195)
(-13.5213 4.45984e+06 0 15.6601 0 -2.13876)
(-16.7921 4.44814e+06 0 19.134 0 -2.3419)
(-21.137 4.37894e+06 0 24.0214 0 -2.88445)
(-25.389 4.2168e+06 0 28.2732 0 -2.88422)
(-30.2496 3.95781e+06 0 32.4643 0 -2.21469)
(-37.9951 3.61678e+06 1.43498e-17 39.7076 3.5829e-23 -1.71254)
(-56.9125 3.23723e+06 0 65.9245 0 -9.01194)
(-12.2934 2.87708e+06 1.35318e-17 7.52299 -1.41867e-23 4.77037)
(-3375.96 1.19691e+06 4.29432e-18 5684.49 1.43571e-20 -2308.53)
(-0.263858 4.19614e+06 0 0.0816717 0 0.182187)
(-1.93665 4.22337e+06 0 2.46185 0 -0.5252)
(-3.71522 4.25409e+06 0 4.93348 0 -1.21827)
(-5.69733 4.28801e+06 0 7.69249 0 -1.99516)
(-7.66005 4.32467e+06 0 10.2716 0 -2.61157)
(-9.39707 4.36186e+06 0 12.1969 0 -2.79978)
(-10.8788 4.39468e+06 0 13.3669 0 -2.48803)
(-12.7913 4.41216e+06 0 15.0269 0 -2.23565)
(-15.3122 4.39673e+06 0 17.4071 0 -2.09489)
(-18.7328 4.32203e+06 0 20.9659 0 -2.23316)
(-23.0871 4.16539e+06 0 25.7742 0 -2.68713)
(-27.2879 3.90803e+06 0 29.9684 0 -2.68047)
(-32.1492 3.57094e+06 0 34.2403 0 -2.09106)
(-39.978 3.19201e+06 0 41.6968 0 -1.71888)
(-58.4484 2.82191e+06 0 66.7288 0 -8.2804)
(-33.5671 2.49467e+06 -1.40995e-17 24.9824 9.37547e-24 8.58472)
(-3167.93 1.07659e+06 -4.66756e-18 5307.91 -1.523e-20 -2139.98)
(-0.127834 4.17454e+06 0 -0.170468 0 0.298302)
(-1.76502 4.1997e+06 0 2.18504 0 -0.420023)
(-3.34643 4.22765e+06 0 4.31822 0 -0.971785)
(-5.08821 4.25885e+06 0 6.63509 0 -1.54687)
(-7.08592 4.29244e+06 0 9.33 0 -2.24408)
(-9.06942 4.32647e+06 0 11.8389 0 -2.76947)
(-10.84 4.35572e+06 0 13.6979 0 -2.85783)
(-12.4248 4.37011e+06 0 14.9209 0 -2.49611)
(-14.4396 4.35129e+06 0 16.6195 0 -2.17993)
(-17.0469 4.27536e+06 0 19.0176 0 -1.97072)
(-20.5903 4.11692e+06 0 22.6613 0 -2.07098)
(-24.8095 3.86525e+06 0 27.2988 0 -2.48935)
(-28.9042 3.5325e+06 0 31.397 0 -2.4928)
(-33.7333 3.15649e+06 0 35.7184 0 -1.98507)
(-41.7111 2.78535e+06 0 43.4124 0 -1.70135)
(-57.659 2.44628e+06 0 62.9804 0 -5.3214)
(-54.6201 2.14825e+06 -1.42997e-17 39.7804 -6.9549e-25 14.8397)
(-2975.92 941071 4.21994e-18 4968.6 1.34985e-20 -1992.68)
(-0.186366 4.15509e+06 0 -0.034699 0 0.221065)
(-1.65226 4.17809e+06 0 2.01886 0 -0.366604)
(-3.12469 4.20391e+06 0 3.98805 0 -0.863362)
(-4.67587 4.23234e+06 0 5.9839 0 -1.30802)
(-6.45924 4.26323e+06 8.95577e-19 8.28717 6.56176e-25 -1.82792)
(-8.47814 4.29426e+06 9.94984e-19 10.9163 1.0519e-24 -2.43821)
(-10.4797 4.32064e+06 0 13.3367 0 -2.85698)
(-12.3009 4.33237e+06 0 15.1564 0 -2.85556)
(-13.9379 4.3113e+06 0 16.3583 0 -2.42041)
(-16.0419 4.23424e+06 0 18.0983 0 -2.05634)
(-18.6356 4.07638e+06 0 20.4215 0 -1.7859)
(-22.1885 3.82799e+06 1.81331e-17 24.0748 3.62591e-23 -1.88628)
(-26.2588 3.4998e+06 0 28.5534 0 -2.29463)
(-30.2293 3.12599e+06 0 32.5532 0 -2.32382)
(-35.1361 2.75646e+06 0 37.0029 0 -1.86686)
(-43.2705 2.41666e+06 0 44.9394 0 -1.66894)
(-56.3012 2.10705e+06 0 58.2636 0 -1.96244)
(-75.648 1.83833e+06 1.14974e-17 53.4423 -9.25024e-24 22.2056)
(-2836.1 836610 0 4692.19 0 -1856.1)
(-0.283015 4.13729e+06 0 0.17529 0 0.107726)
(-1.56308 4.15859e+06 0 1.89828 0 -0.335208)
(-2.96575 4.18226e+06 0 3.77066 0 -0.804914)
(-4.4128 4.20854e+06 0 5.61726 0 -1.20446)
(-6.0146 4.23665e+06 0 7.62407 0 -1.60948)
(-7.81178 4.26506e+06 -8.48125e-19 9.84445 -6.21408e-25 -2.03267)
(-9.86027 4.28865e+06 -9.34289e-19 12.4116 -9.87735e-25 -2.55131)
(-11.895 4.29771e+06 0 14.7705 0 -2.87556)
(-13.7641 4.27679e+06 0 16.5609 0 -2.79682)
(-15.3651 4.19744e+06 0 17.6529 0 -2.28779)
(-17.5227 4.04208e+06 0 19.3939 0 -1.87122)
(-20.0229 3.79486e+06 0 21.5963 0 -1.57344)
(-23.502 3.4713e+06 -1.64965e-17 25.1926 -3.29866e-23 -1.6906)
(-27.4187 3.10127e+06 0 29.5311 0 -2.1124)
(-31.3964 2.732e+06 1.63951e-17 33.5546 5.4618e-23 -2.15819)
(-36.3581 2.39398e+06 0 38.1041 0 -1.74598)
(-44.6129 2.08448e+06 0 46.267 0 -1.65409)
(-55.8847 1.80317e+06 0 55.6579 0 0.226777)
(-95.6752 1.56728e+06 -1.27188e-17 66.15 -1.54773e-23 29.5252)
(-2765.21 788178 -9.7943e-18 4479.53 -2.74761e-20 -1714.32)
(-0.565016 4.12114e+06 0 0.755446 0 -0.19043)
(-1.5933 4.14076e+06 0 2.00813 0 -0.414826)
(-2.83562 4.16272e+06 0 3.60509 0 -0.769468)
(-4.20857 4.18681e+06 0 5.35209 0 -1.14352)
(-5.70671 4.21281e+06 0 7.21762 0 -1.51091)
(-7.3352 4.23851e+06 0 9.17363 0 -1.83843)
(-9.17446 4.25965e+06 0 11.3554 0 -2.18091)
(-11.252 4.26643e+06 0 13.8543 0 -2.60232)
(-13.3199 4.24243e+06 0 16.1483 0 -2.82835)
(-15.1489 4.1662e+06 0 17.7852 0 -2.63628)
(-16.7411 4.00944e+06 0 18.8435 0 -2.10245)
(-18.8096 3.76716e+06 0 20.4572 0 -1.64765)
(-21.2057 3.44615e+06 0 22.5622 0 -1.35651)
(-24.5753 3.08029e+06 0 26.0856 0 -1.51033)
(-28.3702 2.71208e+06 0 30.3196 0 -1.94939)
(-32.4051 2.37509e+06 1.07231e-18 34.3979 8.21489e-24 -1.99279)
(-37.3824 2.0672e+06 0 39.0317 0 -1.64933)
(-45.7431 1.78623e+06 -2.70734e-17 47.3994 -1.3168e-22 -1.65625)
(-56.2128 1.53639e+06 0 54.6692 0 1.54361)
(-114.03 1.33362e+06 -9.80605e-19 77.8142 -1.52934e-23 36.2161)
(-2700.78 732245 -5.11459e-19 4288.9 -2.0525e-21 -1588.12)
(-0.683216 4.10646e+06 0 1.0055 0 -0.322279)
(-1.65311 4.12458e+06 0 2.17678 0 -0.523677)
(-2.8207 4.14483e+06 0 3.66005 0 -0.839346)
(-4.03472 4.16725e+06 0 5.13872 0 -1.104)
(-5.4562 4.19106e+06 0 6.90466 0 -1.44846)
(-6.97526 4.21469e+06 0 8.71589 0 -1.74063)
(-8.65724 4.2333e+06 0 10.6649 0 -2.00767)
(-10.5336 4.23809e+06 0 12.792 0 -2.25845)
(-12.6256 4.21268e+06 0 15.2057 0 -2.58009)
(-14.7353 4.13468e+06 0 17.4409 0 -2.70558)
(-16.458 3.98139e+06 0 18.9107 0 -2.45271)
(-17.9992 3.74047e+06 0 19.8879 0 -1.88874)
(-19.9001 3.42393e+06 0 21.3204 0 -1.42036)
(-22.1695 3.06133e+06 0 23.3279 0 -1.15841)
(-25.4355 2.69594e+06 1.7719e-17 26.7939 4.59082e-23 -1.35841)
(-29.2436 2.35905e+06 0 31.0297 0 -1.78615)
(-33.2707 2.05271e+06 9.26765e-19 35.1186 8.34487e-24 -1.84787)
(-38.2833 1.77269e+06 -1.40118e-17 39.8638 -6.23927e-23 -1.58042)
(-46.7437 1.52291e+06 2.43701e-17 48.4157 1.18532e-22 -1.67202)
(-56.8539 1.30541e+06 2.3356e-17 54.3641 1.9187e-22 2.48981)
(-130.628 1.13427e+06 -2.21827e-17 88.5704 -6.21102e-23 42.0574)
(-2637.19 680877 3.13746e-17 4105.79 7.47649e-20 -1468.6)
(-0.486769 4.09312e+06 0 0.624811 0 -0.138042)
(-1.67285 4.10985e+06 0 2.2573 0 -0.584444)
(-2.81645 4.12862e+06 0 3.7326 0 -0.916145)
(-3.97836 4.14931e+06 -4.63451e-19 5.14576 -1.89379e-25 -1.1674)
(-5.23883 4.17142e+06 0 6.64516 0 -1.40633)
(-6.67884 4.19294e+06 0 8.35628 0 -1.67744)
(-8.242 4.20967e+06 0 10.1493 0 -1.9073)
(-9.95128 4.21228e+06 0 12.0338 0 -2.08253)
(-11.8646 4.1857e+06 0 14.1174 0 -2.25276)
(-13.9486 4.10766e+06 0 16.4388 0 -2.49027)
(-16.0182 3.95561e+06 0 18.5707 0 -2.55254)
(-17.5851 3.71761e+06 0 19.8199 0 -2.23478)
(-19.0224 3.40418e+06 0 20.7008 0 -1.67836)
(-20.7665 3.04463e+06 0 21.9777 0 -1.21117)
(-22.9614 2.68098e+06 0 23.9485 0 -0.987108)
(-26.2097 2.3456e+06 1.17366e-18 27.4047 7.1552e-24 -1.19503)
(-30.0063 2.04024e+06 0 31.6473 0 -1.64106)
(-34.0221 1.76151e+06 7.95294e-19 35.7616 8.46558e-24 -1.73958)
(-39.0859 1.51227e+06 -6.48547e-19 40.6317 -9.04402e-24 -1.54574)
(-47.6538 1.29456e+06 0 49.3604 0 -1.70662)
(-57.7291 1.10796e+06 -2.09934e-17 54.5394 -1.72462e-22 3.18969)
(-146.157 965635 1.84689e-17 98.9373 2.14465e-23 47.2196)
(-2576.36 633120 8.84444e-19 3931.49 3.69261e-21 -1355.14)
(-0.331253 4.081e+06 0 0.324505 0 0.0067488)
(-1.61221 4.09652e+06 0 2.17308 0 -0.560877)
(-2.75822 4.11387e+06 0 3.68667 0 -0.928446)
(-3.93503 4.13305e+06 0 5.17591 0 -1.24089)
(-5.13861 4.15348e+06 4.43069e-19 6.60115 1.8105e-25 -1.46254)
(-6.41334 4.17333e+06 0 8.04544 0 -1.6321)
(-7.89358 4.18806e+06 0 9.73605 0 -1.84247)
(-9.49737 4.18914e+06 -1.40175e-18 11.4995 -1.3006e-24 -2.00218)
(-11.2466 4.16131e+06 0 13.3511 0 -2.10442)
(-13.1415 4.08293e+06 0 15.3249 0 -2.1834)
(-15.1692 3.9321e+06 0 17.5126 0 -2.34341)
(-17.1218 3.69742e+06 1.11953e-17 19.4849 2.14155e-23 -2.3631)
(-18.49 3.38676e+06 0 20.4976 0 -2.00755)
(-19.8173 3.03043e+06 0 21.2939 0 -1.47663)
(-21.4481 2.66835e+06 1.92632e-17 22.4764 4.3627e-23 -1.02831)
(-23.6561 2.33331e+06 -1.79128e-17 24.4782 -4.55152e-23 -0.822094)
(-26.9159 2.02956e+06 1.01552e-18 27.9686 7.26067e-24 -1.05271)
(-30.667 1.75202e+06 0 32.1894 0 -1.52246)
(-34.68 1.50365e+06 6.78875e-19 36.3463 8.58101e-24 -1.66629)
(-39.8113 1.28616e+06 -5.51579e-19 41.3566 -9.19939e-24 -1.54533)
(-48.4823 1.09906e+06 0 50.2425 0 -1.7602)
(-58.7594 940829 -4.07162e-17 55.0067 -3.85237e-22 3.75267)
(-161.15 823986 1.78598e-17 109.265 5.34424e-23 51.8844)
(-2520.74 585481 -4.32429e-17 3771.23 -9.12961e-20 -1250.49)
(-0.35309 4.06989e+06 0 0.377002 0 -0.0239119)
(-1.57435 4.08434e+06 0 2.12969 0 -0.555336)
(-2.68261 4.1005e+06 0 3.59683 0 -0.914224)
(-3.86008 4.11829e+06 0 5.12429 0 -1.26421)
(-5.04586 4.1372e+06 0 6.5684 0 -1.52254)
(-6.26774 4.15538e+06 0 7.94951 0 -1.68177)
(-7.58062 4.16857e+06 0 9.3753 0 -1.79468)
(-9.09969 4.16796e+06 0 11.0361 0 -1.93643)
(-10.7289 4.13903e+06 1.29796e-18 12.748 1.2043e-24 -2.0191)
(-12.4925 4.06151e+06 0 14.5554 0 -2.06291)
(-14.2858 3.9109e+06 0 16.3469 0 -2.06114)
(-16.2566 3.67831e+06 0 18.4369 0 -2.18027)
(-17.9839 3.37136e+06 -1.01849e-17 20.1189 -1.94827e-23 -2.13503)
(-19.2293 3.01735e+06 0 21.0383 0 -1.80899)
(-20.4468 2.6576e+06 0 21.7442 0 -1.29738)
(-22.03 2.3229e+06 -1.74051e-17 22.8797 -3.94188e-23 -0.849754)
(-24.2923 2.01973e+06 1.61603e-17 24.95 4.10621e-23 -0.657661)
(-27.537 1.74376e+06 -1.48838e-17 28.48 -4.60786e-23 -0.943008)
(-31.2492 1.49635e+06 0 32.6972 0 -1.44796)
(-35.276 1.27937e+06 -1.23861e-17 36.9089 -5.85466e-23 -1.63293)
(-40.4909 1.09227e+06 -1.21536e-17 42.0703 -7.97044e-23 -1.57945)
(-49.2713 933223 0 51.0971 0 -1.82578)
(-59.9378 800556 -1.23921e-18 55.7108 -3.9847e-23 4.22698)
(-175.57 705397 -3.41896e-17 119.56 -1.80665e-22 56.0099)
(-2469.59 538527 -7.52301e-19 3624.15 -3.33784e-21 -1154.56)
(-0.278439 4.05966e+06 0 0.235246 0 0.0431928)
(-1.61745 4.07323e+06 0 2.24217 0 -0.624716)
(-2.60802 4.0883e+06 0 3.50134 0 -0.893317)
(-3.72965 4.10486e+06 0 4.95082 0 -1.22117)
(-4.94725 4.12236e+06 0 6.50044 0 -1.55319)
(-6.13274 4.13912e+06 -6.86962e-19 7.86898 -4.63575e-25 -1.73624)
(-7.38789 4.15072e+06 0 9.22666 0 -1.83877)
(-8.7339 4.14887e+06 0 10.6182 0 -1.88427)
(-10.2735 4.1188e+06 0 12.2238 0 -1.95035)
(-11.9302 4.0403e+06 0 13.9038 0 -1.97362)
(-13.6117 3.89247e+06 0 15.5419 0 -1.93022)
(-15.3009 3.6613e+06 0 17.2007 0 -1.89987)
(-17.1478 3.35716e+06 1.18487e-17 19.1593 2.24106e-23 -2.01147)
(-18.6893 3.0061e+06 0 20.643 0 -1.95373)
(-19.791 2.64763e+06 0 21.4099 0 -1.6189)
(-20.9756 2.31428e+06 9.76597e-18 22.0971 2.42446e-23 -1.12152)
(-22.5617 2.01135e+06 1.79799e-17 23.237 4.81289e-23 -0.67531)
(-24.8425 1.73628e+06 0 25.3794 0 -0.536963)
(-28.0737 1.49003e+06 0 28.9403 0 -0.866664)
(-31.7796 1.27362e+06 0 33.1877 0 -1.40814)
(-35.8376 1.08685e+06 0 37.4697 0 -1.63202)
(-41.1418 927641 2.09952e-17 42.7908 1.26391e-22 -1.64893)
(-50.0295 793859 0 51.9357 0 -1.90623)
(-61.241 684534 6.89267e-17 56.6124 7.32848e-22 4.6286)
(-189.137 606700 3.06826e-17 129.519 1.62288e-22 59.6181)
(-2420.76 493319 6.55851e-17 3486.5 1.28427e-19 -1065.74)
(-0.125554 4.05023e+06 0 -0.0632982 0 0.188852)
(-1.55842 4.06297e+06 0 2.14784 0 -0.589419)
(-2.6206 4.07716e+06 0 3.57212 0 -0.951522)
(-3.62271 4.09266e+06 0 4.81445 0 -1.19174)
(-4.80131 4.10894e+06 0 6.32234 0 -1.52103)
(-5.99924 4.12429e+06 0 7.76241 0 -1.76317)
(-7.20302 4.13456e+06 6.45062e-19 9.08673 4.353e-25 -1.88371)
(-8.48697 4.13139e+06 0 10.4063 0 -1.91931)
(-9.8595 4.10055e+06 0 11.7607 0 -1.90122)
(-11.402 4.02194e+06 0 13.298 0 -1.89601)
(-13.0585 3.87413e+06 0 14.9206 0 -1.8621)
(-14.6113 3.64582e+06 0 16.3984 0 -1.7871)
(-16.1504 3.34418e+06 0 17.884 0 -1.73366)
(-17.8111 2.99592e+06 -1.07501e-17 19.6403 -2.03328e-23 -1.82915)
(-19.224 2.63926e+06 1.09956e-17 21.0272 2.59626e-23 -1.80324)
(-20.2801 2.30644e+06 0 21.723 0 -1.44295)
(-21.4285 2.00436e+06 5.85277e-19 22.3777 3.40574e-24 -0.949171)
(-23.0274 1.72984e+06 -1.62014e-17 23.5654 -4.33683e-23 -0.537985)
(-25.3352 1.48435e+06 0 25.7871 0 -0.451897)
(-28.5615 1.26869e+06 2.81242e-17 29.3911 1.15068e-22 -0.829615)
(-32.2784 1.08226e+06 0 33.6853 0 -1.40695)
(-36.3744 923198 0 38.046 0 -1.67164)
(-41.7846 789153 0 43.5363 0 -1.75167)
(-50.813 678486 0 52.83 0 -2.017)
(-62.6488 589203 9.12053e-19 57.7981 4.09797e-23 4.85074)
(-201.721 524891 0 139.003 0 62.7176)
(-2372.23 450614 -8.62393e-17 3354.64 -1.62583e-19 -982.417)
(0.250445 4.04151e+06 0 -0.808124 0 0.557679)
(-1.37439 4.05354e+06 0 1.80015 0 -0.425769)
(-2.54375 4.06686e+06 0 3.4573 0 -0.913545)
(-3.57384 4.08148e+06 0 4.7792 0 -1.20536)
(-4.68113 4.0967e+06 0 6.18314 0 -1.502)
(-5.82947 4.11084e+06 0 7.56717 0 -1.73771)
(-7.0349 4.11983e+06 0 8.94263 0 -1.90772)
(-8.25549 4.1155e+06 0 10.2132 0 -1.95769)
(-9.56355 4.08384e+06 0 11.4917 0 -1.92819)
(-10.9392 4.00493e+06 0 12.7874 0 -1.84825)
(-12.4413 3.85853e+06 0 14.2258 0 -1.78452)
(-13.9892 3.63153e+06 0 15.7063 0 -1.71705)
(-15.4306 3.3324e+06 0 17.0613 0 -1.63068)
(-16.8138 2.98661e+06 0 18.3909 0 -1.57707)
(-18.3349 2.63167e+06 0 20.023 0 -1.68811)
(-19.6472 2.29958e+06 7.44225e-19 21.2682 3.70388e-24 -1.62103)
(-20.702 1.99826e+06 0 21.974 0 -1.27198)
(-21.8357 1.72439e+06 5.03525e-19 22.643 3.42375e-24 -0.807236)
(-23.453 1.47927e+06 1.62678e-17 23.8955 5.18033e-23 -0.442489)
(-25.7777 1.2643e+06 0 26.1766 0 -0.398919)
(-29.0219 1.07831e+06 -2.52796e-17 29.8537 -1.0343e-22 -0.831831)
(-32.7629 919507 0 34.2028 0 -1.43981)
(-36.9136 785415 2.10497e-17 38.6613 1.46111e-22 -1.74766)
(-42.444 674267 0 44.342 0 -1.89805)
(-51.6801 583611 0 53.882 0 -2.20183)
(-64.2301 509575 -8.85613e-17 59.3998 -1.1285e-21 4.83036)
(-213.626 456488 -5.35542e-17 148.564 -5.737e-22 65.0624)
(-2322.06 411519 -1.14975e-18 3224.54 -5.7653e-21 -902.484)
(0.967166 4.03344e+06 0 -2.23455 0 1.26738)
(-1.06469 4.0448e+06 0 1.20296 0 -0.138263)
(-2.44098 4.05741e+06 0 3.2882 0 -0.847218)
(-3.48706 4.07119e+06 0 4.66137 0 -1.1743)
(-4.64114 4.08551e+06 0 6.1866 0 -1.54545)
(-5.69268 4.09862e+06 0 7.41867 0 -1.72599)
(-6.83482 4.10648e+06 0 8.71707 0 -1.88225)
(-8.04725 4.10106e+06 0 10.026 0 -1.97873)
(-9.2781 4.06862e+06 0 11.2347 0 -1.95661)
(-10.5869 3.98959e+06 0 12.4501 0 -1.86312)
(-11.9426 3.8435e+06 0 13.6753 0 -1.73267)
(-13.3302 3.61884e+06 0 14.9528 0 -1.62258)
(-14.7602 3.32159e+06 0 16.3104 0 -1.55011)
(-16.0566 2.97791e+06 -1.29037e-17 17.5304 -2.24249e-23 -1.4739)
(-17.3278 2.62475e+06 0 18.7679 0 -1.44006)
(-18.7774 2.29345e+06 0 20.3246 0 -1.54718)
(-20.0446 1.99286e+06 -9.63454e-18 21.5015 -2.45051e-23 -1.45682)
(-21.0507 1.71969e+06 9.38072e-18 22.1801 2.81366e-23 -1.12939)
(-22.1991 1.47516e+06 4.30749e-19 22.9071 3.44783e-24 -0.708023)
(-23.8437 1.26037e+06 6.98968e-19 24.2333 6.82763e-24 -0.389641)
(-26.2002 1.07483e+06 0 26.5926 0 -0.392411)
(-29.4767 916245 2.45965e-17 30.3482 1.22332e-22 -0.871562)
(-33.2419 782280 -2.19249e-17 34.7496 -1.38355e-22 -1.50773)
(-37.4725 670964 -1.88958e-17 39.3384 -1.3116e-22 -1.86587)
(-43.1732 579755 0 45.2657 0 -2.09249)
(-52.6446 504369 0 55.1032 0 -2.45859)
(-65.9064 441944 -1.36821e-18 61.1444 -8.72768e-23 4.76193)
(-224.883 398515 4.80341e-17 158.131 5.21127e-22 66.7519)
(-2268.33 377436 4.11011e-17 3091.56 7.20763e-20 -823.236)
(2.33814 4.02591e+06 0 -4.97007 0 2.63193)
(-0.681348 4.03671e+06 0 0.45759 0 0.223757)
(-2.2652 4.04865e+06 0 2.97228 0 -0.707083)
(-3.378 4.06166e+06 0 4.49458 0 -1.11658)
(-4.59057 4.0752e+06 0 6.15463 0 -1.56407)
(-5.65378 4.08741e+06 0 7.44455 0 -1.79077)
(-6.67429 4.09431e+06 0 8.54777 0 -1.87348)
(-7.81572 4.08794e+06 0 9.76975 0 -1.95403)
(-9.02803 4.05476e+06 0 10.9997 0 -1.97168)
(-10.2496 3.97563e+06 0 12.1309 0 -1.88129)
(-11.5227 3.8301e+06 0 13.2652 0 -1.7425)
(-12.8312 3.60668e+06 0 14.413 0 -1.5818)
(-14.0782 3.31158e+06 0 15.5363 0 -1.45809)
(-15.3723 2.97007e+06 0 16.7639 0 -1.39159)
(-16.5471 2.61825e+06 1.16808e-17 17.8785 2.02996e-23 -1.33139)
(-17.748 2.28785e+06 0 19.0468 0 -1.29881)
(-19.1534 1.98796e+06 1.08126e-17 20.547 2.78779e-23 -1.39362)
(-20.3786 1.71571e+06 0 21.7036 0 -1.32508)
(-21.3583 1.47151e+06 -8.44426e-18 22.3797 -2.53278e-23 -1.02145)
(-22.5327 1.2571e+06 8.38393e-18 23.1783 3.12714e-23 -0.645609)
(-24.2192 1.07173e+06 5.94355e-19 24.5865 6.91934e-24 -0.367227)
(-26.6083 913367 0 27.0252 0 -0.416908)
(-29.9367 779526 7.80099e-19 30.8792 1.59225e-23 -0.942428)
(-33.7487 668186 -6.35157e-19 35.3583 -1.75702e-23 -1.60953)
(-38.0864 576716 0 40.115 0 -2.02856)
(-43.9535 500877 0 46.2917 0 -2.33828)
(-53.6637 437111 0 56.4235 0 -2.75987)
(-67.7286 384293 9.94987e-17 63.0583 1.5029e-21 4.67032)
(-235.704 348999 0 167.893 0 67.8111)
(-2209.92 349835 0 2952 0 -742.083)
(4.43783 4.01887e+06 0 -9.1615 0 4.72367)
(-0.0170462 4.02915e+06 0 -0.852305 0 0.869351)
(-2.01728 4.04055e+06 0 2.51128 0 -0.494008)
(-3.16583 4.0529e+06 0 4.12174 0 -0.955911)
(-4.4357 4.06566e+06 0 5.91295 0 -1.47725)
(-5.61661 4.07708e+06 0 7.45871 0 -1.8421)
(-6.61575 4.08317e+06 0 8.55479 0 -1.93904)
(-7.63357 4.07597e+06 0 9.58274 0 -1.94917)
(-8.76465 4.04218e+06 0 10.7108 0 -1.94614)
(-9.95683 3.96272e+06 0 11.8476 0 -1.89081)
(-11.1427 3.81776e+06 0 12.8868 0 -1.74413)
(-12.3462 3.59576e+06 -1.55238e-17 13.9176 -1.99785e-23 -1.57139)
(-13.5313 3.30244e+06 -1.49309e-17 14.9448 -2.1077e-23 -1.41345)
(-14.6641 2.96274e+06 0 15.9597 0 -1.29568)
(-15.8365 2.61234e+06 0 17.0899 0 -1.25339)
(-16.9491 2.28277e+06 -1.23173e-17 18.137 -2.52985e-23 -1.1879)
(-18.1109 1.98362e+06 0 19.2648 0 -1.15389)
(-19.4655 1.71207e+06 -9.7428e-18 20.7319 -2.51195e-23 -1.26642)
(-20.6542 1.46857e+06 0 21.8776 0 -1.22344)
(-21.6337 1.25439e+06 8.38743e-18 22.581 2.96315e-23 -0.947302)
(-22.8454 1.06909e+06 6.24355e-19 23.4661 7.03341e-24 -0.62074)
(-24.5844 910863 -1.29134e-17 24.9681 -4.93533e-23 -0.383767)
(-27.0169 777067 0 27.4849 0 -0.467973)
(-30.4129 665755 -2.05276e-17 31.4607 -1.12905e-22 -1.0478)
(-34.2932 574195 1.82325e-17 36.0476 1.27226e-22 -1.75442)
(-38.7487 498183 0 40.9827 0 -2.23392)
(-44.7706 433979 0 47.3919 0 -2.6213)
(-54.7287 379735 0 57.8168 0 -3.08805)
(-68.85 335009 -4.51513e-17 63.4254 -6.76473e-22 5.42462)
(-246.383 306599 0 178.033 0 68.3505)
(-2149.98 327505 8.03375e-17 2810.06 1.41289e-19 -660.087)
(6.40998 4.01236e+06 0 -13.097 0 6.68707)
(1.03712 4.02212e+06 0 -2.93491 0 1.89779)
(-1.50026 4.03299e+06 0 1.51043 0 -0.0101755)
(-2.92963 4.04477e+06 0 3.70054 0 -0.770902)
(-4.1287 4.05689e+06 0 5.36815 0 -1.23945)
(-5.60313 4.06759e+06 0 7.51597 0 -1.91283)
(-6.55059 4.0729e+06 -1.02531e-18 8.53421 -7.65038e-25 -1.98361)
(-7.5591 4.06505e+06 0 9.58152 0 -2.02242)
(-8.55622 4.03067e+06 0 10.5023 0 -1.94609)
(-9.66233 3.95112e+06 0 11.5276 0 -1.86525)
(-10.8102 3.80649e+06 0 12.5552 0 -1.74505)
(-11.925 3.58536e+06 0 13.4914 0 -1.56642)
(-13.0184 3.29404e+06 1.41234e-17 14.3972 1.81762e-23 -1.37883)
(-14.0792 2.95577e+06 1.3546e-17 15.318 1.9122e-23 -1.23881)
(-15.1227 2.60683e+06 0 16.2627 0 -1.14001)
(-16.2313 2.27796e+06 0 17.3361 0 -1.10475)
(-17.3027 1.9796e+06 1.11125e-17 18.3454 2.28241e-23 -1.04278)
(-18.4106 1.70895e+06 -1.08189e-17 19.4478 -2.78173e-23 -1.03725)
(-19.7333 1.46596e+06 0 20.918 0 -1.18472)
(-20.8971 1.25211e+06 0 22.0584 0 -1.16127)
(-21.895 1.067e+06 3.27973e-19 22.8063 3.64516e-24 -0.911326)
(-23.1623 908739 5.30707e-19 23.7887 7.12925e-24 -0.626413)
(-24.9528 774991 0 25.3836 0 -0.430715)
(-27.4499 663627 0 28.0125 0 -0.562669)
(-30.9252 572012 3.91847e-17 32.1152 2.65174e-22 -1.18995)
(-34.8834 495914 0 36.8171 0 -1.93372)
(-39.437 431563 0 41.9137 0 -2.4767)
(-45.6201 376923 0 48.5567 0 -2.93661)
(-55.85 330679 0 59.2953 0 -3.44533)
(-70.1875 292767 0 64.0539 0 6.1336)
(-257.428 270249 0 188.982 0 68.4459)
(-2086.53 300054 -7.59192e-17 2676.74 -1.25704e-19 -590.209)
(7.94494 4.00625e+06 0 -16.1588 0 8.21382)
(2.07821 4.0156e+06 0 -4.99079 0 2.91257)
(-0.846922 4.02594e+06 0 0.246704 0 0.600218)
(-2.69808 4.03722e+06 0 3.28416 0 -0.586082)
(-3.61078 4.04872e+06 0 4.40006 0 -0.789282)
(-5.4902 4.0588e+06 0 7.37337 0 -1.88317)
(-6.5355 4.06344e+06 0 8.6055 0 -2.07)
(-7.47828 4.05495e+06 9.55577e-19 9.54821 7.13009e-25 -2.06993)
(-8.46123 4.02017e+06 0 10.484 0 -2.02279)
(-9.42786 3.94045e+06 0 11.295 0 -1.86718)
(-10.48 3.79631e+06 0 12.2004 0 -1.72044)
(-11.5412 3.57625e+06 0 13.1016 0 -1.56034)
(-12.568 3.28609e+06 0 13.9391 0 -1.37111)
(-13.546 2.94943e+06 -1.55796e-17 14.7482 -2.35394e-23 -1.20218)
(-14.5373 2.6015e+06 -1.45976e-17 15.6202 -2.43219e-23 -1.08291)
(-15.4988 2.27352e+06 0 16.4894 0 -0.990571)
(-16.5631 1.97589e+06 0 17.516 0 -0.952863)
(-17.5865 1.70591e+06 0 18.5089 0 -0.922468)
(-18.6593 1.46355e+06 -5.27412e-19 19.6087 -3.70421e-24 -0.949399)
(-19.98 1.25013e+06 9.24219e-18 21.1087 3.05961e-23 -1.12864)
(-21.1396 1.06515e+06 1.6476e-17 22.2642 6.28023e-23 -1.12462)
(-22.1608 906942 7.62502e-18 23.0656 3.45701e-23 -0.904773)
(-23.489 773207 4.51556e-19 24.1529 7.24655e-24 -0.663923)
(-25.3371 661729 2.31388e-17 25.85 1.18371e-22 -0.512908)
(-27.9266 570069 0 28.6135 0 -0.68686)
(-31.4766 493955 9.88635e-19 32.8406 3.42296e-23 -1.36393)
(-35.4972 429586 3.18904e-17 37.645 3.04589e-22 -2.1478)
(-40.1574 374757 5.62403e-17 42.9087 6.60202e-22 -2.75127)
(-46.5005 328116 0 49.7834 0 -3.28298)
(-57.0371 288593 0 60.8679 0 -3.83084)
(-71.7834 256464 0 64.9915 0 6.79185)
(-269.309 239016 0 201.597 0 67.7126)
(-1982.29 254136 0 2539.88 0 -557.588)
(8.49986 4.00051e+06 0 -17.2607 0 8.76089)
(2.85053 4.00946e+06 0 -6.51318 0 3.66266)
(-0.199602 4.01938e+06 0 -1.00604 0 1.20564)
(-2.05214 4.03014e+06 0 2.04956 0 0.00258396)
(-3.46793 4.04115e+06 0 4.17366 0 -0.705728)
(-4.84204 4.05063e+06 0 6.16168 0 -1.31964)
(-6.50293 4.0547e+06 0 8.64083 0 -2.13789)
(-7.38266 4.04564e+06 0 9.47789 0 -2.09523)
(-8.37005 4.01046e+06 0 10.4482 0 -2.07817)
(-9.3127 3.93068e+06 0 11.2606 0 -1.94785)
(-10.2233 3.78697e+06 0 11.9456 0 -1.72227)
(-11.1841 3.5678e+06 0 12.7176 0 -1.53353)
(-12.1359 3.27889e+06 0 13.491 0 -1.35509)
(-13.0656 2.94375e+06 0 14.2407 0 -1.17512)
(-13.9414 2.59675e+06 1.41034e-17 14.9748 2.13089e-23 -1.03336)
(-14.8813 2.26935e+06 1.31895e-17 15.8048 2.19757e-23 -0.923496)
(-15.8099 1.97236e+06 0 16.6367 0 -0.826743)
(-16.8408 1.70323e+06 0 17.6657 0 -0.824937)
(-17.8347 1.46133e+06 0 18.6668 0 -0.83213)
(-18.8954 1.24825e+06 -4.49825e-19 19.7864 -3.7257e-24 -0.890987)
(-20.1977 1.06363e+06 3.64126e-19 21.2922 3.83196e-24 -1.09447)
(-21.3671 905524 -1.48017e-17 22.4867 -5.64201e-23 -1.11963)
(-22.4298 771723 -1.31935e-17 23.3615 -5.54697e-23 -0.93167)
(-23.8276 660209 -1.17219e-17 24.5634 -5.35274e-23 -0.735811)
(-25.763 568328 -2.07655e-17 26.3873 -1.0623e-22 -0.624293)
(-28.4352 492179 0 29.2792 0 -0.843958)
(-32.0557 427880 8.56389e-19 33.6212 3.52125e-23 -1.56547)
(-36.1333 373010 -5.79167e-17 38.5301 -5.853e-22 -2.39683)
(-40.9047 326195 1.17817e-18 43.9643 8.49217e-23 -3.05951)
(-47.4152 286237 0 51.0745 0 -3.6593)
(-58.2956 252402 0 62.5366 0 -4.24104)
(-73.7939 225211 3.54364e-17 66.5132 7.16383e-22 7.28067)
(-281.315 212114 0 215.821 0 65.4941)
(-1879.07 216233 0 2402.25 0 -523.177)
(5.53518 3.9951e+06 0 -11.3233 0 5.78816)
(3.48865 4.00373e+06 0 -7.76533 0 4.27668)
(0.0722552 4.01326e+06 0 -1.50938 0 1.43713)
(-1.52134 4.02356e+06 0 1.0513 0 0.470044)
(-3.30833 4.03406e+06 0 3.92909 0 -0.620767)
(-3.76459 4.04305e+06 0 4.08452 0 -0.319936)