/*--------------------------------*- C++ -*----------------------------------*\
| =========                 |                                                 |
| \\      /  F ield         | OpenFOAM: The Open Source CFD Toolbox           |
|  \\    /   O peration     | Version:  v2012                                 |
|   \\  /    A nd           | Website:  www.openfoam.com                      |
|    \\/     M anipulation  |                                                 |
\*---------------------------------------------------------------------------*/
FoamFile
{
    version     2.0;
    format      ascii;
    class       volScalarField;
    location    "2000";
    object      T;
}
// * * * * * * * * * * * * * * * * * * * * * * * * * * * * * * * * * * * * * //

dimensions      [0 0 0 1 0 0 0];


internalField   nonuniform List<scalar> 
31383
(
275.787
275.844
275.326
275.849
275.456
274.793
275.854
275.477
274.983
274.178
275.857
275.493
275.025
274.415
273.468
275.86
275.506
275.058
274.484
273.734
272.647
275.862
275.517
275.084
274.539
273.838
272.92
271.697
275.865
275.527
275.106
274.581
273.92
273.069
271.948
270.595
275.866
275.535
275.125
274.616
273.982
273.184
272.151
270.789
269.318
275.868
275.542
275.141
274.646
274.035
273.272
272.308
271.058
269.409
267.829
275.87
275.548
275.155
274.672
274.079
273.345
272.426
271.265
269.759
267.777
266.089
275.871
275.554
275.167
274.695
274.118
273.407
272.525
271.421
270.026
268.228
265.888
263.983
275.872
275.559
275.178
274.715
274.151
273.46
272.609
271.55
270.228
268.566
266.448
263.743
261.525
275.873
275.564
275.187
274.732
274.18
273.506
272.681
271.66
270.394
268.82
266.865
264.421
261.365
258.694
275.874
275.568
275.196
274.747
274.205
273.546
272.742
271.754
270.535
269.029
267.181
264.924
262.166
258.79
255.307
275.875
275.571
275.204
274.761
274.228
273.581
272.796
271.834
270.655
269.207
267.439
265.306
262.76
259.717
256.052
251.605
275.876
275.575
275.211
274.774
274.248
273.613
272.843
271.905
270.758
269.359
267.655
265.618
263.211
260.404
257.109
253.173
247.533
275.877
275.578
275.218
274.786
274.267
273.642
272.885
271.966
270.849
269.488
267.846
265.879
263.58
260.926
257.891
254.366
250.183
243.142
275.877
275.58
275.224
274.796
274.284
273.667
272.923
272.022
270.927
269.602
268.005
266.109
263.889
261.352
258.485
255.244
251.516
247.121
238.542
275.878
275.583
275.229
274.805
274.299
273.691
272.958
272.072
270.998
269.7
268.145
266.303
264.159
261.711
258.97
255.911
252.488
248.593
244.019
233.843
275.879
275.585
275.234
274.814
274.312
273.712
272.989
272.117
271.062
269.789
268.267
266.47
264.39
262.023
259.379
256.456
253.226
249.656
245.631
240.903
229.124
275.879
275.587
275.238
274.822
274.325
273.731
273.017
272.158
271.12
269.87
268.376
266.62
264.586
262.29
259.733
256.915
253.831
250.465
246.782
242.656
237.794
224.39
275.88
275.589
275.242
274.828
274.336
273.748
273.043
272.194
271.172
269.943
268.477
266.751
264.765
262.518
260.037
257.313
254.341
251.127
247.658
243.893
239.692
234.705
219.623
275.88
275.591
275.245
274.835
274.346
273.763
273.066
272.227
271.219
270.008
268.566
266.873
264.92
262.725
260.297
257.653
254.781
251.686
248.376
244.834
241.01
236.754
231.647
214.85
275.88
275.592
275.249
274.84
274.355
273.777
273.086
272.257
271.261
270.067
268.647
266.981
265.063
262.906
260.532
257.946
255.159
252.169
248.982
245.605
242.014
238.152
233.852
228.621
210.103
275.881
275.594
275.252
274.846
274.364
273.79
273.105
272.284
271.299
270.12
268.719
267.079
265.192
263.071
260.737
258.209
255.484
252.583
249.505
246.256
242.837
239.215
235.327
230.989
225.626
205.406
275.881
275.595
275.254
274.85
274.371
273.802
273.122
272.309
271.334
270.169
268.785
267.165
265.308
263.22
260.925
258.439
255.776
252.94
249.956
246.818
243.531
240.087
236.448
232.539
228.153
222.653
200.772
275.881
275.596
275.257
274.855
274.378
273.812
273.137
272.331
271.365
270.212
268.845
267.246
265.411
263.354
261.094
258.649
256.031
253.259
250.343
247.303
244.131
240.822
237.367
233.717
229.779
225.336
219.691
196.205
275.882
275.597
275.259
274.859
274.384
273.821
273.151
272.351
271.393
270.251
268.898
267.317
265.506
263.473
261.246
258.838
256.264
253.539
250.689
247.72
244.647
241.458
238.142
234.681
231.013
227.038
222.536
216.735
191.699
275.882
275.598
275.261
274.862
274.39
273.83
273.164
272.369
271.419
270.287
268.947
267.382
265.59
263.583
261.382
259.009
256.473
253.793
250.992
248.091
245.093
242.005
238.812
235.495
232.023
228.328
224.315
219.75
213.778
187.22
275.882
275.599
275.263
274.866
274.395
273.838
273.175
272.385
271.442
270.319
268.991
267.441
265.668
263.681
261.507
259.162
256.662
254.023
251.268
248.417
245.488
242.478
239.39
236.198
232.875
229.384
225.661
221.608
216.977
210.816
182.715
275.882
275.6
275.265
274.869
274.4
273.845
273.186
272.401
271.464
270.348
269.031
267.495
265.737
263.771
261.619
259.302
256.831
254.23
251.516
248.713
245.836
242.897
239.889
236.805
233.611
230.274
226.761
223.009
218.915
214.213
207.843
178.175
275.883
275.601
275.267
274.872
274.405
273.852
273.196
272.414
271.483
270.375
269.067
267.543
265.801
263.852
261.721
259.427
256.987
254.415
251.74
248.979
246.151
243.266
240.33
237.329
234.246
231.043
227.688
224.154
220.371
216.235
211.456
204.851
173.739
275.883
275.602
275.268
274.874
274.409
273.859
273.205
272.427
271.501
270.399
269.1
267.587
265.859
263.926
261.813
259.542
257.126
254.585
251.941
249.219
246.434
243.599
240.719
237.793
234.796
231.707
228.49
225.118
221.56
217.747
213.564
208.701
201.833
169.499
275.883
275.602
275.27
274.877
274.413
273.864
273.213
272.439
271.517
270.422
269.13
267.627
265.911
263.994
261.898
259.646
257.254
254.738
252.125
249.435
246.69
243.898
241.069
238.2
235.281
232.281
229.182
225.952
222.562
218.979
215.132
210.9
205.946
198.781
165.319
275.883
275.603
275.271
274.879
274.417
273.87
273.221
272.45
271.532
270.442
269.158
267.663
265.958
264.054
261.975
259.741
257.369
254.878
252.291
249.633
246.919
244.169
241.384
238.567
235.708
232.787
229.781
226.671
223.427
220.018
216.409
212.526
208.242
203.185
195.683
161.079
275.883
275.604
275.272
274.881
274.42
273.875
273.228
272.46
271.546
270.461
269.183
267.697
266.001
264.11
262.044
259.828
257.475
255.005
252.443
249.811
247.13
244.412
241.668
238.897
236.091
233.233
230.308
227.295
224.174
220.914
217.484
213.848
209.927
205.585
200.415
192.528
156.753
275.883
275.604
275.274
274.883
274.423
273.879
273.235
272.47
271.559
270.479
269.207
267.728
266.041
264.16
262.108
259.906
257.571
255.121
252.581
249.974
247.32
244.635
241.924
239.195
236.436
233.633
230.772
227.843
224.822
221.689
218.412
214.959
211.293
207.332
202.928
197.63
189.292
152.316
275.884
275.605
275.275
274.886
274.426
273.884
273.241
272.478
271.571
270.495
269.228
267.756
266.078
264.207
262.165
259.978
257.659
255.227
252.707
250.123
247.495
244.836
242.159
239.463
236.747
233.992
231.189
228.325
225.391
222.36
219.214
215.919
212.442
208.744
204.739
200.267
194.825
185.945
147.746
275.873
275.606
275.276
274.888
274.429
273.888
273.247
272.486
271.582
270.51
269.248
267.783
266.112
264.25
262.219
260.043
257.738
255.324
252.823
250.259
247.653
245.021
242.371
239.71
237.028
234.317
231.563
228.758
225.891
222.95
219.909
216.747
213.432
209.929
206.197
202.145
197.6
191.992
182.459
143.022
275.883
275.548
275.278
274.889
274.432
273.892
273.253
272.494
271.593
270.524
269.267
267.807
266.144
264.29
262.268
260.103
257.811
255.411
252.927
250.383
247.799
245.189
242.566
239.932
237.285
234.61
231.901
229.146
226.339
223.468
220.519
217.466
214.288
210.951
207.42
203.652
199.549
194.921
189.125
178.804
138.132
275.882
275.6
275.142
274.891
274.435
273.897
273.259
272.502
271.603
270.537
269.285
267.83
266.173
264.326
262.313
260.158
257.878
255.492
253.023
250.497
247.932
245.344
242.743
240.137
237.519
234.879
232.206
229.497
226.742
223.932
221.055
218.096
215.03
211.834
208.473
204.912
201.105
196.947
192.229
186.215
174.948
133.075
275.88
275.597
275.259
274.646
274.437
273.9
273.264
272.509
271.612
270.55
269.301
267.851
266.2
264.36
262.356
260.21
257.94
255.565
253.111
250.6
248.053
245.485
242.907
240.323
237.733
235.122
232.485
229.814
227.106
224.349
221.535
218.65
215.68
212.6
209.384
205.998
202.405
198.555
194.338
189.517
183.251
170.857
127.889
275.882
275.584
275.252
274.851
274.043
273.903
273.268
272.516
271.621
270.562
269.316
267.871
266.225
264.392
262.395
260.258
257.998
255.634
253.191
250.694
248.163
245.614
243.056
240.495
237.928
235.346
232.739
230.105
227.435
224.726
221.965
219.146
216.252
213.27
210.173
206.935
203.522
199.895
196.001
191.718
186.781
180.222
166.494
122.667
275.884
275.595
275.219
274.839
274.366
273.317
273.272
272.521
271.63
270.573
269.331
267.889
266.249
264.421
262.431
260.302
258.051
255.697
253.265
250.781
248.264
245.731
243.192
240.652
238.108
235.55
232.972
230.368
227.736
225.066
222.355
219.59
216.763
213.859
210.863
207.748
204.487
201.046
197.381
193.438
189.083
184.015
177.114
161.827
117.593
275.884
275.605
275.247
274.777
274.346
273.789
272.442
272.526
271.637
270.584
269.345
267.907
266.271
264.449
262.465
260.343
258.1
255.756
253.334
250.861
248.358
245.839
243.316
240.795
238.272
235.738
233.185
230.61
228.009
225.378
222.707
219.992
217.221
214.386
211.47
208.459
205.324
202.038
198.566
194.862
190.866
186.431
181.212
173.911
156.834
112.912
275.885
275.608
275.274
274.83
274.244
273.759
273.104
271.398
271.643
270.593
269.359
267.924
266.292
264.475
262.497
260.381
258.146
255.81
253.398
250.936
248.443
245.938
243.43
240.925
238.422
235.91
233.381
230.832
228.261
225.661
223.029
220.355
217.636
214.858
212.012
209.084
206.055
202.899
199.587
196.081
192.335
188.281
183.756
178.363
170.59
151.526
108.891
275.885
275.61
275.282
274.883
274.334
273.606
273.061
272.289
270.169
270.6
269.37
267.941
266.312
264.5
262.526
260.418
258.189
255.861
253.458
251.005
248.523
246.029
243.535
241.045
238.559
236.067
233.56
231.036
228.491
225.921
223.322
220.688
218.011
215.285
212.498
209.641
206.698
203.651
200.472
197.131
193.59
189.798
185.681
181.055
175.459
167.105
145.989
106.05
275.885
275.611
275.286
274.898
274.421
273.742
272.841
272.231
271.323
268.778
269.379
267.954
266.332
264.523
262.555
260.451
258.23
255.909
253.514
251.07
248.598
246.114
243.631
241.156
238.685
236.21
233.724
231.222
228.702
226.16
223.591
220.991
218.354
215.671
212.937
210.14
207.27
204.311
201.245
198.041
194.67
191.09
187.249
183.061
178.32
172.488
163.404
140.422
104.338
275.885
275.611
275.289
274.907
274.446
273.876
273.039
271.93
271.247
270.184
267.251
267.966
266.348
264.547
262.582
260.484
258.268
255.954
253.566
251.13
248.667
246.193
243.721
241.257
238.801
236.342
233.874
231.393
228.896
226.379
223.838
221.269
218.666
216.024
213.335
210.592
207.784
204.899
201.923
198.835
195.605
192.201
188.58
184.685
180.418
175.546
169.436
159.448
135.023
103.24
275.885
275.611
275.29
274.911
274.463
273.914
273.231
272.203
270.856
270.087
268.856
265.636
266.364
264.565
262.609
260.515
258.304
255.996
253.616
251.187
248.732
246.267
243.805
241.352
238.908
236.463
234.011
231.549
229.074
226.58
224.065
221.524
218.953
216.347
213.699
211.001
208.248
205.426
202.527
199.531
196.42
193.162
189.723
186.058
182.103
177.748
172.724
166.287
155.208
129.779
102.429
275.885
275.612
275.291
274.914
274.469
273.94
273.286
272.468
271.215
269.611
268.739
267.335
263.976
264.586
262.631
260.546
258.339
256.036
253.662
251.24
248.793
246.336
243.883
241.44
239.007
236.575
234.138
231.692
229.236
226.764
224.274
221.759
219.216
216.642
214.031
211.375
208.668
205.903
203.068
200.151
197.135
193.999
190.711
187.234
183.52
179.499
175.045
169.845
163.022
150.663
124.649
101.813
275.885
275.612
275.292
274.915
274.473
273.95
273.324
272.544
271.564
270.062
268.203
267.199
265.633
262.297
262.657
260.57
258.374
256.075
253.706
251.291
248.851
246.402
243.957
241.523
239.1
236.679
234.255
231.824
229.385
226.933
224.464
221.974
219.459
216.914
214.335
211.717
209.053
206.335
203.557
200.706
197.771
194.733
191.57
188.25
184.732
180.965
176.871
172.303
166.897
159.598
145.799
119.687
101.349
275.885
275.613
275.292
274.917
274.476
273.956
273.339
272.596
271.666
270.5
268.738
266.654
265.48
263.772
260.609
260.603
258.401
256.113
253.748
251.339
248.905
246.463
244.026
241.601
239.187
236.776
234.363
231.946
229.522
227.087
224.638
222.171
219.682
217.164
214.615
212.03
209.404
206.73
204
201.208
198.34
195.385
192.324
189.132
185.777
182.214
178.389
174.212
169.514
163.866
155.955
140.616
114.971
100.978
275.886
275.613
275.293
274.919
274.478
273.96
273.347
272.617
271.735
270.63
269.258
267.253
264.993
263.605
261.783
258.913
258.443
256.144
253.791
251.385
248.957
246.522
244.092
241.674
239.268
236.868
234.465
232.059
229.648
227.229
224.799
222.352
219.885
217.394
214.873
212.318
209.726
207.091
204.406
201.663
198.855
195.969
192.992
189.906
186.684
183.29
179.679
175.789
171.518
166.669
160.734
152.039
135.15
110.624
100.627
275.9
275.614
275.294
274.919
274.481
273.964
273.352
272.628
271.762
270.719
269.42
267.83
265.623
263.242
261.604
259.694
257.203
256.194
253.824
251.431
249.006
246.577
244.154
241.743
239.345
236.953
234.56
232.165
229.766
227.361
224.946
222.517
220.072
217.604
215.109
212.584
210.022
207.422
204.776
202.079
199.321
196.496
193.591
190.592
187.478
184.222
180.787
177.122
173.16
168.783
163.757
157.482
147.812
129.523
106.829
100.329
276.225
275.662
275.296
274.921
274.483
273.967
273.358
272.634
271.777
270.753
269.528
268.025
266.222
263.871
261.415
259.498
257.521
255.471
253.884
251.467
249.056
246.63
244.213
241.809
239.419
237.034
234.649
232.264
229.876
227.483
225.082
222.67
220.243
217.796
215.326
212.827
210.295
207.726
205.116
202.459
199.748
196.975
194.132
191.205
188.181
185.038
181.746
178.266
174.542
170.498
165.998
160.765
154.07
143.252
123.972
103.805
100.126
276.337
276.589
275.384
274.923
274.484
273.97
273.363
272.642
271.786
270.772
269.571
268.15
266.446
264.451
262.014
259.522
257.298
255.29
253.709
251.537
249.095
246.683
244.269
241.871
239.488
237.111
234.734
232.357
229.979
227.597
225.209
222.811
220.4
217.973
215.524
213.05
210.546
208.007
205.429
202.808
200.138
197.412
194.622
191.759
188.809
185.759
182.584
179.254
175.723
171.933
167.795
163.153
157.676
150.434
138.356
118.677
101.911
100.023
275.983
276.914
276.918
275.059
274.488
273.973
273.367
272.649
271.796
270.784
269.595
268.202
266.584
264.7
262.542
260.073
257.568
255.033
253.026
251.909
249.176
246.725
244.326
241.931
239.554
237.183
234.815
232.446
230.076
227.704
225.327
222.942
220.546
218.135
215.706
213.254
210.775
208.265
205.717
203.129
200.496
197.812
195.07
192.261
189.378
186.404
183.325
180.115
176.741
173.155
169.29
165.047
160.238
154.47
146.514
133.133
113.691
101.061
99.9938
275.942
275.938
277.456
277.215
274.679
273.977
273.37
272.654
271.805
270.797
269.609
268.231
266.645
264.844
262.809
260.52
258.063
255.541
252.728
250.755
250.061
246.818
244.369
241.991
239.617
237.253
234.891
232.53
230.168
227.805
225.438
223.064
220.681
218.285
215.874
213.442
210.986
208.5
205.982
203.424
200.825
198.179
195.48
192.72
189.892
186.986
183.986
180.876
177.628
174.207
170.559
166.609
162.243
157.239
151.115
142.261
127.633
109.211
100.605
100.008
275.923
275.829
275.889
277.97
277.48
274.235
273.376
272.659
271.812
270.809
269.625
268.248
266.678
264.912
262.953
260.798
258.404
255.989
253.438
250.405
248.493
248.16
244.475
242.037
239.68
237.319
234.964
232.61
230.256
227.901
225.543
223.179
220.808
218.425
216.029
213.615
211.179
208.717
206.224
203.696
201.128
198.516
195.856
193.14
190.363
187.514
184.583
181.554
178.411
175.121
171.647
167.929
163.882
159.373
154.139
147.552
137.647
122.026
105.502
100.326
100.053
275.911
275.774
275.715
275.836
278.459
277.713
273.712
272.667
271.817
270.817
269.64
268.267
266.698
264.951
263.028
260.937
258.684
256.213
253.851
251.288
248.084
246.252
246.19
242.154
239.729
237.386
235.033
232.686
230.339
227.992
225.642
223.288
220.927
218.556
216.173
213.774
211.356
208.915
206.446
203.945
201.407
198.827
196.202
193.526
190.793
187.995
185.123
182.166
179.107
175.926
172.591
169.057
165.259
161.101
156.425
150.918
143.715
132.673
116.671
102.741
100.18
100.131
275.905
275.742
275.624
275.599
275.779
278.926
277.91
273.096
271.827
270.824
269.651
268.286
266.721
264.974
263.07
261.018
258.815
256.487
253.969
251.672
249.114
245.777
244.032
244.141
239.857
237.437
235.103
232.758
230.419
228.079
225.737
223.391
221.039
218.679
216.307
213.922
211.52
209.098
206.65
204.173
201.662
199.113
196.521
193.88
191.188
188.436
185.617
182.721
179.735
176.642
173.42
170.033
166.432
162.544
158.257
153.384
147.535
139.553
127.392
111.755
101.126
100.163
100.186
275.903
275.725
275.573
275.472
275.48
275.717
279.374
278.066
272.369
270.836
269.659
268.298
266.743
265
263.095
261.063
258.899
256.604
254.231
251.693
249.475
246.931
243.494
241.827
242.023
237.577
235.156
232.831
230.494
228.161
225.827
223.489
221.145
218.795
216.434
214.061
211.673
209.266
206.838
204.382
201.897
199.375
196.814
194.207
191.551
188.84
186.069
183.226
180.303
177.287
174.157
170.889
167.444
163.767
159.774
155.336
150.23
143.926
135.028
121.923
107.36
100.469
100.172
100.209
275.902
275.72
275.545
275.402
275.315
275.355
275.649
279.803
278.175
271.51
269.674
268.308
266.757
265.025
263.125
261.091
258.948
256.691
254.33
251.94
249.407
247.278
244.747
241.237
239.633
239.858
235.307
232.887
230.571
228.24
225.913
223.582
221.247
218.905
216.554
214.192
211.816
209.423
207.011
204.575
202.111
199.615
197.082
194.508
191.886
189.212
186.483
183.689
180.822
177.87
174.819
171.648
168.33
164.819
161.055
156.94
152.324
146.934
140.029
130.127
116.51
103.865
100.231
100.197
100.218
275.9
275.714
275.537
275.363
275.227
275.152
275.223
275.573
280.212
278.226
270.501
268.326
266.77
265.041
263.152
261.123
258.977
256.741
254.417
252.019
249.633
247.128
245.089
242.567
238.996
237.453
237.661
233.049
230.628
228.319
225.994
223.671
221.343
219.01
216.667
214.315
211.95
209.57
207.172
204.753
202.309
199.836
197.329
194.783
192.194
189.556
186.864
184.113
181.296
178.402
175.419
172.33
169.114
165.738
162.152
158.287
154.03
149.204
143.442
135.789
124.894
111.486
101.58
100.166
100.213
100.221
275.898
275.708
275.526
275.352
275.177
275.045
274.98
275.082
275.49
280.601
278.21
269.327
266.79
265.055
263.171
261.153
259.011
256.771
254.468
252.105
249.693
247.33
244.868
242.912
240.391
236.77
235.282
235.441
230.802
228.379
226.077
223.756
221.436
219.109
216.776
214.432
212.077
209.709
207.324
204.919
202.492
200.039
197.555
195.035
192.476
189.871
187.215
184.504
181.731
178.888
175.964
172.946
169.816
166.549
163.108
159.436
155.453
151.03
145.949
139.685
131.169
119.481
107.06
100.577
100.169
100.22
100.22
275.897
275.703
275.516
275.335
275.162
274.984
274.854
274.797
274.929
275.395
280.964
278.112
267.979
265.078
263.186
261.173
259.044
256.808
254.499
252.156
249.774
247.368
245.041
242.63
240.74
238.213
234.557
233.121
233.198
228.564
226.139
223.842
221.524
219.205
216.879
214.544
212.198
209.839
207.466
205.074
202.662
200.226
197.763
195.267
192.735
190.16
187.539
184.864
182.131
179.334
176.464
173.507
170.451
167.274
163.948
160.433
156.662
152.541
147.92
142.507
135.603
126.168
114.198
103.518
100.257
100.177
100.223
100.211
275.896
275.699
275.508
275.321
275.139
274.964
274.781
274.652
274.6
274.763
275.289
281.298
277.921
266.46
263.212
261.19
259.065
256.842
254.538
252.187
249.824
247.445
245.058
242.775
240.408
238.568
236.028
232.356
230.968
230.934
226.335
223.906
221.612
219.296
216.978
214.65
212.313
209.963
207.6
205.22
202.821
200.401
197.955
195.481
192.972
190.425
187.835
185.195
182.5
179.744
176.921
174.02
171.028
167.928
164.699
161.307
157.706
153.819
149.537
144.675
138.811
131.146
120.874
109.353
101.316
100.183
100.191
100.226
100.197
275.895
275.695
275.5
275.309
275.12
274.936
274.756
274.567
274.436
274.388
274.58
275.168
281.596
277.629
264.78
261.218
259.084
256.865
254.574
252.227
249.856
247.494
245.128
242.771
240.529
238.197
236.396
233.839
230.167
228.819
228.651
224.114
221.679
219.388
217.072
214.752
212.423
210.082
207.728
205.358
202.971
200.564
198.134
195.678
193.191
190.669
188.106
185.499
182.839
180.122
177.341
174.489
171.554
168.523
165.375
162.087
158.619
154.917
150.894
146.42
141.241
134.798
126.294
115.534
105.202
100.436
100.171
100.2
100.229
100.185
275.895
275.692
275.493
275.298
275.104
274.911
274.721
274.535
274.337
274.204
274.157
274.379
275.031
281.85
277.233
262.953
259.114
256.885
254.598
252.264
249.898
247.524
245.176
242.834
240.507
238.297
235.997
234.226
231.645
227.989
226.672
226.35
221.898
219.456
217.167
214.849
212.528
210.195
207.85
205.489
203.113
200.718
198.302
195.861
193.393
190.893
188.356
185.777
183.15
180.47
177.729
174.92
172.037
169.065
165.989
162.787
159.43
155.875
152.056
147.872
143.16
137.551
130.414
121.108
110.552
102.177
100.212
100.177
100.203
100.228
100.174
275.894
275.69
275.488
275.288
275.089
274.89
274.69
274.493
274.298
274.09
273.952
273.904
274.157
274.876
282.052
276.737
260.998
256.916
254.618
252.289
249.935
247.566
245.205
242.878
240.564
238.259
236.076
233.807
232.055
229.448
225.821
224.526
224.034
219.687
217.237
214.947
212.628
210.303
207.966
205.615
203.247
200.863
198.459
196.033
193.581
191.1
188.585
186.032
183.435
180.788
178.085
175.318
172.48
169.561
166.548
163.421
160.158
156.723
153.065
149.108
144.733
139.701
133.545
125.634
115.818
106.156
100.649
100.174
100.186
100.204
100.227
100.163
275.893
275.688
275.484
275.28
275.075
274.871
274.664
274.456
274.249
274.043
273.823
273.678
273.629
273.912
274.703
282.197
276.148
258.937
254.651
252.309
249.96
247.605
245.247
242.907
240.605
238.31
236.023
233.866
231.627
229.885
227.246
223.661
222.377
221.703
217.48
215.02
212.729
210.406
208.077
205.734
203.376
201.001
198.608
196.194
193.757
191.292
188.797
186.268
183.697
181.08
178.412
175.684
172.888
170.016
167.058
163.999
160.815
157.481
153.954
150.177
146.057
141.438
135.979
129.168
120.514
110.822
102.709
100.246
100.178
100.187
100.204
100.226
100.151
275.893
275.686
275.481
275.274
275.065
274.853
274.64
274.424
274.204
273.986
273.766
273.533
273.38
273.331
273.645
274.515
282.282
275.477
256.784
252.343
249.981
247.63
245.285
242.949
240.632
238.348
236.067
233.8
231.667
229.455
227.714
225.042
221.507
220.223
219.359
215.275
212.804
210.511
208.183
205.849
203.499
201.134
198.75
196.347
193.922
191.472
188.994
186.484
183.938
181.349
178.711
176.019
173.263
170.436
167.528
164.526
161.413
158.165
154.748
151.115
147.195
142.879
137.927
131.931
124.395
115.282
106.348
100.808
100.173
100.182
100.186
100.204
100.225
100.135
275.893
275.685
275.478
275.269
275.057
274.841
274.619
274.395
274.166
273.932
273.7
273.465
273.218
273.058
273.012
273.36
274.315
282.312
274.736
254.553
250.015
247.651
245.311
242.987
240.675
238.374
236.103
233.836
231.587
229.478
227.29
225.541
222.835
219.359
218.061
217.003
213.071
210.588
208.291
205.958
203.617
201.26
198.886
196.492
194.079
191.642
189.179
186.686
184.16
181.596
178.986
176.326
173.607
170.822
167.959
165.01
161.958
158.785
155.462
151.949
148.191
144.103
139.525
134.136
127.506
119.296
110.337
102.766
100.252
100.174
100.182
100.186
100.204
100.225
100.114
275.892
275.684
275.476
275.266
275.051
274.83
274.603
274.37
274.132
273.888
273.638
273.389
273.138
272.878
272.714
272.676
273.062
274.113
282.295
273.933
252.263
247.684
245.333
243.013
240.712
238.417
236.127
233.868
231.616
229.386
227.297
225.13
223.366
220.625
217.213
215.889
214.636
210.867
208.37
206.069
203.729
201.381
199.015
196.631
194.228
191.802
189.352
186.875
184.367
181.823
179.239
176.607
173.922
171.174
168.356
165.455
162.458
159.351
156.108
152.698
149.072
145.165
140.865
135.932
130.005
122.69
114.127
105.901
100.785
100.169
100.175
100.181
100.186
100.206
100.224
100.089
275.892
275.683
275.474
275.263
275.046
274.822
274.59
274.351
274.101
273.847
273.585
273.317
273.052
272.785
272.515
272.354
272.333
272.763
273.914
282.24
273.076
249.928
245.366
243.035
240.738
238.454
236.17
233.891
231.645
229.407
227.194
225.123
222.974
221.186
218.412
215.07
213.706
212.26
208.662
206.15
203.843
201.496
199.139
196.764
194.37
191.955
189.517
187.053
184.56
182.035
179.473
176.867
174.211
171.498
168.718
165.863
162.918
159.868
156.696
153.374
149.861
146.102
142.015
137.425
132.039
125.489
117.592
109.277
102.404
100.241
100.163
100.174
100.18
100.187
100.207
100.223
100.069
275.891
275.681
275.472
275.26
275.043
274.816
274.581
274.335
274.079
273.811
273.537
273.256
272.968
272.687
272.409
272.136
271.986
271.991
272.47
273.728
282.157
272.169
247.565
243.067
240.761
238.481
236.207
233.933
231.666
229.432
227.207
225.011
222.955
220.82
219.002
216.196
212.926
211.51
209.875
206.456
203.926
201.613
199.258
196.892
194.506
192.101
189.673
187.221
184.742
182.233
179.69
177.106
174.477
171.795
169.051
166.236
163.339
160.344
157.234
153.987
150.571
146.938
143.021
138.694
133.722
127.788
120.598
112.518
104.972
100.619
100.165
100.165
100.174
100.181
100.188
100.208
100.22
100.049
275.89
275.679
275.469
275.256
275.038
274.812
274.573
274.323
274.06
273.784
273.496
273.2
272.898
272.592
272.298
272.015
271.749
271.622
271.663
272.193
273.557
282.052
271.215
245.181
240.792
238.503
236.233
233.971
231.708
229.45
227.229
225.015
222.835
220.792
218.666
216.813
213.978
210.78
209.299
207.483
204.247
201.699
199.378
197.013
194.637
192.24
189.823
187.381
184.915
182.42
179.892
177.329
174.723
172.068
169.356
166.578
163.724
160.779
157.727
154.548
151.214
147.687
143.912
139.792
135.141
129.694
123.147
115.499
107.8
101.774
100.21
100.159
100.165
100.174
100.182
100.189
100.208
100.217
100.027
275.889
275.677
275.465
275.252
275.033
274.806
274.568
274.314
274.046
273.762
273.465
273.153
272.834
272.513
272.192
271.892
271.614
271.368
271.273
271.357
271.937
273.403
281.93
270.214
242.788
238.534
236.256
233.997
231.745
229.492
227.244
225.033
222.831
220.665
218.632
216.51
214.617
211.756
208.63
207.073
205.084
202.035
199.466
197.137
194.762
192.375
189.966
187.534
185.078
182.596
180.083
177.537
174.951
172.32
169.637
166.892
164.076
161.177
158.178
155.061
151.801
148.365
144.708
140.755
136.36
131.295
125.288
118.175
110.555
103.717
100.41
100.16
100.16
100.165
100.174
100.182
100.189
100.208
100.214
100.004
275.889
275.674
275.461
275.247
275.028
274.8
274.561
274.307
274.035
273.747
273.439
273.116
272.78
272.44
272.102
271.774
271.479
271.218
271.002
270.946
271.076
271.703
273.265
281.794
269.165
240.394
236.287
234.02
231.771
229.528
227.284
225.046
222.844
220.652
218.5
216.474
214.351
212.413
209.532
206.474
204.831
202.681
199.819
197.227
194.888
192.502
190.103
187.681
185.235
182.764
180.264
177.732
175.164
172.554
169.896
167.181
164.4
161.541
158.59
155.53
152.337
148.982
145.426
141.611
137.421
132.663
127.095
120.501
113.118
106.031
101.075
100.174
100.158
100.16
100.166
100.175
100.181
100.189
100.209
100.209
99.9797
275.888
275.671
275.457
275.241
275.021
274.793
274.553
274.299
274.027
273.734
273.421
273.087
272.738
272.378
272.02
271.673
271.348
271.07
270.84
270.661
270.648
270.823
271.493
273.141
281.646
268.068
238.005
234.05
231.794
229.554
227.32
225.084
222.854
220.661
218.478
216.338
214.316
212.187
210.201
207.303
204.309
202.572
200.271
197.599
194.981
192.632
190.234
187.822
185.385
182.924
180.436
177.917
175.364
172.773
170.136
167.448
164.698
161.875
158.967
155.957
152.826
149.544
146.077
142.378
138.357
133.847
128.64
122.509
115.469
108.346
102.363
100.255
100.155
100.158
100.16
100.166
100.174
100.181
100.191
100.209
100.204
99.9545
275.887
275.669
275.452
275.234
275.013
274.784
274.544
274.289
274.017
273.724
273.405
273.066
272.705
272.331
271.951
271.583
271.238
270.929
270.679
270.487
270.35
270.38
270.596
271.304
273.03
281.487
266.92
235.625
231.823
229.577
227.346
225.12
222.891
220.667
218.482
216.307
214.177
212.156
210.017
207.981
205.071
202.134
200.299
197.853
195.373
192.727
190.368
187.956
185.53
183.078
180.6
178.093
175.554
172.978
170.361
167.695
164.972
162.182
159.313
156.348
153.271
150.056
146.67
143.071
139.188
134.885
129.973
124.242
117.591
110.546
104.113
100.523
100.144
100.154
100.159
100.161
100.166
100.173
100.181
100.193
100.209
100.196
99.9296
275.886
275.666
275.447
275.228
275.004
274.773
274.533
274.278
274.005
273.712
273.394
273.048
272.68
272.293
271.898
271.507
271.14
270.81
270.527
270.314
270.164
270.071
270.139
270.394
271.134
272.931
281.318
265.717
233.257
229.605
227.369
225.145
222.926
220.703
218.485
216.307
214.139
212.018
209.993
207.84
205.75
202.835
199.946
198.011
195.426
193.143
190.464
188.093
185.667
183.226
180.758
178.262
175.734
173.173
170.572
167.925
165.226
162.465
159.63
156.707
153.678
150.522
147.208
143.699
139.934
135.802
131.135
125.741
119.467
112.59
106.007
101.187
100.155
100.145
100.154
100.159
100.161
100.165
100.173
100.182
100.195
100.208
100.185
99.9055
275.885
275.663
275.442
275.221
274.995
274.762
274.52
274.264
273.991
273.698
273.38
273.035
272.661
272.265
271.856
271.448
271.056
270.703
270.4
270.152
269.981
269.874
269.821
269.925
270.213
270.981
272.841
281.137
264.455
230.902
227.397
225.168
222.951
220.737
218.519
216.306
214.133
211.972
209.857
207.826
205.653
203.51
200.593
197.743
195.708
192.996
190.905
188.192
185.808
183.367
180.909
178.423
175.907
173.357
170.771
168.142
165.464
162.727
159.923
157.036
154.051
150.947
147.698
144.269
140.608
136.619
132.159
127.049
121.122
114.469
107.86
102.278
100.23
100.129
100.145
100.155
100.159
100.161
100.165
100.173
100.183
100.197
100.209
100.167
99.8823
275.884
275.66
275.437
275.213
274.985
274.75
274.506
274.248
273.975
273.681
273.363
273.018
272.645
272.243
271.825
271.402
270.992
270.613
270.286
270.017
269.81
269.68
269.615
269.599
269.733
270.052
270.844
272.761
280.948
263.13
228.564
225.195
222.974
220.761
218.552