/*--------------------------------*- C++ -*----------------------------------*\
| =========                 |                                                 |
| \\      /  F ield         | OpenFOAM: The Open Source CFD Toolbox           |
|  \\    /   O peration     | Version:  v2012                                 |
|   \\  /    A nd           | Website:  www.openfoam.com                      |
|    \\/     M anipulation  |                                                 |
\*---------------------------------------------------------------------------*/
FoamFile
{
    version     2.0;
    format      ascii;
    class       volVectorField;
    location    "2000";
    object      U;
}
// * * * * * * * * * * * * * * * * * * * * * * * * * * * * * * * * * * * * * //

dimensions      [0 1 -1 0 0 0 0];


internalField   nonuniform List<vector> 
31383
(
(4.94365 0.00669548 0)
(5.1905 1.06418e-05 0)
(14.7694 0.020076 0)
(5.00458 4.78355e-06 0)
(15.644 1.40467e-05 0)
(24.6527 0.0335552 0)
(4.86145 8.73467e-07 0)
(15.0833 1.51951e-05 0)
(26.2979 1.71694e-05 0)
(34.7097 0.0472741 0)
(4.75403 5.31792e-06 0)
(14.6516 4.44341e-06 0)
(25.3546 2.81746e-05 0)
(37.2826 1.67878e-05 0)
(45.1014 0.0613679 0)
(4.66596 8.9441e-06 0)
(14.3276 1.48464e-05 0)
(24.6285 1.12566e-05 0)
(35.9441 4.69501e-05 0)
(48.7312 1.26223e-05 0)
(56.0136 0.0759701 0)
(4.59055 6.80868e-06 0)
(14.062 2.28902e-05 0)
(24.0836 2.48766e-05 0)
(34.914 2.20239e-05 0)
(46.98 7.17775e-05 0)
(60.7768 2.90712e-06 0)
(67.4154 0.0912075 0)
(4.52608 2.87709e-06 0)
(13.8346 1.79968e-05 0)
(23.6368 3.53992e-05 0)
(34.1409 3.84105e-05 0)
(45.6326 3.71724e-05 0)
(58.5909 0.000103781 0)
(73.5437 -1.35226e-05 0)
(79.4255 0.107202 0)
(4.47077 2.06732e-06 0)
(13.6402 8.85183e-06 0)
(23.2542 2.87682e-05 0)
(33.507 5.13795e-05 0)
(44.6214 5.54845e-05 0)
(56.9097 5.71546e-05 0)
(70.8983 0.000144271 0)
(87.1275 -3.18416e-05 0)
(92.1031 0.124067 0)
(4.4221 2.31128e-06 0)
(13.4733 6.76419e-06 0)
(22.9272 1.62388e-05 0)
(32.9643 4.27212e-05 0)
(43.7923 7.04893e-05 0)
(55.648 7.66778e-05 0)
(68.8647 8.27238e-05 0)
(83.9993 0.000194839 0)
(101.565 -6.61406e-05 0)
(105.627 0.141903 0)
(4.3792 3.33843e-06 0)
(13.3266 7.37987e-06 0)
(22.6466 1.27987e-05 0)
(32.5004 2.63952e-05 0)
(43.0824 5.97351e-05 0)
(54.6133 9.33494e-05 0)
(67.3382 0.000102514 0)
(81.5954 0.000114735 0)
(97.9349 0.000257512 0)
(116.8 -0.000115692 0)
(120.133 0.160772 0)
(4.34033 4.89187e-06 0)
(13.1972 9.81945e-06 0)
(22.3998 1.38471e-05 0)
(32.1024 2.13517e-05 0)
(42.4757 3.96208e-05 0)
(53.7275 8.02988e-05 0)
(66.0865 0.000120351 0)
(79.7904 0.000133694 0)
(95.1493 0.000154227 0)
(112.649 0.000334935 0)
(132.58 -0.000182314 0)
(136.55 0.180697 0)
(4.3053 4.3622e-06 0)
(13.08 1.33209e-05 0)
(22.1822 1.71354e-05 0)
(31.7522 2.28238e-05 0)
(41.955 3.30441e-05 0)
(52.9705 5.6172e-05 0)
(65.0147 0.000104783 0)
(78.3099 0.000152156 0)
(93.056 0.000171044 0)
(109.483 0.000202273 0)
(127.954 0.000429958 0)
(148.59 -0.000263244 0)
(153.996 0.201715 0)
(4.27337 2.45898e-06 0)
(12.9743 1.21463e-05 0)
(21.985 2.17825e-05 0)
(31.4435 2.70274e-05 0)
(41.497 3.45593e-05 0)
(52.3208 4.78409e-05 0)
(64.0986 7.64263e-05 0)
(77.0422 0.000133736 0)
(91.3387 0.000189428 0)
(107.102 0.000215454 0)
(124.435 0.00026009 0)
(143.545 0.000544889 0)
(164.474 -0.000345065 0)
(172.254 0.223986 0)
(4.24444 7.209e-07 0)
(12.878 7.87857e-06 0)
(21.8073 2.02123e-05 0)
(31.1637 3.2868e-05 0)
(41.0932 3.94863e-05 0)
(51.7492 4.92397e-05 0)
(63.3126 6.61e-05 0)
(75.9585 0.000100797 0)
(89.8675 0.00016769 0)
(105.147 0.000232939 0)
(121.774 0.000267866 0)
(139.71 0.0003287 0)
(159.07 0.000681978 0)
(179.933 -0.000412552 0)
(192.371 0.247359 0)
(4.21812 -2.25839e-07 0)
(12.7908 3.59007e-06 0)
(21.6453 1.45147e-05 0)
(30.9117 3.09019e-05 0)
(40.7273 4.64169e-05 0)
(51.2454 5.47934e-05 0)
(62.6208 6.71813e-05 0)
(75.0286 8.82004e-05 0)
(88.6097 0.000129771 0)
(103.476 0.000207441 0)
(119.593 0.00028336 0)
(136.801 0.000329168 0)
(154.967 0.000409054 0)
(174.223 0.000841789 0)
(194.83 -0.000443201 0)
(212.059 0.271911 0)
(4.19451 -7.59421e-07 0)
(12.7114 1.43919e-06 0)
(21.4986 8.84732e-06 0)
(30.6819 2.37344e-05 0)
(40.3977 4.40379e-05 0)
(50.7888 6.27318e-05 0)
(62.0111 7.31788e-05 0)
(74.2101 8.86858e-05 0)
(87.5301 0.000114523 0)
(102.038 0.000163884 0)
(117.739 0.000253499 0)
(134.416 0.000341347 0)
(151.849 0.000400069 0)
(169.899 0.000502272 0)
(188.838 0.00102813 0)
(209.154 -0.000377216 0)
(231.651 0.297807 0)
(4.17295 -1.0314e-06 0)
(12.6403 5.66278e-07 0)
(21.3651 5.8619e-06 0)
(30.4738 1.64063e-05 0)
(40.0972 3.53986e-05 0)
(50.3774 5.99468e-05 0)
(61.4586 8.21148e-05 0)
(73.4886 9.49888e-05 0)
(86.5795 0.00011414 0)
(100.807 0.000145488 0)
(116.119 0.000203772 0)
(132.389 0.000306469 0)
(149.291 0.000407796 0)
(166.609 0.000481373 0)
(184.32 0.000609537 0)
(202.883 0.00122353 0)
(222.866 -0.000239026 0)
(250.835 0.325066 0)
(4.15351 -1.15094e-06 0)
(12.5752 1.00593e-07 0)
(21.2454 4.55209e-06 0)
(30.2845 1.2463e-05 0)
(39.825 2.64946e-05 0)
(50.0025 4.98349e-05 0)
(60.9608 7.88105e-05 0)
(72.8348 0.000104691 0)
(85.7416 0.000120549 0)
(99.7224 0.000143903 0)
(114.743 0.000181463 0)
(130.616 0.00024995 0)
(147.113 0.000367026 0)
(163.904 0.000483291 0)
(180.876 0.000574138 0)
(198.188 0.000732375 0)
(216.33 0.001412 0)
(235.908 -3.65296e-05 0)
(269.113 0.353866 0)
(4.13572 -5.39673e-07 0)
(12.5166 -1.53615e-07 0)
(21.1361 3.83384e-06 0)
(30.1147 1.06782e-05 0)
(39.5774 2.1595e-05 0)
(49.6629 3.9222e-05 0)
(60.5072 6.71932e-05 0)
(72.2458 0.000100995 0)
(84.9841 0.000131101 0)
(98.7667 0.000150134 0)
(113.531 0.000178418 0)
(129.104 0.000222752 0)
(145.211 0.000302712 0)
(161.605 0.000435664 0)
(178.038 0.000568786 0)
(194.605 0.000679592 0)
(211.48 0.000872617 0)
(229.124 0.00159896 0)
(248.27 0.000232853 0)
(286.208 0.384416 0)
(4.11959 1.28022e-07 0)
(12.463 6.82069e-07 0)
(21.0375 3.40546e-06 0)
(29.9596 9.63835e-06 0)
(39.3553 1.92727e-05 0)
(49.3539 3.32942e-05 0)
(60.0962 5.47785e-05 0)
(71.709 8.77682e-05 0)
(84.2979 0.000126796 0)
(97.9108 0.000161531 0)
(112.459 0.000184132 0)
(127.782 0.000217882 0)
(143.584 0.000269757 0)
(159.595 0.000362541 0)
(175.633 0.000513075 0)
(191.652 0.000665381 0)
(207.782 0.000799024 0)
(224.149 0.00103216 0)
(241.248 0.00179607 0)
(259.966 0.000577043 0)
(302.072 0.416933 0)
(4.10491 3.54428e-07 0)
(12.4143 1.77352e-06 0)
(20.9473 4.40073e-06 0)
(29.8198 8.96541e-06 0)
(39.1525 1.78519e-05 0)
(49.0768 3.0372e-05 0)
(59.7224 4.7825e-05 0)
(71.2227 7.35488e-05 0)
(83.6745 0.000111953 0)
(97.1201 0.000156723 0)
(111.503 0.000196206 0)
(126.6 0.000223002 0)
(142.162 0.000262647 0)
(157.874 0.000322921 0)
(173.539 0.000430082 0)
(189.151 0.000600178 0)
(204.732 0.000774115 0)
(220.351 0.00093404 0)
(236.164 0.00121316 0)
(252.707 0.00200808 0)
(271.029 0.00100671 0)
(316.942 0.451588 0)
(4.0916 -9.89867e-08 0)
(12.3701 2.31277e-06 0)
(20.8655 5.62917e-06 0)
(29.6918 1.00596e-05 0)
(38.9697 1.68785e-05 0)
(48.8238 2.84857e-05 0)
(59.3871 4.418e-05 0)
(70.7803 6.5433e-05 0)
(83.1097 9.57173e-05 0)
(96.4091 0.000139999 0)
(110.617 0.000191033 0)
(125.55 0.000235852 0)
(140.888 0.000267111 0)
(156.367 0.00031311 0)
(171.738 0.000382766 0)
(186.977 0.000506066 0)
(202.147 0.000698233 0)
(217.218 0.000896572 0)
(232.279 0.0010867 0)
(247.525 0.00141842 0)
(263.524 0.00224043 0)
(281.501 0.00153901 0)
(331.025 0.488482 0)
(4.07947 -5.2924e-07 0)
(12.3299 1.63501e-06 0)
(20.791 6.13932e-06 0)
(29.5757 1.14619e-05 0)
(38.8023 1.80243e-05 0)
(48.5956 2.71324e-05 0)
(59.0809 4.17531e-05 0)
(70.3836 6.09497e-05 0)
(82.5958 8.62226e-05 0)
(95.7648 0.00012163 0)
(109.822 0.000172315 0)
(124.581 0.000230206 0)
(139.759 0.000280217 0)
(155.021 0.00031671 0)
(170.163 0.000369655 0)
(185.104 0.000450043 0)
(199.902 0.000591443 0)
(214.562 0.000808349 0)
(229.075 0.00103439 0)
(243.564 0.00125927 0)
(258.255 0.00165099 0)
(273.741 0.00249757 0)
(291.437 0.00219649 0)
(344.369 0.527769 0)
(4.06838 -4.8894e-07 0)
(12.2934 1.17489e-06 0)
(20.7236 5.46919e-06 0)
(29.4702 1.19311e-05 0)
(38.6505 1.94731e-05 0)
(48.3869 2.82521e-05 0)
(58.8049 3.99314e-05 0)
(70.0212 5.78504e-05 0)
(82.1349 8.09113e-05 0)
(95.1794 0.000110839 0)
(109.1 0.000151551 0)
(123.707 0.000209067 0)
(138.72 0.000274266 0)
(153.826 0.000330086 0)
(168.759 0.000372184 0)
(183.469 0.000432923 0)
(197.963 0.000525504 0)
(212.255 0.000687563 0)
(226.359 0.000932203 0)
(240.299 0.00118966 0)
(254.227 0.00145451 0)
(268.39 0.00191444 0)
(283.406 0.00278439 0)
(300.895 0.00300803 0)
(357.002 0.569668 0)
(4.05815 -6.29006e-07 0)
(12.2599 1.30142e-06 0)
(20.662 4.93924e-06 0)
(29.3744 1.10337e-05 0)
(38.5125 1.99228e-05 0)
(48.1975 2.97149e-05 0)
(58.5522 4.09656e-05 0)
(69.6944 5.5461e-05 0)
(81.7137 7.70459e-05 0)
(94.652 0.000104325 0)
(108.45 0.000139216 0)
(122.916 0.000185665 0)
(137.78 0.000250879 0)
(152.729 0.000323369 0)
(167.51 0.000385633 0)
(182.014 0.000434157 0)
(196.271 0.000503513 0)
(210.26 0.000610177 0)
(224 0.000795644 0)
(237.531 0.00107161 0)
(250.907 0.00136479 0)
(264.3 0.00167561 0)
(277.976 0.00221289 0)
(292.582 0.00310613 0)
(309.934 0.00400723 0)
(368.971 0.614398 0)
(4.04873 -8.25944e-07 0)
(12.2291 1.02294e-06 0)
(20.6058 5.35046e-06 0)
(29.2872 1.03302e-05 0)
(38.3873 1.87868e-05 0)
(48.0252 3.0099e-05 0)
(58.3231 4.23498e-05 0)
(69.3953 5.63131e-05 0)
(81.3341 7.3944e-05 0)
(94.1711 9.94811e-05 0)
(107.854 0.000131551 0)
(122.203 0.000171621 0)
(136.929 0.000224329 0)
(151.737 0.000297706 0)
(166.368 0.000378548 0)
(180.718 0.000447457 0)
(194.77 0.000503152 0)
(208.521 0.000582442 0)
(221.958 0.000705367 0)
(235.127 0.000917379 0)
(248.093 0.00122877 0)
(260.932 0.00156259 0)
(273.83 0.00192635 0)
(287.073 0.00255104 0)
(301.356 0.003469 0)
(318.625 0.00522462 0)
(380.325 0.662177 0)
(4.04002 -1.42733e-06 0)
(12.2007 3.28511e-07 0)
(20.5539 4.9474e-06 0)
(29.2074 1.07203e-05 0)
(38.2732 1.79001e-05 0)
(47.869 2.87288e-05 0)
(58.1146 4.26086e-05 0)
(69.1241 5.75329e-05 0)
(80.9865 7.44942e-05 0)
(93.7374 9.55888e-05 0)
(107.316 0.000125503 0)
(121.549 0.000162712 0)
(136.162 0.000208515 0)
(150.838 0.000267809 0)
(165.335 0.000349941 0)
(179.536 0.000439717 0)
(193.433 0.000516304 0)
(206.979 0.00058 0)
(220.177 0.000670773 0)
(233.045 0.000812477 0)
(245.65 0.00105471 0)
(258.077 0.0014063 0)
(270.416 0.00178647 0)
(282.872 0.0022111 0)
(295.767 0.00293535 0)
(309.801 0.00388339 0)
(327.033 0.00669478 0)
(391.125 0.713204 0)
(4.03195 -2.79966e-06 0)
(12.1744 -1.30354e-06 0)
(20.5062 3.71214e-06 0)
(29.1338 1.01233e-05 0)
(38.1689 1.82647e-05 0)
(47.7267 2.76697e-05 0)
(57.9255 4.09469e-05 0)
(68.8773 5.76116e-05 0)
(80.6712 7.54554e-05 0)
(93.3404 9.5728e-05 0)
(106.828 0.000120617 0)
(120.96 0.000155176 0)
(135.458 0.000197935 0)
(150.027 0.000249883 0)
(164.399 0.000316471 0)
(178.467 0.000408374 0)
(192.214 0.000507649 0)
(205.607 0.000592783 0)
(218.601 0.000665873 0)
(231.228 0.00077008 0)
(243.533 0.000933177 0)
(255.598 0.00121005 0)
(267.524 0.00160718 0)
(279.416 0.00204037 0)
(291.51 0.00253547 0)
(304.128 0.00337434 0)
(317.955 0.00436211 0)
(335.204 0.00846539 0)
(401.453 0.767633 0)
(4.02443 -5.6624e-06 0)
(12.1501 -4.21261e-06 0)
(20.462 1.31732e-06 0)
(29.0661 8.94844e-06 0)
(38.0727 1.75428e-05 0)
(47.5965 2.81693e-05 0)
(57.7533 3.96787e-05 0)
(68.6535 5.5605e-05 0)
(80.3843 7.52602e-05 0)
(92.9801 9.62722e-05 0)
(106.383 0.000120133 0)
(120.422 0.000149189 0)
(134.824 0.000188654 0)
(149.283 0.000237495 0)
(163.552 0.000296211 0)
(177.498 0.000370811 0)
(191.112 0.000473304 0)
(204.358 0.000583251 0)
(217.199 0.000678037 0)
(229.623 0.000762045 0)
(241.685 0.000881836 0)
(253.45 0.00106986 0)
(265.012 0.00138618 0)
(276.487 0.00183499 0)
(288.009 0.00232923 0)
(299.814 0.00290632 0)
(312.196 0.00387721 0)
(325.85 0.0049119 0)
(343.171 0.0105991 0)
(411.427 0.825531 0)
(4.0174 -9.75281e-06 0)
(12.1274 -9.56481e-06 0)
(20.4211 -2.29543e-06 0)
(29.0034 6.37732e-06 0)
(37.984 1.58124e-05 0)
(47.4765 2.75479e-05 0)
(57.5957 4.02569e-05 0)
(68.4496 5.40946e-05 0)
(80.124 7.28339e-05 0)
(92.6521 9.57029e-05 0)
(105.979 0.000120132 0)
(119.932 0.000147933 0)
(134.244 0.000181562 0)
(148.611 0.000226337 0)
(162.776 0.000281709 0)
(176.621 0.00034779 0)
(190.113 0.000431227 0)
(203.228 0.000545544 0)
(215.925 0.000667428 0)
(228.195 0.00077316 0)
(240.053 0.000870075 0)
(251.574 0.00100807 0)
(262.834 0.00122452 0)
(273.943 0.00158631 0)
(285.044 0.00209413 0)
(296.269 0.00265901 0)
(307.825 0.00333118 0)
(320.001 0.00445389 0)
(333.515 0.00554992 0)
(350.964 0.0131687 0)
(421.201 0.886854 0)
(4.01088 -1.35381e-05 0)
(12.1062 -1.8067e-05 0)
(20.3829 -9.11846e-06 0)
(28.9454 2.0677e-06 0)
(37.9021 1.2254e-05 0)
(47.3659 2.56437e-05 0)
(57.4504 3.96891e-05 0)
(68.263 5.47786e-05 0)
(79.8868 7.1044e-05 0)
(92.3546 9.27723e-05 0)
(105.61 0.000119061 0)
(119.486 0.00014716 0)
(133.716 0.000179137 0)
(147.997 0.000217671 0)
(162.075 0.000268266 0)
(175.817 0.000330987 0)
(189.209 0.000405214 0)
(202.205 0.000498466 0)
(214.773 0.000625932 0)
(226.901 0.000761312 0)
(238.605 0.000879688 0)
(249.919 0.000991749 0)
(260.933 0.00115099 0)
(271.737 0.00140038 0)
(282.468 0.00181441 0)
(293.266 0.00238989 0)
(304.236 0.00303633 0)
(315.573 0.0038186 0)
(327.571 0.00511585 0)
(340.976 0.00630207 0)
(358.612 0.0162631 0)
(430.815 0.951637 0)
(4.00478 -1.6451e-05 0)
(12.0866 -2.61049e-05 0)
(20.3473 -1.95013e-05 0)
(28.8913 -6.37163e-06 0)
(37.8262 7.33931e-06 0)
(47.2637 2.13179e-05 0)
(57.3166 3.82823e-05 0)
(68.091 5.42162e-05 0)
(79.6699 7.18169e-05 0)
(92.0833 9.06492e-05 0)
(105.276 0.000115532 0)
(119.08 0.000145437 0)
(133.233 0.000177493 0)
(147.437 0.000213979 0)
(161.431 0.000257956 0)
(175.089 0.000315037 0)
(188.379 0.000385719 0)
(201.278 0.000468996 0)
(213.731 0.000573359 0)
(225.731 0.000715927 0)
(237.292 0.000866432 0)
(248.451 0.000999324 0)
(259.256 0.00112927 0)
(269.812 0.00131329 0)
(280.234 0.00160094 0)
(290.658 0.00207522 0)
(301.197 0.00272815 0)
(311.94 0.00346869 0)
(323.086 0.00437843 0)
(334.931 0.00587671 0)
(348.257 0.00718327 0)
(366.144 0.0200007 0)
(439.982 1.02031 0)
(3.99906 -1.74074e-05 0)
(12.0682 -3.2389e-05 0)
(20.3143 -2.94992e-05 0)
(28.8408 -1.877e-05 0)
(37.7555 -7.37242e-07 0)
(47.1689 1.37679e-05 0)
(57.1929 3.4349e-05 0)
(67.9325 5.269e-05 0)
(79.4698 7.12887e-05 0)
(91.8352 9.15039e-05 0)
(104.971 0.000113006 0)
(118.712 0.000141185 0)
(132.795 0.000174908 0)
(146.925 0.000211251 0)
(160.845 0.000252727 0)
(174.421 0.0003028 0)
(187.628 0.000366849 0)
(200.428 0.000446442 0)
(212.785 0.000540034 0)
(224.671 0.000656928 0)
(236.106 0.000816506 0)
(247.122 0.000984332 0)
(257.77 0.00113414 0)
(268.115 0.00128516 0)
(278.283 0.00149826 0)
(288.395 0.00183051 0)
(298.557 0.00237407 0)
(308.865 0.0031157 0)
(319.409 0.00396491 0)
(330.387 0.00502203 0)
(342.102 0.00675207 0)
(355.379 0.00822086 0)
(373.587 0.0245828 0)
(448.547 1.09355 0)
(3.99365 -1.16373e-05 0)
(12.0509 -3.4739e-05 0)
(20.2833 -3.70058e-05 0)
(28.7939 -3.06681e-05 0)
(37.6894 -1.50391e-05 0)
(47.0807 4.59509e-06 0)
(57.0782 2.52513e-05 0)
(67.7861 4.8607e-05 0)
(79.2855 6.97643e-05 0)
(91.6063 9.09984e-05 0)
(104.692 0.000113925 0)
(118.376 0.000138181 0)
(132.397 0.000169813 0)
(146.459 0.000207579 0)
(160.31 0.000248608 0)
(173.813 0.000295552 0)
(186.937 0.00035229 0)
(199.656 0.0004242 0)
(211.918 0.000514008 0)
(223.71 0.000619293 0)
(235.032 0.000750576 0)
(245.923 0.000929393 0)
(256.427 0.00111701 0)
(266.612 0.00128652 0)
(276.566 0.00146251 0)
(286.419 0.00170981 0)
(296.265 0.00209383 0)
(306.195 0.00271704 0)
(316.299 0.00356046 0)
(326.667 0.00453505 0)
(337.498 0.00576262 0)
(349.105 0.00776015 0)
(362.364 0.00944612 0)
(380.968 0.0302167 0)
(456.826 1.17109 0)
(3.98854 -1.0062e-05 0)
(12.0346 -2.26512e-05 0)
(20.2543 -4.17592e-05 0)
(28.7501 -3.84655e-05 0)
(37.6281 -2.81761e-05 0)
(46.9983 -8.46611e-06 0)
(56.9715 9.71429e-06 0)
(67.6503 4.10166e-05 0)
(79.1152 6.50158e-05 0)
(91.3955 8.93836e-05 0)
(104.435 0.000113451 0)
(118.068 0.000139137 0)
(132.033 0.000166236 0)
(146.035 0.000201489 0)
(159.822 0.000243656 0)
(173.256 0.000289843 0)
(186.309 0.000342823 0)
(198.948 0.000407094 0)
(211.13 0.000487886 0)
(222.828 0.000589303 0)
(234.058 0.000707969 0)
(244.837 0.000855742 0)
(255.216 0.00105652 0)
(265.255 0.00126703 0)
(275.046 0.00145951 0)
(284.681 0.00166497 0)
(294.265 0.00195237 0)
(303.875 0.00239639 0)
(313.597 0.00311123 0)
(323.52 0.00407146 0)
(333.734 0.00519085 0)
(344.438 0.00661567 0)
(355.958 0.00892278 0)
(369.23 0.0109028 0)
(388.316 0.0370965 0)
(465.071 1.25196 0)
(3.98338 9.2658e-06 0)
(12.0192 -1.80546e-05 0)
(20.2269 -2.62114e-05 0)
(28.7089 -4.57737e-05 0)
(37.5708 -3.72709e-05 0)
(46.9218 -2.16875e-05 0)
(56.8718 -3.54932e-07 0)
(67.5239 2.25104e-05 0)
(78.9572 5.66394e-05 0)
(91.2007 8.4229e-05 0)
(104.198 0.000111706 0)
(117.784 0.000138696 0)
(131.7 0.000167188 0)
(145.648 0.000197241 0)
(159.377 0.000236421 0)
(172.747 0.000283413 0)
(185.732 0.000335142 0)
(198.302 0.000394887 0)
(210.406 0.000467777 0)
(222.027 0.000558705 0)
(233.164 0.000673378 0)
(243.851 0.000807444 0)
(254.119 0.000974236 0)
(264.033 0.00120004 0)
(273.674 0.00143697 0)
(283.143 0.00165656 0)
(292.506 0.00189675 0)
(301.851 0.002231 0)
(311.251 0.00274455 0)
(320.789 0.00356484 0)
(330.552 0.00465921 0)
(340.629 0.00594579 0)
(351.224 0.00759896 0)
(362.677 0.0102654 0)
(375.996 0.0126436 0)
(395.663 0.0455264 0)
(473.336 1.33545 0)
(3.97925 -3.80326e-08 0)
(12.0037 2.03437e-05 0)
(20.201 -2.10009e-05 0)
(28.67 -2.75805e-05 0)
(37.517 -4.63655e-05 0)
(46.8502 -3.20579e-05 0)
(56.7791 -1.32752e-05 0)
(67.4059 7.07693e-06 0)
(78.8102 4.05869e-05 0)
(91.0199 7.50588e-05 0)
(103.979 0.000106053 0)
(117.523 0.000136806 0)
(131.392 0.000166786 0)
(145.294 0.000198143 0)
(158.97 0.000231384 0)
(172.284 0.000274806 0)
(185.206 0.000326968 0)
(197.709 0.000384877 0)
(209.745 0.000452416 0)
(221.29 0.000535163 0)
(232.351 0.00063778 0)
(242.946 0.000767721 0)
(253.123 0.000919471 0)
(262.924 0.00110824 0)
(272.439 0.0013629 0)
(281.756 0.00163043 0)
(290.95 0.00188169 0)
(300.071 0.00216268 0)
(309.202 0.00255167 0)
(318.415 0.00314565 0)
(327.79 0.00408728 0)
(337.412 0.00533582 0)
(347.37 0.0068155 0)
(357.873 0.00873321 0)
(369.277 0.0118189 0)
(382.681 0.0147348 0)
(403.063 0.0559352 0)
(481.667 1.42078 0)
(3.98383 -3.32641e-05 0)
(11.9912 1.84027e-06 0)
(20.1748 2.54407e-05 0)
(28.6332 -2.1402e-05 0)
(37.4661 -2.61385e-05 0)
(46.7831 -4.31435e-05 0)
(56.6926 -2.05362e-05 0)
(67.2962 -8.1379e-06 0)
(78.6729 9.12972e-06 0)
(90.8516 5.67504e-05 0)
(103.776 9.60637e-05 0)
(117.281 0.000130654 0)
(131.109 0.000164709 0)
(144.966 0.000197768 0)
(158.598 0.00023218 0)
(171.86 0.000268834 0)
(184.725 0.000316779 0)
(197.167 0.000374627 0)
(209.138 0.000439685 0)
(220.617 0.000516105 0)
(231.603 0.000610169 0)
(242.122 0.00072622 0)
(252.208 0.000873815 0)
(261.918 0.001046 0)
(271.319 0.00126033 0)
(280.508 0.00154826 0)
(289.549 0.00185125 0)
(298.498 0.0021394 0)
(307.403 0.00246821 0)
(316.343 0.00292116 0)
(325.39 0.00360821 0)
(334.619 0.00468934 0)
(344.116 0.00611518 0)
(353.971 0.00781805 0)
(364.397 0.0100424 0)
(375.773 0.0136196 0)
(389.302 0.0172622 0)
(410.578 0.0688634 0)
(490.101 1.50681 0)
(4.94981 -4.40976e-05 0)
(12.0048 -0.000123481 0)
(20.1539 8.05672e-06 0)
(28.5961 3.02687e-05 0)
(37.418 -1.82551e-05 0)
(46.7196 -2.19351e-05 0)
(56.6113 -3.59161e-05 0)
(67.1937 -5.81583e-06 0)
(78.5452 -3.2723e-06 0)
(90.6944 2.07799e-05 0)
(103.586 7.56494e-05 0)
(117.057 0.000119783 0)
(130.847 0.000158087 0)
(144.665 0.00019548 0)
(158.254 0.00023179 0)
(171.472 0.000269462 0)
(184.286 0.000309652 0)
(196.671 0.000362715 0)
(208.582 0.000426922 0)
(219.997 0.000500221 0)
(230.919 0.00058691 0)
(241.365 0.000694035 0)
(251.374 0.00082556 0)
(260.994 0.000993571 0)
(270.302 0.00118955 0)
(279.376 0.00143363 0)
(288.288 0.00175987 0)
(297.083 0.0021039 0)
(305.812 0.00243529 0)
(314.524 0.00281999 0)
(323.295 0.00334738 0)
(332.193 0.00414206 0)
(341.294 0.00538357 0)
(350.68 0.00701343 0)
(360.446 0.00897441 0)
(370.81 0.0115547 0)
(382.179 0.0157108 0)
(395.879 0.0203435 0)
(418.268 0.0850567 0)
(498.671 1.5921 0)
(4.03513 -6.18053e-05 0)
(14.959 -8.65482e-05 0)
(20.1762 -0.000251244 0)
(28.5665 1.57484e-05 0)
(37.3695 3.40644e-05 0)
(46.6596 -1.22958e-05 0)
(56.5344 -1.52068e-05 0)
(67.0974 -2.45835e-05 0)
(78.4259 4.57987e-07 0)
(90.5483 -1.49296e-06 0)
(103.409 4.61692e-05 0)
(116.847 9.75514e-05 0)
(130.603 0.000146347 0)
(144.385 0.000188405 0)
(157.938 0.000229291 0)
(171.113 0.000269046 0)
(183.883 0.000310027 0)
(196.219 0.000354127 0)
(208.075 0.000412967 0)
(219.431 0.000484473 0)
(230.289 0.000567275 0)
(240.671 0.000665859 0)
(250.608 0.000788118 0)
(260.151 0.000937592 0)
(269.368 0.00112943 0)
(278.348 0.00135309 0)
(287.144 0.00163172 0)
(295.809 0.00200195 0)
(304.383 0.00239338 0)
(312.916 0.00277529 0)
(321.455 0.00322536 0)
(330.075 0.00383944 0)
(338.841 0.00475848 0)
(347.828 0.00618448 0)
(357.118 0.00804914 0)
(366.807 0.010309 0)
(377.124 0.0133033 0)
(388.507 0.0181439 0)
(402.431 0.0241356 0)
(426.185 0.105515 0)
(507.394 1.67483 0)
(4.05532 -6.66569e-05 0)
(12.2329 -5.28795e-05 0)
(25.2342 -8.90011e-05 0)
(28.5967 -0.000452516 0)
(37.3308 2.78066e-05 0)
(46.599 3.69632e-05 0)
(56.4618 -3.52196e-06 0)
(67.0063 -6.84666e-06 0)
(78.3139 -1.69873e-05 0)
(90.4117 -6.3296e-06 0)
(103.244 7.19645e-06 0)
(116.652 6.46747e-05 0)
(130.376 0.000122197 0)
(144.126 0.000175797 0)
(157.644 0.00022175 0)
(170.783 0.000266268 0)
(183.511 0.000309554 0)
(195.803 0.000354147 0)
(207.611 0.000402767 0)
(218.913 0.00046817 0)
(229.712 0.000548111 0)
(240.032 0.000641875 0)
(249.905 0.000754298 0)
(259.376 0.000894141 0)
(268.516 0.00106451 0)
(277.404 0.00128415 0)
(286.105 0.00154001 0)
(294.653 0.00185866 0)
(303.096 0.00227973 0)
(311.472 0.00272591 0)
(319.831 0.00316652 0)
(328.216 0.00369267 0)
(336.7 0.00440776 0)
(345.348 0.00547051 0)
(354.234 0.00710875 0)
(363.441 0.0092439 0)
(373.066 0.0118501 0)
(383.351 0.0153272 0)
(394.772 0.0209794 0)
(408.979 0.0288898 0)
(434.385 0.131614 0)
(516.259 1.75296 0)
(4.39043 -6.09925e-05 0)
(12.306 -0.000146881 0)
(20.711 1.37527e-05 0)
(35.8795 -6.64296e-05 0)
(37.3677 -0.000730759 0)
(46.5508 4.2295e-05 0)
(56.3885 3.86775e-05 0)
(66.9204 4.62668e-06 0)
(78.2079 -2.63544e-06 0)
(90.2834 -7.94531e-06 0)
(103.091 -1.46381e-05 0)
(116.469 3.17409e-05 0)
(130.165 8.50911e-05 0)
(143.883 0.000149789 0)
(157.371 0.000208285 0)
(170.477 0.000258289 0)
(183.169 0.000306436 0)
(195.42 0.000353524 0)
(207.185 0.000402243 0)
(218.439 0.000456106 0)
(229.185 0.000529021 0)
(239.446 0.00061876 0)
(249.258 0.000725257 0)
(258.665 0.000853771 0)
(267.732 0.00101417 0)
(276.542 0.00120905 0)
(285.151 0.00146091 0)
(293.604 0.00175408 0)
(301.929 0.00211903 0)
(310.174 0.00259848 0)
(318.373 0.00310825 0)
(326.575 0.00361765 0)
(334.822 0.00423212 0)
(343.184 0.00506442 0)
(351.728 0.00629313 0)
(360.526 0.00817558 0)
(369.659 0.0106225 0)
(379.233 0.0136308 0)
(389.5 0.0176726 0)
(400.986 0.0242916 0)
(415.546 0.0348634 0)
(442.922 0.165243 0)
(525.197 1.82484 0)
(4.21936 -5.60835e-05 0)
(13.3131 -0.000150708 0)
(20.8602 -0.000218409 0)
(29.5375 0.000134123 0)
(47.01 -1.06716e-05 0)
(46.5927 -0.00110393 0)
(56.3302 5.64237e-05 0)
(66.8334 4.06137e-05 0)
(78.1078 1.65614e-06 0)
(90.1618 2.08784e-07 0)
(102.946 -1.31856e-05 0)
(116.298 -5.00298e-06 0)
(129.966 5.29387e-05 0)
(143.658 0.000109017 0)
(157.116 0.000180517 0)
(170.192 0.000243946 0)
(182.85 0.00029803 0)
(195.067 0.000350005 0)
(206.792 0.000401363 0)
(218.003 0.000454809 0)
(228.702 0.000514707 0)
(238.911 0.000596428 0)
(248.664 0.000697558 0)
(258.01 0.000818888 0)
(267.012 0.000966295 0)
(275.749 0.00115077 0)
(284.279 0.00137422 0)
(292.639 0.00166345 0)
(300.869 0.00199996 0)
(308.995 0.00241865 0)
(317.062 0.00296525 0)
(325.103 0.00354797 0)
(333.164 0.00413745 0)
(341.287 0.00485481 0)
(349.542 0.00582333 0)
(357.993 0.0072437 0)
(366.712 0.00940727 0)
(375.784 0.012214 0)
(385.318 0.0156897 0)
(395.584 0.0203946 0)
(407.164 0.0281716 0)
(422.156 0.0424035 0)
(451.851 0.208949 0)
(534.041 1.88944 0)
(4.00004 -8.4262e-06 0)
(12.7602 -4.94356e-05 0)
(22.5481 -0.000228176 0)
(29.7809 -0.000309017 0)
(38.7951 0.000320793 0)
(58.7332 8.30324e-05 0)
(56.3743 -0.00158833 0)
(66.7644 6.77377e-05 0)
(78.0064 3.96413e-05 0)
(90.047 -4.30978e-06 0)
(102.809 1.26527e-05 0)
(116.138 -1.23006e-05 0)
(129.78 9.4027e-06 0)
(143.445 7.13594e-05 0)
(156.878 0.000136305 0)
(169.925 0.000214551 0)
(182.554 0.000282831 0)
(194.738 0.000341164 0)
(206.429 0.000397386 0)
(217.601 0.000453532 0)
(228.259 0.000512502 0)
(238.42 0.000579494 0)
(248.121 0.000671491 0)
(257.408 0.00078593 0)
(266.349 0.000924638 0)
(275.02 0.00109432 0)
(283.477 0.00130683 0)
(291.758 0.00156348 0)
(299.894 0.00189591 0)
(307.924 0.00228258 0)
(315.871 0.00276345 0)
(323.779 0.00338781 0)
(331.678 0.00405471 0)
(339.613 0.00473705 0)
(347.625 0.00557392 0)
(355.783 0.00670054 0)
(364.152 0.00834223 0)
(372.804 0.0108295 0)
(381.824 0.0140521 0)
(391.33 0.0180725 0)
(401.613 0.0235598 0)
(413.321 0.0327334 0)
(428.838 0.0520697 0)
(461.216 0.266196 0)
(542.488 1.94125 0)
(3.96634 2.01217e-05 0)
(12.0726 -3.71653e-07 0)
(21.5415 -3.03047e-06 0)
(32.1684 -0.000331194 0)
(39.1491 -0.000420637 0)
(48.5749 0.000583433 0)
(71.1307 0.000221912 0)
(66.8072 -0.00220332 0)
(77.9259 7.81908e-05 0)
(89.9309 3.88122e-05 0)
(102.679 2.43821e-05 0)
(115.986 -6.20484e-06 0)
(129.606 3.28322e-05 0)
(143.246 2.94993e-05 0)
(156.654 9.0815e-05 0)
(169.676 0.000166845 0)
(182.277 0.0002519 0)
(194.432 0.000325155 0)
(206.092 0.000388041 0)
(217.231 0.000449047 0)
(227.849 0.000510638 0)
(237.969 0.000576149 0)
(247.623 0.000651484 0)
(256.858 0.000755519 0)
(265.74 0.00088566 0)
(274.349 0.00104486 0)
(282.74 0.0012405 0)
(290.947 0.00148557 0)
(299.004 0.00178083 0)
(306.94 0.00216336 0)
(314.79 0.00260815 0)
(322.577 0.0031605 0)
(330.342 0.00387424 0)
(338.113 0.00463861 0)
(345.934 0.00542892 0)
(353.847 0.00640438 0)
(361.919 0.00771441 0)
(370.216 0.00961182 0)
(378.809 0.012472 0)
(387.788 0.0161759 0)
(397.279 0.0208328 0)
(407.597 0.0272487 0)
(419.474 0.0381211 0)
(435.622 0.0646052 0)
(471.031 0.340439 0)
(550.143 1.98071 0)
(3.93546 6.0388e-05 0)
(11.9536 4.68868e-05 0)
(20.3304 2.68101e-05 0)
(30.6475 7.89218e-05 0)
(42.2639 -0.000462117 0)
(49.0538 -0.000557511 0)
(58.9699 0.000936097 0)
(84.197 0.000408495 0)
(77.9625 -0.00296453 0)
(89.8383 5.89659e-05 0)
(102.549 4.15184e-05 0)
(115.842 2.87399e-05 0)
(129.44 -1.04597e-06 0)
(143.059 4.91335e-05 0)
(156.443 5.64733e-05 0)
(169.441 0.000116814 0)
(182.018 0.000200806 0)
(194.146 0.000292732 0)
(205.778 0.000371279 0)
(216.886 0.000439067 0)
(227.472 0.000505523 0)
(237.553 0.000573445 0)
(247.165 0.000646491 0)
(256.353 0.000731924 0)
(265.182 0.000850247 0)
(273.732 0.000998963 0)
(282.061 0.00118216 0)
(290.202 0.001408 0)
(298.184 0.00169092 0)
(306.04 0.00203103 0)
(313.796 0.00247137 0)
(321.485 0.00298372 0)
(329.128 0.00361888 0)
(336.764 0.00443522 0)
(344.42 0.00531167 0)
(352.139 0.00622729 0)
(359.963 0.00736352 0)
(367.959 0.00888619 0)
(376.193 0.0110792 0)
(384.737 0.0143695 0)
(393.685 0.0186316 0)
(403.174 0.0240344 0)
(413.549 0.03156 0)
(425.64 0.0445194 0)
(442.552 0.0810366 0)
(481.242 0.437201 0)
(556.613 2.00792 0)
(3.92985 9.50948e-05 0)
(11.8496 0.000131801 0)
(20.0948 6.49731e-05 0)
(28.8643 7.102e-05 0)
(40.1741 0.000209222 0)
(52.9298 -0.000632151 0)
(59.5851 -0.000723554 0)
(70.0607 0.00139478 0)
(97.7529 0.000640523 0)
(89.8631 -0.00387546 0)
(102.444 4.61685e-05 0)
(115.698 4.98232e-05 0)
(129.283 1.23646e-05 0)
(142.881 4.03475e-05 0)
(156.245 3.60466e-05 0)
(169.22 8.88099e-05 0)
(181.773 0.000146803 0)
(193.877 0.000238578 0)
(205.483 0.000337434 0)
(216.565 0.000421596 0)
(227.121 0.000494806 0)
(237.17 0.000567475 0)
(246.743 0.000642917 0)
(255.889 0.000724933 0)
(264.67 0.000822461 0)
(273.166 0.000957824 0)
(281.436 0.00112831 0)
(289.514 0.00133946 0)
(297.431 0.00160046 0)
(305.212 0.00192719 0)
(312.888 0.00231952 0)
(320.482 0.00282636 0)
(328.026 0.00341667 0)
(335.539 0.00414731 0)
(343.059 0.00508201 0)
(350.611 0.0060877 0)
(358.239 0.00714897 0)
(365.984 0.00847135 0)
(373.912 0.0102405 0)
(382.091 0.0127752 0)
(390.595 0.0165623 0)
(399.522 0.0214731 0)
(409.024 0.0277536 0)
(419.479 0.0366157 0)
(431.839 0.0521717 0)
(449.712 0.102761 0)
(491.667 0.564041 0)
(561.021 2.02776 0)
(3.92818 0.000118839 0)
(11.8274 0.000201514 0)
(19.8973 0.000176812 0)
(28.488 8.49417e-05 0)
(37.7719 0.000136311 0)
(50.2199 0.000390464 0)
(64.2487 -0.000848772 0)
(70.8147 -0.000922991 0)
(81.8936 0.00197489 0)
(111.377 0.000905965 0)
(102.451 -0.00491885 0)
(115.582 4.20224e-05 0)
(129.125 8.0631e-05 0)
(142.713 5.85537e-05 0)
(156.056 7.02235e-05 0)
(169.012 5.80485e-05 0)
(181.542 0.000111876 0)
(193.624 0.000180606 0)
(205.207 0.000280514 0)
(216.264 0.000386478 0)
(226.793 0.000476622 0)
(236.812 0.000555948 0)
(246.354 0.000635752 0)
(255.462 0.00072028 0)
(264.2 0.000813007 0)
(272.648 0.000925162 0)
(280.863 0.00108063 0)
(288.882 0.00127653 0)
(296.735 0.00152028 0)
(304.45 0.00182224 0)
(312.051 0.00219958 0)
(319.564 0.00265245 0)
(327.013 0.00323624 0)
(334.426 0.00391673 0)
(341.823 0.00475715 0)
(349.238 0.0058279 0)
(356.696 0.00698244 0)
(364.242 0.00821246 0)
(371.916 0.00975078 0)
(379.785 0.0118058 0)
(387.919 0.0147357 0)
(396.391 0.0190975 0)
(405.308 0.0247642 0)
(414.838 0.0320824 0)
(425.403 0.0425671 0)
(438.096 0.0614273 0)
(457.198 0.131728 0)
(501.916 0.722531 0)
(563.526 2.04719 0)
(3.92655 0.00013972 0)
(11.8192 0.000251859 0)
(19.8492 0.000263438 0)
(28.181 0.000223255 0)
(37.2345 0.000105424 0)
(47.1532 0.000226716 0)
(60.8768 0.000636527 0)
(76.2512 -0.00112561 0)
(82.779 -0.00116851 0)
(94.4461 0.00268157 0)
(124.618 0.00118415 0)
(115.565 -0.00605684 0)
(129 5.3073e-05 0)
(142.543 0.00012318 0)
(155.878 0.000113719 0)
(168.814 9.27743e-05 0)
(181.325 8.38496e-05 0)
(193.385 0.000135828 0)
(204.946 0.000218596 0)
(215.98 0.000326939 0)