/*--------------------------------*- C++ -*----------------------------------*\
| =========                 |                                                 |
| \\      /  F ield         | OpenFOAM: The Open Source CFD Toolbox           |
|  \\    /   O peration     | Version:  v2012                                 |
|   \\  /    A nd           | Website:  www.openfoam.com                      |
|    \\/     M anipulation  |                                                 |
\*---------------------------------------------------------------------------*/
FoamFile
{
    version     2.0;
    format      ascii;
    class       volScalarField;
    location    "0";
    object      up;
}
// * * * * * * * * * * * * * * * * * * * * * * * * * * * * * * * * * * * * * //

dimensions      [0 0 0 0 0 0 0];


internalField   nonuniform List<scalar> 
31383
(
0.423777
0.212601
1.22587
0.208649
0.641224
2.05743
0.2056
0.629273
1.07885
2.90682
0.203302
0.620049
1.05867
1.53111
3.77547
0.201388
0.613096
1.0431
1.50235
2.00393
4.68925
0.199723
0.607309
1.03136
1.48016
1.9661
2.50344
5.66504
0.198295
0.602273
1.02159
1.46343
1.93689
2.45591
3.03577
6.70021
0.197078
0.597958
1.01308
1.44951
1.91489
2.4192
2.9778
3.60591
7.79515
0.195992
0.594271
1.0058
1.43739
1.89657
2.39155
2.93301
3.53705
4.21521
8.94114
0.195007
0.59099
0.999581
1.42701
1.88064
2.36853
2.89928
3.48362
4.13659
4.86452
10.0258
0.194084
0.588011
0.994045
1.41815
1.86698
2.34851
2.87121
3.4434
4.07428
4.77449
5.54365
11.186
0.193225
0.585223
0.98902
1.41026
1.85533
2.33137
2.84679
3.40992
4.02727
4.70314
5.44202
6.23489
12.7038
0.192424
0.582623
0.984315
1.40311
1.84496
2.31673
2.82589
3.3808
3.98817
4.65007
5.36316
6.12527
6.92528
14.158
0.191695
0.580199
0.979929
1.3964
1.83555
2.30371
2.80805
3.35587
3.9538
4.60544
5.30444
6.04126
6.81014
7.5994
15.7595
0.191031
0.577999
0.975839
1.39016
1.82674
2.2919
2.79215
3.33459
3.925
4.56541
5.25503
5.97752
6.72239
7.48174
8.27161
17.9405
0.190437
0.57599
0.972129
1.38434
1.81855
2.28084
2.77777
3.31564
3.90014
4.53338
5.21133
5.92436
6.65518
7.3925
8.14393
8.93127
19.9072
0.189901
0.574199
0.968739
1.37905
1.8109
2.27055
2.76429
3.29848
3.87801
4.50493
5.17484
5.87871
6.59973
7.32432
8.04839
8.80139
9.56979
21.8973
0.189421
0.572574
0.965716
1.37423
1.80395
2.26096
2.75176
3.28228
3.85796
4.47946
5.14353
5.83787
6.55175
7.26879
7.97539
8.7053
9.43506
10.1885
23.3827
0.188987
0.571125
0.96298
1.36993
1.79763
2.25225
2.74008
3.26748
3.8385
4.45672
5.11457
5.80416
6.50891
7.21974
7.91505
8.63114
9.33686
10.0477
10.787
23.8738
0.1886
0.569816
0.960534
1.36604
1.79197
2.24431
2.72948
3.25357
3.82173
4.4348
5.08972
5.77326
6.47303
7.1752
7.86407
8.56959
9.26143
9.94775
10.6391
11.3653
24.4365
0.188252
0.568642
0.958327
1.36255
1.78685
2.23721
2.71981
3.24093
3.80546
4.41531
5.06626
5.7462
6.44154
7.13836
7.81954
8.51746
9.19885
9.87151
10.5381
11.2096
11.9247
25.0798
0.18794
0.567594
0.95635
1.35941
1.78228
2.2308
2.71116
3.22942
3.79069
4.39668
5.04357
5.72102
6.41209
7.10589
7.78289
8.47085
9.14616
9.8081
10.4609
11.1073
11.759
12.4661
25.6741
0.187659
0.566647
0.954575
1.35659
1.77815
2.22506
2.70335
3.21912
3.77714
4.37986
5.02306
5.69615
6.38563
7.07493
7.75
8.43182
9.09944
9.75474
10.3966
11.029
11.6553
12.288
12.991
26.2737
0.187403
0.565802
0.952987
1.35407
1.77445
2.21988
2.69637
3.20982
3.7652
4.36395
5.00422
5.67403
6.35968
7.04791
7.71887
8.39732
9.06015
9.70759
10.3427
10.964
11.5759
12.1827
12.7968
13.5011
26.9044
0.187165
0.565022
0.951549
1.3518
1.77114
2.21524
2.69006
3.20149
3.75432
4.35065
4.98677
5.65362
6.33608
7.02118
7.69179
8.36474
9.02565
9.66763
10.295
10.9096
11.5101
12.1021
12.6898
13.2857
13.9981
27.5873
0.186948
0.564309
0.950244
1.34976
1.76816
2.21108
2.68442
3.19396
3.74459
4.33809
4.97166
5.63531
6.31466
6.9967
7.66499
8.33579
8.99338
9.63289
10.2544
10.8616
11.4551
12.0354
12.6077
13.1762
13.7806
14.4936
28.3374
0.186748
0.56365
0.949036
1.3479
1.76548
2.20735
2.67935
3.18724
3.73579
4.32709
4.95749
5.61844
6.29542
6.97444
7.64048
8.30787
8.96445
9.60058
10.2195
10.8205
11.4068
11.9797
12.5401
13.0928
13.6669
14.2567
14.9855
29.1646
0.186565
0.563045
0.947927
1.34618
1.76304
2.20399
2.6748
3.1812
3.72792
4.31698
4.94528
5.60324
6.27752
6.95475
7.61818
8.28222
8.93662
9.57162
10.187
10.7852
11.3653
11.931
12.4839
13.0243
13.58
14.1403
14.7246
15.4704
30.0827
0.186398
0.562495
0.94691
1.34461
1.76078
2.20092
2.67071
3.17578
3.72086
4.30794
4.93402
5.5898
6.26183
6.93619
7.59841
8.25887
8.91118
9.54366
10.158
10.7528
11.3297
11.8893
12.4346
12.9673
13.5088
14.0517
14.6041
15.1867
15.9554
31.1198
0.186245
0.561988
0.945978
1.34315
1.7587
2.19809
2.66697
3.17091
3.71453
4.2999
4.92402
5.57752
6.24742
6.91991
7.57986
8.23788
8.88787
9.51804
10.13
10.7235
11.2972
11.8534
12.3925
12.9174
13.4495
13.9789
14.5126
15.0616
15.6446
16.4428
32.3582
0.186108
0.561524
0.94512
1.34183
1.75679
2.19548
2.66352
3.16644
3.70881
4.29262
4.91496
5.56677
6.23445
6.90528
7.56356
8.21843
8.86702
9.49457
10.1042
10.6955
11.2679
11.8207
12.3563
12.8749
13.3977
13.9189
14.4382
14.9665
15.5138
16.0995
16.9338
33.9879
0.185983
0.561111
0.944341
1.34061
1.75506
2.19309
2.66035
3.16233
3.7036
4.28607
4.90681
5.55681
6.22286
6.89197
7.54883
8.20125
8.84754
9.47368
10.0809
10.6698
11.24
11.7915
12.3235
12.8385
13.3533
13.8665
14.3762
14.8901
15.415
15.9625
16.553
17.4312
36.2108
0.185871
0.560737
0.943646
1.3395
1.75346
2.1909
2.65744
3.15855
3.69879
4.28011
4.89946
5.54797
6.21244
6.87968
7.53537
8.18549
8.83048
9.45406
10.0599
10.6464
11.2141
11.7634
12.2941
12.8054
13.3159
13.8222
14.3221
14.8261
15.3355
15.8596
16.4084
17.0059
17.9388
39.075
0.185767
0.560393
0.943007
1.3385
1.752
2.1889
2.65477
3.15508
3.69436
4.27456
4.8928
5.54
6.20321
6.86891
7.52321
8.17127
8.81461
9.4369
10.0404
10.6254
11.1907
11.7375
12.2661
12.7759
13.2815
13.7836
14.2767
14.7709
15.2702
15.7769
16.3007
16.8521
17.4595
18.4597
42.8834
0.18567
0.560079
0.942431
1.3376
1.75068
2.18707
2.65234
3.1519
3.6903
4.26949
4.88664
5.53269
6.19475
6.85933
7.51244
8.15859
8.80055
9.42095
10.023
10.6058
11.1698
11.7142
12.2402
12.7479
13.2508
13.7494
14.2372
14.7233
15.2132
15.7096
16.2153
16.7398
17.2956
17.9162
18.9969
47.191
0.185572
0.559787
0.941902
1.33678
1.74951
2.18543
2.65011
3.14899
3.68659
4.26483
4.88091
5.52607
6.18695
6.85059
7.50263
8.14706
8.78777
9.40686
10.0071
10.5885
11.1502
11.6932
12.2169
12.7221
13.222
13.719
14.2026
14.6836
15.1646
15.6503
16.1443
16.6504
17.1773
17.7403
18.3765
19.5482
52.4995
0.185488
0.559494
0.941412
1.33602
1.74842
2.18394
2.6481
3.14633
3.68318
4.26053
4.87572
5.51985
6.17987
6.84259
7.49384
8.13684
8.77627
9.39399
9.99286
10.5725
11.1329
11.6736
12.196
12.6988
13.1956
13.6896
14.1714
14.6476
15.1235
15.6003
16.0842
16.5775
17.0839
17.6147
18.1866
18.8429
20.1464
59.2106
0.185703
0.559236
0.940911
1.33532
1.74743
2.18259
2.64629
3.14394
3.68007
4.25668
4.87091
5.51417
6.17328
6.83512
7.48585
8.12739
8.76607
9.38256
9.98004
10.5582
11.1168
11.6563
12.1763
12.6779
13.1713
13.663
14.1413
14.6159
15.0862
15.5573
16.0314
16.5139
17.0085
17.5173
18.0539
18.6352
19.3174
20.784
67.9387
0.207855
0.559886
0.940479
1.33461
1.74651
2.18134
2.64464
3.14179
3.67726
4.2531
4.86657
5.50907
6.16732
6.82827
7.4784
8.11894
8.75663
9.37203
9.96838
10.5453
11.1026
11.6402
12.1589
12.6582
13.1498
13.6389
14.1144
14.5853
15.054
15.5202
15.9873
16.46
16.9417
17.4376
17.951
18.4942
19.0888
19.8018
21.474
79.6689
0.188379
0.628516
0.941586
1.334
1.74558
2.18018
2.64311
3.13981
3.67473
4.24989
4.86249
5.5042
6.16178
6.82209
7.47165
8.11104
8.74819
9.36264
9.95785
10.5336
11.0895
11.6259
12.1429
12.6408
13.1295
13.6172
14.09
14.5581
15.0235
15.4863
15.9488
16.4144
16.8864
17.3696
17.8669
18.3857
18.937
19.5479
20.3
22.2329
96.0354
0.18904
0.5714
1.06093
1.3356
1.74477
2.179
2.64169
3.13799
3.67241
4.24691
4.8589
5.49973
6.1567
6.81628
7.46521
8.10382
8.74024
9.35402
9.94842
10.5231
11.0779
11.6128
12.1285
12.6247
13.1114
13.5968
14.0677
14.5329
14.9948
15.4552
15.9139
16.3737
16.8391
17.3111
17.7958
18.2982
18.8224
19.3847
20.0141
20.8148
23.0825
119.811
0.196679
0.573949
0.968057
1.50967
1.74692
2.17799
2.64027
3.1363
3.67029
4.24428
4.85572
5.49581
6.15202
6.81096
7.45946
8.0972
8.733
9.34607
9.93979
10.5136
11.0673
11.6011
12.1154
12.6103
13.0949
13.5791
14.0475
14.5102
14.9692
15.4258
15.8815
16.3385
16.7971
17.2612
17.7345
18.2227
18.7307
19.2626
19.8377
20.4899
21.3516
24.0521
155.607
0.192311
0.596702
0.97353
1.38176
1.97982
2.18078
2.63904
3.13459
3.66832
4.24182
4.85269
5.49236
6.14785
6.80626
7.45407
8.09106
8.72638
9.33887
9.93186
10.5049
11.0577
11.5905
12.1036
12.5972
13.0803
13.5625
14.0292
14.4898
14.9466
15.4002
15.8526
16.3052
16.7601
17.2182
17.683
18.1591
18.6516
19.1651
19.7072
20.2957
20.976
21.9154
25.1841
210.263
0.186817
0.581892
1.01125
1.39092
1.81672
2.47628
2.64256
3.13313
3.66627
4.23959
4.84993
5.48902
6.14403
6.80179
7.44937
8.0854
8.72029
9.33205
9.9245
10.4969
11.049
11.5809
12.093
12.5853
13.0666
13.5474
14.0123
14.4707
14.9247
15.3767
15.8259
16.275
16.7258
17.1801
17.6382
18.1058
18.5847
19.0823
19.604
20.1568
20.7631
21.4754
22.5136
26.5395
290.703
0.185763
0.564125
0.982952
1.44379
1.83022
2.27775
3.00334
3.13752
3.66457
4.23719
4.84738
5.48604
6.14059
6.79789
7.44485
8.08025
8.71458
9.32585
9.9177
10.4895
11.0409
11.5722
12.0834
12.5747
13.0541
13.5336
13.9967
14.4536
14.9059
15.3543
15.8018
16.2475
16.6949
17.1448
17.5994
18.0589
18.5284
19.0116
19.5165
20.0466
20.6122
21.2399
21.9918
23.1502
28.2081
399.09
0.184872
0.560127
0.950565
1.39952
1.89861
2.29611
2.76995
3.563
3.66998
4.23528
4.84474
5.48321
6.13737
6.79434
7.44085
8.07553
8.70951
9.32021
9.91141
10.4827
11.0336
11.5641
12.0746
12.565
13.0436
13.5215
13.9832
14.4377
14.888
15.3345
15.779
16.2228
16.6666
17.113
17.563
18.0177
18.4794
18.9527
19.4421
19.9538
20.4952
21.0759
21.729
22.5296
23.84
30.318
559.301
0.184675
0.556923
0.942158
1.35054
1.83622
2.38052
2.79369
3.29812
4.15139
4.24189
4.84256
5.4805
6.13431
6.79099
7.43724
8.07123
8.70467
9.31499
9.90562
10.4764
11.0267
11.5567
12.0664
12.5561
13.0334
13.5106
13.9706
14.4242
14.8724
15.3163
15.7586
16.1994
16.6411
17.0831
17.5293
17.9806
18.4369
18.9015
19.3798
19.8749
20.3966
20.9509
21.5497
22.232
23.0913
24.6555
33.0337
842.499
0.1846
0.556079
0.935703
1.3366
1.76886
2.29806
2.89466
3.3272
3.86549
4.74404
4.8506
5.47789
6.13146
6.7878
7.43378
8.06733
8.70031
9.31013
9.90038
10.4705
11.0204
11.5498
12.059
12.548
13.024
13.4999
13.9591
14.4109
14.8576
15.3004
15.7401
16.1793
16.6172
17.0575
17.4985
17.9456
18.3982
18.8578
19.3265
19.8096
20.3128
20.8444
21.4139
22.0354
22.7512
23.6836
25.5868
36.5063
1241.96
0.184545
0.555704
0.933769
1.32617
1.7484
2.21063
2.79039
3.44416
3.89903
4.47141
5.31168
5.48759
6.12872
6.78467
7.43069
8.06372
8.69641
9.30573
9.89544
10.4652
11.0145
11.5434
12.0521
12.5406
13.0161
13.4909
13.9488
14.3993
14.8446
15.2852
15.7233
16.1597
16.5958
17.0322
17.4713
17.9144
18.3625
18.8165
19.2801
19.7534
20.2436
20.7572
21.3007
21.8868
22.5337
23.2924
24.317
26.6762
41.5499
1648.79
0.184469
0.555459
0.932812
1.32282
1.73342
2.18281
2.6811
3.31721
4.02611
4.50801
5.1099
5.84305
6.14013
6.78202
7.42746
8.06033
8.6928
9.30173
9.89101
10.4603
11.0091
11.5375
12.0457
12.5336
13.0084
13.4826
13.9398
14.3894
14.8324
15.2721
15.7084
16.1424
16.5757
17.0101
17.4459
17.8856
18.3301
18.7795
19.2368
19.705
20.1849
20.6831
21.2067
21.7663
22.3714
23.0478
23.8587
25.0008
27.9791
49.0424
2007.98
0.184395
0.555154
0.932237
1.32107
1.72838
2.16271
2.64509
3.18488
3.87872
4.62836
5.14676
5.76917
6.33911
6.79502
7.42473
8.05699
8.68938
9.29795
9.88694
10.4557
11.0041
11.5321
12.0397
12.5272
13.0011
13.4745
13.931
14.3798
14.8223
15.2597
15.6944
16.1267
16.5586
16.9901
17.4231
17.8593
18.3001
18.7455
19.1986
19.6599
20.1329
20.6201
21.1277
21.6635
22.2399
22.8698
23.5818
24.4549
25.7196
29.5715
59.3128
2398.94
0.18434
0.554852
0.931563
1.32007
1.72566
2.15571
2.6194
3.14008
3.7258
4.46877
5.23208
5.80315
6.43427
6.80481
7.4394
8.05396
8.68596
9.29452
9.8831
10.4516
10.9996
11.527
12.0342
12.5211
12.9942
13.4676
13.9229
14.3709
14.812
15.2488
15.6822
16.1128
16.5417
16.9718
17.4029
17.8363
18.2728
18.715
19.1632
19.6206
20.0868
20.566
21.0614
21.5797
22.1305
22.7259
23.3843
24.1387
25.0878
26.5877
31.5623
74.492
2819.17
0.184307
0.554624
0.93089
1.31891
1.72414
2.15189
2.61022
3.10868
3.67177
4.30432
5.07505
5.82293
6.46356
7.0922
7.24489
8.06934
8.68294
9.29109
9.87962
10.4477
10.9953
11.5223
12.0291
12.5156
12.9881
13.461
13.9155
14.3627
14.8031
15.2384
15.6701
16.0996
16.5277
16.9551
17.3834
17.8141
18.2483
18.6866
19.1319
19.5832
20.0442
20.5175
21.0043
21.5102
22.0407
22.6084
23.2265
23.9166
24.7234
25.7688
27.6006
34.1137
98.8647
3120.3
0.184208
0.554496
0.930399
1.31776
1.72243
2.14976
2.60517
3.097
3.63494
4.24173
4.91587
5.68429
6.39651
7.11693
7.73047
7.66425
8.69927
9.28801
9.87613
10.4441
10.9914
11.5181
12.0243
12.5104
12.9822
13.4546
13.9089
14.3549
14.7948
15.2295
15.6602
16.0879
16.5136
16.9393
17.3662
17.7946
18.2252
18.6609
19.1022
19.5497
20.0058
20.473
20.9538
21.4484
21.9656
22.5111
23.0973
23.7426
24.4716
25.3411
26.5099
28.8023
37.4599
142.401
3392.04
0.177056
0.55417
0.930107
1.31693
1.72071
2.14742
2.60237
3.09057
3.62068
4.20044
4.84605
5.5505
6.28796
6.95252
7.74854
8.35963
8.0682
9.30511
9.87302
10.4407
10.9877
11.5141
12.02
12.5056
12.9771
13.4487
13.9024
14.3481
14.7873
15.2215
15.651
16.0777
16.502
16.9256
17.3498
17.7768
18.2049
18.6377
19.0754
19.5192
19.9711
20.4321
20.907
21.3945
21.901
22.4289
22.9922
23.6012
24.2782
25.0542
26.0015
27.2986
30.2691
41.9024
230.2
3969.16
0.127069
0.532754
0.929498
1.31643
1.71947
2.14506
2.59927
3.08724
3.6129
4.18387
4.80267
5.47593
6.19539
6.88161
7.49209
8.38112
8.96906
8.46134
9.89087
10.4375
10.9843
11.5103
12.016
12.5011
12.972
13.4431
13.8964
14.3416
14.7801
15.2133
15.6424
16.0677
16.491
16.913
17.3364
17.7606
18.1863
18.6159
19.0504
19.4903
19.9381
20.3962
20.8642
21.3458
21.8427
22.3606
22.904
23.4862
24.1235
24.8376
25.6708
26.7148
28.2448
32.1081
47.7258
436.399
5175.6
-0.116149
0.384072
0.893586
1.3155
1.71873
2.14334
2.59618
3.08339
3.60884
4.17457
4.78398
5.43361
6.11909
6.83826
7.46156
8.01587
8.98847
9.5518
8.84776
10.4559
10.981
11.5069
12.0122
12.4971
12.9678
13.4385
13.8905
14.3356
14.7734
15.2055
15.634
16.0582
16.4806
16.9016
17.3228
17.7451
18.1695
18.5958
19.0276
19.4649
19.9094
20.3622
20.8248
21.3006
21.7907
22.2999
22.8293
23.3919
23.9968
24.665
25.4245
26.3258
27.4916
29.3703
34.4741
56.8395
992.367
8058.1
-0.124602
-0.345089
0.644434
1.2647
1.71745
2.14235
2.59397
3.07956
3.60435
4.16955
4.7733
5.41304
6.08102
6.76304
7.46811
8.02436
8.50712
9.57575
10.1102
9.23099
10.9996
11.5035
12.0087
12.4932
12.9632
13.4339
13.8858
14.3296
14.7669
15.1989
15.6266
16.0505
16.4717
16.8918
17.3118
17.7319
18.1536
18.5782
19.0074
19.4418
19.8835
20.3319
20.7898
21.2604
21.7427
22.2437
22.7641
23.3112
23.8926
24.5241
25.2286
26.0431
27.0314
28.3313
30.7244
37.6052
72.3061
2219.66
24184.3
-0.119289
-0.373495
-0.585235
0.912113
1.65121
2.14069
2.59273
3.07688
3.59967
4.16425
4.76746
5.4012
6.05919
6.73169
7.39557
8.0834
8.5571
9.04754
10.1435
10.6419
9.61415
11.5221
12.0053
12.4896
12.9593
13.4293
13.8807
14.324
14.7613
15.192
15.6192
16.0429
16.4631
16.8819
17.301
17.7197
18.1398
18.5632
18.9891
19.4207
19.8584
20.3036
20.7575
21.2227
21.7003
22.1933
22.7059
23.2403
23.8059
24.4106
25.0731
25.8223
26.702
27.7986
29.3005
32.4103
41.8784
99.5225
3645.53
13658.9
-0.116202
-0.357982
-0.625588
-0.912706
1.19108
2.05835
2.59065
3.07523
3.59638
4.15873
4.76123
5.3947
6.04653
6.70925
7.37334
8.01609
8.69352
9.1074
9.54324
10.6891
11.1463
9.98992
12.0235
12.4862
12.9554
13.4251
13.8766
14.3189
14.7555
15.1863
15.6129
16.0353
16.4546
16.873
17.2908
17.7085
18.1265
18.5481
18.9726
19.4016
19.8362
20.2778
20.7274
21.1882
21.6608
22.148
22.6523
23.1789
23.7295
24.3153
24.9486
25.6486
26.4499
27.4111
28.6424
30.4821
34.5815
47.7836
153.482
5198.92
9987.27
-0.11455
-0.349034
-0.599761
-0.884374
-1.27109
1.48519
2.49141
3.07264
3.59433
4.1548
4.7549
5.38791
6.03975
6.69646
7.35136
7.99875
8.63374
9.27667
9.63507
10.0256
11.2122
11.6219
10.3968
12.504
12.952
13.4216
13.8719
14.3146
14.7504
15.1806
15.606
16.0284
16.4469
16.8644
17.281
17.6982
18.1149
18.5351
18.9576
19.3835
19.8152
20.2545
20.701
21.1571
21.6246
22.1051
22.6036
23.1214
23.6628
24.2328
24.8434
25.5075
26.2531
27.1187
28.1816
29.5581
31.9072
37.4672
55.6658
280.75
8822.84
13416.5
-0.113685
-0.344217
-0.584972
-0.847936
-1.15326
-1.57483
1.79847
2.95579
3.59121
4.15242
4.75023
5.38098
6.03259
6.68943
7.33873
7.97643
8.62649
9.22754
9.84603
10.1375
10.4988
11.7135
12.0852
10.8088
12.9694
13.4179
13.8685
14.3104
14.7457
15.1753
15.5995
16.0213
16.4398
16.8564
17.2727
17.688
18.1048
18.5223
18.9441
19.3678
19.797
20.2323
20.6762
21.129
21.5912
22.0678
22.5589
23.0683
23.6001
24.1588
24.7531
25.392
26.0945
26.8928
27.8401
29.0299
30.653
33.69
41.4049
70.4101
671.841
44773.6
22622
-0.11384
-0.34166
-0.576994
-0.827262
-1.10577
-1.43569
-1.87506
2.1351
3.45642
4.14874
4.74773
5.3758
6.02519
6.68206
7.33201
7.96345
8.60547
9.22989
9.80244
10.391
10.6246
10.9617
12.1923
12.5344
11.2119
13.4346
13.8648
14.3065
14.7414
15.17
15.594
16.0152
16.4332
16.8491
17.2646
17.6796
18.0952
18.5119
18.9316
19.3535
19.7805
20.2131
20.6537
21.1025
21.562
22.0328
22.5182
23.0211
23.5451
24.0926
24.6721
25.2918
25.9638
26.7131
27.5773
28.6247
29.9635
31.9799
36.0063
46.9447
97.4739
2123.11
21208.7
42951.2
-0.114528
-0.342151
-0.572731
-0.816093
-1.0791
-1.37653
-1.73522
-2.1947
2.49878
3.99699
4.74362
5.37309
6.02007
6.67433
7.32479
7.95628
8.59281
9.21009
9.8132
10.3587
10.914
11.0962
11.4131
12.6525
12.9643
11.6146
13.8812
14.3028
14.7374
15.1657
15.5892
16.0096
16.427
16.8422
17.257
17.6711
18.0857
18.5018
18.919
19.3405
19.7656
20.1958
20.6333
21.0795
21.5335
22.0003
22.4812
22.9774
23.4944
24.0324
24.6013
25.205
25.8534
26.5654
27.3706
28.3162
29.488
31.0194
33.6082
39.1409
54.6797
156.178
6533.26
20242.4
81743.3
-0.115733
-0.344251
-0.573552
-0.810076
-1.06469
-1.34371
-1.66364
-2.05549
-2.53842
2.89215
4.57804
5.36873
6.01696
6.66932
7.317
7.9486
8.58571
9.1979
9.79493
10.3757
10.8929
11.4152
11.5504
11.8527
13.1139
13.3812
12.0186
14.3185
14.7332
15.1617
15.5844
16.0042
16.4214
16.8359
17.2493
17.6625
18.0769
18.4919
18.9085
19.329
19.7518
20.18
20.6149
21.0578
21.5089
21.9717
22.4467
22.9377
23.4471
23.9779
24.5357
25.1252
25.7576
26.4425
27.2031
28.0762
29.1214
30.4442
32.3236
35.6898
43.5373
66.9411
315.867
21847.7
28543.6
220374
-0.117233
-0.347887
-0.577091
-0.811236
-1.05684
-1.32596
-1.62442
-1.97055
-2.40029
-2.91711
3.3161
5.19599
6.012
6.66603
7.31201
7.94064
8.57837
9.19118
9.78348
10.3594
10.9172
11.4059
11.8939
11.9891
12.2841
13.5561
13.7859
12.4292
14.749
15.1574
15.5803
15.9991
16.4156
16.8294
17.2427
17.6552
18.068
18.4829
18.8982
19.3173
19.7391
20.1665
20.5982
21.0382
21.4856
21.9451
22.4158
22.9013
23.4056
23.9281
24.4755
25.0546
25.6707
26.3359
27.0639
27.8835
28.8396
30.0134
31.5143
33.9088
38.4677
49.7857
92.2204
901.789
40573.1
54878.3
99419.8
-0.118767
-0.352417
-0.583198
-0.816255
-1.05835
-1.31621
-1.60322
-1.92465
-2.30089
-2.77342
-3.34343
3.76809
5.84262
6.66058
7.3087
7.93518
8.5706
9.18413
9.77709
10.3487
10.9032
11.4373
11.8976
12.3518
12.4329
12.7203
13.9865
14.1808
12.8453
15.1732
15.5765
15.9943
16.4104
16.8236
17.2354
17.6477
18.0606
18.4737
18.8881
19.3065
19.7276
20.152
20.5829
21.0204
21.4657
21.9212
22.3881
22.8685
23.3654
23.8817
24.4228
24.9912
25.5933
26.2403
26.9447
27.7243
28.6151
29.6761
31.0004
32.84
35.9176
42.3328
58.557
147.607
3439.11
31145.2
61548.1
61694.9
-0.120086
-0.357041
-0.590807
-0.824901
-1.06491
-1.31808
-1.59146
-1.89985
-2.248
-2.65836
-3.17858
-3.83221
4.24224
6.5072
7.30316
7.93209
8.56528
9.17661
9.77015
10.3428
10.8936
11.4258
11.9358
12.3675
12.8128
12.8578
13.1441
14.408
14.5664
13.2607
15.5919
15.9907
16.4055
16.8182
17.2292
17.6408
18.052
18.465
18.8792
19.2958
19.7163
20.14
20.5696
21.0042
21.4467
21.8997
22.3622
22.8381
23.3315
23.8406
24.3726
24.9318
25.5228
26.1548
26.8363
27.5873
28.4295
29.4096
30.6042
32.1181
34.449
38.5826
47.8953
73.9182
305.997
13708.1
32125.5
67618.3
53006.5
-0.121181
-0.361021
-0.598571
-0.835679
-1.07619
-1.32626
-1.59369
-1.88599
-2.2194
-2.59792
-3.04636
-3.61892
-4.43588
4.72768
7.176
7.92616
8.56234
9.17153
9.76267
10.3362
10.8878
11.417
11.9274
12.4128
12.8311
13.251
13.2751
13.5648
14.8235
14.9442
13.6795
16.0067
16.4012
16.814
17.2238
17.6352
18.0456
18.4569
18.8703
19.2868
19.7061
20.1282
20.5559
20.9901
21.4304
21.8792
22.3388
22.811
23.2981
23.8026
24.3286
24.8793
25.4585
26.077
26.7417
27.4673
28.2747
29.1938
30.2856
31.6317
33.4982
36.4873
42.2878
55.9002
107.34
930.594
58850.6
46632.7
125510
54532.8
-0.122082
-0.364319
-0.605254
-0.846674
-1.09027
-1.3403
-1.6036
-1.88861
-2.20327
-2.56534
-2.97773
-3.46747
-4.09578
-5.26868
5.21088
7.86443
8.55639
9.16817
9.75761
10.3285
10.8811
11.4115
11.9193
12.4078
12.8775
13.2837
13.6784
13.6856
13.9833
15.2322
15.3154
14.1018
16.4178
16.8095
17.2193
17.6289
18.0391
18.4495
18.862
19.2774
19.6956
20.1173
20.5444
20.9765
21.4152
21.8617
22.3188
22.7856
23.2694
23.7679
24.2862
24.8303
25.4004
26.0063
26.6567
27.361
28.1387
29.0141
30.03
31.2654
32.8276
35.1817
39.1954
47.6548
67.4812
190.981
4080.2
41881.5
84674.1
139748
57381.5
-0.122857
-0.367043
-0.610796
-0.856143
-1.10463
-1.35785
-1.62055
-1.90037
-2.20636
-2.54691
-2.94094
-3.38994
-3.92253
-4.60724
-6.69282
5.67844
8.74179
9.1623
9.75455
10.3236
10.8739
11.4049
11.9145
12.4009
12.8723
13.3378
13.7214
14.0963
14.0909
14.3996
15.6342
15.682
14.5279
16.8253
17.2148
17.6235
18.0325
18.442
18.8541
19.2678
19.6859
20.1064
20.5321
20.9634
21.4008
21.8454
22.2997
22.764
23.2426
23.7361
24.2498
24.7848
25.3475
25.9431
26.5785
27.2654
28.0169
28.8565
29.8178
30.9564
32.3387
34.294
37.3275
42.9762
55.4373
93.9555
476.835
26998.4
54290.2
234866
126660
55494.4
-0.123582
-0.369384
-0.61537
-0.864
-1.11701
-1.37577
-1.64179
-1.92039
-2.22005
-2.55048
-2.92015
-3.34874
-3.83505
-4.4088
-5.14669
-10.9227
6.12329
9.64497
9.74892
10.3209
10.8695
11.3982
11.9086
12.3968
12.8648
13.337
13.7798
14.1496
14.5056
14.4915
14.8144
16.0306
16.0435
14.9583
17.2313
17.6188
18.0269
18.4358
18.8469
19.2597
19.6766
20.0961
20.5205
20.9512
21.3867
21.8299
22.2821
22.7443
23.2186
23.7088
24.2165
24.7447
25.3004
25.8854
26.5096
27.1795
27.9104
28.7181
29.634
30.7034
31.9891
33.647
36.1008
40.2016
48.484
66.449
157.021
1951.58
55112.7
224362
5.69985e+12
166174
50111.4
-0.124365
-0.371575
-0.619296
-0.870479
-1.12728
-1.39121
-1.66347
-1.94557
-2.24338
-2.56616
-2.9242
-3.3255
-3.78917
-4.3099
-4.91794
-5.7017
-13.4806
6.54462
10.5404
10.3154
10.867
11.3942
11.9019
12.3914
12.8611
13.3317
13.7817
14.2132
14.5692
14.9083
14.8878
15.2291
16.4226
16.402
15.3932
17.6359
18.0228
18.43
18.8407
19.253
19.6672
20.0873
20.5097
20.939
21.3739
21.8159
22.2665
22.7262
23.197
23.6836
24.1862
24.7086
25.2569
25.833
26.4453
27.1013
27.8145
28.5969
29.4761
30.4869
31.6903
33.1511
35.2346
38.432
44.2533
56.5205
90.8878
363.703
14326.3
93834.8
180867
276744
239950
43353.2
-0.125307
-0.373938
-0.622973
-0.876035
-1.13574
-1.40402
-1.68219
-1.97131
-2.27281
-2.59309
-2.94208
-3.33012
-3.76358
-4.2591
-4.80601
-5.43569
-6.25638
-6.91091
6.94083
11.4338
10.8614
11.392
11.898
12.3852
12.8557
13.3281
13.7782
14.2176
14.6381
14.9817
15.304
15.2814
15.644
16.8107
16.7596
15.8341
18.0402
18.4258
18.8345
19.2455
19.6594
20.0774
20.4995
20.9275
21.3608
21.8012
22.2504
22.7092
23.1773
23.6608
24.1578
24.6754
25.2156
25.7852
26.3873
27.0321
27.7265
28.488
29.3359
30.3017
31.4322
32.7838
34.5884
37.2201
41.6004
50.1996
67.9859
150.524
1393.33
95294.9
180867
263093
165600
267112
37491.8
-0.126464
-0.376781
-0.626935
-0.881235
-1.14299
-1.41456
-1.69768
-1.99352
-2.30294
-2.62709
-2.97278
-3.35018
-3.76876
-4.23133
-4.75003
-5.30892
-5.94456
-7.15289
-5.05098
7.30456
12.3147
11.3867
11.8961
12.3813
12.8499
13.323
13.7748
14.215
14.6454
15.0553
15.3872
15.6941
15.6726
16.0584
17.1955
17.1173
16.2805
18.4451
18.8285
19.2391
19.6515
20.0682
20.4899
20.9157
21.3496
21.7883
22.2355
22.6917
23.1586
23.639
24.1338
24.6458
25.1803
25.7427
26.3341
26.9672
27.6487
28.3904
29.2097
30.1378
31.2112
32.4888
34.0868
36.3411
39.8272
46.1379
58.9134
94.17
350.612
9105.93
523830
191557
207537
134983
242993
36796.6
-0.127863
-0.380267
-0.631699
-0.886833
-1.14978
-1.42362
-1.71047
-2.01192
-2.32889
-2.66192
-3.01164
-3.38483
-3.79084
-4.23702
-4.72016
-5.24756
-5.80182
-6.42872
-8.32738
-4.00411
7.63883
13.1839
11.8913
12.3794
12.8454
13.3181
13.7702
14.2121
14.644
15.0655
15.4664
15.787
16.0795
16.0623
16.4747
17.5776
17.4759
16.7323
18.8498
19.2337
19.6446
20.0607
20.4811
20.9066
21.3382
21.7753
22.2218
22.6768
23.1418
23.6184
24.1118
24.6185
25.1493
25.7035
26.2872
26.9093
27.5767
28.3005
29.0993
29.9936
31.0193
32.2302
33.6795
35.6767
38.576
43.4403
52.8263
71.9438
161.21
1421.49
93469.6
154270
865999
150706
141022
170448
41689.1
-0.129497
-0.384482
-0.637541
-0.893565
-1.15707
-1.43204
-1.72139
-2.0271
-2.3504
-2.69191
-3.0515
-3.42876
-3.82948
-4.2608
-4.72633
-5.21564
-5.73452
-6.27023
-6.87894
-9.56071
-3.29607
7.94207
14.0285
12.3754
12.8438
13.314
13.7645
14.2076
14.6415
15.0666
15.4801
15.8727
16.1826
16.4592
16.4508
16.8916
17.9559
17.8391
17.1894
19.2566
19.6399
20.0544
20.4723
20.8973
21.3265
21.7641
22.2078
22.6619
23.1258
23.6012
24.0901
24.5951
25.1194
25.6678
26.2451
26.8562
27.5125
28.2217
28.9987
29.8644
30.8508
32.0013
33.3574
35.1498
37.6553
41.5773
48.7086
62.609
103.67
403.562
9530.12
122111
279130
176170
159177
310407
144560
43164.7
-0.131336
-0.389407
-0.644602
-0.901822
-1.16585
-1.44112
-1.73161
-2.04002
-2.36816
-2.71679
-3.08587
-3.47395
-3.87862
-4.30309
-4.75126
-5.22231
-5.70064
-6.19609
-6.70626
-7.29328
-10.8595
-2.75491
8.21802
14.8434
12.8393
13.3117
13.7608
14.2019
14.6374
15.0648
15.4824
15.8895
16.2746
16.5748
16.8369
16.8395
17.3095
18.3318
18.2063
17.6528
19.6651
20.0485
20.4655
20.8878
21.3164
21.7515
22.1947
22.647
23.1096
23.5834
24.0698
24.5722
25.0926
25.6361
26.2049
26.8092
27.4543
28.1485
28.9079
29.7506
30.7001
31.7989
33.096
34.7194
36.9435
40.2402
45.8335
56.5065
79.4801
191.632
1910.4
84114.3
277099
311667
219880
311678
1.07008e+06
143415
43819.6
-0.13332
-0.39493
-0.652847
-0.9118
-1.17661
-1.45204
-1.74256
-2.05213
-2.38326
-2.73728
-3.11435
-3.51292
-3.92914
-4.35713
-4.79657
-5.24785
-5.70795
-6.16018
-6.62349
-7.11049
-7.6791
-12.1682
-2.31682
8.4724
15.636
13.3082
13.7586
14.1989
14.6325
15.0608
15.4816
15.8936
16.294
16.6713
16.9621
17.2132
17.2287
17.7302
18.7063
18.5795
18.1226
20.0768
20.4593
20.8795
21.3074
21.7408
22.1834
22.6327
23.0932
23.5658
24.051
24.5505
25.068
25.6065
26.1707
26.7672
27.4006
28.0842
28.8268
29.6476
30.568
31.6234
32.8638
34.3592
36.3753
39.2322
43.8092
52.1432
67.8848
122.285
554.009
15313.6
190761
311898
226347
346902
1.07446e+06
264166
134732
44613.8
-0.135393
-0.400909
-0.662114
-0.923464
-1.18962
-1.46544
-1.75575
-2.06511
-2.39736
-2.75476
-3.13777
-3.54521
-3.97276
-4.41276
-4.85465
-5.29528
-5.73378
-6.16824
-6.58476
-7.01433
-7.4893
-8.05102
-12.7199
-1.94931
8.70492
16.405
13.7558
14.1973
14.6296
15.0559
15.4784
15.894
16.3006
16.6952
17.0647
17.3461
17.5867
17.6192
18.1513
19.0794
18.9619
18.5945
20.4932
20.873
21.2985
21.7301
22.1707
22.6204
23.0789
23.5503
24.0328
24.5297
25.0448
25.5796
26.1391
26.7294
27.3546
28.025
28.7543
29.5549
30.4486
31.4671
32.6571
34.0511
35.9089
38.4466
42.3114
49.015
61.5051
92.1026
258.545
3489.18
107430
213138
226749
369759
251910
190176
384230
131308
46264.7
-0.137493
-0.40715
-0.672125
-0.936559
-1.20483
-1.48161
-1.7719
-2.08069
-2.41251
-2.771
-3.15777
-3.57171
-4.00886
-4.46083
-4.91476
-5.35654
-5.78237
-6.19435
-6.59403
-6.9719
-7.37271
-7.84927
-8.42595
-13.7049
-1.62808
8.91948
17.1488
14.1941
14.628
15.0532
15.4735
15.8912
16.3018
16.7031
17.0939
17.4553
17.7285
17.9594
18.012
18.5747
19.452
19.3562
19.0745
20.915
21.2915
21.7214
22.1603
22.6069
23.0645
23.5335
24.0147
24.5107
25.0215
25.5545
26.109
26.6936
27.312
27.973
28.6882
29.4691
30.3404
31.3264
32.4706
33.8015
35.5164
37.815
41.1699
46.6942
56.7759
76.3326
158.127
985.739
24312.5
299510
226902
1.02473e+06
204325
1.13842e+06
161751
5.69976e+12
125420
48862.5
-0.139603
-0.413443
-0.682576
-0.950717
-1.2219
-1.50056
-1.79149
-2.09983
-2.43066
-2.78844
-3.17631
-3.5943
-4.03852
-4.50057
-4.96678
-5.42021
-5.84606
-6.24362
-6.6204
-6.98234
-7.32484
-7.70569
-8.19916
-8.82114
-15.4183
-1.34203
9.11819
17.8668
14.6252
15.0519
15.4708
15.8867
16.2995
16.7065
17.1037
17.489
17.8429
18.1091
18.3325
18.4075
19.0004
19.8242
19.7629
19.5728
21.3423
21.7151
22.1499
22.5966
23.0511
23.5176
23.9975
24.4906
25.0012
25.5305
26.0813
26.6612
27.2734
27.9243
28.6284
29.3962
30.244
31.2008
32.3032
33.5891
35.1818
37.2941
40.2719
44.96
53.2247
68.1829
114.522
410.13
9568.54
250914
226181
330340
252997
266709
281027
170844
547893
102360
51885.6
-0.141684
-0.41979
-0.693126
-0.965487
-1.24037
-1.52184
-1.81438
-2.12302
-2.45296
-2.80935
-3.1962
-3.61521
-4.06373
-4.53331
-5.00992
-5.47561
-5.91261
-6.30908
-6.67014
-7.00896
-7.33587
-7.64933
-8.02147
-8.55061
-9.25723
-18.8725
-1.08204
9.30907
18.5588
15.0497
15.4702
15.8838
16.2959
16.7047
17.1088
17.5016
17.8814
18.2281
18.4879
18.7071
18.8066
19.4277
20.1948
20.1781
20.0811
21.7712
22.143
22.5853
23.0386
23.5041
23.9816
24.473
24.9815
25.5075
26.0565
26.6301
27.2376
27.882
28.5756
29.3284
30.1579
31.0901
32.1546
33.3959
34.8922
36.8572
39.547
43.6193
50.5359
62.9589
92.1038
233.932
2474.4
134279
323406
330616
368559
367989
1.20517e+06
296825
167718
452731
75798.6
55750
-0.143672
-0.426045
-0.703747
-0.980406
-1.25966
-1.54484
-1.84011
-2.15011
-2.47999
-2.83505
-3.21997
-3.63771
-4.08703
-4.56111
-5.04548
-5.52166
-5.97087
-6.37826
-6.73726
-7.05915
-7.36238
-7.66011
-7.95304
-8.32957
-8.91812
-9.76461
-30.1821
-0.841946
9.49063
19.2378
15.4682
15.8832
16.2933
16.7011
17.1076
17.5076
17.8969
18.2734
18.6117
18.866
19.0854
19.2094
19.8572