/*--------------------------------*- C++ -*----------------------------------*\
| =========                 |                                                 |
| \\      /  F ield         | OpenFOAM: The Open Source CFD Toolbox           |
|  \\    /   O peration     | Version:  v2012                                 |
|   \\  /    A nd           | Website:  www.openfoam.com                      |
|    \\/     M anipulation  |                                                 |
\*---------------------------------------------------------------------------*/
FoamFile
{
    version     2.0;
    format      ascii;
    class       volScalarField;
    location    "0";
    object      wallDistance;
}
// * * * * * * * * * * * * * * * * * * * * * * * * * * * * * * * * * * * * * //

dimensions      [0 1 0 0 0 0 0];


internalField   nonuniform List<scalar> 
31383
(
5e-07
5e-07
1.50599e-06
5e-07
1.50598e-06
2.53001e-06
5e-07
1.50599e-06
2.53001e-06
3.58432e-06
5e-07
1.50599e-06
2.53001e-06
3.58432e-06
4.68235e-06
5e-07
1.50599e-06
2.53e-06
3.58524e-06
4.68156e-06
5.83542e-06
5e-07
1.50598e-06
2.53e-06
3.58432e-06
4.6822e-06
5.83536e-06
7.05844e-06
5e-07
1.50598e-06
2.53e-06
3.58432e-06
4.68155e-06
5.83485e-06
7.05839e-06
8.36601e-06
5e-07
1.50598e-06
2.53001e-06
3.58432e-06
4.68155e-06
5.83485e-06
7.05835e-06
8.36597e-06
9.77358e-06
5e-07
1.50598e-06
2.53e-06
3.58432e-06
4.68202e-06
5.83522e-06
7.05801e-06
8.36569e-06
9.78979e-06
1.12985e-05
5e-07
1.50599e-06
2.53e-06
3.58432e-06
4.68155e-06
5.83518e-06
7.05801e-06
8.36591e-06
9.7737e-06
1.13131e-05
1.29586e-05
5e-07
1.50599e-06
2.53e-06
3.58432e-06
4.68155e-06
5.83484e-06
7.058e-06
8.36588e-06
9.77368e-06
1.12984e-05
1.29586e-05
1.47827e-05
5e-07
1.50598e-06
2.53e-06
3.58432e-06
4.68155e-06
5.83484e-06
7.05822e-06
8.36585e-06
9.77352e-06
1.12984e-05
1.29586e-05
1.47739e-05
1.67662e-05
5e-07
1.50599e-06
2.53001e-06
3.58432e-06
4.68155e-06
5.83509e-06
7.05799e-06
8.36567e-06
9.77365e-06
1.12984e-05
1.29673e-05
1.4774e-05
1.67662e-05
1.89639e-05
5e-07
1.50599e-06
2.53e-06
3.58432e-06
4.68155e-06
5.83483e-06
7.05817e-06
8.36566e-06
9.77363e-06
1.12984e-05
1.29585e-05
1.47739e-05
1.67662e-05
1.89634e-05
2.13827e-05
5e-07
1.50599e-06
2.53e-06
3.58432e-06
4.68155e-06
5.83484e-06
7.05815e-06
8.36579e-06
9.7735e-06
1.13072e-05
1.29585e-05
1.47738e-05
1.67661e-05
1.89592e-05
2.13823e-05
2.40554e-05
5e-07
1.50598e-06
2.53e-06
3.58432e-06
4.68155e-06
5.83483e-06
7.05798e-06
8.36577e-06
9.7736e-06
1.12983e-05
1.2965e-05
1.47739e-05
1.67661e-05
1.89591e-05
2.1382e-05
2.40575e-05
2.70196e-05
5e-07
1.50599e-06
2.53e-06
3.58432e-06
4.68155e-06
5.83483e-06
7.05812e-06
8.36576e-06
9.7735e-06
1.12983e-05
1.29585e-05
1.47739e-05
1.67699e-05
1.89591e-05
2.13791e-05
2.40553e-05
2.7021e-05
3.03072e-05
5e-07
1.50599e-06
2.53e-06
3.58432e-06
4.68173e-06
5.83498e-06
7.05798e-06
8.36574e-06
9.77358e-06
1.12983e-05
1.29585e-05
1.47781e-05
1.6766e-05
1.89618e-05
2.13791e-05
2.4057e-05
2.70208e-05
3.03082e-05
3.39577e-05
5e-07
1.50599e-06
2.53001e-06
3.58432e-06
4.68154e-06
5.83496e-06
7.05809e-06
8.36573e-06
9.78064e-06
1.12983e-05
1.29632e-05
1.47738e-05
1.67691e-05
1.89615e-05
2.13811e-05
2.40567e-05
2.70206e-05
3.0308e-05
3.39585e-05
3.80156e-05
5e-07
1.50598e-06
2.53001e-06
3.58432e-06
4.68154e-06
5.83482e-06
7.05797e-06
8.36564e-06
9.77351e-06
1.13036e-05
1.29584e-05
1.47772e-05
1.6766e-05
1.8959e-05
2.13808e-05
2.40551e-05
2.70192e-05
3.03078e-05
3.39575e-05
3.80148e-05
4.25274e-05
5e-07
1.50599e-06
2.53001e-06
3.58432e-06
4.68154e-06
5.83483e-06
7.05806e-06
8.3657e-06
9.77344e-06
1.12983e-05
1.29584e-05
1.47738e-05
1.67685e-05
1.8961e-05
2.13806e-05
2.4055e-05
2.70191e-05
3.03067e-05
3.39573e-05
3.80152e-05
4.25276e-05
4.75494e-05
5e-07
1.50599e-06
2.53e-06
3.58448e-06
4.68154e-06
5.83483e-06
7.05797e-06
8.36569e-06
9.77349e-06
1.12983e-05
1.29584e-05
1.47737e-05
1.67659e-05
1.89608e-05
2.13804e-05
2.40549e-05
2.702e-05
3.03067e-05
3.39572e-05
3.80144e-05
4.2527e-05
4.75491e-05
5.314e-05
5e-07
1.50598e-06
2.53001e-06
3.58431e-06
4.68165e-06
5.83482e-06
7.05797e-06
8.36568e-06
9.77343e-06
1.12983e-05
1.29584e-05
1.47763e-05
1.6766e-05
1.89589e-05
2.13802e-05
2.40559e-05
2.70189e-05
3.03066e-05
3.39571e-05
3.80143e-05
4.25268e-05
4.75488e-05
5.31407e-05
5.93676e-05
5e-07
1.50598e-06
2.53e-06
3.58432e-06
4.68154e-06
5.83483e-06
7.05797e-06
8.36562e-06
9.77348e-06
1.13017e-05
1.29584e-05
1.47737e-05
1.67678e-05
1.89604e-05
2.13788e-05
2.40558e-05
2.70197e-05
3.03064e-05
3.39575e-05
3.80146e-05
4.25269e-05
4.75485e-05
5.31394e-05
5.9367e-05
6.63058e-05
5e-07
1.50599e-06
2.53001e-06
3.58431e-06
4.68154e-06
5.83489e-06
7.05803e-06
8.36562e-06
9.77343e-06
1.12983e-05
1.2961e-05
1.47737e-05
1.67675e-05
1.89589e-05
2.13799e-05
2.40556e-05
2.70195e-05
3.03069e-05
3.39569e-05
3.80144e-05
4.25264e-05
4.75481e-05
5.31391e-05
5.93668e-05
6.63053e-05
7.4038e-05
5e-07
1.50599e-06
2.53e-06
3.58431e-06
4.68154e-06
5.83482e-06
7.05801e-06
8.36562e-06
9.77343e-06
1.12982e-05
1.29584e-05
1.47737e-05
1.67658e-05
1.896e-05
2.13798e-05
2.40547e-05
2.70187e-05
3.03068e-05
3.39568e-05
3.80142e-05
4.25265e-05
4.75478e-05
5.3139e-05
5.93665e-05
6.63048e-05
7.40373e-05
8.26567e-05
5e-07
1.50599e-06
2.53e-06
3.58432e-06
4.68154e-06
5.83482e-06
7.05796e-06
8.36561e-06
9.77346e-06
1.12982e-05
1.29604e-05
1.47737e-05
1.67658e-05
1.89588e-05
2.13787e-05
2.40547e-05
2.70187e-05
3.03062e-05
3.3957e-05
3.80137e-05
4.25263e-05
4.75476e-05
5.31386e-05
5.9366e-05
6.63045e-05
7.40372e-05
8.26561e-05
9.22652e-05
5e-07
1.50599e-06
2.53e-06
3.58432e-06
4.68154e-06
5.83482e-06
7.05796e-06
8.36561e-06
9.77342e-06
1.12982e-05
1.29584e-05
1.47752e-05
1.67659e-05
1.89598e-05
2.13788e-05
2.40547e-05
2.70186e-05
3.03066e-05
3.39566e-05
3.80136e-05
4.25261e-05
4.75476e-05
5.31386e-05
5.93658e-05
6.63041e-05
7.40363e-05
8.26554e-05
9.22645e-05
0.000102979
5e-07
1.50598e-06
2.53001e-06
3.58431e-06
4.68154e-06
5.83482e-06
7.05796e-06
8.36564e-06
9.77343e-06
1.12982e-05
1.29583e-05
1.47737e-05
1.67659e-05
1.89587e-05
2.13787e-05
2.40546e-05
2.7019e-05
3.03061e-05
3.39565e-05
3.80138e-05
4.25258e-05
4.75473e-05
5.31382e-05
5.93654e-05
6.63037e-05
7.40359e-05
8.26549e-05
9.2264e-05
0.000102978
0.000114925
5e-07
1.50599e-06
2.53e-06
3.58431e-06
4.68154e-06
5.83482e-06
7.05796e-06
8.3656e-06
9.77344e-06
1.12982e-05
1.29583e-05
1.47749e-05
1.67668e-05
1.89587e-05
2.13786e-05
2.40546e-05
2.70185e-05
3.03064e-05
3.39564e-05
3.80134e-05
4.25256e-05
4.75473e-05
5.31381e-05
5.93653e-05
6.63034e-05
7.40357e-05
8.26545e-05
9.22632e-05
0.000102977
0.000114924
0.00012825
5e-07
1.50598e-06
2.53001e-06
3.58431e-06
4.68154e-06
5.83482e-06
7.05799e-06
8.36561e-06
9.77342e-06
1.12982e-05
1.29583e-05
1.47736e-05
1.67667e-05
1.89594e-05
2.13786e-05
2.40545e-05
2.70185e-05
3.03063e-05
3.39564e-05
3.80133e-05
4.25255e-05
4.75469e-05
5.31377e-05
5.93649e-05
6.6303e-05
7.40351e-05
8.26538e-05
9.22625e-05
0.000102977
0.000114923
0.000128246
0.000143106
5e-07
1.50599e-06
2.53e-06
3.58431e-06
4.68158e-06
5.83482e-06
7.05795e-06
8.36562e-06
9.77342e-06
1.12982e-05
1.29584e-05
1.47736e-05
1.67658e-05
1.89593e-05
2.13791e-05
2.40549e-05
2.70185e-05
3.03059e-05
3.39563e-05
3.80134e-05
4.25255e-05
4.75469e-05
5.31376e-05
5.93646e-05
6.63027e-05
7.40347e-05
8.26534e-05
9.2262e-05
0.000102976
0.000114924
0.000128246
0.000143104
0.000159678
5e-07
1.50598e-06
2.53e-06
3.58431e-06
4.68153e-06
5.83485e-06
7.05795e-06
8.3656e-06
9.77342e-06
1.12983e-05
1.29583e-05
1.47736e-05
1.67658e-05
1.89587e-05
2.1379e-05
2.40549e-05
2.70184e-05
3.03059e-05
3.39562e-05
3.80131e-05
4.25253e-05
4.75467e-05
5.31374e-05
5.93645e-05
6.63024e-05
7.40344e-05
8.2653e-05
9.22614e-05
0.000102975
0.000114922
0.000128244
0.000143103
0.000159677
0.000178162
5e-07
1.50598e-06
2.53001e-06
3.58431e-06
4.68153e-06
5.83481e-06
7.05796e-06
8.36561e-06
9.77342e-06
1.12983e-05
1.29584e-05
1.47736e-05
1.67657e-05
1.89586e-05
2.13785e-05
2.40545e-05
2.70183e-05
3.03058e-05
3.39563e-05
3.8013e-05
4.25251e-05
4.75466e-05
5.31372e-05
5.93642e-05
6.63021e-05
7.4034e-05
8.26525e-05
9.22608e-05
0.000102974
0.00011492
0.000128243
0.000143103
0.000159675
0.00017816
0.000198779
5e-07
1.50598e-06
2.53e-06
3.58431e-06
4.68153e-06
5.83484e-06
7.05795e-06
8.36559e-06
9.77343e-06
1.12983e-05
1.29584e-05
1.47736e-05
1.67658e-05
1.89587e-05
2.13785e-05
2.40547e-05
2.70183e-05
3.03058e-05
3.39562e-05
3.80129e-05
4.25251e-05
4.75463e-05
5.3137e-05
5.9364e-05
6.63019e-05
7.40336e-05
8.2652e-05
9.22603e-05
0.000102974
0.00011492
0.000128242
0.000143101
0.000159673
0.000178159
0.000198778
0.000221778
5e-07
1.50599e-06
2.53e-06
3.58431e-06
4.68153e-06
5.83481e-06
7.05797e-06
8.36559e-06
9.77341e-06
1.12982e-05
1.29583e-05
1.47736e-05
1.67658e-05
1.89586e-05
2.13789e-05
2.40544e-05
2.70183e-05
3.03059e-05
3.39562e-05
3.80129e-05
4.2525e-05
4.75462e-05
5.31368e-05
5.93638e-05
6.63016e-05
7.40334e-05
8.26517e-05
9.22598e-05
0.000102973
0.000114919
0.000128241
0.0001431
0.000159672
0.000178157
0.000198775
0.000221775
0.000247431
5e-07
1.50599e-06
2.53006e-06
3.58431e-06
4.68153e-06
5.83481e-06
7.05795e-06
8.36559e-06
9.77342e-06
1.12982e-05
1.29583e-05
1.47736e-05
1.67657e-05
1.89586e-05
2.13785e-05
2.40546e-05
2.70183e-05
3.03058e-05
3.39559e-05
3.80128e-05
4.2525e-05
4.75462e-05
5.31368e-05
5.93636e-05
6.63014e-05
7.40331e-05
8.26513e-05
9.22593e-05
0.000102972
0.000114919
0.000128242
0.000143099
0.000159671
0.000178156
0.000198774
0.000221773
0.000247428
0.000276047
5e-07
1.50599e-06
2.53e-06
3.58435e-06
4.68153e-06
5.83481e-06
7.05795e-06
8.36559e-06
9.77341e-06
1.12982e-05
1.29583e-05
1.47736e-05
1.67661e-05
1.89589e-05
2.13785e-05
2.40543e-05
2.70183e-05
3.03058e-05
3.39559e-05
3.80127e-05
4.25248e-05
4.7546e-05
5.31366e-05
5.93634e-05
6.63011e-05
7.40327e-05
8.26509e-05
9.22589e-05
0.000102972
0.000114917
0.00012824
0.000143098
0.000159669
0.000178153
0.000198771
0.00022177
0.000247425
0.000276044
0.000307968
5.03789e-07
1.50599e-06
2.53e-06
3.58431e-06
4.68153e-06
5.83481e-06
7.05796e-06
8.3656e-06
9.77341e-06
1.12983e-05
1.29584e-05
1.47736e-05
1.67657e-05
1.89589e-05
2.13787e-05
2.40545e-05
2.70184e-05
3.03056e-05
3.39559e-05
3.80128e-05
4.25247e-05
4.75459e-05
5.31365e-05
5.93632e-05
6.63009e-05
7.40325e-05
8.26506e-05
9.22585e-05
0.000102972
0.000114918
0.000128239
0.000143097
0.000159669
0.000178152
0.000198769
0.000221768
0.000247422
0.00027604
0.000307965
0.000343578
5.07973e-07
5.99836e-05
2.53e-06
3.58431e-06
4.68153e-06
5.83481e-06
7.05794e-06
8.3656e-06
9.77342e-06
1.12982e-05
1.29588e-05
1.47736e-05
1.67657e-05
1.89585e-05
2.13785e-05
2.40543e-05
2.70183e-05
3.03056e-05
3.39558e-05
3.80127e-05
4.25246e-05
4.75458e-05
5.31363e-05
5.93631e-05
6.63007e-05
7.40322e-05
8.26503e-05
9.22581e-05
0.000102971
0.000114917
0.000128238
0.000143096
0.000159667
0.000178151
0.000198768
0.000221766
0.00024742
0.000276037
0.000307961
0.000343574
0.000383302
5.0906e-07
6.29057e-06
8.16395e-05
3.58431e-06
4.68153e-06
5.83481e-06
7.05794e-06
8.36558e-06
9.77341e-06
1.12982e-05
1.29583e-05
1.47739e-05
1.67657e-05
1.89586e-05
2.13785e-05
2.40543e-05
2.70181e-05
3.03055e-05
3.39558e-05
3.80126e-05
4.25246e-05
4.75457e-05
5.31362e-05
5.9363e-05
6.63005e-05
7.4032e-05
8.265e-05
9.22577e-05
0.00010297
0.000114916
0.000128237
0.000143095
0.000159667
0.00017815
0.000198767
0.000221765
0.000247418
0.000276034
0.000307957
0.00034357
0.000383297
0.000427616
5.08461e-07
1.04913e-05
8.81279e-06
9.63241e-05
4.68153e-06
5.83481e-06
7.05795e-06
8.36558e-06
9.77341e-06
1.12982e-05
1.29583e-05
1.47739e-05
1.67657e-05
1.89585e-05
2.13786e-05
2.40543e-05
2.70182e-05
3.03055e-05
3.39557e-05
3.80125e-05
4.25245e-05
4.75456e-05
5.3136e-05
5.93628e-05
6.63003e-05
7.40317e-05
8.26497e-05
9.22573e-05
0.00010297
0.000114916
0.000128237
0.000143095
0.000159665
0.000178148
0.000198765
0.000221762
0.000247415
0.000276032
0.000307954
0.000343566
0.000383292
0.000427609
0.000477049
5.06026e-07
1.98473e-05
1.47876e-05
1.04962e-05
0.000106266
5.83481e-06
7.05794e-06
8.36558e-06
9.77341e-06
1.12983e-05
1.29583e-05
1.47735e-05
1.67659e-05
1.89585e-05
2.13784e-05
2.40542e-05
2.70181e-05
3.03054e-05
3.39557e-05
3.80125e-05
4.25244e-05
4.75456e-05
5.31359e-05
5.93626e-05
6.63001e-05
7.40315e-05
8.26494e-05
9.2257e-05
0.00010297
0.000114915
0.000128237
0.000143094
0.000159664
0.000178147
0.000198764
0.00022176
0.000247413
0.000276029
0.000307951
0.000343562
0.000383287
0.000427604
0.000477043
0.000532196
5.04145e-07
1.66904e-05
2.82373e-05
1.77004e-05
1.19371e-05
0.000112939
7.05794e-06
8.36558e-06
9.77406e-06
1.12982e-05
1.29583e-05
1.47735e-05
1.67656e-05
1.89586e-05
2.13784e-05
2.40542e-05
2.70182e-05
3.03054e-05
3.39557e-05
3.80124e-05
4.25244e-05
4.75454e-05
5.31358e-05
5.93625e-05
6.63e-05
7.40313e-05
8.26492e-05
9.22567e-05
0.000102969
0.000114915
0.000128236
0.000143093
0.000159664
0.000178146
0.000198762
0.000221759
0.000247412
0.000276027
0.000307948
0.000343558
0.000383283
0.000427598
0.000477036
0.000532188
0.000593715
5.02765e-07
9.57749e-06
2.37282e-05
3.39173e-05
1.98147e-05
1.29278e-05
0.000117383
8.36558e-06
9.77336e-06
1.12982e-05
1.29583e-05
1.47735e-05
1.67656e-05
1.89585e-05
2.13784e-05
2.40542e-05
2.7018e-05
3.03054e-05
3.39556e-05
3.80123e-05
4.25243e-05
4.75453e-05
5.31358e-05
5.93624e-05
6.62998e-05
7.40311e-05
8.26489e-05
9.22564e-05
0.000102969
0.000114914
0.000128236
0.000143092
0.000159663
0.000178145
0.000198761
0.000221757
0.000247409
0.000276024
0.000307945
0.000343555
0.000383279
0.000427593
0.00047703
0.000532181
0.000593706
0.000662344
5.0191e-07
8.12743e-06
1.3606e-05
2.84978e-05
3.7767e-05
2.12275e-05
1.39092e-05
0.000120284
9.77336e-06
1.12982e-05
1.29586e-05
1.47735e-05
1.67657e-05
1.89587e-05
2.13784e-05
2.40542e-05
2.70181e-05
3.03054e-05
3.39556e-05
3.80123e-05
4.25242e-05
4.75453e-05
5.31357e-05
5.93622e-05
6.62997e-05
7.40309e-05
8.26487e-05
9.22561e-05
0.000102968
0.000114913
0.000128235
0.000143091
0.000159662
0.000178144
0.00019876
0.000221755
0.000247407
0.000276022
0.000307943
0.000343551
0.000383274
0.000427588
0.000477024
0.000532173
0.000593697
0.000662333
0.000738904
5.01553e-07
2.89593e-06
1.15386e-05
1.64017e-05
3.17584e-05
4.03703e-05
2.23912e-05
1.47202e-05
0.000122258
1.12982e-05
1.29582e-05
1.47735e-05
1.67656e-05
1.89585e-05
2.13785e-05
2.40542e-05
2.7018e-05
3.03054e-05
3.39556e-05
3.80123e-05
4.25241e-05
4.75452e-05
5.31356e-05
5.93622e-05
6.62995e-05
7.40307e-05
8.26485e-05
9.22558e-05
0.000102968
0.000114913
0.000128234
0.000143091
0.000159661
0.000178143
0.000198758
0.000221754
0.000247406
0.00027602
0.00030794
0.000343548
0.000383271
0.000427584
0.000477019
0.000532167
0.00059369
0.000662324
0.000738892
0.000824311
5.0134e-07
2.42673e-06
4.402e-06
1.39663e-05
1.83809e-05
3.394e-05
4.21169e-05
2.31536e-05
1.56299e-05
0.000123231
1.29582e-05
1.47735e-05
1.67657e-05
1.89585e-05
2.13784e-05
2.40542e-05
2.7018e-05
3.03053e-05
3.39555e-05
3.80123e-05
4.25241e-05
4.75452e-05
5.31355e-05
5.9362e-05
6.62994e-05
7.40306e-05
8.26483e-05
9.22556e-05
0.000102968
0.000114912
0.000128233
0.00014309
0.00015966
0.000178142
0.000198757
0.000221753
0.000247404
0.000276018
0.000307937
0.000343545
0.000383267
0.000427579
0.000477013
0.000532161
0.000593682
0.000662314
0.000738881
0.000824298
0.00091959
5.0126e-07
1.64085e-06
3.73871e-06
5.5957e-06
1.59251e-05
1.98286e-05
3.54744e-05
4.32822e-05
2.39232e-05
1.66917e-05
0.000124024
1.47735e-05
1.67658e-05
1.89585e-05
2.13784e-05
2.40543e-05
2.7018e-05
3.03053e-05
3.39555e-05
3.80122e-05
4.25241e-05
4.75451e-05
5.31354e-05
5.93619e-05
6.62993e-05
7.40305e-05
8.26481e-05
9.22553e-05
0.000102968
0.000114913
0.000128233
0.000143089
0.000159659
0.000178141
0.000198756
0.000221752
0.000247402
0.000276016
0.000307935
0.000343542
0.000383263
0.000427575
0.000477008
0.000532155
0.000593674
0.000662305
0.00073887
0.000824285
0.000919574
0.00102588
5.01163e-07
1.56643e-06
2.70956e-06
4.88568e-06
6.892e-06
1.74483e-05
2.09442e-05
3.64882e-05
4.41056e-05
2.45564e-05
1.77415e-05
0.000124475
1.67656e-05
1.89586e-05
2.13783e-05
2.40542e-05
2.7018e-05
3.03053e-05
3.39554e-05
3.80121e-05
4.2524e-05
4.7545e-05
5.31353e-05
5.93618e-05
6.62991e-05
7.40303e-05
8.26479e-05
9.22551e-05
0.000102967
0.000114912
0.000128233
0.000143089
0.000159659
0.00017814
0.000198755
0.00022175
0.000247401
0.000276014
0.000307933
0.000343539
0.00038326
0.000427571
0.000477004
0.000532149
0.000593667
0.000662297
0.00073886
0.000824273
0.000919559
0.00102586
0.00114445
5.01038e-07
1.62082e-06
2.60889e-06
3.76436e-06
5.962e-06
8.09094e-06
1.84774e-05
2.18574e-05
3.72275e-05
4.46806e-05
2.53552e-05
1.89683e-05
0.000124651
1.89585e-05
2.13783e-05
2.40541e-05
2.7018e-05
3.03052e-05
3.39554e-05
3.80121e-05
4.2524e-05
4.7545e-05
5.31353e-05
5.93617e-05
6.62991e-05
7.40302e-05
8.26477e-05
9.22549e-05
0.000102967
0.000114912
0.000128232
0.000143088
0.000159658
0.00017814
0.000198754
0.000221749
0.000247399
0.000276012
0.000307931
0.000343537
0.000383257
0.000427567
0.000476999
0.000532143
0.000593661
0.000662289
0.00073885
0.000824261
0.000919545
0.00102584
0.00114443
0.00127673
5.00955e-07
1.57829e-06
2.67154e-06
3.65753e-06
4.84869e-06
7.01975e-06
9.1298e-06
1.93831e-05
2.2948e-05
3.78549e-05
4.52081e-05
2.60705e-05
2.06318e-05
0.000124828
2.13783e-05
2.40541e-05
2.70179e-05
3.03053e-05
3.39553e-05
3.80121e-05
4.25239e-05
4.75449e-05
5.31352e-05
5.93617e-05
6.6299e-05
7.403e-05
8.26475e-05
9.22547e-05
0.000102967
0.000114911
0.000128232
0.000143088
0.000159658
0.000178139
0.000198754
0.000221748
0.000247398
0.000276011
0.000307929
0.000343535
0.000383254
0.000427564
0.000476995
0.000532138
0.000593654
0.000662281
0.000738841
0.00082425
0.000919532
0.00102583
0.00114442
0.00127671
0.0014243
5.00909e-07
1.52207e-06
2.61507e-06
3.71862e-06
4.74687e-06
5.9727e-06
8.13182e-06
1.02237e-05
2.04399e-05
2.39285e-05
3.85782e-05
4.55656e-05
2.71562e-05
2.23229e-05
0.000125006
2.40541e-05
2.70179e-05
3.03052e-05
3.39554e-05
3.80121e-05
4.25239e-05
4.75449e-05
5.31351e-05
5.93616e-05
6.62988e-05
7.40299e-05
8.26474e-05
9.22545e-05
0.000102966
0.000114911
0.000128231
0.000143087
0.000159657
0.000178138
0.000198752
0.000221747
0.000247397
0.000276009
0.000307927
0.000343532
0.000383251
0.000427561
0.000476991
0.000532133
0.000593649
0.000662274
0.000738832
0.00082424
0.00091952
0.00102582
0.0011444
0.00127669
0.00142427
0.00158892
5.00871e-07
1.51852e-06
2.54277e-06
3.66021e-06
4.79873e-06
5.87692e-06
7.16899e-06
9.30419e-06
1.15342e-05
2.15796e-05
2.50805e-05
3.92587e-05
4.63699e-05
2.83273e-05
2.44877e-05
0.000125226
2.70179e-05
3.03052e-05
3.39554e-05
3.8012e-05
4.25238e-05
4.75448e-05
5.31351e-05
5.93615e-05
6.62987e-05
7.40298e-05
8.26473e-05
9.22543e-05
0.000102966
0.000114911
0.000128231
0.000143087
0.000159656
0.000178138
0.000198752
0.000221746
0.000247396
0.000276008
0.000307925
0.00034353
0.000383249
0.000427557
0.000476986
0.000532128
0.000593643
0.000662267
0.000738824
0.00082423
0.000919508
0.0010258
0.00114438
0.00127667
0.00142425
0.00158889
0.00177257
5.00835e-07
1.51942e-06
2.54164e-06
3.58735e-06
4.74055e-06
5.9255e-06
7.11791e-06
8.44186e-06
1.0794e-05
1.29914e-05
2.24365e-05
2.62586e-05
4.01319e-05
4.71198e-05
2.97375e-05
2.68148e-05
0.000125589
3.03051e-05
3.39553e-05
3.8012e-05
4.25238e-05
4.75448e-05
5.3135e-05
5.93614e-05
6.62986e-05
7.40297e-05
8.26471e-05
9.22541e-05
0.000102966
0.00011491
0.000128231
0.000143087
0.000159656
0.000178137
0.000198751
0.000221745
0.000247394
0.000276006
0.000307924
0.000343528
0.000383247
0.000427555
0.000476983
0.000532123
0.000593637
0.000662261
0.000738816
0.00082422
0.000919496
0.00102578
0.00114436
0.00127664
0.00142422
0.00158886
0.00177253
0.00197744
5.00811e-07
1.5126e-06
2.54404e-06
3.58828e-06
4.67114e-06
5.87305e-06
7.16908e-06
8.43423e-06
9.91584e-06
1.23697e-05
1.4422e-05
2.37398e-05
2.73979e-05
4.10233e-05
4.80989e-05
3.11862e-05
2.95939e-05
0.000126054
3.39552e-05
3.8012e-05
4.25238e-05
4.75447e-05
5.3135e-05
5.93614e-05
6.62986e-05
7.40296e-05
8.2647e-05
9.2254e-05
0.000102966
0.00011491
0.00012823
0.000143087
0.000159656
0.000178136
0.00019875
0.000221744
0.000247394
0.000276005
0.000307922
0.000343526
0.000383244
0.000427552
0.00047698
0.00053212
0.000593632
0.000662255
0.000738808
0.000824211
0.000919485
0.00102577
0.00114434
0.00127663
0.0014242
0.00158884
0.0017725
0.00197741
0.002206
5.00804e-07
1.50879e-06
2.53688e-06
3.59671e-06
4.67701e-06
5.80654e-06
7.10978e-06
8.54321e-06
9.84418e-06
1.1472e-05
1.38892e-05
1.61663e-05
2.51634e-05
2.87479e-05
4.1975e-05
4.92386e-05
3.34454e-05
3.28342e-05
0.000126735
3.80119e-05
4.25237e-05
4.75447e-05
5.31349e-05
5.93613e-05
6.62985e-05
7.40295e-05
8.26469e-05
9.22538e-05
0.000102965
0.00011491
0.00012823
0.000143086
0.000159655
0.000178136
0.000198749
0.000221743
0.000247392
0.000276004
0.00030792
0.000343524
0.000383242
0.000427549
0.000476976
0.000532116
0.000593627
0.000662249
0.000738801
0.000824202
0.000919475
0.00102576
0.00114433
0.00127661
0.00142418
0.00158881
0.00177247
0.00197737
0.00220596
0.00246096
5.00795e-07
1.50797e-06
2.53046e-06
3.58825e-06
4.68942e-06
5.81746e-06
7.06037e-06
8.47268e-06
9.95935e-06
1.13777e-05
1.30838e-05
1.55299e-05
1.80504e-05
2.66268e-05
3.05537e-05
4.32636e-05
5.0564e-05
3.6122e-05
3.65499e-05
0.000127482
4.25237e-05
4.75446e-05
5.31349e-05
5.93612e-05
6.62984e-05
7.40294e-05
8.26467e-05
9.22536e-05
0.000102965
0.00011491
0.00012823
0.000143085
0.000159654
0.000178135
0.000198749
0.000221742
0.000247391
0.000276002
0.000307919
0.000343523
0.00038324
0.000427546
0.000476973
0.000532111
0.000593623
0.000662243
0.000738795
0.000824194
0.000919465
0.00102575
0.00114432
0.00127659
0.00142416
0.00158879
0.00177244
0.00197733
0.00220591
0.00246092
0.0027454
5.00786e-07
1.50652e-06
2.52722e-06
3.57747e-06
4.67711e-06
5.83737e-06
7.05399e-06
8.41112e-06
9.88005e-06
1.14202e-05
1.29944e-05
1.48523e-05
1.74836e-05
2.01475e-05
2.84694e-05
3.27533e-05
4.49142e-05
5.23114e-05
3.93529e-05
4.06904e-05
0.000128414
4.75446e-05
5.31348e-05
5.93612e-05
6.62983e-05
7.40293e-05
8.26466e-05
9.22535e-05
0.000102965
0.000114909
0.00012823
0.000143086
0.000159654
0.000178135
0.000198749
0.000221742
0.000247391
0.000276001
0.000307918
0.000343521
0.000383238
0.000427544
0.00047697
0.000532108
0.000593618
0.000662238
0.000738788
0.000824187
0.000919456
0.00102574
0.0011443
0.00127658
0.00142414
0.00158876
0.00177241
0.0019773
0.00220587
0.00246087
0.00274535
0.00306272
5.00789e-07
1.50705e-06
2.52764e-06
3.57548e-06
4.66813e-06
5.82403e-06
7.05272e-06
8.37838e-06
9.78503e-06
1.13635e-05
1.30306e-05
1.4796e-05
1.6876e-05
1.96687e-05
2.24778e-05
3.07552e-05
3.51121e-05
4.68885e-05
5.45372e-05
4.30112e-05
4.54135e-05
0.000130042
5.31347e-05
5.93611e-05
6.62982e-05
7.40292e-05
8.26465e-05
9.22534e-05
0.000102965
0.000114909
0.000128229
0.000143085
0.000159654
0.000178134
0.000198748
0.000221741
0.000247389
0.000276
0.000307916
0.000343519
0.000383236
0.000427542
0.000476967
0.000532104
0.000593614
0.000662233
0.000738782
0.000824179
0.000919447
0.00102573
0.00114429
0.00127656
0.00142412
0.00158874
0.00177239
0.00197727
0.00220583
0.00246082
0.00274529
0.00306265
0.0034167
5.00795e-07
1.50648e-06
2.52615e-06
3.57484e-06
4.66429e-06
5.81384e-06
7.04105e-06
8.35098e-06
9.75951e-06
1.12626e-05
1.29791e-05
1.48443e-05
1.68207e-05
1.90952e-05
2.20496e-05
2.50705e-05
3.32073e-05
3.78008e-05
4.92646e-05
5.71811e-05
4.72906e-05
5.07141e-05
0.000132138
5.9361e-05
6.62981e-05
7.40291e-05
8.26464e-05
9.22532e-05
0.000102965
0.000114909
0.000128229
0.000143085
0.000159653
0.000178134
0.000198747
0.00022174
0.000247389
0.000275999
0.000307915
0.000343518
0.000383234
0.000427539
0.000476964
0.000532101
0.00059361
0.000662228
0.000738777
0.000824172
0.000919439
0.00102572
0.00114428
0.00127655
0.0014241
0.00158871
0.00177236
0.00197723
0.00220579
0.00246078
0.00274524
0.00306259
0.00341663
0.0038116
5.00788e-07
1.50536e-06
2.52549e-06
3.57534e-06
4.66427e-06
5.80934e-06
7.02885e-06
8.33989e-06
9.75152e-06
1.12676e-05
1.28884e-05
1.47801e-05
1.68641e-05
1.89978e-05
2.14542e-05
2.4596e-05
2.80247e-05
3.59922e-05
4.09452e-05
5.21118e-05
6.05752e-05
5.22012e-05
5.66731e-05
0.000134741
6.62981e-05
7.4029e-05
8.26462e-05
9.22531e-05
0.000102965
0.000114909
0.000128229
0.000143085
0.000159653
0.000178134
0.000198747
0.00022174
0.000247388
0.000275999
0.000307914
0.000343516
0.000383232
0.000427537
0.000476962
0.000532098
0.000593606
0.000662223
0.000738771
0.000824166
0.000919431
0.00102571
0.00114427
0.00127653
0.00142409
0.0015887
0.00177234
0.00197721
0.00220576
0.00246073
0.00274519
0.00306253
0.00341656
0.00381152
0.00425214
5.00778e-07
1.50742e-06
2.52434e-06
3.57341e-06
4.66608e-06
5.80891e-06
7.02466e-06
8.33034e-06
9.74069e-06
1.12666e-05
1.2902e-05
1.4725e-05
1.67917e-05
1.9035e-05
2.13932e-05
2.41018e-05
2.75471e-05
3.12146e-05
3.92907e-05
4.44716e-05
5.56731e-05
6.43524e-05
5.7803e-05
6.33391e-05
0.000137929
7.40289e-05
8.26461e-05
9.2253e-05
0.000102964
0.000114909
0.000128229
0.000143084
0.000159653
0.000178133
0.000198746
0.000221739
0.000247388
0.000275998
0.000307913
0.000343515
0.000383231
0.000427535
0.00047696
0.000532095
0.000593603
0.000662219
0.000738766
0.00082416
0.000919423
0.0010257
0.00114426
0.00127652
0.00142407
0.00158868
0.00177232
0.00197718
0.00220573
0.0024607
0.00274514
0.00306247
0.00341649
0.00381143
0.00425205
0.00474361
5.0078e-07
1.50576e-06
2.52973e-06
3.57108e-06
4.66458e-06
5.81207e-06
7.0249e-06
8.32477e-06
9.73008e-06
1.12563e-05
1.29221e-05
1.47235e-05
1.67388e-05
1.89712e-05
2.14337e-05
2.40809e-05
2.70822e-05
3.08318e-05
3.48538e-05
4.28948e-05
4.86664e-05
5.979e-05
6.88398e-05
6.41817e-05
7.07713e-05
0.000141932
8.2646e-05
9.22529e-05
0.000102964
0.000114908
0.000128228
0.000143084
0.000159652
0.000178133
0.000198746
0.000221739
0.000247387
0.000275997
0.000307912
0.000343514
0.000383229
0.000427534
0.000476958
0.000532093
0.000593599
0.000662215
0.000738761
0.000824154
0.000919416
0.00102569
0.00114424
0.00127651
0.00142405
0.00158866
0.00177229
0.00197715
0.00220569
0.00246066
0.0027451
0.00306242
0.00341642
0.00381136
0.00425196
0.0047435
0.00529187
5.008e-07
1.50619e-06
2.52547e-06
3.57754e-06
4.65889e-06
5.80921e-06
7.02398e-06
8.32461e-06
9.72181e-06
1.12423e-05
1.29027e-05
1.47277e-05
1.67195e-05
1.88768e-05
2.13668e-05
2.41223e-05
2.70167e-05
3.03323e-05
3.44559e-05
3.888e-05
4.7101e-05
5.33495e-05
6.44582e-05
7.42235e-05
7.14355e-05
7.90879e-05
0.000146712
9.22527e-05
0.000102964
0.000114908
0.000128228
0.000143084
0.000159652
0.000178132
0.000198746
0.000221738
0.000247386
0.000275996
0.000307911
0.000343513
0.000383228
0.000427532
0.000476955
0.00053209
0.000593596
0.000662211
0.000738756
0.000824148
0.000919409
0.00102568
0.00114424
0.00127649
0.00142404
0.00158864
0.00177227
0.00197713
0.00220566
0.00246062
0.00274505
0.00306237
0.00341636
0.00381129
0.00425187
0.00474339
0.00529174
0.00590349
5.00808e-07
1.50574e-06
2.52495e-06
3.57236e-06
4.66814e-06
5.80333e-06
7.02192e-06
8.32185e-06
9.72276e-06
1.12412e-05
1.28978e-05
1.47168e-05
1.6714e-05
1.88786e-05
2.13043e-05
2.40496e-05
2.70519e-05
3.02723e-05
3.39816e-05
3.84883e-05
4.33573e-05
5.19249e-05
5.86877e-05
6.9928e-05
8.04562e-05
7.95277e-05
8.83449e-05
0.000152573
0.000102964
0.000114908
0.000128228
0.000143083
0.000159652
0.000178132
0.000198745
0.000221738
0.000247386
0.000275995
0.00030791
0.000343511
0.000383226
0.00042753
0.000476953
0.000532088
0.000593593
0.000662207
0.000738752
0.000824143
0.000919403
0.00102567
0.00114423
0.00127648
0.00142403
0.00158863
0.00177225
0.0019771
0.00220564
0.00246059
0.00274501
0.00306232
0.0034163
0.00381121
0.00425178
0.00474329
0.00529162
0.00590335
0.00658581
5.00808e-07
1.50598e-06
2.52384e-06
3.5733e-06
4.66298e-06
5.81328e-06
7.01765e-06
8.31929e-06
9.72197e-06
1.12371e-05
1.28893e-05
1.47008e-05
1.66953e-05
1.88998e-05
2.13043e-05
2.3991e-05
2.69777e-05
3.03369e-05
3.39177e-05
3.80306e-05
4.29746e-05
4.8388e-05
5.72138e-05
6.47328e-05
7.63598e-05
8.75466e-05
8.86245e-05
9.86558e-05
0.00015935
0.000114908
0.000128228
0.000143083
0.000159652
0.000178132
0.000198745
0.000221737
0.000247385
0.000275995
0.000307909
0.000343511
0.000383225
0.000427528
0.000476951
0.000532085
0.000593591
0.000662204
0.000738747
0.000824138
0.000919397
0.00102567
0.00114422
0.00127647
0.00142401
0.00158861
0.00177223
0.00197708
0.00220561
0.00246056
0.00274497
0.00306227
0.00341625
0.00381115
0.0042517
0.00474319
0.00529151
0.00590322
0.00658565
0.007347
5.00809e-07
1.5057e-06
2.52657e-06
3.57123e-06
4.66379e-06
5.80775e-06
7.0295e-06
8.3176e-06
9.72365e-06
1.12429e-05
1.28952e-05
1.46964e-05
1.66909e-05
1.88847e-05
2.13077e-05
2.3974e-05
2.69219e-05
3.02653e-05
3.39837e-05
3.79612e-05
4.25249e-05
4.79999e-05
5.39411e-05
6.32646e-05
7.14586e-05
8.35391e-05
9.58057e-05
9.88202e-05
0.000110169
0.000167587
0.000128228
0.000143083
0.000159651
0.000178131
0.000198744
0.000221737
0.000247384
0.000275994
0.000307908
0.000343509
0.000383224
0.000427527
0.000476949
0.000532083
0.000593588
0.000662201
0.000738744
0.000824133
0.000919391
0.00102566
0.00114421
0.00127646
0.001424
0.0015886
0.00177222
0.00197706
0.00220559
0.00246053
0.00274494
0.00306223
0.0034162
0.00381109
0.00425163
0.0047431
0.0052914
0.00590309
0.0065855
0.00734681
0.00819615
5.00821e-07
1.50686e-06
2.52565e-06
3.57366e-06
4.66149e-06
5.80902e-06
7.02058e-06
8.3306e-06
9.71844e-06
1.12403e-05
1.28949e-05
1.47022e-05
1.66802e-05
1.88715e-05
2.1303e-05
2.39799e-05
2.69363e-05
3.01985e-05
3.39352e-05
3.80221e-05
4.24876e-05
4.75862e-05
5.35431e-05
6.01606e-05
7.00276e-05
7.89898e-05
9.18204e-05
0.000105118
0.000110211
0.000123008
0.000177325
0.000143083
0.000159651
0.000178131
0.000198744
0.000221736
0.000247384
0.000275993
0.000307907
0.000343509
0.000383222
0.000427526
0.000476948
0.000532081
0.000593585
0.000662198
0.00073874
0.000824128
0.000919385
0.00102565
0.0011442
0.00127645
0.00142399
0.00158858
0.0017722
0.00197704
0.00220556
0.0024605
0.0027449
0.00306219
0.00341615
0.00381103
0.00425156
0.00474302
0.0052913
0.00590297
0.00658535
0.00734664
0.00819595
0.00914345
5.0082e-07
1.50662e-06
2.52585e-06
3.57263e-06
4.66515e-06
5.80595e-06
7.02392e-06