/*--------------------------------*- C++ -*----------------------------------*\
| =========                 |                                                 |
| \\      /  F ield         | OpenFOAM: The Open Source CFD Toolbox           |
|  \\    /   O peration     | Version:  v2012                                 |
|   \\  /    A nd           | Website:  www.openfoam.com                      |
|    \\/     M anipulation  |                                                 |
\*---------------------------------------------------------------------------*/
FoamFile
{
    version     2.0;
    format      ascii;
    class       volScalarField;
    location    "0";
    object      yp;
}
// * * * * * * * * * * * * * * * * * * * * * * * * * * * * * * * * * * * * * //

dimensions      [0 0 0 0 0 0 0];


internalField   nonuniform List<scalar> 
31383
(
0.101803
0.212707
0.317625
0.208749
0.641828
0.532528
0.205695
0.629839
1.08062
0.754848
0.203393
0.620589
1.06033
1.53488
0.991078
0.201477
0.613619
1.04468
1.50625
2.01043
1.24168
0.199809
0.607815
1.03288
1.4835
1.97242
2.51281
1.5055
0.19838
0.602761
1.02306
1.46665
1.94266
2.46442
3.04502
1.79005
0.19716
0.598434
1.01451
1.45262
1.92046
2.42739
2.98652
3.60702
2.10104
0.196073
0.59474
1.00719
1.44042
1.90215
2.39963
2.94146
3.53796
4.19931
2.45001
0.195087
0.591448
1.00095
1.42996
1.88587
2.37638
2.90759
3.48537
4.11259
4.788
2.87721
0.194163
0.588462
0.995379
1.42104
1.8721
2.35602
2.87939
3.44556
4.05301
4.69462
5.35088
3.37706
0.193302
0.585664
0.990331
1.41308
1.86034
2.33872
2.85495
3.4124
4.00787
4.63059
5.26217
5.88246
3.83653
0.192499
0.58306
0.985598
1.40587
1.84986
2.32406
2.83385
3.38347
3.97034
4.58126
5.1999
5.79365
6.36562
4.37802
0.19177
0.580629
0.981199
1.39912
1.84037
2.31079
2.816
3.35875
3.93789
4.54043
5.1449
5.72786
6.27699
6.81067
4.95196
0.191105
0.578423
0.97709
1.39284
1.83148
2.29887
2.8
3.33771
3.90944
4.50963
5.10248
5.67695
6.21261
6.71771
7.23812
5.33917
0.190511
0.576409
0.973362
1.38698
1.8232
2.2877
2.78546
3.31887
3.88546
4.47403
5.06933
5.63462
6.1632
6.65341
7.13801
7.66087
5.7721
0.189973
0.574611
0.969963
1.38166
1.8155
2.27732
2.77197
3.30182
3.86394
4.44786
5.03353
5.5979
6.123
6.60396
7.06987
7.54946
8.07087
6.15212
0.189493
0.572988
0.966922
1.37682
1.80857
2.26771
2.75933
3.28599
3.84457
4.42453
5.00597
5.56759
6.08585
6.56264
7.0181
7.47936
7.95064
8.46801
6.61292
0.189059
0.571533
0.964178
1.37248
1.80211
2.25891
2.74763
3.27103
3.82993
4.40312
4.9841
5.53817
6.05599
6.52745
6.97507
7.42616
7.87878
8.33735
8.86127
7.31685
0.188671
0.57022
0.961722
1.36856
1.79641
2.25085
2.73692
3.25717
3.80946
4.38621
4.9593
5.51583
6.02811
6.49689
6.93858
7.38138
7.82451
8.26439
8.7166
9.25769
8.03742
0.188323
0.569046
0.959502
1.36506
1.79125
2.2437
2.72724
3.24464
3.79368
4.36468
4.93873
5.4913
6.00524
6.47156
6.90868
7.3434
7.77948
8.20818
8.63979
9.09456
9.66461
8.83249
0.18801
0.567991
0.957518
1.36195
1.78664
2.23723
2.71853
3.2332
3.7794
4.34746
4.91916
5.47054
5.9824
6.44844
6.88211
7.31153
7.74086
8.16192
8.58142
9.01302
9.47804
10.0894
9.70762
0.187729
0.567048
0.955738
1.35906
1.78252
2.23145
2.71068
3.22297
3.76642
4.3317
4.90093
5.45228
5.96224
6.42718
6.85931
7.28392
7.7075
8.12229
8.5337
8.95188
9.39107
9.87535
10.5412
10.6419
0.187472
0.566194
0.95414
1.35653
1.77876
2.22622
2.70366
3.21368
3.75467
4.31925
4.88446
5.43288
5.94418
6.40802
6.83841
7.25982
7.67868
8.08832
8.493
8.90198
9.32623
9.7808
10.2954
11.0274
11.636
0.187235
0.565417
0.952698
1.35424
1.77541
2.22158
2.69733
3.20541
3.74408
4.30456
4.87096
5.41639
5.92638
6.3895
6.81915
7.2385
7.65354
8.05907
8.458
8.8593
9.27341
9.71141
10.1916
10.7559
11.5606
12.698
0.187017
0.564698
0.951387
1.35219
1.77241
2.21735
2.69166
3.19793
3.73463
4.29303
4.85597
5.40142
5.90967
6.37305
6.80131
7.21812
7.63094
8.03343
8.42804
8.82303
9.22851
9.65518
10.1168
10.6409
11.2714
12.1535
13.8381
0.186817
0.56404
0.950171
1.35031
1.76971
2.21358
2.68655
3.19123
3.72609
4.2825
4.8448
5.38773
5.8951
6.35731
6.7843
7.19934
7.6103
8.01023
8.40147
8.79193
9.19025
9.60763
10.0562
10.5583
11.1429
11.8381
12.8096
15.0802
0.186634
0.563434
0.949057
1.34859
1.76724
2.2102
2.68197
3.18522
3.71842
4.27312
4.83278
5.37625
5.88184
6.34351
6.76916
7.18188
7.59088
7.98917
8.37791
8.76443
9.15775
9.56675
10.0049
10.4919
11.0511
11.6942
12.4495
13.5271
16.4719
0.186466
0.562881
0.948036
1.34699
1.76497
2.20709
2.67785
3.17984
3.71155
4.26472
4.82287
5.36445
5.86988
6.33052
6.75516
7.16602
7.57278
7.96953
8.35603
8.73985
9.12893
9.53196
9.96079
10.4356
10.9772
11.5927
12.2887
13.1091
14.3083
18.093
0.186313
0.562372
0.947099
1.34553
1.76287
2.20423
2.67409
3.17496
3.70539
4.25708
4.81392
5.35492
5.85943
6.31906
6.74257
7.15169
7.55639
7.95117
8.33619
8.71754
9.10292
9.50158
9.92316
10.3873
10.9149
11.5117
12.177
12.9282
13.8211
15.1604
19.9866
0.186176
0.561909
0.946241
1.3442
1.76095
2.20161
2.67063
3.17053
3.69979
4.25029
4.80588
5.34524
5.84972
6.30869
6.73123
7.13848
7.54152
7.93496
8.31771
8.69688
9.07973
9.47408
9.89063
10.3464
10.8618
11.4431
12.0878
12.8052
13.617
14.5901
16.0929
21.8576
0.186052
0.561494
0.94546
1.34298
1.75921
2.1992
2.66742
3.16643
3.69471
4.24412
4.79871
5.33726
5.8405
6.29925
6.72085
7.12681
7.52803
7.91976
8.30093
8.67785
9.05791
9.44903
9.86116
10.3103
10.8164
11.3846
12.0133
12.7073
13.4809
14.3583
15.4215
17.1157
22.985
0.185939
0.561117
0.944755
1.34186
1.75758
2.19699
2.6645
3.16265
3.69001
4.23849
4.79222
5.32999
5.8326
6.29075
6.71158
7.11603
7.5158
7.90635
8.28567
8.66031
9.03803
9.4263
9.83444
10.2785
10.7763
11.3343
11.9498
12.6259
13.3738
14.2071
15.1565
16.3218
18.24
24.2154
0.185835
0.560775
0.94412
1.34085
1.75611
2.19497
2.66182
3.1592
3.68569
4.23332
4.78623
5.32339
5.8254
6.28309
6.70309
7.10642
7.50481
7.89389
8.27181
8.64471
9.02017
9.40555
9.81018
10.2496
10.7411
11.2909
11.8949
12.5563
13.2841
14.0896
14.9886
16.0176
17.2979
19.4803
25.9341
0.185738
0.560461
0.943542
1.33995
1.75479
2.19313
2.65936
3.15602
3.68174
4.22855
4.78073
5.31737
5.81893
6.27611
6.69546
7.09762
7.49488
7.88289
8.25951
8.63037
9.00375
9.38674
9.78807
10.2228
10.7091
11.2519
11.8476
12.4972
13.208
13.991
14.8584
15.8289
16.9452
18.3567
20.8567
28.0677
0.18564
0.560169
0.943009
1.33913
1.75359
2.19146
2.65713
3.15313
3.6781
4.22418
4.77572
5.31171
5.81312
6.26985
6.68877
7.08965
7.48584
7.87275
8.24803
8.61763
8.98891
9.36949
9.76759
10.1984
10.6795
11.2165
11.8049
12.4449
13.1432
13.9083
14.7514
15.6855
16.7336
17.9456
19.5089
22.4059
30.5068
0.185556
0.559872
0.942532
1.33836
1.75251
2.18996
2.6551
3.15048
3.67477
4.22019
4.77106
5.30662
5.8076
6.26418
6.6824
7.08254
7.47781
7.86368
8.23776
8.606
8.97538
9.35375
9.74935
10.1761
10.6522
11.1845
11.7664
12.3989
13.0863
13.8372
14.6598
15.5672
16.5747
17.707
19.0257
20.7646
24.1796
33.2901
0.185768
0.559616
0.942007
1.33766
1.7515
2.18859
2.65328
3.14809
3.67173
4.21645
4.76686
5.30193
5.80274
6.25906
6.67672
7.07612
7.47021
7.85519
8.22826
8.59546
8.96341
9.33934
9.73266
10.1559
10.6279
11.1548
11.7319
12.3569
13.0364
13.7757
14.5829
15.4678
16.4437
17.5297
18.7541
20.1938
22.1369
26.2197
36.465
0.20793
0.560245
0.94158
1.33693
1.75057
2.18733
2.65162
3.14594
3.669
4.2131
4.76288
5.29751
5.79793
6.25425
6.67157
7.07024
7.46378
7.84785
8.21988
8.58573
8.95224
9.32676
9.71742
10.1377
10.6056
11.1279
11.6996
12.3192
12.9906
13.7203
14.5155
15.383
16.3354
17.3863
18.5567
19.8827
21.4572
23.6419
28.5595
40.0805
0.188442
24.7956
0.942591
1.33632
1.74962
2.18616
2.65007
3.14398
3.66652
4.21006
4.75956
5.2936
5.79366
6.24959
6.66662
7.06474
7.45754
7.84112
8.21251
8.57712
8.94234
9.31495
9.70363
10.1214
10.5855
11.1036
11.6703
12.284
12.949
13.6712
14.4552
15.3092
16.2419
17.2657
18.3987
19.6613
21.0999
22.827
25.297
31.2418
44.1614
0.189104
2.33662
33.8135
1.33765
1.74882
2.18497
2.64865
3.14215
3.66427
4.20739
4.75608
5.29022
5.78976
6.24557
6.6623
7.05973
7.45201
7.83494
8.20552
8.56924
8.933
9.30453
9.69122
10.1063
10.5673
11.0816
11.6441
12.2525
12.9115
13.6258
14.4017
15.2444
16.1611
17.1639
18.2659
19.4853
20.8502
22.4122
24.315
27.1252
34.324
48.6717
0.196747
3.90243
3.27853
39.9861
1.75039
2.18396
2.6472
3.14046
3.66217
4.20485
4.75315
5.28684
5.78631
6.2418
6.65821
7.05506
7.44691
7.82933
8.19921
8.56206
8.92497
9.29494
9.68005
10.0928
10.5508
11.0615
11.6198
12.224
12.8772
13.5852
14.3528
15.1854
16.0903
17.0762
18.1544
19.3397
20.6535
22.1297
23.8298
25.9345
29.1526
37.8711
53.4314
0.192375
7.69054
5.50932
3.91176
44.2122
2.18562
2.64597
3.13874
3.66022
4.20253
4.7505
5.2836
5.78306
6.23831
6.65447
7.05081
7.44193
7.8239
8.19335
8.55563
8.91744
9.28632
9.66978
10.0805
10.5356
11.0434
11.5982
12.1975
12.8458
13.5473
14.3076
15.1322
16.0264
16.9982
18.0578
19.2167
20.4924
21.9104
23.5079
25.3655
27.7039
31.4125
41.953
58.0089
0.18688
6.35363
10.9605
6.60676
4.45724
47.0463
2.64754
3.13729
3.65852
4.20033
4.74802
5.28097
5.78003
6.23521
6.65093
7.04688
7.43746
7.81919
8.18799
8.54947
8.9108
9.2785
9.66052
10.0695
10.5222
11.0272
11.5785
12.1743
12.8178
13.5134
14.2668
15.0833
15.9684
16.9285
17.9725
19.11
20.3569
21.7311
23.2615
24.9947
27.0282
29.6429
33.945
46.6171
61.6933
0.185825
3.55483
9.04743
13.1918
7.41084
4.83576
48.798
3.13853
3.65657
4.19821
4.74569
5.2784
5.77734
6.23226
6.64784
7.04333
7.43349
7.81469
8.18308
8.54413
8.90456
9.27107
9.65217
10.0594
10.5102
11.0125
11.5611
12.1529
12.7921
13.4831
14.23
15.039
15.9151
16.8652
17.8956
19.0168
20.2401
21.5817
23.0619
24.717
26.601
28.8345
31.7747
36.8077
51.846
63.6052
0.184935
3.00781
5.05783
10.8865
14.7204
7.9537
5.20824
49.5208
3.6572
4.19624
4.74356
5.27605
5.77482
6.22963
6.64493
7.03999
7.42967
7.81046
8.17861
8.53905
8.89886
9.26469
9.6445
10.0502
10.4987
10.9989
11.5447
12.1339
12.7691
13.4555
14.1969
14.999
15.867
16.8071
17.8265
18.9335
20.138
21.453
22.8963
24.4939
26.2848
28.3378
30.8007
34.1275
40.1256
57.4699
60.2249
0.184739
1.06841
4.27677
6.10794
12.1563
15.7596
8.39684
5.50702
49.1456
4.19606
4.74135
5.27359
5.77254
6.2271
6.6423
7.03698
7.42632
7.80659
8.17437
8.53427
8.89346
9.25862
9.63771
10.042
10.4889
10.9866
11.5302
12.1159
12.748
13.4305
14.167
14.963
15.8235
16.7554
17.7641
18.8576
20.0464
21.3406
22.7543
24.3102
26.0343
27.9756
30.2182
32.9481
36.7409
44.0563
63.0079
49.4497
0.184666
0.894989
1.62652
5.1857
6.8583
13.0127
16.4308
8.67064
5.81973
47.4917
4.74012
5.2717
5.77004
6.22493
6.63981
7.03424
7.4232
7.80314
8.17042
8.53015
8.88854
9.25286
9.63101
10.0346
10.4799
10.9762
11.5171
12.1005
12.7292
13.4074
14.1397
14.9297
15.7841
16.7073
17.7077
18.7897
19.9636
21.2394
22.6302
24.1524
25.8295
27.6946
29.803
32.2587
35.3029
39.658
48.6738
67.9446
39.4072
0.184611
0.60517
1.38094
2.07119
5.92449
7.41192
13.6027
16.7907
8.9087
6.14561
45.0087
5.26931
5.76825
6.22259
6.6375
7.03163
7.42027
7.79996
8.1669
8.52588
8.88397
9.24793
9.62519
10.0272
10.4711
10.966
11.5053
12.0862
12.712
13.3871
14.115
14.9005
15.7486
16.6652
17.656
18.7275
19.8888
21.15
22.5199
24.0157
25.6544
27.4626
29.4829
31.7795
34.4806
37.8908
42.9288
53.9939
72.6339
34.0265
0.184535
0.577643
1.00083
1.80772
2.55591
6.50325
7.83767
13.9448
16.8665
9.0305
6.39846
41.9406
5.76467
6.22064
6.63522
7.02919
7.41743
7.79697
8.16346
8.52216
8.87988
9.2428
9.61945
10.0207
10.4633
10.9567
11.4942
12.0728
12.6967
13.3681
14.0922
14.8736
15.7168
16.6265
17.6095
18.672
19.821
21.0683
22.4222
23.8941
25.5025
27.2683
29.2228
31.412
33.9213
36.9055
40.7507
46.6216
60.0588
77.891
31.7201
0.184461
0.597568
0.963512
1.39284
2.21017
3.00634
6.89564
8.17465
14.0913
16.6318
9.11963
6.62349
38.7205
6.21612
6.63321
7.02674
7.41495
7.79425
8.16042
8.5189
8.87586
9.2385
9.61428
10.0147
10.4562
10.9484
11.4843
12.061
12.682
13.3514
14.072
14.8492
15.687
16.5913
17.5674
18.6213
19.7605
20.9946
22.3323
23.7865
25.3694
27.1007
29.0058
31.121
33.5007
36.2472
39.5599
43.9283
50.8787
66.9342
83.6245
29.9951
0.184405
0.581801
0.986425
1.35312
1.79746
2.60733
3.3976
7.23237
8.54798
14.0568
16.1447
9.06695
6.89279
35.7224
6.62762
7.02477
7.41244
7.79157
8.15768
8.51561
8.8722
9.23452
9.60948
10.0093
10.4498
10.9403
11.4752
12.0502
12.6696
13.3359
14.0533
14.8267
15.661
16.5592
17.5283
18.5746
19.7053
20.9278
22.2519
23.6874
25.2498
26.9529
28.8185
30.8758
33.1674
35.7616
38.78
42.478
47.4797
55.954
74.6943
89.2936
28.7411
0.184373
0.561002
0.965424
1.37541
1.75945
2.21842
3.02512
3.80611
7.60226
8.82558
13.8862
15.4153
9.02877
7.06199
33.0613
7.01778
7.41039
7.78907
8.15486
8.51267
8.86894
9.23056
9.60505
10.004
10.4435
10.9329
11.4667
12.0402
12.6577
13.3222
14.0373
14.8069
15.6362
16.5303
17.4941
18.5334
19.6552
20.8676
22.1782
23.5997
25.1427
26.8209
28.6539
30.6649
32.8906
35.3789
38.214
41.5483
45.6999
51.4697
62.0251
83.3128
94.3125
29.185
0.184274
0.559643
0.938604
1.35358
1.77827
2.18253
2.66694
3.46286
4.28441
7.95738
9.08234
13.5367
14.742
8.91698
7.28331
30.7565
7.40223
7.78692
8.15237
8.50967
8.86583
9.2269
9.60121
9.999
10.438
10.9263
11.4586
12.0313
12.6468
13.3091
14.0218
14.7889
15.6152
16.5046
17.4624
18.4954
19.6105
20.8131
22.1127
23.5203
25.0459
26.7029
28.5072
30.4834
32.6547
35.0652
37.7755
40.8833
44.5829
49.2764
55.9835
69.1298
92.4456
97.5491
30.1618
0.177216
0.559717
0.9381
1.32646
1.75643
2.20006
2.64759
3.142
4.00899
4.79174
8.13744
9.2376
13.1321
14.0331
8.80959
7.47353
28.7916
7.77757
8.15007
8.50708
8.86286
9.22367
9.59731
9.99469
10.4325
10.9202
11.4514
12.0224
12.6366
13.2968
14.0076
14.772
15.5949
16.4808
17.4346
18.4609
19.569
20.7633
22.0531
23.4479
24.9584
26.5973
28.3771
30.3213
32.4501
34.8016
37.4168
40.3745
43.7951
47.9212
53.2657
61.1937
77.3017
101.228
97.2987
28.9284
0.129189
0.536049
0.938556
1.32668
1.73046
2.18023
2.66606
3.1386
3.68302
4.56265
5.24267
8.38268
9.25795
12.6603
13.4156
8.67912
7.71472
27.105
8.13919
8.50468
8.85985
9.22077
9.59365
9.99067
10.4277
10.9145
11.4446
12.0145
12.6273
13.2861
13.9946
14.757
15.577
16.4595
17.4079
18.4298
19.5314
20.719
21.9998
23.384
24.8805
26.5005
28.2606
30.1766
32.2715
34.5706
37.1171
39.963
43.1983
46.9804
51.6093
57.743
67.4054
86.572
108.965
89.8129
24.8499
0.112579
0.394693
0.900402
1.32918
1.73248
2.15525
2.64357
3.17854
3.65573
4.23221
5.05067
5.73475
8.55378
9.23533
12.1703
12.8741
8.7289
7.98448
25.6723
8.49218
8.85761
9.21739
9.59042
9.98656
10.4229
10.9088
11.4386
12.007
12.6186
13.2763
13.9828
14.7433
15.5607
16.4399
17.3852
18.4022
19.4973
20.6788
21.9515
23.3249
24.8087
26.4144
28.1563
30.0479
32.1116
34.3688
36.8588
39.6187
42.7236
46.279
50.4802
55.7114
62.8098
74.8876
96.976
116.009
70.2688
17.8416
0.12356
0.327602
0.670059
1.27552
1.73625
2.15907
2.62486
3.15178
3.69771
4.19703
4.75935
5.51319
6.17775
8.62261
9.25999
11.7581
12.4393
8.81228
8.26843
24.4197
8.84358
9.21512
9.58683
9.98287
10.4189
10.9038
11.4323
12.0004
12.6108
13.2667
13.9717
14.7299
15.5451
16.4213
17.3631
18.3766
19.4673
20.6416
21.9067
23.2711
24.743
26.3359
28.0608
29.9314
31.9693
34.1924
36.6322
39.3261
42.3308
45.7281
49.6528
54.344
60.2942
68.6313
83.7549
108.482
121.836
50.0005
6.63522
0.118678
0.368603
0.52227
0.957876
1.66511
2.16543
2.62216
3.12844
3.66779
4.21197
4.72694
5.27559
5.99132
6.58027
8.71268
9.32628
11.4449
12.1628
8.95214
8.55011
23.335
9.1996
9.58428
9.97946
10.4148
10.8994
11.4272
11.9943
12.6031
13.2583
13.9617
14.7177
15.531
16.405
17.3435
18.3532
19.4392
20.607
21.8661
23.2222
24.6853
26.2655
27.9752
29.8273
31.8404
34.0338
36.4323
39.0722
41.9953
45.2726
49.0037
53.3534
58.6286
65.4493
75.5184
94.0636
120.462
123.873
40.6254
13.1009
0.115841
0.355472
0.613184
0.64508
1.26264
2.0763
2.62041
3.11591
3.63205
4.19078
4.7399
5.25636
5.7879
6.43523
6.94459
8.85706
9.37535
11.2275
11.9671
9.10955
8.8603
22.496
9.56799
9.97661
10.411
10.8951
11.4218
11.9885
12.5964
13.2498
13.9519
14.7068
15.5183
16.3896
17.3257
18.3319
19.4145
20.5774
21.8293
23.1778
24.6321
26.2015
27.8984
29.7337
31.7251
33.8913
36.2554
38.846
41.7069
44.8888
48.472
52.5845
57.4344
63.4043
71.2947
83.8239
105.806
131.025
119.902
33.828
19.9674
0.11429
0.347538
0.593091
0.85961
0.758066
1.58724
2.51262
3.10426
3.6223
4.15328
4.72126
5.2739
5.77047
6.25403
6.82676
7.28999
8.97956
9.44587
11.0814
11.7851
9.31907
9.1975
21.8418
9.95971
10.4078
10.8905
11.4175
11.9827
12.59
13.2423
13.9435
14.6964
15.5063
16.3758
17.3096
18.3123
19.3912
20.5495
21.796
23.1387
24.5846
26.1432
27.8271
29.6483
31.6216
33.7654
36.0977
38.6485
41.4528
44.5592
48.0294
51.9662
56.519
61.9572
68.7632
78.0431
93.7456
118.792
138.909
106.901
22.6353
16.5533
0.11347
0.342917
0.580995
0.835487
1.11131
0.911026
1.93503
2.97598
3.61777
4.15487
4.68843
5.25174
5.78643
6.2245
6.65034
7.16906
7.65355
9.11537
9.55589
10.9763
11.6954
9.5701
9.58327
21.2903
10.3904
10.8873
11.4123
11.9775
12.5839
13.2353
13.9359
14.6874
15.495
16.3626
17.2937
18.2948
19.3692
20.5249
21.7655
23.1022
24.5408
26.0915
27.7635
29.5706
31.5283
33.6489
35.9566
38.4743
41.2325
44.2742
47.6515
51.4496
55.789
60.8595
66.9914
74.8163
86.1096
105.378
132.541
144.757
80.8022
4.99415
10.9382
0.113651
0.341075
0.57388
0.819685
1.08512
1.3707
1.07099
2.30934
3.46844
4.1529
4.69309
5.23299
5.76311
6.23866
6.63435
7.0341
7.54276
7.98703
9.29573
9.6753
10.9523
11.6303
9.86898
10.0147
20.7594
10.8688
11.4088
11.9721
12.5781
13.2291
13.9283
14.6785
15.4845
16.3503
17.2794
18.2774
19.3491
20.5007
21.7377
23.0691
24.5009
26.0434
27.7057
29.501
31.4418
33.5455
35.8292
38.3161
41.0339
44.0226
47.327
51.0143
55.1875
59.9909
65.6673
72.6351
81.7449
95.8614
118.778
145.865
145.806
48.6018
11.7672
6.42288
0.114364
0.34134
0.571504
0.810087
1.06671
1.34482
1.64053
1.22597
2.71041
3.98465
4.69876
5.23228
5.74608
6.22026
6.64946
7.03147
7.42593
7.91174
8.33033
9.46192
9.85486
10.9757
11.6497
10.232
10.4829
20.2673
11.3889
11.9682
12.5723
13.2226
13.9209
14.67
15.4746
16.3388
17.2658
18.2617
19.3309
20.4789
21.7133
23.0386
24.4646
25.9999
27.6534
29.4365
31.3658
33.4524
35.7142
38.1749
40.857
43.8003
47.039
50.6381
54.6793
59.2819
64.6273
71.0228
79.0074
89.9115
107.498
133.774
156.622
135.905
27.4729
13.7484
3.76359
0.115582
0.343663
0.571771
0.806876
1.05437
1.32409
1.61647
1.92227
1.37347
3.13638
4.5142
5.23208
5.73976
6.19078
6.63202
7.04674
7.41238
7.79554
8.26122
8.66153
9.67336
10.0491
11.0485
11.7747
10.6651
10.9911
19.8357
11.9473
12.5684
13.2162
13.9142
14.6623
15.4652
16.3279
17.2539
18.2476
19.3138
20.459
21.6894
23.01
24.4315
25.9603
27.6058
29.3791
31.2952
33.366
35.6109
38.0474
40.7004
43.6019
46.7886
50.3141
54.2443
58.6848
63.7831
69.7673
77.0292
86.2797
99.7831
121.166
149.546
163.283
110.746
11.601
10.8735
1.55699
0.117094
0.347261
0.57553
0.807676
1.05094
1.30997
1.59472
1.90379
2.21711
1.5092
3.58493
5.04765
5.73668
6.19215
6.61457
7.02924
7.42554
7.78484
8.16063
8.60287
8.99039
9.92234
10.2892
11.2173
11.991
11.1399
11.5367
19.5279
12.5456
13.212
13.907
14.655
15.4569
16.3182
17.242
18.2339
19.2985
20.4402
21.6676
22.9848
24.4011
25.9228
27.5623
29.3272
31.2326
33.2889
35.5164
37.9321
40.5567
43.4244
46.5668
50.0269
53.8704
58.1782
63.0789
68.7557
75.5012
83.8034
94.812
111.681
136.877
164.11
164.026
72.0108
7.52204
6.30839
3.84943
0.118635
0.351898
0.581591
0.8136
1.05267
1.30611
1.57944
1.88157
2.20896
2.52564
1.62336
4.0396
5.55943
6.19856
6.61571
7.01464
7.40929
7.80515
8.15047
8.51485
8.94199
9.33323
10.1746
10.587
11.4968
12.2885
11.6631
12.1229
19.3183
13.1872
13.9019
14.6477
15.4489
16.309
17.2321
18.2215
19.2832
20.4234
21.648
22.9611
24.3725
25.891
27.5227
29.2797
31.1743
33.2188
35.4301
37.8271
40.4306
43.2665
46.3646
49.7714
53.5415
57.7438
62.4838
67.9187
74.2797
81.9348
91.5492
105.114
125.809
154.125
175.117
151.866
37.8949
11.1301
6.27447
6.91994
0.119961
0.356495
0.589978
0.822239
1.06062
1.3089
1.5757
1.8656
2.18826
2.53338
2.84824
1.70831
4.48682
6.04545
6.61655
7.01067
7.39692
7.79123
8.17057
8.50468
8.86315
9.29167
9.67966
10.4857
10.9366
11.8278
12.6836
12.2327
12.7568
19.2489
13.8755
14.6419
15.4409
16.3002
17.2219
18.2099
19.2705
20.4077
21.6288
22.9398
24.3466
25.8596
27.4852
29.2362
31.1224
33.1549
35.3534
37.7327
40.3115
43.122
46.1877
49.547
53.2521
57.365
61.981
67.2199
73.2809
80.4532
89.2074
100.654
117.56
142.265
171.247
180.845
120.163
17.6083
12.0783
6.37085
8.98532
0.121063
0.360788
0.597636
0.833883
1.07225
1.31926
1.57917
1.86212
2.17051
2.51351
2.8746
3.17622
1.73808
4.90227
6.5039
7.01254
7.40174
7.77712
8.16396
8.52256
8.86166
9.22719
9.64336
10.0558
10.8477
11.3371
12.2382
13.1355
12.8456
13.4399
19.3023
14.6127
15.4351
16.2905
17.2122
18.198
19.2568
20.3928
21.6115
22.9185
24.3221
25.8313
27.4523
29.1953
31.0734
33.0981
35.2836
37.6469
40.2081
42.9915
46.0249
49.3433
52.9959
57.0334
61.5403
66.6238
72.4429
79.2434
87.3907
97.5504
111.646
132.4
160.665
185.028
176.623
74.3935
5.98395
9.28717
3.82877
9.74317
0.121972
0.36406
0.604466
0.84485
1.08772
1.33408
1.59261
1.86703
2.16792
2.49589
2.85858
3.23032
3.50053
1.67598
5.28006
6.93445
7.40118
7.78368
8.15302
8.5186
8.88681
9.22096
9.59566
10.0234
10.4789
11.2617
11.8041
12.7135
13.6547
13.5066
14.167
19.4964
15.4028
16.2844
17.2017
18.1881
19.2446
20.3788
21.5951
22.8996
24.3001
25.8045
27.4201
29.1581
31.0286
33.0445
35.2181
37.5702
40.1119
42.8742
45.8815
49.1624
52.7663
56.7401
61.1538
66.1089
71.7356
78.2373
85.9164
95.242
107.424
124.921
149.774
179.305
193.293
153.028
35.6008
10.1713
5.70627
3.83615
10.329
0.122756
0.366706
0.610035
0.855036
1.10208
1.35357
1.61121
1.88366
2.17527
2.49367
2.84021
3.21819
3.59021
3.80054
1.45956
5.61979
7.15733
7.78411
8.15083
8.508
8.87513
9.23799
9.58887
9.97672
10.4474
10.9465
11.7321
12.3127
13.2451
14.2365
14.2152
14.9564
19.7937
16.25
17.1949
18.1773
19.2337
20.3662
21.5798
22.8827
24.2793
25.7803
27.392
29.124
30.9878
32.9955
35.1596
37.4984
40.0264
42.769
45.7481
49.0002
52.5599
56.4769
60.8163
65.6609
71.1324
77.3959
84.7021
93.4374
104.33
119.353
140.756
169.281
194.745
193.467
107.24
10.6323
8.9032
2.29506
4.72181
11.9135
0.123492
0.369049
0.614923
0.862963
1.11538
1.37211
1.63436
1.90705
2.19446
2.50374
2.83969
3.20067
3.58418
3.93739
4.05259
0.952336
5.92849
7.37395
8.15264
8.50816
8.85774
9.23378
9.59804
9.97521
10.3989
10.9172
11.4537
12.241
12.87
13.831
14.8885
14.978
15.8011
20.2156
17.1569
18.1697
19.2218
20.3533
21.5651
22.8657
24.2598
25.7577
27.3657
29.0921
30.9508
32.9509
35.106
37.4323
39.9478
42.6708
45.6283
48.8513
52.3717
56.2415
60.5119
65.2661
70.6035
76.6772
83.6905
91.9566
102.008
115.18
133.724
159.294
189.068
204.786
174.34
53.7546
7.91578
2.41068
0
4.01506
14.7167
0.124286
0.371326
0.618978
0.869529
1.12583
1.38884
1.6575
1.93556
2.22326
2.5274
2.85176
3.20184
3.56675
3.93917
4.2486
4.22342
0.791196
6.21791
7.5965
8.51242
8.86067
9.22315
9.59358
9.98854
10.3981
10.8731
11.4275
11.9958
12.7946
13.4768
14.4825
15.5941
15.7936
16.7119
20.765
18.1278
19.2128
20.3403
21.5508
22.8485
24.2423
25.7351
27.3407
29.0631
30.9155
32.9086
35.0555
37.372
39.8755
42.5823
45.5203
48.7168
52.2032
56.0288
60.2434
64.9176
70.1408
76.0519
82.8238
90.7283
100.164
112.027
128.299
150.845
179.98
205.453
206.834
127.594
16.0798
5.66902
3.33774
2.42415
3.10192
18.9757
0.125241
0.37376
0.622859
0.875288
1.13457
1.40196
1.67849
1.96238
2.25665
2.5606
2.88174
3.21805
3.57107
3.92213
4.25817
4.49546
4.29364
1.53379
6.5012
7.82236
8.86945
9.22232
9.5911
9.97892
10.415
10.8723
11.3919
11.9728
12.5773
13.407
14.1361
15.1956
16.3639
16.6648
17.6861
21.4297
19.1668
20.3302
21.5365
22.834
24.2244
25.7158
27.3171
29.0359
30.8839
32.8718
35.0108
37.3166
39.8091
42.501
45.4235
48.5961
52.0559
55.8381
60.0009
64.6031
69.7361
75.5074
82.0804
89.6824
98.6576
109.605
124.078
144.059
170.793
200.581
216.162
187.822
67.0984
4.46865
3.33758
2.56002
4.51947
3.1085
24.4783
0.12641
0.376691
0.626962
0.880885
1.14224
1.41362
1.69445
1.98647
2.28787
2.60084
2.92032
3.25175
3.59114
3.93018
4.24424
4.51771
4.65896
4.04445
2.04178
6.7966
8.05639
9.22821
9.59404
9.97618
10.404
10.8883
11.3917
11.946
12.5607
13.2078
14.0649
14.8501
15.9716
17.202
17.5968
18.7381
22.2219
20.2779
21.5275
22.8182
24.2085
25.6975
27.2948
29.0115
30.8526
32.8356
34.9689
37.2678
39.7484
42.4285
45.3319
48.4856
51.9182
55.6654
59.785
64.3255
69.3717
75.0273
81.4386
88.7912
97.3877
107.684
120.803
138.645
162.749
192.642
217.187
217.703
136.788
23.4074
1.10324
3.52522
3.62048
6.18535
3.81194
27.8244
0.127821
0.38024
0.631967
0.886841
1.14966
1.42265
1.70872
2.00563
2.31564
2.63618
2.96475
3.29742
3.63132
3.95506
4.25467
4.50483
4.69378
4.73167
3.62941
2.4744
7.11289
8.30041
9.59854
9.9844
10.4025
10.8821
11.4068
11.9504
12.5379
13.1992
13.8841
14.7718
15.6267
16.8152
18.1162
18.6008
19.8655
23.1269
21.468
22.8074
24.1913
25.6789
27.2735
28.9856
30.8244
32.8027
34.929
37.22
39.6914
42.362
45.2478
48.3852
51.791
55.5108
59.5882
64.075
69.049
74.6072
80.8682
88.0174
96.3035
106.098
118.215
134.325
156.082
184.284
213.419
227.477
194.171
68.8416
4.64702
4.35635
0.870249
5.56199
6.60479
6.06238
27.3937
0.129464
0.384535
0.638025
0.894487
1.15702
1.43151
1.7192
2.02257
2.33769
2.66732
3.00591
3.34721
3.68181
4.001
4.28497
4.52055
4.68487
4.7825
4.72099
3.2284
2.86768
7.46139
8.56092
9.98787
10.4104
10.8801
11.406
11.9649
12.5433
13.1773
13.8746
14.605
15.5416
16.462
17.7321
19.0943
19.675
21.0726
24.152
22.74
24.1782
25.6588
27.2541
28.962
30.7988
32.7702
34.8932
37.1765
39.6386
42.297
45.1728
48.2905
51.6785
55.3707
59.4099
63.8528
68.7588
74.2249
80.3681
87.343
95.3675
104.771
116.141
130.872
150.606
176.613
207.102
229.507
225.576
135.147
24.1646
5.18496
2.70362
4.77251
5.87461
3.3475
7.97433
29.5095
0.131313
0.389824
0.645285
0.903662
1.16707
1.44095
1.72956
2.03614
2.35755
2.69411
3.04299
3.3928
3.73711
4.05668
4.33598
4.55439
4.70514
4.77797
4.79239
4.64943
2.86321
3.25902
7.8494
8.84504
10.4144
10.8852
11.399
11.9594
12.56
13.1781
13.8599
14.5978
15.3822
16.3651
17.3641
18.7216
20.146
20.8241
22.3662
25.2931
24.1008
25.6456
27.2321
28.941
30.7731
32.7424
34.8591
37.1369
39.5908
42.2393
45.1039
48.2055
51.5746
55.2413
59.2531
63.6497
68.4999
73.8903
79.9226
86.7431
94.5571
103.639
114.446
128.09
146.162
170.006
199.689
227.349
238.4
192.083
60.9327
5.7557
2.70344
2.70366
4.26571
3.34702
1.08331
8.96689
32.4217
0.133303
0.395375
0.654117
0.914035
1.17971
1.4536
1.74192
2.04886
2.37473
2.71683
3.07241
3.43446
3.78731
4.1145
4.39738
4.61189
4.74493
4.80395
4.7935
4.7385
4.53724
2.55839
3.66545
8.28061
9.15026
10.8904
11.402
11.9524
12.5542
13.197
13.8667
14.5893
15.3783
16.2164
17.2518
18.3318
19.7828
21.2697
22.0574
23.7563
26.5541
25.5559
27.2176
28.9181
30.7482
32.7139
34.825
37.0997
39.5478
42.187
45.0388
48.1276
51.4785
55.1246
59.1046
63.4647
68.2697
73.5867
79.5254
86.2124
93.8373
102.647
113.014
125.806
142.501
164.48
192.561
222.813
241.903
228.373
122.057
18.5011
3.72273
2.70345
4.15349
3.0163
1.08315
4.89555
10.6476
35.5174
0.135379
0.401106
0.663554
0.926649
1.19337
1.46931
1.75807
2.06302
2.39071
2.73677
3.09952
3.46832
3.83206
4.16812
4.45846
4.6766
4.80828
4.84921
4.82583
4.74963
4.64205
4.40259
2.44787
4.09609
8.76504
9.47812
11.4104
11.9589
12.5523
13.1939
13.8791
14.5988
15.3696
16.2151
17.1105
18.2045
19.3764
20.92
22.4747
23.3831
25.2396
27.9457
27.1104
28.9023
30.7233
32.6884
34.7956
37.0623
39.5049
42.1355
44.979
48.0561
51.3902
55.0165
58.97
63.2951
68.0547
73.3173
79.1695
85.743
93.2038
101.78
111.787
123.902
139.465
159.823
186.111
216.886
241.705
246.59
178.361
44.354
5.40657
3.93197
4.15319
2.83642
4.63391
6.82714
3.75483
12.1876
38.2002
0.137481
0.407687
0.673181
0.93938
1.20913
1.48653
1.77723
2.08238
2.40768
2.75658
3.12219
3.49772
3.86941
4.2169
4.5128
4.74062
4.87735
4.9196
4.87704
4.78859
4.668
4.52409
4.25713
2.2758
4.56821
9.30592
9.83227
11.9674
12.5586
13.1917
13.8764
14.6145
15.3821
16.2113
17.1123
18.0654
19.2275
20.4989
22.1439
23.768
24.8064
26.8209
29.4771
28.7709
30.7059
32.6593
34.7659
37.0299
39.4657
42.0904
44.9242
47.988
51.3116
54.9166
58.8487
63.1435
67.8611
73.0699
78.8529
85.3328
92.6478
101.019
110.73
122.313
136.93
155.923
180.475
210.483
238.993
253.483
221.485
93.4596
15.7379
2.70328
4.153
1.02536
5.72636
1.14393
8.95473
0
14.2331
40.3402
0.139589
0.414
0.683706
0.952689
1.22603
1.50628
1.7982
2.10518
2.42987
2.77718
3.14486
3.52368
3.90239
4.25759
4.56286
4.7962
4.94141
4.99255
4.95429
4.84587
4.7144
4.56817
4.39904
4.10767
2.03193
5.08792
9.91044
10.2164
12.5638
13.1967
13.8784
14.6128
15.4002
16.222
17.1122
18.0685
19.0914
20.3313
21.7078
23.4574
25.153
26.3368
28.5053
31.1504
30.546
32.6388
34.7355
36.9954
39.4281
42.0476
44.8726
47.9282
51.2345
54.825
58.7358
63.0032
67.6847
72.849
78.5672
84.9531
92.1532
100.349
109.806
120.964
134.81
152.647
175.643
204.423
234.871
255.314
247.807
151.678
23.8022
2.85514
4.1529
3.18528
4.63322
4.89409
5.16961
9.45818
3.27708
19.4534
42.3704
0.141663
0.420015
0.694297
0.968054
1.24415
1.52748
1.82229
2.13031
2.45652
2.80223
3.16968
3.55023
3.93196
4.29393
4.60624
4.8471
4.99877
5.05975
5.03212
4.93003
4.77703
4.62283
4.46382
4.27423
3.95432
1.67288
5.66421
10.58
10.6334
13.2051
13.8833
14.6148
15.4007
16.2416
17.1243
18.0734
19.0958
20.1929
21.5193
23.0061
24.8666
26.6368
27.9862
30.3079
32.9478
32.4503
34.7129
36.9622
39.3921
42.0042
44.8231
47.8686
51.1634
54.7399
58.6286
62.8761
67.5234
72.6426
78.3043
84.617
91.7099
99.7508
108.995
119.8
133.005
149.858
171.514
198.883
230.02
254.867
261.562
199.252
56.2933
4.03746
2.8551
3.1852
3.18531
3.55365
1.20826
5.4602
10.7483
4.42431
29.3029
43.9802
0.143642
0.426573
0.704878
0.983033
1.26417
1.5509
1.84741
2.15897
2.48662
2.83258
3.19801
3.57768
3.96127
4.32676
4.64584
4.89287
5.052
5.11673
5.10117
5.01284
4.86764
4.69106
4.52762
4.36186
4.15096
3.79223
1.05748
6.30433
11.3259
11.0796
13.892
14.622
15.4028
16.2447
17.1435
18.0869
19.1019
20.1936
21.3725
22.7928
24.397
26.3758
28.2258
29.7631
32.2414
34.841
34.5026
36.9376
39.3536
41.9648
44.7757
47.8143
51.1006
54.6618
58.5352
62.7579
67.3762
72.4541
78.0688
84.3086
91.3017
99.217
108.269
118.783
131.459
147.461
167.939
193.912
224.71
252.765
267.4
235.366
104.96
18.7184
0
1.02521
4.5046
3.5535
0
1.27611
6.99869
12.8839
3.89269
41.2091
44.7885
0.145512
0.432614
0.715743
0.997435
1.28371
1.57579
1.8757
2.18974
2.52052
2.86774
3.23153
3.61149
3.99274