/*--------------------------------*- C++ -*----------------------------------*\
| =========                 |                                                 |
| \\      /  F ield         | OpenFOAM: The Open Source CFD Toolbox           |
|  \\    /   O peration     | Version:  v2012                                 |
|   \\  /    A nd           | Website:  www.openfoam.com                      |
|    \\/     M anipulation  |                                                 |
\*---------------------------------------------------------------------------*/
FoamFile
{
    version     2.0;
    format      ascii;
    class       volScalarField;
    location    "0";
    object      yPlus;
}
// * * * * * * * * * * * * * * * * * * * * * * * * * * * * * * * * * * * * * //

dimensions      [0 0 0 0 0 0 0];


internalField   uniform 0;

boundaryField
{
    base
    {
        type            calculated;
        value           nonuniform List<scalar> 
317
(
0.207563
0.212547
0.208597
0.20555
0.203253
0.201341
0.199677
0.198251
0.197034
0.195949
0.194965
0.194042
0.193184
0.192382
0.191655
0.190991
0.190398
0.189861
0.189382
0.188949
0.188562
0.188214
0.187902
0.187621
0.187365
0.187128
0.18691
0.186711
0.186528
0.186361
0.186208
0.186071
0.185947
0.185834
0.18573
0.185634
0.185536
0.185452
0.185666
0.207807
0.188339
0.189
0.196637
0.19227
0.186778
0.185724
0.184834
0.184638
0.184564
0.184509
0.184433
0.184359
0.184304
0.184271
0.184173
0.177079
0.128236
0.114517
0.124073
0.118961
0.115992
0.114388
0.113543
0.113711
0.11441
0.115621
0.117125
0.118662
0.119983
0.121081
0.121985
0.122765
0.123495
0.124283
0.125231
0.126393
0.127797
0.129435
0.131278
0.133264
0.135337
0.137437
0.139545
0.141621
0.143604
0.145478
0.147236
0.148867
0.15037
0.151755
0.153079
0.154382
0.155354
0.156041
0.156768
0.157408
0.157929
0.158323
0.158607
0.158786
0.158834
0.158743
0.15851
0.158156
0.157651
0.157005
0.156162
0.155122
0.153782
0.152146
0.15
0.147133
0.143119
0.136922
0.127961
0.110096
0.0877629
0.0475471
0.0740746
0.0294837
0.0563427
0.0706264
0.0830595
0.0956348
0.106204
0.115204
0.122523
0.128199
0.132826
0.137007
0.140684
0.14373
0.146714
0.149018
0.151498
0.154245
0.156234
0.158402
0.160379
0.161653
0.16286
0.164278
0.16595
0.167582
0.16881
0.169231
0.170353
0.171417
0.172485
0.174285
0.175257
0.176186
0.177094
0.177201
0.178065
0.180012
0.180855
0.180508
0.181199
0.181971
0.183032
0.181939
0.179767
0.184122
0.188428
0.18912
0.189755
0.190325
0.18713
0.187663
0.191993
0.192519
0.193007
0.192579
0.193024
0.193461
0.192909
0.190276
0.187571
0.187774
0.187946
0.191992
0.196061
0.192368
0.189533
0.18701
0.1869
0.186335
0.182272
0.194806
0.198074
0.188786
0.187778
0.186938
0.185809
0.184476
0.183399
0.181863
0.188524
0.186728
0.176082
0.173362
0.170705
0.175817
0.172719
0.165653
0.168533
0.166746
0.155219
0.14305
0.137265
0.131045
0.121389
0.119194
0.110049
0.0949099
0.0886898
0.0719647
0.0483069
0.0104378
0.0522985
0.0737974
0.091123
0.103694
0.11685
0.127293
0.138645
0.149473
0.156839
0.170746
0.185004
0.195143
0.200916
0.209818
0.224155
0.233934
0.242632
0.252328
0.260632
0.269142
0.289941
0.297542
0.291065
0.312181
0.318136
0.287161
0.264495
0.344055
0.428676
0.431389
0.362914
0.310525
0.307416
0.299104
0.408401
0.466987
0.455446
0.398794
0.404856
0.422797
0.339552
0.32554
0.32603
0.333294
0.45389
0.525213
0.443044
0.34171
0.344444
0.441136
0.447581
0.386442
0.376207
0.467551
0.491292
0.503549
0.496316
0.37452
0.479538
0.486594
0.51041
0.510319
0.408615
0.410306
0.493383
0.498399
0.497029
0.494302
0.381712
0.499221
0.505662
0.38846
0.385884
0.404592
0.429462
0.424506
0.496173
0.533908
0.421315
0.516387
0.514962
0.409581
0.517029
0.517268
0.410986
0.410206
0.504469
0.601482
0.513396
0.509307
0.514048
0.404668
0.402793
0.508354
0.536737
0.534334
0.519785
)
;
    }
    frontAndBack
    {
        type            empty;
    }
    inlet
    {
        type            calculated;
        value           uniform 0;
    }
    outlet
    {
        type            calculated;
        value           uniform 0;
    }
    top
    {
        type            calculated;
        value           uniform 0;
    }
}


// ************************************************************************* //
