# p  FACE_DATA 398
# x  y  z  p
-0.7975 0 0.025 4472.6
-0.79239 0 0.025 3681.66
-0.787056 0 0.025 2934.32
-0.781492 0 0.025 2837.16
-0.775691 0 0.025 2789.77
-0.769649 0 0.025 2788.43
-0.763362 0 0.025 2815.66
-0.756822 0 0.025 2839.6
-0.750025 0 0.025 2854.76
-0.742968 0 0.025 2861.98
-0.735648 0 0.025 2866.59
-0.72806 0 0.025 2868.02
-0.720203 0 0.025 2868.05
-0.712076 0 0.025 2866.56
-0.703677 0 0.025 2865.7
-0.695006 0 0.025 2864.69
-0.686065 0 0.025 2863.64
-0.676855 0 0.025 2863.02
-0.667379 0 0.025 2860.56
-0.65764 0 0.025 2855.98
-0.647644 0 0.025 2854
-0.637397 0 0.025 2854.62
-0.626906 0 0.025 2849.97
-0.616179 0 0.025 2848.26
-0.605224 0 0.025 2846.25
-0.594054 0 0.025 2844.7
-0.582678 0 0.025 2841.9
-0.57111 0 0.025 2839.91
-0.559364 0 0.025 2837.75
-0.547454 0 0.025 2837.08
-0.535396 0 0.025 2834.35
-0.523205 0 0.025 2832.69
-0.510901 0 0.025 2830.42
-0.4985 0 0.025 2828.27
-0.486021 0 0.025 2827.55
-0.473483 0 0.025 2826.08
-0.460905 0 0.025 2824.33
-0.448308 0 0.025 2822.85
-0.435709 0 0.025 2820.67
-0.42313 0 0.025 2818.45
-0.41059 0 0.025 2817.92
-0.39811 0 0.025 2817.69
-0.385706 0 0.025 2816.33
-0.373398 0 0.025 2814.37
-0.361205 0 0.025 2813.56
-0.349141 0 0.025 2812.79
-0.337226 0 0.025 2811.06
-0.325475 0 0.025 2809.05
-0.313901 0 0.025 2807.67
-0.30252 0 0.025 2807.01
-0.291343 0 0.025 2806.82
-0.280382 0 0.025 2806.24
-0.269646 0 0.025 2805.64
-0.259148 0 0.025 2804.94
-0.248893 0 0.025 2804.46
-0.23889 0 0.025 2803.5
-0.229143 0 0.025 2802.54
-0.219659 0 0.025 2801.4
-0.210441 0 0.025 2800.48
-0.201491 0 0.025 2799.37
-0.192812 0 0.025 2798.37
-0.184405 0 0.025 2797.37
-0.176269 0 0.025 2796.76
-0.168404 0 0.025 2796.27
-0.160808 0 0.025 2796.07
-0.15348 0 0.025 2795.82
-0.146415 0 0.025 2795.6
-0.13961 0 0.025 2795.36
-0.133063 0 0.025 2795.16
-0.126767 0 0.025 2794.78
-0.120718 0 0.025 2794.29
-0.11491 0 0.025 2793.52
-0.109339 0 0.025 2792.63
-0.103997 0 0.025 2791.63
-0.0988805 0 0.025 2790.71
-0.0939808 0 0.025 2789.89
-0.0892928 0 0.025 2789.29
-0.0848096 0 0.025 2788.91
-0.0805248 0 0.025 2788.73
-0.0764316 0 0.025 2788.72
-0.0725237 0 0.025 2788.78
-0.0687943 0 0.025 2788.94
-0.065237 0 0.025 2789.16
-0.0618454 0 0.025 2789.41
-0.058613 0 0.025 2789.65
-0.0555337 0 0.025 2789.89
-0.0526013 0 0.025 2790.08
-0.0498099 0 0.025 2790.26
-0.0471536 0 0.025 2790.41
-0.0446266 0 0.025 2790.58
-0.0422235 0 0.025 2790.74
-0.039939 0 0.025 2790.94
-0.0377676 0 0.025 2791.14
-0.0357044 0 0.025 2791.34
-0.0337445 0 0.025 2791.63
-0.0318832 0 0.025 2791.35
-0.0301159 0 0.025 2797.44
-0.0284383 0 0.025 2940.98
-0.0268461 0 0.025 3827.72
-0.0253353 0 0.025 5256.68
-0.023902 0 0.025 6340.46
-0.0225426 0 0.025 7159.09
-0.0212532 0 0.025 7744.68
-0.0200306 0 0.025 8216.34
-0.0188715 0 0.025 8630.4
-0.0177728 0 0.025 8984.31
-0.0167313 0 0.025 9294.51
-0.0157444 0 0.025 9570.89
-0.0148092 0 0.025 9816.49
-0.0139232 0 0.025 10039.1
-0.0130838 0 0.025 10243.8
-0.0122887 0 0.025 10433
-0.0115356 0 0.025 10607.4
-0.0108223 0 0.025 10768.1
-0.0101469 0 0.025 10916.5
-0.00950727 0 0.025 11053.1
-0.00890168 0 0.025 11178.1
-0.00832835 0 0.025 11292
-0.00778557 0 0.025 11395.5
-0.00727176 0 0.025 11489.6
-0.0067854 0 0.025 11575.3
-0.00632507 0 0.025 11654
-0.00588937 0 0.025 11727.1
-0.00547703 0 0.025 11796.1
-0.0050868 0 0.025 11862.6
-0.00471753 0 0.025 11927.7
-0.0043681 0 0.025 11992.6
-0.00403746 0 0.025 12059.3
-0.00372461 0 0.025 12128.8
-0.0034286 0 0.025 12201.4
-0.00314855 0 0.025 12277.5
-0.0028836 0 0.025 12358.4
-0.00263294 0 0.025 12447.5
-0.00239581 0 0.025 12540.1
-0.0021715 0 0.025 12635.5
-0.00195929 0 0.025 12735.8
-0.00175856 0 0.025 12840.5
-0.00156869 0 0.025 12948.5
-0.00138908 0 0.025 13059
-0.0012192 0 0.025 13171.3
-0.00105853 0 0.025 13283.9
-0.000906546 0 0.025 13395.3
-0.000762803 0 0.025 13502.7
-0.000626848 0 0.025 13602.3
-0.000498265 0 0.025 13687.8
-0.000376656 0 0.025 13750.9
-0.000261642 0 0.025 13784.7
-0.00015287 0 0.025 13792.5
-5e-05 0 0.025 13885.2
4.14519e-05 2.79596e-05 0.025 13459.2
0.000125371 8.45641e-05 0.025 13560
0.000211347 0.000142556 0.025 13524.8
0.000299429 0.000201968 0.025 13456.7
0.000389669 0.000262835 0.025 13377.6
0.000482118 0.000325193 0.025 13298.2
0.000576831 0.000389077 0.025 13224.5
0.000673861 0.000454524 0.025 13160
0.000773265 0.000521574 0.025 13107.2
0.0008751 0.000590262 0.025 13067.3
0.000979426 0.000660632 0.025 13041.8
0.0010863 0.000732721 0.025 13026.2
0.00119579 0.000806572 0.025 13026.3
0.00130795 0.000882227 0.025 13039.3
0.00142285 0.00095973 0.025 13063.5
0.00154056 0.00103912 0.025 13099
0.00166115 0.00112046 0.025 13145.6
0.00178467 0.00120378 0.025 13202.9
0.00191121 0.00128913 0.025 13269.8
0.00204083 0.00137656 0.025 13346.8
0.00217362 0.00146612 0.025 13432.8
0.00230964 0.00155787 0.025 13528.3
0.00244897 0.00165185 0.025 13631.9
0.00259169 0.00174812 0.025 13744.8
0.00273789 0.00184673 0.025 13866.1
0.00288765 0.00194774 0.025 13996.1
0.00304105 0.00205122 0.025 14134.9
0.00319818 0.00215719 0.025 14282.5
0.00335912 0.00226575 0.025 14438.9
0.00352397 0.00237695 0.025 14604.7
0.00369283 0.00249085 0.025 14779.8
0.00386579 0.00260751 0.025 14964.9
0.00404294 0.00272699 0.025 15160.2
0.00422438 0.00284938 0.025 15366.3
0.00441022 0.00297474 0.025 15583.7
0.00460056 0.00310312 0.025 15813.3
0.00479552 0.00323462 0.025 16055.9
0.00499519 0.0033693 0.025 16311.8
0.00519968 0.00350723 0.025 16582.8
0.00540911 0.00364849 0.025 16869.3
0.00562361 0.00379318 0.025 17172.5
0.00584329 0.00394134 0.025 17494
0.00606826 0.00409309 0.025 17834.7
0.00629865 0.00424849 0.025 18196.3
0.0065346 0.00440764 0.025 18580.5
0.00677623 0.00457063 0.025 18988.4
0.00702368 0.00473753 0.025 19422.8
0.00727707 0.00490844 0.025 19884.9
0.00753655 0.00508347 0.025 20377.2
0.00780227 0.00526269 0.025 20902.5
0.00807436 0.00544622 0.025 21462.9
0.00835298 0.00563415 0.025 22061.9
0.00863826 0.00582659 0.025 22702.3
0.00893038 0.00602362 0.025 23387.5
0.00922949 0.00622537 0.025 24120.6
0.00953574 0.00643195 0.025 24905.9
0.00984929 0.00664345 0.025 25745.8
0.0101703 0.00686 0.025 26646.5
0.0104991 0.00708171 0.025 27609.6
0.0108356 0.00730871 0.025 28641.8
0.0111801 0.0075411 0.025 29748.7
0.0115329 0.00777902 0.025 30935.9
0.011894 0.00802259 0.025 32208.9
0.0122637 0.00827194 0.025 33582.9
0.0126421 0.00852719 0.025 35057.9
0.0130295 0.0087885 0.025 36649.8
0.013426 0.00905597 0.025 38365.5
0.013832 0.00932978 0.025 40215.6
0.0142475 0.00961003 0.025 42211.2
0.0146727 0.0098969 0.025 44358.3
0.0151081 0.0101905 0.025 46671.7
0.0155536 0.010491 0.025 49168.3
0.0160097 0.0107986 0.025 51868.4
0.0164764 0.0111134 0.025 54779.7
0.016954 0.0114356 0.025 57927
0.0174427 0.0117653 0.025 61316.9
0.0179429 0.0121026 0.025 64979.1
0.0184548 0.0124479 0.025 68926
0.0189786 0.0128013 0.025 73177.1
0.0195146 0.0131628 0.025 77762
0.020063 0.0135327 0.025 82713.8
0.0206242 0.0139112 0.025 88088.3
0.0211983 0.0142984 0.025 93985
0.0217857 0.0146947 0.025 100510
0.0223867 0.0151 0.025 107704
0.0230015 0.0155147 0.025 115531
0.0236304 0.0159389 0.025 124066
0.0242738 0.0163729 0.025 133191
0.0249318 0.0168167 0.025 142612
0.025605 0.0172708 0.025 151632
0.0262935 0.0177352 0.025 159051
0.0269977 0.0182102 0.025 163975
0.0277178 0.0186959 0.025 165949
0.0284544 0.0191927 0.025 166202
0.0292075 0.0197008 0.025 164415
0.0299777 0.0202203 0.025 162935
0.0307653 0.0207514 0.025 160322
0.0315704 0.0212945 0.025 157570
0.0323937 0.0218499 0.025 154608
0.0332354 0.0224176 0.025 151303
0.0340959 0.022998 0.025 147759
0.0349755 0.0235913 0.025 144159
0.0358747 0.0241978 0.025 140835
0.0367938 0.0248178 0.025 137810
0.0377331 0.0254513 0.025 135221
0.0386932 0.0260989 0.025 133073
0.0396743 0.0267606 0.025 131291
0.0406769 0.0274369 0.025 129851
0.0417013 0.0281279 0.025 128754
0.042748 0.0288339 0.025 128055
0.0438175 0.0295552 0.025 127592
0.04491 0.0302922 0.025 127198
0.0460262 0.031045 0.025 126776
0.0471662 0.031814 0.025 126591
0.0483306 0.0325995 0.025 127045
0.0495199 0.0334016 0.025 127583
0.0507344 0.0342208 0.025 127693
0.0519746 0.0350573 0.025 127361
0.0532409 0.0359114 0.025 127010
0.0545339 0.0367835 0.025 126951
0.0558538 0.0376739 0.025 127207
0.0572012 0.0385827 0.025 127247
0.0585766 0.0395104 0.025 126950
0.0599804 0.0404573 0.025 126508
0.061413 0.0414236 0.025 126848
0.0628748 0.0424096 0.025 127780
0.0643665 0.0434157 0.025 128564
0.0658883 0.0444422 0.025 128617
0.0674408 0.0454894 0.025 128195
0.0690245 0.0465576 0.025 127792
0.0706398 0.0476471 0.025 127626
0.0722871 0.0487582 0.025 128080
0.0739669 0.0498912 0.025 128711
0.0756797 0.0510466 0.025 128890
0.0774258 0.0522244 0.025 128892
0.0792059 0.053425 0.025 128724
0.0810203 0.0546489 0.025 128716
0.0828694 0.0558961 0.025 128861
0.0847537 0.0571671 0.025 129105
0.0866737 0.0584622 0.025 129269
0.0886298 0.0597816 0.025 129473
0.0906224 0.0611256 0.025 129716
0.0926518 0.0624944 0.025 130061
0.0947185 0.0638884 0.025 130436
0.096823 0.065308 0.025 130542
0.0989659 0.0667532 0.025 130552
0.101147 0.0682245 0.025 129896
0.103367 0.0697219 0.025 129333
0.105626 0.0712458 0.025 129023
0.107926 0.0727965 0.025 128502
0.110265 0.074374 0.025 128082
0.112644 0.0759789 0.025 127345
0.115063 0.0776111 0.025 127623
0.117524 0.0792709 0.025 127790
0.120026 0.0809585 0.025 128479
0.122569 0.0826741 0.025 129559
0.125155 0.0844179 0.025 130288
0.127782 0.0861901 0.025 130320
0.130451 0.0879908 0.025 129722
0.133163 0.08982 0.025 129351
0.135918 0.0916781 0.025 128957
0.138716 0.0935651 0.025 129200
0.141556 0.095481 0.025 129642
0.14444 0.097426 0.025 129954
0.147367 0.0994004 0.025 129347
0.150337 0.101404 0.025 129708
0.153351 0.103437 0.025 128790
0.156408 0.105498 0.025 127183
0.159508 0.107589 0.025 127710
0.162651 0.10971 0.025 126656
0.165838 0.111859 0.025 124307
0.169069 0.114039 0.025 127422
0.172343 0.116247 0.025 125436
0.175659 0.118483 0.025 124943
0.179018 0.120749 0.025 124148
0.182421 0.123045 0.025 123063
0.185866 0.125368 0.025 122613
0.189353 0.12772 0.025 122149
0.192882 0.1301 0.025 122061
0.196453 0.132509 0.025 122294
0.200065 0.134946 0.025 121654
0.203718 0.13741 0.025 121702
0.207412 0.139901 0.025 121979
0.211146 0.14242 0.025 121208
0.214919 0.144965 0.025 120456
0.218732 0.147537 0.025 121287
0.222583 0.150134 0.025 121094
0.226472 0.152757 0.025 122546
0.230399 0.155406 0.025 122176
0.234362 0.15808 0.025 122208
0.238362 0.160777 0.025 120997
0.242396 0.163498 0.025 120970
0.246466 0.166244 0.025 120203
0.250569 0.169012 0.025 121147
0.254706 0.171801 0.025 120307
0.258874 0.174613 0.025 120353
0.263074 0.177446 0.025 119943
0.267304 0.180299 0.025 120670
0.271564 0.183172 0.025 121248
0.275852 0.186064 0.025 120777
0.280168 0.188975 0.025 121397
0.28451 0.191904 0.025 121006
0.288876 0.19485 0.025 120328
0.293268 0.197812 0.025 121003
0.297683 0.20079 0.025 119867
0.302119 0.203782 0.025 119512
0.306577 0.206788 0.025 120191
0.311054 0.209808 0.025 119450
0.315549 0.212841 0.025 120057
0.320063 0.215885 0.025 119417
0.324591 0.218939 0.025 120995
0.329134 0.222003 0.025 121559
0.333691 0.225077 0.025 121028
0.33826 0.228159 0.025 121942
0.342839 0.231248 0.025 121526
0.347428 0.234343 0.025 122468
0.352025 0.237444 0.025 121015
0.356628 0.240548 0.025 121299
0.361237 0.243658 0.025 121312
0.36585 0.246769 0.025 119691
0.370465 0.249882 0.025 122060
0.375082 0.252996 0.025 120885
0.379698 0.25611 0.025 120285
0.384313 0.259223 0.025 121341
0.388926 0.262333 0.025 120551
0.393534 0.265442 0.025 120987
0.398136 0.268546 0.025 121285
0.40273 0.271645 0.025 120525
0.407317 0.274739 0.025 120396
0.411894 0.277826 0.025 119968
0.41646 0.280906 0.025 121459
0.421014 0.283977 0.025 120599
0.425554 0.28704 0.025 120389
0.430079 0.290092 0.025 120916
0.434588 0.293133 0.025 120680
0.439079 0.296162 0.025 121455
0.443551 0.299179 0.025 121085
0.448004 0.302183 0.025 120993
0.452437 0.305172 0.025 121114
0.456846 0.308146 0.025 121427
0.461232 0.311105 0.025 121301
0.465593 0.314047 0.025 121466
0.469929 0.316971 0.025 121065
0.474238 0.319878 0.025 122194
0.47852 0.322766 0.025 121851
0.482773 0.325635 0.025 121951
0.486996 0.328483 0.025 121515
0.491189 0.331311 0.025 120758
0.49535 0.334118 0.025 122065
