# Wall heat-flux
# Time        	patch         	min           	max           	integral      
1200          	base	-1.052388e+04	3.198148e+04	3.492316e+02
