# y+ ()       
# Time        	patch         	min           	max           	average       
9900          	base	2.200732e-02	6.368608e-01	2.612151e-01
