# wallHeatFlux  FACE_DATA 398
# x  y  z  wallHeatFlux
-0.7975 0 0.025 -653677
-0.79239 0 0.025 -120045
-0.787056 0 0.025 -71329.2
-0.781492 0 0.025 -64587.9
-0.775691 0 0.025 -65905.2
-0.769649 0 0.025 -66446.1
-0.763362 0 0.025 -66765.7
-0.756822 0 0.025 -66483.8
-0.750025 0 0.025 -65866.3
-0.742968 0 0.025 -64956.6
-0.735648 0 0.025 -63928.3
-0.72806 0 0.025 -62893.5
-0.720203 0 0.025 -61918
-0.712076 0 0.025 -61049.7
-0.703677 0 0.025 -60255.1
-0.695006 0 0.025 -59416.8
-0.686065 0 0.025 -58652.6
-0.676855 0 0.025 -57999.7
-0.667379 0 0.025 -57292.3
-0.65764 0 0.025 -56605.8
-0.647644 0 0.025 -56033.7
-0.637397 0 0.025 -55465.6
-0.626906 0 0.025 -54887.7
-0.616179 0 0.025 -54384.9
-0.605224 0 0.025 -53845.1
-0.594054 0 0.025 -53383.5
-0.582678 0 0.025 -52907.6
-0.57111 0 0.025 -52451.1
-0.559364 0 0.025 -51993.5
-0.547454 0 0.025 -51597.3
-0.535396 0 0.025 -51215.5
-0.523205 0 0.025 -50883.2
-0.510901 0 0.025 -50497.2
-0.4985 0 0.025 -50074.3
-0.486021 0 0.025 -49719.8
-0.473483 0 0.025 -49438.5
-0.460905 0 0.025 -49159.6
-0.448308 0 0.025 -48901.2
-0.435709 0 0.025 -48598
-0.42313 0 0.025 -48253.9
-0.41059 0 0.025 -47951.8
-0.39811 0 0.025 -47723.3
-0.385706 0 0.025 -47519.6
-0.373398 0 0.025 -47326.7
-0.361205 0 0.025 -47132.8
-0.349141 0 0.025 -46942.1
-0.337226 0 0.025 -46718.9
-0.325475 0 0.025 -46468.4
-0.313901 0 0.025 -46217.7
-0.30252 0 0.025 -45998.5
-0.291343 0 0.025 -45823.4
-0.280382 0 0.025 -45707.2
-0.269646 0 0.025 -45638.4
-0.259148 0 0.025 -45586.2
-0.248893 0 0.025 -45525
-0.23889 0 0.025 -45405.3
-0.229143 0 0.025 -45247.6
-0.219659 0 0.025 -45054.2
-0.210441 0 0.025 -44849.9
-0.201491 0 0.025 -44632.9
-0.192812 0 0.025 -44451
-0.184405 0 0.025 -44295.2
-0.176269 0 0.025 -44196.4
-0.168404 0 0.025 -44120.9
-0.160808 0 0.025 -44088.2
-0.15348 0 0.025 -44085.2
-0.146415 0 0.025 -44088.5
-0.13961 0 0.025 -44079.7
-0.133063 0 0.025 -44056.8
-0.126767 0 0.025 -44024.1
-0.120718 0 0.025 -43970.6
-0.11491 0 0.025 -43912.5
-0.109339 0 0.025 -43844.3
-0.103997 0 0.025 -43770
-0.0988805 0 0.025 -43689.1
-0.0939808 0 0.025 -43605.6
-0.0892928 0 0.025 -43523.5
-0.0848096 0 0.025 -43446.8
-0.0805248 0 0.025 -43381.2
-0.0764316 0 0.025 -43321.3
-0.0725237 0 0.025 -43266.8
-0.0687943 0 0.025 -43223.8
-0.065237 0 0.025 -43185.5
-0.0618454 0 0.025 -43148.2
-0.058613 0 0.025 -43120.8
-0.0555337 0 0.025 -43099.8
-0.0526013 0 0.025 -43078.1
-0.0498099 0 0.025 -43062.1
-0.0471536 0 0.025 -43046.1
-0.0446266 0 0.025 -43035.5
-0.0422235 0 0.025 -43019.5
-0.039939 0 0.025 -43008.9
-0.0377676 0 0.025 -42998
-0.0357044 0 0.025 -42982.7
-0.0337445 0 0.025 -42977.1
-0.0318832 0 0.025 -42912.9
-0.0301159 0 0.025 -41342.2
-0.0284383 0 0.025 -34382.9
-0.0268461 0 0.025 -35588.4
-0.0253353 0 0.025 -53349.1
-0.023902 0 0.025 -64361.8
-0.0225426 0 0.025 -71063.6
-0.0212532 0 0.025 -76423.4
-0.0200306 0 0.025 -81239.8
-0.0188715 0 0.025 -85226.8
-0.0177728 0 0.025 -88817.9
-0.0167313 0 0.025 -92055.9
-0.0157444 0 0.025 -94935.4
-0.0148092 0 0.025 -97717.5
-0.0139232 0 0.025 -100404
-0.0130838 0 0.025 -102897
-0.0122887 0 0.025 -105103
-0.0115356 0 0.025 -107025
-0.0108223 0 0.025 -108715
-0.0101469 0 0.025 -110201
-0.00950727 0 0.025 -111512
-0.00890168 0 0.025 -112685
-0.00832835 0 0.025 -113778
-0.00778557 0 0.025 -114853
-0.00727176 0 0.025 -115962
-0.0067854 0 0.025 -117127
-0.00632507 0 0.025 -118388
-0.00588937 0 0.025 -119749
-0.00547703 0 0.025 -121217
-0.0050868 0 0.025 -122808
-0.00471753 0 0.025 -124514
-0.0043681 0 0.025 -126367
-0.00403746 0 0.025 -128358
-0.00372461 0 0.025 -130481
-0.0034286 0 0.025 -132745
-0.00314855 0 0.025 -135198
-0.0028836 0 0.025 -137869
-0.00263294 0 0.025 -140629
-0.00239581 0 0.025 -143287
-0.0021715 0 0.025 -146111
-0.00195929 0 0.025 -149053
-0.00175856 0 0.025 -152096
-0.00156869 0 0.025 -155231
-0.00138908 0 0.025 -158476
-0.0012192 0 0.025 -161773
-0.00105853 0 0.025 -165141
-0.000906546 0 0.025 -168548
-0.000762803 0 0.025 -171859
-0.000626848 0 0.025 -174764
-0.000498265 0 0.025 -176400
-0.000376656 0 0.025 -174913
-0.000261642 0 0.025 -166682
-0.00015287 0 0.025 -144680
-5e-05 0 0.025 -93253.9
4.14519e-05 2.79596e-05 0.025 -65610.3
0.000125371 8.45641e-05 0.025 -78959.8
0.000211347 0.000142556 0.025 -94343.7
0.000299429 0.000201968 0.025 -105596
0.000389669 0.000262835 0.025 -115026
0.000482118 0.000325193 0.025 -124015
0.000576831 0.000389077 0.025 -132498
0.000673861 0.000454524 0.025 -140204
0.000773265 0.000521574 0.025 -147024
0.0008751 0.000590262 0.025 -153025
0.000979426 0.000660632 0.025 -158311
0.0010863 0.000732721 0.025 -163023
0.00119579 0.000806572 0.025 -167361
0.00130795 0.000882227 0.025 -171383
0.00142285 0.00095973 0.025 -175142
0.00154056 0.00103912 0.025 -178768
0.00166115 0.00112046 0.025 -182271
0.00178467 0.00120378 0.025 -185731
0.00191121 0.00128913 0.025 -189183
0.00204083 0.00137656 0.025 -192577
0.00217362 0.00146612 0.025 -196023
0.00230964 0.00155787 0.025 -199527
0.00244897 0.00165185 0.025 -203044
0.00259169 0.00174812 0.025 -206651
0.00273789 0.00184673 0.025 -210359
0.00288765 0.00194774 0.025 -214206
0.00304105 0.00205122 0.025 -218153
0.00319818 0.00215719 0.025 -222226
0.00335912 0.00226575 0.025 -226505
0.00352397 0.00237695 0.025 -230923
0.00369283 0.00249085 0.025 -235551
0.00386579 0.00260751 0.025 -240364
0.00404294 0.00272699 0.025 -245408
0.00422438 0.00284938 0.025 -250704
0.00441022 0.00297474 0.025 -256267
0.00460056 0.00310312 0.025 -262107
0.00479552 0.00323462 0.025 -268227
0.00499519 0.0033693 0.025 -274749
0.00519968 0.00350723 0.025 -281567
0.00540911 0.00364849 0.025 -288831
0.00562361 0.00379318 0.025 -296526
0.00584329 0.00394134 0.025 -304645
0.00606826 0.00409309 0.025 -313349
0.00629865 0.00424849 0.025 -322530
0.0065346 0.00440764 0.025 -332317
0.00677623 0.00457063 0.025 -342779
0.00702368 0.00473753 0.025 -353822
0.00727707 0.00490844 0.025 -365701
0.00753655 0.00508347 0.025 -378359
0.00780227 0.00526269 0.025 -392091
0.00807436 0.00544622 0.025 -406787
0.00835298 0.00563415 0.025 -422331
0.00863826 0.00582659 0.025 -439292
0.00893038 0.00602362 0.025 -458340
0.00922949 0.00622537 0.025 -478161
0.00953574 0.00643195 0.025 -499012
0.00984929 0.00664345 0.025 -522841
0.0101703 0.00686 0.025 -549639
0.0104991 0.00708171 0.025 -578470
0.0108356 0.00730871 0.025 -612856
0.0111801 0.0075411 0.025 -649602
0.0115329 0.00777902 0.025 -688573
0.011894 0.00802259 0.025 -732374
0.0122637 0.00827194 0.025 -777116
0.0126421 0.00852719 0.025 -821636
0.0130295 0.0087885 0.025 -865072
0.013426 0.00905597 0.025 -908813
0.013832 0.00932978 0.025 -951982
0.0142475 0.00961003 0.025 -994909
0.0146727 0.0098969 0.025 -1.03748e+06
0.0151081 0.0101905 0.025 -1.08031e+06
0.0155536 0.010491 0.025 -1.12528e+06
0.0160097 0.0107986 0.025 -1.17075e+06
0.0164764 0.0111134 0.025 -1.21973e+06
0.016954 0.0114356 0.025 -1.27164e+06
0.0174427 0.0117653 0.025 -1.32171e+06
0.0179429 0.0121026 0.025 -1.37677e+06
0.0184548 0.0124479 0.025 -1.44112e+06
0.0189786 0.0128013 0.025 -1.48383e+06
0.0195146 0.0131628 0.025 -1.53409e+06
0.020063 0.0135327 0.025 -1.59336e+06
0.0206242 0.0139112 0.025 -1.63273e+06
0.0211983 0.0142984 0.025 -1.66315e+06
0.0217857 0.0146947 0.025 -1.70009e+06
0.0223867 0.0151 0.025 -1.73195e+06
0.0230015 0.0155147 0.025 -1.75754e+06
0.0236304 0.0159389 0.025 -1.7875e+06
0.0242738 0.0163729 0.025 -1.78779e+06
0.0249318 0.0168167 0.025 -1.80033e+06
0.025605 0.0172708 0.025 -1.80593e+06
0.0262935 0.0177352 0.025 -1.77896e+06
0.0269977 0.0182102 0.025 -1.7499e+06
0.0277178 0.0186959 0.025 -1.71117e+06
0.0284544 0.0191927 0.025 -1.72499e+06
0.0292075 0.0197008 0.025 -1.6705e+06
0.0299777 0.0202203 0.025 -1.62167e+06
0.0307653 0.0207514 0.025 -1.5919e+06
0.0315704 0.0212945 0.025 -1.5618e+06
0.0323937 0.0218499 0.025 -1.53626e+06
0.0332354 0.0224176 0.025 -1.50909e+06
0.0340959 0.022998 0.025 -1.48511e+06
0.0349755 0.0235913 0.025 -1.45266e+06
0.0358747 0.0241978 0.025 -1.4504e+06
0.0367938 0.0248178 0.025 -1.41552e+06
0.0377331 0.0254513 0.025 -1.39095e+06
0.0386932 0.0260989 0.025 -1.37004e+06
0.0396743 0.0267606 0.025 -1.35414e+06
0.0406769 0.0274369 0.025 -1.34352e+06
0.0417013 0.0281279 0.025 -1.32976e+06
0.042748 0.0288339 0.025 -1.33102e+06
0.0438175 0.0295552 0.025 -1.31823e+06
0.04491 0.0302922 0.025 -1.30677e+06
0.0460262 0.031045 0.025 -1.3073e+06
0.0471662 0.031814 0.025 -1.31379e+06
0.0483306 0.0325995 0.025 -1.30533e+06
0.0495199 0.0334016 0.025 -1.30927e+06
0.0507344 0.0342208 0.025 -1.30556e+06
0.0519746 0.0350573 0.025 -1.30242e+06
0.0532409 0.0359114 0.025 -1.30577e+06
0.0545339 0.0367835 0.025 -1.29145e+06
0.0558538 0.0376739 0.025 -1.29038e+06
0.0572012 0.0385827 0.025 -1.2899e+06
0.0585766 0.0395104 0.025 -1.28832e+06
0.0599804 0.0404573 0.025 -1.29654e+06
0.061413 0.0414236 0.025 -1.27848e+06
0.0628748 0.0424096 0.025 -1.30524e+06
0.0643665 0.0434157 0.025 -1.31042e+06
0.0658883 0.0444422 0.025 -1.28355e+06
0.0674408 0.0454894 0.025 -1.27386e+06
0.0690245 0.0465576 0.025 -1.27315e+06
0.0706398 0.0476471 0.025 -1.26826e+06
0.0722871 0.0487582 0.025 -1.26603e+06
0.0739669 0.0498912 0.025 -1.26424e+06
0.0756797 0.0510466 0.025 -1.27372e+06
0.0774258 0.0522244 0.025 -1.28531e+06
0.0792059 0.053425 0.025 -1.2765e+06
0.0810203 0.0546489 0.025 -1.30036e+06
0.0828694 0.0558961 0.025 -1.27133e+06
0.0847537 0.0571671 0.025 -1.31493e+06
0.0866737 0.0584622 0.025 -1.27481e+06
0.0886298 0.0597816 0.025 -1.27492e+06
0.0906224 0.0611256 0.025 -1.28615e+06
0.0926518 0.0624944 0.025 -1.25209e+06
0.0947185 0.0638884 0.025 -1.29498e+06
0.096823 0.065308 0.025 -1.25398e+06
0.0989659 0.0667532 0.025 -1.34218e+06
0.101147 0.0682245 0.025 -1.68987e+06
0.103367 0.0697219 0.025 -1.59433e+06
0.105626 0.0712458 0.025 -1.20137e+06
0.107926 0.0727965 0.025 -1.19658e+06
0.110265 0.074374 0.025 -1.23485e+06
0.112644 0.0759789 0.025 -1.83641e+06
0.115063 0.0776111 0.025 -1.23914e+06
0.117524 0.0792709 0.025 -1.71192e+06
0.120026 0.0809585 0.025 -1.88177e+06
0.122569 0.0826741 0.025 -1.6711e+06
0.125155 0.0844179 0.025 -1.4927e+06
0.127782 0.0861901 0.025 -1.29566e+06
0.130451 0.0879908 0.025 -1.25059e+06
0.133163 0.08982 0.025 -1.22755e+06
0.135918 0.0916781 0.025 -1.19792e+06
0.138716 0.0935651 0.025 -1.19875e+06
0.141556 0.095481 0.025 -1.20769e+06
0.14444 0.097426 0.025 -1.59031e+06
0.147367 0.0994004 0.025 -2.34724e+06
0.150337 0.101404 0.025 -1.66983e+06
0.153351 0.103437 0.025 -1.61938e+06
0.156408 0.105498 0.025 -2.25622e+06
0.159508 0.107589 0.025 -1.02694e+06
0.162651 0.10971 0.025 -1.51843e+06
0.165838 0.111859 0.025 -3.66688e+06
0.169069 0.114039 0.025 -1.60948e+06
0.172343 0.116247 0.025 -1.98623e+06
0.175659 0.118483 0.025 -1.88249e+06
0.179018 0.120749 0.025 -1.8791e+06
0.182421 0.123045 0.025 -1.94709e+06
0.185866 0.125368 0.025 -1.70793e+06
0.189353 0.12772 0.025 -1.74327e+06
0.192882 0.1301 0.025 -1.85159e+06
0.196453 0.132509 0.025 -1.7513e+06
0.200065 0.134946 0.025 -2.18512e+06
0.203718 0.13741 0.025 -1.94846e+06
0.207412 0.139901 0.025 -928266
0.211146 0.14242 0.025 -991196
0.214919 0.144965 0.025 -1.62292e+06
0.218732 0.147537 0.025 -991309
0.222583 0.150134 0.025 -1.94736e+06
0.226472 0.152757 0.025 -980612
0.230399 0.155406 0.025 -1.83917e+06
0.234362 0.15808 0.025 -1.73307e+06
0.238362 0.160777 0.025 -2.36256e+06
0.242396 0.163498 0.025 -1.95345e+06
0.246466 0.166244 0.025 -2.1171e+06
0.250569 0.169012 0.025 -934201
0.254706 0.171801 0.025 -1.53769e+06
0.258874 0.174613 0.025 -1.53926e+06
0.263074 0.177446 0.025 -1.96101e+06
0.267304 0.180299 0.025 -1.58668e+06
0.271564 0.183172 0.025 -951297
0.275852 0.186064 0.025 -1.63092e+06
0.280168 0.188975 0.025 -925828
0.28451 0.191904 0.025 -1.6568e+06
0.288876 0.19485 0.025 -2.28322e+06
0.293268 0.197812 0.025 -1.61399e+06
0.297683 0.20079 0.025 -1.93435e+06
0.302119 0.203782 0.025 -2.10018e+06
0.306577 0.206788 0.025 -1.38881e+06
0.311054 0.209808 0.025 -1.58176e+06
0.315549 0.212841 0.025 -1.16855e+06
0.320063 0.215885 0.025 -2.01936e+06
0.324591 0.218939 0.025 -1.42562e+06
0.329134 0.222003 0.025 -1.41554e+06
0.333691 0.225077 0.025 -2.22388e+06
0.33826 0.228159 0.025 -1.78817e+06
0.342839 0.231248 0.025 -1.83502e+06
0.347428 0.234343 0.025 -877311
0.352025 0.237444 0.025 -1.93963e+06
0.356628 0.240548 0.025 -1.41884e+06
0.361237 0.243658 0.025 -1.15748e+06
0.36585 0.246769 0.025 -2.58058e+06
0.370465 0.249882 0.025 -1.02899e+06
0.375082 0.252996 0.025 -1.48213e+06
0.379698 0.25611 0.025 -2.36494e+06
0.384313 0.259223 0.025 -1.39787e+06
0.388926 0.262333 0.025 -1.71513e+06
0.393534 0.265442 0.025 -1.41299e+06
0.398136 0.268546 0.025 -882443
0.40273 0.271645 0.025 -1.63301e+06
0.407317 0.274739 0.025 -1.68999e+06
0.411894 0.277826 0.025 -2.12705e+06
0.41646 0.280906 0.025 -838034
0.421014 0.283977 0.025 -1.59858e+06
0.425554 0.28704 0.025 -1.88541e+06
0.430079 0.290092 0.025 -1.48461e+06
0.434588 0.293133 0.025 -1.83487e+06
0.439079 0.296162 0.025 -1.28259e+06
0.443551 0.299179 0.025 -1.67056e+06
0.448004 0.302183 0.025 -1.70036e+06
0.452437 0.305172 0.025 -1.65819e+06
0.456846 0.308146 0.025 -1.53997e+06
0.461232 0.311105 0.025 -1.56573e+06
0.465593 0.314047 0.025 -1.45037e+06
0.469929 0.316971 0.025 -1.93544e+06
0.474238 0.319878 0.025 -995551
0.47852 0.322766 0.025 -1.1157e+06
0.482773 0.325635 0.025 -884996
0.486996 0.328483 0.025 -1.33202e+06
0.491189 0.331311 0.025 -2.02447e+06
0.49535 0.334118 0.025 -1.29128e+06
