# p  FACE_DATA 398
# x  y  z  p
-0.7975 0 0.025 4472.88
-0.79239 0 0.025 3650.25
-0.787056 0 0.025 2981
-0.781492 0 0.025 2873.85
-0.775691 0 0.025 2797.27
-0.769649 0 0.025 2780.79
-0.763362 0 0.025 2786.45
-0.756822 0 0.025 2784.84
-0.750025 0 0.025 2795.16
-0.742968 0 0.025 2800.68
-0.735648 0 0.025 2802.08
-0.72806 0 0.025 2801.17
-0.720203 0 0.025 2802.72
-0.712076 0 0.025 2801.76
-0.703677 0 0.025 2800.16
-0.695006 0 0.025 2799.58
-0.686065 0 0.025 2798.5
-0.676855 0 0.025 2795.27
-0.667379 0 0.025 2791.62
-0.65764 0 0.025 2788.87
-0.647644 0 0.025 2786.3
-0.637397 0 0.025 2782.81
-0.626906 0 0.025 2778.48
-0.616179 0 0.025 2774.48
-0.605224 0 0.025 2770.71
-0.594054 0 0.025 2766.67
-0.582678 0 0.025 2761.76
-0.57111 0 0.025 2757.12
-0.559364 0 0.025 2752.61
-0.547454 0 0.025 2748.15
-0.535396 0 0.025 2743.67
-0.523205 0 0.025 2739.87
-0.510901 0 0.025 2735.86
-0.4985 0 0.025 2731.02
-0.486021 0 0.025 2725.51
-0.473483 0 0.025 2721.23
-0.460905 0 0.025 2719.05
-0.448308 0 0.025 2716.72
-0.435709 0 0.025 2712.28
-0.42313 0 0.025 2706.58
-0.41059 0 0.025 2701.82
-0.39811 0 0.025 2700.12
-0.385706 0 0.025 2700.06
-0.373398 0 0.025 2698.44
-0.361205 0 0.025 2693.57
-0.349141 0 0.025 2687.74
-0.337226 0 0.025 2682.92
-0.325475 0 0.025 2680.26
-0.313901 0 0.025 2683.07
-0.30252 0 0.025 2685.01
-0.291343 0 0.025 2685.65
-0.280382 0 0.025 2683.68
-0.269646 0 0.025 2678.89
-0.259148 0 0.025 2672.58
-0.248893 0 0.025 2666.85
-0.23889 0 0.025 2662.51
-0.229143 0 0.025 2660.64
-0.219659 0 0.025 2660.58
-0.210441 0 0.025 2663.71
-0.201491 0 0.025 2667.58
-0.192812 0 0.025 2671.45
-0.184405 0 0.025 2674.04
-0.176269 0 0.025 2675.25
-0.168404 0 0.025 2675.27
-0.160808 0 0.025 2673.56
-0.15348 0 0.025 2670.32
-0.146415 0 0.025 2666.1
-0.13961 0 0.025 2660.93
-0.133063 0 0.025 2656.07
-0.126767 0 0.025 2651.63
-0.120718 0 0.025 2647.95
-0.11491 0 0.025 2645.06
-0.109339 0 0.025 2643.02
-0.103997 0 0.025 2641.73
-0.0988805 0 0.025 2641.11
-0.0939808 0 0.025 2640.99
-0.0892928 0 0.025 2641.47
-0.0848096 0 0.025 2642.43
-0.0805248 0 0.025 2643.9
-0.0764316 0 0.025 2645.81
-0.0725237 0 0.025 2648.04
-0.0687943 0 0.025 2650.45
-0.065237 0 0.025 2652.87
-0.0618454 0 0.025 2655.16
-0.058613 0 0.025 2657.24
-0.0555337 0 0.025 2659.13
-0.0526013 0 0.025 2660.8
-0.0498099 0 0.025 2662.32
-0.0471536 0 0.025 2663.68
-0.0446266 0 0.025 2664.88
-0.0422235 0 0.025 2665.9
-0.039939 0 0.025 2666.77
-0.0377676 0 0.025 2667.5
-0.0357044 0 0.025 2668.12
-0.0337445 0 0.025 2668.64
-0.0318832 0 0.025 2669.09
-0.0301159 0 0.025 2669.46
-0.0284383 0 0.025 2669.76
-0.0268461 0 0.025 2670
-0.0253353 0 0.025 2670.18
-0.023902 0 0.025 2670.29
-0.0225426 0 0.025 2670.35
-0.0212532 0 0.025 2674.01
-0.0200306 0 0.025 2855.45
-0.0188715 0 0.025 4800.46
-0.0177728 0 0.025 7510.05
-0.0167313 0 0.025 8986.11
-0.0157444 0 0.025 9554.29
-0.0148092 0 0.025 9839.39
-0.0139232 0 0.025 9982.26
-0.0130838 0 0.025 10074.1
-0.0122887 0 0.025 10197.3
-0.0115356 0 0.025 10324.6
-0.0108223 0 0.025 10463.3
-0.0101469 0 0.025 10593.6
-0.00950727 0 0.025 10710.7
-0.00890168 0 0.025 10813
-0.00832835 0 0.025 10898.5
-0.00778557 0 0.025 10967.9
-0.00727176 0 0.025 11021.8
-0.0067854 0 0.025 11060.1
-0.00632507 0 0.025 11083.6
-0.00588937 0 0.025 11094.8
-0.00547703 0 0.025 11096.1
-0.0050868 0 0.025 11093.7
-0.00471753 0 0.025 11090.1
-0.0043681 0 0.025 11089.7
-0.00403746 0 0.025 11094.6
-0.00372461 0 0.025 11105.6
-0.0034286 0 0.025 11124.3
-0.00314855 0 0.025 11152.2
-0.0028836 0 0.025 11187.8
-0.00263294 0 0.025 11232.3
-0.00239581 0 0.025 11286.7
-0.0021715 0 0.025 11355.4
-0.00195929 0 0.025 11444
-0.00175856 0 0.025 11551
-0.00156869 0 0.025 11675.7
-0.00138908 0 0.025 11824.4
-0.0012192 0 0.025 11996.2
-0.00105853 0 0.025 12189.9
-0.000906546 0 0.025 12403.7
-0.000762803 0 0.025 12630.1
-0.000626848 0 0.025 12862.2
-0.000498265 0 0.025 13085.7
-0.000376656 0 0.025 13276.9
-0.000261642 0 0.025 13410.8
-0.00015287 0 0.025 13462.8
-5e-05 0 0.025 13639.7
4.14519e-05 2.79596e-05 0.025 12912.9
0.000125371 8.45641e-05 0.025 13026
0.000211347 0.000142556 0.025 12956.8
0.000299429 0.000201968 0.025 12816.4
0.000389669 0.000262835 0.025 12648.5
0.000482118 0.000325193 0.025 12476
0.000576831 0.000389077 0.025 12312.5
0.000673861 0.000454524 0.025 12167.6
0.000773265 0.000521574 0.025 12046.9
0.0008751 0.000590262 0.025 11951.3
0.000979426 0.000660632 0.025 11879.1
0.0010863 0.000732721 0.025 11832.4
0.00119579 0.000806572 0.025 11797.4
0.00130795 0.000882227 0.025 11789.5
0.00142285 0.00095973 0.025 11803.5
0.00154056 0.00103912 0.025 11833.3
0.00166115 0.00112046 0.025 11880.4
0.00178467 0.00120378 0.025 11944.4
0.00191121 0.00128913 0.025 12022.8
0.00204083 0.00137656 0.025 12116.2
0.00217362 0.00146612 0.025 12222.4
0.00230964 0.00155787 0.025 12341.1
0.00244897 0.00165185 0.025 12472.6
0.00259169 0.00174812 0.025 12617.7
0.00273789 0.00184673 0.025 12776.2
0.00288765 0.00194774 0.025 12949
0.00304105 0.00205122 0.025 13136.2
0.00319818 0.00215719 0.025 13340.2
0.00335912 0.00226575 0.025 13561.7
0.00352397 0.00237695 0.025 13802.1
0.00369283 0.00249085 0.025 14063.7
0.00386579 0.00260751 0.025 14348.5
0.00404294 0.00272699 0.025 14658.3
0.00422438 0.00284938 0.025 14995.4
0.00441022 0.00297474 0.025 15362.9
0.00460056 0.00310312 0.025 15763.7
0.00479552 0.00323462 0.025 16200.7
0.00499519 0.0033693 0.025 16676.1
0.00519968 0.00350723 0.025 17195.2
0.00540911 0.00364849 0.025 17760.3
0.00562361 0.00379318 0.025 18375.1
0.00584329 0.00394134 0.025 19044
0.00606826 0.00409309 0.025 19770.9
0.00629865 0.00424849 0.025 20560.5
0.0065346 0.00440764 0.025 21418.9
0.00677623 0.00457063 0.025 22351.2
0.00702368 0.00473753 0.025 23366.5
0.00727707 0.00490844 0.025 24473.1
0.00753655 0.00508347 0.025 25681.6
0.00780227 0.00526269 0.025 27002.3
0.00807436 0.00544622 0.025 28448.7
0.00835298 0.00563415 0.025 30033.6
0.00863826 0.00582659 0.025 31776.4
0.00893038 0.00602362 0.025 33696.5
0.00922949 0.00622537 0.025 35819.5
0.00953574 0.00643195 0.025 38174.8
0.00984929 0.00664345 0.025 40784.5
0.0101703 0.00686 0.025 43681.2
0.0104991 0.00708171 0.025 46905
0.0108356 0.00730871 0.025 50486
0.0111801 0.0075411 0.025 54454.8
0.0115329 0.00777902 0.025 58882.6
0.011894 0.00802259 0.025 64186.6
0.0122637 0.00827194 0.025 69286
0.0126421 0.00852719 0.025 75855.9
0.0130295 0.0087885 0.025 82807.8
0.013426 0.00905597 0.025 90629.1
0.013832 0.00932978 0.025 99563.9
0.0142475 0.00961003 0.025 109980
0.0146727 0.0098969 0.025 121117
0.0151081 0.0101905 0.025 133814
0.0155536 0.010491 0.025 147453
0.0160097 0.0107986 0.025 161267
0.0164764 0.0111134 0.025 173287
0.016954 0.0114356 0.025 185423
0.0174427 0.0117653 0.025 187487
0.0179429 0.0121026 0.025 181448
0.0184548 0.0124479 0.025 172039
0.0189786 0.0128013 0.025 161591
0.0195146 0.0131628 0.025 151794
0.020063 0.0135327 0.025 143681
0.0206242 0.0139112 0.025 137342
0.0211983 0.0142984 0.025 132481
0.0217857 0.0146947 0.025 128985
0.0223867 0.0151 0.025 125967
0.0230015 0.0155147 0.025 123818
0.0236304 0.0159389 0.025 122557
0.0242738 0.0163729 0.025 121246
0.0249318 0.0168167 0.025 120597
0.025605 0.0172708 0.025 121749
0.0262935 0.0177352 0.025 124330
0.0269977 0.0182102 0.025 125892
0.0277178 0.0186959 0.025 125699
0.0284544 0.0191927 0.025 125215
0.0292075 0.0197008 0.025 125127
0.0299777 0.0202203 0.025 125694
0.0307653 0.0207514 0.025 126428
0.0315704 0.0212945 0.025 126739
0.0323937 0.0218499 0.025 126551
0.0332354 0.0224176 0.025 126326
0.0340959 0.022998 0.025 126384
0.0349755 0.0235913 0.025 126597
0.0358747 0.0241978 0.025 126713
0.0367938 0.0248178 0.025 126539
0.0377331 0.0254513 0.025 126286
0.0386932 0.0260989 0.025 126174
0.0396743 0.0267606 0.025 126521
0.0406769 0.0274369 0.025 127045
0.0417013 0.0281279 0.025 127684
0.042748 0.0288339 0.025 127449
0.0438175 0.0295552 0.025 126710
0.04491 0.0302922 0.025 125778
0.0460262 0.031045 0.025 125497
0.0471662 0.031814 0.025 125706
0.0483306 0.0325995 0.025 126216
0.0495199 0.0334016 0.025 126241
0.0507344 0.0342208 0.025 125858
0.0519746 0.0350573 0.025 125395
0.0532409 0.0359114 0.025 125415
0.0545339 0.0367835 0.025 125808
0.0558538 0.0376739 0.025 125776
0.0572012 0.0385827 0.025 126086
0.0585766 0.0395104 0.025 125667
0.0599804 0.0404573 0.025 125475
0.061413 0.0414236 0.025 125340
0.0628748 0.0424096 0.025 125335
0.0643665 0.0434157 0.025 125479
0.0658883 0.0444422 0.025 125644
0.0674408 0.0454894 0.025 125832
0.0690245 0.0465576 0.025 125985
0.0706398 0.0476471 0.025 126069
0.0722871 0.0487582 0.025 125968
0.0739669 0.0498912 0.025 125962
0.0756797 0.0510466 0.025 125549
0.0774258 0.0522244 0.025 125616
0.0792059 0.053425 0.025 125311
0.0810203 0.0546489 0.025 125605
0.0828694 0.0558961 0.025 125474
0.0847537 0.0571671 0.025 125332
0.0866737 0.0584622 0.025 125406
0.0886298 0.0597816 0.025 125547
0.0906224 0.0611256 0.025 126036
0.0926518 0.0624944 0.025 126246
0.0947185 0.0638884 0.025 126651
0.096823 0.065308 0.025 126679
0.0989659 0.0667532 0.025 126326
0.101147 0.0682245 0.025 126003
0.103367 0.0697219 0.025 125192
0.105626 0.0712458 0.025 124532
0.107926 0.0727965 0.025 124174
0.110265 0.074374 0.025 124348
0.112644 0.0759789 0.025 124730
0.115063 0.0776111 0.025 125927
0.117524 0.0792709 0.025 126298
0.120026 0.0809585 0.025 126824
0.122569 0.0826741 0.025 126843
0.125155 0.0844179 0.025 126828
0.127782 0.0861901 0.025 126524
0.130451 0.0879908 0.025 126658
0.133163 0.08982 0.025 126519
0.135918 0.0916781 0.025 126698
0.138716 0.0935651 0.025 126722
0.141556 0.095481 0.025 126722
0.14444 0.097426 0.025 126773
0.147367 0.0994004 0.025 126062
0.150337 0.101404 0.025 127182
0.153351 0.103437 0.025 127111
0.156408 0.105498 0.025 125889
0.159508 0.107589 0.025 126822
0.162651 0.10971 0.025 126222
0.165838 0.111859 0.025 124262
0.169069 0.114039 0.025 124990
0.172343 0.116247 0.025 124706
0.175659 0.118483 0.025 124058
0.179018 0.120749 0.025 123656
0.182421 0.123045 0.025 122982
0.185866 0.125368 0.025 122538
0.189353 0.12772 0.025 121905
0.192882 0.1301 0.025 121043
0.196453 0.132509 0.025 121431
0.200065 0.134946 0.025 120662
0.203718 0.13741 0.025 121430
0.207412 0.139901 0.025 121457
0.211146 0.14242 0.025 121362
0.214919 0.144965 0.025 121219
0.218732 0.147537 0.025 121508
0.222583 0.150134 0.025 120789
0.226472 0.152757 0.025 121406
0.230399 0.155406 0.025 120867
0.234362 0.15808 0.025 120759
0.238362 0.160777 0.025 120184
0.242396 0.163498 0.025 120719
0.246466 0.166244 0.025 120536
0.250569 0.169012 0.025 120195
0.254706 0.171801 0.025 119714
0.258874 0.174613 0.025 119592
0.263074 0.177446 0.025 119359
0.267304 0.180299 0.025 119484
0.271564 0.183172 0.025 119760
0.275852 0.186064 0.025 120206
0.280168 0.188975 0.025 121161
0.28451 0.191904 0.025 120693
0.288876 0.19485 0.025 120248
0.293268 0.197812 0.025 121498
0.297683 0.20079 0.025 121047
0.302119 0.203782 0.025 118896
0.306577 0.206788 0.025 120881
0.311054 0.209808 0.025 119621
0.315549 0.212841 0.025 120414
0.320063 0.215885 0.025 120386
0.324591 0.218939 0.025 120905
0.329134 0.222003 0.025 121080
0.333691 0.225077 0.025 119782
0.33826 0.228159 0.025 121624
0.342839 0.231248 0.025 120217
0.347428 0.234343 0.025 121366
0.352025 0.237444 0.025 120719
0.356628 0.240548 0.025 120757
0.361237 0.243658 0.025 120751
0.36585 0.246769 0.025 118710
0.370465 0.249882 0.025 121239
0.375082 0.252996 0.025 120145
0.379698 0.25611 0.025 119019
0.384313 0.259223 0.025 120629
0.388926 0.262333 0.025 120457
0.393534 0.265442 0.025 120185
0.398136 0.268546 0.025 120221
0.40273 0.271645 0.025 119473
0.407317 0.274739 0.025 120177
0.411894 0.277826 0.025 118940
0.41646 0.280906 0.025 120651
0.421014 0.283977 0.025 120437
0.425554 0.28704 0.025 119427
0.430079 0.290092 0.025 120511
0.434588 0.293133 0.025 120844
0.439079 0.296162 0.025 120895
0.443551 0.299179 0.025 120682
0.448004 0.302183 0.025 120469
0.452437 0.305172 0.025 120963
0.456846 0.308146 0.025 121045
0.461232 0.311105 0.025 121001
0.465593 0.314047 0.025 120306
0.469929 0.316971 0.025 120985
0.474238 0.319878 0.025 121241
0.47852 0.322766 0.025 120975
0.482773 0.325635 0.025 120645
0.486996 0.328483 0.025 120586
0.491189 0.331311 0.025 119023
0.49535 0.334118 0.025 121184
