# wallHeatFlux  FACE_DATA 398
# x  y  z  wallHeatFlux
-0.7975 0 0.025 -653698
-0.79239 0 0.025 -120541
-0.787056 0 0.025 -68141.3
-0.781492 0 0.025 -66740.1
-0.775691 0 0.025 -71799.2
-0.769649 0 0.025 -76275.9
-0.763362 0 0.025 -79190.7
-0.756822 0 0.025 -80772.8
-0.750025 0 0.025 -81793.4
-0.742968 0 0.025 -82142.3
-0.735648 0 0.025 -82001.2
-0.72806 0 0.025 -81514.1
-0.720203 0 0.025 -80927.4
-0.712076 0 0.025 -80182.7
-0.703677 0 0.025 -79325.1
-0.695006 0 0.025 -78445.2
-0.686065 0 0.025 -77511.1
-0.676855 0 0.025 -76496
-0.667379 0 0.025 -75452.4
-0.65764 0 0.025 -74451
-0.647644 0 0.025 -73466.3
-0.637397 0 0.025 -72468.9
-0.626906 0 0.025 -71467
-0.616179 0 0.025 -70506.3
-0.605224 0 0.025 -69588.8
-0.594054 0 0.025 -68700.4
-0.582678 0 0.025 -67823.1
-0.57111 0 0.025 -67002
-0.559364 0 0.025 -66233.2
-0.547454 0 0.025 -65503.1
-0.535396 0 0.025 -64808.5
-0.523205 0 0.025 -64161.9
-0.510901 0 0.025 -63558.6
-0.4985 0 0.025 -62981.6
-0.486021 0 0.025 -62435
-0.473483 0 0.025 -61950.1
-0.460905 0 0.025 -61536.9
-0.448308 0 0.025 -61154.8
-0.435709 0 0.025 -60764.9
-0.42313 0 0.025 -60382
-0.41059 0 0.025 -60056.7
-0.39811 0 0.025 -59810.1
-0.385706 0 0.025 -59625.4
-0.373398 0 0.025 -59419.2
-0.361205 0 0.025 -59174.1
-0.349141 0 0.025 -58926.1
-0.337226 0 0.025 -58715.7
-0.325475 0 0.025 -58568.9
-0.313901 0 0.025 -58556
-0.30252 0 0.025 -58536.7
-0.291343 0 0.025 -58502.6
-0.280382 0 0.025 -58409.3
-0.269646 0 0.025 -58261.3
-0.259148 0 0.025 -58092.4
-0.248893 0 0.025 -57936.5
-0.23889 0 0.025 -57829.5
-0.229143 0 0.025 -57775.3
-0.219659 0 0.025 -57760.8
-0.210441 0 0.025 -57821
-0.201491 0 0.025 -57901.2
-0.192812 0 0.025 -57978.4
-0.184405 0 0.025 -58034.8
-0.176269 0 0.025 -58051.3
-0.168404 0 0.025 -58048.7
-0.160808 0 0.025 -57987.4
-0.15348 0 0.025 -57903.3
-0.146415 0 0.025 -57798.9
-0.13961 0 0.025 -57676.8
-0.133063 0 0.025 -57557.2
-0.126767 0 0.025 -57454.8
-0.120718 0 0.025 -57363.9
-0.11491 0 0.025 -57300.6
-0.109339 0 0.025 -57254.2
-0.103997 0 0.025 -57228.2
-0.0988805 0 0.025 -57218.3
-0.0939808 0 0.025 -57220.9
-0.0892928 0 0.025 -57230.8
-0.0848096 0 0.025 -57251.5
-0.0805248 0 0.025 -57283.6
-0.0764316 0 0.025 -57326.7
-0.0725237 0 0.025 -57375.2
-0.0687943 0 0.025 -57435.5
-0.065237 0 0.025 -57484.3
-0.0618454 0 0.025 -57529.1
-0.058613 0 0.025 -57572.9
-0.0555337 0 0.025 -57612.7
-0.0526013 0 0.025 -57646.3
-0.0498099 0 0.025 -57674.9
-0.0471536 0 0.025 -57698.3
-0.0446266 0 0.025 -57721.6
-0.0422235 0 0.025 -57734.3
-0.039939 0 0.025 -57747
-0.0377676 0 0.025 -57759.3
-0.0357044 0 0.025 -57767.6
-0.0337445 0 0.025 -57769.1
-0.0318832 0 0.025 -57776.4
-0.0301159 0 0.025 -57778.3
-0.0284383 0 0.025 -57774.9
-0.0268461 0 0.025 -57776.8
-0.0253353 0 0.025 -57773.4
-0.023902 0 0.025 -57770
-0.0225426 0 0.025 -57766
-0.0212532 0 0.025 -57866.1
-0.0200306 0 0.025 -61612.6
-0.0188715 0 0.025 -93539.1
-0.0177728 0 0.025 -111805
-0.0167313 0 0.025 -117799
-0.0157444 0 0.025 -118159
-0.0148092 0 0.025 -118550
-0.0139232 0 0.025 -115945
-0.0130838 0 0.025 -110695
-0.0122887 0 0.025 -106930
-0.0115356 0 0.025 -104253
-0.0108223 0 0.025 -103040
-0.0101469 0 0.025 -102440
-0.00950727 0 0.025 -102229
-0.00890168 0 0.025 -102007
-0.00832835 0 0.025 -101550
-0.00778557 0 0.025 -100852
-0.00727176 0 0.025 -99994.2
-0.0067854 0 0.025 -99077.8
-0.00632507 0 0.025 -98229
-0.00588937 0 0.025 -97569.6
-0.00547703 0 0.025 -97171.6
-0.0050868 0 0.025 -97256.2
-0.00471753 0 0.025 -97997.5
-0.0043681 0 0.025 -99428.1
-0.00403746 0 0.025 -101611
-0.00372461 0 0.025 -104532
-0.0034286 0 0.025 -108146
-0.00314855 0 0.025 -112392
-0.0028836 0 0.025 -117104
-0.00263294 0 0.025 -122204
-0.00239581 0 0.025 -127623
-0.0021715 0 0.025 -133378
-0.00195929 0 0.025 -139367
-0.00175856 0 0.025 -145279
-0.00156869 0 0.025 -151322
-0.00138908 0 0.025 -157686
-0.0012192 0 0.025 -164268
-0.00105853 0 0.025 -171032
-0.000906546 0 0.025 -177869
-0.000762803 0 0.025 -184699
-0.000626848 0 0.025 -190629
-0.000498265 0 0.025 -195030
-0.000376656 0 0.025 -194869
-0.000261642 0 0.025 -185860
-0.00015287 0 0.025 -159312
-5e-05 0 0.025 -98065.1
4.14519e-05 2.79596e-05 0.025 -63039.5
0.000125371 8.45641e-05 0.025 -71053.7
0.000211347 0.000142556 0.025 -88136.7
0.000299429 0.000201968 0.025 -99878.8
0.000389669 0.000262835 0.025 -109538
0.000482118 0.000325193 0.025 -118657
0.000576831 0.000389077 0.025 -126823
0.000673861 0.000454524 0.025 -133729
0.000773265 0.000521574 0.025 -139459
0.0008751 0.000590262 0.025 -144226
0.000979426 0.000660632 0.025 -148215
0.0010863 0.000732721 0.025 -151551
0.00119579 0.000806572 0.025 -154380
0.00130795 0.000882227 0.025 -157071
0.00142285 0.00095973 0.025 -159502
0.00154056 0.00103912 0.025 -161829
0.00166115 0.00112046 0.025 -164074
0.00178467 0.00120378 0.025 -166373
0.00191121 0.00128913 0.025 -168730
0.00204083 0.00137656 0.025 -171092
0.00217362 0.00146612 0.025 -173568
0.00230964 0.00155787 0.025 -176182
0.00244897 0.00165185 0.025 -178913
0.00259169 0.00174812 0.025 -181781
0.00273789 0.00184673 0.025 -184840
0.00288765 0.00194774 0.025 -188127
0.00304105 0.00205122 0.025 -191584
0.00319818 0.00215719 0.025 -195298
0.00335912 0.00226575 0.025 -199342
0.00352397 0.00237695 0.025 -203642
0.00369283 0.00249085 0.025 -208297
0.00386579 0.00260751 0.025 -213304
0.00404294 0.00272699 0.025 -218750
0.00422438 0.00284938 0.025 -224650
0.00441022 0.00297474 0.025 -231038
0.00460056 0.00310312 0.025 -237994
0.00479552 0.00323462 0.025 -245560
0.00499519 0.0033693 0.025 -253855
0.00519968 0.00350723 0.025 -262808
0.00540911 0.00364849 0.025 -272719
0.00562361 0.00379318 0.025 -283506
0.00584329 0.00394134 0.025 -295244
0.00606826 0.00409309 0.025 -308170
0.00629865 0.00424849 0.025 -322121
0.0065346 0.00440764 0.025 -337528
0.00677623 0.00457063 0.025 -354347
0.00702368 0.00473753 0.025 -372668
0.00727707 0.00490844 0.025 -393025
0.00753655 0.00508347 0.025 -415377
0.00780227 0.00526269 0.025 -440167
0.00807436 0.00544622 0.025 -467697
0.00835298 0.00563415 0.025 -498199
0.00863826 0.00582659 0.025 -532251
0.00893038 0.00602362 0.025 -570159
0.00922949 0.00622537 0.025 -612405
0.00953574 0.00643195 0.025 -660065
0.00984929 0.00664345 0.025 -712352
0.0101703 0.00686 0.025 -767644
0.0104991 0.00708171 0.025 -826848
0.0108356 0.00730871 0.025 -890346
0.0111801 0.0075411 0.025 -958694
0.0115329 0.00777902 0.025 -1.04866e+06
0.011894 0.00802259 0.025 -1.20849e+06
0.0122637 0.00827194 0.025 -1.26952e+06
0.0126421 0.00852719 0.025 -1.36552e+06
0.0130295 0.0087885 0.025 -1.44801e+06
0.013426 0.00905597 0.025 -1.51698e+06
0.013832 0.00932978 0.025 -1.53512e+06
0.0142475 0.00961003 0.025 -1.589e+06
0.0146727 0.0098969 0.025 -1.61753e+06
0.0151081 0.0101905 0.025 -1.67451e+06
0.0155536 0.010491 0.025 -1.71191e+06
0.0160097 0.0107986 0.025 -1.70197e+06
0.0164764 0.0111134 0.025 -1.68284e+06
0.016954 0.0114356 0.025 -1.69079e+06
0.0174427 0.0117653 0.025 -1.72821e+06
0.0179429 0.0121026 0.025 -1.80423e+06
0.0184548 0.0124479 0.025 -1.88228e+06
0.0189786 0.0128013 0.025 -1.89432e+06
0.0195146 0.0131628 0.025 -1.87048e+06
0.020063 0.0135327 0.025 -1.85229e+06
0.0206242 0.0139112 0.025 -1.78837e+06
0.0211983 0.0142984 0.025 -1.71521e+06
0.0217857 0.0146947 0.025 -1.64633e+06
0.0223867 0.0151 0.025 -1.58208e+06
0.0230015 0.0155147 0.025 -1.52555e+06
0.0236304 0.0159389 0.025 -1.48925e+06
0.0242738 0.0163729 0.025 -1.44752e+06
0.0249318 0.0168167 0.025 -1.4278e+06
0.025605 0.0172708 0.025 -1.4302e+06
0.0262935 0.0177352 0.025 -1.44035e+06
0.0269977 0.0182102 0.025 -1.45061e+06
0.0277178 0.0186959 0.025 -1.45614e+06
0.0284544 0.0191927 0.025 -1.47941e+06
0.0292075 0.0197008 0.025 -1.46798e+06
0.0299777 0.0202203 0.025 -1.44657e+06
0.0307653 0.0207514 0.025 -1.441e+06
0.0315704 0.0212945 0.025 -1.42937e+06
0.0323937 0.0218499 0.025 -1.4148e+06
0.0332354 0.0224176 0.025 -1.40052e+06
0.0340959 0.022998 0.025 -1.38817e+06
0.0349755 0.0235913 0.025 -1.37125e+06
0.0358747 0.0241978 0.025 -1.36913e+06
0.0367938 0.0248178 0.025 -1.35499e+06
0.0377331 0.0254513 0.025 -1.33129e+06
0.0386932 0.0260989 0.025 -1.31139e+06
0.0396743 0.0267606 0.025 -1.30543e+06
0.0406769 0.0274369 0.025 -1.29772e+06
0.0417013 0.0281279 0.025 -1.30981e+06
0.042748 0.0288339 0.025 -1.28408e+06
0.0438175 0.0295552 0.025 -1.2485e+06
0.04491 0.0302922 0.025 -1.22481e+06
0.0460262 0.031045 0.025 -1.20971e+06
0.0471662 0.031814 0.025 -1.22331e+06
0.0483306 0.0325995 0.025 -1.23114e+06
0.0495199 0.0334016 0.025 -1.20887e+06
0.0507344 0.0342208 0.025 -1.1763e+06
0.0519746 0.0350573 0.025 -1.16119e+06
0.0532409 0.0359114 0.025 -1.157e+06
0.0545339 0.0367835 0.025 -1.16674e+06
0.0558538 0.0376739 0.025 -1.16753e+06
0.0572012 0.0385827 0.025 -1.16379e+06
0.0585766 0.0395104 0.025 -1.15194e+06
0.0599804 0.0404573 0.025 -1.13901e+06
0.061413 0.0414236 0.025 -1.12227e+06
0.0628748 0.0424096 0.025 -1.13372e+06
0.0643665 0.0434157 0.025 -1.15441e+06
0.0658883 0.0444422 0.025 -1.13544e+06
0.0674408 0.0454894 0.025 -1.13169e+06
0.0690245 0.0465576 0.025 -1.14229e+06
0.0706398 0.0476471 0.025 -1.14135e+06
0.0722871 0.0487582 0.025 -1.14768e+06
0.0739669 0.0498912 0.025 -1.1507e+06
0.0756797 0.0510466 0.025 -1.14224e+06
0.0774258 0.0522244 0.025 -1.15681e+06
0.0792059 0.053425 0.025 -1.15333e+06
0.0810203 0.0546489 0.025 -1.18639e+06
0.0828694 0.0558961 0.025 -1.16877e+06
0.0847537 0.0571671 0.025 -1.19467e+06
0.0866737 0.0584622 0.025 -1.17696e+06
0.0886298 0.0597816 0.025 -1.1939e+06
0.0906224 0.0611256 0.025 -1.21152e+06
0.0926518 0.0624944 0.025 -1.1941e+06
0.0947185 0.0638884 0.025 -1.23187e+06
0.096823 0.065308 0.025 -1.21649e+06
0.0989659 0.0667532 0.025 -1.24695e+06
0.101147 0.0682245 0.025 -1.38508e+06
0.103367 0.0697219 0.025 -1.30647e+06
0.105626 0.0712458 0.025 -1.11468e+06
0.107926 0.0727965 0.025 -1.14803e+06
0.110265 0.074374 0.025 -1.13415e+06
0.112644 0.0759789 0.025 -1.57406e+06
0.115063 0.0776111 0.025 -1.2227e+06
0.117524 0.0792709 0.025 -1.64484e+06
0.120026 0.0809585 0.025 -1.54797e+06
0.122569 0.0826741 0.025 -1.40174e+06
0.125155 0.0844179 0.025 -1.30165e+06
0.127782 0.0861901 0.025 -1.24943e+06
0.130451 0.0879908 0.025 -1.25208e+06
0.133163 0.08982 0.025 -1.23029e+06
0.135918 0.0916781 0.025 -1.20662e+06
0.138716 0.0935651 0.025 -1.19709e+06
0.141556 0.095481 0.025 -1.20373e+06
0.14444 0.097426 0.025 -1.36717e+06
0.147367 0.0994004 0.025 -2.17971e+06
0.150337 0.101404 0.025 -1.37044e+06
0.153351 0.103437 0.025 -1.36031e+06
0.156408 0.105498 0.025 -2.16798e+06
0.159508 0.107589 0.025 -1.05405e+06
0.162651 0.10971 0.025 -1.30673e+06
0.165838 0.111859 0.025 -3.05176e+06
0.169069 0.114039 0.025 -1.57315e+06
0.172343 0.116247 0.025 -1.41038e+06
0.175659 0.118483 0.025 -1.41429e+06
0.179018 0.120749 0.025 -1.38974e+06
0.182421 0.123045 0.025 -1.35047e+06
0.185866 0.125368 0.025 -1.34528e+06
0.189353 0.12772 0.025 -1.36881e+06
0.192882 0.1301 0.025 -1.96536e+06
0.196453 0.132509 0.025 -1.41156e+06
0.200065 0.134946 0.025 -2.18647e+06
0.203718 0.13741 0.025 -1.39644e+06
0.207412 0.139901 0.025 -1.01044e+06
0.211146 0.14242 0.025 -1.08755e+06
0.214919 0.144965 0.025 -1.51302e+06
0.218732 0.147537 0.025 -1.06488e+06
0.222583 0.150134 0.025 -2.02218e+06
0.226472 0.152757 0.025 -1.05695e+06
0.230399 0.155406 0.025 -1.66209e+06
0.234362 0.15808 0.025 -1.43252e+06
0.238362 0.160777 0.025 -1.70397e+06
0.242396 0.163498 0.025 -1.39582e+06
0.246466 0.166244 0.025 -1.45429e+06
0.250569 0.169012 0.025 -1.06069e+06
0.254706 0.171801 0.025 -1.36727e+06
0.258874 0.174613 0.025 -1.35917e+06
0.263074 0.177446 0.025 -1.41422e+06
0.267304 0.180299 0.025 -1.34798e+06
0.271564 0.183172 0.025 -1.08935e+06
0.275852 0.186064 0.025 -1.45431e+06
0.280168 0.188975 0.025 -1.0987e+06
0.28451 0.191904 0.025 -1.90282e+06
0.288876 0.19485 0.025 -2.76338e+06
0.293268 0.197812 0.025 -1.52665e+06
0.297683 0.20079 0.025 -1.18357e+06
0.302119 0.203782 0.025 -2.69335e+06
0.306577 0.206788 0.025 -1.09976e+06
0.311054 0.209808 0.025 -1.86957e+06
0.315549 0.212841 0.025 -1.27062e+06
0.320063 0.215885 0.025 -1.38795e+06
0.324591 0.218939 0.025 -1.44006e+06
0.329134 0.222003 0.025 -1.31016e+06
0.333691 0.225077 0.025 -2.81616e+06
0.33826 0.228159 0.025 -1.22855e+06
0.342839 0.231248 0.025 -2.53474e+06
0.347428 0.234343 0.025 -1.05221e+06
0.352025 0.237444 0.025 -1.45714e+06
0.356628 0.240548 0.025 -1.31831e+06
0.361237 0.243658 0.025 -1.27176e+06
0.36585 0.246769 0.025 -2.89059e+06
0.370465 0.249882 0.025 -1.15353e+06
0.375082 0.252996 0.025 -1.64276e+06
0.379698 0.25611 0.025 -2.96705e+06
0.384313 0.259223 0.025 -1.36424e+06
0.388926 0.262333 0.025 -1.39905e+06
0.393534 0.265442 0.025 -1.73863e+06
0.398136 0.268546 0.025 -1.12885e+06
0.40273 0.271645 0.025 -2.04325e+06
0.407317 0.274739 0.025 -1.47607e+06
0.411894 0.277826 0.025 -2.54167e+06
0.41646 0.280906 0.025 -1.0189e+06
0.421014 0.283977 0.025 -1.40137e+06
0.425554 0.28704 0.025 -2.50632e+06
0.430079 0.290092 0.025 -1.62745e+06
0.434588 0.293133 0.025 -1.51888e+06
0.439079 0.296162 0.025 -1.36508e+06
0.443551 0.299179 0.025 -1.5298e+06
0.448004 0.302183 0.025 -1.69774e+06
0.452437 0.305172 0.025 -1.53572e+06
0.456846 0.308146 0.025 -1.43532e+06
0.461232 0.311105 0.025 -1.46225e+06
0.465593 0.314047 0.025 -1.98239e+06
0.469929 0.316971 0.025 -1.64902e+06
0.474238 0.319878 0.025 -1.23326e+06
0.47852 0.322766 0.025 -1.29272e+06
0.482773 0.325635 0.025 -1.17646e+06
0.486996 0.328483 0.025 -1.37563e+06
0.491189 0.331311 0.025 -2.82436e+06
0.49535 0.334118 0.025 -1.15723e+06
