# p  FACE_DATA 448
# x  y  z  p
-0.778 -3.80769e-06 0 1196.57
-0.773968 -3.80769e-06 0 934.752
-0.769872 -3.80769e-06 0 761.608
-0.76571 -3.80769e-06 0 735.18
-0.761486 -3.80769e-06 0 699.295
-0.757196 -3.80769e-06 0 676.512
-0.752841 -3.80769e-06 0 664.015
-0.748422 -3.80769e-06 0 654.549
-0.743939 -3.80769e-06 0 648.044
-0.739391 -3.80769e-06 0 642.676
-0.73478 -3.80769e-06 0 638.046
-0.730104 -3.80769e-06 0 634.003
-0.725364 -3.80769e-06 0 630.046
-0.720562 -3.80769e-06 0 625.491
-0.715696 -3.80769e-06 0 619.64
-0.710769 -3.80769e-06 0 613.1
-0.705778 -3.80769e-06 0 607.174
-0.700727 -3.80769e-06 0 604.748
-0.695615 -3.80769e-06 0 604.608
-0.690443 -3.80769e-06 0 606.989
-0.685211 -3.80769e-06 0 609.589
-0.67992 -3.80769e-06 0 612.439
-0.674571 -3.80769e-06 0 615.108
-0.669166 -3.80769e-06 0 617.383
-0.663704 -3.80769e-06 0 619.392
-0.658187 -3.80769e-06 0 621.244
-0.652616 -3.80769e-06 0 622.848
-0.646993 -3.80769e-06 0 624.058
-0.641317 -3.80769e-06 0 624.904
-0.635592 -3.80769e-06 0 625.523
-0.629817 -3.80769e-06 0 626.066
-0.623994 -3.80769e-06 0 626.414
-0.618125 -3.80769e-06 0 626.583
-0.61221 -3.80769e-06 0 626.624
-0.606252 -3.80769e-06 0 626.626
-0.600253 -3.80769e-06 0 626.477
-0.594213 -3.80769e-06 0 626.263
-0.588134 -3.80769e-06 0 626.052
-0.582018 -3.80769e-06 0 625.904
-0.575867 -3.80769e-06 0 625.649
-0.569683 -3.80769e-06 0 625.211
-0.563467 -3.80769e-06 0 624.655
-0.557221 -3.80769e-06 0 624.187
-0.550946 -3.80769e-06 0 623.901
-0.544647 -3.80769e-06 0 623.686
-0.538323 -3.80769e-06 0 623.286
-0.531979 -3.80769e-06 0 622.727
-0.525613 -3.80769e-06 0 622.145
-0.51923 -3.80769e-06 0 621.771
-0.512832 -3.80769e-06 0 621.586
-0.50642 -3.80769e-06 0 621.273
-0.499995 -3.80769e-06 0 620.702
-0.493562 -3.80769e-06 0 620.003
-0.487123 -3.80769e-06 0 619.359
-0.480677 -3.80769e-06 0 619.031
-0.47423 -3.80769e-06 0 619.088
-0.467782 -3.80769e-06 0 619.118
-0.461335 -3.80769e-06 0 618.767
-0.454892 -3.80769e-06 0 618.116
-0.448455 -3.80769e-06 0 617.352
-0.442026 -3.80769e-06 0 616.686
-0.435607 -3.80769e-06 0 616.352
-0.429202 -3.80769e-06 0 616.446
-0.42281 -3.80769e-06 0 616.663
-0.416434 -3.80769e-06 0 616.727
-0.410078 -3.80769e-06 0 616.307
-0.403743 -3.80769e-06 0 615.474
-0.39743 -3.80769e-06 0 614.572
-0.391141 -3.80769e-06 0 613.765
-0.38488 -3.80769e-06 0 613.278
-0.378648 -3.80769e-06 0 613.117
-0.372446 -3.80769e-06 0 613.728
-0.366277 -3.80769e-06 0 614.097
-0.360142 -3.80769e-06 0 614.234
-0.354042 -3.80769e-06 0 613.985
-0.347981 -3.80769e-06 0 613.293
-0.341959 -3.80769e-06 0 612.233
-0.335978 -3.80769e-06 0 611.185
-0.33004 -3.80769e-06 0 610.281
-0.324146 -3.80769e-06 0 609.707
-0.318298 -3.80769e-06 0 609.501
-0.312497 -3.80769e-06 0 609.963
-0.306744 -3.80769e-06 0 610.654
-0.301041 -3.80769e-06 0 611.32
-0.29539 -3.80769e-06 0 611.803
-0.28979 -3.80769e-06 0 612.023
-0.284243 -3.80769e-06 0 612.007
-0.278752 -3.80769e-06 0 611.552
-0.273316 -3.80769e-06 0 610.751
-0.267937 -3.80769e-06 0 609.627
-0.262614 -3.80769e-06 0 608.488
-0.25735 -3.80769e-06 0 607.467
-0.252146 -3.80769e-06 0 606.64
-0.247001 -3.80769e-06 0 606.121
-0.241916 -3.80769e-06 0 605.917
-0.236893 -3.80769e-06 0 606.189
-0.231931 -3.80769e-06 0 606.624
-0.227031 -3.80769e-06 0 607.298
-0.222195 -3.80769e-06 0 607.923
-0.217421 -3.80769e-06 0 608.475
-0.212711 -3.80769e-06 0 608.88
-0.208064 -3.80769e-06 0 609.09
-0.203482 -3.80769e-06 0 609.127
-0.198964 -3.80769e-06 0 609.003
-0.19451 -3.80769e-06 0 608.654
-0.19012 -3.80769e-06 0 608.156
-0.185796 -3.80769e-06 0 607.504
-0.181535 -3.80769e-06 0 606.789
-0.17734 -3.80769e-06 0 605.998
-0.173208 -3.80769e-06 0 605.226
-0.169141 -3.80769e-06 0 604.498
-0.165138 -3.80769e-06 0 603.844
-0.161199 -3.80769e-06 0 603.28
-0.157325 -3.80769e-06 0 602.855
-0.153513 -3.80769e-06 0 602.582
-0.149765 -3.80769e-06 0 602.474
-0.14608 -3.80769e-06 0 602.447
-0.142457 -3.80769e-06 0 602.739
-0.138897 -3.80769e-06 0 603.047
-0.135398 -3.80769e-06 0 603.493
-0.131961 -3.80769e-06 0 603.977
-0.128584 -3.80769e-06 0 604.505
-0.125268 -3.80769e-06 0 605.017
-0.122011 -3.80769e-06 0 605.49
-0.118815 -3.80769e-06 0 605.9
-0.115677 -3.80769e-06 0 606.25
-0.112597 -3.80769e-06 0 606.534
-0.109574 -3.80769e-06 0 606.755
-0.106609 -3.80769e-06 0 606.909
-0.1037 -3.80769e-06 0 607.017
-0.100846 -3.80769e-06 0 607.064
-0.098048 -3.80769e-06 0 607.065
-0.0953042 -3.80769e-06 0 606.977
-0.0926143 -3.80769e-06 0 606.855
-0.0899773 -3.80769e-06 0 606.676
-0.0873927 -3.80769e-06 0 606.453
-0.0848599 -3.80769e-06 0 606.188
-0.082378 -3.80769e-06 0 605.899
-0.0799465 -3.80769e-06 0 605.587
-0.0775645 -3.80769e-06 0 605.259
-0.0752312 -3.80769e-06 0 604.915
-0.0729462 -3.80769e-06 0 604.564
-0.0707085 -3.80769e-06 0 604.208
-0.0685175 -3.80769e-06 0 603.849
-0.0663725 -3.80769e-06 0 603.49
-0.0642727 -3.80769e-06 0 603.138
-0.0622173 -3.80769e-06 0 602.794
-0.0602058 -3.80769e-06 0 602.456
-0.0582373 -3.80769e-06 0 602.127
-0.0563111 -3.80769e-06 0 601.811
-0.0544265 -3.80769e-06 0 601.511
-0.0525827 -3.80769e-06 0 601.221
-0.0507792 -3.80769e-06 0 600.951
-0.0490152 -3.80769e-06 0 600.698
-0.0472898 -3.80769e-06 0 600.466
-0.0456025 -3.80769e-06 0 600.251
-0.0439526 -3.80769e-06 0 600.057
-0.0423394 -3.80769e-06 0 599.879
-0.0407622 -3.80769e-06 0 599.72
-0.0392203 -3.80769e-06 0 599.571
-0.0377131 -3.80769e-06 0 599.438
-0.0362398 -3.80769e-06 0 599.316
-0.0347999 -3.80769e-06 0 599.209
-0.0333926 -3.80769e-06 0 599.106
-0.0320175 -3.80769e-06 0 599.014
-0.0306737 -3.80769e-06 0 598.918
-0.0293607 -3.80769e-06 0 598.847
-0.0280779 -3.80769e-06 0 598.895
-0.0268246 -3.80769e-06 0 602.183
-0.0256004 -3.80769e-06 0 626.87
-0.0244045 -3.80769e-06 0 713.97
-0.0232363 -3.80769e-06 0 854.511
-0.0220954 -3.80769e-06 0 977.408
-0.0209812 -3.80769e-06 0 1065.53
-0.019893 -3.80769e-06 0 1133.11
-0.0188303 -3.80769e-06 0 1192
-0.0177927 -3.80769e-06 0 1244.35
-0.0167794 -3.80769e-06 0 1292.64
-0.0157901 -3.80769e-06 0 1337.15
-0.0148243 -3.80769e-06 0 1377.53
-0.0138814 -3.80769e-06 0 1415.1
-0.0129608 -3.80769e-06 0 1449.86
-0.0120623 -3.80769e-06 0 1482.11
-0.0111851 -3.80769e-06 0 1512.34
-0.0103289 -3.80769e-06 0 1540.77
-0.00949328 -3.80769e-06 0 1567.69
-0.00867767 -3.80769e-06 0 1592.86
-0.00788168 -3.80769e-06 0 1616.52
-0.00710485 -3.80769e-06 0 1638.17
-0.00634675 -3.80769e-06 0 1657.58
-0.00560698 -3.80769e-06 0 1674.45
-0.0048851 -3.80769e-06 0 1689.57
-0.00418071 -3.80769e-06 0 1703.31
-0.00349342 -3.80769e-06 0 1717.25
-0.00282284 -3.80769e-06 0 1731.7
-0.00216857 -3.80769e-06 0 1751.02
-0.00153026 -3.80769e-06 0 1785.77
-0.00090752 -3.80769e-06 0 1833.48
-0.0003 -3.80769e-06 0 1925.24
0.000259937 0.000146262 2.25537e-21 1783.38
0.000779437 0.000446185 0 1833.09
0.00129893 0.000746101 0 1841.28
0.00181858 0.00104611 2.2554e-21 1862.73
0.00233835 0.00134618 -2.25541e-21 1895.56
0.00285828 0.00164636 2.25542e-21 1942.78
0.00337841 0.00194664 0 1996.54
0.00389877 0.00224706 0 2057.51
0.00441941 0.00254764 -2.25544e-21 2124.77
0.00494034 0.00284839 2.25545e-21 2197.61
0.00546162 0.00314934 -2.25546e-21 2276.07
0.00598328 0.0034505 2.25547e-21 2360.04
0.00650535 0.00375191 2.25547e-21 2449.59
0.00702786 0.00405357 2.25548e-21 2544.61
0.00755087 0.00435552 0 2645.01
0.00807439 0.00465776 -2.25549e-21 2750.93
0.00859847 0.00496033 2.2555e-21 2863
0.00912315 0.00526324 0 2982.34
0.00964845 0.00556651 2.25551e-21 3109.98
0.0101744 0.00587017 0 3246.85
0.0107011 0.00617424 0 3393.11
0.0112285 0.00647873 -2.25552e-21 3548.98
0.0117567 0.00678367 0 3714.19
0.0122857 0.00708907 0 3888.75
0.0128156 0.00739497 0 4072.65
0.0133463 0.00770137 -2.25554e-21 4265.84
0.0138779 0.00800831 0 4468.79
0.0144106 0.0083158 0 4681.54
0.0149442 0.00862387 0 4904.26
0.0154788 0.00893253 0 5137.1
0.0160145 0.00924181 0 5380.26
0.0165513 0.00955172 2.25556e-21 5634.09
0.0170893 0.00986231 -2.25556e-21 5898.39
0.0176284 0.0101736 0 6173.52
0.0181687 0.0104855 0 6459.83
0.0187103 0.0107982 2.25556e-21 6756.56
0.0192532 0.0111117 2.25557e-21 7064.01
0.0197975 0.0114259 2.25557e-21 7380.01
0.0203431 0.0117408 0 7705.16
0.0208901 0.0120566 4.51114e-21 8038.3
0.0214385 0.0123732 -4.51114e-21 8379.06
0.0219884 0.0126907 0 8727.89
0.0225398 0.0130091 4.51114e-21 9089.83
0.0230928 0.0133283 0 9472.36
0.0236474 0.0136485 0 9886.12
0.0242037 0.0139697 0 10333.8
0.0247616 0.0142918 -4.51113e-21 10806.2
0.0253212 0.0146148 -4.51113e-21 11282.7
0.0258825 0.0149389 -4.51114e-21 11734.6
0.0264456 0.015264 0 12140.4
0.0270106 0.0155902 0 12488.4
0.0275774 0.0159174 -4.51112e-21 12777.7
0.0281462 0.0162457 0 13015.7
0.0287168 0.0165752 4.51111e-21 13208.9
0.0292895 0.0169059 -4.51111e-21 13365.3
0.0298642 0.0172376 0 13500.9
0.0304409 0.0175706 0 13631.5
0.0310198 0.0179048 4.5111e-21 13743.6
0.0316007 0.0182402 4.5111e-21 13848
0.0321839 0.0185768 -4.51107e-21 13948.4
0.0327693 0.0189148 0 14037.5
0.0333569 0.0192541 0 14115.9
0.0339469 0.0195947 4.51106e-21 14169.1
0.0345392 0.0199366 0 14226
0.0351339 0.02028 0 14243.7
0.035731 0.0206247 4.51105e-21 14254.6
0.0363305 0.0209708 -4.51103e-21 14255.3
0.0369326 0.0213184 4.51102e-21 14217.8
0.0375373 0.0216675 0 14190
0.0381445 0.0220181 0 14154.6
0.0387543 0.0223702 0 14127.9
0.0393668 0.0227238 4.51099e-21 14113.5
0.0399821 0.023079 -4.51097e-21 14103.7
0.0406001 0.0234358 4.51097e-21 14080.3
0.041221 0.0237942 0 14031.2
0.0418446 0.0241542 0 13965.1
0.0424712 0.024516 4.51092e-21 13893.9
0.0431006 0.0248794 -4.51094e-21 13816.7
0.0437331 0.0252445 0 13759.4
0.0443686 0.0256114 4.51089e-21 13711.6
0.0450071 0.02598 4.51089e-21 13661.7
0.0456487 0.0263505 0 13622.4
0.0462935 0.0267227 0 13568.5
0.0469415 0.0270968 -4.51085e-21 13529.3
0.0475927 0.0274728 0 13481.9
0.0482473 0.0278507 -4.51081e-21 13439.7
0.0489051 0.0282305 4.51081e-21 13407.5
0.0495663 0.0286122 -4.51079e-21 13368.5
0.050231 0.0289959 0 13336.4
0.0508991 0.0293816 -4.51077e-21 13304.3
0.0515707 0.0297694 4.51073e-21 13275.7
0.0522459 0.0301592 -4.51073e-21 13243.5
0.0529247 0.0305511 0 13219
0.0536071 0.0309451 0 13183.3
0.0542933 0.0313412 -4.51067e-21 13156.6
0.0549832 0.0317395 0 13126.4
0.0556769 0.03214 0 13099.8
0.0563744 0.0325427 0 13075.3
0.0570758 0.0329477 -4.5106e-21 13056.2
0.0577812 0.0333549 0 13040.1
0.0584905 0.0337645 0 13019.3
0.0592039 0.0341763 -4.51056e-21 12994.2
0.0599214 0.0345905 4.51053e-21 12970.7
0.060643 0.0350071 0 12940.7
0.0613688 0.0354262 4.51049e-21 12919.7
0.0620989 0.0358477 -4.51048e-21 12897.2
0.0628332 0.0362716 4.51046e-21 12886.8
0.0635719 0.0366981 0 12879.9
0.0643149 0.037127 4.51041e-21 12870.9
0.0650624 0.0375586 0 12871
0.0658144 0.0379927 0 12855.9
0.0665709 0.0384295 4.51035e-21 12848.3
0.0673321 0.0388689 -4.51035e-21 12827.8
0.0680979 0.039311 0 12811.3
0.0688683 0.0397558 -4.51029e-21 12792.1
0.0696435 0.0402034 4.51029e-21 12772
0.0704236 0.0406537 0 12757.6
0.0712085 0.0411069 0 12739.2
0.0719983 0.0415628 0 12727.4
0.0727931 0.0420217 0 12715.9
0.0735929 0.0424834 0 12705.9
0.0743978 0.0429481 0 12702.5
0.0752078 0.0434158 0 12692
0.076023 0.0438864 4.5101e-21 12688.6
0.0768435 0.0443601 -4.51009e-21 12678.8
0.0776693 0.0448369 -4.51004e-21 12670.2
0.0785004 0.0453167 4.51003e-21 12658.6
0.079337 0.0457997 0 12646.4
0.080179 0.0462858 0 12635.4
0.0810266 0.0467751 0 12624
0.0818797 0.0472677 0 12609.5
0.0827385 0.0477635 0 12601.1
0.083603 0.0482626 0 12587.4
0.0844733 0.0487651 4.50985e-21 12578.8
0.0853495 0.0492709 -4.50983e-21 12566.7
0.0862316 0.0497801 0 12556.8
0.0871195 0.0502927 -4.50978e-21 12546.1
0.0880135 0.0508089 0 12529.3
0.0889136 0.0513285 0 12515.5
0.0898198 0.0518517 0 12501.9
0.0907322 0.0523785 0 12490.2
0.0916509 0.0529089 0 12482.4
0.0925758 0.0534429 4.50963e-21 12475.4
0.0935072 0.0539806 4.50959e-21 12470.9
0.094445 0.054522 0 12468.5
0.0953894 0.0550672 4.50953e-21 12463.7
0.0963404 0.0556162 0 12462.5
0.0972979 0.0561691 0 12456.2
0.0982622 0.0567258 0 12445.8
0.0992333 0.0572865 0 12432.1
0.100211 0.057851 0 12422.1
0.101196 0.0584196 0 12413.3
0.102188 0.0589922 4.50935e-21 12399.7
0.103187 0.0595689 4.50932e-21 12389.4
0.104193 0.0601497 -4.50928e-21 12384.2
0.105206 0.0607347 0 12369.1
0.106226 0.0613239 0 12360.3
0.107254 0.0619172 0 12346.2
0.10829 0.0625149 4.50918e-21 12342.2
0.109332 0.0631169 4.50915e-21 12339.2
0.110382 0.0637232 -4.50911e-21 12331.4
0.11144 0.064334 -4.50908e-21 12318.3
0.112506 0.0649492 4.50905e-21 12306.7
0.11358 0.0655688 4.50902e-21 12304.8
0.114661 0.066193 0 12284.3
0.11575 0.0668218 0 12276.7
0.116847 0.0674552 0 12267.5
0.117952 0.0680932 0 12256.5
0.119065 0.068736 0 12247.5
0.120187 0.0693834 4.50884e-21 12252.8
0.121316 0.0700357 0 12244.1
0.122455 0.0706928 0 12241.2
0.123601 0.0713548 -4.50875e-21 12247.2
0.124756 0.0720217 0 12239.1
0.12592 0.0726935 -4.5087e-21 12240
0.127093 0.0733704 0 12236.6
0.128274 0.0740524 0 12230.6
0.129464 0.0747395 4.50859e-21 12213.9
0.130663 0.0754317 0 12199.7
0.131871 0.0761292 4.50853e-21 12199.1
0.133088 0.0768319 4.50851e-21 12181.2
0.134315 0.0775399 0 12181.6
0.13555 0.0782532 4.50845e-21 12172.4
0.136795 0.078972 0 12167.2
0.13805 0.0796962 0 12157.2
0.139314 0.080426 -4.50834e-21 12146.6
0.140587 0.0811613 -4.50831e-21 12138.8
0.14187 0.0819021 4.50827e-21 12129.8
0.143163 0.0826487 0 12118.7
0.144466 0.0834009 0 12111.2
0.145779 0.0841589 0 12110.5
0.147102 0.0849227 4.50815e-21 12111.1
0.148435 0.0856924 4.50811e-21 12098.7
0.149779 0.0864679 0 12096.2
0.151133 0.0872495 4.50805e-21 12089.8
0.152497 0.0880371 4.50801e-21 12089.4
0.153871 0.0888307 4.50798e-21 12086.7
0.155257 0.0896305 0 12080.4
0.156653 0.0904364 4.50791e-21 12079.3
0.15806 0.0912487 4.50787e-21 12064.1
0.159478 0.0920672 0 12060.2
0.160907 0.092892 0 12041.7
0.162347 0.0937233 0 12028.2
0.163798 0.0945611 4.50774e-21 12029.5
0.16526 0.0954054 0 12014.8
0.166734 0.0962563 0 12020
0.168219 0.0971138 0 12020.3
0.169716 0.097978 4.50761e-21 12015.2
0.171225 0.098849 4.50758e-21 12012.4
0.172745 0.0997268 4.50754e-21 11996.9
0.174278 0.100611 0 11986.5
0.175822 0.101503 0 11979.6
0.177379 0.102402 0 11987.2
0.178947 0.103308 4.50741e-21 11980.5
0.180529 0.10422 4.50737e-21 11976.3
0.182122 0.10514 4.50734e-21 11981.5
0.183728 0.106068 0 11973.5
0.185347 0.107002 -4.50727e-21 11962.5
0.186979 0.107944 0 11947
0.188623 0.108894 0 11943.6
0.190281 0.109851 4.50716e-21 11931.1
0.191952 0.110815 0 11936.3
0.193636 0.111787 -4.5071e-21 11939.6
0.195333 0.112767 -4.50707e-21 11946
0.197044 0.113755 -4.50702e-21 11943.8
0.198768 0.114751 -4.507e-21 11945
0.200506 0.115754 -4.50696e-21 11918.8
0.202258 0.116766 0 11917.3
0.204024 0.117785 4.50688e-21 11906.4
0.205805 0.118813 4.50686e-21 11910.5
0.207599 0.119849 0 11913.6
0.209408 0.120893 -4.50679e-21 11917.7
0.211231 0.121946 -4.50676e-21 11921.1
0.213068 0.123007 0 11900.4
0.214921 0.124076 0 11888.9
0.216788 0.125154 0 11873
0.21867 0.126241 0 11856
0.220567 0.127336 0 11846.4
0.22248 0.12844 0 11852.8
0.224408 0.129553 0 11858.3
0.226351 0.130675 0 11867.3
0.22831 0.131806 0 11871.4
0.230284 0.132946 9.01282e-21 11854.1
0.232275 0.134095 0 11834
0.234282 0.135254 9.01268e-21 11825.9
0.236304 0.136421 0 11803.9
0.238344 0.137598 9.01253e-21 11801.6
0.2404 0.138785 0 11802.3
0.242472 0.139982 0 11826.1
