# wallHeatFlux  FACE_DATA 448
# x  y  z  wallHeatFlux
-0.778 -3.80769e-06 0 -198882
-0.773968 -3.80769e-06 0 -40154.3
-0.769872 -3.80769e-06 0 -24476.2
-0.76571 -3.80769e-06 0 -19627.1
-0.761486 -3.80769e-06 0 -16560.4
-0.757196 -3.80769e-06 0 -14607.2
-0.752841 -3.80769e-06 0 -13270.9
-0.748422 -3.80769e-06 0 -12263.6
-0.743939 -3.80769e-06 0 -11464.9
-0.739391 -3.80769e-06 0 -10807.6
-0.73478 -3.80769e-06 0 -10249.8
-0.730104 -3.80769e-06 0 -9786.98
-0.725364 -3.80769e-06 0 -9419.42
-0.720562 -3.80769e-06 0 -9168.58
-0.715696 -3.80769e-06 0 -9056.06
-0.710769 -3.80769e-06 0 -9199.96
-0.705778 -3.80769e-06 0 -9622.11
-0.700727 -3.80769e-06 0 -10338.8
-0.695615 -3.80769e-06 0 -11157.8
-0.690443 -3.80769e-06 0 -11908.1
-0.685211 -3.80769e-06 0 -12514.5
-0.67992 -3.80769e-06 0 -12992.8
-0.674571 -3.80769e-06 0 -13374.9
-0.669166 -3.80769e-06 0 -13666.1
-0.663704 -3.80769e-06 0 -13898.6
-0.658187 -3.80769e-06 0 -14066.7
-0.652616 -3.80769e-06 0 -14191.8
-0.646993 -3.80769e-06 0 -14273.9
-0.641317 -3.80769e-06 0 -14313.4
-0.635592 -3.80769e-06 0 -14329.9
-0.629817 -3.80769e-06 0 -14331.7
-0.623994 -3.80769e-06 0 -14310.2
-0.618125 -3.80769e-06 0 -14273.4
-0.61221 -3.80769e-06 0 -14230.7
-0.606252 -3.80769e-06 0 -14176.9
-0.600253 -3.80769e-06 0 -14117.5
-0.594213 -3.80769e-06 0 -14052.4
-0.588134 -3.80769e-06 0 -13992.4
-0.582018 -3.80769e-06 0 -13932.2
-0.575867 -3.80769e-06 0 -13866.3
-0.569683 -3.80769e-06 0 -13800
-0.563467 -3.80769e-06 0 -13728.1
-0.557221 -3.80769e-06 0 -13656.2
-0.550946 -3.80769e-06 0 -13593.8
-0.544647 -3.80769e-06 0 -13537.7
-0.538323 -3.80769e-06 0 -13475.5
-0.531979 -3.80769e-06 0 -13413
-0.525613 -3.80769e-06 0 -13350.3
-0.51923 -3.80769e-06 0 -13292.6
-0.512832 -3.80769e-06 0 -13240.1
-0.50642 -3.80769e-06 0 -13187.4
-0.499995 -3.80769e-06 0 -13129.4
-0.493562 -3.80769e-06 0 -13070.5
-0.487123 -3.80769e-06 0 -13017.1
-0.480677 -3.80769e-06 0 -12963.5
-0.47423 -3.80769e-06 0 -12925.5
-0.467782 -3.80769e-06 0 -12887.9
-0.461335 -3.80769e-06 0 -12844.7
-0.454892 -3.80769e-06 0 -12794.9
-0.448455 -3.80769e-06 0 -12740.8
-0.442026 -3.80769e-06 0 -12690.6
-0.435607 -3.80769e-06 0 -12652.1
-0.429202 -3.80769e-06 0 -12618.5
-0.42281 -3.80769e-06 0 -12590.1
-0.416434 -3.80769e-06 0 -12561.8
-0.410078 -3.80769e-06 0 -12527
-0.403743 -3.80769e-06 0 -12476.8
-0.39743 -3.80769e-06 0 -12432
-0.391141 -3.80769e-06 0 -12380.6
-0.38488 -3.80769e-06 0 -12346.2
-0.378648 -3.80769e-06 0 -12311.5
-0.372446 -3.80769e-06 0 -12303.7
-0.366277 -3.80769e-06 0 -12285.2
-0.360142 -3.80769e-06 0 -12265.7
-0.354042 -3.80769e-06 0 -12236.2
-0.347981 -3.80769e-06 0 -12201
-0.341959 -3.80769e-06 0 -12155.2
-0.335978 -3.80769e-06 0 -12108.7
-0.33004 -3.80769e-06 0 -12067.6
-0.324146 -3.80769e-06 0 -12032.8
-0.318298 -3.80769e-06 0 -12002.5
-0.312497 -3.80769e-06 0 -11994
-0.306744 -3.80769e-06 0 -11990.8
-0.301041 -3.80769e-06 0 -11982.2
-0.29539 -3.80769e-06 0 -11978.7
-0.28979 -3.80769e-06 0 -11965.4
-0.284243 -3.80769e-06 0 -11951
-0.278752 -3.80769e-06 0 -11926.3
-0.273316 -3.80769e-06 0 -11890.9
-0.267937 -3.80769e-06 0 -11850.1
-0.262614 -3.80769e-06 0 -11808.9
-0.25735 -3.80769e-06 0 -11774.2
-0.252146 -3.80769e-06 0 -11738.5
-0.247001 -3.80769e-06 0 -11708.6
-0.241916 -3.80769e-06 0 -11689.4
-0.236893 -3.80769e-06 0 -11681.1
-0.231931 -3.80769e-06 0 -11672.5
-0.227031 -3.80769e-06 0 -11675.9
-0.222195 -3.80769e-06 0 -11672.7
-0.217421 -3.80769e-06 0 -11675.3
-0.212711 -3.80769e-06 0 -11672.3
-0.208064 -3.80769e-06 0 -11665.1
-0.203482 -3.80769e-06 0 -11656.3
-0.198964 -3.80769e-06 0 -11643.5
-0.19451 -3.80769e-06 0 -11625.2
-0.19012 -3.80769e-06 0 -11601.6
-0.185796 -3.80769e-06 0 -11578.4
-0.181535 -3.80769e-06 0 -11554.4
-0.17734 -3.80769e-06 0 -11530.5
-0.173208 -3.80769e-06 0 -11502.6
-0.169141 -3.80769e-06 0 -11472.9
-0.165138 -3.80769e-06 0 -11450.7
-0.161199 -3.80769e-06 0 -11427.2
-0.157325 -3.80769e-06 0 -11409.5
-0.153513 -3.80769e-06 0 -11391.9
-0.149765 -3.80769e-06 0 -11384.6
-0.14608 -3.80769e-06 0 -11367.7
-0.142457 -3.80769e-06 0 -11366.9
-0.138897 -3.80769e-06 0 -11364.5
-0.135398 -3.80769e-06 0 -11369.9
-0.131961 -3.80769e-06 0 -11368.4
-0.128584 -3.80769e-06 0 -11372.4
-0.125268 -3.80769e-06 0 -11377.4
-0.122011 -3.80769e-06 0 -11377.3
-0.118815 -3.80769e-06 0 -11380.8
-0.115677 -3.80769e-06 0 -11386.1
-0.112597 -3.80769e-06 0 -11385.5
-0.109574 -3.80769e-06 0 -11380.3
-0.106609 -3.80769e-06 0 -11379.4
-0.1037 -3.80769e-06 0 -11379.1
-0.100846 -3.80769e-06 0 -11373.2
-0.098048 -3.80769e-06 0 -11368
-0.0953042 -3.80769e-06 0 -11362.5
-0.0926143 -3.80769e-06 0 -11351.8
-0.0899773 -3.80769e-06 0 -11346.5
-0.0873927 -3.80769e-06 0 -11335.8
-0.0848599 -3.80769e-06 0 -11325.6
-0.082378 -3.80769e-06 0 -11315
-0.0799465 -3.80769e-06 0 -11304.7
-0.0775645 -3.80769e-06 0 -11289.2
-0.0752312 -3.80769e-06 0 -11278.8
-0.0729462 -3.80769e-06 0 -11268.7
-0.0707085 -3.80769e-06 0 -11253.2
-0.0685175 -3.80769e-06 0 -11243.3
-0.0663725 -3.80769e-06 0 -11233.1
-0.0642727 -3.80769e-06 0 -11218
-0.0622173 -3.80769e-06 0 -11208.2
-0.0602058 -3.80769e-06 0 -11198.2
-0.0582373 -3.80769e-06 0 -11188.5
-0.0563111 -3.80769e-06 0 -11178.8
-0.0544265 -3.80769e-06 0 -11163.9
-0.0525827 -3.80769e-06 0 -11154.3
-0.0507792 -3.80769e-06 0 -11144.8
-0.0490152 -3.80769e-06 0 -11135.3
-0.0472898 -3.80769e-06 0 -11131.4
-0.0456025 -3.80769e-06 0 -11122
-0.0439526 -3.80769e-06 0 -11112.7
-0.0423394 -3.80769e-06 0 -11108.8
-0.0407622 -3.80769e-06 0 -11099.8
-0.0392203 -3.80769e-06 0 -11090.7
-0.0377131 -3.80769e-06 0 -11087.1
-0.0362398 -3.80769e-06 0 -11083.6
-0.0347999 -3.80769e-06 0 -11074.8
-0.0333926 -3.80769e-06 0 -11071.4
-0.0320175 -3.80769e-06 0 -11068.2
-0.0306737 -3.80769e-06 0 -11059.7
-0.0293607 -3.80769e-06 0 -11056.8
-0.0280779 -3.80769e-06 0 -11053.7
-0.0268246 -3.80769e-06 0 -11088.8
-0.0256004 -3.80769e-06 0 -11214.8
-0.0244045 -3.80769e-06 0 -11298.5
-0.0232363 -3.80769e-06 0 -10496.2
-0.0220954 -3.80769e-06 0 -9171.97
-0.0209812 -3.80769e-06 0 -8626.92
-0.019893 -3.80769e-06 0 -9054.81
-0.0188303 -3.80769e-06 0 -10080.5
-0.0177927 -3.80769e-06 0 -11005.3
-0.0167794 -3.80769e-06 0 -11786.2
-0.0157901 -3.80769e-06 0 -12427.9
-0.0148243 -3.80769e-06 0 -12947.7
-0.0138814 -3.80769e-06 0 -13393.9
-0.0129608 -3.80769e-06 0 -13782.9
-0.0120623 -3.80769e-06 0 -14124.9
-0.0111851 -3.80769e-06 0 -14434.1
-0.0103289 -3.80769e-06 0 -14703.2
-0.00949328 -3.80769e-06 0 -14922.7
-0.00867767 -3.80769e-06 0 -15093.2
-0.00788168 -3.80769e-06 0 -15224.3
-0.00710485 -3.80769e-06 0 -15278.2
-0.00634675 -3.80769e-06 0 -15342.9
-0.00560698 -3.80769e-06 0 -15492.5
-0.0048851 -3.80769e-06 0 -15782.9
-0.00418071 -3.80769e-06 0 -16239.3
-0.00349342 -3.80769e-06 0 -17083.8
-0.00282284 -3.80769e-06 0 -18181.8
-0.00216857 -3.80769e-06 0 -19536.4
-0.00153026 -3.80769e-06 0 -20716.6
-0.00090752 -3.80769e-06 0 -20550.8
-0.0003 -3.80769e-06 0 -18134.8
0.000259937 0.000146262 2.25537e-21 -15506.5
0.000779437 0.000446185 0 -18851
0.00129893 0.000746101 0 -22271.3
0.00181858 0.00104611 2.2554e-21 -24831.9
0.00233835 0.00134618 -2.25541e-21 -26876.6
0.00285828 0.00164636 2.25542e-21 -28721.2
0.00337841 0.00194664 0 -30418.3
0.00389877 0.00224706 0 -32148.4
0.00441941 0.00254764 -2.25544e-21 -33947.6
0.00494034 0.00284839 2.25545e-21 -35797.2
0.00546162 0.00314934 -2.25546e-21 -37756.1
0.00598328 0.0034505 2.25547e-21 -39794.4
0.00650535 0.00375191 2.25547e-21 -41926
0.00702786 0.00405357 2.25548e-21 -44111.5
0.00755087 0.00435552 0 -46361.7
0.00807439 0.00465776 -2.25549e-21 -48686.2
0.00859847 0.00496033 2.2555e-21 -51154.6
0.00912315 0.00526324 0 -53818
0.00964845 0.00556651 2.25551e-21 -56714.7
0.0101744 0.00587017 0 -59837.7
0.0107011 0.00617424 0 -63181.8
0.0112285 0.00647873 -2.25552e-21 -66708.2
0.0117567 0.00678367 0 -70392.6
0.0122857 0.00708907 0 -74210.5
0.0128156 0.00739497 0 -78152
0.0133463 0.00770137 -2.25554e-21 -82178.5
0.0138779 0.00800831 0 -86262.1
0.0144106 0.0083158 0 -90381.5
0.0149442 0.00862387 0 -94511.3
0.0154788 0.00893253 0 -98651.7
0.0160145 0.00924181 0 -102823
0.0165513 0.00955172 2.25556e-21 -107081
0.0170893 0.00986231 -2.25556e-21 -111454
0.0176284 0.0101736 0 -116005
0.0181687 0.0104855 0 -120731
0.0187103 0.0107982 2.25556e-21 -125660
0.0192532 0.0111117 2.25557e-21 -130799
0.0197975 0.0114259 2.25557e-21 -136053
0.0203431 0.0117408 0 -141431
0.0208901 0.0120566 4.51114e-21 -146999
0.0214385 0.0123732 -4.51114e-21 -152667
0.0219884 0.0126907 0 -158429
0.0225398 0.0130091 4.51114e-21 -164100
0.0230928 0.0133283 0 -169865
0.0236474 0.0136485 0 -175934
0.0242037 0.0139697 0 -182836
0.0247616 0.0142918 -4.51113e-21 -190574
0.0253212 0.0146148 -4.51113e-21 -199037
0.0258825 0.0149389 -4.51114e-21 -207154
0.0264456 0.015264 0 -214944
0.0270106 0.0155902 0 -221401
0.0275774 0.0159174 -4.51112e-21 -226300
0.0281462 0.0162457 0 -229798
0.0287168 0.0165752 4.51111e-21 -232248
0.0292895 0.0169059 -4.51111e-21 -234073
0.0298642 0.0172376 0 -235290
0.0304409 0.0175706 0 -236096
0.0310198 0.0179048 4.5111e-21 -236932
0.0316007 0.0182402 4.5111e-21 -237779
0.0321839 0.0185768 -4.51107e-21 -238341
0.0327693 0.0189148 0 -238964
0.0333569 0.0192541 0 -239313
0.0339469 0.0195947 4.51106e-21 -239627
0.0345392 0.0199366 0 -238974
0.0351339 0.02028 0 -238760
0.035731 0.0206247 4.51105e-21 -237806
0.0363305 0.0209708 -4.51103e-21 -236686
0.0369326 0.0213184 4.51102e-21 -235250
0.0375373 0.0216675 0 -233495
0.0381445 0.0220181 0 -231553
0.0387543 0.0223702 0 -230540
0.0393668 0.0227238 4.51099e-21 -228939
0.0399821 0.023079 -4.51097e-21 -228024
0.0406001 0.0234358 4.51097e-21 -226424
0.041221 0.0237942 0 -224538
0.0418446 0.0241542 0 -222139
0.0424712 0.024516 4.51092e-21 -219056
0.0431006 0.0248794 -4.51094e-21 -216769
0.0437331 0.0252445 0 -214690
0.0443686 0.0256114 4.51089e-21 -212128
0.0450071 0.02598 4.51089e-21 -210525
0.0456487 0.0263505 0 -208497
0.0462935 0.0267227 0 -207271
0.0469415 0.0270968 -4.51085e-21 -204701
0.0475927 0.0274728 0 -203146
0.0482473 0.0278507 -4.51081e-21 -201248
0.0489051 0.0282305 4.51081e-21 -199204
0.0495663 0.0286122 -4.51079e-21 -197890
0.050231 0.0289959 0 -196677
0.0508991 0.0293816 -4.51077e-21 -195031
0.0515707 0.0297694 4.51073e-21 -193645
0.0522459 0.0301592 -4.51073e-21 -192383
0.0529247 0.0305511 0 -190295
0.0536071 0.0309451 0 -189214
0.0542933 0.0313412 -4.51067e-21 -187318
0.0549832 0.0317395 0 -186015
0.0556769 0.03214 0 -184755
0.0563744 0.0325427 0 -183695
0.0570758 0.0329477 -4.5106e-21 -182759
0.0577812 0.0333549 0 -182012
0.0584905 0.0337645 0 -180727
0.0592039 0.0341763 -4.51056e-21 -179824
0.0599214 0.0345905 4.51053e-21 -177986
0.060643 0.0350071 0 -176889
0.0613688 0.0354262 4.51049e-21 -175581
0.0620989 0.0358477 -4.51048e-21 -174760
0.0628332 0.0362716 4.51046e-21 -173923
0.0635719 0.0366981 0 -173197
0.0643149 0.037127 4.51041e-21 -172884
0.0650624 0.0375586 0 -171926
0.0658144 0.0379927 0 -171498
0.0665709 0.0384295 4.51035e-21 -170505
0.0673321 0.0388689 -4.51035e-21 -169724
0.0680979 0.039311 0 -169110
0.0688683 0.0397558 -4.51029e-21 -167760
0.0696435 0.0402034 4.51029e-21 -167135
0.0704236 0.0406537 0 -166225
0.0712085 0.0411069 0 -165880
0.0719983 0.0415628 0 -164883
0.0727931 0.0420217 0 -164484
0.0735929 0.0424834 0 -164064
0.0743978 0.0429481 0 -163361
0.0752078 0.0434158 0 -163001
0.076023 0.0438864 4.5101e-21 -162106
0.0768435 0.0443601 -4.51009e-21 -161742
0.0776693 0.0448369 -4.51004e-21 -160942
0.0785004 0.0453167 4.51003e-21 -160130
0.079337 0.0457997 0 -159696
0.080179 0.0462858 0 -158743
0.0810266 0.0467751 0 -157980
0.0818797 0.0472677 0 -157689
0.0827385 0.0477635 0 -156737
0.083603 0.0482626 0 -156503
0.0844733 0.0487651 4.50985e-21 -155960
0.0853495 0.0492709 -4.50983e-21 -155403
0.0862316 0.0497801 0 -155098
0.0871195 0.0502927 -4.50978e-21 -154242
0.0880135 0.0508089 0 -153905
0.0889136 0.0513285 0 -153547
0.0898198 0.0518517 0 -152714
0.0907322 0.0523785 0 -152374
0.0916509 0.0529089 0 -151679
0.0925758 0.0534429 4.50963e-21 -151354
0.0935072 0.0539806 4.50959e-21 -150920
0.094445 0.054522 0 -150677
0.0953894 0.0550672 4.50953e-21 -150263
0.0963404 0.0556162 0 -149903
0.0972979 0.0561691 0 -149341
0.0982622 0.0567258 0 -149168
0.0992333 0.0572865 0 -148817
0.100211 0.057851 0 -148321
0.101196 0.0584196 0 -147368
0.102188 0.0589922 4.50935e-21 -147525
0.103187 0.0595689 4.50932e-21 -147147
0.104193 0.0601497 -4.50928e-21 -146032
0.105206 0.0607347 0 -146128
0.106226 0.0613239 0 -145350
0.107254 0.0619172 0 -145141
0.10829 0.0625149 4.50918e-21 -144446
0.109332 0.0631169 4.50915e-21 -144145
0.110382 0.0637232 -4.50911e-21 -143992
0.11144 0.064334 -4.50908e-21 -143502
0.112506 0.0649492 4.50905e-21 -143458
0.11358 0.0655688 4.50902e-21 -142333
0.114661 0.066193 0 -142244
0.11575 0.0668218 0 -141920
0.116847 0.0674552 0 -141509
0.117952 0.0680932 0 -141375
0.119065 0.068736 0 -141313
0.120187 0.0693834 4.50884e-21 -140430
0.121316 0.0700357 0 -140508
0.122455 0.0706928 0 -140555
0.123601 0.0713548 -4.50875e-21 -139314
0.124756 0.0720217 0 -140030
0.12592 0.0726935 -4.5087e-21 -139312
0.127093 0.0733704 0 -139160
0.128274 0.0740524 0 -138396
0.129464 0.0747395 4.50859e-21 -138459
0.130663 0.0754317 0 -138022
0.131871 0.0761292 4.50853e-21 -137215
0.133088 0.0768319 4.50851e-21 -137560
0.134315 0.0775399 0 -136989
0.13555 0.0782532 4.50845e-21 -136323
0.136795 0.078972 0 -136564
0.13805 0.0796962 0 -135634
0.139314 0.080426 -4.50834e-21 -135955
0.140587 0.0811613 -4.50831e-21 -135132
0.14187 0.0819021 4.50827e-21 -134813
0.143163 0.0826487 0 -134534
0.144466 0.0834009 0 -134484
0.145779 0.0841589 0 -134479
0.147102 0.0849227 4.50815e-21 -133507
0.148435 0.0856924 4.50811e-21 -133699
0.149779 0.0864679 0 -133376
0.151133 0.0872495 4.50805e-21 -132843
0.152497 0.0880371 4.50801e-21 -132596
0.153871 0.0888307 4.50798e-21 -132998
0.155257 0.0896305 0 -132256
0.156653 0.0904364 4.50791e-21 -131834
0.15806 0.0912487 4.50787e-21 -132179
0.159478 0.0920672 0 -131039
0.160907 0.092892 0 -130799
0.162347 0.0937233 0 -130967
0.163798 0.0945611 4.50774e-21 -129740
0.16526 0.0954054 0 -130153
0.166734 0.0962563 0 -130001
0.168219 0.0971138 0 -129288
0.169716 0.097978 4.50761e-21 -129517
0.171225 0.098849 4.50758e-21 -129015
0.172745 0.0997268 4.50754e-21 -129173
0.174278 0.100611 0 -128069
0.175822 0.101503 0 -128341
0.177379 0.102402 0 -127274
0.178947 0.103308 4.50741e-21 -128013
0.180529 0.10422 4.50737e-21 -127614
0.182122 0.10514 4.50734e-21 -126834
0.183728 0.106068 0 -127538
0.185347 0.107002 -4.50727e-21 -127068
0.186979 0.107944 0 -126120
0.188623 0.108894 0 -126589
0.190281 0.109851 4.50716e-21 -125807
0.191952 0.110815 0 -126024
0.193636 0.111787 -4.5071e-21 -124946
0.195333 0.112767 -4.50707e-21 -125238
0.197044 0.113755 -4.50702e-21 -124762
0.198768 0.114751 -4.507e-21 -124587
0.200506 0.115754 -4.50696e-21 -124202
0.202258 0.116766 0 -124432
0.204024 0.117785 4.50688e-21 -123586
0.205805 0.118813 4.50686e-21 -124081
0.207599 0.119849 0 -123421
0.209408 0.120893 -4.50679e-21 -123184
0.211231 0.121946 -4.50676e-21 -122712
0.213068 0.123007 0 -123355
0.214921 0.124076 0 -122484
0.216788 0.125154 0 -121448
0.21867 0.126241 0 -122352
0.220567 0.127336 0 -121549
0.22248 0.12844 0 -120706
0.224408 0.129553 0 -121695
0.226351 0.130675 0 -120743
0.22831 0.131806 0 -120903
0.230284 0.132946 9.01282e-21 -120510
0.232275 0.134095 0 -120662
0.234282 0.135254 9.01268e-21 -119736
0.236304 0.136421 0 -120169
0.238344 0.137598 9.01253e-21 -119607
0.2404 0.138785 0 -118913
0.242472 0.139982 0 -118300
