# p  FACE_DATA 398
# x  y  z  p
-0.7975 0 0.025 4473.41
-0.79239 0 0.025 3643.95
-0.787056 0 0.025 3003.97
-0.781492 0 0.025 2843.14
-0.775691 0 0.025 2728.72
-0.769649 0 0.025 2698.39
-0.763362 0 0.025 2708.25
-0.756822 0 0.025 2733.34
-0.750025 0 0.025 2759.22
-0.742968 0 0.025 2772.44
-0.735648 0 0.025 2778.87
-0.72806 0 0.025 2779.41
-0.720203 0 0.025 2778.51
-0.712076 0 0.025 2777.83
-0.703677 0 0.025 2777.47
-0.695006 0 0.025 2775.67
-0.686065 0 0.025 2774.59
-0.676855 0 0.025 2772.18
-0.667379 0 0.025 2769.89
-0.65764 0 0.025 2768.96
-0.647644 0 0.025 2769.66
-0.637397 0 0.025 2765.73
-0.626906 0 0.025 2762.47
-0.616179 0 0.025 2763.42
-0.605224 0 0.025 2760.81
-0.594054 0 0.025 2759.83
-0.582678 0 0.025 2756.46
-0.57111 0 0.025 2755.01
-0.559364 0 0.025 2753.44
-0.547454 0 0.025 2753.75
-0.535396 0 0.025 2750.93
-0.523205 0 0.025 2748.9
-0.510901 0 0.025 2747.06
-0.4985 0 0.025 2745.14
-0.486021 0 0.025 2745.35
-0.473483 0 0.025 2744.81
-0.460905 0 0.025 2742.52
-0.448308 0 0.025 2740.88
-0.435709 0 0.025 2738.94
-0.42313 0 0.025 2736.76
-0.41059 0 0.025 2736.53
-0.39811 0 0.025 2737.29
-0.385706 0 0.025 2736.47
-0.373398 0 0.025 2734.73
-0.361205 0 0.025 2733.33
-0.349141 0 0.025 2731.99
-0.337226 0 0.025 2730.44
-0.325475 0 0.025 2729.09
-0.313901 0 0.025 2728.84
-0.30252 0 0.025 2728.92
-0.291343 0 0.025 2729.29
-0.280382 0 0.025 2729.03
-0.269646 0 0.025 2728.26
-0.259148 0 0.025 2726.84
-0.248893 0 0.025 2725.7
-0.23889 0 0.025 2724.58
-0.229143 0 0.025 2723.75
-0.219659 0 0.025 2722.86
-0.210441 0 0.025 2722.33
-0.201491 0 0.025 2721.77
-0.192812 0 0.025 2721.37
-0.184405 0 0.025 2720.65
-0.176269 0 0.025 2720.21
-0.168404 0 0.025 2719.8
-0.160808 0 0.025 2719.74
-0.15348 0 0.025 2719.63
-0.146415 0 0.025 2719.57
-0.13961 0 0.025 2719.26
-0.133063 0 0.025 2718.91
-0.126767 0 0.025 2718.33
-0.120718 0 0.025 2717.73
-0.11491 0 0.025 2717.01
-0.109339 0 0.025 2716.36
-0.103997 0 0.025 2715.7
-0.0988805 0 0.025 2715.11
-0.0939808 0 0.025 2714.57
-0.0892928 0 0.025 2714.19
-0.0848096 0 0.025 2713.97
-0.0805248 0 0.025 2713.93
-0.0764316 0 0.025 2714.02
-0.0725237 0 0.025 2714.2
-0.0687943 0 0.025 2714.46
-0.065237 0 0.025 2714.75
-0.0618454 0 0.025 2715.07
-0.058613 0 0.025 2715.39
-0.0555337 0 0.025 2715.74
-0.0526013 0 0.025 2716.05
-0.0498099 0 0.025 2716.35
-0.0471536 0 0.025 2716.6
-0.0446266 0 0.025 2716.83
-0.0422235 0 0.025 2717.01
-0.039939 0 0.025 2717.13
-0.0377676 0 0.025 2717.4
-0.0357044 0 0.025 2718.3
-0.0337445 0 0.025 2811.17
-0.0318832 0 0.025 3979.38
-0.0301159 0 0.025 5870.73
-0.0284383 0 0.025 7175.31
-0.0268461 0 0.025 7935.28
-0.0253353 0 0.025 8421.62
-0.023902 0 0.025 8786.5
-0.0225426 0 0.025 9102.37
-0.0212532 0 0.025 9378.3
-0.0200306 0 0.025 9612.32
-0.0188715 0 0.025 9820.04
-0.0177728 0 0.025 10007.7
-0.0167313 0 0.025 10181.6
-0.0157444 0 0.025 10345.1
-0.0148092 0 0.025 10499.5
-0.0139232 0 0.025 10644.8
-0.0130838 0 0.025 10780.5
-0.0122887 0 0.025 10906.6
-0.0115356 0 0.025 11022.6
-0.0108223 0 0.025 11127.8
-0.0101469 0 0.025 11222.3
-0.00950727 0 0.025 11305.9
-0.00890168 0 0.025 11379.3
-0.00832835 0 0.025 11443.1
-0.00778557 0 0.025 11498.5
-0.00727176 0 0.025 11546.6
-0.0067854 0 0.025 11589.1
-0.00632507 0 0.025 11627.5
-0.00588937 0 0.025 11663.8
-0.00547703 0 0.025 11699.6
-0.0050868 0 0.025 11736.5
-0.00471753 0 0.025 11776.2
-0.0043681 0 0.025 11821
-0.00403746 0 0.025 11871.6
-0.00372461 0 0.025 11929.5
-0.0034286 0 0.025 11996.1
-0.00314855 0 0.025 12074.5
-0.0028836 0 0.025 12162.4
-0.00263294 0 0.025 12257.4
-0.00239581 0 0.025 12363
-0.0021715 0 0.025 12478.4
-0.00195929 0 0.025 12603
-0.00175856 0 0.025 12736.1
-0.00156869 0 0.025 12876.5
-0.00138908 0 0.025 13022.7
-0.0012192 0 0.025 13172.8
-0.00105853 0 0.025 13324.4
-0.000906546 0 0.025 13473.8
-0.000762803 0 0.025 13615.1
-0.000626848 0 0.025 13739.6
-0.000498265 0 0.025 13834.1
-0.000376656 0 0.025 13887.2
-0.000261642 0 0.025 13887.6
-0.00015287 0 0.025 13875.4
-5e-05 0 0.025 13885.7
4.14519e-05 2.79596e-05 0.025 13594.3
0.000125371 8.45641e-05 0.025 13621
0.000211347 0.000142556 0.025 13590.1
0.000299429 0.000201968 0.025 13530.9
0.000389669 0.000262835 0.025 13453.6
0.000482118 0.000325193 0.025 13369.3
0.000576831 0.000389077 0.025 13281.3
0.000673861 0.000454524 0.025 13192.2
0.000773265 0.000521574 0.025 13105.3
0.0008751 0.000590262 0.025 13024.2
0.000979426 0.000660632 0.025 12952.1
0.0010863 0.000732721 0.025 12891.3
0.00119579 0.000806572 0.025 12843.2
0.00130795 0.000882227 0.025 12810.7
0.00142285 0.00095973 0.025 12788.7
0.00154056 0.00103912 0.025 12785.2
0.00166115 0.00112046 0.025 12796.8
0.00178467 0.00120378 0.025 12820.8
0.00191121 0.00128913 0.025 12856.9
0.00204083 0.00137656 0.025 12905.7
0.00217362 0.00146612 0.025 12965.5
0.00230964 0.00155787 0.025 13035.9
0.00244897 0.00165185 0.025 13117.4
0.00259169 0.00174812 0.025 13209.6
0.00273789 0.00184673 0.025 13311.4
0.00288765 0.00194774 0.025 13423.2
0.00304105 0.00205122 0.025 13544.7
0.00319818 0.00215719 0.025 13676.3
0.00335912 0.00226575 0.025 13817.8
0.00352397 0.00237695 0.025 13969
0.00369283 0.00249085 0.025 14130.9
0.00386579 0.00260751 0.025 14303.1
0.00404294 0.00272699 0.025 14486
0.00422438 0.00284938 0.025 14680.3
0.00441022 0.00297474 0.025 14886.2
0.00460056 0.00310312 0.025 15104.4
0.00479552 0.00323462 0.025 15335.7
0.00499519 0.0033693 0.025 15580.4
0.00519968 0.00350723 0.025 15839.9
0.00540911 0.00364849 0.025 16114.3
0.00562361 0.00379318 0.025 16405.2
0.00584329 0.00394134 0.025 16713.8
0.00606826 0.00409309 0.025 17040.7
0.00629865 0.00424849 0.025 17387.4
0.0065346 0.00440764 0.025 17755.8
0.00677623 0.00457063 0.025 18147.1
0.00702368 0.00473753 0.025 18563.4
0.00727707 0.00490844 0.025 19006.2
0.00753655 0.00508347 0.025 19478
0.00780227 0.00526269 0.025 19980.9
0.00807436 0.00544622 0.025 20517.1
0.00835298 0.00563415 0.025 21090
0.00863826 0.00582659 0.025 21701.6
0.00893038 0.00602362 0.025 22355.8
0.00922949 0.00622537 0.025 23055.4
0.00953574 0.00643195 0.025 23804.9
0.00984929 0.00664345 0.025 24607.7
0.0101703 0.00686 0.025 25470.8
0.0104991 0.00708171 0.025 26397.3
0.0108356 0.00730871 0.025 27394.7
0.0111801 0.0075411 0.025 28470.7
0.0115329 0.00777902 0.025 29632.4
0.011894 0.00802259 0.025 30889.6
0.0122637 0.00827194 0.025 32253.2
0.0126421 0.00852719 0.025 33731.9
0.0130295 0.0087885 0.025 35341.3
0.013426 0.00905597 0.025 37091.1
0.013832 0.00932978 0.025 39002.2
0.0142475 0.00961003 0.025 41080.5
0.0146727 0.0098969 0.025 43351.6
0.0151081 0.0101905 0.025 45826.1
0.0155536 0.010491 0.025 48520.8
0.0160097 0.0107986 0.025 51446.9
0.0164764 0.0111134 0.025 54609.5
0.016954 0.0114356 0.025 58030.1
0.0174427 0.0117653 0.025 61705.8
0.0179429 0.0121026 0.025 65652.4
0.0184548 0.0124479 0.025 69900.9
0.0189786 0.0128013 0.025 74502.8
0.0195146 0.0131628 0.025 79508
0.020063 0.0135327 0.025 84957.2
0.0206242 0.0139112 0.025 90929.6
0.0211983 0.0142984 0.025 97505.6
0.0217857 0.0146947 0.025 104810
0.0223867 0.0151 0.025 112913
0.0230015 0.0155147 0.025 121726
0.0236304 0.0159389 0.025 131281
0.0242738 0.0163729 0.025 141526
0.0249318 0.0168167 0.025 152433
0.025605 0.0172708 0.025 163834
0.0262935 0.0177352 0.025 174929
0.0269977 0.0182102 0.025 184440
0.0277178 0.0186959 0.025 189814
0.0284544 0.0191927 0.025 191362
0.0292075 0.0197008 0.025 185399
0.0299777 0.0202203 0.025 179187
0.0307653 0.0207514 0.025 172195
0.0315704 0.0212945 0.025 165194
0.0323937 0.0218499 0.025 158656
0.0332354 0.0224176 0.025 152727
0.0340959 0.022998 0.025 147443
0.0349755 0.0235913 0.025 142620
0.0358747 0.0241978 0.025 138197
0.0367938 0.0248178 0.025 134150
0.0377331 0.0254513 0.025 130831
0.0386932 0.0260989 0.025 128372
0.0396743 0.0267606 0.025 126583
0.0406769 0.0274369 0.025 125199
0.0417013 0.0281279 0.025 124257
0.042748 0.0288339 0.025 123838
0.0438175 0.0295552 0.025 123616
0.04491 0.0302922 0.025 123428
0.0460262 0.031045 0.025 123253
0.0471662 0.031814 0.025 123031
0.0483306 0.0325995 0.025 122712
0.0495199 0.0334016 0.025 122549
0.0507344 0.0342208 0.025 122890
0.0519746 0.0350573 0.025 123373
0.0532409 0.0359114 0.025 123676
0.0545339 0.0367835 0.025 123829
0.0558538 0.0376739 0.025 123934
0.0572012 0.0385827 0.025 124552
0.0585766 0.0395104 0.025 125613
0.0599804 0.0404573 0.025 126230
0.061413 0.0414236 0.025 126236
0.0628748 0.0424096 0.025 125768
0.0643665 0.0434157 0.025 125409
0.0658883 0.0444422 0.025 125813
0.0674408 0.0454894 0.025 126566
0.0690245 0.0465576 0.025 126736
0.0706398 0.0476471 0.025 126671
0.0722871 0.0487582 0.025 126323
0.0739669 0.0498912 0.025 126040
0.0756797 0.0510466 0.025 126455
0.0774258 0.0522244 0.025 127246
0.0792059 0.053425 0.025 127963
0.0810203 0.0546489 0.025 128063
0.0828694 0.0558961 0.025 127913
0.0847537 0.0571671 0.025 127708
0.0866737 0.0584622 0.025 127546
0.0886298 0.0597816 0.025 127757
0.0906224 0.0611256 0.025 128127
0.0926518 0.0624944 0.025 128526
0.0947185 0.0638884 0.025 128832
0.096823 0.065308 0.025 128912
0.0989659 0.0667532 0.025 128636
0.101147 0.0682245 0.025 128091
0.103367 0.0697219 0.025 127472
0.105626 0.0712458 0.025 127062
0.107926 0.0727965 0.025 126768
0.110265 0.074374 0.025 127119
0.112644 0.0759789 0.025 127561
0.115063 0.0776111 0.025 128315
0.117524 0.0792709 0.025 128574
0.120026 0.0809585 0.025 128768
0.122569 0.0826741 0.025 128904
0.125155 0.0844179 0.025 128788
0.127782 0.0861901 0.025 128450
0.130451 0.0879908 0.025 127686
0.133163 0.08982 0.025 127142
0.135918 0.0916781 0.025 126848
0.138716 0.0935651 0.025 127350
0.141556 0.095481 0.025 128114
0.14444 0.097426 0.025 128586
0.147367 0.0994004 0.025 128456
0.150337 0.101404 0.025 128455
0.153351 0.103437 0.025 127709
0.156408 0.105498 0.025 126371
0.159508 0.107589 0.025 126513
0.162651 0.10971 0.025 126012
0.165838 0.111859 0.025 125113
0.169069 0.114039 0.025 125994
0.172343 0.116247 0.025 125003
0.175659 0.118483 0.025 124423
0.179018 0.120749 0.025 123620
0.182421 0.123045 0.025 122748
0.185866 0.125368 0.025 122600
0.189353 0.12772 0.025 122766
0.192882 0.1301 0.025 123012
0.196453 0.132509 0.025 122960
0.200065 0.134946 0.025 122284
0.203718 0.13741 0.025 121678
0.207412 0.139901 0.025 121135
0.211146 0.14242 0.025 120003
0.214919 0.144965 0.025 119211
0.218732 0.147537 0.025 119726
0.222583 0.150134 0.025 119841
0.226472 0.152757 0.025 120983
0.230399 0.155406 0.025 121331
0.234362 0.15808 0.025 121753
0.238362 0.160777 0.025 121707
0.242396 0.163498 0.025 121976
0.246466 0.166244 0.025 121924
0.250569 0.169012 0.025 122542
0.254706 0.171801 0.025 121786
0.258874 0.174613 0.025 121423
0.263074 0.177446 0.025 120740
0.267304 0.180299 0.025 120910
0.271564 0.183172 0.025 120967
0.275852 0.186064 0.025 120695
0.280168 0.188975 0.025 120964
0.28451 0.191904 0.025 120745
0.288876 0.19485 0.025 120325
0.293268 0.197812 0.025 120600
0.297683 0.20079 0.025 119796
0.302119 0.203782 0.025 119491
0.306577 0.206788 0.025 119603
0.311054 0.209808 0.025 119419
0.315549 0.212841 0.025 119984
0.320063 0.215885 0.025 119866
0.324591 0.218939 0.025 120804
0.329134 0.222003 0.025 121558
0.333691 0.225077 0.025 121449
0.33826 0.228159 0.025 121954
0.342839 0.231248 0.025 121758
0.347428 0.234343 0.025 122107
0.352025 0.237444 0.025 121193
0.356628 0.240548 0.025 121293
0.361237 0.243658 0.025 121273
0.36585 0.246769 0.025 120468
0.370465 0.249882 0.025 121380
0.375082 0.252996 0.025 120847
0.379698 0.25611 0.025 120747
0.384313 0.259223 0.025 121270
0.388926 0.262333 0.025 120725
0.393534 0.265442 0.025 120952
0.398136 0.268546 0.025 121031
0.40273 0.271645 0.025 120576
0.407317 0.274739 0.025 120550
0.411894 0.277826 0.025 120294
0.41646 0.280906 0.025 121116
0.421014 0.283977 0.025 120759
0.425554 0.28704 0.025 120714
0.430079 0.290092 0.025 121049
0.434588 0.293133 0.025 120992
0.439079 0.296162 0.025 121442
0.443551 0.299179 0.025 121256
0.448004 0.302183 0.025 121151
0.452437 0.305172 0.025 121233
0.456846 0.308146 0.025 121455
0.461232 0.311105 0.025 121397
0.465593 0.314047 0.025 121516
0.469929 0.316971 0.025 121318
0.474238 0.319878 0.025 122051
0.47852 0.322766 0.025 121712
0.482773 0.325635 0.025 121684
0.486996 0.328483 0.025 121412
0.491189 0.331311 0.025 120991
0.49535 0.334118 0.025 121718
