# wallHeatFlux  FACE_DATA 398
# x  y  z  wallHeatFlux
-0.7975 0 0.025 -653640
-0.79239 0 0.025 -120156
-0.787056 0 0.025 -69888.8
-0.781492 0 0.025 -58247.9
-0.775691 0 0.025 -53846.7
-0.769649 0 0.025 -54652.6
-0.763362 0 0.025 -55073.5
-0.756822 0 0.025 -54686
-0.750025 0 0.025 -54291.6
-0.742968 0 0.025 -53609.4
-0.735648 0 0.025 -52734.4
-0.72806 0 0.025 -51778.7
-0.720203 0 0.025 -50807.3
-0.712076 0 0.025 -49975
-0.703677 0 0.025 -49264.2
-0.695006 0 0.025 -48542
-0.686065 0 0.025 -47877.8
-0.676855 0 0.025 -47186.2
-0.667379 0 0.025 -46600.4
-0.65764 0 0.025 -46099.9
-0.647644 0 0.025 -45660.9
-0.637397 0 0.025 -45081.5
-0.626906 0 0.025 -44593.9
-0.616179 0 0.025 -44230.6
-0.605224 0 0.025 -43803.4
-0.594054 0 0.025 -43422.7
-0.582678 0 0.025 -42969.3
-0.57111 0 0.025 -42626.9
-0.559364 0 0.025 -42305.2
-0.547454 0 0.025 -42045.4
-0.535396 0 0.025 -41660.7
-0.523205 0 0.025 -41277.7
-0.510901 0 0.025 -41007.8
-0.4985 0 0.025 -40761.1
-0.486021 0 0.025 -40577.6
-0.473483 0 0.025 -40327.9
-0.460905 0 0.025 -40005.7
-0.448308 0 0.025 -39715.1
-0.435709 0 0.025 -39476.8
-0.42313 0 0.025 -39252
-0.41059 0 0.025 -39096.3
-0.39811 0 0.025 -38971.5
-0.385706 0 0.025 -38769.7
-0.373398 0 0.025 -38535.7
-0.361205 0 0.025 -38295.4
-0.349141 0 0.025 -38091.1
-0.337226 0 0.025 -37924.2
-0.325475 0 0.025 -37783.8
-0.313901 0 0.025 -37680.7
-0.30252 0 0.025 -37577
-0.291343 0 0.025 -37468.9
-0.280382 0 0.025 -37344.6
-0.269646 0 0.025 -37198.2
-0.259148 0 0.025 -37036.1
-0.248893 0 0.025 -36886.2
-0.23889 0 0.025 -36758.2
-0.229143 0 0.025 -36640.5
-0.219659 0 0.025 -36524.2
-0.210441 0 0.025 -36413.1
-0.201491 0 0.025 -36299.3
-0.192812 0 0.025 -36194.4
-0.184405 0 0.025 -36098.6
-0.176269 0 0.025 -36017.3
-0.168404 0 0.025 -35953.5
-0.160808 0 0.025 -35911.2
-0.15348 0 0.025 -35887.4
-0.146415 0 0.025 -35869.7
-0.13961 0 0.025 -35850.8
-0.133063 0 0.025 -35828.2
-0.126767 0 0.025 -35795.6
-0.120718 0 0.025 -35758.2
-0.11491 0 0.025 -35710.6
-0.109339 0 0.025 -35663.6
-0.103997 0 0.025 -35605.2
-0.0988805 0 0.025 -35544.9
-0.0939808 0 0.025 -35482.3
-0.0892928 0 0.025 -35415.6
-0.0848096 0 0.025 -35354.3
-0.0805248 0 0.025 -35298.7
-0.0764316 0 0.025 -35248.7
-0.0725237 0 0.025 -35198.8
-0.0687943 0 0.025 -35160.1
-0.065237 0 0.025 -35121
-0.0618454 0 0.025 -35088
-0.058613 0 0.025 -35059.7
-0.0555337 0 0.025 -35037.6
-0.0526013 0 0.025 -35020.4
-0.0498099 0 0.025 -35003.3
-0.0471536 0 0.025 -34991.7
-0.0446266 0 0.025 -34974.7
-0.0422235 0 0.025 -34963.1
-0.039939 0 0.025 -34951.4
-0.0377676 0 0.025 -34944.9
-0.0357044 0 0.025 -34939.2
-0.0337445 0 0.025 -34605.7
-0.0318832 0 0.025 -37263.3
-0.0301159 0 0.025 -48273.7
-0.0284383 0 0.025 -64031.7
-0.0268461 0 0.025 -70292
-0.0253353 0 0.025 -73041.3
-0.023902 0 0.025 -74579.2
-0.0225426 0 0.025 -76105.8
-0.0212532 0 0.025 -77491
-0.0200306 0 0.025 -78599.9
-0.0188715 0 0.025 -79785.4
-0.0177728 0 0.025 -81148.5
-0.0167313 0 0.025 -82549.7
-0.0157444 0 0.025 -84053.5
-0.0148092 0 0.025 -85588.7
-0.0139232 0 0.025 -87006
-0.0130838 0 0.025 -88256.3
-0.0122887 0 0.025 -89353.4
-0.0115356 0 0.025 -90327.7
-0.0108223 0 0.025 -91208.1
-0.0101469 0 0.025 -92014.1
-0.00950727 0 0.025 -92789.5
-0.00890168 0 0.025 -93571.3
-0.00832835 0 0.025 -94392.3
-0.00778557 0 0.025 -95274.1
-0.00727176 0 0.025 -96244.3
-0.0067854 0 0.025 -97318.1
-0.00632507 0 0.025 -98514.3
-0.00588937 0 0.025 -99858.1
-0.00547703 0 0.025 -101357
-0.0050868 0 0.025 -103043
-0.00471753 0 0.025 -104930
-0.0043681 0 0.025 -107038
-0.00403746 0 0.025 -109365
-0.00372461 0 0.025 -111935
-0.0034286 0 0.025 -114765
-0.00314855 0 0.025 -117821
-0.0028836 0 0.025 -120974
-0.00263294 0 0.025 -124274
-0.00239581 0 0.025 -127840
-0.0021715 0 0.025 -131634
-0.00195929 0 0.025 -135634
-0.00175856 0 0.025 -139858
-0.00156869 0 0.025 -144328
-0.00138908 0 0.025 -149063
-0.0012192 0 0.025 -154034
-0.00105853 0 0.025 -159113
-0.000906546 0 0.025 -164224
-0.000762803 0 0.025 -169006
-0.000626848 0 0.025 -172852
-0.000498265 0 0.025 -174101
-0.000376656 0 0.025 -170110
-0.000261642 0 0.025 -157929
-0.00015287 0 0.025 -133906
-5e-05 0 0.025 -80866
4.14519e-05 2.79596e-05 0.025 -51097.4
0.000125371 8.45641e-05 0.025 -58246.9
0.000211347 0.000142556 0.025 -69027
0.000299429 0.000201968 0.025 -76844.3
0.000389669 0.000262835 0.025 -83107.8
0.000482118 0.000325193 0.025 -89833.9
0.000576831 0.000389077 0.025 -97201.6
0.000673861 0.000454524 0.025 -104564
0.000773265 0.000521574 0.025 -111467
0.0008751 0.000590262 0.025 -117765
0.000979426 0.000660632 0.025 -123410
0.0010863 0.000732721 0.025 -128426
0.00119579 0.000806572 0.025 -132887
0.00130795 0.000882227 0.025 -136893
0.00142285 0.00095973 0.025 -140503
0.00154056 0.00103912 0.025 -143973
0.00166115 0.00112046 0.025 -147205
0.00178467 0.00120378 0.025 -150309
0.00191121 0.00128913 0.025 -153334
0.00204083 0.00137656 0.025 -156289
0.00217362 0.00146612 0.025 -159235
0.00230964 0.00155787 0.025 -162196
0.00244897 0.00165185 0.025 -165208
0.00259169 0.00174812 0.025 -168246
0.00273789 0.00184673 0.025 -171357
0.00288765 0.00194774 0.025 -174582
0.00304105 0.00205122 0.025 -177887
0.00319818 0.00215719 0.025 -181323
0.00335912 0.00226575 0.025 -184936
0.00352397 0.00237695 0.025 -188661
0.00369283 0.00249085 0.025 -192577
0.00386579 0.00260751 0.025 -196653
0.00404294 0.00272699 0.025 -200937
0.00422438 0.00284938 0.025 -205464
0.00441022 0.00297474 0.025 -210222
0.00460056 0.00310312 0.025 -215220
0.00479552 0.00323462 0.025 -220471
0.00499519 0.0033693 0.025 -226100
0.00519968 0.00350723 0.025 -231993
0.00540911 0.00364849 0.025 -238279
0.00562361 0.00379318 0.025 -244916
0.00584329 0.00394134 0.025 -251942
0.00606826 0.00409309 0.025 -259508
0.00629865 0.00424849 0.025 -267484
0.0065346 0.00440764 0.025 -276049
0.00677623 0.00457063 0.025 -285212
0.00702368 0.00473753 0.025 -294962
0.00727707 0.00490844 0.025 -305524
0.00753655 0.00508347 0.025 -316781
0.00780227 0.00526269 0.025 -328899
0.00807436 0.00544622 0.025 -341922
0.00835298 0.00563415 0.025 -355962
0.00863826 0.00582659 0.025 -371196
0.00893038 0.00602362 0.025 -387585
0.00922949 0.00622537 0.025 -405324
0.00953574 0.00643195 0.025 -424292
0.00984929 0.00664345 0.025 -445336
0.0101703 0.00686 0.025 -467643
0.0104991 0.00708171 0.025 -492704
0.0108356 0.00730871 0.025 -519798
0.0111801 0.0075411 0.025 -550538
0.0115329 0.00777902 0.025 -583383
0.011894 0.00802259 0.025 -618856
0.0122637 0.00827194 0.025 -665772
0.0126421 0.00852719 0.025 -713593
0.0130295 0.0087885 0.025 -759584
0.013426 0.00905597 0.025 -809153
0.013832 0.00932978 0.025 -861858
0.0142475 0.00961003 0.025 -915786
0.0146727 0.0098969 0.025 -971133
0.0151081 0.0101905 0.025 -1.02845e+06
0.0155536 0.010491 0.025 -1.08835e+06
0.0160097 0.0107986 0.025 -1.14854e+06
0.0164764 0.0111134 0.025 -1.21056e+06
0.016954 0.0114356 0.025 -1.27741e+06
0.0174427 0.0117653 0.025 -1.34037e+06
0.0179429 0.0121026 0.025 -1.40274e+06
0.0184548 0.0124479 0.025 -1.47117e+06
0.0189786 0.0128013 0.025 -1.52012e+06
0.0195146 0.0131628 0.025 -1.57424e+06
0.020063 0.0135327 0.025 -1.63816e+06
0.0206242 0.0139112 0.025 -1.67974e+06
0.0211983 0.0142984 0.025 -1.71032e+06
0.0217857 0.0146947 0.025 -1.74615e+06
0.0223867 0.0151 0.025 -1.77738e+06
0.0230015 0.0155147 0.025 -1.80414e+06
0.0236304 0.0159389 0.025 -1.83675e+06
0.0242738 0.0163729 0.025 -1.84185e+06
0.0249318 0.0168167 0.025 -1.86142e+06
0.025605 0.0172708 0.025 -1.87674e+06
0.0262935 0.0177352 0.025 -1.85878e+06
0.0269977 0.0182102 0.025 -1.83626e+06
0.0277178 0.0186959 0.025 -1.79593e+06
0.0284544 0.0191927 0.025 -1.80595e+06
0.0292075 0.0197008 0.025 -1.71423e+06
0.0299777 0.0202203 0.025 -1.64888e+06
0.0307653 0.0207514 0.025 -1.59573e+06
0.0315704 0.0212945 0.025 -1.54441e+06
0.0323937 0.0218499 0.025 -1.49642e+06
0.0332354 0.0224176 0.025 -1.45141e+06
0.0340959 0.022998 0.025 -1.41177e+06
0.0349755 0.0235913 0.025 -1.36719e+06
0.0358747 0.0241978 0.025 -1.34645e+06
0.0367938 0.0248178 0.025 -1.29928e+06
0.0377331 0.0254513 0.025 -1.26152e+06
0.0386932 0.0260989 0.025 -1.23199e+06
0.0396743 0.0267606 0.025 -1.2042e+06
0.0406769 0.0274369 0.025 -1.18836e+06
0.0417013 0.0281279 0.025 -1.1653e+06
0.042748 0.0288339 0.025 -1.1634e+06
0.0438175 0.0295552 0.025 -1.14844e+06
0.04491 0.0302922 0.025 -1.13209e+06
0.0460262 0.031045 0.025 -1.13477e+06
0.0471662 0.031814 0.025 -1.13687e+06
0.0483306 0.0325995 0.025 -1.12338e+06
0.0495199 0.0334016 0.025 -1.11792e+06
0.0507344 0.0342208 0.025 -1.11442e+06
0.0519746 0.0350573 0.025 -1.1129e+06
0.0532409 0.0359114 0.025 -1.11522e+06
0.0545339 0.0367835 0.025 -1.1058e+06
0.0558538 0.0376739 0.025 -1.10104e+06
0.0572012 0.0385827 0.025 -1.10176e+06
0.0585766 0.0395104 0.025 -1.10656e+06
0.0599804 0.0404573 0.025 -1.11653e+06
0.061413 0.0414236 0.025 -1.10392e+06
0.0628748 0.0424096 0.025 -1.11442e+06
0.0643665 0.0434157 0.025 -1.1067e+06
0.0658883 0.0444422 0.025 -1.08832e+06
0.0674408 0.0454894 0.025 -1.08385e+06
0.0690245 0.0465576 0.025 -1.08568e+06
0.0706398 0.0476471 0.025 -1.0815e+06
0.0722871 0.0487582 0.025 -1.07498e+06
0.0739669 0.0498912 0.025 -1.06946e+06
0.0756797 0.0510466 0.025 -1.07415e+06
0.0774258 0.0522244 0.025 -1.08465e+06
0.0792059 0.053425 0.025 -1.08399e+06
0.0810203 0.0546489 0.025 -1.10134e+06
0.0828694 0.0558961 0.025 -1.07835e+06
0.0847537 0.0571671 0.025 -1.10353e+06
0.0866737 0.0584622 0.025 -1.07239e+06
0.0886298 0.0597816 0.025 -1.06948e+06
0.0906224 0.0611256 0.025 -1.07786e+06
0.0926518 0.0624944 0.025 -1.05407e+06
0.0947185 0.0638884 0.025 -1.08447e+06
0.096823 0.065308 0.025 -1.05581e+06
0.0989659 0.0667532 0.025 -1.11044e+06
0.101147 0.0682245 0.025 -1.32766e+06
0.103367 0.0697219 0.025 -1.26852e+06
0.105626 0.0712458 0.025 -1.0057e+06
0.107926 0.0727965 0.025 -1.00998e+06
0.110265 0.074374 0.025 -1.03341e+06
0.112644 0.0759789 0.025 -1.4128e+06
0.115063 0.0776111 0.025 -1.04581e+06
0.117524 0.0792709 0.025 -1.33933e+06
0.120026 0.0809585 0.025 -1.43813e+06
0.122569 0.0826741 0.025 -1.3093e+06
0.125155 0.0844179 0.025 -1.20179e+06
0.127782 0.0861901 0.025 -1.06856e+06
0.130451 0.0879908 0.025 -1.03515e+06
0.133163 0.08982 0.025 -1.0169e+06
0.135918 0.0916781 0.025 -991798
0.138716 0.0935651 0.025 -993994
0.141556 0.095481 0.025 -1.00196e+06
0.14444 0.097426 0.025 -1.23908e+06
0.147367 0.0994004 0.025 -1.69806e+06
0.150337 0.101404 0.025 -1.34758e+06
0.153351 0.103437 0.025 -1.33923e+06
0.156408 0.105498 0.025 -1.6682e+06
0.159508 0.107589 0.025 -875431
0.162651 0.10971 0.025 -1.19148e+06
0.165838 0.111859 0.025 -2.27976e+06
0.169069 0.114039 0.025 -1.41861e+06
0.172343 0.116247 0.025 -1.46986e+06
0.175659 0.118483 0.025 -1.4512e+06
0.179018 0.120749 0.025 -1.44794e+06
0.182421 0.123045 0.025 -1.45997e+06
0.185866 0.125368 0.025 -1.34681e+06
0.189353 0.12772 0.025 -1.35943e+06
0.192882 0.1301 0.025 -1.42516e+06
0.196453 0.132509 0.025 -1.35342e+06
0.200065 0.134946 0.025 -1.62193e+06
0.203718 0.13741 0.025 -1.51727e+06
0.207412 0.139901 0.025 -775408
0.211146 0.14242 0.025 -818174
0.214919 0.144965 0.025 -1.26478e+06
0.218732 0.147537 0.025 -841566
0.222583 0.150134 0.025 -1.4914e+06
0.226472 0.152757 0.025 -820293
0.230399 0.155406 0.025 -1.28453e+06
0.234362 0.15808 0.025 -1.26528e+06
0.238362 0.160777 0.025 -1.76401e+06
0.242396 0.163498 0.025 -1.55461e+06
0.246466 0.166244 0.025 -1.62967e+06
0.250569 0.169012 0.025 -786430
0.254706 0.171801 0.025 -1.21536e+06
0.258874 0.174613 0.025 -1.26577e+06
0.263074 0.177446 0.025 -1.47962e+06
0.267304 0.180299 0.025 -1.17444e+06
0.271564 0.183172 0.025 -789123
0.275852 0.186064 0.025 -1.17782e+06
0.280168 0.188975 0.025 -778744
0.28451 0.191904 0.025 -1.19909e+06
0.288876 0.19485 0.025 -1.63051e+06
0.293268 0.197812 0.025 -1.16622e+06
0.297683 0.20079 0.025 -1.45275e+06
0.302119 0.203782 0.025 -1.57036e+06
0.306577 0.206788 0.025 -1.15922e+06
0.311054 0.209808 0.025 -1.18284e+06
0.315549 0.212841 0.025 -994648
0.320063 0.215885 0.025 -1.49096e+06
0.324591 0.218939 0.025 -1.10237e+06
0.329134 0.222003 0.025 -1.13163e+06
0.333691 0.225077 0.025 -1.64332e+06
0.33826 0.228159 0.025 -1.39213e+06
0.342839 0.231248 0.025 -1.41568e+06
0.347428 0.234343 0.025 -722554
0.352025 0.237444 0.025 -1.37983e+06
0.356628 0.240548 0.025 -1.05676e+06
0.361237 0.243658 0.025 -993629
0.36585 0.246769 0.025 -1.76771e+06
0.370465 0.249882 0.025 -930909
0.375082 0.252996 0.025 -1.19945e+06
0.379698 0.25611 0.025 -1.71537e+06
0.384313 0.259223 0.025 -1.12811e+06
0.388926 0.262333 0.025 -1.29932e+06
0.393534 0.265442 0.025 -1.08438e+06
0.398136 0.268546 0.025 -751577
0.40273 0.271645 0.025 -1.25942e+06
0.407317 0.274739 0.025 -1.15448e+06
0.411894 0.277826 0.025 -1.51215e+06
0.41646 0.280906 0.025 -700093
0.421014 0.283977 0.025 -1.08183e+06
0.425554 0.28704 0.025 -1.39809e+06
0.430079 0.290092 0.025 -1.17258e+06
0.434588 0.293133 0.025 -1.36224e+06
0.439079 0.296162 0.025 -980788
0.443551 0.299179 0.025 -1.15376e+06
0.448004 0.302183 0.025 -1.24804e+06
0.452437 0.305172 0.025 -1.23289e+06
0.456846 0.308146 0.025 -1.20279e+06
0.461232 0.311105 0.025 -1.21913e+06
0.465593 0.314047 0.025 -1.10419e+06
0.469929 0.316971 0.025 -1.35296e+06
0.474238 0.319878 0.025 -872238
0.47852 0.322766 0.025 -917182
0.482773 0.325635 0.025 -724246
0.486996 0.328483 0.025 -1.03216e+06
0.491189 0.331311 0.025 -1.44592e+06
0.49535 0.334118 0.025 -982089
