# p  FACE_DATA 398
# x  y  z  p
-0.7975 -7.61524e-06 0 1136.76
-0.79239 -7.61524e-06 0 893.87
-0.787056 -7.61524e-06 0 734.943
-0.781492 -7.61524e-06 0 707.191
-0.775691 -7.61524e-06 0 674.339
-0.769649 -7.61524e-06 0 653.869
-0.763361 -7.61524e-06 0 643.136
-0.756822 -7.61524e-06 0 635.655
-0.750025 -7.61524e-06 0 629.465
-0.742968 -7.61524e-06 0 618.522
-0.735648 -7.61524e-06 0 611.695
-0.72806 -7.61524e-06 0 602.125
-0.720203 -7.61524e-06 0 600.852
-0.712075 -7.61524e-06 0 603.258
-0.703676 -7.61524e-06 0 606.637
-0.695006 -7.61524e-06 0 610.063
-0.686065 -7.61524e-06 0 613.268
-0.676855 -7.61524e-06 0 615.29
-0.667379 -7.61524e-06 0 616.194
-0.657641 -7.61524e-06 0 616.857
-0.647644 -7.61524e-06 0 617.315
-0.637398 -7.61524e-06 0 617.313
-0.626906 -7.61524e-06 0 616.821
-0.616179 -7.61524e-06 0 616.406
-0.605225 -7.61524e-06 0 615.644
-0.594054 -7.61524e-06 0 614.698
-0.582677 -7.61524e-06 0 613.906
-0.57111 -7.61524e-06 0 613.327
-0.559364 -7.61524e-06 0 612.453
-0.547454 -7.61524e-06 0 611.354
-0.535396 -7.61524e-06 0 610.264
-0.523205 -7.61524e-06 0 609.321
-0.510901 -7.61524e-06 0 608.255
-0.498499 -7.61524e-06 0 607.228
-0.486021 -7.61524e-06 0 606.56
-0.473482 -7.61524e-06 0 606.267
-0.460905 -7.61524e-06 0 605.623
-0.448307 -7.61524e-06 0 604.559
-0.435709 -7.61524e-06 0 603.4
-0.42313 -7.61524e-06 0 602.741
-0.41059 -7.61524e-06 0 602.848
-0.39811 -7.61524e-06 0 602.887
-0.385706 -7.61524e-06 0 602.252
-0.373398 -7.61524e-06 0 601.174
-0.361205 -7.61524e-06 0 600.046
-0.349142 -7.61524e-06 0 599.363
-0.337226 -7.61524e-06 0 599.317
-0.325475 -7.61524e-06 0 599.758
-0.313901 -7.61524e-06 0 599.875
-0.30252 -7.61524e-06 0 599.204
-0.291343 -7.61524e-06 0 597.824
-0.280381 -7.61524e-06 0 596.319
-0.269647 -7.61524e-06 0 594.967
-0.259148 -7.61524e-06 0 594.056
-0.248893 -7.61524e-06 0 593.713
-0.23889 -7.61524e-06 0 594.306
-0.229143 -7.61524e-06 0 595.032
-0.219659 -7.61524e-06 0 595.755
-0.210441 -7.61524e-06 0 596.335
-0.201491 -7.61524e-06 0 596.635
-0.192812 -7.61524e-06 0 596.695
-0.184405 -7.61524e-06 0 596.348
-0.176269 -7.61524e-06 0 595.741
-0.168404 -7.61524e-06 0 594.939
-0.160809 -7.61524e-06 0 594.001
-0.15348 -7.61524e-06 0 592.965
-0.146415 -7.61524e-06 0 592
-0.13961 -7.61524e-06 0 591.127
-0.133063 -7.61524e-06 0 590.398
-0.126767 -7.61524e-06 0 589.841
-0.120717 -7.61524e-06 0 589.482
-0.11491 -7.61524e-06 0 589.327
-0.109339 -7.61524e-06 0 589.292
-0.103997 -7.61524e-06 0 589.552
-0.0988804 -7.61524e-06 0 589.843
-0.0939809 -7.61524e-06 0 590.195
-0.0892928 -7.61524e-06 0 590.556
-0.0848096 -7.61524e-06 0 590.892
-0.0805248 -7.61524e-06 0 591.208
-0.0764317 -7.61524e-06 0 591.496
-0.0725237 -7.61524e-06 0 591.745
-0.0687943 -7.61524e-06 0 591.975
-0.065237 -7.61524e-06 0 592.17
-0.0618454 -7.61524e-06 0 592.381
-0.058613 -7.61524e-06 0 592.73
-0.0555337 -7.61524e-06 0 593.545
-0.0526013 -7.61524e-06 0 595.252
-0.0498099 -7.61524e-06 0 598.487
-0.0471536 -7.61524e-06 0 604.849
-0.0446266 -7.61524e-06 0 618.263
-0.0422235 -7.61524e-06 0 646.71
-0.0399389 -7.61524e-06 0 699.366
-0.0377676 -7.61524e-06 0 774.165
-0.0357044 -7.61524e-06 0 857.857
-0.0337445 -7.61524e-06 0 940.033
-0.0318832 -7.61524e-06 0 1016.27
-0.0301159 -7.61524e-06 0 1086.37
-0.0284383 -7.61524e-06 0 1147.59
-0.0268462 -7.61524e-06 0 1201.95
-0.0253353 -7.61524e-06 0 1251.19
-0.023902 -7.61524e-06 0 1295.56
-0.0225425 -7.61524e-06 0 1335.64
-0.0212532 -7.61524e-06 0 1372.3
-0.0200306 -7.61524e-06 0 1405.86
-0.0188715 -7.61524e-06 0 1436.67
-0.0177727 -7.61524e-06 0 1464.96
-0.0167313 -7.61524e-06 0 1491.13
-0.0157444 -7.61524e-06 0 1515.16
-0.0148093 -7.61524e-06 0 1537.31
-0.0139232 -7.61524e-06 0 1557.69
-0.0130838 -7.61524e-06 0 1576.46
-0.0122887 -7.61524e-06 0 1593.7
-0.0115355 -7.61524e-06 0 1609.49
-0.0108223 -7.61524e-06 0 1623.86
-0.0101469 -7.61524e-06 0 1636.85
-0.00950727 -7.61524e-06 0 1648.5
-0.00890169 -7.61524e-06 0 1658.89
-0.00832834 -7.61524e-06 0 1668.12
-0.00778557 -7.61524e-06 0 1676.31
-0.00727176 -7.61524e-06 0 1683.61
-0.00678541 -7.61524e-06 0 1690.19
-0.00632507 -7.61524e-06 0 1696.21
-0.00588937 -7.61524e-06 0 1701.85
-0.00547703 -7.61524e-06 0 1707.28
-0.00508681 -7.61524e-06 0 1712.67
-0.00471753 -7.61524e-06 0 1718.17
-0.0043681 -7.61524e-06 0 1723.94
-0.00403746 -7.61524e-06 0 1730.13
-0.00372461 -7.61524e-06 0 1736.78
-0.0034286 -7.61524e-06 0 1743.97
-0.00314855 -7.61524e-06 0 1751.75
-0.00288361 -7.61524e-06 0 1760.25
-0.00263295 -7.61524e-06 0 1769.73
-0.00239582 -7.61524e-06 0 1779.45
-0.00217149 -7.61524e-06 0 1789.86
-0.00195929 -7.61524e-06 0 1800.71
-0.00175856 -7.61524e-06 0 1811.77
-0.00156869 -7.61524e-06 0 1823
-0.00138908 -7.61524e-06 0 1834.23
-0.00121921 -7.61524e-06 0 1845.2
-0.00105853 -7.61524e-06 0 1855.57
-0.000906546 -7.61524e-06 0 1865.01
-0.000762803 -7.61524e-06 0 1873.16
-0.000626849 -7.61524e-06 0 1879.58
-0.000498266 -7.61524e-06 0 1883.94
-0.000376656 -7.61524e-06 0 1886.13
-0.000261642 -7.61524e-06 0 1886.19
-0.00015287 -7.61524e-06 0 1885.77
-5e-05 -7.61524e-06 0 1885.7
4.14596e-05 2.03453e-05 0 1869.51
0.000125379 7.69412e-05 0 1871.45
0.000211356 0.000134924 0 1868.34
0.000299438 0.000194328 0 1864.79
0.000389678 0.000255186 0 1860.65
0.000482128 0.000317535 0 1856.4
0.000576841 0.000381409 0 1852.19
0.000673871 0.000446848 0 1848.14
0.000773276 0.000513887 0 1844.37
0.000875112 0.000582565 0 1841.02
0.000979439 0.000652924 0 1838.18
0.00108632 0.000725003 0 1835.97
0.00119581 0.000798843 0 1834.48
0.00130797 0.000874487 0 1833.71
0.00142287 0.000951979 0 1833.89
0.00154058 0.00103136 0 1835.01
0.00166117 0.00111268 0 1837.1
0.00178469 0.00119599 0 1840.14
0.00191123 0.00128133 0 1844.21
0.00204085 0.00136875 0 1849.31
0.00217364 0.0014583 0 1855.47
0.00230966 0.00155003 0 1862.63
0.00244899 0.001644 0 1870.78
0.00259171 0.00174025 0 1880.05
0.00273791 0.00183885 0 1890.32
0.00288767 0.00193985 0 1901.67
0.00304108 0.0020433 0 1914.06
0.0031982 0.00214927 0 1927.52
0.00335915 0.00225781 0 1942.06
0.003524 0.002369 0 1957.7
0.00369286 0.00248287 0 1974.46
0.00386582 0.00259951 0 1992.37
0.00404297 0.00271899 0 2011.48
0.00422442 0.00284136 0 2031.81
0.00441026 0.00296669 0 2053.42
0.0046006 0.00309506 0 2076.38
0.00479556 0.00322653 0 2100.74
0.00499523 0.00336119 0 2126.54
0.00519972 0.00349911 0 2153.89
0.00540916 0.00364036 0 2182.88
0.00562366 0.00378501 0 2213.6
0.00584334 0.00393316 0 2246.13
0.00606831 0.00408489 0 2280.61
0.00629871 0.00424027 0 2317.15
0.00653466 0.0043994 0 2355.85
0.00677629 0.00456236 0 2396.88
0.00702374 0.00472923 0 2440.34
0.00727714 0.00490013 0 2486.35
0.00753663 0.00507513 0 2535.1
0.00780234 0.00525433 0 2586.63
0.00807444 0.00543783 0 2641.11
0.00835306 0.00562573 0 2698.61
0.00863835 0.00581814 0 2759.22
0.00893047 0.00601514 0 2823.04
0.00922958 0.00621687 0 2890.18
0.00953584 0.00642341 0 2960.93
0.00984939 0.00663489 0 3035.74
0.0101705 0.00685141 0 3115.54
0.0104992 0.00707309 0 3201.41
0.0108357 0.00730005 0 3294.82
0.0111802 0.00753241 0 3396.85
0.011533 0.0077703 0 3508.15
0.0118941 0.00801384 0 3629.12
0.0122638 0.00826316 0 3759.81
0.0126422 0.00851837 0 3900.2
0.0130296 0.00877964 0 4050.41
0.0134262 0.00904708 0 4211.15
0.0138321 0.00932084 0 4383.61
0.0142476 0.00960107 0 4570.34
0.0146729 0.00988792 0 4776.17
0.0151082 0.0101815 0 5014.65
0.0155538 0.0104819 0 5300.91
0.0160098 0.0107895 0 5624.6
0.0164766 0.0111042 0 5967.12
0.0169542 0.0114263 0 6320.74
0.0174429 0.011756 0 6687.03
0.0179431 0.0120934 0 7076.3
0.018455 0.0124386 0 7491.15
0.0189789 0.0127918 0 7936.23
0.0195149 0.0131533 0 8410.47
0.0200633 0.0135232 0 8919.59
0.0206245 0.0139016 0 9467.37
0.0211986 0.0142888 0 10074.1
0.0217861 0.014685 0 10753.8
0.022387 0.0150903 0 11503.8
0.0230018 0.0155049 0 12321.7
0.0236307 0.0159291 0 13216.2
0.0242741 0.0163629 0 14189.7
0.0249322 0.0168068 0 15242.7
0.0256053 0.0172608 0 16366.3
0.0262939 0.0177251 0 17533.1
0.0269981 0.0182 0 18750.3
0.0277183 0.0186857 0 20008.9
0.0284548 0.0191825 0 21251.5
0.029208 0.0196904 0 22269.8
0.0299782 0.0202098 0 22892.6
0.0307658 0.0207409 0 22966.7
0.031571 0.021284 0 22497.6
0.0323942 0.0218393 0 21787.6
0.033236 0.0224069 0 20954.4
0.0340965 0.0229872 0 20113.6
0.0349762 0.0235805 0 19321.1
0.0358753 0.0241869 0 18606.2
0.0367944 0.0248067 0 17984.7
0.0377338 0.0254403 0 17439.4
0.0386938 0.0260877 0 16949.8
0.039675 0.0267494 0 16507.3
0.0406776 0.0274256 0 16103.7
0.0417021 0.0281165 0 15760.6
0.0427488 0.0288225 0 15475.9
0.0438183 0.0295437 0 15259.4
0.0449109 0.0302805 0 15105.2
0.046027 0.0310332 0 14990.7
0.0471671 0.0318021 0 14939.7
0.0483315 0.0325874 0 14930.6
0.0495209 0.0333895 0 14927.5
0.0507354 0.0342086 0 14874.8
0.0519756 0.035045 0 14880.5
0.053242 0.0358991 0 14914.6
0.054535 0.036771 0 14939
0.0558549 0.0376613 0 14917.9
0.0572024 0.03857 0 14835.1
0.0585778 0.0394976 0 14777.6
0.0599816 0.0404443 0 14834.3
0.0614142 0.0414105 0 14911.2
0.0628761 0.0423964 0 14928
0.0643678 0.0434024 0 14889.4
0.0658897 0.0444287 0 14785.9
0.0674422 0.0454758 0 14698.6
0.069026 0.0465439 0 14653.2
0.0706413 0.0476333 0 14674.1
0.0722886 0.0487443 0 14707.6
0.0739685 0.0498771 0 14713.2
0.0756813 0.0510323 0 14682.6
0.0774275 0.05221 0 14646
0.0792077 0.0534105 0 14620.1
0.0810221 0.0546342 0 14615.4
0.0828712 0.0558812 0 14623.8
0.0847556 0.0571521 0 14629.5
0.0866757 0.058447 0 14634.7
0.0886318 0.0597661 0 14634.9
0.0906244 0.06111 0 14618
0.0926539 0.0624787 0 14590.8
0.0947207 0.0638726 0 14563.2
0.0968252 0.0652919 0 14546.8
0.0989682 0.066737 0 14538.6
0.101149 0.068208 0 14520.4
0.103369 0.0697052 0 14503
0.105629 0.0712289 0 14481.2
0.107928 0.0727794 0 14472.1
0.110267 0.0743568 0 14446.4
0.112646 0.0759614 0 14419.7
0.115066 0.0775934 0 14390.5
0.117527 0.079253 0 14381.4
0.120029 0.0809404 0 14375.4
0.122572 0.0826558 0 14391.1
0.125158 0.0843994 0 14426.6
0.127785 0.0861713 0 14462.5
0.130454 0.0879717 0 14472
0.133167 0.0898008 0 14445.9
0.135921 0.0916586 0 14383.8
0.138719 0.0935453 0 14317.8
0.141559 0.095461 0 14262.4
0.144443 0.0974057 0 14241.1
0.14737 0.0993798 0 14285.8
0.15034 0.101383 0 14345
0.153354 0.103415 0 14394.6
0.156411 0.105477 0 14410.5
0.159511 0.107568 0 14367.9
0.162655 0.109688 0 14323.3
0.165842 0.111837 0 14272.7
0.169073 0.114016 0 14291.7
0.172346 0.116223 0 14333.1
0.175663 0.118461 0 14342.4
0.179022 0.120727 0 14298.4
0.182425 0.123021 0 14290.4
0.18587 0.125344 0 14324.7
0.189357 0.127696 0 14345.3
0.192886 0.130076 0 14346.4
0.196457 0.132484 0 14288.9
0.200069 0.13492 0 14244.1
0.203722 0.137384 0 14270.2
0.207416 0.139875 0 14290.5
0.21115 0.142393 0 14297.2
0.214924 0.144938 0 14268.1
0.218736 0.147509 0 14213.4
0.222587 0.150107 0 14192.2
0.226476 0.152729 0 14210.3
0.230403 0.155377 0 14223
0.234366 0.15805 0 14191.6
0.238366 0.160748 0 14133.2
0.242401 0.163469 0 14085.3
0.24647 0.166214 0 14074.4
0.250573 0.168981 0 14089.1
0.25471 0.17177 0 14089.4
0.258878 0.174582 0 14024.7
0.263078 0.177414 0 13986.5
0.267309 0.180266 0 13966.3
0.271568 0.183139 0 14025.4
0.275856 0.186031 0 14055.7
0.280172 0.188942 0 14066.1
0.284514 0.19187 0 13992.8
0.288881 0.194815 0 13937.4
0.293272 0.197777 0 13898.6
0.297687 0.200754 0 13889
0.302124 0.203746 0 13924.9
0.306581 0.206752 0 13931.7
0.311058 0.209772 0 13907.5
0.315554 0.212804 0 13884
0.320067 0.215847 0 13863.4
0.324595 0.218901 0 13924.8
0.329138 0.221965 0 13978.3
0.333695 0.225038 0 13993.1
0.338264 0.228119 0 13970.3
0.342843 0.231208 0 13900.1
0.347432 0.234302 0 13840.3
0.352029 0.237402 0 13816.6
0.356632 0.240507 0 13868.4
0.361241 0.243616 0 13927
0.365854 0.246727 0 13938.4
0.370469 0.249839 0 13929.3
0.375085 0.252953 0 13867.7
0.379702 0.256066 0 13817.8
0.384317 0.259178 0 13804.1
0.388929 0.262289 0 13851.2
0.393537 0.265396 0 13939.7
0.398139 0.2685 0 14018.7
0.402734 0.271598 0 14034.4
0.407321 0.274692 0 13976.8
0.411898 0.277779 0 13892.3
0.416464 0.280858 0 13803.1
0.421017 0.283929 0 13743
0.425557 0.286991 0 13767
0.430082 0.290042 0 13873.6
0.434591 0.293083 0 13967.1
0.439082 0.296112 0 14040.7
0.443555 0.299128 0 14040.8
0.448008 0.302131 0 13973
0.45244 0.30512 0 13862.9
0.456849 0.308094 0 13743.3
0.461235 0.311052 0 13680.3
0.465596 0.313993 0 13693.4
0.469932 0.316917 0 13798.4
0.474241 0.319823 0 13943.6
0.478523 0.322711 0 14076.1
0.482776 0.325579 0 14165.9
0.486999 0.328427 0 14163.8
0.491191 0.331254 0 14068.5
0.495353 0.334061 0 13915.4
