# wallHeatFlux  FACE_DATA 398
# x  y  z  wallHeatFlux
-0.7975 -7.61524e-06 0 -177986
-0.79239 -7.61524e-06 0 -35259.9
-0.787056 -7.61524e-06 0 -21454.3
-0.781492 -7.61524e-06 0 -17060.8
-0.775691 -7.61524e-06 0 -14341.4
-0.769649 -7.61524e-06 0 -12591.2
-0.763361 -7.61524e-06 0 -11390.9
-0.756822 -7.61524e-06 0 -10471
-0.750025 -7.61524e-06 0 -9768.97
-0.742968 -7.61524e-06 0 -9226.68
-0.735648 -7.61524e-06 0 -9348.81
-0.72806 -7.61524e-06 0 -9944.91
-0.720203 -7.61524e-06 0 -10989.4
-0.712075 -7.61524e-06 0 -11939.6
-0.703676 -7.61524e-06 0 -12602.9
-0.695006 -7.61524e-06 0 -13032.2
-0.686065 -7.61524e-06 0 -13312.5
-0.676855 -7.61524e-06 0 -13470.4
-0.667379 -7.61524e-06 0 -13516.1
-0.657641 -7.61524e-06 0 -13535.2
-0.647644 -7.61524e-06 0 -13505.6
-0.637398 -7.61524e-06 0 -13443.6
-0.626906 -7.61524e-06 0 -13355.1
-0.616179 -7.61524e-06 0 -13265.4
-0.605225 -7.61524e-06 0 -13159.8
-0.594054 -7.61524e-06 0 -13053.6
-0.582677 -7.61524e-06 0 -12951.9
-0.57111 -7.61524e-06 0 -12855.1
-0.559364 -7.61524e-06 0 -12758.1
-0.547454 -7.61524e-06 0 -12660.3
-0.535396 -7.61524e-06 0 -12562.1
-0.523205 -7.61524e-06 0 -12473.5
-0.510901 -7.61524e-06 0 -12385
-0.498499 -7.61524e-06 0 -12300.8
-0.486021 -7.61524e-06 0 -12226.9
-0.473482 -7.61524e-06 0 -12163.3
-0.460905 -7.61524e-06 0 -12099
-0.448307 -7.61524e-06 0 -12023.6
-0.435709 -7.61524e-06 0 -11953.2
-0.42313 -7.61524e-06 0 -11892.7
-0.41059 -7.61524e-06 0 -11848.1
-0.39811 -7.61524e-06 0 -11808.5
-0.385706 -7.61524e-06 0 -11757.6
-0.373398 -7.61524e-06 0 -11696
-0.361205 -7.61524e-06 0 -11639.5
-0.349142 -7.61524e-06 0 -11587.8
-0.337226 -7.61524e-06 0 -11552.2
-0.325475 -7.61524e-06 0 -11532.5
-0.313901 -7.61524e-06 0 -11507.5
-0.30252 -7.61524e-06 0 -11466.1
-0.291343 -7.61524e-06 0 -11408.9
-0.280381 -7.61524e-06 0 -11351.7
-0.269647 -7.61524e-06 0 -11299.7
-0.259148 -7.61524e-06 0 -11253.2
-0.248893 -7.61524e-06 0 -11223.2
-0.23889 -7.61524e-06 0 -11214.7
-0.229143 -7.61524e-06 0 -11211.5
-0.219659 -7.61524e-06 0 -11203.3
-0.210441 -7.61524e-06 0 -11200.4
-0.201491 -7.61524e-06 0 -11187.6
-0.192812 -7.61524e-06 0 -11174.3
-0.184405 -7.61524e-06 0 -11151.4
-0.176269 -7.61524e-06 0 -11122.7
-0.168404 -7.61524e-06 0 -11094.4
-0.160809 -7.61524e-06 0 -11060.8
-0.15348 -7.61524e-06 0 -11028
-0.146415 -7.61524e-06 0 -10995.4
-0.13961 -7.61524e-06 0 -10962.4
-0.133063 -7.61524e-06 0 -10935.3
-0.126767 -7.61524e-06 0 -10913.8
-0.120717 -7.61524e-06 0 -10897.7
-0.11491 -7.61524e-06 0 -10887.2
-0.109339 -7.61524e-06 0 -10871.5
-0.103997 -7.61524e-06 0 -10871.6
-0.0988804 -7.61524e-06 0 -10867.4
-0.0939809 -7.61524e-06 0 -10867.9
-0.0892928 -7.61524e-06 0 -10868.8
-0.0848096 -7.61524e-06 0 -10869.7
-0.0805248 -7.61524e-06 0 -10870.7
-0.0764317 -7.61524e-06 0 -10871.8
-0.0725237 -7.61524e-06 0 -10867.5
-0.0687943 -7.61524e-06 0 -10868.8
-0.065237 -7.61524e-06 0 -10869.9
-0.0618454 -7.61524e-06 0 -10865.9
-0.058613 -7.61524e-06 0 -10851.1
-0.0555337 -7.61524e-06 0 -10809.7
-0.0526013 -7.61524e-06 0 -10714.6
-0.0498099 -7.61524e-06 0 -10512.4
-0.0471536 -7.61524e-06 0 -10122.8
-0.0446266 -7.61524e-06 0 -9406.26
-0.0422235 -7.61524e-06 0 -8277.06
-0.0399389 -7.61524e-06 0 -6879.68
-0.0377676 -7.61524e-06 0 -5690.88
-0.0357044 -7.61524e-06 0 -5305.82
-0.0337445 -7.61524e-06 0 -5896.05
-0.0318832 -7.61524e-06 0 -6845.65
-0.0301159 -7.61524e-06 0 -7795.48
-0.0284383 -7.61524e-06 0 -8584.7
-0.0268462 -7.61524e-06 0 -9261.49
-0.0253353 -7.61524e-06 0 -9868.73
-0.023902 -7.61524e-06 0 -10411.8
-0.0225425 -7.61524e-06 0 -10890.4
-0.0212532 -7.61524e-06 0 -11326.7
-0.0200306 -7.61524e-06 0 -11719.8
-0.0188715 -7.61524e-06 0 -12064.8
-0.0177727 -7.61524e-06 0 -12367
-0.0167313 -7.61524e-06 0 -12631.7
-0.0157444 -7.61524e-06 0 -12853.6
-0.0148093 -7.61524e-06 0 -13037.7
-0.0139232 -7.61524e-06 0 -13185.1
-0.0130838 -7.61524e-06 0 -13304.7
-0.0122887 -7.61524e-06 0 -13388
-0.0115355 -7.61524e-06 0 -13454.3
-0.0108223 -7.61524e-06 0 -13499.6
-0.0101469 -7.61524e-06 0 -13539.6
-0.00950727 -7.61524e-06 0 -13585.2
-0.00890169 -7.61524e-06 0 -13641.6
-0.00832834 -7.61524e-06 0 -13714.4
-0.00778557 -7.61524e-06 0 -13814.3
-0.00727176 -7.61524e-06 0 -13946.8
-0.00678541 -7.61524e-06 0 -14111.8
-0.00632507 -7.61524e-06 0 -14309.7
-0.00588937 -7.61524e-06 0 -14545.6
-0.00547703 -7.61524e-06 0 -14809.1
-0.00508681 -7.61524e-06 0 -15100.3
-0.00471753 -7.61524e-06 0 -15424.6
-0.0043681 -7.61524e-06 0 -15776.8
-0.00403746 -7.61524e-06 0 -16146.6
-0.00372461 -7.61524e-06 0 -16539.5
-0.0034286 -7.61524e-06 0 -16945
-0.00314855 -7.61524e-06 0 -17368.9
-0.00288361 -7.61524e-06 0 -17795.9
-0.00263295 -7.61524e-06 0 -18215.3
-0.00239582 -7.61524e-06 0 -18617.6
-0.00217149 -7.61524e-06 0 -19003.5
-0.00195929 -7.61524e-06 0 -19369.3
-0.00175856 -7.61524e-06 0 -19694.6
-0.00156869 -7.61524e-06 0 -19981.8
-0.00138908 -7.61524e-06 0 -20200.8
-0.00121921 -7.61524e-06 0 -20271.6
-0.00105853 -7.61524e-06 0 -20225.7
-0.000906546 -7.61524e-06 0 -19993.4
-0.000762803 -7.61524e-06 0 -19537.8
-0.000626849 -7.61524e-06 0 -18801.4
-0.000498266 -7.61524e-06 0 -17724.9
-0.000376656 -7.61524e-06 0 -16258.5
-0.000261642 -7.61524e-06 0 -14332
-0.00015287 -7.61524e-06 0 -11809.2
-5e-05 -7.61524e-06 0 -8184.89
4.14596e-05 2.03453e-05 0 -7899.79
0.000125379 7.69412e-05 0 -10030.9
0.000211356 0.000134924 0 -11243.7
0.000299438 0.000194328 0 -12219.1
0.000389678 0.000255186 0 -13101.8
0.000482128 0.000317535 0 -13930.8
0.000576841 0.000381409 0 -14722.8
0.000673871 0.000446848 0 -15494.4
0.000773276 0.000513887 0 -16234.5
0.000875112 0.000582565 0 -16954.1
0.000979439 0.000652924 0 -17641.7
0.00108632 0.000725003 0 -18297.8
0.00119581 0.000798843 0 -18932.9
0.00130797 0.000874487 0 -19538.9
0.00142287 0.000951979 0 -20125.5
0.00154058 0.00103136 0 -20682.6
0.00166117 0.00111268 0 -21223.5
0.00178469 0.00119599 0 -21752.2
0.00191123 0.00128133 0 -22260.5
0.00204085 0.00136875 0 -22766.5
0.00217364 0.0014583 0 -23257
0.00230966 0.00155003 0 -23743.5
0.00244899 0.001644 0 -24226.1
0.00259171 0.00174025 0 -24716.2
0.00273791 0.00183885 0 -25204.1
0.00288767 0.00193985 0 -25695.2
0.00304108 0.0020433 0 -26196.4
0.0031982 0.00214927 0 -26704.4
0.00335915 0.00225781 0 -27226.1
0.003524 0.002369 0 -27764
0.00369286 0.00248287 0 -28321.3
0.00386582 0.00259951 0 -28891.8
0.00404297 0.00271899 0 -29485.6
0.00422442 0.00284136 0 -30109.1
0.00441026 0.00296669 0 -30752.4
0.0046006 0.00309506 0 -31425.1
0.00479556 0.00322653 0 -32128.7
0.00499523 0.00336119 0 -32871.4
0.00519972 0.00349911 0 -33647.2
0.00540916 0.00364036 0 -34465.5
0.00562366 0.00378501 0 -35326.3
0.00584334 0.00393316 0 -36235.1
0.00606831 0.00408489 0 -37191.5
0.00629871 0.00424027 0 -38201.2
0.00653466 0.0043994 0 -39263.9
0.00677629 0.00456236 0 -40384.2
0.00702374 0.00472923 0 -41567.5
0.00727714 0.00490013 0 -42804.6
0.00753663 0.00507513 0 -44101.1
0.00780234 0.00525433 0 -45449.2
0.00807444 0.00543783 0 -46835.8
0.00835306 0.00562573 0 -48262.5
0.00863835 0.00581814 0 -49702.6
0.00893047 0.00601514 0 -51148.8
0.00922958 0.00621687 0 -52598.4
0.00953584 0.00642341 0 -54063.6
0.00984939 0.00663489 0 -55601
0.0101705 0.00685141 0 -57257.1
0.0104992 0.00707309 0 -59134.6
0.0108357 0.00730005 0 -61314.7
0.0111802 0.00753241 0 -63763.3
0.011533 0.0077703 0 -66368.9
0.0118941 0.00801384 0 -69003.2
0.0122638 0.00826316 0 -71448.6
0.0126422 0.00851837 0 -73658.1
0.0130296 0.00877964 0 -75749.3
0.0134262 0.00904708 0 -77913.1
0.0138321 0.00932084 0 -80278.1
0.0142476 0.00960107 0 -82869.7
0.0146729 0.00988792 0 -85741.1
0.0151082 0.0101815 0 -89476.5
0.0155538 0.0104819 0 -94715.4
0.0160098 0.0107895 0 -100688
0.0164766 0.0111042 0 -106493
0.0169542 0.0114263 0 -111979
0.0174429 0.011756 0 -117327
0.0179431 0.0120934 0 -123132
0.018455 0.0124386 0 -129219
0.0189789 0.0127918 0 -135821
0.0195149 0.0131533 0 -142867
0.0200633 0.0135232 0 -150508
0.0206245 0.0139016 0 -158810
0.0211986 0.0142888 0 -167882
0.0217861 0.014685 0 -178263
0.022387 0.0150903 0 -189497
0.0230018 0.0155049 0 -201963
0.0236307 0.0159291 0 -215914
0.0242741 0.0163629 0 -231248
0.0249322 0.0168068 0 -247954
0.0256053 0.0172608 0 -266404
0.0262939 0.0177251 0 -285553
0.0269981 0.0182 0 -305146
0.0277183 0.0186857 0 -326482
0.0284548 0.0191825 0 -346005
0.029208 0.0196904 0 -362198
0.0299782 0.0202098 0 -369870
0.0307658 0.0207409 0 -367220
0.031571 0.021284 0 -352895
0.0323942 0.0218393 0 -335264
0.033236 0.0224069 0 -316780
0.0340965 0.0229872 0 -299701
0.0349762 0.0235805 0 -284094
0.0358753 0.0241869 0 -270855
0.0367944 0.0248067 0 -259214
0.0377338 0.0254403 0 -249479
0.0386938 0.0260877 0 -240726
0.039675 0.0267494 0 -232438
0.0406776 0.0274256 0 -225478
0.0417021 0.0281165 0 -218381
0.0427488 0.0288225 0 -212537
0.0438183 0.0295437 0 -208409
0.0449109 0.0302805 0 -205582
0.046027 0.0310332 0 -203465
0.0471671 0.0318021 0 -202667
0.0483315 0.0325874 0 -202695
0.0495209 0.0333895 0 -202258
0.0507354 0.0342086 0 -200422
0.0519756 0.035045 0 -199187
0.053242 0.0358991 0 -198630
0.054535 0.036771 0 -197998
0.0558549 0.0376613 0 -196944
0.0572024 0.03857 0 -194492
0.0585778 0.0394976 0 -191657
0.0599816 0.0404443 0 -191759
0.0614142 0.0414105 0 -192306
0.0628761 0.0423964 0 -192027
0.0643678 0.0434024 0 -190692
0.0658897 0.0444287 0 -187545
0.0674422 0.0454758 0 -185440
0.069026 0.0465439 0 -183907
0.0706413 0.0476333 0 -184038
0.0722886 0.0487443 0 -183827
0.0739685 0.0498771 0 -183319
0.0756813 0.0510323 0 -181814
0.0774275 0.05221 0 -180154
0.0792077 0.0534105 0 -179210
0.0810221 0.0546342 0 -178120
0.0828712 0.0558812 0 -177551
0.0847556 0.0571521 0 -177028
0.0866757 0.058447 0 -176211
0.0886318 0.0597661 0 -175563
0.0906244 0.06111 0 -174511
0.0926539 0.0624787 0 -173405
0.0947207 0.0638726 0 -172314
0.0968252 0.0652919 0 -171153
0.0989682 0.066737 0 -168877
0.101149 0.068208 0 -167608
0.103369 0.0697052 0 -166086
0.105629 0.0712289 0 -167375
0.107928 0.0727794 0 -165115
0.110267 0.0743568 0 -164610
0.112646 0.0759614 0 -161816
0.115066 0.0775934 0 -162968
0.117527 0.079253 0 -159612
0.120029 0.0809404 0 -158939
0.122572 0.0826558 0 -158238
0.125158 0.0843994 0 -158134
0.127785 0.0861713 0 -159117
0.130454 0.0879717 0 -158682
0.133167 0.0898008 0 -157673
0.135921 0.0916586 0 -156035
0.138719 0.0935453 0 -154265
0.141559 0.095461 0 -153535
0.144443 0.0974057 0 -149756
0.14737 0.0993798 0 -147282
0.15034 0.101383 0 -148379
0.153354 0.103415 0 -148229
0.156411 0.105477 0 -147400
0.159511 0.107568 0 -148851
0.162655 0.109688 0 -145281
0.165842 0.111837 0 -144869
0.169073 0.114016 0 -148292
0.172346 0.116223 0 -142814
0.175663 0.118461 0 -141528
0.179022 0.120727 0 -146530
0.182425 0.123021 0 -140212
0.18587 0.125344 0 -138564
0.189357 0.127696 0 -139692
0.192886 0.130076 0 -139824
0.196457 0.132484 0 -141357
0.200069 0.13492 0 -139341
0.203722 0.137384 0 -135705
0.207416 0.139875 0 -135331
0.21115 0.142393 0 -136416
0.214924 0.144938 0 -134897
0.218736 0.147509 0 -135079
0.222587 0.150107 0 -131666
0.226476 0.152729 0 -131638
0.230403 0.155377 0 -131517
0.234366 0.15805 0 -130765
0.238366 0.160748 0 -128893
0.242401 0.163469 0 -131515
0.24647 0.166214 0 -129764
0.250573 0.168981 0 -127254
0.25471 0.17177 0 -126512
0.258878 0.174582 0 -127046
0.263078 0.177414 0 -125101
0.267309 0.180266 0 -132333
0.271568 0.183139 0 -123189
0.275856 0.186031 0 -123705
0.280172 0.188942 0 -124102
0.284514 0.19187 0 -130488
0.288881 0.194815 0 -124296
0.293272 0.197777 0 -120675
0.297687 0.200754 0 -127539
0.302124 0.203746 0 -120154
0.306581 0.206752 0 -119961
0.311058 0.209772 0 -119165
0.315554 0.212804 0 -119644
0.320067 0.215847 0 -128124
0.324595 0.218901 0 -119185
0.329138 0.221965 0 -119132
0.333695 0.225038 0 -118517
0.338264 0.228119 0 -117742
0.342843 0.231208 0 -117339
0.347432 0.234302 0 -115894
0.352029 0.237402 0 -117203
0.356632 0.240507 0 -116114
0.361241 0.243616 0 -115048
0.365854 0.246727 0 -115480
0.370469 0.249839 0 -117442
0.375085 0.252953 0 -118112
0.379702 0.256066 0 -114790
0.384317 0.259178 0 -114715
0.388929 0.262289 0 -114429
0.393537 0.265396 0 -113498
0.398139 0.2685 0 -114536
0.402734 0.271598 0 -114702
0.407321 0.274692 0 -112585
0.411898 0.277779 0 -111902
0.416464 0.280858 0 -111682
0.421017 0.283929 0 -112147
0.425557 0.286991 0 -114768
0.430082 0.290042 0 -113678
0.434591 0.293083 0 -118627
0.439082 0.296112 0 -110350
0.443555 0.299128 0 -115696
0.448008 0.302131 0 -112130
0.45244 0.30512 0 -111103
0.456849 0.308094 0 -121050
0.461235 0.311052 0 -114805
0.465596 0.313993 0 -113503
0.469932 0.316917 0 -107668
0.474241 0.319823 0 -109690
0.478523 0.322711 0 -110551
0.482776 0.325579 0 -110027
0.486999 0.328427 0 -111518
0.491191 0.331254 0 -120710
0.495353 0.334061 0 -102593
