# p  FACE_DATA 398
# x  y  z  p
-0.7975 -7.61524e-06 0 1136.76
-0.79239 -7.61524e-06 0 893.87
-0.787056 -7.61524e-06 0 734.943
-0.781492 -7.61524e-06 0 707.192
-0.775691 -7.61524e-06 0 674.34
-0.769649 -7.61524e-06 0 653.875
-0.763361 -7.61524e-06 0 643.115
-0.756822 -7.61524e-06 0 635.596
-0.750025 -7.61524e-06 0 629.193
-0.742968 -7.61524e-06 0 619.093
-0.735648 -7.61524e-06 0 613.475
-0.72806 -7.61524e-06 0 603.529
-0.720203 -7.61524e-06 0 601.929
-0.712075 -7.61524e-06 0 604.339
-0.703676 -7.61524e-06 0 607.254
-0.695006 -7.61524e-06 0 610.221
-0.686065 -7.61524e-06 0 612.674
-0.676855 -7.61524e-06 0 614.125
-0.667379 -7.61524e-06 0 614.648
-0.657641 -7.61524e-06 0 614.935
-0.647644 -7.61524e-06 0 615.235
-0.637398 -7.61524e-06 0 614.979
-0.626906 -7.61524e-06 0 614.419
-0.616179 -7.61524e-06 0 613.903
-0.605225 -7.61524e-06 0 613.14
-0.594054 -7.61524e-06 0 612.255
-0.582677 -7.61524e-06 0 611.506
-0.57111 -7.61524e-06 0 610.922
-0.559364 -7.61524e-06 0 610.067
-0.547454 -7.61524e-06 0 609.04
-0.535396 -7.61524e-06 0 608.047
-0.523205 -7.61524e-06 0 607.187
-0.510901 -7.61524e-06 0 606.219
-0.498499 -7.61524e-06 0 605.27
-0.486021 -7.61524e-06 0 604.64
-0.473482 -7.61524e-06 0 604.332
-0.460905 -7.61524e-06 0 603.706
-0.448307 -7.61524e-06 0 602.742
-0.435709 -7.61524e-06 0 601.731
-0.42313 -7.61524e-06 0 601.174
-0.41059 -7.61524e-06 0 601.227
-0.39811 -7.61524e-06 0 601.214
-0.385706 -7.61524e-06 0 600.574
-0.373398 -7.61524e-06 0 599.538
-0.361205 -7.61524e-06 0 598.449
-0.349142 -7.61524e-06 0 597.805
-0.337226 -7.61524e-06 0 597.772
-0.325475 -7.61524e-06 0 598.249
-0.313901 -7.61524e-06 0 598.387
-0.30252 -7.61524e-06 0 597.789
-0.291343 -7.61524e-06 0 596.504
-0.280381 -7.61524e-06 0 595.096
-0.269647 -7.61524e-06 0 593.838
-0.259148 -7.61524e-06 0 592.999
-0.248893 -7.61524e-06 0 592.701
-0.23889 -7.61524e-06 0 593.244
-0.229143 -7.61524e-06 0 593.937
-0.219659 -7.61524e-06 0 594.576
-0.210441 -7.61524e-06 0 595.071
-0.201491 -7.61524e-06 0 595.299
-0.192812 -7.61524e-06 0 595.339
-0.184405 -7.61524e-06 0 594.947
-0.176269 -7.61524e-06 0 594.344
-0.168404 -7.61524e-06 0 593.559
-0.160809 -7.61524e-06 0 592.638
-0.15348 -7.61524e-06 0 591.692
-0.146415 -7.61524e-06 0 590.816
-0.13961 -7.61524e-06 0 590.026
-0.133063 -7.61524e-06 0 589.369
-0.126767 -7.61524e-06 0 588.865
-0.120717 -7.61524e-06 0 588.531
-0.11491 -7.61524e-06 0 588.367
-0.109339 -7.61524e-06 0 588.323
-0.103997 -7.61524e-06 0 588.476
-0.0988804 -7.61524e-06 0 588.735
-0.0939809 -7.61524e-06 0 589.061
-0.0892928 -7.61524e-06 0 589.408
-0.0848096 -7.61524e-06 0 589.735
-0.0805248 -7.61524e-06 0 590.036
-0.0764317 -7.61524e-06 0 590.303
-0.0725237 -7.61524e-06 0 590.533
-0.0687943 -7.61524e-06 0 590.743
-0.065237 -7.61524e-06 0 590.919
-0.0618454 -7.61524e-06 0 591.053
-0.058613 -7.61524e-06 0 591.15
-0.0555337 -7.61524e-06 0 591.208
-0.0526013 -7.61524e-06 0 591.227
-0.0498099 -7.61524e-06 0 595.154
-0.0471536 -7.61524e-06 0 666.556
-0.0446266 -7.61524e-06 0 946.504
-0.0422235 -7.61524e-06 0 1187.07
-0.0399389 -7.61524e-06 0 1332.41
-0.0377676 -7.61524e-06 0 1426.24
-0.0357044 -7.61524e-06 0 1503.75
-0.0337445 -7.61524e-06 0 1566.73
-0.0318832 -7.61524e-06 0 1621.08
-0.0301159 -7.61524e-06 0 1667.45
-0.0284383 -7.61524e-06 0 1707.65
-0.0268462 -7.61524e-06 0 1743.13
-0.0253353 -7.61524e-06 0 1774.92
-0.023902 -7.61524e-06 0 1803.75
-0.0225425 -7.61524e-06 0 1830.01
-0.0212532 -7.61524e-06 0 1854.06
-0.0200306 -7.61524e-06 0 1876.04
-0.0188715 -7.61524e-06 0 1895.96
-0.0177727 -7.61524e-06 0 1914.03
-0.0167313 -7.61524e-06 0 1930.37
-0.0157444 -7.61524e-06 0 1944.99
-0.0148093 -7.61524e-06 0 1957.89
-0.0139232 -7.61524e-06 0 1969.12
-0.0130838 -7.61524e-06 0 1978.77
-0.0122887 -7.61524e-06 0 1986.94
-0.0115355 -7.61524e-06 0 1993.76
-0.0108223 -7.61524e-06 0 1999.59
-0.0101469 -7.61524e-06 0 2004.45
-0.00950727 -7.61524e-06 0 2008.67
-0.00890169 -7.61524e-06 0 2012.45
-0.00832834 -7.61524e-06 0 2016.01
-0.00778557 -7.61524e-06 0 2019.55
-0.00727176 -7.61524e-06 0 2023.26
-0.00678541 -7.61524e-06 0 2027.39
-0.00632507 -7.61524e-06 0 2032.11
-0.00588937 -7.61524e-06 0 2037.52
-0.00547703 -7.61524e-06 0 2043.81
-0.00508681 -7.61524e-06 0 2051.06
-0.00471753 -7.61524e-06 0 2059.38
-0.0043681 -7.61524e-06 0 2068.99
-0.00403746 -7.61524e-06 0 2079.85
-0.00372461 -7.61524e-06 0 2092.11
-0.0034286 -7.61524e-06 0 2105.21
-0.00314855 -7.61524e-06 0 2119.63
-0.00288361 -7.61524e-06 0 2135.13
-0.00263295 -7.61524e-06 0 2151.67
-0.00239582 -7.61524e-06 0 2168.98
-0.00217149 -7.61524e-06 0 2186.77
-0.00195929 -7.61524e-06 0 2204.82
-0.00175856 -7.61524e-06 0 2223.04
-0.00156869 -7.61524e-06 0 2240.91
-0.00138908 -7.61524e-06 0 2258.08
-0.00121921 -7.61524e-06 0 2274.03
-0.00105853 -7.61524e-06 0 2288.21
-0.000906546 -7.61524e-06 0 2300.02
-0.000762803 -7.61524e-06 0 2308.87
-0.000626849 -7.61524e-06 0 2314.27
-0.000498266 -7.61524e-06 0 2316.2
-0.000376656 -7.61524e-06 0 2314.95
-0.000261642 -7.61524e-06 0 2311.11
-0.00015287 -7.61524e-06 0 2306.88
-5e-05 -7.61524e-06 0 2301.99
4.14596e-05 2.03453e-05 0 2287.6
0.000125379 7.69412e-05 0 2286.19
0.000211356 0.000134924 0 2281.28
0.000299438 0.000194328 0 2275.68
0.000389678 0.000255186 0 2269.09
0.000482128 0.000317535 0 2261.94
0.000576841 0.000381409 0 2254.35
0.000673871 0.000446848 0 2246.42
0.000773276 0.000513887 0 2238.26
0.000875112 0.000582565 0 2229.99
0.000979439 0.000652924 0 2221.73
0.00108632 0.000725003 0 2213.64
0.00119581 0.000798843 0 2205.85
0.00130797 0.000874487 0 2198.5
0.00142287 0.000951979 0 2191.74
0.00154058 0.00103136 0 2185.64
0.00166117 0.00111268 0 2180.41
0.00178469 0.00119599 0 2176.02
0.00191123 0.00128133 0 2172.62
0.00204085 0.00136875 0 2170.35
0.00217364 0.0014583 0 2168.88
0.00230966 0.00155003 0 2168.74
0.00244899 0.001644 0 2169.77
0.00259171 0.00174025 0 2171.9
0.00273791 0.00183885 0 2175.16
0.00288767 0.00193985 0 2179.66
0.00304108 0.0020433 0 2185.3
0.0031982 0.00214927 0 2192.03
0.00335915 0.00225781 0 2199.93
0.003524 0.002369 0 2209
0.00369286 0.00248287 0 2219.2
0.00386582 0.00259951 0 2230.56
0.00404297 0.00271899 0 2243.08
0.00422442 0.00284136 0 2256.74
0.00441026 0.00296669 0 2271.57
0.0046006 0.00309506 0 2287.57
0.00479556 0.00322653 0 2304.78
0.00499523 0.00336119 0 2323.16
0.00519972 0.00349911 0 2342.8
0.00540916 0.00364036 0 2363.72
0.00562366 0.00378501 0 2385.95
0.00584334 0.00393316 0 2409.52
0.00606831 0.00408489 0 2434.52
0.00629871 0.00424027 0 2460.96
0.00653466 0.0043994 0 2488.97
0.00677629 0.00456236 0 2518.56
0.00702374 0.00472923 0 2549.86
0.00727714 0.00490013 0 2582.93
0.00753663 0.00507513 0 2617.92
0.00780234 0.00525433 0 2654.9
0.00807444 0.00543783 0 2694.02
0.00835306 0.00562573 0 2735.44
0.00863835 0.00581814 0 2779.27
0.00893047 0.00601514 0 2825.72
0.00922958 0.00621687 0 2874.93
0.00953584 0.00642341 0 2927.16
0.00984939 0.00663489 0 2982.53
0.0101705 0.00685141 0 3041.44
0.0104992 0.00707309 0 3103.98
0.0108357 0.00730005 0 3170.43
0.0111802 0.00753241 0 3241.2
0.011533 0.0077703 0 3316.52
0.0118941 0.00801384 0 3396.77
0.0122638 0.00826316 0 3482.35
0.0126422 0.00851837 0 3573.52
0.0130296 0.00877964 0 3670.96
0.0134262 0.00904708 0 3774.95
0.0138321 0.00932084 0 3886.24
0.0142476 0.00960107 0 4005.21
0.0146729 0.00988792 0 4132.74
0.0151082 0.0101815 0 4269.43
0.0155538 0.0104819 0 4416.16
0.0160098 0.0107895 0 4573.79
0.0164766 0.0111042 0 4743.22
0.0169542 0.0114263 0 4925.8
0.0174429 0.011756 0 5122.58
0.0179431 0.0120934 0 5335.19
0.018455 0.0124386 0 5565.09
0.0189789 0.0127918 0 5813.83
0.0195149 0.0131533 0 6083.05
0.0200633 0.0135232 0 6374.52
0.0206245 0.0139016 0 6689.74
0.0211986 0.0142888 0 7030.97
0.0217861 0.014685 0 7400.05
0.022387 0.0150903 0 7800.07
0.0230018 0.0155049 0 8233.47
0.0236307 0.0159291 0 8703.23
0.0242741 0.0163629 0 9212.47
0.0249322 0.0168068 0 9764.42
0.0256053 0.0172608 0 10363.7
0.0262939 0.0177251 0 11013.8
0.0269981 0.0182 0 11718.5
0.0277183 0.0186857 0 12481.1
0.0284548 0.0191825 0 13301.2
0.029208 0.0196904 0 14171.9
0.0299782 0.0202098 0 15090
0.0307658 0.0207409 0 16044.5
0.031571 0.021284 0 17022.5
0.0323942 0.0218393 0 18000.1
0.033236 0.0224069 0 18963.1
0.0340965 0.0229872 0 19900.7
0.0349762 0.0235805 0 20794.5
0.0358753 0.0241869 0 21578.6
0.0367944 0.0248067 0 22153.9
0.0377338 0.0254403 0 22395.9
0.0386938 0.0260877 0 22665.7
0.039675 0.0267494 0 22001.4
0.0406776 0.0274256 0 21296.7
0.0417021 0.0281165 0 20505.8
0.0427488 0.0288225 0 19629.1
0.0438183 0.0295437 0 18724.7
0.0449109 0.0302805 0 17918.9
0.046027 0.0310332 0 17253.1
0.0471671 0.0318021 0 16724.8
0.0483315 0.0325874 0 16311.1
0.0495209 0.0333895 0 15989.1
0.0507354 0.0342086 0 15716.5
0.0519756 0.035045 0 15473.9
0.053242 0.0358991 0 15254.4
0.054535 0.036771 0 15110.7
0.0558549 0.0376613 0 15063.8
0.0572024 0.03857 0 15060.7
0.0585778 0.0394976 0 15042.3
0.0599816 0.0404443 0 14989.9
0.0614142 0.0414105 0 14924.6
0.0628761 0.0423964 0 14891.4
0.0643678 0.0434024 0 14912.4
0.0658897 0.0444287 0 14961.5
0.0674422 0.0454758 0 14975.3
0.069026 0.0465439 0 14954.1
0.0706413 0.0476333 0 14908
0.0722886 0.0487443 0 14864.1
0.0739685 0.0498771 0 14828.1
0.0756813 0.0510323 0 14803.3
0.0774275 0.05221 0 14774.1
0.0792077 0.0534105 0 14737.5
0.0810221 0.0546342 0 14702.3
0.0828712 0.0558812 0 14691.7
0.0847556 0.0571521 0 14706.2
0.0866757 0.058447 0 14729.5
0.0886318 0.0597661 0 14746.3
0.0906244 0.06111 0 14738.2
0.0926539 0.0624787 0 14709.2
0.0947207 0.0638726 0 14671.1
0.0968252 0.0652919 0 14639.9
0.0989682 0.066737 0 14626.4
0.101149 0.068208 0 14619.7
0.103369 0.0697052 0 14618
0.105629 0.0712289 0 14599.8
0.107928 0.0727794 0 14597.8
0.110267 0.0743568 0 14588.7
0.112646 0.0759614 0 14573.4
0.115066 0.0775934 0 14538.2
0.117527 0.079253 0 14512
0.120029 0.0809404 0 14494.7
0.122572 0.0826558 0 14481.7
0.125158 0.0843994 0 14461.1
0.127785 0.0861713 0 14446.7
0.130454 0.0879717 0 14428.2
0.133167 0.0898008 0 14422.3
0.135921 0.0916586 0 14398.1
0.138719 0.0935453 0 14372.3
0.141559 0.095461 0 14341.2
0.144443 0.0974057 0 14335.5
0.14737 0.0993798 0 14335.8
0.15034 0.101383 0 14328.1
0.153354 0.103415 0 14367.7
0.156411 0.105477 0 14408.5
0.159511 0.107568 0 14419.9
0.162655 0.109688 0 14416.3
0.165842 0.111837 0 14354.3
0.169073 0.114016 0 14278.7
0.172346 0.116223 0 14242.2
0.175663 0.118461 0 14225.1
0.179022 0.120727 0 14199.5
0.182425 0.123021 0 14301.8
0.18587 0.125344 0 14355.8
0.189357 0.127696 0 14379.8
0.192886 0.130076 0 14366.1
0.196457 0.132484 0 14291.7
0.200069 0.13492 0 14238.2
0.203722 0.137384 0 14229.5
0.207416 0.139875 0 14241.6
0.21115 0.142393 0 14247.5
0.214924 0.144938 0 14235.5
0.218736 0.147509 0 14202
0.222587 0.150107 0 14198.6
0.226476 0.152729 0 14211.8
0.230403 0.155377 0 14220
0.234366 0.15805 0 14163.8
0.238366 0.160748 0 14093.2
0.242401 0.163469 0 14034.8
0.24647 0.166214 0 14023.7
0.250573 0.168981 0 14039.8
0.25471 0.17177 0 14040.8
0.258878 0.174582 0 13983.9
0.263078 0.177414 0 13954.5
0.267309 0.180266 0 13934.6
0.271568 0.183139 0 14005.9
0.275856 0.186031 0 14029.1
0.280172 0.188942 0 14043.7
0.284514 0.19187 0 13961.5
0.288881 0.194815 0 13897
0.293272 0.197777 0 13846.2
0.297687 0.200754 0 13830.4
0.302124 0.203746 0 13861.8
0.306581 0.206752 0 13867.8
0.311058 0.209772 0 13852.4
0.315554 0.212804 0 13832.8
0.320067 0.215847 0 13816
0.324595 0.218901 0 13882.2
0.329138 0.221965 0 13927.7
0.333695 0.225038 0 13942.6
0.338264 0.228119 0 13932.3
0.342843 0.231208 0 13855.6
0.347432 0.234302 0 13791.8
0.352029 0.237402 0 13757.5
0.356632 0.240507 0 13811.1
0.361241 0.243616 0 13864.7
0.365854 0.246727 0 13883.2
0.370469 0.249839 0 13887.6
0.375085 0.252953 0 13822.4
0.379702 0.256066 0 13769.4
0.384317 0.259178 0 13746.1
0.388929 0.262289 0 13797.5
0.393537 0.265396 0 13879.3
0.398139 0.2685 0 13955
0.402734 0.271598 0 13969.9
0.407321 0.274692 0 13963.7
0.411898 0.277779 0 13859.7
0.416464 0.280858 0 13762
0.421017 0.283929 0 13699.4
0.425557 0.286991 0 13723.7
0.430082 0.290042 0 13819.6
0.434591 0.293083 0 13926.1
0.439082 0.296112 0 14042.6
0.443555 0.299128 0 14059.9
0.448008 0.302131 0 14059.3
0.45244 0.30512 0 13920.6
0.456849 0.308094 0 13751.9
0.461235 0.311052 0 13641.2
0.465596 0.313993 0 13587.7
0.469932 0.316917 0 13639.9
0.474241 0.319823 0 13746.7
0.478523 0.322711 0 13907.5
0.482776 0.325579 0 14052.8
0.486999 0.328427 0 14125.3
0.491191 0.331254 0 14104.8
0.495353 0.334061 0 14003.1
