# wallHeatFlux  FACE_DATA 398
# x  y  z  wallHeatFlux
-0.7975 -7.61524e-06 0 -177986
-0.79239 -7.61524e-06 0 -35259.9
-0.787056 -7.61524e-06 0 -21454.3
-0.781492 -7.61524e-06 0 -17060.8
-0.775691 -7.61524e-06 0 -14341.4
-0.769649 -7.61524e-06 0 -12591.2
-0.763361 -7.61524e-06 0 -11390.9
-0.756822 -7.61524e-06 0 -10476.3
-0.750025 -7.61524e-06 0 -9779.6
-0.742968 -7.61524e-06 0 -9205.41
-0.735648 -7.61524e-06 0 -9327.53
-0.72806 -7.61524e-06 0 -9902.32
-0.720203 -7.61524e-06 0 -11005.4
-0.712075 -7.61524e-06 0 -12078.1
-0.703676 -7.61524e-06 0 -12858.9
-0.695006 -7.61524e-06 0 -13389.7
-0.686065 -7.61524e-06 0 -13750.4
-0.676855 -7.61524e-06 0 -13972.7
-0.667379 -7.61524e-06 0 -14088.2
-0.657641 -7.61524e-06 0 -14139.8
-0.647644 -7.61524e-06 0 -14153.3
-0.637398 -7.61524e-06 0 -14118.4
-0.626906 -7.61524e-06 0 -14051.8
-0.616179 -7.61524e-06 0 -13978.5
-0.605225 -7.61524e-06 0 -13889.4
-0.594054 -7.61524e-06 0 -13788.9
-0.582677 -7.61524e-06 0 -13693
-0.57111 -7.61524e-06 0 -13601.8
-0.559364 -7.61524e-06 0 -13505.1
-0.547454 -7.61524e-06 0 -13407.5
-0.535396 -7.61524e-06 0 -13309.6
-0.523205 -7.61524e-06 0 -13215.8
-0.510901 -7.61524e-06 0 -13127.5
-0.498499 -7.61524e-06 0 -13038
-0.486021 -7.61524e-06 0 -12964.2
-0.473482 -7.61524e-06 0 -12895.3
-0.460905 -7.61524e-06 0 -12825.5
-0.448307 -7.61524e-06 0 -12750.2
-0.435709 -7.61524e-06 0 -12679.7
-0.42313 -7.61524e-06 0 -12613.8
-0.41059 -7.61524e-06 0 -12569.1
-0.39811 -7.61524e-06 0 -12529.4
-0.385706 -7.61524e-06 0 -12473
-0.373398 -7.61524e-06 0 -12411.2
-0.361205 -7.61524e-06 0 -12343.7
-0.349142 -7.61524e-06 0 -12297.2
-0.337226 -7.61524e-06 0 -12261.4
-0.325475 -7.61524e-06 0 -12236.2
-0.313901 -7.61524e-06 0 -12210.9
-0.30252 -7.61524e-06 0 -12169.3
-0.291343 -7.61524e-06 0 -12106.5
-0.280381 -7.61524e-06 0 -12049.1
-0.269647 -7.61524e-06 0 -11996.9
-0.259148 -7.61524e-06 0 -11950.1
-0.248893 -7.61524e-06 0 -11919.9
-0.23889 -7.61524e-06 0 -11911.3
-0.229143 -7.61524e-06 0 -11902.5
-0.219659 -7.61524e-06 0 -11894.1
-0.210441 -7.61524e-06 0 -11885.7
-0.201491 -7.61524e-06 0 -11872.8
-0.192812 -7.61524e-06 0 -11859.3
-0.184405 -7.61524e-06 0 -11831
-0.176269 -7.61524e-06 0 -11802.1
-0.168404 -7.61524e-06 0 -11768.4
-0.160809 -7.61524e-06 0 -11734.7
-0.15348 -7.61524e-06 0 -11701.8
-0.146415 -7.61524e-06 0 -11669.2
-0.13961 -7.61524e-06 0 -11641.6
-0.133063 -7.61524e-06 0 -11614.4
-0.126767 -7.61524e-06 0 -11587.5
-0.120717 -7.61524e-06 0 -11571.5
-0.11491 -7.61524e-06 0 -11555.6
-0.109339 -7.61524e-06 0 -11545.2
-0.103997 -7.61524e-06 0 -11540.1
-0.0988804 -7.61524e-06 0 -11535.9
-0.0939809 -7.61524e-06 0 -11531.1
-0.0892928 -7.61524e-06 0 -11532
-0.0848096 -7.61524e-06 0 -11533
-0.0805248 -7.61524e-06 0 -11528.7
-0.0764317 -7.61524e-06 0 -11529.8
-0.0725237 -7.61524e-06 0 -11525.6
-0.0687943 -7.61524e-06 0 -11527
-0.065237 -7.61524e-06 0 -11522.9
-0.0618454 -7.61524e-06 0 -11524.3
-0.058613 -7.61524e-06 0 -11520.2
-0.0555337 -7.61524e-06 0 -11516.4
-0.0526013 -7.61524e-06 0 -11512.4
-0.0498099 -7.61524e-06 0 -11599.6
-0.0471536 -7.61524e-06 0 -12704.3
-0.0446266 -7.61524e-06 0 -13627.3
-0.0422235 -7.61524e-06 0 -12246.8
-0.0399389 -7.61524e-06 0 -12666.3
-0.0377676 -7.61524e-06 0 -13530.6
-0.0357044 -7.61524e-06 0 -14390
-0.0337445 -7.61524e-06 0 -15051
-0.0318832 -7.61524e-06 0 -15594.4
-0.0301159 -7.61524e-06 0 -16041.3
-0.0284383 -7.61524e-06 0 -16434.8
-0.0268462 -7.61524e-06 0 -16774.7
-0.0253353 -7.61524e-06 0 -17082.5
-0.023902 -7.61524e-06 0 -17358.3
-0.0225425 -7.61524e-06 0 -17601.7
-0.0212532 -7.61524e-06 0 -17797.6
-0.0200306 -7.61524e-06 0 -17944.5
-0.0188715 -7.61524e-06 0 -18043.5
-0.0177727 -7.61524e-06 0 -18104.9
-0.0167313 -7.61524e-06 0 -18145
-0.0157444 -7.61524e-06 0 -18174.3
-0.0148093 -7.61524e-06 0 -18208.8
-0.0139232 -7.61524e-06 0 -18265.8
-0.0130838 -7.61524e-06 0 -18353.8
-0.0122887 -7.61524e-06 0 -18481
-0.0115355 -7.61524e-06 0 -18660.9
-0.0108223 -7.61524e-06 0 -18895.1
-0.0101469 -7.61524e-06 0 -19177.9
-0.00950727 -7.61524e-06 0 -19525.6
-0.00890169 -7.61524e-06 0 -19922
-0.00832834 -7.61524e-06 0 -20367.2
-0.00778557 -7.61524e-06 0 -20861.3
-0.00727176 -7.61524e-06 0 -21399.1
-0.00678541 -7.61524e-06 0 -21975.1
-0.00632507 -7.61524e-06 0 -22579
-0.00588937 -7.61524e-06 0 -23210.6
-0.00547703 -7.61524e-06 0 -23864.8
-0.00508681 -7.61524e-06 0 -24536.6
-0.00471753 -7.61524e-06 0 -25226.1
-0.0043681 -7.61524e-06 0 -25928
-0.00403746 -7.61524e-06 0 -26621.3
-0.00372461 -7.61524e-06 0 -27301.2
-0.0034286 -7.61524e-06 0 -27967.9
-0.00314855 -7.61524e-06 0 -28627.3
-0.00288361 -7.61524e-06 0 -29270.2
-0.00263295 -7.61524e-06 0 -29874.8
-0.00239582 -7.61524e-06 0 -30443.5
-0.00217149 -7.61524e-06 0 -30955.4
-0.00195929 -7.61524e-06 0 -31396.8
-0.00175856 -7.61524e-06 0 -31791.8
-0.00156869 -7.61524e-06 0 -32028.8
-0.00138908 -7.61524e-06 0 -32100.7
-0.00121921 -7.61524e-06 0 -31982.8
-0.00105853 -7.61524e-06 0 -31614.8
-0.000906546 -7.61524e-06 0 -30931.9
-0.000762803 -7.61524e-06 0 -29857.2
-0.000626849 -7.61524e-06 0 -28318.4
-0.000498266 -7.61524e-06 0 -26265.4
-0.000376656 -7.61524e-06 0 -23670
-0.000261642 -7.61524e-06 0 -20462.4
-0.00015287 -7.61524e-06 0 -16478.9
-5e-05 -7.61524e-06 0 -11180.5
4.14596e-05 2.03453e-05 0 -10404.9
0.000125379 7.69412e-05 0 -13047.4
0.000211356 0.000134924 0 -14502.9
0.000299438 0.000194328 0 -15654.3
0.000389678 0.000255186 0 -16711.4
0.000482128 0.000317535 0 -17732
0.000576841 0.000381409 0 -18728.8
0.000673871 0.000446848 0 -19717.8
0.000773276 0.000513887 0 -20687.6
0.000875112 0.000582565 0 -21633.1
0.000979439 0.000652924 0 -22553.5
0.00108632 0.000725003 0 -23437
0.00119581 0.000798843 0 -24285
0.00130797 0.000874487 0 -25095.4
0.00142287 0.000951979 0 -25865.7
0.00154058 0.00103136 0 -26598.8
0.00166117 0.00111268 0 -27294.2
0.00178469 0.00119599 0 -27953.4
0.00191123 0.00128133 0 -28583.4
0.00204085 0.00136875 0 -29179.9
0.00217364 0.0014583 0 -29747.5
0.00230966 0.00155003 0 -30302.3
0.00244899 0.001644 0 -30830.7
0.00259171 0.00174025 0 -31344.8
0.00273791 0.00183885 0 -31844.3
0.00288767 0.00193985 0 -32337.2
0.00304108 0.0020433 0 -32813.4
0.0031982 0.00214927 0 -33284.9
0.00335915 0.00225781 0 -33756.1
0.003524 0.002369 0 -34232.8
0.00369286 0.00248287 0 -34707.7
0.00386582 0.00259951 0 -35183.4
0.00404297 0.00271899 0 -35671.8
0.00422442 0.00284136 0 -36164.9
0.00441026 0.00296669 0 -36670
0.0046006 0.00309506 0 -37186.1
0.00479556 0.00322653 0 -37712.8
0.00499523 0.00336119 0 -38264.9
0.00519972 0.00349911 0 -38828.2
0.00540916 0.00364036 0 -39418
0.00562366 0.00378501 0 -40023.8
0.00584334 0.00393316 0 -40656.2
0.00606831 0.00408489 0 -41309.8
0.00629871 0.00424027 0 -41995.2
0.00653466 0.0043994 0 -42712.6
0.00677629 0.00456236 0 -43459.6
0.00702374 0.00472923 0 -44243.5
0.00727714 0.00490013 0 -45066.5
0.00753663 0.00507513 0 -45927.8
0.00780234 0.00525433 0 -46835.2
0.00807444 0.00543783 0 -47791.7
0.00835306 0.00562573 0 -48799.1
0.00863835 0.00581814 0 -49861.9
0.00893047 0.00601514 0 -50984.3
0.00922958 0.00621687 0 -52168.4
0.00953584 0.00642341 0 -53420.8
0.00984939 0.00663489 0 -54761.3
0.0101705 0.00685141 0 -56156.8
0.0104992 0.00707309 0 -57634.5
0.0108357 0.00730005 0 -59226.4
0.0111802 0.00753241 0 -60908.9
0.011533 0.0077703 0 -62673.2
0.0118941 0.00801384 0 -64571.8
0.0122638 0.00826316 0 -66578.5
0.0126422 0.00851837 0 -68705.5
0.0130296 0.00877964 0 -71000.7
0.0134262 0.00904708 0 -73430.4
0.0138321 0.00932084 0 -76009.9
0.0142476 0.00960107 0 -78785.8
0.0146729 0.00988792 0 -81762.6
0.0151082 0.0101815 0 -84940.3
0.0155538 0.0104819 0 -88349.2
0.0160098 0.0107895 0 -92035.6
0.0164766 0.0111042 0 -96000.7
0.0169542 0.0114263 0 -100236
0.0174429 0.011756 0 -104883
0.0179431 0.0120934 0 -109829
0.018455 0.0124386 0 -115259
0.0189789 0.0127918 0 -121075
0.0195149 0.0131533 0 -127341
0.0200633 0.0135232 0 -134063
0.0206245 0.0139016 0 -141268
0.0211986 0.0142888 0 -148969
0.0217861 0.014685 0 -157228
0.022387 0.0150903 0 -166081
0.0230018 0.0155049 0 -175606
0.0236307 0.0159291 0 -185811
0.0242741 0.0163629 0 -196726
0.0249322 0.0168068 0 -208443
0.0256053 0.0172608 0 -221114
0.0262939 0.0177251 0 -234719
0.0269981 0.0182 0 -249156
0.0277183 0.0186857 0 -264841
0.0284548 0.0191825 0 -281605
0.029208 0.0196904 0 -299372
0.0299782 0.0202098 0 -317513
0.0307658 0.0207409 0 -336233
0.031571 0.021284 0 -354788
0.0323942 0.0218393 0 -373068
0.033236 0.0224069 0 -390077
0.0340965 0.0229872 0 -405809
0.0349762 0.0235805 0 -419933
0.0358753 0.0241869 0 -431841
0.0367944 0.0248067 0 -438344
0.0377338 0.0254403 0 -438174
0.0386938 0.0260877 0 -439097
0.039675 0.0267494 0 -421771
0.0406776 0.0274256 0 -402223
0.0417021 0.0281165 0 -378681
0.0427488 0.0288225 0 -354759
0.0438183 0.0295437 0 -332722
0.0449109 0.0302805 0 -311352
0.046027 0.0310332 0 -293631
0.0471671 0.0318021 0 -279405
0.0483315 0.0325874 0 -268079
0.0495209 0.0333895 0 -258355
0.0507354 0.0342086 0 -249974
0.0519756 0.035045 0 -241953
0.053242 0.0358991 0 -233910
0.054535 0.036771 0 -227766
0.0558549 0.0376613 0 -224351
0.0572024 0.03857 0 -222585
0.0585778 0.0394976 0 -219802
0.0599816 0.0404443 0 -215789
0.0614142 0.0414105 0 -210863
0.0628761 0.0423964 0 -206845
0.0643678 0.0434024 0 -204878
0.0658897 0.0444287 0 -204661
0.0674422 0.0454758 0 -203112
0.069026 0.0465439 0 -200164
0.0706413 0.0476333 0 -196919
0.0722886 0.0487443 0 -193601
0.0739685 0.0498771 0 -191412
0.0756813 0.0510323 0 -189492
0.0774275 0.05221 0 -187498
0.0792077 0.0534105 0 -185459
0.0810221 0.0546342 0 -182369
0.0828712 0.0558812 0 -180005
0.0847556 0.0571521 0 -178706
0.0866757 0.058447 0 -177731
0.0886318 0.0597661 0 -177614
0.0906244 0.06111 0 -177089
0.0926539 0.0624787 0 -175713
0.0947207 0.0638726 0 -174047
0.0968252 0.0652919 0 -172201
0.0989682 0.066737 0 -169574
0.101149 0.068208 0 -168044
0.103369 0.0697052 0 -166611
0.105629 0.0712289 0 -167620
0.107928 0.0727794 0 -165346
0.110267 0.0743568 0 -164841
0.112646 0.0759614 0 -162133
0.115066 0.0775934 0 -163120
0.117527 0.079253 0 -159559
0.120029 0.0809404 0 -158781
0.122572 0.0826558 0 -157869
0.125158 0.0843994 0 -157239
0.127785 0.0861713 0 -157352
0.130454 0.0879717 0 -157040
0.133167 0.0898008 0 -155989
0.135921 0.0916586 0 -154574
0.138719 0.0935453 0 -153046
0.141559 0.095461 0 -152988
0.144443 0.0974057 0 -149377
0.14737 0.0993798 0 -146691
0.15034 0.101383 0 -147263
0.153354 0.103415 0 -147153
0.156411 0.105477 0 -146398
0.159511 0.107568 0 -148356
0.162655 0.109688 0 -145391
0.165842 0.111837 0 -145140
0.169073 0.114016 0 -147836
0.172346 0.116223 0 -141381
0.175663 0.118461 0 -139663
0.179022 0.120727 0 -144886
0.182425 0.123021 0 -139583
0.18587 0.125344 0 -138252
0.189357 0.127696 0 -139660
0.192886 0.130076 0 -139937
0.196457 0.132484 0 -141549
0.200069 0.13492 0 -139437
0.203722 0.137384 0 -135075
0.207416 0.139875 0 -134877
0.21115 0.142393 0 -136120
0.214924 0.144938 0 -134790
0.218736 0.147509 0 -135757
0.222587 0.150107 0 -132382
0.226476 0.152729 0 -132376
0.230403 0.155377 0 -132358
0.234366 0.15805 0 -131563
0.238366 0.160748 0 -129928
0.242401 0.163469 0 -132844
0.24647 0.166214 0 -131065
0.250573 0.168981 0 -128357
0.25471 0.17177 0 -127964
0.258878 0.174582 0 -129355
0.263078 0.177414 0 -127409
0.267309 0.180266 0 -134968
0.271568 0.183139 0 -125729
0.275856 0.186031 0 -126551
0.280172 0.188942 0 -127560
0.284514 0.19187 0 -134134
0.288881 0.194815 0 -127835
0.293272 0.197777 0 -124303
0.297687 0.200754 0 -131838
0.302124 0.203746 0 -124369
0.306581 0.206752 0 -124366
0.311058 0.209772 0 -123702
0.315554 0.212804 0 -124530
0.320067 0.215847 0 -133651
0.324595 0.218901 0 -124722
0.329138 0.221965 0 -125002
0.333695 0.225038 0 -124980
0.338264 0.228119 0 -124635
0.342843 0.231208 0 -124396
0.347432 0.234302 0 -123159
0.352029 0.237402 0 -124303
0.356632 0.240507 0 -123559
0.361241 0.243616 0 -122897
0.365854 0.246727 0 -123357
0.370469 0.249839 0 -125616
0.375085 0.252953 0 -126833
0.379702 0.256066 0 -123443
0.384317 0.259178 0 -123693
0.388929 0.262289 0 -124166
0.393537 0.265396 0 -123616
0.398139 0.2685 0 -125151
0.402734 0.271598 0 -125577
0.407321 0.274692 0 -123640
0.411898 0.277779 0 -122706
0.416464 0.280858 0 -122535
0.421017 0.283929 0 -123280
0.425557 0.286991 0 -126537
0.430082 0.290042 0 -125488
0.434591 0.293083 0 -131253
0.439082 0.296112 0 -123173
0.443555 0.299128 0 -129518
0.448008 0.302131 0 -126221
0.45244 0.30512 0 -124946
0.456849 0.308094 0 -135431
0.461235 0.311052 0 -127959
0.465596 0.313993 0 -126221
0.469932 0.316917 0 -119956
0.474241 0.319823 0 -122568
0.478523 0.322711 0 -124200
0.482776 0.325579 0 -124122
0.486999 0.328427 0 -126566
0.491191 0.331254 0 -137052
0.495353 0.334061 0 -117407
