# y+ ()       
# Time        	patch         	min           	max           	average       
8800          	base	7.198408e-03	2.425114e+01	5.478600e+00
