# p  FACE_DATA 448
# x  y  z  p
-0.778 -3.80769e-06 0 1196.57
-0.773968 -3.80769e-06 0 934.751
-0.769872 -3.80769e-06 0 761.611
-0.76571 -3.80769e-06 0 735.178
-0.761486 -3.80769e-06 0 699.3
-0.757196 -3.80769e-06 0 676.513
-0.752841 -3.80769e-06 0 663.99
-0.748422 -3.80769e-06 0 654.449
-0.743939 -3.80769e-06 0 647.97
-0.739391 -3.80769e-06 0 642.767
-0.73478 -3.80769e-06 0 638.279
-0.730104 -3.80769e-06 0 634.228
-0.725364 -3.80769e-06 0 630.106
-0.720562 -3.80769e-06 0 625.604
-0.715696 -3.80769e-06 0 619.494
-0.710769 -3.80769e-06 0 613.853
-0.705778 -3.80769e-06 0 608.083
-0.700727 -3.80769e-06 0 605.006
-0.695615 -3.80769e-06 0 604.197
-0.690443 -3.80769e-06 0 605.979
-0.685211 -3.80769e-06 0 608.571
-0.67992 -3.80769e-06 0 611.402
-0.674571 -3.80769e-06 0 613.984
-0.669166 -3.80769e-06 0 616.213
-0.663704 -3.80769e-06 0 618.168
-0.658187 -3.80769e-06 0 619.924
-0.652616 -3.80769e-06 0 621.441
-0.646993 -3.80769e-06 0 622.597
-0.641317 -3.80769e-06 0 623.404
-0.635592 -3.80769e-06 0 624.01
-0.629817 -3.80769e-06 0 624.555
-0.623994 -3.80769e-06 0 624.925
-0.618125 -3.80769e-06 0 625.091
-0.61221 -3.80769e-06 0 625.12
-0.606252 -3.80769e-06 0 625.124
-0.600253 -3.80769e-06 0 625.01
-0.594213 -3.80769e-06 0 624.833
-0.588134 -3.80769e-06 0 624.628
-0.582018 -3.80769e-06 0 624.492
-0.575867 -3.80769e-06 0 624.26
-0.569683 -3.80769e-06 0 623.857
-0.563467 -3.80769e-06 0 623.355
-0.557221 -3.80769e-06 0 622.923
-0.550946 -3.80769e-06 0 622.677
-0.544647 -3.80769e-06 0 622.483
-0.538323 -3.80769e-06 0 622.082
-0.531979 -3.80769e-06 0 621.541
-0.525613 -3.80769e-06 0 620.998
-0.51923 -3.80769e-06 0 620.658
-0.512832 -3.80769e-06 0 620.495
-0.50642 -3.80769e-06 0 620.21
-0.499995 -3.80769e-06 0 619.68
-0.493562 -3.80769e-06 0 619.01
-0.487123 -3.80769e-06 0 618.396
-0.480677 -3.80769e-06 0 618.103
-0.47423 -3.80769e-06 0 618.178
-0.467782 -3.80769e-06 0 618.22
-0.461335 -3.80769e-06 0 617.881
-0.454892 -3.80769e-06 0 617.267
-0.448455 -3.80769e-06 0 616.544
-0.442026 -3.80769e-06 0 615.916
-0.435607 -3.80769e-06 0 615.601
-0.429202 -3.80769e-06 0 615.746
-0.42281 -3.80769e-06 0 615.936
-0.416434 -3.80769e-06 0 615.985
-0.410078 -3.80769e-06 0 615.508
-0.403743 -3.80769e-06 0 614.65
-0.39743 -3.80769e-06 0 613.736
-0.391141 -3.80769e-06 0 612.939
-0.38488 -3.80769e-06 0 612.505
-0.378648 -3.80769e-06 0 612.415
-0.372446 -3.80769e-06 0 613.078
-0.366277 -3.80769e-06 0 613.464
-0.360142 -3.80769e-06 0 613.612
-0.354042 -3.80769e-06 0 613.358
-0.347981 -3.80769e-06 0 612.665
-0.341959 -3.80769e-06 0 611.594
-0.335978 -3.80769e-06 0 610.526
-0.33004 -3.80769e-06 0 609.604
-0.324146 -3.80769e-06 0 609.022
-0.318298 -3.80769e-06 0 608.836
-0.312497 -3.80769e-06 0 609.222
-0.306744 -3.80769e-06 0 609.979
-0.301041 -3.80769e-06 0 610.619
-0.29539 -3.80769e-06 0 611.072
-0.28979 -3.80769e-06 0 611.266
-0.284243 -3.80769e-06 0 611.269
-0.278752 -3.80769e-06 0 610.778
-0.273316 -3.80769e-06 0 609.973
-0.267937 -3.80769e-06 0 608.851
-0.262614 -3.80769e-06 0 607.69
-0.25735 -3.80769e-06 0 606.654
-0.252146 -3.80769e-06 0 605.828
-0.247001 -3.80769e-06 0 605.33
-0.241916 -3.80769e-06 0 605.202
-0.236893 -3.80769e-06 0 605.287
-0.231931 -3.80769e-06 0 605.883
-0.227031 -3.80769e-06 0 606.502
-0.222195 -3.80769e-06 0 607.123
-0.217421 -3.80769e-06 0 607.664
-0.212711 -3.80769e-06 0 608.054
-0.208064 -3.80769e-06 0 608.27
-0.203482 -3.80769e-06 0 608.312
-0.198964 -3.80769e-06 0 608.191
-0.19451 -3.80769e-06 0 607.829
-0.19012 -3.80769e-06 0 607.335
-0.185796 -3.80769e-06 0 606.699
-0.181535 -3.80769e-06 0 605.988
-0.17734 -3.80769e-06 0 605.193
-0.173208 -3.80769e-06 0 604.398
-0.169141 -3.80769e-06 0 603.653
-0.165138 -3.80769e-06 0 602.993
-0.161199 -3.80769e-06 0 602.435
-0.157325 -3.80769e-06 0 602.023
-0.153513 -3.80769e-06 0 601.762
-0.149765 -3.80769e-06 0 601.647
-0.14608 -3.80769e-06 0 601.624
-0.142457 -3.80769e-06 0 601.811
-0.138897 -3.80769e-06 0 602.103
-0.135398 -3.80769e-06 0 602.506
-0.131961 -3.80769e-06 0 602.982
-0.128584 -3.80769e-06 0 603.5
-0.125268 -3.80769e-06 0 604.033
-0.122011 -3.80769e-06 0 604.532
-0.118815 -3.80769e-06 0 604.963
-0.115677 -3.80769e-06 0 605.33
-0.112597 -3.80769e-06 0 605.624
-0.109574 -3.80769e-06 0 605.849
-0.106609 -3.80769e-06 0 605.999
-0.1037 -3.80769e-06 0 606.087
-0.100846 -3.80769e-06 0 606.112
-0.098048 -3.80769e-06 0 606.105
-0.0953042 -3.80769e-06 0 605.993
-0.0926143 -3.80769e-06 0 605.873
-0.0899773 -3.80769e-06 0 605.707
-0.0873927 -3.80769e-06 0 605.5
-0.0848599 -3.80769e-06 0 605.249
-0.082378 -3.80769e-06 0 604.967
-0.0799465 -3.80769e-06 0 604.654
-0.0775645 -3.80769e-06 0 604.317
-0.0752312 -3.80769e-06 0 603.958
-0.0729462 -3.80769e-06 0 603.589
-0.0707085 -3.80769e-06 0 603.215
-0.0685175 -3.80769e-06 0 602.84
-0.0663725 -3.80769e-06 0 602.469
-0.0642727 -3.80769e-06 0 602.111
-0.0622173 -3.80769e-06 0 601.767
-0.0602058 -3.80769e-06 0 601.439
-0.0582373 -3.80769e-06 0 601.126
-0.0563111 -3.80769e-06 0 600.829
-0.0544265 -3.80769e-06 0 600.549
-0.0525827 -3.80769e-06 0 600.28
-0.0507792 -3.80769e-06 0 600.029
-0.0490152 -3.80769e-06 0 599.79
-0.0472898 -3.80769e-06 0 599.567
-0.0456025 -3.80769e-06 0 599.354
-0.0439526 -3.80769e-06 0 599.156
-0.0423394 -3.80769e-06 0 598.968
-0.0407622 -3.80769e-06 0 598.795
-0.0392203 -3.80769e-06 0 598.628
-0.0377131 -3.80769e-06 0 598.485
-0.0362398 -3.80769e-06 0 598.368
-0.0347999 -3.80769e-06 0 598.323
-0.0333926 -3.80769e-06 0 598.4
-0.0320175 -3.80769e-06 0 598.84
-0.0306737 -3.80769e-06 0 599.788
-0.0293607 -3.80769e-06 0 601.756
-0.0280779 -3.80769e-06 0 605.451
-0.0268246 -3.80769e-06 0 611.922
-0.0256004 -3.80769e-06 0 622.45
-0.0244045 -3.80769e-06 0 638.357
-0.0232363 -3.80769e-06 0 660.376
-0.0220954 -3.80769e-06 0 688.239
-0.0209812 -3.80769e-06 0 720.424
-0.019893 -3.80769e-06 0 755.062
-0.0188303 -3.80769e-06 0 790.468
-0.0177927 -3.80769e-06 0 825.961
-0.0167794 -3.80769e-06 0 861.117
-0.0157901 -3.80769e-06 0 895.875
-0.0148243 -3.80769e-06 0 929.871
-0.0138814 -3.80769e-06 0 963.368
-0.0129608 -3.80769e-06 0 996.011
-0.0120623 -3.80769e-06 0 1027.72
-0.0111851 -3.80769e-06 0 1058.11
-0.0103289 -3.80769e-06 0 1087.23
-0.00949328 -3.80769e-06 0 1114.92
-0.00867767 -3.80769e-06 0 1141.41
-0.00788168 -3.80769e-06 0 1166.62
-0.00710485 -3.80769e-06 0 1190.84
-0.00634675 -3.80769e-06 0 1213.92
-0.00560698 -3.80769e-06 0 1235.95
-0.0048851 -3.80769e-06 0 1256.62
-0.00418071 -3.80769e-06 0 1275.89
-0.00349342 -3.80769e-06 0 1292.97
-0.00282284 -3.80769e-06 0 1308.2
-0.00216857 -3.80769e-06 0 1322.33
-0.00153026 -3.80769e-06 0 1338.23
-0.00090752 -3.80769e-06 0 1363.88
-0.0003 -3.80769e-06 0 1421.98
0.000259937 0.000146262 2.25537e-21 1367.33
0.000779437 0.000446185 0 1413.54
0.00129893 0.000746101 0 1439.92
0.00181858 0.00104611 2.2554e-21 1482.18
0.00233835 0.00134618 -2.25541e-21 1530.68
0.00285828 0.00164636 2.25542e-21 1588.97
0.00337841 0.00194664 0 1657
0.00389877 0.00224706 0 1734.9
0.00441941 0.00254764 -2.25544e-21 1823
0.00494034 0.00284839 2.25545e-21 1923.2
0.00546162 0.00314934 -2.25546e-21 2034.79
0.00598328 0.0034505 2.25547e-21 2157.87
0.00650535 0.00375191 2.25547e-21 2291.31
0.00702786 0.00405357 2.25548e-21 2435.53
0.00755087 0.00435552 0 2589.39
0.00807439 0.00465776 -2.25549e-21 2752.6
0.00859847 0.00496033 2.2555e-21 2924.1
0.00912315 0.00526324 0 3101.99
0.00964845 0.00556651 2.25551e-21 3285.16
0.0101744 0.00587017 0 3471.94
0.0107011 0.00617424 0 3661.3
0.0112285 0.00647873 -2.25552e-21 3853.67
0.0117567 0.00678367 0 4048.67
0.0122857 0.00708907 0 4246.79
0.0128156 0.00739497 0 4448.51
0.0133463 0.00770137 -2.25554e-21 4654.47
0.0138779 0.00800831 0 4866.87
0.0144106 0.0083158 0 5089.18
0.0149442 0.00862387 0 5324.34
0.0154788 0.00893253 0 5578.88
0.0160145 0.00924181 0 5857
0.0165513 0.00955172 2.25556e-21 6165.02
0.0170893 0.00986231 -2.25556e-21 6507.45
0.0176284 0.0101736 0 6889.84
0.0181687 0.0104855 0 7321.54
0.0187103 0.0107982 2.25556e-21 7807.97
0.0192532 0.0111117 2.25557e-21 8352.32
0.0197975 0.0114259 2.25557e-21 8896.67
0.0203431 0.0117408 0 9521.62
0.0208901 0.0120566 4.51114e-21 10161.5
0.0214385 0.0123732 -4.51114e-21 10820.1
0.0219884 0.0126907 0 11372.6
0.0225398 0.0130091 4.51114e-21 11954.2
0.0230928 0.0133283 0 12506.7
0.0236474 0.0136485 0 13004.3
0.0242037 0.0139697 0 13368.1
0.0247616 0.0142918 -4.51113e-21 13668.5
0.0253212 0.0146148 -4.51113e-21 13918.6
0.0258825 0.0149389 -4.51114e-21 14151.9
0.0264456 0.015264 0 14359.8
0.0270106 0.0155902 0 14525.9
0.0275774 0.0159174 -4.51112e-21 14626.7
0.0281462 0.0162457 0 14678.5
0.0287168 0.0165752 4.51111e-21 14684.4
0.0292895 0.0169059 -4.51111e-21 14703.9
0.0298642 0.0172376 0 14756.4
0.0304409 0.0175706 0 14855.2
0.0310198 0.0179048 4.5111e-21 14967
0.0316007 0.0182402 4.5111e-21 15063.4
0.0321839 0.0185768 -4.51107e-21 15091.3
0.0327693 0.0189148 0 15034.1
0.0333569 0.0192541 0 14907.9
0.0339469 0.0195947 4.51106e-21 14706.4
0.0345392 0.0199366 0 14489.2
0.0351339 0.02028 0 14265.4
0.035731 0.0206247 4.51105e-21 14096.3
0.0363305 0.0209708 -4.51103e-21 13980.5
0.0369326 0.0213184 4.51102e-21 13891.4
0.0375373 0.0216675 0 13820
0.0381445 0.0220181 0 13744.9
0.0387543 0.0223702 0 13664.8
0.0393668 0.0227238 4.51099e-21 13586.9
0.0399821 0.023079 -4.51097e-21 13516.6
0.0406001 0.0234358 4.51097e-21 13453.2
0.041221 0.0237942 0 13394.2
0.0418446 0.0241542 0 13342.2
0.0424712 0.024516 4.51092e-21 13295.2
0.0431006 0.0248794 -4.51094e-21 13245.4
0.0437331 0.0252445 0 13209.7
0.0443686 0.0256114 4.51089e-21 13173.7
0.0450071 0.02598 4.51089e-21 13135.4
0.0456487 0.0263505 0 13113.3
0.0462935 0.0267227 0 13083.3
0.0469415 0.0270968 -4.51085e-21 13072.8
0.0475927 0.0274728 0 13049.6
0.0482473 0.0278507 -4.51081e-21 13024.3
0.0489051 0.0282305 4.51081e-21 12997.7
0.0495663 0.0286122 -4.51079e-21 12959.8
0.050231 0.0289959 0 12929.3
0.0508991 0.0293816 -4.51077e-21 12900.7
0.0515707 0.0297694 4.51073e-21 12880.5
0.0522459 0.0301592 -4.51073e-21 12859.5
0.0529247 0.0305511 0 12843.8
0.0536071 0.0309451 0 12820.7
0.0542933 0.0313412 -4.51067e-21 12805.9
0.0549832 0.0317395 0 12788.6
0.0556769 0.03214 0 12770.4
0.0563744 0.0325427 0 12747.2
0.0570758 0.0329477 -4.5106e-21 12722.1
0.0577812 0.0333549 0 12695.8
0.0584905 0.0337645 0 12672
0.0592039 0.0341763 -4.51056e-21 12652.7
0.0599214 0.0345905 4.51053e-21 12656.3
0.060643 0.0350071 0 12664.3
0.0613688 0.0354262 4.51049e-21 12675.8
0.0620989 0.0358477 -4.51048e-21 12680.1
0.0628332 0.0362716 4.51046e-21 12678.2
0.0635719 0.0366981 0 12667.1
0.0643149 0.037127 4.51041e-21 12645.8
0.0650624 0.0375586 0 12632.4
0.0658144 0.0379927 0 12611.9
0.0665709 0.0384295 4.51035e-21 12605.2
0.0673321 0.0388689 -4.51035e-21 12595
0.0680979 0.039311 0 12590.6
0.0688683 0.0397558 -4.51029e-21 12582.7
0.0696435 0.0402034 4.51029e-21 12573.8
0.0704236 0.0406537 0 12566.3
0.0712085 0.0411069 0 12555.5
0.0719983 0.0415628 0 12549.7
0.0727931 0.0420217 0 12545.4
0.0735929 0.0424834 0 12543
0.0743978 0.0429481 0 12545.6
0.0752078 0.0434158 0 12542.5
0.076023 0.0438864 4.5101e-21 12541.5
0.0768435 0.0443601 -4.51009e-21 12534.3
0.0776693 0.0448369 -4.51004e-21 12525.8
0.0785004 0.0453167 4.51003e-21 12514.9
0.079337 0.0457997 0 12503
0.080179 0.0462858 0 12493.2
0.0810266 0.0467751 0 12485.7
0.0818797 0.0472677 0 12477.8
0.0827385 0.0477635 0 12475
0.083603 0.0482626 0 12469.4
0.0844733 0.0487651 4.50985e-21 12467.3
0.0853495 0.0492709 -4.50983e-21 12462
0.0862316 0.0497801 0 12457.6
0.0871195 0.0502927 -4.50978e-21 12451.4
0.0880135 0.0508089 0 12439.9
0.0889136 0.0513285 0 12428.2
0.0898198 0.0518517 0 12414.9
0.0907322 0.0523785 0 12402.3
0.0916509 0.0529089 0 12390.9
0.0925758 0.0534429 4.50963e-21 12378.6
0.0935072 0.0539806 4.50959e-21 12367.9
0.094445 0.054522 0 12357.3
0.0953894 0.0550672 4.50953e-21 12346.1
0.0963404 0.0556162 0 12339
0.0972979 0.0561691 0 12330.8
0.0982622 0.0567258 0 12321.1
0.0992333 0.0572865 0 12311
0.100211 0.057851 0 12302.9
0.101196 0.0584196 0 12293.9
0.102188 0.0589922 4.50935e-21 12278.6
0.103187 0.0595689 4.50932e-21 12265.9
0.104193 0.0601497 -4.50928e-21 12259.8
0.105206 0.0607347 0 12248.4
0.106226 0.0613239 0 12246.9
0.107254 0.0619172 0 12241.8
0.10829 0.0625149 4.50918e-21 12249.4
0.109332 0.0631169 4.50915e-21 12252.8
0.110382 0.0637232 -4.50911e-21 12251.2
0.11144 0.064334 -4.50908e-21 12241.1
0.112506 0.0649492 4.50905e-21 12232.3
0.11358 0.0655688 4.50902e-21 12233.1
0.114661 0.066193 0 12217.9
0.11575 0.0668218 0 12211.9
0.116847 0.0674552 0 12202.9
0.117952 0.0680932 0 12191.2
0.119065 0.068736 0 12180.1
0.120187 0.0693834 4.50884e-21 12184.9
0.121316 0.0700357 0 12178.7
0.122455 0.0706928 0 12176.1
0.123601 0.0713548 -4.50875e-21 12181.5
0.124756 0.0720217 0 12173.1
0.12592 0.0726935 -4.5087e-21 12170.1
0.127093 0.0733704 0 12166.4
0.128274 0.0740524 0 12159.7
0.129464 0.0747395 4.50859e-21 12151.1
0.130663 0.0754317 0 12144.2
0.131871 0.0761292 4.50853e-21 12150.6
0.133088 0.0768319 4.50851e-21 12136
0.134315 0.0775399 0 12131.5
0.13555 0.0782532 4.50845e-21 12113.4
0.136795 0.078972 0 12098.4
0.13805 0.0796962 0 12082.4
0.139314 0.080426 -4.50834e-21 12072.6
0.140587 0.0811613 -4.50831e-21 12069.5
0.14187 0.0819021 4.50827e-21 12069.5
0.143163 0.0826487 0 12066.8
0.144466 0.0834009 0 12061.6
0.145779 0.0841589 0 12057.7
0.147102 0.0849227 4.50815e-21 12052
0.148435 0.0856924 4.50811e-21 12037.8
0.149779 0.0864679 0 12032.9
0.151133 0.0872495 4.50805e-21 12027.9
0.152497 0.0880371 4.50801e-21 12030.1
0.153871 0.0888307 4.50798e-21 12026.8
0.155257 0.0896305 0 12018.2
0.156653 0.0904364 4.50791e-21 12013.1
0.15806 0.0912487 4.50787e-21 11997.2
0.159478 0.0920672 0 11995.5
0.160907 0.092892 0 11985.2
0.162347 0.0937233 0 11980.8
0.163798 0.0945611 4.50774e-21 11981.5
0.16526 0.0954054 0 11979.6
0.166734 0.0962563 0 11986.9
0.168219 0.0971138 0 11979.2
0.169716 0.097978 4.50761e-21 11967.6
0.171225 0.098849 4.50758e-21 11960.5
0.172745 0.0997268 4.50754e-21 11946.9
0.174278 0.100611 0 11942
0.175822 0.101503 0 11939.6
0.177379 0.102402 0 11952.4
0.178947 0.103308 4.50741e-21 11948.4
0.180529 0.10422 4.50737e-21 11932.1
0.182122 0.10514 4.50734e-21 11924.9
0.183728 0.106068 0 11912.3
0.185347 0.107002 -4.50727e-21 11889.1
0.186979 0.107944 0 11877.5
0.188623 0.108894 0 11882.4
0.190281 0.109851 4.50716e-21 11879.4
0.191952 0.110815 0 11892.5
0.193636 0.111787 -4.5071e-21 11894.5
0.195333 0.112767 -4.50707e-21 11903.9
0.197044 0.113755 -4.50702e-21 11893.3
0.198768 0.114751 -4.507e-21 11878.5
0.200506 0.115754 -4.50696e-21 11859.4
0.202258 0.116766 0 11859.9
0.204024 0.117785 4.50688e-21 11857.7
0.205805 0.118813 4.50686e-21 11858.2
0.207599 0.119849 0 11861.6
0.209408 0.120893 -4.50679e-21 11864
0.211231 0.121946 -4.50676e-21 11854
0.213068 0.123007 0 11833.2
0.214921 0.124076 0 11828.7
0.216788 0.125154 0 11817.9
0.21867 0.126241 0 11815.9
0.220567 0.127336 0 11814.4
0.22248 0.12844 0 11824.5
0.224408 0.129553 0 11831.8
0.226351 0.130675 0 11831.6
0.22831 0.131806 0 11824.6
0.230284 0.132946 9.01282e-21 11799
0.232275 0.134095 0 11779.5
0.234282 0.135254 9.01268e-21 11764.6
0.236304 0.136421 0 11747.6
0.238344 0.137598 9.01253e-21 11758.6
0.2404 0.138785 0 11763.3
0.242472 0.139982 0 11773.9
