# wallHeatFlux  FACE_DATA 448
# x  y  z  wallHeatFlux
-0.778 -3.80769e-06 0 -198882
-0.773968 -3.80769e-06 0 -40154.3
-0.769872 -3.80769e-06 0 -24476.2
-0.76571 -3.80769e-06 0 -19627.1
-0.761486 -3.80769e-06 0 -16565.7
-0.757196 -3.80769e-06 0 -14607.2
-0.752841 -3.80769e-06 0 -13270.9
-0.748422 -3.80769e-06 0 -12253
-0.743939 -3.80769e-06 0 -11454.3
-0.739391 -3.80769e-06 0 -10802.3
-0.73478 -3.80769e-06 0 -10265.8
-0.730104 -3.80769e-06 0 -9818.97
-0.725364 -3.80769e-06 0 -9440.76
-0.720562 -3.80769e-06 0 -9163.24
-0.715696 -3.80769e-06 0 -8991.98
-0.710769 -3.80769e-06 0 -9103.79
-0.705778 -3.80769e-06 0 -9461.74
-0.700727 -3.80769e-06 0 -10087.4
-0.695615 -3.80769e-06 0 -10831.4
-0.690443 -3.80769e-06 0 -11522.6
-0.685211 -3.80769e-06 0 -12080.6
-0.67992 -3.80769e-06 0 -12515.7
-0.674571 -3.80769e-06 0 -12838.6
-0.669166 -3.80769e-06 0 -13081.3
-0.663704 -3.80769e-06 0 -13265.1
-0.658187 -3.80769e-06 0 -13400.7
-0.652616 -3.80769e-06 0 -13504
-0.646993 -3.80769e-06 0 -13558.9
-0.641317 -3.80769e-06 0 -13581.8
-0.635592 -3.80769e-06 0 -13592.7
-0.629817 -3.80769e-06 0 -13583.4
-0.623994 -3.80769e-06 0 -13556.2
-0.618125 -3.80769e-06 0 -13513.7
-0.61221 -3.80769e-06 0 -13465.2
-0.606252 -3.80769e-06 0 -13411.2
-0.600253 -3.80769e-06 0 -13351.5
-0.594213 -3.80769e-06 0 -13286.1
-0.588134 -3.80769e-06 0 -13220.5
-0.582018 -3.80769e-06 0 -13154.6
-0.575867 -3.80769e-06 0 -13088.4
-0.569683 -3.80769e-06 0 -13016.5
-0.563467 -3.80769e-06 0 -12949.8
-0.557221 -3.80769e-06 0 -12877.7
-0.550946 -3.80769e-06 0 -12809.8
-0.544647 -3.80769e-06 0 -12748
-0.538323 -3.80769e-06 0 -12680.2
-0.531979 -3.80769e-06 0 -12612.3
-0.525613 -3.80769e-06 0 -12549.4
-0.51923 -3.80769e-06 0 -12486.2
-0.512832 -3.80769e-06 0 -12428.2
-0.50642 -3.80769e-06 0 -12370
-0.499995 -3.80769e-06 0 -12311.9
-0.493562 -3.80769e-06 0 -12247.5
-0.487123 -3.80769e-06 0 -12188.6
-0.480677 -3.80769e-06 0 -12129.6
-0.47423 -3.80769e-06 0 -12086.2
-0.467782 -3.80769e-06 0 -12043.1
-0.461335 -3.80769e-06 0 -11994.5
-0.454892 -3.80769e-06 0 -11939.3
-0.448455 -3.80769e-06 0 -11879.8
-0.442026 -3.80769e-06 0 -11824.3
-0.435607 -3.80769e-06 0 -11775
-0.429202 -3.80769e-06 0 -11736.1
-0.42281 -3.80769e-06 0 -11702.4
-0.416434 -3.80769e-06 0 -11668.8
-0.410078 -3.80769e-06 0 -11623.4
-0.403743 -3.80769e-06 0 -11567.9
-0.39743 -3.80769e-06 0 -11517.7
-0.391141 -3.80769e-06 0 -11461.1
-0.38488 -3.80769e-06 0 -11421.5
-0.378648 -3.80769e-06 0 -11381.5
-0.372446 -3.80769e-06 0 -11363
-0.366277 -3.80769e-06 0 -11339.4
-0.360142 -3.80769e-06 0 -11314.7
-0.354042 -3.80769e-06 0 -11280
-0.347981 -3.80769e-06 0 -11239.6
-0.341959 -3.80769e-06 0 -11188.7
-0.335978 -3.80769e-06 0 -11137
-0.33004 -3.80769e-06 0 -11090.7
-0.324146 -3.80769e-06 0 -11050.8
-0.318298 -3.80769e-06 0 -11020.7
-0.312497 -3.80769e-06 0 -11001.7
-0.306744 -3.80769e-06 0 -10993.3
-0.301041 -3.80769e-06 0 -10979.7
-0.29539 -3.80769e-06 0 -10965.6
-0.28979 -3.80769e-06 0 -10947.2
-0.284243 -3.80769e-06 0 -10927.7
-0.278752 -3.80769e-06 0 -10897.9
-0.273316 -3.80769e-06 0 -10862.7
-0.267937 -3.80769e-06 0 -10816.8
-0.262614 -3.80769e-06 0 -10775.9
-0.25735 -3.80769e-06 0 -10736.1
-0.252146 -3.80769e-06 0 -10700.7
-0.247001 -3.80769e-06 0 -10665.7
-0.241916 -3.80769e-06 0 -10646.8
-0.236893 -3.80769e-06 0 -10628
-0.231931 -3.80769e-06 0 -10619.7
-0.227031 -3.80769e-06 0 -10612.5
-0.222195 -3.80769e-06 0 -10609.6
-0.217421 -3.80769e-06 0 -10601.7
-0.212711 -3.80769e-06 0 -10593.6
-0.208064 -3.80769e-06 0 -10586.6
-0.203482 -3.80769e-06 0 -10572.7
-0.198964 -3.80769e-06 0 -10554.8
-0.19451 -3.80769e-06 0 -10536.7
-0.19012 -3.80769e-06 0 -10513.2
-0.185796 -3.80769e-06 0 -10484.8
-0.181535 -3.80769e-06 0 -10461.1
-0.17734 -3.80769e-06 0 -10432.1
-0.173208 -3.80769e-06 0 -10404.3
-0.169141 -3.80769e-06 0 -10374.9
-0.165138 -3.80769e-06 0 -10352.7
-0.161199 -3.80769e-06 0 -10329.4
-0.157325 -3.80769e-06 0 -10306.6
-0.153513 -3.80769e-06 0 -10289.1
-0.149765 -3.80769e-06 0 -10276.6
-0.14608 -3.80769e-06 0 -10259.8
-0.142457 -3.80769e-06 0 -10253.8
-0.138897 -3.80769e-06 0 -10246.3
-0.135398 -3.80769e-06 0 -10240.9
-0.131961 -3.80769e-06 0 -10239.6
-0.128584 -3.80769e-06 0 -10238.3
-0.125268 -3.80769e-06 0 -10238.1
-0.122011 -3.80769e-06 0 -10237.9
-0.118815 -3.80769e-06 0 -10241.6
-0.115677 -3.80769e-06 0 -10236.2
-0.112597 -3.80769e-06 0 -10235.7
-0.109574 -3.80769e-06 0 -10230.5
-0.106609 -3.80769e-06 0 -10224.3
-0.1037 -3.80769e-06 0 -10218.7
-0.100846 -3.80769e-06 0 -10212.9
-0.098048 -3.80769e-06 0 -10202.3
-0.0953042 -3.80769e-06 0 -10196.9
-0.0926143 -3.80769e-06 0 -10186.2
-0.0899773 -3.80769e-06 0 -10175.5
-0.0873927 -3.80769e-06 0 -10164.8
-0.0848599 -3.80769e-06 0 -10154.5
-0.082378 -3.80769e-06 0 -10138.6
-0.0799465 -3.80769e-06 0 -10128.3
-0.0775645 -3.80769e-06 0 -10118
-0.0752312 -3.80769e-06 0 -10102.2
-0.0729462 -3.80769e-06 0 -10092.1
-0.0707085 -3.80769e-06 0 -10076.6
-0.0685175 -3.80769e-06 0 -10061.2
-0.0663725 -3.80769e-06 0 -10051
-0.0642727 -3.80769e-06 0 -10035.7
-0.0622173 -3.80769e-06 0 -10025.8
-0.0602058 -3.80769e-06 0 -10010.4
-0.0582373 -3.80769e-06 0 -10000.7
-0.0563111 -3.80769e-06 0 -9990.86
-0.0544265 -3.80769e-06 0 -9981.11
-0.0525827 -3.80769e-06 0 -9966.08
-0.0507792 -3.80769e-06 0 -9956.45
-0.0490152 -3.80769e-06 0 -9946.86
-0.0472898 -3.80769e-06 0 -9937.42
-0.0456025 -3.80769e-06 0 -9927.85
-0.0439526 -3.80769e-06 0 -9923.8
-0.0423394 -3.80769e-06 0 -9914.35
-0.0407622 -3.80769e-06 0 -9905.16
-0.0392203 -3.80769e-06 0 -9895.93
-0.0377131 -3.80769e-06 0 -9892.14
-0.0362398 -3.80769e-06 0 -9883.05
-0.0347999 -3.80769e-06 0 -9874.02
-0.0333926 -3.80769e-06 0 -9859.73
-0.0320175 -3.80769e-06 0 -9834.82
-0.0306737 -3.80769e-06 0 -9788.54
-0.0293607 -3.80769e-06 0 -9710.28
-0.0280779 -3.80769e-06 0 -9556.62
-0.0268246 -3.80769e-06 0 -9301.53
-0.0256004 -3.80769e-06 0 -8906.34
-0.0244045 -3.80769e-06 0 -8350.35
-0.0232363 -3.80769e-06 0 -7649.2
-0.0220954 -3.80769e-06 0 -6877.64
-0.0209812 -3.80769e-06 0 -6127.53
-0.019893 -3.80769e-06 0 -5489.88
-0.0188303 -3.80769e-06 0 -5056.4
-0.0177927 -3.80769e-06 0 -4881.08
-0.0167794 -3.80769e-06 0 -4975.06
-0.0157901 -3.80769e-06 0 -5268.52
-0.0148243 -3.80769e-06 0 -5676.09
-0.0138814 -3.80769e-06 0 -6127.87
-0.0129608 -3.80769e-06 0 -6575.65
-0.0120623 -3.80769e-06 0 -6986.82
-0.0111851 -3.80769e-06 0 -7368.52
-0.0103289 -3.80769e-06 0 -7703.73
-0.00949328 -3.80769e-06 0 -8003.99
-0.00867767 -3.80769e-06 0 -8264.27
-0.00788168 -3.80769e-06 0 -8492.45
-0.00710485 -3.80769e-06 0 -8678.05
-0.00634675 -3.80769e-06 0 -8832.44
-0.00560698 -3.80769e-06 0 -8929.27
-0.0048851 -3.80769e-06 0 -9006.89
-0.00418071 -3.80769e-06 0 -9095.81
-0.00349342 -3.80769e-06 0 -9231.13
-0.00282284 -3.80769e-06 0 -9462.57
-0.00216857 -3.80769e-06 0 -9918.66
-0.00153026 -3.80769e-06 0 -10595.6
-0.00090752 -3.80769e-06 0 -10830.7
-0.0003 -3.80769e-06 0 -9853.51
0.000259937 0.000146262 2.25537e-21 -9656.94
0.000779437 0.000446185 0 -11925.6
0.00129893 0.000746101 0 -13937.5
0.00181858 0.00104611 2.2554e-21 -15453.5
0.00233835 0.00134618 -2.25541e-21 -16543.7
0.00285828 0.00164636 2.25542e-21 -17576.8
0.00337841 0.00194664 0 -18649.9
0.00389877 0.00224706 0 -19792.4
0.00441941 0.00254764 -2.25544e-21 -21092.2
0.00494034 0.00284839 2.25545e-21 -22593.2
0.00546162 0.00314934 -2.25546e-21 -24265.7
0.00598328 0.0034505 2.25547e-21 -26125
0.00650535 0.00375191 2.25547e-21 -28173.2
0.00702786 0.00405357 2.25548e-21 -30412.7
0.00755087 0.00435552 0 -32801.6
0.00807439 0.00465776 -2.25549e-21 -35299.1
0.00859847 0.00496033 2.2555e-21 -37915.6
0.00912315 0.00526324 0 -40668.5
0.00964845 0.00556651 2.25551e-21 -43550.5
0.0101744 0.00587017 0 -46539.3
0.0107011 0.00617424 0 -49607.5
0.0112285 0.00647873 -2.25552e-21 -52765.8
0.0117567 0.00678367 0 -55984.6
0.0122857 0.00708907 0 -59255.8
0.0128156 0.00739497 0 -62526.9
0.0133463 0.00770137 -2.25554e-21 -65817.1
0.0138779 0.00800831 0 -69103.2
0.0144106 0.0083158 0 -72404.9
0.0149442 0.00862387 0 -75803
0.0154788 0.00893253 0 -79402.8
0.0160145 0.00924181 0 -83280.6
0.0165513 0.00955172 2.25556e-21 -87593
0.0170893 0.00986231 -2.25556e-21 -92393.7
0.0176284 0.0101736 0 -97894.8
0.0181687 0.0104855 0 -104197
0.0187103 0.0107982 2.25556e-21 -111122
0.0192532 0.0111117 2.25557e-21 -137963
0.0197975 0.0114259 2.25557e-21 -143747
0.0203431 0.0117408 0 -153483
0.0208901 0.0120566 4.51114e-21 -165898
0.0214385 0.0123732 -4.51114e-21 -190072
0.0219884 0.0126907 0 -196241
0.0225398 0.0130091 4.51114e-21 -203322
0.0230928 0.0133283 0 -213569
0.0236474 0.0136485 0 -221155
0.0242037 0.0139697 0 -202573
0.0247616 0.0142918 -4.51113e-21 -205188
0.0253212 0.0146148 -4.51113e-21 -208421
0.0258825 0.0149389 -4.51114e-21 -210136
0.0264456 0.015264 0 -210971
0.0270106 0.0155902 0 -212605
0.0275774 0.0159174 -4.51112e-21 -212296
0.0281462 0.0162457 0 -209861
0.0287168 0.0165752 4.51111e-21 -208252
0.0292895 0.0169059 -4.51111e-21 -207129
0.0298642 0.0172376 0 -206227
0.0304409 0.0175706 0 -206069
0.0310198 0.0179048 4.5111e-21 -206238
0.0316007 0.0182402 4.5111e-21 -205782
0.0321839 0.0185768 -4.51107e-21 -203423
0.0327693 0.0189148 0 -200242
0.0333569 0.0192541 0 -196372
0.0339469 0.0195947 4.51106e-21 -191812
0.0345392 0.0199366 0 -186405
0.0351339 0.02028 0 -181862
0.035731 0.0206247 4.51105e-21 -177773
0.0363305 0.0209708 -4.51103e-21 -174566
0.0369326 0.0213184 4.51102e-21 -171891
0.0375373 0.0216675 0 -169272
0.0381445 0.0220181 0 -166657
0.0387543 0.0223702 0 -164460
0.0393668 0.0227238 4.51099e-21 -161918
0.0399821 0.023079 -4.51097e-21 -159960
0.0406001 0.0234358 4.51097e-21 -157853
0.041221 0.0237942 0 -156067
0.0418446 0.0241542 0 -154272
0.0424712 0.024516 4.51092e-21 -152503
0.0431006 0.0248794 -4.51094e-21 -151240
0.0437331 0.0252445 0 -149886
0.0443686 0.0256114 4.51089e-21 -148435
0.0450071 0.02598 4.51089e-21 -147439
0.0456487 0.0263505 0 -146113
0.0462935 0.0267227 0 -145293
0.0469415 0.0270968 -4.51085e-21 -144192
0.0475927 0.0274728 0 -143392
0.0482473 0.0278507 -4.51081e-21 -142656
0.0489051 0.0282305 4.51081e-21 -141719
0.0495663 0.0286122 -4.51079e-21 -140998
0.050231 0.0289959 0 -140294
0.0508991 0.0293816 -4.51077e-21 -139532
0.0515707 0.0297694 4.51073e-21 -138863
0.0522459 0.0301592 -4.51073e-21 -138666
0.0529247 0.0305511 0 -137641
0.0536071 0.0309451 0 -137333
0.0542933 0.0313412 -4.51067e-21 -136740
0.0549832 0.0317395 0 -136369
0.0556769 0.03214 0 -135977
0.0563744 0.0325427 0 -135683
0.0570758 0.0329477 -4.5106e-21 -135334
0.0577812 0.0333549 0 -134944
0.0584905 0.0337645 0 -134324
0.0592039 0.0341763 -4.51056e-21 -134248
0.0599214 0.0345905 4.51053e-21 -133541
0.060643 0.0350071 0 -133795
0.0613688 0.0354262 4.51049e-21 -133689
0.0620989 0.0358477 -4.51048e-21 -133768
0.0628332 0.0362716 4.51046e-21 -133716
0.0635719 0.0366981 0 -133504
0.0643149 0.037127 4.51041e-21 -133345
0.0650624 0.0375586 0 -132794
0.0658144 0.0379927 0 -132683
0.0665709 0.0384295 4.51035e-21 -132273
0.0673321 0.0388689 -4.51035e-21 -132215
0.0680979 0.039311 0 -132171
0.0688683 0.0397558 -4.51029e-21 -131786
0.0696435 0.0402034 4.51029e-21 -132028
0.0704236 0.0406537 0 -131593
0.0712085 0.0411069 0 -131770
0.0719983 0.0415628 0 -131421
0.0727931 0.0420217 0 -131362
0.0735929 0.0424834 0 -131322
0.0743978 0.0429481 0 -131041
0.0752078 0.0434158 0 -131104
0.076023 0.0438864 4.5101e-21 -130645
0.0768435 0.0443601 -4.51009e-21 -130867
0.0776693 0.0448369 -4.51004e-21 -130653
0.0785004 0.0453167 4.51003e-21 -130421
0.079337 0.0457997 0 -130564
0.080179 0.0462858 0 -130405
0.0810266 0.0467751 0 -130036
0.0818797 0.0472677 0 -130352
0.0827385 0.0477635 0 -129981
0.083603 0.0482626 0 -130070
0.0844733 0.0487651 4.50985e-21 -129992
0.0853495 0.0492709 -4.50983e-21 -129904
0.0862316 0.0497801 0 -129944
0.0871195 0.0502927 -4.50978e-21 -129413
0.0880135 0.0508089 0 -129423
0.0889136 0.0513285 0 -129454
0.0898198 0.0518517 0 -129105
0.0907322 0.0523785 0 -129074
0.0916509 0.0529089 0 -128860
0.0925758 0.0534429 4.50963e-21 -128801
0.0935072 0.0539806 4.50959e-21 -128664
0.094445 0.054522 0 -128683
0.0953894 0.0550672 4.50953e-21 -128567
0.0963404 0.0556162 0 -128451
0.0972979 0.0561691 0 -128144
0.0982622 0.0567258 0 -128151
0.0992333 0.0572865 0 -128180
0.100211 0.057851 0 -127918
0.101196 0.0584196 0 -127365
0.102188 0.0589922 4.50935e-21 -127733
0.103187 0.0595689 4.50932e-21 -127457
0.104193 0.0601497 -4.50928e-21 -126777
0.105206 0.0607347 0 -127275
0.106226 0.0613239 0 -126935
0.107254 0.0619172 0 -126796
0.10829 0.0625149 4.50918e-21 -126746
0.109332 0.0631169 4.50915e-21 -126745
0.110382 0.0637232 -4.50911e-21 -126989
0.11144 0.064334 -4.50908e-21 -126722
0.112506 0.0649492 4.50905e-21 -127041
0.11358 0.0655688 4.50902e-21 -126306
0.114661 0.066193 0 -126264
0.11575 0.0668218 0 -126346
0.116847 0.0674552 0 -126269
0.117952 0.0680932 0 -126233
0.119065 0.068736 0 -126238
0.120187 0.0693834 4.50884e-21 -125472
0.121316 0.0700357 0 -125787
0.122455 0.0706928 0 -125960
0.123601 0.0713548 -4.50875e-21 -124861
0.124756 0.0720217 0 -125521
0.12592 0.0726935 -4.5087e-21 -125157
0.127093 0.0733704 0 -125058
0.128274 0.0740524 0 -124656
0.129464 0.0747395 4.50859e-21 -124852
0.130663 0.0754317 0 -124843
0.131871 0.0761292 4.50853e-21 -124345
0.133088 0.0768319 4.50851e-21 -124958
0.134315 0.0775399 0 -124429
0.13555 0.0782532 4.50845e-21 -123799
0.136795 0.078972 0 -123993
0.13805 0.0796962 0 -123099
0.139314 0.080426 -4.50834e-21 -123413
0.140587 0.0811613 -4.50831e-21 -122697
0.14187 0.0819021 4.50827e-21 -122551
0.143163 0.0826487 0 -122409
0.144466 0.0834009 0 -122577
0.145779 0.0841589 0 -122734
0.147102 0.0849227 4.50815e-21 -121998
0.148435 0.0856924 4.50811e-21 -121887
0.149779 0.0864679 0 -121881
0.151133 0.0872495 4.50805e-21 -121445
0.152497 0.0880371 4.50801e-21 -121334
0.153871 0.0888307 4.50798e-21 -121953
0.155257 0.0896305 0 -121053
0.156653 0.0904364 4.50791e-21 -120674
0.15806 0.0912487 4.50787e-21 -121229
0.159478 0.0920672 0 -120253
0.160907 0.092892 0 -120144
0.162347 0.0937233 0 -120308
0.163798 0.0945611 4.50774e-21 -126037
0.16526 0.0954054 0 -121297
0.166734 0.0962563 0 -120157
0.168219 0.0971138 0 -119302
0.169716 0.097978 4.50761e-21 -119430
0.171225 0.098849 4.50758e-21 -119086
0.172745 0.0997268 4.50754e-21 -119267
0.174278 0.100611 0 -118432
0.175822 0.101503 0 -119004
0.177379 0.102402 0 -118097
0.178947 0.103308 4.50741e-21 -118869
0.180529 0.10422 4.50737e-21 -118318
0.182122 0.10514 4.50734e-21 -117329
0.183728 0.106068 0 -123654
0.185347 0.107002 -4.50727e-21 -124619
0.186979 0.107944 0 -124290
0.188623 0.108894 0 -124444
0.190281 0.109851 4.50716e-21 -124645
0.191952 0.110815 0 -124091
0.193636 0.111787 -4.5071e-21 -123657
0.195333 0.112767 -4.50707e-21 -117123
0.197044 0.113755 -4.50702e-21 -122588
0.198768 0.114751 -4.507e-21 -122543
0.200506 0.115754 -4.50696e-21 -121362
0.202258 0.116766 0 -115956
0.204024 0.117785 4.50688e-21 -121062
0.205805 0.118813 4.50686e-21 -122831
0.207599 0.119849 0 -120849
0.209408 0.120893 -4.50679e-21 -121629
0.211231 0.121946 -4.50676e-21 -120786
0.213068 0.123007 0 -120230
0.214921 0.124076 0 -119790
0.216788 0.125154 0 -119672
0.21867 0.126241 0 -114595
0.220567 0.127336 0 -118843
0.22248 0.12844 0 -113560
0.224408 0.129553 0 -113404
0.226351 0.130675 0 -112389
0.22831 0.131806 0 -112259
0.230284 0.132946 9.01282e-21 -111925
0.232275 0.134095 0 -117160
0.234282 0.135254 9.01268e-21 -119074
0.236304 0.136421 0 -119561
0.238344 0.137598 9.01253e-21 -117509
0.2404 0.138785 0 -117821
0.242472 0.139982 0 -117727
