# y+ ()       
# Time        	patch         	min           	max           	average       
2100          	base	3.364081e-03	3.056348e+01	5.525116e+00
