# p  FACE_DATA 448
# x  y  z  p
-0.778 -3.80769e-06 0 1196.57
-0.773968 -3.80769e-06 0 934.751
-0.769872 -3.80769e-06 0 761.61
-0.76571 -3.80769e-06 0 735.171
-0.761486 -3.80769e-06 0 699.296
-0.757196 -3.80769e-06 0 676.478
-0.752841 -3.80769e-06 0 663.962
-0.748422 -3.80769e-06 0 654.51
-0.743939 -3.80769e-06 0 648.076
-0.739391 -3.80769e-06 0 642.8
-0.73478 -3.80769e-06 0 638.085
-0.730104 -3.80769e-06 0 633.725
-0.725364 -3.80769e-06 0 629.296
-0.720562 -3.80769e-06 0 624.21
-0.715696 -3.80769e-06 0 617.3
-0.710769 -3.80769e-06 0 610.324
-0.705778 -3.80769e-06 0 604.431
-0.700727 -3.80769e-06 0 601.456
-0.695615 -3.80769e-06 0 601.365
-0.690443 -3.80769e-06 0 605.141
-0.685211 -3.80769e-06 0 608.224
-0.67992 -3.80769e-06 0 611.743
-0.674571 -3.80769e-06 0 615.144
-0.669166 -3.80769e-06 0 617.831
-0.663704 -3.80769e-06 0 620.393
-0.658187 -3.80769e-06 0 622.431
-0.652616 -3.80769e-06 0 624.199
-0.646993 -3.80769e-06 0 625.637
-0.641317 -3.80769e-06 0 626.722
-0.635592 -3.80769e-06 0 627.441
-0.629817 -3.80769e-06 0 628.091
-0.623994 -3.80769e-06 0 628.548
-0.618125 -3.80769e-06 0 628.831
-0.61221 -3.80769e-06 0 628.928
-0.606252 -3.80769e-06 0 628.971
-0.600253 -3.80769e-06 0 628.844
-0.594213 -3.80769e-06 0 628.706
-0.588134 -3.80769e-06 0 628.572
-0.582018 -3.80769e-06 0 628.431
-0.575867 -3.80769e-06 0 628.199
-0.569683 -3.80769e-06 0 627.773
-0.563467 -3.80769e-06 0 627.24
-0.557221 -3.80769e-06 0 626.852
-0.550946 -3.80769e-06 0 626.607
-0.544647 -3.80769e-06 0 626.422
-0.538323 -3.80769e-06 0 626.066
-0.531979 -3.80769e-06 0 625.502
-0.525613 -3.80769e-06 0 624.91
-0.51923 -3.80769e-06 0 624.587
-0.512832 -3.80769e-06 0 624.448
-0.50642 -3.80769e-06 0 624.104
-0.499995 -3.80769e-06 0 623.483
-0.493562 -3.80769e-06 0 622.762
-0.487123 -3.80769e-06 0 622.134
-0.480677 -3.80769e-06 0 621.841
-0.47423 -3.80769e-06 0 621.973
-0.467782 -3.80769e-06 0 622.02
-0.461335 -3.80769e-06 0 621.645
-0.454892 -3.80769e-06 0 620.954
-0.448455 -3.80769e-06 0 620.141
-0.442026 -3.80769e-06 0 619.462
-0.435607 -3.80769e-06 0 619.139
-0.429202 -3.80769e-06 0 619.446
-0.42281 -3.80769e-06 0 619.624
-0.416434 -3.80769e-06 0 619.629
-0.410078 -3.80769e-06 0 619.08
-0.403743 -3.80769e-06 0 618.139
-0.39743 -3.80769e-06 0 617.162
-0.391141 -3.80769e-06 0 616.334
-0.38488 -3.80769e-06 0 615.922
-0.378648 -3.80769e-06 0 615.855
-0.372446 -3.80769e-06 0 616.663
-0.366277 -3.80769e-06 0 617.136
-0.360142 -3.80769e-06 0 617.286
-0.354042 -3.80769e-06 0 616.962
-0.347981 -3.80769e-06 0 616.077
-0.341959 -3.80769e-06 0 614.821
-0.335978 -3.80769e-06 0 613.597
-0.33004 -3.80769e-06 0 612.591
-0.324146 -3.80769e-06 0 612.002
-0.318298 -3.80769e-06 0 611.804
-0.312497 -3.80769e-06 0 612.434
-0.306744 -3.80769e-06 0 613.299
-0.301041 -3.80769e-06 0 614.17
-0.29539 -3.80769e-06 0 614.782
-0.28979 -3.80769e-06 0 614.965
-0.284243 -3.80769e-06 0 614.852
-0.278752 -3.80769e-06 0 614.277
-0.273316 -3.80769e-06 0 613.318
-0.267937 -3.80769e-06 0 612.103
-0.262614 -3.80769e-06 0 610.88
-0.25735 -3.80769e-06 0 609.818
-0.252146 -3.80769e-06 0 609.008
-0.247001 -3.80769e-06 0 608.547
-0.241916 -3.80769e-06 0 608.379
-0.236893 -3.80769e-06 0 608.763
-0.231931 -3.80769e-06 0 609.234
-0.227031 -3.80769e-06 0 609.966
-0.222195 -3.80769e-06 0 610.679
-0.217421 -3.80769e-06 0 611.31
-0.212711 -3.80769e-06 0 611.781
-0.208064 -3.80769e-06 0 612.001
-0.203482 -3.80769e-06 0 611.989
-0.198964 -3.80769e-06 0 611.798
-0.19451 -3.80769e-06 0 611.354
-0.19012 -3.80769e-06 0 610.73
-0.185796 -3.80769e-06 0 609.959
-0.181535 -3.80769e-06 0 609.123
-0.17734 -3.80769e-06 0 608.207
-0.173208 -3.80769e-06 0 607.324
-0.169141 -3.80769e-06 0 606.501
-0.165138 -3.80769e-06 0 605.79
-0.161199 -3.80769e-06 0 605.209
-0.157325 -3.80769e-06 0 604.801
-0.153513 -3.80769e-06 0 604.562
-0.149765 -3.80769e-06 0 604.49
-0.14608 -3.80769e-06 0 604.512
-0.142457 -3.80769e-06 0 604.812
-0.138897 -3.80769e-06 0 605.157
-0.135398 -3.80769e-06 0 605.66
-0.131961 -3.80769e-06 0 606.208
-0.128584 -3.80769e-06 0 606.804
-0.125268 -3.80769e-06 0 607.4
-0.122011 -3.80769e-06 0 607.966
-0.118815 -3.80769e-06 0 608.462
-0.115677 -3.80769e-06 0 608.9
-0.112597 -3.80769e-06 0 609.266
-0.109574 -3.80769e-06 0 609.557
-0.106609 -3.80769e-06 0 609.749
-0.1037 -3.80769e-06 0 609.859
-0.100846 -3.80769e-06 0 609.875
-0.098048 -3.80769e-06 0 609.853
-0.0953042 -3.80769e-06 0 609.728
-0.0926143 -3.80769e-06 0 609.554
-0.0899773 -3.80769e-06 0 609.329
-0.0873927 -3.80769e-06 0 609.065
-0.0848599 -3.80769e-06 0 608.754
-0.082378 -3.80769e-06 0 608.415
-0.0799465 -3.80769e-06 0 608.044
-0.0775645 -3.80769e-06 0 607.647
-0.0752312 -3.80769e-06 0 607.226
-0.0729462 -3.80769e-06 0 606.796
-0.0707085 -3.80769e-06 0 606.362
-0.0685175 -3.80769e-06 0 605.929
-0.0663725 -3.80769e-06 0 605.502
-0.0642727 -3.80769e-06 0 605.089
-0.0622173 -3.80769e-06 0 604.691
-0.0602058 -3.80769e-06 0 604.308
-0.0582373 -3.80769e-06 0 603.943
-0.0563111 -3.80769e-06 0 603.598
-0.0544265 -3.80769e-06 0 603.275
-0.0525827 -3.80769e-06 0 602.97
-0.0507792 -3.80769e-06 0 602.69
-0.0490152 -3.80769e-06 0 602.432
-0.0472898 -3.80769e-06 0 602.2
-0.0456025 -3.80769e-06 0 601.986
-0.0439526 -3.80769e-06 0 601.793
-0.0423394 -3.80769e-06 0 601.62
-0.0407622 -3.80769e-06 0 601.468
-0.0392203 -3.80769e-06 0 601.327
-0.0377131 -3.80769e-06 0 601.205
-0.0362398 -3.80769e-06 0 601.094
-0.0347999 -3.80769e-06 0 600.999
-0.0333926 -3.80769e-06 0 600.905
-0.0320175 -3.80769e-06 0 600.818
-0.0306737 -3.80769e-06 0 600.752
-0.0293607 -3.80769e-06 0 600.83
-0.0280779 -3.80769e-06 0 604.479
-0.0268246 -3.80769e-06 0 629.94
-0.0256004 -3.80769e-06 0 710.788
-0.0244045 -3.80769e-06 0 828.009
-0.0232363 -3.80769e-06 0 920.86
-0.0220954 -3.80769e-06 0 985.208
-0.0209812 -3.80769e-06 0 1038.88
-0.019893 -3.80769e-06 0 1090.86
-0.0188303 -3.80769e-06 0 1141.23
-0.0177927 -3.80769e-06 0 1190.35
-0.0167794 -3.80769e-06 0 1237.62
-0.0157901 -3.80769e-06 0 1282.74
-0.0148243 -3.80769e-06 0 1325.55
-0.0138814 -3.80769e-06 0 1366.36
-0.0129608 -3.80769e-06 0 1405.21
-0.0120623 -3.80769e-06 0 1442.2
-0.0111851 -3.80769e-06 0 1477.36
-0.0103289 -3.80769e-06 0 1510.85
-0.00949328 -3.80769e-06 0 1542.77
-0.00867767 -3.80769e-06 0 1573.18
-0.00788168 -3.80769e-06 0 1602.17
-0.00710485 -3.80769e-06 0 1629.62
-0.00634675 -3.80769e-06 0 1655.48
-0.00560698 -3.80769e-06 0 1679.32
-0.0048851 -3.80769e-06 0 1701.45
-0.00418071 -3.80769e-06 0 1722.27
-0.00349342 -3.80769e-06 0 1742.79
-0.00282284 -3.80769e-06 0 1763.28
-0.00216857 -3.80769e-06 0 1786.85
-0.00153026 -3.80769e-06 0 1819.79
-0.00090752 -3.80769e-06 0 1864.39
-0.0003 -3.80769e-06 0 1943.95
0.000259937 0.000146262 2.25537e-21 1832.51
0.000779437 0.000446185 0 1886.43
0.00129893 0.000746101 0 1905.11
0.00181858 0.00104611 2.2554e-21 1937.61
0.00233835 0.00134618 -2.25541e-21 1985.33
0.00285828 0.00164636 2.25542e-21 2039.75
0.00337841 0.00194664 0 2101.53
0.00389877 0.00224706 0 2168.57
0.00441941 0.00254764 -2.25544e-21 2240.48
0.00494034 0.00284839 2.25545e-21 2317.43
0.00546162 0.00314934 -2.25546e-21 2399.53
0.00598328 0.0034505 2.25547e-21 2487.29
0.00650535 0.00375191 2.25547e-21 2580.87
0.00702786 0.00405357 2.25548e-21 2680.72
0.00755087 0.00435552 0 2786.85
0.00807439 0.00465776 -2.25549e-21 2899.58
0.00859847 0.00496033 2.2555e-21 3018.96
0.00912315 0.00526324 0 3145.23
0.00964845 0.00556651 2.25551e-21 3278.47
0.0101744 0.00587017 0 3418.76
0.0107011 0.00617424 0 3565.96
0.0112285 0.00647873 -2.25552e-21 3720.33
0.0117567 0.00678367 0 3881.72
0.0122857 0.00708907 0 4050.14
0.0128156 0.00739497 0 4225.84
0.0133463 0.00770137 -2.25554e-21 4409.37
0.0138779 0.00800831 0 4600.2
0.0144106 0.0083158 0 4798.16
0.0149442 0.00862387 0 5002.82
0.0154788 0.00893253 0 5214.53
0.0160145 0.00924181 0 5433.28
0.0165513 0.00955172 2.25556e-21 5659.91
0.0170893 0.00986231 -2.25556e-21 5894.9
0.0176284 0.0101736 0 6138.99
0.0181687 0.0104855 0 6393.04
0.0187103 0.0107982 2.25556e-21 6656.88
0.0192532 0.0111117 2.25557e-21 6931.98
0.0197975 0.0114259 2.25557e-21 7217.38
0.0203431 0.0117408 0 7514.05
0.0208901 0.0120566 4.51114e-21 7820.62
0.0214385 0.0123732 -4.51114e-21 8135.85
0.0219884 0.0126907 0 8457.5
0.0225398 0.0130091 4.51114e-21 8784.22
0.0230928 0.0133283 0 9113.38
0.0236474 0.0136485 0 9443.07
0.0242037 0.0139697 0 9770.73
0.0247616 0.0142918 -4.51113e-21 10097.1
0.0253212 0.0146148 -4.51113e-21 10423.5
0.0258825 0.0149389 -4.51114e-21 10747.2
0.0264456 0.015264 0 11068.9
0.0270106 0.0155902 0 11388.1
0.0275774 0.0159174 -4.51112e-21 11703.1
0.0281462 0.0162457 0 12010.4
0.0287168 0.0165752 4.51111e-21 12300.7
0.0292895 0.0169059 -4.51111e-21 12564.3
0.0298642 0.0172376 0 12800
0.0304409 0.0175706 0 13011.1
0.0310198 0.0179048 4.5111e-21 13185
0.0316007 0.0182402 4.5111e-21 13333.1
0.0321839 0.0185768 -4.51107e-21 13465.2
0.0327693 0.0189148 0 13583.5
0.0333569 0.0192541 0 13695.3
0.0339469 0.0195947 4.51106e-21 13792.8
0.0345392 0.0199366 0 13901.5
0.0351339 0.02028 0 13974.5
0.035731 0.0206247 4.51105e-21 14037
0.0363305 0.0209708 -4.51103e-21 14076.6
0.0369326 0.0213184 4.51102e-21 14089.2
0.0375373 0.0216675 0 14091
0.0381445 0.0220181 0 14081.5
0.0387543 0.0223702 0 14069.7
0.0393668 0.0227238 4.51099e-21 14059.9
0.0399821 0.023079 -4.51097e-21 14050.1
0.0406001 0.0234358 4.51097e-21 14037.8
0.041221 0.0237942 0 14008.3
0.0418446 0.0241542 0 13978.8
0.0424712 0.024516 4.51092e-21 13946.8
0.0431006 0.0248794 -4.51094e-21 13900.9
0.0437331 0.0252445 0 13862.5
0.0443686 0.0256114 4.51089e-21 13817.6
0.0450071 0.02598 4.51089e-21 13761
0.0456487 0.0263505 0 13711.3
0.0462935 0.0267227 0 13651.1
0.0469415 0.0270968 -4.51085e-21 13606.1
0.0475927 0.0274728 0 13555.1
0.0482473 0.0278507 -4.51081e-21 13509.4
0.0489051 0.0282305 4.51081e-21 13474
0.0495663 0.0286122 -4.51079e-21 13432.3
0.050231 0.0289959 0 13397.2
0.0508991 0.0293816 -4.51077e-21 13359.9
0.0515707 0.0297694 4.51073e-21 13324.5
0.0522459 0.0301592 -4.51073e-21 13285.8
0.0529247 0.0305511 0 13255.4
0.0536071 0.0309451 0 13218.6
0.0542933 0.0313412 -4.51067e-21 13194.4
0.0549832 0.0317395 0 13166.8
0.0556769 0.03214 0 13137.6
0.0563744 0.0325427 0 13102.3
0.0570758 0.0329477 -4.5106e-21 13065.8
0.0577812 0.0333549 0 13030.4
0.0584905 0.0337645 0 12994.9
0.0592039 0.0341763 -4.51056e-21 12965.8
0.0599214 0.0345905 4.51053e-21 12949.3
0.060643 0.0350071 0 12933.3
0.0613688 0.0354262 4.51049e-21 12925.7
0.0620989 0.0358477 -4.51048e-21 12911
0.0628332 0.0362716 4.51046e-21 12900.4
0.0635719 0.0366981 0 12887.4
0.0643149 0.037127 4.51041e-21 12869.1
0.0650624 0.0375586 0 12861.7
0.0658144 0.0379927 0 12840.6
0.0665709 0.0384295 4.51035e-21 12829.8
0.0673321 0.0388689 -4.51035e-21 12809.3
0.0680979 0.039311 0 12793.5
0.0688683 0.0397558 -4.51029e-21 12774.1
0.0696435 0.0402034 4.51029e-21 12753.2
0.0704236 0.0406537 0 12736.1
0.0712085 0.0411069 0 12714.2
0.0719983 0.0415628 0 12698.4
0.0727931 0.0420217 0 12683.8
0.0735929 0.0424834 0 12669.9
0.0743978 0.0429481 0 12663.2
0.0752078 0.0434158 0 12649.9
0.076023 0.0438864 4.5101e-21 12644.6
0.0768435 0.0443601 -4.51009e-21 12635.7
0.0776693 0.0448369 -4.51004e-21 12630.1
0.0785004 0.0453167 4.51003e-21 12624.7
0.079337 0.0457997 0 12622.7
0.080179 0.0462858 0 12623
0.0810266 0.0467751 0 12624.3
0.0818797 0.0472677 0 12620.9
0.0827385 0.0477635 0 12620.1
0.083603 0.0482626 0 12609.7
0.0844733 0.0487651 4.50985e-21 12601
0.0853495 0.0492709 -4.50983e-21 12585.5
0.0862316 0.0497801 0 12571
0.0871195 0.0502927 -4.50978e-21 12556.5
0.0880135 0.0508089 0 12536.9
0.0889136 0.0513285 0 12522.1
0.0898198 0.0518517 0 12508
0.0907322 0.0523785 0 12496
0.0916509 0.0529089 0 12487
0.0925758 0.0534429 4.50963e-21 12477.5
0.0935072 0.0539806 4.50959e-21 12468
0.094445 0.054522 0 12460.1
0.0953894 0.0550672 4.50953e-21 12449.9
0.0963404 0.0556162 0 12445.6
0.0972979 0.0561691 0 12438.9
0.0982622 0.0567258 0 12431.4
0.0992333 0.0572865 0 12422.3
0.100211 0.057851 0 12416.7
0.101196 0.0584196 0 12411.3
0.102188 0.0589922 4.50935e-21 12399.8
0.103187 0.0595689 4.50932e-21 12388.9
0.104193 0.0601497 -4.50928e-21 12382.6
0.105206 0.0607347 0 12365.8
0.106226 0.0613239 0 12357
0.107254 0.0619172 0 12343.3
0.10829 0.0625149 4.50918e-21 12341.1
0.109332 0.0631169 4.50915e-21 12342.3
0.110382 0.0637232 -4.50911e-21 12340.2
0.11144 0.064334 -4.50908e-21 12335
0.112506 0.0649492 4.50905e-21 12333.2
0.11358 0.0655688 4.50902e-21 12343.2
0.114661 0.066193 0 12334.8
0.11575 0.0668218 0 12334.5
0.116847 0.0674552 0 12329
0.117952 0.0680932 0 12316.1
0.119065 0.068736 0 12301.2
0.120187 0.0693834 4.50884e-21 12295.5
0.121316 0.0700357 0 12275.6
0.122455 0.0706928 0 12262.6
0.123601 0.0713548 -4.50875e-21 12260.5
0.124756 0.0720217 0 12248.5
0.12592 0.0726935 -4.5087e-21 12251.8
0.127093 0.0733704 0 12255.6
0.128274 0.0740524 0 12257.3
0.129464 0.0747395 4.50859e-21 12248.6
0.130663 0.0754317 0 12239.3
0.131871 0.0761292 4.50853e-21 12241.5
0.133088 0.0768319 4.50851e-21 12224.3
0.134315 0.0775399 0 12223.7
0.13555 0.0782532 4.50845e-21 12213.1
0.136795 0.078972 0 12207.3
0.13805 0.0796962 0 12198.5
0.139314 0.080426 -4.50834e-21 12189.9
0.140587 0.0811613 -4.50831e-21 12183.4
0.14187 0.0819021 4.50827e-21 12174.7
0.143163 0.0826487 0 12162.6
0.144466 0.0834009 0 12153.6
0.145779 0.0841589 0 12151.1
0.147102 0.0849227 4.50815e-21 12150.3
0.148435 0.0856924 4.50811e-21 12138.4
0.149779 0.0864679 0 12134
0.151133 0.0872495 4.50805e-21 12126.1
0.152497 0.0880371 4.50801e-21 12125.2
0.153871 0.0888307 4.50798e-21 12121.6
0.155257 0.0896305 0 12118
0.156653 0.0904364 4.50791e-21 12121
0.15806 0.0912487 4.50787e-21 12111.4
0.159478 0.0920672 0 12112.5
0.160907 0.092892 0 12096.5
0.162347 0.0937233 0 12082.2
0.163798 0.0945611 4.50774e-21 12080.6
0.16526 0.0954054 0 12063.2
0.166734 0.0962563 0 12062.7
0.168219 0.0971138 0 12062.2
0.169716 0.097978 4.50761e-21 12058.8
0.171225 0.098849 4.50758e-21 12058.6
0.172745 0.0997268 4.50754e-21 12044.1
0.174278 0.100611 0 12033.9
0.175822 0.101503 0 12025.3
0.177379 0.102402 0 12030.5
0.178947 0.103308 4.50741e-21 12020.5
0.180529 0.10422 4.50737e-21 12014.8
0.182122 0.10514 4.50734e-21 12021.6
0.183728 0.106068 0 12015.7
0.185347 0.107002 -4.50727e-21 12005.4
0.186979 0.107944 0 11990.4
0.188623 0.108894 0 11984.1
0.190281 0.109851 4.50716e-21 11966.8
0.191952 0.110815 0 11966.4
0.193636 0.111787 -4.5071e-21 11963.8
0.195333 0.112767 -4.50707e-21 11967.4
0.197044 0.113755 -4.50702e-21 11961.9
0.198768 0.114751 -4.507e-21 11959.8
0.200506 0.115754 -4.50696e-21 11930.4
0.202258 0.116766 0 11923.4
0.204024 0.117785 4.50688e-21 11906.3
0.205805 0.118813 4.50686e-21 11904
0.207599 0.119849 0 11906.7
0.209408 0.120893 -4.50679e-21 11914.5
0.211231 0.121946 -4.50676e-21 11922.3
0.213068 0.123007 0 11914.1
0.214921 0.124076 0 11911.3
0.216788 0.125154 0 11900.6
0.21867 0.126241 0 11883.9
0.220567 0.127336 0 11869.3
0.22248 0.12844 0 11866.3
0.224408 0.129553 0 11865.7
0.226351 0.130675 0 11871.2
0.22831 0.131806 0 11875
0.230284 0.132946 9.01282e-21 11859.6
0.232275 0.134095 0 11843.8
0.234282 0.135254 9.01268e-21 11836.9
0.236304 0.136421 0 11815.8
0.238344 0.137598 9.01253e-21 11811.8
0.2404 0.138785 0 11812.8
0.242472 0.139982 0 11835.7
