# wallHeatFlux  FACE_DATA 448
# x  y  z  wallHeatFlux
-0.778 -3.80769e-06 0 -198877
-0.773968 -3.80769e-06 0 -40154.3
-0.769872 -3.80769e-06 0 -24476.2
-0.76571 -3.80769e-06 0 -19627.1
-0.761486 -3.80769e-06 0 -16560.4
-0.757196 -3.80769e-06 0 -14601.9
-0.752841 -3.80769e-06 0 -13265.6
-0.748422 -3.80769e-06 0 -12253
-0.743939 -3.80769e-06 0 -11459.6
-0.739391 -3.80769e-06 0 -10818.3
-0.73478 -3.80769e-06 0 -10265.8
-0.730104 -3.80769e-06 0 -9792.31
-0.725364 -3.80769e-06 0 -9382.09
-0.720562 -3.80769e-06 0 -9093.87
-0.715696 -3.80769e-06 0 -8879.85
-0.710769 -3.80769e-06 0 -8986.26
-0.705778 -3.80769e-06 0 -9290.68
-0.700727 -3.80769e-06 0 -9803.94
-0.695615 -3.80769e-06 0 -10397.9
-0.690443 -3.80769e-06 0 -11013.9
-0.685211 -3.80769e-06 0 -11512.7
-0.67992 -3.80769e-06 0 -11926.1
-0.674571 -3.80769e-06 0 -12270.1
-0.669166 -3.80769e-06 0 -12534
-0.663704 -3.80769e-06 0 -12744.4
-0.658187 -3.80769e-06 0 -12890.4
-0.652616 -3.80769e-06 0 -13004.3
-0.646993 -3.80769e-06 0 -13080.4
-0.641317 -3.80769e-06 0 -13124.6
-0.635592 -3.80769e-06 0 -13140.6
-0.629817 -3.80769e-06 0 -13147.3
-0.623994 -3.80769e-06 0 -13136.1
-0.618125 -3.80769e-06 0 -13109.6
-0.61221 -3.80769e-06 0 -13077.1
-0.606252 -3.80769e-06 0 -13033.7
-0.600253 -3.80769e-06 0 -12984.6
-0.594213 -3.80769e-06 0 -12929.9
-0.588134 -3.80769e-06 0 -12880.4
-0.582018 -3.80769e-06 0 -12830.6
-0.575867 -3.80769e-06 0 -12775.1
-0.569683 -3.80769e-06 0 -12713.9
-0.563467 -3.80769e-06 0 -12657.9
-0.557221 -3.80769e-06 0 -12607.4
-0.550946 -3.80769e-06 0 -12555.6
-0.544647 -3.80769e-06 0 -12510
-0.538323 -3.80769e-06 0 -12458.5
-0.531979 -3.80769e-06 0 -12406.7
-0.525613 -3.80769e-06 0 -12349.2
-0.51923 -3.80769e-06 0 -12302.2
-0.512832 -3.80769e-06 0 -12265.8
-0.50642 -3.80769e-06 0 -12218.4
-0.499995 -3.80769e-06 0 -12165.7
-0.493562 -3.80769e-06 0 -12117.5
-0.487123 -3.80769e-06 0 -12069.5
-0.480677 -3.80769e-06 0 -12032.1
-0.47423 -3.80769e-06 0 -12005
-0.467782 -3.80769e-06 0 -11972.7
-0.461335 -3.80769e-06 0 -11934.9
-0.454892 -3.80769e-06 0 -11890.6
-0.448455 -3.80769e-06 0 -11847.4
-0.442026 -3.80769e-06 0 -11802.7
-0.435607 -3.80769e-06 0 -11764.2
-0.429202 -3.80769e-06 0 -11752.3
-0.42281 -3.80769e-06 0 -11729.4
-0.416434 -3.80769e-06 0 -11701.3
-0.410078 -3.80769e-06 0 -11661.2
-0.403743 -3.80769e-06 0 -11616.6
-0.39743 -3.80769e-06 0 -11577.2
-0.391141 -3.80769e-06 0 -11536.8
-0.38488 -3.80769e-06 0 -11502.6
-0.378648 -3.80769e-06 0 -11478.8
-0.372446 -3.80769e-06 0 -11476.6
-0.366277 -3.80769e-06 0 -11469.1
-0.360142 -3.80769e-06 0 -11449.8
-0.354042 -3.80769e-06 0 -11425.9
-0.347981 -3.80769e-06 0 -11390.8
-0.341959 -3.80769e-06 0 -11345.2
-0.335978 -3.80769e-06 0 -11299
-0.33004 -3.80769e-06 0 -11258
-0.324146 -3.80769e-06 0 -11228.8
-0.318298 -3.80769e-06 0 -11204.1
-0.312497 -3.80769e-06 0 -11201.2
-0.306744 -3.80769e-06 0 -11203.6
-0.301041 -3.80769e-06 0 -11206
-0.29539 -3.80769e-06 0 -11208.1
-0.28979 -3.80769e-06 0 -11195
-0.284243 -3.80769e-06 0 -11180.8
-0.278752 -3.80769e-06 0 -11156.3
-0.273316 -3.80769e-06 0 -11121.1
-0.267937 -3.80769e-06 0 -11080.5
-0.262614 -3.80769e-06 0 -11039.5
-0.25735 -3.80769e-06 0 -11005.1
-0.252146 -3.80769e-06 0 -10975
-0.247001 -3.80769e-06 0 -10950.6
-0.241916 -3.80769e-06 0 -10937
-0.236893 -3.80769e-06 0 -10934.2
-0.231931 -3.80769e-06 0 -10931.3
-0.227031 -3.80769e-06 0 -10929.4
-0.222195 -3.80769e-06 0 -10931.7
-0.217421 -3.80769e-06 0 -10934.6
-0.212711 -3.80769e-06 0 -10931.7
-0.208064 -3.80769e-06 0 -10924.6
-0.203482 -3.80769e-06 0 -10916
-0.198964 -3.80769e-06 0 -10903.4
-0.19451 -3.80769e-06 0 -10885.2
-0.19012 -3.80769e-06 0 -10867.1
-0.185796 -3.80769e-06 0 -10844
-0.181535 -3.80769e-06 0 -10820.2
-0.17734 -3.80769e-06 0 -10796.4
-0.173208 -3.80769e-06 0 -10768.6
-0.169141 -3.80769e-06 0 -10744.5
-0.165138 -3.80769e-06 0 -10722.3
-0.161199 -3.80769e-06 0 -10698.9
-0.157325 -3.80769e-06 0 -10686.7
-0.153513 -3.80769e-06 0 -10669.2
-0.149765 -3.80769e-06 0 -10662
-0.14608 -3.80769e-06 0 -10650.5
-0.142457 -3.80769e-06 0 -10649.8
-0.138897 -3.80769e-06 0 -10642.2
-0.135398 -3.80769e-06 0 -10642.2
-0.131961 -3.80769e-06 0 -10646.2
-0.128584 -3.80769e-06 0 -10650.2
-0.125268 -3.80769e-06 0 -10655.3
-0.122011 -3.80769e-06 0 -10660.5
-0.118815 -3.80769e-06 0 -10664.1
-0.115677 -3.80769e-06 0 -10664.1
-0.112597 -3.80769e-06 0 -10668.9
-0.109574 -3.80769e-06 0 -10669
-0.106609 -3.80769e-06 0 -10668.1
-0.1037 -3.80769e-06 0 -10667.9
-0.100846 -3.80769e-06 0 -10667.4
-0.098048 -3.80769e-06 0 -10662.2
-0.0953042 -3.80769e-06 0 -10656.7
-0.0926143 -3.80769e-06 0 -10646
-0.0899773 -3.80769e-06 0 -10640.7
-0.0873927 -3.80769e-06 0 -10630
-0.0848599 -3.80769e-06 0 -10619.7
-0.082378 -3.80769e-06 0 -10609.2
-0.0799465 -3.80769e-06 0 -10598.8
-0.0775645 -3.80769e-06 0 -10588.6
-0.0752312 -3.80769e-06 0 -10578.2
-0.0729462 -3.80769e-06 0 -10568.1
-0.0707085 -3.80769e-06 0 -10557.9
-0.0685175 -3.80769e-06 0 -10547.9
-0.0663725 -3.80769e-06 0 -10532.4
-0.0642727 -3.80769e-06 0 -10522.5
-0.0622173 -3.80769e-06 0 -10512.7
-0.0602058 -3.80769e-06 0 -10502.6
-0.0582373 -3.80769e-06 0 -10492.9
-0.0563111 -3.80769e-06 0 -10483.2
-0.0544265 -3.80769e-06 0 -10473.5
-0.0525827 -3.80769e-06 0 -10463.8
-0.0507792 -3.80769e-06 0 -10454.3
-0.0490152 -3.80769e-06 0 -10450.1
-0.0472898 -3.80769e-06 0 -10440.7
-0.0456025 -3.80769e-06 0 -10436.6
-0.0439526 -3.80769e-06 0 -10427.2
-0.0423394 -3.80769e-06 0 -10423.2
-0.0407622 -3.80769e-06 0 -10419.4
-0.0392203 -3.80769e-06 0 -10410.3
-0.0377131 -3.80769e-06 0 -10406.6
-0.0362398 -3.80769e-06 0 -10402.9
-0.0347999 -3.80769e-06 0 -10399.4
-0.0333926 -3.80769e-06 0 -10395.9
-0.0320175 -3.80769e-06 0 -10392.5
-0.0306737 -3.80769e-06 0 -10389.3
-0.0293607 -3.80769e-06 0 -10386.2
-0.0280779 -3.80769e-06 0 -10415.2
-0.0268246 -3.80769e-06 0 -10455.5
-0.0256004 -3.80769e-06 0 -10114.3
-0.0244045 -3.80769e-06 0 -8742.36
-0.0232363 -3.80769e-06 0 -7052.95
-0.0220954 -3.80769e-06 0 -6523.01
-0.0209812 -3.80769e-06 0 -7132.66
-0.019893 -3.80769e-06 0 -8151.48
-0.0188303 -3.80769e-06 0 -9166.07
-0.0177927 -3.80769e-06 0 -10117.3
-0.0167794 -3.80769e-06 0 -10946.2
-0.0157901 -3.80769e-06 0 -11684.5
-0.0148243 -3.80769e-06 0 -12349.4
-0.0138814 -3.80769e-06 0 -12957
-0.0129608 -3.80769e-06 0 -13529.2
-0.0120623 -3.80769e-06 0 -14060.1
-0.0111851 -3.80769e-06 0 -14553.1
-0.0103289 -3.80769e-06 0 -15001.2
-0.00949328 -3.80769e-06 0 -15400.2
-0.00867767 -3.80769e-06 0 -15734.7
-0.00788168 -3.80769e-06 0 -16020.1
-0.00710485 -3.80769e-06 0 -16273.4
-0.00634675 -3.80769e-06 0 -16561.5
-0.00560698 -3.80769e-06 0 -16904.4
-0.0048851 -3.80769e-06 0 -17397.8
-0.00418071 -3.80769e-06 0 -18096.5
-0.00349342 -3.80769e-06 0 -19072.4
-0.00282284 -3.80769e-06 0 -20251.6
-0.00216857 -3.80769e-06 0 -21532.9
-0.00153026 -3.80769e-06 0 -22562.6
-0.00090752 -3.80769e-06 0 -22131.6
-0.0003 -3.80769e-06 0 -19165.7
0.000259937 0.000146262 2.25537e-21 -17662.7
0.000779437 0.000446185 0 -21216.3
0.00129893 0.000746101 0 -25122.7
0.00181858 0.00104611 2.2554e-21 -28189.9
0.00233835 0.00134618 -2.25541e-21 -30704.5
0.00285828 0.00164636 2.25542e-21 -32765.2
0.00337841 0.00194664 0 -34764.5
0.00389877 0.00224706 0 -36734.1
0.00441941 0.00254764 -2.25544e-21 -38775.7
0.00494034 0.00284839 2.25545e-21 -40910.3
0.00546162 0.00314934 -2.25546e-21 -43175.8
0.00598328 0.0034505 2.25547e-21 -45581
0.00650535 0.00375191 2.25547e-21 -48164.2
0.00702786 0.00405357 2.25548e-21 -50926.2
0.00755087 0.00435552 0 -53904.6
0.00807439 0.00465776 -2.25549e-21 -57115.1
0.00859847 0.00496033 2.2555e-21 -60614.8
0.00912315 0.00526324 0 -64436.7
0.00964845 0.00556651 2.25551e-21 -68638
0.0101744 0.00587017 0 -73237.3
0.0107011 0.00617424 0 -78257.3
0.0112285 0.00647873 -2.25552e-21 -83659.5
0.0117567 0.00678367 0 -89360.7
0.0122857 0.00708907 0 -95255.6
0.0128156 0.00739497 0 -100888
0.0133463 0.00770137 -2.25554e-21 -105499
0.0138779 0.00800831 0 -108101
0.0144106 0.0083158 0 -109827
0.0149442 0.00862387 0 -111491
0.0154788 0.00893253 0 -113298
0.0160145 0.00924181 0 -115482
0.0165513 0.00955172 2.25556e-21 -118187
0.0170893 0.00986231 -2.25556e-21 -121371
0.0176284 0.0101736 0 -124889
0.0181687 0.0104855 0 -128753
0.0187103 0.0107982 2.25556e-21 -132813
0.0192532 0.0111117 2.25557e-21 -137161
0.0197975 0.0114259 2.25557e-21 -141672
0.0203431 0.0117408 0 -146369
0.0208901 0.0120566 4.51114e-21 -151316
0.0214385 0.0123732 -4.51114e-21 -156444
0.0219884 0.0126907 0 -161796
0.0225398 0.0130091 4.51114e-21 -167193
0.0230928 0.0133283 0 -172708
0.0236474 0.0136485 0 -178159
0.0242037 0.0139697 0 -183648
0.0247616 0.0142918 -4.51113e-21 -189111
0.0253212 0.0146148 -4.51113e-21 -194701
0.0258825 0.0149389 -4.51114e-21 -200025
0.0264456 0.015264 0 -205670
0.0270106 0.0155902 0 -211086
0.0275774 0.0159174 -4.51112e-21 -216152
0.0281462 0.0162457 0 -220777
0.0287168 0.0165752 4.51111e-21 -224872
0.0292895 0.0169059 -4.51111e-21 -228300
0.0298642 0.0172376 0 -230862
0.0304409 0.0175706 0 -232372
0.0310198 0.0179048 4.5111e-21 -233378
0.0316007 0.0182402 4.5111e-21 -233893
0.0321839 0.0185768 -4.51107e-21 -233955
0.0327693 0.0189148 0 -234021
0.0333569 0.0192541 0 -234204
0.0339469 0.0195947 4.51106e-21 -234588
0.0345392 0.0199366 0 -234397
0.0351339 0.02028 0 -234734
0.035731 0.0206247 4.51105e-21 -234395
0.0363305 0.0209708 -4.51103e-21 -233548
0.0369326 0.0213184 4.51102e-21 -232516
0.0375373 0.0216675 0 -230904
0.0381445 0.0220181 0 -229058
0.0387543 0.0223702 0 -227838
0.0393668 0.0227238 4.51099e-21 -225998
0.0399821 0.023079 -4.51097e-21 -224700
0.0406001 0.0234358 4.51097e-21 -223018
0.041221 0.0237942 0 -221429
0.0418446 0.0241542 0 -219654
0.0424712 0.024516 4.51092e-21 -217907
0.0431006 0.0248794 -4.51094e-21 -216201
0.0437331 0.0252445 0 -214462
0.0443686 0.0256114 4.51089e-21 -212520
0.0450071 0.02598 4.51089e-21 -210817
0.0456487 0.0263505 0 -208747
0.0462935 0.0267227 0 -207096
0.0469415 0.0270968 -4.51085e-21 -205026
0.0475927 0.0274728 0 -203321
0.0482473 0.0278507 -4.51081e-21 -201741
0.0489051 0.0282305 4.51081e-21 -199909
0.0495663 0.0286122 -4.51079e-21 -198600
0.050231 0.0289959 0 -197292
0.0508991 0.0293816 -4.51077e-21 -195795
0.0515707 0.0297694 4.51073e-21 -194406
0.0522459 0.0301592 -4.51073e-21 -193264
0.0529247 0.0305511 0 -191625
0.0536071 0.0309451 0 -190671
0.0542933 0.0313412 -4.51067e-21 -189320
0.0549832 0.0317395 0 -188229
0.0556769 0.03214 0 -187048
0.0563744 0.0325427 0 -185888
0.0570758 0.0329477 -4.5106e-21 -184680
0.0577812 0.0333549 0 -183398
0.0584905 0.0337645 0 -182017
0.0592039 0.0341763 -4.51056e-21 -181114
0.0599214 0.0345905 4.51053e-21 -179861
0.060643 0.0350071 0 -179156
0.0613688 0.0354262 4.51049e-21 -178134
0.0620989 0.0358477 -4.51048e-21 -177503
0.0628332 0.0362716 4.51046e-21 -176529
0.0635719 0.0366981 0 -175597
0.0643149 0.037127 4.51041e-21 -175056
0.0650624 0.0375586 0 -173950
0.0658144 0.0379927 0 -173404
0.0665709 0.0384295 4.51035e-21 -172400
0.0673321 0.0388689 -4.51035e-21 -171681
0.0680979 0.039311 0 -171089
0.0688683 0.0397558 -4.51029e-21 -169996
0.0696435 0.0402034 4.51029e-21 -169456
0.0704236 0.0406537 0 -168461
0.0712085 0.0411069 0 -167978
0.0719983 0.0415628 0 -167039
0.0727931 0.0420217 0 -166315
0.0735929 0.0424834 0 -165848
0.0743978 0.0429481 0 -165072
0.0752078 0.0434158 0 -164670
0.076023 0.0438864 4.5101e-21 -163932
0.0768435 0.0443601 -4.51009e-21 -163520
0.0776693 0.0448369 -4.51004e-21 -162954
0.0785004 0.0453167 4.51003e-21 -162477
0.079337 0.0457997 0 -162249
0.080179 0.0462858 0 -161804
0.0810266 0.0467751 0 -161289
0.0818797 0.0472677 0 -161243
0.0827385 0.0477635 0 -160587
0.083603 0.0482626 0 -160347
0.0844733 0.0487651 4.50985e-21 -159772
0.0853495 0.0492709 -4.50983e-21 -159173
0.0862316 0.0497801 0 -158790
0.0871195 0.0502927 -4.50978e-21 -157874
0.0880135 0.0508089 0 -157402
0.0889136 0.0513285 0 -156852
0.0898198 0.0518517 0 -156186
0.0907322 0.0523785 0 -155900
0.0916509 0.0529089 0 -155366
0.0925758 0.0534429 4.50963e-21 -154943
0.0935072 0.0539806 4.50959e-21 -154540
0.094445 0.054522 0 -154123
0.0953894 0.0550672 4.50953e-21 -153674
0.0963404 0.0556162 0 -153192
0.0972979 0.0561691 0 -152702
0.0982622 0.0567258 0 -152306
0.0992333 0.0572865 0 -152017
0.100211 0.057851 0 -151818
0.101196 0.0584196 0 -151054
0.102188 0.0589922 4.50935e-21 -151019
0.103187 0.0595689 4.50932e-21 -150862
0.104193 0.0601497 -4.50928e-21 -149789
0.105206 0.0607347 0 -149957
0.106226 0.0613239 0 -149063
0.107254 0.0619172 0 -148969
0.10829 0.0625149 4.50918e-21 -148212
0.109332 0.0631169 4.50915e-21 -147967
0.110382 0.0637232 -4.50911e-21 -147876
0.11144 0.064334 -4.50908e-21 -147633
0.112506 0.0649492 4.50905e-21 -147798
0.11358 0.0655688 4.50902e-21 -146869
0.114661 0.066193 0 -146985
0.11575 0.0668218 0 -146824
0.116847 0.0674552 0 -146607
0.117952 0.0680932 0 -146679
0.119065 0.068736 0 -146354
0.120187 0.0693834 4.50884e-21 -145260
0.121316 0.0700357 0 -144939
0.122455 0.0706928 0 -144897
0.123601 0.0713548 -4.50875e-21 -143331
0.124756 0.0720217 0 -143961
0.12592 0.0726935 -4.5087e-21 -143224
0.127093 0.0733704 0 -143429
0.128274 0.0740524 0 -142888
0.129464 0.0747395 4.50859e-21 -143070
0.130663 0.0754317 0 -142946
0.131871 0.0761292 4.50853e-21 -142218
0.133088 0.0768319 4.50851e-21 -142375
0.134315 0.0775399 0 -141987
0.13555 0.0782532 4.50845e-21 -141295
0.136795 0.078972 0 -141567
0.13805 0.0796962 0 -140643
0.139314 0.080426 -4.50834e-21 -141022
0.140587 0.0811613 -4.50831e-21 -140225
0.14187 0.0819021 4.50827e-21 -139905
0.143163 0.0826487 0 -139611
0.144466 0.0834009 0 -139435
0.145779 0.0841589 0 -139587
0.147102 0.0849227 4.50815e-21 -138752
0.148435 0.0856924 4.50811e-21 -138607
0.149779 0.0864679 0 -138603
0.151133 0.0872495 4.50805e-21 -137899
0.152497 0.0880371 4.50801e-21 -137716
0.153871 0.0888307 4.50798e-21 -138150
0.155257 0.0896305 0 -137502
0.156653 0.0904364 4.50791e-21 -137078
0.15806 0.0912487 4.50787e-21 -137846
0.159478 0.0920672 0 -136696
0.160907 0.092892 0 -136619
0.162347 0.0937233 0 -136912
0.163798 0.0945611 4.50774e-21 -135749
0.16526 0.0954054 0 -135728
0.166734 0.0962563 0 -135924
0.168219 0.0971138 0 -135076
0.169716 0.097978 4.50761e-21 -135272
0.171225 0.098849 4.50758e-21 -135119
0.172745 0.0997268 4.50754e-21 -135246
0.174278 0.100611 0 -134158
0.175822 0.101503 0 -134477
0.177379 0.102402 0 -133369
0.178947 0.103308 4.50741e-21 -134285
0.180529 0.10422 4.50737e-21 -133827
0.182122 0.10514 4.50734e-21 -132983
0.183728 0.106068 0 -133772
0.185347 0.107002 -4.50727e-21 -133395
0.186979 0.107944 0 -132225
0.188623 0.108894 0 -132745
0.190281 0.109851 4.50716e-21 -132010
0.191952 0.110815 0 -131884
0.193636 0.111787 -4.5071e-21 -130985
0.195333 0.112767 -4.50707e-21 -130855
0.197044 0.113755 -4.50702e-21 -130432
0.198768 0.114751 -4.507e-21 -130106
0.200506 0.115754 -4.50696e-21 -129379
0.202258 0.116766 0 -129468
0.204024 0.117785 4.50688e-21 -128821
0.205805 0.118813 4.50686e-21 -129091
0.207599 0.119849 0 -128623
0.209408 0.120893 -4.50679e-21 -128256
0.211231 0.121946 -4.50676e-21 -128038
0.213068 0.123007 0 -128832
0.214921 0.124076 0 -128100
0.216788 0.125154 0 -127236
0.21867 0.126241 0 -127971
0.220567 0.127336 0 -127110
0.22248 0.12844 0 -126239
0.224408 0.129553 0 -127063
0.226351 0.130675 0 -126128
0.22831 0.131806 0 -126206
0.230284 0.132946 9.01282e-21 -126032
0.232275 0.134095 0 -125956
0.234282 0.135254 9.01268e-21 -125357
0.236304 0.136421 0 -125882
0.238344 0.137598 9.01253e-21 -125274
0.2404 0.138785 0 -124576
0.242472 0.139982 0 -124083
