# wallHeatFlux  FACE_DATA 398
# x  y  z  wallHeatFlux
-0.7975 0 0.025 -653666
-0.79239 0 0.025 -120541
-0.787056 0 0.025 -69608.2
-0.781492 0 0.025 -55772.3
-0.775691 0 0.025 -50451.5
-0.769649 0 0.025 -51584.8
-0.763362 0 0.025 -53262.8
-0.756822 0 0.025 -54223.9
-0.750025 0 0.025 -53919.6
-0.742968 0 0.025 -53290.4
-0.735648 0 0.025 -52415.2
-0.72806 0 0.025 -51406.1
-0.720203 0 0.025 -50359.9
-0.712076 0 0.025 -49346.1
-0.703677 0 0.025 -48416.3
-0.695006 0 0.025 -47544.1
-0.686065 0 0.025 -46756.5
-0.676855 0 0.025 -45925.4
-0.667379 0 0.025 -45215.8
-0.65764 0 0.025 -44644.9
-0.647644 0 0.025 -43974.9
-0.637397 0 0.025 -43335.7
-0.626906 0 0.025 -42857.7
-0.616179 0 0.025 -42284.5
-0.605224 0 0.025 -41765.1
-0.594054 0 0.025 -41254.6
-0.582678 0 0.025 -40843.1
-0.57111 0 0.025 -40408.5
-0.559364 0 0.025 -40010.7
-0.547454 0 0.025 -39583.5
-0.535396 0 0.025 -39235.7
-0.523205 0 0.025 -38927.4
-0.510901 0 0.025 -38603.2
-0.4985 0 0.025 -38302.3
-0.486021 0 0.025 -37941
-0.473483 0 0.025 -37588.8
-0.460905 0 0.025 -37320.4
-0.448308 0 0.025 -37099.7
-0.435709 0 0.025 -36920.7
-0.42313 0 0.025 -36739.3
-0.41059 0 0.025 -36476.3
-0.39811 0 0.025 -36179.7
-0.385706 0 0.025 -35914
-0.373398 0 0.025 -35739.7
-0.361205 0 0.025 -35618.4
-0.349141 0 0.025 -35511.5
-0.337226 0 0.025 -35366.9
-0.325475 0 0.025 -35178.9
-0.313901 0 0.025 -34974.7
-0.30252 0 0.025 -34748.4
-0.291343 0 0.025 -34549.9
-0.280382 0 0.025 -34410.5
-0.269646 0 0.025 -34324
-0.259148 0 0.025 -34248.6
-0.248893 0 0.025 -34179.9
-0.23889 0 0.025 -34100.9
-0.229143 0 0.025 -34005.3
-0.219659 0 0.025 -33884.4
-0.210441 0 0.025 -33768.6
-0.201491 0 0.025 -33655.3
-0.192812 0 0.025 -33556.3
-0.184405 0 0.025 -33476.9
-0.176269 0 0.025 -33396.1
-0.168404 0 0.025 -33327.3
-0.160808 0 0.025 -33264
-0.15348 0 0.025 -33203
-0.146415 0 0.025 -33142.6
-0.13961 0 0.025 -33081.1
-0.133063 0 0.025 -33021.2
-0.126767 0 0.025 -32961.9
-0.120718 0 0.025 -32908.4
-0.11491 0 0.025 -32860.8
-0.109339 0 0.025 -32808.4
-0.103997 0 0.025 -32766
-0.0988805 0 0.025 -32721.4
-0.0939808 0 0.025 -32674.8
-0.0892928 0 0.025 -32639.9
-0.0848096 0 0.025 -32605.1
-0.0805248 0 0.025 -32570.7
-0.0764316 0 0.025 -32536.5
-0.0725237 0 0.025 -32502.3
-0.0687943 0 0.025 -32468.7
-0.065237 0 0.025 -32423.9
-0.0618454 0 0.025 -32385.2
-0.058613 0 0.025 -32345.9
-0.0555337 0 0.025 -32307.4
-0.0526013 0 0.025 -32273.8
-0.0498099 0 0.025 -32240.3
-0.0471536 0 0.025 -32206.9
-0.0446266 0 0.025 -32178.9
-0.0422235 0 0.025 -32156.2
-0.039939 0 0.025 -32090.6
-0.0377676 0 0.025 -30947.8
-0.0357044 0 0.025 -25941.8
-0.0337445 0 0.025 -27322.3
-0.0318832 0 0.025 -39868.3
-0.0301159 0 0.025 -46515.4
-0.0284383 0 0.025 -51598.5
-0.0268461 0 0.025 -55798.2
-0.0253353 0 0.025 -59661.1
-0.023902 0 0.025 -63568
-0.0225426 0 0.025 -66675.7
-0.0212532 0 0.025 -69320.2
-0.0200306 0 0.025 -71640.8
-0.0188715 0 0.025 -73753.7
-0.0177728 0 0.025 -75744
-0.0167313 0 0.025 -77573.9
-0.0157444 0 0.025 -79152.2
-0.0148092 0 0.025 -80482.7
-0.0139232 0 0.025 -81555.4
-0.0130838 0 0.025 -82439.8
-0.0122887 0 0.025 -83224.3
-0.0115356 0 0.025 -83972
-0.0108223 0 0.025 -84727.8
-0.0101469 0 0.025 -85516.6
-0.00950727 0 0.025 -86360.6
-0.00890168 0 0.025 -87280.9
-0.00832835 0 0.025 -88283.4
-0.00778557 0 0.025 -89384.3
-0.00727176 0 0.025 -90584.4
-0.0067854 0 0.025 -91904.3
-0.00632507 0 0.025 -93346.6
-0.00588937 0 0.025 -94915
-0.00547703 0 0.025 -96616.8
-0.0050868 0 0.025 -98457.8
-0.00471753 0 0.025 -100461
-0.0043681 0 0.025 -102632
-0.00403746 0 0.025 -104951
-0.00372461 0 0.025 -107437
-0.0034286 0 0.025 -110118
-0.00314855 0 0.025 -113008
-0.0028836 0 0.025 -116044
-0.00263294 0 0.025 -119117
-0.00239581 0 0.025 -122405
-0.0021715 0 0.025 -125893
-0.00195929 0 0.025 -129545
-0.00175856 0 0.025 -133380
-0.00156869 0 0.025 -137412
-0.00138908 0 0.025 -141641
-0.0012192 0 0.025 -146086
-0.00105853 0 0.025 -150593
-0.000906546 0 0.025 -155048
-0.000762803 0 0.025 -159148
-0.000626848 0 0.025 -162377
-0.000498265 0 0.025 -163102
-0.000376656 0 0.025 -159064
-0.000261642 0 0.025 -147058
-0.00015287 0 0.025 -122885
-5e-05 0 0.025 -72387.3
4.14519e-05 2.79596e-05 0.025 -44318.8
0.000125371 8.45641e-05 0.025 -52905.6
0.000211347 0.000142556 0.025 -65662.5
0.000299429 0.000201968 0.025 -75013.9
0.000389669 0.000262835 0.025 -83036.6
0.000482118 0.000325193 0.025 -91799.7
0.000576831 0.000389077 0.025 -101055
0.000673861 0.000454524 0.025 -110029
0.000773265 0.000521574 0.025 -118267
0.0008751 0.000590262 0.025 -125634
0.000979426 0.000660632 0.025 -132145
0.0010863 0.000732721 0.025 -137885
0.00119579 0.000806572 0.025 -143003
0.00130795 0.000882227 0.025 -147684
0.00142285 0.00095973 0.025 -151936
0.00154056 0.00103912 0.025 -155950
0.00166115 0.00112046 0.025 -159735
0.00178467 0.00120378 0.025 -163436
0.00191121 0.00128913 0.025 -167078
0.00204083 0.00137656 0.025 -170666
0.00217362 0.00146612 0.025 -174297
0.00230964 0.00155787 0.025 -177938
0.00244897 0.00165185 0.025 -181671
0.00259169 0.00174812 0.025 -185485
0.00273789 0.00184673 0.025 -189422
0.00288765 0.00194774 0.025 -193511
0.00304105 0.00205122 0.025 -197725
0.00319818 0.00215719 0.025 -202101
0.00335912 0.00226575 0.025 -206707
0.00352397 0.00237695 0.025 -211473
0.00369283 0.00249085 0.025 -216495
0.00386579 0.00260751 0.025 -221751
0.00404294 0.00272699 0.025 -227287
0.00422438 0.00284938 0.025 -233133
0.00441022 0.00297474 0.025 -239306
0.00460056 0.00310312 0.025 -245822
0.00479552 0.00323462 0.025 -252696
0.00499519 0.0033693 0.025 -260040
0.00519968 0.00350723 0.025 -267766
0.00540911 0.00364849 0.025 -276056
0.00562361 0.00379318 0.025 -284862
0.00584329 0.00394134 0.025 -294202
0.00606826 0.00409309 0.025 -304233
0.00629865 0.00424849 0.025 -314871
0.0065346 0.00440764 0.025 -326314
0.00677623 0.00457063 0.025 -338650
0.00702368 0.00473753 0.025 -351830
0.00727707 0.00490844 0.025 -366211
0.00753655 0.00508347 0.025 -381662
0.00780227 0.00526269 0.025 -398148
0.00807436 0.00544622 0.025 -416081
0.00835298 0.00563415 0.025 -435671
0.00863826 0.00582659 0.025 -456494
0.00893038 0.00602362 0.025 -479692
0.00922949 0.00622537 0.025 -504630
0.00953574 0.00643195 0.025 -533527
0.00984929 0.00664345 0.025 -563696
0.0101703 0.00686 0.025 -595353
0.0104991 0.00708171 0.025 -638983
0.0108356 0.00730871 0.025 -683132
0.0111801 0.0075411 0.025 -727038
0.0115329 0.00777902 0.025 -775092
0.011894 0.00802259 0.025 -825625
0.0122637 0.00827194 0.025 -878165
0.0126421 0.00852719 0.025 -932097
0.0130295 0.0087885 0.025 -985827
0.013426 0.00905597 0.025 -1.04452e+06
0.013832 0.00932978 0.025 -1.10244e+06
0.0142475 0.00961003 0.025 -1.16122e+06
0.0146727 0.0098969 0.025 -1.22542e+06
0.0151081 0.0101905 0.025 -1.29074e+06
0.0155536 0.010491 0.025 -1.35521e+06
0.0160097 0.0107986 0.025 -1.415e+06
0.0164764 0.0111134 0.025 -1.47868e+06
0.016954 0.0114356 0.025 -1.54455e+06
0.0174427 0.0117653 0.025 -1.60098e+06
0.0179429 0.0121026 0.025 -1.65546e+06
0.0184548 0.0124479 0.025 -1.72156e+06
0.0189786 0.0128013 0.025 -1.74863e+06
0.0195146 0.0131628 0.025 -1.7807e+06
0.020063 0.0135327 0.025 -1.82562e+06
0.0206242 0.0139112 0.025 -1.83885e+06
0.0211983 0.0142984 0.025 -1.83944e+06
0.0217857 0.0146947 0.025 -1.84808e+06
0.0223867 0.0151 0.025 -1.85087e+06
0.0230015 0.0155147 0.025 -1.84976e+06
0.0236304 0.0159389 0.025 -1.85842e+06
0.0242738 0.0163729 0.025 -1.83796e+06
0.0249318 0.0168167 0.025 -1.83156e+06
0.025605 0.0172708 0.025 -1.8136e+06
0.0262935 0.0177352 0.025 -1.76812e+06
0.0269977 0.0182102 0.025 -1.69665e+06
0.0277178 0.0186959 0.025 -1.63241e+06
0.0284544 0.0191927 0.025 -1.62206e+06
0.0292075 0.0197008 0.025 -1.55018e+06
0.0299777 0.0202203 0.025 -1.48966e+06
0.0307653 0.0207514 0.025 -1.44148e+06
0.0315704 0.0212945 0.025 -1.39677e+06
0.0323937 0.0218499 0.025 -1.35741e+06
0.0332354 0.0224176 0.025 -1.3235e+06
0.0340959 0.022998 0.025 -1.29684e+06
0.0349755 0.0235913 0.025 -1.26701e+06
0.0358747 0.0241978 0.025 -1.2594e+06
0.0367938 0.0248178 0.025 -1.22796e+06
0.0377331 0.0254513 0.025 -1.20669e+06
0.0386932 0.0260989 0.025 -1.19496e+06
0.0396743 0.0267606 0.025 -1.18406e+06
0.0406769 0.0274369 0.025 -1.17344e+06
0.0417013 0.0281279 0.025 -1.15763e+06
0.042748 0.0288339 0.025 -1.15318e+06
0.0438175 0.0295552 0.025 -1.1423e+06
0.04491 0.0302922 0.025 -1.12945e+06
0.0460262 0.031045 0.025 -1.13006e+06
0.0471662 0.031814 0.025 -1.13728e+06
0.0483306 0.0325995 0.025 -1.12223e+06
0.0495199 0.0334016 0.025 -1.1199e+06
0.0507344 0.0342208 0.025 -1.11436e+06
0.0519746 0.0350573 0.025 -1.10942e+06
0.0532409 0.0359114 0.025 -1.11113e+06
0.0545339 0.0367835 0.025 -1.09964e+06
0.0558538 0.0376739 0.025 -1.09341e+06
0.0572012 0.0385827 0.025 -1.09195e+06
0.0585766 0.0395104 0.025 -1.09552e+06
0.0599804 0.0404573 0.025 -1.10635e+06
0.061413 0.0414236 0.025 -1.09433e+06
0.0628748 0.0424096 0.025 -1.10712e+06
0.0643665 0.0434157 0.025 -1.09927e+06
0.0658883 0.0444422 0.025 -1.07806e+06
0.0674408 0.0454894 0.025 -1.06973e+06
0.0690245 0.0465576 0.025 -1.07879e+06
0.0706398 0.0476471 0.025 -1.07811e+06
0.0722871 0.0487582 0.025 -1.07272e+06
0.0739669 0.0498912 0.025 -1.06838e+06
0.0756797 0.0510466 0.025 -1.07058e+06
0.0774258 0.0522244 0.025 -1.07665e+06
0.0792059 0.053425 0.025 -1.07195e+06
0.0810203 0.0546489 0.025 -1.09373e+06
0.0828694 0.0558961 0.025 -1.0732e+06
0.0847537 0.0571671 0.025 -1.10373e+06
0.0866737 0.0584622 0.025 -1.07402e+06
0.0886298 0.0597816 0.025 -1.06868e+06
0.0906224 0.0611256 0.025 -1.07073e+06
0.0926518 0.0624944 0.025 -1.04285e+06
0.0947185 0.0638884 0.025 -1.07256e+06
0.096823 0.065308 0.025 -1.04408e+06
0.0989659 0.0667532 0.025 -1.10641e+06
0.101147 0.0682245 0.025 -1.34893e+06
0.103367 0.0697219 0.025 -1.28574e+06
0.105626 0.0712458 0.025 -1.00455e+06
0.107926 0.0727965 0.025 -1.00158e+06
0.110265 0.074374 0.025 -1.02096e+06
0.112644 0.0759789 0.025 -1.41528e+06
0.115063 0.0776111 0.025 -1.02638e+06
0.117524 0.0792709 0.025 -1.34099e+06
0.120026 0.0809585 0.025 -1.45368e+06
0.122569 0.0826741 0.025 -1.3197e+06
0.125155 0.0844179 0.025 -1.20267e+06
0.127782 0.0861901 0.025 -1.06174e+06
0.130451 0.0879908 0.025 -1.02974e+06
0.133163 0.08982 0.025 -1.00737e+06
0.135918 0.0916781 0.025 -988606
0.138716 0.0935651 0.025 -991606
0.141556 0.095481 0.025 -1.00246e+06
0.14444 0.097426 0.025 -1.26468e+06
0.147367 0.0994004 0.025 -1.7393e+06
0.150337 0.101404 0.025 -1.34585e+06
0.153351 0.103437 0.025 -1.32544e+06
0.156408 0.105498 0.025 -1.69426e+06
0.159508 0.107589 0.025 -866922
0.162651 0.10971 0.025 -1.20648e+06
0.165838 0.111859 0.025 -2.38006e+06
0.169069 0.114039 0.025 -1.76237e+06
0.172343 0.116247 0.025 -1.47697e+06
0.175659 0.118483 0.025 -1.45405e+06
0.179018 0.120749 0.025 -1.45858e+06
0.182421 0.123045 0.025 -1.48575e+06
0.185866 0.125368 0.025 -1.35216e+06
0.189353 0.12772 0.025 -1.36512e+06
0.192882 0.1301 0.025 -1.43026e+06
0.196453 0.132509 0.025 -1.36132e+06
0.200065 0.134946 0.025 -1.62449e+06
0.203718 0.13741 0.025 -1.53776e+06
0.207412 0.139901 0.025 -779691
0.211146 0.14242 0.025 -829181
0.214919 0.144965 0.025 -1.31139e+06
0.218732 0.147537 0.025 -846216
0.222583 0.150134 0.025 -1.51882e+06
0.226472 0.152757 0.025 -817597
0.230399 0.155406 0.025 -1.32739e+06
0.234362 0.15808 0.025 -1.2809e+06
0.238362 0.160777 0.025 -1.7417e+06
0.242396 0.163498 0.025 -1.54461e+06
0.246466 0.166244 0.025 -1.62893e+06
0.250569 0.169012 0.025 -775232
0.254706 0.171801 0.025 -1.21103e+06
0.258874 0.174613 0.025 -1.24298e+06
0.263074 0.177446 0.025 -1.49151e+06
0.267304 0.180299 0.025 -1.20222e+06
0.271564 0.183172 0.025 -787204
0.275852 0.186064 0.025 -1.22096e+06
0.280168 0.188975 0.025 -776958
0.28451 0.191904 0.025 -1.24124e+06
0.288876 0.19485 0.025 -1.68621e+06
0.293268 0.197812 0.025 -1.20849e+06
0.297683 0.20079 0.025 -1.47828e+06
0.302119 0.203782 0.025 -1.59028e+06
0.306577 0.206788 0.025 -1.18845e+06
0.311054 0.209808 0.025 -1.20716e+06
0.315549 0.212841 0.025 -989122
0.320063 0.215885 0.025 -1.48498e+06
0.324591 0.218939 0.025 -1.10036e+06
0.329134 0.222003 0.025 -1.12901e+06
0.333691 0.225077 0.025 -1.67242e+06
0.33826 0.228159 0.025 -1.41335e+06
0.342839 0.231248 0.025 -1.4295e+06
0.347428 0.234343 0.025 -721597
0.352025 0.237444 0.025 -1.39975e+06
0.356628 0.240548 0.025 -1.0676e+06
0.361237 0.243658 0.025 -976472
0.36585 0.246769 0.025 -1.78473e+06
0.370465 0.249882 0.025 -940103
0.375082 0.252996 0.025 -1.19252e+06
0.379698 0.25611 0.025 -1.73402e+06
0.384313 0.259223 0.025 -1.12599e+06
0.388926 0.262333 0.025 -1.29977e+06
0.393534 0.265442 0.025 -1.09157e+06
0.398136 0.268546 0.025 -739375
0.40273 0.271645 0.025 -1.26582e+06
0.407317 0.274739 0.025 -1.19947e+06
0.411894 0.277826 0.025 -1.5482e+06
0.41646 0.280906 0.025 -696974
0.421014 0.283977 0.025 -1.13218e+06
0.425554 0.28704 0.025 -1.40849e+06
0.430079 0.290092 0.025 -1.17374e+06
0.434588 0.293133 0.025 -1.3721e+06
0.439079 0.296162 0.025 -987614
0.443551 0.299179 0.025 -1.18571e+06
0.448004 0.302183 0.025 -1.26343e+06
0.452437 0.305172 0.025 -1.24832e+06
0.456846 0.308146 0.025 -1.20634e+06
0.461232 0.311105 0.025 -1.22235e+06
0.465593 0.314047 0.025 -1.12151e+06
0.469929 0.316971 0.025 -1.38234e+06
0.474238 0.319878 0.025 -858497
0.47852 0.322766 0.025 -911912
0.482773 0.325635 0.025 -721977
0.486996 0.328483 0.025 -1.03485e+06
0.491189 0.331311 0.025 -1.44812e+06
0.49535 0.334118 0.025 -989534
