# p  FACE_DATA 398
# x  y  z  p
-0.7975 0 0.025 4472.62
-0.79239 0 0.025 3680.66
-0.787056 0 0.025 2935.76
-0.781492 0 0.025 2837.98
-0.775691 0 0.025 2788.47
-0.769649 0 0.025 2786.86
-0.763362 0 0.025 2814.29
-0.756822 0 0.025 2838.2
-0.750025 0 0.025 2853.26
-0.742968 0 0.025 2860.46
-0.735648 0 0.025 2865.08
-0.72806 0 0.025 2866.55
-0.720203 0 0.025 2866.64
-0.712076 0 0.025 2865.29
-0.703677 0 0.025 2864.37
-0.695006 0 0.025 2863.24
-0.686065 0 0.025 2862.3
-0.676855 0 0.025 2862.02
-0.667379 0 0.025 2859.09
-0.65764 0 0.025 2854.57
-0.647644 0 0.025 2852.99
-0.637397 0 0.025 2853.13
-0.626906 0 0.025 2848.59
-0.616179 0 0.025 2847.24
-0.605224 0 0.025 2845.05
-0.594054 0 0.025 2843.35
-0.582678 0 0.025 2840.46
-0.57111 0 0.025 2838.45
-0.559364 0 0.025 2836.28
-0.547454 0 0.025 2835.64
-0.535396 0 0.025 2832.91
-0.523205 0 0.025 2831.22
-0.510901 0 0.025 2828.91
-0.4985 0 0.025 2826.64
-0.486021 0 0.025 2825.91
-0.473483 0 0.025 2824.59
-0.460905 0 0.025 2822.72
-0.448308 0 0.025 2821.09
-0.435709 0 0.025 2818.93
-0.42313 0 0.025 2816.76
-0.41059 0 0.025 2816.33
-0.39811 0 0.025 2816.29
-0.385706 0 0.025 2814.94
-0.373398 0 0.025 2812.73
-0.361205 0 0.025 2811.57
-0.349141 0 0.025 2810.54
-0.337226 0 0.025 2808.86
-0.325475 0 0.025 2807.09
-0.313901 0 0.025 2806.15
-0.30252 0 0.025 2805.85
-0.291343 0 0.025 2805.75
-0.280382 0 0.025 2805.04
-0.269646 0 0.025 2804.17
-0.259148 0 0.025 2803.14
-0.248893 0 0.025 2802.47
-0.23889 0 0.025 2801.46
-0.229143 0 0.025 2800.44
-0.219659 0 0.025 2799.3
-0.210441 0 0.025 2798.36
-0.201491 0 0.025 2797.08
-0.192812 0 0.025 2795.77
-0.184405 0 0.025 2794.39
-0.176269 0 0.025 2793.63
-0.168404 0 0.025 2793.12
-0.160808 0 0.025 2793.12
-0.15348 0 0.025 2793.28
-0.146415 0 0.025 2793.65
-0.13961 0 0.025 2793.99
-0.133063 0 0.025 2794.43
-0.126767 0 0.025 2794.74
-0.120718 0 0.025 2794.92
-0.11491 0 0.025 2794.69
-0.109339 0 0.025 2794.17
-0.103997 0 0.025 2793.32
-0.0988805 0 0.025 2792.32
-0.0939808 0 0.025 2791.23
-0.0892928 0 0.025 2790.22
-0.0848096 0 0.025 2789.33
-0.0805248 0 0.025 2788.59
-0.0764316 0 0.025 2787.95
-0.0725237 0 0.025 2787.39
-0.0687943 0 0.025 2786.87
-0.065237 0 0.025 2786.43
-0.0618454 0 0.025 2786.06
-0.058613 0 0.025 2785.73
-0.0555337 0 0.025 2785.47
-0.0526013 0 0.025 2785.23
-0.0498099 0 0.025 2785.03
-0.0471536 0 0.025 2784.85
-0.0446266 0 0.025 2784.73
-0.0422235 0 0.025 2784.66
-0.039939 0 0.025 2784.65
-0.0377676 0 0.025 2784.68
-0.0357044 0 0.025 2784.76
-0.0337445 0 0.025 2784.91
-0.0318832 0 0.025 2784.7
-0.0301159 0 0.025 2788.8
-0.0284383 0 0.025 2906.95
-0.0268461 0 0.025 3813.37
-0.0253353 0 0.025 5367.22
-0.023902 0 0.025 6505.01
-0.0225426 0 0.025 7343.46
-0.0212532 0 0.025 7926.46
-0.0200306 0 0.025 8392.51
-0.0188715 0 0.025 8800.62
-0.0177728 0 0.025 9145.04
-0.0167313 0 0.025 9446.15
-0.0157444 0 0.025 9714.71
-0.0148092 0 0.025 9952.92
-0.0139232 0 0.025 10169.3
-0.0130838 0 0.025 10368.6
-0.0122887 0 0.025 10553.8
-0.0115356 0 0.025 10725.3
-0.0108223 0 0.025 10883.4
-0.0101469 0 0.025 11029.1
-0.00950727 0 0.025 11163.4
-0.00890168 0 0.025 11286.7
-0.00832835 0 0.025 11399.6
-0.00778557 0 0.025 11502.9
-0.00727176 0 0.025 11597.5
-0.0067854 0 0.025 11684.2
-0.00632507 0 0.025 11764.1
-0.00588937 0 0.025 11838.2
-0.00547703 0 0.025 11907.8
-0.0050868 0 0.025 11974.1
-0.00471753 0 0.025 12038.1
-0.0043681 0 0.025 12101.2
-0.00403746 0 0.025 12165.9
-0.00372461 0 0.025 12232.2
-0.0034286 0 0.025 12301.3
-0.00314855 0 0.025 12373.6
-0.0028836 0 0.025 12450.9
-0.00263294 0 0.025 12537.3
-0.00239581 0 0.025 12626.2
-0.0021715 0 0.025 12719.1
-0.00195929 0 0.025 12817.4
-0.00175856 0 0.025 12920.5
-0.00156869 0 0.025 13027.4
-0.00138908 0 0.025 13137.3
-0.0012192 0 0.025 13249.3
-0.00105853 0 0.025 13362
-0.000906546 0 0.025 13473.8
-0.000762803 0 0.025 13581.7
-0.000626848 0 0.025 13681.7
-0.000498265 0 0.025 13767.2
-0.000376656 0 0.025 13829.7
-0.000261642 0 0.025 13861.9
-0.00015287 0 0.025 13868.9
-5e-05 0 0.025 13958.9
4.14519e-05 2.79596e-05 0.025 13530.5
0.000125371 8.45641e-05 0.025 13629.5
0.000211347 0.000142556 0.025 13593.9
0.000299429 0.000201968 0.025 13524.7
0.000389669 0.000262835 0.025 13443.7
0.000482118 0.000325193 0.025 13361.9
0.000576831 0.000389077 0.025 13285.2
0.000673861 0.000454524 0.025 13217.5
0.000773265 0.000521574 0.025 13161.4
0.0008751 0.000590262 0.025 13118.1
0.000979426 0.000660632 0.025 13089.3
0.0010863 0.000732721 0.025 13070.6
0.00119579 0.000806572 0.025 13067.3
0.00130795 0.000882227 0.025 13077.2
0.00142285 0.00095973 0.025 13098.5
0.00154056 0.00103912 0.025 13131.2
0.00166115 0.00112046 0.025 13175
0.00178467 0.00120378 0.025 13229.7
0.00191121 0.00128913 0.025 13294
0.00204083 0.00137656 0.025 13368.6
0.00217362 0.00146612 0.025 13452.4
0.00230964 0.00155787 0.025 13545.6
0.00244897 0.00165185 0.025 13647
0.00259169 0.00174812 0.025 13757.7
0.00273789 0.00184673 0.025 13876.9
0.00288765 0.00194774 0.025 14004.7
0.00304105 0.00205122 0.025 14141.3
0.00319818 0.00215719 0.025 14286.9
0.00335912 0.00226575 0.025 14441.1
0.00352397 0.00237695 0.025 14604.6
0.00369283 0.00249085 0.025 14777.5
0.00386579 0.00260751 0.025 14960.2
0.00404294 0.00272699 0.025 15153
0.00422438 0.00284938 0.025 15356.5
0.00441022 0.00297474 0.025 15571.3
0.00460056 0.00310312 0.025 15797.9
0.00479552 0.00323462 0.025 16037.5
0.00499519 0.0033693 0.025 16290.1
0.00519968 0.00350723 0.025 16557.7
0.00540911 0.00364849 0.025 16840.3
0.00562361 0.00379318 0.025 17139.5
0.00584329 0.00394134 0.025 17456.4
0.00606826 0.00409309 0.025 17792.3
0.00629865 0.00424849 0.025 18148.5
0.0065346 0.00440764 0.025 18526.9
0.00677623 0.00457063 0.025 18928.7
0.00702368 0.00473753 0.025 19356.4
0.00727707 0.00490844 0.025 19811.3
0.00753655 0.00508347 0.025 20296.2
0.00780227 0.00526269 0.025 20813.5
0.00807436 0.00544622 0.025 21365.3
0.00835298 0.00563415 0.025 21955.1
0.00863826 0.00582659 0.025 22585.4
0.00893038 0.00602362 0.025 23259.6
0.00922949 0.00622537 0.025 23980.7
0.00953574 0.00643195 0.025 24752.8
0.00984929 0.00664345 0.025 25578.7
0.0101703 0.00686 0.025 26465
0.0104991 0.00708171 0.025 27412.2
0.0108356 0.00730871 0.025 28427.3
0.0111801 0.0075411 0.025 29517.1
0.0115329 0.00777902 0.025 30686.5
0.011894 0.00802259 0.025 31942.3
0.0122637 0.00827194 0.025 33296
0.0126421 0.00852719 0.025 34753.6
0.0130295 0.0087885 0.025 36326.4
0.013426 0.00905597 0.025 38024.2
0.013832 0.00932978 0.025 39855.5
0.0142475 0.00961003 0.025 41833.1
0.0146727 0.0098969 0.025 43964.9
0.0151081 0.0101905 0.025 46264.1
0.0155536 0.010491 0.025 48747.4
0.0160097 0.0107986 0.025 51439
0.0164764 0.0111134 0.025 54348
0.016954 0.0114356 0.025 57497
0.0174427 0.0117653 0.025 60891.9
0.0179429 0.0121026 0.025 64563
0.0184548 0.0124479 0.025 68521.2
0.0189786 0.0128013 0.025 72781.8
0.0195146 0.0131628 0.025 77380.8
0.020063 0.0135327 0.025 82349.3
0.0206242 0.0139112 0.025 87740.2
0.0211983 0.0142984 0.025 93651.4
0.0217857 0.0146947 0.025 100188
0.0223867 0.0151 0.025 107375
0.0230015 0.0155147 0.025 115147
0.0236304 0.0159389 0.025 123567
0.0242738 0.0163729 0.025 132589
0.0249318 0.0168167 0.025 142001
0.025605 0.0172708 0.025 151177
0.0262935 0.0177352 0.025 158919
0.0269977 0.0182102 0.025 164244
0.0277178 0.0186959 0.025 166506
0.0284544 0.0191927 0.025 166797
0.0292075 0.0197008 0.025 164842
0.0299777 0.0202203 0.025 163397
0.0307653 0.0207514 0.025 160648
0.0315704 0.0212945 0.025 157857
0.0323937 0.0218499 0.025 154905
0.0332354 0.0224176 0.025 151581
0.0340959 0.022998 0.025 147956
0.0349755 0.0235913 0.025 144233
0.0358747 0.0241978 0.025 140783
0.0367938 0.0248178 0.025 137676
0.0377331 0.0254513 0.025 135090
0.0386932 0.0260989 0.025 133035
0.0396743 0.0267606 0.025 131470
0.0406769 0.0274369 0.025 130142
0.0417013 0.0281279 0.025 129038
0.042748 0.0288339 0.025 128229
0.0438175 0.0295552 0.025 127701
0.04491 0.0302922 0.025 127312
0.0460262 0.031045 0.025 127016
0.0471662 0.031814 0.025 126755
0.0483306 0.0325995 0.025 127004
0.0495199 0.0334016 0.025 127291
0.0507344 0.0342208 0.025 127358
0.0519746 0.0350573 0.025 127051
0.0532409 0.0359114 0.025 126736
0.0545339 0.0367835 0.025 126759
0.0558538 0.0376739 0.025 127068
0.0572012 0.0385827 0.025 127131
0.0585766 0.0395104 0.025 126863
0.0599804 0.0404573 0.025 126424
0.061413 0.0414236 0.025 126770
0.0628748 0.0424096 0.025 127720
0.0643665 0.0434157 0.025 128512
0.0658883 0.0444422 0.025 128579
0.0674408 0.0454894 0.025 128200
0.0690245 0.0465576 0.025 127816
0.0706398 0.0476471 0.025 127707
0.0722871 0.0487582 0.025 128223
0.0739669 0.0498912 0.025 128578
0.0756797 0.0510466 0.025 128598
0.0774258 0.0522244 0.025 128308
0.0792059 0.053425 0.025 127956
0.0810203 0.0546489 0.025 128173
0.0828694 0.0558961 0.025 128624
0.0847537 0.0571671 0.025 129209
0.0866737 0.0584622 0.025 129593
0.0886298 0.0597816 0.025 129901
0.0906224 0.0611256 0.025 130153
0.0926518 0.0624944 0.025 130373
0.0947185 0.0638884 0.025 130627
0.096823 0.065308 0.025 130632
0.0989659 0.0667532 0.025 130227
0.101147 0.0682245 0.025 129238
0.103367 0.0697219 0.025 128341
0.105626 0.0712458 0.025 127837
0.107926 0.0727965 0.025 127659
0.110265 0.074374 0.025 128273
0.112644 0.0759789 0.025 128831
0.115063 0.0776111 0.025 129896
0.117524 0.0792709 0.025 130128
0.120026 0.0809585 0.025 130195
0.122569 0.0826741 0.025 130267
0.125155 0.0844179 0.025 130086
0.127782 0.0861901 0.025 129742
0.130451 0.0879908 0.025 129039
0.133163 0.08982 0.025 128580
0.135918 0.0916781 0.025 128273
0.138716 0.0935651 0.025 128688
0.141556 0.095481 0.025 129319
0.14444 0.097426 0.025 129773
0.147367 0.0994004 0.025 129231
0.150337 0.101404 0.025 129630
0.153351 0.103437 0.025 128756
0.156408 0.105498 0.025 127222
0.159508 0.107589 0.025 127762
0.162651 0.10971 0.025 126718
0.165838 0.111859 0.025 124385
0.169069 0.114039 0.025 127366
0.172343 0.116247 0.025 125439
0.175659 0.118483 0.025 124927
0.179018 0.120749 0.025 124094
0.182421 0.123045 0.025 123012
0.185866 0.125368 0.025 122528
0.189353 0.12772 0.025 122141
0.192882 0.1301 0.025 122075
0.196453 0.132509 0.025 122325
0.200065 0.134946 0.025 121714
0.203718 0.13741 0.025 121718
0.207412 0.139901 0.025 121963
0.211146 0.14242 0.025 121148
0.214919 0.144965 0.025 120364
0.218732 0.147537 0.025 121171
0.222583 0.150134 0.025 121009
0.226472 0.152757 0.025 122515
0.230399 0.155406 0.025 122238
0.234362 0.15808 0.025 122340
0.238362 0.160777 0.025 121143
0.242396 0.163498 0.025 121148
0.246466 0.166244 0.025 120361
0.250569 0.169012 0.025 121265
0.254706 0.171801 0.025 120354
0.258874 0.174613 0.025 120296
0.263074 0.177446 0.025 119815
0.267304 0.180299 0.025 120549
0.271564 0.183172 0.025 121211
0.275852 0.186064 0.025 120832
0.280168 0.188975 0.025 121475
0.28451 0.191904 0.025 121075
0.288876 0.19485 0.025 120358
0.293268 0.197812 0.025 120985
0.297683 0.20079 0.025 119806
0.302119 0.203782 0.025 119547
0.306577 0.206788 0.025 120022
0.311054 0.209808 0.025 119301
0.315549 0.212841 0.025 119921
0.320063 0.215885 0.025 119338
0.324591 0.218939 0.025 120977
0.329134 0.222003 0.025 121589
0.333691 0.225077 0.025 121078
0.33826 0.228159 0.025 122006
0.342839 0.231248 0.025 121584
0.347428 0.234343 0.025 122497
0.352025 0.237444 0.025 121041
0.356628 0.240548 0.025 121295
0.361237 0.243658 0.025 121274
0.36585 0.246769 0.025 119655
0.370465 0.249882 0.025 122009
0.375082 0.252996 0.025 120906
0.379698 0.25611 0.025 120392
0.384313 0.259223 0.025 121312
0.388926 0.262333 0.025 120567
0.393534 0.265442 0.025 120983
0.398136 0.268546 0.025 121263
0.40273 0.271645 0.025 120504
0.407317 0.274739 0.025 120370
0.411894 0.277826 0.025 119912
0.41646 0.280906 0.025 121428
0.421014 0.283977 0.025 120574
0.425554 0.28704 0.025 120350
0.430079 0.290092 0.025 120879
0.434588 0.293133 0.025 120637
0.439079 0.296162 0.025 121403
0.443551 0.299179 0.025 121025
0.448004 0.302183 0.025 120938
0.452437 0.305172 0.025 121076
0.456846 0.308146 0.025 121408
0.461232 0.311105 0.025 121296
0.465593 0.314047 0.025 121460
0.469929 0.316971 0.025 121031
0.474238 0.319878 0.025 122186
0.47852 0.322766 0.025 121845
0.482773 0.325635 0.025 121943
0.486996 0.328483 0.025 121510
0.491189 0.331311 0.025 120767
0.49535 0.334118 0.025 122086
