# wallHeatFlux  FACE_DATA 398
# x  y  z  wallHeatFlux
-0.7975 0 0.025 -653671
-0.79239 0 0.025 -120061
-0.787056 0 0.025 -71281.5
-0.781492 0 0.025 -64153.2
-0.775691 0 0.025 -65592.2
-0.769649 0 0.025 -66403.7
-0.763362 0 0.025 -67004.6
-0.756822 0 0.025 -66924.7
-0.750025 0 0.025 -66440.2
-0.742968 0 0.025 -65690.4
-0.735648 0 0.025 -64784.8
-0.72806 0 0.025 -63825.1
-0.720203 0 0.025 -62871.4
-0.712076 0 0.025 -61977
-0.703677 0 0.025 -61156.3
-0.695006 0 0.025 -60366.6
-0.686065 0 0.025 -59640.3
-0.676855 0 0.025 -58988.1
-0.667379 0 0.025 -58281.3
-0.65764 0 0.025 -57579.4
-0.647644 0 0.025 -56991.8
-0.637397 0 0.025 -56461.7
-0.626906 0 0.025 -55841.5
-0.616179 0 0.025 -55323.1
-0.605224 0 0.025 -54826.7
-0.594054 0 0.025 -54344.2
-0.582678 0 0.025 -53820.3
-0.57111 0 0.025 -53353.4
-0.559364 0 0.025 -52928.5
-0.547454 0 0.025 -52564.8
-0.535396 0 0.025 -52129.6
-0.523205 0 0.025 -51695.3
-0.510901 0 0.025 -51309.5
-0.4985 0 0.025 -50962.1
-0.486021 0 0.025 -50683
-0.473483 0 0.025 -50358.7
-0.460905 0 0.025 -50009.8
-0.448308 0 0.025 -49670.8
-0.435709 0 0.025 -49362.1
-0.42313 0 0.025 -49077.2
-0.41059 0 0.025 -48861
-0.39811 0 0.025 -48653.8
-0.385706 0 0.025 -48401.6
-0.373398 0 0.025 -48127.9
-0.361205 0 0.025 -47863.9
-0.349141 0 0.025 -47624.6
-0.337226 0 0.025 -47406.6
-0.325475 0 0.025 -47220.3
-0.313901 0 0.025 -47066
-0.30252 0 0.025 -46927
-0.291343 0 0.025 -46778.5
-0.280382 0 0.025 -46608.4
-0.269646 0 0.025 -46432.1
-0.259148 0 0.025 -46256.3
-0.248893 0 0.025 -46098.4
-0.23889 0 0.025 -45946.4
-0.229143 0 0.025 -45810
-0.219659 0 0.025 -45680.7
-0.210441 0 0.025 -45545.9
-0.201491 0 0.025 -45403.6
-0.192812 0 0.025 -45253.7
-0.184405 0 0.025 -45119.2
-0.176269 0 0.025 -45009.5
-0.168404 0 0.025 -44917.8
-0.160808 0 0.025 -44852.9
-0.15348 0 0.025 -44812.5
-0.146415 0 0.025 -44794.3
-0.13961 0 0.025 -44780.1
-0.133063 0 0.025 -44762.6
-0.126767 0 0.025 -44745.9
-0.120718 0 0.025 -44719.1
-0.11491 0 0.025 -44677
-0.109339 0 0.025 -44624.9
-0.103997 0 0.025 -44556
-0.0988805 0 0.025 -44480.6
-0.0939808 0 0.025 -44397
-0.0892928 0 0.025 -44309.6
-0.0848096 0 0.025 -44222.3
-0.0805248 0 0.025 -44140.8
-0.0764316 0 0.025 -44054.2
-0.0725237 0 0.025 -43978.4
-0.0687943 0 0.025 -43908.7
-0.065237 0 0.025 -43838.4
-0.0618454 0 0.025 -43774.4
-0.058613 0 0.025 -43714.9
-0.0555337 0 0.025 -43661.9
-0.0526013 0 0.025 -43613.5
-0.0498099 0 0.025 -43570.8
-0.0471536 0 0.025 -43533.4
-0.0446266 0 0.025 -43501.5
-0.0422235 0 0.025 -43474.8
-0.039939 0 0.025 -43453.6
-0.0377676 0 0.025 -43432
-0.0357044 0 0.025 -43411.4
-0.0337445 0 0.025 -43400.5
-0.0318832 0 0.025 -43389.9
-0.0301159 0 0.025 -43213.1
-0.0284383 0 0.025 -40023.2
-0.0268461 0 0.025 -32371.1
-0.0253353 0 0.025 -41175.6
-0.023902 0 0.025 -59969.1
-0.0225426 0 0.025 -70881.2
-0.0212532 0 0.025 -77474.9
-0.0200306 0 0.025 -82919.2
-0.0188715 0 0.025 -87706
-0.0177728 0 0.025 -91576.5
-0.0167313 0 0.025 -95110.1
-0.0157444 0 0.025 -98349.7
-0.0148092 0 0.025 -101245
-0.0139232 0 0.025 -103975
-0.0130838 0 0.025 -106549
-0.0122887 0 0.025 -108880
-0.0115356 0 0.025 -110904
-0.0108223 0 0.025 -112621
-0.0101469 0 0.025 -114076
-0.00950727 0 0.025 -115318
-0.00890168 0 0.025 -116383
-0.00832835 0 0.025 -117349
-0.00778557 0 0.025 -118279
-0.00727176 0 0.025 -119255
-0.0067854 0 0.025 -120329
-0.00632507 0 0.025 -121537
-0.00588937 0 0.025 -122894
-0.00547703 0 0.025 -124416
-0.0050868 0 0.025 -126084
-0.00471753 0 0.025 -127894
-0.0043681 0 0.025 -129845
-0.00403746 0 0.025 -131968
-0.00372461 0 0.025 -134211
-0.0034286 0 0.025 -136586
-0.00314855 0 0.025 -139124
-0.0028836 0 0.025 -141869
-0.00263294 0 0.025 -144746
-0.00239581 0 0.025 -147545
-0.0021715 0 0.025 -150418
-0.00195929 0 0.025 -153445
-0.00175856 0 0.025 -156573
-0.00156869 0 0.025 -159813
-0.00138908 0 0.025 -163156
-0.0012192 0 0.025 -166587
-0.00105853 0 0.025 -170091
-0.000906546 0 0.025 -173646
-0.000762803 0 0.025 -177117
-0.000626848 0 0.025 -180234
-0.000498265 0 0.025 -182163
-0.000376656 0 0.025 -180987
-0.000261642 0 0.025 -172936
-0.00015287 0 0.025 -150773
-5e-05 0 0.025 -97917.7
4.14519e-05 2.79596e-05 0.025 -70043.3
0.000125371 8.45641e-05 0.025 -83704.5
0.000211347 0.000142556 0.025 -99479.2
0.000299429 0.000201968 0.025 -110674
0.000389669 0.000262835 0.025 -120075
0.000482118 0.000325193 0.025 -129014
0.000576831 0.000389077 0.025 -137404
0.000673861 0.000454524 0.025 -144993
0.000773265 0.000521574 0.025 -151713
0.0008751 0.000590262 0.025 -157644
0.000979426 0.000660632 0.025 -162901
0.0010863 0.000732721 0.025 -167600
0.00119579 0.000806572 0.025 -171954
0.00130795 0.000882227 0.025 -175993
0.00142285 0.00095973 0.025 -179766
0.00154056 0.00103912 0.025 -183410
0.00166115 0.00112046 0.025 -186935
0.00178467 0.00120378 0.025 -190427
0.00191121 0.00128913 0.025 -193916
0.00204083 0.00137656 0.025 -197359
0.00217362 0.00146612 0.025 -200861
0.00230964 0.00155787 0.025 -204419
0.00244897 0.00165185 0.025 -208001
0.00259169 0.00174812 0.025 -211670
0.00273789 0.00184673 0.025 -215451
0.00288765 0.00194774 0.025 -219377
0.00304105 0.00205122 0.025 -223407
0.00319818 0.00215719 0.025 -227568
0.00335912 0.00226575 0.025 -231929
0.00352397 0.00237695 0.025 -236434
0.00369283 0.00249085 0.025 -241153
0.00386579 0.00260751 0.025 -246057
0.00404294 0.00272699 0.025 -251183
0.00422438 0.00284938 0.025 -256571
0.00441022 0.00297474 0.025 -262238
0.00460056 0.00310312 0.025 -268197
0.00479552 0.00323462 0.025 -274443
0.00499519 0.0033693 0.025 -281067
0.00519968 0.00350723 0.025 -287997
0.00540911 0.00364849 0.025 -295389
0.00562361 0.00379318 0.025 -303211
0.00584329 0.00394134 0.025 -311450
0.00606826 0.00409309 0.025 -320238
0.00629865 0.00424849 0.025 -329494
0.0065346 0.00440764 0.025 -339334
0.00677623 0.00457063 0.025 -349841
0.00702368 0.00473753 0.025 -361014
0.00727707 0.00490844 0.025 -372931
0.00753655 0.00508347 0.025 -385629
0.00780227 0.00526269 0.025 -399289
0.00807436 0.00544622 0.025 -413919
0.00835298 0.00563415 0.025 -429657
0.00863826 0.00582659 0.025 -446889
0.00893038 0.00602362 0.025 -465703
0.00922949 0.00622537 0.025 -485402
0.00953574 0.00643195 0.025 -506359
0.00984929 0.00664345 0.025 -530508
0.0101703 0.00686 0.025 -556980
0.0104991 0.00708171 0.025 -585152
0.0108356 0.00730871 0.025 -619330
0.0111801 0.0075411 0.025 -656398
0.0115329 0.00777902 0.025 -695879
0.011894 0.00802259 0.025 -740754
0.0122637 0.00827194 0.025 -786864
0.0126421 0.00852719 0.025 -831759
0.0130295 0.0087885 0.025 -876016
0.013426 0.00905597 0.025 -920347
0.013832 0.00932978 0.025 -962597
0.0142475 0.00961003 0.025 -1.00455e+06
0.0146727 0.0098969 0.025 -1.04276e+06
0.0151081 0.0101905 0.025 -1.08387e+06
0.0155536 0.010491 0.025 -1.1279e+06
0.0160097 0.0107986 0.025 -1.17366e+06
0.0164764 0.0111134 0.025 -1.22361e+06
0.016954 0.0114356 0.025 -1.27698e+06
0.0174427 0.0117653 0.025 -1.33074e+06
0.0179429 0.0121026 0.025 -1.38868e+06
0.0184548 0.0124479 0.025 -1.45772e+06
0.0189786 0.0128013 0.025 -1.50581e+06
0.0195146 0.0131628 0.025 -1.55851e+06
0.020063 0.0135327 0.025 -1.61996e+06
0.0206242 0.0139112 0.025 -1.65969e+06
0.0211983 0.0142984 0.025 -1.68836e+06
0.0217857 0.0146947 0.025 -1.72246e+06
0.0223867 0.0151 0.025 -1.75009e+06
0.0230015 0.0155147 0.025 -1.77208e+06
0.0236304 0.0159389 0.025 -1.80006e+06
0.0242738 0.0163729 0.025 -1.80061e+06
0.0249318 0.0168167 0.025 -1.81538e+06
0.025605 0.0172708 0.025 -1.82449e+06
0.0262935 0.0177352 0.025 -1.79981e+06
0.0269977 0.0182102 0.025 -1.77096e+06
0.0277178 0.0186959 0.025 -1.73191e+06
0.0284544 0.0191927 0.025 -1.74577e+06
0.0292075 0.0197008 0.025 -1.67934e+06
0.0299777 0.0202203 0.025 -1.64146e+06
0.0307653 0.0207514 0.025 -1.60846e+06
0.0315704 0.0212945 0.025 -1.57819e+06
0.0323937 0.0218499 0.025 -1.5563e+06
0.0332354 0.0224176 0.025 -1.53014e+06
0.0340959 0.022998 0.025 -1.50633e+06
0.0349755 0.0235913 0.025 -1.47341e+06
0.0358747 0.0241978 0.025 -1.47161e+06
0.0367938 0.0248178 0.025 -1.4368e+06
0.0377331 0.0254513 0.025 -1.41294e+06
0.0386932 0.0260989 0.025 -1.39493e+06
0.0396743 0.0267606 0.025 -1.37734e+06
0.0406769 0.0274369 0.025 -1.36642e+06
0.0417013 0.0281279 0.025 -1.34969e+06
0.042748 0.0288339 0.025 -1.35035e+06
0.0438175 0.0295552 0.025 -1.33637e+06
0.04491 0.0302922 0.025 -1.32342e+06
0.0460262 0.031045 0.025 -1.3248e+06
0.0471662 0.031814 0.025 -1.33078e+06
0.0483306 0.0325995 0.025 -1.32025e+06
0.0495199 0.0334016 0.025 -1.32109e+06
0.0507344 0.0342208 0.025 -1.31588e+06
0.0519746 0.0350573 0.025 -1.31154e+06
0.0532409 0.0359114 0.025 -1.31394e+06
0.0545339 0.0367835 0.025 -1.29952e+06
0.0558538 0.0376739 0.025 -1.29746e+06
0.0572012 0.0385827 0.025 -1.29623e+06
0.0585766 0.0395104 0.025 -1.29443e+06
0.0599804 0.0404573 0.025 -1.30271e+06
0.061413 0.0414236 0.025 -1.28859e+06
0.0628748 0.0424096 0.025 -1.31646e+06
0.0643665 0.0434157 0.025 -1.31953e+06
0.0658883 0.0444422 0.025 -1.2958e+06
0.0674408 0.0454894 0.025 -1.28149e+06
0.0690245 0.0465576 0.025 -1.28253e+06
0.0706398 0.0476471 0.025 -1.27235e+06
0.0722871 0.0487582 0.025 -1.27053e+06
0.0739669 0.0498912 0.025 -1.26863e+06
0.0756797 0.0510466 0.025 -1.278e+06
0.0774258 0.0522244 0.025 -1.28715e+06
0.0792059 0.053425 0.025 -1.27705e+06
0.0810203 0.0546489 0.025 -1.29699e+06
0.0828694 0.0558961 0.025 -1.26883e+06
0.0847537 0.0571671 0.025 -1.31355e+06
0.0866737 0.0584622 0.025 -1.27633e+06
0.0886298 0.0597816 0.025 -1.27864e+06
0.0906224 0.0611256 0.025 -1.28844e+06
0.0926518 0.0624944 0.025 -1.25424e+06
0.0947185 0.0638884 0.025 -1.29836e+06
0.096823 0.065308 0.025 -1.25453e+06
0.0989659 0.0667532 0.025 -1.33859e+06
0.101147 0.0682245 0.025 -1.67782e+06
0.103367 0.0697219 0.025 -1.57918e+06
0.105626 0.0712458 0.025 -1.19059e+06
0.107926 0.0727965 0.025 -1.18894e+06
0.110265 0.074374 0.025 -1.23253e+06
0.112644 0.0759789 0.025 -1.85033e+06
0.115063 0.0776111 0.025 -1.25472e+06
0.117524 0.0792709 0.025 -1.73759e+06
0.120026 0.0809585 0.025 -1.90183e+06
0.122569 0.0826741 0.025 -1.67686e+06
0.125155 0.0844179 0.025 -1.48918e+06
0.127782 0.0861901 0.025 -1.28789e+06
0.130451 0.0879908 0.025 -1.24351e+06
0.133163 0.08982 0.025 -1.21999e+06
0.135918 0.0916781 0.025 -1.19096e+06
0.138716 0.0935651 0.025 -1.19255e+06
0.141556 0.095481 0.025 -1.20327e+06
0.14444 0.097426 0.025 -1.58211e+06
0.147367 0.0994004 0.025 -2.3484e+06
0.150337 0.101404 0.025 -1.66233e+06
0.153351 0.103437 0.025 -1.61081e+06
0.156408 0.105498 0.025 -2.24989e+06
0.159508 0.107589 0.025 -1.02471e+06
0.162651 0.10971 0.025 -1.50985e+06
0.165838 0.111859 0.025 -3.60275e+06
0.169069 0.114039 0.025 -1.61087e+06
0.172343 0.116247 0.025 -1.97233e+06
0.175659 0.118483 0.025 -1.87005e+06
0.179018 0.120749 0.025 -1.86702e+06
0.182421 0.123045 0.025 -1.93181e+06
0.185866 0.125368 0.025 -1.6965e+06
0.189353 0.12772 0.025 -1.73313e+06
0.192882 0.1301 0.025 -1.83966e+06
0.196453 0.132509 0.025 -1.74059e+06
0.200065 0.134946 0.025 -2.14604e+06
0.203718 0.13741 0.025 -1.93763e+06
0.207412 0.139901 0.025 -924338
0.211146 0.14242 0.025 -987390
0.214919 0.144965 0.025 -1.61324e+06
0.218732 0.147537 0.025 -987376
0.222583 0.150134 0.025 -1.93948e+06
0.226472 0.152757 0.025 -977694
0.230399 0.155406 0.025 -1.82789e+06
0.234362 0.15808 0.025 -1.72376e+06
0.238362 0.160777 0.025 -2.35409e+06
0.242396 0.163498 0.025 -1.95308e+06
0.246466 0.166244 0.025 -2.11024e+06
0.250569 0.169012 0.025 -932050
0.254706 0.171801 0.025 -1.53018e+06
0.258874 0.174613 0.025 -1.53047e+06
0.263074 0.177446 0.025 -1.94237e+06
0.267304 0.180299 0.025 -1.574e+06
0.271564 0.183172 0.025 -947529
0.275852 0.186064 0.025 -1.62093e+06
0.280168 0.188975 0.025 -924297
0.28451 0.191904 0.025 -1.64789e+06
0.288876 0.19485 0.025 -2.2706e+06
0.293268 0.197812 0.025 -1.60415e+06
0.297683 0.20079 0.025 -1.91e+06
0.302119 0.203782 0.025 -2.0474e+06
0.306577 0.206788 0.025 -1.45434e+06
0.311054 0.209808 0.025 -1.57656e+06
0.315549 0.212841 0.025 -1.16237e+06
0.320063 0.215885 0.025 -2.01126e+06
0.324591 0.218939 0.025 -1.42057e+06
0.329134 0.222003 0.025 -1.40758e+06
0.333691 0.225077 0.025 -2.21212e+06
0.33826 0.228159 0.025 -1.77865e+06
0.342839 0.231248 0.025 -1.82439e+06
0.347428 0.234343 0.025 -873585
0.352025 0.237444 0.025 -1.92268e+06
0.356628 0.240548 0.025 -1.40863e+06
0.361237 0.243658 0.025 -1.15309e+06
0.36585 0.246769 0.025 -2.55156e+06
0.370465 0.249882 0.025 -1.02221e+06
0.375082 0.252996 0.025 -1.45386e+06
0.379698 0.25611 0.025 -2.294e+06
0.384313 0.259223 0.025 -1.39646e+06
0.388926 0.262333 0.025 -1.6993e+06
0.393534 0.265442 0.025 -1.40287e+06
0.398136 0.268546 0.025 -879116
0.40273 0.271645 0.025 -1.61872e+06
0.407317 0.274739 0.025 -1.67425e+06
0.411894 0.277826 0.025 -2.10135e+06
0.41646 0.280906 0.025 -835292
0.421014 0.283977 0.025 -1.58412e+06
0.425554 0.28704 0.025 -1.8541e+06
0.430079 0.290092 0.025 -1.47668e+06
0.434588 0.293133 0.025 -1.80739e+06
0.439079 0.296162 0.025 -1.27393e+06
0.443551 0.299179 0.025 -1.65291e+06
0.448004 0.302183 0.025 -1.68323e+06
0.452437 0.305172 0.025 -1.64296e+06
0.456846 0.308146 0.025 -1.52816e+06
0.461232 0.311105 0.025 -1.55342e+06
0.465593 0.314047 0.025 -1.43983e+06
0.469929 0.316971 0.025 -1.92279e+06
0.474238 0.319878 0.025 -989822
0.47852 0.322766 0.025 -1.10873e+06
0.482773 0.325635 0.025 -880037
0.486996 0.328483 0.025 -1.32043e+06
0.491189 0.331311 0.025 -2.00719e+06
0.49535 0.334118 0.025 -1.28034e+06
