/*--------------------------------*- C++ -*----------------------------------*\
| =========                 |                                                 |
| \\      /  F ield         | OpenFOAM: The Open Source CFD Toolbox           |
|  \\    /   O peration     | Version:  v2012                                 |
|   \\  /    A nd           | Website:  www.openfoam.com                      |
|    \\/     M anipulation  |                                                 |
\*---------------------------------------------------------------------------*/
FoamFile
{
    version     2.0;
    format      ascii;
    class       volScalarField;
    location    "2000";
    object      Fs;
}
// * * * * * * * * * * * * * * * * * * * * * * * * * * * * * * * * * * * * * //

dimensions      [0 0 0 0 0 0 0];


internalField   nonuniform List<scalar> 
39402
(
0
0.00392041
0
2.48789e-05
0.0881387
0
4.948e-05
3.17769e-05
0.0952434
0
4.84822e-05
5.0986e-05
4.01228e-05
0.0389631
0
4.58242e-05
4.42375e-05
5.18351e-05
4.96606e-05
0.0112628
0
4.37893e-05
4.35069e-05
4.14929e-05
5.13906e-05
5.38851e-05
0.00236834
2.44249e-15
4.84961e-05
4.32659e-05
4.22573e-05
3.94106e-05
4.89004e-05
5.14062e-05
0.000310521
5.37024e-10
4.72603e-05
4.71232e-05
4.30602e-05
4.10025e-05
3.80501e-05
4.43438e-05
4.38206e-05
2.99811e-05
1.14686e-06
4.41583e-05
4.58081e-05
4.64517e-05
4.25136e-05
3.99626e-05
3.77435e-05
3.78064e-05
3.27271e-05
1.95993e-06
0.00041703
4.34036e-05
4.40914e-05
4.48172e-05
4.61958e-05
4.19657e-05
3.92367e-05
3.86698e-05
3.24054e-05
2.08555e-05
8.08429e-08
0.0400388
4.29524e-05
4.35332e-05
4.39775e-05
4.42028e-05
4.59405e-05
4.14173e-05
3.87835e-05
3.99483e-05
3.05506e-05
1.13665e-05
1.87262e-09
0.546229
4.34195e-05
4.30222e-05
4.3375e-05
4.40008e-05
4.40051e-05
4.56631e-05
4.10279e-05
3.84027e-05
3.93602e-05
3.0546e-05
5.58589e-06
2.79218e-11
0.941217
4.44108e-05
4.32798e-05
4.27633e-05
4.31968e-05
4.40659e-05
4.42209e-05
4.53766e-05
4.09061e-05
3.79996e-05
3.46988e-05
3.05281e-05
2.49812e-06
5.38458e-13
0.991665
4.57092e-05
4.40712e-05
4.28824e-05
4.25367e-05
4.31376e-05
4.41151e-05
4.48798e-05
4.51106e-05
4.10409e-05
3.76552e-05
2.9861e-05
3.02801e-05
9.34938e-07
2.28151e-14
0.99848
4.51182e-05
4.48633e-05
4.35832e-05
4.25841e-05
4.24662e-05
4.31607e-05
4.41314e-05
4.56265e-05
4.47824e-05
4.13067e-05
3.73096e-05
2.83786e-05
3.04278e-05
3.06052e-07
6.66134e-16
0.999694
4.38327e-05
4.43986e-05
4.42393e-05
4.32732e-05
4.24263e-05
4.2543e-05
4.32877e-05
4.40514e-05
4.55377e-05
4.43996e-05
4.18417e-05
3.69592e-05
2.67204e-05
2.74745e-05
8.92718e-08
0
0.999972
4.29707e-05
4.331e-05
4.35959e-05
4.38961e-05
4.31115e-05
4.24172e-05
4.27661e-05
4.35162e-05
4.38886e-05
4.46522e-05
4.39959e-05
4.23092e-05
3.65341e-05
2.60184e-05
1.87685e-05
2.25259e-08
0
0.999999
4.40908e-05
4.26677e-05
4.26098e-05
4.31471e-05
4.36894e-05
4.31022e-05
4.25366e-05
4.30962e-05
4.381e-05
4.36336e-05
4.40783e-05
4.35597e-05
4.26877e-05
3.43229e-05
2.76866e-05
9.85898e-06
5.38383e-09
0
1
4.57455e-05
4.34944e-05
4.20716e-05
4.21353e-05
4.28944e-05
4.36857e-05
4.32214e-05
4.27698e-05
4.35491e-05
4.40808e-05
4.32315e-05
4.42368e-05
4.32007e-05
4.3098e-05
3.1108e-05
2.95292e-05
4.265e-06
1.23624e-09
0
1
4.60768e-05
4.44934e-05
4.27414e-05
4.16038e-05
4.18572e-05
4.28611e-05
4.38227e-05
4.34486e-05
4.30636e-05
4.40961e-05
4.43425e-05
4.25982e-05
4.43202e-05
4.3128e-05
4.22751e-05
2.84411e-05
2.724e-05
1.44166e-06
2.63098e-10
0
1
4.5749e-05
4.48404e-05
4.35521e-05
4.21961e-05
4.13019e-05
4.17849e-05
4.30065e-05
4.40687e-05
4.37226e-05
4.33391e-05
4.45123e-05
4.4625e-05
4.17255e-05
4.33028e-05
4.26244e-05
4.04532e-05
2.47357e-05
2.07494e-05
3.81422e-07
4.79459e-11
0
1
4.61049e-05
4.45434e-05
4.39018e-05
4.29438e-05
4.18126e-05
4.11838e-05
4.1898e-05
4.33073e-05
4.44271e-05
4.39859e-05
4.35695e-05
4.48327e-05
4.48239e-05
4.10487e-05
4.1613e-05
4.14674e-05
3.79156e-05
2.01281e-05
1.16181e-05
8.1783e-08
1.21071e-11
0
1
4.6363e-05
4.39258e-05
4.35775e-05
4.32372e-05
4.25402e-05
4.16009e-05
4.12759e-05
4.21617e-05
4.36525e-05
4.48706e-05
4.4211e-05
4.37753e-05
4.51729e-05
4.48818e-05
4.062e-05
4.02748e-05
3.96804e-05
3.39856e-05
1.51874e-05
3.64361e-06
1.6223e-08
4.1474e-12
0
1
4.621e-05
4.45734e-05
4.31779e-05
4.2928e-05
4.27689e-05
4.23606e-05
4.15761e-05
4.15457e-05
4.25438e-05
4.40132e-05
4.52142e-05
4.4396e-05
4.39564e-05
4.53488e-05
4.47567e-05
3.99926e-05
3.88136e-05
3.69443e-05
2.86847e-05
1.02017e-05
8.5896e-07
3.74418e-09
2.17792e-12
0
1
4.55791e-05
4.46675e-05
4.37507e-05
4.29683e-05
4.24747e-05
4.25644e-05
4.23518e-05
4.17003e-05
4.19247e-05
4.30694e-05
4.44171e-05
4.54834e-05
4.45922e-05
4.39818e-05
4.52616e-05
4.43637e-05
3.90023e-05
3.68964e-05
3.34117e-05
2.2306e-05
6.12507e-06
1.50983e-07
1.39126e-09
7.13596e-13
3.83027e-15
1
4.42741e-05
4.42636e-05
4.36488e-05
4.31688e-05
4.25298e-05
4.22954e-05
4.2561e-05
4.24873e-05
4.19365e-05
4.23204e-05
4.36275e-05
4.48225e-05
4.57846e-05
4.46647e-05
4.3793e-05
4.48984e-05
4.36191e-05
3.76268e-05
3.44378e-05
2.89045e-05
1.5548e-05
3.30789e-06
1.47213e-08
1.01588e-09
1.03584e-13
5.15199e-11
1
4.48865e-05
4.43315e-05
4.31868e-05
4.29162e-05
4.26737e-05
4.2287e-05
4.23338e-05
4.27372e-05
4.27197e-05
4.22561e-05
4.27512e-05
4.41033e-05
4.52055e-05
4.59623e-05
4.45495e-05
4.34024e-05
4.419e-05
4.2452e-05
3.57724e-05
3.1281e-05
2.34559e-05
9.33063e-06
1.51554e-06
9.20725e-10
1.21748e-09
1.05471e-14
3.47244e-07
1
4.54236e-05
4.41476e-05
4.32256e-05
4.24168e-05
4.23725e-05
4.24492e-05
4.22478e-05
4.2567e-05
4.30465e-05
4.29897e-05
4.26281e-05
4.32459e-05
4.45632e-05
4.55039e-05
4.59646e-05
4.42885e-05
4.27477e-05
4.3085e-05
4.07974e-05
3.3373e-05
2.73712e-05
1.74243e-05
4.73337e-06
4.7728e-07
5.53251e-11
1.18716e-09
7.77156e-16
0.161319
1
4.55825e-05
4.41609e-05
4.29878e-05
4.20295e-05
4.18488e-05
4.20816e-05
4.23779e-05
4.24102e-05
4.29545e-05
4.34375e-05
4.32943e-05
4.29833e-05
4.37619e-05
4.49908e-05
4.56365e-05
4.58006e-05
4.38149e-05
4.18039e-05
4.15351e-05
3.85791e-05
3.03439e-05
2.27018e-05
1.15026e-05
2.08113e-06
7.66545e-08
1.03829e-11
4.61893e-10
5.55112e-17
0.999965
1
4.54274e-05
4.42158e-05
4.30506e-05
4.2081e-05
4.14267e-05
4.15154e-05
4.19771e-05
4.24722e-05
4.27247e-05
4.34414e-05
4.38911e-05
4.35921e-05
4.33342e-05
4.42581e-05
4.52826e-05
4.55999e-05
4.54189e-05
4.31034e-05
4.05353e-05
3.95089e-05
3.57403e-05
2.66422e-05
1.74608e-05
6.52477e-06
8.3825e-07
4.8726e-09
2.2354e-11
5.98768e-11
0
0.999998
1
4.53412e-05
4.40595e-05
4.30875e-05
4.2231e-05
4.15052e-05
4.111e-05
4.13811e-05
4.20359e-05
4.26832e-05
4.31418e-05
4.39831e-05
4.43437e-05
4.38806e-05
4.37212e-05
4.46658e-05
4.54182e-05
4.53631e-05
4.47845e-05
4.21151e-05
3.8916e-05
3.69779e-05
3.22374e-05
2.22728e-05
1.20771e-05
3.07792e-06
2.84257e-07
1.51381e-10
6.47399e-10
4.38322e-12
0
0.999986
1
4.53772e-05
4.39571e-05
4.28798e-05
4.22536e-05
4.16061e-05
4.11724e-05
4.10222e-05
4.14385e-05
4.22105e-05
4.29682e-05
4.3632e-05
4.45694e-05
4.47686e-05
4.42106e-05
4.40446e-05
4.49387e-05
4.53717e-05
4.48773e-05
4.38601e-05
4.08158e-05
3.69146e-05
3.39173e-05
2.80968e-05
1.73998e-05
7.22957e-06
1.21274e-06
5.36057e-08
7.2406e-12
4.33282e-08
3.28071e-13
0
0.999984
1
4.53217e-05
4.3996e-05
4.27645e-05
4.20524e-05
4.16053e-05
4.12328e-05
4.10501e-05
4.11273e-05
4.16447e-05
4.2471e-05
4.33139e-05
4.41668e-05
4.51546e-05
4.52198e-05
4.44876e-05
4.42722e-05
4.50767e-05
4.50985e-05
4.41246e-05
4.26164e-05
3.91687e-05
3.45107e-05
3.03384e-05
2.33801e-05
1.23816e-05
3.60695e-06
4.31886e-07
3.44553e-09
4.67831e-12
5.57558e-07
2.27041e-14
2.498e-15
0.999997
1
4.52474e-05
4.39982e-05
4.27828e-05
4.19299e-05
4.1423e-05
4.12144e-05
4.10772e-05
4.11317e-05
4.13784e-05
4.1959e-05
4.27889e-05
4.37069e-05
4.47198e-05
4.57352e-05
4.561e-05
4.47003e-05
4.44164e-05
4.49945e-05
4.45728e-05
4.30701e-05
4.10255e-05
3.71382e-05
3.16659e-05
2.62701e-05
1.82818e-05
7.76312e-06
1.46043e-06
1.31894e-07
8.35324e-11
2.07603e-10
8.93524e-07
1.88738e-15
1.56153e-13
1
1
4.53244e-05
4.39259e-05
4.28077e-05
4.18979e-05
4.12915e-05
4.10523e-05
4.10345e-05
4.113e-05
4.13804e-05
4.17456e-05
4.23498e-05
4.31499e-05
4.41035e-05
4.52848e-05
4.62611e-05
4.58788e-05
4.48388e-05
4.44387e-05
4.47117e-05
4.37613e-05
4.16946e-05
3.90678e-05
3.46931e-05
2.83977e-05
2.17821e-05
1.31318e-05
4.1216e-06
5.00083e-07
2.11566e-08
3.60872e-12
8.33003e-08
6.22733e-07
3.88578e-16
1.27756e-11
1
0.999972
4.52345e-05
4.36969e-05
4.2718e-05
4.19245e-05
4.11983e-05
4.09125e-05
4.08787e-05
4.10522e-05
4.13413e-05
4.17485e-05
4.21949e-05
4.28097e-05
4.35176e-05
4.45038e-05
4.58101e-05
4.66568e-05
4.60557e-05
4.48697e-05
4.43088e-05
4.41923e-05
4.26378e-05
3.998e-05
3.67272e-05
3.17993e-05
2.46913e-05
1.70596e-05
8.41387e-06
1.79623e-06
1.57667e-07
1.05836e-09
4.71062e-12
7.93839e-06
1.89933e-07
4.996e-16
1.99086e-08
1
0.887811
4.51934e-05
4.36062e-05
4.24673e-05
4.18254e-05
4.12302e-05
4.07561e-05
4.07243e-05
4.08943e-05
4.12262e-05
4.16659e-05
4.22025e-05
4.27252e-05
4.32739e-05
4.38941e-05
4.49038e-05
4.62255e-05
4.69137e-05
4.60959e-05
4.47813e-05
4.39723e-05
4.33529e-05
4.1186e-05
3.7908e-05
3.39829e-05
2.84571e-05
2.06096e-05
1.23561e-05
4.62887e-06
6.39781e-07
3.76326e-08
2.34471e-11
7.37009e-10
5.29369e-05
1.76236e-08
8.32667e-16
3.32682e-06
1
0.0694124
4.53363e-05
4.37364e-05
4.2352e-05
4.15769e-05
4.11257e-05
4.0805e-05
4.05334e-05
4.07279e-05
4.10586e-05
4.15142e-05
4.20761e-05
4.27419e-05
4.32738e-05
4.3743e-05
4.43053e-05
4.52447e-05
4.65111e-05
4.69922e-05
4.59837e-05
4.45334e-05
4.3417e-05
4.22135e-05
3.93898e-05
3.54755e-05
3.08581e-05
2.46825e-05
1.62716e-05
8.05646e-06
2.11228e-06
2.05483e-07
3.51122e-09
2.47902e-12
4.66829e-07
4.32932e-05
4.20694e-10
1.05471e-15
0.000624903
1
0.00622792
4.53187e-05
4.38499e-05
4.24351e-05
4.14233e-05
4.08337e-05
4.0686e-05
4.05987e-05
4.05196e-05
4.08854e-05
4.13278e-05
4.18978e-05
4.25571e-05
4.32935e-05
4.38439e-05
4.42876e-05
4.46812e-05
4.55053e-05
4.66391e-05
4.68612e-05
4.56876e-05
4.40934e-05
4.26406e-05
4.0737e-05
3.72445e-05
3.2683e-05
2.7351e-05
2.05476e-05
1.19072e-05
4.55969e-06
7.88736e-07
5.91524e-08
1.07501e-10
2.23874e-11
5.61755e-05
2.30837e-05
3.21281e-11
2.55351e-15
0.0175567
1
0.00132673
4.52271e-05
4.38416e-05
4.25758e-05
4.14747e-05
4.06434e-05
4.037e-05
4.04712e-05
4.05892e-05
4.0667e-05
4.11509e-05
4.16656e-05
4.23464e-05
4.30647e-05
4.38463e-05
4.44806e-05
4.47942e-05
4.49953e-05
4.56748e-05
4.65799e-05
4.65002e-05
4.51787e-05
4.34283e-05
4.15619e-05
3.89171e-05
3.47365e-05
2.95339e-05
2.35114e-05
1.61788e-05
7.86515e-06
2.16194e-06
2.5813e-07
9.52752e-09
4.32238e-12
9.88332e-09
0.000142311
6.35662e-06
2.32675e-12
4.28324e-13
0.497283
1
0.00051997
4.52664e-05
4.37929e-05
4.25641e-05
4.16324e-05
4.07042e-05
4.01568e-05
4.01294e-05
4.04714e-05
4.07572e-05
4.09312e-05
4.15024e-05
4.2065e-05
4.28218e-05
4.35823e-05
4.44415e-05
4.5073e-05
4.52254e-05
4.52574e-05
4.57268e-05
4.63161e-05
4.58876e-05
4.44268e-05
4.24991e-05
4.01468e-05
3.67411e-05
3.18813e-05
2.60534e-05
1.94209e-05
1.1832e-05
4.52234e-06
8.42443e-07
8.04655e-08
5.40886e-10
3.86163e-12
4.22849e-06
0.000195751
1.54498e-06
5.78426e-14
5.9416e-11
0.941542
1
0.000265999
4.53264e-05
4.37913e-05
4.24731e-05
4.16189e-05
4.08836e-05
4.0211e-05
3.9899e-05
4.01041e-05
4.06341e-05
4.10511e-05
4.12933e-05
4.19265e-05
4.25133e-05
4.3314e-05
4.4117e-05
4.49931e-05
4.55831e-05
4.56047e-05
4.54335e-05
4.56385e-05
4.58304e-05
4.50205e-05
4.34011e-05
4.12668e-05
3.84021e-05
3.42148e-05
2.86815e-05
2.22973e-05
1.52186e-05
7.82708e-06
2.19112e-06
2.82161e-07
1.68706e-08
2.13914e-11
4.66282e-10
6.56177e-05
0.000135319
3.76474e-07
6.21725e-15
2.73884e-08
0.999953
1
0.000161676
4.52686e-05
4.3782e-05
4.2451e-05
4.14991e-05
4.08711e-05
4.04094e-05
3.99395e-05
3.98606e-05
4.02472e-05
4.09194e-05
4.1436e-05
4.1754e-05
4.23897e-05
4.29796e-05
4.38217e-05
4.46162e-05
4.54557e-05
4.60135e-05
4.58875e-05
4.5507e-05
4.53939e-05
4.5118e-05
4.38931e-05
4.20776e-05
3.96994e-05
3.62781e-05
3.13514e-05
2.51841e-05
1.8331e-05
1.11076e-05
4.54445e-06
8.71334e-07
8.92226e-08
1.44398e-09
6.37657e-12
2.9309e-07
0.000100832
5.05524e-05
4.12272e-08
2.16493e-15
3.4381e-05
1
0.999982
0.000108288
4.53691e-05
4.37713e-05
4.24201e-05
4.14472e-05
4.07255e-05
4.03982e-05
4.01675e-05
3.98866e-05
3.9992e-05
4.05203e-05
4.13118e-05
4.18732e-05
4.22863e-05
4.28682e-05
4.34632e-05
4.43074e-05
4.50429e-05
4.58279e-05
4.63279e-05
4.60601e-05
4.54483e-05
4.49739e-05
4.41801e-05
4.25075e-05
4.04322e-05
3.77631e-05
3.37974e-05
2.81557e-05
2.14165e-05
1.42908e-05
7.36613e-06
2.24379e-06
3.02435e-07
2.04132e-08
6.4996e-11
2.06768e-10
2.88428e-05
7.59299e-05
1.69803e-05
2.10829e-09
5.4956e-15
0.000129172
1
0.969382
7.83874e-05
4.53691e-05
4.38493e-05
4.24318e-05
4.13985e-05
4.06407e-05
4.02287e-05
4.01563e-05
4.0146e-05
4.0013e-05
4.0253e-05
4.09186e-05
4.17691e-05
4.23615e-05
4.28163e-05
4.3359e-05
4.39507e-05
4.47273e-05
4.53792e-05
4.60845e-05
4.64974e-05
4.60838e-05
4.52335e-05
4.43649e-05
4.30172e-05
4.08621e-05
3.84669e-05
3.54423e-05
3.09337e-05
2.46701e-05
1.74876e-05
1.03561e-05
4.307e-06
9.29487e-07
9.76084e-08
2.28466e-09
1.0742e-11
1.16853e-07
0.000100249
8.16564e-05
1.14723e-05
2.00156e-11
1.31078e-12
0.00259557
1
0.0685825
6.28192e-05
4.52755e-05
4.38663e-05
4.25551e-05
4.14368e-05
4.05816e-05
4.01209e-05
3.99612e-05
4.01322e-05
4.02994e-05
4.02601e-05
4.05947e-05
4.14032e-05
4.22988e-05
4.29024e-05
4.33342e-05
4.38531e-05
4.43945e-05
4.50717e-05
4.56081e-05
4.61972e-05
4.64932e-05
4.59336e-05
4.48291e-05
4.35504e-05
4.16396e-05
3.89707e-05
3.61523e-05
3.27288e-05
2.77314e-05
2.0952e-05
1.35205e-05
6.80821e-06
2.145e-06
3.38261e-07
2.52511e-08
1.31647e-10
1.07339e-10
2.13428e-05
0.000178303
6.78781e-05
9.74813e-06
2.84328e-13
1.70941e-10
0.154627
1
0.00283551
5.47e-05
4.5054e-05
4.37907e-05
4.25785e-05
4.15779e-05
4.06411e-05
4.00487e-05
3.9834e-05
3.99166e-05
4.02854e-05
4.05801e-05
4.06303e-05
4.10023e-05
4.1917e-05
4.28546e-05
4.34547e-05
4.38639e-05
4.4305e-05
4.47773e-05
4.5328e-05
4.57097e-05
4.61481e-05
4.62939e-05
4.55727e-05
4.42071e-05
4.25186e-05
4.00445e-05
3.68254e-05
3.35288e-05
2.96524e-05
2.42058e-05
1.70812e-05
9.71462e-06
3.92575e-06
9.03203e-07
1.16508e-07
3.33329e-09
2.19559e-11
3.20837e-08
7.83339e-05
0.000206015
4.74152e-05
2.30882e-06
7.25531e-14
5.11887e-08
0.99581
1
0.000530139
5.05218e-05
4.51983e-05
4.33878e-05
4.2457e-05
4.16086e-05
4.07957e-05
4.01146e-05
3.97498e-05
3.97756e-05
4.00533e-05
4.0571e-05
4.09471e-05
4.1107e-05
4.14915e-05
4.23978e-05
4.33893e-05
4.40147e-05
4.43506e-05
4.46887e-05
4.50836e-05
4.54757e-05
4.56694e-05
4.59161e-05
4.58784e-05
4.4969e-05
4.33359e-05
4.12453e-05
3.82445e-05
3.44628e-05
3.0582e-05
2.62311e-05
2.04379e-05
1.31998e-05
6.34466e-06
1.93595e-06
3.32961e-07
3.14217e-08
2.77696e-10
1.44669e-10
3.66212e-06
0.000102605
0.000201351
2.42484e-05
2.50409e-07
1.93734e-14
3.27373e-05
1
0.999989
0.000187781
4.78731e-05
4.52105e-05
4.34236e-05
4.20545e-05
4.14538e-05
4.08365e-05
4.0295e-05
3.98252e-05
3.96749e-05
3.99071e-05
4.03176e-05
4.0963e-05
4.13779e-05
4.16473e-05
4.20179e-05
4.2895e-05
4.39321e-05
4.45214e-05
4.47648e-05
4.50058e-05
4.52896e-05
4.54989e-05
4.54722e-05
4.54878e-05
4.52244e-05
4.40952e-05
4.21865e-05
3.97243e-05
3.62185e-05
3.18702e-05
2.73793e-05
2.25467e-05
1.6515e-05
9.4803e-06
3.64829e-06
8.07472e-07
1.16345e-07
4.70916e-09
5.19899e-11
3.05104e-08
2.94275e-05
0.000100336
0.00014229
1.21426e-05
3.12785e-10
6.2611e-13
0.000309542
1
0.929615
9.58027e-05
4.65943e-05
4.5137e-05
4.3465e-05
4.20608e-05
4.10863e-05
4.06525e-05
4.03398e-05
4.00275e-05
3.97562e-05
3.97874e-05
4.01681e-05
4.07056e-05
4.14427e-05
4.18736e-05
4.21943e-05
4.25405e-05
4.34511e-05
4.44327e-05
4.49511e-05
4.51076e-05
4.5231e-05
4.53828e-05
4.53863e-05
4.51083e-05
4.48532e-05
4.43205e-05
4.29299e-05
4.07411e-05
3.79187e-05
3.3983e-05
2.90597e-05
2.39614e-05
1.86754e-05
1.25833e-05
6.18514e-06
1.81191e-06
3.05316e-07
2.99758e-08
4.49269e-10
2.99706e-10
3.63335e-06
5.23539e-05
0.000139226
0.000146112
1.94053e-05
2.51771e-12
1.04866e-10
0.0116177
1
0.0220737
6.51002e-05
4.59679e-05
4.53822e-05
4.36707e-05
4.20971e-05
4.10359e-05
4.02366e-05
4.01309e-05
4.00772e-05
3.99902e-05
3.98638e-05
4.00425e-05
4.05272e-05
4.11961e-05
4.19849e-05
4.24268e-05
4.27192e-05
4.30783e-05
4.39422e-05
4.48579e-05
4.53089e-05
4.53533e-05
4.53468e-05
4.53473e-05
4.51274e-05
4.45732e-05
4.40064e-05
4.31577e-05
4.14591e-05
3.8974e-05
3.58232e-05
3.14942e-05
2.60446e-05
2.03857e-05
1.47624e-05
8.86836e-06
3.55867e-06
7.72166e-07
1.09471e-07
4.6184e-09
9.82553e-11
5.86036e-08
2.91766e-05
5.5665e-05
0.000126006
0.000173415
1.11837e-05
6.31106e-13
3.0506e-08
0.916784
1
0.000816985
5.38146e-05
4.56309e-05
4.56427e-05
4.38333e-05
4.22848e-05
4.10543e-05
4.01526e-05
3.96855e-05
3.98476e-05
4.00403e-05
4.01327e-05
4.01015e-05
4.04104e-05
4.09592e-05
4.17591e-05
4.25498e-05
4.30282e-05
4.32586e-05
4.357e-05
4.43493e-05
4.52114e-05
4.55695e-05
4.54854e-05
4.53398e-05
4.51673e-05
4.47145e-05
4.38587e-05
4.29489e-05
4.17366e-05
3.96809e-05
3.68689e-05
3.3422e-05
2.8747e-05
2.28488e-05
1.67405e-05
1.09684e-05
5.6266e-06
1.77346e-06
3.07714e-07
2.93013e-08
4.97735e-10
5.72953e-10
4.97323e-06
4.71207e-05
4.55317e-05
9.60231e-05
7.29632e-05
2.03588e-07
1.0153e-13
3.67392e-05
1
0.999983
0.000182487
4.88578e-05
4.54913e-05
4.55005e-05
4.40628e-05
4.2519e-05
4.12349e-05
4.01758e-05
3.9582e-05
3.93743e-05
3.97929e-05
4.01905e-05
4.04053e-05
4.04442e-05
4.086e-05
4.14489e-05
4.23272e-05
4.31233e-05
4.36338e-05
4.37613e-05
4.39828e-05
4.46901e-05
4.54685e-05
4.57198e-05
4.54913e-05
4.51924e-05
4.48344e-05
4.41386e-05
4.29657e-05
4.16811e-05
4.00566e-05
3.76112e-05
3.44502e-05
3.06966e-05
2.57485e-05
1.94982e-05
1.31363e-05
7.5131e-06
3.13338e-06
7.671e-07
1.17805e-07
4.82318e-09
1.65306e-10
7.24177e-08
3.30783e-05
5.41855e-05
5.50572e-05
6.39928e-05
1.53669e-05
9.00565e-10
4.90286e-12
0.000279502
1
0.773469
8.43108e-05
4.67795e-05
4.54329e-05
4.54631e-05
4.39941e-05
4.28671e-05
4.1515e-05
4.03853e-05
3.9589e-05
3.92413e-05
3.92975e-05
3.99224e-05
4.04723e-05
4.08026e-05
4.08997e-05
4.13714e-05
4.19816e-05
4.28488e-05
4.3704e-05
4.41727e-05
4.41927e-05
4.43221e-05
4.49312e-05
4.56167e-05
4.57464e-05
4.53592e-05
4.48936e-05
4.4338e-05
4.33907e-05
4.18894e-05
4.0213e-05
3.81596e-05
3.52581e-05
3.17221e-05
2.76642e-05
2.24827e-05
1.60451e-05
9.69372e-06
4.62955e-06
1.50793e-06
3.08497e-07
3.34092e-08
7.09505e-10
1.41311e-09
4.24268e-06
5.17304e-05
7.90995e-05
8.06223e-05
5.57197e-05
1.7731e-05
2.28855e-11
1.79948e-09
0.0317023
1
0.00556423
5.83905e-05
4.59092e-05
4.54098e-05
4.53546e-05
4.39631e-05
4.2794e-05
4.19281e-05
4.07071e-05
3.98109e-05
3.92378e-05
3.91203e-05
3.93976e-05
4.01907e-05
4.08592e-05
4.128e-05
4.14455e-05
4.19202e-05
4.25443e-05
4.33814e-05
4.42491e-05
4.46384e-05
4.45544e-05
4.45699e-05
4.50674e-05
4.56451e-05
4.56378e-05
4.50773e-05
4.44309e-05
4.36659e-05
4.24679e-05
4.0634e-05
3.85541e-05
3.6042e-05
3.26819e-05
2.87246e-05
2.43483e-05
1.89884e-05
1.25672e-05
6.60606e-06
2.51926e-06
6.45252e-07
1.14495e-07
5.5614e-09
3.83121e-10
1.59156e-07
2.11921e-05
5.62832e-05
0.000112291
0.000163373
6.0103e-05
1.2804e-05
8.52485e-13
8.64774e-07
0.999537
1
0.000304359
4.99726e-05
4.55748e-05
4.54016e-05
4.53172e-05
4.38762e-05
4.27437e-05
4.18703e-05
4.11693e-05
4.01655e-05
3.94692e-05
3.9125e-05
3.91908e-05
3.96249e-05
4.05762e-05
4.13442e-05
4.17985e-05
4.20356e-05
4.24714e-05
4.31048e-05
4.39235e-05
4.47353e-05
4.50387e-05
4.48255e-05
4.47099e-05
4.50859e-05
4.55442e-05
4.53869e-05
4.46367e-05
4.37948e-05
4.28142e-05
4.13599e-05
3.91829e-05
3.6714e-05
3.37395e-05
2.9899e-05
2.55127e-05
2.08084e-05
1.53478e-05
9.20722e-06
4.05746e-06
1.20879e-06
2.60576e-07
3.00066e-08
9.79182e-10
4.75529e-09
7.0435e-06
3.26244e-05
5.10264e-05
0.000103759
0.000184368
3.33905e-05
2.24162e-08
3.82067e-12
0.000126414
1
0.981004
9.68377e-05
4.69473e-05
4.54548e-05
4.53989e-05
4.511e-05
4.38558e-05
4.26141e-05
4.18076e-05
4.11342e-05
4.06729e-05
3.98524e-05
3.93573e-05
3.91884e-05
3.9403e-05
3.99614e-05
4.10563e-05
4.18977e-05
4.23469e-05
4.26401e-05
4.30205e-05
4.36305e-05
4.44022e-05
4.51528e-05
4.53505e-05
4.49947e-05
4.4736e-05
4.49798e-05
4.53088e-05
4.49875e-05
4.40316e-05
4.29768e-05
4.1772e-05
4.00527e-05
3.75557e-05
3.46994e-05
3.12807e-05
2.69664e-05
2.21451e-05
1.71388e-05
1.16996e-05
6.16154e-06
2.2101e-06
5.41335e-07
9.20741e-08
5.04768e-09
7.82295e-10
4.67231e-07
2.33846e-05
3.26646e-05
3.60789e-05
8.23197e-05
0.000131241
6.22768e-06
1.35769e-10
3.32994e-10
0.0149069
1
0.0161857
5.90574e-05
4.58858e-05
4.54144e-05
4.53981e-05
4.5292e-05
4.36767e-05
4.25664e-05
4.16523e-05
4.10667e-05
4.06539e-05
4.03969e-05
3.97653e-05
3.94312e-05
3.93944e-05
3.97283e-05
4.03911e-05
4.16067e-05
4.24907e-05
4.28872e-05
4.32364e-05
4.35514e-05
4.41004e-05
4.48013e-05
4.54821e-05
4.55628e-05
4.50516e-05
4.46407e-05
4.47442e-05
4.49361e-05
4.4435e-05
4.32558e-05
4.19719e-05
4.05341e-05
3.85503e-05
3.57438e-05
3.25221e-05
2.86848e-05
2.39215e-05
1.8708e-05
1.34689e-05
8.25752e-06
3.67761e-06
1.06423e-06
2.33267e-07
2.34979e-08
1.14391e-09
1.4078e-08
1.16166e-05
3.13061e-05
3.03318e-05
3.63829e-05
8.90148e-05
0.000138436
8.2397e-06
6.81716e-12
1.89703e-07
0.992546
1
0.000315871
4.94427e-05
4.55402e-05
4.54023e-05
4.53979e-05
4.52195e-05
4.36897e-05
4.23026e-05
4.1585e-05
4.08744e-05
4.05815e-05
4.04152e-05
4.03304e-05
3.98462e-05
3.96455e-05
3.97152e-05
4.0143e-05
4.08758e-05
4.2203e-05
4.30923e-05
4.34396e-05
4.37865e-05
4.4021e-05
4.44899e-05
4.51186e-05
4.57123e-05
4.56643e-05
4.49863e-05
4.44178e-05
4.43753e-05
4.44213e-05
4.37257e-05
4.2306e-05
4.07679e-05
3.90799e-05
3.68246e-05
3.37233e-05
3.01799e-05
2.59715e-05
2.08134e-05
1.52783e-05
9.96974e-06
5.27554e-06
1.93277e-06
4.82105e-07
8.18982e-08
4.61125e-09
1.71593e-09
1.39479e-06
3.42484e-05
4.24303e-05
4.14697e-05
5.4357e-05
0.000129623
0.000299701
9.61784e-07
6.34426e-12
7.07605e-05
1
0.967939
8.76293e-05
4.65431e-05
4.54361e-05
4.53989e-05
4.53979e-05
4.52213e-05
4.36201e-05
4.22933e-05
4.12751e-05
4.07959e-05
4.03657e-05
4.03178e-05
4.03881e-05
4.04655e-05
4.0059e-05
3.99763e-05
4.01314e-05
4.063e-05
4.13928e-05
4.28172e-05
4.36836e-05
4.40334e-05
4.42687e-05
4.44153e-05
4.4794e-05
4.53357e-05
4.5831e-05
4.56469e-05
4.47934e-05
4.40653e-05
4.38707e-05
4.37624e-05
4.28563e-05
4.11782e-05
3.93729e-05
3.74094e-05
3.48826e-05
3.1505e-05
2.76613e-05
2.31334e-05
1.76583e-05
1.19439e-05
6.83973e-06
3.00309e-06
9.18589e-07
2.10672e-07
1.99469e-08
1.69074e-09
5.66144e-08
1.91692e-05
4.7916e-05
5.51444e-05
5.86751e-05
6.33489e-05
0.000113325
6.23391e-05
8.17875e-10
1.2188e-09
0.0120461
1
0.00718869
5.50528e-05
4.57071e-05
4.54072e-05
4.53981e-05
4.53979e-05
4.52689e-05
4.36676e-05
4.22339e-05
4.12358e-05
4.04363e-05
4.02724e-05
4.00855e-05
4.02809e-05
4.05316e-05
4.07372e-05
4.03917e-05
4.04135e-05
4.06175e-05
4.1167e-05
4.19147e-05
4.34133e-05
4.42614e-05
4.46047e-05
4.46844e-05
4.47287e-05
4.50009e-05
4.54465e-05
4.58344e-05
4.55052e-05
4.44728e-05
4.35805e-05
4.32306e-05
4.29595e-05
4.18295e-05
3.9881e-05
3.77804e-05
3.55326e-05
3.27118e-05
2.90631e-05
2.49568e-05
2.01566e-05
1.44889e-05
8.81698e-06
4.27045e-06
1.5314e-06
4.11012e-07
7.07996e-08
4.74897e-09
5.60229e-09
3.61871e-06
3.64988e-05
5.56259e-05
6.08958e-05
5.65917e-05
4.26201e-05
3.15145e-05
9.47867e-07
3.71576e-11
1.253e-06
0.998608
0.999988
0.000195493
4.79088e-05
4.54738e-05
4.53999e-05
4.53979e-05
4.53979e-05
4.52031e-05
4.36864e-05
4.22997e-05
4.1183e-05
4.03803e-05
3.98714e-05
3.99787e-05
4.0025e-05
4.04211e-05
4.08136e-05
4.11072e-05
4.08167e-05
4.09229e-05
4.11473e-05
4.16989e-05
4.24339e-05
4.39404e-05
4.47844e-05
4.51043e-05
4.50232e-05
4.49436e-05
4.51003e-05
4.54394e-05
4.57194e-05
4.52373e-05
4.40216e-05
4.29666e-05
4.24529e-05
4.20072e-05
4.06392e-05
3.83952e-05
3.59879e-05
3.34198e-05
3.03132e-05
2.64044e-05
2.20518e-05
1.7052e-05
1.13473e-05
6.03795e-06
2.40898e-06
7.34504e-07
1.66035e-07
1.64232e-08
2.71705e-09
2.41183e-07
2.05786e-05
3.73963e-05
4.62326e-05
5.23903e-05
5.24691e-05
5.03258e-05
9.94741e-06
1.31314e-07
5.67902e-11
0.0001827
1
0.577217
6.86627e-05
4.60035e-05
4.54145e-05
4.53983e-05
4.53979e-05
4.53979e-05
4.51557e-05
4.37444e-05
4.23577e-05
4.12596e-05
4.03119e-05
3.97857e-05
3.95448e-05
3.99096e-05
4.01447e-05
4.06972e-05
4.12123e-05
4.15809e-05
4.12974e-05
4.14776e-05
4.16875e-05
4.22204e-05
4.29681e-05
4.4379e-05
4.52362e-05
4.55041e-05
4.52684e-05
4.5054e-05
4.50879e-05
4.53107e-05
4.54784e-05
4.48407e-05
4.34427e-05
4.22182e-05
4.15379e-05
4.09024e-05
3.92846e-05
3.67288e-05
3.40012e-05
3.10988e-05
2.76721e-05
2.35127e-05
1.89249e-05
1.38197e-05
8.32133e-06
3.76588e-06
1.23615e-06
3.42661e-07
5.00572e-08
4.28377e-09
1.89807e-08
7.13348e-06
2.65605e-05
3.13204e-05
3.66436e-05
5.29789e-05
9.82343e-05
0.000151577
3.33358e-05
9.75473e-10
5.84112e-09
0.165727
1
0.00106954
5.03444e-05
4.5531e-05
4.54011e-05
4.53979e-05
4.53979e-05
4.53979e-05
4.53089e-05
4.38322e-05
4.2466e-05
4.1341e-05
4.04028e-05
3.97098e-05
3.94102e-05
3.94274e-05
4.00224e-05
4.03944e-05
4.10743e-05
4.1712e-05
4.21337e-05
4.18371e-05
4.20277e-05
4.22199e-05
4.27474e-05
4.34609e-05
4.47507e-05
4.56147e-05
4.57817e-05
4.54125e-05
4.50537e-05
4.49565e-05
4.50599e-05
4.51111e-05
4.43138e-05
4.2733e-05
4.13393e-05
4.04752e-05
3.96526e-05
3.7754e-05
3.48884e-05
3.18049e-05
2.85663e-05
2.482e-05
2.03964e-05
1.56117e-05
1.05309e-05
5.57979e-06
2.12461e-06
6.08425e-07
1.31474e-07
1.22791e-08
4.96356e-09
9.81427e-07
2.07201e-05
2.66769e-05
3.14095e-05
4.10863e-05
7.09742e-05
0.000180548
0.000455676
6.5128e-06
3.33952e-11
6.16975e-06
0.99995
0.996925
0.000100897
4.64497e-05
4.54243e-05
4.53984e-05
4.53979e-05
4.53979e-05
4.53979e-05
4.5194e-05
4.39791e-05
4.25929e-05
4.14814e-05
4.0501e-05
3.98125e-05
3.93465e-05
3.92675e-05
3.94929e-05
4.02684e-05
4.07525e-05
4.15399e-05
4.22727e-05
4.27304e-05
4.24197e-05
4.25664e-05
4.2753e-05
4.32181e-05
4.38699e-05
4.50681e-05
4.59032e-05
4.59559e-05
4.5445e-05
4.49357e-05
4.47063e-05
4.46859e-05
4.46137e-05
4.36567e-05
4.18945e-05
4.03239e-05
3.92736e-05
3.82368e-05
3.60524e-05
3.2854e-05
2.94336e-05
2.58391e-05
2.17698e-05
1.71008e-05
1.21991e-05
7.36629e-06
3.34307e-06
1.12119e-06
2.88261e-07
3.77105e-08
5.18187e-09
8.93402e-08
1.36576e-05
2.8244e-05
3.08154e-05
3.98422e-05
5.11762e-05
8.05905e-05
0.000172413
8.70688e-05
7.19576e-08
7.03392e-10
0.000179771
1
0.0175316
5.41423e-05
4.56101e-05
4.54026e-05
4.5398e-05
4.53979e-05
4.53979e-05
4.53979e-05
4.51076e-05
4.39531e-05
4.28221e-05
4.1648e-05
4.0668e-05
3.9919e-05
3.94377e-05
3.91994e-05
3.93094e-05
3.96926e-05
4.06326e-05
4.1207e-05
4.20813e-05
4.28719e-05
4.33248e-05
4.30097e-05
4.31147e-05
4.32317e-05
4.36126e-05
4.42007e-05
4.53206e-05
4.60948e-05
4.60296e-05
4.53646e-05
4.47002e-05
4.43326e-05
4.41891e-05
4.39872e-05
4.28695e-05
4.09302e-05
3.91762e-05
3.79252e-05
3.66475e-05
3.4181e-05
3.06402e-05
2.68703e-05
2.29332e-05
1.85566e-05
1.36996e-05
8.85057e-06
4.61397e-06
1.77549e-06
5.57725e-07
1.09642e-07
1.17915e-08
1.60195e-08
4.38879e-06
3.3131e-05
3.94105e-05
4.088e-05
4.3813e-05
4.35254e-05
4.12003e-05
5.76372e-05
1.60825e-05
2.50649e-09
3.96828e-07
0.992359
0.999981
0.000173767
4.71358e-05
4.54363e-05
4.53986e-05
4.53979e-05
4.53979e-05
4.53979e-05
4.53979e-05
4.51381e-05
4.38778e-05
4.28201e-05
4.19272e-05
4.08721e-05
4.01078e-05
3.95535e-05
3.92761e-05
3.92261e-05
3.94702e-05
3.99932e-05
4.10891e-05
4.17331e-05
4.26622e-05
4.34906e-05
4.3903e-05
4.36087e-05
4.36134e-05
4.36444e-05
4.39341e-05
4.44471e-05
4.54819e-05
4.61837e-05
4.59931e-05
4.51647e-05
4.43457e-05
4.38416e-05
4.35696e-05
4.32335e-05
4.19545e-05
3.98334e-05
3.789e-05
3.64214e-05
3.49017e-05
3.21108e-05
2.82508e-05
2.41438e-05
1.9885e-05
1.52509e-05
1.0335e-05
5.84905e-06
2.57627e-06
8.64164e-07
2.3215e-07
3.15171e-08
8.70017e-09
5.18592e-07
3.06882e-05
4.6668e-05
4.22201e-05
3.91767e-05
3.31381e-05
2.44955e-05
2.45454e-05
2.1844e-05
1.78917e-06
4.34405e-10
0.000215721
1
0.256005
6.08723e-05
4.57074e-05
4.54041e-05
4.5398e-05
4.53979e-05
4.53979e-05
4.53979e-05
4.53979e-05
4.53038e-05
4.37755e-05
4.27782e-05
4.19501e-05
4.11869e-05
4.03421e-05
3.97592e-05
3.94073e-05
3.92959e-05
3.93943e-05
3.97501e-05
4.03932e-05
4.15882e-05
4.23062e-05
4.32481e-05
4.41089e-05
4.44719e-05
4.4174e-05
4.40422e-05
4.39852e-05
4.41643e-05
4.45905e-05
4.5532e-05
4.61653e-05
4.58447e-05
4.48512e-05
4.38723e-05
4.32306e-05
4.28281e-05
4.23534e-05
4.09065e-05
3.85957e-05
3.64641e-05
3.47535e-05
3.29613e-05
2.9857e-05
2.56776e-05
2.12649e-05
1.67311e-05
1.19541e-05
7.2358e-06
3.48594e-06
1.32291e-06
4.05408e-07
7.2211e-08
1.11048e-08
6.35106e-08
1.1293e-05
4.10405e-05
4.3449e-05
3.54346e-05
3.17094e-05
2.85469e-05
3.9847e-05
6.7959e-05
3.85214e-05
9.35278e-09
3.95651e-08
0.104987
0.999993
0.000438053
4.7935e-05
4.54488e-05
4.53987e-05
4.53979e-05
4.53979e-05
4.53979e-05
4.53979e-05
4.53979e-05
4.49724e-05
4.36916e-05
4.27266e-05
4.19563e-05
4.12492e-05
4.06835e-05
4.0011e-05
3.96228e-05
3.94318e-05
3.94444e-05
3.96697e-05
4.01316e-05
4.08626e-05
4.21095e-05
4.28936e-05
4.38254e-05
4.47206e-05
4.49952e-05
4.46867e-05
4.44074e-05
4.42374e-05
4.42985e-05
4.46269e-05
4.54701e-05
4.60369e-05
4.55814e-05
4.4421e-05
4.32833e-05
4.25013e-05
4.19614e-05
4.13417e-05
3.9727e-05
3.723e-05
3.48751e-05
3.29114e-05
3.08248e-05
2.73941e-05
2.29153e-05
1.82451e-05
1.35316e-05
8.82233e-06
4.6432e-06
1.89269e-06
6.56875e-07
1.54002e-07
2.1483e-08
1.82792e-08
2.02994e-06
3.03466e-05
3.72001e-05
3.38896e-05
3.06932e-05
3.21012e-05
4.36933e-05
0.000110462
0.000235285
8.81288e-06
2.49189e-10
1.48932e-05
0.999959
0.868236
6.95804e-05
4.58088e-05
4.54051e-05
4.5398e-05
4.53979e-05
4.53979e-05
4.53979e-05
4.53979e-05
4.53979e-05
4.53829e-05
4.38654e-05
4.2671e-05
4.19688e-05
4.12897e-05
4.07793e-05
4.03989e-05
3.9889e-05
3.96574e-05
3.95843e-05
3.97061e-05
4.00361e-05
4.05733e-05
4.13864e-05
4.26349e-05
4.34735e-05
4.43963e-05
4.5296e-05
4.54464e-05
4.51473e-05
4.46894e-05
4.43967e-05
4.43297e-05
4.45615e-05
4.53023e-05
4.57959e-05
4.52063e-05
4.38777e-05
4.25808e-05
4.16537e-05
4.09749e-05
4.02068e-05
3.84155e-05
3.57191e-05
3.31315e-05