/*--------------------------------*- C++ -*----------------------------------*\
| =========                 |                                                 |
| \\      /  F ield         | OpenFOAM: The Open Source CFD Toolbox           |
|  \\    /   O peration     | Version:  v2012                                 |
|   \\  /    A nd           | Website:  www.openfoam.com                      |
|    \\/     M anipulation  |                                                 |
\*---------------------------------------------------------------------------*/
FoamFile
{
    version     2.0;
    format      ascii;
    class       volScalarField;
    location    "2000";
    object      nk;
}
// * * * * * * * * * * * * * * * * * * * * * * * * * * * * * * * * * * * * * //

dimensions      [0 0 0 0 0 0 0];


internalField   nonuniform List<scalar> 
39402
(
0.048255
0.0533768
0.00287123
0.0534395
0.00132534
0.000579879
0.0537926
0.00113937
0.000229964
0.000193706
0.0545159
0.00172147
0.000162511
9.27235e-05
9.21034e-05
0.0548622
0.0032447
0.00157043
6.25169e-05
5.74629e-05
5.80333e-05
0.0550308
0.00402081
0.00520016
0.00250339
4.79806e-05
4.31975e-05
4.37825e-05
0.0551184
0.00441825
0.00693674
0.00873661
0.00363751
4.90602e-05
3.48848e-05
3.64333e-05
0.0551653
0.00463865
0.0078101
0.0116328
0.0126489
0.00482026
5.30978e-05
2.87204e-05
3.19024e-05
0.0551906
0.00475531
0.00828794
0.0130697
0.0167331
0.0165053
0.00594751
5.64605e-05
2.36501e-05
2.87197e-05
0.0552035
0.00481196
0.00853849
0.013847
0.0187332
0.0216719
0.0199372
0.00692271
5.77242e-05
1.94041e-05
2.62807e-05
0.0552113
0.00484087
0.00865936
0.0142522
0.0198034
0.0241676
0.0259785
0.0226487
0.00766801
5.67904e-05
1.59153e-05
2.43057e-05
0.0552151
0.00485447
0.00872026
0.0144467
0.0203592
0.0254871
0.0288572
0.0293151
0.0244789
0.00813475
5.43653e-05
1.31233e-05
2.26517e-05
0.055218
0.00485781
0.0087501
0.0145439
0.020627
0.0261729
0.0303605
0.0324571
0.0315482
0.0254076
0.00837563
5.10006e-05
1.08926e-05
2.12309e-05
0.0552183
0.00485821
0.00875869
0.0145927
0.0207624
0.0265088
0.0311463
0.0340798
0.0348586
0.0327283
0.0255548
0.00845024
4.72044e-05
9.10966e-06
1.99886e-05
0.0552162
0.00485241
0.00876045
0.0146076
0.0208344
0.026685
0.0315428
0.0349369
0.0365538
0.0361506
0.0329869
0.0251257
0.00840515
4.32096e-05
7.7113e-06
1.88874e-05
0.055216
0.00483873
0.00874911
0.0146116
0.0208616
0.0267886
0.0317638
0.0353858
0.0374626
0.0378943
0.0365058
0.0325699
0.0242621
0.00827566
3.82278e-05
6.64937e-06
1.78998e-05
0.0552159
0.00482649
0.00872082
0.0145943
0.0208737
0.0268403
0.0319097
0.0356552
0.0379574
0.0388454
0.0382957
0.0361588
0.0316456
0.023076
0.00807677
3.21356e-05
5.86703e-06
1.70066e-05
0.0552136
0.0048156
0.00869579
0.01455
0.0208565
0.0268738
0.0320023
0.0358524
0.0382771
0.0393809
0.0392902
0.0379901
0.0352959
0.0303368
0.0216667
0.00777721
2.53861e-05
5.31095e-06
1.6179e-05
0.0552092
0.00480264
0.00867294
0.0145102
0.0208031
0.0268711
0.0320742
0.0359996
0.0385299
0.0397508
0.0398655
0.039025
0.0371731
0.0340476
0.0287377
0.0201108
0.00722286
1.85691e-05
4.93209e-06
1.54031e-05
0.0552057
0.00478622
0.00864565
0.0144739
0.0207556
0.0268253
0.0321049
0.0361255
0.0387392
0.0400591
0.0402868
0.039636
0.0382499
0.0359789
0.0325106
0.0269295
0.0184647
0.00638395
1.25911e-05
4.67074e-06
1.46793e-05
0.0552034
0.00477011
0.00861089
0.01443
0.0207112
0.0267856
0.0320895
0.0362069
0.038927
0.0403309
0.0406495
0.0401038
0.0388971
0.0371001
0.0345069
0.0307587
0.0249658
0.0166222
0.0053432
8.05919e-06
4.36187e-06
1.40448e-05
0.0552013
0.00475571
0.00857632
0.0143743
0.0206564
0.0267477
0.0320794
0.0362419
0.039069
0.0405815
0.0409819
0.0405136
0.0394098
0.0377876
0.0356762
0.0328302
0.0288437
0.0228737
0.014633
0.00419467
5.03258e-06
4.08059e-06
1.35176e-05
0.0551983
0.00474197
0.00854548
0.0143183
0.020585
0.0266953
0.032068
0.0362813
0.0391663
0.0407861
0.0412932
0.0408977
0.0398628
0.0383442
0.0364102
0.034055
0.031001
0.0268024
0.0206748
0.0125435
0.00304554
3.27148e-06
3.8383e-06
1.31673e-05
0.0551954
0.00472823
0.0085162
0.0142681
0.0205129
0.0266228
0.0320376
0.036315
0.0392676
0.0409488
0.0415569
0.0412613
0.0402932
0.0388374
0.03701
0.0348414
0.0322922
0.0290581
0.0246582
0.0183876
0.0104282
0.00200525
2.32463e-06
3.61967e-06
1.29987e-05
0.055193
0.00471358
0.00848644
0.0142206
0.0204481
0.0265487
0.0319846
0.0363255
0.0393575
0.0411146
0.0417818
0.0415804
0.0407026
0.0393095
0.0375417
0.0354846
0.0331378
0.0304283
0.0270267
0.0224247
0.0160434
0.0083843
0.00116542
1.83478e-06
3.41892e-06
1.29836e-05
0.0551909
0.00469985
0.00845504
0.0141719
0.0203865
0.0264823
0.0319284
0.0363115
0.0394207
0.0412641
0.0420086
0.0418635
0.0410694
0.03976
0.0380516
0.0360536
0.0338264
0.0313407
0.0284912
0.0249219
0.0201188
0.013675
0.00641584
0.000580903
1.56823e-06
3.24496e-06
1.30313e-05
0.0551878
0.00468736
0.00842577
0.0141214
0.0203232
0.0264185
0.0318795
0.0362931
0.0394585
0.0413841
0.0422151
0.0421474
0.041402
0.040169
0.0385395
0.036599
0.0344324
0.032078
0.0294796
0.0264986
0.0227547
0.0177571
0.0113196
0.00459428
0.000244578
1.41537e-06
3.09924e-06
1.31339e-05
0.0551847
0.00467479
0.00839873
0.0140739
0.0202572
0.0263521
0.0318309
0.0362796
0.0394911
0.041478
0.0423895
0.0424073
0.0417341
0.0405456
0.0389865
0.0371207
0.0350114
0.032722
0.0302707
0.0275749
0.0244612
0.0205347
0.015357
0.00904518
0.00300774
8.8969e-05
1.32021e-06
2.9855e-06
1.32633e-05
0.0551823
0.00466141
0.00837197
0.01403
0.0201954
0.0262821
0.0317778
0.0362639
0.0395256
0.0415658
0.0425377
0.0426328
0.0420394
0.0409198
0.0394016
0.0376021
0.0355643
0.033334
0.030955
0.0284263
0.0256386
0.0223868
0.0182683
0.0129554
0.00694577
0.00174557
2.96324e-05
1.25701e-06
2.89562e-06
1.34478e-05
0.0551796
0.0046493
0.0083439
0.0139867
0.0201379
0.0262164
0.0317211
0.0362413
0.0395541
0.0416529
0.0426792
0.0428321
0.0423084
0.041265
0.0398129
0.0380517
0.0360769
0.0339164
0.0315998
0.0291548
0.0265593
0.0236794
0.0202777
0.0159672
0.0106036
0.00505792
0.000867938
9.70545e-06
1.21564e-06
2.85778e-06
1.36586e-05
0.0551769
0.00463658
0.0083187
0.0139415
0.0200812
0.026155
0.0316668
0.0362139
0.0395739
0.0417303
0.042817
0.0430237
0.0425508
0.0415725
0.0401936
0.0384959
0.0365577
0.0344579
0.0322105
0.0298335
0.0273372
0.0246797
0.0217
0.0181364
0.0136515
0.00836741
0.00339864
0.000363483
3.41548e-06
1.18621e-06
2.8407e-06
1.38805e-05
0.0551745
0.00462389
0.00829241
0.0139015
0.0200224
0.0260937
0.0316155
0.0361872
0.0395877
0.0417968
0.042942
0.0432092
0.0427843
0.0418525
0.0405352
0.0389081
0.0370312
0.0349669
0.0327796
0.0304725
0.0280523
0.0255127
0.0227917
0.0197013
0.0159675
0.0113553
0.00633066
0.00203657
0.000131505
1.47397e-06
1.16035e-06
2.82174e-06
1.40815e-05
0.0551732
0.00461199
0.00826633
0.0138601
0.0199707
0.0260305
0.031564
0.0361609
0.0395994
0.0418567
0.0430546
0.0433794
0.0430098
0.0421223
0.0408485
0.0392799
0.0374716
0.0354666
0.0333146
0.0310679
0.0287203
0.0262682
0.0236889
0.0208967
0.0176821
0.0137803
0.00913277
0.0045474
0.00104896
4.34146e-05
8.73323e-07
1.13623e-06
2.80123e-06
1.42438e-05
0.0551718
0.00460295
0.0082424
0.0138188
0.0199173
0.0259755
0.0315093
0.0361331
0.0396088
0.0419116
0.0431593
0.0435352
0.0432175
0.0423824
0.0411498
0.0396224
0.0378708
0.0359324
0.0338383
0.0316277
0.0293417
0.0269667
0.0244887
0.0218668
0.0189931
0.0156414
0.0115973
0.00706235
0.00300724
0.000455567
1.37249e-05
6.82547e-07
1.11431e-06
2.77979e-06
1.4369e-05
0.0551698
0.00459453
0.00822471
0.0137818
0.0198643
0.0259183
0.0314633
0.0361013
0.0396145
0.0419608
0.0432566
0.043682
0.0434092
0.0426226
0.0414401
0.0399518
0.0382394
0.0363563
0.0343272
0.0321732
0.0299254
0.0276147
0.0252201
0.0227179
0.0200468
0.0170771
0.0135833
0.00945849
0.00522885
0.00176262
0.00017034
4.34486e-06
6.17326e-07
1.09707e-06
2.76206e-06
1.44818e-05
0.0551671
0.00458372
0.00820871
0.0137549
0.0198173
0.0258614
0.0314145
0.0360769
0.0396153
0.0420046
0.0433451
0.0438179
0.0435908
0.0428455
0.0417088
0.0402685
0.0385935
0.0367483
0.0347737
0.0326839
0.0304918
0.0282219
0.0258959
0.0234863
0.0209564
0.0182258
0.0151464
0.0115214
0.00743122
0.00364087
0.000886049
5.74712e-05
1.50432e-06
5.91365e-07
1.08359e-06
2.74819e-06
1.45591e-05
0.055165
0.0045711
0.00818788
0.013731
0.0197839
0.025812
0.0313654
0.0360487
0.039622
0.0420423
0.0434269
0.0439426
0.0437616
0.0430572
0.0419585
0.0405616
0.0389331
0.0371245
0.0351873
0.0331511
0.0310224
0.0288081
0.0265269
0.0241911
0.021766
0.0192027
0.0163994
0.0132004
0.00948542
0.00559989
0.00230284
0.000380269
1.81084e-05
6.75914e-07
5.78068e-07
1.07281e-06
2.75358e-06
1.459e-05
0.0551644
0.00456007
0.00816359
0.0136999
0.0197549
0.0257784
0.0313239
0.0360194
0.0396233
0.0420839
0.0435007
0.0440583
0.0439189
0.043257
0.0421963
0.0408352
0.039248
0.0374845
0.0355829
0.0335842
0.0315094
0.0293579
0.027133
0.0248466
0.0225034
0.0200601
0.0174527
0.0145625
0.0112484
0.00753289
0.00401851
0.00127529
0.000143506
5.49473e-06
4.41594e-07
5.71011e-07
1.07039e-06
2.78384e-06
1.46023e-05
0.055164
0.00455206
0.00814334
0.0136636
0.0197164
0.0257498
0.0312991
0.0359968
0.0396224
0.0421185
0.0435769
0.0441657
0.0440659
0.0434414
0.0424209
0.0410953
0.0395424
0.0378187
0.0359615
0.033998
0.0319611
0.0298636
0.0277009
0.0254727
0.0231853
0.0208335
0.0183653
0.0157023
0.0127145
0.00931425
0.00574901
0.00266481
0.0006062
4.93297e-05
1.7078e-06
3.76127e-07
5.68546e-07
1.07405e-06
2.82305e-06
1.46067e-05
0.0551626
0.00454565
0.00812964
0.0136342
0.0196714
0.0257102
0.0312787
0.0359889
0.0396261
0.0421499
0.0436448
0.0442734
0.0442035
0.0436144
0.0426289
0.0413415
0.0398216
0.038131
0.036313
0.0343929
0.0323914
0.030333
0.0282248
0.0260591
0.0238321
0.0215441
0.0191799
0.0166781
0.0139458
0.010861
0.00744868
0.00419887
0.00157455
0.000250616
1.58191e-05
6.29146e-07
3.57543e-07
5.67232e-07
1.07796e-06
2.85787e-06
1.46055e-05
0.0551609
0.00453692
0.00811917
0.0136157
0.0196362
0.0256631
0.0312457
0.0359842
0.0396418
0.0421837
0.0437074
0.044371
0.0443392
0.0437772
0.042824
0.0415699
0.040087
0.0384277
0.0366415
0.0347602
0.0328014
0.0307788
0.0287115
0.0266008
0.0244366
0.0222128
0.0199224
0.01754
0.0149932
0.0121814
0.00902195
0.00573255
0.00286389
0.000807524
9.34415e-05
4.82007e-06
3.38577e-07
3.52522e-07
5.66822e-07
1.08209e-06
2.88851e-06
1.46035e-05
0.0551594
0.00452664
0.00810424
0.0136023
0.0196157
0.025628
0.0312052
0.0359663
0.039658
0.0422254
0.0437712
0.0444628
0.0444638
0.0439361
0.043008
0.0417842
0.0403328
0.0387095
0.0369532
0.0351035
0.0331833
0.0312033
0.0291721
0.027104
0.0249964
0.0228365
0.0206151
0.0183182
0.0159093
0.0133054
0.0104126
0.00724338
0.00422788
0.00176237
0.00036131
3.20846e-05
1.46329e-06
2.64437e-07
3.51685e-07
5.66393e-07
1.08405e-06
2.91366e-06
1.46014e-05
0.0551587
0.00451679
0.00808628
0.0135821
0.0196024
0.0256103
0.031178
0.0359409
0.0396608
0.0422644
0.0438382
0.0445532
0.0445819
0.0440832
0.0431868
0.041986
0.0405632
0.0389706
0.0372494
0.0354287
0.03354
0.0315986
0.02961
0.0275793
0.0255163
0.0234141
0.0212587
0.0190381
0.016729
0.0142828
0.0116116
0.00865715
0.00560119
0.00292948
0.000950482
0.000145854
1.02602e-05
5.10845e-07
2.46338e-07
3.52174e-07
5.66451e-07
1.0866e-06
2.93212e-06
1.45986e-05
0.055159
0.00450907
0.00806942
0.0135576
0.01958
0.0256006
0.0311688
0.0359291
0.0396566
0.0422906
0.0438999
0.0446438
0.0446963
0.0442226
0.043353
0.0421818
0.0407809
0.0392151
0.0375237
0.035738
0.0338776
0.0319678
0.0300183
0.0280303
0.0260059
0.0239509
0.0218555
0.0197037
0.0174795
0.0151502
0.012655
0.00991542
0.00696008
0.00415419
0.00184656
0.000448443
5.4169e-05
3.11812e-06
2.58631e-07
2.42206e-07
3.5267e-07
5.69373e-07
1.09081e-06
2.9439e-06
1.4597e-05
0.0551601
0.00450375
0.00805744
0.0135349
0.0195523
0.0255804
0.0311675
0.0359335
0.0396655
0.0423103
0.043949
0.0447254
0.0448075
0.0443565
0.0435106
0.042364
0.0409912
0.0394461
0.0377811
0.0360243
0.0341982
0.0323167
0.0303995
0.0284509
0.0264698
0.0244551
0.0224091
0.0203198
0.0181693
0.0159361
0.0135762
0.0110233
0.00823335
0.00539286
0.00290401
0.00102705
0.000190269
1.85686e-05
9.56272e-07
1.96096e-07
2.41758e-07
3.53219e-07
5.72233e-07
1.0975e-06
2.94954e-06
1.45951e-05
0.0551596
0.00450055
0.00805087
0.0135205
0.0195269
0.0255539
0.0311542
0.0359444
0.039687
0.0423414
0.0439921
0.0447948
0.0449077
0.0444848
0.0436615
0.0425372
0.0411873
0.039669
0.0380237
0.0362925
0.0344957
0.0326481
0.0307591
0.0288436
0.0269024
0.0249319
0.0229285
0.0208913
0.0188061
0.0166532
0.0144029
0.0120024
0.00939084
0.00661199
0.00400971
0.00185538
0.00050102
7.40321e-05
5.93639e-06
3.47586e-07
1.81753e-07
2.42134e-07
3.54411e-07
5.75248e-07
1.10629e-06
2.94918e-06
1.45929e-05
0.0551575
0.00449457
0.00804846
0.0135149
0.0195131
0.0255307
0.0311343
0.0359424
0.0397121
0.042381
0.0440447
0.0448594
0.0449957
0.0446002
0.043804
0.0427025
0.0413736
0.0398768
0.0382572
0.0365454
0.0347741
0.0329554
0.0311005
0.0292138
0.0273065
0.0253764
0.0234177
0.0214261
0.0193969
0.0173131
0.0151514
0.0128752
0.0104255
0.0077746
0.00511952
0.0028129
0.00105121
0.000219678
2.63796e-05
1.81618e-06
1.88155e-07
1.78715e-07
2.42804e-07
3.55675e-07
5.77008e-07
1.11525e-06
2.94738e-06
1.45908e-05
0.0551552
0.00448368
0.00804028
0.0135158
0.0195114
0.0255212
0.0311185
0.0359341
0.039724
0.0424207
0.0441017
0.0449316
0.0450788
0.0447033
0.0439321
0.0428574
0.0415507
0.0400747
0.0384752
0.0367883
0.0350357
0.0332429
0.0314175
0.0295646
0.0276867
0.0257919
0.0238747
0.0219293
0.0199478
0.0179239
0.0158372
0.01366
0.011348
0.00885025
0.00622461
0.00380382
0.00180709
0.00052398
8.83192e-05
8.68205e-06
5.73656e-07
1.49272e-07
1.78399e-07
2.4393e-07
3.57035e-07
5.78408e-07
1.12069e-06
2.94613e-06
1.45881e-05
0.0551532
0.00447249
0.0080216
0.0135076
0.0195185
0.0255261
0.0311171
0.0359301
0.0397299
0.0424469
0.0441543
0.0450038
0.0451683
0.0448022
0.0440483
0.0429964
0.0417165
0.0402617
0.0386826
0.037015
0.0352869
0.033513
0.0317133
0.0298903
0.0280467
0.026182
0.0243015
0.0223984
0.0204648
0.0184922
0.0164701
0.0143754
0.0121737
0.00981899
0.00729447
0.00480621
0.0026647
0.00103241
0.000235191
3.24894e-05
2.68034e-06
2.27248e-07
1.40481e-07
1.78834e-07
2.44923e-07
3.59383e-07
5.80597e-07
1.12199e-06
2.94525e-06
1.45854e-05
0.0551525
0.00446146
0.00800246
0.013483
0.0195134
0.0255413
0.0311311
0.03594
0.0397405
0.0424678
0.0441941
0.0450688
0.0452542
0.0449058
0.0441602
0.0431234
0.0418651
0.0404368
0.0388786
0.0372306
0.0355215
0.0337713
0.031991
0.0301947
0.0283814
0.0265514
0.0247022
0.0228368
0.0209473
0.019024
0.0170574
0.0150328
0.0129224
0.0106875
0.00829381
0.00581276
0.00355973
0.00170826
0.000520284
9.68395e-05
1.09758e-05
8.15317e-07
1.38133e-07
1.38786e-07
1.79332e-07
2.46298e-07
3.61972e-07
5.83649e-07
1.12079e-06
2.94481e-06
1.45827e-05
0.0551528
0.00445311
0.00798372
0.0134573
0.0194859
0.0255419
0.0311553
0.035964
0.039763
0.0424934
0.0442293
0.04512
0.0453304
0.0450027
0.0442755
0.0432463
0.0420012
0.0405933
0.0390613
0.0374343
0.0357441
0.034013
0.032256
0.0304794
0.0286937
0.0268946
0.0250807
0.0232479
0.0213977
0.0195201
0.0176053
0.0156407
0.013608
0.0114738
0.00920054
0.00679532
0.00446709
0.00248022
0.000973966
0.000236767
3.63784e-05
3.45888e-06
2.79078e-07
1.17092e-07
1.38662e-07
1.80297e-07
2.47783e-07
3.63789e-07
5.86769e-07
1.11871e-06
2.94476e-06
1.45806e-05
0.0551555
0.00444815
0.00797082
0.0134322
0.0194574
0.0255161
0.0311633
0.0359964
0.0397968
0.0425283
0.0442692
0.0451678
0.0453921
0.0450875
0.044382
0.0433718
0.0421332
0.0407376
0.0392251
0.0376242
0.0359546
0.0342421
0.0325039
0.0307508
0.0289852
0.0272147
0.0254327
0.0236361
0.0218196
0.0199829
0.0181152
0.016206
0.0142392
0.0121913
0.0100256
0.00772033
0.00538199
0.00329076
0.00157718
0.00049089
9.86601e-05
1.24921e-05
1.05017e-06
1.36721e-07
1.12572e-07
1.39029e-07
1.81412e-07
2.49421e-07
3.64875e-07
5.87335e-07
1.11718e-06
2.94464e-06
1.45785e-05
0.055158
0.00444955
0.00796492
0.0134164
0.0194291
0.025489
0.0311426
0.0360122
0.039836
0.0425705
0.0443144
0.0452197
0.0454508
0.0451576
0.0444742
0.0434865
0.0422671
0.0408773
0.0393759
0.037794
0.0361505
0.0344586
0.0327387
0.0310044
0.0292626
0.0275134
0.0257608
0.0239965
0.0222169
0.0204161
0.0185913
0.0167312
0.0148237
0.012849
0.010778
0.00857783
0.00628005
0.00411016
0.0022723
0.000891165
0.000223783
3.73282e-05
3.97834e-06
3.37165e-07
1.01883e-07
1.11794e-07
1.39448e-07
1.82681e-07
2.51416e-07
3.65764e-07
5.85861e-07
1.11646e-06
2.94444e-06
1.4577e-05
0.0551595
0.00445155
0.00797242
0.0134122
0.019414
0.0254618
0.0311215
0.0359996
0.0398592
0.0426153
0.044364
0.0452742
0.0455128
0.0452249
0.0445516
0.0435849
0.0423887
0.0410182
0.0395224
0.0379507
0.0363258
0.0346599
0.0329605
0.0312445
0.0295218
0.0277966
0.0260664
0.0243328
0.0225872
0.0208234
0.0190361
0.0172212
0.0153657
0.0134555
0.0114656
0.00936521
0.00714191
0.004938
0.00300089
0.00142559
0.000446171
9.33128e-05
1.28424e-05
1.20568e-06
1.4181e-07
9.41306e-08
1.11792e-07
1.40249e-07
1.84031e-07
2.53397e-07
3.66979e-07
5.83566e-07
1.11629e-06
2.94434e-06
1.45757e-05
0.0551595
0.00445121
0.00798104
0.0134291
0.019414
0.0254505
0.0311002
0.0359885
0.0398563
0.0426445
0.044413
0.0453294
0.0455761
0.0452954
0.0446262
0.0436686
0.0424932
0.0411463
0.0396697
0.0381028
0.036488
0.0348404
0.0331672
0.0314713
0.0297671
0.0280613
0.0263556
0.0246457
0.022932
0.0212029
0.0194541
0.0176785
0.0158705
0.014016
0.0120968
0.0100844
0.00795525
0.00576021
0.00373966
0.0020432
0.000793522
0.000202661
3.52407e-05
4.08169e-06
3.73778e-07
9.23802e-08
9.26604e-08
1.12072e-07
1.41149e-07
1.85693e-07
2.54566e-07
3.66463e-07
5.81858e-07
1.11625e-06
2.94437e-06
1.45744e-05
0.0551591
0.00444826
0.00798457
0.0134476
0.0194425
0.0254573
0.0310957
0.0359764
0.0398566
0.0426509
0.0444468
0.0453812
0.0456357
0.0453657
0.0447037
0.0437496
0.0425822
0.0412554
0.0398033
0.0382555
0.0366451
0.0350072
0.0333523
0.0316826
0.0299985
0.0283115
0.0266256
0.0249412
0.0232525
0.0215568
0.0198439
0.0181077
0.0163412
0.0145369
0.0126784
0.0107435
0.00870353
0.00656421
0.00448926
0.00269479
0.00125729
0.000392366
8.41681e-05
1.20962e-05
1.22863e-06
1.4309e-07
8.09168e-08
9.25085e-08
1.12537e-07
1.42381e-07
1.87194e-07
2.54967e-07
3.64745e-07
5.8101e-07
1.11634e-06
2.94453e-06
1.45745e-05
0.0551565
0.00444352
0.00798248
0.0134579
0.0194725
0.0254975
0.0311098
0.0359806
0.0398554
0.0426626
0.0444616
0.0454191
0.0456895
0.0454289
0.0447792
0.043833
0.0426685
0.0413495
0.039917
0.0383941
0.0368022
0.0351687
0.0335234
0.0318725
0.0302142
0.0285473
0.0268806
0.0252168
0.0235538
0.0218851
0.0202067
0.0185078
0.0167823
0.015022
0.0132172
0.0113487
0.00939135
0.00732781
0.00524214
0.00336395
0.00179885
0.000684488
0.000176684
3.15085e-05
3.83343e-06
3.73e-07
8.42254e-08
7.85472e-08
9.26921e-08
1.13034e-07
1.43554e-07
1.88968e-07
2.55269e-07
3.62403e-07
5.80778e-07
1.11648e-06
2.94472e-06
1.45747e-05
0.0551537
0.00443384
0.00797564
0.0134589
0.0194919
0.0255387
0.03116
0.036002
0.0398688
0.0426726
0.0444837
0.0454405
0.0457307
0.045484
0.0448458
0.043913
0.0427565
0.0414405
0.0400154
0.038512
0.0369453
0.0353298
0.0336886
0.0320474
0.0304086
0.0287675
0.0271209
0.0254767
0.0238357
0.0221937
0.0205437
0.0188804
0.0171933
0.0154757
0.0137185
0.0119084
0.0100228
0.0080403
0.00598547
0.00404198
0.00238356
0.00107826
0.000332225
7.24322e-05
1.07086e-05
1.14859e-06
1.3637e-07
7.04753e-08
7.82498e-08
9.28757e-08
1.13907e-07
1.45049e-07
1.89844e-07
2.5389e-07
3.60843e-07
5.80807e-07
1.11659e-06
2.9449e-06
1.45749e-05
0.0551516
0.00442341
0.00795835
0.0134522
0.0194983
0.0255671
0.03121
0.0360589
0.0398965
0.0426946
0.0445034
0.045471
0.0457576
0.0455277
0.0449023
0.0439828
0.0428413
0.0415334
0.040111
0.0386144
0.0370674
0.035477
0.0338535
0.0322161
0.0305874
0.0289661
0.0273458
0.0257214
0.0241006
0.0224813
0.0208595
0.0192264
0.0175763
0.0158985
0.014186
0.0124273
0.0106057
0.00869743
0.00669974
0.00472983
0.00298977
0.00155117
0.000570424
0.000147293
2.66299e-05
3.36293e-06
3.4608e-07
7.60312e-08
6.76413e-08
7.8339e-08
9.33858e-08
1.15023e-07
1.46221e-07
1.89866e-07
2.519e-07
3.60169e-07
5.80914e-07
1.11674e-06
2.94522e-06
1.4576e-05
0.0551489
0.00441236
0.00793943
0.0134285
0.0194938
0.02558
0.0312455
0.036113
0.0399561
0.0427264
0.0445327
0.0454987
0.0457951
0.0455593
0.044948
0.0440409
0.0429139
0.0416215
0.0402076
0.0387137
0.0371732
0.0356032
0.0340046
0.0323841
0.0307594
0.0291488
0.0275488
0.0259507
0.0243497
0.0227515
0.0211532
0.0195496
0.0179317
0.0162925
0.0146214
0.0129105
0.0111451
0.00930514
0.00737509
0.00541024
0.00360387
0.00207473
0.000900075
0.000270637
5.89606e-05
8.88622e-06
9.98214e-07
1.2443e-07
6.19187e-08
6.72179e-08
7.86064e-08
9.38991e-08
1.16078e-07
1.47604e-07
1.89574e-07
2.49752e-07
3.60032e-07
5.8106e-07
1.11698e-06
2.94561e-06
1.45779e-05
0.0551474
0.00440276
0.00791903
0.0134015
0.0194662
0.0255799
0.0312649
0.0361532
0.0400099
0.0427858
0.0445671
0.0455338
0.0458295
0.0456022
0.0449836
0.0440882
0.0429735
0.0416976
0.040299
0.0388136
0.0372755
0.0357123
0.0341345
0.032539
0.0309305
0.0293237
0.0277352
0.0261582
0.0245834
0.0230058
0.0214292
0.0198504
0.0182632
0.0166577
0.0150267
0.0133594
0.0116455
0.00986713
0.00800499
0.00607463
0.00422438
0.00261911
0.00130877
0.000460936
0.000117234
2.11219e-05
2.73978e-06
2.98432e-07
6.79108e-08
5.89687e-08
6.72869e-08
7.87837e-08
9.46135e-08
1.17377e-07
1.48318e-07
1.87767e-07
2.4859e-07
3.6009e-07
5.8122e-07
1.11723e-06
2.94606e-06
1.45801e-05
0.0551469
0.00439434
0.00790117
0.0133723
0.019434
0.0255518
0.03127
0.0361767
0.0400504
0.0428359
0.0446241
0.0455705
0.0458693
0.0456422
0.0450313
0.0441273
0.0430226
0.0417585
0.0403775
0.0389087
0.0373793
0.0358177
0.0342469
0.0326729
0.0310888
0.0294976
0.0279131
0.0263488
0.0247957
0.0232442
0.0216886
0.0201327
0.0185712
0.016998
0.0154026
0.0137771
0.0121098
0.0103872
0.00859027
0.00671158
0.00484397
0.00317309
0.00176866
0.000731018
0.000213191
4.54569e-05
6.87393e-06
7.9995e-07
1.07341e-07
5.46896e-08
5.85081e-08
6.7369e-08
7.90131e-08
9.55674e-08
1.18543e-07
1.48003e-07
1.85714e-07
2.48225e-07
3.60205e-07
5.81405e-07
1.11753e-06
2.94679e-06
1.45832e-05
0.0551466
0.00438906
0.00788589
0.0133462
0.0193986
0.0255185
0.031245
0.036187
0.0400762
0.0428743
0.0446692
0.0456241
0.045907
0.0456852
0.0450752
0.0441789
0.0430644
0.0418092
0.0404404
0.0389898
0.037477
0.0359243
0.0343551
0.0327888
0.0312263
0.0296592
0.0280893
0.0265296
0.0249904
0.0234613
0.0219319
0.0203974
0.0188601
0.0173142
0.0157524
0.0141643
0.012541
0.0108688
0.00913163
0.00731556
0.00545776
0.00372955
0.00225453
0.0010744
0.000361621
8.95177e-05
1.57789e-05
2.07121e-06
2.37793e-07
5.93462e-08
5.1938e-08
5.85359e-08
6.75482e-08
7.95888e-08
9.6557e-08
1.19374e-07
1.47239e-07
1.84129e-07
2.4821e-07
3.60342e-07
5.81611e-07
1.11787e-06
2.94757e-06
1.4586e-05
0.0551477
0.00438561
0.00787663
0.0133246
0.019367
0.0254806
0.0312146
0.0361677
0.040091
0.0429001
0.0447035
0.0456633
0.0459577
0.0457236
0.0451209
0.0442265
0.0431195
0.0418539
0.0404931
0.0390549
0.0375611
0.0360251
0.0344644
0.0328994
0.0313453
0.0298003
0.0282542
0.0267084
0.0251744
0.0236604
0.0221544
0.0206461
0.019131
0.0176099
0.0160768
0.014524
0.0129402
0.0113149
0.00963206
0.00787645
0.00605629
0.00429476
0.0027525
0.00147069
0.000574886
0.000162387
3.34317e-05
4.99479e-06
5.95405e-07
8.78462e-08
4.83278e-08
5.1518e-08
5.8709e-08
6.78774e-08
8.01895e-08
9.75091e-08
1.19571e-07
1.4502e-07
1.83492e-07
2.48297e-07
3.60502e-07
5.81833e-07
1.11828e-06
2.94846e-06
1.45906e-05
0.0551495
0.00438572
0.00787136
0.0133119
0.0193408
0.0254467
0.0311792
0.0361443
0.0400784
0.0429183
0.0447277
0.0456939
0.0459916
0.0457717
0.0451598
0.0442746
0.0431704
0.0419117
0.0405404
0.0391092
0.0376284
0.0361121
0.034568
0.0330109
0.0314585
0.029923
0.0283991
0.0268762
0.0253557
0.0238476
0.0223582
0.0208736
0.0193849
0.017887
0.0163805
0.0148578
0.0133107
0.0117275
0.010095
0.0083968
0.00662711
0.00485776
0.00325709
0.00190028
0.00085401
0.000274321
6.55516e-05
1.12104e-05
1.47101e-06
1.78439e-07
5.10528e-08
4.60899e-08
5.1581e-08
5.89093e-08
6.8122e-08
8.10805e-08
9.83659e-08
1.18734e-07
1.43301e-07
1.83389e-07
2.48419e-07
3.60666e-07
5.82085e-07
1.11872e-06
2.94954e-06
1.45955e-05
0.0551515
0.00438695
0.00787328
0.0133055
0.0193263
0.0254195
0.0311478
0.0361151
0.0400641
0.0429122
0.0447477
0.0457162
0.0460181
0.0458018
0.0452057
0.0443137
0.0432206
0.0419653
0.0406004
0.0391588
0.0376848
0.0361818
0.0346579
0.0331173
0.0315722
0.0300385
0.0285252
0.027025
0.0255266
0.0240316
0.0225493
0.0210829
0.0196183
0.0181469
0.0166645
0.0151698
0.0136546
0.0121102
0.0105229
0.00887791
0.00716432
0.00541265
0.00376562
0.00234575
0.00118824
0.00043619
0.000118829
2.3471e-05
3.44318e-06
4.17998e-07
6.98347e-08
4.27849e-08
4.57497e-08
5.16994e-08
5.90614e-08
6.86813e-08
8.19994e-08
9.88504e-08
1.17453e-07
1.42401e-07
1.83455e-07
2.48549e-07
3.6086e-07
5.82359e-07
1.11919e-06
2.95086e-06
1.46009e-05
0.0551528
0.00438942
0.00787778
0.0133107
0.0193204
0.0254059
0.031123
0.03609
0.0400444
0.0429075
0.0447476
0.0457375
0.0460391
0.0458243
0.0452326
0.0443576
0.0432606
0.0420173
0.0406567
0.039221
0.0377363
0.0362398
0.0347301
0.03321
0.0316812
0.0301542
0.0286435
0.0271547
0.0256792
0.0242054
0.022736
0.0212782
0.0198329
0.0183864
0.0169306
0.0154613
0.0139756
0.012465
0.0109191
0.00932251
0.00766219
0.00594764
0.00427814
0.0028003
0.00156073
0.000654994
0.000200271
4.57236e-05
7.57443e-06
9.88804e-07
1.28314e-07
4.37665e-08
4.11399e-08
4.5786e-08
5.17814e-08
5.9238e-08
6.93331e-08
8.29252e-08
9.87365e-08
1.15518e-07
1.42204e-07
1.83555e-07
2.48689e-07
3.61071e-07
5.82685e-07
1.11978e-06
2.95239e-06
1.46073e-05
0.0551543
0.00439238
0.00788466
0.0133198
0.0193297
0.0254018
0.0311123
0.0360711
0.0400282
0.0428975
0.0447521
0.0457421
0.0460606
0.0458437
0.0452526
0.0443822
0.0433034
0.0420589
0.0407112
0.0392802
0.0378008
0.0362937
0.0347903
0.0332849
0.0317771
0.0302658
0.0287611
0.0272754
0.0258125
0.0243618
0.0229129
0.0214679
0.0200332
0.0186073
0.0171766
0.0157343
0.0142754
0.0127962
0.0112865
0.00973414
0.00812427
0.00645467
0.00478199
0.00325681
0.00195664
0.000927921
0.000318802
8.28229e-05
1.5613e-05
2.24701e-06
2.78739e-07
5.48382e-08
3.80544e-08
4.09245e-08
4.58752e-08
5.19083e-08
5.95759e-08
7.01674e-08
8.34432e-08
9.72757e-08
1.14501e-07
1.4224e-07
1.83668e-07
2.48851e-07
3.6129e-07
5.83035e-07
1.12046e-06
2.95408e-06
1.46143e-05
0.0551551
0.00439482
0.00789217
0.0133325
0.0193442
0.0254156
0.0311113
0.0360651
0.0400164
0.0428912
0.0447515
0.045754
0.0460696
0.0458658
0.0452704
0.0444002
0.0433261
0.042101
0.0407539
0.0393368
0.0378622
0.03636
0.0348461
0.0333475
0.0318547
0.0303647
0.028875
0.0273953
0.0259362
0.0244991
0.0230729
0.0216475
0.0202262
0.0188128
0.017404
0.0159872
0.0145559
0.013105
0.0116291
0.010116
0.00855226
0.00693001
0.00527305
0.00371259
0.00236111
0.00124327
0.000483364
0.000140098
3.01836e-05
4.82924e-06
6.28174e-07
8.9644e-08
3.77054e-08
3.69861e-08
4.09783e-08
4.60187e-08
5.20888e-08
6.00847e-08
7.08331e-08
8.32325e-08
9.56906e-08
1.14211e-07
1.42328e-07
1.83797e-07
2.49025e-07
3.61537e-07
5.8342e-07
1.12118e-06
2.95602e-06
1.4622e-05
0.0551553
0.00439637
0.00789842
0.0133458
0.0193633
0.0254352
0.0311298
0.0360679
0.0400164
0.0428875
0.0447542
0.0457616
0.046088
0.0458782
0.0452932
0.0444173
0.0433428
0.0421226
0.0407961
0.0393811
0.037921
0.0364238
0.0349138
0.0334052
0.0319198
0.0304454
0.0289771
0.0275113
0.0260579
0.0246259
0.0232143
0.0218115
0.0204091
0.0190095
0.017615
0.0162212
0.0148158
0.0133936
0.0119479
0.0104712
0.00895001
0.00737249
0.00574617
0.00416809
0.00276932
0.00158544
0.000696683
0.000224193
5.47413e-05
9.80892e-06
1.38089e-06
1.7755e-07
4.3292e-08
3.41013e-08
3.68762e-08
4.11174e-08
4.61355e-08
5.23236e-08
6.0722e-08
7.1395e-08
8.25051e-08
9.45376e-08
1.14225e-07
1.42429e-07
1.83935e-07
2.49212e-07
3.6181e-07
5.83859e-07
1.12201e-06
2.95815e-06
1.46307e-05
0.0551548
0.00439699
0.00790226
0.0133566
0.0193827
0.0254604
0.0311532
0.0360901
0.0400232
0.0428934
0.0447578
0.0457718
0.046102
0.0459012
0.0453083
0.0444405
0.0433595
0.0421384
0.0408172
0.0394238
0.0379672
0.0364851
0.0349801
0.0334746
0.0319791
0.0305128
0.0290609
0.0276161
0.0261761
0.0247498
0.0233445
0.021957
0.0205768
0.0191957
0.0178161
0.0164385
0.0150572
0.0136614
0.0122453
0.0108014
0.00931962
0.00778441
0.00619588
0.00461465
0.00317714
0.00194282
0.000952519
0.000342235
9.35105e-05
1.8842e-05
2.90684e-06
3.77699e-07
6.21408e-08
3.28845e-08
3.34721e-08
3.69671e-08
4.11994e-08
4.62872e-08
5.27146e-08
6.1444e-08
7.15962e-08
8.07771e-08
9.4201e-08
1.14304e-07
1.42544e-07
1.84085e-07
2.49418e-07
3.6211e-07
5.84355e-07
1.12298e-06
2.96063e-06
1.464e-05
0.0551543
0.00439649
0.00790402
0.0133638
0.019399
0.0254853
0.0311832
0.0361168
0.0400481
0.0429034
0.0447689
0.0457812
0.0461187
0.0459202
0.0453346
0.044458
0.0433829
0.0421547
0.0408327
0.0394451
0.0380111
0.0365333
0.0350439
0.0335428
0.0320498
0.0305741
0.029131
0.0277035
0.0262838
0.0248701
0.0234705
0.0220907
0.0207266
0.0193672
0.0180058
0.0166443
0.0152814
0.0139104
0.0125214
0.0111087
0.00966237
0.00816937
0.0066197
0.00505083
0.0035821
0.00230584
0.00124039
0.000499715
0.000150781
3.4271e-05
5.82939e-06
8.03624e-07
1.09864e-07
3.49586e-08
3.07925e-08
3.34495e-08
3.70486e-08
4.13003e-08
4.63692e-08
5.3308e-08
6.20054e-08
7.05117e-08
7.96865e-08
9.42016e-08
1.14398e-07
1.42664e-07
1.84248e-07
2.49645e-07
3.62445e-07
5.84907e-07
1.12406e-06
2.96347e-06
1.46506e-05
0.0551536
0.00439497
0.00790342
0.0133673
0.0194095
0.0255066
0.0312127
0.0361493
0.0400762
0.0429302
0.0447814
0.0457964
0.0461333
0.0459416
0.0453576
0.0444875
0.0434024
0.0421787
0.0408485
0.0394607
0.0380329
0.0365783
0.0350946
0.0336093
0.0321201
0.0306458
0.029194
0.0277762
0.0263745
0.0249805
0.0235932
0.0222193
0.0208642
0.0195216
0.0181811
0.0168378
0.0154924
0.0141417
0.0127788
0.0113941
0.0099809
0.00852619
0.00701891
0.00547174
0.00398569
0.00267011
0.00154919
0.000697141
0.000231601
5.89488e-05
1.11193e-05
1.65708e-06
2.17977e-07
4.40584e-08
2.91137e-08
3.04715e-08
3.35165e-08
3.71476e-08
4.13613e-08
4.67628e-08
5.38811e-08
6.19537e-08
6.93681e-08
7.93195e-08