/*--------------------------------*- C++ -*----------------------------------*\
| =========                 |                                                 |
| \\      /  F ield         | OpenFOAM: The Open Source CFD Toolbox           |
|  \\    /   O peration     | Version:  v2012                                 |
|   \\  /    A nd           | Website:  www.openfoam.com                      |
|    \\/     M anipulation  |                                                 |
\*---------------------------------------------------------------------------*/
FoamFile
{
    version     2.0;
    format      ascii;
    class       volScalarField;
    location    "2000";
    object      q2;
}
// * * * * * * * * * * * * * * * * * * * * * * * * * * * * * * * * * * * * * //

dimensions      [0 0 0 0 0 0 0];


internalField   nonuniform List<scalar> 
39402
(
1
1
1
1
1
1
1
1
1
0.999994
1
1
1
1
0.977087
1
1
1
1
1
0.729946
1
1
1
1
1
0.995482
0.407288
1
1
1
1
1
1
0.866633
0.215692
1
1
1
1
1
1
0.99972
0.554698
0.117138
1
1
1
1
1
1
1
0.964724
0.303336
0.0658793
1
1
1
1
1
1
1
0.999378
0.75049
0.161816
0.0380846
1
1
1
1
1
1
1
0.999989
0.97301
0.456865
0.0876005
0.0225607
1
1
1
1
1
1
1
0.999999
0.999354
0.829799
0.252453
0.0483654
0.013509
1
1
1
1
1
1
1
1
0.999972
0.992523
0.588571
0.137108
0.0271133
0.00823982
1
1
1
1
1
1
1
1
0.999996
0.999772
0.959003
0.373815
0.0746854
0.0154775
0.00505704
1
1
1
1
1
1
1
1
0.999999
0.999976
0.998632
0.875262
0.228458
0.0409965
0.00895419
0.00312088
1
1
1
1
1
1
1
1
0.999999
0.999994
0.999905
0.994436
0.745519
0.140211
0.0225806
0.0052459
0.00192096
1
1
1
1
1
1
1
1
0.999999
0.999997
0.999983
0.999676
0.983651
0.602347
0.0919731
0.0124346
0.00310059
0.00118079
1
1
1
1
1
1
1
1
1
0.999998
0.999995
0.999957
0.999128
0.961644
0.481328
0.0685066
0.00685925
0.00182856
0.000695229
1
1
1
1
1
1
1
1
1
0.999999
0.999997
0.999989
0.99991
0.997999
0.925329
0.408314
0.0517808
0.00378397
0.00104432
0.0004193
1
1
1
1
1
1
1
1
1
0.999999
0.999998
0.999995
0.999981
0.999837
0.995812
0.876499
0.377216
0.0366628
0.00209787
0.000607374
0.000295391
1
1
1
1
1
1
1
1
1
0.999999
0.999999
0.999998
0.999993
0.999973
0.999722
0.991685
0.810762
0.296181
0.0245
0.00118971
0.000395725
0.000247623
1
1
1
1
1
1
1
1
1
1
0.999999
0.999999
0.999997
0.999992
0.999964
0.999523
0.983205
0.714238
0.212194
0.0150031
0.000702257
0.000258044
0.000295318
1
1
1
1
1
1
1
1
1
1
1
0.999999
0.999998
0.999997
0.999992
0.999955
0.999106
0.965501
0.592604
0.150478
0.00821555
0.000429189
0.000164687
0.000524748
1
1
1
1
1
1
1
1
1
1
1
0.999999
0.999999
0.999999
0.999997
0.999993
0.999937
0.99815
0.929818
0.461881
0.111871
0.00395637
0.000267405
0.000109525
0.000638341
1
1
1
1
1
1
1
1
1
1
1
1
0.999999
0.999999
0.999999
0.999998
0.999992
0.999898
0.995753
0.862858
0.340498
0.0851284
0.00166932
0.000167964
8.85736e-05
0.00049509
1
1
1
1
1
1
1
1
1
1
1
1
1
1
0.999999
0.999999
0.999999
0.999991
0.999802
0.989312
0.754241
0.240059
0.0497925
0.000634619
0.000110528
8.85358e-05
0.00040261
1
1
1
1
1
1
1
1
1
1
1
1
1
1
1
1
1
0.999999
0.999988
0.999526
0.971854
0.608354
0.165023
0.0241857
0.000239718
8.05175e-05
0.000102807
0.000360311
1
1
1
1
1
1
1
1
1
1
1
1
1
1
1
1
1
1
0.999999
0.999977
0.998613
0.927759
0.450903
0.115925
0.0102127
0.000105871
6.64649e-05
0.000133035
0.000272757
1
1
1
1
1
1
1
1
1
1
1
1
1
1
1
1
1
1
1
0.999998
0.999943
0.995298
0.83363
0.312491
0.0843712
0.00373136
6.24814e-05
6.25317e-05
0.000154299
0.000149725
1
1
1
1
1
1
1
1
1
1
1
1
1
1
1
1
1
1
1
1
0.999997
0.99981
0.983167
0.67964
0.209147
0.0503788
0.00118402
5.00337e-05
6.30342e-05
0.000178319
7.97354e-05
1
1
1
1
1
1
1
1
1
1
1
1
1
1
1
1
1
1
1
1
1
0.999992
0.999201
0.943914
0.49621
0.140941
0.0219849
0.000351472
4.99405e-05
6.85735e-05
0.000251169
5.68004e-05
1
1
1
1
1
1
1
1
1
1
1
1
1
1
1
1
1
1
1
1
1
1
0.99997
0.996239
0.845281
0.334324
0.0988115
0.00811893
0.000120666
5.61339e-05
8.60847e-05
0.000295937
5.01219e-05
1
1
1
1
1
1
1
1
1
1
1
1
1
1
1
1
1
1
1
1
1
1
0.999999
0.999847
0.98259
0.673583
0.219173
0.0621018
0.00265389
6.27784e-05
6.5394e-05
0.00013026
0.000216724
5.38468e-05
1
1
1
1
1
1
1
1
1
1
1
1
1
1
1
1
1
1
1
1
1
1
1
0.999994
0.999065
0.931808
0.475111
0.148535
0.0269107
0.000810549
5.37394e-05
7.57906e-05
0.000241775
0.000108115
7.34365e-05
1
1
1
1
1
1
1
1
1
1
1
1
1
1
1
1
1
1
1
1
1
1
1
1
0.999966
0.994208
0.803975
0.311389
0.10355
0.00993306
0.000266871
6.12094e-05
9.06259e-05
0.000462957
5.76159e-05
0.000174136
1
1
1
1
1
1
1
1
1
1
1
1
1
1
1
1
1
1
1
1
1
1
1
1
0.999999
0.999736
0.969414
0.603254
0.204126
0.0568547
0.00341811
0.000116864
8.32746e-05
0.000107661
0.00161866
2.44873e-05
0.000568789
1
1
1
1
1
1
1
1
1
1
1
1
1
1
1
1
1
1
1
1
1
1
1
1
1
0.999991
0.997863
0.882768
0.404259
0.141487
0.0234189
0.00118176
8.13009e-05
0.000158458
0.000117351
0.00666288
9.27687e-06
0.00157431
1
1
1
1
1
1
1
1
1
1
1
1
1
1
1
1
1
1
1
1
1
1
1
1
1
1
0.999909
0.985206
0.703912
0.263455
0.0936537
0.00873737
0.000450995
0.000104244
0.000269413
9.30526e-05
0.0105045
5.14612e-06
0.00336233
1
1
1
1
1
1
1
1
1
1
1
1
1
1
1
1
1
1
1
1
1
1
1
1
1
1
0.999997
0.999064
0.927396
0.488431
0.181088
0.0420732
0.00327985
0.000230409
0.000216402
0.000268519
6.64983e-05
0.00196561
3.58343e-06
0.00639903
1
1
1
1
1
1
1
1
1
1
1
1
1
1
1
1
1
1
1
1
1
1
1
1
1
1
1
0.999961
0.991862
0.774754
0.319653
0.126183
0.0166004
0.00138075
0.00020857
0.000496701
0.000214656
8.59444e-05
0.000298977
3.08449e-06
0.0107074
1
1
1
1
1
1
1
1
1
1
1
1
1
1
1
1
1
1
1
1
1
1
1
1
1
1
1
0.999999
0.999503
0.950837
0.555591
0.217145
0.0623543
0.00665644
0.000746483
0.000328082
0.00132222
8.00084e-05
0.000137893
9.67893e-05
3.3597e-06
0.0185643
1
1
1
1
1
1
1
1
1
1
1
1
1
1
1
1
1
1
1
1
1
1
1
1
1
1
1
1
0.999979
0.994687
0.819095
0.366754
0.150343
0.0258473
0.00311324
0.000583866
0.000779088
0.00245902
3.69024e-05
0.00052277
1.71373e-05
4.76106e-06
0.0343257
1
1
1
1
1
1
1
1
1
1
1
1
1
1
1
1
1
1
1
1
1
1
1
1
1
1
1
1
0.999999
0.999667
0.961956
0.602571
0.247743
0.0806101
0.0107899
0.00193584
0.000716975
0.00288987
0.00125127
2.00754e-05
0.696811
4.14677e-06
8.87351e-06
0.0724625
1
1
1
1
1
1
1
1
1
1
1
1
1
1
1
1
1
1
1
1
1
1
1
1
1
1
1
1
1
0.999986
0.995825
0.842842
0.402105
0.171306
0.0346551
0.00536008
0.00167294
0.00151052
0.0140322
0.000320028
1.43633e-05
0.0634319
1.25326e-06
2.25861e-05
0.193852
1
1
1
1
1
1
1
1
1
1
1
1
1
1
1
1
1
1
1
1
1
1
1
1
1
1
1
1
1
0.999999
0.999728
0.966382
0.62858
0.27176
0.0953549
0.0148463
0.0036757
0.00204827
0.00600779
0.0382343
6.45257e-05
2.06036e-05
0.000937432
6.78319e-07
8.98854e-05
0.545945
1
1
1
1
1
1
1
1
1
1
1
1
1
1
1
1
1
1
1
1
1
1
1
1
1
1
1
1
1
1
0.999987
0.996102
0.850618
0.422292
0.187615
0.0419645
0.00766022
0.00374423
0.00418582
0.0358726
0.0621454
1.96464e-05
3.5504e-05
7.22973e-05
5.43117e-07
0.000332059
0.971421
1
1
1
1
1
1
1
1
1
1
1
1
1
1
1
1
1
1
1
1
1
1
1
1
1
1
1
1
1
1
0.999999
0.999716
0.966072
0.635624
0.287416
0.10513
0.0183639
0.00569827
0.00574738
0.0115192
0.594834
0.00494418
1.01365e-05
0.000142108
7.427e-06
7.48045e-07
0.00104201
0.999999
1
1
1
1
1
1
1
1
1
1
1
1
1
1
1
1
1
1
1
1
1
1
1
1
1
1
1
1
1
1
1
0.999985
0.995607
0.846416
0.429161
0.198304
0.0467409
0.00982054
0.0069436
0.0129516
0.03487
0.549056
0.000657459
5.32012e-06
0.325297
9.5739e-07
1.61985e-06
0.00357568
1
1
1
1
1
1
1
1
1
1
1
1
1
1
1
1
1
1
1
1
1
1
1
1
1
1
1
1
1
1
1
1
0.999999
0.999628
0.961545
0.628034
0.294929
0.108845
0.0208488
0.00801379
0.0141537
0.0451214
0.112389
0.041329
3.78854e-05
5.6369e-06
0.00253836
2.9912e-07
5.46224e-06
0.0163112
1
1
1
1
1
1
1
1
1
1
1
1
1
1
1
1
1
1
1
1
1
1
1
1
1
1
1
1
1
1
1
1
1
0.999977
0.994081
0.829697
0.425008
0.203226
0.0484341
0.0116718
0.0116268
0.0429179
0.118961
0.0625472
0.0876083
8.70873e-06
9.77922e-06
7.21936e-05
1.86925e-07
3.0157e-05
0.0967526
1
1
1
1
1
1
1
1
1
1
1
1
1
1
1
1
1
1
1
1
1
1
1
1
1
1
1
1
1
1
1
1
1
0.999999
0.999403
0.950452
0.60678
0.295413
0.107034
0.0220291
0.0104369
0.0312778
0.508728
0.101978
0.027429
0.0142651
4.30706e-06
3.48089e-05
4.39261e-06
2.21925e-07
0.00019507
0.538235
1
1
1
1
1
1
1
1
1
1
1
1
1
1
1
1
1
1
1
1
1
1
1
1
1
1
1
1
1
1
1
1
1
1
0.999955
0.990899
0.800138
0.413584
0.203088
0.0473876
0.0130086
0.0177555
0.256702
1
0.167424
0.411352
0.000182974
2.02427e-06
0.0981555
3.6786e-07
5.18256e-07
0.0011504
0.999824
1
1
1
1
1
1
1
1
1
1
1
1
1
1
1
1
1
1
1
1
1
1
1
1
1
1
1
1
1
1
1
1
1
1
0.999997
0.998884
0.931486
0.576312
0.28912
0.100649
0.0221341
0.0128699
0.0744987
1
0.998402
0.7442
0.0236756
1.47413e-05
2.41679e-06
0.000907477
1.13662e-07
2.29985e-06
0.00872474
1
1
1
1
1
1
1
1
1
1
1
1
1
1
1
1
1
1
1
1
1
1
1
1
1
1
1
1
1
1
1
1
1
1
1
1
0.999898
0.984692
0.758176
0.395329
0.190086
0.0442714
0.0139965
0.0276025
0.99849
0.407625
0.261179
0.807568
0.0230355
3.85908e-06
6.09361e-06
1.34546e-05
7.71785e-08
1.9318e-05
0.0831637
1
1
1
1
1
1
1
1
1
1
1
1
1
1
1
1
1
1
1
1
1
1
1
1
1
1
1
1
1
1
1
1
1
1
1
1
0.999993
0.997622
0.90133
0.535358
0.274429
0.0898756
0.0213941
0.0160359
0.282157
1
0.0662909
0.0160286
0.309516
0.00651793
1.31834e-06
6.40384e-05
4.62874e-07
1.35598e-07
0.000204921
0.749933
1
1
1
1
1
1
1
1
1
1
1
1
1
1
1
1
1
1
1
1
1
1
1
1
1
1
1
1
1
1
1
1
1
1
1
1
1
0.999728
0.972248
0.701823
0.369689
0.166386
0.039456
0.0149218
0.0478341
1
0.996745
0.0626523
0.00787106
0.211377
1.91112e-05
1.06573e-06
0.00199941
8.02406e-08
5.39495e-07
0.00216841
1
1
1
1
1
1
1
1
1
1
1
1
1
1
1
1
1
1
1
1
1
1
1
1
1
1
1
1
1
1
1
1
1
1
1
1
1
1
0.999975
0.994515
0.85444
0.486164
0.254245
0.0764373
0.0200716
0.0212773
0.838507
0.998035
0.994853
0.0899825
0.0111131
0.00114875
2.62608e-06
1.77156e-06
9.01806e-06
3.79168e-08
4.78161e-06
0.0337382
1
1
1
1
1
1
1
1
1
1
1
1
1
1
1
1
1
1
1
1
1
1
1
1
1
1
1
1
1
1
1
1
1
1
1
1
1
1
0.999998
0.999189
0.948833
0.636895
0.338794
0.139892
0.0338949
0.0161008
0.100294
1
0.566894
0.948962
0.0385019
0.00675061
0.00113507
8.72947e-07
1.1288e-05
3.49764e-07
6.42312e-08
8.76314e-05
0.551872
1
1
1
1
1
1
1
1
1
1
1
1
1
1
1
1
1
1
1
1
1
1
1
1
1
1
1
1
1
1
1
1
1
1
1
1
1
1
1
0.999906
0.986859
0.790618
0.440671
0.231202
0.0624168
0.0186689
0.0298863
0.996033
1
1
0.378306
0.00770384
0.000910123
6.25665e-05
5.33073e-07
0.00791972
4.69299e-08
2.74479e-07
0.00147393
1
1
1
1
1
1
1
1
1
1
1
1
1
1
1
1
1
1
1
1
1
1
1
1
1
1
1
1
1
1
1
1
1
1
1
1
1
1
1
1
0.999991
0.997465
0.907472
0.567627
0.3069
0.113563
0.0285174
0.018187
0.262842
1
0.99974
0.550915
0.124003
0.00731704
0.0749978
1.84851e-06
1.13384e-06
4.65609e-06
2.11546e-08
3.39184e-06
0.0379337
1
1
1
1
1
1
1
1
1
1
1
1
1
1
1
1
1
1
1
1
1
1
1
1
1
1
1
1
1
1
1
1
1
1
1
1
1
1
1
1
0.999999
0.999617
0.96907
0.710087
0.394128
0.190153
0.0494521
0.0177789
0.0461803
1
0.999988
0.607764
0.36183
0.479663
0.0323523
4.46404e-05
5.50548e-07
1.74396e-05
1.17949e-07
4.48958e-08
9.38126e-05
0.821214
1
1
1
1
1
1
1
1
1
1
1
1
1
1
1
1
1
1
1
1
1
1
1
1
1
1
1
1
1
1
1
1
1
1
1
1
1
1
1
1
1
0.999951
0.992227
0.841857
0.495017
0.270129
0.0876125
0.0239273
0.0222987
0.582416
1
1
0.726211
0.690379
0.170888
0.000724481
8.43184e-06
3.75257e-07
0.000190564
2.11926e-08
2.74418e-07
0.0027046
1
1
1
1
1
1
1
1
1
1
1
1
1
1
1
1
1
1
1
1
1
1
1
1
1
1
1
1
1
1
1
1
1
1
1
1
1
1
1
1
1
1
0.999994
0.998424
0.932425
0.621617
0.345883
0.147212
0.0382706
0.0178529
0.0845096
1
0.702442
0.590748
0.627503
0.00951839
0.00158262
0.0606153
8.67621e-07
8.32904e-07
6.2944e-07
1.42643e-08
6.31362e-06
0.109648
1
1
1
1
1
1
1
1
1
1
1
1
1
1
1
1
1
1
1
1
1
1
1
1
1
1
1
1
1
1
1
1
1
1
1
1
1
1
1
1
1
1
0.999999
0.999733
0.977319
0.753986
0.433154
0.230731
0.0649776
0.0204687
0.0307279
0.939925
0.717138
0.258365
0.701954
0.0497966
0.00111143
0.000152093
0.000152418
2.39951e-07
4.92895e-05
3.13811e-08
5.10667e-08
0.000256933
0.999996
1
1
1
1
1
1
1
1
1
1
1
1
1
1
1
1
1
1
1
1
1
1
1
1
1
1
1
1
1
1
1
1
1
1
1
1
1
1
1
1
1
1
1
0.999962
0.993961
0.868094
0.53442
0.300297
0.109348
0.0293394
0.0194597
0.211151
0.999986
0.378675
0.643925
0.793871
0.0145256
0.000806624
0.00461051
2.75409e-06
3.10368e-07
7.51922e-05
1.12945e-08
6.42022e-07
0.0154321
1
1
1
1
1
1
1
1
1
1
1
1
1
1
1
1
1
1
1
1
1
1
1
1
1
1
1
1
1
1
1
1
1
1
1
1
1
1
1
1
1
1
1
1
0.999995
0.998656
0.942882
0.656091
0.373648
0.173062
0.0468994
0.018394
0.0489043
1
1
0.79086
0.927289
0.634812
0.290299
0.0440901
0.000689125
4.97188e-07
2.43132e-06
5.24126e-08
1.47306e-08
3.72129e-05
0.797127
1
1
1
1
1
1
1
1
1
1
1
1
1
1
1
1
1
1
1
1
1
1
1
1
1
1
1
1
1
1
1
1
1
1
1
1
1
1
1
1
1
1
1
1
0.999999
0.999747
0.979967
0.777415
0.458878
0.252206
0.077116
0.0228806
0.0239962
0.583351
1
0.999801
0.551404
0.0823121
0.00802121
0.00471962
0.00175258
1.50659e-05
1.88673e-07
4.48533e-05
7.56482e-09
1.298e-07
0.00238156
1
1
1
1
1
1
1
1
1
1
1
1
1
1
1
1
1
1
1
1
1
1
1
1
1
1
1
1
1
1
1
1
1
1
1
1
1
1
1
1
1
1
1
1
1
1
0.999957
0.994163
0.8787
0.556047
0.315936
0.12359
0.0335099
0.0181295
0.0979271
1
1
0.288635
0.0601316
0.0196184
0.307537
0.0109134
0.0933101
5.33467e-07
5.30048e-07
2.31795e-07
8.43617e-09
5.29636e-06
0.232888
1
1
1
1
1
1
1
1
1
1
1
1
1
1
1
1
1
1
1
1
1
1
1
1
1
1
1
1
1
1
1
1
1
1
1
1
1
1
1
1
1
1
1
1
1
1
0.999994
0.998523
0.944057
0.667772
0.385513
0.186273
0.0526402
0.0188669
0.0350313
0.961659
0.999997
0.222534
0.0499685
0.0511065
0.999979
0.0012414
0.000125198
7.84716e-05
1.16444e-07
9.0593e-05
9.92271e-09
3.73889e-08
0.000518575
1
1
1
1
1
1
1
1
1
1
1
1
1
1
1
1
1
1
1
1
1
1
1
1
1
1
1
1
1
1
1
1
1
1
1
1
1
1
1
1
1
1
1
1
1
1
1
0.999999
0.999672
0.978072
0.775982
0.463797
0.258585
0.0832751
0.0243282
0.0206279
0.282382
0.999617
0.22663
0.0810065
0.147481
0.997396
0.0106123
0.000346834
0.00485046
9.71995e-07
2.06511e-07
2.06249e-06
4.4274e-09
1.24952e-06
0.0703558
1
1
1
1
1
1
1
1
1
1
1
1
1
1
1
1
1
1
1
1
1
1
1
1
1
1
1
1
1
1
1
1
1
1
1
1
1
1
1
1
1
1
1
1
1
1
1
1
0.999935
0.992494
0.867203
0.549614
0.317047
0.127738
0.0353716
0.0172822
0.0636959
0.996287
0.386873
0.0965213
0.385235
0.921794
0.0383989
0.0871333
0.00962157
0.000184482
1.9627e-07
5.4841e-06
1.0118e-08
1.71294e-08
0.000151292
1
1
1
1
1
1
1
1
1
1
1
1
1
1
1
1
1
1
1
1
1
1
1
1
1
1
1
1
1
1
1
1
1
1
1
1
1
1
1
1
1
1
1
1
1
1
1
1
1
0.999987
0.997755
0.931132
0.648745
0.380078
0.186154
0.053889
0.0187436
0.0288641
0.759857
0.999798
0.250374
0.46236
0.999929
0.991794
0.999997
0.243274
0.000413753
2.1633e-06
1.4232e-07
2.68828e-06
4.34961e-09
3.84261e-07
0.0321993
1
1
1
1
1
1
1
1
1
1
1
1
1
1
1
1
1
1
1
1
1
1
1
1
1
1
1
1
1
1
1
1
1
1
1
1
1
1
1
1
1
1
1
1
1
1
1
1
1
0.999998
0.999391
0.968763
0.746663
0.449114
0.25386
0.0823896
0.0241575
0.0187001
0.193682
1
0.997985
0.54771
0.435161
0.0797145
0.0324883
0.9828
0.0156272
0.0166208
2.08938e-07
7.44491e-07
1.17264e-08
9.04737e-09
6.99784e-05
1
1
1
1
1
1
1
1
1
1
1
1
1
1
1
1
1
1
1
1
1
1
1
1
1
1
1
1
1
1
1
1
1
1
1
1
1
1
1
1
1
1
1
1
1
1
1
1
1
1
1
0.999843
0.987621
0.834841
0.522345
0.305698
0.122592
0.0343727
0.0163147
0.0516548
0.99661
1
0.67257
0.352095
0.0140904
0.00484434
0.0128266
0.00246658
3.21771e-05
1.4836e-05
8.02523e-08
1.5584e-06
2.26007e-09
1.98029e-07
0.0188791
1
1
1
1
1
1
1
1
1
1
1
1
1
1
1
1
1
1
1
1
1
1
1
1
1
1
1
1
1
1
1
1
1
1
1
1
1
1
1
1
1
1
1
1
1
1
1
1
1
1
1
0.999962
0.99549
0.903965
0.608106
0.359954
0.174005
0.0508124
0.017778
0.0256583
0.64069
1
0.93186
0.310821
0.0199837
0.00401566
0.00315371
0.995688
0.000454654
0.00101197
2.28894e-07
1.044e-06
1.07063e-08
6.926e-09
3.98563e-05
1
1
1
1
1
1
1
1
1
1
1
1
1
1
1
1
1
1
1
1
1
1
1
1
1
1
1
1
1
1
1
1
1
1
1
1
1
1
1
1
1
1
1
1
1
1
1
1
1
1
1
1
0.999991
0.998468
0.949738
0.698047
0.419567
0.237345
0.0752973
0.0224563
0.0173531
0.154808
0.999007
0.382827
0.115684
0.0322821
0.0117009
0.00723665
0.319129
0.156971
0.00679994
1.18528e-06
7.21625e-08
1.43773e-05
3.36256e-09
1.22324e-07
0.0147774
1
1
1
1
1
1
1
1
1
1
1
1
1
1
1
1
1
1
1
1
1
1
1
1
1
1
1
1
1
1
1
1
1
1
1
1
1
1
1
1
1
1
1
1
1
1
1
1
1
1
1
1
0.999998
0.999517
0.975744
0.782722
0.483426
0.284794
0.10942
0.030922
0.0151955
0.0474048
0.898895
0.387268
0.042137
0.0231067
0.0456225
0.113526
0.613221
0.0401546
0.0983905
1.31088e-05
1.31736e-07
1.93603e-07
9.78529e-09
4.3387e-09
2.97982e-05
0.999999
1
1
1
1
1
1
1
1
1
1
1
1
1
1
1
1
1
1
1
1
1
1
1
1
1
1
1
1
1
1
1
1
1
1
1
1
1
1
1
1
1
1
1
1
1
1
1
1
1
1
1
1
1
0.999854
0.989309
0.855632
0.552526
0.330882
0.152328
0.0441886
0.0161266
0.024551
0.573233
0.988195
0.0863754
0.0226544
0.0288665
0.864742
0.800517
0.00862645
0.00364403
0.000182594
1.23517e-05
9.38932e-08
6.58598e-07
1.46995e-09
1.16165e-07
0.0130722
1
1
1
1
1
1
1
1
1
1
1
1
1
1
1
1
1
1
1
1
1
1
1
1
1
1
1
1
1
1
1
1
1
1
1
1
1
1
1
1
1
1
1
1
1
1
1
1
1
1
1
1
1
1
0.999958
0.995656
0.911582
0.629992
0.379618
0.203842
0.063642
0.0195858
0.0166015
0.159293
0.99978
0.838962
0.131275
0.0420773
0.0988806
0.253999
0.230697
0.0276166
0.000442774
1.64946e-05
6.09993e-07
2.11855e-06
5.18184e-09
5.28556e-09
2.95265e-05
1
1
1
1
1
1
1
1
1
1
1
1
1
1
1
1
1
1
1
1
1
1
1
1
1
1
1
1
1
1
1
1
1
1
1
1
1
1
1
1
1
1
1
1
1
1
1
1
1
1
1
1
1
1
1
0.999988
0.998298
0.950428
0.70913
0.432357
0.253383
0.0901056
0.0258855
0.0140564
0.0493013
0.962116
0.999939
0.871626
0.506701
0.140775
0.0244792
0.00271228
0.0020845
0.00477622
0.000536179
3.44806e-05
8.19091e-08
6.12401e-07
2.25376e-09
1.17258e-07
0.0151495
1
1
1
1
1
1
1
1
1
1
1
1
1
1
1
1
1
1
1
1
1
1
1
0.999999
1
1
1
1
1
1
1
1
1
1
1
1
1
1
1
1
1
1
1
1
1
1
1
1
1
1
1
1
1
1
1
0.999996
0.999354
0.973594
0.783028
0.488609
0.293458
0.123522
0.0355844
0.0141759
0.0254684
0.638173
0.993994
0.600193
0.711918
0.462135
0.051342
0.00284485
0.000645639
0.000323191
0.000196019
7.18475e-06
7.81165e-08
1.04898e-07
4.12172e-09
3.89898e-09
3.64063e-05
1
1
1
1
1
1
1
1
1
1
1
1
1
1
1
1
1
1
1
1
1
1
1
1
0.999999
1
1
1
1
1
1
1
1
1
1
1
1
1
1
1
1
1
1
1
1
1
1
1
1
1
1
1
1
1
1
1
0.999999
0.999759
0.986573
0.846686
0.549959
0.334012
0.163476
0.0493809
0.0161992
0.0165795
0.214581
0.985763
0.159805
0.0501897
0.0780907
0.0538897
0.0126867
0.00266389
0.00187133
0.0105816
0.000110342
1.2167e-06
4.91351e-08
2.07437e-07
1.06755e-09
2.11969e-07
0.0230581
1
1
1
1
1
1
1
1
1
1
1
1
1
1
1
1
1
1
1
1
1
1
1
1
1
1
1
1
1
1
1
1
1
1
1
1
1
1
1
1
1
1
1
1
1
1
1
1
1
1
1
1
1
1
1
1
1
0.999914
0.993548
0.897749
0.618052
0.376878
0.210146
0.0681971
0.0201568
0.0131309
0.071821
0.980369
0.497316
0.0242419
0.0105669
0.0100152
0.0107903
0.0162521
0.0935566
0.159994
7.15276e-05
8.81511e-06
5.19366e-07
1.24043e-05
1.5347e-09
6.67004e-09
7.54899e-05
1
1
1
1
1
1
1
1
1
1
1
1
1
1
1
1
1
1
1
1
1
1
1
1
1
1
1
1
1
1
1
1
1
1
1
1
1
1
1
1
1
1
1
1
1
1
1
1
1
1
1
1
1
1
1
1
1
1
0.999969
0.996988
0.934935
0.685743
0.423057
0.252225
0.0926012
0.0264392
0.0122244
0.0291134
0.761667
0.999998
0.292378
0.0187765
0.00538985
0.00297922
0.00289361
0.0148346
0.075394
0.000384707
2.06075e-05
0.00037877
1.41629e-07
2.53176e-08
1.46111e-09
4.18746e-07
0.0588214
1
1
1
1
1
1
1
1
1
1
1
1
1
1
1
1
1
1
1
1
1
1
1
1
1
0.999999
1
1
1
1
1
1
1
1
1
1
1
1
1
1
1
1
1
1
1
1
1
1
1
1
1
1
1
1
1
1
1
1
0.999989
0.998641
0.960597
0.748319
0.469597
0.286155
0.122226
0.0354622
0.0129285
0.0177091
0.376469
0.99999
0.999111
1
0.0536415
0.00619145
0.00190105
0.00106591
0.000525322
0.000460448
0.00474655
8.48992e-06
5.21494e-08
1.38749e-07
1.75623e-09
7.45001e-09
0.000227293
1
1
1
1
1
1
1
1
1
1
1
1
1
1
1
1
1
1
1
1
1
1
1
1
1
1
0.999999
1
1
1
1
1
1
1
1
1
1
1
1
1
1
1
1
1
1
1
1
1
1
1
1
1
1
1
1
1
1
1
1
0.999996
0.999395
0.977017
0.80652
0.516785
0.318996
0.156069
0.0477683
0.0150465
0.0129433
0.115809
0.97417
1
0.446289
0.816512
0.550523
0.0229613
0.00250276
0.000528536
0.000105489
5.54392e-05
6.42327e-06
2.24122e-07
2.39472e-08
4.37344e-08
1.05758e-09
1.53765e-06
0.251009
1
1
1
1
1
1
1
1
1
1
1
1
1
1
1
1
1
1
1
1
1
1
1
1
1
1
0.999999
1
1
1
1
1
1
1
1
1
1
1
1
1
1
1
1
1
1
1
1
1
1
1
1
1
1
1
1
1
1
1
1
0.999998
0.999732
0.987109
0.85753
0.570829
0.353104
0.193778
0.0635158
0.0185922
0.0110454
0.0441694
0.860826
0.327335
0.681823
0.956492
0.329278
0.320882
0.214109
0.0085851
0.000750428
0.000298444
0.000210931
0.000172774
1.0057e-07
1.48043e-07
5.64053e-10
2.00248e-08
0.00109225
1
1
1
1
1
1
1
1
1
1
1
1
1
1
1
1
1
1
1
1
1
1
1
1
1
1
1
0.999999
1
1
1
1
1
1
1
1
1
1
1
1
1
1
1
1
1
1
1
1
1
1
1
1
1
1
1
1
1
1
1
1
0.999999
0.99988
0.992871
0.899025
0.628746
0.390195
0.233082
0.082823
0.0237173
0.0106049
0.0220121
0.565921
0.406344
0.0303665
0.0245119
0.0918959
0.59323
0.245689
0.187913
0.0907627
0.00634697
0.000255885
4.03207e-06
5.65537e-06
2.60262e-06
2.12959e-09
1.89823e-09
6.44313e-06
0.950511
1
1
1
1
1
1
1
1
1
1
1
1
1
1
1
1
1
1
1
1
1
1
1
1
1
1
1
0.999999
1
1
1
1
1
1
1
1
1
1
1
1
1
1
1
1
1
1
1
1
1
1
1
1
1
1
1
1
1
1
1
1
1
0.999944
0.996099
0.930292
0.685657
0.428538
0.261882
0.105902
0.0306081
0.0111692
0.0146744
0.295813
0.972917
0.0634459
0.0104419
0.0035239
0.00276011
0.00355922
0.00582346
0.0382331
0.0277169
0.000223235
1.1508e-05
9.81268e-05
1.22943e-07
1.29345e-07
9.54358e-10
5.89108e-08
0.00646984
1
1
1
1
1
1
1
1
1
1
1
1
1
1
1
1
1
1
1
1
1
1
1
1
1
1
1
1
0.999999
1
1
1
1
1
1
1
1
1
1
1
1
1
1
1
1
1
1
1
1
1
1
1
1
1
1
1
1
1
1
1
1
1
0.999974
0.997818
0.95264
0.738035
0.468228
0.289906
0.131946
0.0395465
0.0126107
0.0110519
0.106508
1
0.997719
0.05014
0.00638759
0.00181218
0.000638622
0.000300495
0.000251559
0.000202957
0.0110834
0.000975606
0.000125489
5.89765e-08
3.72403e-08
1.47608e-09
2.1532e-09
3.62713e-05
1
1
1
1
1
1
1
1
1
1
1
1
1
1
1
1
1
1
1
1
1
1
1
1
1
1
1
1
1
0.999999
1
1
1
1
1
1
1
1
1
1
1
1
1
1
1
1
1
1
1
1
1
1
1
1
1
1
1
1
1
1
1
1
1
0.999988
0.998804
0.968081
0.784851
0.506669
0.317408
0.160855
0.0509217
0.0149491
0.00935474
0.0412399
0.993284
1
1
0.208247
0.0136254
0.00201082
0.000379962
0.000144561
5.98899e-05
3.09012e-05
6.4833e-06
3.72444e-06
1.4302e-07
1.67567e-08
3.11709e-08
5.46408e-10
3.60442e-07
0.061272
1
1
1
1
1
1
1
1
1
1
1
1
1
1
1
1
1
1
1
1
1
1
1
1
1
1
1
1
1
0.999999
1
1
1
1
1
1
1
1
1
1
1
1
1
1
1
1
1
1
1
1
1
1
1
1
1
1
1
1
1
1
1
1
1
0.999995
0.999363
0.978909
0.82693
0.547545
0.344677
0.192043
0.0646628
0.0183354
0.00876414
0.0196375
0.709375
1
0.999995
0.929348
0.973028
0.401265
0.00992308
0.00101994
0.000258251
5.90403e-05
2.0587e-05
2.83828e-05
3.12807e-06
7.97162e-08
9.05282e-08
3.83279e-10
8.31901e-09
0.000330224
1
1
1
1
1
1
1
1
1
1
1
1
1
1
1
1
1
1
1
1
1
1
1
1
1
1
1
1
1
1
0.999999
1
1
1
1
1
1
1
1
1
1
1
1
1
1
1
1
1
1
1
1
1
1
1
1
1
1
1
1
1
1
1
1
1
0.999997
0.999657
0.986509
0.863946
0.591318
0.372903
0.22548
0.0807147
0.0228549
0.00891651
0.013207
0.295538
0.860353
0.153937
0.992526
0.584209
0.0539526
0.0276613
0.0425287
0.0586049
0.00315575
0.00591598
0.000575759
5.2766e-06
9.05973e-06
2.13049e-06
1.27246e-09
1.2206e-09
2.93012e-06
0.772303
1
1
1
1
1
1
1
1
1
1
1
1
1
1
1
1
1
1
1
1
1
1
1
1
1
1
1
1
1
1
0.999999
1
1
1
1
1
1
1
1
1
1
1
1
1
1
1
1
1
1
1
1
1
1
1
1
1
1
1
1
1
1
1
1
1
0.999999
0.999819
0.991439
0.895896
0.636318
0.40176
0.248299
0.0988761
0.0285298
0.00961775
0.00997863
0.127534
0.47698
0.0450169
0.00872161
0.0292655
0.828101
0.0455552
0.00646845
0.00412857
0.00229972
0.000118109
0.000183086
1.60142e-06
2.65141e-06
2.82783e-07
4.23412e-08
6.42423e-10
4.05388e-08
0.00464825
1
1
1
1
1
1
1
1
1
1
1
1
1
1
1
1
1
1
1
1
1
1
1
1
1
1
1
1
1
1
0.999999
0.999999
1
1
1
1
1
1
1
1
1
1
1
1
1
1
1
1
1
1
1
1
1
1
1
1
1
1
1
1
1
1
1
1
1
0.999999
0.999901
0.994686
0.921765
0.680203
0.431399
0.269331
0.118491
0.0353666
0.0108318
0.00823702
0.0625276
0.925678
0.089503
0.00773943
0.00193623
0.00193298
0.00464036
0.0863912
0.0317407
0.0372893
0.0192208
0.00623288
6.66515e-05
5.16483e-05
1.57789e-07
3.85227e-08
8.32666e-10
1.66555e-09
3.52576e-05
1
1
1
1
1
1
1
1
1
1
1
1
1
1
1
1
1
1
1
1
1
1
1
1
1
1
1
1
1
1
1
1
0.999999
1
1
1
1
1
1
1
1
1
1
1
1
1
1
1
1
1
1
1
1
1
1
1
1
1
1
1
1
1
1
1
1
1
1
0.999944
0.996604
0.941777
0.721908
0.462425
0.29022
0.139508
0.043494
0.0125231
0.00731833
0.0293805
0.930022
0.918354
0.0592214
0.00422004
0.00102752
0.000574568
0.000328185
0.000211304
0.000123519
6.39669e-05
5.00643e-05
4.96111e-06
1.04994e-05
4.50708e-08
1.20986e-08
7.21839e-09
4.12342e-10
5.00359e-07
0.10555
1
1
1
1
1
1
1
1
1
1
1
1
1
1
1
1
1
1
1
1
1
1
1
1
1
1
1
1
1
1
1
1
1
1
1
1
1
1
1
1
1
1
1
1
1
1
1
1
1
1
1
1
1
1
1
1
1
1
1
1
1
1
1
1
1
1
1
0.999967
0.997818
0.956706
0.760245
0.493595
0.312093
0.162013
0.0529974
0.0147594
0.00692018
0.0150183
0.710987
1
1
0.340449
0.00900636
0.00134252
0.000443816
0.000159173
5.88722e-05
2.13994e-05
9.39574e-06
2.58595e-06
1.47662e-06
1.80994e-07
3.08472e-08
4.55213e-08
2.23818e-10
1.31816e-08
0.000703959
1
1
1
1
1
1
1
1
1
1
1
1
1
1
1
1
1
1
1
1
1
1
1
1
1
1
1
1
1
1
1
1
1
1
0.999999
1
1
1
1
1
1
1
1
1
1
1
1
1
1
1
1
1
1
1
1
1
1
1
1
1
1
1
1
1
1
1
1
1
0.999981
0.998551
0.967714
0.794577
0.52506
0.333994
0.186011
0.0639509
0.0176233
0.00691475
0.0100886
0.310794
1
0.394084
0.0542894
0.197336
0.113818
0.00665948
0.00143781
0.000286326
6.91072e-05
2.03955e-05
9.527e-06
3.59507e-06
0.000124742
5.36768e-07
1.0434e-07
4.14912e-10
1.36805e-09
8.46688e-06
0.9999
1
1
1
1
1
1
1
1
1
1
1
1
1
1
1
1
1
1
1
1
1
1
1
1
1
1
1
1
1
1
1
1
1
1
1
0.99999
1
1
1
1
1
1
1
1
1
1
1
1
1
1
1
1
1
1
1
1
1
1
1
1
1
1
1
1
1
1
1
1
0.999988
0.999036
0.975647
0.825543
0.557486
0.356507
0.211362
0.0762198
0.0212005
0.00722797
0.00779506
0.13922
0.998726
1
0.0961176
0.012251
0.0157108
0.050763
0.0485466
0.110694
0.018413
0.00241
0.00293887
0.000873449
8.95567e-07
2.22179e-06
1.99212e-06
2.85272e-09
5.34335e-10
1.3089e-07
0.0281572
1
1
1
1
1
1
1
1
1
1
1
1
1
1
1
1
1
1
1
1
1
1
1
1
1
1
1
1
1
1
1
1
1
1
1
1
0.999957
1
1
1
1
1
1
1
1
1
1
1
1
1
1
1
1
1
1
1
1
1
1
1
1
1
1
1
1
1
1
1
0.999993
0.999358
0.981743
0.851316
0.589086
0.378734
0.233607
0.0897831
0.0254947
0.00786011
0.0064945
0.0592367
0.436966
0.0578859
0.127976
0.483402
0.0182195
0.00767534
0.00312034
0.000891641
0.000390081
0.000144332
3.45e-05
1.71254e-05
1.5837e-06
1.01033e-05
2.29293e-07
1.05429e-06
4.17486e-10
5.09388e-09
0.00022551
1
1
1
1
1
1
1
1
1
1
1
1
1
1
1
1
1
1
1
1
1
1
1
1
1
1
1
1
1
1
1
1
1
1
1
1
1
0.999796
1
1
1
1
1
1
1
1
1
1
1
1
1
1
1
1
1
1
1
1
1
1
1
1
1
1
1
1
1
1
0.999996
0.999577
0.986292
0.874278
0.620061
0.399884
0.25074
0.104267
0.0305101
0.00878333
0.00577324
0.0321202
0.147448
0.0178287
0.00258986
0.00396134
0.0149673
0.870973
0.32342
0.0150806
0.00227858
0.000461882
0.000381933
0.00042443
0.00021479
0.000966374
2.99526e-08
1.19957e-08
6.3714e-10
5.21623e-10
3.6118e-06
0.94954
1
1
1
1
1
1
1
1
1
1
1
1
1
1
1
1
1
1
1
1
1
1
1
1
1
1
1
1
1
1
1
1
1
1
1
1
1
0.998933
1
1
1
1
1
1
1
1
1
1
1
1
1
1
1
1
1
1
1
1
1
1
1
1
1
1
1
1
1
0.999997
0.999722
0.989879
0.894525
0.648924
0.420677
0.26637
0.119202
0.0361856
0.00998555
0.00537923
0.0189268
0.276839
0.0137228
0.00131329
0.000557512
0.000504265
0.000613867
0.000418654
0.000475068
0.000750411
0.000584834
0.000574613
1.85899e-05
2.17889e-06
1.1171e-06
3.26309e-08
8.84387e-09
7.93083e-09
2.0655e-10
1.00616e-07
0.0126665
1
1
1
1
1
1
1
1
1
1
1
1
1
1
1
1
1
1
1
1
1
1
1
1
1
1
1
1
1
1
1
1
1
1
1
1
1
1
0.995474
1
1
1
1
1
1
1
1
1
1
1
1
1
1
1
1
1
1
1
1
1
1
1
1
1
1
1
1
0.999998
0.999818
0.992562
0.912669
0.678461
0.439879
0.280897
0.134313
0.0424109
0.011443
0.00518742
0.011416
0.312997
0.101285
0.00540611
0.000571956
0.000207942
0.000120344
8.0609e-05
4.77672e-05
2.30024e-05
1.56537e-05
4.33435e-06
2.40317e-06
5.00885e-07
3.00963e-07
7.21771e-08
2.03965e-08
1.67342e-08
1.35098e-10
5.08889e-09
0.0001685
1
1
1
1
1
1
1
1
1
1
1
1
1
1
1
1
1
1
1
1
1
1
1
1
1
1
1
1
1
1
1
1
1
1
1
1
1
1
1
0.985346
1
1
1
1
1
1
1
1
1
1
1
1
1
1
1
1
1
1
1
1
1
1
1
1
1
1
1
0.999999
0.999882
0.994691
0.928186
0.706254
0.459703
0.294621
0.149604
0.0491141
0.0131236
0.00516955
0.00751697
0.266082
0.97406
0.184019
0.0169514
0.00109065
0.000281091
0.000118442
4.17833e-05
1.66317e-05
8.48601e-06
3.73679e-06
1.85009e-06
7.72496e-07
4.80369e-07
2.78306e-06
3.63949e-07
2.09211e-08
2.47844e-10
9.22352e-10
3.58721e-06
0.961905
1
1
1
1
1
1
1
1
1
1
1
1
1
1
1
1
1
1
1
1
1
1
1
1
1
1
1
1
1
1
1
1
1
1
1
1
1
1
1
0.961294
1
1
1
1
1
1
1
1
1
1
1
1
1
1
1
1
1
1
1
1
1
1
1
1
1
1
0.999999
0.999922
0.99616
0.941721
0.732957
0.479843
0.308101
0.165229
0.0562661
0.0150609
0.00527403
0.00602436
0.127347
0.467414
0.112831
0.228912
0.375584
0.00553716
0.00225234
0.000469373
0.000102537
3.45504e-05
2.59327e-05
9.40581e-06
1.58639e-05
9.55121e-06
2.78212e-06
9.55391e-07
1.38324e-07
9.13681e-10
4.21755e-10
9.15839e-08
0.0185297
1
1
1
1
1
1
1
1
1
1
1
1
1
1
1
1
1
1
1
1
1
1
1
1
1
1
1
1
1
1
1
1
1
1
1
1
1
1
1
1
0.918905
1
1
1
1
1
1
1
1
1
1
1
1
1
1
1
1
1
1
1
1
1
1
1
1
1
1
0.999946
0.997179
0.952915
0.758913
0.499937
0.322585
0.181494
0.0639311
0.017242
0.00548229
0.0050639
0.0765761
0.0504799
0.00554173
0.00152616
0.00156987
0.00364752
0.00791054
0.0185475
0.0628369
0.0192342
0.00327251
0.00144478
3.56829e-05
1.13599e-05
2.14849e-07
1.12944e-07
1.36994e-06
2.50427e-08
3.13351e-10
5.06679e-09
0.000231907
1
1
1
1
1
1
1
1
1
1
1
1
1
1
1
1
1
1
1
1
1
1
1
1
1
1
1
1
1
1
1
1
1
1
1
1
1
1
1
1
1
0.864731
1
1
1
1
1
1
1
1
1
1
1
1
1
1
1
1
1
1
1
1
1
1
1
1
1
0.999963
0.997919
0.961909
0.785027
0.521927
0.33757
0.198388
0.0722114
0.0197142
0.00579832
0.00439786
0.0443312
0.10078
0.00749417
0.00143439
0.000429519
0.000251756
0.0002311
0.000131612
8.09024e-05
5.03469e-05
2.21771e-05
9.56886e-06
1.95869e-06
1.07494e-06
5.29125e-07
2.38568e-06
2.88056e-07
9.96057e-08
3.51906e-10
5.75658e-10
5.80347e-06
0.998997
1
1
1
1
1
1
1
1
1
1
1
1
1
1
1
1
1
1
1
1
1
1
1
1
1
1
1
1
1
1
1
1
1
1
1
1
1
1
1
1
0.999999
0.814375
1
1
1
1
1
1
1
1
1
1
1
1
1
1
1
1
1
1
1
1
1
1
1
1
0.999974
0.998451
0.969132
0.808845
0.546178
0.353727
0.215964
0.0811783
0.0225251
0.00622397
0.00396659
0.0256702
0.405773
0.19535
0.0112234
0.00357549
0.000503535
0.000252357
0.000123579
4.74306e-05
1.97902e-05
1.34888e-05
7.0426e-06
7.61052e-06
1.77844e-05
0.000365417
0.000294039
1.78017e-08
4.44916e-09
5.73701e-10
1.94282e-10
2.33157e-07
0.0383468
1
1
1
1
1
1
1
1
1
1
1
1
1
1
1
1
1
1
1
1
1
1
1
1
1
1
1
1
1
1
1
1
1
1
1
1
1
1
1
1
1
0.997474
0.779596
1
1
1
1
1
1
1
1
1
1
1
1
1
1
1
1
1
1
1
1
1
1
1
0.999982
0.998825
0.974882
0.830311
0.570383
0.370056
0.230751
0.0906102
0.0256648
0.00678243
0.00368098
0.0152412
0.224658
0.895421
0.442954
0.425916
0.121144
0.0208288
0.00474652
0.000991461
0.000566892
0.0039378
0.00354067
0.00931911
0.000126459
6.94208e-07
2.74104e-07
1.56552e-08
5.54032e-09
5.83427e-09
1.18495e-10
1.37649e-08
0.000627719
1
1
1
1
1
1
1
1
1
1
1
1
1
1
1
1
1
1
1
1
1
1
1
1
1
1
1
1
1
1
1
1
1
1
1
1
1
1
1
1
1
1
0.931661
0.784292
1
1
1
1
1
1
1
1
1
1
1
1
1
1
1
1
1
1
1
1
1
1
0.999987
0.999091
0.979333
0.849058
0.594574
0.386651
0.243409
0.100698
0.0291945
0.00746875
0.00352968
0.0103547
0.050277
0.0133358
0.00690618
0.00109194
0.00111582
0.00197363
0.00101242
0.000545354