/*--------------------------------*- C++ -*----------------------------------*\
| =========                 |                                                 |
| \\      /  F ield         | OpenFOAM: The Open Source CFD Toolbox           |
|  \\    /   O peration     | Version:  v2012                                 |
|   \\  /    A nd           | Website:  www.openfoam.com                      |
|    \\/     M anipulation  |                                                 |
\*---------------------------------------------------------------------------*/
FoamFile
{
    version     2.0;
    format      ascii;
    class       volScalarField;
    location    "2000";
    object      q3;
}
// * * * * * * * * * * * * * * * * * * * * * * * * * * * * * * * * * * * * * //

dimensions      [0 0 0 0 0 0 0];


internalField   nonuniform List<scalar> 
39402
(
0.00754178
0.00200149
0.00998657
0.00104592
0.00223829
0.0103973
0.000837242
0.00114786
0.00220237
0.0111143
0.000888496
0.00114648
0.00107317
0.00245412
0.0126925
0.000952103
0.0016333
0.00274063
0.00119743
0.00296865
0.015629
0.00099277
0.00191403
0.00513151
0.00625669
0.0016277
0.00368457
0.0201287
0.00101924
0.00207173
0.00618429
0.0119431
0.0116995
0.0023523
0.00454693
0.0263446
0.00103261
0.00216605
0.00673913
0.0142789
0.022079
0.0191224
0.00332624
0.00552882
0.0344954
0.00103459
0.00221709
0.00706076
0.0154728
0.0261035
0.0352016
0.0284676
0.00451407
0.00663328
0.0449159
0.00103252
0.00223149
0.00722851
0.0161565
0.0281011
0.041006
0.0504332
0.039539
0.0058844
0.00789165
0.0580912
0.00102577
0.00223287
0.00727684
0.0165073
0.0292277
0.0437901
0.0576182
0.0665675
0.0520666
0.00742979
0.00936834
0.0746414
0.00101567
0.00222177
0.00728008
0.0166059
0.0297928
0.0453282
0.0609053
0.0742973
0.0825766
0.0660662
0.00918925
0.0111716
0.0953371
0.00100487
0.00220609
0.0072482
0.0166008
0.0299446
0.0460671
0.0626738
0.0776045
0.0898144
0.0984023
0.0816803
0.0112254
0.0134226
0.121221
0.000993461
0.00218817
0.0071998
0.016521
0.029916
0.0462466
0.0634908
0.0793139
0.0926126
0.103695
0.114757
0.0991876
0.0136435
0.0162986
0.153582
0.000980431
0.00216454
0.00713735
0.0163912
0.0297641
0.0461785
0.0636641
0.0800702
0.0939862
0.105509
0.117495
0.131248
0.119016
0.0165773
0.0200609
0.194055
0.000967394
0.00213603
0.00706087
0.0162423
0.0295269
0.045943
0.0635449
0.080198
0.0945413
0.106303
0.117471
0.130662
0.147994
0.141513
0.019977
0.0251155
0.244701
0.000955781
0.00210816
0.00696816
0.0160796
0.0292604
0.0456182
0.0632366
0.0800319
0.0945587
0.106524
0.117241
0.12865
0.143219
0.164995
0.1659
0.0237504
0.0320347
0.308237
0.000944675
0.00208317
0.0068784
0.0158716
0.0289821
0.0452264
0.0628216
0.0796673
0.0943134
0.106368
0.116841
0.127305
0.138832
0.155358
0.181658
0.188741
0.0277875
0.0417018
0.388801
0.000933099
0.00205489
0.00679634
0.015669
0.0286364
0.0447997
0.0623487
0.0791812
0.0938984
0.106013
0.116344
0.126288
0.136148
0.1482
0.167104
0.19574
0.21193
0.0318408
0.0553293
0.491408
0.000921506
0.00203235
0.00670936
0.0154851
0.028284
0.0442985
0.061818
0.0786513
0.0933947
0.105555
0.115731
0.125431
0.134399
0.143948
0.156986
0.178134
0.204228
0.237622
0.0358013
0.0750023
0.619909
0.000910642
0.00201477
0.00663085
0.015305
0.0279617
0.0437903
0.0611829
0.0780848
0.0928378
0.105029
0.115075
0.124589
0.13312
0.141349
0.150967
0.165351
0.189112
0.220305
0.265375
0.0398505
0.100451
0.772665
0.000900578
0.0019853
0.0065607
0.0151375
0.0276479
0.0433439
0.060556
0.0774157
0.092254
0.104456
0.114382
0.12379
0.13202
0.139517
0.147354
0.157444
0.173906
0.201646
0.239189
0.297456
0.0444899
0.133758
0.946237
0.000891001
0.00196228
0.00648042
0.0149716
0.027349
0.0429095
0.0600247
0.0767581
0.0916018
0.103869
0.113662
0.122994
0.131039
0.13812
0.144855
0.152634
0.163833
0.182989
0.215608
0.258314
0.336268
0.0512099
0.177673
1.11484
0.000881376
0.00194005
0.00640515
0.0147915
0.02705
0.0424736
0.0595076
0.0761748
0.0909614
0.103228
0.11306
0.122191
0.130143
0.136953
0.143109
0.149416
0.157574
0.170358
0.192916
0.231184
0.274914
0.384078
0.0620349
0.236118
1.26565
0.000872262
0.00190975
0.00633219
0.0146235
0.026737
0.0420354
0.0589669
0.0755864
0.090374
0.102604
0.112455
0.121423
0.129273
0.135928
0.141721
0.147227
0.153488
0.162414
0.177344
0.204134
0.248407
0.288119
0.441838
0.0794457
0.310188
1.40249
0.000863878
0.00189186
0.00624329
0.0144613
0.0264449
0.0415829
0.058423
0.0749963
0.0897812
0.102053
0.11184
0.120687
0.128419
0.13497
0.140528
0.145562
0.150747
0.157284
0.167433
0.185186
0.217026
0.267168
0.318566
0.505334
0.105725
0.395732
1.53989
0.000855884
0.00187959
0.00617471
0.0142817
0.026161
0.0411833
0.0578627
0.0744326
0.0892212
0.101504
0.111295
0.119965
0.127627
0.134059
0.139473
0.144183
0.148737
0.153882
0.161064
0.172972
0.194302
0.232005
0.286811
0.36234
0.55882
0.142586
0.491798
1.67573
0.000847893
0.0018562
0.00612321
0.014141
0.0258747
0.0407731
0.0573915
0.073851
0.0886611
0.100974
0.110763
0.119263
0.126865
0.13321
0.138484
0.14297
0.147126
0.151431
0.156857
0.165109
0.179389
0.205154
0.249303
0.304729
0.423079
0.575951
0.191034
0.593215
1.81348
0.000840285
0.00183328
0.00606208
0.0140233
0.0256436
0.040334
0.0569117
0.0733364
0.0881116
0.100437
0.11024
0.118606
0.126151
0.132421
0.137584
0.141894
0.145734
0.149533
0.153874
0.159919
0.169712
0.187088
0.218241
0.268766
0.318462
0.509859
0.540698
0.250285
0.702852
1.94163
0.000832847
0.00181515
0.00599809
0.0138715
0.0254315
0.0399949
0.0563689
0.0728409
0.0875984
0.0999176
0.109782
0.118016
0.125472
0.131677
0.136739
0.140924
0.144538
0.147953
0.151616
0.156282
0.163309
0.175212
0.196525
0.233993
0.289537
0.345908
0.635269
0.467013
0.320009
0.823955
2
0.000825627
0.00179999
0.00594005
0.0137188
0.0251736
0.0397037
0.0559442
0.0722783
0.0870741
0.0994263
0.10928
0.117434
0.124849
0.130993
0.135972
0.140026
0.143493
0.146595
0.14978
0.15357
0.158863
0.167304
0.18196
0.208144
0.252585
0.309502
0.400966
0.806272
0.389092
0.398318
0.948644
2
0.000818735
0.00178235
0.00588833
0.0135916
0.0249112
0.0393828
0.0556075
0.071815
0.0865422
0.0989232
0.108847
0.116873
0.124258
0.130352
0.135272
0.139227
0.142521
0.145428
0.148222
0.151406
0.15557
0.161814
0.1722
0.190333
0.222433
0.273473
0.325491
0.481641
0.98907
0.339179
0.482326
1.06888
2
0.000812865
0.00176801
0.00583218
0.0134861
0.0246898
0.0390301
0.0552088
0.0714147
0.0861161
0.0984564
0.108404
0.11638
0.123699
0.129742
0.134602
0.13849
0.141647
0.144374
0.146913
0.149615
0.15301
0.15784
0.16542
0.178296
0.200855
0.239755
0.295176
0.347849
0.604268
1.07376
0.332473
0.569472
1.17954
2
0.000807624
0.00176036
0.00578404
0.0133755
0.0245049
0.0387107
0.0547691
0.0709416
0.0856856
0.0980901
0.107965
0.115865
0.123181
0.129172
0.133992
0.137808
0.140862
0.143426
0.145772
0.148127
0.150936
0.154779
0.16053
0.169937
0.186014
0.21408
0.259952
0.314572
0.404291
0.793398
0.973846
0.363564
0.65243
1.28802
2
0.000802084
0.00174703
0.0057533
0.0132675
0.0243304
0.0384412
0.0543999
0.0704948
0.0852123
0.0977281
0.107642
0.11535
0.122682
0.12868
0.133439
0.1372
0.140143
0.14256
0.144735
0.146859
0.149224
0.152335
0.156846
0.16388
0.175614
0.195809
0.230332
0.282053
0.329884
0.48744
1.06169
0.764784
0.417183
0.728419
1.39347
2
0.000796065
0.0017331
0.00571235
0.013196
0.0241447
0.0381862
0.0540656
0.0701234
0.0848001
0.0973102
0.107318
0.115061
0.122162
0.128183
0.132916
0.136609
0.139515
0.141804
0.143788
0.145719
0.147781
0.150351
0.153952
0.159418
0.168154
0.182855
0.208212
0.249812
0.303551
0.363571
0.615211
1.32595
0.576729
0.48066
0.804954
1.49344
2
0.000790292
0.0017125
0.00566946
0.0131084
0.024018
0.0378946
0.0537504
0.0697582
0.0844353
0.0968878
0.106986
0.114788
0.121788
0.127676
0.132425
0.136075
0.138896
0.141138
0.142973
0.14468
0.1465
0.148695
0.151622
0.155946
0.162683
0.173633
0.192173
0.223717
0.271746
0.320856
0.427129
0.818055
1.37002
0.468012
0.549834
0.8843
1.58174
2
0.000785609
0.00169635
0.00561668
0.0130183
0.0238895
0.0377085
0.0534147
0.0694136
0.0841081
0.0965463
0.10661
0.114453
0.121468
0.127284
0.131914
0.135565
0.138339
0.140498
0.142262
0.14379
0.145353
0.147242
0.149697
0.15317
0.158476
0.16685
0.180652
0.204061
0.242457
0.2938
0.338908
0.521217
1.12799
1.12658
0.438965
0.613697
0.973844
1.67202
2
0.000781795
0.00168809
0.00556982
0.0129156
0.0237347
0.0375502
0.0531878
0.0690822
0.0838057
0.0962829
0.106319
0.114167
0.121104
0.126954
0.131547
0.135094
0.137845
0.13992
0.141567
0.143021
0.144368
0.14596
0.148046
0.150905
0.155136
0.161712
0.172252
0.189705
0.218998
0.263967
0.312212
0.391952
0.667534
1.48598
0.79879
0.464423
0.678064
1.06656
1.77972
2
0.000777796
0.00168305
0.00554656
0.0128268
0.0235648
0.0373316
0.0529581
0.0688718
0.0834814
0.0960217
0.106109
0.113925
0.120774
0.12662
0.131218
0.134704
0.137338
0.139382
0.140941
0.142276
0.143509
0.144855
0.146599
0.149031
0.152479
0.157706
0.165925
0.179214
0.201276
0.237291
0.286176
0.327065
0.467875
0.905344
1.61309
0.570426
0.513511
0.749898
1.15905
1.91333
2
0.000773347
0.00167322
0.0055309
0.012778
0.023414
0.0370897
0.0527206
0.0686185
0.0833185
0.0957492
0.105798
0.113707
0.120449
0.126301
0.130869
0.134367
0.13694
0.138865
0.140375
0.141589
0.142714
0.143886
0.145359
0.147374
0.150278
0.154546
0.161077
0.171365
0.188161
0.215915
0.258511
0.305485
0.370457
0.581338
1.27111
1.34259
0.475889
0.563755
0.821798
1.2507
2
2
0.000768819
0.00166261
0.0055019
0.0127468
0.0233347
0.0368793
0.0524549
0.068401
0.0831063
0.0956075
0.10562
0.113498
0.120175
0.125966
0.130529
0.134009
0.136622
0.138471
0.139863
0.140981
0.141984
0.143016
0.144275
0.145945
0.148402
0.151949
0.157229
0.165379
0.178404
0.199697
0.234018
0.280749
0.32159
0.436398
0.761376
1.66498
0.933805
0.469024
0.618072
0.898394
1.35125
2
2
0.000764897
0.00165046
0.00546975
0.0126865
0.0232819
0.0367663
0.0521949
0.0681113
0.0828518
0.0953981
0.105536
0.113309
0.119944
0.125739
0.130247
0.133681
0.136242
0.138107
0.139416
0.14044
0.141315
0.142228
0.143293
0.14474
0.146761
0.149758
0.154143
0.160716
0.170935
0.187489
0.214353
0.255076
0.300515
0.357467
0.531837
1.0568
1.7416
0.637915
0.501779
0.679982
0.975852
1.45062
2
2
0.000761962
0.0016403
0.00543399
0.0126217
0.0231859
0.0367215
0.0520625
0.0678277
0.0825241
0.0952276
0.105363
0.113292
0.119733
0.125496
0.130037
0.133399
0.13591
0.137723
0.139025
0.139977
0.14072
0.141495
0.142414
0.143632
0.145369
0.147896
0.151562
0.156994
0.165218
0.178171
0.199141
0.232418
0.277203
0.317133
0.417932
0.67847
1.48659
1.38402
0.506126
0.548734
0.744894
1.06295
1.55893
2
2
0.00075985
0.00163469
0.00540154
0.0125375
0.0230803
0.0366139
0.0520127
0.0677273
0.0822837
0.0949005
0.105218
0.11312
0.11963
0.125259
0.129824
0.133176
0.135651
0.137402
0.138653
0.139549
0.140213
0.14083
0.141616
0.142642
0.144106
0.146266
0.149407
0.153965
0.160694
0.171025
0.187454
0.213987
0.253524
0.297048
0.349831
0.503509
0.920626
1.85714
0.933723
0.484316
0.596149
0.818576
1.15683
1.6767
2
2
0.0007574
0.0016325
0.00538876
0.0124713
0.022963
0.0364712
0.0518884
0.0676456
0.082234
0.0946811
0.10499
0.112963
0.119467
0.125172
0.129631
0.132997
0.135449
0.137149
0.138319
0.139157
0.139769
0.140275
0.140885
0.141759
0.143011
0.14485
0.147523
0.151389
0.157036
0.165459
0.178542
0.199428
0.232315
0.275595
0.313922
0.407313
0.631522
1.3125
1.78846
0.636368
0.510879
0.650719
0.895323
1.25753
1.80283
2
2
0.000753831
0.00162726
0.00538613
0.0124584
0.0228689
0.0363343
0.0517504
0.0675132
0.0822038
0.0946426
0.104769
0.112789
0.119304
0.125008
0.129503
0.132818
0.135284
0.13695
0.138065
0.138817
0.139352
0.139786
0.140269
0.140945
0.142013
0.143587
0.145879
0.149206
0.153979
0.161012
0.171621
0.188194
0.214707
0.253616
0.295118
0.346151
0.487316
0.840695
1.78888
1.3293
0.516393
0.550487
0.714594
0.981164
1.36482
1.93611
2
2
0.000749629
0.0016188
0.00537259
0.0124588
0.022858
0.0362286
0.0516218
0.0674129
0.0821241
0.0946792
0.104779
0.112644
0.119092
0.12489
0.12934
0.132722
0.135088
0.136757
0.137834
0.138521
0.138963
0.139312
0.139726
0.140256
0.141105
0.142467
0.144442
0.147292
0.151415
0.157348
0.166108
0.179492
0.200637
0.233415
0.275507
0.312
0.402342
0.60454
1.19341
1.98068
0.878905
0.501464
0.596586
0.785549
1.07175
1.47251
2
2
2
0.000745475
0.00160948
0.00534863
0.0124467
0.0228703
0.0362286
0.0514982
0.0672764
0.0819854
0.0945995
0.104777
0.112663
0.118931
0.124721
0.129257
0.13258
0.134998
0.136579
0.137626
0.138281
0.138648
0.138894
0.139196
0.139659
0.140342
0.14144
0.143173
0.145625
0.149236
0.154293
0.16166
0.172658
0.189689
0.216405
0.254969
0.294487
0.345983
0.479565
0.793612
1.69021
1.64281
0.614857
0.528255
0.652156
0.867676
1.16953
1.58026
2
2
2
0.000741955
0.00159876
0.00532228
0.0124103
0.0228568
0.0362561
0.0515098
0.0671501
0.0818194
0.0944872
0.104747
0.112754
0.118945
0.124587
0.129134
0.132466
0.134865
0.136492
0.137451
0.13806
0.138408
0.138561
0.138747
0.139089
0.139663
0.140577
0.14203
0.144172
0.147285
0.151678
0.15797
0.167177
0.181115
0.202812
0.235766
0.276624
0.311252
0.402276
0.591164
1.11814
2
1.11536
0.523461
0.569546
0.715651
0.952145
1.27738
1.69103
2
2
2
0.000739664
0.00159059
0.0052946
0.0123601
0.0228044
0.0362252
0.0515614
0.067178
0.0817378
0.0943708
0.104662
0.112685
0.119041
0.1246
0.129018
0.132343
0.134756
0.13633
0.137341
0.137853
0.13817
0.138302
0.138366
0.138587
0.139024
0.139805
0.141019
0.142898
0.145603
0.149485
0.15488
0.162685
0.17423
0.191939
0.21936
0.257535
0.294875
0.348795
0.479093
0.769708
1.61309
1.87549
0.736371
0.523579
0.61988
0.788115
1.04923
1.386
1.8076
2
2
2
0.000738847
0.00158663
0.00527453
0.0122951
0.0227476
0.0361343
0.0515304
0.0672866
0.0818239
0.0943002
0.104628
0.112641
0.118994
0.124667
0.129026
0.132277
0.134613
0.13622
0.137189
0.137747
0.137953
0.138043
0.138043
0.138152
0.138456
0.13908
0.140164
0.141766
0.144097
0.147525
0.152276
0.158976
0.168659
0.183304
0.205876
0.239295
0.278528
0.311402
0.406217
0.589321
1.08028
2
1.33629
0.564858
0.558061
0.678553
0.87075
1.14603
1.49876
1.93639
2
2
2
0.000738968
0.00158748
0.00526293
0.0122483
0.0226434
0.0360901
0.0514641
0.0673063
0.0819499
0.0944385
0.104501
0.112586
0.118931
0.124612
0.12906
0.132286
0.134526
0.136106
0.137056
0.137579
0.137799
0.137825
0.137763
0.137785
0.13798
0.138434
0.139336
0.14075
0.142838
0.145785
0.14997
0.155808
0.164083
0.17629
0.194931
0.223304
0.26097
0.296224
0.354257
0.484186
0.766121
1.57503
2
0.870896
0.530827
0.605524
0.742084
0.962498
1.25369
1.6011
2
2
2
2
0.000738781
0.00158735
0.00526691
0.0122396
0.022555
0.035979
0.0514297
0.0672499
0.0820269
0.094581
0.104649
0.112524
0.118858
0.12453
0.129034
0.132285
0.134547
0.136001
0.136946
0.137438
0.137593
0.137641
0.137517
0.137457
0.13757
0.137886
0.138599
0.139812
0.141662
0.144282
0.147977
0.153102
0.160275
0.170624
0.186155
0.209804
0.243845
0.281242
0.315812
0.413742
0.595974
1.07706
2
1.51434
0.623284
0.555171
0.659517
0.817536
1.0597
1.36402
1.70716
2
2
2
2
0.000737806
0.00158698
0.00527424
0.0122666
0.0225676
0.0358609
0.0513024
0.0672311
0.081984
0.0946678
0.104875
0.112679
0.118862
0.124496
0.128978
0.132292
0.134569
0.135993
0.136881
0.137332
0.137468
0.137413
0.137327
0.137165
0.1372
0.137427
0.137965
0.138976
0.14059
0.142954
0.146209
0.15075
0.157055
0.165946
0.179031
0.198788
0.228238
0.2655
0.298906
0.362768
0.494243
0.776914
1.58028
2
0.988088
0.549416
0.599546
0.721878
0.901054
1.16481
1.48286
1.81836
2
2
2
2
0.000736118
0.00158747
0.00528028
0.0122786
0.0226459
0.035895
0.051199
0.0671021
0.0819403
0.0946764
0.104954
0.112862
0.118948
0.124537
0.12896
0.132279
0.134538
0.136013
0.136874
0.137278
0.137381
0.137271
0.137089
0.13694
0.136856
0.137009
0.137444
0.138285
0.139652
0.141765
0.144663
0.14869
0.154258
0.162054
0.173202
0.189775
0.214817
0.249558
0.28495
0.324584
0.425259
0.610317
1.09805
2
1.6326
0.679553
0.560178
0.653012
0.789598
0.998764
1.27503
1.5835
1.94716
2
2
2
2
0.000733395
0.00158672
0.00528821
0.012299
0.0226558
0.0360206
0.0512592
0.0670408
0.0818207
0.0946629
0.104995
0.112999
0.11911
0.12461
0.128924
0.132222
0.1345
0.136018
0.13685
0.137263
0.137309
0.137187
0.136921
0.13669
0.13659
0.136635
0.136962
0.137662
0.138852
0.140672
0.143314
0.146936
0.151859
0.158657
0.168344
0.182438
0.203562
0.234379
0.271066
0.302533
0.374624
0.509927
0.801356
1.62038
2
1.0678
0.570929
0.601516
0.711699
0.865931
1.10094
1.3898
1.68745
2
2
2
2
2
0.0007299
0.00157808
0.00528277
0.0123234
0.0227019
0.0360715
0.0514363
0.0671277
0.0818189
0.0945933
0.105027
0.113031
0.119247
0.124705
0.129012
0.132173
0.134472
0.135997
0.136868
0.137205
0.137254
0.137073
0.136794
0.136488
0.136302
0.136314
0.136529
0.137102
0.138123
0.139709
0.142038
0.14534
0.149787
0.155818
0.164226
0.176323
0.19428
0.220871
0.255995
0.289497
0.33587
0.441229
0.633811
1.14437
2
1.70133
0.720692
0.570004
0.653931
0.775774
0.95496
1.21325
1.51277
1.79022
2
2
2
2
2
0.000726209
0.00156875
0.0052536
0.0123177
0.0227514
0.0361532
0.0515094
0.067341
0.0819218
0.0946104
0.104992
0.113083
0.119267
0.124845
0.129132
0.132272
0.134486
0.135957
0.136862
0.137194
0.137186
0.137009
0.13667
0.136335
0.136062
0.135981
0.136165
0.136611
0.1375
0.138914
0.140972
0.143902
0.147914
0.153323
0.160729
0.171224
0.186571
0.209405
0.241432
0.276509
0.306689
0.389844
0.531966
0.842905
1.69858
2
1.11518
0.590081
0.608507
0.712857
0.848919
1.05861
1.32606
1.61105
1.91179
2
2
2
2
2
0.000722833
0.00156023
0.00523095
0.0122698
0.022753
0.0362379
0.0516206
0.067427
0.0821552
0.0947303
0.10503
0.113055
0.11932
0.124918
0.129237
0.132403
0.134592
0.135979
0.136834
0.137181
0.137125
0.136936
0.136606
0.136209
0.135889
0.135708
0.135792
0.136194
0.136925
0.13819
0.140027
0.142649
0.146283
0.151148
0.157763
0.166923
0.180154
0.199744
0.228067
0.262997
0.294357
0.349798
0.461668
0.668021
1.22284
2
1.73001
0.748454
0.581485
0.660585
0.778275
0.933289
1.16795
1.44504
1.71341
2
2
2
2
2
2
0.000719865
0.0015529
0.00520555
0.012227
0.0226992
0.0362523
0.0517473
0.0675171
0.0822859
0.0949601
0.105164
0.113117
0.119305
0.124964
0.129336
0.13247
0.134672
0.136088
0.13682
0.13719
0.137122
0.136849
0.13655
0.136132
0.135762
0.135496
0.13548
0.13576
0.136428
0.137515
0.139158
0.141528
0.144781
0.149222
0.155203
0.163332
0.174831
0.19163
0.216387
0.249472
0.282424
0.318348
0.408593
0.560541
0.905497
1.81994
2
1.12828
0.607229
0.618163
0.718975
0.852008
1.02951
1.2859
1.56909
1.81241
2
2
2
2
2
2
0.000717687
0.001548
0.00518447
0.0121757
0.0226333
0.0361844
0.0517755
0.0676691
0.0823804
0.0950724
0.105386
0.113324
0.11936
0.124996
0.129453
0.132565
0.134723
0.136136
0.136865
0.137162
0.13713
0.136828
0.136428
0.136047
0.13566
0.135342
0.13522
0.135387
0.135941
0.136939
0.138419
0.140531
0.143478
0.147494
0.152875
0.160212
0.170303
0.184872
0.206238
0.236419
0.270768
0.300307
0.367113
0.486845
0.714425
1.3385
2
1.70818
0.757524
0.594777
0.66984
0.782247
0.927558
1.14031
1.41017
1.66759
1.93552
2
2
2
2
2
2
0.000716228
0.00154894
0.00517648
0.012135
0.0225506
0.0361002
0.0517054
0.0677665
0.0826056
0.0952106
0.105478
0.113516
0.119553
0.125024
0.129456
0.132715
0.134782
0.136179
0.136903
0.137155
0.137097
0.13684
0.136406
0.135933
0.13553
0.135208
0.135021
0.135082
0.135502
0.13637
0.137753
0.139644
0.142335
0.14598
0.150877
0.157457
0.166468
0.179226
0.197734
0.224494
0.258079
0.289027
0.334202
0.431647
0.596833
0.993021
1.98231
2
1.10145
0.61846
0.631168
0.729745
0.853127
1.0192
1.26157
1.53084
1.76704
2
2
2
2
2
2
2
0.000715473
0.00154599
0.00517866
0.0121202
0.0224891
0.0359898
0.0516088
0.0676961
0.0827738
0.0954362
0.1056
0.113579
0.119745
0.125177
0.129458
0.132722
0.13496
0.136266
0.136985
0.137205
0.137113
0.136806
0.136406
0.135863
0.135387
0.135044
0.134851
0.134845
0.13515
0.135862
0.137103
0.138871
0.141316
0.14461
0.149084
0.155063
0.163158
0.174395
0.190567
0.214043
0.245599
0.277963
0.307592
0.388261
0.518015
0.776833
1.49457
2
1.6359
0.747114
0.60881
0.685296
0.796436
0.931856
1.12475
1.38219
1.65671
1.86992
2
2
2
2
2
2
2
0.000715278
0.00154018
0.0051708
0.0121272
0.0224693
0.0359413
0.0515256
0.0676087
0.0827169
0.0956399
0.105787
0.113744
0.119781
0.125381
0.129593
0.132752
0.135026
0.136379
0.137078
0.13727
0.137162
0.136812
0.136343
0.135835
0.135292
0.134889
0.134667
0.134647
0.134869
0.13544
0.1365
0.138162
0.14043
0.143448
0.147489
0.152906
0.160217
0.170239
0.184432
0.204966
0.233694
0.266912
0.29575
0.353315
0.459798
0.643932
1.11279
2
2
1.04525
0.624352
0.648259
0.747907
0.867968
1.02018
1.24284
1.50933
1.74326
2
2
2
2
2
2
2
2
0.00071547
0.00153649
0.0051571
0.0121124
0.0224842
0.035887
0.0514752
0.067577
0.0825872
0.0955693
0.105945
0.113933
0.119915
0.125455
0.129773
0.132826
0.135003
0.136431
0.137176
0.137335
0.137172
0.136816
0.136312
0.13578
0.13524
0.134781
0.134494
0.134441
0.134627
0.135106
0.135994
0.1375
0.13958
0.142419
0.146083
0.151056
0.157677
0.166647
0.179219
0.197257
0.222876
0.25508
0.285517
0.325085
0.413827
0.556919
0.862612
1.69662
2
1.52512
0.726301
0.623703
0.703927
0.813579
0.948329
1.12227
1.37414
1.63351
1.84323
2
2
2
2
2
2
2
2
0.000715957
0.00153964
0.00514654
0.0120885
0.0224637
0.0358792
0.0513768
0.0675428
0.0825254
0.095472
0.105928
0.114122
0.12018
0.125493
0.129829
0.132944
0.135097
0.136425
0.137239
0.13747
0.137247
0.136818
0.1363
0.13573
0.135201
0.134706
0.134356
0.134228
0.134393
0.134809
0.135584
0.136877
0.138816
0.141435
0.144861
0.149377
0.155406
0.163532
0.174747
0.190614
0.213308
0.243585
0.27523
0.303553
0.376573
0.493996
0.70685
1.2771
2
2
0.971324
0.629484
0.666749
0.765663
0.885693
1.03322
1.24423
1.50363
1.75031
1.96057
2
2
2
2
2
2
2
2
0.000716351
0.0015436
0.00515967
0.0120692
0.0224287
0.0358576
0.051377
0.0674411
0.0825641
0.0954322
0.105882
0.114084
0.120329
0.125725
0.129901
0.132991
0.135223
0.136535
0.137258
0.137553
0.13739
0.136885
0.136278
0.135694
0.135151
0.134644
0.134262
0.134046
0.134133
0.134555
0.135268
0.136383
0.138084
0.140517
0.143745
0.147907
0.153411
0.160762
0.170838
0.184966
0.205001
0.232662
0.264969
0.293632
0.346
0.444728
0.606333
0.983118
1.94978
2
1.38452
0.70179
0.640362
0.72353
0.833999
0.964537
1.13623
1.37489
1.64035
1.83471
2
2
2
2
2
2
2
2
2
0.000716611
0.00154545
0.00517299
0.0120997
0.0224004
0.0358473
0.051355
0.0674531
0.082528
0.0954854
0.105905
0.114062
0.120358
0.125928
0.130104
0.133059
0.135199
0.136641
0.137329
0.137557
0.137457
0.137014
0.136338
0.135677
0.135092
0.1346
0.134185
0.13394
0.133916
0.134252
0.134932
0.135991
0.13751
0.139717
0.142721
0.146624
0.151694
0.158392
0.167475
0.180067
0.197906
0.222888
0.25423
0.284208
0.320986
0.404562
0.53582
0.793384
1.50011
2
1.92346
0.889097
0.636453
0.687489
0.788572
0.90896
1.05319
1.24992
1.51063
1.74976
1.94531
2
2
2
2
2
2
2
2
2
0.000716636
0.00154644
0.00518046
0.0121307
0.0224556
0.035842
0.0513902
0.0674869
0.0825579
0.095536
0.106005
0.114124
0.12039
0.125958
0.130316
0.133284
0.135262
0.136593
0.137383
0.137587
0.137432
0.137078
0.136459
0.135732
0.135057
0.134516
0.134119
0.133829
0.133769
0.133983
0.134608
0.135584
0.137001
0.139005
0.141771
0.14545
0.150173
0.156336
0.164533
0.175828
0.19176
0.214241
0.243957
0.27491
0.30271
0.371519
0.481986
0.671
1.15305
2
2
1.22437
0.680212
0.659824
0.747794
0.860395
0.991044
1.15134
1.38512
1.64255
1.84984
2
2
2
2
2
2
2
2
2
2
0.000716375
0.00154696
0.00517741
0.0121636
0.0225115
0.0359302
0.0514319
0.0675374
0.0826055
0.0956343
0.106059
0.114221
0.120439
0.125995
0.130362
0.13349
0.135479
0.136599
0.137293
0.137627
0.137461
0.137094
0.136541
0.135844
0.13509
0.13444
0.134026
0.133738
0.13364
0.133807
0.134302
0.135232
0.136582
0.138439
0.140932
0.144316
0.148784
0.154507
0.162025
0.172186
0.186415
0.206723
0.23427
0.265841
0.293696
0.344088
0.438563
0.58822
0.915464
1.79119
2
1.69905
0.810359
0.647483
0.712284
0.815521
0.936799
1.08195
1.27024
1.52213
1.77784
1.94796
2
2
2
2
2
2
2
2
2
2
0.000715786
0.00154645
0.0051794
0.0121579
0.0225698
0.0360117
0.0515028
0.0675318
0.0826565
0.0956247
0.106175
0.114272
0.120535
0.126046
0.130344
0.133562
0.135671
0.13681
0.137309
0.137535
0.137499
0.137116
0.136586
0.135912
0.135178
0.134444
0.133914
0.13364
0.133533
0.133643
0.134073
0.134888
0.136149
0.137934
0.140266
0.143366
0.147486
0.15283
0.159791
0.169058
0.1819
0.200088
0.225416
0.256234
0.28512
0.321219
0.402482
0.527641
0.76009
1.38976
2
2
1.06344
0.666688
0.683016
0.775596
0.888708
1.01921
1.17915
1.40344
1.66945
1.86402
2
2
2
2
2
2
2
2
2
2
2
0.000714987
0.00154819
0.00518542
0.0121503
0.0225883
0.0360654
0.0515687
0.0676665
0.082648
0.0956827
0.106173
0.114398
0.120598
0.126127
0.130396
0.133591
0.135737
0.136994
0.137474
0.137548
0.137392
0.137085
0.13659
0.135935
0.135238
0.134521
0.133876
0.133507
0.133403
0.133515
0.133872
0.134597
0.135729
0.137385
0.139628
0.142517
0.146328
0.151345
0.157813
0.16634
0.177962
0.194322
0.217414
0.247004
0.276785
0.303704
0.37221
0.47979
0.657124
1.0926
2
2
1.45394
0.746123
0.663886
0.740324
0.84579
0.967183
1.11141
1.29727
1.55232
1.78395
1.9671
2
2
2
2
2
2
2
2
2
2
2
0.000713821
0.00154344
0.00518964
0.0121767
0.0225742
0.0360931
0.0516379
0.0677963
0.0827956
0.0957261
0.106214
0.114382
0.120683
0.126188
0.130489
0.133656
0.135812
0.137051
0.137644
0.137679
0.137371
0.136941
0.136505
0.135934
0.135267
0.134593
0.133945
0.133447
0.133253
0.133361
0.133718
0.134371
0.135398
0.136951
0.139021
0.141799
0.145337
0.149967
0.156021
0.163952
0.174597
0.189376
0.210182
0.238126
0.268842
0.295587
0.346705
0.440075
0.584933
0.889313
1.7131
2
1.95011
0.920968
0.664471
0.709558
0.806511
0.921323
1.0564
1.21466
1.43504
1.6902
1.90467
2
2
2
2
2
2
2
2
2
2
2
2
0.000712508
0.00153799
0.00517523
0.0121854
0.0225973
0.0361139
0.0516753
0.0678748
0.0829262
0.0958107
0.106254
0.114421
0.120672
0.126332
0.130534
0.133727
0.135865
0.13714
0.137733
0.137782
0.137461
0.136901
0.13635
0.135834
0.135253
0.134647
0.134014
0.133505
0.133169
0.133193
0.133534
0.134147
0.135103
0.136519
0.138532
0.141108
0.144465
0.148787
0.154401
0.16175
0.171584
0.185048
0.20392
0.229754
0.260305
0.287988
0.325303
0.406514
0.530154
0.753451
1.35089
2
2
1.21445
0.703795
0.685704
0.770945
0.878765
1.00611
1.15095
1.33393
1.58159
1.84388
1.99298
2
2
2
2
2
2
2
2
2
2
2
2
0.000710991
0.00153685
0.00515829
0.0121399
0.0226096
0.0361435
0.0517007
0.0679206
0.0830111
0.0958778
0.106369
0.114447
0.120682
0.126357
0.130721
0.133771
0.135947
0.137232
0.137804
0.137898
0.137572
0.136991
0.136297
0.135688
0.135149
0.134627
0.134049
0.133566
0.133198
0.133066
0.13333
0.133927
0.134837
0.136152
0.13802
0.140455
0.143682
0.147722
0.152983
0.159798
0.16888
0.181247
0.198461
0.222149
0.251796
0.280461
0.307016
0.378088
0.485868
0.660528
1.08321
2
2
1.62246
0.808686
0.673938
0.739435
0.840076
0.958869
1.09463
1.25892
1.4712
1.73725
1.92593
2
2
2
2
2
2
2
2
2
2
2
2
2
0.000709366
0.0015335
0.00515363
0.0121062
0.022534
0.0361645
0.051789
0.0679507
0.0830549
0.0960053
0.10649
0.114564
0.120688
0.126353
0.130778
0.133888
0.135982
0.13729
0.137892
0.138005
0.137673
0.137103
0.136379
0.135621
0.134987
0.134517
0.134048
0.133578
0.13324
0.133053
0.133147
0.13369
0.134602
0.135882
0.137585
0.139882
0.14292
0.146819
0.151759
0.158122
0.166514
0.177883
0.193597
0.215443
0.243687
0.273169
0.298987
0.353853
0.448623
0.593789
0.896309
1.71534
2
2
1.00366
0.684749
0.713188
0.805194
0.916459
1.04438
1.19205
1.37158
1.6283
1.85239
2
2
2
2
2
2
2
2
2
2
2
2
2
2
0.000707659
0.00152991
0.00514161
0.0120973
0.0224813
0.0360548
0.051864
0.0680067
0.0831516
0.0960573
0.106645
0.114668
0.120781
0.12634
0.130769
0.133944
0.136064
0.137311
0.137984
0.13808
0.13781
0.137194
0.136465
0.135661
0.134906
0.134315
0.133948
0.133569
0.133259
0.133066
0.133113
0.133482
0.134345
0.135611
0.13724
0.1394
0.14225
0.14594
0.150629
0.156615
0.164433
0.17488
0.18932
0.209373
0.236006
0.265954
0.292187
0.333353
0.416713
0.542388
0.768606
1.37419
2
2
1.302
0.73477
0.694213
0.773985
0.878701
0.999218
1.13838
1.29749
1.52125
1.76983
1.98636
2
2
2
2
2
2
2
2
2
2
2
2
2
2
0.000705915
0.00152571
0.0051293
0.0120716
0.0224685
0.0359792
0.0517238
0.0680405
0.0832115
0.0961523
0.106662
0.114767
0.120855
0.126407
0.130729
0.133959
0.136098
0.137431
0.138039
0.138204
0.137918
0.137324
0.136564
0.13572
0.13493
0.134191
0.133727
0.133494
0.13324
0.133085
0.133114
0.133399
0.134111
0.135311
0.136926
0.138971
0.141668
0.145185
0.149599
0.155261
0.162594
0.172308
0.18551
0.203892
0.22886
0.258409
0.285633
0.315837
0.389384
0.500272
0.679641
1.11819
2
2
1.69968
0.845969
0.687171
0.746289
0.844081
0.958498
1.09104
1.24063
1.43424
1.67185
1.93279
2
2
2
2
2
2
2
2
2
2
2
2
2
2
2
0.000704195
0.00152103
0.00511439
0.0120425
0.0224232
0.0359592
0.0516178
0.0679364
0.0831965
0.0962841
0.106683
0.114867
0.120963
0.126527
0.130774
0.133902
0.136099
0.137478
0.13813
0.138283
0.138032
0.137458
0.136684
0.135825
0.134968
0.134188
0.133558
0.133254
0.133165
0.133076
0.133129
0.13338
0.133937
0.135017
0.136556
0.138584
0.141158
0.144451
0.148673
0.15401
0.160892
0.169985
0.182192
0.199116
0.222189
0.250952
0.279159
0.304342
0.366004
0.464497
0.614859
0.935034
1.79627
2
2
1.03813
0.701494
0.722963
0.812306
0.920629
1.04583
1.18889
1.36192
1.57312
1.84582
2
2
2
2
2
2
2
2
2
2
2
2
2
2
2
2
0.000702578
0.00151644
0.00509872
0.0120091
0.0223713
0.035892
0.0515876
0.0678409
0.0830869
0.0962672
0.106762
0.114899
0.121048
0.126615
0.130871
0.133966
0.13607
0.137408
0.13821
0.138354
0.138125
0.137586
0.136814
0.135962
0.135056
0.134243
0.133502
0.133051
0.132911
0.133003
0.133097
0.133358
0.133861
0.134778
0.136212
0.138193
0.140663
0.1438
0.14782
0.152899
0.159392
0.167899
0.179303
0.194907
0.216317
0.243842
0.272819
0.297939
0.346041
0.433727
0.564788
0.806695
1.4616
2
2
1.31937
0.751232
0.706364
0.783632
0.885682
1.0041
1.13889
1.29777
1.4809
1.7402
1.96007
2
2
2
2
2
2
2
2
2
2
2
2
2
2
2
2
0.000700839
0.00151297
0.00508349
0.011974
0.0223111
0.0358159
0.051499
0.0677831
0.0829975
0.0961017
0.106754
0.114885
0.121066
0.126621
0.130941
0.13405
0.13611
0.137372
0.13812
0.138378
0.138183
0.13768
0.136973
0.136085
0.135207
0.134325
0.133543
0.132963
0.132683
0.132741
0.133019
0.133337
0.133829
0.134652
0.135953
0.137756
0.140249
0.143294
0.147044
0.151892
0.158005
0.166015
0.176664
0.191203
0.2111