/*--------------------------------*- C++ -*----------------------------------*\
| =========                 |                                                 |
| \\      /  F ield         | OpenFOAM: The Open Source CFD Toolbox           |
|  \\    /   O peration     | Version:  v2012                                 |
|   \\  /    A nd           | Website:  www.openfoam.com                      |
|    \\/     M anipulation  |                                                 |
\*---------------------------------------------------------------------------*/
FoamFile
{
    version     2.0;
    format      ascii;
    class       volScalarField;
    location    "2000";
    object      Rew;
}
// * * * * * * * * * * * * * * * * * * * * * * * * * * * * * * * * * * * * * //

dimensions      [0 0 0 0 0 0 0];


internalField   nonuniform List<scalar> 
39402
(
0.707538
0.379929
0.999985
0.210179
0.994294
1
0.169381
0.925988
0.999997
1
0.177913
0.869441
0.999276
1
1
0.189265
0.879759
0.997154
0.999998
1
1
0.196533
0.893813
0.997564
0.999983
1
1
1
0.201284
0.902237
0.998096
0.999986
1
1
1
1
0.203662
0.907271
0.998384
0.99999
1
1
1
1
1
0.203973
0.910238
0.998547
0.999992
1
1
1
1
1
1
0.203557
0.910314
0.998632
0.999993
1
1
1
1
1
1
1
0.202276
0.909742
0.998625
0.999993
1
1
1
1
1
1
1
1
0.200376
0.908109
0.998595
0.999993
1
1
1
1
1
1
1
1
1
0.198348
0.906717
0.99854
0.999993
1
1
1
1
1
1
1
1
1
1
0.19621
0.905085
0.99849
0.999992
1
1
1
1
1
1
1
1
1
1
1
0.193769
0.902466
0.99841
0.999992
1
1
1
1
1
1
1
1
1
1
1
1
0.191324
0.899367
0.998301
0.999991
1
1
1
1
1
1
1
1
1
1
1
1
1
0.189143
0.896252
0.998166
0.99999
1
1
1
1
1
1
1
1
1
1
1
1
1
1
0.18706
0.893349
0.998027
0.999989
1
1
1
1
1
1
1
1
1
1
1
1
1
1
1
0.184886
0.889371
0.997887
0.999987
1
1
1
1
1
1
1
1
1
1
1
1
1
1
1
1
0.182702
0.887305
0.997713
0.999985
1
1
1
1
1
1
1
1
1
1
1
1
1
1
1
1
1
0.180656
0.886673
0.997585
0.999984
1
1
1
1
1
1
1
1
1
1
1
1
1
1
1
1
1
1
0.178758
0.882069
0.997494
0.999982
1
1
1
1
1
1
1
1
1
1
1
1
1
1
1
1
1
1
1
0.17695
0.87898
0.997323
0.999981
1
1
1
1
1
1
1
1
1
1
1
1
1
1
1
1
1
1
1
1
0.175133
0.875957
0.997148
0.999979
1
1
1
1
1
1
1
1
1
1
1
1
1
1
1
1
1
1
1
1
1
0.173408
0.870158
0.996969
0.999976
1
1
1
1
1
1
1
1
1
1
1
1
1
1
1
1
1
1
1
1
1
1
0.17182
0.868185
0.996673
0.999974
1
1
1
1
1
1
1
1
1
1
1
1
1
1
1
1
1
1
1
1
1
1
1
0.170306
0.867801
0.996477
0.99997
1
1
1
1
1
1
1
1
1
1
1
1
1
1
1
1
1
1
1
1
1
1
1
1
0.16879
0.86334
0.996374
0.999968
1
1
1
1
1
1
1
1
1
1
1
1
1
1
1
1
1
1
1
1
1
1
1
1
1
0.167346
0.858919
0.996181
0.999966
1
1
1
1
1
1
1
1
1
1
1
1
1
1
1
1
1
1
1
1
1
1
1
1
1
1
0.165934
0.85593
0.995955
0.999962
1
1
1
1
1
1
1
1
1
1
1
1
1
1
1
1
1
1
1
1
1
1
1
1
1
1
1
0.164561
0.85396
0.995745
0.999958
1
1
1
1
1
1
1
1
1
1
1
1
1
1
1
1
1
1
1
1
1
1
1
1
1
1
1
1
0.163248
0.850931
0.995577
0.999954
1
1
1
1
1
1
1
1
1
1
1
1
1
1
1
1
1
1
1
1
1
1
1
1
1
1
1
1
1
0.16213
0.848908
0.995352
0.999952
1
1
1
1
1
1
1
1
1
1
1
1
1
1
1
1
1
1
1
1
1
1
1
1
1
1
1
1
1
1
0.161132
0.848899
0.995174
0.999949
1
1
1
1
1
1
1
1
1
1
1
1
1
1
1
1
1
1
1
1
1
1
1
1
1
1
1
1
1
1
1
0.160076
0.846291
0.995112
0.999945
1
1
1
1
1
1
1
1
1
1
1
1
1
1
1
1
1
1
1
1
1
1
1
1
1
1
1
1
1
1
1
1
0.158929
0.843685
0.994911
0.999944
1
1
1
1
1
1
1
1
1
1
1
1
1
1
1
1
1
1
1
1
1
1
1
1
1
1
1
1
1
1
1
1
1
0.157828
0.838567
0.994706
0.99994
1
1
1
1
1
1
1
1
1
1
1
1
1
1
1
1
1
1
1
1
1
1
1
1
1
1
1
1
1
1
1
1
1
1
0.156933
0.834953
0.994407
0.999936
1
1
1
1
1
1
1
1
1
1
1
1
1
1
1
1
1
1
1
1
1
1
1
1
1
1
1
1
1
1
1
1
1
1
1
0.156204
0.833976
0.994133
0.999931
1
1
1
1
1
1
1
1
1
1
1
1
1
1
1
1
1
1
1
1
1
1
1
1
1
1
1
1
1
1
1
1
1
1
1
1
0.155439
0.833883
0.994069
0.999927
1
1
1
1
1
1
1
1
1
1
1
1
1
1
1
1
1
1
1
1
1
1
1
1
1
1
1
1
1
1
1
1
1
1
1
1
1
0.154589
0.831944
0.994052
0.999926
1
1
1
1
1
1
1
1
1
1
1
1
1
1
1
1
1
1
1
1
1
1
1
1
1
1
1
1
1
1
1
1
1
1
1
1
1
1
0.153722
0.829944
0.993888
0.999926
1
1
1
1
1
1
1
1
1
1
1
1
1
1
1
1
1
1
1
1
1
1
1
1
1
1
1
1
1
1
1
1
1
1
0.0347362
1
0.999999
0.869043
1
0.152972
0.827239
0.993708
0.999922
1
1
1
1
1
1
1
1
1
1
1
1
1
1
1
1
1
1
1
1
1
1
1
1
1
1
1
1
1
1
1
1
1
1
1
1
1
1
1
1
0.15241
0.824905
0.993471
0.999919
0.999999
1
1
1
1
1
1
1
1
1
1
1
1
1
1
1
1
1
1
1
1
1
1
1
1
1
1
1
1
1
1
1
1
1
1
1
1
1
1
1
1
0.152005
0.823985
0.993218
0.999912
0.999999
1
1
1
1
1
1
1
1
1
1
1
1
1
1
1
1
1
1
1
1
1
1
1
1
1
1
1
1
1
1
1
1
1
1
1
1
1
0.999986
1
1
1
0.151536
0.824089
0.993168
0.999906
0.999999
1
1
1
1
1
1
1
1
1
1
1
1
1
1
1
1
1
1
1
1
1
1
1
1
1
1
1
1
1
1
1
1
1
1
1
1
1
1
0.945784
1
1
1
0.150852
0.823154
0.993208
0.999907
0.999999
1
1
1
1
1
1
1
1
1
1
1
1
1
1
1
1
1
1
1
1
1
1
1
1
1
1
1
1
1
1
1
1
1
1
1
1
1
1
1
1
1
1
0.994955
0.150045
0.821642
0.993132
0.999908
0.999999
1
1
1
1
1
1
1
1
1
1
1
1
1
1
1
1
1
1
1
1
1
1
1
1
1
1
1
1
1
1
1
1
1
1
1
1
1
1
1
1
1
1
1
0.963825
0.149248
0.820038
0.993003
0.999908
0.999999
1
1
1
1
1
1
1
1
1
1
1
1
1
1
1
1
1
1
1
1
1
1
1
1
1
1
1
1
1
1
1
1
1
1
1
1
0.999175
1
1
1
1
1
1
1
0.982299
0.148572
0.817725
0.992869
0.999907
0.999999
1
1
1
1
1
1
1
1
1
1
1
1
1
1
1
1
1
1
1
1
1
1
1
1
1
1
1
1
1
1
1
1
1
1
1
1
1
1
1
1
1
1
1
1
1
0.849402
0.148132
0.816049
0.992708
0.999905
0.999999
1
1
1
1
1
1
1
1
1
1
1
1
1
1
1
1
1
1
1
1
1
1
1
1
1
1
1
1
1
1
1
1
1
1
1
1
1
1
1
1
1
1
1
1
1
0.999975
0.550886
0.147975
0.815509
0.9926
0.9999
0.999999
1
1
1
1
1
1
1
1
1
1
1
1
1
1
1
1
1
1
1
1
1
1
1
1
1
1
1
1
1
1
1
1
1
1
1
1
1
0.999999
1
0.999999
1
1
1
1
1
1
0.98919
0.279489
0.148
0.816072
0.992526
0.999896
0.999999
1
1
1
1
1
1
1
1
1
1
1
1
1
1
1
1
1
1
1
1
1
1
1
1
1
1
1
1
1
1
1
1
1
1
1
1
1
0.99999
1
0.999992
1
0.999757
1
1
1
1
1
0.987606
0.121172
0.147965
0.81565
0.992559
0.999897
0.999999
1
1
1
1
1
1
1
1
1
1
1
1
1
1
1
1
1
1
1
1
1
1
1
1
1
1
1
1
1
1
1
1
1
1
1
1
1
1
1
1
1
1
1
1
1
1
1
0.999986
0.795632
0.0475436
0.147778
0.815429
0.992592
0.9999
0.999999
1
1
1
1
1
1
1
1
1
1
1
1
1
1
1
1
1
1
1
1
1
1
1
1
1
1
1
1
1
1
1
1
1
1
1
1
1
1
1
1
0.99259
1
1
1
1
1
1
1
0.999848
0.408309
0.0169406
0.147453
0.81624
0.992644
0.999899
0.999999
1
1
1
1
1
1
1
1
1
1
1
1
1
1
1
1
1
1
1
1
1
1
1
1
1
1
1
1
1
1
1
1
1
1
1
1
1
1
0.999984
1
0.995246
1
1
1
1
1
1
1
1
0.99702
0.155635
0.00548419
0.14693
0.816987
0.992793
0.999901
0.999999
1
1
1
1
1
1
1
1
1
1
1
1
1
1
1
1
1
1
1
1
1
1
1
1
1
1
1
1
1
1
1
1
1
1
1
1
1
1
1
1
1
1
1
1
1
1
1
1
1
1
0.82909
0.0519622
0.00161118
0.146257
0.814845
0.992799
0.999904
0.999999
1
1
1
1
1
1
1
1
1
1
1
1
1
1
1
1
1
1
1
1
1
1
1
1
1
1
1
1
1
1
1
1
1
1
1
1
1
1
1
0.999309
1
0.515259
1
1
1
1
1
1
1
1
0.999903
0.378122
0.0156265
0.000424045
0.145547
0.812799
0.99254
0.999905
0.999999
1
1
1
1
1
1
1
1
1
1
1
1
1
1
1
1
1
1
1
1
1
1
1
1
1
1
1
1
1
1
1
1
1
1
1
1
1
1
1
1
1
0.849405
1
1
1
1
1
1
1
1
1
0.994503
0.120291
0.00420773
9.86207e-05
0.144897
0.811246
0.992431
0.999901
0.999999
1
1
1
1
1
1
1
1
1
1
1
1
1
1
1
1
1
1
1
1
1
1
1
1
1
1
1
1
1
1
1
1
1
1
1
1
1
1
1
1
0.0671324
0.960654
1
1
1
1
1
1
1
1
1
1
0.7201
0.0328546
0.00100436
2.00409e-05
0.144324
0.810063
0.99229
0.999899
0.999999
1
1
1
1
1
1
1
1
1
1
1
1
1
1
1
1
1
1
1
1
1
1
1
1
1
1
1
1
1
1
1
1
1
1
1
1
1
1
1
1
1
0.999988
0.999999
1
1
1
1
1
1
1
1
1
0.999997
0.244672
0.00799412
0.000210198
3.48912e-06
0.143904
0.809733
0.992197
0.999897
0.999999
1
1
1
1
1
1
1
1
1
1
1
1
1
1
1
1
1
1
1
1
1
1
1
1
1
1
1
1
1
1
1
1
1
1
1
1
1
1
1
1
1
0.502253
0.980603
1
1
1
1
1
1
1
1
1
1
0.95229
0.0616272
0.00174267
3.75712e-05
4.71279e-07
0.143623
0.8117
0.992281
0.999895
0.999999
1
1
1
1
1
1
1
1
1
1
1
1
1
1
1
1
1
1
1
1
1
1
1
1
1
1
1
1
1
1
1
1
1
1
1
1
1
1
1
1
1
0.999984
0.776811
1
1
1
1
1
1
1
1
1
1
1
0.436532
0.0136554
0.000334205
5.43571e-06
6.71133e-08
0.143479
0.811196
0.992464
0.999897
0.999999
1
1
1
1
1
1
1
1
1
1
1
1
1
1
1
1
1
1
1
1
1
1
1
1
1
1
1
1
1
1
1
1
1
1
1
1
1
1
1
1
1
1
0.848794
1
1
1
1
0.937416
1
1
1
1
1
1
0.998158
0.104994
0.00269867
5.3505e-05
6.95348e-07
8.45438e-09
0.143442
0.808611
0.992425
0.999901
0.999999
1
1
1
1
1
1
1
1
1
1
1
1
1
1
1
1
1
1
1
1
1
1
1
1
1
1
1
1
1
1
1
1
1
1
1
1
1
1
1
1
1
1
0.999597
1
1
1
1
1
0.998599
0.427997
1
1
1
1
1
0.664966
0.021174
0.000458744
7.19783e-06
2.81619e-08
1.89309e-08
0.14348
0.80667
0.992216
0.9999
0.999999
1
1
1
1
1
1
1
1
1
1
1
1
1
1
1
1
1
1
1
1
1
1
1
1
1
1
1
1
1
1
1
1
1
1
1
1
1
1
1
1
1
1
1
0.999887
1
1
1
1
1
1
1
1
1
1
1
0.999988
0.16256
0.00368524
6.40142e-05
6.08044e-07
1.75456e-08
1.93869e-08
0.143575
0.807882
0.99201
0.999897
0.999999
1
1
1
1
1
1
1
1
1
1
1
1
1
1
1
1
1
1
1
1
1
1
1
1
1
1
1
1
1
1
1
1
1
1
1
1
1
1
1
1
1
1
1
0.999998
1
1
1
1
1
1
1
1
1
1
1
1
0.848714
0.0289141
0.000541304
6.76636e-06
3.06523e-08
4.82444e-09
9.24965e-09
0.143651
0.809358
0.992173
0.999892
0.999999
1
1
1
1
1
1
1
1
1
1
1
1
1
1
1
1
1
1
1
1
1
1
1
1
1
1
1
1
1
1
1
1
1
1
1
1
1
1
1
1
1
1
1
1
1
1
1
1
1
1
1
1
1
1
1
1
0.997717
0.220209
0.00440437
6.02579e-05
5.08654e-07
1.59242e-08
2.49492e-08
8.93549e-09
0.143702
0.809835
0.99232
0.999896
0.999999
1
1
1
1
1
1
1
1
1
1
1
1
1
1
1
1
1
1
1
1
1
1
1
1
1
1
1
1
1
1
1
1
1
1
1
1
1
1
1
1
1
1
1
1
1
1
1
1
1
1
1
1
1
1
1
1
1
0.936399
0.034928
0.000530087
5.94644e-06
8.39271e-10
2.02186e-09
6.11818e-09
2.48354e-09
0.143707
0.810047
0.992382
0.999899
0.999999
1
1
1
1
1
1
1
1
1
1
1
1
1
1
1
1
1
1
1
1
1
1
1
1
1
1
1
1
1
1
1
1
1
1
1
1
1
1
1
1
1
1
1
1
1
1
1
1
1
1
0.999983
1
0.999253
1
1
1
1
0.999993
0.266719
0.00451871
5.6127e-05
3.36876e-07
4.41745e-08
9.43353e-09
1.26442e-09
1.13387e-08
0.143658
0.81023
0.992292
0.999903
0.999999
1
1
1
1
1
1
1
1
1
1
1
1
1
1
1
1
1
1
1
1
1
1
1
1
1
1
1
1
1
1
1
1
1
1
1
1
1
1
1
1
1
1
1
1
1
1
1
1
1
1
1
0.999922
1
1
1
1
1
1
0.970965
0.0386458
0.000515245
4.31946e-06
1.12658e-08
1.04765e-09
2.6642e-08
2.08199e-08
1.8886e-08
0.143544
0.810138
0.992312
0.999901
0.999999
1
1
1
1
1
1
1
1
1
1
1
1
1
1
1
1
1
1
1
1
1
1
1
1
1
1
1
1
1
1
1
1
1
1
1
1
1
1
1
1
1
1
1
1
1
1
1
1
1
1
1
1
1
1
1
1
1
1
1
0.303812
0.00458315
4.7119e-05
2.10953e-07
4.28412e-09
1.52427e-10
9.48583e-09
2.64739e-09
3.6311e-08
0.14339
0.811443
0.992426
0.9999
0.999999
1
1
1
1
1
1
1
1
1
1
1
1
1
1
1
1
1
1
1
1
1
1
1
1
1
1
1
1
1
1
1
1
1
1
1
1
1
1
1
1
1
1
1
1
1
1
1
1
1
1
1
0.993098
1
1
0.721785
1
1
1
1
0.984605
0.0386964
0.000469734
3.14673e-06
2.47665e-08
1.11956e-08
7.91296e-09
2.58863e-08
2.5179e-08
2.21213e-09
0.143166
0.809643
0.99254
0.999904
0.999999
1
1
1
1
1
1
1
1
1
1
1
1
1
1
1
1
1
1
1
1
1
1
1
1
1
1
1
1
1
1
1
1
1
1
1
1
1
1
1
1
1
1
1
1
1
1
1
1
1
1
1
0.999967
0.96748
1
1
1
1
1
1
1
0.306595
0.00438059
3.61947e-05
1.0487e-07
9.61069e-09
6.81881e-09
1.4399e-08
1.66296e-08
6.8524e-09
4.99326e-09
0.142913
0.807813
0.992376
0.999907
0.999999
1
1
1
1
1
1
1
1
1
1
1
1
1
1
1
1
1
1
1
1
1
1
1
1
1
1
1
1
1
1
1
1
1
1
1
1
1
1
1
1
1
1
1
1
1
1
1
1
1
1
1
1
1
1
1
1
1
1
1
1
0.988445
0.0383032
0.000384509
1.98853e-06
1.63523e-08
6.58125e-09
4.64074e-10
7.62486e-09
5.42452e-09
4.83356e-09
7.61679e-09
0.142621
0.808259
0.992202
0.999901
0.999999
1
1
1
1
1
1
1
1
1
1
1
1
1
1
1
1
1
1
1
1
1
1
1
1
1
1
1
1
1
1
1
1
1
1
1
1
1
1
1
1
1
1
1
1
1
1
1
1
1
1
1
1
1
0.994783
1
1
1
1
1
1
1
0.312331
0.00380787
2.46423e-05
7.06974e-08
5.65617e-09
2.10741e-08
2.08108e-08
3.18302e-08
2.05026e-08
2.66866e-09
2.39392e-09
0.142307
0.807739
0.992244
0.999898
0.999999
1
1
1
1
1
1
1
1
1
1
1
1
1
1
1
1
1
1
1
1
1
1
1
1
1
1
1
1
1
1
1
1
1
1
1
1
1
1
1
1
1
1
1
1
1
1
1
1
1
1
1
1
1
1
1
0.962585
1
1
1
1
1
0.989041
0.035262
0.000278549
1.17535e-06
6.74664e-09
1.68362e-08
2.99639e-09
3.04983e-08
7.27765e-09
1.03253e-08
1.42111e-08
6.37347e-09
0.141978
0.807191
0.992182
0.999899
0.999999
1
1
1
1
1
1
1
1
1
1
1
1
1
1
1
1
1
1
1
1
1
1
1
1
1
1
1
1
1
1
1
1
1
1
1
1
1
1
1
1
1
1
1
1
1
1
1
1
1
1
1
1
1
1
1
0.999999
0.999973
1
1
1
1
1
0.296347
0.00292024
1.51823e-05
1.19222e-08
1.38556e-10
2.21967e-09
4.69156e-08
3.18046e-08
4.51192e-08
1.77649e-09
1.99692e-09
7.374e-11
0.141641
0.80639
0.992127
0.999898
0.999999
1
1
1
1
1
1
1
1
1
1
1
1
1
1
1
1
1
1
1
1
1
1
1
1
1
1
1
1
1
1
1
1
1
1
1
1
1
1
1
1
1
1
1
1
1
1
1
1
1
1
1
1
1
0.997234
1
0.959408
1
1
1
1
1
0.628942
0.984742
0.0283883
0.000178321
4.46914e-07
1.55553e-08
3.07981e-09
4.83583e-08
1.16477e-08
2.00298e-08
2.78735e-12
8.40826e-09
7.79494e-09
2.77286e-09
0.141309
0.805355
0.992035
0.999897
0.999999
1
1
1
1
1
1
1
1
1
1
1
1
1
1
1
1
1
1
1
1
1
1
1
1
1
1
1
1
1
1
1
1
1
1
1
1
1
1
1
1
1
1
1
1
1
1
1
1
1
1
1
1
1
1
1
0.998048
1
1
1
1
1
1
1
0.24372
0.00195667
7.47861e-06
1.18437e-09
8.79023e-09
1.50004e-08
1.39869e-08
3.22746e-08
2.03688e-08
2.28444e-08
3.05655e-09
2.52018e-09
2.48114e-08
0.140996
0.804356
0.991932
0.999895
0.999999
1
1
1
1
1
1
1
1
1
1
1
1
1
1
1
1
1
1
1
1
1
1
1
1
1
1
1
1
1
1
1
1
1
1
1
1
1
1
1
1
1
1
1
1
1
1
1
1
1
1
1
1
1
1
1
1
1
1
1
1
1
1
1
0.96431
0.019251
9.61225e-05
1.76496e-07
7.69083e-09
8.00869e-09
8.0637e-09
3.35802e-08
1.58155e-08
6.26493e-10
1.25337e-08
2.46581e-08
2.76161e-08
1.28375e-09
0.140663
0.803672
0.991834
0.999893
0.999999
1
1
1
1
1
1
1
1
1
1
1
1
1
1
1
1
1
1
1
1
1
1
1
1
1
1
1
1
1
1
1
1
1
1
1
1
1
1
1
1
1
1
1
1
1
1
1
1
1
1
1
1
1
1
1
1
1
1
1
1
1
1
1
0.998534
0.173367
0.0010878
3.10587e-06
2.69149e-09
1.29897e-08
2.84886e-10
1.31292e-08
1.08885e-08
1.58333e-08
1.99715e-10
6.95417e-09
1.69487e-08
2.84104e-09
1.54047e-08
0.140345
0.802775
0.991758
0.99989
0.999999
1
1
1
1
1
1
1
1
1
1
1
1
1
1
1
1
1
1
1
1
1
1
1
1
1
1
1
1
1
1
1
1
1
1
1
1
1
1
1
1
1
1
1
1
1
1
1
1
1
1
1
1
1
1
1
0.6601
1
1
1
1
1
1
1
0.999998
0.883326
0.0111158
4.19565e-05
6.05407e-08
2.16995e-08
4.38637e-09
1.58235e-08
9.66715e-09
1.05037e-08
1.95188e-08
1.91467e-08
1.42375e-08
3.48019e-08
1.62275e-08
5.90008e-09
0.140102
0.801922
0.991656
0.999889
0.999999
1
1
1
1
1
1
1
1
1
1
1
1
1
1
1
1
1
1
1
1
1
1
1
1
1
1
1
1
1
1
1
1
1
1
1
1
1
1
1
1
1
1
1
1
1
1
1
1
1
1
1
1
1
1
1
0.829482
1
1
1
1
1
1
1
1
0.98152
0.102177
0.000499236
1.04686e-06
8.44839e-09
1.13241e-09
7.63439e-09
3.8895e-08
1.16396e-08
1.47029e-08
3.7181e-08
3.91843e-08
1.97161e-09
1.24871e-08
6.53169e-10
4.60037e-09
0.139552
0.801238
0.991563
0.999886
0.999999
1
1
1
1
1
1
1
1
1
1
1
1
1
1
1
1
1
1
1
1
1
1
1
1
1
1
1
1
1
1
1
1
1
1
1
1
1
1
1
1
1
1
1
1
1
1
1
1
1
1
1
1
1
1
1
1
1
1
0.999872
1
0.999841
1
1
1
1
0.661794
0.00530306
1.45122e-05
5.58583e-08
3.31639e-09
2.9463e-08
4.90035e-09
1.46269e-09
5.64581e-09
2.66605e-08
1.34999e-08
3.25854e-08
1.87998e-08
5.14589e-09
4.48619e-08
5.19183e-09
0.126661
0.799802
0.99148
0.999884
0.999999
1
1
1
1
1
1
1
1
1
1
1
1
1
1
1
1
1
1
1
1
1
1
1
1
1
1
1
1
1
1
1
1
1
1
1
1
1
1
1
1
1
1
1
1
1
1
1
1
1
1
1
1
1
1
1
1
1
0.99997
1
1
1
1
1
1
1
0.999939
0.0480416
0.000184414
3.09127e-07
1.18172e-08
5.96616e-09
2.55466e-08
1.09468e-08
2.69844e-08
1.51963e-08
2.98218e-09
3.87144e-09
5.14539e-08
1.15087e-08
1.7821e-08
2.22229e-09
9.00844e-09
0.0128629
0.765866
0.99134
0.999882
0.999999
1
1
1
1
1
1
1
1
1
1
1
1
1
1
1
1
1
1
1
1
1
1
1
1
1
1
1
1
1
1
1
1
1
1
1
1
1
1
1
1
1
1
1
1
1
1
1
1
1
1
1
1
1
0.975741
1
1
1
1
1
1
1
1
1
1
1
1
0.3626
0.00198255
4.08197e-06
1.66886e-08
5.00748e-09
2.50745e-08
7.92306e-09
1.16889e-08
3.4835e-08
3.89051e-09
2.09561e-08
1.76375e-08
2.54677e-09
9.91238e-10
7.85651e-09
2.06225e-08
4.42555e-09
0.160865
0.202839
0.987552
0.999879
0.999999
1
1
1
1
1
1
1
1
1
1
1
1
1
1
1
1
1
1
1
1
1
1
1
1
1
1
1
1
1
1
1
1
1
1
1
1
1
1
1
1
1
1
1
1
1
1
1
1
1
1
1
1
1
1
1
1
1
1
1
1
1
1
1
1
1
1
0.990448
0.0183149
5.22308e-05
4.78194e-08
8.93284e-09
2.48277e-09
3.8862e-09
6.62854e-09
2.00844e-08
7.13194e-09
9.30098e-09
1.0074e-08
3.43219e-09
2.27733e-08
8.55007e-09
1.12722e-08
4.26711e-09
1.05398e-08
0.197526
0.786241
0.64027
0.999795
0.999999
1
1
1
1
1
1
1
1
1
1
1
1
1
1
1
1
1
1
1
1
1
1
1
1
1
1
1
1
1
1
1
1
1
1
1
1
1
1
1
1
1
1
1
1
1
1
1
1
1
1
1
1
1
1
1
1
1
1
1
1
1
1
1
1
1
1
0.993983
0.153255
0.00059126
7.87626e-07
5.80109e-10
3.07385e-09
8.45254e-09
8.96285e-09
3.24027e-09
7.30858e-09
1.69131e-08
2.86743e-08
9.06598e-09
1.76819e-08
6.63094e-11
4.85386e-09
1.76986e-08
6.19802e-10
2.14785e-09
0.198738
0.87912
0.972422
0.945801
0.999999
1
1
1
1
1
1
1
1
1
1
1
1
1
1
1
1
1
1
1
1
1
1
1
1
1
1
1
1
1
1
1
1
1
1
1
1
1
1
1
1
1
1
1
1
1
1
1
1
1
1
1
1
1
1
1
1
1
1
1
0.999994
1
1
1
1
1
1
1
0.81234
0.005841
1.11914e-05
3.68617e-09
5.61768e-09
6.07896e-09
4.97395e-09
1.27939e-08
4.47012e-09
3.20824e-08
4.45732e-08
6.94888e-08
4.62062e-09
1.33375e-09
1.95244e-08
5.3244e-10
9.71034e-09
6.11048e-10
7.35915e-09
0.201847
0.884782
0.994523
0.992407
0.997683
1
1
1
1
1
1
1
1
1
1
1
1
1
1
1
1
1
1
1
1
1
1
1
1
1
1
1
1
1
1
1
1
1
1
1
1
1
1
1
1
1
1
1
1
1
1
1
1
1
1
1
1
1
1
1
1
1
1
1
1
0.992332
0.995645
1
1
1
1
1
0.999999
0.0506766
0.000138704
1.06632e-07
2.30887e-08
6.42846e-09
7.43311e-09
7.44317e-11
7.62937e-09
1.39113e-08
3.77419e-10
5.71671e-09
2.74538e-08
8.05317e-09
1.73618e-08
1.90285e-09
1.54891e-08
1.0328e-08
5.21732e-09
3.42148e-09
0.206735
0.889248
0.995523
0.999744
0.987115
0.999968
1
1
1
1
1
1
1
1
1
1
1
1
1
1
1
1
1
1
1
1
1
1
1
1
1
1
1
1
1
1
1
1
1
1
1
1
1
1
1
1
1
1
1
1
1
1
1
1
1
1
1
1
1
1
1
1
1
1
1
1
1
1
1
1
1
1
1
0.373474
0.00145648
1.78017e-06
1.10709e-08
4.40891e-09
8.43369e-10
2.82892e-08
4.84409e-09
6.23581e-09
2.91071e-08
9.0397e-09
2.38185e-08
6.50664e-08
2.1665e-09
1.99522e-09
1.16952e-08
4.86594e-08
4.63343e-09
3.90805e-09
8.92974e-09
0.213342
0.895802
0.996038
0.999842
0.999972
0.985683
1
1
1
1
1
1
1
1
1
1
1
1
1
1
1
1
1
1
1
1
1
1
1
1
1
1
1
1
1
1
1
1
1
1
1
1
1
1
1
1
1
1
1
1
1
1
1
1
1
1
1
1
1
1
1
1
0.999648
1
1
1
1
1
1
1
1
1
1
0.989878
0.0133203
2.42267e-05
3.03197e-09
9.14384e-09
2.15667e-08
6.51588e-09
2.13325e-08
5.95352e-09
1.67282e-08
8.77475e-08
2.03883e-08
3.18005e-08
4.6634e-08
4.85998e-10
3.4448e-09
2.0679e-08
1.77219e-09
3.09643e-08
2.74905e-09
1.01017e-08
0.220205
0.903744
0.996589
0.999879
0.999988
0.999986
0.933885
1
1
1
1
1
1
1
1
1
1
1
1
1
1
1
1
1
1
1
1
1
1
1
1
1
1
1
1
1
1
1
1
1
1
1
1
1
1
1
1
1
1
1
1
1
1
1
1
1
1
1
1
1
1
1
1
1
1
1
1
1
1
1
1
1
1
0.573616
0.109499
0.000281029
1.34763e-07
1.76714e-08
2.23687e-08
1.83123e-08
1.81368e-08
2.66092e-08
7.34053e-09
1.68477e-08
6.40168e-08
1.00472e-08
2.17892e-08
1.6683e-08
1.43673e-08
7.25798e-09
1.27533e-09
5.29585e-08
2.05649e-09
8.37674e-09
5.64811e-09
0.228174
0.91154
0.99713
0.999906
0.999993
0.999996
0.999959
0.284805
1
1
1
1
1
1
1
1
1
1
1
1
1
1
1
1
1
1
1
1
1
1
1
1
1
1
1
1
1
1
1
1
1
1
1
1
1
1
1
1
1
1
1
1
1
1
1
1
1
1
1
1
1
1
0.999896
1
1
1
1
1
1
1
1
1
0.380551
1
0.666645
0.00280412
2.81196e-06
1.0446e-08
2.68618e-08
2.90212e-09
9.10029e-10
9.04757e-09
1.47035e-08
1.23267e-08
3.01118e-08
1.02734e-07
7.72732e-09
4.43123e-09
2.35788e-09
1.24451e-08
1.82095e-08
2.78649e-08
6.80381e-09
1.482e-08
4.1853e-09
5.92573e-09
0.236693
0.919703
0.997603
0.999928
0.999995
0.999998
0.999993
0.999539
0.887809
1
1
1
1
1
1
1
1
1
1
1
1
1
1
1
1
1
1
1
1
1
1
1
1
1
1
1
1
1
1
1
1
1
1
1
1
1
1
1
1
1
1
1
1
1
1
1
1
1
1
1
1
1
1
1
0.999995
0.999975
1
0.999999
1
1
1
1
1
1
0.999876
0.0247954
3.99937e-05
1.24776e-09
7.43713e-09
7.66096e-08
1.53292e-08
1.25353e-09
5.93807e-09
7.94198e-08
6.18327e-08
1.04196e-08
4.40286e-08
3.7684e-09
5.82907e-09
1.06056e-08
1.95927e-08
3.22229e-08
9.6094e-10
3.78148e-09
4.73814e-09
9.15141e-09
1.5388e-09
0.245557
0.927626
0.998037
0.999945
0.999996
0.999999
0.999997
0.999952
0.982691
0.995223
1
1
1
1
1
1
1
1
1
1
1
1
1
1
1
1
1
1
1
1
1
1
1
1
1
1
1
1
1
1
1
1
1
1
1
1
1
1
1
1
1
1
1
1
1
1
1
1
1
1
1
1
1
1
1
1
0.999999
1
1
1
1
1
1
1
1
0.188959
0.000450299
1.8606e-07
2.42048e-09
3.17073e-08
1.54908e-08
1.22126e-08
2.35914e-08
9.0111e-08
2.8492e-08
5.78135e-08
5.71954e-08
2.48855e-10
6.12528e-09
3.08627e-09
5.16193e-09
2.90905e-08
8.41015e-09
4.99484e-09
2.95679e-08
8.62661e-09
8.07249e-09
5.0696e-10
0.25514
0.934955
0.998413
0.999958
0.999997
0.999999
0.999998
0.999981
0.999371
0.845118
0.999575
1
1
1
1
1
1
1
1
1
1
1
1
1
1
1
1
1
1
1
1
1
1
1
1
1
1
1
1
1
1
1
1
1
1
1
1
1
1
1
1
1
1
1
1
1
1
1
1
1
1
1
1
1
1
1
1
0.999999
1
0.999937
1
1
1
1
1
0.847162
0.00423877
3.91621e-06
2.88989e-09
2.22888e-09
8.04778e-09
4.31428e-08
2.13992e-08
1.14863e-08
1.38777e-09
9.35696e-08
4.52023e-09
6.18382e-09
6.64073e-09
6.14498e-09
1.38144e-09
3.30792e-08
8.33611e-10
2.10311e-09
5.75734e-09
1.04076e-09
1.72554e-10
1.2882e-09
8.68824e-10
0.264785
0.942079
0.998721
0.999969
0.999998
0.999999
0.999999
0.99999
0.999769
0.992526
0.449817
0.999927
1
1
1
1
1
1
1
1
1
1
1
1
1
1
1
1
1
1
1
1
1
1
1
1
1
1
1
1
1
1
1
1
1
1
1
1
1
1
1
1
1
1
1
1
1
1
1
1
1
1
1
1
1
1
1
0.755007
1
1
1
1
1
1
1
1
0.0340592
5.28094e-05
4.21828e-08
1.18648e-08
7.73271e-09
4.32803e-08
5.33966e-09
1.18362e-08
3.47455e-09
7.37121e-08
3.39155e-08
9.52953e-09
2.94809e-08
2.00911e-09
2.00752e-08
7.17287e-08
5.74859e-09
9.68298e-09
3.48362e-08
4.78342e-09
1.65234e-08
2.11688e-09
6.50497e-10
0.274337
0.948603
0.998982
0.999977
0.999999
1
0.999999
0.999994
0.99989
0.997394
0.945469
0.174714
0.999983
1
1
1
1
1
1
1
1
1
1
1
1
1
1
1
1
1
1
1
1
1
1
1
1
1
1
1
1
1
1
1
1
1
1
1
1
1
1
1
1
1
1
1
1
1
1
1
1
1
1
1
1
1
1
1
1
1
1
1
1
1
1
0.483458
0.243273
0.00054372
1.98356e-07
2.07915e-08
1.18268e-08
1.42517e-08
2.19363e-10
1.06309e-08
2.9137e-08
4.51209e-09
5.81243e-09
1.31734e-09
1.09627e-08
1.57155e-08
1.90314e-08
6.22919e-08
1.12347e-08
5.82353e-09
9.02855e-10
2.06675e-08
8.03583e-09
4.89574e-08
2.71598e-09
0.283683
0.954326
0.999196
0.999983
0.999999
1
0.999999
0.999995
0.99993
0.998777
0.980562
0.778021
0.594332
0.999996
1
1
1
1
1
1
1
1
1
1
1
1
1
1
1
1
1
1
1
1
1
1
1
1
1
1
1
1
1
1
1
1
1
1
1
1
1
1
1
1
1
1
1
1
1
1
1
1
1
1
0.999998
1
1
1
1
1
1
1
1
1
1
1
0.916514
0.00474678
3.97674e-06
2.29071e-09
9.41176e-09
1.14206e-08
7.03252e-09
1.38855e-08
4.54787e-08
1.86082e-09
1.6074e-08
2.3383e-10
1.71955e-08
9.32101e-09
2.42301e-08
1.99374e-08
1.11235e-08
4.41366e-08
1.45581e-08
5.82096e-09
2.14765e-08
7.78599e-08
4.89819e-08
0.292746
0.959246
0.999364
0.999988
0.999999
1
0.999999
0.999996
0.999949
0.999238
0.990516
0.912522
0.466937
0.785377
0.999999
1
1
1
1
1
1
1
1
1
1
1
1
1
1
1
1
1
1
1
1
1
1
1
1
1
1
1
1
1
1
1
1
1
1
1
1
1
1
1
1
1
1
1
1
1
1
1
0.781775
1
0.999982
1
1
1
1
1
1
1
1
1
1
1
1
0.0376644
4.91632e-05
8.38054e-08
1.27586e-08
4.3312e-08
5.64012e-09
6.05755e-09
1.38215e-08
1.50928e-08
4.24345e-09
6.92239e-09
1.54701e-08
6.48696e-08
4.18098e-08
4.22388e-09
2.47825e-10
2.26826e-08
3.2904e-08
1.27471e-08
4.36017e-09
3.30509e-08
1.08463e-07
0.301483
0.963664
0.999494
0.999991
0.999999
1
1
0.999997
0.999959
0.99945
0.994049
0.953921
0.752931
0.123814
0.877302
1
1
1
1
1
1
1
1
1
1
1
1
1
1
1
1
1
1
1
1
1
1
1
1
1
1
1
1
1
1
1
1
1
1
1
1
1
1
1
1
1
1
1
1
1
1
1
1
1
0.997617
0.415159
1
0.999999
1
1
1
1
1
1
1
1
0.999965
0.245268
0.000493088
1.53831e-07
4.12309e-08
1.54566e-08
5.20863e-10
1.9054e-08
1.98728e-08
2.29449e-09
1.1499e-08
4.60535e-08
6.03625e-09
5.21707e-08
3.24013e-08
3.49672e-08
1.78025e-08
1.09766e-08
2.62193e-08
2.0973e-08
2.73388e-08
3.88169e-08
1.15277e-08
0.309829
0.967608
0.999597
0.999993
1
1
1
0.999997
0.999964
0.999565
0.995713
0.970091
0.855712
0.518023
0.1535
0.927644
1
1
1
1
1
1
1
1
1
1
1
1
1
1
1
1
1
1
1
1
1
1
1
1
1
1
1
1
1
1
1
1
1
1
1
1
1
1
1
1
1
1
1
1
1
1
0.999999
1
1
1
1
0.993766
1
1
1
0.999884
1
1
1
1
1
0.88529
0.00408836
3.15694e-06
5.32575e-08
2.85555e-08
2.28335e-08
5.06834e-08
2.3078e-09
1.07923e-08
1.02733e-08
1.07618e-08
2.07574e-08
9.11942e-09
1.01155e-08
7.9142e-08
7.35272e-09
2.32099e-08
2.18245e-09
1.96608e-08
3.66112e-08
2.50244e-08
4.95442e-08
0.317802
0.970957
0.999678
0.999995
1
1
1
0.999997
0.999968
0.999616
0.996614
0.978125
0.901339
0.685794
0.271179
0.35317
0.958115
1
1
1
1
1
1
1
1
1
1
1
1
1
1
1
1
1
1
1
1
1
1
1
1
1
1
1
1
1
1
1
1
1
1
1
1
1
1
1
1
1
1
1
1
1
1
1
1
1
1
0.940805
1
1
1
1
1
1
1
1
1
1
0.0285709
3.75293e-05
5.90239e-08
1.45988e-09
2.53616e-08
2.89213e-08
1.39164e-08
5.47898e-09
6.60077e-08
2.47714e-08
1.01647e-08
5.41761e-08
7.90765e-09
6.44116e-08
1.44984e-08
1.19256e-09
6.84479e-09
2.54977e-08
2.08706e-08
5.70949e-08
1.97052e-08
0.325363
0.973882
0.999742
0.999996
1
1
1
0.999998
0.999971
0.999659
0.997048
0.982583
0.925667
0.771229
0.477277
0.0573875
0.496732
0.977137
1
1
1
1
1
1
1
1
1
1
1
1
1
1
1
1
1
1
1
1
1
1
1
1
1
1
1
1
1
1
1
1
1
1
1
1
1
1
1
1
1
1
1
1
1
1
1
1
1
1
1
1
1
1
1
1
1
1
1
1
0.17898
0.000329032
8.53779e-08
3.94503e-08
2.35648e-10
2.67059e-09
1.34484e-08
1.49737e-08
1.97622e-08
1.61417e-08
5.595e-08
5.53789e-08
1.68191e-08
2.72149e-08
3.19717e-09
4.00551e-08
1.84844e-08
1.03748e-08
1.17846e-08
1.91609e-08
3.73049e-08
0.332554
0.97643
0.999792
0.999997
1
1
1
0.999998
0.999973
0.999693
0.997405
0.984896
0.939673
0.820764
0.595088
0.273317
0.11271
0.604364
0.988781
1
1
1
1
1
1
1
1
1
1
1
1
1
1
1
1
1
1
1
1
1
1
1
1
1
1
1
1
1
1
1
1
1
1
1
1
1
1
1
1
1
1
1
0.999999
0.99154
1
1
0.99064
0.428203
1
1
1
1
1
1
1
1
1
0.971001
0.77013
0.00246892
2.06002e-06
3.57093e-08
1.01243e-08
4.03905e-09
1.58068e-08
1.66255e-08
9.29302e-10
1.2156e-08
6.87434e-09
4.20854e-09
7.77363e-08
2.3449e-09
1.85061e-08
4.54963e-08
3.09535e-08
1.41165e-09
1.35748e-08
5.15988e-08
1.58363e-08
0.3395
0.978663
0.999831
0.999998
1
1
1
0.999998
0.999976
0.999718
0.99767
0.986787
0.947534
0.850762
0.669164
0.40717
0.0978225
0.246457
0.689811
0.99527
1
1
1
1
1
1
1
1
1
1
1
1
1
1
1
1
1
1
1
1
1
1
1
1
1
1
1
1
1
1
1
1
1
1
1
1
1
1
1
1
1
1
0.999989
1
1
1
0.999839
1
1
1
1
1
1
1
1
1
1
1
0.999893
0.017193
2.01142e-05
1.69691e-08
6.87342e-09
7.89523e-09
3.42801e-09
4.43653e-09
6.43092e-11
6.25064e-09
2.48432e-09
1.44291e-08
1.32721e-08
2.01222e-08
3.7217e-09
2.91042e-08
9.78865e-09
3.29801e-08
4.14579e-09
7.77193e-09
5.78011e-08
0.346295
0.980589
0.999863
0.999999
1
1
1
0.999998
0.999979
0.999743
0.997871
0.988164
0.953966
0.868808
0.716435
0.496963
0.234727
0.0457969
0.354109
0.760856
0.998388
1
1
1
1
1
1
1
1
1
1
1
1
1
1
1
1
1
1
1
1
1
1
1
1
1
1
1
1
1
1
1
1
1
1
1
1
1
1
0.984745
1
1
1
1
0.999992
1
0.999999
1
1
1
1
1
1
1
1
1
1
1
0.99998
0.106066
0.000158734
8.90593e-08
2.58609e-08
1.47729e-08
1.54597e-08
5.77177e-11
8.32295e-09
2.23263e-08
5.15017e-09
2.42859e-08
3.56645e-08
4.06126e-08
2.3113e-09
7.36075e-09
5.58889e-08
2.53469e-08
9.13432e-09
7.58586e-08
3.63545e-09
0.35312
0.982389
0.999888
0.999999
1
1
1
0.999999
0.999982
0.999771
0.998055
0.989188
0.958671
0.883805
0.746968
0.557003
0.3301
0.0876476
0.162598
0.444289
0.821836
0.99959
1
1
1
1
1
1
1
1
1
1
1
1
1
1
1
1
1
1
1
1
1
1
1
1
1
1
1
1
1
1
1
1
1
1
1
1
1
1
0.989644
1
0.0398633
1
0.999868
1
1
1
1
1
1
1
1
1
1
1
1
1
1
0.498405
0.001147
1.13027e-06
3.23891e-08
4.72345e-09
1.43552e-08
4.53358e-09
2.11662e-09
2.79463e-08
3.72591e-09
1.41651e-08
4.47065e-08
5.31793e-08
6.95099e-10
9.47335e-10
7.53378e-08
7.69068e-09
1.43661e-09
1.02159e-07
5.94456e-08
0.359999
0.984036
0.999909
0.999999
1
1
1
0.999999
0.999985
0.999803
0.998255
0.990095
0.962113
0.894829
0.772924
0.598359
0.396377
0.182483
0.0345931
0.25947
0.523735
0.873699
0.999929
1
1
1
1
1
1
1
1
1
1
1
1
1
1
1
1
1
1
1
1
1
1
1
1
1
1
1
1
1
1
1
1
1
1
1
1
1
1
1
0.994772
0.999997
1
1
0.663678
1
1
1
1
1
1
1
1
1
1
1
1
0.985667
0.00735287
8.6178e-06
8.86127e-10
7.78831e-09
9.75425e-09
2.01487e-08
3.09805e-09
3.96638e-09
2.71137e-08
3.81083e-09
1.7134e-08
5.4958e-08
3.6508e-08
1.41878e-08
7.60643e-08
2.44625e-08
4.66046e-08
5.8737e-08
1.202e-07
0.367123
0.985559
0.999926
0.999999
1
1
1
0.999999
0.999988
0.999837
0.998485
0.991057
0.965117
0.902887
0.792036
0.633936
0.444649
0.25013
0.0567489
0.136562
0.342457
0.596059
0.916898
0.999992
1
1
1
1
1
1
1
1
1
1
1
1
1
1
1
1
1
1
1
1
1
1
1
1
1
1
1
1
1
1
1
1
1
1
1
1
1
1
1
1
1
1
1
1
1
1
0.997328
1
1
1
1
1
1
1
1
1
0.0407179
5.68192e-05
7.36617e-08
4.46622e-09
3.30065e-08
1.40157e-08
1.31046e-08
2.85699e-08
1.00342e-08
1.77497e-08
1.29276e-08
1.12336e-08
3.70202e-08
1.89029e-08
2.75811e-08
3.35856e-08
7.76387e-08
1.48161e-08
1.18989e-07
0.374551
0.987023
0.99994
1
1
1
1
1
0.999991
0.99987
0.99872
0.992118
0.968182
0.909891
0.806318
0.660699
0.486536
0.301508
0.123479
0.0487935
0.223139
0.416527
0.664055
0.950628
1
1
1
1
1
1
1
1
1
1
1
1
1
1
1
1
1
1
1
1
1
1
1
1
1
1
1
1
1
1
1
1
1
1
1
1
1
1
1
1
1
1
1
1
1
1
1
1
1
1
1
1
1
1
1
1
0.203458
0.000348267
5.24318e-07
1.94185e-08
3.12953e-08
7.07411e-09
1.88736e-09
1.46383e-08
5.17682e-09
2.47547e-09
3.14145e-08
4.79673e-09
1.46359e-08
6.50372e-11
4.3043e-08
4.66565e-08
4.80197e-08
5.33023e-08
5.99042e-08
0.382375
0.988328
0.999952
1
1
1
1
1
0.999994
0.999898
0.998947
0.993197
0.9715
0.916844
0.818448
0.680728
0.518626
0.346437
0.17545
0.0154747
0.138763
0.299032
0.485224
0.728925
0.974488
1
1
1
1
1
1
1
1
1
1
1
1
1
1
1
1
1
1
1
1
1
1
1
1
1
1
1
1
1
1
1
1
1
1
1
1
1
1
1
1
1
1
1
1
1
1
1
1
1
1
1
1
1
1
0.999999
0.739146
0.00205391
2.72276e-06
2.52986e-09
6.65405e-09
2.15897e-08
1.56781e-08
2.70152e-09
2.56952e-08
1.45959e-08
4.25345e-08
4.40992e-09
1.71343e-08
8.37525e-10
5.37924e-08
3.22131e-08
3.87098e-09
1.02459e-07
3.46975e-09
0.390709
0.989562
0.999961
1
1
1
1
1
0.999995
0.999923
0.999157
0.994254
0.974881
0.924256
0.830446
0.697795
0.542659
0.380952
0.221051
0.0669627
0.0766941
0.217194
0.368141
0.550781
0.790394
0.989117
1
1
1
1
1
1
1
1
1
1
1
1
1
1
1
1
1
1
1
1
1
1
1
1
1
1
1
1
1
1
1
1
1
1
1
1
1
0.997847
1
1
1
1
1
1
1
1
1
1
1
1
1
1
1
1
0.99915
0.0115975
1.29633e-05
4.18347e-08
3.6409e-08
1.60271e-08
1.88924e-09
1.9278e-09
3.35584e-08
3.93895e-09
2.27028e-08
1.31127e-09
2.32816e-08
7.18059e-09
2.5146e-08
6.4413e-08
3.25193e-10
1.32121e-07
6.28141e-08
0.399612
0.990742
0.999969
1
1
1
1
1
0.999997
0.999944
0.999342
0.995248
0.978199
0.931854
0.843103
0.714538
0.563349
0.407158
0.256103
0.111982
0.0262208
0.15693
0.287498
0.432903
0.614837
0.847255
0.996425
1
1
1
1
1
1
1
1
1
1
1
1
1
1
1
1
1
1
1
1
1
1
1
1
1
1
1
1
1
1
1
1
1
1
1
1
1
1
1
1
0.989063
1
1
1
1
1
1
1
1
1
1
1
1
1
0.0597282
6.9446e-05
2.20582e-07
2.88582e-08
1.09559e-08
4.29762e-09
8.94967e-10
2.01095e-08
1.00478e-08
3.66311e-09
3.50734e-09
2.73267e-08
1.50069e-08
1.59483e-08
3.14189e-08
4.61608e-08
5.29895e-08
1.11969e-07
0.409081
0.99183
0.999976
1
1
1
1
1
0.999998
0.99996
0.999503
0.996166
0.981386
0.939303
0.855827
0.73191
0.583359
0.429664
0.28284
0.146513
0.0174292
0.107142
0.228115
0.352267
0.495476
0.678045
0.897465
0.999179
1
1
1
1
1
1
1
1
1
1
1
1
1
1
1
1
1
1
1
1
1
1
1
1
1
1
1
1
1
1
1
1
1
1
1
1
1
1
1
1
1
1
1
1
1
1
1
1
1
1
1
1
1
0.259717
0.000411912
7.43123e-07
1.17854e-08
9.55126e-09
2.42329e-08
6.7469e-09
2.35161e-08
2.60209e-08
7.33838e-09
2.31454e-08
2.50662e-08
4.58908e-10
1.71361e-08
4.37605e-08
2.56103e-08
6.35368e-08
8.76754e-08
0.419141
0.99283
0.999981
1
1
1
1
1
0.999999
0.999972
0.999634
0.996987
0.984436
0.946606
0.868555
0.749309
0.603768
0.451076
0.305773
0.172946
0.050941
0.0648557
0.178994
0.292986
0.414013
0.557192
0.740326
0.938511
0.999887
1
1
1
1
1
1
1
1
1
1
1
1
1
1
1
1
1
1
1
1
1
1
1
1
1
1
1
1
1
1
1
1
1
1
0.997367
1
1
1
1
1
1
1
1
1
1
1
1
1
1
1
1
1
0.751586
0.00236623
2.18862e-06