/*--------------------------------*- C++ -*----------------------------------*\
| =========                 |                                                 |
| \\      /  F ield         | OpenFOAM: The Open Source CFD Toolbox           |
|  \\    /   O peration     | Version:  v2012                                 |
|   \\  /    A nd           | Website:  www.openfoam.com                      |
|    \\/     M anipulation  |                                                 |
\*---------------------------------------------------------------------------*/
FoamFile
{
    version     2.0;
    format      ascii;
    class       volVectorField;
    location    "2000";
    object      U;
}
// * * * * * * * * * * * * * * * * * * * * * * * * * * * * * * * * * * * * * //

dimensions      [0 1 -1 0 0 0 0];


internalField   nonuniform List<vector> 
39402
(
(300.43 5.81129 0)
(57.3174 0.0588995 0)
(583.707 16.5003 0)
(34.2803 0.014102 0)
(160.795 0.202425 0)
(772.858 27.057 0)
(31.918 0.000240295 0)
(98.8948 0.0708763 0)
(257.572 0.573732 0)
(908.577 35.053 0)
(33.6565 -0.000217558 0)
(92.2256 0.000970211 0)
(160.992 0.153948 0)
(349.675 1.17876 0)
(1010.31 41.3614 0)
(35.0599 -0.00129613 0)
(97.0126 -0.00285546 0)
(150.262 0.00333242 0)
(221.614 0.255792 0)
(438.164 1.94758 0)
(1089 46.3447 0)
(35.9434 -0.00211678 0)
(100.831 -0.00534604 0)
(157.83 -0.00874054 0)
(206.991 0.00863908 0)
(281.555 0.382829 0)
(523.639 2.85509 0)
(1151.32 50.4195 0)
(36.4505 -2.02408e-05 0)
(103.199 -0.00687104 0)
(163.794 -0.0112938 0)
(217.174 -0.0173335 0)
(263.067 0.0179101 0)
(341.453 0.545902 0)
(606.382 3.897 0)
(1201.75 53.7007 0)
(36.6648 -0.000284322 0)
(104.552 -0.000233779 0)
(167.451 -0.0123395 0)
(225.083 -0.0192301 0)
(275.655 -0.02917 0)
(318.861 0.0326966 0)
(401.836 0.755674 0)
(686.55 5.08166 0)
(1243.28 56.386 0)
(36.7463 -0.000302936 0)
(105.093 -0.000982923 0)
(169.528 -0.000829009 0)
(229.891 -0.0191587 0)
(285.274 -0.0288391 0)
(333.435 -0.0445181 0)
(374.518 0.0551642 0)
(463.112 1.01724 0)
(764.077 6.40743 0)
(1277.98 58.6224 0)
(36.6347 -0.000783402 0)
(105.27 -0.000881236 0)
(170.313 -0.00213657 0)
(232.605 -0.00193459 0)
(291.086 -0.0270036 0)
(344.416 -0.0399101 0)
(390.329 -0.0638438 0)
(430.059 0.0865081 0)
(525.612 1.34368 0)
(838.782 7.87446 0)
(1307.38 60.3878 0)
(36.4254 -0.000746446 0)
(104.923 -0.0016624 0)
(170.516 -0.00151194 0)
(233.577 -0.00379678 0)
(294.353 -0.00359714 0)
(351.02 -0.0356976 0)
(402.146 -0.0520619 0)
(446.006 -0.0845766 0)
(485.511 0.125971 0)
(589.56 1.74409 0)
(910.323 9.49979 0)
(1332.6 61.7518 0)
(36.1913 0.000155283 0)
(104.312 -0.00105956 0)
(169.899 -0.00192134 0)
(233.76 -0.00239206 0)
(295.461 -0.00568341 0)
(354.731 -0.00595091 0)
(409.247 -0.0448441 0)
(457.967 -0.0644846 0)
(500.231 -0.103275 0)
(541.207 0.17458 0)
(655.051 2.23215 0)
(978.29 11.2778 0)
(1354.39 62.7411 0)
(35.9378 0.000431271 0)
(103.631 0.000725393 0)
(168.869 -0.000539577 0)
(232.849 -0.00168068 0)
(295.586 -0.00353526 0)
(355.907 -0.0076785 0)
(413.247 -0.00889359 0)
(465.193 -0.0540771 0)
(511.53 -0.0763226 0)
(553.111 -0.116844 0)
(597.658 0.236039 0)
(722.041 2.81457 0)
(1042.17 13.2055 0)
(1373.46 63.355 0)
(35.6623 0.000293007 0)
(102.897 0.00154579 0)
(167.732 0.00167057 0)
(231.393 0.000505383 0)
(294.365 -0.000961387 0)
(355.94 -0.00524825 0)
(414.406 -0.00949538 0)
(469.297 -0.0120341 0)
(518.467 -0.0628447 0)
(562.768 -0.0856688 0)
(605.15 -0.119649 0)
(655.244 0.313142 0)
(790.306 3.50073 0)
(1101.59 15.3398 0)
(1390.25 63.6149 0)
(35.3938 0.000290493 0)
(102.104 0.00116309 0)
(166.505 0.00303791 0)
(229.79 0.00298827 0)
(292.48 0.00186938 0)
(354.406 0.000374461 0)
(414.314 -0.00657171 0)
(470.341 -0.0114763 0)
(522.466 -0.0149732 0)
(568.987 -0.0705021 0)
(612.166 -0.0915478 0)
(656.791 -0.0947721 0)
(714.269 0.418383 0)
(859.437 4.30359 0)
(1156.12 17.665 0)
(1405.15 63.4286 0)
(35.1243 7.7001e-05 0)
(101.332 0.00110245 0)
(165.189 0.00244565 0)
(228.064 0.00506008 0)
(290.416 0.00469769 0)
(352.107 0.003765 0)
(412.468 0.00239556 0)
(470.079 -0.00717257 0)
(523.291 -0.0136104 0)
(572.661 -0.0172372 0)
(617.15 -0.0760784 0)
(660.301 -0.0921507 0)
(708.209 -0.05394 0)
(774.768 0.572764 0)
(928.811 5.22743 0)
(1205.42 20.2029 0)
(1418.41 62.8395 0)
(34.8478 -0.000368005 0)
(100.556 0.000536955 0)
(163.905 0.0022336 0)
(226.223 0.00421574 0)
(288.197 0.00755577 0)
(349.594 0.00687521 0)
(409.787 0.00615786 0)
(467.937 0.00516302 0)
(522.816 -0.0076629 0)
(573.158 -0.0149933 0)
(620.21 -0.0186807 0)
(663.52 -0.0789106 0)
(707.443 -0.0814148 0)
(759.615 0.00840116 0)
(836.223 0.78745 0)
(997.585 6.27665 0)
(1249.4 22.9505 0)
(1430.32 61.6129 0)
(34.5684 -0.000357534 0)
(99.7612 -0.000496352 0)
(162.617 0.00144242 0)
(224.426 0.00380771 0)
(285.836 0.00645848 0)
(346.901 0.0105942 0)
(406.858 0.00961058 0)
(464.908 0.00911785 0)
(520.382 0.00873117 0)
(572.416 -0.00763995 0)
(620.239 -0.0161489 0)
(665.667 -0.0174532 0)
(708.433 -0.0767554 0)
(753.781 -0.05987 0)
(811.08 0.0995595 0)
(897.133 1.07771 0)
(1064.69 7.45638 0)
(1288.29 26.0163 0)
(1441.08 59.6998 0)
(34.3019 0.000207921 0)
(98.9626 3.71621e-05 0)
(161.298 4.90817e-05 0)
(222.622 0.00277485 0)
(283.533 0.00580911 0)
(344.046 0.00925325 0)
(403.726 0.0142077 0)
(461.598 0.0130331 0)
(517.038 0.0127276 0)
(569.689 0.0132881 0)
(619.142 -0.00663995 0)
(665.079 -0.01639 0)
(709.404 -0.014525 0)
(752.114 -0.0684211 0)
(799.491 -0.0219865 0)
(862.291 0.230755 0)
(956.524 1.4637 0)
(1128.88 8.76197 0)
(1322.4 29.4447 0)
(1450.98 56.5182 0)
(34.0461 7.2392e-05 0)
(98.1993 0.000516813 0)
(159.975 0.000611058 0)
(220.78 0.0012173 0)
(281.221 0.00454541 0)
(341.258 0.00830372 0)
(400.419 0.0126428 0)
(458.08 0.0184574 0)
(513.387 0.0172155 0)
(566.053 0.0172388 0)
(616.079 0.0191226 0)
(663.519 -0.0044959 0)
(708.063 -0.0136753 0)
(751.64 -0.00869789 0)
(794.748 -0.0517715 0)
(844.652 0.0383499 0)
(912.759 0.417825 0)
(1014.8 1.97415 0)
(1188.75 10.1796 0)
(1352.64 33.5694 0)
(1459.57 52.3646 0)
(33.7926 -7.12455e-05 0)
(97.462 0.000467276 0)
(158.713 0.00117755 0)
(218.934 0.00133059 0)
(278.864 0.00275767 0)
(338.462 0.00679875 0)
(397.187 0.0113403 0)
(454.372 0.0167157 0)
(509.525 0.0234793 0)
(562.086 0.0222077 0)
(612.135 0.0229877 0)
(660.073 0.0264251 0)
(705.954 -0.000964298 0)
(749.392 -0.00841799 0)
(792.563 0.00283759 0)
(836.5 -0.0234004 0)
(889.384 0.12689 0)
(962.835 0.666429 0)
(1072.2 2.63583 0)
(1243.02 11.7026 0)
(1377.89 38.0568 0)
(1466.74 48.3756 0)
(33.5378 0.000143538 0)
(96.7325 8.73812e-05 0)
(157.494 0.00128911 0)
(217.173 0.00234507 0)
(276.505 0.00279196 0)
(335.615 0.00478505 0)
(393.947 0.00958685 0)
(450.748 0.0149547 0)
(505.47 0.0214723 0)
(557.918 0.0293736 0)
(607.848 0.0281574 0)
(655.793 0.0302366 0)
(702.085 0.0353516 0)
(746.646 0.00471265 0)
(789.237 -0.000371014 0)
(832.346 0.021526 0)
(877.571 0.0198447 0)
(933.932 0.250582 0)
(1013.18 0.992672 0)
(1128.48 3.46724 0)
(1290.48 13.3335 0)
(1398.93 41.9185 0)
(1472.42 44.2964 0)
(33.292 0.000348608 0)
(96.0068 0.000703177 0)
(156.286 0.000736263 0)
(215.471 0.00245349 0)
(274.254 0.003928 0)
(332.77 0.00476443 0)
(390.656 0.00730024 0)
(447.116 0.0129764 0)
(501.503 0.019279 0)
(553.555 0.0269996 0)
(603.374 0.0361679 0)
(651.169 0.0353123 0)
(697.457 0.0392761 0)
(742.31 0.046375 0)
(785.764 0.0131145 0)
(827.77 0.0117379 0)
(871.171 0.0493456 0)
(918.182 0.0827433 0)
(978.542 0.419307 0)
(1063.79 1.41289 0)
(1183.24 4.47817 0)
(1330.63 14.9731 0)
(1416.79 45.637 0)
(1476.2 40.7339 0)
(33.054 0.000235281 0)
(95.2992 0.00124126 0)
(155.086 0.00166404 0)
(213.788 0.00172363 0)
(272.078 0.00396845 0)
(330.052 0.00601842 0)
(387.368 0.00722301 0)
(443.437 0.0103371 0)
(497.532 0.0169783 0)
(549.288 0.0243969 0)
(598.724 0.0334688 0)
(646.38 0.0441576 0)
(692.495 0.0438688 0)
(737.314 0.0504092 0)
(780.909 0.0600753 0)
(823.463 0.025217 0)
(865.165 0.0294652 0)
(909.24 0.0893391 0)
(958.541 0.172153 0)
(1023.38 0.647394 0)
(1114.17 1.95102 0)
(1235.79 5.65532 0)
(1363.89 16.6347 0)
(1432.08 48.5803 0)
(1478.46 37.8076 0)
(32.8185 0.000319052 0)
(94.6216 0.000814419 0)
(153.921 0.00242209 0)
(212.116 0.00300375 0)
(269.926 0.00309465 0)
(327.423 0.00585554 0)
(384.222 0.00859454 0)
(439.76 0.0102588 0)
(493.519 0.01402 0)
(545.023 0.021674 0)
(594.184 0.0303001 0)
(641.441 0.0410976 0)
(687.395 0.053496 0)
(732.009 0.0540742 0)
(775.516 0.0641204 0)
(818.026 0.0771766 0)
(859.904 0.0421307 0)
(901.599 0.0552148 0)
(946.738 0.145657 0)
(998.846 0.296778 0)
(1068.49 0.951109 0)
(1163.31 2.64341 0)
(1285.11 6.95334 0)
(1391.11 18.2368 0)
(1444.52 50.6756 0)
(1479.82 35.3081 0)
(32.5845 0.000734535 0)
(93.9498 0.00107128 0)
(152.801 0.0016796 0)
(210.494 0.00398835 0)
(267.792 0.0047369 0)
(324.825 0.00485169 0)
(381.178 0.00814334 0)
(436.238 0.0116652 0)
(489.511 0.0138881 0)
(540.723 0.0184793 0)
(589.658 0.0272012 0)
(636.629 0.0372392 0)
(682.163 0.0500351 0)
(726.599 0.0643988 0)
(769.858 0.0663417 0)
(812.202 0.0809041 0)
(853.811 0.0986041 0)
(895.247 0.0654143 0)
(937.242 0.0916718 0)
(983.863 0.224117 0)
(1039.29 0.468605 0)
(1113.83 1.34501 0)
(1210.61 3.54026 0)
(1329.89 8.29291 0)
(1413.17 19.9206 0)
(1454.16 51.9878 0)
(1480.7 32.6954 0)
(32.3553 0.000848985 0)
(93.2812 0.00227441 0)
(151.697 0.00210477 0)
(208.936 0.00298382 0)
(265.722 0.00592659 0)
(322.252 0.00688633 0)
(378.172 0.00702975 0)
(432.829 0.0108793 0)
(485.666 0.0153022 0)
(536.433 0.018155 0)
(585.108 0.0237453 0)
(631.838 0.0337412 0)
(677.071 0.045335 0)
(721.079 0.0604643 0)
(764.135 0.0772738 0)
(806.175 0.081077 0)
(847.512 0.101433 0)
(888.41 0.125528 0)
(929.649 0.0970666 0)
(972.274 0.142979 0)
(1020.82 0.332734 0)
(1080.05 0.703321 0)
(1159.2 1.83693 0)
(1256.7 4.69544 0)
(1368.73 9.57239 0)
(1430.54 21.6543 0)
(1461.46 52.8276 0)
(1481.31 30.1898 0)
(32.1343 0.000457058 0)
(92.6282 0.00260442 0)
(150.603 0.00401937 0)
(207.404 0.00354901 0)
(263.736 0.00469868 0)
(319.756 0.00824726 0)
(375.199 0.00947688 0)
(429.464 0.00968054 0)
(481.941 0.0141012 0)
(532.306 0.019545 0)
(580.569 0.0232173 0)
(627.043 0.0300404 0)
(672.013 0.0414379 0)
(715.712 0.0547363 0)
(758.328 0.0727813 0)
(800.131 0.0924862 0)
(841.089 0.0988412 0)
(881.58 0.12655 0)
(921.966 0.159448 0)
(963.269 0.139774 0)
(1006.88 0.214224 0)
(1057.83 0.482387 0)
(1121.22 1.02107 0)
(1204.2 2.43968 0)
(1301.7 6.13112 0)
(1400.29 10.7368 0)
(1443.95 23.5169 0)
(1466.92 52.9463 0)
(1481.74 27.7013 0)
(31.9178 0.000142828 0)
(92.0021 0.00155752 0)
(149.534 0.00455346 0)
(205.888 0.00619856 0)
(261.785 0.0054001 0)
(317.36 0.00686764 0)
(372.312 0.0109728 0)
(426.138 0.0125552 0)
(478.267 0.0128649 0)
(528.309 0.0178934 0)
(576.198 0.0244157 0)
(622.262 0.0292602 0)
(666.965 0.0375445 0)
(710.396 0.0504279 0)
(752.692 0.065802 0)
(794.036 0.0873111 0)
(834.71 0.110558 0)
(874.73 0.12033 0)
(914.535 0.157354 0)
(954.621 0.202309 0)
(996.275 0.197039 0)
(1041.27 0.312504 0)
(1095.09 0.687589 0)
(1162.77 1.44417 0)
(1247.93 3.19172 0)
(1344.21 7.79259 0)
(1424.19 11.7967 0)
(1454.04 25.5085 0)
(1471 51.9778 0)
(1481.98 25.0738 0)
(31.706 0.00027586 0)
(91.3885 0.000713643 0)
(148.51 0.00302889 0)
(204.413 0.00694877 0)
(259.86 0.00875285 0)
(315.011 0.0076984 0)
(369.542 0.00943173 0)
(422.908 0.0141309 0)
(474.639 0.0161635 0)
(524.372 0.0166555 0)
(571.962 0.0223245 0)
(617.652 0.0300437 0)
(661.941 0.0364498 0)
(705.107 0.0464588 0)
(747.124 0.0610093 0)
(788.131 0.078782 0)
(828.321 0.104501 0)
(867.993 0.1321 0)
(907.217 0.146436 0)
(946.512 0.195284 0)
(986.529 0.256676 0)
(1028.85 0.273625 0)
(1075.65 0.447183 0)
(1132.77 0.966766 0)
(1204.46 1.99 0)
(1289.57 4.16719 0)
(1382.17 9.51418 0)
(1441.29 12.8694 0)
(1461.58 27.7743 0)
(1474.07 50.3698 0)
(1482.09 21.7644 0)
(31.5032 0.000578315 0)
(90.7916 0.00107634 0)
(147.511 0.00175708 0)
(203.001 0.00490266 0)
(257.986 0.00969606 0)
(312.696 0.0117053 0)
(366.827 0.0103973 0)
(419.807 0.0123827 0)
(471.112 0.0177325 0)
(520.483 0.0203714 0)
(567.792 0.0211346 0)
(613.185 0.0274803 0)
(657.091 0.0365874 0)
(699.851 0.0449585 0)
(741.604 0.0570695 0)
(782.317 0.0734404 0)
(822.145 0.0940482 0)
(861.297 0.124871 0)
(900.097 0.157911 0)
(938.673 0.178314 0)
(977.643 0.242156 0)
(1017.84 0.325903 0)
(1061.17 0.375888 0)
(1110.22 0.63083 0)
(1170.96 1.34251 0)
(1245.77 2.66241 0)
(1329.58 5.44645 0)
(1413.41 10.9678 0)
(1453.29 14.0922 0)
(1467.17 30.3717 0)
(1476.3 48.7993 0)
(1482.21 18.1439 0)
(31.304 0.000574905 0)
(90.2166 0.00186746 0)
(146.541 0.00228084 0)
(201.624 0.0031635 0)
(256.197 0.00711264 0)
(310.448 0.0128238 0)
(364.158 0.0150424 0)
(416.77 0.0134896 0)
(467.726 0.0157287 0)
(516.703 0.0218458 0)
(563.679 0.0252522 0)
(608.792 0.0264195 0)
(652.394 0.033531 0)
(694.775 0.0441846 0)
(736.128 0.0550406 0)
(776.572 0.0696933 0)
(816.084 0.0880545 0)
(854.843 0.112027 0)
(893.075 0.149081 0)
(931.133 0.18893 0)
(969.221 0.217458 0)
(1008.07 0.300468 0)
(1048.73 0.414448 0)
(1093.45 0.512364 0)
(1145.19 0.879995 0)
(1209.58 1.83895 0)
(1285.86 3.47544 0)
(1367.83 7.05251 0)
(1436.69 11.9655 0)
(1461.76 15.4553 0)
(1471.27 32.8016 0)
(1477.81 47.303 0)
(1482.41 14.4106 0)
(31.1055 0.000317536 0)
(89.6585 0.00189067 0)
(145.612 0.0034158 0)
(200.293 0.00386112 0)
(254.455 0.00491391 0)
(308.301 0.00966268 0)
(361.565 0.0163111 0)
(413.787 0.0187574 0)
(464.41 0.0169618 0)
(513.072 0.0194647 0)
(559.677 0.0265074 0)
(604.463 0.0308898 0)
(647.779 0.0326697 0)
(689.861 0.040577 0)
(730.838 0.0530232 0)
(770.885 0.0669702 0)
(810.118 0.0846566 0)
(848.533 0.105259 0)
(886.334 0.133255 0)
(923.762 0.177941 0)
(961.217 0.226391 0)
(998.985 0.265812 0)
(1037.93 0.373503 0)
(1079.36 0.528275 0)
(1125.88 0.694509 0)
(1180.68 1.21561 0)
(1248.25 2.47802 0)
(1323.76 4.50385 0)
(1402.28 8.83364 0)
(1452.44 12.5078 0)
(1467.87 16.9909 0)
(1474.2 34.9325 0)
(1478.77 45.5587 0)
(1482.76 10.9513 0)
(30.9078 0.000116789 0)
(89.1002 0.00121352 0)
(144.712 0.00350895 0)
(199.018 0.00535032 0)
(252.773 0.00579702 0)
(306.213 0.00698891 0)
(359.089 0.0125553 0)
(410.888 0.0201858 0)
(461.158 0.0228606 0)
(509.518 0.0208329 0)
(555.833 0.0236258 0)
(600.248 0.031751 0)
(643.238 0.0374698 0)
(685.039 0.0400036 0)
(725.718 0.0487842 0)
(765.389 0.0633741 0)
(804.226 0.0810575 0)
(842.344 0.10237 0)
(879.765 0.125568 0)
(916.716 0.158395 0)
(953.465 0.212444 0)
(990.462 0.271806 0)
(1028.1 0.325891 0)
(1067.39 0.465674 0)
(1109.93 0.675501 0)
(1158.66 0.937489 0)
(1216.72 1.66174 0)
(1286.26 3.25674 0)
(1359.81 5.86962 0)
(1430.39 10.4237 0)
(1462.56 12.8531 0)
(1472.38 18.77 0)
(1476.04 36.7584 0)
(1479.43 43.2366 0)
(1483.15 7.91214 0)
(30.721 9.46188e-05 0)
(88.5487 0.000668316 0)
(143.817 0.00254077 0)
(197.789 0.00553918 0)
(251.167 0.00765978 0)
(304.199 0.00806721 0)
(356.685 0.00937921 0)
(408.123 0.0157902 0)
(457.996 0.0244405 0)
(506.033 0.0273592 0)
(552.071 0.0251243 0)
(596.199 0.0282463 0)
(638.813 0.0377875 0)
(680.297 0.0450765 0)
(720.701 0.0485516 0)
(760.074 0.058383 0)
(798.532 0.0754968 0)
(836.25 0.0977649 0)
(873.35 0.123308 0)
(909.88 0.149595 0)
(946.092 0.188284 0)
(982.291 0.253832 0)
(1018.99 0.327132 0)
(1056.69 0.401036 0)
(1096.6 0.582844 0)
(1140.62 0.866996 0)
(1191.95 1.26093 0)
(1253.1 2.2414 0)
(1322.68 4.18375 0)
(1393.98 7.60019 0)
(1450.54 11.4329 0)
(1469.2 13.1737 0)
(1475.65 20.7575 0)
(1477.06 38.3726 0)
(1479.91 40.426 0)
(1483.41 5.57543 0)
(30.5527 0.000235629 0)
(88.0288 0.000579276 0)
(142.935 0.00173015 0)
(196.571 0.00428357 0)
(249.622 0.00794293 0)
(302.278 0.0103159 0)
(354.368 0.0106584 0)
(405.439 0.0120885 0)
(454.981 0.0193744 0)
(502.646 0.0290836 0)
(548.389 0.0322823 0)
(592.239 0.0298622 0)
(634.564 0.033451 0)
(675.678 0.0446202 0)
(715.775 0.0537981 0)
(754.873 0.0585378 0)
(793.027 0.0695988 0)
(830.361 0.0897275 0)
(867.051 0.117367 0)
(903.229 0.148009 0)
(938.973 0.178109 0)
(974.563 0.223972 0)
(1010.35 0.303649 0)
(1046.91 0.394852 0)
(1084.9 0.495621 0)
(1125.74 0.732948 0)
(1171.62 1.11755 0)
(1225.82 1.68934 0)
(1289.29 2.96764 0)
(1357.08 5.33083 0)
(1424.05 9.53312 0)
(1463.21 11.8285 0)
(1473.91 13.5065 0)
(1477.85 22.8911 0)
(1477.72 39.5286 0)
(1480.23 36.9099 0)
(1483.52 3.93011 0)
(30.3886 0.000498929 0)
(87.562 0.000980197 0)
(142.107 0.00154236 0)
(195.375 0.00319643 0)
(248.094 0.00641174 0)
(300.433 0.0107112 0)
(352.157 0.0132988 0)
(402.853 0.0135563 0)
(452.056 0.0151281 0)
(499.418 0.0233393 0)
(544.806 0.0341427 0)
(588.367 0.0376636 0)
(630.412 0.0351688 0)
(671.241 0.0393114 0)
(710.974 0.052444 0)
(749.773 0.0638632 0)
(787.652 0.0701664 0)
(824.674 0.0827207 0)
(860.971 0.106444 0)
(896.723 0.140457 0)
(932.076 0.177166 0)
(967.14 0.212056 0)
(1002.23 0.266797 0)
(1037.75 0.363877 0)
(1074.37 0.478237 0)
(1112.89 0.615427 0)
(1154.98 0.926567 0)
(1203.1 1.44624 0)
(1260.14 2.24934 0)
(1324.36 3.83341 0)
(1389.71 6.83704 0)
(1447.39 11.1856 0)
(1470.84 11.9145 0)
(1477.07 13.9121 0)
(1479.27 25.0584 0)
(1478.25 40.5232 0)
(1480.41 33.0518 0)
(1483.59 2.86066 0)
(30.225 0.000597094 0)
(87.11 0.00169527 0)
(141.364 0.00214468 0)
(194.256 0.00288111 0)
(246.6 0.0050525 0)
(298.614 0.00890014 0)
(350.039 0.0138108 0)
(400.386 0.016581 0)
(449.238 0.0167609 0)
(496.285 0.0185232 0)
(541.391 0.0277264 0)
(584.6 0.0396462 0)
(626.352 0.0435954 0)
(666.911 0.0411061 0)
(706.364 0.0459156 0)
(744.803 0.0613511 0)
(782.386 0.0754311 0)
(819.128 0.0836809 0)
(855.103 0.0980913 0)
(890.449 0.126102 0)
(925.354 0.167628 0)
(959.982 0.211555 0)
(994.478 0.252623 0)
(1029.2 0.318468 0)
(1064.6 0.437081 0)
(1101.48 0.581541 0)
(1140.81 0.768124 0)
(1184.51 1.17778 0)
(1235.15 1.87765 0)
(1294.46 2.96321 0)
(1357.24 4.8736 0)
(1419.72 8.66283 0)
(1462.92 12.16 0)
(1475.46 11.9047 0)
(1479.02 14.6094 0)
(1479.8 27.2822 0)
(1478.66 40.414 0)
(1480.62 28.5737 0)
(1483.65 2.07233 0)
(30.061 0.000574871 0)
(86.6599 0.00196906 0)
(140.65 0.00325665 0)
(193.255 0.00368785 0)
(245.203 0.00458544 0)
(296.84 0.00725851 0)
(347.955 0.0117118 0)
(398.025 0.0172084 0)
(446.548 0.0201333 0)
(493.27 0.0202672 0)
(538.079 0.0223053 0)
(581.013 0.0325702 0)
(622.404 0.0456626 0)
(662.682 0.0501518 0)
(701.867 0.0477434 0)
(740.03 0.0535268 0)
(777.256 0.071532 0)
(813.705 0.0887185 0)
(849.392 0.0993815 0)
(884.403 0.116114 0)
(918.883 0.149228 0)
(953.033 0.199554 0)
(987.037 0.252175 0)
(1021.08 0.301289 0)
(1055.57 0.381167 0)
(1091.04 0.526612 0)
(1128.39 0.71046 0)
(1168.83 0.963906 0)
(1214.49 1.50478 0)
(1267.7 2.43724 0)
(1327.91 3.8294 0)
(1388.26 6.20649 0)
(1444.62 10.5417 0)
(1471.89 12.5644 0)
(1478.21 11.9458 0)
(1480.37 15.6479 0)
(1479.89 29.6215 0)
(1478.91 39.96 0)
(1481.03 23.4627 0)
(1483.73 1.51539 0)
(29.9059 0.000437409 0)
(86.2081 0.00191062 0)
(139.942 0.00371218 0)
(192.295 0.00523026 0)
(243.957 0.00558118 0)
(295.183 0.00660936 0)
(345.924 0.00979091 0)
(395.706 0.0148256 0)
(443.977 0.0208778 0)
(490.387 0.0239517 0)
(534.891 0.0241012 0)
(577.544 0.0265036 0)
(618.653 0.0379198 0)
(658.566 0.0522442 0)
(697.481 0.0573659 0)
(735.379 0.0552581 0)
(772.331 0.0622307 0)
(808.423 0.0832072 0)
(843.815 0.10398 0)
(878.526 0.117607 0)
(912.656 0.137267 0)
(946.357 0.176447 0)
(979.847 0.23705 0)
(1013.34 0.30022 0)
(1047.06 0.359888 0)
(1081.46 0.457705 0)
(1117.17 0.636861 0)
(1155.26 0.872524 0)
(1197.14 1.21629 0)
(1245.04 1.9303 0)
(1300.38 3.15004 0)
(1359.52 4.83859 0)
(1417.48 7.89912 0)
(1462.26 11.8928 0)
(1476.59 12.6593 0)
(1480 12.0978 0)
(1481.25 16.9744 0)
(1479.85 31.9791 0)
(1479.01 39.2263 0)
(1481.67 18.3018 0)
(1483.81 1.09086 0)
(29.7682 0.000270786 0)
(85.7843 0.00154188 0)
(139.236 0.00364644 0)
(191.349 0.00590354 0)
(242.766 0.0075815 0)
(293.708 0.00778054 0)
(344.03 0.00892741 0)
(393.451 0.0126228 0)
(441.455 0.0182311 0)
(487.632 0.0248115 0)
(531.844 0.0280411 0)
(574.205 0.0282799 0)
(615.032 0.0311876 0)
(654.657 0.0438617 0)
(693.213 0.0594157 0)
(730.847 0.0653939 0)
(767.534 0.0638516 0)
(803.352 0.0723229 0)
(838.387 0.0966056 0)
(872.798 0.121514 0)
(906.613 0.138791 0)
(939.945 0.16212 0)
(972.956 0.20849 0)
(1005.88 0.281089 0)
(1038.97 0.357184 0)
(1072.49 0.430746 0)
(1106.97 0.55169 0)
(1143.14 0.773669 0)
(1182.24 1.07798 0)
(1225.89 1.54288 0)
(1276.1 2.4795 0)
(1332.43 4.01525 0)
(1389.32 6.08883 0)
(1442.81 9.78416 0)
(1472.5 12.5238 0)
(1479.17 12.6903 0)
(1481.1 12.3022 0)
(1481.55 18.6615 0)
(1479.75 33.5833 0)
(1479.16 37.8147 0)
(1482.35 13.4296 0)
(1483.87 0.761242 0)
(29.638 0.000150882 0)
(85.4094 0.00107695 0)
(138.576 0.00306595 0)
(190.408 0.00583282 0)
(241.597 0.00849449 0)
(292.3 0.0102702 0)
(342.345 0.0102608 0)
(391.347 0.0115067 0)
(439.006 0.0157319 0)
(484.937 0.0218841 0)
(528.93 0.028994 0)
(571.008 0.0324214 0)
(611.549 0.0328387 0)
(650.887 0.036449 0)
(689.159 0.050426 0)
(726.439 0.0672761 0)
(762.867 0.0743563 0)
(798.419 0.073696 0)
(833.176 0.0840594 0)
(867.228 0.112031 0)
(900.735 0.141677 0)
(933.734 0.163431 0)
(966.35 0.191363 0)
(998.763 0.246235 0)
(1031.23 0.33287 0)
(1064.03 0.424892 0)
(1097.5 0.516779 0)
(1132.23 0.66781 0)
(1169.09 0.944836 0)
(1209.51 1.34046 0)
(1255.19 1.96608 0)
(1307.39 3.17621 0)
(1362.91 5.02707 0)
(1417.43 7.6652 0)
(1461.65 11.4232 0)
(1477.53 12.6743 0)
(1480.67 12.6795 0)
(1481.77 12.7069 0)
(1481.38 20.7712 0)
(1479.56 35.0458 0)
(1479.41 35.5951 0)
(1482.91 9.21258 0)
(1483.92 0.509366 0)
(29.5083 0.000167422 0)
(85.0548 0.000765385 0)
(137.996 0.00232645 0)
(189.534 0.00500292 0)
(240.439 0.00842139 0)
(290.923 0.0114503 0)
(340.739 0.0132661 0)
(389.472 0.0129722 0)
(436.717 0.0143112 0)
(482.321 0.0191208 0)
(526.083 0.0258202 0)
(567.957 0.0334182 0)
(608.208 0.0371162 0)
(647.258 0.0378887 0)
(685.248 0.0423486 0)
(722.25 0.0577077 0)
(758.328 0.0759444 0)
(793.624 0.0844137 0)
(828.112 0.0850718 0)
(861.882 0.0977625 0)
(895.025 0.129823 0)
(927.703 0.164922 0)
(959.965 0.192127 0)
(991.953 0.225834 0)
(1023.86 0.290749 0)
(1055.98 0.393873 0)
(1088.62 0.505667 0)
(1122.19 0.621705 0)
(1157.37 0.812143 0)
(1195.17 1.16081 0)
(1237.22 1.67794 0)
(1285.03 2.51101 0)
(1338.17 4.02508 0)
(1391.58 6.23707 0)
(1442.39 9.53808 0)
(1472.91 12.3212 0)
(1479.91 12.6048 0)
(1481.58 12.674 0)
(1482.2 13.334 0)
(1481.07 23.3037 0)
(1479.49 35.34 0)
(1479.8 32.2872 0)
(1483.32 5.92996 0)
(1483.95 0.322918 0)
(29.3721 0.000214814 0)
(84.7068 0.000828089 0)
(137.451 0.00186804 0)
(188.769 0.00396006 0)
(239.365 0.00731976 0)
(289.564 0.0113887 0)
(339.173 0.0147323 0)
(387.688 0.0165284 0)
(434.673 0.015901 0)
(479.87 0.0173592 0)
(523.324 0.0227652 0)
(564.976 0.03007 0)
(605.021 0.038113 0)
(643.777 0.0421869 0)
(681.485 0.0434669 0)
(718.208 0.0489746 0)
(754.013 0.065821 0)
(788.962 0.0855534 0)
(823.198 0.0957597 0)
(856.692 0.0982772 0)
(889.547 0.113799 0)
(921.853 0.1504 0)
(953.779 0.191774 0)
(985.386 0.225601 0)
(1016.83 0.266535 0)
(1048.34 0.343357 0)
(1080.21 0.465955 0)
(1112.83 0.602408 0)
(1146.67 0.750279 0)
(1182.51 0.992714 0)
(1221.56 1.43543 0)
(1265.49 2.11307 0)
(1315.12 3.20258 0)
(1367.52 5.01711 0)
(1418.61 7.75467 0)
(1461.6 11.2893 0)
(1478.27 12.6082 0)
(1481.16 12.5183 0)
(1482.12 12.6871 0)
(1482.36 14.1398 0)
(1480.69 25.9997 0)
(1479.47 35.2662 0)
(1480.4 27.6627 0)
(1483.59 3.57127 0)
(1483.97 0.195578 0)
(29.2377 0.000253866 0)
(84.3403 0.000974481 0)
(136.916 0.00200514 0)
(188.053 0.003358 0)
(238.43 0.00594538 0)
(288.308 0.00996881 0)
(337.633 0.0146765 0)
(385.955 0.0182921 0)
(432.733 0.0200168 0)
(477.68 0.0190102 0)
(520.731 0.0206996 0)
(562.09 0.0266832 0)
(601.913 0.0346172 0)
(640.458 0.0431614 0)
(677.871 0.0476514 0)
(714.322 0.0496496 0)
(749.849 0.0564624 0)
(784.529 0.0748803 0)
(818.419 0.0962706 0)
(851.663 0.108623 0)
(884.235 0.113661 0)
(916.245 0.132589 0)
(947.786 0.174261 0)
(979.038 0.222888 0)
(1010.07 0.264748 0)
(1041.07 0.314679 0)
(1072.28 0.405705 0)
(1104.03 0.551457 0)
(1136.77 0.71885 0)
(1171.06 0.908649 0)
(1207.82 1.21998 0)
(1248.4 1.78689 0)
(1294.29 2.67186 0)
(1344.74 4.04709 0)
(1395.1 6.19303 0)
(1442.92 9.54832 0)
(1473.4 12.4367 0)
(1480.53 12.6548 0)
(1481.88 12.3839 0)
(1482.35 12.6701 0)
(1482.11 15.4689 0)
(1480.35 28.7439 0)
(1479.47 35.1179 0)
(1481.24 22.0774 0)
(1483.74 2.13399 0)
(1483.98 0.114949 0)
(29.1111 0.000280752 0)
(83.9774 0.00107435 0)
(136.356 0.00227641 0)
(187.354 0.00360372 0)
(237.559 0.00521115 0)
(287.218 0.00823382 0)
(336.21 0.0129167 0)
(384.252 0.0182418 0)
(430.854 0.0220806 0)
(475.601 0.0237054 0)
(518.406 0.0222865 0)
(559.373 0.0242797 0)
(598.903 0.0309508 0)
(637.223 0.0395642 0)
(674.427 0.0485684 0)
(710.585 0.0535569 0)
(745.847 0.0565709 0)
(780.251 0.0649418 0)
(813.874 0.0850446 0)
(846.773 0.108305 0)
(879.092 0.123293 0)
(910.811 0.131625 0)
(942.046 0.154617 0)
(972.9 0.202019 0)
(1003.56 0.259042 0)
(1034.11 0.31065 0)
(1064.75 0.371771 0)
(1095.77 0.479865 0)
(1127.53 0.653427 0)
(1160.55 0.859812 0)
(1195.5 1.10487 0)
(1233.46 1.50795 0)
(1275.79 2.23756 0)
(1323.32 3.37756 0)
(1372.99 5.04046 0)
(1421.08 7.65316 0)
(1462.01 11.3324 0)
(1478.92 12.8963 0)
(1481.58 12.6118 0)
(1482.24 12.3072 0)
(1482.45 12.7655 0)
(1481.79 17.4104 0)
(1480.1 30.4275 0)
(1479.58 34.1348 0)
(1482.09 15.876 0)
(1483.84 1.27589 0)
(1483.99 0.0649826 0)
(29.0072 0.000303737 0)
(83.6382 0.00113603 0)
(135.804 0.00243227 0)
(186.623 0.00401291 0)
(236.711 0.00559626 0)
(286.204 0.00737552 0)
(334.977 0.0107854 0)
(382.681 0.0161367 0)
(429.01 0.0220546 0)
(473.595 0.026053 0)
(516.205 0.0275711 0)
(556.928 0.0257782 0)
(596.064 0.0280748 0)
(634.094 0.0356322 0)
(671.076 0.0449351 0)
(707.026 0.0543828 0)
(741.997 0.0600019 0)
(776.141 0.0643471 0)
(809.489 0.0745683 0)
(842.121 0.0964923 0)
(874.097 0.121899 0)
(905.559 0.140122 0)
(936.492 0.152624 0)
(967.025 0.18045 0)
(997.265 0.23439 0)
(1027.41 0.30121 0)
(1057.56 0.364626 0)
(1087.96 0.439677 0)
(1118.89 0.568484 0)
(1150.8 0.775803 0)
(1184.28 1.03161 0)
(1220.14 1.34967 0)
(1259.56 1.87441 0)
(1303.72 2.813 0)
(1351.87 4.23783 0)
(1399.53 6.21515 0)
(1444.56 9.38857 0)
(1473.95 12.5086 0)
(1481.06 13.0498 0)
(1482.09 12.6209 0)
(1482.41 12.2179 0)
(1482.4 13.0844 0)
(1481.45 19.8498 0)
(1479.86 32.1435 0)
(1479.84 32.4636 0)
(1482.81 10.2503 0)
(1483.91 0.730954 0)
(1483.99 0.0348009 0)
(28.9226 0.000214727 0)
(83.3627 0.00117614 0)
(135.289 0.00249196 0)
(185.905 0.00423354 0)
(235.827 0.0061733 0)
(285.222 0.00792644 0)
(333.835 0.00980279 0)
(381.321 0.0135311 0)
(427.309 0.0195617 0)
(471.629 0.0260665 0)
(514.085 0.0302247 0)
(554.612 0.0315601 0)
(593.504 0.029513 0)
(631.133 0.0322038 0)
(667.836 0.0407729 0)
(703.564 0.0507625 0)
(738.331 0.0607273 0)
(772.186 0.0671148 0)
(805.279 0.0731345 0)
(837.636 0.0855252 0)
(869.344 0.109449 0)
(900.462 0.137348 0)
(931.13 0.159503 0)
(961.348 0.177191 0)
(991.251 0.210753 0)
(1020.95 0.272257 0)
(1050.66 0.350554 0)
(1080.51 0.428315 0)
(1110.77 0.520733 0)
(1141.75 0.674955 0)
(1173.96 0.923758 0)
(1208.11 1.24271 0)
(1245.13 1.65731 0)
(1286.22 2.34215 0)
(1331.83 3.53322 0)
(1379.04 5.24416 0)
(1424.52 7.6671 0)
(1463.15 11.1602 0)
(1479.5 12.9886 0)
(1481.89 13.1108 0)
(1482.35 12.6112 0)
(1482.4 12.2079 0)
(1482.26 13.5327 0)
(1481.1 22.6272 0)
(1479.85 32.3923 0)
(1480.33 28.9831 0)
(1483.33 5.92392 0)
(1483.95 0.390621 0)
(1484 0.0174787 0)
(28.8497 0.000222356 0)
(83.1398 0.000900657 0)
(134.877 0.00248802 0)
(185.24 0.00428125 0)
(234.961 0.00646469 0)
(284.199 0.00869602 0)
(332.73 0.0105478 0)
(380.059 0.0124565 0)
(425.832 0.0164422 0)
(469.811 0.0231853 0)
(512.013 0.0302721 0)
(552.391 0.0346116 0)
(591.079 0.035698 0)
(628.458 0.0335157 0)
(664.763 0.0367458 0)
(700.22 0.0464158 0)
(734.768 0.0572016 0)
(768.42 0.0677108 0)
(801.225 0.0749878 0)
(833.329 0.0831253 0)
(864.762 0.0980425 0)
(895.61 0.124189 0)
(925.933 0.155006 0)
(955.876 0.181935 0)
(985.447 0.205919 0)
(1014.79 0.246307 0)
(1044.04 0.316691 0)
(1073.41 0.408527 0)
(1103.05 0.503708 0)
(1133.27 0.617838 0)
(1164.43 0.803649 0)
(1197.12 1.10411 0)
(1232.16 1.50432 0)
(1270.61 2.04621 0)
(1313.4 2.93474 0)
(1359.39 4.40473 0)
(1404.59 6.43111 0)
(1447.08 9.38501 0)
(1474.81 12.37 0)
(1481.46 13.0832 0)
(1482.27 13.1339 0)
(1482.4 12.6041 0)
(1482.36 12.1855 0)
(1482.11 14.4604 0)
(1480.71 25.7514 0)
(1479.87 32.291 0)
(1481.08 23.8327 0)
(1483.66 3.10087 0)
(1483.98 0.194791 0)
(1484 0.0083307 0)
(28.7705 0.000198416 0)
(82.9479 0.000930744 0)
(134.548 0.00196271 0)
(184.713 0.00417769 0)
(234.162 0.00646007 0)
(283.2 0.00906454 0)
(331.583 0.0115457 0)
(378.846 0.0133985 0)
(424.462 0.0152995 0)
(468.228 0.0195052 0)
(510.091 0.0269792 0)
(550.219 0.0346493 0)
(588.759 0.0391959 0)
(625.924 0.0400387 0)
(661.978 0.0377816 0)
(697.046 0.0417232 0)
(731.328 0.0526916 0)
(764.762 0.0643253 0)
(797.364 0.0754253 0)
(829.183 0.0837977 0)
(860.362 0.0945464 0)
(890.934 0.112394 0)
(920.984 0.14106 0)
(950.578 0.175304 0)
(979.864 0.207974 0)
(1008.86 0.239513 0)
(1037.72 0.288034 0)
(1066.59 0.368959 0)
(1095.7 0.476879 0)
(1125.24 0.593297 0)
(1155.55 0.734667 0)
(1187.05 0.960252 0)
(1220.41 1.32601 0)
(1256.6 1.83161 0)
(1296.65 2.54 0)
(1340.69 3.67343 0)
(1385.53 5.41372 0)
(1428.64 7.87879 0)
(1464.89 11.1223 0)
(1480.08 12.8802 0)
(1482.12 13.0502 0)
(1482.38 13.0672 0)
(1482.4 12.5909 0)
(1482.3 12.2305 0)
(1481.9 16.2578 0)
(1480.45 27.9505 0)
(1479.97 31.918 0)
(1481.95 17.2111 0)
(1483.82 1.53375 0)
(1483.99 0.0938057 0)
(1484 0.00373187 0)
(28.6845 0.00020211 0)
(82.7419 0.000875529 0)
(134.267 0.00206263 0)
(184.297 0.00335383 0)
(233.535 0.00622482 0)
(282.279 0.00898666 0)
(330.467 0.0119865 0)
(377.59 0.0146747 0)
(423.152 0.0164342 0)
(466.759 0.0182841 0)
(508.41 0.022689 0)
(548.204 0.0308798 0)
(586.492 0.039197 0)
(623.506 0.0439783 0)
(659.341 0.0446177 0)
(694.159 0.0423851 0)
(728.056 0.0472544 0)
(761.234 0.0596973 0)
(793.618 0.072285 0)
(825.232 0.084063 0)
(856.127 0.0937829 0)
(886.446 0.107659 0)
(916.216 0.128898 0)
(945.533 0.160462 0)
(974.463 0.198756 0)
(1003.16 0.238284 0)
(1031.65 0.278786 0)
(1060.11 0.33703 0)
(1088.69 0.430616 0)
(1117.64 0.557778 0)
(1147.18 0.700179 0)
(1177.71 0.875927 0)
(1209.71 1.15225 0)
(1243.97 1.60166 0)
(1281.55 2.24384 0)