/*--------------------------------*- C++ -*----------------------------------*\
| =========                 |                                                 |
| \\      /  F ield         | OpenFOAM: The Open Source CFD Toolbox           |
|  \\    /   O peration     | Version:  v2012                                 |
|   \\  /    A nd           | Website:  www.openfoam.com                      |
|    \\/     M anipulation  |                                                 |
\*---------------------------------------------------------------------------*/
FoamFile
{
    version     2.0;
    format      ascii;
    class       volScalarField;
    location    "2000";
    object      V;
}
// * * * * * * * * * * * * * * * * * * * * * * * * * * * * * * * * * * * * * //

dimensions      [0 3 0 0 0 0 0];


internalField   nonuniform List<scalar> 
39402
(
5.01515e-10
5.24449e-10
5.06568e-10
5.45985e-10
5.29898e-10
5.14745e-10
5.68836e-10
5.49604e-10
5.3857e-10
5.26235e-10
5.92314e-10
5.71302e-10
5.57213e-10
5.50659e-10
5.41225e-10
6.16333e-10
5.94069e-10
5.78281e-10
5.68749e-10
5.66395e-10
5.59878e-10
6.41069e-10
6.17604e-10
6.00779e-10
5.89709e-10
5.84358e-10
5.85927e-10
5.82418e-10
6.66199e-10
6.41916e-10
6.2421e-10
6.12203e-10
6.05522e-10
6.04096e-10
6.09409e-10
6.08992e-10
6.91758e-10
6.66641e-10
6.48463e-10
6.35928e-10
6.28296e-10
6.25749e-10
6.2813e-10
6.3712e-10
6.39718e-10
7.17525e-10
6.917e-10
6.73144e-10
6.60366e-10
6.52586e-10
6.49119e-10
6.50513e-10
6.56529e-10
6.69285e-10
6.7492e-10
7.43569e-10
7.1683e-10
6.98096e-10
6.85304e-10
6.77466e-10
6.7411e-10
6.74707e-10
6.79936e-10
6.89566e-10
7.06051e-10
7.14793e-10
7.69983e-10
7.42212e-10
7.23027e-10
7.10421e-10
7.02915e-10
6.99671e-10
7.00619e-10
7.05181e-10
7.14223e-10
7.27493e-10
7.47699e-10
7.59652e-10
7.96444e-10
7.67923e-10
7.48199e-10
7.35555e-10
7.28472e-10
7.25929e-10
7.27066e-10
7.32171e-10
7.40733e-10
7.53568e-10
7.70614e-10
7.94532e-10
8.09929e-10
8.22949e-10
7.93559e-10
7.73632e-10
7.60876e-10
7.54115e-10
7.52275e-10
7.54361e-10
7.59906e-10
7.69016e-10
7.81595e-10
7.98352e-10
8.1912e-10
8.46973e-10
8.65821e-10
8.4952e-10
8.19252e-10
7.99038e-10
7.8645e-10
7.79889e-10
7.78521e-10
7.81684e-10
7.88346e-10
7.98268e-10
8.11458e-10
8.28039e-10
8.48706e-10
8.73324e-10
9.05165e-10
9.27746e-10
8.75957e-10
8.44917e-10
8.24395e-10
8.12011e-10
8.059e-10
8.05115e-10
8.08884e-10
8.16811e-10
8.28005e-10
8.42236e-10
8.59677e-10
8.80362e-10
9.05108e-10
9.33753e-10
9.69749e-10
9.96073e-10
9.02258e-10
8.704e-10
8.49693e-10
8.37334e-10
8.31882e-10
8.31741e-10
8.36446e-10
8.4526e-10
8.57953e-10
8.73694e-10
8.92294e-10
9.1399e-10
9.3902e-10
9.67876e-10
1.00083e-09
1.04116e-09
1.07146e-09
9.28325e-10
8.95697e-10
8.74779e-10
8.62726e-10
8.57598e-10
8.58426e-10
8.64033e-10
8.73967e-10
8.87831e-10
9.05305e-10
9.25676e-10
9.48824e-10
9.74859e-10
1.00422e-09
1.03744e-09
1.07482e-09
1.11969e-09
1.15442e-09
9.53968e-10
9.20708e-10
8.99636e-10
8.87825e-10
8.8332e-10
8.84925e-10
8.91679e-10
9.02874e-10
9.17979e-10
9.36832e-10
9.59213e-10
9.84235e-10
1.01208e-09
1.04275e-09
1.07651e-09
1.11448e-09
1.15632e-09
1.20592e-09
1.24527e-09
9.79238e-10
9.45304e-10
9.24173e-10
9.12677e-10
9.08844e-10
9.11266e-10
9.1907e-10
9.31664e-10
9.48334e-10
9.68686e-10
9.92664e-10
1.01995e-09
1.04994e-09
1.08247e-09
1.11809e-09
1.15661e-09
1.19938e-09
1.24604e-09
1.30077e-09
1.34496e-09
1.00389e-09
9.69351e-10
9.48277e-10
9.37184e-10
9.34042e-10
9.37447e-10
9.46457e-10
9.60242e-10
9.78504e-10
1.00065e-09
1.02628e-09
1.05555e-09
1.08794e-09
1.12307e-09
1.16067e-09
1.20125e-09
1.24488e-09
1.29277e-09
1.34447e-09
1.40458e-09
1.45409e-09
1.02794e-09
9.92912e-10
9.71805e-10
9.61184e-10
9.58871e-10
9.63286e-10
9.73502e-10
9.88759e-10
1.00863e-09
1.03257e-09
1.06028e-09
1.09145e-09
1.12598e-09
1.1638e-09
1.20409e-09
1.24713e-09
1.29291e-09
1.34202e-09
1.3953e-09
1.45249e-09
1.51798e-09
1.57336e-09
1.05114e-09
1.0158e-09
9.94827e-10
9.84693e-10
9.83171e-10
9.88682e-10
1.00025e-09
1.01704e-09
1.03846e-09
1.0644e-09
1.09416e-09
1.12761e-09
1.16445e-09
1.20454e-09
1.24802e-09
1.29381e-09
1.34245e-09
1.39388e-09
1.44867e-09
1.50765e-09
1.57084e-09
1.64213e-09
1.7037e-09
1.07354e-09
1.03784e-09
1.01711e-09
1.00763e-09
1.00695e-09
1.01364e-09
1.02647e-09
1.04488e-09
1.06821e-09
1.09586e-09
1.1279e-09
1.16353e-09
1.20301e-09
1.24561e-09
1.29172e-09
1.341e-09
1.39275e-09
1.44723e-09
1.50464e-09
1.5655e-09
1.63058e-09
1.69999e-09
1.7777e-09
1.84594e-09
1.0949e-09
1.05909e-09
1.03868e-09
1.02981e-09
1.03016e-09
1.038e-09
1.05234e-09
1.07235e-09
1.0974e-09
1.12728e-09
1.1613e-09
1.19958e-09
1.24136e-09
1.28705e-09
1.3358e-09
1.38809e-09
1.44354e-09
1.5016e-09
1.56229e-09
1.6262e-09
1.69342e-09
1.76523e-09
1.84115e-09
1.92569e-09
2.00115e-09
1.11529e-09
1.07937e-09
1.05927e-09
1.05127e-09
1.05259e-09
1.06176e-09
1.07755e-09
1.09929e-09
1.12637e-09
1.15814e-09
1.19455e-09
1.23521e-09
1.27993e-09
1.32817e-09
1.38032e-09
1.43551e-09
1.49442e-09
1.55638e-09
1.62133e-09
1.68859e-09
1.75935e-09
1.8335e-09
1.91238e-09
1.99537e-09
2.08707e-09
2.17036e-09
1.13441e-09
1.09857e-09
1.07911e-09
1.07172e-09
1.07427e-09
1.08472e-09
1.10213e-09
1.1256e-09
1.15454e-09
1.18869e-09
1.22737e-09
1.2706e-09
1.31799e-09
1.36942e-09
1.42449e-09
1.48341e-09
1.54558e-09
1.61128e-09
1.68045e-09
1.75226e-09
1.8269e-09
1.90486e-09
1.98657e-09
2.07287e-09
2.16371e-09
2.26311e-09
2.35506e-09
1.15226e-09
1.11669e-09
1.09772e-09
1.09138e-09
1.09494e-09
1.10687e-09
1.12588e-09
1.15118e-09
1.18223e-09
1.21852e-09
1.25967e-09
1.30564e-09
1.35579e-09
1.41028e-09
1.46873e-09
1.53117e-09
1.59711e-09
1.66667e-09
1.73965e-09
1.81637e-09
1.89575e-09
1.97812e-09
2.06383e-09
2.1536e-09
2.24804e-09
2.34708e-09
2.45493e-09
2.55632e-09
1.16877e-09
1.13354e-09
1.11532e-09
1.10992e-09
1.11474e-09
1.12812e-09
1.14875e-09
1.17602e-09
1.20911e-09
1.24775e-09
1.29146e-09
1.34009e-09
1.39324e-09
1.45084e-09
1.51273e-09
1.57874e-09
1.64867e-09
1.72229e-09
1.79961e-09
1.88053e-09
1.96537e-09
2.05285e-09
2.14347e-09
2.23771e-09
2.3359e-09
2.43926e-09
2.54676e-09
2.66359e-09
2.77539e-09
1.18378e-09
1.14911e-09
1.13163e-09
1.12738e-09
1.13351e-09
1.14835e-09
1.1708e-09
1.19987e-09
1.23516e-09
1.27615e-09
1.32244e-09
1.37387e-09
1.4302e-09
1.49097e-09
1.55632e-09
1.62605e-09
1.69998e-09
1.77793e-09
1.85966e-09
1.94539e-09
2.03471e-09
2.1281e-09
2.22441e-09
2.32415e-09
2.42742e-09
2.53492e-09
2.64784e-09
2.76488e-09
2.8912e-09
3.01387e-09
1.19729e-09
1.16327e-09
1.14679e-09
1.14361e-09
1.15115e-09
1.16756e-09
1.19173e-09
1.22283e-09
1.26036e-09
1.30368e-09
1.35272e-09
1.4069e-09
1.46621e-09
1.53051e-09
1.59946e-09
1.67312e-09
1.75096e-09
1.83342e-09
1.91998e-09
2.01053e-09
2.10507e-09
2.20349e-09
2.30608e-09
2.41173e-09
2.52111e-09
2.63401e-09
2.75182e-09
2.8749e-09
3.00243e-09
3.13944e-09
3.27394e-09
1.20912e-09
1.17602e-09
1.16054e-09
1.15862e-09
1.16754e-09
1.18557e-09
1.21161e-09
1.24473e-09
1.28443e-09
1.33031e-09
1.38192e-09
1.43916e-09
1.50175e-09
1.56929e-09
1.64198e-09
1.71966e-09
1.80184e-09
1.88871e-09
1.97998e-09
2.07583e-09
2.17569e-09
2.27989e-09
2.38809e-09
2.50058e-09
2.61645e-09
2.73623e-09
2.85979e-09
2.98811e-09
3.12223e-09
3.26104e-09
3.40934e-09
3.55712e-09
1.21933e-09
1.18717e-09
1.17292e-09
1.17227e-09
1.18269e-09
1.20235e-09
1.2302e-09
1.26549e-09
1.3074e-09
1.3558e-09
1.41014e-09
1.47036e-09
1.53611e-09
1.60744e-09
1.68376e-09
1.7653e-09
1.85201e-09
1.9435e-09
2.03984e-09
2.14087e-09
2.24649e-09
2.35636e-09
2.47077e-09
2.5895e-09
2.7127e-09
2.83957e-09
2.97061e-09
3.10577e-09
3.24563e-09
3.39178e-09
3.54254e-09
3.70321e-09
3.86547e-09
1.22776e-09
1.19676e-09
1.18375e-09
1.18451e-09
1.19649e-09
1.21794e-09
1.24769e-09
1.28497e-09
1.32931e-09
1.38006e-09
1.43729e-09
1.5006e-09
1.56949e-09
1.64436e-09
1.72477e-09
1.81043e-09
1.90141e-09
1.99794e-09
2.09908e-09
2.20559e-09
2.3169e-09
2.43334e-09
2.55389e-09
2.67933e-09
2.80949e-09
2.94443e-09
3.08283e-09
3.2258e-09
3.37364e-09
3.52622e-09
3.68517e-09
3.84871e-09
4.02313e-09
4.20137e-09
1.23432e-09
1.2048e-09
1.19308e-09
1.19532e-09
1.20887e-09
1.23208e-09
1.26372e-09
1.3032e-09
1.34987e-09
1.40332e-09
1.4631e-09
1.52956e-09
1.60188e-09
1.6803e-09
1.76447e-09
1.85463e-09
1.95021e-09
2.0513e-09
2.15799e-09
2.26988e-09
2.38712e-09
2.50956e-09
2.63731e-09
2.76979e-09
2.90693e-09
3.04944e-09
3.19703e-09
3.34834e-09
3.50417e-09
3.66547e-09
3.8317e-09
4.00507e-09
4.1824e-09
4.37073e-09
4.56757e-09
1.23915e-09
1.21102e-09
1.20091e-09
1.2046e-09
1.21976e-09
1.24477e-09
1.27844e-09
1.31991e-09
1.36895e-09
1.42502e-09
1.48781e-09
1.55709e-09
1.63287e-09
1.71497e-09
1.80323e-09
1.89747e-09
1.99781e-09
2.10406e-09
2.2159e-09
2.33359e-09
2.457e-09
2.58592e-09
2.72028e-09
2.86024e-09
3.00549e-09
3.15557e-09
3.31101e-09
3.47222e-09
3.63769e-09
3.80772e-09
3.98329e-09
4.16407e-09
4.35301e-09
4.54545e-09
4.74977e-09
4.96529e-09
1.24202e-09
1.21562e-09
1.20697e-09
1.21242e-09
1.22927e-09
1.25597e-09
1.29162e-09
1.33537e-09
1.38662e-09
1.44528e-09
1.51089e-09
1.58347e-09
1.66254e-09
1.74834e-09
1.84059e-09
1.93928e-09
2.04428e-09
2.15547e-09
2.27304e-09
2.39653e-09
2.52613e-09
2.66163e-09
2.80324e-09
2.95058e-09
3.10358e-09
3.26243e-09
3.42664e-09
3.5965e-09
3.77216e-09
3.95261e-09
4.13807e-09
4.32974e-09
4.52632e-09
4.73128e-09
4.94092e-09
5.16189e-09
5.39828e-09
1.24308e-09
1.21843e-09
1.21149e-09
1.21849e-09
1.2371e-09
1.26579e-09
1.30324e-09
1.34918e-09
1.40292e-09
1.46409e-09
1.53265e-09
1.6082e-09
1.69074e-09
1.78027e-09
1.87656e-09
1.97964e-09
2.08949e-09
2.20581e-09
2.32865e-09
2.45843e-09
2.59444e-09
2.73687e-09
2.8855e-09
3.04052e-09
3.20179e-09
3.36932e-09
3.54249e-09
3.72203e-09
3.90736e-09
4.09859e-09
4.29563e-09
4.4974e-09
4.70624e-09
4.92095e-09
5.14299e-09
5.37125e-09
5.61081e-09
5.87039e-09
1.24221e-09
1.21944e-09
1.21423e-09
1.22302e-09
1.24334e-09
1.27376e-09
1.31342e-09
1.36137e-09
1.41744e-09
1.48129e-09
1.55264e-09
1.63122e-09
1.71744e-09
1.81047e-09
1.91091e-09
2.01844e-09
2.13307e-09
2.25468e-09
2.38344e-09
2.51892e-09
2.66151e-09
2.81107e-09
2.96715e-09
3.13014e-09
3.29989e-09
3.47602e-09
3.65924e-09
3.84797e-09
4.04394e-09
4.246e-09
4.45447e-09
4.66921e-09
4.88945e-09
5.11583e-09
5.35019e-09
5.59146e-09
5.83908e-09
6.09886e-09
6.38402e-09
1.23941e-09
1.21864e-09
1.21533e-09
1.22575e-09
1.24798e-09
1.28026e-09
1.32184e-09
1.37201e-09
1.4304e-09
1.49682e-09
1.57089e-09
1.65273e-09
1.74208e-09
1.83916e-09
1.94374e-09
2.05568e-09
2.17511e-09
2.30198e-09
2.43645e-09
2.5782e-09
2.72733e-09
2.88373e-09
3.04782e-09
3.21888e-09
3.39718e-09
3.58263e-09
3.77525e-09
3.97502e-09
4.1813e-09
4.39497e-09
4.61497e-09
4.84242e-09
5.07558e-09
5.31609e-09
5.5627e-09
5.81681e-09
6.07958e-09
6.34865e-09
6.62979e-09
6.94333e-09
1.23473e-09
1.21611e-09
1.21463e-09
1.22697e-09
1.25081e-09
1.28509e-09
1.32859e-09
1.38094e-09
1.44167e-09
1.51058e-09
1.58755e-09
1.67243e-09
1.7653e-09
1.8659e-09
1.97467e-09
2.09099e-09
2.21533e-09
2.3476e-09
2.48776e-09
2.63585e-09
2.7917e-09
2.95543e-09
3.12699e-09
3.30627e-09
3.49389e-09
3.68863e-09
3.89112e-09
4.10158e-09
4.31931e-09
4.5445e-09
4.77744e-09
5.01683e-09
5.26448e-09
5.51812e-09
5.78027e-09
6.0485e-09
6.32492e-09
6.61036e-09
6.90304e-09
7.20867e-09
7.5525e-09
1.22823e-09
1.21177e-09
1.21225e-09
1.22635e-09
1.25213e-09
1.28807e-09
1.33362e-09
1.38808e-09
1.45109e-09
1.52249e-09
1.60224e-09
1.69021e-09
1.78663e-09
1.89082e-09
2.00342e-09
2.12436e-09
2.25365e-09
2.39119e-09
2.53711e-09
2.69152e-09
2.85406e-09
3.02544e-09
3.20478e-09
3.39299e-09
3.58876e-09
3.79374e-09
4.00659e-09
4.22765e-09
4.45707e-09
4.69413e-09
4.93985e-09
5.1937e-09
5.45474e-09
5.7243e-09
6.0005e-09
6.2847e-09
6.57759e-09
6.87805e-09
7.18753e-09
7.50555e-09
7.83728e-09
8.21565e-09
1.21993e-09
1.2057e-09
1.2081e-09
1.22408e-09
1.25159e-09
1.2895e-09
1.33685e-09
1.39338e-09
1.45875e-09
1.53268e-09
1.61505e-09
1.70607e-09
1.80558e-09
1.91374e-09
2.03043e-09
2.15583e-09
2.28993e-09
2.43274e-09
2.58435e-09
2.74497e-09
2.91496e-09
3.09305e-09
3.28098e-09
3.47727e-09
3.68308e-09
3.8973e-09
4.1209e-09
4.35306e-09
4.59437e-09
4.84475e-09
5.10274e-09
5.3705e-09
5.64651e-09
5.93135e-09
6.22417e-09
6.5256e-09
6.83408e-09
7.15249e-09
7.47985e-09
7.81642e-09
8.16084e-09
8.52187e-09
8.93668e-09
1.20979e-09
1.19792e-09
1.20228e-09
1.22005e-09
1.24938e-09
1.28904e-09
1.33845e-09
1.39697e-09
1.46449e-09
1.54081e-09
1.62606e-09
1.71983e-09
1.82276e-09
1.93437e-09
2.05517e-09
2.18485e-09
2.3239e-09
2.47207e-09
2.62982e-09
2.79659e-09
2.97317e-09
3.15926e-09
3.355e-09
3.56013e-09
3.77504e-09
3.9996e-09
4.2338e-09
4.4774e-09
4.73126e-09
4.99369e-09
5.26678e-09
5.54792e-09
5.83947e-09
6.13969e-09
6.44945e-09
6.76834e-09
7.09623e-09
7.43196e-09
7.77857e-09
8.13361e-09
8.49973e-09
8.87511e-09
9.26761e-09
9.723e-09
1.198e-09
1.18842e-09
1.1948e-09
1.21435e-09
1.24541e-09
1.28684e-09
1.33809e-09
1.39864e-09
1.46833e-09
1.54707e-09
1.63476e-09
1.73171e-09
1.83752e-09
1.95293e-09
2.07753e-09
2.21165e-09
2.35534e-09
2.509e-09
2.67245e-09
2.84589e-09
3.02919e-09
3.22278e-09
3.42668e-09
3.64086e-09
3.86533e-09
4.10013e-09
4.34503e-09
4.60096e-09
4.86642e-09
5.14302e-09
5.42905e-09
5.72662e-09
6.03276e-09
6.35019e-09
6.67711e-09
7.01355e-09
7.36097e-09
7.71763e-09
8.08279e-09
8.45886e-09
8.84538e-09
9.24373e-09
9.65066e-09
1.00783e-08
1.05773e-08
1.18455e-09
1.17719e-09
1.18563e-09
1.20704e-09
1.23976e-09
1.28294e-09
1.33593e-09
1.39844e-09
1.47016e-09
1.55123e-09
1.64148e-09
1.74131e-09
1.8503e-09
1.96905e-09
2.09759e-09
2.23603e-09
2.38468e-09
2.54332e-09
2.71251e-09
2.89226e-09
3.08263e-09
3.28385e-09
3.49576e-09
3.71887e-09
3.95311e-09
4.19827e-09
4.45487e-09
4.72217e-09
5.00099e-09
5.29061e-09
5.5918e-09
5.90341e-09
6.22745e-09
6.56124e-09
6.90631e-09
7.26196e-09
7.62831e-09
8.00641e-09
8.3931e-09
8.79041e-09
9.19988e-09
9.62009e-09
1.00521e-08
1.04951e-08
1.09608e-08
1.15081e-08
1.16948e-09
1.1645e-09
1.17475e-09
1.19791e-09
1.23243e-09
1.27727e-09
1.33201e-09
1.39636e-09
1.47015e-09
1.55333e-09
1.64616e-09
1.74857e-09
1.86067e-09
1.98295e-09
2.1151e-09
2.25779e-09
2.41104e-09
2.57505e-09
2.74993e-09
2.93581e-09
3.13318e-09
3.342e-09
3.56242e-09
3.79435e-09
4.03805e-09
4.2941e-09
4.56169e-09
4.84157e-09
5.1333e-09
5.43702e-09
5.7526e-09
6.08076e-09
6.42006e-09
6.77265e-09
7.13602e-09
7.51089e-09
7.89864e-09
8.29712e-09
8.70717e-09
9.12827e-09
9.56119e-09
1.00061e-08
1.04618e-08
1.09313e-08
1.14129e-08
1.19221e-08
1.25201e-08
1.15293e-09
1.15019e-09
1.16243e-09
1.18722e-09
1.22335e-09
1.26982e-09
1.32621e-09
1.3923e-09
1.46805e-09
1.55349e-09
1.64853e-09
1.75363e-09
1.86866e-09
1.99416e-09
2.13022e-09
2.27702e-09
2.43474e-09
2.60379e-09
2.78439e-09
2.97671e-09
3.18075e-09
3.39727e-09
3.62559e-09
3.86686e-09
4.12054e-09
4.38677e-09
4.66609e-09
4.95788e-09
5.26298e-09
5.58121e-09
5.91219e-09
6.25599e-09
6.6133e-09
6.98299e-09
7.36582e-09
7.7614e-09
8.16969e-09
8.59096e-09
9.02412e-09
9.47099e-09
9.92873e-09
1.03987e-08
1.08828e-08
1.13779e-08
1.18872e-08
1.24118e-08
1.29664e-08
1.36221e-08
1.135e-09
1.13445e-09
1.14852e-09
1.17505e-09
1.21264e-09
1.2607e-09
1.31868e-09
1.38643e-09
1.46397e-09
1.55138e-09
1.6488e-09
1.75634e-09
1.87432e-09
2.00307e-09
2.14255e-09
2.29346e-09
2.45569e-09
2.6297e-09
2.81606e-09
3.01429e-09
3.22537e-09
3.44917e-09
3.68603e-09
3.93599e-09
4.19942e-09
4.47633e-09
4.7671e-09
5.07187e-09
5.39012e-09
5.72256e-09
6.06946e-09
6.42988e-09
6.80426e-09
7.19343e-09
7.59526e-09
8.01213e-09
8.44263e-09
8.88579e-09
9.34512e-09
9.81621e-09
1.03016e-08
1.07995e-08
1.13097e-08
1.18356e-08
1.23751e-08
1.29274e-08
1.34984e-08
1.41024e-08
1.48216e-08
1.11573e-09
1.11734e-09
1.13318e-09
1.16122e-09
1.20041e-09
1.24983e-09
1.30935e-09
1.37872e-09
1.45802e-09
1.54735e-09
1.6467e-09
1.75678e-09
1.87745e-09
2.00923e-09
2.15223e-09
2.3069e-09
2.4736e-09
2.65254e-09
2.84414e-09
3.04871e-09
3.26627e-09
3.49767e-09
3.74249e-09
4.00157e-09
4.27477e-09
4.5628e-09
4.86486e-09
5.18208e-09
5.51437e-09
5.86156e-09
6.22361e-09
6.60135e-09
6.99392e-09
7.4015e-09
7.82447e-09
8.26242e-09
8.71573e-09
9.18445e-09
9.66708e-09
1.01659e-08
1.06777e-08
1.12053e-08
1.17465e-08
1.23019e-08
1.28712e-08
1.34587e-08
1.40598e-08
1.468e-08
1.53405e-08
1.61269e-08
1.09527e-09
1.0989e-09
1.11647e-09
1.14605e-09
1.1865e-09
1.23742e-09
1.29824e-09
1.36913e-09
1.45e-09
1.54109e-09
1.6426e-09
1.7548e-09
1.87804e-09
2.01286e-09
2.15907e-09
2.31754e-09
2.48857e-09
2.67219e-09
2.86907e-09
3.07952e-09
3.30384e-09
3.54233e-09
3.79555e-09
4.06354e-09
4.34657e-09
4.64486e-09
4.95919e-09
5.28893e-09
5.63488e-09
5.99655e-09
6.37516e-09
6.76949e-09
7.18056e-09
7.60791e-09
8.05187e-09
8.51231e-09
8.98821e-09
9.48221e-09
9.99141e-09
1.05169e-08
1.10582e-08
1.16146e-08
1.2188e-08
1.2776e-08
1.33808e-08
1.39988e-08
1.46364e-08
1.52903e-08
1.59641e-08
1.66874e-08
1.7547e-08
1.07371e-09
1.07928e-09
1.09838e-09
1.12943e-09
1.17123e-09
1.22332e-09
1.28551e-09
1.35766e-09
1.44001e-09
1.53282e-09
1.63603e-09
1.7506e-09
1.87623e-09
2.01366e-09
2.16312e-09
2.32528e-09
2.50024e-09
2.68858e-09
2.89052e-09
3.10697e-09
3.33767e-09
3.58358e-09
3.84463e-09
4.12126e-09
4.41412e-09
4.7234e-09
5.04901e-09
5.39143e-09
5.7512e-09
6.12828e-09
6.52273e-09
6.93452e-09
7.36468e-09
7.81182e-09
8.27701e-09
8.75991e-09
9.26133e-09
9.7792e-09
1.03154e-08
1.08692e-08
1.14406e-08
1.20283e-08
1.26351e-08
1.32576e-08
1.38963e-08
1.45538e-08
1.52268e-08
1.59178e-08
1.66282e-08
1.7361e-08
1.81492e-08
1.90909e-08
1.05113e-09
1.05856e-09
1.07919e-09
1.11146e-09
1.15442e-09
1.2077e-09
1.27102e-09
1.34445e-09
1.42815e-09
1.52242e-09
1.62751e-09
1.74381e-09
1.87186e-09
2.01185e-09
2.1644e-09
2.32974e-09
2.50867e-09
2.70143e-09
2.90873e-09
3.13034e-09
3.36754e-09
3.62043e-09
3.88942e-09
4.17519e-09
4.47735e-09
4.79696e-09
5.13466e-09
5.49002e-09
5.86342e-09
6.25532e-09
6.66598e-09
7.09629e-09
7.54436e-09
8.01269e-09
8.49956e-09
9.00574e-09
9.53143e-09
1.00757e-08
1.064e-08
1.12226e-08
1.18253e-08
1.24462e-08
1.30851e-08
1.37434e-08
1.44205e-08
1.5115e-08
1.58283e-08
1.65612e-08
1.73105e-08
1.80844e-08
1.88833e-08
1.97412e-08
2.0771e-08
1.02764e-09
1.03681e-09
1.0589e-09
1.09228e-09
1.13638e-09
1.19051e-09
1.25492e-09
1.32952e-09
1.41442e-09
1.51001e-09
1.61669e-09
1.73492e-09
1.86493e-09
2.00733e-09
2.16252e-09
2.33138e-09
2.51378e-09
2.71102e-09
2.92282e-09
3.15034e-09
3.39344e-09
3.65316e-09
3.92996e-09
4.22397e-09
4.53587e-09
4.86639e-09
5.2153e-09
5.58332e-09
5.97084e-09
6.37817e-09
6.80503e-09
7.25225e-09
7.72052e-09
8.20875e-09
8.718e-09
9.24793e-09
9.79864e-09
1.03698e-08
1.09633e-08
1.15764e-08
1.22104e-08
1.28653e-08
1.35406e-08
1.42346e-08
1.49501e-08
1.56858e-08
1.64409e-08
1.72147e-08
1.8011e-08
1.88252e-08
1.96654e-08
2.05372e-08
2.14754e-08
2.2596e-08
1.00344e-09
1.01411e-09
1.03744e-09
1.07197e-09
1.11694e-09
1.17215e-09
1.23734e-09
1.31283e-09
1.39881e-09
1.49577e-09
1.60354e-09
1.72354e-09
1.85542e-09
2.0001e-09
2.15801e-09
2.32966e-09
2.51583e-09
2.71679e-09
2.93334e-09
3.16582e-09
3.41527e-09
3.6818e-09
3.96563e-09
4.26852e-09
4.58978e-09
4.93025e-09
5.29092e-09
5.67147e-09
6.07252e-09
6.49522e-09
6.93916e-09
7.40404e-09
7.89119e-09
8.40062e-09
8.93266e-09
9.48657e-09
1.00623e-08
1.06629e-08
1.12836e-08
1.19289e-08
1.25944e-08
1.3285e-08
1.3996e-08
1.47307e-08
1.54864e-08
1.62628e-08
1.70631e-08
1.78823e-08
1.87241e-08
1.95859e-08
2.04725e-08
2.13853e-08
2.23322e-08
2.33614e-08
2.45817e-08
9.78514e-10
9.9068e-10
1.01503e-09
1.05057e-09
1.09635e-09
1.15229e-09
1.21831e-09
1.29459e-09
1.38153e-09
1.47925e-09
1.58859e-09
1.70976e-09
1.84338e-09
1.99006e-09
2.15043e-09
2.32499e-09
2.51427e-09
2.71919e-09
2.9399e-09
3.17767e-09
3.43241e-09
3.70571e-09
3.99706e-09
4.30778e-09
4.63844e-09
4.98916e-09
5.36079e-09
5.75428e-09
6.16946e-09
6.60642e-09
7.06707e-09
7.55025e-09
8.05695e-09
8.58731e-09
9.14155e-09
9.7208e-09
1.03231e-08
1.09509e-08
1.16029e-08
1.22786e-08
1.29797e-08
1.37039e-08
1.44537e-08
1.52271e-08
1.60242e-08
1.68468e-08
1.76911e-08
1.85572e-08
1.94488e-08
2.03642e-08
2.13011e-08
2.22623e-08
2.3255e-08
2.42861e-08
2.54106e-08
2.67423e-08
9.52963e-10
9.66461e-10
9.91952e-10
1.02817e-09
1.07473e-09
1.13122e-09
1.19788e-09
1.27484e-09
1.36244e-09
1.46118e-09
1.57142e-09
1.69382e-09
1.82909e-09
1.97744e-09
2.14e-09
2.31702e-09
2.50939e-09
2.71762e-09
2.94289e-09
3.18492e-09
3.4456e-09
3.72481e-09
4.02333e-09
4.34215e-09
4.68161e-09
5.04249e-09
5.42541e-09
5.83078e-09
6.25949e-09
6.71246e-09
7.1886e-09
7.69037e-09
8.21629e-09
8.76838e-09
9.34578e-09
9.94936e-09
1.05789e-08
1.12354e-08
1.19172e-08
1.26261e-08
1.33623e-08
1.41243e-08
1.49125e-08
1.57255e-08
1.65676e-08
1.74329e-08
1.83259e-08
1.92444e-08
2.01867e-08
2.11535e-08
2.21467e-08
2.31664e-08
2.421e-08
2.52888e-08
2.6411e-08
2.76373e-08
2.90861e-08
9.27033e-10
9.41712e-10
9.68011e-10
1.00495e-09
1.05206e-09
1.10908e-09
1.17614e-09
1.25356e-09
1.34179e-09
1.44113e-09
1.55228e-09
1.67576e-09
1.81218e-09
1.96224e-09
2.12651e-09
2.30599e-09
2.5011e-09
2.71263e-09
2.94154e-09
3.18863e-09
3.45407e-09
3.73925e-09
4.04459e-09
4.37107e-09
4.71926e-09
5.08996e-09
5.48416e-09
5.90171e-09
6.34377e-09
6.81091e-09
7.30447e-09
7.82321e-09
8.3698e-09
8.9425e-09
9.54372e-09
1.01718e-08
1.08285e-08
1.15132e-08
1.22272e-08
1.29702e-08
1.37406e-08
1.45404e-08
1.53688e-08
1.62268e-08
1.71113e-08
1.80251e-08
1.89661e-08
1.99369e-08
2.09333e-08
2.19586e-08
2.30079e-08
2.40871e-08
2.51906e-08
2.6326e-08
2.75e-08
2.8722e-08
3.0061e-08
3.16355e-08
9.00731e-10
9.16391e-10
9.43558e-10
9.81019e-10
1.02838e-09
1.08581e-09
1.15327e-09
1.23106e-09
1.31948e-09
1.41939e-09
1.53122e-09
1.65552e-09
1.79287e-09
1.94434e-09
2.11035e-09
2.29176e-09
2.48943e-09
2.70411e-09
2.93639e-09
3.18751e-09
3.45816e-09
3.74908e-09
4.06074e-09
4.39477e-09
4.75138e-09
5.13149e-09
5.53601e-09
5.96582e-09
6.42132e-09
6.90315e-09
7.4123e-09
7.9497e-09
8.51509e-09
9.10983e-09
9.73331e-09
1.03874e-08
1.10719e-08
1.17863e-08
1.25307e-08
1.33075e-08
1.41152e-08
1.49537e-08
1.58227e-08
1.6724e-08
1.76551e-08
1.86175e-08
1.96103e-08
2.0633e-08
2.16871e-08
2.27689e-08
2.38829e-08
2.50224e-08
2.61952e-08
2.73937e-08
2.86247e-08
2.99021e-08
3.12377e-08
3.26975e-08
3.44082e-08
8.74155e-10
8.90719e-10
9.1839e-10
9.56342e-10
1.00418e-09
1.06164e-09
1.12921e-09
1.20716e-09
1.29607e-09
1.3961e-09
1.5083e-09
1.63323e-09
1.77155e-09
1.9239e-09
2.09136e-09
2.27446e-09
2.47431e-09
2.69169e-09
2.92751e-09
3.18215e-09
3.45735e-09
3.75339e-09
4.0717e-09
4.41253e-09
4.77735e-09
5.16664e-09
5.58158e-09
6.02273e-09
6.49138e-09
6.98811e-09
7.51334e-09
8.06803e-09
8.65309e-09
9.26907e-09
9.91598e-09
1.05949e-08
1.13067e-08
1.20526e-08
1.28283e-08
1.36402e-08
1.44832e-08
1.5362e-08
1.62735e-08
1.72187e-08
1.81975e-08
1.92095e-08
2.02559e-08
2.13345e-08
2.24459e-08
2.35902e-08
2.4766e-08
2.59738e-08
2.72145e-08
2.84858e-08
2.97899e-08
3.11268e-08
3.2511e-08
3.39704e-08
3.55614e-08
3.74197e-08
8.47448e-10
8.64734e-10
8.92839e-10
9.31081e-10
9.78987e-10
1.0367e-09
1.10422e-09
1.18222e-09
1.27091e-09
1.37133e-09
1.48359e-09
1.60888e-09
1.74767e-09
1.90103e-09
2.06954e-09
2.25428e-09
2.45589e-09
2.67547e-09
2.91417e-09
3.1727e-09
3.45187e-09
3.75319e-09
4.07681e-09
4.42479e-09
4.79702e-09
5.19539e-09
5.62027e-09
6.07293e-09
6.55445e-09
7.06468e-09
7.60644e-09
8.17901e-09
8.78333e-09
9.42003e-09
1.00905e-08
1.07959e-08
1.15346e-08
1.23087e-08
1.31189e-08
1.39643e-08
1.48469e-08
1.57643e-08
1.67196e-08
1.77099e-08
1.87374e-08
1.98026e-08
2.09023e-08
2.20386e-08
2.32123e-08
2.44183e-08
2.56631e-08
2.69398e-08
2.82511e-08
2.95958e-08
3.09767e-08
3.23931e-08
3.38471e-08
3.53467e-08
3.69387e-08
3.86751e-08
4.06899e-08
8.20611e-10
8.38569e-10
8.67105e-10
9.05362e-10
9.53321e-10
1.01094e-09
1.07841e-09
1.15612e-09
1.24485e-09
1.34494e-09
1.45733e-09
1.58267e-09
1.72187e-09
1.87573e-09
2.04513e-09
2.23099e-09
2.43434e-09
2.65599e-09
2.89713e-09
3.15868e-09
3.44183e-09
3.74763e-09
4.07695e-09
4.43086e-09
4.8108e-09
5.21757e-09
5.65207e-09
6.11589e-09
6.60946e-09
7.13447e-09
7.69049e-09
8.28038e-09
8.90414e-09
9.5622e-09
1.02562e-08
1.09867e-08
1.17536e-08
1.25571e-08
1.33993e-08
1.42825e-08
1.52003e-08
1.61609e-08
1.71573e-08
1.81968e-08
1.9274e-08
2.03914e-08
2.15487e-08
2.27447e-08
2.39781e-08
2.52539e-08
2.65655e-08
2.79149e-08
2.93026e-08
3.07265e-08
3.21855e-08
3.36827e-08
3.52203e-08
3.6802e-08
3.84336e-08
4.01657e-08
4.20611e-08
4.42425e-08
7.938e-10
8.1218e-10
8.4096e-10
8.79425e-10
9.27123e-10
9.84458e-10
1.05173e-09
1.12922e-09
1.21749e-09
1.31735e-09
1.42964e-09
1.55492e-09
1.69404e-09
1.84829e-09
2.01815e-09
2.20488e-09
2.40942e-09
2.63294e-09
2.87623e-09
3.14074e-09
3.42698e-09
3.73689e-09
4.07142e-09
4.43127e-09
4.81808e-09
5.23281e-09
5.6769e-09
6.15079e-09
6.65672e-09
7.19459e-09
7.7668e-09
8.37329e-09
9.01556e-09
9.69456e-09
1.04115e-08
1.11673e-08
1.19608e-08
1.27963e-08
1.36712e-08
1.4587e-08
1.55469e-08
1.6546e-08
1.75911e-08
1.86759e-08
1.98054e-08
2.09754e-08
2.21895e-08
2.34487e-08
2.47466e-08
2.60892e-08
2.74721e-08
2.88981e-08
3.03626e-08
3.18701e-08
3.34175e-08
3.50021e-08
3.66251e-08
3.82917e-08
4.00109e-08
4.17855e-08
4.36713e-08
4.57391e-08
4.81044e-08
7.67115e-10
7.85884e-10
8.14702e-10
8.53045e-10
9.007e-10
9.57626e-10
1.0243e-09
1.10135e-09
1.18922e-09
1.2886e-09
1.40036e-09
1.52548e-09
1.66446e-09
1.81848e-09
1.9887e-09
2.17585e-09
2.38144e-09
2.60615e-09
2.85138e-09
3.11801e-09
3.40775e-09
3.72131e-09
4.05999e-09
4.42575e-09
4.81892e-09
5.24143e-09
5.6938e-09
6.17834e-09
6.69552e-09
7.24679e-09
7.83354e-09
8.4564e-09
9.11743e-09
9.81721e-09
1.05565e-08
1.13372e-08
1.2159e-08
1.30235e-08
1.39322e-08
1.48852e-08
1.58807e-08
1.69245e-08
1.80132e-08
1.91473e-08
2.03281e-08
2.15558e-08
2.28278e-08
2.41478e-08
2.5515e-08
2.69254e-08
2.83836e-08
2.98863e-08
3.14346e-08
3.30261e-08
3.46609e-08
3.63411e-08
3.80619e-08
3.98273e-08
4.16329e-08
4.34997e-08
4.54305e-08
4.74809e-08
4.97327e-08
5.22977e-08
7.40552e-10
7.59626e-10
7.8846e-10
8.26534e-10
8.73804e-10
9.30332e-10
9.9649e-10
1.07284e-09
1.16004e-09
1.25883e-09
1.37007e-09
1.49434e-09
1.63298e-09
1.7869e-09
1.95687e-09
2.14451e-09
2.3503e-09
2.57626e-09
2.82257e-09
3.09146e-09
3.38348e-09
3.70054e-09
4.04361e-09
4.41409e-09
4.81314e-09
5.24272e-09
5.70389e-09
6.19726e-09
6.72562e-09
7.28968e-09
7.89066e-09
8.53018e-09
9.20844e-09
9.92851e-09
1.06904e-08
1.14958e-08
1.23452e-08
1.32407e-08
1.41825e-08
1.51698e-08
1.62073e-08
1.72919e-08
1.84244e-08
1.9609e-08
2.08407e-08
2.21243e-08
2.3459e-08
2.48432e-08
2.62772e-08
2.77637e-08
2.92969e-08
3.08788e-08
3.25142e-08
3.41936e-08
3.59218e-08
3.76955e-08
3.95175e-08
4.13863e-08
4.33028e-08
4.52629e-08
4.72884e-08
4.93933e-08
5.16233e-08
5.40771e-08
5.68509e-08
7.14265e-10
7.33497e-10
7.62236e-10
8.0002e-10
8.46744e-10
9.02693e-10
9.68132e-10
1.0437e-09
1.13011e-09
1.22803e-09
1.3384e-09
1.46199e-09
1.59996e-09
1.75326e-09
1.92313e-09
2.11038e-09
2.31668e-09
2.54286e-09
2.79061e-09
3.06077e-09
3.35502e-09
3.67468e-09
4.02152e-09
4.39627e-09
4.80113e-09
5.23681e-09
5.70528e-09
6.20883e-09
6.74732e-09
7.32301e-09
7.9378e-09
8.59281e-09
9.28996e-09
1.00288e-08
1.08127e-08
1.16423e-08
1.25195e-08
1.3444e-08
1.44184e-08
1.54438e-08
1.65181e-08
1.76457e-08
1.88252e-08
2.00593e-08
2.13457e-08
2.26861e-08
2.40826e-08
2.55317e-08
2.70357e-08
2.85965e-08
3.02076e-08
3.18767e-08
3.35952e-08
3.53672e-08
3.71946e-08
3.90699e-08
4.09996e-08
4.29724e-08
4.49973e-08
4.70775e-08
4.92045e-08
5.14081e-08
5.36941e-08
5.6121e-08
5.87923e-08
6.17921e-08
6.88259e-10
7.07506e-10
7.36115e-10
7.73503e-10
8.19669e-10
8.74878e-10
9.39569e-10
1.01415e-09
1.09957e-09
1.19646e-09
1.30576e-09
1.42843e-09
1.5654e-09
1.71802e-09
1.887e-09
2.07406e-09
2.27999e-09
2.50651e-09
2.75473e-09
3.026e-09
3.32206e-09
3.6442e-09
3.99377e-09
4.37253e-09
4.78203e-09
5.22406e-09
5.69995e-09
6.21089e-09
6.75995e-09
7.34735e-09
7.9755e-09
8.64518e-09
9.35855e-09
1.01185e-08
1.09242e-08
1.17769e-08
1.26811e-08
1.36347e-08
1.4642e-08
1.57012e-08
1.68157e-08
1.79867e-08
1.92121e-08
2.04952e-08
2.1838e-08
2.32376e-08
2.46949e-08
2.62126e-08
2.77889e-08
2.94216e-08
3.11176e-08
3.28693e-08
3.46807e-08
3.65504e-08
3.84719e-08
4.04566e-08
4.24916e-08
4.45858e-08
4.67285e-08
4.89234e-08
5.11813e-08
5.349e-08
5.58773e-08
5.83692e-08
6.10159e-08
6.391e-08
6.71592e-08
6.62635e-10
6.81825e-10
7.10112e-10
7.47073e-10
7.92577e-10
8.46937e-10
9.10648e-10
9.84308e-10
1.06847e-09
1.16425e-09
1.2723e-09
1.39375e-09
1.52966e-09
1.68107e-09
1.84912e-09
2.03539e-09
2.24094e-09
2.46716e-09
2.71545e-09
2.98735e-09
3.28454e-09
3.60857e-09
3.96074e-09
4.3429e-09
4.75666e-09
5.20392e-09
5.68646e-09
6.20582e-09
6.76335e-09
7.36179e-09
8.00202e-09
8.687e-09
9.41711e-09
1.01941e-08
1.10215e-08
1.18981e-08
1.28293e-08
1.38112e-08
1.48509e-08
1.59462e-08
1.7099e-08
1.83117e-08
1.95854e-08
2.09199e-08
2.23149e-08
2.37727e-08
2.52969e-08
2.688e-08
2.85298e-08
3.02423e-08
3.20177e-08
3.38601e-08
3.57638e-08
3.77298e-08
3.97617e-08
4.18488e-08
4.40025e-08
4.62111e-08
4.84803e-08
5.0809e-08
5.31922e-08
5.56369e-08
5.81467e-08
6.07277e-08
6.34455e-08
6.63226e-08
6.94697e-08
7.29845e-08
6.37442e-10
6.56499e-10
6.84392e-10
7.20737e-10
7.65561e-10
8.19014e-10
8.8163e-10
9.54079e-10
1.03705e-09
1.13137e-09
1.23802e-09
1.35815e-09
1.49261e-09
1.64271e-09
1.80963e-09
1.99473e-09
2.19934e-09
2.42496e-09
2.67315e-09
2.94519e-09
3.24301e-09
3.56828e-09
3.92246e-09
4.30723e-09
4.72482e-09
5.17666e-09
5.66508e-09
6.19146e-09
6.7581e-09
7.36617e-09
8.01901e-09
8.71665e-09
9.4627e-09
1.02585e-08
1.11052e-08
1.2005e-08
1.2961e-08
1.39734e-08
1.5044e-08
1.61747e-08
1.73677e-08
1.8623e-08
1.99408e-08
2.13261e-08
2.27777e-08
2.42959e-08
2.58797e-08
2.75357e-08
2.92601e-08
3.10509e-08
3.29142e-08
3.48436e-08
3.68443e-08
3.89104e-08
4.10473e-08
4.32546e-08
4.55194e-08
4.78548e-08
5.02576e-08
5.27132e-08
5.52426e-08
5.78237e-08
6.04813e-08
6.32035e-08
6.60125e-08
6.89568e-08
7.20849e-08
7.55078e-08
7.93027e-08
6.12632e-10
6.31573e-10
6.59009e-10
6.94681e-10
7.38627e-10
7.91095e-10
8.52624e-10
9.2375e-10
1.00535e-09
1.09819e-09
1.20329e-09
1.32173e-09
1.45454e-09
1.60315e-09
1.76843e-09
1.95218e-09
2.1556e-09
2.38028e-09
2.62763e-09
2.89955e-09
3.19756e-09
3.52339e-09
3.87886e-09
4.26605e-09
4.68662e-09
5.14256e-09
5.63601e-09
6.1687e-09
6.74302e-09
7.36114e-09
8.0241e-09
8.73598e-09
9.49621e-09
1.03094e-08
1.11755e-08
1.20981e-08