/*--------------------------------*- C++ -*----------------------------------*\
| =========                 |                                                 |
| \\      /  F ield         | OpenFOAM: The Open Source CFD Toolbox           |
|  \\    /   O peration     | Version:  v2012                                 |
|   \\  /    A nd           | Website:  www.openfoam.com                      |
|    \\/     M anipulation  |                                                 |
\*---------------------------------------------------------------------------*/
FoamFile
{
    version     2.0;
    format      ascii;
    class       volScalarField;
    location    "2000";
    object      xx;
}
// * * * * * * * * * * * * * * * * * * * * * * * * * * * * * * * * * * * * * //

dimensions      [0 0 0 0 0 0 0];


internalField   nonuniform List<scalar> 
39402
(
0.00328516
0.000142819
0.00246945
3.6917e-05
0.000120014
0.001656
2.33754e-05
3.10624e-05
0.000124579
0.00109399
2.65412e-05
3.04827e-05
2.97506e-05
0.000151889
0.00083405
3.07197e-05
6.04336e-05
0.000185839
3.85084e-05
0.000200857
0.000778067
3.35556e-05
8.40606e-05
0.000645334
0.00103156
7.05677e-05
0.000261606
0.0008173
3.54677e-05
9.91261e-05
0.00094986
0.00376487
0.00370213
0.000138849
0.000322972
0.000912793
3.64531e-05
0.000108846
0.00113585
0.0054605
0.0134567
0.00977373
0.00024993
0.000377791
0.00104816
3.66039e-05
0.000114016
0.00125255
0.0064644
0.0192024
0.0350793
0.0207247
0.000400071
0.000424087
0.00121671
3.64545e-05
0.000115579
0.00131353
0.00708207
0.0225132
0.0493659
0.0732967
0.0373054
0.000559315
0.000464191
0.00141823
3.59612e-05
0.000115676
0.00133207
0.00739748
0.0245134
0.0573975
0.102096
0.130042
0.0592556
0.000710881
0.000504127
0.00165479
3.523e-05
0.00011445
0.00133304
0.00748745
0.0255144
0.0621659
0.117962
0.180185
0.203934
0.0813996
0.000876362
0.000552707
0.00192987
3.4456e-05
0.000112307
0.00131926
0.00748364
0.0257858
0.0645151
0.127229
0.207454
0.282763
0.285442
0.10538
0.00106341
0.000608026
0.0022503
3.36471e-05
0.000109983
0.00129518
0.00740397
0.0257516
0.0651399
0.131748
0.223167
0.325459
0.406509
0.364564
0.132951
0.00130158
0.000667666
0.00262377
3.27364e-05
0.000107433
0.00126887
0.00726963
0.0254779
0.0650352
0.13298
0.230814
0.349847
0.469363
0.528889
0.45018
0.165459
0.0016819
0.000736824
0.0030594
3.18385e-05
0.000104428
0.00123986
0.00712405
0.0250303
0.0643782
0.132788
0.233012
0.361774
0.505153
0.622461
0.66203
0.543707
0.206611
0.00206408
0.000825428
0.0035683
3.10488e-05
0.000101503
0.00120555
0.00696431
0.0245466
0.0633144
0.131571
0.232813
0.365478
0.522848
0.675881
0.787204
0.808872
0.648243
0.268475
0.00238542
0.000944434
0.00416558
3.03027e-05
9.89305e-05
0.00117224
0.00677668
0.0240154
0.0621653
0.129591
0.230953
0.365488
0.52882
0.703569
0.859626
0.971341
0.970528
0.772793
0.373424
0.00262557
0.0011067
0.0048795
2.95357e-05
9.64605e-05
0.00114279
0.00659436
0.023396
0.0609025
0.127438
0.227851
0.363036
0.529455
0.71435
0.897689
1.06711
1.17677
1.15061
0.943447
0.490569
0.00269318
0.00132585
0.00573691
2.87788e-05
9.38681e-05
0.00111434
0.00643241
0.0227929
0.0594308
0.12506
0.224463
0.358761
0.526614
0.717983
0.913341
1.11794
1.30141
1.40521
1.35755
1.19491
0.597056
0.0025712
0.00162654
0.00674423
2.80786e-05
9.13163e-05
0.00108452
0.00627597
0.0222547
0.0579947
0.122289
0.220674
0.35403
0.521243
0.7168
0.919314
1.14013
1.36836
1.56452
1.65986
1.58793
1.38695
0.695701
0.00232458
0.00200653
0.00783182
2.74376e-05
8.89741e-05
0.0010551
0.00611233
0.0217339
0.056707
0.119576
0.216251
0.348669
0.515199
0.712346
0.918733
1.14909
1.39957
1.65235
1.85891
1.93616
1.82413
1.57633
0.76873
0.00206406
0.00247827
0.00892203
2.68352e-05
8.68448e-05
0.00102811
0.00595071
0.0211902
0.0554587
0.117133
0.211904
0.342379
0.508199
0.706653
0.913878
1.14934
1.41258
1.6953
1.9731
2.18283
2.23399
2.0733
1.79551
0.799047
0.00190784
0.00306267
0.00973534
2.62372e-05
8.48101e-05
0.00100352
0.00580214
0.0206526
0.0541543
0.114755
0.207978
0.336175
0.499939
0.698039
0.907599
1.14391
1.41415
1.71394
2.03081
2.33075
2.53822
2.55352
2.33864
2.07811
0.771465
0.00191548
0.0037976
0.0101841
2.56773e-05
8.28011e-05
0.000980004
0.00566655
0.0201571
0.0528634
0.112268
0.204136
0.330556
0.491762
0.68778
0.899523
1.1366
1.40828
1.71759
2.0573
2.40823
2.72766
2.92464
2.89208
2.62709
2.43865
0.676779
0.00211745
0.00466369
0.010352
2.51679e-05
8.09252e-05
0.000956779
0.00553679
0.0197042
0.0516696
0.109799
0.200111
0.325035
0.484341
0.677592
0.889378
1.1274
1.39992
1.71162
2.06428
2.44589
2.83102
3.16492
3.33956
3.24972
2.94817
2.62649
0.523362
0.00250736
0.00556261
0.0104109
2.46869e-05
7.9219e-05
0.000935184
0.00540902
0.01927
0.0505753
0.107512
0.196108
0.319235
0.477023
0.668326
0.879188
1.11562
1.38918
1.70214
2.05862
2.45808
2.88403
3.30157
3.6414
3.77969
3.62714
3.31965
2.70779
0.347218
0.00307382
0.00645591
0.0103593
2.42113e-05
7.76019e-05
0.000915503
0.00529028
0.0188435
0.0495255
0.10541
0.192392
0.313461
0.46931
0.659153
0.869982
1.10364
1.37526
1.68965
2.04819
2.4537
2.90396
3.37527
3.82067
4.15404
4.24161
4.02992
3.79164
2.66658
0.196331
0.00378483
0.00725603
0.010244
2.37631e-05
7.6004e-05
0.000896891
0.00518191
0.0184466
0.0484941
0.103388
0.188969
0.308088
0.461614
0.649452
0.860762
1.09284
1.36093
1.67327
2.03388
2.44294
2.90217
3.4065
3.92213
4.38753
4.69858
4.72187
4.47466
4.41726
2.44849
0.0971734
0.0045804
0.00799968
0.0100036
2.33294e-05
7.45114e-05
0.000878559
0.00507957
0.0180842
0.0475336
0.101403
0.185668
0.303128
0.454453
0.639771
0.850889
1.08202
1.348
1.65625
2.01484
2.4269
2.89156
3.40951
3.96956
4.52617
4.99903
5.26896
5.22254
4.99467
4.89263
2.01277
0.0443365
0.00541353
0.00866495
0.00970923
2.29123e-05
7.30634e-05
0.000861545
0.0049792
0.0177417
0.0466547
0.0995484
0.182426
0.298336
0.447834
0.630746
0.840919
1.07036
1.33505
1.64084
1.99476
2.40493
2.87411
3.40003
3.98017
4.59602
5.18637
5.65067
5.86144
5.75666
5.65111
4.99485
1.40934
0.02033
0.00623015
0.00919062
0.00941017
2.2518e-05
7.16613e-05
0.000845071
0.00488631
0.0174074
0.0458246
0.09785
0.179388
0.293627
0.44143
0.622401
0.831696
1.05856
1.32107
1.62542
1.97644
2.38148
2.84913
3.3816
3.97394
4.61922
5.28892
5.90055
6.33747
6.475
6.36033
6.53687
4.83246
0.810928
0.0108171
0.00698319
0.00954478
0.00917144
2.21845e-05
7.03564e-05
0.000829207
0.00479679
0.0170984
0.0450157
0.0962455
0.176602
0.289203
0.435138
0.614321
0.823195
1.04763
1.30693
1.60875
1.95813
2.35997
2.82216
3.35398
3.95561
4.61888
5.32963
6.04681
6.6648
7.05098
7.11806
7.09667
7.42836
4.25781
0.384017
0.00758922
0.00763572
0.0097135
0.00901973
2.18887e-05
6.92692e-05
0.000814534
0.00471062
0.0168014
0.0442686
0.0946807
0.173964
0.285138
0.429199
0.606377
0.814913
1.03758
1.2938
1.5919
1.93836
2.33841
2.79708
3.32311
3.92569
4.60233
5.33945
6.11542
6.8675
7.47103
7.785
7.82269
8.07973
7.65656
3.20966
0.15682
0.00682637
0.00810155
0.00978551
0.00892851
2.15785e-05
6.831e-05
0.000802439
0.00463161
0.0165164
0.0435518
0.0932383
0.171401
0.281293
0.423733
0.598844
0.80671
1.02779
1.28176
1.57623
1.91839
2.3152
2.77188
3.29421
3.89073
4.57094
5.32737
6.14097
6.97607
7.74909
8.31089
8.54925
8.65295
9.40435
7.49145
1.94353
0.0596246
0.00693665
0.0083698
0.00976012
0.00882844
2.12447e-05
6.72803e-05
0.000791869
0.00456679
0.016256
0.0428645
0.0918555
0.169035
0.277553
0.418566
0.59191
0.797705
1.01808
1.27002
1.56181
1.89972
2.29158
2.74474
3.26498
3.85766
4.5324
5.29579
6.13624
7.02487
7.90897
8.68278
9.17655
9.36742
9.72903
10.373
6.64945
0.926585
0.0238368
0.00728491
0.00855398
0.00963471
0.00874039
2.09273e-05
6.61622e-05
0.000780516
0.00451058
0.0160433
0.0422389
0.0905307
0.166768
0.274105
0.413545
0.585354
0.789253
1.00878
1.2584
1.54778
1.88264
2.26958
2.71705
3.23333
3.82413
4.49502
5.25453
6.10669
7.03378
7.99295
8.90981
9.6549
10.0697
10.3101
11.2265
10.6417
4.98177
0.365957
0.0119146
0.00767063
0.00868728
0.00936879
0.00870013
2.06711e-05
6.5124e-05
0.000768195
0.0044505
0.0158602
0.0417303
0.0893272
0.164598
0.2708
0.408914
0.578979
0.781255
1.00023
1.24758
1.53401
1.86609
2.24943
2.69113
3.20108
3.78764
4.45677
5.2132
6.06422
7.01097
8.0237
9.04467
9.97192
10.6571
11.0204
11.5172
13.0049
10.2603
2.93962
0.128613
0.00834649
0.00789876
0.00882082
0.00905765
0.00868332
2.04632e-05
6.43081e-05
0.000756945
0.00438563
0.0156652
0.0412949
0.0883542
0.162633
0.26764
0.404489
0.573114
0.773496
0.992156
1.23766
1.52115
1.84966
2.22983
2.66746
3.17086
3.75026
4.41512
5.1703
6.01984
6.96956
8.01355
9.10832
10.1722
11.08
11.6905
12.0967
13.204
13.6555
8.7613
1.35203
0.043728
0.00753884
0.00804865
0.0088898
0.00880558
0.00868128
2.02465e-05
6.36539e-05
0.000748324
0.00432691
0.0154554
0.0408321
0.087523
0.161046
0.264788
0.400254
0.567508
0.766352
0.984268
1.22826
1.50945
1.8345
2.21043
2.6444
3.14308
3.71512
4.37204
5.12325
5.97235
6.92208
7.97548
9.1161
10.2825
11.3679
12.2242
12.7779
13.4518
15.4382
13.7488
6.09147
0.508672
0.0171043
0.00751187
0.00821264
0.00888724
0.00864928
0.00868622
2.00075e-05
6.29489e-05
0.000741561
0.00428272
0.0152671
0.0403359
0.0866425
0.159701
0.262494
0.396436
0.562143
0.759529
0.97699
1.2191
1.49833
1.82072
2.19264
2.62186
3.1162
3.68296
4.33142
5.07418
5.91949
6.87107
7.92891
9.0869
10.3185
11.5426
12.6192
13.4006
13.997
15.3325
16.6272
12.6948
3.2365
0.169134
0.00959998
0.00754823
0.00829962
0.00881836
0.00853994
0.00869086
1.9766e-05
6.21634e-05
0.000734226
0.00424888
0.0151279
0.0398936
0.0857013
0.158277
0.260556
0.393388
0.557335
0.753012
0.970083
1.21071
1.48748
1.80758
2.1764
2.60089
3.08979
3.65168
4.29415
5.02738
5.86438
6.81328
7.87406
9.04423
10.3096
11.6243
12.8773
13.9066
14.6289
15.5191
17.8308
17.1231
9.92287
1.33854
0.0541246
0.00769365
0.00761147
0.00837268
0.00876162
0.00843636
0.00869398
1.95578e-05
6.13759e-05
0.000725999
0.00421217
0.0150236
0.039572
0.0848668
0.156754
0.258504
0.390817
0.553506
0.747197
0.963445
1.20274
1.4776
1.79484
2.16098
2.58182
3.06534
3.62083
4.25796
4.98449
5.81127
6.75101
7.81173
8.98991
10.2755
11.6432
13.0254
14.2701
15.2259
16.0022
17.6243
19.6202
16.4943
6.01178
0.467978
0.019498
0.00731373
0.00771359
0.0083847
0.00863988
0.00834399
0.00869528
1.94022e-05
6.07231e-05
0.000717832
0.00417093
0.0149105
0.0393363
0.0842696
0.155413
0.256313
0.388099
0.550298
0.742586
0.957547
1.19504
1.46815
1.78321
2.14611
2.56392
3.04312
3.59243
4.22222
4.94291
5.76197
6.69133
7.74327
8.92251
10.2248
11.6276
13.0863
14.5038
15.7061
16.608
17.7179
20.4341
20.4248
13.8167
2.78548
0.148859
0.0100479
0.00729834
0.00778977
0.00840676
0.00852
0.00826465
0.00869506
1.92901e-05
6.02538e-05
0.000711241
0.00413015
0.0147834
0.0390814
0.0838429
0.154471
0.2544
0.385201
0.546898
0.738736
0.953009
1.18828
1.45915
1.77207
2.13243
2.54657
3.02232
3.56676
4.18924
4.90182
5.71435
6.63578
7.67738
8.85025
10.1546
11.582
13.0994
14.6312
16.0479
17.1743
18.1475
20.0846
22.6657
20.0988
9.12773
1.0537
0.046762
0.00769036
0.00728415
0.00789671
0.0084191
0.00839469
0.00820176
0.00869525
1.91609e-05
5.99337e-05
0.000706868
0.00409837
0.0146581
0.0387937
0.0833805
0.153812
0.253078
0.382688
0.543278
0.734654
0.949317
1.18308
1.45123
1.76148
2.11945
2.53057
3.00219
3.54253
4.1596
4.86385
5.66756
6.58152
7.61445
8.77622
10.0781
11.5172
13.072
14.6889
16.259
17.6318
18.7095
20.0832
23.2348
23.7109
17.4819
4.5592
0.351874
0.0171969
0.0071818
0.00731783
0.00796252
0.00842057
0.00825774
0.00817383
0.00869555
1.89745e-05
5.95308e-05
0.00070419
0.00407873
0.0145637
0.0385122
0.0828561
0.153097
0.252176
0.380985
0.540161
0.730314
0.945296
1.17887
1.4452
1.75214
2.10701
2.51539
2.9835
3.51913
4.13153
4.8297
5.62393
6.52829
7.5534
8.70679
9.99989
11.4379
13.0157
14.6909
16.3824
17.9547
19.2455
20.4299
22.7773
25.7649
23.5807
12.1659
1.80983
0.10969
0.00937457
0.00705743
0.007405
0.00804775
0.00840754
0.00810378
0.00816044
0.00869587
1.8757e-05
5.89028e-05
0.000700495
0.00406844
0.0145103
0.0383063
0.0823477
0.152288
0.251199
0.379853
0.538095
0.726601
0.940917
1.17428
1.44031
1.74515
2.0961
2.50087
2.96582
3.4975
4.10453
4.79732
5.5848
6.47877
7.49349
8.63893
9.92408
11.3569
12.9392
14.6515
16.4349
18.1705
19.689
20.9451
22.632
26.3191
26.9929
20.9263
6.38511
0.620865
0.0350174
0.0074451
0.00702545
0.00750237
0.00810392
0.00833505
0.00797233
0.00815204
0.00869593
1.85432e-05
5.81814e-05
0.000694136
0.00405263
0.0144883
0.0382022
0.0819877
0.151503
0.25008
0.378624
0.536759
0.724198
0.937253
1.16931
1.43494
1.73952
2.08794
2.4882
2.94897
3.47717
4.07967
4.76639
5.54809
6.43406
7.4373
8.57283
9.84937
11.2773
12.8522
14.5832
16.4251
18.2897
20.0172
21.4612
22.869
25.717
28.9884
26.9354
15.0036
2.62931
0.195173
0.0138975
0.00699566
0.00706755
0.00764521
0.00814015
0.0082041
0.00787354
0.00814588
0.0086959
1.83629e-05
5.74713e-05
0.000686719
0.00402238
0.0144483
0.038175
0.0818303
0.150971
0.249007
0.377206
0.535303
0.722697
0.935081
1.16515
1.42909
1.73324
2.0814
2.4787
2.93428
3.45772
4.05626
4.73775
5.51283
6.39223
7.38682
8.50964
9.77547
11.1958
12.7707
14.5034
16.3763
18.3284
20.2304
21.8992
23.3223
25.3827
29.6981
30.3077
24.0831
8.10118
0.92659
0.0596985
0.00843874
0.00689268
0.00714169
0.00773601
0.00818095
0.00803412
0.00780206
0.00814304
0.008696
1.82454e-05
5.68985e-05
0.00067943
0.00398622
0.01436
0.0381034
0.0818236
0.150779
0.248311
0.375856
0.533611
0.72104
0.933907
1.16279
1.42427
1.7264
2.0742
2.47115
2.9232
3.44063
4.03387
4.71062
5.48003
6.35201
7.33927
8.45284
9.70709
11.113
12.6841
14.4144
16.3034
18.3119
20.3468
22.2377
23.8239
25.4865
28.9276
32.3163
30.1505
17.423
3.41732
0.296265
0.0204286
0.00713598
0.00689449
0.00724956
0.00786165
0.00816127
0.00784857
0.00776687
0.00814181
0.00869601
1.82029e-05
5.6549e-05
0.000673753
0.00395065
0.0142518
0.0379159
0.0817295
0.150837
0.248125
0.375028
0.532015
0.719107
0.932489
1.16155
1.42164
1.72081
2.06633
2.46288
2.9146
3.42792
4.01437
4.68481
5.44899
6.31488
7.29412
8.39939
9.64175
11.0365
12.5983
14.3257
16.2196
18.2574
20.3843
22.4506
24.2718
25.8822
28.4033
33.4027
33.6377
26.7779
9.4966
1.22227
0.0901394
0.00998126
0.00685571
0.00694772
0.00738267
0.00791228
0.00810893
0.00768491
0.00775059
0.00814121
0.00869601
1.82075e-05
5.64845e-05
0.000670686
0.00392386
0.0141451
0.0376789
0.0814103
0.15075
0.24831
0.3749
0.531089
0.7173
0.930684
1.16006
1.42034
1.71782
2.05975
2.45383
2.90508
3.41791
3.99956
4.66247
5.41944
6.28
7.25174
8.34869
9.58263
10.9672
12.511
14.2351
16.1339
18.1916
20.3715
22.5724
24.6128
26.3614
28.3697
32.4441
35.7211
33.1991
19.1521
4.02285
0.393483
0.0288983
0.0074262
0.00681744
0.00699481
0.00752733
0.00796557
0.00793772
0.00756818
0.00774195
0.00814104
0.008696
1.81964e-05
5.65621e-05
0.000671004
0.00391151
0.0140681
0.0374451
0.0809942
0.150293
0.248271
0.375271
0.531078
0.716331
0.929051
1.15813
1.41878
1.71652
2.05634
2.44638
2.89467
3.40713
3.98818
4.64568
5.39354
6.24636
7.21233
8.3014
9.52629
10.9022
12.438
14.146
16.0383
18.1102
20.3292
22.6188
24.8334
26.8044
28.651
31.7669
37.061
36.9463
29.0153
10.304
1.43512
0.119438
0.0121302
0.00686063
0.00682872
0.00709901
0.00763982
0.00796783
0.00774066
0.00749412
0.00773847
0.00814089
0.008696
1.8146e-05
5.6571e-05
0.000672895
0.00391763
0.0140401
0.0372838
0.0805824
0.14967
0.247695
0.375338
0.531704
0.716497
0.928482
1.15641
1.41669
1.7148
2.05502
2.44257
2.88622
3.39532
3.97594
4.63297
5.37429
6.21673
7.17441
8.25705
9.47452
10.8405
12.3679
14.0655
15.9482
18.0186
20.2609
22.6212
24.9692
27.1423
29.0712
31.5111
36.3023
39.1754
36.0082
20.2447
4.30101
0.460371
0.0369667
0.00790054
0.00675767
0.00687965
0.00721011
0.00773939
0.00796056
0.00753136
0.00746104
0.00773718
0.00814088
0.00869599
1.806e-05
5.64316e-05
0.000673902
0.00393238
0.0140731
0.0372431
0.0803139
0.149057
0.24687
0.374675
0.531927
0.717437
0.929074
1.15582
1.41476
1.71244
2.05322
2.44108
2.88193
3.38542
3.9625
4.61896
5.35982
6.19456
7.14128
8.21436
9.42485
10.7811
12.2995
13.9866
15.8652
17.9292
20.18
22.5791
25.0407
27.3941
29.485
31.6121
35.4763
40.6478
40.1468
30.703
10.578
1.52502
0.138754
0.0141427
0.00692345
0.00676229
0.00692791
0.00736806
0.00779683
0.00779199
0.00737632
0.00744718
0.00773672
0.00814082
0.00869595
1.79222e-05
5.61593e-05
0.00067313
0.00394211
0.0141348
0.037351
0.0802839
0.148678
0.246056
0.373674
0.531222
0.717877
0.930504
1.15683
1.41417
1.71031
2.05065
2.43921
2.88029
3.38038
3.95085
4.60334
5.34415
6.1782
7.11589
8.17684
9.377
10.7272
12.2348
13.9148
15.7791
17.839
20.0923
22.5232
25.0566
27.5643
29.8517
31.9411
34.9251
40.5691
42.6583
38.3872
20.5801
4.31628
0.487558
0.0420902
0.0083319
0.00673322
0.00678141
0.0069949
0.00748388
0.00781234
0.00759837
0.00727981
0.00744188
0.00773663
0.00814083
0.00869597
1.77469e-05
5.56778e-05
0.000670666
0.00394196
0.0141799
0.0375289
0.0805422
0.148705
0.245594
0.372689
0.530087
0.717185
0.931327
1.15878
1.41562
1.70997
2.04827
2.43644
2.87819
3.3788
3.9452
4.59016
5.32635
6.16052
7.09733
8.14857
9.33493
10.674
12.176
13.849
15.7053
17.7544
20.0054
22.4456
25.0355
27.6656
30.1445
32.3563
34.8537
39.567
44.3427
43.1268
31.5105
10.2743
1.51034
0.14617
0.0153865
0.00698616
0.00671523
0.00680202
0.00710504
0.0075989
0.00781261
0.00736251
0.00723533
0.0074403
0.0077366
0.00814087
0.008696
1.75628e-05
5.50743e-05
0.000665651
0.0039319
0.014191
0.0376665
0.0809395
0.149208
0.245735
0.372186
0.52897
0.715943
0.93084
1.15993
1.41818
1.71187
2.0481
2.43394
2.87513
3.37649
3.94374
4.58397
5.31164
6.14087
7.07776
8.12762
9.30326
10.6272
12.117
13.7808
15.6306
17.6754
19.9241
22.3736
24.9945
27.7068
30.3551
32.7477
35.0616
38.8103
45.3223
46.0976
40.0974
19.922
4.07075
0.477973
0.0440569
0.00858887
0.00671413
0.00673207
0.00685097
0.00725735
0.00764105
0.00762303
0.0071904
0.00721992
0.00743978
0.00773654
0.0081409
0.008696
1.73954e-05
5.44483e-05
0.000659187
0.0039076
0.0141678
0.0377182
0.0812541
0.14994
0.24658
0.372508
0.528466
0.714738
0.929717
1.15956
1.4197
1.71504
2.05049
2.43365
2.87244
3.37314
3.94136
4.58248
5.30455
6.12427
7.05612
8.10615
9.27987
10.5917
12.0665
13.7179
15.5596
17.5976
19.8386
22.2935
24.9387
27.7143
30.4912
33.076
35.4369
38.4567
44.1257
48.0835
45.7566
31.1751
9.39408
1.39242
0.142102
0.0158564
0.00700834
0.00667631
0.00676273
0.00693299
0.00737602
0.00764956
0.00741759
0.00709005
0.00721499
0.00743973
0.00773662
0.00814088
0.008696
1.72487e-05
5.38716e-05
0.000652389
0.00387489
0.0140958
0.0376846
0.0814023
0.150536
0.247763
0.37378
0.529042
0.714284
0.928692
1.15846
1.41942
1.71706
2.0544
2.43659
2.87225
3.37013
3.93766
4.58016
5.30278
6.11591
7.03706
8.08209
9.25632
10.566
12.0277
13.6646
15.4955
17.5257
19.7652
22.2137
24.8669
27.6917
30.5664
33.334
35.826
38.4743
43.156
49.4371
49.3731
40.9253
18.2919
3.58241
0.432383
0.0425312
0.00867157
0.0066785
0.0066801
0.0068117
0.0070413
0.00747687
0.00762673
0.00716575
0.00704964
0.00721381
0.00743978
0.00773664
0.00814089
0.00869601
1.71413e-05
5.33805e-05
0.000646124
0.00384016
0.0139946
0.0375287
0.081374
0.150849
0.248736
0.375506
0.530823
0.715187
0.928532
1.15741
1.41829
1.71686
2.05704
2.44141
2.87575
3.3702
3.93431
4.57617
5.30085
6.11379
7.02753
8.06064
9.23
10.5402
11.9993
13.6213
15.4346
17.4565
19.6922
22.1405
24.8056
27.6513
30.6168
33.5218
36.2076
38.7434
42.4769
49.1179
51.736
47.8036
29.6334
8.09133
1.18975
0.126533
0.0153278
0.00699146
0.00662258
0.00668452
0.00682203
0.0071819
0.00753905
0.00742171
0.0070015
0.00703779
0.00721351
0.00743979
0.00773665
0.00814088
0.00869597
1.70694e-05
5.30282e-05
0.000640824
0.00380785
0.0138859
0.0373001
0.0811075
0.150863
0.249292
0.376958
0.533191
0.717564
0.929912
1.15741
1.41718
1.71562
2.05706
2.44477
2.88177
3.37464
3.93448
4.57236
5.29641
6.11198
7.02536
8.04972
9.20649
10.5119
11.9709
13.5918
15.3879
17.3952
19.6177
22.0676
24.7334
27.6037
30.6247
33.6581
36.5192
39.1312
42.2822
48.0336
53.3602
52.2441
40.5517
15.9447
2.95299
0.360712
0.0376699
0.00849146
0.00663984
0.00663078
0.00670613
0.00689593
0.00731541
0.0075142
0.00719077
0.00692029
0.00703479
0.00721356
0.00743987
0.00773669
0.00814089
0.008696
1.70319e-05
5.28011e-05
0.000637109
0.00378077
0.0137841
0.0370506
0.0806897
0.150473
0.249394
0.377821
0.535189
0.720657
0.933043
1.15931
1.4174
1.7146
2.05564
2.44515
2.88591
3.38197
3.93996
4.5727
5.29204
6.10746
7.02358
8.04777
9.19467
10.4865
11.94
13.5619
15.3552
17.3468
19.5534
21.9983
24.6673
27.5486
30.6081
33.7507
36.7821
39.5363
42.3883
47.1736
54.5829
55.1647
48.839
26.8768
6.60464
0.949686
0.103942
0.0139436
0.00691801
0.00659487
0.00665649
0.00673668
0.00700331
0.0073715
0.00746182
0.00695216
0.00689455
0.00703425
0.00721359
0.00743992
0.00773677
0.00814094
0.008696
1.70216e-05
5.27092e-05
0.000634853
0.00376217
0.0136993
0.0368159
0.0802323
0.149831
0.248895
0.378059
0.53643
0.723273
0.936919
1.16323
1.41986
1.71503
2.05456
2.44359
2.88639
3.38682
3.94839
4.57889
5.29272
6.10274
7.01925
8.04659
9.1927
10.4736
11.913
13.5297
15.3268
17.3092
19.5022
21.9295
24.6006
27.4998
30.5899
33.806
36.9903
39.9443
42.725
46.6273
53.5316
57.2374
54.4099
38.5595
13.1824
2.30159
0.281142
0.0312145
0.00811239
0.006605
0.00661423
0.00667104
0.00678255
0.00712215
0.00739525
0.0071785
0.00682493
0.00688827
0.00703421
0.00721366
0.00743997
0.00773675
0.00814099
0.00869605
1.70303e-05
5.27122e-05
0.000634173
0.00375156
0.0136423
0.0366218
0.0797982
0.149115
0.248014
0.377479
0.536849
0.724949
0.940048
1.16808
1.42467
1.71821
2.05522
2.44241
2.88492
3.38758
3.95444
4.58896
5.3
6.10369
7.01444
8.04222
9.19149
10.4716
11.8997
13.5006
15.2945
17.2769
19.4689
21.8766
24.5398
27.4359
30.5562
33.8344
37.1378
40.2757
43.175
46.5581
52.4976
58.7556
58.1827
48.3779
23.0523
5.11241
0.7156
0.0801086
0.012234
0.00680495
0.00656336
0.00661514
0.0067011
0.00686315
0.00724753
0.00734174
0.00693699
0.0067761
0.00688729
0.00703427
0.00721377
0.00744003
0.00773679
0.00814098
0.00869606
1.70532e-05
5.27835e-05
0.000634598
0.00374944
0.013612
0.0364942
0.0794396
0.148429
0.247017
0.376368
0.536218
0.725602
0.94214
1.17205
1.43059
1.72415
2.05932
2.44346
2.88381
3.38611
3.95571
4.59629
5.31194
6.11249
7.01537
8.03733
9.18744
10.471
11.8977
13.4881
15.2652
17.2478
19.4357
21.8439
24.4916
27.3857
30.5197
33.8437
37.2419
40.5562
43.6192
46.7638
51.7398
59.5728
60.8569
55.4948
34.782
10.2892
1.69779
0.206463
0.0246357
0.0076746
0.0065505
0.00655881
0.00661974
0.00671214
0.00700126
0.0072858
0.0072094
0.00674957
0.0067653
0.00688719
0.00703437
0.00721386
0.00744012
0.00773686
0.00814106
0.00869606
1.70719e-05
5.28915e-05
0.000635773
0.00375329
0.0136097
0.036432
0.079212
0.147871
0.246058
0.375097
0.534902
0.724954
0.943046
1.17462
1.43556
1.73128
2.06662
2.44839
2.88512
3.3848
3.95395
4.59822
5.32095
6.12643
7.02571
8.03863
9.183
10.4677
11.898
13.4844
15.2484
17.2188
19.4077
21.8172
24.4602
27.3506
30.4849
33.8429
37.3242
40.7677
44.0226
47.1441
51.2905
58.4047
62.8509
60.4496
45.9606
18.514
3.72677
0.508428
0.0583473
0.0105401
0.00667975
0.0065097
0.00656682
0.00662683
0.00678585
0.00711684
0.00729705
0.00690257
0.0066773
0.00676348
0.00688724
0.00703447
0.00721398
0.00744019
0.00773692
0.0081411
0.00869608
1.70839e-05
5.29828e-05
0.000637354
0.00376129
0.0136272
0.0364368
0.0791117
0.147524
0.245283
0.373864
0.533369
0.723452
0.942485
1.17587
1.43884
1.73734
2.07522
2.45701
2.89097
3.38635
3.95244
4.59611
5.32351
6.13732
7.04202
8.05031
9.18472
10.4632
11.896
13.4866
15.248
17.2034
19.3788
21.7845
24.4297
27.3217
30.4587
33.8282
37.3685
40.9442
44.356
47.5551
51.2225
57.4382
64.3393
63.9889
54.922
29.4035
7.52733
1.17625
0.142668
0.0187885
0.00725571
0.00648988
0.00651827
0.00657938
0.00665008
0.00686336
0.00718732
0.00712962
0.00669251
0.0066596
0.00676328
0.0068874
0.00703465
0.00721407
0.00744026
0.00773699
0.00814113
0.0086961
1.70847e-05
5.30426e-05
0.000638661
0.00377104
0.0136579
0.0364902
0.0791418
0.147391
0.244819
0.372881
0.531876
0.721682
0.940965
1.17532
1.44043
1.74142
2.08251
2.46746
2.90128
3.39341
3.95454
4.59471
5.32146
6.1406
7.05467
8.06932
9.19759
10.4657
11.8921
13.4873
15.2504
17.2067
19.3717
21.7618
24.4034
27.2934
30.4409
33.824
37.4067
41.0779
44.6471
47.9667
51.3651
56.6805
64.9348
66.5796
61.4671
41.2705
13.857
2.54909
0.33865
0.0403945
0.00908607
0.00656291
0.00647048
0.00653759
0.00659246
0.00668068
0.00699579
0.00717138
0.00689503
0.0065919
0.00665684
0.00676337
0.00688755
0.00703476
0.00721417
0.00744034
0.007737
0.00814114
0.00869611
1.70714e-05
5.30556e-05
0.000639525
0.00377913
0.0136945
0.0365757
0.0792655
0.147474
0.244674
0.372311
0.530701
0.719945
0.939124
1.17354
1.43993
1.74338
2.08743
2.47623
2.91386
3.40582
3.96305
4.59722
5.31968
6.13843
7.0593
8.08428
9.21975
10.4807
11.8957
13.4841
15.2537
17.2077
19.3709
21.7533
24.3835
27.2772
30.4248
33.8296
37.4401
41.1853
44.8956
48.3402
51.672
56.169
63.7976
68.5679
66.1525
52.0049
23.0971
5.15385
0.765693
0.0928765
0.0141592
0.00690512
0.006442
0.00648385
0.00654118
0.00661275
0.00677573
0.00706564
0.00712075
0.00663424
0.00656702
0.00665659
0.00676354
0.00688769
0.00703488
0.00721429
0.00744043
0.00773709
0.00814121
0.00869617
1.70422e-05
5.30137e-05
0.000639753
0.00378454
0.013725
0.036673
0.0794497
0.147709
0.244837
0.372176
0.53005
0.718592
0.937331
1.17149
1.43798
1.74293
2.08985
2.4821
2.92445
3.42073
3.97733
4.60719
5.32232
6.13626
7.05695
8.09033
9.23788
10.5056
11.9132
13.4903
15.2532
17.2113
19.3771
21.758
24.3795
27.2599
30.4138
33.8365
37.4842
41.286
45.0891
48.698
52.0541
56.0698
62.8568
70.1188
69.6388
60.4727
34.4629
9.67462
1.63861
0.212677
0.027064
0.00797231
0.006467
0.00643547
0.00649288
0.006538
0.00662113
0.00688265
0.00711695
0.00682324
0.00651621
0.00656334
0.00665671
0.00676368
0.00688783
0.00703502
0.00721439
0.00744052
0.00773719
0.00814131
0.00869619
1.70029e-05
5.29106e-05
0.000639313
0.00378642
0.0137448
0.0367538
0.0796563
0.148044
0.245231
0.37246
0.529957
0.717886
0.936022
1.16951
1.43567
1.74084
2.08943
2.48511
2.93143
3.43333
3.9949
4.62352
5.33358
6.13912
7.05479
8.08838
9.24608
10.5275
11.9417
13.5091
15.2621
17.2149
19.3864
21.7765
24.3968
27.2739
30.415
33.8316
37.512
41.3795
45.2858
49.0313
52.474
56.1736
62.0978
70.9564
72.3162
66.7869
46.2094
16.7075
3.30634
0.470007
0.0578257
0.0108655
0.00664109
0.00639921
0.00644754
0.00649227
0.00654954
0.00669331
0.00699856
0.00696632
0.00658331
0.00648429
0.00656311
0.0066569
0.00676387
0.006888
0.00703514
0.00721451
0.00744065
0.00773728
0.00814133
0.00869621
1.69458e-05
5.27724e-05
0.000638132
0.00378402
0.0137524
0.0368082
0.0798279
0.148416
0.245771
0.373058
0.530395
0.717871
0.935483
1.16804
1.43343
1.73828
2.08702
2.48481
2.93495
3.44169
4.00984
4.64446
5.35306
6.15211
7.05804
8.08628
9.2448
10.5388
11.9675
13.5421
15.2841
17.2247
19.3904
21.7822
24.4186
27.2942
30.4371
33.8499
37.5355
41.4429
45.4496
49.3388
52.9387
56.4642
61.5241
69.8531
74.4538
71.5255
56.6394
26.3467
6.26096
0.988858
0.126582
0.0180927
0.00720607
0.00638845
0.00639899
0.0064531
0.00651483
0.00657544
0.00680575
0.00699344
0.00681275
0.00644383
0.00648016
0.00656318
0.00665707
0.00676407
0.00688817
0.00703531
0.00721466
0.00744075
0.00773741
0.0081414
0.00869627
1.68818e-05
5.25667e-05
0.000636398
0.00377739
0.0137457
0.0368302
0.0799449
0.148722
0.246353
0.373837
0.531232
0.718505
0.935723
1.16758
1.43183
1.7357
2.08415
2.48198
2.9348
3.44609
4.02002
4.66218
5.3777
6.17489
7.07288
8.0893
9.24252
10.5386
11.9819
13.5715
15.3209
17.2568
19.4065
21.7972
24.4242
27.3193
30.4729
33.8886
37.5735
41.5125
45.5951
49.632
53.3877
56.9086
61.3503
68.9026
76.1608
75.1985
65.0255
37.7183
11.085
1.97388
0.270717
0.0348799
0.0087365
0.00645618
0.00635393
0.00640525
0.00647391
0.00651928
0.00663398
0.00689325
0.00700183
0.00651101
0.00640948
0.00647993
0.00656338
0.00665725
0.00676424
0.00688834
0.00703548
0.0072148
0.00744092
0.0077375
0.00814151
0.00869631
1.6808e-05
5.23331e-05
0.000633886
0.00376756
0.013723
0.036815
0.079995
0.148934
0.246836
0.374674
0.532299
0.719628
0.936678
1.16802
1.43129
1.73397
2.08128
2.47874
2.93167
3.44589
4.02541
4.67449
5.39884
6.2035
7.09881
8.10644
9.24518
10.536
11.983
13.5899
15.3546
17.3002
19.4444
21.8216
24.4484
27.3472
30.5022
33.9462
37.6365
41.5866
45.7243
49.8797
53.8098
57.4371
61.461
68.1367
77.6065
78.0929
71.4956
49.3518
18.2414
3.7448
0.556265
0.0713138
0.0124669
0.00672286
0.00632418
0.00635772
0.00642043
0.00646885
0.00654837
0.00672199
0.00695341
0.00668314
0.00637715
0.00640526
0.00648008
0.0065636
0.00665746
0.00676444
0.00688853
0.00703567
0.00721498
0.00744104
0.0077376
0.00814163
0.00869636
1.67292e-05
5.20666e-05
0.000631009
0.00375339
0.0136891
0.0367609
0.0799716
0.149032
0.247176
0.375373
0.533442
0.72103
0.938198
1.16936
1.43193
1.7334
2.07937
2.47549
2.92789
3.44237
4.02536
4.68081
5.41336
6.2284
7.132
8.13542
9.26412
10.5392
11.9809
13.5937
15.3807
17.3393
19.4925
21.8592
24.4807
27.3737
30.543
33.9871
37.7083
41.6749
45.8434
50.0951
54.2008
57.9578
61.7775
67.5792
76.7061
80.448
76.4959
59.8079
27.7884
6.73657
1.0977
0.146069
0.0208707
0.00745586
0.00633636
0.00631487
0.0063711
0.0064228
0.00646734
0.00655006
0.00683744
0.006789
0.00645642
0.0063408
0.00640514
0.00648029
0.00656382
0.00665766
0.00676462
0.00688871
0.00703586
0.00721516
0.00744122
0.00773778
0.00814171
0.00869636
1.66466e-05
5.17789e-05
0.000627712
0.00373676
0.0136402
0.0366764
0.0798674
0.149003
0.247339
0.375877
0.534393
0.722517
0.940017
1.1713
1.43364
1.73425
2.07898
2.47352
2.92435
3.43814
4.02111
4.68101
5.42075
6.24571
7.16091
8.17409
9.29672
10.5599
11.9844
13.593
15.3859
17.3695
19.5373
21.9137
24.5294
27.4102
30.5806
34.0412
37.7837
41.7864
45.9878
50.308
54.5427
58.4754
62.2562
67.3054
75.756
82.3623
80.4792
68.418
38.94
11.4434
2.07664
0.293247
0.0387443
0.0092085
0.0064405
0.00628124
0.00632894
0.00638031
0.00642832
0.00646333
0.00667605
0.00681777
0.00667027
0.00630736
0.00633725
0.0064053
0.0064805
0.00656401
0.00665787
0.00676484
0.00688892
0.00703606
0.00721533
0.00744139
0.00773796
0.00814181
0.00869644
1.65626e-05
5.14794e-05
0.000624145
0.0037178
0.0135828
0.036555
0.0797003
0.148831
0.247312
0.376122
0.535064
0.723742
0.941924
1.17361
1.4361
1.73637
2.08023
2.47322
2.92217
3.43398
4.01635
4.67597
5.42128
6.25467
7.18159
8.20773
9.3413