# y+ ()       
# Time        	patch         	min           	max           	average       
12200         	base	3.406967e-02	6.369427e-01	2.626793e-01
