# p  FACE_DATA 398
# x  y  z  p
-0.7975 0 0.025 4472.44
-0.79239 0 0.025 3631.41
-0.787056 0 0.025 3019.47
-0.781492 0 0.025 2867.91
-0.775691 0 0.025 2749.39
-0.769649 0 0.025 2712.81
-0.763362 0 0.025 2718.54
-0.756822 0 0.025 2740.48
-0.750025 0 0.025 2758.38
-0.742968 0 0.025 2768.35
-0.735648 0 0.025 2775.93
-0.72806 0 0.025 2778.38
-0.720203 0 0.025 2777.67
-0.712076 0 0.025 2777.51
-0.703677 0 0.025 2777.38
-0.695006 0 0.025 2775.6
-0.686065 0 0.025 2775.2
-0.676855 0 0.025 2770.82
-0.667379 0 0.025 2768.4
-0.65764 0 0.025 2769.32
-0.647644 0 0.025 2765.61
-0.637397 0 0.025 2761.84
-0.626906 0 0.025 2763.41
-0.616179 0 0.025 2759.44
-0.605224 0 0.025 2757.9
-0.594054 0 0.025 2754.76
-0.582678 0 0.025 2754.08
-0.57111 0 0.025 2752.39
-0.559364 0 0.025 2752.51
-0.547454 0 0.025 2749.53
-0.535396 0 0.025 2747.67
-0.523205 0 0.025 2745.97
-0.510901 0 0.025 2744.2
-0.4985 0 0.025 2745.33
-0.486021 0 0.025 2744.03
-0.473483 0 0.025 2741.46
-0.460905 0 0.025 2739.51
-0.448308 0 0.025 2737.85
-0.435709 0 0.025 2736.55
-0.42313 0 0.025 2737.3
-0.41059 0 0.025 2736.93
-0.39811 0 0.025 2735.09
-0.385706 0 0.025 2733.04
-0.373398 0 0.025 2731.89
-0.361205 0 0.025 2730.8
-0.349141 0 0.025 2729.45
-0.337226 0 0.025 2728.74
-0.325475 0 0.025 2728.43
-0.313901 0 0.025 2729.02
-0.30252 0 0.025 2728.77
-0.291343 0 0.025 2727.61
-0.280382 0 0.025 2726.01
-0.269646 0 0.025 2724.83
-0.259148 0 0.025 2723.65
-0.248893 0 0.025 2722.68
-0.23889 0 0.025 2721.8
-0.229143 0 0.025 2721.37
-0.219659 0 0.025 2720.64
-0.210441 0 0.025 2720.05
-0.201491 0 0.025 2719.33
-0.192812 0 0.025 2718.99
-0.184405 0 0.025 2718.43
-0.176269 0 0.025 2717.99
-0.168404 0 0.025 2717.45
-0.160808 0 0.025 2717.3
-0.15348 0 0.025 2717.25
-0.146415 0 0.025 2717.57
-0.13961 0 0.025 2717.92
-0.133063 0 0.025 2718.4
-0.126767 0 0.025 2718.63
-0.120718 0 0.025 2718.77
-0.11491 0 0.025 2718.73
-0.109339 0 0.025 2718.65
-0.103997 0 0.025 2718.32
-0.0988805 0 0.025 2717.87
-0.0939808 0 0.025 2717.2
-0.0892928 0 0.025 2716.37
-0.0848096 0 0.025 2715.34
-0.0805248 0 0.025 2714.22
-0.0764316 0 0.025 2713.03
-0.0725237 0 0.025 2711.83
-0.0687943 0 0.025 2710.68
-0.065237 0 0.025 2709.57
-0.0618454 0 0.025 2708.52
-0.058613 0 0.025 2707.53
-0.0555337 0 0.025 2706.64
-0.0526013 0 0.025 2705.83
-0.0498099 0 0.025 2705.12
-0.0471536 0 0.025 2704.49
-0.0446266 0 0.025 2703.92
-0.0422235 0 0.025 2703.54
-0.039939 0 0.025 2704.72
-0.0377676 0 0.025 2770.52
-0.0357044 0 0.025 3356.43
-0.0337445 0 0.025 4409.73
-0.0318832 0 0.025 5264.31
-0.0301159 0 0.025 5853.11
-0.0284383 0 0.025 6333.41
-0.0268461 0 0.025 6743.85
-0.0253353 0 0.025 7114.5
-0.023902 0 0.025 7463.33
-0.0225426 0 0.025 7794.53
-0.0212532 0 0.025 8096.11
-0.0200306 0 0.025 8367.78
-0.0188715 0 0.025 8614
-0.0177728 0 0.025 8839.15
-0.0167313 0 0.025 9046.55
-0.0157444 0 0.025 9239.56
-0.0148092 0 0.025 9420.73
-0.0139232 0 0.025 9589.88
-0.0130838 0 0.025 9748.09
-0.0122887 0 0.025 9895.23
-0.0115356 0 0.025 10032.3
-0.0108223 0 0.025 10159.8
-0.0101469 0 0.025 10277.9
-0.00950727 0 0.025 10386.8
-0.00890168 0 0.025 10486.9
-0.00832835 0 0.025 10578.4
-0.00778557 0 0.025 10661.9
-0.00727176 0 0.025 10737.8
-0.0067854 0 0.025 10807.1
-0.00632507 0 0.025 10870.7
-0.00588937 0 0.025 10929.8
-0.00547703 0 0.025 10985.6
-0.0050868 0 0.025 11039.4
-0.00471753 0 0.025 11092.6
-0.0043681 0 0.025 11146.6
-0.00403746 0 0.025 11203.6
-0.00372461 0 0.025 11263.9
-0.0034286 0 0.025 11328.6
-0.00314855 0 0.025 11399.6
-0.0028836 0 0.025 11480.2
-0.00263294 0 0.025 11567.2
-0.00239581 0 0.025 11659.9
-0.0021715 0 0.025 11760.9
-0.00195929 0 0.025 11869.6
-0.00175856 0 0.025 11985.6
-0.00156869 0 0.025 12108.2
-0.00138908 0 0.025 12236.5
-0.0012192 0 0.025 12368.9
-0.00105853 0 0.025 12504.1
-0.000906546 0 0.025 12639.3
-0.000762803 0 0.025 12770
-0.000626848 0 0.025 12889.7
-0.000498265 0 0.025 12987.6
-0.000376656 0 0.025 13052.2
-0.000261642 0 0.025 13072.2
-0.00015287 0 0.025 13073.5
-5e-05 0 0.025 13111.9
4.14519e-05 2.79596e-05 0.025 12776
0.000125371 8.45641e-05 0.025 12833.7
0.000211347 0.000142556 0.025 12811.2
0.000299429 0.000201968 0.025 12751.6
0.000389669 0.000262835 0.025 12676.6
0.000482118 0.000325193 0.025 12595.7
0.000576831 0.000389077 0.025 12513.4
0.000673861 0.000454524 0.025 12433.9
0.000773265 0.000521574 0.025 12362
0.0008751 0.000590262 0.025 12302.6
0.000979426 0.000660632 0.025 12259
0.0010863 0.000732721 0.025 12230.6
0.00119579 0.000806572 0.025 12219.4
0.00130795 0.000882227 0.025 12225.7
0.00142285 0.00095973 0.025 12247.7
0.00154056 0.00103912 0.025 12283.3
0.00166115 0.00112046 0.025 12332.8
0.00178467 0.00120378 0.025 12395.3
0.00191121 0.00128913 0.025 12469
0.00204083 0.00137656 0.025 12555.5
0.00217362 0.00146612 0.025 12652.6
0.00230964 0.00155787 0.025 12759.8
0.00244897 0.00165185 0.025 12877.5
0.00259169 0.00174812 0.025 13005.4
0.00273789 0.00184673 0.025 13143.6
0.00288765 0.00194774 0.025 13291.6
0.00304105 0.00205122 0.025 13449.9
0.00319818 0.00215719 0.025 13618.6
0.00335912 0.00226575 0.025 13797.7
0.00352397 0.00237695 0.025 13987.8
0.00369283 0.00249085 0.025 14189.1
0.00386579 0.00260751 0.025 14402.5
0.00404294 0.00272699 0.025 14628.4
0.00422438 0.00284938 0.025 14867.2
0.00441022 0.00297474 0.025 15119.9
0.00460056 0.00310312 0.025 15387.8
0.00479552 0.00323462 0.025 15671.7
0.00499519 0.0033693 0.025 15972.2
0.00519968 0.00350723 0.025 16291.3
0.00540911 0.00364849 0.025 16629.9
0.00562361 0.00379318 0.025 16989.4
0.00584329 0.00394134 0.025 17371.5
0.00606826 0.00409309 0.025 17778.2
0.00629865 0.00424849 0.025 18211.1
0.0065346 0.00440764 0.025 18672.7
0.00677623 0.00457063 0.025 19165
0.00702368 0.00473753 0.025 19691
0.00727707 0.00490844 0.025 20252.6
0.00753655 0.00508347 0.025 20853.3
0.00780227 0.00526269 0.025 21496.2
0.00807436 0.00544622 0.025 22184.3
0.00835298 0.00563415 0.025 22922
0.00863826 0.00582659 0.025 23713.3
0.00893038 0.00602362 0.025 24562.9
0.00922949 0.00622537 0.025 25475.6
0.00953574 0.00643195 0.025 26459.5
0.00984929 0.00664345 0.025 27519.2
0.0101703 0.00686 0.025 28665.1
0.0104991 0.00708171 0.025 29905.6
0.0108356 0.00730871 0.025 31251.3
0.0111801 0.0075411 0.025 32714.2
0.0115329 0.00777902 0.025 34298.1
0.011894 0.00802259 0.025 36028.5
0.0122637 0.00827194 0.025 37919.8
0.0126421 0.00852719 0.025 39987.3
0.0130295 0.0087885 0.025 42249.2
0.013426 0.00905597 0.025 44729.4
0.013832 0.00932978 0.025 47445.9
0.0142475 0.00961003 0.025 50427.8
0.0146727 0.0098969 0.025 53697.3
0.0151081 0.0101905 0.025 57288.1
0.0155536 0.010491 0.025 61233.6
0.0160097 0.0107986 0.025 65569.8
0.0164764 0.0111134 0.025 70304.7
0.016954 0.0114356 0.025 75505.7
0.0174427 0.0117653 0.025 81162.8
0.0179429 0.0121026 0.025 87325
0.0184548 0.0124479 0.025 94039.2
0.0189786 0.0128013 0.025 101310
0.0195146 0.0131628 0.025 109160
0.020063 0.0135327 0.025 117528
0.0206242 0.0139112 0.025 126354
0.0211983 0.0142984 0.025 135672
0.0217857 0.0146947 0.025 145443
0.0223867 0.0151 0.025 155872
0.0230015 0.0155147 0.025 166946
0.0236304 0.0159389 0.025 178365
0.0242738 0.0163729 0.025 188848
0.0249318 0.0168167 0.025 196148
0.025605 0.0172708 0.025 199159
0.0262935 0.0177352 0.025 195493
0.0269977 0.0182102 0.025 188087
0.0277178 0.0186959 0.025 178904
0.0284544 0.0191927 0.025 169556
0.0292075 0.0197008 0.025 160730
0.0299777 0.0202203 0.025 153157
0.0307653 0.0207514 0.025 146778
0.0315704 0.0212945 0.025 141340
0.0323937 0.0218499 0.025 136612
0.0332354 0.0224176 0.025 132531
0.0340959 0.022998 0.025 129350
0.0349755 0.0235913 0.025 127118
0.0358747 0.0241978 0.025 125590
0.0367938 0.0248178 0.025 124250
0.0377331 0.0254513 0.025 122985
0.0386932 0.0260989 0.025 122120
0.0396743 0.0267606 0.025 121845
0.0406769 0.0274369 0.025 122221
0.0417013 0.0281279 0.025 122556
0.042748 0.0288339 0.025 122815
0.0438175 0.0295552 0.025 122933
0.04491 0.0302922 0.025 122852
0.0460262 0.031045 0.025 122924
0.0471662 0.031814 0.025 123278
0.0483306 0.0325995 0.025 123958
0.0495199 0.0334016 0.025 124569
0.0507344 0.0342208 0.025 124638
0.0519746 0.0350573 0.025 124277
0.0532409 0.0359114 0.025 124004
0.0545339 0.0367835 0.025 123937
0.0558538 0.0376739 0.025 124350
0.0572012 0.0385827 0.025 124677
0.0585766 0.0395104 0.025 124681
0.0599804 0.0404573 0.025 124613
0.061413 0.0414236 0.025 124626
0.0628748 0.0424096 0.025 125040
0.0643665 0.0434157 0.025 125646
0.0658883 0.0444422 0.025 126259
0.0674408 0.0454894 0.025 126609
0.0690245 0.0465576 0.025 126693
0.0706398 0.0476471 0.025 126671
0.0722871 0.0487582 0.025 126663
0.0739669 0.0498912 0.025 126760
0.0756797 0.0510466 0.025 126923
0.0774258 0.0522244 0.025 127067
0.0792059 0.053425 0.025 127201
0.0810203 0.0546489 0.025 127360
0.0828694 0.0558961 0.025 127614
0.0847537 0.0571671 0.025 127835
0.0866737 0.0584622 0.025 127993
0.0886298 0.0597816 0.025 127819
0.0906224 0.0611256 0.025 127299
0.0926518 0.0624944 0.025 126565
0.0947185 0.0638884 0.025 125870
0.096823 0.065308 0.025 125618
0.0989659 0.0667532 0.025 125909
0.101147 0.0682245 0.025 126597
0.103367 0.0697219 0.025 127283
0.105626 0.0712458 0.025 127548
0.107926 0.0727965 0.025 127346
0.110265 0.074374 0.025 126908
0.112644 0.0759789 0.025 126252
0.115063 0.0776111 0.025 126404
0.117524 0.0792709 0.025 126586
0.120026 0.0809585 0.025 127215
0.122569 0.0826741 0.025 127822
0.125155 0.0844179 0.025 127930
0.127782 0.0861901 0.025 127800
0.130451 0.0879908 0.025 127199
0.133163 0.08982 0.025 126782
0.135918 0.0916781 0.025 126642
0.138716 0.0935651 0.025 127045
0.141556 0.095481 0.025 127365
0.14444 0.097426 0.025 127442
0.147367 0.0994004 0.025 126851
0.150337 0.101404 0.025 126978
0.153351 0.103437 0.025 126541
0.156408 0.105498 0.025 125778
0.159508 0.107589 0.025 126701
0.162651 0.10971 0.025 126461
0.165838 0.111859 0.025 125289
0.169069 0.114039 0.025 125801
0.172343 0.116247 0.025 124999
0.175659 0.118483 0.025 124031
0.179018 0.120749 0.025 123060
0.182421 0.123045 0.025 122312
0.185866 0.125368 0.025 122108
0.189353 0.12772 0.025 121775
0.192882 0.1301 0.025 121444
0.196453 0.132509 0.025 121292
0.200065 0.134946 0.025 121166
0.203718 0.13741 0.025 121888
0.207412 0.139901 0.025 122735
0.211146 0.14242 0.025 122508
0.214919 0.144965 0.025 121922
0.218732 0.147537 0.025 121740
0.222583 0.150134 0.025 120455
0.226472 0.152757 0.025 120564
0.230399 0.155406 0.025 120069
0.234362 0.15808 0.025 120144
0.238362 0.160777 0.025 120084
0.242396 0.163498 0.025 120684
0.246466 0.166244 0.025 120870
0.250569 0.169012 0.025 121712
0.254706 0.171801 0.025 121009
0.258874 0.174613 0.025 120843
0.263074 0.177446 0.025 120429
0.267304 0.180299 0.025 120942
0.271564 0.183172 0.025 121237
0.275852 0.186064 0.025 120934
0.280168 0.188975 0.025 121263
0.28451 0.191904 0.025 120997
0.288876 0.19485 0.025 120558
0.293268 0.197812 0.025 120979
0.297683 0.20079 0.025 120125
0.302119 0.203782 0.025 119850
0.306577 0.206788 0.025 119967
0.311054 0.209808 0.025 119676
0.315549 0.212841 0.025 120168
0.320063 0.215885 0.025 119846
0.324591 0.218939 0.025 120674
0.329134 0.222003 0.025 121348
0.333691 0.225077 0.025 121192
0.33826 0.228159 0.025 121797
0.342839 0.231248 0.025 121671
0.347428 0.234343 0.025 122133
0.352025 0.237444 0.025 121125
0.356628 0.240548 0.025 121267
0.361237 0.243658 0.025 121227
0.36585 0.246769 0.025 120353
0.370465 0.249882 0.025 121368
0.375082 0.252996 0.025 120832
0.379698 0.25611 0.025 120620
0.384313 0.259223 0.025 121274
0.388926 0.262333 0.025 120756
0.393534 0.265442 0.025 121044
0.398136 0.268546 0.025 121148
0.40273 0.271645 0.025 120634
0.407317 0.274739 0.025 120569
0.411894 0.277826 0.025 120228
0.41646 0.280906 0.025 121167
0.421014 0.283977 0.025 120645
0.425554 0.28704 0.025 120530
0.430079 0.290092 0.025 120891
0.434588 0.293133 0.025 120826
0.439079 0.296162 0.025 121360
0.443551 0.299179 0.025 121091
0.448004 0.302183 0.025 120972
0.452437 0.305172 0.025 121066
0.456846 0.308146 0.025 121274
0.461232 0.311105 0.025 121238
0.465593 0.314047 0.025 121337
0.469929 0.316971 0.025 121072
0.474238 0.319878 0.025 121864
0.47852 0.322766 0.025 121478
0.482773 0.325635 0.025 121452
0.486996 0.328483 0.025 120994
0.491189 0.331311 0.025 120483
0.49535 0.334118 0.025 121289
