# wallHeatFlux  FACE_DATA 398
# x  y  z  wallHeatFlux
-0.7975 0 0.025 -653698
-0.79239 0 0.025 -120557
-0.787056 0 0.025 -69687.6
-0.781492 0 0.025 -57903.3
-0.775691 0 0.025 -61210.2
-0.769649 0 0.025 -63458
-0.763362 0 0.025 -64567.4
-0.756822 0 0.025 -64752.1
-0.750025 0 0.025 -64388.9
-0.742968 0 0.025 -63760.2
-0.735648 0 0.025 -62837.6
-0.72806 0 0.025 -61781
-0.720203 0 0.025 -60698.2
-0.712076 0 0.025 -59701.3
-0.703677 0 0.025 -58751.2
-0.695006 0 0.025 -57885.4
-0.686065 0 0.025 -56901.3
-0.676855 0 0.025 -56012.3
-0.667379 0 0.025 -55298.2
-0.65764 0 0.025 -54519.6
-0.647644 0 0.025 -53759
-0.637397 0 0.025 -53184.2
-0.626906 0 0.025 -52444.2
-0.616179 0 0.025 -51843.6
-0.605224 0 0.025 -51243.5
-0.594054 0 0.025 -50684
-0.582678 0 0.025 -50094.2
-0.57111 0 0.025 -49636.5
-0.559364 0 0.025 -49172.5
-0.547454 0 0.025 -48700
-0.535396 0 0.025 -48226
-0.523205 0 0.025 -47769.2
-0.510901 0 0.025 -47420.1
-0.4985 0 0.025 -47099
-0.486021 0 0.025 -46738.8
-0.473483 0 0.025 -46392.6
-0.460905 0 0.025 -46000.7
-0.448308 0 0.025 -45634.7
-0.435709 0 0.025 -45369.2
-0.42313 0 0.025 -45186.9
-0.41059 0 0.025 -44965.9
-0.39811 0 0.025 -44678.7
-0.385706 0 0.025 -44378.9
-0.373398 0 0.025 -44111.4
-0.361205 0 0.025 -43880.6
-0.349141 0 0.025 -43653.2
-0.337226 0 0.025 -43479.3
-0.325475 0 0.025 -43337.2
-0.313901 0 0.025 -43211
-0.30252 0 0.025 -43089.3
-0.291343 0 0.025 -42920.5
-0.280382 0 0.025 -42730.2
-0.269646 0 0.025 -42512.2
-0.259148 0 0.025 -42284.1
-0.248893 0 0.025 -42063.1
-0.23889 0 0.025 -41906.8
-0.229143 0 0.025 -41787.6
-0.219659 0 0.025 -41734.3
-0.210441 0 0.025 -41718.3
-0.201491 0 0.025 -41721.2
-0.192812 0 0.025 -41716.7
-0.184405 0 0.025 -41695
-0.176269 0 0.025 -41639.4
-0.168404 0 0.025 -41548.2
-0.160808 0 0.025 -41408.9
-0.15348 0 0.025 -41251
-0.146415 0 0.025 -41083.3
-0.13961 0 0.025 -40909
-0.133063 0 0.025 -40736.5
-0.126767 0 0.025 -40580.9
-0.120718 0 0.025 -40452.5
-0.11491 0 0.025 -40346.2
-0.109339 0 0.025 -40256.5
-0.103997 0 0.025 -40192.9
-0.0988805 0 0.025 -40143.7
-0.0939808 0 0.025 -40113.5
-0.0892928 0 0.025 -40100.6
-0.0848096 0 0.025 -40098.5
-0.0805248 0 0.025 -40112.9
-0.0764316 0 0.025 -40138.3
-0.0725237 0 0.025 -40163.7
-0.0687943 0 0.025 -40195.2
-0.065237 0 0.025 -40231.5
-0.0618454 0 0.025 -40258.1
-0.058613 0 0.025 -40278.5
-0.0555337 0 0.025 -40294.6
-0.0526013 0 0.025 -40310.1
-0.0498099 0 0.025 -40320.5
-0.0471536 0 0.025 -40325.6
-0.0446266 0 0.025 -40325.3
-0.0422235 0 0.025 -40325.1
-0.039939 0 0.025 -40324.9
-0.0377676 0 0.025 -40324.3
-0.0357044 0 0.025 -40276.5
-0.0337445 0 0.025 -39970.5
-0.0318832 0 0.025 -38394.3
-0.0301159 0 0.025 -32684.6
-0.0284383 0 0.025 -24743.1
-0.0268461 0 0.025 -27614.9
-0.0253353 0 0.025 -40719.7
-0.023902 0 0.025 -51725.4
-0.0225426 0 0.025 -60276.4
-0.0212532 0 0.025 -66997.2
-0.0200306 0 0.025 -72644.2
-0.0188715 0 0.025 -77703.3
-0.0177728 0 0.025 -81985.7
-0.0167313 0 0.025 -85861.6
-0.0157444 0 0.025 -89395.1
-0.0148092 0 0.025 -92627.6
-0.0139232 0 0.025 -95684.1
-0.0130838 0 0.025 -98551.8
-0.0122887 0 0.025 -101193
-0.0115356 0 0.025 -103587
-0.0108223 0 0.025 -105727
-0.0101469 0 0.025 -107637
-0.00950727 0 0.025 -109324
-0.00890168 0 0.025 -110797
-0.00832835 0 0.025 -112074
-0.00778557 0 0.025 -113202
-0.00727176 0 0.025 -114241
-0.0067854 0 0.025 -115244
-0.00632507 0 0.025 -116257
-0.00588937 0 0.025 -117326
-0.00547703 0 0.025 -118480
-0.0050868 0 0.025 -119748
-0.00471753 0 0.025 -121140
-0.0043681 0 0.025 -122678
-0.00403746 0 0.025 -124365
-0.00372461 0 0.025 -126231
-0.0034286 0 0.025 -128288
-0.00314855 0 0.025 -130510
-0.0028836 0 0.025 -132955
-0.00263294 0 0.025 -135661
-0.00239581 0 0.025 -138568
-0.0021715 0 0.025 -141461
-0.00195929 0 0.025 -144444
-0.00175856 0 0.025 -147618
-0.00156869 0 0.025 -150950
-0.00138908 0 0.025 -154428
-0.0012192 0 0.025 -158061
-0.00105853 0 0.025 -161770
-0.000906546 0 0.025 -165545
-0.000762803 0 0.025 -169320
-0.000626848 0 0.025 -172801
-0.000498265 0 0.025 -175371
-0.000376656 0 0.025 -175175
-0.000261642 0 0.025 -168539
-0.00015287 0 0.025 -147769
-5e-05 0 0.025 -95500.3
4.14519e-05 2.79596e-05 0.025 -69570.9
0.000125371 8.45641e-05 0.025 -83314.2
0.000211347 0.000142556 0.025 -98557.6
0.000299429 0.000201968 0.025 -109516
0.000389669 0.000262835 0.025 -118936
0.000482118 0.000325193 0.025 -127870
0.000576831 0.000389077 0.025 -136130
0.000673861 0.000454524 0.025 -143476
0.000773265 0.000521574 0.025 -149904
0.0008751 0.000590262 0.025 -155522
0.000979426 0.000660632 0.025 -160478
0.0010863 0.000732721 0.025 -165014
0.00119579 0.000806572 0.025 -169163
0.00130795 0.000882227 0.025 -173109
0.00142285 0.00095973 0.025 -176850
0.00154056 0.00103912 0.025 -180529
0.00166115 0.00112046 0.025 -184126
0.00178467 0.00120378 0.025 -187704
0.00191121 0.00128913 0.025 -191336
0.00204083 0.00137656 0.025 -194968
0.00217362 0.00146612 0.025 -198663
0.00230964 0.00155787 0.025 -202471
0.00244897 0.00165185 0.025 -206382
0.00259169 0.00174812 0.025 -210409
0.00273789 0.00184673 0.025 -214600
0.00288765 0.00194774 0.025 -218962
0.00304105 0.00205122 0.025 -223481
0.00319818 0.00215719 0.025 -228201
0.00335912 0.00226575 0.025 -233178
0.00352397 0.00237695 0.025 -238344
0.00369283 0.00249085 0.025 -243808
0.00386579 0.00260751 0.025 -249566
0.00404294 0.00272699 0.025 -255656
0.00422438 0.00284938 0.025 -262077
0.00441022 0.00297474 0.025 -268863
0.00460056 0.00310312 0.025 -276063
0.00479552 0.00323462 0.025 -283705
0.00499519 0.0033693 0.025 -291855
0.00519968 0.00350723 0.025 -300378
0.00540911 0.00364849 0.025 -309524
0.00562361 0.00379318 0.025 -319280
0.00584329 0.00394134 0.025 -329685
0.00606826 0.00409309 0.025 -340911
0.00629865 0.00424849 0.025 -352706
0.0065346 0.00440764 0.025 -365431
0.00677623 0.00457063 0.025 -379132
0.00702368 0.00473753 0.025 -393840
0.00727707 0.00490844 0.025 -409832
0.00753655 0.00508347 0.025 -427182
0.00780227 0.00526269 0.025 -445830
0.00807436 0.00544622 0.025 -466056
0.00835298 0.00563415 0.025 -488620
0.00863826 0.00582659 0.025 -513094
0.00893038 0.00602362 0.025 -540042
0.00922949 0.00622537 0.025 -570529
0.00953574 0.00643195 0.025 -605075
0.00984929 0.00664345 0.025 -643663
0.0101703 0.00686 0.025 -683892
0.0104991 0.00708171 0.025 -729357
0.0108356 0.00730871 0.025 -775442
0.0111801 0.0075411 0.025 -820906
0.0115329 0.00777902 0.025 -867626
0.011894 0.00802259 0.025 -914373
0.0122637 0.00827194 0.025 -960439
0.0126421 0.00852719 0.025 -1.01074e+06
0.0130295 0.0087885 0.025 -1.06095e+06
0.013426 0.00905597 0.025 -1.11681e+06
0.013832 0.00932978 0.025 -1.17827e+06
0.0142475 0.00961003 0.025 -1.2418e+06
0.0146727 0.0098969 0.025 -1.30915e+06
0.0151081 0.0101905 0.025 -1.37701e+06
0.0155536 0.010491 0.025 -1.44513e+06
0.0160097 0.0107986 0.025 -1.50591e+06
0.0164764 0.0111134 0.025 -1.56755e+06
0.016954 0.0114356 0.025 -1.62929e+06
0.0174427 0.0117653 0.025 -1.67678e+06
0.0179429 0.0121026 0.025 -1.7205e+06
0.0184548 0.0124479 0.025 -1.77798e+06
0.0189786 0.0128013 0.025 -1.79263e+06
0.0195146 0.0131628 0.025 -1.8105e+06
0.020063 0.0135327 0.025 -1.84106e+06
0.0206242 0.0139112 0.025 -1.83755e+06
0.0211983 0.0142984 0.025 -1.82316e+06
0.0217857 0.0146947 0.025 -1.81962e+06
0.0223867 0.0151 0.025 -1.80979e+06
0.0230015 0.0155147 0.025 -1.79099e+06
0.0236304 0.0159389 0.025 -1.77323e+06
0.0242738 0.0163729 0.025 -1.73159e+06
0.0249318 0.0168167 0.025 -1.68469e+06
0.025605 0.0172708 0.025 -1.65786e+06
0.0262935 0.0177352 0.025 -1.61088e+06
0.0269977 0.0182102 0.025 -1.57136e+06
0.0277178 0.0186959 0.025 -1.52953e+06
0.0284544 0.0191927 0.025 -1.53885e+06
0.0292075 0.0197008 0.025 -1.4909e+06
0.0299777 0.0202203 0.025 -1.45203e+06
0.0307653 0.0207514 0.025 -1.42471e+06
0.0315704 0.0212945 0.025 -1.40117e+06
0.0323937 0.0218499 0.025 -1.38184e+06
0.0332354 0.0224176 0.025 -1.36482e+06
0.0340959 0.022998 0.025 -1.35255e+06
0.0349755 0.0235913 0.025 -1.33833e+06
0.0358747 0.0241978 0.025 -1.35201e+06
0.0367938 0.0248178 0.025 -1.33859e+06
0.0377331 0.0254513 0.025 -1.32969e+06
0.0386932 0.0260989 0.025 -1.32188e+06
0.0396743 0.0267606 0.025 -1.31352e+06
0.0406769 0.0274369 0.025 -1.31101e+06
0.0417013 0.0281279 0.025 -1.30075e+06
0.042748 0.0288339 0.025 -1.30773e+06
0.0438175 0.0295552 0.025 -1.29528e+06
0.04491 0.0302922 0.025 -1.28646e+06
0.0460262 0.031045 0.025 -1.29082e+06
0.0471662 0.031814 0.025 -1.29937e+06
0.0483306 0.0325995 0.025 -1.28872e+06
0.0495199 0.0334016 0.025 -1.291e+06
0.0507344 0.0342208 0.025 -1.2879e+06
0.0519746 0.0350573 0.025 -1.28682e+06
0.0532409 0.0359114 0.025 -1.29037e+06
0.0545339 0.0367835 0.025 -1.27497e+06
0.0558538 0.0376739 0.025 -1.26812e+06
0.0572012 0.0385827 0.025 -1.26409e+06
0.0585766 0.0395104 0.025 -1.26619e+06
0.0599804 0.0404573 0.025 -1.28172e+06
0.061413 0.0414236 0.025 -1.26434e+06
0.0628748 0.0424096 0.025 -1.2812e+06
0.0643665 0.0434157 0.025 -1.27379e+06
0.0658883 0.0444422 0.025 -1.24091e+06
0.0674408 0.0454894 0.025 -1.23155e+06
0.0690245 0.0465576 0.025 -1.23708e+06
0.0706398 0.0476471 0.025 -1.23735e+06
0.0722871 0.0487582 0.025 -1.23352e+06
0.0739669 0.0498912 0.025 -1.22792e+06
0.0756797 0.0510466 0.025 -1.23211e+06
0.0774258 0.0522244 0.025 -1.24094e+06
0.0792059 0.053425 0.025 -1.23381e+06
0.0810203 0.0546489 0.025 -1.25583e+06
0.0828694 0.0558961 0.025 -1.22094e+06
0.0847537 0.0571671 0.025 -1.2527e+06
0.0866737 0.0584622 0.025 -1.20643e+06
0.0886298 0.0597816 0.025 -1.19776e+06
0.0906224 0.0611256 0.025 -1.20329e+06
0.0926518 0.0624944 0.025 -1.17188e+06
0.0947185 0.0638884 0.025 -1.21238e+06
0.096823 0.065308 0.025 -1.17461e+06
0.0989659 0.0667532 0.025 -1.25364e+06
0.101147 0.0682245 0.025 -1.56532e+06
0.103367 0.0697219 0.025 -1.48556e+06
0.105626 0.0712458 0.025 -1.13507e+06
0.107926 0.0727965 0.025 -1.13507e+06
0.110265 0.074374 0.025 -1.17082e+06
0.112644 0.0759789 0.025 -1.71178e+06
0.115063 0.0776111 0.025 -1.16893e+06
0.117524 0.0792709 0.025 -1.57828e+06
0.120026 0.0809585 0.025 -1.70142e+06
0.122569 0.0826741 0.025 -1.51165e+06
0.125155 0.0844179 0.025 -1.36457e+06
0.127782 0.0861901 0.025 -1.20282e+06
0.130451 0.0879908 0.025 -1.17209e+06
0.133163 0.08982 0.025 -1.15459e+06
0.135918 0.0916781 0.025 -1.12562e+06
0.138716 0.0935651 0.025 -1.12042e+06
0.141556 0.095481 0.025 -1.12222e+06
0.14444 0.097426 0.025 -1.45265e+06
0.147367 0.0994004 0.025 -2.10941e+06
0.150337 0.101404 0.025 -1.54805e+06
0.153351 0.103437 0.025 -1.51055e+06
0.156408 0.105498 0.025 -2.05463e+06
0.159508 0.107589 0.025 -966912
0.162651 0.10971 0.025 -1.40158e+06
0.165838 0.111859 0.025 -3.08992e+06
0.169069 0.114039 0.025 -1.58148e+06
0.172343 0.116247 0.025 -1.82529e+06
0.175659 0.118483 0.025 -1.71976e+06
0.179018 0.120749 0.025 -1.72199e+06
0.182421 0.123045 0.025 -1.78501e+06
0.185866 0.125368 0.025 -1.58639e+06
0.189353 0.12772 0.025 -1.62439e+06
0.192882 0.1301 0.025 -1.7136e+06
0.196453 0.132509 0.025 -1.61987e+06
0.200065 0.134946 0.025 -1.97982e+06
0.203718 0.13741 0.025 -1.78234e+06
0.207412 0.139901 0.025 -866829
0.211146 0.14242 0.025 -925077
0.214919 0.144965 0.025 -1.49843e+06
0.218732 0.147537 0.025 -925786
0.222583 0.150134 0.025 -1.74767e+06
0.226472 0.152757 0.025 -911157
0.230399 0.155406 0.025 -1.65081e+06
0.234362 0.15808 0.025 -1.55446e+06
0.238362 0.160777 0.025 -2.08591e+06
0.242396 0.163498 0.025 -1.81775e+06
0.246466 0.166244 0.025 -1.96284e+06
0.250569 0.169012 0.025 -879367
0.254706 0.171801 0.025 -1.42765e+06
0.258874 0.174613 0.025 -1.42619e+06
0.263074 0.177446 0.025 -1.78975e+06
0.267304 0.180299 0.025 -1.45885e+06
0.271564 0.183172 0.025 -888957
0.275852 0.186064 0.025 -1.49941e+06
0.280168 0.188975 0.025 -870671
0.28451 0.191904 0.025 -1.52949e+06
0.288876 0.19485 0.025 -2.10159e+06
0.293268 0.197812 0.025 -1.50062e+06
0.297683 0.20079 0.025 -1.78496e+06
0.302119 0.203782 0.025 -1.99535e+06
0.306577 0.206788 0.025 -1.42723e+06
0.311054 0.209808 0.025 -1.4793e+06
0.315549 0.212841 0.025 -1.10137e+06
0.320063 0.215885 0.025 -1.84643e+06
0.324591 0.218939 0.025 -1.32389e+06
0.329134 0.222003 0.025 -1.31068e+06
0.333691 0.225077 0.025 -1.98718e+06
0.33826 0.228159 0.025 -1.67102e+06
0.342839 0.231248 0.025 -1.69897e+06
0.347428 0.234343 0.025 -825208
0.352025 0.237444 0.025 -1.75579e+06
0.356628 0.240548 0.025 -1.30947e+06
0.361237 0.243658 0.025 -1.08472e+06
0.36585 0.246769 0.025 -2.26422e+06
0.370465 0.249882 0.025 -1.04856e+06
0.375082 0.252996 0.025 -1.39868e+06
0.379698 0.25611 0.025 -2.20091e+06
0.384313 0.259223 0.025 -1.30596e+06
0.388926 0.262333 0.025 -1.56789e+06
0.393534 0.265442 0.025 -1.30867e+06
0.398136 0.268546 0.025 -829733
0.40273 0.271645 0.025 -1.49633e+06
0.407317 0.274739 0.025 -1.54075e+06
0.411894 0.277826 0.025 -1.9174e+06
0.41646 0.280906 0.025 -792534
0.421014 0.283977 0.025 -1.45712e+06
0.425554 0.28704 0.025 -1.71915e+06
0.430079 0.290092 0.025 -1.37215e+06
0.434588 0.293133 0.025 -1.65826e+06
0.439079 0.296162 0.025 -1.18818e+06
0.443551 0.299179 0.025 -1.51376e+06
0.448004 0.302183 0.025 -1.54708e+06
0.452437 0.305172 0.025 -1.51777e+06
0.456846 0.308146 0.025 -1.4177e+06
0.461232 0.311105 0.025 -1.43996e+06
0.465593 0.314047 0.025 -1.33995e+06
0.469929 0.316971 0.025 -1.75113e+06
0.474238 0.319878 0.025 -938896
0.47852 0.322766 0.025 -1.03725e+06
0.482773 0.325635 0.025 -827997
0.486996 0.328483 0.025 -1.22533e+06
0.491189 0.331311 0.025 -1.83443e+06
0.49535 0.334118 0.025 -1.19708e+06
