/*--------------------------------*- C++ -*----------------------------------*\
| =========                 |                                                 |
| \\      /  F ield         | OpenFOAM: The Open Source CFD Toolbox           |
|  \\    /   O peration     | Version:  v2012                                 |
|   \\  /    A nd           | Website:  www.openfoam.com                      |
|    \\/     M anipulation  |                                                 |
\*---------------------------------------------------------------------------*/
FoamFile
{
    version     2.0;
    format      ascii;
    class       volScalarField;
    location    "1901";
    object      alphat;
}
// * * * * * * * * * * * * * * * * * * * * * * * * * * * * * * * * * * * * * //

dimensions      [1 -1 -1 0 0 0 0];


internalField   nonuniform List<scalar> 
8000
(
5.20853e-22
4.54868e-22
5.70255e-22
4.12732e-22
4.8257e-22
5.73489e-22
3.85376e-22
4.24154e-22
4.91714e-22
5.73574e-22
3.67393e-22
3.90757e-22
4.34551e-22
5.02664e-22
5.73577e-22
3.96568e-22
3.70708e-22
3.98968e-22
4.46427e-22
5.29092e-22
5.73577e-22
4.87602e-22
3.96869e-22
3.7696e-22
4.09437e-22
4.63396e-22
5.37124e-22
5.73577e-22
5.66061e-22
4.87883e-22
3.97494e-22
3.85648e-22
4.22162e-22
4.75043e-22
5.38775e-22
5.73577e-22
6.32407e-22
5.66328e-22
4.88486e-22
3.98464e-22
3.96204e-22
4.34131e-22
4.88489e-22
5.39077e-22
5.73577e-22
6.87867e-22
6.32666e-22
5.66911e-22
4.8944e-22
3.99789e-22
4.07409e-22
4.46581e-22
5.02768e-22
5.39132e-22
5.73577e-22
7.33883e-22
6.88119e-22
6.33232e-22
5.67846e-22
4.90766e-22
4.01447e-22
4.19134e-22
4.59525e-22
5.09554e-22
5.39143e-22
5.73577e-22
7.71872e-22
7.34129e-22
6.88673e-22
6.3415e-22
5.69163e-22
4.92475e-22
4.04402e-22
4.31267e-22
4.72229e-22
5.11951e-22
5.39146e-22
5.73577e-22
8.03126e-22
7.72115e-22
7.34674e-22
6.89576e-22
6.35456e-22
5.70892e-22
4.9464e-22
4.13301e-22
4.43495e-22
4.84215e-22
5.12691e-22
5.39147e-22
5.73577e-22
8.28774e-22
8.03366e-22
7.72652e-22
7.35566e-22
6.90872e-22
6.3719e-22
5.73095e-22
4.97352e-22
4.24292e-22
4.55927e-22
4.9083e-22
5.12907e-22
5.39147e-22
5.73577e-22
8.49783e-22
8.29012e-22
8.03898e-22
7.73535e-22
7.36852e-22
6.92604e-22
6.39412e-22
5.75864e-22
5.00738e-22
4.36109e-22
4.68128e-22
4.93582e-22
5.12971e-22
5.39147e-22
5.73577e-22
8.66968e-22
8.50019e-22
8.29539e-22
8.04773e-22
7.74812e-22
7.3858e-22
6.94836e-22
6.42215e-22
5.79331e-22
5.05005e-22
4.48304e-22
4.76452e-22
4.94578e-22
5.12991e-22
5.39147e-22
5.73577e-22
3.30622e-19
8.67203e-22
8.50543e-22
8.30408e-22
8.06043e-22
7.76537e-22
7.40817e-22
6.9766e-22
6.45734e-22
5.83699e-22
5.10429e-22
4.59993e-22
4.80455e-22
4.94918e-22
5.12997e-22
5.39147e-22
5.73577e-22
4.96716e-15
1.73076e-19
8.67724e-22
8.51407e-22
8.31673e-22
8.07763e-22
7.78775e-22
7.43654e-22
7.01211e-22
6.50164e-22
5.89234e-22
5.1729e-22
4.6802e-22
4.8206e-22
4.95033e-22
5.12999e-22
5.39147e-22
5.73577e-22
6.0355e-11
2.15774e-15
6.7219e-20
8.68584e-22
8.52667e-22
8.33389e-22
8.10002e-22
7.8162e-22
7.47226e-22
7.05682e-22
6.5577e-22
5.96255e-22
5.24492e-22
4.71973e-22
4.82651e-22
4.95073e-22
5.13e-22
5.39147e-22
5.73577e-22
5.54863e-08
2.07634e-11
7.31974e-16
2.43092e-20
8.6984e-22
8.5438e-22
8.35627e-22
8.12852e-22
7.85207e-22
7.51725e-22
7.11334e-22
6.62873e-22
6.04802e-22
5.29151e-22
4.736e-22
4.82863e-22
4.95087e-22
5.13001e-22
5.39147e-22
5.73577e-22
2.9332e-08
4.03652e-07
6.38652e-12
2.53663e-16
9.83963e-21
8.71551e-22
8.56617e-22
8.38481e-22
8.16449e-22
7.89725e-22
7.57408e-22
7.18492e-22
6.71842e-22
6.12058e-22
5.31327e-22
4.74217e-22
4.82941e-22
4.95093e-22
5.13001e-22
5.39147e-22
5.73577e-22
1.61851e-08
5.16204e-07
2.31882e-08
2.29522e-12
1.03361e-16
4.78565e-21
8.73787e-22
8.59474e-22
8.42085e-22
8.2098e-22
7.9543e-22
7.64602e-22
7.27574e-22
6.81062e-22
6.16043e-22
5.32208e-22
4.74446e-22
4.8297e-22
4.95095e-22
5.13001e-22
5.39147e-22
5.73577e-22
1.086e-08
6.65565e-07
4.56326e-08
5.99076e-09
1.0109e-12
4.80889e-17
2.70472e-21
8.76645e-22
8.63082e-22
8.46626e-22
8.26701e-22
8.02648e-22
7.73722e-22
7.37989e-22
6.87036e-22
6.17783e-22
5.3255e-22
4.74533e-22
4.82982e-22
4.95096e-22
5.13001e-22
5.39147e-22
5.73577e-22
7.93074e-09
7.82676e-07
1.32103e-07
7.26711e-09
3.02607e-09
4.92901e-13
2.32594e-17
1.72383e-21
8.80257e-22
8.67631e-22
8.52357e-22
8.33936e-22
8.11791e-22
7.84776e-22
7.45821e-22
6.8987e-22
6.1848e-22
5.32685e-22
4.74568e-22
4.82987e-22
4.95097e-22
5.13001e-22
5.39147e-22
5.73577e-22
3.99213e-09
8.93739e-07
2.79788e-07
2.28635e-08
3.17176e-09
1.88963e-09
2.42709e-13
1.09218e-17
1.23734e-21
8.84811e-22
8.7337e-22
8.59604e-22
8.43096e-22
8.23163e-22
7.94164e-22
7.49859e-22
6.91044e-22
6.18755e-22
5.32739e-22
4.74582e-22
4.82989e-22
4.95097e-22
5.13001e-22
5.39147e-22
5.73577e-22
2.00171e-09
9.33315e-07
4.49085e-07
8.4435e-08
7.16239e-09
1.91143e-09
1.30463e-09
1.14549e-13
4.63761e-18
1.00544e-21
8.90556e-22
8.80626e-22
8.68778e-22
8.54622e-22
8.33766e-22
7.99403e-22
7.51594e-22
6.91513e-22
6.18866e-22
5.32762e-22
4.74588e-22
4.8299e-22
4.95097e-22
5.13001e-22
5.39147e-22
5.73577e-22
9.55913e-10
9.03171e-07
6.09925e-07
1.984e-07
3.28208e-08
3.6116e-09
1.30847e-09
9.79929e-10
4.84707e-14
1.58251e-18
9.18826e-22
8.97819e-22
8.89809e-22
8.80378e-22
8.66136e-22
8.40121e-22
8.01737e-22
7.52296e-22
6.91702e-22
6.18913e-22
5.32772e-22
4.74591e-22
4.8299e-22
4.95097e-22
5.13001e-22
5.39147e-22
5.73577e-22
4.065e-10
8.37165e-07
7.52177e-07
3.51915e-07
1.03517e-07
1.68956e-08
2.42537e-09
9.86404e-10
7.77716e-10
1.619e-14
4.09442e-19
9.11865e-22
9.0701e-22
9.01445e-22
8.92561e-22
8.73483e-22
8.43052e-22
8.02694e-22
7.52581e-22
6.91781e-22
6.18933e-22
5.32776e-22
4.74592e-22
4.82991e-22
4.95097e-22
5.13001e-22
5.39147e-22
5.73577e-22
1.34004e-10
7.23164e-07
8.3595e-07
5.0729e-07
2.24885e-07
6.35783e-08
1.17706e-08
1.99336e-09
7.97069e-10
6.45743e-10
4.04802e-15
7.52373e-20
9.21062e-22
9.18662e-22
9.14118e-22
9.0076e-22
8.76977e-22
8.44269e-22
8.03082e-22
7.52699e-22
6.91815e-22
6.18941e-22
5.32778e-22
4.74593e-22
4.82991e-22
4.95097e-22
5.13001e-22
5.39147e-22
5.73577e-22
3.27126e-11
2.18345e-07
8.69478e-07
6.42453e-07
3.80156e-07
1.39871e-07
4.84196e-08
1.06073e-08
1.96313e-09
6.87165e-10
5.59026e-10
6.98e-16
1.0059e-20
9.32723e-22
9.31693e-22
9.23033e-22
9.0477e-22
8.78447e-22
8.44765e-22
8.03244e-22
7.52749e-22
6.9183e-22
6.18945e-22
5.32779e-22
4.74593e-22
4.82991e-22
4.95097e-22
5.13001e-22
5.39147e-22
5.73577e-22
5.39052e-12
6.51987e-08
8.43842e-07
7.32135e-07
5.17653e-07
3.12335e-07
1.22194e-07
4.65059e-08
1.19314e-08
2.25857e-09
6.38717e-10
5.05923e-10
7.92316e-17
1.70573e-21
9.46018e-22
9.41203e-22
9.27501e-22
9.06476e-22
8.79048e-22
8.44971e-22
8.03312e-22
7.52771e-22
6.91836e-22
6.18947e-22
5.32779e-22
4.74593e-22
4.82991e-22
4.95097e-22
5.13001e-22
5.39147e-22
5.73577e-22
5.69055e-13
1.49048e-08
7.71352e-07
7.70119e-07
6.18881e-07
4.928e-07
2.56081e-07
1.3214e-07
5.50495e-08
1.55914e-08
3.01684e-09
6.57844e-10
4.79017e-10
6.12812e-18
9.93774e-22
9.56017e-22
9.46068e-22
9.2942e-22
9.07175e-22
8.79298e-22
8.45058e-22
8.03343e-22
7.52781e-22
6.9184e-22
6.18948e-22
5.32779e-22
4.74593e-22
4.82991e-22
4.95097e-22
5.13001e-22
5.39147e-22
5.73577e-22
4.03004e-14
2.36904e-09
6.34305e-07
7.64088e-07
6.8577e-07
6.1646e-07
5.15795e-07
2.59498e-07
1.68473e-07
7.45273e-08
2.30671e-08
4.64934e-09
7.54252e-10
4.81912e-10
4.0854e-19
9.68088e-22
9.61223e-22
9.48177e-22
9.30209e-22
9.07466e-22
8.79404e-22
8.45097e-22
8.03356e-22
7.52786e-22
6.91841e-22
6.18948e-22
5.32779e-22
4.74593e-22
4.82991e-22
4.95097e-22
5.13001e-22
5.39147e-22
5.73577e-22
2.65998e-15
2.57599e-10
3.5099e-07
7.68877e-07
7.19839e-07
6.75608e-07
7.21078e-07
5.93268e-07
3.35623e-07
2.35076e-07
1.13084e-07
3.81718e-08
7.71919e-09
8.95992e-10
5.04692e-10
3.4378e-20
9.73584e-22
9.63496e-22
9.49047e-22
9.30537e-22
9.07589e-22
8.7945e-22
8.45114e-22
8.03362e-22
7.52788e-22
6.91842e-22
6.18949e-22
5.32779e-22
4.74593e-22
4.82991e-22
4.95097e-22
5.13001e-22
5.39147e-22
5.73577e-22
2.43728e-16
1.73808e-11
1.01533e-07
6.93866e-07
7.22378e-07
6.94778e-07
8.00396e-07
9.46992e-07
7.60687e-07
4.88432e-07
3.64933e-07
1.90231e-07
6.62864e-08
1.21651e-08
1.173e-09
5.45031e-10
3.72197e-21
9.75998e-22
9.64436e-22
9.49408e-22
9.30677e-22
9.07644e-22
8.79471e-22
8.45122e-22
8.03365e-22
7.52789e-22
6.91842e-22
6.18949e-22
5.32779e-22
4.74593e-22
4.82991e-22
4.95097e-22
5.13001e-22
5.39147e-22
5.73577e-22
2.07635e-17
1.71234e-12
3.07039e-08
5.65949e-07
6.9494e-07
6.95422e-07
7.83346e-07
1.11958e-06
1.34128e-06
9.83906e-07
7.87064e-07
6.22833e-07
3.33379e-07
1.08641e-07
1.86212e-08
1.4724e-09
5.81169e-10
1.12783e-21
9.76999e-22
9.64827e-22
9.49562e-22
9.30738e-22
9.07668e-22
8.79481e-22
8.45126e-22
8.03367e-22
7.52789e-22
6.91842e-22
6.18949e-22
5.3278e-22
4.74593e-22
4.82991e-22
4.95097e-22
5.13001e-22
5.39147e-22
5.73577e-22
1.12742e-18
1.47748e-13
8.10188e-09
3.8715e-07
6.36471e-07
6.74719e-07
7.36917e-07
1.07234e-06
1.77155e-06
1.98505e-06
1.48036e-06
1.37403e-06
1.0958e-06
5.51664e-07
1.67408e-07
2.52698e-08
1.71791e-09
6.07146e-10
9.87249e-22
9.77415e-22
9.64993e-22
9.49629e-22
9.30765e-22
9.07679e-22
8.79485e-22
8.45127e-22
8.03367e-22
7.5279e-22
6.91842e-22
6.18949e-22
5.3278e-22
4.74593e-22
4.82991e-22
4.95097e-22
5.13001e-22
5.39147e-22
5.73577e-22
4.34866e-20
7.56796e-15
1.05747e-09
2.10117e-07
5.37046e-07
6.40709e-07
6.89293e-07
9.28208e-07
1.75636e-06
2.90472e-06
3.1141e-06
2.48217e-06
2.42206e-06
1.80701e-06
8.4292e-07
2.27508e-07
3.0651e-08
1.87243e-09
6.20578e-10
9.87686e-22
9.77592e-22
9.65066e-22
9.49659e-22
9.30778e-22
9.07684e-22
8.79487e-22
8.45128e-22
8.03368e-22
7.5279e-22
6.91842e-22
6.18949e-22
5.3278e-22
4.74593e-22
4.82991e-22
4.95097e-22
5.13001e-22
5.39147e-22
5.73577e-22
2.57646e-21
2.70034e-16
5.29604e-11
9.13348e-08
4.20355e-07
5.84e-07
6.39211e-07
7.92288e-07
1.4389e-06
3.1317e-06
4.80841e-06
5.13179e-06
4.24993e-06
3.93243e-06
2.71022e-06
1.13485e-06
2.75802e-07
3.39786e-08
1.96716e-09
6.25634e-10
9.87872e-22
9.77669e-22
9.65098e-22
9.49673e-22
9.30784e-22
9.07686e-22
8.79488e-22
8.45129e-22
8.03368e-22
7.5279e-22
6.91842e-22
6.18949e-22
5.3278e-22
4.74593e-22
4.82991e-22
4.95097e-22
5.13001e-22
5.39147e-22
5.73577e-22
1.03895e-21
1.05154e-17
1.78344e-12
2.75154e-08
2.71652e-07
4.94944e-07
5.86893e-07
6.9165e-07
1.09331e-06
2.62419e-06
5.63656e-06
7.92471e-06
8.41868e-06
6.77786e-06
5.75545e-06
3.58471e-06
1.36534e-06
3.05701e-07
3.60644e-08
2.01058e-09
6.22703e-10
9.87953e-22
9.77704e-22
9.65113e-22
9.49679e-22
9.30786e-22
9.07688e-22
8.79489e-22
8.45129e-22
8.03368e-22
7.5279e-22
6.91842e-22
6.18949e-22
5.3278e-22
4.74593e-22
4.82991e-22
4.95097e-22
5.13001e-22
5.39147e-22
5.73577e-22
9.9634e-22
3.85431e-19
7.26444e-14
4.9431e-09
1.41244e-07
3.78735e-07
5.19619e-07
6.12091e-07
8.45584e-07
1.86578e-06
5.02977e-06
9.65403e-06
1.25354e-05
1.26919e-05
9.68035e-06
7.48096e-06
4.25883e-06
1.50828e-06
3.24354e-07
3.70395e-08
2.02291e-09
6.14662e-10
9.8799e-22
9.7772e-22
9.6512e-22
9.49682e-22
9.30788e-22
9.07688e-22
8.79489e-22
8.45129e-22
8.03368e-22
7.5279e-22
6.91842e-22
6.18949e-22
5.3278e-22
4.74593e-22
4.82991e-22
4.95097e-22
5.13001e-22
5.39147e-22
5.73577e-22
9.96378e-22
1.03638e-20
2.71735e-15
4.61835e-10
5.79004e-08
2.49634e-07
4.30598e-07
5.38151e-07
6.88958e-07
1.25729e-06
3.6113e-06
9.14134e-06
1.524e-05
1.82237e-05
1.70529e-05
1.24729e-05
8.84385e-06
4.68033e-06
1.59685e-06
3.33029e-07
3.73968e-08
2.01298e-09
6.03605e-10
9.88006e-22
9.77727e-22
9.65123e-22
9.49684e-22
9.30788e-22
9.07688e-22
8.79489e-22
8.45129e-22
8.03368e-22
7.5279e-22
6.91842e-22
6.18949e-22
5.3278e-22
4.74593e-22
4.82991e-22
4.95097e-22
5.13001e-22
5.39147e-22
5.73577e-22
9.96396e-22
1.16958e-21
6.20698e-17
2.01412e-11
1.94226e-08
1.41482e-07
3.23353e-07
4.55202e-07
5.81513e-07
8.88121e-07
2.25971e-06
6.92181e-06
1.50062e-05
2.2042e-05
2.41672e-05
2.09466e-05
1.46599e-05
9.73998e-06
4.94018e-06
1.63827e-06
3.36122e-07
3.73051e-08
1.98538e-09
5.90125e-10
9.88014e-22
9.77731e-22
9.65125e-22
9.49684e-22
9.30789e-22
9.07689e-22
8.79489e-22
8.45129e-22
8.03368e-22
7.5279e-22
6.91842e-22
6.18949e-22
5.3278e-22
4.74593e-22
4.82991e-22
4.95097e-22
5.13001e-22
5.39147e-22
5.73577e-22
9.96404e-22
1.00509e-21
1.13417e-18
4.22941e-13
4.52294e-09
6.95474e-08
2.133e-07
3.59302e-07
4.87948e-07
6.77462e-07
1.37462e-06
4.36204e-06
1.19638e-05
2.23906e-05
2.91124e-05
2.80578e-05
2.38151e-05
1.61048e-05
1.03129e-05
5.06735e-06
1.65331e-06
3.35246e-07
3.6836e-08
1.95064e-09
5.75199e-10
9.88018e-22
9.77732e-22
9.65126e-22
9.49685e-22
9.30789e-22
9.07689e-22
8.79489e-22
8.45129e-22
8.03368e-22
7.5279e-22
6.91842e-22
6.18949e-22
5.3278e-22
4.74593e-22
4.82991e-22
4.95097e-22
5.13001e-22
5.39147e-22
5.73577e-22
9.96408e-22
1.0051e-21
2.05047e-20
7.41257e-15
5.97397e-10
2.71174e-08
1.22039e-07
2.57753e-07
3.90989e-07
5.4213e-07
8.98166e-07
2.45626e-06
7.8837e-06
1.89303e-05
3.03588e-05
3.35886e-05
3.07372e-05
2.5462e-05
1.70423e-05
1.06462e-05
5.11921e-06
1.65006e-06
3.31042e-07
3.62397e-08
1.90991e-09
5.61002e-10
9.8802e-22
9.77733e-22
9.65126e-22
9.49685e-22
9.30789e-22
9.07689e-22
8.79489e-22
8.45129e-22
8.03368e-22
7.5279e-22
6.91842e-22
6.18949e-22
5.3278e-22
4.74593e-22
4.82991e-22
4.95097e-22
5.13001e-22
5.39147e-22
5.73577e-22
9.96409e-22
1.0051e-21
1.2544e-21
1.32902e-16
3.80913e-11
8.65148e-09
5.98841e-08
1.65321e-07
2.89957e-07
4.31092e-07
6.45779e-07
1.38433e-06
4.44794e-06
1.3318e-05
2.71813e-05
3.80067e-05
3.67317e-05
3.28723e-05
2.64853e-05
1.75873e-05
1.0825e-05
5.11984e-06
1.63153e-06
3.25702e-07
3.55246e-08
1.87139e-09
5.47337e-10
9.8802e-22
9.77734e-22
9.65126e-22
9.49685e-22
9.30789e-22
9.07689e-22
8.79489e-22
8.45129e-22
8.03368e-22
7.5279e-22
6.91842e-22
6.18949e-22
5.3278e-22
4.74593e-22
4.82991e-22
4.95097e-22
5.13001e-22
5.39147e-22
5.73577e-22
9.9641e-22
1.00511e-21
1.01439e-21
1.6577e-18
9.35815e-13
2.12036e-09
2.68631e-08
9.3596e-08
1.95309e-07
3.24818e-07
4.88997e-07
8.55467e-07
2.31334e-06
7.9036e-06
2.04881e-05
3.5889e-05
4.19075e-05
3.94728e-05
3.45016e-05
2.71208e-05
1.78959e-05
1.09056e-05
5.07864e-06
1.60758e-06
3.19325e-07
3.48512e-08
1.83063e-09
5.33038e-10
9.88021e-22
9.77734e-22
9.65126e-22
9.49685e-22
9.30789e-22
9.07689e-22
8.79489e-22
8.45129e-22
8.03368e-22
7.5279e-22
6.91842e-22
6.18949e-22
5.3278e-22
4.74593e-22
4.82991e-22
4.95097e-22
5.13001e-22
5.39147e-22
5.73577e-22
9.96411e-22
1.00511e-21
1.01439e-21
1.78478e-20
1.07075e-14
3.15424e-10
9.94355e-09
4.71078e-08
1.18761e-07
2.2482e-07
3.66015e-07
5.85596e-07
1.24473e-06
4.05747e-06
1.30781e-05
2.91966e-05
4.41689e-05
4.5293e-05
4.18233e-05
3.56736e-05
2.7507e-05
1.80383e-05
1.09097e-05
5.02135e-06
1.5789e-06
3.13329e-07
3.4112e-08
1.78574e-09
5.18815e-10
9.88021e-22
9.77734e-22
9.65126e-22
9.49685e-22
9.30789e-22
9.07689e-22
8.79489e-22
8.45129e-22
8.03368e-22
7.5279e-22
6.91842e-22
6.18949e-22
5.3278e-22
4.74593e-22
4.82991e-22
4.95097e-22
5.13001e-22
5.39147e-22
5.73577e-22
9.96411e-22
1.00511e-21
1.0144e-21
1.15301e-21
1.08011e-16
2.30241e-11
2.93756e-09
2.07216e-08
6.54505e-08
1.41264e-07
2.57638e-07
4.19724e-07
7.47878e-07
1.98234e-06
7.09729e-06
2.02011e-05
3.87777e-05
4.96165e-05
4.82376e-05
4.37388e-05
3.65079e-05
2.76114e-05
1.80596e-05
1.08797e-05
4.95088e-06
1.55191e-06
3.06746e-07
3.32829e-08
1.74062e-09
5.05034e-10
9.88021e-22
9.77734e-22
9.65126e-22
9.49685e-22
9.30789e-22
9.07689e-22
8.79489e-22
8.45129e-22
8.03368e-22
7.5279e-22
6.91842e-22
6.18949e-22
5.3278e-22
4.74593e-22
4.82991e-22
4.95097e-22
5.13001e-22
5.39147e-22
5.73577e-22
9.96411e-22
1.00511e-21
1.0144e-21
1.02431e-21
9.27676e-19
6.02556e-13
6.87989e-10
8.14679e-09
3.26834e-08
8.07914e-08
1.66078e-07
2.94499e-07
4.94619e-07
1.03461e-06
3.36687e-06
1.1967e-05
2.94067e-05
4.7981e-05
5.33496e-05
5.08943e-05
4.52687e-05
3.70514e-05
2.75425e-05
1.80256e-05
1.08263e-05
4.88451e-06
1.52208e-06
2.99344e-07
3.24474e-08
1.69555e-09
4.92097e-10
9.88021e-22
9.77734e-22
9.65126e-22
9.49685e-22
9.30789e-22
9.07689e-22
8.79489e-22
8.45129e-22
8.03368e-22
7.5279e-22
6.91842e-22
6.18949e-22
5.3278e-22
4.74593e-22
4.82991e-22
4.95097e-22
5.13001e-22
5.39147e-22
5.73577e-22
9.96411e-22
1.00511e-21
1.0144e-21
1.02432e-21
7.18061e-21
5.83656e-15
9.99552e-11
2.86284e-09
1.47626e-08
4.25956e-08
9.7403e-08
1.9315e-07
3.36817e-07
6.0926e-07
1.57426e-06
5.9734e-06
1.93102e-05
3.97831e-05
5.62166e-05
5.66926e-05
5.31982e-05
4.64478e-05
3.73671e-05
2.74155e-05
1.7956e-05
1.07765e-05
4.80952e-06
1.48805e-06
2.91886e-07
3.16048e-08
1.65271e-09
4.79357e-10
9.88021e-22
9.77734e-22
9.65126e-22
9.49685e-22
9.30789e-22
9.07689e-22
8.79489e-22
8.45129e-22
8.03368e-22
7.5279e-22
6.91842e-22
6.18949e-22
5.3278e-22
4.74593e-22
4.82991e-22
4.95097e-22
5.13001e-22
5.39147e-22
5.73577e-22
9.96411e-22
1.00511e-21
1.0144e-21
1.02432e-21
1.05163e-21
3.76357e-17
6.97317e-12
7.90594e-10
5.91239e-09
2.08375e-08
5.25192e-08
1.16022e-07
2.21486e-07
3.89722e-07
8.07807e-07
2.65274e-06
1.08563e-05
2.87604e-05
4.9906e-05
6.06414e-05
5.96629e-05
5.51652e-05
4.73298e-05
3.75407e-05
2.72548e-05
1.78936e-05
1.07057e-05
4.7203e-06
1.45363e-06
2.84369e-07
3.08009e-08
1.60952e-09
4.67071e-10
9.88021e-22
9.77734e-22
9.65126e-22
9.49685e-22
9.30789e-22
9.07689e-22
8.79489e-22
8.45129e-22
8.03368e-22
7.5279e-22
6.91842e-22
6.18949e-22
5.3278e-22
4.74593e-22
4.82991e-22
4.95097e-22
5.13001e-22
5.39147e-22
5.73577e-22
9.96411e-22
1.00511e-21
1.0144e-21
1.02432e-21
1.03491e-21
2.10851e-19
1.60947e-13
1.64348e-10
2.09914e-09
9.3919e-09
2.63647e-08
6.39188e-08
1.3548e-07
2.51539e-07
4.67129e-07
1.19633e-06
5.08172e-06
1.82054e-05
3.93368e-05
5.92131e-05
6.44387e-05
6.24475e-05
5.6809e-05
4.79857e-05
3.76093e-05
2.71225e-05
1.78112e-05
1.0559e-05
4.62901e-06
1.4188e-06
2.7719e-07
2.99852e-08
1.56881e-09
4.55783e-10
9.88021e-22
9.77734e-22
9.65126e-22
9.49685e-22
9.30789e-22
9.07689e-22
8.79489e-22
8.45129e-22
8.03368e-22
7.5279e-22
6.91842e-22
6.18949e-22
5.3278e-22
4.74593e-22
4.82991e-22
4.95097e-22
5.13001e-22
5.39147e-22
5.73577e-22
9.96411e-22
1.00511e-21
1.0144e-21
1.02432e-21
1.03491e-21
1.95846e-21
1.21206e-15
2.08523e-11
6.74216e-10
3.86939e-09
1.24471e-08
3.26251e-08
7.6286e-08
1.5487e-07
2.87513e-07
6.02743e-07
2.13101e-06
9.76752e-06
2.75008e-05
5.03241e-05
6.71211e-05
6.79254e-05
6.49543e-05
5.81704e-05
4.84544e-05
3.76565e-05
2.69829e-05
1.76909e-05
1.04058e-05
4.53573e-06
1.38542e-06
2.69904e-07
2.92226e-08
1.53097e-09
4.44826e-10
9.88021e-22
9.77734e-22
9.65126e-22
9.49685e-22
9.30789e-22
9.07689e-22
8.79489e-22
8.45129e-22
8.03368e-22
7.5279e-22
6.91842e-22
6.18949e-22
5.3278e-22
4.74593e-22
4.82991e-22
4.95097e-22
5.13001e-22
5.39147e-22
5.73577e-22
9.96411e-22
1.00511e-21
1.0144e-21
1.02432e-21
1.03491e-21
1.04622e-21
5.31493e-18
1.15953e-12
1.67924e-10
1.40634e-09
5.53189e-09
1.5636e-08
3.97247e-08
8.86992e-08
1.75053e-07
3.39135e-07
9.17947e-07
4.34446e-06
1.69465e-05
3.81875e-05
6.07906e-05
7.14574e-05
7.11861e-05
6.71981e-05
5.92709e-05
4.88414e-05
3.76596e-05
2.68195e-05
1.75556e-05
1.02465e-05
4.44555e-06
1.35141e-06
2.63093e-07
2.85115e-08
1.49326e-09
4.34421e-10
9.88021e-22
9.77734e-22
9.65126e-22
9.49685e-22
9.30789e-22
9.07689e-22
8.79489e-22
8.45129e-22
8.03368e-22
7.5279e-22
6.91842e-22
6.18949e-22
5.3278e-22
4.74593e-22
4.82991e-22
4.95097e-22
5.13001e-22
5.39147e-22
5.73577e-22
9.96411e-22
1.00511e-21
1.0144e-21
1.02432e-21
1.03491e-21
1.04622e-21
2.03425e-20
1.94159e-14
2.95107e-11
4.59924e-10
2.27607e-09
7.09548e-09
1.93415e-08
4.71059e-08
1.00951e-07
1.98821e-07
4.44126e-07
1.73812e-06
8.76471e-06
2.59987e-05
4.95769e-05
7.03964e-05
7.55198e-05
7.43169e-05
6.91551e-05
6.02198e-05
4.9135e-05
3.76051e-05
2.66426e-05
1.74078e-05
1.00908e-05
4.35286e-06
1.31952e-06
2.56737e-07
2.77971e-08
1.45811e-09
4.24485e-10
9.88021e-22
9.77734e-22
9.65126e-22
9.49685e-22
9.30789e-22
9.07689e-22
8.79489e-22
8.45129e-22
8.03368e-22
7.5279e-22
6.91842e-22
6.18949e-22
5.3278e-22
4.74593e-22
4.82991e-22
4.95097e-22
5.13001e-22
5.39147e-22
5.73577e-22
9.96411e-22
1.00511e-21
1.0144e-21
1.02432e-21
1.03491e-21
1.04623e-21
1.09555e-21
9.88465e-17
2.95968e-12
1.28743e-10
8.53338e-10
3.06277e-09
8.88258e-09
2.33608e-08
5.43688e-08
1.13708e-07
2.37885e-07
7.08861e-07
3.75923e-06
1.55442e-05
3.64726e-05
6.10631e-05
7.77756e-05
7.93568e-05
7.72364e-05
7.0907e-05
6.1011e-05
4.93216e-05
3.7505e-05
2.64537e-05
1.72601e-05
9.92838e-06
4.26549e-06
1.28969e-06
2.5035e-07
2.71351e-08
1.42385e-09
4.1484e-10
9.88021e-22
9.77734e-22
9.65126e-22
9.49685e-22
9.30789e-22
9.07689e-22
8.79489e-22
8.45129e-22
8.03368e-22
7.5279e-22
6.91842e-22
6.18949e-22
5.3278e-22
4.74593e-22
4.82991e-22
4.95097e-22
5.13001e-22
5.39147e-22
5.73577e-22
9.96411e-22
1.00511e-21
1.0144e-21
1.02432e-21
1.03491e-21
1.04623e-21
1.05831e-21
2.99825e-19
1.08549e-13
2.74312e-11
2.79146e-10
1.24828e-09
3.88402e-09
1.09014e-08
2.73987e-08
6.15127e-08
1.3103e-07
3.2193e-07
1.44147e-06
7.74126e-06
2.42601e-05
4.809e-05
7.19543e-05
8.24871e-05
8.31249e-05
7.99652e-05
7.24382e-05
6.16346e-05
4.94162e-05
3.73674e-05
2.62682e-05
1.70995e-05
9.77422e-06
4.18326e-06
1.25961e-06
2.4443e-07
2.64861e-08
1.39055e-09
4.05772e-10
9.88021e-22
9.77734e-22
9.65126e-22
9.49685e-22
9.30789e-22
9.07689e-22
8.79489e-22
8.45129e-22
8.03368e-22
7.5279e-22
6.91842e-22
6.18949e-22
5.3278e-22
4.74593e-22
4.82991e-22
4.95097e-22
5.13001e-22
5.39147e-22
5.73577e-22
9.96411e-22
1.00511e-21
1.0144e-21
1.02432e-21
1.03491e-21
1.04623e-21
1.05831e-21
1.78716e-21
1.06414e-15
3.79723e-12
8.31905e-11
4.68741e-10
1.61988e-09
4.82651e-09
1.29975e-08
3.12992e-08
7.01253e-08
1.60959e-07
5.52184e-07
3.20054e-06
1.40215e-05
3.44638e-05
6.02638e-05
8.20411e-05
8.69963e-05
8.67958e-05
8.24643e-05
7.37425e-05
6.21071e-05
4.94354e-05
3.72153e-05
2.6067e-05
1.69461e-05
9.62824e-06
4.09967e-06
1.23164e-06
2.38624e-07
2.58554e-08
1.35936e-09
3.97024e-10
9.88021e-22
9.77734e-22
9.65126e-22
9.49685e-22
9.30789e-22
9.07689e-22
8.79489e-22
8.45129e-22
8.03368e-22
7.5279e-22
6.91842e-22
6.18949e-22
5.3278e-22
4.74593e-22
4.82991e-22
4.95097e-22
5.13001e-22
5.39147e-22
5.73577e-22
9.96411e-22
1.00511e-21
1.0144e-21
1.02432e-21
1.03491e-21
1.04623e-21
1.05831e-21
1.0712e-21
3.36498e-18
2.52651e-13
1.96625e-11
1.58011e-10
6.44362e-10
2.03408e-09
5.84316e-09
1.50316e-08
3.56293e-08
8.27503e-08
2.31004e-07
1.17233e-06
6.69473e-06
2.23271e-05
4.60287e-05
7.23308e-05
8.88866e-05
9.13513e-05
9.03636e-05
8.4714e-05
7.48313e-05
6.24521e-05
4.94121e-05
3.70294e-05
2.58757e-05
1.68011e-05
9.47789e-06
4.02153e-06
1.20414e-06
2.32981e-07
2.52656e-08
1.32865e-09
3.88553e-10
9.88021e-22
9.77734e-22
9.65126e-22
9.49685e-22
9.30789e-22
9.07689e-22
8.79489e-22
8.45129e-22
8.03368e-22
7.5279e-22
6.91842e-22
6.18949e-22
5.3278e-22
4.74593e-22
4.82991e-22
4.95097e-22
5.13001e-22
5.39147e-22
5.73577e-22
9.96411e-22
1.00511e-21
1.0144e-21
1.02432e-21
1.03491e-21
1.04623e-21
1.05831e-21
1.07121e-21
8.03609e-21
5.01844e-15
3.35969e-12
4.59999e-11
2.40112e-10
8.21061e-10
2.49743e-09
6.85168e-09
1.71555e-08
4.15155e-08
1.0605e-07
4.20762e-07
2.64661e-06
1.24067e-05
3.22455e-05
5.85772e-05
8.38442e-05
9.41286e-05
9.58643e-05
9.37305e-05
8.6696e-05
7.57294e-05
6.27119e-05
4.93262e-05
3.6842e-05
2.56969e-05
1.66466e-05
9.33641e-06
3.94418e-06
1.17734e-06
2.277e-07
2.46814e-08
1.29887e-09
3.80505e-10
9.88021e-22
9.77734e-22
9.65126e-22
9.49685e-22
9.30789e-22
9.07689e-22
8.79489e-22
8.45129e-22
8.03368e-22
7.5279e-22
6.91842e-22
6.18949e-22
5.3278e-22
4.74593e-22
4.82991e-22
4.95097e-22
5.13001e-22
5.39147e-22
5.73577e-22
9.96411e-22
1.00511e-21
1.0144e-21
1.02432e-21
1.03491e-21
1.04623e-21
1.05831e-21
1.07121e-21
1.08496e-21
2.38594e-17
3.25475e-13
1.19696e-11
8.19737e-11
3.16455e-10
1.01949e-09
2.97367e-09
7.85857e-09
1.99135e-08
5.05069e-08
1.61636e-07
9.20438e-07
5.65103e-06
2.02358e-05
4.35586e-05
7.16847e-05
9.46517e-05
9.92711e-05
0.000100292
9.68364e-05
8.84225e-05
7.64848e-05
6.28661e-05
4.9218e-05
3.66618e-05
2.55058e-05
1.65004e-05
9.19494e-06
3.8683e-06
1.15218e-06
2.22467e-07
2.41147e-08
1.27042e-09
3.72628e-10
9.88021e-22
9.77734e-22
9.65126e-22
9.49685e-22
9.30789e-22
9.07689e-22
8.79489e-22
8.45129e-22
8.03368e-22
7.5279e-22
6.91842e-22
6.18949e-22
5.3278e-22
4.74593e-22
4.82991e-22
4.95097e-22
5.13001e-22
5.39147e-22
5.73577e-22
9.96411e-22
1.00511e-21
1.0144e-21
1.02432e-21
1.03491e-21
1.04623e-21
1.05831e-21
1.07121e-21
1.08499e-21
4.79475e-20
1.13788e-14
2.33165e-12
2.43172e-11
1.1595e-10
3.97957e-10
1.23215e-09
3.43882e-09
9.10179e-09
2.37425e-08
6.79282e-08
3.09442e-07
2.12389e-06
1.07288e-05
2.97962e-05
5.6303e-05
8.45533e-05
0.000100868
0.000104429
0.000104598
9.96582e-05
8.99397e-05
7.70762e-05
6.29611e-05
4.91041e-05
3.64602e-05
2.53244e-05
1.6351e-05
9.05486e-06
3.79664e-06
1.12717e-06
2.17389e-07
2.35728e-08
1.24232e-09
3.65187e-10
9.88021e-22
9.77734e-22
9.65126e-22
9.49685e-22
9.30789e-22
9.07689e-22
8.79489e-22
8.45129e-22
8.03368e-22
7.5279e-22
6.91842e-22
6.18949e-22
5.3278e-22
4.74593e-22
4.82991e-22
4.95097e-22
5.13001e-22
5.39147e-22
5.73577e-22
9.96411e-22
1.00511e-21
1.0144e-21
1.02432e-21
1.03491e-21
1.04623e-21
1.05831e-21
1.07121e-21
1.08499e-21
1.14297e-21
9.63814e-17
2.91747e-13
6.46222e-12
3.93117e-11
1.48828e-10
4.87944e-10
1.44105e-09
3.97512e-09
1.07661e-08
2.99436e-08
1.09678e-07
7.00129e-07
4.62189e-06
1.79885e-05
4.08337e-05
6.99962e-05
9.68742e-05
0.000106767
0.000109743
0.000108681
0.000102222
9.12212e-05
7.75528e-05
6.30229e-05
4.89536e-05
3.62638e-05
2.51381e-05
1.62e-05
8.9215e-06
3.72491e-06
1.10284e-06
2.12532e-07
2.30361e-08
1.21631e-09
3.58299e-10
9.88021e-22
9.77734e-22
9.65126e-22
9.49685e-22
9.30789e-22
9.07689e-22
8.79489e-22
8.45129e-22
8.03368e-22
7.5279e-22
6.91842e-22
6.18949e-22
5.3278e-22
4.74593e-22
4.82991e-22
4.95097e-22
5.13001e-22
5.39147e-22
5.73577e-22
9.96411e-22
1.00511e-21
1.0144e-21
1.02432e-21
1.03491e-21
1.04623e-21
1.05831e-21
1.07121e-21
1.08499e-21
1.09969e-21
2.19156e-19
1.59588e-14
1.33871e-12
1.19091e-11
5.32562e-11
1.8483e-10
5.78556e-10
1.66382e-09
4.68042e-09
1.31943e-08
4.23729e-08
2.21122e-07
1.64207e-06
9.01777e-06
2.70851e-05
5.34511e-05
8.41359e-05
0.00010724
0.000112623
0.000115028
0.000112523
0.000104483
9.2314e-05
7.79492e-05
6.30218e-05
4.87978e-05
3.60564e-05
2.49481e-05
1.60547e-05
8.78643e-06
3.65464e-06
1.0795e-06
2.07721e-07
2.25427e-08
1.19206e-09
3.51532e-10
9.88021e-22
9.77734e-22
9.65126e-22
9.49685e-22
9.30789e-22
9.07689e-22
8.79489e-22
8.45129e-22
8.03368e-22
7.5279e-22
6.91842e-22
6.18949e-22
5.3278e-22
4.74593e-22
4.82991e-22
4.95097e-22
5.13001e-22
5.39147e-22
5.73577e-22
9.96411e-22
1.00511e-21
1.0144e-21
1.02432e-21
1.03491e-21
1.04623e-21
1.05831e-21
1.07121e-21
1.08499e-21
1.0997e-21
1.38698e-21
2.40583e-16
1.94215e-13
3.06213e-12
1.78345e-11
6.72113e-11
2.22369e-10
6.69388e-10
1.95122e-09
5.65968e-09
1.73355e-08
7.26769e-08
5.13182e-07
3.64094e-06
1.55542e-05
3.78408e-05
6.75996e-05
9.80291e-05
0.000113889
0.000118761
0.000120206
0.000116038
0.000106478
9.32586e-05
7.82417e-05
6.29945e-05
4.86191e-05
3.58395e-05
2.47635e-05
1.59032e-05
8.65273e-06
3.58689e-06
1.05634e-06
2.03296e-07
2.20815e-08
1.16773e-09
3.44974e-10
9.88021e-22
9.77734e-22
9.65126e-22
9.49685e-22
9.30789e-22
9.07689e-22
8.79489e-22
8.45129e-22
8.03368e-22
7.5279e-22
6.91842e-22
6.18949e-22
5.3278e-22
4.74593e-22
4.82991e-22
4.95097e-22
5.13001e-22
5.39147e-22
5.73577e-22
9.96411e-22
1.00511e-21
1.0144e-21
1.02432e-21
1.03491e-21
1.04623e-21
1.05831e-21
1.07121e-21
1.08499e-21
1.0997e-21
1.1154e-21
7.51371e-19
1.44213e-14
6.86048e-13
5.43398e-12
2.33309e-11
8.19231e-11
2.59159e-10
7.81428e-10
2.34108e-09
7.17667e-09
2.5889e-08
1.53062e-07
1.21812e-06
7.28121e-06
2.41721e-05
5.02816e-05
8.27003e-05
0.000111388
0.000120577
0.000125017
0.000125147
0.000119236
0.000108241
9.40401e-05
7.84725e-05
6.29227e-05
4.84203e-05
3.56242e-05
2.45678e-05
1.57497e-05
8.52286e-06
3.5193e-06
1.035e-06
1.99159e-07
2.16165e-08
1.14447e-09
3.38717e-10
9.88021e-22
9.77734e-22
9.65126e-22
9.49685e-22
9.30789e-22
9.07689e-22
8.79489e-22
8.45129e-22
8.03368e-22
7.5279e-22
6.91842e-22
6.18949e-22
5.3278e-22
4.74593e-22
4.82991e-22
4.95097e-22
5.13001e-22
5.39147e-22
5.73577e-22
9.96411e-22
1.00511e-21
1.0144e-21
1.02432e-21
1.03491e-21
1.04623e-21
1.05831e-21
1.07121e-21
1.08499e-21
1.0997e-21
1.11541e-21
2.04822e-21
3.40907e-16
1.11272e-13
1.41109e-12
7.67213e-12
2.88983e-11
9.65298e-11
3.01105e-10
9.32375e-10
2.91627e-09
9.83633e-09
4.69591e-08
3.61304e-07
2.73368e-06
1.30563e-05
3.461e-05
6.45841e-05
9.80775e-05
0.000120715
0.000127331
0.00013134
0.0001298
0.000122127
0.000109766
9.47073e-05
7.86245e-05
6.28118e-05
4.82131e-05
3.53878e-05
2.43635e-05
1.55985e-05
8.39224e-06
3.4568e-06
1.015e-06
1.94986e-07
2.11735e-08
1.12214e-09
3.32517e-10
9.88021e-22
9.77734e-22
9.65126e-22
9.49685e-22
9.30789e-22
9.07689e-22
8.79489e-22
8.45129e-22
8.03368e-22
7.5279e-22
6.91842e-22
6.18949e-22
5.3278e-22
4.74593e-22
4.82991e-22
4.95097e-22
5.13001e-22
5.39147e-22
5.73577e-22
9.96411e-22
1.00511e-21
1.0144e-21
1.02432e-21
1.03491e-21
1.04623e-21
1.05831e-21
1.07121e-21
1.08499e-21
1.0997e-21
1.11541e-21
1.13216e-21
1.62226e-18
1.02763e-14
3.21368e-13
2.31472e-12
9.74548e-12
3.45425e-11
1.12039e-10
3.57655e-10
1.14794e-09
3.8238e-09
1.54885e-08
1.02198e-07
8.60833e-07
5.65162e-06
2.10792e-05
4.6891e-05
8.03922e-05
0.000113153
0.000128241
0.000134679
0.000137527
0.000134114
0.000124695
0.000111104
9.52455e-05
7.87072e-05
6.26751e-05
4.79737e-05
3.51137e-05
2.41612e-05
1.54435e-05
8.27104e-06
3.39796e-06
9.94782e-07
1.91011e-07
2.07476e-08
1.09975e-09
3.26504e-10
9.88021e-22
9.77734e-22
9.65126e-22
9.49685e-22
9.30789e-22
9.07689e-22
8.79489e-22
8.45129e-22
8.03368e-22
7.5279e-22
6.91842e-22
6.18949e-22
5.3278e-22
4.74593e-22
4.82991e-22
4.95097e-22
5.13001e-22
5.39147e-22
5.73577e-22
9.96411e-22
1.00511e-21
1.0144e-21
1.02432e-21
1.03491e-21
1.04623e-21
1.05831e-21
1.07121e-21
1.08499e-21
1.0997e-21
1.11541e-21
1.13218e-21
3.28223e-21
3.49099e-16
5.42641e-14
6.04681e-13
3.1356e-12
1.18401e-11
4.02554e-11
1.32305e-10
4.36132e-10
1.47124e-09
5.46747e-09
2.9446e-08
2.43217e-07
1.97061e-06
1.05889e-05
3.12005e-05
6.11036e-05
9.70635e-05
0.000127422
0.000135927
0.000142145
0.000143453
0.00013804
0.00012699