/*--------------------------------*- C++ -*----------------------------------*\
| =========                 |                                                 |
| \\      /  F ield         | OpenFOAM: The Open Source CFD Toolbox           |
|  \\    /   O peration     | Version:  v2012                                 |
|   \\  /    A nd           | Website:  www.openfoam.com                      |
|    \\/     M anipulation  |                                                 |
\*---------------------------------------------------------------------------*/
FoamFile
{
    version     2.0;
    format      ascii;
    class       volScalarField;
    location    "1901";
    object      betann;
}
// * * * * * * * * * * * * * * * * * * * * * * * * * * * * * * * * * * * * * //

dimensions      [0 0 0 0 0 0 0];


internalField   nonuniform List<scalar> 
8000
(
1.01739
1.01739
1.01739
1.01739
1.01739
1.01739
1.01739
1.01739
1.01739
1.01739
1.01739
1.01739
1.01739
1.01739
1.01739
1.01739
1.01739
1.01739
1.01739
1.01739
1.01739
1.01739
1.01739
1.01739
1.01739
1.01739
1.01739
1.01739
1.01739
1.01739
1.01739
1.01739
1.01739
1.01739
1.01739
1.01739
1.01739
1.01739
1.01739
1.01739
1.01739
1.01739
1.01739
1.01739
1.01739
1.01739
1.01739
1.01739
1.01739
1.01739
1.01739
1.01739
1.01739
1.01739
1.01739
1.01739
1.01739
1.01739
1.01739
1.01739
1.01739
1.01739
1.01739
1.01739
1.01739
1.01739
1.01739
1.01739
1.01739
1.01739
1.01739
1.01739
1.01739
1.01739
1.01739
1.01739
1.01739
1.01739
1.01739
1.01739
1.01739
1.01739
1.01739
1.01739
1.01739
1.01739
1.01739
1.01739
1.01739
1.01739
1.01739
1.01739
1.01739
1.01739
1.01739
1.01739
1.01739
1.01739
1.01739
1.01739
1.01739
1.01739
1.01739
1.01739
1.01739
1.01739
1.01739
1.01739
1.01739
1.01739
1.01739
1.01739
1.01739
1.01739
1.01739
1.01739
1.01739
1.01739
1.01739
1.01739
1.01739
1.01739
1.01739
1.01739
1.01739
1.01739
1.01739
1.01739
1.01739
1.01739
1.01739
1.01739
1.01739
1.01739
1.01739
1.01739
1.01739
1.01739
1.01739
1.01739
1.01739
1.01739
1.01739
1.01739
1.01739
1.01739
1.01739
1.01739
1.01739
1.01739
1.01739
1.01739
1.01739
1.01739
1.01739
1.01739
1.01739
1.01739
1.01739
1.01739
1.01739
1.01739
1.01739
1.01739
1.01739
1.01739
1.01739
1.01739
1.01739
1.01739
1.01739
1.01738
1.01739
1.01739
1.01739
1.01739
1.01739
1.01739
1.01739
1.01739
1.01739
1.01739
1.01739
1.01739
1.01739
1.01739
1.01739
1.01739
1.01739
1.01739
0.943535
1.01738
1.01739
1.01739
1.01739
1.01739
1.01739
1.01739
1.01739
1.01739
1.01739
1.01739
1.01739
1.01739
1.01739
1.01739
1.01739
1.01739
1.01739
1.01739
0.944524
0.945845
1.01738
1.01739
1.01739
1.01739
1.01739
1.01739
1.01739
1.01739
1.01739
1.01739
1.01739
1.01739
1.01739
1.01739
1.01739
1.01739
1.01739
1.01739
1.01739
0.944999
0.994029
0.986751
1.01738
1.01739
1.01739
1.01739
1.01739
1.01739
1.01739
1.01739
1.01739
1.01739
1.01739
1.01739
1.01739
1.01739
1.01739
1.01739
1.01739
1.01739
1.01739
0.945221
0.878761
1.00976
0.996838
1.01738
1.01739
1.01739
1.01739
1.01739
1.01739
1.01739
1.01739
1.01739
1.01739
1.01739
1.01739
1.01739
1.01739
1.01739
1.01739
1.01739
1.01739
1.01739
0.962999
0.890017
1.00974
1.01411
0.999564
1.01738
1.01739
1.01739
1.01739
1.01739
1.01739
1.01739
1.01739
1.01739
1.01739
1.01739
1.01739
1.01739
1.01739
1.01739
1.01739
1.01739
1.01739
1.01739
1.0208
0.903072
1.00934
1.01411
1.01513
1.00092
1.01739
1.01739
1.01739
1.01739
1.01739
1.01739
1.01739
1.01739
1.01739
1.01739
1.01739
1.01739
1.01739
1.01739
1.01739
1.01739
1.01739
1.01739
1.01739
1.01767
0.914469
1.00955
1.01283
1.01553
1.01555
1.00181
1.01739
1.01739
1.01739
1.01739
1.01739
1.01739
1.01739
1.01739
1.01739
1.01739
1.01739
1.01739
1.01739
1.01739
1.01739
1.01739
1.01739
1.01739
1.01739
1.01749
0.924325
1.01014
1.01187
1.01453
1.01605
1.01582
1.0024
1.01739
1.01739
1.01739
1.01739
1.01739
1.01739
1.01739
1.01739
1.01739
1.01739
1.01739
1.01739
1.01739
1.01739
1.01739
1.01739
1.01739
1.01739
1.01739
1.01744
0.932173
0.918191
1.01152
1.01322
1.01534
1.01627
1.01599
1.00282
1.01739
1.01739
1.01739
1.01739
1.01739
1.01739
1.01739
1.01739
1.01739
1.01739
1.01739
1.01739
1.01739
1.01739
1.01739
1.01739
1.01739
1.01739
1.01739
1.01741
0.938296
0.922675
1.01167
1.01228
1.01414
1.01568
1.01637
1.0161
1.00312
1.01739
1.01739
1.01739
1.01739
1.01739
1.01739
1.01739
1.01739
1.01739
1.01739
1.01739
1.01739
1.01739
1.01739
1.01739
1.01739
1.01739
1.01739
1.01739
1.0174
0.936756
0.927616
1.01209
1.012
1.01297
1.01458
1.01576
1.01636
1.01616
1.00332
1.01739
1.01739
1.01739
1.01739
1.01739
1.01739
1.01739
1.01739
1.01739
1.01739
1.01739
1.01739
1.01739
1.01739
1.01739
1.01739
1.01739
1.01739
1.01739
1.01739
0.914625
0.932564
1.0127
1.01228
1.01204
1.01332
1.01467
1.01565
1.01626
1.01618
1.00342
1.01739
1.01739
1.01739
1.01739
1.01739
1.01739
1.01739
1.01739
1.01739
1.01739
1.01739
1.01739
1.01739
1.01739
1.01739
1.01739
1.01739
1.01739
1.01739
1.01739
0.935075
0.936969
1.01342
1.01279
1.01189
1.0121
1.0133
1.01445
1.01538
1.01606
1.01613
1.00342
1.01739
1.01739
1.01739
1.01739
1.01739
1.01739
1.01739
1.01739
1.01739
1.01739
1.01739
1.01739
1.01739
1.01739
1.01739
1.01739
1.01739
1.01739
1.01739
1.01739
0.945413
0.940698
1.01416
1.01335
1.01241
1.01124
1.0119
1.01289
1.01396
1.01489
1.01568
1.01599
1.00333
1.01739
1.01739
1.01739
1.01739
1.01739
1.01739
1.01739
1.01739
1.01739
1.01739
1.01739
1.01739
1.01739
1.01739
1.01739
1.01739
1.01739
1.01739
1.01739
1.01739
0.945539
0.887702
0.943271
1.01391
1.01313
1.01145
1.01041
1.0112
1.01211
1.01311
1.01408
1.01508
1.01581
1.00315
1.01739
1.01739
1.01739
1.01739
1.01739
1.01739
1.01739
1.01739
1.01739
1.01739
1.01739
1.01739
1.01739
1.01739
1.01739
1.01739
1.01739
1.01739
1.01739
1.01739
0.975836
0.887603
0.939267
1.01446
1.01378
1.01235
1.00994
1.00926
1.01006
1.0108
1.0117
1.01284
1.01435
1.01554
1.00296
1.01739
1.01739
1.01739
1.01739
1.01739
1.01739
1.01739
1.01739
1.01739
1.01739
1.01739
1.01739
1.01739
1.01739
1.01739
1.01739
1.01739
1.01739
1.01739
1.01739
1.01878
0.887285
0.941919
1.01499
1.01434
1.01333
1.01082
1.00795
1.00775
1.00819
1.00865
1.00959
1.01132
1.01352
1.01531
1.00281
1.01739
1.01739
1.01739
1.01739
1.01739
1.01739
1.01739
1.01739
1.01739
1.01739
1.01739
1.01739
1.01739
1.01739
1.01739
1.01739
1.01739
1.01739
1.01739
1.01739
1.01745
0.886357
0.919579
1.01549
1.01483
1.01411
1.01226
1.00833
1.0055
1.00535
1.00523
1.00549
1.00699
1.00964
1.01283
1.01515
1.00273
1.01739
1.01739
1.01739
1.01739
1.01739
1.01739
1.01739
1.01739
1.01739
1.01739
1.01739
1.01739
1.01739
1.01739
1.01739
1.01739
1.01739
1.01739
1.01739
1.01739
1.0174
0.902168
0.888495
1.01596
1.01526
1.0147
1.01351
1.01018
1.00496
1.00223
1.00165
1.00103
1.00167
1.00421
1.00826
1.01236
1.01506
1.00268
1.01739
1.01739
1.01739
1.01739
1.01739
1.01739
1.01739
1.01739
1.01739
1.01739
1.01739
1.01739
1.01739
1.01739
1.01739
1.01739
1.01739
1.01739
1.01739
1.01739
1.01739
0.945559
0.888318
0.980369
1.01567
1.01517
1.01439
1.01221
1.00681
1.00072
0.99776
0.996632
0.996186
0.997766
1.00194
1.00731
1.01211
1.015
1.00267
1.01739
1.01739
1.01739
1.01739
1.01739
1.01739
1.01739
1.01739
1.01739
1.01739
1.01739
1.01739
1.01739
1.01739
1.01739
1.01739
1.01739
1.01739
1.01739
1.01739
1.01739
0.992362
0.888099
0.944003
1.01604
1.01556
1.015
1.01371
1.00976
1.00209
0.995591
0.992224
0.991221
0.99153
0.994671
1.0004
1.00679
1.01195
1.01498
1.00268
1.01739
1.01739
1.01739
1.01739
1.01739
1.01739
1.01739
1.01739
1.01739
1.01739
1.01739
1.01739
1.01739
1.01739
1.01739
1.01739
1.01739
1.01739
1.01739
1.01739
1.01739
1.01784
0.887887
0.925116
1.01638
1.0159
1.01546
1.01466
1.01228
1.00579
0.996437
0.989945
0.985474
0.984791
0.987412
0.992633
0.999551
1.00648
1.01189
1.01497
1.0027
1.01739
1.01739
1.01739
1.01739
1.01739
1.01739
1.01739
1.01739
1.01739
1.01739
1.01739
1.01739
1.01739
1.01739
1.01739
1.01739
1.01739
1.01739
1.01739
1.01739
1.01739
1.01741
0.891924
0.887937
1.01667
1.01621
1.01582
1.01528
1.01393
1.00971
1.00046
0.990625
0.982211
0.976896
0.977105
0.982538
0.991516
0.99906
1.00635
1.01186
1.01498
1.00273
1.01739
1.01739
1.01739
1.01739
1.01739
1.01739
1.01739
1.01739
1.01739
1.01739
1.01739
1.01739
1.01739
1.01739
1.01739
1.01739
1.01739
1.01739
1.01739
1.01739
1.01739
1.01739
0.945566
0.888056
1.01916
1.01648
1.01613
1.01571
1.01492
1.01253
1.00578
0.994576
0.983144
0.973974
0.969877
0.972138
0.97968
0.99089
0.998855
1.0063
1.01186
1.01499
1.00277
1.01739
1.01739
1.01739
1.01739
1.01739
1.01739
1.01739
1.01739
1.01739
1.01739
1.01739
1.01739
1.01739
1.01739
1.01739
1.01739
1.01739
1.01739
1.01739
1.01739
1.01739
1.01739
0.995275
0.887943
0.94488
1.01672
1.01639
1.01605
1.01552
1.01422
1.0102
1.00085
0.988644
0.976102
0.967685
0.965492
0.969415
0.97811
0.990639
0.998786
1.00631
1.01189
1.015
1.00282
1.01739
1.01739
1.01739
1.01739
1.01739
1.01739
1.01739
1.01739
1.01739
1.01739
1.01739
1.01739
1.01739
1.01739
1.01739
1.01739
1.01739
1.01739
1.01739
1.01739
1.01739
1.01739
1.01763
0.886301
0.906192
1.01692
1.01662
1.01633
1.01594
1.01519
1.01301
1.00696
0.995226
0.981363
0.969693
0.963621
0.963112
0.967967
0.977425
0.990563
0.99881
1.00637
1.01192
1.01502
1.00285
1.01739
1.01739
1.01739
1.01739
1.01739
1.01739
1.01739
1.01739
1.01739
1.01739
1.01739
1.01739
1.01739
1.01739
1.01739
1.01739
1.01739
1.01739
1.01739
1.01739
1.01739
1.01739
1.0174
0.945561
0.887648
1.01712
1.01681
1.01657
1.01625
1.01577
1.0146
1.01121
1.00263
0.989865
0.97561
0.965245
0.961098
0.96179
0.967317
0.977141
0.990605
0.998912
1.00644
1.01196
1.01503
1.00289
1.01739
1.01739
1.01739
1.01739
1.01739
1.01739
1.01739
1.01739
1.01739
1.01739
1.01739
1.01739
1.01739
1.01739
1.01739
1.01739
1.01739
1.01739
1.01739
1.01739
1.01739
1.01739
1.01739
0.945781
0.887871
0.947016
1.01698
1.01676
1.01651
1.01615
1.01548
1.0137
1.0086
0.997642
0.983297
0.970281
0.962216
0.959532
0.961151
0.967038
0.977134
0.990746
0.999037
1.00652
1.01199
1.01505
1.00293
1.01739
1.01739
1.01739
1.01739
1.01739
1.01739
1.01739
1.01739
1.01739
1.01739
1.01739
1.01739
1.01739
1.01739
1.01739
1.01739
1.01739
1.01739
1.01739
1.01739
1.01739
1.01739
1.01739
1.01942
0.886798
0.945322
1.01711
1.01692
1.01672
1.01644
1.016
1.01506
1.01233
1.00511
0.99253
0.978059
0.966364
0.96014
0.958647
0.960841
0.967029
0.977356
0.990916
0.999182
1.0066
1.01204
1.01507
1.00297
1.01739
1.01739
1.01739
1.01739
1.01739
1.01739
1.01739
1.01739
1.01739
1.01739
1.01739
1.01739
1.01739
1.01739
1.01739
1.01739
1.01739
1.01739
1.01739
1.01739
1.01739
1.01739
1.01739
1.01741
0.941992
0.882077
1.01721
1.01705
1.01688
1.01666
1.01635
1.0158
1.0144
1.01034
1.00073
0.987135
0.973479
0.963477
0.958798
0.958119
0.960787
0.967231
0.977638
0.991111
0.999319
1.00669
1.01209
1.01509
1.00301
1.01739
1.01739
1.01739
1.01739
1.01739
1.01739
1.01739
1.01739
1.01739
1.01739
1.01739
1.01739
1.01739
1.01739
1.01739
1.01739
1.01739
1.01739
1.01739
1.01739
1.01739
1.01739
1.01739
1.01739
0.945584
0.887462
1.01809
1.01715
1.01702
1.01685
1.0166
1.01624
1.0155
1.0134
1.0075
0.995733
0.981548
0.969475
0.961427
0.957886
0.957858
0.960929
0.967488
0.977971
0.991295
0.999474
1.0068
1.01214
1.01511
1.00305
1.01739
1.01739
1.01739
1.01739
1.01739
1.01739
1.01739
1.01739
1.01739
1.01739
1.01739
1.01739
1.01739
1.01739
1.01739
1.01739
1.01739
1.01739
1.01739
1.01739
1.01739
1.01739
1.01739
1.01739
1.02205
0.885371
0.945443
1.01723
1.01712
1.01699
1.0168
1.01654
1.01611
1.01504
1.01185
1.00354
0.990949
0.977404
0.966419
0.959913
0.957299
0.957805
0.961125
0.967794
0.978282
0.9915
0.999653
1.0069
1.01219
1.01513
1.00309
1.01739
1.01739
1.01739
1.01739
1.01739
1.01739
1.01739
1.01739
1.01739
1.01739
1.01739
1.01739
1.01739
1.01739
1.01739
1.01739
1.01739
1.01739
1.01739
1.01739
1.01739
1.01739
1.01739
1.01739
1.01742
0.94557
0.902532
1.01729
1.0172
1.0171
1.01695
1.01675
1.01647
1.01591
1.01429
1.00934
0.99885
0.985802
0.973717
0.964046
0.958825
0.956965
0.957833
0.961367
0.968078
0.978651
0.991739
0.999835
1.00701
1.01224
1.01516
1.00313
1.01739
1.01739
1.01739
1.01739
1.01739
1.01739
1.01739
1.01739
1.01739
1.01739
1.01739
1.01739
1.01739
1.01739
1.01739
1.01739
1.01739
1.01739
1.01739
1.01739
1.01739
1.01739
1.01739
1.01739
1.01739
0.945592
0.885609
1.0261
1.01726
1.01718
1.01707
1.01692
1.01671
1.01638
1.01557
1.01293
1.00586
0.994186
0.981202
0.970274
0.962241
0.95825
0.956755
0.957926
0.961591
0.968413
0.979114
0.991982
1.00002
1.00712
1.01229
1.01518
1.00316
1.01739
1.01739
1.01739
1.01739
1.01739
1.01739
1.01739
1.01739
1.01739
1.01739
1.01739
1.01739
1.01739
1.01739
1.01739
1.01739
1.01739
1.01739
1.01739
1.01739
1.01739
1.01739
1.01739
1.01739
1.01739
1.01971
0.878921
0.945513
1.01731
1.01724
1.01717
1.01705
1.01689
1.01666
1.01624
1.01493
1.01075
1.00169
0.990059
0.977681
0.967517
0.960876
0.957818
0.956642
0.958022
0.961862
0.968803
0.979591
0.992231
1.0002
1.00723
1.01234
1.01519
1.0032
1.01739
1.01739
1.01739
1.01739
1.01739
1.01739
1.01739
1.01739
1.01739
1.01739
1.01739
1.01739
1.01739
1.01739
1.01739
1.01739
1.01739
1.01739
1.01739
1.01739
1.01739
1.01739
1.01739
1.01739
1.01739
1.0174
0.945574
0.922542
1.01734
1.01729
1.01723
1.01715
1.01702
1.01686
1.0166
1.01596
1.01375
1.00775
0.997268
0.985303
0.974644
0.965332
0.959815
0.957463
0.956562
0.958175
0.962182
0.969211
0.980091
0.992475
1.00039
1.00734
1.01239
1.01521
1.00323
1.01739
1.01739
1.01739
1.01739
1.01739
1.01739
1.01739
1.01739
1.01739
1.01739
1.01739
1.01739
1.01739
1.01739
1.01739
1.01739
1.01739
1.01739
1.01739
1.01739
1.01739
1.01739
1.01739
1.01739
1.01739
1.01739
0.9463
0.880685
1.00522
1.01732
1.01728
1.01722
1.01713
1.017
1.01682
1.01649
1.0154
1.01185
1.00412
0.993106
0.981323
0.971482
0.963588
0.959167
0.957146
0.956555
0.958383
0.962523
0.969644
0.980584
0.992724
1.00057
1.00743
1.01244
1.01523
1.00326
1.01739
1.01739
1.01739
1.01739
1.01739
1.01739
1.01739
1.01739
1.01739
1.01739
1.01739
1.01739
1.01739
1.01739
1.01739
1.01739
1.01739
1.01739
1.01739
1.01739
1.01739
1.01739
1.01739
1.01739
1.01739
1.01739
1.01778
0.921751
0.945549
1.01735
1.01731
1.01727
1.0172
1.01711
1.01698
1.01678
1.01625
1.01436
1.00931
1.0001
0.98953
0.978201
0.968864
0.962195
0.958674
0.956888
0.956622
0.958627
0.962892
0.970075
0.981097
0.99296
1.00073
1.00754
1.01248
1.01525
1.00329
1.01739
1.01739
1.01739
1.01739
1.01739
1.01739
1.01739
1.01739
1.01739
1.01739
1.01739
1.01739
1.01739
1.01739
1.01739
1.01739
1.01739
1.01739
1.01739
1.01739
1.01739
1.01739
1.01739
1.01739
1.01739
1.01739
1.01739
0.945576
0.927153
1.01738
1.01734
1.01731
1.01726
1.01719
1.0171
1.01696
1.01668
1.01575
1.01275
1.00618
0.996042
0.985132
0.975694
0.966719
0.961045
0.958267
0.956692
0.95674
0.958905
0.963263
0.970527
0.981579
0.993185
1.0009
1.00763
1.01253
1.01527
1.00333
1.01739
1.01739
1.01739
1.01739
1.01739
1.01739
1.01739
1.01739
1.01739
1.01739
1.01739
1.01739
1.01739
1.01739
1.01739
1.01739
1.01739
1.01739
1.01739
1.01739
1.01739
1.01739
1.01739
1.01739
1.01739
1.01739
1.01739
1.00346
0.902197
0.946311
1.01735
1.01733
1.0173
1.01725
1.01718
1.01708
1.01692
1.01647
1.01485
1.0106
1.00261
0.992328
0.981581
0.972668
0.964935
0.960125
0.957931
0.956538
0.956906
0.959194
0.963655
0.970953
0.982044
0.993415
1.00106
1.00772
1.01257
1.01529
1.00336
1.01739
1.01739
1.01739
1.01739
1.01739
1.01739
1.01739
1.01739
1.01739
1.01739
1.01739
1.01739
1.01739
1.01739
1.01739
1.01739
1.01739
1.01739
1.01739
1.01739
1.01739
1.01739
1.01739
1.01739
1.01739
1.01739
1.01739
1.01744
0.945575
0.945566
1.01737
1.01735
1.01733
1.01729
1.01724
1.01717
1.01706
1.01684
1.01602
1.01351
1.00793
0.998792
0.98904
0.978716
0.970089
0.963481
0.959586
0.95765
0.956421
0.957095
0.959508
0.964026
0.971366
0.982525
0.99363
1.00122
1.00782
1.01262
1.0153
1.00338
1.01739
1.01739
1.01739
1.01739
1.01739
1.01739
1.01739
1.01739
1.01739
1.01739
1.01739
1.01739
1.01739
1.01739
1.01739
1.01739
1.01739
1.01739
1.01739
1.01739
1.01739
1.01739
1.01739
1.01739
1.01739
1.01739
1.01739
1.01739
0.945597
0.930248
1.01831
1.01736
1.01735
1.01732
1.01729
1.01724
1.01716
1.01704
1.01664
1.01527
1.0117
1.00478
0.995079
0.98506
0.976337
0.967946
0.962292
0.959156
0.95742
0.956404
0.957316
0.959809
0.964389
0.971797
0.982977
0.993845
1.00138
1.0079
1.01266
1.01532
1.00341
1.01739
1.01739
1.01739
1.01739
1.01739
1.01739
1.01739
1.01739
1.01739
1.01739
1.01739
1.01739
1.01739
1.01739
1.01739
1.01739
1.01739
1.01739
1.01739
1.01739
1.01739
1.01739
1.01739
1.01739
1.01739
1.01739
1.01739
1.01739
1.01838
0.945575
0.945568
1.01737
1.01736
1.01734
1.01732
1.01728
1.01723
1.01715
1.01695
1.01625
1.01415
1.00941
1.00131
0.991727
0.981807
0.973656
0.966162
0.961322
0.958798
0.957227
0.956503
0.957534
0.960106
0.964771
0.972203
0.983433
0.994057
1.00153
1.00799
1.0127
1.01534
1.00344
1.01739
1.01739
1.01739
1.01739
1.01739
1.01739
1.01739
1.01739
1.01739
1.01739
1.01739
1.01739
1.01739
1.01739
1.01739
1.01739
1.01739
1.01739
1.01739
1.01739
1.01739
1.01739
1.01739
1.01739
1.01739
1.01739
1.01739
1.01739
1.01739
0.945576
0.945573
1.01738
1.01737
1.01736
1.01734
1.01732
1.01728
1.01723
1.01712
1.01677
1.01563
1.01263
1.00667
0.997699
0.988607
0.979126
0.971132
0.964683
0.960541
0.958495
0.957071
0.956611
0.957755
0.960427
0.965132
0.972616
0.983886
0.994259
1.00168
1.00808
1.01274
1.01535
1.00347
1.01739
1.01739
1.01739
1.01739
1.01739
1.01739
1.01739
1.01739
1.01739
1.01739
1.01739
1.01739
1.01739
1.01739
1.01739
1.01739
1.01739
1.01739
1.01739
1.01739
1.01739
1.01739
1.01739
1.01739
1.01739
1.01739
1.01739
1.01739
1.01739
1.00987
0.945575
0.956823
1.01737
1.01737
1.01736
1.01734
1.01731
1.01728
1.01722
1.01703
1.01645
1.0147
1.01068
1.00355
0.994275
0.984988
0.976834
0.969003
0.963468
0.960014
0.958243
0.956931
0.956736
0.958005
0.960733
0.965503
0.973027
0.98432
0.994464
1.00183
1.00817
1.01278
1.01537
1.00349
1.01739
1.01739
1.01739
1.01739
1.01739
1.01739
1.01739
1.01739
1.01739
1.01739
1.01739
1.01739
1.01739
1.01739
1.01739
1.01739
1.01739
1.01739
1.01739
1.01739
1.01739
1.01739
1.01739
1.01739
1.01739
1.01739
1.01739
1.01739
1.01739
1.01742
0.945576
0.945574
1.01738
1.01737
1.01736
1.01735
1.01734
1.01731
1.01728
1.01718
1.01688
1.01593
1.01343
1.00832
1.00017
0.991232
0.981961
0.974433
0.967229
0.962465
0.959642
0.95802
0.956811
0.956898
0.958247
0.96105
0.965873
0.973425
0.984765
0.994665
1.00197
1.00825
1.01282
1.01538
1.00352
1.01739
1.01739
1.01739
1.01739
1.01739
1.01739
1.01739
1.01739
1.01739
1.01739
1.01739
1.01739
1.01739
1.01739
1.01739
1.01739
1.01739
1.01739
1.01739
1.01739
1.01739
1.01739
1.01739
1.01739
1.01739
1.01739
1.01739
1.01739
1.01739
1.01739
0.94612
0.945575
1.01768
1.01737
1.01737
1.01736
1.01735
1.01734
1.01732
1.01726
1.01711
1.01662
1.01517
1.01178
1.00555
0.996751
0.988209
0.979406
0.971968
0.965745
0.961651
0.959317
0.957825
0.956763
0.957062
0.958504
0.961371
0.966234
0.973836
0.985209
0.994862
1.00211
1.00833
1.01286
1.0154
1.00354
1.01739
1.01739
1.01739
1.01739
1.01739
1.01739
1.01739
1.01739
1.01739
1.01739
1.01739
1.01739
1.01739
1.01739
1.01739
1.01739
1.01739
1.01739
1.01739
1.01739
1.01739
1.01739
1.01739
1.01739
1.01739
1.01739
1.01739
1.01739
1.01739
1.01739
1.01762
0.945576
0.945575
1.01738
1.01737
1.01737
1.01736
1.01735
1.01734
1.01731
1.01722
1.01698
1.0162
1.01412
1.00975
1.00244
0.993562
0.984852
0.977187
0.969872
0.964522
0.960978
0.959034
0.957669
0.956832
0.957248
0.958769
0.961687
0.96661
0.974248
0.985644
0.995058
1.00225
1.00841
1.0129
1.01541
1.00357
1.01739
1.01739
1.01739
1.01739
1.01739
1.01739
1.01739
1.01739
1.01739
1.01739
1.01739
1.01739
1.01739
1.01739
1.01739
1.01739
1.01739
1.01739
1.01739
1.01739
1.01739
1.01739
1.01739
1.01739
1.01739
1.01739
1.01739
1.01739
1.01739
1.01739
1.01739
0.945578
0.945576
1.01741
1.01738
1.01737
1.01737
1.01736
1.01735
1.01735
1.01729
1.01716
1.01676
1.01558
1.01273
1.00731
0.999121
0.990763
0.982012
0.975008
0.968125
0.963506
0.960422
0.958799
0.95753
0.956931
0.957448
0.959034
0.962021
0.966989
0.974654
0.986083
0.995241
1.00237
1.00848
1.01293
1.01542
1.00359
1.01739
1.01739
1.01739
1.01739
1.01739
1.01739
1.01739
1.01739
1.01739
1.01739
1.01739
1.01739
1.01739
1.01739
1.01739
1.01739
1.01739
1.01739
1.01739
1.01739
1.01739
1.01739
1.01739
1.01739
1.01739
1.01739
1.01739
1.01739
1.01739
1.01739
1.01739
1.01985
0.945576
0.946583
1.01738
1.01738
1.01737
1.01737
1.01736
1.01737
1.01733
1.01726
1.01706
1.01643
1.01471
1.01098
1.00447
0.995867
0.987788
0.979559
0.972609
0.966663
0.962656
0.960073
0.958592
0.957417
0.957055
0.957656
0.959321
0.96236
0.967364
0.975065
0.98649
0.995417
1.0025
1.00856
1.01297
1.01544
1.00361
1.01739
1.01739
1.01739
1.01739
1.01739
1.01739
1.01739
1.01739
1.01739
1.01739
1.01739
1.01739
1.01739
1.01739
1.01739
1.01739
1.01739
1.01739
1.01739
1.01739
1.01739
1.01739
1.01739
1.01739
1.01739
1.01739
1.01739
1.01739
1.01739
1.01739
1.01739
1.0174
0.945576
0.945576
1.01738
1.01738
1.01738
1.01737
1.01737
1.01738
1.01736
1.01731
1.01721
1.01689
1.01593
1.01355
1.00883
1.00135
0.992892
0.984647
0.977411
0.97058
0.965434
0.961967
0.959783
0.958417
0.957324
0.957192
0.95789
0.959612
0.962697
0.967745
0.975447
0.986883
0.995596
1.00263
1.00863
1.013
1.01545
1.00364
1.01739
1.01739
1.01739
1.01739
1.01739
1.01739
1.01739
1.01739
1.01739
1.01739
1.01739
1.01739
1.01739
1.01739
1.01739
1.01739
1.01739
1.01739
1.01739
1.01739
1.01739
1.01739
1.01739
1.01739
1.01739
1.01739
1.01739
1.01739
1.01739
1.01739
1.01739
1.01739
1.01767
0.945576
1.02027
1.01738
1.01738
1.01738
1.01737
1.01738
1.01738
1.01734
1.01729
1.01713
1.01662
1.01522
1.01204
1.00629
0.998117
0.9903
0.981962
0.975419
0.96886
0.964421
0.961394
0.959536
0.958268
0.957377
0.95736
0.958133
0.959906
0.963041
0.968099
0.975817
0.98729
0.995768
1.00275
1.0087
1.01304
1.01547
1.00366
1.01739
1.01739
1.01739
1.01739
1.01739
1.01739
1.01739
1.01739
1.01739
1.01739
1.01739
1.01739
1.01739
1.01739
1.01739
1.01739
1.01739
1.01739
1.01739
1.01739
1.01739
1.01739
1.01739
1.01739
1.01739
1.01739
1.01739
1.01739
1.01739
1.01739
1.01739
1.01739
1.01741
0.945576
0.945576
1.01738
1.01738
1.01738
1.01738
1.01738
1.01739
1.01736
1.01733
1.01725
1.01699
1.01622
1.01424
1.01017
1.0034
0.995028
0.987329
0.979596
0.973082
0.96743
0.963574
0.960932
0.959323
0.958138
0.957466
0.957543
0.958383
0.960209
0.963362
0.968444
0.976202
0.987681
0.995937
1.00287
1.00878
1.01307
1.01548
1.00368
1.01739
1.01739
1.01739
1.01739
1.01739
1.01739
1.01739
1.01739
1.01739
1.01739
1.01739
1.01739
1.01739
1.01739
1.01739
1.01739
1.01739
1.01739
1.01739
1.01739
1.01739
1.01739
1.01739
1.01739
1.01739
1.01739
1.01739
1.01739
1.01739
1.01739
1.01739
1.01739
1.01739
0.961809
0.945576
1.01844
1.01738
1.01738
1.01738
1.01738
1.01739
1.01738
1.01736
1.01731
1.01719
1.01678
1.01564
1.01296
1.00792
1.00028
0.992245
0.984377
0.977515
0.971122
0.96623
0.962877
0.960562
0.959136
0.958034
0.957578
0.95774
0.958645
0.960492
0.963676
0.968804
0.976574
0.988067
0.996108
1.00299
1.00885
1.01311
1.01549
1.00371
1.01739
1.01739
1.01739
1.01739
1.01739
1.01739
1.01739
1.01739
1.01739
1.01739
1.01739
1.01739
1.01739
1.01739
1.01739
1.01739
1.01739
1.01739
1.01739
1.01739
1.01739
1.01739
1.01739
1.01739
1.01739
1.01739
1.01739
1.01739
1.01739
1.01739
1.01739
1.01739
1.01739
1.01745
0.945576
0.945577
1.01738
1.01738
1.01738
1.01738
1.01738
1.01739
1.01737
1.01735
1.01728
1.01708
1.01646
1.01483
1.01134
1.00527
0.997134
0.989835
0.981811
0.975661
0.969468
0.965232
0.962305
0.96026
0.958981
0.95804
0.957711
0.957952
0.958889
0.96077
0.964006
0.969153
0.976942
0.988463
0.996274
1.00312
1.00892
1.01315
1.01551
1.00373
1.01739
1.01739
1.01739
1.01739
1.01739
1.01739
1.01739
1.01739
1.01739
1.01739
1.01739
1.01739
1.01739
1.01739
1.01739
1.01739
1.01739
1.01739
1.01739
1.01739
1.01739
1.01739
1.01739
1.01739
1.01739
1.01739
1.01739
1.01739
1.01739
1.01739
1.01739
1.01739
1.01739
1.01739
0.946848
0.945576
1.01741
1.01738
1.01738
1.01738
1.01738
1.0174
1.01738
1.01736
1.01733
1.01723
1.01691
1.01599
1.01375
1.00934
1.00231
0.99421
0.986824
0.979527
0.97343
0.968082
0.964405
0.961829
0.960032
0.95885
0.958102
0.957866
0.958153
0.959132
0.961067
0.964326
0.9695
0.97732
0.988831
0.996444
1.00325
1.009
1.01318
1.01552
1.00375
1.01739
1.01739
1.01739
1.01739
1.01739
1.01739
1.01739
1.01739
1.01739
1.01739
1.01739
1.01739
1.01739
1.01739
1.01739
1.01739
1.01739
1.01739
1.01739
1.01739
1.01739
1.01739
1.01739
1.01739
1.01739
1.01739
1.01739
1.01739
1.01739
1.01739
1.01739
1.01739
1.01739
1.01739
1.01755
0.945576
0.945685
1.01738
1.01738
1.01738
1.01738
1.0174
1.01739
1.01737
1.01736
1.01731
1.01715
1.01665
1.01533
1.01235
1.00695
0.999199
0.991612
0.984033
0.977536
0.971547
0.966926
0.963711
0.961449
0.959862
0.9588
0.958195
0.958017
0.958355
0.959395
0.961356
0.964646
0.969857
0.977687
0.989094
0.996622
1.00337
1.00907
1.01322
1.01554
1.00377
1.01739
1.01739
1.01739
1.01739
1.01739
1.01739
1.01739
1.01739
1.01739
1.01739
1.01739
1.01739
1.01739
1.01739
1.01739
1.01739
1.01739
1.01739
1.01739
1.01739
1.01739
1.01739
1.01739
1.01739
1.01739
1.01739
1.01739
1.01739
1.01739
1.01739
1.01739
1.01739
1.01739
1.01739
1.01739
0.945706
0.945576
1.01739
1.01738
1.01738
1.01738
1.01739
1.0174
1.01738
1.01737
1.01735
1.01727
1.01702
1.01628
1.01442
1.01059
1.0042
0.996175
0.989302
0.981568
0.975783
0.969969
0.965955
0.963143
0.961147
0.959747
0.958821
0.958289
0.958173
0.95858
0.959653
0.961646
0.964977
0.970203
0.978072
0.989373
0.996794
1.00349
1.00915
1.01326
1.01555
1.0038
1.01739
1.01739
1.01739
1.01739
1.01739
1.01739
1.01739
1.01739
1.01739
1.01739
1.01739
1.01739
1.01739
1.01739
1.01739
1.01739
1.01739
1.01739
1.01739
1.01739
1.01739
1.01739
1.01739
1.01739
1.01739
1.01739
1.01739
1.01739
1.01739
1.01739
1.01739
1.01739
1.01739
1.01739
1.01739
1.01781
0.945576
0.953426
1.01738
1.01738
1.01738
1.01739
1.0174
1.01738
1.01738
1.01736
1.01733
1.0172
1.01681
1.01574
1.01323
1.00845
1.00119
0.993408
0.986279
0.979374
0.973668
0.96864
0.96515
0.962678
0.960917
0.959682
0.958851
0.958395
0.958356
0.958805
0.959914
0.961948
0.965298
0.970562
0.978483
0.989645
0.996966
1.00362
1.00922
1.01329
1.01557
1.00382
1.01739
1.01739
1.01739
1.01739
1.01739
1.01739
1.01739
1.01739
1.01739
1.01739
1.01739
1.01739
1.01739
1.01739
1.01739
1.01739
1.01739
1.01739
1.01739
1.01739
1.01739
1.01739
1.01739
1.01739
1.01739
1.01739
1.01739
1.01739
1.01739
1.01739
1.01739
1.01739
1.01739
1.01739
1.01739
1.01739
0.945596
0.945576
1.01738
1.01738
1.01738
1.01738
1.01739
1.01739
1.01738
1.01737
1.01736
1.0173
1.0171
1.01651
1.01499
1.01169
1.00593
0.99812
0.990986
0.983626
0.977481
0.97188
0.967531
0.964481
0.962309
0.960751
0.959637
0.958898
0.958531
0.958543
0.959035
0.960188
0.962243
0.96563
0.970939
0.978885
0.989918
0.997141
1.00374
1.0093
1.01333
1.01558
1.00384
1.01739
1.01739
1.01739
1.01739
1.01739
1.01739
1.01739
1.01739
1.01739
1.01739
1.01739
1.01739
1.01739
1.01739
1.01739
1.01739
1.01739
1.01739
1.01739
1.01739
1.01739
1.01739
1.01739
1.01739
1.01739
1.01739
1.01739
1.01739
1.01739
1.01739
1.01739
1.01739
1.01739
1.01739
1.01739
1.01739
1.01845
0.945576
1.01111
1.01738
1.01738
1.01738
1.01739
1.01739
1.01738
1.01738
1.01737
1.01734
1.01725
1.01694
1.01608
1.01398
1.00979
1.00307
0.99523
0.988547
0.981255
0.975823
0.970381
0.966603
0.96394
0.962019
0.960617
0.959618
0.958982
0.958677
0.958738
0.95928
0.960456
0.962547
0.965979
0.971308
0.979289
0.990199
0.997318
1.00387
1.00937
1.01337
1.01559
1.00388
1.01739
1.01739
1.01739
1.01739
1.01739
1.01739
1.01739
1.01739
1.01739
1.01739
1.01739
1.01739
1.01739
1.01739
1.01739
1.01739
1.01739
1.01739
1.01739
1.01739
1.01739
1.01739
1.01739
1.01739
1.01739
1.01739
1.01739
1.01739
1.01739
1.01739
1.01739
1.01739
1.01739
1.01739
1.01739
1.01739
1.01739
0.945582
0.945576
1.01738
1.01738
1.01738
1.01738
1.0174
1.01739
1.01738
1.01738
1.01736
1.01732
1.01717
1.0167
1.01546
1.01265
1.00749
1.00003
0.992627
0.985693
0.97917
0.973824
0.969121
0.965846
0.9635
0.961779
0.960519
0.959641
0.959081
0.958835
0.958952
0.959522
0.960734
0.962868
0.966322
0.971682
0.979707
0.990483
0.997492
1.00399
1.00945
1.0134
1.01562
1.01739
1.01739
1.01739
1.01739
1.01739
1.01739
1.01739
1.01739
1.01739
1.01739
1.01739
1.01739
1.01739
1.01739
1.01739
1.01739
1.01739
1.01739
1.01739
1.01739
1.01739
1.01739
1.01739
1.01739
1.01739
1.01739
1.01739
1.01739
1.01739
1.01739
1.01739
1.01739
1.01739
1.01739
1.01739
1.01739
1.01739
1.01965
0.945576
1.02562
1.01738
1.01738
1.01738
1.0174
1.01739
1.01738
1.01738
1.01737
1.01735
1.01728
1.01704
1.01636
1.01462
1.01097
1.00482
0.997042
0.990358
0.98316
0.97737
0.972141
0.968085
0.965219
0.96313
0.961587
0.960472
0.959687
0.959198
0.959015
0.959165
0.959773
0.961029
0.963184
0.96667
0.97207
0.98013
0.990763
0.997663
1.00412
1.00951
1.01347
1.01739
1.01739
1.01739
1.01739
1.01739
1.01739
1.01739
1.01739
1.01739
1.01739
1.01739
1.01739
1.01739
1.01739
1.01739
1.01739
1.01739
1.01739
1.01739
1.01739
1.01739
1.01739
1.01739
1.01739
1.01739
1.01739
1.01739
1.01739
1.01739
1.01739
1.01739
1.01739
1.01739
1.01739
1.01739
1.01739
1.01739
1.01739
0.94558
0.945577
1.01738
1.01738
1.01738
1.0174
1.0174
1.01738
1.01738
1.01738
1.01737
1.01734
1.01722
1.01686
1.01586
1.01348
1.0089
1.00187
0.994296
0.987782
0.980888
0.975798
0.970743
0.967222
0.964689
0.962825
0.961457
0.960456
0.959756
0.95934
0.959197
0.959389
0.960042
0.96132
0.963507
0.967033
0.972463
0.980547
0.99104
0.99785
1.00422
1.00965
1.01739
1.01739
1.01739
1.01739
1.01739
1.01739
1.01739
1.01739
1.01739
1.01739
1.01739
1.01739
1.01739
1.01739
1.01739
1.01739
1.01739
1.01739
1.01739
1.01739
1.01739
1.01739
1.01739
1.01739
1.01739
1.01739
1.01739
1.01739
1.01739
1.01739
1.01739
1.01739
1.01739
1.01739
1.01739
1.01739
1.01739
1.01739
1.02132
0.945576
1.01853
1.01738
1.01738
1.01739
1.01739
1.01739
1.01738
1.01738
1.01738
1.01736
1.01731
1.01712
1.01658
1.01515
1.012
1.00643
0.99885
0.991869
0.985071
0.978918
0.973936
0.969577
0.966493
0.964247
0.962595
0.961367
0.960469
0.959856
0.959489
0.959392
0.959632
0.960309
0.96162
0.963845
0.9674
0.972851
0.980962
0.991346
0.997991
1.00446
1.01739
1.01739
1.01739
1.01739
1.01739
1.01739
1.01739
1.01739
1.01739
1.01739
1.01739
1.01739
1.01739
1.01739
1.01739
1.01739
1.01739
1.01739
1.01739
1.01739
1.01739
1.01739
1.01739
1.01739
1.01739