/*--------------------------------*- C++ -*----------------------------------*\
| =========                 |                                                 |
| \\      /  F ield         | OpenFOAM: The Open Source CFD Toolbox           |
|  \\    /   O peration     | Version:  v2012                                 |
|   \\  /    A nd           | Website:  www.openfoam.com                      |
|    \\/     M anipulation  |                                                 |
\*---------------------------------------------------------------------------*/
FoamFile
{
    version     2.0;
    format      ascii;
    class       volScalarField;
    location    "1901";
    object      Fs;
}
// * * * * * * * * * * * * * * * * * * * * * * * * * * * * * * * * * * * * * //

dimensions      [0 0 0 0 0 0 0];


internalField   nonuniform List<scalar> 
8000
(
4.53979e-05
4.53979e-05
4.53979e-05
4.53979e-05
4.53979e-05
4.53979e-05
4.53979e-05
4.53979e-05
4.53979e-05
4.53979e-05
4.53979e-05
4.53979e-05
4.53979e-05
4.53979e-05
4.53979e-05
4.53979e-05
4.53979e-05
4.53979e-05
4.53979e-05
4.53979e-05
4.53979e-05
4.53979e-05
4.53979e-05
4.53979e-05
4.53979e-05
4.53979e-05
4.53979e-05
4.53979e-05
4.53979e-05
4.53979e-05
4.53979e-05
4.53979e-05
4.53979e-05
4.53979e-05
4.53979e-05
4.53979e-05
4.53979e-05
4.53979e-05
4.53979e-05
4.53979e-05
4.53979e-05
4.53979e-05
4.53979e-05
4.53979e-05
4.53979e-05
4.53979e-05
4.53979e-05
4.53979e-05
4.53979e-05
4.53979e-05
4.53979e-05
4.53979e-05
4.53979e-05
4.53979e-05
4.53979e-05
4.53979e-05
4.53979e-05
4.53979e-05
4.53979e-05
4.53979e-05
4.53979e-05
4.53979e-05
4.53979e-05
4.53979e-05
4.53979e-05
4.53979e-05
4.53979e-05
4.53979e-05
4.53979e-05
4.53979e-05
4.53979e-05
4.53979e-05
4.53979e-05
4.53979e-05
4.53979e-05
4.53979e-05
4.53979e-05
4.53979e-05
4.53979e-05
4.53979e-05
4.53979e-05
4.53979e-05
4.53979e-05
4.53979e-05
4.53979e-05
4.53979e-05
4.53979e-05
4.53979e-05
4.53979e-05
4.53979e-05
4.53979e-05
4.53979e-05
4.53979e-05
4.53979e-05
4.53979e-05
4.53979e-05
4.53979e-05
4.53979e-05
4.53979e-05
4.53979e-05
4.53979e-05
4.53979e-05
4.53979e-05
4.53979e-05
4.53979e-05
4.53979e-05
4.53979e-05
4.53979e-05
4.53979e-05
4.53979e-05
4.53979e-05
4.53979e-05
4.53979e-05
4.53979e-05
4.53979e-05
4.53979e-05
4.53979e-05
4.53979e-05
4.53979e-05
4.53979e-05
4.53979e-05
4.53979e-05
4.53979e-05
4.53979e-05
4.53979e-05
4.53979e-05
4.53979e-05
4.53979e-05
4.53979e-05
4.53979e-05
4.53979e-05
4.53979e-05
4.53979e-05
4.53979e-05
4.53979e-05
4.53979e-05
4.53979e-05
4.53979e-05
4.53979e-05
4.53979e-05
4.53979e-05
4.53979e-05
4.53979e-05
4.53979e-05
4.53979e-05
4.53979e-05
4.53979e-05
4.53979e-05
4.53979e-05
4.53979e-05
4.53979e-05
4.53979e-05
4.53979e-05
4.54429e-05
4.53979e-05
4.53979e-05
4.53979e-05
4.53979e-05
4.53979e-05
4.53979e-05
4.53979e-05
4.53979e-05
4.53979e-05
4.53979e-05
4.53979e-05
4.53979e-05
4.53979e-05
4.53979e-05
4.53979e-05
4.53979e-05
4.53979e-05
4.75828e-05
4.54205e-05
4.53979e-05
4.53979e-05
4.53979e-05
4.53979e-05
4.53979e-05
4.53979e-05
4.53979e-05
4.53979e-05
4.53979e-05
4.53979e-05
4.53979e-05
4.53979e-05
4.53979e-05
4.53979e-05
4.53979e-05
4.53979e-05
4.53979e-05
1
4.69918e-05
4.54094e-05
4.53979e-05
4.53979e-05
4.53979e-05
4.53979e-05
4.53979e-05
4.53979e-05
4.53979e-05
4.53979e-05
4.53979e-05
4.53979e-05
4.53979e-05
4.53979e-05
4.53979e-05
4.53979e-05
4.53979e-05
4.53979e-05
4.53979e-05
1
0
4.61731e-05
4.54039e-05
4.53979e-05
4.53979e-05
4.53979e-05
4.53979e-05
4.53979e-05
4.53979e-05
4.53979e-05
4.53979e-05
4.53979e-05
4.53979e-05
4.53979e-05
4.53979e-05
4.53979e-05
4.53979e-05
4.53979e-05
4.53979e-05
4.53979e-05
1
0
1.20991e-09
4.6092e-05
4.54011e-05
4.53979e-05
4.53979e-05
4.53979e-05
4.53979e-05
4.53979e-05
4.53979e-05
4.53979e-05
4.53979e-05
4.53979e-05
4.53979e-05
4.53979e-05
4.53979e-05
4.53979e-05
4.53979e-05
4.53979e-05
4.53979e-05
4.53979e-05
0.999997
1
0
5.68275e-07
4.58322e-05
4.53997e-05
4.53979e-05
4.53979e-05
4.53979e-05
4.53979e-05
4.53979e-05
4.53979e-05
4.53979e-05
4.53979e-05
4.53979e-05
4.53979e-05
4.53979e-05
4.53979e-05
4.53979e-05
4.53979e-05
4.53979e-05
4.53979e-05
4.53979e-05
0.847645
1
0
1.2881e-06
8.42499e-06
4.57309e-05
4.5399e-05
4.53979e-05
4.53979e-05
4.53979e-05
4.53979e-05
4.53979e-05
4.53979e-05
4.53979e-05
4.53979e-05
4.53979e-05
4.53979e-05
4.53979e-05
4.53979e-05
4.53979e-05
4.53979e-05
4.53979e-05
4.53979e-05
4.53979e-05
0.026648
1
0
2.05341e-12
2.61282e-05
6.7693e-06
4.56305e-05
4.53988e-05
4.53979e-05
4.53979e-05
4.53979e-05
4.53979e-05
4.53979e-05
4.53979e-05
4.53979e-05
4.53979e-05
4.53979e-05
4.53979e-05
4.53979e-05
4.53979e-05
4.53979e-05
4.53979e-05
4.53979e-05
4.53979e-05
4.53979e-05
0.00267193
1
0
0
1.89678e-06
8.82847e-06
1.59881e-05
4.55682e-05
4.53986e-05
4.53979e-05
4.53979e-05
4.53979e-05
4.53979e-05
4.53979e-05
4.53979e-05
4.53979e-05
4.53979e-05
4.53979e-05
4.53979e-05
4.53979e-05
4.53979e-05
4.53979e-05
4.53979e-05
4.53979e-05
4.53979e-05
4.53979e-05
0.00114607
1
0
0
2.5224e-09
3.26884e-06
2.01221e-05
2.29665e-05
4.55173e-05
4.53984e-05
4.53979e-05
4.53979e-05
4.53979e-05
4.53979e-05
4.53979e-05
4.53979e-05
4.53979e-05
4.53979e-05
4.53979e-05
4.53979e-05
4.53979e-05
4.53979e-05
4.53979e-05
4.53979e-05
4.53979e-05
4.53979e-05
4.53979e-05
0.000658761
1
1
0
2.07612e-14
3.77337e-07
1.1234e-05
2.71367e-05
2.71209e-05
4.54847e-05
4.53983e-05
4.53979e-05
4.53979e-05
4.53979e-05
4.53979e-05
4.53979e-05
4.53979e-05
4.53979e-05
4.53979e-05
4.53979e-05
4.53979e-05
4.53979e-05
4.53979e-05
4.53979e-05
4.53979e-05
4.53979e-05
4.53979e-05
4.53979e-05
0.000348428
1
1
0
0
3.4184e-09
3.92737e-06
1.87502e-05
3.00381e-05
3.19063e-05
4.54549e-05
4.53981e-05
4.53979e-05
4.53979e-05
4.53979e-05
4.53979e-05
4.53979e-05
4.53979e-05
4.53979e-05
4.53979e-05
4.53979e-05
4.53979e-05
4.53979e-05
4.53979e-05
4.53979e-05
4.53979e-05
4.53979e-05
4.53979e-05
4.53979e-05
0.000173002
1
1
0
0
1.20315e-12
5.34861e-07
9.96929e-06
2.30507e-05
3.35718e-05
3.49761e-05
4.5434e-05
4.5398e-05
4.53979e-05
4.53979e-05
4.53979e-05
4.53979e-05
4.53979e-05
4.53979e-05
4.53979e-05
4.53979e-05
4.53979e-05
4.53979e-05
4.53979e-05
4.53979e-05
4.53979e-05
4.53979e-05
4.53979e-05
4.53979e-05
4.53979e-05
0.000100825
1
1
0
0
1.66533e-16
1.29572e-08
3.31936e-06
1.50707e-05
2.71937e-05
3.44552e-05
3.93768e-05
4.54194e-05
4.53979e-05
4.53979e-05
4.53979e-05
4.53979e-05
4.53979e-05
4.53979e-05
4.53979e-05
4.53979e-05
4.53979e-05
4.53979e-05
4.53979e-05
4.53979e-05
4.53979e-05
4.53979e-05
4.53979e-05
4.53979e-05
4.53979e-05
4.53979e-05
7.12391e-05
1
1
1.11022e-16
0
0
2.31578e-11
4.73232e-07
7.56402e-06
1.97573e-05
2.81999e-05
3.78848e-05
4.21063e-05
4.54098e-05
4.53979e-05
4.53979e-05
4.53979e-05
4.53979e-05
4.53979e-05
4.53979e-05
4.53979e-05
4.53979e-05
4.53979e-05
4.53979e-05
4.53979e-05
4.53979e-05
4.53979e-05
4.53979e-05
4.53979e-05
4.53979e-05
4.53979e-05
4.53979e-05
5.77012e-05
1
1
5.14058e-06
0
0
8.9373e-15
1.42033e-08
2.39562e-06
1.21581e-05
2.14098e-05
3.31211e-05
4.25862e-05
4.72088e-05
4.54044e-05
4.53979e-05
4.53979e-05
4.53979e-05
4.53979e-05
4.53979e-05
4.53979e-05
4.53979e-05
4.53979e-05
4.53979e-05
4.53979e-05
4.53979e-05
4.53979e-05
4.53979e-05
4.53979e-05
4.53979e-05
4.53979e-05
4.53979e-05
4.53979e-05
5.11126e-05
0.999974
1
0.973785
0
0
2.22045e-16
4.47888e-11
3.25754e-07
5.72475e-06
1.47096e-05
2.82247e-05
4.17429e-05
4.54284e-05
4.9134e-05
4.54012e-05
4.53979e-05
4.53979e-05
4.53979e-05
4.53979e-05
4.53979e-05
4.53979e-05
4.53979e-05
4.53979e-05
4.53979e-05
4.53979e-05
4.53979e-05
4.53979e-05
4.53979e-05
4.53979e-05
4.53979e-05
4.53979e-05
4.53979e-05
4.53979e-05
4.79423e-05
0.738909
1
1
0
0
1.44329e-14
4.12448e-14
1.00097e-08
1.67759e-06
8.82987e-06
2.25696e-05
3.99423e-05
4.39669e-05
5.1642e-05
5.03585e-05
4.53994e-05
4.53979e-05
4.53979e-05
4.53979e-05
4.53979e-05
4.53979e-05
4.53979e-05
4.53979e-05
4.53979e-05
4.53979e-05
4.53979e-05
4.53979e-05
4.53979e-05
4.53979e-05
4.53979e-05
4.53979e-05
4.53979e-05
4.53979e-05
4.53979e-05
4.64686e-05
0.0106555
1
1
5.55112e-17
0
5.68379e-13
3.05311e-15
3.40195e-11
2.00615e-07
4.10976e-06
1.61417e-05
3.72167e-05
4.26827e-05
5.77268e-05
5.46186e-05
5.43119e-05
4.53986e-05
4.53979e-05
4.53979e-05
4.53979e-05
4.53979e-05
4.53979e-05
4.53979e-05
4.53979e-05
4.53979e-05
4.53979e-05
4.53979e-05
4.53979e-05
4.53979e-05
4.53979e-05
4.53979e-05
4.53979e-05
4.53979e-05
4.53979e-05
4.53979e-05
4.5816e-05
0.000552925
1
1
3.62019e-10
0
1.13576e-13
6.15508e-13
1.35558e-13
4.50992e-09
1.05656e-06
9.87805e-06
3.32848e-05
4.12028e-05
6.74717e-05
6.37824e-05
5.79379e-05
4.71816e-05
4.53982e-05
4.53979e-05
4.53979e-05
4.53979e-05
4.53979e-05
4.53979e-05
4.53979e-05
4.53979e-05
4.53979e-05
4.53979e-05
4.53979e-05
4.53979e-05
4.53979e-05
4.53979e-05
4.53979e-05
4.53979e-05
4.53979e-05
4.53979e-05
4.53979e-05
4.55484e-05
0.000129731
1
1
8.48646e-05
0
3.33067e-15
1.66434e-10
9.83658e-14
8.40772e-12
8.85473e-08
4.14636e-06
3.18824e-05
4.02271e-05
8.0075e-05
7.81434e-05
6.40202e-05
4.89358e-05
4.61541e-05
4.5398e-05
4.53979e-05
4.53979e-05
4.53979e-05
4.53979e-05
4.53979e-05
4.53979e-05
4.53979e-05
4.53979e-05
4.53979e-05
4.53979e-05
4.53979e-05
4.53979e-05
4.53979e-05
4.53979e-05
4.53979e-05
4.53979e-05
4.53979e-05
4.53979e-05
4.54471e-05
6.79009e-05
0.999994
1
0.680903
0
0
5.09122e-10
1.5102e-11
4.90719e-14
8.31026e-10
6.91362e-07
2.43311e-05
3.6186e-05
9.09408e-05
9.87488e-05
7.27504e-05
5.17488e-05
4.9357e-05
4.57875e-05
4.53979e-05
4.53979e-05
4.53979e-05
4.53979e-05
4.53979e-05
4.53979e-05
4.53979e-05
4.53979e-05
4.53979e-05
4.53979e-05
4.53979e-05
4.53979e-05
4.53979e-05
4.53979e-05
4.53979e-05
4.53979e-05
4.53979e-05
4.53979e-05
4.53979e-05
4.54124e-05
5.2232e-05
0.596427
1
1
0
0
2.25843e-10
1.38727e-09
3.69593e-13
1.22752e-12
1.89232e-08
5.94573e-06
2.75939e-05
9.55927e-05
0.000124314
8.15413e-05
5.50277e-05
5.31408e-05
4.78121e-05
4.56986e-05
4.53979e-05
4.53979e-05
4.53979e-05
4.53979e-05
4.53979e-05
4.53979e-05
4.53979e-05
4.53979e-05
4.53979e-05
4.53979e-05
4.53979e-05
4.53979e-05
4.53979e-05
4.53979e-05
4.53979e-05
4.53979e-05
4.53979e-05
4.53979e-05
4.53979e-05
4.54017e-05
4.74422e-05
0.00351235
1
1
4.652e-11
0
5.8662e-12
7.22215e-09
1.73261e-10
3.7359e-14
2.4763e-11
2.7577e-07
1.49059e-05
8.23581e-05
0.000135121
8.52971e-05
5.87008e-05
5.73722e-05
4.99401e-05
4.70217e-05
4.51911e-05
4.53979e-05
4.53979e-05
4.53979e-05
4.53979e-05
4.53979e-05
4.53979e-05
4.53979e-05
4.53979e-05
4.53979e-05
4.53979e-05
4.53979e-05
4.53979e-05
4.53979e-05
4.53979e-05
4.53979e-05
4.53979e-05
4.53979e-05
4.53979e-05
4.53979e-05
4.53987e-05
4.59617e-05
0.000228862
1
1
3.70728e-05
0
2.7478e-14
8.17676e-09
1.15545e-08
1.5547e-12
2.25375e-14
1.29177e-09
2.00253e-06
3.18097e-05
0.00011759
8.78995e-05
6.67048e-05
6.25057e-05
5.15878e-05
4.80514e-05
4.65431e-05
4.51423e-05
4.53979e-05
4.53979e-05
4.53979e-05
4.53979e-05
4.53979e-05
4.53979e-05
4.53979e-05
4.53979e-05
4.53979e-05
4.53979e-05
4.53979e-05
4.53979e-05
4.53979e-05
4.53979e-05
4.53979e-05
4.53979e-05
4.53979e-05
4.53979e-05
4.53979e-05
4.5398e-05
4.55363e-05
7.72845e-05
0.999999
1
0.209895
0
5.55112e-17
3.72627e-09
7.44293e-08
8.96865e-10
1.28786e-14
5.00544e-13
2.95748e-08
4.87725e-06
5.75725e-05
7.57677e-05
6.91599e-05
6.22626e-05
5.20769e-05
4.89747e-05
4.72759e-05
4.59401e-05
4.49407e-05
4.53979e-05
4.53979e-05
4.53979e-05
4.53979e-05
4.53979e-05
4.53979e-05
4.53979e-05
4.53979e-05
4.53979e-05
4.53979e-05
4.53979e-05
4.53979e-05
4.53979e-05
4.53979e-05
4.53979e-05
4.53979e-05
4.53979e-05
4.53979e-05
4.53979e-05
4.53979e-05
4.54274e-05
5.29494e-05
0.571319
1
1
2.66454e-15
0
2.97912e-10
7.86948e-08
2.96961e-08
6.95444e-12
1.88738e-15
3.30589e-11
2.20715e-07
1.36073e-05
4.16809e-05
5.45434e-05
5.37923e-05
5.06611e-05
4.91346e-05
4.75599e-05
4.63277e-05
4.58311e-05
4.37544e-05
4.53979e-05
4.53979e-05
4.53979e-05
4.53979e-05
4.53979e-05
4.53979e-05
4.53979e-05
4.53979e-05
4.53979e-05
4.53979e-05
4.53979e-05
4.53979e-05
4.53979e-05
4.53979e-05
4.53979e-05
4.53979e-05
4.53979e-05
4.53979e-05
4.53979e-05
4.53979e-05
4.54032e-05
4.71911e-05
0.0019325
1
1
1.596e-09
0
5.44598e-12
4.61707e-08
9.44813e-08
3.04269e-09
2.9865e-14
2.05391e-14
1.29182e-09
1.89101e-06
1.682e-05
3.51516e-05
4.60695e-05
4.75338e-05
4.85962e-05
4.74789e-05
4.666e-05
4.61976e-05
4.49559e-05
4.45789e-05
4.53979e-05
4.53979e-05
4.53979e-05
4.53979e-05
4.53979e-05
4.53979e-05
4.53979e-05
4.53979e-05
4.53979e-05
4.53979e-05
4.53979e-05
4.53979e-05
4.53979e-05
4.53979e-05
4.53979e-05
4.53979e-05
4.53979e-05
4.53979e-05
4.53979e-05
4.53979e-05
4.53987e-05
4.57792e-05
0.000146106
1
1
0.000351584
0
1.2379e-14
1.93954e-08
1.29565e-07
4.58658e-08
8.01821e-11
5.27356e-15
9.65839e-13
5.52337e-08
4.29498e-06
1.66355e-05
3.48775e-05
4.10197e-05
4.65542e-05
4.63242e-05
4.63063e-05
4.61145e-05
4.53085e-05
4.56399e-05
4.53242e-05
4.53979e-05
4.53979e-05
4.53979e-05
4.53979e-05
4.53979e-05
4.53979e-05
4.53979e-05
4.53979e-05
4.53979e-05
4.53979e-05
4.53979e-05
4.53979e-05
4.53979e-05
4.53979e-05
4.53979e-05
4.53979e-05
4.53979e-05
4.53979e-05
4.53979e-05
4.53979e-05
4.5398e-05
4.54668e-05
6.18873e-05
0.998219
1
0.984018
0
0
2.59291e-09
1.1385e-07
8.88679e-08
1.39671e-08
4.68664e-12
4.21885e-15
1.59806e-10
4.44559e-07
5.35517e-06
1.9436e-05
2.94312e-05
3.99414e-05
4.22398e-05
4.41584e-05
4.5513e-05
4.5156e-05
4.59593e-05
4.57439e-05
4.53525e-05
4.53979e-05
4.53979e-05
4.53979e-05
4.53979e-05
4.53979e-05
4.53979e-05
4.53979e-05
4.53979e-05
4.53979e-05
4.53979e-05
4.53979e-05
4.53979e-05
4.53979e-05
4.53979e-05
4.53979e-05
4.53979e-05
4.53979e-05
4.53979e-05
4.53979e-05
4.53979e-05
4.53979e-05
4.54081e-05
4.86542e-05
0.0155505
1
1
2.66382e-11
0
8.56409e-11
8.47486e-08
1.03519e-07
5.44821e-08
8.15584e-09
8.199e-14
1.88516e-13
1.01119e-08
1.05057e-06
7.7291e-06
1.79153e-05
3.03893e-05
3.63871e-05
4.04845e-05
4.38026e-05
4.44382e-05
4.59969e-05
4.56905e-05
4.56235e-05
4.50799e-05
4.53979e-05
4.53979e-05
4.53979e-05
4.53979e-05
4.53979e-05
4.53979e-05
4.53979e-05
4.53979e-05
4.53979e-05
4.53979e-05
4.53979e-05
4.53979e-05
4.53979e-05
4.53979e-05
4.53979e-05
4.53979e-05
4.53979e-05
4.53979e-05
4.53979e-05
4.53979e-05
4.53979e-05
4.53991e-05
4.59854e-05
0.000251658
1
1
2.66446e-05
0
3.98959e-13
3.85204e-08
1.12292e-07
6.51822e-08
2.29118e-07
6.92651e-10
2.81997e-14
2.31265e-11
8.13819e-08
2.05996e-06
8.55427e-06
2.0361e-05
2.89377e-05
3.55273e-05
4.04875e-05
4.27262e-05
4.55177e-05
4.55759e-05
4.54371e-05
4.54949e-05
4.45064e-05
4.53979e-05
4.53979e-05
4.53979e-05
4.53979e-05
4.53979e-05
4.53979e-05
4.53979e-05
4.53979e-05
4.53979e-05
4.53979e-05
4.53979e-05
4.53979e-05
4.53979e-05
4.53979e-05
4.53979e-05
4.53979e-05
4.53979e-05
4.53979e-05
4.53979e-05
4.53979e-05
4.53979e-05
4.5398e-05
4.54857e-05
6.84154e-05
0.999922
1
0.236814
0
3.88578e-16
7.79202e-09
1.09529e-07
6.54406e-08
2.906e-07
2.69513e-07
2.46573e-11
1.31672e-13
1.44376e-09
3.05764e-07
2.72097e-06
1.10618e-05
2.03417e-05
2.87029e-05
3.57601e-05
3.96862e-05
4.39781e-05
4.503e-05
4.52106e-05
4.53674e-05
4.5177e-05
4.40826e-05
4.53979e-05
4.53979e-05
4.53979e-05
4.53979e-05
4.53979e-05
4.53979e-05
4.53979e-05
4.53979e-05
4.53979e-05
4.53979e-05
4.53979e-05
4.53979e-05
4.53979e-05
4.53979e-05
4.53979e-05
4.53979e-05
4.53979e-05
4.53979e-05
4.53979e-05
4.53979e-05
4.53979e-05
4.53979e-05
4.54082e-05
4.91638e-05
0.0355343
1
1
9.58461e-12
0
4.18861e-10
8.96408e-08
6.35458e-08
1.72237e-07
1.56914e-06
1.0144e-07
1.01114e-12
6.63358e-12
1.39358e-08
5.81847e-07
4.55142e-06
1.21701e-05
2.11325e-05
2.95214e-05
3.52803e-05
4.11839e-05
4.37203e-05
4.46003e-05
4.51895e-05
4.52313e-05
4.50861e-05
4.37207e-05
4.53979e-05
4.53979e-05
4.53979e-05
4.53979e-05
4.53979e-05
4.53979e-05
4.53979e-05
4.53979e-05
4.53979e-05
4.53979e-05
4.53979e-05
4.53979e-05
4.53979e-05
4.53979e-05
4.53979e-05
4.53979e-05
4.53979e-05
4.53979e-05
4.53979e-05
4.53979e-05
4.53979e-05
4.53979e-05
4.53988e-05
4.59615e-05
0.00027421
1
1
3.38629e-06
0
2.59298e-12
5.12632e-08
6.29023e-08
1.13523e-07
1.52438e-06
4.53632e-06
8.03305e-09
4.25882e-13
1.09526e-10
7.17423e-08
1.34688e-06
5.78842e-06
1.36767e-05
2.25949e-05
2.96146e-05
3.7151e-05
4.11431e-05
4.33773e-05
4.46682e-05
4.50793e-05
4.53753e-05
4.47656e-05
4.42877e-05
4.53979e-05
4.53979e-05
4.53979e-05
4.53979e-05
4.53979e-05
4.53979e-05
4.53979e-05
4.53979e-05
4.53979e-05
4.53979e-05
4.53979e-05
4.53979e-05
4.53979e-05
4.53979e-05
4.53979e-05
4.53979e-05
4.53979e-05
4.53979e-05
4.53979e-05
4.53979e-05
4.53979e-05
4.53979e-05
4.53979e-05
4.5465e-05
6.6268e-05
0.999856
1
0.103727
5.55112e-17
3.27516e-15
1.22395e-08
6.47352e-08
7.30535e-08
7.73365e-07
1.23575e-05
9.24413e-06
5.0066e-11
9.32643e-13
3.2822e-09
2.69418e-07
2.04254e-06
7.39043e-06
1.56274e-05
2.33197e-05
3.1899e-05
3.73898e-05
4.10838e-05
4.35232e-05
4.46266e-05
4.52249e-05
4.505e-05
4.50476e-05
4.50983e-05
4.53979e-05
4.53979e-05
4.53979e-05
4.53979e-05
4.53979e-05
4.53979e-05
4.53979e-05
4.53979e-05
4.53979e-05
4.53979e-05
4.53979e-05
4.53979e-05
4.53979e-05
4.53979e-05
4.53979e-05
4.53979e-05
4.53979e-05
4.53979e-05
4.53979e-05
4.53979e-05
4.53979e-05
4.53979e-05
4.53979e-05
4.54038e-05
4.82871e-05
0.0177602
1
1
4.04202e-11
0
7.20332e-10
5.8121e-08
5.60866e-08
4.23824e-07
1.15239e-05
4.79729e-05
3.29109e-07
1.01941e-12
4.33764e-11
2.38664e-08
5.27921e-07
3.18904e-06
9.36171e-06
1.69245e-05
2.59342e-05
3.25706e-05
3.78088e-05
4.13898e-05
4.35911e-05
4.48149e-05
4.48074e-05
4.52282e-05
4.54834e-05
4.51369e-05
4.53979e-05
4.53979e-05
4.53979e-05
4.53979e-05
4.53979e-05
4.53979e-05
4.53979e-05
4.53979e-05
4.53979e-05
4.53979e-05
4.53979e-05
4.53979e-05
4.53979e-05
4.53979e-05
4.53979e-05
4.53979e-05
4.53979e-05
4.53979e-05
4.53979e-05
4.53979e-05
4.53979e-05
4.53979e-05
4.53979e-05
4.53982e-05
4.57456e-05
0.000187483
1
1
1.32316e-05
0
4.54803e-12
3.65403e-08
4.88083e-08
2.11275e-07
5.87937e-06
4.49501e-05
5.84998e-05
1.14719e-09
1.64357e-12
6.47047e-10
9.41012e-08
1.05892e-06
4.67815e-06
1.09768e-05
1.97154e-05
2.7043e-05
3.35049e-05
3.83706e-05
4.16518e-05
4.38886e-05
4.44058e-05
4.51027e-05
4.54905e-05
4.53628e-05
4.50935e-05
4.53979e-05
4.53979e-05
4.53979e-05
4.53979e-05
4.53979e-05
4.53979e-05
4.53979e-05
4.53979e-05
4.53979e-05
4.53979e-05
4.53979e-05
4.53979e-05
4.53979e-05
4.53979e-05
4.53979e-05
4.53979e-05
4.53979e-05
4.53979e-05
4.53979e-05
4.53979e-05
4.53979e-05
4.53979e-05
4.53979e-05
4.53979e-05
4.54292e-05
5.83612e-05
0.993753
1
0.454795
6.10623e-16
5.10703e-15
9.51817e-09
4.83364e-08
1.15917e-07
2.70939e-06
4.09541e-05
0.000134924
3.31783e-06
1.65433e-11
1.15823e-11
7.86515e-09
2.62624e-07
1.86065e-06
6.15501e-06
1.37013e-05
2.12084e-05
2.84371e-05
3.44713e-05
3.89042e-05
4.21371e-05
4.35475e-05
4.47874e-05
4.54094e-05
4.52885e-05
4.54082e-05
4.49566e-05
4.53979e-05
4.53979e-05
4.53979e-05
4.53979e-05
4.53979e-05
4.53979e-05
4.53979e-05
4.53979e-05
4.53979e-05
4.53979e-05
4.53979e-05
4.53979e-05
4.53979e-05
4.53979e-05
4.53979e-05
4.53979e-05
4.53979e-05
4.53979e-05
4.53979e-05
4.53979e-05
4.53979e-05
4.53979e-05
4.53979e-05
4.53979e-05
4.53998e-05
4.69107e-05
0.00301486
1
1
6.07989e-10
0
5.16113e-10
4.52727e-08
7.12151e-08
1.03127e-06
3.44352e-05
0.00010887
9.9598e-05
2.88396e-08
3.79574e-12
2.58346e-10
3.92835e-08
5.81603e-07
2.88134e-06
8.48218e-06
1.54449e-05
2.30098e-05
2.9851e-05
3.53662e-05
3.96528e-05
4.19609e-05
4.40411e-05
4.51277e-05
4.51677e-05
4.54081e-05
4.5299e-05
4.49809e-05
4.53979e-05
4.53979e-05
4.53979e-05
4.53979e-05
4.53979e-05
4.53979e-05
4.53979e-05
4.53979e-05
4.53979e-05
4.53979e-05
4.53979e-05
4.53979e-05
4.53979e-05
4.53979e-05
4.53979e-05
4.53979e-05
4.53979e-05
4.53979e-05
4.53979e-05
4.53979e-05
4.53979e-05
4.53979e-05
4.53979e-05
4.53979e-05
4.5398e-05
4.55369e-05
0.000104685
1
1
0.000154062
0
3.07615e-12
2.77169e-08
5.27064e-08
3.75665e-07
2.45818e-05
8.54565e-05
0.000174278
1.24734e-05
3.61148e-10
1.16122e-11
2.56081e-09
1.38128e-07
1.08678e-06
4.54076e-06
1.02369e-05
1.75233e-05
2.4829e-05
3.11538e-05
3.64468e-05
3.97012e-05
4.26281e-05
4.44914e-05
4.48717e-05
4.53354e-05
4.53053e-05
4.52748e-05
4.52452e-05
4.53979e-05
4.53979e-05
4.53979e-05
4.53979e-05
4.53979e-05
4.53979e-05
4.53979e-05
4.53979e-05
4.53979e-05
4.53979e-05
4.53979e-05
4.53979e-05
4.53979e-05
4.53979e-05
4.53979e-05
4.53979e-05
4.53979e-05
4.53979e-05
4.53979e-05
4.53979e-05
4.53979e-05
4.53979e-05
4.53979e-05
4.53979e-05
4.53979e-05
4.54067e-05
5.10975e-05
0.47861
1
0.99348
8.06022e-14
2.9976e-15
6.3166e-09
4.37131e-08
1.41846e-07
1.26144e-05
6.08745e-05
0.000204158
7.77395e-05
3.99769e-07
2.10206e-11
1.06158e-10
1.77625e-08
3.30085e-07
2.03899e-06
6.00522e-06
1.23615e-05
1.96451e-05
2.65245e-05
3.26049e-05
3.67887e-05
4.06117e-05
4.32416e-05
4.42894e-05
4.50995e-05
4.52152e-05
4.52763e-05
4.54516e-05
4.53414e-05
4.53979e-05
4.53979e-05
4.53979e-05
4.53979e-05
4.53979e-05
4.53979e-05
4.53979e-05
4.53979e-05
4.53979e-05
4.53979e-05
4.53979e-05
4.53979e-05
4.53979e-05
4.53979e-05
4.53979e-05
4.53979e-05
4.53979e-05
4.53979e-05
4.53979e-05
4.53979e-05
4.53979e-05
4.53979e-05
4.53979e-05
4.53979e-05
4.53979e-05
4.53982e-05
4.59292e-05
0.000448385
1
1
2.25296e-08
5.55112e-17
1.9573e-10
3.4264e-08
6.33078e-08
4.78035e-06
4.91498e-05
0.000213872
0.000110771
2.5673e-05
5.53905e-09
1.89805e-11
1.07396e-09
7.36162e-08
7.59094e-07
3.02914e-06
7.90116e-06
1.45972e-05
2.16652e-05
2.83388e-05
3.32965e-05
3.80019e-05
4.14302e-05
4.31617e-05
4.45868e-05
4.49882e-05
4.51947e-05
4.54209e-05
4.54525e-05
4.52957e-05
4.53979e-05
4.53979e-05
4.53979e-05
4.53979e-05
4.53979e-05
4.53979e-05
4.53979e-05
4.53979e-05
4.53979e-05
4.53979e-05
4.53979e-05
4.53979e-05
4.53979e-05
4.53979e-05
4.53979e-05
4.53979e-05
4.53979e-05
4.53979e-05
4.53979e-05
4.53979e-05
4.53979e-05
4.53979e-05
4.53979e-05
4.53979e-05
4.53979e-05
4.53979e-05
4.54326e-05
6.51614e-05
0.99982
1
0.0071268
4.44089e-16
9.70946e-13
1.49368e-08
3.72648e-08
1.4762e-06
4.31152e-05
0.000192661
0.000151371
5.74595e-05
2.15042e-06
2.26607e-10
6.74022e-11
9.55936e-09
2.28164e-07
1.26545e-06
4.46116e-06
1.0008e-05
1.68052e-05
2.37947e-05
2.93996e-05
3.48334e-05
3.90649e-05
4.15236e-05
4.35763e-05
4.45088e-05
4.49913e-05
4.5372e-05
4.53761e-05
4.54273e-05
4.51468e-05
4.53979e-05
4.53979e-05
4.53979e-05
4.53979e-05
4.53979e-05
4.53979e-05
4.53979e-05
4.53979e-05
4.53979e-05
4.53979e-05
4.53979e-05
4.53979e-05
4.53979e-05
4.53979e-05
4.53979e-05
4.53979e-05
4.53979e-05
4.53979e-05
4.53979e-05
4.53979e-05
4.53979e-05
4.53979e-05
4.53979e-05
4.53979e-05
4.53979e-05
4.53979e-05
4.53994e-05
4.71735e-05
0.00762181
1
0.999999
6.6693e-11
1.33227e-15
1.85712e-09
2.75206e-08
3.89099e-07
3.33948e-05
0.000148668
0.000175039
6.2037e-05
3.19283e-05
7.4316e-08
5.05572e-11
8.09616e-10
4.13481e-08
4.44795e-07
2.17275e-06
6.18683e-06
1.22015e-05
1.91464e-05
2.52158e-05
3.12567e-05
3.61683e-05
3.93803e-05
4.21091e-05
4.35868e-05
4.45626e-05
4.52146e-05
4.53118e-05
4.53809e-05
4.53765e-05
4.49638e-05
4.53979e-05
4.53979e-05
4.53979e-05
4.53979e-05
4.53979e-05
4.53979e-05
4.53979e-05
4.53979e-05
4.53979e-05
4.53979e-05
4.53979e-05
4.53979e-05
4.53979e-05
4.53979e-05
4.53979e-05
4.53979e-05
4.53979e-05
4.53979e-05
4.53979e-05
4.53979e-05
4.53979e-05
4.53979e-05
4.53979e-05
4.53979e-05
4.53979e-05
4.53979e-05
4.53979e-05
4.5518e-05
0.000114408
1
1
1.08371e-05
1.11022e-16
2.89702e-11
1.85385e-08
1.26156e-07
2.12272e-05
0.000109684
0.000203401
7.3194e-05
4.95764e-05
6.40884e-06
2.74186e-09
1.13008e-10
3.94566e-09
1.29935e-07
9.04604e-07
3.36751e-06
8.13982e-06
1.45937e-05
2.08748e-05
2.73671e-05
3.28681e-05
3.67522e-05
4.01916e-05
4.22491e-05
4.37336e-05
4.48538e-05
4.51463e-05
4.53279e-05
4.53893e-05
4.52381e-05
4.50569e-05
4.53979e-05
4.53979e-05
4.53979e-05
4.53979e-05
4.53979e-05
4.53979e-05
4.53979e-05
4.53979e-05
4.53979e-05
4.53979e-05
4.53979e-05
4.53979e-05
4.53979e-05
4.53979e-05
4.53979e-05
4.53979e-05
4.53979e-05
4.53979e-05
4.53979e-05
4.53979e-05
4.53979e-05
4.53979e-05
4.53979e-05
4.53979e-05
4.53979e-05
4.53979e-05
4.53979e-05
4.5403e-05
5.05862e-05
0.377347
1
0.902942
1.04028e-13
5.83977e-14
6.99806e-09
5.64791e-08
8.80915e-06
7.76241e-05
0.000190977
8.30809e-05
5.05423e-05
3.11729e-05
6.22686e-07
3.12778e-10
3.95597e-10
2.50208e-08
3.21274e-07
1.57339e-06
4.87557e-06
1.03779e-05
1.65274e-05
2.32653e-05
2.92459e-05
3.3745e-05
3.78263e-05
4.05019e-05
4.25301e-05
4.41251e-05
4.4812e-05
4.51799e-05
4.53411e-05
4.52672e-05
4.53134e-05
4.52301e-05
4.53979e-05
4.53979e-05
4.53979e-05
4.53979e-05
4.53979e-05
4.53979e-05
4.53979e-05
4.53979e-05
4.53979e-05
4.53979e-05
4.53979e-05
4.53979e-05
4.53979e-05
4.53979e-05
4.53979e-05
4.53979e-05
4.53979e-05
4.53979e-05
4.53979e-05
4.53979e-05
4.53979e-05
4.53979e-05
4.53979e-05
4.53979e-05
4.53979e-05
4.53979e-05
4.53979e-05
4.5398e-05
4.57618e-05
0.000326791
1
1
3.0046e-08
1.16573e-15
4.64824e-10
3.38877e-08
1.93254e-06
4.98498e-05
0.000154156
0.000103888
5.48645e-05
4.02558e-05
1.44976e-05
3.17179e-08
1.73762e-10
3.05484e-09
8.30539e-08
6.39163e-07
2.56931e-06
6.74965e-06
1.23583e-05
1.90646e-05
2.53826e-05
3.04239e-05
3.51008e-05
3.8347e-05
4.09572e-05
4.30525e-05
4.41499e-05
4.48763e-05
4.5208e-05
4.52098e-05
4.536e-05
4.54208e-05
4.52403e-05
4.53979e-05
4.53979e-05
4.53979e-05
4.53979e-05
4.53979e-05
4.53979e-05
4.53979e-05
4.53979e-05
4.53979e-05
4.53979e-05
4.53979e-05
4.53979e-05
4.53979e-05
4.53979e-05
4.53979e-05
4.53979e-05
4.53979e-05
4.53979e-05
4.53979e-05
4.53979e-05
4.53979e-05
4.53979e-05
4.53979e-05
4.53979e-05
4.53979e-05
4.53979e-05
4.53979e-05
4.53979e-05
4.54138e-05
5.87454e-05
0.995307
1
0.00231376
4.996e-15
4.96458e-12
1.49329e-08
3.69011e-07
3.31125e-05
0.000107961
0.000128237
6.01677e-05
4.2388e-05
3.5332e-05
2.85758e-06
2.14894e-09
4.48976e-10
1.29616e-08
2.25839e-07
1.17337e-06
3.93512e-06
8.5856e-06
1.49084e-05
2.13657e-05
2.68526e-05
3.20664e-05
3.58594e-05
3.90131e-05
4.16448e-05
4.31773e-05
4.42704e-05
4.49299e-05
4.50846e-05
4.53512e-05
4.54497e-05
4.53689e-05
4.52782e-05
4.53979e-05
4.53979e-05
4.53979e-05
4.53979e-05
4.53979e-05
4.53979e-05
4.53979e-05
4.53979e-05
4.53979e-05
4.53979e-05
4.53979e-05
4.53979e-05
4.53979e-05
4.53979e-05
4.53979e-05
4.53979e-05
4.53979e-05
4.53979e-05
4.53979e-05
4.53979e-05
4.53979e-05
4.53979e-05
4.53979e-05
4.53979e-05
4.53979e-05
4.53979e-05
4.53979e-05
4.53979e-05
4.53982e-05
4.63434e-05
0.00186124
1
0.999999
4.28781e-10
1.33782e-14
2.13678e-09
8.00498e-08
1.41592e-05
6.84922e-05
0.000162288
7.38105e-05
4.61759e-05
4.06764e-05
2.17718e-05
2.61884e-07
4.96216e-10
1.77172e-09
5.58294e-08
4.73827e-07
2.0229e-06
5.4246e-06
1.0972e-05
1.73045e-05
2.30973e-05
2.87708e-05
3.30814e-05
3.676e-05
3.98957e-05
4.19011e-05
4.33863e-05
4.4379e-05
4.48217e-05
4.52788e-05
4.54438e-05
4.53552e-05
4.5397e-05
4.53312e-05
4.53979e-05
4.53979e-05
4.53979e-05
4.53979e-05
4.53979e-05
4.53979e-05
4.53979e-05
4.53979e-05
4.53979e-05
4.53979e-05
4.53979e-05
4.53979e-05
4.53979e-05
4.53979e-05
4.53979e-05
4.53979e-05
4.53979e-05
4.53979e-05
4.53979e-05
4.53979e-05
4.53979e-05
4.53979e-05
4.53979e-05
4.53979e-05
4.53979e-05
4.53979e-05
4.53979e-05
4.53979e-05
4.53979e-05
4.5441e-05
7.82896e-05
0.999989
1
0.000255851
2.9976e-15
4.09077e-11
1.9444e-08
3.53897e-06
4.49448e-05
0.000182162
9.73149e-05
4.87008e-05
4.23581e-05
3.2955e-05
8.16639e-06
1.50015e-08
5.44197e-10
8.95942e-09
1.60589e-07
9.23683e-07
3.05883e-06
7.4671e-06
1.33339e-05
1.92395e-05
2.52618e-05
3.00507e-05
3.42311e-05
3.78602e-05
4.03067e-05
4.22475e-05
4.35751e-05
4.43177e-05
4.50738e-05
4.53779e-05
4.53147e-05
4.53939e-05
4.54338e-05
4.53344e-05
4.53979e-05
4.53979e-05
4.53979e-05
4.53979e-05
4.53979e-05
4.53979e-05
4.53979e-05
4.53979e-05
4.53979e-05
4.53979e-05
4.53979e-05
4.53979e-05
4.53979e-05
4.53979e-05
4.53979e-05
4.53979e-05
4.53979e-05
4.53979e-05
4.53979e-05
4.53979e-05
4.53979e-05
4.53979e-05
4.53979e-05
4.53979e-05
4.53979e-05
4.53979e-05
4.53979e-05
4.53979e-05
4.53979e-05
4.53985e-05
4.76116e-05
0.0187675
1
0.991308
1.44016e-11
8.4488e-14
3.54869e-09
6.81879e-07
3.69914e-05
0.000168913
0.000132587
5.21859e-05
4.47815e-05
3.43669e-05
2.67724e-05
1.20234e-06
2.09139e-09
1.54658e-09
3.79655e-08
3.7349e-07
1.50619e-06
4.60868e-06
9.63423e-06
1.53813e-05
2.15976e-05
2.6802e-05
3.14555e-05
3.55649e-05
3.84565e-05
4.08344e-05
4.25354e-05
4.35844e-05
4.46454e-05
4.52048e-05
4.52287e-05
4.53771e-05
4.54284e-05
4.54007e-05
4.53939e-05
4.53979e-05
4.53979e-05
4.53979e-05
4.53979e-05
4.53979e-05
4.53979e-05
4.53979e-05
4.53979e-05
4.53979e-05
4.53979e-05
4.53979e-05
4.53979e-05
4.53979e-05
4.53979e-05
4.53979e-05
4.53979e-05
4.53979e-05
4.53979e-05
4.53979e-05
4.53979e-05
4.53979e-05
4.53979e-05
4.53979e-05
4.53979e-05
4.53979e-05
4.53979e-05
4.53979e-05
4.53979e-05
4.53979e-05
4.53976e-05
4.55041e-05
0.000123547
1
1
3.00942e-07
3.60822e-15
1.43343e-10
1.16822e-07
2.34537e-05
0.000131083
0.000175883
5.95179e-05
4.71359e-05
3.47476e-05
3.08874e-05
1.41037e-05
1.13622e-07
9.68116e-10
6.85709e-09
1.10812e-07
6.69962e-07
2.5446e-06
6.41052e-06
1.16594e-05
1.78504e-05
2.33763e-05
2.8458e-05
3.30289e-05
3.63741e-05
3.91882e-05
4.12409e-05
4.26327e-05
4.40018e-05
4.48267e-05
4.50559e-05
4.53106e-05
4.54128e-05
4.53707e-05
4.5441e-05
4.55186e-05
4.53979e-05
4.53979e-05
4.53979e-05
4.53979e-05
4.53979e-05
4.53979e-05
4.53979e-05
4.53979e-05
4.53979e-05
4.53979e-05
4.53979e-05
4.53979e-05
4.53979e-05
4.53979e-05
4.53979e-05
4.53979e-05
4.53979e-05
4.53979e-05
4.53979e-05
4.53979e-05
4.53979e-05
4.53979e-05
4.53979e-05
4.53979e-05
4.53979e-05
4.53979e-05
4.53979e-05
4.53979e-05
4.53979e-05
4.53978e-05
4.53995e-05
4.9981e-05
0.246426
1
0.202717
5.06095e-13
1.22935e-12
1.93882e-08
9.64954e-06
8.78161e-05
0.000195419
7.07732e-05
4.82728e-05
3.49582e-05
3.00909e-05
2.77727e-05
4.54876e-06
1.03163e-08
1.77549e-09
2.17504e-08
2.72469e-07
1.25477e-06
3.86463e-06
8.25649e-06
1.41233e-05
1.98221e-05
2.5266e-05
3.02663e-05
3.4063e-05
3.73123e-05
3.97336e-05
4.14499e-05
4.31595e-05
4.4252e-05
4.46981e-05
4.51593e-05
4.53486e-05
4.53382e-05
4.54132e-05
4.54608e-05
4.55276e-05
4.53979e-05
4.53979e-05
4.53979e-05
4.53979e-05
4.53979e-05
4.53979e-05
4.53979e-05
4.53979e-05
4.53979e-05
4.53979e-05
4.53979e-05
4.53979e-05
4.53979e-05
4.53979e-05
4.53979e-05
4.53979e-05
4.53979e-05
4.53979e-05