/*--------------------------------*- C++ -*----------------------------------*\
| =========                 |                                                 |
| \\      /  F ield         | OpenFOAM: The Open Source CFD Toolbox           |
|  \\    /   O peration     | Version:  v2012                                 |
|   \\  /    A nd           | Website:  www.openfoam.com                      |
|    \\/     M anipulation  |                                                 |
\*---------------------------------------------------------------------------*/
FoamFile
{
    version     2.0;
    format      ascii;
    class       volScalarField;
    location    "1901";
    object      I1;
}
// * * * * * * * * * * * * * * * * * * * * * * * * * * * * * * * * * * * * * //

dimensions      [0 0 0 0 0 0 0];


internalField   nonuniform List<scalar> 
8000
(
4.27447e-65
3.44015e-55
1.63036e-59
5.69564e-53
9.25577e-56
1.29203e-61
7.79917e-57
4.2849e-53
9.88668e-58
1.00046e-66
4.93456e-52
2.37898e-53
6.60163e-55
3.80658e-55
1.05507e-67
3.34921e-51
1.99325e-51
1.76976e-53
2.44405e-53
8.05356e-57
5.71655e-68
1.61418e-55
1.71363e-52
1.23836e-51
3.57791e-58
1.8773e-53
2.41503e-55
3.77653e-62
5.42406e-56
7.98373e-52
1.07195e-50
1.14145e-53
1.01179e-53
4.67091e-60
2.02301e-65
2.77851e-62
1.12755e-51
1.67937e-50
6.7418e-52
8.46294e-53
5.71709e-53
2.74399e-59
1.37501e-55
1.29249e-55
2.30008e-62
5.09281e-50
1.63189e-50
2.45469e-51
1.1194e-56
1.00589e-51
1.75004e-51
5.71956e-54
1.60253e-61
1.22923e-56
2.03647e-62
3.20576e-61
1.24275e-56
2.57086e-59
9.33231e-51
1.09236e-65
5.90483e-59
1.23658e-51
2.59146e-58
8.13168e-56
1.79729e-57
1.10115e-62
9.56018e-51
5.63132e-49
1.95997e-51
6.42578e-51
4.73335e-57
6.23725e-50
1.13628e-62
9.38362e-52
4.36935e-54
1.81257e-64
1.0352e-58
6.59512e-61
7.69379e-51
1.9642e-50
6.09846e-51
3.43824e-57
4.20623e-52
6.30656e-53
2.02314e-52
3.217e-64
2.26294e-52
4.27356e-53
8.21372e-55
4.02766e-64
1.34289e-62
1.14024e-50
4.2476e-51
7.21574e-50
4.72862e-57
1.53625e-50
5.33731e-49
3.76825e-51
2.20645e-51
3.61546e-57
3.58661e-53
2.03525e-54
1.27702e-62
7.12934e-58
4.95925e-63
1.35528e-49
1.34088e-49
2.34518e-51
1.05872e-50
4.49374e-50
1.21461e-50
1.6518e-52
3.82675e-53
8.41569e-51
2.49811e-52
2.72668e-53
2.28662e-59
2.38912e-56
2.05108e-56
5.18393e-62
1.11663e-42
3.19701e-49
6.7833e-51
1.72794e-51
5.05731e-50
2.10209e-51
1.03604e-51
1.27138e-52
3.6502e-58
1.26088e-51
1.99398e-52
1.05666e-52
2.08168e-53
1.43684e-54
2.53508e-64
2.40005e-63
3.32638e-32
1.60053e-42
7.66092e-50
3.67432e-58
1.32589e-51
1.00299e-64
1.81475e-51
6.19574e-51
3.17801e-52
4.82939e-50
6.26899e-53
8.9282e-54
2.4843e-58
3.78587e-59
3.4111e-55
2.82218e-58
4.56541e-61
3.15164e-20
4.24574e-32
4.9503e-43
1.24854e-50
2.97443e-51
1.15976e-51
2.44135e-52
3.15628e-57
2.9879e-52
6.11751e-51
1.52109e-53
2.02779e-57
7.1417e-54
1.89554e-52
4.85808e-53
1.30523e-56
2.32127e-63
1.25258e-61
1.97814e-08
3.06232e-20
4.53786e-33
1.02488e-43
5.84777e-52
4.09921e-50
6.89257e-52
2.04595e-52
1.1677e-56
7.89582e-59
5.10148e-53
3.17086e-50
2.96684e-51
5.8189e-54
8.49301e-54
5.94282e-55
6.64849e-57
1.90154e-58
2.42871e-61
0.000625173
1.35803e-09
8.88663e-21
6.7064e-34
2.69487e-44
3.88177e-52
3.02546e-51
5.12334e-52
2.60549e-52
5.30994e-61
2.7925e-51
4.00105e-53
7.52553e-52
1.75684e-56
8.64872e-53
3.17639e-53
3.3524e-55
8.28732e-56
7.5326e-60
5.66352e-62
0.00755712
0.00335796
7.48323e-10
7.10562e-22
9.72769e-35
7.3216e-45
2.31951e-50
2.69728e-57
3.28568e-50
2.88792e-50
7.82943e-51
5.13623e-57
4.37265e-53
1.81972e-51
1.31427e-56
2.95211e-54
2.87162e-55
2.45606e-55
7.68725e-56
5.23037e-60
8.37029e-63
0.0296686
0.0100896
6.57158e-05
2.01642e-10
3.28833e-23
2.14544e-35
2.44785e-45
2.87238e-52
1.23505e-55
3.11908e-52
1.37901e-51
3.70552e-52
1.07715e-52
2.58027e-53
8.47252e-53
1.58106e-53
1.8052e-52
3.44999e-54
2.84784e-54
2.82357e-57
4.09739e-60
2.12188e-69
0.0531192
0.0135538
0.0104635
7.74144e-06
9.22696e-11
6.48504e-24
5.64766e-36
1.58404e-45
2.60236e-51
7.75147e-52
2.03294e-55
1.07222e-51
2.41494e-50
4.42292e-62
7.91625e-58
2.47654e-51
2.19257e-53
1.30809e-52
1.28294e-53
2.09347e-54
3.45957e-56
2.71884e-60
2.75697e-64
0.0695917
0.0132022
0.0429375
0.00343384
2.17314e-06
2.00924e-11
1.76511e-24
1.61956e-36
5.30724e-46
1.58744e-49
1.06626e-51
1.7597e-52
4.13597e-51
3.35453e-60
8.55521e-56
1.39068e-53
2.47971e-52
8.44049e-54
3.01493e-59
1.06494e-55
1.71034e-54
2.45044e-56
5.56942e-60
2.28194e-70
0.0546982
0.00792754
0.050981
0.0352301
0.00136232
8.8516e-07
5.0281e-12
6.53762e-25
6.07883e-37
1.13617e-46
1.74765e-51
4.54401e-52
2.58527e-51
9.30184e-57
2.33571e-55
1.07708e-56
1.16033e-53
2.00399e-54
1.01977e-52
1.38931e-53
2.28327e-53
6.83723e-56
9.13532e-56
9.75378e-64
1.5305e-64
0.0490914
0.0100242
0.0461081
0.0739291
0.0211028
0.000662012
4.38297e-07
9.57222e-13
2.60371e-25
1.95328e-37
7.58415e-47
1.07527e-51
3.9193e-52
9.8544e-53
5.27571e-53
1.26516e-52
3.25725e-53
6.19789e-52
1.40852e-52
4.66421e-54
1.01301e-53
1.00118e-54
6.08079e-56
8.11034e-58
3.48223e-59
1.0996e-64
0.0328435
0.000734853
0.0377993
0.0779317
0.0656825
0.013363
0.000371673
2.53104e-07
1.76067e-13
8.66701e-26
6.64186e-38
1.71534e-47
2.59516e-52
2.86557e-52
8.91324e-53
3.47928e-52
5.91925e-61
1.54076e-50
3.8068e-57
2.97692e-52
3.53225e-54
7.64629e-54
6.93092e-56
3.73113e-56
1.06237e-56
6.66887e-59
5.82786e-72
0.0223821
0.0114979
0.0235091
0.0729284
0.0959927
0.0483551
0.00939736
0.000232226
1.62042e-07
3.0576e-14
2.23465e-26
1.48435e-38
7.054e-48
4.04103e-53
9.03105e-56
1.56937e-50
1.12907e-50
1.15567e-51
2.51969e-53
3.1164e-54
7.32265e-52
4.00308e-53
9.48196e-53
3.28502e-59
2.69513e-56
4.35247e-58
2.4927e-57
5.98067e-65
0.0101701
0.00055024
0.0136468
0.0595961
0.0949385
0.0882373
0.0393044
0.0067563
0.000157888
1.12884e-07
4.69144e-15
4.36531e-27
3.85642e-39
2.2966e-48
9.86037e-57
1.53629e-52
5.20742e-53
1.05605e-51
5.9684e-53
1.08401e-51
5.1e-53
8.22792e-52
2.12691e-54
2.04582e-53
5.97096e-53
1.34395e-61
3.52323e-58
3.60991e-59
1.23204e-70
0.00386666
0.0466462
0.0090649
0.0334484
0.0922937
0.108117
0.0725129
0.0344385
0.00497391
0.000115109
8.50768e-08
5.12582e-16
7.52093e-28
6.3895e-40
9.94897e-50
6.18824e-51
1.87539e-51
5.29652e-52
2.44237e-51
2.75574e-55
3.17563e-57
2.22468e-54
3.94302e-53
1.26904e-54
3.3864e-54
4.72196e-54
5.09008e-62
3.85492e-57
6.997e-60
3.18946e-65
0.000916073
0.00271635
0.000372426
0.0139917
0.0819967
0.10411
0.103165
0.0658866
0.0288146
0.00391072
8.90893e-05
6.99384e-08
4.67335e-17
1.02707e-28
1.35983e-40
6.99143e-50
1.95594e-55
9.72254e-53
2.797e-53
9.11025e-54
2.31441e-57
1.11243e-57
2.76682e-53
2.82918e-53
1.57358e-54
1.30407e-55
1.15368e-60
1.71262e-61
2.83617e-57
1.9432e-59
2.36778e-65
0.000149116
0.0754539
0.00033354
0.00350302
0.0459078
0.102925
0.116178
0.0884377
0.0649813
0.0234914
0.00325799
7.42829e-05
6.32458e-08
2.805e-18
1.24236e-29
1.69912e-41
6.08371e-50
2.26342e-52
5.44009e-51
2.97394e-52
3.57373e-51
2.05161e-53
9.201e-53
7.59162e-52
3.84061e-55
1.14011e-53
5.76707e-58
5.96717e-54
2.44699e-62
8.13863e-56
1.79014e-61
3.22414e-68
1.5423e-05
0.068617
0.000585532
0.000506033
0.0145663
0.0844559
0.126002
0.100537
0.0928996
0.0552243
0.0214928
0.00278327
6.70679e-05
6.44948e-08
1.60735e-19
1.1919e-30
2.23339e-42
2.32825e-51
2.44506e-51
7.68346e-56
1.1362e-53
4.30511e-54
1.52058e-53
6.35338e-53
1.44529e-53
1.64734e-53
1.2943e-57
1.23741e-54
1.7502e-53
9.86359e-56
1.00604e-58
1.12225e-59
2.06133e-64
1.06749e-06
0.00446718
0.0411436
0.000131061
0.00302629
0.0547516
0.108117
0.123927
0.0977325
0.0886452
0.0512323
0.0194963
0.00259698
6.08551e-05
7.11236e-08
9.41686e-21
9.14406e-32
2.30456e-43
2.51508e-54
5.81501e-52
3.46292e-53
1.54978e-52
7.30556e-52
8.96842e-57
8.51292e-53
4.82884e-53
3.65223e-60
3.22797e-53
7.48479e-54
9.05222e-56
7.19992e-56
1.81151e-56
8.09453e-60
8.97374e-66
4.94659e-08
0.0032018
0.0605018
0.000124348
6.94191e-05
0.0172254
0.0867704
0.131492
0.106389
0.105593
0.0779155
0.0517913
0.0180108
0.00255404
6.70895e-05
8.32408e-08
4.1409e-22
5.57206e-33
1.91403e-44
4.08507e-52
4.43183e-52
4.81882e-57
8.23081e-54
1.61438e-52
1.09285e-64
3.30382e-53
8.15572e-54
6.51371e-53
4.50137e-54
1.06663e-53
2.44347e-54
4.07444e-57
6.69499e-56
7.33675e-62
5.65537e-64
1.54444e-09
0.00675328
0.00223987
0.015754
1.80449e-05
0.00233014
0.052739
0.108703
0.130588
0.10363
0.103276
0.0758118
0.0506818
0.0180103
0.00279065
7.78279e-05
9.49902e-08
1.50078e-23
2.49101e-34
1.93956e-45
9.65553e-53
6.12917e-54
1.02672e-56
6.88005e-59
5.06708e-56
1.3414e-57
9.70065e-52
4.07443e-55
4.58699e-53
1.72126e-53
1.85321e-53
1.19872e-60
2.41415e-57
4.60624e-59
4.27309e-60
5.29412e-66
3.30617e-11
0.000891368
0.00254159
0.0395587
1.58311e-05
0.000156779
0.0147587
0.0814089
0.133813
0.112856
0.113187
0.0925997
0.0815001
0.0479411
0.0199736
0.0031062
8.8187e-05
1.03849e-07
3.64304e-25
9.02453e-36
1.08123e-46
2.18204e-55
7.76507e-52
3.01069e-57
3.71354e-54
9.18971e-53
7.5057e-53
5.16791e-59
6.66806e-53
4.36406e-54
4.29223e-53
2.29623e-56
1.18506e-56
2.99721e-56
7.12337e-57
4.29284e-62
3.07289e-64
4.87195e-13
1.71597e-05
0.0598017
0.00186151
1.22676e-05
3.54415e-05
0.00101157
0.041837
0.104861
0.134497
0.109809
0.111847
0.0922774
0.0818946
0.0497868
0.0217209
0.00341984
9.52829e-05
1.08755e-07
5.33389e-27
2.65184e-37
2.78936e-48
5.44694e-54
1.04746e-54
1.0482e-53
2.34911e-52
6.84981e-53
4.48908e-54
5.14843e-52
3.18669e-54
5.35036e-53
1.08793e-55
5.97451e-62
2.52996e-56
1.32443e-61
7.55672e-72
8.33655e-65
4.37842e-65
4.75217e-15
6.5348e-07
0.0404348
0.00212475
0.000761253
6.66399e-05
0.000202772
0.00784943
0.0693542
0.131594
0.116789
0.119249
0.100871
0.101107
0.0767202
0.0555122
0.0221816
0.0036787
9.88491e-05
1.10994e-07
5.78562e-29
5.26011e-39
9.06262e-50
9.45782e-54
1.28632e-52
8.19453e-54
1.75e-52
1.08013e-54
6.43919e-52
5.75745e-53
3.65084e-53
3.4059e-60
1.26898e-54
1.28138e-56
1.82217e-57
9.94669e-58
2.55799e-58
1.24803e-66
3.25963e-71
2.9152e-17
3.21925e-08
0.00142662
0.0659721
0.000810232
0.0029147
3.47487e-05
0.000259056
0.0254031
0.094921
0.13431
0.113849
0.1167
0.0999966
0.101078
0.0778963
0.0572648
0.0229196
0.00378407
0.000100498
1.10429e-07
5.42623e-31
6.40042e-41
3.45806e-50
8.93513e-55
1.12181e-54
5.40195e-54
1.23783e-58
1.14671e-52
4.87044e-53
3.61652e-53
8.84046e-54
1.3243e-53
1.10854e-54
1.35151e-55
1.00297e-57
7.06826e-58
3.03401e-59
2.35558e-61
2.08884e-66
1.12395e-19
1.65342e-10
0.00221664
0.00207677
0.0475021
0.000145819
0.00256377
6.10952e-06
0.002239
0.0550111
0.109398
0.131755
0.110585
0.113593
0.0995273
0.100772
0.0784165
0.0580773
0.0232801
0.00382478
9.99213e-05
1.08014e-07
1.66961e-33
7.24819e-43
5.46776e-52
7.54525e-54
9.32261e-55
4.61336e-54
1.96395e-53
3.1343e-53
2.1297e-53
5.90253e-54
1.19504e-54
4.72464e-56
1.21178e-62
1.03617e-55
1.57219e-55
2.3085e-62
7.83173e-60
2.75972e-61
1.82048e-70
2.36626e-22
2.32136e-12
1.94114e-05
0.0542073
0.00198431
1.47775e-05
0.000115942
0.000693527
1.02113e-06
0.0103201
0.0865069
0.113992
0.126906
0.107029
0.111702
0.0979614
0.0999545
0.0784046
0.05846
0.0233813
0.00380142
9.81371e-05
1.04564e-07
4.06566e-36
4.88857e-45
2.58641e-52
2.67065e-54
4.74992e-53
5.82101e-54
7.48994e-53
3.54226e-55
1.65747e-53
4.00271e-55
3.81703e-57
1.05797e-54
2.96362e-56
7.78479e-56
2.19456e-59
6.67952e-57
5.63441e-60
3.9817e-68
3.3363e-72
2.79635e-25
4.96414e-15
2.09242e-06
0.00188482
0.0615661
8.19177e-05
0.00366441
7.6116e-05
3.73745e-05
0.000219729
0.0280804
0.108656
0.112873
0.121933
0.103576
0.109191
0.0963966
0.0992093
0.0783934
0.0584404
0.0232442
0.00373623
9.49659e-05
1.00391e-07
2.0002e-38
1.38907e-47
7.23451e-52
8.39175e-56
4.00944e-56
1.76153e-52
7.47055e-55
1.31579e-53
7.35373e-55
1.52344e-55
7.90883e-55
8.29951e-57
2.15488e-54
3.36289e-57
2.36365e-55
2.89131e-58
4.68045e-60
9.65638e-62
8.45049e-67
1.47104e-28
1.93313e-17
4.9118e-09
0.010584
0.00183646
0.025416
0.000129024
0.0033216
1.18125e-05
1.87391e-06
0.00205056
0.0533636
0.118157
0.109871
0.116732
0.101496
0.107284
0.095325
0.0986625
0.078089
0.0581356
0.0229565
0.00364542
9.15087e-05
9.57984e-08
3.19657e-41
3.54248e-49
5.54984e-55
1.56068e-54
8.59986e-52
2.18228e-54
7.54766e-55
1.26266e-55
9.37375e-54
1.35844e-55
5.18112e-55
8.38233e-54
2.24544e-56
1.97259e-55
3.39522e-57
3.31179e-57
9.0513e-65
1.2737e-74
1.71628e-71
3.84207e-32
1.30302e-20
8.22249e-11
9.83847e-05
0.0554764
0.00182894
0.00160179
0.000103621
0.00129412
1.31565e-06
1.98724e-05
0.00964414
0.0756608
0.120001
0.106104
0.113933
0.0999197
0.105964
0.0945506
0.0980786
0.0777274
0.0538598
0.0235553
0.00348177
8.79457e-05
9.14567e-08
4.72572e-45
1.29994e-51
5.63217e-53
2.32732e-52
3.03033e-55
1.76712e-54
2.52003e-53
1.35878e-54
6.58171e-54
1.7206e-54
3.54077e-55
1.26308e-55
1.95593e-55
3.45429e-56
4.53177e-56
1.54097e-58
2.47079e-60
2.66109e-61
3.13394e-67
3.17657e-36
1.07512e-23
6.7076e-14
2.08896e-05
0.00174366
0.0558927
5.37353e-06
0.00382679
7.62803e-05
0.000225325
6.46857e-07
0.00019986
0.0275891
0.0903028
0.118102
0.102728
0.112679
0.0987113
0.105175
0.0940028
0.0976159
0.0839425
0.0532855
0.0230797
0.00336802
8.43489e-05
8.73432e-08
1.34668e-47
4.84381e-52
1.46768e-51
5.78851e-55
2.62424e-52
2.12357e-56
3.94505e-54
1.69491e-54
3.77707e-55
7.13691e-56
1.56064e-56
8.49535e-54
1.35414e-55
2.75345e-57
1.12005e-56
1.48161e-58
1.77857e-60
3.80427e-63
2.41052e-67
7.47707e-41
2.23091e-27
8.4629e-17
1.49797e-07
0.000992162
0.0572592
0.000428404
0.0039025
9.32607e-05
0.000603593
2.44862e-06
3.43233e-06
0.00113522
0.0491668
0.109011
0.102457
0.112277
0.101005
0.107705
0.0952122
0.102677
0.0971487
0.0767692
0.0562977
0.0216293
0.0033117
8.06816e-05
8.31522e-08
1.04972e-49
2.16336e-51
2.06131e-56
1.13124e-52
3.41766e-55
9.49915e-55
1.48064e-53
4.1014e-54
5.59939e-66
7.6422e-56
3.14877e-54
4.5298e-56
6.94314e-57
1.62663e-56
4.80153e-66
9.57311e-59
1.05591e-58
2.03302e-63
1.95463e-67
8.1368e-46
1.64276e-31
4.6716e-20
4.388e-10
0.000169856
0.0540338
0.00140208
0.00274156
0.000102185
0.00123182
8.49137e-06
4.61623e-05
1.25791e-06
0.00770763
0.0768776
0.0989424
0.111488
0.100447
0.110598
0.0970078
0.104153
0.0932961
0.0966624
0.0762225
0.0555161
0.0211564
0.00320249
7.71545e-05
7.90501e-08
5.53925e-50
3.12514e-52
9.83052e-53
5.29107e-54
2.06976e-55
4.36357e-55
1.3272e-55
8.43243e-61
2.02023e-59
3.08733e-54
9.30787e-60
5.46816e-55
5.2666e-57
1.24195e-56
6.06007e-57
9.14031e-58
1.62505e-59
1.39641e-63
7.23668e-71
1.43137e-46
3.62923e-36
9.96173e-24
5.63601e-13
5.35843e-06
0.042367
0.00157946
1.59923e-05
0.000110419
0.0021762
1.02397e-05
0.000129408
9.45461e-07
8.15378e-05
0.0229094
0.0830874
0.110395
0.0987257
0.110754
0.0992241
0.106022
0.0945835
0.10198
0.0880003
0.0820633
0.0512583
0.0215452
0.00304348
7.38742e-05
7.51358e-08
8.61871e-49
2.29381e-51
1.50008e-53
3.83587e-54
1.58079e-54
4.40333e-55
7.64448e-60
9.50157e-61
2.37487e-55
5.16848e-58
1.02641e-56
1.02043e-55
6.60423e-56
4.28908e-56
2.71231e-60
4.42566e-59
7.06252e-61
1.51829e-62
1.10044e-67
4.50392e-46
3.7438e-41
7.02797e-28
3.02855e-16
3.7149e-08
0.0192791
0.00158999
0.00218083
0.000115352
0.00308115
1.75118e-05
0.000191888
3.88986e-06
1.64657e-05
0.000807478
0.0436169
0.101574
0.0974521
0.109033
0.0993896
0.108533
0.105419
0.0943969
0.101677
0.087563
0.0814105
0.0505624
0.0210218
0.00293544
7.05578e-05
7.15405e-08
2.46773e-48
1.13947e-52
7.85002e-55
1.78709e-53
1.47901e-57
6.53669e-60
8.21047e-56
5.57273e-54
7.63596e-56
3.58927e-55
3.64053e-55
2.12597e-57
2.13937e-55
6.22266e-58
6.64813e-58
3.43186e-59
5.26123e-61
8.38513e-64
7.27481e-68
3.80538e-46
2.65646e-44
2.74802e-32
1.97992e-20
4.7217e-10
0.000158447
0.0507411
0.000971921
0.00273207
0.000101354
0.00111841
7.01548e-06
0.000211902
1.32841e-06
2.48061e-06
0.00528614
0.0643552
0.105133
0.0961824
0.108658
0.0987873
0.107648
0.0954437
0.103461
0.0924767
0.0951976
0.0744679
0.053188
0.0196996
0.00287285
6.7329e-05
6.8093e-08
1.70342e-48
6.14791e-52
2.40781e-53
7.31615e-56
2.86058e-58
3.21184e-54
3.7845e-56
4.58458e-55
5.35286e-59
2.88588e-55
4.66381e-57
6.5e-56
3.11774e-59
5.06339e-57
3.15824e-59
4.50046e-63
3.88712e-61
1.44512e-68
2.66034e-72
4.04197e-46
2.96204e-45
1.61395e-37
1.39034e-24
2.95407e-13
3.9021e-06
0.0387501
0.00147249
9.50895e-05
0.000107202
0.00215208
1.08239e-05
0.000230075
4.57085e-06
2.04489e-05
3.48309e-05
0.0200323
0.087902
0.0942013
0.106559
0.0980218
0.0981267
0.106842
0.0951196
0.10328
0.0922167
0.094706
0.0738816
0.0523858
0.0192181
0.00277224
6.43623e-05
6.48411e-08
2.36542e-48
1.3972e-51
3.2357e-55
1.06233e-55
7.25536e-54
1.30591e-55
6.24161e-56
8.96866e-55
3.55743e-56
7.36313e-58
3.78459e-54
4.54499e-62
2.81107e-56
4.45979e-60
7.13428e-63
2.83479e-58
9.47814e-65
2.89649e-71
4.62439e-68
2.73744e-46
1.517e-47
3.42325e-42
2.5602e-29
6.38783e-17
1.63874e-08
0.0157563
0.00149252
0.0012003
0.000113354
0.0030261
1.88988e-05
0.000244178
5.1322e-06
4.85394e-05
1.08651e-08
0.000712887
0.0456705
0.086853
0.104848
0.0962333
0.0976305
0.10754
0.0964516
0.104189
0.093971
0.100719
0.0863459
0.0794145
0.0483883
0.0195014
0.002636
6.16994e-05
6.19054e-08
4.0603e-48
8.23633e-52
6.39925e-55
1.62442e-56
3.08891e-55
1.00016e-55
3.70909e-56
2.72907e-67
5.62835e-56
7.58061e-55
2.14538e-56
2.93357e-56
1.47856e-57
2.47568e-57
3.82783e-57
5.11514e-62
1.8948e-61
3.25461e-64
2.70729e-68
2.37071e-46
2.13498e-47
3.18229e-42
3.09512e-34
1.10496e-21
1.18505e-10
8.61543e-05
0.0464227
0.000779584
0.00244164
0.000101274
0.00114742
1.03942e-05
0.000228053
2.33567e-06
2.55317e-06
1.03581e-06
0.00615966
0.0695901
0.0906054
0.104361
0.106859
0.097134
0.106845
0.0959629
0.10391
0.0938083
0.100423
0.0859796
0.07875
0.0476888
0.0190162
0.00254458
5.91473e-05
5.9119e-08
3.58053e-48
2.31878e-52
1.28104e-56
7.30322e-56
1.11968e-56
4.8977e-56
2.79686e-56
5.77324e-57
4.17609e-55
4.85944e-57
3.54039e-55
1.80888e-62
7.84728e-58
2.02665e-57
1.05971e-57
8.40348e-61
1.58222e-61
2.17178e-64
2.12541e-68
2.6669e-46
1.0416e-47
5.6481e-42
1.10793e-38
1.98847e-26
3.01095e-14
1.1479e-06
0.0320429
0.00134649
1.49247e-05
0.000104881
0.00206388
1.35159e-05
0.000285339
3.49719e-06
6.21868e-06
5.59501e-10
5.35145e-05
0.0233453
0.0775011
0.102289
0.104771
0.0964797
0.106632
0.0964187
0.10509
0.0943899
0.102694
0.0914439
0.093427
0.0721394
0.050038
0.0178622
0.00249417
5.65922e-05
5.6532e-08
1.17004e-48
1.24396e-52
5.44858e-55
3.68543e-56
1.82177e-56
7.06232e-56
8.42374e-57
3.67986e-55
3.87157e-55
2.2384e-56
5.59889e-64
1.1354e-59
1.07511e-56
9.96887e-59
3.5932e-60
8.12681e-60
1.37414e-61
2.10844e-64
1.68207e-68
2.03862e-46
1.03007e-46
3.79719e-42
4.51157e-39
2.62007e-31
4.42589e-19
2.06489e-08
0.000428959
0.0454984
7.15743e-05
0.00326886
8.32372e-05
0.000668042
1.01129e-05
0.000187447
6.3328e-07
7.85349e-10
6.05444e-09
0.00116247
0.0491929
0.0853437
0.0921316
0.105302
0.0962513
0.105932
0.096002
0.10463
0.0941593
0.102485
0.0912015
0.0930135
0.0715572
0.0492856
0.0174507
0.00241086
5.43265e-05
5.4106e-08
4.65864e-49
8.92959e-52
2.17212e-54
1.78591e-56
1.9025e-55
2.68129e-59
2.79321e-54
7.65551e-56
2.4979e-56
2.76513e-57
8.43004e-58
1.29835e-56
3.1318e-58
1.27015e-65
1.07932e-59
5.60447e-60
8.3254e-62
1.64198e-63
2.98264e-67
1.08048e-46
2.76057e-46
6.3441e-43
2.72274e-39
3.6508e-36
8.19167e-24
6.9646e-12
2.46114e-05
0.0401445
0.000796923
0.00165902
9.72768e-05
0.00121182
1.17125e-05
0.000275356
1.58408e-06
7.85027e-09
4.10799e-09
2.1339e-06
0.00896405
0.0654183
0.0889023
0.102904
0.0954156
0.10588
0.0955537
0.105178
0.0947867
0.103097
0.0932853
0.0995717
0.0848904
0.0768
0.0456491
0.0176881
0.00230192
5.22929e-05
5.17964e-08
4.73861e-49
2.55394e-52
1.43191e-55
3.17492e-56
2.31827e-55
1.83799e-54
2.81915e-55
1.74683e-54
8.15578e-58
2.86959e-57
1.1428e-57
4.61415e-64
3.29083e-58
7.13117e-59
8.05885e-59
3.1979e-60
2.168e-61
3.48787e-65
1.86198e-67
8.1669e-47
4.89835e-47
1.88109e-43
1.45839e-39
3.08021e-37
1.13685e-28
9.50052e-17
1.52037e-06
0.000807571
0.0393237
2.27039e-06
0.00351847
6.13371e-05
0.000511405
9.70905e-06
0.000102922
7.07289e-09
6.18321e-07
1.36675e-08
0.000113372
0.0298244
0.0871252
0.0902298
0.103784
0.0954884
0.105282
0.0950531
0.104612
0.0944149
0.102865
0.0931171
0.0992876
0.0845342
0.0761798
0.0450008
0.0172826
0.00222873
5.02508e-05
4.96707e-08
6.81069e-49
4.42836e-52
4.49079e-56
5.70092e-55
8.55189e-55
5.47736e-55
4.23087e-54
2.15855e-57
3.20459e-63
2.61585e-61
7.06624e-58
9.88233e-62
1.94638e-58
2.82998e-57
4.35519e-60
3.22408e-64
4.12298e-65
8.46744e-64
1.02471e-70
9.35953e-47
1.3251e-47
7.33972e-43
4.23435e-40
1.06478e-37
9.34187e-35
9.84829e-21
8.1359e-10
0.000155436
0.0409368
0.000196567
0.00264131
8.2267e-05
0.000766791
1.13494e-05
0.000184842
1.84103e-07
9.86596e-07
1.23396e-07
3.92091e-08
0.00236882
0.0557026
0.0849901
0.101205
0.0942909
0.105463
0.0948639
0.104092
0.0946884
0.103289
0.0935927
0.101867
0.090486
0.0917812
0.0698901
0.0471731
0.0162915
0.00218632
4.82676e-05
4.76628e-08
8.86751e-49
7.70303e-53
1.67052e-55
7.09052e-55
1.18644e-54
1.08863e-54
2.69761e-57
3.91733e-57
2.27952e-58
8.15714e-58
3.15442e-58
3.99077e-62
3.0211e-57
4.44902e-58
3.14196e-60
3.96289e-60
6.74117e-63
5.38338e-65
5.13946e-69
1.12292e-46
1.36907e-46
6.05677e-43
4.24736e-40
4.61529e-38
5.30946e-40
3.0268e-26
1.1565e-14
4.38733e-05
0.00100774
0.0268659
3.34257e-05
0.00325458
4.13958e-05
0.000442913
7.65569e-06
6.10857e-06
4.90179e-07
1.00743e-05
9.95031e-09
5.85333e-06
0.0146757
0.0762141
0.0879759
0.102205
0.0949488
0.104909
0.0943249
0.103565
0.0942897
0.102943
0.093432
0.101672
0.0902531
0.0913771
0.0693571
0.0465027
0.0159305
0.00211932
4.64729e-05
4.57523e-08
4.58699e-49
2.72617e-53
3.24019e-56
2.3217e-54
1.89551e-56
5.92536e-57
6.98952e-56
5.88792e-61
1.88734e-60
6.77714e-60
2.72646e-58
3.0936e-56
1.13157e-58
4.36497e-61
3.33136e-61
4.93655e-63
4.17144e-62
8.68583e-63
3.48081e-69
7.69679e-47
4.1044e-46
2.22556e-43
4.21355e-40
3.1487e-38
1.39276e-38
3.15789e-32
1.70647e-18
3.86926e-09
0.000392329
0.0378074
2.95146e-06
0.003221
6.58184e-05
0.000554677
9.78561e-06
3.7839e-05
6.89829e-08
1.11684e-05
3.84936e-07
4.92322e-09
0.0005006
0.0384453
0.0795501
0.0996466
0.0932104
0.105108
0.0944663
0.103277
0.0937824
0.103154
0.0935487
0.102292
0.0926191
0.0984643
0.0834928
0.0743583
0.043169
0.0161483
0.00202951
4.48453e-05
4.39676e-08
1.7025e-49
2.28994e-53
5.74433e-55
8.72061e-57
3.62661e-55
2.80938e-57
3.21169e-60
1.22844e-56
1.95492e-58
8.22832e-58
2.91707e-57
5.42592e-58
7.88056e-63
2.39378e-58
1.0575e-58
1.40293e-60
1.38722e-60
3.5413e-64
2.70742e-69
3.49808e-47
6.81693e-46
3.96533e-44
2.38489e-40
2.87156e-38
1.74247e-38
4.20236e-35
5.33707e-24
7.70786e-13
0.000468202
0.00107593
0.0113072
7.04872e-05
0.00288768
2.52279e-05
0.000414231
2.98952e-06
1.5432e-08
5.47993e-07
9.58784e-06
1.0676e-07
3.86425e-07
0.00543422
0.057384
0.0950075
0.0904619
0.104331
0.0947593
0.103529
0.0933445
0.102655
0.0936106
0.102386
0.0931664
0.101279
0.089789
0.0905933
0.0683044
0.0452157
0.015256
0.00199308
4.32378e-05
4.22564e-08
5.94704e-50
2.99211e-54
5.23593e-56
5.19265e-56
6.37611e-57
1.73664e-58
3.29283e-59
1.72571e-59
3.07428e-62
8.3666e-58
1.52325e-58
2.3634e-59
6.76031e-59
1.50787e-59
7.8121e-59
1.28199e-59
1.35818e-62
2.92165e-64
1.99662e-69
1.3559e-47
5.80169e-46
1.84309e-45
8.84375e-41
2.13251e-38
1.02602e-37
1.31489e-34
3.73538e-30
1.79432e-16
8.01334e-08
0.0180897
0.0308624
1.22876e-06
0.00293959
4.04929e-05
0.000482567
5.80102e-06
1.73374e-07
1.55814e-07
1.23286e-05
7.75927e-07
2.63131e-08
4.69816e-05
0.0222338
0.0803624
0.0876295
0.10201
0.0946323
0.10417
0.0933654
0.102135
0.0931187
0.102433
0.0931681
0.101974
0.0922937
0.0979326
0.0828131
0.0731977
0.0420286
0.0154566
0.00193456
4.16157e-05
4.06731e-08
8.87919e-51
9.67689e-56
7.97255e-59
8.74679e-56
5.35827e-56
1.15541e-55
1.2397e-57
1.26498e-56
1.92165e-56
4.83616e-58
1.0938e-58
1.51398e-58
3.38212e-60
2.10879e-62
8.41785e-60
8.67896e-61
6.89912e-63
2.52838e-64
1.48126e-69
3.03422e-48
3.03295e-46
8.27192e-46
2.23487e-41
1.14902e-38
2.15066e-37
6.53834e-35
4.79146e-31
6.43144e-22
2.59592e-11
0.00218293
0.0339446
0.00235411
6.5026e-05
0.00224525
1.86021e-05
0.000345039
2.14338e-07
2.26014e-07
9.50642e-07
2.62531e-06
3.35517e-07
7.16186e-08
0.00173983
0.0478395
0.0811512
0.0991936
0.093171
0.104732
0.093789
0.102156
0.0925051
0.101927
0.0931119
0.101965
0.0929211
0.100902
0.0893348
0.089828
0.0672943
0.0439873
0.0146234
0.00187772
4.01818e-05
3.92303e-08
1.29328e-51
3.1448e-55
1.00724e-55
5.7195e-56
2.11423e-56
3.24159e-58
6.22867e-58
3.33239e-58
1.4613e-57
4.63524e-61
6.42284e-59
2.40645e-59
4.66897e-63
8.15332e-60
6.6768e-60
9.07434e-60
5.11329e-63
3.18436e-64
1.68464e-68
4.68047e-49
9.36384e-47
8.83408e-46
3.60106e-42
4.51903e-39
2.134e-37
5.08465e-36
1.27048e-31
9.25706e-28
1.10636e-15
8.98768e-07
0.0235106
0.000617797
2.72627e-05
0.00276807
3.19884e-05
0.000426604
1.53081e-06
3.62723e-09
6.49088e-07
3.6358e-06
5.96957e-07
5.96074e-08
9.16493e-06
0.0110827
0.0632837
0.0953043
0.0904649
0.104395
0.0943582
0.102715
0.0923269
0.101206
0.0926197
0.101878
0.0928668
0.101695
0.0919781
0.0974155
0.0821544
0.07207
0.0409353
0.0148104
0.00180342
3.89345e-05
3.78349e-08
1.66068e-52
3.1592e-56
1.55542e-55
2.84104e-56
4.98925e-61
5.84728e-56
1.14491e-57
1.43022e-58
9.16583e-58
1.91363e-58
2.13247e-58
1.45746e-60
4.24017e-59
3.08777e-60
6.67829e-60
2.07041e-61
3.65711e-65
1.08163e-64
5.59977e-72
6.19084e-50
2.03467e-47
4.47176e-46
3.79773e-43
9.89157e-40
1.4698e-37
1.00938e-38
4.03891e-32
6.1731e-30
4.36455e-20
7.56277e-09
0.000207502
0.0319968
1.04949e-05
8.51818e-05
0.00182172
1.65924e-05
0.000141615
9.49698e-10
2.4261e-06
7.73515e-07
3.84883e-07
2.60441e-07
8.8333e-08
0.000299212
0.0310296
0.0840397
0.0876606
0.102229
0.0945365
0.103649
0.092605
0.100973
0.091874
0.101345
0.0927129
0.101645
0.0927004
0.100539
0.088895
0.0890774
0.0715228
0.0404012
0.0145089
0.00175515
3.76574e-05
3.65073e-08
1.04264e-53
5.56943e-56
1.84151e-57
2.67158e-57
4.77411e-56
7.86371e-60
8.53769e-58
3.52076e-57
5.52547e-58
3.04156e-59
2.76581e-59
9.34645e-59
3.7947e-59
7.93853e-63
3.16036e-60
4.33881e-61
6.15034e-62
7.33735e-66
8.055e-69
1.00219e-50
2.03599e-48
1.73278e-46
1.50243e-44
2.50492e-40
4.69066e-38
8.27902e-38
5.72671e-33
3.38119e-30
2.14032e-26
3.19642e-14
0.000116231
0.000816702
0.00976399
4.51115e-05
0.00253429
2.50989e-05
0.000240322
4.83549e-08
3.55418e-07
4.83413e-07
4.61317e-07
2.33898e-07
8.35666e-08
7.79851e-07
0.00461798
0.0569016
0.0825183
0.0991068
0.0934425
0.104562
0.0932641
0.101268
0.0915124
0.100484
0.0921956
0.101453
0.0926343
0.10144
0.0916743
0.0969102
0.0887108
0.0658229
0.0422595
0.013764
0.00172749
3.63793e-05
3.52625e-08
1.64939e-53
6.3434e-59
2.07552e-55
1.72025e-56
2.85569e-58
4.91983e-59
2.31289e-58
6.89133e-59
6.36561e-58
2.77329e-57
3.48421e-58
5.16624e-58
2.12619e-59
4.27525e-60
4.66251e-60
3.93711e-61
2.58712e-63
6.96399e-66
6.167e-69
1.832e-51
2.17526e-49
3.33823e-47
6.68732e-46
3.06147e-41
1.17226e-38
1.28687e-37
6.04101e-34
1.7885e-30
2.11777e-29
1.99286e-19
1.07108e-07
0.00033254
0.0244022
1.85989e-06
0.0026896
0.0013185
1.01587e-05
1.12694e-05
3.31113e-08
4.76953e-06
9.23068e-07
6.74627e-08
7.13266e-08
3.54446e-08
7.83571e-05
0.0191611
0.0684037
0.0956668
0.0908587
0.104691
0.0940794
0.102058
0.0915686
0.100048
0.0913562
0.100875
0.0924094
0.101383
0.0924938
0.100198
0.0884661
0.0883437
0.0653555
0.0417325
0.0134982
0.00168144
3.52325e-05
3.40469e-08
6.72318e-55
2.00685e-57
5.77994e-57
4.20001e-58
1.37543e-61
1.8202e-61
5.56844e-57
7.54457e-59
5.19315e-58
1.75029e-57
3.19319e-58
9.34682e-59
1.21491e-59
1.69802e-60
2.0041e-63
3.12069e-63
1.6417e-63
3.90478e-65
3.38087e-70
1.61286e-52
3.13268e-50
3.99944e-48
1.86942e-46
1.27115e-42
3.07635e-39
8.69041e-38
2.63546e-35
3.42164e-31
2.52532e-29
2.69769e-25
7.54787e-12
1.87699e-05
0.0264237
0.000106071
0.00146107
5.60371e-05
1.56373e-05
6.6172e-05
2.31135e-09
2.80535e-06
1.72755e-06
2.1524e-08
2.97553e-08
4.82509e-08
6.72432e-07
0.00123891
0.0400871
0.0871653
0.0879534
0.102759
0.0945609
0.103204
0.0920359
0.100075
0.0908547
0.099915
0.0918548
0.1011
0.0924281
0.101224
0.0913997
0.0964215
0.0808746
0.0699467
0.0389277
0.0136769
0.00161956
3.41651e-05
3.28853e-08
2.88273e-56
7.94557e-57
4.20425e-59
7.10003e-59
4.46902e-59
3.00875e-60
4.43967e-57
1.05179e-57
3.43428e-58
4.19296e-57
2.32302e-63
4.95796e-59
1.231e-64
4.63764e-63
3.82675e-65
1.77359e-61
1.65775e-63
2.78875e-66
2.384e-70
1.16486e-53
4.39681e-51
3.39675e-49
4.90767e-47
3.0978e-44
2.32265e-40
7.87328e-38
1.1351e-37
4.87674e-32
1.61924e-29
1.79719e-27
4.74491e-17
4.50611e-08
0.0129244
0.00065448
8.00673e-05
6.13427e-05
0.00100688
4.90335e-06
5.04198e-08
3.93222e-08
3.05769e-06
9.35732e-09
6.07945e-09
1.82204e-08
1.26199e-07
8.39073e-06
0.00964294
0.0651861
0.0837534
0.0993585
0.0938725
0.104361
0.0928523
0.100573
0.0907161
0.0993302
0.0909533
0.100474
0.0921122
0.101162
0.101134
0.0912646
0.0961848
0.080573
0.06944
0.0384576
0.0134173
0.00157708
3.309e-05
3.17774e-08
8.39031e-57
8.81838e-57
3.99591e-57
2.98899e-58
1.5866e-57
7.65398e-58
8.97312e-58
4.35855e-64
9.55905e-59
1.16875e-58
1.21289e-62
4.38895e-59
1.35057e-61
2.1919e-60
8.51162e-60
1.14522e-60
-4.21688e-81
2.39735e-65
1.64322e-70
6.49677e-55
3.48521e-52
2.17393e-50
3.6298e-48
2.49575e-46
2.66668e-41
1.14664e-38
4.95932e-38
3.69955e-33
4.84075e-30
3.1298e-30
1.69023e-24
6.14261e-12
0.00118021
0.000743536
0.00076411
5.16817e-05
0.0017347
1.1172e-05
3.72394e-06
4.3073e-09
4.4664e-06
1.5805e-08
1.26172e-09
2.58183e-09
1.2202e-07
1.41697e-07
0.00036901
0.0290478
0.0728433
0.0961293
0.0914137
0.104835
0.0938457
0.101523
0.0909466
0.0991424
0.0903526
0.0994833
0.0915261
0.10076
0.101076
0.0922689
0.0997272
0.0878496
0.0872976
0.0640117
0.0401952
0.0127479
0.00155292
3.20089e-05
3.06899e-08
1.76801e-58
1.72296e-60
1.85155e-57
3.5526e-58
1.86379e-57
5.94248e-58
2.87163e-58
3.11717e-59
1.18636e-58
3.30458e-59
5.30613e-60
3.43274e-59
3.31712e-60
7.98603e-60
3.15918e-67
1.83296e-66
4.55397e-64
3.5473e-66
1.16838e-73
1.01833e-55
5.89098e-53
6.06518e-52
3.01727e-49
2.04519e-48
4.95591e-43
2.59163e-39
2.58077e-38
2.05515e-34
4.07621e-31
1.41988e-29
1.11072e-25
8.59005e-16
2.13804e-07
0.0150165
0.000347098
0.000378706
7.24841e-05
0.000785892
1.19958e-06
2.37212e-10
3.28584e-06
6.17042e-08
1.33318e-09
2.02814e-10
4.93169e-08
2.92676e-08
2.82053e-06
0.00365358