/*--------------------------------*- C++ -*----------------------------------*\
| =========                 |                                                 |
| \\      /  F ield         | OpenFOAM: The Open Source CFD Toolbox           |
|  \\    /   O peration     | Version:  v2012                                 |
|   \\  /    A nd           | Website:  www.openfoam.com                      |
|    \\/     M anipulation  |                                                 |
\*---------------------------------------------------------------------------*/
FoamFile
{
    version     2.0;
    format      ascii;
    class       volScalarField;
    location    "1901";
    object      I2;
}
// * * * * * * * * * * * * * * * * * * * * * * * * * * * * * * * * * * * * * //

dimensions      [0 0 0 0 0 0 0];


internalField   nonuniform List<scalar> 
8000
(
2.62421e-76
2.29103e-55
1.40753e-59
3.78915e-53
8.60405e-56
8.6e-62
2.08247e-66
2.85327e-53
7.94108e-58
1.12665e-75
4.45229e-52
1.57377e-53
3.95862e-55
2.53594e-55
1.55404e-74
2.22507e-51
1.66949e-51
1.17207e-53
2.42296e-53
5.35275e-57
1.23467e-76
1.6067e-64
1.54384e-52
8.25405e-52
8.30411e-75
1.24826e-53
2.37584e-55
2.51823e-62
8.37862e-64
5.39868e-52
9.24499e-51
7.62616e-54
9.98554e-54
3.65173e-69
4.32787e-72
1.8528e-62
1.0034e-51
1.12256e-50
5.93853e-52
5.65842e-53
8.51905e-54
4.51694e-65
1.36079e-55
8.6128e-56
2.04725e-62
3.40756e-50
1.18325e-50
1.64451e-51
5.98244e-64
6.75656e-52
1.64107e-51
3.85378e-54
6.6549e-70
8.23177e-57
1.50265e-62
2.13717e-61
1.14116e-61
8.84799e-65
9.21238e-51
7.28268e-66
3.34911e-65
8.2584e-52
7.54492e-67
5.46244e-56
1.78628e-57
7.37515e-63
1.64546e-51
3.73622e-49
1.71402e-51
4.31355e-51
1.94367e-62
4.17117e-50
2.5018e-70
6.27215e-52
3.43357e-54
2.25355e-69
8.26598e-59
4.38965e-61
4.44214e-51
1.28294e-50
5.06731e-51
6.98724e-64
2.98146e-52
4.16353e-53
1.81942e-52
2.14467e-64
2.29106e-52
2.85122e-53
7.14259e-55
2.99578e-72
5.97483e-63
7.65113e-51
3.25929e-51
4.81739e-50
4.71566e-61
1.01012e-50
5.32868e-49
2.55102e-51
2.19099e-51
8.95404e-65
3.49337e-53
1.33862e-54
4.94567e-68
4.74634e-58
4.39282e-63
9.77667e-50
1.32847e-49
1.57665e-51
1.04982e-50
2.97526e-50
1.12586e-50
1.1059e-52
3.65255e-53
5.60064e-51
2.49993e-52
1.80441e-53
1.18358e-64
1.6162e-56
2.05125e-56
3.45624e-62
3.39911e-47
2.28361e-49
6.09761e-51
1.19221e-51
3.94864e-50
1.372e-51
5.19344e-52
8.08792e-53
2.68281e-62
8.44584e-52
1.92639e-52
6.9861e-53
1.77261e-53
9.58974e-55
1.08645e-70
1.57539e-63
9.03874e-34
2.12074e-46
8.03055e-50
6.67175e-67
1.31048e-51
6.68656e-65
1.58636e-51
4.24055e-51
9.13344e-53
3.20803e-50
6.07544e-53
6.25894e-54
4.01156e-66
3.52368e-64
2.08863e-55
1.89938e-58
4.48497e-61
1.99236e-24
6.44382e-33
9.8151e-46
1.11016e-50
2.28929e-51
1.00101e-51
1.82366e-52
3.15356e-59
1.94405e-52
5.68878e-51
1.01737e-53
4.07519e-64
4.84382e-54
1.85281e-52
3.27573e-53
9.69603e-57
5.3217e-71
1.04376e-61
2.84148e-09
6.3242e-23
1.47991e-34
3.27653e-45
3.29508e-52
3.97115e-50
4.94258e-52
2.00127e-52
5.71035e-60
6.03012e-64
3.59356e-53
2.8437e-50
1.97758e-51
5.28297e-54
5.69022e-54
4.46934e-55
4.67142e-57
1.52454e-58
1.61599e-61
5.39507e-05
3.16461e-13
1.76783e-22
1.10752e-36
2.19349e-45
2.67809e-52
1.87098e-51
3.73433e-52
1.54635e-52
3.53996e-61
2.70636e-51
2.82399e-53
7.39798e-52
9.42731e-64
6.3777e-53
2.12237e-53
3.32159e-55
5.55954e-56
7.10814e-60
3.76373e-62
0.0155352
0.00224608
8.23008e-11
1.39371e-23
4.06596e-43
1.15011e-45
2.40535e-50
3.61291e-62
3.21441e-50
1.93473e-50
8.02711e-51
4.56746e-65
3.07131e-53
1.21249e-51
6.45029e-64
1.97596e-54
2.90336e-55
1.56781e-55
6.12612e-56
3.47201e-60
8.19631e-63
0.0398847
0.0107073
6.66926e-05
3.77773e-11
4.01223e-25
5.02628e-38
9.81221e-46
1.29586e-52
1.62322e-60
1.94481e-52
1.39834e-51
2.59039e-52
1.0022e-52
1.59158e-53
8.69583e-53
1.03449e-53
1.78012e-52
2.27379e-54
2.83792e-54
1.87218e-57
3.8636e-60
6.49121e-79
0.085918
0.00858221
0.00706716
7.76151e-06
4.68221e-11
1.5408e-25
1.86557e-37
1.57802e-46
2.60633e-51
5.09736e-52
1.15164e-63
6.8174e-52
2.33326e-50
2.94862e-62
4.48213e-62
1.67701e-51
1.13514e-53
8.60013e-53
1.2657e-53
1.37629e-54
3.2881e-56
1.89449e-60
2.79435e-64
0.0478447
0.0123107
0.029368
0.00356782
1.44889e-06
8.39085e-12
1.05811e-25
1.00241e-37
1.59683e-46
1.05104e-49
5.78592e-52
1.1441e-52
4.09306e-51
2.23636e-60
6.67885e-63
9.58452e-54
2.37686e-52
5.65322e-54
3.28067e-67
7.63281e-56
1.51663e-54
1.6104e-56
2.03737e-60
1.52405e-75
0.0621231
0.00536519
0.0627128
0.0235284
0.00139268
5.90114e-07
3.76359e-12
3.13467e-26
6.84203e-38
1.00791e-46
1.45911e-51
2.96492e-52
2.17661e-51
3.87284e-63
2.05528e-60
2.57906e-66
1.04581e-53
1.4631e-54
9.79207e-53
9.31385e-54
2.17037e-53
4.81789e-56
9.06945e-56
1.29931e-71
1.50083e-64
0.0305411
0.00318207
0.0568085
0.0497082
0.023023
0.000441207
4.38494e-07
5.10398e-13
1.86264e-26
1.65833e-38
2.46453e-47
7.77345e-52
3.37349e-52
6.84799e-53
2.94363e-53
8.9327e-53
3.48597e-53
4.21087e-52
1.29623e-52
2.96302e-54
1.03025e-53
6.57722e-55
5.05126e-56
5.61168e-58
1.77223e-59
7.31579e-65
0.0350868
0.000243039
0.0259865
0.0969015
0.0436783
0.0142986
0.000247748
2.53187e-07
1.36567e-13
4.66284e-27
8.46205e-39
9.23277e-48
5.80097e-53
1.71826e-52
8.30942e-53
2.51609e-52
5.42804e-65
1.03039e-50
2.61603e-60
2.01181e-52
3.32823e-54
4.91778e-54
4.55398e-56
2.59306e-56
9.59241e-57
4.42922e-59
1.8228e-75
0.01387
1.61176e-07
0.0151984
0.0932904
0.0640135
0.0551724
0.00625944
0.00023427
1.0803e-07
1.44196e-14
2.30559e-27
1.8978e-39
2.48776e-48
2.57195e-53
1.07012e-59
1.04389e-50
1.06652e-50
7.5909e-52
1.74237e-53
3.02857e-54
5.39036e-52
2.58517e-53
8.79501e-53
2.47101e-65
2.91881e-56
2.96876e-58
2.47754e-57
3.97825e-65
0.0102372
1.13233e-06
0.0103847
0.0446153
0.117755
0.058673
0.0441603
0.00450131
0.000159025
7.52566e-08
3.02373e-15
4.31844e-28
8.5842e-40
2.68935e-49
9.82307e-62
9.94863e-53
4.49323e-53
6.77403e-52
5.92352e-53
7.20874e-52
4.94517e-53
5.50441e-52
1.75531e-54
1.38114e-53
5.94789e-53
3.87523e-67
3.18954e-58
2.39626e-59
1.69458e-75
0.002369
2.77669e-10
0.002472
0.0277308
0.116916
0.0720337
0.0852621
0.0229252
0.00517666
7.67372e-05
8.50922e-08
2.09219e-16
1.49552e-28
1.49875e-40
6.36471e-49
4.26685e-51
1.90924e-51
3.69212e-52
2.36691e-51
8.14717e-61
1.28867e-62
1.53741e-54
3.82829e-53
9.22844e-55
2.91795e-54
3.09711e-54
1.09074e-70
2.58262e-57
5.21054e-60
2.18467e-65
0.000867828
1.25379e-06
7.57496e-05
0.0192231
0.058548
0.129453
0.0686088
0.0766803
0.0191889
0.00405087
5.93932e-05
6.99495e-08
2.71158e-17
1.88097e-29
4.94322e-41
3.6021e-50
4.93936e-62
5.87072e-53
2.45524e-53
4.44885e-54
8.56789e-61
4.48291e-63
2.66707e-53
1.83407e-53
9.37489e-55
8.93814e-56
5.63175e-64
4.01924e-66
2.83433e-57
1.30489e-59
2.43978e-65
9.13171e-05
0.00267732
9.49638e-07
0.00499024
0.0367228
0.129527
0.0774066
0.105802
0.0432459
0.025635
0.00217176
7.46418e-05
4.21642e-08
1.03982e-18
4.31582e-30
5.9341e-42
5.90223e-52
1.42925e-52
5.20462e-51
1.9443e-52
3.16858e-51
1.38108e-53
8.83823e-53
5.15438e-52
2.84479e-55
7.73264e-54
3.54399e-68
4.18822e-54
9.13747e-65
5.43163e-56
1.75235e-61
3.76232e-75
1.41801e-05
0.0076954
2.06067e-05
0.000778145
0.0160514
0.106413
0.0843267
0.12225
0.0617998
0.0632759
0.0143235
0.00286619
4.47139e-05
6.4504e-08
5.65031e-20
5.1692e-31
8.26204e-43
1.69677e-51
1.84758e-51
2.99365e-62
1.00426e-53
3.6293e-54
1.05617e-53
6.26398e-53
9.60002e-54
1.53286e-53
5.55683e-63
1.14998e-54
1.15361e-53
9.51652e-56
6.27328e-59
1.05309e-59
1.37016e-64
9.74354e-07
0.00461349
1.73854e-05
5.6748e-05
0.00599923
0.0402167
0.136171
0.0826109
0.11805
0.0590018
0.0583543
0.012997
0.00267103
4.05719e-05
7.11338e-08
3.3984e-21
4.7476e-32
9.91765e-44
4.7753e-51
4.20939e-52
3.59519e-53
1.13511e-52
6.79246e-52
2.39168e-61
4.46582e-53
3.72305e-53
4.72187e-63
2.05254e-53
4.5192e-54
5.69213e-56
7.10462e-56
1.20006e-56
7.70434e-60
6.23779e-66
4.47984e-08
0.00230842
0.00160198
5.95757e-09
0.000425591
0.0166277
0.108278
0.0880639
0.130127
0.0702723
0.0916793
0.0345235
0.0194098
0.00170293
6.73877e-05
5.5494e-08
1.53419e-22
3.31655e-33
9.74749e-45
4.58615e-58
2.98906e-52
2.08459e-60
4.34031e-54
1.65669e-52
7.28567e-65
3.48688e-53
5.00744e-54
6.39865e-53
3.0748e-54
1.03838e-53
1.64227e-54
3.24285e-57
4.49924e-56
7.09125e-62
5.68547e-64
9.33959e-10
0.000968513
0.0001333
1.14602e-06
5.47954e-06
0.00486142
0.0374812
0.136967
0.0871445
0.125925
0.068782
0.0888639
0.0337951
0.0194027
0.00186063
7.81993e-05
6.33266e-08
7.92494e-24
1.162e-34
1.01927e-45
1.66908e-55
4.01804e-54
7.8531e-60
7.16139e-61
6.83261e-62
1.48016e-60
6.4854e-52
3.40404e-55
3.08904e-53
1.68881e-53
1.23084e-53
8.6063e-65
1.56346e-57
3.91547e-59
2.76029e-60
4.9591e-66
1.99007e-11
0.000137206
0.000221741
1.1406e-05
1.74637e-06
6.13007e-05
0.0127398
0.100911
0.0897442
0.138983
0.075394
0.110556
0.0543501
0.05422
0.0133189
0.0032019
5.87905e-05
1.03867e-07
1.93209e-25
4.51669e-36
6.48087e-47
1.85468e-55
7.63082e-52
4.67327e-60
4.47738e-54
5.67372e-53
7.5591e-53
3.5511e-62
7.00613e-53
2.97222e-54
3.95694e-53
1.35164e-56
1.98464e-57
1.83975e-56
4.83945e-57
3.9798e-62
2.01922e-64
4.32902e-13
6.54836e-06
0.00295786
0.00156294
7.11763e-07
8.93948e-08
0.00200503
0.0296695
0.13169
0.0899409
0.134295
0.0745663
0.109867
0.0546334
0.0564
0.0144822
0.00353064
6.3521e-05
1.08774e-07
2.15671e-27
1.90603e-37
2.47418e-48
1.54495e-53
1.83195e-54
1.0309e-53
1.58568e-52
6.36202e-53
2.20237e-54
5.40925e-52
2.01342e-54
5.19989e-53
7.9399e-56
1.15764e-67
1.66545e-56
1.38688e-65
5.0382e-72
1.04388e-74
2.99021e-65
4.18578e-15
2.48938e-07
0.00281344
0.00449378
2.81106e-08
4.59393e-07
8.96778e-06
0.00674375
0.0851196
0.0885982
0.144659
0.0795394
0.121195
0.0674592
0.0896838
0.037015
0.0240867
0.00245241
9.93847e-05
7.3996e-08
2.37751e-29
3.78507e-39
8.74627e-50
2.84373e-54
8.8704e-53
8.79239e-54
1.13616e-52
5.83075e-55
4.21128e-52
4.96007e-53
2.4141e-53
1.72803e-61
9.03887e-55
1.08436e-56
1.17584e-57
6.68679e-58
2.41762e-58
4.77853e-71
1.80027e-75
1.72064e-17
8.02139e-09
0.000661529
0.00209105
1.00233e-08
2.1403e-06
1.41292e-07
0.000525777
0.0184577
0.118761
0.0901301
0.140001
0.07785
0.119896
0.0674249
0.0911498
0.0381765
0.0249293
0.00252262
0.000101048
7.36191e-08
2.46547e-31
3.43779e-41
2.18661e-53
6.62506e-58
1.27978e-54
3.80007e-54
5.4183e-61
7.19439e-53
2.98876e-53
2.50227e-53
8.65921e-54
9.27875e-54
9.53907e-55
9.47731e-56
8.13703e-58
4.63395e-58
1.09493e-59
1.66624e-61
1.47052e-66
9.63963e-20
6.75724e-11
0.000142927
5.57653e-09
0.000103769
4.54692e-07
3.38458e-06
7.13148e-07
0.0030237
0.0383207
0.138051
0.0883175
0.135011
0.075787
0.119096
0.0671894
0.0918645
0.0387162
0.0253404
0.00254975
0.000100467
1.08033e-07
6.71602e-34
4.64239e-43
2.98913e-54
2.33089e-54
5.45563e-55
3.75078e-54
1.24207e-53
2.49294e-53
1.44304e-53
5.19673e-54
8.61009e-55
1.67463e-56
8.07855e-63
1.0048e-55
1.07284e-55
1.04788e-65
5.59886e-60
1.79145e-61
8.51531e-75
1.36199e-22
7.57589e-13
5.39526e-06
0.000779129
0.00112641
7.51043e-05
1.86516e-05
8.69922e-09
3.89906e-05
0.0125048
0.0596079
0.143769
0.0849421
0.129811
0.0745072
0.116992
0.0666246
0.0918943
0.0389678
0.025458
0.00253416
6.5424e-05
1.04583e-07
1.50905e-36
2.57557e-45
7.97789e-52
1.84541e-54
3.79848e-53
3.35909e-54
4.20778e-53
1.64279e-55
1.02726e-53
2.3745e-55
3.72619e-63
8.94794e-55
2.49083e-56
7.29019e-56
9.55958e-66
5.71119e-57
3.85253e-60
6.22129e-74
5.53759e-75
2.27258e-25
2.17443e-15
1.95282e-07
0.000769101
0.00277857
2.10761e-06
3.70832e-06
8.29702e-07
8.18003e-07
0.000336622
0.0338573
0.0745372
0.141186
0.0815085
0.124991
0.0727678
0.115035
0.0661201
0.0919033
0.0389544
0.0253037
0.00249071
9.54724e-05
6.69274e-08
2.57958e-39
7.14786e-48
2.43654e-52
7.14301e-59
1.05889e-61
1.20952e-52
5.45636e-55
9.78767e-54
7.25559e-55
1.16451e-55
7.07027e-55
4.65357e-57
1.88986e-54
2.52654e-57
2.05846e-55
1.78662e-58
4.31351e-60
6.38617e-62
5.71107e-67
8.03746e-29
7.62096e-18
1.47379e-09
0.00035777
0.000332104
1.80402e-06
9.48681e-08
6.19554e-06
1.29282e-10
1.58134e-06
0.00193831
0.0659914
0.0806438
0.136067
0.0779681
0.122043
0.0714726
0.113714
0.0657549
0.0915408
0.0387505
0.0249778
0.00243017
9.19877e-05
6.38656e-08
1.17668e-42
3.47622e-52
2.98546e-57
5.69251e-55
8.55937e-52
8.96817e-55
5.74447e-55
8.54728e-56
8.62796e-54
8.75135e-56
4.93967e-55
5.40272e-54
1.66384e-56
1.43526e-55
2.72268e-58
2.15287e-57
1.59499e-67
8.49135e-75
2.32266e-74
2.71081e-32
5.95268e-21
1.24614e-11
2.11791e-05
4.44312e-06
0.000105259
3.89273e-05
5.93536e-06
6.82475e-08
1.45778e-08
3.29976e-05
0.00778677
0.0954265
0.0813574
0.130191
0.0759689
0.119948
0.0705941
0.11275
0.0653632
0.091092
0.0613983
0.015702
0.00359649
5.863e-05
9.14719e-08
1.92703e-46
6.41855e-54
3.62418e-53
2.21354e-52
1.42935e-55
1.14014e-54
2.00282e-53
1.69975e-54
4.03774e-54
1.67097e-54
2.46636e-55
7.83688e-56
1.49711e-55
2.83921e-56
3.172e-56
1.51427e-58
1.56092e-60
2.63197e-61
2.21507e-67
1.50927e-36
4.73691e-24
2.33397e-14
8.88781e-07
0.000315018
0.000984767
3.76476e-05
1.772e-06
3.01134e-08
2.9766e-09
5.66983e-08
0.000301166
0.020647
0.114178
0.0796671
0.124897
0.075069
0.118399
0.0700695
0.112063
0.0650533
0.0559476
0.0607008
0.015385
0.00347714
5.62323e-05
8.73573e-08
9.35778e-54
3.62327e-55
1.19713e-51
5.37533e-55
2.35987e-52
2.2234e-60
4.21721e-54
1.16096e-54
1.80912e-55
8.73154e-56
1.09657e-56
8.45176e-54
1.19196e-55
1.50616e-57
6.98486e-57
1.13019e-58
1.17344e-60
2.21119e-63
1.60254e-67
3.64932e-41
1.00338e-27
3.11417e-17
8.94264e-09
0.000225043
0.000703325
3.43489e-07
1.05289e-07
2.29662e-08
3.75869e-10
3.62483e-13
9.53681e-07
0.00126792
0.0607944
0.0745956
0.125952
0.0748671
0.121686
0.0717494
0.113714
0.0684178
0.0647438
0.0898863
0.0375258
0.023475
0.00220773
8.10781e-05
5.54348e-08
3.95147e-50
1.15504e-51
5.1019e-59
8.13042e-53
1.00514e-55
6.91117e-55
9.9987e-54
4.12151e-54
3.73293e-66
6.21157e-56
2.07882e-54
3.74133e-56
4.34893e-57
1.64232e-56
3.20102e-66
7.78558e-59
7.02487e-59
1.85212e-63
1.1125e-67
1.93374e-45
7.29286e-32
1.7925e-20
3.61629e-11
2.78649e-05
7.12894e-07
6.30675e-06
9.52115e-06
1.94682e-06
2.58535e-08
2.2363e-09
3.18588e-10
3.68338e-06
0.00929088
0.0539472
0.123366
0.074527
0.121352
0.073685
0.116183
0.0693941
0.111168
0.0644211
0.0891942
0.0370054
0.0229402
0.00213493
7.75253e-05
5.27001e-08
5.70023e-50
3.63417e-68
9.71157e-53
3.47294e-54
7.08919e-56
3.15571e-55
1.40746e-55
5.62162e-61
4.68777e-63
2.163e-54
3.58781e-62
3.13527e-55
5.48497e-57
7.57354e-57
5.68741e-57
6.58474e-58
1.5179e-59
8.51841e-64
1.02697e-74
9.37654e-51
1.49262e-36
3.92549e-24
6.09627e-14
7.97697e-07
0.000154034
0.000191321
0.000111685
1.71651e-06
3.39584e-08
1.77175e-09
4.83594e-09
1.61419e-08
0.000108707
0.0168838
0.104234
0.0742737
0.119721
0.0738208
0.119287
0.0706359
0.112904
0.0679586
0.104272
0.0546975
0.0582397
0.0143624
0.00313708
4.92491e-05
7.51471e-08
2.69935e-54
1.31992e-52
8.93525e-54
2.76714e-54
1.08643e-54
2.03797e-55
4.00532e-62
6.33438e-61
1.06419e-55
1.14806e-62
5.25128e-57
7.6499e-56
5.88039e-56
3.04173e-56
2.20271e-70
2.95269e-59
7.08588e-61
1.02432e-62
9.79967e-68
2.52319e-51
2.01341e-41
2.788e-28
4.08912e-17
6.33937e-09
0.000221997
0.000306281
4.48931e-07
4.31695e-07
1.30112e-11
2.06856e-07
7.92448e-14
1.35289e-09
3.5074e-12
0.000756044
0.0529373
0.0692461
0.119117
0.0727536
0.119811
0.072313
0.070239
0.112659
0.0677585
0.103707
0.0542631
0.0573969
0.0140136
0.00302406
4.70383e-05
7.1551e-08
7.35593e-52
3.391e-62
1.19953e-54
1.54407e-53
3.10625e-60
3.47059e-64
4.33909e-56
5.05971e-54
6.28983e-56
3.19711e-55
2.82768e-55
1.28491e-57
1.69167e-55
4.88806e-58
3.99418e-58
3.28279e-59
3.54656e-61
7.16963e-64
4.48364e-68
3.98142e-49
1.53183e-46
8.07932e-33
6.50721e-21
2.44232e-11
1.97345e-05
3.58622e-06
6.12141e-07
3.98882e-06
1.86944e-06
6.08595e-07
6.75084e-08
6.30236e-09
5.1354e-13
3.22045e-06
0.00388725
0.0795304
0.0710565
0.116957
0.0724863
0.118924
0.0717276
0.114109
0.0689425
0.110099
0.0634485
0.0869708
0.0354545
0.0212987
0.00191519
6.76311e-05
4.53953e-08
2.78026e-54
1.85419e-58
3.50847e-53
1.88041e-62
1.3776e-60
2.86142e-54
5.04115e-56
2.27738e-55
2.63958e-63
2.67799e-55
1.80174e-57
5.5809e-56
7.45403e-64
4.48341e-57
1.74591e-59
4.28242e-70
2.45205e-61
1.94027e-72
1.07539e-81
7.48637e-50
4.24206e-50
3.38188e-38
4.73177e-25
2.13747e-14
4.56561e-07
6.35822e-05
9.1918e-05
5.71388e-05
1.09745e-06
1.40393e-08
4.28958e-07
6.60355e-09
3.9771e-09
4.28105e-08
3.31239e-05
0.0227718
0.0604346
0.115755
0.0712096
0.118271
0.118
0.0711936
0.11367
0.0688254
0.109751
0.0631221
0.08623
0.0349201
0.0207576
0.00184812
6.46447e-05
4.32274e-08
2.22083e-53
5.27055e-57
4.40163e-55
5.2641e-56
8.02213e-54
1.03789e-55
2.86566e-56
5.7994e-55
6.12791e-56
2.37283e-63
3.09588e-54
3.03e-62
2.5983e-56
3.0045e-67
3.70516e-65
1.89503e-58
2.16357e-68
1.93099e-71
3.54246e-68
1.24561e-56
5.14557e-46
7.43712e-43
8.60635e-30
6.02452e-18
2.3377e-09
0.000111703
0.000156132
1.67505e-07
7.64923e-07
2.96947e-10
2.91863e-07
2.84427e-07
8.3756e-12
1.08304e-08
2.33409e-08
0.000667595
0.0321754
0.107967
0.0703159
0.116399
0.11766
0.0716705
0.115525
0.0694289
0.112075
0.0671257
0.102127
0.0529348
0.0547711
0.0130003
0.00271131
4.11328e-05
6.19138e-08
1.02881e-51
1.1381e-55
1.32253e-55
9.23589e-56
4.1788e-55
7.3249e-56
2.43712e-56
1.81938e-67
2.75457e-56
4.07801e-55
4.40527e-56
2.3924e-56
1.16061e-57
1.74852e-57
4.18174e-57
2.23947e-69
2.2487e-61
1.8328e-64
2.95668e-68
4.57876e-53
8.8431e-47
2.19881e-47
4.71288e-35
3.17544e-22
4.7176e-12
7.71528e-06
2.65511e-07
6.57979e-07
1.46455e-06
2.13064e-06
2.19828e-07
2.71401e-07
7.7923e-08
3.08594e-14
1.02379e-08
3.55044e-07
0.00640478
0.0486237
0.111697
0.0698631
0.0713231
0.116904
0.0712051
0.114863
0.0692438
0.111853
0.0669299
0.101653
0.0524926
0.0539284
0.0126769
0.00261598
3.94314e-05
5.91269e-08
1.37478e-53
1.09353e-54
3.51678e-58
5.51257e-56
1.50238e-56
1.12809e-55
1.07526e-56
6.74151e-57
2.52887e-55
7.81902e-57
2.54071e-55
1.69244e-67
5.76579e-58
1.89213e-57
5.39623e-58
4.178e-66
9.30289e-62
1.99877e-64
1.29866e-68
1.05384e-51
1.1881e-47
7.66534e-45
3.10675e-42
5.82763e-27
1.74149e-15
1.0876e-07
4.89877e-05
5.84668e-05
4.28035e-05
9.64473e-07
4.06955e-10
2.10255e-07
1.73569e-07
2.27509e-08
3.65339e-15
4.23851e-09
3.60368e-05
0.016759
0.0962932
0.0688462
0.0700528
0.1164
0.0710845
0.115604
0.0700303
0.112667
0.0684402
0.108732
0.062273
0.0840307
0.033356
0.0192384
0.00166275
5.68248e-05
3.7688e-08
8.85283e-56
2.4648e-55
3.41231e-56
4.74995e-56
4.89201e-57
5.56993e-56
1.26221e-56
3.59502e-55
1.65398e-55
5.10316e-57
3.7326e-64
8.63869e-63
5.99721e-57
7.49936e-59
5.48228e-60
6.11866e-60
6.91633e-62
1.57452e-64
9.49001e-69
7.98336e-52
8.1237e-48
6.56684e-45
3.72282e-42
2.8975e-32
1.07917e-19
4.23115e-10
3.12663e-05
8.21394e-05
2.89342e-07
2.20528e-07
7.22551e-09
1.43808e-07
8.76448e-08
1.62243e-07
5.62594e-08
9.67436e-10
9.76269e-13
0.00108302
0.0349683
0.105651
0.11223
0.0703535
0.115958
0.0706156
0.115002
0.0697255
0.112351
0.0683023
0.108412
0.0619983
0.083298
0.0328546
0.0187786
0.00160722
5.45453e-05
3.60707e-08
3.48742e-56
2.87492e-54
1.36872e-54
2.54865e-56
2.59492e-66
1.78753e-59
3.1622e-54
3.17276e-56
1.00847e-56
2.68204e-57
7.58952e-58
8.58201e-57
6.89848e-58
8.46766e-66
5.32535e-60
3.257e-60
9.08372e-62
1.24748e-63
1.71608e-67
3.38494e-53
2.16551e-49
5.40901e-46
3.84452e-44
8.46545e-40
2.11203e-24
2.37343e-13
1.68216e-06
3.40671e-09
3.02548e-06
1.10938e-06
1.89415e-06
3.75103e-08
6.97814e-08
1.13778e-07
5.6507e-08
1.01728e-08
2.19722e-10
3.90907e-07
0.00654844
0.0810694
0.10927
0.0689204
0.115261
0.0706134
0.114584
0.0700936
0.11324
0.0687072
0.111146
0.0663667
0.100245
0.0511945
0.0514785
0.0117917
0.00236328
3.48618e-05
5.18028e-08
1.68909e-54
9.49448e-58
9.96627e-56
1.56162e-60
5.85559e-56
2.10294e-54
1.40731e-55
8.16168e-55
7.92672e-62
1.40256e-57
7.39257e-58
3.0761e-64
3.71303e-58
2.72132e-59
7.88823e-59
2.97879e-60
7.41403e-62
8.02678e-65
1.1922e-67
8.84183e-53
2.23376e-52
2.54542e-47
3.1827e-52
1.24223e-40
1.04086e-29
1.92051e-17
1.59471e-08
2.281e-05
5.35028e-05
9.94543e-06
1.17337e-06
2.9736e-12
6.27658e-08
3.3249e-08
3.77823e-08
2.3953e-07
2.9251e-09
2.29518e-10
9.50825e-05
0.0216097
0.0597453
0.110294
0.0694182
0.11519
0.0702003
0.113869
0.0697168
0.112733
0.0685544
0.110919
0.0661788
0.0997849
0.0507815
0.0507022
0.0115214
0.00228717
3.35004e-05
4.96768e-08
1.59663e-54
1.18497e-54
4.05149e-56
2.19917e-55
1.06825e-54
2.96173e-55
2.42212e-54
1.84943e-57
2.1364e-63
2.67829e-62
1.51806e-58
5.52633e-66
1.78945e-58
2.82349e-57
1.69228e-60
4.18208e-65
9.39735e-69
1.10023e-63
2.95828e-76
4.21712e-51
4.5176e-51
1.19891e-48
9.22396e-45
2.7876e-42
6.23753e-36
6.58907e-22
1.60274e-11
7.57818e-06
7.12024e-06
4.86437e-07
8.7758e-13
8.42426e-08
2.73149e-08
1.82765e-08
3.26328e-08
2.48596e-07
1.10235e-07
2.04134e-09
3.40435e-11
0.00174215
0.0394043
0.10482
0.067912
0.11406
0.0703644
0.113817
0.0693776
0.113176
0.068836
0.111573
0.0678954
0.107471
0.0611793
0.0812021
0.0314469
0.0174868
0.00145753
4.84507e-05
3.17752e-08
2.63951e-53
6.00915e-57
1.41717e-59
1.26053e-54
4.9153e-55
1.7111e-54
4.93927e-57
5.96567e-58
5.32949e-66
2.37222e-57
2.76569e-58
7.41476e-65
1.74812e-57
3.7187e-58
1.27261e-60
1.87424e-60
1.19957e-70
3.92666e-65
2.68727e-69
3.49696e-51
4.74342e-50
2.10925e-52
1.28371e-43
2.31957e-43
5.11473e-40
2.39593e-27
1.90256e-15
2.23166e-07
1.75883e-06
1.08056e-05
2.28558e-06
8.22319e-07
2.91507e-10
2.58407e-08
5.60064e-09
7.38396e-08
7.85561e-08
1.69114e-07
8.69495e-11
4.14536e-06
0.0168481
0.0527782
0.10789
0.0684628
0.114685
0.0699789
0.113032
0.0690249
0.112625
0.0686062
0.111355
0.0677664
0.107165
0.0609108
0.0805334
0.0310002
0.0170856
0.00141287
4.66459e-05
3.05016e-08
7.84871e-56
4.02371e-56
3.40402e-56
1.38233e-54
7.86374e-56
8.25246e-65
4.52289e-56
1.54999e-64
4.27691e-63
1.05341e-61
1.86883e-58
1.85097e-56
1.66335e-58
1.31171e-63
1.22137e-68
9.28135e-67
2.5325e-62
5.37102e-63
3.23394e-69
1.72827e-52
2.4331e-49
8.60737e-49
7.18825e-44
5.57005e-43
3.18736e-42
1.44931e-33
8.35599e-20
3.20347e-10
1.05584e-05
2.07768e-05
7.85982e-07
7.36723e-07
5.07133e-10
1.34779e-08
3.87313e-09
1.79545e-08
3.26987e-08
2.67676e-07
4.39475e-08
4.74673e-12
0.000453515
0.0276757
0.0983424
0.0670129
0.112879
0.0701696
0.113438
0.0688449
0.112062
0.0687468
0.111551
0.0681772
0.110251
0.0656329
0.0984428
0.0495685
0.0485142
0.0107652
0.00208024
2.98968e-05
4.39726e-08
9.98899e-57
2.00224e-55
3.33947e-55
6.75772e-57
1.02615e-55
1.41872e-56
1.2736e-63
5.7205e-57
4.9984e-65
6.27915e-58
2.8121e-57
3.71411e-58
1.05219e-63
1.33642e-58
1.11333e-58
6.10287e-61
1.51354e-60
2.76905e-64
2.3294e-69
3.21916e-53
1.96255e-49
5.85913e-48
1.02026e-45
1.8158e-43
1.68978e-40
2.14894e-39
3.50103e-25
9.55033e-14
1.17015e-06
1.67818e-10
9.93708e-07
1.78547e-07
6.12548e-07
3.31579e-09
6.57726e-09
7.79488e-10
5.11852e-08
6.6437e-08
2.6603e-07
1.24617e-08
2.21535e-07
0.00413157
0.070743
0.0643644
0.109952
0.0697402
0.114108
0.0690343
0.11162
0.0684169
0.11169
0.0682383
0.110987
0.0675066
0.106558
0.0603895
0.0792154
0.0301425
0.0163371
0.00132871
2.88252e-05
4.22612e-08
2.40437e-58
9.08059e-55
6.43503e-57
6.70545e-57
5.58744e-59
3.11231e-61
6.16389e-62
5.95452e-62
2.04952e-62
6.55768e-58
6.45561e-59
2.82534e-59
5.56889e-59
1.19142e-59
5.53831e-59
1.37956e-59
8.08771e-63
3.26254e-64
1.0111e-69
3.02826e-52
4.71145e-50
6.16745e-48
1.42164e-50
3.44754e-43
6.10211e-40
1.66329e-38
4.40806e-31
5.98978e-18
3.95817e-09
1.21183e-05
1.52566e-05
6.85402e-06
2.02358e-07
1.87368e-14
6.95121e-09
5.11001e-11
3.31284e-08
1.51826e-08
1.81175e-07
1.34536e-07
9.97262e-09
3.67069e-05
0.0262456
0.0553106
0.107243
0.0683269
0.114304
0.0694964
0.111813
0.0680773
0.111126
0.0682686
0.111024
0.0679679
0.109818
0.06528
0.0975698
0.0487954
0.0471564
0.0103042
0.0012897
4.17623e-05
2.71154e-08
3.92978e-57
4.36277e-57
5.31503e-59
3.66677e-56
1.11866e-56
4.84078e-56
4.50538e-61
7.23883e-57
2.01664e-56
3.14565e-58
4.87757e-59
1.61958e-59
2.91219e-63
3.59704e-63
7.23622e-60
4.85051e-61
6.78791e-63
1.83599e-64
8.75436e-70
4.4897e-54
1.03507e-50
1.26194e-48
1.02676e-50
3.28122e-43
3.38346e-40
2.1261e-38
2.38692e-33
2.9117e-23
2.12854e-12
3.78486e-06
2.39356e-06
4.09712e-07
9.7829e-10
1.31689e-08
5.93028e-09
8.21985e-11
4.49811e-09
2.51492e-09
5.37604e-08
2.10689e-07
1.64856e-07
5.81942e-08
0.00176294
0.0340267
0.100039
0.0666714
0.112832
0.0699276
0.112581
0.0681041
0.110425
0.0679322
0.110996
0.0679601
0.110653
0.0672572
0.105966
0.0598802
0.077953
0.0293238
0.0156368
0.00125181
4.03208e-05
2.61535e-08
1.40378e-60
8.02666e-59
1.14556e-55
2.51866e-57
4.10699e-57
5.07589e-60
1.00722e-57
4.10046e-60
5.98489e-58
7.42463e-62
3.03162e-59
9.55222e-67
2.95708e-64
5.35084e-60
6.87907e-60
6.22403e-60
4.71104e-63
1.53943e-64
9.14999e-69
2.02201e-55
5.60902e-52
1.95056e-49
1.22466e-51
8.02185e-44
1.08528e-40
2.53687e-38
5.83892e-34
1.28232e-29
1.34115e-16
3.18429e-08
1.18201e-06
2.5072e-06
6.24997e-07
2.48674e-07
5.06698e-10
1.39922e-09
6.93488e-11
9.19879e-10
1.77304e-08
9.58806e-08
2.34444e-07
4.29758e-08
6.8998e-06
0.00832988
0.0780191
0.0644617
0.109874
0.0697869
0.113601
0.0684982
0.110319
0.0674555
0.110415
0.0679005
0.11061
0.0677839
0.109401
0.0649366
0.0967246
0.0480441
0.0458579
0.00987347
0.00184585
2.59563e-05
3.78389e-08
4.01531e-56
2.26569e-56
1.24079e-55
2.36617e-56
5.33334e-62
2.61353e-56
8.93636e-58
2.36406e-66
7.84825e-58
9.95683e-59
3.38891e-59
4.55518e-67
3.18806e-59
3.41955e-60
6.11422e-60
2.96781e-61
2.32609e-67
8.31104e-65
1.74453e-75
4.28468e-59
7.92618e-54
8.60821e-51
6.78729e-52
2.40455e-45
3.05347e-41
8.58359e-39
2.94894e-37
3.51041e-33
1.33595e-21
4.7763e-11
2.95573e-06
2.14705e-06
8.84213e-07
2.13654e-07
8.49457e-11
3.50041e-09
1.10382e-11
2.21982e-09
6.97926e-09
3.09773e-08
6.30822e-08
1.69265e-07
1.23155e-07
0.000244492
0.0372141
0.0575675
0.107055
0.0684655
0.114182
0.0691554
0.110842
0.067308
0.10952
0.0675458
0.110446
0.0677485
0.110355
0.0670167
0.105393
0.0593807
0.0476795
0.0452248
0.00967243
0.00179588
2.51049e-05
3.65111e-08
1.77022e-55
2.19377e-56
1.02648e-56
1.18394e-57
1.94282e-56
4.18042e-60
2.49579e-61
1.6259e-57
4.05363e-58
1.97849e-63
1.89617e-59
1.62315e-58
6.97483e-60
5.22407e-66
4.32386e-60
2.5118e-61
3.79807e-62
4.66197e-66
5.59574e-69
5.35191e-56
5.14011e-58
6.46341e-53
1.52124e-51
2.53149e-46
1.58427e-42
8.67753e-40
3.8302e-38
6.04018e-33
1.79068e-27
3.09702e-15
1.6969e-07
3.33312e-08
8.96187e-07
6.58369e-08
3.1844e-07
9.1345e-10
9.29742e-10
1.62223e-09
4.69757e-10
1.15629e-08
1.52592e-08
1.37887e-07
1.66761e-07
9.61123e-07
0.00499144
0.040023
0.101451
0.0665831
0.113167
0.0698169
0.111908
0.0675182
0.109146
0.0669735
0.10982
0.0676197
0.110291
0.0676156
0.109
0.0646009
0.0591366
0.0761187
0.0281723
0.0146878
0.00115166
3.6499e-05
2.35083e-08
2.36274e-56
2.43756e-60
2.26349e-55
1.56762e-56
2.06705e-58
3.82956e-62
3.12452e-58
2.27869e-58
2.14515e-58
1.43839e-57
3.22773e-58
3.91353e-58
7.26248e-60
1.8045e-60
1.59272e-60
1.70269e-61
2.01533e-63
4.99997e-66
3.84909e-69
3.5977e-55
2.6791e-55
1.35348e-53
7.65921e-55
8.21092e-48
1.14245e-43
6.1848e-41
3.58658e-38
1.08867e-33
9.8089e-31
2.71028e-20
3.46151e-10
2.7999e-06
2.99648e-06
3.81656e-06
1.95026e-07
1.18104e-11
4.44471e-10
3.05844e-09
4.86676e-11
3.66243e-09
6.21896e-09
3.11791e-08
1.50944e-07
8.97788e-08
6.77164e-05
0.0141316
0.0842851
0.0646276
0.110295
0.0699813
0.113238
0.0680672
0.109339
0.0666876
0.108788
0.0672338
0.110027
0.0675762
0.110077
0.0667908
0.104836
0.0588923
0.0755368
0.027821
0.0143949
0.00112095
3.53467e-05
2.26979e-08
1.43957e-57
2.55303e-60
1.22706e-57
1.28658e-57
9.16952e-62
3.76936e-62
2.96524e-57
1.22067e-58
1.88096e-58
1.02735e-57
2.2344e-58
4.50445e-59
7.19287e-60
1.77699e-60
1.4902e-67
2.52741e-67
1.27185e-63
5.11424e-65
2.79614e-70
5.37127e-57
3.13104e-54
4.2681e-54
8.38512e-57
2.38976e-55
5.69267e-45
1.13571e-41
6.65014e-39
5.67376e-35
1.5174e-30
3.67012e-26
5.61564e-14
2.91667e-07
1.81874e-09
6.27397e-07
1.4816e-09
2.41802e-08
8.37235e-10
1.9811e-10
9.76344e-10
1.13824e-09
2.06765e-09
5.48069e-09
7.15753e-08
1.14144e-07
6.11409e-07
0.000973653
0.048565
0.0594881
0.10721
0.0688057
0.114203
0.0688651
0.110101
0.0667139
0.10821
0.0665946
0.109344
0.0673859
0.110008
0.0674731
0.108639
0.0642761
0.0950865
0.0466294
0.0434817
0.00911781
0.00165564
2.27767e-05
3.28885e-08
2.61984e-57
5.4464e-57
2.80283e-59
4.64302e-60
3.95707e-63
6.93127e-64
2.76799e-57
1.00146e-57
1.46664e-58
6.06242e-57
1.54868e-63
4.83981e-59
8.20665e-65
4.52279e-65
2.55116e-65
5.297e-62
9.20179e-64
8.71379e-67
1.89949e-70
8.01651e-59
1.25051e-54
6.14697e-55
1.60846e-52
1.20729e-50
1.64987e-49
1.29221e-42
5.96352e-40
3.60054e-36
2.02659e-32
1.50839e-31
7.81325e-19
1.1644e-09
1.68903e-06
1.23084e-06
1.40669e-06
4.05851e-08
9.68878e-14
1.77816e-11
1.8832e-09
8.03668e-10
1.51025e-09
7.72891e-10
1.69377e-08
5.54446e-08
1.23547e-07
7.78308e-06
0.0108514
0.0454338
0.102706
0.0667194
0.113701
0.0696872
0.111362
0.0670597
0.108123
0.0662072
0.10822
0.0669677
0.109621
0.0674306
0.0674143
0.108462
0.0641187
0.0947009
0.0462917
0.0429268
0.00894474
0.00161175
2.206e-05
3.17805e-08
1.44185e-56
7.49639e-60
3.15883e-58
3.3744e-63
1.75047e-57
4.11783e-58
6.80974e-59
5.33218e-68
2.29417e-58
3.49721e-64
8.08594e-63
3.88912e-59
3.61133e-63
7.79914e-61
3.50603e-60
1.09836e-60
2.08326e-83
2.46091e-65
9.13642e-71
6.60411e-57
3.99168e-58
3.53231e-55
2.94797e-51
3.00881e-51
5.65222e-48
1.26172e-44
4.73084e-42
4.43853e-39
1.76826e-34
1.35005e-31
1.94342e-24
2.96731e-13
6.53782e-07
3.29307e-08
4.60943e-07
2.11454e-09
3.6962e-09
4.48833e-11
6.9164e-10
2.47894e-11
3.74492e-09
4.43126e-10
2.81131e-09
1.42462e-08
1.02103e-07
2.32836e-07
0.000347612
0.0210561
0.0896553
0.0648683
0.11094
0.0700783
0.112908
0.0677141
0.108539
0.066087
0.107499
0.0663074
0.108889
0.0671614
0.0673744
0.109774
0.0664789
0.104036
0.0581957
0.0738672
0.0267963
0.0135697
0.00103527
3.21077e-05
2.04599e-08
1.97271e-57
1.14864e-60
8.34168e-58
3.20109e-58
1.19681e-57
2.18559e-58
2.38074e-59
3.30759e-59
1.01173e-58
5.1705e-59
8.1807e-60
1.86558e-59
2.92182e-60
1.2901e-59
2.10612e-67
5.11895e-69
7.95411e-64
1.27429e-66
1.3825e-75
2.47033e-59
1.14113e-56
2.69227e-59
6.26784e-52
6.23691e-50
1.93771e-48
1.11586e-46
4.84589e-43
3.25382e-39
8.91887e-36
3.29667e-31
5.18087e-29
8.2089e-18
3.63247e-09
5.56126e-07
7.6564e-07