/*--------------------------------*- C++ -*----------------------------------*\
| =========                 |                                                 |
| \\      /  F ield         | OpenFOAM: The Open Source CFD Toolbox           |
|  \\    /   O peration     | Version:  v2012                                 |
|   \\  /    A nd           | Website:  www.openfoam.com                      |
|    \\/     M anipulation  |                                                 |
\*---------------------------------------------------------------------------*/
FoamFile
{
    version     2.0;
    format      ascii;
    class       volScalarField;
    location    "1901";
    object      k;
}
// * * * * * * * * * * * * * * * * * * * * * * * * * * * * * * * * * * * * * //

dimensions      [0 2 -2 0 0 0 0];


internalField   nonuniform List<scalar> 
8000
(
3.39059e-13
1.99979e-14
3.5442e-13
4.66208e-15
2.08335e-14
3.55563e-13
2.0607e-15
4.7634e-15
2.11342e-14
3.55599e-13
1.24781e-15
2.08492e-15
4.8584e-15
2.13913e-14
3.556e-13
1e-15
1.25763e-15
2.12201e-15
4.95722e-15
2.18761e-14
3.55601e-13
1e-15
1e-15
1.27608e-15
2.16763e-15
5.0817e-15
2.20557e-14
3.55601e-13
1e-15
1e-15
1e-15
1.30125e-15
2.22015e-15
5.16907e-15
2.20978e-14
3.55601e-13
1e-15
1e-15
1e-15
1e-15
1.33099e-15
2.26829e-15
5.24051e-15
2.21058e-14
3.55601e-13
1e-15
1e-15
1e-15
1e-15
1e-15
1.36164e-15
2.31255e-15
5.30368e-15
2.21073e-14
3.55601e-13
1e-15
1e-15
1e-15
1e-15
1e-15
1e-15
1.39172e-15
2.35343e-15
5.33754e-15
2.21076e-14
3.55601e-13
1e-15
1e-15
1e-15
1e-15
1e-15
1e-15
1.00214e-15
1.42046e-15
2.38673e-15
5.35091e-15
2.21076e-14
3.55601e-13
1e-15
1e-15
1e-15
1e-15
1e-15
1e-15
1e-15
1.0176e-15
1.44636e-15
2.41187e-15
5.35529e-15
2.21077e-14
3.55601e-13
1e-15
1e-15
1e-15
1e-15
1e-15
1e-15
1e-15
1e-15
1.03636e-15
1.46863e-15
2.42608e-15
5.35659e-15
2.21077e-14
3.55601e-13
1e-15
1e-15
1e-15
1e-15
1e-15
1e-15
1e-15
1e-15
1e-15
1.05466e-15
1.48585e-15
2.43241e-15
5.35697e-15
2.21077e-14
3.55601e-13
1e-15
1e-15
1e-15
1e-15
1e-15
1e-15
1e-15
1e-15
1e-15
1e-15
1.07059e-15
1.49661e-15
2.4348e-15
5.35708e-15
2.21077e-14
3.55601e-13
3.75276e-13
1e-15
1e-15
1e-15
1e-15
1e-15
1e-15
1e-15
1e-15
1e-15
1e-15
1.08276e-15
1.50192e-15
2.43562e-15
5.35711e-15
2.21077e-14
3.55601e-13
5.5656e-09
1.96399e-13
1e-15
1e-15
1e-15
1e-15
1e-15
1e-15
1e-15
1e-15
1e-15
1e-15
1.09027e-15
1.50411e-15
2.43589e-15
5.35712e-15
2.21077e-14
3.55601e-13
6.68856e-05
2.41707e-09
7.62325e-14
1e-15
1e-15
1e-15
1e-15
1e-15
1e-15
1e-15
1e-15
1e-15
1e-15
1.09397e-15
1.50492e-15
2.43598e-15
5.35713e-15
2.21077e-14
3.55601e-13
0.64648
2.30012e-05
8.19474e-10
2.75421e-14
1e-15
1e-15
1e-15
1e-15
1e-15
1e-15
1e-15
1e-15
1e-15
1e-15
1.09552e-15
1.50521e-15
2.43602e-15
5.35713e-15
2.21077e-14
3.55601e-13
0.16478
2884.07
7.07002e-06
2.83715e-10
1.11324e-14
1e-15
1e-15
1e-15
1e-15
1e-15
1e-15
1e-15
1e-15
1e-15
1e-15
1.09609e-15
1.50531e-15
2.43603e-15
5.35713e-15
2.21077e-14
3.55601e-13
0.04931
586.059
337.314
2.53915e-06
1.15445e-10
5.40396e-15
1e-15
1e-15
1e-15
1e-15
1e-15
1e-15
1e-15
1e-15
1e-15
1e-15
1.0963e-15
1.50534e-15
2.43603e-15
5.35713e-15
2.21077e-14
3.55601e-13
0.0193065
216.824
95.2628
114.99
1.11714e-06
5.36086e-11
3.04649e-15
1e-15
1e-15
1e-15
1e-15
1e-15
1e-15
1e-15
1e-15
1e-15
1e-15
1.09638e-15
1.50536e-15
2.43603e-15
5.35713e-15
2.21077e-14
3.55601e-13
0.00910609
103.265
82.3542
21.0074
64.1999
5.43659e-07
2.58647e-11
1.93542e-15
1e-15
1e-15
1e-15
1e-15
1e-15
1e-15
1e-15
1e-15
1e-15
1e-15
1.09641e-15
1.50536e-15
2.43603e-15
5.35713e-15
2.21077e-14
3.55601e-13
0.00456264
53.7897
70.0639
20.5374
10.3044
43.9812
2.67039e-07
1.21067e-11
1.3836e-15
1e-15
1e-15
1e-15
1e-15
1e-15
1e-15
1e-15
1e-15
1e-15
1e-15
1.09642e-15
1.50537e-15
2.43603e-15
5.35713e-15
2.21077e-14
3.55601e-13
0.0022629
28.4663
51.9227
33.5056
7.35624
6.86382
32.1199
1.25672e-07
5.1202e-12
1.11859e-15
1e-15
1e-15
1e-15
1e-15
1e-15
1e-15
1e-15
1e-15
1e-15
1e-15
1.09642e-15
1.50537e-15
2.43603e-15
5.35713e-15
2.21077e-14
3.55601e-13
0.00106805
14.6658
36.2251
39.1858
15.6823
4.11245
4.98999
25.0566
5.2969e-08
1.73843e-12
1.01573e-15
1e-15
1e-15
1e-15
1e-15
1e-15
1e-15
1e-15
1e-15
1e-15
1e-15
1.09643e-15
1.50537e-15
2.43603e-15
5.35713e-15
2.21077e-14
3.55601e-13
0.000448636
7.13842
24.6546
34.2178
28.4234
8.92732
2.9377
3.91656
20.4702
1.76047e-08
4.46958e-13
1e-15
1e-15
1e-15
1e-15
1e-15
1e-15
1e-15
1e-15
1e-15
1e-15
1e-15
1.09643e-15
1.50537e-15
2.43603e-15
5.35713e-15
2.21077e-14
3.55601e-13
0.000146261
3.08363
16.2816
25.7713
34.7955
20.0578
6.55994
2.5164
3.26318
17.385
4.37431e-09
8.14844e-14
1e-15
1e-15
1e-15
1e-15
1e-15
1e-15
1e-15
1e-15
1e-15
1e-15
1e-15
1.09643e-15
1.50537e-15
2.43603e-15
5.35713e-15
2.21077e-14
3.55601e-13
3.53247e-05
1.04367
10.2756
18.4624
30.4154
31.8017
16.1699
6.11439
2.55722
2.88064
15.3854
7.48377e-10
1.07867e-14
1e-15
1e-15
1e-15
1e-15
1e-15
1e-15
1e-15
1e-15
1e-15
1e-15
1e-15
1.09643e-15
1.50537e-15
2.43603e-15
5.35713e-15
2.21077e-14
3.55601e-13
5.75739e-06
0.253134
6.10547
12.9769
21.7544
38.1121
30.408
15.903
7.0547
3.01383
2.73907
14.227
8.41197e-11
1.80654e-15
1e-15
1e-15
1e-15
1e-15
1e-15
1e-15
1e-15
1e-15
1e-15
1e-15
1e-15
1.09643e-15
1.50537e-15
2.43603e-15
5.35713e-15
2.21077e-14
3.55601e-13
6.00552e-07
0.0401822
3.36126
8.9012
14.9203
31.4482
44.0056
32.7707
19.0715
9.39988
4.11866
2.88373
13.709
6.42658e-12
1.03768e-15
1e-15
1e-15
1e-15
1e-15
1e-15
1e-15
1e-15
1e-15
1e-15
1e-15
1e-15
1.09643e-15
1.50537e-15
2.43603e-15
5.35713e-15
2.21077e-14
3.55601e-13
4.19578e-08
0.00395225
1.70499
5.87829
10.3777
20.5851
48.1066
52.6469
41.273
26.0285
14.1736
6.4869
3.38672
13.7626
4.22395e-13
1e-15
1e-15
1e-15
1e-15
1e-15
1e-15
1e-15
1e-15
1e-15
1e-15
1e-15
1e-15
1.09643e-15
1.50537e-15
2.43603e-15
5.35713e-15
2.21077e-14
3.55601e-13
2.72879e-09
0.000256236
0.770225
3.67704
7.25522
12.9295
35.0596
71.8774
71.0274
57.6064
39.8488
23.8944
11.0025
4.15878
14.2847
3.51541e-14
1e-15
1e-15
1e-15
1e-15
1e-15
1e-15
1e-15
1e-15
1e-15
1e-15
1e-15
1e-15
1.09643e-15
1.50537e-15
2.43603e-15
5.35713e-15
2.21077e-14
3.55601e-13
2.47293e-10
1.70689e-05
0.276219
2.15737
4.96804
8.50704
20.2296
65.5842
107.737
102.894
89.2927
67.7282
42.2449
17.6853
5.39534
15.1316
3.78379e-15
1e-15
1e-15
1e-15
1e-15
1e-15
1e-15
1e-15
1e-15
1e-15
1e-15
1e-15
1e-15
1.09643e-15
1.50537e-15
2.43603e-15
5.35713e-15
2.21077e-14
3.55601e-13
2.09366e-11
1.72955e-06
0.0711867
1.16588
3.2708
5.80274
11.517
39.7359
120.867
160.29
162.862
152.362
120.1
70.0462
26.8237
6.64107
15.728
1.14362e-15
1e-15
1e-15
1e-15
1e-15
1e-15
1e-15
1e-15
1e-15
1e-15
1e-15
1e-15
1e-15
1.09643e-15
1.50537e-15
2.43603e-15
5.35713e-15
2.21077e-14
3.55601e-13
1.1337e-12
1.48074e-07
0.0115936
0.57451
2.03705
3.9701
7.08402
19.949
88.0317
210.495
256.683
279.343
268.744
199.749
107.008
35.6866
7.55131
16.1093
1e-15
1e-15
1e-15
1e-15
1e-15
1e-15
1e-15
1e-15
1e-15
1e-15
1e-15
1e-15
1e-15
1.09643e-15
1.50537e-15
2.43603e-15
5.35713e-15
2.21077e-14
3.55601e-13
4.36793e-14
7.55384e-09
0.00104497
0.256875
1.1832
2.64541
4.65163
10.3152
43.8873
188.842
361.321
437.746
486.293
441.731
302.687
142.71
42.1861
8.06869
16.1997
1e-15
1e-15
1e-15
1e-15
1e-15
1e-15
1e-15
1e-15
1e-15
1e-15
1e-15
1e-15
1e-15
1.09643e-15
1.50537e-15
2.43603e-15
5.35713e-15
2.21077e-14
3.55601e-13
2.58666e-15
2.69038e-10
5.03021e-05
0.0987923
0.638193
1.68889
3.11208
5.94292
19.3245
107.765
372.147
618.217
742.319
776.974
654.104
400.391
168.81
45.8496
8.33983
16.122
1e-15
1e-15
1e-15
1e-15
1e-15
1e-15
1e-15
1e-15
1e-15
1e-15
1e-15
1e-15
1e-15
1.09643e-15
1.50537e-15
2.43603e-15
5.35713e-15
2.21077e-14
3.55601e-13
1.04285e-15
1.0468e-11
1.70938e-06
0.0283627
0.31749
1.01948
2.05164
3.73069
9.16724
45.3665
255.028
670.504
1009.53
1135.77
1107.68
846.387
470.642
183.571
47.8823
8.41473
15.8753
1e-15
1e-15
1e-15
1e-15
1e-15
1e-15
1e-15
1e-15
1e-15
1e-15
1e-15
1e-15
1e-15
1.09643e-15
1.50537e-15
2.43603e-15
5.35713e-15
2.21077e-14
3.55601e-13
1e-15
3.83561e-13
7.18293e-08
0.00499219
0.142958
0.576244
1.30896
2.41719
4.95587
18.1489
116.302
524.641
1085.03
1461.92
1547.41
1385.38
979.122
510.165
191.718
48.5548
8.37693
15.5385
1e-15
1e-15
1e-15
1e-15
1e-15
1e-15
1e-15
1e-15
1e-15
1e-15
1e-15
1e-15
1e-15
1.09643e-15
1.50537e-15
2.43603e-15
5.35713e-15
2.21077e-14
3.55601e-13
1e-15
1.03121e-14
2.68267e-09
0.000451261
0.0571142
0.301068
0.79595
1.55856
2.96353
8.04248
43.0519
277.86
905.37
1542.56
1888.57
1864.8
1567.26
1052.3
531.586
194.405
48.5183
8.26693
15.1717
1e-15
1e-15
1e-15
1e-15
1e-15
1e-15
1e-15
1e-15
1e-15
1e-15
1e-15
1e-15
1e-15
1.09643e-15
1.50537e-15
2.43603e-15
5.35713e-15
2.21077e-14
3.55601e-13
1e-15
1.16368e-15
6.12239e-11
1.88725e-05
0.0189638
0.144047
0.457541
0.976082
1.85422
4.09278
16.1541
106.217
554.01
1339.61
1951.71
2194.39
2064.17
1665.67
1090.48
538.413
194.226
48.011
8.108
14.758
1e-15
1e-15
1e-15
1e-15
1e-15
1e-15
1e-15
1e-15
1e-15
1e-15
1e-15
1e-15
1e-15
1.09643e-15
1.50537e-15
2.43603e-15
5.35713e-15
2.21077e-14
3.55601e-13
1e-15
1e-15
1.1183e-12
4.01175e-07
0.00445513
0.0626897
0.245685
0.586358
1.16149
2.32337
6.78459
36.3668
237.267
923.131
1738.49
2236.98
2384.53
2169.74
1714.02
1101.88
537.628
192.169
47.1534
7.92734
14.3327
1e-15
1e-15
1e-15
1e-15
1e-15
1e-15
1e-15
1e-15
1e-15
1e-15
1e-15
1e-15
1e-15
1.09643e-15
1.50537e-15
2.43603e-15
5.35713e-15
2.21077e-14
3.55601e-13
1e-15
1e-15
2.02149e-14
7.25015e-09
0.000588006
0.0242986
0.122242
0.335386
0.70892
1.39638
3.27128
13.1475
80.2543
467.158
1306.63
2029.52
2424.38
2486.33
2219.95
1728.38
1099.73
531.916
188.72
46.1756
7.73515
13.9242
1e-15
1e-15
1e-15
1e-15
1e-15
1e-15
1e-15
1e-15
1e-15
1e-15
1e-15
1e-15
1e-15
1.09643e-15
1.50537e-15
2.43603e-15
5.35713e-15
2.21077e-14
3.55601e-13
1e-15
1e-15
1.23662e-15
1.29848e-10
3.53162e-05
0.00804745
0.0554982
0.180801
0.416068
0.846201
1.77196
5.32586
26.4665
172.137
774.994
1633.75
2240.33
2543.67
2538.14
2235.77
1725.58
1088.83
522.591
184.791
45.1199
7.5506
13.5452
1e-15
1e-15
1e-15
1e-15
1e-15
1e-15
1e-15
1e-15
1e-15
1e-15
1e-15
1e-15
1e-15
1.09643e-15
1.50537e-15
2.43603e-15
5.35713e-15
2.21077e-14
3.55601e-13
1e-15
1e-15
1e-15
1.61875e-12
8.65517e-07
0.00202159
0.0228117
0.0912838
0.232661
0.501301
1.02411
2.47168
9.40743
54.8134
334.441
1100.71
1878.57
2393.56
2617.88
2559.5
2234.23
1711.61
1071.62
512.015
180.56
44.107
7.36552
13.1599
1e-15
1e-15
1e-15
1e-15
1e-15
1e-15
1e-15
1e-15
1e-15
1e-15
1e-15
1e-15
1e-15
1.09643e-15
1.50537e-15
2.43603e-15
5.35713e-15
2.21077e-14
3.55601e-13
1e-15
1e-15
1e-15
1.74252e-14
1.03597e-08
0.000305187
0.00834004
0.042658
0.12394
0.285202
0.599709
1.29326
3.75375
17.7553
111.607
571.692
1394.36
2074.39
2504.07
2661.56
2564.91
2220.73
1689.72
1052.22
500.675
176.502
43.0591
7.16888
12.7808
1e-15
1e-15
1e-15
1e-15
1e-15
1e-15
1e-15
1e-15
1e-15
1e-15
1e-15
1e-15
1e-15
1.09643e-15
1.50537e-15
2.43603e-15
5.35713e-15
2.21077e-14
3.55601e-13
1e-15
1e-15
1e-15
1.12566e-15
1.04459e-10
2.11466e-05
0.00262506
0.0181504
0.0621791
0.155326
0.343406
0.723522
1.72227
6.21553
34.7617
218.128
854.363
1637.15
2229.17
2582.34
2687.19
2558.18
2198.96
1665.1
1031.53
489.781
172.303
41.9276
6.97363
12.4188
1e-15
1e-15
1e-15
1e-15
1e-15
1e-15
1e-15
1e-15
1e-15
1e-15
1e-15
1e-15
1e-15
1.09643e-15
1.50537e-15
2.43603e-15
5.35713e-15
2.21077e-14
3.55601e-13
1e-15
1e-15
1e-15
1e-15
8.96622e-13
5.51085e-07
0.000638409
0.00693353
0.0292794
0.0804209
0.189453
0.40969
0.888546
2.46151
11.1164
69.5865
396.419
1130.35
1834.48
2350.91
2638.84
2699.58
2543.11
2174.29
1638.88
1011.54
478.515
167.767
40.8004
6.78173
12.0772
1e-15
1e-15
1e-15
1e-15
1e-15
1e-15
1e-15
1e-15
1e-15
1e-15
1e-15
1e-15
1e-15
1.09643e-15
1.50537e-15
2.43603e-15
5.35713e-15
2.21077e-14
3.55601e-13
1e-15
1e-15
1e-15
1e-15
6.93881e-15
5.57882e-09
9.47392e-05
0.00234616
0.0127314
0.0396944
0.0997537
0.22717
0.486063
1.12968
3.85259
21.4832
141.806
632.265
1372.99
2001.65
2447.04
2678.8
2702.19
2524.85
2147.85
1613.27
990.823
466.313
163.251
39.6816
6.59854
11.7495
1e-15
1e-15
1e-15
1e-15
1e-15
1e-15
1e-15
1e-15
1e-15
1e-15
1e-15
1e-15
1e-15
1.09643e-15
1.50537e-15
2.43603e-15
5.35713e-15
2.21077e-14
3.55601e-13
1e-15
1e-15
1e-15
1e-15
1.01617e-15
3.60019e-11
6.29789e-06
0.000678668
0.00502084
0.0184875
0.0501903
0.121114
0.267719
0.579045
1.53274
6.75472
45.4208
269.404
883.3
1578.15
2141.26
2522.41
2706.03
2699.66
2504.54
2121.65
1586.52
968.187
454.157
158.77
38.6094
6.41875
11.4315
1e-15
1e-15
1e-15
1e-15
1e-15
1e-15
1e-15
1e-15
1e-15
1e-15
1e-15
1e-15
1e-15
1.09643e-15
1.50537e-15
2.43603e-15
5.35713e-15
2.21077e-14
3.55601e-13
1e-15
1e-15
1e-15
1e-15
1e-15
2.0158e-13
1.45422e-07
0.000149439
0.00176381
0.00806499
0.0240331
0.0617895
0.14379
0.311167
0.708804
2.32113
13.9521
94.6062
453.07
1119.23
1754.88
2257.29
2581.2
2725.2
2693.55
2483.73
2094.05
1556.82
945.545
442.085
154.475
37.5501
6.24793
11.1359
1e-15
1e-15
1e-15
1e-15
1e-15
1e-15
1e-15
1e-15
1e-15
1e-15
1e-15
1e-15
1e-15
1.09643e-15
1.50537e-15
2.43603e-15
5.35713e-15
2.21077e-14
3.55601e-13
1e-15
1e-15
1e-15
1e-15
1e-15
1.87202e-15
1.14608e-09
1.9288e-05
0.000543389
0.00324335
0.0109719
0.0300445
0.0742866
0.166811
0.361659
0.929412
4.28008
30.7011
183.304
671.241
1330.18
1910.1
2353.2
2628
2738.54
2685.19
2461.01
2064.41
1526.86
922.956
430.488
150.232
36.5513
6.08735
10.8555
1e-15
1e-15
1e-15
1e-15
1e-15
1e-15
1e-15
1e-15
1e-15
1e-15
1e-15
1e-15
1e-15
1.09643e-15
1.50537e-15
2.43603e-15
5.35713e-15
2.21077e-14
3.55601e-13
1e-15
1e-15
1e-15
1e-15
1e-15
1e-15
5.02518e-12
1.03343e-06
0.000140535
0.00117066
0.004725
0.0139639
0.0366547
0.0869266
0.190572
0.431727
1.4401
9.36345
65.0202
320.49
893.416
1514.54
2044.13
2432.84
2665.81
2747.42
2673.67
2436.03
2034.02
1496.71
901.121
419.026
146.233
35.609
5.93114
10.5864
1e-15
1e-15
1e-15
1e-15
1e-15
1e-15
1e-15
1e-15
1e-15
1e-15
1e-15
1e-15
1e-15
1.09643e-15
1.50537e-15
2.43603e-15
5.35713e-15
2.21077e-14
3.55601e-13
1e-15
1e-15
1e-15
1e-15
1e-15
1e-15
1.92245e-14
1.73192e-08
2.63617e-05
0.000372747
0.00190161
0.0061788
0.0172788
0.0434714
0.0993401
0.217878
0.570335
2.81841
21.4151
126.566
499.244
1101.36
1679.22
2159.3
2499.67
2696.28
2751.51
2658.84
2409.63
2002.94
1467.28
879.479
408.202
142.459
34.6848
5.78382
10.3321
1e-15
1e-15
1e-15
1e-15
1e-15
1e-15
1e-15
1e-15
1e-15
1e-15
1e-15
1e-15
1e-15
1.09643e-15
1.50537e-15
2.43603e-15
5.35713e-15
2.21077e-14
3.55601e-13
1e-15
1e-15
1e-15
1e-15
1e-15
1e-15
1.03521e-15
9.2377e-11
2.63014e-06
0.000102524
0.00070066
0.00260943
0.00776298
0.0207909
0.05011
0.112029
0.261298
0.923535
6.51599
45.4741
225.767
698.978
1290.5
1827.07
2258.57
2555.67
2719.79
2750.78
2641.41
2381.91
1972.12
1437.95
858.939
397.966
138.757
33.8183
5.64188
10.0875
1e-15
1e-15
1e-15
1e-15
1e-15
1e-15
1e-15
1e-15
1e-15
1e-15
1e-15
1e-15
1e-15
1.09643e-15
1.50537e-15
2.43603e-15
5.35713e-15
2.21077e-14
3.55601e-13
1e-15
1e-15
1e-15
1e-15
1e-15
1e-15
1e-15
2.79999e-13
9.54988e-08
2.27489e-05
0.000228596
0.0010369
0.00333902
0.00948222
0.0242613
0.0565355
0.128675
0.354885
1.93552
15.041
88.5497
366.158
898.479
1460.75
1958.61
2343.62
2602.03
2736.73
2746
2621.65
2353.84
1941.17
1409.91
839.389
387.92
135.287
32.9782
5.50508
9.85439
1e-15
1e-15
1e-15
1e-15
1e-15
1e-15
1e-15
1e-15
1e-15
1e-15
1e-15
1e-15
1e-15
1.09643e-15
1.50537e-15
2.43603e-15
5.35713e-15
2.21077e-14
3.55601e-13
1e-15
1e-15
1e-15
1e-15
1e-15
1e-15
1e-15
1.66847e-15
9.55957e-10
3.31241e-06
6.49818e-05
0.000382494
0.00136744
0.00413525
0.0112249
0.0275553
0.0639612
0.157338
0.614832
4.55705
32.0497
159.573
537.474
1086.31
1617.39
2074.09
2416.15
2639.65
2747.93
2737.6
2600.56
2325.23
1911.26
1382.95
820.143
378.483
131.923
32.1683
5.37522
9.63157
1e-15
1e-15
1e-15
1e-15
1e-15
1e-15
1e-15
1e-15
1e-15
1e-15
1e-15
1e-15
1e-15
1.09643e-15
1.50537e-15
2.43603e-15
5.35713e-15
2.21077e-14
3.55601e-13
1e-15
1e-15
1e-15
1e-15
1e-15
1e-15
1e-15
1e-15
3.1037e-12
2.18181e-07
1.55487e-05
0.000127455
0.000533389
0.00172036
0.0049664
0.0128843
0.031071
0.0746862
0.225288
1.33658
10.5391
62.556
266.196
721.6
1259.98
1760.03
2174.95
2477.53
2669.6
2754.01
2726.64
2578.27
2297.23
1882.11
1356.26
801.97
369.324
128.68
31.4007
5.24859
9.41588
1e-15
1e-15
1e-15
1e-15
1e-15
1e-15
1e-15
1e-15
1e-15
1e-15
1e-15
1e-15
1e-15
1.09643e-15
1.50537e-15
2.43603e-15
5.35713e-15
2.21077e-14
3.55601e-13
1e-15
1e-15
1e-15
1e-15
1e-15
1e-15
1e-15
1e-15
7.4079e-15
4.35707e-09
2.77876e-06
3.70948e-05
0.000194657
0.000685167
0.0020977
0.00577356
0.0145581
0.0356848
0.0947075
0.411655
3.16512
22.6001
113.438
407.06
903.924
1419.8
1888.63
2262.48
2528.98
2692.66
2756.05
2713.59
2555.88
2269.48
1853.02
1330.86
784.263
360.487
125.605
30.6476
5.12583
9.21053
1e-15
1e-15
1e-15
1e-15
1e-15
1e-15
1e-15
1e-15
1e-15
1e-15
1e-15
1e-15
1e-15
1.09643e-15
1.50537e-15
2.43603e-15
5.35713e-15
2.21077e-14
3.55601e-13
1e-15
1e-15
1e-15
1e-15
1e-15
1e-15
1e-15
1e-15
1e-15
2.17116e-11
2.74476e-07
9.22236e-06
6.53084e-05
0.000259893
0.000847764
0.00247512
0.00655624
0.01663
0.0427291
0.143083
0.914516
7.35437
44.3889
192.56
570.849
1076.84
1569.58
2003.08
2337.83
2571.43
2709.96
2754.8
2699.5
2533
2241.45
1825.05
1305.96
767.119
352.092
122.589
29.9172
5.00838
9.01299
1e-15
1e-15
1e-15
1e-15
1e-15
1e-15
1e-15
1e-15
1e-15
1e-15
1e-15
1e-15
1e-15
1.09643e-15
1.50537e-15
2.43603e-15
5.35713e-15
2.21077e-14
3.55601e-13
1e-15
1e-15
1e-15
1e-15
1e-15
1e-15
1e-15
1e-15
1e-15
4.36156e-14
9.72069e-09
1.83944e-06
1.92964e-05
9.3214e-05
0.000327607
0.00101579
0.00283414
0.00747418
0.0194573
0.0565419
0.273101
2.1859
15.8567
80.9573
304.36
742.357
1238.3
1707.93
2103.9
2402
2606.13
2722.53
2751.34
2684.07
2509.31
2214.19
1797.4
1281.71
750.746
343.848
119.663
29.2174
4.89425
8.82327
1e-15
1e-15
1e-15
1e-15
1e-15
1e-15
1e-15
1e-15
1e-15
1e-15
1e-15
1e-15
1e-15
1.09643e-15
1.50537e-15
2.43603e-15
5.35713e-15
2.21077e-14
3.55601e-13
1e-15
1e-15
1e-15
1e-15
1e-15
1e-15
1e-15
1e-15
1e-15
1.03941e-15
8.46808e-11
2.38732e-07
4.88882e-06
3.10538e-05
0.000120851
0.000398914
0.00117618
0.00322857
0.00866279
0.0240494
0.090082
0.621684
5.08204
31.4261
138.859
444.282
910.995
1391.14
1833.52
2191.7
2456.28
2634.36
2731.47
2745.48
2667.14
2485.85
2186.94
1770.28
1258.36
734.607
335.842
116.861
28.5354
4.78686
8.64505
1e-15
1e-15
1e-15
1e-15
1e-15
1e-15
1e-15
1e-15
1e-15
1e-15
1e-15
1e-15
1e-15
1.09643e-15
1.50537e-15
2.43603e-15
5.35713e-15
2.21077e-14
3.55601e-13
1e-15
1e-15
1e-15
1e-15
1e-15
1e-15
1e-15
1e-15
1e-15
1e-15
1.96596e-13
1.33655e-08
1.02617e-06
9.31047e-06
4.24725e-05
0.000149739
0.00046819
0.00134023
0.00372399
0.0103867
0.0333825
0.179898
1.49018
11.0184
57.6248
224.943
601.047
1072.88
1535.37
1945.53
2267.63
2502.13
2657.29
2736.82
2737.25
2649.74
2461.96
2159.98
1743.88
1235.2
718.87
328.161
114.129
27.898
4.68533
8.47383
1e-15
1e-15
1e-15
1e-15
1e-15
1e-15
1e-15
1e-15
1e-15
1e-15
1e-15
1e-15
1e-15
1.09643e-15
1.50537e-15
2.43603e-15
5.35713e-15
2.21077e-14
3.55601e-13
1e-15
1e-15
1e-15
1e-15
1e-15
1e-15
1e-15
1e-15
1e-15
1e-15
1.24361e-15
2.02782e-10
1.53911e-07
2.39351e-06
1.39597e-05
5.37922e-05
0.000178485
0.000535406
0.00154119
0.00440401
0.013344
0.0562484
0.416434
3.46122
21.9715
99.9072
340.743
762.97
1226.09
1669.1
2044.5
2333.12
2540.79
2675.27
2738.78
2727.66
2631.36
2437.96
2133.42
1717.48
1212.47
703.715
320.673
111.577
27.2943
4.58574
8.30718
1e-15
1e-15
1e-15
1e-15
1e-15
1e-15
1e-15
1e-15
1e-15
1e-15
1e-15
1e-15
1e-15
1.09643e-15
1.50537e-15
2.43603e-15
5.35713e-15
2.21077e-14
3.55601e-13
1e-15
1e-15
1e-15
1e-15
1e-15
1e-15
1e-15
1e-15
1e-15
1e-15
1e-15
6.64129e-13
1.181e-08
5.15541e-07
4.18084e-06
1.84089e-05
6.51589e-05
0.000205757
0.000613802
0.00180861
0.00545272
0.0194912
0.116736
0.9968
7.50222
40.8421
164.971
479.905
922.03
1373.06
1790.59
2131.36
2389.36
2572.93
2688.69
2738.37
2716.42
2612.37
2413.92
2106.6
1691.38
1190.45
688.906
313.665
109.159
26.6983
4.49004
8.14749
1e-15
1e-15
1e-15
1e-15
1e-15
1e-15
1e-15
1e-15
1e-15
1e-15
1e-15
1e-15
1e-15
1.09643e-15
1.50537e-15
2.43603e-15
5.35713e-15
2.21077e-14
3.55601e-13
1e-15
1e-15
1e-15
1e-15
1e-15
1e-15
1e-15
1e-15
1e-15
1e-15
1e-15
1.80946e-15
2.82521e-10
8.56418e-08
1.08595e-06
5.92404e-06
2.27761e-05
7.60382e-05
0.000235394
0.000716699
0.00219889
0.00729214
0.0346278
0.272619
2.29848
15.1776
71.7058
258.121
631.39
1074.88
1511.73
1899.47
2207.01
2437.35
2599.18
2698.58
2735.49
2703.91
2592.77
2389.26
2079.86
1665.88
1168.85
674.99
307.015
106.772
26.128
4.39784
7.99212
1e-15
1e-15
1e-15
1e-15
1e-15
1e-15
1e-15
1e-15
1e-15
1e-15
1e-15
1e-15
1e-15
1.09643e-15
1.50537e-15
2.43603e-15
5.35713e-15
2.21077e-14
3.55601e-13
1e-15
1e-15
1e-15
1e-15
1e-15
1e-15
1e-15
1e-15
1e-15
1e-15
1e-15
1e-15
1.41036e-12
8.19794e-09
2.36056e-07
1.75984e-06
7.57265e-06
2.7014e-05
8.70971e-05
0.000273799
0.000861307
0.00280955
0.0112135
0.0739039
0.647529
5.02544
28.7206
120.537
377.672
785.16
1221.37
1640.91
1995.9
2272.67
2477.94
2620.6
2705.09
2730.59
2690.15
2572.16
2364.38
2053.55
1640.79
1148.43
661.726
300.448
104.488
25.5777
4.307
7.84038
1e-15
1e-15
1e-15
1e-15
1e-15
1e-15
1e-15
1e-15
1e-15
1e-15
1e-15
1e-15
1e-15
1.09643e-15
1.50537e-15
2.43603e-15
5.35713e-15
2.21077e-14
3.55601e-13
1e-15
1e-15
1e-15
1e-15
1e-15
1e-15
1e-15
1e-15
1e-15
1e-15
1e-15
1e-15
2.85478e-15
2.8381e-10
4.06594e-08
4.57059e-07
2.39453e-06
9.17472e-06
3.11176e-05
0.000100873
0.000325959
0.0010751
0.00391727
0.0208216
0.172916
1.49819
10.3463
51.3664
193.374
515.467
936.407
1363.28
1757.94
2080.89
2329.27
2512.21
2637.57
2708.73
2723.82
2674.88
2551.08
2339.63
2027.52
1616.89
1128.82
648.601
294.157
102.283
25.0335
4.21927
7.69257
1e-15
1e-15
1e-15
1e-15
1e-15
1e-15
1e-15
1e-15
1e-15
1e-15
1e-15
1e-15
1e-15
1.09643e-15
1.50537e-15
2.43603e-15
5.35713e-15
2.21077e-14
3.55601e-13
1e-15
1e-15
1e-15
1e-15
1e-15
1e-15
1e-15
1e-15
1e-15
1e-15
1e-15
1e-15
1e-15
2.15315e-12
4.49897e-09
1.00256e-07
6.99539e-07
2.98708e-06
1.06961e-05
3.58857e-05
0.000119066
0.000400941
0.00141957
0.00630981
0.0453532
0.412051
3.31836
20.0297
87.6452
292.82
662.148
1082.1
1497.05
1863.16
2155.21
2377.9
2540.8
2650.71
2709.82
2715.02
2658.7
2529.73
2314.99
2002.58
1593.74
1109.36
635.989
288.079
100.104
24.5098
4.13213
7.54717
1e-15
1e-15
1e-15
1e-15
1e-15
1e-15
1e-15
1e-15
1e-15
1e-15
1e-15
1e-15
1e-15
1.09643e-15
1.50537e-15
2.43603e-15
5.35713e-15
2.21077e-14
3.55601e-13
1e-15
1e-15
1e-15
1e-15
1e-15
1e-15
1e-15
1e-15
1e-15
1e-15
1e-15
1e-15
1e-15
4.34444e-15
2.04511e-10
1.77971e-08
1.82739e-07
9.22046e-07
3.53754e-06
1.23098e-05
4.20277e-05
0.000144688
0.000514739
0.00205653
0.0121779
0.107263
0.962923
6.96452
36.5148
143.453
415.205
809.436
1223.99
1621.42
1956.54
2219.86
2419.45
2564.45
2660.47
2708.31
2704.76
2641.79
2508.2
2291.21
1978.21
1570.67
1090.56
623.764
282.068
98.0067
23.9865
4.04469
7.40536
1e-15
1e-15
1e-15
1e-15
1e-15
1e-15
1e-15
1e-15
1e-15
1e-15
1e-15
1e-15
1e-15
1.09643e-15
1.50537e-15
2.43603e-15
5.35713e-15
2.21077e-14
3.55601e-13
1e-15
1e-15
1e-15
1e-15
1e-15
1e-15
1e-15
1e-15
1e-15
1e-15
1e-15
1e-15
1e-15
1e-15
2.23198e-12
2.14865e-09
4.00595e-08
2.64641e-07
1.12001e-06
4.07941e-06
1.43238e-05
5.04849e-05
0.000182774
0.000699616
0.00346795
0.0272156
0.258417
2.15987
13.7667
63.3
224.152
551.874
953.983
1360.67
1733.95
2038.8
2275.9
2454.78
2583.75
2666.93
2704.71
2693.22
2624.35
2487.22
2267.74
1953.81
1548.28
1072.24
611.651
276.277
95.9106
23.4585
3.96015
7.26758
1e-15
1e-15
1e-15
1e-15
1e-15
1e-15
1e-15
1e-15
1e-15
1e-15
1e-15
1e-15
1e-15
1.09643e-15
1.50537e-15
2.43603e-15
5.35713e-15
2.21077e-14
3.55601e-13
1e-15
1e-15
1e-15
1e-15
1e-15
1e-15
1e-15
1e-15
1e-15
1e-15
1e-15
1e-15
1e-15
1e-15
5.37987e-15
1.1927e-10
7.09871e-09
6.82296e-08
3.36925e-07
1.30459e-06
4.71826e-06
1.70337e-05
6.29782e-05
0.000239987
0.00105646
0.00697802
0.0654781
0.608957
4.60537
25.6332
105.765
329.766
693.77
1094.01
1489.74
1834.86
2110.97
2324.28
2484.62
2598.93
2670.6
2699.22
2680.71
2607.1
2466.23
2244.08
1930
1526.31
1054.04
599.949
270.483
93.7954
22.9493
3.87752
7.13183
1e-15
1e-15
1e-15
1e-15
1e-15
1e-15
1e-15
1e-15
1e-15
1e-15
1e-15
1e-15
1e-15
1.09643e-15
1.50537e-15
2.43603e-15
5.35713e-15
2.21077e-14
3.55601e-13
1e-15
1e-15
1e-15
1e-15
1e-15
1e-15
1e-15
1e-15
1e-15
1e-15
1e-15
1e-15
1e-15
1e-15
1e-15
1.747e-12
9.0711e-10
1.49531e-08
9.48127e-08
4.00912e-07
1.50286e-06
5.56859e-06
2.09867e-05
8.10942e-05
0.000337223
0.00187127
0.0160491
0.159032
1.37975
9.29269
45.4989
169.649
454.058
835.694
1232.01
1608.8
1924.59
2173.96
2365.87
2509.4
2610.55
2671.72
2692.25
2667.97
2589.53
2444.82
2220.84
1906.51
1504.43
1036.38
588.195
264.633
91.7559
22.4509
3.79528
6.99684
1e-15
1e-15
1e-15
1e-15
1e-15
1e-15
1e-15
1e-15
1e-15
1e-15
1e-15
1e-15
1e-15
1.09643e-15
1.50537e-15
2.43603e-15
5.35713e-15
2.21077e-14
3.55601e-13
1e-15
1e-15
1e-15
1e-15
1e-15
1e-15
1e-15
1e-15
1e-15
1e-15
1e-15
1e-15
1e-15
1e-15
1e-15
5.39648e-15
5.80474e-11
2.66144e-09
2.43088e-08
1.17534e-07
4.62552e-07
1.76183e-06
6.76728e-06
2.66611e-05
0.000109338
0.000532943
0.0039261
0.0391121
0.377509
2.98896
17.816
77.4707
258.088
589.062
974.768
1363.98
1716.65
2003.76
2228.71
2401.29
2529.72
2618.84
2670.78
2684.58
2654.54
2571.26
2423.61
2197.75
1883.03
1483.08
1018.53
576.3
258.986
89.7594
21.9534
3.7137
6.86408
1e-15
1e-15
1e-15
1e-15
1e-15
1e-15
1e-15
1e-15
1e-15
1e-15
1e-15
1e-15
1e-15
1.09643e-15
1.50537e-15
2.43603e-15
5.35713e-15
2.21077e-14
3.55601e-13
1e-15
1e-15
1e-15
1e-15
1e-15
1e-15
1e-15
1e-15
1e-15
1e-15
1e-15
1e-15
1e-15
1e-15
1e-15
1e-15
1.07405e-12
3.52527e-10
5.27681e-09
3.24695e-08
1.37251e-07
5.39046e-07
2.11324e-06
8.48679e-06
3.51193e-05
0.000159348
0.000990888
0.00924178
0.0957938
0.866194
6.19526
32.3963
127.063
368.747
726.865
1111.18
1488.31
1813.14
2073.2
2276.02
2431.24
2545.88
2624.46
2668.6
2675.8
2640.1
2552.93
2402.33
2174.57
1860.02
1461.37
1000.39
564.786
253.453
87.7662
21.4603
3.63395
6.73542
1e-15
1e-15
1e-15
1e-15
1e-15
1e-15
1e-15
1e-15
1e-15
1e-15
1e-15
1e-15
1e-15
1.09643e-15
1.50537e-15
2.43603e-15
5.35713e-15
2.21077e-14
3.55601e-13
1e-15
1e-15
1e-15
1e-15
1e-15
1e-15
1e-15
1e-15
1e-15
1e-15
1e-15
1e-15
1e-15
1e-15
1e-15
1e-15
4.40902e-15
2.51731e-11
9.2926e-10
8.16275e-09
3.90316e-08
1.59261e-07
6.38771e-07
2.61309e-06
1.10172e-05
4.8701e-05
0.000263469
0.00215583
0.0228419
0.230204
1.9168
12.1948
56.3067
199.353
494.419
863.961
1244.88
1602.03
1898.75
2133.85
2316.7
2456.05
2558.65
2628.24
2664.89
2665.66
2625.27
2534.3
2380.81
2151.74
1836.8
1439.24
982.756
553.468
247.926
85.7913
20.9793
3.55653
6.60314
1e-15
1e-15
1e-15
1e-15
1e-15
1e-15
1e-15
1e-15
1e-15
1e-15
1e-15
1e-15
1e-15
1.09643e-15
1.50537e-15
2.43603e-15
5.35713e-15
2.21077e-14
3.55601e-13
1e-15
1e-15
1e-15
1e-15
1e-15
1e-15
1e-15
1e-15
1e-15
1e-15
1e-15
1e-15
1e-15
1e-15
1e-15
1e-15
1e-15
5.62895e-13
1.23699e-10
1.75034e-09
1.05352e-08
4.53632e-08
1.86787e-07
7.78477e-07
3.35349e-06
1.48348e-05
7.35949e-05
0.000512471
0.00520378
0.0567807
0.53757
4.06081
22.7702
94.3732
295.276
626.996
998.682
1372.32
1704.67
1974.26
2186.65
2351.11
2476.68
2568.9
2630
2659.42
2654.78
2609.87
2515.24
2359.49
2128.64
1813.27
1417.62
965.326
542.14
242.447
83.8645
20.512
3.47557
6.48003
1e-15
1e-15
1e-15
1e-15
1e-15
1e-15
1e-15
1e-15
1e-15
1e-15
1e-15
1e-15
1e-15
1.09643e-15
1.50537e-15
2.43603e-15
5.35713e-15
2.21077e-14
3.55601e-13
1e-15
1e-15
1e-15
1e-15
1e-15
1e-15
1e-15
1e-15
1e-15
1e-15
1e-15
1e-15
1e-15
1e-15
1e-15
1e-15
1e-15
3.19787e-15
9.44238e-12
3.048e-10
2.59605e-09
1.2494e-08
5.27833e-08
2.24816e-07
9.88164e-07
4.43157e-06
2.11442e-05
0.000127252
0.00115965
0.013132
0.138679
1.20952
8.20034
40.5918
152.147
409.908
761.538
1132.26
1491.26
1796.34
2040.84
2231.77
2380.46
2494.02
2576.59
2629.58
2652.81
2643.01
2593.83
2496.21
2337.76
2105.17
1790.16
1396.11
947.825
530.887
237.096
81.9928
20.021
3.4073
6.28776
1e-15
1e-15
1e-15
1e-15
1e-15
1e-15
1e-15
1e-15
1e-15
1e-15
1e-15
1e-15
1e-15
1.09643e-15
1.50537e-15
2.43603e-15
5.35713e-15
2.21077e-14
3.55601e-13
1e-15
1e-15
1e-15
1e-15
1e-15
1e-15
1e-15
1e-15
1e-15
1e-15
1e-15
1e-15
1e-15
1e-15
1e-15
1e-15
1e-15
1e-15
2.43713e-13
4.09664e-11
5.53845e-10
3.26831e-09
1.44677e-08
6.29908e-08
2.8171e-07
1.28758e-06
6.09533e-06
3.31795e-05
0.000260294
0.00288668
0.0331995
0.328264
2.61448
15.7919
69.5251
233.142
536.315
894.644
1261.58
1599.42
1877.96
2097.88
2270.85
2405.62
2508.17
2581.63
2627.58
2644.99
2630.36
2577.6
2476.65
2315.59
2082.02
1767.02
1374.45
930.383
519.867
231.894
80.0263
19.6195
3.28084
1e-15
1e-15
1e-15
1e-15
1e-15
1e-15
1e-15
1e-15
1e-15
1e-15
1e-15
1e-15
1e-15
1.09643e-15
1.50537e-15
2.43603e-15
5.35713e-15
2.21077e-14
3.55601e-13
1e-15
1e-15
1e-15
1e-15
1e-15
1e-15
1e-15
1e-15
1e-15
1e-15
1e-15
1e-15
1e-15
1e-15
1e-15
1e-15
1e-15
1e-15
2.11786e-15
3.23961e-12
9.53054e-11
7.87406e-10
3.82052e-09
1.71331e-08
7.7758e-08
3.62283e-07
1.73173e-06
8.94762e-06
6.04412e-05
0.000615204
0.00743425
0.0821121
0.750646
5.4321
28.9356
114.947
335.834
666.588
1026.18
1384.26
1696.83
1948.64
2147.89
2304.71
2426.87
2519.13
2584.59
2624.01
2635.99
2617.27
2560.68
2456.51
2293.59
2058.7
1743.64
1352.79
913.228
509.124
226.429
78.4196
18.8373
1e-15
1e-15
1e-15
1e-15
1e-15
1e-15
1e-15
1e-15
1e-15
1e-15
1e-15
1e-15
1e-15
1.09643e-15
1.50537e-15
2.43603e-15
5.35713e-15
2.21077e-14
3.55601e-13
1e-15
1e-15
1e-15
1e-15
1e-15
1e-15
1e-15
1e-15
1e-15
1e-15
1e-15
1e-15
1e-15
1e-15
1e-15
1e-15
1e-15
1e-15
1e-15
9.26375e-14
1.24733e-11
1.63764e-10
9.66198e-10
4.50003e-09
2.07899e-08
9.8572e-08
4.79722e-07
2.43899e-06
1.46948e-05
0.000130483
0.00157442
0.0190532
0.19725
1.66083
10.7746
50.8464
181.835
453.557
797.473
1156.37
1497.43
1782.86
2010.99
2191.53
2333.83
2444.32
2527.49
2585.59
2618.93
2626.29
2603.32
2543.04
2436.39
2271.25
2035.03
1720.2
1331.39
896.424
497.832
221.957
75.2846
1e-15
1e-15
1e-15
1e-15
1e-15
1e-15
1e-15
1e-15
1e-15
1e-15
1e-15
1e-15
1e-15
1.09643e-15
1.50537e-15
2.43603e-15
5.35713e-15
2.21077e-14
3.55601e-13
1e-15
1e-15
1e-15
1e-15
1e-15
1e-15
1e-15
1e-15
1e-15
1e-15
1e-15
1e-15
1e-15
1e-15
1e-15
1e-15
1e-15
1e-15
1e-15
1.4645e-15
1.00429e-12
2.7855e-11
2.25859e-10
1.13796e-09
5.36705e-09
2.59436e-08
1.28933e-07
6.58727e-07
3.70977e-06
2.8311e-05
0.000320642
0.00412725
0.0478393
0.460287
3.53912
20.3942
86.108
271.34
579
927.25
1281.29