/*--------------------------------*- C++ -*----------------------------------*\
| =========                 |                                                 |
| \\      /  F ield         | OpenFOAM: The Open Source CFD Toolbox           |
|  \\    /   O peration     | Version:  v2012                                 |
|   \\  /    A nd           | Website:  www.openfoam.com                      |
|    \\/     M anipulation  |                                                 |
\*---------------------------------------------------------------------------*/
FoamFile
{
    version     2.0;
    format      ascii;
    class       volScalarField;
    location    "1901";
    object      lamda1;
}
// * * * * * * * * * * * * * * * * * * * * * * * * * * * * * * * * * * * * * //

dimensions      [0 0 0 0 0 0 0];


internalField   nonuniform List<scalar> 
8000
(
1.52928e-30
9.63995e-28
6.85309e-30
1.28745e-26
5.06157e-28
6.70275e-31
1.76964e-26
1.0723e-26
5.45554e-29
4.63391e-31
3.7176e-26
1.95379e-26
1.54174e-27
1.01814e-27
5.40272e-32
1.09157e-25
7.6584e-26
7.33887e-27
8.08748e-27
1.46745e-28
3.08101e-31
2.45461e-26
2.1924e-26
5.74664e-26
1.97631e-27
7.07761e-27
8.05913e-28
3.18275e-31
6.30601e-26
5.32416e-26
1.75543e-25
9.12353e-27
5.21467e-27
2.23659e-28
1.19098e-29
4.1849e-31
5.6458e-26
2.13029e-25
4.37767e-26
1.60431e-26
2.51286e-26
8.00738e-28
6.05626e-28
5.88397e-28
2.55512e-31
3.6888e-25
2.29199e-25
1.34618e-25
1.05065e-26
5.86084e-26
6.94469e-26
4.16319e-27
9.80721e-30
1.81131e-28
2.53283e-31
7.11785e-26
4.63116e-27
2.32147e-29
1.58501e-25
1.10047e-26
1.70417e-28
6.51278e-26
9.64066e-27
4.94768e-28
6.92614e-29
3.73001e-31
3.08519e-25
1.22951e-24
7.44192e-26
1.35623e-25
8.29716e-27
4.07892e-25
8.79842e-28
5.27793e-26
3.64797e-27
6.19143e-32
1.76658e-29
1.35099e-30
1.69235e-25
2.40783e-25
1.33499e-25
1.93039e-27
3.67763e-26
1.58833e-26
2.38251e-26
2.42261e-27
2.45655e-26
1.71618e-26
1.53537e-27
2.61194e-31
2.43208e-31
1.92405e-25
1.14596e-25
4.58008e-25
1.29833e-27
2.50544e-25
1.19352e-24
1.04564e-25
7.67172e-26
4.01944e-27
9.87008e-27
2.56717e-27
3.8784e-31
4.36868e-29
1.18393e-31
6.45391e-25
5.98241e-25
9.07727e-26
1.68033e-25
3.51489e-25
1.82989e-25
6.98066e-26
1.05029e-26
1.5198e-25
2.58394e-26
1.0119e-26
2.5742e-27
2.57114e-28
2.34062e-28
3.99534e-31
1.59454e-19
9.71947e-25
1.3728e-25
6.79936e-26
3.92697e-25
7.48853e-26
6.47481e-26
1.88125e-26
2.72947e-27
5.84997e-26
2.32281e-26
1.70801e-26
7.75827e-27
1.97042e-27
2.97873e-29
9.12425e-32
1.24625e-15
4.82828e-20
4.52386e-25
1.23962e-28
6.01681e-26
5.68609e-27
7.36072e-26
1.40545e-25
4.34271e-26
3.62516e-25
1.3014e-26
1.17779e-26
1.25188e-27
8.44278e-28
1.1001e-27
2.85221e-29
1.10846e-30
1.86086e-08
6.99953e-16
1.28137e-20
1.87114e-25
2.14029e-25
5.87673e-26
7.8136e-26
3.07466e-28
6.58624e-26
1.29941e-25
7.71617e-27
5.65742e-27
4.37798e-27
2.26247e-26
1.14898e-26
2.03296e-28
1.29058e-29
6.0616e-31
0.000261704
4.47132e-09
2.07492e-16
3.52292e-21
3.96565e-26
3.33306e-25
4.42281e-26
2.34947e-26
2.08692e-27
3.93805e-27
1.49865e-26
2.99087e-25
9.42969e-26
3.9947e-27
5.46835e-27
1.36435e-27
4.60635e-28
2.37681e-29
8.05857e-31
0.587567
7.73145e-05
1.13271e-09
1.06462e-16
1.08577e-21
3.35805e-26
1.02878e-25
8.25575e-26
3.12925e-26
1.65425e-30
8.69143e-26
1.14015e-26
4.48017e-26
7.42495e-27
1.63947e-26
9.31481e-27
9.5615e-28
4.70635e-28
4.58501e-30
5.12094e-31
0.690724
0.0956979
4.83386e-05
2.94299e-10
4.28708e-17
3.98848e-22
2.48867e-25
1.2158e-28
2.96141e-25
2.86008e-25
1.44531e-25
1.47273e-28
1.17972e-26
6.96621e-26
6.35493e-27
2.90001e-27
8.76301e-28
8.16213e-28
4.81955e-28
6.2003e-30
1.50106e-31
0.693709
0.169528
0.0132658
2.60831e-05
7.75771e-11
2.25689e-17
1.91243e-22
3.95346e-26
7.13002e-28
7.3743e-26
6.09874e-26
3.24276e-26
1.72698e-26
1.36643e-26
1.50314e-26
7.08766e-27
2.21184e-26
4.17556e-27
2.76228e-27
8.80786e-29
3.38179e-30
8.76991e-33
0.616538
0.188551
0.167223
0.00454615
1.66972e-05
2.38984e-11
1.11941e-17
1.29763e-22
8.33559e-26
5.11618e-26
1.68536e-26
5.72993e-26
2.54524e-25
1.92676e-27
7.5824e-28
8.22981e-26
9.32894e-27
1.87502e-26
5.8709e-27
2.36279e-27
3.06593e-28
7.44747e-30
2.7121e-32
0.512193
0.189956
0.34224
0.0966316
0.00240727
7.93575e-06
9.89477e-12
6.05424e-18
7.99786e-23
6.52379e-25
6.41102e-26
2.88178e-26
1.05653e-25
1.572e-28
6.15047e-27
6.092e-27
2.58533e-26
6.5852e-27
1.39186e-28
1.01049e-27
2.19866e-27
2.61869e-28
5.29084e-30
3.19621e-34
0.427418
0.18827
0.397313
0.306117
0.0606205
0.00153638
3.94444e-06
5.87452e-12
3.19988e-18
4.18697e-23
7.11783e-26
3.58193e-26
8.78343e-26
4.85424e-28
5.4132e-27
2.01947e-27
5.68011e-27
5.84054e-27
1.66361e-26
6.15476e-27
7.90712e-27
4.30761e-28
4.94469e-28
3.97134e-30
2.02987e-32
0.368878
0.191755
0.380499
0.444597
0.242806
0.0420079
0.00108124
1.74599e-06
3.78126e-12
1.76371e-18
2.52306e-23
5.39135e-26
3.31316e-26
2.13209e-26
1.35553e-26
2.46088e-26
9.36455e-27
4.77223e-26
1.98396e-26
3.7278e-27
5.19851e-27
1.63942e-27
4.18288e-28
4.71852e-29
1.18092e-29
1.82279e-32
0.314649
0.239218
0.324471
0.486816
0.417721
0.192189
0.0314777
0.000821622
7.53554e-07
2.1244e-12
8.62581e-19
1.11351e-23
4.79356e-26
3.04923e-26
1.57832e-26
3.92125e-26
9.84022e-29
2.14613e-25
1.20428e-27
3.17363e-26
3.08682e-27
5.01135e-27
4.93123e-28
3.15511e-28
1.71522e-28
1.37541e-29
1.67198e-34
0.251287
0.382582
0.248399
0.477025
0.505513
0.372114
0.158211
0.0249415
0.000657353
3.21193e-07
9.35034e-13
3.97398e-19
6.01419e-24
2.01235e-26
1.89434e-27
2.05507e-25
1.75598e-25
7.22747e-26
8.94833e-27
5.73398e-27
4.78228e-26
1.03417e-26
1.61673e-26
2.24355e-28
2.68928e-28
3.95107e-29
8.16809e-29
1.26417e-32
0.176912
0.57786
0.196886
0.419361
0.536041
0.48428
0.333928
0.134172
0.020557
0.000548656
1.26194e-07
3.52796e-13
1.71849e-19
3.30417e-24
2.08653e-28
2.41563e-26
1.21295e-26
6.05692e-26
1.32359e-26
6.4283e-26
1.19132e-26
4.71526e-26
2.51248e-27
7.40575e-27
1.26362e-26
4.74498e-30
3.10858e-29
1.3983e-29
9.20189e-35
0.106534
0.719963
0.190762
0.332183
0.533657
0.536499
0.459433
0.302782
0.116361
0.0175194
0.000476332
4.27101e-08
1.22867e-13
6.97194e-20
7.65541e-25
1.39133e-25
7.10047e-26
3.77322e-26
8.10172e-26
6.17758e-27
1.22517e-27
2.43669e-27
1.04414e-26
1.85118e-27
3.07592e-27
5.12291e-27
6.16914e-31
1.02396e-28
4.64383e-30
1.18139e-32
0.052661
0.767692
0.280148
0.223696
0.481714
0.561332
0.523666
0.436515
0.277021
0.103046
0.0154129
0.000431876
1.3035e-08
3.9518e-14
2.76891e-20
5.02677e-25
3.60189e-27
2.86516e-26
8.96057e-27
2.51814e-26
4.69864e-28
5.18851e-28
8.65627e-27
8.71896e-27
2.34514e-27
8.83627e-28
1.02832e-29
1.08813e-30
8.70004e-29
7.36254e-30
8.01507e-33
0.0211341
0.737573
0.437827
0.112314
0.380834
0.56092
0.556131
0.509818
0.415859
0.256027
0.0931981
0.0140914
0.000410677
3.3217e-09
1.16328e-14
1.0147e-20
4.23765e-25
2.46584e-26
1.21202e-25
2.81671e-26
1.00488e-25
1.94482e-26
1.60909e-26
4.86378e-26
1.15953e-27
5.55408e-27
2.27369e-27
4.9179e-27
3.1391e-30
4.73409e-28
6.91032e-31
6.19682e-33
0.00683996
0.646015
0.614596
0.0374361
0.257119
0.50864
0.580317
0.546425
0.497105
0.397751
0.239337
0.0867937
0.0133734
0.000414726
8.28765e-10
3.13365e-15
3.51253e-21
8.37973e-26
8.42887e-26
3.49413e-27
7.49496e-27
3.54013e-27
7.83166e-27
1.30622e-26
7.23371e-27
6.80528e-27
2.22388e-27
1.81789e-27
6.84483e-27
5.13418e-28
2.02055e-29
5.56078e-30
2.34969e-32
0.00180243
0.505961
0.750707
0.047971
0.156278
0.394761
0.574809
0.574569
0.53738
0.485728
0.382423
0.227984
0.0838084
0.012739
0.000435518
2.01271e-10
7.70889e-16
1.10429e-21
5.24569e-27
3.9528e-26
9.64601e-27
2.04867e-26
4.41763e-26
3.34408e-27
1.75554e-26
2.02283e-26
6.51228e-29
9.31815e-27
5.26835e-27
7.01289e-28
4.40982e-28
2.2043e-28
4.68605e-30
1.11821e-32
0.000388489
0.333719
0.804506
0.16921
0.118314
0.251706
0.513727
0.593101
0.563034
0.530062
0.475846
0.371554
0.223367
0.08253
0.0133902
0.000471143
4.25842e-11
1.72486e-16
3.1724e-22
3.70531e-26
3.46313e-26
1.38373e-28
4.79294e-27
2.075e-26
3.44546e-28
9.42955e-27
4.69363e-27
1.32984e-26
3.79364e-27
5.39185e-27
2.6641e-27
1.09681e-28
4.22914e-28
4.46069e-31
3.89305e-32
6.89636e-05
0.169958
0.806717
0.421645
0.107897
0.145384
0.382058
0.576525
0.590121
0.55426
0.524398
0.468728
0.367626
0.223333
0.0862688
0.0144233
0.000503296
7.81905e-12
3.4927e-17
8.62362e-23
1.7609e-26
4.53516e-27
7.1688e-28
9.99177e-29
8.75596e-28
1.35085e-27
5.33367e-26
1.08956e-27
1.13398e-26
6.77606e-27
7.10923e-27
6.83923e-30
1.0352e-28
1.18378e-29
3.56451e-30
3.76671e-33
1.01098e-05
0.0615371
0.762792
0.642863
0.0528031
0.172355
0.216695
0.496736
0.598701
0.581034
0.548971
0.520689
0.466189
0.369035
0.230809
0.0917057
0.0153351
0.000526265
1.21598e-12
6.31284e-18
2.01952e-23
1.35003e-27
4.55887e-26
1.09194e-28
3.27364e-27
1.73501e-26
1.43071e-26
1.79226e-29
1.33697e-26
3.47371e-27
1.09171e-26
2.55978e-28
3.33095e-28
3.90711e-28
1.39593e-28
3.45241e-31
2.86326e-32
1.22374e-06
0.0153834
0.664842
0.765867
0.00618005
0.249797
0.087012
0.339743
0.565638
0.59946
0.571537
0.545922
0.519158
0.467427
0.376187
0.240687
0.0962636
0.0159401
0.000538553
1.5839e-13
1.00291e-18
4.10056e-24
4.80308e-27
4.54459e-27
5.32287e-27
2.50302e-26
1.36149e-26
6.85737e-27
3.71033e-26
2.92763e-27
1.20396e-26
6.63448e-28
9.74197e-31
2.7156e-28
4.16981e-30
5.34213e-30
1.5663e-31
1.08179e-32
1.21029e-07
0.00273718
0.499755
0.811696
0.118724
0.279897
0.125695
0.155853
0.457258
0.594821
0.592161
0.563748
0.544173
0.519385
0.470886
0.384793
0.248357
0.099045
0.0162576
0.000544044
1.70383e-14
1.37797e-19
8.17687e-25
5.02287e-27
2.81359e-26
5.18022e-27
2.24746e-26
1.93911e-27
4.14506e-26
1.26562e-26
1.01108e-26
4.27089e-30
2.32377e-27
1.8499e-28
8.03453e-29
7.81067e-29
2.64285e-29
3.15972e-33
1.01861e-34
9.57561e-09
0.00036521
0.286799
0.811782
0.406109
0.274585
0.227009
0.0427316
0.267018
0.53812
0.59994
0.582906
0.557792
0.541426
0.519294
0.474618
0.39079
0.252577
0.100452
0.0163929
0.000542657
1.49584e-15
1.60978e-20
3.1508e-25
9.38786e-27
1.73764e-27
3.90947e-27
2.06256e-28
1.87778e-26
1.31699e-26
1.00709e-26
4.92469e-27
6.00446e-27
1.7362e-27
6.00679e-28
5.3591e-29
4.36291e-29
1.21011e-29
7.9323e-31
2.58586e-33
5.91156e-10
3.76915e-05
0.10746
0.771813
0.639687
0.170773
0.330944
0.0683024
0.0846261
0.389062
0.578703
0.593851
0.572931
0.550438
0.539744
0.518441
0.476421
0.393539
0.254607
0.10099
0.0163458
0.000536715
1.06578e-16
1.58881e-21
4.74426e-26
5.61873e-27
4.7889e-27
3.51777e-27
7.27853e-27
9.36938e-27
7.78251e-27
4.03114e-27
1.82536e-27
5.1908e-28
3.66108e-29
5.25823e-28
6.47566e-28
3.08714e-31
5.53553e-30
9.78512e-31
2.15424e-34
2.7609e-11
3.0268e-06
0.0238756
0.675664
0.756519
0.00677503
0.419383
0.151006
0.0244565
0.174876
0.486916
0.590153
0.582477
0.562362
0.545848
0.535225
0.516276
0.476487
0.39481
0.255185
0.100681
0.016177
0.000528075
6.22964e-18
1.31129e-22
3.00386e-26
2.69618e-27
1.34402e-26
5.0267e-27
1.45399e-26
9.92242e-28
6.98394e-27
1.11065e-27
3.26596e-28
1.69124e-27
2.86123e-28
4.56654e-28
8.06546e-29
1.34587e-28
5.93332e-30
1.95512e-31
1.73758e-35
9.40784e-13
1.86524e-07
0.00325262
0.497997
0.796586
0.145057
0.429258
0.273927
0.0403401
0.0351422
0.289903
0.545112
0.585194
0.570727
0.55236
0.53956
0.530934
0.514304
0.476501
0.394741
0.254425
0.0998141
0.0159348
0.000517407
3.10395e-19
8.94626e-24
4.56153e-26
6.152e-28
1.17103e-27
2.17239e-26
1.45265e-27
6.22625e-27
1.40643e-27
9.08284e-28
1.51925e-27
2.29879e-28
2.41713e-27
1.2312e-28
8.16317e-28
2.83371e-29
3.53939e-30
5.22238e-31
1.6635e-33
2.24223e-14
8.56467e-09
0.000298366
0.258847
0.788781
0.447791
0.357225
0.397915
0.089924
0.0178767
0.0845664
0.403949
0.567469
0.575121
0.55833
0.546228
0.53478
0.527976
0.51287
0.475592
0.393705
0.252813
0.0985937
0.0156417
0.000505433
1.37968e-20
1.02214e-24
2.77801e-27
2.0616e-27
4.83403e-26
2.45263e-27
1.84774e-27
5.81283e-28
5.1208e-27
9.67755e-28
1.2045e-27
4.80455e-27
2.48767e-28
7.42371e-28
2.86625e-28
1.08014e-28
5.15051e-32
1.03538e-32
1.37987e-34
3.56888e-16
2.81648e-10
1.95383e-05
0.0754911
0.731314
0.659997
0.172582
0.482533
0.17928
0.0337686
0.0178373
0.172683
0.484601
0.570249
0.563223
0.551324
0.541765
0.531452
0.525801
0.511336
0.474462
0.39203
0.250615
0.0971486
0.015314
0.000493867
6.13795e-22
6.81922e-26
1.28223e-26
2.51282e-26
9.97653e-28
2.30994e-27
8.23952e-27
1.9197e-27
4.24095e-27
2.26413e-27
1.03376e-27
7.0241e-28
8.56185e-28
3.13026e-28
3.56558e-28
2.03035e-29
2.58676e-30
8.44489e-31
1.43013e-33
3.66789e-18
6.30994e-12
9.20988e-07
0.0111601
0.596262
0.753996
0.0212667
0.501503
0.303313
0.0624523
0.0223468
0.0319805
0.285821
0.528923
0.564444
0.552345
0.548129
0.538352
0.529448
0.524252
0.510117
0.473067
0.389863
0.248073
0.0955356
0.0149976
0.000482632
2.11583e-23
8.20661e-26
6.64929e-26
1.28892e-27
2.68792e-26
3.11192e-28
3.27538e-27
2.44848e-27
1.57717e-27
4.74876e-28
2.38447e-28
4.83376e-27
6.02675e-28
1.0204e-28
1.80262e-28
2.16179e-29
2.91037e-30
1.12137e-31
9.48533e-34
2.37299e-20
9.06819e-14
3.04705e-08
0.000922329
0.363207
0.774911
0.266809
0.451149
0.419504
0.115093
0.036621
0.0218877
0.072357
0.390148
0.546481
0.55465
0.547438
0.545499
0.535769
0.527958
0.523145
0.508899
0.47142
0.387432
0.245238
0.0939729
0.0146861
0.000470892
9.59925e-25
1.11296e-25
4.06118e-27
1.80305e-26
1.05804e-27
1.81385e-27
6.4949e-27
3.31091e-27
1.26134e-28
5.4936e-28
2.92684e-27
3.50578e-28
1.64002e-28
2.11082e-28
5.65689e-30
1.71847e-29
1.68001e-29
7.63233e-32
9.30643e-34
1.15616e-22
7.79888e-16
6.74521e-10
4.83459e-05
0.124048
0.737639
0.549902
0.261951
0.500114
0.198839
0.0565067
0.0335429
0.0230063
0.155017
0.465467
0.549415
0.546262
0.544814
0.542961
0.533443
0.526868
0.522222
0.507628
0.469665
0.384736
0.242482
0.0924106
0.0143611
0.00045913
5.72689e-25
5.28995e-26
1.86318e-26
4.47371e-27
9.34037e-28
1.22842e-27
5.97924e-28
1.85244e-28
3.61407e-28
2.87438e-27
6.02613e-29
1.69613e-27
1.18959e-28
2.19414e-28
1.27531e-28
5.2629e-29
6.64165e-30
7.21153e-32
5.97396e-35
3.12516e-23
3.70936e-18
9.38532e-12
1.68181e-06
0.0187511
0.621786
0.704546
0.0075411
0.52151
0.310411
0.0850558
0.0481767
0.034148
0.0226146
0.261436
0.507458
0.545529
0.541339
0.543482
0.540252
0.531566
0.526129
0.52138
0.506377
0.46775
0.382109
0.239686
0.0907792
0.0140355
0.000447635
1.83123e-24
7.9379e-26
8.98253e-27
3.67358e-27
2.14878e-27
1.09492e-27
4.68633e-29
2.32831e-28
9.24815e-28
2.43473e-28
1.755e-28
7.50188e-28
4.20354e-28
3.38848e-28
4.07599e-30
1.19691e-29
1.38322e-30
2.02286e-31
5.69654e-34
6.31798e-23
1.37821e-20
7.60278e-14
3.80154e-08
0.00133079
0.394477
0.75096
0.153902
0.465151
0.418676
0.130595
0.0634057
0.0505291
0.0210682
0.0568925
0.367651
0.527321
0.540138
0.539579
0.541407
0.537845
0.530063
0.525576
0.52061
0.505055
0.465888
0.379414
0.236758
0.0891409
0.0137169
0.000436794
3.21368e-24
2.80802e-26
2.16563e-27
7.06375e-27
8.42451e-29
2.6164e-29
4.93924e-28
3.88431e-27
4.56315e-28
9.79202e-28
9.99905e-28
1.1079e-28
7.77821e-28
4.72552e-29
4.24463e-29
9.82312e-30
1.30421e-30
4.98165e-32
4.4272e-34
5.28183e-23
3.22386e-22
3.31545e-16
5.27543e-10
5.29834e-05
0.135006
0.723091
0.46975
0.277575
0.493431
0.201937
0.0793496
0.0680828
0.0363625
0.00961741
0.128868
0.446917
0.533729
0.535318
0.538555
0.53945
0.535655
0.528819
0.525139
0.519798
0.503779
0.463977
0.376587
0.233808
0.0875257
0.0134144
0.000426124
4.31673e-24
6.1668e-26
8.20663e-27
5.44072e-28
5.07538e-29
2.95151e-27
3.6435e-28
1.46109e-27
2.02832e-29
9.83058e-28
1.25944e-28
4.20206e-28
1.58407e-29
1.17386e-28
9.80223e-30
3.03754e-31
1.04875e-30
1.27069e-32
4.40967e-36
5.73925e-23
2.45642e-22
8.32053e-19
4.15911e-12
1.27636e-06
0.0180366
0.606474
0.664495
0.0252635
0.504223
0.302379
0.100608
0.0823293
0.056093
0.0162206
0.01375
0.246601
0.493216
0.532888
0.533843
0.538039
0.537423
0.533649
0.527837
0.524691
0.519006
0.502482
0.462065
0.373738
0.230873
0.0859795
0.0131153
0.000415824
5.75248e-24
1.25394e-25
1.27858e-27
8.95464e-28
4.39861e-27
5.96535e-28
4.82617e-28
2.12428e-27
3.12916e-28
5.57492e-29
3.17835e-27
2.15753e-28
2.87042e-28
6.68427e-30
1.84236e-31
2.87759e-29
2.05534e-32
8.69532e-34
3.70392e-34
5.97919e-23
4.97698e-23
3.39217e-21
1.70781e-14
1.8193e-08
0.00098713
0.367365
0.724959
0.125419
0.446003
0.399881
0.138143
0.0928517
0.0768741
0.0294974
0.00218982
0.0447695
0.362865
0.515934
0.530581
0.533961
0.53669
0.535437
0.53196
0.526985
0.52426
0.518172
0.501337
0.460151
0.370882
0.228037
0.0844383
0.012827
0.000406315
7.76595e-24
2.46458e-25
1.48229e-27
6.68703e-28
9.74617e-28
5.22199e-28
3.17551e-28
2.89283e-29
4.5355e-28
1.61433e-27
2.40103e-28
3.18753e-28
6.78984e-29
8.21994e-29
1.01088e-28
1.15944e-30
7.11364e-31
3.62881e-32
2.74536e-34
6.07325e-23
8.963e-24
3.47741e-21
3.57434e-17
1.43028e-10
2.74199e-05
0.107391
0.693105
0.445675
0.245902
0.471375
0.200346
0.102466
0.0934513
0.046078
0.00464499
0.00166368
0.135411
0.443701
0.523914
0.528776
0.534185
0.535014
0.533691
0.530488
0.526281
0.523763
0.517416
0.500214
0.458225
0.368098
0.225183
0.0829506
0.0125589
0.000397066
9.35261e-24
3.46491e-25
2.17639e-28
5.51407e-28
4.77073e-28
3.72534e-28
2.7317e-28
1.46807e-28
1.08135e-27
1.14003e-28
9.75514e-28
5.38519e-29
4.77901e-29
7.43779e-29
5.92639e-29
5.4477e-30
6.91519e-31
2.41266e-32
4.00112e-34
6.94654e-23
1.2429e-23
7.47769e-21
1.7472e-19
5.66427e-13
4.18799e-07
0.0105716
0.554965
0.644625
0.0085064
0.477588
0.293366
0.116126
0.10478
0.0664893
0.0110287
3.92415e-05
0.0119577
0.2653
0.488669
0.525088
0.529452
0.533918
0.533243
0.532129
0.52926
0.525589
0.523221
0.516683
0.499091
0.456337
0.365273
0.222415
0.0815537
0.0122973
0.000388268
1.14312e-23
3.76675e-25
1.28302e-27
3.22292e-28
2.24776e-28
4.5188e-28
2.72491e-28
1.00807e-27
1.03543e-27
4.56492e-28
1.18627e-28
1.48768e-29
1.85678e-28
1.63203e-29
1.4823e-29
4.67402e-30
7.63428e-31
2.63247e-32
2.71321e-34
7.88201e-23
3.88049e-23
1.22092e-20
1.48586e-19
1.08375e-15
3.38621e-09
0.000389892
0.289067
0.69928
0.158133
0.401195
0.387478
0.145889
0.109572
0.0855028
0.0224833
6.04929e-05
0.00209278
0.0583908
0.377839
0.510367
0.524804
0.53054
0.532931
0.531471
0.530793
0.52811
0.524882
0.522693
0.515952
0.497989
0.454411
0.362517
0.219788
0.0801802
0.0120483
0.000379846
1.28559e-23
4.17924e-25
2.50455e-27
4.23411e-28
1.28007e-27
8.45741e-30
2.75538e-27
5.9497e-28
3.22579e-28
2.75161e-28
5.11373e-29
2.75161e-28
3.066e-29
1.32536e-29
6.47631e-30
3.88222e-30
4.86036e-31
7.29358e-32
9.81728e-34
8.01875e-23
3.91156e-23
1.51472e-20
1.81482e-19
3.2997e-18
1.33029e-11
6.78577e-06
0.0594053
0.645481
0.473205
0.186647
0.448867
0.203913
0.112161
0.100613
0.0420197
0.000317575
0.00193491
0.00269721
0.169238
0.450576
0.518337
0.525168
0.531409
0.531467
0.529863
0.529501
0.526873
0.524239
0.522168
0.515234
0.496866
0.452524
0.359872
0.217179
0.0788689
0.0118088
0.000371661
1.28383e-23
3.44173e-25
6.946e-28
1.10613e-27
8.59902e-28
2.24994e-27
1.0978e-27
2.16644e-27
1.60287e-28
9.04197e-29
6.80019e-29
3.00283e-30
3.47937e-29
1.69297e-29
1.50018e-29
3.04368e-30
1.29461e-30
2.12227e-32
7.67883e-34
8.24767e-23
1.80455e-23
1.53404e-20
1.95724e-19
1.22615e-18
2.36697e-14
5.85891e-08
0.00356906
0.462841
0.64001
0.00833763
0.438693
0.291851
0.121934
0.108808
0.0649627
0.00168177
0.00191815
0.00384111
0.0182281
0.299451
0.489947
0.520492
0.527019
0.531229
0.529901
0.528278
0.528076
0.525737
0.523656
0.521654
0.514504
0.495766
0.450695
0.357223
0.214675
0.0775966
0.0115759
0.000363955
1.09316e-23
2.27191e-25
1.42543e-27
1.30773e-27
1.62637e-27
1.39681e-27
3.42617e-27
8.22562e-29
4.40695e-29
2.02444e-30
5.20649e-29
5.14867e-29
2.77808e-29
8.84595e-29
6.97685e-30
6.36998e-32
1.46175e-32
4.7592e-32
1.0542e-34
8.23626e-23
9.40162e-24
1.22761e-20
1.85765e-19
1.06018e-18
3.47412e-17
2.34957e-10
7.81385e-05
0.176735
0.664992
0.241897
0.325675
0.382897
0.150683
0.112203
0.0868025
0.00636868
0.00174007
0.00697674
0.0006397
0.0906333
0.40015
0.508262
0.521355
0.52874
0.530525
0.528164
0.526789
0.526727
0.524729
0.523131
0.521134
0.513793
0.494689
0.448851
0.354666
0.212223
0.0763552
0.011356
0.000356512
8.28233e-24
1.2327e-25
1.22747e-27
1.47032e-27
1.80485e-27
1.81923e-27
1.80234e-28
1.06337e-28
6.47752e-29
4.89545e-29
3.66814e-29
5.67966e-30
9.66592e-29
3.45232e-29
2.98086e-30
3.55208e-30
7.40473e-31
1.23656e-32
1.62849e-34
7.19036e-23
2.71603e-23
7.61032e-21
1.64763e-19
9.55392e-19
1.36951e-18
4.03383e-13
7.57539e-07
0.0202619
0.564758
0.526199
0.10725
0.421015
0.214977
0.115061
0.104011
0.0188803
0.00116558
0.00980946
0.0023341
0.00416448
0.215833
0.461063
0.515111
0.523389
0.530107
0.529076
0.526407
0.525447
0.525494
0.523853
0.522639
0.520638
0.513088
0.493602
0.447061
0.352138
0.209814
0.0751762
0.0111426
0.000349294
5.44305e-24
5.66881e-26
4.21549e-28
2.62141e-27
2.25582e-28
1.55653e-28
4.65383e-28
6.35107e-30
3.5372e-29
7.39097e-30
2.70104e-29
2.8763e-28
1.77506e-29
2.47532e-30
4.90832e-30
3.40714e-31
4.30153e-31
1.52599e-31
9.69482e-35
5.33053e-23
5.9049e-23
4.20134e-21
1.32379e-19
9.56715e-19
3.69237e-19
5.38996e-16
3.22229e-09
0.000637484
0.319612
0.636837
0.0578938
0.38742
0.29864
0.129293
0.11344
0.039027
0.000444507
0.00987389
0.00588975
0.000185893
0.0406962
0.33716
0.493178
0.517916
0.526106
0.529808
0.527319
0.524762
0.524229
0.524389
0.52308
0.522213
0.520142
0.512378
0.492543
0.44528
0.349639
0.207511
0.0740249
0.0109356
0.000342423
3.17494e-24
3.34443e-26
1.63039e-27
3.84611e-28
1.04368e-27
9.67368e-29
1.10235e-28
2.17465e-28
7.37825e-29
4.85832e-29
9.17555e-29
3.83052e-29
5.58505e-31
2.52675e-29
1.68161e-29
1.97653e-30
1.94529e-30
3.532e-32
8.59944e-35
3.33617e-23
7.82417e-23
1.94287e-21
9.04354e-20
8.63546e-19
2.66115e-19
2.16265e-16
5.53888e-12
7.38492e-06
0.0688836
0.607386
0.352544
0.210726
0.379493
0.166947
0.11706
0.064684
0.000499993
0.00711896
0.00870788
0.000861206
0.0011262
0.137029
0.422237
0.507825
0.519576
0.528209
0.52882
0.525484
0.523231
0.523128
0.523393
0.522446
0.521809
0.51964
0.511688
0.491485
0.44351
0.347232
0.205243
0.0729028
0.0107378
0.000335694
1.6616e-24
1.21589e-26
6.53949e-28
5.49989e-28
1.74166e-28
2.77287e-29
1.25684e-29
4.20441e-29
6.97025e-29
5.81515e-29
2.535e-29
8.03488e-30
1.35471e-29
6.91078e-30
1.46032e-29
5.86347e-30
1.96959e-31
2.85862e-32
8.20139e-35
1.78643e-23
7.43584e-23
7.12172e-22
5.34515e-20
6.71033e-19
6.6833e-19
1.14344e-16
7.15868e-15
3.4694e-08
0.00353942
0.430912
0.568001
0.00638876
0.396017
0.237524
0.121967
0.0865508
0.00249237
0.00408404
0.0107352
0.00232828
0.00027328
0.0162795
0.264897
0.471489
0.513551
0.522875
0.529269
0.527244
0.523666
0.521828
0.52212
0.522561
0.52189
0.521412
0.51916
0.510999
0.490434
0.441794
0.344842
0.203019
0.0718247
0.0105438
0.000329335
6.7229e-25
2.58742e-27
7.13335e-28
4.96808e-28
4.14652e-28
5.65427e-28
7.38998e-29
2.03953e-28
2.5122e-28
3.5994e-29
1.75495e-29
4.03771e-29
9.04872e-30
4.55117e-31
1.00297e-29
1.55441e-30
2.13117e-31
2.61407e-32
6.55829e-35
8.28522e-24
5.31767e-23
2.10043e-22
2.65244e-20
4.38611e-19
1.20091e-18
4.18653e-17
2.15979e-15
6.22859e-11
5.26848e-05
0.150124
0.611703
0.178574
0.302785
0.324879
0.137812
0.100849
0.010961
0.00152021
0.0100015
0.00328708
0.000959887
0.000817982
0.0757533
0.372108
0.497048
0.51659
0.52601
0.528887
0.525395
0.52193
0.520533
0.521271
0.521827
0.521382
0.521054
0.518679
0.510318
0.489409
0.440079
0.342484
0.200866
0.0707618
0.0103604
0.000323441
2.97177e-25
1.59919e-27
5.19228e-28
5.40329e-28
2.4086e-28
5.68575e-29
2.4148e-28
3.97066e-29
7.95546e-29
3.91908e-30
2.18732e-29
3.26071e-29
3.63317e-31
5.19775e-30
4.4756e-30
5.08372e-30
2.08193e-31
3.92731e-32
2.14253e-34
3.23931e-24
2.9549e-23
6.72431e-23
1.10044e-20
2.49217e-19
1.27603e-18
1.21585e-17
1.3059e-15
6.79144e-14
2.84678e-07
0.0132075
0.503711
0.466972
0.0936995
0.366389
0.185117
0.108169
0.0328975
0.000113884
0.00751723
0.00451606
0.00131329
0.000454496
0.00614791
0.18953
0.441972
0.508161
0.519396
0.528374
0.527683
0.523439
0.520291
0.519437
0.520511
0.521152
0.520955
0.520706
0.518211
0.509653
0.488383
0.438379
0.340186
0.198731
0.0697546
0.0101895
0.000317645
1.23327e-25
6.30212e-28
9.21244e-28
3.98511e-28
2.74023e-30
4.05115e-28
6.54894e-29
4.94221e-29
4.94396e-29
4.03663e-29
3.67468e-29
2.89706e-30
1.39218e-29
2.86998e-30
4.48695e-30
8.6914e-31
9.30658e-32
1.76921e-32
5.39932e-36
1.31438e-24
1.20934e-23
3.61386e-23
3.69257e-21
1.22728e-19
1.00247e-18
2.33228e-18
7.45434e-16
8.09663e-15
5.47128e-10
0.00027012
0.245437
0.578389
0.0379832
0.339493
0.256527
0.120628
0.0612871
0.000405904
0.00419732
0.00596842
0.001151
0.000856302
0.000573543
0.0368773
0.311717
0.48079
0.513083
0.523385
0.528991
0.525949
0.521477
0.518868
0.518477
0.519789
0.520582
0.52057
0.520379
0.517751
0.508989
0.487363
0.436713
0.33789
0.196697
0.0688093
0.010021
0.000312022
4.08241e-26
5.96301e-28
1.00861e-28
1.18558e-28
3.83518e-28
5.54517e-30
6.63165e-29
9.81983e-29
6.60332e-29
1.43075e-29
1.66709e-29
1.72011e-29
1.00648e-29
4.25477e-30
2.94205e-30
1.30876e-30
4.46946e-31
5.41647e-33
1.47314e-34
4.75231e-25
4.33185e-24
2.29699e-23
8.29375e-22
5.099e-20
6.8044e-19
5.33023e-19
3.24189e-16
6.0691e-15
3.76779e-13
1.73776e-06
0.0362292
0.532755
0.336142
0.164279
0.332245
0.153179
0.0875467
0.00509627
0.00129064
0.00765976
0.0016271
0.000790522
0.000491262
0.00281767
0.121712
0.402601
0.500285
0.516219
0.526751
0.528467
0.523886
0.519676
0.517623
0.517581
0.519161
0.520074
0.520233
0.520059
0.517296
0.508334
0.48636
0.435041
0.335692
0.194772
0.0678722
0.00985754
0.000306648
1.80211e-26
5.03985e-29
7.44482e-28
2.17109e-28
2.76127e-29
3.23287e-29
5.90506e-29
1.93637e-29
4.18773e-29
8.9516e-29
3.28302e-29
3.75232e-29
7.59367e-30
3.91047e-30
3.53339e-30
1.39485e-30
1.44561e-31
5.1593e-33
1.31547e-34
2.05158e-25
1.30965e-24
1.01457e-23
1.40741e-22
1.72712e-20
3.61523e-19
7.09735e-19
1.07146e-16
3.73929e-15
7.74855e-15
3.66542e-09
0.00107735
0.323159
0.53587
0.0104936
0.340106
0.216813
0.111413
0.0203909
0.000298937
0.00819914
0.00300144
0.000445878
0.000444704
0.000689909
0.0168571
0.243807
0.458334
0.508754
0.52033
0.529105
0.526874
0.521785
0.518064
0.516474
0.516808
0.518587
0.519634
0.519907
0.519747
0.516878
0.507693
0.485355
0.433429
0.333592
0.19285
0.0669613
0.0097008
0.000301317
2.69267e-27
6.59292e-28
2.53735e-28
3.42688e-29
6.19816e-31
1.2275e-30
1.28384e-28
1.59534e-29
3.81059e-29
6.99897e-29
3.12282e-29
1.60075e-29
6.3577e-30
2.24829e-30
1.05557e-31
1.16614e-31
1.15519e-31
1.03092e-32
3.05431e-35
5.69198e-26
4.38651e-25
3.5087e-24
3.02562e-23
4.16882e-21
1.55561e-19
8.9124e-19
2.0978e-17
1.90564e-15
9.12141e-15
1.79598e-12
8.47359e-06
0.0726153
0.538828
0.203834
0.213886
0.301169
0.139016
0.0456055
0.000258756
0.00694924
0.00507517
0.000328115
0.0002821
0.000701242
0.00176112
0.0697235
0.353265
0.488528
0.51338
0.524676
0.529041
0.524838
0.519798
0.516576
0.515486
0.516116
0.518078
0.519174
0.519592
0.519511
0.516471
0.507055
0.484379
0.431877
0.331482
0.190974
0.0660828
0.00954499
0.000296139
2.82819e-27
1.55486e-28
2.34597e-29
7.94902e-29
4.26016e-29
2.25603e-29
1.14297e-28
6.3713e-29
3.11823e-29
1.12538e-28
4.75936e-31
1.33048e-29
1.38931e-30
8.47322e-31
3.54472e-31
6.93692e-31
6.84213e-32
3.16795e-33
2.65292e-35
1.66433e-26
2.04165e-25
1.0821e-24
1.28479e-23
6.35816e-22
5.36487e-20
6.50266e-19
2.4121e-18
7.45695e-16
9.04463e-15
1.29439e-13
2.00121e-08
0.00321738
0.380286
0.452902
0.0441907
0.331434
0.190954
0.0751988
0.00158626
0.00447666
0.00737864
0.000483942
0.000129607
0.000556608
0.000902199
0.0079096
0.174683
0.428146
0.503114
0.516735
0.527946
0.527968
0.522652
0.517913
0.515285
0.514612
0.51551
0.517561
0.51871
0.519347
0.519285
0.516066
0.506433
0.483431
0.43031
0.329414
0.189153
0.0652057
0.00939361
0.000291108
1.8457e-28
3.0533e-28
2.12516e-28
6.97792e-29
9.579e-29
4.57479e-29
1.25697e-28
2.31181e-30
2.67956e-29
2.73595e-29
4.38844e-30
1.36737e-29
9.48197e-31
3.14644e-30
4.92769e-30
1.76316e-30
6.6962e-33
8.01086e-33
2.14682e-35
5.57627e-27
7.13896e-26
2.81072e-25
3.65618e-24
5.1614e-23
1.38043e-20
3.43983e-19
4.05983e-19
2.15421e-16
5.20447e-15
8.11626e-15
6.19193e-12
3.18732e-05
0.118074
0.523834
0.10315
0.257733
0.259703
0.105852
0.00815451
0.00168014
0.00829485
0.00103265
6.48766e-05
0.000406325
0.00100648
0.00149633
0.0353031
0.29479
0.471818
0.509674
0.521788
0.529461
0.526134
0.520435
0.516237
0.514144
0.513854
0.515002
0.517041
0.51831
0.519131
0.519059
0.51567
0.505825
0.482476
0.428768
0.327391
0.187324
0.0643513
0.00924601
0.000286077
2.36009e-29
3.02506e-29
8.15565e-29
7.80898e-29
7.32058e-29
5.31388e-29
2.95855e-29
9.15126e-30
2.16514e-29
1.38115e-29
5.81888e-30
9.58658e-30
4.75012e-30
4.62823e-30
1.2056e-30
3.14059e-32
4.49361e-32
4.82039e-33
8.55785e-37
2.19555e-27
5.002e-26
4.34726e-26
1.68618e-24
4.17115e-24
2.24674e-21
1.26782e-19
5.40007e-19
4.60161e-17
2.27767e-15
7.17258e-15
1.1613e-12
8.8705e-08
0.00769037
0.411405
0.38475
0.06945
0.298279
0.155639
0.0292722
0.000234183
0.00662448
0.00222299
7.60227e-05
0.00032359
0.000911931
0.000943719
0.00334568
0.112526
0.388975
0.494908
0.513979
0.526215
0.529114
0.523904
0.51835
0.514734
0.513156
0.513213
0.514547
0.516584
0.51797
0.518932
0.518839
0.515276
0.505218
0.481532
0.42725
0.325349
0.185535
0.0635138
0.00909814
0.000281196
1.03517e-28
2.46195e-29
4.53444e-31
1.18826e-29
1.20035e-30
3.12843e-29
1.81149e-29
6.99172e-29
8.65031e-29
3.83414e-30
2.56626e-30
1.52999e-30
2.35194e-30
5.89187e-30
3.44672e-30
2.77359e-31
8.45964e-33
6.69181e-33
5.90429e-37
5.53939e-28
2.27403e-26
2.61337e-26
1.21105e-24
1.52422e-24
1.55931e-22
3.53656e-20
4.65894e-19
5.57338e-18
8.19929e-16
7.5202e-15
2.4332e-13
3.57591e-11
9.67291e-05
0.161704
0.494737
0.0469369
0.273445
0.226389
0.0689494
0.000415553
0.00316078
0.00387481
0.000178852
0.000247176
0.00082723
0.000758185
0.000754286
0.0161179
0.229927
0.449132
0.505425
0.518588
0.529477
0.527633
0.521535
0.516414
0.513423
0.51232
0.512637
0.514144
0.516189
0.517677
0.518754
0.518612
0.514885
0.504619
0.480599
0.42571
0.32334
0.183769
0.0626712
0.00895461
0.000276478
1.24524e-29
1.58978e-28
9.91059e-29
5.89321e-29
4.9711e-31
7.74853e-29
3.993e-29
1.39882e-30
2.27542e-29
3.01451e-29
2.02538e-31
2.18997e-30
5.19017e-30
6.04467e-30
1.66631e-30
3.70424e-31
4.18057e-33
4.42245e-33
1.45486e-35
4.7177e-28
1.4529e-27
3.07256e-26
5.10431e-25
1.50266e-24
6.84589e-25
6.92944e-21
2.21317e-19