/*--------------------------------*- C++ -*----------------------------------*\
| =========                 |                                                 |
| \\      /  F ield         | OpenFOAM: The Open Source CFD Toolbox           |
|  \\    /   O peration     | Version:  v2012                                 |
|   \\  /    A nd           | Website:  www.openfoam.com                      |
|    \\/     M anipulation  |                                                 |
\*---------------------------------------------------------------------------*/
FoamFile
{
    version     2.0;
    format      ascii;
    class       volScalarField;
    location    "1901";
    object      lamda2;
}
// * * * * * * * * * * * * * * * * * * * * * * * * * * * * * * * * * * * * * //

dimensions      [0 0 0 0 0 0 0];


internalField   nonuniform List<scalar> 
8000
(
2.64535e-38
9.57293e-28
6.1265e-30
1.23112e-26
4.79e-28
5.86515e-31
2.35654e-33
1.06832e-26
4.60176e-29
6.71311e-38
3.44569e-26
7.93415e-27
1.02744e-27
1.00716e-27
2.03571e-37
9.43414e-26
6.6723e-26
6.84709e-27
8.03817e-27
1.46325e-28
1.81451e-38
2.53512e-32
2.02902e-26
5.74597e-26
1.4881e-37
7.06614e-27
7.95962e-28
3.17378e-31
4.72684e-32
4.64701e-26
1.57014e-25
5.5231e-27
5.16024e-27
1.20859e-34
3.3972e-36
2.72235e-31
5.17276e-26
2.11902e-25
3.97946e-26
1.50445e-26
4.76628e-27
1.34416e-32
6.02392e-28
5.86951e-28
2.33652e-31
3.69191e-25
1.77633e-25
8.11051e-26
3.99414e-32
5.19868e-26
6.61527e-26
3.92621e-27
4.21265e-35
1.81458e-28
2.00176e-31
9.2459e-31
5.51642e-31
1.88128e-32
1.56737e-25
5.39729e-33
9.45038e-33
5.74749e-26
1.41844e-33
4.67437e-28
6.90174e-29
1.71757e-31
6.62412e-26
1.22249e-24
6.76071e-26
1.31355e-25
2.27664e-31
4.08469e-25
2.58292e-35
5.00885e-26
3.02592e-27
9.49431e-35
1.48468e-29
1.32509e-30
1.08838e-25
2.26534e-25
1.16245e-25
5.28668e-32
2.81968e-26
1.29051e-26
2.20268e-26
2.92894e-32
2.47174e-26
1.06794e-26
1.38011e-27
3.46166e-36
1.26226e-31
1.74941e-25
9.32278e-26
4.38971e-25
1.12139e-30
2.01009e-25
1.19205e-24
1.01015e-25
7.64371e-26
1.89252e-32
9.65176e-27
2.31398e-27
3.63159e-34
4.35722e-29
1.08232e-31
6.25353e-25
5.95197e-25
7.94141e-26
1.67318e-25
3.44979e-25
1.73271e-25
2.10324e-26
9.86922e-27
1.49675e-25
2.58195e-26
8.49567e-27
1.77658e-32
2.5426e-28
2.3388e-28
3.71819e-31
9.52066e-24
9.55742e-25
1.27516e-25
6.90567e-26
3.24495e-25
7.40811e-26
3.72145e-26
1.79866e-26
2.67473e-31
5.81234e-26
2.2665e-26
1.67166e-26
6.87529e-27
1.95854e-27
1.70212e-35
7.93825e-32
4.90951e-17
2.91255e-23
4.62761e-25
1.63362e-33
5.91152e-26
1.63543e-32
6.50407e-26
1.30239e-25
1.56064e-26
3.58219e-25
1.27284e-26
5.00358e-27
3.2707e-33
3.75429e-32
7.46303e-28
2.75636e-29
1.09361e-30
2.82302e-12
1.31086e-16
6.26581e-23
1.72059e-25
9.56931e-26
5.16658e-26
2.70086e-26
9.17032e-30
2.78859e-26
1.23167e-25
6.37926e-27
3.29654e-32
4.40174e-27
2.2228e-26
1.14468e-26
1.60798e-28
1.459e-35
5.27576e-31
0.000106611
1.29864e-11
2.43303e-17
9.34741e-23
3.63047e-26
3.25419e-25
4.44638e-26
2.31013e-26
4.77927e-30
4.01003e-32
1.19893e-26
2.75376e-25
8.894e-26
3.75339e-27
4.77084e-27
1.09171e-27
1.36696e-28
2.01629e-29
8.03988e-31
0.0119826
1.1251e-06
2.17122e-11
2.10478e-18
7.64808e-23
3.27298e-26
7.06349e-26
3.86488e-26
2.03067e-26
1.18995e-30
8.49527e-26
1.06282e-26
4.44162e-26
6.14078e-32
1.30412e-26
9.21384e-27
9.41147e-28
4.71573e-28
4.35374e-30
3.88007e-31
0.200223
0.0947856
1.48145e-05
7.46647e-12
1.04128e-21
6.78266e-23
2.53264e-25
3.80153e-31
2.92776e-25
2.78189e-25
1.46307e-25
1.35166e-32
9.04995e-27
6.96418e-26
4.14738e-32
2.81138e-27
8.79903e-28
7.91911e-28
4.04182e-28
3.72667e-30
1.47841e-31
0.399423
0.166676
0.0133211
1.22927e-05
1.03437e-12
4.48387e-19
5.11526e-23
2.27672e-26
2.08052e-30
2.78913e-26
6.10648e-26
3.21894e-26
1.63479e-26
7.97893e-27
1.52279e-26
6.4327e-27
2.17876e-26
3.01582e-27
2.75096e-27
8.65374e-29
3.20982e-30
1.61136e-39
0.461258
0.18528
0.168133
0.00454771
1.1174e-05
7.8506e-13
7.05326e-19
2.51239e-23
8.33679e-26
4.51546e-26
5.5417e-32
5.22203e-26
2.4944e-25
3.43431e-31
3.45722e-31
8.19026e-26
5.50186e-27
1.85474e-26
5.80965e-27
2.3463e-27
2.96113e-28
2.75281e-30
2.72976e-32
0.437469
0.178549
0.342742
0.0967636
0.0024074
5.79339e-06
5.3119e-13
6.33219e-19
2.06354e-23
6.48395e-25
3.92799e-26
2.13925e-26
1.04474e-25
2.99089e-30
1.33455e-31
6.19178e-27
2.5176e-26
4.7553e-27
9.35332e-34
5.52551e-28
2.01106e-27
2.53803e-28
2.33087e-30
7.80781e-38
0.394268
0.146495
0.396078
0.306779
0.0606355
0.00153638
3.168e-06
3.541e-13
4.27147e-19
2.00789e-23
6.23776e-26
3.44379e-26
7.61859e-26
1.24464e-31
2.3411e-30
3.21189e-33
5.28093e-27
2.41918e-27
1.61593e-26
6.10372e-27
7.60767e-27
4.38994e-28
4.91785e-28
7.2092e-36
2.00055e-32
0.34952
0.091423
0.377521
0.445907
0.242911
0.0420099
0.00108125
1.42884e-06
2.22868e-13
2.57552e-19
8.10684e-24
5.57618e-26
2.99933e-26
1.65505e-26
8.85984e-27
1.89026e-26
9.64153e-27
4.10408e-26
1.8592e-26
3.44268e-27
5.2415e-27
1.622e-27
3.67015e-28
4.7378e-29
6.87456e-30
1.71065e-32
0.298546
0.0311794
0.322407
0.488813
0.417987
0.192213
0.03148
0.000821629
6.03472e-07
1.3657e-13
1.50218e-19
6.07709e-24
1.24376e-26
2.62165e-26
1.48857e-26
3.17244e-26
1.20311e-32
2.03016e-25
2.64123e-30
2.83677e-26
2.97914e-27
4.43521e-27
3.48482e-28
3.2206e-28
1.59937e-28
1.33105e-29
6.97194e-38
0.235542
0.000655557
0.246564
0.479947
0.506018
0.3722
0.158233
0.0249426
0.000657357
2.40163e-07
7.84107e-14
8.71274e-20
2.57566e-24
1.01429e-26
5.34196e-30
2.04342e-25
1.68643e-25
5.51032e-26
6.8164e-27
3.48056e-27
3.79135e-26
1.01689e-26
1.53145e-26
9.94185e-33
2.78989e-28
3.44602e-29
8.12821e-29
1.26147e-32
0.163025
0.00212822
0.164179
0.422447
0.536866
0.48445
0.333993
0.134184
0.0205577
0.000548659
8.97958e-08
4.15617e-14
4.78447e-20
1.03718e-24
5.11809e-31
1.99486e-26
1.09462e-26
5.20539e-26
1.25682e-26
5.36982e-26
1.14835e-26
4.69229e-26
2.16352e-27
7.43273e-27
1.25941e-26
1.24503e-33
2.91641e-29
9.79032e-30
6.72226e-38
0.0973446
2.72112e-05
0.0806509
0.333052
0.535024
0.536782
0.459554
0.302821
0.116369
0.01752
0.000476335
2.89288e-08
1.99701e-14
2.44847e-20
1.30279e-24
1.30642e-25
7.13534e-26
3.84298e-26
7.94465e-26
1.80523e-30
1.85377e-31
2.47985e-27
1.01039e-26
1.9213e-27
2.78948e-27
3.51972e-27
1.70547e-35
1.01639e-28
3.72757e-30
9.34808e-33
0.0479153
0.00223946
0.0174069
0.222329
0.483934
0.561828
0.523866
0.43659
0.277048
0.103053
0.0154134
0.000431878
8.50346e-09
8.67402e-15
1.14813e-20
3.79584e-25
3.62927e-31
1.53241e-26
8.09155e-27
4.21846e-27
1.51155e-30
1.33909e-31
8.43338e-27
8.5652e-27
1.58113e-27
5.97934e-28
3.87531e-32
4.00961e-33
8.6938e-29
7.22465e-30
8.06603e-33
0.019112
0.0839109
0.00194899
0.114274
0.383264
0.561983
0.556441
0.509938
0.415913
0.256051
0.0932042
0.0140918
0.000410679
2.03944e-09
3.39247e-15
4.872e-21
3.96728e-26
2.39103e-26
1.17809e-25
2.78876e-26
9.19214e-26
7.43256e-27
1.53521e-26
4.54065e-26
8.70983e-28
5.56152e-27
3.07419e-34
4.09303e-27
1.56098e-32
4.66117e-28
6.83588e-31
1.22676e-37
0.00614613
0.141591
0.00907891
0.0453815
0.253388
0.511354
0.580781
0.546609
0.497191
0.397799
0.239361
0.0867997
0.0133737
0.000414727
4.75408e-10
1.17408e-15
1.81791e-21
6.72661e-26
8.59669e-26
2.82543e-31
6.33802e-27
3.11097e-27
6.49976e-27
1.29244e-26
6.19678e-27
6.39346e-27
1.49088e-31
1.75118e-27
6.79297e-27
5.0376e-28
1.58408e-29
5.29927e-30
2.34108e-32
0.0016117
0.135845
0.00680504
0.0150663
0.125184
0.401082
0.575617
0.574842
0.537511
0.485806
0.382474
0.228009
0.0838131
0.0127392
0.000435518
1.16592e-10
3.55813e-16
6.29846e-22
1.12846e-25
4.10336e-26
9.79141e-27
2.13083e-26
4.25596e-26
9.78095e-31
1.09128e-26
1.22034e-26
1.12213e-31
9.06099e-27
3.47148e-27
4.77164e-28
4.35266e-28
2.19095e-28
4.53265e-30
4.99512e-33
0.000345624
0.096092
0.0650089
0.000154371
0.0335945
0.257897
0.515646
0.593511
0.563228
0.530178
0.475932
0.37161
0.223387
0.0825332
0.0133903
0.000471143
2.47725e-11
9.40432e-17
1.97459e-22
3.49711e-29
3.45778e-26
2.35773e-30
4.16668e-27
2.10187e-26
1.70712e-32
9.6428e-27
4.47546e-27
1.30626e-26
3.50702e-27
5.26213e-27
2.56302e-27
9.29925e-29
4.24228e-28
4.34856e-31
3.89375e-32
6.11215e-05
0.0506073
0.0230911
0.0017479
0.00468168
0.112803
0.387201
0.577227
0.590405
0.554432
0.524527
0.468824
0.367669
0.223346
0.0862701
0.0144233
0.000503296
4.59708e-12
2.15592e-17
5.21349e-23
8.17089e-28
3.27334e-27
5.60468e-30
1.38192e-30
5.22785e-31
1.98673e-30
5.09329e-26
9.52756e-28
1.11158e-26
6.71081e-27
7.01667e-27
1.51493e-32
7.90813e-29
1.02182e-29
3.32283e-30
3.63652e-33
8.92204e-06
0.0190977
0.0297819
0.00551253
0.002643
0.0127719
0.225741
0.498453
0.599147
0.581281
0.549159
0.520834
0.466262
0.369064
0.230815
0.0917054
0.015335
0.000526264
7.17791e-13
4.2505e-18
1.31462e-23
8.61319e-28
4.51097e-26
4.32355e-30
3.45538e-27
1.50648e-26
1.41977e-26
3.76887e-31
1.36686e-26
3.44802e-27
1.02722e-26
2.3252e-28
7.27487e-29
2.71275e-28
1.39132e-28
3.25773e-31
2.84198e-32
1.07443e-06
0.00511795
0.0881669
0.0790682
0.00137753
0.000597979
0.0726825
0.344497
0.566461
0.599803
0.571805
0.546137
0.519271
0.467476
0.3762
0.240684
0.096262
0.01594
0.000538553
9.28807e-14
7.12934e-19
3.1459e-24
6.41861e-27
2.70699e-27
5.24315e-27
2.51848e-26
1.30251e-26
2.96807e-27
3.79798e-26
2.8379e-27
1.17756e-26
5.63557e-28
5.5561e-34
2.58104e-28
6.08141e-33
4.48919e-36
1.66843e-37
1.09366e-32
1.05651e-07
0.000997874
0.0860028
0.134071
0.000273785
0.00135557
0.00488821
0.164241
0.459183
0.595309
0.592525
0.564054
0.544339
0.519458
0.470906
0.384786
0.248351
0.0990436
0.0162576
0.000544044
9.75194e-15
1.00466e-19
5.91482e-25
2.75378e-27
1.88366e-26
4.84215e-27
2.13181e-26
1.24694e-27
4.10428e-26
1.15008e-26
9.82669e-27
6.78828e-31
1.90146e-27
1.70048e-28
5.59963e-29
5.17177e-29
2.53909e-29
1.38254e-35
6.92872e-38
8.29611e-09
0.000146253
0.0514404
0.0742159
0.000200233
0.00238856
0.000751778
0.0373283
0.271718
0.539063
0.600433
0.583316
0.558032
0.541531
0.519326
0.474604
0.390776
0.252572
0.100451
0.0163929
0.000542657
8.10839e-16
1.17265e-20
7.63607e-27
5.14784e-29
1.84737e-27
3.89876e-27
1.20203e-30
1.6964e-26
8.9275e-27
1.00045e-26
4.80533e-27
6.09221e-27
1.59491e-27
6.15705e-28
4.65819e-29
4.30532e-29
5.40353e-30
8.16393e-31
1.98025e-33
5.07008e-10
1.64405e-05
0.0194912
0.000149352
0.0166119
0.00134862
0.00300351
0.00168896
0.0891356
0.391514
0.579411
0.594365
0.573263
0.550589
0.539792
0.518418
0.476395
0.393529
0.254605
0.10099
0.0163458
0.000536715
5.18306e-17
1.11264e-21
3.45782e-27
2.49313e-27
1.47724e-27
3.1626e-27
7.0486e-27
8.15343e-27
7.59747e-27
3.72263e-27
1.85581e-27
2.11321e-28
1.79761e-31
5.17635e-28
6.55084e-28
5.28616e-33
4.73238e-30
6.91173e-31
1.84557e-37
2.33409e-11
1.42135e-06
0.00464554
0.04541
0.0671241
0.0141353
0.00863751
0.000152307
0.0124885
0.179932
0.488295
0.590779
0.582896
0.562572
0.54592
0.53519
0.516235
0.47647
0.394805
0.255183
0.100681
0.016177
0.000528075
2.45687e-18
8.28746e-23
5.64903e-26
2.21835e-27
1.23264e-26
2.99292e-27
1.29735e-26
6.61873e-28
6.41017e-27
7.95739e-28
1.22085e-31
1.54471e-27
3.15647e-28
4.40914e-28
6.18371e-33
1.23409e-28
3.92558e-30
4.0731e-37
1.4883e-37
7.78474e-13
9.32616e-08
0.000721588
0.0554654
0.0854719
0.00290353
0.00314383
0.00182176
0.00147675
0.0366945
0.293389
0.54603
0.585674
0.570994
0.552456
0.53951
0.530872
0.514277
0.476492
0.394737
0.254424
0.099814
0.0159348
0.000517407
8.2939e-20
5.3471e-24
2.54901e-26
1.69033e-29
5.31385e-31
2.19957e-26
1.20625e-27
6.25705e-27
1.39098e-27
6.825e-28
1.3731e-27
1.36434e-28
2.24491e-27
1.00529e-28
7.40894e-28
2.67329e-29
3.39156e-30
5.05417e-31
1.23408e-33
1.79304e-14
4.50805e-09
7.678e-05
0.0308087
0.0364474
0.00219293
0.000616013
0.00406328
2.27405e-05
0.00205316
0.0880524
0.405986
0.567957
0.575408
0.558456
0.546163
0.534687
0.527934
0.512854
0.475585
0.393703
0.252813
0.0985936
0.0156417
0.000505433
1.77139e-21
3.72892e-26
8.92257e-29
1.50897e-27
4.77755e-26
1.89401e-27
1.23768e-27
5.84715e-28
4.79665e-27
5.91653e-28
1.14771e-27
4.64875e-27
2.1064e-28
7.57695e-28
2.69453e-29
9.2798e-29
6.52173e-34
1.84297e-37
2.48873e-37
2.68865e-16
1.54307e-10
5.76459e-06
0.00920414
0.00344115
0.0205192
0.0101799
0.00487252
0.000426592
0.000241477
0.00937317
0.176485
0.485213
0.570464
0.563362
0.551249
0.541643
0.531391
0.525777
0.511325
0.474459
0.392029
0.250615
0.0971485
0.015314
0.000493867
2.77635e-23
4.13716e-27
1.20402e-26
2.42956e-26
7.56134e-28
1.74367e-27
8.95057e-27
2.12901e-27
4.01883e-27
2.1109e-27
9.9325e-28
4.57147e-28
7.73851e-28
2.75159e-28
3.56202e-28
2.00949e-29
2.49874e-30
8.3777e-31
9.41291e-34
2.45705e-18
3.55412e-12
3.05547e-07
0.00153931
0.0354975
0.0510284
0.0122715
0.00217339
0.000347064
8.90925e-05
0.000476228
0.0282726
0.287381
0.528968
0.564507
0.552256
0.547974
0.538272
0.529413
0.524235
0.510111
0.473065
0.389863
0.248072
0.0955356
0.0149976
0.000482632
4.99541e-27
1.20387e-27
5.65008e-26
1.46633e-27
2.50858e-26
2.98222e-30
3.35349e-27
1.75951e-27
8.50675e-28
4.82536e-28
2.09434e-28
4.74742e-27
6.90497e-28
6.33752e-29
1.67151e-28
1.73604e-29
2.16651e-30
7.67886e-32
8.00634e-34
1.20819e-20
5.17271e-14
1.11609e-08
0.000154423
0.0300029
0.0431525
0.00117216
0.000529855
0.000303092
3.16593e-05
1.20413e-06
0.00159451
0.0712156
0.390154
0.546244
0.55449
0.547237
0.545397
0.535722
0.527933
0.523136
0.508896
0.471419
0.387431
0.245238
0.0939729
0.0146861
0.000470892
3.24611e-25
6.79717e-26
1.16641e-29
1.80338e-26
5.17722e-28
1.35756e-27
6.32414e-27
3.31522e-27
3.86416e-33
4.06991e-28
2.88362e-27
3.15862e-28
1.31893e-28
2.09273e-28
3.57828e-33
1.44089e-29
1.67629e-29
7.02779e-32
6.67084e-34
8.79486e-23
4.40995e-16
2.67769e-10
9.82009e-06
0.0105574
0.00137863
0.00502265
0.00503671
0.00279057
0.000262563
9.4579e-05
2.91473e-05
0.00383843
0.155403
0.464531
0.548997
0.545993
0.544678
0.5429
0.533409
0.526855
0.522217
0.507626
0.469664
0.384736
0.242482
0.0924106
0.0143611
0.00045913
3.8988e-25
3.8127e-34
1.60927e-26
3.72716e-27
4.34793e-28
1.12351e-27
6.12636e-28
1.49955e-30
1.11807e-31
2.94143e-27
3.09314e-31
1.11987e-27
1.2094e-28
1.74052e-28
1.23152e-28
5.13215e-29
6.36218e-30
5.83726e-32
1.65487e-37
1.93665e-25
1.99508e-18
3.96257e-12
4.03196e-07
0.00178628
0.0202331
0.0276638
0.0172329
0.00262031
0.000300917
8.41843e-05
0.000113559
0.000254102
0.0170019
0.259875
0.506289
0.545064
0.541149
0.5434
0.540207
0.531548
0.526122
0.521378
0.506376
0.46775
0.382109
0.239686
0.0907792
0.0140355
0.000447635
2.68296e-27
1.87611e-26
5.97838e-27
3.32695e-27
1.7021e-27
9.02878e-28
3.26816e-31
1.59178e-30
5.32714e-28
2.14295e-31
1.18336e-28
5.53169e-28
3.95993e-28
3.48811e-28
2.42361e-35
1.08677e-29
1.37462e-30
2.02418e-31
5.11199e-34
1.00463e-25
7.32741e-21
3.33946e-14
1.04424e-08
0.00015924
0.0242818
0.0350018
0.00109404
0.00131407
5.89038e-06
0.000909629
4.59695e-07
7.35632e-05
3.05828e-06
0.0549925
0.364795
0.526293
0.539838
0.539458
0.541345
0.537822
0.530053
0.525573
0.520609
0.505055
0.465889
0.379414
0.236758
0.0891409
0.0137169
0.000436794
4.42897e-26
3.68294e-31
2.19047e-27
6.4168e-27
3.52491e-30
3.04219e-32
4.1661e-28
3.67322e-27
5.01591e-28
9.23343e-28
1.06352e-27
5.85357e-29
8.22597e-28
3.61038e-29
3.99709e-29
9.35634e-30
1.19106e-30
4.37253e-32
4.23492e-34
1.03039e-24
2.47534e-23
1.46782e-16
1.61335e-10
8.07023e-06
0.00888471
0.00309165
0.00156479
0.00326053
0.00273455
0.0012738
0.000519648
0.000129638
1.43323e-06
0.00292979
0.124696
0.444362
0.533129
0.535113
0.538466
0.539418
0.53564
0.528815
0.525138
0.519799
0.50378
0.463977
0.376588
0.233808
0.0875257
0.0134144
0.000426124
3.33482e-27
2.22362e-29
1.18465e-26
2.23929e-31
2.34742e-30
2.76233e-27
4.4905e-28
7.79296e-28
1.02754e-31
8.45062e-28
8.48938e-29
3.85777e-28
5.46041e-32
1.09342e-28
8.35681e-30
3.37932e-35
9.90364e-31
2.27465e-36
6.55862e-41
4.46807e-25
4.11925e-25
3.00306e-19
1.37576e-12
2.38745e-07
0.00135139
0.0130071
0.0191748
0.0123312
0.00209519
0.000193486
0.0013099
0.000132699
0.000126128
0.000337868
0.0115107
0.241608
0.491669
0.532465
0.533703
0.537993
0.537402
0.533643
0.527835
0.524692
0.519008
0.502482
0.462066
0.373738
0.230873
0.0859795
0.0131153
0.000415824
7.69558e-27
1.45197e-28
1.08341e-27
4.58872e-28
4.62519e-27
6.44325e-28
2.76437e-28
1.52308e-27
4.04241e-28
9.74233e-32
2.87327e-27
3.48138e-31
2.63226e-28
1.09627e-33
9.94004e-33
2.7532e-29
2.40198e-34
8.78861e-36
3.07352e-34
2.23214e-28
4.53677e-23
1.40827e-21
5.86731e-15
4.00817e-09
9.66996e-05
0.0172343
0.0249906
0.000668303
0.0017492
2.81399e-05
0.00108049
0.00087084
5.78813e-06
0.000169942
0.000305555
0.042046
0.35875
0.514933
0.530343
0.533887
0.536656
0.535427
0.531957
0.526987
0.524263
0.518173
0.501337
0.460151
0.370882
0.228037
0.0844383
0.012827
0.000406315
5.23783e-26
6.74715e-28
5.93864e-28
6.07812e-28
1.05563e-27
5.41291e-28
2.54931e-28
8.53084e-34
2.71026e-28
1.27719e-27
3.42745e-28
3.09348e-28
5.56323e-29
8.36305e-29
1.056e-28
9.4646e-35
7.74373e-31
2.70762e-32
2.80793e-34
1.35333e-26
1.53563e-23
9.37829e-24
1.12106e-17
3.56395e-11
3.54686e-06
0.00555528
0.000841385
0.00162232
0.0019759
0.00291934
0.000765594
0.00104192
0.000455828
3.51337e-07
0.000165228
0.00119171
0.129302
0.441015
0.523411
0.528633
0.534128
0.534998
0.533686
0.53049
0.526285
0.523764
0.517416
0.500215
0.458225
0.368098
0.225183
0.0829506
0.0125589
0.000397066
7.41559e-27
1.70765e-27
3.75062e-29
3.83408e-28
2.45143e-28
5.48474e-28
2.0739e-28
1.3408e-28
1.00576e-27
1.44398e-28
1.00811e-27
6.71801e-34
4.80241e-29
7.10329e-29
4.64596e-29
3.33787e-33
6.10013e-31
2.30869e-32
2.27918e-34
5.30117e-26
6.89376e-24
1.42972e-22
2.87831e-21
1.52678e-13
6.81467e-08
0.000659576
0.0114187
0.0152927
0.0106743
0.00196415
3.29425e-05
0.000917071
0.000680293
0.000301668
9.87034e-08
0.000130208
0.00979498
0.258913
0.487332
0.524771
0.52935
0.53389
0.533233
0.532131
0.529265
0.525591
0.523222
0.516684
0.499091
0.456337
0.365273
0.222415
0.0815537
0.0122973
0.000388268
5.95074e-28
8.10728e-28
3.69449e-28
3.55901e-28
1.39886e-28
3.85398e-28
2.24696e-28
9.79118e-28
8.13384e-28
1.16655e-28
3.86399e-32
1.51778e-31
1.54883e-28
1.41415e-29
4.68286e-30
4.03936e-30
5.25978e-31
2.04907e-32
1.94833e-34
4.614e-26
5.70042e-24
1.32331e-22
3.85892e-21
2.77969e-16
6.57016e-10
3.35902e-05
0.0111833
0.0147817
0.00107581
0.000766812
0.000170006
0.000619232
0.000592097
0.000657724
0.000474381
5.07918e-05
1.97613e-06
0.0535025
0.373996
0.50959
0.524611
0.530485
0.532913
0.531472
0.530799
0.528112
0.524883
0.522694
0.515953
0.497989
0.454411
0.362517
0.219788
0.0801802
0.0120483
0.000379846
3.04955e-28
3.39112e-27
1.91048e-27
3.1929e-28
2.63055e-33
8.45583e-30
2.90388e-27
3.56245e-28
1.6399e-28
1.03577e-28
4.49875e-29
1.85278e-28
4.28905e-29
5.81985e-33
3.76841e-30
3.60943e-30
4.92171e-31
7.06393e-32
6.76477e-34
1.1636e-26
7.59913e-25
4.65146e-23
3.20188e-22
5.81909e-20
2.90656e-12
7.95559e-07
0.00259396
9.53123e-05
0.00347878
0.00171974
0.00275256
0.000316263
0.000528323
0.000550799
0.000475424
0.000164702
2.96461e-05
0.0010209
0.161845
0.448497
0.517913
0.525054
0.531373
0.531464
0.52987
0.529504
0.526875
0.524241
0.52217
0.515235
0.496867
0.452524
0.359872
0.217179
0.0788689
0.0118088
0.000371661
2.12232e-27
6.16262e-29
5.15526e-28
2.49929e-30
3.95157e-28
2.9003e-27
6.12603e-28
1.80684e-27
4.5976e-31
7.49015e-29
4.43999e-29
3.50776e-32
3.14665e-29
1.04333e-29
1.45035e-29
3.45184e-30
4.44643e-31
1.79185e-32
5.63844e-34
1.88062e-26
2.44063e-26
1.00904e-23
2.91328e-26
2.22911e-20
5.26843e-15
8.76472e-09
0.000206214
0.00955197
0.0119328
0.00630728
0.00176863
3.44883e-06
0.000409102
0.000364686
0.000317407
0.000978835
8.83185e-05
3.02997e-05
0.0159023
0.294005
0.488857
0.52024
0.526947
0.531215
0.529907
0.52828
0.528079
0.52574
0.523658
0.521655
0.514505
0.495766
0.450695
0.357223
0.214675
0.0775967
0.0115759
0.000363955
2.52716e-27
1.77762e-27
4.02566e-28
7.65796e-28
2.06713e-27
8.88704e-28
3.11263e-27
7.02269e-29
9.24423e-32
2.67247e-31
2.46419e-29
3.83886e-33
2.67541e-29
8.67715e-29
2.60175e-30
1.05604e-32
1.9388e-34
5.4166e-32
3.43993e-38
1.06046e-25
1.34426e-25
1.78804e-24
1.92083e-22
2.72646e-21
4.99501e-18
4.19176e-11
6.53755e-06
0.0055057
0.00435586
0.0013949
1.52978e-06
0.000580492
0.000269882
0.000270382
0.000294986
0.000997187
0.000542156
9.03624e-05
9.52798e-06
0.0834781
0.39701
0.507657
0.521199
0.528705
0.530526
0.528164
0.526792
0.526731
0.524732
0.523132
0.521135
0.513794
0.494689
0.448851
0.354666
0.212223
0.0763552
0.011356
0.000356512
1.02752e-26
1.26587e-28
7.52906e-30
1.83341e-27
1.40218e-27
2.1361e-27
1.4056e-28
3.98854e-29
4.61714e-33
7.95357e-29
3.32608e-29
1.40615e-32
8.36211e-29
3.14905e-29
2.2562e-30
2.23561e-30
2.1905e-35
1.02328e-32
1.03678e-34
9.65672e-26
4.35588e-25
2.37164e-26
7.16579e-22
7.8648e-22
4.52315e-20
7.99322e-14
8.72367e-08
0.000771383
0.00265242
0.00536554
0.00302363
0.00148065
3.41471e-05
0.000262499
0.000149675
0.000443724
0.000560557
0.000671506
1.86493e-05
0.00332388
0.208375
0.45947
0.514757
0.523308
0.530095
0.52907
0.52641
0.525452
0.525498
0.523856
0.522641
0.52064
0.513089
0.493602
0.447061
0.352138
0.209814
0.0751762
0.0111426
0.000349294
4.57492e-28
4.01184e-28
3.01287e-28
2.35145e-27
4.5793e-28
1.81686e-32
3.4729e-28
2.48997e-32
1.06795e-31
6.49125e-31
2.23238e-29
2.721e-28
2.10609e-29
7.24352e-32
1.80471e-34
1.9268e-33
2.59872e-31
1.46574e-31
9.28646e-35
2.62927e-26
8.05498e-25
1.85552e-24
4.3782e-22
1.49266e-21
2.91541e-21
7.61397e-17
4.72045e-10
3.57965e-05
0.00649874
0.00743883
0.00177311
0.00140148
4.50392e-05
0.000189579
0.000124469
0.000218808
0.000361656
0.000844809
0.000419273
3.5578e-06
0.034676
0.33272
0.492301
0.517737
0.526066
0.529791
0.527318
0.524766
0.524234
0.524392
0.523082
0.522215
0.520143
0.512378
0.492544
0.44528
0.349639
0.207511
0.0740249
0.0109356
0.000342423
1.63209e-28
8.94927e-28
9.43677e-28
1.64411e-28
5.23107e-28
2.3822e-28
5.82776e-32
1.51268e-28
1.15452e-32
5.01165e-29
8.65964e-29
3.85441e-29
5.29701e-32
2.31207e-29
1.72305e-29
1.56242e-30
2.00901e-30
3.32809e-32
7.88146e-35
1.13475e-26
7.23427e-25
4.84113e-24
5.21603e-23
8.52245e-22
2.12275e-20
9.27132e-20
9.66234e-13
6.18072e-07
0.0017662
2.59089e-05
0.00162763
0.000845095
0.00127793
0.000115166
0.000132435
5.58386e-05
0.000369439
0.000515508
0.000842207
0.000223264
0.00076856
0.128555
0.419892
0.507403
0.519463
0.528167
0.528813
0.525488
0.523237
0.523132
0.523396
0.522449
0.52181
0.519641
0.511689
0.491486
0.44351
0.347232
0.205243
0.0729028
0.0107378
0.000335694
3.10121e-29
1.55611e-27
1.60437e-28
1.33721e-28
1.49498e-29
9.11016e-31
4.96544e-31
3.98481e-31
2.86323e-31
4.18176e-29
1.60694e-29
8.67999e-30
1.4925e-29
5.63659e-30
1.4884e-29
6.06533e-30
1.79863e-31
2.9496e-32
6.35957e-35
2.84172e-26
4.34118e-25
4.05543e-24
2.38465e-25
9.58824e-22
4.94049e-20
2.10605e-19
1.32786e-15
3.99659e-09
0.000125828
0.00568199
0.00637503
0.00523604
0.000734545
2.73765e-07
0.000136147
1.42969e-05
0.000297217
0.000246435
0.000695037
0.000733583
0.000163073
0.0121172
0.259021
0.470364
0.513268
0.522788
0.529248
0.527243
0.523672
0.521833
0.522124
0.522565
0.521892
0.521413
0.51916
0.510999
0.490434
0.441794
0.344842
0.203019
0.0718247
0.0105438
0.000329335
1.25376e-28
1.07861e-28
1.45809e-29
3.12699e-28
2.11534e-28
3.59288e-28
1.34244e-30
1.38937e-28
2.84017e-28
2.89627e-29
1.39679e-29
6.57183e-30
1.07929e-31
9.79393e-32
5.38004e-30
1.13731e-30
1.64778e-31
2.21269e-32
5.91755e-35
3.46014e-27
2.03477e-25
1.83444e-24
2.02658e-25
9.3541e-22
3.67884e-20
2.38109e-19
9.77122e-17
8.81165e-12
2.9179e-06
0.0031761
0.00252589
0.00104517
6.25553e-05
0.000187393
0.000154017
1.48052e-05
0.000134136
8.18923e-05
0.000463726
0.000749512
0.000662999
0.00048247
0.0681788
0.368927
0.496374
0.516416
0.525962
0.528876
0.525398
0.521935
0.520538
0.521276
0.52183
0.521383
0.521055
0.51868
0.510319
0.489409
0.440079
0.342484
0.200866
0.0707618
0.0103604
0.000323441
2.36962e-30
1.46302e-29
6.76924e-28
8.19538e-29
1.28172e-28
3.67909e-30
6.34736e-29
3.30675e-30
4.89281e-29
4.44961e-31
1.1012e-29
1.59601e-33
3.43923e-32
3.77742e-30
5.2456e-30
4.07399e-30
1.37274e-31
2.02612e-32
1.91311e-34
7.34304e-28
4.73668e-26
7.21213e-25
6.99903e-26
4.6251e-22
2.08354e-20
2.60096e-19
4.83277e-17
5.84768e-15
2.31616e-08
0.000356892
0.00177513
0.00316683
0.00158114
0.000814274
4.50199e-05
6.10836e-05
1.66552e-05
4.95277e-05
0.000266311
0.000505628
0.000790634
0.000414612
0.00428793
0.182536
0.44026
0.507786
0.519286
0.528344
0.52768
0.523443
0.520297
0.519444
0.520515
0.521155
0.520956
0.520707
0.518211
0.509653
0.488383
0.438379
0.340186
0.198731
0.0697546
0.0101895
0.000317645
3.27223e-28
3.01044e-28
5.75218e-28
3.07647e-28
3.77124e-31
3.23328e-28
4.88163e-29
3.0751e-33
4.57479e-29
1.99568e-29
9.50636e-30
1.34984e-33
9.22035e-30
3.69841e-30
4.03789e-30
1.08955e-30
7.87586e-34
1.8233e-32
6.82062e-38
1.30915e-29
4.59744e-27
1.85561e-25
4.25434e-26
9.80725e-23
9.02363e-21
1.85295e-19
8.86782e-19
1.18498e-16
5.9687e-11
1.12857e-05
0.00343845
0.00239232
0.00188065
0.000924454
1.50506e-05
0.000118329
5.42543e-06
9.423e-05
0.000136422
0.000352007
0.000410131
0.000822838
0.000573047
0.0312725
0.307251
0.479865
0.512836
0.523318
0.528976
0.525948
0.521482
0.518876
0.518482
0.519792
0.520584
0.520571
0.520379
0.517752
0.50899
0.487363
0.436713
0.33789
0.196697
0.0688093
0.010021
0.000312022
8.4148e-28
2.41869e-28
2.02631e-28
5.61887e-29
2.7877e-28
3.33883e-30
9.99158e-31
6.58463e-29
4.02673e-29
7.26359e-32
8.709e-30
2.08048e-29
5.28198e-30
3.73241e-33
4.15878e-30
8.18422e-31
3.89773e-31
3.52589e-33
1.49609e-34
3.7778e-28
4.53436e-29
1.31285e-26
7.80061e-26
2.5982e-23
2.51735e-21
4.81041e-20
3.91418e-19
1.26914e-16
6.91024e-14
1.11302e-07
0.000672648
0.000365136
0.00154571
0.000513174
0.000921435
6.04467e-05
4.97925e-05
8.05537e-05
3.53932e-05
0.000215062
0.000201717
0.000742664
0.000666819
0.00196074
0.114288
0.400115
0.499735
0.516074
0.526712
0.528458
0.523888
0.519685
0.517629
0.517585
0.519163
0.520076
0.520234
0.52006
0.517296
0.508334
0.486361
0.435041
0.335692
0.194772
0.0678722
0.00985754
0.000306648
3.07424e-28
2.54954e-30
9.51523e-28
2.04458e-28
2.87545e-29
3.19565e-31
3.53526e-29
2.46506e-29
2.92927e-29
6.19331e-29
3.59318e-29
3.23049e-29
5.3898e-30
2.19362e-30
2.52406e-30
6.73833e-31
8.97849e-32
3.65147e-33
1.24082e-34
9.79483e-28
1.0352e-27
6.00772e-27
1.75034e-27
4.67929e-24
6.76002e-22
1.28424e-20
3.78765e-19
5.38806e-17
1.61731e-15
3.29259e-10
3.0382e-05
0.00334658
0.0028261
0.0039072
0.000721114
5.61199e-06
4.2165e-05
9.03091e-05
1.39524e-05
9.88247e-05
0.000128777
0.000353152
0.000634409
0.000599262
0.0134229
0.237753
0.457004
0.508439
0.520243
0.52908
0.52687
0.521794
0.518071
0.516479
0.516812
0.51859
0.519635
0.519908
0.519747
0.516878
0.507693
0.485355
0.433429
0.333592
0.19285
0.0669613
0.0097008
0.000301317
7.58832e-29
2.60923e-30
7.00588e-29
5.85736e-29
6.05624e-31
3.17043e-31
1.08908e-28
1.8042e-29
2.74296e-29
5.23411e-29
2.98958e-29
1.09599e-29
5.3639e-30
2.17684e-30
7.72061e-34
8.20961e-34
7.1326e-32
1.16782e-32
2.73063e-35
1.46578e-28
2.88954e-27
4.13187e-27
1.49534e-28
9.77703e-28
1.23209e-22
6.74005e-21
1.33168e-19
1.50649e-17
2.01157e-15
3.83151e-13
3.86976e-07
0.00108012
6.96414e-05
0.00158417
6.28562e-05
0.000311
5.787e-05
2.29846e-05
6.2493e-05
5.50934e-05
7.4254e-05
0.000148063
0.000436868
0.000675705
0.00127674
0.0624068
0.349817
0.487804
0.513194
0.524617
0.529023
0.524843
0.519803
0.516581
0.515491
0.516119
0.518081
0.519176
0.519592
0.519512
0.516471
0.507055
0.484379
0.431877
0.331482
0.190974
0.0660828
0.00954499
0.000296139
1.02369e-28
1.20514e-28
1.05884e-29
3.51872e-30
1.2581e-31
4.29923e-32
1.05223e-28
5.16776e-29
2.4221e-29
1.27147e-28
7.87065e-32
1.13605e-29
1.81181e-32
1.09822e-32
1.01018e-32
3.75837e-31
6.06689e-32
1.86695e-33
2.25062e-35
1.4621e-29
2.23652e-27
1.28031e-27
2.5365e-26
1.79428e-25
8.12373e-25
1.85631e-21
3.98782e-20
3.79502e-18
2.3247e-16
7.76759e-16
1.44344e-09
6.82465e-05
0.00212191
0.00221886
0.00193648
0.000402915
5.08298e-07
8.43364e-06
7.08648e-05
5.66981e-05
6.3461e-05
5.56018e-05
0.000212522
0.000470934
0.000573958
0.00557963
0.16778
0.426304
0.502702
0.516602
0.527904
0.527967
0.522656
0.517918
0.515291
0.514615
0.515513
0.517562
0.518711
0.519348
0.519285
0.516066
0.506433
0.483431
0.43031
0.329414
0.189153
0.0652057
0.00939361
0.000291108
2.40154e-28
4.47106e-30
3.55462e-29
9.48599e-32
8.36773e-29
3.31374e-29
1.65042e-29
3.77083e-34
3.0293e-29
3.05383e-32
1.79844e-31
1.01838e-29
1.20189e-31
1.44214e-30
3.74488e-30
1.71142e-30
9.12856e-42
8.10087e-33
1.91169e-35
1.62531e-28
3.26259e-29
1.18867e-27
1.0859e-25
8.9574e-26
3.88234e-24
2.24653e-22
3.55184e-21
1.33245e-19
2.17149e-17
7.34861e-16
2.2765e-12
1.08946e-06
0.00132024
0.000362937
0.00110858
9.19682e-05
9.92792e-05
1.3399e-05
4.2946e-05
9.9578e-06
9.99314e-05
4.21011e-05
8.65836e-05
0.000238715
0.000521778
0.000965062
0.0303694
0.290214
0.470834
0.509385
0.521704
0.529446
0.526132
0.520439
0.516243
0.514148
0.513858
0.515004
0.517043
0.518311
0.519132
0.51906
0.51567
0.505825
0.482476
0.428768
0.327391
0.187324
0.0643513
0.00924601
0.000286077
7.25297e-29
2.14349e-30
4.71641e-29
3.57832e-29
5.64932e-29
2.95675e-29
9.75857e-30
9.39162e-30
2.0117e-29
1.17422e-29
5.72039e-30
7.05329e-30
3.41866e-30
5.86538e-30
9.1785e-34
1.16836e-34
5.64061e-32
1.84339e-33
7.4364e-38
8.11638e-30
2.13648e-28
8.47313e-30
5.00713e-26
4.07821e-25
2.78403e-24
1.725e-23
1.39225e-21
9.31496e-20
5.97289e-18
9.3761e-16
1.43957e-14
4.67872e-09
0.00012054
0.00121766
0.00175002
0.000888179
0.000452858
1.76091e-07
3.09609e-05
1.7243e-06
6.85947e-05
8.09694e-05
5.10522e-05
0.000109177
0.000294046
0.000575553
0.00261759
0.105754
0.386427
0.494291
0.513816
0.526174
0.5291
0.523903
0.518355
0.514738
0.513161
0.513216
0.514549
0.516585
0.517971
0.518933
0.518839
0.515276
0.505218
0.481532
0.42725
0.325349
0.185535
0.0635138
0.00909814
0.000281196
1.51173e-29
4.29091e-33
8.49578e-37
2.43059e-30
3.60647e-32
2.54241e-29
1.3069e-29
1.39828e-32
5.37486e-29
2.15337e-32
4.03118e-31
1.00376e-32
3.73012e-30
4.3352e-30
3.29418e-30
3.73133e-31
1.21573e-35
5.75692e-33
2.92978e-39
3.03614e-29
3.64328e-28
1.09765e-28
1.61798e-26
8.34954e-26
8.53804e-26
7.46021e-24
5.82877e-22
1.82435e-20
1.29717e-18
2.55718e-16
4.64098e-16
6.73888e-12
2.46833e-06
0.00135771
0.000675087
0.00118587
0.000239677
6.0534e-05