/*--------------------------------*- C++ -*----------------------------------*\
| =========                 |                                                 |
| \\      /  F ield         | OpenFOAM: The Open Source CFD Toolbox           |
|  \\    /   O peration     | Version:  v2012                                 |
|   \\  /    A nd           | Website:  www.openfoam.com                      |
|    \\/     M anipulation  |                                                 |
\*---------------------------------------------------------------------------*/
FoamFile
{
    version     2.0;
    format      ascii;
    class       volScalarField;
    location    "1901";
    object      Mg;
}
// * * * * * * * * * * * * * * * * * * * * * * * * * * * * * * * * * * * * * //

dimensions      [0 0 0 0 0 0 0];


internalField   nonuniform List<scalar> 
8000
(
4.78415e-25
3.57656e-24
1.24829e-24
6.27253e-24
2.62434e-24
3.89782e-25
4.01069e-24
5.82487e-24
8.51939e-25
2.69985e-25
5.48964e-24
4.66296e-24
2.1041e-24
3.79894e-24
9.20169e-26
8.32651e-24
7.82381e-24
3.18392e-24
5.1587e-24
1.46073e-24
2.20468e-25
3.27161e-24
3.77292e-24
6.98304e-24
1.37147e-24
4.89021e-24
3.43076e-24
2.74198e-25
5.2969e-24
5.817e-24
1.06175e-23
2.61853e-24
2.76925e-24
7.19354e-25
3.41572e-25
2.9568e-25
6.04428e-24
1.18889e-23
5.31536e-24
3.23116e-24
4.03122e-24
9.00255e-25
1.45264e-24
2.93986e-24
2.42213e-25
1.5659e-23
1.18574e-23
8.81126e-24
2.1689e-24
6.11966e-24
7.86695e-24
2.50435e-24
1.54917e-25
1.63167e-24
2.36088e-25
5.61734e-24
1.41644e-24
1.11977e-25
1.02423e-23
2.20873e-24
2.68637e-25
7.60893e-24
3.17407e-24
1.31241e-24
1.00883e-24
2.68875e-25
1.22545e-23
2.85777e-23
6.9389e-24
9.44241e-24
1.91075e-24
1.64688e-23
6.25203e-25
6.99847e-24
2.33648e-24
1.33715e-26
4.95907e-25
5.63476e-25
9.9612e-24
1.25539e-23
9.22454e-24
9.10916e-25
4.75367e-24
3.14893e-24
3.93242e-24
1.04541e-24
4.86071e-24
4.90517e-24
2.29871e-24
5.25028e-26
2.20083e-25
1.11414e-23
8.45506e-24
1.73283e-23
7.77002e-25
1.24905e-23
2.81659e-23
8.28094e-24
7.14198e-24
1.36904e-24
3.0907e-24
2.00327e-24
3.44795e-26
8.01131e-25
1.65045e-25
2.04169e-23
1.99411e-23
7.59409e-24
1.05705e-23
1.52484e-23
1.09429e-23
5.96642e-24
2.59437e-24
1.0029e-23
4.25453e-24
3.0783e-24
1.66607e-24
9.53905e-25
1.85422e-24
3.0381e-25
8.41593e-21
2.51671e-23
9.46186e-24
6.72193e-24
1.56861e-23
7.05632e-24
6.07467e-24
3.52499e-24
1.10003e-24
6.22788e-24
4.05195e-24
4.11082e-24
3.47818e-24
2.64653e-24
5.40309e-25
1.43838e-25
1.48892e-17
4.63072e-21
1.73405e-23
2.15539e-25
6.28938e-24
1.58768e-24
6.81575e-24
9.52702e-24
4.79416e-24
1.55001e-23
2.93253e-24
2.60935e-24
9.18684e-25
9.51293e-25
1.87092e-24
6.43401e-25
5.10802e-25
6.7827e-12
8.42119e-18
2.3881e-21
1.10202e-23
1.06807e-23
6.09944e-24
6.33792e-24
3.44424e-25
5.95435e-24
9.21847e-24
2.19717e-24
1.58981e-24
1.78063e-24
4.74226e-24
4.30726e-24
8.20345e-25
3.54982e-25
3.70447e-25
1.06302e-07
2.19291e-12
2.87987e-18
1.25884e-21
5.13162e-24
1.48286e-23
5.39306e-24
3.94143e-24
9.36629e-25
1.32128e-24
3.03284e-24
1.39163e-23
7.84414e-24
1.69308e-24
2.28792e-24
1.43597e-24
1.11769e-24
5.76919e-25
4.36421e-25
0.00178391
3.27988e-08
6.46033e-13
1.19737e-18
7.09954e-22
4.69472e-24
7.84798e-24
6.69266e-24
4.27272e-24
3.1577e-26
7.57565e-24
2.70998e-24
5.45793e-24
1.798e-24
3.34398e-24
3.04746e-24
1.23772e-24
1.29459e-24
2.56779e-25
3.33737e-25
0.00132332
0.0133435
1.48812e-08
1.93844e-13
4.77992e-19
4.37881e-22
1.28619e-23
1.75745e-25
1.40302e-23
1.37195e-23
9.80228e-24
3.11542e-25
2.69222e-24
6.80607e-24
1.69345e-24
1.44597e-24
9.36087e-25
1.14829e-24
1.27422e-24
2.81287e-25
1.87961e-25
0.000761495
0.0108669
0.00115061
6.48255e-09
6.32756e-14
2.38978e-19
3.08646e-22
4.88649e-24
4.01063e-25
6.2517e-24
6.35036e-24
4.62088e-24
3.3582e-24
2.81001e-24
3.16152e-24
2.14265e-24
3.9996e-24
1.95016e-24
2.11285e-24
5.58845e-25
2.20537e-25
3.70843e-26
0.000364548
0.00833564
0.00341623
0.000348396
3.47827e-09
2.40533e-14
1.25709e-19
2.58036e-22
7.44277e-24
5.71891e-24
2.69662e-24
6.10359e-24
1.29906e-23
9.24247e-25
5.8955e-25
7.3826e-24
2.31479e-24
3.69497e-24
2.41974e-24
1.95638e-24
1.04029e-24
2.9346e-25
8.00726e-26
0.000182253
0.00630484
0.00713567
0.000947018
0.000181252
1.66544e-09
1.08061e-14
7.37287e-20
1.99304e-22
2.0818e-23
6.0793e-24
4.19247e-24
8.35716e-24
2.65239e-25
1.6116e-24
2.01258e-24
4.13574e-24
1.99392e-24
2.54923e-25
9.2104e-25
1.86122e-24
9.62003e-25
2.52135e-25
7.26408e-27
0.000100291
0.00468033
0.00909658
0.00268692
0.000464651
0.000115891
8.23202e-10
5.70058e-15
4.56157e-20
1.43806e-22
6.74811e-24
4.85948e-24
7.45082e-24
5.07886e-25
1.61596e-24
9.70188e-25
1.9246e-24
1.75839e-24
3.31171e-24
2.11499e-24
2.79538e-24
8.34117e-25
1.326e-24
1.96508e-25
6.91181e-26
5.87503e-05
0.00335517
0.00841068
0.00599229
0.00119642
0.000291425
8.13875e-05
3.74332e-10
2.971e-15
3.06888e-20
1.15884e-22
5.97962e-24
4.64069e-24
3.60342e-24
2.85584e-24
3.86591e-24
2.48952e-24
5.49246e-24
3.59151e-24
1.56067e-24
1.94664e-24
1.28017e-24
8.0862e-25
4.09124e-25
3.86525e-25
6.49572e-26
3.34112e-05
0.00275324
0.00646221
0.0083562
0.0034327
0.000694344
0.000204591
6.1799e-05
1.59255e-10
1.29879e-15
2.06991e-20
7.80604e-23
4.87892e-24
4.43874e-24
3.20608e-24
4.90723e-24
2.08867e-25
1.18365e-23
7.16437e-25
4.50532e-24
1.42946e-24
1.87969e-24
6.62812e-25
7.14897e-25
7.74678e-25
4.47377e-25
5.13448e-27
1.70101e-05
0.00311221
0.0043026
0.00862427
0.0066713
0.00210973
0.000486513
0.000155932
4.94427e-05
5.9645e-11
4.39009e-16
1.40967e-20
5.90974e-23
3.33982e-24
9.84815e-25
1.16811e-23
1.07432e-23
6.65171e-24
2.34662e-24
1.77165e-24
5.45092e-24
2.62232e-24
3.40581e-24
3.91851e-25
6.59045e-25
3.66127e-25
1.09479e-24
5.4663e-26
7.00248e-06
0.00391826
0.00283022
0.0069753
0.00907217
0.00484413
0.00153875
0.000388857
0.000125996
4.12919e-05
1.86e-11
1.16061e-16
9.38605e-21
4.38296e-23
2.20529e-25
3.88325e-24
2.80145e-24
6.21747e-24
2.90425e-24
6.35726e-24
2.78617e-24
5.59267e-24
1.26016e-24
2.32275e-24
3.55407e-24
6.87629e-26
3.30492e-25
4.30256e-25
4.02946e-27
2.30014e-06
0.00398302
0.00205555
0.004812
0.00952838
0.00782503
0.00383784
0.00130411
0.000347671
0.000107216
3.59257e-05
4.45531e-12
2.51798e-17
6.05986e-21
2.03923e-23
9.48855e-24
6.85971e-24
5.00501e-24
7.32623e-24
1.583e-24
7.53448e-25
1.27283e-24
2.61193e-24
1.10804e-24
1.48114e-24
2.14609e-24
2.0557e-26
6.03081e-25
2.53286e-25
5.08849e-26
5.71785e-07
0.00245214
0.002137
0.00280851
0.00762808
0.0103289
0.0068878
0.00343387
0.00125595
0.000342093
9.65478e-05
3.26667e-05
8.21379e-13
5.91877e-18
3.85819e-21
1.76594e-23
1.18367e-24
4.04469e-24
2.39825e-24
3.50904e-24
4.34547e-25
4.94771e-25
2.39019e-24
2.40623e-24
1.18087e-24
7.54825e-25
8.67253e-26
4.0271e-26
5.56609e-25
3.27788e-25
4.33515e-26
1.05574e-07
0.000829809
0.00268222
0.0013368
0.00492829
0.0106213
0.00999383
0.00656745
0.00344531
0.00132368
0.000369154
9.35653e-05
3.10892e-05
1.13818e-13
2.47213e-18
2.36368e-21
1.66265e-23
4.04586e-24
8.9503e-24
4.32769e-24
8.06433e-24
3.19836e-24
3.23008e-24
5.61559e-24
8.34721e-25
1.91947e-24
1.04569e-24
2.1469e-24
5.8296e-26
1.29513e-24
1.00791e-25
3.07989e-26
1.47949e-08
0.000173589
0.00346863
0.00053737
0.00273934
0.00812211
0.0126418
0.00999767
0.00688085
0.00373688
0.00150746
0.000437452
9.79139e-05
3.12843e-05
1.4441e-14
1.28226e-18
1.40506e-21
7.42866e-24
7.434e-24
1.19438e-24
2.12603e-24
1.50256e-24
2.20755e-24
2.94204e-24
2.14076e-24
2.10073e-24
1.00091e-24
1.15085e-24
2.61684e-24
9.11549e-25
2.59946e-25
2.83653e-25
7.45113e-26
1.85579e-09
2.66197e-05
0.00409695
0.000440004
0.00139875
0.00480995
0.0120319
0.0140002
0.0108452
0.00768225
0.00434261
0.0018538
0.000552769
0.000105494
3.27042e-05
2.05111e-15
6.47447e-19
7.92175e-22
1.36121e-24
5.12271e-24
2.5279e-24
3.68954e-24
5.4177e-24
1.2002e-24
3.23132e-24
3.38191e-24
1.69984e-25
2.48757e-24
1.83811e-24
7.96405e-25
8.42544e-25
8.85723e-25
2.61365e-25
4.62788e-26
2.5335e-10
3.85832e-06
0.00323399
0.000778074
0.000848854
0.00242414
0.00836011
0.0159903
0.0155916
0.0124055
0.00912359
0.00540782
0.00240368
0.000692879
0.000123699
3.51577e-05
3.08859e-16
3.11429e-19
4.25451e-22
4.6987e-24
4.79072e-24
3.03281e-25
1.77854e-24
3.71458e-24
3.90826e-25
2.49912e-24
1.76513e-24
2.96093e-24
1.5646e-24
1.97213e-24
1.62177e-24
4.12137e-25
1.22723e-24
8.0655e-26
9.58282e-26
3.06945e-11
6.39719e-07
0.00163077
0.00149681
0.000650434
0.00114085
0.00439733
0.013377
0.0199343
0.0177699
0.0150212
0.0115144
0.00706237
0.00309355
0.000881399
0.00014365
3.72675e-05
7.26516e-17
1.42113e-19
2.22879e-22
3.3709e-24
1.65623e-24
6.02221e-25
2.1119e-25
6.9853e-25
7.74138e-25
5.90795e-24
8.3354e-25
2.73308e-24
2.12253e-24
2.27244e-24
7.26744e-26
3.93632e-25
1.99272e-25
2.26925e-25
2.98222e-26
2.71978e-12
8.93842e-08
0.000505064
0.00227806
0.000319185
0.00100023
0.00193132
0.00806187
0.0198129
0.0241392
0.0215023
0.0191675
0.0150656
0.00915284
0.00395237
0.00106604
0.000159465
3.87404e-05
2.67231e-17
6.10725e-20
1.07883e-22
8.33551e-25
5.50134e-24
2.69282e-25
1.44834e-24
3.34087e-24
3.06756e-24
6.9274e-26
2.9784e-24
1.51496e-24
2.66828e-24
4.2924e-25
4.89954e-25
7.58917e-25
7.03737e-25
7.06952e-26
8.22792e-26
1.8525e-13
8.78156e-09
9.60419e-05
0.00260523
8.42917e-05
0.0011767
0.000688979
0.00365198
0.0141706
0.0270701
0.0294423
0.0272948
0.0249744
0.0194079
0.0115772
0.0047759
0.00120702
0.000169202
3.94392e-05
9.60581e-18
2.45196e-20
4.80004e-23
1.62416e-24
1.51831e-24
1.87509e-24
4.0797e-24
2.99802e-24
1.96134e-24
4.96383e-24
1.39407e-24
2.81846e-24
6.43042e-25
2.43361e-26
5.1785e-25
6.98465e-26
1.12636e-25
3.80209e-26
5.05645e-26
1.41578e-14
6.53693e-10
1.14995e-05
0.002055
0.000313069
0.00107592
0.000674258
0.00133118
0.00716798
0.022845
0.0350587
0.0365325
0.0349985
0.0316227
0.0239798
0.0137915
0.00539048
0.00129005
0.000174547
3.96469e-05
3.12982e-18
9.12165e-21
2.1132e-23
1.82743e-24
4.07164e-24
1.7696e-24
3.83838e-24
1.08424e-24
5.24972e-24
2.87377e-24
2.58108e-24
5.11511e-26
1.19717e-24
3.67115e-25
2.68056e-25
3.3576e-25
3.05065e-25
6.4737e-27
4.11221e-27
2.52583e-15
4.59578e-11
1.02022e-06
0.00107492
0.000739037
0.00082961
0.000924317
0.000379885
0.00267138
0.0137033
0.0333947
0.0438486
0.0450912
0.042895
0.0379046
0.0278127
0.0153648
0.00574209
0.00133644
0.000176599
3.93709e-05
9.17597e-19
3.11758e-21
1.4277e-23
1.93471e-24
1.07246e-24
1.60449e-24
3.02824e-25
3.49292e-24
2.80021e-24
2.57641e-24
1.79719e-24
1.99476e-24
1.07033e-24
6.61714e-25
2.2779e-25
2.65551e-25
1.89508e-25
1.07972e-25
2.37678e-26
6.1381e-16
2.81252e-12
8.94112e-08
0.000350223
0.00112308
0.000402071
0.00111753
0.000380724
0.000757542
0.0056686
0.0237432
0.0443482
0.0526212
0.0526945
0.0499543
0.042581
0.0303175
0.0162236
0.00593566
0.00135438
0.000176263
3.87922e-05
2.40872e-19
9.76514e-22
5.39825e-24
1.78384e-24
1.57241e-24
1.5291e-24
2.2e-24
2.47e-24
2.26188e-24
1.62464e-24
1.09809e-24
5.24217e-25
1.27553e-25
6.19071e-25
8.05117e-25
1.31477e-26
1.36146e-25
1.1365e-25
6.00721e-27
1.32428e-16
1.31041e-13
6.55127e-09
6.6185e-05
0.00116906
4.46979e-05
0.00119317
0.000557393
0.000223553
0.00169425
0.0116768
0.0358064
0.0538958
0.0597757
0.0590137
0.0543416
0.0452795
0.0315882
0.0166892
0.00600508
0.00135341
0.000174323
3.80497e-05
5.67881e-20
2.78105e-22
4.38688e-24
1.33834e-24
2.90737e-24
1.6794e-24
3.09327e-24
8.04244e-25
2.13882e-24
8.38536e-25
3.42632e-25
1.0571e-24
4.34919e-25
5.76363e-25
2.38644e-25
4.64997e-25
1.36163e-25
4.37737e-26
1.73974e-27
2.43837e-17
1.09826e-14
3.31195e-10
6.99036e-06
0.000818948
0.000174469
0.000941068
0.000770967
0.00023455
0.000374744
0.00383364
0.0212658
0.0470557
0.0614592
0.0646274
0.0624463
0.0566477
0.04656
0.0322619
0.016829
0.00599462
0.00133965
0.000171304
3.71675e-05
1.22693e-20
7.16625e-23
5.41266e-24
3.81007e-25
6.56327e-25
3.79876e-24
9.6984e-25
2.01677e-24
9.65291e-25
7.29626e-25
9.85863e-25
3.63141e-25
1.26263e-24
2.88497e-25
8.92023e-25
2.13459e-25
1.12221e-25
8.71709e-26
1.8949e-26
3.74877e-18
2.19277e-15
1.31418e-11
4.41734e-07
0.000369847
0.000377285
0.000541342
0.000934331
0.00032296
0.000158362
0.000880034
0.00836657
0.0324887
0.0563592
0.0661012
0.067658
0.0642226
0.0576627
0.0471292
0.0323879
0.016781
0.00593147
0.00131672
0.000167719
3.62092e-05
2.51081e-21
2.59462e-23
1.24549e-24
1.16881e-24
5.64461e-24
1.27657e-24
1.00024e-24
6.21538e-25
1.82433e-24
7.49951e-25
8.84486e-25
1.78266e-24
4.04193e-25
7.33056e-25
4.43859e-25
4.08958e-25
1.19641e-26
1.00735e-26
4.66606e-27
4.69433e-19
3.99408e-16
4.50397e-13
2.19011e-08
9.76616e-05
0.000497598
0.000182886
0.000946206
0.000435981
0.000183561
0.000195822
0.00211851
0.015709
0.0436771
0.0625925
0.0692093
0.0692878
0.0648618
0.0579655
0.0471225
0.0322616
0.0166091
0.00582946
0.00128982
0.00016375
3.52906e-05
5.33754e-22
6.70802e-24
2.90373e-24
4.07222e-24
8.00953e-25
1.21033e-24
2.33874e-24
1.12515e-24
1.67591e-24
1.19537e-24
8.20769e-25
6.33565e-25
7.33897e-25
4.70702e-25
5.94817e-25
1.81343e-25
9.58709e-26
1.11319e-25
1.72483e-26
4.6891e-20
5.99846e-17
2.43001e-14
9.22779e-10
1.35471e-05
0.000427887
3.1321e-05
0.000747169
0.000557046
0.000215105
0.000159234
0.000383911
0.00478593
0.0255923
0.0528312
0.0662747
0.0715182
0.0699735
0.0650465
0.0578425
0.0468916
0.0319553
0.0163424
0.0057117
0.00125992
0.000159956
3.44132e-05
1.02371e-22
6.64911e-24
6.5296e-24
9.23833e-25
4.19507e-24
2.71067e-25
1.46874e-24
1.20638e-24
9.64718e-25
5.39953e-25
3.87082e-25
1.77937e-24
6.32669e-25
2.58677e-25
4.21858e-25
1.80469e-25
9.74567e-26
3.88247e-26
1.45987e-26
3.58171e-21
7.20497e-18
4.00165e-15
2.75911e-11
9.46153e-07
0.000233185
0.000119779
0.000451068
0.000627075
0.000254398
0.000166185
0.000183077
0.000904066
0.00975617
0.0361218
0.0590029
0.0690408
0.0727945
0.0701472
0.0648601
0.0575411
0.0464764
0.0315084
0.01604
0.00558165
0.00123142
0.000156157
3.3505e-05
2.37478e-23
8.00407e-24
1.32672e-24
3.43542e-24
8.1274e-25
1.04188e-24
2.0669e-24
1.48295e-24
2.36469e-25
5.56558e-25
1.39277e-24
4.80777e-25
3.18272e-25
3.89804e-25
6.14516e-26
1.61226e-25
2.44603e-25
3.29767e-26
1.42999e-26
2.12912e-22
6.67871e-19
5.99282e-16
6.45988e-13
3.72712e-08
7.30556e-05
0.000193099
0.000159223
0.000606065
0.000299593
0.000168602
0.000175187
0.000230881
0.00222808
0.0173797
0.0456731
0.0631039
0.0710936
0.0733426
0.0698821
0.0645227
0.0570837
0.045915
0.0310131
0.0157082
0.00545788
0.00120232
0.000152142
3.26028e-05
1.7027e-23
5.40649e-24
3.39975e-24
1.67168e-24
7.02466e-25
8.79601e-25
6.28981e-25
2.87147e-25
4.00301e-25
1.38196e-24
1.63655e-25
1.01329e-24
2.80828e-25
3.88427e-25
3.56775e-25
2.88607e-25
1.53169e-25
3.17727e-26
3.27398e-27
1.31327e-22
4.58308e-20
7.10844e-17
3.07116e-14
1.10062e-09
1.15672e-05
0.000194152
1.12101e-05
0.000466177
0.000346477
0.000167249
0.000166219
0.000201575
0.000326437
0.00498144
0.026921
0.0531414
0.066014
0.0725982
0.0732799
0.0694638
0.0640777
0.056503
0.0453128
0.0304746
0.0153922
0.00533104
0.00117143
0.000148142
3.17298e-05
3.24329e-23
7.244e-24
2.25506e-24
1.51227e-24
1.18959e-24
8.53267e-25
1.44387e-25
3.21822e-25
7.45098e-25
3.12821e-25
3.32674e-25
6.68319e-25
5.28262e-25
4.96882e-25
6.17993e-26
1.37083e-25
6.99417e-26
5.44752e-26
1.1343e-26
1.80541e-22
2.5333e-21
6.42391e-18
4.38193e-15
2.4547e-11
8.39967e-07
0.000116138
3.95326e-05
0.000266258
0.000365485
0.000170101
0.000149133
0.000188119
0.000180406
0.000839918
0.0101848
0.0371772
0.0582962
0.0683832
0.0732431
0.0729696
0.0689427
0.0635402
0.0558924
0.0446668
0.029961
0.0150668
0.00519654
0.00114068
0.000144218
3.09082e-05
4.36305e-23
3.91791e-24
1.13131e-24
2.15061e-24
1.4336e-25
1.02403e-25
5.68048e-25
1.60183e-24
5.49829e-25
8.06829e-25
8.13116e-25
2.24848e-25
7.16121e-25
1.76549e-25
2.05948e-25
1.24545e-25
6.72096e-26
2.64283e-26
1.02267e-26
1.67023e-22
4.45762e-22
4.24892e-19
5.19752e-16
4.21921e-13
2.91374e-08
3.80925e-05
7.74218e-05
9.17975e-05
0.000333783
0.000178594
0.000128395
0.000169806
0.000170548
0.00014411
0.00211215
0.0184537
0.0461249
0.0617239
0.0701146
0.0734949
0.0724747
0.0683408
0.0629858
0.055239
0.0440499
0.0294307
0.0147207
0.00506297
0.00111037
0.000140497
3.01056e-05
4.65583e-23
5.52698e-24
2.32279e-24
6.00909e-25
1.23832e-25
1.39677e-24
4.763e-25
8.64192e-25
7.58347e-26
7.66246e-25
2.83816e-25
5.27335e-25
6.74414e-26
2.91157e-25
9.79983e-26
1.59885e-26
6.0776e-26
1.116e-26
9.75844e-28
1.76423e-22
3.64102e-22
2.08515e-20
4.64167e-17
2.51144e-14
6.29212e-10
5.96236e-06
8.31523e-05
9.88707e-06
0.000238463
0.00019091
0.000110959
0.000142527
0.000161861
0.000125546
0.000272048
0.00537975
0.0285864
0.0524755
0.06449
0.0714106
0.0734018
0.0718505
0.0677439
0.0623927
0.0546115
0.0434138
0.0288715
0.014377
0.00493119
0.00108156
0.000136818
2.93308e-05
5.2558e-23
8.1199e-24
8.52072e-25
6.85633e-25
1.71024e-24
6.28342e-25
5.2437e-25
1.13336e-24
4.55242e-25
1.12647e-25
1.45364e-24
3.09392e-25
4.27528e-25
4.71434e-26
8.4434e-27
2.14405e-25
8.47488e-27
2.9266e-27
9.12609e-27
1.754e-22
1.52454e-22
1.44914e-21
2.98581e-18
2.99463e-15
9.92392e-12
3.92962e-07
4.94656e-05
1.6798e-05
0.000130539
0.000187095
0.000101365
0.000113394
0.000145902
0.000119864
4.946e-05
0.000825703
0.011674
0.0383523
0.0569263
0.0668193
0.0720533
0.0730778
0.07122
0.0671293
0.0618219
0.0539601
0.0427596
0.0283154
0.0140367
0.00480574
0.00105297
0.000133314
2.86156e-05
6.29648e-23
1.07438e-23
9.43208e-25
5.53084e-25
7.80112e-25
5.87821e-25
4.59412e-25
1.13245e-25
5.09936e-25
1.01528e-24
3.99436e-25
4.50891e-25
2.05368e-25
2.44218e-25
3.18045e-25
3.86826e-26
5.03381e-26
2.24488e-26
7.97412e-27
1.7586e-22
7.66697e-23
1.45843e-21
1.38335e-19
2.6729e-16
1.56506e-13
1.10691e-08
1.49967e-05
3.41712e-05
4.09264e-05
0.00016252
9.72527e-05
8.77124e-05
0.000122154
0.000111813
4.98554e-05
7.29773e-05
0.00263836
0.020668
0.0461575
0.0601972
0.0686086
0.0722754
0.0726738
0.0705742
0.0665545
0.061219
0.0532998
0.0421093
0.0277618
0.0137113
0.0046811
0.00102592
0.000130054
2.79254e-05
6.82982e-23
1.22368e-23
3.8038e-25
5.41705e-25
4.99793e-25
4.93371e-25
4.26185e-25
2.90611e-25
8.44561e-25
2.75131e-25
8.05144e-25
1.5451e-25
1.76656e-25
2.31662e-25
2.39348e-25
6.99951e-26
4.90184e-26
1.88329e-26
9.04651e-27
1.89955e-22
7.03699e-23
2.02478e-21
1.0773e-20
1.69121e-17
1.41853e-14
1.73331e-10
1.99999e-06
3.47435e-05
2.72011e-06
0.000109887
9.72832e-05
6.79024e-05
9.60062e-05
0.000102555
5.23912e-05
6.27328e-06
0.000311612
0.0069033
0.0305423
0.0517004
0.0630218
0.0698293
0.0722435
0.0722063
0.0699755
0.0659563
0.0605856
0.0526414
0.0414596
0.0272289
0.013387
0.00456332
0.00100068
0.000126868
2.7268e-05
7.29167e-23
1.3044e-23
9.18897e-25
4.56902e-25
3.85358e-25
5.46972e-25
3.80307e-25
8.11851e-25
8.29293e-25
4.74783e-25
2.29341e-25
7.20558e-26
3.46185e-25
1.0903e-25
9.95802e-26
8.68403e-26
5.05205e-26
1.883e-26
7.72772e-27
2.00357e-22
1.26078e-22
2.43198e-21
9.33983e-21
7.49419e-19
1.28433e-15
1.89859e-12
1.02407e-07
1.83782e-05
9.2755e-06
5.42867e-05
9.08014e-05
5.59939e-05
7.04374e-05
8.80514e-05
5.49523e-05
4.45679e-06
5.46402e-05
0.00121026
0.0141043
0.0393902
0.05576
0.0653404
0.0705338
0.0720333
0.0717483
0.0693563
0.0653272
0.0599493
0.0519807
0.0408307
0.0266952
0.0130798
0.00445314
0.000975882
0.000123865
2.66416e-05
7.7143e-23
1.39643e-23
1.28708e-24
4.55806e-25
8.72256e-25
7.49904e-26
1.34894e-24
6.08108e-25
4.14167e-25
3.75521e-25
1.78195e-25
4.04012e-25
1.38842e-25
8.02712e-26
7.38109e-26
7.92954e-26
4.10057e-26
3.2187e-26
1.47349e-26
1.99868e-22
1.18299e-22
2.63949e-21
9.98782e-21
4.67858e-20
8.10124e-17
5.7586e-14
2.07753e-09
4.52448e-06
1.61964e-05
1.46769e-05
7.33722e-05
5.0232e-05
4.97483e-05
7.05816e-05
5.78801e-05
6.39976e-06
2.97609e-05
0.000109707
0.00382913
0.0232529
0.0461862
0.0589838
0.0671796
0.0708489
0.0717627
0.0712369
0.0686781
0.0646989
0.0593077
0.0513377
0.0401992
0.0261873
0.012791
0.00434476
0.000952622
0.000120971
2.60351e-05
7.73947e-23
1.25662e-23
6.76898e-25
6.41399e-25
7.27741e-25
1.21834e-24
7.86331e-25
1.1995e-24
2.42347e-25
2.43873e-25
2.01102e-25
3.65919e-26
1.42157e-25
1.08393e-25
1.21464e-25
6.97406e-26
5.91774e-26
1.57089e-26
1.29718e-26
2.00947e-22
7.79264e-23
2.60765e-21
1.01496e-20
2.74587e-20
3.44021e-18
5.28803e-15
2.26815e-11
4.41486e-07
1.35945e-05
1.19873e-06
4.51298e-05
4.73052e-05
3.59464e-05
5.22353e-05
5.47847e-05
1.04612e-05
1.97413e-05
6.15593e-05
0.000496086
0.00909804
0.0325095
0.051112
0.061821
0.0684062
0.0709572
0.0713933
0.0706357
0.0679999
0.0640719
0.0586809
0.0506908
0.0395956
0.0257059
0.0125057
0.00424314
0.000930116
0.00011817
2.54626e-05
7.08888e-23
1.01074e-23
8.41793e-25
9.25156e-25
1.02252e-24
8.99942e-25
1.50446e-24
2.25814e-25
1.39846e-25
3.09305e-26
1.80839e-25
1.51081e-25
1.30689e-25
2.51808e-25
7.61125e-26
8.63094e-27
7.06163e-27
2.64304e-26
3.87595e-27
1.98457e-22
7.60188e-23
2.30331e-21
9.53883e-21
2.47639e-20
1.36213e-19
3.37115e-16
2.47582e-13
1.49977e-08
5.57598e-06
5.66155e-06
1.86991e-05
4.20732e-05
2.81778e-05
3.64776e-05
4.68241e-05
1.43647e-05
1.38303e-05
4.90062e-05
3.83678e-05
0.00198215
0.0169014
0.0403496
0.0548745
0.0641739
0.06923
0.070856
0.0709615
0.070013
0.0673319
0.0634646
0.0580491
0.0500709
0.0390189
0.0252279
0.0122376
0.00414464
0.000908356
0.000115532
2.49117e-05
6.147e-23
7.21378e-24
6.02601e-25
9.65722e-25
1.09525e-24
1.06659e-24
3.14165e-25
2.64748e-25
1.484e-25
1.76471e-25
1.51896e-25
5.02093e-26
2.49879e-25
1.58471e-25
5.43609e-26
7.38469e-26
3.95417e-26
1.34137e-26
5.92129e-27
1.84026e-22
1.29679e-22
1.79821e-21
8.80212e-21
2.27418e-20
2.44647e-20
1.39592e-17
1.88694e-14
1.96158e-10
9.56255e-07
7.49617e-06
3.97352e-06
3.01973e-05
2.48607e-05
2.4785e-05
3.66357e-05
1.86806e-05
7.98713e-06
3.6556e-05
4.00366e-05
0.000182804
0.00554123
0.0258578
0.046253
0.0581225
0.0661067
0.0696232
0.0706177
0.0705003
0.0693844
0.0666942
0.0628576
0.0574439
0.0494744
0.0384441
0.0247761
0.0119767
0.00404941
0.000887877
0.000112965
2.43782e-05
4.94819e-23
4.80295e-24
4.60185e-25
1.30906e-24
3.8666e-25
1.86761e-25
5.37556e-25
5.60735e-26
1.25318e-25
4.63607e-26
1.33904e-25
4.37212e-25
1.07524e-25
2.97277e-26
5.37648e-26
1.70918e-26
3.50082e-26
4.73491e-26
4.78677e-27
1.56856e-22
1.81566e-22
1.31828e-21
7.82014e-21
2.20212e-20
1.14085e-20
4.10776e-19
1.23885e-15
1.50452e-12
5.74537e-08
4.62908e-06
1.39426e-06
1.64483e-05
2.19887e-05
1.76656e-05
2.62377e-05
1.99544e-05
3.36173e-06
2.38904e-05
3.74578e-05
1.75303e-05
0.000967616
0.0116787
0.0343036
0.0507536
0.0610059
0.0673295
0.0697419
0.0703028
0.070014
0.0687737
0.0660681
0.0622822
0.0568582
0.0488782
0.0378979
0.0243339
0.0117238
0.00395971
0.000867875
0.000110479
2.38708e-05
3.75145e-23
3.89845e-24
9.03705e-25
3.95052e-25
8.20362e-25
2.49138e-25
2.21091e-25
3.66781e-25
1.62844e-25
1.79734e-25
2.42515e-25
1.59413e-25
1.56836e-26
1.35727e-25
1.29729e-25
5.64617e-26
8.27886e-26
2.22878e-26
4.49017e-27
1.23476e-22
2.02371e-22
8.89825e-22
6.39061e-21
2.05459e-20
1.3118e-20
3.06249e-19
5.12109e-17
5.85774e-14
1.10888e-09
1.26581e-06
3.20209e-06
4.95089e-06
1.81599e-05
1.38564e-05
1.7646e-05
1.86665e-05
2.01781e-06
1.33423e-05
2.76106e-05
2.23907e-05
7.53683e-05
0.00316924
0.0197533
0.0412335
0.0543235
0.0633907
0.068111
0.0696813
0.0699289
0.069524
0.0681676
0.065486
0.0617263
0.0562707
0.0483098
0.0373604
0.0239032
0.0114847
0.00387197
0.000848515
0.000108107
2.33765e-05
2.75427e-23
2.46024e-24
5.93062e-25
5.7477e-25
3.18438e-25
8.18554e-26
8.98447e-26
1.30701e-25
1.75964e-25
1.82307e-25
1.25321e-25
7.26671e-26
9.49071e-26
6.92119e-26
1.20761e-25
9.74497e-26
2.62965e-26
2.03138e-26
4.32206e-27
9.04423e-23
1.94621e-22
5.44697e-22
4.88905e-21
1.78793e-20
2.02735e-20
2.2532e-19
1.64248e-18
4.03546e-15
8.8675e-12
1.26541e-07
2.95146e-06
2.73796e-07
1.16016e-05
1.19016e-05
1.17041e-05
1.50736e-05
3.00419e-06
6.64348e-06
1.92981e-05
2.05187e-05
2.03793e-05
0.000459596
0.00765019
0.0282952
0.0464548
0.0576058
0.06523
0.0685187
0.0694905
0.0695264
0.0690195
0.0676028
0.0649311
0.0611684
0.0557101
0.0477486
0.0368348
0.0234934
0.01125
0.00378702
0.000830029
0.000105786
2.29076e-05
1.76023e-23
1.02124e-24
5.6521e-25
5.67121e-25
5.25099e-25
6.10107e-25
1.31213e-25
3.6166e-25
3.99575e-25
1.54533e-25
1.07543e-25
1.31212e-25
6.94644e-26
1.5653e-26
8.96632e-26
4.9758e-26
2.55133e-26
1.95645e-26
3.92621e-27
6.11715e-23
1.64375e-22
3.13431e-22
3.43489e-21
1.42885e-20
2.56486e-20
1.30415e-19
1.07669e-18
1.72126e-16
1.59119e-13
3.88951e-09
1.21333e-06
1.16415e-06
4.86274e-06
1.01409e-05
8.10111e-06
1.08856e-05
4.51029e-06
2.61718e-06
1.20621e-05
1.3892e-05
2.08322e-05
5.08394e-05
0.00171688
0.014427
0.0359606
0.0506012
0.0604803
0.0664427
0.0686617
0.0692211
0.0690919
0.0685413
0.0670624
0.0643792
0.060638
0.0551549
0.0471988
0.0363314
0.0230888
0.0110222
0.00370583
0.000811914
0.000103611
2.24717e-05
1.13129e-23
7.1343e-25
5.87415e-25
4.00309e-25
3.99258e-25
1.81246e-25
3.40712e-25
1.02666e-25
2.21595e-25
4.16549e-26
1.09475e-25
1.10823e-25
1.19295e-26
5.884e-26
6.61397e-26
8.93547e-26
2.4826e-26
2.12113e-26
7.10872e-27
3.81249e-23
1.22285e-22
2.01651e-22
2.21472e-21
1.06933e-20
2.59363e-20
6.84514e-20
8.06103e-19
5.6903e-18
1.14732e-14
3.85505e-11
1.9103e-07
1.56301e-06
9.70365e-07
7.03191e-06
6.37959e-06
7.25986e-06
5.52247e-06
5.11204e-07
6.79493e-06
9.63155e-06
1.30133e-05
2.17034e-05
0.000218904
0.00472509
0.022533
0.0420475
0.054126
0.0628795
0.0671901
0.0686264
0.0688853
0.0686739
0.068074
0.0665219
0.0638608
0.0601126
0.0546105
0.0466695
0.0358317
0.0226939
0.0108037
0.00362625
0.000795011
0.000101578
2.20459e-05
7.18834e-24
5.65938e-25
6.35408e-25
4.73139e-25
3.60329e-26
5.18567e-25
2.04542e-25
1.64956e-25
1.81316e-25
1.47324e-25
1.29598e-25
4.2655e-26
8.36973e-26
4.57422e-26
6.5257e-26
3.63225e-26
1.48982e-26
1.60521e-26
1.10522e-27
2.43789e-23
7.79427e-23
1.54613e-22
1.29449e-21
7.55313e-21
2.26897e-20
3.20146e-20
5.78073e-19
2.02595e-18
5.07399e-16
3.96361e-13
9.34928e-09
8.72036e-07
2.75704e-07
3.70984e-06
5.2314e-06
4.88005e-06
5.18125e-06
5.26736e-07
3.28056e-06
6.90542e-06
6.54943e-06
1.61435e-05
3.56644e-05
0.000890275
0.010041
0.0305365
0.0467825
0.0574091
0.0645966
0.0675917
0.0684543
0.0685428
0.0682626
0.0675921
0.0660142
0.0633515
0.0595977
0.0540843
0.0461425
0.0353414
0.0223133
0.0105891
0.003552
0.000779181
9.957e-05
2.16328e-05
4.32596e-24
5.97666e-25
2.42067e-25
2.34246e-25
4.97239e-25
5.65536e-26
1.28384e-25
2.53879e-25
1.85175e-25
9.36833e-26
9.3583e-26
1.049e-25
8.18021e-26
4.5486e-26
5.41483e-26
4.28248e-26
3.91607e-26
8.08486e-27
5.89922e-27
1.48589e-23
4.67101e-23
1.19772e-22
6.26332e-22
4.92421e-21
1.8383e-20
1.87055e-20
3.80867e-19
1.73642e-18
1.41625e-17
2.82457e-14
1.28017e-10
1.99842e-07
7.08116e-07
1.00078e-06
4.08724e-06
3.57372e-06
4.09632e-06
1.26827e-06
1.17983e-06
4.94507e-06
4.29407e-06
8.2358e-06
1.85257e-05
0.000117038
0.00276968
0.0172395
0.0374323
0.0506686
0.0602602
0.0657736
0.0677185
0.0682234
0.0681956
0.0678306
0.0671319
0.0655161
0.0628561
0.059098
0.0535592
0.0456241
0.0348665
0.0219378
0.0103883
0.00348232
0.000763494
9.76378e-05
2.12381e-05
2.99913e-24
1.51352e-25
7.0352e-25
3.77457e-25
1.35491e-25
1.06511e-25
1.62194e-25
1.05465e-25
1.66424e-25
2.43151e-25
1.45296e-25
1.57122e-25
7.09605e-26
5.03928e-26
5.94522e-26
4.1858e-26
2.10225e-26
8.29017e-27
5.54978e-27
9.73043e-24
2.61009e-23
7.93677e-23
2.71751e-22
2.87696e-21
1.31793e-20
1.98221e-20
2.19847e-19
1.33638e-18
2.26964e-18
1.30779e-15
9.67674e-13
1.48371e-08
5.62057e-07
9.03867e-08
2.40866e-06
2.8721e-06
2.97619e-06
1.7133e-06
3.91516e-07
3.21201e-06
3.4742e-06
3.31585e-06
9.29375e-06
3.06804e-05
0.000459755
0.00663097
0.0251879
0.0428545
0.0542299
0.0626174
0.0664366
0.0676853
0.0679601
0.0678184
0.0674156
0.066673
0.0650324
0.0623733
0.0585981
0.0530472
0.0451207
0.0343966
0.0215849
0.0101992
0.00341321
0.000748446
9.57845e-05
2.08488e-05
1.20538e-24
5.24375e-25
3.56091e-25
1.49256e-25
2.02241e-26
2.47879e-26
2.88649e-25
9.81429e-26
1.58883e-25
2.14106e-25
1.41779e-25
1.0248e-25
6.33082e-26
4.01878e-26
1.00101e-26
8.13292e-27
1.85445e-26
1.22648e-26
2.67968e-27
5.17698e-24
1.51693e-23
4.80289e-23
1.38434e-22
1.4059e-21
8.48606e-21
2.12942e-20
9.83086e-20
9.58619e-19
2.37561e-18
3.19825e-17
6.21696e-14
2.92525e-10
1.71383e-07
2.86622e-07
8.12716e-07
2.32458e-06
2.11055e-06
1.7135e-06
1.96697e-07
1.8226e-06
2.79923e-06
1.54856e-06
3.86915e-06
1.66534e-05
7.46229e-05
0.00154804
0.0126499
0.0326242
0.0472486
0.0574854
0.0641572
0.0667769
0.0675589
0.067649
0.0674516
0.0669992
0.066222
0.0645503
0.061889
0.0581187
0.0525488
0.0446223
0.0339525
0.0212502
0.0100111
0.00334695
0.000733992
9.39453e-05
2.04705e-05
1.14144e-24
3.12261e-25
1.12902e-25
1.88137e-25
1.47668e-25
1.03649e-25
2.75571e-25
1.89014e-25
1.43252e-25
2.67688e-25
1.5114e-26
8.86997e-26
2.48981e-26
2.03597e-26
1.54896e-26
3.35085e-26
1.55384e-26
6.62209e-27
2.44489e-27
2.77763e-24
1.01592e-23
2.66292e-23
9.21976e-23
5.57784e-22
4.97926e-21
1.79488e-20
3.44292e-20
5.93547e-19
2.16039e-18
8.14495e-18
3.02981e-15
2.14974e-12
1.82153e-08
2.94012e-07
1.25224e-07
1.47044e-06
1.61417e-06
1.43092e-06
2.76403e-07
8.82878e-07
2.10936e-06
1.02561e-06
1.37296e-06
7.46054e-06
2.76943e-05
0.000243379
0.00415625
0.0200902
0.0388105
0.0509538
0.0602584
0.0651829
0.066906
0.0673454
0.0673358
0.0670792
0.0665881
0.0657702
0.0640608
0.061425
0.0576508
0.0520545
0.0441497
0.0335283
0.020916
0.00983045
0.00328323
0.000719623
9.21698e-05
2.01029e-05
3.39083e-25
3.44558e-25
3.20688e-25
1.96433e-25
2.31197e-25
1.73352e-25
2.20854e-25
3.20146e-26
1.18732e-25
8.57012e-26
4.45568e-26
8.46907e-26
1.63717e-26
4.37849e-26
6.97076e-26
5.32733e-26
3.98781e-27
1.08417e-26
2.2391e-27
1.47687e-24
5.65428e-24
1.34415e-23
4.91295e-23
1.70308e-22
2.55429e-21
1.29298e-20
1.64044e-20
3.15229e-19
1.56317e-18
1.988e-18
5.61601e-17
1.20568e-13
5.12915e-10
1.21258e-07
1.07133e-07
6.10065e-07
1.24292e-06
1.07738e-06
4.0394e-07
3.14687e-07
1.37976e-06
8.84458e-07
5.12009e-07
3.11405e-06
1.50648e-05
5.4598e-05
0.000829278
0.00885946
0.027734
0.0436987
0.0545296
0.0623838
0.0657933
0.0668674
0.0671027
0.0670088
0.0667087
0.0661948
0.0653084
0.0635885
0.0609743
0.0571857
0.0515846
0.0436957
0.0331035
0.0205938
0.00965622
0.00321985
0.000705789
9.04252e-05
1.97372e-05
1.20842e-25
1.17837e-25
2.19633e-25
1.88923e-25
2.16794e-25
1.75894e-25
1.38742e-25