/*--------------------------------*- C++ -*----------------------------------*\
| =========                 |                                                 |
| \\      /  F ield         | OpenFOAM: The Open Source CFD Toolbox           |
|  \\    /   O peration     | Version:  v2012                                 |
|   \\  /    A nd           | Website:  www.openfoam.com                      |
|    \\/     M anipulation  |                                                 |
\*---------------------------------------------------------------------------*/
FoamFile
{
    version     2.0;
    format      ascii;
    class       volScalarField;
    location    "1901";
    object      nk;
}
// * * * * * * * * * * * * * * * * * * * * * * * * * * * * * * * * * * * * * //

dimensions      [0 0 0 0 0 0 0];


internalField   nonuniform List<scalar> 
8000
(
1.37072e-18
8.08462e-20
1.43282e-18
1.88475e-20
8.42244e-20
1.43745e-18
8.33086e-21
1.92571e-20
8.54398e-20
1.43759e-18
5.04455e-21
8.42876e-21
1.96412e-20
8.64793e-20
1.4376e-18
4.04273e-21
5.08425e-21
8.57871e-21
2.00407e-20
8.84392e-20
1.4376e-18
4.04273e-21
4.04273e-21
5.15884e-21
8.76313e-21
2.05439e-20
8.9165e-20
1.4376e-18
4.04273e-21
4.04273e-21
4.04273e-21
5.26062e-21
8.97545e-21
2.08972e-20
8.93353e-20
1.4376e-18
4.04273e-21
4.04273e-21
4.04273e-21
4.04273e-21
5.38085e-21
9.17009e-21
2.1186e-20
8.9368e-20
1.4376e-18
4.04273e-21
4.04273e-21
4.04273e-21
4.04273e-21
4.04273e-21
5.50474e-21
9.349e-21
2.14414e-20
8.93738e-20
1.4376e-18
4.04273e-21
4.04273e-21
4.04273e-21
4.04273e-21
4.04273e-21
4.04273e-21
5.62633e-21
9.51429e-21
2.15782e-20
8.93749e-20
1.4376e-18
4.04273e-21
4.04273e-21
4.04273e-21
4.04273e-21
4.04273e-21
4.04273e-21
4.05137e-21
5.74253e-21
9.64889e-21
2.16323e-20
8.93752e-20
1.4376e-18
4.04273e-21
4.04273e-21
4.04273e-21
4.04273e-21
4.04273e-21
4.04273e-21
4.04273e-21
4.11387e-21
5.84725e-21
9.75052e-21
2.165e-20
8.93753e-20
1.4376e-18
4.04273e-21
4.04273e-21
4.04273e-21
4.04273e-21
4.04273e-21
4.04273e-21
4.04273e-21
4.04273e-21
4.18973e-21
5.93729e-21
9.808e-21
2.16553e-20
8.93753e-20
1.4376e-18
4.04273e-21
4.04273e-21
4.04273e-21
4.04273e-21
4.04273e-21
4.04273e-21
4.04273e-21
4.04273e-21
4.04273e-21
4.2637e-21
6.00688e-21
9.83356e-21
2.16568e-20
8.93753e-20
1.4376e-18
4.04273e-21
4.04273e-21
4.04273e-21
4.04273e-21
4.04273e-21
4.04273e-21
4.04273e-21
4.04273e-21
4.04273e-21
4.04273e-21
4.32812e-21
6.0504e-21
9.84324e-21
2.16572e-20
8.93753e-20
1.4376e-18
1.51714e-18
4.04273e-21
4.04273e-21
4.04273e-21
4.04273e-21
4.04273e-21
4.04273e-21
4.04273e-21
4.04273e-21
4.04273e-21
4.04273e-21
4.3773e-21
6.07186e-21
9.84656e-21
2.16573e-20
8.93753e-20
1.4376e-18
2.25002e-14
7.93989e-19
4.04273e-21
4.04273e-21
4.04273e-21
4.04273e-21
4.04273e-21
4.04273e-21
4.04273e-21
4.04273e-21
4.04273e-21
4.04273e-21
4.40767e-21
6.08072e-21
9.84766e-21
2.16574e-20
8.93753e-20
1.4376e-18
2.70402e-10
9.77156e-15
3.08188e-19
4.04273e-21
4.04273e-21
4.04273e-21
4.04273e-21
4.04273e-21
4.04273e-21
4.04273e-21
4.04273e-21
4.04273e-21
4.04273e-21
4.42264e-21
6.084e-21
9.84802e-21
2.16574e-20
8.93753e-20
1.4376e-18
2.6144e-06
9.29881e-11
3.31291e-15
1.11345e-19
4.04273e-21
4.04273e-21
4.04273e-21
4.04273e-21
4.04273e-21
4.04273e-21
4.04273e-21
4.04273e-21
4.04273e-21
4.04273e-21
4.42887e-21
6.08515e-21
9.84815e-21
2.16574e-20
8.93753e-20
1.4376e-18
6.66316e-07
0.0532707
2.85822e-11
1.14698e-15
4.50053e-20
4.04273e-21
4.04273e-21
4.04273e-21
4.04273e-21
4.04273e-21
4.04273e-21
4.04273e-21
4.04273e-21
4.04273e-21
4.04273e-21
4.43122e-21
6.08555e-21
9.8482e-21
2.16574e-20
8.93753e-20
1.4376e-18
1.99368e-07
0.00427547
0.0659868
1.02651e-11
4.66712e-16
2.18468e-20
4.04273e-21
4.04273e-21
4.04273e-21
4.04273e-21
4.04273e-21
4.04273e-21
4.04273e-21
4.04273e-21
4.04273e-21
4.04273e-21
4.43206e-21
6.0857e-21
9.84822e-21
2.16574e-20
8.93753e-20
1.4376e-18
7.80574e-08
0.00115817
0.00245989
0.0616357
4.51629e-12
2.16725e-16
1.23161e-20
4.04273e-21
4.04273e-21
4.04273e-21
4.04273e-21
4.04273e-21
4.04273e-21
4.04273e-21
4.04273e-21
4.04273e-21
4.04273e-21
4.43236e-21
6.08575e-21
9.84822e-21
2.16574e-20
8.93753e-20
1.4376e-18
3.68154e-08
0.000477324
0.000880878
0.00128921
0.0612724
2.19787e-12
1.04564e-16
7.82439e-21
4.04273e-21
4.04273e-21
4.04273e-21
4.04273e-21
4.04273e-21
4.04273e-21
4.04273e-21
4.04273e-21
4.04273e-21
4.04273e-21
4.43248e-21
6.08578e-21
9.84823e-21
2.16574e-20
8.93753e-20
1.4376e-18
1.84463e-08
0.000231694
0.000473184
0.000435771
0.00112273
0.0611997
1.07957e-12
4.89441e-17
5.59351e-21
4.04273e-21
4.04273e-21
4.04273e-21
4.04273e-21
4.04273e-21
4.04273e-21
4.04273e-21
4.04273e-21
4.04273e-21
4.04273e-21
4.43252e-21
6.08579e-21
9.84823e-21
2.16574e-20
8.93753e-20
1.4376e-18
9.14854e-09
0.000118774
0.000275662
0.000363131
0.00027079
0.00109206
0.061179
5.08058e-13
2.06996e-17
4.52215e-21
4.04273e-21
4.04273e-21
4.04273e-21
4.04273e-21
4.04273e-21
4.04273e-21
4.04273e-21
4.04273e-21
4.04273e-21
4.04273e-21
4.43254e-21
6.08579e-21
9.84823e-21
2.16574e-20
8.93753e-20
1.4376e-18
4.31794e-09
6.04386e-05
0.000169263
0.00027814
0.000276908
0.000221283
0.00107926
0.0611712
2.14139e-13
7.028e-18
4.10632e-21
4.04273e-21
4.04273e-21
4.04273e-21
4.04273e-21
4.04273e-21
4.04273e-21
4.04273e-21
4.04273e-21
4.04273e-21
4.04273e-21
4.43255e-21
6.08579e-21
9.84823e-21
2.16574e-20
8.93753e-20
1.4376e-18
1.81374e-09
2.9297e-05
0.000107742
0.000188393
0.000293161
0.000228977
0.000214019
0.00108245
0.0611763
7.11709e-14
1.80693e-18
4.04273e-21
4.04273e-21
4.04273e-21
4.04273e-21
4.04273e-21
4.04273e-21
4.04273e-21
4.04273e-21
4.04273e-21
4.04273e-21
4.04273e-21
4.43255e-21
6.08579e-21
9.84823e-21
2.16574e-20
8.93753e-20
1.4376e-18
5.913e-10
1.26251e-05
6.87955e-05
0.000123198
0.00024449
0.000292119
0.000226687
0.000233741
0.00110214
0.0611959
1.76842e-14
3.29419e-19
4.04273e-21
4.04273e-21
4.04273e-21
4.04273e-21
4.04273e-21
4.04273e-21
4.04273e-21
4.04273e-21
4.04273e-21
4.04273e-21
4.04273e-21
4.43256e-21
6.08579e-21
9.84823e-21
2.16574e-20
8.93753e-20
1.4376e-18
1.42809e-10
4.26029e-06
4.27787e-05
8.18109e-05
0.000166539
0.000296703
0.000314161
0.000268693
0.000289965
0.00114568
0.0612386
3.02549e-15
4.36078e-20
4.04273e-21
4.04273e-21
4.04273e-21
4.04273e-21
4.04273e-21
4.04273e-21
4.04273e-21
4.04273e-21
4.04273e-21
4.04273e-21
4.04273e-21
4.43256e-21
6.08579e-21
9.84823e-21
2.16574e-20
8.93753e-20
1.4376e-18
2.32757e-11
1.02979e-06
2.52689e-05
5.53707e-05
0.000103041
0.000253977
0.000369961
0.00039125
0.000377982
0.000402407
0.00123343
0.0613281
3.40073e-16
7.30336e-21
4.04273e-21
4.04273e-21
4.04273e-21
4.04273e-21
4.04273e-21
4.04273e-21
4.04273e-21
4.04273e-21
4.04273e-21
4.04273e-21
4.04273e-21
4.43256e-21
6.08579e-21
9.84823e-21
2.16574e-20
8.93753e-20
1.4376e-18
2.42788e-12
1.63043e-07
1.38844e-05
3.73604e-05
6.54981e-05
0.0001667
0.000365413
0.000500535
0.000570889
0.000592913
0.000623341
0.00140794
0.0614964
2.59809e-17
4.19505e-21
4.04273e-21
4.04273e-21
4.04273e-21
4.04273e-21
4.04273e-21
4.04273e-21
4.04273e-21
4.04273e-21
4.04273e-21
4.04273e-21
4.04273e-21
4.43256e-21
6.08579e-21
9.84823e-21
2.16574e-20
8.93753e-20
1.4376e-18
1.69624e-13
1.60104e-08
7.03276e-06
2.45259e-05
4.39293e-05
9.53331e-05
0.00029741
0.000538435
0.000763973
0.000916523
0.00101424
0.0010652
0.00171431
0.0616989
1.70763e-18
4.04273e-21
4.04273e-21
4.04273e-21
4.04273e-21
4.04273e-21
4.04273e-21
4.04273e-21
4.04273e-21
4.04273e-21
4.04273e-21
4.04273e-21
4.04273e-21
4.43256e-21
6.08579e-21
9.84823e-21
2.16574e-20
8.93753e-20
1.4376e-18
1.10318e-14
1.03699e-09
3.16885e-06
1.53013e-05
3.02404e-05
5.58522e-05
0.00017714
0.000527358
0.000873004
0.00125197
0.00159236
0.00185608
0.00186743
0.0020962
0.0619851
1.42118e-19
4.04273e-21
4.04273e-21
4.04273e-21
4.04273e-21
4.04273e-21
4.04273e-21
4.04273e-21
4.04273e-21
4.04273e-21
4.04273e-21
4.04273e-21
4.04273e-21
4.43256e-21
6.08579e-21
9.84823e-21
2.16574e-20
8.93753e-20
1.4376e-18
9.99739e-16
6.90405e-11
1.13139e-06
8.96795e-06
2.06109e-05
3.56382e-05
9.08882e-05
0.000372629
0.000933234
0.0014791
0.0022015
0.00293895
0.0033814
0.00297648
0.00262122
0.0622194
1.52969e-20
4.04273e-21
4.04273e-21
4.04273e-21
4.04273e-21
4.04273e-21
4.04273e-21
4.04273e-21
4.04273e-21
4.04273e-21
4.04273e-21
4.04273e-21
4.04273e-21
4.43256e-21
6.08579e-21
9.84823e-21
2.16574e-20
8.93753e-20
1.4376e-18
8.46409e-17
6.99369e-12
2.90199e-07
4.84214e-06
1.35678e-05
2.39745e-05
4.89037e-05
0.000190254
0.000784597
0.00160965
0.00265234
0.0040809
0.00535512
0.00553239
0.00433096
0.00304976
0.0623741
4.62333e-21
4.04273e-21
4.04273e-21
4.04273e-21
4.04273e-21
4.04273e-21
4.04273e-21
4.04273e-21
4.04273e-21
4.04273e-21
4.04273e-21
4.04273e-21
4.04273e-21
4.43256e-21
6.08579e-21
9.84823e-21
2.16574e-20
8.93753e-20
1.4376e-18
4.58326e-18
5.98681e-13
4.70936e-08
2.38181e-06
8.4535e-06
1.63773e-05
2.93685e-05
8.69867e-05
0.000459939
0.00155699
0.00290878
0.00494453
0.00738808
0.00874774
0.00806658
0.00542976
0.00333858
0.0624517
4.04273e-21
4.04273e-21
4.04273e-21
4.04273e-21
4.04273e-21
4.04273e-21
4.04273e-21
4.04273e-21
4.04273e-21
4.04273e-21
4.04273e-21
4.04273e-21
4.04273e-21
4.43256e-21
6.08579e-21
9.84823e-21
2.16574e-20
8.93753e-20
1.4376e-18
1.76584e-19
3.05392e-14
4.23496e-09
1.06123e-06
4.91106e-06
1.09171e-05
1.91101e-05
4.31301e-05
0.000199852
0.00109176
0.00299287
0.00538978
0.00885276
0.011905
0.0126048
0.010106
0.00616868
0.00349016
0.0625134
4.04273e-21
4.04273e-21
4.04273e-21
4.04273e-21
4.04273e-21
4.04273e-21
4.04273e-21
4.04273e-21
4.04273e-21
4.04273e-21
4.04273e-21
4.04273e-21
4.04273e-21
4.43256e-21
6.08579e-21
9.84823e-21
2.16574e-20
8.93753e-20
1.4376e-18
1.04572e-20
1.08766e-15
2.03589e-10
4.05999e-07
2.64895e-06
6.98011e-06
1.27814e-05
2.44576e-05
8.21286e-05
0.000521998
0.00237619
0.0055617
0.00944387
0.0139138
0.0167886
0.0156478
0.0114733
0.00656265
0.00359274
0.0625401
4.04273e-21
4.04273e-21
4.04273e-21
4.04273e-21
4.04273e-21
4.04273e-21
4.04273e-21
4.04273e-21
4.04273e-21
4.04273e-21
4.04273e-21
4.04273e-21
4.04273e-21
4.43256e-21
6.08579e-21
9.84823e-21
2.16574e-20
8.93753e-20
1.4376e-18
4.21598e-21
4.23194e-17
6.9138e-12
1.15899e-07
1.31713e-06
4.21961e-06
8.42931e-06
1.5276e-05
3.78915e-05
0.000198194
0.00132999
0.00464327
0.00945366
0.0143504
0.0190638
0.0204884
0.0176674
0.0122223
0.00682853
0.00364559
0.0625578
4.04273e-21
4.04273e-21
4.04273e-21
4.04273e-21
4.04273e-21
4.04273e-21
4.04273e-21
4.04273e-21
4.04273e-21
4.04273e-21
4.04273e-21
4.04273e-21
4.04273e-21
4.43256e-21
6.08579e-21
9.84823e-21
2.16574e-20
8.93753e-20
1.4376e-18
4.04273e-21
1.55064e-18
2.90437e-13
2.03049e-08
5.91983e-07
2.38827e-06
5.38531e-06
9.89766e-06
2.03026e-05
7.56813e-05
0.000529228
0.0029417
0.00789972
0.01385
0.019082
0.0227697
0.0228939
0.0188027
0.0127261
0.00696667
0.0036877
0.0625772
4.04273e-21
4.04273e-21
4.04273e-21
4.04273e-21
4.04273e-21
4.04273e-21
4.04273e-21
4.04273e-21
4.04273e-21
4.04273e-21
4.04273e-21
4.04273e-21
4.04273e-21
4.43256e-21
6.08579e-21
9.84823e-21
2.16574e-20
8.93753e-20
1.4376e-18
4.04273e-21
4.16891e-20
1.08459e-14
1.82974e-09
2.3567e-07
1.24774e-06
3.28121e-06
6.38405e-06
1.21174e-05
3.30016e-05
0.000182361
0.00133046
0.00536819
0.0115664
0.0177631
0.0223716
0.0251652
0.0242867
0.0195615
0.0129917
0.00707583
0.00372033
0.0625922
4.04273e-21
4.04273e-21
4.04273e-21
4.04273e-21
4.04273e-21
4.04273e-21
4.04273e-21
4.04273e-21
4.04273e-21
4.04273e-21
4.04273e-21
4.04273e-21
4.04273e-21
4.43256e-21
6.08579e-21
9.84823e-21
2.16574e-20
8.93753e-20
1.4376e-18
4.04273e-21
4.70444e-21
2.47516e-16
7.63914e-11
7.7855e-08
5.96853e-07
1.8896e-06
4.00233e-06
7.58054e-06
1.67195e-05
6.65421e-05
0.000461085
0.00279001
0.0082836
0.014811
0.0205062
0.024568
0.0266304
0.0252047
0.0199734
0.0131995
0.00715981
0.00373919
0.0625958
4.04273e-21
4.04273e-21
4.04273e-21
4.04273e-21
4.04273e-21
4.04273e-21
4.04273e-21
4.04273e-21
4.04273e-21
4.04273e-21
4.04273e-21
4.04273e-21
4.04273e-21
4.43256e-21
6.08579e-21
9.84823e-21
2.16574e-20
8.93753e-20
1.4376e-18
4.04273e-21
4.04273e-21
4.52099e-18
1.62257e-12
1.81871e-08
2.59539e-07
1.01586e-06
2.40806e-06
4.74968e-06
9.48754e-06
2.77234e-05
0.000150928
0.00106327
0.00486925
0.0110587
0.0171357
0.0224243
0.0259693
0.0275829
0.0257424
0.020298
0.0133589
0.00720857
0.00375899
0.0625999
4.04273e-21
4.04273e-21
4.04273e-21
4.04273e-21
4.04273e-21
4.04273e-21
4.04273e-21
4.04273e-21
4.04273e-21
4.04273e-21
4.04273e-21
4.04273e-21
4.04273e-21
4.43256e-21
6.08579e-21
9.84823e-21
2.16574e-20
8.93753e-20
1.4376e-18
4.04273e-21
4.04273e-21
8.17234e-20
2.93145e-14
2.38921e-09
1.00372e-07
5.05821e-07
1.3796e-06
2.90109e-06
5.70241e-06
1.33462e-05
5.37763e-05
0.000337228
0.00217401
0.00716073
0.0131765
0.0188887
0.0237305
0.0269329
0.0282283
0.026181
0.0205518
0.013454
0.0072592
0.00377693
0.0626143
4.04273e-21
4.04273e-21
4.04273e-21
4.04273e-21
4.04273e-21
4.04273e-21
4.04273e-21
4.04273e-21
4.04273e-21
4.04273e-21
4.04273e-21
4.04273e-21
4.04273e-21
4.43256e-21
6.08579e-21
9.84823e-21
2.16574e-20
8.93753e-20
1.4376e-18
4.04273e-21
4.04273e-21
4.99931e-21
5.24961e-16
1.43084e-10
3.3109e-08
2.29618e-07
7.45048e-07
1.70423e-06
3.45677e-06
7.22907e-06
2.17131e-05
0.000108525
0.000737557
0.00374874
0.00922681
0.0149007
0.0202529
0.0247004
0.0276529
0.028777
0.0265433
0.0207148
0.0135498
0.00730466
0.00379575
0.0626233
4.04273e-21
4.04273e-21
4.04273e-21
4.04273e-21
4.04273e-21
4.04273e-21
4.04273e-21
4.04273e-21
4.04273e-21
4.04273e-21
4.04273e-21
4.04273e-21
4.04273e-21
4.43256e-21
6.08579e-21
9.84823e-21
2.16574e-20
8.93753e-20
1.4376e-18
4.04273e-21
4.04273e-21
4.04273e-21
6.54423e-18
3.50174e-12
8.27141e-09
9.43408e-08
3.76678e-07
9.54045e-07
2.04892e-06
4.17873e-06
1.00738e-05
3.83283e-05
0.000226024
0.00147164
0.00551965
0.0109251
0.0163557
0.0213473
0.0254832
0.0282846
0.02926
0.0268091
0.0208765
0.0136356
0.00735202
0.00380751
0.0626209
4.04273e-21
4.04273e-21
4.04273e-21
4.04273e-21
4.04273e-21
4.04273e-21
4.04273e-21
4.04273e-21
4.04273e-21
4.04273e-21
4.04273e-21
4.04273e-21
4.04273e-21
4.43256e-21
6.08579e-21
9.84823e-21
2.16574e-20
8.93753e-20
1.4376e-18
4.04273e-21
4.04273e-21
4.04273e-21
7.04455e-20
4.18909e-14
1.24184e-09
3.44421e-08
1.76255e-07
5.08948e-07
1.16622e-06
2.44798e-06
5.27149e-06
1.52836e-05
7.23795e-05
0.000465119
0.00259678
0.00723488
0.0124393
0.0175951
0.0222702
0.0261901
0.0288582
0.029661
0.0270743
0.0210245
0.0137247
0.00738198
0.00381451
0.0626223
4.04273e-21
4.04273e-21
4.04273e-21
4.04273e-21
4.04273e-21
4.04273e-21
4.04273e-21
4.04273e-21
4.04273e-21
4.04273e-21
4.04273e-21
4.04273e-21
4.04273e-21
4.43256e-21
6.08579e-21
9.84823e-21
2.16574e-20
8.93753e-20
1.4376e-18
4.04273e-21
4.04273e-21
4.04273e-21
4.55073e-21
4.2232e-16
8.57284e-11
1.08057e-08
7.49906e-08
2.55796e-07
6.35556e-07
1.4022e-06
2.95017e-06
7.01239e-06
2.52772e-05
0.000141998
0.000924994
0.00401985
0.00878311
0.0137867
0.0186754
0.0231016
0.0268374
0.0293648
0.0300639
0.0273275
0.0211767
0.0137831
0.00739967
0.00382078
0.0626309
4.04273e-21
4.04273e-21
4.04273e-21
4.04273e-21
4.04273e-21
4.04273e-21
4.04273e-21
4.04273e-21
4.04273e-21
4.04273e-21
4.04273e-21
4.04273e-21
4.04273e-21
4.43256e-21
6.08579e-21
9.84823e-21
2.16574e-20
8.93753e-20
1.4376e-18
4.04273e-21
4.04273e-21
4.04273e-21
4.04273e-21
3.62484e-18
2.22999e-12
2.61405e-09
2.86392e-08
1.20643e-07
3.29364e-07
7.73815e-07
1.67106e-06
3.61874e-06
1.00125e-05
4.52104e-05
0.0002857
0.001725
0.00551026
0.010165
0.0150035
0.0196493
0.0238669
0.027425
0.0298716
0.0304611
0.0275837
0.0212853
0.0138175
0.00741509
0.00382435
0.0626375
4.04273e-21
4.04273e-21
4.04273e-21
4.04273e-21
4.04273e-21
4.04273e-21
4.04273e-21
4.04273e-21
4.04273e-21
4.04273e-21
4.04273e-21
4.04273e-21
4.04273e-21
4.43256e-21
6.08579e-21
9.84823e-21
2.16574e-20
8.93753e-20
1.4376e-18
4.04273e-21
4.04273e-21
4.04273e-21
4.04273e-21
2.80518e-20
2.25594e-14
3.8568e-10
9.68184e-09
5.25305e-08
1.62798e-07
4.07565e-07
9.26833e-07
1.98031e-06
4.59578e-06
1.56556e-05
8.74272e-05
0.000588629
0.00284039
0.00692417
0.0114631
0.0161128
0.0205427
0.0245684
0.028009
0.0303761
0.0308577
0.0277894
0.021356
0.013847
0.00742326
0.00382676
0.0626359
4.04273e-21
4.04273e-21
4.04273e-21
4.04273e-21
4.04273e-21
4.04273e-21
4.04273e-21
4.04273e-21
4.04273e-21
4.04273e-21
4.04273e-21
4.04273e-21
4.04273e-21
4.43256e-21
6.08579e-21
9.84823e-21
2.16574e-20
8.93753e-20
1.4376e-18
4.04273e-21
4.04273e-21
4.04273e-21
4.04273e-21
4.10809e-21
1.45554e-16
2.5534e-11
2.7922e-09
2.07186e-08
7.5966e-08
2.05184e-07
4.94217e-07
1.09108e-06
2.35638e-06
6.23019e-06
2.74491e-05
0.000185291
0.00113973
0.00410555
0.00822939
0.0126688
0.0171327
0.0213626
0.0252501
0.0285919
0.0308771
0.0312042
0.0279457
0.0214182
0.0138632
0.00742868
0.00382649
0.0626335
4.04273e-21
4.04273e-21
4.04273e-21
4.04273e-21
4.04273e-21
4.04273e-21
4.04273e-21
4.04273e-21
4.04273e-21
4.04273e-21
4.04273e-21
4.04273e-21
4.04273e-21
4.43256e-21
6.08579e-21
9.84823e-21
2.16574e-20
8.93753e-20
1.4376e-18
4.04273e-21
4.04273e-21
4.04273e-21
4.04273e-21
4.04273e-21
8.1494e-19
5.8843e-13
6.11572e-10
7.27701e-09
3.31919e-08
9.83482e-08
2.522e-07
5.86119e-07
1.26667e-06
2.88181e-06
9.43028e-06
5.6714e-05
0.000388355
0.00196816
0.00538026
0.00945521
0.0137945
0.0180714
0.0221445
0.0259211
0.0291694
0.0313349
0.0314899
0.0280893
0.0214603
0.0138744
0.00742763
0.00382813
0.0626318
4.04273e-21
4.04273e-21
4.04273e-21
4.04273e-21
4.04273e-21
4.04273e-21
4.04273e-21
4.04273e-21
4.04273e-21
4.04273e-21
4.04273e-21
4.04273e-21
4.04273e-21
4.43256e-21
6.08579e-21
9.84823e-21
2.16574e-20
8.93753e-20
1.4376e-18
4.04273e-21
4.04273e-21
4.04273e-21
4.04273e-21
4.04273e-21
7.56807e-21
4.63427e-15
7.84753e-11
2.23996e-09
1.33695e-08
4.49618e-08
1.22676e-07
3.02868e-07
6.79176e-07
1.47076e-06
3.77649e-06
1.73899e-05
0.000124947
0.000762023
0.00300717
0.00660734
0.0106355
0.0148411
0.0189557
0.0229027
0.026578
0.0297107
0.031754
0.0317596
0.0282073
0.0214943
0.0138739
0.00743131
0.00382892
0.0626301
4.04273e-21
4.04273e-21
4.04273e-21
4.04273e-21
4.04273e-21
4.04273e-21
4.04273e-21
4.04273e-21
4.04273e-21
4.04273e-21
4.04273e-21
4.04273e-21
4.04273e-21
4.43256e-21
6.08579e-21
9.84823e-21
2.16574e-20
8.93753e-20
1.4376e-18
4.04273e-21
4.04273e-21
4.04273e-21
4.04273e-21
4.04273e-21
4.04273e-21
2.03162e-17
4.18801e-12
5.77443e-10
4.82563e-09
1.94025e-08
5.70518e-08
1.49475e-07
3.53998e-07
7.75128e-07
1.75452e-06
5.85128e-06
3.80534e-05
0.000265482
0.00135954
0.00413318
0.00777053
0.0117542
0.0158235
0.0198022
0.0236363
0.0271991
0.0302205
0.0321542
0.0320008
0.0283122
0.0215108
0.0138813
0.00743305
0.00382714
0.0626299
4.04273e-21
4.04273e-21
4.04273e-21
4.04273e-21
4.04273e-21
4.04273e-21
4.04273e-21
4.04273e-21
4.04273e-21
4.04273e-21
4.04273e-21
4.04273e-21
4.04273e-21
4.43256e-21
6.08579e-21
9.84823e-21
2.16574e-20
8.93753e-20
1.4376e-18
4.04273e-21
4.04273e-21
4.04273e-21
4.04273e-21
4.04273e-21
4.04273e-21
7.772e-20
7.0064e-14
1.07723e-10
1.53618e-09
7.82074e-09
2.52721e-08
7.04837e-08
1.77072e-07
4.0412e-07
8.85475e-07
2.31752e-06
1.14534e-05
8.70844e-05
0.000520766
0.00217422
0.00525968
0.00889457
0.0128149
0.0167568
0.0206124
0.024332
0.0277881
0.0307095
0.0325251
0.0322239
0.0283951
0.0215373
0.0138856
0.00742819
0.003827
0.0626291
4.04273e-21
4.04273e-21
4.04273e-21
4.04273e-21
4.04273e-21
4.04273e-21
4.04273e-21
4.04273e-21
4.04273e-21
4.04273e-21
4.04273e-21
4.04273e-21
4.04273e-21
4.43256e-21
6.08579e-21
9.84823e-21
2.16574e-20
8.93753e-20
1.4376e-18
4.04273e-21
4.04273e-21
4.04273e-21
4.04273e-21
4.04273e-21
4.04273e-21
4.18508e-21
3.73506e-16
1.0687e-11
4.21983e-10
2.88586e-09
1.06889e-08
3.16811e-08
8.47114e-08
2.03887e-07
4.55307e-07
1.06175e-06
3.75314e-06
2.64861e-05
0.000185217
0.000942313
0.00313491
0.0063584
0.0099891
0.0138254
0.0176431
0.0213802
0.0249916
0.0283515
0.0311694
0.0328738
0.0324232
0.0284866
0.0215587
0.0138779
0.00742735
0.0038251
0.0626283
4.04273e-21
4.04273e-21
4.04273e-21
4.04273e-21
4.04273e-21
4.04273e-21
4.04273e-21
4.04273e-21
4.04273e-21
4.04273e-21
4.04273e-21
4.04273e-21
4.04273e-21
4.43256e-21
6.08579e-21
9.84823e-21
2.16574e-20
8.93753e-20
1.4376e-18
4.04273e-21
4.04273e-21
4.04273e-21
4.04273e-21
4.04273e-21
4.04273e-21
4.04273e-21
1.13198e-18
3.86724e-13
9.32742e-11
9.41475e-10
4.25647e-09
1.36369e-08
3.86465e-08
9.87407e-08
2.29799e-07
5.22813e-07
1.44214e-06
7.86773e-06
6.11542e-05
0.000362234
0.00156082
0.00415302
0.00742238
0.0110487
0.0147843
0.0184816
0.022108
0.02562
0.0288839
0.0316052
0.0331987
0.0326268
0.0285689
0.021562
0.013877
0.00742211
0.00382287
0.0626268
4.04273e-21
4.04273e-21
4.04273e-21
4.04273e-21
4.04273e-21
4.04273e-21
4.04273e-21
4.04273e-21
4.04273e-21
4.04273e-21
4.04273e-21
4.04273e-21
4.04273e-21
4.43256e-21
6.08579e-21
9.84823e-21
2.16574e-20
8.93753e-20
1.4376e-18
4.04273e-21
4.04273e-21
4.04273e-21
4.04273e-21
4.04273e-21
4.04273e-21
4.04273e-21
6.74519e-21
3.86618e-15
1.35033e-11
2.67517e-10
1.57258e-09
5.59164e-09
1.68611e-08
4.56975e-08
1.12022e-07
2.59843e-07
6.39295e-07
2.49913e-06
1.85278e-05
0.000130401
0.000658962
0.00235081
0.00517363
0.0084756
0.0120634
0.0156921
0.0192757
0.0227995
0.0262141
0.0293889
0.0320176
0.0335226
0.0328159
0.0286277
0.0215739
0.0138683
0.00741596
0.00382101
0.0626241
4.04273e-21
4.04273e-21
4.04273e-21
4.04273e-21
4.04273e-21
4.04273e-21
4.04273e-21
4.04273e-21
4.04273e-21
4.04273e-21
4.04273e-21
4.04273e-21
4.04273e-21
4.43256e-21
6.08579e-21
9.84823e-21
2.16574e-20
8.93753e-20
1.4376e-18
4.04273e-21
4.04273e-21
4.04273e-21
4.04273e-21
4.04273e-21
4.04273e-21
4.04273e-21
4.04273e-21
1.25482e-17
8.85016e-13
6.38764e-11
5.24546e-10
2.1849e-09
7.01853e-09
2.02259e-08
5.23918e-08
1.26225e-07
3.03417e-07
9.15612e-07
5.43418e-06
4.28529e-05
0.000255102
0.00111683
0.00324559
0.0061822
0.00950805
0.0130316
0.0165528
0.0200289
0.0234531
0.026777
0.0298695
0.0324249
0.033828
0.0329786
0.0286935
0.021574
0.0138576
0.0074108
0.00381733
0.062622
4.04273e-21
4.04273e-21
4.04273e-21
4.04273e-21
4.04273e-21
4.04273e-21
4.04273e-21
4.04273e-21
4.04273e-21
4.04273e-21
4.04273e-21
4.04273e-21
4.04273e-21
4.43256e-21
6.08579e-21
9.84823e-21
2.16574e-20
8.93753e-20
1.4376e-18
4.04273e-21
4.04273e-21
4.04273e-21
4.04273e-21
4.04273e-21
4.04273e-21
4.04273e-21
4.04273e-21
2.99484e-20
1.76306e-14
1.1361e-11
1.52636e-10
7.98906e-10
2.798e-09
8.54613e-09
2.34847e-08
5.91442e-08
1.44958e-07
3.84835e-07
1.67354e-06
1.28701e-05
9.19183e-05
0.000465284
0.00174506
0.00418312
0.00717409
0.0105133
0.0139542
0.0173685
0.0207405
0.0240713
0.027313
0.0303403
0.0328115
0.0341059
0.0331432
0.0287431
0.0215703
0.0138486
0.00740111
0.00381339
0.0626205
4.04273e-21
4.04273e-21
4.04273e-21
4.04273e-21
4.04273e-21
4.04273e-21
4.04273e-21
4.04273e-21
4.04273e-21
4.04273e-21
4.04273e-21
4.04273e-21
4.04273e-21
4.43256e-21
6.08579e-21
9.84823e-21
2.16574e-20
8.93753e-20
1.4376e-18
4.04273e-21
4.04273e-21
4.04273e-21
4.04273e-21
4.04273e-21
4.04273e-21
4.04273e-21
4.04273e-21
4.04273e-21
8.77886e-17
1.11578e-12
3.79214e-11
2.68499e-10
1.06278e-09
3.45564e-09
1.00714e-08
2.664e-08
6.7548e-08
1.73598e-07
5.8159e-07
3.71847e-06
2.99051e-05
0.000180728
0.000798759
0.00250942
0.0051266
0.00816873
0.011483
0.0148305
0.0181388
0.0214125
0.0246591
0.0278343
0.0307887
0.0331708
0.0343801
0.0332884
0.028786
0.0215682
0.0138313
0.00739064
0.00380913
0.0626183
4.04273e-21
4.04273e-21
4.04273e-21
4.04273e-21
4.04273e-21
4.04273e-21
4.04273e-21
4.04273e-21
4.04273e-21
4.04273e-21
4.04273e-21
4.04273e-21
4.04273e-21
4.43256e-21
6.08579e-21
9.84823e-21
2.16574e-20
8.93753e-20
1.4376e-18
4.04273e-21
4.04273e-21
4.04273e-21
4.04273e-21
4.04273e-21
4.04273e-21
4.04273e-21
4.04273e-21
4.04273e-21
1.7633e-19
3.93679e-14
7.53815e-12
7.9343e-11
3.81967e-10
1.3363e-09
4.13502e-09
1.15189e-08
3.03574e-08
7.90401e-08
2.29786e-07
1.1103e-06
8.88842e-06
6.44828e-05
0.000330709
0.00128436
0.00335174
0.00606457
0.00915309
0.0124122
0.0156594
0.0188651
0.0220501
0.0252267
0.0283313
0.0312094
0.0335221
0.0346332
0.0334235
0.0288278
0.0215536
0.0138124
0.00737936
0.00380386
0.0626161
4.04273e-21
4.04273e-21
4.04273e-21
4.04273e-21
4.04273e-21
4.04273e-21
4.04273e-21
4.04273e-21
4.04273e-21
4.04273e-21
4.04273e-21
4.04273e-21
4.04273e-21
4.43256e-21
6.08579e-21
9.84823e-21
2.16574e-20
8.93753e-20
1.4376e-18
4.04273e-21
4.04273e-21
4.04273e-21
4.04273e-21
4.04273e-21
4.04273e-21
4.04273e-21
4.04273e-21
4.04273e-21
4.20204e-21
3.42468e-16
9.72848e-13
2.00947e-11
1.27454e-10
4.93516e-10
1.62464e-09
4.78218e-09
1.31135e-08
3.51874e-08
9.77201e-08
3.66172e-07
2.52767e-06
2.06645e-05
0.000127853
0.000571486
0.00191619
0.00422551
0.007009
0.0101147
0.013296
0.0164412
0.0195526
0.0226619
0.0257674
0.0288
0.0316183
0.0338514
0.0348733
0.033553
0.0288527
0.0215356
0.0137921
0.00736551
0.00380026
0.0626135
4.04273e-21
4.04273e-21
4.04273e-21
4.04273e-21
4.04273e-21
4.04273e-21
4.04273e-21
4.04273e-21
4.04273e-21
4.04273e-21
4.04273e-21
4.04273e-21
4.04273e-21
4.43256e-21
6.08579e-21
9.84823e-21
2.16574e-20
8.93753e-20
1.4376e-18
4.04273e-21
4.04273e-21
4.04273e-21
4.04273e-21
4.04273e-21
4.04273e-21
4.04273e-21
4.04273e-21
4.04273e-21
4.04273e-21
7.94824e-19
5.41972e-14
4.21038e-12
3.8258e-11
1.73732e-10
6.10215e-10
1.90441e-09
5.44435e-09
1.51258e-08
4.21982e-08
1.35675e-07
7.31333e-07
6.05902e-06
4.48027e-05
0.000234843
0.000937864
0.00265634
0.00511323
0.00795945
0.0110412
0.0141328
0.0171804
0.0202083
0.0232436
0.0262783
0.0292533
0.0320047
0.0341659
0.035103
0.0336622
0.0288714
0.0215149
0.0137669
0.0073559
0.00379633
0.0626102
4.04273e-21
4.04273e-21
4.04273e-21
4.04273e-21
4.04273e-21
4.04273e-21
4.04273e-21
4.04273e-21
4.04273e-21
4.04273e-21
4.04273e-21
4.04273e-21
4.04273e-21
4.43256e-21
6.08579e-21
9.84823e-21
2.16574e-20
8.93753e-20
1.4376e-18
4.04273e-21
4.04273e-21
4.04273e-21
4.04273e-21
4.04273e-21
4.04273e-21
4.04273e-21
4.04273e-21
4.04273e-21
4.04273e-21
5.02761e-21
8.20389e-16
6.28436e-13
9.8338e-12
5.72165e-11
2.19426e-10
7.26372e-10
2.17551e-09
6.25963e-09
1.78897e-08
5.42255e-08
2.28636e-07
1.69302e-06
1.40729e-05
8.93527e-05
0.000409058
0.00144669
0.00345947
0.00600476
0.00890143
0.0119269
0.0149249
0.0178822
0.0208304
0.0237937
0.0267699
0.0296834
0.0323744
0.0344666
0.0353107
0.0337619
0.0288847
0.0214867
0.0137493
0.0073456
0.00379068
0.0626076
4.04273e-21
4.04273e-21
4.04273e-21
4.04273e-21
4.04273e-21
4.04273e-21
4.04273e-21
4.04273e-21
4.04273e-21
4.04273e-21
4.04273e-21
4.04273e-21
4.04273e-21
4.43256e-21
6.08579e-21
9.84823e-21
2.16574e-20
8.93753e-20
1.4376e-18
4.04273e-21
4.04273e-21
4.04273e-21
4.04273e-21
4.04273e-21
4.04273e-21
4.04273e-21
4.04273e-21
4.04273e-21
4.04273e-21
4.04273e-21
2.68519e-18
4.7958e-14
2.11568e-12
1.71655e-11
7.52037e-11
2.65328e-10
8.36349e-10
2.49294e-09
7.34604e-09
2.21547e-08
7.92197e-08
4.74524e-07
4.05248e-06
3.05013e-05
0.000166233
0.000681702
0.00208263
0.00429043
0.0069124
0.00981886
0.0127697
0.0156751
0.0185467
0.0214187
0.0243204
0.0272368
0.0300949
0.0327274
0.0347443
0.035506
0.0338526
0.0288877
0.0214689
0.0137306
0.00733093
0.00378593
0.0626048
4.04273e-21
4.04273e-21
4.04273e-21
4.04273e-21
4.04273e-21
4.04273e-21
4.04273e-21
4.04273e-21
4.04273e-21
4.04273e-21
4.04273e-21
4.04273e-21
4.04273e-21
4.43256e-21
6.08579e-21
9.84823e-21
2.16574e-20
8.93753e-20
1.4376e-18
4.04273e-21
4.04273e-21
4.04273e-21
4.04273e-21
4.04273e-21
4.04273e-21
4.04273e-21
4.04273e-21
4.04273e-21
4.04273e-21
4.04273e-21
7.31521e-21
1.14356e-15
3.5026e-13
4.45896e-12
2.42521e-11
9.28253e-11
3.09197e-10
9.56112e-10
2.91083e-09
8.93304e-09
2.96353e-08
1.40746e-07
1.10822e-06
9.34413e-06
6.17085e-05
0.000292632
0.00108221
0.00280636
0.0051345
0.00782266
0.0107029
0.0135691
0.0163846
0.0191746
0.0219796
0.0248206
0.0276829
0.0304872
0.0330566
0.0350075
0.0356891
0.0339306
0.0289009
0.0214492
0.013704
0.00731846
0.00378082
0.0626014
4.04273e-21
4.04273e-21
4.04273e-21
4.04273e-21
4.04273e-21
4.04273e-21
4.04273e-21
4.04273e-21
4.04273e-21
4.04273e-21
4.04273e-21
4.04273e-21
4.04273e-21
4.43256e-21
6.08579e-21
9.84823e-21
2.16574e-20
8.93753e-20
1.4376e-18
4.04273e-21
4.04273e-21
4.04273e-21
4.04273e-21
4.04273e-21
4.04273e-21
4.04273e-21
4.04273e-21
4.04273e-21
4.04273e-21
4.04273e-21
4.04273e-21
5.70289e-18
3.33409e-14
9.68921e-13
7.21748e-12
3.09013e-11
1.09914e-10
3.53811e-10
1.11195e-09
3.49869e-09
1.1417e-08
4.55742e-08
3.00397e-07
2.63218e-06
2.04285e-05
0.000116811
0.000494963
0.00161383
0.00357714
0.00598963
0.00872619
0.0115475
0.0143259
0.0170548
0.0197713
0.0225119
0.0252977
0.0281073
0.0308549
0.033368
0.0352563
0.0358581
0.0340157
0.0289099
0.0214174
0.0136811
0.00730512
0.00377463
0.0625984
4.04273e-21
4.04273e-21
4.04273e-21
4.04273e-21
4.04273e-21
4.04273e-21
4.04273e-21
4.04273e-21
4.04273e-21
4.04273e-21
4.04273e-21
4.04273e-21
4.04273e-21
4.43256e-21
6.08579e-21
9.84823e-21
2.16574e-20
8.93753e-20
1.4376e-18
4.04273e-21
4.04273e-21
4.04273e-21
4.04273e-21
4.04273e-21
4.04273e-21
4.04273e-21
4.04273e-21
4.04273e-21
4.04273e-21
4.04273e-21
4.04273e-21
1.15413e-20
1.14954e-15
1.66434e-13
1.87561e-12
9.79012e-12
3.73549e-11
1.26454e-10
4.09644e-10
1.32394e-09
4.36841e-09
1.59197e-08
8.46272e-08
7.02834e-07
6.08972e-06
4.2057e-05
0.000209214
0.000802855
0.00225135
0.00437431
0.00686685
0.00960286
0.0123513
0.0150411
0.0176898
0.0203367
0.0230186
0.0257514
0.028506
0.031204
0.0336637
0.0354904
0.0360301
0.0340928
0.0289031
0.0213905
0.0136567
0.00728903
0.00376918
0.0625944
4.04273e-21
4.04273e-21
4.04273e-21
4.04273e-21
4.04273e-21
4.04273e-21
4.04273e-21
4.04273e-21
4.04273e-21
4.04273e-21
4.04273e-21
4.04273e-21
4.04273e-21
4.43256e-21
6.08579e-21
9.84823e-21
2.16574e-20
8.93753e-20
1.4376e-18
4.04273e-21
4.04273e-21
4.04273e-21
4.04273e-21
4.04273e-21
4.04273e-21
4.04273e-21
4.04273e-21
4.04273e-21
4.04273e-21
4.04273e-21
4.04273e-21
4.04273e-21
8.70767e-18
1.83217e-14
4.11259e-13
2.86508e-12
1.2177e-11
4.34851e-11
1.45739e-10
4.83559e-10
1.62893e-09
5.76882e-09
2.56444e-08
1.84329e-07
1.67471e-06
1.34871e-05
8.1429e-05
0.000358373
0.00123517
0.00296056
0.00518484
0.00774479
0.0104472
0.013113
0.0157174
0.0182906
0.0208738
0.0235003
0.0261787
0.0288846
0.0315358
0.0339443
0.0357242
0.0361904
0.0341517