/*--------------------------------*- C++ -*----------------------------------*\
| =========                 |                                                 |
| \\      /  F ield         | OpenFOAM: The Open Source CFD Toolbox           |
|  \\    /   O peration     | Version:  v2012                                 |
|   \\  /    A nd           | Website:  www.openfoam.com                      |
|    \\/     M anipulation  |                                                 |
\*---------------------------------------------------------------------------*/
FoamFile
{
    version     2.0;
    format      ascii;
    class       volScalarField;
    location    "1901";
    object      nut;
}
// * * * * * * * * * * * * * * * * * * * * * * * * * * * * * * * * * * * * * //

dimensions      [0 2 -1 0 0 0 0];


internalField   nonuniform List<scalar> 
8000
(
8.50163e-21
7.42459e-21
9.308e-21
6.73683e-21
7.87677e-21
9.36079e-21
6.29031e-21
6.92327e-21
8.02602e-21
9.36218e-21
5.99679e-21
6.37815e-21
7.09298e-21
8.20475e-21
9.36222e-21
6.47299e-21
6.0509e-21
6.51216e-21
7.28681e-21
8.63612e-21
9.36222e-21
7.9589e-21
6.4779e-21
6.15293e-21
6.68305e-21
7.5638e-21
8.76722e-21
9.36222e-21
9.23954e-21
7.96348e-21
6.4881e-21
6.29476e-21
6.89075e-21
7.75391e-21
8.79418e-21
9.36222e-21
1.03225e-20
9.24391e-21
7.97332e-21
6.50394e-21
6.46705e-21
7.08612e-21
7.97337e-21
8.7991e-21
9.36222e-21
1.12277e-20
1.03267e-20
9.25342e-21
7.98891e-21
6.52558e-21
6.64995e-21
7.28934e-21
8.20644e-21
8.8e-21
9.36222e-21
1.19788e-20
1.12318e-20
1.0336e-20
9.26869e-21
8.01054e-21
6.55263e-21
6.84132e-21
7.50062e-21
8.3172e-21
8.80018e-21
9.36222e-21
1.25989e-20
1.19829e-20
1.12409e-20
1.03509e-20
9.29019e-21
8.03845e-21
6.60086e-21
7.03937e-21
7.70797e-21
8.35633e-21
8.80023e-21
9.36222e-21
1.3109e-20
1.26029e-20
1.19917e-20
1.12556e-20
1.03723e-20
9.31841e-21
8.07377e-21
6.74613e-21
7.23896e-21
7.90361e-21
8.36841e-21
8.80024e-21
9.36222e-21
1.35277e-20
1.3113e-20
1.26116e-20
1.20063e-20
1.12768e-20
1.04006e-20
9.35436e-21
8.11804e-21
6.92553e-21
7.44189e-21
8.01159e-21
8.37195e-21
8.80025e-21
9.36222e-21
1.38706e-20
1.35316e-20
1.31216e-20
1.26261e-20
1.20273e-20
1.1305e-20
1.04368e-20
9.39955e-21
8.17332e-21
7.1184e-21
7.64104e-21
8.0565e-21
8.37299e-21
8.80025e-21
9.36222e-21
1.41511e-20
1.38745e-20
1.35402e-20
1.31359e-20
1.26469e-20
1.20555e-20
1.13415e-20
1.04826e-20
9.45615e-21
8.24297e-21
7.31746e-21
7.7769e-21
8.07277e-21
8.37331e-21
8.80025e-21
9.36222e-21
5.39659e-18
1.41549e-20
1.3883e-20
1.35544e-20
1.31567e-20
1.2675e-20
1.2092e-20
1.13876e-20
1.054e-20
9.52744e-21
8.33149e-21
7.50826e-21
7.84225e-21
8.07831e-21
8.37341e-21
8.80025e-21
9.36222e-21
8.10767e-14
2.82503e-18
1.41634e-20
1.38971e-20
1.3575e-20
1.31847e-20
1.27116e-20
1.21383e-20
1.14455e-20
1.06123e-20
9.61779e-21
8.44348e-21
7.63927e-21
7.86844e-21
8.08019e-21
8.37345e-21
8.80025e-21
9.36222e-21
9.85141e-10
3.52198e-14
1.09718e-18
1.41775e-20
1.39177e-20
1.3603e-20
1.32213e-20
1.2758e-20
1.21966e-20
1.15185e-20
1.07038e-20
9.73239e-21
8.56103e-21
7.7038e-21
7.87808e-21
8.08084e-21
8.37347e-21
8.80025e-21
9.36222e-21
8.65823e-07
3.38911e-10
1.19477e-14
3.96788e-19
1.4198e-20
1.39456e-20
1.36396e-20
1.32678e-20
1.28166e-20
1.22701e-20
1.16108e-20
1.08198e-20
9.87191e-21
8.63708e-21
7.73035e-21
7.88155e-21
8.08108e-21
8.37347e-21
8.80025e-21
9.36222e-21
4.55862e-07
1.40034e-05
1.04244e-10
4.14043e-15
1.60608e-19
1.42259e-20
1.39822e-20
1.36861e-20
1.33265e-20
1.28903e-20
1.23628e-20
1.17276e-20
1.09662e-20
9.99033e-21
8.67259e-21
7.74042e-21
7.88281e-21
8.08117e-21
8.37347e-21
8.80025e-21
9.36222e-21
2.5161e-07
1.34899e-05
1.0826e-06
3.74637e-11
1.68712e-15
7.81139e-20
1.42624e-20
1.40288e-20
1.3745e-20
1.34005e-20
1.29834e-20
1.24802e-20
1.18758e-20
1.11167e-20
1.00554e-20
8.68698e-21
7.74416e-21
7.8833e-21
8.08121e-21
8.37347e-21
8.80025e-21
9.36222e-21
1.68777e-07
1.2734e-05
1.92995e-06
3.21467e-07
1.65004e-11
7.84932e-16
4.41479e-20
1.43091e-20
1.40877e-20
1.38191e-20
1.34938e-20
1.31012e-20
1.26291e-20
1.20458e-20
1.12142e-20
1.00838e-20
8.69257e-21
7.74559e-21
7.88349e-21
8.08123e-21
8.37347e-21
8.80025e-21
9.36222e-21
1.23158e-07
1.23118e-05
4.58876e-06
3.75539e-07
1.70694e-07
8.04538e-12
3.79652e-16
2.81373e-20
1.4368e-20
1.41619e-20
1.39126e-20
1.36119e-20
1.32505e-20
1.28095e-20
1.21737e-20
1.12604e-20
1.00952e-20
8.69476e-21
7.74615e-21
7.88357e-21
8.08123e-21
8.37348e-21
8.80025e-21
9.36222e-21
6.50378e-08
1.2004e-05
7.41918e-06
1.08169e-06
1.75177e-07
1.11703e-07
3.96162e-12
1.78272e-16
2.01965e-20
1.44423e-20
1.42556e-20
1.40309e-20
1.37615e-20
1.34361e-20
1.29628e-20
1.22396e-20
1.12796e-20
1.00997e-20
8.69565e-21
7.74638e-21
7.8836e-21
8.08124e-21
8.37348e-21
8.80025e-21
9.36222e-21
3.26595e-08
1.17038e-05
9.18279e-06
3.41809e-06
3.76781e-07
1.1137e-07
7.93419e-08
1.86974e-12
7.56975e-17
1.64113e-20
1.45361e-20
1.4374e-20
1.41807e-20
1.39496e-20
1.36092e-20
1.30483e-20
1.22679e-20
1.12872e-20
1.01015e-20
8.69602e-21
7.74648e-21
7.88362e-21
8.08124e-21
8.37348e-21
8.80025e-21
9.36222e-21
1.55991e-08
1.13946e-05
9.99764e-06
6.41953e-06
1.5817e-06
2.03663e-07
7.87269e-08
6.07501e-08
7.91164e-13
2.58305e-17
1.49976e-20
1.46547e-20
1.45239e-20
1.437e-20
1.41375e-20
1.37129e-20
1.30864e-20
1.22794e-20
1.12903e-20
1.01022e-20
8.69618e-21
7.74652e-21
7.88363e-21
8.08124e-21
8.37348e-21
8.80025e-21
9.36222e-21
6.6341e-09
1.09709e-05
1.02154e-05
8.71295e-06
4.33677e-06
8.99329e-07
1.42469e-07
6.06353e-08
4.89334e-08
2.64263e-13
6.68313e-18
1.4884e-20
1.48047e-20
1.47139e-20
1.45689e-20
1.42575e-20
1.37607e-20
1.3102e-20
1.2284e-20
1.12916e-20
1.01025e-20
8.69625e-21
7.74654e-21
7.88363e-21
8.08124e-21
8.37348e-21
8.80025e-21
9.36222e-21
2.1871e-09
9.94416e-06
1.02925e-05
9.73095e-06
7.69448e-06
3.08583e-06
6.62924e-07
1.20258e-07
4.98003e-08
4.11087e-08
6.60739e-14
1.22806e-18
1.50341e-20
1.49949e-20
1.49207e-20
1.47027e-20
1.43145e-20
1.37806e-20
1.31083e-20
1.22859e-20
1.12922e-20
1.01027e-20
8.69628e-21
7.74655e-21
7.88363e-21
8.08124e-21
8.37348e-21
8.80025e-21
9.36222e-21
5.33925e-10
3.1292e-06
1.02494e-05
1.00265e-05
1.01253e-05
5.90149e-06
2.55138e-06
6.19291e-07
1.20786e-07
4.34821e-08
3.60059e-08
1.13931e-14
1.64188e-19
1.52244e-20
1.52076e-20
1.50662e-20
1.47681e-20
1.43385e-20
1.37887e-20
1.3111e-20
1.22868e-20
1.12924e-20
1.01028e-20
8.6963e-21
7.74656e-21
7.88363e-21
8.08124e-21
8.37348e-21
8.80025e-21
9.36222e-21
8.79843e-11
9.7736e-07
9.97287e-06
1.00391e-05
1.07362e-05
1.07887e-05
5.82169e-06
2.57903e-06
7.14704e-07
1.41059e-07
4.09164e-08
3.29737e-08
1.29326e-15
2.78419e-20
1.54414e-20
1.53628e-20
1.51392e-20
1.4796e-20
1.43483e-20
1.37921e-20
1.31121e-20
1.22871e-20
1.12925e-20
1.01028e-20
8.6963e-21
7.74656e-21
7.88363e-21
8.08124e-21
8.37348e-21
8.80025e-21
9.36222e-21
9.28827e-12
2.2553e-07
9.28795e-06
9.91785e-06
1.05048e-05
1.32384e-05
1.05175e-05
6.78434e-06
3.16265e-06
9.51857e-07
1.91026e-07
4.26584e-08
3.15509e-08
1.00026e-16
1.62209e-20
1.56046e-20
1.54422e-20
1.51705e-20
1.48074e-20
1.43524e-20
1.37935e-20
1.31126e-20
1.22873e-20
1.12926e-20
1.01028e-20
8.69631e-21
7.74656e-21
7.88363e-21
8.08124e-21
8.37348e-21
8.80025e-21
9.36222e-21
6.57799e-13
3.61004e-08
7.9961e-06
9.67015e-06
1.01631e-05
1.28697e-05
1.7198e-05
1.1899e-05
9.09668e-06
4.39211e-06
1.43148e-06
2.98236e-07
4.9434e-08
3.17864e-08
6.66841e-18
1.58017e-20
1.56896e-20
1.54766e-20
1.51834e-20
1.48121e-20
1.43541e-20
1.37941e-20
1.31128e-20
1.22874e-20
1.12926e-20
1.01028e-20
8.69631e-21
7.74656e-21
7.88363e-21
8.08124e-21
8.37348e-21
8.80025e-21
9.36222e-21
4.34175e-14
3.96332e-09
4.89812e-06
9.20239e-06
9.8522e-06
1.16217e-05
1.85844e-05
2.3118e-05
1.65596e-05
1.31507e-05
6.80272e-06
2.40309e-06
5.00533e-07
5.88011e-08
3.32356e-08
5.61136e-19
1.58914e-20
1.57267e-20
1.54908e-20
1.51887e-20
1.48142e-20
1.43549e-20
1.37944e-20
1.31129e-20
1.22874e-20
1.12926e-20
1.01028e-20
8.69631e-21
7.74656e-21
7.88363e-21
8.08124e-21
8.37348e-21
8.80025e-21
9.36222e-21
3.97826e-15
2.70393e-10
1.48288e-06
8.35003e-06
9.49874e-06
1.0613e-05
1.60577e-05
2.952e-05
3.29776e-05
2.53499e-05
2.0974e-05
1.16352e-05
4.21931e-06
7.89619e-07
7.68388e-08
3.56498e-08
6.0752e-20
1.59308e-20
1.5742e-20
1.54967e-20
1.5191e-20
1.4815e-20
1.43552e-20
1.37945e-20
1.3113e-20
1.22874e-20
1.12926e-20
1.01028e-20
8.69631e-21
7.74656e-21
7.88363e-21
8.08124e-21
8.37348e-21
8.80025e-21
9.36222e-21
3.38912e-16
2.78687e-11
4.6653e-07
6.88605e-06
8.98886e-06
9.9167e-06
1.32073e-05
2.678e-05
4.84908e-05
4.58919e-05
4.23819e-05
3.65242e-05
2.06231e-05
6.91801e-06
1.20566e-06
9.57687e-08
3.76198e-08
1.8409e-20
1.59471e-20
1.57484e-20
1.54993e-20
1.5192e-20
1.48154e-20
1.43554e-20
1.37946e-20
1.3113e-20
1.22874e-20
1.12926e-20
1.01028e-20
8.69631e-21
7.74656e-21
7.88363e-21
8.08124e-21
8.37348e-21
8.80025e-21
9.36222e-21
1.84024e-17
2.40926e-12
1.27046e-07
4.89588e-06
8.16441e-06
9.34394e-06
1.12641e-05
2.03063e-05
5.02872e-05
7.97291e-05
7.27066e-05
7.59123e-05
6.50304e-05
3.41025e-05
1.06206e-05
1.62316e-06
1.10551e-07
3.89913e-08
1.61144e-20
1.59539e-20
1.57511e-20
1.55004e-20
1.51924e-20
1.48156e-20
1.43554e-20
1.37946e-20
1.3113e-20
1.22874e-20
1.12926e-20
1.01028e-20
8.69631e-21
7.74656e-21
7.88363e-21
8.08124e-21
8.37348e-21
8.80025e-21
9.36222e-21
7.09812e-19
1.23483e-13
1.65268e-08
2.86577e-06
6.89723e-06
8.68651e-06
1.00616e-05
1.51518e-05
3.82343e-05
9.52081e-05
0.000134659
0.000126171
0.000135634
0.000107013
5.18133e-05
1.42972e-05
1.94677e-06
1.19528e-07
3.95943e-08
1.61215e-20
1.59568e-20
1.57523e-20
1.55008e-20
1.51926e-20
1.48157e-20
1.43555e-20
1.37946e-20
1.3113e-20
1.22874e-20
1.12926e-20
1.01028e-20
8.69631e-21
7.74656e-21
7.88363e-21
8.08124e-21
8.37348e-21
8.80025e-21
9.36222e-21
4.20544e-20
4.40709e-15
8.1416e-10
1.29929e-06
5.2042e-06
7.7835e-06
9.17673e-06
1.20327e-05
2.55378e-05
7.94968e-05
0.000175297
0.000232982
0.00021982
0.000219547
0.000159225
6.89412e-05
1.71203e-05
2.14007e-06
1.24752e-07
3.97205e-08
1.61246e-20
1.5958e-20
1.57528e-20
1.55011e-20
1.51927e-20
1.48157e-20
1.43555e-20
1.37946e-20
1.3113e-20
1.22874e-20
1.12926e-20
1.01028e-20
8.69631e-21
7.74656e-21
7.88363e-21
8.08124e-21
8.37348e-21
8.80025e-21
9.36222e-21
1.69583e-20
1.71631e-16
2.79914e-11
4.09758e-07
3.35714e-06
6.53044e-06
8.2996e-06
1.02165e-05
1.73212e-05
5.19854e-05
0.00016437
0.000310616
0.000392163
0.000349815
0.000318289
0.000207611
8.18108e-05
1.88074e-05
2.25629e-06
1.26878e-07
3.93745e-08
1.61259e-20
1.59586e-20
1.57531e-20
1.55012e-20
1.51928e-20
1.48158e-20
1.43555e-20
1.37946e-20
1.3113e-20
1.22874e-20
1.12926e-20
1.01028e-20
8.69631e-21
7.74656e-21
7.88363e-21
8.08124e-21
8.37348e-21
8.80025e-21
9.36222e-21
1.62628e-20
6.29115e-18
1.18345e-12
7.6738e-08
1.79562e-06
4.94918e-06
7.24066e-06
8.95885e-06
1.27894e-05
3.13039e-05
0.000113359
0.000313521
0.000512977
0.000594367
0.000495448
0.000407277
0.000242974
8.95147e-05
1.98192e-05
2.30595e-06
1.27148e-07
3.87462e-08
1.61265e-20
1.59589e-20
1.57532e-20
1.55012e-20
1.51928e-20
1.48158e-20
1.43555e-20
1.37946e-20
1.3113e-20
1.22874e-20
1.12926e-20
1.01028e-20
8.69631e-21
7.74656e-21
7.88363e-21
8.08124e-21
8.37348e-21
8.80025e-21
9.36222e-21
1.62634e-20
1.69163e-19
4.43283e-14
7.22873e-09
7.91818e-07
3.26283e-06
5.90455e-06
7.8192e-06
1.0278e-05
1.95269e-05
6.56956e-05
0.000234888
0.000531431
0.000760803
0.000795525
0.000629394
0.00047432
0.000264406
9.41199e-05
2.02521e-05
2.31936e-06
1.26147e-07
3.7979e-08
1.61268e-20
1.5959e-20
1.57533e-20
1.55012e-20
1.51928e-20
1.48158e-20
1.43555e-20
1.37946e-20
1.3113e-20
1.22874e-20
1.12926e-20
1.01028e-20
8.69631e-21
7.74656e-21
7.88363e-21
8.08124e-21
8.37348e-21
8.80025e-21
9.36222e-21
1.62637e-20
1.90905e-20
1.01297e-15
3.09291e-10
2.77497e-07
1.82919e-06
4.36503e-06
6.55467e-06
8.62549e-06
1.34335e-05
3.64156e-05
0.000139733
0.00042872
0.000802424
0.00101628
0.000969592
0.000731001
0.000517843
0.000277249
9.61353e-05
2.03698e-05
2.30736e-06
1.24201e-07
3.70715e-08
1.61269e-20
1.5959e-20
1.57533e-20
1.55013e-20
1.51928e-20
1.48158e-20
1.43555e-20
1.37946e-20
1.3113e-20
1.22874e-20
1.12926e-20
1.01028e-20
8.69631e-21
7.74656e-21
7.88363e-21
8.08124e-21
8.37348e-21
8.80025e-21
9.36222e-21
1.62638e-20
1.64056e-20
1.85118e-17
6.64919e-12
6.79106e-08
8.72075e-07
2.84618e-06
5.11094e-06
7.20691e-06
1.01782e-05
2.1148e-05
7.43092e-05
0.000270462
0.000689821
0.00108725
0.00118098
0.00109491
0.000797908
0.0005452
0.000283364
9.67447e-05
2.02709e-05
2.27506e-06
1.21849e-07
3.60997e-08
1.6127e-20
1.59591e-20
1.57533e-20
1.55013e-20
1.51928e-20
1.48158e-20
1.43555e-20
1.37946e-20
1.3113e-20
1.22874e-20
1.12926e-20
1.01028e-20
8.69631e-21
7.74656e-21
7.88363e-21
8.08124e-21
8.37348e-21
8.80025e-21
9.36222e-21
1.62639e-20
1.64058e-20
3.34685e-19
1.20809e-13
9.34389e-09
3.55111e-07
1.61394e-06
3.61285e-06
5.74659e-06
8.11836e-06
1.36453e-05
3.87015e-05
0.000145025
0.000475024
0.000984518
0.0012704
0.00129523
0.00116901
0.000842013
0.000561725
0.000285752
9.64119e-05
1.99984e-05
2.23568e-06
1.19208e-07
3.51668e-08
1.6127e-20
1.59591e-20
1.57533e-20
1.55013e-20
1.51928e-20
1.48158e-20
1.43555e-20
1.37946e-20
1.3113e-20
1.22874e-20
1.12926e-20
1.01028e-20
8.69631e-21
7.74656e-21
7.88363e-21
8.08124e-21
8.37348e-21
8.80025e-21
9.36222e-21
1.62639e-20
1.64059e-20
2.04749e-20
2.16847e-15
5.79566e-10
1.21063e-07
7.92285e-07
2.27335e-06
4.23242e-06
6.43788e-06
9.77262e-06
2.12993e-05
7.26249e-05
0.000268256
0.000741066
0.00127154
0.00140354
0.00139109
0.00121713
0.000869467
0.000571069
0.000285703
9.53229e-05
1.96647e-05
2.19051e-06
1.1668e-07
3.4284e-08
1.6127e-20
1.59591e-20
1.57533e-20
1.55013e-20
1.51928e-20
1.48158e-20
1.43555e-20
1.37946e-20
1.3113e-20
1.22874e-20
1.12926e-20
1.01028e-20
8.69631e-21
7.74656e-21
7.88363e-21
8.08124e-21
8.37348e-21
8.80025e-21
9.36222e-21
1.62639e-20
1.64059e-20
1.65574e-20
2.70555e-17
1.44391e-11
3.11939e-08
3.3917e-07
1.26987e-06
2.81634e-06
4.83794e-06
7.38173e-06
1.30828e-05
3.6172e-05
0.000135494
0.000454567
0.00103837
0.00143427
0.00152651
0.00146833
0.00125103
0.000886609
0.000576103
0.000283729
9.39564e-05
1.92817e-05
2.14737e-06
1.14065e-07
3.33705e-08
1.6127e-20
1.59591e-20
1.57533e-20
1.55013e-20
1.51928e-20
1.48158e-20
1.43555e-20
1.37946e-20
1.3113e-20
1.22874e-20
1.12926e-20
1.01028e-20
8.69631e-21
7.74656e-21
7.88363e-21
8.08124e-21
8.37348e-21
8.80025e-21
9.36222e-21
1.62639e-20
1.64059e-20
1.65575e-20
2.91316e-19
1.74226e-13
4.87024e-09
1.26866e-07
6.29905e-07
1.68847e-06
3.33193e-06
5.51529e-06
8.9293e-06
1.92733e-05
6.47288e-05
0.000239719
0.000706526
0.00133307
0.00158418
0.00163719
0.00153022
0.00127524
0.00089687
0.000577928
0.000280981
9.23744e-05
1.89163e-05
2.10112e-06
1.11223e-07
3.24647e-08
1.6127e-20
1.59591e-20
1.57533e-20
1.55013e-20
1.51928e-20
1.48158e-20
1.43555e-20
1.37946e-20
1.3113e-20
1.22874e-20
1.12926e-20
1.01028e-20
8.69631e-21
7.74656e-21
7.88363e-21
8.08124e-21
8.37348e-21
8.80025e-21
9.36222e-21
1.6264e-20
1.64059e-20
1.65575e-20
1.88201e-20
1.76203e-15
3.49253e-10
4.05486e-08
2.7707e-07
9.12045e-07
2.07925e-06
3.87229e-06
6.38738e-06
1.15355e-05
3.1004e-05
0.000116366
0.000401465
0.00100717
0.00155124
0.00172206
0.00173534
0.00157945
0.00128797
0.000902311
0.000578214
0.000277673
9.08592e-05
1.85226e-05
2.04986e-06
1.08374e-07
3.15914e-08
1.6127e-20
1.59591e-20
1.57533e-20
1.55013e-20
1.51928e-20
1.48158e-20
1.43555e-20
1.37946e-20
1.3113e-20
1.22874e-20
1.12926e-20
1.01028e-20
8.69631e-21
7.74656e-21
7.88363e-21
8.08124e-21
8.37348e-21
8.80025e-21
9.36222e-21
1.6264e-20
1.64059e-20
1.65575e-20
1.67194e-20
1.51404e-17
9.2809e-12
1.00426e-08
1.07604e-07
4.48416e-07
1.17563e-06
2.48773e-06
4.472e-06
7.60984e-06
1.61274e-05
5.32409e-05
0.000204498
0.000638412
0.00131833
0.0017197
0.00185503
0.00182006
0.00161789
0.00129403
0.000905324
0.000577614
0.000274474
8.92056e-05
1.80838e-05
1.9983e-06
1.05544e-07
3.07683e-08
1.6127e-20
1.59591e-20
1.57533e-20
1.55013e-20
1.51928e-20
1.48158e-20
1.43555e-20
1.37946e-20
1.3113e-20
1.22874e-20
1.12926e-20
1.01028e-20
8.69631e-21
7.74656e-21
7.88363e-21
8.08124e-21
8.37348e-21
8.80025e-21
9.36222e-21
1.6264e-20
1.64059e-20
1.65575e-20
1.67194e-20
1.17204e-19
9.48331e-14
1.53359e-09
3.67859e-08
1.99688e-07
6.11064e-07
1.45145e-06
2.9253e-06
5.17022e-06
9.47689e-06
2.47011e-05
9.56828e-05
0.000351736
0.000935104
0.00161724
0.00188265
0.00197705
0.0018926
0.00164796
0.00129762
0.000907054
0.000576924
0.00027085
8.73236e-05
1.76418e-05
1.94652e-06
1.02843e-07
2.99675e-08
1.6127e-20
1.59591e-20
1.57533e-20
1.55013e-20
1.51928e-20
1.48158e-20
1.43555e-20
1.37946e-20
1.3113e-20
1.22874e-20
1.12926e-20
1.01028e-20
8.69631e-21
7.74656e-21
7.88363e-21
8.08124e-21
8.37348e-21
8.80025e-21
9.36222e-21
1.6264e-20
1.64059e-20
1.65575e-20
1.67194e-20
1.71653e-20
6.1397e-16
1.0536e-10
1.07484e-08
7.9775e-08
2.93104e-07
7.77301e-07
1.75106e-06
3.39073e-06
6.04924e-06
1.26603e-05
4.18676e-05
0.000177632
0.000567785
0.00125779
0.00181729
0.00203547
0.00208877
0.00195472
0.00167204
0.00130016
0.000908626
0.000575196
0.000266468
8.54145e-05
1.71972e-05
1.89689e-06
1.00152e-07
2.91916e-08
1.6127e-20
1.59591e-20
1.57533e-20
1.55013e-20
1.51928e-20
1.48158e-20
1.43555e-20
1.37946e-20
1.3113e-20
1.22874e-20
1.12926e-20
1.01028e-20
8.69631e-21
7.74656e-21
7.88363e-21
8.08124e-21
8.37348e-21
8.80025e-21
9.36222e-21
1.6264e-20
1.64059e-20
1.65575e-20
1.67194e-20
1.68923e-20
3.44131e-18
2.48007e-12
2.4039e-09
2.82127e-08
1.2998e-07
3.8584e-07
9.61026e-07
2.06708e-06
3.89518e-06
7.31455e-06
1.8842e-05
8.04114e-05
0.000311234
0.000847354
0.00158041
0.00200122
0.00218503
0.00219013
0.00200772
0.00169217
0.00130314
0.000909203
0.000569439
0.000261938
8.34808e-05
1.67701e-05
1.84709e-06
9.76032e-08
2.84741e-08
1.6127e-20
1.59591e-20
1.57533e-20
1.55013e-20
1.51928e-20
1.48158e-20
1.43555e-20
1.37946e-20
1.3113e-20
1.22874e-20
1.12926e-20
1.01028e-20
8.69631e-21
7.74656e-21
7.88363e-21
8.08124e-21
8.37348e-21
8.80025e-21
9.36222e-21
1.6264e-20
1.64059e-20
1.65575e-20
1.67194e-20
1.68924e-20
3.19667e-20
1.97214e-14
3.18672e-10
8.74168e-09
5.27461e-08
1.79577e-07
4.87949e-07
1.15992e-06
2.39038e-06
4.49467e-06
9.491e-06
3.35561e-05
0.000155896
0.000504581
0.00117118
0.0018794
0.00218069
0.00232723
0.00228085
0.00205371
0.00171012
0.00130563
0.000907825
0.000563225
0.000257272
8.16115e-05
1.63408e-05
1.80029e-06
9.5218e-08
2.77852e-08
1.6127e-20
1.59591e-20
1.57533e-20
1.55013e-20
1.51928e-20
1.48158e-20
1.43555e-20
1.37946e-20
1.3113e-20
1.22874e-20
1.12926e-20
1.01028e-20
8.69631e-21
7.74656e-21
7.88363e-21
8.08124e-21
8.37348e-21
8.80025e-21
9.36222e-21
1.6264e-20
1.64059e-20
1.65575e-20
1.67195e-20
1.68924e-20
1.70769e-20
8.6719e-17
1.75981e-11
2.28039e-09
1.9143e-08
7.81801e-08
2.32251e-07
6.0172e-07
1.36413e-06
2.73005e-06
5.33902e-06
1.44549e-05
6.83433e-05
0.000278316
0.00076137
0.00151229
0.00208744
0.00235616
0.00246064
0.00236233
0.00209472
0.00172582
0.00130677
0.000905476
0.000556598
0.0002527
7.97208e-05
1.59371e-05
1.75633e-06
9.28665e-08
2.71269e-08
1.6127e-20
1.59591e-20
1.57533e-20
1.55013e-20
1.51928e-20
1.48158e-20
1.43555e-20
1.37946e-20
1.3113e-20
1.22874e-20
1.12926e-20
1.01028e-20
8.69631e-21
7.74656e-21
7.88363e-21
8.08124e-21
8.37348e-21
8.80025e-21
9.36222e-21
1.6264e-20
1.64059e-20
1.65575e-20
1.67195e-20
1.68924e-20
1.7077e-20
3.32025e-19
2.9983e-13
4.34512e-10
6.11398e-09
3.16684e-08
1.04158e-07
2.91788e-07
7.21673e-07
1.56954e-06
3.12582e-06
6.99698e-06
2.73197e-05
0.000138203
0.000451111
0.00107358
0.00185142
0.00229203
0.00252895
0.00258497
0.00243604
0.00213139
0.00173856
0.00130685
0.000902293
0.000549941
0.000248014
7.79356e-05
1.55573e-05
1.7126e-06
9.06602e-08
2.65013e-08
1.6127e-20
1.59591e-20
1.57533e-20
1.55013e-20
1.51928e-20
1.48158e-20
1.43555e-20
1.37946e-20
1.3113e-20
1.22874e-20
1.12926e-20
1.01028e-20
8.69631e-21
7.74656e-21
7.88363e-21
8.08124e-21
8.37348e-21
8.80025e-21
9.36222e-21
1.6264e-20
1.64059e-20
1.65575e-20
1.67195e-20
1.68924e-20
1.7077e-20
1.7882e-20
1.61097e-15
4.45517e-11
1.68929e-09
1.17084e-08
4.42979e-08
1.33247e-07
3.56523e-07
8.42251e-07
1.78418e-06
3.74753e-06
1.11532e-05
5.89345e-05
0.000249173
0.000682208
0.00142203
0.00214641
0.00249342
0.00269686
0.00269997
0.00250301
0.00216292
0.00174856
0.00130595
0.000898715
0.000542945
0.000243552
7.62473e-05
1.51788e-05
1.67181e-06
8.85206e-08
2.58965e-08
1.6127e-20
1.59591e-20
1.57533e-20
1.55013e-20
1.51928e-20
1.48158e-20
1.43555e-20
1.37946e-20
1.3113e-20
1.22874e-20
1.12926e-20
1.01028e-20
8.69631e-21
7.74656e-21
7.88363e-21
8.08124e-21
8.37348e-21
8.80025e-21
9.36222e-21
1.6264e-20
1.64059e-20
1.65575e-20
1.67195e-20
1.68924e-20
1.7077e-20
1.72742e-20
4.89294e-18
1.65972e-12
3.78417e-10
3.82995e-09
1.76752e-08
5.78205e-08
1.65671e-07
4.22833e-07
9.62882e-07
2.06337e-06
5.06793e-06
2.26132e-05
0.000121415
0.000404513
0.000975318
0.00178425
0.0023751
0.00269645
0.00285703
0.00280644
0.00256251
0.00218956
0.00175619
0.00130452
0.00089448
0.0005362
0.00023929
7.45561e-05
1.48255e-05
1.63199e-06
8.64483e-08
2.53235e-08
1.6127e-20
1.59591e-20
1.57533e-20
1.55013e-20
1.51928e-20
1.48158e-20
1.43555e-20
1.37946e-20
1.3113e-20
1.22874e-20
1.12926e-20
1.01028e-20
8.69631e-21
7.74656e-21
7.88363e-21
8.08124e-21
8.37348e-21
8.80025e-21
9.36222e-21
1.6264e-20
1.64059e-20
1.65575e-20
1.67195e-20
1.68924e-20
1.7077e-20
1.72743e-20
2.91703e-20
1.68311e-14
5.61223e-11
1.09068e-09
6.53811e-09
2.38035e-08
7.30098e-08
1.99768e-07
4.88436e-07
1.10318e-06
2.53405e-06
8.67016e-06
5.00832e-05
0.000221756
0.000611976
0.00131974
0.00214574
0.002604
0.0028964
0.00300957
0.00290361
0.00261467
0.00221196
0.00176209
0.00130224
0.000890263
0.000529662
0.000234971
7.29708e-05
1.448e-05
1.59341e-06
8.44929e-08
2.47732e-08
1.6127e-20
1.59591e-20
1.57533e-20
1.55013e-20
1.51928e-20
1.48158e-20
1.43555e-20
1.37946e-20
1.3113e-20
1.22874e-20
1.12926e-20
1.01028e-20
8.69631e-21
7.74656e-21
7.88363e-21
8.08124e-21
8.37348e-21
8.80025e-21
9.36222e-21
1.6264e-20
1.64059e-20
1.65575e-20
1.67195e-20
1.68924e-20
1.7077e-20
1.72743e-20
1.74847e-20
5.48895e-17
3.79956e-12
2.62448e-10
2.18124e-09
9.31095e-09
3.05725e-08
8.94347e-08
2.33734e-07
5.59993e-07
1.3024e-06
3.6289e-06
1.83593e-05
0.000104742
0.000362549
0.000881592
0.00169578
0.00243659
0.00283011
0.00309484
0.00315297
0.00299121
0.00266034
0.00223102
0.00176616
0.00129983
0.000886047
0.000522897
0.00023089
7.14136e-05
1.4145e-05
1.55705e-06
8.25756e-08
2.424e-08
1.6127e-20
1.59591e-20
1.57533e-20
1.55013e-20
1.51928e-20
1.48158e-20
1.43555e-20
1.37946e-20
1.3113e-20
1.22874e-20
1.12926e-20
1.01028e-20
8.69631e-21
7.74656e-21
7.88363e-21
8.08124e-21
8.37348e-21
8.80025e-21
9.36222e-21
1.6264e-20
1.64059e-20
1.65575e-20
1.67195e-20
1.68924e-20
1.7077e-20
1.72743e-20
1.74848e-20
1.3116e-19
7.73198e-14
4.74694e-11
6.35751e-10
3.40281e-09
1.22229e-08
3.80531e-08
1.06123e-07
2.69184e-07
6.53218e-07
1.66619e-06
6.59027e-06
4.13827e-05
0.000194932
0.000549747
0.00121266
0.00208407
0.0026884
0.00306526
0.00328745
0.00328566
0.00306996
0.00270054
0.00224683
0.00176925
0.00129734
0.000881317
0.000516426
0.000226841
6.98972e-05
1.38289e-05
1.52117e-06
8.07149e-08
2.37327e-08
1.6127e-20
1.59591e-20
1.57533e-20
1.55013e-20
1.51928e-20
1.48158e-20
1.43555e-20
1.37946e-20
1.3113e-20
1.22874e-20
1.12926e-20
1.01028e-20
8.69631e-21
7.74656e-21
7.88363e-21
8.08124e-21
8.37348e-21
8.80025e-21
9.36222e-21
1.6264e-20
1.64059e-20
1.65575e-20
1.67195e-20
1.68924e-20
1.7077e-20
1.72743e-20
1.74849e-20
1.77092e-20
3.88627e-16
4.79323e-12
1.58487e-10
1.14283e-09
4.64513e-09
1.54503e-08
4.58608e-08
1.23017e-07
3.1318e-07
7.93635e-07
2.53213e-06
1.43985e-05
8.83383e-05
0.000323183
0.000794628
0.00159198
0.0024736
0.00294474
0.00330035
0.00347105
0.00340767
0.00314082
0.00273559
0.00226038
0.00177161
0.00129412
0.000876672
0.000509903
0.000222865
6.84601e-05
1.35164e-05
1.48633e-06
7.89356e-08
2.32404e-08
1.6127e-20
1.59591e-20
1.57533e-20
1.55013e-20
1.51928e-20
1.48158e-20
1.43555e-20
1.37946e-20
1.3113e-20
1.22874e-20
1.12926e-20
1.01028e-20
8.69631e-21
7.74656e-21
7.88363e-21
8.08124e-21
8.37348e-21
8.80025e-21
9.36222e-21
1.6264e-20
1.64059e-20
1.65575e-20
1.67195e-20
1.68924e-20
1.7077e-20
1.72743e-20
1.74849e-20
1.77097e-20
7.82467e-19
1.73815e-13
3.18582e-11
3.38048e-10
1.66797e-09
5.9872e-09
1.89176e-08
5.36523e-08
1.43073e-07
3.73055e-07
1.06428e-06
4.84017e-06
3.31993e-05
0.000168092
0.000493116
0.00110554
0.00200011
0.00275681
0.0032061
0.00353317
0.0036442
0.0035195
0.00320422
0.00276645
0.0022722
0.00177268
0.0012908
0.000871745
0.000503403
0.000219062
6.7033e-05
1.32127e-05
1.45295e-06
7.71911e-08
2.27712e-08
1.6127e-20
1.59591e-20
1.57533e-20
1.55013e-20
1.51928e-20
1.48158e-20
1.43555e-20
1.37946e-20
1.3113e-20
1.22874e-20
1.12926e-20
1.01028e-20
8.69631e-21
7.74656e-21
7.88363e-21
8.08124e-21
8.37348e-21
8.80025e-21
9.36222e-21
1.6264e-20
1.64059e-20
1.65575e-20
1.67195e-20
1.68924e-20
1.7077e-20
1.72743e-20
1.74849e-20
1.77097e-20
1.86559e-20
1.53372e-15
4.20001e-12
8.57146e-11
5.56121e-10
2.2129e-09
7.45318e-09
2.23922e-08
6.24165e-08
1.69143e-07
4.69321e-07
1.71547e-06
1.09438e-05
7.22473e-05
0.000284532
0.000714302
0.00147789
0.0024193
0.00303821
0.00347628
0.0037596
0.00380625
0.00362144
0.00326093
0.00279398
0.00228186
0.00177311
0.00128699
0.000866613
0.000497099
0.000215247
6.56401e-05
1.29215e-05
1.42014e-06
7.55629e-08
2.23336e-08
1.6127e-20
1.59591e-20
1.57533e-20
1.55013e-20
1.51928e-20
1.48158e-20
1.43555e-20
1.37946e-20
1.3113e-20
1.22874e-20
1.12926e-20
1.01028e-20
8.69631e-21
7.74656e-21
7.88363e-21
8.08124e-21
8.37348e-21
8.80025e-21
9.36222e-21
1.6264e-20
1.64059e-20
1.65575e-20
1.67195e-20
1.68924e-20
1.7077e-20
1.72743e-20
1.74849e-20
1.77098e-20
1.79498e-20
3.57536e-18
2.40782e-13
1.80673e-11
1.66689e-10
7.78408e-10
2.80479e-09
8.94613e-09
2.6077e-08
7.351e-08
2.06909e-07
6.62814e-07
3.45542e-06
2.56674e-05
0.000141128
0.000438813
0.00100129
0.00189628
0.00280935
0.00332548
0.00374871
0.00397711
0.00395677
0.00371382
0.00331205
0.00281807
0.00229003
0.00177257
0.00128274
0.000861462
0.000490662
0.000211489
6.42995e-05
1.26349e-05
1.38971e-06
7.40335e-08
2.19084e-08
1.6127e-20
1.59591e-20
1.57533e-20
1.55013e-20
1.51928e-20
1.48158e-20
1.43555e-20
1.37946e-20
1.3113e-20
1.22874e-20
1.12926e-20
1.01028e-20
8.69631e-21
7.74656e-21
7.88363e-21
8.08124e-21
8.37348e-21
8.80025e-21
9.36222e-21
1.6264e-20
1.64059e-20
1.65575e-20
1.67195e-20
1.68924e-20
1.7077e-20
1.72743e-20
1.74849e-20
1.77098e-20
1.79499e-20
2.2638e-20
3.71321e-15
2.74261e-12
4.28711e-11
2.55769e-10
1.00931e-09
3.42026e-09
1.04621e-08
3.06391e-08
8.87994e-08
2.71263e-07
1.13542e-06
8.02008e-06
5.69197e-05
0.000244721
0.000640052
0.00135929
0.0023425
0.00311432
0.00362679
0.00401892
0.00418378
0.00409526
0.0037978
0.0033579
0.00283934
0.00229648
0.00177115
0.00127825
0.00085589
0.000484222
0.000207845
6.2976e-05
1.2369e-05
1.36107e-06
7.25159e-08
2.14952e-08
1.6127e-20
1.59591e-20
1.57533e-20
1.55013e-20
1.51928e-20
1.48158e-20
1.43555e-20
1.37946e-20
1.3113e-20
1.22874e-20
1.12926e-20
1.01028e-20
8.69631e-21
7.74656e-21
7.88363e-21
8.08124e-21
8.37348e-21
8.80025e-21
9.36222e-21
1.6264e-20
1.64059e-20
1.65575e-20
1.67195e-20
1.68924e-20
1.7077e-20
1.72743e-20
1.74849e-20
1.77098e-20
1.79499e-20
1.8206e-20
1.22497e-17
2.14586e-13
9.25857e-12
7.65672e-11
3.45473e-10
1.25145e-09
4.03428e-09
1.22618e-08
3.67495e-08
1.12358e-07
4.04456e-07
2.39121e-06
1.90389e-05
0.000113917
0.00038607
0.000903021
0.00177981
0.00280086
0.00342916
0.00393537
0.00428359
0.00437772
0.0042225
0.0038742
0.00339909
0.0028577
0.00230134
0.001769
0.00127299
0.000850055
0.000477903
0.000204224
6.1745e-05
1.21184e-05
1.33246e-06
7.10604e-08
2.11e-08
1.6127e-20
1.59591e-20
1.57533e-20
1.55013e-20
1.51928e-20
1.48158e-20
1.43555e-20
1.37946e-20
1.3113e-20
1.22874e-20
1.12926e-20
1.01028e-20
8.69631e-21
7.74656e-21
7.88363e-21
8.08124e-21
8.37348e-21
8.80025e-21
9.36222e-21
1.6264e-20
1.64059e-20
1.65575e-20
1.67195e-20
1.68924e-20
1.7077e-20
1.72743e-20
1.74849e-20
1.77098e-20
1.79499e-20
1.82063e-20
3.34288e-20
5.23565e-15
1.54764e-12
1.98847e-11
1.11149e-10
4.37867e-10
1.49505e-09
4.7211e-09
1.46393e-08
4.56899e-08
1.53674e-07
7.33375e-07
5.64501e-06
4.27448e-05
0.000204855
0.000570552
0.00124168
0.00224454
0.00317667
0.00375218
0.00425084
0.00453844
0.00455845
0.00433955
0.00394355
0.0034357
0.00287341
0.00230466
0.00176545
0.001267
0.000844159
0.000471556
0.000200838
6.05805e-05
1.18679e-05
1.30513e-06
6.96598e-08
2.07117e-08
1.6127e-20
1.59591e-20
1.57533e-20
1.55013e-20
1.51928e-20
1.48158e-20
1.43555e-20
1.37946e-20
1.3113e-20
1.22874e-20
1.12926e-20
1.01028e-20
8.69631e-21
7.74656e-21
7.88363e-21
8.08124e-21
8.37348e-21
8.80025e-21
9.36222e-21
1.6264e-20
1.64059e-20
1.65575e-20
1.67195e-20
1.68924e-20
1.7077e-20
1.72743e-20
1.74849e-20
1.77098e-20
1.79499e-20
1.82063e-20
1.84796e-20
2.63962e-17
1.50717e-13
4.32015e-12
3.29914e-11
1.45674e-10
5.31981e-10
1.75263e-09
5.61616e-09
1.79968e-08
5.97543e-08
2.41845e-07
1.59609e-06
1.34555e-05
8.84288e-05
0.00033378
0.000812406
0.00165476
0.00273354
0.00351541
0.00410073
0.00456414
0.00478057
0.0047267
0.00444675
0.00400617
0.00346814
0.00288639
0.00230589
0.00175954
0.0012608
0.000838066
0.000465583
0.000197613
5.94128e-05
1.16285e-05
1.27878e-06
6.8267e-08
2.03336e-08
1.6127e-20
1.59591e-20
1.57533e-20
1.55013e-20
1.51928e-20
1.48158e-20
1.43555e-20
1.37946e-20
1.3113e-20
1.22874e-20
1.12926e-20
1.01028e-20
8.69631e-21
7.74656e-21
7.88363e-21
8.08124e-21
8.37348e-21
8.80025e-21
9.36222e-21
1.6264e-20
1.64059e-20
1.65575e-20
1.67195e-20
1.68924e-20
1.7077e-20
1.72743e-20
1.74849e-20
1.77098e-20
1.79499e-20
1.82063e-20
1.84801e-20
5.35631e-20
5.32635e-15
7.48693e-13
8.5539e-12
4.6033e-11
1.80922e-10
6.27575e-10
2.07661e-09
6.84062e-09
2.30011e-08
8.53642e-08
4.59716e-07
3.80001e-06
3.08235e-05
0.000165988
0.000504842
0.00112746
0.0021281
0.00322911
0.00387053
0.00445786
0.00486978
0.00500941
0.00488228
0.00454462
0.00406262
0.00349645
0.00289622
0.00230524
0.00175331
0.00125423
0.000832318
0.000459839
0.000194356
5.82939e-05
1.13975e-05
1.25249e-06
6.69257e-08
1.99658e-08
1.6127e-20
1.59591e-20
1.57533e-20
1.55013e-20
1.51928e-20
1.48158e-20
1.43555e-20