/*--------------------------------*- C++ -*----------------------------------*\
| =========                 |                                                 |
| \\      /  F ield         | OpenFOAM: The Open Source CFD Toolbox           |
|  \\    /   O peration     | Version:  v2012                                 |
|   \\  /    A nd           | Website:  www.openfoam.com                      |
|    \\/     M anipulation  |                                                 |
\*---------------------------------------------------------------------------*/
FoamFile
{
    version     2.0;
    format      ascii;
    class       volScalarField;
    location    "1901";
    object      omega;
}
// * * * * * * * * * * * * * * * * * * * * * * * * * * * * * * * * * * * * * //

dimensions      [0 0 -1 0 0 0 0];


internalField   nonuniform List<scalar> 
8000
(
3.98816e+07
2.69347e+06
3.80769e+07
692029
2.64493e+06
3.79843e+07
327599
688027
2.63321e+06
3.79825e+07
208079
326885
684958
2.60719e+06
3.79825e+07
154488
207842
325853
680300
2.5331e+06
3.79825e+07
125645
154371
207393
324347
671845
2.51569e+06
3.79825e+07
108230
125573
154128
206720
322192
666641
2.51277e+06
3.79825e+07
96875.9
108179
125418
153753
205811
320104
657252
2.51229e+06
3.79825e+07
89065.2
96836.3
108068
125174
153243
204759
317251
646283
2.51219e+06
3.79825e+07
83480.6
89032.6
96749.7
107890
124836
152611
203428
313765
641747
2.51217e+06
3.79825e+07
79372
83452.6
88961
96609.6
107640
124402
151819
201788
309644
640341
2.51217e+06
3.79825e+07
76283.2
79347
83390.7
88844.4
96411
107314
123858
150842
199803
305160
639941
2.51216e+06
3.79825e+07
73922.4
76260.4
79291.8
83289.6
88677.8
96148.7
106902
123182
149644
197347
302822
639827
2.51216e+06
3.79825e+07
72094.9
73901.2
76210
79201.3
83144.3
88456
95814.6
106388
122349
148160
194456
301919
639792
2.51216e+06
3.79825e+07
70665.8
72074.9
73854.3
76127.1
79070.8
82949.7
88171.9
95396.3
105751
121316
146307
192443
301607
639780
2.51216e+06
3.79825e+07
69539.5
70646.7
72030.5
73777
76007.1
78895.2
82699.3
87815
94876.6
104960
120027
144209
191517
301501
639776
2.51216e+06
3.79825e+07
68646.2
69521.1
70604.3
71957.3
73664.8
75845.2
78668.4
82383.7
87370.3
94230.1
103974
118435
142719
191158
301465
639775
2.51216e+06
3.79825e+07
67894.4
68628.3
69480.2
70534.3
71851
73513.1
75635.6
78382.1
81989.9
86816.7
93424.6
102750
116808
142004
191027
301452
639774
2.51216e+06
3.79825e+07
553902
67868.1
68588.6
69412.6
70432.5
71706.9
73316.2
75370.4
78024
81499.2
86126.9
92423.4
101298
115780
141716
190979
301447
639774
2.51216e+06
3.79825e+07
178920
2.05954e+08
67821.9
68523
69314.2
70294.3
71519.7
73066.6
75038.4
77577.7
80887.7
85268.8
91189.6
100097
115306
141607
190961
301445
639774
2.51216e+06
3.79825e+07
95767.9
4.34441e+07
3.11579e+08
67776.3
68427.2
69180.6
70114.3
71282
72753.9
74624.2
77021.3
80126.6
84204.5
89955.1
99449.3
115115
141565
190954
301444
639774
2.51216e+06
3.79825e+07
76216.3
1.70271e+07
4.93602e+07
3.57706e+08
67703.8
68297.1
69006.4
69885.8
70984
72363.7
74107.8
76328.6
79182.2
83016.2
89172.9
99169.1
115041
141549
190951
301444
639774
2.51216e+06
3.79825e+07
71543.1
8.38745e+06
1.7947e+07
5.59395e+07
3.76111e+08
67574
68127.4
68784.9
69599
70611.9
71877.1
73464.9
75469
78066.8
82144.4
88806.6
99057.4
115012
141542
190949
301443
639774
2.51216e+06
3.79825e+07
70153.7
4.48099e+06
9.44362e+06
1.89864e+07
5.8823e+07
3.93732e+08
67406.6
67911.5
68506.8
69240.8
70147.8
71271.2
72666.7
74426.3
77144
81702
88655.7
99013.3
115000
141539
190949
301443
639774
2.51216e+06
3.79825e+07
69287.6
2.43223e+06
5.65435e+06
9.80244e+06
1.95239e+07
6.16309e+07
4.04829e+08
67213.7
67640.3
68159.5
68794.1
69569.8
70518.6
71686.7
73479.9
76638.5
81513.4
88595.6
98995.5
114995
141538
190949
301443
639774
2.51216e+06
3.79825e+07
68468.9
1.28708e+06
3.62337e+06
6.10416e+06
9.91483e+06
2.01925e+07
6.33835e+07
4.12454e+08
66950.7
67301.4
67726.2
68237.6
68851.8
69589.4
70733.7
72924
76415.4
81437.3
88571.3
98988.1
114993
141538
190949
301443
639774
2.51216e+06
3.79825e+07
67625.7
650666
2.41347e+06
3.92724e+06
6.49464e+06
9.92664e+06
2.06199e+07
6.4592e+07
4.18328e+08
66618.1
66878.6
67186.4
67546.1
67963.1
68639.5
70138.8
72670.5
76324.3
81406.6
88561.2
98984.9
114992
141537
190949
301443
639774
2.51216e+06
3.79825e+07
66874.6
310094
1.58188e+06
2.64839e+06
4.52213e+06
6.49999e+06
9.89546e+06
2.0925e+07
6.55253e+07
4.22902e+08
66203.3
66352
66515.6
66689.4
67020.9
68014.8
69859.3
72565.8
76287.3
81393.8
88556.9
98983.5
114992
141537
190949
301443
639774
2.51216e+06
3.79825e+07
66160.5
149712
1.00256e+06
1.84135e+06
3.00391e+06
4.86324e+06
6.33769e+06
9.8732e+06
2.11715e+07
6.6249e+07
4.27301e+08
65686.7
65697.3
65684
65756.6
66373.6
67713.3
69742.4
72523.1
76272
81388.4
88555
98982.9
114991
141537
190948
301443
639774
2.51216e+06
3.79825e+07
65436.5
89354.5
612207
1.29264e+06
2.02626e+06
3.53261e+06
4.86438e+06
6.16626e+06
9.8708e+06
2.13658e+07
6.69431e+07
4.31463e+08
65044.7
64885.7
64760.9
65092.2
66053.9
67585.9
69694.7
72505.5
76265.5
81386
88554.2
98982.6
114991
141537
190948
301443
639774
2.51216e+06
3.79825e+07
64657.1
71610
361895
897493
1.42033e+06
2.37552e+06
3.87355e+06
4.71256e+06
6.03021e+06
9.87531e+06
2.15607e+07
6.76006e+07
4.34502e+08
64248.8
63971.6
64083.6
64757.5
65917.5
67533.8
69674.9
72498
76262.6
81384.9
88553.8
98982.5
114991
141537
190948
301443
639774
2.51216e+06
3.79825e+07
63785.1
66740.9
213228
607879
1.02111e+06
1.5995e+06
2.79723e+06
3.92552e+06
4.53716e+06
5.92619e+06
9.90137e+06
2.17509e+07
6.85099e+07
4.32973e+08
63342.7
63284.5
63736.5
64613.5
65861.5
67512.2
69666.5
72494.7
76261.3
81384.4
88553.6
98982.4
114991
141537
190948
301443
639774
2.51216e+06
3.79825e+07
62850
64651.8
132097
399574
736406
1.11253e+06
1.8865e+06
3.10915e+06
3.83404e+06
4.38048e+06
5.85778e+06
9.9432e+06
2.19816e+07
7.07261e+07
4.29801e+08
62648.1
62927.3
63586.1
64554.2
65838.3
67503
69662.8
72493.2
76260.7
81384.2
88553.5
98982.4
114991
141537
190948
301443
639774
2.51216e+06
3.79825e+07
62161.1
63126.4
91971.4
258367
523021
801565
1.25981e+06
2.22169e+06
3.24673e+06
3.69922e+06
4.25731e+06
5.82095e+06
1.00123e+07
2.23973e+07
7.02163e+07
4.24452e+08
62282.6
62771.6
63524.1
64529.7
65828.4
67499
69661.2
72492.5
76260.5
81384
88553.5
98982.4
114991
141537
190948
301443
639774
2.51216e+06
3.79825e+07
61775.8
62060.4
74074.8
169310
363873
585149
872019
1.48379e+06
2.49258e+06
3.24094e+06
3.56667e+06
4.17153e+06
5.82357e+06
1.01252e+07
2.22482e+07
6.93449e+07
4.18078e+08
62122.6
62707.3
63498.4
64519.2
65824.1
67497.2
69660.4
72492.2
76260.3
81384
88553.4
98982.3
114991
141537
190948
301443
639774
2.51216e+06
3.79825e+07
61606.5
61460.4
66463
117346
249503
424885
628901
982405
1.75058e+06
2.64012e+06
3.16156e+06
3.45846e+06
4.13259e+06
5.85732e+06
1.00755e+07
2.19859e+07
6.8306e+07
4.13151e+08
62056.3
62680.6
63487.5
64514.7
65822.2
67496.3
69660.1
72492
76260.3
81384
88553.4
98982.3
114991
141537
190948
301443
639774
2.51216e+06
3.79825e+07
61536.5
61173
63228.9
89635.7
171548
304543
462314
680790
1.14785e+06
1.98346e+06
2.68322e+06
3.06367e+06
3.38728e+06
4.12783e+06
5.84188e+06
9.98169e+06
2.16698e+07
6.75044e+07
4.09142e+08
62028.8
62669.3
63482.7
64512.6
65821.3
67496
69659.9
72492
76260.2
81384
88553.4
98982.3
114991
141537
190948
301443
639774
2.51216e+06
3.79825e+07
61507.6
61046.6
61784.1
76035.7
122631
216984
339127
493896
756701
1.35559e+06
2.12295e+06
2.6535e+06
2.97123e+06
3.34086e+06
4.10803e+06
5.80771e+06
9.86025e+06
2.14244e+07
6.68515e+07
4.05885e+08
62017.1
62664.3
63480.6
64511.7
65820.9
67495.8
69659.8
72491.9
76260.2
81384
88553.4
98982.3
114991
141537
190948
301443
639774
2.51216e+06
3.79825e+07
61495.3
60991
61068
69218.2
94571.7
156112
247197
365163
529248
872679
1.55155e+06
2.15862e+06
2.57427e+06
2.87428e+06
3.28632e+06
4.07678e+06
5.7528e+06
9.7606e+06
2.12217e+07
6.63215e+07
4.03188e+08
62012
62662.1
63479.6
64511.3
65820.7
67495.7
69659.8
72491.9
76260.2
81383.9
88553.4
98982.3
114991
141537
190948
301443
639774
2.51216e+06
3.79825e+07
61490
60968.4
60694.7
65055
79614.7
116432
180780
269810
387499
579765
1.02596e+06
1.67339e+06
2.11516e+06
2.45753e+06
2.77585e+06
3.22164e+06
4.02974e+06
5.69923e+06
9.67332e+06
2.10563e+07
6.58834e+07
4.01034e+08
62009.8
62661.1
63479.2
64511
65820.6
67495.6
69659.8
72491.9
76260.2
81383.9
88553.4
98982.3
114991
141537
190948
301443
639774
2.51216e+06
3.79825e+07
61487.7
60959.5
60518.3
62426
72130.5
92272
134803
199325
288336
411866
655324
1.18294e+06
1.70364e+06
2.02755e+06
2.33524e+06
2.67145e+06
3.15288e+06
3.97988e+06
5.64797e+06
9.59922e+06
2.09188e+07
6.55342e+07
3.99475e+08
62008.7
62660.6
63478.9
64510.9
65820.6
67495.6
69659.8
72491.9
76260.2
81383.9
88553.4
98982.3
114991
141537
190948
301443
639774
2.51216e+06
3.79825e+07
61486.6
60956.1
60440
61018.4
68338.9
78749.2
104820
148914
214970
304668
443604
760144
1.29224e+06
1.66945e+06
1.92044e+06
2.21897e+06
2.58026e+06
3.09006e+06
3.93322e+06
5.60058e+06
9.53501e+06
2.08078e+07
6.52812e+07
3.98096e+08
62008.2
62660.4
63478.8
64510.9
65820.5
67495.6
69659.7
72491.9
76260.2
81383.9
88553.4
98982.3
114991
141537
190948
301443
639774
2.51216e+06
3.79825e+07
61486.1
60954.7
60409.9
60334.4
65602.8
71885.7
86321.2
114726
161163
228270
320814
489399
877265
1.33822e+06
1.59897e+06
1.82415e+06
2.12776e+06
2.50653e+06
3.0351e+06
3.88858e+06
5.55718e+06
9.48005e+06
2.07262e+07
6.50585e+07
3.9703e+08
62008
62660.3
63478.8
64510.9
65820.5
67495.6
69659.7
72491.9
76260.2
81383.9
88553.4
98982.3
114991
141537
190948
301443
639774
2.51216e+06
3.79825e+07
61485.9
60954.1
60399.7
60013.3
62929.5
68425.5
75741.3
92831.3
123364
172003
239737
339716
553381
983442
1.32717e+06
1.5223e+06
1.74977e+06
2.05614e+06
2.44526e+06
2.98613e+06
3.84854e+06
5.51712e+06
9.43676e+06
2.06539e+07
6.48878e+07
3.95947e+08
62007.9
62660.3
63478.8
64510.9
65820.5
67495.6
69659.7
72491.9
76260.2
81383.9
88553.4
98982.3
114991
141537
190948
301443
639774
2.51216e+06
3.79825e+07
61485.8
60953.9
60396.7
59880.1
60935.6
66473.3
70048.2
79530.6
98305
131441
181319
250049
364427
641689
1.04578e+06
1.28486e+06
1.46069e+06
1.68979e+06
1.99813e+06
2.39504e+06
2.94478e+06
3.81106e+06
5.48232e+06
9.39711e+06
2.0598e+07
6.47122e+07
3.95087e+08
62007.8
62660.2
63478.7
64510.9
65820.5
67495.6
69659.7
72491.9
76260.2
81383.9
88553.4
98982.3
114991
141537
190948
301443
639774
2.51216e+06
3.79825e+07
61485.7
60953.7
60395.9
59830.7
59942.8
64807.1
67257.3
71884.3
82611.3
103619
138736
188926
260075
404545
735735
1.06004e+06
1.23931e+06
1.4097e+06
1.64089e+06
1.95209e+06
2.35412e+06
2.90751e+06
3.77692e+06
5.44949e+06
9.36433e+06
2.05399e+07
6.45728e+07
3.94356e+08
62007.8
62660.2
63478.7
64510.9
65820.5
67495.6
69659.7
72491.9
76260.2
81383.9
88553.4
98982.3
114991
141537
190948
301443
639774
2.51216e+06
3.79825e+07
61485.7
60953.7
60395.6
59815.5
59461.2
62663.5
65738.9
67721.3
73403.6
85596.6
108736
144833
194764
274302
465574
809159
1.04598e+06
1.19976e+06
1.36696e+06
1.60148e+06
1.91473e+06
2.31898e+06
2.87374e+06
3.74481e+06
5.42006e+06
9.33069e+06
2.04934e+07
6.44552e+07
3.93685e+08
62007.8
62660.2
63478.7
64510.9
65820.5
67495.6
69659.7
72491.9
76260.2
81383.9
88553.4
98982.3
114991
141537
190948
301443
639774
2.51216e+06
3.79825e+07
61485.7
60953.7
60395.5
59811.6
59282.9
60548.1
64738.7
65508.3
68175.5
74702.6
88682.8
113274
149302
200475
298726
543330
848284
1.02285e+06
1.16464e+06
1.33124e+06
1.56909e+06
1.88335e+06
2.28789e+06
2.8426e+06
3.71489e+06
5.39055e+06
9.30232e+06
2.04539e+07
6.43477e+07
3.93105e+08
62007.8
62660.2
63478.7
64510.9
65820.5
67495.6
69659.7
72491.9
76260.2
81383.9
88553.4
98982.3
114991
141537
190948
301443
639774
2.51216e+06
3.79825e+07
61485.7
60953.6
60395.5
59810.8
59220.5
59378.4
63570
64435.9
65295.2
68406.6
76155.2
91612.2
116763
152629
208795
340279
620946
857405
997091
1.13362e+06
1.30122e+06
1.54193e+06
1.85601e+06
2.25983e+06
2.81344e+06
3.68538e+06
5.36418e+06
9.27723e+06
2.04176e+07
6.42549e+07
3.92522e+08
62007.8
62660.2
63478.7
64510.9
65820.5
67495.6
69659.7
72491.9
76260.2
81383.9
88553.4
98982.3
114991
141537
190948
301443
639774
2.51216e+06
3.79825e+07
61485.7
60953.6
60395.5
59810.6
59203
58827.8
61776.2
63778.7
63756.7
64959.5
68726.8
77656.8
94012.1
119203
155968
224525
403160
676144
848972
973867
1.10618e+06
1.27583e+06
1.51836e+06
1.83169e+06
2.23371e+06
2.78492e+06
3.65819e+06
5.34005e+06
9.25368e+06
2.03859e+07
6.41613e+07
3.92075e+08
62007.8
62660.2
63478.7
64510.9
65820.5
67495.6
69659.7
72491.9
76260.2
81383.9
88553.4
98982.3
114991
141537
190948
301443
639774
2.51216e+06
3.79825e+07
61485.7
60953.6
60395.5
59810.6
59199.1
58637.9
59774.7
63141.6
62937.5
63074.8
64570
69166.1
78956.2
95722
121067
161335
255702
474483
702264
835451
952065
1.0818e+06
1.25382e+06
1.49766e+06
1.80932e+06
2.20821e+06
2.75822e+06
3.63341e+06
5.31709e+06
9.23237e+06
2.0354e+07
6.409e+07
3.91601e+08
62007.8
62660.2
63478.7
64510.9
65820.5
67495.6
69659.7
72491.9
76260.2
81383.9
88553.4
98982.3
114991
141537
190948
301443
639774
2.51216e+06
3.79825e+07
61485.7
60953.6
60395.5
59810.6
59198.4
58576.6
58636
62165.3
62518.1
62047.9
62287.9
64295.3
69562.1
79885.2
96903.2
123189
173508
303972
534688
708190
820024
931699
1.05994e+06
1.23472e+06
1.47891e+06
1.78751e+06
2.18404e+06
2.73395e+06
3.6098e+06
5.29565e+06
9.21133e+06
2.03293e+07
6.40135e+07
3.91089e+08
62007.8
62660.2
63478.7
64510.9
65820.5
67495.6
69659.7
72491.9
76260.2
81383.9
88553.4
98982.3
114991
141537
190948
301443
639774
2.51216e+06
3.79825e+07
61485.7
60953.6
60395.5
59810.6
59198.3
58561.4
58113.4
60526.3
62160.7
61489.8
61098.7
61573.1
64044.7
69784.1
80464
97925.6
127550
196934
363280
573131
703471
805361
912723
1.04051e+06
1.21783e+06
1.46077e+06
1.76667e+06
2.16179e+06
2.71092e+06
3.58747e+06
5.27484e+06
9.19368e+06
2.0303e+07
6.39307e+07
3.90695e+08
62007.8
62660.2
63478.7
64510.9
65820.5
67495.6
69659.7
72491.9
76260.2
81383.9
88553.4
98982.3
114991
141537
190948
301443
639774
2.51216e+06
3.79825e+07
61485.7
60953.6
60395.5
59810.6
59198.3
58558.6
57947.8
58723.8
61627.5
61153.7
60437.4
60124.1
60916.4
63723
69805.2
80862.6
99626.6
137006
233620
420939
590772
695107
790862
895191
1.02327e+06
1.20192e+06
1.44336e+06
1.7473e+06
2.14072e+06
2.68904e+06
3.56598e+06
5.25616e+06
9.17562e+06
2.02747e+07
6.38674e+07
3.90255e+08
62007.8
62660.2
63478.7
64510.9
65820.5
67495.6
69659.7
72491.9
76260.2
81383.9
88553.4
98982.3
114991
141537
190948
301443
639774
2.51216e+06
3.79825e+07
61485.7
60953.6
60395.5
59810.6
59198.3
58558.2
57901
57763.5
60669.7
60966.3
60047.7
59321.4
59216.9
60237
63292.7
69702.9
81511.6
103164
154954
280566
465027
594875
685331
776552
879224
1.00739e+06
1.18692e+06
1.42728e+06
1.72898e+06
2.12065e+06
2.66806e+06
3.54609e+06
5.23769e+06
9.15704e+06
2.02527e+07
6.37967e+07
3.89872e+08
62007.8
62660.2
63478.7
64510.9
65820.5
67495.6
69659.7
72491.9
76260.2
81383.9
88553.4
98982.3
114991
141537
190948
301443
639774
2.51216e+06
3.79825e+07
61485.7
60953.6
60395.5
59810.6
59198.3
58558.1
57891.2
57342.3
59035.7
60690.7
59842.7
58906.5
58260
58315.8
59495.4
62789.9
69725.4
82804.6
110563
182500
330935
491534
592131
675408
762900
864335
992764
1.17375e+06
1.41209e+06
1.71151e+06
2.10145e+06
2.64843e+06
3.52672e+06
5.21941e+06
9.1415e+06
2.02285e+07
6.37352e+07
3.89532e+08
62007.8
62660.2
63478.7
64510.9
65820.5
67495.6
69659.7
72491.9
76260.2
81383.9
88553.4
98982.3
114991
141537
190948
301443
639774
2.51216e+06
3.79825e+07
61485.7
60953.6
60395.5
59810.6
59198.3
58558.1
57889.8
57225.2
57539
60116
59686.5
58664.2
57748
57235.1
57378
58714.9
62361.5
70025.6
85592.4
123881
218904
375425
503560
586534
665305
749698
850561
980138
1.16156e+06
1.39755e+06
1.69478e+06
2.08342e+06
2.62945e+06
3.50782e+06
5.20306e+06
9.1253e+06
2.02073e+07
6.36806e+07
3.8914e+08
62007.8
62660.2
63478.7
64510.9
65820.5
67495.6
69659.7
72491.9
76260.2
81383.9
88553.4
98982.3
114991
141537
190948
301443
639774
2.51216e+06
3.79825e+07
61485.7
60953.6
60395.5
59810.6
59198.3
58558.1
57889.6
57197.5
56797.1
59021.4
59579.2
58502.3
57447
56639.6
56189.9
56415.4
57979.1
62089.3
70913.6
90989.7
144527
260750
407257
506264
580036
654763
737155
837808
968715
1.14992e+06
1.38357e+06
1.67906e+06
2.06604e+06
2.611e+06
3.49039e+06
5.18678e+06
9.11065e+06
2.01884e+07
6.36174e+07
3.8879e+08
62007.8
62660.2
63478.7
64510.9
65820.5
67495.6
69659.7
72491.9
76260.2
81383.9
88553.4
98982.3
114991
141537
190948
301443
639774
2.51216e+06
3.79825e+07
61485.7
60953.6
60395.5
59810.6
59198.3
58558.1
57889.6
57192.9
56544.5
57422.7
59244.8
58432.3
57286.2
56271.3
55531
55123.9
55484.6
57345
62081.7
72801.3
100620
172545
301949
425528
504531
572968
644192
725277
826002
958034
1.13869e+06
1.37039e+06
1.66393e+06
2.04913e+06
2.59375e+06
3.47339e+06
5.17162e+06
9.09718e+06
2.01667e+07
6.35611e+07
3.88444e+08
62007.8
62660.2
63478.7
64510.9
65820.5
67495.6
69659.7
72491.9
76260.2
81383.9
88553.4
98982.3
114991
141537
190948
301443
639774
2.51216e+06
3.79825e+07
61485.7
60953.6
60395.5
59810.6
59198.3
58558.1
57889.6
57192.4
56479.8
56351.3
58537.8
58348
57204.9
56055.9
55125.8
54404.6
54082.2
54629.2
56840.8
62464.2
76484.2
115938
206347
335675
433729
500512
565330
633739
714097
814963
947902
1.12803e+06
1.35767e+06
1.64918e+06
2.03322e+06
2.57707e+06
3.45732e+06
5.15739e+06
9.08281e+06
2.01474e+07
6.35054e+07
3.88094e+08
62007.8
62660.2
63478.7
64510.9
65820.5
67495.6
69659.7
72491.9
76260.2
81383.9
88553.4
98982.3
114991
141537
190948
301443
639774
2.51216e+06
3.79825e+07
61485.7
60953.6
60395.5
59810.6
59198.3
58558.1
57889.6
57192.3
56467.7
55867.3
57263.1
58190.1
57146.4
55949.7
54870.2
53970.3
53295.5
53100.4
53839.8
56507
63514.7
83252.3
137349
242328
358579
435331
495793
557080
623570
703541
804587
938419
1.11769e+06
1.3452e+06
1.63522e+06
2.0179e+06
2.56119e+06
3.44209e+06
5.14303e+06
9.0696e+06
2.01282e+07
6.3449e+07
3.87815e+08
62007.8
62660.2
63478.7
64510.9
65820.5
67495.6
69659.7
72491.9
76260.2
81383.9
88553.4
98982.3
114991
141537
190948
301443
639774
2.51216e+06
3.79825e+07
61485.7
60953.6
60395.5
59810.6
59198.3
58558.1
57889.6
57192.3
56466.2
55741.2
55925.4
57738.3
57081.6
55884.9
54717.9
53695.5
52824.2
52240.1
52156.6
53126.7
56423.8
65841.9
94333.8
164175
275306
371159
433942
490449
548556
613735
693561
794973
929336
1.10746e+06
1.33332e+06
1.6218e+06
2.00328e+06
2.5461e+06
3.4271e+06
5.12953e+06
9.05667e+06
2.0109e+07
6.34043e+07
3.87475e+08
62007.8
62660.2
63478.7
64510.9
65820.5
67495.6
69659.7
72491.9
76260.2
81383.9
88553.4
98982.3
114991
141537
190948
301443
639774
2.51216e+06
3.79825e+07
61485.7
60953.6
60395.5
59810.6
59198.3
58558.1
57889.6
57192.3
56466.1
55714.6
55212.5
56840.9
57036.1
55840
54611.9
53522.7
52526.2
51726.2
51215.9
51242.9
52511.4
56807
70342.3
110449
194399
300620
376553
431025
484374
539899
604275
684275
785929
920451
1.09759e+06
1.32187e+06
1.60897e+06
1.98937e+06
2.53141e+06
3.41286e+06
5.11641e+06
9.04388e+06
2.00934e+07
6.33493e+07
3.87087e+08
62007.8
62660.2
63478.7
64510.9
65820.5
67495.6
69659.7
72491.9
76260.2
81383.9
88553.4
98982.3
114991
141537
190948
301443
639774
2.51216e+06
3.79825e+07
61485.7
60953.6
60395.5
59810.6
59198.3
58558.1
57889.6
57192.3
56466.1
55711
54986.4
55508.5
56797.3
55855.2
54563.3
53386.8
52334.4
51394.9
50659.7
50199.6
50364.8
52062.6
58057.4
78073.8
131320
224653
316961
377547
427353
477537
531291
595359
675532
777284
911894
1.088e+06
1.31089e+06
1.59675e+06
1.97592e+06
2.51742e+06
3.39908e+06
5.10364e+06
9.03286e+06
2.00747e+07
6.32866e+07
3.86784e+08
62007.8
62660.2
63478.7
64510.9
65820.5
67495.6
69659.7
72491.9
76260.2
81383.9
88553.4
98982.3
114991
141537
190948
301443
639774
2.51216e+06
3.79825e+07
61485.7
60953.6
60395.5
59810.6
59198.3
58558.1
57889.6
57192.3
56466.1
55710.7
54934.7
54610.9
56118.4
55830.4
54579.5
53296.2
52184.8
51175.6
50301.4
49595
49192
49539.5
51924
60808.9
89781.6
156092
250677
325708
376280
422973
470300
522963
586898
667209
769083
903607
1.07873e+06
1.3004e+06
1.58501e+06
1.96314e+06
2.50396e+06
3.38576e+06
5.09198e+06
9.02066e+06
2.00536e+07
6.32377e+07
3.86466e+08
62007.8
62660.2
63478.7
64510.9
65820.5
67495.6
69659.7
72491.9
76260.2
81383.9
88553.4
98982.3
114991
141537
190948
301443
639774
2.51216e+06
3.79825e+07
61485.7
60953.6
60395.5
59810.6
59198.3
58558.1
57889.6
57192.3
56466.1
55710.7
54926.8
54216.1
55036.1
55682.5
54603.6
53286.1
52066.5
51002.2
50058.2
49214.6
48530
48191.2
48818.6
52355.9
65856.9
105790
182688
269639
329196
373922
417759
462934
514910
578833
659325
761258
895611
1.06983e+06
1.29038e+06
1.57389e+06
1.95094e+06
2.49098e+06
3.37329e+06
5.08e+06
9.00766e+06
2.00369e+07
6.31863e+07
3.86138e+08
62007.8
62660.2
63478.7
64510.9
65820.5
67495.6
69659.7
72491.9
76260.2
81383.9
88553.4
98982.3
114991
141537
190948
301443
639774
2.51216e+06
3.79825e+07
61485.7
60953.6
60395.5
59810.6
59198.3
58558.1
57889.6
57192.3
56466.1
55710.7
54926.1
54128.6
53961
55337.1
54612.2
53298.2
52016.1
50860.1
49859.9
48957.2
48126.3
47452
47217
48293.9
53772.1
74089.5
125678
207880
281301
329617
370758
411883
455546
507163
571182
651817
753809
887917
1.06138e+06
1.28093e+06
1.5634e+06
1.93921e+06
2.47872e+06
3.36087e+06
5.06788e+06
8.99667e+06
2.00195e+07
6.31332e+07
3.85874e+08
62007.8
62660.2
63478.7
64510.9
65820.5
67495.6
69659.7
72491.9
76260.2
81383.9
88553.4
98982.3
114991
141537
190948
301443
639774
2.51216e+06
3.79825e+07
61485.7
60953.6
60395.5
59810.6
59198.3
58558.1
57889.6
57192.3
56466.1
55710.7
54926.1
54113.9
53430.4
54392.9
54640.8
53342.3
51983.4
50780
49694.9
48752.1
47858.8
47018.4
46366.6
46303.2
48123.7
56830.3
86046.5
148370
228234
287232
328288
366975
405568
448289
499766
563891
644689
746708
880785
1.05346e+06
1.27205e+06
1.55332e+06
1.92809e+06
2.46665e+06
3.3486e+06
5.05695e+06
8.98548e+06
2.00015e+07
6.30906e+07
3.85587e+08
62007.8
62660.2
63478.7
64510.9
65820.5
67495.6
69659.7
72491.9
76260.2
81383.9
88553.4
98982.3
114991
141537
190948
301443
639774
2.51216e+06
3.79825e+07
61485.7
60953.6
60395.5
59810.6
59198.3
58558.1
57889.6
57192.3
56466.1
55710.7
54926.1
54112.4
53297.5
53284.1
54307.2
53432.8
52017.8
50711
49583.8
48575.8
47650.5
46741.5
45888.9
45292.2
45504.2
48605.5
62331.8
101747
171513
242219
289289
326201
362258
399102
441257
492685
556975
637901
740126
874185
1.04595e+06
1.26352e+06
1.54375e+06
1.9172e+06
2.45481e+06
3.33718e+06
5.0461e+06
8.9742e+06
1.99869e+07
6.30441e+07
3.85287e+08
62007.8
62660.2
63478.7
64510.9
65820.5
67495.6
69659.7
72491.9
76260.2
81383.9
88553.4
98982.3
114991
141537
190948
301443
639774
2.51216e+06
3.79825e+07
61485.7
60953.6
60395.5
59810.6
59198.3
58558.1
57889.6
57192.3
56466.1
55710.7
54926.1
54112.3
53272.5
52630.3
53608.2
53391.1
52117.2
50702
49489.5
48443.6
47471.4
46532.9
45596.4
44748.5
44247.3
44929
50227.7
70971.9
120520
192056
250373
289180
323321
357028
392635
434454
485953
550392
631394
734030
867853
1.0387e+06
1.25541e+06
1.53441e+06
1.90654e+06
2.44366e+06
3.32597e+06
5.03538e+06
8.96445e+06
1.99711e+07
6.29957e+07
3.85041e+08
62007.8
62660.2
63478.7
64510.9
65820.5
67495.6
69659.7
72491.9
76260.2
81383.9
88553.4
98982.3
114991
141537
190948
301443
639774
2.51216e+06
3.79825e+07
61485.7
60953.6
60395.5
59810.6
59198.3
58558.1
57889.6
57192.3
56466.1
55710.7
54926.1
54112.3
53269.8
52441.5
52549.5
53274.3
52174.5
50776.5
49436.6
48325.4
47331
46355
45388.1
44430.9
43606.7
43270.9
44780.8
53648.6
82983.4
140929
207665
254215
287914
319884
351439
386245
427941
479536
544092
625229
728200
861706
1.0318e+06
1.2475e+06
1.52523e+06
1.89644e+06
2.43277e+06
3.31498e+06
5.02554e+06
8.95427e+06
1.99548e+07
6.29558e+07
3.84771e+08
62007.8
62660.2
63478.7
64510.9
65820.5
67495.6
69659.7
72491.9
76260.2
81383.9
88553.4
98982.3
114991
141537
190948
301443
639774
2.51216e+06
3.79825e+07
61485.7
60953.6
60395.5
59810.6
59198.3
58558.1
57889.6
57192.3
56466.1
55710.7
54926.1
54112.3
53269.6
52403.2
51853
52709.1
52246.9
50846.8
49456.8
48233.2
47198.5
46210.4
45216.6
44216.8
43251.7
42480.4
42436.5
45392.4
59549.5
98087.7
160670
217803
255375
285891
315574
345688
380040
421705
473399
538116
619380
722567
855812
1.02508e+06
1.23973e+06
1.51653e+06
1.88663e+06
2.42213e+06
3.30462e+06
5.01562e+06
8.94392e+06
1.9941e+07
6.29122e+07
3.84482e+08
62007.8
62660.2
63478.7
64510.9
65820.5
67495.6
69659.7
72491.9
76260.2
81383.9
88553.4
98982.3
114991
141537
190948
301443
639774
2.51216e+06
3.79825e+07
61485.7
60953.6
60395.5
59810.6
59198.3
58558.1
57889.6
57192.3
56466.1
55710.7
54926.1
54112.3
53269.6
52398.7
51560.2
51796.9
52138.8
50958.7
49493.9
48202.4
47086.4
46075.3
45078.1
44049.1
43026
42069.6
41396.8
41870.2
47257.5
68378.2
115571
177117
223375
254783
283212
310803
339946
374041
415728
467568
532443
613792
717186
850059
1.01847e+06
1.23234e+06
1.5081e+06
1.87706e+06
2.41199e+06
3.29433e+06
5.00575e+06
8.93477e+06
1.99262e+07
6.28653e+07
3.84234e+08
62007.8
62660.2
63478.7
64510.9
65820.5
67495.6
69659.7
72491.9
76260.2
81383.9
88553.4
98982.3
114991
141537
190948
301443
639774
2.51216e+06
3.79825e+07
61485.7
60953.6
60395.5
59810.6
59198.3
58558.1
57889.6
57192.3
56466.1
55710.7
54926.1
54112.3
53269.6
52398.4
51506.5
51012.7
51764.9
51026.2
49593.1
48185.8
47019.5
45957.1
44949.5
43916.5
42858.1
41825.8
40897.1
40398.6
41789.2
50992.7
80273.6
133714
188826
225666
253513
279887
305773
334293
368259
410035
462036
527021
608501
711976
844390
1.01216e+06
1.2252e+06
1.49989e+06
1.86791e+06
2.402e+06
3.28426e+06
4.99658e+06
8.92521e+06
1.99103e+07
6.28252e+07
3.84008e+08
62007.8
62660.2
63478.7
64510.9
65820.5
67495.6
69659.7
72491.9
76260.2
81383.9
88553.4
98982.3
114991
141537
190948
301443
639774
2.51216e+06
3.79825e+07
61485.7
60953.6
60395.5
59810.6
59198.3
58558.1
57889.6
57192.3
56466.1
55710.7
54926.1
54112.3
53269.6
52398.4
51499.6
50652.6
50941.2
51042.7
49724.1
48239
46956
45876.3
44833.4
43796.3
42727.6
41655
40623.2
39748.6
39562.3
42552.9
57227.9
94775.6
150159
195964
226134
251491
275917
300639
328775
362725
404637
456743
521890
603451
706882
838957
1.00608e+06
1.21826e+06
1.49204e+06
1.85893e+06
2.39242e+06
3.27473e+06
4.98732e+06
8.91529e+06
1.98966e+07
6.27886e+07
3.83761e+08
62007.8
62660.2
63478.7
64510.9
65820.5
67495.6
69659.7
72491.9
76260.2
81383.9
88553.4
98982.3
114991
141537
190948
301443
639774
2.51216e+06
3.79825e+07
61485.7
60953.6
60395.5
59810.6
59198.3
58558.1
57889.6
57192.3
56466.1
55710.7
54926.1
54112.3
53269.6
52398.4
51499.2
50582.8
50128.1
50736.4
49851.3
48347.1
46946
45795.2
44748.6
43686.6
42613.3
41526.1
40444.4
39424.3
38649.3
39032.3
44693.8
66241.5
110817
162962
199610
225355
248956
271561
295505
323446
357479
399454
451730
517010
598585
702004
833722
1.00018e+06
1.21165e+06
1.48438e+06
1.85035e+06
2.38336e+06
3.26526e+06
4.97798e+06
8.90631e+06
1.98839e+07
6.27485e+07
3.83494e+08
62007.8
62660.2
63478.7
64510.9
65820.5
67495.6
69659.7
72491.9
76260.2
81383.9
88553.4
98982.3
114991
141537
190948
301443
639774
2.51216e+06
3.79825e+07
61485.7
60953.6
60395.5
59810.6
59198.3
58558.1
57889.6
57192.3
56466.1
55710.7
54926.1
54112.3
53269.6
52398.4
51499.1
50573.2
49719.1
50016.3
49893.5
48510.3
46982
45743.5
44661.4
43602.3
42511.5
41416.4
40314.7
39230.3
38238.2
37649.3
39063.1
48795.9
77911.3
126553
171530
200931
223962
245728
266997
290462
318401
352402
394542
446977
512342
593959
697323
828649
994574
1.20521e+06
1.477e+06
1.84227e+06
2.37443e+06
3.25583e+06
4.96916e+06
8.89783e+06
1.98702e+07
6.27052e+07
3.8337e+08
62007.8
62660.2
63478.7
64510.9
65820.5
67495.6
69659.7
72491.9
76260.2
81383.9
88553.4
98982.3
114991
141537
190948
301443
639774
2.51216e+06
3.79825e+07
61485.7
60953.6
60395.5
59810.6
59198.3
58558.1
57889.6
57192.3
56466.1
55710.7
54926.1
54112.3
53269.6
52398.4
51499.1
50572.5
49632.8
49203.1
49626.2
48647.6
47114.6
45710.7
44593.4
43514.9
42432.8
41320.1
40207.6
39096.7
38017.7
37083
36842.6
40042.3
55316.6
91640.8
139904
176416
200779
221948
242012
262373
285715
313435
347583
389890
442456
507913
589554
692810
823822
989140
1.19898e+06
1.47003e+06
1.83435e+06
2.36559e+06
3.24673e+06
4.9606e+06
8.88892e+06
1.98555e+07
6.26853e+07
3.82988e+08
62007.8
62660.2
63478.7
64510.9
65820.5
67495.6
69659.7
72491.9
76260.2
81383.9
88553.4
98982.3
114991
141537
190948
301443
639774
2.51216e+06
3.79825e+07
61485.7
60953.6
60395.5
59810.6
59198.3
58558.1
57889.6
57192.3
56466.1
55710.7
54926.1
54112.3
53269.6
52398.4
51499.1
50572.5
49620.3
48758
49011
48629.8
47280
45768.1
44525.5
43440.1
42356.6
41245.5
40115
38990.3
37876.7
36814.9
35990.2
36391.2
42485.3
64418.2
106103
149595
178622
199879
219446
238003
258109
280865
308714
343021
385484
438178
503710
585346
688526
819167
983870
1.19308e+06
1.46323e+06
1.82653e+06
2.357e+06
3.2378e+06
4.95189e+06
8.87965e+06
1.98481e+07
6.26232e+07
3.83111e+08
62007.8
62660.2
63478.7
64510.9
65820.5
67495.6
69659.7
72491.9
76260.2
81383.9
88553.4
98982.3
114991
141537
190948
301443
639774
2.51216e+06
3.79825e+07
61485.7
60953.6
60395.5
59810.6
59198.3
58558.1
57889.6
57192.3
56466.1
55710.7
54926.1
54112.3
53269.6
52398.4
51499.1
50572.5
49619.3
48657.3
48235.3
48518.7
47379.6
45885.7
44515.8
43365.7
42287.9
41177.3
40041.8
38900
37770.2
36660.6
35633
35015.3
36570
46946.7
75792.7
119401
155661
179230
198345
216319
234211
253352
276259
304240
338710
381324
434126
499715
581375
684419
814650
978865
1.18734e+06
1.45656e+06
1.81894e+06
2.34853e+06
3.2288e+06
4.94308e+06
8.87342e+06
1.98277e+07
6.26434e+07
62007.8
62660.2
63478.7
64510.9
65820.5
67495.6
69659.7
72491.9
76260.2
81383.9
88553.4
98982.3
114991
141537
190948
301443
639774
2.51216e+06
3.79825e+07
61485.7
60953.6
60395.5
59810.6
59198.3
58558.1
57889.6
57192.3
56466.1
55710.7
54926.1
54112.3
53269.6
52398.4
51499.1
50572.5
49619.3
48641.8
47768.5
47960.8
47457.3
46007.3
44546.7
43334
42222.2
41115.3
39977.2
38828.2
37681.8
36552.2
35452.9
34489.5
34262.5
37803.7
53747.3
88612.3
129899
158848
178698
196365
213027
229785
248901
271883
300013
334646
377391
430291
495955
577599
680448
810352
974025
1.18176e+06
1.4501e+06
1.81145e+06
2.34002e+06
3.21984e+06
4.93565e+06
8.86201e+06
1.98321e+07
62007.8
62660.2
63478.7
64510.9
65820.5
67495.6
69659.7
72491.9
76260.2