/*--------------------------------*- C++ -*----------------------------------*\
| =========                 |                                                 |
| \\      /  F ield         | OpenFOAM: The Open Source CFD Toolbox           |
|  \\    /   O peration     | Version:  v2012                                 |
|   \\  /    A nd           | Website:  www.openfoam.com                      |
|    \\/     M anipulation  |                                                 |
\*---------------------------------------------------------------------------*/
FoamFile
{
    version     2.0;
    format      ascii;
    class       volScalarField;
    location    "1901";
    object      p;
}
// * * * * * * * * * * * * * * * * * * * * * * * * * * * * * * * * * * * * * //

dimensions      [1 -1 -2 0 0 0 0];


internalField   nonuniform List<scalar> 
8000
(
671.719
671.719
671.719
671.719
671.719
671.719
671.719
671.719
671.719
671.719
671.719
671.719
671.719
671.719
671.719
671.719
671.719
671.719
671.719
671.719
671.719
671.719
671.719
671.719
671.719
671.719
671.719
671.719
671.719
671.719
671.719
671.719
671.719
671.719
671.719
671.719
671.719
671.719
671.719
671.719
671.719
671.719
671.719
671.719
671.719
671.719
671.719
671.719
671.719
671.719
671.719
671.719
671.719
671.719
671.719
671.719
671.719
671.719
671.719
671.719
671.719
671.719
671.719
671.719
671.719
671.719
671.719
671.719
671.719
671.719
671.719
671.719
671.719
671.719
671.719
671.719
671.719
671.719
671.719
671.719
671.719
671.719
671.719
671.719
671.719
671.719
671.719
671.719
671.719
671.719
671.719
671.719
671.719
671.719
671.719
671.719
671.719
671.719
671.719
671.719
671.719
671.719
671.719
671.719
671.719
671.719
671.719
671.719
671.719
671.719
671.719
671.719
671.719
671.719
671.719
671.719
671.719
671.719
671.719
671.719
671.719
671.719
671.719
671.719
671.719
671.719
671.719
671.719
671.719
671.719
671.719
671.719
671.719
671.719
671.719
671.719
671.719
671.719
671.719
671.719
671.719
671.719
671.719
671.719
671.719
671.719
671.719
671.719
671.719
671.719
671.719
671.719
671.719
671.719
671.719
671.719
671.719
671.719
671.719
671.719
671.719
671.719
671.719
671.719
671.719
671.719
671.719
671.719
671.719
671.719
671.719
671.72
671.719
671.719
671.719
671.719
671.719
671.719
671.719
671.719
671.719
671.719
671.719
671.719
671.719
671.719
671.719
671.719
671.719
671.719
669.953
671.72
671.719
671.719
671.719
671.719
671.719
671.719
671.719
671.719
671.719
671.719
671.719
671.719
671.719
671.719
671.719
671.719
671.719
671.719
672.747
1192.06
671.719
671.719
671.719
671.719
671.719
671.719
671.719
671.719
671.719
671.719
671.719
671.719
671.719
671.719
671.719
671.719
671.719
671.719
671.719
672.267
1118.69
1020.29
671.719
671.719
671.719
671.719
671.719
671.719
671.719
671.719
671.719
671.719
671.719
671.719
671.719
671.719
671.719
671.719
671.719
671.719
671.719
672.38
1074.23
1030.74
889.305
671.719
671.719
671.719
671.719
671.719
671.719
671.719
671.719
671.719
671.719
671.719
671.719
671.719
671.719
671.719
671.719
671.719
671.719
671.719
672.135
1004.71
1040.75
890.277
847.333
671.719
671.719
671.719
671.719
671.719
671.719
671.719
671.719
671.719
671.719
671.719
671.719
671.719
671.719
671.719
671.719
671.719
671.719
671.719
672.067
979.352
1054.36
891.287
847.752
808.059
671.719
671.719
671.719
671.719
671.719
671.719
671.719
671.719
671.719
671.719
671.719
671.719
671.719
671.719
671.719
671.719
671.719
671.719
671.719
671.95
943.921
1046.54
894.223
848.042
808.299
785.245
671.719
671.719
671.719
671.719
671.719
671.719
671.719
671.719
671.719
671.719
671.719
671.719
671.719
671.719
671.719
671.719
671.719
671.719
671.719
671.878
895.552
1037.56
901.434
848.675
808.427
785.397
770.044
671.719
671.719
671.719
671.719
671.719
671.719
671.719
671.719
671.719
671.719
671.719
671.719
671.719
671.719
671.719
671.719
671.719
671.719
671.719
671.819
847.536
1011.35
917.214
849.256
808.623
785.484
770.145
758.262
671.719
671.719
671.719
671.719
671.719
671.719
671.719
671.719
671.719
671.719
671.719
671.719
671.719
671.719
671.719
671.719
671.719
671.719
671.719
671.783
799.589
1003.82
937.55
850.313
809.013
785.609
770.201
758.332
748.763
671.719
671.719
671.719
671.719
671.719
671.719
671.719
671.719
671.719
671.719
671.719
671.719
671.719
671.719
671.719
671.719
671.719
671.719
671.719
671.756
761.081
994.436
960.197
851.96
809.558
785.792
770.283
758.372
748.813
738.941
671.719
671.719
671.719
671.719
671.719
671.719
671.719
671.719
671.719
671.719
671.719
671.719
671.719
671.719
671.719
671.719
671.719
671.719
671.719
671.74
729.407
969.617
975.162
856.634
810.429
786.111
770.386
758.428
748.841
738.975
728.334
671.719
671.719
671.719
671.719
671.719
671.719
671.719
671.719
671.719
671.719
671.719
671.719
671.719
671.719
671.719
671.719
671.719
671.719
671.719
671.73
706.483
944.133
980.85
865.448
811.268
786.688
770.549
758.498
748.882
738.995
728.354
717.553
671.719
671.719
671.719
671.719
671.719
671.719
671.719
671.719
671.719
671.719
671.719
671.719
671.719
671.719
671.719
671.719
671.719
671.719
671.719
671.724
691.135
896.673
976.031
882.244
813.062
787.657
770.823
758.596
748.933
739.023
728.363
717.553
712.121
671.719
671.719
671.719
671.719
671.719
671.719
671.719
671.719
671.719
671.719
671.719
671.719
671.719
671.719
671.719
671.719
671.719
671.719
671.719
671.722
681.804
848.224
974.898
902.106
817.814
788.831
771.357
758.759
749.004
739.06
728.377
717.555
712.123
708.137
671.719
671.719
671.719
671.719
671.719
671.719
671.719
671.719
671.719
671.719
671.719
671.719
671.719
671.719
671.719
671.719
671.719
671.719
671.719
671.72
676.58
797.329
966.007
921.188
827.58
789.57
772.226
759.044
749.119
739.113
728.398
717.557
712.116
708.127
707.807
671.719
671.719
671.719
671.719
671.719
671.719
671.719
671.719
671.719
671.719
671.719
671.719
671.719
671.719
671.719
671.719
671.719
671.719
671.719
671.72
673.891
752.398
952.161
935.057
839.218
791.621
773.482
759.58
749.306
739.198
728.441
717.561
712.111
708.116
707.798
710.993
671.719
671.719
671.719
671.719
671.719
671.719
671.719
671.719
671.719
671.719
671.719
671.719
671.719
671.719
671.719
671.719
671.719
671.719
671.719
671.719
672.615
717.999
924.612
944.026
856.694
796.65
774.158
760.698
749.645
739.347
728.52
717.585
712.107
708.101
707.785
710.997
713.129
671.719
671.719
671.719
671.719
671.719
671.719
671.719
671.719
671.719
671.719
671.719
671.719
671.719
671.719
671.719
671.719
671.719
671.719
671.719
671.719
672.058
695.428
882.756
943.597
875.5
802.13
775.599
761.494
750.372
739.632
728.661
717.639
712.099
708.082
707.771
710.984
713.126
714.935
671.719
671.719
671.719
671.719
671.719
671.719
671.719
671.719
671.719
671.719
671.719
671.719
671.719
671.719
671.719
671.719
671.719
671.719
671.719
671.719
671.837
682.582
830.036
941.106
895.298
812.613
778.908
762.752
751.666
740.163
728.946
717.703
712.106
708.068
707.75
710.976
713.122
714.928
715.74
671.719
671.719
671.719
671.719
671.719
671.719
671.719
671.719
671.719
671.719
671.719
671.719
671.719
671.719
671.719
671.719
671.719
671.719
671.719
671.719
671.756
676.178
775.799
933.327
909.232
825.581
781.793
764.181
752.277
741.338
729.517
718.098
712.221
708.067
707.727
710.963
713.117
714.928
715.738
716.33
671.719
671.719
671.719
671.719
671.719
671.719
671.719
671.719
671.719
671.719
671.719
671.719
671.719
671.719
671.719
671.719
671.719
671.719
671.719
671.719
671.729
673.358
730.647
913.754
922.593
842.093
787.7
766.812
753.286
742.52
730.407
718.497
712.443
708.063
707.711
710.941
713.111
714.925
715.738
716.332
716.54
671.719
671.719
671.719
671.719
671.719
671.719
671.719
671.719
671.719
671.719
671.719
671.719
671.719
671.719
671.719
671.719
671.719
671.719
671.719
671.719
671.722
672.255
700.3
876.081
922.365
862.117
794.32
769.045
755.028
743.627
732.059
719.242
712.783
708.311
707.727
710.946
713.107
714.92
715.738
716.332
716.541
716.065
671.719
671.719
671.719
671.719
671.719
671.719
671.719
671.719
671.719
671.719
671.719
671.719
671.719
671.719
671.719
671.719
671.719
671.719
671.719
671.719
671.72
671.874
683.628
823.135
920.687
881.714
804.688
772.46
756.804
744.81
733.157
720.38
713.239
708.579
707.793
710.799
713.025
714.9
715.74
716.333
716.542
716.069
715.581
671.719
671.719
671.719
671.719
671.719
671.719
671.719
671.719
671.719
671.719
671.719
671.719
671.719
671.719
671.719
671.719
671.719
671.719
671.719
671.719
671.719
671.758
675.997
766.43
912.851
895.973
819.458
776.432
759.376
746.845
734.417
721.974
713.867
708.858
708.107
711.108
713.198
714.965
715.742
716.335
716.544
716.069
715.585
714.74
671.719
671.719
671.719
671.719
671.719
671.719
671.719
671.719
671.719
671.719
671.719
671.719
671.719
671.719
671.719
671.719
671.719
671.719
671.719
671.719
671.719
671.728
673.045
720.687
890.394
906.514
836.764
782.441
761.771
748.685
736.052
723.125
715.006
709.302
708.133
710.955
713.159
714.967
715.755
716.341
716.548
716.071
715.585
714.741
714.244
671.719
671.719
671.719
671.719
671.719
671.719
671.719
671.719
671.719
671.719
671.719
671.719
671.719
671.719
671.719
671.719
671.719
671.719
671.719
671.719
671.719
671.721
672.071
692.537
846.733
905.789
858.664
790.709
764.834
750.989
738.082
724.461
715.866
709.973
708.398
710.968
713.205
714.984
715.762
716.343
716.549
716.072
715.587
714.743
714.245
713.563
671.719
671.719
671.719
671.719
671.719
671.719
671.719
671.719
671.719
671.719
671.719
671.719
671.719
671.719
671.719
671.719
671.719
671.719
671.719
671.719
671.719
671.719
671.798
679.033
789.014
902.634
874.741
803.839
768.492
753.263
740.384
726.308
716.373
711.008
708.685
710.909
713.233
715.03
715.805
716.374
716.567
716.081
715.59
714.745
714.247
713.566
712.797
671.719
671.719
671.719
671.719
671.719
671.719
671.719
671.719
671.719
671.719
671.719
671.719
671.719
671.719
671.719
671.719
671.719
671.719
671.719
671.719
671.719
671.719
671.734
673.848
734.782
888.917
891.848
819.736
773.766
755.815
742.719
728.589
717.425
711.539
709.215
710.983
713.291
715.084
715.826
716.393
716.581
716.089
715.596
714.748
714.249
713.566
712.8
712.073
671.719
671.719
671.719
671.719
671.719
671.719
671.719
671.719
671.719
671.719
671.719
671.719
671.719
671.719
671.719
671.719
671.719
671.719
671.719
671.719
671.719
671.719
671.721
672.231
698.519
853.143
891.754
842.099
781.112
758.728
745.207
731.055
718.637
711.67
709.724
711.192
713.327
715.173
715.886
716.431
716.606
716.107
715.605
714.753
714.252
713.568
712.801
712.075
711.348
671.719
671.719
671.719
671.719
671.719
671.719
671.719
671.719
671.719
671.719
671.719
671.719
671.719
671.719
671.719
671.719
671.719
671.719
671.719
671.719
671.719
671.719
671.719
671.82
680.736
797.053
889.768
860.389
792.905
762.252
747.843
733.661
720.606
712.539
709.637
711.653
713.487
715.24
715.954
716.485
716.638
716.129
715.621
714.762
714.257
713.57
712.802
712.076
711.349
710.776
671.719
671.719
671.719
671.719
671.719
671.719
671.719
671.719
671.719
671.719
671.719
671.719
671.719
671.719
671.719
671.719
671.719
671.719
671.719
671.719
671.719
671.719
671.719
671.735
674.129
739.247
880.217
877.148
808.633
767.178
750.634
736.485
722.555
713.281
709.285
711.592
713.698
715.355
716.048
716.559
716.688
716.159
715.642
714.777
714.266
713.575
712.805
712.078
711.35
710.776
710.015
671.719
671.719
671.719
671.719
671.719
671.719
671.719
671.719
671.719
671.719
671.719
671.719
671.719
671.719
671.719
671.719
671.719
671.719
671.719
671.719
671.719
671.719
671.719
671.721
672.229
699.368
847.324
879.732
830.621
774.217
753.778
739.425
724.985
714.67
709.618
710.842
714.177
715.642
716.098
716.655
716.754
716.205
715.671
714.797
714.28
713.582
712.809
712.08
711.352
710.777
710.015
709.393
671.719
671.719
671.719
671.719
671.719
671.719
671.719
671.719
671.719
671.719
671.719
671.719
671.719
671.719
671.719
671.719
671.719
671.719
671.719
671.719
671.719
671.719
671.719
671.719
671.803
680.319
791.7
877.375
849.266
785.993
757.431
742.516
727.656
716.072
709.803
710.402
713.825
715.981
716.213
716.765
716.835
716.268
715.712
714.824
714.299
713.593
712.815
712.084
711.354
710.779
710.017
709.393
708.938
671.719
671.719
671.719
671.719
671.719
671.719
671.719
671.719
671.719
671.719
671.719
671.719
671.719
671.719
671.719
671.719
671.719
671.719
671.719
671.719
671.719
671.719
671.719
671.719
671.73
673.754
733.562
868.821
867.352
801.573
762.549
745.701
730.687
717.977
710.371
710.117
713.435
716.187
716.474
716.883
716.94
716.348
715.767
714.861
714.325
713.609
712.825
712.089
711.357
710.78
710.018
709.394
708.94
708.32
671.719
671.719
671.719
671.719
671.719
671.719
671.719
671.719
671.719
671.719
671.719
671.719
671.719
671.719
671.719
671.719
671.719
671.719
671.719
671.719
671.719
671.719
671.719
671.719
671.72
672.083
694.995
833.558
868.636
824.7
769.696
749.203
733.955
720.231
711.055
710.148
712.145
715.749
716.902
717.152
717.02
716.444
715.839
714.911
714.362
713.632
712.839
712.099
711.362
710.783
710.02
709.395
708.94
708.321
707.843
671.719
671.719
671.719
671.719
671.719
671.719
671.719
671.719
671.719
671.719
671.719
671.719
671.719
671.719
671.719
671.719
671.719
671.719
671.719
671.719
671.719
671.719
671.719
671.719
671.719
671.767
678.112
776.406
865.749
842.56
782.106
753.191
737.463
722.972
712.156
710.134
711.848
715.202
717.11
717.401
717.122
716.55
715.924
714.974
714.409
713.662
712.859
712.112
711.37
710.788
710.022
709.397
708.941
708.321
707.844
707.301
671.719
671.719
671.719
671.719
671.719
671.719
671.719
671.719
671.719
671.719
671.719
671.719
671.719
671.719
671.719
671.719
671.719
671.719
671.719
671.719
671.719
671.719
671.719
671.719
671.719
671.724
672.996
720.651
853.657
859.148
798.368
758.803
741.139
726.138
713.693
710.212
711.3
714.499
717.009
717.808
717.397
716.654
716.027
715.052
714.47
713.701
712.887
712.13
711.382
710.795
710.026
709.399
708.942
708.322
707.844
707.301
706.719
671.719
671.719
671.719
671.719
671.719
671.719
671.719
671.719
671.719
671.719
671.719
671.719
671.719
671.719
671.719
671.719
671.719
671.719
671.719
671.719
671.719
671.719
671.719
671.719
671.719
671.719
671.902
687.782
811.611
858.951
822.111
766.859
745.164
729.7
715.775
710.326
710.894
714.017
716.277
717.813
717.641
716.842
716.123
715.142
714.546
713.751
712.922
712.155
711.398
710.805
710.033
709.403
708.944
708.323
707.845
707.302
706.72
706.282
671.719
671.719
671.719
671.719
671.719
671.719
671.719
671.719
671.719
671.719
671.719
671.719
671.719
671.719
671.719
671.719
671.719
671.719
671.719
671.719
671.719
671.719
671.719
671.719
671.719
671.719
671.737
675.412
752.735
854.889
839.481
780.586
749.895
733.54
718.473
710.692
710.579
713.42
716.31
717.685
718.007
717.098
716.225
715.246
714.635
713.812
712.967
712.186
711.42
710.819
710.042
709.409
708.948
708.325
707.846
707.303
706.72
706.283
705.795
671.719
671.719
671.719
671.719
671.719
671.719
671.719
671.719
671.719
671.719
671.719
671.719
671.719
671.719
671.719
671.719
671.719
671.719
671.719
671.719
671.719
671.719
671.719
671.719
671.719
671.719
671.72
672.307
704.018
833.265
851.454
799.128
756.366
737.66
721.73
711.323
710.383
712.78
715.893
717.18
717.91
717.384
716.49
715.339
714.74
713.885
713.021
712.227
711.448
710.838
710.054
709.417
708.953
708.328
707.847
707.304
706.721
706.283
705.796
705.33
671.719
671.719
671.719
671.719
671.719
671.719
671.719
671.719
671.719
671.719
671.719
671.719
671.719
671.719
671.719
671.719
671.719
671.719
671.719
671.719
671.719
671.719
671.719
671.719
671.719
671.719
671.719
671.782
680.447
782.301
849.507
820.791
766.553
742.073
725.513
712.663
710.348
712.204
715.705
717.208
717.768
717.591
716.673
715.484
714.849
713.967
713.087
712.276
711.483
710.863
710.071
709.429
708.96
708.332
707.85
707.305
706.722
706.283
705.796
705.331
704.902
671.719
671.719
671.719
671.719
671.719
671.719
671.719
671.719
671.719
671.719
671.719
671.719
671.719
671.719
671.719
671.719
671.719
671.719
671.719
671.719
671.719
671.719
671.719
671.719
671.719
671.719
671.719
671.723
673.299
725.158
842.858
839.788
781.546
747.632
729.633
714.82
710.459
711.701
715.175
716.964
717.519
717.501
717.074
715.712
714.964
714.065
713.165
712.335
711.527
710.894
710.093
709.444
708.97
708.339
707.854
707.307
706.723
706.284
705.797
705.331
704.903
704.357
671.719
671.719
671.719
671.719
671.719
671.719
671.719
671.719
671.719
671.719
671.719
671.719
671.719
671.719
671.719
671.719
671.719
671.719
671.719
671.719
671.719
671.719
671.719
671.719
671.719
671.719
671.719
671.719
671.907
688.709
806.436
842.604
803.835
755.11
734.129
717.936
710.692
711.404
714.625
716.808
717.504
717.442
717.097
715.957
715.212
714.144
713.253
712.405
711.58
710.932
710.12
709.464
708.984
708.348
707.86
707.311
706.725
706.285
705.797
705.332
704.903
704.358
703.959
671.719
671.719
671.719
671.719
671.719
671.719
671.719
671.719
671.719
671.719
671.719
671.719
671.719
671.719
671.719
671.719
671.719
671.719
671.719
671.719
671.719
671.719
671.719
671.719
671.719
671.719
671.719
671.719
671.733
675.243
748.964
838.084
822.354
767.514
739.268
721.922
711.544
711.257
713.913
716.44
717.429
717.372
716.99
716.341
715.398
714.24
713.346
712.485
711.642
710.979
710.154
709.489
709.001
708.359
707.868
707.316
706.728
706.287
705.798
705.332
704.904
704.358
703.959
703.675
671.719
671.719
671.719
671.719
671.719
671.719
671.719
671.719
671.719
671.719
671.719
671.719
671.719
671.719
671.719
671.719
671.719
671.719
671.719
671.719
671.719
671.719
671.719
671.719
671.719
671.719
671.719
671.719
671.72
672.185
700.817
820.226
834.949
785.739
745.958
726.711
713.233
711.36
713.127
715.987
717.328
717.38
717.018
716.35
715.683
714.452
713.438
712.578
711.715
711.034
710.195
709.521
709.023
708.374
707.878
707.323
706.733
706.29
705.8
705.333
704.904
704.358
703.959
703.676
703.248
671.719
671.719
671.719
671.719
671.719
671.719
671.719
671.719
671.719
671.719
671.719
671.719
671.719
671.719
671.719
671.719
671.719
671.719
671.719
671.719
671.719
671.719
671.719
671.719
671.719
671.719
671.719
671.719
671.719
671.757
678.658
769.439
834.023
807.054
756.62
732.016
715.969
711.399
712.389
715.336
717.209
717.384
717.099
716.381
715.874
714.625
713.601
712.662
711.796
711.098
710.243
709.559
709.05
708.394
707.892
707.332
706.739
706.294
705.803
705.335
704.905
704.359
703.959
703.676
703.249
702.875
671.719
671.719
671.719
671.719
671.719
671.719
671.719
671.719
671.719
671.719
671.719
671.719
671.719
671.719
671.719
671.719
671.719
671.719
671.719
671.719
671.719
671.719
671.719
671.719
671.719
671.719
671.719
671.719
671.719
671.721
672.746
714.666
820.838
826.735
771.758
738.733
719.841
711.867
711.719
714.562
716.983
717.335
717.199
716.487
715.798
714.966
713.782
712.753
711.888
711.172
710.299
709.604
709.083
708.417
707.909
707.344
706.747
706.3
705.806
705.337
704.906
704.36
703.96
703.676
703.249
702.876
702.55
671.719
671.719
671.719
671.719
671.719
671.719
671.719
671.719
671.719
671.719
671.719
671.719
671.719
671.719
671.719
671.719
671.719
671.719
671.719
671.719
671.719
671.719
671.719
671.719
671.719
671.719
671.719
671.719
671.719
671.719
671.81
683.515
786.161
826.85
795.278
747.334
724.652
712.593
711.406
713.675
716.722
717.329
717.31
716.67
715.822
715.021
713.966
712.954
711.969
711.255
710.365
709.658
709.123
708.446
707.93
707.36
706.758
706.307
705.811
705.34
704.908
704.361
703.961
703.677
703.249
702.876
702.551
702.119
671.719
671.719
671.719
671.719
671.719
671.719
671.719
671.719
671.719
671.719
671.719
671.719
671.719
671.719
671.719
671.719
671.719
671.719
671.719
671.719
671.719
671.719
671.719
671.719
671.719
671.719
671.719
671.719
671.719
671.719
671.723
673.682
729.45
824.515
813.899
761.275
730.469
714.625
711.137
712.903
716.291
717.265
717.407
716.833
715.897
714.951
714.217
713.108
712.087
711.336
710.436
709.72
709.169
708.48
707.956
707.378
706.772
706.317
705.818
705.344
704.911
704.363
703.962
703.677
703.249
702.876
702.551
702.12
701.762
671.719
671.719
671.719
671.719
671.719
671.719
671.719
671.719
671.719
671.719
671.719
671.719
671.719
671.719
671.719
671.719
671.719
671.719
671.719
671.719
671.719
671.719
671.719
671.719
671.719
671.719
671.719
671.719
671.719
671.719
671.719
671.911
689.858
795.121
821.926
780.876
738.215
718.074
711.348
712.282
715.711
717.18
717.487
716.996
716.052
714.995
714.188
713.402
712.269
711.422
710.522
709.792
709.223
708.52
707.987
707.401
706.789
706.329
705.826
705.35
704.915
704.365
703.963
703.678
703.25
702.876
702.551
702.12
701.762
701.451
671.719
671.719
671.719
671.719
671.719
671.719
671.719
671.719
671.719
671.719
671.719
671.719
671.719
671.719
671.719
671.719
671.719
671.719
671.719
671.719
671.719
671.719
671.719
671.719
671.719
671.719
671.719
671.719
671.719
671.719
671.719
671.729
675.095
742.807
816.93
800.741
750.36
723.152
711.851
711.997
714.949
717.008
717.575
717.138
716.167
715.094
714.173
713.549
712.438
711.588
710.588
709.872
709.285
708.567
708.024
707.428
706.81
706.344
705.837
705.358
704.92
704.369
703.966
703.68
703.251
702.877
702.551
702.12
701.762
701.452
701.058
671.719
671.719
671.719
671.719
671.719
671.719
671.719
671.719
671.719
671.719
671.719
671.719
671.719
671.719
671.719
671.719
671.719
671.719
671.719
671.719
671.719
671.719
671.719
671.719
671.719
671.719
671.719
671.719
671.719
671.719
671.719
671.719
672.08
696.937
800.843
814.246
768.786
730.57
714.055
712.02
714.036
716.671
717.607
717.246
716.304
715.219
714.243
713.531
712.71
711.728
710.671
709.961
709.354
708.621
708.067
707.461
706.834
706.362
705.85
705.367
704.927
704.373
703.969
703.682
703.252
702.878
702.552
702.12
701.762
701.452
701.059
700.729
671.719
671.719
671.719
671.719
671.719
671.719
671.719
671.719
671.719
671.719
671.719
671.719
671.719
671.719
671.719
671.719
671.719
671.719
671.719
671.719
671.719
671.719
671.719
671.719
671.719
671.719
671.719
671.719
671.719
671.719
671.719
671.719
671.74
676.957
753.23
815.754
790.768
741.845
717.286
712.356
713.112
716.06
717.595
717.327
716.434
715.351
714.39
713.571
712.787
711.912
710.83
710.04
709.433
708.682
708.116
707.498
706.864
706.385
705.866
705.379
704.935
704.379
703.973
703.684
703.254
702.879
702.552
702.121
701.762
701.452
701.059
700.729
700.459
671.719
671.719
671.719
671.719
671.719
671.719
671.719
671.719
671.719
671.719
671.719
671.719
671.719
671.719
671.719
671.719
671.719
671.719
671.719
671.719
671.719
671.719
671.719
671.719
671.719
671.719
671.719
671.719
671.719
671.719
671.719
671.719
671.719
672.332
704.12
802.096
808.56
758.184
723.169
712.728
712.44
715.188
717.515
717.356
716.577
715.505
714.543
713.658
712.765
712.095
710.985
710.174
709.504
708.748
708.174
707.542
706.898
706.411
705.886
705.394
704.946
704.387
703.978
703.688
703.256
702.881
702.553
702.121
701.763
701.452
701.059
700.729
700.46
700.132
671.719
671.719
671.719
671.719
671.719
671.719
671.719
671.719
671.719
671.719
671.719
671.719
671.719
671.719
671.719
671.719
671.719
671.719
671.719
671.719
671.719
671.719
671.719
671.719
671.719
671.719
671.719
671.719
671.719
671.719
671.719
671.719
671.719
671.757
679.132
761.727
807.839
779.925
732.645
714.598
712.007
714.152
717.344
717.34
716.723
715.692
714.719
713.82
712.821
712.075
711.231
710.33
709.584
708.827
708.239
707.591
706.938
706.442
705.909
705.411
704.958
704.396
703.985
703.693
703.259
702.883
702.555
702.122
701.763
701.453
701.059
700.729
700.46
700.133
699.791
671.719
671.719
671.719
671.719
671.719
671.719
671.719
671.719
671.719
671.719
671.719
671.719
671.719
671.719
671.719
671.719
671.719
671.719
671.719
671.719
671.719
671.719
671.719
671.719
671.719
671.719
671.719
671.719
671.719
671.719
671.719
671.719
671.719
671.72
672.662
710.843
801.858
800.005
747.857
718.211
711.863
713.35
716.955
717.293
716.877
715.906
714.912
713.952
712.925
712.047
711.375
710.495
709.732
708.884
708.31
707.648
706.984
706.478
705.936
705.432
704.974
704.408
703.993
703.699
703.264
702.886
702.557
702.124
701.764
701.453
701.06
700.73
700.46
700.132
699.792
699.525
671.719
671.719
671.719
671.719
671.719
671.719
671.719
671.719
671.719
671.719
671.719
671.719
671.719
671.719
671.719
671.719
671.719
671.719
671.719
671.719
671.719
671.719
671.719
671.719
671.719
671.719
671.719
671.719
671.719
671.719
671.719
671.719
671.719
671.719
671.782
681.474
767.246
802.563
771.655
726.033
712.283
712.912
716.318
717.173
717.002
716.164
715.121
714.105
713.049
712.101
711.371
710.72
709.865
708.967
708.386
707.709
707.036
706.519
705.967
705.456
704.992
704.421
704.004
703.706
703.269
702.89
702.559
702.125
701.765
701.454
701.06
700.73
700.46
700.133
699.791
699.527
699.327
671.719
671.719
671.719
671.719
671.719
671.719
671.719
671.719
671.719
671.719
671.719
671.719
671.719
671.719
671.719
671.719
671.719
671.719
671.719
671.719
671.719
671.719
671.719
671.719
671.719
671.719
671.719
671.719
671.719
671.719
671.719
671.719
671.719
671.719
671.721
673.049
717.239
799.419
791.299
740.269
714.451
712.948
715.416
716.907
717.127
716.412
715.353
714.257
713.172
712.228
711.419
710.793
710.057
709.096
708.452
707.78
707.096
706.566
706.004
705.484
705.014
704.438
704.016
703.715
703.276
702.894
702.563
702.128
701.767
701.455
701.061
700.73
700.461
700.133
699.792
699.526
699.329
698.905
671.719
671.719
671.719
671.719
671.719
671.719
671.719
671.719
671.719
671.719
671.719
671.719
671.719
671.719
671.719
671.719
671.719
671.719
671.719
671.719
671.719
671.719
671.719
671.719
671.719
671.719
671.719
671.719
671.719
671.719
671.719
671.719
671.719
671.719
671.719
671.814
683.959
770.987
798.379
761.116
719.535
713.545
714.132
716.411
717.173
716.7
715.588
714.421
713.308
712.354
711.509
710.783
710.226
709.239
708.578
707.838
707.16
706.621
706.045
705.517
705.039
704.457
704.031
703.726
703.284
702.9
702.567
702.131
701.769
701.456
701.062
700.731
700.461
700.133
699.792
699.527
699.328
698.907
698.963
671.719
671.719
671.719
671.719
671.719
671.719
671.719
671.719
671.719
671.719
671.719
671.719
671.719
671.719
671.719
671.719
671.719
671.719
671.719
671.719
671.719
671.719
671.719
671.719
671.719
671.719
671.719
671.719
671.719
671.719
671.719
671.719
671.719
671.719
671.719
671.723
673.499
722.035
792.204
782.424
731.18
714.313
713.29
715.514
717.228
716.893
715.846
714.594
713.46
712.507
711.668
710.843
710.217
709.448
708.699
707.908
707.236
706.681
706.092
705.555
705.068
704.48
704.049
703.74
703.294
702.908
702.573
702.135
701.772
701.458
701.063
700.732
700.461
700.133
699.792
699.527
699.329
698.906
698.965
698.133
671.719
671.719
671.719
671.719
671.719
671.719
671.719
671.719
671.719
671.719
671.719
671.719
671.719
671.719
671.719
671.719
671.719
671.719
671.719
671.719
671.719
671.719
671.719
671.719
671.719
671.719
671.719
671.719
671.719
671.719
671.719
671.719
671.719
671.719
671.719
671.719
671.852
686.275
771.611
791.117
752.278
717.589
712.092
714.59
717.189
717.077
716.089
714.786
713.638
712.677
711.808
710.949
710.203
709.574
708.84
708.033
707.292
706.749
706.146
705.599
705.102
704.506
704.07
703.755
703.305
702.917
702.579
702.14
701.776
701.461
701.065
700.733
700.462
700.134
699.792
699.527
699.329
698.906
698.964
698.135
671.719
671.719
671.719
671.719
671.719
671.719
671.719
671.719
671.719
671.719
671.719
671.719
671.719
671.719
671.719
671.719
671.719
671.719
671.719
671.719
671.719
671.719
671.719
671.719
671.719
671.719
671.719
671.719
671.719
671.719
671.719
671.719
671.719
671.719
671.719
671.719
671.724
673.961
725.493
792.915
774.558
726.202
711.846
713.708
717.069
717.112
716.337
715.012
713.845
712.876
711.972
711.075
710.248
709.549
709.026
708.152
707.377
706.817
706.203
705.647
705.14
704.536
704.094
703.773
703.319
702.927
702.587
702.146
701.78
701.464
701.067
700.735
700.463
700.135
699.793
699.527
699.329
698.906
698.965
698.135
671.719
671.719
671.719
671.719
671.719
671.719
671.719
671.719
671.719
671.719
671.719
671.719
671.719
671.719
671.719
671.719
671.719
671.719
671.719
671.719
671.719
671.719
671.719
671.719
671.719
671.719
671.719
671.719
671.719
671.719
671.719
671.719
671.719
671.719
671.719
671.719
671.719
671.893
688.202
770.853
788.198
743.87
713.651
713.494
716.752
717.007
716.537
715.272
714.1
713.095
712.14
711.201
710.364
709.58
709.065
708.335
707.501
706.878
706.27
705.703
705.183
704.571
704.121
703.794
703.335
702.94
702.596
702.153
701.785
701.468
701.07
700.737
700.465
700.136
699.793
699.528
699.329
698.907
698.965
698.134
671.719
671.719
671.719
671.719
671.719
671.719
671.719
671.719
671.719
671.719
671.719
671.719
671.719
671.719
671.719
671.719
671.719
671.719
671.719
671.719
671.719
671.719
671.719
671.719
671.719
671.719
671.719
671.719
671.719
671.719
671.719
671.719
671.719
671.719
671.719
671.719
671.719
671.726
674.386
727.82
784.529
765.626
720.706
714.018
715.963
716.717
716.672
715.607
714.399
713.34
712.32
711.336
710.465
709.655
709.017
708.491
707.627
706.988
706.323
705.762
705.232
704.61
704.153
703.818
703.354
702.954
702.608
702.161
701.792
701.473
701.073
700.739
700.467
700.137
699.794
699.528
699.33
698.907
698.965
698.136
671.719
671.719
671.719
671.719
671.719
671.719
671.719
671.719
671.719
671.719
671.719
671.719
671.719
671.719
671.719
671.719
671.719
671.719
671.719
671.719
671.719
671.719
671.719
671.719
671.719
671.719
671.719
671.719
671.719
671.719
671.719
671.719
671.719
671.719
671.719
671.719
671.719
671.719
671.933
689.598
769.557
781.802
736.739
715.935
714.402
716.099
716.699
715.977
714.766
713.597
712.507
711.482
710.589
709.774
709.05
708.48
707.812
707.108
706.392
705.832
705.287
704.654
704.19
703.846
703.376
702.971
702.621
702.171
701.799
701.478
701.078
700.742
700.469
700.139
699.796
699.529
699.33
698.907
698.965
698.136
671.719
671.719
671.719
671.719
671.719
671.719
671.719
671.719
671.719
671.719
671.719
671.719
671.719
671.719
671.719
671.719
671.719
671.719
671.719
671.719
671.719
671.719
671.719
671.719
671.719
671.719
671.719
671.719
671.719
671.719
671.719
671.719
671.719
671.719
671.719
671.719
671.719
671.719
671.727
674.721
728.659
783.826
760.466
719.667
713.22
715.246
716.671