/*--------------------------------*- C++ -*----------------------------------*\
| =========                 |                                                 |
| \\      /  F ield         | OpenFOAM: The Open Source CFD Toolbox           |
|  \\    /   O peration     | Version:  v2012                                 |
|   \\  /    A nd           | Website:  www.openfoam.com                      |
|    \\/     M anipulation  |                                                 |
\*---------------------------------------------------------------------------*/
FoamFile
{
    version     2.0;
    format      ascii;
    class       volScalarField;
    location    "1901";
    object      q2;
}
// * * * * * * * * * * * * * * * * * * * * * * * * * * * * * * * * * * * * * //

dimensions      [0 0 0 0 0 0 0];


internalField   nonuniform List<scalar> 
8000
(
1
1
1
1
1
1
1
1
1
1
1
1
1
1
1
1
1
1
1
1
1
1
1
1
1
1
1
1
1
1
1
1
1
1
1
1
1
1
1
1
1
1
1
1
1
1
1
1
1
1
1
1
1
1
1
1
1
1
1
1
1
1
1
1
1
1
1
1
1
1
1
1
1
1
1
1
1
1
1
1
1
1
1
1
1
1
1
1
1
1
1
1
1
1
1
1
1
1
1
1
1
1
1
1
1
1
1
1
1
1
1
1
1
1
1
1
1
1
1
1
1
1
1
1
1
1
1
1
1
1
1
1
1
1
1
1
1
1
1
1
1
1
1
1
1
1
1
1
1
1
1
1
1
1
1
1
1
1
1
1
1
1
1
1
1
1
1
1
1
1
1
1
1
1
1
1
1
1
1
1
1
1
1
1
1
1
1
1
1
1
1
1
1
1
1
1
1
1
1
1
1
1
1
1
1
1
1
1
1
1
1
1
1
1
1
1
1
1
1
1
1
1
1
1
1
1
1
1
1
1
1
1
0.999999
1
1
1
1
1
1
1
1
1
1
1
1
1
1
1
1
1
1
1
1
1
0.573696
1
1
1
1
1
1
1
1
1
1
1
1
1
1
1
1
1
1
1
1
1
1
0.160652
0.94281
1
1
1
1
1
1
1
1
1
1
1
1
1
1
1
1
1
1
1
1
1
1
0.0876449
0.166801
1
1
1
1
1
1
1
1
1
1
1
1
1
1
1
1
1
1
1
1
1
1
1
0.105639
0.0369629
0.552497
1
1
1
1
1
1
1
1
1
1
1
1
1
1
1
1
1
1
1
1
1
1
1
0.13487
0.0163012
0.0859398
0.947066
1
1
1
1
1
1
1
1
1
1
1
1
1
1
1
1
1
1
1
1
1
1
1
0.0798766
0.0150453
0.0193574
0.210861
0.999677
1
1
1
1
1
1
1
1
1
1
1
1
1
1
1
1
1
1
1
1
1
1
1
0.0390078
0.0234516
0.0079825
0.0355843
0.483036
1
1
1
1
1
1
1
1
1
1
1
1
1
1
1
1
1
1
1
1
1
1
1
1
0.0220243
0.0447552
0.006353
0.00872442
0.0804237
0.787844
1
1
1
1
1
1
1
1
1
1
1
1
1
1
1
1
1
1
1
1
1
1
1
1
0.0212808
0.0330209
0.0117622
0.0038353
0.0154783
0.165766
0.950523
1
1
1
1
1
1
1
1
1
1
1
1
1
1
1
1
1
1
1
1
1
1
1
1
0.0290307
0.0133061
0.0540086
0.00363511
0.00410375
0.0302604
0.296238
0.993069
1
1
1
1
1
1
1
1
1
1
1
1
1
1
1
1
1
1
1
1
1
1
1
1
0.0542293
0.00487016
0.468557
0.00739125
0.00198059
0.00659612
0.0565636
0.45976
0.999337
1
1
1
1
1
1
1
1
1
1
1
1
1
1
1
1
1
1
1
1
1
1
1
1
0.126969
0.00167905
0.815814
0.0271037
0.00237334
0.00197952
0.0118669
0.0971309
0.626993
0.999949
1
1
1
1
1
1
1
1
1
1
1
1
1
1
1
1
1
1
1
1
1
1
1
1
0.357428
0.000965052
0.171532
0.0940483
0.00644102
0.00117051
0.0029462
0.0210841
0.151877
0.766798
0.999995
1
1
1
1
1
1
1
1
1
1
1
1
1
1
1
1
1
1
1
1
1
1
1
1
0.879912
0.000906367
0.0155741
0.184962
0.0299947
0.00199154
0.00107103
0.00511584
0.0348683
0.219568
0.858848
0.999998
1
1
1
1
1
1
1
1
1
1
1
1
1
1
1
1
1
1
1
1
1
1
1
1
0.999996
0.00139118
0.00219414
0.821593
0.0435005
0.00815573
0.00090667
0.00150218
0.00911404
0.0545952
0.295602
0.902763
0.999998
1
1
1
1
1
1
1
1
1
1
1
1
1
1
1
1
1
1
1
1
1
1
1
1
1
0.00327729
0.000477264
1
0.0198321
0.0823676
0.00236715
0.000720637
0.0026956
0.0163192
0.0820776
0.371082
0.915893
0.999994
1
1
1
1
1
1
1
1
1
1
1
1
1
1
1
1
1
1
1
1
1
1
1
1
1
0.0113564
0.000188335
0.413192
0.0180772
0.0944121
0.0169608
0.000971375
0.000990501
0.00544893
0.0297473
0.120369
0.437085
0.923796
0.99998
1
1
1
1
1
1
1
1
1
1
1
1
1
1
1
1
1
1
1
1
1
1
1
1
1
0.055906
0.000137897
0.0128152
0.0249924
0.0257029
0.304426
0.00443863
0.000699326
0.00196633
0.0120579
0.0558352
0.176278
0.514058
0.926353
0.999958
1
1
1
1
1
1
1
1
1
1
1
1
1
1
1
1
1
1
1
1
1
1
1
1
1
0.371227
0.000189119
0.000942088
0.112359
0.00959631
0.340901
0.0652284
0.00160637
0.000926379
0.00486838
0.0282522
0.10723
0.252039
0.587587
0.931985
0.999944
1
1
1
1
1
1
1
1
1
1
1
1
1
1
1
1
1
1
1
1
1
1
1
1
1
0.999179
0.000469992
0.000147923
1
0.00453555
0.0751652
0.851305
0.0134966
0.00103078
0.00198046
0.0131208
0.0651372
0.185635
0.352548
0.658403
0.940302
0.999941
1
1
1
1
1
1
1
1
1
1
1
1
1
1
1
1
1
1
1
1
1
1
1
1
1
1
0.00201459
5.22353e-05
0.140613
0.00434174
0.0173432
0.75773
0.356413
0.00432845
0.00123411
0.00528929
0.03439
0.137367
0.297048
0.457015
0.716288
0.947136
0.999947
1
1
1
1
1
1
1
1
1
1
1
1
1
1
1
1
1
1
1
1
1
1
1
1
1
1
0.01419
4.0342e-05
0.00283803
0.00823824
0.00505169
0.239928
0.998013
0.0726037
0.00231259
0.00234822
0.0146272
0.0822118
0.221619
0.41246
0.544948
0.759416
0.954438
0.999958
1
1
1
1
1
1
1
1
1
1
1
1
1
1
1
1
1
1
1
1
1
1
1
1
1
1
0.158552
6.67767e-05
0.00018726
0.0556692
0.00204385
0.0547891
0.894319
0.971969
0.0191277
0.0021741
0.0056511
0.0378468
0.142562
0.309549
0.509046
0.616604
0.795562
0.960892
0.99997
1
1
1
1
1
1
1
1
1
1
1
1
1
1
1
1
1
1
1
1
1
1
1
1
1
1
0.993787
0.000229569
3.41287e-05
0.906046
0.00136506
0.0119649
0.467554
0.991216
0.530093
0.00780269
0.00312882
0.0143037
0.0847326
0.207803
0.402906
0.58673
0.672625
0.823202
0.966909
0.99998
1
1
1
1
1
1
1
1
1
1
1
1
1
1
1
1
1
1
1
1
1
1
1
1
1
1
1
0.00154588
1.62925e-05
0.00728895
0.00162582
0.00307928
0.144974
0.850176
0.989123
0.143889
0.0051553
0.0058993
0.0348855
0.13425
0.286056
0.4927
0.650493
0.71582
0.846801
0.972329
0.999988
1
1
1
1
1
1
1
1
1
1
1
1
1
1
1
1
1
1
1
1
1
1
1
1
1
1
1
0.0193412
1.9722e-05
0.000230505
0.00768966
0.00101543
0.0349975
0.52564
0.879954
0.981564
0.040614
0.00502393
0.0128344
0.0744836
0.195262
0.374119
0.575451
0.701856
0.751078
0.86727
0.977087
0.999993
1
1
1
1
1
1
1
1
1
1
1
1
1
1
1
1
1
1
1
1
1
1
1
1
1
1
1
0.412091
5.79896e-05
2.39217e-05
0.750299
0.000538436
0.00730251
0.239471
0.624289
0.86639
0.920458
0.0180275
0.00684331
0.0288836
0.124974
0.266527
0.468098
0.646866
0.740793
0.780718
0.885126
0.981281
0.999996
1
1
1
1
1
1
1
1
1
1
1
1
1
1
1
1
1
1
1
1
1
1
1
1
1
1
1
1
0.00039155
8.21053e-06
0.0123041
0.000595132
0.00164625
0.0783889
0.396588
0.565799
0.997727
0.328776
0.0112279
0.0120191
0.0601363
0.181392
0.35343
0.559071
0.706419
0.771974
0.806359
0.901272
0.984768
0.999998
1
1
1
1
1
1
1
1
1
1
1
1
1
1
1
1
1
1
1
1
1
1
1
1
1
1
1
1
0.00570019
8.46506e-06
0.000193306
0.00252519
0.000490527
0.01924
0.22538
0.334797
0.834834
1
0.102168
0.0102612
0.0236626
0.11253
0.250626
0.448154
0.642339
0.75575
0.798543
0.829729
0.915515
0.987641
0.999999
1
1
1
1
1
1
1
1
1
1
1
1
1
1
1
1
1
1
1
1
1
1
1
1
1
1
1
1
0.170143
2.44942e-05
1.45717e-05
0.177466
0.000263322
0.00381568
0.104417
0.206089
0.466825
0.999937
0.999756
0.0369636
0.0130242
0.0474513
0.166156
0.330211
0.546321
0.715266
0.796192
0.822566
0.851084
0.927722
0.989937
0.999999
1
1
1
1
1
1
1
1
1
1
1
1
1
1
1
1
1
1
1
1
1
1
1
1
1
1
1
1
1
0.000186974
4.40167e-06
0.0075093
0.000279689
0.000845915
0.0349536
0.125726
0.236392
0.936478
1
0.680132
0.0203977
0.0208679
0.0884998
0.229267
0.424702
0.641121
0.775698
0.830232
0.84485
0.87016
0.936578
0.991827
1
1
1
1
1
1
1
1
1
1
1
1
1
1
1
1
1
1
1
1
1
1
1
1
1
1
1
1
1
1
0.0035342
4.69676e-06
9.22934e-05
0.00138729
0.000243145
0.00869429
0.0716028
0.126773
0.586828
1
1
0.158022
0.0172533
0.0376238
0.148404
0.304753
0.5276
0.725205
0.825041
0.859349
0.86518
0.88602
0.944235
0.993378
1
1
1
1
1
1
1
1
1
1
1
1
1
1
1
1
1
1
1
1
1
1
1
1
1
1
1
1
1
1
0.156876
1.59538e-05
7.01714e-06
0.213513
0.000132318
0.00171021
0.0352946
0.0711264
0.259991
1
1
1
0.0515462
0.0207881
0.0688982
0.205922
0.393967
0.630758
0.795727
0.864968
0.884269
0.882885
0.899779
0.950892
0.994635
1
1
1
1
1
1
1
1
1
1
1
1
1
1
1
1
1
1
1
1
1
1
1
1
1
1
1
1
1
1
1
0.000160961
2.4001e-06
0.00162857
0.000167029
0.000372543
0.0128277
0.0426248
0.115049
0.967483
1
1
0.703545
0.0278872
0.031611
0.118951
0.275624
0.496639
0.725883
0.852132
0.897079
0.904814
0.898235
0.911785
0.956685
0.995669
1
1
1
1
1
1
1
1
1
1
1
1
1
1
1
1
1
1
1
1
1
1
1
1
1
1
1
1
1
1
1
0.00455541
3.29201e-06
2.67167e-05
0.0011351
0.000116339
0.00327388
0.0253352
0.0546073
0.458147
1
1
1
0.157073
0.0238586
0.0538668
0.182055
0.3578
0.605702
0.806349
0.895818
0.921857
0.921546
0.911563
0.922271
0.961745
0.996511
1
1
1
1
1
1
1
1
1
1
1
1
1
1
1
1
1
1
1
1
1
1
1
1
1
1
1
1
1
1
1
0.334621
1.58513e-05
2.91062e-06
0.128438
7.43155e-05
0.000668948
0.012742
0.0290831
0.144427
1
1
1
0.999996
0.0540238
0.0289947
0.09266
0.244949
0.456265
0.710419
0.869938
0.92782
0.940604
0.935213
0.92313
0.931408
0.966224
0.997185
1
1
1
1
1
1
1
1
1
1
1
1
1
1
1
1
1
1
1
1
1
1
1
1
1
1
1
1
1
1
1
1
0.000252209
1.48805e-06
0.000198924
0.000139451
0.000148547
0.00462054
0.0166098
0.0510615
1
1
1
1
0.529506
0.0318904
0.0437037
0.151812
0.320775
0.565213
0.802437
0.916223
0.95041
0.954783
0.946388
0.93308
0.93949
0.970145
0.997731
1
1
1
1
1
1
1
1
1
1
1
1
1
1
1
1
1
1
1
1
1
1
1
1
1
1
1
1
1
1
1
1
0.012631
3.26884e-06
6.13141e-06
0.00163239
5.85924e-05
0.00108653
0.00943714
0.0212761
0.743407
1
0.999995
1
1
0.123832
0.0296429
0.0723566
0.215432
0.408578
0.678894
0.874698
0.947668
0.966125
0.965496
0.955466
0.941763
0.946627
0.97355
0.998171
1
1
1
1
1
1
1
1
1
1
1
1
1
1
1
1
1
1
1
1
1
1
1
1
1
1
1
1
1
1
1
1
0.960608
2.71378e-05
1.23012e-06
0.00354989
4.78058e-05
0.000237038
0.00431165
0.0105801
0.163275
1
0.999717
1
1
0.987499
0.0500745
0.0377429
0.118924
0.283032
0.516599
0.783175
0.92544
0.968109
0.976926
0.973536
0.962932
0.949389
0.9528
0.976545
0.998526
1
1
1
1
1
1
1
1
1
1
1
1
1
1
1
1
1
1
1
1
1
1
1
1
1
1
1
1
1
1
1
1
1
0.000821458
1.20976e-06
2.27118e-05
0.000204861
5.87627e-05
0.00138034
0.00589889
0.0378062
1
0.999927
0.999972
1
1
0.327031
0.0342683
0.0572881
0.187421
0.365085
0.63405
0.866645
0.958073
0.980921
0.984252
0.979615
0.96917
0.955903
0.958216
0.979166
0.998814
1
1
1
1
1
1
1
1
1
1
1
1
1
1
1
1
1
1
1
1
1
1
1
1
1
1
1
1
1
1
1
1
1
0.0873437
5.2583e-06
1.61168e-06
0.0472309
2.88612e-05
0.000314695
0.00320899
0.0124662
1
1
0.991659
1
1
1
0.0917887
0.0352329
0.093143
0.249246
0.463345
0.748992
0.925274
0.977517
0.988706
0.989209
0.984303
0.974271
0.961529
0.962937
0.981466
0.999044
1
1
1
1
1
1
1
1
1
1
1
1
1
1
1
1
1
1
1
1
1
1
1
1
1
1
1
1
1
1
1
1
1
1
9.2719e-05
6.89432e-07
0.000116804
4.51667e-05
6.86158e-05
0.00143835
0.00536683
0.536183
1
0.964664
1
1
1
0.777724
0.0452565
0.0472114
0.148391
0.322802
0.579541
0.846242
0.961614
0.988375
0.993335
0.992614
0.987869
0.978465
0.96636
0.967049
0.983484
0.99923
1
1
1
1
1
1
1
1
1
1
1
1
1
1
1
1
1
1
1
1
1
1
1
1
1
1
1
1
1
1
1
1
1
1
0.00652677
1.53393e-06
2.86348e-06
0.000564844
2.59418e-05
0.000410711
0.00274565
0.0537489
1
0.965399
0.999999
1
1
1
0.193586
0.0362112
0.0729101
0.218411
0.411191
0.701845
0.916516
0.981718
0.994125
0.996092
0.994936
0.990583
0.98191
0.97049
0.970641
0.985245
0.99938
1
1
1
1
1
1
1
1
1
1
1
1
1
1
1
1
1
1
1
1
1
1
1
1
1
1
1
1
1
1
1
1
1
1
0.949756
1.56524e-05
6.09767e-07
0.0019944
2.01264e-05
9.71665e-05
0.00128419
0.0098818
1
0.996528
0.995334
1
1
1
0.99749
0.0686733
0.0413484
0.116714
0.283605
0.52067
0.813172
0.959737
0.991788
0.997095
0.99772
0.99651
0.992652
0.984729
0.974032
0.973738
0.986795
0.999501
1
1
1
1
1
1
1
1
1
1
1
1
1
1
1
1
1
1
1
1
1
1
1
1
1
1
1
1
1
1
1
1
1
1
1
0.000710598
6.95768e-07
7.08878e-06
0.000101455
2.46217e-05
0.000435557
0.00284976
0.672667
1
0.857426
1
1
1
1
0.437673
0.041794
0.0584929
0.181866
0.363607
0.643697
0.898595
0.982531
0.996495
0.998592
0.998668
0.997581
0.994228
0.987037
0.97701
0.976419
0.988158
0.999599
1
1
1
1
1
1
1
1
1
1
1
1
1
1
1
1
1
1
1
1
1
1
1
1
1
1
1
1
1
1
1
1
1
1
1
0.141854
4.08641e-06
5.94823e-07
0.00848034
1.32175e-05
0.00010476
0.00101069
0.049267
1
0.611833
0.999989
1
1
1
1
0.119725
0.039055
0.091592
0.248453
0.459697
0.767817
0.952521
0.993102
0.998575
0.999325
0.999219
0.99831
0.995424
0.988885
0.97947
0.978765
0.989366
0.999677
1
1
1
1
1
1
1
1
1
1
1
1
1
1
1
1
1
1
1
1
1
1
1
1
1
1
1
1
1
1
1
1
1
1
1
1
0.000118396
4.04487e-07
2.13225e-05
3.36255e-05
2.28419e-05
0.00036397
0.00691585
1
0.514934
0.929798
1
1
1
1
0.839114
0.0545714
0.0489056
0.144091
0.319481
0.581591
0.870515
0.980694
0.997509
0.99944
0.999678
0.999539
0.998803
0.996321
0.990266
0.981594
0.980822
0.990446
0.999739
1
1
1
1
1
1
1
1
1
1
1
1
1
1
1
1
1
1
1
1
1
1
1
1
1
1
1
1
1
1
1
1
1
1
1
1
0.0167026
1.41649e-06
8.88548e-07
0.000649916
9.70233e-06
9.8195e-05
0.00155372
0.961531
0.604766
0.501434
1
1
1
1
1
0.234358
0.0403827
0.0722571
0.218638
0.407875
0.712203
0.939113
0.993157
0.999163
0.999786
0.999847
0.999724
0.999138
0.996991
0.991435
0.983429
0.982675
0.991399
0.99979
1
1
1
1
1
1
1
1
1
1
1
1
1
1
1
1
1
1
1
1
1
1
1
1
1
1
1
1
1
1
1
1
1
1
1
1
1
2.66972e-05
2.96592e-07
7.42207e-05
1.29836e-05
2.44338e-05
0.000451305
0.0919338
0.966003
0.268252
1
1
1
1
1
0.997079
0.0806483
0.0431859
0.114079
0.281827
0.518311
0.830926
0.976059
0.997853
0.999736
0.99992
0.999927
0.999832
0.999368
0.997517
0.992422
0.985079
0.984324
0.992243
0.99983
1
1
1
1
1
1
1
1
1
1
1
1
1
1
1
1
1
1
1
1
1
1
1
1
1
1
1
1
1
1
1
1
1
1
1
1
1
0.00266548
6.53033e-07
1.14414e-06
0.00018405
9.2699e-06
0.000110318
0.00626793
1
0.237962
0.982706
1
1
1
1
1
0.481305
0.0462807
0.0585048
0.177216
0.36017
0.648026
0.917856
0.992081
0.999398
0.999921
0.99997
0.999964
0.999896
0.999531
0.997931
0.993296
0.98655
0.985763
0.993001
0.999863
1
1
1
1
1
1
1
1
1
1
1
1
1
1
1
1
1
1
1
1
1
1
1
1
1
1
1
1
1
1
1
1
1
1
1
1
1
0.899349
8.1032e-06
2.5463e-07
0.000238736
7.2385e-06
2.43856e-05
0.000743204
0.999983
0.452717
0.54426
1
1
1
1
1
1
0.134539
0.0409366
0.0897991
0.247676
0.456298
0.779619
0.967587
0.997784
0.999847
0.999977
0.999989
0.999983
0.999935
0.999647
0.998271
0.994066
0.987808
0.987055
0.993679
0.99989
1
1
1
1
1
1
1
1
1
1
1
1
1
1
1
1
1
1
1
1
1
1
1
1
1
1
1
1
1
1
1
1
1
1
1
1
1
1
0.000576942
3.61198e-07
2.04367e-06
3.4186e-05
6.88004e-06
0.000126727
0.0722009
0.998295
0.194394
1
1
1
1
1
1
0.846667
0.0594471
0.0493661
0.140998
0.316829
0.581131
0.886878
0.989672
0.999469
0.999964
0.999994
0.999996
0.999991
0.999958
0.999733
0.998552
0.99471
0.988925
0.988211
0.994289
0.999912
1
1
1
1
1
1
1
1
1
1
1
1
1
1
1
1
1
1
1
1
1
1
1
1
1
1
1
1
1
1
1
1
1
1
1
1
1
1
0.239374
3.12729e-06
2.3616e-07
0.00393867
4.25718e-06
2.54628e-05
0.00291455
1
0.0978628
0.954769
1
1
1
1
1
1
0.249852
0.0423415
0.0714065
0.216499
0.404433
0.719258
0.953858
0.997327
0.999889
0.999992
0.999998
0.999999
0.999996
0.999973
0.999796
0.998774
0.995267
0.989917
0.989237
0.994841
0.99993
1
1
1
1
1
1
1
1
1
1
1
1
1
1
1
1
1
1
1
1
1
1
1
1
1
1
1
1
1
1
1
1
1
1
1
1
1
1
1
0.000163052
2.30942e-07
3.31435e-06
1.90545e-05
6.15688e-06
0.000265615
0.559664
0.0905557
0.304602
1
1
1
1
1
1
0.995782
0.0860552
0.0438509
0.112165
0.280626
0.516091
0.844862
0.985265
0.999431
0.99998
0.999998
1
0.999999
0.999998
0.999982
0.999843
0.998954
0.995751
0.990778
0.990171
0.995313
0.999944
1
1
1
1
1
1
1
1
1
1
1
1
1
1
1
1
1
1
1
1
1
1
1
1
1
1
1
1
1
1
1
1
1
1
1
1
1
1
1
0.0540809
1.43858e-06
2.39594e-07
0.010869
3.22572e-06
3.12789e-05
0.0238342
0.131805
0.0992956
1
1
1
1
1
1
1
0.490852
0.0482675
0.0582359
0.174675
0.357573
0.652024
0.932631
0.99632
0.9999
0.999997
1
1
1
0.999999
0.999988
0.999877
0.999102
0.996159
0.991556
0.990869
0.995724
0.999955
1
1
1
1
1
1
1
1
1
1
1
1
1
1
1
1
1
1
1
1
1
1
1
1
1
1
1
1
1
1
1
1
1
1
1
1
1
1
1
1
5.70411e-05
1.58464e-07
5.7824e-06
8.78889e-06
5.14305e-06
0.000813628
0.37588
0.0649723
1
1
1
1
1
1
1
1
0.140103
0.0416425
0.0886865
0.247476
0.454811
0.791423
0.977686
0.999283
0.999985
1
1
1
1
0.999999
0.999992
0.999902
0.99922
0.99652
0.992195
0.99139
0.996098
0.999964
1
1
1
1
1
1
1
1
1
1
1
1
1
1
1
1
1
1
1
1
1
1
1
1
1
1
1
1
1
1
1
1
1
1
1
1
1
1
1
1
0.0152707
7.44354e-07
2.67402e-07
0.000336752
2.15301e-06
4.77465e-05
0.843471
0.141623
0.732795
1
1
1
1
1
1
1
0.846066
0.0612849
0.0493689
0.139683
0.316218
0.58376
0.901929
0.994448
0.999891
0.999998
1
1
1
1
1
0.999994
0.999921
0.999319
0.996825
0.992709
0.991871
0.996436
0.999972
1
1
1
1
1
1
1
1
1
1
1
1
1
1
1
1
1
1
1
1
1
1
1
1
1
1
1
1
1
1
1
1
1
1
1
1
1
1
1
1
1
2.30109e-05
1.26252e-07
9.59685e-06
4.00135e-06
5.88883e-06
0.00384301
0.63559
0.144896
1
1
0.999722
1
1
1
1
1
0.253315
0.0429424
0.0709462
0.215783
0.403886
0.729626
0.965354
0.998979
0.999987
1
1
1
1
1
1
0.999996
0.999936
0.9994
0.997074
0.993174
0.992309
0.996747
0.999978
1
1
1
1
1
1
1
1
1
1
1
1
1
1
1
1
1
1
1
1
1
1
1
1
1
1
1
1
1
1
1
1
1
1
1
1
1
1
1
1
1
0.00507051
4.4311e-07
2.60964e-07
0.000193246
2.004e-06
9.42149e-05
0.134848
0.0334795
0.72408
1
0.986838
0.999757
1
1
1
1
0.995269
0.0873071
0.0439637
0.111688
0.281247
0.518658
0.859894
0.991153
0.999856
0.999999
1
1
1
1
1
1
0.999997
0.999947
0.999464
0.997292
0.993585
0.992708
0.997038
0.999983
1
1
1
1
1
1
1
1
1
1
1
1
1
1
1
1
1
1
1
1
1
1
1
1
1
1
1
1
1
1
1
1
1
1
1
1
1
1
1
1
1
1.09691e-05
1.02648e-07
1.17465e-05
2.53889e-06
6.67978e-06
0.0116433
0.0149981
0.125201
1
0.94447
0.99038
1
1
1
1
1
0.485905
0.0486336
0.058177
0.175004
0.358245
0.660502
0.946024
0.998342
0.999985
1
1
1
1
1
1
1
0.999998
0.999956
0.999518
0.997479
0.993945
0.993085
0.997308
0.999987
1
1
1
1
1
1
1
1
1
1
1
1
1
1
1
1
1
1
1
1
1
1
1
1
1
1
1
1
1
1
1
1
1
1
1
1
1
1
1
1
0.0020161
2.92331e-07
3.08937e-07
1.98792e-05
1.55466e-06
0.000299881
0.0141826
0.0471103
1
0.964802
0.942273
1
1
1
1
1
1
0.139366
0.0417356
0.0888238
0.249128
0.457358
0.80625
0.985096
0.99978
0.999999
1
1
1
1
1
1
1
0.999998
0.999962
0.999562
0.997635
0.994276
0.993449
0.997553
0.99999
1
1
1
1
1
1
1
1
1
1
1
1
1
1
1
1
1
1
1
1
1
1
1
1
1
1
1
1
1
1
1
1
1
1
1
1
1
1
1
0.995368
6.00223e-06
8.66349e-08
2.73264e-05
1.42713e-06
1.2731e-05
0.149295
0.0396529
0.999996
0.999973
0.898908
0.999862
1
1
1
1
1
0.836902
0.0610436
0.0494604
0.140826
0.318501
0.591381
0.917238
0.997151
0.999979
1
1
1
1
1
1
1
1
0.999999
0.999967
0.999596
0.997774
0.994593
0.993787
0.997792
0.999992
1
1
1
1
1
1
1
1
1
1
1
1
1
1
1
1
1
1
1
1
1
1
1
1
1
1
1
1
1
1
1
1
1
1
1
1
1
1
1
0.000951832
2.10765e-07
2.78648e-07
1.82719e-05
1.82787e-06
0.000778956
0.135819
0.703813
1
0.925883
0.991618
0.99998
1
1
1
1
1
0.247569
0.0428123
0.0714391
0.219096
0.407236
0.744584
0.975047
0.999625
0.999999
1
1
1
1
1
1
1
1
0.999999
0.999971
0.999626
0.997905
0.994882
0.994115
0.997982
0.999995
1
1
1
1
1
1
1
1
1
1
1
1
1
1
1
1
1
1
1
1
1
1
1
1
1
1
1
1
1
1
1
1
1
1
1
1
1
1
0.860008
3.723e-06
7.30532e-08
2.10115e-05
1.04754e-06
1.37819e-05
0.020867
0.0630633
0.924486
0.999776
0.84882
0.985494
0.999922
1
1
1
1
0.994815
0.0855479
0.0440417
0.113339
0.284713
0.526721
0.877432
0.99487
0.999966
1
1
1
1
1
1
1
1
1
0.999999
0.999974
0.999652
0.998022
0.995154
0.99439
0.998309
1
1
1
1
1
1
1
1
1
1
1
1
1
1
1
1
1
1
1
1
1
1
1
1
1
1
1
1
1
1
1
1
1
1
1
1
1
1
1
0.000528154
1.54107e-07
3.34471e-07
4.73075e-06
1.47221e-06
0.00136182
0.00826809
0.121276
1
0.479359
0.764543
0.991855
1
1
1
1
1
0.469379
0.0479882
0.0587576
0.178829
0.362822
0.675062
0.958443
0.999301
0.999998
1
1
1
1
1
1
1
1
1
0.999999
0.999977
0.999675
0.998126
0.995371
0.99487
1
1
1
1
1
1
1
1
1
1
1
1
1
1
1
1
1
1
1
1
1
1
1
1
1
1
1
1
1
1
1
1
1
1
1
1
1
1
1
0.582197
2.4874e-06
6.76716e-08
0.000165974
7.90769e-07
4.37006e-05
0.00309974
0.0414864
1
0.299488
0.399599
0.920188
0.999878
1
1
1
1
1
0.133879
0.041606
0.0906293
0.253392
0.46486
0.825524
0.990616
0.999939
1
1
1
1
1
1
1
1
1
1
0.999999
0.999979
0.999695
0.998205
0.995765
1
1
1
1
1
1
1
1
1
1
1
1
1
1
1
1
1
1
1
1
1
1
1
1
1
1
1
1
1
1
1
1
1
1
1
1
1
1
1
1
0.000326861
1.23463e-07
2.99297e-07
6.36244e-06
2.37406e-06
0.0565187
0.0429707
0.999994
0.312734
0.220946
0.73964
0.995298
1
1
1
1
1
0.814545
0.0592737
0.0499662
0.144842
0.324174
0.605872
0.933332
0.998649
0.999997
1
1
1
1
1
1
1
1
1
1
1
0.99998
0.999708
0.998352
1
1
1
1
1
1
1
1
1
1
1
1
1
1
1
1
1
1
1
1
1
1
1
1
1
1
1
1
1
1
1
1
1
1
1
1
1
1
1
1
0.376813
1.8055e-06
5.22491e-08
2.66948e-05
7.17659e-07
4.00534e-05
0.0922717
0.919899
0.790269
0.17818
0.499056
0.942418
0.999589
1
1
1
1
1
0.23223
0.042274
0.0732063
0.226877
0.415563
0.765617
0.983158
0.999878
1
1
1
1
1
1
1
1
1
1
1
1
0.999981
0.999734
1
1
1
1
1
1
1
1
1
1
1
1
1
1
1
1
1
1
1
1
1
1
1
1
1
1
1
1
1
1
1
1
1
1
1
1
1
1
1
1
1
0.00022714
9.5808e-08
3.75311e-07
2.65938e-06
1.70416e-06
0.00163707
0.0946728
1
0.22736
0.295803
0.716402
0.976009
0.999895
1
1
1
1
0.991007
0.0812662
0.0443708
0.117523
0.291589
0.54161
0.89769
0.997311
0.999993
1
1
1
1
1
1
1
1
1
1
1
1
0.999983
1
1
1
1
1
1
1
1
1
1
1
1
1
1
1
1
1
1
1
1
1
1
1
1
1
1
1
1
1
1
1
1
1
1
1
1
1
1
1
1
1
0.266238
1.33998e-06
5.77485e-08
0.000587037
5.99033e-07
0.000109371
0.00693566
0.264011
0.650997
0.132418
0.399077
0.809925
0.990271
0.999997
1
1
1
1
0.429815
0.0467016
0.0603078
0.186669
0.371918
0.697664
0.970284
0.999739
1
1
1
1
1
1
1
1
1
1
1
1
1
1
1
1
1
1
1
1
1
1
1
1
1
1
1
1
1
1
1
1
1
1
1
1
1
1
1
1
1
1
1
1
1
1
1
1
1
1
1
1
1
1
1
0.000165837
8.12348e-08
3.25407e-07
3.29268e-06
3.24433e-06
0.00381559
0.0616292
0.998571
0.072601
0.172723
0.537552
0.8933
0.999145
1
1
1
1
0.999995
0.12355
0.0415738
0.0944866
0.26064
0.479882
0.849986
0.994638
0.999985
1
1
1
1
1
1
1
1
1
1
1
1
1
1
1
1
1
1
1
1
1
1
1
1
1
1
1
1
1
1
1
1
1
1
1
1
1
1
1
1
1
1
1
1
1
1
1
1
1
1
1
1
1
1
0.200928
1.08107e-06
4.23071e-08
1.79379e-05
6.8222e-07
0.000101877
0.141205
0.987074
0.067757
0.0801625
0.301929
0.662975
0.977599
1
1
1
1
1
0.751073
0.0563864
0.051181
0.152191
0.333702
0.62864
0.9499
0.99943
1
1
1
1
1
1
1
1
1
1
1
1
1
1
1
1
1
1
1
1
1
1
1
1
1
1
1
1
1
1
1
1
1
1
1
1
1
1
1
1
1
1
1
1
1
1
1
1
1
1
1
1
1
1
1
0.000130258
6.90148e-08
3.30521e-07
2.57434e-06
2.37943e-06
0.00392294
0.977453
0.173991
0.0478859
0.155309
0.405803
0.866055
0.99992
1
1
1
1
1
0.205967
0.0416067
0.0765532
0.234991
0.429178
0.793395
0.989637
0.999965
1
1
1
1
1
1
1
1
1
1
1
1
1
1
1
1
1
1
1
1
1
1
1
1
1
1
1
1
1
1
1
1
1
1
1
1
1
1
1
1
1
1
1
1
1
1
1
1
1
1
1
1
1
1
0.163026
9.00131e-07
5.15963e-08
0.000656171
6.66597e-07
0.000204044
0.0756197
0.999546
0.0411436
0.0682676
0.225922
0.64919
0.99492
0.999999
1
1
1
1
0.974067
0.074748
0.0451324
0.124214
0.301295
0.564097
0.919808
0.998745
0.999999
1
1
1
1
1
1
1
1
1
1
1
1
1
1
1
1
1
1
1
1
1
1
1
1
1
1
1
1
1
1
1
1
1
1
1
1
1
1
1
1
1
1
1
1
1
1
1
1
1
1
1
1
1
1
0.000110537
6.21418e-08
2.94218e-07
2.2592e-06
3.82694e-06
0.00651992
0.688177
0.0430155
0.0285021
0.115445
0.4432
0.932284
0.999112
0.999995
1
1
1
1
0.366248
0.0448959
0.0630601
0.198618
0.385544
0.728288
0.980534
0.999915
1
1
1
1
1
1
1
1
1
1
1
1
1
1
1
1
1
1
1
1
1
1
1
1
1
1
1
1
1
1
1
1
1
1
1
1
1
1
1
1
1
1
1
1
1
1
1
1
1
1
1
1
1
1
0.145336
8.08395e-07
3.32336e-08
1.10258e-05
7.40242e-07
0.000151735
0.605539
0.0701519
0.0147147
0.0583181
0.28611
0.719914
0.950417
0.997812
1
1
1
1
0.999927
0.108857
0.0417607
0.1007
0.270989
0.502522
0.877914
0.997258
0.999997
1
1
1
1
1
1
1
1
1
1
1
1
1
1
1
1
1
1
1
1
1
1
1
1
1
1
1
1
1
1
1
1
1
1
1
1
1
1
1
1
1
1
1
1
1
1
1
1
1
1
1
1
1
1
9.97346e-05
5.67779e-08
2.40084e-07
3.09937e-06
3.34386e-06
0.00585736
0.128636
0.0149682
0.0315011
0.170324
0.416902
0.686103
0.951799
0.999874
1
1
1
1
0.649341
0.0525743
0.053314
0.163356
0.347399
0.65936
0.965143
0.999789
1
1
1
1
1
1
1
1
1
1
1
1
1
1
1
1
1
1
1
1
1
1
1
1
1
1
1
1
1
1
1
1
1
1
1
1
1
1
1
1
1
1
1
1
1
1
1
1
1
1
1
1
1
1
0.139268
7.40477e-07
4.4498e-08
0.000321147
8.06577e-07
0.000302344
0.490188
0.0404582
0.0208444
0.082751
0.188655
0.363443
0.775919
0.996566
1
1
1
1
1
0.173943
0.0410026
0.0819002
0.244906
0.448456
0.825727
0.994213
0.999991
1
1
1
1
1
1
1
1
1
1
1
1
1
1
1
1
1
1
1
1
1
1
1
1
1
1
1
1
1
1
1
1
1
1
1
1
1
1
1
1
1
1
1
1
1
1
1
1
1
1
1
1
1
1
9.82345e-05
5.2037e-08
2.17245e-07
2.38694e-06
4.04668e-06
0.0510448
0.85054
0.0143238
0.030206
0.0730761
0.179592
0.548831
0.969327
0.99999
1
1
1
1
0.933894
0.067202
0.0466326
0.134081
0.314558
0.59419
0.941292
0.999478
1
1
1
1
1
1
1
1
1
1
1
1
1
1
1
1
1
1
1
1
1
1
1
1
1
1
1
1
1
1
1
1
1
1
1
1
1
1
1
1
1
1
1
1
1
1
1
1
1
1
1
1
1
0.149041
7.36895e-07
2.61187e-08
7.0756e-06
8.05821e-07
0.000179084
0.147537
0.0163978
0.00837933
0.0275843
0.0974336
0.372333
0.878302
0.998593
1
1
1
1
1
0.300219
0.0431111
0.0674403
0.215439
0.405375
0.76625
0.988408
0.999976
1
1
1
1
1
1
1
1
1
1
1
1
1
1
1
1
1
1
1
1
1
1
1
1
1
1
1
1
1
1
1
1
1
1
1
1
1
1
1
1
1
1
1
1
1
1
1
1
1
1
1
1
0.000101425
5.08213e-08
1.66826e-07
5.88711e-06
4.22994e-06
0.0252529
0.011863
0.00316869
0.0116789
0.0603266
0.255038
0.693183
0.969002
0.999974
1
1
1
1
0.999284
0.0938864
0.042525
0.10983
0.286391
0.536362
0.908061
0.998769
0.999999
1
1
1
1
1
1
1
1
1
1
1
1
1
1
1
1
1
1
1
1
1
1
1
1
1
1
1
1
1
1
1
1
1
1
1
1
1
1
1
1
1
1
1
1
1
1
1
1
1
1
0.171447
7.32943e-07
3.53061e-08
3.26579e-05
1.08362e-06
0.000174221
0.00498825
0.00249869
0.00618027
0.0408658
0.166064
0.449113
0.808743
0.994622
0.999998
1
1
1
1
0.534026
0.0488013
0.0567067
0.179027
0.370283
0.703849
0.978457
0.999935
1
1
1
1
1
1
1
1
1
1
1
1
1
1
1
1
1
1
1
1
1
1
1
1
1
1
1
1
1
1
1
1
1
1
1
1
1
1
1
1
1
1
1
1
1
1
1
1
1
1
0.000115185
4.64581e-08
1.38139e-07
2.87049e-06
3.06594e-06
0.00422096
0.00599529
0.00471508
0.0264276
0.0895359
0.233796
0.530291
0.917444
0.99932
1
1
1
1
1
0.143007
0.040802
0.0896288
0.260167
0.481762
0.865616
0.997293
0.999998
1
1
1
1
1
1
1
1
1
1
1
1
1
1
1
1
1
1
1
1
1
1
1
1
1
1
1
1
1
1
1
1
1
1
1
1
1
1
1
1
1
1
1
1
1
1
1
1
0.220277
7.90073e-07
2.31174e-08
6.15317e-06
9.56464e-07
0.000117422
0.134413
0.00566239
0.0110156
0.0388319
0.106512
0.299567
0.691453
0.97877
0.999805
1
1
1
1
0.841177
0.0597435
0.0490919
0.147755
0.335783
0.639795
0.96268
0.999832
1
1
1
1
1
1
1
1
1
1
1
1
1
1
1
1
1
1
1
1
1
1
1
1
1
1
1
1
1
1
1
1
1
1
1
1
1
1
1
1
1
1
1
1
1
1
1
1
0.000131259
5.19028e-08
8.23127e-08
1.19543e-05
5.36801e-06
0.0299747
0.00613785
0.00315517
0.0129095
0.0512559
0.164809
0.434832
0.852057
0.991191
0.999995
1
1
1
1
0.234786
0.0415985
0.0737112
0.236982
0.434613
0.81338
0.994342
0.999995
1
1
1
1
1
1
1
1
1
1
1
1
1
1
1
1
1
1
1
1
1
1
1
1
1
1
1
1
1
1
1
1
1
1
1
1
1
1
1
1
1
1
1
1
1
1
0.286166
9.08253e-07
2.40934e-08
4.47423e-06
1.50381e-06
0.000112342
0.00243797
0.00112707
0.00448788
0.0269386
0.0968853
0.247011
0.596497
0.919156
0.998445
1
1
1
1
0.991121
0.0793608
0.04401
0.122148
0.305204
0.576807
0.937799
0.999567
1
1
1
1
1
1
1
1
1
1
1
1
1
1
1
1
1
1
1
1
1
1
1
1
1
1
1
1
1
1
1
1
1
1
1
1
1
1
1
1
1
1
1
1
1
1
0.00017979
5.18132e-08
6.96759e-08
4.43477e-06
2.56525e-06
0.00035736
0.000883082
0.00220519
0.0153791
0.0549005
0.134849
0.348818
0.719221
0.965602
0.999928
1
1
1
1
0.407148
0.0453104
0.0615731
0.199399
0.39245
0.750283
0.988289
0.999984
1
1
1
1
1
1
1
1
1
1
1
1
1
1
1
1
1
1
1
1
1
1
1
1
1
1
1
1
1
1
1
1
1
1
1
1
1
1
1
1
1
1
1
1
0.433804
1.15516e-06
1.90624e-08
2.35244e-06
1.15857e-06
7.34479e-05
0.00329846
0.0017407
0.00782633
0.0263577
0.0671989
0.193301
0.467908
0.813132
0.99518
1
1
1
1
0.999998
0.114486
0.0411721
0.100105
0.275752
0.515525
0.900367
0.998881
1
1
1
1
1
1
1
1
1
1
1
1
1
1
1
1
1
1
1
1
1
1
1
1
1
1
1
1
1
1
1
1
1
1
1
1
1
1
1
1
1
1
1
1
0.000265706
5.76698e-08
4.20388e-08
3.44804e-05
5.48135e-06
0.00564348
0.00210259
0.00246744
0.00977984
0.0324057
0.105265
0.277907
0.560724
0.944123
0.999959
1
1
1
1
0.688752
0.0529582
0.052717
0.165754
0.354941
0.681293
0.977066
0.999954
1
1
1
1
1
1
1
1
1
1
1
1
1
1
1
1
1
1
1
1
1
1
1
1
1
1
1
1
1
1
1
1
1
1
1
1
1
1
1
1
1
1
0.692283
1.49437e-06
1.77576e-08
9.86065e-07
1.94782e-06
5.84076e-05
0.000692783
0.000668929
0.00328126
0.0164882
0.0583469
0.154512
0.342837
0.774676
0.997248
1
1
1
1
1
0.178235
0.0406244
0.0824161
0.250452
0.460173
0.852147
0.997398
0.999999
1
1
1
1
1
1
1
1
1
1
1
1
1
1
1
1
1
1
1
1
1
1
1
1
1
1
1
1
1
1
1
1
1
1
1
1
1
1
1
1
1
0.000432715
6.16873e-08
3.66437e-08
9.55061e-06
2.14391e-06
9.63401e-05
0.000282624
0.0013455
0.00965905
0.0320537
0.0802365
0.197374
0.545818
0.95849
0.999882
1
1
1
1
0.943861
0.0667573
0.0464906
0.137579
0.322306
0.615826
0.959317
0.99983
1
1
1
1
1
1
1
1
1
1
1
1
1
1
1
1
1
1
1
1
1
1
1
1
1
1
1
1
1
1
1
1
1
1
1
1
1
1
1
1
0.941361
2.06526e-06
1.59556e-08
7.06435e-07
1.80032e-06
3.06504e-05
0.000459604
0.000837748
0.00568137
0.0167263
0.0383215
0.111709
0.351358
0.796945
0.990908
0.999866
1
1
1
1
0.296096
0.0425317
0.068558
0.224707
0.416608
0.796118
0.993386
0.999999
1
1
1
1
1
1
1
1
1
1
1
1
1
1
1
1
1
1
1
1
1
1
1
1
1
1
1
1
1
1
1
1
1
1
1
1
1
1
1
0.000752836
6.99648e-08
2.22126e-08
0.000143948
5.13824e-06
0.000799352
0.000887521
0.00203509
0.00670477
0.0187026
0.0634202
0.21611
0.530561
0.880639
0.995375
0.999994
1
1
1
0.999234
0.0908434
0.0424998
0.114182
0.294386
0.554861
0.92741
0.999795
1
1
1
1
1
1
1
1
1
1
1
1
1
1
1
1
1
1
1
1
1
1
1
1
1
1
1
1
1
1
1
1
1
1
1
1
1
1
0.999344
2.89491e-06
1.46954e-08
2.95212e-07
3.31401e-06
3.26902e-05
0.000294378
0.000457593
0.00221153
0.00967492
0.0397444
0.124982
0.293775
0.601006
0.945745
0.999739
1
1
1
1
0.506782
0.0474634
0.0580138
0.189086
0.377503
0.725976
0.991407
1
1
1
1
1
1
1
1
1
1
1
1
1
1
1
1
1
1
1
1
1
1
1
1
1
1
1
1
1
1
1
1
1
1
1
1
1
1
0.00137329
8.01926e-08
2.28206e-08
3.48669e-05
1.92431e-06
4.01474e-05
0.000147062
0.000810684
0.00598404
0.0256357
0.0701943
0.143471
0.342561
0.784447
0.99417
1
1
1
1
1
0.133128
0.0405305
0.0943056
0.266374
0.494923
0.907538
1
1
1
1
1
1
1
1
1
1
1
1
1
1
1
1
1
1
1
1
1
1
1
1
1
1
1
1
1
1
1
1
1
1
1
1
1
1
4.26671e-06
1.42493e-08
1.90759e-07
2.72218e-06
9.54491e-06
0.000129143
0.000482556
0.004116
0.0156109
0.0334343
0.0679335
0.186401
0.577626
0.951981
0.999895
1
1
1
1
0.798099
0.0565128
0.0504654
0.157237
0.345611
0.674507
1
1
1
1
1
1
1
1
1
1
1
1
1
1
1
1
1
1
1
1
1
1
1
1
1
1
1
1
1
1
1
1
1
1
1
1
1
0.00264721
9.62507e-08
1.25142e-08
6.57987e-06
3.77983e-06
0.000146016
0.000509981
0.00200685
0.00671899
0.0134533
0.0322616
0.105592
0.396652
0.832636
0.991116
0.999894
0.999999
1
1
1
0.208093
0.0409116
0.0777332
0.247913
0.434613
1
1
1
1
1
1
1
1
1
1
1
1
1
1
1
1
1
1
1
1
1
1
1
1
1
1
1
1
1
1
1
1
1
1
1
1
6.45163e-06
1.41887e-08
1.05284e-07
1.72438e-05
1.31352e-05
0.000256193
0.000496136
0.00182388
0.00522039
0.0169464
0.0636793
0.255217
0.640115
0.902025
0.98986
0.999816
1
1
1
0.980446
0.0727946
0.0445526
0.132708
0.287664
1
1
1
1
1
1
1
1
1
1
1
1
1
1
1
1
1
1
1
1
1
1
1
1
1
1
1
1
1
1
1
1
1
1
1
0.00527096
1.17636e-07
1.47387e-08
2.11277e-05
2.31455e-06
2.27151e-05
0.000111343
0.000487005
0.00248543
0.0102894
0.0410644
0.152935
0.407625
0.683456
0.890063
0.992137
1
1
1
1
0.348212
0.0425899
0.0667688
0.194369
1
1
1
1
1
1
1
1
1
1
1
1
1
1
1
1
1
1
1
1
1
1
1
1
1
1
1
1
1
1
1
1
1
1
1
1.02948e-05
1.32914e-08
6.70092e-08
4.2421e-06
3.14221e-06
4.25633e-05
0.000216639
0.00158722
0.00723091
0.0254034
0.0831531
0.222094
0.413118
0.685174
0.929709
0.999952
1
1
1
0.999974
0.0966118
0.0434502
0.099286
1
1
1
1
1
1
1
1
1
1
1
1
1
1
1
1
1
1
1
1
1
1
1
1
1
1
1
1
1
1
1
1
1
1
0.0112034
1.50842e-07
9.11833e-09
2.13963e-06
2.93915e-06
2.14781e-05
0.000201958