/*--------------------------------*- C++ -*----------------------------------*\
| =========                 |                                                 |
| \\      /  F ield         | OpenFOAM: The Open Source CFD Toolbox           |
|  \\    /   O peration     | Version:  v2012                                 |
|   \\  /    A nd           | Website:  www.openfoam.com                      |
|    \\/     M anipulation  |                                                 |
\*---------------------------------------------------------------------------*/
FoamFile
{
    version     2.0;
    format      ascii;
    class       volScalarField;
    location    "1901";
    object      q3;
}
// * * * * * * * * * * * * * * * * * * * * * * * * * * * * * * * * * * * * * //

dimensions      [0 0 0 0 0 0 0];


internalField   nonuniform List<scalar> 
8000
(
1.99825e-09
4.85293e-10
6.29206e-09
2.34316e-10
1.52551e-09
1.08978e-08
1.55783e-10
7.29445e-10
2.65688e-09
1.58608e-08
1.21223e-10
4.8259e-10
1.27387e-09
3.89012e-09
2.12193e-08
1.0852e-10
3.74809e-10
8.41884e-10
1.87268e-09
5.26303e-09
2.70055e-08
1.0852e-10
3.34221e-10
6.52855e-10
1.23833e-09
2.53662e-09
6.72561e-09
3.32534e-08
1.0852e-10
3.34221e-10
5.77934e-10
9.59457e-10
1.67665e-09
3.25595e-09
8.28953e-09
3.99999e-08
1.0852e-10
3.34221e-10
5.77934e-10
8.41094e-10
1.29819e-09
2.15685e-09
4.03685e-09
9.97313e-09
4.72847e-08
1.0852e-10
3.34221e-10
5.77934e-10
8.41094e-10
1.12525e-09
1.6711e-09
2.68164e-09
4.88502e-09
1.17898e-08
5.51509e-08
1.0852e-10
3.34221e-10
5.77934e-10
8.41094e-10
1.12525e-09
1.43209e-09
2.08032e-09
3.25408e-09
5.79309e-09
1.37512e-08
6.36448e-08
1.0852e-10
3.34221e-10
5.77934e-10
8.41094e-10
1.12525e-09
1.43209e-09
1.7653e-09
2.52809e-09
3.87383e-09
6.76527e-09
1.58691e-08
7.28166e-08
1.0852e-10
3.34221e-10
5.77934e-10
8.41094e-10
1.12525e-09
1.43209e-09
1.76342e-09
2.13976e-09
3.01563e-09
4.54201e-09
7.81041e-09
1.8156e-08
8.27202e-08
1.0852e-10
3.34221e-10
5.77934e-10
8.41094e-10
1.12525e-09
1.43209e-09
1.76342e-09
2.12118e-09
2.55267e-09
3.54428e-09
5.25696e-09
8.93704e-09
2.06254e-08
9.34142e-08
1.0852e-10
3.34221e-10
5.77934e-10
8.41094e-10
1.12525e-09
1.43209e-09
1.76342e-09
2.12118e-09
2.50749e-09
3.0035e-09
4.11405e-09
6.02237e-09
1.01529e-08
2.32918e-08
1.04962e-07
1.0852e-10
3.34221e-10
5.77934e-10
8.41094e-10
1.12525e-09
1.43209e-09
1.76342e-09
2.12118e-09
2.50749e-09
2.92463e-09
3.49216e-09
4.72394e-09
6.84482e-09
1.14656e-08
2.6171e-08
1.17431e-07
2.10226e-09
3.34221e-10
5.77934e-10
8.41094e-10
1.12525e-09
1.43209e-09
1.76342e-09
2.12118e-09
2.50749e-09
2.92463e-09
3.37506e-09
4.01805e-09
5.37593e-09
7.73102e-09
1.28829e-08
2.928e-08
1.30895e-07
2.56016e-07
4.68386e-09
5.77934e-10
8.41094e-10
1.12525e-09
1.43209e-09
1.76342e-09
2.12118e-09
2.50749e-09
2.92463e-09
3.37506e-09
3.86144e-09
4.58034e-09
6.07536e-09
8.68717e-09
1.44134e-08
3.26371e-08
1.45433e-07
2.80658e-05
5.19611e-07
5.04602e-09
8.41094e-10
1.12525e-09
1.43209e-09
1.76342e-09
2.12118e-09
2.50749e-09
2.92463e-09
3.37506e-09
3.86144e-09
4.38663e-09
5.18126e-09
6.82821e-09
9.71934e-09
1.6066e-08
3.62621e-08
1.61131e-07
0.0027502
5.06885e-05
5.23174e-07
4.41411e-09
1.12525e-09
1.43209e-09
1.76342e-09
2.12118e-09
2.50749e-09
2.92463e-09
3.37506e-09
3.86144e-09
4.38663e-09
4.95372e-09
5.82584e-09
7.64008e-09
1.08338e-08
1.78504e-08
4.01763e-08
1.78082e-07
0.00429055
0.0228448
4.85948e-05
4.48008e-07
3.75444e-09
1.43209e-09
1.76342e-09
2.12118e-09
2.50749e-09
2.92463e-09
3.37506e-09
3.86144e-09
4.38663e-09
4.95372e-09
5.56608e-09
6.51964e-09
8.51635e-09
1.20371e-08
1.97772e-08
4.44029e-08
1.96386e-07
0.00405819
0.0575067
0.00527972
4.23829e-05
3.8233e-07
3.32911e-09
1.76342e-09
2.12118e-09
2.50749e-09
2.92463e-09
3.37506e-09
3.86144e-09
4.38663e-09
4.95372e-09
5.56608e-09
6.2273e-09
7.26785e-09
9.46237e-09
1.33364e-08
2.18578e-08
4.89668e-08
2.16151e-07
0.00369661
0.108071
0.010267
0.0026878
3.76101e-05
3.3158e-07
3.0779e-09
2.12118e-09
2.50749e-09
2.92463e-09
3.37506e-09
3.86144e-09
4.38663e-09
4.95372e-09
5.56608e-09
6.2273e-09
6.9413e-09
8.07537e-09
1.04838e-08
1.47394e-08
2.41044e-08
5.38949e-08
2.37493e-07
0.00339618
0.17174
0.0234955
0.00378726
0.00191035
3.33914e-05
2.83602e-07
2.95098e-09
2.50749e-09
2.92463e-09
3.37506e-09
3.86144e-09
4.38663e-09
4.95372e-09
5.56608e-09
6.2273e-09
6.9413e-09
7.71227e-09
8.94714e-09
1.15867e-08
1.62544e-08
2.65303e-08
5.92163e-08
2.60538e-07
0.00305956
0.235736
0.0518653
0.00759109
0.00244861
0.00151043
2.88166e-05
2.33394e-07
2.94947e-09
2.92463e-09
3.37506e-09
3.86144e-09
4.38663e-09
4.95372e-09
5.56608e-09
6.2273e-09
6.9413e-09
7.71227e-09
8.54473e-09
9.88844e-09
1.27777e-08
1.78903e-08
2.91498e-08
6.49623e-08
2.85422e-07
0.00265304
0.262025
0.0998537
0.0187294
0.00390562
0.00188602
0.00125544
2.37792e-05
1.79425e-07
3.09319e-09
3.37506e-09
3.86144e-09
4.38663e-09
4.95372e-09
5.56608e-09
6.2273e-09
6.9413e-09
7.71227e-09
8.54473e-09
9.44364e-09
1.09048e-08
1.40636e-08
1.96567e-08
3.19783e-08
7.11668e-08
3.12292e-07
0.00219237
0.242039
0.167091
0.0409858
0.00972197
0.00267776
0.00155334
0.00108836
1.82495e-05
1.21941e-07
3.4015e-09
3.86144e-09
4.38663e-09
4.95372e-09
5.56608e-09
6.2273e-09
6.9413e-09
7.71227e-09
8.54473e-09
9.44364e-09
1.04143e-08
1.20023e-08
1.54522e-08
2.15641e-08
3.50326e-08
7.78665e-08
3.41306e-07
0.00167963
0.199059
0.235266
0.0805186
0.0226404
0.0063708
0.00215203
0.00134514
0.000969916
1.22711e-05
7.13536e-08
3.86144e-09
4.38663e-09
4.95372e-09
5.56608e-09
6.2273e-09
6.9413e-09
7.71227e-09
8.54473e-09
9.44364e-09
1.04143e-08
1.14624e-08
1.31874e-08
1.69516e-08
2.36237e-08
3.83306e-08
8.51009e-08
3.72635e-07
0.00111853
0.148927
0.284424
0.140137
0.0466042
0.0151067
0.00504763
0.00192854
0.00120731
0.000884177
7.0589e-06
3.48567e-08
4.38663e-09
4.95372e-09
5.56608e-09
6.2273e-09
6.9413e-09
7.71227e-09
8.54473e-09
9.44364e-09
1.04143e-08
1.14624e-08
1.25942e-08
1.4467e-08
1.85707e-08
2.58477e-08
4.18918e-08
9.29125e-08
4.06465e-07
0.000634357
0.0985972
0.295589
0.212377
0.08699
0.0313454
0.0119573
0.0046397
0.0018999
0.00112003
0.000823216
3.34049e-06
1.44071e-08
4.95372e-09
5.56608e-09
6.2273e-09
6.9413e-09
7.71227e-09
8.54473e-09
9.44364e-09
1.04143e-08
1.14624e-08
1.25942e-08
1.38162e-08
1.58488e-08
2.03189e-08
2.82491e-08
4.57371e-08
1.01348e-07
4.42994e-07
0.000293002
0.055253
0.271637
0.271189
0.145113
0.0616122
0.0250857
0.0109817
0.00481751
0.00202805
0.00107964
0.000783986
1.27227e-06
6.65818e-09
5.56608e-09
6.2273e-09
6.9413e-09
7.71227e-09
8.54473e-09
9.44364e-09
1.04143e-08
1.14624e-08
1.25942e-08
1.38162e-08
1.51358e-08
1.73408e-08
2.22067e-08
3.08421e-08
4.98893e-08
1.10456e-07
4.82439e-07
0.000107501
0.0249393
0.23016
0.297175
0.212107
0.109719
0.0489469
0.0230767
0.0114209
0.00542773
0.00233723
0.00109635
0.0007642
3.9712e-07
5.66997e-09
6.2273e-09
6.9413e-09
7.71227e-09
8.54473e-09
9.44364e-09
1.04143e-08
1.14624e-08
1.25942e-08
1.38162e-08
1.51358e-08
1.65607e-08
1.89519e-08
2.42451e-08
3.36421e-08
5.4373e-08
1.20291e-07
5.2503e-07
3.20879e-05
0.00881567
0.180189
0.290898
0.268388
0.173815
0.0914637
0.0443392
0.0239187
0.0128693
0.00653885
0.00289846
0.00117951
0.000768403
1.14395e-07
6.2273e-09
6.9413e-09
7.71227e-09
8.54473e-09
9.44364e-09
1.04143e-08
1.14624e-08
1.25942e-08
1.38162e-08
1.51358e-08
1.65607e-08
1.80993e-08
2.06915e-08
2.64462e-08
3.66656e-08
5.92143e-08
1.3091e-07
5.71021e-07
9.19464e-06
0.00252187
0.132847
0.26865
0.298947
0.238189
0.152837
0.084505
0.0455509
0.0267571
0.0155013
0.00836678
0.00374566
0.00131181
0.000788618
3.69222e-08
6.9413e-09
7.71227e-09
8.54473e-09
9.44364e-09
1.04143e-08
1.14624e-08
1.25942e-08
1.38162e-08
1.51358e-08
1.65607e-08
1.80993e-08
1.97607e-08
2.257e-08
2.88229e-08
3.99303e-08
6.4442e-08
1.42378e-07
6.20682e-07
3.09675e-06
0.000729202
0.0875193
0.233672
0.301092
0.282501
0.224854
0.146481
0.0857528
0.0504546
0.0320419
0.0198295
0.0110317
0.00476773
0.00150574
0.00082189
1.35022e-08
7.71227e-09
8.54473e-09
9.44364e-09
1.04143e-08
1.14624e-08
1.25942e-08
1.38162e-08
1.51358e-08
1.65607e-08
1.80993e-08
1.97607e-08
2.15547e-08
2.45984e-08
3.13893e-08
4.34555e-08
7.00869e-08
1.5476e-07
6.74305e-07
1.00437e-06
0.000259299
0.0489828
0.192523
0.282725
0.304146
0.280393
0.224773
0.151388
0.0921791
0.0599343
0.0407927
0.0261614
0.0142733
0.00592296
0.00169256
0.000850705
8.2475e-09
8.54473e-09
9.44364e-09
1.04143e-08
1.14624e-08
1.25942e-08
1.38162e-08
1.51358e-08
1.65607e-08
1.80993e-08
1.97607e-08
2.15547e-08
2.34918e-08
2.67886e-08
3.41605e-08
4.7262e-08
7.61822e-08
1.68131e-07
7.32208e-07
2.59676e-07
8.45089e-05
0.021751
0.149483
0.253808
0.29727
0.307401
0.296503
0.241234
0.165159
0.107068
0.0756949
0.0535958
0.0339542
0.0178297
0.00693126
0.00183313
0.00087122
8.54473e-09
9.44364e-09
1.04143e-08
1.14624e-08
1.25942e-08
1.38162e-08
1.51358e-08
1.65607e-08
1.80993e-08
1.97607e-08
2.15547e-08
2.34918e-08
2.55835e-08
2.91536e-08
3.71528e-08
5.13723e-08
8.2764e-08
1.82568e-07
7.94732e-07
5.64724e-08
2.12007e-05
0.00719072
0.109698
0.216978
0.279856
0.30982
0.332451
0.335368
0.269401
0.190136
0.132601
0.0984718
0.0692993
0.0423753
0.0209427
0.00766153
0.00191794
0.000882223
9.44364e-09
1.04143e-08
1.14624e-08
1.25942e-08
1.38162e-08
1.51358e-08
1.65607e-08
1.80993e-08
1.97607e-08
2.15547e-08
2.34918e-08
2.55835e-08
2.78422e-08
3.17074e-08
4.0384e-08
5.58106e-08
8.9871e-08
1.98158e-07
8.62245e-07
1.51883e-08
4.43235e-06
0.00174036
0.0743222
0.177803
0.254145
0.292278
0.332636
0.388396
0.389222
0.311042
0.22936
0.168978
0.125708
0.0858255
0.049763
0.0231962
0.00808899
0.00196917
0.000887166
1.04143e-08
1.14624e-08
1.25942e-08
1.38162e-08
1.51358e-08
1.65607e-08
1.80993e-08
1.97607e-08
2.15547e-08
2.34918e-08
2.55835e-08
2.78422e-08
3.0281e-08
3.44649e-08
4.38729e-08
6.06031e-08
9.75451e-08
2.14991e-07
9.35146e-07
1.06351e-08
9.66229e-07
0.000354172
0.0433092
0.139175
0.221865
0.270549
0.314585
0.385671
0.479719
0.459075
0.367218
0.282226
0.210709
0.153155
0.10012
0.0550783
0.0245189
0.00834941
0.00199386
0.000886242
1.14624e-08
1.25942e-08
1.38162e-08
1.51358e-08
1.65607e-08
1.80993e-08
1.97607e-08
2.15547e-08
2.34918e-08
2.55835e-08
2.78422e-08
3.0281e-08
3.29145e-08
3.74425e-08
4.76403e-08
6.57781e-08
1.05832e-07
2.33168e-07
1.01386e-06
1.14624e-08
2.03962e-07
8.01115e-05
0.0197106
0.103023
0.186732
0.244034
0.287774
0.35229
0.487946
0.595827
0.538785
0.434998
0.337713
0.25049
0.176093
0.110177
0.0581882
0.025314
0.00847483
0.00200242
0.000881501
1.25942e-08
1.38162e-08
1.51358e-08
1.65607e-08
1.80993e-08
1.97607e-08
2.15547e-08
2.34918e-08
2.55835e-08
2.78422e-08
3.0281e-08
3.29145e-08
3.57582e-08
4.06577e-08
5.17084e-08
7.1366e-08
1.1478e-07
2.52796e-07
1.09887e-06
1.25942e-08
3.68087e-08
1.70627e-05
0.00644583
0.0711059
0.149966
0.213799
0.260192
0.314319
0.431427
0.641983
0.714028
0.623219
0.501606
0.387753
0.281965
0.191607
0.115949
0.0600116
0.0256882
0.00852443
0.00199955
0.00087443
1.38162e-08
1.51358e-08
1.65607e-08
1.80993e-08
1.97607e-08
2.15547e-08
2.34918e-08
2.55835e-08
2.78422e-08
3.0281e-08
3.29145e-08
3.57582e-08
3.88288e-08
4.41295e-08
5.6101e-08
7.73999e-08
1.24441e-07
2.7399e-07
1.19065e-06
1.38162e-08
1.35858e-08
2.83645e-06
0.00144034
0.0442929
0.114915
0.181582
0.230613
0.280272
0.36514
0.573458
0.822319
0.825804
0.700932
0.558279
0.423762
0.301866
0.200135
0.119191
0.0608225
0.0258201
0.00851987
0.00198754
0.000865413
1.51358e-08
1.65607e-08
1.80993e-08
1.97607e-08
2.15547e-08
2.34918e-08
2.55835e-08
2.78422e-08
3.0281e-08
3.29145e-08
3.57582e-08
3.88288e-08
4.21444e-08
4.78784e-08
6.08443e-08
8.39152e-08
1.34874e-07
2.96874e-07
1.28975e-06
1.51358e-08
1.38162e-08
4.21171e-07
0.000230142
0.0230862
0.0835986
0.148424
0.19972
0.24813
0.311204
0.460037
0.775854
0.986373
0.92312
0.762717
0.596178
0.445183
0.312143
0.204634
0.120478
0.0610495
0.0257829
0.00847027
0.00197159
0.000855141
1.65607e-08
1.80993e-08
1.97607e-08
2.15547e-08
2.34918e-08
2.55835e-08
2.78422e-08
3.0281e-08
3.29145e-08
3.57582e-08
3.88288e-08
4.21444e-08
4.57246e-08
5.19264e-08
6.5966e-08
9.09505e-08
1.46139e-07
3.21585e-07
1.39677e-06
1.65607e-08
1.51358e-08
6.21194e-08
3.39368e-05
0.00902768
0.0569686
0.116401
0.168682
0.215803
0.269928
0.366346
0.618204
0.995303
1.12656
0.996375
0.803819
0.616559
0.454407
0.316622
0.20602
0.120672
0.0608758
0.025608
0.00840415
0.00195229
0.000845174
1.80993e-08
1.97607e-08
2.15547e-08
2.34918e-08
2.55835e-08
2.78422e-08
3.0281e-08
3.29145e-08
3.57582e-08
3.88288e-08
4.21444e-08
4.57246e-08
4.95905e-08
5.62974e-08
7.14965e-08
9.8547e-08
1.58304e-07
3.48269e-07
1.51233e-06
1.80993e-08
1.65607e-08
1.68315e-08
4.97961e-06
0.0023946
0.0354155
0.0864985
0.138489
0.183714
0.233827
0.302137
0.462199
0.826739
1.21611
1.23256
1.04742
0.824266
0.624412
0.457202
0.317071
0.205773
0.120117
0.0603847
0.0253813
0.00832301
0.00193369
0.000835405
1.97607e-08
2.15547e-08
2.34918e-08
2.55835e-08
2.78422e-08
3.0281e-08
3.29145e-08
3.57582e-08
3.88288e-08
4.21444e-08
4.57246e-08
4.95905e-08
5.37649e-08
6.10173e-08
7.74681e-08
1.0675e-07
1.71439e-07
3.77083e-07
1.63711e-06
1.97607e-08
1.80993e-08
1.65607e-08
6.08998e-07
0.000408155
0.019003
0.0610247
0.109365
0.152973
0.199487
0.255755
0.354518
0.60402
1.08459
1.3938
1.30343
1.06948
0.829643
0.625098
0.455415
0.31549
0.204391
0.118992
0.0597713
0.0251099
0.00824508
0.00191356
0.000824964
2.15547e-08
2.34918e-08
2.55835e-08
2.78422e-08
3.0281e-08
3.29145e-08
3.57582e-08
3.88288e-08
4.21444e-08
4.57246e-08
4.95905e-08
5.37649e-08
5.82724e-08
6.61137e-08
8.39162e-08
1.15607e-07
1.85623e-07
4.08195e-07
1.77184e-06
2.15547e-08
1.97607e-08
1.80994e-08
6.91309e-08
4.87758e-05
0.0078953
0.0403731
0.0830478
0.124127
0.166798
0.216887
0.285808
0.433173
0.805434
1.35093
1.52505
1.34212
1.07302
0.826767
0.620285
0.451321
0.312401
0.202176
0.117642
0.0590584
0.0248497
0.00815808
0.0018909
0.000814384
2.34918e-08
2.55835e-08
2.78422e-08
3.0281e-08
3.29145e-08
3.57582e-08
3.88288e-08
4.21444e-08
4.57246e-08
4.95905e-08
5.37649e-08
5.82724e-08
6.31395e-08
7.16167e-08
9.08791e-08
1.25172e-07
2.00938e-07
4.41789e-07
1.91734e-06
2.34918e-08
2.15547e-08
1.97607e-08
1.92029e-08
5.35399e-06
0.00223419
0.0244654
0.0595357
0.0979767
0.136302
0.181618
0.237014
0.327627
0.553905
1.07134
1.59457
1.60632
1.35029
1.0658
0.817284
0.61281
0.445497
0.308292
0.199646
0.116122
0.0583767
0.0245639
0.00805886
0.00186773
0.000803948
2.55835e-08
2.78422e-08
3.0281e-08
3.29145e-08
3.57582e-08
3.88288e-08
4.21444e-08
4.57246e-08
4.95905e-08
5.37649e-08
5.82724e-08
6.31395e-08
6.83951e-08
7.75591e-08
9.83981e-08
1.355e-07
2.17475e-07
4.78066e-07
2.07443e-06
2.55835e-08
2.34918e-08
2.15547e-08
1.97607e-08
5.41991e-07
0.000390754
0.012885
0.0403604
0.0745311
0.108762
0.149074
0.197273
0.261172
0.389179
0.730055
1.39006
1.7791
1.64124
1.34133
1.04997
0.804806
0.603448
0.438566
0.303827
0.196884
0.114672
0.0576429
0.0242414
0.00795738
0.00184417
0.000793995
2.78422e-08
3.0281e-08
3.29145e-08
3.57582e-08
3.88288e-08
4.21444e-08
4.57246e-08
4.95905e-08
5.37649e-08
5.82724e-08
6.31395e-08
6.83951e-08
7.40701e-08
8.3976e-08
1.06517e-07
1.46651e-07
2.35333e-07
5.17236e-07
2.24406e-06
2.78422e-08
2.55835e-08
2.34918e-08
2.15547e-08
5.20534e-08
4.28084e-05
0.00528473
0.0256303
0.0543759
0.0846467
0.119526
0.162246
0.213642
0.292675
0.485548
0.991394
1.72429
1.89764
1.64351
1.31957
1.03077
0.790271
0.592954
0.43132
0.299109
0.194257
0.113144
0.0568259
0.0239135
0.00785345
0.00182142
0.000784041
3.0281e-08
3.29145e-08
3.57582e-08
3.88288e-08
4.21444e-08
4.57246e-08
4.95905e-08
5.37649e-08
5.82724e-08
6.31395e-08
6.83951e-08
7.40701e-08
8.01983e-08
9.09046e-08
1.15283e-07
1.58693e-07
2.54615e-07
5.59532e-07
2.42724e-06
3.0281e-08
2.78422e-08
2.55835e-08
2.34918e-08
2.17283e-08
3.75052e-06
0.00145866
0.0148694
0.0374847
0.0641144
0.0935521
0.130755
0.175093
0.231807
0.339629
0.638291
1.37184
1.99414
1.93657
1.62141
1.29322
1.00923
0.774672
0.582181
0.423847
0.294647
0.191554
0.111467
0.0560009
0.0235799
0.00775281
0.00179812
0.000774294
3.29145e-08
3.57582e-08
3.88288e-08
4.21444e-08
4.57246e-08
4.95905e-08
5.37649e-08
5.82724e-08
6.31395e-08
6.83951e-08
7.40701e-08
8.01983e-08
8.68153e-08
9.83861e-08
1.24749e-07
1.71696e-07
2.75435e-07
6.05205e-07
2.62502e-06
3.29145e-08
3.0281e-08
2.78422e-08
2.55835e-08
2.34918e-08
3.06046e-07
0.000239459
0.00743682
0.0242798
0.0468363
0.0715133
0.102898
0.141601
0.18759
0.255261
0.416691
0.910221
1.79113
2
1.93709
1.59082
1.26341
0.98678
0.758995
0.571212
0.416809
0.290177
0.188656
0.109786
0.0551684
0.0232576
0.00764934
0.00177584
0.000765217
3.57582e-08
3.88288e-08
4.21444e-08
4.57246e-08
4.95905e-08
5.37649e-08
5.82724e-08
6.31395e-08
6.83951e-08
7.40701e-08
8.01983e-08
8.68153e-08
9.39602e-08
1.06465e-07
1.34971e-07
1.85736e-07
2.97918e-07
6.5452e-07
2.8386e-06
3.57582e-08
3.29145e-08
3.0281e-08
2.78422e-08
2.55835e-08
3.21421e-08
2.31021e-05
0.00283724
0.0146835
0.032774
0.0533733
0.0790015
0.11212
0.151535
0.201215
0.291432
0.565516
1.31712
2
2
1.91433
1.55359
1.23263
0.964579
0.743287
0.560876
0.409879
0.285639
0.185773
0.108103
0.0543661
0.0229282
0.00755125
0.00175484
0.000756285
3.88288e-08
4.21444e-08
4.57246e-08
4.95905e-08
5.37649e-08
5.82724e-08
6.31395e-08
6.83951e-08
7.40701e-08
8.01983e-08
8.68153e-08
9.39602e-08
1.01676e-07
1.15188e-07
1.46007e-07
2.00897e-07
3.22194e-07
7.07773e-07
3.06922e-06
3.88288e-08
3.57582e-08
3.29145e-08
3.0281e-08
2.78422e-08
2.55836e-08
1.66565e-06
0.000702004
0.00802553
0.0215504
0.0387783
0.059249
0.0866464
0.120518
0.161035
0.218962
0.362785
0.834737
1.79324
2
2
1.87531
1.51436
1.20229
0.942645
0.728554
0.550788
0.402994
0.281168
0.182912
0.106484
0.0535522
0.0226163
0.00745858
0.00173363
0.000747693
4.21444e-08
4.57246e-08
4.95905e-08
5.37649e-08
5.82724e-08
6.31395e-08
6.83951e-08
7.40701e-08
8.01983e-08
8.68153e-08
9.39602e-08
1.01676e-07
1.10006e-07
1.24607e-07
1.57925e-07
2.17267e-07
3.48408e-07
7.65275e-07
3.31823e-06
4.21444e-08
3.88288e-08
3.57582e-08
3.29145e-08
3.0281e-08
2.78422e-08
1.12176e-07
9.81195e-05
0.00369302
0.0132555
0.0271312
0.0434275
0.0653456
0.0937662
0.128051
0.171427
0.251625
0.507919
1.24823
2
2
2
1.8306
1.47503
1.17252
0.922188
0.714315
0.540868
0.396272
0.276769
0.180168
0.104854
0.0527817
0.0223221
0.00736439
0.00171361
0.000739385
4.57246e-08
4.95905e-08
5.37649e-08
5.82724e-08
6.31395e-08
6.83951e-08
7.40701e-08
8.01983e-08
8.68153e-08
9.39602e-08
1.01676e-07
1.10006e-07
1.19002e-07
1.34778e-07
1.70794e-07
2.34944e-07
3.76714e-07
8.27365e-07
3.58712e-06
4.57246e-08
4.21444e-08
3.88288e-08
3.57582e-08
3.29145e-08
3.0281e-08
2.83282e-08
7.7814e-06
0.00123728
0.00755361
0.0181201
0.0311023
0.0481007
0.0712241
0.100054
0.135314
0.187499
0.320427
0.7727
1.7479
2
2
2
1.78365
1.4362
1.14483
0.902588
0.700444
0.531236
0.38972
0.272568
0.177428
0.103311
0.0520561
0.0220246
0.00727606
0.00169386
0.000731218
4.95905e-08
5.37649e-08
5.82724e-08
6.31395e-08
6.83951e-08
7.40701e-08
8.01983e-08
8.68153e-08
9.39602e-08
1.01676e-07
1.10006e-07
1.19002e-07
1.28715e-07
1.45761e-07
1.8469e-07
2.54032e-07
4.07279e-07
8.94409e-07
3.87747e-06
4.95905e-08
4.57246e-08
4.21444e-08
3.88288e-08
3.57582e-08
3.29145e-08
3.0281e-08
4.65936e-07
0.000252281
0.00380215
0.0112932
0.0216655
0.0346274
0.0527809
0.0764692
0.105652
0.144684
0.218588
0.464605
1.16819
2
2
2
2
1.73597
1.39996
1.11846
0.883693
0.687063
0.521908
0.383494
0.268413
0.174834
0.101858
0.0513271
0.0217457
0.00718849
0.00167441
0.000723447
5.37649e-08
5.82724e-08
6.31395e-08
6.83951e-08
7.40701e-08
8.01983e-08
8.68153e-08
9.39602e-08
1.01676e-07
1.10006e-07
1.19002e-07
1.28715e-07
1.39204e-07
1.5762e-07
1.99695e-07
2.74642e-07
4.40282e-07
9.66805e-07
4.19099e-06
5.37649e-08
4.95905e-08
4.57246e-08
4.21444e-08
3.88288e-08
3.57582e-08
3.29145e-08
3.91142e-08
2.72793e-05
0.00153661
0.00655245
0.0144747
0.0243786
0.0381995
0.0570703
0.0809947
0.112091
0.160002
0.288093
0.713639
1.66877
2
2
2
2
1.69073
1.36542
1.09325
0.865604
0.67419
0.513078
0.377396
0.26448
0.172392
0.100408
0.0506434
0.0214702
0.00710237
0.00165597
0.000715864
5.82724e-08
6.31395e-08
6.83951e-08
7.40701e-08
8.01983e-08
8.68153e-08
9.39602e-08
1.01676e-07
1.10006e-07
1.19002e-07
1.28715e-07
1.39204e-07
1.5053e-07
1.70426e-07
2.15897e-07
2.96898e-07
4.75919e-07
1.04498e-06
4.52953e-06
5.82724e-08
5.37649e-08
4.95905e-08
4.57246e-08
4.21444e-08
3.88288e-08
3.57582e-08
3.29146e-08
1.68755e-06
0.000418672
0.00345982
0.00916213
0.0167619
0.0270069
0.0415941
0.0607534
0.085673
0.12106
0.191658
0.425334
1.08313
2
2
2
2
2
1.64705
1.33257
1.0693
0.848319
0.662056
0.504498
0.371635
0.260782
0.16997
0.0990454
0.0499708
0.0211999
0.00702086
0.00163759
0.000708434
6.31395e-08
6.83951e-08
7.40701e-08
8.01983e-08
8.68153e-08
9.39602e-08
1.01676e-07
1.10006e-07
1.19002e-07
1.28715e-07
1.39204e-07
1.5053e-07
1.62759e-07
1.84253e-07
2.33392e-07
3.20929e-07
5.14401e-07
1.12939e-06
4.89508e-06
6.31395e-08
5.82724e-08
5.37649e-08
4.95905e-08
4.57246e-08
4.21444e-08
3.88288e-08
3.57582e-08
8.95882e-08
6.35205e-05
0.00155371
0.00537865
0.0111598
0.0186895
0.029599
0.0445578
0.0642606
0.0917424
0.13643
0.259475
0.654974
1.56823
2
2
2
2
1.96539
1.60534
1.30148
1.04655
0.832095
0.650349
0.496406
0.366225
0.257143
0.167693
0.0977102
0.0493128
0.0209443
0.00693926
0.00161956
0.000701299
6.83951e-08
7.40701e-08
8.01983e-08
8.68153e-08
9.39602e-08
1.01676e-07
1.10006e-07
1.19002e-07
1.28715e-07
1.39204e-07
1.5053e-07
1.62759e-07
1.75965e-07
1.99184e-07
2.52283e-07
3.46878e-07
5.55953e-07
1.22053e-06
5.28981e-06
6.83951e-08
6.31395e-08
5.82724e-08
5.37649e-08
4.95905e-08
4.57246e-08
4.21444e-08
3.88288e-08
3.57583e-08
4.85427e-06
0.000516428
0.00291197
0.00710364
0.0126468
0.0205877
0.0319397
0.0472079
0.0685844
0.100455
0.167934
0.386898
0.997589
2
2
2
2
2
1.91457
1.56583
1.27207
1.02529
0.816542
0.639333
0.488813
0.360945
0.253719
0.165469
0.0964072
0.0486906
0.0206892
0.00685919
0.00160214
0.000694237
7.40701e-08
8.01983e-08
8.68153e-08
9.39602e-08
1.01676e-07
1.10006e-07
1.19002e-07
1.28715e-07
1.39204e-07
1.5053e-07
1.62759e-07
1.75965e-07
1.90224e-07
2.15307e-07
2.72682e-07
3.74898e-07
6.00821e-07
1.31896e-06
5.71604e-06
7.40701e-08
6.83951e-08
6.31395e-08
5.82724e-08
5.37649e-08
4.95905e-08
4.57246e-08
4.21444e-08
3.88288e-08
2.3618e-07
0.000103606
0.0013906
0.0042119
0.00834119
0.0140081
0.0223773
0.0339611
0.0502874
0.0742183
0.115731
0.23214
0.598325
1.45634
2
2
2
2
2
1.86589
1.52848
1.24465
1.00502
0.801939
0.629011
0.481451
0.35598
0.250391
0.163305
0.0951738
0.0480718
0.0204393
0.0067818
0.00158472
0.000687495
8.01983e-08
8.68153e-08
9.39602e-08
1.01676e-07
1.10006e-07
1.19002e-07
1.28715e-07
1.39204e-07
1.5053e-07
1.62759e-07
1.75965e-07
1.90224e-07
2.05621e-07
2.32716e-07
2.94709e-07
4.05154e-07
6.49269e-07
1.42523e-06
6.17627e-06
8.01983e-08
7.40701e-08
6.83951e-08
6.31395e-08
5.82724e-08
5.37649e-08
4.95905e-08
4.57246e-08
4.21444e-08
3.95867e-08
1.04265e-05
0.000529728
0.00229963
0.00529163
0.00932708
0.0153301
0.0239211
0.0361223
0.0541519
0.0826187
0.146183
0.350318
0.911832
2
2
2
2
2
2
1.81955
1.4937
1.21863
0.986035
0.78827
0.619056
0.474536
0.35118
0.247164
0.161253
0.0939511
0.0474668
0.0201981
0.00670432
0.00156844
0.000681197
8.68153e-08
9.39602e-08
1.01676e-07
1.10006e-07
1.19002e-07
1.28715e-07
1.39204e-07
1.5053e-07
1.62759e-07
1.75965e-07
1.90224e-07
2.05621e-07
2.22247e-07
2.51514e-07
3.18493e-07
4.37825e-07
7.01584e-07
1.53999e-06
6.67324e-06
8.68153e-08
8.01983e-08
7.40701e-08
6.83951e-08
6.31395e-08
5.82724e-08
5.37649e-08
4.95905e-08
4.57246e-08
4.21444e-08
5.44573e-07
0.000132852
0.00113699
0.00316855
0.00607763
0.010267
0.0164974
0.0254177
0.0387844
0.059352
0.0974291
0.20667
0.5422
1.33871
2
2
2
2
2
2
1.77626
1.46077
1.1943
0.968287
0.775145
0.609719
0.46788
0.346545
0.244104
0.159226
0.092757
0.0468839
0.0199574
0.0066323
0.0015531
0.000674946
9.39602e-08
1.01676e-07
1.10006e-07
1.19002e-07
1.28715e-07
1.39204e-07
1.5053e-07
1.62759e-07
1.75965e-07
1.90224e-07
2.05621e-07
2.22247e-07
2.40199e-07
2.71812e-07
3.44176e-07
4.73103e-07
7.58073e-07
1.6639e-06
7.20986e-06
9.39602e-08
8.68153e-08
8.01983e-08
7.40701e-08
6.83951e-08
6.31395e-08
5.82724e-08
5.37649e-08
4.95905e-08
4.57246e-08
4.69993e-08
1.7554e-05
0.000466949
0.001747
0.00382837
0.00673889
0.0111272
0.0175373
0.0272267
0.0421993
0.0673457
0.126555
0.314293
0.82599
1.86867
2
2
2
2
2
2
1.73522
1.43001
1.1716
0.95131
0.762847
0.600768
0.46148
0.342154
0.241093
0.157249
0.0916073
0.0463039
0.0197335
0.00656434
0.00153755
0.000668826
1.01676e-07
1.10006e-07
1.19002e-07
1.28715e-07
1.39204e-07
1.5053e-07
1.62759e-07
1.75965e-07
1.90224e-07
2.05621e-07
2.22247e-07
2.40199e-07
2.59584e-07
2.9373e-07
3.71908e-07
5.11195e-07
8.19071e-07
1.7977e-06
7.78931e-06
1.01676e-07
9.39602e-08
8.68153e-08
8.01983e-08
7.40701e-08
6.83951e-08
6.31395e-08
5.82724e-08
5.37649e-08
4.95905e-08
4.57246e-08
1.08673e-06
0.00013661
0.000874858
0.00230097
0.00431978
0.00734785
0.0118687
0.0187411
0.0294989
0.0470091
0.0814587
0.182274
0.486138
1.21427
2
2
2
2
2
2
2
1.69685
1.40135
1.14995
0.935418
0.751095
0.592193
0.455421
0.337856
0.238163
0.155347
0.090467
0.0457641
0.0195225
0.00649512
0.00152251
0.00066293
1.10006e-07
1.19002e-07
1.28715e-07
1.39204e-07
1.5053e-07
1.62759e-07
1.75965e-07
1.90224e-07
2.05621e-07
2.22247e-07
2.40199e-07
2.59584e-07
2.80517e-07
3.17397e-07
4.01852e-07
5.52328e-07
8.84936e-07
1.94218e-06
8.41499e-06
1.10006e-07
1.01676e-07
9.39602e-08
8.68153e-08
8.01983e-08
7.40701e-08
6.83951e-08
6.31395e-08
5.82724e-08
5.37649e-08
4.95905e-08
6.15101e-08
2.25504e-05
0.000381275
0.00127351
0.00269738
0.00474491
0.0078779
0.0126458
0.0202396
0.0325591
0.05442
0.10859
0.278457
0.737806
1.71662
2
2
2
2
2
2
1.9987
1.66111
1.37409
1.12971
0.920278
0.73987
0.584085
0.449522
0.33369
0.235348
0.153467
0.0894038
0.0452553
0.0193082
0.0064285
0.00150794
0.000657027
1.19002e-07
1.28715e-07
1.39204e-07
1.5053e-07
1.62759e-07
1.75965e-07
1.90224e-07
2.05621e-07
2.22247e-07
2.40199e-07
2.59584e-07
2.80517e-07
3.03119e-07
3.42953e-07
4.34187e-07
5.96743e-07
9.56057e-07
2.09819e-06
9.09062e-06
1.19002e-07
1.10006e-07
1.01676e-07
9.39602e-08
8.68153e-08
8.01983e-08
7.40701e-08
6.83951e-08
6.31395e-08
5.82724e-08
5.37649e-08
4.95906e-08
1.7191e-06
0.000124473
0.000644606
0.00161096
0.00299769
0.00512207
0.00838558
0.0136266
0.0222056
0.0368528
0.0675051
0.158601
0.428966
1.09005
2
2
2
2
2
2
2
1.95474
1.62716
1.34863
1.11049
0.905854
0.729271
0.57623
0.443835
0.329697
0.232577
0.151709
0.0884007
0.0447407
0.019102
0.0063638
0.00149316
0.000651245
1.28715e-07
1.39204e-07
1.5053e-07
1.62759e-07
1.75965e-07
1.90224e-07
2.05621e-07
2.22247e-07
2.40199e-07
2.59584e-07
2.80517e-07
3.03119e-07
3.27525e-07
3.70549e-07
4.69102e-07
6.44703e-07
1.03285e-06
2.26664e-06
9.82015e-06
1.28715e-07
1.19002e-07
1.10006e-07
1.01676e-07
9.39602e-08
8.68153e-08
8.01983e-08
7.40701e-08
6.83951e-08
6.31395e-08
5.82724e-08
5.37649e-08
8.37978e-08
2.46081e-05
0.000286375
0.000895875
0.00184903
0.00326012
0.00546118
0.00900688
0.014877
0.0248458
0.0435362
0.091979
0.242517
0.652096
1.55875
2
2
2
2
2
2
2
1.91297
1.59548
1.32451
1.09222
0.892271
0.719046
0.568711
0.438396
0.325786
0.229983
0.150049
0.0873901
0.0442459
0.0189021
0.00629806
0.00147884
0.000645578
1.39204e-07
1.5053e-07
1.62759e-07
1.75965e-07
1.90224e-07
2.05621e-07
2.22247e-07
2.40199e-07
2.59584e-07
2.80517e-07
3.03119e-07
3.27525e-07
3.5388e-07
4.00346e-07
5.06803e-07
6.96489e-07
1.11578e-06
2.44855e-06
1.06079e-05
1.39204e-07
1.28715e-07
1.19002e-07
1.10006e-07
1.01676e-07
9.39602e-08
8.68153e-08
8.01983e-08
7.40701e-08
6.83951e-08
6.31395e-08
5.82724e-08
5.37652e-08
2.30552e-06
0.000100738
0.000454061
0.00109695
0.00203348
0.00349144
0.00584515
0.00978859
0.0165228
0.0285697
0.0552596
0.135711
0.374129
0.96964
2
2
2
2
2
2
2
2
1.87394
1.56551
1.30163
1.07506
0.879224
0.709291
0.561532
0.433093
0.32212
0.22753
0.148383
0.0864179
0.0437663
0.0186994
0.00623458
0.00146449
0.000639858
1.5053e-07
1.62759e-07
1.75965e-07
1.90224e-07
2.05621e-07
2.22247e-07
2.40199e-07
2.59584e-07
2.80517e-07
3.03119e-07
3.27525e-07
3.5388e-07
3.82337e-07
4.32521e-07
5.47512e-07
7.52409e-07
1.20532e-06
2.64496e-06
1.14585e-05
1.5053e-07
1.39204e-07
1.28715e-07
1.19002e-07
1.10006e-07
1.01676e-07
9.39602e-08
8.68153e-08
8.01983e-08
7.40701e-08
6.83951e-08
6.31395e-08
5.82725e-08
1.12087e-07
2.27433e-05
0.000206124
0.000612154
0.00123917
0.00219024
0.0037271
0.00632602
0.0108017
0.0187382
0.0343955
0.076752
0.208583
0.571525
1.40242
2
2
2
2
2
2
2
2
1.83705
1.53714
1.28019
1.05864
0.866805
0.699991
0.554556
0.428117
0.318653
0.22508
0.146779
0.085476
0.0432817
0.0185037
0.0061706
0.00144971
0.000634262
1.62759e-07
1.75965e-07
1.90224e-07
2.05621e-07
2.22247e-07
2.40199e-07
2.59584e-07
2.80517e-07
3.03119e-07
3.27525e-07
3.5388e-07
3.82337e-07
4.13064e-07
4.67264e-07
5.91471e-07
8.12791e-07
1.30201e-06
2.85706e-06
1.23771e-05
1.62759e-07
1.5053e-07
1.39204e-07
1.28715e-07
1.19002e-07
1.10006e-07
1.01676e-07
9.39602e-08
8.68153e-08
8.01983e-08
7.40701e-08
6.83951e-08
6.31395e-08
5.82732e-08
2.54762e-06
7.58962e-05
0.000311544
0.00072826
0.0013468
0.00233539
0.00401639
0.00693738
0.0121534
0.0218542
0.0446579
0.114678
0.32354
0.855345
1.96046
2
2
2
2
2
2
2
2
1.80218
1.51058
1.25974
1.04305
0.85498
0.690987
0.548007
0.423411
0.31521
0.222722
0.145225
0.0845267
0.0428139
0.0183069
0.00610444
0.00143536
0.000628807
1.75965e-07
1.90224e-07
2.05621e-07
2.22247e-07
2.40199e-07
2.59584e-07
2.80517e-07
3.03119e-07
3.27525e-07
3.5388e-07
3.82337e-07
4.13064e-07
4.46244e-07
5.0478e-07
6.38937e-07
8.77991e-07
1.40642e-06
3.08608e-06
1.33688e-05
1.75965e-07
1.62759e-07
1.5053e-07
1.39204e-07
1.28715e-07
1.19002e-07
1.10006e-07
1.01676e-07
9.39602e-08
8.68153e-08
8.01983e-08
7.40701e-08
6.83951e-08
6.31396e-08
1.35207e-07
1.89043e-05
0.000141224
0.000405127
0.000808377
0.00143895
0.00250562
0.00437995
0.00775727
0.013935
0.0268513
0.0633188
0.17777
0.496357
1.24802
2
2
2
2
2
2
2
2
2
1.76955
1.48532
1.24035
1.02821
0.843562
0.682534
0.541811
0.418761
0.311898
0.220438
0.143663
0.0836098
0.0423442
0.0181038
0.00604034
0.00142126
0.000623309
1.90224e-07
2.05621e-07
2.22247e-07
2.40199e-07
2.59584e-07