/*--------------------------------*- C++ -*----------------------------------*\
| =========                 |                                                 |
| \\      /  F ield         | OpenFOAM: The Open Source CFD Toolbox           |
|  \\    /   O peration     | Version:  v2012                                 |
|   \\  /    A nd           | Website:  www.openfoam.com                      |
|    \\/     M anipulation  |                                                 |
\*---------------------------------------------------------------------------*/
FoamFile
{
    version     2.0;
    format      ascii;
    class       volScalarField;
    location    "1901";
    object      Res;
}
// * * * * * * * * * * * * * * * * * * * * * * * * * * * * * * * * * * * * * //

dimensions      [0 0 0 0 0 0 0];


internalField   nonuniform List<scalar> 
8000
(
1.35882e-14
2.30407e-14
2.60493e-13
2.16339e-14
1.55507e-13
2.43003e-13
1.20069e-14
1.8619e-13
1.51979e-13
4.27929e-13
1.10537e-14
1.19406e-13
2.1016e-13
1.37686e-12
2.61526e-13
1.40627e-14
1.50312e-13
2.18131e-13
1.01256e-12
9.08991e-13
1.01157e-12
5.42356e-15
5.97334e-14
3.88493e-13
2.38644e-13
1.67432e-12
3.42664e-12
1.55891e-12
7.48813e-15
7.57207e-14
5.0461e-13
3.26797e-13
6.89214e-13
4.78357e-13
6.30872e-13
2.58646e-12
6.34198e-15
1.30484e-13
2.05052e-13
3.22316e-13
9.66449e-13
4.34613e-13
1.17671e-12
6.41481e-12
2.82418e-12
1.49038e-14
1.21154e-13
3.09835e-13
2.12351e-13
1.09897e-12
2.58903e-12
1.48919e-12
2.13047e-13
4.97339e-12
3.82519e-12
6.1363e-15
1.58338e-14
3.64261e-15
7.10904e-13
3.87929e-13
9.5589e-14
3.77684e-12
3.24293e-12
2.09975e-12
4.18371e-12
6.18196e-12
1.21466e-14
2.41824e-13
1.89637e-13
5.88845e-13
2.90446e-13
3.81213e-12
3.27615e-13
4.87984e-12
2.75101e-12
3.18841e-14
2.81387e-12
1.54004e-11
8.64611e-15
1.0175e-13
2.38089e-13
6.46049e-14
5.47692e-13
6.48927e-13
1.39083e-12
7.81525e-13
4.60646e-12
7.99973e-12
6.68244e-12
4.4787e-13
8.43252e-12
8.9337e-15
6.74647e-14
4.1932e-13
4.96703e-14
1.31487e-12
5.03995e-12
2.51485e-12
3.59149e-12
1.39555e-12
3.92336e-12
4.08886e-12
1.38999e-13
7.47495e-12
7.50298e-12
1.59574e-14
1.49376e-13
1.7942e-13
5.37332e-13
1.46021e-12
1.81555e-12
1.84168e-12
1.1477e-12
7.01614e-12
4.76582e-12
5.2129e-12
5.34359e-12
4.61835e-12
2.20649e-11
1.74013e-11
7.77452e-12
1.85694e-13
2.13826e-13
3.28539e-13
1.46781e-12
1.08913e-12
1.63222e-12
1.37732e-12
8.12695e-13
5.87165e-12
5.94236e-12
8.77346e-12
1.19594e-11
1.63041e-11
9.93772e-12
1.04089e-11
6.76363e-10
4.05677e-11
3.78575e-13
1.3595e-14
5.52285e-13
2.85446e-13
1.63229e-12
3.46541e-12
2.90832e-12
1.2646e-11
3.64898e-12
5.45945e-12
3.05052e-12
5.02944e-12
1.53804e-11
1.2172e-11
4.50763e-11
2.58035e-06
4.80666e-09
6.24524e-11
5.15159e-13
1.00954e-12
8.82192e-13
1.59978e-12
1.52062e-13
3.29827e-12
6.79718e-12
2.43396e-12
3.10749e-12
4.25113e-12
1.65071e-11
2.34216e-11
8.27589e-12
1.01729e-11
4.11495e-11
0.000307585
1.19934e-05
7.82065e-09
6.92892e-11
4.23854e-13
2.03635e-12
1.15721e-12
1.26468e-12
5.50956e-13
1.09021e-12
3.0479e-12
1.96021e-11
1.61476e-11
5.15266e-12
1.02387e-11
1.01019e-11
1.54779e-11
1.70425e-11
5.82416e-11
0.495293
0.00157334
1.80388e-05
1.18536e-08
6.87491e-11
6.3048e-13
1.71079e-12
2.2796e-12
2.03026e-12
2.09759e-14
6.76663e-12
3.44259e-12
9.65231e-12
5.72753e-12
1.31521e-11
1.67223e-11
1.0507e-11
1.93133e-11
9.18837e-12
5.67102e-11
2.29084
3.09881
0.00371047
1.94559e-05
1.3444e-08
6.73582e-11
2.59564e-12
8.48065e-14
6.0067e-12
8.30219e-12
8.19504e-12
3.60973e-13
4.45883e-12
1.51672e-11
6.66238e-12
6.91842e-12
6.372e-12
1.19839e-11
2.39911e-11
1.30514e-11
3.73394e-11
3.72073
17.3542
0.935254
0.00575833
1.78536e-05
1.57691e-08
7.05398e-11
1.49193e-12
2.85762e-13
4.05515e-12
5.06896e-12
5.03335e-12
4.98155e-12
6.0368e-12
8.8374e-12
8.79238e-12
2.37322e-11
1.71701e-11
2.70621e-11
1.25275e-11
1.17221e-11
1.09335e-11
4.60479
39.0859
8.86592
0.520316
0.00822885
1.60197e-05
1.67965e-08
8.37999e-11
3.01461e-12
3.27537e-12
2.56388e-12
6.3736e-12
1.79836e-11
2.09201e-12
1.77975e-12
2.58104e-11
1.25249e-11
2.6971e-11
2.49916e-11
3.05718e-11
2.84244e-11
2.10732e-11
2.32113e-11
5.32915
63.3743
27.833
5.15396
0.371413
0.00915938
1.55905e-05
1.78157e-08
9.15573e-11
1.14129e-11
4.85001e-12
4.35044e-12
1.10432e-11
5.61928e-13
4.66933e-12
6.28852e-12
1.79535e-11
1.29872e-11
2.85236e-12
1.26645e-11
3.58649e-11
3.18233e-11
2.14424e-11
3.03252e-12
6.35316
83.2231
61.0698
16.8256
3.62344
0.293689
0.00975873
1.73265e-05
1.80262e-08
8.96559e-11
4.98742e-12
4.70538e-12
9.69511e-12
9.41402e-13
4.11389e-12
3.331e-12
7.53166e-12
1.05295e-11
2.53364e-11
2.31679e-11
4.30835e-11
1.9231e-11
5.2791e-11
2.23573e-11
2.90037e-11
7.79559
87.8655
101.522
39.3359
11.6739
2.8279
0.24478
0.00936122
1.93476e-05
1.81137e-08
9.20879e-11
5.63498e-12
5.77843e-12
6.00936e-12
6.20078e-12
1.09073e-11
8.89156e-12
2.69315e-11
2.38179e-11
1.4649e-11
2.58939e-11
2.3765e-11
2.28774e-11
1.9626e-11
4.62694e-11
3.29029e-11
9.20732
90.3722
133.205
75.9345
27.6388
8.89783
2.35045
0.212458
0.00855643
1.96295e-05
1.67627e-08
7.94317e-11
6.78625e-12
6.97632e-12
6.4409e-12
1.31011e-11
8.54453e-13
5.24977e-11
5.25022e-12
3.67929e-11
1.62111e-11
3.07983e-11
1.57347e-11
2.3912e-11
4.49079e-11
5.97788e-11
3.76399e-12
9.99878
110.412
136.813
124.704
56.2054
20.5869
7.31038
2.03586
0.189449
0.00755941
1.72341e-05
1.47746e-08
7.45717e-11
5.53494e-12
2.16534e-12
2.88466e-11
3.4326e-11
2.85525e-11
1.31538e-11
1.39918e-11
5.49251e-11
3.59452e-11
6.67811e-11
1.27728e-11
2.64947e-11
2.58028e-11
1.74004e-10
3.90135e-11
9.71494
140.286
126.424
167.499
102.149
41.6513
16.604
6.28658
1.81236
0.172687
0.00626963
1.3748e-05
1.24131e-08
6.95946e-11
7.01691e-13
9.59052e-12
8.67265e-12
2.48511e-11
1.49917e-11
4.30569e-11
2.45257e-11
6.60682e-11
2.13886e-11
5.4395e-11
1.15043e-10
4.21314e-12
2.73374e-11
8.58178e-11
3.96031e-12
8.5435
169.771
119.311
181.416
163.076
77.8667
32.9385
14.098
5.56755
1.64904
0.160642
0.00473648
1.03669e-05
9.9569e-09
4.1701e-11
2.24612e-11
2.03387e-11
1.88513e-11
3.52603e-11
1.25077e-11
7.22845e-12
1.34366e-11
3.75321e-11
2.2095e-11
4.20721e-11
8.76916e-11
1.81455e-12
5.91421e-11
5.88428e-11
5.33012e-11
6.79847
171.723
146.986
148.398
214.173
134.908
61.0497
27.4728
12.3731
5.04493
1.53053
0.1528
0.0033435
7.40516e-06
7.81071e-09
4.18694e-11
4.46857e-12
1.59191e-11
1.12691e-11
2.40057e-11
4.19468e-12
5.69834e-12
3.0573e-11
4.12757e-11
2.9846e-11
2.69953e-11
4.69277e-12
2.8726e-12
6.48626e-11
8.80075e-11
5.20694e-11
4.95134
154.486
200.775
88.4157
217.947
209.793
107.919
49.9611
23.7868
11.1358
4.66481
1.45354
0.148924
0.00212598
5.00094e-06
5.85651e-09
4.7518e-11
1.44036e-11
4.01604e-11
2.43978e-11
5.83134e-11
3.2691e-11
3.83087e-11
8.72163e-11
1.80649e-11
5.49862e-11
5.17233e-11
1.22331e-10
5.80518e-12
1.79723e-10
3.19774e-11
5.42248e-11
3.30162
124.349
280.645
39.5536
174.027
266.713
179.285
87.606
42.4772
21.1874
10.2402
4.41941
1.41972
0.149673
0.00132175
3.21401e-06
4.25798e-09
2.60271e-11
3.26616e-11
8.32636e-12
1.53036e-11
1.32585e-11
2.50435e-11
4.15387e-11
4.03667e-11
5.23919e-11
4.15595e-11
5.51295e-11
1.71714e-10
8.81859e-11
4.40359e-11
1.07435e-10
1.24898e-10
2.01976
91.9706
400.368
40.7154
121.452
249.554
267.622
147.46
73.1137
37.2594
19.3188
9.66287
4.32307
1.43117
0.153458
0.000806358
1.96943e-06
2.9403e-09
7.98632e-12
2.73108e-11
1.68222e-11
3.06489e-11
5.654e-11
1.96944e-11
5.77937e-11
8.08107e-11
6.12174e-12
1.01405e-10
1.11665e-10
6.52864e-11
9.69308e-11
1.72263e-10
1.16659e-10
1.01799e-10
1.13391
62.7597
481.212
85.3556
96.1124
178.633
318.257
234.563
121.763
62.8971
33.5077
18.0911
9.45188
4.37408
1.47271
0.159747
0.000458142
1.14717e-06
1.93265e-09
2.59164e-11
3.10837e-11
2.44062e-12
1.7896e-11
4.66344e-11
7.5868e-12
5.0707e-11
4.64954e-11
1.04277e-10
7.6984e-11
1.34183e-10
1.50917e-10
5.72534e-11
2.8224e-10
4.25254e-11
2.24183e-10
0.583116
39.5421
491.66
190.512
82.2832
118.395
265.107
328.49
195.198
102.961
55.464
30.9167
17.5903
9.58687
4.52074
1.53699
0.165231
0.000241722
6.33023e-07
1.2303e-09
2.1724e-11
1.36257e-11
6.70614e-12
3.10965e-12
1.14969e-11
1.7984e-11
1.44046e-10
2.6703e-11
1.14569e-10
1.22211e-10
1.82737e-10
9.05628e-12
6.57936e-11
5.57906e-11
1.4188e-10
8.22233e-11
0.273444
22.8672
426.118
366.169
44.5425
133.162
163.922
346.669
293.591
161.029
88.6477
49.997
29.4795
17.7373
9.92626
4.73298
1.59231
0.169046
0.000116888
3.28586e-07
7.2393e-10
7.2863e-12
5.21512e-11
3.14979e-12
2.13617e-11
6.12667e-11
6.99076e-11
3.14752e-12
1.11295e-10
7.53204e-11
1.83977e-10
4.10678e-11
7.47595e-11
1.51019e-10
2.26117e-10
5.20643e-11
2.67065e-10
0.116407
12.0551
318.939
608.033
11.182
175.756
81.9614
250.381
374.797
241.646
132.603
77.3469
46.0632
28.9951
18.1698
10.3926
4.91035
1.62837
0.171055
5.15063e-05
1.59246e-07
3.95143e-10
1.65908e-11
1.98161e-11
2.63929e-11
7.07128e-11
6.48258e-11
5.76908e-11
1.70393e-10
6.18617e-11
1.66307e-10
5.37153e-11
2.99681e-12
7.97533e-11
1.84136e-11
5.21573e-11
4.13131e-11
1.93232e-10
0.044661
5.75705
208.659
828.586
62.5646
181.222
103.447
128.081
338.684
337.287
191.108
108.537
68.0256
43.319
28.6855
18.7743
10.7632
5.01879
1.64705
0.171945
2.05404e-05
7.15018e-08
2.13009e-10
2.04182e-11
5.91739e-11
3.11698e-11
8.00347e-11
2.91622e-11
1.68761e-10
1.18209e-10
1.36346e-10
3.70977e-12
1.18912e-10
4.87915e-11
5.12001e-11
9.39682e-11
1.36668e-10
6.9071e-12
2.2055e-11
0.0152705
2.4793
120.578
920.387
203.357
162.586
161.171
51.5333
202.9
378.5
268.364
146.64
87.977
59.7963
40.6265
28.5829
19.1983
10.9698
5.07284
1.65494
0.171721
7.37217e-06
2.95021e-08
1.59128e-10
3.35008e-11
1.76046e-11
3.23433e-11
9.13935e-12
1.07974e-10
1.12992e-10
1.2506e-10
1.127e-10
1.64536e-10
1.21441e-10
1.03769e-10
4.93053e-11
8.27364e-11
1.08858e-10
1.28727e-10
1.30619e-10
0.00459561
0.955627
61.8146
829.106
485.133
98.3418
223.744
66.7172
82.0068
286.132
344.764
198.366
110.415
70.7232
52.8845
38.3834
28.3467
19.3677
11.0634
5.09308
1.65206
0.170755
2.37552e-06
1.11542e-08
7.41057e-11
3.10268e-11
3.49084e-11
3.65712e-11
6.45969e-11
9.05948e-11
1.03016e-10
9.37094e-11
8.11606e-11
5.71576e-11
2.08135e-11
1.14478e-10
2.01912e-10
8.19233e-12
8.66018e-11
1.68056e-10
4.42874e-11
0.00119889
0.326563
28.0722
611.054
898.634
12.4677
287.059
112.675
36.45
139.587
332.353
267.663
142.566
83.5661
58.7549
46.9475
36.4052
27.9759
19.4053
11.0847
5.07984
1.64203
0.169343
6.91174e-07
3.84574e-09
7.05915e-11
2.56719e-11
6.97098e-11
5.20145e-11
1.08448e-10
3.49658e-11
1.15579e-10
5.81826e-11
4.05611e-11
1.21768e-10
6.86076e-11
1.2568e-10
8.38792e-11
2.012e-10
1.05389e-10
8.82441e-11
1.47667e-11
0.000266336
0.0977317
11.2372
373.741
1271.54
90.928
291.578
183.699
47.1442
46.1309
205.143
313.225
192.972
103.418
65.0711
49.9275
42.5875
34.8565
27.6482
19.3395
11.0373
5.04477
1.6276
0.167584
1.85158e-07
1.20253e-09
1.03904e-10
1.46174e-11
2.44824e-11
1.28441e-10
4.06544e-11
1.03737e-10
6.13512e-11
6.21654e-11
1.03251e-10
5.29344e-11
2.34919e-10
7.68171e-11
3.13882e-10
1.08519e-10
9.56183e-11
1.6932e-10
1.69538e-10
4.93461e-05
0.0251945
3.94025
192.545
1387.01
336.038
235.601
277.139
76.0825
30.0853
79.4573
253.591
252.958
137.526
77.3165
55.3052
44.2993
39.6569
33.7108
27.2693
19.1941
10.9462
4.99598
1.61008
0.165589
4.67326e-08
4.85509e-10
3.05651e-11
3.18378e-11
1.86842e-10
5.11843e-11
5.4304e-11
3.74929e-11
1.38314e-10
7.57349e-11
1.08402e-10
2.85093e-10
8.87125e-11
2.21872e-10
2.18623e-10
2.48884e-10
1.35419e-11
2.79751e-11
5.7268e-11
7.45288e-06
0.00548277
1.19759
84.4311
1172.98
831.222
123.07
374.803
125.208
42.0106
30.3827
124.643
259.495
188.854
100.189
64.2797
49.2073
40.7961
37.5561
32.7355
26.9019
18.9956
10.8271
4.93848
1.59043
0.16364
1.17736e-08
1.49482e-10
7.81303e-11
1.3203e-10
3.18344e-11
5.88309e-11
1.35643e-10
8.05018e-11
1.48561e-10
1.3659e-10
1.18309e-10
1.28315e-10
1.93584e-10
1.69349e-10
2.86439e-10
1.26683e-10
1.1261e-10
2.96316e-10
2.16136e-10
9.02471e-07
0.000982422
0.310952
31.5933
775.417
1465.74
33.547
428.927
208.046
59.6615
33.8557
41.5821
169.166
230.063
138.611
76.5674
56.5524
44.691
38.4091
36.0198
31.9665
26.523
18.7634
10.6919
4.87487
1.57128
0.161726
2.60565e-09
1.95111e-10
2.11336e-10
3.54643e-11
1.95704e-10
2.5542e-11
1.01044e-10
1.07303e-10
1.06824e-10
7.3694e-11
6.68844e-11
3.95933e-10
1.9091e-10
1.13581e-10
2.39109e-10
1.53386e-10
1.40091e-10
1.26583e-10
2.06265e-10
8.6527e-08
0.000140673
0.0676559
10.0442
407.718
1876.08
245.316
404.703
327.104
90.3738
44.0992
33.6386
64.4171
194.797
186.317
103.004
65.6114
50.6025
41.3378
36.6193
34.8678
31.2836
26.1412
18.5139
10.5449
4.81305
1.55229
0.159703
6.60347e-10
2.69892e-10
6.19441e-11
1.57096e-10
4.59281e-11
7.28578e-11
1.67936e-10
1.47128e-10
3.55892e-11
9.3302e-11
2.7563e-10
1.25335e-10
1.16988e-10
1.91789e-10
4.97025e-11
1.60394e-10
3.94581e-10
1.22375e-10
2.39324e-10
7.18605e-09
1.55505e-05
0.0120217
2.68726
173.48
1761.42
775.906
240.473
473.358
145.443
56.9042
42.7794
33.6323
97.7813
196.794
143.834
79.9694
57.7697
45.939
38.7388
35.2387
33.9323
30.6621
25.7621
18.2505
10.4027
4.7514
1.53235
0.157652
6.05848e-10
2.2068e-10
1.5714e-10
9.25619e-11
5.0985e-11
7.07658e-11
6.00808e-11
4.09982e-11
7.0912e-11
2.51033e-10
4.64886e-11
3.23846e-10
1.16974e-10
2.29444e-10
2.7678e-10
3.29058e-10
2.90724e-10
1.39339e-10
7.10023e-11
4.43781e-09
1.27602e-06
0.00169029
0.595235
60.3682
1228.32
1650.47
25.5749
584.858
245.275
76.1184
52.7675
43.2911
31.0985
128.727
177.603
109.758
67.2128
51.8742
42.1883
36.7179
34.2057
33.1384
30.0889
25.3801
17.9965
10.2611
4.68727
1.51225
0.155623
1.28488e-09
3.20166e-10
1.29061e-10
9.91007e-11
9.12708e-11
7.87766e-11
1.98153e-11
5.41044e-11
1.33428e-10
8.58788e-11
9.31955e-11
2.52854e-10
2.58016e-10
3.34413e-10
5.80079e-11
1.83888e-10
1.55412e-10
2.73268e-10
2.56654e-10
7.48357e-09
9.2388e-08
0.000181008
0.106555
17.1846
646.667
2357.54
205.853
565.698
403.048
110.956
63.5689
55.1616
31.6808
48.6788
151.021
147.168
85.9041
59.2401
46.907
39.2258
35.1173
33.3739
32.4378
29.5362
25.0137
17.7465
10.1155
4.62303
1.49242
0.153687
2.01594e-09
2.25246e-10
7.4872e-11
1.6219e-10
2.13091e-11
1.4346e-11
7.57244e-11
2.59936e-10
1.10167e-10
2.02314e-10
2.61163e-10
1.1402e-10
4.11637e-10
1.46403e-10
2.19358e-10
1.95138e-10
1.76709e-10
1.58743e-10
2.64777e-10
8.10394e-09
1.67584e-08
1.41982e-05
0.0149322
3.9657
262.239
2335.01
822.93
348.966
603.276
177.415
77.6145
67.6092
44.7359
19.2887
72.8129
155.525
117.331
69.6291
53.0009
42.9107
36.8417
33.8079
32.6532
31.7802
29.012
24.6634
17.4957
9.9709
4.55979
1.47345
0.151758
2.76369e-09
3.94385e-10
1.72022e-10
5.30752e-11
1.94849e-11
1.79358e-10
7.65002e-11
1.87391e-10
2.72846e-11
2.37988e-10
1.0876e-10
2.60435e-10
6.88663e-11
2.70392e-10
1.23478e-10
4.01813e-11
1.8549e-10
9.38208e-11
3.09152e-11
9.99234e-09
1.73253e-08
8.43579e-07
0.00157484
0.72778
83.1273
1637.61
1947.14
70.3979
742.352
304.534
100.613
80.1495
59.6826
27.271
21.3662
102.022
143.402
92.9967
61.037
48.0747
39.6133
34.8823
32.7177
31.9841
31.1559
28.5256
24.3378
17.2496
9.82902
4.49924
1.45453
0.149874
3.76941e-09
6.63749e-10
8.00615e-11
8.02158e-11
2.13522e-10
9.4845e-11
1.03492e-10
2.65428e-10
1.25817e-10
6.65015e-11
6.40791e-10
2.18772e-10
3.43521e-10
7.55805e-11
1.98227e-11
4.57804e-10
3.03879e-11
2.87129e-11
3.31392e-10
1.20502e-08
9.22461e-09
6.3793e-08
0.000119686
0.103105
20.654
828.281
2902.35
242.742
727.548
503.205
145.295
94.6026
76.4783
39.7278
8.83545
36.5199
124.033
122.435
75.4791
54.6621
43.806
36.8748
33.2738
31.7658
31.341
30.5715
28.1442
24.0253
17.0096
9.69327
4.439
1.43615
0.148116
5.16914e-09
1.09722e-09
1.01554e-10
8.15968e-11
1.18222e-10
1.04307e-10
9.86142e-11
3.63646e-11
1.7774e-10
4.19705e-10
2.06471e-10
3.11603e-10
1.95707e-10
3.10358e-10
5.43533e-10
1.07538e-10
2.0915e-10
2.16949e-10
3.3362e-10
1.43337e-08
4.62515e-09
7.64009e-08
6.48494e-06
0.010841
3.98002
308.255
2841.72
1052.86
426.234
762.231
231.299
114.256
94.4496
54.3112
13.847
7.0653
63.1855
130.816
100.499
63.42
49.476
40.1963
34.6188
31.9139
30.9062
30.727
30.0592
27.7895
23.7251
16.7803
9.55867
4.38079
1.41893
0.146386
6.68873e-09
1.53264e-09
4.58058e-11
8.71545e-11
9.72245e-11
1.03493e-10
1.0738e-10
9.61249e-11
3.21877e-10
1.30753e-10
4.87684e-10
1.50027e-10
1.92261e-10
3.45583e-10
4.87016e-10
2.72708e-10
2.41188e-10
2.06854e-10
4.70859e-10
1.80754e-08
6.42823e-09
1.32369e-07
5.36308e-07
0.000808
0.580657
85.7581
1888.88
2484.32
52.3911
933.733
397.955
144.8
114.619
73.8948
23.1587
1.16281
17.4379
91.5166
122.659
82.088
56.7238
45.0639
37.1605
32.7302
30.7334
30.1171
30.1627
29.589
27.4571
23.4397
16.5544
9.42918
4.3261
1.402
0.144722
8.71155e-09
1.88104e-09
1.30818e-10
7.83213e-11
7.83947e-11
1.33818e-10
1.25844e-10
2.95423e-10
3.69243e-10
3.066e-10
1.99209e-10
9.23357e-11
4.43613e-10
1.89438e-10
2.84951e-10
2.95446e-10
2.96332e-10
2.52607e-10
4.53211e-10
2.26827e-08
1.33929e-08
1.99629e-07
5.84341e-07
4.1806e-05
0.0618017
17.8598
870.391
3553.2
403.969
864.037
661.377
203.124
136.039
97.5079
37.1599
1.53568
8.25657
36.1853
111.691
106.559
68.3402
51.2645
41.2034
34.6005
31.1243
29.6834
29.4095
29.6431
29.1533
27.145
23.1628
16.3372
9.30733
4.27243
1.38578
0.143112
1.08748e-08
2.33057e-09
2.1484e-10
1.05454e-10
2.19637e-10
2.14817e-11
4.69335e-10
2.66067e-10
2.41509e-10
2.78833e-10
1.53155e-10
4.64847e-10
2.10951e-10
1.99721e-10
2.20296e-10
3.14858e-10
2.76425e-10
4.91466e-10
1.00747e-09
2.69309e-08
1.58408e-08
2.62181e-07
7.62201e-07
2.7255e-06
0.00458171
2.74206
283.187
3199.15
1591.3
455.487
974.509
320.427
161.849
125.232
59.9397
3.79662
8.82896
8.13565
63.3567
117.296
89.1408
59.1657
46.6951
37.8625
32.4376
29.7271
28.7642
28.7766
29.1616
28.7477
26.8504
22.8964
16.1323
9.18797
4.22118
1.37006
0.141532
1.27826e-08
2.48601e-09
1.32906e-10
2.00107e-10
2.11232e-10
4.10933e-10
3.47295e-10
5.94948e-10
1.99415e-10
1.87167e-10
2.06741e-10
5.68271e-11
2.62906e-10
2.64011e-10
3.92064e-10
3.25928e-10
5.27317e-10
3.09815e-10
1.04109e-09
3.21263e-08
1.26651e-08
3.10832e-07
9.33321e-07
1.9609e-06
0.000228341
0.300664
65.9465
1892.08
3331.63
71.4355
1131.67
544.157
203.602
154.619
90.3679
9.8245
9.51081
11.9221
18.6849
89.8817
109.731
74.3276
53.4232
42.6112
35.0102
30.5784
28.5214
27.9609
28.2048
28.7133
28.3702
26.5682
22.6439
15.9324
9.07432
4.17149
1.35467
0.140028
1.38647e-08
2.37267e-09
2.23526e-10
2.55309e-10
3.40707e-10
3.79576e-10
7.18957e-10
1.35796e-10
1.2244e-10
3.27832e-11
2.11695e-10
2.7529e-10
2.74767e-10
7.05687e-10
3.12581e-10
5.51125e-11
6.54813e-11
5.42093e-10
4.50652e-10
3.77364e-08
1.07528e-08
3.27309e-07
1.07118e-06
2.14996e-06
1.03249e-05
0.0224906
10.943
748.686
4168
814.601
917.729
898.499
285.632
186.415
128.13
22.5369
9.9133
18.5677
4.08429
41.2874
106.671
95.6149
62.9359
48.5771
39.04
32.546
28.9847
27.4819
27.25
27.6847
28.2982
28.0124
26.3004
22.4007
15.742
8.96418
4.12299
1.34002
0.138561
1.41766e-08
2.05186e-09
2.43392e-10
3.17503e-10
4.20762e-10
5.07617e-10
1.93158e-10
1.80796e-10
1.73765e-10
1.88654e-10
2.07881e-10
1.06942e-10
5.99315e-10
5.15398e-10
2.38815e-10
4.80951e-10
5.44553e-10
3.22812e-10
6.5425e-10
4.1419e-08
2.14827e-08
3.03128e-07
1.18749e-06
2.40438e-06
2.41713e-06
0.00109985
1.26276
201.386
3206.18
2599.01
401.331
1225.01
462.912
225.086
171.681
47.8409
9.06291
24.7989
9.77786
8.83101
68.4877
109.016
80.7592
55.8485
44.4514
35.8508
30.4276
27.621
26.5745
26.6155
27.2126
27.9069
27.6729
26.0483
22.1682
15.5578
8.85698
4.07687
1.32572
0.137125
1.34926e-08
1.63272e-09
1.67287e-10
4.96998e-10
1.74313e-10
1.73927e-10
3.6345e-10
5.17217e-11
1.50266e-10
8.57581e-11
2.0864e-10
8.89905e-10
3.00253e-10
1.6131e-10
3.58127e-10
1.74044e-10
4.84879e-10
1.32462e-09
5.89569e-10
4.18684e-08
3.72097e-08
2.6474e-07
1.25201e-06
2.8322e-06
1.47857e-06
4.7405e-05
0.0971225
37.0807
1580.08
4440.33
309.013
1310.91
768.97
292.307
216.727
86.6512
6.35796
27.9631
18.3819
2.35053
25.8747
91.9892
100.456
68.3436
50.7869
40.5478
33.0719
28.6194
26.4419
25.7756
26.0493
26.7777
27.5344
27.3569
25.8078
21.9445
15.3789
8.75511
4.03183
1.31175
0.135744
1.20917e-08
1.47083e-09
3.85681e-10
2.2308e-10
4.39194e-10
1.60557e-10
2.07062e-10
3.54173e-10
2.53899e-10
2.57163e-10
4.49666e-10
3.79667e-10
6.22521e-11
6.0229e-10
7.74528e-10
4.89725e-10
1.20444e-09
7.44286e-10
6.48426e-10
3.88661e-08
5.02858e-08
2.11483e-07
1.21638e-06
3.16499e-06
1.47756e-06
3.5375e-05
0.00474767
4.60289
504.334
4466.38
1679.81
806.799
1223.79
427.372
263.323
141.74
7.88966
26.7904
25.754
6.34605
4.84242
49.4339
104
87.3254
58.582
46.3522
37.0693
30.6814
27.0662
25.415
25.0713
25.5383
26.369
27.1885
27.0582
25.5795
21.7283
15.2087
8.65571
3.98793
1.29831
0.134378
1.02594e-08
1.03967e-09
2.86231e-10
3.12479e-10
2.10088e-10
1.00624e-10
8.18189e-11
1.82191e-10
2.88635e-10
3.28994e-10
2.76319e-10
2.03246e-10
3.58296e-10
3.68039e-10
8.43209e-10
9.85259e-10
4.47605e-10
7.8193e-10
7.39399e-10
3.33562e-08
5.75226e-08
1.50322e-07
1.09852e-06
3.27946e-06
2.75425e-06
3.02782e-05
0.000201075
0.371046
105.488
2734.3
4057.47
97.9377
1551.29
699.668
322.573
205.235
21.3506
23.1275
33.1223
12.4017
3.15074
16.261
75.3821
102.831
74.2019
53.1025
42.356
33.9875
28.6262
25.725
24.5184
24.4464
25.0658
25.9921
26.8634
26.7774
25.362
21.522
15.0429
8.559
3.94572
1.28504
0.133076
7.65031e-09
5.62007e-10
3.50176e-10
3.47764e-10
3.79457e-10
5.31735e-10
2.32108e-10
4.69334e-10
6.40757e-10
3.02601e-10
2.68728e-10
5.32451e-10
3.42151e-10
1.10339e-10
8.16259e-10
5.92474e-10
5.43722e-10
8.73089e-10
7.71957e-10
2.66306e-08
5.70519e-08
9.57926e-08
9.08506e-07
3.11458e-06
4.33975e-06
2.15501e-05
0.000130007
0.0185178
14.3684
1046.82
5386.56
972.564
1336.31
1162.4
421.504
271.811
56.1819
16.1616
36.9971
17.1308
7.45081
4.57562
34.3917
94.9257
93.1929
63.4251
48.4686
38.6171
31.2998
26.8581
24.5643
23.7341
23.879
24.6331
25.6424
26.5592
26.5136
25.155
21.3227
14.8818
8.46609
3.90411
1.27241
0.131858
5.96033e-09
5.17552e-10
3.49836e-10
4.24543e-10
3.38435e-10
1.97267e-10
4.90739e-10
2.42153e-10
4.21548e-10
1.16709e-10
3.50603e-10
5.59079e-10
8.00945e-11
4.35558e-10
6.3683e-10
1.25123e-09
6.27495e-10
1.24942e-09
1.62885e-09
1.95127e-08
4.98569e-08
6.3568e-08
6.86648e-07
2.75629e-06
5.25495e-06
1.36509e-05
0.000118909
0.000719767
1.23581
251.901
4125.88
3350.11
573.202
1607.35
640.215
339.821
126.043
5.07364
37.087
23.5528
10.3319
4.58959
10.5118
58.8758
101.995
80.5564
55.5879
44.3461
35.2383
28.9734
25.3368
23.5608
23.0345
23.3638
24.2363
25.3178
26.2758
26.2649
24.959
21.1297
14.727
8.37466
3.86461
1.26057
0.13065
4.49766e-09
3.80446e-10
5.45476e-10
4.26663e-10
4.22319e-11
6.15874e-10
2.98838e-10
3.1584e-10
3.88428e-10
4.37726e-10
5.30975e-10
1.94685e-10
5.79136e-10
3.78e-10
7.44618e-10
6.0409e-10
4.89819e-10
9.78978e-10
3.01835e-10
1.45595e-08
3.73758e-08
5.46317e-08
4.66501e-07
2.26963e-06
5.46826e-06
7.0233e-06
0.0001056
0.000292321
0.0637407
38.1447
1898.7
5611.48
371.621
1749.14
1035.17
437.743
221.766
11.4349
31.9112
32.066
11.2487
7.91495
4.35067
23.62
82.7978
97.4508
68.7842
50.7531
40.4168
32.2483
26.9699
24.032
22.68
22.4059
22.8968
23.8716
25.0181
26.0109
26.0338
24.7722
20.9443
14.5751
8.288
3.82748
1.24882
0.129467
3.03014e-09
4.33196e-10
2.11214e-10
2.7226e-10
5.84362e-10
8.42562e-11
3.51568e-10
5.20375e-10
5.24606e-10
3.04495e-10
4.17812e-10
5.5412e-10
5.75108e-10
5.37466e-10
7.04033e-10
8.65467e-10
1.25311e-09
6.32298e-10
1.8402e-09
1.02514e-08
2.62028e-08
5.10388e-08
2.59184e-07
1.71578e-06
5.28635e-06
3.94185e-06
8.18064e-05
0.00029749
0.00196745
3.5463
529.923
5370.6
2476.32
1019.8
1635.44
627.782
335.627
50.5868
20.2781
43.2732
15.7631
9.01978
5.45448
7.92251
44.3269
97.3596
86.7391
59.1897
46.421
36.8041
29.6305
25.2544
22.9018
21.898
21.8426
22.4719
23.5373
24.7416
25.7686
25.8183
24.5942
20.7635
14.4307
8.20639
3.79068
1.23735
0.128328
2.35666e-09
1.47378e-10
6.71338e-10
4.30923e-10
1.83351e-10
2.3784e-10
3.87766e-10
2.70046e-10
4.88142e-10
8.89783e-10
6.84872e-10
9.55849e-10
5.83355e-10
6.0164e-10
9.00796e-10
1.04305e-09
8.31894e-10
7.20282e-10
2.02952e-09
7.88457e-09
1.68708e-08
3.97335e-08
1.25113e-07
1.17064e-06
4.51924e-06
5.3373e-06
5.52146e-05
0.000274304
0.000331643
0.191332
89.8558
2973.52
5657.63
201.504
2012.43
1009.54
474.184
129.569
11.316
53.031
25.5854
7.90185
6.44163
5.57454
16.6692
69.0044
99.3913
74.6247
53.1613
42.4876
33.4855
27.3714
23.782
21.9105
21.2051
21.3353
22.0855
23.2329
24.4931
25.5517
25.6156
24.4234
20.5902
14.2942
8.12559
3.75487
1.22629
0.127187
1.06603e-09
6.23615e-10
4.58402e-10
2.00194e-10
3.21151e-11
5.41702e-11
6.68176e-10
2.86402e-10
5.43988e-10
9.19017e-10
7.80119e-10
7.29057e-10
6.23256e-10
5.32613e-10
1.81759e-10
3.52044e-10
8.67984e-10
1.18831e-09
1.14127e-09
4.86001e-09
1.14293e-08
2.73612e-08
6.79512e-08
6.73957e-07
3.4753e-06
7.01468e-06
2.86677e-05
0.000229898
0.000422688
0.00497796
9.0893
965.105
6435.05
1714.06
1474.4
1677.12
666.496
249.749
12.4226
57.2244
39.9626
7.95282
6.08393
7.55457
7.27196
32.6612
89.2226
92.1099
64.0605
48.6495
38.5576
30.5601
25.4367
22.5047
21.0423
20.5877
20.8778
21.7369
22.9607
24.2867
25.3493
25.4247
24.2582
20.4255
14.1595
8.04715
3.7203
1.21523
0.126071
1.27816e-09
3.54214e-10
1.62989e-10
3.56456e-10
3.11207e-10
2.71395e-10
7.36646e-10
6.6865e-10
5.74804e-10
1.36104e-09
1.12466e-10
7.76092e-10
3.40157e-10
3.81707e-10
3.88797e-10
1.00219e-09
7.79635e-10
7.68751e-10
1.2412e-09
3.07454e-09
9.12476e-09
1.77868e-08
5.18503e-08
3.08309e-07
2.39157e-06
7.02426e-06
1.14011e-05
0.000168749
0.000494152
0.00156986
0.517758
184.411
4235.67
4948.84
541.382
2231.08
1031.55
410.883
37.2189
53.2855
57.8319
11.44
4.83854
8.27805
7.54833
12.6198
55.166
98.3733
80.8042
55.5702
44.4825
34.9633
28.0295
23.7708
21.3983
20.2769
20.0356
20.4669
21.426
22.7209
24.0943
25.1608
25.24
24.1004
20.2642
14.0287
7.97139
3.68577
1.20442
0.124977
3.81904e-10
5.80424e-10
5.73509e-10
3.90365e-10
5.4535e-10
4.51565e-10
9.02485e-10
1.48776e-10
6.22316e-10
7.83673e-10
3.9876e-10
9.18576e-10
3.28057e-10
8.58611e-10
1.69199e-09
1.86475e-09
2.84635e-10
1.42655e-09
1.30287e-09
2.08148e-09
6.31252e-09
1.06083e-08
3.23781e-08
1.02861e-07
1.42104e-06
5.98667e-06
5.48335e-06
0.000106375
0.000439845
0.000461512
0.010697
20.455
1588.22
7136.04
1129.45
2024.75
1639.98
620.421
105.115
37.4908
72.8163
19.9448
4.02531
8.39579
10.5417
8.00841
23.7034
78.4925
96.0561
69.3196
50.8672
40.4925
31.7461
25.848
22.3403
20.4334
19.599
19.5415
20.0999
21.1463
22.5011
23.9157
24.9782
25.0635
23.9494
20.1073
13.9022
7.89582
3.65208
1.19381
0.123873
1.59691e-10
2.13587e-10
4.15272e-10
4.82596e-10
5.57048e-10
5.6856e-10
5.11433e-10
3.4571e-10
6.53254e-10
6.50147e-10
5.36092e-10
8.97893e-10
8.57103e-10
1.21545e-09
9.7676e-10
2.90442e-10
8.60443e-10
1.29125e-09
3.03519e-10
1.52726e-09
6.18014e-09
4.88088e-09
2.57313e-08
3.42292e-08
6.71307e-07
4.25736e-06
7.41061e-06
5.76364e-05
0.000341267
0.000509084
0.00543871
1.26077
340.973
5484.31
4548.56
833.585
2265.13
992.295
258.02
16.0796
75.968
35.1041
5.14918
8.83515
12.2475
9.14405
9.45938
42.6781
94.1139
86.7428
59.7162
46.5829
36.6859
28.9218
23.9791
21.1045
19.5878
18.9964
19.0996
19.7693
20.8915
22.3
23.7423
24.8028
24.8983
23.8026
19.9553
13.7763
7.82222
3.61902
1.18312
0.122794
3.90993e-10
2.2522e-10
3.61863e-11
2.19962e-10
8.33319e-11
5.09573e-10
4.67393e-10
1.11589e-09
1.52463e-09
3.99933e-10
4.15615e-10
4.18714e-10
7.03943e-10
1.60054e-09
1.92738e-09
1.00722e-09
4.35635e-10
1.77517e-09
2.94146e-10
8.96853e-10
4.87266e-09
4.42622e-09
2.5512e-08
2.42139e-08
2.0702e-07
2.63299e-06
8.06294e-06
2.35051e-05
0.000240039
0.000611369
0.00292118
0.02971
41.3509
2365.57
7508.01
760.854
2459.96
1641.08
525.36
25.3807
60.2104
55.5755
9.37138
9.09805
13.8578
10.5507
6.81728
17.2851
66.3455
97.8615
75.1236
53.2201
42.6115
33.1684
26.4774
22.3745
20.033
18.8433
18.4587
18.7028
19.4692
20.6599
22.1092
23.5746
24.6413
24.7393
23.6609
19.8049
13.6537
7.75
3.58574
1.17268
0.121742
1.58507e-10
6.68827e-10
6.25082e-10
5.72274e-10
6.26405e-11
9.36627e-10
8.10352e-10
1.84298e-10
9.12942e-10
1.30913e-09
1.36293e-10
5.84705e-10
1.22046e-09
1.89193e-09
1.56384e-09
1.35824e-09
3.57325e-10
1.68374e-09
1.7035e-09
9.67418e-10
1.43991e-09
5.61208e-09
1.9372e-08
2.81271e-08
1.60522e-08
1.3643e-06
6.50734e-06
7.61897e-06
0.000149309
0.000540789
0.00104495
0.0108413
2.74305
569.016
6681.87
3748.18
1465.04
2501.91
947.472
113.848
31.0187
81.3932
18.7688
9.60502
14.9394
11.5231
8.16977
7.71977
32.3526
86.7329
91.8281
64.5347
48.7958
38.5714
30.0308
24.3779
20.9965
19.1007
18.1834
17.9787
18.3441
19.1973
20.4437
21.9268
23.4211
24.4874
24.587
23.5231
19.6578
13.5334
7.67742
3.5533
1.16249
0.120682
1.08492e-10
2.43362e-10
5.96534e-10
6.14213e-11
1.07046e-09
8.43833e-10
9.32646e-10
8.18055e-10
2.36004e-10
1.04695e-09
7.1813e-10
1.75135e-09
1.19422e-09
1.14255e-09
1.71464e-09
2.32119e-10
1.15821e-09
1.32183e-09
3.33487e-10
2.11933e-10
1.68704e-09
5.66484e-09
1.06007e-08
3.88485e-08
5.08246e-08
4.81224e-07
4.33747e-06
7.12547e-06
7.64081e-05
0.000396603
0.000477106
0.0075842
0.083436
75.4594
3250.87
7698.58
278.99
2936.14
1617.64
333.129
21.2571
102.862
38.0168
9.9735
14.9883
12.8353
8.96527
6.71621
13.2374
53.9551
96.8437
81.1312
55.7599
44.6253
34.7769
27.3004
22.5843
19.8113
18.2821
17.5986
17.5466
18.0197
18.9467
20.2396
21.7612
23.2762
24.3409
24.4424
23.3881
19.5149
13.4131
7.60679
3.52164
1.15223
0.119609
9.42445e-10
2.96917e-10
7.67764e-10
3.21645e-10
1.51299e-09
1.7511e-10
9.84059e-10
9.48646e-10
1.53264e-09
7.82828e-10
5.0124e-10
1.17342e-09
3.54911e-09
2.24384e-09
7.36788e-10
2.95472e-09
1.43614e-09
2.38575e-09
1.9655e-09
4.94306e-10
3.87285e-10
4.00273e-09
2.5848e-09
3.51212e-08
1.34811e-08
4.79354e-08
2.45796e-06
7.7254e-06
3.35681e-05
0.000268844
0.000597716
0.00371313
0.0152282
5.36862
868.164
7756.49
3189.68
1781.12
2596.28
740.341
55.2222
105.781
69.7171
8.73754
13.4533
14.5931
10.5145
9.17804
8.26707
24.1032
76.8233
95.5783
69.7166
50.945
40.5651
31.3413
24.9566
21.055
18.782
17.5634
17.0752
17.1571
17.724
18.7128
20.0543
21.6075
23.139
24.2047
24.3017
23.2635
19.3736
13.2959
7.53785
3.48976
1.14186
0.11855
3.63887e-10
8.15449e-10
7.38632e-10
1.31661e-09
1.15917e-09
1.55496e-09
8.38221e-10
9.26853e-10
1.07634e-10
8.21026e-10
9.83814e-10
1.43541e-09
3.15348e-09
1.03554e-09
2.64959e-09