/*--------------------------------*- C++ -*----------------------------------*\
| =========                 |                                                 |
| \\      /  F ield         | OpenFOAM: The Open Source CFD Toolbox           |
|  \\    /   O peration     | Version:  v2012                                 |
|   \\  /    A nd           | Website:  www.openfoam.com                      |
|    \\/     M anipulation  |                                                 |
\*---------------------------------------------------------------------------*/
FoamFile
{
    version     2.0;
    format      ascii;
    class       volScalarField;
    location    "1901";
    object      Rew;
}
// * * * * * * * * * * * * * * * * * * * * * * * * * * * * * * * * * * * * * //

dimensions      [0 0 0 0 0 0 0];


internalField   nonuniform List<scalar> 
8000
(
1.78715e-18
2.29605e-14
2.46297e-13
2.11554e-14
1.51278e-13
2.27313e-13
4.38154e-18
1.85844e-13
1.39582e-13
1.62877e-16
1.06417e-14
7.60916e-14
1.71563e-13
1.36942e-12
5.07653e-16
1.30735e-14
1.40302e-13
2.10696e-13
1.00947e-12
9.07688e-13
2.45488e-16
5.51179e-18
5.74646e-14
3.8847e-13
2.0708e-18
1.67296e-12
3.40542e-12
1.55671e-12
6.48308e-18
7.07418e-14
4.77235e-13
2.54266e-13
6.85608e-13
3.5164e-16
3.36937e-16
2.0861e-12
6.07048e-15
1.30138e-13
1.95503e-13
3.12123e-13
4.20906e-13
1.78067e-15
1.17356e-12
6.40693e-12
2.70067e-12
1.49101e-14
1.06658e-13
2.40493e-13
4.14036e-16
1.03503e-12
2.52688e-12
1.44619e-12
4.4155e-16
4.97788e-12
3.40061e-12
2.2116e-17
1.7281e-16
1.03695e-16
7.06936e-13
2.71676e-16
7.1183e-16
3.548e-12
1.24391e-15
2.04094e-12
4.17634e-12
4.19497e-12
5.62831e-15
2.41132e-13
1.80749e-13
5.79505e-13
1.52142e-15
3.81482e-12
5.61329e-17
4.75382e-12
2.5055e-12
1.24856e-15
2.5796e-12
1.52521e-11
6.93371e-15
9.86937e-14
2.2217e-13
3.38092e-16
4.7957e-13
5.84932e-13
1.33731e-12
2.71741e-15
4.62068e-12
6.31055e-12
6.33555e-12
1.63047e-15
6.07494e-12
8.51862e-15
6.08505e-14
4.10513e-13
1.45976e-15
1.17774e-12
5.03683e-12
2.47181e-12
3.58493e-12
3.02818e-15
3.87972e-12
3.88199e-12
4.25337e-15
7.46514e-12
7.1738e-12
1.57077e-14
1.48996e-13
1.67819e-13
5.36188e-13
1.44662e-12
1.76668e-12
1.0109e-12
1.11253e-12
6.96273e-12
4.76399e-12
4.77649e-12
1.4038e-14
4.59264e-12
2.20563e-11
1.6787e-11
6.00744e-14
1.84139e-13
2.06081e-13
3.31097e-13
1.33428e-12
1.08327e-12
1.23743e-12
1.34675e-12
8.04504e-15
5.85274e-12
5.86989e-12
8.6796e-12
1.12583e-11
1.62549e-11
7.51217e-15
9.70888e-12
1.34245e-10
9.9637e-13
3.82892e-13
4.93525e-17
5.47431e-13
4.84098e-16
1.53437e-12
3.33594e-12
1.74346e-12
1.25709e-11
3.60871e-12
3.5584e-12
4.93074e-15
3.35383e-14
1.2668e-11
1.19657e-11
4.47735e-11
3.17776e-08
2.08011e-09
4.36718e-12
4.94e-13
6.75034e-13
8.27174e-13
9.4056e-13
2.62611e-14
2.14615e-12
6.61765e-12
2.21308e-12
7.50119e-15
4.26265e-12
1.63617e-11
2.33777e-11
7.36023e-12
1.08164e-14
3.83896e-11
0.000195158
6.46309e-07
2.67803e-09
1.12865e-11
4.05546e-13
2.01212e-12
1.16028e-12
1.25405e-12
2.6366e-14
3.47892e-15
2.72612e-12
1.8809e-11
1.56822e-11
4.99461e-12
9.56344e-12
9.03638e-12
8.43159e-12
1.56969e-11
5.8174e-11
0.0185434
0.000188327
2.49739e-06
1.66669e-09
1.82463e-11
6.22443e-13
1.41757e-12
1.55973e-12
1.6355e-12
1.77904e-14
6.68984e-12
3.32381e-12
9.61069e-12
1.64715e-14
1.17301e-11
1.66314e-11
1.04242e-11
1.93326e-11
8.95364e-12
4.93635e-11
0.377027
3.07742
0.00204771
3.09891e-06
6.62569e-11
2.77771e-11
2.61847e-12
4.74218e-15
5.97247e-12
8.18793e-12
8.24522e-12
3.45817e-15
3.90529e-12
1.5165e-11
1.702e-14
6.81188e-12
6.38509e-12
1.18041e-11
2.19703e-11
1.01184e-11
3.70565e-11
1.28205
17.1065
0.937455
0.00394677
2.06155e-06
2.22268e-09
3.64817e-11
1.13218e-12
1.54364e-14
2.49391e-12
5.07218e-12
5.01482e-12
4.84676e-12
4.61303e-12
8.89497e-12
8.37629e-12
2.35541e-11
1.45921e-11
2.70066e-11
1.24174e-11
1.14202e-11
4.68659e-15
2.66654
38.4882
8.90673
0.520411
0.00672663
2.90349e-06
4.21618e-09
3.68733e-11
3.01483e-12
3.07708e-12
4.64915e-15
6.08457e-12
1.78031e-11
2.79299e-14
3.80031e-14
2.57483e-11
9.6186e-12
2.68247e-11
2.48609e-11
3.0465e-11
2.79344e-11
1.28119e-11
2.32868e-11
4.13579
60.028
27.8822
5.15907
0.371424
0.00782276
3.61228e-06
5.76169e-09
4.65064e-11
1.1378e-11
3.79633e-12
3.74829e-12
1.09814e-11
7.75094e-14
2.17505e-14
6.33981e-12
1.77168e-11
1.10362e-11
7.39417e-15
9.365e-12
3.43007e-11
3.13294e-11
1.42322e-11
4.73971e-14
5.67767
67.3275
60.8136
16.8663
3.62403
0.293689
0.00874387
4.25389e-06
6.58606e-09
6.20868e-11
4.66892e-12
4.61376e-12
9.02939e-12
1.50743e-14
8.55529e-14
4.20084e-15
7.26218e-12
6.77665e-12
2.49706e-11
2.30716e-11
4.22598e-11
1.94139e-11
5.26475e-11
3.01228e-14
2.87935e-11
7.28848
48.883
100.49
39.5102
11.6789
2.82799
0.244781
0.00846739
4.69713e-06
6.92191e-09
5.21993e-11
5.73076e-12
5.49795e-12
5.29458e-12
5.01308e-12
9.55941e-12
9.02209e-12
2.49751e-11
2.30568e-11
1.40777e-11
2.60008e-11
2.36385e-11
2.14295e-11
1.96661e-11
3.53026e-11
3.18747e-11
8.68109
20.2435
132.223
76.4518
27.6637
8.89884
2.35056
0.212459
0.0076564
4.97701e-06
6.99529e-09
5.86806e-11
3.45675e-12
6.46872e-12
6.2551e-12
1.17839e-11
9.44798e-15
5.10595e-11
2.45876e-13
3.47855e-11
1.59258e-11
2.89739e-11
1.32273e-11
2.41589e-11
4.33647e-11
5.88068e-11
7.68618e-14
9.38027
1.78929
135.807
125.945
56.3027
20.5929
7.31122
2.03591
0.189449
0.0065362
4.99072e-06
6.91802e-09
4.88011e-11
3.92954e-12
1.14987e-13
2.87647e-11
3.36394e-11
2.4931e-11
1.14804e-11
1.09011e-11
4.89047e-11
3.56437e-11
6.4996e-11
8.50263e-14
2.69858e-11
2.40973e-11
1.73578e-10
3.89718e-11
9.06235
2.14055
107.969
169.257
102.443
41.6755
16.6078
6.28703
1.81239
0.172688
0.00528842
4.71871e-06
6.54977e-09
3.89916e-11
3.47526e-14
8.71531e-12
8.23875e-12
2.30381e-11
1.46087e-11
3.93527e-11
2.40793e-11
6.59072e-11
1.98477e-11
5.4494e-11
1.14851e-10
6.82461e-14
2.6479e-11
7.18085e-11
1.07041e-13
7.99586
0.158946
61.0257
181.976
163.853
77.9436
32.952
14.1
5.56784
1.64907
0.160642
0.00389798
4.17949e-06
5.90059e-09
5.44e-11
2.17651e-11
2.03886e-11
1.90247e-11
3.49168e-11
2.13814e-13
8.89149e-14
1.35551e-11
3.69205e-11
2.25095e-11
4.00653e-11
7.26864e-11
9.54065e-15
5.89232e-11
5.27191e-11
4.74136e-11
6.39703
1.20545
19.8675
147.539
215.793
135.146
61.0919
27.4797
12.3744
5.04517
1.53056
0.1528
0.00270044
3.46934e-06
5.02957e-09
3.63837e-11
4.48553e-14
1.16421e-11
1.07087e-11
9.82542e-12
2.37916e-13
9.15444e-14
3.01768e-11
4.09102e-11
2.45067e-11
2.22065e-11
2.88084e-13
1.74376e-13
6.48394e-11
8.71795e-11
5.22347e-11
4.66956
10.3564
4.74124
89.5759
219.77
210.587
108.038
49.9818
23.7911
11.1368
4.66503
1.45356
0.148925
0.00166582
2.70065e-06
4.05811e-09
1.45392e-11
1.41834e-11
3.95942e-11
2.42765e-11
5.57723e-11
2.02096e-11
3.74189e-11
8.42693e-11
1.56567e-11
5.50231e-11
1.90189e-14
1.11601e-10
4.09366e-13
1.78333e-10
3.18047e-11
2.41264e-13
3.11506
18.3172
8.14511
44.6308
171.475
269.208
179.586
87.6624
42.4897
21.1909
10.2412
4.41962
1.41974
0.149673
0.00100106
1.96729e-06
3.06324e-09
2.3319e-11
3.29851e-11
7.48735e-14
1.4073e-11
1.24289e-11
2.28148e-11
4.13189e-11
3.73616e-11
5.07819e-11
3.4028e-13
5.41085e-11
1.71062e-10
8.73525e-11
3.89907e-11
1.04878e-10
1.24669e-10
1.90531
21.7882
5.54916
20.3135
101.718
254.981
268.401
147.605
73.147
37.2693
19.3222
9.66389
4.32324
1.43118
0.153458
0.000613719
1.338e-06
2.22059e-09
3.70414e-11
2.78261e-11
1.69485e-11
3.12574e-11
5.54958e-11
3.36818e-13
4.55663e-11
6.27666e-11
2.54114e-13
9.99959e-11
9.06433e-11
5.38528e-11
9.63005e-11
1.7174e-10
1.14733e-10
6.80386e-11
1.0683
20.6117
18.9218
1.53669
41.1389
183.069
320.364
234.916
121.848
62.9226
33.5174
18.0946
9.45266
4.3742
1.47272
0.159747
0.000349429
8.47062e-07
1.52475e-09
7.96191e-13
3.10597e-11
3.18582e-13
1.66859e-11
4.69352e-11
5.34033e-14
5.12771e-11
4.54019e-11
1.03348e-10
7.40187e-11
1.32559e-10
1.48026e-10
5.27181e-11
2.82678e-10
4.19875e-11
2.24203e-10
0.548693
16.3628
9.98771
4.48889
12.3552
97.1543
269.815
329.322
195.4
103.024
55.4887
30.9267
17.593
9.58741
4.52079
1.53699
0.165231
0.000185344
4.97342e-07
9.56601e-10
4.6796e-12
1.1576e-11
5.92959e-13
3.65705e-13
2.80924e-13
6.89686e-13
1.40763e-10
2.49704e-11
1.13432e-10
1.21622e-10
1.81544e-10
4.26229e-13
5.75053e-11
5.18339e-11
1.36986e-10
8.07899e-11
0.25683
11.1149
12.8848
7.25995
8.09141
23.9011
170.374
348.705
294.074
161.173
88.7066
50.0221
29.4869
17.7391
9.92649
4.73297
1.5923
0.169046
8.98061e-05
2.69623e-07
5.84081e-10
5.81993e-12
5.18766e-11
6.26764e-13
2.19466e-11
5.70894e-11
6.96399e-11
4.5643e-13
1.12532e-10
7.50414e-11
1.78461e-10
3.91409e-11
3.49377e-11
1.25837e-10
2.25743e-10
5.0575e-11
2.66071e-10
0.109067
6.5602
30.4989
33.9365
5.05174
4.40919
72.3061
254.606
375.9
241.952
132.73
77.4051
46.0811
28.9999
18.1706
10.3925
4.91029
1.62836
0.171055
3.94421e-05
1.34265e-07
3.46103e-10
1.91791e-11
1.52937e-11
2.61945e-11
7.09308e-11
6.34061e-11
3.79547e-11
1.72394e-10
6.09062e-11
1.64473e-10
4.95067e-11
7.15684e-14
7.77523e-11
7.03206e-13
4.78125e-14
4.26389e-14
1.94289e-10
0.0417262
3.40165
35.8941
52.6282
2.00235
6.16649
14.1575
133.8
340.894
337.892
191.363
108.656
68.0651
43.33
28.6875
18.7738
10.763
5.01873
1.64704
0.171945
1.55397e-05
6.10532e-08
1.81166e-10
1.51184e-11
4.84173e-11
3.01355e-11
7.79484e-11
2.33853e-11
1.67928e-10
1.12684e-10
1.34417e-10
1.479e-12
1.07566e-10
4.67796e-11
4.27435e-11
7.64638e-11
1.33958e-10
4.56888e-13
5.75216e-13
0.0142136
1.55781
30.6757
37.8707
1.66143
7.5888
4.99275
47.3586
206.614
379.746
268.855
146.858
88.0518
59.8183
40.6309
28.5816
19.1974
10.9696
5.07282
1.65494
0.17172
5.42776e-06
2.51799e-08
2.47727e-11
2.48076e-12
1.81519e-11
3.2299e-11
6.97701e-13
1.02627e-10
9.30296e-11
1.24647e-10
1.11326e-10
1.65734e-10
1.16395e-10
1.05059e-10
4.5968e-11
8.21886e-11
7.27426e-11
1.30593e-10
1.14305e-10
0.00425597
0.629816
20.5675
1.41832
17.9666
5.32325
9.57794
8.08156
85.0814
288.537
345.646
198.741
110.546
70.7608
52.8933
38.3804
28.3442
19.367
11.0633
5.09307
1.65206
0.170755
1.6566e-06
9.33425e-09
2.00064e-11
2.06676e-11
1.93882e-11
3.46759e-11
6.35683e-11
8.45119e-11
1.01784e-10
9.00521e-11
8.18348e-11
3.64694e-11
1.45844e-12
1.13583e-10
2.0308e-10
1.07201e-12
8.00732e-11
1.41242e-10
1.29628e-12
0.00110233
0.22366
11.2352
35.8359
47.0455
18.7564
16.0052
2.21519
24.738
143.066
333.913
268.276
142.783
83.6286
58.7697
46.9419
36.4001
27.9742
19.4049
11.0847
5.07983
1.64202
0.169343
4.34058e-07
3.05732e-09
9.68054e-11
2.32862e-11
6.67588e-11
4.01357e-11
1.0244e-10
2.85577e-11
1.10729e-10
4.92481e-11
7.84216e-13
1.16374e-10
7.20604e-11
1.23495e-10
7.34454e-13
1.92664e-10
8.57235e-11
1.27368e-13
1.36664e-12
0.000242274
0.0690979
5.12874
48.0179
63.2634
8.41847
9.11548
7.45849
7.49656
47.3776
207.826
314.234
193.309
103.518
65.0932
49.9187
42.5783
34.8532
27.6473
19.3392
11.0372
5.04476
1.6276
0.167584
9.57116e-08
9.29684e-10
7.7672e-11
2.42297e-12
5.21523e-13
1.29242e-10
3.70464e-11
1.03993e-10
6.10132e-11
5.38877e-11
9.81592e-11
4.07803e-11
2.26395e-10
6.9413e-11
2.9903e-10
1.05402e-10
9.36002e-11
1.66571e-10
1.46025e-10
4.41274e-05
0.0182782
1.98165
39.578
41.2229
8.16198
4.03631
11.0434
0.851137
9.25182
81.7625
255.351
253.399
137.668
77.3509
55.2925
44.285
39.6511
33.709
27.2686
19.1939
10.9462
4.99597
1.61008
0.165589
1.67451e-08
9.2733e-11
5.47776e-12
2.72384e-11
1.85747e-10
4.49792e-11
4.44444e-11
3.76034e-11
1.33865e-10
5.92171e-11
1.05816e-10
2.80433e-10
8.16317e-11
2.2415e-10
6.70316e-11
2.30688e-10
1.52382e-12
1.18027e-13
2.4321e-12
6.46882e-06
0.00405824
0.649185
23.65
12.3796
32.0921
19.4336
12.3636
3.59585
2.9455
21.1285
126.997
260.035
189
100.239
64.2626
49.1862
40.7874
37.5529
32.7342
26.9015
18.9956
10.8271
4.93848
1.59043
0.16364
2.504e-09
3.68191e-11
7.571e-11
1.29824e-10
2.77145e-11
5.11137e-11
1.41375e-10
8.47769e-11
1.44618e-10
1.31888e-10
1.15968e-10
1.03516e-10
1.84041e-10
1.58776e-10
2.86296e-10
1.26031e-10
1.10678e-10
2.95135e-10
1.75348e-10
7.38638e-07
0.000737311
0.179031
10.9224
53.1091
64.8586
24.4785
8.64333
3.2217
1.70638
4.29728
38.5951
170.16
230.098
138.643
76.5436
56.5216
44.6786
38.4044
36.0177
31.9659
26.5228
18.7634
10.6919
4.87487
1.57128
0.161726
4.0037e-11
2.36314e-11
1.94811e-10
3.78264e-11
1.89063e-10
2.50041e-12
1.02242e-10
9.09621e-11
7.84532e-11
7.4286e-11
6.26835e-11
3.92381e-10
2.04347e-10
8.95119e-11
2.30249e-10
1.37454e-10
1.2087e-10
1.04749e-10
1.89503e-10
6.17407e-08
0.000106245
0.0409436
4.03521
56.3153
66.8937
8.13979
4.66091
3.1525
0.995985
0.204706
8.05781
63.7214
194.802
186.162
102.946
65.5652
50.5843
41.3309
36.6162
34.8667
31.2833
26.1411
18.5139
10.5449
4.81305
1.55229
0.159703
3.84004e-10
2.10918e-10
3.3197e-12
1.57111e-10
3.21274e-11
6.30311e-11
1.65713e-10
1.47223e-10
1.96983e-13
8.03073e-11
2.73587e-10
1.18968e-10
1.04912e-10
1.90965e-10
1.25005e-12
1.46869e-10
3.94145e-10
1.17429e-10
2.02621e-10
6.26752e-09
1.16935e-05
0.0075743
1.20648
36.5393
11.1622
20.6265
17.5222
10.9311
2.97667
1.79207
1.03569
12.4236
97.9823
196.172
143.622
79.8939
57.7422
45.9291
38.7342
35.2371
33.9317
30.662
25.7621
18.2505
10.4028
4.7514
1.53235
0.157652
4.99885e-10
1.8735e-14
1.4604e-10
8.44866e-11
3.47858e-11
6.76767e-11
6.08154e-11
3.6887e-12
1.24725e-12
2.53945e-10
3.33063e-12
2.63143e-10
1.17945e-10
2.04354e-10
2.71986e-10
3.24945e-10
2.84541e-10
1.25362e-10
3.737e-12
3.49348e-10
9.35808e-07
0.00109831
0.291253
16.7907
54.6257
63.0135
40.6387
12.1399
3.44167
1.71202
2.0211
3.09362
26.3448
127.942
176.893
109.579
67.1683
51.8592
42.1817
36.7156
34.2048
33.1381
30.0888
25.3802
17.9965
10.2611
4.68727
1.51225
0.155623
4.91812e-11
1.55651e-10
1.0529e-10
9.43094e-11
8.12322e-11
7.15354e-11
1.65477e-12
4.47357e-12
1.01266e-10
2.54781e-12
7.65269e-11
2.17127e-10
2.50428e-10
3.39294e-10
1.4145e-13
1.75223e-10
1.54928e-10
2.73357e-10
2.4313e-10
2.98416e-10
6.73648e-08
0.000119964
0.055841
5.80081
70.6862
83.5361
10.908
9.92049
0.534879
6.09766
0.128152
1.64573
0.326867
47.6079
149.536
146.645
85.8143
59.215
46.897
39.2226
35.116
33.3736
32.4377
29.5363
25.0138
17.7465
10.1155
4.62303
1.49242
0.153687
2.36662e-10
8.15745e-13
7.53001e-11
1.54585e-10
4.35879e-12
4.89183e-13
6.95457e-11
2.52775e-10
1.15503e-10
1.96459e-10
2.69343e-10
8.28784e-11
4.2332e-10
1.27968e-10
2.12865e-10
1.90445e-10
1.68869e-10
1.48722e-10
2.58963e-10
1.13189e-09
4.64369e-09
9.4471e-06
0.00825762
1.54083
46.9834
24.1945
15.5585
18.9787
14.1006
8.0459
4.61691
2.20553
0.227574
10.1516
70.9757
154.19
117.086
69.5796
52.9843
42.9059
36.8398
33.8074
32.6531
31.7803
29.0121
24.6634
17.4957
9.9709
4.55979
1.47345
0.151758
7.68154e-11
7.48896e-12
2.06679e-10
1.07676e-12
4.19045e-12
1.73515e-10
8.49279e-11
1.36856e-10
1.94199e-12
2.20653e-10
8.92929e-11
2.49538e-10
4.04327e-12
2.60964e-10
1.14011e-10
4.23817e-13
1.80253e-10
1.25527e-12
1.19227e-13
8.81657e-10
7.09478e-10
5.06795e-07
0.000905748
0.314559
20.4498
59.8881
70.9626
46.5329
14.5387
3.5163
8.13333
2.32124
2.18434
3.49892
19.3307
99.9805
142.649
92.8603
61.0072
48.067
39.6103
34.8815
32.7175
31.9843
31.1561
28.5256
24.3378
17.2496
9.82902
4.49924
1.45453
0.149874
1.37869e-10
2.25863e-11
7.36978e-11
5.74225e-11
2.18952e-10
9.85709e-11
7.83253e-11
2.24751e-10
1.43003e-10
2.77999e-12
6.09261e-10
8.78796e-12
3.28962e-10
9.67922e-13
4.60435e-12
4.478e-10
3.28506e-12
2.88665e-12
3.01876e-10
2.32827e-11
8.80722e-09
4.11034e-08
7.01525e-05
0.0483914
6.32348
81.3437
95.0822
11.7479
15.795
1.56017
8.34822
6.5637
0.480778
2.53054
3.20194
35.1007
122.275
122.014
75.4168
54.648
43.8009
36.8735
33.2735
31.766
31.3412
30.5716
28.1443
24.0253
17.0096
9.69327
4.439
1.43615
0.148116
4.24518e-10
5.74094e-11
6.42799e-11
7.77931e-11
1.23037e-10
1.06197e-10
8.83576e-11
1.97475e-13
1.37397e-10
3.73315e-10
2.46686e-10
3.06971e-10
1.7715e-10
3.13048e-10
5.5553e-10
9.71602e-13
2.18216e-10
1.874e-10
3.374e-10
2.13969e-10
6.054e-09
3.96764e-09
3.6318e-06
0.00541157
1.42664
50.9306
17.0766
22.0018
20.157
19.8752
8.12309
8.09463
4.67982
0.117848
2.46529
5.94092
60.9345
129.636
100.325
63.3885
49.4662
40.194
34.6182
31.9142
30.9066
30.7271
30.0592
27.7896
23.7251
16.7803
9.55867
4.38079
1.41893
0.146386
1.88343e-10
1.07596e-10
1.90153e-11
7.26749e-11
6.96936e-11
1.25575e-10
9.35626e-11
9.18638e-11
3.10424e-10
1.47155e-10
4.95764e-10
5.29895e-13
1.92731e-10
3.37722e-10
4.31207e-10
6.75034e-12
2.26529e-10
2.02348e-10
3.55376e-10
4.99333e-10
4.78743e-09
1.83033e-08
6.88355e-08
0.000419496
0.234138
19.725
77.3689
86.0685
59.4142
19.3562
1.9441
8.74773
6.4133
3.75924
0.0620252
2.12916
15.6005
89.2603
122.103
81.998
56.7038
45.0593
37.1593
32.7304
30.7339
30.1173
30.1628
29.5891
27.4572
23.4397
16.5544
9.42918
4.3261
1.402
0.144722
6.28543e-11
8.72676e-11
7.01982e-11
8.23037e-11
6.18442e-11
1.23583e-10
1.14275e-10
2.9115e-10
3.27266e-10
1.54991e-10
3.5953e-12
9.32652e-12
4.0516e-10
1.7634e-10
1.60161e-10
2.74656e-10
2.45968e-10
2.22866e-10
3.84052e-10
5.48802e-10
5.13315e-09
2.07831e-08
9.41695e-08
2.11725e-05
0.0272218
5.16861
88.5139
96.3144
20.7505
14.2426
5.29908
8.38768
6.85685
6.21065
4.6905
1.40624
0.242449
34.1718
110.225
106.276
68.2946
51.2548
41.2008
34.6006
31.125
29.6836
29.4096
29.6433
29.1533
27.145
23.1628
16.3373
9.30733
4.27243
1.38578
0.143112
5.29649e-11
2.09935e-10
1.87638e-10
9.15748e-11
3.14856e-13
2.14797e-11
4.81816e-10
2.05882e-10
1.72196e-10
1.71073e-10
1.43651e-10
3.81443e-10
2.49504e-10
4.18516e-12
1.68044e-10
3.03594e-10
2.78164e-10
4.83667e-10
8.36303e-10
3.24414e-10
2.20793e-09
1.45288e-08
3.20151e-08
3.6194e-07
0.00214163
0.937276
47.1542
7.71738
45.252
25.9071
26.5795
7.04609
7.56173
6.47881
5.18176
2.72034
1.0505
4.90194
61.0154
116.476
89.0109
59.1423
46.6892
37.862
32.4384
29.7274
28.7644
28.7768
29.1617
28.7478
26.8504
22.8964
16.1323
9.18797
4.22118
1.37006
0.141532
1.64351e-10
3.32657e-11
1.145e-10
9.51193e-12
1.43192e-10
4.6656e-10
2.59433e-10
5.43332e-10
1.06801e-11
1.7035e-10
1.67054e-10
6.14193e-12
2.5002e-10
2.07256e-10
3.85498e-10
3.47094e-10
3.09035e-10
2.84677e-10
8.92117e-10
4.85116e-10
4.65773e-10
7.97191e-09
3.60081e-10
2.64393e-07
0.000107728
0.116273
15.1218
96.3041
102.138
61.3291
25.3279
0.861638
7.83361
6.11548
4.79209
7.41995
1.96994
0.998745
17.2743
88.0878
109.325
74.2628
53.4097
42.6092
35.0108
30.5786
28.5217
27.9611
28.205
28.7134
28.3702
26.5682
22.6439
15.9324
9.07432
4.17149
1.35467
0.140028
2.10807e-10
2.09875e-10
1.18788e-10
1.95372e-10
3.84109e-10
3.02767e-10
6.8527e-10
1.25474e-10
5.60778e-12
1.19112e-11
1.45638e-10
2.37708e-12
2.69642e-10
6.98921e-10
1.90882e-10
2.24399e-11
7.54131e-12
5.78323e-10
8.14054e-12
1.35407e-09
1.28577e-09
3.95018e-09
3.4445e-08
1.09029e-07
3.91498e-06
0.0094995
3.14533
82.7287
66.646
32.6543
0.85498
13.6658
7.51933
6.18745
5.36083
8.47371
5.42906
1.95521
0.487356
38.9484
105.537
95.4168
62.902
48.5712
39.04
32.5461
28.985
27.4823
27.2503
27.6848
28.2982
28.0124
26.3004
22.4007
15.742
8.96418
4.12299
1.34002
0.138561
4.99336e-10
6.57528e-11
1.90622e-11
3.54547e-10
3.70867e-10
5.50051e-10
1.70578e-10
1.10727e-10
1.46705e-12
2.40465e-10
1.97951e-10
5.3211e-12
5.57432e-10
4.9224e-10
2.07769e-10
3.81556e-10
2.96181e-12
2.93658e-10
5.22028e-10
1.51789e-09
2.72057e-09
5.35118e-10
7.83129e-08
6.89853e-08
4.39277e-07
0.000489594
0.428272
34.6632
57.5653
77.7651
47.9545
26.5303
3.14752
7.22114
4.4669
6.46254
6.21765
6.00126
0.83539
7.83196
66.2916
108.431
80.661
55.8329
44.4496
35.8501
30.4279
27.6214
26.5749
26.6157
27.2128
27.907
27.673
26.0483
22.1682
15.5578
8.85698
4.07687
1.32572
0.137125
1.23699e-10
1.37353e-10
1.41426e-10
4.70712e-10
2.48357e-10
1.87909e-12
3.13968e-10
3.23852e-12
8.25666e-12
2.54149e-11
1.89678e-10
8.65548e-10
3.27054e-10
2.75944e-11
2.17157e-12
1.30883e-11
3.76878e-10
1.29821e-09
5.77019e-10
9.29862e-10
4.34593e-09
5.56364e-09
7.20024e-08
1.1187e-07
1.31383e-07
1.78171e-05
0.0371718
8.61656
106.52
106.08
42.8723
30.9274
4.31174
7.26837
4.81475
5.28461
5.72283
7.58714
4.62271
0.321353
23.4288
90.5532
100.156
68.3014
50.7799
40.5453
33.0718
28.6199
26.4424
25.7759
26.0495
26.7779
27.5345
27.357
25.8078
21.9445
15.3789
8.75512
4.03183
1.31175
0.135744
8.66947e-11
2.406e-10
2.93423e-10
1.45853e-10
3.10934e-10
2.51955e-10
4.76093e-12
2.95389e-10
3.17602e-12
2.6119e-10
4.36842e-10
3.80849e-10
1.91715e-11
5.76136e-10
7.84013e-10
4.35411e-10
1.22401e-09
7.22482e-10
6.20767e-10
7.168e-10
4.83531e-09
1.05567e-08
2.92126e-08
9.94288e-08
4.17312e-07
7.32444e-07
0.00198294
1.32904
62.1748
6.46947
48.3173
28.4663
28.279
6.71046
5.89447
3.12872
6.76013
6.75432
7.47902
3.18392
3.9763
47.0128
103.179
87.1993
58.5593
46.3455
37.0684
30.6817
27.0667
25.4153
25.0716
25.5385
26.3692
27.1886
27.0583
25.5795
21.7283
15.2087
8.65571
3.98793
1.29831
0.134378
4.43222e-11
3.71935e-10
1.41774e-10
1.54079e-10
6.15513e-11
1.82389e-11
1.62627e-11
1.77369e-11
1.84992e-11
2.78989e-10
2.19999e-10
2.11248e-10
3.76076e-10
3.32382e-10
8.51277e-10
1.00208e-09
4.27739e-10
7.94275e-10
6.51101e-10
1.33038e-09
4.39518e-09
1.13436e-08
2.32028e-09
1.23965e-07
7.48847e-07
1.29945e-06
8.66e-05
0.125919
18.9184
116.665
115.079
87.9397
25.4566
0.385268
7.09629
1.86882
7.12773
5.40289
7.75924
6.8098
2.42461
13.753
73.6698
102.44
74.1297
53.0866
42.3529
33.9874
28.6267
25.7255
24.5187
24.4467
25.066
25.9922
26.8635
26.7774
25.362
21.522
15.0429
8.559
3.94572
1.28504
0.133076
1.04474e-10
1.14747e-10
5.00647e-11
2.75901e-10
2.71026e-10
4.23866e-10
3.12835e-11
3.8737e-10
6.81301e-10
2.71441e-10
2.39743e-10
2.1481e-10
3.73675e-11
5.11852e-11
5.97828e-10
5.06788e-10
4.78098e-10
8.03266e-10
7.33278e-10
5.44221e-10
3.52912e-09
8.9522e-09
2.51123e-09
1.43834e-07
7.59564e-07
1.62521e-06
2.76526e-05
0.00696499
3.36265
98.8374
79.4094
44.3982
8.70728
12.1716
8.97136
2.25618
5.62956
3.63772
7.32756
7.92822
6.15901
3.49025
32.0034
93.89
92.9789
63.3873
48.4605
38.6156
31.3002
26.8585
24.5647
23.7345
23.8792
24.6332
25.6424
26.5593
26.5136
25.155
21.3227
14.8818
8.46609
3.90411
1.27241
0.131858
1.68307e-11
4.95028e-11
3.99444e-10
1.6534e-10
2.46882e-10
5.01801e-11
2.51597e-10
6.98809e-11
3.30593e-10
3.93256e-11
2.48767e-10
3.91142e-12
2.46428e-11
3.71309e-10
6.89438e-10
1.1201e-09
5.09533e-10
8.97418e-10
1.53918e-09
2.93784e-10
1.99614e-09
6.58334e-09
1.73169e-09
1.1874e-07
6.71489e-07
1.99659e-06
2.28748e-05
0.000211204
0.352367
37.3553
74.2238
92.5665
53.8071
30.7867
5.72678
5.46215
2.33116
3.33365
6.48106
7.52044
7.94956
4.37931
8.65744
56.9615
101.408
80.4529
55.5668
44.3414
35.238
28.9738
25.3373
23.5614
23.0348
23.3639
24.2364
25.3179
26.2758
26.265
24.959
21.1297
14.727
8.37466
3.86461
1.26057
0.13065
2.31675e-10
2.62945e-10
4.31027e-10
3.74879e-10
1.56671e-11
5.50205e-10
2.58008e-10
2.49135e-12
3.73645e-10
3.07778e-10
2.70067e-10
4.20237e-12
4.7131e-10
4.29101e-10
7.06375e-10
6.76365e-10
4.50598e-11
9.93829e-10
3.39243e-11
4.59494e-11
7.28742e-10
3.91473e-09
1.58345e-09
6.41588e-08
5.18806e-07
1.97963e-06
3.64224e-06
3.53641e-05
0.0210526
7.69459
120.46
90.8716
69.5931
39.2871
3.92837
9.04676
1.57366
5.45147
5.44393
7.32314
6.62096
7.75414
4.34874
21.3496
81.4624
97.1455
68.7259
50.7413
40.4147
32.2483
26.9703
24.0327
22.6804
22.4061
22.897
23.8717
25.0182
26.0109
26.0338
24.7722
20.9443
14.5751
8.288
3.82748
1.24882
0.129467
4.35037e-10
2.75893e-10
2.99373e-10
1.87432e-10
4.9821e-10
6.53795e-11
4.31534e-11
4.26118e-10
4.09664e-10
2.16957e-11
3.01985e-10
6.09407e-10
4.16625e-10
1.59187e-11
8.37049e-10
6.84398e-10
1.17022e-09
5.10151e-10
1.85448e-09
2.89035e-10
8.47753e-11
1.22019e-09
2.5136e-09
3.87307e-08
3.21538e-07
1.18418e-06
2.84255e-06
4.30194e-05
0.00084257
0.896611
60.0195
38.7159
73.4527
34.6813
37.6248
7.64944
5.67596
5.95941
3.25677
6.71479
5.40304
8.73472
6.37864
6.54801
42.2524
96.5404
86.5764
59.1601
46.4147
36.8029
29.6307
25.2552
22.9023
21.8983
21.8428
22.472
23.5374
24.7417
25.7686
25.8183
24.5942
20.7635
14.4307
8.20639
3.79068
1.23735
0.128328
3.07804e-10
3.31478e-11
7.58968e-10
4.1818e-10
1.87104e-10
2.36467e-11
3.00032e-10
3.04689e-10
4.0826e-10
7.40108e-10
7.16493e-10
8.86898e-10
4.91465e-10
4.50613e-10
7.61343e-10
7.24965e-10
6.55607e-10
6.05956e-10
1.97109e-09
5.44794e-10
4.74318e-10
9.66877e-10
4.4122e-10
1.92688e-08
1.95421e-07
7.17956e-07
3.28284e-06
3.29272e-05
0.000151516
0.0573424
14.6751
138.597
116.28
117.721
39.69
2.75111
6.18583
7.46241
2.41146
5.34806
5.0668
7.01571
7.72623
5.18592
14.6395
67.322
98.9457
74.5442
53.1454
42.4838
33.485
27.3722
23.7825
21.9109
21.2054
21.3355
22.0856
23.233
24.4932
25.5517
25.6156
24.4235
20.5902
14.2942
8.12559
3.75487
1.22629
0.127187
1.78958e-10
3.92314e-11
2.40872e-10
2.6173e-10
3.17453e-11
2.75302e-11
6.15412e-10
3.04572e-10
4.61533e-10
7.94745e-10
7.63294e-10
6.03257e-10
5.72476e-10
5.24081e-10
1.55445e-11
2.95381e-11
6.8204e-10
1.26475e-09
1.0791e-09
2.46627e-10
9.27627e-10
9.38936e-10
1.51063e-10
3.26384e-10
9.78054e-08
6.10017e-07
2.28408e-06
2.04408e-05
0.000198498
0.00229925
1.93795
88.9094
19.6201
86.3218
13.6946
24.754
8.5937
4.43066
6.05464
4.70539
4.52846
5.31018
7.60283
7.41203
6.15165
30.3135
88.1544
91.8834
64.0194
48.6396
38.5552
30.5607
25.4372
22.5051
21.0426
20.5879
20.878
21.737
22.9607
24.2868
25.3493
25.4247
24.2582
20.4255
14.1595
8.04715
3.7203
1.21523
0.126071
2.43173e-10
3.11845e-10
1.09499e-10
7.49966e-11
1.6912e-11
1.18474e-11
7.068e-10
6.02193e-10
5.06596e-10
1.44668e-09
4.57354e-11
7.17147e-10
3.88451e-11
4.3456e-11
6.56344e-11
7.37674e-10
7.3414e-10
5.90151e-10
1.14323e-09
9.11272e-11
9.55032e-10
6.11817e-10
2.30384e-09
5.17924e-09
9.30639e-09
3.75302e-07
1.46594e-06
1.20384e-05
7.92225e-05
0.000121611
0.139039
25.5457
127.139
118.876
93.6263
33.682
0.94824
3.16728
7.6175
5.63798
4.94197
3.82088
6.21595
7.59963
5.9831
10.4362
53.301
97.763
80.6903
55.5448
44.4761
34.9631
28.0299
23.7712
21.3987
20.2771
20.0358
20.467
21.4261
22.721
24.0943
25.1608
25.24
24.1004
20.2642
14.0287
7.97139
3.68577
1.20442
0.124977
4.35631e-10
7.0237e-11
2.34553e-10
1.43929e-11
5.09705e-10
3.84321e-10
3.2702e-10
1.9001e-12
6.61684e-10
2.6182e-11
8.07243e-11
7.92733e-10
1.16797e-10
5.81287e-10
1.47501e-09
1.83719e-09
1.05093e-14
1.43454e-09
1.22946e-09
3.55361e-10
1.34948e-10
6.89868e-10
5.57999e-09
4.28507e-09
2.38312e-08
1.52993e-07
5.12884e-07
2.64559e-06
2.84112e-05
0.00013887
0.00648606
3.76433
114.391
52.8945
82.2209
19.0126
15.8825
4.72655
6.98521
2.77671
7.3378
3.9232
4.65609
6.40448
7.52117
6.38092
21.622
77.1668
95.7368
69.251
50.8525
40.4904
31.7459
25.8483
22.3407
20.4337
19.5993
19.5416
20.1
21.1464
22.5012
23.9157
24.9782
25.0635
23.9494
20.1073
13.9022
7.89582
3.65208
1.19381
0.123873
2.79945e-10
5.6855e-11
3.15798e-10
3.26683e-10
4.89349e-10
4.24109e-10
2.93726e-10
3.5022e-10
6.29682e-10
5.99467e-10
5.31536e-10
7.70173e-10
7.27125e-10
1.36829e-09
2.69508e-11
1.7715e-11
9.64023e-10
7.98505e-10
8.94714e-11
9.2859e-11
4.03902e-10
6.81415e-11
4.43409e-09
1.07029e-08
2.3631e-08
4.966e-08
3.76281e-07
2.59318e-06
1.7476e-05
0.000184062
0.000605534
0.289484
39.3774
110.86
121.57
71.5577
40.9277
0.639351
6.99459
1.36043
7.16049
6.4417
4.21294
5.09285
6.8623
7.09178
8.30813
40.7455
93.2977
86.5608
59.6826
46.5763
36.6842
28.9217
23.9795
21.1048
19.5881
18.9966
19.0997
19.7694
20.8915
22.3001
23.7424
24.8028
24.8983
23.8026
19.9553
13.7763
7.82222
3.61902
1.18312
0.122794
1.49417e-10
2.97332e-12
4.95318e-14
9.94827e-11
1.44443e-11
4.59373e-10
3.96994e-10
1.57808e-11
1.2018e-09
2.99718e-11
1.64724e-10
3.39148e-11
8.86515e-10
1.37292e-09
1.88425e-09
1.16825e-09
1.65145e-11
1.6465e-09
2.07204e-11
2.09967e-10
6.16758e-10
2.86856e-10
2.94884e-09
5.66725e-09
4.84424e-09
3.82414e-08
2.85192e-07
1.3448e-06
9.54753e-06
0.000112738
0.000127578
0.0128974
6.55087
134.553
84.4614
98.1157
35.2918
14.1771
6.12127
7.43215
5.30289
7.72049
5.18295
4.51722
5.66685
7.19862
6.09376
15.6327
64.7257
97.3855
75.037
53.2026
42.6066
33.1675
26.4777
22.3748
20.0334
18.8436
18.4589
18.703
19.4693
20.66
22.1092
23.5746
24.6413
24.7393
23.6609
19.8049
13.6537
7.75
3.58574
1.17268
0.121742
7.71783e-11
1.81628e-10
1.22597e-10
3.6976e-10
4.04056e-11
5.11174e-10
4.75357e-10
6.84091e-11
6.74495e-10
1.22382e-09
3.20407e-12
4.21601e-10
8.21118e-10
1.1839e-09
1.29859e-09
1.16271e-09
1.54655e-10
8.83531e-10
1.56209e-09
1.77113e-10
4.04822e-10
1.15387e-09
3.30545e-10
6.30596e-09
6.05839e-09
7.16082e-08
4.18076e-08
4.7715e-07
3.66917e-06
3.90553e-05
2.85138e-05
0.00154608
0.545621
55.0185
93.2592
122.548
62.038
39.4272
0.507894
9.26141
3.76434
8.1865
5.75701
5.44551
4.61998
6.08228
7.07772
7.16792
30.1847
85.6448
91.5902
64.4878
48.7841
38.5682
30.0305
24.3781
20.9969
19.1011
18.1836
17.9788
18.3442
19.1974
20.4438
21.9269
23.4211
24.4874
24.587
23.5231
19.6578
13.5334
7.67742
3.5533
1.16249
0.120682
4.10027e-11
8.12455e-11
7.92874e-12
4.65033e-11
9.61774e-10
1.37507e-10
4.83011e-10
5.0292e-10
1.95409e-10
5.92042e-10
4.92274e-10
1.65927e-09
6.94244e-10
6.06783e-10
1.33556e-09
5.78773e-11
1.1505e-09
1.10421e-09
1.16843e-10
1.1389e-11
3.56328e-10
4.74967e-10
7.76262e-10
5.74841e-09
2.59672e-11
3.77334e-08
8.05043e-08
4.18556e-07
2.87531e-06
6.58443e-06
9.24821e-05
0.000538267
0.0247675
10.2203
150.83
108.521
113.915
38.9915
8.01722
5.17359
2.83254
7.86063
6.32053
6.6146
4.80246
4.7699
6.34222
5.55555
11.2765
52.1285
96.2167
81.0042
55.7319
44.6174
34.7754
27.3002
22.5847
19.8116
18.2824
17.5988
17.5467
18.0198
18.9468
20.2397
21.7612
23.2762
24.3409
24.4424
23.3881
19.5149
13.4131
7.60679
3.52164
1.15223
0.119609
1.67417e-10
2.20107e-10
4.97583e-10
4.69547e-10
9.61666e-10
6.55096e-11
5.30094e-10
2.85364e-10
7.63677e-10
7.10899e-10
1.41032e-10
1.29898e-09
2.79878e-09
1.69589e-09
3.22118e-11
2.62841e-09
1.07668e-09
2.06648e-09
1.73754e-09
2.53069e-10
3.58635e-10
3.29956e-10
6.78067e-10
2.64277e-09
1.23979e-08
2.68345e-08
5.23024e-08
1.65661e-07
1.49035e-06
2.49051e-06
8.38652e-05
4.11301e-05
0.00134149
0.919618
71.7615
79.3633
120.291
48.8747
39.7351
4.05837
4.97848
4.61665
6.00231
5.86869
6.36125
4.66848
4.98349
6.31564
6.35343
22.1133
75.4895
95.2389
69.6442
50.9278
40.5608
31.3402
24.9569
21.0554
18.7822
17.5636
17.0753
17.1572
17.7241
18.7129
20.0543
21.6075
23.139
24.2047
24.3017
23.2635
19.3736
13.2959
7.53785
3.48976
1.14186
0.11855
2.87164e-10
7.14872e-11
7.00152e-10
3.55434e-10
3.04654e-10
1.16619e-09
1.0759e-10
4.48831e-10
1.69982e-11
7.76757e-10
5.62381e-10
5.51746e-10