/*--------------------------------*- C++ -*----------------------------------*\
| =========                 |                                                 |
| \\      /  F ield         | OpenFOAM: The Open Source CFD Toolbox           |
|  \\    /   O peration     | Version:  v2012                                 |
|   \\  /    A nd           | Website:  www.openfoam.com                      |
|    \\/     M anipulation  |                                                 |
\*---------------------------------------------------------------------------*/
FoamFile
{
    version     2.0;
    format      ascii;
    class       volScalarField;
    location    "1901";
    object      rho;
}
// * * * * * * * * * * * * * * * * * * * * * * * * * * * * * * * * * * * * * //

dimensions      [1 -3 0 0 0 0 0];


internalField   nonuniform List<scalar> 
8000
(
0.0386129
0.0386129
0.0386129
0.0386129
0.0386129
0.0386129
0.0386129
0.0386129
0.0386129
0.0386129
0.0386129
0.0386129
0.0386129
0.0386129
0.0386129
0.0386129
0.0386129
0.0386129
0.0386129
0.0386129
0.0386129
0.0386129
0.0386129
0.0386129
0.0386129
0.0386129
0.0386129
0.0386129
0.0386129
0.0386129
0.0386129
0.0386129
0.0386129
0.0386129
0.0386129
0.0386129
0.0386129
0.0386129
0.0386129
0.0386129
0.0386129
0.0386129
0.0386129
0.0386129
0.0386129
0.0386129
0.0386129
0.0386129
0.0386129
0.0386129
0.0386129
0.0386129
0.0386129
0.0386129
0.0386129
0.0386129
0.0386129
0.0386129
0.0386129
0.0386129
0.0386129
0.0386129
0.0386129
0.0386129
0.0386129
0.0386129
0.0386129
0.0386129
0.0386129
0.0386129
0.0386129
0.0386129
0.0386129
0.0386129
0.0386129
0.0386129
0.0386129
0.0386129
0.0386129
0.0386129
0.0386129
0.0386129
0.0386129
0.0386129
0.0386129
0.0386129
0.0386129
0.0386129
0.0386129
0.0386129
0.0386129
0.0386129
0.0386129
0.0386129
0.0386129
0.0386129
0.0386129
0.0386129
0.0386129
0.0386129
0.0386129
0.0386129
0.0386129
0.0386129
0.0386129
0.0386129
0.0386129
0.0386129
0.0386129
0.0386129
0.0386129
0.0386129
0.0386129
0.0386129
0.0386129
0.0386129
0.0386129
0.0386129
0.0386129
0.0386129
0.0386129
0.0386129
0.0386129
0.0386129
0.0386129
0.0386129
0.0386129
0.0386129
0.0386129
0.0386129
0.0386129
0.0386129
0.0386129
0.0386129
0.0386129
0.0386129
0.0386129
0.0386129
0.0386129
0.0386129
0.0386129
0.0386129
0.0386129
0.0386129
0.0386129
0.0386129
0.0386129
0.0386129
0.0386129
0.0386129
0.0386129
0.0386129
0.0386129
0.0386129
0.0386129
0.0386129
0.0386129
0.0386129
0.0386129
0.0386129
0.0386129
0.0386129
0.0386129
0.0386129
0.0386129
0.0386129
0.0386129
0.0386129
0.0386129
0.0386129
0.0386129
0.0386129
0.0386129
0.0386129
0.0386129
0.0386129
0.0386129
0.0386129
0.0386129
0.0386129
0.0386129
0.0386129
0.0386129
0.0386129
0.0386129
0.0386129
0.0386129
0.0386129
0.0386129
0.0386129
0.0384998
0.0386129
0.0386129
0.0386129
0.0386129
0.0386129
0.0386129
0.0386129
0.0386129
0.0386129
0.0386129
0.0386129
0.0386129
0.0386129
0.0386129
0.0386129
0.0386129
0.0386129
0.0386129
0.0386129
0.0386456
0.0179076
0.038613
0.0386129
0.0386129
0.0386129
0.0386129
0.0386129
0.0386129
0.0386129
0.0386129
0.0386129
0.0386129
0.0386129
0.0386129
0.0386129
0.0386129
0.0386129
0.0386129
0.0386129
0.0386129
0.0386291
0.0239321
0.0134503
0.038613
0.0386129
0.0386129
0.0386129
0.0386129
0.0386129
0.0386129
0.0386129
0.0386129
0.0386129
0.0386129
0.0386129
0.0386129
0.0386129
0.0386129
0.0386129
0.0386129
0.0386129
0.0386129
0.0386377
0.0316319
0.014866
0.0117257
0.0386129
0.0386129
0.0386129
0.0386129
0.0386129
0.0386129
0.0386129
0.0386129
0.0386129
0.0386129
0.0386129
0.0386129
0.0386129
0.0386129
0.0386129
0.0386129
0.0386129
0.0386129
0.0386129
0.0386287
0.038401
0.0180996
0.0121836
0.0111619
0.0386129
0.0386129
0.0386129
0.0386129
0.0386129
0.0386129
0.0386129
0.0386129
0.0386129
0.0386129
0.0386129
0.0386129
0.0386129
0.0386129
0.0386129
0.0386129
0.0386129
0.0386129
0.0386129
0.0386269
0.0449146
0.0237069
0.0133076
0.0114035
0.0106546
0.0386129
0.0386129
0.0386129
0.0386129
0.0386129
0.0386129
0.0386129
0.0386129
0.0386129
0.0386129
0.0386129
0.0386129
0.0386129
0.0386129
0.0386129
0.0386129
0.0386129
0.0386129
0.0386129
0.0386223
0.0480498
0.0307449
0.0155468
0.0119737
0.0108111
0.0103588
0.0386129
0.0386129
0.0386129
0.0386129
0.0386129
0.0386129
0.0386129
0.0386129
0.0386129
0.0386129
0.0386129
0.0386129
0.0386129
0.0386129
0.0386129
0.0386129
0.0386129
0.0386129
0.0386129
0.0386195
0.047713
0.0383585
0.0194454
0.0130664
0.0111717
0.0104703
0.0101634
0.0386129
0.0386129
0.0386129
0.0386129
0.0386129
0.0386129
0.0386129
0.0386129
0.0386129
0.0386129
0.0386129
0.0386129
0.0386129
0.0386129
0.0386129
0.0386129
0.0386129
0.0386129
0.0386129
0.0386171
0.0459008
0.044354
0.0254096
0.0150249
0.011833
0.0107255
0.0102488
0.0100151
0.0386129
0.0386129
0.0386129
0.0386129
0.0386129
0.0386129
0.0386129
0.0386129
0.0386129
0.0386129
0.0386129
0.0386129
0.0386129
0.0386129
0.0386129
0.0386129
0.0386129
0.0386129
0.0386129
0.0386154
0.0437216
0.0488982
0.0327964
0.018392
0.0129725
0.0111845
0.0104435
0.0100838
0.00989919
0.0386129
0.0386129
0.0386129
0.0386129
0.0386129
0.0386129
0.0386129
0.0386129
0.0386129
0.0386129
0.0386129
0.0386129
0.0386129
0.0386129
0.0386129
0.0386129
0.0386129
0.0386129
0.0386129
0.0386145
0.0421009
0.0510465
0.0403137
0.0236245
0.0149179
0.0119506
0.0107896
0.0102402
0.00995688
0.00978491
0.0386129
0.0386129
0.0386129
0.0386129
0.0386129
0.0386129
0.0386129
0.0386129
0.0386129
0.0386129
0.0386129
0.0386129
0.0386129
0.0386129
0.0386129
0.0386129
0.0386129
0.0386129
0.0386129
0.0386139
0.0408887
0.0508913
0.0458912
0.0303399
0.0182171
0.0132127
0.0113555
0.0105159
0.0100878
0.00983532
0.00967009
0.0386129
0.0386129
0.0386129
0.0386129
0.0386129
0.0386129
0.0386129
0.0386129
0.0386129
0.0386129
0.0386129
0.0386129
0.0386129
0.0386129
0.0386129
0.0386129
0.0386129
0.0386129
0.0386129
0.0386134
0.0400141
0.0499313
0.0488726
0.0370758
0.0234228
0.0153215
0.0122607
0.0109605
0.0103171
0.00994947
0.00971614
0.00956891
0.0386129
0.0386129
0.0386129
0.0386129
0.0386129
0.0386129
0.0386129
0.0386129
0.0386129
0.0386129
0.0386129
0.0386129
0.0386129
0.0386129
0.0386129
0.0386129
0.0386129
0.0386129
0.0386129
0.0386132
0.0394031
0.0476796
0.0497438
0.0424701
0.0301432
0.0188683
0.0137226
0.0116569
0.0106834
0.0101484
0.00982038
0.00961291
0.00955543
0.0386129
0.0386129
0.0386129
0.0386129
0.0386129
0.0386129
0.0386129
0.0386129
0.0386129
0.0386129
0.0386129
0.0386129
0.0386129
0.0386129
0.0386129
0.0386129
0.0386129
0.0386129
0.0386129
0.038613
0.0390247
0.0455406
0.0501939
0.0459941
0.0365886
0.024411
0.016141
0.0127505
0.0112486
0.0104637
0.0100015
0.00971343
0.00959991
0.00957067
0.0386129
0.0386129
0.0386129
0.0386129
0.0386129
0.0386129
0.0386129
0.0386129
0.0386129
0.0386129
0.0386129
0.0386129
0.0386129
0.0386129
0.0386129
0.0386129
0.0386129
0.0386129
0.0386129
0.038613
0.0388116
0.0435309
0.0499419
0.0478826
0.0412098
0.0313666
0.0201746
0.0145034
0.0121176
0.0109451
0.0102875
0.00988882
0.00970194
0.00961705
0.00963547
0.0386129
0.0386129
0.0386129
0.0386129
0.0386129
0.0386129
0.0386129
0.0386129
0.0386129
0.0386129
0.0386129
0.0386129
0.0386129
0.0386129
0.0386129
0.0386129
0.0386129
0.0386129
0.0386129
0.0386129
0.0387018
0.0418348
0.0493856
0.0486858
0.0441515
0.0373327
0.0262977
0.0173855
0.0134746
0.0116735
0.0107211
0.0101664
0.00988141
0.00972441
0.00968518
0.00973615
0.0386129
0.0386129
0.0386129
0.0386129
0.0386129
0.0386129
0.0386129
0.0386129
0.0386129
0.0386129
0.0386129
0.0386129
0.0386129
0.0386129
0.0386129
0.0386129
0.0386129
0.0386129
0.0386129
0.0386129
0.0386496
0.0404888
0.0482656
0.0491006
0.0454706
0.041187
0.0332301
0.0221448
0.0156379
0.0127882
0.0113691
0.0105859
0.0101674
0.00991452
0.00980061
0.00978873
0.00981346
0.0386129
0.0386129
0.0386129
0.0386129
0.0386129
0.0386129
0.0386129
0.0386129
0.0386129
0.0386129
0.0386129
0.0386129
0.0386129
0.0386129
0.0386129
0.0386129
0.0386129
0.0386129
0.0386129
0.0386129
0.0386268
0.0395793
0.0466717
0.0490496
0.0464539
0.043137
0.0385609
0.0288897
0.0191598
0.014512
0.0123444
0.0112049
0.0105987
0.0102187
0.0100059
0.00991055
0.00986769
0.00987776
0.0386129
0.0386129
0.0386129
0.0386129
0.0386129
0.0386129
0.0386129
0.0386129
0.0386129
0.0386129
0.0386129
0.0386129
0.0386129
0.0386129
0.0386129
0.0386129
0.0386129
0.0386129
0.0386129
0.0386129
0.0386177
0.0390565
0.0447483
0.0489189
0.0472615
0.0438675
0.0414566
0.0354534
0.0247519
0.0172056
0.0138057
0.0121161
0.011226
0.0106742
0.0103345
0.0101276
0.00999358
0.00993275
0.00992657
0.0386129
0.0386129
0.0386129
0.0386129
0.0386129
0.0386129
0.0386129
0.0386129
0.0386129
0.0386129
0.0386129
0.0386129
0.0386129
0.0386129
0.0386129
0.0386129
0.0386129
0.0386129
0.0386129
0.0386129
0.0386144
0.0387952
0.0427394
0.0486038
0.0477461
0.0445402
0.0426326
0.0397328
0.0317414
0.0215174
0.0159805
0.0134358
0.0121263
0.0113208
0.0108202
0.0104739
0.0102173
0.0100604
0.00998184
0.00996694
0.0386129
0.0386129
0.0386129
0.0386129
0.0386129
0.0386129
0.0386129
0.0386129
0.0386129
0.0386129
0.0386129
0.0386129
0.0386129
0.0386129
0.0386129
0.0386129
0.0386129
0.0386129
0.0386129
0.0386129
0.0386133
0.0386799
0.04099
0.0479002
0.048214
0.0452077
0.043032
0.041631
0.0375028
0.0278691
0.0192909
0.015283
0.0133461
0.0122138
0.0114901
0.010979
0.0105727
0.0102866
0.0101097
0.0100217
0.00999785
0.0386129
0.0386129
0.0386129
0.0386129
0.0386129
0.0386129
0.0386129
0.0386129
0.0386129
0.0386129
0.0386129
0.0386129
0.0386129
0.0386129
0.0386129
0.0386129
0.0386129
0.0386129
0.0386129
0.0386129
0.038613
0.0386349
0.0397759
0.0465246
0.0482079
0.0459451
0.0433539
0.0422163
0.0405332
0.0345627
0.0244075
0.0179367
0.0149598
0.0133822
0.0123773
0.0116572
0.0110848
0.0106448
0.0103357
0.0101482
0.0100517
0.0100164
0.0386129
0.0386129
0.0386129
0.0386129
0.0386129
0.0386129
0.0386129
0.0386129
0.0386129
0.0386129
0.0386129
0.0386129
0.0386129
0.0386129
0.0386129
0.0386129
0.0386129
0.0386129
0.0386129
0.0386129
0.0386129
0.0386193
0.0390992
0.0445463
0.0481588
0.0466749
0.0437512
0.042466
0.041632
0.0390465
0.0311111
0.0219151
0.0171558
0.0148351
0.0134761
0.0125188
0.0117561
0.0111567
0.0106915
0.0103714
0.0101761
0.0100692
0.0100326
0.0386129
0.0386129
0.0386129
0.0386129
0.0386129
0.0386129
0.0386129
0.0386129
0.0386129
0.0386129
0.0386129
0.0386129
0.0386129
0.0386129
0.0386129
0.0386129
0.0386129
0.0386129
0.0386129
0.0386129
0.0386129
0.0386145
0.0387878
0.0423848
0.0478913
0.0472232
0.0442933
0.0426524
0.0419228
0.040922
0.0369115
0.0277427
0.0202895
0.0167035
0.0148107
0.0135615
0.0125961
0.0118214
0.0111965
0.0107217
0.010395
0.0101909
0.0100841
0.0100422
0.0386129
0.0386129
0.0386129
0.0386129
0.0386129
0.0386129
0.0386129
0.0386129
0.0386129
0.0386129
0.0386129
0.0386129
0.0386129
0.0386129
0.0386129
0.0386129
0.0386129
0.0386129
0.0386129
0.0386129
0.0386129
0.0386133
0.0386672
0.040593
0.0470978
0.0476502
0.044954
0.0428666
0.0420664
0.0414532
0.0399408
0.0341502
0.0249532
0.0192496
0.0164808
0.0147872
0.0135769
0.0126295
0.0118439
0.0112166
0.0107378
0.0104048
0.0102027
0.0100923
0.0100543
0.0386129
0.0386129
0.0386129
0.0386129
0.0386129
0.0386129
0.0386129
0.0386129
0.0386129
0.0386129
0.0386129
0.0386129
0.0386129
0.0386129
0.0386129
0.0386129
0.0386129
0.0386129
0.0386129
0.0386129
0.0386129
0.038613
0.0386273
0.0394616
0.0454575
0.0476317
0.0458252
0.0431666
0.0421868
0.0416242
0.0409232
0.0385213
0.0311501
0.0229313
0.0186406
0.0163052
0.0147209
0.0135629
0.0126215
0.0118459
0.0112203
0.010739
0.010411
0.0102078
0.0101032
0.0100621
0.0386129
0.0386129
0.0386129
0.0386129
0.0386129
0.0386129
0.0386129
0.0386129
0.0386129
0.0386129
0.0386129
0.0386129
0.0386129
0.0386129
0.0386129
0.0386129
0.0386129
0.0386129
0.0386129
0.0386129
0.0386129
0.0386129
0.0386162
0.0389118
0.0432545
0.0475392
0.0464474
0.043699
0.0423028
0.0417331
0.0411844
0.0402559
0.0366599
0.028239
0.0215808
0.0182101
0.0161055
0.0146357
0.0135116
0.0125949
0.0118304
0.0112082
0.0107358
0.0104102
0.0102156
0.0101097
0.0100675
0.0386129
0.0386129
0.0386129
0.0386129
0.0386129
0.0386129
0.0386129
0.0386129
0.0386129
0.0386129
0.0386129
0.0386129
0.0386129
0.0386129
0.0386129
0.0386129
0.0386129
0.0386129
0.0386129
0.0386129
0.0386129
0.0386129
0.0386135
0.0387
0.0411506
0.0470627
0.0471302
0.0443238
0.0425168
0.0418127
0.0413134
0.0406708
0.039439
0.0342521
0.0258528
0.0206681
0.017811
0.0159077
0.0145201
0.0134443
0.0125505
0.0117982
0.0111908
0.0107254
0.0104124
0.0102192
0.0101139
0.0100724
0.0386129
0.0386129
0.0386129
0.0386129
0.0386129
0.0386129
0.0386129
0.0386129
0.0386129
0.0386129
0.0386129
0.0386129
0.0386129
0.0386129
0.0386129
0.0386129
0.0386129
0.0386129
0.0386129
0.0386129
0.0386129
0.0386129
0.038613
0.0386339
0.0397035
0.045714
0.0471334
0.0452244
0.0428128
0.0419232
0.0414004
0.0408389
0.0402554
0.0383495
0.0315516
0.0240551
0.0199385
0.017445
0.0156937
0.0143965
0.0133625
0.0124906
0.011761
0.0111661
0.0107184
0.0104107
0.0102203
0.0101175
0.010076
0.0386129
0.0386129
0.0386129
0.0386129
0.0386129
0.0386129
0.0386129
0.0386129
0.0386129
0.0386129
0.0386129
0.0386129
0.0386129
0.0386129
0.0386129
0.0386129
0.0386129
0.0386129
0.0386129
0.0386129
0.0386129
0.0386129
0.0386129
0.038617
0.0389813
0.0435692
0.0470738
0.0459342
0.0433075
0.0420677
0.041494
0.040949
0.0404058
0.0398013
0.0367636
0.0288413
0.0227153
0.0193296
0.0170832
0.0154858
0.0142642
0.0132679
0.0124267
0.0117165
0.0111456
0.0107078
0.0104063
0.010221
0.0101199
0.0100807
0.0386129
0.0386129
0.0386129
0.0386129
0.0386129
0.0386129
0.0386129
0.0386129
0.0386129
0.0386129
0.0386129
0.0386129
0.0386129
0.0386129
0.0386129
0.0386129
0.0386129
0.0386129
0.0386129
0.0386129
0.0386129
0.0386129
0.0386129
0.0386135
0.0387115
0.0413272
0.0467285
0.046592
0.0439302
0.0422894
0.0416062
0.0410466
0.0405007
0.0401349
0.0392718
0.0344498
0.0266017
0.0216788
0.0187569
0.0167524
0.0152801
0.0141241
0.0131713
0.0123563
0.0116775
0.0111221
0.0106947
0.0104017
0.0102206
0.0101234
0.0100822
0.0386129
0.0386129
0.0386129
0.0386129
0.0386129
0.0386129
0.0386129
0.0386129
0.0386129
0.0386129
0.0386129
0.0386129
0.0386129
0.0386129
0.0386129
0.0386129
0.0386129
0.0386129
0.0386129
0.0386129
0.0386129
0.0386129
0.0386129
0.038613
0.0386338
0.0397377
0.0454889
0.0467093
0.0448042
0.0425803
0.0417535
0.0411603
0.0405916
0.0401937
0.0398899
0.0384154
0.0317425
0.0247817
0.0207999
0.0182534
0.0164415
0.0150758
0.0139863
0.0130698
0.0122932
0.0116366
0.0110962
0.0106815
0.0103962
0.0102214
0.0101238
0.010085
0.0386129
0.0386129
0.0386129
0.0386129
0.0386129
0.0386129
0.0386129
0.0386129
0.0386129
0.0386129
0.0386129
0.0386129
0.0386129
0.0386129
0.0386129
0.0386129
0.0386129
0.0386129
0.0386129
0.0386129
0.0386129
0.0386129
0.0386129
0.0386129
0.0386163
0.0389644
0.0433648
0.0466167
0.0455388
0.0430634
0.0419149
0.0413019
0.0406909
0.0402362
0.0399914
0.0397682
0.0367284
0.0290526
0.0233812
0.0200633
0.0177948
0.0161474
0.0148818
0.0138463
0.0129778
0.0122299
0.0115943
0.0110707
0.0106677
0.0103921
0.0102192
0.0101255
0.0100893
0.0386129
0.0386129
0.0386129
0.0386129
0.0386129
0.0386129
0.0386129
0.0386129
0.0386129
0.0386129
0.0386129
0.0386129
0.0386129
0.0386129
0.0386129
0.0386129
0.0386129
0.0386129
0.0386129
0.0386129
0.0386129
0.0386129
0.0386129
0.0386129
0.0386133
0.0386962
0.0411032
0.0463086
0.0462341
0.0436836
0.0421373
0.0414466
0.0408268
0.0403061
0.0400096
0.0399903
0.0393985
0.0341804
0.026859
0.0222734
0.0194028
0.0173763
0.0158767
0.0146914
0.0137193
0.0128876
0.012167
0.0115532
0.0110453
0.0106559
0.0103852
0.0102184
0.0101289
0.010091
0.0386129
0.0386129
0.0386129
0.0386129
0.0386129
0.0386129
0.0386129
0.0386129
0.0386129
0.0386129
0.0386129
0.0386129
0.0386129
0.0386129
0.0386129
0.0386129
0.0386129
0.0386129
0.0386129
0.0386129
0.0386129
0.0386129
0.0386129
0.0386129
0.0386129
0.0386278
0.039561
0.0449684
0.0463016
0.044595
0.0424296
0.0416055
0.0409761
0.0404053
0.0400233
0.0400038
0.0400129
0.0382527
0.0314152
0.0251033
0.0213393
0.0188159
0.0170008
0.0156193
0.0145197
0.0135967
0.0127996
0.0121065
0.011513
0.0110225
0.0106414
0.0103799
0.0102195
0.0101296
0.0100942
0.0386129
0.0386129
0.0386129
0.0386129
0.0386129
0.0386129
0.0386129
0.0386129
0.0386129
0.0386129
0.0386129
0.0386129
0.0386129
0.0386129
0.0386129
0.0386129
0.0386129
0.0386129
0.0386129
0.0386129
0.0386129
0.0386129
0.0386129
0.0386129
0.0386129
0.0386149
0.0388743
0.0427723
0.0461855
0.0452973
0.0429335
0.0417753
0.0411356
0.0405324
0.0400805
0.0399924
0.0400694
0.0398935
0.0361677
0.02889
0.0237279
0.0205322
0.0182985
0.0166538
0.0153897
0.0143566
0.0134788
0.0127157
0.0120481
0.0114764
0.0109975
0.010629
0.0103768
0.0102179
0.0101319
0.0100963
0.0386129
0.0386129
0.0386129
0.0386129
0.0386129
0.0386129
0.0386129
0.0386129
0.0386129
0.0386129
0.0386129
0.0386129
0.0386129
0.0386129
0.0386129
0.0386129
0.0386129
0.0386129
0.0386129
0.0386129
0.0386129
0.0386129
0.0386129
0.0386129
0.0386129
0.0386131
0.0386651
0.0405899
0.0457587
0.0459347
0.0435756
0.0420132
0.0412948
0.0406807
0.0401617
0.0399989
0.0400409
0.0401587
0.0392094
0.0335122
0.0268367
0.0225999
0.0198274
0.0178313
0.0163481
0.0151753
0.014202
0.0133672
0.0126355
0.0119946
0.0114382
0.010975
0.0106193
0.0103713
0.0102181
0.0101331
0.0100974
0.0386129
0.0386129
0.0386129
0.0386129
0.0386129
0.0386129
0.0386129
0.0386129
0.0386129
0.0386129
0.0386129
0.0386129
0.0386129
0.0386129
0.0386129
0.0386129
0.0386129
0.0386129
0.0386129
0.0386129
0.0386129
0.0386129
0.0386129
0.0386129
0.0386129
0.0386129
0.0386204
0.0392682
0.0441377
0.0459359
0.0445104
0.0423361
0.0414702
0.040837
0.0402596
0.0400173
0.0400259
0.0401518
0.0401192
0.0376588
0.0308719
0.0251829
0.021652
0.019201
0.0174249
0.0160675
0.0149751
0.0140573
0.0132616
0.0125618
0.0119405
0.0114033
0.0109559
0.0106074
0.0103677
0.0102173
0.0101334
0.0101002
0.0386129
0.0386129
0.0386129
0.0386129
0.0386129
0.0386129
0.0386129
0.0386129
0.0386129
0.0386129
0.0386129
0.0386129
0.0386129
0.0386129
0.0386129
0.0386129
0.0386129
0.0386129
0.0386129
0.0386129
0.0386129
0.0386129
0.0386129
0.0386129
0.0386129
0.0386129
0.0386137
0.038764
0.0418553
0.0457883
0.0451853
0.04289
0.041664
0.0410049
0.0403847
0.0400593
0.0400264
0.0401263
0.04024
0.0397573
0.0353252
0.0285605
0.0238607
0.0208213
0.0186618
0.0170578
0.0158097
0.0147897
0.0139214
0.0131646
0.0124888
0.0118906
0.0113726
0.0109352
0.0105978
0.0103632
0.0102156
0.0101354
0.0101021
0.0386129
0.0386129
0.0386129
0.0386129
0.0386129
0.0386129
0.0386129
0.0386129
0.0386129
0.0386129
0.0386129
0.0386129
0.0386129
0.0386129
0.0386129
0.0386129
0.0386129
0.0386129
0.0386129
0.0386129
0.0386129
0.0386129
0.0386129
0.0386129
0.0386129
0.0386129
0.038613
0.038637
0.0399243
0.0449827
0.0456566
0.0436167
0.0419325
0.0411766
0.0405305
0.0400971
0.0400401
0.0401119
0.0402254
0.040229
0.0386898
0.0327151
0.0266542
0.0227543
0.0201114
0.0181809
0.0167257
0.0155738
0.0146175
0.0137971
0.0130699
0.0124212
0.011846
0.0113408
0.0109172
0.0105876
0.0103581
0.0102158
0.0101365
0.0101041
0.0386129
0.0386129
0.0386129
0.0386129
0.0386129
0.0386129
0.0386129
0.0386129
0.0386129
0.0386129
0.0386129
0.0386129
0.0386129
0.0386129
0.0386129
0.0386129
0.0386129
0.0386129
0.0386129
0.0386129
0.0386129
0.0386129
0.0386129
0.0386129
0.0386129
0.0386129
0.0386129
0.0386155
0.0389696
0.043009
0.0455842
0.0444728
0.0423367
0.0413633
0.0406908
0.0401655
0.0400533
0.0401093
0.0402285
0.0402775
0.0400337
0.0368155
0.0302358
0.0251221
0.0218306
0.0194817
0.0177518
0.0164255
0.015357
0.0144608
0.0136774
0.0129822
0.0123603
0.0118011
0.0113125
0.010899
0.010577
0.010355
0.0102151
0.0101378
0.0101064
0.0386129
0.0386129
0.0386129
0.0386129
0.0386129
0.0386129
0.0386129
0.0386129
0.0386129
0.0386129
0.0386129
0.0386129
0.0386129
0.0386129
0.0386129
0.0386129
0.0386129
0.0386129
0.0386129
0.0386129
0.0386129
0.0386129
0.0386129
0.0386129
0.0386129
0.0386129
0.0386129
0.0386131
0.0386776
0.0407699
0.0453458
0.0452078
0.0429371
0.0415873
0.0408661
0.0402611
0.0400729
0.040106
0.0402255
0.0402737
0.0402717
0.0393551
0.0343719
0.0281586
0.0238803
0.0210123
0.0189264
0.0173688
0.0161529
0.0151609
0.0143116
0.0135667
0.0129026
0.0123001
0.0117604
0.0112845
0.0108808
0.0105688
0.0103512
0.0102147
0.0101394
0.0101069
0.0386129
0.0386129
0.0386129
0.0386129
0.0386129
0.0386129
0.0386129
0.0386129
0.0386129
0.0386129
0.0386129
0.0386129
0.0386129
0.0386129
0.0386129
0.0386129
0.0386129
0.0386129
0.0386129
0.0386129
0.0386129
0.0386129
0.0386129
0.0386129
0.0386129
0.0386129
0.0386129
0.0386129
0.0386206
0.0393058
0.0439432
0.0453373
0.0438129
0.041892
0.0410501
0.0403955
0.0400934
0.0401095
0.0402221
0.0402849
0.040295
0.0401602
0.0379468
0.0319015
0.026415
0.0228238
0.0202966
0.0184358
0.017025
0.0159082
0.0149766
0.0141744
0.0134661
0.0128251
0.0122451
0.0117209
0.011257
0.0108653
0.01056
0.0103477
0.0102146
0.0101392
0.0101092
0.0386129
0.0386129
0.0386129
0.0386129
0.0386129
0.0386129
0.0386129
0.0386129
0.0386129
0.0386129
0.0386129
0.0386129
0.0386129
0.0386129
0.0386129
0.0386129
0.0386129
0.0386129
0.0386129
0.0386129
0.0386129
0.0386129
0.0386129
0.0386129
0.0386129
0.0386129
0.0386129
0.0386129
0.0386135
0.0387571
0.0417067
0.0451518
0.0445526
0.0423878
0.0412616
0.04056
0.0401386
0.040115
0.0402089
0.04029
0.0403074
0.0402813
0.0397532
0.0358679
0.0296392
0.0250038
0.0219126
0.0196675
0.018
0.0167191
0.0156811
0.014808
0.0140494
0.0133691
0.0127541
0.0121921
0.0116824
0.0112327
0.0108497
0.0105517
0.0103448
0.0102129
0.0101409
0.0101129
0.0386129
0.0386129
0.0386129
0.0386129
0.0386129
0.0386129
0.0386129
0.0386129
0.0386129
0.0386129
0.0386129
0.0386129
0.0386129
0.0386129
0.0386129
0.0386129
0.0386129
0.0386129
0.0386129
0.0386129
0.0386129
0.0386129
0.0386129
0.0386129
0.0386129
0.0386129
0.0386129
0.0386129
0.0386129
0.038632
0.0397947
0.044488
0.0450289
0.0431204
0.0415328
0.0407594
0.0402125
0.0401279
0.040189
0.0402885
0.0403248
0.0402999
0.0402158
0.0387821
0.0334619
0.027742
0.0238235
0.0211112
0.0191131
0.0176158
0.0164387
0.0154748
0.0146548
0.0139302
0.01328
0.0126861
0.012141
0.0116478
0.0112086
0.0108348
0.0105443
0.0103402
0.0102131
0.010144
0.0101145
0.0386129
0.0386129
0.0386129
0.0386129
0.0386129
0.0386129
0.0386129
0.0386129
0.0386129
0.0386129
0.0386129
0.0386129
0.0386129
0.0386129
0.0386129
0.0386129
0.0386129
0.0386129
0.0386129
0.0386129
0.0386129
0.0386129
0.0386129
0.0386129
0.0386129
0.0386129
0.0386129
0.0386129
0.0386129
0.0386145
0.0388966
0.0425176
0.0450114
0.0439476
0.04197
0.0409765
0.040325
0.0401367
0.0401687
0.0402757
0.040338
0.0403176
0.0402837
0.03998
0.0371165
0.0311436
0.0261467
0.0228131
0.0204068
0.0186279
0.0172679
0.016186
0.015288
0.0145098
0.0138208
0.0131953
0.012621
0.0120945
0.0116139
0.0111857
0.010821
0.0105354
0.0103378
0.0102148
0.010145
0.0101167
0.0386129
0.0386129
0.0386129
0.0386129
0.0386129
0.0386129
0.0386129
0.0386129
0.0386129
0.0386129
0.0386129
0.0386129
0.0386129
0.0386129
0.0386129
0.0386129
0.0386129
0.0386129
0.0386129
0.0386129
0.0386129
0.0386129
0.0386129
0.0386129
0.0386129
0.0386129
0.0386129
0.0386129
0.0386129
0.038613
0.038655
0.0403509
0.0444898
0.0447297
0.0425636
0.0412582
0.0404872
0.0401654
0.0401492
0.0402554
0.0403403
0.0403374
0.0403075
0.0402376
0.0393572
0.0349257
0.0290723
0.0248328
0.0219271
0.0197931
0.0181935
0.0169572
0.0159586
0.0151128
0.0143772
0.0137174
0.0131147
0.0125615
0.0120495
0.0115817
0.0111643
0.010806
0.0105288
0.010337
0.0102145
0.0101467
0.0101194
0.0386129
0.0386129
0.0386129
0.0386129
0.0386129
0.0386129
0.0386129
0.0386129
0.0386129
0.0386129
0.0386129
0.0386129
0.0386129
0.0386129
0.0386129
0.0386129
0.0386129
0.0386129
0.0386129
0.0386129
0.0386129
0.0386129
0.0386129
0.0386129
0.0386129
0.0386129
0.0386129
0.0386129
0.0386129
0.0386129
0.0386166
0.0390945
0.0431683
0.0447249
0.0435042
0.041596
0.0406936
0.040197
0.0401408
0.0402269
0.04034
0.0403533
0.0403304
0.0402815
0.0401034
0.0381026
0.0325944
0.0273177
0.0237166
0.0211554
0.0192474
0.0178089
0.0166794
0.0157472
0.0149531
0.0142524
0.0136194
0.0130408
0.0125042
0.0120068
0.0115515
0.011142
0.0107937
0.0105241
0.0103343
0.0102148
0.0101488
0.0101204
0.0386129
0.0386129
0.0386129
0.0386129
0.0386129
0.0386129
0.0386129
0.0386129
0.0386129
0.0386129
0.0386129
0.0386129
0.0386129
0.0386129
0.0386129
0.0386129
0.0386129
0.0386129
0.0386129
0.0386129
0.0386129
0.0386129
0.0386129
0.0386129
0.0386129
0.0386129
0.0386129
0.0386129
0.0386129
0.0386129
0.0386131
0.0386933
0.0409377
0.0446535
0.04422
0.0421639
0.040924
0.04029
0.0401368
0.040201
0.0403306
0.0403621
0.040351
0.040308
0.0402428
0.0397141
0.0362247
0.0304166
0.0258611
0.0227579
0.020469
0.0187679
0.0174677
0.0164238
0.0155554
0.0148038
0.0141349
0.0135296
0.0129702
0.0124501
0.0119667
0.0115207
0.0111227
0.0107837
0.0105177
0.0103323
0.0102157
0.0101493
0.0101222
0.0386129
0.0386129
0.0386129
0.0386129
0.0386129
0.0386129
0.0386129
0.0386129
0.0386129
0.0386129
0.0386129
0.0386129
0.0386129
0.0386129
0.0386129
0.0386129
0.0386129
0.0386129
0.0386129
0.0386129
0.0386129
0.0386129
0.0386129
0.0386129
0.0386129
0.0386129
0.0386129
0.0386129
0.0386129
0.0386129
0.0386129
0.0386207
0.0393521
0.043517
0.0445537
0.0429311
0.0412463
0.0404276
0.040155
0.0401826
0.0403132
0.0403663
0.0403673
0.0403322
0.0402731
0.0401519
0.0388381
0.0339837
0.0285317
0.024639
0.0219009
0.0198686
0.0183459
0.017157
0.0161932
0.0153772
0.0146639
0.0140273
0.0134442
0.0129037
0.0123993
0.0119265
0.0114935
0.0111061
0.010772
0.010512
0.0103309
0.0102149
0.0101506
0.0101246
0.0386129
0.0386129
0.0386129
0.0386129
0.0386129
0.0386129
0.0386129
0.0386129
0.0386129
0.0386129
0.0386129
0.0386129
0.0386129
0.0386129
0.0386129
0.0386129
0.0386129
0.0386129
0.0386129
0.0386129
0.0386129
0.0386129
0.0386129
0.0386129
0.0386129
0.0386129
0.0386129
0.0386129
0.0386129
0.0386129
0.0386129
0.0386133
0.038751
0.0414692
0.0443479
0.0437279
0.041727
0.0406405
0.0401779
0.0401805
0.0402891
0.0403651
0.0403799
0.0403516
0.0402953
0.040228
0.0399245
0.0373223
0.0317742
0.0269122
0.0235805
0.0211514
0.0193431
0.0179656
0.0168788
0.0159808
0.0152115
0.0145361
0.0139255
0.0133642
0.0128414
0.0123491
0.0118904
0.0114695
0.0110881
0.0107614
0.0105072
0.010328
0.010215
0.0101524
0.0101256
0.0386129
0.0386129
0.0386129
0.0386129
0.0386129
0.0386129
0.0386129
0.0386129
0.0386129
0.0386129
0.0386129
0.0386129
0.0386129
0.0386129
0.0386129
0.0386129
0.0386129
0.0386129
0.0386129
0.0386129
0.0386129
0.0386129
0.0386129
0.0386129
0.0386129
0.0386129
0.0386129
0.0386129
0.0386129
0.0386129
0.0386129
0.0386129
0.0386277
0.0396386
0.0437392
0.0442411
0.0424682
0.0409396
0.0402742
0.0401841
0.0402612
0.0403578
0.0403878
0.0403658
0.0403154
0.0402536
0.0401714
0.0393553
0.0353075
0.0297392
0.0255659
0.0226569
0.0204957
0.0188739
0.0176276
0.0166245
0.0157844
0.0150604
0.0144159
0.0138304
0.0132892
0.0127803
0.0123034
0.011858
0.0114443
0.0110714
0.0107517
0.0105009
0.010326
0.0102157
0.0101529
0.0101274
0.0386129
0.0386129
0.0386129
0.0386129
0.0386129
0.0386129
0.0386129
0.0386129
0.0386129
0.0386129
0.0386129
0.0386129
0.0386129
0.0386129
0.0386129
0.0386129
0.0386129
0.0386129
0.0386129
0.0386129
0.0386129
0.0386129
0.0386129
0.0386129
0.0386129
0.0386129
0.0386129
0.0386129
0.0386129
0.0386129
0.0386129
0.0386129
0.0386138
0.0388271
0.0418794
0.0443234
0.0433248
0.0413982
0.0404071
0.0402041
0.0402279
0.0403421
0.0403929
0.0403762
0.0403315
0.0402744
0.0402153
0.0400439
0.0382183
0.0330889
0.0280011
0.0244191
0.021845
0.0199135
0.0184601
0.0173215
0.0163914
0.015606
0.0149189
0.0143038
0.0137415
0.0132163
0.0127245
0.0122621
0.0118249
0.0114207
0.011056
0.0107407
0.0104956
0.0103246
0.0102151
0.0101542
0.0101298
0.0386129
0.0386129
0.0386129
0.0386129
0.0386129
0.0386129
0.0386129
0.0386129
0.0386129
0.0386129
0.0386129
0.0386129
0.0386129
0.0386129
0.0386129
0.0386129
0.0386129
0.0386129
0.0386129
0.0386129
0.0386129
0.0386129
0.0386129
0.0386129
0.0386129
0.0386129
0.0386129
0.0386129
0.0386129
0.0386129
0.0386129
0.0386129
0.0386129
0.038638
0.0399288
0.0437811
0.0440411
0.0420425
0.0406477
0.0402252
0.040207
0.0403119
0.0403977
0.0403829
0.0403452
0.0402922
0.0402386
0.0401788
0.0396897
0.0364824
0.0309874
0.0265213
0.0234276
0.0211224
0.0194029
0.0180888
0.0170433
0.0161804
0.0154399
0.0147876
0.0141993
0.0136556
0.0131493
0.0126735
0.0122204
0.0117937
0.0113987
0.0110393
0.0107309
0.010491
0.010322
0.0102153
0.0101562
0.0101313
0.0386129
0.0386129
0.0386129
0.0386129
0.0386129
0.0386129
0.0386129
0.0386129
0.0386129
0.0386129
0.0386129
0.0386129
0.0386129
0.0386129
0.0386129
0.0386129
0.0386129
0.0386129
0.0386129
0.0386129
0.0386129
0.0386129
0.0386129
0.0386129
0.0386129
0.0386129
0.0386129
0.0386129
0.0386129
0.0386129
0.0386129
0.0386129
0.0386129
0.0386145
0.0389159
0.0422124
0.0440124
0.0429162
0.0410273
0.0403042
0.0401939
0.040275
0.0403971
0.0403898
0.0403566
0.0403081
0.0402583
0.0402068
0.0400947
0.0388912
0.0343758
0.0291151
0.0252766
0.0225394
0.0204895
0.0189485
0.0177543
0.0167929
0.0159853
0.0152865
0.0146656
0.014099
0.0135766
0.013088
0.0126227
0.0121811
0.0117644
0.0113756
0.011024
0.0107219
0.0104852
0.0103202
0.0102162
0.0101573
0.0101324
0.0386129
0.0386129
0.0386129
0.0386129
0.0386129
0.0386129
0.0386129
0.0386129
0.0386129
0.0386129
0.0386129
0.0386129
0.0386129
0.0386129
0.0386129
0.0386129
0.0386129
0.0386129
0.0386129
0.0386129
0.0386129
0.0386129
0.0386129
0.0386129
0.0386129
0.0386129
0.0386129
0.0386129
0.0386129
0.0386129
0.0386129
0.0386129
0.0386129
0.038613
0.0386515
0.0401984
0.0437754
0.0437067
0.0416402
0.0404497
0.0401916
0.0402481
0.0403893
0.0403949
0.0403699
0.0403225
0.0402751
0.0402247
0.0401644
0.0398874
0.0374906
0.0322362
0.027503
0.024195
0.0217585
0.0199295
0.018543
0.0174554
0.016563
0.0158059
0.0151443
0.0145491
0.0140068
0.013504
0.0130274
0.0125747
0.012144
0.0117343
0.0113542
0.0110097
0.0107118
0.0104804
0.0103192
0.0102161
0.0101579
0.0101342
0.0386129
0.0386129
0.0386129
0.0386129
0.0386129
0.0386129
0.0386129
0.0386129
0.0386129
0.0386129
0.0386129
0.0386129
0.0386129
0.0386129
0.0386129
0.0386129
0.0386129
0.0386129
0.0386129
0.0386129