/*--------------------------------*- C++ -*----------------------------------*\
| =========                 |                                                 |
| \\      /  F ield         | OpenFOAM: The Open Source CFD Toolbox           |
|  \\    /   O peration     | Version:  v2012                                 |
|   \\  /    A nd           | Website:  www.openfoam.com                      |
|    \\/     M anipulation  |                                                 |
\*---------------------------------------------------------------------------*/
FoamFile
{
    version     2.0;
    format      ascii;
    class       volScalarField;
    location    "1901";
    object      T;
}
// * * * * * * * * * * * * * * * * * * * * * * * * * * * * * * * * * * * * * //

dimensions      [0 0 0 1 0 0 0];


internalField   nonuniform List<scalar> 
8000
(
60.467
60.467
60.467
60.467
60.467
60.467
60.467
60.467
60.467
60.467
60.467
60.467
60.467
60.467
60.467
60.467
60.467
60.467
60.467
60.467
60.467
60.467
60.467
60.467
60.467
60.467
60.467
60.467
60.467
60.467
60.467
60.467
60.467
60.467
60.467
60.467
60.467
60.467
60.467
60.467
60.467
60.467
60.467
60.467
60.467
60.467
60.467
60.467
60.467
60.467
60.467
60.467
60.467
60.467
60.467
60.467
60.467
60.467
60.467
60.467
60.467
60.467
60.467
60.467
60.467
60.467
60.467
60.467
60.467
60.467
60.467
60.467
60.467
60.467
60.467
60.467
60.467
60.467
60.467
60.467
60.467
60.467
60.467
60.467
60.467
60.467
60.467
60.467
60.467
60.467
60.467
60.467
60.467
60.467
60.467
60.467
60.467
60.467
60.467
60.467
60.467
60.467
60.467
60.467
60.467
60.467
60.467
60.467
60.467
60.467
60.467
60.467
60.467
60.467
60.467
60.467
60.467
60.467
60.467
60.467
60.467
60.467
60.467
60.467
60.467
60.467
60.467
60.467
60.467
60.467
60.467
60.467
60.467
60.467
60.467
60.467
60.467
60.467
60.467
60.467
60.467
60.467
60.467
60.467
60.467
60.467
60.467
60.467
60.467
60.467
60.467
60.467
60.467
60.467
60.467
60.467
60.467
60.467
60.467
60.467
60.467
60.467
60.467
60.467
60.467
60.467
60.467
60.467
60.467
60.467
60.467
60.467
60.467
60.467
60.467
60.467
60.467
60.467
60.467
60.467
60.467
60.467
60.467
60.467
60.467
60.467
60.467
60.467
60.467
60.467
60.4853
60.467
60.467
60.467
60.467
60.467
60.467
60.467
60.467
60.467
60.467
60.467
60.467
60.467
60.467
60.467
60.467
60.467
60.467
60.467
60.5084
231.379
60.467
60.467
60.467
60.467
60.467
60.467
60.467
60.467
60.467
60.467
60.467
60.467
60.467
60.467
60.467
60.467
60.467
60.467
60.467
60.4909
162.477
263.667
60.4669
60.467
60.467
60.467
60.467
60.467
60.467
60.467
60.467
60.467
60.467
60.467
60.467
60.467
60.467
60.467
60.467
60.467
60.467
60.4877
118.042
241
263.617
60.467
60.467
60.467
60.467
60.467
60.467
60.467
60.467
60.467
60.467
60.467
60.467
60.467
60.467
60.467
60.467
60.467
60.467
60.467
60.4796
90.9409
199.866
253.987
263.862
60.467
60.467
60.467
60.467
60.467
60.467
60.467
60.467
60.467
60.467
60.467
60.467
60.467
60.467
60.467
60.467
60.467
60.467
60.467
60.4764
75.7905
154.589
232.799
258.4
263.614
60.467
60.467
60.467
60.467
60.467
60.467
60.467
60.467
60.467
60.467
60.467
60.467
60.467
60.467
60.467
60.467
60.467
60.467
60.467
60.4731
68.2822
118.316
199.926
246.18
259.875
263.486
60.467
60.467
60.467
60.467
60.467
60.467
60.467
60.467
60.467
60.467
60.467
60.467
60.467
60.467
60.467
60.467
60.467
60.467
60.467
60.4711
65.2405
94.0191
161.132
225.761
251.527
260.731
263.354
60.467
60.467
60.467
60.467
60.467
60.467
60.467
60.467
60.467
60.467
60.467
60.467
60.467
60.467
60.467
60.467
60.467
60.467
60.467
60.4695
64.1803
79.2561
125.469
196.467
237.528
254.555
261.194
263.165
60.467
60.467
60.467
60.467
60.467
60.467
60.467
60.467
60.467
60.467
60.467
60.467
60.467
60.467
60.467
60.467
60.467
60.467
60.467
60.4688
63.5673
71.3551
99.3646
160.699
216.767
244.147
256.343
261.395
262.911
60.467
60.467
60.467
60.467
60.467
60.467
60.467
60.467
60.467
60.467
60.467
60.467
60.467
60.467
60.467
60.467
60.467
60.467
60.467
60.4677
62.8352
67.7133
82.7887
125.349
188.626
228.549
248.146
257.417
261.405
262.492
60.467
60.467
60.467
60.467
60.467
60.467
60.467
60.467
60.467
60.467
60.467
60.467
60.467
60.467
60.467
60.467
60.467
60.467
60.467
60.4673
62.0054
66.2247
73.8602
98.1397
154.632
206.803
235.811
250.688
258.022
261.159
261.796
60.467
60.467
60.467
60.467
60.467
60.467
60.467
60.467
60.467
60.467
60.467
60.467
60.467
60.467
60.467
60.467
60.467
60.467
60.467
60.4672
61.3694
65.724
69.759
81.1361
120.389
178.47
218.449
240.54
252.3
258.169
260.563
260.648
60.467
60.467
60.467
60.467
60.467
60.467
60.467
60.467
60.467
60.467
60.467
60.467
60.467
60.467
60.467
60.467
60.467
60.467
60.467
60.4671
60.967
65.3679
68.2006
72.2052
93.7557
145.1
195.246
226.2
243.667
253.119
257.8
259.455
259.04
60.467
60.467
60.467
60.467
60.467
60.467
60.467
60.467
60.467
60.467
60.467
60.467
60.467
60.467
60.467
60.467
60.467
60.467
60.467
60.4671
60.7272
64.7404
67.5105
68.1739
77.6912
112.321
166.107
206.842
231.445
245.504
253.135
256.771
257.84
257.18
60.467
60.467
60.467
60.467
60.467
60.467
60.467
60.467
60.467
60.467
60.467
60.467
60.467
60.467
60.467
60.467
60.467
60.467
60.467
60.467
60.5928
63.6654
67.2323
66.8704
69.8028
87.4956
133.047
181.911
214.881
234.722
246.105
252.218
255.126
255.936
255.332
60.467
60.467
60.467
60.467
60.467
60.467
60.467
60.467
60.467
60.467
60.467
60.467
60.467
60.467
60.467
60.467
60.467
60.467
60.467
60.467
60.5232
62.5134
67.0152
66.7573
66.0682
73.704
102.234
151.862
193.288
220.102
236.167
245.332
250.491
253.107
254.018
253.829
60.467
60.467
60.467
60.467
60.467
60.467
60.467
60.467
60.467
60.467
60.467
60.467
60.467
60.467
60.467
60.467
60.467
60.467
60.467
60.467
60.4902
61.6385
66.5864
66.8283
65.4875
67.2312
80.9768
119.4
166.625
200.956
222.731
235.618
243.444
248.249
251.022
252.467
252.586
60.467
60.467
60.467
60.467
60.467
60.467
60.467
60.467
60.467
60.467
60.467
60.467
60.467
60.467
60.467
60.467
60.467
60.467
60.467
60.467
60.4758
61.0728
65.7431
66.8674
65.5084
64.6336
69.9122
91.6192
136.128
177.155
205.173
222.619
233.534
240.853
245.867
249.359
251.197
251.577
60.467
60.467
60.467
60.467
60.467
60.467
60.467
60.467
60.467
60.467
60.467
60.467
60.467
60.467
60.467
60.467
60.467
60.467
60.467
60.467
60.4701
60.7469
64.4739
66.8691
65.8451
64.3879
65.3065
74.7805
105.555
149.527
183.527
205.894
220.487
230.571
238.043
244.013
248.031
250.182
250.622
60.467
60.467
60.467
60.467
60.467
60.467
60.467
60.467
60.467
60.467
60.467
60.467
60.467
60.467
60.467
60.467
60.467
60.467
60.467
60.467
60.468
60.5824
63.0935
66.7462
66.1912
64.4274
63.7402
66.8514
82.3787
119.754
158.675
185.773
204.151
217.4
227.349
235.941
242.599
247.009
249.234
249.813
60.467
60.467
60.467
60.467
60.467
60.467
60.467
60.467
60.467
60.467
60.467
60.467
60.467
60.467
60.467
60.467
60.467
60.467
60.467
60.467
60.4673
60.5094
61.9574
66.3063
66.512
64.7457
63.6257
64.0229
69.8167
92.608
131.606
163.41
185.549
201.505
214.089
225.079
234.442
241.575
246.082
248.448
249.113
60.467
60.467
60.467
60.467
60.467
60.467
60.467
60.467
60.467
60.467
60.467
60.467
60.467
60.467
60.467
60.467
60.467
60.467
60.467
60.467
60.4671
60.4809
61.1966
65.4523
66.504
65.2215
63.684
63.3191
64.7463
74.7843
104.252
139.379
165.613
183.976
198.749
211.985
223.609
233.445
240.7
245.351
247.778
248.486
60.467
60.467
60.467
60.467
60.467
60.467
60.467
60.467
60.467
60.467
60.467
60.467
60.467
60.467
60.467
60.467
60.467
60.467
60.467
60.467
60.467
60.471
60.7736
64.2278
66.4507
65.6611
63.9295
63.2263
63.1858
66.3019
81.9114
114.257
144.507
166.021
182.56
197.354
210.817
222.726
232.691
240.071
244.752
247.184
247.919
60.467
60.467
60.467
60.467
60.467
60.467
60.467
60.467
60.467
60.467
60.467
60.467
60.467
60.467
60.467
60.467
60.467
60.467
60.467
60.467
60.467
60.468
60.5777
62.853
66.2531
65.9482
64.3061
63.2738
62.9608
63.4361
69.1584
90.4557
122.295
147.508
166.183
182.259
196.806
210.222
222.196
232.228
239.597
244.234
246.654
247.39
60.467
60.467
60.467
60.467
60.467
60.467
60.467
60.467
60.467
60.467
60.467
60.467
60.467
60.467
60.467
60.467
60.467
60.467
60.467
60.467
60.467
60.4672
60.5013
61.7104
65.712
66.1261
64.699
63.4448
62.9437
62.7775
64.0552
73.6008
99.5969
128.077
149.348
167.116
182.578
196.771
210.054
221.984
231.949
239.213
243.787
246.161
246.922
60.467
60.467
60.467
60.467
60.467
60.467
60.467
60.467
60.467
60.467
60.467
60.467
60.467
60.467
60.467
60.467
60.467
60.467
60.467
60.467
60.467
60.467
60.4761
61.0003
64.7447
66.0989
65.1301
63.6697
63.0164
62.712
62.69
65.3698
79.8795
107.616
132.093
151.561
168.4
183.234
197.115
210.193
221.975
231.77
238.91
243.379
245.728
246.495
60.467
60.467
60.467
60.467
60.467
60.467
60.467
60.467
60.467
60.467
60.467
60.467
60.467
60.467
60.467
60.467
60.467
60.467
60.467
60.467
60.467
60.467
60.4691
60.6558
63.404
65.9968
65.4608
63.9383
63.1443
62.7377
62.4867
62.7125
67.9221
87.5163
114.143
135.695
153.929
169.814
184.141
197.7
210.533
222.071
231.683
238.646
243.024
245.334
246.097
60.467
60.467
60.467
60.467
60.467
60.467
60.467
60.467
60.467
60.467
60.467
60.467
60.467
60.467
60.467
60.467
60.467
60.467
60.467
60.467
60.467
60.467
60.4674
60.5221
62.0649
65.652
65.7741
64.2837
63.2575
62.8306
62.4881
62.2677
63.2286
72.2062
95.3528
119.57
139.201
156.247
171.356
185.216
198.457
210.967
222.264
231.635
238.43
242.707
244.97
245.728
60.467
60.467
60.467
60.467
60.467
60.467
60.467
60.467
60.467
60.467
60.467
60.467
60.467
60.467
60.467
60.467
60.467
60.467
60.467
60.467
60.467
60.467
60.4671
60.4802
61.1522
64.8687
65.7627
64.7223
63.4165
62.9064
62.5655
62.2214
62.051
64.5032
78.1864
102.765
124.354
142.496
158.556
172.973
186.404
199.277
211.491
222.494
231.624
238.243
242.419
244.633
245.39
60.467
60.467
60.467
60.467
60.467
60.467
60.467
60.467
60.467
60.467
60.467
60.467
60.467
60.467
60.467
60.467
60.467
60.467
60.467
60.467
60.467
60.467
60.467
60.4696
60.6995
63.5875
65.6993
65.1062
63.6387
62.9816
62.6453
62.2752
61.9894
62.2264
67.0937
85.7664
109.177
128.615
145.673
160.818
174.629
187.609
200.166
212.045
222.748
231.632
238.086
242.156
244.325
245.079
60.467
60.467
60.467
60.467
60.467
60.467
60.467
60.467
60.467
60.467
60.467
60.467
60.467
60.467
60.467
60.467
60.467
60.467
60.467
60.467
60.467
60.467
60.467
60.4674
60.5294
62.1751
65.4744
65.4371
63.9811
63.0562
62.7096
62.3663
62.0114
61.7735
62.7774
71.7973
93.2542
114.697
132.692
148.675
163.03
176.244
188.855
201.07
212.606
223.005
231.668
237.95
241.919
244.044
244.78
60.467
60.467
60.467
60.467
60.467
60.467
60.467
60.467
60.467
60.467
60.467
60.467
60.467
60.467
60.467
60.467
60.467
60.467
60.467
60.467
60.467
60.467
60.467
60.4671
60.4802
61.1739
64.7452
65.4651
64.4388
63.1999
62.7499
62.4424
62.0806
61.8032
61.8336
64.3178
78.2038
100.376
119.667
136.467
151.528
165.128
177.858
190.098
201.961
213.148
223.285
231.719
237.834
241.705
243.774
244.498
60.467
60.467
60.467
60.467
60.467
60.467
60.467
60.467
60.467
60.467
60.467
60.467
60.467
60.467
60.467
60.467
60.467
60.467
60.467
60.467
60.467
60.467
60.467
60.467
60.4692
60.6888
63.458
65.4194
64.8224
63.4415
62.8113
62.4884
62.1572
61.8591
61.6928
62.0913
67.5542
85.6603
106.473
124.176
140.02
154.183
167.165
179.444
191.312
202.811
213.696
223.572
231.781
237.735
241.499
243.519
244.236
60.467
60.467
60.467
60.467
60.467
60.467
60.467
60.467
60.467
60.467
60.467
60.467
60.467
60.467
60.467
60.467
60.467
60.467
60.467
60.467
60.467
60.467
60.467
60.467
60.4673
60.5197
62.0332
65.2127
65.2073
63.7805
62.902
62.5373
62.2083
61.9159
61.7141
61.7218
62.9416
72.8303
92.7201
111.873
128.435
143.294
156.702
169.131
180.979
192.465
203.64
214.238
223.858
231.851
237.639
241.306
243.282
243.982
60.467
60.467
60.467
60.467
60.467
60.467
60.467
60.467
60.467
60.467
60.467
60.467
60.467
60.467
60.467
60.467
60.467
60.467
60.467
60.467
60.467
60.467
60.467
60.467
60.467
60.4764
61.063
64.4305
65.2086
64.2797
63.0542
62.591
62.2591
61.9579
61.7524
61.7036
61.8631
65.0372
79.32
99.2987
116.792
132.349
146.355
159.094
171.011
182.433
193.579
204.449
214.766
224.141
231.917
237.551
241.126
243.052
243.74
60.467
60.467
60.467
60.467
60.467
60.467
60.467
60.467
60.467
60.467
60.467
60.467
60.467
60.467
60.467
60.467
60.467
60.467
60.467
60.467
60.467
60.467
60.467
60.467
60.467
60.4683
60.632
63.0942
65.1553
64.6536
63.3189
62.6684
62.3141
61.9987
61.7597
61.72
61.75
62.3146
68.9173
86.3132
105.05
121.304
135.992
149.224
161.354
172.784
183.83
194.658
205.23
215.277
224.41
231.985
237.47
240.952
242.833
243.505
60.467
60.467
60.467
60.467
60.467
60.467
60.467
60.467
60.467
60.467
60.467
60.467
60.467
60.467
60.467
60.467
60.467
60.467
60.467
60.467
60.467
60.467
60.467
60.467
60.467
60.4671
60.5001
61.7121
64.8445
65.0115
63.6829
62.7779
62.3832
62.0432
61.7679
61.7168
61.7465
61.8422
63.5621
74.4506
92.9166
110.222
125.524
139.386
151.908
163.472
174.475
185.175
195.692
205.978
215.765
224.672
232.049
237.389
240.785
242.62
243.277
60.467
60.467
60.467
60.467
60.467
60.467
60.467
60.467
60.467
60.467
60.467
60.467
60.467
60.467
60.467
60.467
60.467
60.467
60.467
60.467
60.467
60.467
60.467
60.467
60.467
60.467
60.4717
60.8798
63.9148
64.9949
64.1996
62.9605
62.4567
62.1089
61.7974
61.6983
61.7344
61.8111
62.0572
66.2535
80.7992
98.942
114.962
129.459
142.535
154.405
165.476
176.091
186.458
196.68
206.69
216.236
224.919
232.105
237.312
240.621
242.413
243.059
60.467
60.467
60.467
60.467
60.467
60.467
60.467
60.467
60.467
60.467
60.467
60.467
60.467
60.467
60.467
60.467
60.467
60.467
60.467
60.467
60.467
60.467
60.467
60.467
60.467
60.467
60.4675
60.5625
62.5107
64.8961
64.5768
63.2599
62.5608
62.18
61.8383
61.6653
61.7062
61.7987
61.8737
62.7452
70.6493
87.2721
104.335
119.402
133.105
145.454
156.75
167.377
177.626
187.679
197.618
207.376
216.68
225.149
232.159
237.232
240.462
242.215
242.846
60.467
60.467
60.467
60.467
60.467
60.467
60.467
60.467
60.467
60.467
60.467
60.467
60.467
60.467
60.467
60.467
60.467
60.467
60.467
60.467
60.467
60.467
60.467
60.467
60.467
60.467
60.467
60.4822
61.2928
64.3874
64.8218
63.6835
62.6966
62.2687
61.895
61.6619
61.6682
61.7655
61.8602
61.9659
64.4965
76.2197
93.4346
109.272
123.529
136.482
148.178
158.96
169.174
179.079
188.835
198.518
208.023
217.096
225.369
232.205
237.154
240.309
242.021
242.638
60.467
60.467
60.467
60.467
60.467
60.467
60.467
60.467
60.467
60.467
60.467
60.467
60.467
60.467
60.467
60.467
60.467
60.467
60.467
60.467
60.467
60.467
60.467
60.467
60.467
60.467
60.467
60.4686
60.692
63.2234
64.7763
64.1507
62.9346
62.3583
61.9744
61.6728
61.6448
61.7195
61.8392
61.8936
62.3191
67.75
82.3878
98.9938
113.818
127.384
139.625
150.727
161.036
170.867
180.452
189.943
199.369
208.631
217.494
225.571
232.246
237.078
240.158
241.832
242.436
60.467
60.467
60.467
60.467
60.467
60.467
60.467
60.467
60.467
60.467
60.467
60.467
60.467
60.467
60.467
60.467
60.467
60.467
60.467
60.467
60.467
60.467
60.467
60.467
60.467
60.467
60.467
60.4671
60.5079
61.8239
64.6072
64.5683
63.2681
62.487
62.059
61.7128
61.6243
61.681
61.798
61.8785
61.9294
63.3702
72.5143
88.3468
104.066
118.121
130.974
142.553
153.11
162.984
172.461
181.763
190.991
200.169
209.211
217.866
225.762
232.284
237.002
240.011
241.647
242.237
60.467
60.467
60.467
60.467
60.467
60.467
60.467
60.467
60.467
60.467
60.467
60.467
60.467
60.467
60.467
60.467
60.467
60.467
60.467
60.467
60.467
60.467
60.467
60.467
60.467
60.467
60.467
60.467
60.4719
60.9035
63.7883
64.5998
63.7718
62.6531
62.1615
61.7755
61.6129
61.6499
61.7556
61.8477
61.8922
62.0946
65.6849
78.008
94.1124
108.758
122.147
134.316
145.278
155.335
164.809
173.976
183.003
191.976
200.932
209.756
218.219
225.944
232.316
236.926
239.866
241.465
242.044
60.467
60.467
60.467
60.467
60.467
60.467
60.467
60.467
60.467
60.467
60.467
60.467
60.467
60.467
60.467
60.467
60.467
60.467
60.467
60.467
60.467
60.467
60.467
60.467
60.467
60.467
60.467
60.467
60.4674
60.5581
62.4192
64.5172
64.1578
62.9373
62.2758
61.8665
61.6174
61.6287
61.7145
61.8081
61.8668
61.902
62.6909
69.4187
83.8966
99.2891
113.154
125.919
137.421
147.811
157.412
166.538
175.409
184.169
192.915
201.65
210.274
218.555
226.114
232.345
236.849
239.722
241.288
241.857
60.467
60.467
60.467
60.467
60.467
60.467
60.467
60.467
60.467
60.467
60.467
60.467
60.467
60.467
60.467
60.467
60.467
60.467
60.467
60.467
60.467
60.467
60.467
60.467
60.467
60.467
60.467
60.467
60.467
60.4791
61.2128
64.0846
64.4512
63.3372
62.429
61.9723
61.65
61.6178
61.677
61.7714
61.8314
61.874
61.9722
64.2032
74.3418
89.5157
104.091
117.323
129.431
140.298
150.166
159.369
168.168
176.754
185.277
193.8
202.332
210.768
218.874
226.276
232.368
236.77
239.582
241.116
241.671
60.467
60.467
60.467
60.467
60.467
60.467
60.467
60.467
60.467
60.467
60.467
60.467
60.467
60.467
60.467
60.467
60.467
60.467
60.467
60.467
60.467
60.467
60.467
60.467
60.467
60.467
60.467
60.467
60.467
60.468
60.646
62.9027
64.4049
63.8309
62.6617
62.094
61.7139
61.6076
61.6442
61.7349
61.8009
61.8472
61.8747
62.2822
67.0399
79.7576
94.8641
108.583
121.239
132.687
142.965
152.374
161.209
169.698
178.031
186.323
194.639
202.983
211.236
219.178
226.425
232.385
236.692
239.445
240.945
241.491
60.467
60.467
60.467
60.467
60.467
60.467
60.467
60.467
60.467
60.467
60.467
60.467
60.467
60.467
60.467
60.467
60.467
60.467
60.467
60.467
60.467
60.467
60.467
60.467
60.467
60.467
60.467
60.467
60.467
60.467
60.4936
61.5621
64.1298
64.2441
63.0241
62.2358
61.799
61.6042
61.6163
61.6991
61.7779
61.8127
61.8468
61.8927
63.2163
71.1546
85.3393
99.7649
112.848
124.889
135.703
145.454
154.442
162.933
171.146
179.235
187.314
195.439
203.6
211.685
219.464
226.564
232.399
236.614
239.307
240.779
241.316
60.467
60.467
60.467
60.467
60.467
60.467
60.467
60.467
60.467
60.467
60.467
60.467
60.467
60.467
60.467
60.467
60.467
60.467
60.467
60.467
60.467
60.467
60.467
60.467
60.467
60.467
60.467
60.467
60.467
60.467
60.4693
60.7709
63.3009
64.2599
63.5406
62.4492
61.8966
61.6186
61.6019
61.6662
61.7559
61.7878
61.8212
61.841
62.0421
65.2269
76.1373
90.7154
104.345
116.86
128.284
138.508
147.776
156.375
164.56
172.511
180.375
188.258
196.199
204.191
212.109
219.734
226.694
232.407
236.532
239.173
240.618
241.144
60.467
60.467
60.467
60.467
60.467
60.467
60.467
60.467
60.467
60.467
60.467
60.467
60.467
60.467
60.467
60.467
60.467
60.467
60.467
60.467
60.467
60.467
60.467
60.467
60.467
60.467
60.467
60.467
60.467
60.467
60.4671
60.5178
61.9349
64.181
63.9757
62.7573
62.0421
61.6516
61.5848
61.6392
61.7331
61.7688
61.798
61.8145
61.8339
62.5741
68.5312
81.4906
95.7083
108.644
120.64
131.442
141.116
149.94
158.194
166.09
173.8
181.459
189.152
196.921
204.75
212.51
219.99
226.813
232.409
236.453
239.042
240.458
240.977
60.467
60.467
60.467
60.467
60.467
60.467
60.467
60.467
60.467
60.467
60.467
60.467
60.467
60.467
60.467
60.467
60.467
60.467
60.467
60.467
60.467
60.467
60.467
60.467
60.467
60.467
60.467
60.467
60.467
60.467
60.467
60.472
60.9333
63.5094
64.1228
63.2227
62.2101
61.7383
61.5753
61.6137
61.7097
61.7551
61.78
61.7914
61.8006
61.8957
63.9172
72.967
86.7719
100.362
112.766
124.173
134.372
143.54
151.969
159.901
167.534
175.024
182.484
190
197.607
205.28
212.893
220.229
226.922
232.411
236.375
238.913
240.304
240.815
60.467
60.467
60.467
60.467
60.467
60.467
60.467
60.467
60.467
60.467
60.467
60.467
60.467
60.467
60.467
60.467
60.467
60.467
60.467
60.467
60.467
60.467
60.467
60.467
60.467
60.467
60.467
60.467
60.467
60.467
60.467
60.4672
60.5542
62.2607
64.0287
63.6498
62.5051
61.8491
61.5837
61.5922
61.6809
61.742
61.7683
61.7739
61.7764
61.7872
62.1766
66.4537
77.9356
91.9057
104.744
116.655
127.455
137.089
145.804
153.868
161.508
168.901
176.18
183.456
190.805
198.257
205.787
213.253
220.452
227.026
232.41
236.297
238.788
240.155
240.656
60.467
60.467
60.467
60.467
60.467
60.467
60.467
60.467
60.467
60.467
60.467
60.467
60.467
60.467
60.467
60.467
60.467
60.467
60.467
60.467
60.467
60.467
60.467
60.467
60.467
60.467
60.467
60.467
60.467
60.467
60.467
60.467
60.4764
61.1136
63.6413
63.9724
62.9224
62.0271
61.6266
61.5886
61.6448
61.7242
61.759
61.7615
61.7575
61.7585
61.8005
63.0192
70.1631
83.1856
96.621
108.917
120.299
130.502
139.619
147.917
155.651
163.025
170.19
177.274
184.377
191.568
198.88
206.266
213.592
220.668
227.124
232.407
236.222
238.667
240.008
240.501
60.467
60.467
60.467
60.467
60.467
60.467
60.467
60.467
60.467
60.467
60.467
60.467
60.467
60.467
60.467
60.467
60.467
60.467
60.467
60.467
60.467
60.467
60.467
60.467
60.467
60.467
60.467
60.467
60.467
60.467
60.467
60.467
60.4675
60.6023
62.5159
63.9719
63.4418
62.2866
61.7018
61.5871
61.616
61.6956
61.7501
61.7526
61.7441
61.7381
61.7458
61.939
64.8264
74.7836
88.2375
101.069
112.881
123.699
133.332
141.972
149.894
157.331
164.455
171.409
178.311
185.251
192.3
199.47
206.718
213.92
220.874
227.218
232.405
236.149
238.548
239.865
240.35
60.467
60.467
60.467
60.467
60.467
60.467
60.467
60.467
60.467
60.467
60.467
60.467
60.467
60.467
60.467
60.467
60.467
60.467
60.467
60.467
60.467
60.467
60.467
60.467
60.467
60.467
60.467
60.467
60.467
60.467
60.467
60.467
60.467
60.4829
61.2948
63.68
63.8142
62.683
61.8397
61.587
61.5901
61.6666
61.7359
61.7448
61.7354
61.7241
61.7232
61.7386
62.4211
67.845
79.7514
93.0752
105.267
116.631
126.863
135.958
144.167
151.751
158.91
165.804
172.564
179.294
186.088
192.996
200.028
207.155
214.234
221.072
227.309
232.404
236.077
238.432
239.725
240.203
60.467
60.467
60.467
60.467
60.467
60.467
60.467
60.467
60.467
60.467
60.467
60.467
60.467
60.467
60.467
60.467
60.467
60.467
60.467
60.467
60.467
60.467
60.467
60.467
60.467
60.467
60.467
60.467
60.467
60.467
60.467
60.467
60.467
60.468
60.6583
62.7224
63.7989
63.1676
62.0703
61.6275
61.5725
61.6338
61.7221
61.7328
61.7305
61.7158
61.7082
61.7096
61.7955
63.6411
71.9152
84.8019
97.5774
109.31
120.147
129.799
138.401
146.222
153.494
160.398
167.081
173.657
180.234
186.885
193.654
200.568
207.575
214.536
221.266
227.4
232.403
236.007
238.318
239.589
240.06
60.467
60.467
60.467
60.467
60.467
60.467
60.467
60.467
60.467
60.467
60.467
60.467
60.467
60.467
60.467
60.467
60.467
60.467
60.467
60.467
60.467
60.467
60.467
60.467
60.467
60.467
60.467
60.467
60.467
60.467
60.467
60.467
60.467
60.467
60.4914
61.465
63.6693
63.6221
62.4264
61.7163
61.5636
61.6056
61.7005
61.721
61.7234
61.7124
61.6992
61.6935
61.6972
62.0491
65.9537
76.6092
89.6969
101.839
113.151
123.419
132.523
140.68
148.146
155.131
161.803
168.287
174.7
181.129
187.639
194.289
201.086
207.979
214.832
221.455
227.487
232.4
235.939
238.208
239.458
239.925
60.467
60.467
60.467
60.467
60.467
60.467
60.467
60.467
60.467
60.467
60.467
60.467
60.467
60.467
60.467
60.467
60.467
60.467
60.467
60.467
60.467
60.467
60.467
60.467
60.467
60.467
60.467
60.467
60.467
60.467
60.467
60.467
60.467
60.467
60.4687
60.7182
62.8563
63.6813
62.9716
61.8953
61.5684
61.5899
61.6785
61.7101
61.7151
61.7075
61.695
61.6821
61.6755
61.7052
62.8128
69.4024
81.577
94.2533
105.923
116.765
126.46
135.056
142.806
149.947
156.676
163.13
169.437
175.694
181.977
188.366
194.9
201.585
208.373
215.119
221.64
227.572
232.399
235.873
238.102
239.333
239.796
60.467
60.467
60.467
60.467
60.467
60.467
60.467
60.467
60.467
60.467
60.467
60.467
60.467
60.467
60.467
60.467
60.467
60.467
60.467
60.467
60.467
60.467
60.467
60.467
60.467
60.467
60.467
60.467
60.467
60.467
60.467
60.467
60.467
60.467
60.467
60.5014
61.6277
63.6014
63.427
62.2285
61.6308
61.5857
61.6527
61.6931
61.7093
61.7022
61.6889
61.6756
61.6618
61.6614
61.8281
64.4759
73.7618
86.396
98.5824
109.828
120.145
129.283
137.413
144.791
151.644
158.13
164.391
170.532
176.635
182.793
189.064
195.487
202.072
208.754
215.396
221.819
227.655
232.397
235.81
238.003
239.214
239.673
60.467
60.467
60.467
60.467
60.467
60.467
60.467
60.467
60.467
60.467
60.467
60.467
60.467
60.467
60.467
60.467
60.467
60.467
60.467
60.467
60.467
60.467
60.467
60.467
60.467
60.467
60.467
60.467
60.467
60.467
60.467
60.467
60.467
60.467
60.467
60.4695
60.7822
62.9347
63.5769
62.7292
61.7319
61.5947
61.6153
61.6767
61.7027
61.6993
61.6836
61.6679
61.654
61.6455
61.6508
62.2659
67.2966
78.4695
91.0931
102.689
113.537
123.29
131.903
139.606
146.656
153.238
159.51
165.59
171.567
177.539
183.576
189.735
196.06
202.541
209.12
215.666
221.994
227.738
232.4
235.754
237.908
239.102
239.553
60.467
60.467
60.467
60.467
60.467
60.467
60.467
60.467
60.467
60.467
60.467
60.467
60.467
60.467
60.467
60.467
60.467
60.467
60.467
60.467
60.467
60.467
60.467
60.467
60.467
60.467
60.467
60.467
60.467
60.467
60.467
60.467
60.467
60.467
60.467
60.4671
60.513
61.745
63.452
63.2085
62.0174
61.6048
61.5905
61.6492
61.6978
61.6968
61.6786
61.6607
61.6464
61.6363
61.6312
61.7016
63.3915
71.1267
83.3352
95.4652
106.663
117.02
126.208
134.335
141.66
148.404
154.746
160.82
166.724
172.56
178.406
184.328
190.388
196.612
202.992
209.476
215.93
222.168
227.823
232.407
235.7
237.821
238.992
239.438
60.467
60.467
60.467
60.467
60.467
60.467
60.467
60.467
60.467
60.467
60.467
60.467
60.467
60.467
60.467
60.467
60.467
60.467
60.467
60.467
60.467
60.467
60.467
60.467
60.467
60.467
60.467
60.467
60.467
60.467
60.467
60.467
60.467
60.467
60.467
60.467
60.4704
60.8415
62.9515
63.4319
62.5063
61.6868
61.5536
61.6213
61.6918
61.6945
61.678
61.6532
61.639
61.6292
61.6216
61.6205
61.9293
65.5506
75.6345
88.0339
99.6319
110.451
120.264
128.914
136.603
143.58
150.052
156.175
162.058
167.809
173.512
179.237
185.058
191.018
197.142
203.431
209.824
216.19
222.343
227.912
232.415
235.656
237.733
238.892
60.467
60.467
60.467
60.467
60.467
60.467
60.467
60.467
60.467
60.467
60.467
60.467
60.467
60.467
60.467
60.467
60.467
60.467
60.467
60.467
60.467
60.467
60.467
60.467
60.467
60.467
60.467
60.467
60.467
60.467
60.467
60.467
60.467
60.467
60.467
60.467
60.4672
60.5249
61.8326
63.4311
63.0541
61.8809
61.5448
61.594
61.6831
61.6899
61.677
61.6527
61.6313
61.6222
61.6141
61.6063
61.6243
62.6284
68.8359
80.3747
92.4843
103.639
114.02
123.277
131.427
138.717
145.384
151.61
157.523
163.239
168.847
174.422
180.043
185.763
191.623
197.658
203.859
210.167
216.452
222.521
227.999
232.434
235.608
237.669
60.467
60.467
60.467
60.467
60.467
60.467
60.467
60.467
60.467
60.467
60.467
60.467
60.467
60.467
60.467
60.467
60.467
60.467
60.467
60.467
60.467
60.467
60.467
60.467
60.467
60.467
60.467
60.467
60.467
60.467
60.467
60.467
60.467
60.467
60.467
60.467
60.467
60.4715
60.8909
62.9373
63.3255
62.3283
61.5772
61.5869
61.6709
61.6808
61.6763
61.6518
61.6311
61.6145
61.6062
61.5974
61.5921
61.7305
64.1938
72.9983
85.0765
96.7095
107.478
117.362
126.071
133.763
140.696
147.084
153.078
158.807
164.367
169.839
175.303
180.82
186.438
192.21
198.16
204.28
210.511
216.715
222.695
228.099
232.443
235.603
60.467
60.467
60.467
60.467
60.467
60.467
60.467
60.467
60.467
60.467
60.467
60.467
60.467
60.467
60.467
60.467
60.467
60.467
60.467
60.467
60.467
60.467
60.467
60.467
60.467
60.467
60.467
60.467
60.467
60.467
60.467
60.467
60.467
60.467
60.467
60.467
60.467
60.4672
60.5358
61.8863
63.2616
62.8049
61.7718
61.589
61.647
61.6698
61.6726
61.6545
61.6314
61.6133
61.5974
61.5885
61.5819
61.5823
62.1303
66.882
77.5667
89.6263
100.724
111.135
120.472
128.662
135.941
142.554
148.683
154.472
160.031
165.444
170.796
176.152
181.564
187.093
192.782
198.653
204.7
210.854
216.972
222.883
228.182
232.529
60.467
60.467
60.467
60.467
60.467
60.467
60.467
60.467
60.467
60.467
60.467
60.467
60.467
60.467
60.467
60.467
60.467
60.467
60.467
60.467
60.467
60.467
60.467
60.467
60.467
60.467
60.467
60.467
60.467
60.467
60.467
60.467
60.467
60.467
60.467
60.467
60.467
60.467
60.4725
60.9267
62.9012
63.2016
62.129
61.6461
61.5994
61.6511
61.6704
61.6558
61.6346
61.6126
61.5936
61.579
61.5723
61.5666
61.6212
63.1898
70.5792
82.2855
93.8826
104.628
114.575
123.353
131.069
137.979
144.298
150.197
155.798
161.196
166.48
171.717
176.964
182.284
187.73
193.341
199.144
205.12
211.191
217.246
223.047
228.389
60.467
60.467
60.467
60.467
60.467
60.467
60.467
60.467
60.467
60.467
60.467
60.467
60.467
60.467
60.467
60.467
60.467
60.467
60.467
60.467
60.467
60.467
60.467
60.467
60.467
60.467
60.467
60.467
60.467
60.467
60.467
60.467
60.467
60.467
60.467
60.467
60.467
60.467
60.4672
60.5445
61.9088
63.2259
62.7073
61.7181
61.5714
61.6213
61.6678
61.6644
61.6361
61.6135
61.5916
61.5735
61.5627
61.5573
61.5562
61.8274
65.2638
74.964
86.8304
97.9597
108.364
117.775
126.023
133.313
139.886
145.945
151.634
157.059
162.316
167.476
172.598
177.749
182.983
188.351
193.897
199.633
205.531
211.544
217.486
223.388
60.467
60.467
60.467
60.467
60.467
60.467
60.467
60.467
60.467
60.467
60.467
60.467
60.467
60.467
60.467
60.467
60.467
60.467
60.467
60.467
60.467
60.467
60.467
60.467
60.467
60.467
60.467
60.467
60.467
60.467
60.467
60.467
60.467
60.467
60.467
60.467
60.467
60.467
60.467
60.4733
60.9533
62.8952
63.0713
62.0004
61.5407
61.6037
61.6628
61.6683
61.645
61.6123
61.5906
61.5709
61.5563
61.5479
61.5436
61.5566
62.4871
68.4585
79.5575
91.1767
101.899
111.88
120.742
128.504
135.405
141.68
147.503
152.997
158.267
163.389
168.427
173.448
178.51
183.665
188.968
194.451
200.112
205.959
211.856
217.957
60.467
60.467
60.467
60.467
60.467
60.467
60.467
60.467
60.467
60.467
60.467
60.467
60.467
60.467
60.467
60.467
60.467
60.467
60.467
60.467
60.467
60.467
60.467
60.467
60.467
60.467
60.467
60.467
60.467
60.467
60.467
60.467
60.467
60.467
60.467
60.467
60.467
60.467
60.467
60.4672
60.5511
61.9288
63.0299
62.4813
61.6451
61.5988
61.6606
61.6686
61.6516
61.6167
61.5887
61.5696
61.5529
61.5406
61.5336
61.5309
61.6526
64.0007
72.5063
84.1425
95.3105
105.673
115.169
123.496
130.809
137.365
143.373
148.978
154.3
159.423
164.414
169.343
174.271
179.251
184.34
189.582
194.992
200.609
206.338
212.449
60.467
60.467
60.467
60.467
60.467
60.467
60.467
60.467
60.467
60.467
60.467
60.467
60.467
60.467
60.467
60.467
60.467
60.467
60.467
60.467
60.467
60.467
60.467
60.467
60.467
60.467
60.467
60.467
60.467
60.467
60.467
60.467
60.467
60.467
60.467
60.467
60.467
60.467
60.467
60.467
60.474
60.9658
62.7245
62.9475
61.8991
61.6098
61.6568
61.6569
61.6541
61.6222
61.5913
61.5681
61.5509
61.5357
61.5252
61.5206
61.5216
62.0305
66.624
76.9735
88.5687