/*--------------------------------*- C++ -*----------------------------------*\
| =========                 |                                                 |
| \\      /  F ield         | OpenFOAM: The Open Source CFD Toolbox           |
|  \\    /   O peration     | Version:  v2012                                 |
|   \\  /    A nd           | Website:  www.openfoam.com                      |
|    \\/     M anipulation  |                                                 |
\*---------------------------------------------------------------------------*/
FoamFile
{
    version     2.0;
    format      ascii;
    class       volScalarField;
    location    "1901";
    object      TuM;
}
// * * * * * * * * * * * * * * * * * * * * * * * * * * * * * * * * * * * * * //

dimensions      [0 0 0 0 0 0 0];


internalField   nonuniform List<scalar> 
8000
(
5.27668e-09
1.28149e-09
5.39489e-09
6.18747e-10
1.30799e-09
5.40358e-09
4.11368e-10
6.25435e-10
1.3174e-09
5.40386e-09
3.20108e-10
4.13778e-10
6.3164e-10
1.32539e-09
5.40387e-09
2.86565e-10
3.21366e-10
4.17443e-10
6.38032e-10
1.34032e-09
5.40387e-09
2.86565e-10
2.86565e-10
3.23714e-10
4.21906e-10
6.45993e-10
1.34581e-09
5.40387e-09
2.86565e-10
2.86565e-10
2.86565e-10
3.26892e-10
4.26987e-10
6.51523e-10
1.34709e-09
5.40387e-09
2.86565e-10
2.86565e-10
2.86565e-10
2.86565e-10
3.30606e-10
4.31592e-10
6.5601e-10
1.34734e-09
5.40387e-09
2.86565e-10
2.86565e-10
2.86565e-10
2.86565e-10
2.86565e-10
3.34391e-10
4.35781e-10
6.59952e-10
1.34738e-09
5.40387e-09
2.86565e-10
2.86565e-10
2.86565e-10
2.86565e-10
2.86565e-10
2.86565e-10
3.38064e-10
4.39617e-10
6.62055e-10
1.34739e-09
5.40387e-09
2.86565e-10
2.86565e-10
2.86565e-10
2.86565e-10
2.86565e-10
2.86565e-10
2.86871e-10
3.41537e-10
4.42716e-10
6.62883e-10
1.34739e-09
5.40387e-09
2.86565e-10
2.86565e-10
2.86565e-10
2.86565e-10
2.86565e-10
2.86565e-10
2.86565e-10
2.89076e-10
3.44637e-10
4.45041e-10
6.63155e-10
1.34739e-09
5.40387e-09
2.86565e-10
2.86565e-10
2.86565e-10
2.86565e-10
2.86565e-10
2.86565e-10
2.86565e-10
2.86565e-10
2.91729e-10
3.4728e-10
4.46351e-10
6.63236e-10
1.34739e-09
5.40387e-09
2.86565e-10
2.86565e-10
2.86565e-10
2.86565e-10
2.86565e-10
2.86565e-10
2.86565e-10
2.86565e-10
2.86565e-10
2.94293e-10
3.4931e-10
4.46932e-10
6.63259e-10
1.34739e-09
5.40387e-09
2.86565e-10
2.86565e-10
2.86565e-10
2.86565e-10
2.86565e-10
2.86565e-10
2.86565e-10
2.86565e-10
2.86565e-10
2.86565e-10
2.96507e-10
3.50573e-10
4.47152e-10
6.63265e-10
1.34739e-09
5.40387e-09
5.55135e-09
2.86565e-10
2.86565e-10
2.86565e-10
2.86565e-10
2.86565e-10
2.86565e-10
2.86565e-10
2.86565e-10
2.86565e-10
2.86565e-10
2.98187e-10
3.51194e-10
4.47227e-10
6.63267e-10
1.34739e-09
5.40387e-09
6.76051e-07
4.016e-09
2.86565e-10
2.86565e-10
2.86565e-10
2.86565e-10
2.86565e-10
2.86565e-10
2.86565e-10
2.86565e-10
2.86565e-10
2.86565e-10
2.9922e-10
3.5145e-10
4.47252e-10
6.63268e-10
1.34739e-09
5.40387e-09
7.41122e-05
4.45521e-07
2.50204e-09
2.86565e-10
2.86565e-10
2.86565e-10
2.86565e-10
2.86565e-10
2.86565e-10
2.86565e-10
2.86565e-10
2.86565e-10
2.86565e-10
2.99728e-10
3.51545e-10
4.47261e-10
6.63268e-10
1.34739e-09
5.40387e-09
0.00727552
4.34609e-05
2.59413e-07
1.50391e-09
2.86565e-10
2.86565e-10
2.86565e-10
2.86565e-10
2.86565e-10
2.86565e-10
2.86565e-10
2.86565e-10
2.86565e-10
2.86565e-10
2.99939e-10
3.51578e-10
4.47263e-10
6.63269e-10
1.34739e-09
5.40387e-09
0.0036801
0.33142
2.40954e-05
1.52639e-07
9.56132e-10
2.86565e-10
2.86565e-10
2.86565e-10
2.86565e-10
2.86565e-10
2.86565e-10
2.86565e-10
2.86565e-10
2.86565e-10
2.86565e-10
3.00018e-10
3.5159e-10
4.47265e-10
6.63269e-10
1.34739e-09
5.40387e-09
0.00201271
0.17271
0.0982292
1.444e-05
9.73667e-08
6.66162e-10
2.86565e-10
2.86565e-10
2.86565e-10
2.86565e-10
2.86565e-10
2.86565e-10
2.86565e-10
2.86565e-10
2.86565e-10
2.86565e-10
3.00047e-10
3.51594e-10
4.47265e-10
6.63269e-10
1.34739e-09
5.40387e-09
0.00125955
0.120774
0.0548802
0.0535498
9.57805e-06
6.635e-08
5.00176e-10
2.86565e-10
2.86565e-10
2.86565e-10
2.86565e-10
2.86565e-10
2.86565e-10
2.86565e-10
2.86565e-10
2.86565e-10
2.86565e-10
3.00057e-10
3.51595e-10
4.47265e-10
6.63269e-10
1.34739e-09
5.40387e-09
0.000864925
0.0918342
0.0563035
0.0233309
0.0390386
6.6817e-06
4.60869e-08
3.98668e-10
2.86565e-10
2.86565e-10
2.86565e-10
2.86565e-10
2.86565e-10
2.86565e-10
2.86565e-10
2.86565e-10
2.86565e-10
2.86565e-10
3.00061e-10
3.51596e-10
4.47265e-10
6.63269e-10
1.34739e-09
5.40387e-09
0.000612224
0.0716804
0.0594349
0.0241091
0.0158084
0.0315689
4.68286e-06
3.15309e-08
3.37076e-10
2.86565e-10
2.86565e-10
2.86565e-10
2.86565e-10
2.86565e-10
2.86565e-10
2.86565e-10
2.86565e-10
2.86565e-10
2.86565e-10
3.00062e-10
3.51596e-10
4.47265e-10
6.63269e-10
1.34739e-09
5.40387e-09
0.00043113
0.0539348
0.058267
0.033284
0.0136867
0.0125625
0.0266011
3.2125e-06
2.05053e-08
3.03081e-10
2.86565e-10
2.86565e-10
2.86565e-10
2.86565e-10
2.86565e-10
2.86565e-10
2.86565e-10
2.86565e-10
2.86565e-10
2.86565e-10
3.00063e-10
3.51596e-10
4.47265e-10
6.63269e-10
1.34739e-09
5.40387e-09
0.000296181
0.0385769
0.0543617
0.0402559
0.0208756
0.00988478
0.0105411
0.0232722
2.08562e-06
1.19482e-08
2.8881e-10
2.86565e-10
2.86565e-10
2.86565e-10
2.86565e-10
2.86565e-10
2.86565e-10
2.86565e-10
2.86565e-10
2.86565e-10
2.86565e-10
3.00063e-10
3.51597e-10
4.47265e-10
6.63269e-10
1.34739e-09
5.40387e-09
0.000191952
0.0263978
0.048225
0.0430013
0.0301371
0.0149887
0.00818596
0.00923944
0.0208807
1.20237e-06
6.05839e-09
2.86565e-10
2.86565e-10
2.86565e-10
2.86565e-10
2.86565e-10
2.86565e-10
2.86565e-10
2.86565e-10
2.86565e-10
2.86565e-10
2.86565e-10
3.00063e-10
3.51597e-10
4.47265e-10
6.63269e-10
1.34739e-09
5.40387e-09
0.000109598
0.0169331
0.0411483
0.0423973
0.0368921
0.023524
0.0124915
0.00747602
0.00836546
0.0191313
5.99347e-07
2.58679e-09
2.86565e-10
2.86565e-10
2.86565e-10
2.86565e-10
2.86565e-10
2.86565e-10
2.86565e-10
2.86565e-10
2.86565e-10
2.86565e-10
2.86565e-10
3.00063e-10
3.51597e-10
4.47265e-10
6.63269e-10
1.34739e-09
5.40387e-09
5.38607e-05
0.00966683
0.0333997
0.0397857
0.0390917
0.0317641
0.0202724
0.011845
0.0074627
0.00781022
0.0178933
2.47904e-07
9.41171e-10
2.86565e-10
2.86565e-10
2.86565e-10
2.86565e-10
2.86565e-10
2.86565e-10
2.86565e-10
2.86565e-10
2.86565e-10
2.86565e-10
2.86565e-10
3.00064e-10
3.51597e-10
4.47265e-10
6.63269e-10
1.34739e-09
5.40387e-09
2.17441e-05
0.00469174
0.0257062
0.0355884
0.037466
0.0384263
0.0292312
0.0195975
0.0125608
0.0080411
0.00756925
0.0171052
8.31136e-08
3.85166e-10
2.86565e-10
2.86565e-10
2.86565e-10
2.86565e-10
2.86565e-10
2.86565e-10
2.86565e-10
2.86565e-10
2.86565e-10
2.86565e-10
2.86565e-10
3.00064e-10
3.51597e-10
4.47265e-10
6.63269e-10
1.34739e-09
5.40387e-09
7.02266e-06
0.00184918
0.0188927
0.0304168
0.0342998
0.0395799
0.0378671
0.0292319
0.0210845
0.0143614
0.00933544
0.00771936
0.0167028
2.29728e-08
2.91914e-10
2.86565e-10
2.86565e-10
2.86565e-10
2.86565e-10
2.86565e-10
2.86565e-10
2.86565e-10
2.86565e-10
2.86565e-10
2.86565e-10
2.86565e-10
3.00064e-10
3.51597e-10
4.47265e-10
6.63269e-10
1.34739e-09
5.40387e-09
1.85623e-06
0.000575499
0.0131488
0.0249374
0.030616
0.0363269
0.0439366
0.0391978
0.0319876
0.0243185
0.0174902
0.0116396
0.00832098
0.0167237
5.88956e-09
2.86565e-10
2.86565e-10
2.86565e-10
2.86565e-10
2.86565e-10
2.86565e-10
2.86565e-10
2.86565e-10
2.86565e-10
2.86565e-10
2.86565e-10
2.86565e-10
3.00064e-10
3.51597e-10
4.47265e-10
6.63269e-10
1.34739e-09
5.40387e-09
4.73379e-07
0.00014583
0.00863705
0.0198121
0.02664
0.0317191
0.0426632
0.0496728
0.0438868
0.0371229
0.0297788
0.0225444
0.0150761
0.00921454
0.0170515
1.69907e-09
2.86565e-10
2.86565e-10
2.86565e-10
2.86565e-10
2.86565e-10
2.86565e-10
2.86565e-10
2.86565e-10
2.86565e-10
2.86565e-10
2.86565e-10
2.86565e-10
3.00064e-10
3.51597e-10
4.47265e-10
6.63269e-10
1.34739e-09
5.40387e-09
1.42505e-07
3.75354e-05
0.00505688
0.0151374
0.0224926
0.0273053
0.0367354
0.0530468
0.0576468
0.0514945
0.0455906
0.0384944
0.0298069
0.0191026
0.0105048
0.0176091
5.57426e-10
2.86565e-10
2.86565e-10
2.86565e-10
2.86565e-10
2.86565e-10
2.86565e-10
2.86565e-10
2.86565e-10
2.86565e-10
2.86565e-10
2.86565e-10
2.86565e-10
3.00064e-10
3.51597e-10
4.47265e-10
6.63269e-10
1.34739e-09
5.40387e-09
4.14645e-08
1.19313e-05
0.00251666
0.0110658
0.0184029
0.0233425
0.0302393
0.047142
0.0668506
0.0677749
0.0635868
0.0589406
0.050958
0.0383671
0.0235531
0.0116958
0.0180463
3.06453e-10
2.86565e-10
2.86565e-10
2.86565e-10
2.86565e-10
2.86565e-10
2.86565e-10
2.86565e-10
2.86565e-10
2.86565e-10
2.86565e-10
2.86565e-10
2.86565e-10
3.00064e-10
3.51597e-10
4.47265e-10
6.63269e-10
1.34739e-09
5.40387e-09
9.6488e-09
3.48875e-06
0.000999157
0.00767936
0.0145848
0.019594
0.0249102
0.0375477
0.0643891
0.0836694
0.0835528
0.0821842
0.077784
0.065721
0.0475009
0.0272732
0.0125381
0.0183361
2.86565e-10
2.86565e-10
2.86565e-10
2.86565e-10
2.86565e-10
2.86565e-10
2.86565e-10
2.86565e-10
2.86565e-10
2.86565e-10
2.86565e-10
2.86565e-10
2.86565e-10
3.00064e-10
3.51597e-10
4.47265e-10
6.63269e-10
1.34739e-09
5.40387e-09
1.89392e-09
7.87745e-07
0.000296581
0.00504947
0.0111098
0.0161665
0.0206578
0.0290851
0.0519276
0.0877208
0.105601
0.107202
0.107649
0.0997843
0.0811057
0.0551077
0.0298188
0.0130127
0.0184476
2.86565e-10
2.86565e-10
2.86565e-10
2.86565e-10
2.86565e-10
2.86565e-10
2.86565e-10
2.86565e-10
2.86565e-10
2.86565e-10
2.86565e-10
2.86565e-10
2.86565e-10
3.00064e-10
3.51597e-10
4.47265e-10
6.63269e-10
1.34739e-09
5.40387e-09
4.60886e-10
1.48647e-07
6.46394e-05
0.00306625
0.00814838
0.013029
0.0170394
0.0228904
0.0381716
0.0753183
0.116694
0.134728
0.138304
0.136199
0.121856
0.0938087
0.0602988
0.0312166
0.013273
0.0184487
2.86565e-10
2.86565e-10
2.86565e-10
2.86565e-10
2.86565e-10
2.86565e-10
2.86565e-10
2.86565e-10
2.86565e-10
2.86565e-10
2.86565e-10
2.86565e-10
2.86565e-10
3.00064e-10
3.51597e-10
4.47265e-10
6.63269e-10
1.34739e-09
5.40387e-09
2.92641e-10
2.932e-08
1.18759e-05
0.00160563
0.00572872
0.0101746
0.0139407
0.0183917
0.0278324
0.0553398
0.10803
0.150957
0.169844
0.171146
0.163306
0.13956
0.10239
0.0631578
0.0320075
0.0133654
0.0183442
2.86565e-10
2.86565e-10
2.86565e-10
2.86565e-10
2.86565e-10
2.86565e-10
2.86565e-10
2.86565e-10
2.86565e-10
2.86565e-10
2.86565e-10
2.86565e-10
2.86565e-10
3.00064e-10
3.51597e-10
4.47265e-10
6.63269e-10
1.34739e-09
5.40387e-09
2.86565e-10
5.61233e-09
2.43081e-06
0.000659693
0.00381619
0.00768683
0.0112183
0.0148733
0.0209472
0.0380465
0.0830255
0.146712
0.187794
0.203703
0.200486
0.183994
0.151202
0.107104
0.0647626
0.0323104
0.013362
0.0181767
2.86565e-10
2.86565e-10
2.86565e-10
2.86565e-10
2.86565e-10
2.86565e-10
2.86565e-10
2.86565e-10
2.86565e-10
2.86565e-10
2.86565e-10
2.86565e-10
2.86565e-10
3.00064e-10
3.51597e-10
4.47265e-10
6.63269e-10
1.34739e-09
5.40387e-09
2.86565e-10
9.20233e-10
4.69495e-07
0.00019538
0.00237723
0.00555583
0.008819
0.0119876
0.0163118
0.0263304
0.0562545
0.120097
0.185841
0.221535
0.231839
0.221557
0.197118
0.157504
0.109701
0.0653703
0.0323597
0.0132938
0.0179775
2.86565e-10
2.86565e-10
2.86565e-10
2.86565e-10
2.86565e-10
2.86565e-10
2.86565e-10
2.86565e-10
2.86565e-10
2.86565e-10
2.86565e-10
2.86565e-10
2.86565e-10
3.00064e-10
3.51597e-10
4.47265e-10
6.63269e-10
1.34739e-09
5.40387e-09
2.86565e-10
3.09129e-10
7.0912e-08
3.96146e-05
0.00134037
0.00384103
0.00673928
0.00953005
0.0129407
0.0190362
0.0366261
0.0838326
0.160689
0.221081
0.248147
0.250782
0.234429
0.204072
0.160855
0.110646
0.0654531
0.0322342
0.0131769
0.0177451
2.86565e-10
2.86565e-10
2.86565e-10
2.86565e-10
2.86565e-10
2.86565e-10
2.86565e-10
2.86565e-10
2.86565e-10
2.86565e-10
2.86565e-10
2.86565e-10
2.86565e-10
3.00064e-10
3.51597e-10
4.47265e-10
6.63269e-10
1.34739e-09
5.40387e-09
2.86565e-10
2.86565e-10
9.58321e-09
5.7527e-06
0.000633712
0.00252687
0.00496735
0.00743203
0.0102645
0.0143927
0.0242995
0.0534306
0.118318
0.199583
0.248511
0.265445
0.262249
0.241089
0.207587
0.161982
0.110721
0.0651796
0.0319683
0.0130388
0.0174958
2.86565e-10
2.86565e-10
2.86565e-10
2.86565e-10
2.86565e-10
2.86565e-10
2.86565e-10
2.86565e-10
2.86565e-10
2.86565e-10
2.86565e-10
2.86565e-10
2.86565e-10
3.00064e-10
3.51597e-10
4.47265e-10
6.63269e-10
1.34739e-09
5.40387e-09
2.86565e-10
2.86565e-10
1.28843e-09
7.7215e-07
0.000225307
0.00156009
0.00351965
0.00566257
0.00803924
0.0111771
0.0169822
0.0334186
0.0763463
0.157454
0.231283
0.266713
0.276122
0.26794
0.244187
0.208653
0.161969
0.110214
0.0646224
0.0316534
0.0128851
0.0172551
2.86565e-10
2.86565e-10
2.86565e-10
2.86565e-10
2.86565e-10
2.86565e-10
2.86565e-10
2.86565e-10
2.86565e-10
2.86565e-10
2.86565e-10
2.86565e-10
2.86565e-10
3.00064e-10
3.51597e-10
4.47265e-10
6.63269e-10
1.34739e-09
5.40387e-09
2.86565e-10
2.86565e-10
3.1867e-10
1.03282e-07
5.44417e-05
0.000882042
0.00237107
0.00419769
0.00618035
0.0087133
0.0125244
0.0215296
0.0465646
0.106788
0.194411
0.254495
0.278725
0.282199
0.270577
0.244978
0.208501
0.161191
0.10925
0.0639652
0.0312973
0.0127373
0.0170252
2.86565e-10
2.86565e-10
2.86565e-10
2.86565e-10
2.86565e-10
2.86565e-10
2.86565e-10
2.86565e-10
2.86565e-10
2.86565e-10
2.86565e-10
2.86565e-10
2.86565e-10
3.00064e-10
3.51597e-10
4.47265e-10
6.63269e-10
1.34739e-09
5.40387e-09
2.86565e-10
2.86565e-10
2.86565e-10
1.15301e-08
8.46322e-06
0.00043124
0.00151866
0.00300286
0.00465002
0.00671569
0.00953392
0.0147136
0.0283797
0.0653727
0.141723
0.224764
0.269729
0.286329
0.285456
0.271199
0.244635
0.20752
0.159825
0.108122
0.0632264
0.0309558
0.0125843
0.0167859
2.86565e-10
2.86565e-10
2.86565e-10
2.86565e-10
2.86565e-10
2.86565e-10
2.86565e-10
2.86565e-10
2.86565e-10
2.86565e-10
2.86565e-10
2.86565e-10
2.86565e-10
3.00064e-10
3.51597e-10
4.47265e-10
6.63269e-10
1.34739e-09
5.40387e-09
2.86565e-10
2.86565e-10
2.86565e-10
1.19623e-09
9.23392e-07
0.000163428
0.000913649
0.00206779
0.00341807
0.00507824
0.00730266
0.0106597
0.018019
0.0385908
0.0901667
0.177293
0.247568
0.280315
0.291061
0.286689
0.270808
0.243465
0.205908
0.158249
0.106866
0.0625184
0.0305913
0.0124177
0.0165464
2.86565e-10
2.86565e-10
2.86565e-10
2.86565e-10
2.86565e-10
2.86565e-10
2.86565e-10
2.86565e-10
2.86565e-10
2.86565e-10
2.86565e-10
2.86565e-10
2.86565e-10
3.00064e-10
3.51597e-10
4.47265e-10
6.63269e-10
1.34739e-09
5.40387e-09
2.86565e-10
2.86565e-10
2.86565e-10
3.04037e-10
9.26431e-08
4.22563e-05
0.000505187
0.00134885
0.00244549
0.00376067
0.00553335
0.00798151
0.0122305
0.0230679
0.0532461
0.120983
0.209065
0.26348
0.287584
0.29358
0.286837
0.26963
0.24169
0.204079
0.156512
0.105663
0.0617651
0.0301884
0.0122497
0.0163133
2.86565e-10
2.86565e-10
2.86565e-10
2.86565e-10
2.86565e-10
2.86565e-10
2.86565e-10
2.86565e-10
2.86565e-10
2.86565e-10
2.86565e-10
2.86565e-10
2.86565e-10
3.00064e-10
3.51597e-10
4.47265e-10
6.63269e-10
1.34739e-09
5.40387e-09
2.86565e-10
2.86565e-10
2.86565e-10
2.86565e-10
8.58126e-09
6.75919e-06
0.000243218
0.000833152
0.00169124
0.00272159
0.00411702
0.0060128
0.00879668
0.0145439
0.0306753
0.0737613
0.155934
0.23368
0.274616
0.292253
0.294802
0.286173
0.26788
0.239714
0.202083
0.154846
0.104389
0.060934
0.0297808
0.0120814
0.0160911
2.86565e-10
2.86565e-10
2.86565e-10
2.86565e-10
2.86565e-10
2.86565e-10
2.86565e-10
2.86565e-10
2.86565e-10
2.86565e-10
2.86565e-10
2.86565e-10
2.86565e-10
3.00064e-10
3.51597e-10
4.47265e-10
6.63269e-10
1.34739e-09
5.40387e-09
2.86565e-10
2.86565e-10
2.86565e-10
2.86565e-10
7.54866e-10
6.77717e-07
9.12516e-05
0.000482866
0.00112319
0.00192576
0.00299528
0.00448344
0.00651392
0.00986428
0.018134
0.0423591
0.101929
0.18913
0.251599
0.282574
0.295268
0.295046
0.284902
0.265944
0.237576
0.200164
0.153091
0.102986
0.0600949
0.0293691
0.0119191
0.0158725
2.86565e-10
2.86565e-10
2.86565e-10
2.86565e-10
2.86565e-10
2.86565e-10
2.86565e-10
2.86565e-10
2.86565e-10
2.86565e-10
2.86565e-10
2.86565e-10
2.86565e-10
3.00064e-10
3.51597e-10
4.47265e-10
6.63269e-10
1.34739e-09
5.40387e-09
2.86565e-10
2.86565e-10
2.86565e-10
2.86565e-10
2.88873e-10
5.4388e-08
2.30705e-05
0.000256235
0.000706231
0.00132726
0.00213192
0.00327945
0.00484101
0.0070702
0.0114464
0.0239383
0.0609168
0.134859
0.215763
0.264218
0.288313
0.296986
0.294553
0.283376
0.263849
0.235519
0.198149
0.151156
0.101572
0.0592487
0.0289707
0.0117559
0.0156583
2.86565e-10
2.86565e-10
2.86565e-10
2.86565e-10
2.86565e-10
2.86565e-10
2.86565e-10
2.86565e-10
2.86565e-10
2.86565e-10
2.86565e-10
2.86565e-10
2.86565e-10
3.00064e-10
3.51597e-10
4.47265e-10
6.63269e-10
1.34739e-09
5.40387e-09
2.86565e-10
2.86565e-10
2.86565e-10
2.86565e-10
2.86565e-10
4.0688e-09
3.47141e-06
0.000117397
0.00041817
0.000883791
0.0014836
0.00234692
0.00355391
0.00518923
0.00778804
0.0140504
0.0343514
0.0859643
0.167314
0.235912
0.273642
0.292279
0.297728
0.293687
0.281635
0.261824
0.233379
0.195929
0.149206
0.100149
0.0584304
0.0285674
0.0115994
0.0154579
2.86565e-10
2.86565e-10
2.86565e-10
2.86565e-10
2.86565e-10
2.86565e-10
2.86565e-10
2.86565e-10
2.86565e-10
2.86565e-10
2.86565e-10
2.86565e-10
2.86565e-10
3.00064e-10
3.51597e-10
4.47265e-10
6.63269e-10
1.34739e-09
5.40387e-09
2.86565e-10
2.86565e-10
2.86565e-10
2.86565e-10
2.86565e-10
3.92085e-10
3.07113e-07
4.10619e-05
0.000231336
0.000564723
0.00100962
0.00164087
0.00255892
0.00380577
0.00556791
0.0088929
0.0190792
0.0507194
0.115433
0.195813
0.251018
0.280749
0.294894
0.297886
0.292515
0.279905
0.259717
0.231125
0.19369
0.147244
0.0987717
0.0576032
0.0281838
0.0114513
0.0152634
2.86565e-10
2.86565e-10
2.86565e-10
2.86565e-10
2.86565e-10
2.86565e-10
2.86565e-10
2.86565e-10
2.86565e-10
2.86565e-10
2.86565e-10
2.86565e-10
2.86565e-10
3.00064e-10
3.51597e-10
4.47265e-10
6.63269e-10
1.34739e-09
5.40387e-09
2.86565e-10
2.86565e-10
2.86565e-10
2.86565e-10
2.86565e-10
2.86565e-10
2.03181e-08
9.32462e-06
0.000115932
0.000339525
0.000669424
0.00112252
0.00180093
0.00275232
0.00404675
0.00606203
0.0110689
0.0282277
0.0727298
0.14633
0.218399
0.262172
0.286006
0.296585
0.29758
0.291271
0.278053
0.257512
0.228846
0.191435
0.145341
0.0973818
0.0568168
0.0278196
0.0113038
0.0150754
2.86565e-10
2.86565e-10
2.86565e-10
2.86565e-10
2.86565e-10
2.86565e-10
2.86565e-10
2.86565e-10
2.86565e-10
2.86565e-10
2.86565e-10
2.86565e-10
2.86565e-10
3.00064e-10
3.51597e-10
4.47265e-10
6.63269e-10
1.34739e-09
5.40387e-09
2.86565e-10
2.86565e-10
2.86565e-10
2.86565e-10
2.86565e-10
2.86565e-10
1.2565e-09
1.19661e-06
4.89694e-05
0.000191345
0.00042801
0.000751116
0.00123901
0.00195015
0.00292631
0.00430954
0.00696484
0.0154976
0.0426254
0.098668
0.175141
0.23575
0.270788
0.289882
0.297547
0.297067
0.289847
0.276076
0.255272
0.226543
0.189241
0.143422
0.0960598
0.0560704
0.0274542
0.0111638
0.0148947
2.86565e-10
2.86565e-10
2.86565e-10
2.86565e-10
2.86565e-10
2.86565e-10
2.86565e-10
2.86565e-10
2.86565e-10
2.86565e-10
2.86565e-10
2.86565e-10
2.86565e-10
3.00064e-10
3.51597e-10
4.47265e-10
6.63269e-10
1.34739e-09
5.40387e-09
2.86565e-10
2.86565e-10
2.86565e-10
2.86565e-10
2.86565e-10
2.86565e-10
2.91568e-10
8.71563e-08
1.5068e-05
9.98866e-05
0.000261626
0.000491759
0.000832845
0.00135127
0.00208216
0.00309334
0.00471465
0.00886821
0.0235905
0.0615792
0.12685
0.199735
0.249052
0.277567
0.292661
0.298088
0.296274
0.288244
0.274029
0.252998
0.224294
0.187029
0.141593
0.0948042
0.0553225
0.0271093
0.0110266
0.0147182
2.86565e-10
2.86565e-10
2.86565e-10
2.86565e-10
2.86565e-10
2.86565e-10
2.86565e-10
2.86565e-10
2.86565e-10
2.86565e-10
2.86565e-10
2.86565e-10
2.86565e-10
3.00064e-10
3.51597e-10
4.47265e-10
6.63269e-10
1.34739e-09
5.40387e-09
2.86565e-10
2.86565e-10
2.86565e-10
2.86565e-10
2.86565e-10
2.86565e-10
2.86565e-10
4.79561e-09
2.82408e-06
4.62107e-05
0.00014944
0.000313297
0.000548304
0.000914493
0.00145158
0.00220015
0.00330923
0.00549631
0.0128561
0.0358238
0.0842139
0.155051
0.219363
0.259355
0.282809
0.294704
0.298186
0.295228
0.286522
0.271921
0.250768
0.222024
0.184913
0.13985
0.0935477
0.0546168
0.0267693
0.0108922
0.0145491
2.86565e-10
2.86565e-10
2.86565e-10
2.86565e-10
2.86565e-10
2.86565e-10
2.86565e-10
2.86565e-10
2.86565e-10
2.86565e-10
2.86565e-10
2.86565e-10
2.86565e-10
3.00064e-10
3.51597e-10
4.47265e-10
6.63269e-10
1.34739e-09
5.40387e-09
2.86565e-10
2.86565e-10
2.86565e-10
2.86565e-10
2.86565e-10
2.86565e-10
2.86565e-10
3.70158e-10
2.80731e-07
1.71714e-05
7.95482e-05
0.00019172
0.000353174
0.000605325
0.000989389
0.00153839
0.00233436
0.00365971
0.00724353
0.0197482
0.0520568
0.109491
0.180684
0.234787
0.26762
0.286912
0.296061
0.297915
0.293995
0.284697
0.269832
0.248514
0.219846
0.18289
0.138107
0.092361
0.0539218
0.0264365
0.0107641
0.014385
2.86565e-10
2.86565e-10
2.86565e-10
2.86565e-10
2.86565e-10
2.86565e-10
2.86565e-10
2.86565e-10
2.86565e-10
2.86565e-10
2.86565e-10
2.86565e-10
2.86565e-10
3.00064e-10
3.51597e-10
4.47265e-10
6.63269e-10
1.34739e-09
5.40387e-09
2.86565e-10
2.86565e-10
2.86565e-10
2.86565e-10
2.86565e-10
2.86565e-10
2.86565e-10
2.86565e-10
1.59698e-08
4.30412e-06
3.8568e-05
0.000111247
0.000222436
0.000391689
0.000659482
0.00105385
0.00162776
0.00252188
0.00438392
0.0106931
0.0300281
0.0717448
0.136092
0.20225
0.246929
0.274371
0.289994
0.296865
0.297356
0.292602
0.282856
0.267706
0.246344
0.217753
0.180864
0.136455
0.0911927
0.0532418
0.0261194
0.0106371
0.0142245
2.86565e-10
2.86565e-10
2.86565e-10
2.86565e-10
2.86565e-10
2.86565e-10
2.86565e-10
2.86565e-10
2.86565e-10
2.86565e-10
2.86565e-10
2.86565e-10
2.86565e-10
3.00064e-10
3.51597e-10
4.47265e-10
6.63269e-10
1.34739e-09
5.40387e-09
2.86565e-10
2.86565e-10
2.86565e-10
2.86565e-10
2.86565e-10
2.86565e-10
2.86565e-10
2.86565e-10
7.79984e-10
6.00921e-07
1.59427e-05
5.99681e-05
0.000135687
0.000248378
0.000429573
0.00070685
0.00111516
0.00174348
0.00284231
0.00593459
0.0164658
0.0438657
0.0942438
0.161788
0.219761
0.256746
0.279734
0.292261
0.297228
0.296552
0.291136
0.280951
0.265645
0.24425
0.215654
0.178938
0.134828
0.0900501
0.052594
0.0258034
0.0105126
0.0140701
2.86565e-10
2.86565e-10
2.86565e-10
2.86565e-10
2.86565e-10
2.86565e-10
2.86565e-10
2.86565e-10
2.86565e-10
2.86565e-10
2.86565e-10
2.86565e-10
2.86565e-10
3.00064e-10
3.51597e-10
4.47265e-10
6.63269e-10
1.34739e-09
5.40387e-09
2.86565e-10
2.86565e-10
2.86565e-10
2.86565e-10
2.86565e-10
2.86565e-10
2.86565e-10
2.86565e-10
2.86566e-10
4.22603e-08
4.87842e-06
2.98227e-05
7.92408e-05
0.000154053
0.000273826
0.000463806
0.000749251
0.0011905
0.00190908
0.00349866
0.00885041
0.0250975
0.060953
0.118643
0.184894
0.233858
0.264841
0.28395
0.293866
0.297214
0.295598
0.289566
0.279085
0.263642
0.242145
0.213652
0.177037
0.133235
0.0889606
0.0519491
0.0254935
0.0103923
0.0139187
2.86565e-10
2.86565e-10
2.86565e-10
2.86565e-10
2.86565e-10
2.86565e-10
2.86565e-10
2.86565e-10
2.86565e-10
2.86565e-10
2.86565e-10
2.86565e-10
2.86565e-10
3.00064e-10
3.51597e-10
4.47265e-10
6.63269e-10
1.34739e-09
5.40387e-09
2.86565e-10
2.86565e-10
2.86565e-10
2.86565e-10
2.86565e-10
2.86565e-10
2.86565e-10
2.86565e-10
2.86565e-10
1.89273e-09
9.01434e-07
1.31113e-05
4.31343e-05
9.31963e-05
0.000170844
0.000297794
0.00049344
0.000798317
0.00128831
0.00219925
0.00483715
0.0136867
0.0368012
0.0808301
0.1437
0.204216
0.245168
0.271521
0.287211
0.294908
0.296939
0.294476
0.287992
0.277252
0.261617
0.240129
0.21167
0.175171
0.131712
0.0878765
0.0513168
0.0251936
0.0102731
0.013773
2.86565e-10
2.86565e-10
2.86565e-10
2.86565e-10
2.86565e-10
2.86565e-10
2.86565e-10
2.86565e-10
2.86565e-10
2.86565e-10
2.86565e-10
2.86565e-10
2.86565e-10
3.00064e-10
3.51597e-10
4.47265e-10
6.63269e-10
1.34739e-09
5.40387e-09
2.86565e-10
2.86565e-10
2.86565e-10
2.86565e-10
2.86565e-10
2.86565e-10
2.86565e-10
2.86565e-10
2.86565e-10
2.92159e-10
8.35459e-08
4.60167e-06
2.16669e-05
5.42439e-05
0.000104376
0.000187098
0.000318524
0.00052498
0.000859685
0.00143407
0.00277827
0.00730019
0.0208655
0.0515453
0.10292
0.167348
0.220099
0.254619
0.276933
0.289657
0.295531
0.296404
0.293294
0.286415
0.275379
0.259669
0.23813
0.209722
0.173381
0.130195
0.0868133
0.0507051
0.0248956
0.0101606
0.0136358
2.86565e-10
2.86565e-10
2.86565e-10
2.86565e-10
2.86565e-10
2.86565e-10
2.86565e-10
2.86565e-10
2.86565e-10
2.86565e-10
2.86565e-10
2.86565e-10
2.86565e-10
3.00063e-10
3.51597e-10
4.47265e-10
6.63269e-10
1.34739e-09
5.40387e-09
2.86565e-10
2.86565e-10
2.86565e-10
2.86565e-10
2.86565e-10
2.86565e-10
2.86565e-10
2.86565e-10
2.86565e-10
2.86565e-10
4.019e-09
1.06356e-06
9.85346e-06
2.98599e-05
6.24098e-05
0.000115006
0.000201457
0.000338553
0.000563748
0.000942215
0.00169125
0.00392786
0.0113013
0.0306984
0.068941
0.126523
0.188313
0.23315
0.262555
0.281217
0.29147
0.295765
0.295726
0.292059
0.284769
0.273564
0.257728
0.236161
0.207844
0.171594
0.128704
0.0857846
0.050098
0.0246163
0.0100538
0.0135011
2.86565e-10
2.86565e-10
2.86565e-10
2.86565e-10
2.86565e-10
2.86565e-10
2.86565e-10
2.86565e-10
2.86565e-10
2.86565e-10
2.86565e-10
2.86565e-10
2.86565e-10
3.00063e-10
3.51597e-10
4.47265e-10
6.63269e-10
1.34739e-09
5.40387e-09
2.86565e-10
2.86565e-10
2.86565e-10
2.86565e-10
2.86565e-10
2.86565e-10
2.86565e-10
2.86565e-10
2.86565e-10
2.86565e-10
3.19576e-10
1.29517e-07
3.73058e-06
1.51369e-05
3.61213e-05
6.92925e-05
0.000124717
0.000214282
0.000362707
0.000613374
0.00106911
0.00219669
0.00597555
0.0172201
0.0432223
0.0888053
0.150229
0.205977
0.243899
0.269145
0.284599
0.292716
0.295741
0.294928
0.290714
0.283152
0.271743
0.25581
0.234256
0.205965
0.169834
0.127259
0.0847643
0.0495288
0.0243505
0.00994693
0.0133692
2.86565e-10
2.86565e-10
2.86565e-10
2.86565e-10
2.86565e-10
2.86565e-10
2.86565e-10
2.86565e-10
2.86565e-10
2.86565e-10
2.86565e-10
2.86565e-10
2.86565e-10
3.00063e-10
3.51597e-10
4.47265e-10
6.63269e-10
1.34739e-09
5.40387e-09
2.86565e-10
2.86565e-10
2.86565e-10
2.86565e-10
2.86565e-10
2.86565e-10
2.86565e-10
2.86565e-10
2.86565e-10
2.86565e-10
2.86565e-10
7.38901e-09
1.00672e-06
6.98424e-06
1.99428e-05
4.08216e-05
7.56135e-05
0.000133105
0.00022898
0.000392978
0.000683244
0.00129314
0.00316455
0.00924387
0.0253378
0.0584687
0.110697
0.172256
0.220669
0.253042
0.274544
0.287173
0.293545
0.295507
0.293968
0.289361
0.281508
0.269931
0.253944
0.232345
0.204109
0.168123
0.125826
0.0838067
0.0489874
0.0240829
0.00984338
0.0132418
2.86565e-10
2.86565e-10
2.86565e-10
2.86565e-10
2.86565e-10
2.86565e-10
2.86565e-10
2.86565e-10
2.86565e-10
2.86565e-10
2.86565e-10
2.86565e-10
2.86565e-10
3.00063e-10
3.51597e-10
4.47265e-10
6.63269e-10
1.34739e-09
5.40387e-09
2.86565e-10
2.86565e-10
2.86565e-10
2.86565e-10
2.86565e-10
2.86565e-10
2.86565e-10
2.86565e-10
2.86565e-10
2.86565e-10
2.86565e-10
3.85495e-10
1.53264e-07
2.80403e-06
1.01633e-05
2.34116e-05
4.48872e-05
8.11216e-05
0.000141857
0.000247354
0.000433727
0.000790956
0.00172389
0.00483561
0.0140323
0.035979
0.0762275
0.133764
0.191526
0.232843
0.260798
0.278843
0.28912
0.29404
0.295037
0.292948
0.287951
0.279854
0.268158
0.252067
0.230456
0.202301
0.166425
0.124478
0.0828954
0.0484425
0.0238246
0.0097428
0.0131156
2.86565e-10
2.86565e-10
2.86565e-10
2.86565e-10
2.86565e-10
2.86565e-10
2.86565e-10
2.86565e-10
2.86565e-10
2.86565e-10
2.86565e-10
2.86565e-10
2.86565e-10
3.00063e-10
3.51597e-10
4.47265e-10
6.63269e-10
1.34739e-09
5.40387e-09
2.86565e-10
2.86565e-10
2.86565e-10
2.86565e-10
2.86565e-10
2.86565e-10
2.86565e-10
2.86565e-10
2.86565e-10
2.86565e-10
2.86565e-10
2.86566e-10
1.07731e-08
8.44834e-07
4.7347e-06
1.28648e-05
2.60586e-05
4.84887e-05
8.63889e-05
0.000152878
0.000271365
0.0004909
0.000981104
0.00251836
0.00745044
0.020739
0.0492523
0.096365
0.156304
0.207807
0.243135
0.267268
0.28225
0.290565
0.294198
0.29444
0.291832
0.286505
0.27822
0.266366
0.250208
0.22861
0.200504
0.164822
0.123191
0.0819787
0.0479169
0.0235733
0.00964189
0.0129916
2.86565e-10
2.86565e-10
2.86565e-10
2.86565e-10
2.86565e-10
2.86565e-10
2.86565e-10
2.86565e-10
2.86565e-10
2.86565e-10
2.86565e-10
2.86565e-10
2.86565e-10
3.00063e-10
3.51597e-10
4.47265e-10
6.63269e-10
1.34739e-09
5.40387e-09
2.86565e-10
2.86565e-10
2.86565e-10
2.86565e-10
2.86565e-10
2.86565e-10
2.86565e-10
2.86565e-10
2.86565e-10
2.86565e-10
2.86565e-10
2.86565e-10
4.84233e-10
1.54119e-07
1.93985e-06
6.58089e-06
1.47861e-05
2.83691e-05
5.17249e-05
9.28141e-05
0.0001669
0.000303603
0.000579907
0.00133699
0.00385125
0.0113279
0.0297237
0.0651367
0.11822
0.176857
0.221514
0.251989
0.272548
0.284938
0.291533
0.294138
0.293696
0.290647
0.285058
0.276552
0.264592
0.248388
0.226776
0.198803
0.163287
0.121897
0.0810942
0.0474056
0.0233203
0.00954381
0.0128701
2.86565e-10
2.86565e-10
2.86565e-10
2.86565e-10
2.86565e-10
2.86565e-10
2.86565e-10
2.86565e-10
2.86565e-10
2.86565e-10
2.86565e-10
2.86565e-10
2.86565e-10
3.00063e-10
3.51597e-10
4.47265e-10
6.63269e-10
1.34739e-09
5.40387e-09
2.86565e-10
2.86565e-10
2.86565e-10
2.86565e-10
2.86565e-10
2.86565e-10
2.86565e-10
2.86565e-10
2.86565e-10
2.86565e-10
2.86565e-10
2.86565e-10
2.86567e-10
1.3321e-08
6.29907e-07
3.07503e-06
8.0657e-06
1.62813e-05
3.04053e-05
5.53747e-05
0.000100869
0.000185349
0.000349091
0.000736119
0.00197284
0.00594238
0.0168493
0.0412396
0.0834075
0.140668
0.194675
0.232953
0.259504
0.276851
0.286961
0.292162
0.293861
0.292836
0.289435
0.283563
0.274892
0.262846
0.246575
0.225035
0.197169
0.161742
0.120647
0.0802336
0.0468912
0.0230753
0.00944558
0.0127485
2.86565e-10
2.86565e-10
2.86565e-10
2.86565e-10
2.86565e-10
2.86565e-10
2.86565e-10
2.86565e-10
2.86565e-10
2.86565e-10
2.86565e-10
2.86565e-10
2.86565e-10
3.00063e-10
3.51597e-10
4.47265e-10
6.63269e-10
1.34739e-09
5.40387e-09
2.86565e-10
2.86565e-10
2.86565e-10
2.86565e-10
2.86565e-10
2.86565e-10
2.86565e-10
2.86565e-10
2.86565e-10
2.86565e-10
2.86565e-10
2.86565e-10
2.86565e-10
5.97411e-10
1.31303e-07
1.28667e-06
4.14654e-06
9.12568e-06
1.75501e-05
3.2471e-05
5.99311e-05
0.000111306
0.000210191
0.00042029
0.00102247
0.00303262
0.00907936
0.0243928
0.0552832
0.103788
0.162052
0.209787
0.242855
0.26585
0.280242
0.28848
0.292476
0.293406
0.291913
0.288155
0.282058
0.273247
0.261102
0.244851
0.223357
0.195522
0.160245
0.119428
0.0793682
0.0463929
0.0228284
0.00934536
0.0126293
2.86565e-10
2.86565e-10
2.86565e-10
2.86565e-10
2.86565e-10
2.86565e-10
2.86565e-10
2.86565e-10
2.86565e-10
2.86565e-10
2.86565e-10
2.86565e-10
2.86565e-10
3.00063e-10
3.51597e-10
4.47265e-10
6.63269e-10