/*--------------------------------*- C++ -*----------------------------------*\
| =========                 |                                                 |
| \\      /  F ield         | OpenFOAM: The Open Source CFD Toolbox           |
|  \\    /   O peration     | Version:  v2012                                 |
|   \\  /    A nd           | Website:  www.openfoam.com                      |
|    \\/     M anipulation  |                                                 |
\*---------------------------------------------------------------------------*/
FoamFile
{
    version     2.0;
    format      ascii;
    class       volVectorField;
    location    "1901";
    object      U;
}
// * * * * * * * * * * * * * * * * * * * * * * * * * * * * * * * * * * * * * //

dimensions      [0 1 -1 0 0 0 0];


internalField   nonuniform List<vector> 
8000
(
(703.36 -1.68411e-13 0)
(703.36 5.07299e-14 0)
(703.36 -1.47554e-13 0)
(703.36 -1.74827e-14 0)
(703.36 -9.86107e-15 0)
(703.36 6.44135e-14 0)
(703.36 1.93301e-13 0)
(703.36 -8.97129e-14 0)
(703.36 -4.36619e-14 0)
(703.36 -7.88845e-14 0)
(703.36 -9.24032e-14 0)
(703.36 8.23432e-14 0)
(703.36 -3.99882e-14 0)
(703.36 -6.67926e-14 0)
(703.36 -1.41574e-13 0)
(703.36 2.50227e-14 0)
(703.36 2.82584e-14 0)
(703.36 -5.16563e-14 0)
(703.36 2.72675e-14 0)
(703.36 -1.12889e-13 0)
(703.36 6.28211e-15 0)
(703.36 6.8121e-14 0)
(703.36 9.75887e-14 0)
(703.36 4.69666e-14 0)
(703.36 3.74944e-14 0)
(703.36 -7.3591e-15 0)
(703.36 -7.32194e-14 0)
(703.36 5.33405e-14 0)
(703.36 -4.43772e-14 0)
(703.36 5.79037e-14 0)
(703.36 -2.593e-14 0)
(703.36 2.82725e-14 0)
(703.36 6.24746e-14 0)
(703.36 3.98413e-14 0)
(703.36 -3.74696e-14 0)
(703.36 -9.3204e-15 0)
(703.36 -2.69304e-14 0)
(703.36 -1.33608e-13 0)
(703.36 -7.73648e-15 0)
(703.36 -5.55415e-14 0)
(703.36 -5.61714e-14 0)
(703.36 1.24467e-14 0)
(703.36 8.66212e-14 0)
(703.36 1.5737e-14 0)
(703.36 -1.07736e-13 0)
(703.36 6.70813e-15 0)
(703.36 7.43687e-14 0)
(703.36 -7.97043e-15 0)
(703.36 1.33123e-15 0)
(703.36 1.74442e-14 0)
(703.36 -2.31625e-13 0)
(703.36 1.55277e-13 0)
(703.36 3.19775e-14 0)
(703.36 -8.77796e-15 0)
(703.36 -7.13722e-14 0)
(703.36 -6.64894e-14 0)
(703.36 2.6447e-15 0)
(703.36 1.24584e-13 0)
(703.36 5.18535e-14 0)
(703.36 -1.16346e-13 0)
(703.36 5.26427e-14 0)
(703.36 -1.58669e-13 0)
(703.36 5.57491e-14 0)
(703.36 1.141e-13 0)
(703.36 2.61923e-14 0)
(703.36 5.90947e-15 0)
(703.36 -1.43242e-13 0)
(703.36 -7.69607e-14 0)
(703.36 5.0716e-14 0)
(703.36 6.68252e-14 0)
(703.36 2.80405e-14 0)
(703.36 -1.08188e-13 0)
(703.36 3.41486e-14 0)
(703.36 -4.84152e-14 0)
(703.36 -1.88973e-13 0)
(703.36 6.90996e-14 0)
(703.36 -2.18651e-14 0)
(703.36 1.6774e-13 0)
(703.36 -9.97732e-14 0)
(703.36 -1.06347e-13 0)
(703.36 -2.72002e-14 0)
(703.36 -5.50174e-14 0)
(703.36 7.22955e-14 0)
(703.36 1.4278e-13 0)
(703.36 -1.26457e-13 0)
(703.36 6.4415e-15 0)
(703.36 -4.73094e-14 0)
(703.36 -2.08442e-14 0)
(703.36 1.15622e-13 0)
(703.36 -3.1373e-14 0)
(703.36 8.62168e-14 0)
(703.36 -3.99018e-14 0)
(703.36 -1.89695e-14 0)
(703.36 -8.07283e-14 0)
(703.36 1.52715e-15 0)
(703.36 2.63446e-14 0)
(703.36 -1.45673e-14 0)
(703.36 7.56941e-14 0)
(703.36 -1.60951e-13 0)
(703.36 1.21235e-13 0)
(703.36 -5.07129e-14 0)
(703.36 1.25597e-13 0)
(703.36 1.81329e-13 0)
(703.36 -1.21203e-15 0)
(703.36 -4.35825e-14 0)
(703.36 5.69404e-15 0)
(703.36 -2.6217e-14 0)
(703.36 -2.41554e-14 0)
(703.36 -1.9429e-13 0)
(703.36 -4.29683e-15 0)
(703.36 1.1649e-13 0)
(703.36 1.16078e-13 0)
(703.36 7.37353e-14 0)
(703.36 -1.13828e-13 0)
(703.36 1.14381e-13 0)
(703.36 -8.99604e-14 0)
(703.36 -9.9314e-14 0)
(703.36 1.04484e-13 0)
(703.36 -4.57771e-14 0)
(703.36 2.7933e-14 0)
(703.36 1.33025e-13 0)
(703.36 -7.77418e-14 0)
(703.36 -3.10288e-14 0)
(703.36 -8.02444e-14 0)
(703.36 -6.90114e-14 0)
(703.36 -5.1427e-14 0)
(703.36 1.02157e-13 0)
(703.36 1.9914e-13 0)
(703.36 3.73779e-14 0)
(703.36 -9.42917e-14 0)
(703.36 1.40268e-13 0)
(703.36 -1.59727e-13 0)
(703.36 -9.45272e-14 0)
(703.36 1.6577e-13 0)
(703.36 3.90616e-14 0)
(703.36 7.50978e-14 0)
(703.36 1.74632e-10 0)
(703.36 2.14645e-13 0)
(703.36 -7.68777e-14 0)
(703.36 -7.9354e-14 0)
(703.36 -2.51788e-14 0)
(703.36 -1.7039e-14 0)
(703.36 7.57472e-16 0)
(703.36 2.71177e-13 0)
(703.36 8.65795e-14 0)
(703.36 8.43913e-15 0)
(703.36 -7.87236e-14 0)
(703.36 6.36063e-14 0)
(703.36 -1.34715e-13 0)
(703.36 4.80419e-14 0)
(703.36 1.42295e-13 0)
(703.36 2.15736e-13 0)
(703.36 -6.09223e-14 0)
(703.36 4.4508e-08 0)
(703.36 3.61936e-10 0)
(703.36 1.787e-13 0)
(703.36 -7.73481e-14 0)
(703.36 -2.60909e-14 0)
(703.36 -5.89747e-14 0)
(703.36 -1.31489e-13 0)
(703.36 3.23387e-14 0)
(703.36 1.97339e-13 0)
(703.36 1.38982e-14 0)
(703.36 1.24233e-13 0)
(703.36 -1.2576e-13 0)
(703.36 -3.80218e-14 0)
(703.36 -2.75432e-13 0)
(703.36 5.28394e-14 0)
(703.36 -6.78605e-14 0)
(703.36 8.03485e-14 0)
(703.36 -2.05211e-14 0)
(703.357 5.84976e-05 0)
(703.36 4.90686e-08 0)
(703.36 4.35819e-10 0)
(703.36 8.82836e-14 0)
(703.36 -1.3582e-13 0)
(703.36 1.48344e-13 0)
(703.36 -9.27322e-14 0)
(703.36 -1.96969e-13 0)
(703.36 1.43177e-14 0)
(703.36 6.78383e-14 0)
(703.36 -8.37047e-15 0)
(703.36 -5.48481e-14 0)
(703.36 -2.13413e-13 0)
(703.36 6.2764e-14 0)
(703.36 -1.95863e-13 0)
(703.36 -1.32143e-14 0)
(703.36 6.93286e-14 0)
(703.36 2.06384e-14 0)
(703.36 1.98111e-13 0)
(703.243 0.278829 0)
(703.359 0.00012173 0)
(703.36 6.14253e-08 0)
(703.36 4.36059e-10 0)
(703.36 1.28105e-13 0)
(703.36 -6.43258e-14 0)
(703.36 1.72285e-14 0)
(703.36 -2.93106e-14 0)
(703.36 -1.41135e-13 0)
(703.36 -1.23411e-14 0)
(703.36 1.35054e-13 0)
(703.36 -5.85744e-14 0)
(703.36 -1.09165e-13 0)
(703.36 2.60468e-14 0)
(703.36 -1.4119e-14 0)
(703.36 -1.82704e-13 0)
(703.36 -4.85126e-14 0)
(703.36 1.83462e-13 0)
(703.36 -3.02503e-14 0)
(703.36 -7.2324e-15 0)
(703.278 0.0916672 0)
(319.452 21.4892 0)
(703.359 0.000140875 0)
(703.36 5.77891e-08 0)
(703.36 3.94333e-10 0)
(703.36 1.66299e-13 0)
(703.36 -1.13321e-13 0)
(703.36 1.81063e-14 0)
(703.36 8.61913e-14 0)
(703.36 -9.80708e-14 0)
(703.36 1.71854e-14 0)
(703.36 1.17445e-13 0)
(703.36 -5.13982e-14 0)
(703.36 -5.51009e-14 0)
(703.36 -5.17658e-14 0)
(703.36 -8.9843e-14 0)
(703.36 -2.40439e-13 0)
(703.36 -4.88486e-14 0)
(703.36 4.80833e-14 0)
(703.36 -9.56979e-15 0)
(703.36 -1.69705e-13 0)
(703.323 0.116147 0)
(520.465 45.758 0)
(97.7097 1.36456 0)
(703.36 8.01715e-05 0)
(703.36 5.04967e-08 0)
(703.36 3.51175e-10 0)
(703.36 1.15769e-13 0)
(703.36 -6.17417e-14 0)
(703.36 2.51509e-14 0)
(703.36 -2.86219e-14 0)
(703.36 -5.33001e-14 0)
(703.36 -5.13464e-15 0)
(703.36 1.23849e-13 0)
(703.36 1.53813e-14 0)
(703.36 -1.11999e-13 0)
(703.36 -1.47575e-13 0)
(703.36 -3.71218e-14 0)
(703.36 -1.80978e-13 0)
(703.36 -6.87925e-14 0)
(703.36 4.34531e-14 0)
(703.36 8.19209e-14 0)
(703.36 -4.81828e-14 0)
(703.33 0.091851 0)
(609.443 50.6848 0)
(277.859 7.5088 0)
(59.1712 0.277641 0)
(703.36 3.18341e-05 0)
(703.36 4.50066e-08 0)
(703.36 2.95237e-10 0)
(703.36 2.30189e-13 0)
(703.36 -2.12653e-14 0)
(703.36 3.31151e-14 0)
(703.36 -1.15426e-13 0)
(703.36 -6.61178e-14 0)
(703.36 -2.18935e-14 0)
(703.36 1.60052e-13 0)
(703.36 6.27183e-14 0)
(703.36 -5.24449e-14 0)
(703.36 1.94257e-14 0)
(703.36 -2.00364e-14 0)
(703.36 -8.42842e-14 0)
(703.36 -9.69028e-15 0)
(703.36 2.62121e-14 0)
(703.36 1.89219e-14 0)
(703.36 -6.02739e-14 0)
(703.341 0.0806136 0)
(655.823 48.7024 0)
(431.829 18.467 0)
(180.401 1.71493 0)
(44.3525 0.0997449 0)
(703.36 2.64061e-05 0)
(703.36 3.80342e-08 0)
(703.36 2.45469e-10 0)
(703.36 8.90345e-15 0)
(703.36 -7.58465e-14 0)
(703.36 -4.52323e-14 0)
(703.36 -1.60118e-13 0)
(703.36 -1.25666e-13 0)
(703.36 -5.92132e-14 0)
(703.36 5.49321e-14 0)
(703.36 5.96125e-14 0)
(703.36 -4.76736e-14 0)
(703.36 1.17164e-15 0)
(703.36 -6.95153e-14 0)
(703.36 -1.4916e-13 0)
(703.36 -7.58255e-14 0)
(703.36 1.03282e-13 0)
(703.36 -9.60054e-14 0)
(703.36 -5.19422e-14 0)
(703.345 0.0560898 0)
(680.024 42.1567 0)
(543.131 31.7288 0)
(306.909 4.85087 0)
(135.407 0.678449 0)
(36.7333 0.0775404 0)
(703.36 2.14045e-05 0)
(703.36 3.15728e-08 0)
(703.36 1.99415e-10 0)
(703.36 -2.8305e-14 0)
(703.36 -5.24741e-14 0)
(703.36 -1.21595e-13 0)
(703.36 -1.52769e-14 0)
(703.36 -1.10045e-13 0)
(703.36 -1.34768e-15 0)
(703.36 4.25284e-14 0)
(703.36 6.5791e-14 0)
(703.36 -1.05592e-13 0)
(703.36 -1.02118e-13 0)
(703.36 -6.04728e-14 0)
(703.36 -1.96134e-13 0)
(703.36 -1.26523e-13 0)
(703.36 7.35983e-14 0)
(703.36 1.83554e-13 0)
(703.36 -8.7423e-14 0)
(703.35 0.0404196 0)
(691.384 35.5881 0)
(612.226 42.2791 0)
(429.383 9.99806 0)
(233.051 2.02196 0)
(112.056 0.463283 0)
(31.3973 0.0457121 0)
(703.36 1.71727e-05 0)
(703.36 2.54118e-08 0)
(703.36 1.59872e-10 0)
(703.36 -9.73189e-15 0)
(703.36 -1.68549e-13 0)
(703.36 -9.78276e-16 0)
(703.36 -3.23762e-14 0)
(703.36 -1.56006e-13 0)
(703.36 4.67716e-14 0)
(703.36 -2.1552e-14 0)
(703.36 1.91647e-14 0)
(703.36 -1.86199e-13 0)
(703.36 -4.74661e-14 0)
(703.36 -3.21934e-14 0)
(703.36 -2.51334e-13 0)
(703.36 -9.13678e-14 0)
(703.36 6.49585e-14 0)
(703.36 7.71725e-14 0)
(703.36 -7.62179e-14 0)
(703.353 0.0267959 0)
(695.97 30.1194 0)
(652.355 48.9319 0)
(530.481 16.8067 0)
(336.476 4.41158 0)
(192.768 1.27608 0)
(96.1094 0.281208 0)
(27.7329 0.0295443 0)
(703.36 1.34695e-05 0)
(703.36 2.0036e-08 0)
(703.36 1.25328e-10 0)
(703.36 -1.30561e-14 0)
(703.36 -5.99922e-14 0)
(703.36 -7.07247e-14 0)
(703.36 -1.01815e-13 0)
(703.36 -1.08936e-14 0)
(703.36 -1.29837e-13 0)
(703.36 2.62113e-14 0)
(703.36 -1.13979e-13 0)
(703.36 -1.92383e-13 0)
(703.36 -5.82168e-14 0)
(703.36 -5.49621e-14 0)
(703.36 -2.02628e-13 0)
(703.36 -5.82483e-14 0)
(703.36 9.73293e-14 0)
(703.36 -4.18397e-14 0)
(703.36 -3.33826e-14 0)
(703.355 0.0173822 0)
(697.63 24.7579 0)
(674.577 50.5621 0)
(602.19 23.6565 0)
(440.215 7.99114 0)
(279.197 2.63496 0)
(165.669 0.786264 0)
(85.0212 0.18386 0)
(25.0655 0.0211662 0)
(703.36 1.04366e-05 0)
(703.36 1.53804e-08 0)
(703.36 9.58443e-11 0)
(703.36 9.56373e-14 0)
(703.36 4.32841e-14 0)
(703.36 -6.86786e-14 0)
(703.36 -7.74764e-14 0)
(703.36 -2.7467e-14 0)
(703.36 7.81564e-14 0)
(703.36 1.96271e-13 0)
(703.36 -5.18162e-14 0)
(703.36 -1.95683e-14 0)
(703.36 -1.27715e-14 0)
(703.36 -1.35929e-13 0)
(703.36 -1.72828e-13 0)
(703.36 -8.88759e-14 0)
(703.36 -2.3103e-14 0)
(703.36 1.60672e-13 0)
(703.36 -5.54941e-14 0)
(703.357 0.0110211 0)
(698.656 19.1321 0)
(686.277 48.2072 0)
(646.084 29.9346 0)
(533.302 12.5094 0)
(370.492 4.72075 0)
(240.543 1.63172 0)
(146.718 0.517431 0)
(76.9091 0.129952 0)
(23.0955 0.0140274 0)
(703.36 7.85092e-06 0)
(703.36 1.14348e-08 0)
(703.36 7.13466e-11 0)
(703.36 4.9362e-14 0)
(703.36 4.9628e-14 0)
(703.36 -1.3227e-14 0)
(703.36 -5.84454e-14 0)
(703.36 -1.3904e-13 0)
(703.36 9.0437e-14 0)
(703.36 1.05536e-13 0)
(703.36 8.35657e-15 0)
(703.36 9.71047e-14 0)
(703.36 -8.16162e-14 0)
(703.36 -1.90793e-13 0)
(703.36 -3.16655e-13 0)
(703.36 -4.07839e-14 0)
(703.36 4.15186e-14 0)
(703.36 2.48772e-14 0)
(703.36 -3.71105e-14 0)
(703.358 0.00676784 0)
(699.833 13.5838 0)
(691.64 44.9293 0)
(670.875 35.1066 0)
(604.071 17.4019 0)
(462.866 7.66908 0)
(320.779 2.91655 0)
(213.304 1.07834 0)
(132.789 0.364045 0)
(70.8726 0.0879984 0)
(21.7187 0.00930059 0)
(703.36 5.64781e-06 0)
(703.36 8.21353e-09 0)
(703.36 5.1647e-11 0)
(703.36 -8.24006e-14 0)
(703.36 5.80444e-14 0)
(703.36 4.43051e-15 0)
(703.36 -2.90519e-14 0)
(703.36 -1.77401e-13 0)
(703.36 -1.02773e-14 0)
(703.36 -3.62638e-14 0)
(703.36 7.37857e-16 0)
(703.36 2.23448e-14 0)
(703.36 -7.68486e-14 0)
(703.36 -1.58304e-13 0)
(703.36 -1.02735e-13 0)
(703.36 -6.29103e-14 0)
(703.36 5.3519e-15 0)
(703.36 -1.00883e-13 0)
(703.36 -7.76898e-14 0)
(703.359 0.00383624 0)
(701.101 9.00249 0)
(693.909 41.4455 0)
(683.513 38.9045 0)
(649.4 22.0201 0)
(547.648 11.3417 0)
(405.341 4.75707 0)
(285.057 1.93149 0)
(193.167 0.757129 0)
(122.364 0.249911 0)
(66.6026 0.058628 0)
(20.8688 0.00474866 0)
(703.36 3.86446e-06 0)
(703.36 5.6773e-09 0)
(703.36 3.59237e-11 0)
(703.36 -3.992e-14 0)
(703.36 -8.83948e-14 0)
(703.36 -3.79903e-14 0)
(703.36 -4.49611e-14 0)
(703.36 -9.0059e-14 0)
(703.36 -7.30667e-14 0)
(703.36 2.8589e-14 0)
(703.36 5.96901e-15 0)
(703.36 3.00079e-14 0)
(703.36 -7.13172e-14 0)
(703.36 -1.05285e-13 0)
(703.36 1.31518e-14 0)
(703.36 -4.96933e-14 0)
(703.36 6.65896e-15 0)
(703.36 -1.01663e-13 0)
(703.36 -1.53559e-13 0)
(703.359 0.00206742 0)
(702.05 5.50277 0)
(694.852 36.7728 0)
(689.066 40.927 0)
(674.451 26.1081 0)
(614.012 15.0856 0)
(490.626 7.24362 0)
(361.756 3.15681 0)
(258.405 1.35435 0)
(178.012 0.524066 0)
(114.92 0.167608 0)
(63.9579 0.0315816 0)
(20.4555 0.00263049 0)
(703.36 2.50681e-06 0)
(703.36 3.77e-09 0)
(703.36 2.43682e-11 0)
(703.36 -4.2502e-14 0)
(703.36 -2.00184e-14 0)
(703.36 -1.84798e-13 0)
(703.36 -7.70216e-14 0)
(703.36 1.16133e-13 0)
(703.36 -5.6224e-14 0)
(703.36 2.05128e-14 0)
(703.36 4.82321e-14 0)
(703.36 4.21596e-14 0)
(703.36 -2.05273e-13 0)
(703.36 -2.68347e-13 0)
(703.36 -1.41892e-13 0)
(703.36 -7.91029e-14 0)
(703.36 -2.08953e-15 0)
(703.36 -1.64819e-13 0)
(703.36 -1.02703e-13 0)
(703.36 0.00100715 0)
(702.639 3.11341 0)
(695.588 32.0216 0)
(691.087 41.7212 0)
(686.713 29.606 0)
(656.877 18.0824 0)
(568.596 10.296 0)
(442.071 4.8479 0)
(328.574 2.21017 0)
(238.213 0.942893 0)
(167.095 0.352919 0)
(110.303 0.0907837 0)
(62.804 0.0119569 0)
(20.4597 -0.00124105 0)
(703.36 1.54077e-06 0)
(703.36 2.4004e-09 0)
(703.36 1.60058e-11 0)
(703.36 1.91252e-14 0)
(703.36 -1.00929e-13 0)
(703.36 -1.19655e-13 0)
(703.36 -3.75044e-14 0)
(703.36 1.01476e-13 0)
(703.36 2.02737e-13 0)
(703.36 -7.68064e-14 0)
(703.36 2.11345e-13 0)
(703.36 -5.26605e-14 0)
(703.36 -2.74315e-14 0)
(703.36 -4.24065e-13 0)
(703.36 -2.79615e-13 0)
(703.36 -7.78863e-14 0)
(703.36 -1.00153e-13 0)
(703.36 -9.34935e-14 0)
(703.36 5.80846e-14 0)
(703.36 0.000482012 0)
(702.986 1.62898 0)
(696.755 25.5591 0)
(692.031 41.2625 0)
(691.929 32.4933 0)
(680.113 20.2277 0)
(628.96 13.4351 0)
(521.92 7.07267 0)
(403.195 3.39463 0)
(303.163 1.54457 0)
(223.539 0.636654 0)
(160.31 0.18883 0)
(108.451 0.0268078 0)
(62.9253 -0.00753701 0)
(20.7927 -0.00179556 0)
(703.36 8.95566e-07 0)
(703.36 1.46039e-09 0)
(703.36 1.01533e-11 0)
(703.36 5.2693e-14 0)
(703.36 -1.17817e-13 0)
(703.36 -7.57322e-14 0)
(703.36 1.12764e-14 0)
(703.36 7.26992e-14 0)
(703.36 2.53496e-14 0)
(703.36 6.54514e-14 0)
(703.36 -8.43663e-14 0)
(703.36 -5.16899e-14 0)
(703.36 4.71024e-14 0)
(703.36 -2.37649e-13 0)
(703.36 -1.74289e-13 0)
(703.36 -4.78141e-14 0)
(703.36 -8.04189e-14 0)
(703.36 -7.90492e-14 0)
(703.36 -9.51445e-14 0)
(703.36 0.000235992 0)
(703.179 0.789353 0)
(698.522 18.7683 0)
(692.45 40.4716 0)
(693.438 34.813 0)
(690.58 22.2332 0)
(666.981 15.8096 0)
(593.112 9.74247 0)
(480.26 4.98356 0)
(372.719 2.37875 0)
(284.5 1.04389 0)
(214.37 0.335213 0)
(157.804 0.0478284 0)
(108.849 -0.0195529 0)
(64.0771 -0.0182363 0)
(21.3573 -0.00210322 0)
(703.36 4.89586e-07 0)
(703.36 8.47221e-10 0)
(703.36 5.99733e-12 0)
(703.36 -2.12039e-14 0)
(703.36 -8.45129e-14 0)
(703.36 -1.01362e-13 0)
(703.36 4.13357e-15 0)
(703.36 7.02943e-14 0)
(703.36 4.47783e-14 0)
(703.36 1.83686e-13 0)
(703.36 -1.36385e-13 0)
(703.36 -9.19753e-14 0)
(703.36 -7.49334e-14 0)
(703.36 -8.85218e-14 0)
(703.36 -1.11051e-13 0)
(703.36 -2.93464e-14 0)
(703.36 -6.34999e-14 0)
(703.36 -2.59204e-14 0)
(703.36 -1.79867e-13 0)
(703.36 0.000108127 0)
(703.279 0.353824 0)
(700.323 12.3926 0)
(692.868 38.5436 0)
(693.397 36.5448 0)
(695.32 24.3777 0)
(686.068 17.2044 0)
(646.127 12.4265 0)
(554.806 7.01698 0)
(445.901 3.50482 0)
(349.969 1.60648 0)
(272.701 0.544425 0)
(211.22 0.0743174 0)
(158.689 -0.0442548 0)
(111.055 -0.056732 0)
(65.8928 -0.0203636 0)
(21.7453 -0.00355952 0)
(703.36 2.50948e-07 0)
(703.36 4.66704e-10 0)
(703.36 3.4124e-12 0)
(703.36 -8.57387e-14 0)
(703.36 -1.04594e-13 0)
(703.36 -9.27704e-14 0)
(703.36 -1.43315e-14 0)
(703.36 7.85268e-14 0)
(703.36 8.34863e-14 0)
(703.36 7.91936e-14 0)
(703.36 -1.08236e-13 0)
(703.36 -1.56288e-13 0)
(703.36 -5.98433e-14 0)
(703.36 -1.34616e-13 0)
(703.36 -4.26914e-14 0)
(703.36 3.81134e-14 0)
(703.36 -5.22056e-14 0)
(703.36 -5.83573e-14 0)
(703.36 -1.49299e-13 0)
(703.36 4.64669e-05 0)
(703.326 0.146352 0)
(701.648 7.28696 0)
(693.663 35.2854 0)
(693.201 37.5484 0)
(695.784 26.5952 0)
(694.316 18.3138 0)
(677.068 14.3504 0)
(618.492 9.41364 0)
(519.559 4.98223 0)
(419.487 2.3672 0)
(335.308 0.840028 0)
(268.725 0.108131 0)
(212.766 -0.0862151 0)
(162.226 -0.12694 0)
(114.339 -0.0619028 0)
(67.1459 -0.0218051 0)
(21.9926 -0.000695828 0)
(703.36 1.20045e-07 0)
(703.36 2.43402e-10 0)
(703.36 1.83485e-12 0)
(703.36 -9.51636e-14 0)
(703.36 -1.60228e-13 0)
(703.36 -3.75862e-14 0)
(703.36 -2.13953e-14 0)
(703.36 -1.75151e-14 0)
(703.36 -8.58367e-14 0)
(703.36 -1.70768e-15 0)
(703.36 -9.7179e-14 0)
(703.36 -1.67188e-13 0)
(703.36 -8.89788e-14 0)
(703.36 -1.69126e-13 0)
(703.36 -1.52053e-13 0)
(703.36 -1.46539e-13 0)
(703.36 9.32365e-15 0)
(703.36 -1.2458e-13 0)
(703.36 -1.79541e-13 0)
(703.36 1.83697e-05 0)
(703.347 0.0555393 0)
(702.484 3.79804 0)
(695.129 30.0693 0)
(693.133 37.6381 0)
(695.541 29.227 0)
(697.449 19.4674 0)
(691.428 15.3588 0)
(662.552 11.606 0)
(587.806 6.86473 0)
(490.633 3.38725 0)
(401.944 1.25401 0)
(329.984 0.160937 0)
(270.787 -0.150642 0)
(217.765 -0.239709 0)
(167.204 -0.135867 0)
(116.59 -0.053071 0)
(67.8789 -0.00634697 0)
(22.0427 0.000220935 0)
(703.36 5.33427e-08 0)
(703.36 1.20006e-10 0)
(703.36 1.04577e-12 0)
(703.36 -1.09171e-13 0)
(703.36 -1.47179e-13 0)
(703.36 -7.72352e-14 0)
(703.36 -5.44807e-14 0)
(703.36 -4.97307e-14 0)
(703.36 1.58406e-14 0)
(703.36 9.4168e-14 0)
(703.36 -4.19263e-14 0)
(703.36 -1.10636e-13 0)
(703.36 -2.50546e-13 0)
(703.36 -1.56843e-13 0)
(703.36 -2.715e-13 0)
(703.36 -2.16951e-13 0)
(703.36 2.26984e-14 0)
(703.36 -9.76672e-15 0)
(703.36 -1.53774e-13 0)
(703.36 6.62982e-06 0)
(703.356 0.0192334 0)
(702.958 1.759 0)
(697.225 23.2222 0)
(693.144 37.3778 0)
(694.915 31.7128 0)
(697.518 20.7624 0)
(696.928 16.052 0)
(685.844 13.0448 0)
(642.337 9.08994 0)
(558.984 4.75115 0)
(470.183 1.84373 0)
(394.616 0.241347 0)
(331.858 -0.227918 0)
(276.792 -0.397545 0)
(224.442 -0.250646 0)
(170.555 -0.10486 0)
(117.819 -0.0183808 0)
(68.0142 -0.00179687 0)
(21.9847 0.0002432 0)
(703.36 2.18952e-08 0)
(703.36 5.57126e-11 0)
(703.36 3.78779e-13 0)
(703.36 -1.97161e-13 0)
(703.36 -3.74605e-14 0)
(703.36 -5.08144e-15 0)
(703.36 -1.47295e-14 0)
(703.36 4.62514e-14 0)
(703.36 1.55292e-13 0)
(703.36 -5.81762e-14 0)
(703.36 -8.67609e-14 0)
(703.36 -6.61081e-14 0)
(703.36 -1.68807e-13 0)
(703.36 -1.67281e-13 0)
(703.36 -2.01504e-13 0)
(703.36 -8.52203e-14 0)
(703.36 -1.36832e-13 0)
(703.36 -2.85857e-14 0)
(703.36 -1.71662e-13 0)
(703.36 2.16266e-06 0)
(703.359 0.00603174 0)
(703.194 0.726517 0)
(699.421 15.7806 0)
(693.377 36.3556 0)
(694.325 33.5025 0)
(697.329 22.676 0)
(698.68 16.6778 0)
(695.455 13.8374 0)
(676.453 10.9773 0)
(618.83 6.56275 0)
(536.151 2.72709 0)
(459.952 0.428321 0)
(394.993 -0.279948 0)
(337.627 -0.580924 0)
(284.479 -0.408159 0)
(228.772 -0.17775 0)
(172.254 -0.0380105 0)
(118.019 -0.00760727 0)
(67.82 0.00105777 0)
(21.8126 0.000241692 0)
(703.36 8.25228e-09 0)
(703.36 2.40875e-11 0)
(703.36 2.03138e-13 0)
(703.36 -9.81751e-14 0)
(703.36 1.16217e-13 0)
(703.36 1.43369e-14 0)
(703.36 3.33934e-14 0)
(703.36 4.18915e-14 0)
(703.36 1.29144e-14 0)
(703.36 -5.18768e-14 0)
(703.36 4.06501e-14 0)
(703.36 -1.01726e-13 0)
(703.36 -6.85276e-14 0)
(703.36 -1.63687e-13 0)
(703.36 -1.89138e-13 0)
(703.36 -6.87127e-14 0)
(703.36 -2.92768e-14 0)
(703.36 6.63518e-15 0)
(703.36 -1.05074e-13 0)
(703.36 6.30989e-07 0)
(703.36 0.00169228 0)
(703.299 0.267972 0)
(701.169 9.21751 0)
(694.136 33.9749 0)
(693.79 34.8712 0)
(696.781 24.8376 0)
(698.664 17.3546 0)
(698.558 14.3592 0)
(692.41 12.0739 0)
(662.728 8.58086 0)
(596.345 4.05922 0)
(522.043 0.907808 0)
(456.273 -0.253108 0)
(398.86 -0.751795 0)
(344.84 -0.59029 0)
(289.098 -0.269402 0)
(230.748 -0.0652682 0)
(172.472 -0.0163675 0)
(117.652 0.00238778 0)
(67.2787 0.00270546 0)
(21.5764 0.000528637 0)
(703.36 2.836e-09 0)
(703.36 9.85616e-12 0)
(703.36 2.32029e-13 0)
(703.36 5.63429e-14 0)
(703.36 -3.50654e-14 0)
(703.36 -4.20683e-14 0)
(703.36 3.43856e-14 0)
(703.36 -1.02712e-13 0)
(703.36 -1.46675e-13 0)
(703.36 2.20078e-14 0)
(703.36 -6.01482e-15 0)
(703.36 -2.60616e-15 0)
(703.36 -8.96077e-14 0)
(703.36 -1.75098e-13 0)
(703.36 -1.59494e-13 0)
(703.36 -9.44627e-14 0)
(703.36 4.23044e-14 0)
(703.36 -2.3379e-14 0)
(703.36 -5.6351e-14 0)
(703.36 1.62765e-07 0)
(703.36 0.000419216 0)
(703.34 0.0879524 0)
(702.303 4.57587 0)
(695.585 29.2937 0)
(693.797 35.0152 0)
(695.993 27.3699 0)
(698.517 18.4306 0)
(699.221 14.8326 0)
(698.013 12.674 0)
(687.003 10.1457 0)
(645.831 5.94067 0)
(579.219 1.79312 0)
(513.466 -0.0459841 0)
(457.014 -0.843298 0)
(403.709 -0.749 0)
(348.459 -0.356549 0)
(290.779 -0.0971617 0)
(230.84 -0.0283009 0)
(171.868 0.00539782 0)
(116.691 0.00873985 0)
(66.5406 0.00391455 0)
(21.3175 0.000422376 0)
(703.36 8.84208e-10 0)
(703.36 4.04128e-12 0)
(703.36 -1.06017e-14 0)
(703.36 3.6368e-14 0)
(703.36 -5.51199e-14 0)
(703.36 4.4814e-14 0)
(703.36 7.7905e-14 0)
(703.36 -7.91006e-14 0)
(703.36 -4.77067e-14 0)
(703.36 2.22302e-14 0)
(703.36 -3.6141e-15 0)
(703.36 3.87748e-14 0)
(703.36 -1.29913e-13 0)
(703.36 -1.72635e-13 0)
(703.36 -1.98712e-13 0)
(703.36 -5.37384e-14 0)
(703.36 -1.10118e-13 0)
(703.36 -1.7134e-13 0)
(703.36 -2.88571e-14 0)
(703.36 3.66848e-08 0)
(703.36 9.02214e-05 0)
(703.354 0.0255193 0)
(702.919 1.93326 0)
(697.609 22.3366 0)
(693.886 34.7953 0)
(695.252 29.935 0)
(698.114 19.8026 0)
(699.262 15.3018 0)
(699.573 13.0575 0)
(696.69 11.0114 0)
(678.568 7.86223 0)
(629.302 3.24366 0)
(566.354 0.519127 0)
(509.553 -0.734013 0)
(457.856 -0.832129 0)
(404.856 -0.422862 0)
(348.947 -0.131298 0)
(290.429 -0.0404388 0)
(229.861 0.0123663 0)
(170.414 0.0195577 0)
(115.392 0.0116499 0)
(65.7309 0.00429104 0)
(21.0242 0.000514262 0)
(703.36 2.46946e-10 0)
(703.36 1.28418e-12 0)
(703.36 5.17832e-14 0)
(703.36 7.6599e-14 0)
(703.36 1.29897e-13 0)
(703.36 1.388e-13 0)
(703.36 1.07791e-13 0)
(703.36 -6.74893e-14 0)
(703.36 -4.72865e-14 0)
(703.36 -8.21174e-14 0)
(703.36 1.25905e-13 0)
(703.36 5.57603e-14 0)
(703.36 -6.11609e-14 0)
(703.36 -2.0158e-13 0)
(703.36 -3.52211e-13 0)
(703.36 -1.65575e-13 0)
(703.36 -6.03776e-14 0)
(703.36 -1.71565e-13 0)
(703.36 -8.29351e-14 0)
(703.36 7.15987e-09 0)
(703.36 1.65511e-05 0)
(703.359 0.00647548 0)
(703.201 0.699793 0)
(699.794 14.4847 0)
(694.219 33.8435 0)
(694.758 31.7663 0)
(697.509 21.8037 0)
(699.16 15.9037 0)
(699.707 13.3843 0)
(699.502 11.4832 0)
(694.083 9.15192 0)
(667.68 5.16989 0)
(614.263 1.57089 0)
(557.613 -0.365227 0)
(506.572 -0.752386 0)
(455.965 -0.413543 0)
(403.436 -0.133508 0)
(347.639 -0.0359618 0)
(288.798 0.0277603 0)
(227.812 0.037244 0)
(168.481 0.0254195 0)
(113.966 0.0132943 0)
(64.8224 0.00463754 0)
(20.7183 0.00115325 0)
(703.36 6.25994e-11 0)
(703.36 7.85507e-13 0)
(703.36 1.30289e-13 0)
(703.36 9.64082e-14 0)
(703.36 5.72543e-14 0)
(703.36 5.356e-14 0)
(703.36 4.05099e-14 0)
(703.36 2.81299e-15 0)
(703.36 -6.13627e-14 0)
(703.36 -6.06169e-14 0)
(703.36 1.04849e-13 0)
(703.36 1.10773e-13 0)
(703.36 -4.18469e-14 0)
(703.36 -2.61296e-13 0)
(703.36 -3.05947e-15 0)
(703.36 -7.19983e-14 0)
(703.36 -9.62241e-14 0)
(703.36 -1.27991e-13 0)
(703.36 -1.47573e-13 0)
(703.36 1.18818e-09 0)
(703.36 2.52951e-06 0)
(703.36 0.00141363 0)
(703.311 0.217795 0)
(701.54 7.73891 0)
(695.132 31.07 0)
(694.445 32.9501 0)
(696.866 24.176 0)
(698.889 16.7233 0)
(699.685 13.7724 0)
(700.051 11.8466 0)
(699.177 9.8452 0)
(689.751 6.89881 0)
(654.845 3.20503 0)
(601.938 0.386371 0)
(551.355 -0.489721 0)
(501.849 -0.295832 0)
(452.299 -0.0752379 0)
(400.513 0.00150429 0)
(344.964 0.0588206 0)
(286.025 0.0654675 0)
(225.166 0.0477178 0)
(166.363 0.028627 0)
(112.381 0.0137473 0)
(63.8791 0.005953 0)
(20.4184 0.000720605 0)
(703.36 1.46349e-11 0)
(703.36 3.82653e-13 0)
(703.36 -2.81732e-17 0)
(703.36 5.78494e-14 0)
(703.36 -3.22796e-14 0)
(703.36 9.83285e-14 0)
(703.36 -3.33472e-14 0)
(703.36 -6.74052e-14 0)
(703.36 7.34355e-14 0)
(703.36 5.76203e-14 0)
(703.36 6.09125e-14 0)
(703.36 -4.04518e-14 0)
(703.36 -1.19928e-13 0)
(703.36 -2.73709e-13 0)
(703.36 3.23185e-14 0)
(703.36 -1.3469e-14 0)
(703.36 -7.96345e-14 0)
(703.36 -1.32114e-13 0)
(703.36 3.06655e-15 0)
(703.36 1.88821e-10 0)
(703.36 3.13402e-07 0)
(703.36 0.000260168 0)
(703.347 0.0580538 0)
(702.59 3.36618 0)
(696.755 25.5209 0)
(694.481 33.0532 0)
(696.143 26.92 0)
(698.538 17.8976 0)
(699.562 14.193 0)
(700.057 12.1725 0)
(700.321 10.2592 0)
(698.309 7.9299 0)
(682.939 5.06011 0)
(641.807 1.64093 0)
(592.337 0.00417516 0)
(544.262 -0.0532081 0)
(496.089 0.057846 0)
(447.703 0.0775841 0)
(396.524 0.114111 0)
(341.287 0.107135 0)
(282.603 0.0806784 0)
(222.285 0.0524346 0)
(164.031 0.0293829 0)
(110.741 0.0152572 0)
(62.9552 0.00439833 0)
(20.1371 0.000250464 0)
(703.36 2.68455e-12 0)
(703.36 2.29841e-13 0)
(703.36 4.72415e-14 0)
(703.36 -2.33534e-14 0)
(703.36 2.06883e-14 0)
(703.36 1.55449e-13 0)
(703.36 8.15467e-14 0)
(703.36 5.05543e-14 0)
(703.36 -2.23755e-14 0)
(703.36 6.24772e-14 0)
(703.36 3.44463e-14 0)
(703.36 -6.15013e-14 0)
(703.36 -1.94268e-13 0)
(703.36 -1.68458e-13 0)
(703.36 -8.42081e-14 0)
(703.36 -5.86135e-14 0)
(703.36 -1.12703e-13 0)
(703.36 -1.15023e-13 0)
(703.36 9.35275e-15 0)
(703.36 9.14106e-12 0)
(703.36 3.06286e-08 0)
(703.36 3.93534e-05 0)
(703.357 0.0131229 0)
(703.089 1.19705 0)
(698.928 17.6985 0)
(694.651 32.5739 0)
(695.576 29.1918 0)
(698.105 19.6344 0)
(699.367 14.724 0)
(699.997 12.5265 0)
(700.425 10.6125 0)
(700.568 8.46031 0)
(696.329 6.37862 0)
(673.673 3.38248 0)
(629.787 0.894517 0)
(583.218 0.360515 0)
(536.564 0.298639 0)
(489.929 0.210947 0)
(442.446 0.206374 0)
(391.808 0.170095 0)
(337.001 0.128601 0)
(278.929 0.0876154 0)
(219.152 0.0539796 0)
(161.625 0.0309684 0)
(109.135 0.0122411 0)
(62.0823 0.00322693 0)
(19.849 0.000203665 0)
(703.36 8.12931e-13 0)
(703.36 2.18016e-13 0)
(703.36 5.80166e-14 0)
(703.36 1.94325e-14 0)
(703.36 1.08521e-13 0)
(703.36 1.92782e-14 0)
(703.36 1.42895e-14 0)
(703.36 1.0711e-13 0)
(703.36 -1.11241e-13 0)
(703.36 -1.6946e-14 0)
(703.36 1.24521e-14 0)
(703.36 1.30832e-13 0)
(703.36 -1.28171e-13 0)
(703.36 -1.47972e-13 0)
(703.36 -3.93762e-14 0)
(703.36 -1.17688e-13 0)
(703.36 -1.76298e-13 0)
(703.36 -4.99897e-14 0)
(703.36 -9.8052e-14 0)
(703.36 -3.81986e-12 0)
(703.36 2.21204e-09 0)
(703.36 4.74347e-06 0)
(703.359 0.00247397 0)
(703.281 0.350769 0)
(701.005 9.88796 0)
(695.225 30.9081 0)
(695.043 31.0123 0)
(697.542 21.8777 0)
(699.189 15.4575 0)
(699.853 12.8972 0)
(700.385 10.9743 0)
(700.804 8.83983 0)
(700.379 7.03918 0)
(692.573 5.03577 0)
(662.691 2.27604 0)
(618.599 1.01216 0)
(573.91 0.673469 0)
(528.795 0.427882 0)
(483.427 0.350116 0)
(436.736 0.266371 0)
(386.607 0.199659 0)
(332.5 0.138595 0)
(274.998 0.0894671 0)
(215.931 0.0550073 0)
(159.271 0.0257515 0)
(107.61 0.0106311 0)
(61.1916 0.00304841 0)
(19.5608 0.000339662 0)
(703.36 -3.96321e-13 0)
(703.36 9.88327e-14 0)
(703.36 5.28166e-14 0)
(703.36 5.37391e-14 0)
(703.36 1.07491e-13 0)
(703.36 3.38035e-14 0)
(703.36 -5.09279e-15 0)
(703.36 2.21e-14 0)
(703.36 -1.06024e-13 0)
(703.36 -6.26107e-14 0)
(703.36 -2.28463e-14 0)
(703.36 -3.74232e-14 0)
(703.36 -1.35987e-13 0)
(703.36 -1.2176e-13 0)
(703.36 -1.15402e-14 0)
(703.36 -1.27054e-13 0)
(703.36 -8.53195e-14 0)
(703.36 -6.94543e-14 0)
(703.36 -1.13984e-13 0)
(703.36 -1.10382e-11 0)
(703.36 1.47874e-10 0)
(703.36 4.39078e-07 0)
(703.36 0.000379232 0)
(703.341 0.084695 0)
(702.367 4.32647 0)
(696.542 26.4017 0)
(695.052 31.2045 0)
(696.817 24.6562 0)
(698.938 16.5235 0)
(699.737 13.3239 0)
(700.261 11.3402 0)
(700.799 9.2213 0)
(701.228 7.37323 0)
(699.646 5.9725 0)
(686.425 3.9533 0)
(650.661 2.02971 0)
(607.881 1.21916 0)
(564.731 0.757629 0)
(520.946 0.558014 0)
(476.724 0.401014 0)
(430.728 0.296904 0)
(381.275 0.208806 0)
(327.781 0.139086 0)
(270.981 0.0896752 0)
(212.784 0.0465417 0)
(157.027 0.0232751 0)
(106.059 0.0102038 0)
(60.3027 0.00312141 0)
(19.2804 0.000599763 0)
(703.36 -1.34482e-12 0)
(703.36 8.44196e-14 0)
(703.36 6.90686e-14 0)
(703.36 1.32642e-13 0)
(703.36 2.03889e-14 0)
(703.36 6.73189e-14 0)
(703.36 3.62809e-14 0)
(703.36 9.78502e-15 0)
(703.36 5.41737e-14 0)
(703.36 -2.40264e-14 0)
(703.36 -7.61909e-14 0)
(703.36 -1.91968e-13 0)
(703.36 -1.54743e-13 0)
(703.36 -4.64281e-15 0)
(703.36 -6.68179e-14 0)
(703.36 -2.30799e-14 0)
(703.36 -1.20641e-13 0)
(703.36 -1.12902e-13 0)
(703.36 -2.52049e-14 0)
(703.36 -1.18088e-11 0)
(703.36 -4.95765e-11 0)
(703.36 2.98153e-08 0)
(703.36 4.57957e-05 0)
(703.356 0.0166941 0)
(703.026 1.47952 0)
(698.633 18.8585 0)
(695.154 30.9887 0)
(696.166 27.266 0)
(698.578 18.1283 0)
(699.62 13.8434 0)
(700.14 11.7248 0)
(700.704 9.61728 0)
(701.161 7.63569 0)
(701.215 6.35013 0)
(697.828 5.20173 0)
(677.357 3.50713 0)
(638.753 2.00945 0)
(597.722 1.22646 0)
(555.588 0.860407 0)
(513.143 0.590653 0)
(469.915 0.428053 0)
(424.704 0.303234 0)
(375.802 0.20657 0)
(322.997 0.137243 0)
(267.058 0.0767819 0)
(209.774 0.0429164 0)
(154.751 0.022388 0)
(104.514 0.00975037 0)
(59.4395 0.00350654 0)
(19.0123 0.000800929 0)
(703.36 -1.71521e-12 0)
(703.36 6.1561e-14 0)
(703.36 9.46892e-14 0)
(703.36 8.15381e-14 0)
(703.36 7.21246e-14 0)
(703.36 6.95435e-14 0)
(703.36 4.19523e-14 0)
(703.36 -1.03029e-13 0)
(703.36 5.55468e-14 0)
(703.36 1.02871e-13 0)
(703.36 -8.51137e-14 0)
(703.36 -2.50754e-13 0)
(703.36 -1.06632e-13 0)
(703.36 -1.10353e-13 0)
(703.36 -7.44179e-14 0)
(703.36 -6.83353e-14 0)
(703.36 -1.00247e-13 0)
(703.36 -8.19498e-14 0)
(703.36 -3.25656e-14 0)
(703.36 -1.36098e-11 0)
(703.36 -5.39854e-11 0)
(703.36 1.64738e-09 0)
(703.36 4.18929e-06 0)
(703.359 0.00263452 0)
(703.271 0.398785 0)
(700.836 10.5783 0)
(695.534 29.7198 0)
(695.609 29.2114 0)
(698.024 20.3727 0)
(699.499 14.5474 0)
(700.042 12.1327 0)
(700.567 10.0331 0)
(701.105 7.96111 0)
(701.511 6.56664 0)
(700.983 5.74317 0)
(693.909 4.97438 0)
(666.275 3.14696 0)
(627.559 1.87408 0)
(587.562 1.28594 0)
(546.667 0.855156 0)
(505.415 0.604729 0)