/*--------------------------------*- C++ -*----------------------------------*\
| =========                 |                                                 |
| \\      /  F ield         | OpenFOAM: The Open Source CFD Toolbox           |
|  \\    /   O peration     | Version:  v2012                                 |
|   \\  /    A nd           | Website:  www.openfoam.com                      |
|    \\/     M anipulation  |                                                 |
\*---------------------------------------------------------------------------*/
FoamFile
{
    version     2.0;
    format      ascii;
    class       volScalarField;
    location    "1901";
    object      V;
}
// * * * * * * * * * * * * * * * * * * * * * * * * * * * * * * * * * * * * * //

dimensions      [0 3 0 0 0 0 0];


internalField   nonuniform List<scalar> 
8000
(
2.0573e-07
1.6745e-07
2.22147e-07
1.36289e-07
1.80813e-07
2.39877e-07
1.10929e-07
1.47165e-07
1.95243e-07
2.59014e-07
9.02869e-08
1.19781e-07
1.5891e-07
2.10819e-07
2.79689e-07
7.34852e-08
9.7492e-08
1.29341e-07
1.71587e-07
2.27648e-07
3.02008e-07
5.98114e-08
7.93494e-08
1.05273e-07
1.3966e-07
1.85284e-07
2.45814e-07
3.26108e-07
4.86814e-08
6.45844e-08
8.56824e-08
1.13671e-07
1.50808e-07
2.00069e-07
2.65429e-07
3.52128e-07
3.96227e-08
5.25662e-08
6.9739e-08
9.25178e-08
1.22745e-07
1.62842e-07
2.16035e-07
2.86608e-07
3.8023e-07
3.22497e-08
4.27846e-08
5.67616e-08
7.53025e-08
9.99029e-08
1.3254e-07
1.75837e-07
2.33272e-07
3.09481e-07
4.10574e-07
2.62486e-08
3.48232e-08
4.61993e-08
6.12898e-08
8.13134e-08
1.07875e-07
1.43116e-07
1.89867e-07
2.51888e-07
3.34179e-07
4.4334e-07
2.13641e-08
2.83433e-08
3.76025e-08
4.9885e-08
6.61822e-08
8.78021e-08
1.16483e-07
1.54536e-07
2.05019e-07
2.7199e-07
3.60848e-07
4.78718e-07
1.73887e-08
2.30689e-08
3.06054e-08
4.06023e-08
5.3867e-08
7.14634e-08
9.48087e-08
1.25778e-07
1.66868e-07
2.21381e-07
2.93697e-07
3.89643e-07
5.16915e-07
1.4153e-08
1.87763e-08
2.49101e-08
3.3047e-08
4.38433e-08
5.81654e-08
7.71662e-08
1.02373e-07
1.35815e-07
1.80185e-07
2.39048e-07
3.17133e-07
4.20733e-07
5.58174e-07
1.15194e-08
1.52825e-08
2.02749e-08
2.68973e-08
3.56849e-08
4.73419e-08
6.2807e-08
8.33233e-08
1.10543e-07
1.46654e-07
1.94565e-07
2.58124e-07
3.42437e-07
4.54315e-07
6.02713e-07
9.37581e-09
1.24387e-08
1.65022e-08
2.18924e-08
2.90444e-08
3.85325e-08
5.11198e-08
6.78184e-08
8.99729e-08
1.19365e-07
1.58358e-07
2.10091e-07
2.78719e-07
3.6977e-07
4.90567e-07
6.50809e-07
7.63112e-09
1.0124e-08
1.34314e-08
1.78187e-08
2.36399e-08
3.13621e-08
4.16074e-08
5.51987e-08
7.32306e-08
9.71532e-08
1.28891e-07
1.70994e-07
2.26854e-07
3.00966e-07
3.99275e-07
5.29714e-07
7.02769e-07
6.21111e-09
8.2401e-09
1.0932e-08
1.45029e-08
1.9241e-08
2.55263e-08
3.38648e-08
4.49273e-08
5.96038e-08
7.90748e-08
1.04906e-07
1.39177e-07
1.84638e-07
2.44961e-07
3.24982e-07
4.31138e-07
5.72005e-07
7.58811e-07
5.05533e-09
6.70677e-09
8.89775e-09
1.18041e-08
1.56606e-08
2.07764e-08
2.75633e-08
3.65668e-08
4.85127e-08
6.43605e-08
8.53854e-08
1.13278e-07
1.50282e-07
1.99375e-07
2.64507e-07
3.50915e-07
4.65559e-07
6.17619e-07
8.19349e-07
4.11463e-09
5.45875e-09
7.24204e-09
9.60758e-09
1.27464e-08
1.69103e-08
2.24344e-08
2.97626e-08
3.9485e-08
5.23842e-08
6.94968e-08
9.2199e-08
1.22316e-07
1.62277e-07
2.15285e-07
2.85615e-07
3.78932e-07
5.02684e-07
6.66894e-07
8.84789e-07
4.44299e-09
4.26635e-09
5.89442e-09
7.81979e-09
1.03745e-08
1.37635e-08
1.82598e-08
2.42244e-08
3.21378e-08
4.26362e-08
5.65648e-08
7.50425e-08
9.95556e-08
1.32079e-07
1.75225e-07
2.32464e-07
3.08418e-07
4.09149e-07
5.42789e-07
7.20157e-07
9.5536e-07
4.79759e-09
4.60682e-09
4.55881e-09
6.36465e-09
8.44399e-09
1.12024e-08
1.48619e-08
1.97167e-08
2.61576e-08
3.47025e-08
4.60387e-08
6.10785e-08
8.10302e-08
1.07502e-07
1.42618e-07
1.89208e-07
2.51024e-07
3.33013e-07
4.41792e-07
5.8614e-07
7.77597e-07
1.03164e-06
5.18032e-09
4.97449e-09
4.92261e-09
4.87131e-09
6.8727e-09
9.1178e-09
1.20963e-08
1.60477e-08
2.12902e-08
2.82451e-08
3.7472e-08
4.97126e-08
6.5952e-08
8.74978e-08
1.1608e-07
1.53999e-07
2.04314e-07
2.71042e-07
3.59581e-07
4.77076e-07
6.32891e-07
8.39683e-07
1.11391e-06
5.59383e-09
5.37134e-09
5.31548e-09
5.26005e-09
5.2053e-09
7.42113e-09
9.8454e-09
1.30615e-08
1.73284e-08
2.29893e-08
3.04992e-08
4.04622e-08
5.36791e-08
7.12161e-08
9.44796e-08
1.25343e-07
1.66295e-07
2.20607e-07
2.92666e-07
3.883e-07
5.15128e-07
6.83423e-07
9.06649e-07
1.20282e-06
6.04021e-09
5.8001e-09
5.73954e-09
5.67986e-09
5.62069e-09
5.56212e-09
8.01334e-09
1.0631e-08
1.41038e-08
1.87113e-08
2.48239e-08
3.2933e-08
4.36907e-08
5.79637e-08
7.68988e-08
1.02019e-07
1.3535e-07
1.79556e-07
2.38208e-07
3.1604e-07
4.19271e-07
5.56258e-07
7.37927e-07
9.79012e-07
1.29882e-06
6.52222e-09
6.26293e-09
6.19769e-09
6.13298e-09
6.06928e-09
6.00599e-09
5.94342e-09
8.65272e-09
1.14794e-08
1.52294e-08
2.02045e-08
2.68048e-08
3.55608e-08
4.71779e-08
6.25888e-08
8.30353e-08
1.10164e-07
1.46144e-07
1.93881e-07
2.57233e-07
3.41248e-07
4.52747e-07
6.0062e-07
7.96824e-07
1.05715e-06
1.40248e-06
7.04263e-09
6.76272e-09
6.69225e-09
6.62254e-09
6.55347e-09
6.48533e-09
6.41772e-09
6.35081e-09
9.34325e-09
1.23955e-08
1.64448e-08
2.18168e-08
2.89436e-08
3.83991e-08
5.09425e-08
6.75834e-08
8.96647e-08
1.18949e-07
1.57803e-07
2.09365e-07
2.7775e-07
3.68494e-07
4.88854e-07
6.48558e-07
8.60419e-07
1.14152e-06
1.51439e-06
7.60466e-09
7.30231e-09
7.22629e-09
7.151e-09
7.07659e-09
7.00271e-09
6.92992e-09
6.85761e-09
6.78642e-09
1.00889e-08
1.33847e-08
1.7757e-08
2.35576e-08
3.12538e-08
4.14632e-08
5.50077e-08
7.29792e-08
9.68149e-08
1.28439e-07
1.70407e-07
2.26065e-07
2.99926e-07
3.97882e-07
5.27871e-07
7.00319e-07
9.29093e-07
1.23261e-06
1.63518e-06
8.21155e-09
7.88507e-09
7.80288e-09
7.72165e-09
7.64129e-09
7.56169e-09
7.48277e-09
7.40492e-09
7.32798e-09
7.25136e-09
1.0894e-08
1.44528e-08
1.91739e-08
2.54379e-08
3.37477e-08
4.47719e-08
5.93994e-08
7.87989e-08
1.04539e-07
1.38697e-07
1.83998e-07
2.44114e-07
3.23846e-07
4.29638e-07
5.70001e-07
7.56216e-07
1.00323e-06
1.33093e-06
1.76577e-06
8.86688e-09
8.51434e-09
8.42558e-09
8.33776e-09
8.25106e-09
8.1651e-09
8.08007e-09
7.99566e-09
7.91284e-09
7.83003e-09
7.74841e-09
1.17634e-08
1.5606e-08
2.07043e-08
2.74677e-08
3.64407e-08
4.83464e-08
6.41362e-08
8.50855e-08
1.12888e-07
1.4976e-07
1.98689e-07
2.63583e-07
3.49693e-07
4.63928e-07
6.15495e-07
8.16557e-07
1.08325e-06
1.43722e-06
1.90663e-06
9.57444e-09
9.19383e-09
9.09799e-09
9.00316e-09
8.90941e-09
8.81667e-09
8.72484e-09
8.63391e-09
8.5441e-09
8.45495e-09
8.36675e-09
8.27972e-09
1.2702e-08
1.68516e-08
2.23564e-08
2.96596e-08
3.93501e-08
5.22018e-08
6.9253e-08
9.18811e-08
1.21892e-07
1.61717e-07
2.14535e-07
2.8462e-07
3.77602e-07
5.00956e-07
6.64609e-07
8.81687e-07
1.16976e-06
1.55186e-06
2.05878e-06
1.03384e-08
9.92748e-09
9.82405e-09
9.72165e-09
9.62043e-09
9.52015e-09
9.42108e-09
9.32288e-09
9.22612e-09
9.12946e-09
9.0345e-09
8.94045e-09
8.84743e-09
1.37158e-08
1.81963e-08
2.41404e-08
3.20276e-08
4.24881e-08
5.63665e-08
7.47841e-08
9.92096e-08
1.31624e-07
1.74614e-07
2.31658e-07
3.07336e-07
4.07741e-07
5.4093e-07
7.17618e-07
9.52101e-07
1.26307e-06
1.67571e-06
2.22304e-06
1.11636e-08
1.07196e-08
1.0608e-08
1.04975e-08
1.03882e-08
1.02799e-08
1.01728e-08
1.00668e-08
9.96234e-09
9.8582e-09
9.75525e-09
9.654e-09
9.55346e-09
9.45403e-09
1.48102e-08
1.96483e-08
2.60678e-08
3.45816e-08
4.58778e-08
6.08684e-08
8.07489e-08
1.07131e-07
1.42122e-07
1.88551e-07
2.50147e-07
3.31866e-07
4.40276e-07
5.84075e-07
7.7493e-07
1.02805e-06
1.36387e-06
1.8094e-06
2.40051e-06
1.20544e-08
1.15752e-08
1.14544e-08
1.13352e-08
1.12172e-08
1.11003e-08
1.09846e-08
1.08701e-08
1.07573e-08
1.06449e-08
1.05339e-08
1.04242e-08
1.03159e-08
1.02085e-08
1.01017e-08
1.59921e-08
2.1217e-08
2.81465e-08
3.73405e-08
4.9542e-08
6.57232e-08
8.71962e-08
1.15675e-07
1.53465e-07
2.03599e-07
2.70112e-07
3.58347e-07
4.75393e-07
6.30721e-07
8.36745e-07
1.11009e-06
1.47268e-06
1.95385e-06
2.59198e-06
1.30163e-08
1.24988e-08
1.23687e-08
1.22396e-08
1.21123e-08
1.19862e-08
1.18613e-08
1.17376e-08
1.16157e-08
1.14943e-08
1.13745e-08
1.12563e-08
1.11389e-08
1.10232e-08
1.09078e-08
1.07946e-08
1.72689e-08
2.2909e-08
3.03921e-08
4.03228e-08
5.34934e-08
7.09708e-08
9.41502e-08
1.24907e-07
1.65713e-07
2.19849e-07
2.91666e-07
3.86929e-07
5.13359e-07
6.81033e-07
9.0352e-07
1.19866e-06
1.59025e-06
2.1097e-06
2.79891e-06
1.40555e-08
1.34963e-08
1.33556e-08
1.32165e-08
1.30788e-08
1.29426e-08
1.28078e-08
1.26743e-08
1.25427e-08
1.24115e-08
1.22822e-08
1.21545e-08
1.20281e-08
1.19026e-08
1.17783e-08
1.1656e-08
1.15343e-08
1.8646e-08
2.47367e-08
3.28194e-08
4.3539e-08
5.77645e-08
7.66308e-08
1.01665e-07
1.34876e-07
1.7894e-07
2.37392e-07
3.14929e-07
4.17831e-07
5.54309e-07
7.35381e-07
9.75608e-07
1.29435e-06
1.71709e-06
2.27812e-06
3.02221e-06
1.51763e-08
1.45738e-08
1.44214e-08
1.42712e-08
1.41227e-08
1.39753e-08
1.38299e-08
1.36857e-08
1.35436e-08
1.3402e-08
1.32622e-08
1.31244e-08
1.29879e-08
1.28527e-08
1.2718e-08
1.25863e-08
1.24548e-08
1.23254e-08
2.01336e-08
2.67123e-08
3.54371e-08
4.70153e-08
6.23713e-08
8.2747e-08
1.09779e-07
1.45641e-07
1.93218e-07
2.56327e-07
3.4008e-07
4.5116e-07
5.98545e-07
7.94054e-07
1.05349e-06
1.39759e-06
1.85418e-06
2.45987e-06
3.26344e-06
1.63871e-08
1.57359e-08
1.55728e-08
1.541e-08
1.52496e-08
1.50908e-08
1.49334e-08
1.47778e-08
1.46245e-08
1.44715e-08
1.43206e-08
1.41716e-08
1.40243e-08
1.38783e-08
1.37332e-08
1.35904e-08
1.34488e-08
1.3309e-08
1.317e-08
2.17416e-08
2.88429e-08
3.82665e-08
5.07648e-08
6.73494e-08
8.93511e-08
1.18541e-07
1.57262e-07
2.08629e-07
2.76798e-07
3.67208e-07
4.87164e-07
6.463e-07
8.57444e-07
1.13752e-06
1.50917e-06
2.00211e-06
2.65622e-06
3.52382e-06
1.76959e-08
1.69914e-08
1.68146e-08
1.66403e-08
1.64665e-08
1.6295e-08
1.61253e-08
1.5957e-08
1.57915e-08
1.56264e-08
1.54635e-08
1.53026e-08
1.51433e-08
1.49858e-08
1.48291e-08
1.46752e-08
1.45217e-08
1.43712e-08
1.4221e-08
1.40731e-08
2.34757e-08
3.11458e-08
4.13183e-08
5.48166e-08
7.27246e-08
9.64827e-08
1.27999e-07
1.69806e-07
2.25291e-07
2.98878e-07
3.96512e-07
5.26033e-07
6.97894e-07
9.25837e-07
1.22833e-06
1.62957e-06
2.16191e-06
2.86815e-06
3.80507e-06
1.91074e-08
1.83484e-08
1.81561e-08
1.79673e-08
1.77812e-08
1.75953e-08
1.7412e-08
1.72306e-08
1.70515e-08
1.68734e-08
1.66975e-08
1.65238e-08
1.63518e-08
1.61816e-08
1.60124e-08
1.58463e-08
1.56809e-08
1.55176e-08
1.5356e-08
1.51962e-08
1.50376e-08
2.53501e-08
3.36297e-08
4.46161e-08
5.91915e-08
7.85291e-08
1.04181e-07
1.38209e-07
1.83367e-07
2.43262e-07
3.22729e-07
4.28148e-07
5.68026e-07
7.53561e-07
9.9975e-07
1.32633e-06
1.75964e-06
2.3344e-06
3.09706e-06
4.10868e-06
2.0633e-08
1.98119e-08
1.96062e-08
1.94007e-08
1.91991e-08
1.90001e-08
1.88015e-08
1.86055e-08
1.84125e-08
1.82197e-08
1.803e-08
1.78425e-08
1.76568e-08
1.74729e-08
1.729e-08
1.71108e-08
1.69322e-08
1.67563e-08
1.6581e-08
1.6409e-08
1.62376e-08
1.60685e-08
2.73718e-08
3.63139e-08
4.81769e-08
6.39159e-08
8.47953e-08
1.12491e-07
1.49247e-07
1.97994e-07
2.62675e-07
3.48478e-07
4.62328e-07
6.13335e-07
8.13721e-07
1.07951e-06
1.4322e-06
1.90004e-06
2.52072e-06
3.34418e-06
4.43657e-06
2.22785e-08
2.13938e-08
2.117e-08
2.09502e-08
2.07309e-08
2.05152e-08
2.03026e-08
2.00903e-08
1.98817e-08
1.96739e-08
1.94686e-08
1.92663e-08
1.90659e-08
1.88674e-08
1.86699e-08
1.84761e-08
1.82833e-08
1.80934e-08
1.79046e-08
1.7718e-08
1.75336e-08
1.73507e-08
1.71703e-08
2.95564e-08
3.92121e-08
5.20222e-08
6.9016e-08
9.15587e-08
1.21475e-07
1.61152e-07
2.13795e-07
2.83633e-07
3.76297e-07
4.99205e-07
6.62299e-07
8.78641e-07
1.16568e-06
1.54647e-06
2.05168e-06
2.72185e-06
3.61106e-06
4.79035e-06
2.40566e-08
2.31e-08
2.28603e-08
2.26212e-08
2.23866e-08
2.2152e-08
2.19216e-08
2.16942e-08
2.14683e-08
2.12438e-08
2.10225e-08
2.08035e-08
2.05873e-08
2.03731e-08
2.01598e-08
1.99506e-08
1.97422e-08
1.95373e-08
1.93333e-08
1.91323e-08
1.89323e-08
1.87355e-08
1.85405e-08
1.83471e-08
3.19154e-08
4.23418e-08
5.61733e-08
7.45208e-08
9.88708e-08
1.31165e-07
1.74012e-07
2.30852e-07
3.06275e-07
4.06312e-07
5.39058e-07
7.15139e-07
9.48774e-07
1.25868e-06
1.6699e-06
2.21539e-06
2.93907e-06
3.89901e-06
5.1729e-06
2.59766e-08
2.49437e-08
2.46834e-08
2.44273e-08
2.41722e-08
2.39212e-08
2.36706e-08
2.34242e-08
2.31823e-08
2.29391e-08
2.27e-08
2.2464e-08
2.223e-08
2.19988e-08
2.17687e-08
2.15428e-08
2.13177e-08
2.10962e-08
2.08761e-08
2.06591e-08
2.04436e-08
2.02302e-08
2.00203e-08
1.98113e-08
1.96049e-08
3.44627e-08
4.57204e-08
6.06537e-08
8.04723e-08
1.06758e-07
1.41632e-07
1.87896e-07
2.49281e-07
3.30705e-07
4.3875e-07
5.82065e-07
7.72221e-07
1.02447e-06
1.35914e-06
1.80314e-06
2.39219e-06
3.17343e-06
4.21038e-06
5.58571e-06
2.80499e-08
2.69344e-08
2.66535e-08
2.63755e-08
2.61021e-08
2.58292e-08
2.55611e-08
2.5293e-08
2.50309e-08
2.47705e-08
2.45115e-08
2.42565e-08
2.40043e-08
2.37541e-08
2.35058e-08
2.3262e-08
2.3019e-08
2.27798e-08
2.25418e-08
2.23077e-08
2.20749e-08
2.1845e-08
2.16174e-08
2.13924e-08
2.11694e-08
2.09491e-08
3.72126e-08
4.93671e-08
6.54977e-08
8.68914e-08
1.15277e-07
1.52932e-07
2.02896e-07
2.69165e-07
3.57107e-07
4.73754e-07
6.28526e-07
8.33833e-07
1.10624e-06
1.46759e-06
1.94704e-06
2.58295e-06
3.42686e-06
4.54638e-06
6.03197e-06
3.02881e-08
2.90842e-08
2.87807e-08
2.84806e-08
2.81838e-08
2.78914e-08
2.75998e-08
2.73131e-08
2.70279e-08
2.67458e-08
2.64684e-08
2.61922e-08
2.59197e-08
2.56501e-08
2.53813e-08
2.51182e-08
2.4856e-08
2.45977e-08
2.43407e-08
2.40876e-08
2.38365e-08
2.35882e-08
2.3343e-08
2.3099e-08
2.2859e-08
2.26208e-08
2.23849e-08
4.01807e-08
5.33098e-08
7.07224e-08
9.38256e-08
1.24475e-07
1.65141e-07
2.1908e-07
2.90653e-07
3.85597e-07
5.11569e-07
6.78673e-07
9.00383e-07
1.19451e-06
1.58471e-06
2.1023e-06
2.78922e-06
3.70033e-06
4.90961e-06
6.51225e-06
3.27039e-08
3.14049e-08
3.10779e-08
3.07536e-08
3.04333e-08
3.01158e-08
2.98035e-08
2.94916e-08
2.91866e-08
2.88796e-08
2.85791e-08
2.82834e-08
2.79881e-08
2.76968e-08
2.74072e-08
2.71224e-08
2.68394e-08
2.65607e-08
2.62833e-08
2.60099e-08
2.57384e-08
2.54705e-08
2.52057e-08
2.49429e-08
2.46826e-08
2.44262e-08
2.41713e-08
2.39196e-08
4.33897e-08
5.75622e-08
7.63662e-08
1.01312e-07
1.34412e-07
1.78313e-07
2.36569e-07
3.13842e-07
4.16376e-07
5.52384e-07
7.32839e-07
9.72227e-07
1.28983e-06
1.71108e-06
2.27019e-06
3.01181e-06
3.99596e-06
5.30052e-06
7.03288e-06
3.53158e-08
3.39098e-08
3.35577e-08
3.32082e-08
3.28622e-08
3.25195e-08
3.21804e-08
3.18463e-08
3.15145e-08
3.11861e-08
3.08592e-08
3.05388e-08
3.02226e-08
2.9907e-08
2.95941e-08
2.92873e-08
2.8981e-08
2.86802e-08
2.83808e-08
2.80856e-08
2.77925e-08
2.75028e-08
2.72172e-08
2.69333e-08
2.66528e-08
2.63749e-08
2.61004e-08
2.58285e-08
2.55596e-08
4.68508e-08
6.21558e-08
8.24592e-08
1.09399e-07
1.45133e-07
1.92549e-07
2.55443e-07
3.38893e-07
4.49596e-07
5.96472e-07
7.91315e-07
1.04982e-06
1.39269e-06
1.84772e-06
2.45135e-06
3.25243e-06
4.31413e-06
5.72428e-06
7.59387e-06
3.81329e-08
3.6618e-08
3.62343e-08
3.58581e-08
3.54851e-08
3.51149e-08
3.47488e-08
3.43861e-08
3.40307e-08
3.36736e-08
3.33238e-08
3.29752e-08
3.26327e-08
3.22948e-08
3.19558e-08
3.16242e-08
3.12942e-08
3.09686e-08
3.06455e-08
3.0327e-08
3.00105e-08
2.96977e-08
2.93888e-08
2.90825e-08
2.87797e-08
2.84802e-08
2.81826e-08
2.78898e-08
2.75993e-08
2.73116e-08
5.05897e-08
6.7115e-08
8.90419e-08
1.18125e-07
1.56719e-07
2.07911e-07
2.75833e-07
3.65932e-07
4.8548e-07
6.44066e-07
8.54465e-07
1.13353e-06
1.5039e-06
1.99518e-06
2.6472e-06
3.51139e-06
4.65903e-06
6.18089e-06
8.19926e-06
4.1176e-08
3.95389e-08
3.91281e-08
3.87182e-08
3.83166e-08
3.79176e-08
3.75221e-08
3.71306e-08
3.67447e-08
3.63622e-08
3.59818e-08
3.56089e-08
3.52362e-08
3.48701e-08
3.45071e-08
3.41479e-08
3.37913e-08
3.34405e-08
3.30908e-08
3.2747e-08
3.24054e-08
3.20677e-08
3.17342e-08
3.1403e-08
3.10763e-08
3.07529e-08
3.04323e-08
3.01148e-08
2.9802e-08
2.94911e-08
2.91846e-08
5.4626e-08
7.24728e-08
9.61443e-08
1.27556e-07
1.69223e-07
2.24506e-07
2.9784e-07
3.95138e-07
5.24218e-07
6.95465e-07
9.22601e-07
1.22405e-06
1.62392e-06
2.15458e-06
2.85797e-06
3.79211e-06
5.03066e-06
6.67363e-06
8.85423e-06
4.44612e-08
4.26943e-08
4.22493e-08
4.18103e-08
4.13727e-08
4.09432e-08
4.05169e-08
4.0094e-08
3.96774e-08
3.92621e-08
3.88546e-08
3.8449e-08
3.80504e-08
3.7652e-08
3.72588e-08
3.68742e-08
3.64878e-08
3.61088e-08
3.5732e-08
3.53599e-08
3.49913e-08
3.46269e-08
3.42667e-08
3.39091e-08
3.35559e-08
3.3207e-08
3.28607e-08
3.25187e-08
3.21795e-08
3.18448e-08
3.15135e-08
3.11828e-08
5.89868e-08
7.82536e-08
1.0382e-07
1.37732e-07
1.8273e-07
2.42418e-07
3.21612e-07
4.26667e-07
5.66052e-07
7.50922e-07
9.96278e-07
1.32173e-06
1.75366e-06
2.32613e-06
3.08646e-06
4.0946e-06
5.43171e-06
7.20673e-06
9.56052e-06
4.80106e-08
4.61007e-08
4.56209e-08
4.51455e-08
4.46769e-08
4.42088e-08
4.375e-08
4.32941e-08
4.28441e-08
4.23958e-08
4.19534e-08
4.15189e-08
4.10853e-08
4.06592e-08
4.02313e-08
3.98147e-08
3.94009e-08
3.89903e-08
3.85832e-08
3.81823e-08
3.77833e-08
3.73901e-08
3.70014e-08
3.66153e-08
3.62338e-08
3.58565e-08
3.5483e-08
3.51136e-08
3.47482e-08
3.43853e-08
3.40286e-08
3.36712e-08
3.33237e-08
6.36919e-08
8.45008e-08
1.12103e-07
1.48726e-07
1.97309e-07
2.61767e-07
3.47274e-07
4.60717e-07
6.1119e-07
8.10889e-07
1.07578e-06
1.42733e-06
1.89329e-06
2.51209e-06
3.33266e-06
4.42102e-06
5.86561e-06
7.7816e-06
1.03233e-05
5.18401e-08
4.97809e-08
4.92608e-08
4.87482e-08
4.82407e-08
4.77395e-08
4.72395e-08
4.67488e-08
4.62637e-08
4.57794e-08
4.53018e-08
4.48301e-08
4.43657e-08
4.39022e-08
4.34445e-08
4.29911e-08
4.25429e-08
4.21032e-08
4.16621e-08
4.1229e-08
4.07991e-08
4.03734e-08
3.9954e-08
3.95374e-08
3.91255e-08
3.87181e-08
3.83142e-08
3.79157e-08
3.7521e-08
3.713e-08
3.67433e-08
3.63585e-08
3.5983e-08
3.56074e-08
6.87766e-08
9.12424e-08
1.21051e-07
1.60592e-07
2.13057e-07
2.82654e-07
3.74988e-07
4.97455e-07
6.59998e-07
8.75601e-07
1.16173e-06
1.54098e-06
2.04465e-06
2.71248e-06
3.59834e-06
4.77418e-06
6.33349e-06
8.40246e-06
1.11478e-05
5.59787e-08
5.37516e-08
5.31933e-08
5.26376e-08
5.20905e-08
5.15476e-08
5.10122e-08
5.04775e-08
4.99553e-08
4.94333e-08
4.89174e-08
4.84082e-08
4.79039e-08
4.74075e-08
4.69097e-08
4.64247e-08
4.59371e-08
4.54607e-08
4.49884e-08
4.45191e-08
4.40546e-08
4.35959e-08
4.3142e-08
4.26924e-08
4.22479e-08
4.1808e-08
4.13718e-08
4.0941e-08
4.05152e-08
4.00929e-08
3.96763e-08
3.92591e-08
3.88548e-08
3.84489e-08
3.8048e-08
7.42637e-08
9.85254e-08
1.30709e-07
1.7341e-07
2.30057e-07
3.05211e-07
4.0489e-07
5.37181e-07
7.12669e-07
9.45556e-07
1.25423e-06
1.66417e-06
2.20775e-06
2.92872e-06
3.88578e-06
5.15501e-06
6.83881e-06
9.07353e-06
1.20368e-05
6.04448e-08
5.80428e-08
5.74362e-08
5.68397e-08
5.62466e-08
5.56613e-08
5.50814e-08
5.45088e-08
5.39398e-08
5.33778e-08
5.28217e-08
5.22717e-08
5.17273e-08
5.11883e-08
5.06551e-08
5.01276e-08
4.96059e-08
4.90876e-08
4.85759e-08
4.80734e-08
4.75702e-08
4.70747e-08
4.65855e-08
4.60988e-08
4.56192e-08
4.51445e-08
4.46735e-08
4.42082e-08
4.37479e-08
4.32924e-08
4.28424e-08
4.23929e-08
4.19545e-08
4.15175e-08
4.10843e-08
4.06528e-08
8.01914e-08
1.06386e-07
1.41141e-07
1.87247e-07
2.48417e-07
3.29548e-07
4.37224e-07
5.8005e-07
7.69606e-07
1.02084e-06
1.3545e-06
1.79692e-06
2.38375e-06
3.16267e-06
4.19574e-06
5.56631e-06
7.385e-06
9.79716e-06
1.29974e-05
6.52695e-08
6.26736e-08
6.20216e-08
6.13735e-08
6.07367e-08
6.01023e-08
5.9477e-08
5.88569e-08
5.82476e-08
5.76352e-08
5.70366e-08
5.64437e-08
5.58557e-08
5.52739e-08
5.46949e-08
5.41299e-08
5.35625e-08
5.30082e-08
5.24514e-08
5.1907e-08
5.13681e-08
5.08312e-08
5.03027e-08
4.97783e-08
4.92591e-08
4.87469e-08
4.82387e-08
4.77363e-08
4.72392e-08
4.67467e-08
4.62612e-08
4.57758e-08
4.53035e-08
4.48297e-08
4.43633e-08
4.3897e-08
4.34432e-08
8.65895e-08
1.14877e-07
1.52403e-07
2.0219e-07
2.68226e-07
3.55865e-07
4.72116e-07
6.26391e-07
8.30883e-07
1.10246e-06
1.46255e-06
1.94017e-06
2.57417e-06
3.41495e-06
4.5305e-06
6.01086e-06
7.97397e-06
1.0579e-05
1.40346e-05
7.0477e-08
6.76762e-08
6.69698e-08
6.62731e-08
6.55814e-08
6.49002e-08
6.42225e-08
6.35538e-08
6.28939e-08
6.22382e-08
6.15859e-08
6.09476e-08
6.03138e-08
5.96853e-08
5.90603e-08
5.84469e-08
5.78391e-08
5.72361e-08
5.66406e-08
5.60482e-08
5.54644e-08
5.48895e-08
5.43169e-08
5.37503e-08
5.31909e-08
5.26365e-08
5.2088e-08
5.15459e-08
5.10092e-08
5.04773e-08
4.99524e-08
4.94287e-08
4.89186e-08
4.84081e-08
4.79025e-08
4.74005e-08
4.691e-08
4.64227e-08
9.35005e-08
1.24044e-07
1.64565e-07
2.18312e-07
2.89646e-07
3.84265e-07
5.09834e-07
6.76266e-07
8.97309e-07
1.19039e-06
1.57914e-06
2.09516e-06
2.77951e-06
3.68741e-06
4.89234e-06
6.49024e-06
8.6103e-06
1.14232e-05
1.51549e-05
7.6102e-08
7.30757e-08
7.23153e-08
7.15605e-08
7.0817e-08
7.0077e-08
6.93493e-08
6.86245e-08
6.7913e-08
6.72028e-08
6.65044e-08
6.58089e-08
6.51265e-08
6.44491e-08
6.37739e-08
6.31117e-08
6.24519e-08
6.1806e-08
6.11582e-08
6.05246e-08
5.98894e-08
5.92666e-08
5.86535e-08
5.80396e-08
5.74352e-08
5.68377e-08
5.62442e-08
5.56592e-08
5.50799e-08
5.45056e-08
5.39389e-08
5.33726e-08
5.28223e-08
5.2271e-08
5.17262e-08
5.11819e-08
5.0654e-08
5.01273e-08
4.9602e-08
1.00961e-07
1.33943e-07
1.77688e-07
2.35746e-07
3.12761e-07
4.14965e-07
5.50428e-07
7.30331e-07
9.68885e-07
1.28529e-06
1.70529e-06
2.26228e-06
3.00127e-06
3.98191e-06
5.28251e-06
7.00817e-06
9.29743e-06
1.2335e-05
1.63639e-05
8.21744e-08
7.89081e-08
7.8085e-08
7.72725e-08
7.64669e-08
7.56715e-08
7.4881e-08
7.41028e-08
7.33316e-08
7.25658e-08
7.18093e-08
7.10646e-08
7.03211e-08
6.95918e-08
6.88641e-08
6.81487e-08
6.74364e-08
6.67351e-08
6.60413e-08
6.53521e-08
6.46726e-08
6.3995e-08
6.33307e-08
6.26734e-08
6.20186e-08
6.13731e-08
6.07334e-08
6.01002e-08
5.94752e-08
5.88554e-08
5.82435e-08
5.7632e-08
5.7037e-08
5.64422e-08
5.58539e-08
5.52674e-08
5.4695e-08
5.4128e-08
5.35603e-08
5.30061e-08
1.09018e-07
1.44624e-07
1.91878e-07
2.5456e-07
3.37748e-07
4.48005e-07
5.94433e-07
7.88587e-07
1.04613e-06
1.38797e-06
1.84132e-06
2.44278e-06
3.24097e-06
4.29947e-06
5.70406e-06
7.56744e-06
1.00396e-05
1.33191e-05
1.76698e-05
8.87322e-08
8.52044e-08
8.43171e-08
8.34377e-08
8.25704e-08
8.17087e-08
8.0859e-08
8.00136e-08
7.91856e-08
7.83555e-08
7.75399e-08
7.67333e-08
7.59372e-08
7.51425e-08
7.4359e-08
7.3588e-08
7.28185e-08
7.20615e-08
7.13082e-08
7.057e-08
6.9831e-08
6.91061e-08
6.83833e-08
6.76712e-08
6.697e-08
6.62707e-08
6.55796e-08
6.48973e-08
6.42208e-08
6.3552e-08
6.28916e-08
6.22313e-08
6.15888e-08
6.09457e-08
6.0311e-08
5.96777e-08
5.90609e-08
5.84461e-08
5.7835e-08
5.7236e-08
5.66349e-08
1.17712e-07
1.56173e-07
2.0719e-07
2.74897e-07
3.6464e-07
4.83821e-07
6.41849e-07
8.51454e-07
1.12969e-06
1.49868e-06
1.98822e-06
2.63787e-06
3.49944e-06
4.64257e-06
6.15926e-06
8.17148e-06
1.08405e-05
1.4382e-05
1.90801e-05
9.58078e-08
9.20041e-08
9.1045e-08
9.00971e-08
8.91583e-08
8.82306e-08
8.731e-08
8.64014e-08
8.55018e-08
8.46106e-08
8.37265e-08
8.28568e-08
8.19946e-08
8.11436e-08
8.029e-08
7.94599e-08
7.86306e-08
7.78128e-08
7.69996e-08
7.61981e-08
7.54065e-08
7.4618e-08
7.3845e-08
7.30701e-08
7.23105e-08
7.15616e-08
7.08129e-08
7.00757e-08
6.93467e-08
6.86228e-08
6.79102e-08
6.71977e-08
6.6504e-08
6.58095e-08
6.51232e-08
6.44399e-08
6.37739e-08
6.31115e-08
6.24489e-08
6.18041e-08
6.11545e-08
6.05207e-08
1.27112e-07
1.68636e-07
2.23743e-07
2.96785e-07
3.93792e-07
5.22415e-07
6.93018e-07
9.1947e-07
1.21981e-06
1.61825e-06
2.14702e-06
2.84825e-06
3.7787e-06
5.01306e-06
6.65089e-06
8.8234e-06
1.17056e-05
1.55299e-05
2.06028e-05
1.03459e-07
9.93406e-08
9.83108e-08
9.72862e-08
9.62743e-08
9.52701e-08
9.42791e-08
9.32946e-08
9.23277e-08
9.13596e-08
9.04104e-08
8.94677e-08
8.8538e-08
8.76163e-08
8.67022e-08
8.57977e-08
8.49048e-08
8.40234e-08
8.31449e-08
8.22797e-08
8.14203e-08
8.05758e-08
7.97348e-08
7.89061e-08
7.80795e-08
7.72682e-08
7.64665e-08
7.56678e-08
7.48802e-08
7.41001e-08
7.33288e-08
7.25599e-08
7.18113e-08
7.10615e-08
7.03204e-08
6.95816e-08
6.8863e-08
6.81477e-08
6.74338e-08
6.67346e-08
6.60353e-08
6.53504e-08
6.46706e-08
1.37256e-07
1.82109e-07
2.41558e-07
3.20512e-07
4.25203e-07
5.64062e-07
7.48377e-07
9.92814e-07
1.31713e-06
1.7475e-06
2.31824e-06
3.07554e-06
4.08025e-06
5.41321e-06
7.1815e-06
9.52754e-06
1.26399e-05
1.67693e-05
2.22466e-05
1.11715e-07
1.07274e-07
1.0615e-07
1.0505e-07
1.03956e-07
1.02874e-07
1.01801e-07
1.00741e-07
9.96938e-08
9.86531e-08
9.7622e-08
9.66099e-08
9.56021e-08
9.46083e-08
9.36183e-08
9.26498e-08
9.16769e-08
9.0728e-08
8.97811e-08
8.88465e-08
8.79187e-08
8.70018e-08
8.61011e-08
8.51996e-08
8.43155e-08
8.34328e-08
8.25642e-08
8.1709e-08
8.08556e-08
8.00129e-08
7.91817e-08
7.83495e-08
7.75417e-08
7.67325e-08
7.59323e-08
7.51346e-08
7.43576e-08
7.35859e-08
7.28148e-08
7.20616e-08
7.13034e-08
7.05661e-08
6.98314e-08
6.91023e-08
1.48221e-07
1.96609e-07
2.6087e-07
3.46079e-07
4.59101e-07
6.0912e-07
8.08074e-07
1.07203e-06
1.42232e-06
1.88686e-06
2.50324e-06
3.32098e-06
4.40594e-06
5.84507e-06
7.75461e-06
1.0288e-05
1.36486e-05
1.81072e-05
2.40218e-05
1.2064e-07
1.15835e-07
1.14627e-07
1.13427e-07
1.12252e-07
1.11082e-07
1.09926e-07
1.08779e-07
1.07651e-07
1.06524e-07
1.05415e-07
1.04316e-07
1.03234e-07
1.02157e-07
1.01089e-07
1.0004e-07
9.89985e-08
9.79646e-08
9.69452e-08
9.59378e-08
9.49355e-08
9.39458e-08
9.29678e-08
9.20022e-08
9.10406e-08
9.00964e-08
8.91513e-08
8.82248e-08
8.7311e-08
8.63979e-08
8.55e-08
8.46031e-08
8.37288e-08
8.28556e-08
8.19921e-08
8.11307e-08
8.02917e-08
7.94573e-08
7.86254e-08
7.7812e-08
7.69951e-08
7.61956e-08
7.54047e-08
7.46168e-08
7.38374e-08
1.60023e-07
2.12327e-07
2.81679e-07
3.73668e-07
4.95775e-07
6.57708e-07
8.72546e-07
1.15764e-06
1.53575e-06
2.03744e-06
2.70301e-06
3.58606e-06
4.75745e-06
6.31154e-06
8.37352e-06
1.1109e-05
1.47375e-05
1.95521e-05
2.59394e-05
1.30246e-07
1.25089e-07
1.23775e-07
1.22485e-07
1.21204e-07
1.19947e-07
1.18698e-07
1.17461e-07
1.1624e-07
1.15027e-07
1.13826e-07
1.12644e-07
1.11468e-07
1.10312e-07
1.09155e-07
1.08024e-07
1.06896e-07
1.05788e-07
1.04678e-07
1.03593e-07
1.02513e-07
1.01444e-07
1.00388e-07
9.93396e-08
9.83095e-08
9.72825e-08
9.62716e-08
9.52634e-08
9.42736e-08
9.32958e-08
9.23229e-08
9.1354e-08
9.04118e-08
8.94667e-08
8.85349e-08
8.76053e-08
8.66994e-08
8.57983e-08
8.4899e-08
8.40214e-08
8.31391e-08
8.22778e-08
8.14203e-08
8.0572e-08
7.97297e-08
7.89007e-08
1.72816e-07
2.29264e-07
3.04135e-07
4.03517e-07
5.35322e-07
7.10184e-07
9.42233e-07
1.24997e-06
1.65831e-06
2.20003e-06
2.91877e-06
3.87216e-06
5.13711e-06
6.81527e-06
9.04177e-06
1.19953e-05
1.59136e-05
2.11129e-05
2.80087e-05
1.40659e-07
1.35049e-07
1.33664e-07
1.3226e-07
1.30883e-07
1.29512e-07
1.2817e-07
1.26834e-07
1.25518e-07
1.24204e-07
1.22911e-07
1.21631e-07
1.20367e-07
1.19111e-07
1.17869e-07
1.16643e-07
1.15426e-07
1.14227e-07
1.13038e-07
1.11856e-07
1.10693e-07
1.0954e-07
1.084e-07
1.07268e-07
1.0615e-07
1.0505e-07
1.0395e-07
1.02872e-07
1.01795e-07
1.00736e-07
9.96938e-08
9.86441e-08
9.76262e-08
9.66077e-08
9.55991e-08
9.45961e-08
9.36184e-08
9.26455e-08
9.16743e-08
9.07254e-08
8.97736e-08
8.88434e-08
8.79195e-08
8.69998e-08
8.6093e-08
8.51971e-08
8.43101e-08
1.86601e-07
2.47541e-07
3.28429e-07
4.35705e-07
5.78032e-07
7.66903e-07
1.01738e-06
1.34972e-06
1.79065e-06
2.37564e-06
3.15162e-06
4.18117e-06
5.54711e-06
7.35917e-06
9.76316e-06
1.29525e-05
1.71839e-05
2.27972e-05
3.0244e-05
1.51879e-07
1.45845e-07
1.44306e-07
1.42826e-07
1.41328e-07
1.39855e-07
1.38391e-07
1.36955e-07
1.35533e-07
1.34117e-07
1.32718e-07
1.31339e-07
1.2997e-07
1.2862e-07
1.2727e-07
1.25954e-07
1.24636e-07
1.23343e-07
1.22054e-07
1.20789e-07
1.19522e-07
1.18281e-07
1.17052e-07
1.15829e-07
1.14622e-07
1.13428e-07
1.1225e-07
1.11077e-07
1.09925e-07
1.08772e-07
1.07644e-07
1.0652e-07
1.05417e-07
1.04316e-07
1.0323e-07
1.02144e-07
1.01089e-07
1.00039e-07
9.89904e-08
9.79658e-08
9.69367e-08
9.59331e-08
9.49353e-08
9.39445e-08
9.29612e-08
9.19968e-08
9.10382e-08
9.00907e-08
2.01477e-07
2.67315e-07
3.54628e-07
4.70468e-07
6.24198e-07
8.28065e-07
1.09857e-06
1.45743e-06
1.93358e-06
2.56517e-06
3.40313e-06
4.51488e-06
5.9898e-06
7.94631e-06
1.05422e-05
1.39865e-05
1.85547e-05
2.46166e-05
3.26575e-05
1.63987e-07
1.57479e-07
1.55843e-07
1.54198e-07
1.52619e-07
1.51016e-07
1.49442e-07
1.47876e-07
1.46349e-07
1.44819e-07
1.4331e-07
1.41818e-07
1.40345e-07
1.38881e-07
1.37431e-07
1.36001e-07
1.34585e-07
1.33184e-07
1.31795e-07
1.30424e-07
1.29067e-07
1.27715e-07
1.26392e-07
1.25074e-07
1.2377e-07
1.22481e-07
1.21202e-07
1.19946e-07
1.18693e-07
1.1746e-07
1.16232e-07
1.15014e-07
1.13833e-07
1.12641e-07
1.11467e-07
1.10297e-07
1.09155e-07
1.08022e-07
1.0689e-07
1.05784e-07
1.04673e-07
1.03588e-07
1.02511e-07
1.01441e-07
1.00382e-07
9.93359e-08
9.83041e-08
9.728e-08
9.62673e-08
2.17572e-07
2.88638e-07
3.82922e-07
5.08043e-07
6.73978e-07
8.94146e-07
1.18623e-06
1.57376e-06
2.08784e-06
2.76988e-06
3.67475e-06
4.87519e-06
6.46769e-06
8.58041e-06
1.13838e-05
1.51022e-05
2.00356e-05
2.6581e-05
3.52641e-05
1.77086e-07
1.70033e-07
1.68274e-07
1.66526e-07
1.6477e-07
1.63081e-07
1.61368e-07
1.59685e-07
1.58019e-07
1.56376e-07
1.54745e-07
1.53137e-07
1.51542e-07
1.49967e-07
1.48395e-07
1.46858e-07
1.4532e-07
1.43816e-07
1.4231e-07
1.40832e-07
1.39363e-07
1.37915e-07
1.36473e-07
1.35055e-07
1.33649e-07
1.32256e-07
1.30876e-07
1.29512e-07
1.28169e-07
1.26828e-07
1.25515e-07
1.2419e-07
1.22911e-07
1.21634e-07
1.20362e-07
1.19098e-07
1.17867e-07
1.16641e-07
1.1542e-07
1.14226e-07
1.13026e-07
1.11854e-07
1.10691e-07
1.09536e-07
1.08392e-07
1.07265e-07
1.06146e-07
1.05044e-07
1.0395e-07
1.02865e-07
2.34927e-07
3.11667e-07
4.13504e-07
5.4856e-07
7.27762e-07
9.65501e-07
1.28092e-06
1.69932e-06
2.25445e-06
2.99095e-06
3.96801e-06
5.26415e-06
6.9838e-06
9.26538e-06
1.22919e-05
1.63075e-05
2.16344e-05
2.87026e-05
3.80778e-05
1.91212e-07
1.83616e-07
1.81689e-07
1.79809e-07
1.77943e-07
1.76065e-07
1.7426e-07
1.72429e-07
1.70638e-07
1.68845e-07
1.67095e-07
1.65356e-07
1.63637e-07
1.61932e-07
1.6024e-07
1.58575e-07
1.56922e-07
1.55287e-07
1.53671e-07
1.52069e-07
1.50484e-07
1.48916e-07
1.47372e-07
1.45827e-07
1.44313e-07
1.42812e-07
1.41321e-07
1.39848e-07
1.38391e-07
1.36955e-07
1.35526e-07
1.34109e-07
1.32717e-07
1.31334e-07
1.29971e-07
1.28602e-07