/*--------------------------------*- C++ -*----------------------------------*\
| =========                 |                                                 |
| \\      /  F ield         | OpenFOAM: The Open Source CFD Toolbox           |
|  \\    /   O peration     | Version:  v2012                                 |
|   \\  /    A nd           | Website:  www.openfoam.com                      |
|    \\/     M anipulation  |                                                 |
\*---------------------------------------------------------------------------*/
FoamFile
{
    version     2.0;
    format      ascii;
    class       volScalarField;
    location    "1901";
    object      xx;
}
// * * * * * * * * * * * * * * * * * * * * * * * * * * * * * * * * * * * * * //

dimensions      [0 0 0 0 0 0 0];


internalField   nonuniform List<scalar> 
8000
(
8.17638e-17
7.14054e-17
8.95189e-17
6.47909e-17
7.57542e-17
9.00266e-17
6.04965e-17
6.6584e-17
7.71896e-17
9.004e-17
5.76736e-17
6.13413e-17
6.82161e-17
7.89085e-17
9.00404e-17
6.22535e-17
5.8194e-17
6.26302e-17
7.00803e-17
8.30571e-17
9.00404e-17
7.65441e-17
6.23007e-17
5.91753e-17
6.42737e-17
7.27442e-17
8.4318e-17
9.00404e-17
8.88605e-17
7.65881e-17
6.23988e-17
6.05393e-17
6.62712e-17
7.45726e-17
8.45773e-17
9.00404e-17
9.92757e-17
8.89025e-17
7.66828e-17
6.25511e-17
6.21963e-17
6.81502e-17
7.66832e-17
8.46246e-17
9.00404e-17
1.07982e-16
9.93162e-17
8.8994e-17
7.68326e-17
6.27592e-17
6.39553e-17
7.01046e-17
7.89248e-17
8.46333e-17
9.00404e-17
1.15205e-16
1.08021e-16
9.94052e-17
8.91408e-17
7.70407e-17
6.30194e-17
6.57959e-17
7.21366e-17
7.999e-17
8.4635e-17
9.00404e-17
1.21169e-16
1.15244e-16
1.08108e-16
9.95493e-17
8.93476e-17
7.73091e-17
6.34832e-17
6.77006e-17
7.41308e-17
8.03663e-17
8.46355e-17
9.00404e-17
1.26075e-16
1.21207e-16
1.1533e-16
1.0825e-16
9.97543e-17
8.9619e-17
7.76488e-17
6.48803e-17
6.96201e-17
7.60123e-17
8.04825e-17
8.46356e-17
9.00404e-17
1.30101e-16
1.26113e-16
1.21291e-16
1.1547e-16
1.08453e-16
1.00026e-16
8.99648e-17
7.80746e-17
6.66057e-17
7.15717e-17
7.70508e-17
8.05165e-17
8.46356e-17
9.00404e-17
1.33399e-16
1.30139e-16
1.26196e-16
1.2143e-16
1.15671e-16
1.08725e-16
1.00375e-16
9.03994e-17
7.86062e-17
6.84607e-17
7.3487e-17
7.74827e-17
8.05265e-17
8.46356e-17
9.00404e-17
1.36097e-16
1.33436e-16
1.30222e-16
1.26334e-16
1.2163e-16
1.15943e-16
1.09076e-16
1.00815e-16
9.09438e-17
7.9276e-17
7.03751e-17
7.47936e-17
7.76392e-17
8.05296e-17
8.46356e-17
9.00404e-17
5.19013e-14
1.36134e-16
1.33519e-16
1.30358e-16
1.26533e-16
1.21901e-16
1.16294e-16
1.09519e-16
1.01368e-16
9.16293e-17
8.01274e-17
7.221e-17
7.54222e-17
7.76925e-17
8.05306e-17
8.46356e-17
9.00404e-17
7.79748e-10
2.71695e-14
1.36216e-16
1.33654e-16
1.30556e-16
1.26803e-16
1.22253e-16
1.16739e-16
1.10076e-16
1.02063e-16
9.24983e-17
8.12045e-17
7.34701e-17
7.56741e-17
7.77105e-17
8.0531e-17
8.46356e-17
9.00404e-17
9.47452e-06
3.38723e-10
1.05521e-14
1.36351e-16
1.33852e-16
1.30826e-16
1.27155e-16
1.22699e-16
1.173e-16
1.10778e-16
1.02943e-16
9.36004e-17
8.2335e-17
7.40906e-17
7.57668e-17
7.77168e-17
8.05311e-17
8.46356e-17
9.00404e-17
0.00829971
3.25945e-06
1.14906e-10
3.81608e-15
1.36548e-16
1.34121e-16
1.31177e-16
1.27602e-16
1.23262e-16
1.18006e-16
1.11666e-16
1.04058e-16
9.49422e-17
8.30664e-17
7.4346e-17
7.58001e-17
7.77191e-17
8.05312e-17
8.46356e-17
9.00404e-17
0.00438448
0.0166942
1.00256e-06
3.98202e-11
1.54463e-15
1.36817e-16
1.34472e-16
1.31625e-16
1.28167e-16
1.23971e-16
1.18898e-16
1.12789e-16
1.05466e-16
9.60812e-17
8.3408e-17
7.44428e-17
7.58123e-17
7.772e-17
8.05312e-17
8.46356e-17
9.00404e-17
0.00241976
0.0291596
0.000872183
3.60306e-07
1.62257e-11
7.51254e-16
1.37168e-16
1.34921e-16
1.32191e-16
1.28878e-16
1.24867e-16
1.20028e-16
1.14215e-16
1.06913e-16
9.67068e-17
8.35463e-17
7.44788e-17
7.5817e-17
7.77204e-17
8.05312e-17
8.46356e-17
9.00404e-17
0.00162361
0.0491815
0.00184736
0.000225813
1.58691e-07
7.54902e-12
4.24589e-16
1.37616e-16
1.35487e-16
1.32904e-16
1.29776e-16
1.26e-16
1.21459e-16
1.1585e-16
1.07851e-16
9.698e-17
8.36001e-17
7.44925e-17
7.58188e-17
7.77205e-17
8.05312e-17
8.46356e-17
9.00404e-17
0.00118467
0.0752368
0.00625197
0.000282369
0.000114054
7.73758e-08
3.65127e-12
2.70608e-16
1.38183e-16
1.36201e-16
1.33804e-16
1.30912e-16
1.27435e-16
1.23195e-16
1.17079e-16
1.08296e-16
9.70894e-17
8.36212e-17
7.4498e-17
7.58196e-17
7.77206e-17
8.05312e-17
8.46356e-17
9.00404e-17
0.000625611
0.104282
0.0166226
0.000953484
0.000121593
7.12984e-05
3.81005e-08
1.71451e-12
1.94238e-16
1.38898e-16
1.37102e-16
1.34941e-16
1.3235e-16
1.29221e-16
1.24668e-16
1.17713e-16
1.0848e-16
9.71326e-17
8.36297e-17
7.45002e-17
7.58199e-17
7.77206e-17
8.05312e-17
8.46356e-17
9.00404e-17
0.00031414
0.122065
0.0343928
0.00399911
0.000285517
7.29552e-05
4.9256e-05
1.7982e-08
7.28014e-13
1.57835e-16
1.398e-16
1.38241e-16
1.36381e-16
1.34159e-16
1.30885e-16
1.25491e-16
1.17986e-16
1.08554e-16
9.715e-17
8.36333e-17
7.45011e-17
7.582e-17
7.77206e-17
8.05312e-17
8.46356e-17
9.00404e-17
0.000150037
0.124203
0.0589429
0.0113601
0.00140407
0.000141518
4.98154e-05
3.70173e-05
7.60895e-09
2.48423e-13
1.44238e-16
1.4094e-16
1.39683e-16
1.38202e-16
1.35966e-16
1.31883e-16
1.25857e-16
1.18096e-16
1.08584e-16
9.71573e-17
8.36348e-17
7.45015e-17
7.58201e-17
7.77206e-17
8.05312e-17
8.46356e-17
9.00404e-17
6.38067e-05
0.117194
0.0834777
0.0254696
0.0049776
0.000693372
9.4134e-05
3.75029e-05
2.93985e-05
2.54152e-09
6.42744e-14
1.43145e-16
1.42383e-16
1.41509e-16
1.40115e-16
1.3712e-16
1.32343e-16
1.26007e-16
1.18141e-16
1.08596e-16
9.71604e-17
8.36355e-17
7.45017e-17
7.58201e-17
7.77206e-17
8.05312e-17
8.46356e-17
9.00404e-17
2.10349e-05
0.102289
0.104021
0.046328
0.0129101
0.00281324
0.000472406
7.69365e-05
3.02869e-05
2.44306e-05
6.35461e-10
1.18108e-14
1.44589e-16
1.44212e-16
1.43499e-16
1.41402e-16
1.37668e-16
1.32534e-16
1.26068e-16
1.18159e-16
1.08602e-16
9.71618e-17
8.36358e-17
7.45018e-17
7.58202e-17
7.77206e-17
8.05312e-17
8.46356e-17
9.00404e-17
5.13512e-06
0.0314053
0.114631
0.071055
0.0275444
0.00696623
0.00205052
0.000420167
7.55165e-05
2.61108e-05
2.11778e-05
1.09572e-10
1.57907e-15
1.46419e-16
1.46258e-16
1.44898e-16
1.42031e-16
1.37899e-16
1.32612e-16
1.26094e-16
1.18167e-16
1.08604e-16
9.71624e-17
8.36359e-17
7.45019e-17
7.58202e-17
7.77206e-17
8.05312e-17
8.46356e-17
9.00404e-17
8.46198e-07
0.0096719
0.114008
0.0916637
0.0478922
0.0185697
0.0056243
0.00191953
0.000468731
8.67162e-05
2.42883e-05
1.92073e-05
1.24378e-11
2.67767e-16
1.48506e-16
1.47751e-16
1.456e-16
1.42299e-16
1.37994e-16
1.32644e-16
1.26104e-16
1.1817e-16
1.08605e-16
9.71627e-17
8.3636e-17
7.45019e-17
7.58202e-17
7.77206e-17
8.05312e-17
8.46356e-17
9.00404e-17
8.93302e-08
0.00220995
0.105069
0.102729
0.0699638
0.0371366
0.0133841
0.00580797
0.00223547
0.000609317
0.00011577
2.50611e-05
1.82504e-05
9.61996e-13
1.56003e-16
1.50076e-16
1.48514e-16
1.45901e-16
1.42409e-16
1.38033e-16
1.32658e-16
1.26109e-16
1.18172e-16
1.08605e-16
9.71628e-17
8.3636e-17
7.45019e-17
7.58202e-17
7.77206e-17
8.05312e-17
8.46356e-17
9.00404e-17
6.32637e-09
0.000350973
0.0869068
0.10455
0.0880494
0.0597995
0.0325165
0.0125405
0.00719239
0.00299441
0.000898998
0.000178603
2.88314e-05
1.84511e-05
6.41329e-14
1.51971e-16
1.50893e-16
1.48845e-16
1.46025e-16
1.42455e-16
1.38049e-16
1.32664e-16
1.26111e-16
1.18173e-16
1.08606e-16
9.71629e-17
8.3636e-17
7.45019e-17
7.58202e-17
7.77206e-17
8.05312e-17
8.46356e-17
9.00404e-17
4.17565e-10
3.83344e-05
0.0514044
0.101542
0.0985325
0.0800551
0.0581826
0.0330382
0.0154361
0.00984555
0.00451492
0.00148729
0.00029744
3.44187e-05
1.94349e-05
5.39667e-15
1.52834e-16
1.5125e-16
1.48982e-16
1.46076e-16
1.42474e-16
1.38057e-16
1.32667e-16
1.26112e-16
1.18173e-16
1.08606e-16
9.71629e-17
8.3636e-17
7.45019e-17
7.58202e-17
7.77206e-17
8.05312e-17
8.46356e-17
9.00404e-17
3.82606e-11
2.60765e-06
0.0151603
0.0921002
0.10106
0.0926291
0.0834792
0.0647616
0.0390629
0.0217462
0.0151035
0.00757724
0.00258949
0.000471082
4.53264e-05
2.11095e-05
5.84277e-16
1.53213e-16
1.51398e-16
1.49039e-16
1.46098e-16
1.42482e-16
1.3806e-16
1.32668e-16
1.26113e-16
1.18173e-16
1.08606e-16
9.71629e-17
8.3636e-17
7.45019e-17
7.58202e-17
7.77206e-17
8.05312e-17
8.46356e-17
9.00404e-17
3.25946e-12
2.68356e-07
0.00467986
0.0753794
0.0974247
0.0986147
0.0983303
0.0993001
0.080987
0.0479068
0.034328
0.0256337
0.0133062
0.00426601
0.000725594
5.72361e-05
2.26151e-05
1.77047e-16
1.5337e-16
1.51459e-16
1.49063e-16
1.46108e-16
1.42486e-16
1.38061e-16
1.32668e-16
1.26113e-16
1.18173e-16
1.08606e-16
9.71629e-17
8.3636e-17
7.45019e-17
7.58202e-17
7.77206e-17
8.05312e-17
8.46356e-17
9.00404e-17
1.76983e-13
2.31827e-08
0.0012534
0.0527572
0.0891366
0.0966516
0.102464
0.121472
0.134451
0.110083
0.0696652
0.0592943
0.0451509
0.0221431
0.00661925
0.000991046
6.71052e-05
2.37189e-05
1.54979e-16
1.53435e-16
1.51485e-16
1.49073e-16
1.46112e-16
1.42488e-16
1.38062e-16
1.32669e-16
1.26113e-16
1.18173e-16
1.08606e-16
9.71629e-17
8.3636e-17
7.45019e-17
7.58202e-17
7.77206e-17
8.05312e-17
8.46356e-17
9.00404e-17
6.82656e-15
1.18782e-09
0.000161074
0.0302926
0.0751742
0.0917613
0.100208
0.123527
0.174414
0.194093
0.16337
0.114651
0.104456
0.074932
0.0341095
0.0090628
0.0012084
7.344e-05
2.43229e-05
1.55048e-16
1.53463e-16
1.51497e-16
1.49078e-16
1.46114e-16
1.42489e-16
1.38062e-16
1.32669e-16
1.26113e-16
1.18173e-16
1.08606e-16
9.7163e-17
8.3636e-17
7.45019e-17
7.58202e-17
7.77206e-17
8.05312e-17
8.46356e-17
9.00404e-17
4.04455e-16
4.23876e-11
7.87829e-06
0.0134611
0.0565687
0.0831697
0.0933439
0.113831
0.177711
0.268586
0.293915
0.260668
0.195472
0.170761
0.113475
0.0463388
0.0110517
0.00134537
7.74081e-05
2.4596e-05
1.55077e-16
1.53475e-16
1.51502e-16
1.4908e-16
1.46115e-16
1.42489e-16
1.38063e-16
1.32669e-16
1.26113e-16
1.18173e-16
1.08606e-16
9.7163e-17
8.3636e-17
7.45019e-17
7.58202e-17
7.77206e-17
8.05312e-17
8.46356e-17
9.00404e-17
1.63095e-16
1.65069e-12
2.69886e-07
0.00415538
0.0363315
0.070081
0.0856569
0.102158
0.152969
0.291614
0.425784
0.458073
0.422497
0.313584
0.252612
0.151729
0.0561359
0.0123069
0.0014327
7.93576e-05
2.45441e-05
1.5509e-16
1.53481e-16
1.51504e-16
1.49081e-16
1.46115e-16
1.42489e-16
1.38063e-16
1.32669e-16
1.26113e-16
1.18173e-16
1.08606e-16
9.7163e-17
8.3636e-17
7.45019e-17
7.58202e-17
7.77206e-17
8.05312e-17
8.46356e-17
9.00404e-17
1.56406e-16
6.0505e-14
1.13924e-08
0.000761951
0.019294
0.0533416
0.0754265
0.0906061
0.124255
0.248584
0.493278
0.66455
0.704452
0.63673
0.452346
0.332313
0.18168
0.0623289
0.0131021
0.00147587
8.0047e-05
2.42826e-05
1.55095e-16
1.53483e-16
1.51505e-16
1.49082e-16
1.46116e-16
1.42489e-16
1.38063e-16
1.32669e-16
1.26113e-16
1.18173e-16
1.08606e-16
9.7163e-17
8.3636e-17
7.45019e-17
7.58202e-17
7.77206e-17
8.05312e-17
8.46356e-17
9.00404e-17
1.56412e-16
1.62692e-15
4.26455e-10
7.06393e-05
0.0083853
0.0351666
0.0619965
0.0795889
0.102538
0.182378
0.445649
0.792451
0.991859
1.01041
0.860919
0.589224
0.395921
0.200706
0.0662136
0.0134917
0.00149368
7.98292e-05
2.38952e-05
1.55098e-16
1.53484e-16
1.51506e-16
1.49082e-16
1.46116e-16
1.42489e-16
1.38063e-16
1.32669e-16
1.26113e-16
1.18173e-16
1.08606e-16
9.7163e-17
8.3636e-17
7.45019e-17
7.58202e-17
7.77206e-17
8.05312e-17
8.46356e-17
9.00404e-17
1.56415e-16
1.83601e-16
9.74301e-12
2.99465e-06
0.0028744
0.0197126
0.0462086
0.0670361
0.0867044
0.13248
0.318989
0.772981
1.18467
1.38474
1.33551
1.06383
0.696361
0.43796
0.21252
0.0681081
0.0136459
0.00149299
7.88867e-05
2.34042e-05
1.55099e-16
1.53485e-16
1.51506e-16
1.49082e-16
1.46116e-16
1.42489e-16
1.38063e-16
1.32669e-16
1.26113e-16
1.18173e-16
1.08606e-16
9.7163e-17
8.3636e-17
7.45019e-17
7.58202e-17
7.77206e-17
8.05312e-17
8.46356e-17
9.00404e-17
1.56416e-16
1.5778e-16
1.7804e-13
6.41033e-08
0.000685941
0.00937721
0.0303344
0.0525676
0.0727008
0.101488
0.204085
0.586941
1.20075
1.65073
1.7922
1.54801
1.21067
0.76663
0.464766
0.21841
0.0688452
0.0136326
0.00147674
7.7642e-05
2.28513e-05
1.551e-16
1.53485e-16
1.51506e-16
1.49082e-16
1.46116e-16
1.4249e-16
1.38063e-16
1.32669e-16
1.26113e-16
1.18173e-16
1.08606e-16
9.7163e-17
8.3636e-17
7.45019e-17
7.58202e-17
7.77206e-17
8.05312e-17
8.46356e-17
9.00404e-17
1.56417e-16
1.57781e-16
3.21881e-15
1.16275e-09
9.22983e-05
0.00378999
0.0173043
0.0374547
0.0580823
0.0812515
0.134982
0.360532
0.989211
1.71661
2.13737
2.04258
1.68659
1.29213
0.811283
0.480085
0.22082
0.06878
0.0134793
0.00145504
7.6145e-05
2.23222e-05
1.551e-16
1.53485e-16
1.51506e-16
1.49082e-16
1.46116e-16
1.4249e-16
1.38063e-16
1.32669e-16
1.26113e-16
1.18173e-16
1.08606e-16
9.7163e-17
8.3636e-17
7.45019e-17
7.58202e-17
7.77206e-17
8.05312e-17
8.46356e-17
9.00404e-17
1.56417e-16
1.57782e-16
1.96916e-16
2.08592e-11
5.63942e-06
0.00126812
0.0084953
0.0238451
0.042905
0.0645324
0.0971866
0.208331
0.637693
1.52659
2.27478
2.59518
2.2025
1.79095
1.33969
0.835944
0.487877
0.220864
0.0680522
0.0132761
0.00142833
7.47163e-05
2.18095e-05
1.551e-16
1.53485e-16
1.51506e-16
1.49082e-16
1.46116e-16
1.4249e-16
1.38063e-16
1.32669e-16
1.26113e-16
1.18173e-16
1.08606e-16
9.7163e-17
8.3636e-17
7.45019e-17
7.58202e-17
7.77206e-17
8.05312e-17
8.46356e-17
9.00404e-17
1.56417e-16
1.57782e-16
1.5924e-16
2.60215e-13
1.39442e-07
0.000318374
0.00363602
0.0134236
0.0287644
0.0485163
0.0735675
0.129258
0.347892
1.08459
2.12693
2.82835
2.78743
2.33262
1.86546
1.3659
0.848463
0.490865
0.219017
0.0670783
0.0130287
0.00140291
7.31836e-05
2.1267e-05
1.551e-16
1.53485e-16
1.51506e-16
1.49082e-16
1.46116e-16
1.4249e-16
1.38063e-16
1.32669e-16
1.26113e-16
1.18173e-16
1.08606e-16
9.7163e-17
8.3636e-17
7.45019e-17
7.58202e-17
7.77206e-17
8.05312e-17
8.46356e-17
9.00404e-17
1.56417e-16
1.57782e-16
1.5924e-16
2.80173e-15
1.67763e-09
4.84516e-05
0.00135438
0.00672022
0.0173853
0.0335144
0.0549785
0.0884958
0.1888
0.604284
1.67486
2.7667
3.32191
2.93953
2.43744
1.91322
1.37834
0.852459
0.490224
0.216407
0.0658977
0.0127937
0.0013746
7.14748e-05
2.07248e-05
1.551e-16
1.53485e-16
1.51506e-16
1.49082e-16
1.46116e-16
1.4249e-16
1.38063e-16
1.32669e-16
1.26113e-16
1.18173e-16
1.08606e-16
9.7163e-17
8.3636e-17
7.45019e-17
7.58202e-17
7.77206e-17
8.05312e-17
8.46356e-17
9.00404e-17
1.56417e-16
1.57782e-16
1.59241e-16
1.81001e-16
1.69512e-11
3.40954e-06
0.00042621
0.00295673
0.00950821
0.021
0.0386494
0.0633476
0.113564
0.301822
1.0326
2.36842
3.39818
3.58913
3.06167
2.51494
1.94165
1.37595
0.850522
0.487898
0.213207
0.0647763
0.0125331
0.00134252
6.97478e-05
2.01979e-05
1.551e-16
1.53485e-16
1.51506e-16
1.49082e-16
1.46116e-16
1.4249e-16
1.38063e-16
1.32669e-16
1.26113e-16
1.18173e-16
1.08606e-16
9.7163e-17
8.3636e-17
7.45019e-17
7.58202e-17
7.77206e-17
8.05312e-17
8.46356e-17
9.00404e-17
1.56417e-16
1.57782e-16
1.59241e-16
1.60797e-16
1.4562e-13
8.97153e-08
0.000102904
0.00114808
0.00471657
0.0119632
0.0248818
0.0443874
0.0750452
0.157763
0.510734
1.66436
3.1171
3.95112
3.73385
3.16386
2.56949
1.95401
1.36494
0.845766
0.484486
0.210162
0.0635315
0.0122377
0.00131001
6.80129e-05
1.97016e-05
1.551e-16
1.53485e-16
1.51506e-16
1.49082e-16
1.46116e-16
1.4249e-16
1.38063e-16
1.32669e-16
1.26113e-16
1.18173e-16
1.08606e-16
9.7163e-17
8.3636e-17
7.45019e-17
7.58202e-17
7.77206e-17
8.05312e-17
8.46356e-17
9.00404e-17
1.56417e-16
1.57783e-16
1.59241e-16
1.60798e-16
1.12721e-15
9.13304e-10
1.52911e-05
0.000391119
0.00211831
0.00626934
0.014574
0.02908
0.0510233
0.092885
0.240938
0.896794
2.48753
3.85597
4.40392
3.84975
3.24465
2.604
1.95477
1.35097
0.839353
0.481222
0.206749
0.0621071
0.011939
0.00127705
6.63578e-05
1.92106e-05
1.551e-16
1.53485e-16
1.51506e-16
1.49082e-16
1.46116e-16
1.4249e-16
1.38063e-16
1.32669e-16
1.26113e-16
1.18173e-16
1.08606e-16
9.7163e-17
8.3636e-17
7.45019e-17
7.58202e-17
7.77206e-17
8.05312e-17
8.46356e-17
9.00404e-17
1.56417e-16
1.57783e-16
1.59241e-16
1.60798e-16
1.65086e-16
5.90651e-12
1.02902e-06
0.000112665
0.000847985
0.00304234
0.00783824
0.0174559
0.0335082
0.0593468
0.123606
0.405535
1.58437
3.3689
4.47806
4.55373
3.94392
3.30585
2.62308
1.94822
1.33556
0.833361
0.477069
0.202719
0.0606639
0.0116367
0.00124549
6.46823e-05
1.87355e-05
1.551e-16
1.53485e-16
1.51506e-16
1.49082e-16
1.46116e-16
1.4249e-16
1.38063e-16
1.32669e-16
1.26113e-16
1.18173e-16
1.08606e-16
9.7163e-17
8.3636e-17
7.45019e-17
7.58202e-17
7.77206e-17
8.05312e-17
8.46356e-17
9.00404e-17
1.56417e-16
1.57783e-16
1.59241e-16
1.60798e-16
1.62461e-16
3.30978e-14
2.39679e-08
2.45738e-05
0.000299534
0.0013621
0.00391791
0.00960661
0.0204806
0.0382536
0.0714177
0.183447
0.772809
2.51102
4.17274
4.99994
4.6657
4.02843
3.35036
2.63038
1.93672
1.32189
0.826623
0.469567
0.198606
0.0592015
0.0113473
0.00121337
6.30997e-05
1.82986e-05
1.551e-16
1.53485e-16
1.51506e-16
1.49082e-16
1.46116e-16
1.4249e-16
1.38063e-16
1.32669e-16
1.26113e-16
1.18173e-16
1.08606e-16
9.7163e-17
8.3636e-17
7.45019e-17
7.58202e-17
7.77206e-17
8.05312e-17
8.46356e-17
9.00404e-17
1.56417e-16
1.57783e-16
1.59241e-16
1.60798e-16
1.62461e-16
3.07438e-16
1.89885e-10
3.16852e-06
9.25258e-05
0.00055744
0.00183858
0.00489548
0.0115225
0.0235317
0.043916
0.0924082
0.326512
1.46123
3.48467
4.9054
5.38997
4.75915
4.09989
3.38012
2.62853
1.92483
1.30838
0.818275
0.461816
0.194414
0.0577978
0.0110531
0.0011833
6.16264e-05
1.78738e-05
1.551e-16
1.53485e-16
1.51506e-16
1.49082e-16
1.46116e-16
1.4249e-16
1.38063e-16
1.32669e-16
1.26113e-16
1.18173e-16
1.08606e-16
9.7163e-17
8.3636e-17
7.45019e-17
7.58202e-17
7.77206e-17
8.05312e-17
8.46356e-17
9.00404e-17
1.56417e-16
1.57783e-16
1.59241e-16
1.60798e-16
1.62461e-16
1.64236e-16
8.34179e-13
1.71469e-07
2.37599e-05
0.000202601
0.00080995
0.00233985
0.00599452
0.0134655
0.0267197
0.0519618
0.14074
0.663478
2.44051
4.40282
5.5147
5.49611
4.8452
4.15844
3.39689
2.62363
1.91167
1.29412
0.809368
0.453856
0.190366
0.0563694
0.0107777
0.00115521
6.01545e-05
1.747e-05
1.551e-16
1.53485e-16
1.51506e-16
1.49082e-16
1.46116e-16
1.4249e-16
1.38063e-16
1.32669e-16
1.26113e-16
1.18173e-16
1.08606e-16
9.7163e-17
8.3636e-17
7.45019e-17
7.58202e-17
7.77206e-17
8.05312e-17
8.46356e-17
9.00404e-17
1.56417e-16
1.57783e-16
1.59241e-16
1.60798e-16
1.62461e-16
1.64237e-16
3.1933e-15
2.89407e-09
4.40973e-06
6.46049e-05
0.000331075
0.00105678
0.00291464
0.00714424
0.0153982
0.0304605
0.0680831
0.266143
1.32662
3.50493
5.21514
6.02557
5.59469
4.92849
4.203
3.40745
2.61543
1.89635
1.27957
0.800042
0.446112
0.186227
0.0550291
0.0105205
0.00112694
5.87821e-05
1.7084e-05
1.551e-16
1.53485e-16
1.51506e-16
1.49082e-16
1.46116e-16
1.4249e-16
1.38063e-16
1.32669e-16
1.26113e-16
1.18173e-16
1.08606e-16
9.7163e-17
8.3636e-17
7.45019e-17
7.58202e-17
7.77206e-17
8.05312e-17
8.46356e-17
9.00404e-17
1.56417e-16
1.57783e-16
1.59241e-16
1.60798e-16
1.62461e-16
1.64237e-16
1.71979e-16
1.55047e-11
4.40032e-07
1.77809e-05
0.000123355
0.000453212
0.00133592
0.00353859
0.00828652
0.0174189
0.0364723
0.108583
0.574424
2.29874
4.50919
5.93808
6.33959
5.68515
5.00357
4.2391
3.41188
2.60292
1.87947
1.26484
0.790881
0.43814
0.182325
0.0537749
0.0102619
0.00110075
5.74424e-05
1.67087e-05
1.551e-16
1.53485e-16
1.51506e-16
1.49082e-16
1.46116e-16
1.4249e-16
1.38063e-16
1.32669e-16
1.26113e-16
1.18173e-16
1.08606e-16
9.7163e-17
8.3636e-17
7.45019e-17
7.58202e-17
7.77206e-17
8.05312e-17
8.46356e-17
9.00404e-17
1.56417e-16
1.57783e-16
1.59241e-16
1.60798e-16
1.62461e-16
1.64237e-16
1.66133e-16
4.70621e-14
1.6107e-08
3.90522e-06
4.03639e-05
0.000183032
0.000582228
0.00164909
0.00417101
0.0094183
0.0200972
0.0493342
0.220497
1.17778
3.42027
5.43316
6.55135
6.44501
5.7792
5.07237
4.26627
3.40925
2.58689
1.86151
1.25067
0.781311
0.430588
0.178659
0.0525127
0.0100223
0.00107503
5.61383e-05
1.63554e-05
1.551e-16
1.53485e-16
1.51506e-16
1.49082e-16
1.46116e-16
1.4249e-16
1.38063e-16
1.32669e-16
1.26113e-16
1.18173e-16
1.08606e-16
9.7163e-17
8.3636e-17
7.45019e-17
7.58202e-17
7.77206e-17
8.05312e-17
8.46356e-17
9.00404e-17
1.56417e-16
1.57783e-16
1.59241e-16
1.60798e-16
1.62461e-16
1.64237e-16
1.66134e-16
2.80545e-16
1.62209e-10
5.63263e-07
1.14776e-05
6.82771e-05
0.000241521
0.000728747
0.00197612
0.00478878
0.0107627
0.0246822
0.0845106
0.488948
2.10512
4.51769
6.26422
7.07133
6.54596
5.87523
5.1326
4.28364
3.40048
2.56835
1.8436
1.23616
0.772206
0.423462
0.174953
0.0513398
0.00978722
0.00105002
5.49158e-05
1.60143e-05
1.551e-16
1.53485e-16
1.51506e-16
1.49082e-16
1.46116e-16
1.4249e-16
1.38063e-16
1.32669e-16
1.26113e-16
1.18173e-16
1.08606e-16
9.7163e-17
8.3636e-17
7.45019e-17
7.58202e-17
7.77206e-17
8.05312e-17
8.46356e-17
9.00404e-17
1.56417e-16
1.57783e-16
1.59241e-16
1.60798e-16
1.62461e-16
1.64237e-16
1.66134e-16
1.68158e-16
5.2806e-13
3.72006e-08
2.73757e-06
2.29183e-05
9.53486e-05
0.000306367
0.000886964
0.00229748
0.0054688
0.0126993
0.035383
0.17922
1.0205
3.2464
5.54436
6.99245
7.30864
6.6476
5.97214
5.18233
4.2919
3.38707
2.54896
1.82479
1.22242
0.763647
0.416215
0.171493
0.0501881
0.00955863
0.0010266
5.37104e-05
1.56836e-05
1.551e-16
1.53485e-16
1.51506e-16
1.49082e-16
1.46116e-16
1.4249e-16
1.38063e-16
1.32669e-16
1.26113e-16
1.18173e-16
1.08606e-16
9.7163e-17
8.3636e-17
7.45019e-17
7.58202e-17
7.77206e-17
8.05312e-17
8.46356e-17
9.00404e-17
1.56417e-16
1.57783e-16
1.59241e-16
1.60798e-16
1.62461e-16
1.64237e-16
1.66134e-16
1.68159e-16
1.26146e-15
7.47303e-10
4.83336e-07
6.67425e-06
3.52368e-05
0.000123134
0.000378484
0.00104572
0.00263277
0.00637427
0.0162593
0.064363
0.404201
1.87798
4.43196
6.47916
7.62952
7.4284
6.7702
6.06235
5.22049
4.29273
3.37126
2.52768
1.80652
1.20965
0.754826
0.409409
0.168081
0.0490662
0.00934462
0.00100339
5.25401e-05
1.53694e-05
1.551e-16
1.53485e-16
1.51506e-16
1.49082e-16
1.46116e-16
1.4249e-16
1.38063e-16
1.32669e-16
1.26113e-16
1.18173e-16
1.08606e-16
9.7163e-17
8.3636e-17
7.45019e-17
7.58202e-17
7.77206e-17
8.05312e-17
8.46356e-17
9.00404e-17
1.56417e-16
1.57783e-16
1.59241e-16
1.60798e-16
1.62461e-16
1.64237e-16
1.66134e-16
1.68159e-16
1.70318e-16
3.74103e-12
4.74602e-08
1.65995e-06
1.19415e-05
4.71745e-05
0.000154145
0.000453149
0.00120515
0.00305878
0.00774964
0.0247462
0.140656
0.86228
3.00324
5.54554
7.35408
8.1799
7.54999
6.8951
6.14196
5.24817
4.28884
3.35192
2.50635
1.78929
1.19665
0.746506
0.402663
0.164743
0.0480132
0.00913255
0.000980858
5.1422e-05
1.50614e-05
1.551e-16
1.53485e-16
1.51506e-16
1.49082e-16
1.46116e-16
1.4249e-16
1.38063e-16
1.32669e-16
1.26113e-16
1.18173e-16
1.08606e-16
9.7163e-17
8.3636e-17
7.45019e-17
7.58202e-17
7.77206e-17
8.05312e-17
8.46356e-17
9.00404e-17
1.56417e-16
1.57783e-16
1.59241e-16
1.60798e-16
1.62461e-16
1.64237e-16
1.66134e-16
1.68159e-16
1.70322e-16
7.52645e-15
1.68794e-09
3.28013e-07
3.54028e-06
1.71303e-05
5.999e-05
0.000187413
0.000526751
0.0013984
0.00364522
0.0104083
0.0473223
0.324492
1.63134
4.24236
6.6104
8.11198
8.33389
7.68391
7.01932
6.20992
5.26818
4.27898
3.33119
2.48589
1.7717
1.18439
0.738188
0.396024
0.161593
0.046968
0.00892667
0.000959305
5.03157e-05
1.47703e-05
1.551e-16
1.53485e-16
1.51506e-16
1.49082e-16
1.46116e-16
1.4249e-16
1.38063e-16
1.32669e-16
1.26113e-16
1.18173e-16
1.08606e-16
9.7163e-17
8.3636e-17
7.45019e-17
7.58202e-17
7.77206e-17
8.05312e-17
8.46356e-17
9.00404e-17
1.56417e-16
1.57783e-16
1.59241e-16
1.60798e-16
1.62461e-16
1.64237e-16
1.66134e-16
1.68159e-16
1.70322e-16
1.79424e-16
1.47822e-11
4.20635e-08
8.95265e-07
5.76843e-06
2.23205e-05
7.40615e-05
0.000220367
0.000610705
0.00165362
0.00459171
0.0167868
0.107052
0.705809
2.70352
5.45942
7.59139
8.7882
8.47579
7.83822
7.13632
6.26807
5.2789
4.26541
3.31053
2.46474
1.7549
1.1722
0.729912
0.389718
0.158452
0.0459513
0.0087298
0.000937936
4.92919e-05
1.45009e-05
1.551e-16
1.53485e-16
1.51506e-16
1.49082e-16
1.46116e-16
1.4249e-16
1.38063e-16
1.32669e-16
1.26113e-16
1.18173e-16
1.08606e-16
9.7163e-17
8.3636e-17
7.45019e-17
7.58202e-17
7.77206e-17
8.05312e-17
8.46356e-17
9.00404e-17
1.56417e-16
1.57783e-16
1.59241e-16
1.60798e-16
1.62461e-16
1.64237e-16
1.66134e-16
1.68159e-16
1.70322e-16
1.72631e-16
3.43987e-14
2.35275e-09
1.87407e-07
1.7387e-06
7.92977e-06
2.79754e-05
8.83002e-05
0.000255465
0.000719044
0.00202473
0.00649032
0.0338375
0.25101
1.3745
3.95872
6.61883
8.51164
9.26581
8.62355
7.99935
7.24519
6.3136
5.28251
4.25015
3.28841
2.44425
1.73813
1.1601
0.721993
0.383381
0.15538
0.0449775
0.00853475
0.000918295
4.83371e-05
1.42359e-05
1.551e-16
1.53485e-16
1.51506e-16
1.49082e-16
1.46116e-16
1.4249e-16
1.38063e-16
1.32669e-16
1.26113e-16
1.18173e-16
1.08606e-16
9.7163e-17
8.3636e-17
7.45019e-17
7.58202e-17
7.77206e-17
8.05312e-17
8.46356e-17
9.00404e-17
1.56417e-16
1.57783e-16
1.59241e-16
1.60798e-16
1.62461e-16
1.64237e-16
1.66134e-16
1.68159e-16
1.70322e-16
1.72631e-16
2.17726e-16
3.58453e-11
2.77735e-08
4.47407e-07
2.63239e-06
1.01295e-05
3.38627e-05
0.000102658
0.000299822
0.000869041
0.00265722
0.0111284
0.0785058
0.556305
2.35576
5.26354
7.74652
9.32684
9.42531
8.80305
8.16196
7.34035
6.34809
5.28145
4.23193
3.26639
2.42357
1.7214
1.14846
0.7139
0.377138
0.152426
0.0440119
0.00835541
0.00089994
4.73784e-05
1.3979e-05
1.551e-16
1.53485e-16
1.51506e-16
1.49082e-16
1.46116e-16
1.4249e-16
1.38063e-16
1.32669e-16
1.26113e-16
1.18173e-16
1.08606e-16
9.7163e-17
8.3636e-17
7.45019e-17
7.58202e-17
7.77206e-17
8.05312e-17
8.46356e-17
9.00404e-17
1.56417e-16
1.57783e-16
1.59241e-16
1.60798e-16
1.62461e-16
1.64237e-16
1.66134e-16
1.68159e-16
1.70322e-16
1.72632e-16
1.75095e-16
1.17863e-13
2.11344e-09
9.59301e-08
7.96027e-07
3.49333e-06
1.24431e-05
3.96831e-05
0.000120082
0.000359659
0.00110081
0.00396584
0.0234325
0.186285
1.11156
3.59729
6.53902
8.80605
10.0551
9.59843
9.00137
8.31687
7.42181
6.37393
5.27495
4.21259
3.24356
2.40272
1.70516
1.13653
0.705801
0.3711
0.149487
0.0431223
0.00818776
0.000881408
4.64608e-05
1.37336e-05
1.551e-16
1.53485e-16
1.51506e-16
1.49082e-16
1.46116e-16
1.4249e-16
1.38063e-16
1.32669e-16
1.26113e-16
1.18173e-16
1.08606e-16
9.7163e-17
8.3636e-17
7.45019e-17
7.58202e-17
7.77206e-17
8.05312e-17
8.46356e-17
9.00404e-17
1.56417e-16
1.57783e-16
1.59241e-16
1.60798e-16
1.62461e-16
1.64237e-16
1.66134e-16
1.68159e-16
1.70322e-16
1.72632e-16
1.75097e-16
3.21502e-16
5.06988e-11
1.57936e-08
2.06654e-07
1.13807e-06
4.37246e-06
1.47544e-05
4.62585e-05
0.00014328
0.000447595
0.00150738
0.00719244
0.05529
0.417932
1.98688
4.96783
7.78919
9.78288
10.4044
9.78854
9.21322
8.45997
7.49052
6.39071
5.26521
4.19126
3.22007
2.38219
1.68835
1.1244
0.697902
0.365066
0.146771
0.0422892
0.00801863
0.000863751
4.55794e-05
1.34901e-05
1.551e-16
1.53485e-16
1.51506e-16
1.49082e-16
1.46116e-16
1.4249e-16
1.38063e-16
1.32669e-16
1.26113e-16
1.18173e-16
1.08606e-16
9.7163e-17
8.3636e-17
7.45019e-17
7.58202e-17
7.77206e-17
8.05312e-17
8.46356e-17
9.00404e-17
1.56417e-16
1.57783e-16
1.59241e-16
1.60798e-16
1.62461e-16
1.64237e-16
1.66134e-16
1.68159e-16
1.70322e-16
1.72632e-16
1.75098e-16
1.77726e-16
2.54181e-13
1.49553e-09
4.4891e-08
3.40738e-07
1.46633e-06
5.26569e-06
1.72019e-05
5.49788e-05
0.00017628
0.000586217
0.00237308
0.0156473
0.131709
0.863946
3.17514
6.36205
8.99918
10.6664
10.6076
10.0323
9.42333
8.58847
7.54574
6.40095
5.25145
4.16825
3.19643
2.36081
1.67012
1.11257
0.689923
0.359468
0.144217
0.0414481
0.00785748
0.000846763
4.46943e-05
1.32537e-05
1.551e-16
1.53485e-16
1.51506e-16
1.49082e-16
1.46116e-16
1.4249e-16
1.38063e-16
1.32669e-16
1.26113e-16
1.18173e-16
1.08606e-16
9.7163e-17
8.3636e-17
7.45019e-17
7.58202e-17
7.77206e-17
8.05312e-17
8.46356e-17
9.00404e-17
1.56417e-16
1.57783e-16
1.59241e-16
1.60798e-16
1.62461e-16
1.64237e-16
1.66134e-16
1.68159e-16
1.70322e-16
1.72632e-16
1.75098e-16
1.7773e-16
5.1524e-16
5.17622e-11
7.6734e-09
8.87942e-08
4.67847e-07
1.79931e-06
6.1707e-06
2.03416e-05
6.70054e-05
0.000225649
0.000837904
0.00451012
0.037235
0.301553
1.61636
4.5845
7.72607
10.1523
11.432
10.8289
10.2926
9.62377
8.69965
7.59004
6.40411
5.23429
4.1444
3.17135
2.33896
1.65249
1.10064
0.682535
0.354184
0.141631
0.0406455
0.00770244
0.000829659
4.38448e-05
1.3024e-05
1.551e-16
1.53485e-16
1.51506e-16
1.49082e-16
1.46116e-16
1.4249e-16
1.38063e-16
1.32669e-16
1.26113e-16
1.18173e-16
1.08606e-16
9.7163e-17
8.3636e-17
7.45019e-17
7.58202e-17
7.77206e-17
8.05312e-17
8.46356e-17
9.00404e-17
1.56417e-16
1.57783e-16
1.59241e-16
1.60798e-16
1.62461e-16
1.64237e-16
1.66134e-16
1.68159e-16
1.70322e-16
1.72632e-16
1.75098e-16
1.77731e-16
1.80534e-16
3.94281e-13
8.3843e-10
1.94315e-08
1.3789e-07
5.89535e-07
2.13192e-06
7.25931e-06
2.45768e-05
8.45234e-05
0.000305657
0.00138409
0.0100518
0.0898135
0.645869
2.71855
6.07326
9.08934
11.2016
11.6583
11.0916
10.5622
9.80699
8.79534
7.62306
6.40115
5.2152
4.11834
3.14586
2.31741
1.63491
1.08958
0.675559
0.348805
0.139154
0.0398722
0.00754643
0.000813302
4.30016e-05
1.27943e-05
1.551e-16
1.53485e-16
1.51506e-16
1.49082e-16
1.46116e-16
1.4249e-16
1.38063e-16
1.32669e-16
1.26113e-16
1.18173e-16
1.08606e-16
9.7163e-17
8.3636e-17
7.45019e-17
7.58202e-17
7.77206e-17
8.05312e-17
8.46356e-17
9.00404e-17
1.56417e-16
1.57783e-16
1.59241e-16
1.60798e-16
1.62461e-16
1.64237e-16
1.66134e-16
1.68159e-16
1.70322e-16
1.72632e-16
1.75098e-16
1.77731e-16
1.80542e-16
7.96912e-16
3.79623e-11
3.43282e-09
3.61916e-08
1.83543e-07
7.08709e-07
2.50024e-06
8.70235e-06
3.06186e-05
0.000111357
0.000454504
0.00274035
0.0242966
0.210464
1.26699
4.11446
7.56807
10.399
12.1625
11.9082
11.3993
10.8245
9.97266
8.87488
7.64603
6.39425
5.19279
4.09131
3.12038
2.29558
1.61863
1.07915
0.668352
0.34363
0.13676
0.0390935
0.00739723
0.000796971
4.21416e-05
1.25714e-05
1.551e-16
1.53485e-16
1.51506e-16
1.49082e-16
1.46116e-16
1.4249e-16
1.38063e-16
1.32669e-16
1.26113e-16
1.18173e-16
1.08606e-16
9.7163e-17
8.3636e-17
7.45019e-17
7.58202e-17
7.77206e-17
8.05312e-17
8.46356e-17
9.00404e-17
1.56417e-16
1.57783e-16
1.59241e-16
1.60798e-16
1.62461e-16
1.64237e-16
1.66134e-16
1.68159e-16
1.70322e-16
1.72632e-16
1.75098e-16
1.77731e-16
1.80542e-16
1.83529e-16
4.15273e-13
4.09457e-10
7.93757e-09
5.31647e-08
2.25733e-07
8.31717e-07
2.97591e-06
1.07138e-05
3.96963e-05
0.000155413
0.000787133
0.00628355
0.0596558
0.465375
2.24318
5.67504
9.06013
11.6547
12.7469
12.1843
11.7273
11.0749
10.1182
8.93932
7.66176
6.38224
5.16828
4.06374
3.09426
2.2751
1.60337
1.06839