# Wall heat-flux
# Time        	patch         	min           	max           	integral      
9000          	base	-2.503836e+06	-3.496827e+04	-7.979852e+03
