# y+ ()       
# Time        	patch         	min           	max           	average       
10100         	base	7.134112e-03	2.398711e+01	5.487747e+00
