4.96314e-06 	22.6802 	-0.00133679 	0
1.48429e-05 	66.8209 	-0.00289816 	0
2.46948e-05 	109.769 	-0.00333042 	0
3.46404e-05 	152.18 	-0.00313032 	0
4.47862e-05 	194.533 	-0.00260932 	0
5.52311e-05 	237.041 	-0.00204776 	0
6.60699e-05 	279.615 	-0.0017587 	0
7.73965e-05 	321.901 	-0.00218077 	0
8.93058e-05 	363.407 	-0.00354571 	0
0.000101896 	403.687 	-0.00591075 	0
0.000115268 	442.462 	-0.00928688 	0
0.00012953 	479.713 	-0.0134566 	0
0.000144795 	515.607 	-0.0181187 	0
0.000161185 	550.252 	-0.0229616 	0
0.000178829 	583.644 	-0.0276725 	0
0.000197868 	615.764 	-0.031881 	0
0.00021845 	646.69 	-0.0353398 	0
0.000240738 	676.538 	-0.0377592 	0
0.000264909 	705.361 	-0.0390167 	0
0.000291153 	733.209 	-0.0386721 	0
0.000319676 	760.15 	-0.0365094 	0
0.000350703 	786.266 	-0.0325708 	0
0.000384479 	811.633 	-0.0264089 	0
0.000421271 	836.319 	-0.0179572 	0
0.000461366 	860.388 	-0.00697113 	0
0.000505082 	883.889 	0.00667967 	0
0.000552762 	906.869 	0.0233049 	0
0.000604783 	929.365 	0.0431242 	0
0.000661554 	951.413 	0.0662498 	0
0.000723523 	973.043 	0.0929643 	0
0.000791177 	994.283 	0.123543 	0
0.00086505 	1015.16 	0.15829 	0
0.000945722 	1035.7 	0.19756 	0
0.00103383 	1055.93 	0.241754 	0
0.00113007 	1075.87 	0.29134 	0
0.0012352 	1095.56 	0.346882 	0
0.00135004 	1115.01 	0.40902 	0
0.0014755 	1134.25 	0.478464 	0
0.00161258 	1153.31 	0.556048 	0
0.00176234 	1172.21 	0.642777 	0
0.00192597 	1190.99 	0.739788 	0
0.00210476 	1209.69 	0.848396 	0
0.00230012 	1228.37 	0.970484 	0
0.00251358 	1247.08 	1.10837 	0
0.00274683 	1265.91 	1.26544 	0
0.00300171 	1284.95 	1.44638 	0
0.00328023 	1304.28 	1.65682 	0
0.00358457 	1323.94 	1.90265 	0
0.00391714 	1343.88 	2.19302 	0
0.00428056 	1363.9 	2.532 	0
0.00467769 	1383.69 	2.93222 	0
0.00511167 	1403.13 	3.39976 	0
0.00558591 	1422.53 	3.99891 	0
0.00610416 	1442.01 	4.76748 	0
0.0066705 	1460.58 	5.84968 	0
0.0072894 	1474.58 	7.20849 	0
0.00796574 	1480.99 	8.63774 	0
0.00855799 	1482.59 	9.47849 	0
0.00894392 	1482.8 	9.77836 	0
0.00951253 	1482.91 	9.92589 	0
0.0103952 	1482.94 	9.9575 	0
0.0113598 	1482.96 	9.98598 	0
0.0124139 	1482.96 	10.0505 	0
0.013566 	1482.95 	10.0938 	0
0.0148251 	1482.9 	10.1839 	0
0.0162011 	1482.88 	10.0897 	0
0.017705 	1482.83 	9.9574 	0
0.0193486 	1482.81 	9.7625 	0
0.0202967 	1482.81 	9.68198 	0
0.0212348 	1482.81 	9.63002 	0
0.0231084 	1482.83 	9.56975 	0
0.0252543 	1482.84 	9.69969 	0
0.0276001 	1482.86 	10.1797 	0
0.0301448 	1482.88 	10.5283 	0
0.031484 	1482.88 	10.6739 	0
0.0329673 	1482.89 	10.769 	0
0.0360314 	1482.88 	10.8531 	0
0.0393815 	1482.86 	10.6667 	0
0.041589 	1482.82 	10.5294 	0
0.0435022 	1482.8 	10.4158 	0
0.0470499 	1482.76 	10.229 	0
0.0506434 	1482.73 	10.45 	0
0.0529317 	1482.72 	10.6516 	0
0.0562215 	1482.73 	11.003 	0
0.0602482 	1482.73 	11.5609 	0
0.0629866 	1482.72 	11.9144 	0
0.0671978 	1482.71 	12.3985 	0
0.07057 	1482.65 	12.4255 	0
0.0738498 	1482.63 	12.0903 	0
0.078218 	1482.76 	10.0875 	0
0.0818093 	1482.96 	8.1782 	0
0.0859665 	1483.32 	5.70079 	0
0.0899001 	1483.59 	3.64868 	0
0.0938543 	1483.8 	1.76069 	0
0.098165 	1483.93 	0.533192 	0
0.101925 	1483.97 	0.26563 	0
0.106651 	1484 	0.0234547 	0
0.110224 	1484 	0.0140978 	0
0.113967 	1484 	0.00354139 	0
0.118805 	1484 	0.0001785 	0
0.122029 	1484 	0.000103862 	0
0.126872 	1484 	5.39068e-07 	0
0.130784 	1484 	3.78401e-07 	0
0.133691 	1484 	2.39433e-07 	0
0.138506 	1484 	1.39702e-09 	0
0.142708 	1484 	9.64236e-10 	0
0.145325 	1484 	6.78747e-10 	0
0.148982 	1484 	2.58384e-10 	0
0.15382 	1484 	1.56892e-11 	0
0.15705 	1484 	1.35632e-11 	0
0.159283 	1484 	1.10884e-11 	0
0.16276 	1484 	5.97343e-12 	0
0.166887 	1484 	1.21212e-12 	0
0.1708 	1484 	1.23236e-12 	0
0.172904 	1484 	1.20063e-12 	0
0.174709 	1484 	1.15143e-12 	0
0.178025 	1484 	1.02321e-12 	0
0.181359 	1484 	7.15918e-13 	0
0.184518 	1484 	5.91208e-13 	0
0.187512 	1484 	1.14175e-13 	0
0.189414 	1484 	1.65711e-13 	0
0.190794 	1484 	4.47167e-14 	0
0.193039 	1484 	-3.08323e-13 	0
0.195586 	1484 	-5.78379e-13 	0
0.197999 	1484 	-5.86353e-13 	0
0.200286 	1484 	-5.78063e-13 	0
0.202452 	1484 	-5.76681e-13 	0
0.204504 	1484 	-6.04608e-13 	0
0.206447 	1484 	-5.52882e-13 	0
0.207887 	1484 	-4.61608e-13 	0
0.208782 	1484 	-3.72883e-13 	0
0.21003 	1484 	-2.70176e-13 	0
0.21168 	1484 	-2.39222e-13 	0
0.213242 	1484 	-3.04723e-13 	0
0.214721 	1484 	-4.63299e-14 	0
0.216122 	1484 	8.58517e-14 	0
0.217447 	1484 	-2.236e-13 	0
0.218702 	1484 	-1.16175e-13 	0
0.219889 	1484 	5.15198e-14 	0
0.221014 	1484 	-7.86742e-14 	0
0.222078 	1484 	-1.32078e-14 	0
0.223085 	1484 	-1.18059e-13 	0
0.224038 	1484 	-3.31227e-13 	0
0.22494 	1484 	-2.97008e-13 	0
0.225793 	1484 	-3.33115e-13 	0
0.2266 	1484 	-3.49379e-13 	0
0.227363 	1484 	-3.90263e-13 	0
0.228086 	1484 	-4.40675e-13 	0
0.228681 	1484 	-4.92508e-13 	0
0.229013 	1484 	-5.34084e-13 	0
0.229416 	1484 	-5.88729e-13 	0
0.230028 	1484 	-6.46863e-13 	0
0.230607 	1484 	-6.95966e-13 	0
0.231154 	1484 	-7.62756e-13 	0
0.231672 	1484 	-7.90809e-13 	0
0.232161 	1484 	-7.89046e-13 	0
0.232625 	1484 	-8.00135e-13 	0
0.233063 	1484 	-8.04781e-13 	0
0.233478 	1484 	-7.70781e-13 	0
0.23387 	1484 	-7.19437e-13 	0
0.234241 	1484 	-7.07419e-13 	0
0.234591 	1484 	-7.05168e-13 	0
0.234924 	1484 	-6.66918e-13 	0
0.235237 	1484 	-5.93152e-13 	0
0.235535 	1484 	-5.97677e-13 	0
0.235816 	1484 	-6.3857e-13 	0
0.236082 	1484 	-6.66435e-13 	0
0.236335 	1484 	-6.71981e-13 	0
0.236575 	1484 	-6.3006e-13 	0
0.236811 	1484 	-5.64167e-13 	0
0.237052 	1484 	-5.66563e-13 	0
0.237298 	1484 	-6.93309e-13 	0
0.237548 	1484 	-7.08183e-13 	0
0.237805 	1484 	-6.64117e-13 	0
0.238067 	1484 	-5.12444e-13 	0
0.238335 	1484 	-4.96582e-13 	0
0.23861 	1484 	-5.15002e-13 	0
0.238891 	1484 	-5.73792e-13 	0
0.239179 	1484 	-4.49987e-13 	0
0.239474 	1484 	-4.10351e-13 	0
0.239775 	1484 	-4.53831e-13 	0
0.240085 	1484 	-5.40935e-13 	0
0.240402 	1484 	-7.74486e-13 	0
0.240727 	1484 	-9.33172e-13 	0
0.241058 	1484 	-1.40233e-12 	0
0.241398 	1484 	-1.38332e-12 	0
0.241747 	1484 	-1.77591e-12 	0
0.242104 	1484 	-2.33975e-12 	0
0.242469 	1484 	-1.59574e-12 	0
0.242844 	1484 	-1.55374e-12 	0
0.243227 	1484 	-4.48633e-12 	0
0.24362 	1484 	-7.35853e-12 	0
0.244022 	1484 	-1.12675e-11 	0
0.244434 	1484 	-1.49984e-11 	0
0.244855 	1484 	-1.85768e-11 	0
0.245287 	1484 	-1.99971e-11 	0
0.245728 	1484 	-1.28044e-11 	0
0.246182 	1484 	2.64794e-11 	0
0.246646 	1484 	1.21342e-10 	0
0.24712 	1484 	3.17632e-10 	0
0.247605 	1484 	6.90187e-10 	0
0.248102 	1484 	1.34035e-09 	0
0.248612 	1484 	2.42078e-09 	0
0.249133 	1484 	4.13843e-09 	0
0.249667 	1484 	6.77059e-09 	0
0.250213 	1484 	1.06768e-08 	0
0.250772 	1484 	1.63132e-08 	0
0.251345 	1484 	2.42328e-08 	0
0.251931 	1484 	3.51062e-08 	0
0.252531 	1484 	4.96992e-08 	0
0.253145 	1484 	6.88936e-08 	0
0.253587 	1484 	8.55121e-08 	0
0.253906 	1484 	9.93735e-08 	0
0.254418 	1484 	1.24839e-07 	0
0.255076 	1484 	1.63645e-07 	0
0.25575 	1484 	2.11146e-07 	0
0.25644 	1484 	2.68357e-07 	0
0.257146 	1484 	3.36258e-07 	0
0.257868 	1484 	4.15672e-07 	0
0.258608 	1484 	5.07064e-07 	0
0.259364 	1484 	6.10775e-07 	0
0.260139 	1484 	7.26759e-07 	0
0.260931 	1484 	8.54545e-07 	0
0.261741 	1484 	9.93221e-07 	0
0.262571 	1484 	1.14112e-06 	0
0.263419 	1484 	1.29623e-06 	0
0.264287 	1484 	1.45604e-06 	0
0.265176 	1484 	1.61711e-06 	0
0.266085 	1484 	1.77531e-06 	0
0.267014 	1484 	1.92553e-06 	0
0.267965 	1484 	2.06823e-06 	0
0.268938 	1484 	2.20333e-06 	0
0.269932 	1484 	2.31554e-06 	0
0.27095 	1484 	2.39652e-06 	0
0.271991 	1484 	2.43861e-06 	0
0.273056 	1484 	2.44062e-06 	0
0.274145 	1484 	2.40245e-06 	0
0.275258 	1484 	2.32718e-06 	0
0.276397 	1484 	2.18408e-06 	0
0.277562 	1484 	1.96817e-06 	0
0.278752 	1484 	1.67711e-06 	0
0.279969 	1484 	1.30639e-06 	0
0.281073 	1484 	9.06309e-07 	0
0.281704 	1484 	6.58164e-07 	0
0.282492 	1484 	3.09673e-07 	0
0.283802 	1484 	-3.23257e-07 	0
0.285142 	1484 	-1.052e-06 	0
0.286512 	1484 	-1.87709e-06 	0
0.287913 	1484 	-2.79459e-06 	0
0.289346 	1484 	-3.79787e-06 	0
0.290812 	1484 	-4.87824e-06 	0
0.29231 	1484 	-6.0259e-06 	0
0.293842 	1484 	-7.22819e-06 	0
0.295409 	1484 	-8.47284e-06 	0
0.29701 	1484 	-9.69546e-06 	0
0.298648 	1484 	-1.07798e-05 	0
0.300322 	1484 	-1.18306e-05 	0
0.302032 	1484 	-1.28283e-05 	0
0.303782 	1484 	-1.37515e-05 	0
0.305569 	1484 	-1.45807e-05 	0
0.307397 	1484 	-1.52952e-05 	0
0.309265 	1484 	-1.58745e-05 	0
0.310844 	1484 	-1.62456e-05 	0
0.311808 	1484 	-1.64136e-05 	0
0.313121 	1484 	-1.65681e-05 	0
0.315112 	1484 	-1.66495e-05 	0
0.317146 	1484 	-1.65308e-05 	0
0.319224 	1484 	-1.61986e-05 	0
0.321348 	1484 	-1.56483e-05 	0
0.323518 	1484 	-1.48686e-05 	0
0.325733 	1484 	-1.38542e-05 	0
0.327996 	1484 	-1.28164e-05 	0
0.330308 	1484 	-1.26332e-05 	0
0.332669 	1484 	-1.23378e-05 	0
0.33508 	1484 	-1.19284e-05 	0
0.337542 	1484 	-1.1411e-05 	0
0.340057 	1484 	-1.07833e-05 	0
0.342457 	1484 	-1.01018e-05 	0
0.343757 	1484 	-9.70384e-06 	0
0.345282 	1484 	-9.20904e-06 	0
0.348019 	1484 	-8.26192e-06 	0
0.350819 	1484 	-7.21504e-06 	0
0.35368 	1484 	-6.07494e-06 	0
0.356603 	1484 	-4.83919e-06 	0
0.359592 	1484 	-3.51297e-06 	0
0.362645 	1484 	-2.6607e-06 	0
0.365765 	1484 	-2.13901e-06 	0
0.368952 	1484 	-1.59145e-06 	0
0.372208 	1484 	-1.01904e-06 	0
0.375533 	1484 	-4.22964e-07 	0
0.377533 	1484 	-5.89683e-08 	0
