# Wall shear stress
# Time        	patch         	min           	max           
0             	base	(-2.093892e+02 -9.345040e+01 -1.531227e-19)	(5.640374e+01 2.512392e+01 1.275742e-19)
