# Wall heat-flux
# Time        	patch         	min           	max           	integral      
6700          	base	-1.251226e+04	3.367010e+04	3.946640e+02
