# wallHeatFlux  FACE_DATA 398
# x  y  z  wallHeatFlux
-0.7975 0 0.025 -653671
-0.79239 0 0.025 -120055
-0.787056 0 0.025 -71297.4
-0.781492 0 0.025 -64423.6
-0.775691 0 0.025 -65894.6
-0.769649 0 0.025 -66706.2
-0.763362 0 0.025 -67296.7
-0.756822 0 0.025 -67206.2
-0.750025 0 0.025 -66716.6
-0.742968 0 0.025 -65935
-0.735648 0 0.025 -65018.9
-0.72806 0 0.025 -64080.6
-0.720203 0 0.025 -63121.7
-0.712076 0 0.025 -62206.2
-0.703677 0 0.025 -61385.6
-0.695006 0 0.025 -60612.1
-0.686065 0 0.025 -59891.3
-0.676855 0 0.025 -59233.9
-0.667379 0 0.025 -58532.5
-0.65764 0 0.025 -57830.8
-0.647644 0 0.025 -57238
-0.637397 0 0.025 -56729.4
-0.626906 0 0.025 -56114.8
-0.616179 0 0.025 -55591.2
-0.605224 0 0.025 -55100.3
-0.594054 0 0.025 -54644.7
-0.582678 0 0.025 -54126.4
-0.57111 0 0.025 -53643.5
-0.559364 0 0.025 -53202.6
-0.547454 0 0.025 -52849.7
-0.535396 0 0.025 -52425.4
-0.523205 0 0.025 -51996.5
-0.510901 0 0.025 -51605.4
-0.4985 0 0.025 -51241.9
-0.486021 0 0.025 -50968.2
-0.473483 0 0.025 -50654.7
-0.460905 0 0.025 -50316.6
-0.448308 0 0.025 -49977.5
-0.435709 0 0.025 -49663.5
-0.42313 0 0.025 -49378.5
-0.41059 0 0.025 -49167.6
-0.39811 0 0.025 -48965.8
-0.385706 0 0.025 -48724.3
-0.373398 0 0.025 -48455.9
-0.361205 0 0.025 -48197.2
-0.349141 0 0.025 -47957.8
-0.337226 0 0.025 -47739.7
-0.325475 0 0.025 -47553.3
-0.313901 0 0.025 -47404.3
-0.30252 0 0.025 -47281.3
-0.291343 0 0.025 -47143.3
-0.280382 0 0.025 -46973.1
-0.269646 0 0.025 -46791.3
-0.259148 0 0.025 -46615.4
-0.248893 0 0.025 -46452.1
-0.23889 0 0.025 -46305.4
-0.229143 0 0.025 -46168.8
-0.219659 0 0.025 -46050.2
-0.210441 0 0.025 -45925.9
-0.201491 0 0.025 -45794.3
-0.192812 0 0.025 -45660.4
-0.184405 0 0.025 -45536.5
-0.176269 0 0.025 -45426.8
-0.168404 0 0.025 -45340.3
-0.160808 0 0.025 -45270.1
-0.15348 0 0.025 -45224.3
-0.146415 0 0.025 -45200.7
-0.13961 0 0.025 -45170.4
-0.133063 0 0.025 -45147.5
-0.126767 0 0.025 -45120.2
-0.120718 0 0.025 -45082.7
-0.11491 0 0.025 -45040.6
-0.109339 0 0.025 -44983.2
-0.103997 0 0.025 -44914.2
-0.0988805 0 0.025 -44844.2
-0.0939808 0 0.025 -44771.4
-0.0892928 0 0.025 -44694.7
-0.0848096 0 0.025 -44618.1
-0.0805248 0 0.025 -44542
-0.0764316 0 0.025 -44466.2
-0.0725237 0 0.025 -44395.7
-0.0687943 0 0.025 -44331.4
-0.065237 0 0.025 -44271.8
-0.0618454 0 0.025 -44213.2
-0.058613 0 0.025 -44159.2
-0.0555337 0 0.025 -44111.5
-0.0526013 0 0.025 -44068.6
-0.0498099 0 0.025 -44025.9
-0.0471536 0 0.025 -43994
-0.0446266 0 0.025 -43962.1
-0.0422235 0 0.025 -43940.9
-0.039939 0 0.025 -43919.7
-0.0377676 0 0.025 -43898.1
-0.0357044 0 0.025 -43888.3
-0.0337445 0 0.025 -43861.4
-0.0318832 0 0.025 -43046.9
-0.0301159 0 0.025 -36399.6
-0.0284383 0 0.025 -28211.9
-0.0268461 0 0.025 -41095.3
-0.0253353 0 0.025 -56282.6
-0.023902 0 0.025 -66185.3
-0.0225426 0 0.025 -72924.9
-0.0212532 0 0.025 -78617.6
-0.0200306 0 0.025 -83734.7
-0.0188715 0 0.025 -88097.7
-0.0177728 0 0.025 -91962.9
-0.0167313 0 0.025 -95426.8
-0.0157444 0 0.025 -98634.2
-0.0148092 0 0.025 -101621
-0.0139232 0 0.025 -104373
-0.0130838 0 0.025 -106850
-0.0122887 0 0.025 -109046
-0.0115356 0 0.025 -110963
-0.0108223 0 0.025 -112643
-0.0101469 0 0.025 -114097
-0.00950727 0 0.025 -115382
-0.00890168 0 0.025 -116539
-0.00832835 0 0.025 -117645
-0.00778557 0 0.025 -118752
-0.00727176 0 0.025 -119917
-0.0067854 0 0.025 -121169
-0.00632507 0 0.025 -122528
-0.00588937 0 0.025 -124003
-0.00547703 0 0.025 -125596
-0.0050868 0 0.025 -127291
-0.00471753 0 0.025 -129096
-0.0043681 0 0.025 -131027
-0.00403746 0 0.025 -133058
-0.00372461 0 0.025 -135189
-0.0034286 0 0.025 -137418
-0.00314855 0 0.025 -139783
-0.0028836 0 0.025 -142329
-0.00263294 0 0.025 -144968
-0.00239581 0 0.025 -147469
-0.0021715 0 0.025 -150098
-0.00195929 0 0.025 -152841
-0.00175856 0 0.025 -155679
-0.00156869 0 0.025 -158594
-0.00138908 0 0.025 -161609
-0.0012192 0 0.025 -164665
-0.00105853 0 0.025 -167782
-0.000906546 0 0.025 -170932
-0.000762803 0 0.025 -174011
-0.000626848 0 0.025 -176716
-0.000498265 0 0.025 -178204
-0.000376656 0 0.025 -176716
-0.000261642 0 0.025 -168598
-0.00015287 0 0.025 -146831
-5e-05 0 0.025 -95382.4
4.14519e-05 2.79596e-05 0.025 -68730.4
0.000125371 8.45641e-05 0.025 -82371.9
0.000211347 0.000142556 0.025 -97491.7
0.000299429 0.000201968 0.025 -108584
0.000389669 0.000262835 0.025 -117994
0.000482118 0.000325193 0.025 -126874
0.000576831 0.000389077 0.025 -135198
0.000673861 0.000454524 0.025 -142758
0.000773265 0.000521574 0.025 -149479
0.0008751 0.000590262 0.025 -155431
0.000979426 0.000660632 0.025 -160714
0.0010863 0.000732721 0.025 -165442
0.00119579 0.000806572 0.025 -169820
0.00130795 0.000882227 0.025 -173883
0.00142285 0.00095973 0.025 -177678
0.00154056 0.00103912 0.025 -181334
0.00166115 0.00112046 0.025 -184867
0.00178467 0.00120378 0.025 -188359
0.00191121 0.00128913 0.025 -191843
0.00204083 0.00137656 0.025 -195271
0.00217362 0.00146612 0.025 -198754
0.00230964 0.00155787 0.025 -202290
0.00244897 0.00165185 0.025 -205844
0.00259169 0.00174812 0.025 -209467
0.00273789 0.00184673 0.025 -213190
0.00288765 0.00194774 0.025 -217047
0.00304105 0.00205122 0.025 -220998
0.00319818 0.00215719 0.025 -225075
0.00335912 0.00226575 0.025 -229344
0.00352397 0.00237695 0.025 -233737
0.00369283 0.00249085 0.025 -238317
0.00386579 0.00260751 0.025 -243091
0.00404294 0.00272699 0.025 -248085
0.00422438 0.00284938 0.025 -253340
0.00441022 0.00297474 0.025 -258867
0.00460056 0.00310312 0.025 -264668
0.00479552 0.00323462 0.025 -270735
0.00499519 0.0033693 0.025 -277178
0.00519968 0.00350723 0.025 -283910
0.00540911 0.00364849 0.025 -291095
0.00562361 0.00379318 0.025 -298694
0.00584329 0.00394134 0.025 -306712
0.00606826 0.00409309 0.025 -315298
0.00629865 0.00424849 0.025 -324304
0.0065346 0.00440764 0.025 -333873
0.00677623 0.00457063 0.025 -344118
0.00702368 0.00473753 0.025 -354911
0.00727707 0.00490844 0.025 -366588
0.00753655 0.00508347 0.025 -379113
0.00780227 0.00526269 0.025 -392458
0.00807436 0.00544622 0.025 -406862
0.00835298 0.00563415 0.025 -422379
0.00863826 0.00582659 0.025 -439000
0.00893038 0.00602362 0.025 -456753
0.00922949 0.00622537 0.025 -476361
0.00953574 0.00643195 0.025 -497795
0.00984929 0.00664345 0.025 -521581
0.0101703 0.00686 0.025 -546260
0.0104991 0.00708171 0.025 -574546
0.0108356 0.00730871 0.025 -607590
0.0111801 0.0075411 0.025 -644406
0.0115329 0.00777902 0.025 -682888
0.011894 0.00802259 0.025 -728173
0.0122637 0.00827194 0.025 -772907
0.0126421 0.00852719 0.025 -817473
0.0130295 0.0087885 0.025 -865625
0.013426 0.00905597 0.025 -910929
0.013832 0.00932978 0.025 -951121
0.0142475 0.00961003 0.025 -996212
0.0146727 0.0098969 0.025 -1.03914e+06
0.0151081 0.0101905 0.025 -1.08205e+06
0.0155536 0.010491 0.025 -1.12986e+06
0.0160097 0.0107986 0.025 -1.17833e+06
0.0164764 0.0111134 0.025 -1.2305e+06
0.016954 0.0114356 0.025 -1.28572e+06
0.0174427 0.0117653 0.025 -1.34e+06
0.0179429 0.0121026 0.025 -1.39775e+06
0.0184548 0.0124479 0.025 -1.46605e+06
0.0189786 0.0128013 0.025 -1.51424e+06
0.0195146 0.0131628 0.025 -1.56363e+06
0.020063 0.0135327 0.025 -1.6231e+06
0.0206242 0.0139112 0.025 -1.66126e+06
0.0211983 0.0142984 0.025 -1.68975e+06
0.0217857 0.0146947 0.025 -1.72496e+06
0.0223867 0.0151 0.025 -1.75559e+06
0.0230015 0.0155147 0.025 -1.78185e+06
0.0236304 0.0159389 0.025 -1.81455e+06
0.0242738 0.0163729 0.025 -1.81981e+06
0.0249318 0.0168167 0.025 -1.84003e+06
0.025605 0.0172708 0.025 -1.85626e+06
0.0262935 0.0177352 0.025 -1.83965e+06
0.0269977 0.0182102 0.025 -1.81973e+06
0.0277178 0.0186959 0.025 -1.78594e+06
0.0284544 0.0191927 0.025 -1.79946e+06
0.0292075 0.0197008 0.025 -1.72951e+06
0.0299777 0.0202203 0.025 -1.68079e+06
0.0307653 0.0207514 0.025 -1.64111e+06
0.0315704 0.0212945 0.025 -1.60872e+06
0.0323937 0.0218499 0.025 -1.58103e+06
0.0332354 0.0224176 0.025 -1.5527e+06
0.0340959 0.022998 0.025 -1.52798e+06
0.0349755 0.0235913 0.025 -1.49399e+06
0.0358747 0.0241978 0.025 -1.49127e+06
0.0367938 0.0248178 0.025 -1.45393e+06
0.0377331 0.0254513 0.025 -1.42804e+06
0.0386932 0.0260989 0.025 -1.40804e+06
0.0396743 0.0267606 0.025 -1.39093e+06
0.0406769 0.0274369 0.025 -1.37573e+06
0.0417013 0.0281279 0.025 -1.36068e+06
0.042748 0.0288339 0.025 -1.3569e+06
0.0438175 0.0295552 0.025 -1.34071e+06
0.04491 0.0302922 0.025 -1.32702e+06
0.0460262 0.031045 0.025 -1.32763e+06
0.0471662 0.031814 0.025 -1.33421e+06
0.0483306 0.0325995 0.025 -1.31882e+06
0.0495199 0.0334016 0.025 -1.31544e+06
0.0507344 0.0342208 0.025 -1.30869e+06
0.0519746 0.0350573 0.025 -1.30851e+06
0.0532409 0.0359114 0.025 -1.31946e+06
0.0545339 0.0367835 0.025 -1.3064e+06
0.0558538 0.0376739 0.025 -1.30078e+06
0.0572012 0.0385827 0.025 -1.29821e+06
0.0585766 0.0395104 0.025 -1.29851e+06
0.0599804 0.0404573 0.025 -1.31001e+06
0.061413 0.0414236 0.025 -1.29361e+06
0.0628748 0.0424096 0.025 -1.31397e+06
0.0643665 0.0434157 0.025 -1.31311e+06
0.0658883 0.0444422 0.025 -1.2912e+06
0.0674408 0.0454894 0.025 -1.28412e+06
0.0690245 0.0465576 0.025 -1.2859e+06
0.0706398 0.0476471 0.025 -1.27647e+06
0.0722871 0.0487582 0.025 -1.26685e+06
0.0739669 0.0498912 0.025 -1.26261e+06
0.0756797 0.0510466 0.025 -1.27268e+06
0.0774258 0.0522244 0.025 -1.28837e+06
0.0792059 0.053425 0.025 -1.28735e+06
0.0810203 0.0546489 0.025 -1.30713e+06
0.0828694 0.0558961 0.025 -1.27563e+06
0.0847537 0.0571671 0.025 -1.31624e+06
0.0866737 0.0584622 0.025 -1.27479e+06
0.0886298 0.0597816 0.025 -1.27633e+06
0.0906224 0.0611256 0.025 -1.28942e+06
0.0926518 0.0624944 0.025 -1.25764e+06
0.0947185 0.0638884 0.025 -1.30142e+06
0.096823 0.065308 0.025 -1.2595e+06
0.0989659 0.0667532 0.025 -1.343e+06
0.101147 0.0682245 0.025 -1.69352e+06
0.103367 0.0697219 0.025 -1.59661e+06
0.105626 0.0712458 0.025 -1.20281e+06
0.107926 0.0727965 0.025 -1.19827e+06
0.110265 0.074374 0.025 -1.23744e+06
0.112644 0.0759789 0.025 -1.84914e+06
0.115063 0.0776111 0.025 -1.24212e+06
0.117524 0.0792709 0.025 -1.72109e+06
0.120026 0.0809585 0.025 -1.89071e+06
0.122569 0.0826741 0.025 -1.6756e+06
0.125155 0.0844179 0.025 -1.49519e+06
0.127782 0.0861901 0.025 -1.29697e+06
0.130451 0.0879908 0.025 -1.25316e+06
0.133163 0.08982 0.025 -1.23033e+06
0.135918 0.0916781 0.025 -1.20002e+06
0.138716 0.0935651 0.025 -1.19986e+06
0.141556 0.095481 0.025 -1.20966e+06
0.14444 0.097426 0.025 -1.59678e+06
0.147367 0.0994004 0.025 -2.36364e+06
0.150337 0.101404 0.025 -1.67839e+06
0.153351 0.103437 0.025 -1.62341e+06
0.156408 0.105498 0.025 -2.26488e+06
0.159508 0.107589 0.025 -1.03104e+06
0.162651 0.10971 0.025 -1.52661e+06
0.165838 0.111859 0.025 -3.62102e+06
0.169069 0.114039 0.025 -1.64965e+06
0.172343 0.116247 0.025 -2.00439e+06
0.175659 0.118483 0.025 -1.89121e+06
0.179018 0.120749 0.025 -1.88937e+06
0.182421 0.123045 0.025 -1.95852e+06
0.185866 0.125368 0.025 -1.71866e+06
0.189353 0.12772 0.025 -1.75405e+06
0.192882 0.1301 0.025 -1.85876e+06
0.196453 0.132509 0.025 -1.75895e+06
0.200065 0.134946 0.025 -2.16516e+06
0.203718 0.13741 0.025 -1.97029e+06
0.207412 0.139901 0.025 -929653
0.211146 0.14242 0.025 -991079
0.214919 0.144965 0.025 -1.62253e+06
0.218732 0.147537 0.025 -990182
0.222583 0.150134 0.025 -1.94243e+06
0.226472 0.152757 0.025 -981264
0.230399 0.155406 0.025 -1.84519e+06
0.234362 0.15808 0.025 -1.73714e+06
0.238362 0.160777 0.025 -2.34505e+06
0.242396 0.163498 0.025 -1.9731e+06
0.246466 0.166244 0.025 -2.1336e+06
0.250569 0.169012 0.025 -934533
0.254706 0.171801 0.025 -1.5361e+06
0.258874 0.174613 0.025 -1.53589e+06
0.263074 0.177446 0.025 -1.95414e+06
0.267304 0.180299 0.025 -1.58229e+06
0.271564 0.183172 0.025 -947120
0.275852 0.186064 0.025 -1.62683e+06
0.280168 0.188975 0.025 -922879
0.28451 0.191904 0.025 -1.65283e+06
0.288876 0.19485 0.025 -2.26128e+06
0.293268 0.197812 0.025 -1.61745e+06
0.297683 0.20079 0.025 -1.91365e+06
0.302119 0.203782 0.025 -2.21171e+06
0.306577 0.206788 0.025 -1.49459e+06
0.311054 0.209808 0.025 -1.59324e+06
0.315549 0.212841 0.025 -1.16262e+06
0.320063 0.215885 0.025 -2.00013e+06
0.324591 0.218939 0.025 -1.43538e+06
0.329134 0.222003 0.025 -1.41046e+06
0.333691 0.225077 0.025 -2.20095e+06
0.33826 0.228159 0.025 -1.79157e+06
0.342839 0.231248 0.025 -1.83406e+06
0.347428 0.234343 0.025 -873224
0.352025 0.237444 0.025 -1.92696e+06
0.356628 0.240548 0.025 -1.41105e+06
0.361237 0.243658 0.025 -1.15041e+06
0.36585 0.246769 0.025 -2.5159e+06
0.370465 0.249882 0.025 -1.0458e+06
0.375082 0.252996 0.025 -1.44219e+06
0.379698 0.25611 0.025 -2.5395e+06
0.384313 0.259223 0.025 -1.37989e+06
0.388926 0.262333 0.025 -1.70424e+06
0.393534 0.265442 0.025 -1.40569e+06
0.398136 0.268546 0.025 -876251
0.40273 0.271645 0.025 -1.61358e+06
0.407317 0.274739 0.025 -1.67538e+06
0.411894 0.277826 0.025 -2.09314e+06
0.41646 0.280906 0.025 -835359
0.421014 0.283977 0.025 -1.58517e+06
0.425554 0.28704 0.025 -1.84868e+06
0.430079 0.290092 0.025 -1.47698e+06
0.434588 0.293133 0.025 -1.80811e+06
0.439079 0.296162 0.025 -1.2721e+06
0.443551 0.299179 0.025 -1.65158e+06
0.448004 0.302183 0.025 -1.67912e+06
0.452437 0.305172 0.025 -1.64039e+06
0.456846 0.308146 0.025 -1.5252e+06
0.461232 0.311105 0.025 -1.54975e+06
0.465593 0.314047 0.025 -1.43453e+06
0.469929 0.316971 0.025 -1.91739e+06
0.474238 0.319878 0.025 -983914
0.47852 0.322766 0.025 -1.1007e+06
0.482773 0.325635 0.025 -873394
0.486996 0.328483 0.025 -1.31183e+06
0.491189 0.331311 0.025 -1.97977e+06
0.49535 0.334118 0.025 -1.27895e+06
