# wallHeatFlux  FACE_DATA 398
# x  y  z  wallHeatFlux
-0.7975 0 0.025 -653687
-0.79239 0 0.025 -120446
-0.787056 0 0.025 -70376
-0.781492 0 0.025 -61078.6
-0.775691 0 0.025 -63289.8
-0.769649 0 0.025 -64938.8
-0.763362 0 0.025 -66048.8
-0.756822 0 0.025 -66271.3
-0.750025 0 0.025 -65903.5
-0.742968 0 0.025 -65158.7
-0.735648 0 0.025 -64151.7
-0.72806 0 0.025 -63111.8
-0.720203 0 0.025 -62168.3
-0.712076 0 0.025 -61241.6
-0.703677 0 0.025 -60297.7
-0.695006 0 0.025 -59374.1
-0.686065 0 0.025 -58572.5
-0.676855 0 0.025 -57823.4
-0.667379 0 0.025 -57030.3
-0.65764 0 0.025 -56268.8
-0.647644 0 0.025 -55605.6
-0.637397 0 0.025 -54903.3
-0.626906 0 0.025 -54319.6
-0.616179 0 0.025 -53677.2
-0.605224 0 0.025 -53120.9
-0.594054 0 0.025 -52589.2
-0.582678 0 0.025 -52091.5
-0.57111 0 0.025 -51548.7
-0.559364 0 0.025 -51058.6
-0.547454 0 0.025 -50624.3
-0.535396 0 0.025 -50231.6
-0.523205 0 0.025 -49829
-0.510901 0 0.025 -49383.6
-0.4985 0 0.025 -49003.7
-0.486021 0 0.025 -48643.7
-0.473483 0 0.025 -48297.6
-0.460905 0 0.025 -48018.7
-0.448308 0 0.025 -47728.1
-0.435709 0 0.025 -47398
-0.42313 0 0.025 -47059.4
-0.41059 0 0.025 -46773.6
-0.39811 0 0.025 -46518.3
-0.385706 0 0.025 -46282.7
-0.373398 0 0.025 -46090.1
-0.361205 0 0.025 -45923.3
-0.349141 0 0.025 -45759.8
-0.337226 0 0.025 -45531.6
-0.325475 0 0.025 -45254.6
-0.313901 0 0.025 -44966.7
-0.30252 0 0.025 -44721
-0.291343 0 0.025 -44557
-0.280382 0 0.025 -44452
-0.269646 0 0.025 -44405.1
-0.259148 0 0.025 -44369.4
-0.248893 0 0.025 -44297.8
-0.23889 0 0.025 -44173.1
-0.229143 0 0.025 -44015.7
-0.219659 0 0.025 -43822.6
-0.210441 0 0.025 -43629.4
-0.201491 0 0.025 -43455.4
-0.192812 0 0.025 -43316.6
-0.184405 0 0.025 -43214.5
-0.176269 0 0.025 -43148
-0.168404 0 0.025 -43099.3
-0.160808 0 0.025 -43061.4
-0.15348 0 0.025 -43021.1
-0.146415 0 0.025 -42965.5
-0.13961 0 0.025 -42876.6
-0.133063 0 0.025 -42778.9
-0.126767 0 0.025 -42666.1
-0.120718 0 0.025 -42548.4
-0.11491 0 0.025 -42436.8
-0.109339 0 0.025 -42331.1
-0.103997 0 0.025 -42240.8
-0.0988805 0 0.025 -42159.7
-0.0939808 0 0.025 -42092.2
-0.0892928 0 0.025 -42036.7
-0.0848096 0 0.025 -42002.6
-0.0805248 0 0.025 -41990.5
-0.0764316 0 0.025 -41978.6
-0.0725237 0 0.025 -41982.8
-0.0687943 0 0.025 -41998.5
-0.065237 0 0.025 -42013.5
-0.0618454 0 0.025 -42035
-0.058613 0 0.025 -42050.3
-0.0555337 0 0.025 -42071.9
-0.0526013 0 0.025 -42087.6
-0.0498099 0 0.025 -42103.6
-0.0471536 0 0.025 -42114.3
-0.0446266 0 0.025 -42125
-0.0422235 0 0.025 -42130.3
-0.039939 0 0.025 -42135.7
-0.0377676 0 0.025 -42140.7
-0.0357044 0 0.025 -42146.7
-0.0337445 0 0.025 -42141
-0.0318832 0 0.025 -42055.3
-0.0301159 0 0.025 -41090.3
-0.0284383 0 0.025 -35503.5
-0.0268461 0 0.025 -30413.9
-0.0253353 0 0.025 -44462.9
-0.023902 0 0.025 -59840.3
-0.0225426 0 0.025 -69384.6
-0.0212532 0 0.025 -75565
-0.0200306 0 0.025 -80692.5
-0.0188715 0 0.025 -84985.3
-0.0177728 0 0.025 -88597.8
-0.0167313 0 0.025 -91760.7
-0.0157444 0 0.025 -94602.5
-0.0148092 0 0.025 -97363.2
-0.0139232 0 0.025 -100034
-0.0130838 0 0.025 -102553
-0.0122887 0 0.025 -104846
-0.0115356 0 0.025 -106886
-0.0108223 0 0.025 -108688
-0.0101469 0 0.025 -110260
-0.00950727 0 0.025 -111598
-0.00890168 0 0.025 -112717
-0.00832835 0 0.025 -113671
-0.00778557 0 0.025 -114546
-0.00727176 0 0.025 -115414
-0.0067854 0 0.025 -116352
-0.00632507 0 0.025 -117403
-0.00588937 0 0.025 -118624
-0.00547703 0 0.025 -120016
-0.0050868 0 0.025 -121601
-0.00471753 0 0.025 -123366
-0.0043681 0 0.025 -125315
-0.00403746 0 0.025 -127479
-0.00372461 0 0.025 -129838
-0.0034286 0 0.025 -132367
-0.00314855 0 0.025 -135090
-0.0028836 0 0.025 -138059
-0.00263294 0 0.025 -141279
-0.00239581 0 0.025 -144567
-0.0021715 0 0.025 -147789
-0.00195929 0 0.025 -151224
-0.00175856 0 0.025 -154806
-0.00156869 0 0.025 -158517
-0.00138908 0 0.025 -162366
-0.0012192 0 0.025 -166372
-0.00105853 0 0.025 -170439
-0.000906546 0 0.025 -174554
-0.000762803 0 0.025 -178633
-0.000626848 0 0.025 -182345
-0.000498265 0 0.025 -185002
-0.000376656 0 0.025 -184634
-0.000261642 0 0.025 -177452
-0.00015287 0 0.025 -155863
-5e-05 0 0.025 -101909
4.14519e-05 2.79596e-05 0.025 -73377.6
0.000125371 8.45641e-05 0.025 -86224.6
0.000211347 0.000142556 0.025 -101478
0.000299429 0.000201968 0.025 -112350
0.000389669 0.000262835 0.025 -121559
0.000482118 0.000325193 0.025 -130315
0.000576831 0.000389077 0.025 -138493
0.000673861 0.000454524 0.025 -145830
0.000773265 0.000521574 0.025 -152278
0.0008751 0.000590262 0.025 -157918
0.000979426 0.000660632 0.025 -162885
0.0010863 0.000732721 0.025 -167289
0.00119579 0.000806572 0.025 -171387
0.00130795 0.000882227 0.025 -175203
0.00142285 0.00095973 0.025 -178799
0.00154056 0.00103912 0.025 -182279
0.00166115 0.00112046 0.025 -185682
0.00178467 0.00120378 0.025 -189052
0.00191121 0.00128913 0.025 -192445
0.00204083 0.00137656 0.025 -195814
0.00217362 0.00146612 0.025 -199259
0.00230964 0.00155787 0.025 -202795
0.00244897 0.00165185 0.025 -206382
0.00259169 0.00174812 0.025 -210079
0.00273789 0.00184673 0.025 -213908
0.00288765 0.00194774 0.025 -217903
0.00304105 0.00205122 0.025 -222030
0.00319818 0.00215719 0.025 -226314
0.00335912 0.00226575 0.025 -230823
0.00352397 0.00237695 0.025 -235509
0.00369283 0.00249085 0.025 -240440
0.00386579 0.00260751 0.025 -245600
0.00404294 0.00272699 0.025 -251018
0.00422438 0.00284938 0.025 -256752
0.00441022 0.00297474 0.025 -262812
0.00460056 0.00310312 0.025 -269197
0.00479552 0.00323462 0.025 -275905
0.00499519 0.0033693 0.025 -283071
0.00519968 0.00350723 0.025 -290601
0.00540911 0.00364849 0.025 -298678
0.00562361 0.00379318 0.025 -307244
0.00584329 0.00394134 0.025 -316273
0.00606826 0.00409309 0.025 -325996
0.00629865 0.00424849 0.025 -336298
0.0065346 0.00440764 0.025 -347381
0.00677623 0.00457063 0.025 -359284
0.00702368 0.00473753 0.025 -371839
0.00727707 0.00490844 0.025 -385440
0.00753655 0.00508347 0.025 -399993
0.00780227 0.00526269 0.025 -415670
0.00807436 0.00544622 0.025 -432606
0.00835298 0.00563415 0.025 -450790
0.00863826 0.00582659 0.025 -470296
0.00893038 0.00602362 0.025 -491647
0.00922949 0.00622537 0.025 -515190
0.00953574 0.00643195 0.025 -540656
0.00984929 0.00664345 0.025 -568269
0.0101703 0.00686 0.025 -600460
0.0104991 0.00708171 0.025 -636183
0.0108356 0.00730871 0.025 -675025
0.0111801 0.0075411 0.025 -715642
0.0115329 0.00777902 0.025 -760155
0.011894 0.00802259 0.025 -804801
0.0122637 0.00827194 0.025 -849747
0.0126421 0.00852719 0.025 -894034
0.0130295 0.0087885 0.025 -935744
0.013426 0.00905597 0.025 -979794
0.013832 0.00932978 0.025 -1.02404e+06
0.0142475 0.00961003 0.025 -1.07227e+06
0.0146727 0.0098969 0.025 -1.12549e+06
0.0151081 0.0101905 0.025 -1.18173e+06
0.0155536 0.010491 0.025 -1.24263e+06
0.0160097 0.0107986 0.025 -1.30474e+06
0.0164764 0.0111134 0.025 -1.37094e+06
0.016954 0.0114356 0.025 -1.44012e+06
0.0174427 0.0117653 0.025 -1.50082e+06
0.0179429 0.0121026 0.025 -1.56092e+06
0.0184548 0.0124479 0.025 -1.63269e+06
0.0189786 0.0128013 0.025 -1.67022e+06
0.0195146 0.0131628 0.025 -1.70939e+06
0.020063 0.0135327 0.025 -1.76052e+06
0.0206242 0.0139112 0.025 -1.78215e+06
0.0211983 0.0142984 0.025 -1.79126e+06
0.0217857 0.0146947 0.025 -1.80675e+06
0.0223867 0.0151 0.025 -1.81391e+06
0.0230015 0.0155147 0.025 -1.81332e+06
0.0236304 0.0159389 0.025 -1.81607e+06
0.0242738 0.0163729 0.025 -1.78476e+06
0.0249318 0.0168167 0.025 -1.76052e+06
0.025605 0.0172708 0.025 -1.73994e+06
0.0262935 0.0177352 0.025 -1.66706e+06
0.0269977 0.0182102 0.025 -1.61523e+06
0.0277178 0.0186959 0.025 -1.57213e+06
0.0284544 0.0191927 0.025 -1.58169e+06
0.0292075 0.0197008 0.025 -1.5334e+06
0.0299777 0.0202203 0.025 -1.4874e+06
0.0307653 0.0207514 0.025 -1.45516e+06
0.0315704 0.0212945 0.025 -1.42493e+06
0.0323937 0.0218499 0.025 -1.39903e+06
0.0332354 0.0224176 0.025 -1.37627e+06
0.0340959 0.022998 0.025 -1.36046e+06
0.0349755 0.0235913 0.025 -1.34255e+06
0.0358747 0.0241978 0.025 -1.35401e+06
0.0367938 0.0248178 0.025 -1.3363e+06
0.0377331 0.0254513 0.025 -1.32529e+06
0.0386932 0.0260989 0.025 -1.31876e+06
0.0396743 0.0267606 0.025 -1.31507e+06
0.0406769 0.0274369 0.025 -1.3127e+06
0.0417013 0.0281279 0.025 -1.30638e+06
0.042748 0.0288339 0.025 -1.31005e+06
0.0438175 0.0295552 0.025 -1.30456e+06
0.04491 0.0302922 0.025 -1.30257e+06
0.0460262 0.031045 0.025 -1.30914e+06
0.0471662 0.031814 0.025 -1.31853e+06
0.0483306 0.0325995 0.025 -1.30244e+06
0.0495199 0.0334016 0.025 -1.30296e+06
0.0507344 0.0342208 0.025 -1.30102e+06
0.0519746 0.0350573 0.025 -1.29969e+06
0.0532409 0.0359114 0.025 -1.30355e+06
0.0545339 0.0367835 0.025 -1.28501e+06
0.0558538 0.0376739 0.025 -1.2792e+06
0.0572012 0.0385827 0.025 -1.28435e+06
0.0585766 0.0395104 0.025 -1.29031e+06
0.0599804 0.0404573 0.025 -1.30178e+06
0.061413 0.0414236 0.025 -1.28126e+06
0.0628748 0.0424096 0.025 -1.29831e+06
0.0643665 0.0434157 0.025 -1.29548e+06
0.0658883 0.0444422 0.025 -1.27383e+06
0.0674408 0.0454894 0.025 -1.26594e+06
0.0690245 0.0465576 0.025 -1.26762e+06
0.0706398 0.0476471 0.025 -1.25647e+06
0.0722871 0.0487582 0.025 -1.24618e+06
0.0739669 0.0498912 0.025 -1.24323e+06
0.0756797 0.0510466 0.025 -1.2542e+06
0.0774258 0.0522244 0.025 -1.26693e+06
0.0792059 0.053425 0.025 -1.26122e+06
0.0810203 0.0546489 0.025 -1.27949e+06
0.0828694 0.0558961 0.025 -1.24811e+06
0.0847537 0.0571671 0.025 -1.28854e+06
0.0866737 0.0584622 0.025 -1.24952e+06
0.0886298 0.0597816 0.025 -1.24822e+06
0.0906224 0.0611256 0.025 -1.25651e+06
0.0926518 0.0624944 0.025 -1.21814e+06
0.0947185 0.0638884 0.025 -1.25241e+06
0.096823 0.065308 0.025 -1.207e+06
0.0989659 0.0667532 0.025 -1.2847e+06
0.101147 0.0682245 0.025 -1.5962e+06
0.103367 0.0697219 0.025 -1.50614e+06
0.105626 0.0712458 0.025 -1.14489e+06
0.107926 0.0727965 0.025 -1.14795e+06
0.110265 0.074374 0.025 -1.18861e+06
0.112644 0.0759789 0.025 -1.76352e+06
0.115063 0.0776111 0.025 -1.20618e+06
0.117524 0.0792709 0.025 -1.65198e+06
0.120026 0.0809585 0.025 -1.79418e+06
0.122569 0.0826741 0.025 -1.58533e+06
0.125155 0.0844179 0.025 -1.41039e+06
0.127782 0.0861901 0.025 -1.22753e+06
0.130451 0.0879908 0.025 -1.18695e+06
0.133163 0.08982 0.025 -1.1656e+06
0.135918 0.0916781 0.025 -1.14268e+06
0.138716 0.0935651 0.025 -1.14887e+06
0.141556 0.095481 0.025 -1.15961e+06
0.14444 0.097426 0.025 -1.5107e+06
0.147367 0.0994004 0.025 -2.19023e+06
0.150337 0.101404 0.025 -1.58227e+06
0.153351 0.103437 0.025 -1.52907e+06
0.156408 0.105498 0.025 -2.05464e+06
0.159508 0.107589 0.025 -980863
0.162651 0.10971 0.025 -1.43063e+06
0.165838 0.111859 0.025 -3.24291e+06
0.169069 0.114039 0.025 -1.59118e+06
0.172343 0.116247 0.025 -1.88163e+06
0.175659 0.118483 0.025 -1.77435e+06
0.179018 0.120749 0.025 -1.77262e+06
0.182421 0.123045 0.025 -1.82834e+06
0.185866 0.125368 0.025 -1.61056e+06
0.189353 0.12772 0.025 -1.63277e+06
0.192882 0.1301 0.025 -1.71522e+06
0.196453 0.132509 0.025 -1.62184e+06
0.200065 0.134946 0.025 -1.95797e+06
0.203718 0.13741 0.025 -1.82215e+06
0.207412 0.139901 0.025 -887997
0.211146 0.14242 0.025 -949657
0.214919 0.144965 0.025 -1.54341e+06
0.218732 0.147537 0.025 -945907
0.222583 0.150134 0.025 -1.78751e+06
0.226472 0.152757 0.025 -926024
0.230399 0.155406 0.025 -1.69023e+06
0.234362 0.15808 0.025 -1.59081e+06
0.238362 0.160777 0.025 -2.13354e+06
0.242396 0.163498 0.025 -1.85633e+06
0.246466 0.166244 0.025 -1.99755e+06
0.250569 0.169012 0.025 -893396
0.254706 0.171801 0.025 -1.45346e+06
0.258874 0.174613 0.025 -1.45044e+06
0.263074 0.177446 0.025 -1.84385e+06
0.267304 0.180299 0.025 -1.49342e+06
0.271564 0.183172 0.025 -903418
0.275852 0.186064 0.025 -1.52415e+06
0.280168 0.188975 0.025 -877993
0.28451 0.191904 0.025 -1.54309e+06
0.288876 0.19485 0.025 -2.0974e+06
0.293268 0.197812 0.025 -1.51357e+06
0.297683 0.20079 0.025 -1.80282e+06
0.302119 0.203782 0.025 -2.01597e+06
0.306577 0.206788 0.025 -1.45241e+06
0.311054 0.209808 0.025 -1.51333e+06
0.315549 0.212841 0.025 -1.11816e+06
0.320063 0.215885 0.025 -1.87758e+06
0.324591 0.218939 0.025 -1.34394e+06
0.329134 0.222003 0.025 -1.32195e+06
0.333691 0.225077 0.025 -1.99391e+06
0.33826 0.228159 0.025 -1.6744e+06
0.342839 0.231248 0.025 -1.71178e+06
0.347428 0.234343 0.025 -834846
0.352025 0.237444 0.025 -1.79219e+06
0.356628 0.240548 0.025 -1.33771e+06
0.361237 0.243658 0.025 -1.10543e+06
0.36585 0.246769 0.025 -2.31818e+06
0.370465 0.249882 0.025 -1.06198e+06
0.375082 0.252996 0.025 -1.42581e+06
0.379698 0.25611 0.025 -2.25831e+06
0.384313 0.259223 0.025 -1.3294e+06
0.388926 0.262333 0.025 -1.59816e+06
0.393534 0.265442 0.025 -1.33186e+06
0.398136 0.268546 0.025 -841972
0.40273 0.271645 0.025 -1.52311e+06
0.407317 0.274739 0.025 -1.57834e+06
0.411894 0.277826 0.025 -1.96035e+06
0.41646 0.280906 0.025 -804469
0.421014 0.283977 0.025 -1.49588e+06
0.425554 0.28704 0.025 -1.71353e+06
0.430079 0.290092 0.025 -1.39841e+06
0.434588 0.293133 0.025 -1.69191e+06
0.439079 0.296162 0.025 -1.21149e+06
0.443551 0.299179 0.025 -1.55478e+06
0.448004 0.302183 0.025 -1.58368e+06
0.452437 0.305172 0.025 -1.55191e+06
0.456846 0.308146 0.025 -1.44769e+06
0.461232 0.311105 0.025 -1.47075e+06
0.465593 0.314047 0.025 -1.36655e+06
0.469929 0.316971 0.025 -1.79178e+06
0.474238 0.319878 0.025 -952151
0.47852 0.322766 0.025 -1.05804e+06
0.482773 0.325635 0.025 -842394
0.486996 0.328483 0.025 -1.25137e+06
0.491189 0.331311 0.025 -1.87563e+06
0.49535 0.334118 0.025 -1.21857e+06
