# p  FACE_DATA 212
# x  y  z  p
-0.809577 0 0.035 5437.82
-0.807489 0 0.035 4016.23
-0.805219 0 0.035 3428.03
-0.802746 0 0.035 3186.49
-0.800052 0 0.035 2973.72
-0.797114 0 0.035 2879.64
-0.793909 0 0.035 2853.38
-0.790405 0 0.035 2846.6
-0.786574 0 0.035 2843.95
-0.782377 0 0.035 2846.95
-0.777777 0 0.035 2848.15
-0.772724 0 0.035 2846.54
-0.767167 0 0.035 2845.57
-0.761044 0 0.035 2842.03
-0.754285 0 0.035 2836.53
-0.746806 0 0.035 2832.41
-0.738515 0 0.035 2827.96
-0.729297 0 0.035 2822.94
-0.719017 0 0.035 2818.11
-0.707518 0 0.035 2812.45
-0.694609 0 0.035 2807.77
-0.680056 0 0.035 2804.26
-0.663575 0 0.035 2799.58
-0.644813 0 0.035 2795.16
-0.624813 0 0.035 2790.2
-0.605117 0 0.035 2785.09
-0.586017 0 0.035 2780.8
-0.567487 0 0.035 2777.37
-0.549504 0 0.035 2774.39
-0.532047 0 0.035 2771.36
-0.515094 0 0.035 2768.97
-0.498626 0 0.035 2768.02
-0.482623 0 0.035 2767.79
-0.467067 0 0.035 2765.81
-0.451943 0 0.035 2762.08
-0.437233 0 0.035 2757.78
-0.422924 0 0.035 2755.09
-0.409002 0 0.035 2754.84
-0.395453 0 0.035 2757.33
-0.382267 0 0.035 2758.62
-0.369432 0 0.035 2758.09
-0.356936 0 0.035 2755
-0.344773 0 0.035 2751.04
-0.332933 0 0.035 2747.33
-0.321409 0 0.035 2745.31
-0.310192 0 0.035 2745.06
-0.299278 0 0.035 2747.22
-0.288661 0 0.035 2750.48
-0.278335 0 0.035 2753.12
-0.268297 0 0.035 2754.47
-0.258541 0 0.035 2754.73
-0.249066 0 0.035 2752.74
-0.239868 0 0.035 2749.09
-0.230945 0 0.035 2745.09
-0.222294 0 0.035 2741.23
-0.213914 0 0.035 2737.85
-0.205804 0 0.035 2735.33
-0.197961 0 0.035 2733.91
-0.190386 0 0.035 2733.49
-0.183077 0 0.035 2734.22
-0.176032 0 0.035 2736
-0.169252 0 0.035 2738.38
-0.162736 0 0.035 2740.97
-0.156483 0 0.035 2743.65
-0.150493 0 0.035 2746.1
-0.144764 0 0.035 2748.17
-0.139298 0 0.035 2749.73
-0.134091 0 0.035 2750.73
-0.129093 0 0.035 2751.24
-0.124253 0 0.035 2751.39
-0.119563 0 0.035 2751.18
-0.115017 0 0.035 2750.56
-0.110611 0 0.035 2749.54
-0.106339 0 0.035 2748.13
-0.102196 0 0.035 2746.41
-0.0981766 0 0.035 2744.47
-0.094276 0 0.035 2742.44
-0.0904897 0 0.035 2740.38
-0.086813 0 0.035 2738.35
-0.0832415 0 0.035 2736.41
-0.0797709 0 0.035 2734.57
-0.0763968 0 0.035 2732.86
-0.0731154 0 0.035 2731.28
-0.0699225 0 0.035 2729.87
-0.0668143 0 0.035 2728.63
-0.0637871 0 0.035 2727.55
-0.0608371 0 0.035 2726.63
-0.0579609 0 0.035 2725.84
-0.0551548 0 0.035 2725.18
-0.0524156 0 0.035 2724.64
-0.0497398 0 0.035 2724.19
-0.0471243 0 0.035 2723.93
-0.0445659 0 0.035 2723.17
-0.0420615 0 0.035 2729.22
-0.0396081 0 0.035 2973.52
-0.0372026 0 0.035 4838.05
-0.0348422 0 0.035 6844.77
-0.032524 0 0.035 7798.86
-0.0302452 0 0.035 8462.82
-0.028003 0 0.035 8953.93
-0.0257948 0 0.035 9347.79
-0.0236178 0 0.035 9689.69
-0.0214695 0 0.035 9985.25
-0.0193471 0 0.035 10263.5
-0.0172482 0 0.035 10516.7
-0.0151702 0 0.035 10755.9
-0.0131106 0 0.035 10975.7
-0.0110667 0 0.035 11174.7
-0.00903637 0 0.035 11342.1
-0.00701697 0 0.035 11485.4
-0.00500605 0 0.035 11592.6
-0.00300121 0 0.035 11773.1
-0.001 0 0.035 12945.7
0.000866025 0.0005 0.035 12329.9
0.0025844 0.00149211 0.035 12899.4
0.0042763 0.00246893 0.035 13827
0.00594322 0.00343132 0.035 14952.2
0.00758636 0.00437998 0.035 16355.2
0.00920737 0.00531588 0.035 18018.7
0.0108073 0.00623962 0.035 19996.1
0.0123876 0.00715197 0.035 22339.3
0.0139495 0.00805371 0.035 25084.2
0.0154937 0.00894529 0.035 28275.5
0.017022 0.00982768 0.035 31985.2
0.0185348 0.0107011 0.035 36259.3
0.0200339 0.0115665 0.035 41201.1
0.0215202 0.0124247 0.035 46868
0.0229941 0.0132756 0.035 53421.3
0.0244573 0.0141204 0.035 60963.8
0.0259099 0.0149591 0.035 69537.7
0.0273538 0.0157927 0.035 79121.5
0.0287897 0.0166217 0.035 89717.7
0.0302178 0.0174463 0.035 101195
0.0316401 0.0182674 0.035 113397
0.0330561 0.0190849 0.035 125846
0.0344679 0.0199001 0.035 137116
0.0358755 0.0207127 0.035 145525
0.0372803 0.0215238 0.035 150126
0.0386833 0.0223338 0.035 151576
0.0400841 0.0231425 0.035 143726
0.041485 0.0239514 0.035 136601
0.0428849 0.0247596 0.035 129945
0.0442867 0.025569 0.035 123942
0.0456908 0.0263796 0.035 118716
0.0470966 0.0271912 0.035 114450
0.0485064 0.0280052 0.035 110849
0.0499192 0.0288209 0.035 107585
0.0513378 0.0296399 0.035 104518
0.0527619 0.0304621 0.035 102149
0.0541923 0.031288 0.035 100140
0.0556307 0.0321184 0.035 99500.4
0.057076 0.0329529 0.035 99802.1
0.0585312 0.033793 0.035 100118
0.0599949 0.034638 0.035 99802.1
0.0614698 0.0354896 0.035 99222.3
0.062957 0.0363482 0.035 98610.8
0.064455 0.0372131 0.035 98497.7
0.0659672 0.0380862 0.035 98842.2
0.0674915 0.0389663 0.035 99505.3
0.0690319 0.0398556 0.035 100014
0.0705882 0.0407541 0.035 100025
0.0721604 0.0416619 0.035 99814.2
0.0737453 0.0425769 0.035 99602.3
0.0753344 0.0434943 0.035 99699.7
0.0769309 0.0444161 0.035 100015
0.0785326 0.0453408 0.035 100548
0.0801411 0.0462695 0.035 101154
0.0817575 0.0472026 0.035 101676
0.0833785 0.0481386 0.035 101748
0.0850077 0.0490792 0.035 101748
0.0866416 0.0500226 0.035 101563
0.0882842 0.0509709 0.035 101418
0.0899348 0.0519239 0.035 101325
0.0915911 0.0528801 0.035 101245
0.0932563 0.0538416 0.035 101325
0.0949268 0.054806 0.035 101407
0.0966067 0.0557759 0.035 101570
0.0982939 0.05675 0.035 101698
0.0999887 0.0577286 0.035 101864
0.101694 0.0587128 0.035 101979
0.103404 0.0597003 0.035 102178
0.105124 0.0606937 0.035 102287
0.106851 0.0616907 0.035 102348
0.108589 0.0626936 0.035 102391
0.110336 0.0637025 0.035 102280
0.11209 0.0647152 0.035 102068
0.113855 0.0657342 0.035 101817
0.115626 0.0667569 0.035 101550
0.117409 0.0677863 0.035 101579
0.119202 0.0688211 0.035 101561
0.121003 0.069861 0.035 101391
0.122816 0.0709077 0.035 101645
0.124635 0.0719584 0.035 102060
0.126467 0.0730161 0.035 102216
0.128308 0.0740787 0.035 102415
0.13016 0.0751479 0.035 102483
0.132024 0.0762243 0.035 102654
0.133897 0.0773051 0.035 102636
0.135782 0.0783935 0.035 102708
0.137675 0.0794865 0.035 102646
0.139581 0.0805871 0.035 102869
0.1415 0.081695 0.035 102857
0.143428 0.0828082 0.035 102715
0.145371 0.0839295 0.035 102603
0.147321 0.0850557 0.035 102488
0.149285 0.08619 0.035 102797
0.151261 0.0873308 0.035 102735
0.153249 0.0884787 0.035 102082
0.155253 0.0896352 0.035 102170
0.157264 0.0907968 0.035 102112
0.159292 0.0919673 0.035 102223
0.161329 0.093143 0.035 102197
