# p  FACE_DATA 398
# x  y  z  p
-0.7975 -7.61524e-06 0 225.796
-0.79239 -7.61524e-06 0 155.26
-0.787056 -7.61524e-06 0 118.092
-0.781492 -7.61524e-06 0 108.187
-0.775691 -7.61524e-06 0 101.297
-0.769649 -7.61524e-06 0 95.8628
-0.763361 -7.61524e-06 0 91.3993
-0.756822 -7.61524e-06 0 87.6436
-0.750025 -7.61524e-06 0 84.3366
-0.742968 -7.61524e-06 0 81.4641
-0.735648 -7.61524e-06 0 79.2205
-0.72806 -7.61524e-06 0 77.3738
-0.720203 -7.61524e-06 0 75.7225
-0.712075 -7.61524e-06 0 74.285
-0.703676 -7.61524e-06 0 73.0459
-0.695006 -7.61524e-06 0 71.9234
-0.686065 -7.61524e-06 0 70.8777
-0.676855 -7.61524e-06 0 69.9239
-0.667379 -7.61524e-06 0 69.0764
-0.657641 -7.61524e-06 0 68.3087
-0.647644 -7.61524e-06 0 67.596
-0.637398 -7.61524e-06 0 66.938
-0.626906 -7.61524e-06 0 66.3344
-0.616179 -7.61524e-06 0 65.7806
-0.605225 -7.61524e-06 0 65.2651
-0.594054 -7.61524e-06 0 64.7778
-0.582677 -7.61524e-06 0 64.3215
-0.57111 -7.61524e-06 0 63.9034
-0.559364 -7.61524e-06 0 63.517
-0.547454 -7.61524e-06 0 63.1548
-0.535396 -7.61524e-06 0 62.8169
-0.523205 -7.61524e-06 0 62.5038
-0.510901 -7.61524e-06 0 62.2086
-0.498499 -7.61524e-06 0 61.9241
-0.486021 -7.61524e-06 0 61.6498
-0.473482 -7.61524e-06 0 61.395
-0.460905 -7.61524e-06 0 61.168
-0.448307 -7.61524e-06 0 60.9659
-0.435709 -7.61524e-06 0 60.7754
-0.42313 -7.61524e-06 0 60.5849
-0.41059 -7.61524e-06 0 60.391
-0.39811 -7.61524e-06 0 60.2033
-0.385706 -7.61524e-06 0 60.035
-0.373398 -7.61524e-06 0 59.8959
-0.361205 -7.61524e-06 0 59.7834
-0.349142 -7.61524e-06 0 59.6811
-0.337226 -7.61524e-06 0 59.5675
-0.325475 -7.61524e-06 0 59.4326
-0.313901 -7.61524e-06 0 59.2852
-0.30252 -7.61524e-06 0 59.1423
-0.291343 -7.61524e-06 0 59.0186
-0.280381 -7.61524e-06 0 58.9305
-0.269647 -7.61524e-06 0 58.8847
-0.259148 -7.61524e-06 0 58.8755
-0.248893 -7.61524e-06 0 58.8898
-0.23889 -7.61524e-06 0 58.8818
-0.229143 -7.61524e-06 0 58.8374
-0.219659 -7.61524e-06 0 58.758
-0.210441 -7.61524e-06 0 58.6429
-0.201491 -7.61524e-06 0 58.5073
-0.192812 -7.61524e-06 0 58.4023
-0.184405 -7.61524e-06 0 58.6907
-0.176269 -7.61524e-06 0 61.7017
-0.168404 -7.61524e-06 0 69.8776
-0.160809 -7.61524e-06 0 79.6646
-0.15348 -7.61524e-06 0 87.0679
-0.146415 -7.61524e-06 0 92.6247
-0.13961 -7.61524e-06 0 96.4953
-0.133063 -7.61524e-06 0 99.4797
-0.126767 -7.61524e-06 0 101.986
-0.120717 -7.61524e-06 0 104.1
-0.11491 -7.61524e-06 0 105.981
-0.109339 -7.61524e-06 0 107.669
-0.103997 -7.61524e-06 0 109.337
-0.0988804 -7.61524e-06 0 110.886
-0.0939809 -7.61524e-06 0 112.363
-0.0892928 -7.61524e-06 0 113.815
-0.0848096 -7.61524e-06 0 115.318
-0.0805248 -7.61524e-06 0 116.888
-0.0764317 -7.61524e-06 0 118.5
-0.0725237 -7.61524e-06 0 120.106
-0.0687943 -7.61524e-06 0 121.708
-0.065237 -7.61524e-06 0 123.3
-0.0618454 -7.61524e-06 0 124.878
-0.058613 -7.61524e-06 0 126.454
-0.0555337 -7.61524e-06 0 128.024
-0.0526013 -7.61524e-06 0 129.576
-0.0498099 -7.61524e-06 0 131.092
-0.0471536 -7.61524e-06 0 132.548
-0.0446266 -7.61524e-06 0 133.937
-0.0422235 -7.61524e-06 0 135.257
-0.0399389 -7.61524e-06 0 136.508
-0.0377676 -7.61524e-06 0 137.693
-0.0357044 -7.61524e-06 0 138.813
-0.0337445 -7.61524e-06 0 139.869
-0.0318832 -7.61524e-06 0 140.856
-0.0301159 -7.61524e-06 0 141.773
-0.0284383 -7.61524e-06 0 142.62
-0.0268462 -7.61524e-06 0 143.399
-0.0253353 -7.61524e-06 0 144.114
-0.023902 -7.61524e-06 0 144.771
-0.0225425 -7.61524e-06 0 145.378
-0.0212532 -7.61524e-06 0 145.941
-0.0200306 -7.61524e-06 0 146.471
-0.0188715 -7.61524e-06 0 146.977
-0.0177727 -7.61524e-06 0 147.468
-0.0167313 -7.61524e-06 0 147.955
-0.0157444 -7.61524e-06 0 148.45
-0.0148093 -7.61524e-06 0 148.962
-0.0139232 -7.61524e-06 0 149.5
-0.0130838 -7.61524e-06 0 150.072
-0.0122887 -7.61524e-06 0 150.684
-0.0115355 -7.61524e-06 0 151.343
-0.0108223 -7.61524e-06 0 152.049
-0.0101469 -7.61524e-06 0 152.803
-0.00950727 -7.61524e-06 0 153.606
-0.00890169 -7.61524e-06 0 154.458
-0.00832834 -7.61524e-06 0 155.352
-0.00778557 -7.61524e-06 0 156.281
-0.00727176 -7.61524e-06 0 157.237
-0.00678541 -7.61524e-06 0 158.221
-0.00632507 -7.61524e-06 0 159.199
-0.00588937 -7.61524e-06 0 160.169
-0.00547703 -7.61524e-06 0 161.132
-0.00508681 -7.61524e-06 0 162.08
-0.00471753 -7.61524e-06 0 162.997
-0.0043681 -7.61524e-06 0 163.88
-0.00403746 -7.61524e-06 0 164.719
-0.00372461 -7.61524e-06 0 165.508
-0.0034286 -7.61524e-06 0 166.244
-0.00314855 -7.61524e-06 0 166.922
-0.00288361 -7.61524e-06 0 167.541
-0.00263295 -7.61524e-06 0 168.099
-0.00239582 -7.61524e-06 0 168.594
-0.00217149 -7.61524e-06 0 169.029
-0.00195929 -7.61524e-06 0 169.402
-0.00175856 -7.61524e-06 0 169.717
-0.00156869 -7.61524e-06 0 169.973
-0.00138908 -7.61524e-06 0 170.174
-0.00121921 -7.61524e-06 0 170.322
-0.00105853 -7.61524e-06 0 170.419
-0.000906546 -7.61524e-06 0 170.467
-0.000762803 -7.61524e-06 0 170.476
-0.000626849 -7.61524e-06 0 170.442
-0.000498266 -7.61524e-06 0 170.367
-0.000376656 -7.61524e-06 0 170.262
-0.000261642 -7.61524e-06 0 170.126
-0.00015287 -7.61524e-06 0 169.963
-5e-05 -7.61524e-06 0 169.81
4.14596e-05 2.03453e-05 0 169.231
0.000125379 7.69412e-05 0 169.264
0.000211356 0.000134924 0 169.186
0.000299438 0.000194328 0 169.113
0.000389678 0.000255186 0 169.047
0.000482128 0.000317535 0 168.986
0.000576841 0.000381409 0 168.924
0.000673871 0.000446848 0 168.862
0.000773276 0.000513887 0 168.799
0.000875112 0.000582565 0 168.734
0.000979439 0.000652924 0 168.668
0.00108632 0.000725003 0 168.6
0.00119581 0.000798843 0 168.53
0.00130797 0.000874487 0 168.456
0.00142287 0.000951979 0 168.384
0.00154058 0.00103136 0 168.308
0.00166117 0.00111268 0 168.23
0.00178469 0.00119599 0 168.15
0.00191123 0.00128133 0 168.068
0.00204085 0.00136875 0 167.984
0.00217364 0.0014583 0 167.898
0.00230966 0.00155003 0 167.81
0.00244899 0.001644 0 167.721
0.00259171 0.00174025 0 167.632
0.00273791 0.00183885 0 167.543
0.00288767 0.00193985 0 167.455
0.00304108 0.0020433 0 167.371
0.0031982 0.00214927 0 167.292
0.00335915 0.00225781 0 167.221
0.003524 0.002369 0 167.16
0.00369286 0.00248287 0 167.113
0.00386582 0.00259951 0 167.082
0.00404297 0.00271899 0 167.073
0.00422442 0.00284136 0 167.091
0.00441026 0.00296669 0 167.138
0.0046006 0.00309506 0 167.217
0.00479556 0.00322653 0 167.333
0.00499523 0.00336119 0 167.487
0.00519972 0.00349911 0 167.683
0.00540916 0.00364036 0 167.921
0.00562366 0.00378501 0 168.204
0.00584334 0.00393316 0 168.53
0.00606831 0.00408489 0 168.901
0.00629871 0.00424027 0 169.317
0.00653466 0.0043994 0 169.777
0.00677629 0.00456236 0 170.281
0.00702374 0.00472923 0 170.831
0.00727714 0.00490013 0 171.428
0.00753663 0.00507513 0 172.074
0.00780234 0.00525433 0 172.77
0.00807444 0.00543783 0 173.521
0.00835306 0.00562573 0 174.328
0.00863835 0.00581814 0 175.193
0.00893047 0.00601514 0 176.12
0.00922958 0.00621687 0 177.11
0.00953584 0.00642341 0 178.164
0.00984939 0.00663489 0 179.284
0.0101705 0.00685141 0 180.478
0.0104992 0.00707309 0 181.737
0.0108357 0.00730005 0 183.065
0.0111802 0.00753241 0 184.47
0.011533 0.0077703 0 185.951
0.0118941 0.00801384 0 187.511
0.0122638 0.00826316 0 189.156
0.0126422 0.00851837 0 190.882
0.0130296 0.00877964 0 192.699
0.0134262 0.00904708 0 194.609
0.0138321 0.00932084 0 196.624
0.0142476 0.00960107 0 198.734
0.0146729 0.00988792 0 200.964
0.0151082 0.0101815 0 203.304
0.0155538 0.0104819 0 205.775
0.0160098 0.0107895 0 208.375
0.0164766 0.0111042 0 211.119
0.0169542 0.0114263 0 214.011
0.0174429 0.011756 0 217.071
0.0179431 0.0120934 0 220.312
0.018455 0.0124386 0 223.746
0.0189789 0.0127918 0 227.388
0.0195149 0.0131533 0 231.259
0.0200633 0.0135232 0 235.382
0.0206245 0.0139016 0 239.773
0.0211986 0.0142888 0 244.464
0.0217861 0.014685 0 249.48
0.022387 0.0150903 0 254.858
0.0230018 0.0155049 0 260.632
0.0236307 0.0159291 0 266.843
0.0242741 0.0163629 0 273.543
0.0249322 0.0168068 0 280.77
0.0256053 0.0172608 0 288.598
0.0262939 0.0177251 0 297.093
0.0269981 0.0182 0 306.304
0.0277183 0.0186857 0 316.355
0.0284548 0.0191825 0 327.292
0.029208 0.0196904 0 339.259
0.0299782 0.0202098 0 352.369
0.0307658 0.0207409 0 366.752
0.031571 0.021284 0 382.565
0.0323942 0.0218393 0 400.012
0.033236 0.0224069 0 419.284
0.0340965 0.0229872 0 440.629
0.0349762 0.0235805 0 464.308
0.0358753 0.0241869 0 490.699
0.0367944 0.0248067 0 520.136
0.0377338 0.0254403 0 553.117
0.0386938 0.0260877 0 590.212
0.039675 0.0267494 0 632.031
0.0406776 0.0274256 0 679.318
0.0417021 0.0281165 0 732.772
0.0427488 0.0288225 0 793.3
0.0438183 0.0295437 0 861.948
0.0449109 0.0302805 0 939.25
0.046027 0.0310332 0 1026.65
0.0471671 0.0318021 0 1124.95
0.0483315 0.0325874 0 1235.33
0.0495209 0.0333895 0 1358.65
0.0507354 0.0342086 0 1496.1
0.0519756 0.035045 0 1648.55
0.053242 0.0358991 0 1817.72
0.054535 0.036771 0 2003.48
0.0558549 0.0376613 0 2203.02
0.0572024 0.03857 0 2413.22
0.0585778 0.0394976 0 2629.65
0.0599816 0.0404443 0 2841.29
0.0614142 0.0414105 0 3032.75
0.0628761 0.0423964 0 3193.85
0.0643678 0.0434024 0 3313.99
0.0658897 0.0444287 0 3378.93
0.0674422 0.0454758 0 3395.69
0.069026 0.0465439 0 3401.57
0.0706413 0.0476333 0 3370.2
0.0722886 0.0487443 0 3278.98
0.0739685 0.0498771 0 3166.52
0.0756813 0.0510323 0 3011.5
0.0774275 0.05221 0 2828.9
0.0792077 0.0534105 0 2640.24
0.0810221 0.0546342 0 2472.02
0.0828712 0.0558812 0 2327.67
0.0847556 0.0571521 0 2203.44
0.0866757 0.058447 0 2100.3
0.0886318 0.0597661 0 2019.83
0.0906244 0.06111 0 1959.56
0.0926539 0.0624787 0 1915.07
0.0947207 0.0638726 0 1883.03
0.0968252 0.0652919 0 1861.56
0.0989682 0.066737 0 1847.08
0.101149 0.068208 0 1860.37
0.103369 0.0697052 0 1888.02
0.105629 0.0712289 0 1899.2
0.107928 0.0727794 0 1901.14
0.110267 0.0743568 0 1897.01
0.112646 0.0759614 0 1909.37
0.115066 0.0775934 0 1927.99
0.117527 0.079253 0 1936.67
0.120029 0.0809404 0 1931.93
0.122572 0.0826558 0 1920.73
0.125158 0.0843994 0 1912.42
0.127785 0.0861713 0 1923.49
0.130454 0.0879717 0 1938.88
0.133167 0.0898008 0 1943.18
0.135921 0.0916586 0 1936.52
0.138719 0.0935453 0 1928.01
0.141559 0.095461 0 1921.25
0.144443 0.0974057 0 1927.21
0.14737 0.0993798 0 1935.81
0.15034 0.101383 0 1948.49
0.153354 0.103415 0 1962.89
0.156411 0.105477 0 1967.88
0.159511 0.107568 0 1965.57
0.162655 0.109688 0 1963.11
0.165842 0.111837 0 1962.59
0.169073 0.114016 0 1973.19
0.172346 0.116223 0 1985.37
0.175663 0.118461 0 1987.39
0.179022 0.120727 0 1982.81
0.182425 0.123021 0 1983.6
0.18587 0.125344 0 1993.43
0.189357 0.127696 0 1998.21
0.192886 0.130076 0 1995.06
0.196457 0.132484 0 1984.48
0.200069 0.13492 0 1975.98
0.203722 0.137384 0 1977.28
0.207416 0.139875 0 1980.2
0.21115 0.142393 0 1976.31
0.214924 0.144938 0 1964.93
0.218736 0.147509 0 1948.28
0.222587 0.150107 0 1937.86
0.226476 0.152729 0 1931.06
0.230403 0.155377 0 1924.19
0.234366 0.15805 0 1911.38
0.238366 0.160748 0 1895.46
0.242401 0.163469 0 1880.79
0.24647 0.166214 0 1872.19
0.250573 0.168981 0 1866.94
0.25471 0.17177 0 1859.35
0.258878 0.174582 0 1851.41
0.263078 0.177414 0 1848.18
0.267309 0.180266 0 1843.58
0.271568 0.183139 0 1846.35
0.275856 0.186031 0 1841.91
0.280172 0.188942 0 1832.92
0.284514 0.19187 0 1824.77
0.288881 0.194815 0 1822.48
0.293272 0.197777 0 1823.26
0.297687 0.200754 0 1821.28
0.302124 0.203746 0 1824.61
0.306581 0.206752 0 1822.97
0.311058 0.209772 0 1818.72
0.315554 0.212804 0 1816.29
0.320067 0.215847 0 1810.06
0.324595 0.218901 0 1815.73
0.329138 0.221965 0 1815.92
0.333695 0.225038 0 1813.86
0.338264 0.228119 0 1811.75
0.342843 0.231208 0 1814.22
0.347432 0.234302 0 1817.74
0.352029 0.237402 0 1821.45
0.356632 0.240507 0 1823.1
0.361241 0.243616 0 1819.46
0.365854 0.246727 0 1813
0.370469 0.249839 0 1809.15
0.375085 0.252953 0 1807.75
0.379702 0.256066 0 1813.79
0.384317 0.259178 0 1818.19
0.388929 0.262289 0 1819.54
0.393537 0.265396 0 1819.46
0.398139 0.2685 0 1814.08
0.402734 0.271598 0 1810.48
0.407321 0.274692 0 1812.21
0.411898 0.277779 0 1817.89
0.416464 0.280858 0 1822.55
0.421017 0.283929 0 1830.37
0.425557 0.286991 0 1833.84
0.430082 0.290042 0 1832.88
0.434591 0.293083 0 1821.12
0.439082 0.296112 0 1811.72
0.443555 0.299128 0 1804.53
0.448008 0.302131 0 1806.69
0.45244 0.30512 0 1815.55
0.456849 0.308094 0 1825.02
0.461235 0.311052 0 1843.93
0.465596 0.313993 0 1853.21
0.469932 0.316917 0 1855.08
0.474241 0.319823 0 1846.36
0.478523 0.322711 0 1831.5
0.482776 0.325579 0 1810.05
0.486999 0.328427 0 1795.31
0.491191 0.331254 0 1788.07
0.495353 0.334061 0 1797.61
