# wallHeatFlux  FACE_DATA 398
# x  y  z  wallHeatFlux
-0.7975 -7.61524e-06 0 -98551.4
-0.79239 -7.61524e-06 0 -22460.2
-0.787056 -7.61524e-06 0 -13918
-0.781492 -7.61524e-06 0 -10969.2
-0.775691 -7.61524e-06 0 -9216.04
-0.769649 -7.61524e-06 0 -8010.15
-0.763361 -7.61524e-06 0 -7121.32
-0.756822 -7.61524e-06 0 -6428.17
-0.750025 -7.61524e-06 0 -5867.76
-0.742968 -7.61524e-06 0 -5408.38
-0.735648 -7.61524e-06 0 -5033.57
-0.72806 -7.61524e-06 0 -4722.24
-0.720203 -7.61524e-06 0 -4453.3
-0.712075 -7.61524e-06 0 -4221.49
-0.703676 -7.61524e-06 0 -4016.06
-0.695006 -7.61524e-06 0 -3842.41
-0.686065 -7.61524e-06 0 -3679.24
-0.676855 -7.61524e-06 0 -3526.57
-0.667379 -7.61524e-06 0 -3400.41
-0.657641 -7.61524e-06 0 -3279.49
-0.647644 -7.61524e-06 0 -3174.32
-0.637398 -7.61524e-06 0 -3068.99
-0.626906 -7.61524e-06 0 -2974.35
-0.616179 -7.61524e-06 0 -2884.72
-0.605225 -7.61524e-06 0 -2805.77
-0.594054 -7.61524e-06 0 -2732.03
-0.582677 -7.61524e-06 0 -2668.79
-0.57111 -7.61524e-06 0 -2605.41
-0.559364 -7.61524e-06 0 -2547.32
-0.547454 -7.61524e-06 0 -2489.05
-0.535396 -7.61524e-06 0 -2436.05
-0.523205 -7.61524e-06 0 -2382.83
-0.510901 -7.61524e-06 0 -2340.35
-0.498499 -7.61524e-06 0 -2297.66
-0.486021 -7.61524e-06 0 -2254.88
-0.473482 -7.61524e-06 0 -2217.38
-0.460905 -7.61524e-06 0 -2179.75
-0.448307 -7.61524e-06 0 -2147.46
-0.435709 -7.61524e-06 0 -2115.08
-0.42313 -7.61524e-06 0 -2082.57
-0.41059 -7.61524e-06 0 -2055.4
-0.39811 -7.61524e-06 0 -2028.16
-0.385706 -7.61524e-06 0 -2000.84
-0.373398 -7.61524e-06 0 -1978.9
-0.361205 -7.61524e-06 0 -1956.93
-0.349142 -7.61524e-06 0 -1934.88
-0.337226 -7.61524e-06 0 -1912.83
-0.325475 -7.61524e-06 0 -1890.76
-0.313901 -7.61524e-06 0 -1874.06
-0.30252 -7.61524e-06 0 -1857.34
-0.291343 -7.61524e-06 0 -1840.67
-0.280381 -7.61524e-06 0 -1824
-0.269647 -7.61524e-06 0 -1807.31
-0.259148 -7.61524e-06 0 -1796
-0.248893 -7.61524e-06 0 -1790.13
-0.23889 -7.61524e-06 0 -1778.92
-0.229143 -7.61524e-06 0 -1767.7
-0.219659 -7.61524e-06 0 -1756.54
-0.210441 -7.61524e-06 0 -1740.03
-0.201491 -7.61524e-06 0 -1729
-0.192812 -7.61524e-06 0 -1717.89
-0.184405 -7.61524e-06 0 -1733.71
-0.176269 -7.61524e-06 0 -1813.65
-0.168404 -7.61524e-06 0 -1775.96
-0.160809 -7.61524e-06 0 -1502.94
-0.15348 -7.61524e-06 0 -1198
-0.146415 -7.61524e-06 0 -978.672
-0.13961 -7.61524e-06 0 -818.171
-0.133063 -7.61524e-06 0 -700.501
-0.126767 -7.61524e-06 0 -641.671
-0.120717 -7.61524e-06 0 -625.63
-0.11491 -7.61524e-06 0 -625.639
-0.109339 -7.61524e-06 0 -657.742
-0.103997 -7.61524e-06 0 -705.879
-0.0988804 -7.61524e-06 0 -775.481
-0.0939809 -7.61524e-06 0 -850.394
-0.0892928 -7.61524e-06 0 -941.391
-0.0848096 -7.61524e-06 0 -1043.1
-0.0805248 -7.61524e-06 0 -1139.49
-0.0764317 -7.61524e-06 0 -1230.56
-0.0725237 -7.61524e-06 0 -1316.3
-0.0687943 -7.61524e-06 0 -1402.08
-0.065237 -7.61524e-06 0 -1482.5
-0.0618454 -7.61524e-06 0 -1562.98
-0.058613 -7.61524e-06 0 -1638.1
-0.0555337 -7.61524e-06 0 -1707.92
-0.0526013 -7.61524e-06 0 -1772.38
-0.0498099 -7.61524e-06 0 -1831.51
-0.0471536 -7.61524e-06 0 -1890.66
-0.0446266 -7.61524e-06 0 -1944.46
-0.0422235 -7.61524e-06 0 -1998.28
-0.0399389 -7.61524e-06 0 -2057.47
-0.0377676 -7.61524e-06 0 -2111.31
-0.0357044 -7.61524e-06 0 -2165.2
-0.0337445 -7.61524e-06 0 -2224.42
-0.0318832 -7.61524e-06 0 -2278.31
-0.0301159 -7.61524e-06 0 -2337.57
-0.0284383 -7.61524e-06 0 -2402.21
-0.0268462 -7.61524e-06 0 -2466.87
-0.0253353 -7.61524e-06 0 -2536.91
-0.023902 -7.61524e-06 0 -2612.33
-0.0225425 -7.61524e-06 0 -2693.1
-0.0212532 -7.61524e-06 0 -2779.36
-0.0200306 -7.61524e-06 0 -2870.91
-0.0188715 -7.61524e-06 0 -2962.52
-0.0177727 -7.61524e-06 0 -3059.54
-0.0167313 -7.61524e-06 0 -3156.58
-0.0157444 -7.61524e-06 0 -3248.29
-0.0148093 -7.61524e-06 0 -3345.35
-0.0139232 -7.61524e-06 0 -3431.89
-0.0130838 -7.61524e-06 0 -3523.58
-0.0122887 -7.61524e-06 0 -3604.87
-0.0115355 -7.61524e-06 0 -3680.6
-0.0108223 -7.61524e-06 0 -3756.45
-0.0101469 -7.61524e-06 0 -3826.99
-0.00950727 -7.61524e-06 0 -3886.85
-0.00890169 -7.61524e-06 0 -3946.77
-0.00832834 -7.61524e-06 0 -3996
-0.00778557 -7.61524e-06 0 -4039.94
-0.00727176 -7.61524e-06 0 -4078.59
-0.00678541 -7.61524e-06 0 -4111.92
-0.00632507 -7.61524e-06 0 -4140.03
-0.00588937 -7.61524e-06 0 -4157.44
-0.00547703 -7.61524e-06 0 -4169.61
-0.00508681 -7.61524e-06 0 -4176.55
-0.00471753 -7.61524e-06 0 -4172.9
-0.0043681 -7.61524e-06 0 -4158.61
-0.00403746 -7.61524e-06 0 -4144.57
-0.00372461 -7.61524e-06 0 -4114.62
-0.0034286 -7.61524e-06 0 -4079.55
-0.00314855 -7.61524e-06 0 -4039.4
-0.00288361 -7.61524e-06 0 -3988.92
-0.00263295 -7.61524e-06 0 -3933.46
-0.00239582 -7.61524e-06 0 -3867.82
-0.00217149 -7.61524e-06 0 -3797.44
-0.00195929 -7.61524e-06 0 -3717.11
-0.00175856 -7.61524e-06 0 -3632.41
-0.00156869 -7.61524e-06 0 -3538.1
-0.00138908 -7.61524e-06 0 -3434.46
-0.00121921 -7.61524e-06 0 -3327.18
-0.00105853 -7.61524e-06 0 -3211.31
-0.000906546 -7.61524e-06 0 -3092.63
-0.000762803 -7.61524e-06 0 -2960.45
-0.000626849 -7.61524e-06 0 -2820.49
-0.000498266 -7.61524e-06 0 -2666.78
-0.000376656 -7.61524e-06 0 -2497.72
-0.000261642 -7.61524e-06 0 -2290.74
-0.00015287 -7.61524e-06 0 -2013.28
-5e-05 -7.61524e-06 0 -1533.19
4.14596e-05 2.03453e-05 0 -1538.21
0.000125379 7.69412e-05 0 -1984.99
0.000211356 0.000134924 0 -2226.52
0.000299438 0.000194328 0 -2393.09
0.000389678 0.000255186 0 -2525.06
0.000482128 0.000317535 0 -2641.29
0.000576841 0.000381409 0 -2737.49
0.000673871 0.000446848 0 -2829.94
0.000773276 0.000513887 0 -2913.06
0.000875112 0.000582565 0 -2997.58
0.000979439 0.000652924 0 -3072.55
0.00108632 0.000725003 0 -3147.77
0.00119581 0.000798843 0 -3224.1
0.00130797 0.000874487 0 -3296.55
0.00142287 0.000951979 0 -3369.37
0.00154058 0.00103136 0 -3440.88
0.00166117 0.00111268 0 -3512.37
0.00178469 0.00119599 0 -3585.41
0.00191123 0.00128133 0 -3659.49
0.00204085 0.00136875 0 -3734.05
0.00217364 0.0014583 0 -3806.95
0.00230966 0.00155003 0 -3880.95
0.00244899 0.001644 0 -3954.3
0.00259171 0.00174025 0 -4027.15
0.00273791 0.00183885 0 -4102.24
0.00288767 0.00193985 0 -4172.54
0.00304108 0.0020433 0 -4244.62
0.0031982 0.00214927 0 -4316.08
0.00335915 0.00225781 0 -4387.02
0.003524 0.002369 0 -4452.66
0.00369286 0.00248287 0 -4519.92
0.00386582 0.00259951 0 -4585.91
0.00404297 0.00271899 0 -4655.62
0.00422442 0.00284136 0 -4716.01
0.00441026 0.00296669 0 -4779.81
0.0046006 0.00309506 0 -4846.89
0.00479556 0.00322653 0 -4909.36
0.00499523 0.00336119 0 -4973.75
0.00519972 0.00349911 0 -5042.83
0.00540916 0.00364036 0 -5106.6
0.00562366 0.00378501 0 -5175.67
0.00584334 0.00393316 0 -5244.76
0.00606831 0.00408489 0 -5319.15
0.00629871 0.00424027 0 -5393.54
0.00653466 0.0043994 0 -5467.94
0.00677629 0.00456236 0 -5540.01
0.00702374 0.00472923 0 -5617.37
0.00727714 0.00490013 0 -5691.71
0.00753663 0.00507513 0 -5766.86
0.00780234 0.00525433 0 -5846.43
0.00807444 0.00543783 0 -5920.86
0.00835306 0.00562573 0 -6002.93
0.00863835 0.00581814 0 -6082.67
0.00893047 0.00601514 0 -6163.34
0.00922958 0.00621687 0 -6243.01
0.00953584 0.00642341 0 -6326.99
0.00984939 0.00663489 0 -6414.68
0.0101705 0.00685141 0 -6506.01
0.0104992 0.00707309 0 -6594.07
0.0108357 0.00730005 0 -6689.07
0.0111802 0.00753241 0 -6787.74
0.011533 0.0077703 0 -6886.29
0.0118941 0.00801384 0 -6990.23
0.0122638 0.00826316 0 -7098.17
0.0126422 0.00851837 0 -7211.51
0.0130296 0.00877964 0 -7327.66
0.0134262 0.00904708 0 -7444.61
0.0138321 0.00932084 0 -7574.41
0.0142476 0.00960107 0 -7705.22
0.0146729 0.00988792 0 -7839.73
0.0151082 0.0101815 0 -7986.12
0.0155538 0.0104819 0 -8132.21
0.0160098 0.0107895 0 -8294.01
0.0164766 0.0111042 0 -8462.74
0.0169542 0.0114263 0 -8634.14
0.0174429 0.011756 0 -8822.86
0.0179431 0.0120934 0 -9018.99
0.018455 0.0124386 0 -9231.1
0.0189789 0.0127918 0 -9448.49
0.0195149 0.0131533 0 -9684.91
0.0200633 0.0135232 0 -9939.08
0.0206245 0.0139016 0 -10204.4
0.0211986 0.0142888 0 -10488.6
0.0217861 0.014685 0 -10795.3
0.022387 0.0150903 0 -11120.2
0.0230018 0.0155049 0 -11473.4
0.0236307 0.0159291 0 -11850.1
0.0242741 0.0163629 0 -12256.4
0.0249322 0.0168068 0 -12694.5
0.0256053 0.0172608 0 -13168.4
0.0262939 0.0177251 0 -13677.6
0.0269981 0.0182 0 -14231.9
0.0277183 0.0186857 0 -14834
0.0284548 0.0191825 0 -15492
0.029208 0.0196904 0 -16203.5
0.0299782 0.0202098 0 -16983.4
0.0307658 0.0207409 0 -17832.4
0.031571 0.021284 0 -18770.2
0.0323942 0.0218393 0 -19793.1
0.033236 0.0224069 0 -20922.5
0.0340965 0.0229872 0 -22173.8
0.0349762 0.0235805 0 -23554.7
0.0358753 0.0241869 0 -25087.4
0.0367944 0.0248067 0 -26802.6
0.0377338 0.0254403 0 -28722
0.0386938 0.0260877 0 -30890.7
0.039675 0.0267494 0 -33346.2
0.0406776 0.0274256 0 -36134.7
0.0417021 0.0281165 0 -39312.4
0.0427488 0.0288225 0 -42939.3
0.0438183 0.0295437 0 -47065.5
0.0449109 0.0302805 0 -51743.1
0.046027 0.0310332 0 -57056.4
0.0471671 0.0318021 0 -63000.9
0.0483315 0.0325874 0 -69561.8
0.0495209 0.0333895 0 -76766.2
0.0507354 0.0342086 0 -84561.8
0.0519756 0.035045 0 -92948.9
0.053242 0.0358991 0 -102060
0.054535 0.036771 0 -111808
0.0558549 0.0376613 0 -122011
0.0572024 0.03857 0 -132341
0.0585778 0.0394976 0 -142524
0.0599816 0.0404443 0 -152173
0.0614142 0.0414105 0 -159998
0.0628761 0.0423964 0 -165103
0.0643678 0.0434024 0 -166566
0.0658897 0.0444287 0 -163509
0.0674422 0.0454758 0 -157648
0.069026 0.0465439 0 -151377
0.0706413 0.0476333 0 -144128
0.0722886 0.0487443 0 -135502
0.0739685 0.0498771 0 -126331
0.0756813 0.0510323 0 -116271
0.0774275 0.05221 0 -106119
0.0792077 0.0534105 0 -96584.3
0.0810221 0.0546342 0 -88470.7
0.0828712 0.0558812 0 -81694.3
0.0847556 0.0571521 0 -75877.5
0.0866757 0.058447 0 -70956.8
0.0886318 0.0597661 0 -66901.1
0.0906244 0.06111 0 -63577.9
0.0926539 0.0624787 0 -60880.1
0.0947207 0.0638726 0 -58721.1
0.0968252 0.0652919 0 -56972.5
0.0989682 0.066737 0 -55061.9
0.101149 0.068208 0 -54342.6
0.103369 0.0697052 0 -54755.8
0.105629 0.0712289 0 -55466.8
0.107928 0.0727794 0 -54029.2
0.110267 0.0743568 0 -54153.2
0.112646 0.0759614 0 -53004.7
0.115066 0.0775934 0 -53546.8
0.117527 0.079253 0 -52575.1
0.120029 0.0809404 0 -52211.1
0.122572 0.0826558 0 -51536.8
0.125158 0.0843994 0 -50979.3
0.127785 0.0861713 0 -50407.2
0.130454 0.0879717 0 -50267.2
0.133167 0.0898008 0 -49999.8
0.135921 0.0916586 0 -49639
0.138719 0.0935453 0 -48500.8
0.141559 0.095461 0 -48423.8
0.144443 0.0974057 0 -46772.4
0.14737 0.0993798 0 -46611.9
0.15034 0.101383 0 -46725.8
0.153354 0.103415 0 -46065.2
0.156411 0.105477 0 -45695
0.159511 0.107568 0 -45944.5
0.162655 0.109688 0 -45090.9
0.165842 0.111837 0 -44756.2
0.169073 0.114016 0 -45606.3
0.172346 0.116223 0 -44301.4
0.175663 0.118461 0 -43040
0.179022 0.120727 0 -44018.7
0.182425 0.123021 0 -42366.3
0.18587 0.125344 0 -42040.3
0.189357 0.127696 0 -42162
0.192886 0.130076 0 -42453.1
0.196457 0.132484 0 -41824.5
0.200069 0.13492 0 -40719
0.203722 0.137384 0 -39365.3
0.207416 0.139875 0 -39643.6
0.21115 0.142393 0 -39305.3
0.214924 0.144938 0 -38827.7
0.218736 0.147509 0 -38805.3
0.222587 0.150107 0 -37116
0.226476 0.152729 0 -36611.7
0.230403 0.155377 0 -36129.6
0.234366 0.15805 0 -35652.5
0.238366 0.160748 0 -35100.2
0.242401 0.163469 0 -35200.5
0.24647 0.166214 0 -34432.1
0.250573 0.168981 0 -33220.9
0.25471 0.17177 0 -33266.1
0.258878 0.174582 0 -33570.2
0.263078 0.177414 0 -32544.6
0.267309 0.180266 0 -33604.5
0.271568 0.183139 0 -31547
0.275856 0.186031 0 -31494.9
0.280172 0.188942 0 -31434.8
0.284514 0.19187 0 -31712
0.288881 0.194815 0 -30619.2
0.293272 0.197777 0 -30183
0.297687 0.200754 0 -31297.4
0.302124 0.203746 0 -30141
0.306581 0.206752 0 -29860.4
0.311058 0.209772 0 -29528.8
0.315554 0.212804 0 -29619.9
0.320067 0.215847 0 -31138
0.324595 0.218901 0 -29559.6
0.329138 0.221965 0 -28359
0.333695 0.225038 0 -28548.4
0.338264 0.228119 0 -28384.7
0.342843 0.231208 0 -28041.9
0.347432 0.234302 0 -28141
0.352029 0.237402 0 -27954.4
0.356632 0.240507 0 -27910.7
0.361241 0.243616 0 -28291.8
0.365854 0.246727 0 -27801.3
0.370469 0.249839 0 -27354.9
0.375085 0.252953 0 -28131.9
0.379702 0.256066 0 -27450.6
0.384317 0.259178 0 -26729.2
0.388929 0.262289 0 -26858.4
0.393537 0.265396 0 -26650.8
0.398139 0.2685 0 -26471.5
0.402734 0.271598 0 -26341.1
0.407321 0.274692 0 -26184.3
0.411898 0.277779 0 -26319
0.416464 0.280858 0 -27122.9
0.421017 0.283929 0 -26937
0.425557 0.286991 0 -26554.8
0.430082 0.290042 0 -26300.6
0.434591 0.293083 0 -26253.6
0.439082 0.296112 0 -25750.6
0.443555 0.299128 0 -26334.1
0.448008 0.302131 0 -25508.2
0.45244 0.30512 0 -25675.6
0.456849 0.308094 0 -27215.9
0.461235 0.311052 0 -26142.3
0.465596 0.313993 0 -26721.7
0.469932 0.316917 0 -25175.2
0.474241 0.319823 0 -26161.1
0.478523 0.322711 0 -25482.8
0.482776 0.325579 0 -25330.3
0.486999 0.328427 0 -25110.8
0.491191 0.331254 0 -26080.5
0.495353 0.334061 0 -23900.9
