# y+ ()       
# Time        	patch         	min           	max           	average       
7900          	base	7.527513e-03	2.422889e+01	5.476842e+00
