# y+ ()       
# Time        	patch         	min           	max           	average       
12600         	base	6.981288e-03	2.374887e+01	5.507008e+00
