# p  FACE_DATA 80
# x  y  z  p
-0.275972 0 0.05 671.719
-0.22368 0 0.05 671.719
-0.181118 0 0.05 671.719
-0.146477 0 0.05 671.719
-0.118282 0 0.05 671.719
-0.095333 0 0.05 671.719
-0.0766546 0 0.05 671.719
-0.061452 0 0.05 671.719
-0.0490783 0 0.05 671.719
-0.0390072 0 0.05 671.719
-0.0308101 0 0.05 671.719
-0.0241383 0 0.05 671.719
-0.0187081 0 0.05 671.719
-0.0142883 0 0.05 671.719
-0.0106909 0 0.05 671.719
-0.00776298 0 0.05 671.719
-0.00537988 0 0.05 671.719
-0.00344023 0 0.05 671.719
-0.00186151 0 0.05 671.72
-0.000576564 0 0.05 669.995
0.000597823 0 0.05 1192.23
0.00183445 0 0.05 1018.99
0.00315586 0 0.05 884.243
0.00456785 0 0.05 841.081
0.00607663 0 0.05 800.479
0.00768885 0 0.05 777.675
0.00941159 0 0.05 762.929
0.0112524 0 0.05 751.952
0.0132195 0 0.05 744.346
0.0153213 0 0.05 737.676
0.0175673 0 0.05 732.779
0.0199673 0 0.05 728.003
0.0225317 0 0.05 724.335
0.025272 0 0.05 720.67
0.0282001 0 0.05 717.807
0.031329 0 0.05 715.166
0.0346723 0 0.05 712.655
0.0382448 0 0.05 710.711
0.0420623 0 0.05 708.881
0.0461414 0 0.05 707.447
0.0505002 0 0.05 706.13
0.0551578 0 0.05 705.17
0.0601347 0 0.05 704.359
0.0654528 0 0.05 703.008
0.0711354 0 0.05 701.148
0.0772076 0 0.05 698.929
0.0836961 0 0.05 696.513
0.0906293 0 0.05 694.429
0.0980379 0 0.05 692.926
0.105954 0 0.05 691.995
0.114413 0 0.05 691.332
0.123453 0 0.05 690.273
0.133111 0 0.05 689.128
0.143432 0 0.05 688.39
0.15446 0 0.05 688.2
0.166245 0 0.05 688.266
0.178837 0 0.05 688.482
0.192293 0 0.05 688.086
0.20667 0 0.05 687.792
0.222034 0 0.05 686.907
0.238451 0 0.05 686.295
0.255993 0 0.05 685.865
0.274738 0 0.05 685.478
0.294767 0 0.05 685.322
0.31617 0 0.05 684.617
0.33904 0 0.05 684.157
0.363478 0 0.05 683.533
0.389591 0 0.05 683.092
0.417495 0 0.05 682.701
0.447311 0 0.05 682.46
0.479171 0 0.05 682.114
0.513216 0 0.05 681.968
0.549594 0 0.05 681.501
0.588466 0 0.05 681.373
0.630002 0 0.05 680.957
0.674387 0 0.05 680.93
0.721814 0 0.05 680.558
0.772492 0 0.05 680.326
0.826644 0 0.05 680.199
0.884509 0 0.05 679.01
