# wallShearStress  FACE_DATA 80
# x  y  z  wallShearStress_x  wallShearStress_y  wallShearStress_z
-0.275972 0 0.05 -1.09136e-17 -7.49839e-14 0
-0.22368 0 0.05 1.06958e-17 -2.42696e-14 0
-0.181118 0 0.05 4.06455e-18 2.49461e-15 0
-0.146477 0 0.05 -1.62929e-18 1.756e-15 0
-0.118282 0 0.05 -1.9792e-17 -4.50911e-15 0
-0.095333 0 0.05 -1.13465e-17 -6.72976e-14 0
-0.0766546 0 0.05 3.09001e-17 -4.78701e-14 0
-0.061452 0 0.05 -1.5514e-17 6.53164e-15 0
-0.0490783 0 0.05 -4.58111e-17 -6.64394e-14 0
-0.0390072 0 0.05 -1.05714e-16 -7.60068e-14 0
-0.0308101 0 0.05 8.48845e-16 -1.97741e-13 0
-0.0241383 0 0.05 1.19304e-14 7.47817e-13 0
-0.0187081 0 0.05 8.14943e-14 9.66143e-12 0
-0.0142883 0 0.05 2.84842e-13 5.62426e-11 0
-0.0106909 0 0.05 -3.47163e-13 1.71484e-10 0
-0.00776298 0 0.05 3.64024e-12 -7.42422e-11 0
-0.00537988 0 0.05 1.06052e-11 1.4224e-09 0
-0.00344023 0 0.05 -7.3103e-08 -2.53986e-06 0
-0.00186151 0 0.05 -0.000428063 -0.000137483 0
-0.000576564 0 0.05 -0.0367188 -0.521225 0
0.000597823 0 0.05 -261.726 -26.0452 0
0.00183445 0 0.05 -91 -2.84024 0
0.00315586 0 0.05 -55.0089 -0.613664 0
0.00456785 0 0.05 -40.8087 -0.306689 0
0.00607663 0 0.05 -33.4217 -0.270598 0
0.00768885 0 0.05 -28.2544 -0.233277 0
0.00941159 0 0.05 -24.707 -0.215282 0
0.0112524 0 0.05 -22.0593 -0.208873 0
0.0132195 0 0.05 -19.999 -0.201875 0
0.0153213 0 0.05 -18.337 -0.195602 0
0.0175673 0 0.05 -16.9558 -0.186749 0
0.0199673 0 0.05 -15.7805 -0.179779 0
0.0225317 0 0.05 -14.7531 -0.173313 0
0.025272 0 0.05 -13.8405 -0.169706 0
0.0282001 0 0.05 -13.026 -0.160771 0
0.031329 0 0.05 -12.3078 -0.152088 0
0.0346723 0 0.05 -11.6494 -0.148183 0
0.0382448 0 0.05 -11.0568 -0.148088 0
0.0420623 0 0.05 -10.5262 -0.147283 0
0.0461414 0 0.05 -10.0433 -0.146618 0
0.0505002 0 0.05 -9.6103 -0.143224 0
0.0551578 0 0.05 -9.21213 -0.140786 0
0.0601347 0 0.05 -8.86231 -0.117679 0
0.0654528 0 0.05 -8.51348 -0.0861997 0
0.0711354 0 0.05 -8.12444 -0.0591043 0
0.0772076 0 0.05 -7.7142 -0.04437 0
0.0836961 0 0.05 -7.31147 -0.0479743 0
0.0906293 0 0.05 -6.94951 -0.0663419 0
0.0980379 0 0.05 -6.66082 -0.081729 0
0.105954 0 0.05 -6.44221 -0.0849269 0
0.114413 0 0.05 -6.25614 -0.0810862 0
0.123453 0 0.05 -6.06973 -0.0648586 0
0.133111 0 0.05 -5.84699 -0.0665987 0
0.143432 0 0.05 -5.64457 -0.0869399 0
0.15446 0 0.05 -5.49873 -0.09769 0
0.166245 0 0.05 -5.38212 -0.0939194 0
0.178837 0 0.05 -5.26581 -0.0838797 0
0.192293 0 0.05 -5.12872 -0.0729435 0
0.20667 0 0.05 -4.97429 -0.0610253 0
0.222034 0 0.05 -4.7994 -0.0630928 0
0.238451 0 0.05 -4.63387 -0.0608657 0
0.255993 0 0.05 -4.47958 -0.0702422 0
0.274738 0 0.05 -4.34731 -0.0665418 0
0.294767 0 0.05 -4.23413 -0.0524897 0
0.31617 0 0.05 -4.09016 -0.0611025 0
0.33904 0 0.05 -3.96762 -0.0484033 0
0.363478 0 0.05 -3.83615 -0.0517005 0
0.389591 0 0.05 -3.71355 -0.0496276 0
0.417495 0 0.05 -3.60065 -0.0488849 0
0.447311 0 0.05 -3.48698 -0.057136 0
0.479171 0 0.05 -3.39228 -0.047708 0
0.513216 0 0.05 -3.29262 -0.0465646 0
0.549594 0 0.05 -3.1936 -0.0450271 0
0.588466 0 0.05 -3.10181 -0.0453731 0
0.630002 0 0.05 -3.01017 -0.043834 0
0.674387 0 0.05 -2.9373 -0.0372848 0
0.721814 0 0.05 -2.85146 -0.0426311 0
0.772492 0 0.05 -2.77397 -0.0332164 0
0.826644 0 0.05 -2.69788 -0.0374047 0
0.884509 0 0.05 -2.64614 -0.0317665 0
