# wallHeatFlux  FACE_DATA 398
# x  y  z  wallHeatFlux
-0.7975 0 0.025 -653645
-0.79239 0 0.025 -120261
-0.787056 0 0.025 -69666.4
-0.781492 0 0.025 -57686
-0.775691 0 0.025 -52706.1
-0.769649 0 0.025 -53490.2
-0.763362 0 0.025 -54149.5
-0.756822 0 0.025 -53953
-0.750025 0 0.025 -53473.2
-0.742968 0 0.025 -52790.6
-0.735648 0 0.025 -51861.9
-0.72806 0 0.025 -50916.3
-0.720203 0 0.025 -49976.4
-0.712076 0 0.025 -49084.9
-0.703677 0 0.025 -48277.6
-0.695006 0 0.025 -47501.5
-0.686065 0 0.025 -46804.6
-0.676855 0 0.025 -46176.5
-0.667379 0 0.025 -45547.3
-0.65764 0 0.025 -45008.6
-0.647644 0 0.025 -44424.5
-0.637397 0 0.025 -43914
-0.626906 0 0.025 -43473.9
-0.616179 0 0.025 -42997.5
-0.605224 0 0.025 -42634.1
-0.594054 0 0.025 -42188.4
-0.582678 0 0.025 -41788.1
-0.57111 0 0.025 -41402.2
-0.559364 0 0.025 -41106.9
-0.547454 0 0.025 -40771.5
-0.535396 0 0.025 -40472.4
-0.523205 0 0.025 -40132.1
-0.510901 0 0.025 -39840.4
-0.4985 0 0.025 -39566.6
-0.486021 0 0.025 -39275.4
-0.473483 0 0.025 -39074
-0.460905 0 0.025 -38875.6
-0.448308 0 0.025 -38595.8
-0.435709 0 0.025 -38325.2
-0.42313 0 0.025 -38073.7
-0.41059 0 0.025 -37853.5
-0.39811 0 0.025 -37675.1
-0.385706 0 0.025 -37570.4
-0.373398 0 0.025 -37406.5
-0.361205 0 0.025 -37193.4
-0.349141 0 0.025 -36957.1
-0.337226 0 0.025 -36753
-0.325475 0 0.025 -36596.8
-0.313901 0 0.025 -36467.3
-0.30252 0 0.025 -36347.9
-0.291343 0 0.025 -36240.2
-0.280382 0 0.025 -36148.5
-0.269646 0 0.025 -36061.4
-0.259148 0 0.025 -35969.4
-0.248893 0 0.025 -35868
-0.23889 0 0.025 -35734.9
-0.229143 0 0.025 -35590.7
-0.219659 0 0.025 -35437.2
-0.210441 0 0.025 -35272.9
-0.201491 0 0.025 -35111.1
-0.192812 0 0.025 -34963.7
-0.184405 0 0.025 -34846.6
-0.176269 0 0.025 -34770.9
-0.168404 0 0.025 -34723.3
-0.160808 0 0.025 -34718.6
-0.15348 0 0.025 -34732.4
-0.146415 0 0.025 -34757.4
-0.13961 0 0.025 -34786.8
-0.133063 0 0.025 -34812.4
-0.126767 0 0.025 -34822.6
-0.120718 0 0.025 -34817.2
-0.11491 0 0.025 -34791
-0.109339 0 0.025 -34743.9
-0.103997 0 0.025 -34685.5
-0.0988805 0 0.025 -34614.4
-0.0939808 0 0.025 -34530.4
-0.0892928 0 0.025 -34442.2
-0.0848096 0 0.025 -34354.1
-0.0805248 0 0.025 -34261
-0.0764316 0 0.025 -34178.8
-0.0725237 0 0.025 -34102
-0.0687943 0 0.025 -34031.1
-0.065237 0 0.025 -33965.1
-0.0618454 0 0.025 -33905.2
-0.058613 0 0.025 -33855.4
-0.0555337 0 0.025 -33811.7
-0.0526013 0 0.025 -33772.9
-0.0498099 0 0.025 -33739.6
-0.0471536 0 0.025 -33717.1
-0.0446266 0 0.025 -33694.6
-0.0422235 0 0.025 -33677.5
-0.039939 0 0.025 -33660.3
-0.0377676 0 0.025 -33642.9
-0.0357044 0 0.025 -33599.5
-0.0337445 0 0.025 -35259.6
-0.0318832 0 0.025 -38898.2
-0.0301159 0 0.025 -54583.3
-0.0284383 0 0.025 -63656.4
-0.0268461 0 0.025 -67519.8
-0.0253353 0 0.025 -69839.7
-0.023902 0 0.025 -71908.2
-0.0225426 0 0.025 -73633
-0.0212532 0 0.025 -74899.7
-0.0200306 0 0.025 -76024.4
-0.0188715 0 0.025 -77263.3
-0.0177728 0 0.025 -78674.3
-0.0167313 0 0.025 -80075.2
-0.0157444 0 0.025 -81535.7
-0.0148092 0 0.025 -82920.3
-0.0139232 0 0.025 -84106.2
-0.0130838 0 0.025 -85109
-0.0122887 0 0.025 -85953.1
-0.0115356 0 0.025 -86712
-0.0108223 0 0.025 -87430.6
-0.0101469 0 0.025 -88144.6
-0.00950727 0 0.025 -88892.3
-0.00890168 0 0.025 -89694.9
-0.00832835 0 0.025 -90579.6
-0.00778557 0 0.025 -91552
-0.00727176 0 0.025 -92628.9
-0.0067854 0 0.025 -93830.9
-0.00632507 0 0.025 -95160.7
-0.00588937 0 0.025 -96638.1
-0.00547703 0 0.025 -98275.8
-0.0050868 0 0.025 -100101
-0.00471753 0 0.025 -102127
-0.0043681 0 0.025 -104357
-0.00403746 0 0.025 -106786
-0.00372461 0 0.025 -109446
-0.0034286 0 0.025 -112350
-0.00314855 0 0.025 -115452
-0.0028836 0 0.025 -118652
-0.00263294 0 0.025 -122020
-0.00239581 0 0.025 -125648
-0.0021715 0 0.025 -129500
-0.00195929 0 0.025 -133561
-0.00175856 0 0.025 -137846
-0.00156869 0 0.025 -142382
-0.00138908 0 0.025 -147192
-0.0012192 0 0.025 -152233
-0.00105853 0 0.025 -157374
-0.000906546 0 0.025 -162502
-0.000762803 0 0.025 -167231
-0.000626848 0 0.025 -170945
-0.000498265 0 0.025 -171722
-0.000376656 0 0.025 -167041
-0.000261642 0 0.025 -154090
-0.00015287 0 0.025 -129892
-5e-05 0 0.025 -77634.9
4.14519e-05 2.79596e-05 0.025 -48427.7
0.000125371 8.45641e-05 0.025 -54896
0.000211347 0.000142556 0.025 -65534.8
0.000299429 0.000201968 0.025 -73222.1
0.000389669 0.000262835 0.025 -79433
0.000482118 0.000325193 0.025 -86250.7
0.000576831 0.000389077 0.025 -93813.9
0.000673861 0.000454524 0.025 -101421
0.000773265 0.000521574 0.025 -108608
0.0008751 0.000590262 0.025 -115197
0.000979426 0.000660632 0.025 -121142
0.0010863 0.000732721 0.025 -126450
0.00119579 0.000806572 0.025 -131171
0.00130795 0.000882227 0.025 -135424
0.00142285 0.00095973 0.025 -139264
0.00154056 0.00103912 0.025 -142916
0.00166115 0.00112046 0.025 -146304
0.00178467 0.00120378 0.025 -149547
0.00191121 0.00128913 0.025 -152700
0.00204083 0.00137656 0.025 -155789
0.00217362 0.00146612 0.025 -158857
0.00230964 0.00155787 0.025 -161946
0.00244897 0.00165185 0.025 -165091
0.00259169 0.00174812 0.025 -168246
0.00273789 0.00184673 0.025 -171485
0.00288765 0.00194774 0.025 -174848
0.00304105 0.00205122 0.025 -178302
0.00319818 0.00215719 0.025 -181881
0.00335912 0.00226575 0.025 -185643
0.00352397 0.00237695 0.025 -189528
0.00369283 0.00249085 0.025 -193609
0.00386579 0.00260751 0.025 -197860
0.00404294 0.00272699 0.025 -202344
0.00422438 0.00284938 0.025 -207069
0.00441022 0.00297474 0.025 -212040
0.00460056 0.00310312 0.025 -217266
0.00479552 0.00323462 0.025 -222771
0.00499519 0.0033693 0.025 -228672
0.00519968 0.00350723 0.025 -234841
0.00540911 0.00364849 0.025 -241420
0.00562361 0.00379318 0.025 -248392
0.00584329 0.00394134 0.025 -255782
0.00606826 0.00409309 0.025 -263736
0.00629865 0.00424849 0.025 -272132
0.0065346 0.00440764 0.025 -281148
0.00677623 0.00457063 0.025 -290813
0.00702368 0.00473753 0.025 -301113
0.00727707 0.00490844 0.025 -312249
0.00753655 0.00508347 0.025 -324135
0.00780227 0.00526269 0.025 -336925
0.00807436 0.00544622 0.025 -350684
0.00835298 0.00563415 0.025 -365530
0.00863826 0.00582659 0.025 -381609
0.00893038 0.00602362 0.025 -398967
0.00922949 0.00622537 0.025 -417714
0.00953574 0.00643195 0.025 -437796
0.00984929 0.00664345 0.025 -460239
0.0101703 0.00686 0.025 -483969
0.0104991 0.00708171 0.025 -510591
0.0108356 0.00730871 0.025 -539397
0.0111801 0.0075411 0.025 -573239
0.0115329 0.00777902 0.025 -607451
0.011894 0.00802259 0.025 -647407
0.0122637 0.00827194 0.025 -697524
0.0126421 0.00852719 0.025 -747042
0.0130295 0.0087885 0.025 -795787
0.013426 0.00905597 0.025 -850477
0.013832 0.00932978 0.025 -905133
0.0142475 0.00961003 0.025 -961370
0.0146727 0.0098969 0.025 -1.01985e+06
0.0151081 0.0101905 0.025 -1.07984e+06
0.0155536 0.010491 0.025 -1.14211e+06
0.0160097 0.0107986 0.025 -1.2015e+06
0.0164764 0.0111134 0.025 -1.26562e+06
0.016954 0.0114356 0.025 -1.3337e+06
0.0174427 0.0117653 0.025 -1.39475e+06
0.0179429 0.0121026 0.025 -1.45539e+06
0.0184548 0.0124479 0.025 -1.52257e+06
0.0189786 0.0128013 0.025 -1.57076e+06
0.0195146 0.0131628 0.025 -1.62231e+06
0.020063 0.0135327 0.025 -1.68242e+06
0.0206242 0.0139112 0.025 -1.71799e+06
0.0211983 0.0142984 0.025 -1.74176e+06
0.0217857 0.0146947 0.025 -1.77378e+06
0.0223867 0.0151 0.025 -1.80033e+06
0.0230015 0.0155147 0.025 -1.82111e+06
0.0236304 0.0159389 0.025 -1.84746e+06
0.0242738 0.0163729 0.025 -1.84554e+06
0.0249318 0.0168167 0.025 -1.85933e+06
0.025605 0.0172708 0.025 -1.87043e+06
0.0262935 0.0177352 0.025 -1.84878e+06
0.0269977 0.0182102 0.025 -1.82195e+06
0.0277178 0.0186959 0.025 -1.77954e+06
0.0284544 0.0191927 0.025 -1.79039e+06
0.0292075 0.0197008 0.025 -1.69647e+06
0.0299777 0.0202203 0.025 -1.62902e+06
0.0307653 0.0207514 0.025 -1.57167e+06
0.0315704 0.0212945 0.025 -1.51624e+06
0.0323937 0.0218499 0.025 -1.4668e+06
0.0332354 0.0224176 0.025 -1.42185e+06
0.0340959 0.022998 0.025 -1.38243e+06
0.0349755 0.0235913 0.025 -1.33912e+06
0.0358747 0.0241978 0.025 -1.32097e+06
0.0367938 0.0248178 0.025 -1.27751e+06
0.0377331 0.0254513 0.025 -1.24228e+06
0.0386932 0.0260989 0.025 -1.21405e+06
0.0396743 0.0267606 0.025 -1.19326e+06
0.0406769 0.0274369 0.025 -1.17776e+06
0.0417013 0.0281279 0.025 -1.15783e+06
0.042748 0.0288339 0.025 -1.14969e+06
0.0438175 0.0295552 0.025 -1.13262e+06
0.04491 0.0302922 0.025 -1.11759e+06
0.0460262 0.031045 0.025 -1.11848e+06
0.0471662 0.031814 0.025 -1.12221e+06
0.0483306 0.0325995 0.025 -1.11257e+06
0.0495199 0.0334016 0.025 -1.11104e+06
0.0507344 0.0342208 0.025 -1.10739e+06
0.0519746 0.0350573 0.025 -1.10373e+06
0.0532409 0.0359114 0.025 -1.10642e+06
0.0545339 0.0367835 0.025 -1.09833e+06
0.0558538 0.0376739 0.025 -1.09525e+06
0.0572012 0.0385827 0.025 -1.09306e+06
0.0585766 0.0395104 0.025 -1.09307e+06
0.0599804 0.0404573 0.025 -1.09964e+06
0.061413 0.0414236 0.025 -1.09109e+06
0.0628748 0.0424096 0.025 -1.10881e+06
0.0643665 0.0434157 0.025 -1.10827e+06
0.0658883 0.0444422 0.025 -1.0883e+06
0.0674408 0.0454894 0.025 -1.07591e+06
0.0690245 0.0465576 0.025 -1.07458e+06
0.0706398 0.0476471 0.025 -1.0733e+06
0.0722871 0.0487582 0.025 -1.07416e+06
0.0739669 0.0498912 0.025 -1.07258e+06
0.0756797 0.0510466 0.025 -1.07559e+06
0.0774258 0.0522244 0.025 -1.07877e+06
0.0792059 0.053425 0.025 -1.06932e+06
0.0810203 0.0546489 0.025 -1.08347e+06
0.0828694 0.0558961 0.025 -1.06336e+06
0.0847537 0.0571671 0.025 -1.092e+06
0.0866737 0.0584622 0.025 -1.06623e+06
0.0886298 0.0597816 0.025 -1.06302e+06
0.0906224 0.0611256 0.025 -1.06766e+06
0.0926518 0.0624944 0.025 -1.04123e+06
0.0947185 0.0638884 0.025 -1.07081e+06
0.096823 0.065308 0.025 -1.04204e+06
0.0989659 0.0667532 0.025 -1.10309e+06
0.101147 0.0682245 0.025 -1.33245e+06
0.103367 0.0697219 0.025 -1.27881e+06
0.105626 0.0712458 0.025 -1.01035e+06
0.107926 0.0727965 0.025 -1.0118e+06
0.110265 0.074374 0.025 -1.02963e+06
0.112644 0.0759789 0.025 -1.39594e+06
0.115063 0.0776111 0.025 -1.02443e+06
0.117524 0.0792709 0.025 -1.31146e+06
0.120026 0.0809585 0.025 -1.41398e+06
0.122569 0.0826741 0.025 -1.29476e+06
0.125155 0.0844179 0.025 -1.19264e+06
0.127782 0.0861901 0.025 -1.06606e+06
0.130451 0.0879908 0.025 -1.03797e+06
0.133163 0.08982 0.025 -1.01687e+06
0.135918 0.0916781 0.025 -994680
0.138716 0.0935651 0.025 -993004
0.141556 0.095481 0.025 -996664
0.14444 0.097426 0.025 -1.23504e+06
0.147367 0.0994004 0.025 -1.69466e+06
0.150337 0.101404 0.025 -1.33818e+06
0.153351 0.103437 0.025 -1.32996e+06
0.156408 0.105498 0.025 -1.67259e+06
0.159508 0.107589 0.025 -868316
0.162651 0.10971 0.025 -1.18659e+06
0.165838 0.111859 0.025 -2.27608e+06
0.169069 0.114039 0.025 -1.47249e+06
0.172343 0.116247 0.025 -1.46728e+06
0.175659 0.118483 0.025 -1.44917e+06
0.179018 0.120749 0.025 -1.4446e+06
0.182421 0.123045 0.025 -1.46247e+06
0.185866 0.125368 0.025 -1.34073e+06
0.189353 0.12772 0.025 -1.34947e+06
0.192882 0.1301 0.025 -1.41245e+06
0.196453 0.132509 0.025 -1.34303e+06
0.200065 0.134946 0.025 -1.6121e+06
0.203718 0.13741 0.025 -1.51611e+06
0.207412 0.139901 0.025 -772155
0.211146 0.14242 0.025 -818466
0.214919 0.144965 0.025 -1.27038e+06
0.218732 0.147537 0.025 -840051
0.222583 0.150134 0.025 -1.49963e+06
0.226472 0.152757 0.025 -818425
0.230399 0.155406 0.025 -1.29233e+06
0.234362 0.15808 0.025 -1.27337e+06
0.238362 0.160777 0.025 -1.78026e+06
0.242396 0.163498 0.025 -1.54926e+06
0.246466 0.166244 0.025 -1.6215e+06
0.250569 0.169012 0.025 -778481
0.254706 0.171801 0.025 -1.20213e+06
0.258874 0.174613 0.025 -1.25527e+06
0.263074 0.177446 0.025 -1.47729e+06
0.267304 0.180299 0.025 -1.17406e+06
0.271564 0.183172 0.025 -785796
0.275852 0.186064 0.025 -1.18268e+06
0.280168 0.188975 0.025 -774087
0.28451 0.191904 0.025 -1.19834e+06
0.288876 0.19485 0.025 -1.63737e+06
0.293268 0.197812 0.025 -1.16692e+06
0.297683 0.20079 0.025 -1.45205e+06
0.302119 0.203782 0.025 -1.57023e+06
0.306577 0.206788 0.025 -1.16169e+06
0.311054 0.209808 0.025 -1.18518e+06
0.315549 0.212841 0.025 -989860
0.320063 0.215885 0.025 -1.49095e+06
0.324591 0.218939 0.025 -1.09268e+06
0.329134 0.222003 0.025 -1.12736e+06
0.333691 0.225077 0.025 -1.64195e+06
0.33826 0.228159 0.025 -1.39023e+06
0.342839 0.231248 0.025 -1.41087e+06
0.347428 0.234343 0.025 -717606
0.352025 0.237444 0.025 -1.37928e+06
0.356628 0.240548 0.025 -1.05433e+06
0.361237 0.243658 0.025 -986969
0.36585 0.246769 0.025 -1.76823e+06
0.370465 0.249882 0.025 -940317
0.375082 0.252996 0.025 -1.19493e+06
0.379698 0.25611 0.025 -1.71476e+06
0.384313 0.259223 0.025 -1.12446e+06
0.388926 0.262333 0.025 -1.29671e+06
0.393534 0.265442 0.025 -1.08424e+06
0.398136 0.268546 0.025 -747139
0.40273 0.271645 0.025 -1.25877e+06
0.407317 0.274739 0.025 -1.15697e+06
0.411894 0.277826 0.025 -1.51684e+06
0.41646 0.280906 0.025 -696501
0.421014 0.283977 0.025 -1.08401e+06
0.425554 0.28704 0.025 -1.39701e+06
0.430079 0.290092 0.025 -1.16887e+06
0.434588 0.293133 0.025 -1.36015e+06
0.439079 0.296162 0.025 -978045
0.443551 0.299179 0.025 -1.15441e+06
0.448004 0.302183 0.025 -1.248e+06
0.452437 0.305172 0.025 -1.23188e+06
0.456846 0.308146 0.025 -1.20234e+06
0.461232 0.311105 0.025 -1.21838e+06
0.465593 0.314047 0.025 -1.1036e+06
0.469929 0.316971 0.025 -1.35448e+06
0.474238 0.319878 0.025 -867756
0.47852 0.322766 0.025 -912470
0.482773 0.325635 0.025 -719405
0.486996 0.328483 0.025 -1.02774e+06
0.491189 0.331311 0.025 -1.43575e+06
0.49535 0.334118 0.025 -976513
