/*--------------------------------*- C++ -*----------------------------------*\
| =========                 |                                                 |
| \\      /  F ield         | OpenFOAM: The Open Source CFD Toolbox           |
|  \\    /   O peration     | Version:  v2012                                 |
|   \\  /    A nd           | Website:  www.openfoam.com                      |
|    \\/     M anipulation  |                                                 |
\*---------------------------------------------------------------------------*/
FoamFile
{
    version     2.0;
    format      ascii;
    class       volScalarField;
    location    "0";
    object      V;
}
// * * * * * * * * * * * * * * * * * * * * * * * * * * * * * * * * * * * * * //

dimensions      [0 3 0 0 0 0 0];


internalField   nonuniform List<scalar> 
53312
(
6.99803e-11
7.12693e-11
7.04632e-11
7.24215e-11
7.19393e-11
7.11825e-11
7.34857e-11
7.31085e-11
7.27961e-11
7.21598e-11
7.44682e-11
7.40812e-11
7.39853e-11
7.38797e-11
7.34106e-11
7.54901e-11
7.48451e-11
7.49007e-11
7.5088e-11
7.52187e-11
7.49495e-11
7.6532e-11
7.56976e-11
7.55181e-11
7.59696e-11
7.6452e-11
7.68339e-11
7.67876e-11
7.75705e-11
7.65794e-11
7.62617e-11
7.64906e-11
7.73177e-11
7.80934e-11
7.87445e-11
7.89369e-11
7.86396e-11
7.75041e-11
7.70335e-11
7.71586e-11
7.77762e-11
7.89559e-11
8.0036e-11
8.09649e-11
8.14091e-11
7.96968e-11
7.84684e-11
7.78887e-11
7.78725e-11
7.8398e-11
7.93872e-11
8.09059e-11
8.22901e-11
8.35105e-11
8.4214e-11
8.07417e-11
7.94306e-11
7.87873e-11
7.86799e-11
7.90775e-11
7.99645e-11
8.13257e-11
8.31754e-11
8.48761e-11
8.64035e-11
8.73719e-11
8.1822e-11
8.03892e-11
7.96895e-11
7.95395e-11
7.98588e-11
8.06356e-11
8.18729e-11
8.35901e-11
8.57834e-11
8.77913e-11
8.9652e-11
9.08886e-11
8.28678e-11
8.13856e-11
8.05944e-11
8.04083e-11
8.06988e-11
8.14068e-11
8.25503e-11
8.41372e-11
8.62007e-11
8.87393e-11
9.10631e-11
9.32616e-11
9.47807e-11
8.39146e-11
8.23505e-11
8.15406e-11
8.12838e-11
8.15513e-11
8.22422e-11
8.3323e-11
8.48193e-11
8.67571e-11
8.9169e-11
9.20533e-11
9.47214e-11
9.72491e-11
9.90694e-11
8.49624e-11
8.33187e-11
8.24559e-11
8.22013e-11
8.24136e-11
8.30925e-11
8.41642e-11
8.56132e-11
8.74541e-11
8.97396e-11
9.25048e-11
9.57508e-11
9.87672e-11
1.0164e-10
1.03769e-10
8.59906e-11
8.42893e-11
8.33755e-11
8.30905e-11
8.33198e-11
8.39548e-11
8.50225e-11
8.64511e-11
8.8276e-11
9.04657e-11
9.31015e-11
9.62258e-11
9.98455e-11
1.03227e-10
1.06452e-10
1.08904e-10
8.70166e-11
8.52373e-11
8.42997e-11
8.39851e-11
8.41977e-11
8.48625e-11
8.58943e-11
8.73352e-11
8.91159e-11
9.12956e-11
9.38649e-11
9.6848e-11
1.0035e-10
1.04326e-10
1.08121e-10
1.1171e-10
1.14486e-10
8.80251e-11
8.61798e-11
8.51994e-11
8.48838e-11
8.50815e-11
8.57418e-11
8.6813e-11
8.82249e-11
9.00346e-11
9.21772e-11
9.47011e-11
9.76446e-11
1.01004e-10
1.04878e-10
1.09267e-10
1.1344e-10
1.17426e-10
1.20557e-10
8.90159e-11
8.71048e-11
8.6092e-11
8.57572e-11
8.59714e-11
8.66278e-11
8.77025e-11
8.9163e-11
9.09489e-11
9.31271e-11
9.56206e-11
9.85202e-11
1.0184e-10
1.05581e-10
1.0985e-10
1.14651e-10
1.19231e-10
1.23632e-10
1.27122e-10
9.00233e-11
8.80124e-11
8.69671e-11
8.66225e-11
8.68347e-11
8.75198e-11
8.85996e-11
9.00718e-11
9.19127e-11
9.40716e-11
9.66087e-11
9.94865e-11
1.02757e-10
1.06458e-10
1.10598e-10
1.15257e-10
1.20506e-10
1.25509e-10
1.30345e-10
1.34234e-10
9.09782e-11
8.89357e-11
8.78242e-11
8.74689e-11
8.76879e-11
8.8384e-11
8.9504e-11
9.09883e-11
9.28461e-11
9.50684e-11
9.75925e-11
1.00514e-10
1.03768e-10
1.07419e-10
1.11524e-10
1.16074e-10
1.21171e-10
1.26852e-10
1.32311e-10
1.37591e-10
1.41913e-10
9.19502e-11
8.98062e-11
8.86961e-11
8.82978e-11
8.85229e-11
8.92382e-11
9.03795e-11
9.19114e-11
9.37882e-11
9.60335e-11
9.86294e-11
1.01539e-10
1.0485e-10
1.08482e-10
1.12539e-10
1.17052e-10
1.22044e-10
1.27572e-10
1.33733e-10
1.39651e-10
1.45399e-10
1.50168e-10
9.28874e-11
9.06932e-11
8.95154e-11
8.91422e-11
8.93404e-11
9.00742e-11
9.12432e-11
9.28051e-11
9.47383e-11
9.70063e-11
9.96322e-11
1.02619e-10
1.05922e-10
1.09615e-10
1.13659e-10
1.18128e-10
1.23081e-10
1.28513e-10
1.34517e-10
1.4115e-10
1.47573e-10
1.53835e-10
1.59056e-10
9.38238e-11
9.15458e-11
9.03511e-11
8.99329e-11
9.01639e-11
9.08915e-11
9.20792e-11
9.36782e-11
9.56574e-11
9.7988e-11
1.00645e-10
1.03667e-10
1.07051e-10
1.10749e-10
1.14854e-10
1.19316e-10
1.24221e-10
1.29615e-10
1.35521e-10
1.42035e-10
1.49162e-10
1.561e-10
1.62909e-10
1.68597e-10
9.47422e-11
9.23967e-11
9.11526e-11
9.07403e-11
9.09594e-11
9.17063e-11
9.29245e-11
9.45411e-11
9.65449e-11
9.8928e-11
1.01658e-10
1.04723e-10
1.08141e-10
1.11937e-10
1.1604e-10
1.20577e-10
1.25477e-10
1.30824e-10
1.36698e-10
1.43103e-10
1.5014e-10
1.57777e-10
1.65276e-10
1.72674e-10
1.78854e-10
9.56261e-11
9.32202e-11
9.19514e-11
9.15135e-11
9.17459e-11
9.25191e-11
9.37398e-11
9.54132e-11
9.74512e-11
9.98656e-11
1.02644e-10
1.05762e-10
1.09243e-10
1.13084e-10
1.17294e-10
1.21833e-10
1.2681e-10
1.32155e-10
1.37986e-10
1.44337e-10
1.51274e-10
1.58854e-10
1.6705e-10
1.7512e-10
1.83173e-10
1.8985e-10
9.64928e-11
9.40267e-11
9.27139e-11
9.22829e-11
9.25059e-11
9.3287e-11
9.45622e-11
9.62364e-11
9.83382e-11
1.00793e-10
1.03627e-10
1.06815e-10
1.10336e-10
1.14243e-10
1.18504e-10
1.23151e-10
1.28136e-10
1.33576e-10
1.39404e-10
1.45725e-10
1.52576e-10
1.60081e-10
1.68226e-10
1.77012e-10
1.85709e-10
1.94393e-10
2.01652e-10
9.73596e-11
9.48164e-11
9.34764e-11
9.30156e-11
9.3263e-11
9.40641e-11
9.53305e-11
9.70662e-11
9.91845e-11
1.01701e-10
1.04581e-10
1.07834e-10
1.11439e-10
1.15387e-10
1.19709e-10
1.24409e-10
1.2953e-10
1.34986e-10
1.40909e-10
1.47234e-10
1.54075e-10
1.61477e-10
1.69555e-10
1.78287e-10
1.87703e-10
1.97041e-10
2.06442e-10
2.14288e-10
9.81836e-11
9.55898e-11
9.42231e-11
9.37492e-11
9.39826e-11
9.48026e-11
9.61247e-11
9.78675e-11
1.00028e-10
1.02596e-10
1.05514e-10
1.08829e-10
1.12503e-10
1.16537e-10
1.20935e-10
1.25693e-10
1.30847e-10
1.36455e-10
1.424e-10
1.48831e-10
1.55688e-10
1.63077e-10
1.71049e-10
1.79743e-10
1.89075e-10
1.99158e-10
2.09203e-10
2.19331e-10
2.2782e-10
9.89992e-11
9.63218e-11
9.49281e-11
9.44578e-11
9.47021e-11
9.55375e-11
9.68708e-11
9.86606e-11
1.00872e-10
1.03459e-10
1.06463e-10
1.09799e-10
1.13541e-10
1.17652e-10
1.22136e-10
1.27001e-10
1.32234e-10
1.37846e-10
1.43964e-10
1.50419e-10
1.57391e-10
1.64788e-10
1.72763e-10
1.81368e-10
1.90677e-10
2.00673e-10
2.1145e-10
2.22215e-10
2.33138e-10
2.42316e-10
9.97981e-11
9.70711e-11
9.56254e-11
9.5142e-11
9.53885e-11
9.62474e-11
9.76141e-11
9.94406e-11
1.01678e-10
1.04331e-10
1.07352e-10
1.10781e-10
1.14562e-10
1.18748e-10
1.23316e-10
1.28262e-10
1.33606e-10
1.39315e-10
1.45446e-10
1.52083e-10
1.5908e-10
1.66602e-10
1.74601e-10
1.83157e-10
1.92446e-10
2.0241e-10
2.13114e-10
2.246e-10
2.36156e-10
2.47914e-10
2.57817e-10
1.00563e-10
9.77711e-11
9.63159e-11
9.58187e-11
9.60761e-11
9.69318e-11
9.83308e-11
1.0018e-10
1.0248e-10
1.05165e-10
1.08248e-10
1.11725e-10
1.1558e-10
1.19816e-10
1.24455e-10
1.29487e-10
1.34928e-10
1.40766e-10
1.46995e-10
1.53646e-10
1.6084e-10
1.68404e-10
1.76535e-10
1.85136e-10
1.94321e-10
2.04305e-10
2.14998e-10
2.2643e-10
2.38693e-10
2.51093e-10
2.63715e-10
2.74428e-10
1.01304e-10
9.84733e-11
9.69659e-11
9.64638e-11
9.67313e-11
9.76091e-11
9.90314e-11
1.00921e-10
1.03241e-10
1.05984e-10
1.09136e-10
1.12639e-10
1.16584e-10
1.20882e-10
1.25606e-10
1.30696e-10
1.36205e-10
1.4217e-10
1.48524e-10
1.55292e-10
1.62506e-10
1.70268e-10
1.7845e-10
1.87201e-10
1.96484e-10
2.06319e-10
2.17042e-10
2.28479e-10
2.40735e-10
2.53768e-10
2.67078e-10
2.80624e-10
2.92212e-10
1.02036e-10
9.91268e-11
9.76111e-11
9.7103e-11
9.73548e-11
9.82708e-11
9.96978e-11
1.01636e-10
1.04003e-10
1.06791e-10
1.09967e-10
1.13576e-10
1.17553e-10
1.21926e-10
1.26719e-10
1.31909e-10
1.37518e-10
1.43527e-10
1.49994e-10
1.56925e-10
1.64258e-10
1.72073e-10
1.8041e-10
1.89246e-10
1.98649e-10
2.0866e-10
2.19229e-10
2.30678e-10
2.42928e-10
2.56006e-10
2.69884e-10
2.84108e-10
2.9868e-10
3.11167e-10
1.02718e-10
9.97741e-11
9.82351e-11
9.77034e-11
9.79892e-11
9.89001e-11
1.00375e-10
1.02324e-10
1.04728e-10
1.0756e-10
1.10816e-10
1.1446e-10
1.18509e-10
1.22968e-10
1.2781e-10
1.33097e-10
1.38777e-10
1.44912e-10
1.51469e-10
1.58476e-10
1.65965e-10
1.73915e-10
1.82377e-10
1.91338e-10
2.00851e-10
2.1093e-10
2.2168e-10
2.33052e-10
2.45267e-10
2.58385e-10
2.72314e-10
2.87125e-10
3.02303e-10
3.17982e-10
3.31438e-10
1.03384e-10
1.0039e-10
9.88188e-11
9.83082e-11
9.85853e-11
9.95154e-11
1.01011e-10
1.02997e-10
1.05446e-10
1.0833e-10
1.11619e-10
1.15327e-10
1.19451e-10
1.23966e-10
1.28896e-10
1.34244e-10
1.4004e-10
1.46245e-10
1.52928e-10
1.60067e-10
1.6764e-10
1.7572e-10
1.84322e-10
1.93428e-10
2.03082e-10
2.1331e-10
2.24127e-10
2.35627e-10
2.47839e-10
2.60881e-10
2.74933e-10
2.89787e-10
3.05558e-10
3.21824e-10
3.38611e-10
3.53092e-10
1.04033e-10
1.00991e-10
9.93973e-11
9.88749e-11
9.91606e-11
1.00118e-10
1.0164e-10
1.03655e-10
1.06138e-10
1.09055e-10
1.12421e-10
1.16177e-10
1.20348e-10
1.24949e-10
1.2996e-10
1.35375e-10
1.4125e-10
1.47573e-10
1.54337e-10
1.61576e-10
1.69318e-10
1.77542e-10
1.86239e-10
1.95494e-10
2.05315e-10
2.15688e-10
2.26666e-10
2.38273e-10
2.50599e-10
2.63683e-10
2.77622e-10
2.92637e-10
3.0848e-10
3.25222e-10
3.42689e-10
3.60684e-10
3.7623e-10
1.0465e-10
1.01563e-10
9.99553e-11
9.94199e-11
9.97234e-11
1.00691e-10
1.02231e-10
1.04299e-10
1.06825e-10
1.09792e-10
1.13182e-10
1.16994e-10
1.21237e-10
1.25903e-10
1.30988e-10
1.36507e-10
1.42463e-10
1.48869e-10
1.55746e-10
1.63105e-10
1.70913e-10
1.79289e-10
1.88174e-10
1.97541e-10
2.0752e-10
2.18062e-10
2.29211e-10
2.4099e-10
2.53436e-10
2.66645e-10
2.80636e-10
2.95552e-10
3.11576e-10
3.28507e-10
3.46277e-10
3.64896e-10
3.84259e-10
4.00977e-10
1.05233e-10
1.02102e-10
1.00484e-10
9.99444e-11
1.00257e-10
1.01252e-10
1.0282e-10
1.04902e-10
1.07468e-10
1.10483e-10
1.13927e-10
1.17809e-10
1.22109e-10
1.26839e-10
1.31995e-10
1.37617e-10
1.4365e-10
1.5017e-10
1.5712e-10
1.64587e-10
1.72557e-10
1.81017e-10
1.90013e-10
1.99608e-10
2.09695e-10
2.20395e-10
2.31748e-10
2.43707e-10
2.5634e-10
2.69678e-10
2.8381e-10
2.98791e-10
3.14754e-10
3.3179e-10
3.49875e-10
3.68804e-10
3.88656e-10
4.0933e-10
4.27449e-10
1.05784e-10
1.02628e-10
1.00983e-10
1.00457e-10
1.00777e-10
1.01783e-10
1.03387e-10
1.05502e-10
1.08098e-10
1.11159e-10
1.14656e-10
1.18594e-10
1.22953e-10
1.27749e-10
1.32992e-10
1.38668e-10
1.44807e-10
1.51397e-10
1.5848e-10
1.66053e-10
1.74129e-10
1.82731e-10
1.91895e-10
2.01569e-10
2.11875e-10
2.22764e-10
2.34207e-10
2.46415e-10
2.59243e-10
2.72779e-10
2.8706e-10
3.02193e-10
3.18168e-10
3.35296e-10
3.53446e-10
3.7265e-10
3.92801e-10
4.14088e-10
4.36106e-10
4.55637e-10
1.06319e-10
1.03126e-10
1.0147e-10
1.00941e-10
1.01263e-10
1.02303e-10
1.03922e-10
1.0608e-10
1.08717e-10
1.11812e-10
1.1536e-10
1.19357e-10
1.23768e-10
1.28641e-10
1.3394e-10
1.3971e-10
1.45934e-10
1.52631e-10
1.59801e-10
1.67482e-10
1.75684e-10
1.8442e-10
1.93701e-10
2.03552e-10
2.14012e-10
2.25039e-10
2.36782e-10
2.49047e-10
2.62113e-10
2.75887e-10
2.90388e-10
3.05676e-10
3.21858e-10
3.38897e-10
3.57198e-10
3.76619e-10
3.97059e-10
4.18476e-10
4.41208e-10
4.64767e-10
4.85758e-10
1.06805e-10
1.03587e-10
1.01929e-10
1.01389e-10
1.01745e-10
1.02786e-10
1.04439e-10
1.06629e-10
1.09313e-10
1.12453e-10
1.16043e-10
1.20095e-10
1.24572e-10
1.29503e-10
1.34873e-10
1.4073e-10
1.47034e-10
1.53825e-10
1.61119e-10
1.68912e-10
1.77227e-10
1.86073e-10
1.95504e-10
2.05496e-10
2.16083e-10
2.27365e-10
2.39195e-10
2.51771e-10
2.64978e-10
2.78924e-10
2.93705e-10
3.0923e-10
3.2559e-10
3.42892e-10
3.61111e-10
3.80596e-10
4.01371e-10
4.23135e-10
4.45959e-10
4.70168e-10
4.95446e-10
5.17978e-10
1.07284e-10
1.04034e-10
1.02356e-10
1.01837e-10
1.02183e-10
1.03257e-10
1.04944e-10
1.07157e-10
1.09877e-10
1.13062e-10
1.16716e-10
1.20803e-10
1.25349e-10
1.30347e-10
1.35798e-10
1.41711e-10
1.48115e-10
1.54997e-10
1.62384e-10
1.70281e-10
1.78721e-10
1.87712e-10
1.97269e-10
2.07418e-10
2.1818e-10
2.29559e-10
2.41653e-10
2.54391e-10
2.67831e-10
2.82035e-10
2.96946e-10
3.12781e-10
3.29394e-10
3.46893e-10
3.65397e-10
3.84861e-10
4.05665e-10
4.27764e-10
4.5099e-10
4.75207e-10
5.01119e-10
5.28062e-10
5.52429e-10
1.07721e-10
1.04443e-10
1.02771e-10
1.02244e-10
1.02621e-10
1.0371e-10
1.05413e-10
1.07665e-10
1.10421e-10
1.13658e-10
1.1735e-10
1.21495e-10
1.26104e-10
1.31162e-10
1.36692e-10
1.42688e-10
1.49165e-10
1.56139e-10
1.63628e-10
1.71646e-10
1.80188e-10
1.89299e-10
1.98995e-10
2.09299e-10
2.20232e-10
2.31795e-10
2.44035e-10
2.56964e-10
2.70688e-10
2.85057e-10
3.00286e-10
3.16255e-10
3.33193e-10
3.50968e-10
3.69679e-10
3.89461e-10
4.10304e-10
4.32461e-10
4.55968e-10
4.80761e-10
5.0654e-10
5.34134e-10
5.62858e-10
5.89109e-10
1.08117e-10
1.0484e-10
1.03149e-10
1.02641e-10
1.0302e-10
1.04131e-10
1.05862e-10
1.08162e-10
1.10945e-10
1.14222e-10
1.1797e-10
1.22164e-10
1.26828e-10
1.31949e-10
1.37544e-10
1.43633e-10
1.50195e-10
1.57244e-10
1.64849e-10
1.72966e-10
1.81641e-10
1.90874e-10
2.00707e-10
2.11144e-10
2.22235e-10
2.33959e-10
2.46373e-10
2.59543e-10
2.73412e-10
2.88087e-10
3.03515e-10
3.19781e-10
3.36906e-10
3.55035e-10
3.74043e-10
3.94055e-10
4.15149e-10
4.37511e-10
4.61162e-10
4.86263e-10
5.12576e-10
5.39972e-10
5.69364e-10
6.00076e-10
6.28349e-10
1.08489e-10
1.05191e-10
1.03517e-10
1.03002e-10
1.03408e-10
1.04545e-10
1.06296e-10
1.08612e-10
1.11448e-10
1.14776e-10
1.18557e-10
1.22819e-10
1.27542e-10
1.32718e-10
1.38389e-10
1.44532e-10
1.51177e-10
1.58348e-10
1.66029e-10
1.74262e-10
1.83051e-10
1.92427e-10
2.02376e-10
2.12969e-10
2.24199e-10
2.36121e-10
2.48713e-10
2.62046e-10
2.76134e-10
2.91026e-10
3.06711e-10
3.23262e-10
3.40651e-10
3.5901e-10
3.78398e-10
3.98726e-10
4.20117e-10
4.42611e-10
4.66488e-10
4.9179e-10
5.18476e-10
5.46543e-10
5.75623e-10
6.07203e-10
6.39802e-10
6.70291e-10
1.08811e-10
1.0552e-10
1.03841e-10
1.03353e-10
1.03761e-10
1.04916e-10
1.06716e-10
1.09057e-10
1.11932e-10
1.1529e-10
1.19126e-10
1.2344e-10
1.28204e-10
1.33483e-10
1.3921e-10
1.4543e-10
1.5216e-10
1.59401e-10
1.67198e-10
1.75514e-10
1.84414e-10
1.93923e-10
2.04029e-10
2.14755e-10
2.26149e-10
2.38224e-10
2.51031e-10
2.64567e-10
2.7886e-10
2.93969e-10
3.09886e-10
3.26724e-10
3.44407e-10
3.63008e-10
3.82647e-10
4.03342e-10
4.25119e-10
4.47986e-10
4.72011e-10
4.97454e-10
5.24442e-10
5.52896e-10
5.82889e-10
6.13849e-10
6.47475e-10
6.8214e-10
7.15091e-10
1.09136e-10
1.05812e-10
1.04137e-10
1.03662e-10
1.04097e-10
1.05277e-10
1.07092e-10
1.09478e-10
1.12382e-10
1.15783e-10
1.19683e-10
1.24033e-10
1.28867e-10
1.34181e-10
1.3999e-10
1.46283e-10
1.53102e-10
1.60425e-10
1.68311e-10
1.76739e-10
1.85767e-10
1.95375e-10
2.05613e-10
2.1652e-10
2.28052e-10
2.40308e-10
2.53274e-10
2.66985e-10
2.81504e-10
2.96829e-10
3.13031e-10
3.30086e-10
3.48101e-10
3.67029e-10
3.8693e-10
4.07932e-10
4.30018e-10
4.53342e-10
4.77775e-10
5.03456e-10
5.30641e-10
5.59442e-10
5.89857e-10
6.21702e-10
6.54625e-10
6.90449e-10
7.27386e-10
7.63023e-10
1.09395e-10
1.06085e-10
1.04422e-10
1.03945e-10
1.04408e-10
1.05613e-10
1.07459e-10
1.09881e-10
1.12808e-10
1.16261e-10
1.20178e-10
1.24603e-10
1.29512e-10
1.3487e-10
1.40752e-10
1.47123e-10
1.5401e-10
1.61437e-10
1.69406e-10
1.77952e-10
1.87096e-10
1.96816e-10
2.07198e-10
2.18212e-10
2.29935e-10
2.42347e-10
2.55496e-10
2.6941e-10
2.84117e-10
2.99682e-10
3.16088e-10
3.33415e-10
3.51698e-10
3.70948e-10
3.91228e-10
4.12558e-10
4.34984e-10
4.58585e-10
4.83514e-10
5.09634e-10
5.37077e-10
5.66128e-10
5.96738e-10
6.29277e-10
6.63219e-10
6.98246e-10
7.36435e-10
7.75745e-10
8.14104e-10
1.09638e-10
1.06331e-10
1.04666e-10
1.04209e-10
1.04694e-10
1.05925e-10
1.07799e-10
1.10247e-10
1.13244e-10
1.16714e-10
1.20689e-10
1.25135e-10
1.301e-10
1.35554e-10
1.41469e-10
1.47937e-10
1.5489e-10
1.62423e-10
1.70472e-10
1.79138e-10
1.88363e-10
1.98235e-10
2.08721e-10
2.19889e-10
2.31744e-10
2.44339e-10
2.57673e-10
2.71789e-10
2.86711e-10
3.02474e-10
3.19143e-10
3.36716e-10
3.55262e-10
3.74836e-10
3.95418e-10
4.17073e-10
4.39932e-10
4.63897e-10
4.89131e-10
5.15775e-10
5.43677e-10
5.73043e-10
6.0399e-10
6.36737e-10
6.71348e-10
7.07419e-10
7.44857e-10
7.85562e-10
8.27343e-10
8.68865e-10
1.09848e-10
1.06539e-10
1.04894e-10
1.04459e-10
1.04937e-10
1.06209e-10
1.08115e-10
1.10588e-10
1.13615e-10
1.17148e-10
1.21171e-10
1.25671e-10
1.30669e-10
1.36169e-10
1.42186e-10
1.48709e-10
1.55768e-10
1.63347e-10
1.71533e-10
1.80252e-10
1.89605e-10
1.99593e-10
2.10215e-10
2.21535e-10
2.33538e-10
2.46287e-10
2.59799e-10
2.74089e-10
2.89255e-10
3.05241e-10
3.22136e-10
3.39988e-10
3.58798e-10
3.78654e-10
3.99539e-10
4.21601e-10
4.44758e-10
4.69143e-10
4.94819e-10
5.21791e-10
5.50193e-10
5.80017e-10
6.11555e-10
6.44501e-10
6.79543e-10
7.16372e-10
7.54831e-10
7.94722e-10
8.38143e-10
8.82609e-10
9.27254e-10
1.10001e-10
1.06718e-10
1.05087e-10
1.04662e-10
1.05191e-10
1.06461e-10
1.08406e-10
1.10922e-10
1.1396e-10
1.17544e-10
1.21607e-10
1.26186e-10
1.31232e-10
1.36785e-10
1.42853e-10
1.49444e-10
1.56588e-10
1.64263e-10
1.72528e-10
1.81365e-10
1.9083e-10
2.00908e-10
2.11681e-10
2.23134e-10
2.35281e-10
2.48228e-10
2.61867e-10
2.76421e-10
2.91717e-10
3.07939e-10
3.25073e-10
3.4319e-10
3.62291e-10
3.82428e-10
4.03663e-10
4.26013e-10
4.49606e-10
4.7441e-10
5.00438e-10
5.27888e-10
5.56777e-10
5.8702e-10
6.18897e-10
6.52538e-10
6.87852e-10
7.25111e-10
7.6454e-10
8.05517e-10
8.47968e-10
8.94212e-10
9.41522e-10
9.8978e-10
1.10138e-10
1.0686e-10
1.05245e-10
1.04854e-10
1.0539e-10
1.067e-10
1.08662e-10
1.11221e-10
1.14315e-10
1.17904e-10
1.22034e-10
1.26644e-10
1.31771e-10
1.37365e-10
1.43509e-10
1.50168e-10
1.57369e-10
1.6515e-10
1.73477e-10
1.82443e-10
1.91988e-10
2.02232e-10
2.13086e-10
2.24703e-10
2.37005e-10
2.50043e-10
2.63969e-10
2.78608e-10
2.94178e-10
3.10638e-10
3.27979e-10
3.4633e-10
3.65681e-10
3.86135e-10
4.07715e-10
4.30427e-10
4.5433e-10
4.79499e-10
5.06019e-10
5.33846e-10
5.63174e-10
5.94186e-10
6.26425e-10
6.60519e-10
6.96361e-10
7.34157e-10
7.73891e-10
8.15891e-10
8.59594e-10
9.04992e-10
9.54155e-10
1.00454e-09
1.05668e-09
1.10235e-10
1.06981e-10
1.05392e-10
1.05005e-10
1.05581e-10
1.06908e-10
1.08905e-10
1.11476e-10
1.14625e-10
1.18276e-10
1.22411e-10
1.27091e-10
1.32256e-10
1.37943e-10
1.44121e-10
1.50851e-10
1.58137e-10
1.65986e-10
1.74442e-10
1.83462e-10
1.93158e-10
2.03468e-10
2.14506e-10
2.26201e-10
2.3868e-10
2.51914e-10
2.65912e-10
2.80825e-10
2.96571e-10
3.13222e-10
3.30862e-10
3.49449e-10
3.6912e-10
3.89846e-10
4.11684e-10
4.34762e-10
4.59052e-10
4.84604e-10
5.11523e-10
5.39872e-10
5.69625e-10
6.00946e-10
6.33987e-10
6.68585e-10
7.04954e-10
7.43328e-10
7.83705e-10
8.26192e-10
8.70927e-10
9.17481e-10
9.65944e-10
1.01851e-09
1.07208e-09
1.12835e-09
1.10298e-10
1.07065e-10
1.05496e-10
1.05148e-10
1.05729e-10
1.071e-10
1.09118e-10
1.11745e-10
1.14891e-10
1.18601e-10
1.22801e-10
1.27493e-10
1.32718e-10
1.38447e-10
1.44724e-10
1.51523e-10
1.58861e-10
1.66808e-10
1.75328e-10
1.84492e-10
1.94242e-10
2.04726e-10
2.15832e-10
2.2772e-10
2.4029e-10
2.53709e-10
2.67918e-10
2.82931e-10
2.98899e-10
3.15813e-10
3.3363e-10
3.52506e-10
3.72429e-10
3.93448e-10
4.15651e-10
4.39008e-10
4.63646e-10
4.89671e-10
5.1699e-10
5.45764e-10
5.76068e-10
6.07931e-10
6.4132e-10
6.7662e-10
7.13639e-10
7.52543e-10
7.93504e-10
8.36584e-10
8.81989e-10
9.2973e-10
9.79431e-10
1.03098e-09
1.08698e-09
1.14412e-09
1.20492e-09
1.10322e-10
1.07121e-10
1.05574e-10
1.05249e-10
1.0587e-10
1.0725e-10
1.09315e-10
1.11957e-10
1.1517e-10
1.1888e-10
1.23134e-10
1.27904e-10
1.33164e-10
1.38954e-10
1.45271e-10
1.52146e-10
1.59584e-10
1.67584e-10
1.76198e-10
1.85443e-10
1.95326e-10
2.05886e-10
2.17149e-10
2.29136e-10
2.41893e-10
2.55425e-10
2.69844e-10
2.85074e-10
3.01188e-10
3.183e-10
3.36411e-10
3.555e-10
3.75665e-10
3.9702e-10
4.19468e-10
4.43214e-10
4.68245e-10
4.94594e-10
5.22405e-10
5.51627e-10
5.82354e-10
6.14723e-10
6.48752e-10
6.84664e-10
7.22291e-10
7.61807e-10
8.03386e-10
8.47189e-10
8.93045e-10
9.4164e-10
9.92653e-10
1.04568e-09
1.10078e-09
1.16033e-09
1.22144e-09
1.28687e-09
1.10314e-10
1.0714e-10
1.05625e-10
1.05323e-10
1.0597e-10
1.07393e-10
1.09469e-10
1.12152e-10
1.15392e-10
1.19164e-10
1.23451e-10
1.28244e-10
1.33589e-10
1.39438e-10
1.45817e-10
1.52754e-10
1.60249e-10
1.68351e-10
1.77034e-10
1.86381e-10
1.96363e-10
2.07023e-10
2.18423e-10
2.30525e-10
2.43434e-10
2.5712e-10
2.71688e-10
2.87134e-10
3.03489e-10
3.20745e-10
3.3908e-10
3.58471e-10
3.78907e-10
4.00488e-10
4.23333e-10
4.47351e-10
4.72749e-10
4.99466e-10
5.27677e-10
5.57375e-10
5.8866e-10
6.21549e-10
6.56087e-10
6.92436e-10
7.3079e-10
7.71037e-10
8.13315e-10
8.57746e-10
9.04568e-10
9.53778e-10
1.00548e-09
1.05998e-09
1.11667e-09
1.17559e-09
1.23891e-09
1.30399e-09
1.37487e-09
1.10273e-10
1.07133e-10
1.05635e-10
1.05372e-10
1.06044e-10
1.07495e-10
1.09607e-10
1.12331e-10
1.15589e-10
1.19407e-10
1.23732e-10
1.28595e-10
1.33955e-10
1.39871e-10
1.46307e-10
1.53328e-10
1.60898e-10
1.69061e-10
1.77846e-10
1.87272e-10
1.97364e-10
2.08149e-10
2.19628e-10
2.31914e-10
2.4495e-10
2.58791e-10
2.73505e-10
2.89087e-10
3.05668e-10
3.23205e-10
3.41702e-10
3.61334e-10
3.82097e-10
4.03965e-10
4.27055e-10
4.51501e-10
4.77178e-10
5.04342e-10
5.32849e-10
5.63071e-10
5.94769e-10
6.28137e-10
6.634e-10
7.00322e-10
7.39148e-10
7.80069e-10
8.2316e-10
8.6839e-10
9.15934e-10
9.65887e-10
1.01846e-09
1.07384e-09
1.13187e-09
1.19248e-09
1.25549e-09
1.32321e-09
1.39224e-09
1.46893e-09
1.10191e-10
1.07096e-10
1.05637e-10
1.05383e-10
1.06087e-10
1.07565e-10
1.09722e-10
1.12459e-10
1.15785e-10
1.19623e-10
1.23996e-10
1.28887e-10
1.3432e-10
1.40275e-10
1.46784e-10
1.53844e-10
1.61497e-10
1.69745e-10
1.78614e-10
1.88116e-10
1.98314e-10
2.09219e-10
2.20838e-10
2.3321e-10
2.46399e-10
2.60416e-10
2.75294e-10
2.91084e-10
3.07786e-10
3.25517e-10
3.44314e-10
3.64148e-10
3.85126e-10
4.07348e-10
4.30781e-10
4.55481e-10
4.81618e-10
5.09085e-10
5.38126e-10
5.68667e-10
6.00942e-10
6.34791e-10
6.70597e-10
7.08149e-10
7.47641e-10
7.89196e-10
8.3293e-10
8.7881e-10
9.272e-10
9.78139e-10
1.03138e-09
1.08774e-09
1.14687e-09
1.2088e-09
1.27354e-09
1.3409e-09
1.41347e-09
1.48718e-09
1.56967e-09
1.10076e-10
1.07022e-10
1.05612e-10
1.05387e-10
1.06116e-10
1.07617e-10
1.09795e-10
1.12589e-10
1.15929e-10
1.19814e-10
1.24224e-10
1.29165e-10
1.34639e-10
1.40646e-10
1.47231e-10
1.54357e-10
1.62072e-10
1.70398e-10
1.7934e-10
1.88954e-10
1.9923e-10
2.10239e-10
2.21974e-10
2.34504e-10
2.47804e-10
2.6197e-10
2.77005e-10
2.92957e-10
3.09932e-10
3.27852e-10
3.46816e-10
3.66913e-10
3.88174e-10
4.10634e-10
4.34362e-10
4.59471e-10
4.85887e-10
5.13844e-10
5.43212e-10
5.74209e-10
6.06985e-10
6.41276e-10
6.7772e-10
7.15761e-10
7.5595e-10
7.98251e-10
8.42581e-10
8.89381e-10
9.38574e-10
9.90118e-10
1.04468e-09
1.10165e-09
1.16183e-09
1.22512e-09
1.29125e-09
1.36045e-09
1.43236e-09
1.51004e-09
1.58889e-09
1.6779e-09
1.09929e-10
1.06919e-10
1.05527e-10
1.05357e-10
1.06114e-10
1.07656e-10
1.09859e-10
1.12675e-10
1.16049e-10
1.19978e-10
1.24428e-10
1.29423e-10
1.34937e-10
1.41e-10
1.47618e-10
1.54825e-10
1.62599e-10
1.71018e-10
1.80043e-10
1.89741e-10
2.00138e-10
2.1122e-10
2.23087e-10
2.3572e-10
2.49189e-10
2.63481e-10
2.78697e-10
2.94829e-10
3.11939e-10
3.30092e-10
3.49312e-10
3.69639e-10
3.9114e-10
4.13903e-10
4.37965e-10
4.63318e-10
4.90124e-10
5.18375e-10
5.48261e-10
5.79712e-10
6.12782e-10
6.4778e-10
6.8455e-10
7.2332e-10
7.64187e-10
8.07111e-10
8.52329e-10
8.99817e-10
9.49812e-10
1.00248e-09
1.05752e-09
1.11583e-09
1.17679e-09
1.24098e-09
1.30888e-09
1.37956e-09
1.45371e-09
1.53055e-09
1.6134e-09
1.69778e-09
1.79398e-09
1.09741e-10
1.06786e-10
1.05447e-10
1.05292e-10
1.06078e-10
1.07641e-10
1.09886e-10
1.12728e-10
1.16152e-10
1.20107e-10
1.24605e-10
1.29642e-10
1.35209e-10
1.41309e-10
1.47992e-10
1.55248e-10
1.63115e-10
1.71584e-10
1.80695e-10
1.90482e-10
2.00975e-10
2.1217e-10
2.24134e-10
2.36897e-10
2.5049e-10
2.64971e-10
2.80322e-10
2.96644e-10
3.13935e-10
3.32276e-10
3.5172e-10
3.72285e-10
3.94063e-10
4.17085e-10
4.41398e-10
4.67139e-10
4.94292e-10
5.22967e-10
5.53174e-10
5.85068e-10
6.18741e-10
6.54188e-10
6.9147e-10
7.30801e-10
7.72332e-10
8.15944e-10
8.61869e-10
9.10124e-10
9.60853e-10
1.01427e-09
1.07067e-09
1.12957e-09
1.19201e-09
1.25717e-09
1.32596e-09
1.39834e-09
1.47404e-09
1.55326e-09
1.63565e-09
1.72431e-09
1.81453e-09
1.91821e-09
1.09511e-10
1.06615e-10
1.05307e-10
1.05202e-10
1.06026e-10
1.07626e-10
1.09884e-10
1.12768e-10
1.16211e-10
1.20218e-10
1.24747e-10
1.29832e-10
1.35439e-10
1.41607e-10
1.48336e-10
1.55644e-10
1.63576e-10
1.72126e-10
1.81325e-10
1.91209e-10
2.01763e-10
2.13106e-10
2.25158e-10
2.38039e-10
2.51753e-10
2.66353e-10
2.81894e-10
2.98382e-10
3.15856e-10
3.34429e-10
3.54033e-10
3.74896e-10
3.96911e-10
4.2022e-10
4.44857e-10
4.70859e-10
4.98348e-10
5.27389e-10
5.58096e-10
5.90439e-10
6.24513e-10
6.6045e-10
6.9839e-10
7.38304e-10
7.80344e-10
8.24705e-10
8.71161e-10
9.20395e-10
9.72005e-10
1.02627e-09
1.08344e-09
1.14359e-09
1.20674e-09
1.27354e-09
1.34326e-09
1.41696e-09
1.49409e-09
1.57532e-09
1.65982e-09
1.74834e-09
1.84285e-09
1.94002e-09
2.05156e-09
1.09266e-10
1.06406e-10
1.05156e-10
1.05077e-10
1.0594e-10
1.07561e-10
1.09873e-10
1.1277e-10
1.16257e-10
1.20285e-10
1.24868e-10
1.29982e-10
1.35633e-10
1.41861e-10
1.48651e-10
1.56033e-10
1.64002e-10
1.7263e-10
1.81908e-10
1.9186e-10
2.02545e-10
2.13942e-10
2.26147e-10
2.39155e-10
2.5297e-10
2.67759e-10
2.83397e-10
3.00048e-10
3.17751e-10
3.36458e-10
3.56371e-10
3.77381e-10
3.99685e-10
4.23267e-10
4.4822e-10
4.74525e-10
5.02431e-10
5.31837e-10
5.62833e-10
5.95615e-10
6.30217e-10
6.66629e-10
7.05138e-10
7.45596e-10
7.88284e-10
8.33196e-10
8.80685e-10
9.30403e-10
9.82922e-10
1.03822e-09
1.09621e-09
1.15744e-09
1.2216e-09
1.28916e-09
1.36046e-09
1.43544e-09
1.51412e-09
1.59682e-09
1.68373e-09
1.77426e-09
1.86931e-09
1.97006e-09
2.07481e-09
2.19489e-09
1.08979e-10
1.06185e-10
1.04961e-10
1.04934e-10
1.0582e-10
1.07486e-10
1.0981e-10
1.12754e-10
1.16264e-10
1.20329e-10
1.24932e-10
1.30103e-10
1.35823e-10
1.4207e-10
1.48924e-10
1.56352e-10
1.64406e-10
1.73096e-10
1.82444e-10
1.92487e-10
2.03256e-10
2.14766e-10
2.27066e-10
2.40181e-10
2.54197e-10
2.69021e-10
2.84901e-10
3.01694e-10
3.19543e-10
3.38525e-10
3.5856e-10
3.79897e-10
4.02384e-10
4.26205e-10
4.51458e-10
4.78178e-10
5.06277e-10
5.36121e-10
5.676e-10
6.00758e-10
6.35783e-10
6.727e-10
7.11733e-10
7.5279e-10
7.96093e-10
8.41666e-10
8.8979e-10
9.4047e-10
9.93703e-10
1.04982e-09
1.10886e-09
1.17102e-09
1.23651e-09
1.30516e-09
1.37752e-09
1.45356e-09
1.53399e-09
1.61813e-09
1.7069e-09
1.79972e-09
1.89685e-09
1.99909e-09
2.10673e-09
2.21911e-09
2.34871e-09
1.08651e-10
1.05918e-10
1.04755e-10
1.04756e-10
1.05681e-10
1.07369e-10
1.09739e-10
1.12713e-10
1.16253e-10
1.2036e-10
1.24998e-10
1.30201e-10
1.3594e-10
1.42264e-10
1.49162e-10
1.56664e-10
1.64768e-10
1.73514e-10
1.82956e-10
1.9306e-10
2.03936e-10
2.15542e-10
2.27951e-10
2.41194e-10
2.55301e-10
2.70357e-10
2.86255e-10
3.03295e-10
3.2131e-10
3.40457e-10
3.60777e-10
3.82247e-10
4.0508e-10
4.29148e-10
4.54652e-10
4.81651e-10
5.10236e-10
5.4029e-10
5.72148e-10
6.05823e-10
6.41233e-10
6.78801e-10
7.18241e-10
7.59894e-10
8.03867e-10
8.50204e-10
8.98955e-10
9.50275e-10
1.00444e-09
1.06149e-09
1.12146e-09
1.18468e-09
1.25108e-09
1.32119e-09
1.39484e-09
1.47226e-09
1.55342e-09
1.63973e-09
1.72972e-09
1.82476e-09
1.92398e-09
2.02808e-09
2.13799e-09
2.2533e-09
2.37418e-09
2.51364e-09
1.08299e-10
1.05637e-10
1.04505e-10
1.04551e-10
1.05508e-10
1.07235e-10
1.09625e-10
1.12637e-10
1.16217e-10
1.20346e-10
1.25036e-10
1.30259e-10
1.36062e-10
1.42408e-10
1.49359e-10
1.56913e-10
1.65102e-10
1.73916e-10
1.83404e-10
1.93624e-10
2.04535e-10
2.16255e-10
2.28778e-10
2.42152e-10
2.56379e-10
2.71539e-10
2.87673e-10
3.04802e-10
3.23002e-10
3.42355e-10
3.62852e-10
3.84597e-10
4.07602e-10
4.32011e-10
4.57808e-10
4.85084e-10
5.13925e-10
5.44499e-10
5.76686e-10
6.10758e-10
6.46712e-10
6.84638e-10
7.24761e-10
7.66885e-10
8.11543e-10
8.58478e-10
9.07921e-10
9.60143e-10
1.01515e-09
1.07296e-09
1.13402e-09
1.19809e-09
1.26564e-09
1.33681e-09
1.41155e-09
1.49051e-09
1.57353e-09
1.66054e-09
1.7526e-09
1.84928e-09
1.95089e-09
2.05764e-09
2.16878e-09
2.28698e-09
2.4107e-09
2.54092e-09
2.69073e-09
1.07896e-10
1.05309e-10
1.04244e-10
1.04312e-10
1.05311e-10
1.07066e-10
1.09493e-10
1.12526e-10
1.16134e-10
1.20304e-10
1.25023e-10
1.30294e-10
1.36123e-10
1.42552e-10
1.4952e-10
1.57131e-10
1.65376e-10
1.74274e-10
1.8384e-10
1.9411e-10
2.05162e-10
2.16938e-10
2.29568e-10
2.43015e-10
2.57392e-10
2.72687e-10
2.88984e-10
3.06272e-10
3.24683e-10
3.44171e-10
3.64871e-10
3.86858e-10
4.101e-10
4.34765e-10
4.60843e-10
4.88436e-10
5.17658e-10
5.48509e-10
5.81157e-10
6.15617e-10
6.51942e-10
6.90495e-10
7.31098e-10
7.73925e-10
8.18895e-10
8.66568e-10
9.16867e-10
9.698e-10
1.02548e-09
1.08438e-09
1.14621e-09
1.2114e-09
1.28016e-09
1.35225e-09
1.42856e-09
1.50856e-09
1.59295e-09
1.68185e-09
1.77509e-09
1.87364e-09
1.97745e-09
2.08607e-09
2.20073e-09
2.31992e-09
2.44684e-09
2.57958e-09
2.72018e-09
2.88094e-09
1.07486e-10
1.04934e-10
1.03929e-10
1.04054e-10
1.05079e-10
1.06863e-10
1.09327e-10
1.12397e-10
1.16034e-10
1.20235e-10
1.24986e-10
1.30306e-10
1.36164e-10
1.4262e-10
1.49682e-10
1.57317e-10
1.65622e-10
1.74574e-10
1.84242e-10
1.94583e-10
2.05688e-10
2.17587e-10
2.30325e-10
2.43906e-10
2.58371e-10
2.73797e-10
2.90218e-10
3.07699e-10
3.26215e-10
3.45949e-10
3.66855e-10
3.89022e-10
4.12533e-10
4.37443e-10
4.63833e-10
4.91735e-10
5.21254e-10
5.52516e-10
5.85511e-10
6.20359e-10
6.57249e-10
6.96205e-10
7.37287e-10
7.80573e-10
8.26475e-10
8.74617e-10
9.25626e-10
9.79292e-10
1.03597e-09
1.09556e-09
1.1584e-09
1.22459e-09
1.2943e-09
1.36797e-09
1.44513e-09
1.52661e-09
1.61249e-09
1.70278e-09
1.79777e-09
1.89799e-09
2.00356e-09
2.11452e-09
2.23118e-09
2.35394e-09
2.48209e-09
2.61843e-09
2.76139e-09
2.91271e-09
3.08539e-09
1.07017e-10
1.04578e-10
1.03593e-10
1.0376e-10
1.04828e-10
1.06644e-10
1.09127e-10
1.12223e-10
1.15907e-10
1.20138e-10
1.24925e-10
1.30278e-10
1.36189e-10
1.42665e-10
1.49761e-10
1.57478e-10
1.65827e-10
1.74836e-10
1.84554e-10
1.94996e-10
2.06183e-10
2.18173e-10
2.30982e-10
2.44684e-10
2.59291e-10
2.74852e-10
2.91414e-10
3.09035e-10
3.27778e-10
3.47629e-10
3.68736e-10
3.91129e-10
4.14933e-10
4.40051e-10