/*--------------------------------*- C++ -*----------------------------------*\
| =========                 |                                                 |
| \\      /  F ield         | OpenFOAM: The Open Source CFD Toolbox           |
|  \\    /   O peration     | Version:  v2012                                 |
|   \\  /    A nd           | Website:  www.openfoam.com                      |
|    \\/     M anipulation  |                                                 |
\*---------------------------------------------------------------------------*/
FoamFile
{
    version     2.0;
    format      ascii;
    class       volScalarField;
    location    "0";
    object      wallHeatFlux;
}
// * * * * * * * * * * * * * * * * * * * * * * * * * * * * * * * * * * * * * //

dimensions      [1 0 -3 0 0 0 0];


internalField   uniform 0;

boundaryField
{
    base
    {
        type            calculated;
        value           nonuniform List<scalar> 
448
(
1.13214e+06
1.12946e+06
1.12926e+06
1.13016e+06
1.13227e+06
1.134e+06
1.13538e+06
1.13652e+06
1.13745e+06
1.13826e+06
1.13899e+06
1.13968e+06
1.14036e+06
1.141e+06
1.14162e+06
1.14225e+06
1.14289e+06
1.14353e+06
1.14415e+06
1.14476e+06
1.14538e+06
1.14598e+06
1.14657e+06
1.14716e+06
1.14775e+06
1.14832e+06
1.14889e+06
1.14944e+06
1.15002e+06
1.15048e+06
1.15106e+06
1.15149e+06
1.152e+06
1.15247e+06
1.15292e+06
1.15335e+06
1.15376e+06
1.15416e+06
1.15454e+06
1.15489e+06
1.15522e+06
1.15554e+06
1.15586e+06
1.15607e+06
1.15635e+06
1.15659e+06
1.1568e+06
1.15699e+06
1.15715e+06
1.1573e+06
1.15742e+06
1.15756e+06
1.15761e+06
1.15768e+06
1.15773e+06
1.15772e+06
1.15774e+06
1.15775e+06
1.15766e+06
1.15766e+06
1.15753e+06
1.15747e+06
1.15737e+06
1.15725e+06
1.15714e+06
1.15692e+06
1.15679e+06
1.15664e+06
1.15638e+06
1.15621e+06
1.15599e+06
1.15576e+06
1.15556e+06
1.15524e+06
1.15501e+06
1.15475e+06
1.1545e+06
1.15419e+06
1.15387e+06
1.15364e+06
1.15332e+06
1.15302e+06
1.15271e+06
1.15241e+06
1.15207e+06
1.15182e+06
1.15148e+06
1.15117e+06
1.15087e+06
1.15056e+06
1.15022e+06
1.14999e+06
1.14966e+06
1.14936e+06
1.14905e+06
1.14877e+06
1.14845e+06
1.14826e+06
1.14794e+06
1.14767e+06
1.14737e+06
1.14719e+06
1.14685e+06
1.14665e+06
1.14644e+06
1.14622e+06
1.14604e+06
1.14579e+06
1.14554e+06
1.14544e+06
1.14515e+06
1.14507e+06
1.14486e+06
1.1447e+06
1.14454e+06
1.14435e+06
1.14426e+06
1.14418e+06
1.14394e+06
1.14394e+06
1.1438e+06
1.14365e+06
1.14363e+06
1.14361e+06
1.14342e+06
1.14342e+06
1.14336e+06
1.14338e+06
1.14328e+06
1.14326e+06
1.1432e+06
1.14321e+06
1.14321e+06
1.1432e+06
1.14321e+06
1.14321e+06
1.14325e+06
1.14326e+06
1.14331e+06
1.14336e+06
1.14339e+06
1.14345e+06
1.14351e+06
1.14358e+06
1.14364e+06
1.14373e+06
1.14382e+06
1.14389e+06
1.144e+06
1.14411e+06
1.14422e+06
1.14433e+06
1.14446e+06
1.14459e+06
1.14473e+06
1.14486e+06
1.14501e+06
1.14516e+06
1.14533e+06
1.14551e+06
1.14569e+06
1.14588e+06
1.14607e+06
1.14628e+06
1.1465e+06
1.14673e+06
1.14699e+06
1.14722e+06
1.14753e+06
1.14779e+06
1.14811e+06
1.14845e+06
1.14878e+06
1.14918e+06
1.1496e+06
1.15006e+06
1.15058e+06
1.15116e+06
1.15175e+06
1.15247e+06
1.15329e+06
1.15425e+06
1.15528e+06
1.15667e+06
1.15827e+06
1.16017e+06
1.16244e+06
1.1654e+06
1.1691e+06
1.17363e+06
1.17917e+06
1.18649e+06
1.19599e+06
1.20784e+06
1.22241e+06
1.23723e+06
1.25296e+06
1.25643e+06
1.23126e+06
1.16122e+06
1.17606e+06
1.17687e+06
1.1712e+06
1.1658e+06
1.16057e+06
1.15575e+06
1.15208e+06
1.14951e+06
1.1471e+06
1.145e+06
1.1434e+06
1.14188e+06
1.14094e+06
1.14051e+06
1.13985e+06
1.13949e+06
1.13912e+06
1.13855e+06
1.13819e+06
1.13811e+06
1.13861e+06
1.13627e+06
1.13622e+06
1.13627e+06
1.13573e+06
1.13578e+06
1.13341e+06
1.13341e+06
1.13622e+06
1.13627e+06
1.13341e+06
1.13573e+06
1.13811e+06
1.13811e+06
1.14309e+06
1.14305e+06
1.14309e+06
1.14019e+06
1.13243e+06
1.13244e+06
1.13524e+06
1.13811e+06
1.13811e+06
1.13812e+06
1.13529e+06
1.13736e+06
1.13732e+06
1.13244e+06
1.14018e+06
1.14809e+06
1.14019e+06
1.13244e+06
1.13525e+06
1.13529e+06
1.13243e+06
1.13244e+06
1.13244e+06
1.13524e+06
1.13529e+06
1.14019e+06
1.1402e+06
1.13524e+06
1.13529e+06
1.13244e+06
1.13244e+06
1.13524e+06
1.13529e+06
1.13244e+06
1.13736e+06
1.13733e+06
1.13525e+06
1.13529e+06
1.13244e+06
1.13244e+06
1.13244e+06
1.13244e+06
1.13524e+06
1.13529e+06
1.13244e+06
1.13525e+06
1.13812e+06
1.13811e+06
1.13812e+06
1.13529e+06
1.13244e+06
1.13244e+06
1.13244e+06
1.13244e+06
1.13525e+06
1.13812e+06
1.13529e+06
1.13244e+06
1.13244e+06
1.13244e+06
1.13244e+06
1.13244e+06
1.13525e+06
1.13812e+06
1.13529e+06
1.13525e+06
1.13528e+06
1.13244e+06
1.13244e+06
1.13244e+06
1.13244e+06
1.13244e+06
1.13244e+06
1.13244e+06
1.13244e+06
1.13525e+06
1.13812e+06
1.14024e+06
1.13733e+06
1.13525e+06
1.13812e+06
1.13529e+06
1.13525e+06
1.13812e+06
1.13812e+06
1.13528e+06
1.13244e+06
1.13244e+06
1.13525e+06
1.13812e+06
1.13528e+06
1.13244e+06
1.13244e+06
1.13244e+06
1.13736e+06
1.13733e+06
1.13525e+06
1.14309e+06
1.14306e+06
1.13528e+06
1.13244e+06
1.13526e+06
1.14309e+06
1.1452e+06
1.14018e+06
1.14023e+06
1.14231e+06
1.14018e+06
1.13812e+06
1.13528e+06
1.13244e+06
1.13244e+06
1.13526e+06
1.14309e+06
1.14809e+06
1.13448e+06
1.12125e+06
1.14928e+06
1.14952e+06
1.14929e+06
1.18485e+06
1.18483e+06
1.14951e+06
1.12125e+06
1.14929e+06
1.17952e+06
1.15467e+06
1.12605e+06
1.12125e+06
1.12607e+06
1.12605e+06
1.12125e+06
1.12607e+06
1.13093e+06
1.12605e+06
1.12125e+06
1.12125e+06
1.15429e+06
1.15446e+06
1.12125e+06
1.12125e+06
1.15429e+06
1.15446e+06
1.12125e+06
1.12125e+06
1.12125e+06
1.12125e+06
1.12125e+06
1.12125e+06
1.12607e+06
1.13093e+06
1.12605e+06
1.12125e+06
1.12607e+06
1.13093e+06
1.12605e+06
1.12607e+06
1.15949e+06
1.15444e+06
1.12607e+06
1.13093e+06
1.13093e+06
1.12605e+06
1.12125e+06
1.12607e+06
1.12605e+06
1.12607e+06
1.13093e+06
1.13093e+06
1.1595e+06
1.15443e+06
1.12607e+06
1.13093e+06
1.13093e+06
1.11639e+06
1.10239e+06
1.10238e+06
1.15014e+06
1.14997e+06
1.10238e+06
1.12955e+06
1.12965e+06
1.10239e+06
1.10239e+06
1.10239e+06
1.12953e+06
1.12963e+06
1.12954e+06
1.12965e+06
1.15014e+06
1.14997e+06
1.17878e+06
1.21129e+06
1.18074e+06
1.20365e+06
1.20364e+06
1.14997e+06
1.15014e+06
1.20365e+06
1.14997e+06
1.15014e+06
1.20365e+06
1.14997e+06
1.10239e+06
1.10238e+06
1.15014e+06
1.14997e+06
1.10239e+06
1.15014e+06
1.14997e+06
1.10238e+06
1.10239e+06
1.07609e+06
1.07601e+06
)
;
    }
    inlet
    {
        type            calculated;
        value           uniform 0;
    }
    outlet
    {
        type            calculated;
        value           uniform 0;
    }
    top
    {
        type            calculated;
        value           uniform 0;
    }
    w1
    {
        type            wedge;
    }
    w2
    {
        type            wedge;
    }
}


// ************************************************************************* //
