/*--------------------------------*- C++ -*----------------------------------*\
| =========                 |                                                 |
| \\      /  F ield         | OpenFOAM: The Open Source CFD Toolbox           |
|  \\    /   O peration     | Version:  v2012                                 |
|   \\  /    A nd           | Website:  www.openfoam.com                      |
|    \\/     M anipulation  |                                                 |
\*---------------------------------------------------------------------------*/
FoamFile
{
    version     2.0;
    format      ascii;
    class       volScalarField;
    location    "0";
    object      yPlus;
}
// * * * * * * * * * * * * * * * * * * * * * * * * * * * * * * * * * * * * * //

dimensions      [0 0 0 0 0 0 0];


internalField   uniform 0;

boundaryField
{
    base
    {
        type            calculated;
        value           nonuniform List<scalar> 
448
(
0.0177409
0.0177831
0.0177861
0.017772
0.0177388
0.0177118
0.0176902
0.0176725
0.0176582
0.0176455
0.0176343
0.0176235
0.017613
0.0176031
0.0175936
0.0175839
0.017574
0.0175643
0.0175547
0.0175453
0.0175359
0.0175267
0.0175176
0.0175086
0.0174997
0.0174909
0.0174823
0.0174739
0.0174651
0.0174581
0.0174493
0.0174427
0.017435
0.017428
0.0174212
0.0174146
0.0174084
0.0174024
0.0173967
0.0173914
0.0173864
0.0173817
0.0173768
0.0173737
0.0173694
0.0173659
0.0173627
0.0173599
0.0173574
0.0173553
0.0173534
0.0173514
0.0173506
0.0173496
0.0173488
0.0173489
0.0173485
0.0173484
0.0173499
0.0173498
0.0173518
0.0173526
0.0173542
0.017356
0.0173576
0.0173609
0.0173629
0.0173652
0.017369
0.0173716
0.0173748
0.0173783
0.0173814
0.0173861
0.0173896
0.0173936
0.0173972
0.017402
0.0174068
0.0174103
0.0174152
0.0174197
0.0174243
0.0174289
0.0174341
0.0174377
0.017443
0.0174477
0.0174522
0.0174568
0.017462
0.0174655
0.0174706
0.0174752
0.0174798
0.0174841
0.0174889
0.0174919
0.0174967
0.0175008
0.0175054
0.0175081
0.0175133
0.0175163
0.0175197
0.017523
0.0175257
0.0175296
0.0175333
0.0175349
0.0175394
0.0175406
0.0175438
0.0175462
0.0175486
0.0175517
0.017553
0.0175542
0.0175578
0.0175578
0.0175601
0.0175623
0.0175627
0.017563
0.0175658
0.0175659
0.0175668
0.0175665
0.017568
0.0175684
0.0175692
0.0175691
0.0175692
0.0175692
0.0175691
0.0175691
0.0175685
0.0175683
0.0175676
0.0175669
0.0175664
0.0175654
0.0175646
0.0175634
0.0175625
0.0175611
0.0175597
0.0175586
0.0175569
0.0175553
0.0175537
0.0175519
0.01755
0.017548
0.0175458
0.0175438
0.0175414
0.0175392
0.0175365
0.0175339
0.0175311
0.0175282
0.0175252
0.017522
0.0175187
0.0175151
0.0175112
0.0175077
0.017503
0.0174991
0.0174942
0.0174889
0.0174839
0.0174778
0.0174715
0.0174644
0.0174566
0.0174478
0.0174389
0.017428
0.0174155
0.0174011
0.0173855
0.0173646
0.0173407
0.0173122
0.0172785
0.0172346
0.01718
0.0171137
0.0170333
0.0169282
0.0167937
0.016629
0.0164307
0.016234
0.0160302
0.0159859
0.0163127
0.0172966
0.0170784
0.0170666
0.0171492
0.0172287
0.0173063
0.0173784
0.0174338
0.0174729
0.0175095
0.0175416
0.0175662
0.0175895
0.017604
0.0176108
0.0176209
0.0176264
0.0176321
0.017641
0.0176465
0.0176478
0.0176401
0.0176764
0.0176772
0.0176764
0.0176848
0.017684
0.017721
0.017721
0.0176771
0.0176764
0.017721
0.0176848
0.0176478
0.0176478
0.017571
0.0175715
0.017571
0.0176156
0.0177363
0.0177363
0.0176924
0.0176478
0.0176478
0.0176477
0.0176917
0.0176595
0.0176601
0.0177363
0.0176158
0.0174945
0.0176156
0.0177363
0.0176924
0.0176917
0.0177363
0.0177362
0.0177363
0.0176924
0.0176917
0.0176157
0.0176156
0.0176924
0.0176916
0.0177363
0.0177363
0.0176924
0.0176918
0.0177363
0.0176594
0.01766
0.0176924
0.0176917
0.0177362
0.0177363
0.0177363
0.0177362
0.0176924
0.0176917
0.0177362
0.0176924
0.0176477
0.0176478
0.0176477
0.0176918
0.0177363
0.0177362
0.0177363
0.0177363
0.0176924
0.0176477
0.0176917
0.0177362
0.0177363
0.0177363
0.0177362
0.0177362
0.0176923
0.0176477
0.0176917
0.0176923
0.0176918
0.0177362
0.0177362
0.0177362
0.0177362
0.0177362
0.0177362
0.0177363
0.0177362
0.0176923
0.0176477
0.0176149
0.0176599
0.0176923
0.0176478
0.0176917
0.0176923
0.0176478
0.0176477
0.0176918
0.0177362
0.0177362
0.0176922
0.0176477
0.0176918
0.0177362
0.0177362
0.0177362
0.0176595
0.0176599
0.0176922
0.017571
0.0175714
0.0176918
0.0177362
0.0176922
0.017571
0.0175385
0.0176158
0.017615
0.0175829
0.0176158
0.0176477
0.0176918
0.0177362
0.0177362
0.0176922
0.017571
0.0174945
0.0177043
0.0179132
0.0174763
0.0174727
0.0174762
0.0169517
0.0169519
0.0174728
0.0179132
0.0174762
0.0170283
0.0173948
0.0178369
0.0179132
0.0178365
0.0178368
0.0179132
0.0178365
0.0177599
0.0178368
0.0179132
0.0179132
0.0174004
0.017398
0.0179132
0.0179132
0.0174004
0.017398
0.0179132
0.0179132
0.0179132
0.0179132
0.0179132
0.0179132
0.0178365
0.0177599
0.0178368
0.0179132
0.0178365
0.0177599
0.0178368
0.0178365
0.0173225
0.0173982
0.0178365
0.0177599
0.0177599
0.0178368
0.0179132
0.0178365
0.0178368
0.0178365
0.0177599
0.0177599
0.0173224
0.0173983
0.0178365
0.0177599
0.0177599
0.0179913
0.0182197
0.0182198
0.0174632
0.0174659
0.0182198
0.0177816
0.01778
0.0182197
0.0182197
0.0182197
0.0177818
0.0177803
0.0177818
0.0177801
0.0174632
0.0174658
0.017039
0.0165817
0.0170107
0.0166869
0.016687
0.0174658
0.0174632
0.0166869
0.0174658
0.0174633
0.0166869
0.0174658
0.0182196
0.0182198
0.0174633
0.0174658
0.0182197
0.0174633
0.0174658
0.0182198
0.0182197
0.018665
0.0186664
)
;
    }
    inlet
    {
        type            calculated;
        value           uniform 0;
    }
    outlet
    {
        type            calculated;
        value           uniform 0;
    }
    top
    {
        type            calculated;
        value           uniform 0;
    }
    w1
    {
        type            wedge;
    }
    w2
    {
        type            wedge;
    }
}


// ************************************************************************* //
