# Wall heat-flux
# Time        	patch         	min           	max           	integral      
2700          	base	-3.926204e+06	-6.363902e+04	-1.107155e+04
