# wallHeatFlux  FACE_DATA 398
# x  y  z  wallHeatFlux
-0.7975 0 0.025 -653677
-0.79239 0 0.025 -120039
-0.787056 0 0.025 -71350.4
-0.781492 0 0.025 -64757.5
-0.775691 0 0.025 -66101.5
-0.769649 0 0.025 -66669.1
-0.763362 0 0.025 -66983.4
-0.756822 0 0.025 -66712.2
-0.750025 0 0.025 -66084.2
-0.742968 0 0.025 -65100.2
-0.735648 0 0.025 -64050.6
-0.72806 0 0.025 -63042.6
-0.720203 0 0.025 -62120.4
-0.712076 0 0.025 -61182.9
-0.703677 0 0.025 -60308.4
-0.695006 0 0.025 -59512.9
-0.686065 0 0.025 -58770
-0.676855 0 0.025 -58085.2
-0.667379 0 0.025 -57356.4
-0.65764 0 0.025 -56691.4
-0.647644 0 0.025 -56135.4
-0.637397 0 0.025 -55556.6
-0.626906 0 0.025 -54973.4
-0.616179 0 0.025 -54486.8
-0.605224 0 0.025 -53952.4
-0.594054 0 0.025 -53490.9
-0.582678 0 0.025 -53015
-0.57111 0 0.025 -52574.6
-0.559364 0 0.025 -52111.8
-0.547454 0 0.025 -51699.4
-0.535396 0 0.025 -51312.3
-0.523205 0 0.025 -50974.6
-0.510901 0 0.025 -50615.5
-0.4985 0 0.025 -50225
-0.486021 0 0.025 -49870.5
-0.473483 0 0.025 -49551.5
-0.460905 0 0.025 -49234.9
-0.448308 0 0.025 -48987.4
-0.435709 0 0.025 -48743.3
-0.42313 0 0.025 -48453
-0.41059 0 0.025 -48167
-0.39811 0 0.025 -47873.9
-0.385706 0 0.025 -47616.4
-0.373398 0 0.025 -47391.3
-0.361205 0 0.025 -47208.1
-0.349141 0 0.025 -47060.3
-0.337226 0 0.025 -46880.1
-0.325475 0 0.025 -46667.1
-0.313901 0 0.025 -46432.5
-0.30252 0 0.025 -46202.4
-0.291343 0 0.025 -46016.5
-0.280382 0 0.025 -45868.1
-0.269646 0 0.025 -45729.6
-0.259148 0 0.025 -45591.6
-0.248893 0 0.025 -45444.6
-0.23889 0 0.025 -45303.5
-0.229143 0 0.025 -45172.6
-0.219659 0 0.025 -45059.6
-0.210441 0 0.025 -44989.1
-0.201491 0 0.025 -44932.6
-0.192812 0 0.025 -44884.5
-0.184405 0 0.025 -44819.6
-0.176269 0 0.025 -44747.4
-0.168404 0 0.025 -44650.4
-0.160808 0 0.025 -44542.7
-0.15348 0 0.025 -44416.8
-0.146415 0 0.025 -44275.6
-0.13961 0 0.025 -44106.4
-0.133063 0 0.025 -43944.5
-0.126767 0 0.025 -43794.2
-0.120718 0 0.025 -43671.2
-0.11491 0 0.025 -43564.9
-0.109339 0 0.025 -43475.3
-0.103997 0 0.025 -43411.7
-0.0988805 0 0.025 -43357.6
-0.0939808 0 0.025 -43327.5
-0.0892928 0 0.025 -43320.2
-0.0848096 0 0.025 -43329.1
-0.0805248 0 0.025 -43349.1
-0.0764316 0 0.025 -43380.2
-0.0725237 0 0.025 -43416.6
-0.0687943 0 0.025 -43453.9
-0.065237 0 0.025 -43485.2
-0.0618454 0 0.025 -43512.1
-0.058613 0 0.025 -43532.9
-0.0555337 0 0.025 -43554.8
-0.0526013 0 0.025 -43570.7
-0.0498099 0 0.025 -43581.5
-0.0471536 0 0.025 -43587
-0.0446266 0 0.025 -43587.1
-0.0422235 0 0.025 -43587.3
-0.039939 0 0.025 -43582.2
-0.0377676 0 0.025 -43571.3
-0.0357044 0 0.025 -43561.5
-0.0337445 0 0.025 -43555.9
-0.0318832 0 0.025 -43465
-0.0301159 0 0.025 -41352.9
-0.0284383 0 0.025 -33879
-0.0268461 0 0.025 -36355.2
-0.0253353 0 0.025 -53837.1
-0.023902 0 0.025 -64318.8
-0.0225426 0 0.025 -70720.3
-0.0212532 0 0.025 -76080
-0.0200306 0 0.025 -80891
-0.0188715 0 0.025 -84786.8
-0.0177728 0 0.025 -88356.3
-0.0167313 0 0.025 -91583.5
-0.0157444 0 0.025 -94500.5
-0.0148092 0 0.025 -97363.2
-0.0139232 0 0.025 -100125
-0.0130838 0 0.025 -102687
-0.0122887 0 0.025 -104958
-0.0115356 0 0.025 -106950
-0.0108223 0 0.025 -108709
-0.0101469 0 0.025 -110271
-0.00950727 0 0.025 -111646
-0.00890168 0 0.025 -112867
-0.00832835 0 0.025 -113999
-0.00778557 0 0.025 -115100
-0.00727176 0 0.025 -116221
-0.0067854 0 0.025 -117385
-0.00632507 0 0.025 -118636
-0.00588937 0 0.025 -119986
-0.00547703 0 0.025 -121448
-0.0050868 0 0.025 -123035
-0.00471753 0 0.025 -124746
-0.0043681 0 0.025 -126599
-0.00403746 0 0.025 -128596
-0.00372461 0 0.025 -130729
-0.0034286 0 0.025 -132999
-0.00314855 0 0.025 -135458
-0.0028836 0 0.025 -138129
-0.00263294 0 0.025 -140894
-0.00239581 0 0.025 -143537
-0.0021715 0 0.025 -146339
-0.00195929 0 0.025 -149265
-0.00175856 0 0.025 -152281
-0.00156869 0 0.025 -155390
-0.00138908 0 0.025 -158592
-0.0012192 0 0.025 -161861
-0.00105853 0 0.025 -165197
-0.000906546 0 0.025 -168570
-0.000762803 0 0.025 -171848
-0.000626848 0 0.025 -174736
-0.000498265 0 0.025 -176365
-0.000376656 0 0.025 -174901
-0.000261642 0 0.025 -166735
-0.00015287 0 0.025 -144872
-5e-05 0 0.025 -93519.2
4.14519e-05 2.79596e-05 0.025 -65972.8
0.000125371 8.45641e-05 0.025 -79433.7
0.000211347 0.000142556 0.025 -94871.2
0.000299429 0.000201968 0.025 -106186
0.000389669 0.000262835 0.025 -115688
0.000482118 0.000325193 0.025 -124739
0.000576831 0.000389077 0.025 -133273
0.000673861 0.000454524 0.025 -141008
0.000773265 0.000521574 0.025 -147842
0.0008751 0.000590262 0.025 -153846
0.000979426 0.000660632 0.025 -159142
0.0010863 0.000732721 0.025 -163852
0.00119579 0.000806572 0.025 -168211
0.00130795 0.000882227 0.025 -172259
0.00142285 0.00095973 0.025 -176044
0.00154056 0.00103912 0.025 -179696
0.00166115 0.00112046 0.025 -183220
0.00178467 0.00120378 0.025 -186707
0.00191121 0.00128913 0.025 -190180
0.00204083 0.00137656 0.025 -193594
0.00217362 0.00146612 0.025 -197072
0.00230964 0.00155787 0.025 -200607
0.00244897 0.00165185 0.025 -204156
0.00259169 0.00174812 0.025 -207790
0.00273789 0.00184673 0.025 -211540
0.00288765 0.00194774 0.025 -215419
0.00304105 0.00205122 0.025 -219392
0.00319818 0.00215719 0.025 -223486
0.00335912 0.00226575 0.025 -227792
0.00352397 0.00237695 0.025 -232237
0.00369283 0.00249085 0.025 -236892
0.00386579 0.00260751 0.025 -241730
0.00404294 0.00272699 0.025 -246800
0.00422438 0.00284938 0.025 -252133
0.00441022 0.00297474 0.025 -257740
0.00460056 0.00310312 0.025 -263632
0.00479552 0.00323462 0.025 -269805
0.00499519 0.0033693 0.025 -276370
0.00519968 0.00350723 0.025 -283230
0.00540911 0.00364849 0.025 -290542
0.00562361 0.00379318 0.025 -298274
0.00584329 0.00394134 0.025 -306435
0.00606826 0.00409309 0.025 -315192
0.00629865 0.00424849 0.025 -324400
0.0065346 0.00440764 0.025 -334208
0.00677623 0.00457063 0.025 -344734
0.00702368 0.00473753 0.025 -355845
0.00727707 0.00490844 0.025 -367789
0.00753655 0.00508347 0.025 -380520
0.00780227 0.00526269 0.025 -394305
0.00807436 0.00544622 0.025 -409044
0.00835298 0.00563415 0.025 -424610
0.00863826 0.00582659 0.025 -441709
0.00893038 0.00602362 0.025 -460841
0.00922949 0.00622537 0.025 -480502
0.00953574 0.00643195 0.025 -501424
0.00984929 0.00664345 0.025 -525313
0.0101703 0.00686 0.025 -552533
0.0104991 0.00708171 0.025 -580777
0.0108356 0.00730871 0.025 -615396
0.0111801 0.0075411 0.025 -652244
0.0115329 0.00777902 0.025 -690620
0.011894 0.00802259 0.025 -734947
0.0122637 0.00827194 0.025 -777640
0.0126421 0.00852719 0.025 -821545
0.0130295 0.0087885 0.025 -863572
0.013426 0.00905597 0.025 -906074
0.013832 0.00932978 0.025 -947957
0.0142475 0.00961003 0.025 -989846
0.0146727 0.0098969 0.025 -1.03122e+06
0.0151081 0.0101905 0.025 -1.07413e+06
0.0155536 0.010491 0.025 -1.1188e+06
0.0160097 0.0107986 0.025 -1.16389e+06
0.0164764 0.0111134 0.025 -1.21279e+06
0.016954 0.0114356 0.025 -1.26471e+06
0.0174427 0.0117653 0.025 -1.31578e+06
0.0179429 0.0121026 0.025 -1.37187e+06
0.0184548 0.0124479 0.025 -1.4362e+06
0.0189786 0.0128013 0.025 -1.48021e+06
0.0195146 0.0131628 0.025 -1.53196e+06
0.020063 0.0135327 0.025 -1.59313e+06
0.0206242 0.0139112 0.025 -1.63417e+06
0.0211983 0.0142984 0.025 -1.66606e+06
0.0217857 0.0146947 0.025 -1.70415e+06
0.0223867 0.0151 0.025 -1.73627e+06
0.0230015 0.0155147 0.025 -1.76127e+06
0.0236304 0.0159389 0.025 -1.78997e+06
0.0242738 0.0163729 0.025 -1.78846e+06
0.0249318 0.0168167 0.025 -1.79915e+06
0.025605 0.0172708 0.025 -1.80338e+06
0.0262935 0.0177352 0.025 -1.77598e+06
0.0269977 0.0182102 0.025 -1.74754e+06
0.0277178 0.0186959 0.025 -1.71003e+06
0.0284544 0.0191927 0.025 -1.72525e+06
0.0292075 0.0197008 0.025 -1.67076e+06
0.0299777 0.0202203 0.025 -1.62329e+06
0.0307653 0.0207514 0.025 -1.59379e+06
0.0315704 0.0212945 0.025 -1.56368e+06
0.0323937 0.0218499 0.025 -1.53825e+06
0.0332354 0.0224176 0.025 -1.51125e+06
0.0340959 0.022998 0.025 -1.48736e+06
0.0349755 0.0235913 0.025 -1.45472e+06
0.0358747 0.0241978 0.025 -1.45229e+06
0.0367938 0.0248178 0.025 -1.41731e+06
0.0377331 0.0254513 0.025 -1.39125e+06
0.0386932 0.0260989 0.025 -1.37283e+06
0.0396743 0.0267606 0.025 -1.3574e+06
0.0406769 0.0274369 0.025 -1.34672e+06
0.0417013 0.0281279 0.025 -1.33296e+06
0.042748 0.0288339 0.025 -1.33357e+06
0.0438175 0.0295552 0.025 -1.3206e+06
0.04491 0.0302922 0.025 -1.30912e+06
0.0460262 0.031045 0.025 -1.31007e+06
0.0471662 0.031814 0.025 -1.31692e+06
0.0483306 0.0325995 0.025 -1.30836e+06
0.0495199 0.0334016 0.025 -1.31174e+06
0.0507344 0.0342208 0.025 -1.30802e+06
0.0519746 0.0350573 0.025 -1.30397e+06
0.0532409 0.0359114 0.025 -1.30673e+06
0.0545339 0.0367835 0.025 -1.2938e+06
0.0558538 0.0376739 0.025 -1.29294e+06
0.0572012 0.0385827 0.025 -1.2929e+06
0.0585766 0.0395104 0.025 -1.2918e+06
0.0599804 0.0404573 0.025 -1.2992e+06
0.061413 0.0414236 0.025 -1.2814e+06
0.0628748 0.0424096 0.025 -1.30626e+06
0.0643665 0.0434157 0.025 -1.31033e+06
0.0658883 0.0444422 0.025 -1.28389e+06
0.0674408 0.0454894 0.025 -1.27526e+06
0.0690245 0.0465576 0.025 -1.27602e+06
0.0706398 0.0476471 0.025 -1.27055e+06
0.0722871 0.0487582 0.025 -1.26917e+06
0.0739669 0.0498912 0.025 -1.26752e+06
0.0756797 0.0510466 0.025 -1.27697e+06
0.0774258 0.0522244 0.025 -1.28818e+06
0.0792059 0.053425 0.025 -1.28177e+06
0.0810203 0.0546489 0.025 -1.3027e+06
0.0828694 0.0558961 0.025 -1.27402e+06
0.0847537 0.0571671 0.025 -1.31744e+06
0.0866737 0.0584622 0.025 -1.27743e+06
0.0886298 0.0597816 0.025 -1.27734e+06
0.0906224 0.0611256 0.025 -1.28767e+06
0.0926518 0.0624944 0.025 -1.25237e+06
0.0947185 0.0638884 0.025 -1.2947e+06
0.096823 0.065308 0.025 -1.25331e+06
0.0989659 0.0667532 0.025 -1.34191e+06
0.101147 0.0682245 0.025 -1.69462e+06
0.103367 0.0697219 0.025 -1.60133e+06
0.105626 0.0712458 0.025 -1.20695e+06
0.107926 0.0727965 0.025 -1.20299e+06
0.110265 0.074374 0.025 -1.23942e+06
0.112644 0.0759789 0.025 -1.84663e+06
0.115063 0.0776111 0.025 -1.24248e+06
0.117524 0.0792709 0.025 -1.71801e+06
0.120026 0.0809585 0.025 -1.88994e+06
0.122569 0.0826741 0.025 -1.6777e+06
0.125155 0.0844179 0.025 -1.49765e+06
0.127782 0.0861901 0.025 -1.29923e+06
0.130451 0.0879908 0.025 -1.25449e+06
0.133163 0.08982 0.025 -1.23036e+06
0.135918 0.0916781 0.025 -1.20172e+06
0.138716 0.0935651 0.025 -1.20255e+06
0.141556 0.095481 0.025 -1.21101e+06
0.14444 0.097426 0.025 -1.59625e+06
0.147367 0.0994004 0.025 -2.36307e+06
0.150337 0.101404 0.025 -1.67621e+06
0.153351 0.103437 0.025 -1.62689e+06
0.156408 0.105498 0.025 -2.27144e+06
0.159508 0.107589 0.025 -1.02992e+06
0.162651 0.10971 0.025 -1.52504e+06
0.165838 0.111859 0.025 -3.71422e+06
0.169069 0.114039 0.025 -1.61097e+06
0.172343 0.116247 0.025 -1.99763e+06
0.175659 0.118483 0.025 -1.89317e+06
0.179018 0.120749 0.025 -1.89162e+06
0.182421 0.123045 0.025 -1.96588e+06
0.185866 0.125368 0.025 -1.72138e+06
0.189353 0.12772 0.025 -1.755e+06
0.192882 0.1301 0.025 -1.86447e+06
0.196453 0.132509 0.025 -1.75579e+06
0.200065 0.134946 0.025 -2.19695e+06
0.203718 0.13741 0.025 -1.95126e+06
0.207412 0.139901 0.025 -930126
0.211146 0.14242 0.025 -991674
0.214919 0.144965 0.025 -1.6296e+06
0.218732 0.147537 0.025 -994540
0.222583 0.150134 0.025 -1.9612e+06
0.226472 0.152757 0.025 -983412
0.230399 0.155406 0.025 -1.84935e+06
0.234362 0.15808 0.025 -1.74029e+06
0.238362 0.160777 0.025 -2.36988e+06
0.242396 0.163498 0.025 -1.9607e+06
0.246466 0.166244 0.025 -2.12522e+06
0.250569 0.169012 0.025 -935968
0.254706 0.171801 0.025 -1.54385e+06
0.258874 0.174613 0.025 -1.54699e+06
0.263074 0.177446 0.025 -1.97925e+06
0.267304 0.180299 0.025 -1.59586e+06
0.271564 0.183172 0.025 -954459
0.275852 0.186064 0.025 -1.6401e+06
0.280168 0.188975 0.025 -928640
0.28451 0.191904 0.025 -1.66523e+06
0.288876 0.19485 0.025 -2.29618e+06
0.293268 0.197812 0.025 -1.62349e+06
0.297683 0.20079 0.025 -1.94861e+06
0.302119 0.203782 0.025 -1.82743e+06
0.306577 0.206788 0.025 -1.38257e+06
0.311054 0.209808 0.025 -1.59006e+06
0.315549 0.212841 0.025 -1.17337e+06
0.320063 0.215885 0.025 -2.03691e+06
0.324591 0.218939 0.025 -1.43395e+06
0.329134 0.222003 0.025 -1.42272e+06
0.333691 0.225077 0.025 -2.23666e+06
0.33826 0.228159 0.025 -1.79623e+06
0.342839 0.231248 0.025 -1.84444e+06
0.347428 0.234343 0.025 -880413
0.352025 0.237444 0.025 -1.95382e+06
0.356628 0.240548 0.025 -1.42604e+06
0.361237 0.243658 0.025 -1.16144e+06
0.36585 0.246769 0.025 -2.61051e+06
0.370465 0.249882 0.025 -1.02985e+06
0.375082 0.252996 0.025 -1.46387e+06
0.379698 0.25611 0.025 -2.57064e+06
0.384313 0.259223 0.025 -1.40491e+06
0.388926 0.262333 0.025 -1.72596e+06
0.393534 0.265442 0.025 -1.42051e+06
0.398136 0.268546 0.025 -885488
0.40273 0.271645 0.025 -1.6431e+06
0.407317 0.274739 0.025 -1.6998e+06
0.411894 0.277826 0.025 -2.1297e+06
0.41646 0.280906 0.025 -840674
0.421014 0.283977 0.025 -1.60855e+06
0.425554 0.28704 0.025 -1.89817e+06
0.430079 0.290092 0.025 -1.49294e+06
0.434588 0.293133 0.025 -1.85171e+06
0.439079 0.296162 0.025 -1.28692e+06
0.443551 0.299179 0.025 -1.68054e+06
0.448004 0.302183 0.025 -1.70985e+06
0.452437 0.305172 0.025 -1.6674e+06
0.456846 0.308146 0.025 -1.54787e+06
0.461232 0.311105 0.025 -1.57385e+06
0.465593 0.314047 0.025 -1.4573e+06
0.469929 0.316971 0.025 -1.93921e+06
0.474238 0.319878 0.025 -997726
0.47852 0.322766 0.025 -1.11948e+06
0.482773 0.325635 0.025 -888020
0.486996 0.328483 0.025 -1.33819e+06
0.491189 0.331311 0.025 -2.03729e+06
0.49535 0.334118 0.025 -1.29718e+06
