# p  FACE_DATA 317
# x  y  z  p
-2.24217 0 0.27 23912
-2.12942 0 0.27 23878.3
-2.02231 0 0.27 23851.9
-1.92055 0 0.27 23841.9
-1.82389 0 0.27 23839.2
-1.73207 0 0.27 23834.2
-1.64485 0 0.27 23827
-1.562 0 0.27 23822.6
-1.48331 0 0.27 23822.1
-1.40856 0 0.27 23819.9
-1.33756 0 0.27 23811.9
-1.27013 0 0.27 23798.2
-1.20608 0 0.27 23779.8
-1.14539 0 0.27 23758.7
-1.08787 0 0.27 23739.4
-1.03323 0 0.27 23722.5
-0.981322 0 0.27 23707.7
-0.932014 0 0.27 23695.8
-0.885173 0 0.27 23686.7
-0.84068 0 0.27 23679.9
-0.798416 0 0.27 23675.3
-0.758473 0 0.27 23672.3
-0.720912 0 0.27 23670.7
-0.685558 0 0.27 23670.1
-0.652245 0 0.27 23670
-0.620811 0 0.27 23670.1
-0.591171 0 0.27 23670
-0.563165 0 0.27 23670.2
-0.536572 0 0.27 23671.1
-0.51125 0 0.27 23672.7
-0.487059 0 0.27 23675.1
-0.463863 0 0.27 23678.6
-0.441526 0 0.27 23683.1
-0.419915 0 0.27 23688.3
-0.398896 0 0.27 23693.8
-0.378338 0 0.27 23699.6
-0.358104 0 0.27 23705.3
-0.33806 0 0.27 23708.5
-0.318069 0 0.27 23736.4
-0.296809 0 0.27 23752.8
-0.275112 0 0.27 23736.3
-0.255001 0 0.27 23732.3
-0.23636 0 0.27 23758.8
-0.219081 0 0.27 23749.7
-0.203066 0 0.27 23728.8
-0.188221 0 0.27 23726.4
-0.174462 0 0.27 23724.1
-0.161708 0 0.27 23724.4
-0.149886 0 0.27 23725.2
-0.138929 0 0.27 23724.7
-0.128773 0 0.27 23725.1
-0.119359 0 0.27 23724.4
-0.110632 0 0.27 23724.4
-0.102544 0 0.27 23724.4
-0.0950472 0 0.27 23725
-0.0880983 0 0.27 23725.1
-0.0816572 0 0.27 23725.1
-0.0756869 0 0.27 23725.9
-0.070153 0 0.27 23723.7
-0.0650234 0 0.27 23747.5
-0.0602687 0 0.27 24808.2
-0.0558616 0 0.27 31582.5
-0.0517765 0 0.27 40784.4
-0.0479899 0 0.27 44654
-0.04448 0 0.27 47072.4
-0.0412265 0 0.27 48671.2
-0.0382106 0 0.27 49837.7
-0.0354151 0 0.27 50781.6
-0.0328237 0 0.27 51570.9
-0.0304215 0 0.27 52250.4
-0.0281948 0 0.27 52845.7
-0.0261306 0 0.27 53374.5
-0.0242171 0 0.27 53848.6
-0.0224431 0 0.27 54276.2
-0.0207985 0 0.27 54664
-0.0192738 0 0.27 55015.6
-0.0178602 0 0.27 55335.4
-0.0165496 0 0.27 55626.2
-0.0153345 0 0.27 55890.9
-0.0142077 0 0.27 56131.5
-0.0131629 0 0.27 56350.9
-0.0121939 0 0.27 56551.5
-0.0112952 0 0.27 56735.6
-0.0104616 0 0.27 56905.1
-0.0096884 0 0.27 57062
-0.00897103 0 0.27 57207.6
-0.00830536 0 0.27 57343.6
-0.00768758 0 0.27 57470.9
-0.0071141 0 0.27 57590.6
-0.00658165 0 0.27 57703
-0.00608714 0 0.27 57809.5
-0.00562772 0 0.27 57910.1
-0.00520074 0 0.27 58005.3
-0.00480375 0 0.27 58095.5
-0.00443446 0 0.27 58181
-0.00409073 0 0.27 58261.8
-0.00377059 0 0.27 58338.4
-0.00347218 0 0.27 58409.2
-0.00319379 0 0.27 58483.4
-0.00293381 0 0.27 58547.4
-0.00269075 0 0.27 58609
-0.00246319 0 0.27 58667.3
-0.00224984 0 0.27 58722.6
-0.00204945 0 0.27 58774.7
-0.00186089 0 0.27 58824.2
-0.00168306 0 0.27 58870.7
-0.00151492 0 0.27 58914.8
-0.00135552 0 0.27 58955.8
-0.00120394 0 0.27 58994.9
-0.00105929 0 0.27 59030.7
-0.000920752 0 0.27 59064.8
-0.000787523 0 0.27 59095
-0.000658834 0 0.27 59122.8
-0.000533942 0 0.27 59146.4
-0.000412129 0 0.27 59163.5
-0.000292693 0 0.27 59179.6
-0.000174943 0 0.27 59159.1
-5.82025e-05 0 0.27 59358.5
6.0278e-05 2.68374e-05 0.27 58639.2
0.000182584 8.12915e-05 0.27 58861.5
0.000308438 0.000137325 0.27 58819.5
0.000437939 0.000194983 0.27 58806.5
0.00057119 0.00025431 0.27 58794.7
0.000708293 0.000315353 0.27 58796.6
0.000849358 0.000378158 0.27 58807.9
0.000994492 0.000442776 0.27 58824
0.00114381 0.000509256 0.27 58847.4
0.00129743 0.000577649 0.27 58874.1
0.00145545 0.000648007 0.27 58906.2
0.00161801 0.000720386 0.27 58941.4
0.00178523 0.000794839 0.27 58981
0.00195724 0.000871423 0.27 59023.6
0.00213417 0.000950195 0.27 59069.9
0.00231614 0.00103122 0.27 59119.2
0.0025033 0.00111455 0.27 59172.1
0.00269579 0.00120024 0.27 59227.8
0.00289374 0.00128838 0.27 59286.8
0.00309731 0.00137901 0.27 59348.9
0.00330663 0.00147221 0.27 59414.9
0.00352187 0.00156804 0.27 59484.1
0.00374317 0.00166657 0.27 59555.6
0.0039707 0.00176788 0.27 59630.5
0.00420463 0.00187202 0.27 59708.7
0.00444512 0.0019791 0.27 59790.2
0.00469233 0.00208916 0.27 59875.3
0.00494645 0.0022023 0.27 59963.8
0.00520763 0.00231859 0.27 60055.8
0.00547608 0.00243811 0.27 60151.4
0.00575197 0.00256094 0.27 60250.7
0.00603549 0.00268717 0.27 60353.6
0.00632683 0.00281688 0.27 60460.4
0.00662618 0.00295016 0.27 60571.2
0.00693375 0.0030871 0.27 60685.9
0.00724974 0.0032278 0.27 60804.8
0.00757435 0.00337232 0.27 60928
0.0079078 0.00352077 0.27 61055.5
0.00825029 0.00367327 0.27 61187.5
0.00860204 0.00382988 0.27 61324.2
0.00896328 0.00399071 0.27 61465.6
0.00933422 0.00415586 0.27 61612
0.0097151 0.00432544 0.27 61763.6
0.0101061 0.00449954 0.27 61920.6
0.0105076 0.00467828 0.27 62083.2
0.0109197 0.00486175 0.27 62251.5
0.0113426 0.00505007 0.27 62426
0.0117768 0.00524333 0.27 62606.6
0.0122222 0.00544166 0.27 62793.7
0.0126792 0.00564515 0.27 62987.4
0.0131482 0.00585394 0.27 63188.5
0.0136292 0.00606812 0.27 63396.6
0.0141227 0.00628781 0.27 63612.5
0.0146288 0.00651313 0.27 63836.3
0.0151477 0.00674419 0.27 64068
0.0156799 0.00698113 0.27 64308.2
0.0162254 0.00722403 0.27 64557.1
0.0167847 0.00747303 0.27 64815
0.017358 0.00772826 0.27 65082.2
0.0179454 0.00798982 0.27 65358.8
0.0185474 0.00825783 0.27 65645
0.0191641 0.00853242 0.27 65941.1
0.0197959 0.00881371 0.27 66247.1
0.0204431 0.00910183 0.27 66563.2
0.0211057 0.00939688 0.27 66889.3
0.0217843 0.00969898 0.27 67225.8
0.0224789 0.0100083 0.27 67572.8
0.02319 0.0103248 0.27 67930.3
0.0239176 0.0106488 0.27 68298.7
0.0246623 0.0109804 0.27 68677.7
0.025424 0.0113195 0.27 69067.6
0.0262032 0.0116664 0.27 69468.3
0.0270001 0.0120212 0.27 69879.6
0.0278149 0.012384 0.27 70301.3
0.0286479 0.0127549 0.27 70733.5
0.0294992 0.0131339 0.27 71175.4
0.0303692 0.0135212 0.27 71627.7
0.0312581 0.013917 0.27 72090
0.0321659 0.0143213 0.27 72562.1
0.0330931 0.014734 0.27 73044.2
0.0340398 0.0151555 0.27 73536.3
0.0350062 0.0155858 0.27 74038.3
0.0359924 0.0160249 0.27 74549.9
0.0369987 0.0164729 0.27 75072.1
0.0380251 0.0169299 0.27 75602.9
0.0390719 0.0173959 0.27 76142.6
0.0401391 0.0178711 0.27 76690.4
0.041227 0.0183554 0.27 77244
0.0423356 0.018849 0.27 77804.8
0.043465 0.0193519 0.27 78371.9
0.0446154 0.0198641 0.27 78942.4
0.0457867 0.0203856 0.27 79516.4
0.046979 0.0209164 0.27 80091.4
0.0481924 0.0214567 0.27 80666.9
0.0494267 0.0220063 0.27 81240.8
0.0506823 0.0225652 0.27 81811.3
0.0519588 0.0231335 0.27 82377
0.0532563 0.0237113 0.27 82935.2
0.0545749 0.0242983 0.27 83485.7
0.0559142 0.0248946 0.27 84026.1
0.0572744 0.0255002 0.27 84556.4
0.0586552 0.0261149 0.27 85074.8
0.0600565 0.0267388 0.27 85582.3
0.0614781 0.0273718 0.27 86079.5
0.0629198 0.0280137 0.27 86567
0.0643815 0.0286645 0.27 87047.9
0.0658629 0.029324 0.27 87521.9
0.0673636 0.0299922 0.27 87992
0.0688836 0.030669 0.27 88458
0.0704223 0.0313541 0.27 88920.9
0.0719795 0.0320474 0.27 89382.7
0.0735549 0.0327488 0.27 89841.9
0.075148 0.0334581 0.27 90298.1
0.0767585 0.0341751 0.27 90750.6
0.0783859 0.0348996 0.27 91196.9
0.0800297 0.0356315 0.27 91637.9
0.0816895 0.0363706 0.27 92074.1
0.0833647 0.0371164 0.27 92498.3
0.085055 0.0378689 0.27 92912.1
0.0867595 0.0386278 0.27 93308.1
0.0884779 0.0393929 0.27 93684.2
0.0902095 0.0401639 0.27 94038.9
0.0919538 0.0409405 0.27 94370.5
0.09371 0.0417224 0.27 94677.9
0.0954776 0.0425094 0.27 94963.2
0.0972558 0.0433011 0.27 95229.8
0.0990439 0.0440972 0.27 95479.5
0.100841 0.0448975 0.27 95707.5
0.102647 0.0457015 0.27 95914.1
0.104461 0.046509 0.27 96121.6
0.106282 0.0473197 0.27 96310.1
0.108109 0.0481331 0.27 96507.1
0.109941 0.048949 0.27 96692
0.111779 0.0497671 0.27 96867.8
0.11362 0.0505868 0.27 97046.7
0.115464 0.051408 0.27 97260.8
0.117311 0.0522302 0.27 97462.9
0.11916 0.0530531 0.27 97660.3
0.121009 0.0538763 0.27 97912.8
0.122857 0.0546995 0.27 98153.9
0.124705 0.0555223 0.27 98388.6
0.126552 0.0563444 0.27 98635.4
0.128395 0.0571653 0.27 98886.6
0.130236 0.0579847 0.27 99136.3
0.132072 0.0588023 0.27 99382.2
0.133904 0.0596177 0.27 99620.5
0.13573 0.0604306 0.27 99831.1
0.137549 0.0612407 0.27 100002
0.139361 0.0620475 0.27 100154
0.141165 0.0628508 0.27 100254
0.14296 0.0636503 0.27 100386
0.144747 0.0644455 0.27 100489
0.146523 0.0652363 0.27 100553
0.148288 0.0660222 0.27 100598
0.150042 0.0668031 0.27 100614
0.151784 0.0675785 0.27 100650
0.153513 0.0683483 0.27 100636
0.155228 0.0691121 0.27 100617
0.15693 0.0698698 0.27 100625
0.158617 0.070621 0.27 100616
0.160289 0.0713654 0.27 100616
0.161946 0.072103 0.27 100605
0.163586 0.0728334 0.27 100594
0.165211 0.0735564 0.27 100609
0.166817 0.0742718 0.27 100625
0.168406 0.0749795 0.27 100670
0.169978 0.0756793 0.27 100728
0.171532 0.0763709 0.27 100785
0.173067 0.0770543 0.27 100863
0.174583 0.0777293 0.27 100942
0.17608 0.0783958 0.27 101070
0.177557 0.0790535 0.27 101228
0.179014 0.0797025 0.27 101313
0.180452 0.0803425 0.27 101430
0.18187 0.0809736 0.27 101603
0.183266 0.0815956 0.27 101790
0.184643 0.0822085 0.27 102013
0.185999 0.0828122 0.27 102221
0.187334 0.0834066 0.27 102424
0.188648 0.0839917 0.27 102661
0.189942 0.0845675 0.27 102885
0.191214 0.0851339 0.27 103171
0.192465 0.085691 0.27 103413
0.193695 0.0862387 0.27 103692
0.194904 0.086777 0.27 103994
0.196093 0.0873059 0.27 104289
0.197259 0.0878254 0.27 104573
0.198405 0.0883357 0.27 104863
0.19953 0.0888366 0.27 105175
0.200635 0.0893284 0.27 105506
0.201718 0.0898108 0.27 105797
0.202782 0.0902841 0.27 106071
0.203824 0.0907483 0.27 106337
0.204846 0.0912035 0.27 106554
0.205848 0.0916496 0.27 106781
0.206831 0.0920869 0.27 107014
0.207793 0.0925153 0.27 107211
0.208735 0.092935 0.27 107439
0.209658 0.093346 0.27 107324
