# Wall heat-flux
# Time        	patch         	min           	max           	integral      
11300         	base	-3.714218e+06	-3.387895e+04	-9.655852e+03
