4.96314e-06 	21.3662 	-0.016942 	0
1.48429e-05 	62.9494 	-0.0462765 	0
2.46948e-05 	103.368 	-0.0722383 	0
3.46404e-05 	143.22 	-0.0993303 	0
4.47862e-05 	183 	-0.127289 	0
5.52311e-05 	223.065 	-0.156144 	0
6.60699e-05 	263.624 	-0.185709 	0
7.73965e-05 	304.724 	-0.215774 	0
8.93058e-05 	346.26 	-0.24602 	0
0.000101896 	387.997 	-0.276042 	0
0.000115268 	429.626 	-0.305394 	0
0.00012953 	470.823 	-0.333627 	0
0.000144795 	511.284 	-0.360058 	0
0.000161185 	550.743 	-0.383819 	0
0.000178829 	588.977 	-0.404239 	0
0.000197868 	625.799 	-0.420518 	0
0.00021845 	661.051 	-0.432089 	0
0.000240738 	694.605 	-0.438445 	0
0.000264909 	726.37 	-0.439056 	0
0.000291153 	756.325 	-0.43269 	0
0.000319676 	784.55 	-0.419586 	0
0.000350703 	811.233 	-0.399583 	0
0.000384479 	836.617 	-0.371906 	0
0.000421271 	860.915 	-0.336904 	0
0.000461366 	884.26 	-0.294469 	0
0.000505082 	906.733 	-0.245049 	0
0.000552762 	928.4 	-0.189174 	0
0.000604783 	949.318 	-0.127644 	0
0.000661554 	969.542 	-0.0614002 	0
0.000723523 	989.126 	0.00848969 	0
0.000791177 	1008.13 	0.0809005 	0
0.00086505 	1026.61 	0.154611 	0
0.000945722 	1044.63 	0.22835 	0
0.00103383 	1062.25 	0.300819 	0
0.00113007 	1079.55 	0.370867 	0
0.0012352 	1096.58 	0.437498 	0
0.00135004 	1113.4 	0.499901 	0
0.0014755 	1130.07 	0.557531 	0
0.00161258 	1146.64 	0.610237 	0
0.00176234 	1163.17 	0.658255 	0
0.00192597 	1179.7 	0.702237 	0
0.00210476 	1196.28 	0.743552 	0
0.00230012 	1212.95 	0.783847 	0
0.00251358 	1229.78 	0.826035 	0
0.00274683 	1246.79 	0.873078 	0
0.00300171 	1264.03 	0.929163 	0
0.00328023 	1281.58 	0.999523 	0
0.00358457 	1299.45 	1.08861 	0
0.00391714 	1317.71 	1.20648 	0
0.00428056 	1336.4 	1.36139 	0
0.00467769 	1355.57 	1.56592 	0
0.00511167 	1375.22 	1.83594 	0
0.00558591 	1395.29 	2.19913 	0
0.00610416 	1415.69 	2.67988 	0
0.0066705 	1436.11 	3.35703 	0
0.0072894 	1455.62 	4.28861 	0
0.00796574 	1471.22 	5.63654 	0
0.00855799 	1478.7 	6.85404 	0
0.00894392 	1481.04 	7.58486 	0
0.00951253 	1482.3 	8.30405 	0
0.0103952 	1482.67 	8.81267 	0
0.0113598 	1482.69 	8.91639 	0
0.0124139 	1482.72 	8.96896 	0
0.013566 	1482.74 	9.01575 	0
0.0148251 	1482.79 	9.25073 	0
0.0162011 	1482.83 	9.41767 	0
0.017705 	1482.87 	9.6867 	0
0.0193486 	1482.9 	9.81375 	0
0.0202967 	1482.91 	9.90588 	0
0.0212348 	1482.92 	9.98643 	0
0.0231084 	1482.91 	10.0544 	0
0.0252543 	1482.9 	10.015 	0
0.0276001 	1482.85 	9.76931 	0
0.0301448 	1482.83 	9.54109 	0
0.031484 	1482.81 	9.47122 	0
0.0329673 	1482.8 	9.47709 	0
0.0360314 	1482.79 	9.61867 	0
0.0393815 	1482.81 	10.013 	0
0.041589 	1482.83 	10.3046 	0
0.0435022 	1482.83 	10.5269 	0
0.0470499 	1482.84 	10.8578 	0
0.0506434 	1482.82 	11.0633 	0
0.0529317 	1482.81 	11.1314 	0
0.0562215 	1482.78 	11.1674 	0
0.0602482 	1482.72 	11.2148 	0
0.0629866 	1482.66 	11.3142 	0
0.0671978 	1482.56 	11.543 	0
0.07057 	1482.62 	11.3919 	0
0.0738498 	1482.7 	11.1696 	0
0.078218 	1482.86 	10.424 	0
0.0818093 	1483.05 	8.8457 	0
0.0859665 	1483.35 	5.48558 	0
0.0899001 	1483.59 	3.12771 	0
0.0938543 	1483.8 	1.5599 	0
0.098165 	1483.93 	0.52286 	0
0.101925 	1483.97 	0.259642 	0
0.106651 	1484 	0.0207156 	0
0.110224 	1484 	0.0124521 	0
0.113967 	1484 	0.00313707 	0
0.118805 	1484 	0.000166886 	0
0.122029 	1484 	9.70848e-05 	0
0.126872 	1484 	4.55783e-07 	0
0.130784 	1484 	3.2187e-07 	0
0.133691 	1484 	2.04417e-07 	0
0.138506 	1484 	5.51646e-10 	0
0.142708 	1484 	2.49673e-10 	0
0.145325 	1484 	1.13977e-10 	0
0.148982 	1484 	2.21798e-12 	0
0.15382 	1484 	-3.54453e-11 	0
0.15705 	1484 	-4.33937e-11 	0
0.159283 	1484 	-4.17276e-11 	0
0.16276 	1484 	-2.36479e-11 	0
0.166887 	1484 	3.59188e-12 	0
0.1708 	1484 	1.38136e-12 	0
0.172904 	1484 	5.28541e-13 	0
0.174709 	1484 	-8.45173e-14 	0
0.178025 	1484 	-6.15834e-13 	0
0.181359 	1484 	-3.08832e-14 	0
0.184518 	1484 	1.86743e-13 	0
0.187512 	1484 	-1.77069e-13 	0
0.189414 	1484 	-3.0982e-13 	0
0.190794 	1484 	-4.05592e-13 	0
0.193039 	1484 	-4.67548e-13 	0
0.195586 	1484 	-4.89198e-13 	0
0.197999 	1484 	-4.91477e-13 	0
0.200286 	1484 	-5.86316e-13 	0
0.202452 	1484 	-7.44024e-13 	0
0.204504 	1484 	-4.11084e-13 	0
0.206447 	1484 	-3.09742e-13 	0
0.207887 	1484 	-2.6591e-13 	0
0.208782 	1484 	-2.2809e-13 	0
0.21003 	1484 	-1.34302e-13 	0
0.21168 	1484 	-1.21847e-14 	0
0.213242 	1484 	9.9956e-14 	0
0.214721 	1484 	2.10313e-13 	0
0.216122 	1484 	2.61699e-13 	0
0.217447 	1484 	2.95167e-13 	0
0.218702 	1484 	1.57929e-13 	0
0.219889 	1484 	1.93559e-13 	0
0.221014 	1484 	1.85282e-13 	0
0.222078 	1484 	1.11609e-13 	0
0.223085 	1484 	2.77312e-14 	0
0.224038 	1484 	-1.53366e-13 	0
0.22494 	1484 	-2.8806e-13 	0
0.225793 	1484 	-3.87773e-13 	0
0.2266 	1484 	-4.26553e-13 	0
0.227363 	1484 	-4.99341e-13 	0
0.228086 	1484 	-5.4265e-13 	0
0.228681 	1484 	-5.8696e-13 	0
0.229013 	1484 	-6.2667e-13 	0
0.229416 	1484 	-6.47277e-13 	0
0.230028 	1484 	-6.29897e-13 	0
0.230607 	1484 	-5.79192e-13 	0
0.231154 	1484 	-5.56441e-13 	0
0.231672 	1484 	-5.79375e-13 	0
0.232161 	1484 	-5.62337e-13 	0
0.232625 	1484 	-6.74692e-13 	0
0.233063 	1484 	-6.18554e-13 	0
0.233478 	1484 	-4.94481e-13 	0
0.23387 	1484 	-5.58676e-13 	0
0.234241 	1484 	-5.19725e-13 	0
0.234591 	1484 	-4.75974e-13 	0
0.234924 	1484 	-4.46547e-13 	0
0.235237 	1484 	-5.90358e-13 	0
0.235535 	1484 	-4.75712e-13 	0
0.235816 	1484 	-4.30772e-13 	0
0.236082 	1484 	-4.92406e-13 	0
0.236335 	1484 	-5.58688e-13 	0
0.236575 	1484 	-5.37158e-13 	0
0.236811 	1484 	-5.28192e-13 	0
0.237052 	1484 	-5.56058e-13 	0
0.237298 	1484 	-6.12819e-13 	0
0.237548 	1484 	-6.21248e-13 	0
0.237805 	1484 	-6.84985e-13 	0
0.238067 	1484 	-7.0224e-13 	0
0.238335 	1484 	-7.09222e-13 	0
0.23861 	1484 	-7.82541e-13 	0
0.238891 	1484 	-7.88116e-13 	0
0.239179 	1484 	-9.61998e-13 	0
0.239474 	1484 	-1.04404e-12 	0
0.239775 	1484 	-8.49047e-13 	0
0.240085 	1484 	-1.30426e-12 	0
0.240402 	1484 	-1.59786e-12 	0
0.240727 	1484 	-1.66655e-12 	0
0.241058 	1484 	-1.91029e-12 	0
0.241398 	1484 	-2.15539e-12 	0
0.241747 	1484 	-2.26243e-12 	0
0.242104 	1484 	-2.13728e-12 	0
0.242469 	1484 	-1.75778e-12 	0
0.242844 	1484 	-2.10446e-12 	0
0.243227 	1484 	-4.74679e-12 	0
0.24362 	1484 	-6.99755e-12 	0
0.244022 	1484 	-1.18162e-11 	0
0.244434 	1484 	-1.77107e-11 	0
0.244855 	1484 	-2.14115e-11 	0
0.245287 	1484 	-2.03977e-11 	0
0.245728 	1484 	-1.07848e-11 	0
0.246182 	1484 	2.35666e-11 	0
0.246646 	1484 	1.19541e-10 	0
0.24712 	1484 	3.14665e-10 	0
0.247605 	1484 	6.78972e-10 	0
0.248102 	1484 	1.31719e-09 	0
0.248612 	1484 	2.38085e-09 	0
0.249133 	1484 	4.07114e-09 	0
0.249667 	1484 	6.66481e-09 	0
0.250213 	1484 	1.05184e-08 	0
0.250772 	1484 	1.60842e-08 	0
0.251345 	1484 	2.39074e-08 	0
0.251931 	1484 	3.46543e-08 	0
0.252531 	1484 	4.90855e-08 	0
0.253145 	1484 	6.80759e-08 	0
0.253587 	1484 	8.45235e-08 	0
0.253906 	1484 	9.82463e-08 	0
0.254418 	1484 	1.23465e-07 	0
0.255076 	1484 	1.61911e-07 	0
0.25575 	1484 	2.0899e-07 	0
0.25644 	1484 	2.65714e-07 	0
0.257146 	1484 	3.33062e-07 	0
0.257868 	1484 	4.11861e-07 	0
0.258608 	1484 	5.02584e-07 	0
0.259364 	1484 	6.05574e-07 	0
0.260139 	1484 	7.20795e-07 	0
0.260931 	1484 	8.47785e-07 	0
0.261741 	1484 	9.85649e-07 	0
0.262571 	1484 	1.13274e-06 	0
0.263419 	1484 	1.28705e-06 	0
0.264287 	1484 	1.44611e-06 	0
0.265176 	1484 	1.60646e-06 	0
0.266085 	1484 	1.76404e-06 	0
0.267014 	1484 	1.91374e-06 	0
0.267965 	1484 	2.05601e-06 	0
0.268938 	1484 	2.19085e-06 	0
0.269932 	1484 	2.30282e-06 	0
0.27095 	1484 	2.38387e-06 	0
0.271991 	1484 	2.42619e-06 	0
0.273056 	1484 	2.42854e-06 	0
0.274145 	1484 	2.39087e-06 	0
0.275258 	1484 	2.31613e-06 	0
0.276397 	1484 	2.17397e-06 	0
0.277562 	1484 	1.95916e-06 	0
0.278752 	1484 	1.66937e-06 	0
0.279969 	1484 	1.30005e-06 	0
0.281073 	1484 	9.01324e-07 	0
0.281704 	1484 	6.53962e-07 	0
0.282492 	1484 	3.06483e-07 	0
0.283802 	1484 	-3.24755e-07 	0
0.285142 	1484 	-1.05176e-06 	0
0.286512 	1484 	-1.87511e-06 	0
0.287913 	1484 	-2.79092e-06 	0
0.289346 	1484 	-3.79256e-06 	0
0.290812 	1484 	-4.87144e-06 	0
0.29231 	1484 	-6.01777e-06 	0
0.293842 	1484 	-7.21889e-06 	0
0.295409 	1484 	-8.4626e-06 	0
0.29701 	1484 	-9.68436e-06 	0
0.298648 	1484 	-1.07677e-05 	0
0.300322 	1484 	-1.18177e-05 	0
0.302032 	1484 	-1.28148e-05 	0
0.303782 	1484 	-1.37377e-05 	0
0.305569 	1484 	-1.45668e-05 	0
0.307397 	1484 	-1.52815e-05 	0
0.309265 	1484 	-1.58612e-05 	0
0.310844 	1484 	-1.62327e-05 	0
0.311808 	1484 	-1.64011e-05 	0
0.313121 	1484 	-1.65563e-05 	0
0.315112 	1484 	-1.66388e-05 	0
0.317146 	1484 	-1.65213e-05 	0
0.319224 	1484 	-1.61905e-05 	0
0.321348 	1484 	-1.56416e-05 	0
0.323518 	1484 	-1.48636e-05 	0
0.325733 	1484 	-1.38507e-05 	0
0.327996 	1484 	-1.28141e-05 	0
0.330308 	1484 	-1.26314e-05 	0
0.332669 	1484 	-1.23368e-05 	0
0.33508 	1484 	-1.19282e-05 	0
0.337542 	1484 	-1.14113e-05 	0
0.340057 	1484 	-1.07842e-05 	0
0.342457 	1484 	-1.01032e-05 	0
0.343757 	1484 	-9.70532e-06 	0
0.345282 	1484 	-9.2106e-06 	0
0.348019 	1484 	-8.26351e-06 	0
0.350819 	1484 	-7.21664e-06 	0
0.35368 	1484 	-6.07538e-06 	0
0.356603 	1484 	-4.83978e-06 	0
0.359592 	1484 	-3.51454e-06 	0
0.362645 	1484 	-2.66022e-06 	0
0.365765 	1484 	-2.13872e-06 	0
0.368952 	1484 	-1.59164e-06 	0
0.372208 	1484 	-1.01936e-06 	0
0.375533 	1484 	-4.23085e-07 	0
0.377533 	1484 	-5.89823e-08 	0
