# p  FACE_DATA 398
# x  y  z  p
-0.7975 0 0.025 4472.32
-0.79239 0 0.025 3675.17
-0.787056 0 0.025 2940.69
-0.781492 0 0.025 2845.72
-0.775691 0 0.025 2791.62
-0.769649 0 0.025 2787.8
-0.763362 0 0.025 2814.64
-0.756822 0 0.025 2835.57
-0.750025 0 0.025 2850.71
-0.742968 0 0.025 2857.85
-0.735648 0 0.025 2861.66
-0.72806 0 0.025 2862.85
-0.720203 0 0.025 2863.38
-0.712076 0 0.025 2862.72
-0.703677 0 0.025 2862.6
-0.695006 0 0.025 2862.25
-0.686065 0 0.025 2861.05
-0.676855 0 0.025 2860.82
-0.667379 0 0.025 2857.04
-0.65764 0 0.025 2852.94
-0.647644 0 0.025 2852.46
-0.637397 0 0.025 2850.77
-0.626906 0 0.025 2846.64
-0.616179 0 0.025 2846.34
-0.605224 0 0.025 2842.63
-0.594054 0 0.025 2840.76
-0.582678 0 0.025 2837.64
-0.57111 0 0.025 2835.92
-0.559364 0 0.025 2832.44
-0.547454 0 0.025 2830.67
-0.535396 0 0.025 2828.24
-0.523205 0 0.025 2825.8
-0.510901 0 0.025 2824.09
-0.4985 0 0.025 2821.09
-0.486021 0 0.025 2818.95
-0.473483 0 0.025 2817.73
-0.460905 0 0.025 2815.65
-0.448308 0 0.025 2813.81
-0.435709 0 0.025 2811.41
-0.42313 0 0.025 2808.17
-0.41059 0 0.025 2805.6
-0.39811 0 0.025 2805.86
-0.385706 0 0.025 2806.61
-0.373398 0 0.025 2805.28
-0.361205 0 0.025 2801.5
-0.349141 0 0.025 2797.3
-0.337226 0 0.025 2794.63
-0.325475 0 0.025 2794.29
-0.313901 0 0.025 2796.64
-0.30252 0 0.025 2797.98
-0.291343 0 0.025 2798.45
-0.280382 0 0.025 2796.32
-0.269646 0 0.025 2792.14
-0.259148 0 0.025 2787.45
-0.248893 0 0.025 2783.32
-0.23889 0 0.025 2780.29
-0.229143 0 0.025 2779.02
-0.219659 0 0.025 2779.69
-0.210441 0 0.025 2783.43
-0.201491 0 0.025 2787.35
-0.192812 0 0.025 2790.66
-0.184405 0 0.025 2792.3
-0.176269 0 0.025 2792.84
-0.168404 0 0.025 2791.6
-0.160808 0 0.025 2789.16
-0.15348 0 0.025 2785.63
-0.146415 0 0.025 2781.41
-0.13961 0 0.025 2776.8
-0.133063 0 0.025 2772.8
-0.126767 0 0.025 2769.35
-0.120718 0 0.025 2766.7
-0.11491 0 0.025 2764.75
-0.109339 0 0.025 2763.53
-0.103997 0 0.025 2762.91
-0.0988805 0 0.025 2762.77
-0.0939808 0 0.025 2763.16
-0.0892928 0 0.025 2764
-0.0848096 0 0.025 2765.35
-0.0805248 0 0.025 2767.23
-0.0764316 0 0.025 2769.49
-0.0725237 0 0.025 2771.91
-0.0687943 0 0.025 2774.29
-0.065237 0 0.025 2776.42
-0.0618454 0 0.025 2778.22
-0.058613 0 0.025 2779.69
-0.0555337 0 0.025 2780.93
-0.0526013 0 0.025 2781.97
-0.0498099 0 0.025 2782.88
-0.0471536 0 0.025 2783.65
-0.0446266 0 0.025 2784.29
-0.0422235 0 0.025 2784.77
-0.039939 0 0.025 2785.12
-0.0377676 0 0.025 2785.33
-0.0357044 0 0.025 2785.41
-0.0337445 0 0.025 2785.29
-0.0318832 0 0.025 2787.58
-0.0301159 0 0.025 2891.31
-0.0284383 0 0.025 3973.69
-0.0268461 0 0.025 5797.79
-0.0253353 0 0.025 7004.8
-0.023902 0 0.025 7804.05
-0.0225426 0 0.025 8325.01
-0.0212532 0 0.025 8750.39
-0.0200306 0 0.025 9096.31
-0.0188715 0 0.025 9396.62
-0.0177728 0 0.025 9657.92
-0.0167313 0 0.025 9886.31
-0.0157444 0 0.025 10093.9
-0.0148092 0 0.025 10284
-0.0139232 0 0.025 10459.7
-0.0130838 0 0.025 10622.3
-0.0122887 0 0.025 10772.9
-0.0115356 0 0.025 10911.9
-0.0108223 0 0.025 11039.5
-0.0101469 0 0.025 11156.1
-0.00950727 0 0.025 11261.8
-0.00890168 0 0.025 11357.2
-0.00832835 0 0.025 11443
-0.00778557 0 0.025 11520.4
-0.00727176 0 0.025 11590.3
-0.0067854 0 0.025 11653.9
-0.00632507 0 0.025 11712.6
-0.00588937 0 0.025 11767.8
-0.00547703 0 0.025 11820.8
-0.0050868 0 0.025 11872.6
-0.00471753 0 0.025 11924.5
-0.0043681 0 0.025 11978.9
-0.00403746 0 0.025 12036.2
-0.00372461 0 0.025 12097.3
-0.0034286 0 0.025 12162.9
-0.00314855 0 0.025 12234.1
-0.0028836 0 0.025 12313.7
-0.00263294 0 0.025 12400.9
-0.00239581 0 0.025 12490.9
-0.0021715 0 0.025 12587.8
-0.00195929 0 0.025 12690.7
-0.00175856 0 0.025 12799.1
-0.00156869 0 0.025 12912
-0.00138908 0 0.025 13028.6
-0.0012192 0 0.025 13147.7
-0.00105853 0 0.025 13268
-0.000906546 0 0.025 13387.2
-0.000762803 0 0.025 13502.4
-0.000626848 0 0.025 13608.6
-0.000498265 0 0.025 13698.5
-0.000376656 0 0.025 13762.3
-0.000261642 0 0.025 13791.7
-0.00015287 0 0.025 13794.1
-5e-05 0 0.025 13876.6
4.14519e-05 2.79596e-05 0.025 13448.2
0.000125371 8.45641e-05 0.025 13537.6
0.000211347 0.000142556 0.025 13500
0.000299429 0.000201968 0.025 13428.1
0.000389669 0.000262835 0.025 13342.3
0.000482118 0.000325193 0.025 13253.2
0.000576831 0.000389077 0.025 13166.8
0.000673861 0.000454524 0.025 13086.9
0.000773265 0.000521574 0.025 13016.8
0.0008751 0.000590262 0.025 12958.6
0.000979426 0.000660632 0.025 12913.4
0.0010863 0.000732721 0.025 12882.3
0.00119579 0.000806572 0.025 12862.3
0.00130795 0.000882227 0.025 12856.4
0.00142285 0.00095973 0.025 12864
0.00154056 0.00103912 0.025 12882.6
0.00166115 0.00112046 0.025 12912.4
0.00178467 0.00120378 0.025 12953.1
0.00191121 0.00128913 0.025 13003.5
0.00204083 0.00137656 0.025 13064.1
0.00217362 0.00146612 0.025 13134.2
0.00230964 0.00155787 0.025 13212.9
0.00244897 0.00165185 0.025 13301.5
0.00259169 0.00174812 0.025 13398.2
0.00273789 0.00184673 0.025 13503.7
0.00288765 0.00194774 0.025 13617.8
0.00304105 0.00205122 0.025 13740.5
0.00319818 0.00215719 0.025 13872
0.00335912 0.00226575 0.025 14012.4
0.00352397 0.00237695 0.025 14161.5
0.00369283 0.00249085 0.025 14320
0.00386579 0.00260751 0.025 14488.2
0.00404294 0.00272699 0.025 14666.1
0.00422438 0.00284938 0.025 14854.2
0.00441022 0.00297474 0.025 15053.2
0.00460056 0.00310312 0.025 15263.7
0.00479552 0.00323462 0.025 15486.6
0.00499519 0.0033693 0.025 15721.9
0.00519968 0.00350723 0.025 15971.4
0.00540911 0.00364849 0.025 16235.3
0.00562361 0.00379318 0.025 16515.1
0.00584329 0.00394134 0.025 16812.1
0.00606826 0.00409309 0.025 17126.9
0.00629865 0.00424849 0.025 17461.2
0.0065346 0.00440764 0.025 17816.9
0.00677623 0.00457063 0.025 18194.9
0.00702368 0.00473753 0.025 18597.6
0.00727707 0.00490844 0.025 19026.7
0.00753655 0.00508347 0.025 19484.2
0.00780227 0.00526269 0.025 19972.6
0.00807436 0.00544622 0.025 20494.2
0.00835298 0.00563415 0.025 21051.8
0.00863826 0.00582659 0.025 21647.7
0.00893038 0.00602362 0.025 22285.2
0.00922949 0.00622537 0.025 22967.1
0.00953574 0.00643195 0.025 23697.5
0.00984929 0.00664345 0.025 24478.4
0.0101703 0.00686 0.025 25317.2
0.0104991 0.00708171 0.025 26215.1
0.0108356 0.00730871 0.025 27178.8
0.0111801 0.0075411 0.025 28214.1
0.0115329 0.00777902 0.025 29328.1
0.011894 0.00802259 0.025 30526.6
0.0122637 0.00827194 0.025 31819.2
0.0126421 0.00852719 0.025 33213.5
0.0130295 0.0087885 0.025 34723.8
0.013426 0.00905597 0.025 36352.9
0.013832 0.00932978 0.025 38120.6
0.0142475 0.00961003 0.025 40039.8
0.0146727 0.0098969 0.025 42121.6
0.0151081 0.0101905 0.025 44381.5
0.0155536 0.010491 0.025 46838.7
0.0160097 0.0107986 0.025 49512.2
0.0164764 0.0111134 0.025 52414
0.016954 0.0114356 0.025 55575.5
0.0174427 0.0117653 0.025 59008.2
0.0179429 0.0121026 0.025 62745.1
0.0184548 0.0124479 0.025 66823.6
0.0189786 0.0128013 0.025 71291
0.0195146 0.0131628 0.025 76218.1
0.020063 0.0135327 0.025 81675.7
0.0206242 0.0139112 0.025 87737.4
0.0211983 0.0142984 0.025 94488.8
0.0217857 0.0146947 0.025 101956
0.0223867 0.0151 0.025 110063
0.0230015 0.0155147 0.025 118673
0.0236304 0.0159389 0.025 127853
0.0242738 0.0163729 0.025 137623
0.0249318 0.0168167 0.025 148006
0.025605 0.0172708 0.025 158757
0.0262935 0.0177352 0.025 168695
0.0269977 0.0182102 0.025 176213
0.0277178 0.0186959 0.025 179665
0.0284544 0.0191927 0.025 180718
0.0292075 0.0197008 0.025 175099
0.0299777 0.0202203 0.025 170516
0.0307653 0.0207514 0.025 165889
0.0315704 0.0212945 0.025 161007
0.0323937 0.0218499 0.025 155850
0.0332354 0.0224176 0.025 150573
0.0340959 0.022998 0.025 145529
0.0349755 0.0235913 0.025 141002
0.0358747 0.0241978 0.025 137235
0.0367938 0.0248178 0.025 134070
0.0377331 0.0254513 0.025 131457
0.0386932 0.0260989 0.025 129412
0.0396743 0.0267606 0.025 128036
0.0406769 0.0274369 0.025 127197
0.0417013 0.0281279 0.025 126671
0.042748 0.0288339 0.025 126330
0.0438175 0.0295552 0.025 126041
0.04491 0.0302922 0.025 125785
0.0460262 0.031045 0.025 125621
0.0471662 0.031814 0.025 125553
0.0483306 0.0325995 0.025 125666
0.0495199 0.0334016 0.025 125762
0.0507344 0.0342208 0.025 125590
0.0519746 0.0350573 0.025 125306
0.0532409 0.0359114 0.025 125439
0.0545339 0.0367835 0.025 126040
0.0558538 0.0376739 0.025 126953
0.0572012 0.0385827 0.025 127329
0.0585766 0.0395104 0.025 127181
0.0599804 0.0404573 0.025 126720
0.061413 0.0414236 0.025 126581
0.0628748 0.0424096 0.025 126922
0.0643665 0.0434157 0.025 127498
0.0658883 0.0444422 0.025 127905
0.0674408 0.0454894 0.025 127843
0.0690245 0.0465576 0.025 127598
0.0706398 0.0476471 0.025 127588
0.0722871 0.0487582 0.025 127965
0.0739669 0.0498912 0.025 128407
0.0756797 0.0510466 0.025 128776
0.0774258 0.0522244 0.025 128804
0.0792059 0.053425 0.025 128694
0.0810203 0.0546489 0.025 128714
0.0828694 0.0558961 0.025 128940
0.0847537 0.0571671 0.025 129332
0.0866737 0.0584622 0.025 129628
0.0886298 0.0597816 0.025 129922
0.0906224 0.0611256 0.025 130130
0.0926518 0.0624944 0.025 130358
0.0947185 0.0638884 0.025 130473
0.096823 0.065308 0.025 130384
0.0989659 0.0667532 0.025 129984
0.101147 0.0682245 0.025 129068
0.103367 0.0697219 0.025 128245
0.105626 0.0712458 0.025 127801
0.107926 0.0727965 0.025 127614
0.110265 0.074374 0.025 128243
0.112644 0.0759789 0.025 128782
0.115063 0.0776111 0.025 129834
0.117524 0.0792709 0.025 130084
0.120026 0.0809585 0.025 130150
0.122569 0.0826741 0.025 130160
0.125155 0.0844179 0.025 129852
0.127782 0.0861901 0.025 129435
0.130451 0.0879908 0.025 128704
0.133163 0.08982 0.025 128246
0.135918 0.0916781 0.025 127998
0.138716 0.0935651 0.025 128448
0.141556 0.095481 0.025 129126
0.14444 0.097426 0.025 129537
0.147367 0.0994004 0.025 129103
0.150337 0.101404 0.025 129542
0.153351 0.103437 0.025 128711
0.156408 0.105498 0.025 127189
0.159508 0.107589 0.025 127767
0.162651 0.10971 0.025 126829
0.165838 0.111859 0.025 124944
0.169069 0.114039 0.025 127204
0.172343 0.116247 0.025 125463
0.175659 0.118483 0.025 125029
0.179018 0.120749 0.025 124299
0.182421 0.123045 0.025 123173
0.185866 0.125368 0.025 122737
0.189353 0.12772 0.025 122283
0.192882 0.1301 0.025 122192
0.196453 0.132509 0.025 122306
0.200065 0.134946 0.025 121825
0.203718 0.13741 0.025 121811
0.207412 0.139901 0.025 122044
0.211146 0.14242 0.025 121287
0.214919 0.144965 0.025 120583
0.218732 0.147537 0.025 121327
0.222583 0.150134 0.025 121095
0.226472 0.152757 0.025 122529
0.230399 0.155406 0.025 122182
0.234362 0.15808 0.025 122129
0.238362 0.160777 0.025 121173
0.242396 0.163498 0.025 121001
0.246466 0.166244 0.025 120364
0.250569 0.169012 0.025 121298
0.254706 0.171801 0.025 120429
0.258874 0.174613 0.025 120505
0.263074 0.177446 0.025 120061
0.267304 0.180299 0.025 120669
0.271564 0.183172 0.025 121235
0.275852 0.186064 0.025 120814
0.280168 0.188975 0.025 121414
0.28451 0.191904 0.025 121048
0.288876 0.19485 0.025 120517
0.293268 0.197812 0.025 121131
0.297683 0.20079 0.025 120011
0.302119 0.203782 0.025 119919
0.306577 0.206788 0.025 120212
0.311054 0.209808 0.025 119580
0.315549 0.212841 0.025 120225
0.320063 0.215885 0.025 119710
0.324591 0.218939 0.025 120822
0.329134 0.222003 0.025 121336
0.333691 0.225077 0.025 120975
0.33826 0.228159 0.025 121655
0.342839 0.231248 0.025 121406
0.347428 0.234343 0.025 122268
0.352025 0.237444 0.025 120915
0.356628 0.240548 0.025 121235
0.361237 0.243658 0.025 121354
0.36585 0.246769 0.025 120093
0.370465 0.249882 0.025 121886
0.375082 0.252996 0.025 120824
0.379698 0.25611 0.025 120280
0.384313 0.259223 0.025 121248
0.388926 0.262333 0.025 120475
0.393534 0.265442 0.025 120859
0.398136 0.268546 0.025 121180
0.40273 0.271645 0.025 120516
0.407317 0.274739 0.025 120388
0.411894 0.277826 0.025 120016
0.41646 0.280906 0.025 121387
0.421014 0.283977 0.025 120563
0.425554 0.28704 0.025 120346
0.430079 0.290092 0.025 120785
0.434588 0.293133 0.025 120567
0.439079 0.296162 0.025 121281
0.443551 0.299179 0.025 120974
0.448004 0.302183 0.025 120893
0.452437 0.305172 0.025 121000
0.456846 0.308146 0.025 121295
0.461232 0.311105 0.025 121183
0.465593 0.314047 0.025 121367
0.469929 0.316971 0.025 120987
0.474238 0.319878 0.025 122099
0.47852 0.322766 0.025 121779
0.482773 0.325635 0.025 121899
0.486996 0.328483 0.025 121395
0.491189 0.331311 0.025 120696
0.49535 0.334118 0.025 121833
