# wallHeatFlux  FACE_DATA 398
# x  y  z  wallHeatFlux
-0.7975 0 0.025 -653671
-0.79239 0 0.025 -120061
-0.787056 0 0.025 -71286.8
-0.781492 0 0.025 -64460.7
-0.775691 0 0.025 -65873.4
-0.769649 0 0.025 -66674.4
-0.763362 0 0.025 -67264.8
-0.756822 0 0.025 -67179.6
-0.750025 0 0.025 -66695.3
-0.742968 0 0.025 -65940.3
-0.735648 0 0.025 -65045.5
-0.72806 0 0.025 -64101.9
-0.720203 0 0.025 -63164.3
-0.712076 0 0.025 -62296.8
-0.703677 0 0.025 -61486.9
-0.695006 0 0.025 -60713.5
-0.686065 0 0.025 -59992.7
-0.676855 0 0.025 -59303.3
-0.667379 0 0.025 -58602
-0.65764 0 0.025 -57916.4
-0.647644 0 0.025 -57329
-0.637397 0 0.025 -56783
-0.626906 0 0.025 -56157.6
-0.616179 0 0.025 -55628.7
-0.605224 0 0.025 -55121.7
-0.594054 0 0.025 -54628.6
-0.582678 0 0.025 -54115.7
-0.57111 0 0.025 -53659.6
-0.559364 0 0.025 -53229.4
-0.547454 0 0.025 -52849.7
-0.535396 0 0.025 -52414.6
-0.523205 0 0.025 -52001.8
-0.510901 0 0.025 -51621.5
-0.4985 0 0.025 -51268.8
-0.486021 0 0.025 -50968.2
-0.473483 0 0.025 -50649.3
-0.460905 0 0.025 -50322
-0.448308 0 0.025 -49993.7
-0.435709 0 0.025 -49668.8
-0.42313 0 0.025 -49367.7
-0.41059 0 0.025 -49146.1
-0.39811 0 0.025 -48971.2
-0.385706 0 0.025 -48745.8
-0.373398 0 0.025 -48472
-0.361205 0 0.025 -48191.8
-0.349141 0 0.025 -47930.9
-0.337226 0 0.025 -47696.7
-0.325475 0 0.025 -47521.1
-0.313901 0 0.025 -47398.9
-0.30252 0 0.025 -47302.7
-0.291343 0 0.025 -47170.2
-0.280382 0 0.025 -46983.9
-0.269646 0 0.025 -46764.5
-0.259148 0 0.025 -46535
-0.248893 0 0.025 -46323.5
-0.23889 0 0.025 -46160.7
-0.229143 0 0.025 -46029.6
-0.219659 0 0.025 -45937.7
-0.210441 0 0.025 -45861.7
-0.201491 0 0.025 -45772.9
-0.192812 0 0.025 -45671.1
-0.184405 0 0.025 -45552.6
-0.176269 0 0.025 -45432.1
-0.168404 0 0.025 -45324.3
-0.160808 0 0.025 -45227.3
-0.15348 0 0.025 -45149.4
-0.146415 0 0.025 -45099.1
-0.13961 0 0.025 -45042.1
-0.133063 0 0.025 -45003.2
-0.126767 0 0.025 -44970.4
-0.120718 0 0.025 -44949
-0.11491 0 0.025 -44917.6
-0.109339 0 0.025 -44876.2
-0.103997 0 0.025 -44834
-0.0988805 0 0.025 -44780
-0.0939808 0 0.025 -44717.9
-0.0892928 0 0.025 -44651.9
-0.0848096 0 0.025 -44575.3
-0.0805248 0 0.025 -44493.9
-0.0764316 0 0.025 -44412.7
-0.0725237 0 0.025 -44331.5
-0.0687943 0 0.025 -44256.5
-0.065237 0 0.025 -44175.5
-0.0618454 0 0.025 -44106.2
-0.058613 0 0.025 -44036.1
-0.0555337 0 0.025 -43972.4
-0.0526013 0 0.025 -43913.3
-0.0498099 0 0.025 -43859.9
-0.0471536 0 0.025 -43811.9
-0.0446266 0 0.025 -43769.3
-0.0422235 0 0.025 -43726.6
-0.039939 0 0.025 -43689.3
-0.0377676 0 0.025 -43657
-0.0357044 0 0.025 -43631.1
-0.0337445 0 0.025 -43561.3
-0.0318832 0 0.025 -41428.1
-0.0301159 0 0.025 -34174.9
-0.0284383 0 0.025 -38827.6
-0.0268461 0 0.025 -57927
-0.0253353 0 0.025 -68895.8
-0.023902 0 0.025 -75308.6
-0.0225426 0 0.025 -80654.6
-0.0212532 0 0.025 -85275.5
-0.0200306 0 0.025 -89062.7
-0.0188715 0 0.025 -92621.5
-0.0177728 0 0.025 -95864.7
-0.0167313 0 0.025 -98824.6
-0.0157444 0 0.025 -101641
-0.0148092 0 0.025 -104300
-0.0139232 0 0.025 -106703
-0.0130838 0 0.025 -108804
-0.0122887 0 0.025 -110615
-0.0115356 0 0.025 -112194
-0.0108223 0 0.025 -113578
-0.0101469 0 0.025 -114812
-0.00950727 0 0.025 -115963
-0.00890168 0 0.025 -117077
-0.00832835 0 0.025 -118209
-0.00778557 0 0.025 -119403
-0.00727176 0 0.025 -120686
-0.0067854 0 0.025 -122062
-0.00632507 0 0.025 -123540
-0.00588937 0 0.025 -125128
-0.00547703 0 0.025 -126819
-0.0050868 0 0.025 -128606
-0.00471753 0 0.025 -130498
-0.0043681 0 0.025 -132531
-0.00403746 0 0.025 -134656
-0.00372461 0 0.025 -136895
-0.0034286 0 0.025 -139271
-0.00314855 0 0.025 -141827
-0.0028836 0 0.025 -144504
-0.00263294 0 0.025 -147135
-0.00239581 0 0.025 -149823
-0.0021715 0 0.025 -152646
-0.00195929 0 0.025 -155561
-0.00175856 0 0.025 -158558
-0.00156869 0 0.025 -161634
-0.00138908 0 0.025 -164812
-0.0012192 0 0.025 -168041
-0.00105853 0 0.025 -171336
-0.000906546 0 0.025 -174643
-0.000762803 0 0.025 -177853
-0.000626848 0 0.025 -180637
-0.000498265 0 0.025 -182071
-0.000376656 0 0.025 -180298
-0.000261642 0 0.025 -171583
-0.00015287 0 0.025 -148862
-5e-05 0 0.025 -96449.6
4.14519e-05 2.79596e-05 0.025 -68192.1
0.000125371 8.45641e-05 0.025 -81624.8
0.000211347 0.000142556 0.025 -96420.1
0.000299429 0.000201968 0.025 -107443
0.000389669 0.000262835 0.025 -116795
0.000482118 0.000325193 0.025 -125698
0.000576831 0.000389077 0.025 -134103
0.000673861 0.000454524 0.025 -141753
0.000773265 0.000521574 0.025 -148563
0.0008751 0.000590262 0.025 -154582
0.000979426 0.000660632 0.025 -159925
0.0010863 0.000732721 0.025 -164698
0.00119579 0.000806572 0.025 -169013
0.00130795 0.000882227 0.025 -173044
0.00142285 0.00095973 0.025 -176765
0.00154056 0.00103912 0.025 -180337
0.00166115 0.00112046 0.025 -183747
0.00178467 0.00120378 0.025 -187085
0.00191121 0.00128913 0.025 -190420
0.00204083 0.00137656 0.025 -193690
0.00217362 0.00146612 0.025 -196987
0.00230964 0.00155787 0.025 -200330
0.00244897 0.00165185 0.025 -203725
0.00259169 0.00174812 0.025 -207120
0.00273789 0.00184673 0.025 -210636
0.00288765 0.00194774 0.025 -214270
0.00304105 0.00205122 0.025 -217989
0.00319818 0.00215719 0.025 -221806
0.00335912 0.00226575 0.025 -225808
0.00352397 0.00237695 0.025 -229912
0.00369283 0.00249085 0.025 -234194
0.00386579 0.00260751 0.025 -238657
0.00404294 0.00272699 0.025 -243325
0.00422438 0.00284938 0.025 -248222
0.00441022 0.00297474 0.025 -253343
0.00460056 0.00310312 0.025 -258700
0.00479552 0.00323462 0.025 -264311
0.00499519 0.0033693 0.025 -270269
0.00519968 0.00350723 0.025 -276492
0.00540911 0.00364849 0.025 -283103
0.00562361 0.00379318 0.025 -290075
0.00584329 0.00394134 0.025 -297448
0.00606826 0.00409309 0.025 -305354
0.00629865 0.00424849 0.025 -313617
0.0065346 0.00440764 0.025 -322442
0.00677623 0.00457063 0.025 -331827
0.00702368 0.00473753 0.025 -341737
0.00727707 0.00490844 0.025 -352390
0.00753655 0.00508347 0.025 -363777
0.00780227 0.00526269 0.025 -375944
0.00807436 0.00544622 0.025 -389104
0.00835298 0.00563415 0.025 -403164
0.00863826 0.00582659 0.025 -418127
0.00893038 0.00602362 0.025 -434573
0.00922949 0.00622537 0.025 -452301
0.00953574 0.00643195 0.025 -470898
0.00984929 0.00664345 0.025 -491816
0.0101703 0.00686 0.025 -515080
0.0104991 0.00708171 0.025 -540554
0.0108356 0.00730871 0.025 -566796
0.0111801 0.0075411 0.025 -598892
0.0115329 0.00777902 0.025 -634124
0.011894 0.00802259 0.025 -673453
0.0122637 0.00827194 0.025 -716458
0.0126421 0.00852719 0.025 -763099
0.0130295 0.0087885 0.025 -808682
0.013426 0.00905597 0.025 -856794
0.013832 0.00932978 0.025 -906176
0.0142475 0.00961003 0.025 -949543
0.0146727 0.0098969 0.025 -994751
0.0151081 0.0101905 0.025 -1.03977e+06
0.0155536 0.010491 0.025 -1.08449e+06
0.0160097 0.0107986 0.025 -1.13368e+06
0.0164764 0.0111134 0.025 -1.18622e+06
0.016954 0.0114356 0.025 -1.2421e+06
0.0174427 0.0117653 0.025 -1.29645e+06
0.0179429 0.0121026 0.025 -1.35427e+06
0.0184548 0.0124479 0.025 -1.424e+06
0.0189786 0.0128013 0.025 -1.47589e+06
0.0195146 0.0131628 0.025 -1.53057e+06
0.020063 0.0135327 0.025 -1.59286e+06
0.0206242 0.0139112 0.025 -1.63501e+06
0.0211983 0.0142984 0.025 -1.6672e+06
0.0217857 0.0146947 0.025 -1.70523e+06
0.0223867 0.0151 0.025 -1.73732e+06
0.0230015 0.0155147 0.025 -1.76596e+06
0.0236304 0.0159389 0.025 -1.80152e+06
0.0242738 0.0163729 0.025 -1.81077e+06
0.0249318 0.0168167 0.025 -1.83462e+06
0.025605 0.0172708 0.025 -1.85543e+06
0.0262935 0.0177352 0.025 -1.84635e+06
0.0269977 0.0182102 0.025 -1.83685e+06
0.0277178 0.0186959 0.025 -1.8159e+06
0.0284544 0.0191927 0.025 -1.83991e+06
0.0292075 0.0197008 0.025 -1.76992e+06
0.0299777 0.0202203 0.025 -1.72294e+06
0.0307653 0.0207514 0.025 -1.66312e+06
0.0315704 0.0212945 0.025 -1.61825e+06
0.0323937 0.0218499 0.025 -1.5858e+06
0.0332354 0.0224176 0.025 -1.5534e+06
0.0340959 0.022998 0.025 -1.52512e+06
0.0349755 0.0235913 0.025 -1.48787e+06
0.0358747 0.0241978 0.025 -1.48186e+06
0.0367938 0.0248178 0.025 -1.44183e+06
0.0377331 0.0254513 0.025 -1.41321e+06
0.0386932 0.0260989 0.025 -1.39052e+06
0.0396743 0.0267606 0.025 -1.36981e+06
0.0406769 0.0274369 0.025 -1.35474e+06
0.0417013 0.0281279 0.025 -1.33734e+06
0.042748 0.0288339 0.025 -1.33718e+06
0.0438175 0.0295552 0.025 -1.32337e+06
0.04491 0.0302922 0.025 -1.30601e+06
0.0460262 0.031045 0.025 -1.30845e+06
0.0471662 0.031814 0.025 -1.31192e+06
0.0483306 0.0325995 0.025 -1.29553e+06
0.0495199 0.0334016 0.025 -1.29405e+06
0.0507344 0.0342208 0.025 -1.28939e+06
0.0519746 0.0350573 0.025 -1.28614e+06
0.0532409 0.0359114 0.025 -1.29191e+06
0.0545339 0.0367835 0.025 -1.28012e+06
0.0558538 0.0376739 0.025 -1.27862e+06
0.0572012 0.0385827 0.025 -1.27774e+06
0.0585766 0.0395104 0.025 -1.27862e+06
0.0599804 0.0404573 0.025 -1.2882e+06
0.061413 0.0414236 0.025 -1.27508e+06
0.0628748 0.0424096 0.025 -1.30232e+06
0.0643665 0.0434157 0.025 -1.30554e+06
0.0658883 0.0444422 0.025 -1.28338e+06
0.0674408 0.0454894 0.025 -1.27258e+06
0.0690245 0.0465576 0.025 -1.27271e+06
0.0706398 0.0476471 0.025 -1.26401e+06
0.0722871 0.0487582 0.025 -1.26263e+06
0.0739669 0.0498912 0.025 -1.26081e+06
0.0756797 0.0510466 0.025 -1.27064e+06
0.0774258 0.0522244 0.025 -1.28026e+06
0.0792059 0.053425 0.025 -1.26919e+06
0.0810203 0.0546489 0.025 -1.28855e+06
0.0828694 0.0558961 0.025 -1.26146e+06
0.0847537 0.0571671 0.025 -1.30944e+06
0.0866737 0.0584622 0.025 -1.2755e+06
0.0886298 0.0597816 0.025 -1.27771e+06
0.0906224 0.0611256 0.025 -1.28958e+06
0.0926518 0.0624944 0.025 -1.25295e+06
0.0947185 0.0638884 0.025 -1.29399e+06
0.096823 0.065308 0.025 -1.25029e+06
0.0989659 0.0667532 0.025 -1.33391e+06
0.101147 0.0682245 0.025 -1.67905e+06
0.103367 0.0697219 0.025 -1.5812e+06
0.105626 0.0712458 0.025 -1.19036e+06
0.107926 0.0727965 0.025 -1.18946e+06
0.110265 0.074374 0.025 -1.23407e+06
0.112644 0.0759789 0.025 -1.86128e+06
0.115063 0.0776111 0.025 -1.25638e+06
0.117524 0.0792709 0.025 -1.74623e+06
0.120026 0.0809585 0.025 -1.91386e+06
0.122569 0.0826741 0.025 -1.68436e+06
0.125155 0.0844179 0.025 -1.49233e+06
0.127782 0.0861901 0.025 -1.28775e+06
0.130451 0.0879908 0.025 -1.24159e+06
0.133163 0.08982 0.025 -1.21838e+06
0.135918 0.0916781 0.025 -1.189e+06
0.138716 0.0935651 0.025 -1.1943e+06
0.141556 0.095481 0.025 -1.20617e+06
0.14444 0.097426 0.025 -1.59142e+06
0.147367 0.0994004 0.025 -2.33234e+06
0.150337 0.101404 0.025 -1.66862e+06
0.153351 0.103437 0.025 -1.61047e+06
0.156408 0.105498 0.025 -2.22194e+06
0.159508 0.107589 0.025 -1.02553e+06
0.162651 0.10971 0.025 -1.51878e+06
0.165838 0.111859 0.025 -3.54786e+06
0.169069 0.114039 0.025 -1.6613e+06
0.172343 0.116247 0.025 -1.98975e+06
0.175659 0.118483 0.025 -1.86832e+06
0.179018 0.120749 0.025 -1.85953e+06
0.182421 0.123045 0.025 -1.92013e+06
0.185866 0.125368 0.025 -1.68961e+06
0.189353 0.12772 0.025 -1.73526e+06
0.192882 0.1301 0.025 -1.84637e+06
0.196453 0.132509 0.025 -1.74154e+06
0.200065 0.134946 0.025 -2.13126e+06
0.203718 0.13741 0.025 -1.92623e+06
0.207412 0.139901 0.025 -914692
0.211146 0.14242 0.025 -973992
0.214919 0.144965 0.025 -1.58726e+06
0.218732 0.147537 0.025 -974759
0.222583 0.150134 0.025 -1.87792e+06
0.226472 0.152757 0.025 -968343
0.230399 0.155406 0.025 -1.80137e+06
0.234362 0.15808 0.025 -1.69335e+06
0.238362 0.160777 0.025 -2.25589e+06
0.242396 0.163498 0.025 -1.95478e+06
0.246466 0.166244 0.025 -2.10596e+06
0.250569 0.169012 0.025 -922975
0.254706 0.171801 0.025 -1.51367e+06
0.258874 0.174613 0.025 -1.51036e+06
0.263074 0.177446 0.025 -1.91594e+06
0.267304 0.180299 0.025 -1.55763e+06
0.271564 0.183172 0.025 -935847
0.275852 0.186064 0.025 -1.59663e+06
0.280168 0.188975 0.025 -910027
0.28451 0.191904 0.025 -1.61767e+06
0.288876 0.19485 0.025 -2.1952e+06
0.293268 0.197812 0.025 -1.5828e+06
0.297683 0.20079 0.025 -1.86526e+06
0.302119 0.203782 0.025 -2.09953e+06
0.306577 0.206788 0.025 -1.48807e+06
0.311054 0.209808 0.025 -1.55777e+06
0.315549 0.212841 0.025 -1.14506e+06
0.320063 0.215885 0.025 -1.93328e+06
0.324591 0.218939 0.025 -1.40666e+06
0.329134 0.222003 0.025 -1.3807e+06
0.333691 0.225077 0.025 -2.09677e+06
0.33826 0.228159 0.025 -1.76605e+06
0.342839 0.231248 0.025 -1.79683e+06
0.347428 0.234343 0.025 -859206
0.352025 0.237444 0.025 -1.8711e+06
0.356628 0.240548 0.025 -1.38234e+06
0.361237 0.243658 0.025 -1.13208e+06
0.36585 0.246769 0.025 -2.40116e+06
0.370465 0.249882 0.025 -1.07095e+06
0.375082 0.252996 0.025 -1.46718e+06
0.379698 0.25611 0.025 -2.33796e+06
0.384313 0.259223 0.025 -1.37255e+06
0.388926 0.262333 0.025 -1.66444e+06
0.393534 0.265442 0.025 -1.37736e+06
0.398136 0.268546 0.025 -862864
0.40273 0.271645 0.025 -1.57752e+06
0.407317 0.274739 0.025 -1.63722e+06
0.411894 0.277826 0.025 -2.02254e+06
0.41646 0.280906 0.025 -824939
0.421014 0.283977 0.025 -1.55152e+06
0.425554 0.28704 0.025 -1.79799e+06
0.430079 0.290092 0.025 -1.44953e+06
0.434588 0.293133 0.025 -1.7623e+06
0.439079 0.296162 0.025 -1.24978e+06
0.443551 0.299179 0.025 -1.61542e+06
0.448004 0.302183 0.025 -1.64238e+06
0.452437 0.305172 0.025 -1.60654e+06
0.456846 0.308146 0.025 -1.49522e+06
0.461232 0.311105 0.025 -1.52019e+06
0.465593 0.314047 0.025 -1.40807e+06
0.469929 0.316971 0.025 -1.87256e+06
0.474238 0.319878 0.025 -971080
0.47852 0.322766 0.025 -1.08415e+06
0.482773 0.325635 0.025 -861000
0.486996 0.328483 0.025 -1.28812e+06
0.491189 0.331311 0.025 -1.92863e+06
0.49535 0.334118 0.025 -1.25803e+06
