# y+ ()       
# Time        	patch         	min           	max           	average       
6300          	base	1.908585e-02	6.396029e-01	2.601923e-01
