# p  FACE_DATA 398
# x  y  z  p
-0.7975 0 0.025 4472.14
-0.79239 0 0.025 3646.94
-0.787056 0 0.025 2983.24
-0.781492 0 0.025 2851.84
-0.775691 0 0.025 2775.94
-0.769649 0 0.025 2770.46
-0.763362 0 0.025 2797.68
-0.756822 0 0.025 2824.37
-0.750025 0 0.025 2842.27
-0.742968 0 0.025 2851.95
-0.735648 0 0.025 2857.39
-0.72806 0 0.025 2858.67
-0.720203 0 0.025 2858.5
-0.712076 0 0.025 2857.04
-0.703677 0 0.025 2855.77
-0.695006 0 0.025 2853.24
-0.686065 0 0.025 2850.65
-0.676855 0 0.025 2843.94
-0.667379 0 0.025 2839.93
-0.65764 0 0.025 2839.82
-0.647644 0 0.025 2834.19
-0.637397 0 0.025 2830.62
-0.626906 0 0.025 2827.29
-0.616179 0 0.025 2823.34
-0.605224 0 0.025 2821.09
-0.594054 0 0.025 2818.18
-0.582678 0 0.025 2814.93
-0.57111 0 0.025 2811.83
-0.559364 0 0.025 2808.33
-0.547454 0 0.025 2807.06
-0.535396 0 0.025 2804.37
-0.523205 0 0.025 2802.3
-0.510901 0 0.025 2799.07
-0.4985 0 0.025 2795.36
-0.486021 0 0.025 2794.45
-0.473483 0 0.025 2793.5
-0.460905 0 0.025 2791.16
-0.448308 0 0.025 2788.96
-0.435709 0 0.025 2786.98
-0.42313 0 0.025 2784.61
-0.41059 0 0.025 2782.45
-0.39811 0 0.025 2781.47
-0.385706 0 0.025 2781.57
-0.373398 0 0.025 2780.93
-0.361205 0 0.025 2779.47
-0.349141 0 0.025 2777.74
-0.337226 0 0.025 2775.88
-0.325475 0 0.025 2774.17
-0.313901 0 0.025 2772.74
-0.30252 0 0.025 2771.14
-0.291343 0 0.025 2770.18
-0.280382 0 0.025 2769.75
-0.269646 0 0.025 2770.34
-0.259148 0 0.025 2771.13
-0.248893 0 0.025 2772.19
-0.23889 0 0.025 2772.07
-0.229143 0 0.025 2770.89
-0.219659 0 0.025 2768.34
-0.210441 0 0.025 2765.54
-0.201491 0 0.025 2762.81
-0.192812 0 0.025 2760.83
-0.184405 0 0.025 2759.22
-0.176269 0 0.025 2758.48
-0.168404 0 0.025 2758.24
-0.160808 0 0.025 2759
-0.15348 0 0.025 2760.17
-0.146415 0 0.025 2761.53
-0.13961 0 0.025 2762.61
-0.133063 0 0.025 2763.45
-0.126767 0 0.025 2763.71
-0.120718 0 0.025 2763.57
-0.11491 0 0.025 2763.03
-0.109339 0 0.025 2762.32
-0.103997 0 0.025 2761.44
-0.0988805 0 0.025 2760.46
-0.0939808 0 0.025 2759.37
-0.0892928 0 0.025 2758.26
-0.0848096 0 0.025 2757.21
-0.0805248 0 0.025 2756.29
-0.0764316 0 0.025 2755.55
-0.0725237 0 0.025 2755.01
-0.0687943 0 0.025 2754.66
-0.065237 0 0.025 2754.52
-0.0618454 0 0.025 2754.57
-0.058613 0 0.025 2754.76
-0.0555337 0 0.025 2755.04
-0.0526013 0 0.025 2755.34
-0.0498099 0 0.025 2755.63
-0.0471536 0 0.025 2755.85
-0.0446266 0 0.025 2756.04
-0.0422235 0 0.025 2756.19
-0.039939 0 0.025 2756.32
-0.0377676 0 0.025 2756.44
-0.0357044 0 0.025 2756.49
-0.0337445 0 0.025 2757.37
-0.0318832 0 0.025 2762.83
-0.0301159 0 0.025 2818.6
-0.0284383 0 0.025 3173.72
-0.0268461 0 0.025 4136.47
-0.0253353 0 0.025 5234.17
-0.023902 0 0.025 6093.67
-0.0225426 0 0.025 6770.3
-0.0212532 0 0.025 7282.99
-0.0200306 0 0.025 7718.29
-0.0188715 0 0.025 8093.07
-0.0177728 0 0.025 8422.21
-0.0167313 0 0.025 8712.43
-0.0157444 0 0.025 8965.84
-0.0148092 0 0.025 9192.62
-0.0139232 0 0.025 9398.76
-0.0130838 0 0.025 9588.98
-0.0122887 0 0.025 9766.31
-0.0115356 0 0.025 9931.65
-0.0108223 0 0.025 10085.9
-0.0101469 0 0.025 10230.1
-0.00950727 0 0.025 10364.8
-0.00890168 0 0.025 10489.8
-0.00832835 0 0.025 10604.8
-0.00778557 0 0.025 10709.4
-0.00727176 0 0.025 10803.9
-0.0067854 0 0.025 10888.8
-0.00632507 0 0.025 10964.6
-0.00588937 0 0.025 11032.5
-0.00547703 0 0.025 11093.9
-0.0050868 0 0.025 11150.7
-0.00471753 0 0.025 11204.6
-0.0043681 0 0.025 11257.4
-0.00403746 0 0.025 11310.9
-0.00372461 0 0.025 11366.5
-0.0034286 0 0.025 11426.8
-0.00314855 0 0.025 11491.6
-0.0028836 0 0.025 11561.9
-0.00263294 0 0.025 11640
-0.00239581 0 0.025 11730.2
-0.0021715 0 0.025 11822
-0.00195929 0 0.025 11920.4
-0.00175856 0 0.025 12025.1
-0.00156869 0 0.025 12135.4
-0.00138908 0 0.025 12250
-0.0012192 0 0.025 12367.7
-0.00105853 0 0.025 12487.2
-0.000906546 0 0.025 12606.6
-0.000762803 0 0.025 12722.9
-0.000626848 0 0.025 12831.7
-0.000498265 0 0.025 12926.5
-0.000376656 0 0.025 12997.9
-0.000261642 0 0.025 13038
-0.00015287 0 0.025 13046.9
-5e-05 0 0.025 13151.8
4.14519e-05 2.79596e-05 0.025 12695.7
0.000125371 8.45641e-05 0.025 12803.1
0.000211347 0.000142556 0.025 12765.1
0.000299429 0.000201968 0.025 12691.9
0.000389669 0.000262835 0.025 12608.3
0.000482118 0.000325193 0.025 12525.5
0.000576831 0.000389077 0.025 12449.5
0.000673861 0.000454524 0.025 12384
0.000773265 0.000521574 0.025 12331.6
0.0008751 0.000590262 0.025 12293.8
0.000979426 0.000660632 0.025 12269.5
0.0010863 0.000732721 0.025 12259.1
0.00119579 0.000806572 0.025 12264.1
0.00130795 0.000882227 0.025 12282
0.00142285 0.00095973 0.025 12312.6
0.00154056 0.00103912 0.025 12355.2
0.00166115 0.00112046 0.025 12409.3
0.00178467 0.00120378 0.025 12474.7
0.00191121 0.00128913 0.025 12550.1
0.00204083 0.00137656 0.025 12636
0.00217362 0.00146612 0.025 12732.4
0.00230964 0.00155787 0.025 12836.9
0.00244897 0.00165185 0.025 12951.4
0.00259169 0.00174812 0.025 13075.3
0.00273789 0.00184673 0.025 13208.3
0.00288765 0.00194774 0.025 13351.1
0.00304105 0.00205122 0.025 13503.1
0.00319818 0.00215719 0.025 13665.1
0.00335912 0.00226575 0.025 13837.2
0.00352397 0.00237695 0.025 14019.4
0.00369283 0.00249085 0.025 14212.7
0.00386579 0.00260751 0.025 14417.4
0.00404294 0.00272699 0.025 14634.1
0.00422438 0.00284938 0.025 14863.2
0.00441022 0.00297474 0.025 15105.9
0.00460056 0.00310312 0.025 15363.1
0.00479552 0.00323462 0.025 15635.8
0.00499519 0.0033693 0.025 15924.8
0.00519968 0.00350723 0.025 16231.8
0.00540911 0.00364849 0.025 16557.8
0.00562361 0.00379318 0.025 16904.4
0.00584329 0.00394134 0.025 17273.3
0.00606826 0.00409309 0.025 17666.3
0.00629865 0.00424849 0.025 18085.2
0.0065346 0.00440764 0.025 18532.6
0.00677623 0.00457063 0.025 19010.1
0.00702368 0.00473753 0.025 19521.1
0.00727707 0.00490844 0.025 20067.7
0.00753655 0.00508347 0.025 20652.9
0.00780227 0.00526269 0.025 21279.9
0.00807436 0.00544622 0.025 21951.9
0.00835298 0.00563415 0.025 22673.1
0.00863826 0.00582659 0.025 23447.2
0.00893038 0.00602362 0.025 24279
0.00922949 0.00622537 0.025 25173.4
0.00953574 0.00643195 0.025 26136.6
0.00984929 0.00664345 0.025 27173.8
0.0101703 0.00686 0.025 28294.3
0.0104991 0.00708171 0.025 29503.8
0.0108356 0.00730871 0.025 30812.3
0.0111801 0.0075411 0.025 32233.5
0.0115329 0.00777902 0.025 33776.6
0.011894 0.00802259 0.025 35455.3
0.0122637 0.00827194 0.025 37285.3
0.0126421 0.00852719 0.025 39281.8
0.0130295 0.0087885 0.025 41459.1
0.013426 0.00905597 0.025 43836.1
0.013832 0.00932978 0.025 46432
0.0142475 0.00961003 0.025 49265.2
0.0146727 0.0098969 0.025 52350.8
0.0151081 0.0101905 0.025 55716.2
0.0155536 0.010491 0.025 59375.3
0.0160097 0.0107986 0.025 63375
0.0164764 0.0111134 0.025 67740.9
0.016954 0.0114356 0.025 72547.1
0.0174427 0.0117653 0.025 77830.2
0.0179429 0.0121026 0.025 83689.3
0.0184548 0.0124479 0.025 90203.8
0.0189786 0.0128013 0.025 97405.9
0.0195146 0.0131628 0.025 105330
0.020063 0.0135327 0.025 113956
0.0206242 0.0139112 0.025 123308
0.0211983 0.0142984 0.025 133456
0.0217857 0.0146947 0.025 144329
0.0223867 0.0151 0.025 155833
0.0230015 0.0155147 0.025 167058
0.0236304 0.0159389 0.025 176375
0.0242738 0.0163729 0.025 181075
0.0249318 0.0168167 0.025 183781
0.025605 0.0172708 0.025 177859
0.0262935 0.0177352 0.025 172396
0.0269977 0.0182102 0.025 166610
0.0277178 0.0186959 0.025 160489
0.0284544 0.0191927 0.025 154612
0.0292075 0.0197008 0.025 149249
0.0299777 0.0202203 0.025 144545
0.0307653 0.0207514 0.025 140310
0.0315704 0.0212945 0.025 136554
0.0323937 0.0218499 0.025 133515
0.0332354 0.0224176 0.025 131253
0.0340959 0.022998 0.025 129581
0.0349755 0.0235913 0.025 128063
0.0358747 0.0241978 0.025 126701
0.0367938 0.0248178 0.025 125752
0.0377331 0.0254513 0.025 125354
0.0386932 0.0260989 0.025 125294
0.0396743 0.0267606 0.025 125309
0.0406769 0.0274369 0.025 125293
0.0417013 0.0281279 0.025 125325
0.042748 0.0288339 0.025 125374
0.0438175 0.0295552 0.025 125334
0.04491 0.0302922 0.025 125326
0.0460262 0.031045 0.025 125610
0.0471662 0.031814 0.025 125965
0.0483306 0.0325995 0.025 126057
0.0495199 0.0334016 0.025 125906
0.0507344 0.0342208 0.025 125766
0.0519746 0.0350573 0.025 126086
0.0532409 0.0359114 0.025 126936
0.0545339 0.0367835 0.025 127631
0.0558538 0.0376739 0.025 127651
0.0572012 0.0385827 0.025 127331
0.0585766 0.0395104 0.025 126959
0.0599804 0.0404573 0.025 126863
0.061413 0.0414236 0.025 127106
0.0628748 0.0424096 0.025 127632
0.0643665 0.0434157 0.025 128037
0.0658883 0.0444422 0.025 128159
0.0674408 0.0454894 0.025 128080
0.0690245 0.0465576 0.025 128018
0.0706398 0.0476471 0.025 128032
0.0722871 0.0487582 0.025 128040
0.0739669 0.0498912 0.025 128240
0.0756797 0.0510466 0.025 128431
0.0774258 0.0522244 0.025 128426
0.0792059 0.053425 0.025 128360
0.0810203 0.0546489 0.025 128196
0.0828694 0.0558961 0.025 128059
0.0847537 0.0571671 0.025 128052
0.0866737 0.0584622 0.025 128222
0.0886298 0.0597816 0.025 128370
0.0906224 0.0611256 0.025 128470
0.0926518 0.0624944 0.025 128528
0.0947185 0.0638884 0.025 128640
0.096823 0.065308 0.025 128781
0.0989659 0.0667532 0.025 128978
0.101147 0.0682245 0.025 129028
0.103367 0.0697219 0.025 128984
0.105626 0.0712458 0.025 128683
0.107926 0.0727965 0.025 127999
0.110265 0.074374 0.025 127358
0.112644 0.0759789 0.025 126595
0.115063 0.0776111 0.025 127045
0.117524 0.0792709 0.025 127391
0.120026 0.0809585 0.025 128214
0.122569 0.0826741 0.025 128839
0.125155 0.0844179 0.025 129065
0.127782 0.0861901 0.025 128938
0.130451 0.0879908 0.025 128449
0.133163 0.08982 0.025 128242
0.135918 0.0916781 0.025 128146
0.138716 0.0935651 0.025 128455
0.141556 0.095481 0.025 128792
0.14444 0.097426 0.025 128865
0.147367 0.0994004 0.025 127997
0.150337 0.101404 0.025 128314
0.153351 0.103437 0.025 127702
0.156408 0.105498 0.025 126748
0.159508 0.107589 0.025 127845
0.162651 0.10971 0.025 127165
0.165838 0.111859 0.025 125271
0.169069 0.114039 0.025 127158
0.172343 0.116247 0.025 124956
0.175659 0.118483 0.025 123973
0.179018 0.120749 0.025 123068
0.182421 0.123045 0.025 122519
0.185866 0.125368 0.025 122675
0.189353 0.12772 0.025 123030
0.192882 0.1301 0.025 122968
0.196453 0.132509 0.025 122941
0.200065 0.134946 0.025 121836
0.203718 0.13741 0.025 121533
0.207412 0.139901 0.025 121578
0.211146 0.14242 0.025 120812
0.214919 0.144965 0.025 120154
0.218732 0.147537 0.025 120509
0.222583 0.150134 0.025 119591
0.226472 0.152757 0.025 120276
0.230399 0.155406 0.025 119708
0.234362 0.15808 0.025 119748
0.238362 0.160777 0.025 119418
0.242396 0.163498 0.025 120070
0.246466 0.166244 0.025 120284
0.250569 0.169012 0.025 121721
0.254706 0.171801 0.025 120951
0.258874 0.174613 0.025 120781
0.263074 0.177446 0.025 120208
0.267304 0.180299 0.025 120750
0.271564 0.183172 0.025 121355
0.275852 0.186064 0.025 121166
0.280168 0.188975 0.025 121986
0.28451 0.191904 0.025 121759
0.288876 0.19485 0.025 121246
0.293268 0.197812 0.025 121972
0.297683 0.20079 0.025 120873
0.302119 0.203782 0.025 120502
0.306577 0.206788 0.025 121215
0.311054 0.209808 0.025 120508
0.315549 0.212841 0.025 121104
0.320063 0.215885 0.025 120302
0.324591 0.218939 0.025 121084
0.329134 0.222003 0.025 121125
0.333691 0.225077 0.025 120466
0.33826 0.228159 0.025 121089
0.342839 0.231248 0.025 120842
0.347428 0.234343 0.025 121813
0.352025 0.237444 0.025 120603
0.356628 0.240548 0.025 121000
0.361237 0.243658 0.025 121164
0.36585 0.246769 0.025 119833
0.370465 0.249882 0.025 121628
0.375082 0.252996 0.025 120634
0.379698 0.25611 0.025 120088
0.384313 0.259223 0.025 121120
0.388926 0.262333 0.025 120386
0.393534 0.265442 0.025 120807
0.398136 0.268546 0.025 121130
0.40273 0.271645 0.025 120435
0.407317 0.274739 0.025 120261
0.411894 0.277826 0.025 119813
0.41646 0.280906 0.025 121152
0.421014 0.283977 0.025 120357
0.425554 0.28704 0.025 120117
0.430079 0.290092 0.025 120650
0.434588 0.293133 0.025 120481
0.439079 0.296162 0.025 121233
0.443551 0.299179 0.025 120924
0.448004 0.302183 0.025 120821
0.452437 0.305172 0.025 120913
0.456846 0.308146 0.025 121189
0.461232 0.311105 0.025 121070
0.465593 0.314047 0.025 121230
0.469929 0.316971 0.025 120855
0.474238 0.319878 0.025 121966
0.47852 0.322766 0.025 121663
0.482773 0.325635 0.025 121767
0.486996 0.328483 0.025 121261
0.491189 0.331311 0.025 120574
0.49535 0.334118 0.025 121849
