# wallHeatFlux  FACE_DATA 398
# x  y  z  wallHeatFlux
-0.7975 0 0.025 -653693
-0.79239 0 0.025 -120520
-0.787056 0 0.025 -70015.9
-0.781492 0 0.025 -59546.6
-0.775691 0 0.025 -62329.6
-0.769649 0 0.025 -64344.3
-0.763362 0 0.025 -65496.6
-0.756822 0 0.025 -65713.6
-0.750025 0 0.025 -65334.8
-0.742968 0 0.025 -64600.4
-0.735648 0 0.025 -63619.7
-0.72806 0 0.025 -62552.9
-0.720203 0 0.025 -61529.1
-0.712076 0 0.025 -60559.4
-0.703677 0 0.025 -59647.1
-0.695006 0 0.025 -58755.2
-0.686065 0 0.025 -57969.1
-0.676855 0 0.025 -57064.8
-0.667379 0 0.025 -56223.1
-0.65764 0 0.025 -55573.4
-0.647644 0 0.025 -54824.1
-0.637397 0 0.025 -54142.8
-0.626906 0 0.025 -53510.5
-0.616179 0 0.025 -52862.3
-0.605224 0 0.025 -52353.9
-0.594054 0 0.025 -51794.9
-0.582678 0 0.025 -51248.5
-0.57111 0 0.025 -50710.7
-0.559364 0 0.025 -50231
-0.547454 0 0.025 -49850.3
-0.535396 0 0.025 -49408.9
-0.523205 0 0.025 -48990
-0.510901 0 0.025 -48544.4
-0.4985 0 0.025 -48132
-0.486021 0 0.025 -47852.7
-0.473483 0 0.025 -47555
-0.460905 0 0.025 -47200.7
-0.448308 0 0.025 -46856.3
-0.435709 0 0.025 -46515.4
-0.42313 0 0.025 -46198.5
-0.41059 0 0.025 -45939.7
-0.39811 0 0.025 -45743.8
-0.385706 0 0.025 -45572.8
-0.373398 0 0.025 -45353.5
-0.361205 0 0.025 -45090.1
-0.349141 0 0.025 -44813.9
-0.337226 0 0.025 -44559.2
-0.325475 0 0.025 -44352.3
-0.313901 0 0.025 -44182.8
-0.30252 0 0.025 -44044.7
-0.291343 0 0.025 -43918.5
-0.280382 0 0.025 -43803
-0.269646 0 0.025 -43697.3
-0.259148 0 0.025 -43586.7
-0.248893 0 0.025 -43472.5
-0.23889 0 0.025 -43337.3
-0.229143 0 0.025 -43169.5
-0.219659 0 0.025 -42960.5
-0.210441 0 0.025 -42746.1
-0.201491 0 0.025 -42550.8
-0.192812 0 0.025 -42385.5
-0.184405 0 0.025 -42251.4
-0.176269 0 0.025 -42158.3
-0.168404 0 0.025 -42104.4
-0.160808 0 0.025 -42093.4
-0.15348 0 0.025 -42106.6
-0.146415 0 0.025 -42136.7
-0.13961 0 0.025 -42160.1
-0.133063 0 0.025 -42169.4
-0.126767 0 0.025 -42163.5
-0.120718 0 0.025 -42131.4
-0.11491 0 0.025 -42078.5
-0.109339 0 0.025 -42005
-0.103997 0 0.025 -41925.3
-0.0988805 0 0.025 -41828.2
-0.0939808 0 0.025 -41728.5
-0.0892928 0 0.025 -41619.5
-0.0848096 0 0.025 -41510.6
-0.0805248 0 0.025 -41407.4
-0.0764316 0 0.025 -41309.9
-0.0725237 0 0.025 -41217.7
-0.0687943 0 0.025 -41147.7
-0.065237 0 0.025 -41082.4
-0.0618454 0 0.025 -41034.1
-0.058613 0 0.025 -40990.4
-0.0555337 0 0.025 -40958.4
-0.0526013 0 0.025 -40931.2
-0.0498099 0 0.025 -40904.2
-0.0471536 0 0.025 -40882.5
-0.0446266 0 0.025 -40860.9
-0.0422235 0 0.025 -40844.7
-0.039939 0 0.025 -40833.8
-0.0377676 0 0.025 -40822.6
-0.0357044 0 0.025 -40807.1
-0.0337445 0 0.025 -40753
-0.0318832 0 0.025 -40382.9
-0.0301159 0 0.025 -37986.4
-0.0284383 0 0.025 -30249.3
-0.0268461 0 0.025 -26488.9
-0.0253353 0 0.025 -39899.2
-0.023902 0 0.025 -53575.8
-0.0225426 0 0.025 -63269.5
-0.0212532 0 0.025 -70162.5
-0.0200306 0 0.025 -76019.1
-0.0188715 0 0.025 -80955.3
-0.0177728 0 0.025 -85205.9
-0.0167313 0 0.025 -88948
-0.0157444 0 0.025 -92224.3
-0.0148092 0 0.025 -95247.7
-0.0139232 0 0.025 -98084.5
-0.0130838 0 0.025 -100738
-0.0122887 0 0.025 -103170
-0.0115356 0 0.025 -105360
-0.0108223 0 0.025 -107318
-0.0101469 0 0.025 -109072
-0.00950727 0 0.025 -110630
-0.00890168 0 0.025 -112007
-0.00832835 0 0.025 -113224
-0.00778557 0 0.025 -114320
-0.00727176 0 0.025 -115354
-0.0067854 0 0.025 -116379
-0.00632507 0 0.025 -117436
-0.00588937 0 0.025 -118564
-0.00547703 0 0.025 -119784
-0.0050868 0 0.025 -121122
-0.00471753 0 0.025 -122579
-0.0043681 0 0.025 -124177
-0.00403746 0 0.025 -125936
-0.00372461 0 0.025 -127862
-0.0034286 0 0.025 -129984
-0.00314855 0 0.025 -132273
-0.0028836 0 0.025 -134790
-0.00263294 0 0.025 -137606
-0.00239581 0 0.025 -140608
-0.0021715 0 0.025 -143520
-0.00195929 0 0.025 -146626
-0.00175856 0 0.025 -149931
-0.00156869 0 0.025 -153389
-0.00138908 0 0.025 -156984
-0.0012192 0 0.025 -160738
-0.00105853 0 0.025 -164577
-0.000906546 0 0.025 -168475
-0.000762803 0 0.025 -172359
-0.000626848 0 0.025 -175927
-0.000498265 0 0.025 -178526
-0.000376656 0 0.025 -178274
-0.000261642 0 0.025 -171429
-0.00015287 0 0.025 -150311
-5e-05 0 0.025 -97499.1
4.14519e-05 2.79596e-05 0.025 -70971.6
0.000125371 8.45641e-05 0.025 -84250.9
0.000211347 0.000142556 0.025 -99440.4
0.000299429 0.000201968 0.025 -110271
0.000389669 0.000262835 0.025 -119506
0.000482118 0.000325193 0.025 -128268
0.000576831 0.000389077 0.025 -136390
0.000673861 0.000454524 0.025 -143643
0.000773265 0.000521574 0.025 -149996
0.0008751 0.000590262 0.025 -155560
0.000979426 0.000660632 0.025 -160488
0.0010863 0.000732721 0.025 -164950
0.00119579 0.000806572 0.025 -169040
0.00130795 0.000882227 0.025 -172863
0.00142285 0.00095973 0.025 -176493
0.00154056 0.00103912 0.025 -180033
0.00166115 0.00112046 0.025 -183507
0.00178467 0.00120378 0.025 -186957
0.00191121 0.00128913 0.025 -190452
0.00204083 0.00137656 0.025 -193945
0.00217362 0.00146612 0.025 -197535
0.00230964 0.00155787 0.025 -201172
0.00244897 0.00165185 0.025 -204923
0.00259169 0.00174812 0.025 -208780
0.00273789 0.00184673 0.025 -212785
0.00288765 0.00194774 0.025 -216972
0.00304105 0.00205122 0.025 -221290
0.00319818 0.00215719 0.025 -225782
0.00335912 0.00226575 0.025 -230541
0.00352397 0.00237695 0.025 -235477
0.00369283 0.00249085 0.025 -240664
0.00386579 0.00260751 0.025 -246105
0.00404294 0.00272699 0.025 -251868
0.00422438 0.00284938 0.025 -257953
0.00441022 0.00297474 0.025 -264359
0.00460056 0.00310312 0.025 -271115
0.00479552 0.00323462 0.025 -278253
0.00499519 0.0033693 0.025 -285898
0.00519968 0.00350723 0.025 -293943
0.00540911 0.00364849 0.025 -302488
0.00562361 0.00379318 0.025 -311575
0.00584329 0.00394134 0.025 -321250
0.00606826 0.00409309 0.025 -331664
0.00629865 0.00424849 0.025 -342752
0.0065346 0.00440764 0.025 -354621
0.00677623 0.00457063 0.025 -367335
0.00702368 0.00473753 0.025 -380938
0.00727707 0.00490844 0.025 -395697
0.00753655 0.00508347 0.025 -411570
0.00780227 0.00526269 0.025 -428802
0.00807436 0.00544622 0.025 -447284
0.00835298 0.00563415 0.025 -467222
0.00863826 0.00582659 0.025 -489347
0.00893038 0.00602362 0.025 -513711
0.00922949 0.00622537 0.025 -539892
0.00953574 0.00643195 0.025 -568855
0.00984929 0.00664345 0.025 -604163
0.0101703 0.00686 0.025 -640391
0.0104991 0.00708171 0.025 -681084
0.0108356 0.00730871 0.025 -724059
0.0111801 0.0075411 0.025 -768639
0.0115329 0.00777902 0.025 -814529
0.011894 0.00802259 0.025 -860020
0.0122637 0.00827194 0.025 -906259
0.0126421 0.00852719 0.025 -952236
0.0130295 0.0087885 0.025 -999759
0.013426 0.00905597 0.025 -1.04976e+06
0.013832 0.00932978 0.025 -1.10442e+06
0.0142475 0.00961003 0.025 -1.16279e+06
0.0146727 0.0098969 0.025 -1.22551e+06
0.0151081 0.0101905 0.025 -1.29079e+06
0.0155536 0.010491 0.025 -1.35921e+06
0.0160097 0.0107986 0.025 -1.42444e+06
0.0164764 0.0111134 0.025 -1.49068e+06
0.016954 0.0114356 0.025 -1.55683e+06
0.0174427 0.0117653 0.025 -1.61064e+06
0.0179429 0.0121026 0.025 -1.66147e+06
0.0184548 0.0124479 0.025 -1.72394e+06
0.0189786 0.0128013 0.025 -1.74592e+06
0.0195146 0.0131628 0.025 -1.77228e+06
0.020063 0.0135327 0.025 -1.81174e+06
0.0206242 0.0139112 0.025 -1.81918e+06
0.0211983 0.0142984 0.025 -1.81487e+06
0.0217857 0.0146947 0.025 -1.81955e+06
0.0223867 0.0151 0.025 -1.81788e+06
0.0230015 0.0155147 0.025 -1.80843e+06
0.0236304 0.0159389 0.025 -1.80143e+06
0.0242738 0.0163729 0.025 -1.75608e+06
0.0249318 0.0168167 0.025 -1.7341e+06
0.025605 0.0172708 0.025 -1.68395e+06
0.0262935 0.0177352 0.025 -1.62738e+06
0.0269977 0.0182102 0.025 -1.58428e+06
0.0277178 0.0186959 0.025 -1.54027e+06
0.0284544 0.0191927 0.025 -1.54734e+06
0.0292075 0.0197008 0.025 -1.49907e+06
0.0299777 0.0202203 0.025 -1.46139e+06
0.0307653 0.0207514 0.025 -1.43324e+06
0.0315704 0.0212945 0.025 -1.40601e+06
0.0323937 0.0218499 0.025 -1.38516e+06
0.0332354 0.0224176 0.025 -1.3689e+06
0.0340959 0.022998 0.025 -1.35863e+06
0.0349755 0.0235913 0.025 -1.34211e+06
0.0358747 0.0241978 0.025 -1.35469e+06
0.0367938 0.0248178 0.025 -1.33799e+06
0.0377331 0.0254513 0.025 -1.32567e+06
0.0386932 0.0260989 0.025 -1.32127e+06
0.0396743 0.0267606 0.025 -1.31726e+06
0.0406769 0.0274369 0.025 -1.31358e+06
0.0417013 0.0281279 0.025 -1.30777e+06
0.042748 0.0288339 0.025 -1.31466e+06
0.0438175 0.0295552 0.025 -1.30501e+06
0.04491 0.0302922 0.025 -1.29589e+06
0.0460262 0.031045 0.025 -1.30232e+06
0.0471662 0.031814 0.025 -1.31353e+06
0.0483306 0.0325995 0.025 -1.3021e+06
0.0495199 0.0334016 0.025 -1.2975e+06
0.0507344 0.0342208 0.025 -1.28915e+06
0.0519746 0.0350573 0.025 -1.28894e+06
0.0532409 0.0359114 0.025 -1.29896e+06
0.0545339 0.0367835 0.025 -1.28948e+06
0.0558538 0.0376739 0.025 -1.28429e+06
0.0572012 0.0385827 0.025 -1.27951e+06
0.0585766 0.0395104 0.025 -1.27734e+06
0.0599804 0.0404573 0.025 -1.28827e+06
0.061413 0.0414236 0.025 -1.27177e+06
0.0628748 0.0424096 0.025 -1.29396e+06
0.0643665 0.0434157 0.025 -1.29532e+06
0.0658883 0.0444422 0.025 -1.26891e+06
0.0674408 0.0454894 0.025 -1.2606e+06
0.0690245 0.0465576 0.025 -1.2601e+06
0.0706398 0.0476471 0.025 -1.24971e+06
0.0722871 0.0487582 0.025 -1.23946e+06
0.0739669 0.0498912 0.025 -1.23367e+06
0.0756797 0.0510466 0.025 -1.24189e+06
0.0774258 0.0522244 0.025 -1.25219e+06
0.0792059 0.053425 0.025 -1.2455e+06
0.0810203 0.0546489 0.025 -1.26189e+06
0.0828694 0.0558961 0.025 -1.22892e+06
0.0847537 0.0571671 0.025 -1.26516e+06
0.0866737 0.0584622 0.025 -1.22666e+06
0.0886298 0.0597816 0.025 -1.22652e+06
0.0906224 0.0611256 0.025 -1.23567e+06
0.0926518 0.0624944 0.025 -1.20178e+06
0.0947185 0.0638884 0.025 -1.23986e+06
0.096823 0.065308 0.025 -1.1994e+06
0.0989659 0.0667532 0.025 -1.28064e+06
0.101147 0.0682245 0.025 -1.6021e+06
0.103367 0.0697219 0.025 -1.51324e+06
0.105626 0.0712458 0.025 -1.14681e+06
0.107926 0.0727965 0.025 -1.13994e+06
0.110265 0.074374 0.025 -1.17285e+06
0.112644 0.0759789 0.025 -1.71355e+06
0.115063 0.0776111 0.025 -1.17767e+06
0.117524 0.0792709 0.025 -1.60685e+06
0.120026 0.0809585 0.025 -1.75859e+06
0.122569 0.0826741 0.025 -1.56455e+06
0.125155 0.0844179 0.025 -1.40014e+06
0.127782 0.0861901 0.025 -1.21799e+06
0.130451 0.0879908 0.025 -1.17916e+06
0.133163 0.08982 0.025 -1.15853e+06
0.135918 0.0916781 0.025 -1.13199e+06
0.138716 0.0935651 0.025 -1.13533e+06
0.141556 0.095481 0.025 -1.145e+06
0.14444 0.097426 0.025 -1.48978e+06
0.147367 0.0994004 0.025 -2.15025e+06
0.150337 0.101404 0.025 -1.56389e+06
0.153351 0.103437 0.025 -1.51581e+06
0.156408 0.105498 0.025 -2.03804e+06
0.159508 0.107589 0.025 -974646
0.162651 0.10971 0.025 -1.42236e+06
0.165838 0.111859 0.025 -3.21016e+06
0.169069 0.114039 0.025 -1.62179e+06
0.172343 0.116247 0.025 -1.8801e+06
0.175659 0.118483 0.025 -1.75872e+06
0.179018 0.120749 0.025 -1.74914e+06
0.182421 0.123045 0.025 -1.80417e+06
0.185866 0.125368 0.025 -1.5976e+06
0.189353 0.12772 0.025 -1.63809e+06
0.192882 0.1301 0.025 -1.73399e+06
0.196453 0.132509 0.025 -1.6396e+06
0.200065 0.134946 0.025 -2.01637e+06
0.203718 0.13741 0.025 -1.81077e+06
0.207412 0.139901 0.025 -875540
0.211146 0.14242 0.025 -933314
0.214919 0.144965 0.025 -1.51352e+06
0.218732 0.147537 0.025 -932796
0.222583 0.150134 0.025 -1.77034e+06
0.226472 0.152757 0.025 -918484
0.230399 0.155406 0.025 -1.67454e+06
0.234362 0.15808 0.025 -1.578e+06
0.238362 0.160777 0.025 -2.12057e+06
0.242396 0.163498 0.025 -1.84083e+06
0.246466 0.166244 0.025 -1.99055e+06
0.250569 0.169012 0.025 -887952
0.254706 0.171801 0.025 -1.44481e+06
0.258874 0.174613 0.025 -1.44195e+06
0.263074 0.177446 0.025 -1.81542e+06
0.267304 0.180299 0.025 -1.48125e+06
0.271564 0.183172 0.025 -898693
0.275852 0.186064 0.025 -1.52241e+06
0.280168 0.188975 0.025 -879126
0.28451 0.191904 0.025 -1.55114e+06
0.288876 0.19485 0.025 -2.12374e+06
0.293268 0.197812 0.025 -1.52112e+06
0.297683 0.20079 0.025 -1.80869e+06
0.302119 0.203782 0.025 -2.0223e+06
0.306577 0.206788 0.025 -1.4433e+06
0.311054 0.209808 0.025 -1.50086e+06
0.315549 0.212841 0.025 -1.11157e+06
0.320063 0.215885 0.025 -1.87364e+06
0.324591 0.218939 0.025 -1.34503e+06
0.329134 0.222003 0.025 -1.3238e+06
0.333691 0.225077 0.025 -2.00413e+06
0.33826 0.228159 0.025 -1.68255e+06
0.342839 0.231248 0.025 -1.71718e+06
0.347428 0.234343 0.025 -832926
0.352025 0.237444 0.025 -1.78513e+06
0.356628 0.240548 0.025 -1.32914e+06
0.361237 0.243658 0.025 -1.09667e+06
0.36585 0.246769 0.025 -2.30628e+06
0.370465 0.249882 0.025 -1.05824e+06
0.375082 0.252996 0.025 -1.41743e+06
0.379698 0.25611 0.025 -2.23861e+06
0.384313 0.259223 0.025 -1.32255e+06
0.388926 0.262333 0.025 -1.59111e+06
0.393534 0.265442 0.025 -1.3245e+06
0.398136 0.268546 0.025 -837731
0.40273 0.271645 0.025 -1.51643e+06
0.407317 0.274739 0.025 -1.5686e+06
0.411894 0.277826 0.025 -1.95058e+06
0.41646 0.280906 0.025 -800714
0.421014 0.283977 0.025 -1.48328e+06
0.425554 0.28704 0.025 -1.75335e+06
0.430079 0.290092 0.025 -1.39086e+06
0.434588 0.293133 0.025 -1.68523e+06
0.439079 0.296162 0.025 -1.20455e+06
0.443551 0.299179 0.025 -1.54243e+06
0.448004 0.302183 0.025 -1.57331e+06
0.452437 0.305172 0.025 -1.54188e+06
0.456846 0.308146 0.025 -1.4385e+06
0.461232 0.311105 0.025 -1.46153e+06
0.465593 0.314047 0.025 -1.3584e+06
0.469929 0.316971 0.025 -1.79122e+06
0.474238 0.319878 0.025 -947057
0.47852 0.322766 0.025 -1.04997e+06
0.482773 0.325635 0.025 -836899
0.486996 0.328483 0.025 -1.24251e+06
0.491189 0.331311 0.025 -1.8668e+06
0.49535 0.334118 0.025 -1.21315e+06
