# y+ ()       
# Time        	patch         	min           	max           	average       
11900         	base	6.877156e-03	2.398836e+01	5.513409e+00
