# Wall shear stress
# Time        	patch         	min           	max           
500           	base	(-3.271554e+02 -5.353857e-01 -6.234452e-16)	(7.773892e+01 1.011593e+00 1.903148e-15)
