# Wall shear stress
# Time        	patch         	min           	max           
0             	base	(-6.594654e+02 -5.431048e-01 -1.341227e-15)	(1.505158e+02 7.658728e-01 2.428155e-15)
