# Wall heat-flux
# Time        	patch         	min           	max           	integral      
10400         	base	-2.347342e+05	-6.523008e+03	-1.378666e+02
