# Wall heat-flux
# Time        	patch         	min           	max           	integral      
6400          	base	-1.669879e+05	-7.379221e+02	-1.874493e+02
