/*--------------------------------*- C++ -*----------------------------------*\
| =========                 |                                                 |
| \\      /  F ield         | OpenFOAM: The Open Source CFD Toolbox           |
|  \\    /   O peration     | Version:  v2012                                 |
|   \\  /    A nd           | Website:  www.openfoam.com                      |
|    \\/     M anipulation  |                                                 |
\*---------------------------------------------------------------------------*/
FoamFile
{
    version     2.0;
    format      ascii;
    class       volScalarField;
    location    "2000";
    object      Fs;
}
// * * * * * * * * * * * * * * * * * * * * * * * * * * * * * * * * * * * * * //

dimensions      [0 0 0 0 0 0 0];


internalField   nonuniform List<scalar> 
31383
(
9.80435e-07
4.53144e-05
1.02187e-06
4.5282e-05
4.53593e-05
1.02889e-06
4.5379e-05
4.53038e-05
4.53479e-05
1.0269e-06
4.52775e-05
4.53801e-05
4.52961e-05
4.53371e-05
1.01776e-06
4.52017e-05
4.53105e-05
4.53697e-05
4.52716e-05
4.53227e-05
1.00354e-06
4.5249e-05
4.52623e-05
4.53158e-05
4.53568e-05
4.52482e-05
4.53094e-05
9.85547e-07
4.53331e-05
4.52898e-05
4.52774e-05
4.53054e-05
4.53452e-05
4.52223e-05
4.52672e-05
9.67237e-07
4.53514e-05
4.53425e-05
4.52971e-05
4.5267e-05
4.52973e-05
4.53354e-05
4.51945e-05
4.52293e-05
9.51123e-07
4.53463e-05
4.53573e-05
4.53379e-05
4.52859e-05
4.52606e-05
4.52902e-05
4.53269e-05
4.51642e-05
4.5205e-05
9.43602e-07
4.5326e-05
4.53513e-05
4.53528e-05
4.53261e-05
4.52777e-05
4.52551e-05
4.52851e-05
4.53203e-05
4.51286e-05
4.5174e-05
9.51261e-07
4.5297e-05
4.53372e-05
4.53453e-05
4.53401e-05
4.53155e-05
4.52707e-05
4.52519e-05
4.52819e-05
4.53158e-05
4.50869e-05
4.51557e-05
1.02798e-06
4.53083e-05
4.5319e-05
4.53336e-05
4.53339e-05
4.53281e-05
4.53068e-05
4.5266e-05
4.52506e-05
4.52808e-05
4.53129e-05
4.50378e-05
4.52179e-05
1.17791e-06
4.53449e-05
4.53255e-05
4.53194e-05
4.53222e-05
4.53237e-05
4.53193e-05
4.53004e-05
4.52639e-05
4.52517e-05
4.52814e-05
4.53107e-05
4.49858e-05
4.5311e-05
1.37093e-06
4.53793e-05
4.53476e-05
4.53237e-05
4.53081e-05
4.5313e-05
4.53155e-05
4.53126e-05
4.52967e-05
4.52638e-05
4.52549e-05
4.52834e-05
4.5309e-05
4.49387e-05
4.54473e-05
1.6096e-06
4.53964e-05
4.53696e-05
4.534e-05
4.5312e-05
4.52996e-05
4.53055e-05
4.53095e-05
4.53087e-05
4.52958e-05
4.52661e-05
4.52594e-05
4.52859e-05
4.53065e-05
4.48921e-05
4.56839e-05
1.80176e-06
4.54038e-05
4.53804e-05
4.53563e-05
4.53277e-05
4.53028e-05
4.52922e-05
4.53002e-05
4.53063e-05
4.53081e-05
4.52976e-05
4.52711e-05
4.52648e-05
4.52883e-05
4.53027e-05
4.49149e-05
4.59348e-05
2.00283e-06
4.54074e-05
4.53841e-05
4.53652e-05
4.53444e-05
4.53177e-05
4.52951e-05
4.52876e-05
4.52974e-05
4.53061e-05
4.53109e-05
4.53018e-05
4.52764e-05
4.52696e-05
4.529e-05
4.53e-05
4.50745e-05
4.63688e-05
2.18077e-06
4.54048e-05
4.53861e-05
4.53694e-05
4.53534e-05
4.53337e-05
4.53091e-05
4.52895e-05
4.52849e-05
4.52977e-05
4.53087e-05
4.53165e-05
4.53074e-05
4.52819e-05
4.52738e-05
4.52925e-05
4.52981e-05
4.52735e-05
4.69203e-05
2.36017e-06
4.54012e-05
4.53873e-05
4.53718e-05
4.53576e-05
4.53423e-05
4.53251e-05
4.53029e-05
4.52861e-05
4.52841e-05
4.53003e-05
4.53141e-05
4.53237e-05
4.53139e-05
4.52871e-05
4.52782e-05
4.52954e-05
4.5295e-05
4.54129e-05
4.75212e-05
2.60669e-06
4.53921e-05
4.5385e-05
4.53733e-05
4.53603e-05
4.53466e-05
4.53332e-05
4.53181e-05
4.52985e-05
4.52848e-05
4.52874e-05
4.53053e-05
4.53215e-05
4.53316e-05
4.532e-05
4.52917e-05
4.5283e-05
4.52972e-05
4.52906e-05
4.55043e-05
4.8131e-05
2.84209e-06
4.53883e-05
4.53819e-05
4.53716e-05
4.53622e-05
4.53495e-05
4.53377e-05
4.53256e-05
4.53131e-05
4.52967e-05
4.52865e-05
4.52918e-05
4.53119e-05
4.53297e-05
4.53392e-05
4.53252e-05
4.52968e-05
4.52871e-05
4.52974e-05
4.52851e-05
4.55769e-05
4.87288e-05
3.10193e-06
4.53938e-05
4.53804e-05
4.53696e-05
4.53608e-05
4.53517e-05
4.53408e-05
4.53304e-05
4.5321e-05
4.5311e-05
4.52972e-05
4.52894e-05
4.52979e-05
4.53188e-05
4.53376e-05
4.5346e-05
4.53314e-05
4.53013e-05
4.52893e-05
4.52955e-05
4.52779e-05
4.56372e-05
4.93231e-05
3.39125e-06
4.53981e-05
4.53814e-05
4.53698e-05
4.53592e-05
4.53507e-05
4.53433e-05
4.53338e-05
4.53253e-05
4.53181e-05
4.53111e-05
4.53001e-05
4.5294e-05
4.53049e-05
4.53257e-05
4.53447e-05
4.53529e-05
4.5337e-05
4.53046e-05
4.52896e-05
4.52913e-05
4.52689e-05
4.56917e-05
4.99256e-05
3.69288e-06
4.53972e-05
4.53819e-05
4.53708e-05
4.53592e-05
4.53496e-05
4.53426e-05
4.53365e-05
4.53288e-05
4.53226e-05
4.53173e-05
4.53134e-05
4.53038e-05
4.53007e-05
4.5311e-05
4.5332e-05
4.53522e-05
4.53605e-05
4.53411e-05
4.53055e-05
4.52873e-05
4.52843e-05
4.52584e-05
4.57432e-05
5.05294e-05
4.00209e-06
4.53991e-05
4.53803e-05
4.5372e-05
4.53613e-05
4.53497e-05
4.53418e-05
4.53361e-05
4.53318e-05
4.53264e-05
4.53221e-05
4.53201e-05
4.53173e-05
4.5308e-05
4.53057e-05
4.53171e-05
4.53387e-05
4.53602e-05
4.53661e-05
4.53435e-05
4.53043e-05
4.52828e-05
4.52743e-05
4.52461e-05
4.57925e-05
5.11327e-05
4.32627e-06
4.5403e-05
4.53816e-05
4.53708e-05
4.53629e-05
4.53516e-05
4.53421e-05
4.53357e-05
4.53318e-05
4.53294e-05
4.53263e-05
4.53241e-05
4.53234e-05
4.53218e-05
4.53132e-05
4.53095e-05
4.53231e-05
4.53458e-05
4.53666e-05
4.537e-05
4.53437e-05
4.53004e-05
4.5275e-05
4.52611e-05
4.52304e-05
4.58295e-05
5.17321e-05
4.67768e-06
4.54127e-05
4.53863e-05
4.53724e-05
4.53632e-05
4.53531e-05
4.5344e-05
4.53362e-05
4.53316e-05
4.53296e-05
4.53293e-05
4.53284e-05
4.53275e-05
4.53275e-05
4.53261e-05
4.53167e-05
4.53154e-05
4.53293e-05
4.53518e-05
4.53711e-05
4.53723e-05
4.53413e-05
4.5294e-05
4.5264e-05
4.52433e-05
4.52073e-05
4.58463e-05
5.22951e-05
5.08138e-06
4.54309e-05
4.53942e-05
4.53747e-05
4.53647e-05
4.53527e-05
4.53454e-05
4.53382e-05
4.53322e-05
4.53298e-05
4.53299e-05
4.53315e-05
4.53325e-05
4.53321e-05
4.53319e-05
4.53298e-05
4.53206e-05
4.53208e-05
4.53346e-05
4.53558e-05
4.53733e-05
4.53716e-05
4.53361e-05
4.52845e-05
4.52488e-05
4.52203e-05
4.5176e-05
4.58592e-05
5.28235e-05
5.58363e-06
4.54655e-05
4.54037e-05
4.53789e-05
4.5367e-05
4.5353e-05
4.53445e-05
4.53397e-05
4.53344e-05
4.53307e-05
4.53304e-05
4.53323e-05
4.53353e-05
4.53371e-05
4.53367e-05
4.5336e-05
4.53341e-05
4.53255e-05
4.53249e-05
4.53383e-05
4.53579e-05
4.53738e-05
4.53688e-05
4.53283e-05
4.52717e-05
4.5229e-05
4.5191e-05
4.51381e-05
4.58701e-05
5.33112e-05
6.25403e-06
4.55175e-05
4.54203e-05
4.53848e-05
4.53719e-05
4.53563e-05
4.5344e-05
4.53388e-05
4.53358e-05
4.53329e-05
4.53315e-05
4.53334e-05
4.53367e-05
4.53399e-05
4.53419e-05
4.53407e-05
4.53406e-05
4.5339e-05
4.53295e-05
4.53277e-05
4.53403e-05
4.53579e-05
4.53716e-05
4.53639e-05
4.53172e-05
4.52545e-05
4.5204e-05
4.5156e-05
4.50948e-05
4.59709e-05
5.37635e-05
7.13188e-06
4.55651e-05
4.54461e-05
4.53976e-05
4.53773e-05
4.53636e-05
4.53431e-05
4.53386e-05
4.53347e-05
4.53342e-05
4.53337e-05
4.53346e-05
4.5338e-05
4.53423e-05
4.53452e-05
4.53467e-05
4.53455e-05
4.53456e-05
4.53428e-05
4.53313e-05
4.53286e-05
4.53402e-05
4.53558e-05
4.53672e-05
4.53553e-05
4.53024e-05
4.52331e-05
4.51738e-05
4.51154e-05
4.50453e-05
4.60748e-05
5.41821e-05
7.98441e-06
4.5601e-05
4.5471e-05
4.54133e-05
4.53824e-05
4.53764e-05
4.53449e-05
4.53372e-05
4.53344e-05
4.53329e-05
4.53349e-05
4.53368e-05
4.53394e-05
4.53436e-05
4.53477e-05
4.53501e-05
4.53517e-05
4.53509e-05
4.53497e-05
4.53454e-05
4.53318e-05
4.5328e-05
4.53382e-05
4.53514e-05
4.53598e-05
4.53437e-05
4.52838e-05
4.52071e-05
4.51383e-05
4.50686e-05
4.49891e-05
4.61812e-05
5.45032e-05
8.09361e-06
4.56123e-05
4.54887e-05
4.54284e-05
4.53979e-05
4.5379e-05
4.53613e-05
4.53363e-05
4.5335e-05
4.53324e-05
4.53335e-05
4.53379e-05
4.53416e-05
4.53453e-05
4.53496e-05
4.53531e-05
4.53556e-05
4.53578e-05
4.53556e-05
4.53527e-05
4.53466e-05
4.53311e-05
4.53254e-05
4.53339e-05
4.53442e-05
4.53496e-05
4.53285e-05
4.52614e-05
4.5176e-05
4.5097e-05
4.50153e-05
4.4926e-05
4.62753e-05
5.46085e-05
8.30347e-06
4.55383e-05
4.55029e-05
4.54338e-05
4.54099e-05
4.53815e-05
4.53891e-05
4.53369e-05
4.53377e-05
4.53326e-05
4.53327e-05
4.53362e-05
4.53427e-05
4.53477e-05
4.5352e-05
4.53555e-05
4.53595e-05
4.53621e-05
4.53631e-05
4.53588e-05
4.53543e-05
4.53459e-05
4.53281e-05
4.53201e-05
4.5327e-05
4.53341e-05
4.5336e-05
4.53098e-05
4.52343e-05
4.51399e-05
4.50498e-05
4.49547e-05
4.48549e-05
4.6365e-05
5.44792e-05
8.9667e-06
4.55126e-05
4.54626e-05
4.54528e-05
4.54154e-05
4.53862e-05
4.53727e-05
4.53717e-05
4.53347e-05
4.5336e-05
4.5333e-05
4.53351e-05
4.53409e-05
4.53487e-05
4.53542e-05
4.53582e-05
4.53626e-05
4.53665e-05
4.53676e-05
4.53675e-05
4.53611e-05
4.53545e-05
4.53436e-05
4.53232e-05
4.53126e-05
4.53175e-05
4.53213e-05
4.53191e-05
4.52871e-05
4.52029e-05
4.50983e-05
4.49957e-05
4.48865e-05
4.47751e-05
4.6445e-05
5.4139e-05
1.01071e-05
4.52819e-05
4.54418e-05
4.54279e-05
4.54309e-05
4.53955e-05
4.53714e-05
4.53786e-05
4.53372e-05
4.53411e-05
4.53355e-05
4.53352e-05
4.53392e-05
4.53467e-05
4.53549e-05
4.53608e-05
4.53655e-05
4.53702e-05
4.53731e-05
4.53727e-05
4.53705e-05
4.5362e-05
4.53531e-05
4.53391e-05
4.53161e-05
4.53031e-05
4.53051e-05
4.53053e-05
4.52986e-05
4.52604e-05
4.51664e-05
4.50509e-05
4.49347e-05
4.48101e-05
4.46851e-05
4.65163e-05
5.35059e-05
1.17099e-05
4.53906e-05
4.53393e-05
4.54194e-05
4.54129e-05
4.54112e-05
4.53646e-05
4.53846e-05
4.54094e-05
4.53394e-05
4.53401e-05
4.53375e-05
4.53392e-05
4.53448e-05
4.5353e-05
4.53616e-05
4.53681e-05
4.53737e-05
4.53775e-05
4.53788e-05
4.53765e-05
4.53724e-05
4.53614e-05
4.53498e-05
4.53329e-05
4.53064e-05
4.52905e-05
4.52897e-05
4.52859e-05
4.52741e-05
4.52293e-05
4.51248e-05
4.49972e-05
4.48662e-05
4.47249e-05
4.45836e-05
4.65788e-05
5.24755e-05
1.39622e-05
4.58409e-05
4.53672e-05
4.53687e-05
4.54039e-05
4.5397e-05
4.53867e-05
4.53397e-05
4.54068e-05
4.54079e-05
4.53533e-05
4.5342e-05
4.53409e-05
4.53443e-05
4.53507e-05
4.53593e-05
4.53692e-05
4.53764e-05
4.53818e-05
4.53841e-05
4.53837e-05
4.53793e-05
4.5373e-05
4.53594e-05
4.53445e-05
4.53242e-05
4.52943e-05
4.52748e-05
4.52707e-05
4.52628e-05
4.52455e-05
4.51932e-05
4.50778e-05
4.49368e-05
4.47899e-05
4.46302e-05
4.44699e-05
4.66304e-05
5.09038e-05
1.71312e-05
4.59547e-05
4.57e-05
4.536e-05
4.53785e-05
4.53853e-05
4.53841e-05
4.53662e-05
4.53673e-05
4.54275e-05
4.53475e-05
4.5353e-05
4.5345e-05
4.53458e-05
4.53501e-05
4.53568e-05
4.53668e-05
4.53777e-05
4.53845e-05
4.53888e-05
4.53897e-05
4.53874e-05
4.53806e-05
4.53721e-05
4.53551e-05
4.53372e-05
4.53131e-05
4.52796e-05
4.52562e-05
4.52483e-05
4.52356e-05
4.52129e-05
4.51523e-05
4.50248e-05
4.48693e-05
4.47045e-05
4.45252e-05
4.43431e-05
4.66655e-05
4.85888e-05
2.16051e-05
4.57655e-05
4.56576e-05
4.57121e-05
4.53555e-05
4.53962e-05
4.53705e-05
4.53773e-05
4.5374e-05
4.54474e-05
4.54273e-05
4.53411e-05
4.53544e-05
4.53491e-05
4.5351e-05
4.53561e-05
4.53643e-05
4.53753e-05
4.53859e-05
4.53919e-05
4.5395e-05
4.53945e-05
4.53899e-05
4.53806e-05
4.53694e-05
4.53487e-05
4.53274e-05
4.52993e-05
4.52617e-05
4.52344e-05
4.52228e-05
4.52047e-05
4.51753e-05
4.51063e-05
4.49656e-05
4.47943e-05
4.46096e-05
4.44084e-05
4.42033e-05
4.66565e-05
4.52798e-05
2.7803e-05
4.616e-05
4.56188e-05
4.54921e-05
4.58166e-05
4.53469e-05
4.54068e-05
4.53707e-05
4.5394e-05
4.53927e-05
4.55022e-05
4.53736e-05
4.53739e-05
4.53574e-05
4.53538e-05
4.53566e-05
4.53631e-05
4.53724e-05
4.53837e-05
4.53934e-05
4.53987e-05
4.54005e-05
4.5398e-05
4.53909e-05
4.53788e-05
4.53646e-05
4.53403e-05
4.53152e-05
4.52828e-05
4.52406e-05
4.52085e-05
4.51925e-05
4.51694e-05
4.51329e-05
4.50547e-05
4.48997e-05
4.47106e-05
4.45046e-05
4.42786e-05
4.40496e-05
4.65913e-05
4.06799e-05
3.58018e-05
4.61629e-05
4.5766e-05
4.55493e-05
4.53982e-05
4.59159e-05
4.5348e-05
4.54137e-05
4.54173e-05
4.54212e-05
4.54408e-05
4.5465e-05
4.53527e-05
4.53767e-05
4.53611e-05
4.53587e-05
4.53631e-05
4.53714e-05
4.53807e-05
4.53914e-05
4.54007e-05
4.54046e-05
4.54047e-05
4.54e-05
4.53903e-05
4.53753e-05
4.53576e-05
4.53295e-05
4.53003e-05
4.52632e-05
4.52162e-05
4.51796e-05
4.51583e-05
4.51294e-05
4.50853e-05
4.49965e-05
4.48264e-05
4.46184e-05
4.43883e-05
4.41344e-05
4.38784e-05
4.62211e-05
3.45511e-05
4.50153e-05
4.56525e-05
4.58902e-05
4.56478e-05
4.54909e-05
4.52971e-05
4.60351e-05
4.53589e-05
4.54288e-05
4.54709e-05
4.54074e-05
4.5472e-05
4.54109e-05
4.53862e-05
4.53768e-05
4.53649e-05
4.53649e-05
4.53711e-05
4.53795e-05
4.53887e-05
4.53989e-05
4.54068e-05
4.54093e-05
4.54077e-05
4.54007e-05
4.5388e-05
4.53696e-05
4.53486e-05
4.53164e-05
4.52827e-05
4.52406e-05
4.5188e-05
4.51468e-05
4.51202e-05
4.50846e-05
4.50322e-05
4.49327e-05
4.47453e-05
4.45161e-05
4.42593e-05
4.39732e-05
4.36855e-05
4.55637e-05
2.68965e-05
5.76354e-05
4.54833e-05
4.54485e-05
4.58099e-05
4.56316e-05
4.541e-05
4.51978e-05
4.61566e-05
4.53701e-05
4.54446e-05
4.54203e-05
4.54751e-05
4.54081e-05
4.53978e-05
4.54071e-05
4.5379e-05
4.537e-05
4.5372e-05
4.53791e-05
4.53872e-05
4.53958e-05
4.54051e-05
4.54123e-05
4.5413e-05
4.54092e-05
4.53993e-05
4.53836e-05
4.53617e-05
4.5337e-05
4.53005e-05
4.52621e-05
4.52151e-05
4.51564e-05
4.51093e-05
4.5077e-05
4.5035e-05
4.49733e-05
4.48614e-05
4.46558e-05
4.44034e-05
4.41165e-05
4.37921e-05
4.34643e-05
4.45566e-05
1.84958e-05
7.12756e-05
4.5172e-05
4.5435e-05
4.5352e-05
4.58527e-05
4.56172e-05
4.53229e-05
4.5108e-05
4.62737e-05
4.54185e-05
4.54411e-05
4.53641e-05
4.55097e-05
4.53231e-05
4.53826e-05
4.54057e-05
4.53829e-05
4.53761e-05
4.53794e-05
4.53864e-05
4.53944e-05
4.54026e-05
4.54108e-05
4.54165e-05
4.54151e-05
4.54089e-05
4.5396e-05
4.53771e-05
4.53516e-05
4.5323e-05
4.52818e-05
4.5238e-05
4.51857e-05
4.51211e-05
4.50681e-05
4.50295e-05
4.49798e-05
4.49082e-05
4.4783e-05
4.45571e-05
4.42786e-05
4.39579e-05
4.35877e-05
4.32057e-05
4.30814e-05
1.09952e-05
8.19162e-05
4.47455e-05
4.5272e-05
4.54271e-05
4.52523e-05
4.59089e-05
4.56041e-05
4.52242e-05
4.50466e-05
4.6369e-05
4.54585e-05
4.54242e-05
4.54985e-05
4.53754e-05
4.54825e-05
4.53713e-05
4.5399e-05
4.53871e-05
4.53826e-05
4.53866e-05
4.53937e-05
4.5401e-05
4.54082e-05
4.54157e-05
4.54192e-05
4.54157e-05
4.5407e-05
4.5391e-05
4.53687e-05
4.53391e-05
4.53063e-05
4.526e-05
4.52108e-05
4.51525e-05
4.50814e-05
4.50221e-05
4.49767e-05
4.49187e-05
4.48362e-05
4.46961e-05
4.44484e-05
4.41408e-05
4.37815e-05
4.33551e-05
4.28951e-05
4.09538e-05
6.90557e-06
8.3646e-05
4.44082e-05
4.50234e-05
4.5318e-05
4.5429e-05
4.51351e-05
4.59893e-05
4.55244e-05
4.51127e-05
4.50227e-05
4.64358e-05
4.54437e-05
4.53621e-05
4.54114e-05
4.53186e-05
4.54851e-05
4.53958e-05
4.5401e-05
4.53915e-05
4.53889e-05
4.53931e-05
4.54004e-05
4.54074e-05
4.54128e-05
4.54186e-05
4.54203e-05
4.54142e-05
4.5403e-05
4.5384e-05
4.53579e-05
4.53244e-05
4.52866e-05
4.52354e-05
4.51804e-05
4.51159e-05
4.50373e-05
4.49712e-05
4.49184e-05
4.48515e-05
4.47571e-05
4.46008e-05
4.43282e-05
4.39885e-05
4.35846e-05
4.30887e-05
4.25006e-05
3.7983e-05
4.08903e-06
7.49986e-05
4.41941e-05
4.48372e-05
4.5133e-05
4.53374e-05
4.54249e-05
4.50116e-05
4.60936e-05
4.54273e-05
4.49899e-05
4.50468e-05
4.64686e-05
4.54237e-05
4.52899e-05
4.52506e-05
4.53802e-05
4.54104e-05
4.54309e-05
4.54039e-05
4.53959e-05
4.5395e-05
4.53997e-05
4.54065e-05
4.54126e-05
4.54165e-05
4.54202e-05
4.54192e-05
4.54108e-05
4.53969e-05
4.53746e-05
4.53445e-05
4.5307e-05
4.52643e-05
4.52075e-05
4.5146e-05
4.5075e-05
4.49886e-05
4.49154e-05
4.48547e-05
4.47779e-05
4.46698e-05
4.44956e-05
4.41959e-05
4.38192e-05
4.33631e-05
4.27835e-05
4.19671e-05
3.41279e-05
2.6611e-06
6.88268e-05
4.40201e-05
4.47169e-05
4.50067e-05
4.51459e-05
4.53511e-05
4.54199e-05
4.48718e-05
4.62283e-05
4.53396e-05
4.48473e-05
4.51175e-05
4.64757e-05
4.53929e-05
4.52659e-05
4.52956e-05
4.54046e-05
4.54088e-05
4.5434e-05
4.54069e-05
4.54005e-05
4.54007e-05
4.54056e-05
4.54116e-05
4.54165e-05
4.54191e-05
4.54204e-05
4.54169e-05
4.54058e-05
4.53886e-05
4.53629e-05
4.53288e-05
4.52864e-05
4.52386e-05
4.5176e-05
4.51081e-05
4.50297e-05
4.49354e-05
4.48542e-05
4.47843e-05
4.46968e-05
4.45743e-05
4.438e-05
4.405e-05
4.36314e-05
4.31139e-05
4.24376e-05
4.12105e-05
2.93623e-05
2.23954e-06
6.61746e-05
4.38905e-05
4.46173e-05
4.49201e-05
4.50415e-05
4.51555e-05
4.53716e-05
4.54181e-05
4.47356e-05
4.6392e-05
4.53581e-05
4.47023e-05
4.52122e-05
4.64522e-05
4.53683e-05
4.52716e-05
4.53636e-05
4.54066e-05
4.54095e-05
4.5429e-05
4.54091e-05
4.54053e-05
4.54061e-05
4.54111e-05
4.54162e-05
4.54193e-05
4.54196e-05
4.54187e-05
4.54129e-05
4.53989e-05
4.53782e-05
4.53489e-05
4.53106e-05
4.5263e-05
4.52098e-05
4.51408e-05
4.5066e-05
4.49801e-05
4.48771e-05
4.47867e-05
4.47073e-05
4.46082e-05
4.44692e-05
4.42528e-05
4.38885e-05
4.34214e-05
4.2831e-05
4.20469e-05
4.01195e-05
2.47269e-05
2.4776e-06
6.43417e-05
4.38088e-05
4.45466e-05
4.48489e-05
4.49565e-05
4.50699e-05
4.51585e-05
4.53904e-05
4.54051e-05
4.45919e-05
4.65908e-05
4.54068e-05
4.45809e-05
4.52987e-05
4.64082e-05
4.53781e-05
4.53173e-05
4.53756e-05
4.54113e-05
4.54139e-05
4.54267e-05
4.54115e-05
4.54094e-05
4.54113e-05
4.54156e-05
4.54186e-05
4.54205e-05
4.54182e-05
4.54155e-05
4.5407e-05
4.53898e-05
4.53656e-05
4.53324e-05
4.52893e-05
4.52369e-05
4.51779e-05
4.51021e-05
4.50195e-05
4.49253e-05
4.48133e-05
4.47135e-05
4.46232e-05
4.45106e-05
4.43535e-05
4.4112e-05
4.3709e-05
4.31861e-05
4.2508e-05
4.15987e-05
3.85778e-05
2.03843e-05
3.28756e-06
6.24003e-05
4.37496e-05
4.44986e-05
4.48007e-05
4.4889e-05
4.4987e-05
4.50948e-05
4.51557e-05
4.54247e-05
4.54074e-05
4.45093e-05
4.676e-05
4.54657e-05
4.45168e-05
4.53409e-05
4.63491e-05
4.54194e-05
4.53627e-05
4.5375e-05
4.5414e-05
4.54172e-05
4.54251e-05
4.54146e-05
4.54134e-05
4.54153e-05
4.54185e-05
4.542e-05
4.54203e-05
4.54155e-05
4.541e-05
4.53987e-05
4.53784e-05
4.53505e-05
4.53132e-05
4.52655e-05
4.52073e-05
4.51426e-05
4.50596e-05
4.49687e-05
4.48662e-05
4.47439e-05
4.46335e-05
4.45313e-05
4.44041e-05
4.42265e-05
4.39565e-05
4.35099e-05
4.29211e-05
4.21354e-05
4.1059e-05
3.64977e-05
1.63464e-05
4.89477e-06
6.01318e-05
4.38606e-05
4.44627e-05
4.4766e-05
4.48455e-05
4.49218e-05
4.50102e-05
4.51188e-05
4.5149e-05
4.54516e-05
4.53702e-05
4.44396e-05
4.68933e-05
4.54693e-05
4.45396e-05
4.53008e-05
4.62626e-05
4.54483e-05
4.537e-05
4.53771e-05
4.54166e-05
4.54206e-05
4.54247e-05
4.54172e-05
4.54172e-05
4.54186e-05
4.54205e-05
4.54207e-05
4.54179e-05
4.54107e-05
4.54026e-05
4.53883e-05
4.53644e-05
4.53331e-05
4.5291e-05
4.52384e-05
4.51748e-05
4.51031e-05
4.50125e-05
4.4913e-05
4.48013e-05
4.46682e-05
4.45463e-05
4.44311e-05
4.42871e-05
4.40872e-05
4.37846e-05
4.32869e-05
4.26207e-05
4.17043e-05
4.03527e-05
3.38221e-05
1.28069e-05
8.01423e-06
5.71854e-05
4.44447e-05
4.45367e-05
4.47407e-05
4.48121e-05
4.48833e-05
4.49456e-05
4.50318e-05
4.51435e-05
4.51386e-05
4.5482e-05
4.53388e-05
4.43953e-05
4.67206e-05
4.54811e-05
4.47277e-05
4.51632e-05
4.61403e-05
4.54537e-05
4.53764e-05
4.53831e-05
4.542e-05
4.54251e-05
4.54251e-05
4.54203e-05
4.54203e-05
4.54205e-05
4.54208e-05
4.54193e-05
4.54144e-05
4.54045e-05
4.53932e-05
4.53755e-05
4.53484e-05
4.53128e-05
4.5266e-05
4.52081e-05
4.5138e-05
4.50595e-05
4.49613e-05
4.48526e-05
4.47303e-05
4.45856e-05
4.44513e-05
4.43219e-05
4.4159e-05
4.39327e-05
4.35933e-05
4.30366e-05
4.22779e-05
4.12104e-05
3.93751e-05
3.05326e-05
9.90752e-06
1.43002e-05
5.42637e-05
5.02934e-05
4.53325e-05
4.48015e-05
4.47876e-05
4.48497e-05
4.49102e-05
4.49677e-05
4.50519e-05
4.5163e-05
4.51274e-05
4.55207e-05
4.53107e-05
4.45085e-05
4.65024e-05
4.54873e-05
4.49962e-05
4.49104e-05
4.59385e-05
4.54728e-05
4.53902e-05
4.53909e-05
4.54228e-05
4.543e-05
4.54264e-05
4.54226e-05
4.54223e-05
4.54213e-05
4.54207e-05
4.54165e-05
4.54091e-05
4.53964e-05
4.53821e-05
4.53611e-05
4.53296e-05
4.52898e-05
4.52381e-05
4.51747e-05
4.50983e-05
4.50122e-05
4.49049e-05
4.47864e-05
4.46538e-05
4.44957e-05
4.4348e-05
4.42014e-05
4.40183e-05
4.37619e-05
4.33798e-05
4.27542e-05
4.18845e-05
4.06522e-05
3.80232e-05
2.67298e-05
7.71478e-06
2.48096e-05
5.18925e-05
0.0376001
4.82451e-05
4.56474e-05
4.48493e-05
4.48244e-05
4.48763e-05
4.49356e-05
4.49874e-05
4.5071e-05
4.51799e-05
4.5115e-05
4.5544e-05
4.52307e-05
4.46979e-05
4.61959e-05
4.54001e-05
4.55231e-05
4.46179e-05
4.55792e-05
4.55055e-05
4.54024e-05
4.53997e-05
4.54268e-05
4.54333e-05
4.54281e-05
4.54249e-05
4.54238e-05
4.54211e-05
4.54187e-05
4.54118e-05
4.54017e-05
4.53857e-05
4.5368e-05
4.53435e-05
4.53086e-05
4.52643e-05
4.52074e-05
4.51375e-05
4.50538e-05
4.49596e-05
4.48436e-05
4.47145e-05
4.45699e-05
4.4398e-05
4.42351e-05
4.40705e-05
4.38628e-05
4.35728e-05
4.31408e-05
4.24341e-05
4.14294e-05
4.00055e-05
3.62226e-05
2.27313e-05
6.30187e-06
3.69599e-05
5.02088e-05
0.0151983
0.0022423
4.89747e-05
4.58031e-05
4.48879e-05
4.48507e-05
4.49005e-05
4.4958e-05
4.50046e-05
4.50835e-05
4.51922e-05
4.51135e-05
4.55765e-05
4.51827e-05
4.49652e-05
4.59499e-05
4.52341e-05
4.59053e-05
4.41039e-05
4.54545e-05
4.55296e-05
4.54138e-05
4.54088e-05
4.54326e-05
4.54365e-05
4.54304e-05
4.54265e-05
4.54234e-05
4.542e-05
4.5415e-05
4.54049e-05
4.53921e-05
4.53725e-05
4.5352e-05
4.53239e-05
4.52845e-05
4.5235e-05
4.5173e-05
4.50962e-05
4.50054e-05
4.4903e-05
4.47769e-05
4.46366e-05
4.44788e-05
4.42921e-05
4.41114e-05
4.39268e-05
4.36914e-05
4.33621e-05
4.28716e-05
4.20676e-05
4.08998e-05
3.91848e-05
3.39129e-05
1.89938e-05
5.8781e-06
4.35788e-05
4.94118e-05
6.79742e-05
0.00153244
0.000872514
5.02997e-05
4.6075e-05
4.49174e-05
4.48747e-05
4.49241e-05
4.49788e-05
4.50189e-05
4.50873e-05
4.51934e-05
4.51223e-05
4.55857e-05
4.5166e-05
4.51112e-05
4.58125e-05
4.50641e-05
4.69246e-05
4.4361e-05
4.57626e-05
4.5548e-05
4.54241e-05
4.54196e-05
4.54373e-05
4.54386e-05
4.54324e-05
4.54275e-05
4.54229e-05
4.54171e-05
4.54094e-05
4.5397e-05
4.53807e-05
4.5358e-05
4.53335e-05
4.53014e-05
4.52576e-05
4.52034e-05
4.51351e-05
4.50517e-05
4.4953e-05
4.48416e-05
4.47045e-05
4.45512e-05
4.43803e-05
4.41759e-05
4.39769e-05
4.37683e-05
4.35016e-05
4.31257e-05
4.25656e-05
4.1645e-05
4.02894e-05
3.80583e-05
3.10289e-05
1.57639e-05
7.13613e-06
4.43805e-05
4.89282e-05
3.63705e-05
5.51223e-05
0.000765581
0.000811417
5.18802e-05
4.65266e-05
4.49441e-05
4.4898e-05
4.49445e-05
4.49979e-05
4.50233e-05
4.50875e-05
4.51938e-05
4.514e-05
4.55716e-05
4.51946e-05
4.53474e-05
4.55803e-05
4.49826e-05
4.78759e-05
4.26127e-05
4.6156e-05
4.55668e-05
4.5436e-05
4.5432e-05
4.54411e-05
4.5441e-05
4.54343e-05
4.54269e-05
4.54213e-05
4.54132e-05
4.54023e-05
4.53868e-05
4.53667e-05
4.53402e-05
4.53126e-05
4.52766e-05
4.52278e-05
4.51686e-05
4.50938e-05
4.50026e-05
4.48952e-05
4.47737e-05
4.46256e-05
4.44594e-05
4.42726e-05
4.40499e-05
4.38295e-05
4.35936e-05
4.32902e-05
4.28609e-05
4.22172e-05
4.11563e-05
3.95885e-05
3.65022e-05
2.75901e-05
1.29575e-05
1.14378e-05
4.52174e-05
4.85881e-05
3.34387e-05
3.99043e-05
5.16145e-05
0.00072741
0.000717686
5.30061e-05
4.69406e-05
4.49704e-05
4.49181e-05
4.4959e-05
4.50065e-05
4.50165e-05
4.50813e-05
4.5198e-05
4.51672e-05
4.55508e-05
4.52812e-05
4.5522e-05
4.52993e-05
4.50262e-05
4.88152e-05
4.16233e-05
4.65608e-05
4.55899e-05
4.54492e-05
4.54416e-05
4.54444e-05
4.54428e-05
4.54348e-05
4.5427e-05
4.54182e-05
4.54072e-05
4.53929e-05
4.53739e-05
4.53504e-05
4.53204e-05
4.52886e-05
4.5248e-05
4.51953e-05
4.51298e-05
4.50481e-05
4.49489e-05
4.48326e-05
4.47006e-05
4.45396e-05
4.43586e-05
4.4156e-05
4.39125e-05
4.36678e-05
4.34009e-05
4.30546e-05
4.25613e-05
4.18173e-05
4.05847e-05
3.87361e-05
3.44575e-05
2.37873e-05
1.07326e-05
2.01601e-05
4.6029e-05
4.83697e-05
2.81424e-05
3.79377e-05
4.09079e-05
5.1168e-05
0.000669481
0.000649326
5.52875e-05
4.73472e-05
4.49949e-05
4.49338e-05
4.49711e-05
4.50043e-05
4.50129e-05
4.508e-05
4.52099e-05
4.51999e-05
4.55062e-05
4.54384e-05
4.56024e-05
4.48528e-05
4.5173e-05
4.96129e-05
4.06484e-05
4.69757e-05
4.56156e-05
4.54567e-05
4.54471e-05
4.54473e-05
4.54444e-05
4.54354e-05
4.54246e-05
4.5413e-05
4.53995e-05
4.53817e-05
4.53593e-05
4.53312e-05
4.52974e-05
4.52618e-05
4.52174e-05
4.51589e-05
4.50873e-05
4.49981e-05
4.48907e-05
4.47645e-05
4.46203e-05
4.44466e-05
4.42494e-05
4.40279e-05
4.37621e-05
4.34892e-05
4.31862e-05
4.27896e-05
4.22194e-05
4.13549e-05
3.99243e-05
3.76074e-05
3.19161e-05
2.00712e-05
9.4447e-06
3.20656e-05
4.57591e-05
4.81072e-05
2.76037e-05
3.46319e-05
3.94067e-05
4.10522e-05
5.07651e-05
0.000592433
0.000478326
5.57263e-05
4.78488e-05
4.50138e-05
4.49458e-05
4.49703e-05
4.50057e-05
4.50159e-05
4.50958e-05
4.52315e-05
4.52437e-05
4.54251e-05
4.56161e-05
4.57933e-05
4.44396e-05
4.53994e-05
5.03381e-05
3.98291e-05
4.74158e-05
4.56395e-05
4.546e-05
4.54524e-05
4.54496e-05
4.54447e-05
4.54338e-05
4.54209e-05
4.54067e-05
4.53899e-05
4.53683e-05
4.53419e-05
4.53101e-05
4.52728e-05
4.52321e-05
4.51831e-05
4.5119e-05
4.50408e-05
4.49435e-05
4.48273e-05
4.46905e-05
4.45338e-05
4.43449e-05
4.41301e-05
4.38883e-05
4.35961e-05
4.32913e-05
4.29472e-05
4.24903e-05
4.18286e-05
4.0815e-05
3.91579e-05
3.60803e-05
2.88852e-05
1.70328e-05
9.87749e-06
4.10238e-05
4.56684e-05
4.82345e-05
2.70874e-05
3.4251e-05
3.68343e-05
3.95214e-05
4.12974e-05
5.0522e-05
0.000538719
0.00051171
5.92309e-05
4.8347e-05
4.50299e-05
4.49491e-05
4.49666e-05
4.50123e-05
4.50299e-05
4.51294e-05
4.52517e-05
4.52997e-05
4.5311e-05
4.57924e-05
4.59857e-05
4.40226e-05
4.56499e-05
5.09558e-05
3.91041e-05
4.79774e-05
4.5657e-05
4.54629e-05
4.54577e-05
4.54501e-05
4.54444e-05
4.54317e-05
4.54162e-05
4.5399e-05
4.53783e-05
4.53532e-05
4.53226e-05
4.52867e-05
4.52437e-05
4.51998e-05
4.5146e-05
4.50759e-05
4.49898e-05
4.48844e-05
4.47579e-05
4.46097e-05
4.44398e-05
4.42346e-05
4.39998e-05
4.37355e-05
4.34143e-05
4.30717e-05
4.26785e-05
4.21495e-05
4.13762e-05
4.01839e-05
3.82084e-05
3.40945e-05
2.54514e-05
1.47527e-05
1.34008e-05
4.34225e-05
4.54179e-05
4.85058e-05
2.86897e-05
3.40459e-05
3.64975e-05
3.70723e-05
3.97279e-05
4.15484e-05
5.0445e-05
0.000297241
0.00035136
5.87835e-05
4.89051e-05
4.5036e-05
4.49492e-05
4.49758e-05
4.50312e-05
4.50665e-05
4.51669e-05
4.52668e-05
4.53459e-05
4.52219e-05
4.59404e-05
4.59588e-05
4.36053e-05
4.59957e-05
5.14663e-05
3.84735e-05
4.84303e-05
4.56788e-05
4.54644e-05
4.54634e-05
4.54505e-05
4.54429e-05
4.54288e-05
4.54101e-05
4.53894e-05
4.53648e-05
4.53353e-05
4.53001e-05
4.52602e-05
4.52127e-05
4.51637e-05
4.51046e-05
4.50282e-05
4.49348e-05
4.48199e-05
4.46827e-05
4.45214e-05
4.43367e-05
4.41139e-05
4.38584e-05
4.35678e-05
4.32126e-05
4.28272e-05
4.23753e-05
4.17598e-05
4.08503e-05
3.94473e-05
3.69468e-05
3.16245e-05
2.19631e-05
1.30691e-05
2.19378e-05
4.39637e-05
4.52452e-05
4.87967e-05
2.93028e-05
3.50431e-05
3.646e-05
3.67297e-05
3.73642e-05
3.99438e-05
4.18393e-05
5.0395e-05
0.000344621
0.000336673
6.40042e-05
4.94633e-05
4.50363e-05
4.49525e-05
4.49983e-05
4.50702e-05
4.51098e-05
4.51975e-05
4.52744e-05
4.53776e-05
4.52191e-05
4.6054e-05
4.59235e-05
4.31481e-05
4.6513e-05
5.18694e-05
3.79102e-05
4.881e-05
4.56969e-05
4.54631e-05
4.54694e-05
4.54495e-05
4.54399e-05
4.54242e-05
4.54023e-05
4.53772e-05
4.53484e-05
4.53149e-05
4.52755e-05
4.52301e-05
4.51786e-05
4.51247e-05
4.506e-05
4.49766e-05
4.48746e-05
4.47494e-05
4.46005e-05
4.44258e-05
4.42247e-05
4.39819e-05
4.37016e-05
4.33827e-05
4.29886e-05
4.25529e-05
4.20311e-05
4.13097e-05
4.02338e-05
3.85604e-05
3.52769e-05
2.87045e-05
1.90186e-05
1.24652e-05
3.40733e-05
4.43613e-05
4.52951e-05
4.92021e-05
3.02923e-05
3.55168e-05
3.72463e-05
3.67504e-05
3.7032e-05
3.7661e-05
4.01735e-05
4.21526e-05
5.0539e-05
0.000224429
0.000285766
6.15986e-05
5.00411e-05
4.50427e-05
4.49707e-05
4.50384e-05
4.51152e-05
4.51451e-05
4.52256e-05
4.52767e-05
4.54243e-05
4.52468e-05
4.6161e-05
4.58518e-05
4.26945e-05
4.68961e-05
5.2181e-05
3.74109e-05
4.91104e-05
4.57207e-05
4.54606e-05
4.54731e-05
4.54475e-05
4.54355e-05
4.54172e-05
4.53922e-05
4.53636e-05
4.53302e-05
4.5292e-05
4.52475e-05
4.51981e-05
4.51403e-05
4.50821e-05
4.50107e-05
4.49195e-05
4.48088e-05
4.46735e-05
4.45111e-05
4.43208e-05
4.41021e-05
4.38378e-05
4.35301e-05
4.31773e-05
4.27386e-05
4.22435e-05
4.16371e-05
4.07876e-05
3.95132e-05
3.74158e-05
3.31661e-05
2.54685e-05
1.69292e-05
1.47699e-05
4.1823e-05
4.45601e-05
4.53823e-05
4.97058e-05
3.17218e-05
3.62032e-05
3.76547e-05
3.74526e-05
3.70831e-05
3.73326e-05
3.80023e-05
4.04487e-05
4.24659e-05
5.07617e-05
0.00025743
0.000282789
6.64014e-05
5.05869e-05
4.50671e-05
4.50155e-05
4.5083e-05
4.51513e-05
4.51766e-05
4.52531e-05
4.52781e-05
4.54652e-05
4.53029e-05
4.62849e-05
4.57709e-05
4.23051e-05
4.69547e-05
5.23853e-05
3.69878e-05
4.93356e-05
4.57425e-05
4.54585e-05
4.54745e-05
4.54442e-05
4.54287e-05
4.54085e-05
4.53807e-05
4.53471e-05
4.53089e-05
4.52656e-05
4.52165e-05
4.51617e-05
4.50992e-05
4.50347e-05
4.49574e-05
4.48585e-05
4.47375e-05
4.45897e-05
4.44137e-05
4.42065e-05
4.39678e-05
4.36787e-05
4.33412e-05
4.29499e-05
4.24582e-05
4.18913e-05
4.11827e-05
4.01751e-05
3.86476e-05
3.59072e-05
3.05986e-05
2.23303e-05
1.55483e-05
2.23176e-05
4.41409e-05
4.45071e-05
4.54141e-05
5.04132e-05
3.27425e-05
3.71171e-05
3.81659e-05
3.78453e-05
3.77512e-05
3.7401e-05
3.76807e-05
3.83649e-05
4.06852e-05
4.28027e-05
5.11802e-05
0.000211448
0.000288175
6.74975e-05
5.10919e-05
4.51278e-05
4.50647e-05
4.51225e-05
4.51853e-05
4.52109e-05
4.52794e-05
4.52897e-05
4.55041e-05
4.53807e-05
4.64333e-05
4.5689e-05
4.19719e-05
4.70678e-05
5.24856e-05
3.66185e-05
4.94641e-05
4.57652e-05
4.54552e-05
4.54739e-05
4.54396e-05
4.54215e-05
4.53979e-05
4.53658e-05
4.53282e-05
4.52856e-05
4.52369e-05
4.5183e-05
4.51223e-05
4.50542e-05
4.49837e-05
4.48991e-05
4.47911e-05
4.46593e-05
4.4499e-05
4.43072e-05
4.40811e-05
4.38207e-05
4.35036e-05
4.31299e-05
4.26945e-05
4.21402e-05
4.1487e-05
4.06532e-05
3.94546e-05
3.75439e-05
3.39905e-05
2.76635e-05
1.99081e-05
1.53362e-05
3.41116e-05
4.47539e-05
4.44481e-05
4.54611e-05
5.1326e-05
3.36047e-05
3.77238e-05
3.88884e-05
3.83663e-05
3.81202e-05
3.80378e-05
3.77633e-05
3.80513e-05
3.87508e-05
4.09491e-05
4.30961e-05
5.17001e-05
0.000209133
0.000252586
6.72164e-05
5.15064e-05
4.52118e-05
4.51047e-05
4.51603e-05
4.52198e-05
4.52447e-05
4.53029e-05
4.53154e-05
4.55047e-05
4.54481e-05
4.6567e-05
4.5616e-05
4.1674e-05
4.73504e-05
5.24781e-05
3.6371e-05
4.94831e-05
4.57919e-05
4.54527e-05
4.54718e-05
4.54337e-05