/*--------------------------------*- C++ -*----------------------------------*\
| =========                 |                                                 |
| \\      /  F ield         | OpenFOAM: The Open Source CFD Toolbox           |
|  \\    /   O peration     | Version:  v2012                                 |
|   \\  /    A nd           | Website:  www.openfoam.com                      |
|    \\/     M anipulation  |                                                 |
\*---------------------------------------------------------------------------*/
FoamFile
{
    version     2.0;
    format      ascii;
    class       volScalarField;
    location    "2000";
    object      nk;
}
// * * * * * * * * * * * * * * * * * * * * * * * * * * * * * * * * * * * * * //

dimensions      [0 0 0 0 0 0 0];


internalField   nonuniform List<scalar> 
31383
(
0.0610938
0.0616925
0.00118011
0.06168
0.00233313
0.000265711
0.0616693
0.00231005
0.00329266
0.00028063
0.0616611
0.00229054
0.00323468
0.00586072
0.000400129
0.061654
0.00227539
0.0031856
0.00575433
0.00909252
0.000558077
0.061648
0.0022626
0.00314749
0.00566426
0.00892763
0.0128534
0.000749075
0.0616427
0.00225164
0.00311535
0.00559436
0.00878795
0.0126231
0.0170817
0.000974757
0.0616378
0.00224184
0.00308785
0.00553539
0.00867948
0.0124274
0.0167837
0.0216948
0.00124129
0.061634
0.0022333
0.00306321
0.00548491
0.00858796
0.0122753
0.016529
0.0213359
0.0265312
0.00155332
0.0616303
0.00222592
0.00304169
0.00543969
0.00850964
0.0121469
0.0163307
0.0210261
0.0261364
0.0313035
0.0019167
0.0616267
0.00221911
0.00302318
0.00540019
0.00843946
0.012037
0.0161632
0.0207841
0.0257871
0.0309304
0.0356496
0.00230793
0.0616235
0.00221267
0.00300605
0.00536626
0.0083782
0.0119385
0.0160198
0.0205791
0.0255124
0.0305738
0.0353538
0.0391747
0.00275519
0.0616204
0.00220672
0.0029899
0.00533483
0.00832549
0.0118524
0.015891
0.0204033
0.0252783
0.0302893
0.0350326
0.0390127
0.0416155
0.00326201
0.0616177
0.00220109
0.00297488
0.00530522
0.00827674
0.0117784
0.0157783
0.020245
0.0250775
0.030045
0.0347766
0.0387766
0.0416246
0.0429258
0.00376274
0.0616153
0.00219606
0.00296074
0.00527762
0.00823077
0.0117099
0.0156815
0.0201062
0.0248952
0.0298319
0.0345503
0.0385862
0.0415083
0.0431126
0.0432305
0.00429571
0.0616132
0.00219155
0.00294815
0.0052517
0.00818794
0.0116453
0.0155918
0.0199869
0.0247351
0.0296416
0.0343435
0.0384099
0.0414095
0.0431253
0.0435787
0.0427645
0.00482091
0.0616113
0.00218738
0.00293678
0.00522861
0.00814766
0.0115852
0.0155072
0.0198763
0.0245975
0.0294708
0.0341724
0.0382413
0.0413064
0.0431256
0.0437108
0.0432385
0.0417511
0.00530894
0.0616094
0.00218378
0.00292639
0.00520773
0.00811183
0.0115286
0.0154284
0.0197719
0.0244695
0.0293248
0.0340081
0.0381074
0.041201
0.0431068
0.0438054
0.0434618
0.0423255
0.0403745
0.005764
0.0616079
0.00218042
0.00291726
0.00518867
0.0080794
0.0114782
0.0153541
0.0196745
0.0243473
0.0291877
0.0338672
0.0379727
0.0411208
0.0430719
0.0438703
0.0436289
0.0426198
0.0410264
0.038777
0.00618162
0.0616063
0.00217749
0.00290881
0.00517193
0.00804983
0.0114327
0.0152881
0.0195828
0.0242353
0.0290511
0.0337363
0.0378513
0.0410319
0.0430535
0.0439042
0.0437569
0.0428404
0.0413688
0.0394882
0.037068
0.00651598
0.0616051
0.00217488
0.0029015
0.0051564
0.00802384
0.011391
0.0152283
0.0195011
0.0241286
0.028936
0.0336009
0.0377466
0.0409482
0.0430173
0.0439414
0.0438467
0.0430162
0.0416283
0.0398623
0.0378248
0.0353253
0.00675721
0.061604
0.00217251
0.0028949
0.00514302
0.00799973
0.0113545
0.0151738
0.0194273
0.0240337
0.0288207
0.0334918
0.03763
0.0408828
0.0429805
0.0439572
0.0439333
0.0431489
0.0418386
0.0401478
0.0382181
0.0361204
0.0336022
0.00690967
0.0616029
0.00217041
0.00288901
0.0051309
0.00797891
0.0113207
0.0151258
0.0193596
0.0239477
0.0287181
0.0333787
0.0375387
0.0407984
0.0429582
0.0439657
0.0439952
0.0432718
0.0420028
0.0403811
0.0385192
0.0365229
0.0344325
0.0319324
0.00697489
0.061602
0.00216851
0.00288365
0.00512004
0.0079601
0.0112913
0.0150813
0.0193002
0.0238688
0.0286245
0.0332787
0.0374429
0.0407364
0.0429141
0.0439839
0.0440431
0.0433686
0.0421526
0.0405667
0.0387665
0.0368321
0.0348376
0.032799
0.0303343
0.00695701
0.0616012
0.00216678
0.00287894
0.00511028
0.00794325
0.0112649
0.0150429
0.0192451
0.0237996
0.0285394
0.0331832
0.0373569
0.0406695
0.0428885
0.0439803
0.0440954
0.043447
0.0422751
0.0407344
0.0389657
0.0370865
0.0351492
0.0332024
0.0312401
0.0288173
0.00686108
0.0616004
0.00216516
0.00287454
0.00510157
0.00792804
0.0112412
0.0150081
0.0191975
0.0237351
0.0284647
0.0331029
0.0372729
0.0406092
0.0428563
0.0439895
0.0441279
0.0435244
0.0423752
0.040875
0.0391446
0.0372935
0.0354055
0.0335126
0.03164
0.0297589
0.0273798
0.00669628
0.0615997
0.00216368
0.0028705
0.00509354
0.00791455
0.0112199
0.014977
0.0191544
0.0236795
0.0283944
0.0330284
0.0372052
0.0405475
0.0428274
0.0439915
0.044168
0.0435832
0.0424717
0.0409907
0.039296
0.0374776
0.0356156
0.0337678
0.0319464
0.0301541
0.0283552
0.0260172
0.00647293
0.0615988
0.00216237
0.0028668
0.0050861
0.00790204
0.0112008
0.0149489
0.0191159
0.0236292
0.028334
0.0329596
0.0371391
0.040501
0.042794
0.0439932
0.0442
0.0436469
0.0425499
0.0410996
0.0394221
0.0376347
0.0358016
0.0339771
0.0321978
0.0304563
0.0287462
0.027027
0.0247237
0.00619808
0.0615983
0.00216112
0.00286344
0.00507933
0.00789048
0.0111833
0.0149239
0.019081
0.0235841
0.0282791
0.0328997
0.0370804
0.0404523
0.0427727
0.043989
0.0442291
0.0437017
0.0426306
0.0411917
0.0395386
0.0377667
0.0359608
0.0341627
0.0324052
0.0307037
0.0290436
0.027414
0.0257701
0.0234942
0.00587288
0.0615979
0.00216003
0.00286035
0.00507317
0.00788003
0.011167
0.0149009
0.01905
0.0235433
0.02823
0.0328453
0.0370286
0.0404105
0.0427472
0.0439931
0.0442507
0.0437517
0.0427026
0.0412841
0.0396398
0.0378875
0.036095
0.0343216
0.0325885
0.0309076
0.0292864
0.0277067
0.0261546
0.024581
0.0223232
0.00548619
0.0615973
0.00215906
0.0028576
0.0050675
0.00787042
0.0111523
0.0148795
0.0190213
0.0235071
0.0281856
0.032797
0.0369817
0.0403728
0.0427259
0.0439902
0.0442774
0.0437928
0.0427677
0.0413679
0.0397391
0.0379931
0.0362176
0.0344559
0.0327453
0.0310878
0.0294868
0.0279448
0.0264429
0.0249639
0.0234548
0.0212053
0.00501793
0.0615969
0.00215814
0.00285513
0.00506242
0.00786162
0.0111387
0.0148601
0.0189948
0.0234735
0.0281461
0.0327528
0.0369394
0.0403401
0.0427068
0.0439913
0.0442959
0.0438368
0.0428235
0.041443
0.0398299
0.0380966
0.0363252
0.0345781
0.032878
0.0312421
0.0296635
0.0281414
0.0266765
0.0252483
0.023838
0.022387
0.0201353
0.00447607
0.0615965
0.00215736
0.00285287
0.00505787
0.00785369
0.0111263
0.0148424
0.0189708
0.0234424
0.0281095
0.0327137
0.0369005
0.0403091
0.0426907
0.0439913
0.044316
0.0438711
0.0428796
0.041509
0.0399122
0.0381914
0.0364299
0.0346855
0.0329984
0.0313732
0.0298149
0.0283146
0.0268693
0.0254777
0.0241189
0.0227728
0.0213732
0.0191083
0.00392025
0.0615961
0.00215665
0.0028509
0.00505379
0.00784667
0.0111152
0.0148261
0.0189487
0.0234143
0.0280756
0.0326773
0.0368664
0.0402806
0.0426751
0.0439916
0.0443326
0.0439062
0.0429264
0.0415737
0.0399842
0.038277
0.0365262
0.0347897
0.0331048
0.0314912
0.0299437
0.0284631
0.0270386
0.0256666
0.0243444
0.0230509
0.0217636
0.0204086
0.0181198
0.0033729
0.0615957
0.00215596
0.00284906
0.00505008
0.00784029
0.0111053
0.0148114
0.0189285
0.0233884
0.0280449
0.0326433
0.0368345
0.0402561
0.0426605
0.0439912
0.0443485
0.0439355
0.0429717
0.0416287
0.0400548
0.0383531
0.036613
0.0348854
0.0332072
0.0315956
0.0300591
0.0285893
0.0271843
0.0258328
0.02453
0.0232729
0.02204
0.0208064
0.0194891
0.0171656
0.0028473
0.0615956
0.00215534
0.00284736
0.00504673
0.00783456
0.0110963
0.0147984
0.0189103
0.0233647
0.0280165
0.0326127
0.0368048
0.0402326
0.042648
0.0439903
0.0443625
0.0439631
0.0430107
0.0416817
0.0401148
0.0384262
0.0366906
0.0349719
0.0333013
0.031696
0.0301614
0.0287022
0.0273078
0.0259753
0.0246928
0.0234554
0.0222589
0.0210819
0.0198972
0.0186101
0.0162418
0.00235032
0.0615952
0.00215465
0.0028458
0.00504363
0.00782933
0.0110883
0.0147866
0.0188941
0.0233434
0.0279907
0.0325844
0.0367777
0.0402111
0.0426354
0.0439908
0.0443741
0.0439872
0.0430469
0.0417276
0.0401726
0.0384893
0.0367648
0.035049
0.0333869
0.0317885
0.0302594
0.0288021
0.0274182
0.0260966
0.0248327
0.0236151
0.0224384
0.0212984
0.0201729
0.019032
0.0177673
0.0153406
0.00188724
0.0615891
0.0021542
0.00284411
0.00504077
0.0078245
0.0110809
0.014776
0.0188795
0.0233244
0.0279675
0.0325585
0.036753
0.0401913
0.042624
0.0439896
0.0443859
0.0440092
0.0430791
0.0417699
0.0402227
0.0385498
0.0368296
0.0351233
0.0334631
0.0318719
0.0303494
0.0288977
0.0275158
0.0262042
0.0249514
0.0237524
0.0225956
0.0214757
0.0203878
0.0193092
0.0182071
0.0169568
0.0144542
0.00146348
0.064308
0.0021431
0.00284292
0.00503764
0.00782008
0.0110741
0.0147663
0.0188663
0.0233073
0.0279467
0.0325358
0.03673
0.040173
0.0426134
0.0439888
0.0443952
0.0440291
0.0431087
0.0418081
0.0402693
0.0386022
0.0368903
0.0351882
0.0335359
0.031947
0.0304311
0.0289853
0.0276087
0.0262996
0.0250566
0.0238688
0.0227305
0.0216302
0.020563
0.019523
0.0184873
0.0174188
0.0161743
0.0135738
0.00108503
0.0617766
0.00487504
0.00281521
0.00503544
0.00781523
0.0110678
0.0147574
0.0188543
0.0232919
0.027928
0.032515
0.0367102
0.0401568
0.0426043
0.0439879
0.0444044
0.0440467
0.0431348
0.0418423
0.0403106
0.0386512
0.0369443
0.0352488
0.0336
0.0320185
0.0305045
0.029065
0.0276939
0.0263898
0.0251499
0.0239719
0.0228448
0.0217631
0.0207153
0.0196966
0.0187007
0.0177037
0.0166638
0.0154159
0.0126912
0.000758943
0.0618596
0.00242428
0.00906297
0.0049851
0.00781179
0.0110611
0.0147491
0.0188431
0.0232777
0.0279111
0.0324966
0.0366918
0.0401421
0.0425953
0.0439876
0.0444126
0.0440633
0.0431588
0.0418733
0.0403486
0.0386948
0.036994
0.0353029
0.0336599
0.0320814
0.0305742
0.0291366
0.0277717
0.0264729
0.0252379
0.024063
0.0229458
0.0218757
0.0208464
0.0198473
0.0188732
0.0179175
0.0169551
0.0159387
0.0146774
0.0117981
0.000492403
0.0623556
0.00256971
0.00342414
0.0154951
0.00773459
0.0110562
0.0147402
0.0188329
0.0232647
0.0278958
0.0324792
0.0366758
0.0401282
0.0425884
0.0439871
0.0444201
0.044078
0.0431807
0.0419013
0.0403825
0.0387345
0.0370385
0.0353526
0.0337134
0.0321401
0.0306359
0.0292047
0.0278412
0.0265485
0.0253184
0.0241485
0.0230349
0.0219745
0.0209572
0.0199767
0.0190224
0.0180894
0.0171703
0.0162387
0.0152404
0.0139546
0.0108862
0.000291
0.0621485
0.003514
0.00379378
0.00597284
0.0229827
0.0109489
0.0147338
0.0188218
0.0232527
0.0278815
0.032464
0.0366614
0.0401174
0.0425808
0.0439873
0.0444272
0.0440924
0.0432006
0.0419271
0.0404136
0.0387703
0.0370789
0.0353975
0.0337623
0.0321927
0.0306933
0.0292648
0.0279077
0.0266164
0.0253922
0.0242271
0.0231183
0.0220618
0.0210545
0.0200861
0.0191504
0.0182378
0.0173424
0.0164563
0.0155513
0.0145656
0.0132437
0.00994673
0.000155125
0.0618286
0.00315648
0.00609122
0.00664274
0.00910406
0.0312203
0.0145943
0.0188138
0.0232396
0.0278684
0.0324499
0.0366479
0.0401071
0.0425763
0.0439871
0.0444345
0.0441054
0.0432197
0.0419511
0.0404421
0.0388027
0.0371155
0.0354377
0.0338068
0.0322408
0.0307451
0.0293209
0.0279665
0.0266813
0.0254585
0.024299
0.023195
0.0221434
0.0211398
0.0201818
0.0192588
0.0183648
0.01749
0.0166289
0.0157725
0.0148902
0.0139112
0.0125406
0.0089713
7.62369e-05
0.0617888
0.00257578
0.005173
0.0107404
0.0101143
0.0127031
0.0399363
0.0186409
0.0232302
0.0278536
0.0324371
0.0366355
0.0400971
0.0425716
0.0439883
0.0444407
0.0441178
0.0432373
0.0419732
0.0404681
0.0388328
0.0371489
0.0354745
0.033847
0.0322845
0.0307922
0.0293714
0.0280214
0.0267384
0.0255214
0.0243637
0.0232651
0.0222181
0.0212196
0.0202658
0.0193531
0.0184722
0.0176164
0.0167765
0.0159466
0.0151165
0.0142526
0.0132739
0.0118415
0.00795388
3.74123e-05
0.0615979
0.00251774
0.00372834
0.00905945
0.0163133
0.0140477
0.0167458
0.0487203
0.0230243
0.0278436
0.032422
0.0366242
0.0400885
0.0425667
0.0439897
0.0444479
0.0441287
0.0432537
0.0419939
0.0404926
0.0388602
0.0371797
0.035508
0.0338833
0.032324
0.0308349
0.0294174
0.0280706
0.026792
0.0255775
0.0244251
0.0233284
0.0222867
0.0212927
0.0203438
0.0194359
0.0185654
0.0177231
0.0169026
0.0160945
0.0152925
0.0144853
0.013636
0.0126508
0.0111411
0.00689595
2.05876e-05
0.061588
0.00216831
0.00356611
0.00646124
0.0137252
0.0225609
0.0183657
0.0211871
0.0569367
0.0276074
0.0324126
0.0366106
0.0400805
0.0425625
0.0439901
0.0444543
0.0441404
0.0432689
0.0420135
0.0405153
0.0388858
0.0372077
0.0355387
0.0339163
0.0323598
0.0308737
0.0294592
0.0281156
0.0268399
0.0256295
0.0244796
0.0233882
0.0223486
0.0213599
0.0204153
0.0195124
0.0186469
0.0178154
0.0170089
0.0162205
0.0154413
0.0146644
0.0138768
0.0130376
0.0120382
0.0104295
0.00581722
1.41336e-05
0.0615866
0.00215477
0.00284983
0.00615636
0.00977049
0.0189653
0.0293115
0.0229868
0.0259206
0.0638168
0.0321517
0.0366031
0.0400706
0.0425585
0.043991
0.0444598
0.044151
0.0432836
0.0420311
0.0405364
0.0389099
0.0372341
0.035567
0.0339464
0.0323925
0.0309087
0.0294974
0.0281565
0.026884
0.0256764
0.0245304
0.0234415
0.0224069
0.0214205
0.0204812
0.0195826
0.0187223
0.0178961
0.0171005
0.0163269
0.0155678
0.0148147
0.0140599
0.0132885
0.0124547
0.0114327
0.00969544
0.00476691
1.19692e-05
0.0615858
0.00215497
0.00282719
0.00503172
0.00929355
0.0135054
0.0246601
0.0363292
0.0277839
0.030743
0.0686422
0.0363263
0.0400651
0.0425531
0.0439914
0.0444648
0.0441601
0.0432971
0.0420483
0.0405563
0.0389322
0.0372585
0.0355933
0.0339746
0.0324222
0.0309405
0.0295315
0.0281938
0.0269238
0.0257195
0.0245763
0.0234912
0.0224592
0.0214775
0.0205405
0.0196471
0.0187912
0.0179703
0.0171805
0.0164179
0.0156743
0.014942
0.0142122
0.0134768
0.012718
0.0118847
0.0108308
0.00892984
0.00378872
1.12796e-05
0.061585
0.00215514
0.00282392
0.00499448
0.00779076
0.0128364
0.0176059
0.0306561
0.0432091
0.0325556
0.0353374
0.0712274
0.0397834
0.0425514
0.0439904
0.0444696
0.044169
0.0433093
0.0420642
0.0405749
0.0389531
0.0372816
0.0356179
0.0340008
0.0324501
0.03097
0.0295629
0.028227
0.0269601
0.0257584
0.0246183
0.023536
0.0225075
0.0215286
0.0205963
0.0197053
0.0188546
0.018038
0.0172537
0.0164974
0.0157653
0.0150491
0.0143411
0.0136319
0.0129127
0.0121632
0.0113248
0.0102288
0.00812656
0.00289815
1.10403e-05
0.0615843
0.00215508
0.00282233
0.00498565
0.00773513
0.011012
0.0167389
0.0220164
0.036681
0.0493548
0.0369937
0.0393269
0.0719084
0.0422752
0.0439928
0.0444728
0.0441769
0.0433208
0.0420784
0.0405923
0.038973
0.0373028
0.0356411
0.0340254
0.0324759
0.0309972
0.0295916
0.0282578
0.026993
0.0257938
0.0246566
0.0235772
0.0225514
0.021576
0.0206465
0.0197601
0.018912
0.0181005
0.0173205
0.0165698
0.0158446
0.0151403
0.0144489
0.0137625
0.0130716
0.0123657
0.0116213
0.0107721
0.0096233
0.00728298
0.00211051
1.09364e-05
0.0615836
0.00215514
0.00282035
0.00498131
0.00771839
0.0109347
0.014662
0.0209693
0.0266468
0.0423096
0.0541332
0.0407328
0.0423889
0.0712269
0.0437297
0.0444787
0.0441835
0.0433313
0.0420917
0.0406081
0.0389908
0.0373231
0.0356628
0.0340483
0.0324998
0.0310225
0.029618
0.0282859
0.0270229
0.0258261
0.0246913
0.0236145
0.0225916
0.0216191
0.0206931
0.0198096
0.0189657
0.0181571
0.0173821
0.0166359
0.0159163
0.0152194
0.0145406
0.0138719
0.0132047
0.0125291
0.0118334
0.0110903
0.0102234
0.00900576
0.00640013
0.00144059
1.08793e-05
0.0615831
0.00215523
0.0028185
0.0049763
0.00771017
0.010908
0.0145604
0.0187122
0.0254663
0.0313432
0.047034
0.0571792
0.0434899
0.04437
0.069664
0.0442341
0.0441919
0.04334
0.0421041
0.0406226
0.0390076
0.0373418
0.035683
0.0340697
0.0325227
0.0310461
0.0296429
0.0283117
0.0270502
0.0258551
0.0247226
0.0236485
0.0226283
0.0216585
0.0207353
0.0198553
0.0190144
0.01821
0.0174382
0.016697
0.0159819
0.0152908
0.01462
0.0139643
0.0133157
0.0126654
0.0120027
0.0113139
0.0105674
0.00967554
0.00836431
0.00548426
0.00089889
1.08419e-05
0.0615837
0.00215511
0.0028173
0.00497146
0.00770087
0.0108947
0.0145219
0.0185852
0.0231005
0.0300884
0.035845
0.0504707
0.0585521
0.0451579
0.0453089
0.067564
0.0439668
0.0433507
0.0421147
0.0406365
0.0390228
0.0373589
0.0357018
0.0340899
0.0325437
0.0310686
0.0296661
0.0283358
0.0270754
0.025882
0.024751
0.023679
0.0226615
0.0216946
0.0207742
0.0198969
0.0190593
0.018258
0.0174903
0.0167522
0.0160423
0.0153559
0.0146913
0.0140442
0.0134095
0.0127787
0.0121427
0.01149
0.0108048
0.0100502
0.00912508
0.00768763
0.0045518
0.000494068
1.08083e-05
0.0616084
0.00215551
0.00281621
0.00496825
0.00769187
0.0108801
0.0145028
0.0185339
0.0229479
0.027694
0.0345874
0.0398138
0.05252
0.058596
0.0458152
0.0453738
0.0651516
0.0431453
0.0421268
0.0406478
0.0390377
0.0373746
0.0357191
0.0341088
0.0325639
0.0310892
0.0296879
0.0283587
0.0270992
0.0259067
0.0247771
0.023707
0.0226917
0.0217271
0.0208094
0.019935
0.0191003
0.0183023
0.0175378
0.016804
0.0160971
0.0154161
0.0147562
0.0141156
0.01349
0.012874
0.0122589
0.0116348
0.0109894
0.010304
0.00953576
0.00856851
0.00696676
0.00363655
0.000228618
1.07795e-05
0.063002
0.00205631
0.00281644
0.00496567
0.0076858
0.0108658
0.0144821
0.0185084
0.022884
0.0275209
0.0322608
0.0386296
0.0429343
0.0533392
0.0577054
0.0456349
0.0447865
0.0625698
0.0419403
0.0406612
0.03905
0.0373897
0.0357349
0.034126
0.0325825
0.0311093
0.0297085
0.02838
0.0271215
0.0259298
0.0248014
0.0237327
0.022719
0.0217566
0.0208414
0.0199696
0.0191379
0.0183428
0.0175814
0.0168509
0.0161483
0.0154706
0.0148159
0.0141804
0.0135618
0.0129557
0.0123562
0.0117545
0.0111399
0.0104987
0.00980908
0.00902119
0.00799813
0.00619716
0.00278925
8.69091e-05
1.07595e-05
0.0619419
0.00381718
0.00256149
0.00496548
0.00768115
0.0108561
0.0144615
0.0184804
0.0228539
0.0274475
0.0320783
0.0364736
0.0418897
0.0450262
0.0531972
0.0562095
0.0448417
0.043748
0.0599088
0.0404929
0.0390639
0.0374024
0.0357501
0.0341419
0.0325995
0.0311276
0.0297279
0.0284002
0.0271424
0.0259514
0.024824
0.0237563
0.0227441
0.0217834
0.0208705
0.0200014
0.0191721
0.0183799
0.0176214
0.0168942
0.0161949
0.0155214
0.0148704
0.0142402
0.0136268
0.0130281
0.0124393
0.0118543
0.0112637
0.0106559
0.0100156
0.0093175
0.00850328
0.00740252
0.00538061
0.00203655
2.89675e-05
1.07489e-05
0.061449
0.00305936
0.00676093
0.00448843
0.00768032
0.0108489
0.0144475
0.0184534
0.0228194
0.0274138
0.0320001
0.0362967
0.0399842
0.0441544
0.0460873
0.0523516
0.0543422
0.0436272
0.0424183
0.0572257
0.0389128
0.0374162
0.0357634
0.0341573
0.0326155
0.0311445
0.0297462
0.0284192
0.0271622
0.0259722
0.0248452
0.0237783
0.0227672
0.021808
0.0208968
0.0200298
0.0192031
0.0184138
0.0176582
0.0169338
0.0162379
0.0155677
0.014921
0.0142945
0.0136866
0.0130933
0.0125127
0.0119392
0.0113667
0.0107848
0.0101811
0.00953832
0.0088266
0.00797859
0.00676948
0.0045256
0.00138431
1.00929e-05
1.07466e-05
0.0614807
0.00194514
0.00513715
0.0117319
0.00692124
0.0108471
0.0144376
0.0184348
0.0227861
0.027375
0.0319647
0.0362219
0.0398277
0.0425371
0.0453882
0.0462517
0.051017
0.052208
0.0421427
0.0409287
0.054559
0.0372815
0.035777
0.0341703
0.0326306
0.0311601
0.029763
0.0284374
0.0271808
0.0259913
0.0248653
0.0237991
0.0227889
0.0218307
0.0209208
0.0200557
0.0192314
0.0184445
0.0176916
0.0169701
0.0162772
0.0156105
0.0149671
0.014345
0.0137411
0.0131535
0.0125786
0.0120139
0.0114539
0.0108914
0.0103158
0.00971334
0.00906426
0.00833366
0.00744109
0.00608827
0.00365028
0.000847937
4.69902e-06
1.07492e-05
0.0616058
0.0020634
0.00225224
0.00973092
0.017515
0.00974563
0.0144346
0.0184221
0.0227636
0.0273367
0.0319242
0.0361885
0.039763
0.0424115
0.0440502
0.0456983
0.045715
0.0493365
0.0499358
0.0405112
0.0393694
0.0519345
0.0356571
0.0341838
0.0326435
0.0311751
0.0297783
0.0284538
0.0271984
0.0260098
0.0248844
0.0238189
0.0228093
0.021852
0.020943
0.0200795
0.0192569
0.0184721
0.017722
0.0170032
0.0163132
0.0156495
0.0150096
0.0143911
0.0137916
0.0132082
0.0126393
0.0120808
0.0115302
0.0109815
0.0104269
0.00985508
0.00925064
0.00859105
0.00783541
0.00688016
0.0053521
0.00279793
0.000448625
3.28942e-06
1.07552e-05
0.0616529
0.00220694
0.00257673
0.00398961
0.0159936
0.0238379
0.0129274
0.0184182
0.0227479
0.0273109
0.031884
0.0361496
0.0397354
0.0423626
0.043958
0.0446043
0.0452728
0.0446878
0.0474519
0.0476093
0.0388207
0.0378091
0.0493531
0.0340769
0.0326566
0.0311877
0.0297929
0.028469
0.0272146
0.0260272
0.0249025
0.0238376
0.0228287
0.0218719
0.0209641
0.0201013
0.0192803
0.0184974
0.0177495
0.0170334
0.0163463
0.0156855
0.0150487
0.0144336
0.0138377
0.0132589
0.0126946
0.0121422
0.0115983
0.0110598
0.0105204
0.00997147
0.0094006
0.00879074
0.00811602
0.0073287
0.00628366
0.0045631
0.00203706
0.000195103
2.94949e-06
1.07648e-05
0.0616617
0.0022622
0.00293772
0.00456865
0.00627708
0.0240303
0.0305753
0.0164414
0.0227429
0.0272927
0.0318571
0.0361116
0.039703
0.0423439
0.0439277
0.0445438
0.0443728
0.0443243
0.0433285
0.0454648
0.0452971
0.0371349
0.0362812
0.0468212
0.0325617
0.0312005
0.0298055
0.0284831
0.0272297
0.0260432
0.0249196
0.0238552
0.022847
0.0218909
0.0209837
0.0201216
0.0193017
0.0185204
0.0177745
0.0170607
0.0163762
0.0157182
0.0150845
0.0144726
0.0138803
0.0133054
0.0127454
0.012198
0.0116606
0.0111294
0.0106013
0.010069
0.00952319
0.00895041
0.00833136
0.00763635
0.00680636
0.00564023
0.0037386
0.00137905
6.8307e-05
2.87504e-06
1.0772e-05
0.061663
0.00228828
0.00307674
0.00521628
0.00713819
0.00904668
0.0341513
0.0376431
0.02024
0.0272872
0.0318377
0.0360846
0.0396727
0.0423214
0.0439181
0.0445302
0.0443349
0.0435737
0.043018
0.0417702
0.0434513
0.0430521
0.0354967
0.0348045
0.0443639
0.0311154
0.029818
0.0284958
0.0272438
0.026058
0.0249353
0.023872
0.0228645
0.0219091
0.0210023
0.020141
0.0193218
0.0185416
0.0177971
0.0170854
0.0164033
0.0157481
0.0151172
0.0145084
0.0139194
0.013348
0.0127923
0.0122494
0.0117172
0.0111929
0.0106728
0.0101529
0.00962555
0.0090803
0.00850232
0.00786996
0.007149
0.00625733
0.0049416
0.00290609
0.00083292
2.05507e-05
2.86103e-06
1.07758e-05
0.0616592
0.00228997
0.00314255
0.00546503
0.00812153
0.0101981
0.012323
0.0468135
0.0449581
0.0242248
0.0318325
0.0360672
0.0396488
0.0423009
0.0439065
0.0445313
0.044335
0.0435532
0.042383
0.041489
0.0401135
0.0414686
0.0409066
0.0339279
0.0333888
0.04201
0.0297415
0.0285078
0.0272563
0.0260718
0.0249498
0.0238877
0.0228811
0.0219263
0.0210202
0.0201595
0.0193409
0.0185615
0.0178181
0.017108
0.0164279
0.0157751
0.0151469
0.014541
0.0139553
0.0133873
0.0128352
0.0122967
0.0117694
0.0112508
0.010738
0.0102268
0.00971311
0.00918826
0.00864075
0.00805416
0.00740384
0.00664915
0.00566942
0.00418486
0.00212706
0.000426933
6.16532e-06
2.8592e-06
1.07777e-05
0.061651
0.0022839
0.00314685
0.00558168
0.00849877
0.0115544
0.0137541
0.0161641
0.0626238
0.052393
0.0282187
0.0360653
0.0396351
0.0422842
0.0438974
0.0445302
0.0443422
0.0435619
0.0423722
0.0409413
0.0398444
0.0384326
0.0395565
0.038876
0.0324334
0.0320388
0.0397778
0.0284389
0.0272679
0.0260842
0.0249636
0.023902
0.0228963
0.0219426
0.0210372
0.0201772
0.0193592
0.0185804
0.0178379
0.0171287
0.0164502
0.0157995
0.0151738
0.0145708
0.013988
0.0134234
0.0128747
0.0123401
0.0118172
0.0113038
0.0107969
0.0102938
0.00978981
0.00928021
0.00875535
0.00820257
0.00760339
0.00693006
0.0061272
0.0050308
0.00338379
0.00144882
0.000176138
2.40535e-06
2.85929e-06
1.07791e-05
0.0616447
0.00227478
0.00313219
0.0055871
0.00867307
0.012075
0.0155137
0.0178442
0.0206481
0.082286
0.0597501
0.0319556
0.039639
0.0422749
0.0438888
0.044531
0.0443478
0.0435736
0.0423868
0.040935
0.0393612
0.0381631
0.0367795
0.0377349
0.0369632
0.031017
0.0307552
0.0376718
0.0272053
0.0260952
0.0249757
0.0239156
0.0229105
0.021958
0.0210534
0.0201939
0.0193766
0.0185983
0.0178565
0.0171481
0.0164708
0.0158217
0.0151982
0.0145978
0.0140179
0.0134562
0.012911
0.01238
0.0118612
0.0113524
0.010851
0.0103544
0.00985907
0.00936028
0.00885244
0.00832487
0.00776341
0.00714743
0.00644448
0.00557118
0.00433351
0.0025838
0.000878896
5.7349e-05
1.51759e-06
2.85955e-06
1.07802e-05
0.0616381
0.00226422
0.00310987
0.00555839
0.00867757
0.0123111
0.0161906
0.0200305
0.0225213
0.0258656
0.10671
0.0667415
0.0351185
0.0422843
0.043884
0.0445304
0.044357
0.0435855
0.0424009
0.0409522
0.0393549
0.0377264
0.0364995
0.0351847
0.0360049
0.0351609
0.0296777
0.0295368
0.0356862
0.0260384
0.0249863
0.0239275
0.0229238
0.0219718
0.0210684
0.0202099
0.0193932
0.0186156
0.0178743
0.0171666
0.0164902
0.0158422
0.0152204
0.0146221
0.0140448
0.0134862
0.0129442
0.0124166
0.0119016
0.0113971
0.0109007
0.0104099
0.00992164
0.00943229
0.00893658
0.00842804
0.00789475
0.00732093
0.00668339
0.00593823
0.00496864
0.00358043
0.00184799
0.000447648
1.56018e-05
1.32627e-06
2.85975e-06
1.07804e-05
0.0616315
0.00225191
0.0030839
0.0055163
0.00862976
0.0123118
0.0164905
0.020876
0.0251513
0.0278445
0.0319091
0.136771
0.0729961
0.0374169
0.0438988
0.0445291
0.0443617
0.0436003
0.042417
0.0409676
0.0393724
0.0377168
0.0360972
0.0348899
0.0336579
0.0343665
0.0334628
0.028413
0.0283807
0.0338154
0.0249343
0.0239378
0.0229356
0.0219849
0.0210823
0.0202248
0.0194091
0.0186321
0.0178912
0.0171841
0.0165085
0.0158614
0.0152408
0.0146444
0.0140693
0.0135134
0.0129743
0.0124502
0.0119387
0.011438
0.0109462
0.0104607
0.00997873
0.00949716
0.00901179
0.00851693
0.00800498
0.0074627
0.00687243
0.00620694
0.0053997
0.00430887
0.00279603
0.001207
0.000180844
4.13611e-06
1.28872e-06
2.85994e-06
1.07803e-05
0.0616238
0.00223886
0.0030533
0.00546785
0.00856205
0.0122395
0.0164836
0.02124
0.0261766
0.0309252
0.0338658
0.038857
0.17332
0.0781683
0.0386686
0.0445484
0.0443644
0.0436093
0.0424368
0.0409862
0.0393887
0.0377344
0.0360813
0.0345121
0.0333501
0.0322052
0.0328172
0.0318632
0.02722
0.0272831
0.0320526
0.02389
0.0229457
0.0219967
0.0210954
0.0202386
0.0194239
0.0186478
0.0179076
0.0172011
0.0165259
0.0158796
0.01526
0.0146646
0.0140914
0.0135379
0.0130017
0.0124805
0.0119726
0.0114758
0.010988
0.0105072
0.0100309
0.00955612
0.00907937
0.00859594
0.00809947
0.0075812
0.00702626
0.00641512
0.00570932
0.00481629
0.00358905
0.00204099
0.000680679
5.6159e-05
1.44634e-06
1.28205e-06
2.86011e-06
1.07804e-05
0.0616172
0.00222506
0.00302089
0.00541107
0.00848511
0.0121403
0.016381
0.0212201
0.0266031
0.0321405
0.0373884
0.0406112
0.0467465
0.217066
0.0820098
0.0388146
0.044386
0.043615
0.0424487
0.0410087
0.0394094
0.037749
0.0360964
0.0344884
0.0329919
0.0318846
0.0308272
0.0313533
0.0303564
0.0260954
0.0262399
0.030391
0.0229017
0.0220064
0.0211069
0.0202514
0.0194376
0.0186625
0.0179232
0.0172174
0.0165428
0.0158971
0.0152782
0.0146838
0.0141119
0.0135602
0.0130265
0.0125082
0.0120035
0.0115102
0.0110264
0.0105499
0.0100787
0.00961003
0.00914065
0.00866673
0.00818304
0.00768229
0.00715443
0.00658289
0.00594388
0.00517903
0.00417646
0.00282584
0.001378
0.00030915
1.40421e-05
8.8015e-07
1.28098e-06
2.86025e-06
1.07808e-05
0.0616114
0.00221207
0.00298641
0.00535101
0.00839553
0.0120288
0.0162433
0.0210803
0.0265635
0.032625
0.0388024
0.0445453
0.048054
0.0555438
0.26807
0.0844618
0.0379284
0.0436377
0.0424546
0.0410218
0.0394319
0.0377693
0.0361095
0.0345
0.0329604
0.031542
0.0304952
0.0295232
0.0299701
0.0289364
0.0250355
0.0252469
0.0288244
0.021966
0.0211163
0.0202629
0.0194502
0.0186761
0.0179378
0.017233
0.0165589
0.0159138
0.0152955
0.0147019
0.0141311
0.0135808
0.013049
0.0125333
0.0120315
0.0115416
0.0110615
0.0105892
0.0101226
0.00965929
0.0091965
0.00873069
0.00825757
0.00777115
0.00726319
0.00672224
0.00612971
0.00544952
0.00460353
0.00347598
0.00207883
0.000813223
0.000106916
3.3192e-06
7.71783e-07
1.28086e-06
2.86042e-06
1.07813e-05
0.061607
0.00220103
0.0029541
0.00528724
0.00830093
0.0118999
0.0160906
0.0208963
0.0263778
0.0325565
0.0393385
0.0461635
0.0523402
0.0560873
0.0651223
0.325877
0.0856265
0.0364172
0.0424772
0.0410284
0.039445
0.0377922
0.0361282
0.0345109
0.0329675
0.0315031
0.0301656
0.0291812
0.0282901
0.0286634
0.0275981
0.0240357
0.0242999
0.0273466
0.0210788
0.0202722
0.0194617
0.0186887
0.0179515
0.0172475
0.0165744
0.0159299
0.0153121
0.0147192
0.0141491
0.0136
0.0130696
0.012556
0.0120568
0.0115701
0.0110935
0.0106251
0.0101628
0.00970445
0.00924753
0.00878887
0.00832467
0.00785005
0.00735827
0.00683995
0.00628198
0.00566017
0.00492054
0.00397136
0.00273056
0.00141392
0.000387322
2.78812e-05
1.03271e-06
7.52892e-07
1.2809e-06
2.86055e-06
1.0782e-05
0.061602
0.00219338
0.0029265
0.00522734
0.00820067
0.0117641
0.0159158
0.0206944
0.026137
0.0323134
0.0392287
0.0467408
0.0541639
0.0606271
0.064511
0.0752784
0.388178
0.0857417
0.0345975
0.041051
0.0394512
0.0378051
0.0361506
0.0345284
0.0329765
0.0315052
0.0301193
0.0288619
0.0279401
0.0271251
0.0274278
0.0263363
0.0230924
0.0233943
0.0259518
0.0202374
0.0194707
0.0187002
0.017964
0.0172612
0.016589
0.0159454
0.0153282
0.0147359
0.0141665
0.0136182
0.0130889
0.0125768
0.0120799
0.0115958
0.0111225
0.0106578
0.0101997
0.00974595
0.00929421
0.00884195
0.00838557
0.00792083
0.00744231
0.00694225
0.00641002
0.00582999
0.00516449
0.00434435
0.00327916
0.00199926
0.000839738
0.000139246
6.07026e-06
5.98158e-07
7.4991e-07
1.28091e-06
2.8608e-06
1.07824e-05
0.0616011
0.00218475
0.00290743
0.00517589
0.00810625
0.0116204
0.0157314
0.0204655
0.0258765
0.0320031
0.0389119
0.0465716
0.054767
0.0626505
0.0691673
0.0730608
0.0857968
0.452189
0.0850869
0.0326653
0.039473
0.0378113
0.0361638
0.0345489
0.0329928
0.0315124
0.0301166
0.0288085
0.027629
0.0267688
0.0260241
0.0262587
0.0251463
0.0222012
0.022526
0.0246356
0.0194383
0.0187089
0.0179755
0.0172737
0.0166026
0.0159599
0.0153438
0.014752
0.0141832
0.0136355
0.0131072
0.0125963
0.012101
0.0116193
0.0111487
0.0106875
0.0102331
0.00978385
0.00933708
0.0088904
0.00844099
0.00798494
0.00751742
0.00703233
0.00652077
0.00597072
0.00535842
0.00463084
0.00371009
0.00254682
0.00134665
0.000399085
3.66322e-05
1.40805e-06
5.2333e-07
7.49495e-07
1.28099e-06
2.86094e-06
1.07823e-05
0.0616011
0.00218403
0.00288588
0.00513987
0.00802462
0.0114846
0.0155368
0.0202245
0.0255838
0.0316716
0.0385155
0.0461609
0.0545148
0.0632616
0.0713758
0.0776654
0.0814951
0.0965094
0.51537
0.0839034
0.0307509
0.0378307
0.0361693
0.0345619
0.0330115
0.0315269