/*--------------------------------*- C++ -*----------------------------------*\
| =========                 |                                                 |
| \\      /  F ield         | OpenFOAM: The Open Source CFD Toolbox           |
|  \\    /   O peration     | Version:  v2012                                 |
|   \\  /    A nd           | Website:  www.openfoam.com                      |
|    \\/     M anipulation  |                                                 |
\*---------------------------------------------------------------------------*/
FoamFile
{
    version     2.0;
    format      ascii;
    class       volScalarField;
    location    "2000";
    object      nut;
}
// * * * * * * * * * * * * * * * * * * * * * * * * * * * * * * * * * * * * * //

dimensions      [0 2 -1 0 0 0 0];


internalField   nonuniform List<scalar> 
31383
(
4.31285e-11
4.83503e-11
4.24541e-11
4.48666e-11
9.13181e-11
7.7936e-11
4.23241e-11
8.38849e-11
1.0885e-09
3.47407e-10
4.0491e-11
7.84615e-11
9.91729e-10
8.40368e-09
1.50114e-09
3.90235e-11
7.45679e-11
9.21143e-10
7.65151e-09
4.01755e-08
5.22094e-09
3.77891e-11
7.1466e-11
8.70608e-10
7.10282e-09
3.65822e-08
1.4262e-07
1.53248e-08
3.67516e-11
6.88798e-11
8.30475e-10
6.71007e-09
3.39598e-08
1.29938e-07
4.15207e-07
3.98506e-08
3.58788e-11
6.67033e-11
7.97213e-10
6.39824e-09
3.20823e-08
1.20671e-07
3.78796e-07
1.04533e-06
9.48913e-08
3.51173e-11
6.48769e-11
7.692e-10
6.1399e-09
3.05912e-08
1.1403e-07
3.52118e-07
9.56081e-07
2.34104e-06
2.11387e-07
3.44429e-11
6.32965e-11
7.4573e-10
5.92233e-09
2.93559e-08
1.08754e-07
3.32969e-07
8.90352e-07
2.14994e-06
4.73291e-06
4.46492e-07
3.38276e-11
6.18964e-11
7.25535e-10
5.74007e-09
2.83155e-08
1.04381e-07
3.17736e-07
8.43036e-07
2.00804e-06
4.37215e-06
8.71289e-06
9.00865e-07
3.32706e-11
6.06192e-11
7.07641e-10
5.5833e-09
2.74439e-08
1.00697e-07
3.05101e-07
8.05317e-07
1.90542e-06
4.10081e-06
8.10848e-06
1.47183e-05
1.74155e-06
3.27598e-11
5.94647e-11
6.91324e-10
5.44441e-09
2.66942e-08
9.76096e-08
2.94447e-07
7.73975e-07
1.82333e-06
3.9034e-06
7.646e-06
1.38104e-05
2.30327e-05
3.22597e-06
3.2301e-11
5.84061e-11
6.76585e-10
5.31776e-09
2.60301e-08
9.49531e-08
2.85511e-07
7.47513e-07
1.75492e-06
3.7447e-06
7.30715e-06
1.31018e-05
2.17926e-05
3.37739e-05
5.70991e-06
3.18868e-11
5.74611e-11
6.63079e-10
5.20339e-09
2.54245e-08
9.26001e-08
2.77819e-07
7.25282e-07
1.69707e-06
3.61181e-06
7.0331e-06
1.25788e-05
2.08022e-05
3.22075e-05
4.6246e-05
9.63167e-06
3.15185e-11
5.66108e-11
6.51069e-10
5.09859e-09
2.48776e-08
9.04539e-08
2.71003e-07
7.06129e-07
1.64832e-06
3.49924e-06
6.80218e-06
1.21529e-05
2.00661e-05
3.09217e-05
4.46378e-05
6.07587e-05
1.54937e-05
3.11864e-11
5.58544e-11
6.40286e-10
5.00543e-09
2.43764e-08
8.8516e-08
2.64784e-07
6.8915e-07
1.60626e-06
3.40398e-06
6.60635e-06
1.17918e-05
1.9463e-05
2.99598e-05
4.32179e-05
5.894e-05
7.81158e-05
2.3737e-05
3.08903e-11
5.5177e-11
6.30693e-10
4.92179e-09
2.39309e-08
8.67398e-08
2.59169e-07
6.7364e-07
1.56895e-06
3.3216e-06
6.43961e-06
1.14848e-05
1.89484e-05
2.91685e-05
4.21527e-05
5.72328e-05
7.60736e-05
9.87584e-05
3.46439e-05
3.06227e-11
5.45713e-11
6.22143e-10
4.84739e-09
2.35309e-08
8.51605e-08
2.54021e-07
6.5964e-07
1.53478e-06
3.24849e-06
6.29483e-06
1.12217e-05
1.85089e-05
2.84893e-05
4.12813e-05
5.59344e-05
7.40097e-05
9.65121e-05
0.000122985
4.81585e-05
3.03828e-11
5.40288e-11
6.14482e-10
4.78109e-09
2.31751e-08
8.37426e-08
2.49443e-07
6.46795e-07
1.50397e-06
3.1813e-06
6.1664e-06
1.09921e-05
1.81306e-05
2.7905e-05
4.0506e-05
5.4862e-05
7.24388e-05
9.40445e-05
0.000120653
0.000151188
6.29276e-05
3.01671e-11
5.35427e-11
6.07663e-10
4.72169e-09
2.28581e-08
8.24812e-08
2.4533e-07
6.35364e-07
1.47566e-06
3.12083e-06
6.04794e-06
1.0789e-05
1.77988e-05
2.74006e-05
3.9772e-05
5.39397e-05
7.11391e-05
9.21798e-05
0.00011778
0.000148956
0.000183757
7.73497e-05
2.99737e-11
5.3107e-11
6.01557e-10
4.66881e-09
2.2574e-08
8.1357e-08
2.4167e-07
6.25088e-07
1.45045e-06
3.06513e-06
5.94156e-06
1.06008e-05
1.7506e-05
2.69564e-05
3.91377e-05
5.31338e-05
7.00266e-05
9.06325e-05
0.000115589
0.000145641
0.000181885
0.000221043
9.28231e-05
2.97992e-11
5.27167e-11
5.96093e-10
4.62146e-09
2.23212e-08
8.03496e-08
2.38408e-07
6.1594e-07
1.42775e-06
3.01544e-06
5.84321e-06
1.04317e-05
1.72336e-05
2.65649e-05
3.85774e-05
5.24409e-05
6.90642e-05
8.93016e-05
0.00011377
0.0001431
0.00017811
0.000219905
0.000263358
0.000109692
2.96404e-11
5.23658e-11
5.91204e-10
4.57912e-09
2.20947e-08
7.9453e-08
2.35483e-07
6.07778e-07
1.40754e-06
2.97058e-06
5.75532e-06
1.02751e-05
1.69886e-05
2.62001e-05
3.8083e-05
5.18224e-05
6.82392e-05
8.81519e-05
0.000112202
0.000140981
0.000175191
0.000215669
0.000263371
0.000310942
0.000127887
2.94941e-11
5.20462e-11
5.86817e-10
4.54122e-09
2.18922e-08
7.86498e-08
2.32879e-07
6.00459e-07
1.38949e-06
2.93064e-06
5.67568e-06
1.01349e-05
1.67619e-05
2.58719e-05
3.76235e-05
5.12729e-05
6.75008e-05
8.71618e-05
0.000110841
0.000139152
0.000172744
0.000212347
0.000258697
0.00031213
0.000363763
0.000147124
2.93597e-11
5.17519e-11
5.82822e-10
4.50724e-09
2.1711e-08
7.79312e-08
2.30546e-07
5.93939e-07
1.37328e-06
2.8949e-06
5.60492e-06
1.00075e-05
1.65583e-05
2.55685e-05
3.72092e-05
5.0766e-05
6.68437e-05
8.62824e-05
0.000109663
0.000137564
0.000170626
0.000209552
0.000254972
0.000307103
0.0003646
0.000421036
0.000167057
2.92363e-11
5.14824e-11
5.79143e-10
4.47628e-09
2.15484e-08
7.72881e-08
2.28458e-07
5.88095e-07
1.35884e-06
2.86279e-06
5.54125e-06
9.89444e-06
1.63726e-05
2.52953e-05
3.68272e-05
5.03129e-05
6.62395e-05
8.54956e-05
0.000108625
0.00013618
0.000168799
0.000207126
0.000251825
0.000303022
0.000359409
0.000422898
0.000483128
0.000187042
2.91231e-11
5.12355e-11
5.75781e-10
4.44777e-09
2.14003e-08
7.67113e-08
2.26589e-07
5.82864e-07
1.34588e-06
2.83414e-06
5.48403e-06
9.79208e-06
1.6208e-05
2.50457e-05
3.64825e-05
4.98939e-05
6.56974e-05
8.47767e-05
0.000107699
0.000134959
0.000167197
0.000205036
0.000249083
0.000299554
0.00035512
0.000417492
0.000487837
0.00055128
0.000205711
2.90192e-11
5.10091e-11
5.72706e-10
4.42172e-09
2.1264e-08
7.61858e-08
2.24913e-07
5.78178e-07
1.33427e-06
2.80841e-06
5.43289e-06
9.7002e-06
1.60583e-05
2.48239e-05
3.61672e-05
4.95174e-05
6.52019e-05
8.41268e-05
0.000106847
0.000133881
0.000165779
0.000203209
0.000246713
0.000296523
0.000351452
0.000412878
0.000482352
0.000559986
0.000625725
0.000220818
2.89239e-11
5.08021e-11
5.69888e-10
4.3979e-09
2.11394e-08
7.57019e-08
2.23385e-07
5.73973e-07
1.32386e-06
2.78533e-06
5.38693e-06
9.6177e-06
1.5924e-05
2.46217e-05
3.58864e-05
4.91726e-05
6.47503e-05
8.35359e-05
0.000106078
0.000132882
0.000164527
0.000201583
0.000244654
0.000293893
0.000348243
0.000408887
0.000477444
0.00055462
0.000639938
0.000706625
0.000230924
2.88371e-11
5.06132e-11
5.67319e-10
4.37607e-09
2.10255e-08
7.52598e-08
2.21978e-07
5.7014e-07
1.31452e-06
2.76462e-06
5.34562e-06
9.54348e-06
1.58028e-05
2.44402e-05
3.56302e-05
4.88653e-05
6.43383e-05
8.29966e-05
0.000105376
0.000131986
0.000163373
0.000200139
0.00024281
0.00029161
0.000345443
0.000405381
0.000473134
0.000549473
0.000634982
0.000728312
0.000794029
0.000241507
2.87575e-11
5.04413e-11
5.64981e-10
4.35617e-09
2.0921e-08
7.48554e-08
2.20692e-07
5.66609e-07
1.306e-06
2.74601e-06
5.3085e-06
9.47668e-06
1.56938e-05
2.4276e-05
3.53999e-05
4.85854e-05
6.39708e-05
8.25035e-05
0.000104741
0.000131165
0.000162337
0.000198818
0.000241169
0.00028956
0.000343004
0.000402315
0.000469326
0.000544857
0.00062968
0.000724177
0.000825725
0.000887835
0.000265509
2.86841e-11
5.02844e-11
5.62858e-10
4.33807e-09
2.08258e-08
7.44846e-08
2.19516e-07
5.63383e-07
1.29815e-06
2.72903e-06
5.27512e-06
9.41655e-06
1.55954e-05
2.4128e-05
3.51908e-05
4.83333e-05
6.36354e-05
8.20644e-05
0.000104159
0.000130424
0.000161384
0.00019763
0.00023967
0.000287734
0.000340818
0.000399639
0.000465988
0.000540748
0.000624785
0.000718843
0.000822988
0.000932787
0.000987714
0.00028081
2.86151e-11
5.01397e-11
5.60924e-10
4.32163e-09
2.07392e-08
7.41466e-08
2.18438e-07
5.6043e-07
1.29098e-06
2.71338e-06
5.24463e-06
9.36243e-06
1.55066e-05
2.39942e-05
3.50022e-05
4.81019e-05
6.33318e-05
8.16621e-05
0.00010364
0.000129746
0.000160527
0.000196537
0.000238321
0.00028607
0.00033887
0.000397236
0.000463067
0.000537134
0.000620383
0.000713717
0.000817807
0.000932244
0.00105007
0.00109302
0.000275783
2.85501e-11
5.00041e-11
5.59142e-10
4.30665e-09
2.06605e-08
7.38389e-08
2.17456e-07
5.57723e-07
1.28441e-06
2.69906e-06
5.21651e-06
9.31292e-06
1.54266e-05
2.38732e-05
3.48313e-05
4.78944e-05
6.30564e-05
8.12988e-05
0.000103164
0.000129138
0.000159743
0.000195556
0.000237088
0.000284571
0.000337103
0.000395094
0.00046044
0.000533963
0.000616495
0.00070904
0.000812525
0.000927481
0.00105281
0.00117806
0.00120266
0.000263583
2.84844e-11
4.98768e-11
5.57475e-10
4.29285e-09
2.05888e-08
7.35595e-08
2.16561e-07
5.55255e-07
1.27838e-06
2.68595e-06
5.19078e-06
9.26722e-06
1.53534e-05
2.37641e-05
3.46765e-05
4.77048e-05
6.2807e-05
8.09692e-05
0.000102733
0.000128582
0.00015904
0.000194657
0.000235978
0.000283209
0.000335519
0.000393151
0.000458094
0.000531104
0.000613073
0.000704887
0.000807608
0.000922151
0.00104884
0.00118557
0.00131714
0.00131399
0.000244343
2.84303e-11
4.97471e-11
5.55912e-10
4.27995e-09
2.05228e-08
7.33051e-08
2.15748e-07
5.53008e-07
1.27289e-06
2.67392e-06
5.16719e-06
9.2254e-06
1.52857e-05
2.3664e-05
3.45364e-05
4.75349e-05
6.25791e-05
8.0669e-05
0.000102341
0.000128079
0.000158396
0.000193852
0.000234961
0.00028198
0.000334082
0.000391411
0.000455968
0.000528547
0.000609975
0.000701216
0.000803204
0.000917048
0.00104362
0.00118291
0.00133141
0.00146752
0.00141894
0.000218631
2.85282e-11
4.96422e-11
5.54309e-10
4.26785e-09
2.04611e-08
7.30707e-08
2.15007e-07
5.50965e-07
1.26788e-06
2.66293e-06
5.14552e-06
9.18702e-06
1.52237e-05
2.35713e-05
3.4408e-05
4.73786e-05
6.2373e-05
8.03957e-05
0.000101985
0.000127619
0.000157813
0.000193113
0.000234049
0.000280853
0.000332782
0.000389835
0.000454065
0.00052623
0.000607201
0.000697879
0.000799291
0.000912424
0.00103841
0.00117802
0.00133076
0.00149118
0.00162913
0.00151648
0.000187513
4.68438e-11
4.95615e-11
5.53033e-10
4.25545e-09
2.04033e-08
7.28514e-08
2.14324e-07
5.49101e-07
1.26332e-06
2.65291e-06
5.12572e-06
9.15171e-06
1.51667e-05
2.34863e-05
3.42892e-05
4.72365e-05
6.21863e-05
8.01467e-05
0.00010166
0.000127201
0.00015728
0.000192444
0.000233212
0.000279841
0.00033159
0.00038841
0.000452342
0.000524156
0.000604687
0.000694883
0.00079572
0.000908288
0.00103361
0.00117282
0.00132654
0.00149353
0.00166567
0.00180157
0.0016047
0.000152691
3.02989e-11
2.128e-10
5.49566e-10
4.24558e-09
2.0344e-08
7.2646e-08
2.13685e-07
5.47383e-07
1.25916e-06
2.64379e-06
5.10757e-06
9.11942e-06
1.51142e-05
2.34083e-05
3.41802e-05
4.71038e-05
6.20146e-05
7.9922e-05
0.000101364
0.000126821
0.000156794
0.000191832
0.000232453
0.000278913
0.000330519
0.000387102
0.000450786
0.000522281
0.000602436
0.000692166
0.000792502
0.000904492
0.00102929
0.00116793
0.00132152
0.0014904
0.00167233
0.00185555
0.00198399
0.001681
0.000116595
3.07872e-11
6.33539e-11
3.24076e-09
4.21738e-09
2.02968e-08
7.24355e-08
2.13087e-07
5.45775e-07
1.25533e-06
2.63546e-06
5.09106e-06
9.08975e-06
1.50662e-05
2.33364e-05
3.408e-05
4.69828e-05
6.18541e-05
7.97142e-05
0.000101096
0.000126474
0.000156352
0.000191273
0.000231759
0.000278071
0.000329534
0.000385928
0.000449358
0.000520589
0.000600403
0.000689733
0.000789579
0.000901057
0.00102528
0.00116346
0.00131663
0.0014858
0.0016709
0.00186827
0.00206128
0.00217494
0.00174203
8.22121e-05
3.64049e-11
6.84331e-11
7.92744e-10
2.42688e-08
2.01608e-08
7.22678e-08
2.12474e-07
5.4427e-07
1.25174e-06
2.62777e-06
5.07599e-06
9.06271e-06
1.5022e-05
2.32704e-05
3.39874e-05
4.68714e-05
6.17083e-05
7.95224e-05
0.000100848
0.000126157
0.00015595
0.000190763
0.000231122
0.000277298
0.000328639
0.000384847
0.000448075
0.000519036
0.00059857
0.000687537
0.000786961
0.000897928
0.00102164
0.00115928
0.00131208
0.00148106
0.00166705
0.00186937
0.00208242
0.00228306
0.00237224
0.00178425
5.26781e-05
3.31592e-11
1.09724e-10
9.00717e-10
6.18372e-09
1.1237e-07
7.1781e-08
2.11986e-07
5.42726e-07
1.24838e-06
2.62056e-06
5.06205e-06
9.03794e-06
1.49818e-05
2.32096e-05
3.39022e-05
4.67684e-05
6.15734e-05
7.93462e-05
0.00010062
0.000125866
0.00015558
0.0001903
0.000230542
0.000276589
0.000327813
0.000383862
0.000446894
0.00051764
0.000596888
0.000685561
0.000784598
0.000895122
0.00101831
0.00115545
0.00130777
0.00147654
0.00166267
0.00186672
0.00208716
0.00231571
0.00252064
0.00257282
0.00180461
3.04387e-05
2.93563e-11
8.91457e-11
1.69312e-09
7.11989e-09
2.94964e-08
3.8993e-07
2.1055e-07
5.41499e-07
1.24491e-06
2.6138e-06
5.04898e-06
9.01504e-06
1.49448e-05
2.31542e-05
3.38237e-05
4.6673e-05
6.14489e-05
7.91835e-05
0.00010041
0.000125598
0.000155241
0.000189875
0.000230014
0.000275941
0.000327056
0.000382954
0.000445817
0.000516354
0.000595374
0.000683745
0.000782476
0.000892592
0.00101532
0.00115193
0.00130379
0.00147217
0.00165832
0.00186298
0.00208633
0.00232558
0.00256889
0.00277328
0.00277254
0.00180158
1.6227e-05
2.86794e-11
6.41125e-11
1.28336e-09
1.34669e-08
3.44662e-08
1.03992e-07
1.11889e-06
5.37811e-07
1.24215e-06
2.60681e-06
5.03672e-06
8.99355e-06
1.49105e-05
2.31032e-05
3.3752e-05
4.65854e-05
6.13338e-05
7.90333e-05
0.000100216
0.00012535
0.000154927
0.000189483
0.00022953
0.000275351
0.000326362
0.000382121
0.000444822
0.00051518
0.000593981
0.000682111
0.000780526
0.000890323
0.00101263
0.00114877
0.00130011
0.00146807
0.00165399
0.00185899
0.00208362
0.0023274
0.00258588
0.0028424
0.00303947
0.00296599
0.00177667
8.62565e-06
2.80403e-11
6.09115e-11
8.05941e-10
1.00172e-08
6.5099e-08
1.23273e-07
3.02513e-07
2.79493e-06
1.23367e-06
2.60126e-06
5.02406e-06
8.97337e-06
1.48782e-05
2.30555e-05
3.36857e-05
4.65049e-05
6.12278e-05
7.88949e-05
0.000100036
0.000125122
0.000154639
0.000189121
0.000229083
0.000274809
0.000325727
0.000381356
0.000443909
0.000514096
0.000592707
0.000680607
0.000778767
0.000888238
0.00101021
0.00114591
0.00129678
0.00146427
0.00164985
0.00185484
0.00208026
0.00232625
0.00259148
0.00286917
0.00313628
0.0033168
0.00313387
0.00173737
5.12755e-06
2.79176e-11
4.93515e-11
7.4383e-10
6.163e-09
4.78019e-08
2.32901e-07
3.60095e-07
7.65972e-07
6.22539e-06
2.58357e-06
5.0141e-06
8.95258e-06
1.48479e-05
2.30106e-05
3.36237e-05
4.64303e-05
6.11296e-05
7.87664e-05
9.98715e-05
0.00012491
0.000154373
0.000188788
0.00022867
0.000274309
0.000325143
0.000380656
0.000443069
0.000513099
0.000591528
0.000679229
0.000777148
0.000886354
0.00100799
0.00114336
0.00129378
0.0014608
0.00164596
0.00185077
0.00207647
0.00232388
0.00259258
0.00288003
0.00317628
0.00344996
0.00360169
0.0032477
0.00170084
3.73847e-06
2.78718e-11
4.85367e-11
5.44718e-10
5.62916e-09
2.90751e-08
1.69324e-07
6.83588e-07
9.05128e-07
1.73658e-06
1.24499e-05
4.98051e-06
8.93633e-06
1.48165e-05
2.29684e-05
3.35651e-05
4.63603e-05
6.10388e-05
7.86473e-05
9.97176e-05
0.000124715
0.000154126
0.00018848
0.000228289
0.000273846
0.000324605
0.000380011
0.0004423
0.000512181
0.000590445
0.000677954
0.000775666
0.000884622
0.00100599
0.00114101
0.0012911
0.00145768
0.0016424
0.00184687
0.0020726
0.00232073
0.0025917
0.00288434
0.0031944
0.00350773
0.00378207
0.00388915
0.00331624
0.00167628
3.27058e-06
2.78402e-11
4.84119e-11
5.34446e-10
4.15189e-09
2.63463e-08
1.01924e-07
4.93258e-07
1.7379e-06
2.01629e-06
3.57813e-06
2.23647e-05
8.87832e-06
1.47922e-05
2.29248e-05
3.35099e-05
4.62941e-05
6.09534e-05
7.85372e-05
9.95756e-05
0.000124534
0.000153898
0.000188195
0.000227938
0.000273419
0.000324105
0.000379415
0.000441591
0.00051134
0.000589446
0.000676781
0.000774294
0.000883034
0.00100414
0.00113889
0.00128863
0.00145489
0.00163918
0.00184327
0.0020688
0.00231724
0.00258952
0.0028856
0.00320319
0.00353572
0.00386346
0.00413019
0.00417254
0.00334562
0.0015747
3.13238e-06
2.77947e-11
4.83352e-11
5.31656e-10
4.07144e-09
1.97507e-08
9.16716e-08
2.93371e-07
1.24779e-06
3.9289e-06
4.0643e-06
6.75354e-06
3.62735e-05
1.47006e-05
2.28911e-05
3.34527e-05
4.62315e-05
6.08728e-05
7.84336e-05
9.94438e-05
0.000124366
0.000153687
0.000187932
0.000227612
0.000273025
0.000323645
0.000378863
0.000440935
0.000510563
0.000588529
0.000675697
0.000773027
0.000881564
0.00100245
0.00113694
0.0012864
0.00145232
0.00163631
0.00184
0.00206524
0.00231369
0.00258669
0.00288487
0.00320745
0.00355066
0.00390478
0.00424273
0.00449058
0.00444327
0.00333692
0.00136662
3.0956e-06
2.77505e-11
4.82306e-11
5.3011e-10
4.04282e-09
1.93524e-08
7.00719e-08
2.61898e-07
7.31174e-07
2.81615e-06
7.96558e-06
7.51024e-06
1.17434e-05
5.38612e-05
2.27584e-05
3.34092e-05
4.61654e-05
6.07962e-05
7.83349e-05
9.93194e-05
0.000124211
0.000153491
0.000187687
0.000227311
0.00027266
0.00032322
0.000378353
0.000440326
0.000509843
0.000587682
0.000674703
0.000771858
0.000880205
0.00100088
0.00113515
0.00128435
0.00144999
0.00163366
0.00183709
0.00206199
0.00231028
0.00258358
0.00288303
0.0032088
0.00355908
0.00392807
0.00430185
0.00464379
0.00485782
0.00469046
0.00328613
0.00112573
3.08699e-06
2.77213e-11
4.81277e-11
5.28236e-10
4.02741e-09
1.91896e-08
6.86053e-08
2.05025e-07
6.49546e-07
1.62735e-06
5.72641e-06
1.4488e-05
1.28049e-05
1.89424e-05
7.45557e-05
3.323e-05
4.61168e-05
6.07153e-05
7.82419e-05
9.92004e-05
0.000124063
0.000153309
0.000187461
0.000227031
0.000272322
0.000322825
0.000377884
0.000439765
0.000509176
0.000586895
0.000673782
0.000770785
0.000878947
0.000999432
0.00113348
0.00128246
0.00144785
0.00163126
0.0018344
0.00205909
0.00230713
0.00258048
0.00288063
0.00320843
0.00356334
0.00394217
0.00433638
0.00472649
0.00506361
0.00522447
0.00483926
0.00318772
0.000866701
3.08593e-06
2.74291e-11
4.8064e-11
5.26357e-10
4.00958e-09
1.91032e-08
6.7955e-08
2.00614e-07
5.22886e-07
1.44852e-06
3.2993e-06
1.0507e-05
2.37263e-05
2.02942e-05
2.86067e-05
9.78345e-05
4.59081e-05
6.06562e-05
7.81438e-05
9.90886e-05
0.000123922
0.000153136
0.00018725
0.000226772
0.000272007
0.000322458
0.000377446
0.000439248
0.00050856
0.000586164
0.000672926
0.000769788
0.000877791
0.000998088
0.00113194
0.00128071
0.00144588
0.00162906
0.00183196
0.00205641
0.00230433
0.00257755
0.00287804
0.0032071
0.00356506
0.00395045
0.00435816
0.00477605
0.00517732
0.00549751
0.00558076
0.00489849
0.00304168
0.000607
3.08697e-06
1.71356e-11
4.76962e-11
5.2519e-10
3.99159e-09
1.90058e-08
6.76135e-08
1.98555e-07
5.11481e-07
1.19869e-06
2.95868e-06
6.16408e-06
1.74613e-05
3.54581e-05
3.0183e-05
4.08777e-05
0.000123325
6.03997e-05
7.80716e-05
9.89709e-05
0.000123789
0.00015297
0.000187049
0.00022653
0.000271715
0.000322115
0.00037704
0.000438765
0.000507992
0.000585492
0.000672131
0.00076886
0.000876719
0.000996847
0.00113051
0.00127908
0.00144405
0.00162702
0.00182971
0.00205397
0.00230172
0.00257496
0.00287552
0.0032053
0.00356527
0.00395508
0.00437191
0.00480813
0.00524677
0.00565162
0.00593875
0.00591427
0.00488303
0.00286275
0.000371709
3.08843e-06
3.57078e-13
2.87062e-11
5.22357e-10
3.9802e-09
1.89073e-08
6.72338e-08
1.97481e-07
5.05967e-07
1.17263e-06
2.51108e-06
5.57871e-06
1.06708e-05
2.66153e-05
4.9309e-05
4.25685e-05
5.52212e-05
0.000150792
7.77573e-05
9.88834e-05
0.000123649
0.000152814
0.000186857
0.0002263
0.00027144
0.000321795
0.00037666
0.000438318
0.000507463
0.000584872
0.000671397
0.000767999
0.000875718
0.000995697
0.00112919
0.00127758
0.00144235
0.00162512
0.00182763
0.00205172
0.00229934
0.00257251
0.00287327
0.0032034
0.00356464
0.00395747
0.00438054
0.00482924
0.00529256
0.00574724
0.00614501
0.0063781
0.00620959
0.00480175
0.00268259
0.000189492
3.08964e-06
2.33448e-12
6.19734e-12
3.03027e-10
3.95802e-09
1.88442e-08
6.68495e-08
1.96303e-07
5.03116e-07
1.15971e-06
2.45774e-06
4.84659e-06
9.75254e-06
1.7209e-05
3.79024e-05
6.50751e-05
5.64918e-05
7.20968e-05
0.0001801
9.85116e-05
0.000123545
0.000152649
0.000186675
0.000226078
0.00027118
0.000321494
0.000376305
0.000437899
0.000506972
0.000584293
0.000670721
0.000767202
0.000874786
0.000994622
0.00112796
0.00127618
0.00144077
0.00162335
0.00182569
0.00204963
0.00229714
0.00257027
0.00287111
0.00320169
0.00356367
0.00395852
0.00438595
0.0048433
0.00532351
0.00581113
0.0062748
0.00665098
0.00680335
0.00637455
0.00465615
0.00251165
7.76904e-05
3.09038e-06
2.69079e-12
4.21536e-12
1.23292e-10
2.28769e-09
1.87341e-08
6.66015e-08
1.95101e-07
4.9999e-07
1.15308e-06
2.43081e-06
4.74818e-06
8.65655e-06
1.58807e-05
2.60477e-05
5.13795e-05
8.27862e-05
7.3046e-05
9.23835e-05
0.000211195
0.00012312
0.000152526
0.000186482
0.000225868
0.00027093
0.000321206
0.000375971
0.000437507
0.000506511
0.000583755
0.000670092
0.000766467
0.000873924
0.000993618
0.00112681
0.00127487
0.0014393
0.00162171
0.00182388
0.00204768
0.00229509
0.00256819
0.00286912
0.00319999
0.00356275
0.00395888
0.00438934
0.00485283
0.00534486
0.00585514
0.00636243
0.00682497
0.00716037
0.00719901
0.00640243
0.00443949
0.00218124
2.71844e-05
3.0907e-06
2.59288e-12
4.61944e-12
4.74975e-11
9.61903e-10
1.08239e-08
6.62e-08
1.94326e-07
4.96825e-07
1.14583e-06
2.41708e-06
4.69789e-06
8.49228e-06
1.43685e-05
2.42491e-05
3.73426e-05
6.72397e-05
0.000102416
9.28995e-05
0.00011672
0.000244091
0.000152039
0.000186338
0.000225647
0.000270691
0.000320929
0.000375651
0.000437137
0.000506081
0.000583252
0.000669507
0.000765786
0.000873131
0.000992691
0.00112574
0.00127365
0.00143792
0.00162018
0.00182219
0.00204585
0.00229317
0.00256625
0.00286726
0.00319839
0.00356174
0.00395909
0.00439157
0.00485943
0.00535998
0.00588623
0.00642365
0.00694355
0.00739105
0.00766084
0.00754592
0.0063114
0.00414623
0.00170097
9.73327e-06
3.09087e-06
2.2501e-12
4.49511e-12
4.98333e-11
3.58861e-10
4.54892e-09
3.82931e-08
1.93141e-07
4.9476e-07
1.13847e-06
2.40212e-06
4.67244e-06
8.40763e-06
1.41185e-05
2.23023e-05
3.50225e-05
5.08863e-05
8.56758e-05
0.000121135
0.000116449
0.000145614
0.000278904
0.000185769
0.000225481
0.00027044
0.000320666
0.000375342
0.000436784
0.000505674
0.000582782
0.000668959
0.000765152
0.000872396
0.000991837
0.00112474
0.00127251
0.00143663
0.00161875
0.00182062
0.00204414
0.00229136
0.00256441
0.0028655
0.00319688
0.00356072
0.00395905
0.00439337
0.00486424
0.00537093
0.0059088
0.00646762
0.0070273
0.00754963
0.00796344
0.00813635
0.00776268
0.00611443
0.00380218
0.00119522
4.64649e-06
3.09097e-06
2.01799e-12
3.99862e-12
4.89954e-11
3.76172e-10
1.69191e-09
1.60535e-08
1.12099e-07
4.91761e-07
1.13367e-06
2.38688e-06
4.64468e-06
8.36506e-06
1.39889e-05
2.19506e-05
3.26465e-05
4.79277e-05
6.64466e-05
0.000104934
0.000144395
0.000144217
0.000179548
0.000315875
0.000224802
0.000270252
0.000320387
0.000375049
0.000436442
0.000505285
0.000582337
0.000668445
0.000764557
0.00087171
0.000991048
0.00112383
0.00127145
0.00143542
0.0016174
0.00181914
0.00204254
0.00228967
0.00256268
0.00286383
0.00319542
0.00355973
0.00395886
0.00439467
0.00486822
0.00537924
0.00592562
0.00650011
0.0070882
0.00766269
0.00817331
0.00852911
0.00856674
0.00779455
0.00582175
0.00348398
0.000722924
3.31492e-06
3.091e-06
1.9492e-12
3.66741e-12
4.45873e-11
3.70587e-10
1.77778e-09
5.97109e-09
4.69925e-08
2.87354e-07
1.12702e-06
2.37692e-06
4.61634e-06
8.31867e-06
1.39244e-05
2.17678e-05
3.21809e-05
4.52881e-05
6.27654e-05
8.50252e-05
0.000127443
0.000172877
0.000176687
0.000218754
0.000352183
0.000269434
0.000320183
0.000374736
0.000436116
0.000504907
0.000581911
0.000667962
0.000764
0.000871068
0.000990311
0.00112298
0.00127048
0.0014343
0.00161613
0.00181774
0.00204104
0.00228807
0.00256104
0.00286224
0.00319402
0.00355872
0.00395861
0.00439566
0.00487138
0.00538617
0.00593865
0.00652475
0.0071338
0.00774571
0.00832421
0.00880412
0.00907093
0.00892753
0.00766475
0.00544584
0.00321811
0.000354978
2.99592e-06
3.09098e-06
1.94736e-12
3.54986e-12
4.17035e-11
3.37955e-10
1.75399e-09
6.29094e-09
1.74961e-08
1.21081e-07
6.66255e-07
2.36385e-06
4.59778e-06
8.27105e-06
1.38535e-05
2.16774e-05
3.19394e-05
4.47267e-05
5.96624e-05
8.05447e-05
0.000106777
0.000154839
0.000206466
0.000214405
0.000262149
0.000391811
0.000319201
0.000374509
0.000435769
0.000504548
0.000581495
0.000667497
0.000763476
0.000870469
0.000989622
0.0011222
0.00126957
0.00143327
0.00161495
0.00181641
0.0020396
0.00228656
0.0025595
0.00286073
0.00319266
0.00355771
0.00395825
0.00439643
0.00487396
0.00539184
0.00594954
0.00654408
0.0071688
0.00780848
0.00843597
0.00900348
0.00942775
0.00956708
0.00909224
0.00738801
0.0050023
0.00256636
0.000134399
2.92604e-06
3.09097e-06
1.98308e-12
3.54712e-12
4.04456e-11
3.16646e-10
1.60054e-09
6.21681e-09
1.8477e-08
4.51726e-08
2.84567e-07
1.42264e-06
4.57494e-06
8.23978e-06
1.37813e-05
2.15783e-05
3.18212e-05
4.44454e-05
5.89631e-05
7.68869e-05
0.000101671
0.000132653
0.000187391
0.000245208
0.00025767
0.000310311
0.000440041
0.000373389
0.000435515
0.000504164
0.000581098
0.000667043
0.000762969
0.000869901
0.000988979
0.00112146
0.00126874
0.00143232
0.00161387
0.00181518
0.00203824
0.00228512
0.00255802
0.00285928
0.00319134
0.0035567
0.00395782
0.00439698
0.00487614
0.0053966
0.00595858
0.00656025
0.00719648
0.00785709
0.0085211
0.00915226
0.00968861
0.0100253
0.00999078
0.00903805
0.00697377
0.00451942
0.0018157
4.16844e-05
2.91221e-06
3.09097e-06
2.06572e-12
3.61135e-12
4.04216e-11
3.07192e-10
1.5003e-09
5.67604e-09
1.82913e-08
4.77805e-08
1.06574e-07
6.23533e-07
2.823e-06
8.20436e-06
1.37333e-05
2.14772e-05
3.16918e-05
4.43096e-05
5.86107e-05
7.60166e-05
9.75078e-05
0.000126604
0.000163236
0.000225298
0.00028932
0.00030601
0.000364628
0.000497979
0.00043424
0.000503882
0.000580676
0.000666608
0.000762476
0.000869352
0.000988367
0.00112077
0.00126796
0.00143143
0.00161286
0.00181405
0.00203697
0.00228374
0.00255659
0.00285788
0.00319007
0.00355569
0.00395731
0.00439734
0.00487793
0.00540068
0.00596624
0.00657378
0.00721962
0.0078958
0.00858752
0.00926638
0.00988472
0.0103634
0.0105727
0.0102587
0.00878518
0.00643492
0.00407302
0.00109336
1.26846e-05
2.90976e-06
3.09096e-06
2.16557e-12
3.74994e-12
4.1144e-11
3.0702e-10
1.45582e-09
5.32272e-09
1.67116e-08
4.73875e-08
1.1275e-07
2.352e-07
1.29042e-06
5.22508e-06
1.36839e-05
2.14098e-05
3.15591e-05
4.41601e-05
5.84381e-05
7.55783e-05
9.6426e-05
0.00012197
0.000156014
0.000199002
0.000268692
0.000338946
0.000358525
0.000425712
0.000565036
0.00050243
0.000580365
0.000666143
0.000762003
0.000868818
0.000987778
0.00112012
0.00126723
0.00143061
0.00161194
0.00181301
0.00203581
0.00228245
0.00255522
0.00285652
0.00318882
0.00355469
0.00395675
0.00439755
0.00487939
0.00540414
0.00597287
0.00658529
0.00723908
0.00792815
0.00864067
0.00935594
0.0100361
0.0106195
0.0110066
0.0110402
0.0102614
0.00834539
0.00581034
0.0034779
0.000520807
5.05696e-06
2.90937e-06
3.09095e-06
2.26143e-12
3.91372e-12
4.26109e-11
3.12493e-10
1.45504e-09
5.16603e-09
1.56788e-08
4.33324e-08
1.12023e-07
2.48329e-07
4.93161e-07
2.5387e-06
9.03423e-06
2.13472e-05
3.1471e-05
4.40078e-05
5.82589e-05
7.5376e-05
9.58989e-05
0.000120652
0.000150774
0.000190396
0.000240304
0.000317073
0.000393647
0.000417553
0.000494239
0.000639583
0.000578713
0.000665801
0.000761496
0.000868307
0.000987204
0.00111949
0.00126653
0.00142984
0.00161107
0.00181205
0.00203474
0.00228127
0.00255393
0.00285519
0.00318757
0.00355367
0.00395613
0.00439761
0.00488057
0.00540708
0.00597856
0.00659528
0.00725569
0.0079554
0.00868508
0.00942789
0.0101556
0.0108184
0.0113379
0.011591
0.0113527
0.0100199
0.00773445
0.00518984
0.00250131
0.000185527
3.25902e-06
2.90934e-06
3.09094e-06
2.3468e-12
4.06247e-12
4.43087e-11
3.23584e-10
1.48093e-09
5.16344e-09
1.52212e-08
4.068e-08
1.02551e-07
2.47098e-07
5.17876e-07
9.9252e-07
4.75455e-06
1.46216e-05
3.1397e-05
4.39069e-05
5.80738e-05
7.51606e-05
9.56574e-05
0.000120017
0.000149174
0.000184437
0.000230219
0.000286815
0.000369261
0.000452623
0.000483767
0.000570943
0.000721957
0.000663923
0.000761118
0.000867755
0.00098665
0.00111888
0.00126586
0.00142911
0.00161027
0.00181116
0.00203375
0.00228018
0.00255276
0.00285394
0.00318634
0.00355262
0.00395546
0.00439755
0.0048815
0.00540958
0.00598348
0.00660395
0.00727013
0.0079787
0.00872253
0.00948798
0.0102518
0.0109762
0.011597
0.0120155
0.0120832
0.0113686
0.00954733
0.00699342
0.0046378
0.00153263
5.19819e-05
2.8727e-06
2.90934e-06
3.09093e-06
2.42016e-12
4.18734e-12
4.57582e-11
3.36417e-10
1.53352e-09
5.25514e-09
1.52139e-08
3.95043e-08
9.63536e-08
2.2652e-07
5.1573e-07
1.03171e-06
1.92963e-06
8.46004e-06
2.22473e-05
4.38477e-05
5.7948e-05
7.49426e-05
9.53942e-05
0.000119738
0.00014843
0.000182504
0.000223461
0.000275622
0.000337213
0.000427795
0.00051843
0.000557911
0.000656624
0.000813936
0.000758985
0.00086734
0.000986052
0.00111828
0.00126521
0.0014284
0.00160951
0.00181032
0.00203284
0.00227918
0.00255168
0.0028528
0.00318517
0.00355154
0.0039547
0.00439736
0.0048822
0.00541167
0.00598774
0.0066115
0.00728271
0.00799898
0.00875458
0.00953873
0.0103323
0.0111038
0.0118035
0.0123498
0.0126214
0.0123904
0.0111054
0.0088588
0.0062039
0.00378145
0.000736421
1.39557e-05
2.79684e-06
2.90934e-06
3.09093e-06
2.48196e-12
4.28443e-12
4.6887e-11
3.47304e-10
1.59437e-09
5.44162e-09
1.54832e-08
3.94856e-08
9.36001e-08
2.13064e-07
4.73586e-07
1.02705e-06
1.9733e-06
3.63522e-06
1.42573e-05
3.2034e-05
5.78717e-05
7.47915e-05
9.51318e-05
0.000119438
0.000148086
0.000181626
0.000221161
0.000268143
0.000325535
0.000393972
0.000493313
0.000591755
0.000640808
0.000752143
0.000916014
0.000864925
0.000985602
0.00111764
0.00126457
0.00142771
0.00160877
0.00180954
0.00203198
0.00227826
0.00255069
0.00285175
0.00318411
0.00355052
0.00395388
0.00439702
0.00488268
0.00541341
0.00599139
0.00661809
0.00729372
0.00801667
0.00878248
0.00958218
0.0104002
0.0112104
0.0119711
0.0126177
0.0130486
0.0131175
0.0123746
0.0105736
0.00799873
0.00549109
0.00257171
0.000255528
5e-06
2.78324e-06
2.90936e-06
3.09092e-06
2.53525e-12
4.35578e-12
4.76428e-11
3.55705e-10
1.64593e-09
5.65761e-09
1.60315e-08
4.01803e-08
9.35518e-08
2.07052e-07
4.46076e-07
9.45024e-07
1.95998e-06
3.6316e-06
6.63574e-06
2.27122e-05
4.36464e-05
7.46598e-05
9.49512e-05
0.000119103
0.000147719
0.000181193
0.000220063
0.000265493
0.000317767