/*--------------------------------*- C++ -*----------------------------------*\
| =========                 |                                                 |
| \\      /  F ield         | OpenFOAM: The Open Source CFD Toolbox           |
|  \\    /   O peration     | Version:  v2012                                 |
|   \\  /    A nd           | Website:  www.openfoam.com                      |
|    \\/     M anipulation  |                                                 |
\*---------------------------------------------------------------------------*/
FoamFile
{
    version     2.0;
    format      ascii;
    class       volScalarField;
    location    "2000";
    object      rho;
}
// * * * * * * * * * * * * * * * * * * * * * * * * * * * * * * * * * * * * * //

dimensions      [1 -3 0 0 0 0 0];


internalField   nonuniform List<scalar> 
31383
(
0.30191
0.301468
0.302414
0.301149
0.301891
0.303
0.301015
0.301554
0.302409
0.303678
0.300969
0.301406
0.302047
0.303035
0.304464
0.300903
0.301349
0.301879
0.30264
0.303787
0.305379
0.300806
0.301273
0.301807
0.302447
0.303352
0.304693
0.306444
0.300745
0.301168
0.301719
0.302357
0.303128
0.304205
0.305782
0.307687
0.300735
0.301099
0.301603
0.302253
0.303014
0.303942
0.30523
0.307092
0.309143
0.300704
0.301084
0.301526
0.302124
0.302891
0.303799
0.304917
0.30646
0.308666
0.310855
0.300605
0.301047
0.301503
0.302035
0.302745
0.303651
0.304738
0.306087
0.307935
0.310548
0.312881
0.300434
0.300944
0.30146
0.302003
0.302642
0.303485
0.304561
0.305864
0.307489
0.309692
0.312757
0.315371
0.300205
0.300768
0.30135
0.301951
0.302598
0.303365
0.30437
0.305651
0.307212
0.309159
0.31176
0.315303
0.318326
0.299941
0.300535
0.301169
0.301834
0.302535
0.303306
0.304229
0.305429
0.306956
0.308818
0.311128
0.314151
0.318176
0.321801
0.299705
0.300268
0.30093
0.301646
0.302409
0.303231
0.304152
0.305262
0.306696
0.30851
0.310711
0.313407
0.316854
0.321346
0.32606
0.29949
0.300028
0.300659
0.301401
0.302212
0.303094
0.304062
0.305164
0.306498
0.308207
0.310342
0.312905
0.315987
0.319842
0.324787
0.330851
0.299307
0.29981
0.300415
0.301124
0.30196
0.302887
0.30391
0.305054
0.306374
0.307971
0.309992
0.312467
0.315393
0.318845
0.323088
0.328486
0.336289
0.299161
0.299625
0.300193
0.300875
0.301676
0.302625
0.30369
0.304886
0.306241
0.307815
0.309708
0.31206
0.314882
0.318155
0.321953
0.326575
0.332417
0.342367
0.299045
0.299476
0.300004
0.300648
0.30142
0.302332
0.303417
0.30465
0.306052
0.307654
0.309515
0.311727
0.314412
0.317565
0.32116
0.325294
0.33028
0.336543
0.348981
0.298959
0.299358
0.299853
0.300455
0.301188
0.302069
0.303113
0.304363
0.305798
0.307441
0.309323
0.311493
0.314027
0.317028
0.320486
0.324391
0.328846
0.334167
0.34083
0.356014
0.2989
0.29927
0.299732
0.3003
0.30099
0.30183
0.302841
0.304046
0.305494
0.307166
0.309081
0.311266
0.313745
0.316586
0.319878
0.323628
0.327831
0.332579
0.338202
0.345247
0.363367
0.298863
0.299209
0.299642
0.300176
0.30083
0.301625
0.302593
0.303762
0.305161
0.30684
0.308781
0.31099
0.313481
0.316256
0.319377
0.322945
0.326976
0.331448
0.336456
0.342354
0.34977
0.371056
0.298843
0.299171
0.299579
0.300082
0.300702
0.301459
0.302381
0.303504
0.304863
0.306489
0.308431
0.310661
0.313167
0.315949
0.318996
0.322382
0.326216
0.330499
0.335208
0.340447
0.346594
0.354383
0.379136
0.298835
0.29915
0.299538
0.300017
0.300605
0.301326
0.302208
0.303282
0.304592
0.306174
0.308058
0.310283
0.312806
0.315598
0.318646
0.321947
0.325586
0.32966
0.334163
0.339079
0.344524
0.350903
0.359073
0.387589
0.298832
0.299141
0.299515
0.299974
0.300535
0.301224
0.302069
0.303102
0.304359
0.305889
0.307724
0.309886
0.312401
0.315203
0.318255
0.321551
0.325096
0.328963
0.333243
0.337938
0.343036
0.348667
0.355266
0.363838
0.39638
0.298828
0.299136
0.299505
0.299949
0.30049
0.301151
0.301961
0.302955
0.304168
0.305642
0.307422
0.30953
0.311976
0.314767
0.317825
0.32112
0.324651
0.328414
0.332478
0.336936
0.341796
0.347056
0.35286
0.359681
0.368681
0.405482
0.298827
0.299132
0.299499
0.299936
0.300462
0.301102
0.301883
0.302841
0.304012
0.305439
0.307158
0.309208
0.311595
0.314313
0.317356
0.320652
0.324177
0.32792
0.331871
0.336101
0.340712
0.345718
0.351125
0.3571
0.364161
0.373616
0.41488
0.298832
0.299129
0.299493
0.299929
0.300447
0.301071
0.301829
0.302756
0.30389
0.305272
0.306941
0.308927
0.311252
0.313907
0.316873
0.320149
0.32367
0.327401
0.331325
0.335436
0.339808
0.344551
0.349687
0.355238
0.361398
0.368723
0.378666
0.424576
0.298845
0.299134
0.299489
0.299921
0.300437
0.301053
0.301794
0.302697
0.303799
0.30514
0.306761
0.308694
0.310951
0.31354
0.31644
0.319636
0.323132
0.326855
0.330762
0.334839
0.339083
0.343576
0.348436
0.353698
0.359405
0.36577
0.373374
0.383847
0.434599
0.298867
0.299145
0.299492
0.299915
0.300427
0.30104
0.301773
0.302657
0.303733
0.30504
0.306618
0.308499
0.310701
0.313218
0.31605
0.319175
0.322586
0.32628
0.330176
0.334231
0.338434
0.342791
0.34739
0.352362
0.35776
0.36364
0.370221
0.378118
0.389171
0.44504
0.298901
0.299167
0.299503
0.299918
0.30042
0.301028
0.301757
0.302631
0.303687
0.304966
0.306508
0.308343
0.31049
0.31295
0.315706
0.318759
0.322096
0.325701
0.329564
0.333603
0.33778
0.34209
0.346545
0.351243
0.356336
0.361886
0.36795
0.374754
0.382963
0.394656
0.456059
0.298947
0.2992
0.299524
0.299927
0.300421
0.301018
0.301742
0.302611
0.303656
0.304913
0.306425
0.308221
0.31032
0.312723
0.315418
0.318393
0.321654
0.325181
0.328952
0.332955
0.337112
0.34139
0.345791
0.350336
0.355143
0.360372
0.366083
0.372336
0.379376
0.387917
0.40032
0.467724
0.299005
0.299245
0.299556
0.299946
0.300428
0.301017
0.301729
0.302592
0.303631
0.304876
0.306364
0.308128
0.310185
0.312537
0.315173
0.318084
0.321264
0.324713
0.328402
0.332309
0.336427
0.340681
0.345045
0.349529
0.354172
0.359101
0.364475
0.370353
0.376805
0.384091
0.392989
0.406186
0.4797
0.29907
0.299302
0.2996
0.299978
0.300446
0.301023
0.301725
0.302576
0.303607
0.304845
0.306318
0.308057
0.31008
0.312388
0.314972
0.317821
0.320934
0.324298
0.327906
0.331729
0.335747
0.339959
0.344295
0.348737
0.35331
0.358065
0.363125
0.368648
0.3747
0.38136
0.388908
0.39819
0.41228
0.49173
0.299139
0.299367
0.299657
0.300021
0.300476
0.301039
0.301729
0.302569
0.303587
0.304816
0.306281
0.308003
0.309999
0.31227
0.314808
0.317603
0.320651
0.323946
0.327467
0.331206
0.335137
0.339245
0.343535
0.347944
0.35247
0.357147
0.362022
0.367216
0.372895
0.37913
0.386008
0.393834
0.403533
0.418633
0.504194
0.29921
0.299436
0.299721
0.300077
0.300518
0.301067
0.301743
0.30257
0.303577
0.304791
0.306246
0.307958
0.309936
0.312178
0.314678
0.317424
0.320416
0.323643
0.327093
0.330742
0.334586
0.338605
0.342788
0.347147
0.351634
0.356256
0.361045
0.366044
0.371379
0.377221
0.383646
0.390755
0.398876
0.409031
0.425284
0.517493
0.299281
0.299507
0.299789
0.30014
0.300573
0.301108
0.301769
0.302582
0.303574
0.304776
0.306215
0.307916
0.309882
0.312105
0.314574
0.31728
0.320221
0.32339
0.32677
0.330346
0.334098
0.338027
0.342116
0.346365
0.350798
0.355376
0.360103
0.365006
0.370135
0.375617
0.38163
0.388256
0.395608
0.404045
0.414702
0.43228
0.531804
0.29932
0.299577
0.29986
0.300207
0.300635
0.301161
0.301808
0.302605
0.303582
0.304769
0.306195
0.307879
0.309832
0.312042
0.31449
0.317163
0.320062
0.323179
0.326498
0.330002
0.333679
0.337513
0.341511
0.345663
0.349981
0.3545
0.359178
0.364012
0.369035
0.374298
0.379935
0.386127
0.392966
0.400576
0.409352
0.420563
0.439702
0.547326
0.299665
0.299615
0.299929
0.300277
0.300702
0.301222
0.30186
0.302642
0.303603
0.304774
0.306183
0.307852
0.309787
0.311983
0.314417
0.317068
0.319933
0.323005
0.326271
0.329712
0.333315
0.337072
0.340972
0.34503
0.349247
0.353647
0.35826
0.36304
0.367987
0.373135
0.37854
0.384338
0.39072
0.397782
0.405666
0.414807
0.426638
0.447651
0.564288
0.299883
0.29996
0.299967
0.300346
0.30077
0.301288
0.301919
0.302692
0.303637
0.304791
0.306183
0.307835
0.309754
0.311931
0.31435
0.316986
0.319826
0.322863
0.326082
0.329468
0.333007
0.336688
0.340508
0.344466
0.348585
0.352881
0.35737
0.362081
0.366967
0.372031
0.37731
0.382863
0.388832
0.395413
0.402711
0.410887
0.420425
0.432952
0.456243
0.58296
0.299655
0.300229
0.300311
0.300383
0.300839
0.301355
0.301983
0.30275
0.303685
0.304822
0.306196
0.30783
0.30973
0.31189
0.314289
0.316909
0.319732
0.322744
0.325926
0.329265
0.332746
0.336361
0.340104
0.343979
0.347996
0.352189
0.35657
0.361153
0.365964
0.37096
0.376148
0.381564
0.387274
0.393423
0.400213
0.407763
0.416251
0.426219
0.439537
0.465613
0.603638
0.299617
0.299956
0.300664
0.300726
0.300875
0.301422
0.302049
0.302812
0.30374
0.304866
0.306223
0.307838
0.309719
0.31186
0.314241
0.316839
0.319646
0.322639
0.325795
0.329095
0.332527
0.336083
0.339758
0.343554
0.347485
0.351573
0.355849
0.360318
0.364996
0.369913
0.375026
0.380342
0.385904
0.391778
0.398116
0.405129
0.412945
0.421767
0.432209
0.446429
0.475923
0.626613
0.299927
0.29992
0.300322
0.3012
0.301218
0.301458
0.302115
0.302876
0.3038
0.304919
0.306264
0.307861
0.309723
0.311843
0.314204
0.316783
0.319567
0.322542
0.325679
0.328951
0.332344
0.335849
0.339463
0.34319
0.347039
0.351038
0.355205
0.359566
0.364127
0.368905
0.373932
0.379167
0.38462
0.390334
0.396381
0.402919
0.410167
0.418266
0.427449
0.438412
0.453673
0.48737
0.652062
0.299816
0.300243
0.30029
0.300761
0.301856
0.301801
0.30215
0.30294
0.303863
0.304977
0.306314
0.307898
0.309741
0.311842
0.314181
0.316739
0.319503
0.322455
0.325572
0.328824
0.332188
0.335652
0.339214
0.342877
0.346655
0.35057
0.354646
0.358894
0.363342
0.367999
0.372883
0.378026
0.38339
0.388985
0.39486
0.40109
0.407839
0.415336
0.423738
0.43331
0.444855
0.461324
0.500198
0.679826
0.299551
0.300121
0.300634
0.300735
0.301288
0.302653
0.302492
0.302974
0.303925
0.305037
0.306369
0.307944
0.309774
0.311854
0.314173
0.316709
0.31945
0.322381
0.325475
0.328706
0.332049
0.335483
0.339003
0.342613
0.346326
0.350167
0.354155
0.358309
0.362641
0.367182
0.371939
0.376933
0.382199
0.387698
0.393444
0.399488
0.405911
0.412884
0.420646
0.42937
0.439368
0.451563
0.469447
0.514688
0.709154
0.299517
0.299847
0.300494
0.301112
0.301269
0.301917
0.30362
0.303316
0.303956
0.305097
0.306426
0.307995
0.309816
0.311882
0.31418
0.316695
0.319413
0.322321
0.325393
0.328599
0.331921
0.335333
0.338822
0.342387
0.346045
0.349819
0.353731
0.357796
0.362031
0.366451
0.371088
0.375951
0.381062
0.386456
0.392097
0.398002
0.404224
0.410852
0.418061
0.426104
0.435177
0.445639
0.458571
0.478124
0.531145
0.738495
0.299489
0.29981
0.300202
0.300944
0.301691
0.30191
0.30267
0.304785
0.304299
0.305126
0.306483
0.30805
0.309863
0.31192
0.314203
0.316696
0.319392
0.322277
0.325324
0.328508
0.331804
0.335194
0.33866
0.342193
0.345805
0.349522
0.353365
0.357351
0.361494
0.365814
0.370327
0.375065
0.38004
0.385273
0.390802
0.396593
0.402665
0.409076
0.415919
0.42338
0.431724
0.441173
0.452147
0.465918
0.487472
0.549838
0.765546
0.299492
0.29978
0.30016
0.300623
0.301483
0.30239
0.302677
0.303571
0.306169
0.305468
0.30651
0.308103
0.309914
0.311963
0.314236
0.316714
0.319388
0.322249
0.325272
0.328432
0.331704
0.335068
0.33851
0.34202
0.345598
0.349267
0.353051
0.356966
0.361027
0.365253
0.369662
0.374273
0.379117
0.384209
0.389571
0.395242
0.401191
0.40744
0.41405
0.421122
0.42885
0.437516
0.447373
0.458915
0.473655
0.497686
0.570767
0.785672
0.299506
0.299783
0.300126
0.300573
0.301124
0.30213
0.303234
0.303597
0.304649
0.307753
0.306851
0.308128
0.309964
0.31201
0.314275
0.316741
0.3194
0.322238
0.325238
0.328372
0.331619
0.334959
0.338374
0.341859
0.345412
0.349046
0.352781
0.356634
0.360623
0.364764
0.369075
0.373579
0.378292
0.383249
0.388464
0.393962
0.399783
0.405899
0.412334
0.419155
0.426469
0.434481
0.443495
0.453796
0.465975
0.48184
0.509013
0.593422
0.798265
0.299498
0.299797
0.300127
0.300535
0.301062
0.301718
0.302905
0.304248
0.304695
0.305931
0.30951
0.308468
0.309985
0.312056
0.314317
0.316775
0.319422
0.322244
0.32522
0.32833
0.331552
0.334866
0.338256
0.341713
0.345241
0.348849
0.352547
0.356349
0.360274
0.364339
0.368564
0.372966
0.377569
0.38239
0.387465
0.392811
0.398451
0.404431
0.410722
0.417354
0.424397
0.43197
0.440287
0.449674
0.460465
0.473362
0.490548
0.521703
0.617145
0.80663
0.299507
0.299789
0.30014
0.300533
0.301016
0.301642
0.302426
0.303833
0.305453
0.306001
0.307441
0.311389
0.310323
0.312074
0.314359
0.316814
0.319451
0.322261
0.32522
0.328307
0.331503
0.33479
0.338154
0.341586
0.345085
0.348666
0.352336
0.3561
0.359972
0.363972
0.368119
0.372432
0.37693
0.381636
0.386572
0.391772
0.397254
0.403045
0.409192
0.415668
0.422508
0.429788
0.437635
0.446279
0.456073
0.467404
0.481119
0.49987
0.536025
0.642081
0.812919
0.299481
0.299797
0.300132
0.300545
0.301012
0.301585
0.302331
0.303269
0.304937
0.306864
0.307536
0.30919
0.313346
0.312409
0.314374
0.316851
0.319485
0.322285
0.325232
0.3283
0.331472
0.334734
0.338071
0.341476
0.344948
0.348499
0.352142
0.355877
0.359709
0.363654
0.367732
0.371965
0.37637
0.380969
0.385786
0.390842
0.396173
0.401799
0.40775
0.414072
0.420744
0.427804
0.435335
0.443476
0.452472
0.46271
0.474645
0.489301
0.509918
0.552269
0.66849
0.817733
0.299509
0.299771
0.300139
0.300536
0.301022
0.301577
0.30226
0.30315
0.304276
0.306238
0.308475
0.309308
0.311171
0.315352
0.314704
0.316862
0.319517
0.322314
0.32525
0.328306
0.33146
0.334697
0.338008
0.341385
0.344829
0.348353
0.351965
0.35567
0.359472
0.363375
0.367397
0.371559
0.375881
0.380385
0.38509
0.390023
0.395205
0.400675
0.406453
0.412571
0.419079
0.425957
0.433251
0.441051
0.449506
0.458884
0.46961
0.482223
0.497972
0.520902
0.570774
0.696178
0.82137
0.299566
0.299798
0.300113
0.300543
0.301012
0.301585
0.302247
0.303063
0.304127
0.305471
0.307747
0.310266
0.311311
0.313368
0.317394
0.317186
0.319525
0.322341
0.325274
0.328319
0.33146
0.334678
0.337964
0.341314
0.34473
0.348225
0.351808
0.355482
0.359253
0.363125
0.367103
0.371206
0.375456
0.379873
0.38448
0.389298
0.394353
0.399668
0.405283
0.411222
0.417516
0.42422
0.431318
0.43886
0.446946
0.45574
0.465533
0.4768
0.490182
0.507214
0.533132
0.591901
0.724694
0.824291
0.303351
0.299853
0.30014
0.300515
0.301018
0.301574
0.302253
0.303044
0.30402
0.305288
0.306879
0.309457
0.31221
0.313526
0.315749
0.319475
0.319841
0.322345
0.325296
0.328337
0.331467
0.334672
0.337939
0.341263
0.344652
0.348118
0.351671
0.355316
0.359054
0.362894
0.366839
0.370896
0.375084
0.379427
0.383944
0.38866
0.393596
0.39878
0.404236
0.410005
0.416112
0.422593
0.429504
0.436834
0.444641
0.453034
0.462194
0.472443
0.484312
0.498575
0.517129
0.546937
0.615927
0.753079
0.827072
0.402253
0.303548
0.300193
0.300542
0.300989
0.301578
0.30224
0.303046
0.303994
0.305159
0.306658
0.308514
0.311355
0.314287
0.315927
0.318292
0.321601
0.322652
0.325296
0.328355
0.33148
0.334674
0.337927
0.341232
0.344594
0.348032
0.351555
0.355169
0.358877
0.362682
0.366595
0.370617
0.374758
0.379037
0.383476
0.3881
0.392931
0.397991
0.403311
0.408915
0.414846
0.421131
0.427809
0.434939
0.442517
0.450606
0.45933
0.468889
0.479639
0.492186
0.507468
0.527844
0.562659
0.642754
0.779671
0.829433
0.551861
0.402032
0.30378
0.300591
0.301015
0.301549
0.302242
0.303032
0.303992
0.305124
0.306506
0.308254
0.310378
0.313423
0.316483
0.318494
0.320981
0.323784
0.325593
0.328351
0.331493
0.334682
0.337923
0.341214
0.344556
0.347967
0.351461
0.355045
0.358721
0.362495
0.366371
0.370359
0.374464
0.378693
0.383067
0.38761
0.392345
0.397297
0.402489
0.407951
0.413711
0.419813
0.426286
0.433172
0.440536
0.448377
0.45677
0.465851
0.475846
0.487153
0.50047
0.516943
0.539582
0.580657
0.671545
0.802142
0.830994
0.587077
0.55161
0.401817
0.304049
0.301061
0.301574
0.302211
0.303032
0.303975
0.305117
0.30646
0.30808
0.31008
0.312457
0.315644
0.318792
0.32122
0.32379
0.326036
0.328637
0.331485
0.334689
0.337926
0.341204
0.344531
0.347921
0.351389
0.354942
0.358587
0.362329
0.366173
0.370124
0.374192
0.378383
0.382706
0.38718
0.391831
0.396684
0.401763
0.407094
0.412707
0.418631
0.424913
0.431586
0.438693
0.446304
0.454427
0.463147
0.472616
0.483091
0.495022
0.509221
0.527102
0.552688
0.601303
0.701484
0.816605
0.83175
0.608057
0.587214
0.551368
0.401616
0.304368
0.301614
0.302235
0.302998
0.303972
0.305097
0.306448
0.308024
0.30989
0.312126
0.314731
0.318001
0.321212
0.324078
0.326692
0.328371
0.331757
0.334677
0.337927
0.341201
0.344516
0.347891
0.351337
0.354862
0.358477
0.362186
0.365996
0.369914
0.373944
0.378097
0.38238
0.3868
0.391381
0.396146
0.401123
0.406337
0.411813
0.417585
0.423683
0.430155
0.437039
0.44438
0.452256
0.460682
0.469755
0.479648
0.490655
0.503291
0.518512
0.538077
0.567558
0.624991
0.732194
0.823298
0.831884
0.620223
0.608344
0.587361
0.551139
0.401427
0.304741
0.30227
0.303021
0.303936
0.305091
0.306424
0.308005
0.309822
0.311926
0.314373
0.317175
0.320478
0.323764
0.32704
0.329656
0.330802
0.334935
0.337911
0.341197
0.344508
0.34787
0.3513
0.354803
0.358389
0.362067
0.365844
0.369727
0.373722
0.377836
0.382079
0.386457
0.390982
0.395674
0.40056
0.405668
0.411023
0.416653
0.422592
0.428873
0.435548
0.442655
0.450246
0.458405
0.467156
0.476614
0.486975
0.498575
0.512015
0.528431
0.550071
0.584618
0.652026
0.762054
0.826949
0.831665
0.628272
0.620562
0.608641
0.587523
0.55092
0.401249
0.305183
0.303049
0.303957
0.305052
0.306415
0.307978
0.309798
0.311848
0.314171
0.316799
0.319775
0.323077
0.326453
0.330079
0.332664
0.333344
0.338154
0.341177
0.344498
0.347855
0.351272
0.354759
0.358322
0.36197
0.365716
0.369564
0.373524
0.377602
0.381804
0.386141
0.390622
0.395255
0.400065
0.405079
0.410324
0.415829
0.421621
0.427736
0.434212
0.4411
0.448444
0.456302
0.464765
0.47387
0.483747
0.494626
0.506896
0.521261
0.539091
0.563419
0.60432
0.68205
0.7886
0.829215
0.831182
0.634414
0.628647
0.620911
0.608953
0.587704
0.55071
0.401084
0.305708
0.303976
0.30507
0.306372
0.307965
0.309767
0.311818
0.314084
0.3166
0.319391
0.322513
0.3258
0.32925
0.333175
0.335697
0.336018
0.341405
0.344473
0.34784
0.351252
0.354725
0.358271
0.361896
0.365611
0.369427
0.373352
0.377393
0.381557
0.385852
0.390289
0.394877
0.399626
0.40456
0.409708
0.415098
0.42076
0.426723
0.433026
0.439706
0.446821
0.454419
0.462563
0.471354
0.480843
0.491183
0.50264
0.515671
0.531113
0.550636
0.578538
0.627086
0.713297
0.809487
0.830359
0.830423
0.639656
0.634809
0.629029
0.621274
0.609284
0.587905
0.55051
0.400934
0.306334
0.30508
0.306388
0.307918
0.309749
0.311784
0.314048
0.316505
0.3192
0.322131
0.325366
0.328624
0.332128
0.33631
0.33876
0.338845
0.344685
0.347811
0.351231
0.354699
0.358231
0.361839
0.365529
0.369314
0.373205
0.377209
0.381336
0.385592
0.389985
0.394528
0.399229
0.404099
0.409164
0.414453
0.419996
0.425824
0.431968
0.438468
0.445367
0.452723
0.460593
0.469044
0.478191
0.4881
0.498953
0.511061
0.524967
0.541675
0.563311
0.595885
0.653177
0.744557
0.821984
0.83048
0.829852
0.644007
0.640066
0.635211
0.629425
0.621657
0.60964
0.588131
0.55032
0.400806
0.307081
0.306387
0.307932
0.309699
0.311762
0.314011
0.316465
0.319098
0.321954
0.324994
0.328313
0.331521
0.335069
0.339472
0.341859
0.341818
0.348007
0.351197
0.354672
0.358199
0.361791
0.365464
0.369224
0.373083
0.377053
0.381142
0.385359
0.389712
0.394209
0.398863
0.403682
0.408681
0.413883
0.419321
0.425026
0.431029
0.437364
0.444074
0.451204
0.458819
0.466979
0.475763
0.485297
0.495671
0.507097
0.519945
0.534865
0.55308
0.577499
0.61596
0.682524
0.774862
0.82721
0.830397
0.829526
0.647808
0.644428
0.640483
0.635626
0.62984
0.622065
0.610024
0.588387
0.550143
0.4007
0.307972
0.307919
0.30971
0.311707
0.313984
0.316424
0.319053
0.321847
0.324837
0.327955
0.331328
0.334472
0.338065
0.342659
0.344998
0.344913
0.351376
0.354634
0.358165
0.361753
0.36541
0.369151
0.372985
0.376922
0.380975
0.385154
0.389466
0.393921
0.398527
0.403298
0.408243
0.413377
0.418725
0.424319
0.430194
0.436382
0.44292
0.449854
0.457231
0.465122
0.473596
0.482741
0.492701
0.503589
0.515661
0.529359
0.545469
0.565529
0.593653
0.639267
0.714207
0.800592
0.829103
0.830187
0.829298
0.651202
0.64824
0.644857
0.640914
0.63606
0.630279
0.622504
0.610444
0.588677
0.549981
0.400624
0.30903
0.309683
0.311716
0.313926
0.316394
0.31901
0.3218
0.324728
0.327821
0.330992
0.334389
0.337464
0.341111
0.345883
0.348177
0.348112
0.354795
0.358122
0.361713
0.365365
0.36909
0.372904
0.376815
0.380834
0.384976
0.389249
0.393662
0.398225
0.402946
0.40784
0.412918
0.418193
0.423694
0.429455
0.43551
0.441894
0.448647
0.455818
0.463459
0.471649
0.480462
0.490001
0.500431
0.511896
0.524703
0.539387
0.556909
0.579356
0.612285
0.666149
0.7463
0.818185
0.829617
0.830058
0.829097
0.65425
0.651643
0.648681
0.645299
0.641363
0.63652
0.630749
0.62298
0.610905
0.589007
0.549838
0.400588
0.310269
0.311675
0.313932
0.316332
0.318976
0.321755
0.324678
0.327713
0.330883
0.334081
0.337483
0.340495
0.344208
0.349148
0.351401
0.351408
0.358265
0.361665
0.365318
0.369038
0.372835
0.376726
0.380718
0.384826
0.389061
0.393433
0.397953
0.402629
0.407471
0.412495
0.417712
0.423137
0.4288
0.434735
0.440981
0.447574
0.454556
0.46198
0.469906
0.478416
0.4876
0.497573
0.508525
0.520642
0.534293
0.550132
0.569371
0.595012
0.633964
0.696376
0.776997
0.825955
0.8296
0.830005
0.828913
0.657004
0.6547
0.652094
0.649135
0.645761
0.641839
0.63701
0.631257
0.623499
0.611413
0.589383
0.549719
0.400605
0.3117
0.313877
0.316335
0.31891
0.321717
0.324632
0.327662
0.330777
0.333999
0.337209
0.340604
0.343576
0.347366
0.352456
0.354671
0.354804
0.361789
0.365265
0.368984
0.372776
0.376649
0.380621
0.3847
0.3889
0.393234
0.397711
0.402342
0.407138
0.412108
0.417268
0.422632
0.428215
0.434049
0.44017
0.446617
0.453432
0.460659
0.468355
0.476587
0.485447
0.495035
0.505488
0.517028
0.529887
0.544518
0.561728
0.583178
0.613013
0.659205
0.72854
0.803213
0.82848
0.829554
0.829978
0.82877
0.65947
0.657459
0.655158
0.652558
0.649609
0.646249
0.642346
0.637539
0.631808
0.624068
0.611976
0.58981
0.549627
0.400683
0.31332
0.316267
0.318912
0.321648
0.324591
0.327614
0.330726
0.333899
0.337156
0.340366
0.343761
0.346713
0.350593
0.355809
0.357992
0.358299
0.365369
0.368926
0.372715
0.376583
0.380537
0.384595
0.388765
0.393062
0.397499
0.402087
0.406836
0.411758
0.416862
0.422167
0.427686
0.433436
0.43945
0.445767
0.45243
0.459481
0.466969
0.474959
0.483522
0.492763
0.502799
0.513788
0.525992
0.539707
0.555489
0.574371
0.598777
0.63395
0.688144
0.760704
0.820175
0.82906
0.829452
0.829948
0.828636
0.661678
0.65993
0.657924
0.65563
0.653044
0.65011
0.646769
0.642892
0.638113
0.632411
0.624695
0.6126
0.590292
0.549573
0.400832
0.315123
0.31883
0.321648
0.324519
0.327571
0.330677
0.333848
0.337063
0.340342
0.343554
0.346963
0.349909
0.353889
0.359208
0.361369
0.361894
0.36901
0.372652
0.376515
0.380463
0.384502
0.38865
0.392917
0.397317
0.401863
0.406568
0.411441
0.416495
0.421741
0.427198
0.43288
0.438807
0.445012
0.451538
0.45843
0.465734
0.473504
0.48181
0.490735
0.500395
0.510927
0.52252
0.535484
0.550194
0.567344
0.58839
0.61669
0.658418
0.719927
0.790489
0.826962
0.829159
0.829403
0.829927
0.828487
0.663623
0.662141
0.660399
0.658403
0.656124
0.653556
0.650644
0.64733
0.643484
0.63874
0.633073
0.625385
0.613287
0.59083
0.549558
0.40106
0.317099
0.321553
0.324517
0.327497
0.330631
0.3338
0.337014
0.340257
0.343556
0.346783
0.350208
0.353163
0.357255
0.362655
0.364807
0.365591
0.372714
0.376446
0.380387
0.38442
0.388549
0.392793
0.397162
0.401669
0.406331
0.411158
0.416162
0.421356
0.426751
0.432368
0.438223
0.444337
0.450746
0.457494
0.46463
0.472206
0.48028
0.48893
0.498251
0.508376
0.519464
0.531743
0.545585
0.561467
0.580303
0.60424
0.637524
0.686713
0.752299
0.813393
0.828711
0.829108
0.829401
0.829926
0.8283
0.66533
0.664088
0.662613
0.660883
0.658904
0.656646
0.654103
0.651219
0.647937
0.64413
0.639426
0.633799
0.626141
0.614037
0.591417
0.549584
0.401363
0.319247
0.324413
0.327493
0.330556
0.333752
0.336966
0.340211
0.343479
0.346809
0.350057
0.353501
0.356479
0.360693
0.366154
0.368311
0.36939
0.376485
0.380312
0.384336
0.388459
0.392682
0.397027
0.401503
0.406125
0.410908
0.415864
0.421006
0.426346
0.4319
0.437686
0.443725
0.450037
0.456662
0.463648
0.471046
0.478914
0.487318
0.496345
0.506103
0.516745
0.528462
0.541529
0.556397
0.573676
0.594725
0.622455
0.6619
0.718118
0.783302
0.825196
0.829008
0.82905
0.829418
0.82993
0.828082
0.666806
0.665795
0.664562
0.6631
0.661389
0.659433
0.657203
0.654692
0.651843
0.6486
0.644838
0.640179
0.634594
0.626964
0.61484
0.592041
0.549654
0.401742
0.321564
0.327381
0.330552
0.333675
0.336918
0.340164
0.343437
0.34674
0.350106
0.353378
0.356841
0.359858
0.364203
0.369708
0.371888
0.373295
0.380328
0.384256
0.388366
0.392584
0.396907
0.401359
0.405947
0.410689
0.4156
0.420692
0.425979
0.431475
0.437195
0.443161
0.449393
0.455917
0.462773
0.470013
0.477694
0.485879
0.494643
0.504084
0.514328
0.525553
0.537988
0.551969
0.568048
0.58708
0.611077
0.64366
0.690142
0.750398
0.809138
0.828273
0.828972
0.829055
0.829445
0.82993
0.827848
0.668067
0.667272
0.66627
0.665051
0.66361
0.661924
0.659999
0.657803
0.655331
0.652523
0.649326
0.645613
0.641003
0.635457
0.627844
0.61568
0.592679
0.549758
0.402191
0.324043
0.330435
0.33367
0.33684
0.340114
0.343391
0.346701
0.350047
0.35345
0.356746
0.360232
0.363304
0.367788
0.373321
0.375545
0.377306
0.384246
0.38828
0.392482
0.3968
0.401229
0.405792
0.4105
0.415368
0.420413
0.425648
0.431089
0.436749
0.442645
0.448802
0.45524
0.461989
0.469092
0.476606
0.484592
0.493123
0.502282
0.512182
0.52297
0.534858
0.548121
0.563174
0.58072
0.602083
0.629915
0.668479
0.72149
0.781767
0.823757
0.828827
0.82895
0.829072
0.829472
0.82992
0.827607
0.669138
0.668533
0.667747
0.666761
0.665563
0.664149
0.662496
0.660607
0.658453
0.656027
0.653268
0.650121
0.64646
0.641896
0.63638
0.628764
0.61653
0.593307
0.549889
0.402707
0.326679
0.333551
0.336832
0.340036
0.343339
0.346656
0.350011
0.353401
0.35684
0.360165
0.363678
0.36682
0.37145
0.376996
0.379288
0.381426
0.388244
0.39239
0.39669
0.401113
0.405652
0.410333
0.415166
0.420167
0.425354
0.430741
0.436343
0.442176
0.448259
0.454618
0.461277
0.468267
0.475636
0.483445
0.491764
0.500673
0.510268
0.520682
0.532086
0.544733
0.558962
0.575289
0.594724
0.619173
0.651887
0.697144
0.753697
0.808591
0.827977
0.828818
0.828959
0.829091
0.829495
0.829904
0.827363
0.670042
0.669604
0.669009
0.668239
0.667274
0.666105
0.664725
0.663111
0.661268
0.659163
0.65679
0.654084
0.65099
0.64738
0.642851
0.637344
0.629695
0.617359
0.5939
0.550033
0.403282
0.329473
0.336714
0.340028
0.34326
0.346603
0.349968
0.353368
0.356802
0.36028
0.363636
0.367183
0.37041
0.375192
0.380739
0.383123
0.385656
0.392325
0.39659
0.400992
0.405526
0.410183
0.414988
0.419953
0.425094
0.43043
0.435977
0.44175
0.447767
0.454049
0.460623
0.467518
0.474766
0.482421
0.490551
0.499233
0.508559
0.518641
0.529633
0.541741
0.55527
0.570638
0.588549
0.610501
0.638938
0.677583
0.728676
0.785046
0.823792
0.828609
0.828812
0.828973
0.829106
0.829514
0.829884
0.827112
0.670808
0.67051
0.670081
0.6695
0.668753
0.667817
0.666684
0.665345
0.663779
0.661989
0.65994
0.657626
0.654976
0.651933
0.648362
0.64385
0.638322
0.630606
0.618139
0.594443
0.550192
0.403929
0.332433
0.339912
0.343251
0.346522
0.349914
0.353327
0.356775
0.360254
0.363772
0.367163
0.370749
0.374078
0.379014
0.384554
0.387059
0.389999
0.396495
0.400886
0.405396
0.410047
0.414826
0.419762
0.424866
0.430155
0.435649
0.441364
0.447318
0.453531
0.460024
0.466829
0.473976
0.481503
0.489469
0.497949
0.507032
0.516821
0.52745
0.539099
0.552019
0.566582
0.583327
0.603328
0.628579
0.66204
0.707021
0.760884
0.811373
0.827907
0.828657
0.828824
0.828983
0.829118
0.829534
0.829865
0.826749
0.67146
0.671277
0.670988
0.670573
0.670015
0.669297
0.668397
0.667307
0.666019
0.664508
0.662778
0.660792
0.658539
0.655943
0.65294
0.64939
0.644863
0.639281
0.631466
0.618852
0.594927
0.550334
0.404642
0.33556
0.343139
0.346513
0.349832
0.353273
0.356736
0.360232
0.363759
0.367318
0.37075
0.374384
0.377829
0.382921
0.388447
0.391101
0.394456
0.400758
0.405283
0.409906
0.41468
0.419589
0.424663
0.429913
0.435358
0.441019
0.446913
0.453059
0.459479
0.466198
0.47325
0.480669
0.488498
0.496804
0.505668
0.515194
0.525503
0.536751
0.549156
0.563024
0.578816
0.597333
0.620101
0.649586
0.68899
0.738837
0.791907
0.825045
0.828482
0.82864
0.828833
0.828989
0.829132
0.829558
0.829844
0.826341
0.672027
0.671932
0.671757
0.671482
0.671089
0.67056
0.669878
0.669023
0.667984
0.666754
0.665307
0.663643
0.661722
0.659528
0.656976
0.653994
0.650434
0.645859
0.640191
0.632255
0.61949
0.595356
0.550486
0.405423
0.338786
0.346404
0.349823
0.353191
0.356682
0.360197
0.363742
0.367319
0.370922
0.3744
0.37809
0.381665
0.386915
0.392423
0.395257
0.39903
0.405119
0.409786
0.414528
0.419431
0.424477
0.429696
0.435101
0.440711
0.446548
0.452632
0.458982
0.465625
0.472585
0.479903
0.487617
0.495775
0.504452
0.513742
0.523764
0.534659
0.546617
0.559901
0.574887
0.592217
0.613092
0.639444
0.674174
0.719444
0.77104
0.816158
0.828117
0.828536
0.828649
0.828836
0.828992
0.829153
0.829594
0.829803
0.825901
0.672532
0.672501
0.672414
0.672253
0.672
0.671636
0.671142
0.670505
0.669702
0.668723
0.667559
0.666183
0.664589
0.662731
0.660584
0.658054
0.655064
0.65146
0.646807
0.641029
0.632963
0.620052
0.595733
0.550643
0.406288
0.34204
0.349716
0.353181
0.356599
0.360142
0.36371
0.367309
0.370938
0.374588
0.378117
0.381874
0.385593
0.390998
0.396489
0.399532
0.403723
0.409582
0.4144
0.419268
0.424308
0.429497
0.43487
0.440438
0.446222
0.452247
0.458532
0.465101
0.471981
0.479202
0.486807
0.494841
0.503359
0.512447
0.522212
0.532792
0.544357
0.557135
0.571453
0.587808
0.607169
0.631125
0.662029
0.702622
0.751514
0.801109
0.826519
0.828493
0.828538
0.828656
0.828836
0.829001
0.829188
0.829617
0.829736
0.825432
0.672997
0.673009
0.672986
0.672913
0.672773
0.672548
0.672219
0.67177
0.671185
0.670443
0.669533
0.668443
0.66714
0.665613
0.663806
0.661686
0.659149
0.656118
0.652438
0.647682
0.641785
0.633588
0.620543
0.596061
0.550789
0.407228
0.345333
0.353078
0.356588
0.360058
0.363657
0.367281
0.370935
0.37462
0.378319
0.381907
0.38574
0.389616
0.395174
0.400653
0.403934
0.408539
0.414152
0.419132
0.424133
0.429316