/*--------------------------------*- C++ -*----------------------------------*\
| =========                 |                                                 |
| \\      /  F ield         | OpenFOAM: The Open Source CFD Toolbox           |
|  \\    /   O peration     | Version:  v2012                                 |
|   \\  /    A nd           | Website:  www.openfoam.com                      |
|    \\/     M anipulation  |                                                 |
\*---------------------------------------------------------------------------*/
FoamFile
{
    version     2.0;
    format      ascii;
    class       volScalarField;
    location    "2000";
    object      T;
}
// * * * * * * * * * * * * * * * * * * * * * * * * * * * * * * * * * * * * * //

dimensions      [0 0 0 1 0 0 0];


internalField   nonuniform List<scalar> 
31383
(
275.787
275.845
275.327
275.85
275.458
274.795
275.855
275.48
274.987
274.181
275.859
275.498
275.03
274.419
273.473
275.862
275.512
275.066
274.491
273.739
272.654
275.865
275.523
275.093
274.549
273.847
272.925
271.706
275.867
275.534
275.116
274.593
273.932
273.078
271.954
270.608
275.869
275.542
275.136
274.63
273.998
273.199
272.162
270.793
269.334
275.871
275.55
275.152
274.661
274.052
273.29
272.325
271.07
269.413
267.85
275.872
275.556
275.167
274.688
274.098
273.365
272.447
271.284
269.772
267.78
266.116
275.874
275.562
275.18
274.712
274.138
273.43
272.548
271.444
270.047
268.241
265.888
264.015
275.875
275.567
275.191
274.732
274.171
273.484
272.635
271.577
270.253
268.588
266.461
263.741
261.565
275.876
275.572
275.201
274.749
274.201
273.531
272.708
271.689
270.423
268.848
266.888
264.433
261.36
258.74
275.877
275.576
275.21
274.766
274.227
273.572
272.77
271.784
270.567
269.061
267.21
264.948
262.178
258.782
255.361
275.878
275.58
275.218
274.78
274.25
273.607
272.825
271.866
270.688
269.24
267.472
265.336
262.784
259.728
256.04
251.664
275.879
275.584
275.225
274.793
274.271
273.64
272.872
271.937
270.792
269.394
267.69
265.653
263.243
260.429
257.119
253.157
247.595
275.88
275.587
275.232
274.805
274.29
273.669
272.916
271.999
270.884
269.525
267.883
265.916
263.615
260.958
257.915
254.373
250.163
243.2
275.881
275.59
275.238
274.815
274.307
273.695
272.954
272.055
270.963
269.639
268.044
266.148
263.927
261.388
258.516
255.266
251.52
247.096
238.592
275.881
275.592
275.243
274.825
274.323
273.719
272.989
272.106
271.034
269.738
268.184
266.342
264.199
261.749
259.006
255.941
252.509
248.594
243.989
233.879
275.882
275.594
275.248
274.834
274.337
273.74
273.021
272.151
271.099
269.827
268.307
266.51
264.43
262.063
259.417
256.491
253.256
249.675
245.628
240.867
229.147
275.882
275.596
275.253
274.841
274.349
273.759
273.049
272.192
271.157
269.909
268.416
266.66
264.627
262.331
259.773
256.953
253.865
250.492
246.797
242.65
237.752
224.4
275.883
275.598
275.257
274.848
274.361
273.777
273.075
272.23
271.21
269.982
268.517
266.792
264.806
262.56
260.077
257.352
254.377
251.159
247.682
243.904
239.681
234.658
219.618
275.883
275.6
275.26
274.855
274.371
273.792
273.098
272.263
271.257
270.048
268.607
266.914
264.962
262.767
260.338
257.693
254.819
251.72
248.405
244.854
241.018
236.738
231.593
214.829
275.884
275.602
275.264
274.861
274.38
273.807
273.119
272.293
271.3
270.108
268.688
267.023
265.105
262.947
260.573
257.986
255.197
252.204
249.013
245.63
242.03
238.154
233.83
228.561
210.066
275.884
275.603
275.267
274.866
274.389
273.819
273.138
272.32
271.338
270.161
268.761
267.121
265.234
263.112
260.778
258.248
255.522
252.619
249.537
246.283
242.857
239.227
235.324
230.96
225.558
205.352
275.884
275.604
275.27
274.871
274.397
273.831
273.155
272.345
271.373
270.21
268.827
267.208
265.35
263.262
260.966
258.479
255.813
252.975
249.988
246.847
243.554
240.103
236.454
232.53
228.119
222.579
200.7
275.885
275.606
275.272
274.875
274.403
273.842
273.171
272.367
271.405
270.253
268.887
267.289
265.453
263.396
261.135
258.689
256.068
253.294
250.375
247.331
244.154
240.84
237.377
233.717
229.765
225.297
219.611
196.118
275.885
275.607
275.274
274.879
274.41
273.851
273.185
272.388
271.433
270.293
268.941
267.36
265.549
263.516
261.287
258.878
256.301
253.574
250.72
247.748
244.671
241.477
238.155
234.685
231.007
227.019
222.49
216.648
191.596
275.885
275.608
275.277
274.883
274.416
273.86
273.198
272.406
271.459
270.329
268.99
267.426
265.633
263.626
261.423
259.049
256.51
253.828
251.023
248.118
245.116
242.024
238.826
235.501
232.021
228.316
224.289
219.699
213.684
187.102
275.885
275.609
275.279
274.886
274.421
273.868
273.21
272.423
271.483
270.361
269.034
267.485
265.711
263.724
261.549
259.201
256.699
254.057
251.298
248.444
245.511
242.496
239.402
236.205
232.875
229.375
225.642
221.576
216.919
210.715
182.582
275.886
275.61
275.28
274.89
274.426
273.876
273.22
272.438
271.504
270.391
269.074
267.539
265.781
263.814
261.66
259.342
256.869
254.264
251.546
248.739
245.858
242.915
239.901
236.811
233.612
230.267
226.746
222.984
218.877
214.149
207.735
178.029
275.886
275.611
275.282
274.893
274.431
273.883
273.23
272.452
271.523
270.418
269.111
267.587
265.845
263.895
261.763
259.467
257.024
254.449
251.77
249.005
246.172
243.283
240.342
237.335
234.247
231.037
227.675
224.132
220.34
216.19
211.385
204.736
173.585
275.886
275.611
275.284
274.895
274.435
273.889
273.24
272.465
271.541
270.442
269.144
267.631
265.903
263.97
261.856
259.582
257.164
254.619
251.971
249.245
246.455
243.615
240.729
237.797
234.795
231.7
228.477
225.098
221.531
217.708
213.512
208.624
201.71
169.339
275.886
275.612
275.285
274.898
274.439
273.895
273.248
272.477
271.558
270.465
269.174
267.672
265.955
264.037
261.941
259.686
257.291
254.772
252.155
249.461
246.711
243.914
241.079
238.204
235.279
232.273
229.168
225.931
222.534
218.943
215.087
210.842
205.862
198.651
165.154
275.887
275.613
275.287
274.9
274.443
273.901
273.256
272.488
271.573
270.485
269.202
267.708
266.003
264.098
262.017
259.782
257.407
254.912
252.321
249.659
246.94
244.184
241.393
238.571
235.705
232.778
229.766
226.65
223.399
219.982
216.365
212.474
208.177
203.095
195.545
160.909
275.887
275.613
275.288
274.902
274.446
273.906
273.263
272.499
271.587
270.505
269.228
267.742
266.046
264.154
262.087
259.869
257.513
255.039
252.473
249.837
247.151
244.427
241.677
238.9
236.088
233.223
230.292
227.272
224.145
220.878
217.441
213.796
209.867
205.513
200.319
192.382
156.58
275.887
275.614
275.289
274.905
274.45
273.91
273.27
272.508
271.6
270.522
269.251
267.773
266.087
264.205
262.151
259.947
257.61
255.156
252.611
250
247.341
244.65
241.933
239.198
236.432
233.622
230.754
227.818
224.79
221.651
218.368
214.908
211.234
207.265
202.849
197.527
189.136
152.139
275.887
275.615
275.291
274.907
274.453
273.915
273.276
272.517
271.613
270.539
269.273
267.802
266.123
264.251
262.209
260.019
257.697
255.262
252.738
250.149
247.515
244.851
242.168
239.466
236.743
233.981
231.17
228.299
225.358
222.321
219.168
215.866
212.382
208.677
204.664
200.182
194.715
185.78
147.566
275.877
275.616
275.292
274.909
274.456
273.919
273.282
272.525
271.624
270.554
269.293
267.828
266.158
264.294
262.262
260.084
257.777
255.358
252.853
250.285
247.674
245.036
242.38
239.712
237.023
234.305
231.543
228.731
225.857
222.908
219.861
216.693
213.371
209.862
206.123
202.063
197.507
191.875
182.283
142.839
275.886
275.559
275.294
274.91
274.458
273.923
273.288
272.533
271.634
270.568
269.312
267.853
266.189
264.334
262.311
260.145
257.85
255.446
252.958
250.41
247.82
245.204
242.575
239.935
237.281
234.598
231.881
229.118
226.304
223.425
220.469
217.409
214.225
210.882
207.344
203.569
199.46
194.822
189.002
178.618
137.946
275.886
275.61
275.161
274.913
274.461
273.927
273.293
272.54
271.644
270.581
269.33
267.876
266.218
264.371
262.357
260.2
257.917
255.527
253.054
250.523
247.953
245.359
242.752
240.139
237.514
234.866
232.185
229.469
226.705
223.888
221.003
218.037
214.964
211.762
208.396
204.828
201.015
196.851
192.123
186.084
174.751
132.887
275.884
275.607
275.274
274.671
274.464
273.93
273.299
272.547
271.654
270.594
269.346
267.897
266.246
264.405
262.399
260.251
257.979
255.601
253.142
250.626
248.074
245.5
242.916
240.325
237.727
235.11
232.465
229.785
227.069
224.303
221.482
218.589
215.612
212.525
209.303
205.911
202.313
198.457
194.235
189.404
183.113
170.649
127.698
275.886
275.594
275.268
274.872
274.074
273.935
273.303
272.554
271.663
270.606
269.362
267.917
266.271
264.437
262.438
260.299
258.036
255.669
253.222
250.721
248.184
245.629
243.065
240.497
237.923
235.333
232.718
230.075
227.397
224.679
221.911
219.083
216.182
213.193
210.089
206.846
203.428
199.795
195.895
191.607
186.661
180.077
166.275
122.477
275.887
275.605
275.235
274.86
274.392
273.352
273.308
272.56
271.672
270.617
269.376
267.936
266.295
264.467
262.475
260.344
258.09
255.732
253.297
250.808
248.286
245.746
243.201
240.654
238.103
235.537
232.951
230.339
227.698
225.019
222.299
219.526
216.691
213.78
210.777
207.655
204.389
200.942
197.273
193.325
188.966
183.889
176.962
161.596
117.406
275.888
275.615
275.263
274.799
274.373
273.82
272.481
272.566
271.679
270.628
269.39
267.953
266.317
264.495
262.509
260.385
258.139
255.791
253.366
250.888
248.379
245.854
243.325
240.797
238.267
235.725
233.163
230.581
227.971
225.33
222.65
219.927
217.148
214.304
211.381
208.363
205.222
201.931
198.454
194.746
190.746
186.307
181.079
173.752
156.59
112.736
275.888
275.618
275.29
274.852
274.271
273.791
273.139
271.44
271.686
270.637
269.404
267.97
266.338
264.521
262.541
260.423
258.185
255.846
253.43
250.963
248.465
245.953
243.439
240.928
238.417
235.897
233.359
230.802
228.222
225.613
222.972
220.29
217.561
214.775
211.921
208.985
205.95
202.788
199.471
195.961
192.211
188.154
183.626
178.224
170.421
151.271
108.747
275.888
275.619
275.297
274.904
274.36
273.637
273.096
272.328
270.213
270.646
269.415
267.987
266.358
264.546
262.571
260.46
258.229
255.897
253.489
251.032
248.545
246.045
243.544
241.047
238.554
236.054
233.539
231.006
228.451
225.873
223.265
220.622
217.935
215.2
212.405
209.54
206.59
203.536
200.352
197.007
193.462
189.667
185.546
180.918
175.313
166.925
145.729
105.957
275.888
275.62
275.302
274.918
274.447
273.772
272.875
272.269
271.364
268.822
269.426
268
266.379
264.569
262.6
260.494
258.269
255.944
253.545
251.096
248.619
246.13
243.64
241.158
238.68
236.197
233.702
231.192
228.663
226.111
223.534
220.924
218.277
215.586
212.843
210.037
207.16
204.194
201.121
197.912
194.537
190.954
187.11
182.92
178.177
172.336
163.212
140.17
104.282
275.888
275.621
275.304
274.928
274.472
273.906
273.072
271.966
271.287
270.227
267.296
268.014
266.395
264.593
262.627
260.527
258.308
255.99
253.598
251.157
248.688
246.209
243.73
241.26
238.796
236.329
233.852
231.363
228.857
226.33
223.78
221.202
218.589
215.938
213.24
210.488
207.671
204.779
201.796
198.702
195.467
192.06
188.436
184.539
180.271
175.397
169.277
159.243
134.784
103.195
275.888
275.621
275.305
274.932
274.488
273.944
273.265
272.238
270.893
270.13
268.9
265.683
266.412
264.611
262.654
260.557
258.344
256.032
253.647
251.214
248.753
246.283
243.814
241.354
238.903
236.45
233.989
231.519
229.034
226.531
224.007
221.456
218.876
216.26
213.602
210.896
208.134
205.304
202.397
199.395
196.278
193.016
189.574
185.907
181.95
177.595
172.569
166.121
154.99
129.55
102.391
275.889
275.622
275.306
274.934
274.495
273.97
273.32
272.505
271.252
269.647
268.782
267.379
264.023
264.633
262.676
260.588
258.379
256.073
253.694
251.267
248.814
246.352
243.892
241.443
239.002
236.562
234.116
231.662
229.196
226.715
224.215
221.691
219.138
216.555
213.934
211.269
208.553
205.779
202.935
200.012
196.989
193.848
190.557
187.077
183.362
179.34
174.886
169.684
162.849
150.434
124.432
101.782
275.889
275.622
275.307
274.936
274.499
273.98
273.358
272.581
271.604
270.1
268.239
267.242
265.676
262.344
262.703
260.613
258.414
256.111
253.738
251.318
248.872
246.417
243.966
241.525
239.095
236.666
234.233
231.793
229.345
226.883
224.405
221.906
219.381
216.826
214.237
211.61
208.936
206.21
203.423
200.564
197.622
194.578
191.411
188.087
184.568
180.8
176.706
172.138
166.73
159.416
145.56
119.482
101.323
275.889
275.622
275.308
274.937
274.501
273.986
273.373
272.634
271.706
270.541
268.776
266.691
265.522
263.814
260.656
260.647
258.441
256.15
253.781
251.366
248.927
246.479
244.035
241.603
239.181
236.763
234.342
231.915
229.482
227.038
224.579
222.102
219.603
217.075
214.516
211.922
209.286
206.603
203.865
201.064
198.188
195.227
192.16
188.965
185.607
182.043
178.218
174.041
169.344
163.693
155.761
140.368
114.782
100.958
275.926
275.625
275.308
274.939
274.504
273.989
273.381
272.654
271.776
270.673
269.3
267.291
265.03
263.646
261.824
258.959
258.484
256.18
253.823
251.412
248.979
246.537
244.101
241.676
239.263
236.854
234.443
232.028
229.608
227.18
224.739
222.283
219.806
217.304
214.774
212.209
209.608
206.963
204.269
201.517
198.701
195.808
192.826
189.734
186.508
183.113
179.501
175.612
171.342
166.494
160.555
151.832
134.896
110.454
100.611
276.09
275.748
275.313
274.94
274.506
273.994
273.386
272.665
271.802
270.762
269.464
267.873
265.661
263.279
261.643
259.732
257.247
256.232
253.856
251.459
249.029
246.593
244.163
241.745
239.34
236.939
234.538
232.134
229.726
227.311
224.886
222.448
219.992
217.514
215.01
212.474
209.903
207.293
204.638
201.931
199.166
196.333
193.42
190.416
187.297
184.039
180.603
176.939
172.978
168.602
163.577
157.297
147.591
129.269
106.687
100.317
276.071
276.245
275.538
274.948
274.508
273.997
273.391
272.671
271.817
270.796
269.572
268.068
266.264
263.908
261.452
259.535
257.557
255.513
253.917
251.494
249.078
246.646
244.222
241.811
239.413
237.02
234.627
232.233
229.836
227.433
225.022
222.6
220.163
217.706
215.226
212.717
210.175
207.596
204.977
202.31
199.591
196.809
193.959
191.026
187.997
184.85
181.556
178.075
174.352
170.31
165.811
160.579
153.877
143.019
123.731
103.698
100.12
275.973
276.198
276.391
275.293
274.519
274
273.396
272.679
271.826
270.815
269.615
268.194
266.49
264.492
262.052
259.558
257.332
255.322
253.748
251.566
249.117
246.7
244.279
241.874
239.482
237.097
234.712
232.326
229.939
227.547
225.149
222.741
220.32
217.882
215.424
212.939
210.425
207.876
205.288
202.658
199.979
197.245
194.447
191.578
188.622
185.567
182.389
179.057
175.526
171.738
167.603
162.962
157.485
150.229
138.111
118.454
101.862
100.02
275.938
275.909
276.318
276.527
275.006
274.016
273.4
272.686
271.836
270.826
269.638
268.246
266.628
264.743
262.582
260.109
257.602
255.063
253.054
251.944
249.2
246.741
244.336
241.934
239.549
237.17
234.792
232.415
230.036
227.654
225.267
222.872
220.465
218.045
215.605
213.143
210.654
208.133
205.576
202.978
200.336
197.643
194.893
192.078
189.187
186.208
183.125
179.913
176.538
172.953
169.091
164.85
160.043
154.274
146.296
132.879
113.487
101.036
99.9935
275.927
275.807
275.84
276.432
276.656
274.668
273.421
272.691
271.844
270.839
269.652
268.275
266.689
264.887
262.85
260.558
258.099
255.572
252.753
250.778
250.092
246.836
244.379
241.994
239.612
237.239
234.868
232.499
230.128
227.755
225.378
222.994
220.601
218.194
215.773
213.33
210.864
208.368
205.839
203.272
200.663
198.009
195.301
192.534
189.7
186.787
183.782
180.669
177.419
173.998
170.352
166.405
162.042
157.04
150.912
142.029
127.372
109.039
100.59
100.009
275.919
275.776
275.673
275.763
276.541
276.776
274.27
272.718
271.852
270.85
269.669
268.292
266.723
264.956
262.995
260.837
258.44
256.022
253.467
250.426
248.511
248.185
244.486
242.04
239.675
237.306
234.941
232.578
230.215
227.85
225.482
223.109
220.727
218.334
215.927
213.502
211.056
208.584
206.081
203.543
200.966
198.345
195.676
192.953
190.168
187.312
184.376
181.343
178.197
174.906
171.432
167.717
163.674
159.168
153.935
147.338
137.401
121.769
105.368
100.316
100.055
275.915
275.754
275.621
275.531
275.679
276.646
276.887
273.798
271.886
270.859
269.683
268.312
266.742
264.995
263.071
260.977
258.721
256.246
253.882
251.314
248.098
246.265
246.21
242.158
239.724
237.372
235.011
232.654
230.298
227.941
225.582
223.217
220.846
218.465
216.071
213.661
211.233
208.782
206.303
203.791
201.244
198.655
196.02
193.336
190.596
187.791
184.914
181.952
178.889
175.706
172.37
168.837
165.043
160.889
156.217
150.709
143.489
132.415
116.438
102.649
100.177
100.133
275.912
275.743
275.586
275.459
275.381
275.584
276.745
276.987
273.238
270.902
269.694
268.329
266.766
265.017
263.113
261.058
258.852
256.52
253.998
251.701
249.136
245.786
244.038
244.156
239.854
237.423
235.081
232.727
230.378
228.028
225.676
223.32
220.958
218.587
216.205
213.81
211.397
208.964
206.506
204.019
201.498
198.94
196.338
193.689
190.989
188.23
185.405
182.503
179.513
176.417
173.195
169.807
166.209
162.324
158.041
153.171
147.319
139.314
127.128
111.553
101.089
100.162
100.186
275.91
275.735
275.569
275.413
275.289
275.221
275.477
276.84
277.074
272.572
269.747
268.342
266.786
265.044
263.138
261.104
258.937
256.637
254.261
251.718
249.501
246.949
243.496
241.826
242.033
237.565
235.134
232.8
230.453
228.111
225.766
223.418
221.064
218.703
216.332
213.948
211.55
209.132
206.693
204.228
201.732
199.201
196.63
194.015
191.35
188.633
185.854
183.006
180.079
177.059
173.926
170.659
167.214
163.54
159.551
155.117
150.014
143.702
134.776
121.664
107.19
100.453
100.172
100.209
275.908
275.729
275.555
275.389
275.232
275.109
275.047
275.357
276.928
277.144
271.782
268.405
266.801
265.067
263.168
261.131
258.986
256.725
254.36
251.964
249.428
247.3
244.761
241.231
239.625
239.861
235.287
232.855
230.53
228.189
225.852
223.511
221.165
218.812
216.451
214.079
211.692
209.289
206.866
204.42
201.946
199.44
196.898
194.314
191.684
189.003
186.266
183.467
180.594
177.639
174.585
171.413
168.095
164.586
160.824
156.715
152.103
146.713
139.793
129.865
116.271
103.744
100.225
100.197
100.217
275.906
275.724
275.546
275.37
275.201
275.04
274.915
274.857
275.221
277.008
277.192
270.851
266.876
265.085
263.194
261.164
259.014
256.775
254.447
252.044
249.653
247.144
245.107
242.576
238.983
237.437
237.658
233.019
230.587
228.269
225.933
223.6
221.262
218.917
216.564
214.202
211.826
209.436
207.027
204.597
202.143
199.66
197.143
194.588
191.991
189.345
186.646
183.889
181.066
178.167
175.181
172.09
168.873
165.499
161.915
158.054
153.802
148.979
143.213
135.542
124.627
111.274
101.511
100.164
100.213
100.22
275.905
275.719
275.537
275.357
275.177
275.002
274.834
274.705
274.65
275.066
277.079
277.212
269.768
265.171
263.213
261.192
259.049
256.805
254.498
252.13
249.712
247.344
244.879
242.925
240.393
236.749
235.258
235.429
230.763
228.329
226.016
223.685
221.354
219.017
216.672
214.318
211.953
209.573
207.178
204.763
202.325
199.862
197.368
194.84
192.272
189.659
186.996
184.277
181.499
178.651
175.723
172.703
169.572
166.304
162.865
159.196
155.217
150.799
145.72
139.447
130.909
119.219
106.882
100.556
100.168
100.219
100.219
275.904
275.716
275.529
275.344
275.16
274.973
274.79
274.613
274.476
274.421
274.89
277.137
277.196
268.528
263.31
261.214
259.08
256.842
254.529
252.181
249.794
247.382
245.05
242.635
240.747
238.208
234.527
233.089
233.176
228.515
226.078
223.77
221.442
219.112
216.775
214.43
212.073
209.704
207.319
204.917
202.495
200.049
197.576
195.071
192.529
189.947
187.317
184.636
181.897
179.094
176.22
173.26
170.202
167.025
163.7
160.187
156.419
152.303
147.687
142.271
135.354
125.899
113.958
103.391
100.25
100.176
100.222
100.21
275.904
275.713
275.523
275.332
275.143
274.952
274.756
274.562
274.373
274.225
274.168
274.691
277.182
277.136
267.137
261.321
259.103
256.875
254.568
252.211
249.845
247.458
245.065
242.778
240.406
238.568
236.015
232.317
230.926
230.902
226.276
223.834
221.53
219.203
216.874
214.536
212.188
209.827
207.453
205.063
202.654
200.223
197.767
195.284
192.766
190.211
187.612
184.965
182.264
179.502
176.674
173.77
170.776
167.675
164.447
161.056
157.458
153.574
149.296
144.437
138.567
130.886
120.607
109.144
101.251
100.181
100.191
100.225
100.196
275.904
275.712
275.519
275.324
275.128
274.931
274.731
274.522
274.315
274.112
273.95
273.889
274.466
277.208
277.027
265.607
259.22
256.899
254.603
252.252
249.875
247.508
245.136
242.772
240.525
238.188
236.389
233.817
230.118
228.768
228.608
224.044
221.597
219.295
216.968
214.638
212.297
209.946
207.581
205.201
202.803
200.386
197.946
195.48
192.984
190.453
187.882
185.267
182.601
179.879
177.093
174.236
171.299
168.266
165.118
161.831
158.365
154.667
150.647
146.178
140.997
134.543
126.024
115.284
105.035
100.419
100.17
100.199
100.227
100.183
275.904
275.711
275.516
275.318
275.117
274.912
274.705
274.493
274.27
274.046
273.825
273.647
273.581
274.216
277.214
276.865
263.951
257.024
254.628
252.288
249.918
247.538
245.183
242.835
240.501
238.285
235.98
234.211
231.615
227.931
226.612
226.297
221.817
219.363
217.063
214.734
212.402
210.058
207.702
205.331
202.944
200.539
198.113
195.663
193.185
190.676
188.131
185.544
182.911
180.224
177.478
174.666
171.779
168.805
165.728
162.527
159.172
155.619
151.804
147.624
142.915
137.3
130.149
120.834
110.326
102.076
100.207
100.177
100.202
100.227
100.173
275.904
275.711
275.515
275.314
275.109
274.898
274.682
274.462
274.235
273.994
273.751
273.511
273.316
273.247
273.943
277.198
276.648
262.173
254.759
252.314
249.953
247.58
245.212
242.879
240.557
238.245
236.056
233.782
232.033
229.408
225.752
224.456
223.97
219.595
217.133
214.832
212.502
210.166
207.818
205.456
203.079
200.684
198.27
195.834
193.372
190.882
188.359
185.798
183.194
180.541
177.833
175.061
172.219
169.298
166.283
163.157
159.895
156.462
152.808
148.856
144.483
139.451
133.284
125.358
115.551
105.965
100.611
100.172
100.185
100.203
100.226
100.162
275.904
275.711
275.514
275.312
275.103
274.888
274.665
274.435
274.2
273.955
273.694
273.429
273.168
272.957
272.889
273.653
277.162
276.381
260.282
252.449
249.98
247.616
245.254
242.907
240.598
238.294
236.001
233.838
231.594
229.854
227.197
223.582
222.297
221.627
217.377
214.905
212.603
210.269
207.929
205.575
203.207
200.822
198.418
195.995
193.547
191.074
188.57
186.033
183.455
180.832
178.158
175.425
172.625
169.751
166.791
163.731
160.549
157.216
153.693
149.918
145.803
141.186
135.721
128.896
120.231
110.583
102.582
100.237
100.177
100.185
100.202
100.224
100.15
275.904
275.711
275.515
275.311
275.1
274.881
274.652
274.415
274.167
273.914
273.649
273.365
273.078
272.797
272.574
272.516
273.357
277.108
276.065
258.288
250.116
247.644
245.29
242.949
240.624
238.333
236.043
233.768
231.63
229.413
227.673
224.982
221.419
220.132
219.271
215.161
212.678
210.373
208.035
205.689
203.329
200.953
198.56
196.147
193.712
191.253
188.767
186.249
183.695
181.099
178.455
175.758
172.998
170.168
167.258
164.255
161.143
157.896
154.482
150.852
146.936
142.623
137.669
131.664
124.112
115.008
106.151
100.756
100.17
100.18
100.185
100.203
100.224
100.134
275.904
275.712
275.515
275.312
275.099
274.877
274.644
274.399
274.143
273.876
273.601
273.314
273.006
272.697
272.401
272.175
272.14
273.067
277.041
275.703
256.202
247.779
245.318
242.985
240.667
238.358
236.079
233.803
231.547
229.431
227.24
225.491
222.764
219.26
217.96
216.903
212.945
210.45
208.142
205.798
203.447
201.079
198.695
196.292
193.868
191.422
188.95
186.45
183.916
181.345
178.729
176.063
173.34
170.551
167.687
164.736
161.685
158.513
155.192
151.682
147.928
143.843
139.266
133.871
127.228
119.012
110.095
102.632
100.242
100.172
100.18
100.184
100.203
100.224
100.113
275.904
275.712
275.516
275.313
275.1
274.875
274.639
274.388
274.125
273.848
273.558
273.26
272.949
272.618
272.292
271.989
271.772
271.774
272.793
276.967
275.297
254.027
245.451
243.013
240.702
238.401
236.102
233.836
231.574
229.336
227.241
225.071
223.305
220.543
217.104
215.778
214.524
210.73
208.221
205.909
203.558
201.2
198.824
196.43
194.017
191.582
189.123
186.638
184.122
181.571
178.981
176.343
173.653
170.902
168.081
165.178
162.182
159.075
155.835
152.427
148.805
144.902
140.604
135.669
129.732
122.405
113.863
105.705
100.733
100.166
100.173
100.179
100.185
100.205
100.223
100.088
275.904
275.712
275.516
275.313
275.101
274.876
274.637
274.382
274.112
273.826
273.526
273.21
272.887
272.554
272.205
271.869
271.572
271.379
271.43
272.544
276.889
274.847
251.762
243.142
240.731
238.436
236.145
233.857
231.603
229.356
227.135
225.058
222.905
221.116
218.318
214.95
213.584
212.136
208.514
205.99
203.672
201.314
198.947
196.562
194.159
191.734
189.287
186.815
184.315
181.782
179.213
176.602
173.941
171.224
168.442
165.584
162.638
159.59
156.419
153.099
149.589
145.835
141.751
137.161
131.769
125.206
117.311
109.043
102.278
100.231
100.161
100.172
100.179
100.186
100.206
100.222
100.068
275.904
275.711
275.515
275.313
275.102
274.877
274.637
274.38
274.105
273.811
273.5
273.173
272.831
272.485
272.133
271.774
271.442
271.164
271.008
271.116
272.321
276.81
274.352
249.413
240.856
238.465
236.18
233.9
231.623
229.381
227.146
224.942
222.88
220.741
218.921
216.091
212.796
211.377
209.739
206.297
203.755
201.431
199.065
196.689
194.294
191.879
189.443
186.983
184.496
181.979
179.429
176.84
174.206
171.519
168.772
165.955
163.057
160.062
156.954
153.709
150.296
146.667
142.753
138.429
133.453
127.509
120.311
112.26
104.78
100.576
100.162
100.163
100.172
100.179
100.187
100.207
100.219
100.048
275.903
275.71
275.514
275.312
275.102
274.878
274.638
274.38
274.102
273.803
273.482
273.143
272.788
272.422
272.057
271.695
271.338
271.023
270.778
270.669
270.836
272.124
276.731
273.81
247.034
238.585
236.209
233.934
231.665
229.397
227.167
224.944
222.756
220.708
218.577
216.721
213.861
210.639
209.155
207.334
204.077
201.516
199.185
196.81
194.424
192.018
189.592
187.142
184.667
182.165
179.631
177.061
174.45
171.791
169.076
166.295
163.44
160.495
157.444
154.266
150.936
147.413
143.641
139.524
134.872
129.417
122.861
115.22
107.573
101.666
100.203
100.157
100.163
100.172
100.18
100.188
100.207
100.216
100.027
275.903
275.709
275.512
275.311
275.1
274.878
274.64
274.382
274.102
273.799
273.472
273.123
272.754
272.373
271.986
271.61
271.251
270.91
270.626
270.423
270.366
270.59
271.951
276.652
273.217
244.68
236.325
233.963
231.699
229.439
227.181
224.961
222.749
220.576
218.538
216.412
214.513
211.628
208.478
206.917
204.924
201.853
199.273
196.933
194.548
192.152
189.734
187.294
184.831
182.34
179.821
177.268
174.677
172.041
169.355
166.608
163.79
160.89
157.892
154.777
151.519
148.087
144.434
140.485
136.09
131.02
125.005
117.889
110.304
103.544
100.385
100.158
100.157
100.163
100.172
100.18
100.188
100.207
100.213
100.004
275.902
275.707
275.51
275.308
275.098
274.876
274.639
274.383
274.103
273.799
273.467
273.11
272.731
272.335
271.932
271.533
271.159
270.815
270.503
270.259
270.105
270.098
270.374
271.8
276.573
272.57
242.341
234.075
231.728
229.472
227.221
224.972
222.762
220.56
218.401
216.369
214.242
212.298
209.391
206.311
204.664
202.508
199.626
197.023
194.675
192.279
189.871
187.44
184.987
182.508
180.001
177.463
174.889
172.274
169.612
166.895
164.112
161.252
158.302
155.243
152.052
148.7
145.148
141.338
137.149
132.389
126.814
120.213
112.852
105.819
100.998
100.169
100.156
100.158
100.164
100.173
100.18
100.188
100.208
100.208
99.9789
275.902
275.705
275.507
275.304
275.094
274.873
274.637
274.382
274.105
273.8
273.467
273.105
272.717
272.308
271.888
271.473
271.075
270.716
270.4
270.128
269.929
269.822
269.864
270.186
271.667
276.495
271.867
239.981
231.835
229.501
227.254
225.011
222.77
220.568
218.376
216.228
214.2
212.068
210.075
207.151
204.136
202.394
200.087
197.395
194.767
192.408
190.001
187.58
185.136
182.667
180.172
177.647
175.088
172.492
169.851
167.16
164.408
161.584
158.676
155.668
152.538
149.26
145.797
142.102
138.083
133.573
128.361
122.221
115.189
108.11
102.224
100.241
100.153
100.156
100.158
100.164
100.172
100.179
100.19
100.208
100.202
99.9539
275.901
275.703
275.504
275.3
275.089
274.868
274.632
274.379
274.103
273.801
273.468
273.104
272.71
272.291
271.858
271.425
271.009
270.626
270.294
270.017
269.789
269.636
269.574
269.659
270.022
271.551
276.417
271.109
237.581
229.603
227.283
225.044
222.807
220.573
218.379
216.195
214.058
212.03
209.887
207.842
204.907
201.95
200.109
197.656
195.159
192.503
190.134
187.714
185.28
182.82
180.336
177.822
175.277
172.696
170.075
167.405
164.68
161.89
159.02
156.057
152.981
149.769
146.386
142.791
138.913
134.61
129.695
123.956
117.304
110.292
103.924
100.481
100.141
100.152
100.157
100.159
100.164
100.171
100.18
100.191
100.208
100.195
99.929
275.9
275.701
275.5
275.295
275.083
274.861
274.626
274.373
274.099
273.799
273.469
273.105
272.708
272.283
271.838
271.39
270.956
270.554
270.198
269.904
269.669
269.487
269.378
269.356
269.48
269.878
271.448
276.339
270.293
235.146
227.379
225.072
222.839
220.608
218.38
216.193
214.016
211.888
209.857
207.698
205.6
202.659
199.752
197.81
195.216
192.918
190.23
187.85
185.416
182.967
180.492
177.99
175.457
172.89
170.285
167.635
164.933
162.171
159.336
156.413
153.386
150.232
146.922
143.417
139.656
135.525
130.857
125.457
119.178
112.324
105.79
101.097
100.147
100.143
100.152
100.157
100.159
100.163
100.171
100.18
100.193
100.207
100.184
99.905
275.899
275.698
275.496
275.289
275.076
274.853
274.617
274.365
274.091
273.793
273.466
273.106
272.709
272.281
271.828
271.368
270.917
270.495
270.121
269.802
269.55
269.359
269.22
269.151
269.165
269.322
269.751
271.357
276.259
269.413
232.684
225.163
222.867
220.639
218.413
216.19
214.009
211.838
209.716
207.68
205.5
203.348
200.406
197.539
195.496
192.774
190.671
187.949
185.556
183.107
180.643
178.15
175.628
173.074
170.483
167.85
165.169
162.432
159.626
156.741
153.757
150.655
147.409
143.984
140.327
136.341
131.88
126.766
120.833
114.191
107.625
102.135
100.214
100.126
100.143
100.153
100.157
100.158
100.163
100.171
100.181
100.195
100.207
100.166
99.8819
275.898
275.695
275.491
275.283
275.068
274.844
274.607
274.354
274.081
273.784
273.459
273.101
272.709
272.28
271.825
271.355
270.891
270.452
270.056
269.718
269.442
269.233
269.084
268.984
268.951
268.997
269.183
269.64
271.278
276.178
268.464
230.205
222.952
220.667
218.443
216.221
214.002
211.826
209.661