/*--------------------------------*- C++ -*----------------------------------*\
| =========                 |                                                 |
| \\      /  F ield         | OpenFOAM: The Open Source CFD Toolbox           |
|  \\    /   O peration     | Version:  v2012                                 |
|   \\  /    A nd           | Website:  www.openfoam.com                      |
|    \\/     M anipulation  |                                                 |
\*---------------------------------------------------------------------------*/
FoamFile
{
    version     2.0;
    format      ascii;
    class       volScalarField;
    location    "2000";
    object      TuM;
}
// * * * * * * * * * * * * * * * * * * * * * * * * * * * * * * * * * * * * * //

dimensions      [0 0 0 0 0 0 0];


internalField   nonuniform List<scalar> 
31383
(
0.00378802
0.00399746
0.00152623
0.00385382
0.00227385
0.00120945
0.00374323
0.00218138
0.00454696
0.00175197
0.00366023
0.00210989
0.00434463
0.00862021
0.00272199
0.00359218
0.00205634
0.00418771
0.00823346
0.0140745
0.00399876
0.00353393
0.00201248
0.00407023
0.00793351
0.0134414
0.0209412
0.00558606
0.00348412
0.00197509
0.00397404
0.00770897
0.0129505
0.0199985
0.0293273
0.00752356
0.00344139
0.00194305
0.00389223
0.00752515
0.012583
0.0192675
0.02801
0.0393318
0.00986987
0.0034038
0.00191559
0.003822
0.00736884
0.0122822
0.0187203
0.026988
0.0375791
0.0509587
0.0126992
0.00337067
0.00189157
0.00376181
0.00723462
0.0120264
0.0182723
0.0262228
0.0362181
0.0487289
0.0640062
0.0160992
0.00334064
0.00187031
0.00370936
0.0071196
0.0118068
0.0178914
0.0255962
0.035198
0.0469937
0.0612991
0.0779833
0.0201642
0.00331357
0.00185099
0.0036628
0.0070194
0.0116186
0.0175643
0.0250634
0.0343623
0.0456909
0.0591836
0.074859
0.0921602
0.0249684
0.00328891
0.00183354
0.00362038
0.00693045
0.0114547
0.0172841
0.0246058
0.0336515
0.0446225
0.0575908
0.0724001
0.0887253
0.105753
0.0305627
0.00326656
0.00181758
0.003582
0.0068494
0.0113092
0.0170399
0.0242137
0.0330408
0.043713
0.0562822
0.0705416
0.0860007
0.102134
0.118164
0.0369098
0.00324623
0.0018032
0.00354685
0.00677604
0.0111765
0.0168232
0.023872
0.0325171
0.0429307
0.0551666
0.069011
0.0839343
0.099242
0.114469
0.129106
0.0438039
0.003228
0.00179015
0.00351525
0.00670889
0.0110566
0.0166257
0.0235687
0.0320608
0.0422595
0.0542054
0.0677029
0.0822265
0.0970412
0.111498
0.125402
0.138597
0.0511204
0.00321135
0.00177843
0.00348661
0.0066485
0.0109467
0.0164472
0.0232925
0.0316558
0.0416743
0.0533796
0.066575
0.0807619
0.0952159
0.10923
0.12241
0.1349
0.146714
0.0586248
0.00319633
0.0017678
0.00346089
0.0065938
0.0108479
0.0162836
0.0230425
0.0312867
0.0411548
0.0526592
0.0656027
0.0795006
0.0936468
0.107345
0.120121
0.131906
0.14305
0.153551
0.0661809
0.00318259
0.0017582
0.00343766
0.00654466
0.0107584
0.0161365
0.0228136
0.0309528
0.0406813
0.0520193
0.0647536
0.0784073
0.0922949
0.105722
0.118217
0.129613
0.14008
0.14994
0.15924
0.0736343
0.00317013
0.00174948
0.00341662
0.00650028
0.0106781
0.0160032
0.0226079
0.0306472
0.0402529
0.0514358
0.0639991
0.0774512
0.0911183
0.104321
0.116575
0.127705
0.137801
0.147007
0.155693
0.163931
0.0806211
0.0031588
0.00174159
0.00339766
0.00646008
0.0106055
0.0158835
0.0224214
0.0303723
0.0398608
0.0509084
0.0633104
0.0766028
0.0900863
0.103098
0.115157
0.126061
0.135906
0.144755
0.152804
0.160452
0.167776
0.0870557
0.00314853
0.00173444
0.0033805
0.00642388
0.0105397
0.0157755
0.022254
0.0301232
0.039508
0.0504252
0.0626899
0.0758268
0.0891746
0.102024
0.113917
0.124644
0.134272
0.142883
0.150583
0.157608
0.16437
0.170918
0.0929437
0.00313916
0.00172796
0.00336497
0.0063911
0.0104805
0.0156776
0.0221027
0.0298994
0.0391883
0.0499903
0.0621202
0.0751295
0.0883388
0.101079
0.112827
0.123405
0.132863
0.141268
0.148739
0.155421
0.161568
0.16759
0.173483
0.0982221
0.0031306
0.00172208
0.00335092
0.00636146
0.0104269
0.0155894
0.0219657
0.0296972
0.0389008
0.0495958
0.0616069
0.0744884
0.0875891
0.100211
0.11187
0.122315
0.13163
0.139875
0.147148
0.153607
0.159414
0.164826
0.170245
0.175581
0.102836
0.0031227
0.0017167
0.0033382
0.00633465
0.0103784
0.0155096
0.0218423
0.0295141
0.0386411
0.0492407
0.0611406
0.0739103
0.0868999
0.0994345
0.110994
0.121359
0.130546
0.138656
0.145775
0.152041
0.157628
0.162702
0.167514
0.17245
0.177302
0.106743
0.00311543
0.00171174
0.00332656
0.00631037
0.0103346
0.0154375
0.0217305
0.029349
0.0384057
0.04892
0.0607211
0.0733837
0.0862776
0.098722
0.110209
0.120488
0.129594
0.137582
0.144575
0.150689
0.156088
0.160942
0.165418
0.169749
0.1743
0.17872
0.109937
0.00310871
0.00170718
0.00331582
0.00628815
0.0102949
0.0153722
0.0216295
0.0291997
0.0381934
0.048629
0.0603411
0.0729112
0.0857097
0.0980775
0.109492
0.119708
0.128731
0.136641
0.143515
0.149509
0.154756
0.159426
0.16368
0.167675
0.171625
0.175871
0.179888
0.11243
0.00310248
0.00170297
0.00330597
0.00626765
0.0102585
0.015313
0.021538
0.0290645
0.0380013
0.0483664
0.059996
0.0724812
0.0852004
0.0974883
0.108843
0.118997
0.127959
0.135791
0.142587
0.148466
0.153594
0.158113
0.162184
0.165957
0.169572
0.173218
0.177206
0.180842
0.114227
0.00309667
0.00169908
0.0032969
0.00624887
0.010225
0.0152589
0.0214553
0.0289421
0.0378273
0.0481285
0.0596845
0.0720908
0.084735
0.0969595
0.108248
0.118352
0.127257
0.135032
0.141752
0.147551
0.152568
0.156968
0.160888
0.164478
0.167869
0.171183
0.174575
0.178338
0.181608
0.115288
0.00309126
0.00169548
0.00328852
0.00623156
0.0101943
0.015209
0.0213795
0.0288314
0.0376699
0.047913
0.0594022
0.0717374
0.0843127
0.0964749
0.107714
0.117763
0.126621
0.134343
0.141008
0.146733
0.151666
0.155955
0.159757
0.163196
0.166404
0.169495
0.172557
0.175732
0.179298
0.182202
0.11545
0.00308622
0.00169213
0.00328077
0.00621556
0.010166
0.0151632
0.0213096
0.02873
0.0375273
0.047718
0.059146
0.0714164
0.0839292
0.0960349
0.107224
0.117232
0.126039
0.133718
0.140335
0.146004
0.150863
0.155068
0.158757
0.162076
0.165134
0.168041
0.170882
0.17373
0.176716
0.180108
0.18264
0.114337
0.00308151
0.00168902
0.00327361
0.00620078
0.0101398
0.0151211
0.0212455
0.0286364
0.0373967
0.0475411
0.0589139
0.0711251
0.0835808
0.0956346
0.106778
0.116744
0.125515
0.133147
0.139724
0.145346
0.150149
0.154277
0.157881
0.161087
0.164025
0.166782
0.169439
0.172067
0.174732
0.177554
0.180787
0.182933
0.111654
0.0030771
0.00168614
0.00326699
0.00618712
0.0101156
0.0150821
0.0211865
0.0285507
0.0372762
0.0473792
0.0587033
0.0708608
0.0832636
0.0952703
0.106372
0.1163
0.125031
0.132632
0.139166
0.144749
0.149506
0.153576
0.157101
0.16022
0.163044
0.16568
0.168189
0.170635
0.173081
0.175586
0.178265
0.18135
0.183088
0.10782
0.00307293
0.00168345
0.00326087
0.00617451
0.0100933
0.0150461
0.0211319
0.0284716
0.0371658
0.0472297
0.0585104
0.0706209
0.0829754
0.094938
0.106001
0.115894
0.124592
0.132156
0.138661
0.144203
0.148922
0.152946
0.156412
0.159451
0.162185
0.164707
0.167095
0.169394
0.171659
0.173947
0.176315
0.178865
0.181809
0.18311
0.103107
0.00306898
0.0016809
0.00325514
0.00616282
0.0100727
0.0150128
0.0210815
0.0283986
0.0370639
0.0470927
0.0583323
0.0704008
0.0827136
0.0946353
0.105663
0.115523
0.124189
0.131724
0.138195
0.14371
0.148389
0.152374
0.155793
0.158771
0.161423
0.163854
0.166129
0.168307
0.170426
0.172535
0.174689
0.176935
0.179367
0.182173
0.183004
0.0976788
0.00306501
0.00167851
0.00324976
0.00615192
0.0100536
0.0149821
0.021035
0.0283312
0.0369698
0.0469663
0.058169
0.0701977
0.0824732
0.0943603
0.105353
0.115184
0.123819
0.131326
0.137771
0.143254
0.147905
0.151852
0.155232
0.158161
0.160751
0.163099
0.165282
0.167347
0.169346
0.171311
0.173286
0.175321
0.177458
0.179782
0.182446
0.182774
0.0915376
0.00306182
0.00167607
0.0032447
0.00614165
0.0100357
0.0149537
0.0209919
0.0282688
0.0368829
0.0468494
0.0580182
0.0700113
0.0822511
0.0941073
0.105072
0.114874
0.123481
0.130961
0.137379
0.142839
0.147459
0.151378
0.154718
0.157608
0.160149
0.162432
0.164531
0.166504
0.168391
0.170238
0.17207
0.173928
0.175858
0.177897
0.180119
0.182632
0.182409
0.084657
0.00306518
0.00167414
0.00323952
0.006132
0.0100189
0.0149271
0.0209521
0.0282111
0.0368024
0.0467414
0.0578788
0.0698391
0.0820472
0.0938734
0.104813
0.114591
0.123172
0.130626
0.13702
0.142454
0.147052
0.15094
0.154253
0.157102
0.159602
0.161836
0.163871
0.165759
0.167554
0.169289
0.171004
0.17272
0.174476
0.176312
0.17826
0.180383
0.182732
0.181897
0.0770024
0.00389729
0.00167171
0.00323547
0.00612213
0.0100032
0.0149021
0.0209148
0.0281578
0.0367281
0.0466415
0.0577499
0.0696796
0.0818587
0.0936587
0.104574
0.114331
0.122889
0.13032
0.13669
0.142101
0.146675
0.150541
0.153823
0.156644
0.159103
0.161294
0.16328
0.165103
0.166813
0.168455
0.17006
0.171662
0.173277
0.174942
0.176692
0.178555
0.180576
0.182742
0.181198
0.0685542
0.00310969
0.00314642
0.00322318
0.00611442
0.00998705
0.0148786
0.0208798
0.0281079
0.0366592
0.046549
0.0576302
0.069532
0.081684
0.0934601
0.104355
0.11409
0.122629
0.130039
0.136387
0.141776
0.146328
0.15017
0.153429
0.156219
0.15865
0.1608
0.162743
0.164516
0.166161
0.167719
0.169231
0.170723
0.172226
0.173751
0.175333
0.177005
0.178786
0.180704
0.182657
0.180259
0.0593517
0.00312748
0.00181206
0.00725749
0.00609004
0.00997445
0.0148546
0.0208469
0.0280609
0.0365948
0.0464632
0.0575193
0.0693949
0.081522
0.0932756
0.104151
0.113869
0.122389
0.12978
0.13611
0.141479
0.146008
0.149829
0.153064
0.155832
0.158231
0.160352
0.162253
0.163984
0.165578
0.167071
0.168499
0.169899
0.171293
0.172708
0.174153
0.17566
0.177256
0.178957
0.180766
0.18247
0.179006
0.0495509
0.00340038
0.00187691
0.00365018
0.0135491
0.00993442
0.0148358
0.0208132
0.0280167
0.0365342
0.0463831
0.0574166
0.0692676
0.0813715
0.0931044
0.103962
0.113664
0.122167
0.129542
0.135855
0.141205
0.145715
0.149513
0.152728
0.155471
0.157847
0.159937
0.161809
0.163498
0.16505
0.166492
0.167854
0.169171
0.170473
0.171781
0.173118
0.17449
0.175926
0.177451
0.17907
0.180759
0.182167
0.177333
0.0395258
0.00326209
0.00237564
0.00387059
0.00688937
0.0217267
0.014776
0.0207869
0.0279716
0.0364771
0.0463074
0.0573204
0.0691493
0.0812316
0.0929448
0.103786
0.113473
0.121962
0.129322
0.135619
0.140953
0.145445
0.149225
0.152417
0.155139
0.157491
0.159557
0.161397
0.163058
0.164568
0.165968
0.167279
0.168529
0.169748
0.170966
0.172198
0.173464
0.174769
0.176138
0.177592
0.179126
0.180683
0.181732
0.175093
0.0299605
0.00308402
0.00215761
0.00530777
0.00732795
0.011199
0.031814
0.0207029
0.0279364
0.0364187
0.0462364
0.0572295
0.0690385
0.0811009
0.0927966
0.103621
0.113295
0.121771
0.129118
0.135401
0.14072
0.145197
0.148959
0.152132
0.154832
0.157162
0.159204
0.16102
0.16265
0.164131
0.165488
0.166758
0.167957
0.169111
0.170245
0.171388
0.172551
0.173752
0.174994
0.176298
0.17768
0.179123
0.18053
0.181146
0.172078
0.0217904
0.00305699
0.00184346
0.00467062
0.0100869
0.0119182
0.0166111
0.0438446
0.0278229
0.0363731
0.0461631
0.0571441
0.0689339
0.0809783
0.0926575
0.103468
0.113129
0.121592
0.128928
0.135199
0.140506
0.144968
0.148714
0.151869
0.15455
0.156858
0.158878
0.160671
0.162276
0.163726
0.165055
0.166282
0.167439
0.168542
0.16961
0.170671
0.171746
0.172847
0.173988
0.175168
0.176408
0.177716
0.179061
0.180292
0.180384
0.168003
0.0157974
0.00302819
0.00180455
0.00373934
0.00881765
0.0163948
0.0176533
0.0232301
0.0576975
0.0362244
0.0461063
0.0570566
0.068835
0.0808623
0.0925265
0.103324
0.112973
0.121424
0.128749
0.135011
0.140306
0.144756
0.148488
0.151627
0.15429
0.156578
0.158576
0.160346
0.161929
0.163355
0.164652
0.165851
0.166967
0.168027
0.169045
0.17004
0.171033
0.172048
0.173092
0.174175
0.175296
0.176469
0.177698
0.178934
0.17996
0.179411
0.162511
0.0120734
0.00302362
0.00165978
0.00361436
0.00700351
0.0142735
0.0242513
0.0246036
0.0311607
0.0728954
0.0459169
0.0569885
0.0687339
0.0807529
0.0924023
0.103188
0.112826
0.121267
0.128582
0.134834
0.14012
0.144559
0.148279
0.151403
0.15405
0.15632
0.158298
0.160047
0.161607
0.16301
0.164283
0.165451
0.166539
0.167558
0.168534
0.169477
0.170406
0.17134
0.172299
0.173288
0.174315
0.175376
0.176481
0.177626
0.178738
0.179518
0.17816
0.155274
0.0102169
0.0030223
0.00165148
0.00319811
0.00674594
0.0112983
0.0210526
0.0337172
0.0328403
0.0404571
0.0884808
0.0567539
0.068656
0.0806407
0.0922852
0.103058
0.112688
0.121119
0.128425
0.134668
0.139945
0.144375
0.148084
0.151197
0.153829
0.156083
0.158042
0.159772
0.16131
0.16269
0.163941
0.165085
0.166141
0.167132
0.168067
0.16897
0.169848
0.170717
0.171596
0.172503
0.17344
0.174411
0.17541
0.176443
0.177495
0.178464
0.178947
0.176537
0.146229
0.00952127
0.00302102
0.00165041
0.00317764
0.00602948
0.0108592
0.0166304
0.0292229
0.0447862
0.0423854
0.051047
0.103234
0.0683746
0.0805545
0.0921649
0.102936
0.112555
0.120978
0.128276
0.134511
0.139781
0.144202
0.147903
0.151005
0.153624
0.155863
0.157806
0.159517
0.161036
0.162394
0.163624
0.164744
0.165777
0.166738
0.167644
0.168506
0.169343
0.170162
0.170977
0.171806
0.172662
0.173548
0.174463
0.175397
0.176353
0.1773
0.178103
0.178223
0.174398
0.135453
0.00931766
0.00301902
0.00164955
0.00317246
0.00598968
0.00981993
0.0159607
0.023071
0.0388229
0.0572468
0.0531432
0.0626517
0.116195
0.0802281
0.0920731
0.102811
0.11243
0.120844
0.128134
0.134363
0.139625
0.144039
0.147732
0.150825
0.153434
0.155661
0.157588
0.159283
0.160783
0.162122
0.163329
0.164428
0.165439
0.166375
0.167252
0.168086
0.168883
0.169661
0.170425
0.171191
0.171971
0.17278
0.173614
0.174472
0.175337
0.176206
0.177035
0.177642
0.177317
0.171565
0.122965
0.00927434
0.00301744
0.00164823
0.00316924
0.00597629
0.0097525
0.0145887
0.0221254
0.0307046
0.0497653
0.0705526
0.064808
0.0747611
0.127017
0.0917069
0.102716
0.112301
0.120716
0.127999
0.134221
0.139477
0.143885
0.14757
0.150656
0.153256
0.155472
0.157387
0.159066
0.16055
0.161871
0.163059
0.164137
0.165125
0.166039
0.166892
0.167696
0.168465
0.169204
0.169928
0.170644
0.171362
0.172097
0.172857
0.173638
0.174434
0.175225
0.175998
0.176689
0.177061
0.176191
0.167819
0.108847
0.00927416
0.00301613
0.00164716
0.00316506
0.00596842
0.00972632
0.0144846
0.0204225
0.0294526
0.0395884
0.061729
0.0838462
0.0768481
0.0867319
0.135841
0.102316
0.112204
0.120585
0.12787
0.134085
0.139336
0.143738
0.147418
0.150497
0.153088
0.155295
0.157199
0.158865
0.160334
0.161639
0.162809
0.163868
0.164834
0.165727
0.166558
0.167339
0.168079
0.168789
0.169476
0.170151
0.17082
0.171493
0.172182
0.172893
0.17362
0.17435
0.175058
0.175722
0.176253
0.176341
0.174777
0.162892
0.0931986
0.00928349
0.00301515
0.00164632
0.00316137
0.00595876
0.00971134
0.0144407
0.0202724
0.0274294
0.0380241
0.0496907
0.0741253
0.0962626
0.0886345
0.0979753
0.143007
0.111776
0.120488
0.127738
0.133956
0.1392
0.143598
0.147271
0.150345
0.15293
0.155129
0.157024
0.158679
0.160134
0.161424
0.162578
0.163619
0.164567
0.165438
0.166248
0.167007
0.167724
0.168406
0.169064
0.169703
0.170332
0.170956
0.171585
0.172229
0.172889
0.173557
0.174215
0.174831
0.17537
0.175712
0.175454
0.172965
0.156466
0.0761914
0.00929475
0.00301216
0.00164566
0.00315862
0.00594995
0.00969349
0.0144159
0.0202054
0.0272239
0.0357
0.047833
0.0608063
0.0862512
0.107276
0.0996195
0.1081
0.14886
0.120034
0.12764
0.133823
0.139071
0.143462
0.147132
0.1502
0.152779
0.154971
0.156859
0.158504
0.159949
0.161226
0.162364
0.163388
0.164319
0.165172
0.165961
0.166699
0.167394
0.168053
0.168684
0.169294
0.169887
0.170473
0.171054
0.171639
0.172236
0.172842
0.173446
0.174024
0.174536
0.17493
0.175047
0.174364
0.170585
0.148207
0.058328
0.00930654
0.00277742
0.00164407
0.00315657
0.0059435
0.00967697
0.014387
0.0201682
0.0271287
0.0354314
0.0452506
0.0587058
0.0725129
0.0975433
0.116771
0.109464
0.116962
0.153688
0.127165
0.133726
0.138938
0.143334
0.146997
0.150061
0.152635
0.154822
0.156702
0.15834
0.159775
0.161041
0.162167
0.163175
0.16409
0.164925
0.165696
0.166413
0.167088
0.167726
0.168334
0.168917
0.169483
0.170033
0.170577
0.171115
0.171655
0.172202
0.172751
0.173285
0.173773
0.174166
0.17439
0.174236
0.173028
0.167403
0.137905
0.0408201
0.00931646
0.00119905
0.00148119
0.00315318
0.00593885
0.00966497
0.0143599
0.0201252
0.0270763
0.0353036
0.0449154
0.0559477
0.0702602
0.0842382
0.107708
0.124875
0.118066
0.124619
0.157712
0.133232
0.138841
0.143201
0.146869
0.149926
0.152497
0.154679
0.156554
0.158185
0.159612
0.160869
0.161983
0.162979
0.163878
0.164697
0.165451
0.16615
0.166804
0.167422
0.168009
0.16857
0.16911
0.169633
0.170142
0.170644
0.171138
0.171632
0.172126
0.172612
0.173068
0.173455
0.173709
0.173733
0.173249
0.171366
0.163129
0.12569
0.0257531
0.00932303
0.000646851
0.000878683
0.00277412
0.00593182
0.00965648
0.0143403
0.0200845
0.0270161
0.0352338
0.0447527
0.0555501
0.0674488
0.0819472
0.0954121
0.11667
0.131788
0.125514
0.131161
0.161101
0.138331
0.143105
0.146736
0.149799
0.152364
0.154541
0.156411
0.158037
0.159458
0.160706
0.161811
0.162796
0.163683
0.164487
0.165224
0.165906
0.166543
0.16714
0.167707
0.168248
0.168766
0.169264
0.169747
0.170215
0.170675
0.171124
0.171568
0.172004
0.172422
0.172789
0.173059
0.173152
0.172936
0.17205
0.169252
0.157418
0.111602
0.0150857
0.00932622
0.000686357
0.000401322
0.00199207
0.00520254
0.0096443
0.0143267
0.0200554
0.0269592
0.0351539
0.0446646
0.055355
0.0670033
0.0792183
0.0931879
0.105616
0.124463
0.137705
0.131867
0.136687
0.163981
0.142581
0.146641
0.149666
0.152236
0.154408
0.156274
0.157895
0.15931
0.160552
0.161649
0.162625
0.1635
0.164292
0.165014
0.16568
0.1663
0.16688
0.167428
0.16795
0.168448
0.168925
0.169382
0.169826
0.170253
0.170669
0.17107
0.171461
0.171835
0.172174
0.172441
0.172576
0.172479
0.171973
0.170592
0.166485
0.149863
0.0954386
0.00896306
0.00932742
0.000603061
0.000351929
0.000841848
0.00377018
0.00844381
0.0143078
0.0200353
0.0269182
0.0350779
0.0445638
0.0552495
0.0667834
0.0787484
0.0906544
0.103531
0.114644
0.131171
0.142786
0.137217
0.141322
0.166448
0.146107
0.149571
0.152104
0.154281
0.156142
0.157759
0.159169
0.160405
0.161496
0.162464
0.16333
0.16411
0.16482
0.165471
0.166075
0.16664
0.16717
0.167673
0.168151
0.168609
0.169047
0.169466
0.169869
0.170254
0.170624
0.170975
0.171307
0.171611
0.171862
0.172013
0.171991
0.171668
0.170811
0.168797
0.162777
0.14001
0.0772244
0.00613763
0.00932747
0.00056197
0.000319849
0.000628854
0.0015849
0.00610267
0.0125031
0.0200077
0.0268902
0.0350236
0.0444677
0.0551289
0.0666648
0.0785159
0.0901861
0.101257
0.112735
0.122491
0.136919
0.147189
0.141685
0.145206
0.168576
0.149031
0.15201
0.154149
0.156015
0.157626
0.159033
0.160265
0.16135
0.162312
0.16317
0.163941
0.16464
0.165278
0.165868
0.166417
0.166931
0.167416
0.167876
0.168316
0.168736
0.169135
0.169515
0.169877
0.170218
0.17054
0.170836
0.171104
0.171328
0.171478
0.171495
0.171287
0.170694
0.169408
0.166535
0.157746
0.127645
0.0577634
0.00514663
0.00932665
0.00053948
0.000308784
0.000595896
0.00117354
0.002563
0.00900134
0.0174469
0.0268525
0.0349865
0.0443992
0.0550137
0.0665286
0.0783906
0.0899539
0.10081
0.110734
0.12077
0.129245
0.141867
0.150919
0.145397
0.148475
0.170416
0.151464
0.154055
0.155883
0.1575
0.158902
0.16013
0.161211
0.162167
0.163018
0.163782
0.164471
0.165099
0.165675
0.16621
0.166709
0.167179
0.167623
0.168044
0.168446
0.168828
0.169189
0.169529
0.169849
0.170144
0.170413
0.170648
0.170843
0.170978
0.171011
0.170872
0.170445
0.169526
0.167708
0.163602
0.15094
0.113254
0.0389043
0.00487915
0.00932495
0.000526691
0.000300352
0.000595219
0.00111706
0.00190372
0.00377961
0.0125108
0.0233621
0.0349373
0.0443524
0.0549319
0.066398
0.0782447
0.0898286
0.10059
0.110321
0.119015
0.127708
0.134988
0.146081
0.15403
0.148479
0.151256
0.172009
0.153506
0.155789
0.157368
0.158775
0.159998
0.161076
0.162028
0.162874
0.163631
0.164312
0.164931
0.165496
0.166018
0.166504
0.166959
0.167388
0.167793
0.168177
0.168542
0.168887
0.169209
0.169509
0.169783
0.170028
0.170239
0.170406
0.17052
0.170552
0.170449
0.170126
0.169436
0.16812
0.165616
0.159698
0.141911
0.0966296
0.0233081
0.00481785
0.00932395
0.00052423
0.000295049
0.000585743
0.00111889
0.00181347
0.00282101
0.00525501
0.0166932
0.0303285
0.0442905
0.0548758
0.0663055
0.0781068
0.0896814
0.100471
0.110118
0.118638
0.126179
0.133614
0.139832
0.149626
0.156613
0.151049
0.153653
0.173365
0.155237
0.157275
0.158644
0.159873
0.160945
0.161894
0.162736
0.163488
0.164163
0.164773
0.165329
0.16584
0.166313
0.166755
0.167169
0.167561
0.167929
0.168277
0.168606
0.168912
0.169195
0.169451
0.169677
0.169867
0.170014
0.170106
0.170126
0.170038
0.169777
0.169235
0.16823
0.166426
0.162972
0.154411
0.130167
0.0776106
0.0128499
0.00480573
0.00932383
0.000527458
0.000293868
0.000578477
0.0011022
0.00181693
0.0026875
0.00394427
0.00701994
0.0216161
0.0383789
0.0548015
0.0662422
0.0780076
0.0895432
0.100329
0.11001
0.118456
0.12584
0.132285
0.138587
0.143885
0.152591
0.15876
0.153212
0.155743
0.174488
0.156719
0.15855
0.159742
0.16082
0.161763
0.162602
0.16335
0.16402
0.164625
0.165173
0.165674
0.166137
0.166566
0.166967
0.167344
0.167699
0.168031
0.168344
0.168636
0.168904
0.169145
0.169354
0.169528
0.169657
0.169733
0.169738
0.169651
0.169424
0.168976
0.168173
0.166783
0.164366
0.159531
0.147189
0.115856
0.0570597
0.00705139
0.00480323
0.00932401
0.000535802
0.000295391
0.000576493
0.00108905
0.00179028
0.00269251
0.00375679
0.00530179
0.0091131
0.0273356
0.0474422
0.0661576
0.0779401
0.0894433
0.100197
0.109876
0.118358
0.125678
0.131982
0.137425
0.142744
0.147265
0.155078
0.160551
0.155055
0.157576
0.175401
0.157992
0.159648
0.160689
0.161638
0.162472
0.163217
0.163883
0.164483
0.165025
0.165519
0.165972
0.166391
0.166779
0.167143
0.167484
0.167804
0.168102
0.168379
0.168633
0.168861
0.169057
0.169215
0.169331
0.169393
0.169388
0.169294
0.169083
0.168693
0.168022
0.166904
0.165045
0.1618
0.15492
0.137447
0.0992393
0.0372991
0.00440666
0.00480267
0.00932435
0.000547315
0.000299538
0.000579052
0.00108539
0.00176911
0.00265346
0.00376321
0.00504759
0.00692949
0.0115802
0.0338695
0.0572855
0.0778494
0.0893754
0.100101
0.109754
0.118234
0.125591
0.13184
0.137155
0.141715
0.146203
0.150092
0.157183
0.162055
0.156642
0.159198
0.176129
0.159086
0.160595
0.161508
0.162348
0.163088
0.163752
0.164347
0.164884
0.165372
0.165817
0.166227
0.166605
0.166957
0.167285
0.167592
0.167878
0.168142
0.168381
0.168596
0.16878
0.168927
0.169031
0.169082
0.169068
0.168971
0.168762
0.168406
0.167823
0.166886
0.165386
0.162941
0.158505
0.148638
0.124928
0.0799037
0.0214482
0.00350015
0.00480263
0.00932495
0.00055946
0.000305331
0.00058637
0.00109023
0.00176328
0.00262234
0.00370925
0.00505499
0.00659321
0.00886942
0.0144695
0.0411562
0.0674939
0.0892828
0.100035
0.109666
0.118122
0.125477
0.131763
0.137031
0.141473
0.145279
0.149082
0.152475
0.158984
0.163326
0.158018
0.160642
0.176697
0.16003
0.161414
0.162217
0.162964
0.163622
0.164216
0.164749
0.165232
0.165672
0.166073
0.166443
0.166784
0.167101
0.167395
0.167669
0.16792
0.168148
0.16835
0.168522
0.16866
0.168754
0.168796
0.168775
0.168675
0.168471
0.168131
0.167603
0.16679
0.165532
0.163565
0.160333
0.154143
0.14007
0.109837
0.0585833
0.0112149
0.00327188
0.00480269
0.00932573
0.000569898
0.000311309
0.000596678
0.00110399
0.00177131
0.00261389
0.0036661
0.00498338
0.00660064
0.00843241
0.0111669
0.0178269
0.0490222
0.07753
0.0999439
0.109603
0.118042
0.125376
0.13166
0.136964
0.141364
0.145059
0.14824
0.151492
0.154508
0.160541
0.164405
0.159217
0.161938
0.177124
0.160844
0.162123
0.162833
0.163499
0.164088
0.164619
0.165099
0.165533
0.165928
0.16629
0.166623
0.166929
0.167213
0.167475
0.167715
0.167932
0.168122
0.168283
0.16841
0.168496
0.168531
0.168504
0.168401
0.168202
0.167876
0.167381
0.166651
0.165561
0.163914
0.161361
0.157007
0.14822
0.12863
0.0920317
0.0378715
0.00577772
0.00322486
0.00480271
0.0093267
0.000578442
0.000316249
0.000607038
0.00112331
0.00179381
0.00262609
0.00365464
0.00492596
0.00650838
0.00843812
0.0106066
0.0138645
0.0216832
0.0571794
0.0868475
0.109515
0.117982
0.125304
0.13157
0.13687
0.141306
0.144963
0.148034
0.150709
0.153531
0.156266
0.161889
0.165317
0.160266
0.163105
0.177421
0.161549
0.16274
0.163369
0.163965
0.164492
0.164969
0.1654
0.165791
0.166147
0.166472
0.16677
0.167043
0.167294
0.167523
0.167729
0.16791
0.16806
0.168177
0.168256
0.168285
0.168254
0.16815
0.167953
0.16764
0.167172
0.166494
0.165521
0.164097
0.161973
0.15863
0.152623
0.140096
0.11429
0.0713159
0.021248
0.00341694
0.00321627
0.00480277
0.00932769
0.000585398
0.000320043
0.000615225
0.00114263
0.00182527
0.00265976
0.00367217
0.00491108
0.00643417
0.00832191
0.0106075
0.0131541
0.0169911
0.026036
0.0652819
0.0949957
0.117899
0.125249
0.131506
0.136792
0.141221
0.144912
0.147949
0.150511
0.152787
0.155276
0.157793
0.16306
0.166083
0.161192
0.164163
0.1776
0.16216
0.163275
0.163835
0.164369
0.164843
0.165272
0.165659
0.166011
0.16633
0.166621
0.166886
0.167127
0.167346
0.16754
0.167712
0.167853
0.167962
0.168031
0.168054
0.168021
0.167916
0.167722
0.167419
0.166974
0.166338
0.165443
0.164179
0.162348
0.159617
0.155145
0.146681
0.129084
0.097452
0.0491882
0.0106433
0.00266538
0.00321485
0.00480291
0.00932866
0.000591363
0.000322996
0.000621006
0.00115785
0.00185665
0.00270652
0.00371971
0.00493537
0.00641546
0.00822815
0.0104639
0.013145
0.0160991
0.0205451
0.0308269
0.0730203
0.101646
0.12517
0.131455
0.136735
0.141153
0.144835
0.147903
0.150434
0.152592
0.154557
0.156785
0.159128
0.164077
0.166721
0.162016
0.165124
0.177671
0.162691
0.163741
0.16424
0.164721
0.165147
0.165532
0.165881
0.166196
0.16648
0.166739
0.166971
0.167181
0.167366
0.167527
0.16766
0.167761
0.167823
0.167839
0.167802
0.167697
0.167508
0.167214
0.166786
0.166186
0.165353
0.164198
0.162581
0.16025
0.156687
0.150548
0.138519
0.115097
0.077386
0.02927
0.00517616
0.00249573
0.00321468
0.0048031
0.00932969
0.00059708
0.000325521
0.000625206
0.00116851
0.00188136
0.00275306
0.00378527
0.00499992
0.0064482
0.00820518
0.0103475
0.0129703
0.0160717
0.0194361
0.0244763
0.0359392
0.0801866
0.106998
0.131381
0.136687
0.141102
0.144776
0.147832
0.150392
0.152518
0.154359
0.156081
0.158094
0.1603
0.164963
0.167249
0.162753
0.165998
0.177645
0.163151
0.164147
0.164592
0.165026
0.165409
0.165755
0.166067
0.166347
0.166599
0.166825
0.167026
0.167203
0.167355
0.167479
0.167573
0.167629
0.16764
0.167598
0.167492
0.167307
0.167021
0.16661
0.166038
0.165256
0.164188
0.16272
0.160672
0.157689
0.152929
0.144313
0.127432
0.098511
0.0548321
0.0149936
0.00288713
0.00246498
0.00321473
0.00480325
0.00933094
0.000603554
0.000328149
0.000628764
0.00117619
0.00189864
0.00278969
0.00385034
0.0050882
0.00653338
0.00824826
0.0103197
0.0128281
0.0158624
0.0193771
0.0231131
0.0286766
0.0411957
0.0866912
0.11133
0.136618
0.141056
0.144728
0.14778
0.150325
0.152479
0.154285
0.155878
0.157398
0.159237
0.161338
0.165733
0.16768
0.16342
0.166792
0.177529
0.163551
0.164499
0.164898
0.165288
0.165632
0.165943
0.16622
0.166468
0.166689
0.166883
0.167052
0.167195
0.167311
0.167397
0.167446
0.167453
0.167408
0.167301
0.167117
0.166839
0.166443
0.165896
0.165155
0.164157
0.162807
0.160959
0.158373
0.154482
0.147947
0.135746
0.113314
0.0785214
0.0333627
0.00700002
0.00219721
0.0024601
0.00321475
0.00480348
0.00933229
0.000611812
0.000331108
0.000632937
0.00118268
0.00191107
0.00281529
0.00390151
0.00517557
0.0066488
0.00835816
0.0103752
0.0127945
0.015691
0.0191303
0.0230036
0.0270244
0.0329964
0.0464161
0.0925415
0.114852
0.140993
0.144685
0.147736
0.150277
0.152415
0.154247
0.155801
0.157187
0.158539
0.160241
0.16226
0.166404
0.168027
0.164027
0.167509
0.177333
0.163896
0.164804
0.165161
0.165513
0.165821
0.166098
0.166343
0.16656
0.166749
0.166911
0.167047
0.167155
0.167233
0.167276
0.167278
0.16723
0.167121
0.16694
0.166669
0.166285
0.16576
0.165054
0.164113
0.162859
0.161168
0.158853
0.155545
0.15033
0.141161
0.124164
0.0964855
0.0556338
0.0171856
0.00337133
0.00205519
0.00245943
0.00321482
0.00480362
0.00933382
0.000622384
0.000335629
0.000637591
0.00119038
0.00192154
0.00283366
0.00393724
0.00524417
0.00676258
0.00850551
0.010514
0.0128639
0.0156498
0.0189266
0.022717
0.0268408
0.0310293
0.0372834
0.0514698
0.0978048
0.117745
0.144626
0.147694
0.150238
0.152371
0.154186
0.155763
0.157105
0.158318
0.159536
0.161126
0.163085
0.166987
0.168302
0.164585
0.168154
0.177063
0.164194
0.165067
0.165387
0.165703
0.165977
0.166222
0.166436
0.166622
0.166779
0.166909
0.16701
0.16708
0.167116
0.167113
0.167063
0.166954
0.166774
0.166507
0.166135
0.165629
0.164955
0.164062
0.162883
0.161319
0.159212
0.156297
0.151964
0.144781
0.131832
0.109511
0.0760355
0.0335153
0.00783562
0.00210275
0.00203211
0.00245937
0.00321486
0.00480379
0.00933567
0.000635584
0.000341507
0.000646272
0.00119896
0.00193399
0.00284911
0.00396284
0.00529201
0.0068518
0.00865006
0.010698
0.0130355
0.0157337
0.0188746
0.0224779
0.026513
0.0307456
0.034991
0.0414941
0.0562952
0.102565
0.120159
0.14764
0.150198
0.152335
0.154143
0.155703
0.157067
0.15823
0.159301
0.160409
0.161914
0.163826
0.167492
0.168514
0.1651
0.168726
0.176726
0.16445
0.165292
0.165578
0.165861
0.166103
0.166317
0.1665
0.166654
0.166779
0.166874
0.166939
0.166969
0.16696
0.166905
0.166795
0.166617
0.166356
0.165992
0.165504
0.164856
0.164006
0.162892
0.161428
0.159488
0.156863
0.153118
0.147276
0.13719
0.119425
0.0919735
0.052613
0.0168792
0.00354428
0.00180826
0.00202883
0.00245938
0.00321487
0.00480395
0.00933764
0.000651392
0.000348973
0.000657713
0.00121526
0.00194787
0.00286749
0.00398429
0.00532618
0.00691385
0.00876315
0.0108774
0.01326
0.0159403
0.0189715
0.0224103
0.0262363
0.0303762
0.0345834
0.0388138
0.045599
0.0608862
0.106905
0.122216
0.150144
0.152296
0.15411
0.155664
0.157008
0.15819
0.159205
0.16016
0.16118
0.162619
0.164496
0.167927
0.168673
0.165579
0.169225
0.176331
0.164668
0.165483
0.165737
0.165988
0.1662
0.166383
0.166535
0.166657
0.166748
0.166807
0.166832
0.166817
0.166758
0.166646
0.16647
0.166213
0.165858
0.165383
0.164759
0.163945
0.162888
0.16151
0.159702
0.1573
0.153981
0.149036
0.140949
0.12679
0.103972
0.0705657
0.0304977
0.00744649
0.00199872
0.00175979
0.00202843
0.00245941
0.00321491
0.00480427
0.00933948
0.000669547