/*--------------------------------*- C++ -*----------------------------------*\
| =========                 |                                                 |
| \\      /  F ield         | OpenFOAM: The Open Source CFD Toolbox           |
|  \\    /   O peration     | Version:  v2012                                 |
|   \\  /    A nd           | Website:  www.openfoam.com                      |
|    \\/     M anipulation  |                                                 |
\*---------------------------------------------------------------------------*/
FoamFile
{
    version     2.0;
    format      ascii;
    class       volVectorField;
    location    "2000";
    object      U;
}
// * * * * * * * * * * * * * * * * * * * * * * * * * * * * * * * * * * * * * //

dimensions      [0 1 -1 0 0 0 0];


internalField   nonuniform List<vector> 
31383
(
(4.93355 0.00669091 0)
(5.1998 5.57493e-06 0)
(14.739 0.0200651 0)
(5.01214 1.16595e-06 0)
(15.672 3.91579e-06 0)
(24.6015 0.0335404 0)
(4.86954 -5.09318e-06 0)
(15.106 5.99662e-06 0)
(26.3449 1.62784e-06 0)
(34.6372 0.047254 0)
(4.76358 1.23881e-06 0)
(14.6759 -6.21466e-06 0)
(25.3926 1.51907e-05 0)
(37.3491 -3.90169e-06 0)
(45.0068 0.0613415 0)
(4.67723 6.4486e-06 0)
(14.3563 4.65008e-06 0)
(24.6692 -3.55356e-06 0)
(35.9979 2.93515e-05 0)
(48.8179 -1.33511e-05 0)
(55.8957 0.0759359 0)
(4.60361 3.65058e-06 0)
(14.0959 1.57023e-05 0)
(24.1316 9.60768e-06 0)
(34.9714 2.05205e-06 0)
(47.05 4.92237e-05 0)
(60.8846 -2.77696e-05 0)
(67.2732 0.0911639 0)
(4.54062 -2.20754e-06 0)
(13.8738 9.59488e-06 0)
(23.6935 2.37331e-05 0)
(34.2087 1.7087e-05 0)
(45.7073 1.14017e-05 0)
(58.6778 7.57702e-05 0)
(73.6736 -4.89715e-05 0)
(79.2577 0.107147 0)
(4.48661 -5.25717e-06 0)
(13.6839 -2.46069e-06 0)
(23.32 1.55385e-05 0)
(33.587 3.38305e-05 0)
(44.7095 2.73878e-05 0)
(57.0023 2.46499e-05 0)
(71.0028 0.000110417 0)
(87.2805 -7.88414e-05 0)
(91.9086 0.123998 0)
(4.43911 -3.02637e-06 0)
(13.521 -9.56235e-06 0)
(23.0004 -9.2425e-08 0)
(33.0571 2.34346e-05 0)
(43.8963 4.63958e-05 0)
(55.7572 4.10042e-05 0)
(68.9759 4.2597e-05 0)
(84.1221 0.000154811 0)
(101.742 -0.000120326 0)
(105.405 0.141818 0)
(4.39713 1.02791e-06 0)
(13.3777 -4.11008e-06 0)
(22.7264 -9.49777e-06 0)
(32.6038 4.3459e-06 0)
(43.2031 3.369e-05 0)
(54.7423 6.19983e-05 0)
(67.4693 5.85703e-05 0)
(81.7258 6.62019e-05 0)
(98.0764 0.0002111 0)
(117 -0.000177788 0)
(119.882 0.160666 0)
(4.35903 3.83642e-06 0)
(13.2511 3.6401e-06 0)
(22.4855 -2.77973e-06 0)
(32.2151 -6.97576e-06 0)
(42.6101 1.07654e-05 0)
(53.8772 4.6745e-05 0)
(66.2412 8.12445e-05 0)
(79.944 8.08645e-05 0)
(95.2993 9.65803e-05 0)
(112.809 0.000282086 0)
(132.802 -0.000253831 0)
(136.27 0.180568 0)
(4.32476 4.34418e-06 0)
(13.1362 9.67936e-06 0)
(22.2725 7.24809e-06 0)
(31.8732 3.10735e-07 0)
(42.1017 -2.90952e-06 0)
(53.1372 1.96711e-05 0)
(65.1944 6.31646e-05 0)
(78.4915 0.000104926 0)
(93.2328 0.000108851 0)
(109.653 0.000134926 0)
(128.133 0.000370829 0)
(148.832 -0.00034296 0)
(153.689 0.201555 0)
(4.29341 3.43414e-06 0)
(13.0328 1.07431e-05 0)
(22.0792 1.51268e-05 0)
(31.5711 1.26012e-05 0)
(41.6545 5.59549e-06 0)
(52.5027 2.74539e-06 0)
(64.2989 3.1569e-05 0)
(77.253 8.36452e-05 0)
(91.5476 0.000133898 0)
(107.302 0.000143593 0)
(124.624 0.00018265 0)
(143.741 0.000479886 0)
(164.735 -0.000434383 0)
(171.926 0.223788 0)
(4.26501 1.80153e-06 0)
(12.9383 8.86617e-06 0)
(21.9054 1.64836e-05 0)
(31.2969 2.21556e-05 0)
(41.2593 1.98742e-05 0)
(51.9446 1.30154e-05 0)
(63.5312 1.1761e-05 0)
(76.1936 4.70311e-05 0)
(90.1101 0.00010894 0)
(105.383 0.000169139 0)
(121.997 0.000186239 0)
(139.917 0.00024097 0)
(159.281 0.000611701 0)
(180.211 -0.000511196 0)
(192.033 0.247115 0)
(4.23918 5.79053e-07 0)
(12.8527 5.29081e-06 0)
(21.7464 1.41137e-05 0)
(31.0502 2.37739e-05 0)
(40.9007 3.10451e-05 0)
(51.4514 2.93941e-05 0)
(62.8557 2.30808e-05 0)
(75.2852 2.40368e-05 0)
(88.8803 6.67649e-05 0)
(103.75 0.00014008 0)
(119.855 0.000211565 0)
(137.045 0.000237915 0)
(155.19 0.000311078 0)
(174.449 0.00076716 0)
(195.123 -0.000551937 0)
(211.728 0.271607 0)
(4.21599 1.60976e-07 0)
(12.7748 2.44793e-06 0)
(21.6023 9.31823e-06 0)
(30.8247 2.0908e-05 0)
(40.5781 3.28843e-05 0)
(51.0039 4.21508e-05 0)
(62.2589 4.15481e-05 0)
(74.4859 3.62886e-05 0)
(87.8258 4.02175e-05 0)
(102.344 9.16036e-05 0)
(118.044 0.000177868 0)
(134.703 0.000262088 0)
(152.112 0.000299572 0)
(170.138 0.000394305 0)
(189.078 0.000949803 0)
(209.463 -0.000494483 0)
(231.351 0.297426 0)
(4.19481 9.37906e-08 0)
(12.7048 1.25797e-06 0)
(21.4713 5.60357e-06 0)
(30.6204 1.49431e-05 0)
(40.2831 2.95438e-05 0)
(50.6013 4.42013e-05 0)
(61.7173 5.59567e-05 0)
(73.7796 5.68676e-05 0)
(86.8974 5.32607e-05 0)
(101.141 6.10133e-05 0)
(116.46 0.000122527 0)
(132.722 0.000223253 0)
(149.6 0.000321871 0)
(166.89 0.000372235 0)
(184.575 0.000492183 0)
(203.138 0.00114615 0)
(223.191 -0.000359011 0)
(250.588 0.324594 0)
(4.17571 1.45926e-07 0)
(12.641 1.03631e-06 0)
(21.3537 3.97579e-06 0)
(30.4345 1.03228e-05 0)
(40.0158 2.23697e-05 0)
(50.2333 4.03716e-05 0)
(61.2301 5.81196e-05 0)
(73.1388 7.2816e-05 0)
(86.0772 7.59278e-05 0)
(100.082 7.46836e-05 0)
(115.115 8.71666e-05 0)
(130.988 0.000160427 0)
(147.472 0.00027718 0)
(164.235 0.00039175 0)
(181.175 0.000457263 0)
(198.459 0.000606751 0)
(216.6 0.00133905 0)
(236.247 -0.000154003 0)
(268.938 0.353293 0)
(4.15824 1.61083e-07 0)
(12.5834 1.13485e-06 0)
(21.2463 3.58576e-06 0)
(30.2677 8.17313e-06 0)
(39.7728 1.67875e-05 0)
(49.8998 3.18856e-05 0)
(60.7848 5.3747e-05 0)
(72.5623 7.51974e-05 0)
(85.3348 9.36349e-05 0)
(99.147 9.93348e-05 0)
(113.932 0.000101395 0)
(129.512 0.000119385 0)
(145.612 0.000205918 0)
(161.987 0.000340351 0)
(178.39 0.000472888 0)
(194.922 0.000556408 0)
(211.767 0.000740329 0)
(229.408 0.00152965 0)
(248.623 0.000121884 0)
(286.111 0.383739 0)
(4.14237 1.41884e-07 0)
(12.5307 1.19069e-06 0)
(21.1494 3.67247e-06 0)
(30.1153 7.54522e-06 0)
(39.5546 1.40957e-05 0)
(49.5965 2.52596e-05 0)
(60.3813 4.38326e-05 0)
(72.0354 7.01698e-05 0)
(84.6631 9.6005e-05 0)
(98.3084 0.000118855 0)
(112.883 0.000127859 0)
(128.22 0.000133996 0)
(144.023 0.000158442 0)
(160.022 0.000259802 0)
(176.038 0.000413744 0)
(192.023 0.000566977 0)
(208.117 0.000671419 0)
(224.452 0.000895238 0)
(241.547 0.00173277 0)
(260.333 0.000477608 0)
(302.042 0.416154 0)
(4.12793 5.60454e-08 0)
(12.4828 1.13737e-06 0)
(21.0608 3.68421e-06 0)
(29.978 7.58768e-06 0)
(39.3554 1.31817e-05 0)
(49.3243 2.19585e-05 0)
(60.0143 3.6109e-05 0)
(71.5579 5.8742e-05 0)
(84.0511 9.02878e-05 0)
(97.5343 0.000121358 0)
(111.946 0.000149117 0)
(127.063 0.000162373 0)
(142.634 0.000173243 0)
(158.341 0.000205123 0)
(173.99 0.000322962 0)
(189.576 0.000498581 0)
(205.123 0.000675449 0)
(220.703 0.000804282 0)
(236.482 0.00107411 0)
(253.019 0.0019536 0)
(271.409 0.000923451 0)
(316.968 0.45071 0)
(4.11485 2.56163e-07 0)
(12.4393 9.38686e-07 0)
(20.9804 3.56794e-06 0)
(29.8523 7.53914e-06 0)
(39.1757 1.30904e-05 0)
(49.0757 2.0677e-05 0)
(59.6849 3.20665e-05 0)
(71.1237 4.97704e-05 0)
(83.4966 7.70965e-05 0)
(96.8364 0.000114683 0)
(111.079 0.000151948 0)
(126.035 0.000185547 0)
(141.388 0.000203615 0)
(156.87 0.000219854 0)
(172.23 0.000260195 0)
(187.451 0.000396443 0)
(202.594 0.000596683 0)
(217.628 0.000800267 0)
(232.648 0.000957497 0)
(247.858 0.00128024 0)
(263.852 0.00219857 0)
(281.895 0.00147721 0)
(331.106 0.48751 0)
(4.10294 8.38457e-07 0)
(12.3999 1.51153e-06 0)
(20.9072 3.23587e-06 0)
(29.7381 7.31108e-06 0)
(39.0113 1.28824e-05 0)
(48.8515 2.03818e-05 0)
(59.384 3.0337e-05 0)
(70.7338 4.48611e-05 0)
(82.9922 6.66003e-05 0)
(96.2039 9.95466e-05 0)
(110.298 0.000144147 0)
(125.087 0.000188568 0)
(140.282 0.000228302 0)
(155.553 0.000252164 0)
(170.693 0.000274456 0)
(185.622 0.000324751 0)
(200.398 0.000481787 0)
(215.028 0.000709536 0)
(229.504 0.000943412 0)
(243.95 0.00113375 0)
(258.604 0.00151717 0)
(274.082 0.00247277 0)
(291.845 0.00216206 0)
(344.503 0.526704 0)
(4.09205 1.86426e-06 0)
(12.364 2.93749e-06 0)
(20.8408 3.84302e-06 0)
(29.6343 6.82291e-06 0)
(38.862 1.24599e-05 0)
(48.6465 1.99388e-05 0)
(59.1128 2.97468e-05 0)
(70.3778 4.25457e-05 0)
(82.5394 6.08069e-05 0)
(95.6294 8.75566e-05 0)
(109.59 0.000126754 0)
(124.23 0.000179271 0)
(139.265 0.000231643 0)
(154.383 0.000278397 0)
(169.32 0.000308643 0)
(184.025 0.000338028 0)
(198.504 0.000400115 0)
(212.773 0.000580609 0)
(226.845 0.00083914 0)
(240.746 0.0011074 0)
(254.629 0.00133627 0)
(268.754 0.00178903 0)
(283.762 0.00278176 0)
(301.315 0.00300784 0)
(357.187 0.568515 0)
(4.08199 3.25654e-06 0)
(12.3311 5.12651e-06 0)
(20.7804 5.45222e-06 0)
(29.5402 7.46206e-06 0)
(38.7263 1.17351e-05 0)
(48.4602 1.92699e-05 0)
(58.8647 2.90008e-05 0)
(70.0568 4.15606e-05 0)
(82.1256 5.78023e-05 0)
(95.1112 8.04895e-05 0)
(108.952 0.000112983 0)
(123.454 0.000159303 0)
(138.344 0.000221002 0)
(153.31 0.000281743 0)
(168.097 0.000336254 0)
(182.602 0.000373989 0)
(196.853 0.000411748 0)
(210.824 0.000487737 0)
(224.538 0.000694594 0)
(238.035 0.000987651 0)
(251.372 0.00129499 0)
(264.719 0.00156868 0)
(278.355 0.00210045 0)
(292.951 0.00313142 0)
(310.367 0.00404913 0)
(369.201 0.613164 0)
(4.07272 4.65901e-06 0)
(12.3008 8.07773e-06 0)
(20.7252 8.20451e-06 0)
(29.4545 9.33818e-06 0)
(38.6032 1.23309e-05 0)
(48.2907 1.82411e-05 0)
(58.6392 2.7977e-05 0)
(69.763 4.04065e-05 0)
(81.7526 5.62736e-05 0)
(94.6388 7.65608e-05 0)
(108.367 0.00010465 0)
(122.754 0.000143562 0)
(137.509 0.000197944 0)
(152.337 0.000269671 0)
(166.98 0.000339886 0)
(181.334 0.000402818 0)
(195.384 0.000449267 0)
(209.126 0.000497015 0)
(222.543 0.0005892 0)
(235.685 0.000825698 0)
(248.616 0.00115762 0)
(261.414 0.00150939 0)
(274.264 0.00183519 0)
(287.467 0.00245669 0)
(301.737 0.00352818 0)
(319.07 0.00531648 0)
(380.596 0.660868 0)
(4.06413 6.08959e-06 0)
(12.2728 1.10396e-05 0)
(20.6742 1.20229e-05 0)
(29.3762 1.25987e-05 0)
(38.4912 1.43995e-05 0)
(48.1373 1.87318e-05 0)
(58.4342 2.65704e-05 0)
(69.4962 3.89316e-05 0)
(81.4113 5.45839e-05 0)
(94.2129 7.44065e-05 0)
(107.838 9.95655e-05 0)
(122.112 0.000133827 0)
(136.756 0.000180124 0)
(151.456 0.000243267 0)
(165.967 0.00032589 0)
(180.178 0.000406497 0)
(194.076 0.000479336 0)
(207.618 0.00053573 0)
(220.804 0.000595221 0)
(233.651 0.000706239 0)
(246.226 0.000976163 0)
(258.617 0.00135199 0)
(270.914 0.00175436 0)
(283.322 0.00214065 0)
(296.173 0.00286428 0)
(310.193 0.00398218 0)
(327.488 0.00684388 0)
(391.432 0.711828 0)
(4.05619 6.95945e-06 0)
(12.2469 1.40056e-05 0)
(20.6271 1.58986e-05 0)
(29.3038 1.7204e-05 0)
(38.3887 1.81098e-05 0)
(47.9974 2.09278e-05 0)
(58.2484 2.68771e-05 0)
(69.2535 3.70571e-05 0)
(81.1012 5.2556e-05 0)
(93.823 7.20626e-05 0)
(107.36 9.65551e-05 0)
(121.534 0.000127276 0)
(136.065 0.000168538 0)
(150.66 0.000223007 0)
(165.049 0.000295872 0)
(179.13 0.000390719 0)
(192.884 0.000482809 0)
(206.275 0.000566781 0)
(219.263 0.0006348 0)
(231.876 0.000708183 0)
(244.158 0.000840901 0)
(256.192 0.0011487 0)
(268.081 0.00157406 0)
(279.93 0.0020342 0)
(291.973 0.00249077 0)
(304.546 0.00333135 0)
(318.357 0.00450566 0)
(335.669 0.00867896 0)
(401.791 0.766196 0)
(4.04882 7.42471e-06 0)
(12.223 1.57942e-05 0)
(20.5836 1.98277e-05 0)
(29.2371 2.18795e-05 0)
(38.2941 2.34679e-05 0)
(47.8696 2.5031e-05 0)
(58.0792 2.91324e-05 0)
(69.0336 3.709e-05 0)
(80.819 5.00955e-05 0)
(93.4687 6.93185e-05 0)
(106.922 9.3339e-05 0)
(121.005 0.000123295 0)
(135.443 0.000160203 0)
(149.93 0.000209397 0)
(164.219 0.000272924 0)
(178.18 0.000356542 0)
(191.804 0.000464951 0)
(205.054 0.000570109 0)
(217.891 0.000666609 0)
(230.307 0.000748051 0)
(242.354 0.000837713 0)
(254.093 0.000995523 0)
(265.624 0.00134639 0)
(277.061 0.00182771 0)
(288.537 0.00235401 0)
(300.29 0.00289224 0)
(312.624 0.00386727 0)
(326.262 0.00510775 0)
(343.645 0.0108854 0)
(411.796 0.824036 0)
(4.04195 7.52177e-06 0)
(12.2008 1.6704e-05 0)
(20.5433 2.21524e-05 0)
(29.1754 2.65234e-05 0)
(38.2069 2.89151e-05 0)
(47.7515 3.10986e-05 0)
(57.9245 3.35757e-05 0)
(68.8333 3.93217e-05 0)
(80.5633 4.9746e-05 0)
(93.1462 6.61463e-05 0)
(106.525 8.97468e-05 0)
(120.524 0.000119041 0)
(134.874 0.000155262 0)
(149.271 0.000199149 0)
(163.458 0.000256958 0)
(177.32 0.000330463 0)
(190.825 0.00042623 0)
(203.947 0.000549873 0)
(216.646 0.000669542 0)
(228.91 0.000780165 0)
(240.758 0.000877323 0)
(252.261 0.000986099 0)
(263.495 0.0011729 0)
(274.572 0.00157271 0)
(285.632 0.00211753 0)
(296.81 0.00271975 0)
(308.312 0.00335276 0)
(320.44 0.00448229 0)
(333.936 0.00580251 0)
(351.447 0.013538 0)
(421.597 0.885306 0)
(4.03558 7.0869e-06 0)
(12.1801 1.68674e-05 0)
(20.506 2.32614e-05 0)
(29.1183 2.92977e-05 0)
(38.1261 3.43215e-05 0)
(47.6427 3.72812e-05 0)
(57.7816 4.03163e-05 0)
(68.6501 4.40366e-05 0)
(80.3304 5.18585e-05 0)
(92.8539 6.52875e-05 0)
(106.162 8.5711e-05 0)
(120.086 0.000114379 0)
(134.356 0.000149566 0)
(148.668 0.000192738 0)
(162.77 0.000244348 0)
(176.531 0.000311935 0)
(189.938 0.000396778 0)
(202.944 0.000506086 0)
(215.517 0.000646529 0)
(227.644 0.000782548 0)
(239.34 0.000909293 0)
(250.643 0.00102468 0)
(261.638 0.00115583 0)
(272.416 0.00137622 0)
(283.113 0.00183181 0)
(293.868 0.00244891 0)
(304.789 0.0031382 0)
(316.071 0.00388113 0)
(328.019 0.00518801 0)
(341.406 0.00661519 0)
(359.104 0.0167254 0)
(431.232 0.950049 0)
(4.02964 5.98565e-06 0)
(12.1609 1.60641e-05 0)
(20.4712 2.33949e-05 0)
(29.0652 3.0639e-05 0)
(38.0514 3.7488e-05 0)
(47.542 4.34634e-05 0)
(57.6499 4.72044e-05 0)
(68.4809 5.14051e-05 0)
(80.1173 5.67606e-05 0)
(92.5875 6.71628e-05 0)
(105.834 8.41963e-05 0)
(119.687 0.000109294 0)
(133.881 0.000143743 0)
(148.118 0.000185503 0)
(162.139 0.000236395 0)
(175.817 0.000296717 0)
(189.125 0.000375274 0)
(202.036 0.000472788 0)
(214.495 0.000597176 0)
(226.498 0.00075669 0)
(238.057 0.000910919 0)
(249.206 0.00105595 0)
(259.999 0.00119259 0)
(270.535 0.00134983 0)
(280.928 0.00160923 0)
(291.317 0.0021286 0)
(301.812 0.00282792 0)
(312.505 0.00361703 0)
(323.594 0.00448733 0)
(335.388 0.00599824 0)
(348.695 0.00756638 0)
(366.645 0.0205673 0)
(440.409 1.01869 0)
(4.02406 4.49206e-06 0)
(12.1429 1.38437e-05 0)
(20.4389 2.22408e-05 0)
(29.0159 3.07605e-05 0)
(37.9821 3.89254e-05 0)
(47.4488 4.70484e-05 0)
(57.528 5.41134e-05 0)
(68.325 5.89624e-05 0)
(79.9205 6.47008e-05 0)
(92.3439 7.21501e-05 0)
(105.535 8.5692e-05 0)
(119.325 0.000106953 0)
(133.451 0.00013737 0)
(147.615 0.000178308 0)
(161.564 0.000227352 0)
(175.162 0.00028692 0)
(188.388 0.000357 0)
(201.203 0.000447927 0)
(213.569 0.000559639 0)
(225.46 0.00070082 0)
(236.896 0.000881575 0)
(247.907 0.00105646 0)
(258.545 0.00122247 0)
(268.876 0.0013838 0)
(279.023 0.00157161 0)
(289.104 0.00187643 0)
(299.229 0.00246857 0)
(309.492 0.0032615 0)
(319.985 0.00416516 0)
(330.905 0.00518278 0)
(342.568 0.0069287 0)
(355.825 0.00867951 0)
(374.096 0.025268 0)
(448.978 1.09191 0)
(4.01876 2.98161e-06 0)
(12.1261 1.06492e-05 0)
(20.4087 1.92394e-05 0)
(28.9701 2.92074e-05 0)
(37.9175 3.89262e-05 0)
(47.3622 4.85952e-05 0)
(57.4152 5.81201e-05 0)
(68.1806 6.6537e-05 0)
(79.7392 7.28668e-05 0)
(92.1188 8.05895e-05 0)
(105.261 9.06426e-05 0)
(118.995 0.00010791 0)
(133.06 0.000134021 0)
(147.158 0.000170396 0)
(161.038 0.000218493 0)
(174.566 0.000275585 0)
(187.711 0.000344963 0)
(200.446 0.00042612 0)
(212.719 0.000530998 0)
(224.519 0.000658592 0)
(235.843 0.000818698 0)
(246.733 0.0010232 0)
(257.232 0.00122143 0)
(267.406 0.00141143 0)
(277.344 0.00160162 0)
(287.174 0.00182531 0)
(296.989 0.00218275 0)
(306.879 0.00285796 0)
(316.937 0.00375769 0)
(327.253 0.00479273 0)
(338.025 0.00598078 0)
(349.579 0.00799772 0)
(362.818 0.00998852 0)
(381.485 0.031027 0)
(457.26 1.1694 0)
(4.01373 1.93592e-06 0)
(12.1101 7.42025e-06 0)
(20.3804 1.49822e-05 0)
(28.9273 2.5423e-05 0)
(37.8577 3.69555e-05 0)
(47.2817 4.83178e-05 0)
(57.3105 5.9855e-05 0)
(68.0471 7.09316e-05 0)
(79.5714 8.10288e-05 0)
(91.9114 8.92859e-05 0)
(105.008 9.9489e-05 0)
(118.693 0.00011268 0)
(132.703 0.000134258 0)
(146.742 0.000165832 0)
(160.558 0.00020884 0)
(174.019 0.000264891 0)
(187.095 0.000331146 0)
(199.751 0.00041161 0)
(211.946 0.000505122 0)
(223.654 0.000625673 0)
(234.889 0.000771122 0)
(245.669 0.00095252 0)
(256.046 0.00118374 0)
(266.079 0.00140859 0)
(275.856 0.00162613 0)
(285.474 0.00184997 0)
(295.035 0.00211554 0)
(304.612 0.00253384 0)
(314.293 0.00330402 0)
(324.169 0.00432561 0)
(334.329 0.0055115 0)
(344.973 0.00689678 0)
(356.439 0.00922718 0)
(369.691 0.011536 0)
(388.841 0.038046 0)
(465.506 1.25021 0)
(4.00865 6.57724e-07 0)
(12.095 5.15392e-06 0)
(20.3536 1.08026e-05 0)
(28.8872 2.01405e-05 0)
(37.8018 3.24352e-05 0)
(47.207 4.59179e-05 0)
(57.213 5.94932e-05 0)
(67.9231 7.27329e-05 0)
(79.416 8.57835e-05 0)
(91.7194 9.79597e-05 0)
(104.775 0.000108623 0)
(118.415 0.000121821 0)
(132.376 0.000138679 0)
(146.362 0.000165151 0)
(160.122 0.000202824 0)
(173.52 0.000253286 0)
(186.529 0.000318262 0)
(199.118 0.0003948 0)
(211.236 0.000487682 0)
(222.868 0.000595112 0)
(234.013 0.000733291 0)
(244.704 0.000898893 0)
(254.971 0.00110436 0)
(264.882 0.00136557 0)
(274.515 0.00162075 0)
(283.97 0.00187029 0)
(293.315 0.00213325 0)
(302.634 0.00244755 0)
(312 0.00293619 0)
(321.496 0.00381501 0)
(331.21 0.00497579 0)
(341.233 0.00633488 0)
(351.767 0.0079485 0)
(363.165 0.0106426 0)
(376.463 0.0133759 0)
(396.197 0.0466323 0)
(473.77 1.33361 0)
(4.00459 1.28442e-06 0)
(12.0797 2.22706e-06 0)
(20.328 8.21309e-06 0)
(28.8491 1.49432e-05 0)
(37.7493 2.61667e-05 0)
(47.1372 4.04879e-05 0)
(57.1226 5.65711e-05 0)
(67.8077 7.24473e-05 0)
(79.2718 8.75583e-05 0)
(91.5417 0.000102961 0)
(104.559 0.000117709 0)
(118.157 0.000131285 0)
(132.074 0.000147988 0)
(146.014 0.00016904 0)
(159.723 0.000201007 0)
(173.065 0.000245522 0)
(186.012 0.000304426 0)
(198.535 0.000379412 0)
(210.588 0.000467485 0)
(222.146 0.00057431 0)
(233.215 0.000697501 0)
(243.817 0.000855626 0)
(253.995 0.00104392 0)
(263.796 0.00127662 0)
(273.307 0.00157187 0)
(282.614 0.00186178 0)
(291.793 0.00214813 0)
(300.894 0.00245644 0)
(309.999 0.0028274 0)
(319.176 0.00339724 0)
(328.507 0.00440041 0)
(338.079 0.00572036 0)
(347.981 0.00727847 0)
(358.422 0.00915661 0)
(369.771 0.0122748 0)
(383.154 0.0155744 0)
(403.606 0.0572167 0)
(482.099 1.41884 0)
(4.00937 -1.24019e-05 0)
(12.0674 4.05659e-06 0)
(20.3022 4.40129e-06 0)
(28.8129 1.18636e-05 0)
(37.6995 1.99584e-05 0)
(47.0718 3.33381e-05 0)
(57.0382 5.02157e-05 0)
(67.7007 6.91736e-05 0)
(79.1375 8.70491e-05 0)
(91.3767 0.000104655 0)
(104.359 0.000122781 0)
(117.919 0.000140656 0)
(131.795 0.000157635 0)
(145.693 0.00017836 0)
(159.358 0.000204166 0)
(172.65 0.000242316 0)
(185.54 0.000294636 0)
(198.003 0.000363012 0)
(209.992 0.000449252 0)
(221.485 0.000550211 0)
(232.482 0.000672706 0)
(243.009 0.000813689 0)
(253.099 0.000994437 0)
(262.81 0.0012084 0)
(272.209 0.00147212 0)
(281.393 0.00180606 0)
(290.423 0.00213575 0)
(299.355 0.0024643 0)
(308.239 0.00282514 0)
(317.152 0.003262 0)
(326.161 0.00392554 0)
(335.346 0.00507102 0)
(344.792 0.00657313 0)
(354.589 0.00836018 0)
(364.952 0.0105449 0)
(376.272 0.0141601 0)
(389.781 0.0182185 0)
(411.131 0.0703438 0)
(490.53 1.50472 0)
(4.98097 -2.26604e-06 0)
(12.0817 -6.96569e-05 0)
(20.2817 7.01814e-06 0)
(28.7763 7.43225e-06 0)
(37.6522 1.64791e-05 0)
(47.0096 2.62408e-05 0)
(56.959 4.22858e-05 0)
(67.6007 6.22959e-05 0)
(79.013 8.35117e-05 0)
(91.223 0.00010387 0)
(104.174 0.000124442 0)
(117.698 0.000145725 0)
(131.537 0.000167169 0)
(145.396 0.000188031 0)
(159.02 0.000213291 0)
(172.269 0.00024453 0)
(185.11 0.000289724 0)
(197.517 0.000350934 0)
(209.447 0.000429847 0)
(220.878 0.000528759 0)
(231.811 0.00064423 0)
(242.266 0.000784403 0)
(252.282 0.000945491 0)
(261.905 0.00115188 0)
(271.213 0.00139506 0)
(280.283 0.00169421 0)
(289.189 0.0020721 0)
(297.971 0.00244725 0)
(306.683 0.00282456 0)
(315.373 0.00324609 0)
(324.114 0.0037593 0)
(332.974 0.00453095 0)
(342.029 0.00583936 0)
(351.363 0.00755016 0)
(361.07 0.00960079 0)
(371.37 0.0121415 0)
(382.683 0.0163417 0)
(396.363 0.021427 0)
(418.83 0.0867631 0)
(499.095 1.58983 0)
(4.06056 8.78856e-06 0)
(15.053 3.7649e-06 0)
(20.305 -0.000186307 0)
(28.7472 1.10695e-05 0)
(37.6043 1.08743e-05 0)
(46.9506 2.25203e-05 0)
(56.8837 3.44774e-05 0)
(67.5068 5.35755e-05 0)
(78.8966 7.6124e-05 0)
(91.0804 9.97579e-05 0)
(104.001 0.000123055 0)
(117.493 0.000147175 0)
(131.298 0.000172074 0)
(145.121 0.000197593 0)
(158.709 0.000222848 0)
(171.916 0.00025327 0)
(184.714 0.000290744 0)
(197.074 0.00034395 0)
(208.95 0.000415162 0)
(220.322 0.000505889 0)
(231.193 0.000619032 0)
(241.586 0.000750869 0)
(251.53 0.000911039 0)
(261.078 0.00109495 0)
(270.298 0.00133063 0)
(279.277 0.00160712 0)
(288.068 0.00194669 0)
(296.725 0.00237436 0)
(305.285 0.00280143 0)
(313.8 0.00323492 0)
(322.316 0.00372672 0)
(330.904 0.00432842 0)
(339.631 0.00522473 0)
(348.571 0.00671986 0)
(357.807 0.00866987 0)
(367.437 0.0110245 0)
(377.689 0.0139792 0)
(389.015 0.0188709 0)
(402.92 0.025363 0)
(426.757 0.107479 0)
(507.813 1.67234 0)
(4.08172 -3.12956e-06 0)
(12.3098 5.69016e-05 0)
(25.3924 2.78944e-05 0)
(28.7789 -0.000371801 0)
(37.5663 1.55622e-05 0)
(46.8908 1.62894e-05 0)
(56.8122 3.09752e-05 0)
(67.4177 4.50851e-05 0)
(78.7874 6.65993e-05 0)
(90.9471 9.15649e-05 0)
(103.84 0.000118411 0)
(117.303 0.000145087 0)
(131.075 0.000173066 0)
(144.866 0.000202169 0)
(158.42 0.00023224 0)
(171.592 0.000262488 0)
(184.349 0.000298884 0)
(196.666 0.000343508 0)
(208.494 0.000405752 0)
(219.814 0.000488222 0)
(230.628 0.000592289 0)
(240.959 0.000721405 0)
(250.841 0.000871758 0)
(260.319 0.00105459 0)
(269.463 0.00126448 0)
(278.352 0.00153367 0)
(287.051 0.00184818 0)
(295.593 0.0022338 0)
(304.027 0.00271824 0)
(312.388 0.00320463 0)
(320.727 0.00370257 0)
(329.087 0.0042754 0)
(337.539 0.00497977 0)
(346.146 0.00601982 0)
(354.984 0.00772906 0)
(364.135 0.0099536 0)
(373.7 0.0126592 0)
(383.919 0.0160969 0)
(395.284 0.0218083 0)
(409.472 0.0302769 0)
(434.964 0.133875 0)
(516.671 1.75022 0)
(4.42244 -3.32026e-06 0)
(12.386 -2.06974e-05 0)
(20.8411 0.000154802 0)
(36.1038 7.54537e-05 0)
(37.6051 -0.000639022 0)
(46.8435 2.08722e-05 0)
(56.7399 2.4689e-05 0)
(67.333 4.11022e-05 0)
(78.6836 5.72293e-05 0)
(90.822 8.11187e-05 0)
(103.69 0.000109284 0)
(117.124 0.000139727 0)
(130.869 0.0001704 0)
(144.629 0.000202449 0)
(158.152 0.000236321 0)
(171.291 0.000271531 0)
(184.013 0.000307517 0)
(196.29 0.000350767 0)
(208.076 0.000403548 0)
(219.349 0.00047602 0)
(230.11 0.000571131 0)
(240.384 0.000690277 0)
(250.206 0.000837407 0)
(259.622 0.0010087 0)
(268.694 0.00121735 0)
(277.507 0.00145706 0)
(286.116 0.00176438 0)
(294.565 0.00212217 0)
(302.883 0.00256026 0)
(311.118 0.00310913 0)
(319.301 0.00366366 0)
(327.482 0.00423623 0)
(335.703 0.0049023 0)
(344.031 0.00572535 0)
(352.533 0.00693108 0)
(361.281 0.008886 0)
(370.358 0.0114259 0)
(379.871 0.0145376 0)
(390.071 0.0185402 0)
(401.501 0.025228 0)
(416.043 0.0364113 0)
(443.51 0.167843 0)
(525.6 1.82185 0)
(4.24933 7.99782e-06 0)
(13.41 -2.69799e-05 0)
(20.9955 -5.57207e-05 0)
(29.7225 0.000308156 0)
(47.3028 0.000154949 0)
(46.8877 -0.00100253 0)
(56.6827 2.70433e-05 0)
(67.2474 3.42964e-05 0)
(78.5851 5.23632e-05 0)
(90.7031 7.07901e-05 0)
(103.549 9.79094e-05 0)
(116.957 0.000129573 0)
(130.675 0.000164056 0)
(144.408 0.000199235 0)
(157.902 0.000235699 0)
(171.01 0.000274892 0)
(183.7 0.000316015 0)
(195.943 0.000358572 0)
(207.691 0.000409627 0)
(218.922 0.000471701 0)
(229.637 0.000555749 0)
(239.859 0.000665129 0)
(249.624 0.00080129 0)
(258.979 0.000968771 0)
(267.989 0.00116393 0)
(276.729 0.0014021 0)
(285.262 0.00167589 0)
(293.621 0.00202672 0)
(301.845 0.00243393 0)
(309.963 0.002932 0)
(318.019 0.00355415 0)
(326.043 0.00418613 0)
(334.081 0.00484463 0)
(342.177 0.00561846 0)
(350.396 0.00657892 0)
(358.804 0.00797568 0)
(367.472 0.0102127 0)
(376.487 0.0131154 0)
(385.958 0.016698 0)
(396.157 0.0213643 0)
(407.681 0.0292214 0)
(422.658 0.0441291 0)
(452.446 0.211961 0)
(534.431 1.88598 0)
(4.02611 1.20325e-05 0)
(12.8507 4.76679e-05 0)
(22.7118 -7.38634e-05 0)
(29.9736 -0.000112833 0)
(39.0373 0.000525117 0)
(59.0971 0.000271818 0)
(56.7296 -0.00147997 0)
(67.1797 3.40459e-05 0)
(78.4853 4.51469e-05 0)
(90.5902 6.59002e-05 0)
(103.414 8.66406e-05 0)
(116.801 0.000117225 0)
(130.493 0.000152837 0)
(144.201 0.000191717 0)
(157.669 0.000231765 0)
(170.749 0.000273272 0)
(183.409 0.000318442 0)
(195.62 0.000366271 0)
(207.335 0.000416354 0)
(218.527 0.000476267 0)
(229.202 0.000548939 0)
(239.378 0.000646091 0)
(249.091 0.000771624 0)
(258.389 0.000927023 0)
(267.338 0.00111758 0)
(276.016 0.0013401 0)
(284.476 0.00161192 0)
(292.757 0.00192463 0)
(300.891 0.00232497 0)
(308.915 0.0027885 0)
(316.853 0.00335505 0)
(324.748 0.00406113 0)
(332.628 0.00478168 0)
(340.539 0.00553886 0)
(348.522 0.00643695 0)
(356.644 0.00755635 0)
(364.968 0.00917338 0)
(373.567 0.0117346 0)
(382.529 0.0150555 0)
(391.972 0.0191854 0)
(402.187 0.0246351 0)
(413.84 0.0339025 0)
(429.343 0.0540052 0)
(461.818 0.26963 0)
(542.856 1.93729 0)
(3.99196 1.39996e-05 0)
(12.1511 4.06152e-05 0)
(21.6939 0.000117787 0)
(32.4015 -0.000145638 0)
(39.4016 -0.000193194 0)
(48.877 0.00081659 0)
(71.568 0.000432584 0)
(67.2256 -0.00209003 0)
(78.4062 4.19977e-05 0)
(90.4757 5.83518e-05 0)
(103.287 8.16371e-05 0)
(116.652 0.000105016 0)
(130.323 0.000139505 0)
(144.007 0.000179326 0)
(157.451 0.000223004 0)
(170.506 0.000268156 0)
(183.137 0.000315552 0)
(195.319 0.000367549 0)
(207.003 0.000422898 0)
(218.164 0.000481686 0)
(228.801 0.000551657 0)
(238.936 0.000636378 0)
(248.603 0.000748405 0)
(257.849 0.000892208 0)
(266.741 0.00106948 0)
(275.357 0.0012864 0)
(283.754 0.00154008 0)
(291.963 0.00185025 0)
(300.019 0.00220744 0)
(307.951 0.00266434 0)
(315.794 0.00319219 0)
(323.57 0.00383652 0)
(331.321 0.00463814 0)
(339.072 0.00546038 0)
(346.868 0.00633128 0)
(354.751 0.00737252 0)
(362.785 0.00867575 0)
(371.036 0.010547 0)
(379.576 0.013481 0)
(388.495 0.0172848 0)
(397.922 0.022053 0)
(408.171 0.0284328 0)
(419.993 0.039416 0)
(436.13 0.0667741 0)
(471.639 0.344456 0)
(550.482 1.97619 0)
(3.96068 1.8727e-05 0)
(12.0306 3.28078e-05 0)
(20.4623 7.71244e-05 0)
(30.864 0.000227744 0)
(42.5693 -0.00025396 0)
(49.369 -0.000300597 0)
(59.3348 0.00119708 0)
(84.7077 0.000641115 0)
(78.4464 -0.00284795 0)
(90.3849 5.10387e-05 0)
(103.158 7.40976e-05 0)
(116.511 0.000100009 0)
(130.161 0.000126302 0)
(143.824 0.000164909 0)
(157.245 0.000209298 0)
(170.277 0.000258517 0)
(182.884 0.000308937 0)
(195.039 0.000363099 0)
(206.694 0.000422802 0)
(217.825 0.000486657 0)
(228.43 0.000555456 0)
(238.528 0.000636935 0)
(248.154 0.000735349 0)
(257.354 0.000864252 0)
(266.193 0.00102884 0)
(274.752 0.00123106 0)
(283.087 0.00147801 0)
(291.232 0.00176721 0)
(299.216 0.00212116 0)
(307.07 0.00252922 0)
(314.821 0.00305049 0)
(322.502 0.00365208 0)
(330.133 0.0043855 0)
(337.753 0.00529583 0)
(345.387 0.00623415 0)
(353.08 0.00723595 0)
(360.873 0.00844227 0)
(368.829 0.00995804 0)
(377.016 0.0121228 0)
(385.505 0.0154862 0)
(394.392 0.0198488 0)
(403.816 0.0253638 0)
(414.122 0.0328559 0)
(426.16 0.045947 0)
(443.066 0.0834747 0)
(481.851 0.442004 0)
(556.882 2.0029 0)
(3.95514 2.17152e-05 0)
(11.9254 4.32313e-05 0)
(20.2241 4.63289e-05 0)
(29.0512 0.000133774 0)
(40.457 0.000382423 0)
(53.3107 -0.000402319 0)
(59.9659 -0.000442108 0)
(70.491 0.00168339 0)
(98.332 0.000895602 0)
(90.4136 -0.00375655 0)
(103.056 6.09175e-05 0)
(116.369 9.25171e-05 0)
(130.007 0.00012133 0)
(143.65 0.00015073 0)
(157.052 0.000193733 0)
(170.061 0.000242989 0)
(182.645 0.000298492 0)
(194.776 0.000354767 0)
(206.406 0.000416517 0)
(217.509 0.000484927 0)
(228.084 0.000558478 0)
(238.151 0.000638704 0)
(247.74 0.000733402 0)
(256.9 0.000847386 0)
(265.692 0.000995515 0)
(274.197 0.00118385 0)
(282.475 0.00141444 0)
(290.558 0.00169556 0)
(298.477 0.0020253 0)
(306.258 0.00242909 0)
(313.931 0.0028955 0)
(321.519 0.0034899 0)
(329.054 0.00417559 0)
(336.554 0.00501067 0)
(344.056 0.00604538 0)
(351.586 0.00711664 0)
(359.186 0.00826947 0)
(366.897 0.00966591 0)
(374.785 0.0114275 0)
(382.916 0.0139312 0)
(391.364 0.01779 0)
(400.229 0.0228009 0)
(409.664 0.0291936 0)
(420.051 0.0380261 0)
(432.359 0.0537406 0)
(450.236 0.105513 0)
(492.263 0.569726 0)
(561.19 2.02264 0)
(3.95353 2.33626e-05 0)
(11.9034 4.59712e-05 0)
(20.0243 6.15361e-05 0)
(28.6708 6.15328e-05 0)
(38.0158 0.000208856 0)
(50.5723 0.000591135 0)
(64.7082 -0.000603048 0)
(71.2636 -0.000622287 0)
(82.3913 0.00229172 0)
(112.014 0.0011834 0)
(103.067 -0.00479701 0)
(116.256 7.32346e-05 0)
(129.852 0.000113416 0)
(143.485 0.000145905 0)
(156.868 0.00017858 0)
(169.858 0.000226337 0)
(182.42 0.000280874 0)
(194.529 0.000343105 0)
(206.136 0.000406307 0)
(217.214 0.00047653 0)
(227.763 0.000554757 0)
(237.8 0.000639427 0)
(247.358 0.000732681 0)
(256.48 0.000842526 0)
(265.231 0.000974332 0)
(273.689 0.00114446 0)
(281.913 0.00135983 0)
(289.938 0.00162262 0)
(297.795 0.00194268 0)
(305.512 0.00231881 0)
(313.111 0.00277934 0)
(320.62 0.0033125 0)
(328.062 0.00399051 0)
(335.464 0.0047724 0)
(342.846 0.00572333 0)
(350.243 0.00689994 0)
(357.677 0.00812336 0)
(365.194 0.00945005 0)
(372.833 0.011066 0)
(380.66 0.013112 0)
(388.743 0.0160075 0)
(397.159 0.0204389 0)
(406.013 0.0262041 0)
(415.475 0.0336335 0)
(425.973 0.0440942 0)
(438.616 0.0631511 0)
(457.732 0.134865 0)
(502.474 0.728958 0)
(563.624 2.04206 0)
(3.952 2.58764e-05 0)
(11.8953 4.97512e-05 0)
(19.9764 6.0463e-05 0)
(28.3604 8.35032e-05 0)
(37.4728 7.71501e-05 0)
(47.4565 0.000310568 0)
(61.3014 0.000863704 0)
(76.7904 -0.00086441 0)
(83.2976 -0.000836981 0)
(95.011 0.00302819 0)
(125.301 0.0014847 0)
(116.243 -0.00592981 0)
(129.729 8.92521e-05 0)
(143.318 0.000136925 0)
(156.692 0.000173902 0)
(169.664 0.000210059 0)
(182.207 0.000263022 0)
(194.296 0.000323579 0)
(205.881 0.000392611 0)
(216.937 0.000463931 0)
(227.461 0.000543837 0)
(237.473 0.000633295 0)
(247.001 0.000730734 0)
(256.092 0.000838866 0)
(264.806 0.000966111 0)