/*--------------------------------*- C++ -*----------------------------------*\
| =========                 |                                                 |
| \\      /  F ield         | OpenFOAM: The Open Source CFD Toolbox           |
|  \\    /   O peration     | Version:  v2012                                 |
|   \\  /    A nd           | Website:  www.openfoam.com                      |
|    \\/     M anipulation  |                                                 |
\*---------------------------------------------------------------------------*/
FoamFile
{
    version     2.0;
    format      ascii;
    class       volScalarField;
    location    "2000";
    object      xx;
}
// * * * * * * * * * * * * * * * * * * * * * * * * * * * * * * * * * * * * * //

dimensions      [0 0 0 0 0 0 0];


internalField   nonuniform List<scalar> 
31383
(
7.55882e-07
8.39509e-07
7.46719e-07
7.78632e-07
1.5894e-06
1.38422e-06
7.33964e-07
1.45958e-06
1.90026e-05
6.22771e-06
7.01593e-07
1.36424e-06
1.73098e-05
0.000147255
2.70686e-05
6.75471e-07
1.29545e-06
1.6066e-05
0.000134026
0.000707139
9.46807e-05
6.53328e-07
1.24021e-06
1.51714e-05
0.000124309
0.000643511
0.00252381
0.000279668
6.34796e-07
1.19375e-06
1.44554e-05
0.000117322
0.000596775
0.00229735
0.00739517
0.000732513
6.19292e-07
1.15485e-06
1.38565e-05
0.000111733
0.00056317
0.00213091
0.00673827
0.0187637
0.00175886
6.05714e-07
1.12235e-06
1.33548e-05
0.00010706
0.00053628
0.00201115
0.00625436
0.0171323
0.0424166
0.00395652
5.93596e-07
1.09413e-06
1.2936e-05
0.000103145
0.000513806
0.0019153
0.00590587
0.0159257
0.0388645
0.0867165
0.00845295
5.82405e-07
1.06896e-06
1.25746e-05
9.98779e-05
0.000494978
0.00183518
0.00562669
0.0150545
0.0362197
0.0798626
0.161729
0.0172939
5.72126e-07
1.04578e-06
1.22523e-05
9.7059e-05
0.000479267
0.00176805
0.00539307
0.0143554
0.0343028
0.0747072
0.149928
0.277304
0.0339837
5.6266e-07
1.02456e-06
1.1956e-05
9.45477e-05
0.00046571
0.00171201
0.00519722
0.0137696
0.03276
0.0709523
0.140927
0.258956
0.44123
0.0641589
5.54163e-07
1.00504e-06
1.16854e-05
9.22387e-05
0.000453636
0.00166364
0.00503368
0.013278
0.0314635
0.0679166
0.134331
0.24474
0.41508
0.658841
0.116212
5.465e-07
9.87614e-07
1.14369e-05
9.01303e-05
0.000442535
0.00162057
0.00489247
0.0128669
0.0303743
0.0653536
0.128971
0.234265
0.394469
0.624057
0.920035
0.201112
5.39719e-07
9.71957e-07
1.12159e-05
8.81945e-05
0.000432402
0.00158097
0.00476667
0.0125116
0.029461
0.0631976
0.124422
0.225702
0.379202
0.596105
0.881146
1.23395
0.332914
5.33643e-07
9.58088e-07
1.10178e-05
8.64735e-05
0.000423096
0.00154484
0.00465102
0.012195
0.0286706
0.0613838
0.120588
0.21839
0.366656
0.57531
0.848199
1.1864
1.62114
0.526325
5.28256e-07
9.45743e-07
1.08423e-05
8.4931e-05
0.000414826
0.00151165
0.00454545
0.0119035
0.0279658
0.0598106
0.117347
0.212216
0.355883
0.55817
0.823708
1.14458
1.56297
2.09599
0.794246
5.2342e-07
9.34756e-07
1.06865e-05
8.35647e-05
0.00040741
0.00148214
0.00444846
0.0116375
0.0273153
0.0584066
0.114525
0.20697
0.346756
0.543366
0.803578
1.11311
1.50964
2.02559
2.67105
1.14258
5.19127e-07
9.2497e-07
1.05477e-05
8.23519e-05
0.000400845
0.00145569
0.00436225
0.0113931
0.0267221
0.0571064
0.112006
0.202385
0.33897
0.530758
0.785439
1.08712
1.46948
1.95801
2.58816
3.36158
1.54488
5.15295e-07
9.16278e-07
1.04247e-05
8.12709e-05
0.000395016
0.00143225
0.00428491
0.0111756
0.0261762
0.055922
0.109666
0.198293
0.332139
0.519991
0.768892
1.06465
1.4364
1.90772
2.50456
3.26729
4.18408
1.97161
5.1188e-07
9.08536e-07
1.03155e-05
8.03141e-05
0.000389822
0.00141148
0.00421639
0.0109804
0.0256902
0.0548292
0.107535
0.194476
0.326047
0.510507
0.754757
1.04534
1.40791
1.86615
2.44208
3.16452
4.08042
5.15543
2.46006
5.08813e-07
9.01637e-07
1.02182e-05
7.94634e-05
0.000385222
0.00139294
0.00415557
0.0108075
0.0252536
0.053855
0.105564
0.190995
0.320342
0.502045
0.742283
1.02893
1.3836
1.83022
2.39023
3.08731
3.95507
5.04594
6.29179
3.02588
5.06029e-07
8.95458e-07
1.01315e-05
7.8707e-05
0.000381135
0.00137652
0.00410139
0.0106539
0.0248666
0.0529776
0.103802
0.187769
0.315132
0.49411
0.731126
1.01435
1.363
1.79968
2.34544
3.02335
3.86066
4.89504
6.18161
7.61037
3.67439
5.03467e-07
8.89843e-07
1.00541e-05
7.80328e-05
0.000377498
0.00136193
0.00405335
0.0105169
0.0245225
0.0522
0.102213
0.184882
0.310294
0.486845
0.720679
1.00113
1.34471
1.77369
2.30729
2.96811
3.78228
4.78037
6.00189
7.49334
9.12171
4.40522
5.01124e-07
8.8468e-07
9.98375e-06
7.74303e-05
0.000374258
0.00134896
0.00401062
0.0103954
0.0242153
0.0515079
0.100805
0.182268
0.305958
0.480108
0.711084
0.988898
1.32815
1.75066
2.2748
2.92096
3.71467
4.68512
5.86387
7.28198
8.95162
10.817
5.21609
4.98981e-07
8.79961e-07
9.91904e-06
7.68825e-05
0.000371363
0.0013374
0.00397266
0.0102875
0.0239429
0.0508896
0.0995453
0.179957
0.302024
0.47405
0.702195
0.977664
1.31273
1.72993
2.24626
2.88074
3.65694
4.60284
5.74922
7.11907
8.70874
10.6229
12.7228
6.09286
4.97022e-07
8.75663e-07
9.86002e-06
7.63794e-05
0.00036873
0.00132705
0.00393877
0.0101914
0.0237008
0.0503408
0.0984212
0.177881
0.298545
0.46855
0.694197
0.967257
1.29861
1.71065
2.22028
2.84536
3.60761
4.53284
5.65037
6.98316
8.52121
10.3419
12.5398
14.8856
6.99623
4.95235e-07
8.71732e-07
9.80629e-06
7.59206e-05
0.000366312
0.00131765
0.00390852
0.0101056
0.023485
0.0498523
0.0974221
0.176029
0.295411
0.463675
0.686919
0.957891
1.28561
1.69285
2.1964
2.81344
3.56422
4.47316
5.56627
6.86612
8.36488
10.1226
12.2171
14.7328
17.331
7.8496
4.93609e-07
8.68156e-07
9.75719e-06
7.5502e-05
0.000364106
0.00130902
0.003881
0.0100291
0.0232925
0.0494168
0.096533
0.174377
0.292615
0.459279
0.680469
0.949358
1.27382
1.6765
2.17415
2.78376
3.5252
4.42029
5.49465
6.76644
8.23
9.93912
11.9617
14.3658
17.2362
20.0848
8.59151
4.92151e-07
8.64911e-07
9.71253e-06
7.51201e-05
0.000362093
0.00130115
0.00385571
0.00995935
0.0231202
0.0490282
0.0957384
0.172905
0.290115
0.455359
0.674644
0.941823
1.26313
1.66158
2.15369
2.75645
3.48882
4.37282
5.43087
6.6811
8.11478
9.78071
11.7472
14.07
16.823
20.0874
23.1728
9.40796
4.90835e-07
8.61996e-07
9.67219e-06
7.4773e-05
0.000360257
0.00129396
0.00383263
0.00989533
0.0229636
0.0486801
0.0950287
0.17159
0.287888
0.451845
0.669452
0.935005
1.25361
1.64822
2.13527
2.73126
3.45562
4.32914
5.37371
6.60609
8.01679
9.64539
11.562
13.8199
16.4822
19.6283
23.3276
26.6191
10.8415
4.89643e-07
8.59381e-07
9.63592e-06
7.4459e-05
0.000358588
0.0012874
0.0038116
0.00983692
0.0228196
0.0483635
0.0943933
0.170413
0.285894
0.448713
0.66479
0.92893
1.24506
1.63617
2.11857
2.70871
3.42483
4.28856
5.32098
6.53772
7.93008
9.5302
11.4035
13.6038
16.192
19.2377
22.8261
27.0016
30.4451
12.0158
4.88543e-07
8.57003e-07
9.60338e-06
7.41774e-05
0.000357079
0.00128144
0.0037924
0.00978358
0.0226881
0.0480721
0.0938142
0.16936
0.284108
0.445905
0.660627
0.923429
1.23738
1.62546
2.10369
2.68805
3.39697
4.25105
5.27222
6.47504
7.85168
9.42837
11.2685
13.4187
15.9404
18.9023
22.3816
26.4654
31.157
34.6643
12.3747
4.87526e-07
8.54811e-07
9.57382e-06
7.39242e-05
0.000355723
0.00127605
0.00377494
0.0097349
0.0225682
0.0478063
0.0932812
0.168398
0.282508
0.44339
0.656896
0.918595
1.23051
1.61577
2.09018
2.66975
3.37192
4.21726
5.22709
6.41766
7.7798
9.33632
11.1493
13.2612
15.7251
18.6104
21.9952
25.9637
30.6009
35.8446
39.2803
12.4293
4.865e-07
8.52789e-07
9.54653e-06
7.36939e-05
0.000354507
0.00127121
0.00375914
0.00969072
0.0224587
0.0475634
0.0927948
0.167513
0.281047
0.441132
0.65355
0.914211
1.22435
1.60717
2.07826
2.65313
3.34946
4.18685
5.18695
6.36452
7.71363
9.25196
11.0415
13.1217
15.5414
18.3605
21.6578
25.5204
30.0395
35.2926
41.1163
44.2565
12.1406
4.85614e-07
8.50722e-07
9.52143e-06
7.34821e-05
0.0003534
0.00126686
0.00374495
0.00965069
0.0223592
0.0473416
0.0923501
0.166704
0.279701
0.439072
0.650541
0.91031
1.2188
1.5994
2.06745
2.63836
3.32936
4.15972
5.15021
6.3171
7.65288
9.17429
10.9427
12.9958
15.3789
18.147
21.368
25.1316
29.5339
34.6724
40.6063
47.0242
49.3477
11.4826
4.87807e-07
8.48985e-07
9.49544e-06
7.3286e-05
0.00035238
0.00126291
0.00373221
0.00961474
0.022269
0.0471401
0.0919442
0.165966
0.278467
0.437168
0.647798
0.906758
1.21394
1.59255
2.0579
2.62501
3.31114
4.13546
5.11752
6.27395
7.59812
9.10311
10.8519
12.8806
15.2321
17.9579
21.1205
24.7968
29.0875
34.099
39.9312
46.6133
53.619
54.5464
10.4492
8.01703e-07
8.48473e-07
9.4742e-06
7.30844e-05
0.000351439
0.00125927
0.00372061
0.00958243
0.0221881
0.0469574
0.0915751
0.165289
0.27734
0.435424
0.645262
0.903549
1.20943
1.58627
2.04921
2.61319
3.29497
4.11334
5.08827
6.23519
7.54857
9.03898
10.7687
12.7746
15.0979
17.7871
20.9012
24.5105
28.7017
33.5883
39.286
45.8934
53.3887
60.9465
59.8182
9.06762
5.18189e-07
3.64547e-06
9.42398e-06
7.29193e-05
0.000350471
0.00125589
0.00370992
0.00955297
0.0221151
0.0467933
0.0912388
0.164675
0.27631
0.433832
0.642943
0.900581
1.20541
1.58065
2.04135
2.60246
3.2803
4.09377
5.062
6.20026
7.50419
8.98093
10.6938
12.6775
14.9745
17.6313
20.7031
24.2566
28.3715
33.145
38.704
45.1732
52.643
61.0136
69.0429
65.1095
7.41649
5.26256e-07
1.08474e-06
5.5653e-05
7.25052e-05
0.000349675
0.00125244
0.00370003
0.00952581
0.0220488
0.0466456
0.0909368
0.164115
0.275374
0.432377
0.640824
0.897869
1.20163
1.57552
2.03439
2.5929
3.26741
4.07593
5.03828
6.16925
7.46422
8.9289
10.6259
12.5902
14.8615
17.4879
20.5222
24.0272
28.0783
32.765
38.1969
44.5139
51.8479
60.272
69.5689
77.9318
70.3255
5.6332
6.21888e-07
1.17073e-06
1.35972e-05
0.000418144
0.00034767
0.00124959
0.00368986
0.00950074
0.0219877
0.046511
0.090666
0.163612
0.274521
0.43105
0.638878
0.89539
1.19818
1.57078
2.028
2.58428
3.25558
4.06004
5.01687
6.14119
7.4283
8.88214
10.5652
12.5112
14.76
17.3567
20.3559
23.8177
27.8131
32.4269
37.7604
43.9354
51.1053
59.4064
68.8794
79.1372
87.6157
75.3587
3.91068
5.66436e-07
1.87251e-06
1.54344e-05
0.000106351
0.00194395
0.00124238
0.00368154
0.00947497
0.021931
0.0463866
0.0904186
0.163159
0.273755
0.429844
0.637107
0.893105
1.19509
1.56652
2.02216
2.57635
3.24507
4.04578
4.99783
6.11587
7.39597
8.84001
10.5105
12.4404
14.6681
17.2389
20.2038
23.6249
27.571
32.1216
37.3722
43.436
50.4493
58.5773
67.9544
78.571
89.7963
98.0699
80.0877
2.45964
5.01669e-07
1.52133e-06
2.89296e-05
0.000122338
0.000508961
0.00677895
0.00366017
0.00945386
0.0218726
0.0462719
0.0901902
0.162747
0.273064
0.428764
0.635499
0.891031
1.19224
1.5625
2.01675
2.56917
3.2353
4.03291
4.98065
6.09307
7.36686
8.80215
10.4613
12.3767
14.5858
17.1323
20.0673
23.4492
27.3485
31.8418
37.0204
42.9909
49.88
57.8357
67.0375
77.608
89.4559
101.615
109.231
84.4421
1.42879
4.9011e-07
1.09642e-06
2.19217e-05
0.000230771
0.00059419
0.00180148
0.0195695
0.00939859
0.0218247
0.0461522
0.0899788
0.162365
0.272434
0.427786
0.634054
0.889135
1.18959
1.55889
2.01178
2.56237
3.22633
4.02137
4.96516
6.07285
7.34074
8.76803
10.417
12.3194
14.5117
17.0366
19.9438
23.2913
27.1452
31.585
36.6984
42.5869
49.3711
57.1899
66.2055
76.6056
88.4903
101.646
114.644
120.984
88.4643
0.823676
4.79196e-07
1.04189e-06
1.38031e-05
0.000171573
0.00111956
0.00213374
0.00526564
0.0492447
0.0216966
0.0460549
0.0897605
0.162011
0.271851
0.426889
0.63275
0.88746
1.18723
1.55564
2.00719
2.55624
3.21811
4.01034
4.95099
6.05455
7.31718
8.73731
10.3771
12.2677
14.4451
16.9507
19.833
23.1485
26.9626
31.3502
36.4025
42.217
48.9082
56.6102
65.476
75.6801
87.4118
100.732
115.251
128.916
132.729
92.4426
0.525141
4.77082e-07
8.44391e-07
1.27431e-05
0.000105824
0.000821485
0.00402283
0.00626325
0.0134101
0.110671
0.0457858
0.0895824
0.161647
0.27131
0.426061
0.631554
0.885932
1.18507
1.55265
2.00309
2.55069
3.21065
4.00037
4.93765
6.03746
7.29587
8.70964
10.3411
12.2211
14.3849
16.8732
19.7334
23.0203
26.7979
31.1404
36.1323
41.8769
48.4838
56.0819
64.8181
74.8604
86.3917
99.5981
114.472
130.374
144.419
143.136
97.1855
0.401484
4.76304e-07
8.30422e-07
9.33514e-06
9.66819e-05
0.000500803
0.00292163
0.0118701
0.0158367
0.0306162
0.223651
0.0890678
0.161352
0.270751
0.425295
0.630443
0.88453
1.18313
1.54993
1.99936
2.54544
3.20379
3.99137
4.92588
6.02163
7.2764
8.68466
10.3088
12.1793
14.3308
16.8033
19.6436
22.9051
26.6498
30.9501
35.8907
41.5667
48.0939
55.5965
64.2165
74.118
85.4785
98.4892
113.315
129.849
147.098
161.096
152.573
103.236
0.361367
4.75735e-07
8.28304e-07
9.15879e-06
7.13318e-05
0.000453884
0.00176212
0.00855253
0.0303737
0.0355337
0.0636144
0.406491
0.160457
0.2703
0.424497
0.629414
0.883237
1.18138
1.54748
1.99595
2.54094
3.19754
3.9828
4.91468
6.00778
7.25844
8.66175
10.2795
12.1415
14.2819
16.7405
19.5627
22.8013
26.5169
30.7796
35.6715
41.2885
47.7375
55.15
63.6634
73.4354
84.6449
97.4798
112.129
128.724
146.999
165.485
178.824
161.338
105.06
0.35288
4.74942e-07
8.26936e-07
9.11114e-06
6.99471e-05
0.000340347
0.00158503
0.00509472
0.0217637
0.0692098
0.0722498
0.121261
0.667525
0.268878
0.423858
0.628345
0.882027
1.17978
1.54526
1.99295
2.53676
3.19175
3.97545
4.90483
5.99458
7.2419
8.64068
10.2527
12.1072
14.2378
16.6837
19.4898
22.7076
26.3968
30.6261
35.475
41.0367
47.4185
54.7414
63.1529
72.8066
83.8749
96.5507
111.029
127.483
145.986
166.049
185.554
197.389
169.482
98.6895
0.354097
4.74176e-07
8.25118e-07
9.08401e-06
6.94558e-05
0.000333466
0.00121181
0.00454811
0.0127668
0.0494742
0.141654
0.134869
0.213261
1.00378
0.421786
0.627493
0.880774
1.17823
1.54316
1.99014
2.53288
3.18671
3.96838
4.89566
5.98272
7.22681
8.62126
10.228
12.076
14.198
16.6326
19.4239
22.6231
26.2886
30.4876
35.2983
40.8107
47.13
54.3759
62.6865
72.2252
83.1628
95.6865
110
126.3
144.733
165.267
187.102
207.261
216.46
176.786
88.1778
0.357355
4.73598e-07
8.2337e-07
9.05156e-06
6.91856e-05
0.000330659
0.00118634
0.00356079
0.0113397
0.0286025
0.101482
0.260488
0.232629
0.348373
1.40706
0.624682
0.879765
1.17662
1.54126
1.98748
2.52946
3.18209
3.96203
4.88735
5.97152
7.2129
8.6035
10.2052
12.0471
14.1615
16.5863
19.3648
22.547
26.1909
30.3629
35.1392
40.6078
46.8703
54.0454
62.2683
71.6933
82.5026
94.8829
109.037
125.176
143.487
164.063
186.721
210.229
230.489
232.869
182.797
73.7663
0.360502
4.7326e-07
8.22087e-07
9.01977e-06
6.88765e-05
0.000329141
0.00117508
0.00348379
0.00912808
0.0254499
0.0584493
0.188116
0.431796
0.373458
0.533388
1.8696
0.876539
1.17535
1.53919
1.98514
2.5262
3.17778
3.95644
4.87982
5.96173
7.20028
8.58721
10.1844
12.0205
14.1278
16.5438
19.3109
22.4783
26.1026
30.2501
34.9952
40.4246
46.6373
53.7482
61.8912
71.2171
81.8981
94.1364
108.137
124.112
142.275
162.789
185.663
210.492
235.449
255.012
246.553
187.205
56.182
0.363279
4.72256e-07
8.21284e-07
8.99709e-06
6.85705e-05
0.000327447
0.00116906
0.00344792
0.00892758
0.0210556
0.0523822
0.110225
0.316256
0.653632
0.563204
0.773388
2.38622
1.17131
1.53761
1.9825
2.52332
3.17375
3.95134
4.87272
5.95291
7.18872
8.57231
10.1654
11.9961
14.0968
16.5046
19.2614
22.4158
26.0232
30.1486
34.8655
40.2591
46.427
53.4813
61.5508
70.7857
81.3555
93.4512
107.297
123.109
141.111
161.507
184.413
209.713
236.68
262.704
280.47
258.224
190.434
37.377
0.365994
4.03721e-07
8.19513e-07
8.98243e-06
6.83541e-05
0.000325763
0.00116244
0.00342895
0.00883086
0.0205938
0.0444379
0.0996657
0.192875
0.488141
0.921112
0.806091
1.0612
2.95432
1.5326
1.98055
2.52003
3.17009
3.94641
4.86649
5.94461
7.17825
8.5587
10.1479
11.9739
14.0685
16.4686
19.2159
22.3588
25.9511
30.0568
34.7484
40.1098
46.237
53.24
61.2456
70.3981
80.8651
92.8372
106.523
122.168
140.004
160.251
183.094
208.573
236.38
265.345
291.825
306.326
268.212
193.948
20.6024
0.368312
1.13475e-07
6.68643e-07
8.95995e-06
6.82157e-05
0.000324576
0.00115583
0.00340825
0.00878008
0.0203651
0.043483
0.08653
0.176065
0.314822
0.704471
1.23235
1.0867
1.40743
3.57333
1.97455
2.51765
3.16622
3.94167
4.86066
5.93694
7.16871
8.54643
10.132
11.9534
14.0425
16.4355
19.174
22.3059
25.885
29.9733
34.6424
39.9748
46.0656
53.0222
60.9692
70.0491
80.4234
92.2801
105.828
121.3
138.958
159.041
181.764
207.266
235.469
265.794
296.466
322.511
328.409
276.438
197.935
9.02768
0.369882
7.08218e-08
3.53507e-07
6.96916e-06
6.80227e-05
0.000323824
0.00115118
0.00338743
0.00872487
0.020246
0.0430014
0.0847462
0.156152
0.290102
0.482831
0.968367
1.58994
1.42767
1.83271
4.24444
2.51051
3.16309
3.9371
4.85509
5.93017
7.15987
8.53521
10.1175
11.9349
14.0186
16.4052
19.1357
22.2574
25.824
29.8969
34.5464
39.8532
45.9103
52.8254
60.72
69.7341
80.0261
91.7788
105.199
120.519
137.989
157.889
180.46
205.892
234.252
265.285
298.035
329.914
354.276
345.676
282.2
188.307
3.29246
0.37066
9.69829e-08
1.57928e-07
5.37662e-06
5.25662e-05
0.000322828
0.00114825
0.00337295
0.00866963
0.020117
0.0427523
0.0838362
0.15313
0.262235
0.448755
0.702006
1.28571
1.99737
1.84568
2.35393
4.97049
3.15457
3.9332
4.84951
5.92367
7.15161
8.52477
10.1044
11.9179
13.9969
16.3776
19.1006
22.2128
25.7676
29.8263
34.4581
39.7425
45.7703
52.6476
60.4951
69.4496
79.6675
91.3267
104.631
119.809
137.113
156.812
179.204
204.513
232.886
264.273
298.175
333.101
365.413
386.414
358.814
284.389
160.457
1.19189
0.370864
8.20267e-08
1.48989e-07
2.05367e-06
4.11412e-05
0.000248572
0.00114452
0.00336384
0.00863091
0.0199873
0.0424831
0.0833676
0.151576
0.257557
0.412327
0.657226
0.971141
1.66278
2.3967
2.35291
2.98594
5.75692
3.92302
4.84492
5.91637
7.14392
8.51507
10.0922
11.9025
13.9771
16.3523
19.0683
22.172
25.7162
29.7614
34.3765
39.6406
45.6433
52.4873
60.2916
69.1923
79.3431
90.9195
104.12
119.169
136.318
155.84
178.021
203.161
231.463
262.99
297.528
334.224
370.872
402.489
415.214
368.263
283.504
122.768
0.564246
0.370726
7.43108e-08
1.34259e-07
1.4094e-06
1.55324e-05
0.000192867
0.000878082
0.00335244
0.0086067
0.0198968
0.0422116
0.0828621
0.15078
0.255141
0.405626
0.612049
0.913102
1.28756
2.06838
2.90035
2.9643
3.74409
6.61213
4.83203
5.91097
7.13577
8.50593
10.0807
11.8881
13.9592
16.3291
19.039
22.1348
25.669
29.7018
34.3014
39.5468
45.5262
52.3409
60.1074
68.9592
79.0497
90.5508
103.658
118.592
135.598
154.953
176.949
201.879
230.038
261.576
296.44
334.174
373.431
411.077
440.421
436.981
374.096
283.715
80.1544
0.398501
0.370349
7.0346e-08
1.3057e-07
1.38334e-06
1.05059e-05
7.26334e-05
0.000674604
0.00256275
0.00857697
0.0198404
0.0420226
0.0823503
0.149922
0.253912
0.402149
0.603002
0.862153
1.21411
1.6738
2.55134
3.52763
3.69475
4.63895
7.47563
5.89469
7.12932
8.49627
10.07
11.8747
13.9424
16.3082
19.0122
22.1004
25.6258
29.647
34.2329
39.4603
45.4183
52.2068
59.94
68.7488
78.7844
90.2173
103.24
118.069
134.95
154.15
175.969
200.707
228.665
260.113
295.117
333.445
374.296
415.665
453.214
478.193
452.499
376.246
286.102
41.9315
0.358898
0.369716
6.83042e-08
1.26913e-07
1.44054e-06
1.04175e-05
4.95875e-05
0.000254044
0.00195323
0.00653546
0.0197721
0.0419051
0.0819948
0.149048
0.252577
0.400393
0.598316
0.851007
1.15325
1.5829
2.13679
3.14946
4.28188
4.56191
5.65399
8.44482
7.10872
8.48867
10.0586
11.862
13.9266
16.2888
18.9878
22.0694
25.5861
29.5969
34.1699
39.3809
45.3188
52.0825
59.7861
68.5576
78.5443
89.9148
102.861
117.597
134.363
153.427
175.077
199.631
227.402
258.673
293.671
332.324
374.155
417.877
460.62
496.515
509.494
462.111
374.43
250.616
16.5709
0.350045
0.369247
6.87109e-08
1.2477e-07
1.43338e-06
1.09112e-05
4.92879e-05
0.000175602
0.000737581
0.00496065
0.0150312
0.041764
0.081775
0.148442
0.251227
0.398488
0.595967
0.845402
1.13905
1.50998
2.03106
2.69901
3.87418
5.16936
5.57835
6.80612
9.63938
8.46396
10.0497
11.8488
13.9119
16.2704
18.9651
22.0411
25.5503
29.5514
34.112
39.3082
45.2274
51.9683
59.6437
68.3817
78.3259
89.642
102.518
117.17
133.831
152.769
174.272
198.652
226.238
257.338
292.207
330.982
373.404
418.636
464.752
507.739
539.866
531.818
465.503
368.838
193.151
5.23739
0.348195
0.369011
7.04128e-08
1.25681e-07
1.42435e-06
1.08808e-05
5.16658e-05
0.000174695
0.000516636
0.00188683
0.0114314
0.0317257
0.0815107
0.148071
0.250283
0.396553
0.593422
0.842638
1.13191
1.492
1.94681
2.57184
3.37781
4.73547
6.20112
6.74083
8.13345
11.0938
10.02
11.8383
13.8963
16.2531
18.9437
22.0149
25.5174
29.5098
34.0593
39.2416
45.1436
51.8635
59.5127
68.2186
78.1251
89.3936
102.208
116.781
133.35
152.173
173.54
197.764
225.172
256.096
290.828
329.556
372.29
418.492
466.837
514.541
556.157
579.317
545.738
462.133
363.643
125.304
1.59397
0.347701
0.368871
7.34314e-08
1.28551e-07
1.43639e-06
1.08232e-05
5.15549e-05
0.00018316
0.000514069
0.0013394
0.00441062
0.0243794
0.0619929
0.147624
0.249711
0.395206
0.590823
0.839603
1.12834
1.48296
1.92404
2.4766
3.2236
4.18855
5.74213
7.38827
8.03546
9.65799
12.807
11.8028
13.884
16.235
18.9237
21.9899
25.4867
29.4717
34.0113
39.1812
45.0672
51.7673
59.3927
68.0683
77.9387
89.1638
101.925
116.43
132.912
151.633
172.877
196.957
224.202
254.948
289.523
328.178
370.992
417.782
467.624
518.521
566.589
604.597
607.687
550.972
452.728
341.524
63.1391
0.623892
0.347538
0.368768
7.73205e-08
1.33598e-07
1.4671e-06
1.09163e-05
5.12968e-05
0.000182858
0.000538974
0.00133228
0.00317157
0.00964626
0.0486423
0.11261
0.249024
0.394398
0.58903
0.836546
1.12456
1.47862
1.91288
2.44841
3.11433
4.00196
5.14466
6.89172
8.72768
9.52216
11.4049
14.7562
13.8414
16.2204
18.9025
21.9667
25.4581
29.4366
33.9672
39.1257
44.9974
51.6789
59.2819
67.9302
77.7664
88.9509
101.665
116.111
132.516
151.142
172.274
196.222
223.318
253.905
288.319
326.859
369.694
416.753
467.564
520.673
573.21
619.869
649.493
625.348
546.956
441.475
267.819
23.2471
0.393672
0.347483
0.368691
8.14498e-08
1.40089e-07
1.52059e-06
1.11507e-05
5.17451e-05
0.000181991
0.00053836
0.00139662
0.00315195
0.00701706
0.0200458
0.0912395
0.190688
0.393417
0.587953
0.834416
1.12076
1.47405
1.90756
2.43471
3.07969
3.87617
4.92295
6.24725
8.16115
10.2067
11.2259
13.4022
16.954
16.1695
18.8855
21.9421
25.4308
29.4031
33.9264
39.0749
44.9333
51.599
59.1807
67.8041
77.6094
88.7556
101.423
115.815
132.155
150.697
171.725
195.554
222.512
252.949
287.212
325.619
368.41
415.637
466.997
521.609
577.309
630.092
672.902
681.846
631.886
534.218
431.504
177.064
6.60344
0.343966
0.347463
0.36866
8.51298e-08
1.46822e-07
1.58904e-06
1.15576e-05
5.28679e-05
0.000183612
0.000535956
0.00139578
0.00330315
0.00696288
0.0147199
0.0399842
0.161152
0.302217
0.586626
0.833178
1.11807
1.46938
1.9019
2.42837
3.06342
3.83375
4.77863
5.99655
7.47105
9.61536
11.8928
13.1749
15.6809
19.4618
18.8243
21.9222
25.4023
29.3716
33.888
39.0279
44.8752
51.5257
59.0885
67.688
77.4649
88.5753
101.201
115.542
131.822
150.292
171.229
194.947
221.778
252.075
286.193
324.471
367.181
414.478
466.216
521.77
579.7
636.903
687.928
721.067
701.677
626.622
515.833
386.909
89.9709
1.76802
0.33409
0.34744
0.36865
8.82771e-08
1.52621e-07
1.65822e-06
1.20764e-05
5.48091e-05
0.000187641
0.000540837
0.00138997
0.00330309
0.0072929
0.0145704
0.0295483
0.0769951
0.268275
0.451097
0.831591
1.1166
1.46616
1.89615
2.42174
3.05543
3.81412
4.72732
5.83451
7.20656
8.87909
11.278
13.8124
15.4008
18.2761
22.3088
21.8492
25.3793
29.3383
33.8517
38.9836
44.821
51.4584
59.0045
67.5825
77.3318
88.4107
100.997
115.288
131.512
149.916
170.776
194.393
221.111
251.279
285.261
323.41
366.036
413.331
465.306
521.539
580.953
641.361
698.437
744.946
755.237
708.171
609.96
499.542
286.344
32.2471
0.619305
0.332278
0.347423
0.36863
9.09349e-08
1.57332e-07
1.71571e-06
1.25985e-05
5.72755e-05
0.000194581
0.000552845
0.00140294
0.00329043
0.00729743
0.0152475
0.0291376
0.0570651
0.143416
0.421913
0.631664
1.11452
1.464
1.89206
2.41419
3.04703
3.80397
4.70247
5.77438
7.03647
8.57459
10.4951
13.1755
15.9956
17.9391
21.227
25.5365
25.2921
29.3118
33.8132
38.9414
44.7696
51.3963
58.9273
67.4865
77.2117
88.2601
100.809
115.057
131.227
149.568
170.356
193.89
220.502
250.55
284.406
322.431
364.957
412.237
464.342
521.053
581.575
644.194
705.75
760.381
793.99
775.099
700.345
585.893
480.52
171.257
8.49608
0.376885
0.331976
0.347426
0.368586
9.32719e-08
1.61178e-07
1.75963e-06
1.30312e-05
5.97509e-05
0.000203355
0.000573427
0.00143444
0.00332176
0.00727212
0.0152675
0.0304502
0.0559554
0.106301
0.257948
0.629829
0.871018
1.46134
1.88943
2.40911
3.03811
3.79306
4.69106
5.74468
6.97229
8.38416
10.1462
12.346
15.3377
18.4759
20.8307
24.5766
29.1943
29.2082
33.7823
38.8969
44.721
51.3373
58.8558
67.3982
77.1016
88.1222
100.637
114.843
130.964
149.247
169.966
193.423
219.946
249.888
283.624
321.531
363.96
411.198
463.387
520.419
581.753
646.067
710.818
771.573
820.588
827.592
779.398
678.792
563.892
371.781
74.0667
2.0316
0.330412
0.33194
0.347435
0.368531
9.55042e-08
1.64544e-07
1.79388e-06
1.33601e-05
6.18028e-05
0.000212142
0.000599314
0.00148812
0.00339704
0.00734243
0.0152201
0.0305125
0.0583553
0.103389
0.191127
0.446037
0.898298
1.15007
1.88616
2.40619
3.03238
3.78311
4.67883
5.73167
6.94148
8.30882
9.93317
11.948
14.462
17.7984
21.2921
24.1204
28.3745
33.3385
33.6588
38.8614
44.67
51.2815
58.7887
67.3162
77.001
87.9965
100.48
114.648
130.722
148.95
169.605
192.988
219.43
249.279
282.908
320.705
363.037
410.221
462.455
519.723
581.651
647.247
714.483
779.712
836.922
867.585
845.015
766.868
648.451
543.077
237.384
21.6118
0.633171
0.322314
0.331948
0.347442
0.368468
9.79566e-08
1.67952e-07
1.82364e-06
1.36152e-05
6.33603e-05
0.000219424
0.000625172
0.00155524
0.00352449
0.00750934
0.015368
0.030428
0.0585186
0.107495
0.183819
0.331584
0.737112
1.23289
1.48535
2.40214
3.02878
3.77683
4.66638
5.7185
6.92683
8.27273
9.84496
11.7097
14.0104
16.8778
20.5958
24.4877
27.8596
32.6747
38.0329
38.715
44.629
51.2225
58.7245
67.2389
76.9074
87.8815
100.337
114.471
130.501
148.679
169.273
192.586
218.948
248.713
282.249
319.946
362.186
409.309
461.553
518.997
581.387
647.952
717.106
785.866
849.209
897.116
897.915
844.409
738.748
619.941
428.93
111.541
4.8557
0.366803
0.321042
0.33196
0.347445
0.368419
1.00979e-07
1.71643e-07
1.85609e-06
1.38362e-05
6.45674e-05
0.000224949
0.000646584
0.00162209
0.00368277
0.00779056
0.0157152
0.0307187
0.0583712
0.107871
0.190315
0.314317
0.554936
1.15951
1.63939
1.88634
3.02319
3.77296
4.65899
5.70354
6.91119
8.25556
9.80259
11.6067
13.7439
16.3675
19.6316
23.7725
28.1117
32.1051
37.5389
43.351
44.4555
51.1753
58.6568
67.1655
76.8186
87.7749
100.206
114.308
130.301
148.429
168.967
192.215
218.503
248.185
281.639
319.248
361.397
408.455
460.705
518.264
581.013
648.358
718.997
790.531
858.753
916.911
940.007
909.892
824.435
701.61
591.474
276.323
34.4001
1.13255
0.320926
0.320865
0.331973
0.347441
0.368388
1.0478e-07
1.76926e-07
1.89061e-06
1.40789e-05
6.56104e-05
0.000229223
0.000662813
0.00167735
0.00383981
0.00813693
0.0162975
0.0313981
0.0588998
0.107612
0.191089
0.323654
0.516944
0.896302
1.73584
2.12436
2.36415
3.76573
4.65463
5.69444
6.89593
8.23737
9.78236
11.5571
13.6237
16.0698
19.0581
22.7671
27.3775
32.2205
36.9214
43.0358
49.3752
50.9705
58.6025
67.0881
76.7349
87.6737
100.085
114.16
130.117
148.202
168.689
191.875
218.092
247.695
281.064
318.596
360.671
407.667
459.897
517.551
580.57
648.532
720.389
794.105
866.227
930.991
972.377
964.323
901.354
787.841
666.089
457.716
130.215
7.50837
0.440951
0.313761
0.320849
0.331978
0.347438
0.36837
1.09516e-07
1.83668e-07
1.94865e-06
1.43364e-05
6.67567e-05
0.000232909
0.000675344
0.00171917
0.00396936
0.00847892
0.0170087
0.0325349
0.0601456
0.108488
0.190611
0.325076
0.528812
0.818822
1.39837
2.48157
2.69516
2.9316
4.64615
5.68935
6.88577
8.2198
9.76119
11.5332
13.5655
15.9298
18.7258
22.1259
26.3332
31.4653
36.8766
42.3796
49.2431
56.1986
58.3612
67.0255
76.6464
87.5788
99.9702
114.022
129.949
147.995
168.433
191.563
217.715
247.244
280.531
317.982
359.99
406.931
459.144
516.854
580.1
648.558
721.392
796.911
872.138
942.248
997.547
1008.77
967.7
871.254
744.934
620.761
285.14
39.2145
1.55059
0.326131
0.312751
0.320851
0.331986
0.347436
0.368282
1.15244e-07
1.92213e-07
2.0236e-06
1.47756e-05
6.79723e-05
0.000236959
0.000686121
0.00175138
0.00406707
0.00876012
0.0177064
0.0339106
0.0622365
0.110612
0.191894
0.324146
0.531153
0.831546
1.25206
2.10475
3.40663
3.35953
3.60328
5.67998
6.8796
8.20827
9.74119
11.5085
13.5372
15.8614
18.5634
21.7559
25.6206
30.3857
36.0977
42.1518
48.56
56.2482
63.9279
66.7428
76.5744
87.4775
99.8615
113.892
129.794
147.806
168.202
191.279
217.368
246.829
280.041
317.41
359.345
406.237
458.433
516.19
579.604
648.478
722.113
799.115
876.923
951.333
1015.84
1044.89
1024.06
947.858
824.919
702.072
455.952
126.22
8.06873
0.493782
0.308879
0.31262
0.320856
0.331996
0.347443
0.368172
1.21953e-07
2.02582e-07
2.11999e-06
1.53437e-05
7.00509e-05
0.000241253
0.000697977
0.00177899
0.00414208
0.00897123
0.0182774
0.0352501
0.0647405
0.114213
0.195217
0.325718
0.529316
0.834983
1.26206
1.85309
3.05415
4.51805
4.12455
4.39571
6.87053
8.20125
9.72795
11.4855
13.5082
15.8278
18.4829
21.5675
25.2092
29.5981
34.9859
41.3447
48.1264
55.5522
64.1503
72.6827
76.2444
87.3956
99.7469
113.769
129.647
147.631
167.988
191.019
217.05
246.447
279.588
316.88
358.74
405.577
457.755
515.554
579.11
648.315
722.636
800.85
880.811
958.839
1029.15
1073.9
1071.35
1015.3
906.015
776.103
613.612
263.906
34.4158
1.55445
0.327983
0.306533
0.312604
0.320863
0.332015
0.347442
0.368055
1.29508e-07
2.14677e-07
2.23728e-06
1.60747e-05
7.27384e-05
0.000248613
0.000710547
0.00180941
0.00420618
0.00913234
0.0187035
0.0363382
0.0671556
0.118484
0.200985
0.330415
0.530705
0.831425
1.26652
1.85474
2.66144
4.27987
5.82194
4.99918
5.32739
8.19063
9.72
11.4705
13.4821
15.7938
18.4427
21.4731
24.9918
29.1427
34.1211
40.204
47.285
54.8912
63.4563
73.0609
82.5967
87.0116
99.653
113.639
129.508
147.466
167.792
190.783
216.766
246.099
279.175
316.394
358.185
404.957
457.105
514.934
578.618
648.101
722.982
802.253
883.988
965.041
1040.3
1097.51
1111.16
1073.85
980.633
850.587
725.547
420.36
102.963
6.45774
0.477476
0.304493
0.306245
0.312608
0.32088
0.33203
0.34743
0.367928
1.37763e-07
2.28232e-07
2.37371e-06
1.69647e-05
7.61976e-05
0.000258123
0.000732119
0.00184164
0.00427677
0.0092694
0.0190254
0.0371414
0.0690969
0.122553
0.20777
0.33897
0.5366
0.831646
1.25997
1.8597
2.64732
3.71853
5.81208
7.32497
5.99323
6.41936
9.7077
11.4614
13.4649
15.7637
18.4026
21.425
24.881
28.8921
33.6193
39.2604
46.1188
54.0068
62.5477
72.3835
83.1077
93.8204
99.2084
113.532
129.361
147.31
167.608
190.565
216.505
245.783
278.795