# Wall heat-flux
# Time        	patch         	min           	max           	integral      
0             	base	1.076007e+06	1.256434e+06	2.515569e+03
