# Wall heat-flux
# Time        	patch         	min           	max           	integral      
11500         	base	-2.240960e+05	-5.538275e+03	-1.330281e+02
