# p  FACE_DATA 317
# x  y  z  p
-2.24217 0 0.27 23911.5
-2.12942 0 0.27 23883.7
-2.02231 0 0.27 23857
-1.92055 0 0.27 23846.7
-1.82389 0 0.27 23844
-1.73207 0 0.27 23839
-1.64485 0 0.27 23831.3
-1.562 0 0.27 23826.7
-1.48331 0 0.27 23826.4
-1.40856 0 0.27 23824.3
-1.33756 0 0.27 23816.4
-1.27013 0 0.27 23802.4
-1.20608 0 0.27 23783.9
-1.14539 0 0.27 23762.5
-1.08787 0 0.27 23743
-1.03323 0 0.27 23725.7
-0.981322 0 0.27 23710.7
-0.932014 0 0.27 23698.6
-0.885173 0 0.27 23689.3
-0.84068 0 0.27 23682.4
-0.798416 0 0.27 23677.6
-0.758473 0 0.27 23674.5
-0.720912 0 0.27 23672.9
-0.685558 0 0.27 23672.2
-0.652245 0 0.27 23672.1
-0.620811 0 0.27 23672.1
-0.591171 0 0.27 23671.9
-0.563165 0 0.27 23672.2
-0.536572 0 0.27 23673.1
-0.51125 0 0.27 23674.6
-0.487059 0 0.27 23677.1
-0.463863 0 0.27 23680.5
-0.441526 0 0.27 23684.8
-0.419915 0 0.27 23689.8
-0.398896 0 0.27 23695.4
-0.378338 0 0.27 23701.1
-0.358104 0 0.27 23706.8
-0.33806 0 0.27 23710.3
-0.318069 0 0.27 23738.3
-0.296809 0 0.27 23756.3
-0.275112 0 0.27 23738.5
-0.255001 0 0.27 23734.7
-0.23636 0 0.27 23762.5
-0.219081 0 0.27 23753.7
-0.203066 0 0.27 23731.2
-0.188221 0 0.27 23728.9
-0.174462 0 0.27 23726.6
-0.161708 0 0.27 23726.8
-0.149886 0 0.27 23727.8
-0.138929 0 0.27 23727.4
-0.128773 0 0.27 23727.8
-0.119359 0 0.27 23727.2
-0.110632 0 0.27 23727.2
-0.102544 0 0.27 23727.2
-0.0950472 0 0.27 23727.9
-0.0880983 0 0.27 23728.1
-0.0816572 0 0.27 23728.3
-0.0756869 0 0.27 23727.7
-0.070153 0 0.27 23734.8
-0.0650234 0 0.27 23960
-0.0602687 0 0.27 27780.6
-0.0558616 0 0.27 36806.4
-0.0517765 0 0.27 42860.3
-0.0479899 0 0.27 45746.3
-0.04448 0 0.27 47639.2
-0.0412265 0 0.27 49090
-0.0382106 0 0.27 50108.9
-0.0354151 0 0.27 50970.9
-0.0328237 0 0.27 51720.5
-0.0304215 0 0.27 52361.9
-0.0281948 0 0.27 52926
-0.0261306 0 0.27 53428.5
-0.0242171 0 0.27 53880.8
-0.0224431 0 0.27 54290.4
-0.0207985 0 0.27 54660.9
-0.0192738 0 0.27 54997.2
-0.0178602 0 0.27 55303
-0.0165496 0 0.27 55580.9
-0.0153345 0 0.27 55832.9
-0.0142077 0 0.27 56062.4
-0.0131629 0 0.27 56271.8
-0.0121939 0 0.27 56463.3
-0.0112952 0 0.27 56639
-0.0104616 0 0.27 56801.2
-0.0096884 0 0.27 56951.4
-0.00897103 0 0.27 57091.2
-0.00830536 0 0.27 57221.8
-0.00768758 0 0.27 57344.3
-0.0071141 0 0.27 57459.4
-0.00658165 0 0.27 57567.8
-0.00608714 0 0.27 57670.3
-0.00562772 0 0.27 57767.3
-0.00520074 0 0.27 57859.1
-0.00480375 0 0.27 57946.1
-0.00443446 0 0.27 58028.4
-0.00409073 0 0.27 58106.3
-0.00377059 0 0.27 58179.6
-0.00347218 0 0.27 58251.3
-0.00319379 0 0.27 58319.6
-0.00293381 0 0.27 58381.8
-0.00269075 0 0.27 58441.3
-0.00246319 0 0.27 58497.6
-0.00224984 0 0.27 58551
-0.00204945 0 0.27 58601.3
-0.00186089 0 0.27 58649.1
-0.00168306 0 0.27 58693.9
-0.00151492 0 0.27 58736.6
-0.00135552 0 0.27 58776.2
-0.00120394 0 0.27 58814
-0.00105929 0 0.27 58848.4
-0.000920752 0 0.27 58881.5
-0.000787523 0 0.27 58910.6
-0.000658834 0 0.27 58937.5
-0.000533942 0 0.27 58960.3
-0.000412129 0 0.27 58976.7
-0.000292693 0 0.27 58992.8
-0.000174943 0 0.27 58971.9
-5.82025e-05 0 0.27 59178.1
6.0278e-05 2.68374e-05 0.27 58455
0.000182584 8.12915e-05 0.27 58681.4
0.000308438 0.000137325 0.27 58638.8
0.000437939 0.000194983 0.27 58623.1
0.00057119 0.00025431 0.27 58608.3
0.000708293 0.000315353 0.27 58605.8
0.000849358 0.000378158 0.27 58613.3
0.000994492 0.000442776 0.27 58625.8
0.00114381 0.000509256 0.27 58645.6
0.00129743 0.000577649 0.27 58668.6
0.00145545 0.000648007 0.27 58697.1
0.00161801 0.000720386 0.27 58728.6
0.00178523 0.000794839 0.27 58764.6
0.00195724 0.000871423 0.27 58803.4
0.00213417 0.000950195 0.27 58846.1
0.00231614 0.00103122 0.27 58891.6
0.0025033 0.00111455 0.27 58940.7
0.00269579 0.00120024 0.27 58992.6
0.00289374 0.00128838 0.27 59047.7
0.00309731 0.00137901 0.27 59105.9
0.00330663 0.00147221 0.27 59167.3
0.00352187 0.00156804 0.27 59232.5
0.00374317 0.00166657 0.27 59300.5
0.0039707 0.00176788 0.27 59371.1
0.00420463 0.00187202 0.27 59445
0.00444512 0.0019791 0.27 59522.1
0.00469233 0.00208916 0.27 59602.7
0.00494645 0.0022023 0.27 59686.6
0.00520763 0.00231859 0.27 59774
0.00547608 0.00243811 0.27 59864.9
0.00575197 0.00256094 0.27 59959.4
0.00603549 0.00268717 0.27 60057.5
0.00632683 0.00281688 0.27 60159.3
0.00662618 0.00295016 0.27 60264.9
0.00693375 0.0030871 0.27 60374.4
0.00724974 0.0032278 0.27 60487.9
0.00757435 0.00337232 0.27 60605.6
0.0079078 0.00352077 0.27 60727.5
0.00825029 0.00367327 0.27 60853.8
0.00860204 0.00382988 0.27 60984.6
0.00896328 0.00399071 0.27 61120
0.00933422 0.00415586 0.27 61260.3
0.0097151 0.00432544 0.27 61405.6
0.0101061 0.00449954 0.27 61556.1
0.0105076 0.00467828 0.27 61712.1
0.0109197 0.00486175 0.27 61873.6
0.0113426 0.00505007 0.27 62040.9
0.0117768 0.00524333 0.27 62214.3
0.0122222 0.00544166 0.27 62394.2
0.0126792 0.00564515 0.27 62580.6
0.0131482 0.00585394 0.27 62774.1
0.0136292 0.00606812 0.27 62974.6
0.0141227 0.00628781 0.27 63182.8
0.0146288 0.00651313 0.27 63398.6
0.0151477 0.00674419 0.27 63622.3
0.0156799 0.00698113 0.27 63854.3
0.0162254 0.00722403 0.27 64094.8
0.0167847 0.00747303 0.27 64344
0.017358 0.00772826 0.27 64602.1
0.0179454 0.00798982 0.27 64869.4
0.0185474 0.00825783 0.27 65145.9
0.0191641 0.00853242 0.27 65432.1
0.0197959 0.00881371 0.27 65728.1
0.0204431 0.00910183 0.27 66033.9
0.0211057 0.00939688 0.27 66349.6
0.0217843 0.00969898 0.27 66675.3
0.0224789 0.0100083 0.27 67011
0.02319 0.0103248 0.27 67356.7
0.0239176 0.0106488 0.27 67712.8
0.0246623 0.0109804 0.27 68078.9
0.025424 0.0113195 0.27 68455.4
0.0262032 0.0116664 0.27 68842.5
0.0270001 0.0120212 0.27 69240.3
0.0278149 0.012384 0.27 69648.6
0.0286479 0.0127549 0.27 70067.9
0.0294992 0.0131339 0.27 70497.6
0.0303692 0.0135212 0.27 70938.1
0.0312581 0.013917 0.27 71389
0.0321659 0.0143213 0.27 71850.1
0.0330931 0.014734 0.27 72321.5
0.0340398 0.0151555 0.27 72803
0.0350062 0.0155858 0.27 73294.2
0.0359924 0.0160249 0.27 73794.8
0.0369987 0.0164729 0.27 74305.5
0.0380251 0.0169299 0.27 74825
0.0390719 0.0173959 0.27 75353.4
0.0401391 0.0178711 0.27 75890.4
0.041227 0.0183554 0.27 76434.8
0.0423356 0.018849 0.27 76987.8
0.043465 0.0193519 0.27 77548.7
0.0446154 0.0198641 0.27 78115.4
0.0457867 0.0203856 0.27 78687.9
0.046979 0.0209164 0.27 79264.2
0.0481924 0.0214567 0.27 79843.6
0.0494267 0.0220063 0.27 80423.8
0.0506823 0.0225652 0.27 81002.8
0.0519588 0.0231335 0.27 81578.8
0.0532563 0.0237113 0.27 82149.1
0.0545749 0.0242983 0.27 82712.2
0.0559142 0.0248946 0.27 83265
0.0572744 0.0255002 0.27 83806.6
0.0586552 0.0261149 0.27 84335
0.0600565 0.0267388 0.27 84850.5
0.0614781 0.0273718 0.27 85353.3
0.0629198 0.0280137 0.27 85843.6
0.0643815 0.0286645 0.27 86324.7
0.0658629 0.029324 0.27 86796.7
0.0673636 0.0299922 0.27 87263.1
0.0688836 0.030669 0.27 87724.8
0.0704223 0.0313541 0.27 88184
0.0719795 0.0320474 0.27 88643.4
0.0735549 0.0327488 0.27 89102.5
0.075148 0.0334581 0.27 89562.3
0.0767585 0.0341751 0.27 90023.4
0.0783859 0.0348996 0.27 90483.6
0.0800297 0.0356315 0.27 90943.6
0.0816895 0.0363706 0.27 91402.3
0.0833647 0.0371164 0.27 91851.5
0.085055 0.0378689 0.27 92290.5
0.0867595 0.0386278 0.27 92709.4
0.0884779 0.0393929 0.27 93104.7
0.0902095 0.0401639 0.27 93474.1
0.0919538 0.0409405 0.27 93815.5
0.09371 0.0417224 0.27 94128.3
0.0954776 0.0425094 0.27 94415.7
0.0972558 0.0433011 0.27 94682.9
0.0990439 0.0440972 0.27 94934.6
0.100841 0.0448975 0.27 95169.6
0.102647 0.0457015 0.27 95391.6
0.104461 0.046509 0.27 95622.1
0.106282 0.0473197 0.27 95845.4
0.108109 0.0481331 0.27 96086.5
0.109941 0.048949 0.27 96324.7
0.111779 0.0497671 0.27 96561
0.11362 0.0505868 0.27 96803.6
0.115464 0.051408 0.27 97078.2
0.117311 0.0522302 0.27 97337.1
0.11916 0.0530531 0.27 97578.5
0.121009 0.0538763 0.27 97858.2
0.122857 0.0546995 0.27 98108.3
0.124705 0.0555223 0.27 98329.9
0.126552 0.0563444 0.27 98542
0.128395 0.0571653 0.27 98738
0.130236 0.0579847 0.27 98914.4
0.132072 0.0588023 0.27 99071.4
0.133904 0.0596177 0.27 99209.6
0.13573 0.0604306 0.27 99315.8
0.137549 0.0612407 0.27 99383.4
0.139361 0.0620475 0.27 99435.9
0.141165 0.0628508 0.27 99452.5
0.14296 0.0636503 0.27 99518.2
0.144747 0.0644455 0.27 99571.8
0.146523 0.0652363 0.27 99619.9
0.148288 0.0660222 0.27 99680.3
0.150042 0.0668031 0.27 99748
0.151784 0.0675785 0.27 99868
0.153513 0.0683483 0.27 99962.5
0.155228 0.0691121 0.27 100093
0.15693 0.0698698 0.27 100262
0.158617 0.070621 0.27 100426
0.160289 0.0713654 0.27 100618
0.161946 0.072103 0.27 100796
0.163586 0.0728334 0.27 100967
0.165211 0.0735564 0.27 101150
0.166817 0.0742718 0.27 101317
0.168406 0.0749795 0.27 101484
0.169978 0.0756793 0.27 101645
0.171532 0.0763709 0.27 101771
0.173067 0.0770543 0.27 101888
0.174583 0.0777293 0.27 101981
0.17608 0.0783958 0.27 102097
0.177557 0.0790535 0.27 102221
0.179014 0.0797025 0.27 102259
0.180452 0.0803425 0.27 102291
0.18187 0.0809736 0.27 102370
0.183266 0.0815956 0.27 102442
0.184643 0.0822085 0.27 102546
0.185999 0.0828122 0.27 102610
0.187334 0.0834066 0.27 102657
0.188648 0.0839917 0.27 102735
0.189942 0.0845675 0.27 102781
0.191214 0.0851339 0.27 102879
0.192465 0.085691 0.27 102940
0.193695 0.0862387 0.27 103029
0.194904 0.086777 0.27 103135
0.196093 0.0873059 0.27 103239
0.197259 0.0878254 0.27 103335
0.198405 0.0883357 0.27 103446
0.19953 0.0888366 0.27 103590
0.200635 0.0893284 0.27 103767
0.201718 0.0898108 0.27 103919
0.202782 0.0902841 0.27 104071
0.203824 0.0907483 0.27 104243
0.204846 0.0912035 0.27 104371
0.205848 0.0916496 0.27 104534
0.206831 0.0920869 0.27 104720
0.207793 0.0925153 0.27 104888
0.208735 0.092935 0.27 105085
0.209658 0.093346 0.27 104952
