# Wall heat-flux
# Time        	patch         	min           	max           	integral      
2500          	base	-2.486785e+05	-7.522074e+03	-6.927441e+02
