# Wall heat-flux
# Time        	patch         	min           	max           	integral      
7200          	base	-1.246376e+04	3.382362e+04	3.945981e+02
