# wallHeatFlux  FACE_DATA 398
# x  y  z  wallHeatFlux
-0.7975 0 0.025 -653677
-0.79239 0 0.025 -120087
-0.787056 0 0.025 -71260.3
-0.781492 0 0.025 -63898.8
-0.775691 0 0.025 -65295.1
-0.769649 0 0.025 -65952.5
-0.763362 0 0.025 -66367.4
-0.756822 0 0.025 -66186.3
-0.750025 0 0.025 -65637.8
-0.742968 0 0.025 -64797.1
-0.735648 0 0.025 -63837.8
-0.72806 0 0.025 -62835
-0.720203 0 0.025 -61864.7
-0.712076 0 0.025 -60964.4
-0.703677 0 0.025 -60148.4
-0.695006 0 0.025 -59363.5
-0.686065 0 0.025 -58615.2
-0.676855 0 0.025 -57957
-0.667379 0 0.025 -57217.4
-0.65764 0 0.025 -56530.9
-0.647644 0 0.025 -55990.9
-0.637397 0 0.025 -55401.3
-0.626906 0 0.025 -54796.6
-0.616179 0 0.025 -54320.6
-0.605224 0 0.025 -53786.1
-0.594054 0 0.025 -53308.4
-0.582678 0 0.025 -52805.6
-0.57111 0 0.025 -52338.3
-0.559364 0 0.025 -51891.4
-0.547454 0 0.025 -51527.4
-0.535396 0 0.025 -51113.4
-0.523205 0 0.025 -50711.1
-0.510901 0 0.025 -50314.3
-0.4985 0 0.025 -49934.4
-0.486021 0 0.025 -49617.6
-0.473483 0 0.025 -49336.2
-0.460905 0 0.025 -49025
-0.448308 0 0.025 -48723.7
-0.435709 0 0.025 -48398.9
-0.42313 0 0.025 -48060.2
-0.41059 0 0.025 -47790.4
-0.39811 0 0.025 -47594.2
-0.385706 0 0.025 -47412.1
-0.373398 0 0.025 -47187
-0.361205 0 0.025 -46928.6
-0.349141 0 0.025 -46668
-0.337226 0 0.025 -46439.6
-0.325475 0 0.025 -46232.1
-0.313901 0 0.025 -46045.9
-0.30252 0 0.025 -45896.5
-0.291343 0 0.025 -45753.6
-0.280382 0 0.025 -45610.7
-0.269646 0 0.025 -45482.9
-0.259148 0 0.025 -45345
-0.248893 0 0.025 -45214.2
-0.23889 0 0.025 -45067.8
-0.229143 0 0.025 -44920.9
-0.219659 0 0.025 -44754.3
-0.210441 0 0.025 -44582.3
-0.201491 0 0.025 -44408.1
-0.192812 0 0.025 -44253
-0.184405 0 0.025 -44108
-0.176269 0 0.025 -44003.9
-0.168404 0 0.025 -43923
-0.160808 0 0.025 -43874.3
-0.15348 0 0.025 -43855.3
-0.146415 0 0.025 -43858.5
-0.13961 0 0.025 -43855.1
-0.133063 0 0.025 -43842.9
-0.126767 0 0.025 -43820.9
-0.120718 0 0.025 -43788.8
-0.11491 0 0.025 -43741.4
-0.109339 0 0.025 -43683.9
-0.103997 0 0.025 -43620.3
-0.0988805 0 0.025 -43539.4
-0.0939808 0 0.025 -43455.8
-0.0892928 0 0.025 -43368.4
-0.0848096 0 0.025 -43281
-0.0805248 0 0.025 -43194
-0.0764316 0 0.025 -43107.4
-0.0725237 0 0.025 -43036.8
-0.0687943 0 0.025 -42967
-0.065237 0 0.025 -42907.2
-0.0618454 0 0.025 -42848.5
-0.058613 0 0.025 -42799.6
-0.0555337 0 0.025 -42757.1
-0.0526013 0 0.025 -42719.4
-0.0498099 0 0.025 -42687.3
-0.0471536 0 0.025 -42660.5
-0.0446266 0 0.025 -42633.8
-0.0422235 0 0.025 -42612.4
-0.039939 0 0.025 -42591.1
-0.0377676 0 0.025 -42574.7
-0.0357044 0 0.025 -42559.4
-0.0337445 0 0.025 -42548.4
-0.0318832 0 0.025 -42505.5
-0.0301159 0 0.025 -41352.9
-0.0284383 0 0.025 -34484.8
-0.0268461 0 0.025 -32349.7
-0.0253353 0 0.025 -49707.8
-0.023902 0 0.025 -61991.1
-0.0225426 0 0.025 -69733.3
-0.0212532 0 0.025 -75457.7
-0.0200306 0 0.025 -80547.6
-0.0188715 0 0.025 -84996
-0.0177728 0 0.025 -88732
-0.0167313 0 0.025 -92034.4
-0.0157444 0 0.025 -95085.7
-0.0148092 0 0.025 -97932.3
-0.0139232 0 0.025 -100619
-0.0130838 0 0.025 -103085
-0.0122887 0 0.025 -105291
-0.0115356 0 0.025 -107251
-0.0108223 0 0.025 -108983
-0.0101469 0 0.025 -110523
-0.00950727 0 0.025 -111888
-0.00890168 0 0.025 -113120
-0.00832835 0 0.025 -114257
-0.00778557 0 0.025 -115364
-0.00727176 0 0.025 -116484
-0.0067854 0 0.025 -117660
-0.00632507 0 0.025 -118911
-0.00588937 0 0.025 -120250
-0.00547703 0 0.025 -121696
-0.0050868 0 0.025 -123245
-0.00471753 0 0.025 -124908
-0.0043681 0 0.025 -126701
-0.00403746 0 0.025 -128628
-0.00372461 0 0.025 -130691
-0.0034286 0 0.025 -132880
-0.00314855 0 0.025 -135252
-0.0028836 0 0.025 -137858
-0.00263294 0 0.025 -140596
-0.00239581 0 0.025 -143206
-0.0021715 0 0.025 -145975
-0.00195929 0 0.025 -148890
-0.00175856 0 0.025 -151910
-0.00156869 0 0.025 -155040
-0.00138908 0 0.025 -158279
-0.0012192 0 0.025 -161586
-0.00105853 0 0.025 -164986
-0.000906546 0 0.025 -168431
-0.000762803 0 0.025 -171792
-0.000626848 0 0.025 -174798
-0.000498265 0 0.025 -176583
-0.000376656 0 0.025 -175280
-0.000261642 0 0.025 -167162
-0.00015287 0 0.025 -145029
-5e-05 0 0.025 -93890.7
4.14519e-05 2.79596e-05 0.025 -66555.1
0.000125371 8.45641e-05 0.025 -80197.5
0.000211347 0.000142556 0.025 -95487.4
0.000299429 0.000201968 0.025 -106566
0.000389669 0.000262835 0.025 -115874
0.000482118 0.000325193 0.025 -124761
0.000576831 0.000389077 0.025 -133143
0.000673861 0.000454524 0.025 -140754
0.000773265 0.000521574 0.025 -147503
0.0008751 0.000590262 0.025 -153454
0.000979426 0.000660632 0.025 -158714
0.0010863 0.000732721 0.025 -163397
0.00119579 0.000806572 0.025 -167735
0.00130795 0.000882227 0.025 -171746
0.00142285 0.00095973 0.025 -175505
0.00154056 0.00103912 0.025 -179131
0.00166115 0.00112046 0.025 -182644
0.00178467 0.00120378 0.025 -186121
0.00191121 0.00128913 0.025 -189594
0.00204083 0.00137656 0.025 -193014
0.00217362 0.00146612 0.025 -196497
0.00230964 0.00155787 0.025 -200038
0.00244897 0.00165185 0.025 -203597
0.00259169 0.00174812 0.025 -207242
0.00273789 0.00184673 0.025 -210998
0.00288765 0.00194774 0.025 -214892
0.00304105 0.00205122 0.025 -218892
0.00319818 0.00215719 0.025 -223023
0.00335912 0.00226575 0.025 -227361
0.00352397 0.00237695 0.025 -231838
0.00369283 0.00249085 0.025 -236525
0.00386579 0.00260751 0.025 -241395
0.00404294 0.00272699 0.025 -246508
0.00422438 0.00284938 0.025 -251883
0.00441022 0.00297474 0.025 -257527
0.00460056 0.00310312 0.025 -263462
0.00479552 0.00323462 0.025 -269683
0.00499519 0.0033693 0.025 -276290
0.00519968 0.00350723 0.025 -283198
0.00540911 0.00364849 0.025 -290579
0.00562361 0.00379318 0.025 -298375
0.00584329 0.00394134 0.025 -306616
0.00606826 0.00409309 0.025 -315457
0.00629865 0.00424849 0.025 -324766
0.0065346 0.00440764 0.025 -334643
0.00677623 0.00457063 0.025 -345154
0.00702368 0.00473753 0.025 -356350
0.00727707 0.00490844 0.025 -368299
0.00753655 0.00508347 0.025 -381131
0.00780227 0.00526269 0.025 -395143
0.00807436 0.00544622 0.025 -410101
0.00835298 0.00563415 0.025 -425742
0.00863826 0.00582659 0.025 -442724
0.00893038 0.00602362 0.025 -461897
0.00922949 0.00622537 0.025 -481797
0.00953574 0.00643195 0.025 -503687
0.00984929 0.00664345 0.025 -527578
0.0101703 0.00686 0.025 -554772
0.0104991 0.00708171 0.025 -585051
0.0108356 0.00730871 0.025 -619447
0.0111801 0.0075411 0.025 -657270
0.0115329 0.00777902 0.025 -696214
0.011894 0.00802259 0.025 -742701
0.0122637 0.00827194 0.025 -786207
0.0126421 0.00852719 0.025 -831679
0.0130295 0.0087885 0.025 -874899
0.013426 0.00905597 0.025 -918969
0.013832 0.00932978 0.025 -962660
0.0142475 0.00961003 0.025 -1.00512e+06
0.0146727 0.0098969 0.025 -1.04649e+06
0.0151081 0.0101905 0.025 -1.0917e+06
0.0155536 0.010491 0.025 -1.1385e+06
0.0160097 0.0107986 0.025 -1.18571e+06
0.0164764 0.0111134 0.025 -1.23689e+06
0.016954 0.0114356 0.025 -1.29086e+06
0.0174427 0.0117653 0.025 -1.34369e+06
0.0179429 0.0121026 0.025 -1.39979e+06
0.0184548 0.0124479 0.025 -1.46598e+06
0.0189786 0.0128013 0.025 -1.512e+06
0.0195146 0.0131628 0.025 -1.5615e+06
0.020063 0.0135327 0.025 -1.61987e+06
0.0206242 0.0139112 0.025 -1.6567e+06
0.0211983 0.0142984 0.025 -1.68298e+06
0.0217857 0.0146947 0.025 -1.716e+06
0.0223867 0.0151 0.025 -1.74413e+06
0.0230015 0.0155147 0.025 -1.76717e+06
0.0236304 0.0159389 0.025 -1.79639e+06
0.0242738 0.0163729 0.025 -1.79659e+06
0.0249318 0.0168167 0.025 -1.80916e+06
0.025605 0.0172708 0.025 -1.81359e+06
0.0262935 0.0177352 0.025 -1.7833e+06
0.0269977 0.0182102 0.025 -1.74937e+06
0.0277178 0.0186959 0.025 -1.70727e+06
0.0284544 0.0191927 0.025 -1.71925e+06
0.0292075 0.0197008 0.025 -1.66467e+06
0.0299777 0.0202203 0.025 -1.61729e+06
0.0307653 0.0207514 0.025 -1.58794e+06
0.0315704 0.0212945 0.025 -1.55772e+06
0.0323937 0.0218499 0.025 -1.53232e+06
0.0332354 0.0224176 0.025 -1.50619e+06
0.0340959 0.022998 0.025 -1.48346e+06
0.0349755 0.0235913 0.025 -1.4523e+06
0.0358747 0.0241978 0.025 -1.45161e+06
0.0367938 0.0248178 0.025 -1.41874e+06
0.0377331 0.0254513 0.025 -1.39619e+06
0.0386932 0.0260989 0.025 -1.37537e+06
0.0396743 0.0267606 0.025 -1.35864e+06
0.0406769 0.0274369 0.025 -1.34559e+06
0.0417013 0.0281279 0.025 -1.3318e+06
0.042748 0.0288339 0.025 -1.33334e+06
0.0438175 0.0295552 0.025 -1.32054e+06
0.04491 0.0302922 0.025 -1.30849e+06
0.0460262 0.031045 0.025 -1.31039e+06
0.0471662 0.031814 0.025 -1.31909e+06
0.0483306 0.0325995 0.025 -1.30871e+06
0.0495199 0.0334016 0.025 -1.30916e+06
0.0507344 0.0342208 0.025 -1.30216e+06
0.0519746 0.0350573 0.025 -1.29768e+06
0.0532409 0.0359114 0.025 -1.30039e+06
0.0545339 0.0367835 0.025 -1.29179e+06
0.0558538 0.0376739 0.025 -1.2934e+06
0.0572012 0.0385827 0.025 -1.2935e+06
0.0585766 0.0395104 0.025 -1.29285e+06
0.0599804 0.0404573 0.025 -1.30076e+06
0.061413 0.0414236 0.025 -1.28216e+06
0.0628748 0.0424096 0.025 -1.30516e+06
0.0643665 0.0434157 0.025 -1.30587e+06
0.0658883 0.0444422 0.025 -1.27895e+06
0.0674408 0.0454894 0.025 -1.26907e+06
0.0690245 0.0465576 0.025 -1.26892e+06
0.0706398 0.0476471 0.025 -1.26534e+06
0.0722871 0.0487582 0.025 -1.2642e+06
0.0739669 0.0498912 0.025 -1.26586e+06
0.0756797 0.0510466 0.025 -1.27465e+06
0.0774258 0.0522244 0.025 -1.28404e+06
0.0792059 0.053425 0.025 -1.27614e+06
0.0810203 0.0546489 0.025 -1.29389e+06
0.0828694 0.0558961 0.025 -1.26535e+06
0.0847537 0.0571671 0.025 -1.30839e+06
0.0866737 0.0584622 0.025 -1.26867e+06
0.0886298 0.0597816 0.025 -1.26845e+06
0.0906224 0.0611256 0.025 -1.27867e+06
0.0926518 0.0624944 0.025 -1.24319e+06
0.0947185 0.0638884 0.025 -1.28436e+06
0.096823 0.065308 0.025 -1.24348e+06
0.0989659 0.0667532 0.025 -1.33147e+06
0.101147 0.0682245 0.025 -1.67984e+06
0.103367 0.0697219 0.025 -1.58981e+06
0.105626 0.0712458 0.025 -1.19977e+06
0.107926 0.0727965 0.025 -1.19518e+06
0.110265 0.074374 0.025 -1.23189e+06
0.112644 0.0759789 0.025 -1.82958e+06
0.115063 0.0776111 0.025 -1.23359e+06
0.117524 0.0792709 0.025 -1.70167e+06
0.120026 0.0809585 0.025 -1.87021e+06
0.122569 0.0826741 0.025 -1.66117e+06
0.125155 0.0844179 0.025 -1.48421e+06
0.127782 0.0861901 0.025 -1.28808e+06
0.130451 0.0879908 0.025 -1.24339e+06
0.133163 0.08982 0.025 -1.22136e+06
0.135918 0.0916781 0.025 -1.19162e+06
0.138716 0.0935651 0.025 -1.19276e+06
0.141556 0.095481 0.025 -1.20186e+06
0.14444 0.097426 0.025 -1.58048e+06
0.147367 0.0994004 0.025 -2.34421e+06
0.150337 0.101404 0.025 -1.66028e+06
0.153351 0.103437 0.025 -1.6103e+06
0.156408 0.105498 0.025 -2.2531e+06
0.159508 0.107589 0.025 -1.02106e+06
0.162651 0.10971 0.025 -1.50758e+06
0.165838 0.111859 0.025 -3.65251e+06
0.169069 0.114039 0.025 -1.6108e+06
0.172343 0.116247 0.025 -1.97491e+06
0.175659 0.118483 0.025 -1.87474e+06
0.179018 0.120749 0.025 -1.87186e+06
0.182421 0.123045 0.025 -1.94478e+06
0.185866 0.125368 0.025 -1.70235e+06
0.189353 0.12772 0.025 -1.73719e+06
0.192882 0.1301 0.025 -1.8419e+06
0.196453 0.132509 0.025 -1.73814e+06
0.200065 0.134946 0.025 -2.18468e+06
0.203718 0.13741 0.025 -1.93515e+06
0.207412 0.139901 0.025 -922707
0.211146 0.14242 0.025 -984478
0.214919 0.144965 0.025 -1.61525e+06
0.218732 0.147537 0.025 -986824
0.222583 0.150134 0.025 -1.94806e+06
0.226472 0.152757 0.025 -975665
0.230399 0.155406 0.025 -1.82641e+06
0.234362 0.15808 0.025 -1.71975e+06
0.238362 0.160777 0.025 -2.35892e+06
0.242396 0.163498 0.025 -1.94399e+06
0.246466 0.166244 0.025 -2.10807e+06
0.250569 0.169012 0.025 -927766
0.254706 0.171801 0.025 -1.52904e+06
0.258874 0.174613 0.025 -1.53239e+06
0.263074 0.177446 0.025 -1.95771e+06
0.267304 0.180299 0.025 -1.57895e+06
0.271564 0.183172 0.025 -946514
0.275852 0.186064 0.025 -1.62194e+06
0.280168 0.188975 0.025 -921490
0.28451 0.191904 0.025 -1.64701e+06
0.288876 0.19485 0.025 -2.28317e+06
0.293268 0.197812 0.025 -1.60454e+06
0.297683 0.20079 0.025 -1.92661e+06
0.302119 0.203782 0.025 -2.00314e+06
0.306577 0.206788 0.025 -1.37907e+06
0.311054 0.209808 0.025 -1.57349e+06
0.315549 0.212841 0.025 -1.16462e+06
0.320063 0.215885 0.025 -2.02924e+06
0.324591 0.218939 0.025 -1.42325e+06
0.329134 0.222003 0.025 -1.40851e+06
0.333691 0.225077 0.025 -2.22397e+06
0.33826 0.228159 0.025 -1.78015e+06
0.342839 0.231248 0.025 -1.82631e+06
0.347428 0.234343 0.025 -871428
0.352025 0.237444 0.025 -1.93148e+06
0.356628 0.240548 0.025 -1.40966e+06
0.361237 0.243658 0.025 -1.15242e+06
0.36585 0.246769 0.025 -2.59029e+06
0.370465 0.249882 0.025 -1.01853e+06
0.375082 0.252996 0.025 -1.43849e+06
0.379698 0.25611 0.025 -2.21793e+06
0.384313 0.259223 0.025 -1.37892e+06
0.388926 0.262333 0.025 -1.70489e+06
0.393534 0.265442 0.025 -1.40444e+06
0.398136 0.268546 0.025 -877755
0.40273 0.271645 0.025 -1.62691e+06
0.407317 0.274739 0.025 -1.67938e+06
0.411894 0.277826 0.025 -2.12169e+06
0.41646 0.280906 0.025 -833017
0.421014 0.283977 0.025 -1.58836e+06
0.425554 0.28704 0.025 -1.86608e+06
0.430079 0.290092 0.025 -1.47996e+06
0.434588 0.293133 0.025 -1.83123e+06
0.439079 0.296162 0.025 -1.27514e+06
0.443551 0.299179 0.025 -1.65928e+06
0.448004 0.302183 0.025 -1.69145e+06
0.452437 0.305172 0.025 -1.65027e+06
0.456846 0.308146 0.025 -1.53308e+06
0.461232 0.311105 0.025 -1.5589e+06
0.465593 0.314047 0.025 -1.44363e+06
0.469929 0.316971 0.025 -1.91323e+06
0.474238 0.319878 0.025 -989937
0.47852 0.322766 0.025 -1.10934e+06
0.482773 0.325635 0.025 -880425
0.486996 0.328483 0.025 -1.32521e+06
0.491189 0.331311 0.025 -2.02287e+06
0.49535 0.334118 0.025 -1.28345e+06
