# wallHeatFlux  FACE_DATA 398
# x  y  z  wallHeatFlux
-0.7975 0 0.025 -653677
-0.79239 0 0.025 -120071
-0.787056 0 0.025 -71302.7
-0.781492 0 0.025 -64322.9
-0.775691 0 0.025 -65730.1
-0.769649 0 0.025 -66382.5
-0.763362 0 0.025 -66786.9
-0.756822 0 0.025 -66552.8
-0.750025 0 0.025 -65967.2
-0.742968 0 0.025 -65132.1
-0.735648 0 0.025 -64162.4
-0.72806 0 0.025 -63133.1
-0.720203 0 0.025 -62136.3
-0.712076 0 0.025 -61236.2
-0.703677 0 0.025 -60436.4
-0.695006 0 0.025 -59651.6
-0.686065 0 0.025 -58887.5
-0.676855 0 0.025 -58229.5
-0.667379 0 0.025 -57495.4
-0.65764 0 0.025 -56803.8
-0.647644 0 0.025 -56237.1
-0.637397 0 0.025 -55669.1
-0.626906 0 0.025 -55069.8
-0.616179 0 0.025 -54583.3
-0.605224 0 0.025 -54065
-0.594054 0 0.025 -53587.5
-0.582678 0 0.025 -53074
-0.57111 0 0.025 -52612.2
-0.559364 0 0.025 -52181.6
-0.547454 0 0.025 -51833.8
-0.535396 0 0.025 -51403.7
-0.523205 0 0.025 -50980
-0.510901 0 0.025 -50588.6
-0.4985 0 0.025 -50230.4
-0.486021 0 0.025 -49951.2
-0.473483 0 0.025 -49659.1
-0.460905 0 0.025 -49315.6
-0.448308 0 0.025 -48992.7
-0.435709 0 0.025 -48678.7
-0.42313 0 0.025 -48377.7
-0.41059 0 0.025 -48118.6
-0.39811 0 0.025 -47922.3
-0.385706 0 0.025 -47707.9
-0.373398 0 0.025 -47471.9
-0.361205 0 0.025 -47235
-0.349141 0 0.025 -47006.5
-0.337226 0 0.025 -46788.8
-0.325475 0 0.025 -46570.4
-0.313901 0 0.025 -46362.7
-0.30252 0 0.025 -46175.6
-0.291343 0 0.025 -46021.9
-0.280382 0 0.025 -45889.6
-0.269646 0 0.025 -45777.9
-0.259148 0 0.025 -45672
-0.248893 0 0.025 -45557.1
-0.23889 0 0.025 -45416
-0.229143 0 0.025 -45269
-0.219659 0 0.025 -45102.4
-0.210441 0 0.025 -44935.6
-0.201491 0 0.025 -44761.3
-0.192812 0 0.025 -44611.6
-0.184405 0 0.025 -44477.1
-0.176269 0 0.025 -44378.3
-0.168404 0 0.025 -44297.4
-0.160808 0 0.025 -44248.6
-0.15348 0 0.025 -44213.6
-0.146415 0 0.025 -44195.4
-0.13961 0 0.025 -44159.9
-0.133063 0 0.025 -44115.6
-0.126767 0 0.025 -44061.5
-0.120718 0 0.025 -43997.3
-0.11491 0 0.025 -43923.2
-0.109339 0 0.025 -43849.6
-0.103997 0 0.025 -43775.3
-0.0988805 0 0.025 -43699.8
-0.0939808 0 0.025 -43621.6
-0.0892928 0 0.025 -43544.8
-0.0848096 0 0.025 -43473.5
-0.0805248 0 0.025 -43413.3
-0.0764316 0 0.025 -43364.1
-0.0725237 0 0.025 -43331
-0.0687943 0 0.025 -43298.7
-0.065237 0 0.025 -43271.1
-0.0618454 0 0.025 -43249.9
-0.058613 0 0.025 -43227.8
-0.0555337 0 0.025 -43212.2
-0.0526013 0 0.025 -43201.2
-0.0498099 0 0.025 -43190.6
-0.0471536 0 0.025 -43180
-0.0446266 0 0.025 -43169.4
-0.0422235 0 0.025 -43164.2
-0.039939 0 0.025 -43158.9
-0.0377676 0 0.025 -43148
-0.0357044 0 0.025 -43143.5
-0.0337445 0 0.025 -43143.2
-0.0318832 0 0.025 -43105.8
-0.0301159 0 0.025 -42023
-0.0284383 0 0.025 -35267.6
-0.0268461 0 0.025 -32907.3
-0.0253353 0 0.025 -50222.6
-0.023902 0 0.025 -62538.2
-0.0225426 0 0.025 -70173.1
-0.0212532 0 0.025 -75811.8
-0.0200306 0 0.025 -80848.1
-0.0188715 0 0.025 -85216.1
-0.0177728 0 0.025 -88887.7
-0.0167313 0 0.025 -92174
-0.0157444 0 0.025 -95219.9
-0.0148092 0 0.025 -98066.5
-0.0139232 0 0.025 -100764
-0.0130838 0 0.025 -103230
-0.0122887 0 0.025 -105436
-0.0115356 0 0.025 -107385
-0.0108223 0 0.025 -109102
-0.0101469 0 0.025 -110604
-0.00950727 0 0.025 -111915
-0.00890168 0 0.025 -113066
-0.00832835 0 0.025 -114112
-0.00778557 0 0.025 -115122
-0.00727176 0 0.025 -116145
-0.0067854 0 0.025 -117229
-0.00632507 0 0.025 -118415
-0.00588937 0 0.025 -119727
-0.00547703 0 0.025 -121168
-0.0050868 0 0.025 -122760
-0.00471753 0 0.025 -124487
-0.0043681 0 0.025 -126367
-0.00403746 0 0.025 -128412
-0.00372461 0 0.025 -130599
-0.0034286 0 0.025 -132934
-0.00314855 0 0.025 -135452
-0.0028836 0 0.025 -138194
-0.00263294 0 0.025 -141057
-0.00239581 0 0.025 -143781
-0.0021715 0 0.025 -146665
-0.00195929 0 0.025 -149663
-0.00175856 0 0.025 -152750
-0.00156869 0 0.025 -155931
-0.00138908 0 0.025 -159212
-0.0012192 0 0.025 -162555
-0.00105853 0 0.025 -165961
-0.000906546 0 0.025 -169411
-0.000762803 0 0.025 -172769
-0.000626848 0 0.025 -175746
-0.000498265 0 0.025 -177491
-0.000376656 0 0.025 -176144
-0.000261642 0 0.025 -168035
-0.00015287 0 0.025 -145984
-5e-05 0 0.025 -94539.2
4.14519e-05 2.79596e-05 0.025 -66972.6
0.000125371 8.45641e-05 0.025 -80487.4
0.000211347 0.000142556 0.025 -95870.5
0.000299429 0.000201968 0.025 -107129
0.000389669 0.000262835 0.025 -116554
0.000482118 0.000325193 0.025 -125513
0.000576831 0.000389077 0.025 -133946
0.000673861 0.000454524 0.025 -141591
0.000773265 0.000521574 0.025 -148364
0.0008751 0.000590262 0.025 -154335
0.000979426 0.000660632 0.025 -159609
0.0010863 0.000732721 0.025 -164313
0.00119579 0.000806572 0.025 -168655
0.00130795 0.000882227 0.025 -172681
0.00142285 0.00095973 0.025 -176450
0.00154056 0.00103912 0.025 -180081
0.00166115 0.00112046 0.025 -183593
0.00178467 0.00120378 0.025 -187069
0.00191121 0.00128913 0.025 -190542
0.00204083 0.00137656 0.025 -193956
0.00217362 0.00146612 0.025 -197423
0.00230964 0.00155787 0.025 -200953
0.00244897 0.00165185 0.025 -204502
0.00259169 0.00174812 0.025 -208142
0.00273789 0.00184673 0.025 -211892
0.00288765 0.00194774 0.025 -215781
0.00304105 0.00205122 0.025 -219775
0.00319818 0.00215719 0.025 -223900
0.00335912 0.00226575 0.025 -228228
0.00352397 0.00237695 0.025 -232689
0.00369283 0.00249085 0.025 -237360
0.00386579 0.00260751 0.025 -242224
0.00404294 0.00272699 0.025 -247326
0.00422438 0.00284938 0.025 -252681
0.00441022 0.00297474 0.025 -258314
0.00460056 0.00310312 0.025 -264233
0.00479552 0.00323462 0.025 -270448
0.00499519 0.0033693 0.025 -277066
0.00519968 0.00350723 0.025 -283985
0.00540911 0.00364849 0.025 -291334
0.00562361 0.00379318 0.025 -299114
0.00584329 0.00394134 0.025 -307317
0.00606826 0.00409309 0.025 -316116
0.00629865 0.00424849 0.025 -325388
0.0065346 0.00440764 0.025 -335260
0.00677623 0.00457063 0.025 -345824
0.00702368 0.00473753 0.025 -357046
0.00727707 0.00490844 0.025 -369128
0.00753655 0.00508347 0.025 -381938
0.00780227 0.00526269 0.025 -395796
0.00807436 0.00544622 0.025 -410616
0.00835298 0.00563415 0.025 -426395
0.00863826 0.00582659 0.025 -443649
0.00893038 0.00602362 0.025 -462571
0.00922949 0.00622537 0.025 -482413
0.00953574 0.00643195 0.025 -504340
0.00984929 0.00664345 0.025 -528471
0.0101703 0.00686 0.025 -555735
0.0104991 0.00708171 0.025 -585810
0.0108356 0.00730871 0.025 -620465
0.0111801 0.0075411 0.025 -657977
0.0115329 0.00777902 0.025 -696783
0.011894 0.00802259 0.025 -742637
0.0122637 0.00827194 0.025 -785910
0.0126421 0.00852719 0.025 -831090
0.0130295 0.0087885 0.025 -874186
0.013426 0.00905597 0.025 -917933
0.013832 0.00932978 0.025 -961198
0.0142475 0.00961003 0.025 -1.00404e+06
0.0146727 0.0098969 0.025 -1.04539e+06
0.0151081 0.0101905 0.025 -1.09015e+06
0.0155536 0.010491 0.025 -1.13617e+06
0.0160097 0.0107986 0.025 -1.18239e+06
0.0164764 0.0111134 0.025 -1.23249e+06
0.016954 0.0114356 0.025 -1.28531e+06
0.0174427 0.0117653 0.025 -1.33615e+06
0.0179429 0.0121026 0.025 -1.39118e+06
0.0184548 0.0124479 0.025 -1.45582e+06
0.0189786 0.0128013 0.025 -1.5001e+06
0.0195146 0.0131628 0.025 -1.54771e+06
0.020063 0.0135327 0.025 -1.60462e+06
0.0206242 0.0139112 0.025 -1.64055e+06
0.0211983 0.0142984 0.025 -1.66657e+06
0.0217857 0.0146947 0.025 -1.69894e+06
0.0223867 0.0151 0.025 -1.72702e+06
0.0230015 0.0155147 0.025 -1.75071e+06
0.0236304 0.0159389 0.025 -1.78078e+06
0.0242738 0.0163729 0.025 -1.78227e+06
0.0249318 0.0168167 0.025 -1.79608e+06
0.025605 0.0172708 0.025 -1.80188e+06
0.0262935 0.0177352 0.025 -1.77424e+06
0.0269977 0.0182102 0.025 -1.74403e+06
0.0277178 0.0186959 0.025 -1.70513e+06
0.0284544 0.0191927 0.025 -1.71983e+06
0.0292075 0.0197008 0.025 -1.66692e+06
0.0299777 0.0202203 0.025 -1.61955e+06
0.0307653 0.0207514 0.025 -1.58982e+06
0.0315704 0.0212945 0.025 -1.55893e+06
0.0323937 0.0218499 0.025 -1.53336e+06
0.0332354 0.0224176 0.025 -1.50591e+06
0.0340959 0.022998 0.025 -1.48248e+06
0.0349755 0.0235913 0.025 -1.45044e+06
0.0358747 0.0241978 0.025 -1.45033e+06
0.0367938 0.0248178 0.025 -1.4169e+06
0.0377331 0.0254513 0.025 -1.39053e+06
0.0386932 0.0260989 0.025 -1.37274e+06
0.0396743 0.0267606 0.025 -1.35762e+06
0.0406769 0.0274369 0.025 -1.34633e+06
0.0417013 0.0281279 0.025 -1.33274e+06
0.042748 0.0288339 0.025 -1.33434e+06
0.0438175 0.0295552 0.025 -1.32142e+06
0.04491 0.0302922 0.025 -1.30928e+06
0.0460262 0.031045 0.025 -1.31103e+06
0.0471662 0.031814 0.025 -1.31962e+06
0.0483306 0.0325995 0.025 -1.31112e+06
0.0495199 0.0334016 0.025 -1.31273e+06
0.0507344 0.0342208 0.025 -1.3078e+06
0.0519746 0.0350573 0.025 -1.30373e+06
0.0532409 0.0359114 0.025 -1.30564e+06
0.0545339 0.0367835 0.025 -1.29464e+06
0.0558538 0.0376739 0.025 -1.29491e+06
0.0572012 0.0385827 0.025 -1.29448e+06
0.0585766 0.0395104 0.025 -1.29337e+06
0.0599804 0.0404573 0.025 -1.30135e+06
0.061413 0.0414236 0.025 -1.28276e+06
0.0628748 0.0424096 0.025 -1.30661e+06
0.0643665 0.0434157 0.025 -1.30927e+06
0.0658883 0.0444422 0.025 -1.28349e+06
0.0674408 0.0454894 0.025 -1.27396e+06
0.0690245 0.0465576 0.025 -1.27294e+06
0.0706398 0.0476471 0.025 -1.2681e+06
0.0722871 0.0487582 0.025 -1.26587e+06
0.0739669 0.0498912 0.025 -1.26415e+06
0.0756797 0.0510466 0.025 -1.2737e+06
0.0774258 0.0522244 0.025 -1.28495e+06
0.0792059 0.053425 0.025 -1.27734e+06
0.0810203 0.0546489 0.025 -1.29872e+06
0.0828694 0.0558961 0.025 -1.26929e+06
0.0847537 0.0571671 0.025 -1.31213e+06
0.0866737 0.0584622 0.025 -1.2727e+06
0.0886298 0.0597816 0.025 -1.27261e+06
0.0906224 0.0611256 0.025 -1.28362e+06
0.0926518 0.0624944 0.025 -1.24883e+06
0.0947185 0.0638884 0.025 -1.29133e+06
0.096823 0.065308 0.025 -1.25072e+06
0.0989659 0.0667532 0.025 -1.33961e+06
0.101147 0.0682245 0.025 -1.68763e+06
0.103367 0.0697219 0.025 -1.59363e+06
0.105626 0.0712458 0.025 -1.2015e+06
0.107926 0.0727965 0.025 -1.19599e+06
0.110265 0.074374 0.025 -1.23323e+06
0.112644 0.0759789 0.025 -1.83322e+06
0.115063 0.0776111 0.025 -1.23625e+06
0.117524 0.0792709 0.025 -1.70669e+06
0.120026 0.0809585 0.025 -1.87705e+06
0.122569 0.0826741 0.025 -1.66763e+06
0.125155 0.0844179 0.025 -1.48984e+06
0.127782 0.0861901 0.025 -1.29163e+06
0.130451 0.0879908 0.025 -1.24799e+06
0.133163 0.08982 0.025 -1.22576e+06
0.135918 0.0916781 0.025 -1.19539e+06
0.138716 0.0935651 0.025 -1.19664e+06
0.141556 0.095481 0.025 -1.20611e+06
0.14444 0.097426 0.025 -1.58745e+06
0.147367 0.0994004 0.025 -2.34545e+06
0.150337 0.101404 0.025 -1.66612e+06
0.153351 0.103437 0.025 -1.61529e+06
0.156408 0.105498 0.025 -2.25643e+06
0.159508 0.107589 0.025 -1.02427e+06
0.162651 0.10971 0.025 -1.51328e+06
0.165838 0.111859 0.025 -3.65509e+06
0.169069 0.114039 0.025 -1.60533e+06
0.172343 0.116247 0.025 -1.98006e+06
0.175659 0.118483 0.025 -1.88064e+06
0.179018 0.120749 0.025 -1.876e+06
0.182421 0.123045 0.025 -1.94838e+06
0.185866 0.125368 0.025 -1.70581e+06
0.189353 0.12772 0.025 -1.74075e+06
0.192882 0.1301 0.025 -1.84639e+06
0.196453 0.132509 0.025 -1.74238e+06
0.200065 0.134946 0.025 -2.15299e+06
0.203718 0.13741 0.025 -1.93846e+06
0.207412 0.139901 0.025 -924875
0.211146 0.14242 0.025 -986737
0.214919 0.144965 0.025 -1.61858e+06
0.218732 0.147537 0.025 -989088
0.222583 0.150134 0.025 -1.94622e+06
0.226472 0.152757 0.025 -978025
0.230399 0.155406 0.025 -1.8325e+06
0.234362 0.15808 0.025 -1.72541e+06
0.238362 0.160777 0.025 -2.35634e+06
0.242396 0.163498 0.025 -1.94722e+06
0.246466 0.166244 0.025 -2.11114e+06
0.250569 0.169012 0.025 -930958
0.254706 0.171801 0.025 -1.53299e+06
0.258874 0.174613 0.025 -1.53599e+06
0.263074 0.177446 0.025 -1.96056e+06
0.267304 0.180299 0.025 -1.58331e+06
0.271564 0.183172 0.025 -948773
0.275852 0.186064 0.025 -1.62637e+06
0.280168 0.188975 0.025 -923493
0.28451 0.191904 0.025 -1.65143e+06
0.288876 0.19485 0.025 -2.27992e+06
0.293268 0.197812 0.025 -1.60982e+06
0.297683 0.20079 0.025 -1.92762e+06
0.302119 0.203782 0.025 -1.85184e+06
0.306577 0.206788 0.025 -1.37763e+06
0.311054 0.209808 0.025 -1.57851e+06
0.315549 0.212841 0.025 -1.16623e+06
0.320063 0.215885 0.025 -2.02078e+06
0.324591 0.218939 0.025 -1.42221e+06
0.329134 0.222003 0.025 -1.41079e+06
0.333691 0.225077 0.025 -2.21806e+06
0.33826 0.228159 0.025 -1.7809e+06
0.342839 0.231248 0.025 -1.82848e+06
0.347428 0.234343 0.025 -874896
0.352025 0.237444 0.025 -1.93595e+06
0.356628 0.240548 0.025 -1.41429e+06
0.361237 0.243658 0.025 -1.15486e+06
0.36585 0.246769 0.025 -2.5801e+06
0.370465 0.249882 0.025 -1.0221e+06
0.375082 0.252996 0.025 -1.47139e+06
0.379698 0.25611 0.025 -2.22907e+06
0.384313 0.259223 0.025 -1.38487e+06
0.388926 0.262333 0.025 -1.70764e+06
0.393534 0.265442 0.025 -1.40794e+06
0.398136 0.268546 0.025 -879865
0.40273 0.271645 0.025 -1.63025e+06
0.407317 0.274739 0.025 -1.68497e+06
0.411894 0.277826 0.025 -2.11612e+06
0.41646 0.280906 0.025 -835348
0.421014 0.283977 0.025 -1.59382e+06
0.425554 0.28704 0.025 -1.87015e+06
0.430079 0.290092 0.025 -1.48232e+06
0.434588 0.293133 0.025 -1.82721e+06
0.439079 0.296162 0.025 -1.27875e+06
0.443551 0.299179 0.025 -1.66487e+06
0.448004 0.302183 0.025 -1.69496e+06
0.452437 0.305172 0.025 -1.65384e+06
0.456846 0.308146 0.025 -1.53485e+06
0.461232 0.311105 0.025 -1.56145e+06
0.465593 0.314047 0.025 -1.44667e+06
0.469929 0.316971 0.025 -1.91817e+06
0.474238 0.319878 0.025 -993337
0.47852 0.322766 0.025 -1.11263e+06
0.482773 0.325635 0.025 -882721
0.486996 0.328483 0.025 -1.32845e+06
0.491189 0.331311 0.025 -2.02062e+06
0.49535 0.334118 0.025 -1.28664e+06
