# Wall heat-flux
# Time        	patch         	min           	max           	integral      
3900          	base	-3.324858e+06	-3.738534e+04	-9.285956e+03
