# p  FACE_DATA 398
# x  y  z  p
-0.7975 0 0.025 4472.94
-0.79239 0 0.025 3650.87
-0.787056 0 0.025 2980.23
-0.781492 0 0.025 2873.07
-0.775691 0 0.025 2796.56
-0.769649 0 0.025 2780.09
-0.763362 0 0.025 2785.9
-0.756822 0 0.025 2783.96
-0.750025 0 0.025 2793.71
-0.742968 0 0.025 2798.54
-0.735648 0 0.025 2799.14
-0.72806 0 0.025 2797.21
-0.720203 0 0.025 2797.79
-0.712076 0 0.025 2795.93
-0.703677 0 0.025 2793.75
-0.695006 0 0.025 2792.81
-0.686065 0 0.025 2791.54
-0.676855 0 0.025 2788.3
-0.667379 0 0.025 2785.21
-0.65764 0 0.025 2783.5
-0.647644 0 0.025 2782.22
-0.637397 0 0.025 2780.37
-0.626906 0 0.025 2778.2
-0.616179 0 0.025 2776.62
-0.605224 0 0.025 2775.34
-0.594054 0 0.025 2773.75
-0.582678 0 0.025 2771.56
-0.57111 0 0.025 2769.72
-0.559364 0 0.025 2768.21
-0.547454 0 0.025 2766.75
-0.535396 0 0.025 2765.35
-0.523205 0 0.025 2764.64
-0.510901 0 0.025 2763.58
-0.4985 0 0.025 2761.72
-0.486021 0 0.025 2759.33
-0.473483 0 0.025 2758.06
-0.460905 0 0.025 2757.98
-0.448308 0 0.025 2757.73
-0.435709 0 0.025 2755.99
-0.42313 0 0.025 2753.74
-0.41059 0 0.025 2752.29
-0.39811 0 0.025 2752.23
-0.385706 0 0.025 2752.68
-0.373398 0 0.025 2751.72
-0.361205 0 0.025 2749.49
-0.349141 0 0.025 2746.83
-0.337226 0 0.025 2745.19
-0.325475 0 0.025 2744.92
-0.313901 0 0.025 2747.5
-0.30252 0 0.025 2749.2
-0.291343 0 0.025 2750.01
-0.280382 0 0.025 2748.71
-0.269646 0 0.025 2745.39
-0.259148 0 0.025 2741.48
-0.248893 0 0.025 2737.93
-0.23889 0 0.025 2735.46
-0.229143 0 0.025 2734.68
-0.219659 0 0.025 2736.22
-0.210441 0 0.025 2739.25
-0.201491 0 0.025 2742.76
-0.192812 0 0.025 2745.92
-0.184405 0 0.025 2747.8
-0.176269 0 0.025 2748.51
-0.168404 0 0.025 2747.84
-0.160808 0 0.025 2745.93
-0.15348 0 0.025 2743.1
-0.146415 0 0.025 2739.71
-0.13961 0 0.025 2736.07
-0.133063 0 0.025 2732.77
-0.126767 0 0.025 2729.79
-0.120718 0 0.025 2727.48
-0.11491 0 0.025 2725.85
-0.109339 0 0.025 2724.93
-0.103997 0 0.025 2724.58
-0.0988805 0 0.025 2724.55
-0.0939808 0 0.025 2725.19
-0.0892928 0 0.025 2726.17
-0.0848096 0 0.025 2727.49
-0.0805248 0 0.025 2729.06
-0.0764316 0 0.025 2730.74
-0.0725237 0 0.025 2732.44
-0.0687943 0 0.025 2734.15
-0.065237 0 0.025 2735.83
-0.0618454 0 0.025 2737.44
-0.058613 0 0.025 2739
-0.0555337 0 0.025 2740.46
-0.0526013 0 0.025 2741.77
-0.0498099 0 0.025 2742.93
-0.0471536 0 0.025 2743.89
-0.0446266 0 0.025 2744.68
-0.0422235 0 0.025 2745.27
-0.039939 0 0.025 2745.69
-0.0377676 0 0.025 2745.83
-0.0357044 0 0.025 2747.18
-0.0337445 0 0.025 2783.88
-0.0318832 0 0.025 3177.57
-0.0301159 0 0.025 4318.37
-0.0284383 0 0.025 5480.01
-0.0268461 0 0.025 6355.57
-0.0253353 0 0.025 6948.07
-0.023902 0 0.025 7427.33
-0.0225426 0 0.025 7823.43
-0.0212532 0 0.025 8153.68
-0.0200306 0 0.025 8443.4
-0.0188715 0 0.025 8706.7
-0.0177728 0 0.025 8914.57
-0.0167313 0 0.025 9125.73
-0.0157444 0 0.025 9305.72
-0.0148092 0 0.025 9469.08
-0.0139232 0 0.025 9621
-0.0130838 0 0.025 9755.74
-0.0122887 0 0.025 9876.77
-0.0115356 0 0.025 9992.71
-0.0108223 0 0.025 10105
-0.0101469 0 0.025 10210.2
-0.00950727 0 0.025 10303.7
-0.00890168 0 0.025 10384.9
-0.00832835 0 0.025 10455.7
-0.00778557 0 0.025 10517
-0.00727176 0 0.025 10569.8
-0.0067854 0 0.025 10615.3
-0.00632507 0 0.025 10654.8
-0.00588937 0 0.025 10689.4
-0.00547703 0 0.025 10720.6
-0.0050868 0 0.025 10749.7
-0.00471753 0 0.025 10777.7
-0.0043681 0 0.025 10806
-0.00403746 0 0.025 10836
-0.00372461 0 0.025 10869.6
-0.0034286 0 0.025 10907.5
-0.00314855 0 0.025 10950.8
-0.0028836 0 0.025 11000.2
-0.00263294 0 0.025 11057.9
-0.00239581 0 0.025 11127.8
-0.0021715 0 0.025 11201.6
-0.00195929 0 0.025 11283.7
-0.00175856 0 0.025 11374.5
-0.00156869 0 0.025 11473.4
-0.00138908 0 0.025 11579.7
-0.0012192 0 0.025 11692.3
-0.00105853 0 0.025 11809.9
-0.000906546 0 0.025 11930.7
-0.000762803 0 0.025 12051.6
-0.000626848 0 0.025 12168
-0.000498265 0 0.025 12272.3
-0.000376656 0 0.025 12354.2
-0.000261642 0 0.025 12404.1
-0.00015287 0 0.025 12419
-5e-05 0 0.025 12518.9
4.14519e-05 2.79596e-05 0.025 12080.2
0.000125371 8.45641e-05 0.025 12174.3
0.000211347 0.000142556 0.025 12140.5
0.000299429 0.000201968 0.025 12069.8
0.000389669 0.000262835 0.025 11986.5
0.000482118 0.000325193 0.025 11900.5
0.000576831 0.000389077 0.025 11817.5
0.000673861 0.000454524 0.025 11741
0.000773265 0.000521574 0.025 11674.2
0.0008751 0.000590262 0.025 11618.8
0.000979426 0.000660632 0.025 11575.9
0.0010863 0.000732721 0.025 11546.1
0.00119579 0.000806572 0.025 11526.9
0.00130795 0.000882227 0.025 11520.2
0.00142285 0.00095973 0.025 11526.1
0.00154056 0.00103912 0.025 11542.3
0.00166115 0.00112046 0.025 11568.4
0.00178467 0.00120378 0.025 11604.3
0.00191121 0.00128913 0.025 11649
0.00204083 0.00137656 0.025 11702.7
0.00217362 0.00146612 0.025 11765
0.00230964 0.00155787 0.025 11835.1
0.00244897 0.00165185 0.025 11913.7
0.00259169 0.00174812 0.025 12000.2
0.00273789 0.00184673 0.025 12094.3
0.00288765 0.00194774 0.025 12196.3
0.00304105 0.00205122 0.025 12306.2
0.00319818 0.00215719 0.025 12424.5
0.00335912 0.00226575 0.025 12551
0.00352397 0.00237695 0.025 12686
0.00369283 0.00249085 0.025 12830.4
0.00386579 0.00260751 0.025 12984.7
0.00404294 0.00272699 0.025 13149.5
0.00422438 0.00284938 0.025 13325.5
0.00441022 0.00297474 0.025 13514.3
0.00460056 0.00310312 0.025 13717.4
0.00479552 0.00323462 0.025 13935.8
0.00499519 0.0033693 0.025 14171.1
0.00519968 0.00350723 0.025 14425.9
0.00540911 0.00364849 0.025 14701.6
0.00562361 0.00379318 0.025 15000.3
0.00584329 0.00394134 0.025 15324.7
0.00606826 0.00409309 0.025 15677.1
0.00629865 0.00424849 0.025 16059.4
0.0065346 0.00440764 0.025 16475
0.00677623 0.00457063 0.025 16926.3
0.00702368 0.00473753 0.025 17416.6
0.00727707 0.00490844 0.025 17948.3
0.00753655 0.00508347 0.025 18525.8
0.00780227 0.00526269 0.025 19152.2
0.00807436 0.00544622 0.025 19831.3
0.00835298 0.00563415 0.025 20568
0.00863826 0.00582659 0.025 21366.1
0.00893038 0.00602362 0.025 22230.3
0.00922949 0.00622537 0.025 23165.5
0.00953574 0.00643195 0.025 24177.2
0.00984929 0.00664345 0.025 25269.5
0.0101703 0.00686 0.025 26452.6
0.0104991 0.00708171 0.025 27731.4
0.0108356 0.00730871 0.025 29115.3
0.0111801 0.0075411 0.025 30619.2
0.0115329 0.00777902 0.025 32251.1
0.011894 0.00802259 0.025 33974.4
0.0122637 0.00827194 0.025 35912.1
0.0126421 0.00852719 0.025 37982.4
0.0130295 0.0087885 0.025 40225.4
0.013426 0.00905597 0.025 42828.1
0.013832 0.00932978 0.025 45517.6
0.0142475 0.00961003 0.025 48609.2
0.0146727 0.0098969 0.025 51500.2
0.0151081 0.0101905 0.025 55204.9
0.0155536 0.010491 0.025 58974.2
0.0160097 0.0107986 0.025 63710.4
0.0164764 0.0111134 0.025 68040.8
0.016954 0.0114356 0.025 73697.9
0.0174427 0.0117653 0.025 79286.6
0.0179429 0.0121026 0.025 85545.3
0.0184548 0.0124479 0.025 92584.6
0.0189786 0.0128013 0.025 100279
0.0195146 0.0131628 0.025 108704
0.020063 0.0135327 0.025 117816
0.0206242 0.0139112 0.025 127534
0.0211983 0.0142984 0.025 137839
0.0217857 0.0146947 0.025 148688
0.0223867 0.0151 0.025 160099
0.0230015 0.0155147 0.025 171557
0.0236304 0.0159389 0.025 182485
0.0242738 0.0163729 0.025 190642
0.0249318 0.0168167 0.025 195944
0.025605 0.0172708 0.025 192489
0.0262935 0.0177352 0.025 185412
0.0269977 0.0182102 0.025 176374
0.0277178 0.0186959 0.025 167456
0.0284544 0.0191927 0.025 159213
0.0292075 0.0197008 0.025 151734
0.0299777 0.0202203 0.025 145218
0.0307653 0.0207514 0.025 139829
0.0315704 0.0212945 0.025 135702
0.0323937 0.0218499 0.025 132484
0.0332354 0.0224176 0.025 129561
0.0340959 0.022998 0.025 126788
0.0349755 0.0235913 0.025 124521
0.0358747 0.0241978 0.025 123729
0.0367938 0.0248178 0.025 124027
0.0377331 0.0254513 0.025 124294
0.0386932 0.0260989 0.025 123792
0.0396743 0.0267606 0.025 123102
0.0406769 0.0274369 0.025 122525
0.0417013 0.0281279 0.025 122982
0.042748 0.0288339 0.025 123724
0.0438175 0.0295552 0.025 124459
0.04491 0.0302922 0.025 125295
0.0460262 0.031045 0.025 126127
0.0471662 0.031814 0.025 126276
0.0483306 0.0325995 0.025 125986
0.0495199 0.0334016 0.025 125506
0.0507344 0.0342208 0.025 125012
0.0519746 0.0350573 0.025 125215
0.0532409 0.0359114 0.025 125556
0.0545339 0.0367835 0.025 125626
0.0558538 0.0376739 0.025 125449
0.0572012 0.0385827 0.025 125567
0.0585766 0.0395104 0.025 126105
0.0599804 0.0404573 0.025 127189
0.061413 0.0414236 0.025 128184
0.0628748 0.0424096 0.025 128218
0.0643665 0.0434157 0.025 128041
0.0658883 0.0444422 0.025 127769
0.0674408 0.0454894 0.025 127619
0.0690245 0.0465576 0.025 127780
0.0706398 0.0476471 0.025 128023
0.0722871 0.0487582 0.025 128077
0.0739669 0.0498912 0.025 127866
0.0756797 0.0510466 0.025 127581
0.0774258 0.0522244 0.025 127413
0.0792059 0.053425 0.025 127421
0.0810203 0.0546489 0.025 127765
0.0828694 0.0558961 0.025 128041
0.0847537 0.0571671 0.025 128321
0.0866737 0.0584622 0.025 128463
0.0886298 0.0597816 0.025 128560
0.0906224 0.0611256 0.025 128586
0.0926518 0.0624944 0.025 128572
0.0947185 0.0638884 0.025 128593
0.096823 0.065308 0.025 128524
0.0989659 0.0667532 0.025 128680
0.101147 0.0682245 0.025 128708
0.103367 0.0697219 0.025 128382
0.105626 0.0712458 0.025 127963
0.107926 0.0727965 0.025 127133
0.110265 0.074374 0.025 126487
0.112644 0.0759789 0.025 125730
0.115063 0.0776111 0.025 126217
0.117524 0.0792709 0.025 126919
0.120026 0.0809585 0.025 128040
0.122569 0.0826741 0.025 128933
0.125155 0.0844179 0.025 129085
0.127782 0.0861901 0.025 129062
0.130451 0.0879908 0.025 128715
0.133163 0.08982 0.025 128278
0.135918 0.0916781 0.025 127876
0.138716 0.0935651 0.025 127683
0.141556 0.095481 0.025 127697
0.14444 0.097426 0.025 127868
0.147367 0.0994004 0.025 126810
0.150337 0.101404 0.025 127450
0.153351 0.103437 0.025 127077
0.156408 0.105498 0.025 125972
0.159508 0.107589 0.025 126875
0.162651 0.10971 0.025 126587
0.165838 0.111859 0.025 125331
0.169069 0.114039 0.025 126360
0.172343 0.116247 0.025 125045
0.175659 0.118483 0.025 124784
0.179018 0.120749 0.025 124070
0.182421 0.123045 0.025 123579
0.185866 0.125368 0.025 123543
0.189353 0.12772 0.025 123684
0.192882 0.1301 0.025 123159
0.196453 0.132509 0.025 123430
0.200065 0.134946 0.025 122378
0.203718 0.13741 0.025 122265
0.207412 0.139901 0.025 121681
0.211146 0.14242 0.025 121121
0.214919 0.144965 0.025 120768
0.218732 0.147537 0.025 120833
0.222583 0.150134 0.025 120078
0.226472 0.152757 0.025 120692
0.230399 0.155406 0.025 120604
0.234362 0.15808 0.025 120578
0.238362 0.160777 0.025 120862
0.242396 0.163498 0.025 120670
0.246466 0.166244 0.025 120544
0.250569 0.169012 0.025 121766
0.254706 0.171801 0.025 121577
0.258874 0.174613 0.025 121433
0.263074 0.177446 0.025 120576
0.267304 0.180299 0.025 121295
0.271564 0.183172 0.025 121459
0.275852 0.186064 0.025 121786
0.280168 0.188975 0.025 122255
0.28451 0.191904 0.025 122096
0.288876 0.19485 0.025 121599
0.293268 0.197812 0.025 122480
0.297683 0.20079 0.025 121442
0.302119 0.203782 0.025 121060
0.306577 0.206788 0.025 121017
0.311054 0.209808 0.025 120495
0.315549 0.212841 0.025 121186
0.320063 0.215885 0.025 120456
0.324591 0.218939 0.025 121660
0.329134 0.222003 0.025 121968
0.333691 0.225077 0.025 121284
0.33826 0.228159 0.025 122049
0.342839 0.231248 0.025 120654
0.347428 0.234343 0.025 121237
0.352025 0.237444 0.025 119910
0.356628 0.240548 0.025 120089
0.361237 0.243658 0.025 119839
0.36585 0.246769 0.025 119396
0.370465 0.249882 0.025 120119
0.375082 0.252996 0.025 120565
0.379698 0.25611 0.025 120951
0.384313 0.259223 0.025 122385
0.388926 0.262333 0.025 122050
0.393534 0.265442 0.025 122858
0.398136 0.268546 0.025 122655
0.40273 0.271645 0.025 122101
0.407317 0.274739 0.025 122309
0.411894 0.277826 0.025 121001
0.41646 0.280906 0.025 121803
0.421014 0.283977 0.025 121236
0.425554 0.28704 0.025 120790
0.430079 0.290092 0.025 120956
0.434588 0.293133 0.025 120544
0.439079 0.296162 0.025 121285
0.443551 0.299179 0.025 121187
0.448004 0.302183 0.025 121064
0.452437 0.305172 0.025 121347
0.456846 0.308146 0.025 121481
0.461232 0.311105 0.025 121339
0.465593 0.314047 0.025 121316
0.469929 0.316971 0.025 121284
0.474238 0.319878 0.025 121653
0.47852 0.322766 0.025 121442
0.482773 0.325635 0.025 121429
0.486996 0.328483 0.025 120974
0.491189 0.331311 0.025 120624
0.49535 0.334118 0.025 121794
