# wallHeatFlux  FACE_DATA 398
# x  y  z  wallHeatFlux
-0.7975 0 0.025 -653698
-0.79239 0 0.025 -120536
-0.787056 0 0.025 -68077.8
-0.781492 0 0.025 -66883.3
-0.775691 0 0.025 -71979.5
-0.769649 0 0.025 -76419.2
-0.763362 0 0.025 -79312.8
-0.756822 0 0.025 -80910.9
-0.750025 0 0.025 -81936.9
-0.742968 0 0.025 -82333.7
-0.735648 0 0.025 -82267.2
-0.72806 0 0.025 -81961.2
-0.720203 0 0.025 -81582.6
-0.712076 0 0.025 -81094
-0.703677 0 0.025 -80556.9
-0.695006 0 0.025 -80035.3
-0.686065 0 0.025 -79492
-0.676855 0 0.025 -78894.8
-0.667379 0 0.025 -78301.7
-0.65764 0 0.025 -77756.8
-0.647644 0 0.025 -77234.4
-0.637397 0 0.025 -76699.6
-0.626906 0 0.025 -76177.2
-0.616179 0 0.025 -75679.9
-0.605224 0 0.025 -75199.7
-0.594054 0 0.025 -74716.5
-0.582678 0 0.025 -74223.1
-0.57111 0 0.025 -73769.9
-0.559364 0 0.025 -73336.9
-0.547454 0 0.025 -72910.2
-0.535396 0 0.025 -72497.5
-0.523205 0 0.025 -72121.7
-0.510901 0 0.025 -71730
-0.4985 0 0.025 -71326.5
-0.486021 0 0.025 -70926.1
-0.473483 0 0.025 -70571.1
-0.460905 0 0.025 -70260.3
-0.448308 0 0.025 -69953.5
-0.435709 0 0.025 -69611.7
-0.42313 0 0.025 -69276.2
-0.41059 0 0.025 -68966
-0.39811 0 0.025 -68712.5
-0.385706 0 0.025 -68472.2
-0.373398 0 0.025 -68210.3
-0.361205 0 0.025 -67920.1
-0.349141 0 0.025 -67637.4
-0.337226 0 0.025 -67386.8
-0.325475 0 0.025 -67178.3
-0.313901 0 0.025 -67060.8
-0.30252 0 0.025 -66915.1
-0.291343 0 0.025 -66744.3
-0.280382 0 0.025 -66535.9
-0.269646 0 0.025 -66277.9
-0.259148 0 0.025 -66020.7
-0.248893 0 0.025 -65776.8
-0.23889 0 0.025 -65576.5
-0.229143 0 0.025 -65418.3
-0.219659 0 0.025 -65337.7
-0.210441 0 0.025 -65294.2
-0.201491 0 0.025 -65260.6
-0.192812 0 0.025 -65218.4
-0.184405 0 0.025 -65145.4
-0.176269 0 0.025 -65048.3
-0.168404 0 0.025 -64932.4
-0.160808 0 0.025 -64779.2
-0.15348 0 0.025 -64609.2
-0.146415 0 0.025 -64429.6
-0.13961 0 0.025 -64248.1
-0.133063 0 0.025 -64080.2
-0.126767 0 0.025 -63929.6
-0.120718 0 0.025 -63795.9
-0.11491 0 0.025 -63684.6
-0.109339 0 0.025 -63595.6
-0.103997 0 0.025 -63526.9
-0.0988805 0 0.025 -63469.5
-0.0939808 0 0.025 -63435
-0.0892928 0 0.025 -63408
-0.0848096 0 0.025 -63391.7
-0.0805248 0 0.025 -63386.9
-0.0764316 0 0.025 -63387.8
-0.0725237 0 0.025 -63388.8
-0.0687943 0 0.025 -63407
-0.065237 0 0.025 -63402.9
-0.0618454 0 0.025 -63405.7
-0.058613 0 0.025 -63407.3
-0.0555337 0 0.025 -63410.3
-0.0526013 0 0.025 -63412.5
-0.0498099 0 0.025 -63409.8
-0.0471536 0 0.025 -63407
-0.0446266 0 0.025 -63399
-0.0422235 0 0.025 -63391
-0.039939 0 0.025 -63377.6
-0.0377676 0 0.025 -63363.8
-0.0357044 0 0.025 -63228.2
-0.0337445 0 0.025 -60657.8
-0.0318832 0 0.025 -47635.1
-0.0301159 0 0.025 -34566.2
-0.0284383 0 0.025 -45304.2
-0.0268461 0 0.025 -57315.7
-0.0253353 0 0.025 -64611
-0.023902 0 0.025 -70476.1
-0.0225426 0 0.025 -75215.4
-0.0212532 0 0.025 -78902
-0.0200306 0 0.025 -82007
-0.0188715 0 0.025 -84770.7
-0.0177728 0 0.025 -86671.1
-0.0167313 0 0.025 -88679.6
-0.0157444 0 0.025 -90189.7
-0.0148092 0 0.025 -91548.4
-0.0139232 0 0.025 -92795
-0.0130838 0 0.025 -93648.4
-0.0122887 0 0.025 -94112.8
-0.0115356 0 0.025 -94518.2
-0.0108223 0 0.025 -95071.6
-0.0101469 0 0.025 -95797.7
-0.00950727 0 0.025 -96482.4
-0.00890168 0 0.025 -97033.7
-0.00832835 0 0.025 -97511.3
-0.00778557 0 0.025 -98006.5
-0.00727176 0 0.025 -98611.5
-0.0067854 0 0.025 -99357.6
-0.00632507 0 0.025 -100280
-0.00588937 0 0.025 -101382
-0.00547703 0 0.025 -102682
-0.0050868 0 0.025 -104180
-0.00471753 0 0.025 -105873
-0.0043681 0 0.025 -107760
-0.00403746 0 0.025 -109840
-0.00372461 0 0.025 -112102
-0.0034286 0 0.025 -114549
-0.00314855 0 0.025 -117188
-0.0028836 0 0.025 -120038
-0.00263294 0 0.025 -123109
-0.00239581 0 0.025 -126321
-0.0021715 0 0.025 -129489
-0.00195929 0 0.025 -132837
-0.00175856 0 0.025 -136330
-0.00156869 0 0.025 -139905
-0.00138908 0 0.025 -143550
-0.0012192 0 0.025 -147199
-0.00105853 0 0.025 -150820
-0.000906546 0 0.025 -154190
-0.000762803 0 0.025 -157121
-0.000626848 0 0.025 -159256
-0.000498265 0 0.025 -159522
-0.000376656 0 0.025 -156194
-0.000261642 0 0.025 -145795
-0.00015287 0 0.025 -122399
-5e-05 0 0.025 -73731.6
4.14519e-05 2.79596e-05 0.025 -51212.7
0.000125371 8.45641e-05 0.025 -62222.2
0.000211347 0.000142556 0.025 -75422.8
0.000299429 0.000201968 0.025 -85296.2
0.000389669 0.000262835 0.025 -93847.5
0.000482118 0.000325193 0.025 -102081
0.000576831 0.000389077 0.025 -109793
0.000673861 0.000454524 0.025 -116698
0.000773265 0.000521574 0.025 -122725
0.0008751 0.000590262 0.025 -127949
0.000979426 0.000660632 0.025 -132494
0.0010863 0.000732721 0.025 -136477
0.00119579 0.000806572 0.025 -140008
0.00130795 0.000882227 0.025 -143277
0.00142285 0.00095973 0.025 -146259
0.00154056 0.00103912 0.025 -149062
0.00166115 0.00112046 0.025 -151703
0.00178467 0.00120378 0.025 -154280
0.00191121 0.00128913 0.025 -156814
0.00204083 0.00137656 0.025 -159271
0.00217362 0.00146612 0.025 -161742
0.00230964 0.00155787 0.025 -164230
0.00244897 0.00165185 0.025 -166741
0.00259169 0.00174812 0.025 -169268
0.00273789 0.00184673 0.025 -171868
0.00288765 0.00194774 0.025 -174572
0.00304105 0.00205122 0.025 -177340
0.00319818 0.00215719 0.025 -180217
0.00335912 0.00226575 0.025 -183271
0.00352397 0.00237695 0.025 -186437
0.00369283 0.00249085 0.025 -189800
0.00386579 0.00260751 0.025 -193352
0.00404294 0.00272699 0.025 -197138
0.00422438 0.00284938 0.025 -201207
0.00441022 0.00297474 0.025 -205570
0.00460056 0.00310312 0.025 -210256
0.00479552 0.00323462 0.025 -215269
0.00499519 0.0033693 0.025 -220738
0.00519968 0.00350723 0.025 -226562
0.00540911 0.00364849 0.025 -232901
0.00562361 0.00379318 0.025 -239709
0.00584329 0.00394134 0.025 -247002
0.00606826 0.00409309 0.025 -254961
0.00629865 0.00424849 0.025 -263474
0.0065346 0.00440764 0.025 -272665
0.00677623 0.00457063 0.025 -282566
0.00702368 0.00473753 0.025 -293246
0.00727707 0.00490844 0.025 -304860
0.00753655 0.00508347 0.025 -317290
0.00780227 0.00526269 0.025 -330815
0.00807436 0.00544622 0.025 -345469
0.00835298 0.00563415 0.025 -361280
0.00863826 0.00582659 0.025 -378395
0.00893038 0.00602362 0.025 -396859
0.00922949 0.00622537 0.025 -416918
0.00953574 0.00643195 0.025 -438375
0.00984929 0.00664345 0.025 -461818
0.0101703 0.00686 0.025 -486699
0.0104991 0.00708171 0.025 -514134
0.0108356 0.00730871 0.025 -544132
0.0111801 0.0075411 0.025 -575776
0.0115329 0.00777902 0.025 -614539
0.011894 0.00802259 0.025 -729736
0.0122637 0.00827194 0.025 -782597
0.0126421 0.00852719 0.025 -851129
0.0130295 0.0087885 0.025 -917196
0.013426 0.00905597 0.025 -848265
0.013832 0.00932978 0.025 -1.05956e+06
0.0142475 0.00961003 0.025 -1.13896e+06
0.0146727 0.0098969 0.025 -1.21787e+06
0.0151081 0.0101905 0.025 -1.30554e+06
0.0155536 0.010491 0.025 -1.37546e+06
0.0160097 0.0107986 0.025 -1.46543e+06
0.0164764 0.0111134 0.025 -1.54126e+06
0.016954 0.0114356 0.025 -1.61701e+06
0.0174427 0.0117653 0.025 -1.70331e+06
0.0179429 0.0121026 0.025 -1.773e+06
0.0184548 0.0124479 0.025 -1.85262e+06
0.0189786 0.0128013 0.025 -1.87304e+06
0.0195146 0.0131628 0.025 -1.89552e+06
0.020063 0.0135327 0.025 -1.93207e+06
0.0206242 0.0139112 0.025 -1.93595e+06
0.0211983 0.0142984 0.025 -1.92728e+06
0.0217857 0.0146947 0.025 -1.92832e+06
0.0223867 0.0151 0.025 -1.92405e+06
0.0230015 0.0155147 0.025 -1.91443e+06
0.0236304 0.0159389 0.025 -1.91192e+06
0.0242738 0.0163729 0.025 -1.87724e+06
0.0249318 0.0168167 0.025 -1.85413e+06
0.025605 0.0172708 0.025 -1.90907e+06
0.0262935 0.0177352 0.025 -1.91463e+06
0.0269977 0.0182102 0.025 -1.88638e+06
0.0277178 0.0186959 0.025 -1.85082e+06
0.0284544 0.0191927 0.025 -1.84428e+06
0.0292075 0.0197008 0.025 -1.78746e+06
0.0299777 0.0202203 0.025 -1.72911e+06
0.0307653 0.0207514 0.025 -1.68247e+06
0.0315704 0.0212945 0.025 -1.6416e+06
0.0323937 0.0218499 0.025 -1.60759e+06
0.0332354 0.0224176 0.025 -1.57779e+06
0.0340959 0.022998 0.025 -1.55046e+06
0.0349755 0.0235913 0.025 -1.52211e+06
0.0358747 0.0241978 0.025 -1.51944e+06
0.0367938 0.0248178 0.025 -1.50448e+06
0.0377331 0.0254513 0.025 -1.49232e+06
0.0386932 0.0260989 0.025 -1.47588e+06
0.0396743 0.0267606 0.025 -1.45322e+06
0.0406769 0.0274369 0.025 -1.44626e+06
0.0417013 0.0281279 0.025 -1.43175e+06
0.042748 0.0288339 0.025 -1.43813e+06
0.0438175 0.0295552 0.025 -1.42467e+06
0.04491 0.0302922 0.025 -1.41567e+06
0.0460262 0.031045 0.025 -1.42143e+06
0.0471662 0.031814 0.025 -1.42963e+06
0.0483306 0.0325995 0.025 -1.40308e+06
0.0495199 0.0334016 0.025 -1.40023e+06
0.0507344 0.0342208 0.025 -1.38859e+06
0.0519746 0.0350573 0.025 -1.37095e+06
0.0532409 0.0359114 0.025 -1.373e+06
0.0545339 0.0367835 0.025 -1.36017e+06
0.0558538 0.0376739 0.025 -1.34442e+06
0.0572012 0.0385827 0.025 -1.34567e+06
0.0585766 0.0395104 0.025 -1.33763e+06
0.0599804 0.0404573 0.025 -1.34572e+06
0.061413 0.0414236 0.025 -1.34761e+06
0.0628748 0.0424096 0.025 -1.34453e+06
0.0643665 0.0434157 0.025 -1.33679e+06
0.0658883 0.0444422 0.025 -1.31935e+06
0.0674408 0.0454894 0.025 -1.29975e+06
0.0690245 0.0465576 0.025 -1.29563e+06
0.0706398 0.0476471 0.025 -1.28712e+06
0.0722871 0.0487582 0.025 -1.27583e+06
0.0739669 0.0498912 0.025 -1.27322e+06
0.0756797 0.0510466 0.025 -1.26822e+06
0.0774258 0.0522244 0.025 -1.27066e+06
0.0792059 0.053425 0.025 -1.25561e+06
0.0810203 0.0546489 0.025 -1.26941e+06
0.0828694 0.0558961 0.025 -1.24866e+06
0.0847537 0.0571671 0.025 -1.26305e+06
0.0866737 0.0584622 0.025 -1.23846e+06
0.0886298 0.0597816 0.025 -1.23351e+06
0.0906224 0.0611256 0.025 -1.23282e+06
0.0926518 0.0624944 0.025 -1.20986e+06
0.0947185 0.0638884 0.025 -1.22755e+06
0.096823 0.065308 0.025 -1.20286e+06
0.0989659 0.0667532 0.025 -1.23679e+06
0.101147 0.0682245 0.025 -1.41645e+06
0.103367 0.0697219 0.025 -1.41679e+06
0.105626 0.0712458 0.025 -1.15274e+06
0.107926 0.0727965 0.025 -1.16598e+06
0.110265 0.074374 0.025 -1.15356e+06
0.112644 0.0759789 0.025 -1.60142e+06
0.115063 0.0776111 0.025 -1.16773e+06
0.117524 0.0792709 0.025 -1.45104e+06
0.120026 0.0809585 0.025 -1.44345e+06
0.122569 0.0826741 0.025 -1.33471e+06
0.125155 0.0844179 0.025 -1.30843e+06
0.127782 0.0861901 0.025 -1.19017e+06
0.130451 0.0879908 0.025 -1.13977e+06
0.133163 0.08982 0.025 -1.13629e+06
0.135918 0.0916781 0.025 -1.10986e+06
0.138716 0.0935651 0.025 -1.0918e+06
0.141556 0.095481 0.025 -1.09117e+06
0.14444 0.097426 0.025 -1.23445e+06
0.147367 0.0994004 0.025 -2.02038e+06
0.150337 0.101404 0.025 -1.27064e+06
0.153351 0.103437 0.025 -1.25995e+06
0.156408 0.105498 0.025 -1.97828e+06
0.159508 0.107589 0.025 -962221
0.162651 0.10971 0.025 -1.16688e+06
0.165838 0.111859 0.025 -2.50306e+06
0.169069 0.114039 0.025 -1.30306e+06
0.172343 0.116247 0.025 -1.60512e+06
0.175659 0.118483 0.025 -1.29362e+06
0.179018 0.120749 0.025 -1.28091e+06
0.182421 0.123045 0.025 -1.24828e+06
0.185866 0.125368 0.025 -1.24199e+06
0.189353 0.12772 0.025 -1.21944e+06
0.192882 0.1301 0.025 -1.7397e+06
0.196453 0.132509 0.025 -1.21153e+06
0.200065 0.134946 0.025 -1.83945e+06
0.203718 0.13741 0.025 -1.20495e+06
0.207412 0.139901 0.025 -867621
0.211146 0.14242 0.025 -908761
0.214919 0.144965 0.025 -1.15175e+06
0.218732 0.147537 0.025 -886968
0.222583 0.150134 0.025 -1.67032e+06
0.226472 0.152757 0.025 -880553
0.230399 0.155406 0.025 -1.17074e+06
0.234362 0.15808 0.025 -1.12869e+06
0.238362 0.160777 0.025 -1.19374e+06
0.242396 0.163498 0.025 -1.70631e+06
0.246466 0.166244 0.025 -1.92774e+06
0.250569 0.169012 0.025 -869453
0.254706 0.171801 0.025 -1.11155e+06
0.258874 0.174613 0.025 -1.10224e+06
0.263074 0.177446 0.025 -1.72291e+06
0.267304 0.180299 0.025 -1.08901e+06
0.271564 0.183172 0.025 -863059
0.275852 0.186064 0.025 -1.08956e+06
0.280168 0.188975 0.025 -843711
0.28451 0.191904 0.025 -1.41239e+06
0.288876 0.19485 0.025 -1.89083e+06
0.293268 0.197812 0.025 -1.07823e+06
0.297683 0.20079 0.025 -1.17733e+06
0.302119 0.203782 0.025 -1.14902e+06
0.306577 0.206788 0.025 -1.0033e+06
0.311054 0.209808 0.025 -1.45843e+06
0.315549 0.212841 0.025 -971958
0.320063 0.215885 0.025 -1.51086e+06
0.324591 0.218939 0.025 -1.1148e+06
0.329134 0.222003 0.025 -985455
0.333691 0.225077 0.025 -1.80023e+06
0.33826 0.228159 0.025 -990766
0.342839 0.231248 0.025 -1.71951e+06
0.347428 0.234343 0.025 -771320
0.352025 0.237444 0.025 -1.63147e+06
0.356628 0.240548 0.025 -987239
0.361237 0.243658 0.025 -936452
0.36585 0.246769 0.025 -1.5711e+06
0.370465 0.249882 0.025 -1.01021e+06
0.375082 0.252996 0.025 -1.02247e+06
0.379698 0.25611 0.025 -1.52163e+06
0.384313 0.259223 0.025 -1.00395e+06
0.388926 0.262333 0.025 -1.52901e+06
0.393534 0.265442 0.025 -1.01499e+06
0.398136 0.268546 0.025 -858708
0.40273 0.271645 0.025 -1.50341e+06
0.407317 0.274739 0.025 -1.04895e+06
0.411894 0.277826 0.025 -1.85967e+06
0.41646 0.280906 0.025 -778172
0.421014 0.283977 0.025 -1.01228e+06
0.425554 0.28704 0.025 -1.07348e+06
0.430079 0.290092 0.025 -966724
0.434588 0.293133 0.025 -1.55916e+06
0.439079 0.296162 0.025 -926258
0.443551 0.299179 0.025 -1.0694e+06
0.448004 0.302183 0.025 -1.1466e+06
0.452437 0.305172 0.025 -1.05204e+06
0.456846 0.308146 0.025 -1.01109e+06
0.461232 0.311105 0.025 -994258
0.465593 0.314047 0.025 -983454
0.469929 0.316971 0.025 -1.05116e+06
0.474238 0.319878 0.025 -879284
0.47852 0.322766 0.025 -903505
0.482773 0.325635 0.025 -848012
0.486996 0.328483 0.025 -1.2344e+06
0.491189 0.331311 0.025 -1.66171e+06
0.49535 0.334118 0.025 -867417
