# Wall heat-flux
# Time        	patch         	min           	max           	integral      
3900          	base	-3.344062e+06	-5.276627e+04	-1.082132e+04
