# wallHeatFlux  FACE_DATA 298
# x  y  z  wallHeatFlux
-0.789454 0 0.005 -321986
-0.76864 0 0.005 -54530
-0.748373 0 0.005 -57409.2
-0.72864 0 0.005 -62867.1
-0.709426 0 0.005 -66361.3
-0.690719 0 0.005 -68640.7
-0.672503 0 0.005 -70049.6
-0.654767 0 0.005 -70759.5
-0.637498 0 0.005 -71213.4
-0.620683 0 0.005 -71325.1
-0.604311 0 0.005 -71278.7
-0.588369 0 0.005 -71174.3
-0.572847 0 0.005 -71058.4
-0.557734 0 0.005 -70828.9
-0.543018 0 0.005 -70513.1
-0.52869 0 0.005 -70196.1
-0.514738 0 0.005 -69942.9
-0.501153 0 0.005 -69754.5
-0.487926 0 0.005 -69572.3
-0.475046 0 0.005 -69338
-0.462505 0 0.005 -69078.6
-0.450294 0 0.005 -68830.4
-0.438403 0 0.005 -68616.5
-0.426826 0 0.005 -68435.1
-0.415552 0 0.005 -68272
-0.404575 0 0.005 -68102.4
-0.393887 0 0.005 -67910.5
-0.383478 0 0.005 -67716.8
-0.373344 0 0.005 -67543.2
-0.363476 0 0.005 -67381
-0.353866 0 0.005 -67241.2
-0.34451 0 0.005 -67116.2
-0.335398 0 0.005 -66990.3
-0.326526 0 0.005 -66859.2
-0.317887 0 0.005 -66707.1
-0.309474 0 0.005 -66559.6
-0.301281 0 0.005 -66405
-0.293304 0 0.005 -66255.9
-0.285535 0 0.005 -66120.4
-0.277971 0 0.005 -66016.4
-0.270605 0 0.005 -65921.8
-0.263431 0 0.005 -65855.5
-0.256444 0 0.005 -65802
-0.249642 0 0.005 -65758.9
-0.243016 0 0.005 -65715.6
-0.236565 0 0.005 -65666.7
-0.230282 0 0.005 -65601.3
-0.224163 0 0.005 -65525.2
-0.218204 0 0.005 -65427.4
-0.2124 0 0.005 -65314.4
-0.206748 0 0.005 -65196.7
-0.201243 0 0.005 -65064.5
-0.195882 0 0.005 -64916.3
-0.190661 0 0.005 -64775.6
-0.185575 0 0.005 -64646.1
-0.180621 0 0.005 -64534.7
-0.175796 0 0.005 -64434.1
-0.171097 0 0.005 -64355.3
-0.16652 0 0.005 -64287.7
-0.162061 0 0.005 -64241.5
-0.157718 0 0.005 -64206
-0.153487 0 0.005 -64182.2
-0.149367 0 0.005 -64172.6
-0.145351 0 0.005 -64171
-0.14144 0 0.005 -64166.8
-0.13763 0 0.005 -64168.1
-0.133918 0 0.005 -64162.4
-0.130302 0 0.005 -64177.2
-0.126778 0 0.005 -64168.9
-0.123345 0 0.005 -64174.5
-0.119999 0 0.005 -64175.4
-0.116739 0 0.005 -64181.9
-0.113562 0 0.005 -64181.1
-0.110466 0 0.005 -64173.8
-0.107449 0 0.005 -64159.4
-0.104509 0 0.005 -64141.5
-0.101644 0 0.005 -64120.4
-0.0988499 0 0.005 -64087.7
-0.0961267 0 0.005 -64056.5
-0.0934723 0 0.005 -64021.2
-0.0908845 0 0.005 -63981.9
-0.0883616 0 0.005 -63942.4
-0.0859017 0 0.005 -63903.1
-0.0835029 0 0.005 -63853.2
-0.0811636 0 0.005 -63809.3
-0.0788823 0 0.005 -63759
-0.0766572 0 0.005 -63710.9
-0.0744867 0 0.005 -63661
-0.0723694 0 0.005 -63613.2
-0.0703036 0 0.005 -63563.6
-0.068288 0 0.005 -63510.4
-0.0663211 0 0.005 -63462.2
-0.0644014 0 0.005 -63414.1
-0.0625277 0 0.005 -63371.6
-0.0606985 0 0.005 -63324
-0.0589126 0 0.005 -63281.9
-0.0571687 0 0.005 -63239.9
-0.0554656 0 0.005 -63198.2
-0.0538019 0 0.005 -63157.3
-0.0521766 0 0.005 -63120.1
-0.0505886 0 0.005 -63085.7
-0.0490366 0 0.005 -63054.2
-0.0475196 0 0.005 -63019.5
-0.0460364 0 0.005 -62984.4
-0.0445861 0 0.005 -62955.6
-0.0431675 0 0.005 -62920.3
-0.0417798 0 0.005 -62880
-0.0404219 0 0.005 -62809.3
-0.0390927 0 0.005 -62636.3
-0.0377914 0 0.005 -61938.8
-0.0365171 0 0.005 -58691
-0.0352688 0 0.005 -48808.2
-0.0340456 0 0.005 -35932.1
-0.0328467 0 0.005 -34742.1
-0.0316712 0 0.005 -43896.3
-0.0305183 0 0.005 -52824
-0.0293871 0 0.005 -60090.7
-0.028277 0 0.005 -66054.6
-0.0271869 0 0.005 -71114.1
-0.0261162 0 0.005 -75372.9
-0.0250641 0 0.005 -79208.2
-0.02403 0 0.005 -82580
-0.023013 0 0.005 -85593.1
-0.0220124 0 0.005 -88409.6
-0.0210274 0 0.005 -91036.5
-0.0200575 0 0.005 -93502.7
-0.0191018 0 0.005 -95867.2
-0.0181598 0 0.005 -98134.8
-0.0172307 0 0.005 -100265
-0.0163139 0 0.005 -102257
-0.0154087 0 0.005 -104095
-0.0145146 0 0.005 -105761
-0.0136307 0 0.005 -107316
-0.0127566 0 0.005 -108704
-0.0118916 0 0.005 -109915
-0.011035 0 0.005 -111008
-0.0101864 0 0.005 -112004
-0.00934497 0 0.005 -113052
-0.00851021 0 0.005 -114094
-0.00768153 0 0.005 -115467
-0.00685832 0 0.005 -117208
-0.00604 0 0.005 -119874
-0.00522598 0 0.005 -123160
-0.0044157 0 0.005 -127713
-0.00360857 0 0.005 -133483
-0.002804 0 0.005 -140322
-0.00200143 0 0.005 -148299
-0.00120028 0 0.005 -152082
-0.0004 0 0.005 -155504
0.00034641 0.0002 0.005 -120481
0.00103936 0.000600074 0.005 -139611
0.00173269 0.00100037 0.005 -165079
0.00242667 0.00140104 0.005 -182722
0.00312154 0.00180222 0.005 -197123
0.00381758 0.00220408 0.005 -209745
0.00451503 0.00260675 0.005 -223252
0.00521415 0.00301039 0.005 -237594
0.0059152 0.00341514 0.005 -253263
0.00661845 0.00382117 0.005 -270298
0.00732415 0.0042286 0.005 -289083
0.00803257 0.00463761 0.005 -310014
0.00874396 0.00504833 0.005 -333205
0.0094586 0.00546093 0.005 -358861
0.0101767 0.00587555 0.005 -387336
0.0108987 0.00629234 0.005 -418716
0.0116246 0.00671146 0.005 -453862
0.0123549 0.00713309 0.005 -492726
0.0130897 0.00755735 0.005 -536086
0.0138294 0.00798441 0.005 -584416
0.0145742 0.00841443 0.005 -638189
0.0153244 0.00884757 0.005 -698802
0.0160804 0.009284 0.005 -766043
0.0168422 0.00972386 0.005 -841338
0.0176104 0.0101673 0.005 -924437
0.018385 0.0106146 0.005 -1.01545e+06
0.0191664 0.0110657 0.005 -1.11155e+06
0.019955 0.011521 0.005 -1.21358e+06
0.0207509 0.0119805 0.005 -1.31899e+06
0.0215546 0.0124445 0.005 -1.42503e+06
0.0223662 0.0129131 0.005 -1.53197e+06
0.0231861 0.0133865 0.005 -1.63502e+06
0.0240146 0.0138648 0.005 -1.7346e+06
0.0248521 0.0143483 0.005 -1.82725e+06
0.0256987 0.0148371 0.005 -1.91234e+06
0.0265549 0.0153315 0.005 -1.99328e+06
0.0274209 0.0158315 0.005 -2.0658e+06
0.0282971 0.0163373 0.005 -2.1453e+06
0.0291837 0.0168492 0.005 -2.18738e+06
0.0300812 0.0173674 0.005 -2.22086e+06
0.0309898 0.017892 0.005 -2.23974e+06
0.03191 0.0184232 0.005 -2.24799e+06
0.0328419 0.0189613 0.005 -2.21586e+06
0.033786 0.0195063 0.005 -2.18611e+06
0.0347427 0.0200587 0.005 -2.1186e+06
0.0357122 0.0206184 0.005 -2.04995e+06
0.036695 0.0211858 0.005 -1.97873e+06
0.0376913 0.0217611 0.005 -1.91459e+06
0.0387017 0.0223444 0.005 -1.84214e+06
0.0397264 0.022936 0.005 -1.77766e+06
0.0407658 0.0235361 0.005 -1.72386e+06
0.0418202 0.0241449 0.005 -1.6766e+06
0.0428902 0.0247627 0.005 -1.62742e+06
0.0439762 0.0253897 0.005 -1.58181e+06
0.0450784 0.0260261 0.005 -1.54586e+06
0.0461974 0.0266721 0.005 -1.51443e+06
0.0473334 0.0273279 0.005 -1.48434e+06
0.0484871 0.027994 0.005 -1.45445e+06
0.0496586 0.0286704 0.005 -1.44947e+06
0.0508486 0.0293575 0.005 -1.42942e+06
0.0520574 0.0300554 0.005 -1.40324e+06
0.0532855 0.0307644 0.005 -1.39017e+06
0.0545335 0.0314849 0.005 -1.37726e+06
0.0558016 0.0322171 0.005 -1.36443e+06
0.0570903 0.0329612 0.005 -1.35371e+06
0.0584003 0.0337174 0.005 -1.34522e+06
0.0597319 0.0344863 0.005 -1.33636e+06
0.0610857 0.0352678 0.005 -1.33106e+06
0.062462 0.0360624 0.005 -1.32763e+06
0.0638616 0.0368705 0.005 -1.31758e+06
0.0652848 0.0376922 0.005 -1.31838e+06
0.0667321 0.0385279 0.005 -1.3057e+06
0.0682043 0.0393778 0.005 -1.30639e+06
0.0697018 0.0402423 0.005 -1.29525e+06
0.071225 0.0411218 0.005 -1.28309e+06
0.0727747 0.0420165 0.005 -1.27596e+06
0.0743514 0.0429267 0.005 -1.27298e+06
0.0759556 0.043853 0.005 -1.2587e+06
0.0775879 0.0447954 0.005 -1.25135e+06
0.0792491 0.0457545 0.005 -1.24276e+06
0.0809395 0.0467305 0.005 -1.24276e+06
0.08266 0.0477239 0.005 -1.23348e+06
0.0844112 0.0487348 0.005 -1.22338e+06
0.0861936 0.0497639 0.005 -1.22487e+06
0.0880081 0.0508114 0.005 -1.22083e+06
0.089855 0.0518778 0.005 -1.20807e+06
0.0917354 0.0529634 0.005 -1.20024e+06
0.0936497 0.0540687 0.005 -1.189e+06
0.0955988 0.055194 0.005 -1.18019e+06
0.0975833 0.0563398 0.005 -1.18102e+06
0.0996037 0.0575064 0.005 -1.34584e+06
0.101662 0.0586943 0.005 -1.27221e+06
0.103757 0.0599039 0.005 -1.27948e+06
0.10589 0.0611359 0.005 -1.15852e+06
0.108064 0.0623905 0.005 -1.13714e+06
0.110277 0.0636682 0.005 -1.16038e+06
0.112531 0.0649695 0.005 -1.20683e+06
0.114826 0.0662949 0.005 -1.29932e+06
0.117164 0.0676448 0.005 -1.37575e+06
0.119546 0.0690198 0.005 -1.23884e+06
0.121972 0.0704204 0.005 -1.22151e+06
0.124443 0.0718472 0.005 -1.09934e+06
0.126961 0.0733005 0.005 -1.21817e+06
0.129525 0.0747811 0.005 -1.0888e+06
0.132137 0.0762893 0.005 -1.20342e+06
0.134798 0.0778258 0.005 -1.37524e+06
0.13751 0.0793912 0.005 -1.32832e+06
0.140272 0.080986 0.005 -1.06983e+06
0.143086 0.0826109 0.005 -1.33524e+06
0.145954 0.0842664 0.005 -1.2894e+06
0.148875 0.085953 0.005 -1.26965e+06
0.151852 0.0876716 0.005 -1.24696e+06
0.154884 0.0894226 0.005 -1.14332e+06
0.157975 0.0912068 0.005 -1.31e+06
0.161123 0.0930248 0.005 -1.27957e+06
0.164332 0.0948773 0.005 -1.16625e+06
0.167602 0.096765 0.005 -1.16244e+06
0.170933 0.0986885 0.005 -1.04181e+06
0.174328 0.100649 0.005 -1.00018e+06
0.177788 0.102646 0.005 -993697
0.181313 0.104681 0.005 -987371
0.184907 0.106756 0.005 -1.3369e+06
0.188568 0.10887 0.005 -994929
0.192299 0.111024 0.005 -1.25455e+06
0.196102 0.113219 0.005 -1.12857e+06
0.199977 0.115456 0.005 -1.2125e+06
0.203926 0.117737 0.005 -1.20685e+06
0.20795 0.120061 0.005 -995290
0.212053 0.122428 0.005 -1.20402e+06
0.216234 0.124843 0.005 -1.2426e+06
0.220494 0.127302 0.005 -1.20414e+06
0.224837 0.129809 0.005 -901396
0.229262 0.132365 0.005 -1.2567e+06
0.233773 0.134969 0.005 -1.20477e+06
0.23837 0.137624 0.005 -946724
0.243057 0.140328 0.005 -1.09875e+06
0.247833 0.143086 0.005 -1.06703e+06
0.2527 0.145896 0.005 -1.15027e+06
0.257662 0.148761 0.005 -1.05514e+06
0.262718 0.151681 0.005 -1.15405e+06
0.267873 0.154657 0.005 -1.19292e+06
0.273127 0.15769 0.005 -1.11799e+06
0.278482 0.160781 0.005 -850587
0.28394 0.163933 0.005 -1.14739e+06
0.289504 0.167145 0.005 -1.08534e+06
0.295175 0.170419 0.005 -1.17612e+06
0.300955 0.173756 0.005 -1.10184e+06
0.306846 0.177158 0.005 -858902
0.312851 0.180625 0.005 -1.19991e+06
