# y+ ()       
# Time        	patch         	min           	max           	average       
4000          	base	1.409730e-04	3.280085e-01	5.748330e-02
