# y+ ()       
# Time        	patch         	min           	max           	average       
0             	base	6.290950e-03	7.713989e-03	7.233533e-03
