# p  FACE_DATA 203
# x  y  z  p
-0.873265 0 0.0205 3480.43
-0.846493 0 0.0205 2975.95
-0.820677 0 0.0205 2845.96
-0.795786 0 0.0205 2796.75
-0.771783 0 0.0205 2779.98
-0.74637 0 0.0205 2774.38
-0.719597 0 0.0205 2770.05
-0.693782 0 0.0205 2769.47
-0.66889 0 0.0205 2768.12
-0.644887 0 0.0205 2764.55
-0.621743 0 0.0205 2761.82
-0.599426 0 0.0205 2761.05
-0.577905 0 0.0205 2760.03
-0.557154 0 0.0205 2757.68
-0.537145 0 0.0205 2755.47
-0.517849 0 0.0205 2754.41
-0.499243 0 0.0205 2754.47
-0.481301 0 0.0205 2754.2
-0.463999 0 0.0205 2752.54
-0.447314 0 0.0205 2750.1
-0.431225 0 0.0205 2747.98
-0.41571 0 0.0205 2746.66
-0.400747 0 0.0205 2746.43
-0.386317 0 0.0205 2747.46
-0.372401 0 0.0205 2748.68
-0.358981 0 0.0205 2748.9
-0.346039 0 0.0205 2747.57
-0.333556 0 0.0205 2745.27
-0.321518 0 0.0205 2742.63
-0.309908 0 0.0205 2740.15
-0.298709 0 0.0205 2738.38
-0.287908 0 0.0205 2737.47
-0.27749 0 0.0205 2737.39
-0.267441 0 0.0205 2738.42
-0.257748 0 0.0205 2740.01
-0.248397 0 0.0205 2741.76
-0.239378 0 0.0205 2743.34
-0.230677 0 0.0205 2744.41
-0.222282 0 0.0205 2744.86
-0.214183 0 0.0205 2744.57
-0.20637 0 0.0205 2743.58
-0.19883 0 0.0205 2742.08
-0.191555 0 0.0205 2740.18
-0.184536 0 0.0205 2738.05
-0.177762 0 0.0205 2735.9
-0.171224 0 0.0205 2733.88
-0.164914 0 0.0205 2732.1
-0.158824 0 0.0205 2730.57
-0.152944 0 0.0205 2729.37
-0.147268 0 0.0205 2728.54
-0.141788 0 0.0205 2728.04
-0.136496 0 0.0205 2727.84
-0.131387 0 0.0205 2727.89
-0.126452 0 0.0205 2728.21
-0.121685 0 0.0205 2728.77
-0.117081 0 0.0205 2729.52
-0.112632 0 0.0205 2730.39
-0.108332 0 0.0205 2731.35
-0.104177 0 0.0205 2732.32
-0.100161 0 0.0205 2733.29
-0.0962773 0 0.0205 2734.22
-0.0925221 0 0.0205 2735.1
-0.08889 0 0.0205 2735.91
-0.0853762 0 0.0205 2736.64
-0.0819759 0 0.0205 2737.3
-0.0786847 0 0.0205 2737.88
-0.0754981 0 0.0205 2738.39
-0.0724121 0 0.0205 2738.86
-0.0694223 0 0.0205 2739.27
-0.066525 0 0.0205 2739.64
-0.0637161 0 0.0205 2739.96
-0.060992 0 0.0205 2740.23
-0.0583491 0 0.0205 2740.45
-0.0557837 0 0.0205 2740.66
-0.0532926 0 0.0205 2740.79
-0.0508723 0 0.0205 2740.86
-0.0485197 0 0.0205 2740.93
-0.0462317 0 0.0205 2740.67
-0.0440053 0 0.0205 2743.16
-0.0418373 0 0.0205 2863.99
-0.039725 0 0.0205 4112.44
-0.0376655 0 0.0205 5899.33
-0.0356562 0 0.0205 6948.93
-0.0336943 0 0.0205 7633.36
-0.0317773 0 0.0205 8113.83
-0.0299025 0 0.0205 8503.35
-0.0280674 0 0.0205 8826.94
-0.0262697 0 0.0205 9113.47
-0.024507 0 0.0205 9368.66
-0.0227768 0 0.0205 9601.9
-0.021077 0 0.0205 9816.75
-0.0194052 0 0.0205 10019.8
-0.0177593 0 0.0205 10212.3
-0.016137 0 0.0205 10395.6
-0.014536 0 0.0205 10569.7
-0.0129545 0 0.0205 10733.7
-0.0113902 0 0.0205 10884.3
-0.00984104 0 0.0205 11018.7
-0.00830498 0 0.0205 11131.7
-0.00677997 0 0.0205 11228.8
-0.00526398 0 0.0205 11309.9
-0.00375499 0 0.0205 11385.6
-0.002251 0 0.0205 11701.2
-0.00075 0 0.0205 13167.9
0.000689475 0.000398068 0.0205 11949.5
0.00206843 0.0011942 0.0205 12328.6
0.00344737 0.00199034 0.0205 12912.5
0.00482631 0.00278648 0.0205 13606.7
0.00620527 0.00358261 0.0205 14483.8
0.00758422 0.00437875 0.0205 15514.7
0.00896317 0.00517489 0.0205 16721.1
0.0103421 0.00597102 0.0205 18133.7
0.0117211 0.00676715 0.0205 19788.3
0.0131 0.00756329 0.0205 21723.1
0.0144789 0.00835943 0.0205 23979
0.0158579 0.00915557 0.0205 26588.3
0.0172368 0.00995171 0.0205 29582.3
0.0186158 0.0107478 0.0205 32992.8
0.0199947 0.0115439 0.0205 36887.5
0.0213737 0.0123401 0.0205 41314.3
0.0227526 0.0131362 0.0205 46366.9
0.0241316 0.0139323 0.0205 52128.7
0.0255106 0.0147285 0.0205 58728.9
0.0268895 0.0155246 0.0205 66274.9
0.0282685 0.0163208 0.0205 74823.2
0.0296474 0.0171169 0.0205 84306.3
0.0310264 0.017913 0.0205 94575.1
0.0324053 0.0187092 0.0205 105425
0.0337843 0.0195054 0.0205 116857
0.0351632 0.0203015 0.0205 128257
0.0365421 0.0210976 0.0205 137977
0.037921 0.0218938 0.0205 144826
0.0393 0.0226898 0.0205 148339
0.0406789 0.023486 0.0205 150560
0.0420579 0.0242821 0.0205 143618
0.0434368 0.0250783 0.0205 137088
0.0448158 0.0258745 0.0205 130852
0.0461948 0.0266706 0.0205 124776
0.0475737 0.0274667 0.0205 119112
0.0489527 0.0282628 0.0205 114284
0.0503316 0.029059 0.0205 110395
0.0517106 0.0298551 0.0205 107548
0.0530895 0.0306512 0.0205 105392
0.0544684 0.0314473 0.0205 103673
0.0558474 0.0322435 0.0205 102122
0.0572264 0.0330397 0.0205 100770
0.0586053 0.0338357 0.0205 99594.5
0.0599842 0.0346319 0.0205 98890.1
0.0613632 0.0354281 0.0205 98547
0.0627422 0.0362242 0.0205 98531.2
0.0641211 0.0370204 0.0205 98548.9
0.0655001 0.0378164 0.0205 98607.7
0.066879 0.0386126 0.0205 98796.3
0.0682579 0.0394088 0.0205 99206.3
0.0696369 0.0402049 0.0205 99736.5
0.0710158 0.041001 0.0205 100187
0.0723947 0.0417971 0.0205 100316
0.0737737 0.0425932 0.0205 100190
0.0751527 0.0433894 0.0205 100054
0.0765316 0.0441856 0.0205 99824.6
0.0779106 0.0449817 0.0205 99823.9
0.0792895 0.0457778 0.0205 99982.1
0.0806685 0.0465739 0.0205 100324
0.0820474 0.0473701 0.0205 100721
0.0834263 0.0481662 0.0205 101101
0.0848053 0.0489624 0.0205 101274
0.0861843 0.0497585 0.0205 101410
0.0875632 0.0505546 0.0205 101454
0.0889421 0.0513508 0.0205 101457
0.0903211 0.0521469 0.0205 101448
0.0917 0.0529431 0.0205 101426
0.093079 0.0537392 0.0205 101297
0.094458 0.0545353 0.0205 101306
0.0958369 0.0553315 0.0205 101280
0.0972159 0.0561276 0.0205 101320
0.0985948 0.0569238 0.0205 101366
0.0999737 0.0577198 0.0205 101429
0.101352 0.058516 0.0205 101462
0.102732 0.0593121 0.0205 101518
0.10411 0.0601083 0.0205 101542
0.105489 0.0609044 0.0205 101568
0.106868 0.0617005 0.0205 101566
0.108248 0.0624967 0.0205 101541
0.109627 0.0632928 0.0205 101566
0.111006 0.064089 0.0205 101547
0.112385 0.0648851 0.0205 101534
0.113764 0.0656812 0.0205 101511
0.115143 0.0664774 0.0205 101475
0.116522 0.0672735 0.0205 101481
0.117901 0.0680697 0.0205 101482
0.119279 0.0688658 0.0205 101611
0.120658 0.0696619 0.0205 101595
0.122037 0.0704581 0.0205 101686
0.123415 0.0712542 0.0205 101744
0.124794 0.0720503 0.0205 101886
0.126173 0.0728465 0.0205 101997
0.127552 0.0736426 0.0205 102084
0.128931 0.0744387 0.0205 102226
0.13031 0.0752348 0.0205 102305
0.131689 0.076031 0.0205 102391
0.133069 0.0768271 0.0205 102458
0.134447 0.0776233 0.0205 102497
0.135827 0.0784194 0.0205 102267
