# Wall heat-flux
# Time        	patch         	min           	max           	integral      
0             	base	9.562617e+06	1.765917e+07	1.253348e+05
