# Wall heat-flux
# Time        	patch         	min           	max           	integral      
4000          	base	-3.036862e+06	-5.212366e+04	-3.281257e+03
