# wallHeatFlux  FACE_DATA 398
# x  y  z  wallHeatFlux
-0.7975 0 0.025 -653677
-0.79239 0 0.025 -120039
-0.787056 0 0.025 -71339.8
-0.781492 0 0.025 -64731
-0.775691 0 0.025 -66096.2
-0.769649 0 0.025 -66637.2
-0.763362 0 0.025 -66935.6
-0.756822 0 0.025 -66685.6
-0.750025 0 0.025 -66073.5
-0.742968 0 0.025 -65089.6
-0.735648 0 0.025 -64013.4
-0.72806 0 0.025 -63005.3
-0.720203 0 0.025 -62104.4
-0.712076 0 0.025 -61151
-0.703677 0 0.025 -60265.7
-0.695006 0 0.025 -59491.5
-0.686065 0 0.025 -58748.7
-0.676855 0 0.025 -58058.5
-0.667379 0 0.025 -57324.3
-0.65764 0 0.025 -56654
-0.647644 0 0.025 -56108.7
-0.637397 0 0.025 -55535.2
-0.626906 0 0.025 -54946.6
-0.616179 0 0.025 -54465.3
-0.605224 0 0.025 -53920.2
-0.594054 0 0.025 -53453.3
-0.582678 0 0.025 -52977.4
-0.57111 0 0.025 -52526.3
-0.559364 0 0.025 -52074.1
-0.547454 0 0.025 -51677.9
-0.535396 0 0.025 -51296.2
-0.523205 0 0.025 -50953.1
-0.510901 0 0.025 -50567.1
-0.4985 0 0.025 -50160.4
-0.486021 0 0.025 -49816.7
-0.473483 0 0.025 -49513.8
-0.460905 0 0.025 -49218.8
-0.448308 0 0.025 -48965.8
-0.435709 0 0.025 -48689.4
-0.42313 0 0.025 -48383
-0.41059 0 0.025 -48080.9
-0.39811 0 0.025 -47809.3
-0.385706 0 0.025 -47578.8
-0.373398 0 0.025 -47369.8
-0.361205 0 0.025 -47197.3
-0.349141 0 0.025 -47038.8
-0.337226 0 0.025 -46837.1
-0.325475 0 0.025 -46602.7
-0.313901 0 0.025 -46341.2
-0.30252 0 0.025 -46105.8
-0.291343 0 0.025 -45919.9
-0.280382 0 0.025 -45787.7
-0.269646 0 0.025 -45686.7
-0.259148 0 0.025 -45591.6
-0.248893 0 0.025 -45487.5
-0.23889 0 0.025 -45357.1
-0.229143 0 0.025 -45215.5
-0.219659 0 0.025 -45075.6
-0.210441 0 0.025 -44951.6
-0.201491 0 0.025 -44841.6
-0.192812 0 0.025 -44745.3
-0.184405 0 0.025 -44659.1
-0.176269 0 0.025 -44576.2
-0.168404 0 0.025 -44489.9
-0.160808 0 0.025 -44403.7
-0.15348 0 0.025 -44315.2
-0.146415 0 0.025 -44211.5
-0.13961 0 0.025 -44085
-0.133063 0 0.025 -43960.6
-0.126767 0 0.025 -43837
-0.120718 0 0.025 -43719.3
-0.11491 0 0.025 -43618.4
-0.109339 0 0.025 -43528.8
-0.103997 0 0.025 -43459.9
-0.0988805 0 0.025 -43395
-0.0939808 0 0.025 -43348.9
-0.0892928 0 0.025 -43320.2
-0.0848096 0 0.025 -43307.7
-0.0805248 0 0.025 -43306.4
-0.0764316 0 0.025 -43321.3
-0.0725237 0 0.025 -43341.7
-0.0687943 0 0.025 -43362.9
-0.065237 0 0.025 -43383.5
-0.0618454 0 0.025 -43405.1
-0.058613 0 0.025 -43425.9
-0.0555337 0 0.025 -43442.4
-0.0526013 0 0.025 -43458.2
-0.0498099 0 0.025 -43463.7
-0.0471536 0 0.025 -43469.2
-0.0446266 0 0.025 -43474.7
-0.0422235 0 0.025 -43474.8
-0.039939 0 0.025 -43475
-0.0377676 0 0.025 -43469.5
-0.0357044 0 0.025 -43465
-0.0337445 0 0.025 -43459.5
-0.0318832 0 0.025 -43379.2
-0.0301159 0 0.025 -41326.1
-0.0284383 0 0.025 -33964.7
-0.0268461 0 0.025 -36505.3
-0.0253353 0 0.025 -53965.8
-0.023902 0 0.025 -64393.9
-0.0225426 0 0.025 -70747.1
-0.0212532 0 0.025 -76069.3
-0.0200306 0 0.025 -80842.7
-0.0188715 0 0.025 -84727.7
-0.0177728 0 0.025 -88286.6
-0.0167313 0 0.025 -91513.8
-0.0157444 0 0.025 -94441.5
-0.0148092 0 0.025 -97325.6
-0.0139232 0 0.025 -100109
-0.0130838 0 0.025 -102687
-0.0122887 0 0.025 -104948
-0.0115356 0 0.025 -106913
-0.0108223 0 0.025 -108613
-0.0101469 0 0.025 -110077
-0.00950727 0 0.025 -111334
-0.00890168 0 0.025 -112426
-0.00832835 0 0.025 -113434
-0.00778557 0 0.025 -114428
-0.00727176 0 0.025 -115467
-0.0067854 0 0.025 -116589
-0.00632507 0 0.025 -117834
-0.00588937 0 0.025 -119216
-0.00547703 0 0.025 -120748
-0.0050868 0 0.025 -122426
-0.00471753 0 0.025 -124250
-0.0043681 0 0.025 -126221
-0.00403746 0 0.025 -128369
-0.00372461 0 0.025 -130637
-0.0034286 0 0.025 -133042
-0.00314855 0 0.025 -135620
-0.0028836 0 0.025 -138405
-0.00263294 0 0.025 -141263
-0.00239581 0 0.025 -143998
-0.0021715 0 0.025 -146888
-0.00195929 0 0.025 -149875
-0.00175856 0 0.025 -152946
-0.00156869 0 0.025 -156101
-0.00138908 0 0.025 -159349
-0.0012192 0 0.025 -162654
-0.00105853 0 0.025 -166022
-0.000906546 0 0.025 -169422
-0.000762803 0 0.025 -172730
-0.000626848 0 0.025 -175632
-0.000498265 0 0.025 -177279
-0.000376656 0 0.025 -175805
-0.000261642 0 0.025 -167613
-0.00015287 0 0.025 -145684
-5e-05 0 0.025 -94197.3
4.14519e-05 2.79596e-05 0.025 -66505.7
0.000125371 8.45641e-05 0.025 -79968.9
0.000211347 0.000142556 0.025 -95426.3
0.000299429 0.000201968 0.025 -106732
0.000389669 0.000262835 0.025 -116209
0.000482118 0.000325193 0.025 -125235
0.000576831 0.000389077 0.025 -133745
0.000673861 0.000454524 0.025 -141462
0.000773265 0.000521574 0.025 -148294
0.0008751 0.000590262 0.025 -154303
0.000979426 0.000660632 0.025 -159604
0.0010863 0.000732721 0.025 -164323
0.00119579 0.000806572 0.025 -168692
0.00130795 0.000882227 0.025 -172745
0.00142285 0.00095973 0.025 -176535
0.00154056 0.00103912 0.025 -180198
0.00166115 0.00112046 0.025 -183731
0.00178467 0.00120378 0.025 -187219
0.00191121 0.00128913 0.025 -190697
0.00204083 0.00137656 0.025 -194116
0.00217362 0.00146612 0.025 -197594
0.00230964 0.00155787 0.025 -201134
0.00244897 0.00165185 0.025 -204689
0.00259169 0.00174812 0.025 -208328
0.00273789 0.00184673 0.025 -212078
0.00288765 0.00194774 0.025 -215962
0.00304105 0.00205122 0.025 -219945
0.00319818 0.00215719 0.025 -224055
0.00335912 0.00226575 0.025 -228366
0.00352397 0.00237695 0.025 -232822
0.00369283 0.00249085 0.025 -237493
0.00386579 0.00260751 0.025 -242341
0.00404294 0.00272699 0.025 -247427
0.00422438 0.00284938 0.025 -252787
0.00441022 0.00297474 0.025 -258415
0.00460056 0.00310312 0.025 -264328
0.00479552 0.00323462 0.025 -270522
0.00499519 0.0033693 0.025 -277109
0.00519968 0.00350723 0.025 -284006
0.00540911 0.00364849 0.025 -291350
0.00562361 0.00379318 0.025 -299119
0.00584329 0.00394134 0.025 -307312
0.00606826 0.00409309 0.025 -316105
0.00629865 0.00424849 0.025 -325356
0.0065346 0.00440764 0.025 -335206
0.00677623 0.00457063 0.025 -345776
0.00702368 0.00473753 0.025 -356929
0.00727707 0.00490844 0.025 -368915
0.00753655 0.00508347 0.025 -381699
0.00780227 0.00526269 0.025 -395526
0.00807436 0.00544622 0.025 -410335
0.00835298 0.00563415 0.025 -425976
0.00863826 0.00582659 0.025 -443123
0.00893038 0.00602362 0.025 -462348
0.00922949 0.00622537 0.025 -482163
0.00953574 0.00643195 0.025 -503102
0.00984929 0.00664345 0.025 -527126
0.0101703 0.00686 0.025 -554464
0.0104991 0.00708171 0.025 -582972
0.0108356 0.00730871 0.025 -617607
0.0111801 0.0075411 0.025 -654728
0.0115329 0.00777902 0.025 -693417
0.011894 0.00802259 0.025 -737925
0.0122637 0.00827194 0.025 -781250
0.0126421 0.00852719 0.025 -825443
0.0130295 0.0087885 0.025 -867975
0.013426 0.00905597 0.025 -910934
0.013832 0.00932978 0.025 -953312
0.0142475 0.00961003 0.025 -995728
0.0146727 0.0098969 0.025 -1.03751e+06
0.0151081 0.0101905 0.025 -1.08046e+06
0.0155536 0.010491 0.025 -1.1252e+06
0.0160097 0.0107986 0.025 -1.17027e+06
0.0164764 0.0111134 0.025 -1.21898e+06
0.016954 0.0114356 0.025 -1.27056e+06
0.0174427 0.0117653 0.025 -1.32111e+06
0.0179429 0.0121026 0.025 -1.37651e+06
0.0184548 0.0124479 0.025 -1.43992e+06
0.0189786 0.0128013 0.025 -1.48284e+06
0.0195146 0.0131628 0.025 -1.53323e+06
0.020063 0.0135327 0.025 -1.59292e+06
0.0206242 0.0139112 0.025 -1.63258e+06
0.0211983 0.0142984 0.025 -1.66323e+06
0.0217857 0.0146947 0.025 -1.70017e+06
0.0223867 0.0151 0.025 -1.73153e+06
0.0230015 0.0155147 0.025 -1.75624e+06
0.0236304 0.0159389 0.025 -1.78487e+06
0.0242738 0.0163729 0.025 -1.78362e+06
0.0249318 0.0168167 0.025 -1.79481e+06
0.025605 0.0172708 0.025 -1.79971e+06
0.0262935 0.0177352 0.025 -1.77326e+06
0.0269977 0.0182102 0.025 -1.74622e+06
0.0277178 0.0186959 0.025 -1.71045e+06
0.0284544 0.0191927 0.025 -1.72743e+06
0.0292075 0.0197008 0.025 -1.67377e+06
0.0299777 0.0202203 0.025 -1.62667e+06
0.0307653 0.0207514 0.025 -1.59594e+06
0.0315704 0.0212945 0.025 -1.56467e+06
0.0323937 0.0218499 0.025 -1.53783e+06
0.0332354 0.0224176 0.025 -1.50869e+06
0.0340959 0.022998 0.025 -1.48417e+06
0.0349755 0.0235913 0.025 -1.45114e+06
0.0358747 0.0241978 0.025 -1.45073e+06
0.0367938 0.0248178 0.025 -1.41351e+06
0.0377331 0.0254513 0.025 -1.38924e+06
0.0386932 0.0260989 0.025 -1.37143e+06
0.0396743 0.0267606 0.025 -1.35629e+06
0.0406769 0.0274369 0.025 -1.3466e+06
0.0417013 0.0281279 0.025 -1.33281e+06
0.042748 0.0288339 0.025 -1.333e+06
0.0438175 0.0295552 0.025 -1.31995e+06
0.04491 0.0302922 0.025 -1.30896e+06
0.0460262 0.031045 0.025 -1.30982e+06
0.0471662 0.031814 0.025 -1.31633e+06
0.0483306 0.0325995 0.025 -1.30883e+06
0.0495199 0.0334016 0.025 -1.31245e+06
0.0507344 0.0342208 0.025 -1.30851e+06
0.0519746 0.0350573 0.025 -1.30484e+06
0.0532409 0.0359114 0.025 -1.30711e+06
0.0545339 0.0367835 0.025 -1.29451e+06
0.0558538 0.0376739 0.025 -1.29373e+06
0.0572012 0.0385827 0.025 -1.29335e+06
0.0585766 0.0395104 0.025 -1.29206e+06
0.0599804 0.0404573 0.025 -1.2998e+06
0.061413 0.0414236 0.025 -1.28101e+06
0.0628748 0.0424096 0.025 -1.30572e+06
0.0643665 0.0434157 0.025 -1.30984e+06
0.0658883 0.0444422 0.025 -1.28309e+06
0.0674408 0.0454894 0.025 -1.27446e+06
0.0690245 0.0465576 0.025 -1.27457e+06
0.0706398 0.0476471 0.025 -1.27079e+06
0.0722871 0.0487582 0.025 -1.26812e+06
0.0739669 0.0498912 0.025 -1.26675e+06
0.0756797 0.0510466 0.025 -1.27615e+06
0.0774258 0.0522244 0.025 -1.28736e+06
0.0792059 0.053425 0.025 -1.28142e+06
0.0810203 0.0546489 0.025 -1.30204e+06
0.0828694 0.0558961 0.025 -1.27332e+06
0.0847537 0.0571671 0.025 -1.3168e+06
0.0866737 0.0584622 0.025 -1.27644e+06
0.0886298 0.0597816 0.025 -1.27645e+06
0.0906224 0.0611256 0.025 -1.28746e+06
0.0926518 0.0624944 0.025 -1.25269e+06
0.0947185 0.0638884 0.025 -1.29535e+06
0.096823 0.065308 0.025 -1.2542e+06
0.0989659 0.0667532 0.025 -1.34277e+06
0.101147 0.0682245 0.025 -1.69328e+06
0.103367 0.0697219 0.025 -1.5991e+06
0.105626 0.0712458 0.025 -1.20504e+06
0.107926 0.0727965 0.025 -1.20089e+06
0.110265 0.074374 0.025 -1.23827e+06
0.112644 0.0759789 0.025 -1.84424e+06
0.115063 0.0776111 0.025 -1.24205e+06
0.117524 0.0792709 0.025 -1.71733e+06
0.120026 0.0809585 0.025 -1.88908e+06
0.122569 0.0826741 0.025 -1.67692e+06
0.125155 0.0844179 0.025 -1.49714e+06
0.127782 0.0861901 0.025 -1.29777e+06
0.130451 0.0879908 0.025 -1.25359e+06
0.133163 0.08982 0.025 -1.23025e+06
0.135918 0.0916781 0.025 -1.20059e+06
0.138716 0.0935651 0.025 -1.20158e+06
0.141556 0.095481 0.025 -1.21047e+06
0.14444 0.097426 0.025 -1.59534e+06
0.147367 0.0994004 0.025 -2.35889e+06
0.150337 0.101404 0.025 -1.67455e+06
0.153351 0.103437 0.025 -1.62435e+06
0.156408 0.105498 0.025 -2.26978e+06
0.159508 0.107589 0.025 -1.0293e+06
0.162651 0.10971 0.025 -1.5236e+06
0.165838 0.111859 0.025 -3.70375e+06
0.169069 0.114039 0.025 -1.61069e+06
0.172343 0.116247 0.025 -1.99595e+06
0.175659 0.118483 0.025 -1.8942e+06
0.179018 0.120749 0.025 -1.89119e+06
0.182421 0.123045 0.025 -1.96527e+06
0.185866 0.125368 0.025 -1.72085e+06
0.189353 0.12772 0.025 -1.75338e+06
0.192882 0.1301 0.025 -1.86086e+06
0.196453 0.132509 0.025 -1.75144e+06
0.200065 0.134946 0.025 -2.18334e+06
0.203718 0.13741 0.025 -1.945e+06
0.207412 0.139901 0.025 -928983
0.211146 0.14242 0.025 -990685
0.214919 0.144965 0.025 -1.62763e+06
0.218732 0.147537 0.025 -994115
0.222583 0.150134 0.025 -1.95832e+06
0.226472 0.152757 0.025 -983050
0.230399 0.155406 0.025 -1.8474e+06
0.234362 0.15808 0.025 -1.73885e+06
0.238362 0.160777 0.025 -2.36597e+06
0.242396 0.163498 0.025 -1.95764e+06
0.246466 0.166244 0.025 -2.12216e+06
0.250569 0.169012 0.025 -935439
0.254706 0.171801 0.025 -1.5424e+06
0.258874 0.174613 0.025 -1.54572e+06
0.263074 0.177446 0.025 -1.97409e+06
0.267304 0.180299 0.025 -1.594e+06
0.271564 0.183172 0.025 -953912
0.275852 0.186064 0.025 -1.6383e+06
0.280168 0.188975 0.025 -928140
0.28451 0.191904 0.025 -1.66346e+06
0.288876 0.19485 0.025 -2.29247e+06
0.293268 0.197812 0.025 -1.62138e+06
0.297683 0.20079 0.025 -1.9376e+06
0.302119 0.203782 0.025 -2.24762e+06
0.306577 0.206788 0.025 -1.39452e+06
0.311054 0.209808 0.025 -1.58939e+06
0.315549 0.212841 0.025 -1.17212e+06
0.320063 0.215885 0.025 -2.03321e+06
0.324591 0.218939 0.025 -1.43195e+06
0.329134 0.222003 0.025 -1.42156e+06
0.333691 0.225077 0.025 -2.23299e+06
0.33826 0.228159 0.025 -1.79398e+06
0.342839 0.231248 0.025 -1.84223e+06
0.347428 0.234343 0.025 -879907
0.352025 0.237444 0.025 -1.95121e+06
0.356628 0.240548 0.025 -1.42455e+06
0.361237 0.243658 0.025 -1.16064e+06
0.36585 0.246769 0.025 -2.60404e+06
0.370465 0.249882 0.025 -1.02901e+06
0.375082 0.252996 0.025 -1.45282e+06
0.379698 0.25611 0.025 -2.18358e+06
0.384313 0.259223 0.025 -1.38823e+06
0.388926 0.262333 0.025 -1.72191e+06
0.393534 0.265442 0.025 -1.41828e+06
0.398136 0.268546 0.025 -884787
0.40273 0.271645 0.025 -1.64208e+06
0.407317 0.274739 0.025 -1.69813e+06
0.411894 0.277826 0.025 -2.12825e+06
0.41646 0.280906 0.025 -839891
0.421014 0.283977 0.025 -1.60682e+06
0.425554 0.28704 0.025 -1.88346e+06
0.430079 0.290092 0.025 -1.49142e+06
0.434588 0.293133 0.025 -1.84864e+06
0.439079 0.296162 0.025 -1.286e+06
0.443551 0.299179 0.025 -1.67864e+06
0.448004 0.302183 0.025 -1.70763e+06
0.452437 0.305172 0.025 -1.66572e+06
0.456846 0.308146 0.025 -1.54472e+06
0.461232 0.311105 0.025 -1.5716e+06
0.465593 0.314047 0.025 -1.45552e+06
0.469929 0.316971 0.025 -1.94216e+06
0.474238 0.319878 0.025 -996710
0.47852 0.322766 0.025 -1.11852e+06
0.482773 0.325635 0.025 -887435
0.486996 0.328483 0.025 -1.33684e+06
0.491189 0.331311 0.025 -2.03361e+06
0.49535 0.334118 0.025 -1.29561e+06
