# Wall heat-flux
# Time        	patch         	min           	max           	integral      
1500          	base	-2.202993e+06	-4.138306e+04	-4.880930e+03
