# wallHeatFlux  FACE_DATA 448
# x  y  z  wallHeatFlux
-0.778 -3.80769e-06 0 1.13214e+06
-0.773968 -3.80769e-06 0 1.12946e+06
-0.769872 -3.80769e-06 0 1.12926e+06
-0.76571 -3.80769e-06 0 1.13016e+06
-0.761486 -3.80769e-06 0 1.13227e+06
-0.757196 -3.80769e-06 0 1.134e+06
-0.752841 -3.80769e-06 0 1.13538e+06
-0.748422 -3.80769e-06 0 1.13652e+06
-0.743939 -3.80769e-06 0 1.13745e+06
-0.739391 -3.80769e-06 0 1.13826e+06
-0.73478 -3.80769e-06 0 1.13899e+06
-0.730104 -3.80769e-06 0 1.13968e+06
-0.725364 -3.80769e-06 0 1.14036e+06
-0.720562 -3.80769e-06 0 1.141e+06
-0.715696 -3.80769e-06 0 1.14162e+06
-0.710769 -3.80769e-06 0 1.14225e+06
-0.705778 -3.80769e-06 0 1.14289e+06
-0.700727 -3.80769e-06 0 1.14353e+06
-0.695615 -3.80769e-06 0 1.14415e+06
-0.690443 -3.80769e-06 0 1.14476e+06
-0.685211 -3.80769e-06 0 1.14538e+06
-0.67992 -3.80769e-06 0 1.14598e+06
-0.674571 -3.80769e-06 0 1.14657e+06
-0.669166 -3.80769e-06 0 1.14716e+06
-0.663704 -3.80769e-06 0 1.14775e+06
-0.658187 -3.80769e-06 0 1.14832e+06
-0.652616 -3.80769e-06 0 1.14889e+06
-0.646993 -3.80769e-06 0 1.14944e+06
-0.641317 -3.80769e-06 0 1.15002e+06
-0.635592 -3.80769e-06 0 1.15048e+06
-0.629817 -3.80769e-06 0 1.15106e+06
-0.623994 -3.80769e-06 0 1.15149e+06
-0.618125 -3.80769e-06 0 1.152e+06
-0.61221 -3.80769e-06 0 1.15247e+06
-0.606252 -3.80769e-06 0 1.15292e+06
-0.600253 -3.80769e-06 0 1.15335e+06
-0.594213 -3.80769e-06 0 1.15376e+06
-0.588134 -3.80769e-06 0 1.15416e+06
-0.582018 -3.80769e-06 0 1.15454e+06
-0.575867 -3.80769e-06 0 1.15489e+06
-0.569683 -3.80769e-06 0 1.15522e+06
-0.563467 -3.80769e-06 0 1.15554e+06
-0.557221 -3.80769e-06 0 1.15586e+06
-0.550946 -3.80769e-06 0 1.15607e+06
-0.544647 -3.80769e-06 0 1.15635e+06
-0.538323 -3.80769e-06 0 1.15659e+06
-0.531979 -3.80769e-06 0 1.1568e+06
-0.525613 -3.80769e-06 0 1.15699e+06
-0.51923 -3.80769e-06 0 1.15715e+06
-0.512832 -3.80769e-06 0 1.1573e+06
-0.50642 -3.80769e-06 0 1.15742e+06
-0.499995 -3.80769e-06 0 1.15756e+06
-0.493562 -3.80769e-06 0 1.15761e+06
-0.487123 -3.80769e-06 0 1.15768e+06
-0.480677 -3.80769e-06 0 1.15773e+06
-0.47423 -3.80769e-06 0 1.15772e+06
-0.467782 -3.80769e-06 0 1.15774e+06
-0.461335 -3.80769e-06 0 1.15775e+06
-0.454892 -3.80769e-06 0 1.15766e+06
-0.448455 -3.80769e-06 0 1.15766e+06
-0.442026 -3.80769e-06 0 1.15753e+06
-0.435607 -3.80769e-06 0 1.15747e+06
-0.429202 -3.80769e-06 0 1.15737e+06
-0.42281 -3.80769e-06 0 1.15725e+06
-0.416434 -3.80769e-06 0 1.15714e+06
-0.410078 -3.80769e-06 0 1.15692e+06
-0.403743 -3.80769e-06 0 1.15679e+06
-0.39743 -3.80769e-06 0 1.15664e+06
-0.391141 -3.80769e-06 0 1.15638e+06
-0.38488 -3.80769e-06 0 1.15621e+06
-0.378648 -3.80769e-06 0 1.15599e+06
-0.372446 -3.80769e-06 0 1.15576e+06
-0.366277 -3.80769e-06 0 1.15556e+06
-0.360142 -3.80769e-06 0 1.15524e+06
-0.354042 -3.80769e-06 0 1.15501e+06
-0.347981 -3.80769e-06 0 1.15475e+06
-0.341959 -3.80769e-06 0 1.1545e+06
-0.335978 -3.80769e-06 0 1.15419e+06
-0.33004 -3.80769e-06 0 1.15387e+06
-0.324146 -3.80769e-06 0 1.15364e+06
-0.318298 -3.80769e-06 0 1.15332e+06
-0.312497 -3.80769e-06 0 1.15302e+06
-0.306744 -3.80769e-06 0 1.15271e+06
-0.301041 -3.80769e-06 0 1.15241e+06
-0.29539 -3.80769e-06 0 1.15207e+06
-0.28979 -3.80769e-06 0 1.15182e+06
-0.284243 -3.80769e-06 0 1.15148e+06
-0.278752 -3.80769e-06 0 1.15117e+06
-0.273316 -3.80769e-06 0 1.15087e+06
-0.267937 -3.80769e-06 0 1.15056e+06
-0.262614 -3.80769e-06 0 1.15022e+06
-0.25735 -3.80769e-06 0 1.14999e+06
-0.252146 -3.80769e-06 0 1.14966e+06
-0.247001 -3.80769e-06 0 1.14936e+06
-0.241916 -3.80769e-06 0 1.14905e+06
-0.236893 -3.80769e-06 0 1.14877e+06
-0.231931 -3.80769e-06 0 1.14845e+06
-0.227031 -3.80769e-06 0 1.14826e+06
-0.222195 -3.80769e-06 0 1.14794e+06
-0.217421 -3.80769e-06 0 1.14767e+06
-0.212711 -3.80769e-06 0 1.14737e+06
-0.208064 -3.80769e-06 0 1.14719e+06
-0.203482 -3.80769e-06 0 1.14685e+06
-0.198964 -3.80769e-06 0 1.14665e+06
-0.19451 -3.80769e-06 0 1.14644e+06
-0.19012 -3.80769e-06 0 1.14622e+06
-0.185796 -3.80769e-06 0 1.14604e+06
-0.181535 -3.80769e-06 0 1.14579e+06
-0.17734 -3.80769e-06 0 1.14554e+06
-0.173208 -3.80769e-06 0 1.14544e+06
-0.169141 -3.80769e-06 0 1.14515e+06
-0.165138 -3.80769e-06 0 1.14507e+06
-0.161199 -3.80769e-06 0 1.14486e+06
-0.157325 -3.80769e-06 0 1.1447e+06
-0.153513 -3.80769e-06 0 1.14454e+06
-0.149765 -3.80769e-06 0 1.14435e+06
-0.14608 -3.80769e-06 0 1.14426e+06
-0.142457 -3.80769e-06 0 1.14418e+06
-0.138897 -3.80769e-06 0 1.14394e+06
-0.135398 -3.80769e-06 0 1.14394e+06
-0.131961 -3.80769e-06 0 1.1438e+06
-0.128584 -3.80769e-06 0 1.14365e+06
-0.125268 -3.80769e-06 0 1.14363e+06
-0.122011 -3.80769e-06 0 1.14361e+06
-0.118815 -3.80769e-06 0 1.14342e+06
-0.115677 -3.80769e-06 0 1.14342e+06
-0.112597 -3.80769e-06 0 1.14336e+06
-0.109574 -3.80769e-06 0 1.14338e+06
-0.106609 -3.80769e-06 0 1.14328e+06
-0.1037 -3.80769e-06 0 1.14326e+06
-0.100846 -3.80769e-06 0 1.1432e+06
-0.098048 -3.80769e-06 0 1.14321e+06
-0.0953042 -3.80769e-06 0 1.14321e+06
-0.0926143 -3.80769e-06 0 1.1432e+06
-0.0899773 -3.80769e-06 0 1.14321e+06
-0.0873927 -3.80769e-06 0 1.14321e+06
-0.0848599 -3.80769e-06 0 1.14325e+06
-0.082378 -3.80769e-06 0 1.14326e+06
-0.0799465 -3.80769e-06 0 1.14331e+06
-0.0775645 -3.80769e-06 0 1.14336e+06
-0.0752312 -3.80769e-06 0 1.14339e+06
-0.0729462 -3.80769e-06 0 1.14345e+06
-0.0707085 -3.80769e-06 0 1.14351e+06
-0.0685175 -3.80769e-06 0 1.14358e+06
-0.0663725 -3.80769e-06 0 1.14364e+06
-0.0642727 -3.80769e-06 0 1.14373e+06
-0.0622173 -3.80769e-06 0 1.14382e+06
-0.0602058 -3.80769e-06 0 1.14389e+06
-0.0582373 -3.80769e-06 0 1.144e+06
-0.0563111 -3.80769e-06 0 1.14411e+06
-0.0544265 -3.80769e-06 0 1.14422e+06
-0.0525827 -3.80769e-06 0 1.14433e+06
-0.0507792 -3.80769e-06 0 1.14446e+06
-0.0490152 -3.80769e-06 0 1.14459e+06
-0.0472898 -3.80769e-06 0 1.14473e+06
-0.0456025 -3.80769e-06 0 1.14486e+06
-0.0439526 -3.80769e-06 0 1.14501e+06
-0.0423394 -3.80769e-06 0 1.14516e+06
-0.0407622 -3.80769e-06 0 1.14533e+06
-0.0392203 -3.80769e-06 0 1.14551e+06
-0.0377131 -3.80769e-06 0 1.14569e+06
-0.0362398 -3.80769e-06 0 1.14588e+06
-0.0347999 -3.80769e-06 0 1.14607e+06
-0.0333926 -3.80769e-06 0 1.14628e+06
-0.0320175 -3.80769e-06 0 1.1465e+06
-0.0306737 -3.80769e-06 0 1.14673e+06
-0.0293607 -3.80769e-06 0 1.14699e+06
-0.0280779 -3.80769e-06 0 1.14722e+06
-0.0268246 -3.80769e-06 0 1.14753e+06
-0.0256004 -3.80769e-06 0 1.14779e+06
-0.0244045 -3.80769e-06 0 1.14811e+06
-0.0232363 -3.80769e-06 0 1.14845e+06
-0.0220954 -3.80769e-06 0 1.14878e+06
-0.0209812 -3.80769e-06 0 1.14918e+06
-0.019893 -3.80769e-06 0 1.1496e+06
-0.0188303 -3.80769e-06 0 1.15006e+06
-0.0177927 -3.80769e-06 0 1.15058e+06
-0.0167794 -3.80769e-06 0 1.15116e+06
-0.0157901 -3.80769e-06 0 1.15175e+06
-0.0148243 -3.80769e-06 0 1.15247e+06
-0.0138814 -3.80769e-06 0 1.15329e+06
-0.0129608 -3.80769e-06 0 1.15425e+06
-0.0120623 -3.80769e-06 0 1.15528e+06
-0.0111851 -3.80769e-06 0 1.15667e+06
-0.0103289 -3.80769e-06 0 1.15827e+06
-0.00949328 -3.80769e-06 0 1.16017e+06
-0.00867767 -3.80769e-06 0 1.16244e+06
-0.00788168 -3.80769e-06 0 1.1654e+06
-0.00710485 -3.80769e-06 0 1.1691e+06
-0.00634675 -3.80769e-06 0 1.17363e+06
-0.00560698 -3.80769e-06 0 1.17917e+06
-0.0048851 -3.80769e-06 0 1.18649e+06
-0.00418071 -3.80769e-06 0 1.19599e+06
-0.00349342 -3.80769e-06 0 1.20784e+06
-0.00282284 -3.80769e-06 0 1.22241e+06
-0.00216857 -3.80769e-06 0 1.23723e+06
-0.00153026 -3.80769e-06 0 1.25296e+06
-0.00090752 -3.80769e-06 0 1.25643e+06
-0.0003 -3.80769e-06 0 1.23126e+06
0.000259937 0.000146262 2.25537e-21 1.16122e+06
0.000779437 0.000446185 0 1.17606e+06
0.00129893 0.000746101 0 1.17687e+06
0.00181858 0.00104611 2.2554e-21 1.1712e+06
0.00233835 0.00134618 -2.25541e-21 1.1658e+06
0.00285828 0.00164636 2.25542e-21 1.16057e+06
0.00337841 0.00194664 0 1.15575e+06
0.00389877 0.00224706 0 1.15208e+06
0.00441941 0.00254764 -2.25544e-21 1.14951e+06
0.00494034 0.00284839 2.25545e-21 1.1471e+06
0.00546162 0.00314934 -2.25546e-21 1.145e+06
0.00598328 0.0034505 2.25547e-21 1.1434e+06
0.00650535 0.00375191 2.25547e-21 1.14188e+06
0.00702786 0.00405357 2.25548e-21 1.14094e+06
0.00755087 0.00435552 0 1.14051e+06
0.00807439 0.00465776 -2.25549e-21 1.13985e+06
0.00859847 0.00496033 2.2555e-21 1.13949e+06
0.00912315 0.00526324 0 1.13912e+06
0.00964845 0.00556651 2.25551e-21 1.13855e+06
0.0101744 0.00587017 0 1.13819e+06
0.0107011 0.00617424 0 1.13811e+06
0.0112285 0.00647873 -2.25552e-21 1.13861e+06
0.0117567 0.00678367 0 1.13627e+06
0.0122857 0.00708907 0 1.13622e+06
0.0128156 0.00739497 0 1.13627e+06
0.0133463 0.00770137 -2.25554e-21 1.13573e+06
0.0138779 0.00800831 0 1.13578e+06
0.0144106 0.0083158 0 1.13341e+06
0.0149442 0.00862387 0 1.13341e+06
0.0154788 0.00893253 0 1.13622e+06
0.0160145 0.00924181 0 1.13627e+06
0.0165513 0.00955172 2.25556e-21 1.13341e+06
0.0170893 0.00986231 -2.25556e-21 1.13573e+06
0.0176284 0.0101736 0 1.13811e+06
0.0181687 0.0104855 0 1.13811e+06
0.0187103 0.0107982 2.25556e-21 1.14309e+06
0.0192532 0.0111117 2.25557e-21 1.14305e+06
0.0197975 0.0114259 2.25557e-21 1.14309e+06
0.0203431 0.0117408 0 1.14019e+06
0.0208901 0.0120566 4.51114e-21 1.13243e+06
0.0214385 0.0123732 -4.51114e-21 1.13244e+06
0.0219884 0.0126907 0 1.13524e+06
0.0225398 0.0130091 4.51114e-21 1.13811e+06
0.0230928 0.0133283 0 1.13811e+06
0.0236474 0.0136485 0 1.13812e+06
0.0242037 0.0139697 0 1.13529e+06
0.0247616 0.0142918 -4.51113e-21 1.13736e+06
0.0253212 0.0146148 -4.51113e-21 1.13732e+06
0.0258825 0.0149389 -4.51114e-21 1.13244e+06
0.0264456 0.015264 0 1.14018e+06
0.0270106 0.0155902 0 1.14809e+06
0.0275774 0.0159174 -4.51112e-21 1.14019e+06
0.0281462 0.0162457 0 1.13244e+06
0.0287168 0.0165752 4.51111e-21 1.13525e+06
0.0292895 0.0169059 -4.51111e-21 1.13529e+06
0.0298642 0.0172376 0 1.13243e+06
0.0304409 0.0175706 0 1.13244e+06
0.0310198 0.0179048 4.5111e-21 1.13244e+06
0.0316007 0.0182402 4.5111e-21 1.13524e+06
0.0321839 0.0185768 -4.51107e-21 1.13529e+06
0.0327693 0.0189148 0 1.14019e+06
0.0333569 0.0192541 0 1.1402e+06
0.0339469 0.0195947 4.51106e-21 1.13524e+06
0.0345392 0.0199366 0 1.13529e+06
0.0351339 0.02028 0 1.13244e+06
0.035731 0.0206247 4.51105e-21 1.13244e+06
0.0363305 0.0209708 -4.51103e-21 1.13524e+06
0.0369326 0.0213184 4.51102e-21 1.13529e+06
0.0375373 0.0216675 0 1.13244e+06
0.0381445 0.0220181 0 1.13736e+06
0.0387543 0.0223702 0 1.13733e+06
0.0393668 0.0227238 4.51099e-21 1.13525e+06
0.0399821 0.023079 -4.51097e-21 1.13529e+06
0.0406001 0.0234358 4.51097e-21 1.13244e+06
0.041221 0.0237942 0 1.13244e+06
0.0418446 0.0241542 0 1.13244e+06
0.0424712 0.024516 4.51092e-21 1.13244e+06
0.0431006 0.0248794 -4.51094e-21 1.13524e+06
0.0437331 0.0252445 0 1.13529e+06
0.0443686 0.0256114 4.51089e-21 1.13244e+06
0.0450071 0.02598 4.51089e-21 1.13525e+06
0.0456487 0.0263505 0 1.13812e+06
0.0462935 0.0267227 0 1.13811e+06
0.0469415 0.0270968 -4.51085e-21 1.13812e+06
0.0475927 0.0274728 0 1.13529e+06
0.0482473 0.0278507 -4.51081e-21 1.13244e+06
0.0489051 0.0282305 4.51081e-21 1.13244e+06
0.0495663 0.0286122 -4.51079e-21 1.13244e+06
0.050231 0.0289959 0 1.13244e+06
0.0508991 0.0293816 -4.51077e-21 1.13525e+06
0.0515707 0.0297694 4.51073e-21 1.13812e+06
0.0522459 0.0301592 -4.51073e-21 1.13529e+06
0.0529247 0.0305511 0 1.13244e+06
0.0536071 0.0309451 0 1.13244e+06
0.0542933 0.0313412 -4.51067e-21 1.13244e+06
0.0549832 0.0317395 0 1.13244e+06
0.0556769 0.03214 0 1.13244e+06
0.0563744 0.0325427 0 1.13525e+06
0.0570758 0.0329477 -4.5106e-21 1.13812e+06
0.0577812 0.0333549 0 1.13529e+06
0.0584905 0.0337645 0 1.13525e+06
0.0592039 0.0341763 -4.51056e-21 1.13528e+06
0.0599214 0.0345905 4.51053e-21 1.13244e+06
0.060643 0.0350071 0 1.13244e+06
0.0613688 0.0354262 4.51049e-21 1.13244e+06
0.0620989 0.0358477 -4.51048e-21 1.13244e+06
0.0628332 0.0362716 4.51046e-21 1.13244e+06
0.0635719 0.0366981 0 1.13244e+06
0.0643149 0.037127 4.51041e-21 1.13244e+06
0.0650624 0.0375586 0 1.13244e+06
0.0658144 0.0379927 0 1.13525e+06
0.0665709 0.0384295 4.51035e-21 1.13812e+06
0.0673321 0.0388689 -4.51035e-21 1.14024e+06
0.0680979 0.039311 0 1.13733e+06
0.0688683 0.0397558 -4.51029e-21 1.13525e+06
0.0696435 0.0402034 4.51029e-21 1.13812e+06
0.0704236 0.0406537 0 1.13529e+06
0.0712085 0.0411069 0 1.13525e+06
0.0719983 0.0415628 0 1.13812e+06
0.0727931 0.0420217 0 1.13812e+06
0.0735929 0.0424834 0 1.13528e+06
0.0743978 0.0429481 0 1.13244e+06
0.0752078 0.0434158 0 1.13244e+06
0.076023 0.0438864 4.5101e-21 1.13525e+06
0.0768435 0.0443601 -4.51009e-21 1.13812e+06
0.0776693 0.0448369 -4.51004e-21 1.13528e+06
0.0785004 0.0453167 4.51003e-21 1.13244e+06
0.079337 0.0457997 0 1.13244e+06
0.080179 0.0462858 0 1.13244e+06
0.0810266 0.0467751 0 1.13736e+06
0.0818797 0.0472677 0 1.13733e+06
0.0827385 0.0477635 0 1.13525e+06
0.083603 0.0482626 0 1.14309e+06
0.0844733 0.0487651 4.50985e-21 1.14306e+06
0.0853495 0.0492709 -4.50983e-21 1.13528e+06
0.0862316 0.0497801 0 1.13244e+06
0.0871195 0.0502927 -4.50978e-21 1.13526e+06
0.0880135 0.0508089 0 1.14309e+06
0.0889136 0.0513285 0 1.1452e+06
0.0898198 0.0518517 0 1.14018e+06
0.0907322 0.0523785 0 1.14023e+06
0.0916509 0.0529089 0 1.14231e+06
0.0925758 0.0534429 4.50963e-21 1.14018e+06
0.0935072 0.0539806 4.50959e-21 1.13812e+06
0.094445 0.054522 0 1.13528e+06
0.0953894 0.0550672 4.50953e-21 1.13244e+06
0.0963404 0.0556162 0 1.13244e+06
0.0972979 0.0561691 0 1.13526e+06
0.0982622 0.0567258 0 1.14309e+06
0.0992333 0.0572865 0 1.14809e+06
0.100211 0.057851 0 1.13448e+06
0.101196 0.0584196 0 1.12125e+06
0.102188 0.0589922 4.50935e-21 1.14928e+06
0.103187 0.0595689 4.50932e-21 1.14952e+06
0.104193 0.0601497 -4.50928e-21 1.14929e+06
0.105206 0.0607347 0 1.18485e+06
0.106226 0.0613239 0 1.18483e+06
0.107254 0.0619172 0 1.14951e+06
0.10829 0.0625149 4.50918e-21 1.12125e+06
0.109332 0.0631169 4.50915e-21 1.14929e+06
0.110382 0.0637232 -4.50911e-21 1.17952e+06
0.11144 0.064334 -4.50908e-21 1.15467e+06
0.112506 0.0649492 4.50905e-21 1.12605e+06
0.11358 0.0655688 4.50902e-21 1.12125e+06
0.114661 0.066193 0 1.12607e+06
0.11575 0.0668218 0 1.12605e+06
0.116847 0.0674552 0 1.12125e+06
0.117952 0.0680932 0 1.12607e+06
0.119065 0.068736 0 1.13093e+06
0.120187 0.0693834 4.50884e-21 1.12605e+06
0.121316 0.0700357 0 1.12125e+06
0.122455 0.0706928 0 1.12125e+06
0.123601 0.0713548 -4.50875e-21 1.15429e+06
0.124756 0.0720217 0 1.15446e+06
0.12592 0.0726935 -4.5087e-21 1.12125e+06
0.127093 0.0733704 0 1.12125e+06
0.128274 0.0740524 0 1.15429e+06
0.129464 0.0747395 4.50859e-21 1.15446e+06
0.130663 0.0754317 0 1.12125e+06
0.131871 0.0761292 4.50853e-21 1.12125e+06
0.133088 0.0768319 4.50851e-21 1.12125e+06
0.134315 0.0775399 0 1.12125e+06
0.13555 0.0782532 4.50845e-21 1.12125e+06
0.136795 0.078972 0 1.12125e+06
0.13805 0.0796962 0 1.12607e+06
0.139314 0.080426 -4.50834e-21 1.13093e+06
0.140587 0.0811613 -4.50831e-21 1.12605e+06
0.14187 0.0819021 4.50827e-21 1.12125e+06
0.143163 0.0826487 0 1.12607e+06
0.144466 0.0834009 0 1.13093e+06
0.145779 0.0841589 0 1.12605e+06
0.147102 0.0849227 4.50815e-21 1.12607e+06
0.148435 0.0856924 4.50811e-21 1.15949e+06
0.149779 0.0864679 0 1.15444e+06
0.151133 0.0872495 4.50805e-21 1.12607e+06
0.152497 0.0880371 4.50801e-21 1.13093e+06
0.153871 0.0888307 4.50798e-21 1.13093e+06
0.155257 0.0896305 0 1.12605e+06
0.156653 0.0904364 4.50791e-21 1.12125e+06
0.15806 0.0912487 4.50787e-21 1.12607e+06
0.159478 0.0920672 0 1.12605e+06
0.160907 0.092892 0 1.12607e+06
0.162347 0.0937233 0 1.13093e+06
0.163798 0.0945611 4.50774e-21 1.13093e+06
0.16526 0.0954054 0 1.1595e+06
0.166734 0.0962563 0 1.15443e+06
0.168219 0.0971138 0 1.12607e+06
0.169716 0.097978 4.50761e-21 1.13093e+06
0.171225 0.098849 4.50758e-21 1.13093e+06
0.172745 0.0997268 4.50754e-21 1.11639e+06
0.174278 0.100611 0 1.10239e+06
0.175822 0.101503 0 1.10238e+06
0.177379 0.102402 0 1.15014e+06
0.178947 0.103308 4.50741e-21 1.14997e+06
0.180529 0.10422 4.50737e-21 1.10238e+06
0.182122 0.10514 4.50734e-21 1.12955e+06
0.183728 0.106068 0 1.12965e+06
0.185347 0.107002 -4.50727e-21 1.10239e+06
0.186979 0.107944 0 1.10239e+06
0.188623 0.108894 0 1.10239e+06
0.190281 0.109851 4.50716e-21 1.12953e+06
0.191952 0.110815 0 1.12963e+06
0.193636 0.111787 -4.5071e-21 1.12954e+06
0.195333 0.112767 -4.50707e-21 1.12965e+06
0.197044 0.113755 -4.50702e-21 1.15014e+06
0.198768 0.114751 -4.507e-21 1.14997e+06
0.200506 0.115754 -4.50696e-21 1.17878e+06
0.202258 0.116766 0 1.21129e+06
0.204024 0.117785 4.50688e-21 1.18074e+06
0.205805 0.118813 4.50686e-21 1.20365e+06
0.207599 0.119849 0 1.20364e+06
0.209408 0.120893 -4.50679e-21 1.14997e+06
0.211231 0.121946 -4.50676e-21 1.15014e+06
0.213068 0.123007 0 1.20365e+06
0.214921 0.124076 0 1.14997e+06
0.216788 0.125154 0 1.15014e+06
0.21867 0.126241 0 1.20365e+06
0.220567 0.127336 0 1.14997e+06
0.22248 0.12844 0 1.10239e+06
0.224408 0.129553 0 1.10238e+06
0.226351 0.130675 0 1.15014e+06
0.22831 0.131806 0 1.14997e+06
0.230284 0.132946 9.01282e-21 1.10239e+06
0.232275 0.134095 0 1.15014e+06
0.234282 0.135254 9.01268e-21 1.14997e+06
0.236304 0.136421 0 1.10238e+06
0.238344 0.137598 9.01253e-21 1.10239e+06
0.2404 0.138785 0 1.07609e+06
0.242472 0.139982 0 1.07601e+06
