# y+ ()       
# Time        	patch         	min           	max           	average       
0             	base	6.809887e-02	8.338914e-02	7.657457e-02
