# y+ ()       
# Time        	patch         	min           	max           	average       
9000          	base	7.382851e-03	3.111444e+01	5.886131e+00
