# Wall heat-flux
# Time        	patch         	min           	max           	integral      
7000          	base	-1.241526e+04	3.377245e+04	3.945188e+02
