# y+ ()       
# Time        	patch         	min           	max           	average       
10300         	base	8.922559e-03	6.365404e-01	2.614701e-01
