# y+ ()       
# Time        	patch         	min           	max           	average       
0             	base	4.412772e-02	5.347302e-01	2.327381e-01
