# Wall heat-flux
# Time        	patch         	min           	max           	integral      
300           	base	-2.727857e+06	-3.523540e+04	-9.086779e+03
