# Wall heat-flux
# Time        	patch         	min           	max           	integral      
2400          	base	-2.278055e+06	-2.303632e+04	-2.719488e+03
