# y+ ()       
# Time        	patch         	min           	max           	average       
9500          	base	7.243482e-03	2.411433e+01	5.488044e+00
