# Wall heat-flux
# Time        	patch         	min           	max           	integral      
2500          	base	-2.749237e+06	-1.173048e+04	-2.716457e+02
