# Wall heat-flux
# Time        	patch         	min           	max           	integral      
6700          	base	-3.606171e+06	-3.212446e+04	-9.567298e+03
