# y+ ()       
# Time        	patch         	min           	max           	average       
12400         	base	6.909780e-03	2.376958e+01	5.514820e+00
