# y+ ()       
# Time        	patch         	min           	max           	average       
7100          	base	5.860728e-03	2.364032e+01	5.468264e+00
