# y+ ()       
# Time        	patch         	min           	max           	average       
4400          	base	5.456761e-03	2.555905e+01	5.483196e+00
