/*--------------------------------*- C++ -*----------------------------------*\
| =========                 |                                                 |
| \\      /  F ield         | OpenFOAM: The Open Source CFD Toolbox           |
|  \\    /   O peration     | Version:  v2012                                 |
|   \\  /    A nd           | Website:  www.openfoam.com                      |
|    \\/     M anipulation  |                                                 |
\*---------------------------------------------------------------------------*/
FoamFile
{
    version     2.0;
    format      ascii;
    class       volScalarField;
    location    "13200";
    object      alphat;
}
// * * * * * * * * * * * * * * * * * * * * * * * * * * * * * * * * * * * * * //

dimensions      [1 -1 -1 0 0 0 0];


internalField   nonuniform List<scalar> 
39402
(
2.34881e-07
8.38262e-09
1.85858e-07
2.014e-09
7.90376e-09
1.22254e-07
1.82191e-09
1.82629e-09
8.88611e-09
7.703e-08
2.04624e-09
3.83654e-09
1.94342e-09
1.14741e-08
5.51381e-08
2.30619e-09
6.30502e-09
3.95723e-08
3.14526e-09
1.5761e-08
4.79507e-08
2.5028e-09
8.03081e-09
7.72202e-08
2.37127e-07
7.01742e-09
2.09124e-08
4.68042e-08
2.63551e-09
9.26276e-09
1.02243e-07
4.67141e-07
8.64007e-07
1.53145e-08
2.59026e-08
4.85096e-08
2.68867e-09
1.0038e-08
1.1987e-07
6.19648e-07
1.69722e-06
2.26822e-06
2.90804e-08
3.00407e-08
5.1669e-08
2.69374e-09
1.03858e-08
1.30974e-07
7.26069e-07
2.2453e-06
4.42851e-06
4.72063e-06
4.80236e-08
3.30991e-08
5.5634e-08
2.67163e-09
1.04785e-08
1.36114e-07
7.93632e-07
2.62202e-06
5.82772e-06
9.15252e-06
8.2712e-06
6.77114e-08
3.52238e-08
6.08098e-08
2.63305e-09
1.04255e-08
1.37736e-07
8.25289e-07
2.86135e-06
6.76845e-06
1.19711e-05
1.59518e-05
1.25696e-05
8.656e-08
3.68256e-08
6.96125e-08
2.58584e-09
1.02919e-08
1.37317e-07
8.36049e-07
2.97447e-06
7.36224e-06
1.38188e-05
2.07709e-05
2.45133e-05
1.66771e-05
1.06608e-07
3.84162e-08
7.63763e-08
2.53132e-09
1.01098e-08
1.35751e-07
8.34509e-07
3.01505e-06
7.64455e-06
1.49714e-05
2.38576e-05
3.18917e-05
3.28726e-05
2.11002e-05
1.28231e-07
3.98142e-08
8.19613e-08
2.47818e-09
9.88646e-09
1.33472e-07
8.25962e-07
3.01266e-06
7.75036e-06
1.55223e-05
2.57586e-05
3.65366e-05
4.34659e-05
4.19549e-05
2.58095e-05
1.5369e-07
4.0871e-08
8.80407e-08
2.42732e-09
9.67073e-09
1.30562e-07
8.12818e-07
2.98555e-06
7.75176e-06
1.57376e-05
2.66743e-05
3.93678e-05
5.00387e-05
5.62263e-05
5.17722e-05
3.0916e-05
1.91591e-07
4.19163e-08
9.46429e-08
2.37739e-09
9.45935e-09
1.27733e-07
7.95788e-07
2.94192e-06
7.6931e-06
1.5754e-05
2.70453e-05
4.07473e-05
5.39867e-05
6.51547e-05
7.02861e-05
6.24172e-05
3.72479e-05
2.40675e-07
4.34099e-08
1.01718e-07
2.32782e-09
9.24731e-09
1.24923e-07
7.79041e-07
2.88439e-06
7.59306e-06
1.56582e-05
2.70984e-05
4.13295e-05
5.59521e-05
7.05609e-05
8.2081e-05
8.5577e-05
7.44065e-05
4.66374e-05
2.68438e-07
4.56959e-08
1.0933e-07
2.27749e-09
9.03677e-09
1.22062e-07
7.62242e-07
2.827e-06
7.45887e-06
1.54827e-05
2.69719e-05
4.14523e-05
5.6824e-05
7.32685e-05
8.93243e-05
0.000100762
0.000102144
8.82948e-05
5.81832e-05
2.79488e-07
4.90088e-08
1.17658e-07
2.22298e-09
8.81982e-09
1.19215e-07
7.45025e-07
2.76906e-06
7.32371e-06
1.5242e-05
2.67164e-05
4.13148e-05
5.71114e-05
7.45626e-05
9.29851e-05
0.000110248
0.000120985
0.00011889
9.98882e-05
6.53435e-05
2.63268e-07
5.34939e-08
1.26743e-07
2.17669e-09
8.58075e-09
1.16262e-07
7.27787e-07
2.70926e-06
7.18571e-06
1.49971e-05
2.6358e-05
4.0992e-05
5.70503e-05
7.50431e-05
9.48646e-05
0.00011518
0.000133073
0.000142102
0.000135533
0.000110263
7.06582e-05
2.21997e-07
5.92892e-08
1.36596e-07
2.1397e-09
8.38488e-09
1.13016e-07
7.099e-07
2.64899e-06
7.04238e-06
1.47448e-05
2.59882e-05
4.05211e-05
5.67529e-05
7.50566e-05
9.56208e-05
0.000117821
0.000139702
0.000157481
0.000163836
0.000151573
0.000119399
7.28676e-05
1.70008e-07
6.59916e-08
1.46404e-07
2.09171e-09
8.22756e-09
1.10342e-07
6.90276e-07
2.58628e-06
6.89691e-06
1.44805e-05
2.56043e-05
4.003e-05
5.62662e-05
7.47549e-05
9.57539e-05
0.000118975
0.000143309
0.000166346
0.000183214
0.000185615
0.000166438
0.000127351
7.10767e-05
1.23114e-07
7.34198e-08
1.54296e-07
2.05153e-09
8.01473e-09
1.08173e-07
6.73976e-07
2.51759e-06
6.745e-06
1.42107e-05
2.51986e-05
3.95146e-05
5.57483e-05
7.42054e-05
9.5473e-05
0.000119309
0.000145035
0.000171258
0.000194838
0.000209732
0.000206682
0.000179486
0.000134629
6.48628e-05
9.13905e-08
8.18339e-08
1.59525e-07
2.01227e-09
7.84383e-09
1.05259e-07
6.60577e-07
2.46014e-06
6.57849e-06
1.39273e-05
2.47818e-05
3.89649e-05
5.51948e-05
7.36051e-05
9.48745e-05
0.000119097
0.000145699
0.000173796
0.000201506
0.000224774
0.000236299
0.000226187
0.0001903
0.000142157
5.44426e-05
7.4759e-08
9.10344e-08
1.61048e-07
1.97565e-09
7.67289e-09
1.02929e-07
6.429e-07
2.41235e-06
6.43836e-06
1.36161e-05
2.4341e-05
3.83956e-05
5.45922e-05
7.29533e-05
9.41951e-05
0.000118481
0.000145647
0.000174953
0.00020517
0.000233738
0.000255528
0.00026205
0.000243194
0.000198486
0.000150003
4.0966e-05
6.95957e-08
1.00397e-07
1.60651e-07
1.93895e-09
7.51483e-09
1.00578e-07
6.28642e-07
2.35008e-06
6.32058e-06
1.33531e-05
2.38562e-05
3.77903e-05
5.39609e-05
7.22334e-05
9.34396e-05
0.000117747
0.000145087
0.000175182
0.000207052
0.000238946
0.000267487
0.000286383
0.000285964
0.000256921
0.000203983
0.000146457
2.67916e-05
7.11942e-08
1.08908e-07
1.5911e-07
1.90553e-09
7.35677e-09
9.84192e-08
6.14295e-07
2.29944e-06
6.16816e-06
1.31299e-05
2.3445e-05
3.71221e-05
5.328e-05
7.14671e-05
9.25919e-05
0.000116902
0.000144352
0.000174764
0.000207735
0.000241855
0.000274781
0.000302159
0.000316402
0.000307058
0.000266731
0.00020742
0.000130539
1.4908e-05
7.6679e-08
1.16643e-07
1.56606e-07
1.87123e-09
7.21425e-09
9.6268e-08
6.011e-07
2.24859e-06
6.04349e-06
1.28421e-05
2.30938e-05
3.65551e-05
5.25189e-05
7.06342e-05
9.16824e-05
0.000115931
0.00014346
0.00017409
0.000207589
0.000243228
0.00027913
0.000312204
0.000336973
0.000344534
0.000324248
0.00027263
0.000210805
0.000107732
7.13873e-06
8.39295e-08
1.24322e-07
1.53493e-07
1.84075e-09
7.06538e-09
9.43351e-08
5.87997e-07
2.2017e-06
5.91806e-06
1.26053e-05
2.26403e-05
3.60675e-05
5.18821e-05
6.97018e-05
9.06825e-05
0.000114881
0.000142397
0.000173207
0.000207081
0.000243551
0.000281509
0.000318534
0.000350609
0.000371003
0.000369608
0.000336634
0.000275033
0.000214636
7.98838e-05
3.07011e-06
9.1782e-08
1.41829e-07
1.49493e-07
1.81007e-09
6.93443e-09
9.23181e-08
5.76221e-07
2.15518e-06
5.80221e-06
1.23667e-05
2.22662e-05
3.54363e-05
5.13334e-05
6.89204e-05
8.95565e-05
0.000113716
0.000141224
0.00017209
0.000206289
0.000243347
0.000282531
0.000322345
0.00035959
0.000389211
0.000403109
0.000390341
0.000343796
0.000274945
0.000198945
5.13426e-05
1.2464e-06
9.84165e-08
1.45991e-07
1.45052e-07
1.78569e-09
6.80273e-09
9.05466e-08
5.64003e-07
2.11328e-06
5.68718e-06
1.21457e-05
2.18882e-05
3.49144e-05
5.06054e-05
6.82454e-05
8.86078e-05
0.000112384
0.000139904
0.000170828
0.000205184
0.00024275
0.000282831
0.000324373
0.000365326
0.000401658
0.000427028
0.000431988
0.000405612
0.000345828
0.000274157
0.000167281
2.82222e-05
5.0355e-07
1.04736e-07
1.49584e-07
1.40523e-07
1.75889e-09
6.69985e-09
8.87765e-08
5.5327e-07
2.07005e-06
5.58344e-06
1.1926e-05
2.15369e-05
3.43856e-05
5.00106e-05
6.7346e-05
8.77939e-05
0.000111264
0.000138376
0.000169376
0.000203874
0.000241752
0.000282589
0.000325437
0.000368805
0.000410014
0.000443938
0.000462884
0.000456217
0.000414613
0.000343777
0.000274013
0.00012766
1.36406e-05
2.27853e-07
1.10754e-07
1.51757e-07
1.36426e-07
1.73032e-09
6.58445e-09
8.74046e-08
5.42615e-07
2.03207e-06
5.47643e-06
1.17273e-05
2.11873e-05
3.38935e-05
4.94027e-05
6.66081e-05
8.66964e-05
0.000110301
0.000137091
0.000167665
0.000202322
0.000240471
0.000281835
0.000325779
0.000370991
0.000415459
0.000455693
0.000485368
0.000495315
0.000474455
0.000417163
0.000339464
0.000255915
8.51153e-05
6.02529e-06
1.36543e-07
1.16197e-07
1.52637e-07
1.33054e-07
1.70555e-09
6.46222e-09
8.58705e-08
5.34305e-07
1.9944e-06
5.38234e-06
1.1522e-05
2.08702e-05
3.34027e-05
4.88376e-05
6.58512e-05
8.57942e-05
0.000108996
0.000135986
0.00016623
0.000200458
0.00023888
0.000280697
0.000325431
0.000372178
0.000419182
0.00046378
0.000501521
0.000524688
0.000522799
0.000485422
0.000414096
0.000336352
0.000213228
4.84845e-05
2.40038e-06
1.09573e-07
1.20024e-07
1.52201e-07
1.30354e-07
1.68411e-09
6.35903e-09
8.42604e-08
5.25155e-07
1.96497e-06
5.28908e-06
1.13414e-05
2.05421e-05
3.29574e-05
4.82726e-05
6.51473e-05
8.48687e-05
0.00010792
0.000134472
0.000164993
0.00019889
0.000236905
0.000279158
0.000324584
0.000372458
0.000421584
0.000469573
0.000513045
0.00054637
0.000560378
0.000543621
0.0004887
0.000407501
0.000334198
0.000161054
2.44401e-05
8.9393e-07
1.03774e-07
1.2286e-07
1.51141e-07
1.28013e-07
1.66569e-09
6.26918e-09
8.2916e-08
5.15603e-07
1.9328e-06
5.21604e-06
1.11624e-05
2.02527e-05
3.24938e-05
4.77631e-05
6.4443e-05
8.40052e-05
0.000106815
0.000133218
0.000163266
0.000197533
0.000235237
0.000277142
0.000323223
0.000372076
0.000422795
0.000473612
0.000521577
0.000562334
0.000588945
0.000590706
0.00055632
0.000484678
0.000400211
0.000296878
0.000105813
1.10124e-05
3.48692e-07
1.04674e-07
1.24623e-07
1.48526e-07
1.26034e-07
1.64733e-09
6.19172e-09
8.17498e-08
5.07663e-07
1.89938e-06
5.1365e-06
1.10219e-05
1.99659e-05
3.20843e-05
4.71609e-05
6.38061e-05
8.31435e-05
0.000105779
0.000131929
0.000161833
0.000195617
0.000233813
0.000275435
0.000321259
0.00037106
0.000423134
0.000476148
0.000527833
0.000574451
0.000610513
0.000627573
0.00061377
0.000560053
0.000475311
0.000394765
0.000239717
6.10881e-05
4.51599e-06
1.712e-07
1.07715e-07
1.25818e-07
1.4626e-07
1.18276e-07
1.62576e-09
6.11578e-09
8.07454e-08
5.00808e-07
1.87173e-06
5.0543e-06
1.0869e-05
1.97405e-05
3.16786e-05
4.66282e-05
6.31345e-05
8.23614e-05
0.000104745
0.000130723
0.000160364
0.000194024
0.000231731
0.000273979
0.000319596
0.000369294
0.000422662
0.000477539
0.000532137
0.000583613
0.000627165
0.000656072
0.0006604
0.000627894
0.00055512
0.000464032
0.000376553
0.000173588
3.09899e-05
1.68168e-06
1.18279e-07
1.11205e-07
1.27605e-07
1.447e-07
1.16414e-07
1.60313e-09
6.02507e-09
7.97892e-08
4.94927e-07
1.84793e-06
4.98643e-06
1.07116e-05
1.94953e-05
3.13601e-05
4.61012e-05
6.25421e-05
8.1555e-05
0.000103813
0.000129508
0.000158979
0.000192373
0.000229989
0.000271777
0.000318191
0.000367778
0.000421259
0.000477895
0.000535005
0.000590293
0.000640048
0.000678497
0.000697367
0.000685255
0.00063189
0.00054353
0.000456197
0.00031653
0.000109409
1.38935e-05
6.05082e-07
1.04661e-07
1.14179e-07
1.31443e-07
1.39588e-07
1.16034e-07
1.58612e-09
5.93148e-09
7.86438e-08
4.89431e-07
1.82762e-06
4.92817e-06
1.05819e-05
1.92428e-05
3.10124e-05
4.56877e-05
6.19518e-05
8.08394e-05
0.000102847
0.000128408
0.000157587
0.000190811
0.000228174
0.000269924
0.000315924
0.000366528
0.000420045
0.000477101
0.000536522
0.000595083
0.000649827
0.000696137
0.000726834
0.0007322
0.000700273
0.000625882
0.00052934
0.000449765
0.000244124
6.16482e-05
5.64104e-06
2.48579e-07
1.0319e-07
1.18631e-07
1.35777e-07
1.34953e-07
1.15851e-07
1.57491e-09
5.86459e-09
7.74686e-08
4.82873e-07
1.80883e-06
4.87883e-06
1.04708e-05
1.9036e-05
3.06551e-05
4.52344e-05
6.14952e-05
8.01285e-05
0.00010199
0.000127269
0.00015632
0.000189247
0.000226459
0.000267994
0.000314029
0.000364327
0.000419077
0.000476401
0.000536614
0.00059821
0.000657199
0.000709858
0.000750413
0.000770369
0.000758373
0.000703991
0.000611886
0.000518186
0.000388811
0.000166566
3.07218e-05
2.08544e-06
1.39801e-07
1.05807e-07
1.2226e-07
1.44998e-07
1.31137e-07
1.15723e-07
1.56317e-09
5.82086e-09
7.66575e-08
4.76164e-07
1.78648e-06
4.83319e-06
1.03777e-05
1.88594e-05
3.03637e-05
4.47694e-05
6.09886e-05
7.95891e-05
0.000101148
0.00012627
0.000155012
0.000187821
0.000224726
0.000266141
0.000312022
0.000362462
0.00041707
0.000475876
0.000536701
0.000599583
0.000662451
0.000720529
0.00076918
0.00080129
0.000806757
0.000773606
0.000696403
0.000594204
0.000508527
0.000310115
0.000101123
1.339e-05
7.39033e-07
1.10331e-07
1.08866e-07
1.23164e-07
1.42331e-07
1.27773e-07
1.15627e-07
1.54799e-09
5.77265e-09
7.61432e-08
4.71637e-07
1.7637e-06
4.7791e-06
1.0291e-05
1.87124e-05
3.01156e-05
4.43923e-05
6.04699e-05
7.89787e-05
0.000100501
0.000125285
0.00015387
0.000186349
0.000223153
0.000264256
0.000310076
0.000360433
0.000415348
0.000474208
0.000536862
0.000600728
0.00066559
0.000728553
0.000784095
0.000826284
0.000846665
0.000833495
0.000776362
0.00067956
0.00057928
0.000455933
0.000222779
5.47701e-05
5.27382e-06
2.90637e-07
1.04303e-07
1.10621e-07
1.23207e-07
1.39451e-07
1.25096e-07
1.15552e-07
1.53271e-09
5.70967e-09
7.55737e-08
4.68862e-07
1.74866e-06
4.72423e-06
1.01884e-05
1.85743e-05
2.991e-05
4.40726e-05
6.0055e-05
7.83516e-05
9.97746e-05
0.000124529
0.000152731
0.000185057
0.000221528
0.000262571
0.000308098
0.000358468
0.000413398
0.000472759
0.000535671
0.000601855
0.000668215
0.000734007
0.00079566
0.000846517
0.000879364
0.000884021
0.000848202
0.000766508
0.000658296
0.000567198
0.000370979
0.000142644
2.59408e-05
1.92205e-06
1.53503e-07
1.03429e-07
1.1235e-07
1.23196e-07
1.35606e-07
1.22959e-07
1.15495e-07
1.51794e-09
5.64884e-09
7.48153e-08
4.65788e-07
1.73979e-06
4.68875e-06
1.0085e-05
1.84115e-05
2.9717e-05
4.38095e-05
5.97039e-05
7.78568e-05
9.90229e-05
0.000123681
0.000151874
0.000183771
0.000220094
0.000260804
0.000306318
0.000356461
0.000411479
0.000470991
0.000534549
0.000601219
0.000670578
0.000738635
0.000804094
0.00086259
0.000906207
0.000926141
0.000910597
0.000849106
0.000746351
0.000639985
0.000518364
0.000275244
8.16373e-05
1.08001e-05
6.84076e-07
1.14696e-07
1.0339e-07
1.14372e-07
1.23149e-07
1.31613e-07
1.13806e-07
1.1546e-07
1.50371e-09
5.59003e-09
7.41086e-08
4.61687e-07
1.72989e-06
4.66881e-06
1.00195e-05
1.82478e-05
2.94882e-05
4.35616e-05
5.94214e-05
7.74424e-05
9.84369e-05
0.000122799
0.000150908
0.000182807
0.000218671
0.00025924
0.000304438
0.000354615
0.000409491
0.000469203
0.000532989
0.000600315
0.000670098
0.000742514
0.000811313
0.000874891
0.000927962
0.000961112
0.000963795
0.000923935
0.000836167
0.000721306
0.000625615
0.000426191
0.000182623
4.11125e-05
4.1038e-06
2.73562e-07
1.04147e-07
1.04203e-07
1.16011e-07
1.26435e-07
1.31149e-07
1.11306e-07
1.1544e-07
1.49202e-09
5.53302e-09
7.34207e-08
4.57914e-07
1.71661e-06
4.64619e-06
9.98465e-06
1.81464e-05
2.92591e-05
4.32659e-05
5.91538e-05
7.7105e-05
9.7955e-05
0.000122111
0.000149895
0.00018171
0.0002176
0.000257679
0.000302759
0.000352648
0.000407627
0.000467247
0.000531338
0.000598701
0.000669818
0.000743048
0.000817687
0.000885483
0.000945134
0.000989891
0.0010087
0.000989564
0.000921992
0.000812113
0.000699999
0.000576062
0.000321903
0.000108277
1.80421e-05
1.47102e-06
1.47553e-07
1.01519e-07
1.05708e-07
1.18231e-07
1.38448e-07
1.2628e-07
1.10848e-07
1.15429e-07
1.4851e-09
5.48796e-09
7.27567e-08
4.54245e-07
1.70453e-06
4.61547e-06
9.94419e-06
1.80961e-05
2.91213e-05
4.29715e-05
5.88276e-05
7.67911e-05
9.7561e-05
0.000121553
0.000149112
0.000180571
0.000216387
0.000256512
0.000301089
0.000350896
0.000405618
0.000465373
0.000529334
0.000597025
0.000668766
0.000743779
0.000819827
0.000894891
0.000959923
0.00101316
0.00104613
0.00104601
0.00100035
0.000905201
0.000783254
0.000683292
0.000475659
0.000217927
5.70672e-05
7.08772e-06
5.3071e-07
1.11975e-07
1.01089e-07
1.08056e-07
1.20118e-07
1.3651e-07
1.22539e-07
1.10593e-07
1.15422e-07
1.48087e-09
5.46421e-09
7.22549e-08
4.50725e-07
1.69283e-06
4.58776e-06
9.88835e-06
1.80353e-05
2.90568e-05
4.27991e-05
5.85059e-05
7.64021e-05
9.7191e-05
0.000121106
0.000148471
0.000179693
0.000215113
0.000255202
0.000299868
0.00034917
0.00040385
0.000463344
0.000527422
0.000595135
0.000667562
0.000743555
0.000821956
0.000899932
0.000973011
0.0010332
0.00107694
0.00109388
0.00106976
0.000994607
0.000876696
0.000759283
0.000627896
0.000362532
0.000132041
2.60095e-05
2.58883e-06
2.2521e-07
1.02609e-07
1.01477e-07
1.1151e-07
1.20854e-07
1.32193e-07
1.19687e-07
1.10437e-07
1.15418e-07
1.47514e-09
5.4515e-09
7.20306e-08
4.48187e-07
1.68173e-06
4.56106e-06
9.83813e-06
1.79499e-05
2.89766e-05
4.27249e-05
5.83309e-05
7.60264e-05
9.67319e-05
0.000120682
0.000147965
0.000178973
0.000214132
0.000253803
0.000298467
0.000347921
0.000402084
0.000461555
0.000525219
0.000593409
0.000666047
0.000743061
0.000822904
0.000903945
0.000982555
0.00105084
0.00110359
0.00113396
0.00112989
0.001077
0.000972647
0.000843934
0.000740208
0.000518075
0.000248336
7.15145e-05
1.04773e-05
9.14477e-07
1.33097e-07
1.00532e-07
1.0309e-07
1.1419e-07
1.21294e-07
1.27466e-07
1.08623e-07
1.10359e-07
1.15416e-07
1.46601e-09
5.42996e-09
7.19543e-08
4.47267e-07
1.67408e-06
4.536e-06
9.79016e-06
1.78733e-05
2.8861e-05
4.26284e-05
5.82696e-05
7.58274e-05
9.62808e-05
0.000120148
0.000147489
0.000178406
0.000213351
0.000252735
0.000296956
0.000346464
0.000400832
0.000459723
0.000523294
0.000591319
0.000664638
0.00074212
0.000823423
0.000906501
0.000989137
0.00106494
0.00112688
0.00116866
0.00118112
0.00115055
0.00106594
0.000938827
0.000817804
0.000673658
0.00039548
0.000152415
3.34047e-05
3.88175e-06
3.46632e-07
1.07798e-07
1.00675e-07
1.05304e-07
1.16404e-07
1.33069e-07
1.2462e-07
1.07348e-07
1.10323e-07
1.15415e-07
1.45302e-09
5.39225e-09
7.17548e-08
4.47232e-07
1.67213e-06
4.51978e-06
9.74579e-06
1.78008e-05
2.87579e-05
4.24847e-05
5.81759e-05
7.57679e-05
9.60587e-05
0.000119618
0.000146883
0.000177877
0.000212748
0.000251894
0.000295823
0.000344867
0.000399373
0.000458477
0.000521315
0.000589504
0.000662781
0.000741207
0.00082332
0.000908419
0.000993852
0.00107667
0.001146
0.00119904
0.00122568
0.00121472
0.00115281
0.0010378
0.000902674
0.000796127
0.000552856
0.000272604
8.3777e-05
1.36897e-05
1.37022e-06
1.68675e-07
1.01686e-07
1.0145e-07
1.07755e-07
1.17336e-07
1.3353e-07
1.20301e-07
1.06955e-07
1.10305e-07
1.15415e-07
1.4397e-09
5.33586e-09
7.13413e-08
4.46476e-07
1.67324e-06
4.5179e-06
9.71903e-06
1.7735e-05
2.86611e-05
4.23572e-05
5.80212e-05
7.56633e-05
9.60011e-05
0.000119371
0.000146279
0.000177201
0.000212167
0.000251272
0.000294942
0.000343667
0.000397704
0.000456982
0.000520043
0.000587608
0.000661182
0.000739734
0.000823125
0.000909483
0.000997647
0.00108422
0.00116305
0.0012243
0.00126471
0.0012712
0.0012311
0.00113541
0.000998424
0.000875609
0.000712333
0.000419555
0.000167872
3.96679e-05
5.12401e-06
4.94883e-07
1.17463e-07
1.00608e-07
1.02291e-07
1.10477e-07
1.18718e-07
1.29417e-07
1.15821e-07
1.06762e-07
1.10298e-07
1.15415e-07
1.42734e-09
5.28079e-09
7.06765e-08
4.44476e-07
1.67187e-06
4.52335e-06
9.72076e-06
1.76985e-05
2.85745e-05
4.22387e-05
5.78911e-05
7.54956e-05
9.58949e-05
0.000119326
0.000146018
0.000176534
0.00021142
0.000250683
0.000294311
0.000342782
0.000396473
0.00045528
0.000518384
0.000586473
0.000659464
0.000738494
0.000822241
0.000910299
0.0010003
0.00109049
0.00117658
0.001247
0.00129755
0.00132082
0.00130113
0.00122729
0.00110073
0.000959731
0.000851292
0.000579006
0.00028829
9.24163e-05
1.63512e-05
1.81198e-06
2.13424e-07
1.04065e-07
1.00555e-07
1.03296e-07
1.13296e-07
1.20775e-07
1.24331e-07
1.05192e-07
1.06682e-07
1.10295e-07
1.15415e-07
1.41725e-09
5.23168e-09
7.00232e-08
4.40977e-07
1.66618e-06
4.52257e-06
9.73589e-06
1.7709e-05
2.85315e-05
4.21345e-05
5.77745e-05
7.53467e-05
9.57048e-05
0.000119222
0.000146001
0.000176252
0.00021069
0.000249876
0.000293726
0.000342176
0.000395591
0.000454051
0.00051653
0.000584881
0.000658556
0.00073708
0.00082154
0.000910263
0.00100249
0.00109525
0.00118606
0.00126662
0.00132701
0.00136302
0.00136326
0.00131173
0.00120279
0.00105669
0.000932734
0.000743056
0.000434479
0.000177305
4.36739e-05
6.13167e-06
6.39238e-07
1.30048e-07
1.0096e-07
1.0083e-07
1.05886e-07
1.16287e-07
1.32248e-07
1.20152e-07
1.04406e-07
1.06651e-07
1.10294e-07
1.15415e-07
1.41018e-09
5.19316e-09
6.94461e-08
4.37478e-07
1.65515e-06
4.51111e-06
9.73882e-06
1.77407e-05
2.85573e-05
4.20896e-05
5.76764e-05
7.52122e-05
9.55369e-05
0.000118995
0.000145894
0.00017626
0.000210406
0.000249067
0.00029288
0.000341581
0.000395013
0.000453151
0.000515245
0.000583046
0.000657109
0.00073652
0.000820596
0.00091034
0.00100364
0.00109929
0.00119358
0.00128289
0.00135295
0.00140063
0.00141696
0.00138794
0.00130023
0.00116146
0.0010175
0.000902694
0.000596323
0.000295812
9.69163e-05
1.79444e-05
2.16122e-06
2.57151e-07
1.07417e-07
1.00389e-07
1.02058e-07
1.09449e-07
1.16705e-07
1.28977e-07
1.16159e-07
1.04108e-07
1.06639e-07
1.10294e-07
1.15415e-07
1.40618e-09
5.16812e-09
6.90136e-08
4.34402e-07
1.64391e-06
4.48618e-06
9.72076e-06
1.77515e-05
2.86117e-05
4.21369e-05
5.76469e-05
7.51092e-05
9.53887e-05
0.00011882
0.000145644
0.000176169
0.000210454
0.000248798
0.000292007
0.000340696
0.000394412
0.000452565
0.000514287
0.000581828
0.000655362
0.000735315
0.000820536
0.000910078
0.0010048
0.00110204
0.00120004
0.0012942
0.00137579
0.00143387
0.00146475
0.00145515
0.00139079
0.00126704
0.00111318
0.000988765
0.000765107
0.000440641
0.000180766
4.52807e-05
6.70532e-06
7.52932e-07
1.423e-07
1.01716e-07
1.0079e-07
1.03623e-07
1.11609e-07
1.17491e-07
1.23498e-07
1.03518e-07
1.03996e-07
1.06635e-07
1.10293e-07
1.15415e-07
1.40494e-09
5.15687e-09
6.87544e-08
4.32197e-07
1.63418e-06
4.46044e-06
9.67622e-06
1.77279e-05
2.86355e-05
4.22211e-05
5.77296e-05
7.50903e-05
9.52761e-05
0.000118666
0.000145463
0.000175933
0.000210403
0.000248918
0.000291738
0.000339796
0.0003935
0.000451929
0.000513708
0.000580955
0.000654272
0.000733742
0.000819706
0.00091071
0.00100549
0.00110466
0.00120493
0.0013038
0.00139472
0.0014637
0.0015069
0.00151519
0.00147295
0.00136968
0.00121802
0.00107288
0.000930239
0.000604155
0.000295828
9.73645e-05
1.84127e-05
2.35446e-06
2.91458e-07
1.10445e-07
1.00642e-07
1.01308e-07
1.05123e-07
1.14598e-07
1.29855e-07
1.18879e-07
1.02345e-07
1.0396e-07
1.06634e-07
1.10293e-07
1.15415e-07
1.40305e-09
5.1578e-09
6.86878e-08
4.30988e-07
1.62745e-06
4.43846e-06
9.62985e-06
1.76605e-05
2.86083e-05
4.22627e-05
5.78507e-05
7.5208e-05
9.52762e-05
0.000118546
0.000145314
0.000175745
0.000210172
0.000248921
0.000291935
0.000339534
0.00039258
0.000450939
0.000513138
0.000580494
0.000653544
0.000732864
0.00081842
0.000910424
0.00100706
0.00110664
0.00120949
0.00131148
0.00140927
0.00148987
0.00154474
0.00156825
0.00154723
0.00146648
0.00132661
0.00116581
0.00104079
0.000776004
0.000437382
0.000178503
4.4525e-05
6.81981e-06
8.12139e-07
1.51713e-07
1.02577e-07
1.00934e-07
1.01875e-07
1.08678e-07
1.15124e-07
1.27528e-07
1.14309e-07
1.02025e-07
1.03949e-07
1.06634e-07
1.10294e-07
1.15415e-07
1.40003e-09
5.1556e-09
6.87844e-08
4.30956e-07
1.62426e-06
4.42395e-06
9.59067e-06
1.75901e-05
2.85178e-05
4.22347e-05
5.79145e-05
7.53746e-05
9.5438e-05
0.000118571
0.000145189
0.000175582
0.000209979
0.000248682
0.000292025
0.000339822
0.000392352
0.000449935
0.000512167
0.000580035
0.000653261
0.000732363
0.000817863
0.000909576
0.00100753
0.00110945
0.00121319
0.00131858
0.00142057
0.00151242
0.00157855
0.00161576
0.00161337
0.00155602
0.00143473
0.00127016
0.00112632
0.000946492
0.000601432
0.000287759
9.3763e-05
1.77988e-05
2.3717e-06
3.07686e-07
1.12932e-07
1.01258e-07
1.0134e-07
1.03908e-07
1.10904e-07
1.16563e-07
1.21287e-07
1.01465e-07
1.01922e-07
1.03946e-07
1.06634e-07
1.10294e-07
1.15415e-07
1.39518e-09
5.14615e-09
6.88246e-08
4.3189e-07
1.62524e-06
4.41833e-06
9.56663e-06
1.75319e-05
2.84232e-05
4.21222e-05
5.78929e-05
7.54657e-05
9.56618e-05
0.000118795
0.000145236
0.000175466
0.000209808
0.000248473
0.00029181
0.000339998
0.000392714
0.00044974
0.000511169
0.000579117
0.000652966
0.000732333
0.000817688
0.00090948
0.00100731
0.00111095
0.00121761
0.00132452
0.00143093
0.00153062
0.00160885
0.00165829
0.00167273
0.00163696
0.00153827
0.00138217
0.0012172
0.00109093
0.000774525
0.000425652
0.000170084
4.16693e-05
6.49923e-06
8.09655e-07
1.55657e-07
1.03395e-07
1.01206e-07
1.0208e-07
1.05057e-07
1.13647e-07
1.27368e-07
1.163e-07
1.00566e-07
1.01896e-07
1.03946e-07
1.06634e-07
1.10294e-07
1.15415e-07
1.38971e-09
5.12811e-09
6.87626e-08
4.32461e-07
1.62962e-06
4.42316e-06
9.55945e-06
1.74983e-05
2.83468e-05
4.20051e-05
5.77659e-05
7.545e-05
9.5785e-05
0.000119082
0.000145533
0.000175543
0.000209713
0.00024832
0.000291602
0.00033984
0.000392938
0.000450113
0.000511071
0.00057816
0.000652149
0.000732273
0.00081801
0.000909766
0.00100786
0.00111162
0.00122049
0.00133103
0.00143975
0.00154513
0.00163538
0.00169694
0.00172589
0.00171043
0.00163437
0.00149448
0.00132059
0.00117867
0.000948998
0.000587489
0.000272439
8.63724e-05
1.63096e-05
2.23122e-06
3.0471e-07
1.13721e-07
1.01381e-07
1.01391e-07
1.02213e-07
1.08043e-07
1.13934e-07
1.24672e-07
1.08005e-07
1.00327e-07
1.01889e-07
1.03946e-07
1.06635e-07
1.10294e-07
1.15415e-07
1.38352e-09
5.10572e-09
6.85742e-08
4.3237e-07
1.63265e-06
4.43653e-06
9.57349e-06
1.74931e-05
2.8307e-05
4.19141e-05
5.76385e-05
7.53048e-05
9.57715e-05
0.000119246
0.000145898
0.000175914
0.000209848
0.00024826
0.000291483
0.000339701
0.000392839
0.00045028
0.000511594
0.000578195
0.000651276
0.000731619
0.000818276
0.000910561
0.00100877
0.00111304
0.00122235
0.0013357
0.00144891
0.00155761
0.0016585
0.00173175
0.00177422
0.00177646
0.00172324
0.00160313
0.00143196
0.00126915
0.00112006
0.000757436
0.000405931
0.000156137
3.71925e-05
5.85367e-06
7.56759e-07
1.54357e-07
1.03367e-07
1.01138e-07
1.01383e-07
1.03449e-07
1.10835e-07
1.16022e-07
1.18282e-07
9.95715e-08
1.00264e-07
1.01888e-07
1.03946e-07
1.06635e-07
1.10294e-07
1.15415e-07
1.37687e-09
5.07855e-09
6.83168e-08
4.31506e-07
1.63317e-06
4.44626e-06
9.60342e-06
1.75224e-05
2.83081e-05
4.18719e-05
5.75506e-05
7.5159e-05
9.56096e-05
0.000119244
0.000146121
0.000176392
0.000210298
0.00024847
0.000291451
0.000339622
0.00039279
0.000450169
0.000511879
0.000578911
0.000651496
0.000730885
0.000817866
0.000911266
0.00101019
0.00111479
0.00122492
0.00133915
0.00145592
0.00157013
0.00167642
0.00176323
0.00181801
0.00183648
0.00180426
0.00170695
0.00154651
0.00136711
0.00122815
0.000936335
0.000557704
0.000252314
7.60959e-05
1.42065e-05
1.98306e-06
2.86875e-07
1.13303e-07
1.01388e-07
1.01204e-07
1.02113e-07
1.06227e-07
1.13139e-07
1.25673e-07
1.12945e-07
9.90494e-08
1.00251e-07
1.01888e-07
1.03947e-07
1.06635e-07
1.10294e-07
1.15415e-07
1.36967e-09
5.04785e-09
6.79866e-08
4.3018e-07
1.63088e-06
4.44932e-06
9.62632e-06
1.75776e-05
2.83594e-05
4.18844e-05
5.75207e-05
7.50627e-05
9.545e-05
0.000119061
0.000146136
0.000176683
0.000210899
0.000249032
0.000291725
0.000339594
0.000392752
0.000450195
0.000511853
0.000579344
0.00065245
0.00073135
0.000817346
0.000911201
0.00101148
0.00111704
0.00122778
0.00134325
0.00146145
0.00158013
0.00169314
0.00179049
0.00185812
0.00189087
0.0018782
0.00180381
0.00166126
0.00147613
0.00131871
0.00111475
0.000727116
0.000374478
0.000138278
3.15973e-05
4.99989e-06
6.69101e-07
1.48873e-07
1.03409e-07
1.01291e-07
1.01678e-07
1.03353e-07
1.08899e-07
1.13864e-07
1.2001e-07
9.91636e-08
9.89252e-08
1.00249e-07
1.01889e-07
1.03947e-07
1.06636e-07
1.10294e-07
1.15415e-07
1.36261e-09
5.01425e-09
6.75932e-08
4.2839e-07
1.62681e-06
4.44518e-06
9.635e-06
1.76201e-05
2.84471e-05
4.19642e-05
5.7559e-05
7.50469e-05
9.53358e-05
0.000118884
0.000145927
0.000176732
0.000211279
0.000249776
0.000292459
0.000339954
0.000392766
0.000450251
0.00051198
0.000579433
0.000653076
0.000732607
0.000818135
0.000910992
0.00101189
0.00111908
0.0012311
0.00134755
0.00146753
0.00158837
0.00170693
0.00181564
0.0018943
0.00194073
0.00194541
0.00189338
0.00177188
0.001593
0.00141342
0.00127371
0.000908452
0.000517819
0.000225764
6.3924e-05
1.17436e-05
1.66529e-06
2.58255e-07
1.11733e-07
1.01318e-07
1.01529e-07
1.02066e-07
1.04296e-07
1.11385e-07
1.24749e-07
1.13985e-07
9.80138e-08
9.89017e-08
1.00249e-07
1.0189e-07
1.03948e-07
1.06636e-07
1.10294e-07
1.15415e-07
1.35622e-09
4.98142e-09
6.71542e-08
4.26162e-07
1.62102e-06
4.43624e-06
9.62913e-06
1.76377e-05
2.85146e-05
4.20913e-05
5.76797e-05
7.51121e-05
9.53299e-05
0.000118769
0.000145723
0.000176507
0.000211378
0.00025029
0.000293395
0.000340859
0.000393214
0.000450321
0.000512137
0.000579691
0.000653315
0.000733476
0.000819769
0.0009122
0.00101211
0.00112013
0.00123412
0.00135224
0.00147368
0.00159699
0.00171863
0.0018344
0.00192784
0.00198622
0.00200691
0.00197545
0.00187684
0.00171086
0.00151809
0.00136583
0.00109097
0.000685643
0.000334994
0.000117398
2.5464e-05
4.03356e-06
5.605e-07
1.40138e-07
1.02634e-07
1.01175e-07
1.01566e-07
1.02338e-07
1.06772e-07
1.11608e-07
1.21528e-07
1.02186e-07
9.77994e-08
9.88981e-08
1.0025e-07
1.01891e-07
1.03948e-07
1.06636e-07
1.10295e-07
1.15415e-07
1.35027e-09
4.95104e-09
6.6714e-08
4.23624e-07
1.61351e-06
4.42282e-06
9.61381e-06
1.76317e-05
2.85448e-05
4.21889e-05
5.78564e-05
7.52793e-05
9.54282e-05
0.000118771
0.000145613
0.000176269
0.000211141
0.000250426
0.000294048
0.00034198
0.000394233
0.000450776
0.000512301
0.000579979
0.000653738
0.000733913
0.000820948
0.000914311
0.00101386
0.00112093
0.00123602
0.00135652
0.00148011
0.00160549
0.00173047
0.0018505
0.00195698
0.00202854
0.00206302
0.00205081
0.0019748
0.00182754
0.00163199
0.0014591
0.00127003
0.000860437
0.000472227
0.000193761
5.12275e-05
9.17915e-06
1.32306e-06
2.2437e-07
1.09049e-07
1.00952e-07
1.01219e-07
1.01886e-07
1.03333e-07
1.09261e-07
1.14718e-07
1.15025e-07
9.71759e-08
9.77602e-08
9.88984e-08
1.00251e-07
1.01891e-07
1.03949e-07
1.06636e-07
1.10295e-07
1.15415e-07
1.34498e-09
4.9241e-09
6.63004e-08
4.2105e-07
1.60479e-06
4.40477e-06
9.58928e-06
1.76091e-05
2.85398e-05
4.22348e-05
5.79925e-05
7.55144e-05
9.56528e-05
0.000118915
0.000145644
0.000176146
0.000210869
0.000250155
0.000294233
0.000342789
0.000395497
0.000451816
0.000512891
0.000580264
0.000654195
0.00073455
0.000821642
0.000915879
0.00101656
0.00112337
0.00123759
0.00135951
0.00148598
0.00161412
0.00174196
0.00186641
0.00198169
0.00206705
0.00211527
0.00211959
0.00206574
0.00193954
0.00175211
0.00155812
0.00140815
0.0010463
0.00062505
0.000292964
9.48701e-05
1.95759e-05
3.08053e-06
4.50245e-07
1.30444e-07
1.01944e-07
1.0091e-07
1.01724e-07
1.02516e-07