/*--------------------------------*- C++ -*----------------------------------*\
| =========                 |                                                 |
| \\      /  F ield         | OpenFOAM: The Open Source CFD Toolbox           |
|  \\    /   O peration     | Version:  v2012                                 |
|   \\  /    A nd           | Website:  www.openfoam.com                      |
|    \\/     M anipulation  |                                                 |
\*---------------------------------------------------------------------------*/
FoamFile
{
    version     2.0;
    format      ascii;
    class       volScalarField;
    location    ""0"";
    object      betann;
}

// * * * * * * * * * * * * * * * * * * * * * * * * * * * * * * * * * * * * * //

dimensions      [0 0 0 0 0 0 0];

internalField   nonuniform List<scalar>
39402
(
1.000176978813509
1.016184519312161
1.0202384384243235
1.0174659673039765
1.0399258845419834
1.0244378055670738
1.017354101718654
1.0290431862958345
1.0399696319269507
1.0262543157678292
1.017002047402281
1.0281058793270454
1.0296841685051152
1.0329780443982577
1.0271125212987313
1.0167512073039926
1.0272964733393868
1.0261273624979235
1.0297614032492517
1.030219225047704
1.0274744055920209
1.016612694839663
1.026879602121267
1.024039115054423
1.022902696337667
1.0296260825939583
1.029418786562934
1.0275965407276646
1.016534906238297
1.026646383362224
1.023019069190733
1.0192136522419417
1.0190727515647215
1.0293988650009926
1.0292314785649732
1.0276092993058192
1.0165084183682516
1.0265228628116632
1.022451431688141
1.0174043489336333
1.0135747245392728
1.0149070178679782
1.0291380006849227
1.0291814007043814
1.027573719015425
1.0165060501748695
1.0264723550876316
1.0221484403174812
1.0164004433758353
1.010872047379245
1.0075663931432979
1.010687735636706
1.0288737908533776
1.0291627985559877
1.0276138931422694
1.016520591121222
1.0264585398937687
1.022020005272755
1.01585767452057
1.0093839785248944
1.0039849484563756
1.0016716759236024
1.006693815484114
1.0286291822285822
1.02916080228237
1.0369305058245064
1.0165443616868057
1.0264675840257844
1.021979159650893
1.0156247855481364
1.0085742750986375
1.0020460631836652
0.997353670512611
0.9963144512929207
1.003134052523802
1.0284131705412858
1.0291688726551458
1.012116622227089
1.016574560213848
1.026487247465015
1.021992511426747
1.0155464636710487
1.0082247012707766
1.0009948818521717
0.9950734071141147
0.9914677476765545
0.9917345899428746
1.0000900482158523
1.028222033972565
1.0291811748467061
0.9911260692005057
1.016607229152897
1.0265147182195948
1.0220316036418162
1.015564382524554
1.0081026563267441
1.0005413459555381
0.9938543431729097
0.9889798849717611
0.9865485937512386
0.98798072607932
0.9974725598851966
1.0280522342545122
1.0291953035321377
0.9877856482372507
1.0166400143778838
1.02654675528141
1.0220892166007638
1.0156292644548366
1.0081229798404063
1.0003787998656406
0.9933315068586676
0.9876763708303055
0.9839580749997658
0.9825811441947883
0.9848960230580323
0.995228465737156
1.0278968506953652
1.0292086821996111
0.9872151884570545
1.0166732360736799
1.0265783812527014
1.0221596064957696
1.0157284202511283
1.0082138335365718
1.0003992982021344
0.9931415573559844
0.987122240911449
0.982630932799361
0.9797489473098419
0.9788648463646062
0.982402194902055
0.9933106063676023
1.027750513836611
1.0292166513324768
0.9869688913440147
1.0167058893345744
1.0266106475957828
1.0222296628527185
1.0158511587219126
1.0083564329966028
1.0005103883805344
0.9931624068064931
0.9869219013405183
0.9820712985906145
0.9777132264063421
0.9747943697727203
0.974921732416524
0.9804402153090693
0.9917001391292158
1.027635546498396
1.0292142156734223
0.9867765377299638
1.0167376016001837
1.026643506854785
1.022301573408492
1.015974628300808
1.0085345833015738
1.0006892582446012
0.9932848906037565
0.9869433777785879
0.9818724299746102
0.9768608251771266
0.9727921060940887
0.9708654934421033
0.9718319525494511
0.9781775362198865
0.9904625287189885
1.027606232603799
1.0291979456503304
0.9865916794677677
1.016770502928904
1.0266758699129483
1.0223759036310418
1.0161020385526258
1.0087161425695215
1.000912979212505
0.9934852187197738
0.9870696879445718
0.9818955943356512
0.9765682131665869
0.9719560920726983
0.9686580460825747
0.9676998168751124
0.9694751330010928
0.9765547268280339
0.9897536180833711
1.0276857690322905
1.0291650962857533
0.986402885037041
1.0168052316546166
1.0267096174108223
1.0224498099973378
1.0162341285917782
1.008904069645473
1.0011433446258502
0.993735562693096
0.9872782292495412
0.9820218590349075
0.9766073932841759
0.9716818209930181
0.9674593283375973
0.9649110866076684
0.9649237123255021
0.9677620409392391
0.9756025870917131
0.9897720035874625
1.0278936269975714
1.029114252861877
0.9862079883331876
1.016835984278082
1.0267461987819053
1.0225271109241492
1.0163666730389465
1.0090996842137003
1.0013832500398825
0.9939958434308487
0.9875360860662856
0.9822292782352711
0.9768000207530921
0.9717250931792516
0.967061710151711
0.9637385799842786
0.9621396032235134
0.962980100395118
0.9666123764194599
0.9752680333537357
0.9905005674518739
1.0282078350197266
1.0290493458050838
0.9860260112576671
1.0168622933179552
1.026776948779959
1.022610649385295
1.016504902538974
1.009296954554487
1.0016338270618919
0.9942680036987165
0.9878068275153734
0.9824835493387248
0.9771139853024317
0.9719144874161972
0.9670708317460369
0.9633522927335153
0.960986314636781
0.9601609805370112
0.9617416675886024
0.9659874615161226
0.975633366181812
0.9920497405012837
1.0285705686736955
1.0289947643928703
0.9858600262656569
1.0168930072351638
1.0268035261447088
1.0226814771715742
1.0166538296451881
1.0095026753508294
1.0018877468752514
0.9945531915741248
0.9880907679747324
0.9827519848861407
0.9774943924481353
0.9722214952640834
0.9672670679004991
0.9633532611761239
0.9605955803444417
0.9590079970598606
0.9588400748958182
0.9611296133556955
0.9659060725312378
0.976817222600961
0.9944905238947428
1.0289170779689514
1.0289410466780633
0.9857228953324345
1.0169217173898488
1.0268372584253036
1.0227433015453022
1.0167812528518347
1.0097232861429202
1.002152650364491
0.9948432045390903
0.9883891737965171
0.9830342050331999
0.977897652765259
0.9725887149708956
0.9676131737416456
0.9635352198417255
0.9605839796978115
0.9585971754256455
0.9576543009449341
0.95808290969556
0.9611238701337177
0.9664233312559343
0.9789675792360859
0.9978794747110256
1.0291804300821485
1.0288833331073295
0.985636130028385
1.0169492174116315
1.0268657140954538
1.0228214531477506
1.0168937770437743
1.009913787803191
1.0024353291774146
0.9951460851804637
0.9886930662142611
0.983331097868559
0.9783225110404885
0.9729800257208165
0.9680364542152021
0.9638592395836395
0.9607469341210959
0.9585640505751267
0.9572076574182314
0.9568211336423806
0.9578404159581805
0.961342756496649
0.9676138460580095
0.9816425873555966
1.0022043946752066
1.0293409421771622
1.0288260048423088
0.985562602336608
1.016975181779111
1.0268946679332644
1.022886612986465
1.017033346917752
1.0100838358832829
1.0026813898173883
0.9954676103172361
0.9890109330425556
0.9836340205709291
0.9787694284651918
0.9733923307897697
0.9684895317262885
0.9642536205353708
0.9610470825557491
0.9587036128757487
0.957142490844609
0.9563166408638362
0.9564448289088979
0.9580940480402503
0.9619177827124865
0.9695626228913203
0.9844942349191266
1.0073207106204067
1.0294116154013488
1.0287763062175923
0.9854874021036157
1.0170007434189656
1.0269218657141828
1.0229537592331632
1.0171506899141856
1.0102911774231076
1.002903920850327
0.9957497731154692
0.9893454346279252
0.9839506468083763
0.9792254022310202
0.9738260387122496
0.9689728963317821
0.9646787005335038
0.9614121179255104
0.9589761094759216
0.9572521386402729
0.9562068181295795
0.9558504960892429
0.9564862822167272
0.9588381665809126
0.9630198638978167
0.972378659127582
0.9881177331744665
1.012830279623534
1.0294277109989014
1.028736159205165
0.9854086960280986
1.0170253928983797
1.0269487595932894
1.0230165836242069
1.0172711267125114
1.010467264222053
1.003170947201326
0.9960082440936927
0.9896414827557007
0.9842808761277566
0.9797011554530013
0.9742684754868932
0.9694866676946619
0.9651329498436931
0.9618082240404667
0.9593110497482054
0.9574939521881288
0.9562773098299324
0.9556774379749513
0.9557594679436974
0.9569194841975442
0.9597281619409961
0.9647293560177514
0.9762000121118136
0.9926141739789358
1.018058526158736
1.0294154773339723
1.0287049896333451
0.9853267280862403
1.0170507010158443
1.0269739716123683
1.0230787895708897
1.0173840282136695
1.0106472715820545
1.003400058178303
0.9963136409334302
0.9899166914359872
0.9845748328965717
0.9801929931567978
0.9747294681585673
0.9700141408393712
0.965617347522865
0.96223323887925
0.9596768532267915
0.9577960381870234
0.9564829820489074
0.9556963678409165
0.9554959797741651
0.9560048556164531
0.9577462676231359
0.9607521834500719
0.9671702382718563
0.9809615138376206
0.9980652561511718
1.0223099139405623
1.0293930071194213
1.0381910602388869
0.9852464692854405
1.0170742287934929
1.0270006080707568
1.0231365923971483
1.0174957122890689
1.0108164778380695
1.003633510437784
0.9965784983784688
0.990236337978654
0.984852562019184
0.9805079610623967
0.9752021082150331
0.97056766921132
0.9661151366570627
0.9626880951611484
0.9600739141602601
0.9581309558813623
0.9567496715937788
0.9558582323613071
0.95544869567003
0.9556207940902466
0.9565735133186393
0.9588185510459255
0.9622778001016901
0.9704805262243652
0.9849006343080395
1.004378256350742
1.0253268842691206
1.0293687795708522
0.9902624980346391
0.985164475697509
1.017096817587128
1.0270249758494543
1.0231974659920027
1.017599273456085
1.0109836234809202
1.0038538539730801
0.9968481451210552
0.9905163537566902
0.9851694235216832
0.9807803799485323
0.9756277273875906
0.9711312117868591
0.96663763890248
0.9631567577554015
0.9604995169481069
0.9584983818023806
0.9570509201415706
0.9560831004351852
0.9555546356587252
0.9554867740144535
0.9560279654679025
0.9574765677401633
0.9597971178432543
0.9644176076598554
0.9748073699435692
0.9896395483602263
1.0110343167144313
1.0272817710542714
1.029348416395567
0.9902087582729827
0.9850869433613222
1.017116293546168
1.0270490974128559
1.0232528330716206
1.0177076472429456
1.0111388837546293
1.0040714934783015
0.9971036939405507
0.990801682489688
0.9854498790472374
0.981086588047939
0.9760404598889743
0.9716292765234571
0.967164966174114
0.9636494913613234
0.960939182412105
0.9588952881737441
0.9573869365064641
0.9563475135559079
0.9557305542571711
0.9555248727286162
0.9557824630965669
0.9567131365468744
0.9585162847650676
0.9612024701243833
0.9673143366333411
0.9802856505772022
0.9953161346759363
1.0170505807274322
1.0284768225312897
1.0293309763931002
0.9901612641957732
0.9850073193921727
1.0171368634537203
1.0270691058722006
1.0233080075841154
1.0178062058092534
1.0113000824877987
1.0042741728060443
0.9973559256068549
0.9910731860542947
0.985735431683412
0.9813598915031562
0.9764967799804826
0.972029539485828
0.9676361523095942
0.9641425579791475
0.9614026821761333
0.9593065095589772
0.9577541957735745
0.9566488175838398
0.9559524441498387
0.9556415255073137
0.955735591893434
0.9563243418958071
0.9576924725972155
0.9594837948623393
0.9631361567345986
0.9711427174471945
0.9847021603758291
1.001951373674449
1.0216489651694658
1.0291387576778062
1.0293181570886019
0.9901287067848797
0.9849241525517034
1.017158314344852
1.0270912485003683
1.0233534656838448
1.0179038435964127
1.0114469889309345
1.0044837431768365
0.9975917791770988
0.9913408164061184
0.9860082450537615
0.9816375759174202
0.9769075571558432
0.9724652673672978
0.9681103444566092
0.9645840819117815
0.9618642339341044
0.9597419057133323
0.9581375979727889
0.9569853166500383
0.9562159271718701
0.9558162435408957
0.9557826973598906
0.9561706504545181
0.9571132316314122
0.9585822687365735
0.9608270226841311
0.9657398208635302
0.9760791325713803
0.9897699124408632
1.0090700287710779
1.0248236181505608
1.0294443903506045
1.029310001463496
0.9901116928159559
0.984838794497996
1.0171779666533904
1.0271142373844344
1.0234035608900922
1.0179849885011547
1.0115920686166076
1.0046751046466065
0.9978350944214763
0.9915928758228256
0.9862771621217485
0.9819040528328757
0.9773241064633207
0.9728607400181003
0.9686300071499261
0.9650341714881712
0.9622788868757419
0.9601735858006059
0.9585449273025308
0.9573398276905309
0.9565185402291623
0.95603716455068
0.9559005840327093
0.9561345964465028
0.9568254269512666
0.9580949814319395
0.9595635876061442
0.9626389435233013
0.9691871493756358
0.9816692846544454
0.9957877011477466
1.0156248810579527
1.0270093116546797
1.0295580145506535
1.0293090528834783
0.9901039407117909
0.984758374208166
1.0171958526370508
1.0271343903228085
1.0234550053616513
1.0180729985935975
1.0117133590921583
1.0048637585339784
0.9980581713524106
0.9918514972269368
0.9865312980553482
0.9821664467974884
0.9777255840685735
0.9732617228821945
0.9690961223185186
0.9655219750020513
0.9627057945643253
0.9605621244595389
0.9589488199654773
0.9577189300605486
0.9568424067048992
0.9563017545928572
0.9560732479154229
0.9561834306486138
0.9566831273068457
0.9577040882040994
0.9588474031087652
0.9608852556324653
0.9650507246155031
0.973672054126205
0.9863596048571474
1.0027219943627503
1.0205863784409719
1.0283691359111626
1.0295921238343817
1.0293105522239063
0.9901008267119055
0.984704979271155
1.0172119185117467
1.027152838740382
1.0234994410250435
1.018162855652363
1.0118435533404164
1.0050226023648299
0.9982776693949491
0.9920903058545613
0.9867912860742788
0.9824158327114307
0.9781199225292743
0.973649223729714
0.9695749750186572
0.9659623635152046
0.9631641938871631
0.9609658538869229
0.9593122028584138
0.9580952059926384
0.9571935620732593
0.9565911304610248
0.9562953801226809
0.9562977970235284
0.9566502859563811
0.957433374280086
0.9584553345200424
0.9598572130562426
0.9626337854136255
0.9682287704767707
0.979329182574608
0.9918867497264342
1.0100340709039277
1.0240994514991684
1.0291596456962226
1.0296001537675397
1.0293127396913417
0.9901010149200131
1.0014920315753753
1.017227633006003
1.0271695101227136
1.023540006875753
1.0182401727576376
1.0119758143530322
1.0051918305735983
0.9984642728365473
0.9923247236950165
0.9870327729848176
0.9826696630525107
0.9784961895080865
0.9740294086206559
0.9700387283839226
0.9664157243319104
0.9635806551742058
0.9613988283121693
0.9596952915529551
0.958433910858034
0.9575416374554773
0.9569120185010629
0.9565472882305672
0.9564711912296285
0.9566975156767188
0.9573001917017555
0.9582334812230748
0.95925968107503
0.9611852066951434
0.9649322409482929
0.9723749560069641
0.9842268845058846
0.99837783506283
1.0162858588412895
1.0265157465149823
1.0295549201532581
1.029601839596921
1.0293139188016562
0.9900763362787636
1.0337435778194566
1.0172443913302638
1.027185950844523
1.0235767591927818
1.0183105533746761
1.012089456396546
1.005362662126002
0.9986617774040861
0.9925263858405908
0.9872696458632068
0.9829068782165891
0.9788755873913537
0.9743938210204491
0.970493954846872
0.9668557504782572
0.9640103345434906
0.9617939305715716
0.9601030371188773
0.9587954808876042
0.9578553754046141
0.9572319766491868
0.9568343525518497
0.9566806685474823
0.9568135597042199
0.9572660661588747
0.9581309580637393
0.9588904641844062
0.9603097858565486
0.9629138116867517
0.967947524223306
0.9776880209074735
0.9893801581646244
1.0056615753550693
1.0210000873065188
1.0282579493498007
1.0297126586652645
1.0296037024054718
1.0293706151630388
0.9900093678145617
1.026655567943394
1.017261557841005
1.0272042441302944
1.0236122074976175
1.0183741344238937
1.012192666342497
1.005509697274374
0.9988601365775455
0.9927384853771064
0.9874756265127363
0.983138424602537
0.9792316839753916
0.9747598471549822
0.9709315834673711
0.967287097629912
0.9644287267905363
0.9622014068526998
0.9604773399543143
0.9591809125451541
0.958195735252984
0.9575202024229681
0.9571230620440526
0.9569306109460927
0.9569728409215188
0.9573128033294059
0.9580026271456394
0.9586796943744081
0.9597485512793326
0.961660583452072
0.9651601524804578
0.971881943543743
0.982965879839288
0.995453766396126
1.0127286403369116
1.024371069558383
1.0290508237382143
1.0297611498875665
1.0296054442996676
1.0305273285263932
0.9899662623629654
1.0260888116468994
1.0172761132444583
1.027222635753249
1.0236517985098423
1.0184345866493387
1.0122855955898655
1.0056431650671795
0.9990314328156682
0.9929507385623989
0.9876914078466584
0.9833425416056347
0.9795780763782919
0.9751050878089436
0.9713734968094552
0.9677029963885749
0.9648385833759786
0.9625995701778909
0.9608648404136598
0.9595362230106932
0.9585580926004105
0.9578377493507473
0.9573846183229313
0.9571863542885896
0.9571809309319746
0.9574148775109594
0.9579658945114331
0.9585759982507853
0.9593975188967593
0.9608433627573637
0.9633951517345959
0.9680838348036894
0.976945221942207
0.9878678976898531
1.0023867076468482
1.018279200394444
1.026670481165686
1.0295724269960258
1.0297714038300783
1.029601279838151
1.04298337939694
0.9899145393156565
1.0259900099973756
1.0172881570218348
1.0272369900781733
1.0236913321947907
1.0185019158173751
1.0123733098782077
1.0057630745093604
0.9991872098722017
0.9931343278956513
0.9879060476215955
0.9835557591637474
0.9798878087156623
0.9754404326221447
0.9717919720373146
0.9681220236125003
0.9652339789059334
0.9629892686148123
0.9612445049110987
0.9599046909980938
0.9588954796429348
0.9581783889675531
0.9576778355362521
0.9574183994899833
0.9573995468723809
0.9575727623124042
0.9580006933925876
0.9585547527569489
0.9591854925922384
0.9603110239745494
0.9622313492587825
0.9656264443202474
0.9718855962500348
0.9823054972938307
0.9936177820714067
1.0096892070898993
1.0223278609855218
1.0284358111459146
1.0297847444494022
1.0297689242508563
1.0295983848605532
0.9928473636223989
0.9898627602587695
1.0259568704930815
1.0173001690372345
1.0272483851698144
1.023720993797314
1.0185686912228304
1.012470588565396
1.005876507048038
0.9993267966609432
0.9933021783343755
0.9880924177579088
0.9837665460313906
0.980209189565774
0.975743818484628
0.9721167977874952
0.9685217965177868
0.9656325348125445
0.963367672976014
0.961616115466649
0.9602670080951987
0.9592457612271479
0.9584977048542133
0.9579970492704369
0.9576854490605391
0.9575992449713199
0.9577477400171316
0.9580978567490025
0.9585890606315555
0.9590791368730188
0.9599625008966739
0.9614572559728457
0.9639933634086327
0.9685103785715403
0.976781936229599
0.9870419483680068
1.000284067883462
1.015895491394568
1.025252068115352
1.0291236696400505
1.0298580403450237
1.0297669675330425
1.02960074553471
0.9915584377221774
0.9898176557457915
1.0259418547603265
1.0173126997961925
1.027260714466786
1.0237440395820347
1.018618167778697
1.0125663844734696
1.0060009204428573
0.9994601626611906
0.9934529065253248
0.9882643241956613
0.983950486635978
0.980430600794692
0.976056860152869
0.9724121858768445
0.9689099906554447
0.966014672538012
0.9637472099571782
0.9619784007247695
0.9606216432246192
0.9595911829406973
0.9588286657068195
0.958296379437579
0.9579794805920183
0.9578368848197238
0.9579110922638193
0.9582239076159625
0.9586748159973959
0.9590439887351627
0.9597482554406315
0.9609332460451885
0.9628943788553076
0.9662415982243967
0.9722475591060351
0.9820844868725213
0.9925729267010754
1.0075477134177786
1.0205142383996153
1.02727938481722
1.0296349462111618
1.0298761592117842
1.0297681589556098
1.029604364920909
0.991531388381619
0.9897858418356346
1.025933878103849
1.0173247372487575
1.0272747694010098
1.023769283586148
1.0186560309518036
1.0126369493905987
1.0061231183873254
0.9996045108918222
0.9935981868521844
0.9884194571441424
0.9841212058558001
0.9806099974154444
0.9763639346418138
0.9727160149793008
0.9692660030563099
0.9663848050849555
0.9641131890137065
0.9623417197572698
0.9609688617385773
0.9599299522232517
0.9591581813620538
0.9586080461885399
0.9582578893633175
0.9581020833036281
0.9581148495135464
0.9583455923006254
0.9587838194651265
0.9590713622542941
0.9596277338660949
0.9605846304511925
0.9621370309879149
0.9647041878018568
0.9691340232285489
0.9770580991147367
0.9867188354802147
0.9990268892571031
1.014137040722706
1.023882119896595
1.0286499229922759
1.029856706540182
1.0298790831103521
1.029771499826284
1.0296124563079432
0.9915127887566991
0.9922496052964589
1.0259293259760798
1.0173362200797402
1.0272878889715862
1.0237987130600772
1.01869753686846
1.0126903139066632
1.006212610479264
0.9997454207925845
0.993753670567095
0.9885695705984542
0.9842769357117328
0.9807772847528081
0.9766350722834587
0.9730129444813488
0.9696386819985743
0.966727619632995
0.9644674139319497
0.9626932337809566
0.9613176154403986
0.9602635397399881
0.9594816194999205
0.9589201591864553
0.9585484802307901
0.9583551170127691
0.9583453456450638
0.9585111061056091
0.9588963319745542
0.9591312399506521
0.9595830924225616
0.9603552183837913
0.9616144608474623
0.9636337704160816
0.9670006609928761
0.9728709141905769
0.9822030978328034
0.992117221031863
1.0061730516706944
1.0191762335746044
1.026302424740895
1.029337332555239
1.0299345399360358
1.029880868191118
1.02977472178776
1.0298262447200062
0.9914829176286907
1.0393819781881557
1.0259269215518185
1.017348005144527
1.0273003531785163
1.023825523335951
1.0187455508890484
1.012748930999426
1.0062801446071579
0.9998490937686427
0.9939043331797954
0.9887285330896249
0.9844276329313977
0.9809313049406603
0.9768895043649277
0.9732767514202987
0.9699992570495478
0.9670865622141024
0.9647975820025102
0.963032728960915
0.9616548244634328
0.9605965311739667
0.959799798025601
0.9592282673383009
0.9588424558018447
0.9586216459241304
0.9585697705682669
0.9586985457458566
0.9590195574109683
0.9592025931704934
0.9595857074343315
0.9602253372163435
0.9612494357090794
0.9628810818939051
0.9655081298607204
0.9699424809216053
0.9776733237107539
0.9867794581333601
0.9984338976477761
1.0129577176870603
1.0228502043404188
1.0279371965839483
1.0297749316859246
1.0299587549522013
1.029882100491033
1.0297767167174472
1.0460094299902627
0.9914239579932294
1.028817814030736
1.0259257313699572
1.0173588870631285
1.0273129161912866
1.0238511658700553
1.0187889958844059
1.0128159314356036
1.006354341693873
0.9999276178432612
0.9940161403620253
0.9888815549215086
0.9845862058060552
0.9810814043653723
0.9771248396025503
0.9735260103348977
0.9703180860094565
0.9674333142095194
0.9651438491351384
0.9633511090635707
0.961981176895279
0.9609205624606535
0.9601184574780774
0.9595313454005349
0.9591312850806442
0.9588927712747077
0.9588073598743498
0.9588913385835798
0.9591624017766086
0.959310199885126
0.959606514037323
0.9601532629156095
0.9610105572712282
0.9623429169344067
0.9644473731939094
0.9678765994542489
0.9737331372070714
0.9825948772566554
0.9921048823737889
1.0054732900792125
1.0182891305400494
1.0255384628371442
1.0289680274864144
1.029960721873388
1.0299638107249343
1.0298836536199782
1.0297771849028206
0.9937737625509929
0.9913939464517771
1.028480219585521
1.0259252471034206
1.017368586139966
1.0273236480422612
1.023876445912049
1.0188305072999428
1.0128765220714728
1.0064383833234885
1.000014049615265
0.9941020331439773
0.9889963633409732
0.9847371610732558
0.9812376639351272
0.977356046332875
0.9737575571261783
0.9706223298880708
0.9677404802412353
0.9654783211908313
0.9636856111868853
0.962288523207959
0.9612350702525216
0.9604300359139152
0.9598350436461114
0.9594171396722959
0.959161348209839
0.9590536007665904
0.9590973966154955
0.9593176579343338
0.9594314595035517
0.9596710212865952
0.9601150761090603
0.9608491014817179
0.9619653152422193
0.9636794102329395
0.9663992217518481
0.9709029632397448
0.9785973540205432
0.9871551978259483
0.9983369597894393
1.01234214249264
1.022140520429359
1.0274114318045766
1.0295759848031867
1.030013793200051
1.0299621375139698
1.0298843228364962
1.0297747503261265
0.9921716916786086
0.9913733098620827
1.0284312383610676
1.0259251680641597
1.0173765896799634
1.027331603862966
1.0238969950471186
1.018870986191007
1.0129341176197717
1.0065142148864745
1.0001109044415017
0.9941969873438256
0.9890874267879206
0.984852659245121
0.9813856377915712
0.9775940555864842
0.9739859242007733
0.970908089577778
0.9680345584192434
0.9657751264763264
0.9640091090447541
0.9626123999467315
0.9615314719729938
0.9607324862020273
0.9601332414423608
0.9597056106010439
0.9594287146398488
0.9592987424346336
0.9593165696046132
0.9594907374516112
0.9595651562439848
0.9597558636017548
0.9601270846520944
0.9607383439223566
0.9616951761876369
0.9631272662137638
0.9653255284080878
0.9688635869974879
0.9747930747689525
0.983229150353052
0.9924577840153543
1.0052836021401725
1.0178251050020009
1.024999092869474
1.028631764225098
1.0299120875272914
1.0300188069054528
1.0299616643129808
1.029883563995221
1.0297883432911044
0.9921545483126127
0.9967248137495368
1.0284182154802135
1.0259253446637573
1.017384620869044
1.0273377750321615
1.0239105626285252
1.0189029783645254
1.012989679384713
1.0065860842815062
1.0001983438788569
0.9943012236538032
0.9891877296056139
0.9849470955698272
0.9815005009449266
0.9778193813799594
0.9742199965743946
0.9711939676958858
0.9683132848930057
0.9660602833788703
0.9642957269860718
0.9629256017347642
0.9618465281874493
0.9610196846533452
0.9604233640486846
0.9599890456055407
0.9596991468164965
0.9595466775451691
0.9595368665661682
0.959680149062737
0.9597119408706714
0.9598581016052121
0.9601722600749295
0.9606889423695433
0.9614931107859661
0.9627152822809162
0.9645416714313848
0.9673739355895613
0.9720067436141729
0.9797731386202015
0.9878082670855778
0.9986612119275167
1.0121494014686336
1.021758122487772
1.0270359987345898
1.0293795778700128
1.0300341342154067
1.0300236022463225
1.0299600146377625
1.0298830535293906
1.03102023148937
0.9921314476541407
1.0329148721937038
1.0284138444685342
1.0259256330031907
1.0173924801008587
1.0273454505370792
1.0239202277355446
1.0189228329103404
1.013032637784441
1.0066546443020155
1.000280800258804
0.9943961321037881
0.9892954527912247
0.9850506346958795
0.9815973779411489
0.9779971755353117
0.9744400624713941
0.9714879867317213
0.968593347872706
0.9663322237646823
0.9645738956183184
0.9632036773025878
0.9621494848390707
0.9613242581817445
0.9607006671869689
0.9602660518352757
0.9599677206574797
0.9597973119443534
0.959763584312923
0.9598743273885698
0.9598711451699354
0.9599755295702447
0.9602397549426189
0.9606815381414462
0.9613679068221406
0.9624017481690574
0.9639471024308364
0.9662771117422525
0.969954967866882
0.9760441982192855
0.9840636160239943
0.9931367047057036
1.0055589386910038
1.0176750062547324
1.0246959464041527
1.0283900273920912
1.0298104271634831
1.0300832958130568
1.0300250421509078
1.0299588895166036
1.0298828608302102
0.9980219961374764
0.9920993951580344
1.0293040608047208
1.0284121636261514
1.0259259088099728
1.0174002940318267
1.0273549182633017
1.0239339348018566
1.0189360663907732
1.0130581107183319
1.00670666799415
1.0003588187712753
0.9944853356124229
0.9893941650110845
0.9851596722279412
0.9817028844584907
0.9781505078609208
0.9746171634527987
0.9717269904533818
0.9688803416251264
0.9666066494219863
0.9648397493501479
0.9634740102710332
0.9624192745931257
0.9616180307478481
0.9609951794724895
0.9605304514237931
0.9602285064794662
0.9600495196523852
0.9599945364180387
0.960077857340422
0.9600329775687354
0.9601072909113307
0.9603219050556094
0.9607094297111914
0.961294746545597
0.9621837064467698
0.9634926703095076
0.9654465988160192
0.9684367996029799
0.9732477254359724
0.9810051060558455
0.9886942050814698
0.9993666880716537
1.0123472884125657
1.0216244303584312
1.0268206864508036
1.0292413791931392
1.0300179427553564
1.030077917486795
1.0300196033455271
1.0299584313731605
1.0298826589549401
0.9925352634135952
0.9920862269094072
1.0292112018871151
1.0284114550455687
1.0259261851579364
1.0174088855528232
1.0273666217266173
1.023952948963541
1.0189562355531865
1.0130741341519003
1.006736564521223
1.0004172663539295
0.9945686706753486
0.9894867376155069
0.985259949218127
0.9818127463321912
0.9783165509227274
0.9747730276871128
0.9719029724897185
0.9691452574682586
0.9668874671353432
0.9651087490117559
0.9637350352957739
0.9626826345000504
0.9618800368183718
0.9612797437332693
0.9608144746913521
0.9604801519741311
0.9602952173449841
0.9602284704951037
0.9602725646227612
0.9602017450121726
0.9602465294353222
0.9604233886107212
0.9607545978128403
0.9612733664573646
0.9620304866689856
0.9631593919828312
0.9648087107919364
0.9672879365169205
0.9711617833418513
0.9774782741567787
0.98507201085375
0.9940896942462073
1.0062640458447387
1.0178326344316313
1.0245800515926744
1.0282523863048363
1.0297327902997089
1.0300944678211512
1.0300680494786527
1.030016121378975
1.0299591091379872
1.0298999235147357
0.9925191712419272
1.0064603026902181
1.029197562618798
1.0284111981131894
1.025926421062193
1.0174170837198682
1.0273775306196264
1.0239782744712551
1.0189856720031734
1.0131000022288672
1.0067552418569194
1.0004505534281525
0.9946309984975519
0.9895727616487446
0.9853542922600038
0.9819134962094481
0.9784881865295804
0.9749414656437441
0.9720613391857466
0.9693606749605309
0.9671468454105926
0.9653837689359115
0.9639999668526722
0.9629387649534138
0.9621374628910496
0.9615339762853736
0.9610895187950739
0.9607508674371545
0.9605328670237592
0.9604582822008841
0.9604649489865762
0.96037354304233
0.9603926049844451
0.9605338243825164
0.9608225304999607
0.9612783310684654
0.9619443473904925
0.962907604560903
0.964329816610711
0.9664080386995044
0.9695786239576841
0.9746417632421258
0.9820661231271294
0.9897829112888139
1.0003936030779228
1.0129423034247245
1.0217338765165427
1.0267379770995384
1.0291513400206744
1.0299867338186828
1.0301273969226057
1.0300650153635456
1.0300156828074627
1.0299576163489106
1.0395787498926157
0.9925000980336882
1.0304445073351562
1.0291939186201784
1.0284111187048848
1.025926610431377
1.0174245191372728
1.027387449560417
1.0240013792017328
1.0190262246336599
1.0131391125907085
1.0067859851002767
1.0004722885702257