/*--------------------------------*- C++ -*----------------------------------*\
| =========                 |                                                 |
| \\      /  F ield         | OpenFOAM: The Open Source CFD Toolbox           |
|  \\    /   O peration     | Version:  v2012                                 |
|   \\  /    A nd           | Website:  www.openfoam.com                      |
|    \\/     M anipulation  |                                                 |
\*---------------------------------------------------------------------------*/
FoamFile
{
    version     2.0;
    format      ascii;
    class       volScalarField;
    location    "13200";
    object      Fs;
}
// * * * * * * * * * * * * * * * * * * * * * * * * * * * * * * * * * * * * * //

dimensions      [0 0 0 0 0 0 0];


internalField   nonuniform List<scalar> 
39402
(
0
0.00436296
0
2.73177e-05
0.0893675
0
4.58488e-05
3.6861e-05
0.0828881
0
4.79916e-05
4.33227e-05
5.37156e-05
0.0280803
0
4.46935e-05
4.829e-05
4.13531e-05
8.19227e-05
0.00694909
0
4.56595e-05
4.43887e-05
5.11077e-05
3.89843e-05
0.000105499
0.0011746
4.38538e-15
4.9186e-05
4.69063e-05
4.59258e-05
5.49253e-05
3.61336e-05
0.000107284
0.000119118
9.39654e-10
5.11651e-05
4.90555e-05
4.88411e-05
4.86426e-05
6.03457e-05
3.3711e-05
9.35691e-05
8.32701e-06
1.93705e-06
4.78897e-05
5.01671e-05
4.99716e-05
5.04596e-05
5.3355e-05
6.79152e-05
3.4552e-05
7.06406e-05
3.72605e-07
0.000749521
4.46416e-05
4.70375e-05
5.03456e-05
5.14124e-05
5.22813e-05
5.9835e-05
7.74594e-05
4.14511e-05
4.749e-05
1.02869e-08
0.072217
4.28834e-05
4.51233e-05
4.70591e-05
5.13117e-05
5.31242e-05
5.43408e-05
6.66844e-05
8.69013e-05
5.59724e-05
2.78274e-05
1.56397e-10
0.69372
4.43937e-05
4.36829e-05
4.54985e-05
4.80962e-05
5.25196e-05
5.50825e-05
5.72299e-05
7.30139e-05
9.44406e-05
8.02992e-05
1.44264e-05
3.65985e-12
0.968153
4.47085e-05
4.61706e-05
4.40934e-05
4.5902e-05
5.01502e-05
5.38755e-05
5.72161e-05
6.07589e-05
7.95504e-05
9.83268e-05
0.000115645
7.16748e-06
1.74694e-13
0.995672
4.36113e-05
4.53638e-05
4.61947e-05
4.43296e-05
4.63761e-05
5.23668e-05
5.52585e-05
5.94441e-05
6.46583e-05
8.66347e-05
9.69318e-05
0.000158503
3.17929e-06
6.93889e-15
0.999201
4.62941e-05
4.41446e-05
4.53188e-05
4.58677e-05
4.46537e-05
4.688e-05
5.41232e-05
5.66771e-05
6.15689e-05
6.88987e-05
9.34988e-05
9.01537e-05
0.000185822
1.3338e-06
1.66533e-16
0.999856
4.68568e-05
4.53956e-05
4.43607e-05
4.52166e-05
4.58845e-05
4.50079e-05
4.74853e-05
5.51253e-05
5.80187e-05
6.34679e-05
7.34143e-05
0.000100085
7.91564e-05
0.000138066
4.44808e-07
0
0.999989
4.38132e-05
4.68106e-05
4.56406e-05
4.44354e-05
4.5286e-05
4.60363e-05
4.54243e-05
4.82025e-05
5.52331e-05
5.96038e-05
6.55115e-05
7.8133e-05
0.000106475
8.22038e-05
9.55665e-05
8.61836e-08
0
1
4.46908e-05
4.4945e-05
4.69388e-05
4.61948e-05
4.45523e-05
4.53157e-05
4.62986e-05
4.59647e-05
4.89575e-05
5.47481e-05
6.04997e-05
6.8273e-05
8.25501e-05
0.00010922
7.7798e-05
8.08997e-05
1.24729e-08
0
1
4.7542e-05
4.49145e-05
4.50209e-05
4.63901e-05
4.63136e-05
4.46361e-05
4.53745e-05
4.6602e-05
4.65522e-05
4.97024e-05
5.42094e-05
5.98956e-05
7.18268e-05
8.63638e-05
0.000107269
7.78351e-05
5.16702e-05
1.56947e-09
0
1
4.75342e-05
4.64684e-05
4.49164e-05
4.47954e-05
4.64355e-05
4.63591e-05
4.4711e-05
4.54923e-05
4.68395e-05
4.71682e-05
5.04663e-05
5.42334e-05
5.85776e-05
7.40364e-05
8.91566e-05
0.000109953
5.73781e-05
1.72643e-05
1.65197e-10
0
1
4.40012e-05
4.679e-05
4.59463e-05
4.49179e-05
4.47488e-05
4.67632e-05
4.63672e-05
4.48333e-05
4.5608e-05
4.70034e-05
4.78674e-05
5.12047e-05
5.44272e-05
5.73354e-05
7.41395e-05
9.03348e-05
9.89083e-05
4.86976e-05
2.4208e-06
1.59134e-11
0
1
4.36311e-05
4.46248e-05
4.69581e-05
4.62286e-05
4.49703e-05
4.46547e-05
4.6747e-05
4.63619e-05
4.4947e-05
4.56826e-05
4.70604e-05
4.86036e-05
5.18708e-05
5.46715e-05
5.73643e-05
7.36099e-05
8.99888e-05
7.57415e-05
3.35513e-05
2.09529e-07
2.35983e-12
0
1
4.64068e-05
4.39949e-05
4.46907e-05
4.70424e-05
4.65302e-05
4.50323e-05
4.46167e-05
4.66645e-05
4.62947e-05
4.50271e-05
4.57117e-05
4.70428e-05
4.9333e-05
5.23915e-05
5.45292e-05
5.71226e-05
7.30692e-05
8.82845e-05
4.83584e-05
1.73379e-05
1.02085e-08
5.6477e-13
0
1
4.69978e-05
4.58759e-05
4.40615e-05
4.45423e-05
4.70049e-05
4.6584e-05
4.5085e-05
4.47089e-05
4.65371e-05
4.62087e-05
4.51454e-05
4.5728e-05
4.70129e-05
5.00068e-05
5.26811e-05
5.36066e-05
5.53626e-05
7.19408e-05
7.79724e-05
3.75718e-05
5.82053e-06
3.57415e-10
1.85629e-13
0
1
4.54299e-05
4.64096e-05
4.5655e-05
4.3999e-05
4.4491e-05
4.69733e-05
4.64252e-05
4.50749e-05
4.48069e-05
4.63266e-05
4.60833e-05
4.52412e-05
4.56377e-05
4.70185e-05
5.0532e-05
5.26564e-05
5.25669e-05
5.37607e-05
6.82464e-05
5.95642e-05
2.54422e-05
1.11078e-06
1.82717e-11
4.24105e-14
4.66294e-15
1
4.35311e-05
4.55249e-05
4.63106e-05
4.61611e-05
4.39657e-05
4.45211e-05
4.6907e-05
4.61444e-05
4.50167e-05
4.48429e-05
4.60144e-05
4.58281e-05
4.5233e-05
4.51996e-05
4.70687e-05
5.08868e-05
5.2272e-05
5.12129e-05
5.18585e-05
6.43739e-05
4.47224e-05
1.45563e-05
7.90854e-08
2.94309e-12
7.10543e-15
3.8869e-11
1
4.38917e-05
4.40591e-05
4.56918e-05
4.64346e-05
4.64745e-05
4.39145e-05
4.46206e-05
4.68335e-05
4.58128e-05
4.49925e-05
4.48808e-05
4.56491e-05
4.5539e-05
4.52111e-05
4.46203e-05
4.69811e-05
5.11768e-05
5.13222e-05
4.92041e-05
4.89096e-05
5.50758e-05
3.21867e-05
6.81612e-06
1.63816e-09
3.11406e-12
9.4369e-16
1.90072e-07
1
4.61952e-05
4.42483e-05
4.41235e-05
4.51242e-05
4.64908e-05
4.65537e-05
4.38228e-05
4.47056e-05
4.66826e-05
4.54295e-05
4.49862e-05
4.49093e-05
4.52215e-05
4.52284e-05
4.51649e-05
4.40172e-05
4.64572e-05
5.15936e-05
5.00632e-05
4.67354e-05
4.5159e-05
4.22917e-05
1.89191e-05
2.18346e-06
8.48105e-12
1.55759e-11
5.55112e-17
0.0724273
1
4.78385e-05
4.52557e-05
4.43326e-05
4.39781e-05
4.46055e-05
4.64685e-05
4.63409e-05
4.37163e-05
4.47975e-05
4.63332e-05
4.50006e-05
4.49617e-05
4.48899e-05
4.4704e-05
4.48483e-05
4.50248e-05
4.34344e-05
4.53429e-05
5.1398e-05
4.87627e-05
4.38987e-05
4.04288e-05
3.16861e-05
9.61039e-06
2.86623e-07
4.62963e-14
2.15782e-10
0
0.99993
1
4.65346e-05
4.7004e-05
4.541e-05
4.43144e-05
4.38313e-05
4.46992e-05
4.63705e-05
4.61577e-05
4.36458e-05
4.48996e-05
4.58446e-05
4.45279e-05
4.49237e-05
4.48159e-05
4.4116e-05
4.44077e-05
4.47946e-05
4.29129e-05
4.41391e-05
4.96188e-05
4.63773e-05
4.04149e-05
3.43408e-05
2.11712e-05
4.47839e-06
1.0518e-08
2.72005e-15
1.93401e-09
0
0.999999
1
4.38755e-05
4.62119e-05
4.62815e-05
4.58311e-05
4.43432e-05
4.37088e-05
4.46794e-05
4.61885e-05
4.60071e-05
4.36353e-05
4.4999e-05
4.52673e-05
4.40138e-05
4.48512e-05
4.46796e-05
4.34553e-05
4.3895e-05
4.4443e-05
4.22794e-05
4.31879e-05
4.72696e-05
4.28188e-05
3.59422e-05
2.71247e-05
1.19863e-05
1.59276e-06
4.74394e-11
2.0095e-14
2.00711e-09
0
0.999995
1
4.31989e-05
4.45085e-05
4.60973e-05
4.6388e-05
4.58165e-05
4.43638e-05
4.36563e-05
4.4605e-05
4.59542e-05
4.58196e-05
4.37042e-05
4.50992e-05
4.46225e-05
4.34664e-05
4.47338e-05
4.44557e-05
4.28035e-05
4.32994e-05
4.3947e-05
4.15247e-05
4.20872e-05
4.48578e-05
3.88943e-05
3.06573e-05
1.92762e-05
5.93124e-06
2.71264e-07
9.55902e-14
2.9665e-11
1.30181e-11
0
0.999995
1
4.36367e-05
4.36425e-05
4.45655e-05
4.6023e-05
4.72775e-05
4.57513e-05
4.43771e-05
4.36598e-05
4.45776e-05
4.56547e-05
4.55997e-05
4.3794e-05
4.51811e-05
4.39189e-05
4.28852e-05
4.45563e-05
4.41663e-05
4.21449e-05
4.2607e-05
4.32635e-05
4.06252e-05
4.05843e-05
4.172e-05
3.43849e-05
2.47035e-05
1.1973e-05
2.57903e-06
1.01688e-08
5.55112e-16
3.99563e-07
8.25451e-14
1.11022e-16
1
1
4.51473e-05
4.39033e-05
4.37408e-05
4.43981e-05
4.58386e-05
4.76308e-05
4.5644e-05
4.43922e-05
4.37235e-05
4.45136e-05
4.52815e-05
4.53441e-05
4.38706e-05
4.52334e-05
4.31853e-05
4.22759e-05
4.42971e-05
4.38295e-05
4.14467e-05
4.18066e-05
4.23645e-05
3.95458e-05
3.86816e-05
3.77435e-05
2.9157e-05
1.82857e-05
6.20031e-06
8.87568e-07
4.84388e-11
7.77156e-16
0.000240693
8.82627e-15
3.05311e-15
1
1
4.60459e-05
4.51335e-05
4.38912e-05
4.36786e-05
4.42872e-05
4.57665e-05
4.74439e-05
4.55248e-05
4.44613e-05
4.38124e-05
4.44161e-05
4.48333e-05
4.50567e-05
4.39358e-05
4.52425e-05
4.24473e-05
4.16336e-05
4.39297e-05
4.33834e-05
4.07469e-05
4.08851e-05
4.12154e-05
3.82117e-05
3.62786e-05
3.30079e-05
2.33806e-05
1.20698e-05
2.83636e-06
1.15962e-07
4.4631e-14
2.33802e-12
6.89721e-05
8.32667e-16
6.18949e-13
1
0.999928
4.60919e-05
4.57721e-05
4.50251e-05
4.37982e-05
4.36239e-05
4.42058e-05
4.57961e-05
4.71114e-05
4.54047e-05
4.45447e-05
4.39117e-05
4.42713e-05
4.43181e-05
4.47374e-05
4.39711e-05
4.51536e-05
4.17291e-05
4.09582e-05
4.34269e-05
4.28241e-05
4.00307e-05
3.98238e-05
3.97677e-05
3.65735e-05
3.33512e-05
2.76427e-05
1.73039e-05
6.81416e-06
1.12759e-06
3.24988e-09
1.66533e-16
3.8833e-08
8.44978e-06
1.11022e-16
1.1693e-09
1
0.83562
4.52572e-05
4.60358e-05
4.54471e-05
4.49822e-05
4.37494e-05
4.35692e-05
4.41702e-05
4.57315e-05
4.66651e-05
4.52534e-05
4.46372e-05
4.40358e-05
4.40766e-05
4.37524e-05
4.43807e-05
4.39616e-05
4.50621e-05
4.10505e-05
4.02527e-05
4.27646e-05
4.21683e-05
3.92769e-05
3.85985e-05
3.80169e-05
3.45385e-05
2.98586e-05
2.18756e-05
1.14705e-05
3.28695e-06
3.13906e-07
8.83205e-12
3.44169e-15
0.00031777
4.73714e-06
1.66533e-16
7.66019e-07
1
0.0594728
4.39102e-05
4.56631e-05
4.61048e-05
4.56016e-05
4.49656e-05
4.37072e-05
4.35096e-05
4.41544e-05
4.55997e-05
4.62504e-05
4.50807e-05
4.47584e-05
4.41694e-05
4.3833e-05
4.3157e-05
4.39841e-05
4.38801e-05
4.49537e-05
4.04236e-05
3.9513e-05
4.19233e-05
4.13769e-05
3.84539e-05
3.71944e-05
3.58911e-05
3.20044e-05
2.57898e-05
1.60896e-05
6.55405e-06
1.36119e-06
2.18143e-08
4.05231e-15
3.35647e-11
0.00151055
2.14802e-07
2.22045e-16
0.000479397
1
0.00549174
4.36075e-05
4.41505e-05
4.59419e-05
4.63062e-05
4.57732e-05
4.49535e-05
4.36762e-05
4.34711e-05
4.41903e-05
4.53928e-05
4.58222e-05
4.48907e-05
4.48866e-05
4.42944e-05
4.35569e-05
4.25573e-05
4.35403e-05
4.37061e-05
4.47028e-05
3.98578e-05
3.87343e-05
4.08923e-05
4.04352e-05
3.7512e-05
3.55579e-05
3.33816e-05
2.89064e-05
2.11979e-05
1.07404e-05
3.1565e-06
4.80226e-07
3.05947e-10
5.55112e-17
6.62383e-08
0.000149569
1.50862e-09
2.22045e-16
0.00940057
1
0.00120851
4.49203e-05
4.38183e-05
4.41614e-05
4.57963e-05
4.67846e-05
4.58173e-05
4.49126e-05
4.36319e-05
4.35054e-05
4.42474e-05
4.51324e-05
4.53553e-05
4.4677e-05
4.50131e-05
4.43893e-05
4.32484e-05
4.19685e-05
4.30503e-05
4.34086e-05
4.43838e-05
3.93489e-05
3.79167e-05
3.96749e-05
3.93063e-05
3.6408e-05
3.3671e-05
3.04399e-05
2.51884e-05
1.63042e-05
6.3435e-06
1.31306e-06
6.83876e-08
4.81504e-13
4.724e-14
0.00015437
0.000185198
2.31497e-11
1.78191e-14
0.219667
1
0.000485806
4.78394e-05
4.49097e-05
4.37725e-05
4.40639e-05
4.52066e-05
4.70737e-05
4.5803e-05
4.48434e-05
4.36297e-05
4.35582e-05
4.4317e-05
4.48338e-05
4.48335e-05
4.44417e-05
4.51235e-05
4.4407e-05
4.29349e-05
4.14006e-05
4.25091e-05
4.29758e-05
4.39764e-05
3.88881e-05
3.70557e-05
3.82773e-05
3.79618e-05
3.507e-05
3.14863e-05
2.70578e-05
2.08586e-05
1.14395e-05
3.24199e-06
5.07296e-07
2.34087e-09
6.66134e-16
2.49916e-09
0.00204658
4.31635e-05
5.0826e-13
6.9989e-12
0.988783
1
0.000257117
4.92619e-05
4.73228e-05
4.48127e-05
4.36426e-05
4.39706e-05
4.48127e-05
4.64345e-05
4.57034e-05
4.4769e-05
4.36281e-05
4.36145e-05
4.4409e-05
4.44868e-05
4.42722e-05
4.41829e-05
4.52041e-05
4.44202e-05
4.25803e-05
4.08571e-05
4.19152e-05
4.23878e-05
4.34516e-05
3.84586e-05
3.61346e-05
3.67046e-05
3.63548e-05
3.34358e-05
2.89458e-05
2.32624e-05
1.61125e-05
7.1284e-06
1.46115e-06
1.1893e-07
1.22997e-11
1.55431e-15
1.26479e-06
0.000174323
8.31845e-06
1.63758e-14
4.46792e-09
0.99985
1
0.000158924
4.69318e-05
4.85822e-05
4.71403e-05
4.47442e-05
4.35584e-05
4.38542e-05
4.46542e-05
4.53962e-05
4.55416e-05
4.46672e-05
4.36222e-05
4.36999e-05
4.45012e-05
4.4103e-05
4.36846e-05
4.3893e-05
4.52301e-05
4.44069e-05
4.22478e-05
4.03513e-05
4.12667e-05
4.16389e-05
4.28086e-05
3.80334e-05
3.51639e-05
3.49775e-05
3.44512e-05
3.14137e-05
2.60266e-05
1.91157e-05
1.13044e-05
3.80481e-06
6.11639e-07
8.76848e-09
1.57097e-14
2.83943e-11
0.00037876
0.000189537
3.13131e-06
1.22125e-15
7.97838e-06
1
0.99999
0.000107702
4.29269e-05
4.66672e-05
4.83882e-05
4.71337e-05
4.47121e-05
4.34769e-05
4.37326e-05
4.44551e-05
4.54239e-05
4.53542e-05
4.4547e-05
4.36349e-05
4.37949e-05
4.45839e-05
4.36962e-05
4.3092e-05
4.35676e-05
4.51732e-05
4.42687e-05
4.19712e-05
3.98825e-05
4.0565e-05
4.07303e-05
4.20297e-05
3.75845e-05
3.41179e-05
3.31103e-05
3.22169e-05
2.89371e-05
2.27007e-05
1.47723e-05
7.00746e-06
1.75893e-06
1.84131e-07
1.18037e-10
1.16573e-15
2.99599e-07
0.000966802
9.89486e-05
2.00036e-07
1.33227e-15
7.34441e-05
1
0.978534
7.83712e-05
3.91408e-05
4.34653e-05
4.65863e-05
4.84166e-05
4.71682e-05
4.47087e-05
4.33916e-05
4.36189e-05
4.43606e-05
4.57282e-05
4.51572e-05
4.44137e-05
4.36439e-05
4.39013e-05
4.46515e-05
4.32539e-05
4.25175e-05
4.32025e-05
4.50108e-05
4.40628e-05
4.16788e-05
3.94487e-05
3.98195e-05
3.96824e-05
4.10913e-05
3.70811e-05
3.29763e-05
3.11241e-05
2.96259e-05
2.59339e-05
1.8963e-05
1.05232e-05
3.71116e-06
7.17522e-07
2.15477e-08
3.29958e-13
9.78773e-13
3.2572e-05
0.000229096
5.0865e-05
1.92731e-09
1.27287e-13
0.00171588
1
0.0835679
6.28681e-05
3.90481e-05
4.02073e-05
4.36382e-05
4.65663e-05
4.84166e-05
4.72551e-05
4.47149e-05
4.3293e-05
4.35042e-05
4.4311e-05
4.55952e-05
4.49465e-05
4.42636e-05
4.36492e-05
4.40124e-05
4.46843e-05
4.28246e-05
4.19688e-05
4.27955e-05
4.47242e-05
4.37844e-05
4.14068e-05
3.90555e-05
3.90443e-05
3.85113e-05
3.99809e-05
3.645e-05
3.17329e-05
2.90044e-05
2.66761e-05
2.23971e-05
1.49241e-05
6.7323e-06
1.70446e-06
2.19868e-07
4.98911e-10
4.88498e-15
3.06025e-08
0.000203716
0.000328522
4.33316e-05
6.39666e-12
3.50436e-11
0.176117
1
0.00312836
5.47647e-05
4.17306e-05
4.00836e-05
4.04775e-05
4.35888e-05
4.65282e-05
4.84512e-05
4.73712e-05
4.47233e-05
4.32001e-05
4.33773e-05
4.42587e-05
4.54312e-05
4.47206e-05
4.40982e-05
4.3635e-05
4.41112e-05
4.46643e-05
4.24231e-05
4.14595e-05
4.23472e-05
4.43036e-05
4.34163e-05
4.1155e-05
3.87062e-05
3.82432e-05
3.72209e-05
3.86752e-05
3.564e-05
3.03405e-05
2.67396e-05
2.33791e-05
1.83781e-05
1.07981e-05
3.77764e-06
6.9737e-07
2.77297e-08
2.67247e-12
2.1938e-13
8.55354e-06
0.000214678
0.000270432
3.03817e-05
1.75693e-13
1.19902e-08
0.986296
1
0.000564256
5.05788e-05
5.04396e-05
4.23154e-05
4.03225e-05
4.03403e-05
4.35262e-05
4.64471e-05
4.85093e-05
4.74834e-05
4.47308e-05
4.30925e-05
4.32469e-05
4.42128e-05
4.52209e-05
4.44824e-05
4.39152e-05
4.35925e-05
4.41705e-05
4.46188e-05
4.20329e-05
4.09955e-05
4.18584e-05
4.37527e-05
4.29642e-05
4.09233e-05
3.8386e-05
3.7403e-05
3.58377e-05
3.71368e-05
3.45576e-05
2.87464e-05
2.43077e-05
1.98035e-05
1.40792e-05
6.99005e-06
1.86953e-06
2.27533e-07
8.24012e-10
2.23155e-14
5.41932e-09
5.79545e-05
0.000220173
0.000151398
3.62719e-06
2.76446e-14
1.12587e-05
1
0.999994
0.000195592
4.79185e-05
5.82292e-05
4.92756e-05
4.24347e-05
4.017e-05
4.0278e-05
4.34023e-05
4.6398e-05
4.85967e-05
4.75644e-05
4.47228e-05
4.29684e-05
4.31234e-05
4.41503e-05
4.49968e-05
4.42316e-05
4.371e-05
4.35077e-05
4.41695e-05
4.45699e-05
4.16786e-05
4.0582e-05
4.13339e-05
4.30627e-05
4.2409e-05
4.06822e-05
3.80603e-05
3.6532e-05
3.433e-05
3.53498e-05
3.31602e-05
2.69171e-05
2.16716e-05
1.6051e-05
9.84388e-06
3.92297e-06
8.33469e-07
3.48604e-08
9.40714e-12
1.09412e-13
4.31783e-06
8.86944e-05
0.000354974
3.70353e-05
8.10776e-08
1.48104e-13
0.00014117
1
0.953726
9.82512e-05
4.66215e-05
6.25118e-05
5.54914e-05
4.88617e-05
4.23364e-05
4.01017e-05
4.01672e-05
4.32468e-05
4.63773e-05
4.86853e-05
4.76302e-05
4.46842e-05
4.28399e-05
4.29973e-05
4.40807e-05
4.47698e-05
4.39698e-05
4.34847e-05
4.33727e-05
4.41069e-05
4.44713e-05
4.13668e-05
4.02259e-05
4.07803e-05
4.22378e-05
4.17333e-05
4.03821e-05
3.76917e-05
3.56425e-05
3.27145e-05
3.33231e-05
3.13378e-05
2.47686e-05
1.87853e-05
1.22726e-05
6.14642e-06
1.91696e-06
2.94076e-07
1.39399e-09
1.00475e-13
1.25878e-09
2.64157e-05
9.01548e-05
0.000240768
3.82617e-05
2.72659e-10
3.03925e-11
0.00954815
1
0.0283945
6.58683e-05
4.59815e-05
5.76353e-05
5.87872e-05
5.46769e-05
4.88504e-05
4.22819e-05
3.99942e-05
4.00297e-05
4.3091e-05
4.63549e-05
4.87249e-05
4.76491e-05
4.45992e-05
4.27014e-05
4.28767e-05
4.39966e-05
4.45503e-05
4.36991e-05
4.32292e-05
4.31775e-05
4.39781e-05
4.43314e-05
4.1111e-05
3.994e-05
4.02022e-05
4.12966e-05
4.09272e-05
3.99675e-05
3.72571e-05
3.47369e-05
3.098e-05
3.10362e-05
2.90118e-05
2.22239e-05
1.56384e-05
8.68455e-06
3.35381e-06
8.22754e-07
4.74442e-08
3.28988e-11
2.35589e-13
2.41083e-06
5.86152e-05
0.000174316
0.000267313
4.90606e-05
4.34347e-12
1.68407e-08
0.948666
1
0.000900026
5.41084e-05
4.5638e-05
4.39425e-05
5.5046e-05
5.76726e-05
5.48077e-05
4.88543e-05
4.22216e-05
3.98667e-05
3.98739e-05
4.29681e-05
4.63804e-05
4.87283e-05
4.76194e-05
4.44827e-05
4.25601e-05
4.27554e-05
4.38979e-05
4.43423e-05
4.34209e-05
4.29428e-05
4.29143e-05
4.37707e-05
4.41853e-05
4.09185e-05
3.97229e-05
3.9596e-05
4.02576e-05
3.99828e-05
3.94038e-05
3.66947e-05
3.37581e-05
2.91479e-05
2.85134e-05
2.6177e-05
1.92203e-05
1.22951e-05
5.58941e-06
1.62749e-06
2.68467e-07
1.81353e-09
6.54921e-13
1.45567e-09
3.68436e-05
0.000105136
0.000206082
0.000137521
1.50018e-05
3.80973e-13
7.75909e-06
0.999999
0.99999
0.000191098
4.89884e-05
4.54944e-05
3.65231e-05
4.54076e-05
5.42368e-05
5.78006e-05
5.48492e-05
4.89454e-05
4.21556e-05
3.97194e-05
3.97388e-05
4.28834e-05
4.64101e-05
4.87245e-05
4.75499e-05
4.43401e-05
4.24085e-05
4.26364e-05
4.37929e-05
4.41516e-05
4.31361e-05
4.26233e-05
4.25836e-05
4.34975e-05
4.40042e-05
4.0778e-05
3.95532e-05
3.89689e-05
3.91457e-05
3.888e-05
3.86082e-05
3.59721e-05
3.26752e-05
2.72425e-05
2.57562e-05
2.28158e-05
1.57838e-05
8.90178e-06
3.21807e-06
7.18808e-07
3.99515e-08
3.86717e-11
7.64666e-13
3.12887e-06
8.80881e-05
9.81957e-05
0.00019966
4.66848e-05
3.01844e-08
2.09288e-12
0.000172339
1
0.834354
8.63452e-05
4.68284e-05
4.54341e-05
3.05271e-05
3.82613e-05
4.63284e-05
5.42684e-05
5.78006e-05
5.49807e-05
4.90287e-05
4.20728e-05
3.95758e-05
3.96185e-05
4.2842e-05
4.64281e-05
4.86799e-05
4.74281e-05
4.41757e-05
4.22458e-05
4.25232e-05
4.36873e-05
4.39799e-05
4.28473e-05
4.22679e-05
4.21923e-05
4.31569e-05
4.37863e-05
4.06657e-05
3.9414e-05
3.83213e-05
3.79717e-05
3.76269e-05
3.75411e-05
3.49907e-05
3.14111e-05
2.52334e-05
2.2802e-05
1.901e-05
1.20162e-05
5.7849e-06
1.68988e-06
2.38398e-07
1.59344e-09
1.18211e-12
1.67615e-09
3.72691e-05
6.23135e-05
9.63875e-05
0.000278636
2.52457e-05
7.45189e-10
5.53332e-10
0.0739002
1
0.00692722
5.8899e-05
4.59277e-05
4.54102e-05
2.78491e-05
3.31324e-05
3.88733e-05
4.64025e-05
5.42624e-05
5.79275e-05
5.51128e-05
4.90501e-05
4.19888e-05
3.94454e-05
3.95276e-05
4.28451e-05
4.64354e-05
4.85928e-05
4.7281e-05
4.39826e-05
4.20763e-05
4.24122e-05
4.35983e-05
4.38249e-05
4.25551e-05
4.18832e-05
4.17381e-05
4.27418e-05
4.34995e-05
4.05565e-05
3.92938e-05
3.76711e-05
3.67748e-05
3.62213e-05
3.61615e-05
3.36676e-05
2.99446e-05
2.30994e-05
1.96631e-05
1.49498e-05
8.28611e-06
3.28342e-06
8.1136e-07
3.74987e-08
3.89647e-11
2.18503e-12
2.15122e-06
3.22018e-05
3.77009e-05
0.000150108
0.000249111
7.66937e-05
1.69083e-11
3.47384e-07
0.9991
1
0.000324399
5.01436e-05
4.55809e-05
4.54017e-05
2.83115e-05
3.07917e-05
3.40664e-05
3.88218e-05
4.59471e-05
5.43363e-05
5.8044e-05
5.52439e-05
4.89959e-05
4.19008e-05
3.93321e-05
3.94946e-05
4.28787e-05
4.64292e-05
4.84702e-05
4.70953e-05
4.37599e-05
4.18933e-05
4.23092e-05
4.3532e-05
4.36906e-05
4.22683e-05
4.14768e-05
4.12259e-05
4.22404e-05
4.31207e-05
4.04247e-05
3.91767e-05
3.70146e-05
3.5579e-05
3.46928e-05
3.44439e-05
3.19411e-05
2.82042e-05
2.07808e-05
1.6369e-05
1.08971e-05
5.01617e-06
1.66268e-06
2.68823e-07
1.81786e-09
2.12019e-12
3.6405e-09
2.07611e-05
3.08895e-05
5.20696e-05
0.000232881
0.000146981
1.04681e-05
5.06284e-12
5.07795e-05
1
0.986095
9.94113e-05
4.69988e-05
4.54566e-05
4.53989e-05
3.41286e-05
3.12231e-05
3.18512e-05
3.40099e-05
3.86652e-05
4.53323e-05
5.44082e-05
5.81539e-05
5.53266e-05
4.88318e-05
4.18046e-05
3.92529e-05
3.95266e-05
4.29305e-05
4.64072e-05
4.82838e-05
4.68665e-05
4.35073e-05
4.17073e-05
4.22098e-05
4.34996e-05
4.35796e-05
4.19959e-05
4.10521e-05
4.06524e-05
4.16434e-05
4.26289e-05
4.02292e-05
3.90266e-05
3.63474e-05
3.43714e-05
3.30226e-05
3.23742e-05
2.97923e-05
2.60895e-05
1.82249e-05
1.30074e-05
7.26126e-06
2.68623e-06
7.44375e-07
3.75479e-08
5.17409e-11
1.17339e-11
3.80697e-06
3.81141e-05
4.90297e-05
9.49153e-05
0.000184243
3.08984e-05
3.26177e-09
2.63553e-10
0.000849247
1
0.0200439
5.95391e-05
4.59016e-05
4.54149e-05
4.53981e-05
4.43808e-05
3.62675e-05
3.22536e-05
3.18047e-05
3.38663e-05
3.84633e-05
4.4483e-05
5.44921e-05
5.82453e-05
5.53017e-05
4.85422e-05
4.16965e-05
3.92224e-05
3.96219e-05
4.29875e-05
4.63624e-05
4.80041e-05
4.65958e-05
4.32259e-05
4.15135e-05
4.21235e-05
4.35014e-05
4.34869e-05
4.17338e-05
4.0605e-05
4.00223e-05
4.09467e-05
4.19951e-05
3.99484e-05
3.88155e-05
3.56553e-05
3.3169e-05
3.12202e-05
2.9957e-05
2.72039e-05
2.35163e-05
1.5398e-05
9.69999e-06
4.35469e-06
1.2726e-06
2.1625e-07
1.83366e-09
4.22046e-12
2.3827e-08
3.72079e-05
5.78268e-05
7.93625e-05
0.00011201
0.000149291
5.12586e-06
1.41896e-10
1.34359e-07
0.995654
1
0.000335156
4.95776e-05
4.55442e-05
4.54024e-05
4.53979e-05
5.53994e-05
4.46644e-05
3.70353e-05
3.22203e-05
3.1671e-05
3.36741e-05
3.8308e-05
4.38473e-05
5.45451e-05
5.8223e-05
5.51025e-05
4.82415e-05
4.15903e-05
3.92408e-05
3.97712e-05
4.30476e-05
4.62895e-05
4.77094e-05
4.62716e-05
4.2922e-05
4.13221e-05
4.20552e-05
4.35164e-05
4.33958e-05
4.1472e-05
4.01401e-05
3.93458e-05
4.0149e-05
4.12149e-05
3.95178e-05
3.85136e-05
3.49301e-05
3.19486e-05
2.92703e-05
2.72769e-05
2.41669e-05
2.0385e-05
1.23065e-05
6.66269e-06
2.39579e-06
5.28897e-07
2.44259e-08
4.0026e-11
5.53366e-11
7.64175e-06
4.72625e-05
6.00976e-05
8.43174e-05
0.000199986
0.000164755
8.57975e-06
5.74508e-11
9.00557e-05
1
0.976216
8.95535e-05
4.6573e-05
4.54372e-05
4.5399e-05
4.53979e-05
6.60941e-05
5.27491e-05
4.48102e-05
3.70404e-05
3.21254e-05
3.14843e-05
3.3514e-05
3.82198e-05
4.3957e-05
5.4533e-05
5.80011e-05
5.47083e-05
4.79071e-05
4.14897e-05
3.93082e-05
3.99716e-05
4.31104e-05
4.61836e-05
4.73526e-05
4.58864e-05
4.26085e-05
4.11532e-05
4.19973e-05
4.35232e-05
4.33013e-05
4.12062e-05
3.96663e-05
3.86336e-05
3.92408e-05
4.02469e-05
3.89088e-05
3.80349e-05
3.41287e-05
3.06918e-05
2.71959e-05
2.44034e-05
2.07504e-05
1.67323e-05
9.09649e-06
4.10902e-06
1.21124e-06
1.34713e-07
1.41695e-09
4.68597e-12
8.04087e-08
2.83581e-05
3.74336e-05
4.37352e-05
6.88451e-05
0.000316038
0.000170444
1.07211e-07
1.04245e-09
0.00475783
1
0.00866
5.52942e-05
4.57162e-05
4.54074e-05
4.53981e-05
4.53979e-05
7.31486e-05
6.04745e-05
5.17109e-05
4.48684e-05
3.69672e-05
3.1957e-05
3.13423e-05
3.34395e-05
3.82428e-05
4.44742e-05
5.44099e-05
5.75788e-05
5.41119e-05
4.74573e-05
4.14034e-05
3.94181e-05
4.02107e-05
4.31862e-05
4.6044e-05
4.69447e-05
4.54389e-05
4.22989e-05
4.09991e-05
4.19312e-05
4.35045e-05
4.31774e-05
4.0937e-05
3.91923e-05
3.78895e-05
3.82364e-05
3.90991e-05
3.80592e-05
3.73265e-05
3.31847e-05
2.93105e-05
2.50218e-05
2.1391e-05
1.70519e-05
1.27091e-05
6.03285e-06
2.32459e-06
4.9695e-07
1.4677e-08
3.9065e-11
2.22572e-10
7.71237e-06
2.64906e-05
2.65287e-05
2.77023e-05
6.36218e-05
0.000170382
1.77017e-05
2.75628e-10
1.93689e-07
0.991184
0.999992
0.000200854
4.79849e-05
4.54757e-05
4.53999e-05
4.53979e-05
4.53979e-05
7.49442e-05
6.53417e-05
5.84864e-05
5.1711e-05
4.49169e-05
3.68114e-05
3.18223e-05
3.12751e-05
3.35121e-05
3.83875e-05
4.50137e-05
5.41488e-05
5.69434e-05
5.33614e-05
4.69951e-05
4.13312e-05
3.95673e-05
4.04777e-05
4.32831e-05
4.58655e-05
4.64922e-05
4.49336e-05
4.19933e-05
4.08411e-05
4.18448e-05
4.34352e-05
4.29922e-05
4.06578e-05
3.87335e-05
3.71416e-05
3.71398e-05
3.77878e-05
3.69337e-05
3.6295e-05
3.19915e-05
2.77691e-05
2.27422e-05
1.82995e-05
1.32654e-05
8.8312e-06
3.5541e-06
1.15888e-06
1.04017e-07
1.18117e-09
9.85523e-12
3.05818e-07
2.4369e-05
2.62368e-05
2.85219e-05
3.52444e-05
6.94655e-05
7.08059e-05
6.17897e-07
1.95476e-10
0.00013089
1
0.59013
6.95429e-05
4.60183e-05
4.54149e-05
4.53983e-05
4.53979e-05
4.53979e-05
6.80025e-05
6.6515e-05
6.26077e-05
5.85217e-05
5.18872e-05
4.49063e-05
3.66624e-05
3.17549e-05
3.13501e-05
3.37496e-05
3.86386e-05
4.54401e-05
5.37395e-05
5.61276e-05
5.2477e-05
4.6529e-05
4.12773e-05
3.97494e-05
4.07493e-05
4.34066e-05
4.56408e-05
4.59838e-05
4.43802e-05
4.16861e-05
4.06732e-05
4.17275e-05
4.32859e-05
4.28095e-05
4.0372e-05
3.82831e-05
3.63856e-05
3.59519e-05
3.62918e-05
3.54962e-05
3.48567e-05
3.04838e-05
2.60173e-05
2.0321e-05
1.51544e-05
9.61168e-06
5.45001e-06
1.85611e-06
4.24937e-07
7.44738e-09
8.07845e-11
1.87989e-09
1.76064e-05
4.18844e-05
4.13494e-05
4.92539e-05
5.66434e-05
0.000189242
5.72022e-05
5.97043e-08
1.87581e-08
0.134793
1
0.00119485
5.04588e-05
4.55349e-05
4.54012e-05
4.53979e-05
4.53979e-05
4.53979e-05
5.96995e-05
6.15135e-05
6.35448e-05
6.26795e-05
5.87281e-05
5.23014e-05
4.48248e-05
3.65381e-05
3.18213e-05
3.16062e-05
3.41212e-05
3.89939e-05
4.56732e-05
5.31945e-05
5.51408e-05
5.15356e-05
4.59883e-05
4.12399e-05
3.99521e-05
4.10289e-05
4.35393e-05
4.53637e-05
4.54277e-05
4.37954e-05
4.13705e-05
4.04891e-05
4.15673e-05
4.30646e-05
4.25718e-05
4.00568e-05
3.7841e-05
3.56254e-05
3.47063e-05
3.46498e-05
3.37648e-05
3.29461e-05
2.85885e-05
2.39487e-05
1.77242e-05
1.20195e-05
6.40864e-06
3.08644e-06
8.57006e-07
6.85394e-08
4.30702e-10
7.74222e-11
1.92213e-06
5.52435e-05
6.39345e-05
6.21538e-05
7.49307e-05
0.000169978
0.000352137
5.88032e-05
2.80684e-09
1.48631e-05
0.999908
0.998056
0.000102453
4.64829e-05
4.54249e-05
4.53984e-05
4.53979e-05
4.53979e-05
4.53979e-05
5.13824e-05
5.55086e-05
5.90796e-05
6.36752e-05
6.29442e-05
5.92621e-05
5.26997e-05
4.47318e-05
3.64902e-05
3.20552e-05
3.20055e-05
3.46372e-05
3.945e-05
4.57981e-05
5.25573e-05
5.39669e-05
5.06698e-05
4.5379e-05
4.12247e-05
4.01736e-05
4.13582e-05
4.3651e-05
4.50343e-05
4.48224e-05
4.31944e-05
4.10546e-05
4.02797e-05
4.13501e-05
4.27511e-05
4.22041e-05
3.97076e-05
3.74395e-05
3.48809e-05
3.34548e-05
3.28907e-05
3.16981e-05
3.05537e-05
2.62323e-05
2.14764e-05
1.4905e-05
8.99767e-06
3.87891e-06
1.56109e-06
2.59032e-07
5.07497e-09
6.04589e-11
1.83298e-08
3.32343e-05
5.94347e-05
5.70346e-05
5.75442e-05
7.49034e-05
0.000224275
0.000140571
6.39067e-06
1.68585e-09
0.000711222
1
0.0189943
5.44708e-05
4.56144e-05
4.54027e-05
4.5398e-05
4.53979e-05
4.53979e-05
4.53979e-05
4.39703e-05
4.92737e-05
5.38176e-05
5.9195e-05
6.40354e-05
6.36122e-05
5.96898e-05
5.28907e-05
4.46292e-05
3.65535e-05
3.24375e-05
3.25739e-05
3.53153e-05
3.99951e-05
4.58894e-05
5.18199e-05
5.27047e-05
4.957e-05
4.47608e-05
4.12273e-05
4.04187e-05
4.17264e-05
4.37542e-05
4.46496e-05
4.41699e-05
4.25923e-05
4.0735e-05
4.00365e-05
4.10588e-05
4.23154e-05
4.17355e-05
3.93058e-05
3.70323e-05
3.41331e-05
3.21566e-05
3.1023e-05
2.93292e-05
2.77193e-05
2.33956e-05
1.85139e-05
1.18214e-05
6.25488e-06
2.19246e-06
6.37678e-07
3.69285e-08
2.26636e-10
3.99646e-10
4.39588e-06
4.13779e-05
4.0496e-05
3.48673e-05
3.63525e-05
4.2396e-05
9.30159e-05
1.78166e-05
8.72634e-09
1.52715e-07
0.938586
0.999962
0.000183771
4.7166e-05
4.54369e-05
4.53986e-05
4.53979e-05
4.53979e-05
4.53979e-05
4.53979e-05
3.97273e-05
4.41162e-05
4.81243e-05
5.38482e-05
5.95908e-05
6.48355e-05
6.41337e-05
5.98415e-05
5.28298e-05
4.45149e-05
3.67074e-05
3.29738e-05
3.33216e-05
3.61258e-05
4.06216e-05
4.59929e-05
5.1023e-05
5.155e-05
4.83475e-05
4.41311e-05
4.12533e-05
4.06889e-05
4.2088e-05
4.38189e-05
4.42204e-05
4.35119e-05
4.20132e-05
4.04181e-05
3.9759e-05
4.06774e-05
4.17108e-05
4.11459e-05
3.88387e-05
3.66298e-05
3.3395e-05
3.08536e-05
2.90706e-05
2.67211e-05
2.45228e-05
2.00475e-05
1.50564e-05
8.7198e-06
4.02587e-06
1.15119e-06
1.40652e-07
3.82027e-09
4.95261e-11
1.58821e-07
2.2363e-05
2.79031e-05
2.66262e-05
2.47446e-05
2.13e-05
3.24281e-05
6.12254e-05
5.55066e-06
3.87489e-09
0.00011156
0.999999
0.277619
6.11044e-05
4.57119e-05
4.54041e-05
4.5398e-05
4.53979e-05
4.53979e-05
4.53979e-05
4.53979e-05
3.68601e-05
4.1074e-05
4.40672e-05
4.77424e-05
5.41657e-05
6.03485e-05
6.54447e-05
6.4313e-05
5.96771e-05
5.25291e-05
4.44156e-05
3.69542e-05
3.36757e-05
3.42298e-05
3.70678e-05
4.13064e-05
4.61047e-05
5.0235e-05
5.01713e-05
4.73616e-05
4.35185e-05
4.13164e-05
4.09801e-05
4.24286e-05
4.38205e-05
4.37442e-05
4.28329e-05
4.14575e-05
4.00967e-05
3.94279e-05
4.01885e-05
4.09608e-05
4.03816e-05
3.82827e-05
3.6194e-05
3.26319e-05
2.95103e-05
2.7051e-05
2.39456e-05
2.1043e-05
1.63774e-05
1.13009e-05
5.68958e-06
2.38529e-06
4.86792e-07
1.28321e-08
3.4143e-10
2.64673e-09
9.99932e-06
2.52577e-05
2.76882e-05
2.64151e-05
2.68546e-05
3.66882e-05
0.000120771
0.000101112
7.60239e-07
8.03711e-08
0.300174
0.999992
0.000443673
4.79705e-05
4.54488e-05
4.53987e-05
4.53979e-05
4.53979e-05
4.53979e-05
4.53979e-05
4.53979e-05
3.50941e-05
3.89618e-05
4.15952e-05
4.3937e-05
4.77357e-05
5.47622e-05
6.0959e-05
6.55999e-05
6.40921e-05
5.91365e-05
5.19962e-05
4.43214e-05
3.73313e-05
3.45285e-05
3.52894e-05
3.81116e-05
4.20355e-05
4.61109e-05
4.92376e-05
4.86529e-05
4.64067e-05
4.29848e-05
4.14166e-05
4.12744e-05
4.27213e-05
4.37394e-05
4.32294e-05
4.21134e-05
4.09028e-05
3.97688e-05
3.9046e-05
3.95687e-05
4.00299e-05
3.9421e-05
3.75734e-05
3.56806e-05
3.17848e-05
2.81002e-05
2.49811e-05
2.10642e-05
1.74165e-05
1.24345e-05
7.65824e-06
3.45436e-06
1.17952e-06
1.02093e-07
1.08352e-09
3.03559e-10
1.58166e-06
3.21163e-05
3.44384e-05
4.11958e-05
4.42236e-05
5.60088e-05
0.000115369
0.000302714
0.000109665
1.51717e-08
4.13936e-05
0.999949
0.86044
7.00104e-05
4.58078e-05
4.54051e-05
4.5398e-05
4.53979e-05
4.53979e-05
4.53979e-05
4.53979e-05
4.53979e-05
3.44843e-05
3.77238e-05
3.97963e-05
4.14508e-05
4.38557e-05
4.82631e-05
5.52952e-05
6.12226e-05
6.52907e-05
6.3407e-05
5.82061e-05
5.12896e-05
4.42322e-05
3.78198e-05
3.5547e-05
3.64846e-05
3.92436e-05
4.27571e-05
4.59856e-05
4.8169e-05
4.74637e-05
4.54228e-05
4.25491e-05
4.15259e-05
4.15546e-05
4.29362e-05
4.35785e-05
4.26419e-05
4.13929e-05
4.03685e-05
3.94406e-05
3.8595e-05
3.88176e-05
3.89264e-05