/*--------------------------------*- C++ -*----------------------------------*\
| =========                 |                                                 |
| \\      /  F ield         | OpenFOAM: The Open Source CFD Toolbox           |
|  \\    /   O peration     | Version:  v2012                                 |
|   \\  /    A nd           | Website:  www.openfoam.com                      |
|    \\/     M anipulation  |                                                 |
\*---------------------------------------------------------------------------*/
FoamFile
{
    version     2.0;
    format      ascii;
    class       volScalarField;
    location    "13200";
    object      I1_4;
}
// * * * * * * * * * * * * * * * * * * * * * * * * * * * * * * * * * * * * * //

dimensions      [0 0 0 0 0 0 0];


internalField   nonuniform List<scalar> 
39402
(
-1.36584e-05
-0.065304
-5.8176e-05
-16.4574
-0.00371619
-0.000204415
-50211.9
-0.834465
-0.00168941
-0.000261383
-62.3807
-0.552753
-0.0422689
-0.000785902
-0.000374518
-0.277586
-0.0178434
-0.0398572
-0.00812102
-0.00041518
-0.000640918
-5.39965
-0.00412874
-0.00230825
-0.00795328
-0.0027073
-0.000385029
-0.00141811
-0.131923
-0.0635187
-0.000722204
-0.000813106
-0.00251627
-0.00124886
-0.000481862
-0.00312213
-0.0107588
-0.0331062
-0.0137979
-0.00035577
-0.000319671
-0.00111655
-0.000703527
-0.000677693
-0.00752752
-0.00797978
-0.00186843
-0.029682
-0.00471148
-0.000248911
-0.00018676
-0.000686916
-0.000450942
-0.00107823
-0.0194124
-0.134231
-0.001651
-0.00100531
-0.0346925
-0.00215871
-0.000176421
-0.000127634
-0.00068067
-0.000324552
-0.00192692
-0.0549049
-0.000298622
-0.408117
-0.00114493
-0.000593527
-0.0506159
-0.00139922
-0.000103398
-8.34866e-05
-0.00162851
-0.00025468
-0.00400814
-0.192543
-0.00980425
-0.00204101
-0.0261743
-0.000590284
-0.000388586
-0.0614215
-0.00103585
-8.75776e-05
-9.6312e-05
-0.0171552
-0.000215925
-0.0093851
-0.579547
-0.0169058
-0.293921
-0.00247804
-0.00782677
-0.000289218
-0.000267077
-0.0449201
-0.00099638
-9.77715e-05
-0.000500354
-0.000421221
-0.000199978
-0.0226104
-0.561004
-0.00142172
-0.0132287
-0.00150252
-0.000343421
-0.00179044
-0.000241645
-0.00018655
-0.0151948
-0.0011843
-0.000119632
-0.0038512
-9.91884e-05
-0.000201968
-0.0427029
-0.355649
-0.0660973
-0.00761379
-0.000468128
-0.000401357
-0.0132556
-0.00120864
-0.000115581
-0.000159413
-0.00503671
-0.00254531
-0.000630313
-0.000268287
-6.91793e-05
-0.000230018
-0.0458092
-0.262615
-0.000969933
-0.00945968
-0.0363376
-0.000117198
-7.64948e-06
-0.00223581
-0.000832457
-6.18786e-05
-0.00010676
-0.0015874
-0.120457
-0.000198692
-0.000107442
-7.19927e-05
-0.00029312
-0.033773
-0.234111
-0.00212127
-0.000109971
-0.0010795
-0.00123419
-0.000259301
-3.69727e-06
-0.000472528
-0.000564092
-9.88862e-05
-8.80278e-05
-0.000665602
-0.00166128
-4.15963e-05
-1.23556e-05
-3.42171e-05
-0.000397226
-0.0243051
-0.212645
-0.137586
-0.0028452
-0.000385265
-1.61633e-05
-8.60221e-05
-0.000113144
-1.93837e-06
-0.000155519
-0.000398344
-0.000128092
-4.60218e-05
-0.000319661
-0.000214083
-2.0603e-05
-6.87244e-05
-2.44685e-05
-0.000626548
-0.0159932
-0.218388
-0.00483113
-1.806
-0.00648968
-1.12654e-05
-6.7063e-06
-0.000252704
-4.94589e-05
-1.63756e-05
-0.000142886
-0.000285152
-0.000108038
-2.65368e-05
-0.000142691
-6.33713e-05
-1.56912e-05
-5.98838e-05
-2.61049e-05
-0.0011064
-0.00953809
-0.147904
-0.000197169
-0.00123605
-0.013807
-0.000415908
-0.000337456
-5.44837e-05
-0.000339686
-2.75124e-05
-1.02661e-05
-0.000125808
-0.000209762
-9.03563e-05
-2.05144e-05
-5.71874e-05
-2.56261e-05
-3.32442e-06
-7.05241e-06
-2.01859e-05
-0.00219753
-0.00399942
-0.0581069
-0.00453642
-2.89199e-05
-0.000203159
-0.00222809
-0.000759741
-0.000173843
-0.000114144
-3.94185e-05
-1.45719e-05
-4.9302e-07
-0.000103359
-0.000123477
-5.82572e-05
-1.60598e-05
-2.41372e-05
-1.55167e-05
-4.75727e-05
-6.35039e-06
-2.15995e-05
-0.00510353
-0.000386987
-0.0471411
-0.00942497
-0.00270011
-1.03113e-05
-0.000276294
-0.00200046
-0.000920719
-9.97279e-05
-6.49421e-05
-1.77317e-05
-2.9666e-05
-3.52414e-07
-8.56698e-05
-9.4396e-05
-3.75068e-05
-1.50584e-05
-1.27781e-05
-1.11309e-05
-4.91561e-05
-1.00751e-05
-2.62747e-05
-0.0111284
-0.000867728
-0.0333908
-0.0178972
-0.00247888
-0.436505
-4.60422e-06
-0.000433583
-0.000749361
-0.000392158
-6.14974e-05
-3.96484e-05
-8.41156e-05
-1.82584e-05
-2.66684e-07
-6.93721e-05
-8.78158e-05
-3.01714e-05
-6.09351e-06
-7.94889e-06
-1.88784e-05
-8.93747e-06
-1.37032e-05
-2.9135e-05
-0.0249178
-0.00437183
-0.0295473
-0.00187669
-0.00795116
-0.00939624
-0.027802
-2.39045e-06
-0.000229981
-0.000699848
-0.000189432
-3.94636e-05
-5.5396e-05
-5.08812e-05
-1.172e-05
-1.41813e-06
-5.69514e-05
-5.68907e-05
-1.64638e-05
-4.14669e-06
-1.04506e-05
-2.3515e-05
-9.83411e-06
-1.46422e-05
-3.97362e-05
-0.0434651
-0.00602891
-0.0412754
-0.0590052
-0.000280165
-0.000142311
-0.0252522
-0.000387272
-1.41819e-06
-0.000284506
-0.000620811
-0.000100085
-2.62397e-05
-6.5566e-05
-2.99668e-05
-2.66207e-06
-3.71526e-06
-4.57574e-05
-3.64809e-05
-1.04149e-05
-2.97624e-06
-9.97705e-06
-1.85194e-05
-8.97923e-06
-1.88277e-05
-5.58285e-05
-0.061718
-0.00924451
-0.0443569
-0.00269376
-0.0438787
-0.000103883
-0.00048129
-0.209881
-0.000789278
-9.42815e-07
-0.000315194
-0.000343776
-5.7063e-05
-3.86115e-05
-4.42711e-05
-3.45782e-05
-5.306e-07
-5.46731e-06
-4.47289e-05
-2.85823e-05
-7.05677e-06
-2.68674e-06
-9.00321e-06
-1.42849e-05
-7.42627e-06
-2.28252e-05
-0.000127822
-0.0792533
-0.0143052
-0.0507659
-0.00517017
-0.000763489
-0.0056115
-4.5292e-05
-0.000818923
-0.0040585
-0.000299423
-6.65945e-07
-0.00020821
-0.000314322
-7.29774e-05
-2.80389e-05
-4.70738e-05
-2.27646e-05
-1.0746e-06
-1.48593e-05
-4.14629e-05
-2.19778e-05
-4.5309e-06
-3.39074e-06
-1.5074e-05
-1.47676e-05
-8.31443e-06
-2.62389e-05
-0.000314917
-0.0992607
-0.0382104
-0.0518873
-0.0377624
-0.0112178
-0.000739453
-0.000174464
-2.26734e-05
-0.00041069
-0.000762744
-0.000122864
-1.36997e-05
-0.000220457
-0.000285954
-4.8278e-05
-8.99821e-06
-4.81294e-05
-2.36874e-05
-2.39909e-06
-2.35494e-05
-3.24107e-05
-1.47808e-05
-4.45034e-06
-4.72401e-06
-1.26168e-05
-1.40819e-05
-1.23941e-05
-3.05228e-05
-0.00137598
-0.120138
-0.0688628
-0.0526871
-0.000929068
-0.0191959
-0.0124477
-0.00107472
-0.000862342
-1.30882e-05
-0.000231335
-0.000848366
-0.000213658
-1.0489e-05
-0.000301162
-0.000185374
-3.05963e-05
-6.54975e-06
-3.42283e-05
-2.3757e-05
-3.47345e-06
-2.46026e-05
-3.5418e-05
-1.11887e-05
-3.43439e-06
-6.69973e-06
-1.3724e-05
-9.75142e-06
-2.54293e-05
-1.76081e-05
-0.00350585
-0.142669
-0.0230599
-0.0544763
-0.00145616
-0.000146568
-0.00037271
-0.0286684
-0.0039559
-0.00158577
-8.47958e-06
-0.000314082
-0.000787896
-0.000115858
-3.47079e-07
-0.000217864
-0.000166089
-2.16437e-05
-4.79962e-06
-3.30728e-05
-2.22779e-05
-6.68095e-06
-2.41505e-05
-3.96561e-05
-1.09352e-05
-3.85115e-06
-9.26739e-06
-1.37916e-05
-7.98201e-06
-3.70865e-05
-3.15558e-06
-0.0146528
-0.165751
-0.116719
-0.0526861
-0.0316092
-0.00521811
-6.36415e-05
-0.00110992
-0.557269
-0.0143547
-0.00176615
-5.96187e-06
-0.000571894
-0.000408018
-6.85149e-05
-2.93422e-07
-0.000200639
-0.000150103
-6.94269e-06
-1.19437e-06
-3.15654e-05
-2.0752e-05
-1.19855e-05
-2.87994e-05
-2.94948e-05
-9.02027e-06
-5.49173e-06
-1.16264e-05
-1.26762e-05
-9.94363e-06
-0.000115944
-0.000134903
-0.0458486
-0.171343
-1.66071
-0.0488397
-0.00295399
-0.0115687
-6.9891e-05
-3.83611e-05
-0.00184156
-0.00572413
-0.00391591
-0.00100806
-4.42734e-06
-0.000556423
-0.000215264
-4.31292e-05
-2.60671e-07
-0.000190659
-0.00013224
-1.70109e-06
-7.02168e-07
-2.29935e-05
-1.84915e-05
-1.92005e-05
-3.1092e-05
-2.51659e-05
-8.63816e-06
-7.12184e-06
-1.4295e-05
-1.06006e-05
-1.80636e-05
-0.000170104
-0.000140902
-0.0329405
-0.154523
-0.245746
-0.041737
-0.0359528
-0.000605872
-0.000399582
-0.000861246
-0.000189439
-0.000919405
-0.00927991
-0.000881642
-0.000564468
-3.48384e-06
-0.000381463
-0.000228099
-2.82686e-05
-2.4272e-06
-0.0001107
-9.57506e-05
-9.53169e-07
-3.80813e-06
-2.10545e-05
-1.97134e-05
-2.42331e-05
-2.82799e-05
-2.26195e-05
-9.01683e-06
-8.45205e-06
-1.48547e-05
-9.96301e-06
-3.87535e-05
-0.000527135
-0.00025558
-0.0392541
-0.127289
-0.173129
-0.0332644
-0.661427
-0.00687933
-0.000389708
-0.000770855
-1.67759e-05
-0.000100581
-0.000514222
-0.00311488
-0.000283356
-0.000601102
-2.83019e-06
-0.000269336
-0.000142073
-6.58992e-06
-7.51945e-06
-0.000103348
-6.80192e-05
-2.30659e-06
-7.78483e-06
-1.91471e-05
-2.27278e-05
-2.68016e-05
-2.67904e-05
-1.94235e-05
-9.58913e-06
-1.0729e-05
-1.5403e-05
-1.10957e-05
-8.4466e-05
-1.021e-05
-0.0112078
-0.0594232
-0.0939844
-0.157302
-0.023927
-0.0191674
-0.0495572
-0.00071409
-0.000331222
-0.430005
-1.043e-05
-7.09855e-06
-0.000684853
-0.00126205
-0.000134946
-0.00037949
-2.37123e-06
-0.000261296
-9.20732e-05
-4.29763e-06
-5.69395e-06
-7.87669e-05
-6.1526e-05
-6.08768e-06
-1.132e-05
-1.39936e-05
-2.15053e-05
-2.95439e-05
-2.57324e-05
-1.63509e-05
-1.018e-05
-1.2506e-05
-1.18696e-05
-2.96333e-05
-0.000256815
-0.00232961
-0.0853759
-0.0811597
-0.0427871
-0.15264
-0.015645
-0.000625506
-0.00665668
-0.0659455
-0.00345547
-0.000362876
-0.0343977
-0.000145254
-5.08798e-06
-0.000784688
-0.00112757
-6.28501e-05
-0.000380481
-6.7535e-06
-0.00025133
-9.45828e-05
-9.91564e-07
-4.34915e-06
-5.81926e-05
-4.50341e-05
-1.80145e-05
-1.38563e-05
-1.23028e-05
-1.93532e-05
-3.19912e-05
-2.3559e-05
-1.273e-05
-1.02759e-05
-1.39626e-05
-1.15859e-05
-3.70745e-05
-0.00082095
-0.0445971
-0.023724
-0.110312
-0.00753631
-0.175752
-0.00708566
-0.259762
-6.96005e-05
-4.80867e-05
-0.0137147
-0.00400521
-0.000584146
-0.00360261
-9.92555e-05
-2.61695e-05
-0.000519576
-0.000623436
-0.000123736
-0.000373061
-5.79267e-06
-0.000185261
-9.46838e-05
-2.0219e-06
-7.18868e-06
-4.45101e-05
-3.33118e-05
-2.53066e-05
-1.81246e-05
-1.25679e-05
-2.06791e-05
-3.19137e-05
-2.15477e-05
-1.06988e-05
-1.03883e-05
-1.3321e-05
-1.25202e-05
-0.000179197
-2.22385e-05
-0.537087
-0.078338
-0.151014
-0.0285401
-0.15752
-0.00334645
-0.0119227
-0.0135889
-0.00373403
-2.6003e-05
-0.00395335
-0.00670589
-0.00234523
-0.00383061
-6.00984e-05
-2.12603e-05
-0.000353815
-0.000572009
-2.441e-05
-0.000185191
-4.08995e-06
-0.000172928
-8.91767e-05
-4.01725e-06
-9.93717e-06
-2.06924e-05
-2.47286e-05
-2.60281e-05
-2.38252e-05
-1.21718e-05
-2.06263e-05
-3.27766e-05
-2.12758e-05
-8.84982e-06
-1.03958e-05
-1.30827e-05
-3.91391e-05
-0.000476487
-0.000292555
-0.283131
-0.0697075
-0.154503
-0.0320775
-0.164692
-0.00269211
-0.00530506
-0.0024464
-0.013958
-0.00590166
-1.29484e-05
-0.00606759
-0.285247
-0.0122999
-0.00144957
-0.000159484
-1.44007e-05
-0.000380188
-0.000365732
-2.99785e-06
-8.48263e-05
-3.61796e-06
-0.000131709
-6.50256e-05
-1.80201e-05
-1.1632e-05
-1.53785e-05
-1.51033e-05
-3.2548e-05
-3.0106e-05
-1.13553e-05
-2.07854e-05
-3.1583e-05
-1.98147e-05
-7.49198e-06
-9.41501e-06
-1.13382e-05
-3.56666e-05
-0.000731232
-0.114155
-0.0763175
-0.0499795
-0.132356
-1.44694
-0.127144
-0.00253206
-0.8331
-0.000949038
-0.00164234
-0.00332866
-0.000534237
-0.000425818
-0.00262332
-0.0426433
-0.000456413
-0.000668937
-3.27513e-05
-4.38585e-05
-0.000393257
-0.000231729
-9.76051e-06
-6.14025e-05
-7.72181e-06
-7.77798e-05
-4.59803e-05
-1.93944e-05
-1.29235e-05
-1.19195e-05
-1.11137e-05
-4.0472e-05
-3.14699e-05
-1.13084e-05
-1.98778e-05
-2.869e-05
-1.76383e-05
-6.79946e-06
-7.40983e-06
-3.5144e-05
-0.000389925
-0.00266538
-1.39054
-0.0146987
-0.0605069
-0.0961447
-0.142858
-0.0918716
-0.00247314
-9.77931e-05
-0.304421
-0.000523461
-0.00145318
-8.95352e-05
-0.000291898
-0.000253855
-0.00128535
-0.00512431
-0.000122937
-0.000353289
-2.10197e-05
-3.38085e-05
-0.000283622
-0.000309048
-1.76959e-06
-2.71153e-05
-1.38275e-05
-4.54349e-05
-5.53711e-05
-2.50712e-05
-1.70311e-05
-6.77995e-06
-1.23154e-05
-4.16514e-05
-3.06832e-05
-1.26683e-05
-1.72433e-05
-2.6632e-05
-1.6493e-05
-6.79012e-06
-4.46362e-06
-3.65736e-05
-0.00117728
-0.0115356
-0.0143924
-0.0387301
-0.0804753
-0.0630891
-0.10122
-0.058521
-0.00246535
-8.5688e-05
-1.44789e-05
-0.00137839
-0.000364212
-0.00172175
-6.07579e-05
-1.50911e-06
-0.000139192
-0.000698627
-0.0015649
-5.26126e-05
-0.000434508
-5.87168e-05
-2.61446e-05
-0.000279466
-0.000217804
-1.26091e-05
-3.83671e-06
-4.97063e-06
-3.36769e-05
-4.15031e-05
-4.2321e-05
-2.05229e-05
-5.19077e-06
-9.35699e-06
-4.0794e-05
-3.24366e-05
-1.39488e-05
-1.58671e-05
-2.31947e-05
-1.57843e-05
-6.62918e-06
-1.64766e-05
-0.000230959
-0.000419136
-0.0800254
-0.0453032
-0.0344288
-0.0965577
-0.0320478
-0.126589
-0.0360727
-0.00249386
-0.00286761
-1.28477e-05
-5.97331e-06
-0.0784846
-0.00179431
-0.00324833
-0.000577001
-8.40976e-07
-9.87159e-05
-0.000913404
-0.0014583
-2.80919e-05
-0.000274954
-1.3314e-05
-2.04341e-05
-0.000209849
-0.00015008
-9.03172e-06
-2.00881e-06
-7.8166e-06
-1.95494e-05
-3.03083e-05
-4.98723e-05
-2.19869e-05
-3.94962e-06
-6.92205e-06
-3.84182e-05
-3.21429e-05
-1.48469e-05
-1.52098e-05
-1.97762e-05
-1.56759e-05
-6.81152e-06
-2.71867e-05
-0.000829287
-0.0128658
-0.203757
-0.0392943
-0.0640977
-0.112702
-0.00753751
-0.115619
-0.0212797
-0.00254959
-0.00178671
-0.00039359
-0.000373995
-3.05842e-06
-0.000268261
-0.00189968
-0.0275112
-0.000404253
-8.60368e-05
-5.93915e-05
-0.00103346
-0.000765978
-4.93945e-05
-7.8345e-05
-8.91087e-06
-3.45733e-05
-0.000112991
-0.000142158
-1.38067e-05
-9.14317e-06
-1.06388e-05
-9.97656e-06
-3.38322e-05
-4.8088e-05
-2.60438e-05
-3.90389e-06
-6.18654e-06
-3.33004e-05
-3.15285e-05
-1.66503e-05
-1.43655e-05
-1.59079e-05
-1.36171e-05
-1.99355e-05
-0.0001524
-0.00201168
-0.0305417
-0.0184215
-0.0157707
-0.05826
-0.125517
-0.00713746
-0.117327
-0.0128622
-0.00247592
-0.000303744
-0.000328355
-0.000144566
-0.000196671
-1.83875e-06
-0.0131167
-0.00247015
-0.00926517
-2.02517e-05
-5.5072e-05
-0.000177481
-0.00066951
-0.000409528
-3.26971e-05
-5.17476e-05
-7.8004e-06
-2.83122e-05
-8.4424e-05
-0.000103086
-3.99975e-05
-1.87919e-05
-1.23275e-05
-7.90471e-06
-2.58153e-05
-5.00273e-05
-3.10265e-05
-5.62874e-06
-6.13112e-06
-2.68909e-05
-3.06117e-05
-1.82595e-05
-1.34402e-05
-1.29056e-05
-1.22088e-05
-4.55921e-05
-0.000595576
-2.21255e-05
-0.247765
-0.0745022
-0.00469197
-0.0631908
-0.0909374
-0.403588
-0.103218
-0.00804211
-0.00242242
-0.000209203
-0.000359855
-0.00158746
-6.97152e-05
-1.76094e-06
-1.22574e-06
-0.00373686
-0.00676507
-0.00287855
-0.000160243
-4.4414e-05
-0.000125134
-0.000691403
-0.000689574
-1.88592e-05
-3.53414e-05
-8.36173e-07
-9.89066e-06
-6.34647e-05
-7.58526e-05
-5.40046e-05
-3.58472e-05
-1.36975e-05
-3.93513e-06
-1.92964e-05
-5.02711e-05
-3.42553e-05
-7.98909e-06
-6.64924e-06
-2.24992e-05
-2.82963e-05
-1.93745e-05
-1.32197e-05
-9.31236e-06
-1.42273e-05
-0.000145447
-0.00310208
-0.0471184
-0.121873
-0.0743453
-0.0452119
-0.0754766
-0.0612056
-0.0617584
-0.074611
-0.00529045
-0.00243282
-2.30911e-05
-3.35635e-05
-0.000164956
-0.00108153
-4.0361e-05
-7.24819e-05
-8.38179e-07
-4.6541e-06
-0.697555
-0.000927438
-0.000118656
-2.84777e-05
-0.000198777
-0.000486453
-0.000448862
-4.30278e-05
-7.52419e-06
-3.07128e-06
-1.6476e-05
-4.81539e-05
-5.65738e-05
-6.19314e-05
-5.19504e-05
-1.408e-05
-1.89267e-06
-1.7642e-05
-4.48797e-05
-3.73647e-05
-1.06889e-05
-7.33641e-06
-1.86128e-05
-2.3902e-05
-2.05569e-05
-1.45376e-05
-7.22618e-06
-2.97724e-05
-0.00043109
-0.008209
-0.016384
-0.0332861
-0.0641
-0.150152
-0.0872326
-0.030997
-0.086516
-0.0467205
-0.004566
-0.00243647
-0.000178904
-3.76587e-06
-0.000149218
-9.05287e-05
-0.000116983
-2.59333e-05
-5.42731e-05
-6.54251e-07
-0.000523693
-0.0204123
-0.000159593
-7.17012e-05
-8.66789e-05
-0.000150908
-0.000329666
-0.000285521
-2.89931e-05
-4.91792e-07
-9.26739e-06
-1.36203e-05
-3.67838e-05
-4.25426e-05
-6.82833e-05
-6.37312e-05
-1.42157e-05
-1.43208e-06
-1.3455e-05
-4.22966e-05
-4.34969e-05
-1.35568e-05
-8.80931e-06
-1.39173e-05
-1.97626e-05
-2.10824e-05
-1.54214e-05
-7.87458e-06
-5.05013e-05
-0.0025561
-0.00843985
-0.0493599
-0.106699
-0.0273873
-0.0542555
-0.10502
-0.00669482
-0.0896952
-0.0262526
-0.00506539
-0.00256657
-3.8599e-05
-2.85854e-05
-0.000494376
-0.000328248
-0.000232649
-0.00073304
-1.79729e-05
-3.67802e-05
-5.05935e-07
-0.00112288
-0.00377814
-8.94017e-05
-0.000177529
-1.81501e-05
-4.76304e-05
-0.000345144
-0.000284556
-4.27383e-05
-1.02044e-05
-7.07088e-06
-4.95314e-06
-1.98433e-05
-3.22354e-05
-6.97664e-05
-8.06101e-05
-1.66491e-05
-1.87185e-06
-1.19464e-05
-3.43157e-05
-4.60671e-05
-1.81482e-05
-1.06139e-05
-1.0712e-05
-1.62979e-05
-2.12975e-05
-1.83261e-05
-2.95268e-05
-0.000112769
-0.00421441
-0.33787
-0.0643517
-0.0710739
-0.0111538
-0.0500655
-0.0977539
-0.0419074
-0.0978666
-0.0152174
-0.00554465
-0.00265133
-0.000395697
-0.000105167
-1.30396e-05
-0.000295333
-5.57085e-05
-0.000172091
-0.00322378
-1.33974e-05
-3.12218e-05
-4.07038e-07
-0.000619321
-0.00134147
-0.000107661
-0.000124756
-1.19536e-05
-3.53101e-05
-0.00024994
-0.000198623
-5.48618e-05
-3.2666e-05
-2.06979e-05
-7.92147e-06
-9.71581e-06
-2.47205e-05
-7.91713e-05
-8.40181e-05
-2.17143e-05
-2.96281e-06
-1.0522e-05
-2.71435e-05
-4.79348e-05
-2.41508e-05
-1.31182e-05
-8.91048e-06
-1.23562e-05
-1.91656e-05
-2.76846e-05
-7.34638e-05
-0.00191738
-0.0185421
-0.103188
-0.0712121
-0.0942284
-5.87649
-0.0661116
-0.067408
-0.0585307
-0.0765694
-0.00961265
-0.00527818
-0.00253845
-9.12744e-05
-4.25282e-09
-4.54428e-05
-0.000128197
-8.76883e-07
-0.000152407
-0.000318179
-0.00418068
-1.05306e-05
-2.23848e-05
-2.44185e-05
-0.000368579
-0.000623427
-7.26645e-05
-8.83338e-05
-3.69181e-05
-5.85936e-05
-0.000183374
-0.000141142
-6.04048e-05
-3.72286e-05
-2.63776e-05
-6.53835e-06
-7.58931e-06
-1.90833e-05
-7.57463e-05
-9.0255e-05
-2.4941e-05
-6.13519e-06
-9.02942e-06
-2.1739e-05
-4.56522e-05
-2.8636e-05
-1.5881e-05
-8.1559e-06
-9.7561e-06
-1.78081e-05
-6.39022e-05
-0.00012653
-0.00632287
-0.0650519
-0.0509948
-0.0803927
-0.0452213
-0.3016
-0.0747645
-0.0343738
-0.0588652
-0.0490825
-0.00704618
-0.00513476
-0.0025472
-0.00845093
-1.42851e-05
-0.000111545
-2.36655e-05
-8.22714e-05
-7.2372e-07
-0.00029507
-0.00052059
-0.0074517
-7.33549e-05
-7.10011e-05
-2.10243e-05
-0.000231531
-0.000730862
-4.46342e-05
-2.10393e-05
-2.82345e-05
-4.64567e-05
-0.000135557
-0.000137657
-8.69263e-05
-7.14073e-05
-2.79811e-05
-4.89667e-06
-3.64531e-06
-1.4758e-05
-7.09304e-05
-8.70146e-05
-2.97102e-05
-1.04173e-05
-7.72842e-06
-1.40741e-05
-4.17136e-05
-3.13939e-05
-1.85888e-05
-8.36889e-06
-7.49292e-06
-1.88715e-05
-0.000126262
-0.00340454
-0.00176433
-0.841251
-0.0066895
-0.0919366
-0.0236858
-0.138237
-0.093596
-0.00980286
-0.0820784
-0.0283072
-0.0065032
-0.00541581
-0.00447734
-0.00119842
-0.00493222
-6.47031e-06
-6.12013e-05
-6.01169e-05
-5.14361e-05
-0.000123526
-0.000253047
-0.000505232
-0.0280868
-6.14047e-05
-0.000122199
-2.31803e-07
-0.000335964
-0.00078133
-9.11979e-05
-1.40292e-05
-2.16229e-05
-1.50038e-05
-0.000101273
-0.000133857
-8.52802e-05
-8.61272e-05
-3.95275e-05
-1.0236e-05
-2.76937e-06
-1.14264e-05
-6.00516e-05
-8.05549e-05
-3.5098e-05
-1.53586e-05
-6.44177e-06
-1.03306e-05
-3.61379e-05
-3.23833e-05
-2.19138e-05
-1.0745e-05
-6.92839e-06
-3.51257e-05
-0.000137066
-0.0156457
-0.016004
-1.23914
-0.0424476
-0.104176
-0.0255011
-0.0446126
-0.0882952
-0.344684
-0.0825816
-0.0161334
-0.00702645
-0.0051353
-0.00357417
-0.000322565
-5.6154e-05
-0.776397
-3.40044e-05
-3.83954e-05
-9.25111e-05
-0.000155033
-0.000129544
-0.000444366
-0.00051909
-0.281994
-4.27223e-05
-0.000102472
-1.95041e-07
-0.000416001
-0.000746951
-6.26683e-05
-3.4567e-05
-3.55169e-05
-1.13485e-05
-5.34147e-05
-9.94165e-05
-8.03183e-05
-9.30648e-05
-4.6954e-05
-1.55174e-05
-3.67903e-06
-6.92195e-06
-4.60973e-05
-7.42e-05
-4.06995e-05
-2.32095e-05
-7.16076e-06
-8.1235e-06
-3.04959e-05
-3.15468e-05
-2.4444e-05
-1.34637e-05
-1.3067e-05
-7.22065e-05
-0.00210351
-0.000114425
-0.000889092
-0.00300436
-0.0723691
-0.109964
-0.0249962
-0.0607151
-0.0524346
-0.0478726
-0.0630619
-0.0106153
-0.00682293
-0.0048503
-0.0007844
-0.00067053
-1.10492e-05
-8.18616e-05
-0.0327831
-7.44979e-05
-5.8916e-05
-7.04574e-05
-0.00011794
-0.000124556
-0.00045036
-0.000871727
-0.00947582
-3.65262e-05
-7.91019e-05
-1.63619e-07
-0.00028858
-0.000710028
-8.93193e-05
-9.26145e-06
-2.87425e-05
-8.61761e-06
-3.90751e-05
-7.49451e-05
-9.1108e-05
-0.000112189
-6.19237e-05
-1.58004e-05
-4.26211e-06
-5.27856e-06
-3.53729e-05
-5.94868e-05
-4.31864e-05
-3.22429e-05
-8.06281e-06
-5.92012e-06
-2.42728e-05
-2.73426e-05
-2.73517e-05
-2.08199e-05
-3.92153e-05
-9.04523e-05
-0.00789235
-0.00639123
-0.268371
-0.0974624
-0.0715782
-0.0632438
-0.0761474
-0.0837876
-0.0283856
-0.0675637
-0.0364785
-0.00817027
-0.00719908
-0.00710349
0
-0.000681306
-3.12077e-05
-2.09948e-05
-1.72425e-05
-0.000856798
-1.59626e-05
-7.95273e-05
-9.68388e-05
-9.37059e-05
-0.000636913
-0.000736895
-0.00144408
-0.00229046
-2.53847e-05
-6.73825e-05
-1.37933e-07
-0.000316696
-0.000474981
-6.61712e-05
-6.43621e-06
-9.89427e-06
-6.5967e-06
-4.39945e-05
-5.68853e-05
-8.31625e-05
-9.8335e-05
-6.34669e-05
-2.24932e-05
-6.31082e-06
-5.37968e-06
-2.4719e-05
-5.01091e-05
-4.12053e-05
-3.95597e-05
-8.33478e-06
-5.14817e-06
-1.86452e-05
-2.27968e-05
-2.61136e-05
-4.64338e-05
-0.000139982
-0.00244038
-0.00151564
-0.065906
-0.321772
-0.0689847
-0.0706653
-0.00516784
-0.236574
-0.0744266
-0.0293045
-0.0773487
-0.0215047
-0.00834071
-0.00695359
-0.0107282
0
-0.000479071
-2.81325e-05
-1.2288e-05
-3.19267e-06
-1.23406e-05
-0.000466812
-1.14572e-05
-6.40437e-05
-0.00013178
-0.00017137
-0.000830138
-0.00118236
-0.00233971
-0.00195099
-6.4896e-05
-5.22656e-05
-6.03426e-06
-0.000451169
-0.000441214
-4.56935e-05
-1.49399e-05
-1.62299e-05
-1.48375e-06
-3.38119e-05
-4.34038e-05
-6.36058e-05
-8.48293e-05
-6.2839e-05
-3.72859e-05
-8.00304e-06
-5.20354e-06
-1.70796e-05
-3.75021e-05
-3.78689e-05
-4.6373e-05
-1.04802e-05
-5.43396e-06
-1.46039e-05
-1.58954e-05
-2.37661e-05
-9.05911e-05
-0.000424566
-0.0145184
-0.0255171
-0.0045187
-0.0102441
-0.0356552
-0.104417
-0.0489997
-0.039601
-0.0646055
-0.151352
-0.059016
-0.0129825
-0.00806078
-0.00778194
-0.000301676
0
-0.0103843
-7.7388e-05
-1.30075e-05
-7.64285e-07
-2.23991e-06
-9.7063e-06
-0.000708444
-6.49384e-05
-8.38458e-05
-0.000110524
-0.000148171
-0.00122332
-0.00135731
-0.00312559
-0.000969216
-5.08803e-05
-7.64235e-05
-5.54214e-06
-0.000436604
-0.00041169
-5.92283e-05
-4.42389e-06
-1.32768e-05
-1.03761e-06
-1.83533e-05
-3.33483e-05
-4.88502e-05
-8.17369e-05
-6.65118e-05
-4.93806e-05
-1.2665e-05
-5.96681e-06
-1.29553e-05
-2.4875e-05
-3.40409e-05
-5.17022e-05
-1.31535e-05
-6.85148e-06
-1.31123e-05
-1.10684e-05
-2.9847e-05
-0.000191163
-0.0048504
-0.00540891
-0.105787
-0.164455
-5.06511
-0.0424221
-0.0982215
-0.0219298
-0.0981702
-0.0335038
-0.0564753
-0.0390952
-0.0100051
-0.00861783
-0.00765541
-1.30005e-15
-2.32717e-12
-0.000945735
-0.00206212
-2.4965e-06
-7.51432e-06
-5.29862e-07
-1.74386e-06
-8.51602e-06
-0.000303462
-5.65173e-05
-0.000106484
-0.000141123
-0.000118719
-0.00506672
-0.002267
-0.00461743
-0.000223557
-8.01909e-05
-3.66795e-05
-3.76591e-06
-0.000323768
-0.000371047
-6.64086e-05
-3.2155e-06
-4.67945e-06
-3.07184e-06
-1.37237e-05
-2.57278e-05
-3.75403e-05
-6.99881e-05
-7.36721e-05
-5.81525e-05
-2.0914e-05
-7.37303e-06
-8.81105e-06
-1.53897e-05
-2.78921e-05
-5.42822e-05
-1.5395e-05
-9.34065e-06
-1.29792e-05
-5.52242e-06
-3.75953e-05
-0.000796206
-0.0162713
-0.0511013
-0.149457
-0.209568
-0.1238
-0.0686454
-0.0696096
-0.104595
-0.0801661
-0.00294993
-0.0739657
-0.0219855
-0.00938623
-0.00834787
-0.00638475
-2.16181e-14
0
-0.000978998
-0.00016259
-0.00135133
-1.5305e-06
-5.12789e-06
-4.04746e-07
-1.46776e-06
-8.13636e-06
-0.000912525
-4.7588e-05
-0.00012702
-0.000123817
-0.000104228
-0.0294008
-0.00407937
-0.0118774
-0.000131897
-6.59245e-05
-2.85353e-05
-2.63068e-05
-0.000374144
-0.000406175
-5.09938e-05
-2.87168e-06
-3.66804e-06
-5.16073e-06
-2.09975e-05
-1.98911e-05
-2.45287e-05
-5.4121e-05
-7.684e-05
-6.71406e-05
-2.57127e-05
-9.23238e-06
-6.50584e-06
-9.27813e-06
-2.03501e-05
-4.99585e-05
-1.77089e-05
-1.4401e-05
-2.06237e-05
-1.73559e-05
-2.48743e-05
-0.0038248
-0.0145529
-0.0408964
-0.0448326
-0.0264727
-0.0491233
-0.0432713
-0.479592
-0.0600431
-0.0603105
-0.102734
-0.0541714
-0.0142277
-0.0091158
-0.00718062
-0.00137046
0
-1.54601e-09
-0.00133553
-0.000366229
-8.05604e-05
-0.00115126
-1.21438e-05
-3.45167e-06
-3.51514e-07
-1.38129e-06
-8.45925e-06
-0.00176619
-7.3011e-05
-0.000148715
-0.000109298
-3.714e-05
-0.203706
-0.00643292
-0.0416882
-8.38474e-05
-4.97146e-05
-4.1583e-05
-2.203e-05
-0.000415655
-0.000303834
-3.6951e-05
-8.20454e-07
-9.33863e-07
-7.34188e-06
-1.66573e-05
-1.54735e-05
-1.55822e-05
-3.79132e-05
-6.78579e-05
-8.00992e-05
-3.23749e-05
-1.22129e-05
-4.87322e-06
-6.34127e-06
-1.4157e-05
-4.38943e-05
-1.98651e-05
-1.79211e-05
-3.50368e-05
-3.28282e-05
-0.00118791
-0.000639946
-0.68287
-1.72093
-1.11119
-0.257631
-0.0624615
-0.0627549
-0.00756209
-0.0545296
-0.0218271
-0.0735874
-0.0353503
-0.0110928
-0.00926425
-0.00652861
0
0
0
-0.00118487
-0.000391613
-7.83288e-05
-0.000172847
-0.00124212
-9.20757e-06
-2.90112e-06
-3.21848e-07
-5.72532e-06
-2.85115e-05
-0.00112771
-6.40855e-05
-0.000133331
-0.000131883
-3.13621e-05
-0.0283434
-0.0135813
-1.43841
-5.55488e-05
-6.78829e-05
-3.39719e-05
-2.89792e-05
-0.000317657
-0.000222399
-4.06058e-05
-7.17484e-07
-1.08645e-07
-8.76839e-06
-1.62853e-05
-1.20032e-05
-9.9297e-06
-2.33218e-05
-5.86132e-05
-8.42009e-05
-4.27506e-05
-1.71944e-05
-4.71737e-06
-4.63159e-06
-9.17646e-06
-3.32905e-05
-1.82844e-05
-2.8432e-05
-0.000114971
-4.43142e-05
-0.00855241
-0.0155696
-5.05941
-0.917434
-0.510282
-0.432465
-0.0772441
-0.0612127
-0.00817724
-0.0835694
-0.0208184
-0.057572
-0.020184
-0.00985038
-0.00988404
-0.0334817
0
0
-4.15657e-06
-0.00177768
-0.000345016
-0.000104303
-9.9593e-05
-0.00024111
-0.0137418
-7.08989e-07
-2.24577e-06
-2.71026e-06
-6.16019e-06
-3.33181e-05
-0.000703404
-5.67823e-05
-0.00012069
-0.00012116
-2.65576e-05
-0.0100258
-0.0823566
-0.0192781
-3.75285e-05
-5.38379e-05
-1.65461e-05
-5.40545e-05
-0.000328252
-0.000234139
-3.08158e-05
-6.39957e-07
-1.28786e-06
-1.74461e-05
-2.02307e-05
-9.33984e-06
-3.71168e-06
-1.39818e-05
-5.38137e-05
-8.3689e-05
-4.72678e-05
-2.26083e-05
-6.05185e-06
-3.84873e-06
-5.86449e-06
-2.69478e-05
-1.51282e-05
-3.58284e-05
-0.000226912
-0.00360039
-0.00340393
-0.0205548
-0.0372859
-0.0564965
-0.0271116
-0.0228686
-0.0760414
-0.0778958
-0.0892095
-0.0550933
-0.0553571
-0.0457128
-0.0141594
-0.0106609
-0.00917799
0
0
-2.84534e-08
-0.000278781
-0.00374011
-0.000809781
-0.000163498
-0.00016548
-0.000177003
-0.000170671
-0.0263283
-5.48483e-06
-8.31537e-06
-2.84409e-06
-5.87441e-06
-3.51e-05
-0.000845137
-7.66407e-05
-0.000109938
-7.87955e-05
-2.23971e-05
-0.00392447
-0.436474
-0.00319491
-9.25137e-06
-4.29676e-05
-6.32677e-06
-4.33555e-05
-0.000334726
-0.000205797
-2.34122e-05
-7.12262e-07
-6.81772e-06
-2.60845e-05
-2.61481e-05
-5.73761e-06
-1.1508e-06
-6.91691e-06
-4.32889e-05
-7.72994e-05
-4.84068e-05
-2.70016e-05
-8.32409e-06
-5.39059e-06
-3.53453e-06
-1.8646e-05
-8.54473e-06
-8.45483e-05
-0.000331112
-0.0248615
-0.0278388
-0.137817
-0.13766
-0.141156
-0.206698
-0.0677424
-0.0564699
-0.388238
-0.0696536
-0.0243459
-0.0718724
-0.0276565
-0.0128664
-0.010557
-0.01373
0
0
0
-0.0233741
-0.00211627
-0.0010955
-0.000248118
-0.000211413
-0.000208599
-0.000241214
-0.000123349
-0.0657065
-5.45274e-06
-7.78677e-06
-2.59459e-06
-1.66988e-05
-0.000101526
-0.000936672
-7.10707e-05
-0.000100641
-4.96913e-05
-5.06969e-06
-0.00189855
-0.0157034
-0.00125985
-1.19189e-05
-3.44248e-05
-5.26978e-06
-6.03266e-05
-0.00025809
-0.000134242
-1.79017e-05
-1.39581e-06
-1.04677e-05
-3.74012e-05
-3.51e-05
-5.54402e-06
-6.84493e-07
-2.3753e-06
-3.08745e-05
-6.31e-05
-4.72731e-05
-3.16256e-05
-1.19379e-05
-8.66496e-06
-3.08462e-06
-1.96857e-05
-1.36622e-05
-0.000118349
-0.00339389
-0.0164111
-0.067589
-0.169157
-0.173021
-0.200205
-0.208026
-0.0387506
-0.00265658
-0.216719
-0.0647929
-0.272397
-0.0497711
-0.0185078
-0.0111817
-0.0114904
0
-1.34115e-11
-1.82232e-08
0
-0.00272741
-0.0072193
-0.00130816
-0.000296706
-0.000319268
-0.000240134
-0.0002406
-0.000237887
-0.000261539
-0.131049
-4.66718e-06
-1.6415e-05
-1.76064e-05
-1.75008e-05
-0.000124692
-0.000648111
-4.19378e-05
-7.15329e-05
-1.57866e-05
-9.21541e-07
-0.00140179
-0.00546042
-0.000438083
-2.25006e-05
-2.77016e-05
-1.58429e-06
-9.25693e-05
-0.000224269
-0.000100268
-1.37598e-05
-1.12041e-06
-1.66175e-05
-4.71807e-05
-3.74763e-05
-6.71464e-06
-7.7175e-07
-7.48987e-07
-2.16018e-05
-4.9371e-05
-4.21252e-05
-3.5354e-05
-1.80446e-05
-1.52558e-05
-2.50878e-06
-1.9746e-05
-1.79855e-05
-0.000812461
-0.0114627
-0.0465462
-0.0618894
-0.0243227
-0.0379983
-12.3845
-0.118643
-0.0795138
-0.0358216
-0.0446255
-0.0283456
-0.0639722
-0.0363259
-0.0147049
-0.0111279
-0.00721368
0
0
0
0
0
-0.00205808
-0.00117394
-0.000669289
-0.000306279
-0.00036771
-0.000263344
-0.000224737
-0.000241428
-0.000313236
-0.0298966
-1.95161e-05
-2.911e-05
-3.11091e-05
-3.62758e-05
-0.000293516
-0.000469345
-3.82323e-05
-4.7708e-05
-1.33634e-05
-1.64817e-05
-0.0011076
-0.00235414
-0.000153605
-1.71194e-05
-2.23821e-05
-7.06399e-07
-8.89326e-05
-0.000217291
-8.90794e-05
-1.0651e-05
-1.68846e-06
-2.2061e-05
-5.77046e-05
-4.86232e-05
-7.25405e-06
-8.57349e-07
-2.8115e-07
-1.42244e-05
-3.52062e-05
-3.48281e-05
-3.56616e-05
-2.14003e-05
-2.51101e-05
-4.81227e-06
-7.20257e-05
-1.26056e-05
-0.00614363
-0.022392
-0.0143507
-0.555488
-2.24721
-3.02762
-0.199665
-0.0910025
-0.0812037
-0.00101853
-0.0731581
-0.0363351
-0.0527038
-0.0218106
-0.0121964
-0.0115962
0
0
0
0
-0.00815274
-0.00291109
-0.00282073
-0.00037709
-0.000586487
-0.000414513
-0.000441589
-0.00039559
-0.000331572
-0.000304338
-0.000307651
-0.000270956
-0.0102731
-4.31922e-05
-2.91684e-05
-3.2408e-05
-6.77428e-05
-0.00069187
-0.000348376
-3.48277e-05
-2.01782e-05
-5.81126e-06
-5.35006e-05
-0.000704757
-0.000723071
-2.8296e-05
-2.36623e-05
-1.15745e-05
-2.11589e-06
-9.56843e-05
-0.000187425
-6.80891e-05
-6.11484e-06
-3.45963e-06
-2.58482e-05
-6.99595e-05
-6.05661e-05
-1.10342e-05
-5.98693e-07
-1.75077e-07
-8.01142e-06
-2.25743e-05
-2.47038e-05
-3.29137e-05
-3.00696e-05
-4.35821e-05