/*--------------------------------*- C++ -*----------------------------------*\
| =========                 |                                                 |
| \\      /  F ield         | OpenFOAM: The Open Source CFD Toolbox           |
|  \\    /   O peration     | Version:  v2012                                 |
|   \\  /    A nd           | Website:  www.openfoam.com                      |
|    \\/     M anipulation  |                                                 |
\*---------------------------------------------------------------------------*/
FoamFile
{
    version     2.0;
    format      ascii;
    class       volScalarField;
    location    "13200";
    object      I2_1;
}
// * * * * * * * * * * * * * * * * * * * * * * * * * * * * * * * * * * * * * //

dimensions      [0 0 0 0 0 0 0];


internalField   nonuniform List<scalar> 
39402
(
0.000287516
3.23768e-06
0.00610853
2.16352e-07
0.000857149
0.00956972
1.7386e-07
0.000109332
0.00931065
0.00773137
2.12707e-07
8.17893e-05
0.00230099
0.0256804
0.00494638
2.65501e-07
9.74742e-05
0.00182043
0.0105591
0.0408733
0.00300792
3.09443e-07
0.000118296
0.00209457
0.00929593
0.0243062
0.0504444
0.00172679
3.41005e-07
0.000135176
0.00244136
0.0103207
0.0226452
0.0389891
0.0549198
0.000959975
3.53952e-07
0.000147301
0.00271075
0.0115479
0.0243303
0.0373183
0.0512643
0.0557937
0.00052998
3.55072e-07
0.000152532
0.00290154
0.0124591
0.0262741
0.0389582
0.0495726
0.0601873
0.0544347
0.000292626
3.49445e-07
0.000153549
0.00298525
0.0130937
0.0276646
0.0408781
0.0505144
0.0582864
0.0660723
0.0516606
0.000163738
3.39776e-07
0.000152062
0.00300689
0.0133722
0.0286194
0.0422207
0.0518303
0.0582299
0.0640792
0.0697356
0.0480451
8.8561e-05
3.28164e-07
0.000148964
0.00299028
0.0134566
0.0290357
0.0431407
0.0527647
0.0587488
0.0630882
0.0680011
0.0718546
0.0440249
4.82024e-05
3.15018e-07
0.000145003
0.00294827
0.0134162
0.0291742
0.0435345
0.0534211
0.0591956
0.0628354
0.0664156
0.0706823
0.072954
0.0392003
2.67314e-05
3.0245e-07
0.00014038
0.00289165
0.0132931
0.0291273
0.043674
0.0536917
0.0595426
0.0628549
0.0654733
0.0687506
0.0725514
0.0733934
0.0331846
1.50995e-05
2.90653e-07
0.000135875
0.00282327
0.0131182
0.0289573
0.0436325
0.0537943
0.059673
0.0629457
0.0651388
0.0672296
0.0702506
0.0739476
0.0733608
0.0265877
8.59296e-06
2.79288e-07
0.000131555
0.00275523
0.012902
0.0287075
0.0434742
0.0537565
0.0597269
0.0629604
0.0650246
0.0665939
0.0682693
0.0710657
0.0746744
0.0732576
0.0200615
4.95328e-06
2.68218e-07
0.000127296
0.00268865
0.0126826
0.0283926
0.0432357
0.0536344
0.0596878
0.0629708
0.0649559
0.0662981
0.0673742
0.0688213
0.0712318
0.0743989
0.0731103
0.0142182
2.86942e-06
2.57218e-07
0.000123109
0.00262154
0.012464
0.028067
0.0429311
0.0534507
0.0596023
0.0629217
0.0649212
0.0661823
0.0669111
0.06771
0.0691078
0.0712314
0.0740941
0.07166
0.00944543
1.7039e-06
2.45545e-07
0.000118894
0.00255489
0.0122401
0.0277376
0.0426125
0.0532176
0.0594759
0.0628541
0.0648543
0.0660906
0.066756
0.0671121
0.0678309
0.0693968
0.0718851
0.0748445
0.0678172
0.00592047
9.31707e-07
2.35818e-07
0.000114354
0.00248666
0.0120141
0.0273967
0.0422854
0.0529709
0.0593192
0.0627615
0.064786
0.0660133
0.066605
0.0668935
0.0671254
0.0679443
0.0699319
0.0733569
0.0758528
0.0611253
0.00332194
4.22482e-07
2.2817e-07
0.000110518
0.00241275
0.0117806
0.0270479
0.0419442
0.0527154
0.059153
0.0626552
0.0647039
0.0659458
0.0665234
0.0667011
0.0667904
0.0670877
0.0681827
0.070861
0.0751606
0.0761273
0.0516448
0.00174421
1.52986e-07
2.18455e-07
0.000107468
0.00234904
0.0115252
0.026685
0.0415924
0.0524474
0.0589798
0.0625411
0.0646151
0.0658703
0.0664645
0.066612
0.0665773
0.0666001
0.0670817
0.0686502
0.0721143
0.0767015
0.0754798
0.0404994
0.000930306
2.77314e-08
2.10463e-07
0.000103597
0.00229749
0.0113017
0.026284
0.0412234
0.0521689
0.0587969
0.062423
0.0645209
0.0657952
0.0664026
0.0665539
0.0664729
0.0663521
0.0664297
0.0672053
0.0693348
0.07333
0.077405
0.0736046
0.0292232
0.000498304
2.6395e-09
2.02798e-07
0.000100361
0.00223219
0.0111168
0.0259287
0.0408134
0.0518755
0.0586065
0.0622992
0.0644232
0.0657173
0.0663443
0.0665022
0.0664078
0.0662207
0.0661082
0.0663386
0.0674563
0.0700668
0.0742875
0.07677
0.0701199
0.0192986
0.00023763
1.86247e-10
1.95762e-07
9.72413e-05
0.00217697
0.0108842
0.0256293
0.040446
0.0515487
0.0584071
0.0621697
0.0643237
0.0656366
0.0662891
0.0664572
0.0663582
0.0661448
0.0659344
0.0659048
0.0663292
0.067772
0.0708479
0.0751413
0.07517
0.0644179
0.0115956
9.38553e-05
9.02631e-12
1.8883e-07
9.43584e-05
0.00212302
0.0106843
0.0252543
0.0401308
0.0512528
0.0581847
0.0620341
0.0642209
0.0655545
0.0662327
0.0664166
0.0663183
0.0660911
0.0658351
0.0656682
0.0657488
0.0663718
0.0682339
0.0718213
0.0758169
0.073881
0.0557899
0.00617011
3.16588e-05
4.67845e-14
1.82623e-07
9.15042e-05
0.00207292
0.0104876
0.0249279
0.0397389
0.050995
0.0579786
0.0618856
0.0641151
0.0654767
0.0661751
0.066379
0.0662842
0.0660506
0.0657697
0.0655355
0.0654311
0.0656345
0.0665554
0.0689233
0.0729634
0.0760479
0.0728824
0.0437871
0.00286006
9.6068e-06
2.56449e-13
1.76363e-07
8.89309e-05
0.00202314
0.0103035
0.0246039
0.0393934
0.0506765
0.0577982
0.0617461
0.064
0.0653964
0.0661202
0.0663399
0.066255
0.0660214
0.0657216
0.0654471
0.0652576
0.0652289
0.0656371
0.0669528
0.0698812
0.0740885
0.0752
0.070376
0.0296188
0.0011357
2.6915e-06
6.32125e-13
1.70879e-07
8.63324e-05
0.00197789
0.0101194
0.024298
0.0390479
0.0503929
0.0575773
0.0616209
0.0638888
0.0653073
0.0660693
0.0663024
0.0662263
0.065992
0.0656881
0.0653791
0.0651409
0.065004
0.0651121
0.0658052
0.0676034
0.0710966
0.07497
0.0734723
0.0645265
0.0166337
0.000384662
6.57747e-07
1.43705e-12
1.65444e-07
8.40329e-05
0.00193204
0.00995063
0.0239915
0.0387196
0.0501084
0.0573793
0.0614734
0.0637887
0.0652216
0.0660117
0.0662694
0.0662013
0.0659682
0.0656577
0.0653389
0.0650566
0.0648546
0.064826
0.0651254
0.0661597
0.0685031
0.0724364
0.0753016
0.072071
0.0539349
0.00773295
0.000109657
1.55037e-07
1.54569e-12
1.61179e-07
8.17638e-05
0.00189113
0.00977892
0.0237087
0.0383894
0.0498358
0.0571789
0.0613387
0.063675
0.0651428
0.0659574
0.066236
0.06618
0.065947
0.0656312
0.0653041
0.065005
0.0647565
0.064636
0.0647439
0.0652958
0.0667305
0.0696703
0.0737447
0.0746446
0.0702754
0.0385996
0.00297046
2.75043e-05
3.21898e-08
7.67264e-13
1.56553e-07
7.99648e-05
0.00185075
0.0096252
0.0234202
0.0380831
0.04956
0.0569859
0.0612005
0.0635669
0.0650536
0.0659031
0.0662026
0.0661622
0.0659333
0.0656139
0.0652705
0.0649607
0.0646931
0.0645098
0.0645012
0.0647694
0.065624
0.0675611
0.0710743
0.0747159
0.0729515
0.0653843
0.0220837
0.000945455
6.31931e-06
5.44437e-09
1.37807e-13
1.51695e-07
7.80339e-05
0.00181859
0.00947276
0.0231601
0.0377703
0.0493012
0.0567904
0.0610671
0.0634609
0.0649726
0.0658466
0.0661698
0.0661431
0.0659222
0.0656048
0.0652514
0.0649193
0.0646381
0.0644251
0.0643368
0.0644469
0.0649444
0.0661472
0.0686759
0.0725567
0.0749089
0.0711277
0.0548378
0.0099359
0.000263575
1.00616e-06
7.604e-10
2.82438e-16
1.47543e-07
7.59908e-05
0.00178418
0.00935043
0.0229002
0.0374863
0.0490378
0.0566057
0.0609321
0.0633563
0.0648931
0.0657959
0.0661353
0.0661206
0.0659072
0.0655943
0.0652416
0.0648921
0.0645853
0.064354
0.0642197
0.0642288
0.0645021
0.0652606
0.0669195
0.0700504
0.073851
0.0736345
0.0689298
0.0383426
0.00360372
6.42917e-05
9.83268e-08
8.13801e-11
7.54776e-15
1.4399e-07
7.42427e-05
0.00174777
0.00921993
0.0226903
0.0372008
0.0487973
0.0564163
0.0608039
0.0632506
0.0648132
0.0657434
0.0661063
0.0661003
0.0658928
0.0655835
0.0652311
0.0648781
0.0645483
0.0642905
0.0641265
0.0640892
0.0642244
0.0646953
0.0657633
0.0679769
0.0715854
0.0745139
0.071365
0.0631427
0.0205343
0.00117222
1.16395e-05
1.11697e-08
1.24035e-12
1.36367e-16
1.40973e-07
7.27437e-05
0.00171655
0.00908162
0.0224667
0.0369678
0.0485563
0.0562437
0.0606833
0.0631478
0.0647337
0.0656936
0.066075
0.0660878
0.0658839
0.0655766
0.065222
0.0648633
0.0645273
0.0642447
0.0640472
0.063979
0.0640385
0.0643121
0.0650079
0.0665172
0.0693178
0.0730998
0.0739918
0.0694692
0.050379
0.00845861
0.000291792
1.40726e-06
2.24629e-09
4.73191e-11
9.08025e-19
1.37993e-07
7.14596e-05
0.00168966
0.00896353
0.0222304
0.0367217
0.0483573
0.0560706
0.0605724
0.0630688
0.0646581
0.0656407
0.0660465
0.0660695
0.0658804
0.0655674
0.0652109
0.0648514
0.0645047
0.0642102
0.0639877
0.063871
0.0638903
0.0640599
0.064496
0.0655054
0.0675277
0.0708975
0.0741625
0.0720234
0.0662908
0.0321398
0.00272345
4.32824e-05
6.59156e-08
9.34254e-10
8.63204e-11
1.53712e-17
1.34532e-07
7.02232e-05
0.00166656
0.00886117
0.0220289
0.0364621
0.048149
0.0559247
0.0604593
0.0629946
0.0645909
0.0655927
0.0660168
0.0660512
0.0658673
0.065566
0.0652004
0.0648393
0.0644909
0.0641794
0.0639423
0.0637906
0.0637525
0.0638608
0.06418
0.0648466
0.0662277
0.0688248
0.0725065
0.0742065
0.0696908
0.0575318
0.0150193
0.000562805
6.614e-06
3.9923e-09
1.78855e-10
5.87405e-11
1.25613e-16
1.30943e-07
6.87767e-05
0.00164484
0.0087731
0.0218531
0.0362382
0.0479294
0.0557736
0.060362
0.0629197
0.0645303
0.0655402
0.0659848
0.0660373
0.0658598
0.0655597
0.0652027
0.0648235
0.0644742
0.0641599
0.063901
0.0637293
0.0636566
0.0637033
0.0639209
0.0644053
0.065347
0.0672249
0.0703841
0.0737678
0.0724319
0.0672842
0.0409376
0.00463752
9.16158e-05
9.58431e-07
3.68827e-09
1.79906e-11
1.02335e-11
1.84184e-16
1.28276e-07
6.72668e-05
0.00161934
0.0086914
0.0217023
0.036044
0.0477365
0.0556155
0.0602642
0.0628581
0.0644728
0.0654945
0.065954
0.0660232
0.0658525
0.0655557
0.0651965
0.0648248
0.0644526
0.0641354
0.0638725
0.0636684
0.063565
0.0635764
0.0637354
0.0640743
0.0647492
0.066067
0.0685012
0.0720485
0.0740625
0.0696658
0.0614684
0.0211427
0.000939489
1.4695e-05
4.71235e-08
2.30379e-09
2.15537e-13
2.91733e-13
7.87254e-17
1.26529e-07
6.61567e-05
0.00159263
0.00859573
0.0215626
0.035879
0.0475721
0.0554754
0.0601612
0.0627917
0.0644222
0.0654518
0.0659271
0.0660078
0.0658495
0.0655517
0.0651901
0.0648102
0.0644459
0.0640996
0.0638418
0.0636316
0.0634917
0.0634675
0.0635607
0.0638165
0.0643379
0.0652565
0.0670469
0.0700583
0.0734502
0.0725836
0.0675162
0.0475612
0.00684463
0.000148092
1.85963e-06
1.23802e-09
2.8821e-10
1.90975e-12
9.45342e-13
2.07121e-17
1.24715e-07
6.5432e-05
0.00157322
0.00849497
0.0214002
0.035725
0.0474321
0.0553559
0.0600709
0.0627228
0.0643697
0.0654064
0.0658974
0.0659911
0.0658431
0.0655524
0.0651889
0.0648022
0.0644253
0.0640848
0.0637854
0.0635923
0.063444
0.0633709
0.0634444
0.0636245
0.064007
0.0647072
0.0659896
0.068322
0.0717597
0.0739485
0.0699412
0.0633107
0.0266178
0.00133578
2.13572e-05
1.68454e-07
8.87589e-10
5.54093e-12
4.11908e-12
3.61346e-15
3.78645e-18
1.22388e-07
6.4683e-05
0.00156072
0.00842281
0.0212299
0.0355456
0.0472999
0.0552551
0.0599903
0.0626632
0.0643124
0.0653678
0.0658702
0.065971
0.0658327
0.0655476
0.0651889
0.0648014
0.0644113
0.0640568
0.0637575
0.0635128
0.0633935
0.0633085
0.0633177
0.0634655
0.0637634
0.0642977
0.0652357
0.0669835
0.0698999
0.0732372
0.0727118
0.0676538
0.0516874
0.00913727
0.000183604
2.59651e-06
9.7711e-09
2.40677e-10
2.16756e-12
4.51046e-12
7.90415e-14
3.74156e-19
1.20066e-07
6.37306e-05
0.00154798
0.00837711
0.0211095
0.0353599
0.0471484
0.0551574
0.0599259
0.062606
0.0642628
0.065326
0.0658458
0.0659545
0.0658241
0.065541
0.0651826
0.0647938
0.0644032
0.064032
0.0637163
0.0634715
0.0632979
0.0632565
0.0632267
0.06333
0.0635633
0.0639747
0.0646845
0.0659967
0.0682713
0.0716143
0.0738666
0.0700818
0.0640485
0.030894
0.00172807
2.11748e-05
2.49527e-07
1.17074e-10
4.27251e-10
1.25145e-12
2.5638e-11
7.16203e-15
3.02983e-20
1.17837e-07
6.27858e-05
0.0015316
0.00833103
0.0210341
0.0352285
0.0469891
0.0550482
0.0598619
0.0625602
0.0642221
0.0652859
0.0658228
0.0659399
0.0658119
0.0655368
0.0651763
0.0647856
0.0643922
0.0640098
0.0636813
0.0634173
0.063255
0.0631634
0.0631604
0.0632136
0.0633854
0.0637333
0.0642828
0.0652519
0.0670137
0.0698581
0.0731122
0.0727433
0.0675743
0.0540122
0.0109192
0.000201051
2.62858e-06
4.60034e-09
3.30966e-13
2.60462e-11
7.52253e-14
6.43475e-11
7.0597e-15
4.14907e-21
1.15712e-07
6.18688e-05
0.00151571
0.00827197
0.0209598
0.0351509
0.046877
0.0549324
0.0597908
0.0625191
0.0641819
0.0652531
0.0657956
0.0659299
0.0658008
0.0655302
0.0651717
0.0647782
0.0643766
0.0639958
0.0636473
0.0633722
0.0632017
0.063126
0.0631119
0.0631254
0.0632576
0.063488
0.0639517
0.0647267
0.0660463
0.0683221
0.0715916
0.073783
0.0700419
0.0641645
0.0338364
0.00198069
2.0318e-05
1.36769e-07
2.95453e-12
2.08053e-10
9.25321e-11
2.418e-14
1.35643e-11
6.06273e-15
3.27945e-22
1.13982e-07
6.09881e-05
0.00150011
0.00821519
0.0208642
0.0350723
0.0468144
0.0548501
0.0597137
0.0624715
0.0641448
0.0652259
0.0657694
0.0659154
0.0657971
0.0655268
0.0651689
0.0647743
0.06437
0.063976
0.0636271
0.0633379
0.0631614
0.0630916
0.063082
0.0630876
0.0631431
0.0633435
0.0636919
0.0643056
0.065321
0.0670998
0.0699345
0.0731023
0.0725966
0.067345
0.0550329
0.0119942
0.000198135
1.48273e-06
1.63492e-09
2.6299e-17
3.95046e-10
1.13572e-12
1.21822e-11
1.98417e-13
6.58602e-16
6.6579e-23
1.12961e-07
6.02789e-05
0.0014851
0.00815895
0.0207718
0.0349711
0.046749
0.054805
0.0596597
0.0624218
0.0641053
0.0651941
0.0657503
0.0658964
0.0657874
0.0655208
0.0651667
0.0647732
0.0643602
0.0639624
0.0636006
0.0633194
0.0631334
0.0630657
0.0630582
0.0630685
0.0630872
0.0632115
0.0634983
0.0639862
0.0647944
0.0661526
0.0684741
0.0716772
0.0736933
0.0697895
0.0639725
0.035131
0.0020519
1.42132e-05
3.52205e-08
1.42304e-11
8.21497e-12
1.18299e-10
6.05227e-14
6.87353e-11
1.29723e-13
7.66678e-17
1.78672e-23
1.1234e-07
5.98715e-05
0.00147332
0.00810494
0.0206799
0.0348726
0.0466646
0.0547592
0.0596298
0.0623825
0.0640645
0.0651638
0.0657311
0.0658824
0.0657777
0.0655148
0.065163
0.0647662
0.0643543
0.063943
0.0635759
0.0632895
0.0631175
0.0630447
0.0630317
0.0630428
0.0630688
0.0631058
0.06335
0.0637401
0.0643418
0.065414
0.0672585
0.0701126
0.0731593
0.0723423
0.0670273
0.0550717
0.0120906
0.000168914
4.90538e-07
5.44764e-10
2.10003e-13
1.11519e-10
1.30402e-13
4.9292e-13
9.13497e-11
1.04088e-15
3.82258e-18
7.40469e-26
1.115e-07
5.96482e-05
0.001467
0.0080639
0.0205919
0.0347754
0.0465834
0.0546999
0.0595992
0.0623601
0.0640319
0.0651251
0.0657106
0.0658689
0.0657724
0.0655109
0.0651621
0.0647647
0.0643435
0.0639319
0.0635487
0.0632657
0.0630966
0.0630339
0.0630138
0.0630158
0.0630292
0.0630746
0.0631426
0.0635329
0.0640577
0.0648579
0.0662831
0.0686767
0.0718749
0.0736007
0.0694268
0.0635576
0.0351986
0.00183695
7.20577e-06
6.87261e-09
4.12507e-12
3.43087e-13
1.74425e-11
1.01356e-11
3.34517e-13
1.14371e-11
2.83574e-14
9.91897e-21
1.7826e-28
1.1017e-07
5.93361e-05
0.00146423
0.00804429
0.0205263
0.0346824
0.0465044
0.0546419
0.0595626
0.0623365
0.0640095
0.0650979
0.0656878
0.0658564
0.0657618
0.0655119
0.0651578
0.0647618
0.0643409
0.0639155
0.0635334
0.0632411
0.0630797
0.0630148
0.0629978
0.0629935
0.0629978
0.0630226
0.0630724
0.0632878
0.0638126
0.0644708
0.0655695
0.0674792
0.0703889
0.0733056
0.0719829
0.0666422
0.0544978
0.0115679
0.000111097
1.25778e-07
8.98918e-12
1.63654e-11
5.42882e-12
1.26955e-10
1.37162e-11
1.09958e-11
6.2672e-14
1.00056e-14
4.60506e-21
3.75023e-28
1.08287e-07
5.88191e-05
0.00145993
0.00803874
0.0205008
0.034617
0.0464294
0.0545855
0.0595227
0.0623173
0.0639916
0.0650785
0.0656642
0.0658465
0.0657544
0.0655053
0.0651552
0.064759
0.0643361
0.063905
0.0635077
0.0632284
0.0630641
0.0629983
0.0629729
0.0629643
0.0629684
0.0630068
0.0630428
0.0631376
0.0635305
0.0641656
0.0650374
0.0665004
0.0689866
0.0721778
0.0734758
0.0688959
0.0629235
0.0342123
0.00144966
2.58589e-06
1.95147e-10
1.33923e-11
2.43394e-12
8.29604e-13
1.63708e-10
5.39489e-12
6.34133e-11
1.88774e-12
6.4613e-16
1.70702e-21
8.8445e-30
1.06372e-07
5.80449e-05
0.00145183
0.00802713
0.0205008
0.0345967
0.0463798
0.0545325
0.059486
0.0622899
0.0639752
0.0650675
0.0656522
0.0658287
0.0657497
0.0654994
0.0651546
0.0647515
0.0643279
0.0639025
0.0634938
0.0632011
0.0630569
0.0629839
0.0629562
0.0629384
0.0629445
0.0629597
0.0630215
0.0630742
0.0633056
0.0638357
0.0646367
0.0657909
0.0677401
0.0707432
0.0734843
0.0714154
0.0661107
0.0530712
0.0101299
5.5638e-05
1.38394e-08
3.4163e-12
1.3981e-11
1.74054e-12
2.42818e-10
6.48733e-10
6.50582e-13
1.15015e-10
6.13301e-14
2.82814e-18
1.1496e-24
1.45973e-31
1.04607e-07
5.72368e-05
0.00143881
0.00800131
0.0204882
0.0346045
0.0463668
0.0544979
0.0594511
0.0622606
0.0639552
0.0650462
0.0656406
0.0658163
0.0657316
0.0654919
0.065149
0.0647428
0.0643193
0.0638861
0.0634857
0.063183
0.0630409
0.0629784
0.0629374
0.0629213
0.0629192
0.0629562
0.0629903
0.0630347
0.063142
0.0635729
0.0642441
0.0652512
0.0667975
0.0693358
0.0724896
0.0732502
0.0681755
0.0619777
0.0315651
0.000935415
5.28255e-07
9.55081e-13
2.90892e-12
1.42686e-12
9.92015e-13
2.97666e-10
2.05051e-11
6.66961e-12
4.13363e-12
1.31736e-13
2.10538e-18
4.37418e-25
1.72657e-33
1.03173e-07
5.64916e-05
0.00142478
0.00795572
0.0204524
0.0346001
0.0463763
0.0544904
0.0594274
0.0622379
0.0639297
0.0650331
0.065626
0.0658056
0.0657146
0.0654799
0.0651392
0.0647355
0.0643025
0.063869
0.0634659
0.0631718
0.0630268
0.0629658
0.0629291
0.0628993
0.062889
0.0629169
0.0629615
0.06302
0.0630704
0.0633364
0.0639326
0.0647378
0.0660696
0.0681523
0.0711393
0.0735588
0.0706993
0.0654558
0.0507461
0.00786832
1.90956e-05
6.39383e-10
3.59135e-13
5.70967e-12
2.77312e-12
3.15243e-12
3.42766e-10
1.69397e-11
8.75999e-13
7.2036e-12
5.98262e-15
4.7346e-20
5.6271e-27
1.40483e-35
1.02175e-07
5.58952e-05
0.00141178
0.00790471
0.0203803
0.0345678
0.0463799
0.0544997
0.059422
0.0622189
0.0639068
0.0650183
0.0656187
0.0658063
0.0657117
0.0654652
0.0651291
0.0647319
0.064293
0.0638544
0.0634488
0.0631571
0.0630178
0.0629542
0.0629113
0.0628884
0.062869
0.0628809
0.0629042
0.0629518
0.0630398
0.0631631
0.0636361
0.0643784
0.0654239
0.067186
0.0698218
0.0727661
0.0727463
0.0673345
0.0607193
0.0275674
0.000472644
2.44579e-08
8.05541e-14
6.65557e-17
7.43355e-12
1.3203e-11
2.45472e-12
2.49508e-10
2.10105e-13
2.5528e-10
8.9854e-13
6.99687e-18
1.52261e-22
4.85972e-29
7.84025e-38
1.01619e-07
5.54847e-05
0.0014016
0.00785717
0.020298
0.0344937
0.0463578
0.054504
0.0594282
0.0622115
0.0638908
0.0649946
0.065609
0.0657976
0.0657161
0.0654596
0.065114
0.0647169
0.0642916
0.0638442
0.0634359
0.0631443
0.0630083
0.0629445
0.0628959
0.0628668
0.0628649
0.0628635
0.062886
0.0629257
0.0629844
0.0630653
0.0633933
0.0640354
0.0649523
0.0663547
0.0686302
0.0716336
0.0734803
0.0698245
0.0646308
0.0475872
0.00534803
3.21846e-06
2.94137e-14
1.4537e-12
3.85337e-12
1.62551e-10
5.18298e-11
1.17454e-09
7.3388e-11
1.03137e-11
7.72298e-11
5.74093e-13
3.29468e-18
6.34799e-24
3.00029e-31
2.95511e-40
1.01453e-07
5.52754e-05
0.00139482
0.0078207
0.0202207
0.0344077
0.0463002
0.0544918
0.0594302
0.0622119
0.0638819
0.0649799
0.065591
0.0657875
0.0657084
0.0654551
0.0651013
0.0646973
0.0642771
0.063837
0.0634246
0.0631357
0.0630005
0.062938
0.0628879
0.0628469
0.0628394
0.0628466
0.0628594
0.0628929
0.0629635
0.0630371
0.0631907
0.0637297
0.0645541
0.065725
0.0675684
0.0703836
0.0731182
0.0720889
0.066674
0.0589387
0.0223887
0.000174529
2.55141e-11
7.27086e-12
5.63189e-14
7.05572e-11
3.38038e-10
5.58463e-12
1.93649e-11
1.43631e-11
5.72188e-11
1.67729e-11
3.96198e-14
3.84503e-19
4.14059e-26
1.23771e-33
7.2065e-43
1.01195e-07
5.52409e-05
0.00139203
0.00779762
0.0201625
0.0343271
0.0462302
0.0544539
0.0594257
0.0622137
0.0638795
0.0649709
0.0655759
0.0657758
0.0656963
0.0654511
0.0650954
0.0646785
0.0642562
0.063829
0.0634135
0.0631257
0.0629933
0.0629328
0.0628785
0.0628356
0.0628106
0.0628113
0.0628359
0.0628466
0.0629234
0.06299
0.0630924
0.0634766
0.0641988
0.06521
0.0667527
0.0691247
0.0722008
0.0733352
0.0689044
0.0636775
0.0430233
0.00287323
3.50416e-07
3.12736e-12
5.28346e-12
2.13277e-12
1.34425e-10
3.96475e-12
2.35765e-11
1.3592e-10
2.79464e-12
4.82995e-12
3.78344e-13
5.73002e-16
1.47931e-21
1.78007e-28
3.32058e-36
1.06532e-45
1.0078e-07
5.51685e-05
0.00139268
0.00779143
0.0201279
0.0342677
0.0461629
0.0544059
0.0594037
0.0622118
0.0638787
0.0649652
0.0655654
0.065758
0.0656887
0.0654466
0.0650952
0.0646771
0.0642289
0.063805
0.0634089
0.0631152
0.0629816
0.0629197
0.0628693
0.062823
0.0627965
0.0627918
0.0628078
0.0628369
0.0628823
0.0629573
0.0630221
0.063255
0.0638647
0.0647979
0.0660681
0.0680891
0.0709328
0.0734362
0.0712149
0.0659374
0.0562569
0.0159357
3.56114e-05
2.12026e-12
4.46972e-12
1.0152e-14
1.50808e-10
3.11619e-11
7.29738e-12
1.9048e-10
1.18763e-10
5.27256e-11
2.82812e-10
7.4047e-14
5.09317e-18
6.69114e-24
4.97838e-31
5.42386e-39
9.09683e-49
1.00112e-07
5.50052e-05
0.00139243
0.00779904
0.0201242
0.0342342
0.0461164
0.0543589
0.0593737
0.0622
0.0638741
0.0649635
0.0655528
0.0657416
0.0656743
0.0654378
0.0650974
0.0646856
0.0642247
0.0637723
0.0633897
0.0631116
0.0629738
0.0629059
0.0628551
0.0628136
0.0627815
0.0627761
0.0627818
0.0628183
0.0628539
0.0629331
0.0629838
0.0631079
0.0635888
0.0643941
0.0655162
0.0672191
0.0697701
0.0726274
0.0729092
0.0678037
0.0623176
0.0368201
0.00111056
1.26812e-08
6.79048e-13
9.53693e-13
5.79588e-11
3.08677e-10
1.13993e-10
9.83092e-13
6.93572e-10
2.99288e-10
5.6036e-11
1.20721e-10
2.62011e-14
9.26045e-21
1.96977e-26
8.70076e-34
5.18874e-42
4.25338e-52
9.93547e-08
5.47413e-05
0.00139037
0.00780275
0.0201446
0.0342354
0.0460909
0.0543259
0.0593446
0.0621828
0.0638677
0.0649609
0.0655527
0.0657294
0.0656531
0.0654262
0.0650851
0.0646869
0.0642371
0.0637618
0.0633621
0.0631013
0.0629688
0.062899
0.0628394
0.0628021
0.0627723
0.0627484
0.0627575
0.0627553
0.0628111
0.0628935
0.0629464
0.0630456
0.0633425
0.0640586
0.0650324
0.0664812
0.0687
0.0716332
0.073411
0.0700764
0.0649928
0.0524106
0.0093878
4.12494e-06
2.53656e-13
3.08268e-12
9.68334e-12
1.59258e-10
1.33724e-10
1.07744e-10
8.04354e-11
3.25056e-10
1.95982e-12
5.41765e-11
4.93288e-12
5.48467e-17
3.65764e-22
3.64117e-29
9.76753e-37
2.62892e-45
7.11284e-56
9.85005e-08
5.44237e-05
0.00138626
0.00779846
0.0201587
0.0342646
0.0460958
0.0543081
0.0593217
0.0621636
0.0638588
0.064957
0.0655566
0.0657286
0.0656395
0.0654067
0.0650685
0.0646715
0.0642365
0.0637683
0.0633501
0.0630861
0.0629631
0.0628947
0.0628289
0.0627832
0.0627552
0.0627359
0.0627317
0.0627402
0.062779
0.0628503
0.0629451
0.0629918
0.063192
0.0637347
0.0646403
0.0658625
0.0677583
0.0704833
0.0731279
0.0720082
0.0666936
0.0602499
0.0291331
0.000281267
5.39147e-11
2.19485e-12
8.50483e-13
2.69172e-11
1.87493e-11
5.01493e-14
8.31089e-16
3.32265e-10
1.29303e-10
3.29358e-11
2.51405e-10
1.21808e-13
4.89511e-18
7.26041e-25
4.34455e-32
6.51849e-40
5.99018e-49
1.196e-59
9.75852e-08
5.4063e-05
0.0013809
0.00778576
0.0201584
0.0342885
0.0461241
0.0543122
0.0593075
0.0621499
0.0638403
0.0649523
0.0655556
0.0657342
0.0656338
0.0653816
0.0650529
0.0646503
0.0642238
0.0637675
0.0633505
0.0630764
0.0629549
0.0628893
0.0628264
0.0627703
0.0627336
0.0627232
0.0627159
0.0627431
0.0627518
0.0628177
0.0628932
0.0629823
0.0630939
0.0634766
0.0642725
0.0653684
0.066976
0.0693839
0.0722692
0.0732378
0.0687679
0.0637754
0.0465311
0.00436438
2.81131e-07
1.94862e-12
8.81524e-14
1.29928e-11
1.09108e-11
1.07801e-11
7.21703e-11
2.9063e-12
8.60554e-10
5.07983e-11
2.03034e-11
1.13224e-11
1.76445e-15
9.07263e-21
9.30518e-28
3.22753e-35
2.12143e-43
6.27414e-53
1.29206e-63
9.65996e-08
5.36574e-05
0.00137459
0.00776705
0.0201404
0.0342942
0.0461502
0.0543344
0.0593097
0.0621403
0.0638287
0.0649384
0.0655513
0.0657366
0.0656411
0.0653732
0.0650235
0.0646319
0.0642027
0.0637621
0.0633522
0.0630772
0.0629457
0.0628774
0.0628188
0.0627653
0.0627197
0.0627062
0.062695
0.0627159
0.0627377
0.0627806
0.0628428
0.0629283
0.0630267
0.0633069
0.063958
0.0649436
0.0663178
0.0684048
0.0712363
0.0733578
0.0708915
0.0657364
0.0570458
0.0193961
3.82612e-05
7.29535e-14
2.30033e-12
7.82426e-12
2.27988e-11
2.57972e-12
1.95867e-11
9.34291e-12
4.79947e-12
3.74966e-10
1.69769e-13
2.32466e-11
1.20354e-12
2.11402e-17
1.25764e-23
7.36503e-31
1.34383e-38
3.59941e-47
2.85074e-57
7.24184e-62
9.56338e-08
5.3221e-05
0.00136707
0.00774405
0.0201111
0.0342777
0.0461557
0.0543534
0.0593224
0.0621369
0.063816
0.0649215
0.0655493
0.0657367
0.06565
0.0653776
0.0650106
0.0645975
0.0641734
0.0637413
0.0633495
0.0630783
0.0629453
0.0628638
0.0628033
0.0627553
0.0627168
0.0626827
0.0626707
0.0627022
0.062731
0.0627537
0.0628268
0.0628939
0.0629887
0.0631589
0.0636843
0.0645839
0.0657827
0.0675811
0.0701554
0.0728159
0.0724771
0.0673267
0.0621606
0.038259
0.00133284
4.20356e-09
3.07911e-13
1.75303e-13
4.60682e-11
7.3822e-12
1.35502e-11
1.27833e-10
3.00365e-12
9.24519e-10
5.05374e-10
2.44953e-11
3.05545e-10
3.75981e-15
2.7683e-19
1.06488e-26
3.37854e-34
2.39826e-42
9.35035e-52
1.68233e-66
5.32029e-64
9.47652e-08
5.27857e-05
0.00135878
0.0077154
0.0200737
0.0342485
0.0461468
0.0543578
0.0593331
0.0621377
0.0638079
0.0649053
0.0655344
0.065734
0.0656569
0.06539
0.0650098
0.0645746
0.064127
0.0637067
0.0633314
0.0630769
0.0629443
0.0628598
0.062789
0.0627396
0.0627091
0.0626776
0.0626466
0.0626523
0.0626971
0.0627549
0.0627966
0.0628653
0.0629357
0.0630686
0.0634589
0.0642163
0.065326
0.0668558
0.0691806
0.0719802
0.0732696
0.0693823
0.064491
0.0521534
0.00969265
2.67592e-06
7.71742e-12
7.88334e-15
1.42844e-10
2.36071e-11
4.73763e-12
7.96797e-11
1.96829e-10
3.46269e-11
4.12007e-12
1.97763e-12
9.85876e-10
5.29514e-12
3.03979e-16
1.11524e-22
5.18257e-30
7.81828e-38
1.6161e-46
3.01974e-57
2.42591e-60
3.75602e-62
9.39562e-08
5.23672e-05
0.00135027
0.00768236
0.0200255
0.0342097
0.0461252
0.0543531
0.0593359
0.0621395
0.0638016
0.0648929
0.0655184
0.0657256
0.0656529
0.0654054
0.0650213
0.0645748
0.0640967
0.0636571
0.0633054
0.0630685
0.0629428
0.0628596
0.0627814
0.0627218
0.0626869
0.0626693
0.0626473
0.0626443
0.0626632
0.0626988
0.0627645
0.0628334
0.0629015
0.0629949
0.0632663
0.0639476
0.0648917
0.0662791
0.0682834
0.0710177
0.0732492
0.0713282
0.0661051
0.0594009
0.0280202
0.00020527
2.24463e-11
5.28236e-12
1.09e-10
5.62877e-11
2.10183e-13
7.32352e-13
1.44205e-11
1.06243e-13
4.0544e-10
7.76505e-10
2.69256e-13
3.12379e-10
1.26123e-13
6.82312e-19
5.79717e-26
1.36089e-33
6.05959e-42
3.18467e-51
2.39861e-57
1.29103e-65
1.01307e-64
9.32397e-08
5.19803e-05
0.00134188
0.00764815
0.0199692
0.0341584
0.0460956
0.0543404
0.0593315
0.0621393
0.0637967
0.0648807
0.0654989
0.0657064
0.0656406
0.0654055
0.0650455
0.0645933
0.0640994
0.0636199
0.0632648
0.0630543
0.0629379
0.0628575
0.062781
0.0627156
0.0626643
0.0626446
0.06264
0.0626296
0.0626484
0.0626872
0.062758
0.0627969
0.0629011
0.0629687
0.0631248
0.0636573
0.0645463
0.0657582
0.0675347
0.0700452
0.072679
0.0726879
0.0678278
0.0630477
0.0443057
0.00343877
1.60722e-07
2.39797e-12
1.54506e-11
6.17072e-11
5.37861e-17
2.08561e-14
1.21483e-11
5.37683e-11
2.2422e-12
1.21876e-09
1.29168e-11
1.94412e-09
8.60308e-12
4.65498e-16
5.11185e-22
1.68789e-29
1.46285e-37
3.00276e-46
4.59746e-58
2.87141e-58
1.0512e-64
6.47064e-64
9.25948e-08
5.16353e-05
0.00133404
0.0076129
0.0199081
0.0340989
0.0460536
0.054321
0.0593226
0.0621364
0.063792
0.0648719
0.0654825
0.065685
0.0656238
0.065393
0.0650541
0.0646216
0.0641208
0.0636173
0.0632297
0.0630298
0.0629279
0.0628531
0.0627814
0.0627142
0.0626598
0.062621
0.0626185
0.06263
0.0626386
0.0626477
0.0627084
0.0627844
0.0628693
0.0629478
0.0630585
0.0634102
0.0642273
0.0653192
0.0668631
0.0691253
0.0718784
0.0732728
0.0697789
0.0649569
0.0550988
0.0159198
1.4979e-05
2.02205e-14
4.69027e-12
6.11478e-11
1.75714e-12
1.4247e-13
6.08042e-14
7.75859e-11
3.89584e-11
7.21318e-13
2.25556e-10
1.12332e-10
2.01087e-09
1.26801e-13
1.49417e-18
1.62948e-25
2.45467e-33
9.11797e-42
3.56133e-51
3.82897e-56
1.2853e-58
3.7641e-62
1.2849e-64
9.20128e-08
5.13206e-05
0.00132697
0.00757976
0.0198446
0.0340295
0.0460028
0.0542918
0.0593142
0.0621304
0.0637934
0.0648651
0.0654714
0.065671
0.0655988
0.0653755
0.0650467
0.0646396
0.0641562
0.0636363
0.0632208
0.0630059
0.0629145
0.0628451
0.0627797
0.0627155
0.0626555
0.0626105
0.0625864
0.0625939
0.0626302
0.0626561
0.0626696
0.0627413
0.0628316
0.0629259
0.0630064
0.0632543
0.0639027
0.0649403
0.0663101
0.0682919
0.0709681
0.0731838
0.0714884
0.0663582
0.0605985
0.0337482
0.000668004
8.00903e-09
1.5952e-13
3.54261e-11
7.9938e-12
1.62676e-13
1.58162e-14
4.5598e-15
2.38519e-11
2.48745e-12
1.82032e-09
6.63732e-10
1.19056e-09
1.801e-10
4.22767e-17
1.30348e-21
3.47551e-29
2.06172e-37
1.95129e-46
9.27302e-69
7.4427e-58
4.08822e-58
5.01386e-62
5.08982e-63
9.14718e-08
5.10344e-05
0.0013204
0.00754986
0.0197826
0.0339565
0.0459446
0.0542566
0.0592967
0.0621284
0.063792
0.0648656
0.0654623
0.0656556
0.0655778
0.0653505
0.0650267
0.0646356
0.0641762
0.0636756
0.0632376
0.0629995
0.0628937
0.062829
0.0627697
0.0627132
0.0626559
0.0626082
0.0625782
0.0625769
0.0625994
0.0626406
0.0626763
0.0627089
0.0627846
0.0628954
0.0629866
0.0631455
0.0636629
0.0645658
0.0658132
0.0675901
0.0700609
0.0726422
0.072686
0.0679881
0.063382
0.0475355
0.00592287
7.24862e-07
6.71064e-12
5.10293e-11
1.15676e-11
4.61377e-13
2.89078e-13
7.86699e-13
3.39612e-11
2.67187e-10
5.18504e-10
9.43097e-10
1.68955e-10
9.46188e-09
2.774e-12
2.1155e-18
3.34658e-25
3.37332e-33
7.34427e-42
8.14306e-52
7.71044e-56
8.63949e-58
2.67942e-59
1.61356e-60
1.08215e-62
9.09944e-08
5.0767e-05
0.00131446
0.00752194
0.0197266
0.0338844
0.0458835
0.0542179
0.0592766
0.0621198
0.06379
0.0648667
0.0654615
0.0656435
0.0655553
0.0653155
0.0649991
0.0646167
0.0641795
0.0637063
0.0632712
0.0630071
0.0628857
0.0628045
0.0627481
0.0627029
0.0626546
0.0626092
0.0625787
0.0625524
0.0625714
0.0626037
0.0626567
0.0626985
0.062763
0.0628472
0.0629525
0.0630801
0.0634621
0.0642712
0.0653926
0.0669667
0.0692225
0.0718914
0.0732146
0.0697916
0.0650422
0.0563529
0.0199946
4.58044e-05
4.65436e-10
6.24904e-11
8.24918e-11
7.64247e-13
6.14779e-13
2.41122e-12
6.64784e-14
4.89568e-11
5.85719e-14
6.95088e-10
1.47027e-09
8.61637e-12
1.27434e-09
2.37521e-15
2.34509e-21
3.91176e-29
1.89944e-37
7.67812e-47
1.14273e-55
4.28999e-59
7.74793e-59
5.54611e-59
5.41186e-64
1.75143e-68
9.0487e-08
5.0527e-05
0.00130892
0.00749592
0.0196753