/*--------------------------------*- C++ -*----------------------------------*\
| =========                 |                                                 |
| \\      /  F ield         | OpenFOAM: The Open Source CFD Toolbox           |
|  \\    /   O peration     | Version:  v2012                                 |
|   \\  /    A nd           | Website:  www.openfoam.com                      |
|    \\/     M anipulation  |                                                 |
\*---------------------------------------------------------------------------*/
FoamFile
{
    version     2.0;
    format      ascii;
    class       volScalarField;
    location    "13200";
    object      I2_2;
}
// * * * * * * * * * * * * * * * * * * * * * * * * * * * * * * * * * * * * * //

dimensions      [0 0 0 0 0 0 0];


internalField   nonuniform List<scalar> 
39402
(
-4.85881e-06
2.27217e-12
-0.000472243
-9.69501e-17
-2.51703e-05
-1.6283e-05
-7.24934e-11
1.74522e-10
-0.00090441
-1.08788e-05
-9.81011e-11
-1.3858e-11
-0.000110454
3.79819e-05
-0.00034499
-2.82267e-16
-9.62329e-07
-6.19945e-09
-0.00108678
8.78575e-05
-0.000164511
-1.33838e-16
-1.2866e-06
-8.31651e-09
-0.000896097
9.77171e-06
-0.0114569
-1.97448e-07
-1.99133e-10
-1.38457e-11
-0.000120618
-1.80784e-07
-0.00340653
2.60292e-05
-0.0130075
2.38889e-08
-2.1058e-10
6.14342e-12
-0.000141131
-1.84438e-07
-0.00379413
-3.70158e-06
-0.0116537
0.000116087
-1.22997e-05
2.95242e-16
-1.88384e-06
6.78909e-10
-0.00139061
-8.42918e-07
-0.00768715
-6.40008e-06
-0.0148307
8.42538e-05
-5.06086e-06
-4.30937e-17
-1.90272e-06
3.61712e-09
-0.00149829
-3.69065e-07
-0.00826309
-3.66286e-06
-0.0140656
7.65599e-05
-0.0117965
2.10828e-08
-1.98056e-10
3.25766e-12
-0.000164885
5.81982e-08
-0.00484168
-8.85028e-07
-0.0117973
-4.20662e-06
-0.0162196
8.22214e-05
-0.0105439
1.16698e-08
-1.8799e-10
-2.40368e-12
-0.00016352
4.54471e-08
-0.00494793
1.87429e-07
-0.0121191
-2.79243e-06
-0.0158424
8.01862e-06
-0.0193451
-3.37279e-05
-3.41877e-07
-1.55125e-17
-1.74609e-06
5.31681e-10
-0.00155401
2.99753e-07
-0.00908416
5.20292e-07
-0.0144012
-2.13929e-06
-0.0171138
2.0838e-05
-0.0197845
-5.43034e-05
-1.41847e-07
-1.10047e-16
-1.66326e-06
2.5622e-09
-0.00153266
1.81545e-07
-0.00912804
1.33224e-06
-0.0145303
-4.21803e-07
-0.0167529
-3.38856e-07
-0.0195776
6.62813e-05
-0.00599419
1.89034e-09
-1.56697e-10
3.59525e-13
-0.000150014
4.26225e-08
-0.00492775
5.07324e-07
-0.0124786
2.14251e-06
-0.0157945
1.022e-06
-0.0174345
2.39241e-06
-0.0201586
5.29077e-05
-0.00428337
1.07078e-09
-1.47597e-10
4.8961e-12
-0.000144624
3.42437e-08
-0.00486421
3.99297e-07
-0.0124647
2.71646e-06
-0.0158011
3.23387e-06
-0.0171884
7.03966e-06
-0.0189507
5.60103e-05
-0.0198672
-5.42055e-05
-1.16222e-08
-7.7772e-17
-1.43623e-06
1.77459e-09
-0.0014283
1.83587e-07
-0.00899063
8.24075e-07
-0.0145841
3.5469e-06
-0.0165594
4.89081e-06
-0.0174945
1.29105e-05
-0.019027
6.24425e-05
-0.0197763
-3.90744e-05
-5.26096e-09
-1.58941e-17
-1.36596e-06
2.59196e-09
-0.00139155
1.37639e-07
-0.00889572
1.05719e-06
-0.0145524
2.4722e-06
-0.016546
5.78893e-06
-0.0173153
1.04994e-05
-0.0181868
2.53047e-05
-0.0202457
-4.08255e-05
-0.000900348
3.65045e-10
-1.21674e-10
2.35845e-12
-0.000129141
4.18318e-08
-0.00461982
3.91105e-07
-0.0122776
1.65257e-06
-0.0157601
3.44122e-06
-0.0169957
6.89493e-06
-0.0173966
1.53984e-05
-0.0183076
3.79191e-05
-0.0205623
-8.39445e-05
-0.000449017
2.92893e-10
-1.14516e-10
6.55017e-12
-0.000124002
2.22387e-08
-0.00453491
5.66077e-07
-0.0121922
1.4008e-06
-0.0157255
2.97088e-06
-0.0169655
6.2826e-06
-0.0173091
1.4011e-05
-0.0177316
3.58169e-05
-0.0199118
7.40411e-05
-0.0150042
-1.35428e-06
-4.0274e-10
-5.30228e-17
-1.16186e-06
1.53609e-09
-0.00127868
1.25287e-07
-0.00859089
1.02116e-06
-0.014388
1.95404e-06
-0.0164617
4.03507e-06
-0.0171638
7.75465e-06
-0.0172704
1.74689e-05
-0.0178314
4.3589e-05
-0.0206606
2.98433e-05
-0.0116104
9.84373e-07
-9.56685e-11
-6.72608e-17
-1.11408e-06
1.93856e-09
-0.00123733
1.32398e-07
-0.00848278
1.04976e-06
-0.0143252
1.6975e-06
-0.0164274
3.82111e-06
-0.0171403
7.51809e-06
-0.0171882
1.15672e-05
-0.0173958
3.53092e-05
-0.0194136
5.968e-05
-0.020708
-0.00012979
-2.96392e-05
5.32211e-12
-9.65524e-11
-9.84807e-13
-0.000110124
3.80815e-08
-0.00426144
3.73733e-07
-0.0119163
1.54054e-06
-0.0155982
2.25884e-06
-0.0168801
4.68159e-06
-0.0171764
9.25634e-06
-0.017103
1.43052e-05
-0.0174488
4.42224e-05
-0.0199043
5.3604e-05
-0.0198549
-9.82053e-05
-1.1653e-05
7.63773e-13
-9.13265e-11
3.31624e-12
-0.000105462
1.23885e-08
-0.00417533
5.11075e-07
-0.011816
1.02926e-06
-0.0155518
2.59142e-06
-0.0168498
4.0372e-06
-0.0171553
8.43386e-06
-0.017052
1.32392e-05
-0.0171031
3.24637e-05
-0.0185977
5.31518e-05
-0.0213033
-0.000221068
-0.00262785
1.15952e-07
-1.13889e-13
1.38903e-17
-9.5891e-07
9.33343e-10
-0.00113553
7.69279e-08
-0.00813468
9.02252e-07
-0.0141167
1.46049e-06
-0.0163164
3.19147e-06
-0.0170709
4.86294e-06
-0.0171007
1.0284e-05
-0.0169437
1.53486e-05
-0.0171027
3.81668e-05
-0.0189109
5.44566e-05
-0.0205943
-0.000288455
-0.00122286
1.97435e-08
-2.34375e-14
-5.86212e-17
-9.16582e-07
1.18844e-09
-0.00110441
5.20991e-08
-0.0080395
8.94715e-07
-0.0140363
1.49138e-06
-0.0162767
3.03337e-06
-0.0170493
4.46985e-06
-0.0170841
8.10502e-06
-0.0169045
1.53483e-05
-0.0168767
2.36607e-05
-0.0178689
5.5083e-05
-0.0209256
-0.000113924
-0.0129021
-1.05391e-05
-1.8198e-07
5.26753e-15
-7.80431e-11
-1.01486e-12
-9.43798e-05
2.56427e-08
-0.00393591
1.67225e-07
-0.0115162
1.32017e-06
-0.0153968
1.93294e-06
-0.0167569
3.54119e-06
-0.0171064
5.3674e-06
-0.0169816
9.54392e-06
-0.0167917
1.74682e-05
-0.0168351
2.73992e-05
-0.018144
5.63182e-05
-0.0210035
-0.000256409
-0.00895067
-1.35042e-06
-2.98792e-08
1.54994e-15
-7.40649e-11
-6.60914e-13
-9.09998e-05
1.3299e-08
-0.00385941
4.04129e-07
-0.0114084
7.85201e-07
-0.0153449
1.9832e-06
-0.0167261
3.05679e-06
-0.0170909
5.12016e-06
-0.0169704
7.14211e-06
-0.016754
1.74185e-05
-0.0166792
2.24098e-05
-0.0173558
4.9666e-05
-0.0202168
-1.09403e-05
-0.0182584
-0.000128727
-3.97669e-05
3.27803e-10
-5.08318e-16
8.27034e-17
-8.02161e-07
8.94137e-11
-0.00101797
5.98247e-08
-0.00771646
7.11838e-07
-0.0138164
1.12723e-06
-0.0161508
2.31309e-06
-0.0169854
3.69958e-06
-0.0170476
5.84797e-06
-0.0168431
8.08977e-06
-0.0166377
2.01544e-05
-0.0166372
2.50987e-05
-0.0176128
5.01552e-05
-0.0205626
-9.29218e-05
-0.0158599
-4.8878e-05
-8.66747e-06
3.96008e-10
-1.97452e-16
4.07186e-17
-7.70329e-07
5.40621e-10
-0.000992608
2.44166e-08
-0.00761918
6.85033e-07
-0.0137456
7.66214e-07
-0.0161123
2.4171e-06
-0.0169628
3.58648e-06
-0.0170377
5.04619e-06
-0.0168306
8.65442e-06
-0.0166028
1.30743e-05
-0.0165273
2.45859e-05
-0.0170454
3.77474e-05
-0.0195432
7.00326e-06
-0.0191312
-0.000532506
-0.00066863
4.77876e-07
-1.85015e-10
1.0043e-16
-6.47087e-11
2.46894e-12
-8.22406e-05
1.61622e-08
-0.00365061
8.62247e-08
-0.0111257
9.9962e-07
-0.0151929
1.04176e-06
-0.0166284
2.6919e-06
-0.0170496
4.23986e-06
-0.0169404
5.53213e-06
-0.0166957
9.90888e-06
-0.0164893
1.46634e-05
-0.0164976
2.59978e-05
-0.0172683
3.81046e-05
-0.0200616
-3.57918e-05
-0.0181997
-0.000324286
-0.000160028
1.38277e-07
-2.81354e-11
7.51893e-17
-6.19431e-11
-3.72385e-13
-7.96206e-05
1.93037e-08
-0.00358423
1.37982e-07
-0.0110333
6.06605e-07
-0.0151415
1.69606e-06
-0.0165937
2.47051e-06
-0.0170368
3.19568e-06
-0.016935
5.90304e-06
-0.0166815
8.29063e-06
-0.0164658
1.18087e-05
-0.0163979
2.53814e-05
-0.0168387
3.08548e-05
-0.0189843
9.15646e-06
-0.0195974
-0.000658003
-0.00318564
8.64731e-07
-4.30167e-08
4.19504e-12
-6.95442e-17
-3.97016e-17
-6.89324e-07
7.79998e-11
-0.000921981
1.39548e-07
-0.00734075
2.95059e-07
-0.0135339
8.52848e-07
-0.0159883
2.03151e-06
-0.0168984
3.02761e-06
-0.017014
3.45934e-06
-0.0168094
6.72263e-06
-0.0165476
9.16917e-06
-0.016365
1.32315e-05
-0.0163789
2.67388e-05
-0.017041
3.01292e-05
-0.0195701
-2.53482e-05
-0.0187108
-0.000669184
-0.000979549
9.84872e-07
-4.14489e-09
1.08122e-12
-4.69227e-17
-7.22945e-19
-6.62431e-07
-2.36475e-10
-0.000904166
8.21574e-08
-0.00725827
4.7642e-07
-0.0134681
5.61747e-07
-0.0159483
1.8139e-06
-0.0168795
2.26311e-06
-0.0170058
3.24553e-06
-0.0168033
6.47278e-06
-0.0165382
7.30835e-06
-0.0163355
1.3842e-05
-0.0162926
1.94698e-05
-0.0166992
2.73055e-05
-0.0185682
-4.49889e-07
-0.0199146
-0.000526286
-0.00715046
3.19649e-06
-8.8164e-07
2.14593e-10
-3.6752e-13
1.33777e-17
-5.46385e-11
4.78909e-13
-7.30674e-05
-2.22131e-09
-0.00341792
2.28117e-07
-0.0107801
7.15713e-07
-0.014994
8.11925e-07
-0.0165018
2.02543e-06
-0.0169994
2.77786e-06
-0.0169187
3.37063e-06
-0.0166642
7.25926e-06
-0.0164079
8.03992e-06
-0.0162499
1.50715e-05
-0.0162925
2.05577e-05
-0.0168917
2.45243e-05
-0.0191717
-3.43055e-05
-0.0188949
-0.000750359
-0.00284139
2.2663e-07
-1.26041e-07
1.41841e-11
-1.52984e-13
1.04027e-18
-5.29302e-11
1.26194e-12
-7.1119e-05
-1.6e-09
-0.00336751
7.65385e-08
-0.0107001
1.01706e-06
-0.0149497
1.00062e-06
-0.0164712
1.66616e-06
-0.0169868
3.03851e-06
-0.0169143
4.973e-06
-0.0166603
4.18257e-06
-0.0163994
9.42773e-06
-0.0162177
1.18516e-05
-0.0162218
1.75703e-05
-0.0165965
2.38574e-05
-0.0182704
-5.54657e-06
-0.0200558
-0.000378415
-0.0106908
-1.76209e-05
-4.96762e-06
1.26559e-08
-1.20091e-12
5.22491e-14
-7.78695e-20
1.30239e-18
-6.04076e-07
3.24947e-10
-0.000848636
2.1332e-09
-0.00703696
1.73449e-07
-0.0132778
1.25098e-06
-0.01584
1.31865e-06
-0.0168189
1.94247e-06
-0.0169848
3.37348e-06
-0.0167932
5.7305e-06
-0.0165187
4.39792e-06
-0.0162795
1.03651e-05
-0.0161519
1.26779e-05
-0.0162308
1.86621e-05
-0.016787
1.86638e-05
-0.0188861
-3.90329e-05
-0.0191888
-0.000653451
-0.00550326
3.12127e-06
-2.87968e-07
8.03974e-10
-1.03462e-13
5.86336e-14
-1.0182e-20
-2.76449e-17
-5.88466e-07
5.29271e-10
-0.000834144
3.96719e-08
-0.00696248
7.82629e-08
-0.0132256
9.06517e-07
-0.0158123
1.4249e-06
-0.0168007
1.87952e-06
-0.0169777
2.40186e-06
-0.0167924
4.59301e-06
-0.016517
3.87285e-06
-0.0162636
9.28947e-06
-0.0161228
1.08471e-05
-0.0161517
1.73809e-05
-0.016533
1.89274e-05
-0.018068
-1.81158e-05
-0.0201383
-0.00031225
-0.0130603
-6.20059e-05
-1.413e-05
5.39672e-09
-2.68198e-13
5.54639e-15
-9.63412e-14
1.86929e-21
-4.73833e-11
-8.65655e-13
-6.67099e-05
1.32808e-08
-0.00323055
1.25133e-07
-0.0104932
1.62662e-07
-0.0148306
1.10539e-06
-0.0163941
1.67069e-06
-0.016952
2.34281e-06
-0.0169042
2.46922e-06
-0.0166534
5.23931e-06
-0.0163785
4.18275e-06
-0.0161581
9.7079e-06
-0.016073
1.19104e-05
-0.0161751
1.72645e-05
-0.0167243
1.47843e-05
-0.0186714
-5.49328e-05
-0.0193581
-0.000546561
-0.0078553
-5.7415e-06
-8.955e-07
3.01623e-09
-3.19939e-12
5.10556e-15
-1.96808e-13
3.7067e-22
-4.59429e-11
-1.2919e-12
-6.51635e-05
1.00239e-08
-0.00319721
1.85254e-07
-0.0104301
1.79648e-07
-0.0147944
6.60719e-07
-0.0163719
1.78616e-06
-0.0169399
2.6046e-06
-0.0169017
2.75302e-06
-0.0166495
4.32998e-06
-0.0163688
8.24249e-06
-0.0161472
4.95845e-06
-0.0160361
1.28761e-05
-0.0161038
1.42358e-05
-0.016493
1.6678e-05
-0.0179383
-2.92067e-05
-0.0200611
-0.000273695
-0.0145144
-0.00010271
-2.93572e-05
2.79048e-09
-4.00046e-10
4.10065e-12
-9.97082e-15
2.06361e-13
-5.70582e-23
4.92642e-17
-5.38097e-07
-2.61061e-10
-0.000796937
4.12645e-08
-0.00679639
3.60445e-07
-0.0130666
2.95415e-07
-0.015735
8.90535e-07
-0.0167464
1.88698e-06
-0.0169609
3.1371e-06
-0.0167866
3.04593e-06
-0.0165019
4.61317e-06
-0.0162351
9.11307e-06
-0.0160565
5.12132e-06
-0.0159993
1.3416e-05
-0.0161355
1.40779e-05
-0.0166852
1.19513e-05
-0.0185408
-6.5349e-05
-0.0194029
-0.000479304
-0.00978714
-7.80377e-06
-2.0846e-06
-7.13323e-13
-8.13895e-14
3.40261e-12
-6.91464e-14
1.00013e-13
-7.01732e-24
7.40934e-17
-5.29282e-07
4.02176e-11
-0.000782962
1.81597e-09
-0.00675249
4.39082e-07
-0.0130246
5.57484e-07
-0.015709
6.23845e-07
-0.0167287
1.59447e-06
-0.0169542
2.41416e-06
-0.0167872
3.96465e-06
-0.0164996
2.68353e-06
-0.016228
6.87765e-06
-0.0160464
5.91633e-06
-0.0159581
9.60503e-06
-0.0160625
1.44207e-05
-0.016474
1.02425e-05
-0.0178642
-2.90739e-05
-0.0200064
-0.000265838
-0.0152531
-0.000150892
-4.87636e-05
6.00192e-09
-9.63408e-11
9.21534e-11
-5.33228e-13
3.12302e-13
-2.40206e-14
6.45642e-25
-4.28161e-11
4.03989e-12
-6.16586e-05
1.91132e-09
-0.00309328
1.82651e-08
-0.0102872
4.60209e-07
-0.0146941
7.09942e-07
-0.0163101
8.56195e-07
-0.0169072
1.70855e-06
-0.0168932
2.6605e-06
-0.0166484
4.60992e-06
-0.0163509
2.81874e-06
-0.0161041
7.20397e-06
-0.0159721
6.80119e-06
-0.0159382
8.97992e-06
-0.0161149
1.43834e-05
-0.0166745
3.74486e-06
-0.0184722
-6.51023e-05
-0.0194483
-0.000437668
-0.0110796
9.48086e-06
-2.6768e-06
6.63379e-10
-5.39522e-12
3.53565e-10
-7.03501e-16
2.37427e-12
-3.64397e-15
3.87862e-26
-4.16034e-11
1.93045e-12
-6.09052e-05
1.60548e-08
-0.00306703
-2.33077e-08
-0.0102377
2.65087e-07
-0.0146704
8.66095e-07
-0.0162916
7.74982e-07
-0.0168975
1.84296e-06
-0.0168898
1.92901e-06
-0.0166446
4.96708e-06
-0.0163493
4.11415e-06
-0.0160864
5.25199e-06
-0.0159326
1.14977e-05
-0.0159063
5.45133e-06
-0.0160338
1.23509e-05
-0.0164656
7.72345e-06
-0.0178349
-3.80665e-05
-0.0199718
-0.000260665
-0.0155819
-0.000219997
-7.30175e-05
3.58295e-08
-1.41825e-10
4.76791e-15
-3.34021e-10
9.11368e-19
-1.14109e-11
3.42206e-16
-1.70063e-27
-1.15166e-16
-4.97497e-07
5.8572e-10
-0.000760434
9.20617e-08
-0.00661219
-1.79296e-08
-0.0129157
3.70559e-07
-0.0156485
1.01579e-06
-0.0166823
9.91132e-07
-0.016934
2.23897e-06
-0.0167794
1.88933e-06
-0.016493
5.58101e-06
-0.0162005
4.60218e-06
-0.0159736
5.38364e-06
-0.0158818
1.20515e-05
-0.0159026
5.44258e-06
-0.016097
1.04047e-05
-0.0166804
1.58478e-06
-0.0184454
-7.80366e-05
-0.0194542
-0.000411723
-0.0118553
4.84027e-05
-2.84751e-06
1.23907e-09
-3.19371e-13
1.09065e-11
-1.13676e-10
5.00932e-17
-1.71572e-11
1.87924e-17
-7.67014e-29
-1.14526e-16
-4.86635e-07
-3.284e-10
-0.000752352
1.3207e-07
-0.00659055
1.43291e-07
-0.0128749
1.50352e-07
-0.0156327
1.13977e-06
-0.0166699
1.19281e-06
-0.0169299
1.81814e-06
-0.0167776
1.91876e-06
-0.0164889
3.3263e-06
-0.0161954
6.48434e-06
-0.0159584
3.6937e-06
-0.0158659
7.00637e-06
-0.0158726
1.01591e-05
-0.0160028
4.94246e-06
-0.0164757
5.9732e-06
-0.0178532
-4.87713e-05
-0.019921
-0.000271451
-0.0156589
-0.000289661
-9.50735e-05
1.27544e-08
-1.39155e-10
6.40612e-19
-1.83091e-10
2.92784e-11
-8.53329e-14
1.08296e-11
-8.01566e-19
2.04804e-30
-3.84816e-11
-5.58409e-12
-5.80998e-05
-5.38159e-09
-0.00301379
3.63584e-07
-0.0101296
2.50698e-07
-0.0145919
2.00389e-07
-0.0162465
1.32292e-06
-0.0168682
1.36072e-06
-0.0168791
2.23464e-06
-0.0166396
1.99113e-06
-0.0163333
3.50156e-06
-0.0160562
7.08151e-06
-0.0158796
4.21566e-06
-0.0158494
6.41281e-06
-0.0158794
1.12414e-05
-0.0160798
2.60948e-06
-0.0166984
-2.46603e-06
-0.0184738
-8.71972e-05
-0.0193747
-0.000424073
-0.0122129
8.77853e-05
-2.83575e-06
8.76746e-10
-1.07513e-12
4.02383e-18
-4.32014e-10
1.7504e-12
-2.44291e-12
2.80134e-12
-2.90996e-20
1.16474e-31
-3.79661e-11
-2.98428e-12
-5.72296e-05
-2.68277e-08
-0.00299369
2.0831e-07
-0.0101085
8.01942e-07
-0.0145725
5.5835e-08
-0.0162311
7.87337e-07
-0.0168611
1.43979e-06
-0.0168754
1.77648e-06
-0.0166383
3.57591e-06
-0.0163298
1.80561e-06
-0.0160432
6.99822e-06
-0.0158708
6.70074e-06
-0.0158398
5.53226e-06
-0.0158515
1.20254e-05
-0.0160133
4.35661e-06
-0.0164941
-5.28047e-06
-0.0179056
-5.21785e-05
-0.0198782
-0.00029174
-0.0155795
-0.000322784
-0.000108834
6.49175e-10
-2.76811e-11
9.38216e-15
-7.91398e-14
5.39823e-10
-2.65933e-16
3.78216e-11
-3.70483e-13
8.11444e-22
-1.48188e-33
1.94748e-16
-4.63271e-07
-7.39704e-10
-0.000729639
-1.36812e-07
-0.00651214
3.94848e-07
-0.0128151
1.10115e-06
-0.0155815
8.51351e-08
-0.0166348
9.51956e-07
-0.0169121
1.57066e-06
-0.0167708
2.06109e-06
-0.0164856
4.10534e-06
-0.0161714
1.85915e-06
-0.0159258
7.22041e-06
-0.0158379
7.62439e-06
-0.0158348
5.50492e-06
-0.0158574
1.10882e-05
-0.0161052
3.10766e-06
-0.0167275
-1.59416e-05
-0.0185326
-9.37108e-05
-0.0192689
-0.000436359
-0.0122325
0.000129505
-2.35463e-06
7.48701e-11
-9.2985e-13
1.84095e-19
-8.33552e-12
2.93832e-10
-3.626e-19
1.11172e-10
-2.21636e-14
1.37207e-23
-3.34771e-36
2.50097e-16
-4.60687e-07
1.13625e-09
-0.000724117
-1.45673e-07
-0.00648461
-8.42819e-08
-0.0127938
1.41504e-06
-0.015574
6.46598e-07
-0.0166198
3.83901e-07
-0.0169063
1.81452e-06
-0.0167693
1.86335e-06
-0.0164842
3.59829e-06
-0.0161697
2.38561e-06
-0.015915
3.82687e-06
-0.015833
8.45591e-06
-0.0158275
6.51071e-06
-0.0158467
2.78455e-06
-0.016024
1.15801e-05
-0.0165198
-1.08596e-05
-0.0179706
-7.05568e-05
-0.0198297
-0.000293548
-0.0154209
-0.000325233
-0.000104066
3.6794e-10
-1.58872e-12
3.79902e-14
-1.80298e-18
9.54959e-11
-6.86163e-11
6.70433e-14
-1.1838e-10
5.3856e-16
-8.23077e-26
3.09144e-38
-3.65679e-11
1.27391e-11
-5.60318e-05
2.41758e-08
-0.00294073
-3.73901e-07
-0.010028
-1.16725e-07
-0.0145373
1.77652e-06
-0.0161962
7.81136e-07
-0.0168357
4.60787e-07
-0.0168653
1.99055e-06
-0.016634
2.01687e-06
-0.016323
4.05342e-06
-0.0160193
2.66841e-06
-0.0158452
3.86638e-06
-0.0158192
8.615e-06
-0.0158217
7.42235e-06
-0.015846
8.26874e-07
-0.0161276
9.44472e-06
-0.0167889
-1.99981e-05
-0.018627
-0.000118435
-0.0191061
-0.000441557
-0.01205
0.000148997
-1.41794e-06
3.78704e-12
-3.73238e-14
1.6816e-15
-1.46896e-17
3.0358e-10
-4.17208e-12
7.61699e-12
-4.60737e-11
7.03861e-18
-1.49942e-27
1.42951e-40
-3.56341e-11
9.58961e-12
-5.57862e-05
5.61819e-08
-0.00293547
-1.80154e-07
-0.0100037
-8.87646e-07
-0.0145218
1.05747e-06
-0.0161898
2.03098e-06
-0.0168274
1.8925e-07
-0.0168617
1.51903e-06
-0.0166334
1.94637e-06
-0.0163207
2.81757e-06
-0.0160089
5.85899e-06
-0.0158401
2.63791e-06
-0.0158066
6.69545e-06
-0.0158096
1.03147e-05
-0.0158375
5.51522e-06
-0.0160122
3.49606e-06
-0.0165931
-9.85774e-06
-0.0180904
-8.65781e-05
-0.0197507
-0.000322845
-0.0151687
-0.000306326
-8.02418e-05
1.28325e-11
-7.1633e-14
5.38604e-15
-3.92602e-16
1.20333e-15
-5.61159e-10
1.06231e-15
-1.38334e-10
5.49657e-12
-6.1985e-20
9.03067e-30
-5.43205e-43
-1.52821e-16
-4.42228e-07
2.60784e-09
-0.000719256
3.07174e-07
-0.00643543
-3.06179e-07
-0.0127336
-1.14193e-06
-0.0155461
1.30728e-06
-0.0166001
2.3445e-06
-0.0168908
2.23634e-07
-0.0167638
1.73664e-06
-0.0164793
2.07263e-06
-0.0161562
2.98564e-06
-0.0158936
6.5268e-06
-0.0158105
3.18496e-06
-0.0157936
6.09373e-06
-0.015806
1.07533e-05
-0.0158501
5.50525e-06
-0.0161251
-1.4359e-06
-0.0168758
-2.08711e-05
-0.0187669
-0.000132766
-0.0188496
-0.000481755
-0.0115618
0.000160071
-5.53803e-07
3.08136e-12
5.30369e-18
4.77683e-15
-2.61105e-18
2.50705e-12
-2.71153e-10
5.09184e-18
-5.09509e-10
2.17073e-13
-3.84647e-22
7.02008e-33
-1.19275e-45
-2.7273e-16
-4.33018e-07
4.70743e-10
-0.000715773
3.90627e-07
-0.00643805
7.06476e-07
-0.012722
-1.23485e-06
-0.0155339
-1.28167e-07
-0.0165911
2.90919e-06
-0.0168876
1.16115e-06
-0.0167606
7.60584e-07
-0.0164755
2.67672e-06
-0.0161499
2.35803e-06
-0.0158849
5.25089e-06
-0.015812
4.30388e-06
-0.0157872
3.76348e-06
-0.0158018
7.33033e-06
-0.0158369
9.10742e-06
-0.016035
-7.81478e-06
-0.0166619
-1.23238e-05
-0.0182235
-8.95578e-05
-0.0196496
-0.000354441
-0.0147839
-0.000226376
-4.90296e-05
6.75579e-12
-8.58906e-17
1.49421e-17
-3.75824e-14
2.65213e-17
-1.06165e-10
5.82822e-11
-1.10449e-12
4.39539e-10
-2.14755e-15
2.80234e-24
-1.56548e-35
1.48133e-48
-3.31396e-11
-1.39677e-11
-5.37783e-05
1.15904e-08
-0.00292524
1.05139e-06
-0.00998872
1.06106e-06
-0.0144865
-1.49704e-06
-0.0161626
-7.82181e-08
-0.0168136
3.2948e-06
-0.0168488
1.27347e-06
-0.0166254
8.98601e-07
-0.016308
2.98842e-06
-0.015991
2.41562e-06
-0.0158261
5.55015e-06
-0.0157941
5.10248e-06
-0.0157759
3.71738e-06
-0.0158028
6.07232e-06
-0.0158497
8.70884e-06
-0.0161708
-1.20528e-05
-0.0169683
-2.86575e-05
-0.0189141
-0.000140435
-0.0185584
-0.000513502
-0.0107961
0.000163917
-1.6397e-07
3.76018e-14
-2.95528e-18
2.5606e-15
-4.83095e-14
8.24288e-18
-5.87043e-10
1.46246e-12
-1.01351e-10
9.80546e-11
-8.54373e-18
3.25257e-27
-2.28905e-38
1.09515e-51
-3.26598e-11
-1.7208e-11
-5.30419e-05
-3.83701e-08
-0.00290954
8.21537e-07
-0.00999029
2.26861e-06
-0.0144865
-6.32452e-07
-0.0161538
-1.77712e-06
-0.016809
2.1633e-06
-0.0168484
3.25959e-06
-0.0166226
3.16907e-07
-0.0163032
2.62071e-06
-0.0159855
2.51452e-06
-0.015822
3.10376e-06
-0.0157853
8.52805e-06
-0.0157697
5.77803e-06
-0.0157807
3.11301e-06
-0.0158326
8.19975e-06
-0.0160611
3.02167e-06
-0.0167188
-2.87865e-05
-0.0184027
-0.000111783
-0.0194318
-0.00036409
-0.0143052
-0.000111559
-2.1881e-05
8.92907e-12
-4.85919e-19
5.28062e-20
-9.07352e-14
1.67543e-14
-3.18215e-15
5.95026e-10
-1.21672e-19
1.02491e-09
-4.53126e-12
2.54874e-20
-1.33758e-30
1.89507e-41
-4.78668e-55
-1.94573e-16
-4.13278e-07
-4.57055e-09
-0.000696389
-2.06561e-07
-0.00640645
1.50915e-06
-0.0127274
2.98847e-06
-0.0155186
-7.25436e-07
-0.0165678
-1.91401e-06
-0.0168779
2.47949e-06
-0.0167519
3.54773e-06
-0.0164651
3.48135e-07
-0.016133
3.05155e-06
-0.015871
2.71818e-06
-0.0157945
2.95243e-06
-0.0157686
9.02854e-06
-0.0157685
6.91071e-06
-0.0157888
1.84126e-06
-0.01584
5.44489e-06
-0.0162098
1.29834e-07
-0.0170703
-4.52912e-05
-0.0190932
-0.000172881
-0.0181876
-0.000539455
-0.00980573
0.000137299
-1.72905e-08
6.15177e-19
-6.1756e-18
3.21484e-15
-2.13804e-13
1.04665e-15
-4.95027e-11
1.61942e-10
-9.22695e-14
1.53853e-09
-4.88505e-14
6.20632e-23
-1.12791e-33
9.31177e-45
-1.09396e-58
-1.49528e-17
-4.10948e-07
-4.44642e-09
-0.000691526
-4.12204e-07
-0.00638183
8.93462e-08
-0.0127225
3.7235e-06
-0.0155208
1.9166e-06
-0.0165633
-2.17977e-06
-0.0168719
2.6886e-07
-0.016749
4.36772e-06
-0.01646
1.49506e-06
-0.0161294
1.50798e-06
-0.0158676
4.32715e-06
-0.0157925
2.42273e-06
-0.015758
5.68508e-06
-0.0157646
7.78585e-06
-0.0157809
3.69344e-06
-0.0158278
-8.47977e-07
-0.0160906
-3.83996e-07
-0.0168472
-3.64271e-05
-0.0186108
-0.000136246
-0.0191255
-0.000405351
-0.0136425
1.98466e-05
-6.10156e-06
7.18964e-16
-2.6168e-16
1.93765e-20
-4.52502e-14
2.17853e-13
1.07951e-17
4.17071e-10
-6.51315e-12
1.48769e-10
-3.92045e-10
8.76877e-17
-3.16699e-26
5.82742e-37
-2.60697e-48
1.2599e-62
-3.21912e-11
-5.63599e-13
-5.19341e-05
-9.32638e-08
-0.00286244
-1.10048e-06
-0.00993906
1.66624e-08
-0.0144894
4.54936e-06
-0.0161494
2.13187e-06
-0.0167916
-2.33997e-06
-0.0168368
4.46995e-07
-0.0166115
4.68768e-06
-0.0162922
1.521e-06
-0.0159693
1.81636e-06
-0.0158146
4.92631e-06
-0.0157704
2.36103e-06
-0.015744
5.34559e-06
-0.0157606
8.49013e-06
-0.0157936
3.72743e-06
-0.0158473
-4.42199e-06
-0.0162631
-7.95557e-06
-0.0172359
-5.32796e-05
-0.0193076
-0.00019835
-0.0177748
-0.000599296
-0.00845269
9.22732e-05
-1.00137e-09
2.98965e-18
-2.28256e-16
2.11114e-15
-2.76214e-13
1.88153e-14
-5.84889e-14
7.63803e-10
-8.35065e-18
2.09417e-09
-1.62867e-11
9.90465e-20
-4.44439e-30
1.71371e-40
-3.80925e-52
7.39543e-67
-3.19937e-11
7.19393e-12
-5.19728e-05
-5.5119e-08
-0.0028551
-1.39413e-06
-0.00991636
-1.42128e-06
-0.0144785
3.6154e-06
-0.0161502
4.80589e-06
-0.0167908
-1.00201e-06
-0.0168334
-1.94986e-06
-0.0166089
3.49026e-06
-0.0162828
4.24233e-06
-0.0159686
5.09886e-07
-0.0158082
4.91556e-06
-0.0157693
3.56257e-06
-0.0157387
1.7751e-06
-0.0157454
8.96376e-06
-0.0157777
1.03231e-05
-0.0158254
-2.38036e-06
-0.016132
-1.21885e-05
-0.0169657
-2.82956e-05
-0.0188203
-0.000151207
-0.0187547
-0.000471364
-0.0126743
0.000162285
-9.29777e-07
4.38094e-16
-1.83277e-16
4.88446e-21
-1.70205e-14
3.26583e-13
-5.29015e-17
3.62038e-11
-1.56059e-10
1.25987e-12
-3.29853e-09
9.27938e-14
-2.12062e-23
1.40224e-33
-2.69841e-44
2.66048e-56
-2.09014e-71
3.53922e-16
-4.07962e-07
1.89917e-09
-0.000688749
-3.005e-07
-0.00633283
-2.51873e-06
-0.0126709
-1.78813e-06
-0.015513
4.24006e-06
-0.0165638
5.23926e-06
-0.0168587
-1.07674e-06
-0.016737
-1.81589e-06
-0.0164526
3.82622e-06
-0.0161097
4.35762e-06
-0.0158564
6.40465e-07
-0.0157801
5.68165e-06
-0.0157491
3.92889e-06
-0.0157309
1.1268e-06
-0.0157485
8.08752e-06
-0.0157968
1.09056e-05
-0.0158576
-4.09403e-06
-0.0163283
-2.19689e-05
-0.0173966
-5.1797e-05
-0.0194642
-0.000213328
-0.0173204
-0.000660883
-0.00676091
4.33285e-05
-2.98828e-11
1.64806e-15
-2.27146e-18
5.76915e-15
-2.35379e-14
1.32633e-13
9.7186e-19
4.13789e-10
-3.46836e-12
4.11423e-10
-5.76152e-10
7.43919e-17
-3.72916e-27
2.34696e-37
-2.10264e-48
8.21648e-61
-2.55285e-76
3.7272e-16
-4.05034e-07
3.64901e-09
-0.000689283
5.53038e-10
-0.00633371
-2.47219e-06
-0.0126586
-3.65499e-06
-0.0155041
6.88934e-07
-0.0165617
6.56574e-06
-0.0168571
2.49406e-06
-0.0167339
-2.50506e-06
-0.0164506
1.23385e-06
-0.0161047
5.37813e-06
-0.0158554
1.55069e-06
-0.0157757
3.08171e-06
-0.0157449
7.0215e-06
-0.0157226
2.20451e-06
-0.0157214
2.51298e-06
-0.0157798
8.07744e-06
-0.0158413
2.54448e-06
-0.0162081
-2.03475e-05
-0.0171106
-5.72533e-05
-0.0190939
-0.000177141
-0.0182835
-0.000518625
-0.0113623
0.000211631
-7.30235e-08
4.30358e-19
5.37872e-18
1.96702e-15
-6.19606e-15
1.36051e-14
-9.51789e-15
4.07092e-13
-5.57355e-10
-2.07727e-18
-5.09356e-09
1.33272e-11
-3.08961e-20
6.53098e-31
-1.99694e-41
8.1588e-53
-9.74776e-66
8.0413e-82
-3.09145e-11
1.83757e-11
-5.16185e-05
7.8362e-08
-0.00286239
9.80825e-09
-0.00989527
-3.59425e-06
-0.0144438
-4.2728e-06
-0.0161351
1.05148e-06
-0.0167904
7.02047e-06
-0.0168227
2.5331e-06
-0.0165969
-2.42756e-06
-0.0162794
1.63097e-06
-0.0159493
5.48767e-06
-0.0158033
1.5652e-06
-0.0157495
3.56873e-06
-0.0157281
7.82386e-06
-0.0157169
2.23573e-06
-0.0157296
8.29139e-07
-0.0157972
6.28098e-06
-0.0158953
8.51359e-07
-0.0164268
-2.83612e-05
-0.0175921
-8.85847e-05
-0.0196485
-0.00025179
-0.0168581
-0.000723518
-0.00486174
1.1114e-05
-3.29877e-14
2.00027e-17
-7.81572e-18
1.16243e-16
-7.48294e-16
8.03752e-14
-6.12522e-19
8.13202e-11
-9.09938e-11
3.05641e-11
-4.26949e-09
1.86212e-14
-2.85563e-24
6.04351e-35
-8.52856e-46
1.48308e-57
-3.63826e-71
4.3432e-87
-3.04845e-11
1.46957e-11
-5.13197e-05
1.00095e-07
-0.00286254
6.66668e-07
-0.00990588
-2.14698e-06
-0.0144387
-5.47467e-06
-0.0161256
-2.31011e-06
-0.0167861
5.74546e-06
-0.0168221
5.84886e-06
-0.0165946
-1.18651e-06
-0.0162736
-9.56751e-07
-0.0159471
4.72979e-06
-0.0158014
4.20161e-06
-0.0157492
1.16896e-06
-0.0157168
7.94e-06
-0.0157147
5.32006e-06
-0.015722
-1.15093e-06
-0.0157719
1.76987e-06
-0.0158524
6.63281e-06
-0.0162935
-1.41451e-05
-0.0172983
-7.13697e-05
-0.0193069
-0.000205481
-0.0177209
-0.000579043
-0.00948482
0.000142571
-2.37049e-09
4.03946e-17
-3.34636e-20
9.47784e-16
-2.28206e-15
5.31008e-15
-2.15954e-14
2.86431e-17
-5.62124e-10
3.92144e-14
-2.54055e-09
3.22117e-10
-4.04319e-18
9.05555e-29
-2.88525e-39
1.7991e-50
-9.50953e-63
3.66813e-77
-3.81374e-93
9.03029e-17
-3.93056e-07
3.89089e-09
-0.000684623
5.60657e-07
-0.00635204
1.27765e-06
-0.0126652
-2.76547e-06
-0.0154849
-6.11926e-06
-0.0165432
-2.26108e-06
-0.016856
6.08162e-06
-0.0167222
5.92282e-06
-0.0164336
-1.15431e-06
-0.0160986
-4.58956e-07
-0.0158446
4.95722e-06
-0.0157722
3.99304e-06
-0.0157262
1.36108e-06
-0.0157069
8.55543e-06
-0.0157154
5.82858e-06
-0.0157332
-1.9185e-06
-0.015783
-1.78319e-06
-0.0159286
1.80369e-06
-0.0165444
-2.15774e-05
-0.0178426
-0.000100305
-0.0196931
-0.000286396
-0.0164229
-0.00073937
-0.00283037
1.28275e-06
-3.0135e-17
6.88175e-17
-4.39727e-16
9.76134e-16
-5.00096e-16
1.65373e-14
-3.55208e-15
1.42053e-13
-2.81181e-10
4.74786e-14
-1.02114e-08
1.73887e-12
-1.79296e-22
4.81348e-33
-6.77134e-44
1.66483e-55
-2.33172e-68
2.37309e-83
-1.36851e-90
-2.09584e-17
-3.88266e-07
2.57283e-09
-0.000681563
5.96065e-07
-0.00634782
2.27413e-06
-0.0126738
3.65036e-08
-0.0154857
-6.05058e-06
-0.0165352
-5.16308e-06
-0.0168523
2.00209e-06
-0.0167227
7.42317e-06
-0.0164239
2.11007e-06
-0.0160917
-1.73879e-06
-0.0158425
3.22193e-06
-0.0157668
5.26482e-06
-0.0157246
1.58945e-06
-0.0156952
4.89267e-06
-0.01571
9.75325e-06
-0.0157267
3.031e-06
-0.0157707
-6.00002e-06
-0.0158675
-6.70758e-06
-0.0164091
-1.66703e-05
-0.0175392
-7.54014e-05
-0.0195203
-0.000259458
-0.0171118
-0.000652877
-0.0071383
5.73968e-05
-1.88475e-11
9.13134e-18
-2.50258e-18
2.48122e-15
-2.6311e-16
2.9237e-17
-4.40581e-14
3.07305e-16
-1.40588e-10
1.44773e-11
-6.93662e-10
2.24677e-09
-3.15498e-16
5.48782e-27
-1.26626e-37
7.19252e-49
-4.57369e-61
3.63225e-75
-1.35946e-97
2.017e-93
-2.91724e-11
-1.05961e-12
-5.0088e-05
5.64102e-08
-0.00284457
1.65949e-06
-0.00991606
3.36548e-06
-0.0144551
3.71181e-08
-0.0161143
-6.51638e-06
-0.0167698
-5.06588e-06
-0.0168219
2.36241e-06
-0.016582
7.34688e-06
-0.0162444
1.81585e-06
-0.0159369
-1.31405e-06
-0.0157929
3.85114e-06
-0.0157387
5.0005e-06
-0.015707
1.62337e-06
-0.0156818
5.14054e-06
-0.0157082
1.00369e-05
-0.0157433
3.61691e-06
-0.0157859
-8.73706e-06
-0.0159761
-1.4432e-05
-0.016683
-3.03146e-05
-0.0181489
-0.000107927
-0.0196546
-0.00033578
-0.0158707
-0.000701581
-0.00119708
6.0755e-08
1.76645e-17
9.40884e-16
-4.09521e-14
6.75803e-15
-1.68192e-15
3.93013e-15
-1.08495e-14
4.98625e-14
-4.63569e-10
-1.29581e-18
-1.19031e-08
3.48249e-11
-2.24013e-20
1.45131e-31
-1.48614e-42
2.87195e-54
-2.8892e-67
2.18011e-83
-9.71664e-88
1.31556e-91
-2.87996e-11
-4.43406e-12
-4.9617e-05
1.9758e-08
-0.00283417
1.36321e-06
-0.0099093
4.26742e-06
-0.0144579
2.98013e-06
-0.0161157
-4.05586e-06
-0.0167637
-6.75649e-06
-0.0168174
-1.27635e-06
-0.0165827
6.52894e-06
-0.0162345
4.99053e-06
-0.0159295
-7.17923e-07
-0.0157906
1.78199e-06
-0.0157351
5.21824e-06
-0.0156998
3.14738e-06
-0.015682
1.77179e-06
-0.0156916
8.94097e-06
-0.0157344
7.06829e-06
-0.0157805
-4.00811e-06
-0.0159026
-1.67244e-05
-0.0165085
-3.04206e-05
-0.017798
-8.35502e-05
-0.0196782
-0.000260143
-0.0165955
-0.00074063
-0.00460808
9.54764e-06
-5.07531e-14
1.39025e-17
-3.1203e-14
1.51002e-14
-1.63211e-16
8.07299e-18
-4.0815e-14
2.28048e-16
-2.27393e-11
1.01161e-10
-1.51121e-10
8.13259e-09
-1.25452e-14
8.80123e-25
-1.89608e-36
7.0842e-48
-2.18835e-60
2.97081e-74
-4.13884e-84
1.53893e-94
-1.06115e-94
-1.76853e-16
-3.74758e-07
-1.1211e-09
-0.000668853
1.15142e-07
-0.00631409
2.56694e-06
-0.0126719
5.50857e-06
-0.0154951
3.32635e-06
-0.0165263
-4.25602e-06
-0.0168359
-6.45174e-06
-0.0167229
-6.55253e-07
-0.0164197
6.34182e-06
-0.0160531
4.57055e-06
-0.0158345
-3.96018e-07
-0.0157592
2.68975e-06
-0.015711
5.12962e-06
-0.0156834
2.81441e-06
-0.0156754
1.78541e-06
-0.0157003
8.208e-06
-0.0157459
7.01889e-06
-0.0158066
-4.76121e-06
-0.0160476
-2.31664e-05
-0.0168293