/*--------------------------------*- C++ -*----------------------------------*\
| =========                 |                                                 |
| \\      /  F ield         | OpenFOAM: The Open Source CFD Toolbox           |
|  \\    /   O peration     | Version:  v2012                                 |
|   \\  /    A nd           | Website:  www.openfoam.com                      |
|    \\/     M anipulation  |                                                 |
\*---------------------------------------------------------------------------*/
FoamFile
{
    version     2.0;
    format      ascii;
    class       volScalarField;
    location    "13200";
    object      I2_3;
}
// * * * * * * * * * * * * * * * * * * * * * * * * * * * * * * * * * * * * * //

dimensions      [0 0 0 0 0 0 0];


internalField   nonuniform List<scalar> 
39402
(
0.000287272
3.23825e-06
0.00610596
2.16353e-07
0.000857529
0.00956661
1.7386e-07
0.000109334
0.00931617
0.00771381
2.12707e-07
8.17899e-05
0.00230108
0.0256975
0.0049205
2.65501e-07
9.74742e-05
0.00182045
0.0105598
0.0409034
0.00298417
3.09443e-07
0.000118296
0.00209457
0.00929612
0.0243086
0.0504864
0.00170932
3.41005e-07
0.000135176
0.00244136
0.0103207
0.0226458
0.038994
0.0549732
0.000948243
3.53952e-07
0.000147301
0.00271075
0.0115479
0.0243303
0.0373194
0.0512723
0.0558594
0.000522314
3.55072e-07
0.000152532
0.00290154
0.0124591
0.026274
0.0389583
0.0495746
0.0601986
0.054515
0.000287809
3.49445e-07
0.000153549
0.00298525
0.0130937
0.0276646
0.040878
0.0505145
0.0582894
0.0660874
0.0517595
0.000160751
3.39776e-07
0.000152062
0.00300689
0.0133722
0.0286194
0.0422206
0.05183
0.0582302
0.0640834
0.0697551
0.048168
8.67965e-05
3.28164e-07
0.000148964
0.00299027
0.0134566
0.0290357
0.0431407
0.0527646
0.0587483
0.0630887
0.0680069
0.0718792
0.0441714
4.71796e-05
3.15018e-07
0.000145003
0.00294827
0.0134162
0.0291741
0.0435345
0.053421
0.0591953
0.0628347
0.0664162
0.0706902
0.0729849
0.0393633
2.61389e-05
3.0245e-07
0.00014038
0.00289165
0.0132931
0.0291273
0.0436739
0.0536916
0.0595425
0.0628544
0.0654724
0.0687514
0.072562
0.0734321
0.0333612
1.47524e-05
2.90653e-07
0.000135875
0.00282327
0.0131182
0.0289573
0.0436324
0.0537942
0.0596729
0.0629455
0.0651382
0.0672284
0.0702517
0.0739609
0.0734094
0.0267729
8.3784e-06
2.79288e-07
0.000131555
0.00275523
0.012902
0.0287075
0.0434742
0.0537564
0.0597268
0.0629603
0.0650243
0.0665931
0.0682679
0.0710671
0.0746897
0.0733191
0.0202469
4.82147e-06
2.68218e-07
0.000127296
0.00268865
0.0126826
0.0283926
0.0432357
0.0536344
0.0596877
0.0629706
0.0649557
0.0662976
0.0673732
0.0688198
0.0712336
0.0744179
0.0731897
0.0143957
2.79263e-06
2.57218e-07
0.000123109
0.00262154
0.012464
0.028067
0.0429311
0.0534507
0.0596022
0.0629216
0.0649209
0.0661819
0.0669105
0.0677086
0.0691062
0.0712328
0.0741182
0.0717645
0.00960684
1.66606e-06
2.45545e-07
0.000118894
0.00255489
0.0122401
0.0277377
0.0426125
0.0532176
0.0594759
0.0628541
0.0648541
0.0660902
0.0667555
0.0671113
0.0678292
0.0693952
0.0718868
0.074874
0.0679563
0.00606246
9.18132e-07
2.35818e-07
0.000114354
0.00248666
0.0120141
0.0273967
0.0422854
0.0529709
0.0593192
0.0627615
0.064786
0.0660131
0.0666046
0.0668929
0.0671244
0.0679423
0.0699305
0.0733603
0.0758903
0.0613108
0.00343116
4.14918e-07
2.2817e-07
0.000110518
0.00241275
0.0117806
0.0270479
0.0419442
0.0527154
0.059153
0.0626551
0.0647039
0.0659457
0.0665231
0.0667005
0.0667895
0.0670863
0.0681804
0.0708604
0.0751662
0.0761786
0.0518894
0.00180908
1.48432e-07
2.18455e-07
0.000107468
0.00234904
0.0115252
0.026685
0.0415924
0.0524474
0.0589798
0.0625412
0.064615
0.0658703
0.0664644
0.0666116
0.0665766
0.066599
0.06708
0.0686476
0.0721135
0.0767098
0.0755498
0.0408068
0.000965152
2.63154e-08
2.10463e-07
0.000103597
0.00229749
0.0113017
0.026284
0.0412234
0.0521688
0.0587969
0.0624231
0.0645209
0.0657951
0.0664025
0.0665537
0.0664723
0.0663512
0.0664283
0.0672032
0.0693319
0.0733295
0.0774169
0.0737071
0.0295757
0.000514289
2.17359e-09
2.02798e-07
0.000100361
0.00223219
0.0111168
0.0259287
0.0408134
0.0518756
0.0586065
0.0622991
0.0644232
0.0657174
0.0663442
0.0665022
0.0664076
0.0662201
0.0661072
0.0663368
0.0674538
0.0700639
0.0742876
0.0767886
0.0702746
0.0196667
0.00024481
1.15589e-10
1.95762e-07
9.72412e-05
0.00217697
0.0108842
0.0256293
0.040446
0.0515487
0.0584071
0.0621697
0.0643237
0.0656367
0.0662891
0.0664571
0.0663582
0.0661446
0.0659337
0.0659035
0.066327
0.067769
0.0708449
0.0751426
0.0752015
0.0646416
0.0119416
9.66102e-05
5.10243e-12
1.8883e-07
9.43583e-05
0.00212302
0.0106843
0.0252543
0.0401308
0.0512528
0.0581847
0.0620341
0.0642209
0.0655544
0.0662328
0.0664166
0.0663182
0.0660909
0.0658347
0.0656673
0.0657474
0.0663692
0.0682305
0.0718185
0.0758205
0.0739408
0.0560813
0.00645847
3.26166e-05
1.54923e-13
1.82623e-07
9.15042e-05
0.00207292
0.0104876
0.0249279
0.0397389
0.050995
0.0579786
0.0618856
0.0641151
0.0654766
0.0661751
0.0663791
0.0662842
0.0660505
0.0657695
0.0655351
0.0654301
0.0656329
0.0665524
0.0689195
0.072961
0.0760565
0.0730049
0.0441125
0.00307038
9.91996e-06
3.96354e-16
1.76363e-07
8.89309e-05
0.00202314
0.0103035
0.0246039
0.0393934
0.0506765
0.0577981
0.061746
0.0640001
0.0653964
0.0661201
0.0663399
0.0662551
0.0660215
0.0657214
0.0654468
0.0652571
0.0652278
0.0656353
0.0669492
0.0698771
0.0740871
0.0752191
0.0706332
0.0299287
0.00126876
2.83335e-06
8.89623e-16
1.70879e-07
8.63324e-05
0.00197789
0.0101194
0.024298
0.0390479
0.0503929
0.0575773
0.0616209
0.0638887
0.0653074
0.0660693
0.0663024
0.0662263
0.0659921
0.0656881
0.0653789
0.0651406
0.0650033
0.0651109
0.0658032
0.0675994
0.0710925
0.0749708
0.0735171
0.0649969
0.0168871
0.000456965
7.23437e-07
2.67497e-14
1.65444e-07
8.40329e-05
0.00193204
0.00995063
0.0239915
0.0387196
0.0501084
0.0573793
0.0614734
0.0637887
0.0652216
0.0660118
0.0662695
0.0662012
0.0659681
0.0656578
0.0653389
0.0650564
0.0648541
0.0648251
0.0651241
0.0661575
0.0684989
0.0724329
0.0753071
0.0721818
0.0545954
0.00791149
0.000142347
1.70093e-07
6.22521e-14
1.61179e-07
8.17638e-05
0.00189113
0.00977892
0.0237087
0.0383894
0.0498358
0.0571789
0.0613387
0.0636751
0.0651428
0.0659573
0.066236
0.06618
0.0659469
0.0656311
0.0653042
0.065005
0.0647562
0.0646353
0.0647428
0.0652944
0.0667282
0.0696661
0.0737429
0.0746612
0.0705601
0.0391952
0.00306602
3.96627e-05
3.15058e-08
3.07273e-14
1.56553e-07
7.99648e-05
0.00185075
0.0096252
0.0234202
0.0380831
0.04956
0.0569859
0.0612005
0.0635669
0.0650537
0.0659031
0.0662026
0.0661623
0.0659334
0.0656138
0.0652704
0.0649608
0.0646932
0.0645094
0.0645002
0.0647682
0.0656226
0.0675589
0.0710706
0.0747176
0.0729964
0.0660154
0.0223586
0.00102057
1.02363e-05
4.23937e-09
3.80231e-15
1.51695e-07
7.80339e-05
0.00181859
0.00947276
0.0231601
0.0377703
0.0493013
0.0567904
0.0610671
0.0634609
0.0649726
0.0658466
0.0661697
0.0661431
0.0659223
0.0656049
0.0652513
0.0649192
0.0646381
0.0644252
0.0643364
0.0644457
0.064943
0.0661458
0.0686739
0.0725545
0.0749176
0.071257
0.0559511
0.0100127
0.000316905
1.9666e-06
4.5081e-10
2.03784e-16
1.47543e-07
7.59908e-05
0.00178418
0.00935042
0.0229002
0.0374863
0.0490378
0.0566057
0.0609321
0.0633562
0.0648931
0.065796
0.0661354
0.0661205
0.0659072
0.0655944
0.0652416
0.0648921
0.0645852
0.0643541
0.0642198
0.0642284
0.0645007
0.065259
0.0669183
0.0700493
0.0738523
0.0736583
0.0692932
0.0395316
0.00365108
8.93821e-05
2.65855e-07
4.78316e-11
3.94738e-16
1.4399e-07
7.42427e-05
0.00174777
0.00921993
0.0226903
0.0372008
0.0487973
0.0564163
0.0608039
0.0632506
0.0648131
0.0657434
0.0661064
0.0661004
0.0658927
0.0655835
0.0652311
0.0648781
0.0645483
0.0642905
0.0641265
0.0640894
0.0642239
0.0646937
0.0657618
0.0679762
0.0715862
0.074522
0.0714333
0.0640618
0.0210472
0.00118824
2.09876e-05
4.40347e-08
2.34977e-12
1.99281e-15
1.40973e-07
7.27437e-05
0.00171655
0.00908162
0.0224667
0.0369678
0.0485562
0.0562437
0.0606833
0.0631478
0.0647337
0.0656935
0.066075
0.0660879
0.0658839
0.0655765
0.065222
0.0648634
0.0645273
0.0642446
0.0640472
0.0639789
0.0640387
0.0643116
0.0650061
0.0665158
0.0693182
0.0731044
0.0740123
0.0696697
0.0521198
0.00851586
0.000304669
4.12498e-06
8.51817e-09
1.71856e-17
2.45789e-15
1.37993e-07
7.14596e-05
0.00168966
0.00896353
0.0222304
0.0367217
0.0483572
0.0560706
0.0605724
0.0630688
0.0646581
0.0656407
0.0660464
0.0660694
0.0658805
0.0655675
0.0652108
0.0648514
0.0645048
0.0642102
0.0639877
0.063871
0.0638902
0.0640601
0.0644957
0.0655037
0.0675269
0.0709
0.0741742
0.0720726
0.0668839
0.0336286
0.0027241
4.76697e-05
5.98192e-07
2.32772e-09
2.56196e-13
1.41118e-15
1.34532e-07
7.02232e-05
0.00166656
0.00886117
0.0220289
0.0364621
0.048149
0.0559247
0.0604593
0.0629946
0.064591
0.0655927
0.0660168
0.0660511
0.0658672
0.0655661
0.0652004
0.0648392
0.064491
0.0641794
0.0639422
0.0637906
0.0637525
0.0638608
0.0641802
0.0648463
0.0662263
0.0688253
0.0725134
0.0742312
0.0698302
0.0590916
0.0155083
0.000562752
8.6665e-06
2.46456e-08
4.76601e-10
3.21397e-14
3.63226e-16
1.30943e-07
6.87767e-05
0.00164484
0.0087731
0.0218531
0.0362382
0.0479294
0.0557736
0.0603619
0.0629196
0.0645303
0.0655403
0.0659849
0.0660373
0.0658597
0.0655597
0.0652028
0.0648235
0.0644741
0.0641601
0.063901
0.0637291
0.0636567
0.0637033
0.0639208
0.0644056
0.065347
0.0672242
0.0703874
0.0737829
0.0724802
0.0676832
0.0434775
0.00467044
9.05504e-05
2.1561e-06
3.2162e-10
1.39946e-11
2.24167e-15
7.15208e-17
1.28276e-07
6.72668e-05
0.00161933
0.0086914
0.0217023
0.036044
0.0477365
0.0556155
0.0602642
0.0628581
0.0644727
0.0654945
0.0659541
0.0660233
0.0658525
0.0655556
0.0651964
0.0648249
0.0644526
0.0641353
0.0638728
0.0636684
0.0635647
0.0635765
0.0637355
0.0640742
0.0647497
0.0660674
0.068502
0.0720568
0.0740921
0.0697823
0.0625943
0.0226414
0.000934208
1.53139e-05
4.27281e-07
6.86405e-11
1.49057e-14
1.2815e-13
1.61598e-17
1.26529e-07
6.61567e-05
0.00159263
0.00859573
0.0215626
0.035879
0.0475721
0.0554754
0.0601613
0.0627917
0.0644221
0.0654518
0.0659271
0.0660079
0.0658496
0.0655517
0.06519
0.0648101
0.064446
0.0640996
0.0638417
0.0636321
0.0634917
0.0634671
0.0635608
0.0638167
0.0643381
0.0652573
0.0670482
0.0700622
0.0734679
0.0726374
0.0678264
0.0501047
0.00707952
0.000144958
2.04105e-06
4.14453e-09
3.96257e-12
2.68323e-15
3.74869e-14
3.23554e-18
1.24715e-07
6.5432e-05
0.00157322
0.00849497
0.0214001
0.035725
0.0474321
0.055356
0.0600709
0.0627228
0.0643697
0.0654064
0.0658973
0.0659911
0.0658432
0.0655525
0.0651889
0.0648022
0.0644252
0.0640849
0.0637853
0.0635923
0.0634446
0.0633708
0.0634439
0.0636246
0.0640074
0.0647076
0.065991
0.068325
0.0717689
0.0739821
0.0700511
0.0641777
0.0292519
0.00132555
1.94202e-05
2.47603e-07
4.11408e-14
1.34842e-12
8.76976e-24
2.47883e-18
5.63108e-19
1.22388e-07
6.4683e-05
0.00156072
0.00842282
0.0212299
0.0355456
0.0472999
0.0552551
0.0599903
0.0626632
0.0643124
0.0653678
0.0658702
0.0659709
0.0658327
0.0655477
0.0651889
0.0648014
0.0644113
0.0640567
0.0637576
0.0635127
0.0633936
0.0633093
0.0633177
0.0634649
0.0637636
0.0642983
0.0652366
0.0669861
0.069906
0.0732561
0.0727706
0.0679175
0.0539292
0.00988418
0.00017797
2.3198e-06
2.95343e-08
8.77153e-11
6.51364e-13
1.07705e-14
6.95486e-15
9.53787e-20
1.20066e-07
6.37306e-05
0.00154798
0.00837711
0.0211095
0.0353599
0.0471484
0.0551573
0.0599259
0.0626061
0.0642629
0.0653261
0.0658458
0.0659545
0.065824
0.0655411
0.0651827
0.0647939
0.0644033
0.064032
0.0637162
0.0634716
0.0632978
0.0632566
0.0632278
0.06333
0.0635626
0.063975
0.0646854
0.0659985
0.068276
0.0716261
0.0739019
0.0701913
0.0647577
0.0342049
0.00176477
1.98394e-05
2.07481e-07
1.83976e-10
1.10294e-10
5.26498e-14
5.34159e-12
3.59399e-14
1.59581e-20
1.17837e-07
6.27858e-05
0.0015316
0.00833103
0.0210341
0.0352285
0.0469891
0.0550482
0.0598619
0.0625601
0.0642221
0.0652859
0.0658229
0.0659399
0.0658118
0.0655367
0.0651764
0.0647857
0.0643923
0.0640099
0.0636814
0.0634172
0.063255
0.0631633
0.0631606
0.063215
0.0633855
0.0637325
0.0642831
0.0652533
0.0670169
0.0698665
0.0731346
0.0728058
0.0678159
0.0559064
0.0124211
0.000197827
2.17876e-06
4.06417e-09
4.49933e-13
5.98435e-12
3.31219e-19
1.20235e-11
2.05122e-14
1.72582e-21
1.15712e-07
6.18688e-05
0.00151571
0.00827197
0.0209598
0.0351509
0.046877
0.0549324
0.0597908
0.0625191
0.0641819
0.0652532
0.0657957
0.06593
0.0658008
0.0655301
0.0651716
0.0647782
0.0643766
0.0639959
0.0636475
0.0633723
0.0632016
0.063126
0.0631116
0.0631256
0.0632594
0.0634885
0.0639509
0.0647272
0.0660487
0.0683277
0.0716065
0.0738238
0.0701567
0.0647971
0.0373227
0.00210584
1.89238e-05
9.7558e-08
1.82524e-11
1.77613e-11
2.15812e-13
3.10608e-16
2.36051e-12
3.13184e-15
2.80714e-22
1.13982e-07
6.09881e-05
0.00150011
0.00821518
0.0208642
0.0350723
0.0468144
0.0548502
0.0597137
0.0624714
0.0641447
0.0652259
0.0657694
0.0659155
0.0657972
0.0655268
0.0651688
0.0647742
0.06437
0.063976
0.0636272
0.0633382
0.0631616
0.0630915
0.0630821
0.0630873
0.0631434
0.0633457
0.0636927
0.064305
0.0653219
0.0671036
0.0699442
0.0731288
0.0726683
0.0675958
0.0567258
0.0141966
0.000197543
1.21916e-06
5.54366e-10
1.20774e-13
7.46835e-11
9.93949e-13
4.72444e-13
8.12211e-15
3.68607e-16
3.40016e-24
1.12961e-07
6.02789e-05
0.0014851
0.00815895
0.0207718
0.0349711
0.046749
0.054805
0.0596598
0.0624218
0.0641053
0.065194
0.0657503
0.0658964
0.0657875
0.0655209
0.0651667
0.0647731
0.0643601
0.0639624
0.0636006
0.0633195
0.0631336
0.063066
0.0630582
0.0630685
0.0630867
0.0632117
0.063501
0.0639876
0.0647943
0.0661545
0.0684804
0.0716939
0.0737394
0.0699181
0.0646171
0.0386695
0.00229448
1.35628e-05
2.01631e-08
6.97498e-13
3.18407e-14
6.76027e-11
2.75566e-12
5.26268e-12
2.1256e-14
2.19029e-17
3.39562e-25
1.1234e-07
5.98716e-05
0.00147332
0.00810494
0.0206799
0.0348726
0.0466646
0.0547592
0.0596298
0.0623826
0.0640645
0.0651638
0.065731
0.0658824
0.0657778
0.0655149
0.0651631
0.0647662
0.0643542
0.063943
0.0635759
0.0632894
0.0631175
0.063045
0.0630321
0.0630429
0.0630689
0.0631053
0.0633502
0.0637434
0.064344
0.0654146
0.0672621
0.0701234
0.0731883
0.0724204
0.0672966
0.0567042
0.0148622
0.00017203
4.14717e-07
1.04831e-10
4.85254e-13
2.41723e-12
5.77493e-12
1.58449e-12
1.53191e-11
1.85775e-13
1.14571e-18
2.98262e-25
1.115e-07
5.96483e-05
0.001467
0.00806391
0.0205919
0.0347753
0.0465834
0.0546999
0.0595992
0.0623602
0.064032
0.0651252
0.0657105
0.0658688
0.0657724
0.065511
0.0651622
0.0647647
0.0643435
0.0639318
0.0635488
0.0632657
0.0630965
0.063034
0.0630142
0.0630164
0.0630294
0.0630749
0.063142
0.0635331
0.0640618
0.0648612
0.0662851
0.0686836
0.0718938
0.0736508
0.0695636
0.0642258
0.0387261
0.00219121
6.90705e-06
3.04099e-09
3.16799e-14
4.22243e-13
2.8302e-13
2.62213e-15
5.75316e-14
6.93647e-12
1.08287e-13
2.83285e-19
1.22982e-26
1.1017e-07
5.93361e-05
0.00146423
0.0080443
0.0205263
0.0346824
0.0465043
0.0546418
0.0595625
0.0623365
0.0640096
0.065098
0.0656878
0.0658564
0.0657617
0.0655119
0.0651579
0.0647619
0.064341
0.0639154
0.0635333
0.0632412
0.0630797
0.0630146
0.0629978
0.062994
0.0629985
0.063023
0.0630729
0.0632872
0.0638127
0.0644757
0.0655743
0.0674836
0.0704014
0.073339
0.0720686
0.0669264
0.0560852
0.0145311
0.000116404
1.06795e-07
9.29367e-13
4.1586e-13
5.19367e-14
7.36507e-13
5.90044e-12
7.36224e-14
8.40913e-14
8.49221e-15
2.78771e-21
3.75023e-28
1.08287e-07
5.88191e-05
0.00145993
0.00803874
0.0205009
0.034617
0.0464295
0.0545854
0.0595226
0.0623173
0.0639916
0.0650786
0.0656643
0.0658465
0.0657544
0.0655052
0.0651552
0.0647591
0.0643362
0.063905
0.0635076
0.0632284
0.0630643
0.0629983
0.0629727
0.0629642
0.062969
0.0630076
0.0630434
0.0631384
0.06353
0.0641657
0.0650433
0.0665074
0.0689949
0.0722
0.0735339
0.0690497
0.0636475
0.0375798
0.00181456
2.56946e-06
9.63287e-11
7.58475e-14
3.09141e-13
3.46465e-14
8.34775e-12
6.15755e-12
4.26667e-12
5.99481e-14
4.46228e-16
6.47198e-23
8.84451e-30
1.06372e-07
5.80448e-05
0.00145182
0.00802713
0.0205009
0.0345968
0.0463799
0.0545325
0.0594859
0.0622898
0.0639751
0.0650675
0.0656523
0.0658288
0.0657498
0.0654993
0.0651544
0.0647514
0.064328
0.0639027
0.0634939
0.0632009
0.0630569
0.0629842
0.0629562
0.0629381
0.0629444
0.0629602
0.0630225
0.0630751
0.0633069
0.0638356
0.0646369
0.0657982
0.0677501
0.070758
0.0735229
0.0715146
0.066438
0.0548404
0.0130259
6.04485e-05
1.33677e-08
6.89266e-13
2.52365e-13
4.58058e-14
1.04327e-11
3.43703e-13
9.63447e-13
2.1027e-11
5.94541e-13
1.14539e-17
2.57303e-23
1.45973e-31
1.04607e-07
5.72368e-05
0.0014388
0.0080013
0.0204882
0.0346045
0.0463669
0.054498
0.0594512
0.0622605
0.0639551
0.0650461
0.0656406
0.0658165
0.0657318
0.065492
0.0651489
0.0647426
0.0643192
0.0638862
0.0634859
0.063183
0.0630407
0.0629784
0.0629378
0.0629214
0.0629189
0.062956
0.0629909
0.0630359
0.0631432
0.0635749
0.0642447
0.0652519
0.0668069
0.0693507
0.072515
0.0733155
0.0683546
0.0628123
0.0351488
0.00124863
5.43565e-07
1.35373e-13
1.3884e-12
6.67517e-15
2.23106e-13
3.05352e-22
7.84028e-14
4.55943e-16
5.0966e-12
2.05381e-13
4.1242e-20
4.37427e-25
1.72657e-33
1.03173e-07
5.64915e-05
0.00142478
0.00795571
0.0204524
0.0346001
0.0463763
0.0544905
0.0594276
0.0622379
0.0639297
0.065033
0.0656258
0.0658055
0.0657148
0.0654801
0.0651393
0.0647354
0.0643022
0.063869
0.0634661
0.0631721
0.0630269
0.0629655
0.0629292
0.0628998
0.0628891
0.0629166
0.0629613
0.0630205
0.0630717
0.063338
0.0639356
0.0647393
0.0660713
0.0681651
0.071162
0.0736024
0.0708077
0.065834
0.0527812
0.0105217
2.18371e-05
5.15332e-10
6.24897e-12
3.71138e-14
1.85964e-12
1.68722e-11
1.07269e-11
1.82595e-12
5.19957e-13
5.3098e-16
1.02306e-14
6.95565e-21
5.62714e-27
1.40483e-35
1.02175e-07
5.58952e-05
0.00141178
0.0079047
0.0203803
0.0345677
0.0463799
0.0544998
0.0594222
0.062219
0.0639069
0.0650182
0.0656185
0.0658061
0.0657116
0.0654654
0.0651294
0.064732
0.0642928
0.0638542
0.0634487
0.0631574
0.063018
0.0629542
0.0629109
0.0628885
0.0628697
0.0628812
0.0629039
0.0629516
0.0630403
0.0631645
0.0636382
0.0643826
0.065427
0.0671896
0.0698403
0.0728022
0.0728198
0.0675323
0.0616595
0.0313689
0.00066795
2.72613e-08
9.21204e-14
7.31806e-13
7.66429e-13
5.03054e-12
3.09193e-13
2.86418e-12
1.84098e-12
1.63934e-11
9.01328e-13
1.10717e-16
7.19033e-22
4.85973e-29
7.84025e-38
1.01619e-07
5.54847e-05
0.0014016
0.00785716
0.020298
0.0344937
0.0463577
0.054504
0.0594283
0.0622117
0.063891
0.0649946
0.0656089
0.0657973
0.0657159
0.0654596
0.0651143
0.0647173
0.0642918
0.063844
0.0634356
0.0631442
0.0630086
0.0629449
0.0628959
0.0628663
0.0628651
0.0628643
0.0628865
0.0629256
0.0629842
0.0630658
0.0633949
0.0640381
0.0649579
0.0663602
0.0686374
0.0716618
0.0735396
0.0699485
0.0650642
0.0498864
0.00744424
3.89731e-06
6.05608e-13
2.47581e-12
3.55363e-14
1.63291e-11
1.25422e-12
5.7636e-14
9.63048e-14
9.31854e-13
7.54727e-12
5.90967e-13
4.63748e-19
6.34827e-24
3.0003e-31
2.95511e-40
1.01453e-07
5.52755e-05
0.00139482
0.0078207
0.0202207
0.0344076
0.0463001
0.0544917
0.0594302
0.0622121
0.0638821
0.0649801
0.0655911
0.0657873
0.0657081
0.0654548
0.0651012
0.0646976
0.0642776
0.0638372
0.0634244
0.0631353
0.0630005
0.0629383
0.0628882
0.0628469
0.0628388
0.0628468
0.0628604
0.0628935
0.0629636
0.0630371
0.0631914
0.0637316
0.0645575
0.0657327
0.0675775
0.070397
0.0731631
0.0721874
0.0669081
0.060027
0.0263191
0.000251587
9.0816e-11
1.21569e-12
6.38109e-15
7.99977e-12
3.30085e-11
9.96118e-13
2.61254e-11
1.49095e-12
1.14279e-13
8.6911e-21
1.89633e-14
2.47319e-20
4.14064e-26
1.23771e-33
7.2065e-43
1.01195e-07
5.5241e-05
0.00139204
0.00779763
0.0201625
0.0343271
0.0462301
0.0544537
0.0594256
0.0622137
0.0638797
0.0649712
0.0655762
0.0657759
0.0656961
0.0654507
0.0650951
0.0646784
0.0642566
0.0638296
0.0634137
0.0631254
0.0629929
0.0629329
0.0628789
0.0628361
0.0628106
0.0628105
0.0628362
0.0628478
0.0629242
0.0629905
0.0630927
0.0634775
0.0642011
0.0652143
0.066763
0.0691392
0.0722249
0.0734076
0.0690703
0.0642179
0.0458158
0.00428398
4.47165e-07
1.50991e-13
1.1776e-12
3.63343e-12
3.42335e-11
3.36769e-12
7.39103e-12
6.99881e-12
1.90102e-12
2.77439e-11
1.85932e-12
1.26759e-16
1.47959e-21
1.78008e-28
3.32058e-36
1.06532e-45
1.0078e-07
5.51686e-05
0.00139268
0.00779144
0.0201279
0.0342676
0.0461628
0.0544058
0.0594035
0.0622116
0.0638787
0.0649654
0.0655658
0.0657584
0.0656888
0.0654464
0.0650947
0.0646766
0.0642288
0.0638055
0.0634095
0.0631154
0.0629813
0.0629192
0.0628694
0.0628236
0.062797
0.0627917
0.0628067
0.0628371
0.0628837
0.0629585
0.0630231
0.0632558
0.0638662
0.0648009
0.0660738
0.0681033
0.0709558
0.0734784
0.0713325
0.0662542
0.0575732
0.0200165
5.45407e-05
8.78129e-12
2.19609e-12
5.82593e-15
7.08013e-11
1.05721e-11
4.91712e-13
1.6649e-15
1.18606e-14
1.45439e-14
5.39217e-12
6.33923e-13
1.05199e-17
6.69147e-24
4.97839e-31
5.42386e-39
9.09683e-49
1.00112e-07
5.50053e-05
0.00139243
0.00779906
0.0201243
0.0342343
0.0461163
0.0543588
0.0593735
0.0621998
0.0638739
0.0649635
0.0655531
0.0657421
0.0656748
0.0654379
0.0650971
0.064685
0.0642242
0.0637722
0.0633903
0.0631124
0.0629741
0.0629054
0.0628545
0.0628138
0.0627823
0.0627767
0.0627817
0.0628171
0.0628541
0.0629347
0.0629854
0.0631096
0.0635903
0.0643965
0.0655207
0.0672273
0.0697902
0.0726643
0.0729806
0.0680033
0.0630336
0.0400959
0.00184723
1.5934e-08
4.86385e-12
2.24886e-14
2.15931e-11
3.26702e-11
2.8744e-12
2.57908e-13
4.03815e-12
1.09849e-12
3.6985e-12
9.71623e-15
7.4811e-15
1.17748e-19
1.96979e-26
8.70076e-34
5.18874e-42
4.25338e-52
9.93547e-08
5.47413e-05
0.00139038
0.00780277
0.0201447
0.0342355
0.0460909
0.0543259
0.0593444
0.0621826
0.0638673
0.0649605
0.0655527
0.0657298
0.0656537
0.0654268
0.0650853
0.0646866
0.0642363
0.0637611
0.063362
0.063102
0.0629698
0.0628993
0.0628388
0.0628013
0.0627725
0.0627493
0.0627583
0.0627551
0.0628095
0.0628936
0.0629482
0.0630475
0.0633451
0.0640612
0.0650363
0.0664879
0.0687124
0.071663
0.0734711
0.0701978
0.0653959
0.0540393
0.0129352
6.64436e-06
2.31335e-14
2.42395e-18
1.35547e-11
7.69154e-11
8.61934e-13
1.99977e-14
6.72064e-12
4.36507e-12
6.07218e-12
2.08652e-11
2.29375e-12
3.28055e-17
3.65817e-22
3.64118e-29
9.76753e-37
2.62892e-45
7.11284e-56
9.85005e-08
5.44237e-05
0.00138626
0.00779847
0.0201588
0.0342647
0.0460959
0.0543081
0.0593217
0.0621635
0.0638585
0.0649566
0.0655562
0.0657286
0.0656399
0.0654074
0.0650692
0.0646717
0.0642361
0.0637674
0.0633494
0.063086
0.0629639
0.0628958
0.0628293
0.0627824
0.0627543
0.0627362
0.0627329
0.0627413
0.0627789
0.0628485
0.0629451
0.0629937
0.0631944
0.0637383
0.0646444
0.0658687
0.0677689
0.0705033
0.0731745
0.0721072
0.0669153
0.0612386
0.0325943
0.000519982
1.48865e-10
3.4893e-13
6.07808e-12
5.28871e-11
1.25858e-11
5.23678e-14
5.92952e-15
9.0302e-13
7.37976e-14
5.24426e-15
1.81347e-13
2.98859e-13
8.09057e-19
7.26064e-25
4.34455e-32
6.51849e-40
5.99018e-49
1.196e-59
9.75852e-08
5.4063e-05
0.0013809
0.00778577
0.0201585
0.0342886
0.0461243
0.0543124
0.0593077
0.0621499
0.0638401
0.0649519
0.065555
0.0657337
0.0656338
0.0653821
0.0650539
0.0646512
0.0642241
0.063767
0.0633494
0.0630755
0.0629547
0.0628904
0.0628278
0.0627707
0.0627327
0.0627222
0.0627163
0.0627446
0.0627532
0.0628177
0.0628911
0.0629822
0.0630959
0.0634795
0.0642774
0.0653745
0.0669857
0.0694007
0.0723023
0.0733125
0.0689339
0.0642748
0.0488807
0.00657094
5.01635e-07
9.51975e-17
5.18816e-13
6.24203e-11
4.83239e-11
1.03497e-12
5.9471e-16
5.80444e-14
5.78777e-13
2.03856e-12
9.55493e-12
1.21019e-12
1.57813e-15
9.07579e-21
9.30524e-28
3.22753e-35
2.12143e-43
6.27414e-53
1.29206e-63
9.65996e-08
5.36573e-05
0.00137459
0.00776705
0.0201404
0.0342942
0.0461504
0.0543346
0.05931
0.0621405
0.0638287
0.0649382
0.0655508
0.0657359
0.0656405
0.0653732
0.0650242
0.064633
0.0642038
0.0637624
0.0633516
0.063076
0.0629447
0.0628772
0.0628201
0.0627669
0.0627201
0.0627051
0.0626939
0.0627165
0.0627396
0.0627823
0.062843
0.062926
0.0630265
0.063309
0.0639617
0.0649501
0.0663267
0.0684196
0.0712632
0.0734137
0.0710145
0.0660476
0.0582968
0.0233259
7.69947e-05
1.71467e-11
1.79633e-16
4.74916e-11
7.28395e-11
7.57607e-12
3.6961e-14
1.34669e-15
3.49469e-13
2.29096e-13
4.29318e-21
4.61981e-12
9.34666e-13
3.28264e-17
1.25773e-23
7.36504e-31
1.34383e-38
3.59941e-47
2.85074e-57
7.24184e-62
9.56337e-08
5.3221e-05
0.00136707
0.00774404
0.020111
0.0342778
0.0461558
0.0543536
0.0593227
0.0621372
0.0638162
0.0649214
0.065549
0.0657361
0.0656491
0.0653769
0.0650105
0.0645983
0.0641747
0.0637425
0.0633499
0.0630776
0.0629439
0.0628627
0.0628032
0.0627568
0.0627187
0.0626831
0.0626693
0.0627008
0.0627317
0.0627561
0.062829
0.0628944
0.0629864
0.0631588
0.0636867
0.0645883
0.0657912
0.0675938
0.0701781
0.0728588
0.0725696
0.0675403
0.0628583
0.0413935
0.00232237
9.91507e-09
3.23146e-15
1.31347e-12
8.56015e-11
9.03234e-12
5.25543e-13
1.07759e-12
1.04988e-13
4.76446e-13
2.74251e-13
6.33109e-13
4.11483e-14
2.04563e-14
1.2451e-19
1.06489e-26
3.37854e-34
2.39826e-42
9.35035e-52
1.68233e-66
5.32029e-64
9.47652e-08
5.27856e-05
0.00135878
0.00771539
0.0200737
0.0342485
0.0461469
0.0543579
0.0593333
0.062138
0.0638083
0.0649056
0.0655343
0.0657336
0.0656561
0.0653889
0.0650089
0.0645746
0.0641279
0.0637083
0.0633327
0.0630773
0.0629435
0.0628582
0.0627876
0.0627395
0.0627108
0.0626797
0.0626471
0.0626507
0.0626956
0.0627558
0.0627995
0.0628682
0.0629367
0.0630663
0.063459
0.0642191
0.0653318
0.0668672
0.0691989
0.0720148
0.0733385
0.0695355
0.0649316
0.0537654
0.0134064
5.30484e-06
1.09416e-12
7.77261e-12
1.64036e-10
2.66496e-11
8.51029e-13
1.29816e-13
3.6317e-13
6.91401e-13
7.29101e-13
6.20259e-12
1.3813e-11
2.76822e-12
3.82094e-17
1.11538e-22
5.18258e-30
7.81828e-38
1.6161e-46
3.01974e-57
2.42591e-60
3.75602e-62
9.39561e-08
5.23671e-05
0.00135027
0.00768234
0.0200255
0.0342097
0.0461252
0.0543532
0.059336
0.0621398
0.063802
0.0648934
0.0655187
0.0657255
0.0656524
0.0654045
0.0650201
0.0645737
0.0640967
0.0636582
0.0633072
0.0630701
0.0629431
0.0628585
0.0627795
0.0627203
0.0626868
0.0626712
0.0626498
0.0626447
0.0626613
0.0626969
0.0627657
0.0628369
0.0629051
0.0629966
0.0632644
0.0639483
0.0648956
0.0662869
0.068299
0.071045
0.0733041
0.0714385
0.0663717
0.0604793
0.0315122
0.000432441
9.9038e-11
5.66302e-13
1.41939e-10
7.59352e-11
1.56219e-12
3.31503e-14
1.04112e-12
7.08868e-14
5.34346e-14
1.27226e-16
1.27584e-13
4.86458e-15
9.25051e-14
1.50432e-20
5.79728e-26
1.36089e-33
6.05959e-42
3.18467e-51
2.39861e-57
1.29103e-65
1.01307e-64
9.32397e-08
5.19803e-05
0.00134188
0.00764814
0.0199691
0.0341583
0.0460955
0.0543404
0.0593316
0.0621396
0.0637971
0.0648813
0.0654996
0.0657067
0.0656405
0.0654049
0.0650444
0.0645918
0.0640981
0.0636199
0.063266
0.0630565
0.0629398
0.062858
0.0627798
0.0627135
0.0626627
0.0626445
0.0626422
0.0626323
0.0626489
0.0626849
0.0627559
0.0627983
0.0629052
0.0629732
0.0631276
0.0636561
0.0645481
0.065764
0.0675459
0.0700679
0.072721
0.0727742
0.0680132
0.0636163
0.046846
0.00547838
3.26283e-07
1.32381e-12
8.51458e-11
1.42271e-10
5.58372e-13
4.36599e-13
1.03957e-13
1.47317e-14
5.96312e-13
3.48243e-13
1.74936e-13
1.72287e-12
2.38004e-12
1.02536e-17
5.11289e-22
1.68789e-29
1.46285e-37
3.00276e-46
4.59746e-58
2.87141e-58
1.0512e-64
6.47064e-64
9.25948e-08
5.16353e-05
0.00133404
0.00761289
0.0199081
0.0340988
0.0460535
0.0543209
0.0593226
0.0621365
0.0637923
0.0648724
0.0654832
0.0656859
0.0656243
0.0653928
0.0650533
0.0646203
0.064119
0.0636158
0.0632296
0.0630313
0.0629304
0.0628552
0.0627818
0.0627128
0.0626574
0.0626192
0.0626185
0.0626325
0.0626417
0.0626482
0.0627058
0.062782
0.0628709
0.0629525
0.0630639
0.0634143
0.0642273
0.0653229
0.0668723
0.0691423
0.0719129
0.073341
0.0699223
0.0653129
0.0564155
0.0197872
3.42408e-05
1.52899e-11
7.44843e-11
2.56372e-10
2.28561e-11
3.33786e-13
7.26603e-14
8.2091e-20
1.13637e-17
1.6486e-12
3.13709e-15
1.13729e-13
3.78237e-16
2.92429e-13
2.1905e-19
1.62953e-25
2.45467e-33
9.11797e-42
3.56133e-51
3.82897e-56
1.2853e-58
3.7641e-62
1.2849e-64
9.20128e-08
5.13206e-05
0.00132697
0.00757975
0.0198445
0.0340294
0.0460027
0.0542917
0.0593141
0.0621304
0.0637936
0.0648655
0.065472
0.0656719
0.0655998
0.0653761
0.0650465
0.0646387
0.0641547
0.0636342
0.0632191
0.0630059
0.0629162
0.062848
0.0627821
0.0627159
0.0626539
0.0626078
0.0625845
0.062594
0.062633
0.0626596
0.0626702
0.0627382
0.0628288
0.0629277
0.0630117
0.0632609
0.0639085
0.0649421
0.0663166
0.0683065
0.0709951
0.0732398
0.071599
0.0666108
0.0614936
0.03683
0.00128159
1.9228e-08
1.36433e-11
2.14924e-10
6.10059e-11
1.81893e-12
1.4448e-13
1.10714e-15
1.30424e-13
1.38701e-12
8.35286e-13
2.07659e-12
5.01457e-13
7.91212e-13
4.33071e-17
1.30384e-21
3.47552e-29
2.06172e-37
1.95129e-46
1.65411e-68
7.4427e-58
4.08822e-58
5.01386e-62
5.08982e-63
9.14718e-08
5.10344e-05
0.0013204
0.00754986
0.0197825
0.0339564
0.0459445
0.0542565
0.0592965
0.0621283
0.063792
0.0648658
0.0654628
0.0656563
0.0655789
0.0653517
0.0650273
0.0646353
0.0641751
0.0636738
0.0632352
0.0629976
0.0628937
0.0628309
0.062773
0.0627158
0.0626564
0.0626063
0.0625754
0.0625748
0.0625995
0.0626437
0.0626803
0.0627095
0.0627812
0.0628923
0.0629886
0.0631512
0.0636706
0.0645737
0.0658175
0.0676011
0.0700844
0.0726854
0.0727767
0.0681802
0.0639257
0.0497761
0.00881422
1.56857e-06
1.04148e-10
2.35724e-10
7.29694e-11
5.18526e-12
3.19057e-13
1.73269e-13
1.53374e-14
8.41366e-14
2.48447e-12
2.78418e-13
5.21641e-13
4.77586e-14
2.6578e-13
8.52284e-19
3.34669e-25
3.37332e-33
7.34427e-42
8.14306e-52
7.71044e-56
8.63949e-58
2.67942e-59
1.61356e-60
1.08215e-62
9.09944e-08
5.07671e-05
0.00131447
0.00752194
0.0197266
0.0338843
0.0458834
0.0542178
0.0592763
0.0621196
0.0637897
0.0648667
0.0654617
0.065644
0.0655562
0.0653169
0.0650006
0.0646174
0.0641792
0.0637051
0.0632692
0.0630043
0.0628835
0.0628045
0.0627503
0.0627066
0.0626575
0.0626096
0.0625766
0.0625493
0.0625692
0.0626039
0.0626602
0.062703
0.0627638
0.0628436
0.0629491
0.0630823
0.0634683
0.0642802
0.0654031
0.0669746
0.06924
0.0719288
0.0732856
0.0699415
0.0654036
0.0576456
0.0240125
0.000110177
1.43398e-09
2.48015e-10
2.56326e-10
1.77456e-11
5.52811e-13
1.39534e-13
1.84166e-19
5.34974e-13
4.45872e-15
2.67766e-14
7.37727e-12
8.8944e-12
1.45888e-12
4.40443e-17
2.34585e-21
3.91177e-29
1.89944e-37
7.67812e-47
1.14273e-55
4.28999e-59
7.74793e-59
5.54611e-59
5.41186e-64
1.75137e-68
9.04871e-08
5.05271e-05