/*--------------------------------*- C++ -*----------------------------------*\
| =========                 |                                                 |
| \\      /  F ield         | OpenFOAM: The Open Source CFD Toolbox           |
|  \\    /   O peration     | Version:  v2012                                 |
|   \\  /    A nd           | Website:  www.openfoam.com                      |
|    \\/     M anipulation  |                                                 |
\*---------------------------------------------------------------------------*/
FoamFile
{
    version     2.0;
    format      ascii;
    class       volScalarField;
    location    "13200";
    object      I2_4;
}
// * * * * * * * * * * * * * * * * * * * * * * * * * * * * * * * * * * * * * //

dimensions      [0 0 0 0 0 0 0];


internalField   nonuniform List<scalar> 
39402
(
4.6638e-11
0.00106615
8.46111e-10
67.7118
3.45251e-06
1.04464e-08
6.30308e+08
0.174083
7.1353e-07
1.70803e-08
972.838
0.0763839
0.000446664
1.5441e-07
3.5066e-08
0.0192636
7.95968e-05
0.000397149
1.64877e-05
4.30937e-08
1.02694e-07
7.28905
4.26162e-06
1.33201e-06
1.58137e-05
1.83236e-06
3.70618e-08
5.02756e-07
0.0043509
0.00100866
1.30395e-07
1.65286e-07
1.58291e-06
3.89911e-07
5.80478e-08
2.43692e-06
2.89379e-05
0.000274005
4.75956e-05
3.1643e-08
2.55473e-08
3.11668e-07
1.23737e-07
1.14817e-07
1.41659e-05
1.59192e-05
8.72761e-07
0.000220256
5.54951e-06
1.54892e-08
8.71986e-09
1.17964e-07
5.08372e-08
2.90643e-07
9.42105e-05
0.00450451
6.81449e-07
2.52664e-07
0.000300892
1.16501e-06
7.78113e-09
4.0726e-09
1.15828e-07
2.63335e-08
9.28251e-07
0.000753637
2.22937e-08
0.0416399
3.27715e-07
8.80686e-08
0.000640492
4.89455e-07
2.67277e-09
1.74251e-09
6.63011e-07
1.62155e-08
4.01629e-06
0.0092682
2.40308e-05
1.04143e-06
0.000171273
8.71087e-08
3.77497e-08
0.000943151
2.68245e-07
1.91746e-09
2.319e-09
7.35756e-05
1.16559e-08
2.202e-05
0.0839688
7.14519e-05
0.0215974
1.53517e-06
1.53146e-05
2.09117e-08
1.78325e-08
0.000504454
2.48193e-07
2.38982e-09
6.25885e-08
4.43568e-08
9.99779e-09
0.000127808
0.0786815
5.05323e-07
4.37499e-05
5.64389e-07
2.94845e-08
8.0142e-07
1.45981e-08
8.70026e-09
5.77203e-05
3.5064e-07
3.57797e-09
3.70793e-06
2.45959e-09
1.01978e-08
0.000455885
0.0316216
0.00109221
1.44925e-05
5.47859e-08
4.02718e-08
4.39279e-05
3.65201e-07
3.33976e-09
6.3531e-09
6.34211e-06
1.61965e-06
9.93236e-08
1.79945e-08
1.19644e-09
1.3227e-08
0.00052462
0.0172417
2.35192e-07
2.23714e-05
0.000330105
3.43387e-09
1.46286e-11
1.24972e-06
1.73246e-07
9.57241e-10
2.84941e-09
6.29963e-07
0.00362746
9.86965e-09
2.88596e-09
1.29574e-09
2.14799e-08
0.000285154
0.013702
1.12494e-06
3.0234e-09
2.9133e-07
3.80804e-07
1.68093e-08
3.41746e-12
5.58208e-08
7.95499e-08
2.44462e-09
1.93722e-09
1.10757e-07
6.89963e-07
4.32563e-10
3.81652e-11
2.92702e-10
3.94471e-08
0.000147685
0.0113045
0.00473248
2.02379e-06
3.71073e-08
6.53129e-11
1.84995e-09
3.20039e-09
9.39319e-13
6.04652e-09
3.96695e-08
4.10191e-09
5.295e-10
2.55457e-08
1.14579e-08
1.06121e-10
1.18076e-09
1.49677e-10
9.81405e-08
6.39458e-05
0.0119234
5.83496e-06
0.815412
1.0529e-05
3.1727e-11
1.12436e-11
1.59649e-08
6.11546e-10
6.70401e-11
5.10408e-09
2.03279e-08
2.91807e-09
1.76051e-10
5.0902e-09
1.00398e-09
6.15533e-11
8.96518e-10
1.70366e-10
3.06028e-07
2.27438e-05
0.00546888
9.71887e-09
3.81953e-07
4.76584e-05
4.32448e-08
2.84692e-08
7.42117e-10
2.88466e-08
1.89233e-10
2.63481e-11
3.9569e-09
1.1e-08
2.04106e-09
1.0521e-10
8.17601e-10
1.64174e-10
2.76294e-12
1.24341e-11
1.01868e-10
1.20729e-06
3.99883e-06
0.000844103
5.14477e-06
2.0909e-10
1.03183e-08
1.24109e-06
1.44302e-07
7.55538e-09
3.25723e-09
3.88455e-10
5.30853e-11
6.07672e-14
2.67075e-09
3.81165e-09
8.48477e-10
6.44794e-11
1.45651e-10
6.01923e-11
5.65791e-10
1.00818e-11
1.16634e-10
6.51151e-06
3.74398e-08
0.00055557
2.22075e-05
1.82265e-06
2.65806e-11
1.90845e-08
1.00046e-06
2.11931e-07
2.48642e-09
1.05437e-09
7.8603e-11
2.20018e-10
3.10488e-14
1.83483e-09
2.22765e-09
3.51689e-10
5.66885e-11
4.08202e-11
3.09742e-11
6.04081e-10
2.53771e-11
1.7259e-10
3.09604e-05
1.88238e-07
0.000278737
8.00775e-05
1.53621e-06
0.0476341
5.29971e-12
4.69987e-08
1.40385e-07
3.84469e-08
9.45483e-10
3.92998e-10
1.76886e-09
8.33419e-11
1.77801e-14
1.20312e-09
1.92791e-09
2.27579e-10
9.28271e-12
1.57962e-11
8.90984e-11
1.99696e-11
4.69447e-11
2.12213e-10
0.000155224
4.77823e-06
0.000218261
8.80493e-07
1.58053e-05
2.20723e-05
0.000193237
1.42856e-12
1.32228e-08
1.22447e-07
8.97111e-09
3.89344e-10
7.6718e-10
6.47225e-10
3.43397e-11
5.02777e-13
8.10867e-10
8.09139e-10
6.77644e-11
4.29877e-12
2.73036e-11
1.38239e-10
2.41775e-11
5.35985e-11
3.94742e-10
0.000472303
9.08694e-06
0.000425914
0.000870403
1.96231e-08
5.0631e-09
0.000159419
3.74949e-08
5.02815e-13
2.02359e-08
9.63514e-08
2.50423e-09
1.7213e-10
1.07473e-09
2.24502e-10
1.77165e-12
3.4508e-12
5.23435e-10
3.32714e-10
2.71174e-11
2.2145e-12
2.48854e-11
8.57423e-11
2.01566e-11
8.86204e-11
7.79205e-10
0.000952279
2.13652e-05
0.000491883
1.81408e-06
0.000481335
2.69794e-09
5.79099e-08
0.0110125
1.5574e-07
2.22225e-13
2.48368e-08
2.95455e-08
8.14046e-10
3.72712e-10
4.89982e-10
2.98914e-10
7.03841e-14
7.47287e-12
5.00168e-10
2.04238e-10
1.24495e-11
1.80464e-12
2.02645e-11
5.10143e-11
1.37874e-11
1.30247e-10
4.08464e-09
0.00157027
5.11594e-05
0.000644294
6.68266e-06
1.45729e-07
7.87223e-06
5.1284e-10
1.67659e-07
4.11786e-06
2.24135e-08
1.10871e-13
1.08379e-08
2.46995e-08
1.33143e-09
1.96545e-10
5.53985e-10
1.29557e-10
2.88689e-13
5.51995e-11
4.29792e-10
1.20756e-10
5.13226e-12
2.87429e-12
5.68066e-11
5.45208e-11
1.72824e-11
1.7212e-10
2.47931e-08
0.00246317
0.000365008
0.000673073
0.000356499
3.14597e-05
1.36698e-07
7.60941e-09
1.28521e-10
4.21666e-08
1.45444e-07
3.77388e-09
4.69204e-11
1.21503e-08
2.04424e-08
5.82691e-10
2.02419e-11
5.79109e-10
1.40273e-10
1.4389e-12
1.38644e-10
2.62613e-10
5.46178e-11
4.95139e-12
5.57906e-12
3.97961e-11
4.95752e-11
3.84035e-11
2.3291e-10
4.73331e-07
0.00360831
0.00118552
0.000693983
2.15792e-07
9.21209e-05
3.87362e-05
2.88757e-07
1.85908e-07
4.28252e-11
1.3379e-08
1.79931e-07
1.14124e-08
2.75048e-11
2.26747e-08
8.59086e-09
2.34034e-10
1.07248e-11
2.92895e-10
1.41098e-10
3.01622e-12
1.51322e-10
3.13608e-10
3.12965e-11
2.94876e-12
1.12216e-11
4.70867e-11
2.37725e-11
1.61662e-10
7.75109e-11
3.07274e-06
0.00508863
0.00013294
0.000741917
5.30104e-07
5.37056e-09
3.47281e-08
0.000205469
3.91229e-06
6.2867e-07
1.79758e-11
2.46618e-08
1.55195e-07
3.35579e-09
3.01159e-14
1.18661e-08
6.89641e-09
1.17112e-10
5.75908e-12
2.73453e-10
1.24076e-10
1.11588e-11
1.45811e-10
3.93152e-10
2.98944e-11
3.70783e-12
2.14711e-11
4.75521e-11
1.59281e-11
3.43852e-10
2.48941e-12
5.36764e-05
0.00686839
0.00340581
0.000693957
0.000249785
6.80717e-06
1.01256e-09
3.0798e-07
0.0776373
5.15146e-05
7.79819e-07
8.88598e-12
8.17656e-08
4.16197e-08
1.17357e-09
2.15242e-14
1.0064e-08
5.63272e-09
1.20502e-11
3.5663e-13
2.49094e-10
1.07662e-10
3.59129e-11
2.07351e-10
2.17486e-10
2.03413e-11
7.53976e-12
3.37931e-11
4.01715e-11
2.47189e-11
3.36074e-09
4.54967e-09
0.000525522
0.00733963
0.689489
0.000596328
2.18151e-06
3.34588e-05
1.22119e-09
3.67893e-10
8.47832e-07
8.1914e-06
3.83358e-06
2.54048e-07
4.90034e-12
7.74016e-08
1.15847e-08
4.65033e-10
1.69874e-14
9.08773e-09
4.37183e-09
7.23429e-13
1.2326e-13
1.32176e-10
8.54837e-11
9.21647e-11
2.41677e-10
1.5833e-10
1.86545e-11
1.26802e-11
5.10871e-11
2.80931e-11
8.15731e-11
7.23382e-09
4.96332e-09
0.000271269
0.00596934
0.0150978
0.000435495
0.000323152
9.17703e-08
3.99164e-08
1.85436e-07
8.97181e-09
2.11327e-07
2.15292e-05
1.94323e-07
7.96561e-08
3.03428e-12
3.63785e-08
1.30073e-08
1.99778e-10
1.47282e-12
3.06361e-09
2.29205e-09
2.27133e-13
3.62547e-12
1.10823e-10
9.71541e-11
1.46811e-10
1.99938e-10
1.2791e-10
2.03258e-11
1.78593e-11
5.51655e-11
2.48154e-11
3.75459e-10
6.94678e-08
1.63302e-08
0.000385221
0.00405065
0.00749343
0.00027663
0.109371
1.18313e-05
3.79681e-08
1.48554e-07
7.03577e-11
2.52911e-09
6.61061e-08
2.42562e-06
2.00726e-08
9.03308e-08
2.0025e-12
1.81355e-08
5.04619e-09
1.08568e-11
1.41355e-11
2.67023e-09
1.15665e-09
1.33009e-12
1.51509e-11
9.16529e-11
1.29138e-10
1.79582e-10
1.79431e-10
9.43184e-11
2.29879e-11
2.87778e-11
5.93132e-11
3.07784e-11
1.78362e-09
2.60611e-11
3.14035e-05
0.000882781
0.00220827
0.00618601
0.000143126
9.18477e-05
0.000613979
1.27481e-07
2.7427e-08
0.0462261
2.7196e-11
1.25974e-11
1.17256e-07
3.9819e-07
4.55259e-09
3.60031e-08
1.40569e-12
1.70689e-08
2.11937e-09
4.61741e-12
8.10526e-12
1.55106e-09
9.46361e-10
9.26495e-12
3.20357e-11
4.89555e-11
1.15619e-10
2.18211e-10
1.65539e-10
6.68377e-11
2.59083e-11
3.91001e-11
3.52219e-11
2.19533e-10
1.64885e-08
1.35678e-06
0.00182226
0.00164673
0.000457683
0.00582476
6.11916e-05
9.78144e-08
1.10778e-05
0.0010872
2.98507e-06
3.29197e-08
0.0002958
5.27468e-09
6.47189e-12
1.53934e-07
3.17856e-07
9.87535e-10
3.61914e-08
1.14024e-11
1.57918e-08
2.23648e-09
2.458e-13
4.72879e-12
8.46596e-10
5.07017e-10
8.11303e-11
4.79989e-11
3.78396e-11
9.36362e-11
2.55859e-10
1.38757e-10
4.05133e-11
2.63983e-11
4.87385e-11
3.3558e-11
3.4363e-10
1.6849e-07
0.000497225
0.000140707
0.00304218
1.4199e-05
0.00772216
1.25516e-05
0.016869
1.21106e-09
5.78083e-10
4.70233e-05
4.01042e-06
8.53066e-08
3.24471e-06
2.46292e-09
1.7121e-10
6.74898e-08
9.71681e-08
3.82766e-09
3.47935e-08
8.38876e-12
8.58039e-09
2.24126e-09
1.02202e-12
1.29193e-11
4.95287e-10
2.7742e-10
1.60106e-10
8.21257e-11
3.9488e-11
1.06906e-10
2.54621e-10
1.16076e-10
2.86161e-11
2.69792e-11
4.43624e-11
3.91888e-11
8.02785e-09
1.23638e-10
0.0721155
0.00153421
0.0057013
0.000203635
0.00620313
2.79967e-06
3.55378e-05
4.61647e-05
3.48575e-06
1.69038e-10
3.90725e-06
1.12422e-05
1.37503e-06
3.66839e-06
9.02954e-10
1.13001e-10
3.12963e-08
8.17986e-08
1.48962e-10
8.57396e-09
4.18191e-12
7.47606e-09
1.98812e-09
4.03458e-12
2.46869e-11
1.07044e-10
1.52876e-10
1.69366e-10
1.4191e-10
3.7038e-11
1.06361e-10
2.68577e-10
1.13165e-10
1.95798e-11
2.70184e-11
4.2789e-11
3.82967e-10
5.676e-08
2.13971e-08
0.0200408
0.00121478
0.00596779
0.000257242
0.00678084
1.81186e-06
7.03591e-06
1.49622e-06
4.87068e-05
8.70741e-06
4.19153e-11
9.20392e-06
0.0203415
3.78216e-05
5.25315e-07
6.35878e-09
5.18449e-11
3.61358e-08
3.344e-08
2.24677e-12
1.79887e-09
3.27241e-12
4.33685e-09
1.05708e-09
8.11814e-11
3.38261e-11
5.91247e-11
5.70273e-11
2.64844e-10
2.26593e-10
3.22359e-11
1.08008e-10
2.49371e-10
9.81554e-11
1.40325e-11
2.21606e-11
3.21389e-11
3.18026e-10
1.33675e-07
0.00325787
0.00145609
0.000624487
0.0043795
0.523411
0.00404141
1.60284e-06
0.173514
2.25168e-07
6.74316e-07
2.76999e-06
7.13522e-08
4.53303e-08
1.72046e-06
0.000454614
5.20782e-08
1.11869e-07
2.68162e-10
4.80893e-10
3.86627e-08
1.34245e-08
2.38169e-11
9.42567e-10
1.49066e-11
1.51242e-09
5.28547e-10
9.40353e-11
4.17542e-11
3.55184e-11
3.08784e-11
4.09496e-10
2.47588e-10
3.19702e-11
9.87814e-11
2.05779e-10
7.77777e-11
1.15582e-11
1.37264e-11
3.08775e-10
3.80103e-08
1.77606e-06
0.483403
5.40126e-05
0.000915272
0.00231095
0.00510213
0.0021101
1.5291e-06
2.39087e-09
0.023168
6.85029e-08
5.2793e-07
2.00414e-09
2.13011e-08
1.61106e-08
4.13032e-07
6.56464e-06
3.77838e-09
3.12033e-08
1.10457e-10
2.85753e-10
2.01103e-08
2.38776e-08
7.82865e-13
1.8381e-10
4.78001e-11
5.16083e-10
7.6649e-10
1.57141e-10
7.25144e-11
1.14919e-11
3.79174e-11
4.33711e-10
2.35365e-10
4.01215e-11
7.43329e-11
1.77316e-10
6.80048e-11
1.15264e-11
4.98098e-12
3.34408e-10
3.46498e-07
3.32675e-05
5.1785e-05
0.000375004
0.00161907
0.000995057
0.00256139
0.000856178
1.51949e-06
1.83561e-09
5.24095e-11
4.74991e-07
3.31626e-08
7.41102e-07
9.22879e-10
5.69356e-13
4.8436e-09
1.2202e-07
6.12226e-07
6.92022e-10
4.71993e-08
8.61916e-10
1.70885e-10
1.95253e-08
1.18597e-08
3.97473e-11
3.68009e-12
6.17678e-12
2.83533e-10
4.30626e-10
4.47767e-10
1.05298e-10
6.73601e-12
2.18883e-11
4.16037e-10
2.63034e-10
4.86423e-11
6.29412e-11
1.34498e-10
6.22863e-11
1.09865e-11
6.78698e-11
1.33355e-08
4.39187e-08
0.00160102
0.000513096
0.000296336
0.00233085
0.000256765
0.00400619
0.00032531
1.55483e-06
2.0558e-06
4.12659e-11
8.92012e-12
0.00153996
8.04887e-07
2.63791e-06
8.32324e-08
1.7681e-13
2.43621e-09
2.08577e-07
5.31663e-07
1.97289e-10
1.88999e-08
4.43156e-11
1.04389e-10
1.10091e-08
5.63103e-09
2.0393e-11
1.00883e-12
1.52748e-11
9.55451e-11
2.29649e-10
6.21812e-10
1.20856e-10
3.89987e-12
1.19787e-11
3.6899e-10
2.58291e-10
5.51073e-11
5.78344e-11
9.77748e-11
6.14333e-11
1.15992e-11
1.84779e-10
1.71929e-07
4.13825e-05
0.0103793
0.000386011
0.00102713
0.00317542
1.42035e-05
0.00334196
0.000113206
1.6251e-06
7.98083e-07
3.87282e-08
3.4968e-08
2.33848e-12
1.7991e-08
9.02199e-07
0.000189217
4.08552e-08
1.85058e-09
8.81839e-10
2.67008e-07
1.46681e-07
6.09954e-10
1.53448e-09
1.98509e-11
2.98828e-10
3.19176e-09
5.05219e-09
4.76564e-11
2.08994e-11
2.82958e-11
2.48829e-11
2.86155e-10
5.78113e-10
1.6957e-10
3.81009e-12
9.56831e-12
2.77228e-10
2.48511e-10
6.9308e-11
5.15916e-11
6.32655e-11
4.63562e-11
9.93565e-11
5.80648e-09
1.01171e-06
0.000233198
8.4838e-05
6.21785e-05
0.000848558
0.00393865
1.27358e-05
0.00344141
4.13593e-05
1.53254e-06
2.30651e-08
2.69543e-08
5.22485e-09
9.66985e-09
8.45247e-13
4.30123e-05
1.5254e-06
2.14609e-05
1.02533e-10
7.58232e-10
7.87484e-09
1.12061e-07
4.19283e-08
2.67275e-10
6.69453e-10
1.52116e-11
2.00395e-10
1.78186e-09
2.65667e-09
3.99951e-10
8.82836e-11
3.79915e-11
1.56211e-11
1.66607e-10
6.25683e-10
2.40661e-10
7.92069e-12
9.39766e-12
1.8078e-10
2.34269e-10
8.33522e-11
4.516e-11
4.16386e-11
3.72637e-11
5.19661e-10
8.86777e-08
1.22384e-10
0.0153469
0.00138764
5.50364e-06
0.00099827
0.0020674
0.0407208
0.00266346
1.61689e-05
1.46703e-06
1.09415e-08
3.23739e-08
6.30008e-07
1.21505e-09
7.75229e-13
3.75613e-13
3.49103e-06
1.14415e-05
2.07151e-06
6.41942e-09
4.93152e-10
3.91465e-09
1.1951e-07
1.18878e-07
8.89175e-11
3.12253e-10
1.74796e-13
2.44563e-11
1.00694e-09
1.43841e-09
7.29125e-10
3.21256e-10
4.69052e-11
3.87131e-12
9.30879e-11
6.31796e-10
2.93356e-10
1.59564e-11
1.10531e-11
1.26553e-10
2.00171e-10
9.38431e-11
4.369e-11
2.168e-11
5.06043e-11
5.28868e-09
2.40573e-06
0.000555036
0.00371325
0.00138181
0.000511029
0.00142418
0.00093653
0.000953526
0.0013917
6.99722e-06
1.47965e-06
1.33299e-10
2.81627e-10
6.80263e-09
2.92428e-07
4.07253e-10
1.31341e-09
1.75636e-13
5.41517e-12
0.121646
2.15036e-07
3.51978e-09
2.02745e-10
9.87811e-09
5.91592e-08
5.03694e-08
4.62848e-10
1.41534e-11
2.35819e-12
6.78646e-11
5.79698e-10
8.0015e-10
9.58875e-10
6.7471e-10
4.95618e-11
8.95546e-13
7.78103e-11
5.03547e-10
3.49031e-10
2.85633e-11
1.34557e-11
8.66086e-11
1.42826e-10
1.05646e-10
5.28352e-11
1.30544e-11
2.21599e-10
4.64597e-08
1.68469e-05
6.71087e-05
0.000276992
0.0010272
0.00563639
0.00190238
0.000240204
0.00187125
0.000545702
5.21209e-06
1.48409e-06
8.00168e-09
3.54545e-12
5.56652e-09
2.04886e-09
3.42126e-09
1.68135e-10
7.36392e-10
1.07011e-13
6.85635e-08
0.000104166
6.36748e-09
1.28527e-09
1.87831e-09
5.69331e-09
2.71699e-08
2.03805e-08
2.1015e-10
6.04648e-14
2.14711e-11
4.63779e-11
3.38263e-10
4.52468e-10
1.16565e-09
1.01542e-09
5.05215e-11
5.12713e-13
4.52589e-11
4.47251e-10
4.72995e-10
4.59464e-11
1.9401e-11
4.84226e-11
9.76405e-11
1.11117e-10
5.94546e-11
1.55023e-11
6.37595e-10
1.63341e-06
1.78078e-05
0.000609099
0.0028462
0.000187516
0.000735916
0.0027573
1.12051e-05
0.00201131
0.0001723
6.41455e-06
1.64682e-06
3.72472e-10
2.04281e-10
6.1102e-08
2.69366e-08
1.35313e-08
1.34337e-07
8.07562e-11
3.38195e-10
6.39926e-14
3.15213e-07
3.56859e-06
1.99817e-09
7.87915e-09
8.23567e-11
5.67164e-10
2.97811e-08
2.02431e-08
4.56641e-10
2.60324e-11
1.24993e-11
6.1334e-12
9.84394e-11
2.5978e-10
1.21684e-09
1.6245e-09
6.9298e-11
8.75959e-13
3.56793e-11
2.94392e-10
5.30544e-10
8.2339e-11
2.81636e-11
2.86867e-11
6.64051e-11
1.13395e-10
8.39611e-11
2.17958e-10
3.17923e-09
4.44032e-06
0.0285391
0.00103529
0.00126287
3.11017e-05
0.000626639
0.00238895
0.000439057
0.00239447
5.78921e-05
7.6858e-06
1.75738e-06
3.91441e-08
2.76505e-09
4.25076e-11
2.18053e-08
7.75859e-10
7.40387e-09
2.59819e-06
4.48723e-11
2.437e-10
4.142e-14
9.58896e-08
4.49884e-07
2.89773e-09
3.89099e-09
3.57219e-11
3.11701e-10
1.56174e-08
9.86275e-09
7.52455e-10
2.66766e-10
1.07101e-10
1.56874e-11
2.35992e-11
1.52776e-10
1.56702e-09
1.76476e-09
1.17878e-10
2.19456e-12
2.76783e-11
1.84192e-10
5.74436e-10
1.45816e-10
4.30217e-11
1.98492e-11
3.81688e-11
9.18298e-11
1.9161e-10
1.34923e-09
9.19087e-07
8.59524e-05
0.00266194
0.00126779
0.00221975
8.63329
0.00109269
0.00113596
0.000856461
0.00146572
2.31007e-05
6.96479e-06
1.61093e-06
2.08275e-09
4.52163e-18
5.16261e-10
4.10859e-09
1.92231e-13
5.80696e-09
2.53095e-08
4.36953e-06
2.77234e-11
1.2527e-10
1.49066e-10
3.39626e-08
9.71654e-08
1.32003e-09
1.95072e-09
3.40737e-10
8.58303e-10
8.40647e-09
4.9803e-09
9.12184e-10
3.46492e-10
1.73945e-10
1.06875e-11
1.43994e-11
9.10431e-11
1.43438e-09
2.03649e-09
1.55513e-10
9.41015e-12
2.03826e-11
1.18145e-10
5.2103e-10
2.05006e-10
6.30517e-11
1.66297e-11
2.37954e-11
7.92825e-11
1.02087e-09
4.00249e-09
9.99468e-06
0.00105794
0.000650118
0.00161575
0.000511243
0.0227406
0.00139743
0.000295389
0.000866279
0.000602272
1.24122e-05
6.59144e-06
1.62205e-06
1.78545e-05
5.10161e-11
3.11058e-09
1.40014e-10
1.69215e-09
1.30942e-13
2.17666e-08
6.77534e-08
1.3882e-05
1.34524e-09
1.26029e-09
1.10505e-10
1.34017e-08
1.3354e-07
4.98053e-10
1.10663e-10
1.99297e-10
5.39556e-10
4.5939e-09
4.73733e-09
1.88905e-09
1.27475e-09
1.95736e-10
5.99435e-12
3.32208e-12
5.44494e-11
1.25778e-09
1.89289e-09
2.20675e-10
2.71299e-11
1.49321e-11
4.95203e-11
4.35006e-10
2.46395e-10
8.63858e-11
1.75096e-11
1.4036e-11
8.90329e-11
3.98555e-09
2.89772e-06
7.78213e-07
0.176926
1.11873e-05
0.00211309
0.000140255
0.00477739
0.00219006
2.4024e-05
0.00168422
0.000200325
1.05729e-05
7.33274e-06
5.01164e-06
3.59055e-07
6.0817e-06
1.04662e-11
9.364e-10
9.0351e-10
6.61418e-10
3.81467e-09
1.60082e-08
6.38149e-08
0.000197217
9.42634e-10
3.73316e-09
1.34331e-14
2.8218e-08
1.52619e-07
2.07927e-09
4.92049e-11
1.16887e-10
5.62786e-11
2.56405e-09
4.47941e-09
1.81818e-09
1.85447e-09
3.90605e-10
2.61941e-11
1.91735e-12
3.26406e-11
9.01548e-10
1.62227e-09
3.07967e-10
5.8972e-11
1.03741e-11
2.66806e-11
3.26487e-10
2.6217e-10
1.20054e-10
2.88638e-11
1.20007e-11
3.08454e-10
4.69675e-09
6.11972e-05
6.40317e-05
0.383867
0.000450449
0.00271315
0.000162577
0.000497571
0.00194901
0.0297017
0.00170493
6.50714e-05
1.23428e-05
6.59283e-06
3.19367e-06
2.6012e-08
7.88317e-10
0.150698
2.89074e-10
3.68553e-10
2.13958e-09
6.00884e-09
4.19543e-09
4.93652e-08
6.73635e-08
0.0198801
4.56299e-10
2.62513e-09
9.51029e-15
4.32643e-08
1.39484e-07
9.81828e-10
2.98719e-10
3.15362e-10
3.21972e-11
7.13283e-10
2.47091e-09
1.61276e-09
2.16527e-09
5.5117e-10
6.01975e-11
3.38381e-12
1.19783e-11
5.31239e-10
1.37641e-09
4.14113e-10
1.34671e-10
1.28191e-11
1.64978e-11
2.325e-10
2.48799e-10
1.49378e-10
4.53177e-11
4.26867e-11
1.30345e-09
1.10619e-06
3.27325e-09
1.97621e-07
2.25655e-06
0.00130932
0.00302303
0.000156202
0.000921582
0.000687346
0.000572947
0.0009942
2.81711e-05
1.16381e-05
5.88136e-06
1.53821e-07
1.12403e-07
3.05211e-11
1.67533e-09
0.000268682
1.38749e-09
8.67774e-10
1.24106e-09
3.47744e-09
3.87852e-09
5.0706e-08
1.89977e-07
2.24478e-05
3.3354e-10
1.56428e-09
6.69283e-15
2.08196e-08
1.26035e-07
1.99449e-09
2.14436e-11
2.06533e-10
1.85658e-11
3.81715e-10
1.40419e-09
2.07517e-09
3.14657e-09
9.58635e-10
6.24128e-11
4.54139e-12
6.96581e-12
3.12811e-10
8.84669e-10
4.66265e-10
2.59901e-10
1.62522e-11
8.76195e-12
1.47292e-10
1.86904e-10
1.87028e-10
1.08367e-10
3.84459e-10
2.0454e-09
1.55723e-05
1.0212e-05
0.0180057
0.00237473
0.00128086
0.000999946
0.00144961
0.00175509
0.000201435
0.00114121
0.000332669
1.66883e-05
1.29567e-05
1.26149e-05
0
1.16045e-07
2.4348e-10
1.10195e-10
7.43257e-11
1.83526e-07
6.37015e-11
1.58115e-09
2.34444e-09
2.1952e-09
1.01414e-07
1.35754e-07
5.21342e-07
1.31155e-06
1.61095e-10
1.1351e-09
4.75635e-15
2.5074e-08
5.64017e-08
1.09466e-09
1.03562e-11
2.44741e-11
1.08791e-11
4.83878e-10
8.08983e-10
1.729e-09
2.41744e-09
1.00701e-09
1.26486e-10
9.95661e-12
7.23525e-12
1.52758e-10
6.27731e-10
4.2447e-10
3.91242e-10
1.73671e-11
6.6259e-12
8.6911e-11
1.29923e-10
1.7048e-10
5.39025e-10
4.89877e-09
1.48886e-06
5.7429e-07
0.0010859
0.0258843
0.00118972
0.00124839
6.67664e-06
0.0139918
0.00138483
0.000214689
0.00149571
0.000115613
1.73919e-05
1.20881e-05
2.87735e-05
0
5.73774e-08
1.9786e-10
3.77489e-11
2.54828e-12
3.80726e-11
5.44784e-08
3.28166e-11
1.0254e-09
4.34149e-09
7.34196e-09
1.72282e-07
3.49496e-07
1.36856e-06
9.51594e-07
1.05287e-09
6.82924e-10
9.10306e-12
5.08885e-08
4.86675e-08
5.21975e-10
5.58001e-11
6.58525e-11
5.50382e-13
2.8581e-10
4.70973e-10
1.01142e-09
1.799e-09
9.87186e-10
3.4756e-10
1.60122e-11
6.76921e-12
7.29283e-11
3.51602e-10
3.58513e-10
5.37614e-10
2.74588e-11
7.38197e-12
5.33183e-11
6.31659e-11
1.41207e-10
2.05169e-09
4.5064e-08
5.2696e-05
0.00016278
5.10467e-06
2.62353e-05
0.000317824
0.00272571
0.000600242
0.000392059
0.00104347
0.00572688
0.000870721
4.21363e-05
1.6244e-05
1.51397e-05
2.2752e-08
0
2.69586e-05
1.49723e-09
4.22991e-11
1.46033e-13
1.2543e-12
2.3553e-11
1.25473e-07
1.05425e-09
1.75753e-09
3.0539e-09
5.48866e-09
3.74129e-07
4.60572e-07
2.44233e-06
2.34845e-07
6.47202e-10
1.46014e-09
7.67884e-12
4.76558e-08
4.23721e-08
8.76998e-10
4.89271e-12
4.40685e-11
2.69161e-13
8.42111e-11
2.78027e-10
5.96584e-10
1.67023e-09
1.10596e-09
6.09611e-10
4.01008e-11
8.9007e-12
4.19601e-11
1.54691e-10
2.89695e-10
6.68278e-10
4.32533e-11
1.17357e-11
4.29829e-11
3.06273e-11
2.22711e-10
9.13583e-09
5.88159e-06
7.31407e-06
0.0027977
0.00676134
6.41385
0.000449908
0.00241187
0.000120229
0.00240935
0.000280626
0.000797365
0.000382108
2.50255e-05
1.85667e-05
1.46513e-05
4.22529e-31
1.35394e-24
2.23604e-07
1.06309e-06
1.55813e-12
1.41162e-11
7.01884e-14
7.60259e-13
1.81307e-11
2.30223e-08
7.98552e-10
2.8347e-09
4.97892e-09
3.52353e-09
6.41792e-06
1.28483e-06
5.33016e-06
1.24945e-08
1.60765e-09
3.36347e-10
3.54551e-12
2.62065e-08
3.44189e-08
1.10253e-09
2.58487e-12
5.47432e-12
2.35905e-12
4.70847e-11
1.6548e-10
3.52319e-10
1.22458e-09
1.35689e-09
8.45428e-10
1.09349e-10
1.35904e-11
1.94086e-11
5.9211e-11
1.94493e-10
7.3664e-10
5.92517e-11
2.18119e-11
4.21152e-11
7.62429e-12
3.53352e-10
1.58486e-07
6.61892e-05
0.000652836
0.00558436
0.0109797
0.00383159
0.00117805
0.00121137
0.00273501
0.00160665
2.17552e-06
0.00136773
0.00012084
2.20253e-05
1.74217e-05
1.01912e-05
1.16836e-28
0
2.39609e-07
6.60887e-09
4.56521e-07
5.85604e-13
6.57382e-12
4.09548e-14
5.38581e-13
1.65501e-11
2.08175e-07
5.66153e-10
4.03355e-09
3.83266e-09
2.71587e-09
0.000216102
4.16032e-06
3.52682e-05
4.3492e-09
1.08651e-09
2.03566e-10
1.73011e-10
3.4996e-08
4.12446e-08
6.50093e-10
2.06164e-12
3.36362e-12
6.65829e-12
1.10224e-10
9.89144e-11
1.50414e-10
7.3227e-10
1.4761e-09
1.12696e-09
1.65285e-10
2.13092e-11
1.05815e-11
2.15209e-11
1.03532e-10
6.23963e-10
7.84016e-11
5.18475e-11
1.06335e-10
7.53069e-11
1.54683e-10
3.65727e-06
5.29467e-05
0.000418128
0.00050249
0.000175201
0.000603276
0.000468101
0.0575021
0.000901292
0.000909339
0.00263859
0.000733636
5.06071e-05
2.07744e-05
1.28903e-05
4.6954e-07
0
5.97539e-19
4.45909e-07
3.35309e-08
1.62249e-09
3.31347e-07
3.68678e-11
2.97851e-12
3.08905e-14
4.76992e-13
1.78897e-11
7.79859e-07
1.33265e-09
5.52901e-09
2.98652e-09
3.44845e-10
0.010374
1.03456e-05
0.000434477
1.7576e-09
6.17886e-10
4.32286e-10
1.2133e-10
4.31922e-08
2.30787e-08
3.41344e-10
1.68286e-13
2.18025e-13
1.34758e-11
6.93663e-11
5.98574e-11
6.07009e-11
3.59353e-10
1.15117e-09
1.60397e-09
2.62034e-10
3.72885e-11
5.93708e-12
1.00529e-11
5.01055e-11
4.81677e-10
9.86558e-11
8.02918e-11
3.06895e-10
2.69423e-10
3.52783e-07
1.02383e-07
0.116578
0.740396
0.308688
0.0165934
0.000975361
0.000984545
1.42963e-05
0.000743369
0.000119106
0.00135377
0.00031241
3.07627e-05
2.14566e-05
1.06557e-05
0
0
0
3.50976e-07
3.83403e-08
1.53385e-09
7.46902e-09
3.85715e-07
2.11949e-11
2.10413e-12
2.58965e-14
8.19483e-12
2.03227e-10
3.17935e-07
1.02674e-09
4.44426e-09
4.34828e-09
2.45895e-10
0.000200836
4.61132e-05
0.517257
7.71419e-10
1.15202e-09
2.88522e-10
2.09948e-10
2.52265e-08
1.23653e-08
4.12207e-10
1.28696e-13
2.95093e-15
1.92212e-11
6.63029e-11
3.60195e-11
2.46497e-11
1.35977e-10
8.58877e-10
1.77245e-09
4.56904e-10
7.39119e-11
5.56341e-12
5.36291e-12
2.10518e-11
2.77064e-10
8.35797e-11
2.02095e-10
3.30457e-09
4.90937e-10
1.82859e-05
6.06029e-05
6.3994
0.210421
0.0650969
0.0467564
0.00149166
0.000936748
1.67168e-05
0.00174596
0.000108351
0.000828633
0.000101848
2.42575e-05
2.44236e-05
0.000280256
0
0
4.31926e-12
7.90035e-07
2.9759e-08
2.71979e-09
2.47969e-09
1.45336e-08
4.72096e-05
1.25666e-13
1.26087e-12
1.83638e-12
9.48699e-12
2.77524e-10
1.23694e-07
8.06058e-10
3.64149e-09
3.66994e-09
1.76327e-10
2.51292e-05
0.00169565
9.29109e-05
3.52097e-10
7.2463e-10
6.84434e-11
7.30471e-10
2.69373e-08
1.37052e-08
2.37403e-10
1.02386e-13
4.14648e-13
7.60914e-11
1.0232e-10
2.18082e-11
3.44414e-12
4.8873e-11
7.23979e-10
1.75096e-09
5.58561e-10
1.27784e-10
9.15622e-12
3.70319e-12
8.59806e-12
1.81545e-10
5.72157e-11
3.20919e-10
1.28723e-08
3.2407e-06
2.89669e-06
0.000105625
0.00034756
0.000797965
0.000183759
0.000130743
0.00144558
0.00151694
0.00198959
0.000758818
0.000766101
0.000522414
5.01219e-05
2.84137e-05
2.10589e-05
0
0
2.02399e-16
1.94297e-08
3.49711e-06
1.63936e-07
6.6829e-09
6.84588e-09
7.83255e-09
7.28215e-09
0.000173294
7.52084e-12
1.72864e-11
2.02221e-12
8.62716e-12
3.08003e-10
1.78564e-07
1.46845e-09
3.02158e-09
1.55218e-09
1.25408e-10
3.85037e-06
0.0476275
2.55186e-06
2.1397e-11
4.61554e-10
1.0007e-11
4.69924e-10
2.80103e-08
1.05881e-08
1.37032e-10
1.26829e-13
1.16203e-11
1.701e-10
1.7093e-10
8.23005e-12
3.31086e-13
1.19609e-11
4.68482e-10
1.4938e-09
5.85804e-10
1.82271e-10
1.73226e-11
7.26461e-12
3.12322e-12
8.6918e-11
1.82531e-11
1.7871e-09
2.74088e-08
0.000154524
0.00019375
0.00474841
0.00473756
0.00498125
0.010681
0.00114726
0.000797214
0.0376823
0.00121291
0.000148181
0.00129141
0.00019122
4.13861e-05
2.78623e-05
4.71284e-05
0
0
0
0.000136588
1.11965e-06
3.00028e-07
1.53906e-08
1.11739e-08
1.08784e-08
1.45461e-08
3.80377e-09
0.00107934
7.43309e-12
1.51584e-11
1.68298e-12
6.97127e-11
2.57688e-09
2.19338e-07
1.26276e-09
2.53214e-09
6.17307e-10
6.42544e-12
9.01125e-07
6.16494e-05
3.96804e-07
3.55152e-11
2.96267e-10
6.94264e-12
9.09823e-10
1.66526e-08
4.5052e-09
8.01179e-11
4.87073e-13
2.73934e-11
3.49712e-10
3.08002e-10
7.68404e-12
1.17133e-13
1.41052e-12
2.38308e-10
9.95401e-10
5.58686e-10
2.50044e-10
3.56281e-11
1.87704e-11
2.37872e-12
9.68814e-11
4.66639e-11
3.50164e-09
2.87963e-06
6.73311e-05
0.00114207
0.00715356
0.00748404
0.0100205
0.0108187
0.000375402
1.76435e-06
0.0117418
0.00104953
0.01855
0.00061929
8.56345e-05
3.12574e-05
3.30073e-05
0
4.49673e-23
8.30213e-17
0
1.85969e-06
1.30296e-05
4.27824e-07
2.20086e-08
2.54831e-08
1.44161e-08
1.4472e-08
1.41476e-08
1.71007e-08
0.00429346
5.44563e-12
6.73632e-11
7.74967e-11
7.65695e-11
3.88704e-09
1.05012e-07
4.39695e-10
1.27924e-09
6.23041e-11
2.12309e-13
4.91253e-07
7.45405e-06
4.79791e-08
1.26569e-10
1.91844e-10
6.27491e-13
2.14227e-09
1.25742e-08
2.51343e-09
4.73329e-11
3.13829e-13
6.90354e-11
5.56505e-10
3.51118e-10
1.12716e-11
1.489e-13
1.40245e-13
1.16659e-10
6.09373e-10
4.43632e-10
3.12477e-10
8.14021e-11
5.81849e-11
1.5735e-12
9.74757e-11
8.08692e-11
1.65023e-07
3.28482e-05
0.000541638
0.000957575
0.000147899
0.000360968
38.344
0.00351904
0.00158061
0.000320797
0.00049786
0.000200868
0.00102311
0.000329892
5.40585e-05
3.09575e-05
1.30093e-05
0
0
0
0
0
1.05892e-06
3.44531e-07
1.11987e-07
2.34517e-08
3.38027e-08
1.73375e-08
1.26267e-08
1.45718e-08
2.45291e-08
0.000223452
9.52192e-11
2.11848e-10
2.41944e-10
3.28983e-10
2.15379e-08
5.50713e-08
3.65428e-10
5.69014e-10
4.46453e-11
6.79115e-11
3.06694e-07
1.3855e-06
5.89865e-09
7.32683e-11
1.25239e-10
1.2475e-13
1.97725e-09
1.18038e-08
1.98378e-09
2.83609e-11
7.12725e-13
1.21672e-10
8.32455e-10
5.91054e-10
1.31553e-11
1.83762e-13
1.97613e-14
5.05832e-11
3.09869e-10
3.03248e-10
3.17937e-10
1.14493e-10
1.57629e-10
5.7895e-12
1.29692e-09
3.97252e-11
9.43605e-06
0.000125351
5.14857e-05
0.0771418
1.26249
2.29163
0.00996651
0.00207037
0.00164851
2.5935e-07
0.00133803
0.000330061
0.000694422
0.000118926
3.7188e-05
3.36182e-05
0
0
0
0
1.66168e-05
2.11861e-06
1.98913e-06
3.55492e-08
8.59918e-08
4.29553e-08
4.87502e-08
3.91228e-08
2.7485e-08
2.31554e-08
2.36623e-08
1.83543e-08
2.63844e-05
4.66391e-10
2.12699e-10
2.6257e-10
1.14727e-09
1.19671e-07
3.03414e-08
3.03243e-10
1.0179e-10
8.44268e-12
7.15578e-10
1.24171e-07
1.30708e-07
2.00166e-10
1.39976e-10
3.34922e-11
1.11925e-12
2.28887e-09
8.78199e-09
1.15903e-09
9.34781e-12
2.99226e-12
1.67032e-10
1.22358e-09
9.17063e-10
3.04383e-11
8.96083e-14
7.66297e-15
1.60457e-11
1.274e-10
1.5257e-10
2.70827e-10
2.26045e-10
4.7485e-10
2.68866e-11
5.24491e-09
1.9152e-06
3.91893e-08
0.00508375
2.0942e-05
3.30187
7.27882
8.42596
0.00669754
0.00191014
0.072842
0.00179758
0.000586304
0.000844362
0.000406256
7.53182e-05
4.08229e-05
7.67417e-05
0
0
5.10784e-12
5.45957e-07
0
0.000608658
7.86058e-07
3.06551e-07
1.0286e-08
6.69872e-07
1.01588e-07
1.19973e-07
6.27103e-08
4.21037e-08
4.00036e-08
3.62387e-08
2.5664e-08
2.12869e-05
5.28433e-10
1.07714e-09
1.34111e-09
6.23441e-09
3.39351e-07
1.71299e-08
9.59906e-11
4.87157e-12
1.3659e-12
1.14193e-09
8.64251e-08
2.18322e-08
1.8607e-11
2.19241e-10
6.90238e-12
1.07235e-11
3.21994e-09
5.29309e-09
6.73942e-10
2.94058e-12
1.95975e-12
2.99249e-10
1.48927e-09
1.27904e-09
5.93611e-11
5.73594e-14
9.86528e-15
6.36842e-12
4.79302e-11
8.28312e-11
2.03539e-10
1.37774e-10
1.24578e-09
2.63702e-09
2.32283e-08
0.000171305
6.26896e-07
0.00210248
0.000455994
0.0002623
0.00205755
0.00200626
0.00462045
0.000437735
0.0143472
0.00100578
0.0004276
0.000957512
0.000167104
5.94179e-05
5.18485e-05
6.61905e-32
0
0
2.69401e-05
0
0
0
2.79917e-06
1.21323e-07
8.39161e-08
2.06577e-07
3.29745e-07
4.06507e-07
1.45536e-07
7.11231e-08
4.89916e-08
5.01365e-08
5.26816e-08
5.50823e-08
6.05706e-06
1.67509e-09
3.9734e-09
5.14155e-09
2.71537e-08
6.0536e-06
1.02588e-08
3.90205e-12
2.89537e-13