/*--------------------------------*- C++ -*----------------------------------*\
| =========                 |                                                 |
| \\      /  F ield         | OpenFOAM: The Open Source CFD Toolbox           |
|  \\    /   O peration     | Version:  v2012                                 |
|   \\  /    A nd           | Website:  www.openfoam.com                      |
|    \\/     M anipulation  |                                                 |
\*---------------------------------------------------------------------------*/
FoamFile
{
    version     2.0;
    format      ascii;
    class       volScalarField;
    location    "13200";
    object      k;
}
// * * * * * * * * * * * * * * * * * * * * * * * * * * * * * * * * * * * * * //

dimensions      [0 2 -2 0 0 0 0];


internalField   nonuniform List<scalar> 
39402
(
2288.97
91.9286
494.074
34.1928
17.2768
175.884
32.9298
5.83151
7.87786
81.5756
38.1668
13.4429
2.35575
6.02445
47.9954
43.0549
22.8394
52.6791
2.0719
5.98664
35.0765
45.8925
29.1248
106.34
166.948
3.03553
6.49455
29.5191
47.5889
33.0034
140.891
340.118
389.827
4.94368
7.05246
26.7244
48.097
35.1951
162.288
451.227
790.111
743.983
7.67116
7.42863
25.0247
48.0078
36.0388
174.379
519.628
1044.47
1488.91
1227.64
11.0271
7.54072
23.7958
47.5164
36.1726
179.213
558.41
1199.08
1951.55
2407.74
1809.64
14.6665
7.40584
22.8096
46.812
35.8618
180.222
573.97
1286.41
2226.16
3113.74
3459.62
2438.39
18.273
7.09419
21.8209
45.9886
35.3404
178.847
577.368
1321.33
2378.96
3518.88
4401.29
4536.85
3063.19
21.7013
6.68303
20.8551
45.1164
34.6854
176.334
573.157
1329.04
2439.23
3738.24
4920.96
5676.99
5550.45
3661.73
24.819
6.21847
20
44.2402
33.9523
173.081
565.281
1319.71
2452.13
3822.6
5192.37
6281.95
6845.44
6468.94
4211.83
27.5798
5.74244
19.2394
43.3939
33.2307
169.351
554.935
1302.15
2435.5
3839.11
5293.25
6585.43
7508.02
7876.45
7262.77
4694.42
29.9376
5.30132
18.5423
42.5655
32.5218
165.68
543.041
1278.99
2404.74
3813.47
5309.42
6693.86
7826.95
8574.53
8750.07
7910.89
5090.27
31.2378
4.93353
17.8889
41.7514
31.8176
162.042
531.275
1252.32
2364.14
3768.41
5274.29
6705.85
7936.3
8897.43
9469
9457.4
8400.84
5371.48
30.221
4.65493
17.2655
40.9447
31.1252
158.394
519.567
1225.75
2317.53
3709.43
5216.14
6661.57
7941.51
9003.53
9789.31
10190.5
9997.14
8725.34
5482.76
26.7292
4.46982
16.6574
40.123
30.4278
154.805
507.789
1199.25
2270.92
3642.09
5141.23
6592.83
7889.42
9000.8
9889.9
10507
10746.2
10370.2
8865.54
5358.7
21.158
4.36838
16.0571
39.3767
29.6998
151.17
496.177
1172.53
2224.23
3574.56
5056.74
6506.19
7812.98
8941.99
9879.52
10601.7
11062.3
11146.2
10582.1
8822.81
5017.7
14.9037
4.30962
15.4732
38.7231
29.0729
147.376
484.425
1146.11
2177.06
3506.76
4971.77
6409.62
7718.64
8859.92
9816.05
10585.8
11152.9
11469.4
11400.7
10633.5
8586.64
4468.06
9.49504
4.16939
14.9294
38.0089
28.5271
144.114
472.176
1119.37
2130.27
3438.12
4886.41
6312.61
7614.83
8760.67
9730.8
10520
11134.9
11560.5
11741.9
11516.3
10519.3
8147
3741.73
5.6793
4.01966
14.5036
37.3508
27.8844
141.266
461.59
1091.57
2082.89
3369.9
4799.9
6215.11
7510.73
8652.7
9629.55
10434
11069.3
11544.6
11840.8
11890.4
11494.5
10234.4
7500.97
2897.54
3.48031
3.87406
14.226
36.7203
27.3315
137.893
452.29
1067.4
2033.75
3300.7
4713.81
6116.36
7406.17
8544.72
9520.57
10333.5
10985.1
11482.4
11832
12007.4
11921.6
11334.7
9772.82
6661.28
2026.51
2.36046
3.72608
14.1307
36.1193
26.7856
135.024
441.396
1046.02
1990.77
3229.18
4626.43
6018
7300.4
8436.36
9411.96
10226.2
10887.7
11402.4
11776.7
12011.8
12069.9
11839.5
11033.3
9126.95
5676.61
1240.55
1.83288
3.57796
14.1461
35.5321
26.2717
132.166
432.082
1021.21
1952.37
3166.2
4536.52
5918.2
7195.05
8326.88
9303.06
10119.6
10784.3
11310.3
11703.6
11967.5
12095.6
12035.5
11644.8
10582.6
8298.05
4582.01
643.236
1.57631
3.44264
14.221
34.9788
25.7682
129.496
422.821
999.877
1908.26
3109.32
4456.8
5816.08
7088.27
8217.92
9193.06
10012.8
10681.9
11212.7
11618.9
11904.3
12067.3
12092.1
11908.2
11333.9
9973.84
7298.17
3427.85
278.35
1.44654
3.32356
14.3405
34.4313
25.3017
126.883
414.172
978.702
1870.06
3044.6
4383.96
5725.04
6979.55
8107.54
9083.69
9904.92
10579.3
11116.3
11528.9
11829.3
12017.5
12086.2
12007.7
11687.9
10899.3
9198.54
6163.21
2305.26
103.83
1.37501
3.23046
14.4907
33.9213
24.8272
124.474
405.731
958.896
1832.14
2988.09
4301.92
5640.81
6882.17
7995.75
8972.96
9797.66
10475.6
11019.4
11440
11748.6
11954.6
12053.7
12031.4
11845
11371.1
10330.5
8257.48
4961.33
1338.19
35.6222
1.33407
3.13283
14.6856
33.4226
24.3945
122.02
397.951
939.591
1796.59
2931.98
4229.73
5546.97
6791.15
7895.31
8861.41
9689.13
10372.4
10921.4
11350.3
11668.7
11885.2
12005.9
12021.1
11907.5
11603.4
10950.1
9616.01
7165.45
3733.7
646.74
11.9706
1.30284
3.0867
14.9104
32.9848
23.9681
119.791
390.056
921.769
1761.93
2879.17
4157.91
5463.76
6690.61
7800.39
8760.88
9580.27
10267.9
10823.8
11259.2
11587.5
11815.8
11949.9
11991.6
11925.3
11716.1
11279.2
10414.2
8747.12
5958.88
2541.15
263.075
4.21729
1.27749
3.06793
15.1477
32.5414
23.6063
117.602
382.887
903.768
1729.87
2827.65
4090.03
5380.84
6600.94
7696.47
8665.01
9482.01
10163.5
10724.8
11168.3
11504.4
11744.4
11892.6
11951.6
11918.1
11769.3
11456.1
10865.1
9750.34
7724.09
4710.55
1494.14
96.89
1.76534
1.25297
3.04946
15.3697
32.0878
23.2248
115.765
375.885
887.405
1697.53
2779.8
4023.8
5302.19
6511.5
7603.29
8560.76
9387.44
10069.2
10626.1
11075.8
11421.1
11670.3
11832.2
11908
11896.8
11789.4
11553.8
11123.5
10350.5
8945.89
6566.27
3475.04
728.068
34.5252
1.0001
1.22881
3.02603
15.5554
31.6761
22.8353
113.822
369.988
871.459
1668.09
2731.56
3961.94
5225.39
6426.32
7510.25
8466.87
9285.18
9977.67
10536.9
10983.7
11336
11595.5
11768.3
11860.1
11869.2
11790.1
11607.2
11277.3
10711.5
9722.69
7994.19
5327.83
2301.13
296.73
11.9648
0.758152
1.20721
3.00284
15.7044
31.3019
22.4937
111.852
363.814
857.995
1639.42
2687.5
3899.67
5153.34
6343.11
7421.35
8372.96
9192.76
9879
10449.6
10900.5
11251.1
11518.5
11702.8
11807.5
11835.3
11781
11634.4
11371.7
10935.6
10209.9
8967.81
6903.28
4093.2
1301.19
110.646
4.10309
0.677415
1.18849
2.98042
15.8351
30.9636
22.1834
110.142
357.579
843.978
1615.1
2644.62
3842.46
5080.83
6264.71
7334.51
8282.98
9100.09
9789.64
10355.6
10818.4
11174.5
11441.4
11634.5
11752.4
11795.3
11763.1
11646.8
11430.5
11080.6
10522
9606.34
8075.65
5711.03
2894.64
605.208
40.4686
1.52242
0.646832
1.17362
2.96444
16.0372
30.6302
21.9043
108.595
352.184
829.88
1589.88
2607.96
3786.84
5013.84
6185.91
7252.4
8195.09
9011.1
9699.71
10270.4
10729.8
11098.2
11372
11565.8
11693.6
11751.6
11737.3
11647.2
11468.2
11177.8
10729.9
10026.8
8886.52
7046.45
4488.31
1800.54
243.211
14.5439
0.720294
0.632231
1.16099
2.99417
16.3062
30.2792
21.63
107.206
347.315
817.708
1564.64
2570.08
3738.84
4948.74
6112.72
7170.41
8111.69
8924.15
9613.16
10184.3
10649.4
11015.6
11302.1
11504.1
11633.7
11703.1
11706.2
11637.4
11489.8
11245.5
10873.7
10312.7
9437.89
8038.18
5901.6
3301.26
935.573
91.9601
5.038
0.48103
0.623512
1.16408
3.08842
16.2699
29.924
21.3313
105.864
342.957
806.732
1542.8
2532.31
3689.37
4892.03
6041.72
7093.97
8028.51
8841.37
9528.63
10101.2
10567.8
10940.6
11225.8
11441
11580.1
11652.8
11669
11620.4
11498.2
11291.7
10977.4
10513.9
9819.98
8741.33
7057.41
4706.68
2184.79
404.983
34.2905
1.75785
0.41258
0.622557
1.18838
3.13493
16.2717
29.6253
21.0337
104.4
338.791
796.923
1523.12
2499.54
3640.17
4833.66
5979.23
7019.89
7950.63
8758.86
9447.92
10020
10488.9
10864
11156.5
11371.5
11524.5
11607.9
11629
11595.7
11497
11321.1
11052.6
10661.1
10091.7
9239.8
7924.38
5959.74
3545.32
1238.71
159.742
12.6471
0.704883
0.3949
0.629976
1.20361
3.1783
16.271
29.3864
20.7987
102.949
334.264
787.609
1505.55
2469.93
3597.39
4775.83
5914.94
6954.05
7875.2
8681.24
9367.41
9942.38
10411.8
10789.8
11085.4
11308.2
11462
11560.2
11593.4
11566.9
11486.2
11337.8
11106.2
10770.7
10291.8
9598.15
8558.59
6981.23
4804.15
2438.01
581.31
61.9518
4.45847
0.387832
0.39387
0.636198
1.20388
3.21517
16.2695
29.1466
20.6149
101.833
329.798
777.536
1488.87
2443.48
3558.55
4725.33
5851.5
6886.43
7807.56
8606.07
9291.31
9864.8
10337.8
10717.2
11016.2
11242.8
11405
11505.1
11554.2
11541.3
11469.9
11342.7
11143.5
10852.6
10442.7
9862.97
9021.6
7763.51
5923.23
3666.31
1459.13
238.302
23.6976
1.54977
0.301268
0.397057
0.635358
1.20407
3.24694
16.2675
28.8837
20.4203
100.971
326.395
767.634
1470.94
2418.31
3523.76
4679.22
5795.86
6819.82
7738.19
8538.17
9217.61
9791.13
10263.8
10647.3
10948.4
11179
11345.8
11454.9
11507.2
11511.3
11455.2
11340.1
11166.1
10913.5
10558
10063.8
9365.56
8348.76
6847.76
4802.45
2577.51
727.705
95.1789
8.81116
0.600268
0.281129
0.397988
0.633023
1.2056
3.26961
16.2648
28.6211
20.1992
100.054
323.789
760.136
1453.38
2391.42
3490.48
4637.7
5744.75
6761.2
7670.04
8468.46
9150.63
9719.81
10193.2
10577.2
10883
11116.3
11287.6
11402.2
11464.2
11473.1
11435.2
11337.5
11178.9
10956.3
10646.5
10218.8
9627.15
8788.15
7566.87
5820.23
3690.42
1595.7
309.809
37.8726
3.12327
0.313192
0.276545
0.397635
0.6342
1.21065
3.28757
16.2631
28.3718
19.9863
99.0028
321.022
754.428
1440.12
2365.21
3455.19
4597.85
5698.44
6707.07
7609.74
8400.19
9081.71
9654.58
10124.8
10510.1
10817
11055.5
11230.2
11350
11418.5
11438
11406.7
11328.5
11189.8
10986.8
10712.6
10339.8
9830.09
9123.79
8117.67
6668.94
4729.39
2625.55
829.541
125.456
14.6269
1.09918
0.232522
0.275071
0.396922
0.637039
1.2203
3.34753
16.2612
28.1343
19.7847
98.0169
317.879
748.376
1430.04
2345.36
3420.94
4555.83
5653.82
6657.65
7553.81
8339.51
9014.37
9587.26
10062
10445.1
10753.8
10994.1
11174.5
11298.2
11372.6
11399.7
11380
11310.5
11192.8
11012.6
10763.1
10432.9
9989.49
9384.73
8542.26
7341.69
5663.25
3644.45
1655.44
364.037
51.117
5.39585
0.436244
0.210999
0.274607
0.397323
0.6416
1.25635
3.33729
16.2591
27.9263
19.591
97.0805
314.951
741.555
1419.36
2330.2
3394.86
4515.27
5607.03
6609.83
7502.47
8282.93
8954.34
9521.59
9996.84
10385.1
10692.4
10935
11117.8
11247.7
11326.9
11360.8
11349.7
11292.8
11186.1
11029.2
10806
10506.5
10114.4
9590.29
8873.5
7869.66
6453.7
4597.63
2605.43
881.197
149.024
20.397
1.90539
0.235019
0.205366
0.274653
0.399072
0.65307
1.26701
3.33479
16.2567
27.7625
19.4282
96.1837
312.175
735.234
1407.41
2314.12
3374.68
4484.11
5562.13
6559.94
7452.48
8230.74
8898.06
9462.93
9933.34
10322.6
10635.6
10877.4
11063
11196
11282
11321.4
11318.1
11271.2
11178.3
11034.6
10837.6
10568.9
10214.8
9752.96
9134.88
8285
7094.06
5462.84
3540.03
1655.42
394.82
61.4735
7.73665
0.68594
0.178417
0.203895
0.27589
0.404394
0.656243
1.2738
3.33334
16.2538
27.6281
19.3124
95.4503
309.528
729.255
1396.37
2296.31
3353.25
4459.5
5527.22
6512.27
7400.57
8179.66
8845.86
9407.7
9876.54
10261.6
10576
10824.1
11009.5
11145.8
11235.5
11282.4
11285.6
11247.5
11165.9
11037.4
10856.4
10617.6
10299.6
9884.85
9342.79
8613.85
7606.37
6210.06
4418.79
2528.45
891.492
162.371
25.0513
2.78924
0.290738
0.163519
0.204047
0.278886
0.408374
0.659072
1.27763
3.33238
16.2509
27.4836
19.2215
94.9557
307.403
723.591
1385.95
2279.86
3329.81
4433.4
5499.04
6474.82
7351.12
8126.78
8794.54
9356.16
9822.86
10207.1
10517.8
10767.5
10959.7
11096.6
11190.1
11241.4
11252.7
11222.2
11150.6
11034.9
10870.7
10651.4
10367.8
9995.64
9511.97
8876.37
8015.58
6826.24
5228.82
3388.54
1604.58
403.554
67.4035
9.71164
0.982553
0.172132
0.160164
0.205781
0.281274
0.411776
0.664254
1.28699
3.33188
16.2478
27.3113
19.1103
94.588
306.012
719.102
1376.13
2264.37
3308.13
4405.23
5469.19
6443.9
7311.88
8076.59
8741.5
9305.23
9772.46
10155.2
10465.8
10712.4
10906.5
11050.6
11145.4
11201
11217.7
11195.9
11132.9
11028.6
10879
10678.4
10418.8
10086
9653.25
9090.18
8343.93
7327.44
5940.43
4203.34
2404.84
863.437
166.559
27.8458
3.55543
0.372524
0.139499
0.160288
0.20737
0.283212
0.414144
0.675962
1.28394
3.3318
16.2454
27.1068
18.9649
94.1062
305.017
716.238
1368.46
2249.86
3287.72
4379.1
5437.38
6411.22
7278.84
8036.31
8691.35
9252.66
9722.44
10106.3
10416.1
10663.1
10854.6
11001
11103.6
11161.2
11182.6
11167
11113.6
11019.2
10882.4
10698.3
10460.2
10157
9769.37
9267.55
8611.49
7733.68
6538.71
4966.47
3200.32
1511.18
390.766
69.4155
10.9586
1.25133
0.181374
0.131791
0.161091
0.208879
0.284917
0.419494
0.67786
1.28209
3.33171
16.2432
26.9054
18.7807
93.4472
303.672
714.252
1363.65
2238.61
3268.74
4354.53
5407.82
6376.66
7244.02
8001.79
8650.67
9203.06
9670.77
10057.6
10368.9
10615.8
10808.1
10952.4
11057.7
11123.7
11147.8
11137.6
11091.3
11007.3
10881.7
10712.3
10492.9
10215
9863.31
9413.83
8832.05
8065.69
7033.04
5647.31
3960.21
2245.37
802.527
161.208
28.9069
4.05676
0.451842
0.126545
0.130501
0.161817
0.209916
0.289141
0.422136
0.677894
1.28122
3.33149
16.2415
26.7143
18.6086
92.5845
301.786
711.501
1360.33
2231.58
3254.05
4331.73
5379.95
6344.61
7207.39
7965.41
8615.18
9162.48
9622.1
10007.2
10321.7
10570.5
10763.3
10908.9
11012.6
11081.9
11114.9
11108
11067.8
10991.8
10877.8
10721.2
10518.4
10262.1
9940.67
9534.45
9014.09
8338.28
7440.72
6232.51
4679.37
2984.63
1385.8
359.628
67.2644
11.4532
1.43002
0.195031
0.112341
0.130567
0.162282
0.212491
0.292923
0.425126
0.677761
1.28102
3.33137
16.2401
26.5512
18.453
91.7807
299.265
707.57
1355.68
2226.61
3244.67
4314.06
5354.18
6314.31
7173.47
7927.45
8577.79
9126.5
9582.07
9959.71
10272.8
10525.1
10720.3
10866.9
10972.3
11040.5
11077.4
11079.9
11043.8
10974.8
10869.8
10725.8
10537.6
10300.2
10004.6
9634.37
9165.97
8563.24
7775.61
6724.55
5333.61
3693.14
2059.82
719.682
148.146
28.0696
4.25199
0.504554
0.118965
0.109211
0.130734
0.16403
0.215271
0.295025
0.427737
0.675747
1.28099
3.3314
16.2386
26.4189
18.3259
91.0605
296.9
702.211
1348.98
2219.71
3237.81
4302.42
5334.09
6286.28
7141.33
7892.26
8539.13
9088.58
9545.99
9920.54
10226.8
10477.9
10676.8
10826.3
10933.3
11003.4
11039.9
11046.9
11020.8
10956.7
10859.6
10725.9
10551.6
10330.7
10057.1
9717.93
9292.27
8752.15
8052.27
7131.9
5909.83
4372.42
2745.75
1239.35
316.926
61.9941
11.1214
1.49582
0.203171
0.0983983
0.108635
0.131754
0.165992
0.21743
0.297378
0.426181
0.67472
1.28108
3.33158
16.2387
26.3214
18.2306
90.4904
294.785
697.153
1339.76
2209.81
3228.39
4293.39
5320.3
6264.29
7111.52
7858.84
8503.18
9049.62
9507.87
9884.73
10188.8
10433.6
10631.6
10785.1
10895.3
10967.6
11006.4
11013.6
10992.6
10939.1
10847.8
10722.9
10560.3
10354.9
10100
9787.13
9398.69
8909.48
8285.48
7470.14
6395.96
5003.32
3409.96
1853.44
624.044
130.402
25.8556
4.11945
0.521121
0.112527
0.0933221
0.109062
0.132777
0.167536
0.220357
0.298212
0.425122
0.674431
1.28123
3.33179
16.2389
26.2475
18.1689
90.0785
293.146
692.655
1331.02
2196.25
3215.25
4281.43
5309.07
6248.62
7088
7827.77
8468.92
9013.35
9468.9
9846.7
10153.5
10396.9
10589.1
10741.9
10856.5
10932.4
10973.8
10983.7
10963.5
10915.9
10835.9
10718
10565.3
10373.1
10135.4
9844.43
9487.52
9042.62
8479.72
7756.42
6804.77
5563.06
4050.34
2487.64
1078
268.844
54.8016
10.1853
1.44317
0.201786
0.0873898
0.0925224
0.109669
0.133846
0.169791
0.222126
0.299301
0.423212
0.674465
1.28136
3.332
16.2392
26.1751
18.1319
89.8478
291.988
689.21
1323.28
2183.41
3197.53
4265.22
5294.65
6235.27
7070.63
7803.01
8437.04
8978.64
9432.71
9807.99
10115.8
10362.5
10554
10701.3
10815.6
10896.3
10941.7
10954.7
10937.6
10891.5
10818.2
10712.2
10567.7
10386.7
10163.9
9892.3
9561.69
9154.46
8644.34
7994.84
7153.5
6046.25
4649.44
3111.97
1629.36
522.079
110.624
22.7348
3.74277
0.497527
0.105041
0.0812312
0.0928398
0.110313
0.135476
0.171602
0.223794
0.297036
0.422393
0.674585
1.28154
3.33235
16.2404
26.0898
18.0925
89.745
291.406
686.848
1317.42
2172.01
3180.81
4243.98
5275.69
6218.54
7055.3
7784.23
8411.35
8946.31
9397.95
9772.21
10077.7
10325.4
10520.7
10667.9
10777.1
10857.7
10908.3
10925.8
10912.3
10869.7
10798.7
10700.3
10568.4
10397
10187
9932.12
9624.12
9248.56
8783.21
8196.92
7444.56
6464.97
5193.67
3707.21
2215.81
908.637
219.633
46.6433
8.85384
1.29897
0.188514
0.0781576
0.0801946
0.0932981
0.11141
0.136823
0.1741
0.223772
0.295386
0.42222
0.674752
1.2818
3.3328
16.2425
25.9923
18.0347
89.6124
291.22
685.778
1313.49
2163.52
3166.04
4224.07
5251.65
6197.22
7036.55
7767.09
8391.41
8920.02
9365.41
9737.69
10042.6
10288
10484.5
10636
10745.5
10821.5
10872.4
10895.3
10886.7
10848.2
10781.3
10686.1
10562.8
10404.8
10205.8
9965.51
9676.8
9328.14
8900.79
8367.76
7691.49
6817.12
5683.13
4276.81
2794.37
1396.47
421.081
90.6475
19.1601
3.21225
0.443407
0.095394
0.0715347
0.0802919
0.0939
0.112109
0.138745
0.174879
0.223144
0.293963
0.422283
0.674936
1.28208
3.33331
16.2449
25.8872
17.9597
89.3796
290.924
685.588
1311.86
2157.83
3155.01
4206.48
5229.29
6171.01
7013.24
7746.63
8372.76
8899.22
9338.8
9705.19
10008.5
10253.7
10448
10601
10715.2
10791.9
10838.6
10862.2
10859.4
10826.3
10764
10673.4
10554.3
10405.9
10221.3
9993.68
9721.46
9395.88
9000.68
8513.08
7900.53
7117.17
6101.5
4813.32
3352.43
1928.07
740.041
173.449
38.2352
7.34788
1.10143
0.166924
0.0697
0.0702466
0.0806635
0.0942344
0.113471
0.140212
0.175927
0.221024
0.29352
0.422416
0.67515
1.28243
3.33412
16.2484
25.7801
17.8737
89.0454
290.289
685.118
1311.78
2155.64
3147.66
4193.38
5209.62
6146.87
6985.37
7721.76
8350.86
8879.32
9317.45
9678.43
9976.27
10220.3
10414.6
10565.6
10681.6
10763.4
10811.1
10830.9
10829.3
10802.3
10745.9
10660.5
10546.6
10403.6
10229.7
10017.6
9759.86
9453.58
9086.2
8636.99
8078.82
7371.91
6462.21
5293.22
3898.4
2465.63
1155.94
327.916
71.9465
15.4941
2.62369
0.373451
0.084521
0.0633722
0.070278
0.0809466
0.0950891
0.114841
0.142113
0.175402
0.219299
0.293496
0.422575
0.675387
1.28282
3.33501
16.2515
25.6687
17.7784
88.6446
289.331
683.842
1311.14
2155.62
3144.78
4184.52
5194.86
6125.66
6959.87
7692.63
8324.74
8856.23
9296.53
9656.83
9949.57
10188.6
10382
10533.2
10647.4
10731.4
10784.5
10805.6
10800.6
10775.3
10725.5
10646.5
10538.5
10401.4
10234.1
10033.9
9792.83
9503.32
9159.2
8743.5
8231.22
7589.57
6770.47
5717.25
4409.98
2997.42
1634.23
576.43
133.319
30.1978
5.82782
0.887432
0.141466
0.062007
0.0621831
0.0705375
0.0815409
0.0960728
0.116476
0.142723
0.173502
0.218521
0.293596
0.42276
0.675642
1.28328
3.336
16.2566
25.5585
17.6751
88.1873
288.145
681.831
1309
2154.75
3144.61
4180.81
5184.72
6109.55
6937.48
7666.16
8294.77
8829.15
9272.52
9635.18
9927.92
10162.1
10351
10501.6
10616.1
10698.5
10754.2
10781.1
10777.8
10749.6
10701.8
10629.9
10528.8
10398.4
10237.9
10045.7
9817.92
9546.26
9222.19
8834.63
8362.52
7775.96
7034.92
6085.03
4883.14
3503.3
2135.99
922.759
244.831
55.4716
11.995
2.04136
0.299087
0.0733245
0.0565433
0.0621866
0.0709841
0.082109
0.097256
0.117874
0.142456
0.171706
0.218391
0.293738
0.422951
0.675932
1.28379
3.33722
16.2621
25.4511
17.5692
87.6744
286.774
679.276
1305.54
2151.5
3143.18
4180.08
5180.04
6098.31
6920.22
7642.97
8267.65
8798.66
9244.71
9610.48
9905.81
10140.6
10325.1
10471.5
10585.7
10668.6
10722.8
10752.7
10755.4
10729.3
10679.2
10609.9
10516.4
10393.5
10240.5
10055.9
9837.68
9580.91
9276.6
8913.29
8475.07
7936.68
7261.89
6403.26
5309.61
3994.08
2627.72
1345.21
430.739
99.4894
22.9353
4.40697
0.678878
0.115327
0.0550118
0.0554724
0.0624831
0.0713297
0.082744
0.0984996
0.118437
0.141122
0.170635
0.218466
0.29389
0.423176
0.676248
1.28433
3.33871
16.2681
25.3538
17.4667
87.1417
285.205
676.296
1301.07
2146.29
3138.57
4177.72
5178.38
6092.6
6907.98
7624.82
8243.9
8771.2
9213.94
9582.18
9880.65
10118.3
10303.9
10446.2
10556.6
10639.4
10694.3
10722.9
10729
10709.3
10661.7
10590.6
10500.3
10385.5
10240.6
10064.5
9855.05
9609.43
9321.81
8981.2
8572.37
8074.62
7457.71
6677.95
5684.76
4454.5
3106.91
1796.79
708.789
176.587
41.486
8.86476
1.50869
0.228374
0.0625769
0.0506106
0.05551
0.0627557
0.0717257
0.0836602
0.0994819
0.118616
0.139213
0.170393
0.218583
0.294054
0.423421
0.676624
1.285
3.34044
16.2752
25.26
17.3739
86.6164
283.563
672.837
1295.83
2139.59
3131.58
4171.62
5174.78
6089.86
6901.21
7611.75
8225.12
8747.07
9186.4
9551.32
9852.12
10092.9
10281.7
10425.6
10532.1
10611.4
10666.4
10695.9
10701
10685
10644.2
10576
10484.5
10373.5
10237.3
10070.1
9870.15
9634.63
9359.91
9038.73
8656.34
8194.11
7625.95
6915.43
6012.86
4877.98
3567.41
2256.04
1059.06
310.457
72.2378
16.7733
3.1699
0.494432
0.0914127
0.0487519
0.0498488
0.0557236
0.063116
0.0723082
0.0845741
0.10062
0.117694
0.137948
0.170435
0.218716
0.294244
0.423676
0.677028
1.28577
3.34234
16.2831
25.1764
17.2898
86.137
281.934
669.193
1289.69
2131.73
3122.55
4162.8
5167.12
6084.9
6897.32
7603.97
8211.38
8727.83
9162.13
9523.87
9821.37
10064.4
10256.3
10403.9
10512.3
10587.8
10639.7
10669.5
10675.6
10659
10622.3
10561.2
10473
10361.6
10229.9
10072
9881.79
9656.86
9393.73
9087.84
8728.46
8297.19
7771.89
7119.9
6298.32
5259.84
4011.46
2704.79
1462.64
515.254
124.525
30.0032
6.28385
1.06106
0.168159
0.0531588
0.0455991
0.0499024
0.056095
0.0635597
0.0729292
0.0857709
0.10082
0.115708
0.137601
0.170538
0.218867
0.294447
0.423964
0.677472
1.28659
3.34453
16.2915
25.0988
17.2168
85.702
280.409
665.539
1283.22
2122.5
3112.09
4151.66
5156.68
6075.75
6891.01
7598.98
8202.71
8713.62
9142.57
9499.67
9794.1
10033.9
10227.9
10378.8
10491.2
10569
10617.2
10644.3
10650.9
10635.4
10598.4
10541.9
10461.3
10353.5
10222.1
10069.5
9889.3
9675.06
9423.76
9131.16
8790.58
8386.65
7897.79
7297.49
6545.48
5596.34
4425.94
3139.22
1881.72
797.916
214.022
51.163
11.7897
2.18128
0.344272
0.0715968
0.0434517
0.0451006
0.0502333
0.0564457
0.0639177
0.0738597
0.0865849
0.0997265
0.114463
0.137617
0.170658
0.21903
0.294666
0.42428
0.677978
1.28755
3.34693
16.3013
25.0284
17.1514
85.3246
279.019
662.108
1276.71
2112.79
3099.91
4138.94
5143.72
6063.89
6880.46
7591.39
8196.73
8704.19
9128.08
9479.99
9770.11
10006.9
10197.7
10350.6
10466.5
10548.7
10599.4
10622.9
10627.2
10612.4
10576.6
10520.2
10444.7
10344.9
10217.7
10066.2
9892.06
9688.66
9449.13
9169.72
8845.02
8464.26
8007.84
7450.74
6760.75
5891.56
4807.36
3556.22
2300.87
1137.11
357.965
85.8367
20.8417
4.26688
0.712297
0.120278
0.0453904
0.0413209
0.0452601
0.0505284
0.056685
0.0644118
0.0747074
0.0866491
0.098176
0.114051
0.137711
0.170794
0.219207
0.294908
0.42463
0.678551
1.28866
3.34973
16.3116
24.9616
17.0931
84.9844
277.807
658.954
1270.54
2103.02
3087.14
4124.22
5129.09
6049.44
6867.34
7579.58
8187.96
8697.31
9118.04
9465.32
9750.46
9983.18
10171
10320.8
10438.8
10524.8
10580.1
10606.2
10607.1
10590.3
10555.6
10500.5
10425.6
10331.3
10212.5
10065.7
9893.62
9697.19
9469.39
9202.99
8893.39
8531.94
8103.85
7585.28
6946.83
6150.29
5151.39
3957.9
2707.44
1512.6
565.884
142.79
35.3014
7.88751
1.43229
0.229936
0.0559998
0.0389677
0.0410741
0.0455085
0.0507249
0.05694
0.0651147
0.0753672
0.0861
0.0968833
0.114052
0.137823
0.170936
0.2194
0.295174
0.425021
0.679189
1.28989
3.35293
16.3233
24.9015
17.039
84.6835
276.722
656.163
1264.83
2093.79
3074.34
4109.02
5112.5
6033.26
6851.7
7565.41
8175.09
8687.49
9110.36
9454.85
9735.76
9963.69
10147.7
10294.5
10409.5
10497.7
10557
10587.9
10591.5
10571.6
10535.3
10481.5
10408.1
10315
10202.2
10064.2
9897.38
9704.04
9484.23
9230.56
8935.37
8591.87
8187.36
7703.13
7110.64
6375.14
5456.35
4331.84
3100.96
1895.42
837.921
236.357
57.6397
13.9152
2.74871
0.456528
0.0845559
0.0391575
0.0376712
0.0412279
0.0456871
0.0509535
0.0574423
0.0658026
0.0757068
0.084492
0.0964643
0.114136
0.137944
0.171095
0.219609
0.295458
0.425458
0.679879
1.29123
3.35626
16.3369
24.8398
16.9927
84.4089
275.737
653.663
1259.79
2085.17
3062.33
4093.88
5095.52
6015.27
6834.3
7548.81
8160.1
8673.73
9099.68
9446.56
9725.02
9949.09
10128.5
10271.6
10383.5
10468.9
10530.5
10565.7
10574.4
10557.4
10518.1
10463.1
10391.2
10299.8
10188.9
10057.5
9899.89
9712.44
9496.86
9252.29
8970.95
8644.04
8261.06
7805.55
7254.48
6573.66
5724.71
4677.24
3477.5
2276.35
1154.56
379.123
93.2172
23.3725
5.04637
0.892673
0.148857
0.0444137
0.035244
0.0375943
0.0414093
0.0459437
0.051299
0.0579791
0.0664892
0.0749987
0.0833263
0.096457
0.114239
0.138076
0.171269
0.21984
0.295783
0.425927
0.680667
1.29273
3.35999
16.3513
24.7849
16.9468
84.1619
274.838
651.418
1255.23
2077.55
3051.04
4079.72
5078.71
5997.11
6815.32
7530.49
8142.78
8658.1
9085.17
9435.18
9716.3
9938.26
10114.1
10252.6
10361.1
10443.3
10502.4
10540.1
10553.3
10541.6
10505.2
10447.6
10374.9
10285.3
10176.3
10047.4
9897.12
9719.3
9510.31
9271.24
9000.24
8688.93
8325.37
7895.67
7379.44
6748.39
5962.97
4989.31
3840.96
2644.27
1498.51
576.972
149.928
37.8197
8.8432
1.68968
0.280335
0.0598697
0.0343617
0.0345616
0.0377409
0.0416802
0.0462342
0.051624
0.0585594
0.0665875
0.0737018
0.0829135
0.0965383
0.114352
0.13822
0.171456
0.22009
0.296136
0.426448
0.681554
1.29439
3.36425
16.3665
24.7314
16.9078
83.9271
274.029
649.322
1251.11
2070.62
3041.06
4066.39
5063.1
5979.22
6796.37
7510.84
8123.81
8640.37
9069.08
9420.08
9704.4
9929.29
10103.4
10238.5
10342.5
10421.3
10477.3
10512.7
10528.6
10521.6
10490.8
10436.3
10361.3
10271.2
10164.2
10037.7
9890.62
9720.8
9521.9
9290.2
9026.09
8726.69
8381.3
7974.51
7489.24
6900.3
6173.75
5269.37
4178.46
3000.29
1846.03
828.65
239.692
59.5076
14.8465
3.07012
0.532413
0.0951222
0.0363264
0.0321866
0.0345812
0.0379885
0.0419318
0.046433
0.0519578
0.059048
0.0661416
0.0725566
0.0829143
0.0966347
0.114474
0.138378
0.171658
0.220364
0.296522
0.427035
0.682503
1.29627
3.36903
16.3833
24.6825
16.8731
83.7264
273.261
647.428
1247.3
2064.39
3031.98
4054.65
5048.45
5962.77
6777.85
7491.43
8103.75
8621.02
9051.11
9403.64
9688.87
9917.09
10094.4
10228.1
10328.7
10403.2
10455.9
10488.3
10502.1
10498
10472.1
10423.4
10351.5
10259.6
10152.6
10028.3
9883.96
9718.25
9528.08
9306.96
9051.09
8760.09
8429.1
8043.61
7585.46
7033.73
6357.57
5519.87
4492.8
3337.77
2190.5
1116.56
371.901
93.0446
23.8875
5.35118
0.988016
0.167111
0.0437608
0.0307302
0.0318654
0.0347638
0.0382045
0.0420883
0.0465717
0.0524847
0.0593244
0.0648541
0.0722146
0.0829931
0.0967403
0.114608
0.138548
0.171882
0.220664
0.296948
0.427675
0.683571
1.29839
3.37414
16.4018
24.6364
16.8418
83.5495
272.589
645.634
1243.81
2058.56
3023.81
4043.95
5035.62
5947.42
6760.92
7472.56
8084.1
8600.77
9031.6
9385.52
9672.19
9901.34
10082.1
10219.4
10318.9
10389.8
10438.3
10467.6
10478.4
10472.5
10449.8
10406.2
10340.3
10251.6
10143.2
10019.3
9877.42
9714.95
9529.86
9318.27
9073.53
8791.71
8471.37
8103.49
7670.3
7150.81
6519.25
5740.03
4781.67
3665.65
2520.88
1426.68
550.104
144.875
37.2022
8.94373
1.77243
0.303554
0.0615193
0.0308143
0.0296104
0.0319577
0.0349548
0.0383492
0.0421423
0.0469701
0.0530198
0.0588018
0.0638532
0.0722293
0.0830852
0.0968548
0.114753
0.138735
0.172126
0.220994
0.29741
0.428376
0.684766
1.30068
3.3798
16.423
24.5928
16.8132
83.3916
271.997
644.053
1240.51
2053.22
3016.11
4034.31
5023.91
5933.88
6745.18
7455.44
8065.12
8581.03
9011.37
9366.01
9654.05
9884.58
10066.4
10207.3
10310.6
10380.6
10425.5
10450.5
10458.5
10449.6
10425.4
10385.1
10324.7
10242.3
10137.1
10012.2
9871.25
9711.55
9530.27
9324.81
9090.5
8820.43
8510.57
8156.43
7744.63
7254.49
6661.42
5934.58
5039.62
3974.96
2841.51
1737.78
773.562
224.142
56.5744
14.3965
3.06114
0.548383
0.0979426
0.033676
0.0279161
0.0295201
0.0321259
0.0351038
0.0384135
0.0423938
0.047497
0.0531871
0.057524
0.0635934
0.0723053
0.0831851
0.0969807
0.114911
0.138937
0.172393
0.221356
0.297923
0.429152
0.686068
1.30319
3.38601
16.4455
24.552
16.7861
83.2456
271.465
642.65
1237.57
2048.17
3009.06
4025.25
5013.39
5921.66
6731.32
7439.61
8047.97
8562.05
8991.66
9345.96
9634.62
9866.51
10049.7
10191.9
10298.9
10372.9
10416.8
10438.2
10442.1
10430.5
10403.4
10362
10305.1
10228.3
10129.7
10008.2
9866.81
9708.43
9530.27
9329.31
9102.26
8843.62
8546.26
8204.64
7810.45
7346.08
6787.72
6106.46
5269.68
4259.71
3147.28
2046.92
1026.41
337.777
85.5234
22.3375
5.09987
0.967116
0.16694
0.041578
0.0270477
0.0274294
0.0296529
0.032278
0.0352118
0.0385994
0.0427824
0.0479057
0.0525058
0.0567079
0.0636231
0.072393
0.0832937
0.0971173
0.115083
0.139157
0.172683
0.221749
0.298488
0.430018
0.687504
1.306
3.3929
16.4699
24.5128
16.7607
83.1085
270.974
641.385
1234.95
2043.64
3002.42
4016.95
5003.46
5910.71
6718.76
7425.72
8032.22
8545.07
8972.8
9326.39
9614.81
9847.27
10031.8
10175.5
10284
10361.9
10409.7
10430.2
10430.3
10414.8
10385.1
10341
10283.3
10210.3
10117.7
10002.9
9865.06
9706.81
9530.46
9333.02
9111.25
8861.12
8576.3
8248.37
7869.5
7427.37
6899.93
6259.69
5475.11
4522.16
3439.17
2347.6
1300.82
488.051
128.53
33.6501
8.19366
1.65539
0.290297
0.0584968
0.0275445
0.0257063
0.027478
0.0297991
0.0324083
0.0353717
0.0388437
0.0431985
0.0479244
0.0514326
0.0565286
0.0636981
0.0724896
0.0834131
0.097265
0.115271
0.139399
0.173002
0.222182
0.299108
0.430962
0.689088
1.30906
3.40045
16.4971
24.4766
16.7367
82.9788
270.509
640.213
1232.58
2039.6
2996.4
4009.04
4994.34
5900.33
6707.59
7413.05
8018.43
8529.51
8956.04
9307.74
9595.51
9827.69
10012.8
10157.8
10267.9
10347.5
10399.3
10423.6
10423
10403.7
10370.3
10323.7
10263.4
10190
10101.4
9992.95
9862.03
9707.52
9531.89
9336.77
9119.03
8875.08
8600.09
8286.3
7922.75
7499.5
6999.72
6396.43
5659.29
4761.5
3717.41
2632.94
1581.68
677.751
192.049
49.4533
12.7271
2.73899
0.50083
0.0909105
0.0304198
0.0244469
0.0255704
0.0276065
0.0299212
0.0325299
0.0355148
0.0391307
0.0435203
0.047344
0.0507514
0.0565732
0.0637831
0.0725941
0.0835425
0.0974257
0.115475
0.139663
0.173351
0.222658
0.299786
0.431995
0.690835
1.31243
3.40863
16.5267
24.4397
16.715
82.8555
270.068
639.099
1230.38
2035.91
2991.01
4001.95
4985.71
5890.76
6697
7401.79
8005.82
8515.85
8940.73
9291.25
9577.11
9808.62
9993.46
10139
10250.6
10331.8
10385.5
10414
10417.1
10397
10359.9
10309.7
10247.2
10171.4
10082.7
9978.54
9854.28
9706.91
9535.27
9341.55
9126.66
8887.3
8619.52
8317.43
7969.86
7564.12
7087.63
6518.31
5824.47
4978.05
3976.48
2906.54
1855.55
896.553
282.587
72.0698
19.088
4.38425
0.843356
0.148807
0.0373775
0.023865
0.0239252
0.0256617
0.0277128
0.0300152
0.0326375
0.0356591
0.0394866
0.0435109
0.0462305
0.0506589
0.0566471
0.0638757
0.0727076
0.0836827
0.0976012
0.115697
0.13995
0.173731
0.223182
0.300531
0.433142
0.692755
1.31615
3.41759
16.559
24.4054
16.6924
82.7401
269.643
638.037
1228.28
2032.47
2986.08
3995.53
4977.95
5881.8
6687.28
7391.2
7994.6
8503.4
8927.24
9276.2
9560.87
9790.55
9974.55
10119.9
10232.1
10314.9
10370.4
10400.9
10408.1
10391.8
10353.9