/*--------------------------------*- C++ -*----------------------------------*\
| =========                 |                                                 |
| \\      /  F ield         | OpenFOAM: The Open Source CFD Toolbox           |
|  \\    /   O peration     | Version:  v2012                                 |
|   \\  /    A nd           | Website:  www.openfoam.com                      |
|    \\/     M anipulation  |                                                 |
\*---------------------------------------------------------------------------*/
FoamFile
{
    version     2.0;
    format      ascii;
    class       volScalarField;
    location    "13200";
    object      lambda1;
}
// * * * * * * * * * * * * * * * * * * * * * * * * * * * * * * * * * * * * * //

dimensions      [0 0 0 0 0 0 0];


internalField   nonuniform List<scalar> 
39402
(
0.0339706
0.00359873
0.156706
0.000930273
0.0585558
0.196433
0.00083393
0.0209124
0.19299
0.176566
0.000922404
0.0180875
0.0959373
0.320511
0.141128
0.00103054
0.0197458
0.0853329
0.205515
0.404351
0.109878
0.00111255
0.0217528
0.091533
0.192831
0.311809
0.449201
0.0831743
0.00116791
0.0232531
0.0988202
0.203181
0.300966
0.394913
0.4687
0.0619823
0.00118988
0.0242735
0.10413
0.214922
0.311964
0.386359
0.452833
0.472415
0.046044
0.00119176
0.0247007
0.107732
0.223241
0.324186
0.394757
0.445298
0.490662
0.466638
0.0342138
0.00118228
0.024783
0.109275
0.228855
0.332653
0.404367
0.449508
0.482852
0.514091
0.454624
0.0256
0.00116581
0.0246627
0.10967
0.231276
0.338346
0.410954
0.455325
0.482618
0.506278
0.52815
0.438495
0.018838
0.00114571
0.0244102
0.109367
0.232005
0.340798
0.415407
0.459412
0.484763
0.502348
0.521541
0.536116
0.419849
0.0139104
0.00112253
0.0240834
0.108596
0.231657
0.341609
0.417299
0.46226
0.486603
0.50134
0.515425
0.531724
0.540203
0.396302
0.0103724
0.00109991
0.0236964
0.107548
0.230592
0.341334
0.417966
0.463429
0.488027
0.501418
0.511756
0.524407
0.538709
0.541831
0.364812
0.00780965
0.00107824
0.0233131
0.106269
0.22907
0.340337
0.417768
0.463872
0.488561
0.50178
0.510446
0.518574
0.530097
0.543868
0.541717
0.326817
0.00590706
0.00105695
0.0229395
0.104981
0.227174
0.338866
0.417009
0.463709
0.488782
0.501838
0.509999
0.516116
0.522569
0.533164
0.546534
0.541346
0.284282
0.00450611
0.00103579
0.0225651
0.103704
0.225234
0.337002
0.415864
0.463182
0.488622
0.50188
0.509729
0.514968
0.519131
0.524678
0.533787
0.545524
0.540825
0.239929
0.00346401
0.00101433
0.0221909
0.102402
0.223285
0.335064
0.414396
0.462388
0.488271
0.501684
0.509593
0.514518
0.517344
0.520424
0.525769
0.533785
0.544405
0.535475
0.196474
0.0027302
0.000991051
0.0218077
0.101092
0.22127
0.333092
0.412856
0.461379
0.487754
0.501414
0.50933
0.514162
0.516744
0.518121
0.520888
0.526867
0.536228
0.547154
0.520989
0.157028
0.00212925
0.000971221
0.0213873
0.0997329
0.219218
0.331039
0.411268
0.460308
0.487111
0.501045
0.509062
0.513861
0.516159
0.517276
0.518172
0.521324
0.528895
0.54169
0.55083
0.494732
0.119588
0.00152261
0.000955342
0.0210255
0.0982395
0.217077
0.328925
0.409606
0.459197
0.486428
0.50062
0.508739
0.513598
0.515843
0.516531
0.516877
0.518027
0.522238
0.532396
0.548309
0.551842
0.454941
0.087836
0.000955143
0.000934783
0.0207333
0.0969338
0.214711
0.326711
0.407884
0.458028
0.485715
0.500165
0.50839
0.513304
0.515614
0.516186
0.516052
0.51614
0.518004
0.524025
0.537083
0.553901
0.549541
0.403145
0.0646258
0.000459547
0.000917524
0.0203565
0.0958643
0.212619
0.324247
0.406071
0.45681
0.484961
0.499692
0.508019
0.513011
0.515374
0.515961
0.515647
0.515178
0.515479
0.518481
0.526632
0.54159
0.556438
0.542787
0.342824
0.0471105
0.000259915
0.000900663
0.020036
0.0944921
0.210872
0.322048
0.404046
0.455524
0.484176
0.499196
0.507634
0.512708
0.515148
0.51576
0.515394
0.514668
0.514231
0.515126
0.519448
0.529404
0.545115
0.554162
0.530005
0.279069
0.0322957
0.000201551
0.0008849
0.0197222
0.0933161
0.208655
0.320183
0.402224
0.454087
0.483351
0.498677
0.507242
0.512393
0.514933
0.515586
0.515202
0.514373
0.513554
0.513439
0.515089
0.520662
0.532346
0.54824
0.548393
0.508339
0.216999
0.0200476
0.000180241
0.000869091
0.0194276
0.0921524
0.20673
0.317832
0.400653
0.452782
0.48243
0.498133
0.506837
0.512072
0.514714
0.515428
0.515047
0.514164
0.513167
0.512516
0.512831
0.515255
0.522433
0.53599
0.550703
0.543781
0.473494
0.159262
0.0115037
0.000140357
0.000854689
0.0191316
0.0910588
0.204818
0.315771
0.398692
0.451641
0.481575
0.497536
0.506419
0.511768
0.51449
0.515282
0.514914
0.514006
0.512912
0.511998
0.51159
0.512385
0.515967
0.525065
0.540235
0.551552
0.540385
0.419867
0.109799
0.00623756
0.00011264
0.000839913
0.0188606
0.0899587
0.203012
0.313712
0.396955
0.450229
0.480825
0.496975
0.505965
0.511454
0.514277
0.515131
0.514801
0.513893
0.512724
0.511653
0.510911
0.510799
0.512395
0.517505
0.528701
0.544388
0.548497
0.531715
0.345629
0.0711288
0.00335216
9.46605e-05
0.000826751
0.018583
0.088947
0.201191
0.311757
0.395211
0.448967
0.479905
0.496471
0.505525
0.511106
0.514079
0.514985
0.51469
0.513778
0.512594
0.511387
0.510454
0.509918
0.510342
0.513051
0.520013
0.53328
0.547626
0.542256
0.510441
0.259185
0.0440819
0.00208568
0.000102733
0.000813497
0.0183339
0.08791
0.199506
0.309784
0.393546
0.447698
0.479079
0.495876
0.505129
0.51077
0.513855
0.514857
0.514592
0.513685
0.512475
0.511229
0.510124
0.509331
0.509219
0.510394
0.514431
0.523463
0.538284
0.548854
0.537346
0.468412
0.176907
0.0271714
0.00142345
0.000114716
0.000802942
0.0180847
0.0869742
0.197777
0.307952
0.391864
0.446479
0.478242
0.495333
0.504678
0.510462
0.513643
0.514727
0.514509
0.513603
0.512372
0.511093
0.509921
0.508946
0.508472
0.508896
0.511061
0.516645
0.527905
0.543132
0.546496
0.531473
0.397444
0.110208
0.0170772
0.000883405
0.000107164
0.000791336
0.0178846
0.0860407
0.196216
0.306073
0.390298
0.445242
0.477434
0.494775
0.50425
0.510112
0.513432
0.514597
0.51444
0.51355
0.512304
0.510962
0.509748
0.508697
0.507975
0.507942
0.508997
0.512344
0.519852
0.533201
0.546714
0.540381
0.514603
0.299985
0.0645486
0.01033
0.000641872
8.56051e-05
0.000778961
0.0176674
0.0852898
0.194656
0.304369
0.388692
0.444078
0.476615
0.494235
0.503829
0.509794
0.513212
0.51447
0.514366
0.513506
0.512269
0.510887
0.509585
0.50848
0.507642
0.507294
0.507728
0.509684
0.514383
0.524125
0.538742
0.547453
0.533972
0.474974
0.199772
0.0382337
0.00584404
0.000651992
5.84691e-05
0.000768226
0.0174345
0.084479
0.193395
0.302656
0.387227
0.442889
0.475839
0.493689
0.503413
0.509483
0.513014
0.514336
0.514279
0.513448
0.512228
0.510849
0.509479
0.508273
0.507362
0.506832
0.506868
0.507945
0.510923
0.517378
0.529349
0.543545
0.542844
0.526852
0.400922
0.120126
0.0232676
0.00349798
0.000713707
3.31833e-05
0.00075892
0.0172328
0.0836126
0.192041
0.301266
0.38575
0.441802
0.475042
0.493169
0.502993
0.509169
0.51281
0.514223
0.5142
0.513392
0.512185
0.510807
0.509424
0.508127
0.507112
0.506464
0.506317
0.506851
0.508706
0.512888
0.521452
0.535127
0.546014
0.534626
0.507481
0.292934
0.06848
0.0155645
0.00191329
0.000848417
1.26773e-05
0.000750927
0.017058
0.0828625
0.190595
0.299778
0.38454
0.44071
0.474315
0.49268
0.502585
0.508856
0.512615
0.514101
0.514151
0.513357
0.512159
0.510772
0.509366
0.508044
0.506931
0.506151
0.505881
0.506117
0.507197
0.509934
0.515822
0.526576
0.540776
0.544162
0.528134
0.460089
0.185537
0.0342492
0.0121604
0.000672349
0.000919707
4.25867e-06
0.000742949
0.0169068
0.082211
0.189352
0.298197
0.383258
0.439806
0.473585
0.492229
0.50227
0.508559
0.512409
0.51399
0.51408
0.513344
0.512123
0.510729
0.509319
0.507956
0.506795
0.505916
0.505455
0.505531
0.506202
0.507922
0.511883
0.519729
0.532554
0.544728
0.537015
0.518016
0.371794
0.104529
0.0133272
0.00988473
0.000146178
0.00129664
1.61103e-06
0.000733573
0.0167599
0.0816469
0.188268
0.296842
0.381901
0.438858
0.472968
0.49177
0.501975
0.508295
0.512221
0.513875
0.514009
0.513292
0.512117
0.510687
0.509271
0.507901
0.506673
0.505736
0.505136
0.504986
0.505415
0.506676
0.509302
0.5147
0.524704
0.538585
0.544956
0.528714
0.488827
0.252701
0.0480699
0.00611223
0.00876929
5.40041e-05
0.00143385
6.82729e-07
0.000723722
0.0165863
0.0811134
0.18733
0.295656
0.380727
0.437856
0.472329
0.491373
0.501676
0.508056
0.512017
0.51375
0.513955
0.513263
0.512093
0.510696
0.509209
0.507835
0.506596
0.505573
0.504893
0.504605
0.504791
0.505652
0.507565
0.511264
0.518564
0.530628
0.543292
0.538524
0.520864
0.423811
0.13862
0.0192258
0.00536754
0.00848115
0.000140018
0.00139245
3.18136e-07
0.000716313
0.0164033
0.0804819
0.186455
0.294634
0.379705
0.436974
0.471659
0.490975
0.50143
0.50783
0.511838
0.51363
0.5139
0.513235
0.512077
0.510672
0.509214
0.50775
0.506499
0.50546
0.504652
0.504242
0.504288
0.504918
0.506259
0.50892
0.514075
0.523471
0.53689
0.544451
0.528496
0.502115
0.30917
0.0614159
0.00778737
0.00666357
0.00579524
0.000329789
0.00111609
1.60934e-07
0.000711418
0.0162674
0.0798155
0.185426
0.293684
0.378835
0.436221
0.471064
0.490556
0.501166
0.50763
0.511671
0.513525
0.51384
0.513223
0.512061
0.510647
0.509157
0.507724
0.506358
0.505339
0.504507
0.503952
0.503855
0.504225
0.50524
0.507301
0.510912
0.517878
0.5294
0.542132
0.539117
0.521308
0.453217
0.172312
0.0256272
0.00272752
0.00906851
0.00307027
0.000809136
0.000778628
8.1428e-08
0.000706301
0.016178
0.0793276
0.184336
0.292576
0.378021
0.435578
0.470557
0.490187
0.50089
0.507424
0.511494
0.51341
0.513775
0.513198
0.512064
0.510642
0.509126
0.507643
0.5063
0.505115
0.50435
0.503762
0.503472
0.503764
0.504479
0.505994
0.508756
0.513777
0.522788
0.535814
0.544045
0.529507
0.507952
0.353273
0.0744317
0.00941792
0.000996626
0.0119017
0.00106041
0.00125567
0.000448624
3.95523e-08
0.000699679
0.0160852
0.0790119
0.183552
0.291409
0.377071
0.434971
0.470128
0.489858
0.500652
0.507198
0.511342
0.513304
0.513696
0.513158
0.512045
0.510642
0.509122
0.507588
0.506189
0.505005
0.504035
0.503561
0.503224
0.503261
0.503848
0.50503
0.507142
0.510832
0.517638
0.528806
0.541347
0.539605
0.521594
0.468824
0.208138
0.02768
0.00342505
0.000616345
0.0139853
4.07776e-05
0.00264011
0.00021756
1.72397e-08
0.00069301
0.0159663
0.0786886
0.183053
0.290582
0.376085
0.434274
0.469712
0.489595
0.500424
0.507002
0.511179
0.513209
0.513632
0.513124
0.51202
0.510618
0.509092
0.507556
0.506091
0.504842
0.503871
0.503182
0.503017
0.502899
0.50331
0.504237
0.505867
0.508667
0.513807
0.522601
0.53528
0.543747
0.530022
0.509989
0.381606
0.0865074
0.0105224
0.00105894
0.00155136
0.0133113
4.99209e-06
0.00390802
8.45883e-05
6.39422e-09
0.000686548
0.0158475
0.0782713
0.182549
0.290063
0.375385
0.43354
0.469247
0.489334
0.500241
0.506841
0.511022
0.513119
0.513575
0.513076
0.512003
0.510593
0.50906
0.507512
0.506003
0.504703
0.503656
0.503011
0.502647
0.502635
0.502847
0.503531
0.504912
0.507085
0.510896
0.517756
0.528657
0.5409
0.539737
0.52116
0.476343
0.238361
0.028378
0.00362551
0.000136906
0.00480709
0.00878426
0.000144663
0.00446513
2.53882e-05
2.16091e-09
0.000680329
0.0157313
0.0778643
0.181901
0.28955
0.374971
0.433022
0.468753
0.489043
0.500076
0.506683
0.510894
0.513013
0.513536
0.513033
0.511977
0.510575
0.509031
0.507451
0.505948
0.504569
0.503477
0.502799
0.502498
0.502442
0.502495
0.503022
0.503939
0.505778
0.508835
0.514001
0.522797
0.535206
0.543466
0.529904
0.510029
0.397387
0.0978017
0.00945971
0.00130682
3.64055e-06
0.0104504
0.00454671
0.000723761
0.00389672
7.48824e-06
6.73958e-10
0.000675224
0.015619
0.0774625
0.181275
0.288889
0.374552
0.432733
0.468402
0.488728
0.499886
0.506536
0.510787
0.512911
0.51348
0.513019
0.511964
0.510564
0.509016
0.507425
0.50587
0.504488
0.503341
0.502639
0.502361
0.502323
0.502346
0.502566
0.503364
0.504749
0.507178
0.51117
0.518092
0.528949
0.540876
0.539239
0.520353
0.479376
0.258444
0.0287936
0.00292955
0.000528303
1.42042e-05
0.0144243
0.0015731
0.00185927
0.00240791
2.5051e-06
2.16443e-10
0.000672194
0.0155279
0.0770739
0.180654
0.288248
0.374011
0.43243
0.468209
0.488507
0.499687
0.506381
0.510663
0.512836
0.513406
0.512981
0.511941
0.510555
0.509011
0.507386
0.505816
0.504383
0.503267
0.502527
0.502258
0.502228
0.50227
0.502344
0.502839
0.503979
0.505915
0.509105
0.514421
0.523385
0.535531
0.543149
0.52902
0.509393
0.404029
0.106754
0.00755588
0.000882926
0.000203421
0.000517929
0.0162532
4.50456e-05
0.00535984
0.00108746
7.9658e-07
5.57655e-11
0.000670344
0.0154753
0.0767676
0.180055
0.28761
0.373484
0.43204
0.468014
0.488384
0.49953
0.506219
0.510544
0.512762
0.513351
0.512943
0.511917
0.510541
0.508984
0.507363
0.505739
0.504285
0.503148
0.502464
0.502174
0.502122
0.502167
0.502271
0.502419
0.50339
0.504938
0.507321
0.511538
0.518714
0.529634
0.541097
0.538307
0.519213
0.479237
0.268738
0.0276105
0.00152567
0.000861391
6.33899e-06
0.00288212
0.013466
2.97859e-05
0.00826878
0.000363741
2.09732e-07
1.13826e-11
0.000667831
0.0154465
0.0766029
0.179598
0.286997
0.372963
0.431664
0.46776
0.488259
0.49944
0.50609
0.510392
0.512682
0.513299
0.512923
0.511902
0.510537
0.508978
0.507321
0.505695
0.504178
0.503054
0.502381
0.502131
0.502051
0.502059
0.502113
0.502295
0.502566
0.504117
0.506196
0.509355
0.514932
0.524171
0.53629
0.542831
0.527661
0.50786
0.40428
0.111669
0.0054699
0.000295683
0.000517818
4.8001e-06
0.00895147
0.00724719
0.000573241
0.00882925
8.83951e-05
4.50285e-08
2.33734e-12
0.000663839
0.015406
0.0765305
0.17938
0.28654
0.372464
0.431297
0.467512
0.488109
0.499345
0.506002
0.510286
0.512593
0.51325
0.512881
0.511906
0.510521
0.508967
0.50731
0.50563
0.504116
0.502956
0.502314
0.502055
0.501988
0.50197
0.501988
0.502087
0.502286
0.503145
0.505227
0.507828
0.512147
0.519568
0.530693
0.541674
0.537019
0.517778
0.47651
0.268361
0.0242361
0.00073297
0.000474461
0.000540701
5.36686e-06
0.0144771
0.00229593
0.00290182
0.0061785
1.80624e-05
9.64636e-09
4.19911e-13
0.00065814
0.0153387
0.0764182
0.179318
0.286362
0.372113
0.43095
0.467271
0.487945
0.499269
0.505931
0.51021
0.512501
0.513211
0.512853
0.51188
0.510511
0.508956
0.507291
0.505589
0.504015
0.502905
0.502252
0.501989
0.501888
0.501854
0.501871
0.502023
0.502168
0.502546
0.504111
0.506625
0.510058
0.515777
0.525357
0.53744
0.542427
0.525761
0.505655
0.398056
0.106839
0.0032353
0.000275833
0.000551453
0.000203457
0.000131834
0.017689
0.000112005
0.00844858
0.00278196
3.97302e-06
1.77376e-09
6.43912e-14
0.000652295
0.0152374
0.0762057
0.179188
0.286362
0.372004
0.430719
0.467044
0.487795
0.499159
0.505866
0.510167
0.512454
0.513142
0.512834
0.511857
0.510508
0.508926
0.507259
0.505579
0.50396
0.502797
0.502223
0.501932
0.501822
0.501751
0.501775
0.501836
0.502082
0.502293
0.503215
0.505323
0.508486
0.513011
0.520575
0.532032
0.542358
0.534987
0.515999
0.471731
0.258104
0.0182037
0.000434183
0.000195676
0.000500367
2.76599e-06
0.00485364
0.0142469
6.45805e-05
0.0139057
0.000804147
7.46484e-07
2.63486e-10
8.55309e-15
0.00064686
0.015131
0.0758632
0.1789
0.286274
0.372046
0.430659
0.466896
0.487652
0.499041
0.505787
0.510083
0.512408
0.513094
0.512763
0.511828
0.510486
0.508892
0.507225
0.505514
0.503927
0.502724
0.502159
0.50191
0.501747
0.501683
0.501674
0.501822
0.501958
0.502135
0.502563
0.504278
0.506941
0.510903
0.51693
0.526692
0.538607
0.541621
0.523158
0.50259
0.387137
0.0976023
0.00147497
4.63634e-05
0.000176589
0.000711558
5.44634e-05
0.00977695
0.00661348
0.00173127
0.0133289
0.000149711
1.18225e-07
3.64503e-11
9.41064e-16
0.000642412
0.0150322
0.0754925
0.17839
0.286024
0.372022
0.430703
0.466863
0.487555
0.498951
0.505687
0.510032
0.512351
0.513052
0.512697
0.511781
0.510448
0.508864
0.507159
0.505447
0.503849
0.50268
0.502103
0.50186
0.501714
0.501595
0.501554
0.501665
0.501844
0.502077
0.502278
0.503337
0.505704
0.508889
0.514106
0.522164
0.533535
0.54265
0.532333
0.513726
0.463644
0.239836
0.0139519
0.000116175
1.57654e-05
0.000418393
0.000599624
4.31178e-05
0.015846
0.00129399
0.00754426
0.0076863
2.19515e-05
1.63408e-08
4.14291e-12
8.54518e-17
0.000639297
0.0149526
0.0751472
0.177817
0.285519
0.371848
0.43072
0.466904
0.487533
0.498874
0.505596
0.509974
0.512323
0.513055
0.512686
0.511723
0.510408
0.508849
0.507121
0.505389
0.503781
0.502622
0.502067
0.501813
0.501643
0.501551
0.501474
0.501522
0.501615
0.501806
0.502157
0.502648
0.504529
0.507467
0.511585
0.518445
0.528549
0.539666
0.539799
0.520008
0.498136
0.369142
0.0821071
0.000718174
7.93099e-05
7.54502e-06
0.000742572
0.00027931
0.000283308
0.0173566
1.59713e-06
0.0166935
0.00245962
3.29674e-06
1.80261e-09
4.03896e-13
6.38527e-18
0.000637555
0.0148976
0.0748758
0.177281
0.284942
0.37145
0.430617
0.466922
0.487558
0.498845
0.505532
0.509881
0.512285
0.513021
0.512703
0.511702
0.510349
0.50879
0.507116
0.505348
0.50373
0.50257
0.502029
0.501775
0.501581
0.501465
0.501458
0.501452
0.501542
0.501701
0.501936
0.50226
0.503565
0.506112
0.509727
0.515222
0.524007
0.53541
0.542422
0.529131
0.510784
0.451674
0.211194
0.00784762
2.0674e-05
5.43238e-06
0.00020505
0.00053998
4.2509e-05
0.00959159
0.00997925
0.000426087
0.0199462
0.000461119
3.76912e-07
1.80196e-10
3.21317e-14
3.87385e-19
0.000637033
0.0148695
0.0746945
0.176869
0.284399
0.370986
0.43035
0.46687
0.487566
0.498846
0.505497
0.509823
0.512215
0.512981
0.512673
0.511684
0.510299
0.508713
0.507059
0.50532
0.503685
0.502536
0.501998
0.501749
0.501549
0.501386
0.501356
0.501385
0.501436
0.50157
0.501852
0.502147
0.502761
0.504902
0.508161
0.512756
0.519927
0.53069
0.541008
0.53747
0.517691
0.491806
0.343254
0.0583512
4.18104e-05
4.22785e-05
0.00014714
0.00029971
0.000389722
0.000812232
0.0151949
0.00246859
0.00916502
0.0120753
4.82529e-05
3.84932e-08
1.44808e-11
2.14147e-15
1.91806e-20
0.000636222
0.0148648
0.07462
0.176608
0.283989
0.370551
0.430024
0.466707
0.487548
0.498853
0.505488
0.509788
0.512156
0.512936
0.512626
0.511668
0.510276
0.508639
0.506976
0.505288
0.503641
0.502497
0.501969
0.501728
0.501512
0.501341
0.501241
0.501244
0.501342
0.501385
0.501691
0.501959
0.502369
0.503899
0.506761
0.510743
0.516759
0.525902
0.537548
0.541941
0.525845
0.507698
0.434928
0.175836
0.00385398
4.79302e-06
5.14933e-05
0.000173864
0.000728539
0.000394655
0.000465187
0.0164069
3.8078e-05
0.0223416
0.00386771
5.32156e-06
3.04265e-09
9.894e-13
1.16539e-16
7.59474e-22
0.000634917
0.0148551
0.0746373
0.176538
0.283746
0.370231
0.429711
0.466502
0.487457
0.498846
0.505485
0.509766
0.512115
0.512866
0.512596
0.511651
0.510275
0.508634
0.506868
0.505193
0.503622
0.502455
0.501923
0.501676
0.501475
0.501291
0.501185
0.501166
0.50123
0.501346
0.501528
0.501827
0.502088
0.503017
0.505441
0.509126
0.514102
0.521922
0.532773
0.542212
0.534279
0.51526
0.482311
0.310091
0.0401905
0.000202909
3.14709e-05
9.95711e-07
9.80055e-05
0.00113563
0.000382833
0.00513414
0.0101398
0.00142982
0.0246795
0.000590326
4.25923e-07
2.14737e-10
5.49082e-14
5.05243e-18
2.39304e-23
0.000632809
0.0148331
0.0746306
0.176624
0.28372
0.37005
0.429494
0.4663
0.487334
0.498799
0.505467
0.509759
0.512066
0.512803
0.51254
0.511616
0.510284
0.508667
0.506852
0.505063
0.503546
0.50244
0.501892
0.501621
0.501418
0.501253
0.501125
0.501104
0.501127
0.501273
0.501415
0.501731
0.501933
0.50243
0.504345
0.507537
0.51195
0.518578
0.528353
0.539162
0.540409
0.521777
0.503254
0.410095
0.139359
0.00325275
0.00025199
0.000194759
0.000143798
8.07529e-05
0.000524939
0.000185973
0.0166599
0.00275074
0.0113055
0.0139584
4.65436e-05
3.12943e-08
1.21955e-11
2.44611e-15
1.62908e-19
6.20817e-25
0.000630412
0.0147975
0.0745755
0.176666
0.283864
0.370056
0.429376
0.466158
0.487215
0.49873
0.505441
0.509748
0.512065
0.512755
0.512457
0.511571
0.510236
0.508673
0.506901
0.505022
0.503437
0.502399
0.501872
0.501593
0.501356
0.501207
0.501088
0.500993
0.50103
0.501021
0.501244
0.501573
0.501784
0.50218
0.503365
0.506208
0.510053
0.51572
0.524287
0.535409
0.542173
0.530082
0.511985
0.468091
0.265939
0.0258381
0.000390263
0.000243002
0.000145868
5.74003e-05
9.13758e-05
7.5939e-05
0.00333968
0.0167201
0.000109394
0.0297543
0.00344173
3.64487e-06
1.82375e-09
5.54468e-13
8.55065e-17
3.75916e-21
1.18387e-26
0.000627696
0.0147545
0.074465
0.176618
0.283963
0.370214
0.429399
0.466082
0.487121
0.498653
0.505406
0.509733
0.51208
0.512752
0.512404
0.511495
0.510171
0.508612
0.506899
0.505048
0.503389
0.502339
0.501849
0.501576
0.501314
0.501132
0.50102
0.500943
0.500926
0.500961
0.501116
0.501401
0.50178
0.501966
0.502764
0.504923
0.508506
0.513308
0.52067
0.53109
0.541049
0.537173
0.517711
0.496488
0.373801
0.0996974
0.00103706
9.45181e-06
8.78814e-06
1.45009e-05
3.19277e-05
0.000700875
1.41347e-05
0.00717372
0.00697524
0.00522887
0.0257788
0.000353952
2.15747e-07
8.49427e-11
1.98389e-14
2.32625e-18
6.15111e-23
3.70061e-28
0.000624773
0.0147055
0.0743209
0.176474
0.283961
0.370343
0.429531
0.4661
0.487063
0.498598
0.505333
0.509715
0.512076
0.512774
0.512382
0.511397
0.51011
0.508529
0.506849
0.505045
0.50339
0.5023
0.501816
0.501555
0.501304
0.50108
0.500934
0.500892
0.500863
0.500972
0.501008
0.501271
0.501573
0.501929
0.502374
0.503897
0.507052
0.511367
0.517642
0.526908
0.537845
0.541597
0.525325
0.507861
0.447442
0.209266
0.011994
4.75558e-05
0.000110194
8.05099e-05
0.000151105
0.00074109
0.00131414
2.01659e-05
0.0134666
0.000170791
0.0227505
0.011179
2.13826e-05
1.01707e-08
3.13119e-12
5.68785e-16
4.52866e-20
6.00484e-25
2.98762e-30
0.00062161
0.0146502
0.074151
0.176262
0.283834
0.370374
0.429652
0.466195
0.487072
0.498559
0.505287
0.509661
0.51206
0.512783
0.51241
0.511364
0.509994
0.508456
0.506765
0.505023
0.503397
0.502303
0.50178
0.501507
0.501274
0.50106
0.500878
0.500824
0.50078
0.500863
0.50095
0.501122
0.501372
0.501715
0.502108
0.503224
0.505807
0.509698
0.515077
0.523154
0.533938
0.541994
0.533115
0.514459
0.485155
0.327156
0.0646622
0.000129288
8.31591e-05
5.19383e-05
4.90993e-05
0.000139432
0.00101249
0.000389262
0.000857044
0.0139828
0.000857815
0.0365363
0.00171121
1.02538e-06
3.89823e-10
9.27972e-14
1.26206e-17
6.53805e-22
8.43126e-27
1.91663e-29
0.000618494
0.0145906
0.073948
0.176001
0.283627
0.370285
0.429678
0.466276
0.487124
0.498545
0.505237
0.509594
0.512052
0.512783
0.512445
0.511381
0.509944
0.508321
0.506649
0.504941
0.503387
0.502308
0.501778
0.501453
0.501212
0.50102
0.500867
0.500731
0.500682
0.500808
0.500923
0.501015
0.501307
0.501577
0.501957
0.502637
0.504726
0.508282
0.512989
0.519974
0.529837
0.539894
0.538923
0.520068
0.50255
0.415839
0.155938
0.00711122
1.22611e-05
1.4643e-05
7.19344e-05
3.82545e-05
9.8009e-06
0.000223651
0.000260423
0.0128919
0.00455348
0.0140647
0.0217887
9.21969e-05
4.124e-08
1.19943e-11
2.16565e-15
1.92257e-19
3.94577e-24
8.21051e-32
3.83727e-30
0.000615679
0.0145308
0.0737233
0.175675
0.283364
0.370127
0.429636
0.466295
0.487168
0.498549
0.505205
0.509531
0.511994
0.512773
0.512472
0.511429
0.50994
0.508231
0.506466
0.504804
0.503315
0.502303
0.501774
0.501437
0.501155
0.500958
0.500836
0.50071
0.500587
0.500609
0.500788
0.501019
0.501186
0.501461
0.501745
0.502278
0.503833
0.506836
0.511203
0.517171
0.526116
0.536734
0.541688
0.527626
0.51031
0.466944
0.27073
0.0383789
0.000704524
0.00028496
0.000300685
0.000295739
0.000354193
7.28613e-05
6.14297e-05
0.00116805
0.0144234
0.000122967
0.0378717
0.00497618
3.95681e-06
1.32242e-09
2.89034e-13
3.72931e-17
1.80047e-21
7.32944e-27
4.02093e-28
3.89015e-30
0.000613045
0.014473
0.0734922
0.175298
0.283023
0.369918
0.429536
0.466275
0.487179
0.498556
0.505179
0.509482
0.511931
0.51274
0.512457
0.51149
0.509986
0.508232
0.506347
0.504607
0.503211
0.502269
0.501768
0.501436
0.501124
0.500887
0.500747
0.500677
0.500589
0.500577
0.500653
0.500795
0.501058
0.501333
0.501606
0.501982
0.503067
0.505774
0.509504
0.514933
0.522687
0.533097
0.541537
0.534668
0.515657
0.493707
0.368556
0.108219
0.00342025
0.000467783
0.000298837
0.000284267
0.00020398
2.85733e-05
0.000434894
0.000223075
0.00400016
0.00680382
0.00974204
0.0314474
0.000333951
1.31881e-07
3.29476e-11
5.27933e-15
3.636e-19
9.44133e-24
1.77449e-27
1.19274e-29
1.05752e-30
0.000610703
0.0144195
0.0732633
0.174907
0.282625
0.36964
0.429398
0.466221
0.487161
0.498555
0.50516
0.509434
0.511855
0.512665
0.512409
0.51149
0.510081
0.508304
0.506357
0.50446
0.50305
0.502212
0.501749
0.501428
0.501123
0.500862
0.500657
0.500578
0.50056
0.500519
0.500594
0.500749
0.501032
0.501187
0.501604
0.501875
0.502501
0.504623
0.508144
0.512907
0.51981
0.529427
0.53937
0.539614
0.521791
0.505312
0.439071
0.201358
0.0167122
0.000187537
0.000109778
2.60899e-05
6.28999e-07
3.09077e-05
0.000462737
0.00144809
0.000256601
0.0128565
8.78658e-06
0.034746
0.0103656
1.17704e-05
3.31902e-09
6.20618e-13
5.82924e-17
2.61813e-21
1.03556e-26
4.1159e-29
1.50865e-28
6.88934e-31
0.000608588
0.0143715
0.073049
0.174504
0.282192
0.369317
0.429202
0.466138
0.487125
0.498544
0.505142
0.509399
0.511791
0.512582
0.512343
0.511441
0.510114
0.508416
0.506442
0.504449
0.50291
0.502115
0.501709
0.501411
0.501124
0.500856
0.500639
0.500484
0.500474
0.50052
0.500555
0.500591
0.500834
0.501138
0.501477
0.501791
0.502233
0.503638
0.506882
0.511186
0.517217
0.525929
0.536372
0.5417
0.529027
0.511612
0.477346
0.307128
0.0630466
0.000223068
8.21401e-06
3.17037e-05
7.67525e-05
0.000134341
0.000259396
0.000989623
0.000598597
0.000880561
0.00972742
0.00391153
0.0405627
0.000887159
3.07045e-07
6.4353e-11
7.40083e-15
4.77822e-19
1.16114e-23
2.60841e-26
3.91559e-28
5.12118e-31
4.23108e-32
0.000606672
0.0143277
0.0728552
0.174124
0.281741
0.368942
0.428965
0.466012
0.48709
0.49852
0.505147
0.509373
0.511748
0.512527
0.512245
0.511373
0.510085
0.508486
0.506582
0.504525
0.502875
0.50202
0.501655
0.501379
0.501118
0.500861
0.500622
0.500442
0.500346
0.500376
0.500521
0.500625
0.50068
0.500966
0.501327
0.501703
0.502026
0.503014
0.505593
0.509694
0.51506
0.522741
0.532944
0.541332
0.535302
0.51654
0.497408
0.393566
0.136013
0.00583391
7.27489e-06
1.31928e-05
1.87785e-05
1.64458e-05
3.51779e-06
1.42875e-05
0.000199543
0.000290497
0.01451
0.00206485
0.0308582
0.0158805
2.61015e-05
6.0668e-09
8.63048e-13
6.95506e-17
2.59071e-21
1.041e-26
2.08033e-27
4.05407e-29
1.7653e-28
2.0559e-30
0.000604886
0.0142877
0.0726747
0.17378
0.281301
0.368546
0.428694
0.465861
0.487018
0.498512
0.505142
0.509375
0.511712
0.512467
0.512163
0.511275
0.510007
0.508471
0.50666
0.504681
0.502942
0.501994
0.501572
0.501314
0.501078
0.500852
0.500624
0.500433
0.500313
0.500308
0.500398
0.500563
0.500706
0.500837
0.50114
0.501582
0.501947
0.502581
0.504638
0.508213
0.513116
0.520024
0.529506
0.539274
0.53967
0.522501
0.506546
0.451311
0.234766
0.0304017
0.0002864
6.56777e-05
5.54171e-05
5.11356e-05
0.000180588
0.000388724
0.000146035
3.87669e-05
0.00274802
0.0102114
0.00158079
0.046876
0.00174671
5.36016e-07
9.01708e-11
8.87512e-15
4.46661e-19
6.534e-24
2.53611e-26
3.8025e-27
4.70498e-28
2.9421e-29
6.59639e-31
0.000603306
0.0142502
0.0725111
0.173458
0.280903
0.368154
0.428409
0.465695
0.486936
0.498477
0.505134
0.509379
0.511709
0.51242
0.512075
0.511138
0.509899
0.508396
0.506673
0.504802
0.503075
0.502024
0.501541
0.501216
0.500991
0.500811
0.500618
0.500437
0.500315
0.50021
0.500286
0.500416
0.500627
0.500795
0.501054
0.501391
0.501812
0.502322
0.503843
0.507047
0.511462
0.517605
0.526288
0.536437
0.541526
0.52915
0.512059
0.482513
0.331759
0.0888193
0.00230561
0.000470058
0.000329339
0.00028131
0.00026444
0.000366327
0.000317296
9.76113e-05
9.32095e-06
0.00502618
0.00123479
0.0307603
0.0203056
4.39413e-05
8.22741e-09
1.02425e-12
6.80082e-17
1.66742e-21
6.63583e-27
2.58634e-27
3.64085e-28
3.44065e-29
2.77847e-29
1.26189e-31
0.000601621
0.0142165
0.0723579
0.173158
0.280537
0.367797
0.428122
0.46552
0.486848
0.498431
0.505126
0.509386
0.511707
0.512421
0.512015
0.511028
0.509738
0.50825
0.50662
0.50484
0.503204
0.502113
0.501553
0.50117
0.500879
0.500725
0.500579
0.500438
0.500291
0.500166
0.500194
0.500252
0.500445
0.500713
0.500952
0.501212
0.501685
0.502129
0.503268
0.506012
0.510108
0.515559
0.523371
0.533337
0.541119
0.534863
0.516405
0.498849
0.406662
0.16077
0.0139394
0.000600143
0.00053081
0.000383643
0.000256895
0.000144854
3.74941e-05
6.00872e-05
0.00112509
1.89767e-05
0.00877517
0.00192233
0.0440396
0.00265122
7.26002e-07
1.01451e-10
8.94778e-15
3.36758e-19
3.111e-24
9.38022e-29
4.3012e-27
3.20219e-28
2.62298e-28
1.49959e-29
1.2237e-31
0.000600186
0.0141823
0.0722139
0.172878
0.280187
0.367468
0.427852
0.465331
0.486755
0.498392
0.505112
0.509392
0.511715
0.512405
0.512011
0.510939
0.509594
0.50808
0.506446
0.504769
0.503239
0.502183
0.50161
0.501181
0.500827
0.500593
0.500495
0.500402
0.500299
0.500156
0.500123
0.500209
0.50034
0.500693
0.500971
0.501244
0.501514
0.501826
0.502739
0.505161
0.508779
0.513792
0.52071
0.530146
0.539527
0.538853
0.52189
0.506567
0.456001
0.252273
0.0434666
0.000906644
0.00028119
0.000159291
6.85247e-05
4.95091e-06
1.83337e-05
0.000188994
0.00116529
0.00050114
0.00569861
0.00480605
0.0275382
0.0258184
5.76514e-05
9.01644e-09
1.01458e-12
5.39077e-17
8.75816e-22
7.19349e-28
1.00784e-27
2.34802e-28
3.96349e-28
3.74943e-31
2.52327e-30
5.42631e-34
0.000598808
0.0141515
0.0720713
0.172613
0.279858
0.367166
0.427597
0.465151
0.486639
0.498333
0.505085
0.509402
0.511737
0.512418
0.512031
0.51093
0.50947
0.507882
0.506229
0.504611
0.50317
0.502206
0.501663
0.501229
0.500815
0.500513
0.500363
0.500306
0.500275
0.500202
0.500166
0.500179
0.500176
0.50048
0.500871
0.501221
0.501464
0.501811
0.502392
0.504308
0.507673
0.512252
0.518487
0.527194
0.537056
0.541144
0.528003
0.511562
0.483482
0.339818
0.0967737
0.00275704
3.7999e-05
1.45844e-05
1.46061e-07
1.605e-05
5.8541e-05
0.000111941
0.00033476
0.000422412
0.000426727
0.0138139
0.000928709
0.0531014
0.00301612
8.12895e-07
9.89609e-11
7.41853e-15
1.91138e-19
1.88258e-24
5.35848e-27
1.04669e-27
2.18053e-28
4.0498e-29
1.79444e-29
2.75367e-31
2.70326e-33
0.000597562
0.0141226
0.071942
0.172354
0.279545
0.366874
0.427368
0.464976
0.486528
0.498257
0.505046
0.509403
0.511768
0.512444
0.512063
0.510977
0.509443
0.507709
0.505987
0.504357
0.503062
0.502184
0.5017
0.50131
0.500878
0.500495
0.500258
0.500159
0.500189
0.500216
0.500163
0.500167
0.500195
0.500288
0.500663
0.501047
0.501399
0.50169
0.502066
0.50356
0.506704
0.510845
0.516591
0.524563
0.534285