/*--------------------------------*- C++ -*----------------------------------*\
| =========                 |                                                 |
| \\      /  F ield         | OpenFOAM: The Open Source CFD Toolbox           |
|  \\    /   O peration     | Version:  v2012                                 |
|   \\  /    A nd           | Website:  www.openfoam.com                      |
|    \\/     M anipulation  |                                                 |
\*---------------------------------------------------------------------------*/
FoamFile
{
    version     2.0;
    format      ascii;
    class       volScalarField;
    location    "13200";
    object      lambda2;
}
// * * * * * * * * * * * * * * * * * * * * * * * * * * * * * * * * * * * * * //

dimensions      [0 0 0 0 0 0 0];


internalField   nonuniform List<scalar> 
39402
(
-0.0338982
-0.00359903
-0.156281
-0.000930274
-0.0585672
-0.195618
-0.000833931
-0.0209125
-0.193041
-0.175657
-0.000922404
-0.0180876
-0.0959391
-0.320609
-0.140292
-0.00103054
-0.0197458
-0.0853335
-0.205522
-0.404492
-0.109255
-0.00111255
-0.0217528
-0.091533
-0.192833
-0.311824
-0.449383
-0.0826879
-0.00116791
-0.0232531
-0.0988202
-0.203181
-0.30097
-0.394938
-0.468927
-0.0615871
-0.00118988
-0.0242735
-0.10413
-0.214922
-0.311964
-0.386365
-0.452868
-0.472692
-0.0457084
-0.00119176
-0.0247007
-0.107732
-0.22324
-0.324185
-0.394757
-0.445307
-0.490708
-0.466969
-0.0339299
-0.00118228
-0.024783
-0.109275
-0.228855
-0.332653
-0.404366
-0.449509
-0.482864
-0.514149
-0.455014
-0.0253575
-0.00116581
-0.0246627
-0.10967
-0.231276
-0.338345
-0.410953
-0.455324
-0.482619
-0.506294
-0.528224
-0.438944
-0.0186329
-0.00114571
-0.0244102
-0.109367
-0.232005
-0.340797
-0.415407
-0.459411
-0.484761
-0.502349
-0.521563
-0.536206
-0.42034
-0.0137375
-0.00112253
-0.0240834
-0.108596
-0.231657
-0.341609
-0.417298
-0.46226
-0.486602
-0.501337
-0.515427
-0.531753
-0.540314
-0.396804
-0.0102252
-0.00109991
-0.0236964
-0.107548
-0.230592
-0.341334
-0.417966
-0.463429
-0.488027
-0.501416
-0.511752
-0.52441
-0.538747
-0.541967
-0.365301
-0.00768177
-0.00107824
-0.0233131
-0.106269
-0.22907
-0.340337
-0.417767
-0.463871
-0.488561
-0.501779
-0.510444
-0.518569
-0.530101
-0.543915
-0.541883
-0.327248
-0.00578909
-0.00105695
-0.0229395
-0.104981
-0.227174
-0.338866
-0.417009
-0.463708
-0.488781
-0.501838
-0.509997
-0.516113
-0.522562
-0.533168
-0.546588
-0.54155
-0.284583
-0.00439157
-0.00103579
-0.0225651
-0.103704
-0.225234
-0.337002
-0.415864
-0.463182
-0.488621
-0.501879
-0.509728
-0.514966
-0.519127
-0.524671
-0.533792
-0.545593
-0.541072
-0.239965
-0.00334223
-0.00101433
-0.0221909
-0.102402
-0.223285
-0.335064
-0.414396
-0.462388
-0.488271
-0.501683
-0.509592
-0.514517
-0.517341
-0.520418
-0.525761
-0.533789
-0.544493
-0.535778
-0.196029
-0.00258152
-0.000991051
-0.0218077
-0.101092
-0.22127
-0.333093
-0.412856
-0.461379
-0.487754
-0.501414
-0.509329
-0.51416
-0.516742
-0.518117
-0.520881
-0.526859
-0.536234
-0.547262
-0.521369
-0.155724
-0.00191638
-0.000971221
-0.0213873
-0.0997329
-0.219218
-0.331039
-0.411268
-0.460308
-0.48711
-0.501045
-0.509062
-0.51386
-0.516157
-0.517273
-0.518167
-0.521315
-0.528887
-0.541702
-0.550964
-0.49522
-0.117152
-0.00128828
-0.000955342
-0.0210255
-0.0982395
-0.217077
-0.328925
-0.409606
-0.459197
-0.486428
-0.50062
-0.508739
-0.513598
-0.515841
-0.516529
-0.516873
-0.518021
-0.522228
-0.532392
-0.548329
-0.552009
-0.455585
-0.0850666
-0.000770537
-0.000934783
-0.0207333
-0.0969338
-0.214711
-0.326711
-0.407884
-0.458028
-0.485715
-0.500165
-0.50839
-0.513304
-0.515614
-0.516185
-0.516049
-0.516136
-0.517996
-0.524014
-0.537079
-0.553931
-0.549726
-0.404014
-0.0621338
-0.000324441
-0.000917524
-0.0203565
-0.0958642
-0.212619
-0.324247
-0.406071
-0.45681
-0.484961
-0.499692
-0.508019
-0.513011
-0.515374
-0.51596
-0.515645
-0.515175
-0.515474
-0.518472
-0.526619
-0.541588
-0.556478
-0.542981
-0.343952
-0.0453559
-9.32435e-05
-0.000900663
-0.020036
-0.0944921
-0.210872
-0.322048
-0.404047
-0.455524
-0.484176
-0.499196
-0.507635
-0.512708
-0.515147
-0.51576
-0.515394
-0.514665
-0.514226
-0.515119
-0.519437
-0.529392
-0.545115
-0.554215
-0.530187
-0.280476
-0.0312928
-2.15025e-05
-0.0008849
-0.0197222
-0.0933161
-0.208655
-0.320183
-0.402224
-0.454087
-0.483351
-0.498677
-0.507242
-0.512393
-0.514933
-0.515585
-0.515202
-0.514372
-0.513551
-0.513434
-0.515081
-0.52065
-0.532334
-0.548243
-0.548458
-0.508494
-0.218555
-0.0196581
-4.51771e-06
-0.000869091
-0.0194276
-0.0921524
-0.20673
-0.317832
-0.400653
-0.452781
-0.48243
-0.498133
-0.506837
-0.512072
-0.514715
-0.515428
-0.515047
-0.514163
-0.513166
-0.512513
-0.512825
-0.515244
-0.522419
-0.535979
-0.550711
-0.543841
-0.47363
-0.160729
-0.0114222
-7.87206e-07
-0.000854689
-0.0191316
-0.0910588
-0.204818
-0.315771
-0.398692
-0.451641
-0.481575
-0.497536
-0.506419
-0.511768
-0.51449
-0.515283
-0.514914
-0.514006
-0.512911
-0.511997
-0.511586
-0.512378
-0.515955
-0.52505
-0.540226
-0.551567
-0.540388
-0.42006
-0.110822
-0.00629919
-3.98173e-08
-0.000839913
-0.0188606
-0.0899587
-0.203012
-0.313712
-0.396955
-0.450229
-0.480825
-0.496975
-0.505965
-0.511455
-0.514277
-0.515131
-0.514801
-0.513893
-0.512724
-0.511652
-0.510909
-0.510795
-0.512388
-0.517491
-0.528686
-0.544379
-0.548522
-0.531538
-0.345998
-0.0712393
-0.00336651
-5.96531e-08
-0.000826751
-0.0185831
-0.088947
-0.201191
-0.311756
-0.395211
-0.448967
-0.479905
-0.496471
-0.505524
-0.511106
-0.514079
-0.514985
-0.514689
-0.513778
-0.512594
-0.511386
-0.510453
-0.509915
-0.510337
-0.513043
-0.519998
-0.533264
-0.547616
-0.542281
-0.50989
-0.259901
-0.0427535
-0.0017011
-3.27107e-07
-0.000813497
-0.0183339
-0.08791
-0.199506
-0.309784
-0.393546
-0.447698
-0.479079
-0.495877
-0.505128
-0.51077
-0.513855
-0.514857
-0.514592
-0.513685
-0.512475
-0.51123
-0.510123
-0.509329
-0.509216
-0.510388
-0.514422
-0.523446
-0.538267
-0.548843
-0.537333
-0.467313
-0.177893
-0.0238619
-0.000824848
-4.99008e-07
-0.000802942
-0.0180847
-0.0869742
-0.197777
-0.307952
-0.391864
-0.446479
-0.478242
-0.495333
-0.504678
-0.510462
-0.513643
-0.514727
-0.51451
-0.513603
-0.512372
-0.511094
-0.509922
-0.508945
-0.508469
-0.508892
-0.511055
-0.516636
-0.527887
-0.543113
-0.546484
-0.531263
-0.395956
-0.110743
-0.0125957
-0.000354997
-3.50584e-07
-0.000791336
-0.0178846
-0.0860407
-0.196216
-0.306073
-0.390298
-0.445242
-0.477434
-0.494775
-0.50425
-0.510112
-0.513432
-0.514597
-0.514441
-0.51355
-0.512304
-0.510961
-0.509748
-0.508697
-0.507974
-0.507938
-0.508992
-0.512338
-0.519842
-0.533181
-0.54669
-0.540357
-0.513869
-0.299056
-0.0638928
-0.00639885
-0.000130221
-1.23326e-07
-0.000778961
-0.0176674
-0.0852898
-0.194656
-0.304369
-0.388692
-0.444078
-0.476615
-0.494235
-0.503829
-0.509794
-0.513212
-0.51447
-0.514366
-0.513507
-0.512269
-0.510887
-0.509585
-0.508481
-0.507642
-0.507292
-0.507723
-0.509678
-0.514376
-0.524114
-0.538719
-0.547422
-0.53388
-0.47308
-0.200127
-0.0356036
-0.00280471
-4.24646e-05
-2.85506e-08
-0.000768226
-0.0174345
-0.084479
-0.193395
-0.302656
-0.387227
-0.442889
-0.475839
-0.493689
-0.503413
-0.509482
-0.513015
-0.514336
-0.514278
-0.513448
-0.512228
-0.510849
-0.509478
-0.508272
-0.507362
-0.506832
-0.506866
-0.50794
-0.510917
-0.517372
-0.529336
-0.543516
-0.542801
-0.526472
-0.397651
-0.120848
-0.0189084
-0.00103122
-1.38321e-05
-3.9736e-08
-0.00075892
-0.0172328
-0.0836126
-0.192041
-0.301266
-0.38575
-0.441802
-0.475042
-0.493169
-0.502993
-0.509168
-0.51281
-0.514223
-0.5142
-0.513391
-0.512185
-0.510808
-0.509424
-0.508127
-0.507111
-0.506464
-0.506318
-0.506849
-0.508699
-0.512881
-0.521445
-0.535112
-0.545974
-0.53454
-0.506209
-0.290153
-0.0689419
-0.00916244
-0.000419689
-3.06579e-06
-8.92819e-08
-0.000750927
-0.017058
-0.0828625
-0.190595
-0.299778
-0.38454
-0.44071
-0.474315
-0.49268
-0.502585
-0.508856
-0.512615
-0.514101
-0.514151
-0.513357
-0.512158
-0.510772
-0.509366
-0.508044
-0.50693
-0.506151
-0.505881
-0.506117
-0.507195
-0.509926
-0.515813
-0.526567
-0.540756
-0.544104
-0.5279
-0.456595
-0.184563
-0.0349095
-0.00406201
-0.000184588
-8.29111e-09
-9.91541e-08
-0.000742948
-0.0169068
-0.082211
-0.189352
-0.298197
-0.383258
-0.439806
-0.473585
-0.492229
-0.50227
-0.508559
-0.512409
-0.51399
-0.514079
-0.513344
-0.512123
-0.510728
-0.509319
-0.507956
-0.506795
-0.505916
-0.505454
-0.50553
-0.506202
-0.50792
-0.511874
-0.519719
-0.532541
-0.544699
-0.536927
-0.517239
-0.366762
-0.104386
-0.0138087
-0.00154686
-9.6493e-05
-1.01232e-06
-7.51312e-08
-0.000733572
-0.0167599
-0.0816469
-0.188268
-0.296843
-0.381901
-0.438858
-0.472968
-0.491769
-0.501975
-0.508295
-0.512222
-0.513875
-0.514008
-0.513292
-0.512118
-0.510688
-0.509271
-0.507902
-0.506673
-0.505736
-0.505136
-0.504985
-0.505414
-0.506676
-0.509299
-0.514689
-0.524692
-0.538566
-0.544908
-0.528508
-0.486175
-0.249064
-0.0474448
-0.00588778
-0.000313978
-4.36624e-05
-3.58551e-07
-3.8117e-08
-0.000723722
-0.0165863
-0.0811134
-0.18733
-0.295656
-0.380727
-0.437856
-0.472329
-0.491373
-0.501676
-0.508056
-0.512017
-0.51375
-0.513955
-0.513263
-0.512093
-0.510697
-0.509209
-0.507835
-0.506597
-0.505573
-0.504892
-0.504606
-0.50479
-0.505651
-0.507565
-0.511261
-0.518553
-0.530612
-0.54326
-0.538443
-0.52032
-0.417025
-0.136681
-0.0190316
-0.00293673
-3.58675e-05
-7.48187e-06
-9.46925e-08
-1.6914e-08
-0.000716313
-0.0164033
-0.0804819
-0.186455
-0.294634
-0.379705
-0.436974
-0.471659
-0.490975
-0.50143
-0.50783
-0.511838
-0.513631
-0.5139
-0.513235
-0.512077
-0.510672
-0.509215
-0.50775
-0.506499
-0.505461
-0.504652
-0.504241
-0.504288
-0.504918
-0.506258
-0.508919
-0.514072
-0.523458
-0.536868
-0.544397
-0.528327
-0.500377
-0.300941
-0.0611296
-0.0078266
-0.00130734
-1.65699e-05
-2.44178e-07
-7.15961e-07
-8.03986e-09
-0.000711418
-0.0162674
-0.0798155
-0.185426
-0.293684
-0.378835
-0.436221
-0.471064
-0.490556
-0.501165
-0.50763
-0.511671
-0.513525
-0.51384
-0.513223
-0.512061
-0.510647
-0.509157
-0.507724
-0.506358
-0.505338
-0.504508
-0.503951
-0.503853
-0.504225
-0.505239
-0.507299
-0.51091
-0.517873
-0.529385
-0.542099
-0.539026
-0.52087
-0.447682
-0.16828
-0.0240797
-0.00285731
-0.000128756
-3.98124e-06
-1.036e-07
-3.87231e-07
-3.59752e-09
-0.000706301
-0.016178
-0.0793276
-0.184336
-0.292576
-0.378021
-0.435578
-0.470557
-0.490187
-0.50089
-0.507424
-0.511493
-0.513409
-0.513775
-0.513199
-0.512064
-0.510642
-0.509125
-0.507642
-0.5063
-0.505115
-0.50435
-0.503764
-0.503471
-0.503761
-0.504478
-0.505994
-0.508754
-0.513774
-0.522781
-0.535794
-0.543993
-0.529343
-0.506666
-0.342064
-0.0728162
-0.00881367
-0.000995195
-4.05664e-07
-2.32243e-06
-5.92276e-12
-3.14886e-09
-1.50081e-09
-0.000699679
-0.0160852
-0.0790119
-0.183552
-0.291409
-0.377071
-0.434971
-0.470128
-0.489859
-0.500652
-0.507198
-0.511342
-0.513304
-0.513696
-0.513158
-0.512046
-0.510643
-0.509122
-0.507588
-0.506188
-0.505005
-0.504035
-0.503562
-0.503227
-0.50326
-0.503845
-0.505029
-0.507142
-0.510829
-0.517633
-0.528795
-0.541317
-0.53952
-0.52122
-0.464453
-0.198838
-0.0266811
-0.00304618
-0.000343711
-1.87313e-05
-1.61414e-06
-2.07562e-07
-1.66792e-07
-6.17669e-10
-0.00069301
-0.0159663
-0.0786886
-0.183053
-0.290582
-0.376085
-0.434273
-0.469712
-0.489595
-0.500424
-0.507002
-0.511179
-0.513209
-0.513632
-0.513124
-0.51202
-0.510618
-0.509093
-0.507556
-0.506091
-0.504841
-0.503871
-0.503181
-0.503017
-0.502903
-0.503309
-0.504233
-0.505865
-0.508667
-0.513803
-0.522594
-0.535261
-0.543698
-0.529873
-0.508951
-0.369891
-0.0840184
-0.00890829
-0.000911002
-2.71276e-05
-2.10042e-05
-4.58911e-07
-4.62237e-06
-3.79156e-07
-2.5265e-10
-0.000686548
-0.0158475
-0.0782713
-0.182549
-0.290063
-0.375385
-0.43354
-0.469247
-0.489334
-0.500241
-0.506842
-0.511022
-0.513119
-0.513575
-0.513076
-0.512003
-0.510593
-0.509061
-0.507513
-0.506004
-0.504703
-0.503655
-0.503011
-0.502646
-0.502635
-0.502852
-0.50353
-0.504906
-0.507082
-0.510895
-0.517752
-0.528645
-0.540868
-0.539651
-0.52083
-0.472891
-0.2229
-0.0281302
-0.00295212
-0.000127502
-1.34154e-06
-4.89259e-06
-1.15103e-09
-6.93498e-06
-2.86441e-07
-8.3086e-11
-0.000680329
-0.0157313
-0.0778643
-0.181901
-0.28955
-0.374972
-0.433022
-0.468753
-0.489043
-0.500076
-0.506683
-0.510894
-0.513013
-0.513537
-0.513033
-0.511977
-0.510575
-0.509031
-0.507451
-0.505948
-0.504569
-0.503477
-0.502799
-0.502498
-0.502441
-0.502496
-0.503028
-0.503938
-0.50577
-0.508831
-0.513999
-0.522791
-0.535188
-0.543411
-0.529742
-0.509105
-0.386382
-0.0917789
-0.00870031
-0.000624685
-8.54457e-06
-8.42884e-06
-9.29112e-07
-3.52481e-08
-3.07279e-06
-1.11926e-07
-3.35091e-11
-0.000675224
-0.015619
-0.0774625
-0.181275
-0.288889
-0.374552
-0.432733
-0.468402
-0.488728
-0.499886
-0.506536
-0.510787
-0.512911
-0.51348
-0.513019
-0.511964
-0.510564
-0.509015
-0.507425
-0.50587
-0.504489
-0.503341
-0.50264
-0.50236
-0.502323
-0.502344
-0.502567
-0.503371
-0.504748
-0.507169
-0.511163
-0.518087
-0.528939
-0.540847
-0.539141
-0.519984
-0.476344
-0.238299
-0.02811
-0.00220831
-4.709e-05
-6.95052e-07
-1.72839e-05
-1.99394e-06
-1.37469e-06
-1.80246e-07
-3.83983e-08
-3.6879e-12
-0.000672195
-0.0155279
-0.0770739
-0.180654
-0.288248
-0.374011
-0.43243
-0.468209
-0.488507
-0.499687
-0.506381
-0.510662
-0.512836
-0.513406
-0.512981
-0.511941
-0.510555
-0.509011
-0.507386
-0.505816
-0.504383
-0.503267
-0.502528
-0.502259
-0.502228
-0.502269
-0.502341
-0.502839
-0.503988
-0.505915
-0.509094
-0.51441
-0.523375
-0.535514
-0.5431
-0.528841
-0.508398
-0.393291
-0.0958015
-0.00736555
-0.000283993
-1.67033e-06
-3.56879e-07
-1.64442e-05
-3.32004e-06
-4.58811e-06
-2.91589e-07
-9.3601e-09
-1.16544e-12
-0.000670344
-0.0154753
-0.0767677
-0.180055
-0.28761
-0.373484
-0.43204
-0.468014
-0.488384
-0.49953
-0.506219
-0.510544
-0.512761
-0.513351
-0.512944
-0.511918
-0.510541
-0.508984
-0.507363
-0.505739
-0.504285
-0.503148
-0.502464
-0.502175
-0.502124
-0.502167
-0.50227
-0.502415
-0.503389
-0.504949
-0.507322
-0.511526
-0.518699
-0.529617
-0.541067
-0.538221
-0.518832
-0.476253
-0.243821
-0.0262321
-0.00128797
-2.04774e-05
-1.3932e-06
-3.10949e-06
-4.80622e-06
-2.51753e-06
-7.82793e-06
-8.62032e-07
-2.14076e-09
-1.09227e-12
-0.000667831
-0.0154465
-0.0766029
-0.179599
-0.286997
-0.372963
-0.431664
-0.46776
-0.488259
-0.49944
-0.506091
-0.510393
-0.512681
-0.513298
-0.512923
-0.511902
-0.510538
-0.508978
-0.50732
-0.505695
-0.504178
-0.503054
-0.50238
-0.502131
-0.502053
-0.502061
-0.502113
-0.502294
-0.502561
-0.504115
-0.506208
-0.509357
-0.514918
-0.524151
-0.53626
-0.542774
-0.527498
-0.506856
-0.393579
-0.0936208
-0.00525625
-0.00011029
-3.55977e-07
-1.29961e-06
-1.06399e-06
-1.02414e-07
-4.79715e-07
-5.26743e-06
-6.58138e-07
-1.06449e-09
-2.21795e-13
-0.000663838
-0.015406
-0.0765306
-0.17938
-0.28654
-0.372464
-0.431297
-0.467512
-0.488109
-0.499345
-0.506002
-0.510286
-0.512593
-0.51325
-0.512881
-0.511906
-0.510521
-0.508967
-0.50731
-0.50563
-0.504116
-0.502956
-0.502314
-0.502054
-0.501987
-0.501972
-0.50199
-0.502087
-0.502286
-0.503139
-0.505224
-0.507841
-0.51215
-0.519552
-0.530665
-0.541624
-0.536912
-0.517403
-0.473646
-0.24109
-0.0215781
-0.00065359
-1.92807e-06
-1.28974e-06
-4.55792e-07
-1.7164e-06
-4.85817e-06
-5.42669e-07
-5.7997e-07
-1.84306e-07
-1.05598e-10
-3.8731e-14
-0.00065814
-0.0153387
-0.0764182
-0.179318
-0.286362
-0.372113
-0.43095
-0.46727
-0.487945
-0.499269
-0.505931
-0.51021
-0.512501
-0.513212
-0.512852
-0.51188
-0.51051
-0.508956
-0.507292
-0.505589
-0.504014
-0.502905
-0.502252
-0.501989
-0.501887
-0.501853
-0.501872
-0.502026
-0.502169
-0.502547
-0.504103
-0.506619
-0.510072
-0.51578
-0.525338
-0.537401
-0.542343
-0.525546
-0.504569
-0.38771
-0.0851953
-0.00320591
-1.96294e-05
-5.50808e-07
-1.11201e-06
-3.72271e-07
-5.77849e-06
-4.96288e-06
-4.13119e-06
-4.89686e-07
-4.22482e-08
-1.60897e-11
-5.94794e-15
-0.000652294
-0.0152374
-0.0762056
-0.179188
-0.286362
-0.372004
-0.43072
-0.467044
-0.487795
-0.499159
-0.505866
-0.510166
-0.512454
-0.513142
-0.512834
-0.511857
-0.510507
-0.508926
-0.507259
-0.50558
-0.50396
-0.502796
-0.502223
-0.501933
-0.501822
-0.501749
-0.501774
-0.501837
-0.502086
-0.502295
-0.503217
-0.505314
-0.508476
-0.513023
-0.520577
-0.532008
-0.542302
-0.534844
-0.515512
-0.46836
-0.228262
-0.0155497
-0.000231238
-1.66044e-06
-1.00472e-06
-4.28046e-07
-6.45995e-06
-1.17252e-06
-1.96311e-06
-9.17104e-06
-1.54213e-06
-6.76872e-09
-1.0145e-11
-7.64128e-16
-0.000646859
-0.015131
-0.0758631
-0.1789
-0.286274
-0.372046
-0.430659
-0.466896
-0.487652
-0.499041
-0.505787
-0.510083
-0.512408
-0.513094
-0.512764
-0.511828
-0.510486
-0.508891
-0.507225
-0.505515
-0.503928
-0.502725
-0.502158
-0.50191
-0.501748
-0.501683
-0.501673
-0.501821
-0.50196
-0.502139
-0.502566
-0.504281
-0.506931
-0.510889
-0.516941
-0.52669
-0.538572
-0.541537
-0.522894
-0.501248
-0.37496
-0.070672
-0.00147454
-7.35861e-07
-2.35661e-06
-1.63403e-07
-9.44682e-07
-3.49487e-11
-5.6001e-07
-4.27057e-08
-4.51513e-06
-9.06379e-07
-4.06163e-10
-1.32277e-12
-8.3104e-17
-0.000642412
-0.0150322
-0.0754925
-0.17839
-0.286024
-0.372022
-0.430703
-0.466864
-0.487555
-0.498951
-0.505686
-0.510031
-0.512351
-0.513052
-0.512698
-0.511782
-0.510448
-0.508863
-0.507158
-0.505446
-0.50385
-0.502681
-0.502103
-0.501859
-0.501714
-0.501597
-0.501554
-0.501663
-0.501842
-0.502078
-0.502282
-0.503341
-0.50571
-0.508878
-0.514087
-0.522169
-0.533524
-0.542595
-0.532195
-0.513163
-0.459483
-0.20515
-0.00934604
-4.54019e-05
-4.99959e-06
-3.85299e-07
-2.72737e-06
-8.21516e-06
-6.55038e-06
-2.70256e-06
-1.44216e-06
-4.6086e-08
-2.02293e-07
-1.66801e-10
-1.50028e-13
-7.49622e-18
-0.000639297
-0.0149526
-0.0751472
-0.177817
-0.285519
-0.371848
-0.43072
-0.466904
-0.487533
-0.498875
-0.505596
-0.509974
-0.512322
-0.513054
-0.512686
-0.511724
-0.510409
-0.50885
-0.507121
-0.505388
-0.503781
-0.502623
-0.502068
-0.501813
-0.501641
-0.501552
-0.501477
-0.501522
-0.501613
-0.501803
-0.502156
-0.502651
-0.504532
-0.507474
-0.511574
-0.518419
-0.528546
-0.539638
-0.539703
-0.51974
-0.496626
-0.354225
-0.0516895
-0.00033022
-6.07027e-07
-1.71091e-06
-1.75092e-06
-4.48577e-06
-1.1121e-06
-3.38478e-06
-2.71365e-06
-8.09775e-06
-1.89877e-06
-2.10444e-08
-5.36296e-11
-1.39424e-14
-5.60009e-19
-0.000637555
-0.0148976
-0.0748758
-0.177281
-0.284942
-0.371449
-0.430617
-0.466922
-0.487558
-0.498845
-0.505533
-0.509881
-0.512285
-0.51302
-0.512702
-0.511701
-0.51035
-0.508792
-0.507116
-0.505347
-0.503728
-0.50257
-0.50203
-0.501776
-0.501581
-0.501463
-0.501458
-0.501455
-0.501543
-0.501699
-0.501933
-0.502258
-0.503567
-0.506115
-0.509737
-0.515209
-0.523975
-0.535394
-0.542364
-0.528956
-0.510154
-0.446705
-0.17256
-0.00394832
-1.55642e-06
-3.14694e-06
-3.77022e-07
-8.08185e-06
-2.23984e-06
-4.8015e-07
-6.2066e-07
-1.93065e-06
-5.49446e-06
-1.53749e-06
-1.36198e-09
-5.03915e-12
-1.0955e-15
-3.43809e-20
-0.000637034
-0.0148695
-0.0746946
-0.176869
-0.284399
-0.370986
-0.430349
-0.466869
-0.487566
-0.498847
-0.505498
-0.509824
-0.512215
-0.512981
-0.512672
-0.511683
-0.510299
-0.508714
-0.507061
-0.505321
-0.503684
-0.502535
-0.501998
-0.50175
-0.501551
-0.501386
-0.501353
-0.501385
-0.50144
-0.501571
-0.501851
-0.502144
-0.502758
-0.504902
-0.508163
-0.512768
-0.519913
-0.530649
-0.540974
-0.537354
-0.517332
-0.490008
-0.324463
-0.031723
-1.90595e-05
-2.20516e-06
-1.59763e-07
-5.65677e-06
-1.14906e-05
-1.99611e-06
-1.02226e-05
-2.44209e-06
-6.76104e-07
-1.86452e-10
-2.75414e-07
-3.14527e-10
-4.06971e-13
-7.03622e-17
-1.69782e-21
-0.000636222
-0.0148649
-0.07462
-0.176608
-0.283989
-0.370551
-0.430024
-0.466707
-0.487547
-0.498853
-0.505489
-0.509789
-0.512157
-0.512936
-0.512625
-0.511667
-0.510275
-0.508639
-0.506978
-0.50529
-0.503642
-0.502496
-0.501968
-0.501728
-0.501513
-0.501342
-0.501241
-0.50124
-0.501343
-0.501389
-0.501694
-0.501958
-0.502365
-0.503895
-0.506759
-0.510742
-0.516771
-0.525887
-0.537494
-0.541877
-0.525625
-0.506825
-0.428093
-0.130904
-0.00133741
-7.77152e-07
-2.17035e-06
-3.81231e-06
-1.17019e-05
-3.67026e-06
-5.43729e-06
-5.29105e-06
-2.75755e-06
-1.05345e-05
-2.72714e-06
-2.25175e-08
-7.69308e-11
-2.66839e-14
-3.64449e-18
-6.52786e-23
-0.000634917
-0.0148551
-0.0746373
-0.176538
-0.283746
-0.37023
-0.429711
-0.466501
-0.487457
-0.498845
-0.505485
-0.509766
-0.512116
-0.512868
-0.512597
-0.51165
-0.510273
-0.508632
-0.506868
-0.505195
-0.503625
-0.502456
-0.501921
-0.501674
-0.501475
-0.501293
-0.501187
-0.501165
-0.501225
-0.501347
-0.501533
-0.501831
-0.502088
-0.503014
-0.505435
-0.509121
-0.514096
-0.521932
-0.532751
-0.542138
-0.534163
-0.514798
-0.479888
-0.282959
-0.0147703
-5.92665e-06
-2.96384e-06
-1.52656e-07
-1.68287e-05
-6.50295e-06
-1.40244e-06
-8.16063e-08
-2.17813e-07
-2.41196e-07
-4.64421e-06
-1.59239e-06
-6.48687e-09
-5.17358e-12
-1.41115e-15
-1.47294e-19
-1.90755e-24
-0.000632809
-0.0148331
-0.0746306
-0.176625
-0.28372
-0.37005
-0.429494
-0.4663
-0.487334
-0.498798
-0.505466
-0.509759
-0.512067
-0.512805
-0.512542
-0.511617
-0.510283
-0.508665
-0.50685
-0.505063
-0.503548
-0.502444
-0.501893
-0.501619
-0.501416
-0.501253
-0.501128
-0.501106
-0.501125
-0.501267
-0.501414
-0.501736
-0.501938
-0.502433
-0.504342
-0.507529
-0.51194
-0.518564
-0.528357
-0.539126
-0.540298
-0.521549
-0.50213
-0.400479
-0.0859589
-0.00025246
-4.41083e-06
-2.99924e-07
-9.29367e-06
-1.14316e-05
-3.39081e-06
-1.01569e-06
-4.01903e-06
-2.09618e-06
-3.8463e-06
-1.97142e-07
-1.72987e-07
-6.86289e-10
-2.80699e-13
-5.89941e-17
-4.55576e-21
-4.12475e-26
-0.000630412
-0.0147975
-0.0745755
-0.176667
-0.283864
-0.370057
-0.429376
-0.466158
-0.487214
-0.498729
-0.50544
-0.509747
-0.512065
-0.512756
-0.51246
-0.511573
-0.510236
-0.508671
-0.506898
-0.505019
-0.503436
-0.502402
-0.501876
-0.501595
-0.501354
-0.501204
-0.501089
-0.500996
-0.501032
-0.501019
-0.501237
-0.501572
-0.50179
-0.502185
-0.503369
-0.506206
-0.510044
-0.515705
-0.524261
-0.535399
-0.542111
-0.529897
-0.511453
-0.464927
-0.227466
-0.00515533
-3.04194e-07
-3.11381e-09
-7.36335e-06
-1.75403e-05
-1.85681e-06
-2.82826e-07
-5.18484e-06
-4.17855e-06
-4.92836e-06
-9.1357e-06
-3.02902e-06
-1.14552e-08
-3.82527e-11
-1.20684e-14
-1.97662e-18
-1.02546e-22
-5.33398e-28
-0.000627696
-0.0147545
-0.074465
-0.176618
-0.283963
-0.370215
-0.429399
-0.466082
-0.487121
-0.498652
-0.505405
-0.509732
-0.512079
-0.512752
-0.512406
-0.511498
-0.510173
-0.508613
-0.506897
-0.505044
-0.503386
-0.502339
-0.501852
-0.501581
-0.501315
-0.501128
-0.501016
-0.500944
-0.500931
-0.500964
-0.501114
-0.501392
-0.501777
-0.501971
-0.50277
-0.504929
-0.508505
-0.513298
-0.520649
-0.531049
-0.541016
-0.537056
-0.51736
-0.494929
-0.361078
-0.0456062
-2.44021e-05
-1.18141e-06
-4.93075e-06
-1.45447e-05
-7.09529e-06
-4.5768e-07
-1.54007e-07
-1.90055e-06
-5.43314e-07
-1.44835e-07
-8.51698e-07
-1.09336e-06
-1.79895e-09
-1.70419e-12
-4.16872e-16
-5.10627e-20
-1.54792e-24
-6.91664e-30
-0.000624773
-0.0147055
-0.0743209
-0.176474
-0.283961
-0.370343
-0.429531
-0.4661
-0.487063
-0.498597
-0.505332
-0.509713
-0.512074
-0.512772
-0.512382
-0.511399
-0.510113
-0.508532
-0.506849
-0.505043
-0.503386
-0.502297
-0.501816
-0.501559
-0.50131
-0.501082
-0.50093
-0.500888
-0.500864
-0.500978
-0.501012
-0.501269
-0.501562
-0.501925
-0.502378
-0.503903
-0.50706
-0.511369
-0.517632
-0.52688
-0.537782
-0.541525
-0.525105
-0.50705
-0.44218
-0.162123
-0.00141652
-1.95138e-08
-1.44058e-06
-1.58013e-05
-1.39031e-05
-2.03467e-06
-4.87734e-08
-4.81848e-07
-1.52155e-06
-2.85557e-06
-6.18221e-06
-2.20018e-06
-7.94513e-08
-1.90534e-10
-6.1009e-14
-1.13623e-17
-9.2118e-22
-1.58419e-26
-7.18905e-32
-0.000621609
-0.0146502
-0.074151
-0.176262
-0.283834
-0.370374
-0.429653
-0.466196
-0.487073
-0.49856
-0.505287
-0.509659
-0.512058
-0.51278
-0.512408
-0.511364
-0.509997
-0.50846
-0.506769
-0.505024
-0.503395
-0.502299
-0.501776
-0.501507
-0.501279
-0.501067
-0.500879
-0.50082
-0.500775
-0.500865
-0.500957
-0.501128
-0.50137
-0.501701
-0.502102
-0.503225
-0.505813
-0.509706
-0.515079
-0.523143
-0.533903
-0.541899
-0.532971
-0.513994
-0.482895
-0.305456
-0.0175493
-8.28171e-06
-2.68055e-08
-1.37828e-05
-1.70692e-05
-5.50493e-06
-3.84505e-07
-7.33944e-08
-1.18232e-06
-9.5728e-07
-1.31045e-10
-4.29875e-06
-1.93356e-06
-1.14589e-08
-7.0929e-12
-1.7164e-15
-2.31847e-19
-1.1999e-23
-1.06785e-28
-5.38213e-31
-0.000618494
-0.0145905
-0.0739479
-0.176
-0.283627
-0.370285
-0.429678
-0.466277
-0.487125
-0.498547
-0.505238
-0.509594
-0.512051
-0.512781
-0.512442
-0.511378
-0.509943
-0.508324
-0.506655
-0.504946
-0.503388
-0.502305
-0.501772
-0.501449
-0.501211
-0.501026
-0.500874
-0.500732
-0.500677
-0.500803
-0.500926
-0.501023
-0.501314
-0.501575
-0.501942
-0.502628
-0.504724
-0.508285
-0.512996
-0.519976
-0.529823
-0.539847
-0.538775
-0.51977
-0.501431
-0.406908
-0.0963818
-0.000199149
-1.13692e-07
-2.29213e-06
-1.85042e-05
-6.01077e-06
-1.44989e-06
-2.07614e-06
-6.48037e-07
-1.3805e-06
-1.04738e-06
-1.59136e-06
-4.05701e-07
-2.86051e-07
-7.0572e-10
-2.06387e-13
-3.67616e-17
-3.09726e-21
-6.11567e-26
-2.59409e-33
-4.61315e-32
-0.000615679
-0.0145307
-0.0737233
-0.175675
-0.283363
-0.370127
-0.429636
-0.466296
-0.487169
-0.49855
-0.505206
-0.509532
-0.511994
-0.512771
-0.512469
-0.511425
-0.509937
-0.508231
-0.50647
-0.50481
-0.50332
-0.502304
-0.501771
-0.501431
-0.501149
-0.500957
-0.500842
-0.500718
-0.500588
-0.500602
-0.500782
-0.501022
-0.501197
-0.501471
-0.501744
-0.50226
-0.503822
-0.50683
-0.511202
-0.517174
-0.526114
-0.536711
-0.541622
-0.527392
-0.509634
-0.463747
-0.231572
-0.00460645
-2.09204e-06
-5.57588e-06
-2.56153e-05
-1.03247e-05
-1.84502e-06
-7.206e-07
-1.20527e-06
-1.66301e-06
-1.70775e-06
-4.981e-06
-7.43316e-06
-3.32759e-06
-1.23627e-08
-2.11223e-11
-4.55305e-15
-5.59224e-19
-2.54252e-23
-1.09904e-28
-3.11507e-30
-3.87609e-31
-0.000613045
-0.014473
-0.0734921
-0.175298
-0.283023
-0.369917
-0.429536
-0.466275
-0.48718
-0.498557
-0.505181
-0.509484
-0.511932
-0.51274
-0.512455
-0.511486
-0.509981
-0.508227
-0.506346
-0.504611
-0.503219
-0.502275
-0.501769
-0.501432
-0.501117
-0.500881
-0.500747
-0.500684
-0.500599
-0.500579
-0.500645
-0.500787
-0.501062
-0.501346
-0.501618
-0.501983
-0.503048
-0.50576
-0.509492
-0.514925
-0.522682
-0.533085
-0.541495
-0.53456
-0.515254
-0.491851
-0.355033
-0.0415904
-1.99036e-05
-1.50506e-06
-2.38277e-05
-1.74282e-05
-2.49975e-06
-3.64144e-07
-2.0407e-06
-5.32491e-07
-4.62319e-07
-2.25589e-08
-7.14378e-07
-1.39493e-07
-6.08293e-07
-2.45301e-10
-4.81551e-13
-7.37806e-17
-4.92325e-21
-1.12866e-25
-9.79512e-29
-7.18617e-33
-2.01303e-32
-0.000610703
-0.0144195
-0.0732633
-0.174907
-0.282624
-0.369639
-0.429397
-0.46622
-0.487162
-0.498556
-0.505162
-0.509436
-0.511858
-0.512667
-0.512408
-0.511487
-0.510076
-0.508298
-0.506352
-0.50446
-0.503055
-0.502221
-0.501756
-0.50143
-0.501118
-0.500853
-0.50065
-0.500578
-0.500568
-0.500529
-0.500595
-0.500739
-0.501023
-0.501192
-0.501618
-0.501889
-0.502504
-0.504603
-0.508127
-0.51289
-0.519792
-0.529407
-0.539336
-0.539534
-0.521587
-0.504445
-0.432879
-0.148032
-0.00114242
-2.30114e-06
-1.84549e-05
-2.38555e-05
-1.49449e-06
-1.32151e-06
-6.44848e-07
-2.42748e-07
-1.54443e-06
-1.18024e-06
-8.36506e-07
-2.62516e-06
-3.08548e-06
-6.40425e-09
-4.52234e-11
-8.2168e-15
-7.64945e-19
-3.4657e-23
-4.28834e-29
-3.38905e-29
-2.05056e-32
-5.08749e-32
-0.000608588
-0.0143715
-0.073049
-0.174504
-0.282192
-0.369317
-0.429202
-0.466137
-0.487125
-0.498544
-0.505143
-0.509401
-0.511794
-0.512585
-0.512345
-0.51144
-0.510111
-0.508411
-0.506435
-0.504443
-0.50291
-0.502121
-0.501719
-0.501419
-0.501126
-0.500851
-0.500629
-0.500476
-0.500474
-0.50053
-0.500566
-0.500592
-0.500822
-0.501127
-0.501481
-0.501807
-0.50225
-0.503644
-0.506862
-0.511167
-0.517194
-0.525898
-0.536332
-0.541631
-0.528857
-0.511128
-0.475039
-0.281334
-0.0117031
-7.82047e-06
-1.72609e-05
-3.20233e-05
-9.5616e-06
-1.15548e-06
-5.39112e-07
-5.7303e-10
-6.74201e-09
-2.56795e-06
-1.1202e-07
-6.74474e-07
-3.88966e-08
-1.08153e-06
-9.36056e-10
-8.07349e-13
-9.90893e-17
-6.0392e-21
-1.19354e-25
-3.91355e-28
-2.26743e-29
-3.88026e-31
-2.26707e-32
-0.000606672
-0.0143277
-0.0728552
-0.174124
-0.281741
-0.368941
-0.428965
-0.466011
-0.48709
-0.498519
-0.505148
-0.509374
-0.51175
-0.512531
-0.512249
-0.511375
-0.510084
-0.508483
-0.506575
-0.504516
-0.502868
-0.502019
-0.501662
-0.50139
-0.501127
-0.500863
-0.500615
-0.500431
-0.500338
-0.500376
-0.500532
-0.500638
-0.50068
-0.500952
-0.501314
-0.501708
-0.502043
-0.503034
-0.505603
-0.509675
-0.51504
-0.52271
-0.532898
-0.541257
-0.53516
-0.516181
-0.495958
-0.383823
-0.0715986
-0.00027733
-7.38736e-06
-2.93206e-05
-1.56213e-05
-2.69735e-06
-7.60212e-07
-6.65473e-08
-7.22285e-07
-2.35543e-06
-1.82788e-06
-2.88207e-06
-1.41627e-06
-1.779e-06
-1.31616e-08
-7.22176e-11
-1.17907e-14
-9.08124e-19
-2.79377e-23
-2.57224e-34
-5.45626e-29
-4.04387e-29
-4.47833e-31
-1.42686e-31
-0.000604886
-0.0142877
-0.0726747
-0.17378
-0.281301
-0.368545
-0.428693
-0.46586
-0.487018
-0.498511
-0.505141
-0.509375
-0.511714
-0.51247
-0.512167
-0.51128
-0.510009
-0.50847
-0.506656
-0.504674
-0.502932
-0.501986
-0.501572
-0.501322
-0.501091
-0.500862
-0.500625
-0.500425
-0.500301
-0.500299
-0.500398
-0.500575
-0.500721
-0.500837
-0.501124
-0.501567
-0.501951
-0.502598
-0.504661
-0.508227
-0.513099
-0.520004
-0.529469
-0.539205
-0.539543
-0.522227
-0.505671
-0.446211
-0.187768
-0.00250485
-2.04106e-05
-3.07066e-05
-1.70844e-05
-4.55424e-06
-1.1297e-06
-8.32511e-07
-2.47689e-07
-5.80126e-07
-3.15244e-06
-1.05531e-06
-1.44449e-06
-4.37075e-07
-1.03108e-06
-1.84638e-09
-1.15701e-12
-1.16161e-16
-5.42006e-21
-5.70721e-26
-5.55354e-28
-5.8786e-29
-1.03526e-29
-2.54052e-30
-2.08053e-31
-0.000603306
-0.0142502
-0.0725111
-0.173458
-0.280903
-0.368154
-0.428408
-0.465694
-0.486935
-0.498476
-0.505133
-0.509379
-0.51171
-0.512422
-0.512079
-0.511143
-0.509904
-0.508399
-0.506672
-0.504797
-0.503067
-0.502013
-0.501532
-0.501216
-0.501
-0.500826
-0.50063
-0.500438
-0.500306
-0.500197
-0.500277
-0.500416
-0.50064
-0.500811
-0.501054
-0.501372
-0.501793
-0.502324
-0.503858
-0.507071
-0.51148
-0.517589
-0.52627
-0.536391
-0.541426
-0.528929
-0.511482
-0.48019
-0.309919