/*--------------------------------*- C++ -*----------------------------------*\
| =========                 |                                                 |
| \\      /  F ield         | OpenFOAM: The Open Source CFD Toolbox           |
|  \\    /   O peration     | Version:  v2012                                 |
|   \\  /    A nd           | Website:  www.openfoam.com                      |
|    \\/     M anipulation  |                                                 |
\*---------------------------------------------------------------------------*/
FoamFile
{
    version     2.0;
    format      ascii;
    class       volScalarField;
    location    "13200";
    object      Mg;
}
// * * * * * * * * * * * * * * * * * * * * * * * * * * * * * * * * * * * * * //

dimensions      [0 0 0 0 0 0 0];


internalField   nonuniform List<scalar> 
39402
(
0.00335365
0.000217925
0.0043815
6.64905e-05
0.000449407
0.00323878
6.17975e-05
0.000142479
0.000719275
0.00208285
7.00497e-05
0.000199813
0.00023379
0.00102257
0.00138567
7.87651e-05
0.000273921
0.00102425
0.000396264
0.00134282
0.00102291
8.45928e-05
0.000327348
0.00152998
0.00339079
0.000718306
0.00161315
0.000804435
8.83416e-05
0.000362427
0.00186301
0.00507974
0.00791822
0.00120853
0.00179029
0.000656591
8.96905e-05
0.000384061
0.00207885
0.00617471
0.0117703
0.0146115
0.00181113
0.00186567
0.00054892
8.97079e-05
0.000392912
0.00221201
0.00687568
0.0141961
0.0213835
0.0227345
0.00244837
0.00185814
0.00046579
8.89078e-05
0.000394731
0.00226863
0.00730999
0.0157123
0.0254416
0.0325523
0.0311884
0.00304388
0.00179174
0.000400641
8.76354e-05
0.000392217
0.00228394
0.00749719
0.016645
0.0278824
0.0380535
0.0435559
0.0391357
0.00356019
0.00169151
0.00034234
8.61088e-05
0.00038728
0.0022732
0.00755422
0.0170481
0.0293555
0.0412069
0.0499817
0.0533794
0.0462562
0.00399565
0.00157819
0.000294015
8.44161e-05
0.000380893
0.0022477
0.00752682
0.01718
0.0299865
0.0430558
0.0534879
0.0602035
0.061923
0.0525502
0.00435908
0.00144617
0.000255081
8.27399e-05
0.000373511
0.002213
0.00745146
0.017132
0.0302015
0.0438328
0.0554722
0.0637678
0.0687893
0.0692759
0.058067
0.00466846
0.00128992
0.000223323
8.11266e-05
0.000366212
0.00217171
0.00734455
0.0169823
0.0301346
0.0441041
0.0562862
0.0657179
0.0722418
0.0759496
0.0753402
0.0629273
0.00493675
0.00112679
0.000196529
7.95433e-05
0.000359055
0.00213055
0.00721573
0.016764
0.0299122
0.0440188
0.0565688
0.0664958
0.0740676
0.0791812
0.0816944
0.0800988
0.0668639
0.00514381
0.000970543
0.000174033
7.79777e-05
0.000351906
0.00208969
0.00708588
0.0164983
0.0295804
0.0437478
0.0564655
0.0667572
0.0747827
0.0808189
0.0846417
0.0861994
0.0834894
0.0693706
0.0051924
0.000829896
0.000154871
7.6407e-05
0.00034483
0.00204832
0.00695578
0.0162268
0.0291748
0.0433396
0.0561731
0.0666297
0.0749956
0.0814762
0.08605
0.0888534
0.089713
0.0859865
0.0709135
0.00496415
0.000708406
0.000139526
7.47516e-05
0.000337645
0.00200731
0.00682311
0.0159524
0.0287564
0.0428431
0.0557331
0.0663243
0.0748365
0.0816102
0.0866387
0.0900451
0.092125
0.0925773
0.0884631
0.072083
0.00438418
0.000608116
0.000124533
7.32987e-05
0.000329959
0.00196534
0.00669068
0.0156711
0.0283292
0.0423258
0.0552054
0.065873
0.0745134
0.0814238
0.0866785
0.0905257
0.0931336
0.0947772
0.0951475
0.0911811
0.0721899
0.00353692
0.000513624
0.000106011
7.20842e-05
0.000323353
0.00192053
0.00655511
0.0153885
0.0278888
0.0417939
0.0546513
0.0653432
0.0740508
0.0810886
0.0864744
0.0904892
0.0934368
0.0955684
0.097048
0.0976419
0.0935149
0.0701259
0.0026125
0.000425295
8.44901e-05
7.06332e-05
0.000317815
0.00188182
0.00641034
0.0150986
0.0274441
0.041243
0.0540789
0.0647837
0.0735177
0.0806194
0.0861417
0.0902675
0.0933547
0.0956507
0.0975326
0.0991225
0.0999596
0.0945939
0.0656247
0.00180538
0.000357086
5.80321e-05
6.93612e-05
0.000311007
0.00184912
0.00628445
0.0147891
0.0269866
0.0406843
0.0534837
0.0642046
0.0729538
0.0800905
0.0856831
0.0899338
0.093109
0.0955146
0.0973919
0.099214
0.101005
0.101576
0.0935183
0.0585165
0.00122569
0.000302109
4.11309e-05
6.81297e-05
0.000305186
0.00180902
0.00617672
0.014518
0.0264988
0.0401077
0.052879
0.0636028
0.072369
0.0795311
0.0851727
0.0894902
0.09277
0.0952358
0.0971627
0.09881
0.10065
0.102462
0.102098
0.0895577
0.048963
0.000855691
0.000248079
3.44332e-05
6.69681e-05
0.000299466
0.00177487
0.00604648
0.0142828
0.0260678
0.0394956
0.0522551
0.0629901
0.0717641
0.078951
0.0846378
0.0890027
0.0923369
0.0948904
0.0968374
0.0984502
0.099959
0.101777
0.103456
0.101574
0.0832788
0.0375709
0.000627758
0.000193099
3.20326e-05
6.58174e-05
0.000294095
0.00174103
0.00593475
0.0140018
0.0256877
0.0389494
0.0515971
0.0623581
0.0711494
0.0783505
0.0840832
0.0884922
0.0918676
0.094464
0.0964736
0.0980593
0.0994435
0.100834
0.102701
0.104103
0.0997507
0.0760252
0.0256954
0.000472645
0.000144448
2.82708e-05
6.47525e-05
0.000288779
0.00170941
0.00582402
0.0137588
0.0252398
0.0384596
0.0510028
0.0616992
0.0705174
0.077748
0.0835083
0.0879669
0.0913775
0.0940095
0.0960477
0.0976703
0.0989743
0.100177
0.101573
0.103507
0.104258
0.0961242
0.0675908
0.0152562
0.000357619
0.000105329
2.54589e-05
6.36784e-05
0.000283887
0.0016782
0.00572048
0.0135177
0.0248483
0.0378903
0.0504615
0.0610994
0.0698637
0.0771286
0.0829297
0.0874209
0.0908752
0.0935415
0.0956019
0.0972342
0.0985576
0.0996368
0.100779
0.102271
0.104191
0.103502
0.0898836
0.0565402
0.00786215
0.000267771
7.64845e-05
2.34876e-05
6.2701e-05
0.000278893
0.00164951
0.00561843
0.0132914
0.0244587
0.0373873
0.0498428
0.0605427
0.0692628
0.0764903
0.0823414
0.08687
0.090355
0.0930542
0.0951468
0.0967834
0.098109
0.0991874
0.100147
0.101329
0.102961
0.104638
0.10135
0.0815073
0.0426789
0.00363728
0.000198617
5.80166e-05
2.46666e-05
6.17308e-05
0.000274377
0.00162026
0.00552452
0.0130687
0.0240915
0.0368855
0.0492905
0.0599207
0.0686989
0.0759022
0.0817397
0.086311
0.0898321
0.0925563
0.0946764
0.0963405
0.0976616
0.0987277
0.0996654
0.100587
0.101851
0.103582
0.104519
0.0972366
0.072243
0.0278606
0.00158905
0.000147392
4.61358e-05
2.632e-05
6.09209e-05
0.000269902
0.00159381
0.00542906
0.0128633
0.02373
0.0364098
0.0487374
0.0593582
0.0680803
0.0753424
0.0811848
0.0857482
0.0893005
0.0920545
0.0941931
0.0958845
0.0972272
0.0982915
0.0991917
0.100044
0.100998
0.10236
0.104072
0.103427
0.0905696
0.0613115
0.0153288
0.000682276
0.000110885
3.54387e-05
2.56911e-05
6.00657e-05
0.000266208
0.00156773
0.00534281
0.0126551
0.0233954
0.0359408
0.0482101
0.0587932
0.0675131
0.0747361
0.0806462
0.0852259
0.0887731
0.0915491
0.093714
0.0954116
0.0967814
0.0978686
0.0987543
0.099551
0.100352
0.101376
0.102868
0.104256
0.100729
0.0815744
0.0472772
0.0072492
0.000310925
8.2392e-05
2.9197e-05
2.31933e-05
5.91711e-05
0.000262263
0.00154632
0.00525807
0.0124666
0.0230564
0.0355031
0.0476907
0.0582526
0.0669483
0.0741802
0.0800751
0.0847155
0.0882816
0.091049
0.0932324
0.0949492
0.096319
0.0974333
0.0983333
0.0991061
0.0998191
0.100647
0.101743
0.103327
0.10373
0.0956851
0.0713764
0.0313046
0.00313156
0.000167991
5.89784e-05
2.8578e-05
1.93619e-05
5.83783e-05
0.000258143
0.00152351
0.00518816
0.0122811
0.0227481
0.0350604
0.0472021
0.0577202
0.0664039
0.0736269
0.0795483
0.0841787
0.0877931
0.0905785
0.0927533
0.0944861
0.0958663
0.096979
0.0979048
0.0986785
0.0993551
0.100041
0.100908
0.10213
0.103584
0.101909
0.0875608
0.0596827
0.0171196
0.00127944
0.000107522
4.32511e-05
2.95656e-05
1.47037e-05
5.76754e-05
0.000254553
0.00149986
0.00511443
0.0121273
0.0224445
0.0346554
0.0467081
0.057217
0.0658686
0.0730907
0.0790206
0.0836822
0.0872876
0.0901122
0.0923054
0.0940269
0.095418
0.096535
0.0974617
0.0982521
0.0989414
0.0995655
0.100255
0.101171
0.102508
0.103332
0.0979884
0.0774028
0.04499
0.00790394
0.000517991
7.80986e-05
3.09426e-05
3.21168e-05
9.12123e-06
5.70559e-05
0.000251362
0.0014794
0.00503834
0.0119662
0.0221905
0.0342576
0.0462533
0.0567174
0.0653581
0.0725654
0.0785113
0.0831838
0.0868215
0.0896375
0.0918632
0.0935993
0.0949738
0.0960977
0.0970295
0.0978165
0.0985299
0.0991433
0.0997235
0.100419
0.101476
0.102764
0.102102
0.0912408
0.0665696
0.028479
0.00330906
0.000206315
6.38712e-05
1.81097e-05
3.33746e-05
5.31569e-06
5.64421e-05
0.000248541
0.00146124
0.00497286
0.0118009
0.0219261
0.0339203
0.0458072
0.0562535
0.0648677
0.0720645
0.0780098
0.0827029
0.0863489
0.0891963
0.0914054
0.0931667
0.094561
0.0956644
0.0965967
0.0973919
0.0980886
0.0987254
0.0992793
0.0998293
0.100597
0.10176
0.102676
0.0990783
0.0817061
0.0537734
0.0148416
0.00132053
8.25907e-05
5.49175e-05
8.84263e-06
4.0116e-05
3.30079e-06
5.57583e-05
0.000245794
0.00144517
0.00491468
0.011659
0.0216565
0.0335718
0.0454226
0.0557977
0.064408
0.0715746
0.0775318
0.0822312
0.0858898
0.0887438
0.0909816
0.0927253
0.0941428
0.0952682
0.0961734
0.0969683
0.0976651
0.0982823
0.0988476
0.0993844
0.0999606
0.100796
0.101955
0.101741
0.0933768
0.0709557
0.0378965
0.00650762
0.000468946
4.32523e-05
5.0458e-05
5.46341e-06
4.3024e-05
2.16186e-06
5.5052e-05
0.000242691
0.00142989
0.00486332
0.0115326
0.0214236
0.0332181
0.0450278
0.0553989
0.063959
0.0711162
0.0770535
0.0817737
0.0854462
0.0883092
0.0905518
0.0923214
0.0937116
0.0948597
0.0957891
0.0965539
0.0972463
0.0978717
0.0984237
0.0989394
0.0994581
0.100066
0.101013
0.101874
0.0992086
0.0843149
0.0591627
0.0219523
0.0024898
0.000160764
3.44046e-05
4.94396e-05
8.13435e-06
4.28965e-05
1.49567e-06
5.44919e-05
0.000239515
0.00141265
0.00481511
0.0114212
0.0212162
0.0329095
0.0446295
0.0549928
0.0635641
0.070673
0.0766053
0.0813229
0.0850171
0.0878854
0.090135
0.0919066
0.0933217
0.0944389
0.0953877
0.0961777
0.09683
0.0974421
0.0980105
0.0985334
0.0990018
0.0994998
0.100193
0.101149
0.101094
0.0940956
0.0734753
0.0447665
0.0102664
0.000873533
6.16911e-05
3.56165e-05
4.03499e-05
1.24819e-05
3.87943e-05
1.07088e-06
5.40837e-05
0.000237079
0.00139507
0.00476107
0.011317
0.0210339
0.0326349
0.0442803
0.0545849
0.0631584
0.0702754
0.0761731
0.0808973
0.0845926
0.0874807
0.0897288
0.0915007
0.0929113
0.0940537
0.0949656
0.095786
0.0964645
0.0970353
0.0975915
0.0981027
0.0985672
0.0990455
0.0995378
0.100325
0.101055
0.0988768
0.0856449
0.0623176
0.0282788
0.00395142
0.000302818
2.63277e-05
4.15595e-05
2.88756e-05
1.97507e-05
3.2642e-05
7.62441e-07
5.36662e-05
0.000235309
0.00138187
0.00470617
0.0112013
0.0208626
0.0323929
0.043967
0.0542266
0.0627545
0.0698709
0.0757738
0.0804815
0.0841852
0.0870781
0.0893401
0.0911113
0.0925171
0.0936502
0.094585
0.0953541
0.0960804
0.0966781
0.0971843
0.0977141
0.09817
0.0985985
0.099042
0.0996078
0.100405
0.10034
0.0941915
0.0751314
0.0490196
0.014242
0.00135433
0.000102
1.33919e-05
4.85055e-05
1.65596e-05
2.48386e-05
2.48631e-05
5.29896e-07
5.31698e-05
0.000233453
0.00137235
0.00466538
0.0110846
0.020674
0.032163
0.0436899
0.053899
0.0623985
0.0694667
0.0753776
0.0801008
0.083787
0.0866872
0.0889519
0.0907339
0.0921415
0.0932621
0.0941872
0.0949725
0.0956373
0.0963004
0.0968334
0.0973009
0.0977722
0.0982016
0.0985998
0.09903
0.0996837
0.10029
0.0982694
0.086192
0.0641266
0.032815
0.00565376
0.000448722
3.66928e-05
9.18848e-06
5.31186e-05
3.21402e-06
3.67713e-05
1.73257e-05
3.47618e-07
5.2672e-05
0.000231238
0.00136242
0.00463623
0.0109985
0.0204855
0.0319141
0.0434233
0.0536095
0.0620673
0.0691089
0.0749842
0.0797201
0.0834217
0.0863115
0.0885762
0.0903562
0.0917672
0.0928907
0.0937986
0.0945732
0.0952546
0.0958569
0.0964766
0.0969418
0.0973877
0.0978068
0.0981845
0.0985417
0.099056
0.0997029
0.0995545
0.0938249
0.0758234
0.0513903
0.0175264
0.00189075
0.000151753
1.44169e-05
1.36088e-05
5.14199e-05
1.21805e-06
4.5649e-05
1.08064e-05
2.10881e-07
5.21944e-05
0.000229077
0.00135051
0.00460593
0.0109371
0.0203462
0.0316656
0.0431398
0.0533293
0.0617714
0.0687811
0.0746299
0.0793477
0.0830563
0.0859573
0.0882159
0.0899916
0.0913989
0.0925236
0.0934227
0.0941856
0.0948547
0.0954902
0.0960597
0.0965928
0.0970293
0.0974152
0.0978062
0.0981335
0.0985011
0.0990758
0.0995176
0.097484
0.0860506
0.0648057
0.0356524
0.00722058
0.000588661
5.08717e-05
4.41982e-06
2.47176e-05
4.05847e-05
5.9918e-06
4.9615e-05
5.9718e-06
1.22752e-07
5.17366e-05
0.000226998
0.00133922
0.00457007
0.0108736
0.0202476
0.0314808
0.0428581
0.0530345
0.0614884
0.0684784
0.0743035
0.0790063
0.0827038
0.0856027
0.0878761
0.0896417
0.091044
0.0921589
0.0930645
0.0938076
0.0944683
0.0951085
0.0957198
0.0962608
0.0966813
0.0970815
0.097384
0.0977247
0.0980734
0.0984848
0.0990252
0.0987176
0.0930819
0.0757087
0.0523653
0.0198005
0.00236571
0.000190809
1.77319e-05
6.7476e-07
3.76978e-05
2.83319e-05
1.36762e-05
4.71912e-05
3.24601e-06
6.84557e-08
5.13487e-05
0.000224992
0.0013283
0.00453641
0.0107993
0.0201446
0.0313497
0.0426457
0.0527432
0.0611918
0.0681865
0.074006
0.0786847
0.0823796
0.0852649
0.087538
0.0893148
0.0907055
0.091816
0.0927065
0.0934541
0.0941045
0.0947444
0.0953815
0.0959522
0.0963932
0.0967355
0.0970772
0.0973565
0.0976591
0.0979846
0.0984551
0.0987616
0.0965684
0.0852592
0.0646654
0.0370491
0.00838264
0.000699747
5.92595e-05
7.48736e-06
1.08606e-06
4.5047e-05
1.61596e-05
2.25641e-05
3.69865e-05
1.87595e-06
3.8997e-08
5.10812e-05
0.000223332
0.00131779
0.00450383
0.0107297
0.0200256
0.0312112
0.0424916
0.052521
0.0609034
0.0678863
0.0737108
0.0783931
0.0820675
0.0849517
0.0872057
0.0889868
0.0903894
0.0914804
0.0923655
0.0930998
0.0937662
0.0944029
0.0950527
0.0956487
0.0961238
0.0964562
0.0967501
0.0970445
0.0973031
0.0975786
0.0979234
0.0983764
0.0978419
0.0919794
0.0748727
0.0524169
0.0209494
0.00272705
0.00020367
1.76452e-05
3.90522e-06
6.67558e-06
4.81403e-05
2.65439e-06
3.98136e-05
2.46455e-05
1.05781e-06
2.01532e-08
5.08864e-05
0.000222245
0.00130931
0.00447258
0.0106625
0.0199141
0.0310535
0.0423287
0.0523527
0.0606754
0.067596
0.073413
0.0781071
0.081782
0.0846543
0.0869034
0.0886655
0.0900642
0.0911677
0.0920286
0.0927562
0.0934197
0.0940819
0.0947366
0.0953379
0.0958408
0.0962152
0.0964434
0.096747
0.0969958
0.0971641
0.0974345
0.0978525
0.0980073
0.0955075
0.0839301
0.0638536
0.0373172
0.00900332
0.000752433
5.17368e-05
1.04471e-05
6.69163e-07
1.62363e-05
4.3306e-05
2.19807e-06
5.08608e-05
1.41283e-05
5.42165e-07
8.88202e-09
5.06573e-05
0.000221496
0.00130404
0.00444797
0.0105984
0.0198072
0.0309063
0.0421473
0.052175
0.0604968
0.0673636
0.0731186
0.0778168
0.0815016
0.0843809
0.0866182
0.0883765
0.0897539
0.0908456
0.0917177
0.09242
0.0930888
0.0937598
0.0944361
0.0950431
0.0955498
0.0959396
0.0962168
0.0963507
0.0966839
0.0968996
0.0970361
0.0973194
0.0976963
0.0969415
0.0905914
0.07346
0.0516417
0.0211899
0.0029068
0.000191155
1.23959e-05
6.12348e-06
5.89282e-07
2.99152e-05
3.07406e-05
9.76392e-06
5.33651e-05
6.94144e-06
2.49729e-07
3.9659e-09
5.03456e-05
0.000220539
0.00130074
0.00443341
0.0105486
0.0197057
0.0307667
0.041977
0.0519837
0.0603076
0.0671732
0.072884
0.077537
0.0812207
0.0841055
0.0863558
0.088096
0.08947
0.0905428
0.0913975
0.0921125
0.0927659
0.0934483
0.0941303
0.0947513
0.095268
0.095666
0.095954
0.0961091
0.096291
0.0966144
0.0967554
0.0969178
0.0972408
0.0972528
0.0943373
0.0821642
0.0624504
0.0365952
0.00907067
0.00072608
4.03437e-05
8.61385e-06
5.60418e-06
7.04502e-07
3.92122e-05
1.66362e-05
2.27687e-05
4.46475e-05
3.12671e-06
1.16115e-07
1.7241e-09
4.9939e-05
0.000219175
0.00129621
0.00442509
0.0105209
0.0196287
0.0306348
0.0418162
0.0518009
0.0601151
0.0669775
0.072687
0.0773016
0.0809563
0.083833
0.0860878
0.0878343
0.0891974
0.0902638
0.0910935
0.0917895
0.0924716
0.0931486
0.093831
0.0944522
0.094976
0.0953964
0.0957263
0.0959084
0.0959873
0.0962394
0.0964881
0.0966029
0.0967701
0.0970422
0.0960051
0.0889134
0.0715371
0.0501521
0.0205456
0.00282849
0.000153866
1.22295e-05
6.45028e-06
3.31031e-06
2.93841e-06
4.40048e-05
3.51197e-06
4.09099e-05
2.9365e-05
1.46352e-06
5.01901e-08
6.75124e-10
4.95293e-05
0.000217318
0.00128935
0.00441291
0.0105067
0.0195873
0.0305363
0.0416657
0.0516305
0.0599268
0.0667779
0.0724894
0.0771055
0.0807252
0.0835774
0.0858206
0.0875769
0.0889341
0.0899912
0.0908245
0.0914896
0.0921547
0.0928702
0.0935437
0.0941657
0.0946916
0.0951297
0.0954565
0.0957032
0.0957805
0.0958901
0.096133
0.0963349
0.0964323
0.0966071
0.0964521
0.092986
0.0799138
0.0605369
0.0350102
0.0085837
0.000621443
3.05035e-05
5.99301e-06
5.12442e-06
4.62665e-07
1.90204e-05
3.88211e-05
2.72512e-06
5.45886e-05
1.546e-05
6.3231e-07
1.9083e-08
2.45863e-10
4.91446e-05
0.000215489
0.00127964
0.00439365
0.0104837
0.0195668
0.0304824
0.0415523
0.051471
0.0597476
0.0665869
0.0722778
0.0769013
0.0805243
0.0833457
0.0855657
0.0873145
0.0886712
0.0897309
0.0905478
0.0912208
0.0918576
0.0925767
0.0932777
0.0938844
0.0944179
0.0948625
0.0952373
0.0954809
0.0955851
0.0955974
0.0957998
0.0960017
0.0961455
0.0962519
0.0963404
0.0948918
0.0868648
0.0691355
0.0480317
0.0191397
0.00257445
0.000104111
5.23014e-06
3.7367e-06
5.80143e-06
1.71525e-06
2.78982e-05
2.54682e-05
1.4608e-05
5.39622e-05
6.58036e-06
2.5277e-07
7.17624e-09
8.15296e-11
4.88235e-05
0.000213811
0.00127
0.0043653
0.0104462
0.0195327
0.0304531
0.0414874
0.0513486
0.0595845
0.0664013
0.0720867
0.0766919
0.0803169
0.0831368
0.0853421
0.0870605
0.088411
0.0894624
0.090283
0.0909466
0.0915927
0.0922928
0.092998
0.0936252
0.0941456
0.0945876
0.0949714
0.0952518
0.0954143
0.0953993
0.0954679
0.0956879
0.0957887
0.0959391
0.0960697
0.0955745
0.0912831
0.0772413
0.0581571
0.032632
0.00766982
0.00050875
1.56522e-05
1.8211e-06
4.53447e-06
5.25284e-06
1.5434e-06
3.67628e-05
1.08024e-05
3.22248e-05
4.01726e-05
2.50035e-06
9.4006e-08
2.41931e-09
2.45632e-11
4.8582e-05
0.00021245
0.0012612
0.00433673
0.0103887
0.0194747
0.0304085
0.0414484
0.0512734
0.0594548
0.0662294
0.0719042
0.0765023
0.0801219
0.0829356
0.0851337
0.0868412
0.0881689
0.089204
0.0900208
0.0906868
0.0913312
0.092037
0.0927256
0.0933488
0.0938946
0.094332
0.094706
0.0949841
0.0951609
0.0952423
0.0951846
0.0953485
0.0955192
0.0955864
0.0957489
0.0956783
0.0935721
0.0842728
0.066322
0.0453217
0.0170778
0.00215863
6.39259e-05
6.95054e-06
7.83981e-07
5.55953e-06
3.56704e-06
3.92049e-06
3.87797e-05
4.16945e-07
5.08144e-05
2.18915e-05
9.64507e-07
3.09094e-08
7.55101e-10
6.7145e-12
4.84252e-05
0.000211466
0.00125426
0.00431062
0.0103305
0.0193844
0.0303325
0.0413912
0.051222
0.0593677
0.0660942
0.0717242
0.0763204
0.0799285
0.0827445
0.0849281
0.0866316
0.0879463
0.0889694
0.0897668
0.0904323
0.0910821
0.0917887
0.0924767
0.0930812
0.0936245
0.0941027
0.0944692
0.0947601
0.0949574
0.0950359
0.0949805
0.0950329
0.0952093
0.0953101
0.0953936
0.095484
0.0946363
0.0892185
0.0742086
0.0553067
0.0296104
0.00641054
0.000343567
5.87713e-06
1.17669e-06
3.0905e-06
4.64623e-06
1.48323e-06
2.49788e-05
2.84186e-05
6.1925e-06
5.6905e-05
9.22848e-06
3.26359e-07
9.87498e-09
2.12963e-10
1.65427e-12
4.83371e-05
0.000210889
0.00124941
0.00429047
0.0102774
0.0192928
0.0302155
0.0413016
0.0511514
0.0593017
0.0659971
0.0715839
0.0761412
0.0797435
0.082551
0.0847271
0.086417
0.0877311
0.08875
0.0895297
0.0901814
0.0908378
0.0915518
0.0922385
0.0928415
0.0933603
0.0938392
0.0942375
0.0945297
0.0947363
0.094867
0.094844
0.0947424
0.0948859
0.0950439
0.0950979
0.0951591
0.0949377
0.0920992
0.0813452
0.0634092
0.042019
0.014563
0.00159791
1.38766e-05
5.11875e-06
3.47778e-06
3.33383e-06
3.96431e-06
6.1445e-06
3.24523e-05
1.34588e-05
3.11549e-05
4.31686e-05
2.94141e-06
1.04845e-07
2.79958e-09
5.49636e-11
3.68083e-13
4.82395e-05
0.00021064
0.001247
0.00427681
0.0102369
0.0192097
0.0300969
0.0411684
0.0510525
0.0592203
0.0659186
0.0714782
0.075995
0.0795678
0.0823621
0.084538
0.0862147
0.0875089
0.0885343
0.0893217
0.0899439
0.0905936
0.0913144
0.0920111
0.0926078
0.0931256
0.0935747
0.0939751
0.094305
0.0945007
0.0946606
0.0946728
0.0945563
0.0945909
0.094751
0.0948319
0.0948759
0.0948139
0.0935595
0.086803
0.0709562
0.0520908
0.0260345
0.00502055
0.000213013
3.13508e-06
3.28804e-06
2.74409e-06
5.03429e-06
3.91914e-06
4.66092e-06
3.39943e-05
1.63984e-06
5.22446e-05
2.32361e-05
9.71877e-07
2.94255e-08
7.31627e-10
1.28177e-11
7.32017e-14
4.81113e-05
0.000210339
0.00124651
0.00427128
0.0102105
0.0191473
0.0299884
0.0410346
0.0509121
0.0591126
0.0658253
0.0713871
0.0758807
0.0794143
0.0821893
0.0843573
0.0860311
0.0873135
0.088302
0.0891039
0.0897436
0.0903612
0.0910722
0.0917714
0.0923817
0.0928957
0.0933453
0.0937342
0.0940668
0.094311
0.0944546
0.0945049
0.0943916
0.0942969
0.09443
0.0945881
0.0945943
0.0945976
0.0940402
0.0902998
0.0779133
0.0601991
0.0380808
0.0118223
0.00113227
2.72361e-05
4.19182e-06
2.87161e-07
1.87186e-06
6.25939e-06
3.8451e-06
1.63063e-05
2.59314e-05
1.02625e-05
5.59834e-05
8.7263e-06
2.74583e-07
7.81556e-09
1.72318e-10
2.66763e-12
1.29753e-14
4.79408e-05
0.000209837
0.00124556
0.00427177
0.0102019
0.0191074
0.0299092
0.0409124
0.050773
0.0589696
0.0657064
0.0712842
0.0757734
0.0792877
0.0820363
0.0841818
0.0858586
0.0871419
0.0881048
0.0888657
0.0895338
0.0901657
0.0908478
0.091532
0.0921462
0.0926762
0.0931206
0.0935128
0.0938309
0.0941024
0.094261
0.094346
0.0942493
0.0940778
0.0941302
0.0942783
0.0943328
0.0943556
0.0941426
0.0921309
0.0837901
0.0672122
0.0483491
0.0219674
0.00371979
0.000169529
1.82791e-05
5.9324e-06
2.42759e-06
1.69073e-06
4.24493e-06
2.67424e-06
3.1286e-05
1.28496e-05
3.11844e-05
4.05137e-05
2.40699e-06
7.40911e-08
1.86229e-09
3.63603e-11
4.78909e-13
2.08337e-15
4.77523e-05
0.000209129
0.0012434
0.00427065
0.0102061
0.0190964
0.029858
0.0408222
0.0506464
0.0588304
0.0655616
0.0711598
0.0756651
0.0791731
0.0818992
0.0840299
0.0856788
0.086969
0.0879398
0.0886627
0.0893039
0.0899696
0.0906542
0.0913132
0.0919099
0.0924504
0.0929097
0.0932817
0.0936099
0.0938337
0.09404
0.0941611
0.0941036
0.0939422
0.0938388
0.0939851
0.0940523
0.0940742
0.0940288
0.0930808
0.0879039
0.0739925
0.0564169
0.0335159
0.00898647
0.000764584
3.44651e-05
1.0452e-05
3.18611e-06
1.40585e-06
1.7163e-06
1.68497e-06
1.19108e-05
3.14516e-05
2.49136e-06
5.51415e-05
1.8868e-05
6.69448e-07
1.8008e-08
3.97025e-10
6.79737e-12
7.27456e-14
2.86236e-16
4.75498e-05
0.000208298
0.00123992
0.00426532
0.0102069
0.0191061
0.0298456
0.0407634
0.0505509
0.0587026
0.0654242
0.0710127
0.0755415
0.0790579
0.0817765
0.0838909
0.0855193
0.0867856
0.0877662
0.0884927
0.089101
0.0897569
0.0904669
0.0911241
0.0916915
0.0922163
0.092684
0.0930754
0.0933918
0.0936369
0.093828
0.093961
0.0939942
0.09381
0.0936373
0.0936646
0.0937944
0.0937973
0.0937882
0.0933904
0.0904761
0.0801152
0.0631991
0.0438426
0.0175689
0.00253733
8.28636e-05
3.39175e-06
1.20561e-06
8.17701e-07
9.63241e-07
4.56065e-06
6.79216e-07
1.80755e-05
1.93767e-05
1.83902e-05
5.1071e-05
5.79393e-06
1.63309e-07
3.88612e-09
7.50989e-11
1.12101e-12
9.30185e-15
5.02843e-17
4.73352e-05
0.000207366
0.0012356
0.00425572
0.0101981
0.0191108
0.0298582
0.0407471
0.0504856
0.0586064
0.0652913
0.0708758
0.0753941
0.0789319
0.0816507
0.0837495
0.085382
0.0866195
0.0875866
0.0883205
0.0889252
0.0895584
0.0902652
0.0909404
0.0915086
0.0919998
0.0924529
0.0928632
0.0931908
0.0934676
0.0936305
0.0937675
0.0938073
0.09372
0.093489
0.0933846
0.0935092
0.0935526
0.0935426
0.093364
0.0918224
0.0850205
0.0698169
0.0521484
0.0282274
0.00630725
0.000431925
1.07372e-05
6.31705e-06
2.19768e-06
1.97894e-06
4.40031e-06
6.30049e-06
8.49385e-07
2.56791e-05
2.88701e-06
4.21719e-05
3.16261e-05
1.40272e-06
3.54361e-08
7.46168e-10
1.27151e-11
1.56377e-13
9.19471e-16
4.52484e-18
4.71123e-05
0.000206334
0.00123059
0.00424301
0.0101793
0.0190987
0.0298658
0.0407578
0.0504639
0.0585379
0.0651915
0.070743
0.0752557
0.0787866
0.0815236
0.0836162
0.0852306
0.086477
0.0874197
0.0881507
0.0887582
0.0893848
0.090069
0.0907367
0.0913263
0.0918189
0.0922413
0.092645
0.0929772
0.0932628
0.0934528
0.0935737
0.0936135
0.0935593
0.0933601
0.0931957
0.0932336
0.0933144
0.0932839
0.0932014
0.0924344
0.0882352
0.0759513
0.0591596
0.0385952
0.01315
0.00162178
2.51581e-05
8.37556e-06
2.57277e-06
1.26416e-06
1.80553e-06
5.1688e-06
3.38018e-06
5.4593e-06
2.62667e-05
6.48376e-06
5.65847e-05
1.15302e-05
3.06397e-07
6.93775e-09
1.28452e-10
1.89367e-12
1.87838e-14
1.08602e-16
1.1474e-17
4.68936e-05
0.000205252
0.00122481
0.00422795
0.0101532
0.0190693
0.0298477
0.0407615
0.0504657
0.0585066
0.065115
0.0706333
0.0751323
0.0786517
0.0813846
0.0834832
0.0850884
0.0863157
0.087263
0.0879848
0.0885933
0.0892191
0.0898963
0.0905374
0.0911213
0.0916373
0.0920681
0.0924284
0.0927584
0.0930688
0.0932868
0.0933957
0.0934651
0.0934108
0.0932524
0.0930067
0.0929768
0.0930805
0.0930655
0.0930004
0.0926005
0.0901337
0.0812616
0.0652303
0.0474739
0.0225208
0.00420441
0.000278377
4.7611e-06
2.02641e-06
1.91915e-06
9.54441e-07
5.48219e-07
2.45939e-06
2.78077e-06
2.32561e-05
1.42046e-05
2.90623e-05
4.16576e-05
2.58484e-06
6.08805e-08
1.21694e-09
1.96209e-11
2.3365e-13
1.45851e-15
3.4057e-19
5.11458e-18
4.66954e-05
0.000204187
0.00121864
0.00421002
0.0101219
0.0190279
0.0298097
0.0407361
0.0504603
0.0584937
0.0650738
0.0705482
0.0750206
0.0785263
0.0812572
0.0833485
0.0849474
0.0861589
0.0870844
0.0878207
0.0884307
0.0890573
0.0897297
0.0903619
0.0909231
0.0914355
0.0918941
0.0922581
0.0925484
0.0928271
0.0930788
0.0932535
0.0933003
0.0932684
0.0931093
0.0928706
0.0927428
0.0927884
0.0928401
0.0927606
0.09258
0.0911953
0.0852816
0.0712666
0.0545162
0.0327381
0.00916523
0.000991497
5.11482e-05
1.33178e-05
5.4304e-06
2.7883e-06
2.73561e-06
1.35867e-06
1.38776e-06
5.98693e-06
2.48801e-05
2.23052e-06
5.26083e-05
1.82436e-05
5.29795e-07
1.1017e-08
1.88895e-10
2.57425e-12
2.2606e-14
6.28692e-17
2.36992e-17
5.26178e-18
4.65074e-05
0.000203191
0.00121243
0.00419049
0.0100838
0.0189775
0.029755
0.0406906
0.050427
0.0584753
0.0650475
0.0704966
0.0749307
0.0784186
0.0811296
0.0832313
0.0848122
0.0860176
0.0869163
0.0876363
0.0882768
0.0889073
0.089569
0.0901978
0.0907453
0.091236
0.091688
0.0920885
0.0923919
0.0926456
0.0928675
0.09303
0.093132
0.0931215
0.092985
0.0927346
0.0925247
0.0925682
0.0925737
0.0925608
0.0924258
0.0916923
0.0879755
0.0768006
0.0606052
0.0418658
0.0167972
0.00264717
0.000160443
2.4794e-05
7.94727e-06
3.31935e-06
2.0244e-06
7.69761e-07
3.1943e-06
2.41389e-06
1.15156e-05
1.64588e-05
2.18014e-05
4.72675e-05
4.46255e-06
9.70977e-08
1.73886e-09
2.55261e-11
2.54169e-13
1.6366e-15
3.12507e-17
4.0756e-18
2.6909e-18
4.63401e-05
0.000202277
0.00120652
0.00417071
0.0100421
0.0189156
0.0296885
0.0406262
0.0503731
0.0584327
0.0650161
0.070457
0.074866
0.0783211
0.0810156
0.0831078
0.0847065
0.0858914
0.0867775
0.0874578
0.0881025
0.0887683
0.0894241
0.0900389
0.0905836
0.0910623
0.091486
0.0918842
0.0922296
0.0924768
0.0926872
0.0928594
0.0929865
0.0929666
0.0929015
0.0926503
0.0923439
0.0922871
0.0923464
0.0923317
0.0922538
0.0918569
0.0895812
0.0815063
0.0662747
0.0494441
0.0261316
0.00583874
0.000514383
2.18903e-05
7.01122e-06
1.51739e-06
1.16344e-07
7.52859e-07
3.09308e-06
5.91327e-06
2.60591e-06
2.18227e-05
6.48023e-07
4.5872e-05
2.48072e-05
8.24881e-07
1.54079e-08
2.38652e-10
2.68262e-12
2.15735e-14
5.41143e-17
5.58024e-18
1.44979e-17
2.20177e-18
4.6187e-05
0.000201474
0.0012011
0.00415129
0.00999884
0.0188483
0.029606
0.0405489
0.0503008
0.0583732
0.0649626
0.0704143
0.0748143
0.0782488
0.0809177
0.0829922
0.0845933
0.085792
0.086656
0.0873124
0.0879257
0.088613
0.0892914
0.0898957
0.09043
0.0909023
0.0913175
0.0916849
0.0920349
0.0923316
0.0925328
0.0926585
0.0927816
0.0928306
0.0927737
0.0925675
0.0922435
0.0920251
0.0921068
0.0921061
0.0920352
0.0918086
0.0904952
0.0850019
0.0718146
0.0556924
0.0354325
0.0114741
0.00150992
3.28496e-05
3.01415e-06
2.34384e-06
1.50757e-06
1.54722e-06
2.19851e-06
4.58141e-06
3.75098e-06
4.88942e-06
1.86804e-05
1.23381e-05
5.08014e-05
6.7009e-06
1.33004e-07
2.14555e-09
2.60717e-11
2.42938e-13
1.43618e-15
8.61485e-17
1.46997e-17
9.9219e-19
6.03544e-19
4.60482e-05
0.000200746
0.0011963
0.00413334
0.00995624
0.0187765
0.0295158
0.0404534
0.0502197
0.0582956
0.0649014
0.0703521
0.0747621
0.0781928
0.080836
0.0828911
0.0844822
0.0856907
0.0865665
0.0871889
0.087772
0.0884486
0.08915
0.0897665
0.0902916
0.0907525
0.0911569
0.091512
0.0918292
0.0921247
0.0923842
0.092537
0.092594
0.0926494
0.0926256
0.0924773
0.0921531
0.091856
0.091815
0.0918937
0.0918277
0.0916639
0.090915
0.0873712
0.0767984
0.0611805
0.0435414
0.0193601
0.0034613
0.000239248
3.6243e-06
2.34158e-06
1.02325e-06
5.55009e-07
2.45728e-07
5.11358e-07
2.06141e-06
2.61888e-06
2.1925e-05
8.12148e-06
3.95964e-05
2.90351e-05
1.11931e-06
1.87118e-08
2.48634e-10
2.52825e-12
1.78875e-14
4.29102e-17
2.4407e-17
5.71093e-18
1.57043e-17
3.80177e-18
4.59177e-05
0.000200092
0.00119192
0.00411746
0.00991607
0.0187055
0.0294205
0.0403502
0.0501182
0.0582121
0.0648222
0.0702854
0.0746912
0.0781291
0.0807662
0.0828048
0.0843762
0.0855831
0.0864686
0.0871055
0.0876468
0.0882978
0.0889898
0.0896226
0.0901612
0.0906153
0.0910089
0.0913578
0.0916632
0.0919434
0.092191
0.0923878
0.0924807
0.0924841
0.0924577
0.0923609
0.0920944
0.0917327
0.0915968
0.0916275
0.0916061
0.0914936
0.0910559
0.0888102
0.0810416
0.0663853
0.0502351
0.0282222
0.00717965
0.000790556
3.0673e-05
6.50492e-06
2.34173e-06
1.08448e-06
1.69723e-06
2.57376e-06
1.68239e-06
1.06436e-06
8.32402e-06
1.80484e-05
7.11128e-06
5.15669e-05
8.7603e-06
1.59908e-07
2.28252e-09
2.52202e-11
2.02651e-13
8.98264e-16
6.73725e-17
3.29254e-17
1.59867e-17
6.54709e-18
2.27868e-18
4.58013e-05
0.000199482
0.00118801
0.00410297
0.00988027
0.0186381
0.029327
0.0402428
0.0500116
0.0581103
0.0647339
0.0702043
0.0746191
0.0780496
0.0806886
0.0827135
0.0842835
0.0854768
0.0863696
0.0870217
0.0875581
0.0881624
0.0888372
0.0894585
0.0900117
0.0904857
0.0908751
0.0912139
0.0915164
0.0917617
0.0920025
0.0921957
0.0923366
0.0923613
0.0923221
0.0922124
0.0919995
0.0916509
0.0914076
0.0914151
0.0913993
0.091303
0.0910258
0.0896336
0.0842102
0.0714401
0.0558627
0.0366612
0.0130564
0.00202244
0.000119257
2.3409e-05
8.00172e-06
3.14076e-06
2.06502e-06
2.38968e-06
2.32762e-06
1.39664e-06
4.43504e-07
1.15992e-05
5.96352e-06
3.6855e-05
3.10678e-05
1.33676e-06
1.98374e-08
2.43336e-10
2.20859e-12
1.23827e-14
2.92964e-17
2.14363e-17
1.02762e-17
4.74458e-18
6.23507e-18
9.27155e-19
4.56796e-05
0.000198948
0.0011844
0.0040897
0.00984786
0.0185779