/*--------------------------------*- C++ -*----------------------------------*\
| =========                 |                                                 |
| \\      /  F ield         | OpenFOAM: The Open Source CFD Toolbox           |
|  \\    /   O peration     | Version:  v2012                                 |
|   \\  /    A nd           | Website:  www.openfoam.com                      |
|    \\/     M anipulation  |                                                 |
\*---------------------------------------------------------------------------*/
FoamFile
{
    version     2.0;
    format      ascii;
    class       volScalarField;
    location    "13200";
    object      nk;
}
// * * * * * * * * * * * * * * * * * * * * * * * * * * * * * * * * * * * * * //

dimensions      [0 0 0 0 0 0 0];


internalField   nonuniform List<scalar> 
39402
(
0.0482626
0.053388
0.00288967
0.0534305
0.00134499
0.000587772
0.0543123
0.00116033
0.000239265
0.00019725
0.05499
0.00279221
0.000177582
9.92979e-05
9.38404e-05
0.0552733
0.00414401
0.00410635
8.26455e-05
6.28522e-05
5.90176e-05
0.0554293
0.00471015
0.00722737
0.00682372
7.51863e-05
4.77489e-05
4.44297e-05
0.0555035
0.00502209
0.00853144
0.0120909
0.00981746
8.34152e-05
3.86729e-05
3.6914e-05
0.0555413
0.00517193
0.0092442
0.0142851
0.0172814
0.0127062
9.36033e-05
3.17842e-05
3.22929e-05
0.0555636
0.00524269
0.00959193
0.015471
0.0203565
0.0221187
0.0151701
0.000101422
2.60534e-05
2.906e-05
0.0555757
0.00527155
0.00975874
0.0160541
0.0219878
0.0259064
0.0260395
0.0169674
0.000104811
2.12355e-05
2.66154e-05
0.0555831
0.00527859
0.0098309
0.0163362
0.0227873
0.0278563
0.0302673
0.0287091
0.0179844
0.000103844
1.72712e-05
2.45068e-05
0.0555841
0.00527829
0.00985317
0.0164614
0.0231771
0.0287936
0.0323607
0.033119
0.0300895
0.0182542
9.99142e-05
1.40874e-05
2.26742e-05
0.0555828
0.00527155
0.00985766
0.0165043
0.0233538
0.0292541
0.0333317
0.0352146
0.0345255
0.0303193
0.0179849
9.40283e-05
1.15485e-05
2.11449e-05
0.0555829
0.005258
0.00984666
0.016517
0.0234215
0.0294686
0.0338141
0.0361434
0.0365589
0.0347396
0.0297507
0.0173194
8.71666e-05
9.54195e-06
1.98527e-05
0.0555794
0.00524655
0.00981911
0.0165029
0.0234492
0.0295624
0.0340449
0.0366129
0.0374211
0.0367136
0.0341466
0.0286131
0.0163683
7.99379e-05
7.99409e-06
1.87305e-05
0.0555758
0.00523352
0.00979532
0.016461
0.0234413
0.0296147
0.0341621
0.0368427
0.0378673
0.0375224
0.0360862
0.0330034
0.0270796
0.0152195
7.13392e-05
6.83923e-06
1.77349e-05
0.0555736
0.00521894
0.00976724
0.016424
0.0233955
0.0296273
0.0342461
0.0369803
0.0380896
0.0379527
0.0368697
0.0349442
0.0314895
0.0252945
0.0139417
5.97716e-05
6.00227e-06
1.68341e-05
0.055568
0.00520401
0.00973462
0.0163792
0.0233544
0.0295984
0.0342946
0.0370971
0.0382458
0.0381705
0.0372947
0.0357332
0.0334698
0.0297325
0.023364
0.0125223
4.63868e-05
5.41615e-06
1.60009e-05
0.0555591
0.00518648
0.00970098
0.0163263
0.0233021
0.0295741
0.0343034
0.0371877
0.0383926
0.0383459
0.0375157
0.0361638
0.0342947
0.0317872
0.0278118
0.0212977
0.0108896
3.26678e-05
5.01788e-06
1.52176e-05
0.0555553
0.00516487
0.00966133
0.0162709
0.0232383
0.0295357
0.0343173
0.0372457
0.038524
0.0385207
0.0377104
0.0363987
0.034743
0.0326749
0.0299757
0.0257849
0.0191359
0.00914571
2.07732e-05
4.72676e-06
1.44962e-05
0.0555541
0.00515131
0.00961261
0.0162056
0.0231701
0.0294829
0.0343159
0.0373093
0.0386303
0.038689
0.0379087
0.036614
0.0350028
0.0331551
0.03095
0.0280849
0.0236806
0.0168999
0.00735801
1.21255e-05
4.40289e-06
1.38534e-05
0.055546
0.00514016
0.00958061
0.0161254
0.0230882
0.0294236
0.0342989
0.037358
0.0387436
0.0388389
0.0381068
0.036834
0.0352413
0.0334496
0.0314809
0.0291692
0.0261421
0.0215111
0.0146143
0.00560528
6.74442e-06
4.11486e-06
1.33614e-05
0.0555401
0.00511735
0.00955378
0.0160716
0.0229868
0.0293474
0.0342743
0.0373917
0.0388431
0.038997
0.0382909
0.0370576
0.0354819
0.0337139
0.0318178
0.0297688
0.0273596
0.0241571
0.0192892
0.0123156
0.00397555
3.89694e-06
3.86272e-06
1.30446e-05
0.0555344
0.00510419
0.009502
0.0160256
0.0229192
0.0292505
0.0342313
0.0374175
0.0389293
0.0391426
0.0384838
0.03727
0.0357281
0.0339762
0.0321124
0.0301567
0.0280464
0.025532
0.0221344
0.017027
0.0100587
0.00256554
2.52129e-06
3.63428e-06
1.29213e-05
0.0555299
0.00508733
0.00947087
0.01594
0.0228603
0.0291906
0.0341692
0.0374252
0.0390079
0.0392764
0.0386654
0.037491
0.0359645
0.0342431
0.0323975
0.0304864
0.0284949
0.0263256
0.0236905
0.0200748
0.0147373
0.00793059
0.00146142
1.88539e-06
3.42917e-06
1.29135e-05
0.0555254
0.00507222
0.00943148
0.0158874
0.0227497
0.029136
0.0341422
0.037418
0.0390696
0.0394035
0.0388362
0.0377014
0.0362083
0.0345004
0.0326846
0.0307969
0.0288651
0.0268464
0.024611
0.0218331
0.0179763
0.0124475
0.00595591
0.000712025
1.57373e-06
3.25547e-06
1.29674e-05
0.0555207
0.00505674
0.00939662
0.0158216
0.022682
0.029024
0.0341149
0.0374411
0.0391209
0.0395153
0.0390005
0.0379018
0.036442
0.0347637
0.0329609
0.0311045
0.0292044
0.0272641
0.0252164
0.0229012
0.0199539
0.0158403
0.0101962
0.00416273
0.000292706
1.41096e-06
3.11131e-06
1.30665e-05
0.0555135
0.00504325
0.00936069
0.015763
0.0225967
0.0289598
0.0340308
0.0374561
0.0391975
0.0396206
0.0391507
0.0380953
0.0366657
0.0350163
0.0332413
0.0313992
0.0295342
0.0276363
0.0256904
0.0236057
0.0211901
0.0180448
0.0136749
0.00804493
0.00262699
0.000104917
1.3174e-06
3.0014e-06
1.31964e-05
0.0555078
0.00502623
0.00932955
0.015703
0.0225205
0.0288749
0.0339937
0.0374208
0.039259
0.0397461
0.0392974
0.0382758
0.0368826
0.0352591
0.0335098
0.0316951
0.0298475
0.0279906
0.0261006
0.024145
0.0220092
0.0194681
0.0160985
0.0115053
0.00607852
0.00144032
3.49476e-05
1.26105e-06
2.89444e-06
1.33697e-05
0.0555032
0.00501211
0.00929113
0.015651
0.0224424
0.0287992
0.0339338
0.0374277
0.0392782
0.0398514
0.0394606
0.0384546
0.0370864
0.0354941
0.0337681
0.0319781
0.0301587
0.0283241
0.0264831
0.0245996
0.0226249
0.0204187
0.0177237
0.0141129
0.00937256
0.00431296
0.000663435
1.14957e-05
1.21914e-06
2.83991e-06
1.35723e-05
0.0555009
0.00499676
0.00925894
0.0155874
0.0223748
0.0287203
0.0338815
0.0374108
0.0393333
0.0399214
0.0395998
0.0386467
0.0372899
0.0357163
0.0340182
0.0322496
0.0304554
0.0286509
0.0268384
0.0250139
0.0231311
0.0211234
0.0188242
0.0159467
0.0120962
0.0073354
0.00277791
0.000260037
3.98806e-06
1.18648e-06
2.814e-06
1.37868e-05
0.055496
0.00498624
0.0092245
0.015534
0.0222924
0.0286524
0.0338249
0.0373988
0.0393647
0.0400217
0.0397094
0.038813
0.0375041
0.0359382
0.034255
0.032512
0.030739
0.0289614
0.0271823
0.0253942
0.0235823
0.0216901
0.0196316
0.0172135
0.0141282
0.0100711
0.0054778
0.00155371
9.32779e-05
1.65096e-06
1.15735e-06
2.79117e-06
1.39855e-05
0.0554904
0.00497104
0.00920086
0.0154776
0.0222231
0.0285668
0.0337779
0.0373818
0.0393984
0.0400992
0.0398445
0.0389538
0.0376913
0.036169
0.0344908
0.0327605
0.031012
0.0292567
0.0275068
0.0257563
0.0239905
0.0221839
0.0202691
0.0181394
0.0155742
0.0122669
0.00808299
0.0038337
0.000726022
3.26459e-05
9.27771e-07
1.13052e-06
2.7659e-06
1.41487e-05
0.0554859
0.00495536
0.00916757
0.0154385
0.02215
0.0284964
0.0337115
0.0373715
0.0394264
0.0401766
0.0399572
0.0391156
0.0378558
0.0363724
0.0347338
0.0330073
0.0312705
0.0295397
0.0278143
0.0260963
0.0243738
0.022624
0.0208129
0.0188593
0.0166352
0.0138956
0.010375
0.00620739
0.00241775
0.00028671
1.1175e-05
6.99117e-07
1.10802e-06
2.74218e-06
1.42773e-05
0.0554819
0.00494316
0.00913339
0.0153848
0.0220994
0.0284212
0.0336589
0.0373411
0.0394578
0.0402477
0.0400684
0.0392559
0.038038
0.0365548
0.0349497
0.0332598
0.0315259
0.0298071
0.0281072
0.0264167
0.0247307
0.0230314
0.0212901
0.0194613
0.0174508
0.0151057
0.0121723
0.00848477
0.0045319
0.00130882
0.000104645
3.79945e-06
6.22e-07
1.08916e-06
2.71993e-06
1.43918e-05
0.055479
0.00493184
0.00910752
0.01533
0.0220299
0.0283709
0.0336011
0.0373212
0.0394697
0.0403196
0.0401728
0.0393934
0.0381992
0.0367521
0.0351452
0.0334854
0.0317857
0.03007
0.028383
0.0267202
0.025065
0.0234075
0.0217247
0.0199811
0.0181206
0.0160319
0.0135402
0.010408
0.00665837
0.00305783
0.000587681
3.77507e-05
1.40084e-06
5.92193e-07
1.07445e-06
2.70434e-06
1.45733e-05
0.0554764
0.00492174
0.00908373
0.015289
0.0219596
0.0282985
0.033566
0.0372957
0.0394877
0.0403701
0.0402763
0.0395238
0.0383564
0.0369289
0.0353535
0.0336907
0.0320188
0.030336
0.028653
0.0270049
0.02538
0.0237576
0.0221225
0.0204479
0.0186909
0.0167815
0.0145904
0.0119294
0.00862404
0.00497856
0.00182174
0.000230361
1.34408e-05
6.60162e-07
5.77734e-07
1.06202e-06
2.73103e-06
1.48165e-05
0.0554726
0.00491111
0.00906263
0.0152518
0.0219078
0.0282259
0.0335069
0.0372877
0.0394998
0.0404237
0.0403602
0.0396515
0.0385068
0.0371009
0.0355418
0.0339066
0.0322319
0.0305758
0.0289246
0.0272815
0.0256741
0.0240854
0.0224906
0.0208711
0.0191945
0.0174101
0.0154328
0.0131149
0.010273
0.00686523
0.00349768
0.000912307
8.57157e-05
4.6281e-06
4.39797e-07
5.6919e-07
1.06416e-06
2.81652e-06
1.47824e-05
0.055469
0.00489724
0.00904161
0.0152189
0.0218613
0.0281737
0.0334489
0.0372552
0.0395236
0.0404714
0.0404444
0.039761
0.0386532
0.0372657
0.0357245
0.0341033
0.0324538
0.0307948
0.0291698
0.0275583
0.0259581
0.0243899
0.022833
0.0212596
0.0196468
0.0179571
0.0161299
0.0140631
0.0115957
0.0085855
0.00521595
0.00221936
0.000384139
3.16497e-05
1.60909e-06
3.76538e-07
5.68282e-07
1.08597e-06
2.85774e-06
1.47824e-05
0.0554669
0.00488403
0.00901384
0.0151871
0.0218205
0.028128
0.0334114
0.0372245
0.0395229
0.0405252
0.0405227
0.0398685
0.0387821
0.0374261
0.0358998
0.0342938
0.0326565
0.0310208
0.0293946
0.0278096
0.0262406
0.0246821
0.0231493
0.0216182
0.0200587
0.0184433
0.0167279
0.0148401
0.0126609
0.0100301
0.00690486
0.00375742
0.00121218
0.000148823
1.16059e-05
6.4371e-07
3.59969e-07
5.75046e-07
1.0997e-06
2.89514e-06
1.47802e-05
0.0554648
0.00487607
0.00898735
0.0151448
0.0217818
0.028088
0.0333783
0.0372125
0.0395251
0.0405546
0.0406014
0.0399695
0.0389071
0.0375694
0.03607
0.0344768
0.0328527
0.0312286
0.0296239
0.0280392
0.0264976
0.0249707
0.0234509
0.0219485
0.0204365
0.0188821
0.0172533
0.0154979
0.0135297
0.0112164
0.00842816
0.00531068
0.00248025
0.000552313
5.71202e-05
4.07738e-06
3.53649e-07
3.58764e-07
5.80779e-07
1.09979e-06
2.92625e-06
1.47777e-05
0.0554623
0.00487062
0.00897299
0.0151049
0.0217293
0.02805
0.0333494
0.0372016
0.0395424
0.0405876
0.0406576
0.0400678
0.0390253
0.0377072
0.0362238
0.0346537
0.033041
0.031429
0.0298356
0.0282716
0.0267324
0.025234
0.0237465
0.022261
0.0207823
0.0192819
0.0177235
0.016069
0.0142574
0.0121874
0.00972545
0.00682232
0.00387991
0.00143036
0.000222001
2.17251e-05
1.4143e-06
2.74462e-07
3.61703e-07
5.80119e-07
1.09967e-06
2.95299e-06
1.47749e-05
0.0554603
0.0048626
0.00896393
0.015085
0.0216807
0.0279965
0.0333217
0.0371924
0.039557
0.0406318
0.0407172
0.0401438
0.0391386
0.0378384
0.0363711
0.0348151
0.0332228
0.0316211
0.0300396
0.0284874
0.0269685
0.025475
0.0240167
0.0225646
0.0211074
0.0196457
0.0181483
0.0165755
0.0148824
0.0129959
0.0108037
0.0081959
0.00528504
0.00262056
0.000692047
8.76863e-05
8.05176e-06
5.4709e-07
2.55979e-07
3.62681e-07
5.78031e-07
1.10063e-06
2.97203e-06
1.47718e-05
0.0554599
0.00485107
0.00894949
0.0150737
0.0216589
0.0279477
0.0332785
0.0371825
0.0395699
0.0406712
0.0407846
0.0402239
0.0392299
0.0379629
0.0365118
0.0349692
0.0333894
0.0318065
0.0302347
0.0286945
0.0271882
0.025715
0.0242648
0.0228427
0.0214208
0.0199853
0.018533
0.0170296
0.0154311
0.0136839
0.0117025
0.00937363
0.00665606
0.00389191
0.00156431
0.000288544
3.46899e-05
2.84888e-06
2.85219e-07
2.51722e-07
3.62552e-07
5.79123e-07
1.1045e-06
2.9873e-06
1.47699e-05
0.0554596
0.00484123
0.00892796
0.0150538
0.0216486
0.02793
0.033241
0.0371576
0.0395805
0.0407044
0.0408451
0.0403085
0.0393248
0.0380654
0.0366447
0.0351162
0.0335484
0.0319766
0.0304227
0.0288922
0.0273985
0.0259392
0.0245098
0.023099
0.0217078
0.0203104
0.0188897
0.0174382
0.0159193
0.0142824
0.0124633
0.0103678
0.00790432
0.00517423
0.00266271
0.00078883
0.000115483
1.33578e-05
1.00151e-06
2.11666e-07
2.50411e-07
3.62053e-07
5.81733e-07
1.1122e-06
3.04118e-06
1.47679e-05
0.0554576
0.00483203
0.00891095
0.0150235
0.0216262
0.027925
0.0332349
0.03714
0.0395775
0.0407341
0.040897
0.0403844
0.0394226
0.0381713
0.0367557
0.0352554
0.0337003
0.0321395
0.0305962
0.0290829
0.027599
0.026153
0.0247388
0.0233492
0.0219725
0.0206077
0.019228
0.017815
0.0163556
0.0148097
0.0131199
0.0112104
0.00898731
0.0064221
0.00382502
0.00162022
0.00033884
4.67814e-05
4.91974e-06
3.97213e-07
1.9206e-07
2.5005e-07
3.62546e-07
5.85844e-07
1.14383e-06
3.03143e-06
1.47658e-05
0.0554551
0.00482257
0.00889462
0.0150006
0.021591
0.0279048
0.033239
0.0371505
0.0395827
0.0407513
0.0409426
0.0404501
0.0395104
0.0382786
0.036869
0.0353726
0.0338437
0.0322945
0.0307618
0.0292589
0.0277919
0.0263567
0.0249568
0.0235831
0.0222284
0.0208809
0.0195374
0.0181689
0.0167556
0.0152788
0.0136936
0.0119339
0.00991591
0.00756781
0.00499388
0.00263232
0.000836884
0.000137049
1.8616e-05
1.73564e-06
2.13949e-07
1.86925e-07
2.50194e-07
3.64248e-07
5.96145e-07
1.15248e-06
3.02888e-06
1.47637e-05
0.0554521
0.00481572
0.00887815
0.0149786
0.0215658
0.0278704
0.0332258
0.0371662
0.0396106
0.040778
0.0409776
0.0405084
0.0395865
0.0383756
0.0369832
0.0354913
0.0339654
0.0324411
0.0309191
0.0294266
0.0279704
0.026552
0.0251636
0.0238051
0.0224679
0.0211434
0.0198202
0.0184922
0.0171277
0.015705
0.0142002
0.0125618
0.0107144
0.00857621
0.00613603
0.00369294
0.00161554
0.000367028
5.62148e-05
7.05099e-06
6.24577e-07
1.62406e-07
1.85596e-07
2.5143e-07
3.69114e-07
5.98709e-07
1.15787e-06
3.0274e-06
1.47608e-05
0.0554499
0.00481336
0.0088677
0.0149567
0.0215416
0.0278483
0.0331993
0.0371634
0.0396377
0.0408212
0.0410213
0.0405565
0.0396542
0.0384597
0.0370869
0.0356103
0.0340877
0.0325662
0.0310682
0.0295861
0.0281404
0.026733
0.0253614
0.0240155
0.0226944
0.0213888
0.0200901
0.0187861
0.0174667
0.0160985
0.0146576
0.0131127
0.0114048
0.00945273
0.00719869
0.00475967
0.00254177
0.000844789
0.000149156
2.28499e-05
2.54038e-06
2.64694e-07
1.48845e-07
1.85763e-07
2.54285e-07
3.72742e-07
6.00771e-07
1.16083e-06
3.02641e-06
1.47582e-05
0.0554477
0.00481235
0.00886686
0.0149446
0.0215182
0.0278272
0.0331855
0.0371491
0.0396461
0.0408583
0.0410777
0.0406134
0.0397122
0.0385346
0.0371768
0.0357185
0.0342101
0.032691
0.0311955
0.0297368
0.0283019
0.0269051
0.0255447
0.0242157
0.0229085
0.0216205
0.0203422
0.0190642
0.0177745
0.016456
0.0150758
0.0136065
0.0120077
0.0102129
0.00814598
0.00581191
0.0035096
0.00155962
0.000374506
6.15838e-05
8.84816e-06
8.9466e-07
1.56703e-07
1.45793e-07
1.87384e-07
2.56543e-07
3.7581e-07
6.04867e-07
1.16907e-06
3.02591e-06
1.47554e-05
0.0554472
0.00480745
0.00886875
0.014948
0.0215084
0.0278078
0.0331722
0.0371469
0.0396451
0.0408769
0.0411232
0.0406785
0.039779
0.0385999
0.0372571
0.0358126
0.0343213
0.0328154
0.0313222
0.0298665
0.0284543
0.0270686
0.0257188
0.0244019
0.0231117
0.0218386
0.0205796
0.0193243
0.0180625
0.0167805
0.0154543
0.0140533
0.0125437
0.0108754
0.00897799
0.00680305
0.00448538
0.00240277
0.000815664
0.000152806
2.53853e-05
3.2378e-06
3.39183e-07
1.26994e-07
1.45912e-07
1.88883e-07
2.58389e-07
3.77881e-07
6.14891e-07
1.16616e-06
3.02584e-06
1.47532e-05
0.0554492
0.00479831
0.00886235
0.0149555
0.0215184
0.0278047
0.0331614
0.037144
0.039655
0.0408876
0.041151
0.0407305
0.039851
0.0386734
0.0373277
0.0358969
0.0344182
0.0329289
0.0314482
0.0299947
0.0285862
0.0272231
0.0258844
0.0245781
0.0233007
0.0220454
0.0208027
0.0195684
0.0183313
0.0170808
0.0157981
0.014456
0.0130243
0.0114608
0.00970617
0.00769829
0.00545866
0.0032877
0.0014614
0.000361829
6.33689e-05
9.98166e-06
1.13941e-06
1.65137e-07
1.19977e-07
1.46647e-07
1.90331e-07
2.59944e-07
3.82561e-07
6.16135e-07
1.1644e-06
3.02572e-06
1.47512e-05
0.0554509
0.00478502
0.00884672
0.0149497
0.0215335
0.0278232
0.0331671
0.0371446
0.0396633
0.0409086
0.0411703
0.0407646
0.0399074
0.0387501
0.0374056
0.0359713
0.0345054
0.0330281
0.0315634
0.0301214
0.0287154
0.027357
0.0260405
0.0247455
0.0234794
0.0222378
0.0210136
0.0197969
0.0185825
0.0173593
0.0161139
0.0148221
0.0134552
0.011981
0.0103484
0.00849306
0.00638515
0.00418337
0.00222772
0.000755165
0.000147685
2.63409e-05
3.69408e-06
4.11428e-07
1.15217e-07
1.18801e-07
1.47315e-07
1.9136e-07
2.63797e-07
3.8462e-07
6.15874e-07
1.16358e-06
3.02552e-06
1.47497e-05
0.0554533
0.00477423
0.00882187
0.0149296
0.0215311
0.0278452
0.0331946
0.0371605
0.0396752
0.0409262
0.0412002
0.0407911
0.0399462
0.0388098
0.0374859
0.036052
0.0345826
0.0331172
0.0316641
0.0302379
0.0288429
0.0274874
0.0261766
0.0249034
0.0236488
0.0224192
0.0212095
0.0200123
0.0188178
0.0176192
0.0164047
0.0151562
0.0138466
0.0124447
0.010915
0.00919731
0.00723605
0.00508214
0.00303911
0.00133223
0.000332119
6.13573e-05
1.04305e-05
1.30213e-06
1.7759e-07
1.02282e-07
1.18859e-07
1.4776e-07
1.9376e-07
2.67216e-07
3.86907e-07
6.15614e-07
1.16338e-06
3.02541e-06
1.47484e-05
0.0554549
0.0047656
0.00880187
0.0148947
0.0215095
0.0278476
0.0332225
0.0371952
0.0397
0.0409476
0.0412267
0.0408271
0.0399786
0.0388524
0.0375481
0.0361348
0.0346652
0.0331962
0.0317551
0.0303405
0.0289609
0.0276158
0.0263082
0.0250416
0.0238086
0.0225911
0.0213943
0.0202126
0.0190382
0.0178614
0.0166742
0.0154626
0.014202
0.0128656
0.0114175
0.00981686
0.00800133
0.00595076
0.00385933
0.00202796
0.000674169
0.000135519
2.5569e-05
3.87181e-06
4.59436e-07
1.08326e-07
9.94271e-08
1.19006e-07
1.49402e-07
1.9635e-07
2.69049e-07
3.88889e-07
6.13727e-07
1.16334e-06
3.02543e-06
1.4747e-05
0.0554552
0.00475959
0.00878651
0.0148665
0.0214683
0.027828
0.033229
0.0372264
0.0397397
0.04098
0.0412552
0.0408592
0.0400188
0.0388891
0.0375934
0.0361992
0.0347495
0.0332802
0.0318356
0.0304328
0.029065
0.027735
0.0264371
0.0251744
0.023949
0.0227532
0.0215691
0.0204015
0.0192439
0.0180885
0.0169247
0.0157445
0.014527
0.0132457
0.0118725
0.0103646
0.00867789
0.00676395
0.00469022
0.00276945
0.00118373
0.000291861
5.65112e-05
1.01274e-05
1.36208e-06
1.85008e-07
8.95967e-08
9.88963e-08
1.19934e-07
1.51263e-07
1.98319e-07
2.70981e-07
3.87231e-07
6.1277e-07
1.16342e-06
3.0256e-06
1.47471e-05
0.055452
0.0047569
0.00877697
0.0148457
0.0214355
0.0277865
0.0332134
0.0372356
0.0397716
0.0410227
0.0412933
0.0408931
0.0400547
0.0389322
0.0376326
0.0362464
0.0348155
0.0333658
0.0319203
0.0305147
0.0291589
0.0278406
0.0265575
0.0253043
0.0240835
0.0228961
0.0217338
0.0205794
0.0194368
0.0183
0.0171593
0.0160044
0.0148242
0.0135922
0.012281
0.0108592
0.00927685
0.00749421
0.0055065
0.00352396
0.00180971
0.000581784
0.000119121
2.35469e-05
3.75112e-06
4.74533e-07
1.02468e-07
8.4968e-08
9.92785e-08
1.20877e-07
1.52721e-07
2.00973e-07
2.7143e-07
3.86146e-07
6.12499e-07
1.16356e-06
3.02579e-06
1.47473e-05
0.0554476
0.00475684
0.00877431
0.0148345
0.0214126
0.0277535
0.0331769
0.0372248
0.0397824
0.041054
0.0413379
0.0409345
0.0400924
0.0389706
0.0376783
0.0362875
0.0348643
0.0334332
0.0320067
0.0305999
0.0292418
0.0279357
0.0266644
0.0254256
0.0242142
0.023032
0.0218793
0.0207469
0.0196189
0.018498
0.0173772
0.0162472
0.0150968
0.0139078
0.0126523
0.011301
0.00981722
0.00814675
0.00627243
0.00428986
0.00248428
0.00102252
0.000246888
4.99288e-05
9.27457e-06
1.31415e-06
1.83752e-07
7.95735e-08
8.42321e-08
9.98253e-08
1.21884e-07
1.54832e-07
2.02525e-07
2.72121e-07
3.8437e-07
6.12522e-07
1.16368e-06
3.02598e-06
1.47476e-05
0.0554431
0.00475943
0.00877849
0.0148343
0.0214027
0.0277328
0.0331497
0.0371966
0.0397755
0.0410653
0.0413685
0.0409799
0.0401358
0.039011
0.0377187
0.0363348
0.0349071
0.0334834
0.0320757
0.030687
0.0293272
0.0280198
0.026761
0.025534
0.0243368
0.0231641
0.0220175
0.0208958
0.0197899
0.0186846
0.0175813
0.0164727
0.0153492
0.0141959
0.0129894
0.0117008
0.0102977
0.0087377
0.00697242
0.00504409
0.00317937
0.00157689
0.000484339
0.000100934
2.07029e-05
3.40813e-06
4.53062e-07
9.5652e-08
7.39608e-08
8.45111e-08
1.00412e-07
1.23429e-07
1.56483e-07
2.03901e-07
2.69875e-07
3.83605e-07
6.1263e-07
1.16384e-06
3.0263e-06
1.47487e-05
0.0554385
0.00476043
0.00878846
0.0148456
0.0214076
0.0277274
0.0331352
0.0371778
0.039756
0.041061
0.0413797
0.0410092
0.0401815
0.0390557
0.0377605
0.0363769
0.0349559
0.0335276
0.0321274
0.0307574
0.0294147
0.0281056
0.0268458
0.0256317
0.0244467
0.0232882
0.0221511
0.0210365
0.0199426
0.0188593
0.0177733
0.0166836
0.0155833
0.0144612
0.0132961
0.0120626
0.0107307
0.00926222
0.00761435
0.00576544
0.00387437
0.00219013
0.000855682
0.000201172
4.24836e-05
8.06197e-06
1.18286e-06
1.71669e-07
7.11678e-08
7.30095e-08
8.49285e-08
1.01421e-07
1.24707e-07
1.58753e-07
2.03624e-07
2.68297e-07
3.83443e-07
6.12782e-07
1.16408e-06
3.02671e-06
1.47506e-05
0.0554351
0.00475981
0.0087942
0.0148658
0.0214277
0.0277394
0.0331371
0.0371728
0.0397468
0.041049
0.0413773
0.0410203
0.0402099
0.0391014
0.0378063
0.0364196
0.0349989
0.0335774
0.0321725
0.0308107
0.0294865
0.0281932
0.0269323
0.025718
0.0245458
0.0233995
0.0222766
0.021172
0.0200859
0.019016
0.0179525
0.0168813
0.0158019
0.014706
0.0135772
0.0123913
0.0111211
0.00973384
0.0081865
0.00644886
0.00457122
0.00282087
0.00133924
0.000388774
8.26326e-05
1.74468e-05
2.92504e-06
4.03779e-07
8.68673e-08
6.51311e-08
7.30945e-08
8.54721e-08
1.02093e-07
1.26489e-07
1.59402e-07
2.02838e-07
2.66976e-07
3.835e-07
6.12949e-07
1.16433e-06
3.02717e-06
1.47527e-05
0.0554329
0.00475597
0.00879571
0.0148787
0.0214599
0.0277689
0.0331567
0.0371824
0.0397508
0.041048
0.041371
0.0410198
0.0402208
0.0391295
0.0378525
0.0364657
0.0350422
0.033621
0.0322225
0.0308569
0.0295418
0.0282664
0.0270202
0.025805
0.0246335
0.0235003
0.0223899
0.0212994
0.0202237
0.0191631
0.0181137
0.0170659
0.0160063
0.0149331
0.0138355
0.0126912
0.0114751
0.0101578
0.00870143
0.00706591
0.00525998
0.00345588
0.00188539
0.000691949
0.000158521
3.48199e-05
6.6907e-06
1.00297e-06
1.52001e-07
6.34655e-08
6.39541e-08
7.3425e-08
8.57769e-08
1.0337e-07
1.2783e-07
1.60217e-07
2.00784e-07
2.66567e-07
3.83621e-07
6.13144e-07
1.16465e-06
3.0279e-06
1.47559e-05
0.0554332
0.00475129
0.0087901
0.0148837
0.021481
0.027812
0.0331943
0.037209
0.039768
0.0410599
0.0413761
0.0410176
0.0402215
0.0391403
0.0378801
0.0365125
0.0350884
0.0336648
0.0322669
0.0309071
0.0295891
0.0283232
0.0270945
0.0258933
0.0247211
0.0235896
0.0224924
0.0214147
0.0203536
0.0193035
0.0182651
0.0172326
0.0161969
0.0151452
0.0140735
0.0129662
0.0117972
0.0105413
0.00916388
0.00762627
0.00590685
0.00410535
0.0024585
0.0010983
0.000301456
6.55478e-05
1.41083e-05
2.38907e-06
3.40061e-07
7.69619e-08
5.76998e-08
6.39793e-08
7.36817e-08
8.65651e-08
1.04665e-07
1.29544e-07
1.59533e-07
1.99175e-07
2.66541e-07
3.83765e-07
6.13359e-07
1.165e-06
3.02871e-06
1.47587e-05
0.0554343
0.0047443
0.00878169
0.0148773
0.0214908
0.0278404
0.0332446
0.0372515
0.0398
0.0410827
0.041394
0.0410265
0.0402223
0.0391417
0.0378909
0.0365401
0.0351356
0.0337112
0.0323114
0.0309519
0.0296396
0.0283714
0.0271527
0.0259686
0.0248097
0.0236779
0.0225833
0.0215193
0.0204713
0.019436
0.0184087
0.0173883
0.0163694
0.015342
0.0142945
0.0132181
0.0120916
0.0108888
0.00958135
0.00813131
0.00650705
0.00474154
0.00304853
0.00158048
0.00053529
0.000121645
2.7498e-05
5.30661e-06
8.08089e-07
1.28814e-07
5.64584e-08
5.66157e-08
6.42125e-08
7.42228e-08
8.74959e-08
1.06167e-07
1.30036e-07
1.57658e-07
1.98455e-07
2.66632e-07
3.83933e-07
6.1359e-07
1.16542e-06
3.02961e-06
1.47634e-05
0.0554351
0.00473623
0.00876821
0.014866
0.021485
0.027854
0.0332768
0.0373046
0.0398446
0.0411186
0.0414201
0.041049
0.040234
0.0391447
0.0378928
0.0365513
0.035164
0.0337586
0.0323579
0.0309969
0.029685
0.0284222
0.0272017
0.0260281
0.0248863
0.0237674
0.022673
0.0216121
0.020578
0.0195562
0.0185439
0.017536
0.0165307
0.0155215
0.0144989
0.0134504
0.0123603
0.0112058
0.00995882
0.00858729
0.00705424
0.00535678
0.00363336
0.00210392
0.000868673
0.000224272
5.05225e-05
1.0922e-05
1.85882e-06
2.72339e-07
6.67633e-08
5.14816e-08
5.66169e-08
6.46185e-08
7.4742e-08
8.86061e-08
1.07447e-07
1.29638e-07
1.55959e-07
1.98334e-07
2.66761e-07
3.84107e-07
6.13854e-07
1.16588e-06
3.03072e-06
1.47684e-05
0.0554367
0.00472693
0.00875179
0.0148464
0.0214723
0.0278507
0.0332932
0.0373368
0.0398964
0.0411629
0.0414579
0.0410772
0.0402589
0.0391585
0.0378974
0.0365536
0.0351756
0.0337878
0.0324058
0.0310441
0.0297304
0.0284684
0.0272532
0.0260782
0.0249473
0.023845
0.0227631
0.0217031
0.0206731
0.0196659
0.0186674
0.017675
0.0166826
0.0156887
0.0146859
0.0136641
0.0126067
0.011494
0.0103018
0.00899909
0.00755133
0.0059367
0.00422433
0.00263585
0.00128676
0.000397521
9.06817e-05
2.08836e-05
4.01285e-06
6.18174e-07
1.05009e-07
5.00872e-08
5.05053e-08
5.68856e-08
6.49297e-08
7.5338e-08
8.97664e-08
1.0793e-07
1.28275e-07
1.54968e-07
1.98402e-07
2.66899e-07
3.84311e-07
6.14141e-07
1.16638e-06
3.03207e-06
1.47738e-05
0.0554372
0.0047181
0.00873246
0.0148214
0.0214484
0.0278389
0.0332923
0.0373539
0.0399261
0.041212
0.0415017
0.0411164
0.0402888
0.0391843
0.0379124
0.036559
0.0351787
0.0338004
0.0324363
0.0310926
0.0297779
0.028514
0.0273
0.0261303
0.0249985
0.0239074
0.0228421
0.0217945
0.0207659
0.0197637
0.0187797
0.0178015
0.0168256
0.0158457
0.0148599
0.0138597
0.0128327
0.0117576
0.0106128
0.00937237
0.00800131
0.00647099
0.00480217
0.00317385
0.00174792
0.000661464
0.000161326
3.77779e-05
8.07173e-06
1.37377e-06
2.07942e-07
5.69751e-08
4.60787e-08
5.05374e-08
5.71268e-08
6.52914e-08
7.61932e-08
9.06664e-08
1.07996e-07
1.26458e-07
1.54746e-07
1.98508e-07
2.67048e-07
3.84534e-07
6.14482e-07
1.16698e-06
3.03364e-06
1.47803e-05
0.0554378
0.00471079
0.00871365
0.0147919
0.0214169
0.0278137
0.0332829
0.0373549
0.0399425
0.0412379
0.0415482
0.0411585
0.0403282
0.039215
0.0379391
0.0365748
0.0351847
0.0338044
0.03245
0.0311248
0.0298272
0.0285618
0.0273459
0.0261776
0.0250513
0.02396
0.0229061
0.0218748
0.0208584
0.0198583
0.0188806
0.0179175
0.016956
0.0159934
0.0150228
0.0140412
0.013039
0.0119981
0.0108967
0.00970988
0.00840914
0.00695954
0.0053559
0.00371117
0.00223216
0.00100212
0.000285056
6.58047e-05
1.52725e-05
2.88634e-06
4.50196e-07
8.32296e-08
4.43864e-08
4.53838e-08
5.07291e-08
5.74534e-08
6.58248e-08
7.70619e-08
9.16826e-08
1.07011e-07
1.25286e-07
1.54782e-07
1.98629e-07
2.6722e-07
3.84765e-07
6.14849e-07
1.16768e-06
3.03537e-06
1.47874e-05
0.0554379
0.00470501
0.00869738
0.0147626
0.0213793
0.0277791
0.0332593
0.0373482
0.0399446
0.0412524
0.0415708
0.0412023
0.0403693
0.0392546
0.0379698
0.0366017
0.0352006
0.0338111
0.0324552
0.0311402
0.0298615
0.0286118
0.0273937
0.0262241
0.0250993
0.0240135
0.0229602
0.0219407
0.0209404
0.0199522
0.0189775
0.0180215
0.0170757
0.0161284
0.0151756
0.0142107
0.0132298
0.0122181
0.0111546
0.0100174
0.00877716
0.00740412
0.00587594
0.0042488
0.00272176
0.00140524
0.000477095
0.000113565
2.73191e-05
5.72164e-06
9.6613e-07
1.53106e-07
4.83981e-08
4.15154e-08
4.54326e-08
5.10641e-08
5.78559e-08
6.64144e-08
7.8161e-08
9.18141e-08
1.05118e-07
1.24965e-07
1.54876e-07
1.98766e-07
2.67405e-07
3.85027e-07
6.15252e-07
1.16843e-06
3.03736e-06
1.47951e-05
0.0554372
0.00470045
0.00868441
0.0147363
0.0213414
0.0277372
0.033226
0.037328
0.0399403
0.0412554
0.0415837
0.0412222
0.0404111
0.0392947
0.0380095
0.0366327
0.0352276
0.0338266
0.0324622
0.0311461
0.0298788
0.0286476
0.0274444
0.0262724
0.0251467
0.0240626
0.0230147
0.0219965
0.0210084
0.0200363
0.0190734
0.0181211
0.0171834
0.0162521
0.0153156
0.0143692
0.0134068
0.0124208
0.0113907
0.0102957
0.00911193
0.00780647
0.00635434
0.00477013
0.00321235
0.00183643
0.000747262
0.00019577
4.6593e-05
1.07346e-05
1.9861e-06
3.13454e-07
6.5185e-08
3.95604e-08
4.10616e-08
4.57329e-08
5.13837e-08
5.81835e-08
6.72876e-08
7.89026e-08
9.06981e-08
1.03958e-07
1.24978e-07
1.54985e-07
1.98914e-07
2.67604e-07
3.85314e-07
6.15712e-07
1.1693e-06
3.03954e-06
1.4804e-05
0.055436
0.00469691
0.00867402
0.0147152
0.0213073
0.0276955
0.033185
0.0372998
0.0399243
0.0412538
0.0415867
0.0412334
0.0404289
0.0393348
0.0380488
0.0366722
0.0352584
0.0338531
0.0324771
0.0311533
0.0298859
0.0286663
0.0274814
0.0263235
0.0251952
0.0241106
0.0230648
0.0220519
0.0210658
0.0201063
0.0191593
0.018219
0.0172863
0.0163641
0.0154441
0.0145148
0.0135719
0.0126073
0.011608
0.0105506
0.00941429
0.0081725
0.00679175
0.00526833
0.00370027
0.00228077
0.00107918
0.000329293
7.82081e-05
1.89766e-05
3.88504e-06
6.48537e-07
1.09507e-07
4.1325e-08
3.762e-08
4.12069e-08
4.60018e-08
5.15989e-08
5.86495e-08
6.8071e-08
7.89055e-08
8.92e-08
1.03578e-07
1.25064e-07
1.55108e-07
1.99075e-07
2.67823e-07
3.85632e-07
6.16232e-07
1.17031e-06
3.04208e-06
1.48133e-05
0.0554339
0.004694
0.00866604
0.0146983
0.0212796
0.0276576
0.0331462
0.0372652
0.0399026
0.0412406
0.0415867
0.0412359
0.0404388
0.039351
0.0380872
0.036711
0.0352976
0.0338837
0.032503
0.0311674
0.0298933
0.0286748
0.027502
0.0263618
0.0252466
0.0241595
0.0231135
0.0221033
0.0211225
0.0201661
0.019232
0.0183074
0.0173865
0.0164705
0.0155604
0.0146485
0.0137237
0.0127804
0.0118066
0.010785
0.00969104
0.00850263
0.0071912
0.00573495
0.00418635
0.00272577
0.00145613
0.000525067
0.00013029
3.21434e-05
7.18156e-06
1.30408e-06
2.09345e-07
5.09835e-08
3.54771e-08
3.73952e-08
4.14319e-08
4.6175e-08
5.1834e-08
5.93049e-08
6.86695e-08
7.83226e-08
8.79926e-08
1.03577e-07
1.25165e-07
1.55237e-07
1.9925e-07
2.68065e-07
3.85987e-07
6.16812e-07
1.17142e-06
3.04499e-06
1.48239e-05
0.0554312
0.00469174
0.00865949
0.0146855
0.0212569
0.0276278
0.0331114
0.037233
0.0398756
0.0412253
0.0415762
0.0412369
0.040441
0.03936
0.0381024
0.0367485
0.035336
0.0339228
0.0325332
0.0311927
0.0299069
0.0286826
0.0275119
0.0263841
0.0252862
0.0242114
0.023163
0.022153
0.0211752
0.0202242
0.019294
0.0183826
0.0174776
0.0165733
0.0156708
0.0147703
0.0138632
0.0129391
0.0119901
0.0109982
0.00994519
0.00880475
0.00755247
0.00616521
0.00465513
0.00317024
0.00185117
0.000786065
0.000216375
5.24933e-05
1.26695e-05
2.50264e-06
4.15641e-07
7.69818e-08
3.56494e-08
3.42962e-08
3.75336e-08
4.15921e-08
4.63819e-08
5.22905e-08
5.99528e-08
6.89582e-08
7.67711e-08
8.76062e-08
1.03654e-07
1.25275e-07
1.55382e-07