/*--------------------------------*- C++ -*----------------------------------*\
| =========                 |                                                 |
| \\      /  F ield         | OpenFOAM: The Open Source CFD Toolbox           |
|  \\    /   O peration     | Version:  v2012                                 |
|   \\  /    A nd           | Website:  www.openfoam.com                      |
|    \\/     M anipulation  |                                                 |
\*---------------------------------------------------------------------------*/
FoamFile
{
    version     2.0;
    format      ascii;
    class       volScalarField;
    location    "13200";
    object      nu;
}
// * * * * * * * * * * * * * * * * * * * * * * * * * * * * * * * * * * * * * //

dimensions      [0 2 -1 0 0 0 0];


internalField   nonuniform List<scalar> 
39402
(
0.000634208
0.000477342
0.00070345
0.00057058
0.000568812
0.000661711
0.000585179
0.000645297
0.000641442
0.000587676
0.000594657
0.000655008
0.000710848
0.000696502
0.000509125
0.000594987
0.00066563
0.000715466
0.000768065
0.000735033
0.000435655
0.00058961
0.00066531
0.000725577
0.000767092
0.000817382
0.000757512
0.000371286
0.000584757
0.000658895
0.000723222
0.000774928
0.000809844
0.000858898
0.000764599
0.00031606
0.000581473
0.000652642
0.000715071
0.000769124
0.000813375
0.00084334
0.000892392
0.000757039
0.000269143
0.000579618
0.00064807
0.000707046
0.000758518
0.000802677
0.000840429
0.000867284
0.000917394
0.000735908
0.000229558
0.000578235
0.000644898
0.000701105
0.000748351
0.000788902
0.000823652
0.000856306
0.000881863
0.000933149
0.000702456
0.000196019
0.000577335
0.000642252
0.000696654
0.000740967
0.000776265
0.000806223
0.000833009
0.000862298
0.000887761
0.000938702
0.000658489
0.000167585
0.000576658
0.000640271
0.0006929
0.00073531
0.000767396
0.000790981
0.000811963
0.000833007
0.000860315
0.000885784
0.000933011
0.000605965
0.000143474
0.000576489
0.000638625
0.000690008
0.000730619
0.000760633
0.000780691
0.000794335
0.000808904
0.000826251
0.000851997
0.000876409
0.000914943
0.000547454
0.00012289
0.000576188
0.000637553
0.000687586
0.000727023
0.000755212
0.000772975
0.00078284
0.000789391
0.000799896
0.000814696
0.000838349
0.000859824
0.000883563
0.000485492
0.00010527
0.00057587
0.000636426
0.000685831
0.00072405
0.000751128
0.000767044
0.000774376
0.000777002
0.000779097
0.000786937
0.000799533
0.000820146
0.000836067
0.000838267
0.000422847
9.01479e-05
0.000575599
0.000635363
0.000684098
0.000721846
0.000747854
0.000762692
0.000768139
0.000768026
0.000766134
0.000765404
0.000771199
0.000781593
0.000798086
0.00080516
0.000779132
0.000361986
7.71704e-05
0.000575415
0.000634433
0.000682489
0.000719744
0.000745452
0.000759344
0.000763701
0.00076165
0.000756867
0.000752147
0.000749442
0.000753497
0.000761432
0.00077284
0.000768324
0.000707337
0.000305038
6.59509e-05
0.000575408
0.000633578
0.000681078
0.000717821
0.000743236
0.000756973
0.000760457
0.000757261
0.000750485
0.000742783
0.000736128
0.000731989
0.000734387
0.000739422
0.000745085
0.000727517
0.000625474
0.000253159
5.61672e-05
0.000575854
0.000632953
0.00067977
0.000716131
0.000741244
0.00075488
0.000758271
0.000754224
0.000746239
0.000736521
0.000726846
0.00071883
0.000713547
0.000714188
0.000715809
0.00071457
0.000682694
0.000537523
0.000207032
4.76372e-05
0.000575887
0.000632855
0.000678726
0.000714614
0.000739532
0.000753043
0.000756441
0.000752298
0.000743456
0.000732484
0.000720814
0.000709807
0.000700761
0.000694416
0.000693061
0.000690621
0.000681331
0.000633146
0.000448761
0.000166582
4.04866e-05
0.000575429
0.000632372
0.000678253
0.000713374
0.000738028
0.000751526
0.000754903
0.000750788
0.000741822
0.000729998
0.000717045
0.000704083
0.000692149
0.000682224
0.000674718
0.000671038
0.000663833
0.000644931
0.000578739
0.000364439
0.00013388
3.47563e-05
0.000575967
0.000631396
0.00067743
0.000712727
0.000736829
0.000750243
0.000753717
0.000749605
0.00074065
0.000728674
0.000714893
0.000700635
0.000686806
0.000674151
0.000663395
0.000654526
0.000648077
0.000635068
0.000605194
0.000519307
0.000289128
0.000107915
3.07795e-05
0.000575978
0.000631443
0.000676114
0.000711745
0.000736245
0.000749286
0.000752781
0.000748794
0.000739826
0.000727844
0.000713893
0.000698832
0.000683716
0.000669263
0.000655969
0.000644318
0.000633818
0.000624067
0.000604417
0.000561985
0.000454986
0.000225603
8.66193e-05
2.84555e-05
0.000576094
0.000631007
0.000675838
0.000710298
0.000735327
0.000748971
0.00075219
0.000748249
0.00073939
0.000727379
0.000713415
0.000698167
0.000682284
0.000666573
0.000651611
0.000637668
0.000624972
0.00061252
0.000598798
0.000571444
0.00051574
0.000386541
0.000173831
6.96118e-05
2.74302e-05
0.000576116
0.000630714
0.000675102
0.000709885
0.000733931
0.000748303
0.000752255
0.000748063
0.00073923
0.000727314
0.000713305
0.000698035
0.000681961
0.000665527
0.000649361
0.000633914
0.000619252
0.000605317
0.000590464
0.000572056
0.000535905
0.000467158
0.00031575
0.000133064
5.68359e-05
2.69995e-05
0.000576318
0.000630332
0.000674534
0.000709022
0.000733587
0.000747139
0.000751959
0.000748539
0.000739427
0.000727519
0.000713602
0.000698275
0.000682172
0.000665557
0.000648723
0.000632155
0.000616191
0.000600683
0.000585237
0.000567519
0.00054353
0.000497533
0.000415956
0.000246078
0.00010204
4.781e-05
2.68743e-05
0.000576358
0.000630115
0.00067389
0.000708334
0.000732789
0.000747036
0.000751139
0.000748635
0.000740286
0.000728083
0.000714166
0.000698923
0.00068275
0.000666109
0.000649113
0.000631953
0.000614976
0.000598416
0.000581881
0.000564599
0.000543392
0.000512894
0.000456235
0.000360321
0.000182708
7.96848e-05
4.13142e-05
2.69904e-05
0.000576606
0.000629771
0.000673417
0.000707586
0.000732163
0.000746475
0.000751377
0.000748189
0.000740767
0.000729298
0.000715072
0.000699826
0.000683734
0.000667019
0.000650012
0.000632716
0.00061524
0.000597807
0.00058053
0.000562744
0.000543227
0.000517837
0.000479775
0.000412185
0.000299572
0.000131587
6.41061e-05
3.67738e-05
2.72994e-05
0.000576654
0.00062967
0.000672831
0.000707025
0.000731478
0.000746079
0.000751153
0.000748802
0.000740687
0.000730138
0.000716619
0.000701056
0.00068496
0.00066833
0.000651252
0.000633967
0.000616404
0.000598577
0.00058061
0.000562456
0.000543145
0.000520905
0.00049052
0.00044398
0.000366199
0.000235592
9.4768e-05
5.34733e-05
3.33624e-05
2.78712e-05
0.000576857
0.000629395
0.000672494
0.000706344
0.000730988
0.000745616
0.000751091
0.000748945
0.000741646
0.000730409
0.0007178
0.00070291
0.000686493
0.000669867
0.000652879
0.000635538
0.000618017
0.000600172
0.000581934
0.000563309
0.000544089
0.00052292
0.000497379
0.000461082
0.000405402
0.000317695
0.000173572
7.03475e-05
4.59034e-05
3.07943e-05
2.86578e-05
0.000576671
0.000629278
0.000672014
0.000705921
0.000730372
0.000745346
0.000750949
0.000749238
0.00074215
0.000731688
0.000718406
0.000704407
0.000688632
0.000671683
0.000654715
0.000637482
0.000619924
0.000602163
0.000583989
0.000565258
0.000545833
0.000525308
0.000501877
0.000472351
0.000429205
0.000364265
0.000264924
0.000121224
5.57773e-05
4.02918e-05
2.89405e-05
2.95185e-05
0.000576812
0.000628769
0.000671695
0.000705355
0.000730013
0.000744928
0.000750984
0.000749448
0.000742782
0.00073252
0.000719981
0.000705328
0.000690421
0.000674086
0.000656806
0.000639609
0.000622181
0.000604415
0.000586383
0.000567817
0.000548482
0.000528086
0.000505968
0.000479791
0.000445483
0.000394645
0.000321182
0.000207769
8.39481e-05
4.84605e-05
3.6092e-05
2.77746e-05
3.02728e-05
0.000577222
0.000628603
0.000670993
0.000704956
0.000729487
0.000744767
0.000750867
0.000749826
0.000743325
0.000733472
0.000721123
0.000707172
0.000691636
0.00067615
0.000659456
0.000641964
0.000624599
0.000606993
0.000588995
0.000570645
0.0005516
0.000531527
0.000509949
0.000485897
0.00045639
0.000416426
0.000357431
0.000276007
0.000150939
6.07677e-05
4.37076e-05
3.29664e-05
2.71079e-05
3.08012e-05
0.000577428
0.000628722
0.000670637
0.000704191
0.000729172
0.00074443
0.000750996
0.000750041
0.000744031
0.000734327
0.000722371
0.000708599
0.00069373
0.000677641
0.00066178
0.000644854
0.000627213
0.000609703
0.000591907
0.000573642
0.0005549
0.000535273
0.000514303
0.000491291
0.000464887
0.000431359
0.000384898
0.000317966
0.00022699
0.000103059
4.83506e-05
3.96113e-05
3.11294e-05
2.6831e-05
3.11508e-05
0.00057746
0.000628668
0.000670581
0.000703763
0.000728455
0.000744303
0.000750934
0.000750481
0.000744556
0.000735325
0.000723519
0.000710117
0.000695414
0.000679961
0.000663537
0.000647426
0.000630336
0.000612572
0.000594911
0.000576896
0.00055831
0.000539093
0.000518755
0.000496697
0.000471951
0.00044269
0.000404362
0.000350773
0.000277119
0.000173858
6.89715e-05
4.19058e-05
3.61868e-05
2.99218e-05
2.67427e-05
3.15291e-05
0.000577373
0.000628473
0.000670368
0.000703649
0.000728074
0.000743749
0.000751066
0.000750715
0.000745294
0.000736142
0.000724789
0.000711537
0.000697186
0.000681887
0.000666066
0.000649432
0.000633146
0.000615926
0.000598046
0.000580209
0.000561928
0.000542949
0.000523155
0.000501959
0.000478589
0.000451738
0.000419014
0.000375077
0.000314306
0.00023405
0.00012316
5.08839e-05
3.83832e-05
3.35418e-05
2.91888e-05
2.70432e-05
3.18046e-05
0.000577317
0.000628188
0.000670031
0.000703379
0.000728019
0.000743535
0.000750754
0.000751141
0.000745824
0.000737152
0.000725877
0.000713058
0.000698854
0.000683892
0.000668214
0.000652161
0.000635393
0.000618969
0.00060163
0.000583612
0.000565561
0.000546956
0.000527504
0.000507013
0.000484782
0.000459825
0.000430425
0.000393533
0.000343292
0.000276082
0.000186905
8.09437e-05
4.11851e-05
3.60772e-05
3.15361e-05
2.86378e-05
2.77204e-05
3.19304e-05
0.000577666
0.000627883
0.000669634
0.000702992
0.000727799
0.000743644
0.000750762
0.000751095
0.000746522
0.000737949
0.000727136
0.000714393
0.000700604
0.000685786
0.000670434
0.00065452
0.000638313
0.000621452
0.000604904
0.000587433
0.000569246
0.000550929
0.000531932
0.000511911
0.000490581
0.000467104
0.000440228
0.000407737
0.00036592
0.000309089
0.000236515
0.000137591
5.47922e-05
3.65807e-05
3.42722e-05
3.01179e-05
2.82598e-05
2.87236e-05
3.19819e-05
0.00057822
0.000627992
0.00066918
0.000702558
0.000727456
0.000743563
0.000751104
0.000751349
0.000746733
0.000738896
0.000728177
0.000715882
0.000702164
0.000687747
0.000672544
0.000656943
0.000640873
0.00062456
0.000607618
0.000590936
0.000573311
0.000554915
0.000536271
0.0005168
0.000496093
0.000473759
0.000448785
0.000419578
0.000383364
0.000335932
0.000273021
0.000194176
9.39632e-05
4.20699e-05
3.48995e-05
3.269e-05
2.95867e-05
2.79856e-05
2.95793e-05
3.19807e-05
0.000578363
0.000628331
0.000669149
0.00070205
0.000727049
0.000743357
0.000751243
0.00075194
0.000747232
0.000739349
0.000729356
0.000717152
0.000703865
0.000689516
0.000674698
0.00065925
0.000643489
0.000627312
0.000610912
0.000593883
0.000577049
0.000559236
0.000540576
0.000521532
0.000501493
0.000479971
0.000456434
0.000429651
0.000397619
0.00035698
0.000303581
0.000236045
0.000148181
6.12606e-05
3.62503e-05
3.35067e-05
3.14061e-05
2.90573e-05
2.80762e-05
3.01941e-05
3.19529e-05
0.000578092
0.000628293
0.00066937
0.000701973
0.000726594
0.000743039
0.000751225
0.000752311
0.00074806
0.000740073
0.000730031
0.000718547
0.000705345
0.000691409
0.000676657
0.000661589
0.000645986
0.000630115
0.000613852
0.000597364
0.000580229
0.000563215
0.000545174
0.000526189
0.000506661
0.000485941
0.000463444
0.000438468
0.000409496
0.000374045
0.000328326
0.000269338
0.000197135
0.000104476
4.35446e-05
3.36707e-05
3.23638e-05
3.03928e-05
2.8741e-05
2.82307e-05
3.05901e-05
3.19257e-05
0.000577919
0.000627895
0.000669229
0.00070216
0.000726564
0.000742723
0.000751035
0.000752498
0.000748652
0.000741116
0.00073096
0.000719435
0.000706936
0.000693081
0.000678727
0.000663722
0.000648495
0.000632795
0.000616837
0.000600493
0.000583905
0.000566634
0.000549406
0.00053108
0.000511699
0.000491593
0.000470063
0.000446403
0.000419698
0.000388068
0.000348539
0.000297346
0.000234028
0.00015463
6.80187e-05
3.62435e-05
3.26432e-05
3.15989e-05
3.0013e-05
2.8544e-05
2.85322e-05
3.09583e-05
3.19069e-05
0.000578134
0.000627569
0.000668765
0.000701994
0.000726802
0.000742819
0.00075092
0.000752489
0.000749054
0.000741911
0.000732202
0.000720552
0.000708021
0.000694855
0.000680581
0.000665958
0.000650797
0.000635465
0.000619693
0.000603659
0.000587225
0.000570511
0.000553065
0.000535577
0.000516911
0.000497053
0.000476256
0.000453764
0.000428713
0.00039992
0.000365075
0.000320831
0.000264427
0.000197157
0.000111753
4.63324e-05
3.32051e-05
3.18278e-05
3.10755e-05
2.9777e-05
2.84871e-05
2.88983e-05
3.1276e-05
3.18965e-05
0.00057838
0.000627618
0.000668361
0.000701509
0.000726675
0.000743174
0.000751188
0.000752574
0.000749242
0.000742505
0.000733184
0.000721976
0.000709312
0.000696125
0.000682521
0.000667979
0.00065319
0.000637929
0.000622524
0.000606689
0.000590571
0.000574028
0.000557154
0.000539494
0.000521693
0.000502616
0.000482187
0.000460572
0.000436931
0.000410212
0.000378886
0.000340202
0.000290839
0.00023035
0.000157346
7.39494e-05
3.64405e-05
3.1868e-05
3.12092e-05
3.06619e-05
2.9562e-05
2.85161e-05
2.93725e-05
3.15474e-05
3.18938e-05
0.000578702
0.000627666
0.000668319
0.000701087
0.000726211
0.000743145
0.000751711
0.000753021
0.0007495
0.000742876
0.000733957
0.000723131
0.0007109
0.000697573
0.000683962
0.000670077
0.000655368
0.000640471
0.000625144
0.000609674
0.00059377
0.000577555
0.000560874
0.000543804
0.000525876
0.000507704
0.00048814
0.000467031
0.000444448
0.000419434
0.000390696
0.000356311
0.000313183
0.000258917
0.000195018
0.000115709
4.91015e-05
3.2947e-05
3.13067e-05
3.08458e-05
3.05535e-05
2.92565e-05
2.86161e-05
2.97947e-05
3.17549e-05
3.18914e-05
0.000579064
0.000627828
0.000668263
0.000701024
0.00072582
0.000742732
0.000751823
0.000753733
0.000750124
0.000743297
0.000734497
0.000724075
0.000712216
0.000699308
0.00068556
0.000671676
0.000657613
0.000642801
0.000627828
0.000612447
0.000596913
0.000580924
0.000564587
0.000547731
0.000530414
0.000512175
0.000493562
0.00047342
0.000451505
0.000427771
0.000401112
0.000369924
0.000331883
0.000283933
0.000225832
0.000157154
7.79667e-05
3.71114e-05
3.15253e-05
3.08544e-05
3.07983e-05
3.03906e-05
2.90995e-05
2.86768e-05
3.02706e-05
3.18278e-05
3.18894e-05
0.000579278
0.000628059
0.000668348
0.000700941
0.00072579
0.000742417
0.000751486
0.000754005
0.000751003
0.000744082
0.000735077
0.000724772
0.000713315
0.000700771
0.000687429
0.000673415
0.000659365
0.000645184
0.000630302
0.000615273
0.000599834
0.000584223
0.000568127
0.000551625
0.000534553
0.000516946
0.000498342
0.00047921
0.000458384
0.000435515
0.000410413
0.000381761
0.000347608
0.000305336
0.000252801
0.000191679
0.000116825
5.16007e-05
3.26654e-05
3.08432e-05
3.07467e-05
3.07419e-05
3.02024e-05
2.89375e-05
2.88459e-05
3.08038e-05
3.185e-05
3.18878e-05
0.000579058
0.000628163
0.000668513
0.00070101
0.000725764
0.000742466
0.000751273
0.000753764
0.000751419
0.000745119
0.000736009
0.000725501
0.000714163
0.000702017
0.000689029
0.000675409
0.00066123
0.000647079
0.000632817
0.000617888
0.000602802
0.000587296
0.000571579
0.000555335
0.000538634
0.000521309
0.000503367
0.000484334
0.000464588
0.000442952
0.00041895
0.000392207
0.000361141
0.000323441
0.000276603
0.000220556
0.000155186
8.01928e-05
3.76109e-05
3.11898e-05
3.06825e-05
3.07102e-05
3.06983e-05
2.99802e-05
2.88399e-05
2.90626e-05
3.12458e-05
3.1863e-05
3.18872e-05
0.000578634
0.00062788
0.000668573
0.000701172
0.000725872
0.000742552
0.00075144
0.000753679
0.00075131
0.000745677
0.000737182
0.000726566
0.000715027
0.000703005
0.00069041
0.000677137
0.000663343
0.000649068
0.00063485
0.000620531
0.000605553
0.000590403
0.000574801
0.00055894
0.000542512
0.000525581
0.000507967
0.00048964
0.000470092
0.00044962
0.000427027
0.000401673
0.000372952
0.000338963
0.000297176
0.000246052
0.000187308
0.00011606
5.29693e-05
3.24445e-05
3.06374e-05
3.06084e-05
3.07277e-05
3.07162e-05
2.9621e-05
2.88392e-05
2.95417e-05
3.1552e-05
3.18754e-05
3.18869e-05
0.000578366
0.000627362
0.000668266
0.000701229
0.000726077
0.000742748
0.00075167
0.000753967
0.000751352
0.000745694
0.000737875
0.00072787
0.000716218
0.000704001
0.000691529
0.000678643
0.00066519
0.000651292
0.000636959
0.000622696
0.000608325
0.00059329
0.000578047
0.000562312
0.000546273
0.000529633
0.000512444
0.000494496
0.000475726
0.000455552
0.000434226
0.000410494
0.000383516
0.000352397
0.000314924
0.000268771
0.00021447
0.000151781
8.03848e-05
3.78319e-05
3.09525e-05
3.05234e-05
3.06382e-05
3.07582e-05
3.06011e-05
2.93363e-05
2.88761e-05
3.01185e-05
3.1755e-05
3.18821e-05
3.18865e-05
0.000578443
0.000626995
0.000667702
0.000700923
0.000726175
0.000743039
0.000751979
0.000754342
0.000751756
0.000745855
0.000738019
0.000728687
0.00071764
0.000705305
0.000692645
0.000679885
0.000666818
0.000653249
0.000639288
0.00062492
0.00061062
0.000596185
0.000581069
0.000565693
0.000549799
0.000533557
0.000516679
0.00049919
0.000480859
0.000461564
0.000440641
0.000418309
0.000393213
0.000364266
0.000330249
0.000288788
0.000238648
0.000181863
0.00011362
5.31907e-05
3.22429e-05
3.05271e-05
3.05338e-05
3.06757e-05
3.0773e-05
3.03225e-05
2.91211e-05
2.89361e-05
3.07548e-05
3.18352e-05
3.18844e-05
3.18865e-05
0.00057893
0.000626951
0.00066728
0.000700347
0.00072588
0.000743213
0.000752377
0.000754764
0.000752253
0.00074637
0.000738294
0.000728953
0.000718576
0.000706831
0.000694052
0.000681117
0.000668172
0.000654991
0.000641353
0.000627352
0.000612959
0.000598604
0.00058408
0.000568847
0.000553318
0.000537241
0.000520771
0.000503619
0.000485786
0.000467014
0.000447078
0.000425277
0.000401748
0.000375011
0.000343668
0.000306203
0.000260565
0.000207624
0.000146965
7.84827e-05
3.76827e-05
3.07654e-05
3.046e-05
3.05591e-05
3.07315e-05
3.07136e-05
3.00322e-05
2.89449e-05
2.92412e-05
3.12758e-05
3.18614e-05
3.18856e-05
3.18864e-05
0.00057952
0.000627302
0.000667182
0.000699913
0.000725314
0.000742943
0.000752633
0.000755266
0.000752787
0.000746975
0.000738912
0.000729339
0.000718956
0.000707877
0.000695678
0.000682621
0.000669511
0.000656458
0.000643201
0.000629521
0.000615487
0.000601057
0.000586621
0.000571976
0.000556605
0.000540906
0.000524625
0.000507895
0.000490426
0.000472197
0.000452897
0.000432195
0.000409356
0.000384403
0.000355665
0.000321419
0.000280046
0.000230763
0.000175517
0.000109659
5.21026e-05
3.19625e-05
3.04784e-05
3.04899e-05
3.06226e-05
3.07528e-05
3.05991e-05
2.9603e-05
2.89663e-05
2.97574e-05
3.16082e-05
3.18761e-05
3.18861e-05
3.18865e-05
0.000580029
0.000627774
0.000667472
0.0006998
0.000724895
0.0007424
0.000752402
0.000755617
0.00075339
0.000747607
0.000739607
0.000730051
0.000719446
0.000708366
0.000696826
0.000684333
0.000671104
0.000657898
0.000644777
0.000631475
0.000617755
0.000603684
0.000589184
0.000574635
0.00055985
0.000544329
0.000528438
0.000511925
0.000494898
0.000477067
0.00045838
0.000438427
0.000416822
0.000392761
0.000366087
0.000334911
0.000297228
0.000251863
0.000200218
0.000141003
7.54415e-05
3.70238e-05
3.06412e-05
3.04435e-05
3.05377e-05
3.06698e-05
3.07767e-05
3.0408e-05
2.93475e-05
2.90502e-05
3.04414e-05
3.17909e-05
3.18826e-05
3.18863e-05
3.18865e-05
0.000580399
0.000628196
0.000667899
0.000700086
0.000724807
0.000742021
0.000751905
0.000755442
0.000753835
0.000748307
0.000740336
0.000730834
0.000720247
0.000708955
0.000697421
0.000685577
0.000672903
0.000659578
0.000646319
0.000633155
0.000619815
0.00060605
0.000591908
0.000577306
0.00056263
0.000547692
0.000531998
0.000515893
0.000499116
0.000481753
0.000463503
0.000444265
0.000423521
0.000400855
0.000375335
0.000346574
0.00031245
0.000270932
0.000222271
0.000168444
0.00010453
4.99937e-05
3.16675e-05
3.04565e-05
3.04812e-05
3.05654e-05
3.0702e-05
3.06759e-05
3.01334e-05
2.91244e-05
2.91761e-05
3.10898e-05
3.18543e-05
3.18851e-05
3.18864e-05
3.18865e-05
0.000580522
0.000628491
0.000668292
0.000700527
0.000725135
0.00074198
0.000751568
0.000755003
0.000753739
0.000748838
0.000741124
0.000731648
0.000721116
0.000709843
0.000698108
0.000686277
0.000674238
0.000661452
0.000648079
0.000634792
0.0006216
0.000608211
0.00059437
0.000580124
0.000565408
0.000550591
0.000535485
0.000519598
0.000503249
0.000486173
0.000468423
0.00044969
0.000429769
0.000408083
0.000384165
0.000356885
0.00032559
0.000288012
0.000242734
0.000192074
0.000134049
7.13015e-05
3.60122e-05
3.05781e-05
3.04759e-05
3.05302e-05
3.05898e-05
3.06552e-05
3.05382e-05
2.97587e-05
2.91152e-05
2.96995e-05
3.1538e-05
3.18741e-05
3.1886e-05
3.18865e-05
3.18865e-05
0.000580393
0.000628554
0.000668567
0.000700942
0.000725639
0.000742386
0.000751595
0.000754717
0.000753364
0.000748824
0.000741736
0.00073252
0.000722007
0.000710786
0.000699067
0.000687054
0.000675035
0.000662876
0.000650027
0.000636632
0.000623328
0.000610095
0.00059663
0.000582683
0.000568324
0.000553482
0.000538506
0.000523209
0.000507104
0.000490481
0.000473062
0.000454871
0.000435553
0.000414798
0.000391999
0.000366589
0.000337167
0.000302835
0.000261496
0.000213356
0.00016045
9.83373e-05
4.71864e-05
3.13687e-05
3.04762e-05
3.05111e-05
3.05491e-05
3.05792e-05
3.06123e-05
3.03475e-05
2.95169e-05
2.91675e-05
3.03506e-05
3.17688e-05
3.18827e-05
3.18862e-05
3.18865e-05
3.18865e-05
0.000579975
0.000628368
0.000668615
0.000701238
0.000726113
0.000742982
0.0007521
0.000754813
0.000753138
0.000748516
0.000741807
0.000733209
0.000722954
0.000711746
0.000700084
0.000688088
0.000675902
0.000663769
0.000651532
0.000638646
0.00062524
0.000611912
0.000598608
0.000585038
0.000570978
0.000556496
0.000541512
0.000526357
0.000510847
0.000494492
0.000477556
0.000459749
0.000441043
0.000421001
0.000399257
0.000375137
0.000347915
0.000315894
0.000278063
0.00023323
0.000183233
0.000125968
6.62993e-05
3.48048e-05
3.05416e-05
3.04901e-05
3.05371e-05
3.0529e-05
3.05725e-05
3.05977e-05
3.02206e-05
2.92476e-05
2.93624e-05
3.10828e-05
3.18566e-05
3.18853e-05
3.18863e-05
3.18865e-05
3.18865e-05
0.00057965
0.000627885
0.000668401
0.000701302
0.000726457
0.000743541
0.000752798
0.000755412
0.000753303
0.000748358
0.000741572
0.000733366
0.000723718
0.000712767
0.000701114
0.000689173
0.000677007
0.000664721
0.00065252
0.00064023
0.000627322
0.000613898
0.00060051
0.000587108
0.000573425
0.000559245
0.000544624
0.000529482
0.000514129
0.000498377
0.000481737
0.000464445
0.000446188
0.000426864
0.000405941
0.000383026
0.000357316
0.000327891
0.000292765
0.000251253
0.000203951
0.000151345
9.11702e-05
4.39917e-05
3.11047e-05
3.04878e-05
3.05093e-05
3.05235e-05
3.04976e-05
3.05337e-05
3.05556e-05
2.97943e-05
2.92351e-05
2.97721e-05
3.15652e-05
3.18771e-05
3.1886e-05
3.18865e-05
3.18865e-05
3.18865e-05
0.000579434
0.000627497
0.000667883
0.000701078
0.000726565
0.000743956
0.00075345
0.000756209
0.00075398
0.000748585
0.000741481
0.000733204
0.000723954
0.000713603
0.000702198
0.000690263
0.000678155
0.000665894
0.000653558
0.000641307
0.000628981
0.000616043
0.000602567
0.000589096
0.000575591
0.000561786
0.000547473
0.000532698
0.000517376
0.000501799
0.000485774
0.000468808
0.000451108
0.000432321
0.000412231
0.000390267
0.000365957
0.000338316
0.000306215
0.000267582
0.00022288
0.000173734
0.000116612
6.07871e-05
3.36372e-05
3.0528e-05
3.05077e-05
3.0509e-05
3.04663e-05
3.04449e-05
3.05185e-05
3.03203e-05
2.95555e-05
2.92057e-05
3.05216e-05
3.17963e-05
3.1884e-05
3.18864e-05
3.18865e-05
3.18865e-05
3.18865e-05
0.000579388
0.000627188
0.000667455
0.000700548
0.000726349
0.00074412
0.000753948
0.000756963
0.000754852
0.00074933
0.000741768
0.000733179
0.000723871
0.00071392
0.000703104
0.000691411
0.000679304
0.000667102
0.000654792
0.000642431
0.000630144
0.000617771
0.000604773
0.000591222
0.000577664
0.000564044
0.00055011
0.000535646
0.000520704
0.000505178
0.000489348
0.000473008
0.000455666
0.000437497
0.000418056
0.000397043
0.000373851
0.000347863
0.000317868
0.00028261
0.000240459
0.000193742
0.000141348
8.27314e-05
4.08355e-05
3.08965e-05
3.051e-05
3.05198e-05
3.04933e-05
3.03981e-05
3.04442e-05
3.04748e-05
3.02004e-05
2.93245e-05
2.95962e-05
3.12316e-05
3.1867e-05
3.18858e-05
3.18863e-05
3.18865e-05
3.18865e-05
3.18865e-05
0.000579407
0.000627047
0.000667085
0.000700086
0.000725819
0.000743927
0.000754177
0.000757535
0.000755684
0.000750261
0.000742565
0.000733524
0.00072391
0.000713912
0.0007035
0.00069238
0.000680507
0.000668305
0.000656053
0.000643728
0.000631349
0.000619018
0.00060657
0.000593488
0.000579857
0.000566204
0.000552461
0.000538382
0.000523753
0.00050862
0.000492866
0.000476747
0.000460052
0.000442275
0.000423542
0.000403291
0.000381189
0.00035653
0.000328501
0.00029567
0.000256951
0.000212054
0.000163438
0.000106304
5.49478e-05
3.26225e-05
3.05371e-05
3.0534e-05
3.05075e-05
3.0444e-05
3.03828e-05
3.04527e-05
3.04307e-05
2.98771e-05
2.9329e-05
2.99911e-05
3.16711e-05
3.18816e-05
3.18862e-05
3.18865e-05
3.18865e-05
3.18865e-05
3.18865e-05
0.000579522
0.000626975
0.000666882
0.00069968
0.000725332
0.000743413
0.000754015
0.000757822
0.000756318
0.000751159
0.000743548
0.000734373
0.000724308
0.000714016
0.000703564
0.00069285
0.000681536
0.000669564
0.000657309
0.000645041
0.00063271
0.000620301
0.000607896
0.000595353
0.000582183
0.000568467
0.000554706
0.000540826
0.000526587
0.000511776
0.000496427
0.000480418
0.00046397
0.000446865
0.000428581
0.000409141
0.000387918
0.000364525
0.000338096
0.000307587
0.000271484
0.000229539
0.000182957
0.000130612
7.36423e-05
3.79567e-05
3.07353e-05
3.05353e-05
3.05269e-05
3.04572e-05
3.03961e-05
3.04092e-05
3.04873e-05
3.03804e-05
2.95381e-05
2.93745e-05
3.08445e-05
3.18391e-05
3.18853e-05
3.18863e-05
3.18865e-05
3.18865e-05
3.18865e-05
3.18865e-05
0.000579689
0.000627008
0.000666757
0.000699441
0.000724911
0.000742909
0.000753526
0.0007577
0.000756666
0.000751852
0.000744503
0.000735397
0.000725202
0.000714463
0.00070373
0.00069299
0.00068208
0.000670653
0.000658622
0.000646347
0.000634076
0.000621722
0.000609253
0.000596755
0.000584112
0.000570851
0.000557038
0.000543159
0.000529129
0.00051471
0.000499694
0.000484106
0.000467804
0.000450982
0.000433404
0.000414501
0.000394191
0.000371814
0.00034687
0.000318284
0.000284824
0.000245287
0.000201107
0.000152319
9.61326e-05
4.87974e-05
3.18029e-05
3.05448e-05
3.05355e-05
3.04799e-05
3.03929e-05
3.03701e-05
3.04286e-05
3.04644e-05
2.99986e-05
2.94053e-05
2.97822e-05
3.14762e-05
3.18774e-05
3.18862e-05
3.18865e-05
3.18865e-05
3.18865e-05
3.18865e-05
3.18865e-05
0.000579949
0.00062711
0.000666745
0.000699295
0.000724664
0.000742487
0.000753008
0.000757248
0.000756585
0.00075226
0.000745249
0.000736403
0.000726264
0.000715402
0.000704227
0.000693219
0.000682297
0.000671265
0.000659767
0.000647709
0.000635429
0.000623141
0.000610732
0.000598185
0.000585591
0.000572845
0.000559482
0.000545564
0.00053155
0.00051735
0.000502734
0.00048749
0.00047163
0.000454994
0.000437745
0.000419606
0.000399924
0.000378576
0.000354818
0.00032799
0.000296793
0.000260035
0.000217589
0.000171729
0.000118763
6.50688e-05
3.5372e-05
3.06315e-05
3.05303e-05
3.0498e-05
3.03997e-05
3.03246e-05
3.034e-05
3.04355e-05
3.02848e-05
2.97815e-05
2.93696e-05
3.04557e-05
3.17846e-05
3.18848e-05
3.18863e-05
3.18865e-05
3.18865e-05
3.18865e-05
3.18865e-05
3.18865e-05
0.000580211
0.000627319
0.000666816
0.000699268
0.000724521
0.000742254
0.000752607
0.000756732
0.000756182
0.000752224
0.000745713
0.000737198
0.000727314
0.000716497
0.000705204
0.000693759
0.000682584
0.000671553
0.000660445
0.000648906
0.000636837
0.000624539
0.000612201
0.000599722
0.000587092
0.000574399
0.000561541
0.000548068
0.000534031
0.000519866
0.000505479
0.00049064
0.000475136
0.000458968
0.000441951
0.000424208
0.000405374
0.000384745
0.000362157
0.000336732
0.000307609
0.00027336
0.000233388
0.000189165
0.00014017
8.5168e-05
4.32766e-05
3.12077e-05
3.05369e-05
3.05093e-05
3.0427e-05
3.03415e-05
3.03117e-05
3.03641e-05
3.04243e-05
3.02973e-05
2.95019e-05
2.97275e-05
3.12571e-05
3.18719e-05
3.18861e-05
3.18865e-05
3.18865e-05
3.18865e-05
3.18865e-05
3.18865e-05
3.18865e-05
0.000580477
0.00062754
0.000667004
0.000699341
0.000724504
0.000742141
0.000752409
0.00075636
0.000755701
0.000751869
0.000745723
0.000737715
0.000728155
0.000717585
0.00070633
0.000694769
0.00068317
0.0006719
0.000660805
0.000649652
0.000638085
0.000625992
0.000613647
0.000601245
0.00058869
0.000575976
0.00056317
0.000550193
0.000536598
0.000522426
0.00050809
0.000493493
0.000478404
0.000462608
0.000446086
0.000428631
0.000410289
0.000390597
0.000368839
0.000344763
0.000317301
0.000285419
0.0002479
0.000205577
0.000159504
0.000105753
5.68109e-05
3.3335e-05
3.05909e-05
3.05262e-05
3.0466e-05
3.0376e-05
3.03366e-05
3.0318e-05
3.03892e-05
3.0447e-05
2.99826e-05
2.95171e-05
3.01942e-05
3.17171e-05
3.18841e-05
3.18864e-05
3.18865e-05
3.18865e-05
3.18865e-05
3.18865e-05
3.18865e-05
3.18865e-05
0.000580673
0.0006278
0.000667217
0.000699541
0.000724608
0.000742162
0.000752337
0.000756196
0.000755366
0.00075143
0.00074542
0.000737773
0.000728723
0.000718468
0.000707455
0.000695925
0.000684217
0.000672534
0.000661219
0.000650083
0.000638894
0.000627286
0.00061514
0.000602736
0.000590265
0.00057763
0.000564818
0.000551895
0.000538788
0.000525058
0.000510733
0.000496207
0.000481371
0.000466
0.000449872
0.000432947
0.000414971
0.000395875
0.000375157
0.000352056
0.00032617
0.000296233
0.000261221
0.000220806
0.000176941
0.000127175
7.34437e-05
3.87804e-05
3.08588e-05
3.05497e-05
3.04976e-05
3.04113e-05
3.03594e-05
3.03336e-05
3.03393e-05
3.0403e-05
3.03838e-05
2.9655e-05
2.95185e-05
3.1053e-05
3.18611e-05
3.1886e-05
3.18865e-05
3.18865e-05
3.18865e-05
3.18865e-05
3.18865e-05
3.18865e-05
3.18865e-05
0.000580835
0.000627985
0.000667494
0.000699769
0.000724839
0.000742307
0.000752404
0.000756173
0.000755232
0.000751137
0.000745029
0.000737523
0.000728828
0.000719087
0.000708376
0.000697086
0.000685396
0.000673611
0.000661892
0.000650556
0.000639394
0.000628151
0.000616477
0.000604268
0.000591803
0.000579259
0.000566534
0.000553617
0.000540564
0.000527312
0.000513434
0.00049894
0.000484196
0.00046909
0.0004534
0.000436887