/*--------------------------------*- C++ -*----------------------------------*\
| =========                 |                                                 |
| \\      /  F ield         | OpenFOAM: The Open Source CFD Toolbox           |
|  \\    /   O peration     | Version:  v2012                                 |
|   \\  /    A nd           | Website:  www.openfoam.com                      |
|    \\/     M anipulation  |                                                 |
\*---------------------------------------------------------------------------*/
FoamFile
{
    version     2.0;
    format      ascii;
    class       volScalarField;
    location    "13200";
    object      nut;
}
// * * * * * * * * * * * * * * * * * * * * * * * * * * * * * * * * * * * * * //

dimensions      [0 2 -1 0 0 0 0];


internalField   nonuniform List<scalar> 
39402
(
2.08345e-06
6.92157e-08
1.76355e-06
2.03629e-08
7.15236e-08
1.12483e-06
1.89497e-08
1.98045e-08
8.62611e-08
6.63718e-07
2.16112e-08
4.25273e-08
2.22826e-08
1.17506e-07
4.38639e-07
2.43596e-08
7.0955e-08
4.60882e-07
3.77089e-08
1.669e-07
3.49786e-07
2.6191e-08
9.03281e-08
9.11462e-07
2.86989e-06
8.72094e-08
2.25472e-07
3.12735e-07
2.73551e-08
1.03178e-07
1.20391e-06
5.71308e-06
1.07689e-05
1.95848e-07
2.80758e-07
2.9708e-07
2.77581e-08
1.10819e-07
1.39629e-06
7.53864e-06
2.12876e-05
2.88832e-05
3.80203e-07
3.23622e-07
2.90442e-07
2.77347e-08
1.13956e-07
1.51042e-06
8.72375e-06
2.79108e-05
5.6446e-05
6.09699e-05
6.37973e-07
3.50587e-07
2.87714e-07
2.74551e-08
1.14546e-07
1.55873e-06
9.42731e-06
3.21185e-05
7.32927e-05
0.000117597
0.000107652
9.08375e-07
3.62931e-07
2.87655e-07
2.70302e-08
1.13639e-07
1.57011e-06
9.72611e-06
3.45949e-05
8.36666e-05
0.00015106
0.000205241
0.000163928
1.1651e-06
3.65237e-07
2.83709e-07
2.65271e-08
1.11966e-07
1.55967e-06
9.80043e-06
3.56447e-05
8.96611e-05
0.000170944
0.000261328
0.000314219
0.000216854
1.42966e-06
3.62838e-07
2.78902e-07
2.59725e-08
1.0982e-07
1.53795e-06
9.74137e-06
3.59129e-05
9.21858e-05
0.000182145
0.000293578
0.000398316
0.000418132
0.000272265
1.69989e-06
3.5436e-07
2.76495e-07
2.54254e-08
1.07328e-07
1.50906e-06
9.61292e-06
3.57185e-05
9.28377e-05
0.000186826
0.000311276
0.000445499
0.000537271
0.000527727
0.000328909
1.99611e-06
3.39224e-07
2.7549e-07
2.49e-08
1.04903e-07
1.47454e-06
9.43779e-06
3.52823e-05
9.23956e-05
0.000188048
0.000318656
0.00047086
0.000603032
0.000686186
0.000641984
0.000387164
2.41308e-06
3.21233e-07
2.75078e-07
2.43857e-08
1.02529e-07
1.44085e-06
9.22749e-06
3.46805e-05
9.13861e-05
0.000187273
0.000320612
0.000481519
0.00063768
0.000774609
0.000845241
0.000760863
0.000455892
2.90509e-06
3.04347e-07
2.74904e-07
2.38783e-08
1.00165e-07
1.40751e-06
9.0206e-06
3.39537e-05
8.99747e-05
0.000185494
0.000319539
0.000484502
0.000652713
0.000821808
0.000961313
0.00101236
0.00088934
0.000555047
3.06421e-06
2.90732e-07
2.74829e-07
2.33702e-08
9.78308e-08
1.37392e-06
8.81443e-06
3.32312e-05
8.82652e-05
0.000182981
0.000316961
0.000483331
0.000657464
0.000842569
0.00102467
0.00116121
0.00118678
0.00103246
0.0006706
2.97307e-06
2.80807e-07
2.74777e-07
2.28369e-08
9.5462e-08
1.34073e-06
8.60566e-06
3.25079e-05
8.65556e-05
0.000179922
0.000313262
0.000480116
0.000657242
0.000850361
0.00105308
0.00124461
0.00137055
0.00135463
0.0011395
0.000725963
2.56929e-06
2.7418e-07
2.74698e-07
2.23697e-08
9.29306e-08
1.30686e-06
8.39865e-06
3.1772e-05
8.48293e-05
0.000176844
0.000308752
0.000475389
0.000654415
0.000851319
0.00106553
0.00128378
0.00147739
0.00158086
0.00151184
0.00122358
0.000752056
1.95724e-06
2.69843e-07
2.74642e-07
2.19781e-08
9.08005e-08
1.27077e-06
8.18738e-06
3.10385e-05
8.30653e-05
0.000173718
0.000304177
0.000469562
0.000649801
0.000848849
0.0010685
0.00130262
0.00153164
0.00171822
0.00178798
0.0016522
0.00128397
0.000737394
1.33486e-06
2.67275e-07
2.74456e-07
2.15121e-08
8.90119e-08
1.24029e-06
7.96286e-06
3.02886e-05
8.12973e-05
0.000170506
0.000299506
0.000463616
0.000643871
0.00084407
0.0010669
0.00130889
0.00155893
0.00179314
0.00196312
0.00198471
0.00176838
0.00132113
0.000677268
8.50925e-07
2.65792e-07
2.74195e-07
2.1105e-08
8.67755e-08
1.2145e-06
7.77168e-06
2.94939e-05
7.94855e-05
0.00016727
0.000294677
0.0004575
0.000637756
0.000837604
0.00106232
0.00130909
0.00157036
0.00183237
0.00206402
0.00220515
0.00216215
0.00185407
0.00133988
0.000574792
5.51782e-07
2.65029e-07
2.7397e-07
2.07109e-08
8.49155e-08
1.18238e-06
7.60812e-06
2.88122e-05
7.75675e-05
0.00016394
0.000289792
0.000451141
0.000631394
0.000830803
0.0010556
0.00130535
0.00157381
0.00185151
0.00211984
0.00233872
0.00243558
0.00231077
0.00190462
0.0013491
0.000441619
3.91989e-07
2.6458e-07
2.7388e-07
2.03398e-08
8.30721e-08
1.15583e-06
7.40774e-06
2.82219e-05
7.59108e-05
0.000160421
0.00028474
0.000444669
0.000624693
0.00082364
0.0010483
0.00129888
0.00157202
0.00186002
0.00215002
0.00241673
0.00260962
0.00264453
0.00242094
0.00191671
0.0013484
0.000298151
3.16208e-07
2.64165e-07
2.73935e-07
1.9974e-08
8.13543e-08
1.12931e-06
7.24076e-06
2.75079e-05
7.44583e-05
0.000157361
0.00027941
0.000437947
0.000617812
0.000816004
0.00104043
0.0012915
0.00156678
0.00186164
0.00216614
0.00246231
0.00271687
0.0028683
0.0028214
0.00248514
0.00189067
0.00123624
0.000170896
2.80787e-07
2.63787e-07
2.74033e-07
1.96357e-08
7.96591e-08
1.10477e-06
7.07436e-06
2.6908e-05
7.2717e-05
0.000154644
0.000274752
0.000430861
0.000610594
0.00080803
0.00103192
0.00128327
0.00156011
0.00185873
0.00217314
0.00248926
0.00278344
0.00301302
0.00310449
0.00295605
0.00249813
0.00183367
0.00102019
8.14078e-05
2.65163e-07
2.63431e-07
2.74116e-07
1.92951e-08
7.81122e-08
1.08064e-06
6.92037e-06
2.63112e-05
7.12439e-05
0.00015141
0.000270564
0.000424655
0.000602968
0.000799592
0.00102294
0.00127414
0.00155217
0.00185364
0.00217416
0.0025043
0.00282558
0.00310729
0.00329626
0.00330729
0.00303847
0.00246116
0.00176394
0.000763338
3.29398e-05
2.58273e-07
2.64192e-07
2.74181e-07
1.89863e-08
7.65249e-08
1.05871e-06
6.76941e-06
2.57574e-05
6.9776e-05
0.000148652
0.000265605
0.000419002
0.000596358
0.0007907
0.0010133
0.00126438
0.00154297
0.00184681
0.00217198
0.00251153
0.00285206
0.00317017
0.00342656
0.00355659
0.00346518
0.00306111
0.00237999
0.00168563
0.000498979
1.19995e-05
2.55894e-07
2.59139e-07
2.74227e-07
1.86804e-08
7.51063e-08
1.03622e-06
6.63216e-06
2.52154e-05
6.84109e-05
0.000145903
0.000261355
0.000412333
0.000590231
0.00078298
0.0010031
0.00125376
0.00153286
0.00183822
0.00216738
0.00251394
0.0028681
0.00321255
0.00351683
0.00373234
0.00378239
0.00356638
0.00302161
0.00226513
0.00144884
0.000273881
4.20139e-06
2.51978e-07
2.56966e-07
2.7427e-07
1.84261e-08
7.36988e-08
1.01619e-06
6.49226e-06
2.47211e-05
6.70735e-05
0.000143336
0.000257104
0.000406593
0.000582951
0.000775761
0.000994202
0.00124235
0.0015216
0.00182835
0.00216035
0.00251292
0.00287742
0.00324076
0.00358024
0.00385799
0.0040142
0.00396107
0.00360148
0.00292307
0.00213284
0.00110734
0.000125482
1.51274e-06
2.49107e-07
2.56107e-07
2.74287e-07
1.81576e-08
7.25534e-08
9.96428e-07
6.36758e-06
2.42203e-05
6.58518e-05
0.000140819
0.000253122
0.000400835
0.000576722
0.000767162
0.000985901
0.00123245
0.00150935
0.00181694
0.00215145
0.00250871
0.0028819
0.0032599
0.00362527
0.0039493
0.00418466
0.00426033
0.00407976
0.00356492
0.00277688
0.00199391
0.000744534
5.05268e-05
6.38667e-07
2.47362e-07
2.5577e-07
2.74271e-07
1.78788e-08
7.13145e-08
9.80493e-07
6.24542e-06
2.37733e-05
6.46143e-05
0.000138512
0.000249216
0.000395431
0.000570431
0.000759771
0.000975874
0.00122313
0.00149874
0.00180427
0.00214049
0.00250187
0.00288225
0.00327249
0.00365805
0.0040164
0.00431142
0.00448573
0.0044568
0.00412729
0.0034575
0.00260045
0.00171956
0.00042145
1.90591e-05
3.63287e-07
2.46286e-07
2.55612e-07
2.74219e-07
1.76323e-08
7.00333e-08
9.63293e-07
6.14638e-06
2.33367e-05
6.35087e-05
0.000136172
0.00024562
0.000390123
0.000564525
0.000752276
0.000967243
0.00121178
0.00148868
0.00179337
0.00212802
0.00249231
0.00287893
0.00327936
0.00368165
0.00406717
0.00440725
0.00465728
0.00474873
0.00459009
0.0040942
0.00328928
0.0024215
0.00129402
0.000198022
6.80388e-06
2.76885e-07
2.4563e-07
2.55557e-07
2.74148e-07
1.74144e-08
6.89339e-08
9.45673e-07
6.04102e-06
2.29815e-05
6.243e-05
0.000134078
0.000241971
0.000385228
0.000558727
0.000745234
0.00095849
0.00120199
0.00147623
0.00178288
0.00211729
0.00248078
0.00287201
0.00328142
0.00369759
0.00410572
0.00448137
0.00478942
0.00497525
0.00495944
0.00464595
0.00397957
0.00307998
0.00223823
0.000851935
8.19893e-05
2.36542e-06
2.49636e-07
2.45364e-07
2.55494e-07
2.74053e-07
1.72235e-08
6.79603e-08
9.30729e-07
5.93375e-06
2.26065e-05
6.15486e-05
0.000132037
0.000238693
0.000380233
0.000553395
0.000738311
0.000950237
0.00119205
0.00146543
0.00176954
0.00210674
0.00247088
0.00286253
0.00327876
0.00370711
0.00413406
0.00453927
0.00489345
0.00515295
0.00525266
0.00510268
0.00461372
0.00379008
0.00285386
0.00182079
0.000469867
3.18992e-05
8.84779e-07
2.4091e-07
2.45359e-07
2.55383e-07
2.78304e-07
1.70344e-08
6.71075e-08
9.17552e-07
5.84315e-06
2.22269e-05
6.06225e-05
0.000130361
0.000235502
0.000375736
0.000547149
0.000731924
0.00094214
0.00118262
0.00145446
0.00175796
0.00209304
0.00246109
0.00285439
0.00327263
0.00371074
0.00415391
0.00458413
0.00497646
0.00529484
0.00548621
0.00547409
0.0051629
0.00448925
0.00354498
0.00262949
0.00130945
0.000220103
1.1851e-05
4.21485e-07
2.38211e-07
2.45599e-07
2.58484e-07
2.86643e-07
1.68244e-08
6.62727e-08
9.06039e-07
5.76363e-06
2.19076e-05
5.96914e-05
0.000128603
0.000232869
0.000371366
0.000541511
0.00072534
0.000934631
0.00117336
0.00144408
0.00174624
0.0020811
0.00244756
0.00284602
0.00326746
0.00370983
0.00416618
0.00461789
0.00504237
0.00540963
0.00567463
0.00577473
0.0056235
0.00512794
0.00427887
0.00327367
0.00231424
0.000811003
9.24498e-05
4.17302e-06
2.83512e-07
2.37469e-07
2.48043e-07
2.65772e-07
2.84685e-07
1.66088e-08
6.53241e-08
8.9506e-07
5.69443e-06
2.16281e-05
5.89092e-05
0.000126848
0.000230113
0.000367748
0.000536051
0.000719401
0.000927096
0.00116483
0.00143375
0.00173502
0.00206886
0.00243567
0.00283346
0.00326163
0.00370903
0.00417253
0.00464196
0.00509445
0.00550256
0.00582878
0.00602049
0.00600353
0.00568337
0.00499122
0.00400266
0.00301529
0.00175715
0.000422419
3.65268e-05
1.46861e-06
2.44678e-07
2.38865e-07
2.54192e-07
2.65938e-07
2.84438e-07
1.64387e-08
6.43659e-08
8.82572e-07
5.62958e-06
2.13857e-05
5.82257e-05
0.000125376
0.000227371
0.000363958
0.000531513
0.000713627
0.000920254
0.00115622
0.00142418
0.00172386
0.00205709
0.00242337
0.00282229
0.00325096
0.00370713
0.00417803
0.00465842
0.00513392
0.00557746
0.00595558
0.0062233
0.0063172
0.00615386
0.00564033
0.00475802
0.00369482
0.00275604
0.001181
0.000192972
1.38672e-05
5.9212e-07
2.35439e-07
2.43367e-07
2.58078e-07
2.65929e-07
2.84331e-07
1.63162e-08
6.36526e-08
8.70053e-07
5.55628e-06
2.11612e-05
5.76354e-05
0.00012409
0.000225084
0.000360211
0.00052675
0.000708857
0.000913632
0.00114842
0.00141453
0.00171345
0.00204538
0.00241153
0.00281074
0.00324155
0.00370005
0.00418165
0.00467267
0.00516358
0.00563697
0.00605966
0.00639165
0.00657881
0.00654861
0.00620839
0.00548599
0.00444886
0.00339688
0.00217125
0.00067564
8.17881e-05
4.9525e-06
3.2745e-07
2.3604e-07
2.47487e-07
2.54472e-07
2.65861e-07
2.84251e-07
1.61914e-08
6.31478e-08
8.61047e-07
5.48317e-06
2.09089e-05
5.70912e-05
0.000122985
0.000223088
0.000357098
0.000522073
0.000703817
0.00090827
0.00114098
0.00140592
0.00170301
0.00203441
0.00239957
0.0027993
0.00323147
0.00369345
0.00417983
0.00468376
0.00518963
0.005684
0.00614439
0.00653165
0.0067984
0.00688048
0.00669507
0.00615074
0.00522512
0.00409993
0.00309884
0.00153037
0.000332077
3.26869e-05
1.7325e-06
2.55478e-07
2.38997e-07
2.4674e-07
2.53328e-07
2.6571e-07
2.84191e-07
1.6042e-08
6.26042e-08
8.54837e-07
5.43166e-06
2.06587e-05
5.64832e-05
0.000121967
0.000221378
0.000354388
0.000518212
0.000698931
0.000902472
0.00113486
0.0013977
0.00169376
0.00202345
0.00238841
0.00278751
0.00322117
0.00368574
0.00417756
0.00468906
0.0052109
0.0057248
0.00621372
0.00664784
0.00698282
0.00716123
0.0071099
0.0067371
0.00597255
0.00487889
0.00375865
0.00254361
0.00093321
0.000149496
1.23917e-05
6.73831e-07
2.39223e-07
2.39259e-07
2.46001e-07
2.53081e-07
2.65453e-07
2.84145e-07
1.58925e-08
6.19412e-08
8.48128e-07
5.39702e-06
2.04857e-05
5.58846e-05
0.000120835
0.000219797
0.000352073
0.000514861
0.000694965
0.000896858
0.00112829
0.00139094
0.0016848
0.00201369
0.00237727
0.00277678
0.00321048
0.00367768
0.0041736
0.00469278
0.00522509
0.00575932
0.00627362
0.00674486
0.0071376
0.00739934
0.0074636
0.00724632
0.00665812
0.00567814
0.00448765
0.00342582
0.00184519
0.00048719
6.33149e-05
4.43152e-06
3.52821e-07
2.35261e-07
2.38931e-07
2.46088e-07
2.53059e-07
2.65665e-07
2.84115e-07
1.57501e-08
6.13031e-08
8.39829e-07
5.35969e-06
2.03725e-05
5.54788e-05
0.000119732
0.000218053
0.000349934
0.000512014
0.000691515
0.00089239
0.00112189
0.00138366
0.00167764
0.00200428
0.0023673
0.00276583
0.00320062
0.00366906
0.00416876
0.00469396
0.00523576
0.0057836
0.00632427
0.00682901
0.00726861
0.00760135
0.00776613
0.0076859
0.00726868
0.00644848
0.00529113
0.00410527
0.0028739
0.00117238
0.000228639
2.51469e-05
1.56669e-06
2.62215e-07
2.33752e-07
2.3898e-07
2.46709e-07
2.53537e-07
2.75048e-07
2.84101e-07
1.56139e-08
6.06958e-08
8.3212e-07
5.31379e-06
2.02501e-05
5.52206e-05
0.000118997
0.00021637
0.000347578
0.000509377
0.000688644
0.000888555
0.00111691
0.00137656
0.00166986
0.00199681
0.00235776
0.00275602
0.00319045
0.00366066
0.00416303
0.00469357
0.00524272
0.00580056
0.00635532
0.00689876
0.00738262
0.00777437
0.00802535
0.00806477
0.00780541
0.00716042
0.00611387
0.00485623
0.00373831
0.00211704
0.000639666
0.000100954
9.3852e-06
6.2294e-07
2.37923e-07
2.33246e-07
2.39608e-07
2.49077e-07
2.61643e-07
2.72692e-07
2.84093e-07
1.54995e-08
6.0112e-08
8.24758e-07
5.27174e-06
2.01004e-05
5.49397e-05
0.000118544
0.000215274
0.000345332
0.00050648
0.000685981
0.000885319
0.00111274
0.00137107
0.00166221
0.00198853
0.00235015
0.00274658
0.00318121
0.00365183
0.0041569
0.00469121
0.00524718
0.00581116
0.00638292
0.00694518
0.00748082
0.00792539
0.00824907
0.00839209
0.008274
0.00780169
0.00691055
0.00568141
0.00443542
0.00316435
0.00137703
0.000310256
4.17657e-05
3.33024e-06
3.35814e-07
2.31547e-07
2.33456e-07
2.41618e-07
2.51777e-07
2.60729e-07
2.72322e-07
2.84088e-07
1.54225e-08
5.96425e-08
8.17728e-07
5.23176e-06
1.99652e-05
5.45958e-05
0.000118046
0.000214623
0.000343915
0.00050376
0.000683037
0.000882389
0.0011092
0.00136659
0.00165643
0.00198056
0.00234173
0.00273913
0.00317242
0.00364389
0.00415021
0.00468777
0.00524776
0.00581923
0.00640351
0.00698755
0.00754857
0.00805715
0.00844437
0.00867663
0.00868184
0.00837042
0.00765393
0.00652905
0.00520211
0.00403425
0.0023469
0.00077366
0.000140773
1.60767e-05
1.20095e-06
2.5492e-07
2.2999e-07
2.34986e-07
2.44524e-07
2.52041e-07
2.59939e-07
2.72129e-07
2.84085e-07
1.5368e-08
5.93621e-08
8.12329e-07
5.19392e-06
1.98374e-05
5.42902e-05
0.000117436
0.000213892
0.000343104
0.000502104
0.000680362
0.0008791
0.00110597
0.00136289
0.00165168
0.00197464
0.00233353
0.00273097
0.00316581
0.00363658
0.00414445
0.00468378
0.00524709
0.00582471
0.00642042
0.00702108
0.00760974
0.00815841
0.00861559
0.00892513
0.00903859
0.00887148
0.00833025
0.00735599
0.00604645
0.00474427
0.00340954
0.00154574
0.000383024
5.99364e-05
5.82851e-06
5.09375e-07
2.33719e-07
2.30476e-07
2.37575e-07
2.46102e-07
2.51909e-07
2.59977e-07
2.72019e-07
2.84084e-07
1.53022e-08
5.91798e-08
8.09503e-07
5.16622e-06
1.97183e-05
5.40034e-05
0.0001169
0.000212996
0.000342176
0.00050121
0.000678894
0.000876242
0.00110235
0.00135948
0.00164785
0.0019698
0.00232755
0.00272286
0.00315818
0.00363129
0.00413907
0.00468046
0.00524461
0.0058294
0.00643377
0.00704949
0.00765984
0.00824324
0.00876493
0.00914348
0.00935132
0.00931323
0.00893598
0.00813474
0.00691775
0.00552164
0.00430794
0.00252837
0.000882853
0.000176863
2.36463e-05
2.05756e-06
3.01717e-07
2.29187e-07
2.32265e-07
2.39546e-07
2.47373e-07
2.52342e-07
2.64801e-07
2.7197e-07
2.84083e-07
1.52109e-08
5.89177e-08
8.08035e-07
5.15377e-06
1.96353e-05
5.37405e-05
0.000116404
0.000212222
0.00034103
0.000500154
0.00067822
0.000874772
0.00109917
0.00135557
0.00164438
0.00196595
0.00232298
0.00271719
0.00315053
0.00362479
0.00413562
0.00467705
0.00524288
0.00583166
0.00644551
0.00707305
0.00770301
0.00831432
0.00887994
0.00934128
0.00962608
0.00970136
0.00947556
0.00884977
0.007777
0.00637906
0.00502967
0.00360333
0.00166894
0.000443138
7.67345e-05
8.71491e-06
7.808e-07
2.4471e-07
2.29394e-07
2.33912e-07
2.41193e-07
2.4674e-07
2.56728e-07
2.63741e-07
2.71949e-07
2.84083e-07
1.50905e-08
5.85146e-08
8.0539e-07
5.14954e-06
1.96058e-05
5.35697e-05
0.000115959
0.000211514
0.00034006
0.000498832
0.000677296
0.000874224
0.00109778
0.00135213
0.00164034
0.00196253
0.00231951
0.00271305
0.00314558
0.00361812
0.00413106
0.00467576
0.00524091
0.00583432
0.0064541
0.00709403
0.00773971
0.0083762
0.00897732
0.00950953
0.00987618
0.0100442
0.00995214
0.00949775
0.00859442
0.00727437
0.00581216
0.0045569
0.00265448
0.000958143
0.000206813
3.07974e-05
3.07488e-06
3.80457e-07
2.31214e-07
2.30458e-07
2.35454e-07
2.41601e-07
2.49909e-07
2.55727e-07
2.6335e-07
2.71938e-07
2.84082e-07
1.49691e-08
5.79489e-08
8.00799e-07
5.13831e-06
1.96048e-05
5.35308e-05
0.000115695
0.000210899
0.00033919
0.000497743
0.000676045
0.000873312
0.0010974
0.00135089
0.00163683
0.0019585
0.00231626
0.00271028
0.00314228
0.0036141
0.00412577
0.00467306
0.00524171
0.00583641
0.00646256
0.00711083
0.00777249
0.00842959
0.00906267
0.0096395
0.0100988
0.0103556
0.0103749
0.0100767
0.00935481
0.00816817
0.00667734
0.00529348
0.00374236
0.00173944
0.000483261
9.07101e-05
1.1487e-05
1.11159e-06
2.65532e-07
2.28929e-07
2.31449e-07
2.36115e-07
2.44716e-07
2.50478e-07
2.56055e-07
2.63161e-07
2.71934e-07
2.84082e-07
1.48551e-08
5.74071e-08
7.93918e-07
5.1156e-06
1.95797e-05
5.35589e-05
0.000115684
0.00021058
0.000338462
0.000496792
0.000675133
0.000872157
0.00109666
0.00135085
0.00163595
0.00195518
0.00231237
0.00270783
0.0031405
0.00361223
0.0041233
0.00466983
0.00523983
0.0058412
0.00647001
0.00712687
0.00779992
0.0084774
0.00913706
0.00975404
0.0102891
0.010635
0.010759
0.0105934
0.0100451
0.00903037
0.00759765
0.00607282
0.00478406
0.00272327
0.000993921
0.000226238
3.67061e-05
4.06086e-06
4.80037e-07
2.35735e-07
2.29079e-07
2.3166e-07
2.38885e-07
2.47605e-07
2.51305e-07
2.57754e-07
2.63088e-07
2.71932e-07
2.84082e-07
1.47607e-08
5.69221e-08
7.87304e-07
5.079e-06
1.95148e-05
5.35272e-05
0.00011579
0.000210658
0.000338162
0.000496042
0.000674424
0.000871282
0.00109555
0.00135038
0.00163649
0.00195466
0.00230938
0.00270437
0.00313911
0.00361197
0.00412314
0.0046695
0.00523771
0.00584277
0.00648
0.00714128
0.00782568
0.00851835
0.00920377
0.0098546
0.0104396
0.0108861
0.0111038
0.0110632
0.0106681
0.00983306
0.00852945
0.00694749
0.005532
0.00382429
0.0017596
0.000500597
9.94673e-05
1.37386e-05
1.43446e-06
2.92854e-07
2.29145e-07
2.29104e-07
2.33872e-07
2.42126e-07
2.46981e-07
2.52681e-07
2.57003e-07
2.63061e-07
2.71932e-07
2.84082e-07
1.46909e-08
5.65381e-08
7.81453e-07
5.04336e-06
1.94001e-05
5.33984e-05
0.000115781
0.000210911
0.000338414
0.000495855
0.000673976
0.00087063
0.00109477
0.00134923
0.00163629
0.00195583
0.00230957
0.00270169
0.00313645
0.00361166
0.00412461
0.00467107
0.00523915
0.00584382
0.00648614
0.00715797
0.00784903
0.00855648
0.00926177
0.00994486
0.0105724
0.0111036
0.0114171
0.0114835
0.0112381
0.0105702
0.0094273
0.00789003
0.00631738
0.00496724
0.00273528
0.000992551
0.000234322
4.02558e-05
4.8485e-06
5.77836e-07
2.42198e-07
2.27741e-07
2.3065e-07
2.36736e-07
2.42854e-07
2.48713e-07
2.51238e-07
2.56654e-07
2.63051e-07
2.71932e-07
2.84082e-07
1.46464e-08
5.62767e-08
7.77045e-07
5.01203e-06
1.92871e-05
5.31466e-05
0.000115587
0.000210968
0.000338878
0.000496368
0.000674144
0.000870402
0.00109428
0.00134874
0.00163532
0.00195618
0.00231159
0.00270289
0.00313442
0.00360997
0.0041256
0.00467409
0.00524224
0.00584857
0.00649138
0.00717
0.00787422
0.00859119
0.00931548
0.0100242
0.0106918
0.0112781
0.0116992
0.0118665
0.0117485
0.0112523
0.0102745
0.00884071
0.00718925
0.00574307
0.00384248
0.0017318
0.000496665
0.000102728
1.50345e-05
1.69088e-06
3.20019e-07
2.29573e-07
2.28524e-07
2.32626e-07
2.37979e-07
2.45397e-07
2.48405e-07
2.53106e-07
2.56527e-07
2.63048e-07
2.71932e-07
2.84082e-07
1.4623e-08
5.61408e-08
7.74272e-07
4.98959e-06
1.91895e-05
5.28964e-05
0.00011516
0.000210738
0.000339062
0.000497122
0.0006751
0.000870906
0.00109428
0.00134858
0.00163521
0.00195589
0.00231283
0.0027062
0.00313661
0.00360917
0.00412521
0.00467625
0.00524716
0.0058549
0.00650036
0.00718066
0.00789383
0.00862708
0.00936447
0.0100973
0.0107976
0.0114332
0.0119482
0.0122161
0.0122131
0.0118663
0.0110744
0.00977397
0.00812595
0.00652936
0.00499838
0.00268643
0.000958123
0.000231734
4.1297e-05
5.2827e-06
6.54823e-07
2.484e-07
2.27518e-07
2.30022e-07
2.3373e-07
2.40736e-07
2.45029e-07
2.49934e-07
2.52008e-07
2.56489e-07
2.63047e-07
2.71932e-07
2.84082e-07
1.45955e-08
5.61093e-08
7.73328e-07
4.97664e-06
1.91228e-05
5.26847e-05
0.000114736
0.000210138
0.000338839
0.000497495
0.000676232
0.000872318
0.00109527
0.00134889
0.00163556
0.00195624
0.00231323
0.00270859
0.00314136
0.00361257
0.00412591
0.00467681
0.00525172
0.00586309
0.00651082
0.00719503
0.0079114
0.00865627
0.00941375
0.0101642
0.0108949
0.0115716
0.0121548
0.0125355
0.0126378
0.0124265
0.0118029
0.0106822
0.00909425
0.00737692
0.00591132
0.00378505
0.00165616
0.000474349
0.000100636
1.52933e-05
1.82267e-06
3.40725e-07
2.30781e-07
2.28373e-07
2.30921e-07
2.36091e-07
2.41515e-07
2.47175e-07
2.47994e-07
2.51597e-07
2.56478e-07
2.63047e-07
2.71932e-07
2.84082e-07
1.45592e-08
5.60532e-08
7.73839e-07
4.97503e-06
1.90897e-05
5.25488e-05
0.000114384
0.00020955
0.000338112
0.000497335
0.000676855
0.000873939
0.00109727
0.00135049
0.0016363
0.00195696
0.00231414
0.00270962
0.00314536
0.00361901
0.00413094
0.00467854
0.0052544
0.00587071
0.00652313
0.00721071
0.00793257
0.00868263
0.009455
0.0102301
0.0109838
0.0116985
0.0123329
0.0128191
0.0130299
0.0129382
0.0124725
0.0115269
0.0100787
0.00830649
0.00669823
0.00495424
0.00257432
0.000893573
0.000219674
3.99239e-05
5.32198e-06
6.90591e-07
2.53389e-07
2.2783e-07
2.29198e-07
2.32708e-07
2.37268e-07
2.44487e-07
2.46464e-07
2.48798e-07
2.5147e-07
2.56476e-07
2.63048e-07
2.71932e-07
2.84082e-07
1.45083e-08
5.59276e-08
7.73834e-07
4.98213e-06
1.90967e-05
5.24967e-05
0.000114182
0.000209082
0.000337413
0.000496545
0.000676867
0.000874886
0.00109951
0.0013533
0.00163854
0.00195837
0.00231539
0.00271107
0.00314748
0.00362472
0.00413904
0.00468536
0.00525828
0.0058761
0.00653458
0.00722815
0.00795479
0.00871231
0.0094924
0.0102863
0.0110702
0.0118147
0.0124961
0.0130651
0.0133873
0.0134106
0.0130859
0.0123145
0.011023
0.00930802
0.00752954
0.0060374
0.00365324
0.00153771
0.000436523
9.39549e-05
1.45866e-05
1.81801e-06
3.49354e-07
2.31905e-07
2.27889e-07
2.30444e-07
2.33426e-07
2.40194e-07
2.43808e-07
2.46688e-07
2.47831e-07
2.51439e-07
2.56476e-07
2.63048e-07
2.71932e-07
2.84082e-07
1.44527e-08
5.57251e-08
7.72795e-07
4.98574e-06
1.91343e-05
5.25429e-05
0.000114135
0.000208851
0.00033689
0.00049581
0.000676142
0.000875085
0.00110085
0.00135626
0.00164234
0.0019614
0.00231769
0.00271323
0.00314975
0.00362843
0.00414618
0.00469457
0.00526769
0.00588269
0.0065434
0.00724441
0.00797862
0.00874268
0.00953266
0.0103375
0.011145
0.0119261
0.0126454
0.0132721
0.0137123
0.0138452
0.0136517
0.0130431
0.0119246
0.0103069
0.00846183
0.006833
0.00481722
0.00240371
0.000806141
0.000199645
3.66186e-05
5.01342e-06
6.84377e-07
2.55238e-07
2.27561e-07
2.28793e-07
2.30856e-07
2.35857e-07
2.41068e-07
2.45296e-07
2.45942e-07
2.47506e-07
2.51431e-07
2.56477e-07
2.63049e-07
2.71933e-07
2.84082e-07
1.43921e-08
5.54819e-08
7.70555e-07
4.98241e-06
1.91584e-05
5.26646e-05
0.000114281
0.000208868
0.000336706
0.000495327
0.000675561
0.000874425
0.00110123
0.00135811
0.00164618
0.00196623
0.0023219
0.00271667
0.00315311
0.00363236
0.00415161
0.00470217
0.00527959
0.00589526
0.00655339
0.00725753
0.00800081
0.00877437
0.00957312
0.0103909
0.0112133
0.0120239
0.0127874
0.0134617
0.0140007
0.0142474
0.0141725
0.0137163
0.0127725
0.0112958
0.00944311
0.00767004
0.00602096
0.00343421
0.00138639
0.000387435
8.37099e-05
1.31539e-05
1.70072e-06
3.46469e-07
2.31894e-07
2.27515e-07
2.29241e-07
2.32603e-07
2.37418e-07
2.43922e-07
2.45142e-07
2.44961e-07
2.47424e-07
2.51431e-07
2.56478e-07
2.6305e-07
2.71933e-07
2.84082e-07
1.43278e-08
5.51964e-08
7.67633e-07
4.97156e-06
1.91556e-05
5.27477e-05
0.00011456
0.000209185
0.000336862
0.000495277
0.00067537
0.000873945
0.00110071
0.0013588
0.00164877
0.00197137
0.00232786
0.00272234
0.00315771
0.00363708
0.00415755
0.00470871
0.00528961
0.00591042
0.00656981
0.00727175
0.00801932
0.00880392
0.00961448
0.0104438
0.0112828
0.0121132
0.0129132
0.0136407
0.0142457
0.0146139
0.014656
0.0143365
0.0135643
0.0122517
0.0104647
0.00855116
0.00693418
0.00458774
0.0021709
0.000705715
0.000173898
3.19137e-05
4.45723e-06
6.44183e-07
2.54002e-07
2.27335e-07
2.27976e-07
2.3067e-07
2.33954e-07
2.40374e-07
2.43744e-07
2.43127e-07
2.44296e-07
2.47408e-07
2.51433e-07
2.56479e-07
2.6305e-07
2.71933e-07
2.84083e-07
1.426e-08
5.48778e-08
7.64029e-07
4.95602e-06
1.91253e-05
5.27601e-05
0.000114762
0.000209707
0.00033743
0.000495662
0.000675663
0.000873953
0.00110044
0.00135844
0.00164988
0.00197482
0.00233444
0.00272983
0.0031648
0.00364271
0.00416377
0.00471663
0.00529841
0.00592336
0.00658888
0.00729283
0.00803879
0.0088291
0.00965305
0.010497
0.0113509
0.0122025
0.0130284
0.0138005
0.0144692
0.0149467
0.0151016
0.0149121
0.0142969
0.0131617
0.0114915
0.00952465
0.00775307
0.00580806
0.00314457
0.00120395
0.000332146
7.10285e-05
1.12317e-05
1.50269e-06
3.3369e-07
2.31403e-07
2.2697e-07
2.29194e-07
2.3157e-07
2.36502e-07
2.41747e-07
2.4301e-07
2.42838e-07
2.44121e-07
2.47406e-07
2.51434e-07
2.5648e-07
2.63051e-07
2.71933e-07
2.84083e-07
1.41937e-08
5.45366e-08
7.59798e-07
4.93606e-06
1.90768e-05
5.27023e-05
0.000114816
0.000210083
0.000338267
0.000496561
0.000676468
0.000874643
0.00110059
0.00135841
0.00164966
0.00197657
0.00233901
0.00273809
0.00317456
0.00365156
0.00417095
0.00472499
0.00530869
0.00593489
0.00660535
0.00731662
0.00806554
0.00885504
0.00968648
0.0105466
0.0114185
0.0122892
0.0131417
0.0139473
0.0146702
0.0152503
0.0155172
0.015444
0.0149787
0.0140138
0.0124962
0.010554
0.00862276
0.00697005
0.00427286
0.0018998
0.000596487
0.000144909
2.63793e-05
3.74066e-06
5.7925e-07
2.50169e-07
2.26734e-07
2.27867e-07
2.29852e-07
2.33283e-07
2.38367e-07
2.41244e-07
2.42167e-07
2.41646e-07
2.4409e-07
2.47408e-07
2.51436e-07
2.56482e-07
2.63052e-07
2.71934e-07
2.84083e-07
1.41342e-08
5.42036e-08
7.55179e-07
4.91163e-06
1.90117e-05
5.25957e-05
0.00011473
0.000210208
0.000338867
0.000497778
0.000677849
0.000875903
0.00110167
0.00135896
0.00164983
0.00197671
0.00234164
0.00274431
0.00318505
0.00366362
0.00418169
0.00473398
0.0053194
0.005948
0.00662018
0.00733733
0.00809496
0.00888862
0.00972035
0.0105902
0.0114816
0.0123743
0.013251
0.0140898
0.014855
0.0155023
0.0158994
0.0159441
0.0156094
0.0148128
0.0134584
0.0115991
0.00955819
0.00780584
0.00547598
0.00280226
0.00100873
0.000274431
5.72585e-05
9.06495e-06
1.25861e-06
3.14153e-07
2.29933e-07
2.26677e-07
2.28498e-07
2.31167e-07
2.34934e-07
2.39032e-07
2.41863e-07
2.41294e-07
2.41336e-07
2.44086e-07
2.4741e-07
2.51438e-07
2.56483e-07
2.63052e-07
2.71934e-07
2.84083e-07
1.40772e-08
5.38984e-08
7.50551e-07
4.88446e-06
1.89289e-05
5.24459e-05
0.00011455
0.000210113
0.000339096
0.000498651
0.000679559
0.000877837
0.00110349
0.00136047
0.00165094
0.00197708
0.00234225
0.00274772
0.00319302
0.00367632
0.00419549
0.00474584
0.0053307
0.0059615
0.00663664
0.00735612
0.00812079
0.00892483
0.00976217
0.0106337
0.0115376
0.0124537
0.0133574
0.0142264
0.0150328
0.0157331
0.016247
0.0164069
0.0162024
0.0155555
0.0143758
0.0126372
0.0105636
0.00865266
0.00672405
0.00385406
0.00161334
0.000486333
0.000115677
2.06469e-05
2.97391e-06
5.03643e-07
2.44539e-07
2.26237e-07
2.27236e-07
2.29741e-07
2.32401e-07
2.36079e-07
2.41471e-07
2.41404e-07
2.39422e-07
2.41281e-07
2.44088e-07
2.47412e-07
2.5144e-07
2.56484e-07
2.63053e-07
2.71935e-07
2.84083e-07
1.40264e-08
5.36235e-08
7.46253e-07
4.85695e-06
1.88352e-05
5.22486e-05
0.000114282
0.000209856
0.000339007
0.000499015
0.000680796
0.000880139
0.00110611
0.00136301
0.00165315
0.00197861
0.00234291
0.00274866
0.00319741
0.00368624
0.00420997
0.00476048
0.00534513
0.00597554
0.00665347
0.00737663
0.00814437
0.0089568
0.00980648
0.0106854
0.011593
0.0125248
0.0134566
0.0143584
0.0152024
0.0159533
0.0165588
0.0168399
0.0167529
0.0162541
0.0152381
0.0136517
0.0116127
0.00954791
0.00778976
0.00503587
0.00240054
0.000819538
0.000217741
4.40688e-05
6.92991e-06
1.01139e-06
2.92639e-07
2.28477e-07
2.26155e-07
2.28526e-07
2.30874e-07
2.33232e-07
2.38825e-07
2.41207e-07
2.38537e-07
2.38934e-07
2.41275e-07
2.44091e-07
2.47415e-07
2.51442e-07
2.56486e-07
2.63054e-07
2.71935e-07
2.84083e-07
1.39797e-08
5.33832e-08
7.42363e-07
4.83047e-06
1.87388e-05
5.20234e-05
0.000113921
0.000209457
0.000338692
0.000498965
0.000681375
0.000881778
0.0011091
0.0013664
0.00165643
0.00198162
0.00234484
0.00274977
0.003199
0.00369221
0.00422184
0.00477497
0.00536258
0.00599299
0.00667079
0.00739742
0.00816966
0.0089861
0.00984583
0.0107394
0.0116566
0.0125945
0.0135461
0.0144815
0.0153651
0.0161623
0.0168293
0.0172434
0.0172708
0.016904
0.0160537
0.0146255
0.012672
0.010511
0.00863679
0.00627431
0.00337316
0.00131389
0.000382906
8.82791e-05
1.53893e-05
2.2496e-06
4.30311e-07
2.38946e-07
2.25644e-07
2.27349e-07
2.29599e-07
2.31336e-07
2.35735e-07
2.39963e-07
2.39011e-07
2.37469e-07
2.3885e-07
2.41277e-07
2.44094e-07
2.47417e-07
2.51444e-07
2.56487e-07
2.63055e-07
2.71936e-07
2.84083e-07
1.3937e-08
5.3169e-08
7.38957e-07
4.80636e-06
1.86455e-05
5.17905e-05
0.000113503
0.00020891