/*--------------------------------*- C++ -*----------------------------------*\
| =========                 |                                                 |
| \\      /  F ield         | OpenFOAM: The Open Source CFD Toolbox           |
|  \\    /   O peration     | Version:  v2012                                 |
|   \\  /    A nd           | Website:  www.openfoam.com                      |
|    \\/     M anipulation  |                                                 |
\*---------------------------------------------------------------------------*/
FoamFile
{
    version     2.0;
    format      ascii;
    class       volScalarField;
    location    "13200";
    object      omega;
}
// * * * * * * * * * * * * * * * * * * * * * * * * * * * * * * * * * * * * * //

dimensions      [0 0 -1 0 0 0 0];


internalField   nonuniform List<scalar> 
39402
(
1.09864e+09
1.32815e+09
2.80159e+08
1.67917e+09
2.41554e+08
1.56364e+08
1.73775e+09
2.94453e+08
9.13258e+07
1.22907e+08
1.76606e+09
3.161e+08
1.05721e+08
5.12691e+07
1.09419e+08
1.76747e+09
3.21886e+08
1.14301e+08
5.49446e+07
3.58696e+07
1.0028e+08
1.75222e+09
3.22434e+08
1.1667e+08
5.81722e+07
3.48074e+07
2.88042e+07
9.43903e+07
1.73967e+09
3.19869e+08
1.17027e+08
5.95332e+07
3.61992e+07
2.52424e+07
2.51193e+07
8.99571e+07
1.73272e+09
3.17591e+08
1.16228e+08
5.98553e+07
3.71159e+07
2.57583e+07
2.01765e+07
2.29547e+07
8.61607e+07
1.73097e+09
3.16252e+08
1.15451e+08
5.95647e+07
3.74218e+07
2.63775e+07
2.01351e+07
1.72846e+07
2.15089e+07
8.27065e+07
1.73069e+09
3.15791e+08
1.14974e+08
5.92333e+07
3.73331e+07
2.66268e+07
2.04745e+07
1.68101e+07
1.55213e+07
2.04057e+07
7.92951e+07
1.73184e+09
3.15577e+08
1.14783e+08
5.90133e+07
3.7185e+07
2.66076e+07
2.06126e+07
1.68564e+07
1.46878e+07
1.43631e+07
1.94235e+07
7.69131e+07
1.73365e+09
3.15636e+08
1.1467e+08
5.89125e+07
3.70694e+07
2.65329e+07
2.0585e+07
1.6842e+07
1.44385e+07
1.32353e+07
1.35223e+07
1.84188e+07
7.47757e+07
1.73708e+09
3.1584e+08
1.14655e+08
5.88374e+07
3.70072e+07
2.64599e+07
2.05234e+07
1.6762e+07
1.42525e+07
1.27026e+07
1.21651e+07
1.28315e+07
1.75485e+07
7.23341e+07
1.74e+09
3.16342e+08
1.14695e+08
5.88044e+07
3.69476e+07
2.64131e+07
2.04607e+07
1.66809e+07
1.41009e+07
1.2347e+07
1.13724e+07
1.13068e+07
1.21896e+07
1.69282e+07
6.98372e+07
1.74273e+09
3.16777e+08
1.1485e+08
5.87992e+07
3.69067e+07
2.63595e+07
2.04155e+07
1.66112e+07
1.39859e+07
1.21196e+07
1.08657e+07
1.02915e+07
1.05459e+07
1.15226e+07
1.6503e+07
6.74074e+07
1.74551e+09
3.17197e+08
1.14988e+08
5.88504e+07
3.68792e+07
2.63141e+07
2.03632e+07
1.65603e+07
1.39015e+07
1.19663e+07
1.05675e+07
9.66577e+06
9.3672e+06
9.79467e+06
1.07528e+07
1.62102e+07
6.50735e+07
1.74851e+09
3.17653e+08
1.15127e+08
5.88958e+07
3.68831e+07
2.62756e+07
2.03155e+07
1.65059e+07
1.38407e+07
1.1865e+07
1.03765e+07
9.30665e+06
8.66389e+06
8.54613e+06
9.00075e+06
9.86259e+06
1.60111e+07
6.28227e+07
1.75201e+09
3.18153e+08
1.15287e+08
5.89451e+07
3.68855e+07
2.62564e+07
2.02722e+07
1.64567e+07
1.37826e+07
1.17925e+07
1.02575e+07
9.08232e+06
8.25821e+06
7.80999e+06
7.8039e+06
8.17591e+06
8.99046e+06
1.59178e+07
6.06215e+07
1.75694e+09
3.18742e+08
1.15463e+08
5.90064e+07
3.68912e+07
2.62366e+07
2.02426e+07
1.64119e+07
1.37317e+07
1.17297e+07
1.01728e+07
8.94657e+06
8.00706e+06
7.3732e+06
7.07008e+06
7.12257e+06
7.3815e+06
8.23497e+06
1.59326e+07
5.84535e+07
1.76027e+09
3.19591e+08
1.15675e+08
5.90781e+07
3.69047e+07
2.62201e+07
2.0213e+07
1.6378e+07
1.36861e+07
1.16769e+07
1.01055e+07
8.85053e+06
7.8553e+06
7.10198e+06
6.61745e+06
6.41653e+06
6.4839e+06
6.67197e+06
7.61463e+06
1.59708e+07
5.63397e+07
1.76189e+09
3.20184e+08
1.15974e+08
5.91674e+07
3.69255e+07
2.6209e+07
2.01865e+07
1.6345e+07
1.36502e+07
1.16307e+07
1.00509e+07
8.77869e+06
7.74955e+06
6.93582e+06
6.33293e+06
5.96443e+06
5.82814e+06
5.894e+06
6.05926e+06
7.11316e+06
1.55997e+07
5.43964e+07
1.76686e+09
3.20486e+08
1.16194e+08
5.92974e+07
3.69568e+07
2.62035e+07
2.01642e+07
1.63149e+07
1.3616e+07
1.15939e+07
1.00046e+07
8.7224e+06
7.67334e+06
6.82203e+06
6.15535e+06
5.67432e+06
5.39372e+06
5.30055e+06
5.36785e+06
5.52473e+06
6.67427e+06
1.51233e+07
5.2895e+07
1.76976e+09
3.2134e+08
1.16316e+08
5.93939e+07
3.701e+07
2.62047e+07
2.01464e+07
1.62887e+07
1.35849e+07
1.15597e+07
9.96763e+06
8.67595e+06
7.6151e+06
6.74165e+06
6.03487e+06
5.48927e+06
5.10676e+06
4.89708e+06
4.84609e+06
4.89978e+06
5.04102e+06
6.30739e+06
1.46175e+07
5.19252e+07
1.773e+09
3.21867e+08
1.16624e+08
5.94484e+07
3.70469e+07
2.62191e+07
2.01336e+07
1.62662e+07
1.35575e+07
1.15287e+07
9.93414e+06
8.63894e+06
7.56832e+06
6.68127e+06
5.95052e+06
5.36352e+06
4.91844e+06
4.6202e+06
4.47593e+06
4.45876e+06
4.47199e+06
4.58881e+06
6.02177e+06
1.4083e+07
5.15944e+07
1.77579e+09
3.22438e+08
1.1682e+08
5.95857e+07
3.70639e+07
2.62251e+07
2.01295e+07
1.62479e+07
1.35337e+07
1.15014e+07
9.90418e+06
8.60625e+06
7.53117e+06
6.6338e+06
5.88792e+06
5.27555e+06
4.78895e+06
4.43126e+06
4.20836e+06
4.1177e+06
4.1085e+06
4.07361e+06
4.16083e+06
5.79643e+06
1.35444e+07
5.16402e+07
1.77892e+09
3.22929e+08
1.17033e+08
5.96736e+07
3.71243e+07
2.6221e+07
2.01206e+07
1.62361e+07
1.35135e+07
1.14777e+07
9.87795e+06
8.57743e+06
7.49909e+06
6.59625e+06
5.83942e+06
5.21065e+06
4.69776e+06
4.29848e+06
4.01793e+06
3.85623e+06
3.80114e+06
3.78174e+06
3.70641e+06
3.7639e+06
5.6139e+06
1.30508e+07
5.18952e+07
1.78139e+09
3.23481e+08
1.17215e+08
5.97681e+07
3.71592e+07
2.62422e+07
2.01063e+07
1.62212e+07
1.34987e+07
1.14574e+07
9.85529e+06
8.55253e+06
7.47123e+06
6.56447e+06
5.8012e+06
5.16083e+06
4.63052e+06
4.20371e+06
3.88084e+06
3.66376e+06
3.54979e+06
3.51572e+06
3.46825e+06
3.36001e+06
3.41921e+06
5.4553e+06
1.26165e+07
5.23154e+07
1.78446e+09
3.23915e+08
1.17415e+08
5.98482e+07
3.71972e+07
2.62488e+07
2.01083e+07
1.6203e+07
1.34816e+07
1.1442e+07
9.83608e+06
8.53112e+06
7.44744e+06
6.53723e+06
5.7694e+06
5.1217e+06
4.57918e+06
4.13358e+06
3.7817e+06
3.52248e+06
3.35766e+06
3.28026e+06
3.25124e+06
3.16131e+06
3.01998e+06
3.15211e+06
5.32386e+06
1.22277e+07
5.2851e+07
1.78662e+09
3.24433e+08
1.17572e+08
5.99359e+07
3.72279e+07
2.62574e+07
2.01012e+07
1.61967e+07
1.34625e+07
1.14247e+07
9.82129e+06
8.51316e+06
7.42718e+06
6.5142e+06
5.74241e+06
5.08956e+06
4.53893e+06
4.08014e+06
3.70793e+06
3.41894e+06
3.21338e+06
3.09163e+06
3.0392e+06
2.99924e+06
2.86308e+06
2.68185e+06
2.96865e+06
5.21336e+06
1.20894e+07
5.35528e+07
1.78918e+09
3.24799e+08
1.17754e+08
6.00033e+07
3.72626e+07
2.62617e+07
2.00954e+07
1.61839e+07
1.34527e+07
1.1406e+07
9.80489e+06
8.49934e+06
7.41031e+06
6.49475e+06
5.7198e+06
5.0625e+06
4.50614e+06
4.03833e+06
3.65177e+06
3.34146e+06
3.10597e+06
2.94592e+06
2.85846e+06
2.81886e+06
2.75211e+06
2.57703e+06
2.36139e+06
2.8492e+06
5.17045e+06
1.20121e+07
5.43639e+07
1.79011e+09
3.25216e+08
1.17882e+08
6.00802e+07
3.72867e+07
2.62686e+07
2.00868e+07
1.61721e+07
1.34379e+07
1.13952e+07
9.78741e+06
8.48427e+06
7.39748e+06
6.47868e+06
5.70081e+06
5.03995e+06
4.47876e+06
4.00446e+06
3.6079e+06
3.2825e+06
3.02497e+06
2.83543e+06
2.71343e+06
2.65124e+06
2.61138e+06
2.50449e+06
2.29482e+06
2.09652e+06
2.78786e+06
5.1283e+06
1.19791e+07
5.52256e+07
1.79216e+09
3.25364e+08
1.18023e+08
6.01307e+07
3.73145e+07
2.62692e+07
2.008e+07
1.61583e+07
1.34241e+07
1.13804e+07
9.77699e+06
8.4682e+06
7.38361e+06
6.4665e+06
5.68518e+06
5.02111e+06
4.45601e+06
3.9764e+06
3.57254e+06
3.23646e+06
2.96316e+06
2.75121e+06
2.60092e+06
2.50983e+06
2.46336e+06
2.40904e+06
2.25984e+06
2.00681e+06
1.9176e+06
2.76409e+06
5.06533e+06
1.19227e+07
5.60382e+07
1.79473e+09
3.25667e+08
1.18068e+08
6.01857e+07
3.73277e+07
2.62718e+07
2.0069e+07
1.61458e+07
1.34086e+07
1.13665e+07
9.76323e+06
8.45866e+06
7.36892e+06
6.45356e+06
5.67332e+06
5.00564e+06
4.43704e+06
3.95313e+06
3.54341e+06
3.19946e+06
2.91488e+06
2.68663e+06
2.51399e+06
2.39684e+06
2.32942e+06
2.28814e+06
2.20507e+06
2.02089e+06
1.72753e+06
1.81148e+06
2.75292e+06
4.98936e+06
1.18384e+07
5.67262e+07
1.79648e+09
3.26064e+08
1.18159e+08
6.01961e+07
3.73429e+07
2.62655e+07
2.00596e+07
1.61303e+07
1.33942e+07
1.13512e+07
9.75028e+06
8.44632e+06
7.36017e+06
6.43998e+06
5.66098e+06
4.99379e+06
4.42144e+06
3.93375e+06
3.51937e+06
3.16915e+06
2.87615e+06
2.63606e+06
2.4468e+06
2.30794e+06
2.21809e+06
2.16674e+06
2.11883e+06
1.99842e+06
1.77828e+06
1.49847e+06
1.75852e+06
2.73815e+06
4.91476e+06
1.17502e+07
5.72845e+07
1.79747e+09
3.26308e+08
1.18277e+08
6.02239e+07
3.73342e+07
2.62602e+07
2.00443e+07
1.61163e+07
1.33774e+07
1.13368e+07
9.7363e+06
8.4347e+06
7.34911e+06
6.43183e+06
5.64819e+06
4.98176e+06
4.40936e+06
3.91777e+06
3.49935e+06
3.14419e+06
2.84455e+06
2.59554e+06
2.39398e+06
2.23845e+06
2.12832e+06
2.0599e+06
2.01623e+06
1.94911e+06
1.79448e+06
1.52733e+06
1.34952e+06
1.73461e+06
2.71361e+06
4.84378e+06
1.16653e+07
5.77812e+07
1.79775e+09
3.26417e+08
1.1834e+08
6.02619e+07
3.73335e+07
2.6241e+07
2.00294e+07
1.60979e+07
1.33624e+07
1.13204e+07
9.72298e+06
8.42226e+06
7.33868e+06
6.42178e+06
5.64034e+06
4.96951e+06
4.39744e+06
3.90526e+06
3.48277e+06
3.12342e+06
2.81858e+06
2.56256e+06
2.35162e+06
2.18348e+06
2.05704e+06
1.97079e+06
1.91763e+06
1.87223e+06
1.77587e+06
1.58977e+06
1.28804e+06
1.26864e+06
1.72068e+06
2.68496e+06
4.78327e+06
1.16078e+07
5.76246e+07
1.79814e+09
3.26407e+08
1.18353e+08
6.0273e+07
3.73368e+07
2.6226e+07
2.00058e+07
1.60798e+07
1.3344e+07
1.13057e+07
9.70798e+06
8.41039e+06
7.32761e+06
6.41233e+06
5.63103e+06
4.96171e+06
4.38544e+06
3.8932e+06
3.46966e+06
3.10614e+06
2.79695e+06
2.53549e+06
2.31718e+06
2.13928e+06
2.00014e+06
1.89855e+06
1.83131e+06
1.78659e+06
1.72902e+06
1.60165e+06
1.37503e+06
1.10499e+06
1.22723e+06
1.70894e+06
2.65408e+06
4.72716e+06
1.15836e+07
5.68866e+07
1.79972e+09
3.26378e+08
1.18324e+08
6.02598e+07
3.73253e+07
2.62121e+07
1.99846e+07
1.60556e+07
1.33258e+07
1.12883e+07
9.6941e+06
8.39709e+06
7.31713e+06
6.40238e+06
5.62224e+06
4.95279e+06
4.37747e+06
3.88129e+06
3.45731e+06
3.09232e+06
2.77889e+06
2.51293e+06
2.28894e+06
2.10335e+06
1.95419e+06
1.84014e+06
1.75931e+06
1.70593e+06
1.66184e+06
1.58133e+06
1.4265e+06
1.1536e+06
994704
1.20728e+06
1.69668e+06
2.62566e+06
4.69306e+06
1.16206e+07
5.71504e+07
1.8017e+09
3.26546e+08
1.18276e+08
6.02267e+07
3.73002e+07
2.61895e+07
1.99633e+07
1.60329e+07
1.33027e+07
1.12708e+07
9.67791e+06
8.38451e+06
7.30538e+06
6.393e+06
5.61312e+06
4.94442e+06
4.36875e+06
3.873e+06
3.44528e+06
3.07954e+06
2.76432e+06
2.49405e+06
2.2654e+06
2.07387e+06
1.91676e+06
1.7926e+06
1.70002e+06
1.63587e+06
1.59067e+06
1.53819e+06
1.43065e+06
1.24337e+06
958724
938776
1.19695e+06
1.68621e+06
2.60631e+06
4.6751e+06
1.17882e+07
5.72067e+07
1.80217e+09
3.26784e+08
1.1829e+08
6.01805e+07
3.72643e+07
2.61589e+07
1.99364e+07
1.60098e+07
1.32808e+07
1.12495e+07
9.66176e+06
8.36997e+06
7.29413e+06
6.38258e+06
5.60456e+06
4.93587e+06
4.36059e+06
3.86427e+06
3.43655e+06
3.06731e+06
2.75104e+06
2.47867e+06
2.24564e+06
2.0493e+06
1.88601e+06
1.75372e+06
1.65124e+06
1.57667e+06
1.52485e+06
1.48126e+06
1.41077e+06
1.27971e+06
1.04886e+06
827797
912017
1.19044e+06
1.67729e+06
2.58858e+06
4.66376e+06
1.19517e+07
5.72255e+07
1.80105e+09
3.26753e+08
1.18325e+08
6.01597e+07
3.72195e+07
2.61219e+07
1.99043e+07
1.59825e+07
1.32584e+07
1.12291e+07
9.6422e+06
8.35542e+06
7.28114e+06
6.37251e+06
5.59517e+06
4.92789e+06
4.35239e+06
3.85617e+06
3.42763e+06
3.05807e+06
2.73852e+06
2.46482e+06
2.22944e+06
2.02865e+06
1.86036e+06
1.7217e+06
1.61106e+06
1.52716e+06
1.46712e+06
1.42281e+06
1.37322e+06
1.28079e+06
1.12286e+06
860383
757467
900246
1.1844e+06
1.66866e+06
2.57064e+06
4.73092e+06
1.20934e+07
5.72364e+07
1.80012e+09
3.26455e+08
1.18266e+08
6.01473e+07
3.71869e+07
2.60788e+07
1.98681e+07
1.59514e+07
1.32326e+07
1.12082e+07
9.62363e+06
8.33773e+06
7.26808e+06
6.36084e+06
5.58602e+06
4.9192e+06
4.34475e+06
3.84815e+06
3.41945e+06
3.04888e+06
2.72881e+06
2.45196e+06
2.21498e+06
2.01158e+06
1.83878e+06
1.69495e+06
1.57782e+06
1.48595e+06
1.41769e+06
1.36844e+06
1.32608e+06
1.2622e+06
1.14995e+06
953453
717611
724987
894528
1.17923e+06
1.66134e+06
2.57501e+06
4.75302e+06
1.22199e+07
5.72416e+07
1.8005e+09
3.26181e+08
1.18118e+08
6.00912e+07
3.71579e+07
2.60421e+07
1.98276e+07
1.59174e+07
1.32036e+07
1.11843e+07
9.60458e+06
8.32101e+06
7.25225e+06
6.34911e+06
5.57542e+06
4.91071e+06
4.33655e+06
3.84072e+06
3.41148e+06
3.04055e+06
2.71937e+06
2.44184e+06
2.20172e+06
1.99649e+06
1.82085e+06
1.67242e+06
1.54998e+06
1.45163e+06
1.3759e+06
1.32024e+06
1.27764e+06
1.2307e+06
1.14882e+06
1.01333e+06
779786
636665
711052
890828
1.17518e+06
1.66342e+06
2.57325e+06
4.76369e+06
1.23171e+07
5.72411e+07
1.80092e+09
3.26102e+08
1.1797e+08
5.99941e+07
3.71056e+07
2.60068e+07
1.97907e+07
1.58804e+07
1.31726e+07
1.11579e+07
9.58277e+06
8.30393e+06
7.23728e+06
6.3349e+06
5.56483e+06
4.901e+06
4.32854e+06
3.83284e+06
3.40407e+06
3.03254e+06
2.71093e+06
2.43217e+06
2.19124e+06
1.9828e+06
1.80507e+06
1.65361e+06
1.52648e+06
1.42275e+06
1.34072e+06
1.27857e+06
1.23226e+06
1.19147e+06
1.13274e+06
1.03398e+06
864786
635911
598162
704787
887680
1.17548e+06
1.66423e+06
2.57713e+06
4.78406e+06
1.23749e+07
5.72414e+07
1.80138e+09
3.26025e+08
1.17885e+08
5.98957e+07
3.70317e+07
2.59581e+07
1.97542e+07
1.58456e+07
1.31392e+07
1.11295e+07
9.55877e+06
8.28431e+06
7.22209e+06
6.32141e+06
5.552e+06
4.89129e+06
4.31951e+06
3.82517e+06
3.39642e+06
3.02512e+06
2.70291e+06
2.42364e+06
2.18138e+06
1.97199e+06
1.79092e+06
1.63713e+06
1.50679e+06
1.39831e+06
1.31093e+06
1.24293e+06
1.1917e+06
1.15108e+06
1.10642e+06
1.03257e+06
913584
707571
548706
581660
701593
886761
1.17676e+06
1.6609e+06
2.58215e+06
4.81312e+06
1.21707e+07
5.72376e+07
1.80188e+09
3.25965e+08
1.17792e+08
5.98215e+07
3.69566e+07
2.58969e+07
1.97094e+07
1.58106e+07
1.31074e+07
1.10995e+07
9.53307e+06
8.26265e+06
7.20452e+06
6.30783e+06
5.53976e+06
4.87961e+06
4.31049e+06
3.81668e+06
3.38899e+06
3.01763e+06
2.69552e+06
2.41561e+06
2.17276e+06
1.96187e+06
1.77968e+06
1.62244e+06
1.48958e+06
1.37774e+06
1.2856e+06
1.21245e+06
1.15622e+06
1.11301e+06
1.07382e+06
1.01893e+06
930677
781961
569105
506340
574932
700298
886835
1.17733e+06
1.65822e+06
2.57591e+06
4.80179e+06
1.22383e+07
5.72315e+07
1.80176e+09
3.25908e+08
1.17708e+08
5.97432e+07
3.68926e+07
2.58349e+07
1.96568e+07
1.577e+07
1.30751e+07
1.10706e+07
9.50601e+06
8.23952e+06
7.18504e+06
6.29208e+06
5.52752e+06
4.86843e+06
4.29977e+06
3.80819e+06
3.38091e+06
3.0104e+06
2.68818e+06
2.40826e+06
2.16472e+06
1.95309e+06
1.76923e+06
1.61063e+06
1.47433e+06
1.35979e+06
1.26418e+06
1.18635e+06
1.12541e+06
1.07859e+06
1.04014e+06
997319
929430
823369
639924
480325
488368
572147
699850
886932
1.17646e+06
1.65166e+06
2.59384e+06
4.85948e+06
1.22457e+07
5.7224e+07
1.80013e+09
3.25744e+08
1.17623e+08
5.96692e+07
3.68258e+07
2.57787e+07
1.96036e+07
1.57238e+07
1.30384e+07
1.10412e+07
9.47998e+06
8.21523e+06
7.16422e+06
6.27457e+06
5.51332e+06
4.85729e+06
4.28944e+06
3.79827e+06
3.37285e+06
3.00264e+06
2.68113e+06
2.40104e+06
2.15737e+06
1.94495e+06
1.76016e+06
1.59975e+06
1.46182e+06
1.34396e+06
1.2455e+06
1.16414e+06
1.09876e+06
1.04802e+06
1.00801e+06
970460
918365
838179
705365
510327
436685
481234
571163
699892
886536
1.17407e+06
1.6538e+06
2.60372e+06
4.90036e+06
1.22491e+07
5.72146e+07
1.79777e+09
3.25332e+08
1.17502e+08
5.95942e+07
3.67616e+07
2.57205e+07
1.95538e+07
1.56773e+07
1.29975e+07
1.10081e+07
9.45341e+06
8.1919e+06
7.14246e+06
6.2558e+06
5.49757e+06
4.84444e+06
4.2792e+06
3.78863e+06
3.36356e+06
2.99494e+06
2.67367e+06
2.39416e+06
2.15021e+06
1.93753e+06
1.75183e+06
1.59034e+06
1.45043e+06
1.3307e+06
1.22909e+06
1.14477e+06
1.0759e+06
1.02118e+06
978499
942285
901108
837660
741582
576740
423918
417964
478550
570774
699637
885331
1.17388e+06
1.65937e+06
2.61631e+06
4.91441e+06
1.22505e+07
5.72045e+07
1.79605e+09
3.24798e+08
1.17301e+08
5.95025e+07
3.66963e+07
2.56641e+07
1.95026e+07
1.56332e+07
1.29565e+07
1.09715e+07
9.42351e+06
8.16801e+06
7.12158e+06
6.23625e+06
5.48061e+06
4.83016e+06
4.26749e+06
3.77914e+06
3.35451e+06
2.98618e+06
2.66632e+06
2.38697e+06
2.14343e+06
1.93034e+06
1.74426e+06
1.58176e+06
1.44062e+06
1.31874e+06
1.21513e+06
1.12777e+06
1.05588e+06
997868
952001
914988
879025
829217
755243
634631
457102
381106
410705
477532
570508
698839
885977
1.1742e+06
1.66459e+06
2.63235e+06
4.86021e+06
1.22509e+07
5.71938e+07
1.79551e+09
3.24356e+08
1.17059e+08
5.93763e+07
3.66229e+07
2.56069e+07
1.94527e+07
1.5588e+07
1.29174e+07
1.0935e+07
9.39061e+06
8.14105e+06
7.10023e+06
6.21751e+06
5.46302e+06
4.81479e+06
4.25449e+06
3.76838e+06
3.34565e+06
2.97766e+06
2.65805e+06
2.37992e+06
2.13643e+06
1.92359e+06
1.73701e+06
1.57399e+06
1.43173e+06
1.30846e+06
1.20253e+06
1.1132e+06
1.0383e+06
977327
928589
889608
855480
815496
755791
667395
517358
375863
362885
407971
477106
570057
698744
886531
1.17422e+06
1.67846e+06
2.63299e+06
4.86819e+06
1.22516e+07
5.71856e+07
1.79628e+09
3.24105e+08
1.16845e+08
5.92319e+07
3.6532e+07
2.55454e+07
1.94022e+07
1.55438e+07
1.28774e+07
1.09002e+07
9.358e+06
8.11142e+06
7.07594e+06
6.19841e+06
5.44614e+06
4.79888e+06
4.24043e+06
3.75647e+06
3.33569e+06
2.96933e+06
2.65e+06
2.37209e+06
2.12962e+06
1.9167e+06
1.73022e+06
1.56662e+06
1.42372e+06
1.29921e+06
1.1917e+06
1.09997e+06
1.02318e+06
959235
907728
866612
832287
797704
749812
680700
569292
407837
335643
355830
406951
476726
569996
699005
887136
1.17929e+06
1.67859e+06
2.65072e+06
4.86839e+06
1.22517e+07
5.71777e+07
1.79739e+09
3.2409e+08
1.16692e+08
5.90995e+07
3.64324e+07
2.5474e+07
1.93493e+07
1.5499e+07
1.2838e+07
1.08647e+07
9.32687e+06
8.08221e+06
7.04921e+06
6.1765e+06
5.42898e+06
4.78363e+06
4.22598e+06
3.74357e+06
3.32472e+06
2.96007e+06
2.64215e+06
2.36451e+06
2.12214e+06
1.91004e+06
1.7234e+06
1.55977e+06
1.41618e+06
1.2909e+06
1.18203e+06
1.08853e+06
1.00942e+06
943601
889232
845763
810441
778146
739102
682730
599987
461372
333583
318673
353160
406483
476571
570051
699150
889042
1.18153e+06
1.68533e+06
2.64746e+06
4.8686e+06
1.22511e+07
5.71718e+07
1.79832e+09
3.24152e+08
1.16617e+08
5.89933e+07
3.63388e+07
2.53987e+07
1.92903e+07
1.54528e+07
1.27983e+07
1.08294e+07
9.29512e+06
8.05424e+06
7.02296e+06
6.15236e+06
5.40922e+06
4.76811e+06
4.21213e+06
3.73037e+06
3.31285e+06
2.94995e+06
2.63351e+06
2.35709e+06
2.11493e+06
1.90284e+06
1.71685e+06
1.55297e+06
1.40922e+06
1.28315e+06
1.17337e+06
1.07836e+06
997378
929375
873159
827069
790105
758473
725038
678783
613583
508875
361827
297317
312026
352148
406283
476554
569964
700517
889514
1.18302e+06
1.69167e+06
2.62949e+06
4.86916e+06
1.22508e+07
5.71668e+07
1.79878e+09
3.24181e+08
1.16576e+08
5.89219e+07
3.62582e+07
2.5327e+07
1.92298e+07
1.54026e+07
1.27574e+07
1.07938e+07
9.2635e+06
8.02587e+06
6.9979e+06
6.1287e+06
5.38734e+06
4.75026e+06
4.19807e+06
3.71773e+06
3.30077e+06
2.939e+06
2.62416e+06
2.34898e+06
2.10788e+06
1.89591e+06
1.70986e+06
1.54648e+06
1.4024e+06
1.27605e+06
1.16537e+06
1.0693e+06
986651
916836
858526
810682
771553
739363
708924
670614
617050
538615
409004
295938
282199
309492
351739
406225
476605
570635
701364
889087
1.19453e+06
1.6928e+06
2.62934e+06
4.86955e+06
1.22509e+07
5.71615e+07
1.79832e+09
3.24133e+08
1.16527e+08
5.88695e+07
3.61962e+07
2.52625e+07
1.91716e+07
1.53516e+07
1.27135e+07
1.07573e+07
9.23148e+06
7.99753e+06
6.9725e+06
6.10626e+06
5.36598e+06
4.73047e+06
4.18191e+06
3.70495e+06
3.28919e+06
2.92794e+06
2.61406e+06
2.34032e+06
2.10023e+06
1.88915e+06
1.70316e+06
1.53965e+06
1.39593e+06
1.26916e+06
1.15808e+06
1.06101e+06
977136
905571
845570
795727
755070
721450
692024
659789
614843
552772
453100
319305
264568
276267
308512
351606
406273
477009
571229
701170
895314
1.19567e+06
1.69632e+06
2.62891e+06
4.87007e+06
1.22515e+07
5.71621e+07
1.79713e+09
3.23945e+08
1.16454e+08
5.88155e+07
3.6146e+07
2.52087e+07
1.91181e+07
1.53027e+07
1.26694e+07
1.07185e+07
9.1988e+06
7.96874e+06
6.94702e+06
6.08342e+06
5.34575e+06
4.71111e+06
4.16398e+06
3.69032e+06
3.27752e+06
2.91732e+06
2.60391e+06
2.331e+06
2.09215e+06
1.88189e+06
1.69664e+06
1.53314e+06
1.38922e+06
1.26267e+06
1.15109e+06
1.05348e+06
968487
895541
833870
782424
739926
705221
675457
646384
609016
557858
482356
360344
262556
251691
274000
308195
351626
406503
477244
570771
703993
897960
1.20051e+06
1.67962e+06
2.62909e+06
4.87073e+06
1.22523e+07
5.71627e+07
1.79494e+09
3.23631e+08
1.1634e+08
5.87516e+07
3.60955e+07
2.51628e+07
1.90713e+07
1.52571e+07
1.26273e+07
1.06796e+07
9.16398e+06
7.93927e+06
6.92116e+06
6.06044e+06
5.3252e+06
4.69278e+06
4.14638e+06
3.67405e+06
3.26424e+06
2.9066e+06
2.59414e+06
2.32163e+06
2.0835e+06
1.8743e+06
1.68971e+06
1.52682e+06
1.38284e+06
1.25603e+06
1.14454e+06
1.04635e+06
960682
886485
823358
770369
726370
690119
659986
632124
600509
557210
497690
401278
280594
236485
246635
273188
308153
351811
406661
476778
572651
705299
906531
1.19752e+06
1.67936e+06
2.6296e+06
4.87122e+06
1.22531e+07
5.71636e+07
1.79336e+09
3.23153e+08
1.16183e+08
5.86717e+07
3.60414e+07
2.51169e+07
1.90298e+07
1.52163e+07
1.25878e+07
1.06426e+07
9.12937e+06
7.908e+06
6.89455e+06
6.03719e+06
5.30447e+06
4.67427e+06
4.12977e+06
3.65804e+06
3.24952e+06
2.89453e+06
2.58429e+06
2.3126e+06
2.0748e+06
1.86621e+06
1.68254e+06
1.52016e+06
1.37668e+06
1.24975e+06
1.13793e+06
1.03969e+06
953359
878349
813860
759476
714041
676459
645277
618119
589797
553147
504211
430473
315234
233212
225911
244733
272967
308288
351984
406527
477708
573830
710525
905406
1.19776e+06
1.67885e+06
2.63019e+06
4.87191e+06
1.22543e+07
5.71679e+07
1.79198e+09
3.22774e+08
1.15974e+08
5.85737e+07
3.598e+07
2.50703e+07
1.89889e+07
1.51793e+07
1.2552e+07
1.06079e+07
9.09661e+06
7.8769e+06
6.86636e+06
6.01319e+06
5.28351e+06
4.65561e+06
4.11311e+06
3.64297e+06
3.23498e+06
2.88122e+06
2.57328e+06
2.30351e+06
2.06641e+06
1.85809e+06
1.67493e+06
1.51334e+06
1.37026e+06
1.24371e+06
1.1317e+06
1.03308e+06
946573
870792
805335
749581
702854
663960
631755
604305
578219
546615
504825
447256
352963
245792
212329
221768
244076
272975
308450
351993
407064
478753
576660
712105
907930
1.18725e+06
1.67901e+06
2.63086e+06
4.87289e+06
1.2256e+07
5.71754e+07
1.79154e+09
3.22465e+08
1.15803e+08
5.84529e+07
3.59108e+07
2.50204e+07
1.89479e+07
1.51426e+07
1.2519e+07
1.05764e+07
9.06579e+06
7.84766e+06
6.83833e+06
5.98773e+06
5.26185e+06
4.63669e+06
4.09628e+06
3.62794e+06
3.22125e+06
2.86804e+06
2.56123e+06
2.29342e+06
2.05799e+06
1.85028e+06
1.66733e+06
1.50616e+06
1.36374e+06
1.23748e+06
1.12575e+06
1.02687e+06
939899
863826
797492
740660
692644
652568
619253
591290
565993
538692
502371
454871
382256
273837
207658
203928
220220
243896
273058
308465
352329
407474
480275
577640
717282
904558
1.18614e+06
1.67947e+06
2.63158e+06
4.87395e+06
1.22579e+07
5.71839e+07
1.79117e+09
3.22292e+08
1.15657e+08
5.83513e+07
3.58303e+07
2.49673e+07
1.8906e+07
1.51065e+07
1.24862e+07
1.0547e+07
9.03784e+06
7.82019e+06
6.81209e+06
5.9624e+06
5.23889e+06
4.6171e+06
4.07916e+06
3.6127e+06
3.20761e+06
2.85553e+06
2.54931e+06
2.28247e+06
2.04869e+06
1.84245e+06
1.66002e+06
1.49901e+06
1.35691e+06
1.2312e+06
1.11966e+06
1.02097e+06
933682
857056
790300
732471
683395
642127
607775
579044
554003
528958
497885
457145
400246
307875
215160
191516
200660
219696
243907
273078
308693
352561
408196
481101
581629
717205
898684
1.18591e+06
1.68005e+06
2.6324e+06
4.87524e+06
1.22608e+07
5.71962e+07
1.79127e+09
3.22153e+08
1.1556e+08
5.82628e+07
3.57608e+07
2.49083e+07
1.88626e+07
1.50701e+07
1.24541e+07
1.05175e+07
9.01146e+06
7.79526e+06
6.78755e+06
5.93878e+06
5.21596e+06
4.59645e+06
4.06143e+06
3.59722e+06
3.19379e+06
2.84308e+06
2.5379e+06
2.27164e+06
2.03868e+06
1.83386e+06
1.65272e+06
1.49214e+06
1.35015e+06
1.22469e+06
1.11359e+06
1.01499e+06
927789
850786
783391
725008
674875
632627
597200
567666
542399
518709
491616
456256
409507
336596
236525
185700
185092
199461
219584
243950
273281
308894
353107
408805
483708
582616
715510
895239
1.18621e+06
1.68068e+06
2.63331e+06
4.87673e+06
1.22641e+07
5.72071e+07
1.79153e+09
3.22094e+08
1.15478e+08
5.81973e+07
3.56993e+07
2.48569e+07
1.88165e+07
1.50335e+07
1.24221e+07
1.04888e+07
8.98504e+06
7.77158e+06
6.76529e+06
5.91676e+06
5.19462e+06
4.57566e+06
4.04284e+06
3.58118e+06
3.17982e+06
2.83054e+06
2.52653e+06
2.2612e+06
2.02877e+06
1.82466e+06
1.64474e+06
1.48529e+06
1.34367e+06
1.21826e+06
1.10734e+06
1.00907e+06
921883
844873
777029
717911
667100
623849
587528
557089
531394
508278
484039
453139
413655
356216
265526
188914
173652
182612
199100
219605
244120
273531
309407
353496
410649
484563
585544
713626
894492
1.18669e+06
1.6814e+06
2.63429e+06
4.87846e+06
1.22677e+07
5.7225e+07
1.79231e+09
3.22081e+08
1.15424e+08
5.81404e+07
3.56507e+07
2.48104e+07
1.87758e+07
1.49953e+07
1.23902e+07
1.04602e+07
8.95908e+06
7.74792e+06
6.744e+06
5.89684e+06
5.17477e+06
4.55634e+06
4.02401e+06
3.56441e+06
3.16531e+06
2.81791e+06
2.51511e+06
2.25079e+06
2.01919e+06
1.81556e+06
1.63626e+06
1.47786e+06
1.33722e+06
1.21211e+06
1.1012e+06
1.00304e+06
916089
839003
771058
711415
659764
615791
578560
547346
521022
498047
475507
448484
413864
367763
293445
203357
167010
168877
181749
199034
219738
244350
273985
309712
354576
411228
487593
586214
707080
894603
1.18727e+06
1.68215e+06
2.63541e+06
4.88038e+06
1.22722e+07
5.72442e+07
1.79313e+09
3.22155e+08
1.15392e+08
5.80979e+07
3.56073e+07
2.4772e+07
1.87387e+07
1.49616e+07
1.23574e+07
1.04318e+07
8.93337e+06
7.72443e+06
6.72278e+06
5.87776e+06
5.15691e+06
4.53842e+06
4.0065e+06
3.54739e+06
3.1502e+06
2.8048e+06
2.50367e+06
2.24037e+06
2.00964e+06
1.80674e+06
1.62787e+06
1.47e+06
1.33026e+06
1.206e+06
1.09533e+06
997140
910229
833292
765191
705348
653089
608215
570293
538267
511354
488180
466596
442752
412139
373088
314828
226729
166792
158274
167061
181486
199096
219898
244659
274209
310329
354695
413226
490944
582747
706134
895021
1.18788e+06
1.68303e+06
2.63663e+06
4.88241e+06
1.22776e+07
5.72652e+07
1.79379e+09
3.22242e+08
1.15392e+08
5.80674e+07
3.55727e+07
2.47371e+07
1.87073e+07
1.49308e+07
1.23285e+07
1.0403e+07
8.90786e+06
7.70118e+06
6.70157e+06
5.85864e+06
5.13982e+06
4.52235e+06
3.99031e+06
3.53152e+06
3.13485e+06
2.79123e+06
2.49182e+06
2.22996e+06
2.00011e+06
1.79796e+06
1.61973e+06
1.46225e+06
1.32296e+06
1.19947e+06
1.08952e+06
991512
904531
827569
759526
699445
646881
601318
562527
529864
502277
478811
457659
435859
408850
375019
328121
252935
175059
151171
154820
166432
181450
199192
220111
244886
274644
310277
356102
416187
490424
576944
706039
895515
1.18853e+06
1.684e+06
2.63808e+06
4.88495e+06
1.2284e+07
5.72902e+07
1.79438e+09
3.22345e+08
1.15404e+08
5.80542e+07
3.55455e+07
2.47079e+07
1.86782e+07
1.49043e+07
1.23022e+07
1.03776e+07
8.88216e+06
7.67809e+06
6.68053e+06
5.83949e+06
5.12263e+06
4.50701e+06
3.97584e+06
3.51688e+06
3.12049e+06
2.77744e+06
2.47964e+06
2.21922e+06
1.99062e+06
1.78922e+06
1.61164e+06
1.45471e+06
1.31576e+06
1.19265e+06
1.08336e+06
985969
899105
822029
753900
693789
640905
594917
555423
521963
493828
469902
448910
428433
404482
374314
335519
274790
192432
148536
145001
153529
166256
181503
199363
220339
245223
274727
311136
358245
416694
487540
576172
706375
896055
1.18929e+06
1.685e+06
2.63965e+06
4.88789e+06
1.2291e+07
5.73179e+07
1.79493e+09
3.2243e+08
1.15426e+08
5.80475e+07
3.55288e+07
2.46837e+07
1.86531e+07
1.48795e+07
1.22794e+07
1.03546e+07
8.85945e+06
7.655e+06
6.65957e+06
5.82046e+06
5.10529e+06
4.49158e+06
3.96203e+06
3.50383e+06
3.10724e+06
2.76448e+06
2.46728e+06
2.20824e+06
1.98083e+06
1.78055e+06
1.6036e+06
1.44722e+06
1.30876e+06
1.18595e+06
1.07696e+06
980124
893783
816770
748483
688222
635219
588828
548823
514713
485858
461534
440416
420738
399338
372368
338803
290445
214641
151946
137793
142592
153114
166265
181653
199579
220656
245464
275300
312690
359138
417982
485073
575895
706822
896663
1.19009e+06
1.68613e+06
2.64137e+06
4.89098e+06
1.2299e+07
5.73477e+07
1.79538e+09
3.22514e+08
1.15445e+08
5.805e+07
3.55166e+07
2.46662e+07
1.86314e+07
1.48579e+07
1.22579e+07
1.03348e+07
8.83919e+06
7.63459e+06
6.63874e+06
5.80144e+06
5.08813e+06
4.47595e+06
3.94818e+06
3.49136e+06
3.09541e+06
2.75247e+06
2.4556e+06
2.19712e+06
1.97088e+06
1.7716e+06
1.59565e+06
1.43982e+06
1.30181e+06
1.17942e+06
1.07069e+06
974099
888212
811631
743352
682891
629676
583070
542574
507960
478522
453591
432314
413009
393249
369195
339597
299908
236549
162892
133617
133551
141740
153037
166384
181847
199875
220953
245844
276299
313317
360826
417246
482015
576164
707314
897318
1.19097e+06
1.68738e+06
2.64332e+06
4.89462e+06
1.23078e+07
5.73819e+07
1.79582e+09
3.22583e+08
1.15466e+08
5.80521e+07
3.55104e+07
2.46515e+07
1.86145e+07
1.48385e+07
1.22391e+07
1.03161e+07
8.82169e+06
7.61657e+06
6.62029e+06
5.78265e+06
5.07087e+06
4.46045e+06
3.93409e+06
3.47889e+06
3.08407e+06
2.74169e+06
2.44471e+06
2.18655e+06
1.96079e+06
1.76254e+06
1.58746e+06
1.4325e+06
1.29496e+06
1.17295e+06
1.06459e+06
968209
882512
806294
738362
677855
624392
577512
536698
501557
471674
446243
424539
405441
386765
365226
338490
304951
253783
180172
133583
126440
131937
141499
153110
166546
182083
200117
221235
246535
276496
314741
362985
414483
481590
576578
707866
898031
1.19193e+06
1.68875e+06
2.64554e+06
4.8988e+06
1.23181e+07
5.74182e+07
1.79622e+09
3.22654e+08
1.15486e+08
5.80566e+07
3.55051e+07
2.46418e+07
1.85996e+07
1.48228e+07
1.22221e+07
1.02995e+07
8.80532e+06
7.60101e+06
6.60414e+06
5.7659e+06
5.05383e+06
4.44483e+06
3.92013e+06
3.46621e+06
3.07283e+06
2.73133e+06
2.43488e+06
2.17666e+06
1.95119e+06
1.75337e+06
1.57917e+06
1.42497e+06
1.2882e+06
1.16659e+06
1.05854e+06
962473
876954
800873
733222
672982
619416
572239
531087
495554
465168
439361
417287
398044
380095
360643
336527
307026
265632
199832
138887
121489
123607
131400
141494
153234
166736
182279
200361
221746
246484
277577
317143
362190
411060
481822
577042
708446
898812
1.193e+06
1.69029e+06
2.64801e+06
4.90346e+06
1.23298e+07
5.74595e+07
1.79653e+09
3.22722e+08
1.15507e+08
5.80608e+07
3.55032e+07
2.46333e+07
1.85884e+07
1.48088e+07
1.22078e+07
1.02846e+07
8.79067e+06
7.58653e+06
6.59024e+06
5.75134e+06
5.03859e+06
4.42935e+06
3.906e+06
3.45366e+06
3.0614e+06
2.72113e+06
2.42535e+06
2.16769e+06
1.94219e+06