/*--------------------------------*- C++ -*----------------------------------*\
| =========                 |                                                 |
| \\      /  F ield         | OpenFOAM: The Open Source CFD Toolbox           |
|  \\    /   O peration     | Version:  v2012                                 |
|   \\  /    A nd           | Website:  www.openfoam.com                      |
|    \\/     M anipulation  |                                                 |
\*---------------------------------------------------------------------------*/
FoamFile
{
    version     2.0;
    format      ascii;
    class       volScalarField;
    location    "13200";
    object      p;
}
// * * * * * * * * * * * * * * * * * * * * * * * * * * * * * * * * * * * * * //

dimensions      [1 -1 -2 0 0 0 0];


internalField   nonuniform List<scalar> 
39402
(
4472.56
3686.22
4475.54
2928.06
3688.04
4446.35
2835.36
2928.13
3690.76
4418.55
2794.18
2835.36
2928.12
3693.74
4388.85
2794.62
2794.15
2835.36
2928.1
3695.64
4361.99
2821.27
2794.6
2794.14
2835.36
2928.13
3697.54
4330.93
2843.85
2821.25
2794.59
2794.11
2835.36
2928.19
3699.66
4296.64
2857.93
2843.85
2821.24
2794.57
2794.08
2835.37
2928.3
3702.41
4260.08
2864.01
2857.93
2843.84
2821.22
2794.54
2794.05
2835.38
2928.37
3705.62
4219.19
2867.61
2864.01
2857.93
2843.83
2821.2
2794.5
2794.01
2835.36
2928.47
3709.84
4177
2868.87
2867.62
2864.01
2857.92
2843.81
2821.17
2794.46
2793.98
2835.37
2928.7
3714.81
4132.6
2869.2
2868.87
2867.62
2864
2857.92
2843.79
2821.13
2794.43
2793.97
2835.39
2928.92
3721.47
4086.22
2867.03
2869.19
2868.88
2867.63
2864
2857.91
2843.76
2821.09
2794.39
2793.98
2835.43
2929.2
3729.55
4037.58
2865.71
2867.03
2869.21
2868.88
2867.64
2864.01
2857.91
2843.73
2821.04
2794.36
2794.03
2835.53
2929.48
3739.46
3988.22
2864.73
2865.71
2867.03
2869.2
2868.88
2867.65
2864.02
2857.9
2843.7
2821
2794.34
2794.12
2835.64
2929.81
3750.94
3937.42
2863.69
2864.76
2865.72
2867.03
2869.2
2868.89
2867.67
2864.03
2857.89
2843.66
2820.95
2794.33
2794.25
2836.03
2930.37
3764.54
3885.21
2862.33
2863.69
2864.75
2865.72
2867.03
2869.2
2868.9
2867.69
2864.04
2857.88
2843.63
2820.9
2794.34
2794.44
2836.56
2931.19
3779.51
3832.2
2860.12
2862.33
2863.69
2864.75
2865.72
2867.02
2869.2
2868.91
2867.72
2864.07
2857.86
2843.58
2820.86
2794.4
2794.4
2836.91
2932.25
3796.96
3782.55
2855.65
2860.12
2862.33
2863.7
2864.75
2865.72
2867.02
2869.2
2868.92
2867.75
2864.1
2857.86
2843.54
2820.84
2794.45
2795.19
2837.61
2933.99
3814.06
3733.32
2853.54
2855.66
2860.13
2862.33
2863.69
2864.75
2865.73
2867.01
2869.19
2868.94
2867.79
2864.14
2857.85
2843.49
2820.82
2794.57
2795.33
2838.35
2936.33
3831.83
3701.47
2854.13
2853.54
2855.66
2860.13
2862.33
2863.68
2864.76
2865.74
2867.01
2869.19
2868.96
2867.83
2864.18
2857.84
2843.47
2820.84
2794.54
2795.6
2839.16
2940.27
3840.55
3674.2
2849.49
2854.13
2853.54
2855.66
2860.14
2862.32
2863.67
2864.77
2865.74
2867
2869.19
2868.99
2867.87
2864.22
2857.82
2843.45
2820.88
2795.26
2795.83
2840.23
2947.28
3839.1
3640.08
2847.73
2849.49
2854.13
2853.54
2855.67
2860.15
2862.31
2863.66
2864.78
2865.75
2866.99
2869.19
2869.02
2867.92
2864.26
2857.79
2843.46
2820.95
2795.44
2796.43
2841.42
2958.46
3826.44
3617.16
2845.54
2847.75
2849.49
2854.12
2853.54
2855.68
2860.16
2862.3
2863.65
2864.79
2865.77
2866.98
2869.19
2869.06
2867.98
2864.31
2857.81
2843.45
2821.19
2795.77
2797
2842.62
2977.79
3807.18
3565.04
2843.89
2845.54
2847.75
2849.5
2854.12
2853.54
2855.69
2860.18
2862.29
2863.64
2864.81
2865.78
2866.97
2869.2
2869.1
2868.03
2864.34
2857.79
2843.59
2821.44
2796.12
2797.87
2844.04
3003.6
3793.05
3496.6
2841.37
2843.89
2845.54
2847.75
2849.5
2854.12
2853.54
2855.71
2860.2
2862.28
2863.63
2864.83
2865.8
2866.97
2869.21
2869.15
2868.09
2864.39
2857.8
2843.63
2821.77
2796.58
2798.85
2845.25
3038.21
3773.66
3416.5
2839.74
2841.37
2843.88
2845.54
2847.76
2849.51
2854.11
2853.54
2855.73
2860.22
2862.27
2863.61
2864.85
2865.82
2866.97
2869.23
2869.21
2868.15
2864.42
2857.83
2843.84
2822.09
2796.99
2800.08
2847.32
3080.15
3763.01
3326.01
2837.09
2839.74
2841.37
2843.88
2845.54
2847.77
2849.51
2854.11
2853.54
2855.75
2860.25
2862.25
2863.6
2864.88
2865.84
2866.98
2869.27
2869.28
2868.22
2864.47
2857.89
2844.08
2822.62
2797.65
2801.22
2849.16
3132.56
3738.09
3233.07
2835.59
2837.11
2839.75
2841.37
2843.88
2845.54
2847.78
2849.52
2854.1
2853.53
2855.78
2860.28
2862.24
2863.59
2864.91
2865.87
2866.99
2869.32
2869.35
2868.28
2864.52
2857.99
2844.37
2823.1
2798.45
2802.43
2853.91
3191.58
3728.28
3131.71
2833.3
2835.59
2837.11
2839.75
2841.37
2843.87
2845.54
2847.79
2849.53
2854.09
2853.53
2855.82
2860.31
2862.22
2863.58
2864.94
2865.9
2867.01
2869.38
2869.46
2868.36
2864.58
2858.15
2844.79
2823.61
2799.96
2802.59
2857.09
3259.46
3720.54
3031.32
2833.14
2833.3
2835.59
2837.11
2839.76
2841.37
2843.86
2845.54
2847.81
2849.55
2854.08
2853.53
2855.85
2860.35
2862.21
2863.57
2864.98
2865.94
2867.04
2869.45
2869.58
2868.45
2864.67
2858.39
2845.25
2824.11
2801.3
2802.3
2868.38
3326.88
3706.32
2930.63
2831.24
2833.13
2833.31
2835.59
2837.12
2839.76
2841.37
2843.84
2845.54
2847.84
2849.56
2854.07
2853.53
2855.9
2860.39
2862.2
2863.57
2865.02
2865.98
2867.09
2869.55
2869.7
2868.55
2864.81
2858.72
2845.81
2824.87
2804.88
2800.84
2876.52
3390.98
3679.21
2834.29
2828.03
2831.24
2833.13
2833.3
2835.59
2837.13
2839.77
2841.36
2843.83
2845.54
2847.87
2849.58
2854.06
2853.53
2855.94
2860.44
2862.2
2863.58
2865.06
2866.03
2867.16
2869.66
2869.85
2868.68
2865
2859.18
2846.33
2825.95
2806.07
2801.54
2890.68
3449.65
3643.36
2746.14
2825.97
2828.04
2831.24
2833.13
2833.3
2835.6
2837.14
2839.79
2841.36
2843.81
2845.54
2847.9
2849.6
2854.05
2853.54
2855.98
2860.48
2862.21
2863.6
2865.11
2866.09
2867.25
2869.79
2870.01
2868.84
2865.26
2859.7
2846.99
2827.66
2811.13
2801.24
2915.28
3500.82
3591.68
2669.64
2824.85
2825.97
2828.04
2831.24
2833.13
2833.3
2835.6
2837.15
2839.8
2841.35
2843.79
2845.54
2847.93
2849.62
2854.05
2853.55
2856.03
2860.53
2862.22
2863.63
2865.16
2866.17
2867.36
2869.94
2870.2
2869.05
2865.63
2860.37
2847.67
2829.82
2806.05
2806.05
2949.32
3538.33
3535.41
2609.32
2824.51
2824.86
2825.97
2828.04
2831.24
2833.12
2833.3
2835.6
2837.17
2839.82
2841.35
2843.77
2845.54
2847.97
2849.64
2854.04
2853.56
2856.07
2860.58
2862.25
2863.67
2865.21
2866.25
2867.5
2870.12
2870.4
2869.31
2866.09
2860.88
2849.36
2833.19
2807.71
2808.76
2995.37
3554.98
3457.56
2573.35
2823.91
2824.51
2824.86
2825.98
2828.05
2831.24
2833.12
2833.29
2835.6
2837.19
2839.84
2841.34
2843.74
2845.55
2848.01
2849.67
2854.05
2853.57
2856.12
2860.63
2862.3
2863.72
2865.27
2866.35
2867.67
2870.32
2870.62
2869.63
2866.68
2861.66
2850.23
2836.26
2799.21
2813.95
3056.69
3551.65
3355.76
2555.65
2821.19
2823.91
2824.51
2824.86
2825.98
2828.05
2831.24
2833.11
2833.29
2835.61
2837.21
2839.86
2841.33
2843.71
2845.55
2848.05
2849.7
2854.05
2853.59
2856.16
2860.68
2862.36
2863.79
2865.34
2866.47
2867.87
2870.56
2870.87
2870.02
2867.27
2862.27
2854.68
2832.72
2800.69
2827.31
3134.37
3536.97
3220.16
2543.88
2817.51
2821.19
2823.91
2824.5
2824.86
2825.99
2828.06
2831.24
2833.1
2833.28
2835.61
2837.23
2839.89
2841.33
2843.69
2845.56
2848.1
2849.74
2854.07
2853.61
2856.19
2860.73
2862.43
2863.88
2865.42
2866.61
2868.12
2870.85
2871.14
2870.48
2867.98
2864.25
2856.43
2837.23
2803.94
2841.56
3207.29
3533.92
3084.3
2534.51
2816.04
2817.51
2821.19
2823.9
2824.49
2824.86
2826
2828.07
2831.24
2833.09
2833.27
2835.62
2837.26
2839.91
2841.33
2843.67
2845.56
2848.14
2849.77
2854.1
2853.64
2856.23
2860.77
2862.53
2864
2865.51
2866.78
2868.4
2871.18
2871.45
2870.96
2868.54
2864.49
2859.26
2823.83
2802.89
2870.84
3275.15
3503.73
2947.01
2527.2
2816.85
2816.05
2817.51
2821.19
2823.9
2824.51
2824.87
2826.01
2828.08
2831.24
2833.08
2833.27
2835.63
2837.29
2839.94
2841.32
2843.65
2845.58
2848.18
2849.81
2854.13
2853.67
2856.26
2860.82
2862.65
2864.13
2865.62
2866.97
2868.73
2871.56
2871.8
2871.41
2870.35
2870.79
2852
2825.47
2806.06
2909.26
3326.32
3468.9
2825.23
2521.47
2817.13
2816.85
2816.05
2817.51
2821.19
2823.9
2824.5
2824.87
2826.02
2828.09
2831.24
2833.07
2833.26
2835.64
2837.32
2839.98
2841.33
2843.64
2845.59
2848.21
2849.86
2854.18
2853.72
2856.29
2860.88
2862.79
2864.29
2865.76
2867.18
2869.11
2872.01
2872.22
2871.72
2870.79
2871.31
2856.32
2820.62
2807.29
2965.51
3371.7
3401.51
2721.45
2517.26
2815.34
2817.13
2816.85
2816.05
2817.51
2821.19
2823.9
2824.51
2824.88
2826.03
2828.1
2831.24
2833.05
2833.25
2835.65
2837.36
2840.01
2841.34
2843.64
2845.6
2848.25
2849.9
2854.25
2853.77
2856.32
2860.93
2862.95
2864.48
2865.93
2867.43
2869.53
2872.53
2872.65
2872.96
2875.6
2872.86
2844.86
2817.76
2816.27
3028.93
3387.14
3315.69
2643.38
2514.23
2813.36
2815.34
2817.13
2816.85
2816.05
2817.52
2821.19
2823.89
2824.5
2824.88
2826.05
2828.12
2831.24
2833.04
2833.25
2835.66
2837.39
2840.05
2841.35
2843.65
2845.62
2848.27
2849.95
2854.33
2853.84
2856.35
2860.99
2863.13
2864.7
2866.14
2867.72
2870
2873.14
2873.14
2873.62
2877.42
2866.43
2846.24
2815.46
2826.81
3107.23
3387.36
3191.08
2587.14
2512.22
2811.04
2813.36
2815.34
2817.12
2816.85
2816.05
2817.52
2821.19
2823.89
2824.5
2824.89
2826.07
2828.13
2831.25
2833.03
2833.24
2835.68
2837.42
2840.09
2841.37
2843.67
2845.64
2848.3
2850.01
2854.42
2853.92
2856.39
2861.05
2863.32
2864.96
2866.41
2868.06
2870.48
2873.71
2874.29
2877.2
2881.21
2871.03
2840.51
2814.93
2850.37
3183.09
3378.1
3043.07
2552.09
2510.9
2808.63
2811.04
2813.36
2815.34
2817.12
2816.85
2816.06
2817.53
2821.19
2823.89
2824.49
2824.9
2826.09
2828.15
2831.25
2833.02
2833.24
2835.69
2837.45
2840.13
2841.41
2843.7
2845.67
2848.32
2850.06
2854.53
2854.03
2856.45
2861.13
2863.52
2865.26
2866.74
2868.45
2871
2874.34
2875.58
2879.63
2877.21
2860.97
2835.94
2815.1
2891.02
3238.31
3361.66
2888.43
2533.51
2510.07
2807.1
2808.63
2811.05
2813.37
2815.34
2817.12
2816.85
2816.06
2817.53
2821.2
2823.88
2824.49
2824.91
2826.12
2828.18
2831.26
2833.01
2833.24
2835.7
2837.48
2840.17
2841.45
2843.75
2845.7
2848.34
2850.12
2854.65
2854.15
2856.53
2861.22
2863.74
2865.6
2867.15
2868.92
2871.43
2875.04
2878.37
2885.04
2877.86
2863.64
2830.82
2819.08
2949.09
3287.6
3310.24
2749.27
2523.17
2509.57
2807.9
2807.1
2808.63
2811.05
2813.37
2815.34
2817.11
2816.85
2816.06
2817.54
2821.2
2823.88
2824.48
2824.93
2826.14
2828.2
2831.27
2833.01
2833.25
2835.72
2837.51
2840.21
2841.51
2843.81
2845.74
2848.35
2850.18
2854.78
2854.31
2856.64
2861.34
2863.97
2865.96
2867.65
2869.5
2871.9
2876.28
2880.87
2884.64
2876.42
2854.86
2826.46
2828.88
3016.61
3301.83
3226.97
2645.68
2516.7
2509.29
2809.73
2807.9
2807.1
2808.64
2811.06
2813.37
2815.34
2817.11
2816.85
2816.07
2817.55
2821.2
2823.87
2824.47
2824.94
2826.17
2828.23
2831.28
2833.01
2833.26
2835.73
2837.54
2840.25
2841.57
2843.89
2845.78
2848.37
2850.24
2854.93
2854.5
2856.78
2861.49
2864.2
2866.36
2868.24
2870.13
2872.39
2877.35
2885.95
2883.19
2875.48
2852.48
2825.27
2839.61
3102.53
3299.63
3084.01
2578.77
2512.86
2509.14
2810.69
2809.73
2807.9
2807.11
2808.65
2811.07
2813.38
2815.34
2817.1
2816.85
2816.08
2817.56
2821.2
2823.86
2824.47
2824.95
2826.2
2828.26
2831.3
2833.03
2833.27
2835.74
2837.56
2840.29
2841.65
2843.99
2845.84
2848.39
2850.31
2855.07
2854.73
2856.98
2861.69
2864.45
2866.78
2868.92
2870.91
2873.79
2878.98
2884.6
2882.72
2872.06
2843.35
2823.17
2873.45
3167.43
3285.52
2919.13
2541.65
2510.82
2509.06
2809.8
2810.7
2809.72
2807.9
2807.11
2808.65
2811.08
2813.39
2815.34
2817.1
2816.85
2816.09
2817.57
2821.21
2823.85
2824.46
2824.96
2826.23
2828.29
2831.32
2833.05
2833.3
2835.76
2837.58
2840.33
2841.74
2844.1
2845.91
2848.43
2850.38
2855.23
2855
2857.24
2861.95
2864.72
2867.2
2869.58
2871.9
2875.1
2883.91
2883.26
2880.63
2868.28
2839.06
2827.15
2927.64
3221.18
3254.92
2758.3
2524.16
2509.82
2509.03
2806.72
2809.8
2810.69
2809.72
2807.89
2807.11
2808.67
2811.1
2813.4
2815.34
2817.09
2816.84
2816.1
2817.58
2821.21
2823.84
2824.45
2824.98
2826.26
2828.32
2831.35
2833.08
2833.32
2835.77
2837.6
2840.37
2841.84
2844.24
2846
2848.49
2850.46
2855.38
2855.3
2857.57
2862.29
2865.04
2867.64
2870.29
2873.61
2876.54
2883.71
2883.84
2880.53
2863.82
2835
2838.54
2994.36
3242.14
3163.02
2638.76
2515.97
2509.34
2509.01
2803.18
2806.72
2809.8
2810.68
2809.71
2807.89
2807.11
2808.68
2811.12
2813.41
2815.33
2817.08
2816.84
2816.11
2817.6
2821.22
2823.84
2824.44
2824.99
2826.29
2828.36
2831.39
2833.13
2833.36
2835.79
2837.61
2840.41
2841.95
2844.38
2846.11
2848.58
2850.54
2855.52
2855.64
2857.97
2862.72
2865.42
2868.03
2871.01
2875.38
2883.66
2884.98
2884.02
2879.77
2857.35
2832.94
2850.4
3082.7
3237.29
3014.95
2566.85
2511.93
2509.13
2509
2800.13
2803.17
2806.72
2809.8
2810.67
2809.7
2807.88
2807.12
2808.7
2811.14
2813.42
2815.33
2817.06
2816.84
2816.13
2817.62
2821.23
2823.83
2824.43
2825
2826.32
2828.4
2831.43
2833.18
2833.4
2835.82
2837.63
2840.45
2842.06
2844.55
2846.25
2848.7
2850.63
2855.67
2856
2858.45
2863.28
2865.95
2868.48
2872.25
2876.31
2883.84
2884.84
2886.07
2877.34
2850.1
2828.55
2882.47
3138.38
3217.95
2834.15
2531.82
2510.15
2509.05
2509
2797.88
2800.12
2803.18
2806.73
2809.79
2810.66
2809.68
2807.87
2807.12
2808.72
2811.16
2813.43
2815.32
2817.05
2816.84
2816.15
2817.65
2821.24
2823.82
2824.41
2825.01
2826.34
2828.44
2831.48
2833.25
2833.46
2835.86
2837.65
2840.48
2842.17
2844.72
2846.42
2848.88
2850.75
2855.82
2856.4
2859
2863.94
2866.53
2869.2
2873.55
2881.54
2883.4
2884.93
2884.17
2873.57
2842.45
2834.33
2943.04
3192.2
3171.03
2679.33
2517.85
2509.41
2509.02
2509
2796.98
2797.86
2800.13
2803.18
2806.74
2809.78
2810.64
2809.67
2807.86
2807.13
2808.74
2811.19
2813.44
2815.32
2817.03
2816.84
2816.17
2817.68
2821.26
2823.82
2824.4
2825.02
2826.37
2828.48
2831.54
2833.33
2833.53
2835.9
2837.68
2840.52
2842.28
2844.9
2846.62
2849.11
2850.89
2855.97
2856.8
2859.58
2864.75
2867.39
2870.49
2874.3
2880.71
2883.32
2883.1
2881.89
2868.86
2841.18
2851.85
3027.93
3194.81
3031.15
2581.67
2512.24
2509.14
2509
2509
2797.44
2796.96
2797.87
2800.13
2803.18
2806.73
2809.78
2810.62
2809.64
2807.85
2807.14
2808.77
2811.22
2813.45
2815.31
2817.02
2816.84
2816.2
2817.71
2821.27
2823.81
2824.39
2825.03
2826.4
2828.52
2831.6
2833.41
2833.61
2835.97
2837.72
2840.56
2842.38
2845.09
2846.84
2849.41
2851.06
2856.15
2857.23
2860.2
2865.49
2868.7
2872.6
2879.39
2880.88
2882.9
2882.44
2879.48
2862.54
2840.67
2872.07
3088.5
3175.04
2853.31
2534.32
2510.09
2509.04
2509
2509
2799.41
2797.43
2796.97
2797.87
2800.13
2803.18
2806.74
2809.77
2810.6
2809.62
2807.83
2807.15
2808.8
2811.26
2813.47
2815.3
2817
2816.85
2816.24
2817.75
2821.29
2823.8
2824.37
2825.03
2826.43
2828.56
2831.66
2833.5
2833.7
2836.06
2837.77
2840.61
2842.48
2845.27
2847.09
2849.78
2851.3
2856.37
2857.66
2860.7
2866.27
2870.36
2874.58
2879.55
2882.05
2883.67
2883.34
2877.49
2853.21
2831.9
2914.04
3151.07
3130.33
2680.64
2517.15
2509.33
2509.01
2509
2509
2800.84
2799.41
2797.43
2796.97
2797.87
2800.13
2803.18
2806.74
2809.75
2810.57
2809.59
2807.82
2807.16
2808.83
2811.29
2813.48
2815.29
2816.98
2816.85
2816.28
2817.79
2821.31
2823.8
2824.36
2825.04
2826.45
2828.6
2831.72
2833.6
2833.81
2836.18
2837.85
2840.67
2842.58
2845.44
2847.36
2850.24
2851.6
2856.68
2858.17
2861.2
2867.2
2872.44
2879.57
2880.78
2883.5
2885.91
2884.81
2873.07
2845.43
2837.46
3006.5
3157.85
3008.94
2575.85
2511.55
2509.09
2509
2509
2509
2801.66
2800.85
2799.41
2797.43
2796.96
2797.87
2800.13
2803.18
2806.74
2809.74
2810.54
2809.56
2807.8
2807.18
2808.87
2811.33
2813.49
2815.27
2816.97
2816.86
2816.32
2817.84
2821.34
2823.79
2824.35
2825.05
2826.48
2828.64
2831.78
2833.7
2833.94
2836.32
2837.96
2840.75
2842.67
2845.59
2847.64
2850.78
2851.99
2857.09
2858.69
2861.4
2868.12
2875.38
2879.15
2881.28
2884.82
2886.53
2885.35
2868.23
2846.4
2882.9
3072.72
3155.22
2813.05
2529.03
2509.72
2509.02
2509
2509
2509
2801.59
2801.68
2800.85
2799.41
2797.43
2796.96
2797.87
2800.13
2803.18
2806.73
2809.72
2810.5
2809.53
2807.79
2807.2
2808.91
2811.37
2813.5
2815.26
2816.95
2816.88
2816.38
2817.9
2821.36
2823.79
2824.34
2825.07
2826.52
2828.68
2831.83
2833.8
2834.09
2836.5
2838.09
2840.85
2842.77
2845.73
2847.91
2851.37
2852.47
2857.7
2859.54
2862.5
2868.41
2877.24
2878.16
2881.4
2884.19
2885.91
2881.61
2864.01
2852.77
2916.09
3122.44
3065.82
2647.67
2514.41
2509.19
2509.01
2509
2509
2509
2801.18
2801.62
2801.69
2800.86
2799.41
2797.42
2796.95
2797.87
2800.13
2803.18
2806.72
2809.7
2810.46
2809.5
2807.78
2807.22
2808.95
2811.41
2813.51
2815.24
2816.93
2816.89
2816.44
2817.95
2821.39
2823.79
2824.34
2825.09
2826.55
2828.72
2831.88
2833.89
2834.24
2836.72
2838.27
2840.99
2842.86
2845.87
2848.18
2852.03
2853.06
2858.32
2860.47
2863.01
2873.46
2875.96
2877.88
2880.12
2882.79
2881.82
2876.08
2853.24
2846.51
2986.41
3116.11
2944.05
2553.67
2510.44
2509.04
2509
2509
2509
2509
2800.25
2801.21
2801.63
2801.7
2800.87
2799.41
2797.42
2796.95
2797.87
2800.12
2803.17
2806.71
2809.68
2810.42
2809.46
2807.77
2807.25
2808.99
2811.45
2813.52
2815.22
2816.91
2816.92
2816.5
2818.01
2821.42
2823.79
2824.34
2825.12
2826.6
2828.76
2831.92
2833.97
2834.41
2836.97
2838.5
2841.18
2842.99
2846.01
2848.42
2852.64
2853.62
2859.31
2862.8
2863.98
2873.75
2876.24
2877.48
2880.26
2882.39
2880.26
2866.37
2845.14
2866.5
3063.96
3111
2735.94
2520.35
2509.33
2509.01
2509
2509
2509
2509
2799.09
2800.28
2801.22
2801.65
2801.72
2800.89
2799.42
2797.42
2796.94
2797.86
2800.12
2803.17
2806.7
2809.66
2810.38
2809.43
2807.76
2807.28
2809.04
2811.48
2813.53
2815.2
2816.9
2816.95
2816.58
2818.08
2821.45
2823.79
2824.36
2825.17
2826.65
2828.8
2831.94
2834.04
2834.59
2837.26
2838.77
2841.43
2843.15
2846.17
2848.66
2853.35
2854.18
2860.11
2864.52
2870.33
2875.09
2876.81
2878.97
2881.74
2883.91
2880.89
2860.59
2848.42
2947.59
3099.38
3006.56
2594.67
2511.53
2509.07
2509
2509
2509
2509
2509
2797.5
2799.12
2800.3
2801.25
2801.68
2801.75
2800.9
2799.42
2797.41
2796.93
2797.86
2800.11
2803.16
2806.68
2809.63
2810.34
2809.4
2807.75
2807.31
2809.08
2811.51
2813.53
2815.18
2816.89
2816.98
2816.66
2818.15
2821.48
2823.8
2824.39
2825.23
2826.73
2828.83
2831.95
2834.09
2834.77
2837.57
2839.09
2841.74
2843.39
2846.43
2848.85
2853.84
2854.46
2862.07
2866.22
2871.23
2876.21
2879.62
2881.81
2885.31
2888.08
2881.94
2857.69
2877.67
3007.25
3099.83
2826.85
2529.98
2509.54
2509.01
2509
2509
2509
2509
2509
2795.96
2797.51
2799.13
2800.32
2801.28
2801.72
2801.79
2800.92
2799.43
2797.41
2796.92
2797.85
2800.1
2803.15
2806.66
2809.61
2810.3
2809.38
2807.75
2807.34
2809.12
2811.54
2813.52
2815.16
2816.88
2817.03
2816.74
2818.21
2821.51
2823.81
2824.43
2825.32
2826.82
2828.88
2831.95
2834.12
2834.94
2837.89
2839.45
2842.14
2843.71
2846.79
2849.12
2854.66
2855.28
2862.78
2869.64
2873.13
2877.8
2880.66
2883.71
2886.53
2886.78
2875.3
2861.91
2888.04
3066.25
3032.66
2642
2513.18
2509.1
2509
2509
2509
2509
2509
2509
2794.48
2795.96
2797.52
2799.15
2800.36
2801.33
2801.77
2801.83
2800.95
2799.44
2797.4
2796.9
2797.83
2800.09
2803.14
2806.64
2809.59
2810.27
2809.37
2807.75
2807.38
2809.17
2811.56
2813.51
2815.14
2816.88
2817.09
2816.83
2818.28
2821.54
2823.82
2824.49
2825.42
2826.93
2828.93
2831.94
2834.14
2835.11
2838.22
2839.84
2842.62
2844.2
2847.38
2849.29
2855.13
2855.62
2866.57
2869.5
2873.13
2877.69
2880.2
2882.66
2882.89
2880.96
2864.33
2847.32
2951.49
3063.01
2898.69
2544.21
2509.81
2509.02
2509
2509
2509
2509
2509
2509
2793.38
2794.47
2795.96
2797.53
2799.17
2800.4
2801.38
2801.82
2801.88
2800.98
2799.45
2797.39
2796.88
2797.81
2800.07
2803.12
2806.62
2809.57
2810.24
2809.35
2807.77
2807.42
2809.21
2811.58
2813.5
2815.12
2816.89
2817.15
2816.93
2818.35
2821.57
2823.84
2824.56
2825.56
2827.08
2829
2831.93
2834.15
2835.26
2838.53
2840.25
2843.18
2844.73
2848.14
2849.76
2857.2
2856.05
2867.23
2868.11
2872.76
2876.47
2878.23
2879.58
2880.89
2871.57
2853.11
2865.55
3025.05
3052.5
2688.19
2515.59
2509.14
2509
2509
2509
2509
2509
2509
2509
2792.44
2793.36
2794.47
2795.96
2797.54
2799.21
2800.46
2801.46
2801.9
2801.94
2801.01
2799.46
2797.37
2796.86
2797.79
2800.05
2803.1
2806.6
2809.55
2810.23
2809.35
2807.79
2807.46
2809.24
2811.58
2813.48
2815.11
2816.9
2817.23
2817.03
2818.42
2821.59
2823.87
2824.65
2825.72
2827.26
2829.1
2831.93
2834.16
2835.39
2838.82
2840.63
2843.79
2845.59
2849.26
2850.21
2858.23
2861.73
2866.06
2868.4
2872.99
2876.22
2878.37
2880.87
2880.06
2868.34
2858.11
2930.44
3052.93
2931.29
2561.58
2510.08
2509.02
2509
2509
2509
2509
2509
2509
2509
2791.75
2792.42
2793.35
2794.46
2795.97
2797.56
2799.26
2800.53
2801.54
2801.98
2802.01
2801.05
2799.48
2797.36
2796.82
2797.75
2800.01
2803.08
2806.58
2809.54
2810.22
2809.36
2807.82
2807.51
2809.27
2811.58
2813.46
2815.1
2816.93
2817.32
2817.13
2818.49
2821.61
2823.89
2824.77
2825.92
2827.49
2829.23
2831.96
2834.18
2835.52
2839.08
2841.05
2844.44
2846.04
2850.54
2852.67
2860.3
2862.7
2866.86
2870.29
2874.57
2877.87
2881.39
2884.88
2884.1
2866.12
2880.98
2998.27
3047.76
2729.83
2518.23
2509.16
2509
2509
2509
2509
2509
2509
2509
2509
2791.14
2791.72
2792.41
2793.33
2794.44
2795.97
2797.59
2799.32
2800.61
2801.64
2802.08
2802.09
2801.1
2799.49
2797.33
2796.78
2797.71
2799.97
2803.04
2806.56
2809.54
2810.22
2809.38
2807.86
2807.55
2809.3
2811.58
2813.43
2815.1
2816.96
2817.41
2817.23
2818.55
2821.62
2823.92
2824.89
2826.14
2827.77
2829.41
2832.03
2834.25
2835.65
2839.33
2841.3
2845.04
2847.17
2852.26
2853.04
2863.25
2865.34
2868.97
2872.89
2877.32
2880.86
2884.31
2889.07
2880.12
2869.56
2900.69
3031.4
2931.68
2575.96
2510.28
2509.02
2509
2509
2509
2509
2509
2509
2509
2509
2790.7
2791.11
2791.7
2792.38
2793.31
2794.43
2795.97
2797.62
2799.39
2800.72
2801.76
2802.2
2802.19
2801.16
2799.51
2797.31
2796.74
2797.66
2799.92
2803
2806.55
2809.54
2810.23
2809.42
2807.91
2807.59
2809.32
2811.56
2813.41
2815.11
2817.01
2817.52
2817.34
2818.6
2821.63
2823.95
2825.03
2826.4
2828.11
2829.67
2832.18
2834.4
2835.8
2839.56
2841.7
2845.55
2847.23
2854.08
2859.8
2863.82
2866.12
2871.06
2875.09
2879.18
2882.33
2885.47
2884.22
2870.7
2856.86
2960.22
3016.25
2757.5
2520.46
2509.17
2509
2509
2509
2509
2509
2509
2509
2509
2509
2790.29
2790.66
2791.09
2791.67
2792.34
2793.27
2794.41
2795.98
2797.67
2799.47
2800.84
2801.91
2802.34
2802.3
2801.22
2799.52
2797.27
2796.68
2797.59
2799.86
2802.96
2806.53
2809.55
2810.26
2809.46
2807.97
2807.64
2809.34
2811.54
2813.39
2815.13
2817.08
2817.63
2817.45
2818.66
2821.62
2823.98
2825.18
2826.67
2828.49
2830.02
2832.42
2834.68
2836.04
2839.88
2841.7
2846.08
2849.57
2854.12
2860.14
2863.07
2867.32
2871.34
2875.26
2878.46
2880.1
2880.54
2874.55
2856.5
2886.01
3005.61
2972.06
2585.16
2510.37
2509.02
2509
2509
2509
2509
2509
2509
2509
2509
2509
2789.94
2790.26
2790.63
2791.04
2791.62
2792.29
2793.23
2794.38
2795.99
2797.72
2799.57
2800.98
2802.07
2802.5
2802.43
2801.3
2799.54
2797.23
2796.62
2797.52
2799.79
2802.91
2806.52
2809.57
2810.31
2809.53
2808.03
2807.68
2809.34
2811.51
2813.37
2815.16
2817.16
2817.76
2817.56
2818.71
2821.61
2824
2825.33
2826.96
2828.93
2830.47
2832.79
2835.16
2836.32
2840.26
2842.31
2846.49
2848.08
2857.7
2859.18
2863.28
2866.77
2870.64
2874.2
2876.56
2877.94
2878.13
2867.96
2863.48
2949.65
3027.87
2755.98
2521.82
2509.16
2509
2509
2509
2509
2509
2509
2509
2509
2509
2509
2789.65
2789.9
2790.22
2790.58
2790.99
2791.56
2792.23
2793.17
2794.35
2796
2797.78
2799.69
2801.15
2802.26
2802.68
2802.57
2801.38
2799.55
2797.18
2796.53
2797.42
2799.7
2802.86
2806.52
2809.61
2810.37
2809.6
2808.1
2807.72
2809.35
2811.48
2813.36
2815.2
2817.25
2817.9
2817.69
2818.76
2821.6
2824.02
2825.47
2827.25
2829.4
2831.01
2833.27
2835.83
2836.94
2840.79
2841.82
2848.21
2853.72
2856.09
2859.21
2862.43
2866.17
2870.79
2875.06
2877.9
2880.4
2881.04
2868.67
2901.74
3003.16
2929.18
2592.09
2510.36
2509.02
2509
2509
2509
2509
2509
2509
2509
2509
2509
2509
2789.5
2789.63
2789.87
2790.17
2790.52
2790.91
2791.47
2792.14
2793.1
2794.32
2796.01
2797.86
2799.83
2801.34
2802.48
2802.88
2802.72
2801.46
2799.56
2797.12
2796.43
2797.32
2799.61
2802.81
2806.52
2809.66
2810.44
2809.69
2808.18
2807.76
2809.34
2811.45
2813.36
2815.26
2817.37
2818.05
2817.82
2818.81
2821.58
2824.03
2825.59
2827.53
2829.87
2831.6
2833.9
2836.78
2837.31
2841.71
2844.3
2847.58
2853.69
2857.13
2860.33
2863.64
2868.14
2873.3
2878.16
2883.31
2888.42
2882.06
2878.02
2928.91
2990.35
2772.14
2521.6
2509.16
2509
2509
2509
2509
2509
2509
2509
2509
2509
2509
2509
2789.41
2789.49
2789.6
2789.82
2790.1
2790.44
2790.82
2791.37
2792.04
2793.02
2794.27
2796.02
2797.95
2799.99
2801.56
2802.72
2803.1
2802.91
2801.56
2799.57
2797.06
2796.33
2797.2
2799.52
2802.76
2806.53
2809.72
2810.54
2809.78
2808.26
2807.79
2809.33
2811.42
2813.37
2815.34
2817.5
2818.21
2817.97
2818.86
2821.56
2824.04
2825.69
2827.75
2830.32
2832.28
2834.48
2837.85
2838.65
2842.62
2843.6
2852.38
2855.4
2858.68
2862.34
2866.32
2871.28
2876.73
2882.14
2886.54
2887.05
2876.01
2870.42
2981.58
2935.85
2585.16
2510.28
2509.02
2509
2509
2509
2509
2509
2509
2509
2509
2509
2509
2509
2789.41
2789.41
2789.46
2789.56
2789.76
2790.02
2790.34
2790.7
2791.24
2791.92
2792.92
2794.22
2796.04
2798.05
2800.17
2801.8
2802.98
2803.34
2803.08
2801.65
2799.58
2796.98
2796.2
2797.08
2799.42
2802.71
2806.55
2809.79
2810.64
2809.89
2808.34
2807.82
2809.32
2811.4
2813.39
2815.44
2817.64
2818.4
2818.15
2818.94
2821.57
2824.04
2825.75
2827.93
2830.7
2832.8
2835.24
2839.07
2838.92
2845.75
2850.45
2853.56
2856.28
2860.8
2864.65
2869.13
2874.24
2878.93
2882.5
2882.96
2878.26
2861.2
2930.81
2983.53
2746.06
2520.26
2509.15
2509
2509
2509
2509
2509
2509
2509
2509
2509
2509
2509
2509
2789.44
2789.41
2789.38
2789.42
2789.5
2789.68
2789.92
2790.21
2790.55
2791.08
2791.77
2792.81
2794.17
2796.06
2798.17
2800.38
2802.06
2803.27
2803.61
2803.27
2801.75
2799.58
2796.89
2796.07
2796.94
2799.31
2802.67
2806.57
2809.88
2810.76
2810
2808.43
2807.85
2809.31
2811.38
2813.43
2815.55
2817.81
2818.6
2818.36
2819.04
2821.6
2824.05
2825.81
2828.01
2830.99
2833.48
2835.46
2840.35
2842.07
2845.65
2850.93
2853.87
2857.93
2862.05
2866.39
2870.52
2874.51
2877.69
2878.01
2878.06
2863.44
2880.47
2971.2
2924.67
2576.17
2510.12
2509.02
2509
2509
2509
2509
2509
2509
2509
2509
2509
2509
2509
2509
2789.53
2789.45
2789.39
2789.36
2789.37
2789.42
2789.58
2789.79
2790.05
2790.37
2790.9
2791.6
2792.68
2794.1
2796.09
2798.3
2800.6
2802.35
2803.58
2803.87
2803.47
2801.84
2799.57
2796.79
2795.93
2796.8
2799.21
2802.63
2806.61
2809.98
2810.89
2810.13
2808.52
2807.88
2809.3
2811.37
2813.49
2815.69
2817.99
2818.82
2818.63
2819.19
2821.66
2824.08
2825.84
2828.08
2831.15
2833.69
2835.99
2841.37
2841.63
2850.29
2851.46
2854.21
2857.74
2862.03
2865.98
2869.74
2873.53
2876.47
2878.55
2874.14
2869.01
2931.12
2977.04
2720.22
2517.78
2509.12
2509
2509
2509
2509
2509
2509
2509
2509
2509
2509
2509
2509
2509
2789.67
2789.54
2789.44
2789.37
2789.32
2789.31
2789.32
2789.45
2789.62
2789.85
2790.15
2790.68
2791.4
2792.53
2794.03
2796.11
2798.44
2800.84
2802.66
2803.89
2804.15
2803.66
2801.94
2799.56
2796.68
2795.78
2796.65
2799.1
2802.59
2806.65
2810.09
2811.03
2810.25
2808.61
2807.91
2809.29
2811.37
2813.56
2815.84
2818.19
2819.06
2818.96
2819.42
2821.79
2824.16
2825.92
2828.04
2831.3
2834.41
2835.78
2843.52
2847.39
2849.76
2851.18
2853.69
2857.23
2860.99
2864.8
2869.99
2875.25
2879.88
2883.65
2876.65
2899.99
2967.21
2869.14
2563.13
2509.87
2509.01
2509
2509
2509
2509
2509
2509
2509
2509
2509
2509
2509
2509
2509
2789.84
2789.69
2789.53
2789.43
2789.34
2789.27
2789.23
2789.2
2789.28
2789.42
2789.62
2789.9
2790.43
2791.18
2792.37
2793.96
2796.15
2798.6
2801.09
2802.97
2804.22
2804.43
2803.86
2802.03
2799.54
2796.57
2795.63
2796.51
2799
2802.57
2806.71
2810.21
2811.18
2810.38
2808.7
2807.95
2809.28
2811.38
2813.65
2816
2818.41
2819.32
2819.36
2819.75
2822.03
2824.35
2826.05
2828.15
2831.29
2834.46
2837.11
2843
2847.48
2849.64
2851.4
2854.2
2857.27
2861
2866.59
2873.28
2879.6
2886.55
2886.79
2884.91
2924.89
2949.34
2694.85
2515.2
2509.09
2509
2509
2509
2509
2509
2509
2509
2509
2509
2509
2509
2509
2509
2509
2789.97
2789.85
2789.69
2789.53
2789.41
2789.31
2789.2
2789.12
2789.06
2789.09
2789.18
2789.35
2789.62
2790.15
2790.94
2792.19
2793.88
2796.19
2798.76
2801.36
2803.3
2804.55
2804.72
2804.06
2802.11
2799.51
2796.45
2795.48
2796.36
2798.91
2802.56
2806.77
2810.34
2811.34
2810.51
2808.79
2807.99
2809.29
2811.4
2813.76
2816.18
2818.63
2819.61
2819.84
2820.22
2822.39
2824.71
2826.41
2827.96
2831.36
2836.04
2835.91
2846.48
2847.4
2850.14
2853.24
2856.13
2859.07
2863.65
2870.4
2877.6
2883.63
2884.68
2881.39
2880.03
2946.47
2877.89
2546.6
2509.61
2509.01
2509
2509
2509
2509
2509
2509
2509
2509
2509
2509
2509
2509
2509
2509
2790.07
2789.99
2789.86
2789.7
2789.53
2789.39
2789.26
2789.12
2789
2788.88
2788.86
2788.91
2789.04
2789.3
2789.84
2790.68
2792
2793.79
2796.23
2798.94
2801.64
2803.63
2804.88
2805
2804.25
2802.19
2799.48
2796.33
2795.32
2796.22
2798.83
2802.56
2806.85
2810.48
2811.49
2810.64
2808.89
2808.03
2809.3
2811.44
2813.89
2816.37
2818.84
2819.91
2820.42
2820.84
2822.99
2825.28
2826.9
2828.64
2831.47
2835.94
2841.51
2844.84
2847.73
2851.91
2855.38
2858.87
2862.83
2868.21
2874.36
2879.07
2879.4
2877.6
2864.05
2928.31
2927.46
2646.69
2512.87
2509.06
2509
2509
2509
2509
2509
2509
2509
2509
2509
2509
2509
2509
2509
2509
2509
2790.14
2790.09
2790.01
2789.87
2789.71
2789.53
2789.37
2789.21
2789.02
2788.85
2788.67
2788.59
2788.6
2788.7
2788.95
2789.51
2790.4
2791.81
2793.71
2796.28
2799.13
2801.93
2803.97
2805.22
2805.28
2804.43
2802.26
2799.44
2796.21
2795.17
2796.08
2798.75
2802.57
2806.93
2810.61
2811.65
2810.77
2808.99
2808.09
2809.33
2811.5
2814.03
2816.56
2819.03
2820.2
2821.08
2821.66
2823.72
2826.23
2828.08
2828.69
2833.95
2838.64
2841.85
2844.85
2849.05
2853.52
2857.77
2861.84
2866.57
2871.65
2874.9
2875.04
2876.42
2866.27
2892.44
2942.81
2803.09
2533.87
2509.37
2509
2509
2509
2509
2509
2509
2509
2509
2509
2509
2509
2509
2509
2509
2509
2509
2790.15
2790.16
2790.11
2790.04
2789.89
2789.73
2789.53
2789.34
2789.14
2788.9
2788.67
2788.43
2788.3
2788.25
2788.32
2788.57
2789.16
2790.11
2791.61
2793.63
2796.34
2799.33
2802.22
2804.31
2805.54
2805.55
2804.61
2802.32
2799.4
2796.1
2795.02
2795.96
2798.69
2802.59
2807.03
2810.75
2811.82
2810.9
2809.1
2808.17
2809.37
2811.58
2814.19
2816.74
2819.18
2820.48
2821.8
2822.55
2824.87