/*--------------------------------*- C++ -*----------------------------------*\
| =========                 |                                                 |
| \\      /  F ield         | OpenFOAM: The Open Source CFD Toolbox           |
|  \\    /   O peration     | Version:  v2012                                 |
|   \\  /    A nd           | Website:  www.openfoam.com                      |
|    \\/     M anipulation  |                                                 |
\*---------------------------------------------------------------------------*/
FoamFile
{
    version     2.0;
    format      ascii;
    class       volScalarField;
    location    "13200";
    object      p1;
}
// * * * * * * * * * * * * * * * * * * * * * * * * * * * * * * * * * * * * * //

dimensions      [0 1 0 0 0 0 0];


internalField   nonuniform List<scalar> 
39402
(
4.35476e-08
7.21902e-09
7.93399e-08
3.48235e-09
1.72075e-08
8.48157e-08
3.30223e-09
8.20115e-09
3.07334e-08
7.34858e-08
3.49814e-09
1.1599e-08
1.45179e-08
4.78744e-08
6.33151e-08
3.71244e-09
1.48471e-08
6.34993e-08
2.61975e-08
6.82127e-08
5.906e-08
3.86618e-09
1.67375e-08
8.83871e-08
2.22114e-07
5.00548e-08
8.84746e-08
5.75605e-08
3.96539e-09
1.796e-08
1.01427e-07
3.09782e-07
5.45427e-07
8.80835e-08
1.05721e-07
5.7467e-08
4.00249e-09
1.86798e-08
1.09606e-07
3.54891e-07
7.57328e-07
1.05892e-06
1.37273e-07
1.18736e-07
5.80598e-08
4.00282e-09
1.89824e-08
1.1438e-07
3.82699e-07
8.63621e-07
1.46285e-06
1.74013e-06
1.92119e-07
1.2767e-07
5.89808e-08
3.98293e-09
1.90454e-08
1.16435e-07
3.98943e-07
9.27534e-07
1.65909e-06
2.39658e-06
2.53061e-06
2.46737e-07
1.33363e-07
6.02299e-08
3.95067e-09
1.89763e-08
1.16957e-07
4.05971e-07
9.64544e-07
1.77326e-06
2.70713e-06
3.48939e-06
3.36198e-06
2.97616e-07
1.37127e-07
6.07346e-08
3.91168e-09
1.88343e-08
1.16625e-07
4.07867e-07
9.80596e-07
1.83827e-06
2.88172e-06
3.93909e-06
4.66504e-06
4.1817e-06
3.44502e-07
1.40354e-07
6.10725e-08
3.86676e-09
1.86469e-08
1.15818e-07
4.06896e-07
9.85106e-07
1.86654e-06
2.97909e-06
4.18503e-06
5.2865e-06
5.86505e-06
4.97425e-06
3.88253e-07
1.42103e-07
6.18261e-08
3.8226e-09
1.84195e-08
1.14704e-07
4.04317e-07
9.83225e-07
1.87479e-06
3.02175e-06
4.3198e-06
5.62083e-06
6.70099e-06
7.07236e-06
5.73979e-06
4.3083e-07
1.41559e-07
6.28071e-08
3.77993e-09
1.81977e-08
1.13309e-07
4.00636e-07
9.77744e-07
1.87222e-06
3.03498e-06
4.37986e-06
5.80232e-06
7.14948e-06
8.16785e-06
8.2808e-06
6.49692e-06
4.74852e-07
1.39518e-07
6.38814e-08
3.73772e-09
1.79787e-08
1.11939e-07
3.95974e-07
9.69733e-07
1.86357e-06
3.03259e-06
4.40003e-06
5.88541e-06
7.39327e-06
8.7626e-06
9.67764e-06
9.49517e-06
7.28418e-06
5.19779e-07
1.37022e-07
6.49962e-08
3.69545e-09
1.77575e-08
1.1057e-07
3.91359e-07
9.59467e-07
1.85048e-06
3.0217e-06
4.3999e-06
5.91655e-06
7.50829e-06
9.09037e-06
1.04558e-05
1.12247e-05
1.07249e-05
8.1427e-06
5.57395e-07
1.34752e-07
6.61413e-08
3.65226e-09
1.75356e-08
1.09166e-07
3.86699e-07
9.49173e-07
1.83349e-06
3.00437e-06
4.38866e-06
5.92185e-06
7.55693e-06
9.25049e-06
1.08938e-05
1.2224e-05
1.28023e-05
1.19696e-05
9.05657e-06
5.75057e-07
1.3282e-07
6.73251e-08
3.60529e-09
1.7306e-08
1.07758e-07
3.81894e-07
9.38711e-07
1.81632e-06
2.98132e-06
4.36893e-06
5.91305e-06
7.57244e-06
9.3261e-06
1.11158e-05
1.28017e-05
1.40596e-05
1.44035e-05
1.32195e-05
9.91711e-06
5.58567e-07
1.31182e-07
6.85525e-08
3.56484e-09
1.70523e-08
1.0629e-07
3.77044e-07
9.27855e-07
1.79869e-06
2.95788e-06
4.34185e-06
5.89364e-06
7.56974e-06
9.35749e-06
1.12305e-05
1.31077e-05
1.48096e-05
1.59541e-05
1.60319e-05
1.44866e-05
1.06169e-05
5.06989e-07
1.29985e-07
6.98193e-08
3.53188e-09
1.68401e-08
1.04677e-07
3.7199e-07
9.16826e-07
1.78027e-06
2.93354e-06
4.31391e-06
5.86512e-06
7.55378e-06
9.36505e-06
1.1286e-05
1.32766e-05
1.52264e-05
1.69109e-05
1.79018e-05
1.76933e-05
1.57218e-05
1.10316e-05
4.33197e-07
1.30894e-07
7.10315e-08
3.48932e-09
1.66656e-08
1.03316e-07
3.66451e-07
9.053e-07
1.7614e-06
2.9079e-06
4.2846e-06
5.83519e-06
7.52663e-06
9.35554e-06
1.13094e-05
1.33667e-05
1.54678e-05
1.74677e-05
1.90966e-05
1.98961e-05
1.93496e-05
1.68151e-05
1.1072e-05
3.57062e-07
1.32571e-07
7.19985e-08
3.45331e-09
1.6433e-08
1.02183e-07
3.61732e-07
8.92702e-07
1.74162e-06
2.88145e-06
4.25334e-06
5.80321e-06
7.49712e-06
9.3322e-06
1.13106e-05
1.34137e-05
1.56061e-05
1.78042e-05
1.98233e-05
2.13527e-05
2.18931e-05
2.08756e-05
1.76759e-05
1.06782e-05
2.95774e-07
1.34651e-07
7.26379e-08
3.41778e-09
1.62426e-08
1.00689e-07
3.57741e-07
8.81885e-07
1.72001e-06
2.85352e-06
4.22085e-06
5.76855e-06
7.46477e-06
9.30505e-06
1.12946e-05
1.34315e-05
1.56871e-05
1.80078e-05
2.02805e-05
2.22791e-05
2.36323e-05
2.3786e-05
2.21715e-05
1.82506e-05
9.81012e-06
2.55137e-07
1.37066e-07
7.28583e-08
3.38437e-09
1.60511e-08
9.94691e-08
3.52592e-07
8.72607e-07
1.70135e-06
2.82301e-06
4.18626e-06
5.73204e-06
7.42887e-06
9.27383e-06
1.12727e-05
1.34275e-05
1.57292e-05
1.81358e-05
2.05705e-05
2.28857e-05
2.47927e-05
2.58556e-05
2.55093e-05
2.3253e-05
1.84955e-05
8.465e-06
2.33564e-07
1.39655e-07
7.28334e-08
3.35084e-09
1.58722e-08
9.82317e-08
3.48338e-07
8.60794e-07
1.68512e-06
2.79659e-06
4.14839e-06
5.69281e-06
7.3903e-06
9.23792e-06
1.12449e-05
1.34145e-05
1.57434e-05
1.82124e-05
2.07619e-05
2.32869e-05
2.55858e-05
2.73042e-05
2.79836e-05
2.70634e-05
2.40878e-05
1.82631e-05
6.73825e-06
2.23643e-07
1.4217e-07
7.26671e-08
3.32004e-09
1.56925e-08
9.70834e-08
3.4404e-07
8.50956e-07
1.66463e-06
2.77332e-06
4.11556e-06
5.64967e-06
7.34825e-06
9.19838e-06
1.12108e-05
1.33932e-05
1.57443e-05
1.82531e-05
2.08864e-05
2.35625e-05
2.6132e-05
2.83351e-05
2.97849e-05
2.99907e-05
2.84064e-05
2.46318e-05
1.74249e-05
4.87944e-06
2.20469e-07
1.44498e-07
7.23857e-08
3.28829e-09
1.5529e-08
9.59352e-08
3.40047e-07
8.41037e-07
1.64747e-06
2.74404e-06
4.08637e-06
5.61239e-06
7.30149e-06
9.15424e-06
1.11719e-05
1.33634e-05
1.57338e-05
1.82747e-05
2.09643e-05
2.37515e-05
2.65204e-05
2.90709e-05
3.11087e-05
3.21982e-05
3.18267e-05
2.94992e-05
2.48334e-05
1.58985e-05
3.23266e-06
2.20255e-07
1.4699e-07
7.20264e-08
3.2599e-09
1.53581e-08
9.48933e-08
3.36072e-07
8.31797e-07
1.63015e-06
2.71941e-06
4.04953e-06
5.57885e-06
7.26136e-06
9.1046e-06
1.1127e-05
1.33271e-05
1.57119e-05
1.82804e-05
2.10152e-05
2.38803e-05
2.67974e-05
2.96093e-05
3.20824e-05
3.38692e-05
3.44916e-05
3.34427e-05
3.02979e-05
2.46017e-05
1.36403e-05
2.01049e-06
2.2155e-07
1.46408e-07
7.15589e-08
3.23122e-09
1.52066e-08
9.3808e-08
3.3246e-07
8.22614e-07
1.61399e-06
2.69454e-06
4.01858e-06
5.53629e-06
7.22501e-06
9.06237e-06
1.10756e-05
1.32833e-05
1.56811e-05
1.82708e-05
2.10445e-05
2.39721e-05
2.69961e-05
3.0005e-05
3.28122e-05
3.51328e-05
3.65655e-05
3.66081e-05
3.47876e-05
3.07578e-05
2.3711e-05
1.07695e-05
1.21433e-06
2.20758e-07
1.46261e-07
7.10287e-08
3.20832e-09
1.50538e-08
9.28463e-08
3.28725e-07
8.14249e-07
1.59793e-06
2.6713e-06
3.98723e-06
5.50065e-06
7.17812e-06
9.02382e-06
1.10321e-05
1.32314e-05
1.56406e-05
1.82496e-05
2.10537e-05
2.40346e-05
2.71449e-05
3.0299e-05
3.33606e-05
3.61005e-05
3.81744e-05
3.914e-05
3.84914e-05
3.58148e-05
3.08222e-05
2.19668e-05
7.73643e-06
7.36624e-07
2.20397e-07
1.46217e-07
7.04746e-08
3.18303e-09
1.49329e-08
9.18842e-08
3.25416e-07
8.05658e-07
1.58329e-06
2.64819e-06
3.95793e-06
5.46437e-06
7.13913e-06
8.97306e-06
1.09924e-05
1.31881e-05
1.55902e-05
1.82159e-05
2.10472e-05
2.40705e-05
2.72537e-05
3.05254e-05
3.37787e-05
3.68424e-05
3.94323e-05
4.1152e-05
4.1531e-05
4.0085e-05
3.64821e-05
3.03709e-05
1.92615e-05
5.13312e-06
4.80687e-07
2.20985e-07
1.46466e-07
6.99598e-08
3.15625e-09
1.4798e-08
9.1129e-08
3.22132e-07
7.98049e-07
1.56826e-06
2.62713e-06
3.92879e-06
5.43055e-06
7.09927e-06
8.93115e-06
1.09384e-05
1.31483e-05
1.55488e-05
1.81698e-05
2.10246e-05
2.40858e-05
2.73275e-05
3.06981e-05
3.41069e-05
3.74192e-05
4.04146e-05
4.27562e-05
4.40029e-05
4.3675e-05
4.13361e-05
3.67483e-05
2.91701e-05
1.56193e-05
3.24365e-06
3.63269e-07
2.22176e-07
1.46941e-07
6.95275e-08
3.13288e-09
1.46555e-08
9.02914e-08
3.1954e-07
7.90525e-07
1.55498e-06
2.60545e-06
3.90222e-06
5.39688e-06
7.06219e-06
8.88812e-06
1.08942e-05
1.3092e-05
1.55107e-05
1.81328e-05
2.09867e-05
2.40805e-05
2.7374e-05
3.08242e-05
3.43638e-05
3.78791e-05
4.11911e-05
4.40317e-05
4.60127e-05
4.66601e-05
4.55079e-05
4.21979e-05
3.65248e-05
2.69756e-05
1.14956e-05
1.967e-06
3.17995e-07
2.23557e-07
1.47476e-07
6.91789e-08
3.1126e-09
1.45346e-08
8.94173e-08
3.16717e-07
7.84577e-07
1.54187e-06
2.58633e-06
3.87479e-06
5.36627e-06
7.02523e-06
8.84805e-06
1.08485e-05
1.30463e-05
1.54533e-05
1.80984e-05
2.09575e-05
2.40559e-05
2.73942e-05
3.09142e-05
3.45597e-05
3.82451e-05
4.1818e-05
4.50559e-05
4.76393e-05
4.91343e-05
4.90529e-05
4.69681e-05
4.26277e-05
3.56527e-05
2.36177e-05
7.7945e-06
1.16776e-06
3.03305e-07
2.25068e-07
1.47994e-07
6.8869e-08
3.09525e-09
1.44292e-08
8.86839e-08
3.13793e-07
7.78156e-07
1.53151e-06
2.56752e-06
3.85066e-06
5.33437e-06
6.9918e-06
8.80818e-06
1.0806e-05
1.29988e-05
1.54073e-05
1.80419e-05
2.09299e-05
2.40389e-05
2.73898e-05
3.09706e-05
3.47083e-05
3.85322e-05
4.2324e-05
4.58919e-05
4.89647e-05
5.11728e-05
5.20486e-05
5.1111e-05
4.79987e-05
4.25546e-05
3.38425e-05
1.90995e-05
5.01442e-06
7.17079e-07
2.99542e-07
2.26485e-07
1.48327e-07
6.94954e-08
3.07788e-09
1.43385e-08
8.80492e-08
3.11359e-07
7.71562e-07
1.52037e-06
2.55267e-06
3.82699e-06
5.30639e-06
6.95672e-06
8.77227e-06
1.07637e-05
1.29547e-05
1.5359e-05
1.79972e-05
2.08768e-05
2.40222e-05
2.73912e-05
3.09957e-05
3.48139e-05
3.87582e-05
4.27289e-05
4.65748e-05
5.00587e-05
5.28589e-05
5.45602e-05
5.46788e-05
5.27644e-05
4.85495e-05
4.18286e-05
3.08595e-05
1.41135e-05
3.10752e-06
4.96624e-07
2.99588e-07
2.27937e-07
1.49381e-07
7.0985e-08
3.05751e-09
1.42498e-08
8.75058e-08
3.09267e-07
7.66118e-07
1.50906e-06
2.53675e-06
3.80839e-06
5.27903e-06
6.9261e-06
8.73503e-06
1.07257e-05
1.29105e-05
1.53141e-05
1.79497e-05
2.08359e-05
2.39762e-05
2.73907e-05
3.10233e-05
3.48798e-05
3.89295e-05
4.30554e-05
4.71296e-05
5.09618e-05
5.42653e-05
5.6668e-05
5.77223e-05
5.69477e-05
5.39498e-05
4.85805e-05
4.0278e-05
2.65145e-05
9.64064e-06
1.85918e-06
4.08777e-07
3.00735e-07
2.29898e-07
1.51231e-07
7.05786e-08
3.03618e-09
1.41437e-08
8.69916e-08
3.0749e-07
7.61471e-07
1.49978e-06
2.52073e-06
3.78847e-06
5.25781e-06
6.89645e-06
8.70288e-06
1.06866e-05
1.28711e-05
1.5269e-05
1.79053e-05
2.07911e-05
2.39422e-05
2.73565e-05
3.10461e-05
3.49438e-05
3.90505e-05
4.33123e-05
4.75845e-05
5.17051e-05
5.54386e-05
5.84476e-05
6.03154e-05
6.05768e-05
5.87772e-05
5.46151e-05
4.79539e-05
3.75928e-05
2.09906e-05
6.23771e-06
1.10768e-06
3.80928e-07
3.02736e-07
2.33178e-07
1.50199e-07
7.05131e-08
3.0202e-09
1.40345e-08
8.63778e-08
3.05851e-07
7.57557e-07
1.49193e-06
2.50774e-06
3.76856e-06
5.23497e-06
6.87368e-06
8.67179e-06
1.06531e-05
1.28307e-05
1.5229e-05
1.78604e-05
2.07492e-05
2.39028e-05
2.73336e-05
3.10303e-05
3.49988e-05
3.91634e-05
4.35063e-05
4.79522e-05
5.23223e-05
5.64157e-05
5.99476e-05
6.25303e-05
6.3715e-05
6.30383e-05
6.00968e-05
5.47214e-05
4.65282e-05
3.35558e-05
1.52681e-05
3.89935e-06
7.05263e-07
3.74658e-07
3.0662e-07
2.35238e-07
1.49165e-07
7.04884e-08
3.00987e-09
1.39572e-08
8.57501e-08
3.03906e-07
7.54023e-07
1.4854e-06
2.49687e-06
3.75274e-06
5.21235e-06
6.84905e-06
8.64854e-06
1.06209e-05
1.27965e-05
1.5188e-05
1.7821e-05
2.07063e-05
2.3866e-05
2.73036e-05
3.10244e-05
3.50092e-05
3.92615e-05
4.36838e-05
4.82406e-05
5.28301e-05
5.72358e-05
6.12104e-05
6.44184e-05
6.64295e-05
6.67772e-05
6.50211e-05
6.08451e-05
5.41166e-05
4.39736e-05
2.80228e-05
1.03911e-05
2.34548e-06
5.25803e-07
3.76105e-07
3.10281e-07
2.31924e-07
1.4827e-07
7.04717e-08
2.99911e-09
1.39081e-08
8.53266e-08
3.01931e-07
7.49843e-07
1.47959e-06
2.48799e-06
3.73971e-06
5.19482e-06
6.82492e-06
8.623e-06
1.05977e-05
1.27639e-05
1.51539e-05
1.77804e-05
2.0669e-05
2.38274e-05
2.72749e-05
3.10085e-05
3.50274e-05
3.93072e-05
4.38386e-05
4.85018e-05
5.32405e-05
5.792e-05
6.22808e-05
6.60252e-05
6.87705e-05
7.00523e-05
6.9409e-05
6.64445e-05
6.09749e-05
5.26545e-05
4.00634e-05
2.15117e-05
6.71463e-06
1.39168e-06
4.65455e-07
3.79287e-07
3.0955e-07
2.30864e-07
1.47458e-07
7.0461e-08
2.98492e-09
1.38539e-08
8.50711e-08
3.0065e-07
7.45634e-07
1.47272e-06
2.4802e-06
3.72933e-06
5.18077e-06
6.80691e-06
8.59821e-06
1.05717e-05
1.27412e-05
1.51216e-05
1.77476e-05
2.06305e-05
2.37944e-05
2.72435e-05
3.09926e-05
3.5032e-05
3.93575e-05
4.39306e-05
4.87304e-05
5.36086e-05
5.84836e-05
6.31838e-05
6.73994e-05
7.0784e-05
7.29112e-05
7.33017e-05
7.15159e-05
6.72391e-05
6.03225e-05
5.01013e-05
3.45941e-05
1.53235e-05
4.1746e-06
8.69719e-07
4.51179e-07
3.79257e-07
3.09192e-07
2.30493e-07
1.46805e-07
7.04557e-08
2.97063e-09
1.3782e-08
8.47902e-08
2.99932e-07
7.4303e-07
1.46589e-06
2.47097e-06
3.72033e-06
5.16987e-06
6.79287e-06
8.58066e-06
1.05467e-05
1.27153e-05
1.51003e-05
1.77165e-05
2.06002e-05
2.37599e-05
2.72178e-05
3.09729e-05
3.50344e-05
3.93891e-05
4.40228e-05
4.88822e-05
5.39316e-05
5.89881e-05
6.39391e-05
6.85711e-05
7.25228e-05
7.53984e-05
7.67405e-05
7.60758e-05
7.30088e-05
6.73503e-05
5.87524e-05
4.6192e-05
2.7679e-05
1.02883e-05
2.50753e-06
6.30447e-07
4.47371e-07
3.78904e-07
3.09013e-07
2.29992e-07
1.4652e-07
7.04517e-08
2.95691e-09
1.37125e-08
8.44044e-08
2.99138e-07
7.41712e-07
1.46193e-06
2.46193e-06
3.7096e-06
5.1607e-06
6.7827e-06
8.5677e-06
1.053e-05
1.26906e-05
1.50754e-05
1.76977e-05
2.05717e-05
2.37339e-05
2.71896e-05
3.09576e-05
3.50309e-05
3.94154e-05
4.40896e-05
4.90279e-05
5.41596e-05
5.94306e-05
6.46142e-05
6.95637e-05
7.40191e-05
7.75669e-05
7.97686e-05
8.01532e-05
7.82727e-05
7.38088e-05
6.66014e-05
5.60869e-05
4.07051e-05
2.0413e-05
6.57517e-06
1.49434e-06
5.43783e-07
4.45692e-07
3.79323e-07
3.09102e-07
2.29513e-07
1.5033e-07
7.04523e-08
2.94369e-09
1.36456e-08
8.40494e-08
2.98039e-07
7.40232e-07
1.46025e-06
2.45715e-06
3.69934e-06
5.14953e-06
6.77435e-06
8.55909e-06
1.05187e-05
1.26755e-05
1.50518e-05
1.76749e-05
2.05569e-05
2.37099e-05
2.71703e-05
3.09392e-05
3.50306e-05
3.94332e-05
4.41472e-05
4.914e-05
5.43752e-05
5.97584e-05
6.5208e-05
7.045e-05
7.53011e-05
7.94505e-05
8.24343e-05
8.37858e-05
8.304e-05
7.97933e-05
7.38565e-05
6.4866e-05
5.20321e-05
3.35259e-05
1.41202e-05
4.0403e-06
9.43152e-07
5.17961e-07
4.451e-07
3.80128e-07
3.10958e-07
2.33428e-07
1.49271e-07
7.04552e-08
2.93298e-09
1.3581e-08
8.37067e-08
2.97052e-07
7.38129e-07
1.45828e-06
2.45575e-06
3.6947e-06
5.13922e-06
6.76387e-06
8.55257e-06
1.05124e-05
1.26667e-05
1.50391e-05
1.76532e-05
2.05373e-05
2.37006e-05
2.71531e-05
3.09297e-05
3.50256e-05
3.94524e-05
4.41929e-05
4.92383e-05
5.45469e-05
6.00643e-05
6.56665e-05
7.12324e-05
7.6447e-05
8.10812e-05
8.47729e-05
8.70172e-05
8.73356e-05
8.52877e-05
8.05509e-05
7.29542e-05
6.19934e-05
4.63883e-05
2.54152e-05
9.24775e-06
2.41259e-06
6.92702e-07
5.10945e-07
4.45466e-07
3.82477e-07
3.11556e-07
2.31633e-07
1.49125e-07
7.04592e-08
2.92702e-09
1.35313e-08
8.33793e-08
2.96107e-07
7.3631e-07
1.45529e-06
2.4539e-06
3.69453e-06
5.13587e-06
6.75467e-06
8.54363e-06
1.05083e-05
1.26634e-05
1.50336e-05
1.76441e-05
2.05189e-05
2.36861e-05
2.71516e-05
3.09219e-05
3.50294e-05
3.94651e-05
4.42378e-05
4.93203e-05
5.46989e-05
6.03161e-05
6.609e-05
7.18595e-05
7.74605e-05
8.25413e-05
8.6818e-05
8.98805e-05
9.11973e-05
9.02987e-05
8.679e-05
8.04811e-05
7.0985e-05
5.7682e-05
3.8936e-05
1.79546e-05
5.7799e-06
1.45005e-06
6.03514e-07
5.09339e-07
4.47377e-07
3.8452e-07
3.11127e-07
2.30315e-07
1.49051e-07
7.04645e-08
2.92376e-09
1.3508e-08
8.31464e-08
2.9522e-07
7.3459e-07
1.45285e-06
2.45067e-06
3.6937e-06
5.13787e-06
6.75369e-06
8.53646e-06
1.05014e-05
1.26625e-05
1.50344e-05
1.76429e-05
2.05144e-05
2.36725e-05
2.71443e-05
3.09312e-05
3.50345e-05
3.94864e-05
4.42734e-05
4.93992e-05
5.48295e-05
6.05391e-05
6.64442e-05
7.2433e-05
7.83002e-05
8.38358e-05
8.86527e-05
9.24088e-05
9.46534e-05
9.48502e-05
9.25564e-05
8.74523e-05
7.93568e-05
6.7806e-05
5.17701e-05
3.00589e-05
1.1975e-05
3.48992e-06
9.44684e-07
5.77978e-07
5.10222e-07
4.49873e-07
3.85111e-07
3.10297e-07
2.30002e-07
1.49013e-07
7.04707e-08
2.91889e-09
1.34983e-08
8.30728e-08
2.94658e-07
7.33034e-07
1.4506e-06
2.44828e-06
3.69115e-06
5.13903e-06
6.75892e-06
8.53888e-06
1.04969e-05
1.26585e-05
1.50378e-05
1.7649e-05
2.05191e-05
2.36744e-05
2.71375e-05
3.09334e-05
3.50577e-05
3.95078e-05
4.4317e-05
4.94653e-05
5.49534e-05
6.07334e-05
6.67588e-05
7.2918e-05
7.90623e-05
8.49338e-05
9.02865e-05
9.46871e-05
9.77377e-05
9.89647e-05
9.7848e-05
9.39917e-05
8.72034e-05
7.70761e-05
6.31189e-05
4.39479e-05
2.15425e-05
7.58781e-06
2.07575e-06
7.27225e-07
5.72671e-07
5.12012e-07
4.51672e-07
3.85499e-07
3.09616e-07
2.33417e-07
1.48997e-07
7.04771e-08
2.91061e-09
1.34776e-08
8.30832e-08
2.94616e-07
7.32222e-07
1.44868e-06
2.44621e-06
3.68978e-06
5.13818e-06
6.76305e-06
8.54832e-06
1.05035e-05
1.26573e-05
1.50375e-05
1.76576e-05
2.05317e-05
2.36863e-05
2.71476e-05
3.09359e-05
3.50726e-05
3.95485e-05
4.43594e-05
4.95381e-05
5.50604e-05
6.09154e-05
6.70351e-05
7.33498e-05
7.97139e-05
8.59324e-05
9.16929e-05
9.67245e-05
0.00010053
0.000102675
0.00010268
0.000100061
9.4512e-05
8.57819e-05
7.34785e-05
5.67968e-05
3.43364e-05
1.45416e-05
4.62186e-06
1.27927e-06
6.5519e-07
5.72971e-07
5.13664e-07
4.53217e-07
3.83411e-07
3.12257e-07
2.32758e-07
1.48986e-07
7.0482e-08
2.89845e-09
1.34366e-08
8.30231e-08
2.94854e-07
7.3258e-07
1.44812e-06
2.44471e-06
3.68884e-06
5.13883e-06
6.76488e-06
8.55633e-06
1.0518e-05
1.26691e-05
1.50405e-05
1.76622e-05
2.0547e-05
2.37075e-05
2.71689e-05
3.09568e-05
3.50872e-05
3.95795e-05
4.44223e-05
4.96082e-05
5.51718e-05
6.10755e-05
6.7292e-05
7.37311e-05
8.0294e-05
8.67941e-05
9.29799e-05
9.84987e-05
0.000103041
0.000106054
0.000107082
0.000105662
0.000101369
9.39878e-05
8.31076e-05
6.82846e-05
4.84699e-05
2.48228e-05
9.30326e-06
2.7488e-06
8.93344e-07
6.369e-07
5.7419e-07
5.15178e-07
4.52625e-07
3.8585e-07
3.10603e-07
2.32581e-07
1.48983e-07
7.0487e-08
2.88587e-09
1.33718e-08
8.28404e-08
2.94862e-07
7.33564e-07
1.44962e-06
2.44525e-06
3.68881e-06
5.14012e-06
6.76851e-06
8.56171e-06
1.05308e-05
1.26898e-05
1.50585e-05
1.76705e-05
2.05576e-05
2.37312e-05
2.72007e-05
3.099e-05
3.51215e-05
3.96093e-05
4.44725e-05
4.96993e-05
5.5278e-05
6.12364e-05
6.75197e-05
7.40836e-05
8.08083e-05
8.75614e-05
9.41038e-05
0.000100126
0.00010525
0.000109111
0.000111117
0.000110815
0.000107773
0.000101676
9.21744e-05
7.89773e-05
6.14014e-05
3.80618e-05
1.68716e-05
5.70319e-06
1.65368e-06
7.4644e-07
6.33714e-07
5.75363e-07
5.15348e-07
4.55103e-07
3.85515e-07
3.10994e-07
2.32492e-07
1.48986e-07
7.04906e-08
2.87412e-09
1.33079e-08
8.25101e-08
2.94474e-07
7.34036e-07
1.45215e-06
2.44888e-06
3.69152e-06
5.14255e-06
6.77306e-06
8.56934e-06
1.05406e-05
1.27082e-05
1.50866e-05
1.76959e-05
2.05726e-05
2.37495e-05
2.72348e-05
3.10346e-05
3.51688e-05
3.96603e-05
4.45214e-05
4.9775e-05
5.54052e-05
6.13883e-05
6.77435e-05
7.4397e-05
8.12818e-05
8.82443e-05
9.51067e-05
0.000101568
0.00010728
0.000111829
0.000114794
0.000115572
0.000113728
0.000108886
0.000100777
8.90373e-05
7.31542e-05
5.24114e-05
2.7585e-05
1.08461e-05
3.39583e-06
1.08698e-06
7.03327e-07
6.33971e-07
5.75064e-07
5.18224e-07
4.57493e-07
3.85428e-07
3.13088e-07
2.32447e-07
1.48987e-07
7.04937e-08
2.8646e-09
1.32509e-08
8.21801e-08
2.93597e-07
7.33632e-07
1.45377e-06
2.45385e-06
3.69821e-06
5.1485e-06
6.7791e-06
8.57804e-06
1.05529e-05
1.27233e-05
1.51119e-05
1.77328e-05
2.06069e-05
2.37724e-05
2.72626e-05
3.10812e-05
3.52293e-05
3.97249e-05
4.45933e-05
4.98481e-05
5.55138e-05
6.15612e-05
6.7954e-05
7.4701e-05
8.1704e-05
8.88691e-05
9.6e-05
0.000102863
0.000109096
0.000114329
0.000118097
0.000119937
0.000119264
0.000115673
0.000108903
9.84867e-05
8.42629e-05
6.55908e-05
4.11286e-05
1.87743e-05
6.66265e-06
2.01945e-06
8.49069e-07
6.93385e-07
6.3363e-07
5.77455e-07
5.21853e-07
4.54708e-07
3.86352e-07
3.12641e-07
2.32426e-07
1.48986e-07
7.0497e-08
2.85819e-09
1.32072e-08
8.18914e-08
2.92695e-07
7.32101e-07
1.45387e-06
2.45748e-06
3.70657e-06
5.15931e-06
6.78933e-06
8.58866e-06
1.05666e-05
1.27413e-05
1.51332e-05
1.77664e-05
2.06541e-05
2.38173e-05
2.72953e-05
3.11206e-05
3.52905e-05
3.98038e-05
4.46787e-05
4.99455e-05
5.56181e-05
6.17113e-05
6.81843e-05
7.49853e-05
8.2109e-05
8.9429e-05
9.68143e-05
0.000104018
0.000110742
0.000116584
0.000121143
0.0001239
0.000124381
0.000122034
0.000116515
0.000107547
9.47948e-05
7.76968e-05
5.57536e-05
2.97603e-05
1.20712e-05
3.96431e-06
1.28196e-06
7.72104e-07
6.90969e-07
6.35436e-07
5.81059e-07
5.20816e-07
4.56082e-07
3.84848e-07
3.12454e-07
2.32409e-07
1.48983e-07
7.04965e-08
2.8548e-09
1.31804e-08
8.16859e-08
2.91918e-07
7.30472e-07
1.45199e-06
2.45885e-06
3.713e-06
5.17183e-06
6.80509e-06
8.60409e-06
1.05826e-05
1.27609e-05
1.5158e-05
1.77953e-05
2.06975e-05
2.38767e-05
2.73525e-05
3.11653e-05
3.5344e-05
3.98828e-05
4.47793e-05
5.00568e-05
5.57479e-05
6.1855e-05
6.83862e-05
7.5287e-05
8.24861e-05
8.99595e-05
9.75465e-05
0.00010507
0.000112221
0.00011864
0.000123906
0.000127567
0.000129072
0.000127958
0.000123726
0.000116145
0.000104677
8.92527e-05
6.93251e-05
4.34931e-05
2.02027e-05
7.40746e-06
2.34231e-06
9.53998e-07
7.51499e-07
6.91984e-07
6.3841e-07
5.81414e-07
5.22765e-07
4.5488e-07
3.88191e-07
3.12366e-07
2.32391e-07
1.48978e-07
7.04962e-08
2.85426e-09
1.31709e-08
8.15796e-08
2.91422e-07
7.29131e-07
1.44988e-06
2.45731e-06
3.71651e-06
5.18184e-06
6.82267e-06
8.62597e-06
1.06043e-05
1.27832e-05
1.51848e-05
1.78282e-05
2.07357e-05
2.39318e-05
2.7426e-05
3.1237e-05
3.54033e-05
3.99528e-05
4.48799e-05
5.01839e-05
5.58907e-05
6.20243e-05
6.85783e-05
7.55541e-05
8.28767e-05
9.04536e-05
9.82345e-05
0.000106017
0.000113566
0.000120505
0.000126438
0.000130915
0.000133434
0.000133443
0.000130498
0.000124205
0.000114216
0.000100215
8.18209e-05
5.84348e-05
3.13035e-05
1.29399e-05
4.39741e-06
1.45774e-06
8.40274e-07
7.47982e-07
6.94586e-07
6.3887e-07
5.8423e-07
5.19897e-07
4.56848e-07
3.87378e-07
3.12313e-07
2.3238e-07
1.48973e-07
7.04957e-08
2.85284e-09
1.31769e-08
8.15852e-08
2.91242e-07
7.28407e-07
1.4483e-06
2.45546e-06
3.71619e-06
5.18825e-06
6.83708e-06
8.64942e-06
1.06332e-05
1.28122e-05
1.52146e-05
1.78634e-05
2.0778e-05
2.39808e-05
2.74949e-05
3.13266e-05
3.5492e-05
4.00292e-05
4.49702e-05
5.0311e-05
5.60508e-05
6.22064e-05
6.87974e-05
7.58073e-05
8.32251e-05
9.09544e-05
9.8875e-05
0.000106901
0.000114779
0.000122208
0.000128752
0.000133996
0.000137444
0.000138567
0.000136832
0.000131838
0.000123271
0.000110638
9.37697e-05
7.24828e-05
4.50997e-05
2.11061e-05
7.90504e-06
2.58403e-06
1.05129e-06
8.09727e-07
7.4951e-07
6.95266e-07
6.41428e-07
5.83018e-07
5.22493e-07
4.55024e-07
3.87121e-07
3.12271e-07
2.32363e-07
1.48966e-07
7.0493e-08
2.85038e-09
1.3178e-08
8.16854e-08
2.91438e-07
7.28399e-07
1.44778e-06
2.45432e-06
3.7155e-06
5.19008e-06
6.84716e-06
8.66891e-06
1.06636e-05
1.28494e-05
1.5252e-05
1.79019e-05
2.08228e-05
2.4034e-05
2.75566e-05
3.1411e-05
3.55997e-05
4.01377e-05
4.50672e-05
5.04258e-05
5.62098e-05
6.24065e-05
6.90274e-05
7.60862e-05
8.35539e-05
9.14043e-05
9.95109e-05
0.000107721
0.000115907
0.00012375
0.000130877
0.000136827
0.000141151
0.00014331
0.000142779
0.000139056
0.000131843
0.00012061
0.000105247
8.54016e-05
6.0295e-05
3.21651e-05
1.34174e-05
4.66954e-06
1.59056e-06
9.0636e-07
8.04523e-07
7.50367e-07
6.97189e-07
6.41445e-07
5.85943e-07
5.21015e-07
4.57776e-07
3.87005e-07
3.1223e-07
2.3234e-07
1.48955e-07
7.04883e-08
2.84574e-09
1.31696e-08
8.17456e-08
2.91947e-07
7.29234e-07
1.4485e-06
2.45482e-06
3.71585e-06
5.19154e-06
6.85188e-06
8.68346e-06
1.06891e-05
1.28878e-05
1.52987e-05
1.79492e-05
2.08716e-05
2.40901e-05
2.76225e-05
3.14877e-05
3.57017e-05
4.02662e-05
4.51991e-05
5.05476e-05
5.63541e-05
6.26034e-05
6.92751e-05
7.63743e-05
8.39068e-05
9.18264e-05
0.000100086
0.000108526
0.000116949
0.000125177
0.000132815
0.00013944
0.000144573
0.000147719
0.000148322
0.000145878
0.000139944
0.000130177
0.000116213
9.77601e-05
7.4936e-05
4.58489e-05
2.14646e-05
8.13857e-06
2.73021e-06
1.13111e-06
8.67067e-07
8.04243e-07
7.52026e-07
6.97156e-07
6.44839e-07
5.83014e-07
5.22223e-07
4.57099e-07
3.86927e-07
3.12187e-07
2.32315e-07
1.48944e-07
7.04831e-08
2.84057e-09
1.31492e-08
8.17424e-08
2.92307e-07
7.30771e-07
1.45068e-06
2.45702e-06
3.71823e-06
5.19433e-06
6.85634e-06
8.69188e-06
1.07088e-05
1.29204e-05
1.53466e-05
1.80068e-05
2.09303e-05
2.41508e-05
2.76919e-05
3.15688e-05
3.57956e-05
4.03879e-05
4.53519e-05
5.07076e-05
5.65055e-05
6.27835e-05
6.95182e-05
7.66812e-05
8.42671e-05
9.2271e-05
0.000100624
0.000109255
0.000117962
0.000126494
0.000134609
0.000141839
0.000147746
0.00015181
0.000153503
0.00015228
0.000147672
0.000139346
0.000126656
0.000109707
8.83595e-05
6.12103e-05
3.22869e-05
1.35089e-05
4.77701e-06
1.67508e-06
9.66784e-07
8.5859e-07
8.05572e-07
7.52031e-07
7.00174e-07
6.43793e-07
5.84821e-07
5.23134e-07
4.56843e-07
3.86855e-07
3.12139e-07
2.32285e-07
1.48926e-07
7.04755e-08
2.83453e-09
1.31234e-08
8.16579e-08
2.92431e-07
7.3194e-07
1.45407e-06
2.46142e-06
3.72287e-06
5.1996e-06
6.86263e-06
8.70025e-06
1.07217e-05
1.29463e-05
1.53875e-05
1.80657e-05
2.10003e-05
2.42228e-05
2.77662e-05
3.16538e-05
3.58949e-05
4.05016e-05
4.54966e-05
5.08892e-05
5.66981e-05
6.29699e-05
6.97414e-05
7.69797e-05
8.46438e-05
9.27179e-05
0.00010118
0.000109937
0.000118881
0.000127762
0.000136263
0.00014407
0.000150676
0.000155619
0.000158337
0.000158296
0.000154977
0.000147991
0.000136847
0.000121256
0.000101009
7.65604e-05
4.56765e-05
2.12665e-05
8.12079e-06
2.78302e-06
1.19174e-06
9.2117e-07
8.58223e-07
8.05736e-07
7.54309e-07
7.00592e-07
6.47045e-07
5.85331e-07
5.23094e-07
4.56709e-07
3.86783e-07
3.12086e-07
2.32249e-07
1.48906e-07
7.04688e-08
2.82799e-09
1.30907e-08
8.15318e-08
2.92277e-07
7.32518e-07
1.45672e-06
2.46744e-06
3.73023e-06
5.20748e-06
6.87165e-06
8.71077e-06
1.07347e-05
1.29644e-05
1.54206e-05
1.81163e-05
2.1072e-05
2.4307e-05
2.78533e-05
3.17435e-05
3.59974e-05
4.06215e-05
4.56334e-05
5.10617e-05
5.69139e-05
6.32015e-05
6.99701e-05
7.72542e-05
8.50098e-05
9.31799e-05
0.000101734
0.000110629
0.000119738
0.000128913
0.000137843
0.000146132
0.000153408
0.000159153
0.000162857
0.000163943
0.000161886
0.000156212
0.00014655
0.000132354
0.000113486
9.04204e-05
6.11198e-05
3.16452e-05
1.32198e-05
4.73147e-06
1.71271e-06
1.02004e-06
9.11653e-07
8.58381e-07
8.07799e-07
7.54796e-07
7.04317e-07
6.4519e-07
5.83689e-07
5.22601e-07
4.56602e-07
3.86702e-07
3.12029e-07
2.32208e-07
1.48885e-07
7.04578e-08
2.82068e-09
1.30532e-08
8.13592e-08
2.91963e-07
7.32437e-07
1.45826e-06
2.47229e-06
3.73963e-06
5.21857e-06
6.88371e-06
8.72451e-06
1.07502e-05
1.29829e-05
1.54448e-05
1.8158e-05
2.11341e-05
2.43933e-05
2.79538e-05
3.18475e-05
3.61047e-05
4.07447e-05
4.5777e-05
5.12253e-05
5.71187e-05
6.3457e-05
7.02476e-05
7.75342e-05
8.53466e-05
9.36264e-05
0.000102299
0.000111313
0.000120599
0.000129988
0.000139279
0.000148091
0.000155949
0.00016246
0.000167073
0.000169247
0.000168407
0.000164049
0.000155813
0.000143015
0.00012567
0.000103518
7.69439e-05
4.45957e-05
2.05083e-05
7.86118e-06
2.74771e-06
1.23231e-06
9.73147e-07
9.10168e-07
8.60246e-07
8.08139e-07
7.5836e-07
7.04128e-07
6.43849e-07
5.86036e-07
5.22381e-07
4.56489e-07
3.86616e-07
3.11963e-07
2.32163e-07
1.48857e-07
7.04461e-08
2.81346e-09
1.3011e-08
8.11448e-08
2.9148e-07
7.31955e-07
1.45859e-06
2.47532e-06
3.7472e-06
5.23197e-06
6.89934e-06
8.74157e-06
1.07694e-05
1.30042e-05
1.54696e-05
1.81894e-05
2.11857e-05
2.44685e-05
2.80567e-05
3.19664e-05
3.62281e-05
4.08721e-05
4.5924e-05
5.13967e-05
5.73137e-05
6.36999e-05
7.05498e-05
7.78662e-05
8.56884e-05
9.40396e-05
0.000102844
0.000112003
0.00012144
0.000131051
0.000140619
0.000149876
0.000158357
0.000165547
0.000171031
0.00017422
0.00017456
0.000171498
0.000164578
0.000153343
0.000137397
0.000116499
9.15377e-05
5.98017e-05
3.02582e-05
1.25659e-05
4.53997e-06
1.7057e-06
1.06661e-06
9.6267e-07
9.1159e-07
8.60623e-07
8.10986e-07
7.59503e-07
7.0099e-07
6.4464e-07
5.84988e-07
5.22226e-07
4.56373e-07
3.86517e-07
3.11892e-07
2.32115e-07
1.48825e-07
7.04332e-08
2.80705e-09
1.29695e-08
8.08979e-08
2.90835e-07
7.31058e-07
1.45815e-06
2.47647e-06
3.75217e-06
5.24275e-06
6.91733e-06
8.7625e-06
1.07924e-05
1.30298e-05
1.54978e-05
1.82214e-05
2.12255e-05
2.45316e-05
2.81469e-05
3.20876e-05
3.63668e-05
4.10169e-05
4.6075e-05
5.15709e-05
5.7517e-05
6.39313e-05
7.08366e-05
7.82229e-05
8.60843e-05
9.4455e-05
0.000103348
0.000112665
0.000122281
0.000132085
0.000141931
0.000151539
0.000160563
0.00016847
0.000174737
0.000178903
0.000180359
0.000178558
0.000172986
0.000163243
0.000148632
0.000129186
0.000105257
7.59093e-05
4.26071e-05
1.92312e-05
7.38012e-06
2.6337e-06
1.25584e-06
1.02207e-06
9.62103e-07
9.12129e-07
8.63153e-07
8.12241e-07
7.5785e-07
7.02263e-07
6.46705e-07
5.84652e-07
5.22078e-07
4.56251e-07
3.86406e-07
3.11807e-07
2.32055e-07
1.48786e-07
7.04179e-08
2.80093e-09
1.29309e-08
8.06453e-08
2.90062e-07
7.29744e-07
1.45693e-06
2.47645e-06
3.75466e-06
5.25012e-06
6.93185e-06
8.78588e-06
1.08196e-05
1.30596e-05
1.55309e-05
1.82574e-05
2.12659e-05
2.45812e-05
2.82233e-05
3.21948e-05
3.6508e-05
4.11777e-05
4.62442e-05
5.17485e-05
5.77225e-05
6.41713e-05
7.11108e-05
7.85616e-05
8.65055e-05
9.49266e-05
0.000103851
0.00011328
0.000123085
0.000133108
0.000143197
0.000153152
0.000162622
0.000171171
0.000178249
0.000183305
0.00018584
0.000185247
0.000180991
0.000172672
0.000159566
0.000141565
0.000118429
9.15637e-05
5.72204e-05
2.82448e-05
1.15966e-05
4.22937e-06
1.66579e-06
1.10752e-06
1.0133e-06
9.62628e-07
9.14468e-07
8.64258e-07
8.1178e-07
7.61246e-07
7.03667e-07
6.44623e-07
5.84446e-07
5.21922e-07
4.56106e-07
3.86293e-07
3.11714e-07
2.31985e-07
1.48744e-07
7.04009e-08
2.79543e-09
1.28961e-08
8.04065e-08
2.89261e-07
7.28107e-07
1.4549e-06
2.47523e-06
3.75549e-06
5.25431e-06
6.9421e-06
8.80481e-06
1.08491e-05
1.30941e-05
1.55686e-05
1.82992e-05
2.13108e-05
2.46314e-05
2.82841e-05
3.22864e-05
3.66338e-05
4.13409e-05
4.64304e-05
5.19464e-05
5.79309e-05
6.44134e-05
7.1394e-05
7.88857e-05
8.69046e-05
9.54239e-05
0.000104413
0.000113889
0.000123833
0.000134084
0.000144441
0.000154701
0.0001646