/*--------------------------------*- C++ -*----------------------------------*\
| =========                 |                                                 |
| \\      /  F ield         | OpenFOAM: The Open Source CFD Toolbox           |
|  \\    /   O peration     | Version:  v2012                                 |
|   \\  /    A nd           | Website:  www.openfoam.com                      |
|    \\/     M anipulation  |                                                 |
\*---------------------------------------------------------------------------*/
FoamFile
{
    version     2.0;
    format      ascii;
    class       volScalarField;
    location    ""0"";
    object      Prt;
}

// * * * * * * * * * * * * * * * * * * * * * * * * * * * * * * * * * * * * * //

dimensions      [0 0 0 0 0 0 0];

internalField   nonuniform List<scalar>
39402
(
0.33042169663124477
0.33394284608965896
0.3326891027080451
0.33451440646719743
0.3311334693529149
0.33349965463963016
0.3345320168314886
0.3345085466173616
0.33151643541476083
0.33386887212104455
0.3344866217480269
0.3343796380359577
0.3346042749208985
0.33352364713674854
0.33404469934599634
0.33444466251201455
0.3342659229391025
0.33401440602974075
0.3346179436849468
0.3342877560202391
0.33411806768777996
0.3344213066884798
0.33420154167310645
0.3337084372617679
0.33346590324752035
0.33459123022719695
0.3344890472528472
0.334140993715513
0.3344073327071756
0.33416506832925297
0.33355012243860793
0.3329271816212096
0.33283303552742904
0.3345489941908544
0.33451854205842935
0.3341408840473922
0.3344031516538102
0.3341449824686492
0.33346153528107914
0.33264912813194325
0.3320343469406777
0.33215745523864193
0.3345022731628391
0.3345154918787131
0.3341306136980867
0.3344039479929417
0.33413722881899766
0.3334129573568628
0.33249457003834504
0.3316226501463496
0.33109204982280693
0.33147356815604134
0.3344558934577112
0.33451140279226743
0.3340891539521538
0.3344080264686671
0.3341357972580624
0.333393346379395
0.3324090807699219
0.33139588510554185
0.3305469241725947
0.33015681160512655
0.3308125413291173
0.3344129855875213
0.33450956488655337
0.33151340143213603
0.3344138429376463
0.33413826718007444
0.3333882404268297
0.33237404333684406
0.33126989322505607
0.33025115030018515
0.32949342650382096
0.3292771518170112
0.33020084319742693
0.3343746759541678
0.3345094173402293
0.30924577372034223
0.33442056891379357
0.33414268809980263
0.33339227404888594
0.3323638803271114
0.33121780156782155
0.3300871988238099
0.32914076672115167
0.3285203043773134
0.3284874153390309
0.32965271854907485
0.33433998551605915
0.33451003045792693
0.29940471848849415
0.3344278115136703
0.33414826298254785
0.33340094552853916
0.3323697219517536
0.33120163145820847
0.33001928614209086
0.32894736526900015
0.3281274019131869
0.32766254401184325
0.3278038421133458
0.32915840057630297
0.33430833105634583
0.33451075741024994
0.2984026591484841
0.3344352429351314
0.3341547236199969
0.33341262225344837
0.332383744279531
0.3312089949794774
0.3299972936361958
0.3288675631726139
0.32791534214417806
0.32724460658660903
0.32693061465840234
0.3272104014072684
0.328714170032418
0.33427870768369206
0.33451091474179306
0.29825836839271813
0.3344423465766829
0.3341612251202224
0.3334264274858071
0.33240338603171193
0.3312283158811782
0.3300057805054156
0.3288411822511723
0.3278285520631259
0.3270234071545136
0.32649828763892175
0.32630605778288746
0.32669921361281284
0.32831857230861394
0.3342502387945878
0.33450975528474036
0.29821608275258615
0.334449456338896
0.3341676328247093
0.33344035330653443
0.3324267057395449
0.3312561081890004
0.33002961723455215
0.32885066924082207
0.32780000748485594
0.32693362661871284
0.32627395181774355
0.32586674499465007
0.32577576454168466
0.32626526354735597
0.3279709399221947
0.3342276243861442
0.33450639339067
0.2981918504695582
0.33445666028491294
0.3341740859719359
0.3334543411596793
0.3324504255145153
0.3312892958639404
0.33006461555648414
0.3288778127833605
0.32781035711318907
0.32690474504770217
0.3261837341788978
0.3256430650646316
0.3253339924959546
0.32533030540676255
0.32590346837051065
0.32767527362605453
0.33422132385473546
0.33450020659041624
0.29817132644997046
0.3344637055287769
0.3341806256433394
0.33346863675212846
0.33247447223378734
0.33132339294934576
0.33010645307038455
0.3289181022804576
0.32783963700900487
0.32691593596154456
0.32615583368338164
0.3255540739326772
0.32511289943001687
0.3248881411724973
0.3249627811196987
0.3256171981974195
0.32747278784512
0.33423454794068863
0.33449063600759554
0.2981506969835852
0.3344708667832359
0.3341872251931518
0.3334830024993086
0.3324992248339036
0.3313581498511349
0.3301497887519321
0.3289662317619193
0.3278833365385271
0.32694648765453105
0.32616766228726024
0.32552776296299646
0.32502617695942215
0.3246701343088063
0.3245194768191515
0.32466985449510755
0.3254205742232008
0.3274178109742242
0.33427045027615543
0.33447739588406533
0.29812941890950717
0.334477578062667
0.33419414653967605
0.33349769673665797
0.3325240760223065
0.3313940485817055
0.33019425568112704
0.32901647050302574
0.3279350806171375
0.32699179852966265
0.3261987588456847
0.32554058684350085
0.32500175053798397
0.3245858788900067
0.32430364939718315
0.3242203600716478
0.32444800164905874
0.32531371954542365
0.3274988258988768
0.3343256826452661
0.33446109580915184
0.2981094840120212
0.334483653238861
0.33420025669614717
0.33351321799412703
0.33254954488837807
0.3314301955194381
0.33024025945801116
0.3290682105440391
0.32798951172134316
0.32704512149068676
0.32624461457221887
0.3255721582230593
0.3250154057827821
0.32456322025105
0.324220988451949
0.3240036899291553
0.32398474495146323
0.32429774973299075
0.32529726754074384
0.32772291145736143
0.33439064599714097
0.33444722843915753
0.29809123245651725
0.3344901644723153
0.33420572900889334
0.3335268213749756
0.3325764380697428
0.3314673070903513
0.3302867795090664
0.32912185299536
0.3280457047022598
0.3271014237152524
0.32629808066790045
0.32561838190874404
0.3250473466188347
0.3245774195364848
0.32419963766593196
0.32392118883316
0.32376238601883844
0.32380924723403903
0.32422063865348194
0.32537629632606824
0.32810575591366153
0.3344541871724297
0.33443391222657026
0.29807602586833537
0.3344961318927
0.3342121069095605
0.33353897587154535
0.33260017367586536
0.33150636394388255
0.33033453993188855
0.3291762286781005
0.3281040836154764
0.3271596634928493
0.3263546946423972
0.3256716699338865
0.32509352708262873
0.324609338292113
0.3242139998932083
0.3238999431375774
0.3236777866942163
0.32357474247744455
0.3236925081345907
0.3242161161908209
0.32555877381073384
0.32866220002664936
0.33450313642663565
0.3344199311770426
0.2980664015690997
0.33450198031614775
0.33421763220096334
0.3335533223512155
0.3326214806022315
0.331541077863863
0.3303846575267376
0.3292320967511876
0.32816328329683786
0.32722021479053676
0.32641336543164445
0.3257283113955508
0.3251462942315333
0.32465509142434357
0.3242453983239868
0.3239136881079673
0.32365496626296275
0.32348415804985864
0.3234369280104157
0.32363309911380433
0.3242877908727919
0.325856440948906
0.3293973043872712
0.3345326946363153
0.33440605479666874
0.29805837059578144
0.33450768526853203
0.33422317452546024
0.3335657350314407
0.3326463736557429
0.3315724486463483
0.3304294557369586
0.3292905258319755
0.3282242348275429
0.3272816808572009
0.3264743834308753
0.3257870041709734
0.3252024699875681
0.3247069168117268
0.3242903156049568
0.3239441571075584
0.32366708998166593
0.32345746076030313
0.323335204370629
0.3233462618734163
0.3236339631460633
0.3244504455262641
0.3262818633262574
0.3302935276307616
0.3345445608215726
0.334393881258781
0.2980502322366392
0.33451332134224143
0.33422850774881285
0.333578248806221
0.3326680604683594
0.3316086957101718
0.33047030287388646
0.3293430630448293
0.32828754046130404
0.3273449209649577
0.32653632074756334
0.325847989381693
0.32526075661322074
0.32476217966701637
0.324340853984031
0.32398772878629745
0.32369592197450925
0.3234667029378565
0.3233016664206533
0.32322700469571
0.32330367423901774
0.32370309939283515
0.3247168089731004
0.3268713733604829
0.3312875387764189
0.3345454349057516
0.334383972223688
0.2980417000557658
0.33451859575029863
0.3342337929847189
0.3335901381969858
0.332689925066584
0.33164052052789517
0.3305169846661796
0.3293914247879196
0.3283448488260179
0.32741019204339805
0.32659998861294226
0.3259099521743053
0.3253212477520038
0.32481956029336034
0.3243947804980628
0.32403670772939497
0.3237377425042385
0.32349303979978306
0.32330635125691165
0.3231832080614092
0.3231589545038184
0.32331310686484993
0.3238498632592828
0.325100258066203
0.3276456872200071
0.3322600255212711
0.3345406427836697
0.33437624234428476
0.29803283394124647
0.3345237662766738
0.33423869820352026
0.3336019040958308
0.3327106829330153
0.3316725446492088
0.33055829974846396
0.3294460156291803
0.32839817730029264
0.3274695961853472
0.3266652888713212
0.32597355755361146
0.32538264985275034
0.32487910757357885
0.3244508128330872
0.3240890025695632
0.3237847185279096
0.3235324833181503
0.32332910821003147
0.3231811832943744
0.3231001002752838
0.3231323542064014
0.3233806228380859
0.3240858238178692
0.3256083154369426
0.3286017467889101
0.3330777767060604
0.33453399257289673
0.33177666894740276
0.29802416678277466
0.3345286557056101
0.3342436924119576
0.3336128460605666
0.3327311121160371
0.3317029764824918
0.3305997690200506
0.32949477875251365
0.3284575594949818
0.32752553041875654
0.32672503945797693
0.3260383691127937
0.3254457027063532
0.32493950648848213
0.3245090377243587
0.3241434711517104
0.3238350510590998
0.3235769619197282
0.32336550338217496
0.3231990927100724
0.32308844841005513
0.32305186053613644
0.32315016891970894
0.3235147154926049
0.32442384511832056
0.32624958367717516
0.32971982516701526
0.3336792826965943
0.33452731337410135
0.2985659918703294
0.2980153631867325
0.3345335814876944
0.33424828066448053
0.3336240489219503
0.33275015849394773
0.33173284002033976
0.3306392510691849
0.32954366417794956
0.32851107282430037
0.32758696339642135
0.32678181167737874
0.32609796756584697
0.3255094951627133
0.3250014418722279
0.3245681044540428
0.3242000801749111
0.32388770227885477
0.3236250101454077
0.3234070360079411
0.3232314244719795
0.3230998311983082
0.32302673625737643
0.3230394757680225
0.32321764556025057
0.3237262426199692
0.32487782459226366
0.32706526827687943
0.33091878778068107
0.33408228805525575
0.3345218214668164
0.2985584111960484
0.2980070494300586
0.33453801262680416
0.3342529187732959
0.33363438596288664
0.33276960417027723
0.33176077274004845
0.33067801364641847
0.3295903272099219
0.32856473602254876
0.3276428116875334
0.32684345310131446
0.32615511368524064
0.32556843681252257
0.3250638335848679
0.3246286622772492
0.3242574925762214
0.32394245838497304
0.3236755528788028
0.32345242641753047
0.32326949426209484
0.3231269948305744
0.3230289796317334
0.3229957627546832
0.3230657386267771
0.32334306990500983
0.3240294224911151
0.3254604320238018
0.32807425383714206
0.3320326517225708
0.33433508319920546
0.3345172479753855
0.29855322490652336
0.29799847683644687
0.33454242970248727
0.33425694539974793
0.3336446426571188
0.3327875744590758
0.3317891905687218
0.3307143236816229
0.3296361025499075
0.3286160909807184
0.3276987364883627
0.3268998797410577
0.3262163811623111
0.3256254022067385
0.32512162665150746
0.3246893383074161
0.32431642836740826
0.32399809491445997
0.3237282015066931
0.3235004439166045
0.32331177832275726
0.32316053831274016
0.3230494188595313
0.32298540368767337
0.3229965154751072
0.32313617683465423
0.3235377570768525
0.3244400351888239
0.32617602256051037
0.329259982365548
0.33291751870220376
0.33447750551383015
0.33451385671775724
0.2985496218211816
0.29798949331948077
0.3345469366351681
0.3342611594721395
0.3336534215146867
0.33280527423305095
0.33181539271851346
0.3307511750920238
0.3296791071299928
0.32866642110192057
0.3277524239062989
0.3269563487674856
0.3262729438630003
0.3256857873670711
0.3251779378158116
0.32474569168610856
0.32437521612349607
0.32405527476412077
0.3237819063735533
0.32355083580474675
0.32335695583286994
0.3231991429251658
0.32307744486312073
0.3229968679441282
0.322969599372705
0.3230320520801342
0.3232587073122216
0.32381536188358506
0.324973570703887
0.3270553784305833
0.3305402377153587
0.33355687164260195
0.33454378646446714
0.33451160555892556
0.29854766117159304
0.2979802511616255
0.33455102513539303
0.3342654633801764
0.3336626912544468
0.3328204684233824
0.33184123589799075
0.3307851947280296
0.3297226981951592
0.3287140127437299
0.32780505914086255
0.3270107121193023
0.3263294337388736
0.3257419332516146
0.3252370547739255
0.3248009603651546
0.32442994173290274
0.3241120310924842
0.3238371214819803
0.32360233551359197
0.32340475198443275
0.32324102044539527
0.3231114186765326
0.3230180170898834
0.32296915660137937
0.32298256689580973
0.32310763914886187
0.3234437006851939
0.3241918465737802
0.32563494876618815
0.3281337275826315
0.33174445656549767
0.3339997080547381
0.33456830027206563
0.33451111341959505
0.2985468391813111
0.2979715260908442
0.33455478241157766
0.3342692485500397
0.33367214180922067
0.3328363521256903
0.33186341269224806
0.330818692152109
0.32976305115370896
0.32876195571052313
0.327854946130792
0.32706397251477193
0.3263839903296665
0.32579794504009163
0.32529234213789415
0.3248585023986531
0.3244839976764059
0.32416503566756527
0.32389187266655406
0.32365542786753754
0.32345383642811987
0.32328587747021076
0.3231494096754344
0.3230466035419114
0.3229814602967822
0.32296677099327953
0.32302766426247853
0.3232310239889985
0.32370473114295983
0.32468345093740825
0.3264284643117108
0.3293809657183705
0.3326903068719754
0.3343034125376767
0.33457545996836535
0.3345112331028042
0.2985465405040023
0.29796737606009627
0.33455824197382367
0.3342727395379066
0.3336804213149629
0.33285250032390545
0.3318864628584097
0.3308475756148451
0.3298026903800275
0.3288066229951746
0.32790522600763883
0.32711468674718447
0.32643734487158604
0.3258521813524655
0.32534745588923897
0.32491266003123287
0.32453986369610044
0.3242177053320774
0.3239430567768058
0.3237080282206162
0.3235047371556913
0.3233322399320375
0.3231908627109371
0.32308000965602224
0.32300316844679866
0.3229675232503594
0.3229910537064261
0.32311014881521416
0.32341230094688367
0.3240582243219964
0.3253006770278488
0.3274085810662817
0.33070061907676307
0.3333971762805089
0.3344798002566107
0.3345770161531171
0.334511498656316
0.29854657860205824
0.30384238177237655
0.3345616950826028
0.3342759223350119
0.3336880203539814
0.33286663182194265
0.3319098128681196
0.33087744886473636
0.3298371215346906
0.3288503686690737
0.3279522528108526
0.3271656877743023
0.3264883741334015
0.3259051265718911
0.32540092948431043
0.324966627171432
0.3245926904031603
0.32427184751196814
0.3239942113095118
0.32375726929406845
0.3235550243679439
0.32338063158121255
0.3232341836297118
0.3231173065305313
0.32303087358827454
0.3229805003072609
0.3229768268864457
0.32304552880676474
0.32323715496207184
0.32366509427475376
0.3245208644910096
0.32604632780515475
0.3285830822965543
0.3318503364748462
0.3338843403255991
0.33456685194933156
0.33457723722434396
0.33451155016437983
0.2985440231548181
0.331621283469657
0.334565355541934
0.33427906958983156
0.33369491644726235
0.33287955671195113
0.33193023589461446
0.33090753088119784
0.3298725470392254
0.32888870945783055
0.327998240244746
0.3272136241595397
0.32653910550854937
0.32595599304693934
0.32545312770645274
0.3250190040158989
0.32464530724765217
0.32432324321030903
0.32404649595701973
0.3238068356183007
0.32360227450372536
0.3234285595806079
0.32327980129652933
0.32315704569225623
0.32306331569955526
0.3230011293637146
0.32297897742124626
0.3230120196002092
0.3231354013146671
0.32341888702876576
0.3240051525534956
0.3251089459480201
0.3269433686564921
0.32989811945690106
0.3327579148295945
0.33418328946623577
0.33460197041971906
0.33457757771168395
0.3344929653683979
0.29853685809858077
0.3335543512205663
0.33456904926187314
0.33428254031452176
0.33370159042471015
0.3328912798863891
0.3319488744260546
0.3309338482254015
0.3299080742475853
0.328927937454068
0.3280388826723474
0.327260298658269
0.3265869884547531
0.326006242849451
0.32550336041676997
0.32507016196140404
0.3246965523801575
0.3243744803686397
0.32409644254799685
0.3238573344036264
0.32365011693587586
0.3234736509887156
0.3233250720164501
0.32319953886180564
0.32309896998233356
0.3230279563976438
0.32299091394773227
0.3229996913754508
0.3230758825907136
0.3232679979350559
0.3236686747306132
0.32444997823099997
0.32582018062302087
0.32803942270109787
0.33118223549939674
0.3334435977480176
0.33444527026892745
0.33461274688075093
0.3345779520340786
0.33417023409843327
0.2985322151286737
0.33370674559247315
0.3345721268473202
0.33428598772817253
0.33370893108787036
0.33290248832887415
0.33196573370740623
0.33095790958423243
0.32993925672011926
0.32896717316120905
0.3280803311151522
0.32730207320582516
0.32663352267543233
0.3260538709745807
0.3255528889524081
0.32511956936955455
0.32474650057397225
0.3244244200263018
0.3241462328733805
0.32390578663843494
0.32369874372760354
0.32351961005411634
0.3233678527704016
0.3232418460622085
0.3231376795942399
0.32305863950278735
0.3230108065421653
0.3230007074603428
0.3230447125700302
0.3231738513129093
0.32345311085098527
0.3240024255598418
0.3250154763033547
0.3266601834062627
0.32929667408004604
0.3322145328360051
0.33392190021821966
0.3345586262708945
0.3346150770255568
0.3345768541026769
0.32664018270414474
0.29852658367625207
0.3337317384970927
0.3345745363889624
0.3342887083487769
0.33371622586884586
0.3329146976627074
0.33198181972918916
0.3309796192425756
0.32996778608972577
0.32900168532802354
0.32812158282403014
0.3273444568962013
0.32667554291859446
0.3261000797315
0.3256000205570979
0.32516815286817213
0.32479483678392007
0.3244730587540674
0.32419478385087996
0.3239539885827406
0.32374560218283877
0.3235662454847411
0.3234117825936217
0.32328208169919215
0.32317684990816364
0.3230931847361457
0.3230354176181395
0.3230116236087285
0.32303197247124904
0.3231179117210431
0.32331326924550585
0.32370409681973533
0.3244374172391772
0.3256996337031155
0.32769458937283313
0.33061764561620477
0.33301045923457717
0.3341853439795106
0.33461509538675815
0.33461462329921443
0.3345759999916027
0.299103613478099
0.2985209149030619
0.3337392216243711
0.33457701646264426
0.3342908133151635
0.33372188759947763
0.3329268014077964
0.3319991446119125
0.3310003941046247
0.3299934708195764
0.3290333637348364
0.3281580308914859
0.32738645527368915
0.3267180355133875
0.32614208031391045
0.32564559505865043
0.3252145353466047
0.32484237294136864
0.32452033125262836
0.3242421440415634
0.3240011778750137
0.32379225673319645
0.32361147577772265
0.32345634950741153
0.3233237993103891
0.3232142617093485
0.32312846542783913
0.32306510665456245
0.3230292964496916
0.32303188252102133
0.32308694124887605
0.323224754778895
0.32350431091934073
0.32403678763204335
0.3249894802593728
0.32650948360218035
0.3289090135868751
0.33175142114545364
0.3336214260178464
0.33445901278237355
0.3346336501117033
0.33461430523193236
0.3345763141599839
0.29870684879531195
0.2985159404317804
0.3337422556835321
0.3345798823498123
0.33429307408065023
0.3337263050304853
0.332936158422359
0.33201625907325316
0.3310224767475125
0.3300181855390236
0.32906198543990905
0.32819165165502495
0.3274237485655921
0.3267599551544975
0.3261844642845878
0.325687446671193
0.32525933844037835
0.3248878482446286
0.32456663756158777
0.32428823689506425
0.32404721793415314
0.3238379963082728
0.32365645412993294
0.3234996962136599
0.32336594713790734
0.32325344798135935
0.3231626642534887
0.3230959614337354
0.32305280720132756
0.3230407589239538
0.3230730790715852
0.3231696518955176
0.3233726968890306
0.3237603352759517
0.324468388685082
0.3256582148172191
0.32749817580843477
0.33022230352260873
0.33263352669169877
0.33403670275786235
0.3345719781195813
0.3346379951415771
0.33461465498191467
0.3345763725210906
0.2987006176267144
0.29851263401854333
0.33374380485293875
0.3345828266293377
0.3342957491970032
0.33373101186999876
0.332943450919456
0.3320294683255388
0.3310442592200492
0.33004420738551166
0.3290895717340464
0.3282221396312398
0.32745828432996704
0.3267973610025823
0.3262261920652043
0.32572949629426096
0.3253007190577927
0.32493178430521397
0.32461114185534845
0.32433337118898076
0.3240920142033338
0.3238826217446159
0.32370070401962114
0.3235428657030627
0.3234073204066231
0.32329303061537507
0.323199155672971
0.3231262710070254
0.3230786910294664
0.32305689952128325
0.3230707573234636
0.3231376454933097
0.32328608238180656
0.32357197819365935
0.3240968590174609
0.3250152439202053
0.32644950853766874
0.3286743666993369
0.3314166151293493
0.33332304325535467
0.33430144375613036
0.33462744250067966
0.3346389230968556
0.3346153774842954
0.3345738793575397
0.2986987476291183
0.2992781235400547
0.3337446948484345
0.3345856370422935
0.3342983832562314
0.3337364713136888
0.3329511858468591
0.3320397291023538
0.33106099316774973
0.3300697089732788
0.32911840106404033
0.3282516078771489
0.3274897769671997
0.32683224403256106
0.32626354245551215
0.3257708269944901
0.32534228369748786
0.32497254302240086
0.3246540886746855
0.324376876479171
0.32413600850624225
0.32392626818785375
0.3237438025612138
0.3235854988438396
0.32344854704225545
0.32333231272558793
0.3232360693967512
0.32315946211199464
0.32310457715173124
0.3230763571468509
0.3230779143354867
0.3231213770546828
0.32323025398879945
0.32344366083967735
0.323836144930964
0.3245313331832994
0.3256768872196132
0.32740962054780265
0.3299675677031201
0.33236118922963387
0.3338420299418937
0.33450263260151836
0.3346479369156502
0.33463953395303947
0.33461591205600494
0.33451472546924976
0.29869558967432763
0.33131523560124
0.3337451653071094
0.3345881893655305
0.3343009068291253
0.33374165276443946
0.3329599732849192
0.33205060970866307
0.3310740484807364
0.33008940861375746
0.32914650799796197
0.32828211802705964
0.3275203056783549
0.3268641627108626
0.3262985349618426
0.3258079801140711
0.32538300385105323
0.32501344132471865
0.3246941832128468
0.3244187744976672
0.32417843316831874
0.32396888977905614
0.32378614532518246
0.3236271263277497
0.3234895105417126
0.3233716055961853
0.3232731032882754
0.3231937837718498
0.3231339262988754
0.3230973158123759
0.3230895277396715
0.3231170366848667
0.32319597408611167
0.32335681379513115
0.32365305198755623
0.3241811049309784
0.3250804993256744
0.3264577921684906
0.3285607978469086
0.33119361641659706
0.3330996227548175
0.33419160222658195
0.3345940777966748
0.3346538164225512
0.3346400405295974
0.3346161453091193
0.3282699738069528
0.2986892034312296
0.33419531555979565
0.33374542601612933
0.33459033304412067
0.334303236005697
0.33374662563781665
0.3329682142251291
0.33206275298251386
0.3310878550096211
0.33010481395614566
0.3291683761606019
0.32831172586758617
0.32755171162137664
0.3268951897310164
0.326330756192703
0.3258428853299524
0.32541979944848465
0.3250534726881812
0.3247344516265269
0.3244581182492984
0.32421933552863214
0.3240103015183472
0.3238275297503147
0.3236680939155022
0.3235295440102337
0.3234107935018513
0.32331035935388264
0.3232283538941999
0.32316482279466674
0.3231219833518708
0.3231043607768893
0.3231198355115237
0.32317735228705513
0.3232985727947598
0.32352530899795295
0.32392826044902856
0.32462443338168745
0.325742152674091
0.32740284692851784
0.3298369951448561
0.3321829588213522
0.333673754717389
0.33442058109074124
0.3346395318163782
0.33465580885840784
0.334640519959193
0.33461603539318197
0.29926139932736784
0.29868581722816
0.33428690740643174
0.3337455900130495
0.3345917933878243
0.33430513536760853
0.3337513205695283
0.33297610144017864
0.3320741083902853
0.33110309573555263
0.33012110391366367
0.32918560888681425
0.3283349608092747
0.3275819791423886
0.32692690647289235
0.3263621649945402
0.3258751591665542
0.32545446841107717
0.32508971429923095
0.324773660539852
0.32449762281969274
0.32425790204773064
0.3240501490450849
0.3238677935617714
0.3237081220280221
0.3235690972938008
0.3234492569791315
0.32334775309667574
0.32326320435581746
0.3231964906465239
0.323148742870197
0.3231238345013452
0.32312692760591355
0.3231686749446476
0.32326182190480857
0.32343596793828155
0.32374705621816735
0.3242854278165964
0.3251818764839369
0.3265210706697077
0.32853964039285743
0.3310766415235452
0.33294662607153314
0.33408304777133024
0.33455636302906133
0.3346592023453654
0.3346572798410874
0.3346407253022152
0.33461451375769047
0.2987696109816229
0.2986835485294681
0.33429996575565113
0.3337457456761418
0.33459297325052906
0.33430633497580486
0.333755138587028
0.3329835832890933
0.3320848976476729
0.33111730276093043
0.33013895015947636
0.32920390978566894
0.32835367302701457
0.327606025816757
0.3269573187678977
0.326394011606267
0.32590675550905024
0.3254866335056197
0.32512403329194606
0.32480933034344883
0.3245361063876221
0.32429656427256137
0.32408777469864636
0.32390648719170245
0.32374707697312843
0.3236078056045514
0.32348730368453915
0.3233843964345625
0.32329832337089437
0.3232285665731768
0.3231770899167655
0.32314541993443335
0.3231401125633664
0.323166390852628
0.32323796237098545
0.32337473777537784
0.3236166957792832
0.32403596497322185
0.32474210005686177
0.3258498485090743
0.32746348540829706
0.329799395103205
0.33208999771552217
0.33355368986028044
0.33435298921454937
0.33462310485949454
0.3346677513912695
0.3346575737426266
0.33464046927348556
0.33460907325323963
0.2987679303848497
0.3003384712011541
0.33430338804347803
0.33374586992676414
0.33459438803937536
0.33430725477459167
0.33375763924646107
0.33298960810117295
0.33209512266024366
0.3311307609635826
0.33015556408907454
0.329223617809864
0.3283734772228264
0.3276258113528685
0.3269817993832633
0.3264244598426813
0.32593864030401754
0.32551824922124983
0.32515607252566403
0.3248432283474417
0.324571158120353
0.32433431342276664
0.3241257055523856
0.32394326782163174
0.3237846060027251
0.3236455379160933
0.3235246461292288
0.3234208814426528
0.32333293823014264
0.3232612048872133
0.32320586643944116
0.32316982171485575
0.3231551563150351
0.3231714060549983
0.3232243962969338
0.3233323968308981
0.32352374751646873
0.3238524096171246
0.3244091732132629
0.32531305952254497
0.3266340742651005
0.3285962039311292
0.33103784572855044
0.3328639371202119
0.33400042000733243
0.3345205482567142
0.3346579791862069
0.3346687497005828
0.33465744878879744
0.33464013281003024
0.33427159478454893
0.2987654796014193
0.33346605589674483
0.33430451571621467
0.3337459764890588
0.33459644652504583
0.33430850610505514
0.33375947222554736
0.33299356730252094
0.33210328728100613
0.33114345383287247
0.3301712190281364
0.329242095571909
0.32839446841736863
0.3276466534851773
0.3270023428693941
0.32644930393952687
0.32596904963930795
0.3255500253060485
0.32518754359460555
0.3248750310780524
0.32460460760967147
0.3243686843551824
0.32416262368736193
0.32398028459036465
0.32382050323401124
0.32368202500812304
0.32356124552741994
0.32345657791803295
0.3233675203660936
0.3232935422201012
0.3232356896669756
0.32319493034936664
0.3231747306734666
0.3231797051030212
0.32321995235003076
0.32330386545466205
0.32345701480534506
0.3237184023546752
0.32415819081638997
0.3248843271324251
0.32599293565253173
0.3275847001307398
0.32984721967452
0.3320575611773059
0.3334851986771701
0.33430034330749236
0.3346119914540415
0.33466730561383073
0.334668369968111
0.3346573594301042
0.33463983965803457
0.30064817260826837
0.2987618959856152
0.33445043653094075
0.33430490369469146
0.33374606091926595
0.3345991946131066
0.33431040198244844
0.33376196364058075
0.33299638673173304
0.33210860643989326
0.33115351253321956
0.33018593555746467
0.3292594164135575
0.328414194170207
0.32766850560718386
0.32702397460703514
0.32647052553667355
0.3259941130145826
0.3255802341394989
0.32521909830080675
0.324906312822949
0.3246359751839428
0.3244015946396197
0.3241963076566792
0.324016312814415
0.32385655993294393
0.3237169086525712
0.3235965282427665
0.3234917697104738
0.32340141576632453
0.3233259075126682
0.3232654040374532
0.3232218803004965
0.32319616994386147
0.3231930872750146
0.3232199593219508
0.3232874963942812
0.32340923111061726
0.3236188484752466
0.32397055352947746
0.3245512708971825
0.32547171591996993
0.3267886068169299
0.3287239162936001
0.33107041916677116
0.3328325337363377
0.3339506422956471
0.3344884514284273
0.33465660648494233
0.33467453983585194
0.33466941133486294
0.3346573408364596
0.3346390565865236
0.2988088048977804
0.2987604805851882
0.33447584536580477
0.3343050777008063
0.33374613243203066
0.3346016925967217
0.3343129707592325
0.3337655681976551
0.3330002288853695
0.33211232818422076
0.3311600016105144
0.330197498026526
0.3292755719444672
0.3284326654606774
0.32768904913281205
0.32704631556277663
0.32649282285361103
0.32601592503153776
0.325605434360864
0.32524908227413196
0.32493757463212336
0.3246670618025712
0.32443258643407036
0.324228596238748
0.3240493799416021
0.32389174546440014
0.3237520924391125
0.3236304241344883
0.3235257700469225
0.32343503304512533
0.3233578796056005
0.3232956290381751
0.32324862359461126
0.323219477302378
0.3232095405740748
0.3232261807044835
0.3232773144976082
0.32337757338421735
0.323546139332093
0.32382838121233726
0.32429574364875435
0.3250488785162895
0.3261652721854631
0.32775684239641345
0.32997505298655627
0.33208421964273716
0.3334572510767789
0.33426726450529787
0.3345994397272205
0.33467423630507176
0.3346782062615804
0.3346698896545691
0.33465740212223527
0.3346321704287053
0.29880725382953377
0.30468970147450625
0.33447960789775344
0.33430516050375936
0.3337461894250294
0.33460404436566205
0.3343153231526329
0.33377037533258447
0.33300574492829693
0.33211743584202
0.33116455242872544
0.3302049706546941
0.3292882514908003
0.3284498335959958
0.32770823142144756
0.3270673677335707
0.32651553629811947
0.3260386852144447
0.32562768695179356
0.3252742767543858
0.32496718499551214
0.3246979886285838