/*--------------------------------*- C++ -*----------------------------------*\
| =========                 |                                                 |
| \\      /  F ield         | OpenFOAM: The Open Source CFD Toolbox           |
|  \\    /   O peration     | Version:  v2012                                 |
|   \\  /    A nd           | Website:  www.openfoam.com                      |
|    \\/     M anipulation  |                                                 |
\*---------------------------------------------------------------------------*/
FoamFile
{
    version     2.0;
    format      ascii;
    class       volScalarField;
    location    "13200";
    object      q2;
}
// * * * * * * * * * * * * * * * * * * * * * * * * * * * * * * * * * * * * * //

dimensions      [0 0 0 0 0 0 0];


internalField   nonuniform List<scalar> 
39402
(
1
1
1
1
1
1
1
1
1
0.999994
1
1
1
1
0.976604
1
1
1
1
1
0.727354
1
1
1
1
1
0.99486
0.404635
1
1
1
1
1
1
0.860504
0.213862
1
1
1
1
1
1
0.999921
0.548246
0.115953
1
1
1
1
1
1
0.999994
0.980173
0.300158
0.0650937
1
1
1
1
1
1
0.999998
0.998177
0.805955
0.160614
0.0375556
1
1
1
1
1
1
0.999996
0.999735
0.970544
0.510376
0.0872478
0.0221993
1
1
1
1
1
1
0.999995
0.999859
0.997181
0.858162
0.28472
0.0483183
0.0132608
1
1
1
1
1
1
0.999992
0.999893
0.999273
0.984458
0.668931
0.153856
0.0271514
0.00805547
1
1
1
1
1
1
0.99999
0.999898
0.999664
0.997558
0.950786
0.477434
0.0827998
0.0155319
0.00491493
1
1
1
1
1
1
0.999989
0.9999
0.999769
0.999259
0.994254
0.893179
0.329513
0.0447175
0.00899015
0.00301401
1
1
1
1
1
1
0.999989
0.999898
0.999808
0.99962
0.998814
0.989498
0.820739
0.23747
0.0241737
0.0052627
0.00183982
1
1
1
1
1
1
0.999989
0.999901
0.999824
0.999735
0.999561
0.998528
0.983398
0.752004
0.195498
0.0130622
0.0030972
0.00111642
1
1
1
1
1
1
0.99999
0.999905
0.999838
0.999784
0.999747
0.999628
0.998396
0.975698
0.692868
0.172651
0.00708612
0.00180382
0.000655034
1
1
1
1
1
1
0.999991
0.999909
0.99985
0.999816
0.999823
0.99983
0.999734
0.998275
0.962478
0.596059
0.131396
0.00386483
0.0010167
0.000397607
1
1
1
1
1
1
0.999992
0.999914
0.999857
0.999838
0.999862
0.999903
0.999912
0.999813
0.997895
0.938577
0.480456
0.092719
0.00213486
0.000591376
0.000281906
1
1
1
1
1
1
0.999993
0.999919
0.999865
0.999853
0.999885
0.999933
0.999961
0.99996
0.999855
0.996963
0.895586
0.365729
0.0603612
0.00121301
0.000384311
0.000248689
1
1
1
1
1
1
0.999994
0.999926
0.999873
0.999866
0.9999
0.999948
0.999977
0.999987
0.999981
0.999865
0.994715
0.822647
0.266799
0.0354964
0.000720229
0.000246256
0.000373565
1
1
1
1
1
1
0.999995
0.999931
0.99988
0.999878
0.999912
0.999958
0.999985
0.999994
0.999996
0.99999
0.999832
0.988982
0.712731
0.192329
0.0186311
0.000442219
0.000154448
0.000622943
1
1
1
1
1
1
0.999995
0.999936
0.999885
0.999889
0.999923
0.999964
0.999988
0.999997
0.999999
0.999999
0.999993
0.999705
0.97369
0.573287
0.143059
0.00860319
0.000274113
0.000107033
0.000676355
1
1
1
1
1
1
0.999996
0.999941
0.999891
0.999898
0.99993
0.99997
0.999991
0.999998
0.999999
1
0.999999
0.999992
0.999261
0.934482
0.427334
0.109045
0.00346247
0.000172351
9.03949e-05
0.000508935
1
1
1
1
1
1
0.999997
0.999945
0.999897
0.999904
0.999937
0.999973
0.999993
0.999998
1
1
1
1
0.999985
0.997553
0.848225
0.299084
0.0675575
0.00123658
0.000114924
9.20067e-05
0.000444319
1
1
1
1
1
1
0.999997
0.999948
0.999899
0.99991
0.999941
0.999976
0.999994
0.999999
1
1
1
1
1
0.999956
0.990674
0.70098
0.202708
0.0324333
0.000427924
8.56636e-05
0.000106778
0.000369968
1
1
1
1
1
1
0.999998
0.999952
0.999902
0.999913
0.999945
0.999978
0.999995
0.999999
1
1
1
1
1
0.999999
0.999805
0.964779
0.520463
0.141146
0.0132468
0.000168479
7.32252e-05
0.000135522
0.000289569
1
1
1
1
1
1
0.999998
0.999955
0.999906
0.999918
0.999948
0.99998
0.999995
0.999999
1
1
1
1
1
1
0.999997
0.998877
0.887903
0.355318
0.101132
0.00463471
8.53251e-05
7.16407e-05
0.000155586
0.000156446
1
1
1
1
1
1
0.999998
0.999958
0.999909
0.999923
0.99995
0.999981
0.999996
0.999999
1
1
1
1
1
1
1
0.999984
0.993304
0.733167
0.233433
0.055518
0.00140793
5.70448e-05
7.39201e-05
0.000168896
8.24873e-05
1
1
1
1
1
1
0.999999
0.999963
0.999914
0.999926
0.999953
0.999982
0.999996
0.999999
1
1
1
1
1
1
1
1
0.999864
0.966002
0.530766
0.15587
0.0233853
0.000414428
5.16293e-05
7.90325e-05
0.000213424
5.74278e-05
1
1
1
1
1
1
0.999999
0.999965
0.999919
0.999931
0.999954
0.999983
0.999996
0.999999
1
1
1
1
1
1
1
1
0.999998
0.998763
0.874663
0.349427
0.107874
0.00833142
0.000146255
6.30344e-05
9.25001e-05
0.000236937
5.02899e-05
1
1
1
1
1
1
0.999999
0.999967
0.99992
0.999935
0.999957
0.999983
0.999996
0.999999
1
1
1
1
1
1
1
1
1
0.999981
0.990249
0.692632
0.224098
0.0618247
0.00255757
7.25574e-05
8.04166e-05
0.000129422
0.000158425
5.48518e-05
1
1
1
1
1
1
0.999999
0.99997
0.999923
0.999935
0.999959
0.999983
0.999996
1
1
1
1
1
1
1
1
1
1
1
0.999747
0.945703
0.476957
0.151226
0.0259287
0.000728813
5.52216e-05
9.96355e-05
0.000190569
8.788e-05
7.80679e-05
1
1
1
1
1
1
0.999999
0.999973
0.999929
0.999936
0.999959
0.999984
0.999996
1
1
1
1
1
1
1
1
1
1
1
0.999997
0.997022
0.811711
0.305431
0.105786
0.00922247
0.000235846
5.98532e-05
0.000116457
0.00030061
4.20329e-05
0.000201102
1
1
1
1
1
1
0.999999
0.999975
0.999931
0.999941
0.999959
0.999984
0.999997
1
1
1
1
1
1
1
1
1
1
1
1
0.999937
0.975881
0.592578
0.197603
0.0533018
0.00291809
0.000105546
9.66557e-05
0.00011406
0.000825209
2.36243e-05
0.000632957
1
1
1
1
1
1
0.999999
0.999976
0.999933
0.999943
0.99996
0.999983
0.999996
1
1
1
1
1
1
1
1
1
1
1
1
0.999999
0.998941
0.884016
0.383054
0.135001
0.0212439
0.000898617
7.27324e-05
0.000247677
0.000102399
0.00335171
9.0639e-06
0.00167554
1
1
1
1
1
1
1
0.999977
0.999933
0.999944
0.999962
0.999984
0.999996
1
1
1
1
1
1
1
1
1
1
1
1
1
0.999981
0.988169
0.683789
0.241479
0.0848056
0.00748724
0.00031821
0.000103712
0.000500024
7.85418e-05
0.00787376
5.16211e-06
0.00359202
1
1
1
1
1
1
1
0.999979
0.999933
0.999942
0.999963
0.999984
0.999996
1
1
1
1
1
1
1
1
1
1
1
1
1
1
0.999547
0.925283
0.453755
0.163351
0.0374359
0.00249339
0.000170344
0.000240478
0.000477327
5.0446e-05
0.00248243
3.4141e-06
0.00683216
1
1
1
1
1
1
1
0.999979
0.999934
0.99994
0.999961
0.999984
0.999996
1
1
1
1
1
1
1
1
1
1
1
1
1
1
0.999992
0.993311
0.749338
0.285623
0.115046
0.0144417
0.000927185
0.000166921
0.000550409
0.000268282
5.49517e-05
0.000445854
2.96664e-06
0.0114903
1
1
1
1
1
1
1
0.999981
0.999931
0.99994
0.999963
0.999984
0.999996
1
1
1
1
1
1
1
1
1
1
1
1
1
1
1
0.99976
0.947097
0.510053
0.189597
0.0548645
0.00532447
0.000471928
0.000259358
0.0015536
0.000112589
9.09289e-05
6.60658e-05
3.14145e-06
0.0193974
1
1
1
1
1
1
1
0.999981
0.999933
0.999936
0.999961
0.999984
0.999996
1
1
1
1
1
1
1
1
1
1
1
1
1
1
1
0.999996
0.995526
0.790433
0.320477
0.131407
0.0223537
0.00213046
0.000361733
0.000625124
0.00439963
4.279e-05
0.000282366
2.05367e-05
4.45525e-06
0.0348672
1
1
1
1
1
1
1
0.999983
0.999936
0.999938
0.999959
0.999984
0.999996
0.999999
1
1
1
1
1
1
1
1
1
1
1
1
1
1
1
0.999838
0.957762
0.54839
0.208964
0.0699492
0.00886535
0.00114966
0.000448059
0.00172564
0.00781197
1.90632e-05
0.0230628
3.98852e-06
8.17782e-06
0.0732918
1
1
1
1
1
1
1
0.999984
0.999941
0.999937
0.99996
0.999982
0.999996
0.999999
1
1
1
1
1
1
1
1
1
1
1
1
1
1
1
0.999997
0.996383
0.812462
0.343978
0.143771
0.0298615
0.00383197
0.000872593
0.000821339
0.00620168
0.00203698
1.22031e-05
0.295803
1.33486e-06
2.08667e-05
0.192928
1
1
1
1
1
1
1
0.999984
0.999943
0.999942
0.99996
0.999982
0.999996
0.999999
1
1
1
1
1
1
1
1
1
1
1
1
1
1
1
1
0.999859
0.96179
0.569521
0.221913
0.0816294
0.0124489
0.00218824
0.000959079
0.00216152
0.077385
0.000206617
1.44049e-05
0.00131128
6.66329e-07
8.25008e-05
0.538442
1
1
1
1
1
1
1
0.999984
0.999939
0.999944
0.999961
0.999983
0.999996
0.999999
1
1
1
1
1
1
1
1
1
1
1
1
1
1
1
1
0.999997
0.996473
0.819079
0.356572
0.152532
0.0358754
0.00575606
0.00184656
0.00147324
0.00781017
0.999868
3.42397e-05
2.5134e-05
6.84595e-05
5.29143e-07
0.00030867
0.967736
1
1
1
1
1
1
1
0.999985
0.999937
0.99994
0.999963
0.999983
0.999996
0.999999
1
1
1
1
1
1
1
1
1
1
1
1
1
1
1
1
1
0.999846
0.960696
0.573158
0.229802
0.0892129
0.0154214
0.00352053
0.00204564
0.0040225
0.0288501
0.971854
1.178e-05
8.08094e-05
9.49761e-06
6.97757e-07
0.000967155
0.999999
1
1
1
1
1
1
1
0.999985
0.999937
0.999935
0.999961
0.999984
0.999996
0.999999
1
1
1
1
1
1
1
1
1
1
1
1
1
1
1
1
1
0.999997
0.995881
0.812294
0.358454
0.158056
0.0397682
0.00761781
0.00325925
0.00325725
0.0197113
0.082431
0.0058689
5.69812e-06
0.00989066
1.07499e-06
1.48428e-06
0.003285
1
1
1
1
1
1
1
1
0.999985
0.999939
0.999936
0.999959
0.999982
0.999996
0.999999
1
1
1
1
1
1
1
1
1
1
1
1
1
1
1
1
1
1
0.999791
0.954706
0.561887
0.23175
0.0922829
0.0176191
0.00493958
0.00418661
0.0130683
0.0167195
0.999999
0.000245936
4.57545e-06
0.0108559
3.30445e-07
4.91891e-06
0.0147575
1
1
1
1
1
1
1
1
0.999986
0.999942
0.999938
0.999959
0.999981
0.999995
0.999999
1
1
1
1
1
1
1
1
1
1
1
1
1
1
1
1
1
1
0.999995
0.994471
0.792203
0.350289
0.159454
0.0413709
0.00921182
0.00502062
0.0084023
0.1099
0.0224183
0.99999
2.3432e-05
7.52289e-06
8.21456e-05
1.86103e-07
2.6708e-05
0.0877714
1
1
1
1
1
1
1
1
0.999986
0.999943
0.999939
0.99996
0.999981
0.999995
0.999999
1
1
1
1
1
1
1
1
1
1
1
1
1
1
1
1
1
1
1
0.999654
0.94241
0.536622
0.228046
0.0908051
0.0187835
0.00645665
0.00849485
0.047757
0.0456103
0.0126123
0.999257
6.11775e-06
2.79649e-05
3.89098e-06
2.14724e-07
0.000176975
0.497925
1
1
1
1
1
1
1
1
0.999985
0.999939
0.999939
0.99996
0.999982
0.999995
0.999999
1
1
1
1
1
1
1
1
1
1
1
1
1
1
1
1
1
1
1
0.999989
0.99144
0.757976
0.333703
0.157463
0.0406159
0.0104355
0.00760012
0.0254715
0.187689
0.0211855
0.0338167
0.0212385
2.53441e-06
0.00160155
4.30706e-07
4.79884e-07
0.00104424
0.999551
1
1
1
1
1
1
1
1
0.999985
0.999935
0.999934
0.999962
0.999982
0.999995
0.999999
1
1
1
1
1
1
1
1
1
1
1
1
1
1
1
1
1
1
1
1
0.999337
0.921559
0.499956
0.220936
0.0856074
0.0188636
0.00806763
0.0184948
0.166774
0.175127
0.0147319
1
4.73246e-05
2.10887e-06
0.00225922
1.17322e-07
2.07735e-06
0.00779312
1
1
1
1
1
1
1
1
1
0.999985
0.999932
0.99993
0.999959
0.999982
0.999995
0.999999
1
1
1
1
1
1
1
1
1
1
1
1
1
1
1
1
1
1
1
1
0.999971
0.985646
0.711655
0.311618
0.153137
0.0380456
0.0112237
0.0109093
0.102268
0.996187
0.116567
0.00518597
0.089101
8.86106e-06
4.44049e-06
9.29833e-06
8.04742e-08
1.69178e-05
0.0752586
1
1
1
1
1
1
1
1
1
0.999984
0.999933
0.999927
0.999954
0.999981
0.999995
0.999999
1
1
1
1
1
1
1
1
1
1
1
1
1
1
1
1
1
1
1
1
0.999999
0.998505
0.889207
0.457766
0.210546
0.0776568
0.0183104
0.00982334
0.0368927
0.909317
0.999934
0.0189705
0.00404885
0.0597244
2.29046e-06
3.48986e-05
5.24347e-07
1.29276e-07
0.000186224
0.705092
1
1
1
1
1
1
1
1
1
0.999984
0.999931
0.999926
0.999953
0.999979
0.999995
0.999999
1
1
1
1
1
1
1
1
1
1
1
1
1
1
1
1
1
1
1
1
1
0.999909
0.973965
0.654603
0.289284
0.145258
0.0343518
0.0118907
0.0161424
0.473459
0.876842
1
0.00470866
0.00766999
0.00262996
1.13846e-06
0.118727
8.75578e-08
5.04344e-07
0.00195976
1
1
1
1
1
1
1
1
1
1
0.999984
0.999934
0.999925
0.999952
0.999978
0.999994
0.999999
1
1
1
1
1
1
1
1
1
1
1
1
1
1
1
1
1
1
1
1
1
0.999997
0.99638
0.840217
0.412655
0.19772
0.0679456
0.0173789
0.0122834
0.102798
1
1
0.0526389
0.00452871
0.0755465
6.14892e-06
1.69139e-06
6.83776e-05
4.08636e-08
4.29003e-06
0.0308321
1
1
1
1
1
1
1
1
1
1
0.999983
0.999931
0.999926
0.999951
0.999978
0.999994
0.999999
1
1
1
1
1
1
1
1
1
1
1
1
1
1
1
1
1
1
1
1
1
1
0.999704
0.951757
0.584548
0.264317
0.124986
0.0300744
0.0126682
0.028309
1
0.995023
0.134035
0.0171723
0.0043944
0.000549938
1.66731e-06
9.42672e-06
3.24505e-07
6.30272e-08
8.02876e-05
0.513011
1
1
1
1
1
1
1
1
1
1
0.999981
0.999927
0.999924
0.999952
0.999977
0.999994
0.999999
1
1
1
1
1
1
1
1
1
1
1
1
1
1
1
1
1
1
1
1
1
1
0.999985
0.99114
0.771124
0.363187
0.181207
0.0567419
0.0163235
0.0161375
0.294453
1
0.763659
0.0590544
0.0026435
0.00266455
0.000762931
8.39624e-07
0.00299064
4.47274e-08
2.56252e-07
0.00134738
1
1
1
1
1
1
1
1
1
1
1
0.999982
0.99992
0.999919
0.999951
0.999978
0.999994
0.999999
1
1
1
1
1
1
1
1
1
1
1
1
1
1
1
1
1
1
1
1
1
1
0.999999
0.998962
0.913554
0.507519
0.238382
0.103391
0.0258167
0.0137602
0.0493807
0.999515
0.998925
1
0.068117
0.000808421
0.00168578
1.05722e-05
1.09973e-06
7.81278e-06
2.41451e-08
3.05359e-06
0.035482
1
1
1
1
1
1
1
1
1
1
1
0.999983
0.999921
0.999911
0.999947
0.999977
0.999994
0.999999
1
1
1
1
1
1
1
1
1
1
1
1
1
1
1
1
1
1
1
1
1
1
1
0.999921
0.978104
0.688725
0.316667
0.164175
0.0458549
0.0156321
0.0218134
0.366458
0.45435
0.119954
0.0645001
0.0566542
0.00159463
0.00302349
8.80538e-07
5.32874e-06
1.72706e-07
4.24449e-08
8.83996e-05
0.787679
1
1
1
1
1
1
1
1
1
1
1
0.999982
0.999924
0.999913
0.999942
0.999975
0.999994
0.999999
1
1
1
1
1
1
1
1
1
1
1
1
1
1
1
1
1
1
1
1
1
1
1
0.999996
0.996358
0.849294
0.43597
0.213476
0.0823945
0.0220573
0.016045
0.0833344
0.810894
0.156306
0.0938158
0.112985
0.0333015
0.0182695
2.07803e-05
5.08065e-07
0.000423951
2.01467e-08
2.69901e-07
0.00247545
1
1
1
1
1
1
1
1
1
1
1
1
0.999981
0.999916
0.999913
0.999943
0.999972
0.999993
0.999999
1
1
1
1
1
1
1
1
1
1
1
1
1
1
1
1
1
1
1
1
1
1
1
1
0.999601
0.948887
0.590627
0.277975
0.139601
0.0359838
0.0157517
0.0324248
0.912008
1
0.999965
0.588902
0.179001
0.000923161
0.136561
3.61741e-06
1.26038e-06
6.79663e-07
1.7215e-08
5.72254e-06
0.102895
1
1
1
1
1
1
1
1
1
1
1
1
0.999981
0.999908
0.999905
0.999943
0.999973
0.999992
0.999999
1
1
1
1
1
1
1
1
1
1
1
1
1
1
1
1
1
1
1
1
1
1
1
1
0.99997
0.988114
0.759338
0.365699
0.189193
0.0632741
0.0189753
0.0210269
0.190035
1
0.378253
0.155707
0.028819
0.00121808
0.000209524
0.0472453
7.25206e-07
0.000237162
3.55142e-08
4.70172e-08
0.000243802
0.999987
1
1
1
1
1
1
1
1
1
1
1
1
0.99998
0.99991
0.999896
0.99994
0.999972
0.999992
0.999999
1
1
1
1
1
1
1
1
1
1
1
1
1
1
1
1
1
1
1
1
1
1
1
1
0.999998
0.998087
0.892499
0.493729
0.240466
0.107336
0.0281818
0.0167564
0.0508881
1
0.88379
0.388729
0.15887
0.020824
0.000450444
0.000821301
9.58929e-05
3.99417e-07
1.21039e-05
9.6816e-09
6.16091e-07
0.0139972
1
1
1
1
1
1
1
1
1
1
1
1
1
0.999978
0.999913
0.999901
0.999937
0.99997
0.999992
0.999999
1
1
1
1
1
1
1
1
1
1
1
1
1
1
1
1
1
1
1
1
1
1
1
1
1
0.999781
0.965262
0.649784
0.309165
0.165147
0.0469079
0.0172276
0.0282459
0.249371
1
0.999931
0.137489
0.171879
0.530784
0.00271438
0.000904038
7.55366e-07
1.46738e-06
8.3498e-08
1.63064e-08
3.30442e-05
0.777252
1
1
1
1
1
1
1
1
1
1
1
1
1
0.999976
0.99991
0.999904
0.999939
0.999968
0.999991
0.999999
1
1
1
1
1
1
1
1
1
1
1
1
1
1
1
1
1
1
1
1
1
1
1
1
1
0.999982
0.991809
0.801474
0.404898
0.208671
0.0792
0.0225571
0.0193435
0.0767072
0.667701
0.138469
0.0278879
0.0125841
0.00437518
0.0208619
0.0113935
5.44388e-05
3.60138e-07
0.000219686
9.12754e-09
1.25522e-07
0.0022957
1
1
1
1
1
1
1
1
1
1
1
1
1
1
0.999976
0.9999
0.999902
0.999941
0.99997
0.999991
0.999999
1
1
1
1
1
1
1
1
1
1
1
1
1
1
1
1
1
1
1
1
1
1
1
1
1
0.999999
0.998604
0.912372
0.53222
0.261065
0.127603
0.0340437
0.0172122
0.0390478
0.366253
0.182318
0.0433621
0.0174449
0.0136103
0.117294
0.000833886
0.000995105
4.6591e-06
7.21558e-07
1.50118e-07
8.57119e-09
5.2077e-06
0.224775
1
1
1
1
1
1
1
1
1
1
1
1
1
1
0.999974
0.999896
0.999893
0.999939
0.999972
0.999991
0.999998
1
1
1
1
1
1
1
1
1
1
1
1
1
1
1
1
1
1
1
1
1
1
1
1
1
1
0.999819
0.970702
0.679257
0.330072
0.177837
0.0558958
0.0187305
0.0257434
0.149459
0.993216
0.307089
0.351772
1
0.134489
0.00104763
7.86237e-05
0.000477305
3.93315e-07
0.0103896
1.03142e-08
3.80792e-08
0.000498782
1
1
1
1
1
1
1
1
1
1
1
1
1
1
1
0.999973
0.999889
0.999885
0.999933
0.99997
0.999991
0.999999
1
1
1
1
1
1
1
1
1
1
1
1
1
1
1
1
1
1
1
1
1
1
1
1
1
1
0.999982
0.992594
0.816665
0.424973
0.219685
0.090317
0.0253086
0.0189552
0.0604618
1
1
0.351668
0.0901063
0.0204269
0.0034079
0.000194363
0.000184918
4.23817e-05
3.68058e-07
6.20238e-07
5.07865e-09
1.1991e-06
0.0714913
1
1
1
1
1
1
1
1
1
1
1
1
1
1
1
0.999972
0.999883
0.999874
0.999928
0.999968
0.999991
0.999999
1
1
1
1
1
1
1
1
1
1
1
1
1
1
1
1
1
1
1
1
1
1
1
1
1
1
0.999999
0.998566
0.915863
0.546481
0.271263
0.139231
0.0382567
0.0173654
0.0366482
0.320843
1
0.798137
0.448859
0.473952
0.977357
0.161524
0.00135013
0.000329821
2.84342e-07
2.59321e-06
1.18431e-08
1.78203e-08
0.000155426
1
1
1
1
1
1
1
1
1
1
1
1
1
1
1
1
0.999974
0.999881
0.999873
0.999921
0.999966
0.999991
0.999999
1
1
1
1
1
1
1
1
1
1
1
1
1
1
1
1
1
1
1
1
1
1
1
1
1
1
1
0.99978
0.969434
0.682711
0.337631
0.183604
0.0610079
0.0195757
0.0234808
0.0974624
0.987729
0.556403
0.211924
0.132595
0.0101722
0.00145608
0.00292746
0.00952413
6.19191e-06
2.97102e-07
2.35151e-06
3.52325e-09
4.07324e-07
0.0320546
1
1
1
1
1
1
1
1
1
1
1
1
1
1
1
1
0.999973
0.999886
0.999869
0.999921
0.999963
0.99999
0.999999
1
1
1
1
1
1
1
1
1
1
1
1
1
1
1
1
1
1
1
1
1
1
1
1
1
1
1
0.999973
0.991165
0.810272
0.426303
0.223441
0.0949285
0.0265441
0.0180381
0.0463445
0.466881
0.129599
0.0277629
0.0141617
0.0073437
0.00208202
0.00119418
0.00317322
0.0489704
1.38331e-06
5.04343e-06
1.04141e-08
1.07752e-08
6.90802e-05
1
1
1
1
1
1
1
1
1
1
1
1
1
1
1
1
1
0.999972
0.99988
0.999869
0.999919
0.999963
0.999989
0.999998
1
1
1
1
1
1
1
1
1
1
1
1
1
1
1
1
1
1
1
1
1
1
1
1
1
1
1
0.999997
0.997926
0.905008
0.538556
0.271786
0.141732
0.0395616
0.0170619
0.0320878
0.12721
0.301822
0.0237262
0.0116774
0.00962459
0.0108301
0.0392193
0.00885326
4.61639e-05
0.00947593
3.22745e-07
1.47506e-06
3.55321e-09
1.96302e-07
0.019805
1
1
1
1
1
1
1
1
1
1
1
1
1
1
1
1
1
0.999972
0.999875
0.999866
0.999918
0.999961
0.999989
0.999998
1
1
1
1
1
1
1
1
1
1
1
1
1
1
1
1
1
1
1
1
1
1
1
1
1
1
1
1
0.999602
0.960822
0.661265
0.333042
0.183224
0.0613285
0.0194678
0.0220091
0.0703484
0.579633
0.117084
0.0567127
0.0857156
0.897486
0.139419
0.00202927
5.75919e-05
9.62582e-05
9.17362e-07
4.95803e-07
1.12699e-08
6.27952e-09
4.2635e-05
1
1
1
1
1
1
1
1
1
1
1
1
1
1
1
1
1
1
0.999972
0.999875
0.999866
0.999914
0.999961
0.999989
0.999998
1
1
1
1
1
1
1
1
1
1
1
1
1
1
1
1
1
1
1
1
1
1
1
1
1
1
1
1
0.999935
0.986441
0.781029
0.409241
0.219749
0.0925185
0.026014
0.0174068
0.0462546
0.464167
0.99137
0.544926
0.999857
0.368051
0.0320563
0.00577664
0.000509559
0.00016486
7.26438e-05
1.2418e-07
3.91394e-06
2.13387e-09
1.4331e-07
0.0155363
1
1
1
1
1
1
1
1
1
1
1
1
1
1
1
1
1
1
0.999973
0.999876
0.999861
0.999911
0.999958
0.999988
0.999998
1
1
1
1
1
1
1
1
1
1
1
1
1
1
1
1
1
1
1
1
1
1
1
1
1
1
1
1
0.999991
0.99601
0.876835
0.507337
0.262077
0.13421
0.037747
0.01645
0.0316779
0.156889
1
0.501511
0.480348
0.910669
1
0.557508
0.21149
0.0390867
0.000640368
6.76158e-07
1.44805e-06
7.13693e-09
5.83524e-09
3.34262e-05
0.999999
1
1
1
1
1
1
1
1
1
1
1
1
1
1
1
1
1
1
0.999972
0.999871
0.999861
0.999906
0.999957
0.999988
0.999998
1
1
1
1
1
1
1
1
1
1
1
1
1
1
1
1
1
1
1
1
1
1
1
1
1
1
1
1
0.999999
0.999007
0.939838
0.616686
0.315119
0.175839
0.05658
0.0183723
0.0215962
0.0656564
0.978316
0.930516
0.986613
0.363847
0.0291542
0.00508408
0.00114699
0.000168688
0.00313012
4.35499e-05
3.68123e-07
2.99115e-07
1.91798e-09
1.25905e-07
0.0143788
1
1
1
1
1
1
1
1
1
1
1
1
1
1
1
1
1
1
1
0.99997
0.999867
0.999856
0.999907
0.999955
0.999987
0.999998
1
1
1
1
1
1
1
1
1
1
1
1
1
1
1
1
1
1
1
1
1
1
1
1
1
1
1
1
1
0.999785
0.974915
0.726601
0.377326
0.20827
0.0831842
0.0237024
0.0167631
0.0419615
0.340043
0.438673
0.0597072
0.0159367
0.00428536
0.00201463
0.00107349
0.00040936
0.0272635
0.00103555
2.23525e-06
2.15231e-06
5.71894e-09
4.74295e-09
3.43264e-05
1
1
1
1
1
1
1
1
1
1
1
1
1
1
1
1
1
1
1
1
0.999972
0.999867
0.999845
0.999908
0.999954
0.999986
0.999998
1
1
1
1
1
1
1
1
1
1
1
1
1
1
1
1
1
1
1
1
1
1
1
1
1
1
1
1
1
0.999958
0.990799
0.825766
0.457848
0.244463
0.118216
0.0329943
0.0153603
0.0307775
0.102798
0.407877
0.0286982
0.00648205
0.0025563
0.00178957
0.00250719
0.0129319
0.00828842
2.44705e-05
0.000800951
3.07934e-07
5.14827e-07
1.67059e-09
1.65582e-07
0.0177373
1
1
1
1
1
1
1
1
1
1
1
1
1
1
1
1
1
1
1
1
0.999974
0.999874
0.999846
0.999904
0.999954
0.999986
0.999998
1
1
1
1
1
1
1
1
1
1
1
1
1
1
1
1
1
1
1
1
1
1
1
1
1
1
1
1
1
0.999993
0.997033
0.900514
0.552124
0.287689
0.16261
0.0479034
0.0163585
0.0210781
0.0555551
0.539114
0.0773031
0.00899614
0.00303551
0.00245514
0.0135584
0.473471
0.00455251
5.07535e-05
1.75318e-05
8.48985e-07
7.3472e-07
3.53663e-09
4.86512e-09
5.04124e-05
1
1
1
1
1
1
1
1
1
1
1
1
1
1
1
1
1
1
1
1
1
0.999973
0.999877
0.999858
0.999905
0.999954
0.999986
0.999998
1
1
1
1
1
1
1
1
1
1
1
1
1
1
1
1
1
1
1
1
1
1
1
1
1
1
1
1
1
0.999999
0.999131
0.948928
0.651024
0.339635
0.191818
0.0694327
0.0202234
0.0159824
0.0386224
0.350103
0.730214
0.107494
0.0256718
0.0223768
0.218588
0.388957
0.104207
0.00141141
0.000235475
3.10416e-05
1.27672e-07
3.62892e-07
1.13422e-09
2.71452e-07
0.0309138
1
1
1
1
1
1
1
1
1
1
1
1
1
1
1
1
1
1
1
1
1
0.999973
0.999875
0.999861
0.99991
0.999954
0.999986
0.999998
1
1
1
1
1
1
1
1
1
1
1
1
1
1
1
1
1
1
1
1
1
1
1
1
1
1
1
1
1
1
0.999766
0.976437
0.746441
0.399466
0.221716
0.0971353
0.0268344
0.0141576
0.0304765
0.113762
0.998423
0.98353
0.999541
0.907935
0.16259
0.373671
0.0113848
0.00137848
0.000596535
5.27834e-05
2.71744e-07
1.1233e-05
1.79091e-09
6.6147e-09
0.000107069
1
1
1
1
1
1
1
1
1
1
1
1
1
1
1
1
1
1
1
1
1
1
0.999973
0.999874
0.999853
0.99991
0.999955
0.999986
0.999998
1
1
1
1
1
1
1
1
1
1
1
1
1
1
1
1
1
1
1
1
1
1
1
1
1
1
1
1
1
1
0.999941
0.990034
0.829736
0.473668
0.255657
0.131369
0.0374236
0.014272
0.0212741
0.059348
0.762578
0.857062
0.997115
0.190919
0.0432053
0.414518
0.00294754
0.000496376
0.000129428
0.000123699
8.20381e-06
6.52399e-07
2.57178e-08
1.3645e-09
5.85507e-07
0.0845058
1
1
1
1
1
1
1
1
1
1
1
1
1
1
1
1
1
1
1
1
1
1
0.999973
0.999873
0.999854
0.999907
0.999954
0.999986
0.999997
1
1
1
1
1
1
1
1
1
1
1
1
1
1
1
1
1
1
1
1
1
1
1
1
1
1
1
1
1
1
0.999986
0.996118
0.89444
0.555824
0.295302
0.169124
0.0526219
0.0163419
0.016138
0.0414106
0.461882
0.218787
0.111862
0.418536
0.999743
0.2015
0.00228387
0.000367711
0.000443362
0.0123553
0.000344193
1.20193e-06
1.22202e-06
1.10098e-09
8.39227e-09
0.000329059
1
1
1
1
1
1
1
1
1
1
1
1
1
1
1
1
1
1
1
1
1
1
1
0.999974
0.999874
0.999852
0.999907
0.999954
0.999986
0.999998
1
1
1
1
1
1
1
1
1
1
1
1
1
1
1
1
1
1
1
1
1
1
1
1
1
1
1
1
1
1
0.999997
0.998572
0.938994
0.640075
0.341345
0.194602
0.0728634
0.0204091
0.0133679
0.0341695
0.17362
0.430679
0.0264867
0.0096494
0.00736408
0.00360343
0.000949091
0.000321669
0.00169514
0.0514247
7.15628e-06
0.000327837
1.72893e-06
7.61934e-09
1.13897e-09
2.04978e-06
0.360137
1
1
1
1
1
1
1
1
1
1
1
1
1
1
1
1
1
1
1
1
1
1
1
0.999974
0.999875
0.999853
0.999907
0.999954
0.999986
0.999998
1
1
1
1
1
1
1
1
1
1
1
1
1
1
1
1
1
1
1
1
1
1
1
1
1
1
1
1
1
1
0.999999
0.999509
0.967105
0.72104
0.391021
0.221168
0.0978154
0.0268306
0.0124157
0.0244913
0.0901394
0.734078
0.0523041
0.00908804
0.00284968
0.000976649
0.000431109
0.000250788
0.00108779
0.0757027
2.47912e-05
0.000111948
4.31303e-07
9.91512e-06
1.00651e-09
2.27386e-08
0.00151264
1
1
1
1
1
1
1
1
1
1
1
1
1
1
1
1
1
1
1
1
1
1
1
1
0.999974
0.999876
0.999853
0.999907
0.999954
0.999986
0.999998
1
1
1
1
1
1
1
1
1
1
1
1
1
1
1
1
1
1
1
1
1
1
1
1
1
1
1
1
1
1
1
0.999837
0.983411
0.795302
0.450446
0.249396
0.127692
0.036331
0.0128264
0.0170419
0.047714
0.911876
0.320776
0.064805
0.0103341
0.00183466
0.000549803
0.000297471
0.000574658
0.00429502
0.0103291
0.000756268
4.43295e-07
1.92113e-07
2.48315e-09
1.42853e-09
8.19441e-06
0.98865
1
1
1
1
1
1
1
1
1
1
1
1
1
1
1
1
1
1
1
1
1
1
1
1
0.999974
0.999875
0.999853
0.999907
0.999954
0.999986
0.999997
1
1
1
1
1
1
1
1
1
1
1
1
1
1
1
1
1
1
1
1
1
1
1
1
1
1
1
1
1
1
1
0.999948
0.992123
0.858598
0.517486
0.281453
0.162559
0.049345
0.0147499
0.0129502
0.032158
0.284909
0.902438
0.782539
0.811561
0.0891275
0.00768134
0.00271888
0.00324246
0.00383069
0.00176426
0.000896264
1.19563e-06
1.53481e-07
1.15618e-07
5.35617e-10
8.11149e-08
0.00865456
1
1
1
1
1
1
1
1
1
1
1
1
1
1
1
1
1
1
1
1
1
1
1
1
1
0.999975
0.999876
0.999853
0.999907
0.999954
0.999986
0.999997
1
1
1
1
1
1
1
1
1
1
1
1
1
1
1
1
1
1
1
1
1
1
1
1
1
1
1
1
1
1
1
0.999984
0.996396
0.907294
0.589713
0.318847
0.184737
0.0661627
0.0181717
0.011146
0.0265625
0.0699816
0.355401
0.229844
0.999887
0.316841
0.370446
0.102154
0.0212528
0.0906318
0.00344705
0.000621967
1.66061e-05
1.39892e-06
4.54654e-07
7.46537e-10
3.29423e-09
5.00399e-05
1
1
1
1
1
1
1
1
1
1
1
1
1
1
1
1
1
1
1
1
1
1
1
1
1
1
0.999975
0.999877
0.999853
0.999907
0.999954
0.999986
0.999997
1
1
1
1
1
1
1
1
1
1
1
1
1
1
1
1
1
1
1
1
1
1
1
1
1
1
1
1
1
1
1
0.999995
0.998389
0.941634
0.660521
0.359865
0.206821
0.086103
0.0231904
0.0105482
0.0195764
0.0381238
0.0951157
0.0345307
0.0235164
0.301572
0.802745
0.0604465
0.00763068
0.0236777
0.00646061
0.000744607
0.00344655
0.000204253
2.86701e-05
5.44769e-09
8.16701e-10
4.26751e-07
0.0898023
1
1
1
1
1
1
1
1
1
1
1
1
1
1
1
1
1
1
1
1
1
1
1
1
1
1
0.999975
0.999877
0.999852
0.999908
0.999954
0.999986
0.999997
1
1
1
1
1
1
1
1
1
1
1
1
1
1
1
1
1
1
1
1
1
1
1
1
1
1
1
1
1
1
1
0.999999
0.999323
0.964395
0.726839
0.40424
0.230068
0.109258
0.0301983
0.0108211
0.0140622
0.0281711
0.085406
0.0323791
0.00561959
0.00295472
0.00341476
0.0060133
0.01275
0.00821457
0.000425427
0.000377837
0.023093
3.41404e-05
1.61342e-05
1.10155e-06
6.80975e-10
8.43195e-09
0.000435492
1
1
1
1
1
1
1
1
1
1
1
1
1
1
1
1
1
1
1
1
1
1
1
1
1
1
1
0.999975
0.999877
0.999853
0.999908
0.999954
0.999986
0.999998
1
1
1
1
1
1
1
1
1
1
1
1
1
1
1
1
1
1
1
1
1
1
1
1
1
1
1
1
1
1
1
1
0.999726
0.979372
0.787152
0.454227
0.255438
0.135755
0.0395352
0.0119661
0.0112191
0.027168
0.108375
0.123856
0.0172721
0.00255092
0.00101961
0.000439859
0.000260942
0.000166842
4.42476e-05
5.74825e-05
8.51342e-05
0.00196454
1.40384e-05
2.69431e-07
1.5255e-09
7.91438e-10
3.67479e-06
0.875648
1
1
1
1
1
1
1
1
1
1
1
1
1
1
1
1
1
1
1
1
1
1
1
1
1
1
1
0.999975
0.999877
0.999853
0.999907
0.999954
0.999986
0.999998
1
1
1
1
1
1
1
1
1
1
1
1
1
1
1
1
1
1
1
1
1
1
1
1
1
1
1
1
1
1
1
1
0.999889
0.988421
0.839595
0.50916
0.283826
0.1654
0.051332
0.0140984
0.00951766
0.0257152
0.11053
0.9996
0.886808
0.0175813
0.00273143
0.000618409
0.000222528
9.14718e-05
3.3598e-05
2.00823e-05
2.0471e-05
6.62407e-05
3.10887e-06
1.97597e-07
7.54976e-08
3.50377e-10
5.93722e-08
0.00573341
1
1
1
1
1
1
1
1
1
1
1
1
1
1
1
1
1
1
1
1
1
1
1
1
1
1
1
1
0.999976
0.999877
0.999851
0.999907
0.999954
0.999986
0.999997
1
1
1
1
1
1
1
1
1
1
1
1
1
1
1
1
1
1
1
1
1
1
1
1
1
1
1
1
1
1
1
1
0.999951
0.993662
0.883018
0.565411
0.314243
0.184606
0.065816
0.0172223
0.00872288
0.0211132
0.0760924
0.999996
0.351123
0.857609
0.127061
0.00990249
0.00127558
0.000335637
0.000114937
4.56813e-05
7.31049e-05
0.000178063
3.4646e-05
1.43006e-06
4.70343e-07
4.04985e-10
2.57586e-09
4.99104e-05
1
1
1
1
1
1
1
1
1
1
1
1
1
1
1
1
1
1
1
1
1
1
1
1
1
1
1
1
1
0.999976
0.999877
0.999851
0.999906
0.999954
0.999986
0.999997
1
1
1
1
1
1
1
1
1
1
1
1
1
1
1
1
1
1
1
1
1
1
1
1
1
1
1
1
1
1
1
1
0.999979
0.996512
0.916921
0.621848
0.34639
0.202699
0.0823645
0.0215126
0.0085642
0.0144051
0.0404181
0.999999
0.264913
0.0987043
0.110731
0.170702
0.114901
0.0620652
0.00795676
0.00207337
0.00721472
0.0049518
0.000162154
8.25325e-05
5.95219e-06
1.45264e-09
5.42753e-10
6.3165e-07
0.165141
1
1
1
1
1
1
1
1
1
1
1
1
1
1
1
1
1
1
1
1
1
1
1
1
1
1
1
1
1
0.999976
0.999877
0.99985
0.999906
0.999953
0.999985
0.999997
1
1
1
1
1
1
1
1
1
1
1
1
1
1
1
1
1
1
1
1
1
1
1
1
1
1
1
1
1
1
1
1
0.999991
0.998062
0.94219
0.675507
0.379025
0.220606
0.100761
0.0271712
0.00895115
0.0104873
0.0255525
0.988213
1
0.767903
0.568242
0.043779
0.0119247
0.00506241
0.00176399
0.000591487
0.000123779
0.000144115
1.17389e-05
6.07847e-06
4.28702e-05
2.78239e-08
3.23683e-10
1.45419e-08
0.0010155
1
1
1
1
1
1
1
1
1
1
1
1
1
1
1
1
1
1
1
1
1
1
1
1
1
1
1
1
1
1
0.999977
0.999877
0.99985
0.999906
0.999953
0.999985
0.999997
1
1
1
1
1
1
1
1
1
1
1
1
1
1
1
1
1
1
1
1
1
1
1
1
1
1
1
1
1
1
1
1
0.999996
0.998917
0.960154
0.725843
0.412675
0.238465
0.120799
0.0342595
0.00986924
0.00851632
0.0210184
0.112749
0.252595
0.00784391
0.00718853
0.025671
0.120731
0.0680007
0.0103971
0.00114888
0.000618965
0.000871182
0.000404558
0.000461396
9.74439e-06
2.32738e-06
5.12219e-10
1.02959e-09
1.1866e-05
0.999998
1
1
1
1
1
1
1
1
1
1
1
1
1
1
1
1
1
1
1
1
1
1
1
1
1
1
1
1
1
1
0.999977
0.999878
0.99985
0.999905
0.999953
0.999985
0.999997
1
1
1
1
1
1
1
1
1
1
1
1
1
1
1
1
1
1
1
1
1
1
1
1
1
1
1
1
1
1
1
1
0.999998
0.999408
0.972574
0.772825
0.451497
0.258052
0.142324
0.0427085
0.011393
0.00737662
0.0191372
0.0376883
0.0256208
0.00210282
0.000913723
0.000692183
0.000568955
0.000623163
0.000724938
0.000635504
0.00152545
0.000291464
9.18673e-06
5.63551e-06
3.02372e-07
4.73927e-08
1.79077e-09
2.93182e-10
2.2079e-07
0.039917
1
1
1
1
1
1
1
1
1
1
1
1
1
1
1
1
1
1
1
1
1
1
1
1
1
1
1
1
1
1
0.999977
0.999878
0.999849
0.999905
0.999952
0.999985
0.999997
1
1
1
1
1
1
1
1
1
1
1
1
1
1
1
1
1
1
1
1
1
1
1
1
1
1
1
1
1
1
1
1
0.999999
0.999692
0.981549
0.814474
0.493621
0.280162
0.164439
0.052486
0.0133781
0.00678638
0.0161932
0.0227545
0.015289
0.00225309
0.000820868
0.000441597
0.000223196
0.000134148
5.40261e-05
3.25762e-05
1.09415e-05
4.92688e-06
1.52253e-06
8.28595e-07
3.35355e-07
8.85967e-08
3.38174e-08
1.93677e-10
7.44261e-09
0.000371288
1
1
1
1
1
1
1
1
1
1
1
1
1
1
1
1
1
1
1
1
1
1
1
1
1
1
1
1
1
1
0.999977
0.999879
0.999849
0.999904
0.999951
0.999985
0.999997
1
1
1
1
1
1
1
1
1
1
1
1
1
1
1
1
1
1
1
1
1
1
1
1
1
1
1
1
1
1
1
1
1
0.99985
0.987773
0.850716
0.537099
0.304132
0.17947
0.0636206
0.0159047
0.00650517
0.0116253
0.0183265
0.0224184
0.00272856
0.0028037
0.00160504
0.000687821
0.000240273
7.69742e-05
2.75979e-05
1.14345e-05
5.05137e-06
2.059e-06
1.25776e-06
1.22744e-05
7.60836e-06
2.77251e-08
2.47301e-10
8.26448e-10
5.82145e-06
0.997281
1
1
1
1
1
1
1
1
1
1
1
1
1
1
1
1
1
1
1
1
1
1
1
1
1
1
1
1
1
0.999977
0.999879
0.999849
0.999904
0.999951
0.999984
0.999997
1
1
1
1
1
1
1
1
1
1
1
1
1
1
1
1
1
1
1
1
1
1
1
1
1
1
1
1
1
1
1
1
1
0.999931
0.992223
0.88117
0.580606
0.329709
0.194199
0.0759766
0.0190835
0.00654138
0.00866453
0.0155192
0.0569951
0.015943
0.0311082
0.0777902
0.0207354
0.00221853
0.000949851
0.000218849
0.000110227
3.0847e-05
3.62656e-05
4.88435e-05
2.79387e-05
4.11975e-07
8.05354e-08
8.50386e-10
3.31768e-10
1.26748e-07
0.0252909
1
1
1
1
1
1
1
1
1
1
1
1
1
1
1
1
1
1
1
1
1
1
1
1
1
1
1
1
1
0.999969
0.999879
0.999848
0.999904
0.999951
0.999984
0.999997
1
1
1
1
1
1
1
1
1
1
1