/*--------------------------------*- C++ -*----------------------------------*\
| =========                 |                                                 |
| \\      /  F ield         | OpenFOAM: The Open Source CFD Toolbox           |
|  \\    /   O peration     | Version:  v2012                                 |
|   \\  /    A nd           | Website:  www.openfoam.com                      |
|    \\/     M anipulation  |                                                 |
\*---------------------------------------------------------------------------*/
FoamFile
{
    version     2.0;
    format      ascii;
    class       volScalarField;
    location    "13200";
    object      q3;
}
// * * * * * * * * * * * * * * * * * * * * * * * * * * * * * * * * * * * * * //

dimensions      [0 0 0 0 0 0 0];


internalField   nonuniform List<scalar> 
39402
(
0.00754187
0.00201736
0.0100225
0.00102721
0.00227314
0.0104729
0.00098187
0.00113216
0.00226471
0.0112228
0.00103942
0.00168823
0.00109209
0.00255973
0.0128238
0.00110283
0.00215996
0.00511006
0.00133547
0.0031278
0.0157816
0.0011485
0.00243682
0.00713703
0.0119113
0.00196995
0.00390015
0.0203122
0.00117877
0.00261773
0.00822523
0.0167245
0.022141
0.00295649
0.00481579
0.0265768
0.00119119
0.00272672
0.00891789
0.0193267
0.0309039
0.0355544
0.00424515
0.00584424
0.0348021
0.00119322
0.00277963
0.0093373
0.0209653
0.0356335
0.048761
0.051393
0.00580151
0.00698599
0.0453321
0.00118929
0.0027958
0.00954279
0.0219777
0.0385596
0.0557019
0.0683668
0.0685996
0.00758807
0.00827033
0.058694
0.00118163
0.00279341
0.00961809
0.0224831
0.0403836
0.0598642
0.0767731
0.0876032
0.0864429
0.00960025
0.00975759
0.0753064
0.00117189
0.0027794
0.00962301
0.022691
0.041301
0.0624471
0.0815753
0.0961747
0.105185
0.105377
0.0118936
0.0115483
0.0959205
0.00116036
0.00276345
0.00958959
0.0227223
0.0417065
0.0637291
0.0845128
0.100764
0.112601
0.122668
0.124984
0.014552
0.013757
0.121775
0.00114893
0.00274102
0.00954286
0.0226568
0.0417886
0.0643177
0.085956
0.103508
0.116251
0.127685
0.139137
0.145355
0.0177205
0.0165584
0.154249
0.00113783
0.00271482
0.00946189
0.0225334
0.0416929
0.0644585
0.0866352
0.104846
0.11839
0.129821
0.140826
0.154561
0.16642
0.0216066
0.0202183
0.195036
0.00112675
0.00268838
0.00937313
0.0223431
0.0414846
0.0643485
0.0868086
0.105491
0.119413
0.131089
0.140956
0.152107
0.168825
0.186747
0.0262638
0.0251409
0.24622
0.00111559
0.00266157
0.00928146
0.0221537
0.0411599
0.064115
0.0867034
0.105663
0.119888
0.131634
0.141021
0.149822
0.161841
0.181277
0.202354
0.0313865
0.0318984
0.310768
0.00110409
0.00263426
0.00918748
0.0219401
0.040845
0.0636822
0.0864514
0.105554
0.119977
0.131831
0.140956
0.148447
0.156896
0.170226
0.191231
0.213576
0.0367371
0.0413716
0.392808
0.00109143
0.00260047
0.00908977
0.0217177
0.0404946
0.0632261
0.0860053
0.105288
0.119833
0.131724
0.140762
0.147675
0.153941
0.162742
0.178541
0.203968
0.230738
0.041789
0.0548402
0.497604
0.00108055
0.00257222
0.00897703
0.0214871
0.0401043
0.0627411
0.0854993
0.104859
0.119585
0.13147
0.140454
0.146973
0.152306
0.15821
0.16819
0.187124
0.218052
0.249497
0.046102
0.0741215
0.628127
0.00107179
0.00255594
0.00886915
0.0212419
0.0396946
0.0622009
0.0849292
0.104393
0.119184
0.131127
0.140078
0.146404
0.151073
0.15555
0.161839
0.173608
0.196403
0.23343
0.27183
0.0496708
0.0991994
0.784624
0.00106024
0.00252759
0.00879221
0.0209984
0.0392606
0.0616591
0.0843189
0.103862
0.118747
0.130656
0.139669
0.14588
0.150195
0.153737
0.15798
0.165211
0.179435
0.206839
0.249774
0.299742
0.0530184
0.131997
0.952679
0.00105047
0.00249628
0.00871179
0.0208014
0.0388196
0.0610816
0.0837356
0.103298
0.118282
0.130148
0.139159
0.145382
0.149456
0.152493
0.155481
0.160052
0.168777
0.186129
0.218812
0.265955
0.335383
0.0581716
0.176186
1.11293
0.0010408
0.0024709
0.00859937
0.0206059
0.0384515
0.0604631
0.0831102
0.102728
0.117793
0.129615
0.138634
0.144839
0.148849
0.151519
0.153804
0.15677
0.162165
0.172962
0.194187
0.232607
0.27971
0.381272
0.0679222
0.234441
1.25452
0.0010317
0.00243483
0.00850802
0.0203415
0.0380984
0.0599358
0.0824097
0.102089
0.117278
0.129074
0.13813
0.144296
0.148256
0.150748
0.152548
0.154565
0.157963
0.164687
0.178177
0.204052
0.248339
0.28994
0.439586
0.0853321
0.3066
1.38991
0.00102247
0.0024147
0.00839299
0.0201249
0.0376295
0.0594307
0.081802
0.10141
0.116702
0.128546
0.137594
0.143804
0.147666
0.150054
0.151563
0.152959
0.155136
0.159389
0.167946
0.184805
0.216113
0.265843
0.312704
0.508717
0.112529
0.389375
1.52555
0.001014
0.00239937
0.00830611
0.019879
0.0372386
0.0588067
0.0812119
0.10085
0.116137
0.127973
0.137089
0.143316
0.147154
0.149408
0.15074
0.151723
0.153114
0.155824
0.161343
0.172262
0.193201
0.230733
0.284062
0.353372
0.576404
0.150424
0.481986
1.66163
0.0010052
0.00237099
0.00823448
0.0196887
0.0368347
0.0582516
0.0805361
0.100298
0.115632
0.127394
0.136562
0.1428
0.146668
0.148834
0.149999
0.150689
0.151571
0.153282
0.156886
0.164092
0.177961
0.203835
0.247812
0.299885
0.410658
0.616269
0.198549
0.581012
1.79853
0.000997309
0.00234182
0.00815405
0.0195135
0.0365118
0.0576417
0.0799314
0.0996437
0.115164
0.126848
0.136017
0.142311
0.146202
0.148325
0.149349
0.149825
0.150293
0.15136
0.153711
0.158537
0.167895
0.185419
0.217105
0.266937
0.311354
0.493732
0.606339
0.25526
0.686327
1.93115
0.000989292
0.00232004
0.00806483
0.0193006
0.0361861
0.0571753
0.0792223
0.0990828
0.11459
0.12635
0.13557
0.141877
0.14576
0.147854
0.148772
0.149071
0.149262
0.149818
0.151328
0.154612
0.161009
0.173014
0.194969
0.233181
0.286934
0.342147
0.61428
0.548548
0.31985
0.803011
2
0.000982882
0.0023013
0.00798777
0.019075
0.0358116
0.0567345
0.0786763
0.0984149
0.114043
0.125769
0.13509
0.141444
0.145367
0.147444
0.148282
0.148409
0.148386
0.148563
0.149442
0.151665
0.156139
0.164525
0.17976
0.207048
0.25208
0.3052
0.396132
0.77437
0.461551
0.392669
0.926677
2
0.000975782
0.00228347
0.00791692
0.0188946
0.0354116
0.056273
0.0782029
0.0978739
0.113475
0.125197
0.134613
0.141039
0.14498
0.147073
0.147876
0.147877
0.147606
0.147502
0.14791
0.149351
0.152518
0.158475
0.169292
0.188526
0.22208
0.2731
0.319069
0.477019
0.939304
0.379492
0.472352
1.0472
2
0.000968126
0.00226639
0.00785468
0.0187394
0.0350868
0.0557387
0.0776615
0.0973666
0.113033
0.124665
0.134132
0.140673
0.144629
0.146694
0.147495
0.147435
0.146974
0.146589
0.14664
0.147494
0.149697
0.154028
0.161857
0.175604
0.199758
0.240175
0.294375
0.346509
0.603597
1.02884
0.346521
0.557144
1.16268
2
0.000961435
0.00225325
0.00779093
0.01861
0.0348038
0.0552738
0.0770324
0.0967736
0.112536
0.124247
0.133652
0.140261
0.144312
0.146347
0.147124
0.147047
0.14647
0.145838
0.145569
0.145966
0.147448
0.150588
0.15637
0.166444
0.183859
0.213872
0.260976
0.312033
0.403078
0.797968
0.954624
0.362925
0.636262
1.27293
2
0.000955613
0.00223395
0.00773512
0.0184572
0.0345926
0.0548648
0.076523
0.0961888
0.111991
0.123796
0.133297
0.139835
0.143983
0.146108
0.146808
0.146679
0.146039
0.145225
0.144676
0.14469
0.145607
0.14789
0.152197
0.159738
0.172537
0.194502
0.23116
0.283096
0.324518
0.489559
1.05839
0.758331
0.408826
0.714559
1.38406
2
0.000950562
0.0022172
0.00766976
0.0183202
0.0343197
0.0545547
0.0760441
0.0957212
0.111505
0.123276
0.132907
0.139564
0.143613
0.145822
0.146568
0.146324
0.145641
0.144736
0.143941
0.14363
0.144074
0.145693
0.14892
0.15462
0.164266
0.180545
0.20798
0.251667
0.303793
0.36391
0.628978
1.27098
0.566965
0.468987
0.79194
1.48492
2
0.000945522
0.00219541
0.00761323
0.0181709
0.03407
0.0541281
0.0756775
0.0952421
0.111089
0.122815
0.132508
0.139269
0.143377
0.145506
0.146314
0.146084
0.145241
0.144276
0.143352
0.142746
0.142795
0.143846
0.146258
0.150636
0.158001
0.170289
0.190822
0.224751
0.274383
0.319881
0.429253
0.855286
1.29483
0.45673
0.536529
0.873408
1.58369
2
0.000939558
0.00217852
0.00755499
0.0180436
0.0338349
0.0537672
0.0752098
0.0948702
0.110705
0.122457
0.132056
0.138892
0.143173
0.145296
0.146019
0.145824
0.144977
0.143836
0.142823
0.142042
0.141741
0.142306
0.144043
0.147419
0.153199
0.162637
0.178153
0.203877
0.244853
0.296888
0.340374
0.531513
1.17073
1.07963
0.4291
0.60695
0.964096
1.68837
2
0.000933235
0.00216561
0.00750269
0.0179248
0.033607
0.0534675
0.0747924
0.0944467
0.110415
0.122183
0.131715
0.138569
0.142895
0.145138
0.145864
0.145584
0.144737
0.143537
0.142302
0.141416
0.140891
0.141044
0.142229
0.144788
0.149318
0.156754
0.168696
0.188294
0.220211
0.267569
0.314641
0.394163
0.699431
1.45798
0.777882
0.453804
0.671695
1.06986
1.79694
2
0.000928456
0.00215357
0.00746104
0.0178221
0.0334028
0.0531434
0.074391
0.0940824
0.110039
0.121956
0.131463
0.138299
0.14265
0.14495
0.145735
0.145418
0.144459
0.143244
0.141928
0.140808
0.140128
0.140005
0.140698
0.14262
0.146189
0.152069
0.161474
0.176578
0.201155
0.24003
0.290603
0.32681
0.474413
0.971327
1.51154
0.571818
0.502921
0.748406
1.16746
1.92801
2
0.000925293
0.00214083
0.00741878
0.0177273
0.0332198
0.0528524
0.0740502
0.093672
0.109778
0.121673
0.131122
0.138051
0.142395
0.144769
0.14556
0.145297
0.144288
0.142949
0.141586
0.140336
0.139432
0.139086
0.139457
0.140804
0.14357
0.148272
0.155836
0.16765
0.186695
0.217306
0.262785
0.309884
0.372809
0.602849
1.33569
1.26755
0.481496
0.564655
0.827149
1.26347
2
2
0.000921979
0.00213242
0.0073779
0.0176325
0.0330561
0.0525937
0.0737507
0.0933801
0.109455
0.121474
0.130919
0.137827
0.142188
0.144548
0.145378
0.145126
0.144195
0.142772
0.141277
0.139923
0.138861
0.138266
0.138375
0.139295
0.141446
0.145184
0.151263
0.160757
0.175677
0.199567
0.237049
0.286352
0.324252
0.441358
0.819265
1.63493
0.91386
0.47397
0.624611
0.905553
1.36024
2
2
0.000917664
0.0021214
0.00735043
0.0175412
0.0328877
0.0523591
0.0734361
0.0930721
0.109134
0.121181
0.130763
0.137623
0.142028
0.144434
0.145235
0.14497
0.144006
0.142631
0.14103
0.139555
0.138351
0.137578
0.137396
0.138017
0.139629
0.142631
0.147555
0.155264
0.167155
0.185955
0.21579
0.259906
0.30686
0.359982
0.547139
1.15145
1.64032
0.654665
0.506834
0.685802
0.985401
1.46207
2
2
0.00091331
0.00210812
0.00731574
0.0174833
0.0327343
0.0521613
0.0731681
0.0927439
0.108791
0.120983
0.130489
0.137576
0.141891
0.144285
0.145161
0.144842
0.143851
0.142434
0.140847
0.139269
0.137897
0.136969
0.136563
0.13688
0.138073
0.140503
0.144494
0.150782
0.160428
0.175442
0.19901
0.235618
0.283937
0.32235
0.422032
0.723683
1.55195
1.33511
0.529939
0.554406
0.751279
1.07201
1.56827
2
2
0.000909077
0.00209807
0.00726918
0.0173933
0.0326363
0.0519805
0.0729429
0.0925334
0.108536
0.120644
0.130287
0.137317
0.141842
0.144156
0.145058
0.144763
0.143749
0.14229
0.140659
0.139025
0.137541
0.136417
0.135872
0.135925
0.136732
0.138648
0.141927
0.147119
0.155035
0.167136
0.185997
0.215446
0.258645
0.305181
0.352633
0.514977
1.01273
1.80252
0.951808
0.504151
0.603813
0.825167
1.16482
1.68866
2
2
0.00090496
0.00209016
0.0072409
0.017292
0.0325125
0.0518488
0.0727344
0.0922698
0.108414
0.120423
0.13003
0.137103
0.141681
0.144172
0.144991
0.144701
0.143696
0.142192
0.140491
0.138809
0.137259
0.13599
0.135253
0.135172
0.135772
0.137088
0.13975
0.143999
0.150578
0.160563
0.175749
0.199373
0.235573
0.283024
0.321106
0.411342
0.66653
1.41542
1.69195
0.681472
0.523808
0.659965
0.903062
1.269
1.83429
2
2
0.000901551
0.00207996
0.00721842
0.0172468
0.0323598
0.051711
0.0726267
0.0920548
0.108243
0.120336
0.129772
0.136909
0.141522
0.144049
0.14499
0.144664
0.14365
0.142142
0.14039
0.138625
0.137004
0.135661
0.134765
0.134549
0.134913
0.135955
0.137866
0.141435
0.146918
0.155177
0.167607
0.186702
0.216219
0.258966
0.304422
0.349114
0.497347
0.920565
1.80507
1.30988
0.551225
0.563461
0.722599
0.990113
1.38463
1.96942
2
2
0.000899524
0.00207157
0.00718709
0.0172019
0.0322923
0.0515313
0.0725131
0.0920045
0.108104
0.120278
0.129727
0.13674
0.141334
0.143965
0.144891
0.144712
0.143599
0.142063
0.140293
0.138467
0.136761
0.13535
0.134411
0.134051
0.13418
0.134947
0.136513
0.139218
0.143849
0.150784
0.161087
0.176634
0.200627
0.236804
0.283486
0.320432
0.406336
0.633992
1.30541
1.90522
0.916714
0.524615
0.611808
0.79376
1.08794
1.49883
2
2
2
0.000898299
0.00206752
0.00716244
0.0171527
0.0322266
0.0514515
0.0723048
0.0918858
0.107995
0.120142
0.129609
0.136723
0.141202
0.143838
0.14486
0.144656
0.143663
0.142024
0.140187
0.13835
0.136569
0.135075
0.134082
0.133658
0.133592
0.134089
0.135322
0.137488
0.141247
0.147097
0.155675
0.168521
0.188109
0.218023
0.260647
0.304734
0.348754
0.48872
0.866663
1.75133
1.6137
0.665444
0.546569
0.665563
0.878698
1.18944
1.6078
2
2
2
0.000896638
0.00206367
0.00715298
0.0171168
0.0321475
0.0513676
0.0722196
0.0916794
0.107835
0.12005
0.129505
0.136734
0.141243
0.143753
0.144788
0.144598
0.143634
0.142101
0.140145
0.13822
0.13644
0.134867
0.133828
0.133284
0.133109
0.133381
0.134313
0.136067
0.138949
0.143961
0.151296
0.16197
0.178035
0.202645
0.239283
0.285258
0.320634
0.405892
0.617484
1.23421
2
1.16657
0.560382
0.588113
0.729932
0.96932
1.29776
1.72259
2
2
2
0.000893981
0.00205917
0.00714887
0.0171035
0.0320952
0.0512342
0.0721399
0.0916074
0.107697
0.119946
0.129408
0.136584
0.14133
0.143823
0.144727
0.144527
0.143588
0.142048
0.140198
0.13813
0.136285
0.134719
0.133611
0.132974
0.132658
0.132794
0.133461
0.13487
0.137253
0.141225
0.147564
0.156634
0.169994
0.190221
0.220879
0.263675
0.306087
0.351307
0.487314
0.837974
1.70095
1.83969
0.8133
0.549298
0.639873
0.804504
1.06596
1.4131
1.85136
2
2
2
0.000890174
0.0020533
0.00714117
0.0170865
0.0321102
0.0511322
0.0719859
0.091594
0.107705
0.119831
0.129378
0.136516
0.14124
0.143914
0.144813
0.144525
0.143486
0.142005
0.140162
0.13818
0.136175
0.134545
0.133439
0.132705
0.132284
0.13225
0.132748
0.133859
0.13582
0.138954
0.144317
0.15216
0.163417
0.180122
0.205603
0.243007
0.288216
0.321517
0.409612
0.613622
1.19528
2
1.38989
0.62504
0.580178
0.699301
0.886905
1.17027
1.53111
1.98362
2
2
2
0.000886244
0.00204519
0.00712138
0.0170634
0.0320879
0.0512036
0.0719211
0.0915029
0.107718
0.119913
0.129188
0.136454
0.141167
0.143827
0.144894
0.144624
0.143461
0.141921
0.140088
0.138134
0.13617
0.134434
0.133262
0.132496
0.131966
0.131793
0.132097
0.132997
0.134607
0.13724
0.141521
0.148282
0.157987
0.171994
0.192998
0.224745
0.267925
0.308018
0.356522
0.492294
0.83067
1.67323
1.997
0.964512
0.569082
0.627829
0.765423
0.98128
1.28159
1.64225
2
2
2
2
0.000882568
0.00203353
0.00709325
0.0170403
0.0320337
0.0512208
0.0720309
0.0914477
0.107704
0.119959
0.129275
0.136344
0.141099
0.143725
0.144847
0.144684
0.143582
0.141868
0.140002
0.138046
0.136085
0.134401
0.133162
0.132271
0.131715
0.131406
0.131547
0.132227
0.133584
0.135781
0.139189
0.144962
0.153342
0.165327
0.182862
0.209355
0.247726
0.292075
0.322732
0.41708
0.6203
1.18768
2
1.56937
0.702573
0.583148
0.682795
0.839229
1.08337
1.3993
1.75298
2
2
2
2
0.00087955
0.00202376
0.00706203
0.0170003
0.0320297
0.0511512
0.072056
0.0915774
0.107656
0.119964
0.129419
0.136455
0.141111
0.143702
0.14476
0.144686
0.143681
0.141963
0.139978
0.137951
0.136014
0.134301
0.133155
0.132122
0.131449
0.131104
0.131084
0.131575
0.132672
0.134556
0.137444
0.1421
0.149379
0.159641
0.174595
0.196734
0.229582
0.272963
0.310546
0.364327
0.502744
0.841674
1.67649
2
1.0968
0.600218
0.625144
0.745862
0.926276
1.19531
1.52137
1.87333
2
2
2
2
0.000877425
0.0020196
0.0070369
0.0169213
0.0320029
0.0511649
0.0720245
0.0916013
0.107728
0.119967
0.129403
0.136571
0.141176
0.143782
0.144758
0.144638
0.143649
0.142079
0.140076
0.137934
0.135938
0.134225
0.133069
0.132076
0.131254
0.130789
0.130716
0.131023
0.131896
0.13347
0.135975
0.139704
0.145941
0.154917
0.167633
0.186381
0.214203
0.253363
0.296117
0.325172
0.428109
0.636353
1.20706
2
1.70407
0.777095
0.594535
0.679523
0.818345
1.02643
1.30741
1.63267
2
2
2
2
2
0.000876218
0.00201864
0.00703013
0.0168712
0.0318451
0.0511437
0.0720618
0.091628
0.107739
0.12004
0.129416
0.13663
0.141295
0.143851
0.144759
0.144584
0.14357
0.142087
0.140159
0.138021
0.135896
0.134157
0.133
0.131982
0.131165
0.130561
0.130334
0.130564
0.131235
0.132545
0.134679
0.137905
0.143014
0.15082
0.161856
0.177757
0.201328
0.235609
0.278677
0.313551
0.374878
0.518482
0.869171
1.71053
2
1.20079
0.63424
0.630544
0.741888
0.899406
1.13106
1.42936
1.74097
2
2
2
2
2
0.000875842
0.00201387
0.00702243
0.0168629
0.0317688
0.0509636
0.0720672
0.0916912
0.107829
0.120076
0.129499
0.136616
0.141376
0.143914
0.144864
0.144574
0.14353
0.142017
0.140184
0.138075
0.135948
0.134096
0.132905
0.131885
0.131035
0.130422
0.130044
0.1301
0.130667
0.13175
0.13357
0.136363
0.140516
0.147289
0.15696
0.170616
0.190542
0.220113
0.260322
0.300821
0.335209
0.443009
0.661837
1.25146
2
1.79666
0.839537
0.61007
0.683407
0.809866
0.986627
1.2501
1.55113
1.85315
2
2
2
2
2
0.000875287
0.00201268
0.00700549
0.0168524
0.0317613
0.0508703
0.0718592
0.0917279
0.107906
0.120166
0.129535
0.136686
0.141347
0.144015
0.144973
0.144711
0.143596
0.141955
0.140123
0.138083
0.136
0.134164
0.132839
0.131773
0.13091
0.130248
0.129861
0.129751
0.130133
0.131065
0.132618
0.135043
0.138592
0.144276
0.15275
0.164626
0.181682
0.206748
0.242912
0.285486
0.317433
0.388797
0.540221
0.91339
1.77518
2
1.27033
0.666212
0.641109
0.745875
0.885018
1.0953
1.36795
1.67073
1.97819
2
2
2
2
2
0.000874392
0.00201249
0.00701285
0.0168358
0.0317557
0.0508742
0.0717558
0.0915175
0.107979
0.120264
0.129629
0.136693
0.141399
0.144036
0.145048
0.144858
0.143758
0.14203
0.140062
0.138014
0.135972
0.134238
0.132906
0.131704
0.130785
0.130098
0.129649
0.12951
0.129707
0.13044
0.131792
0.13389
0.137003
0.141651
0.149071
0.159575
0.174247
0.195678
0.226936
0.268402
0.305966
0.347819
0.462415
0.698406
1.32113
2
1.8503
0.881943
0.628357
0.694477
0.814034
0.975196
1.20725
1.50053
1.77344
2
2
2
2
2
2
0.000872944
0.00201171
0.00701598
0.0168621
0.0317649
0.0508792
0.0717854
0.0913636
0.107845
0.120361
0.129741
0.136796
0.141399
0.144049
0.145092
0.144901
0.143874
0.142217
0.140098
0.13798
0.135924
0.134204
0.132999
0.131753
0.130709
0.12994
0.129469
0.12924
0.129388
0.129925
0.131043
0.132897
0.135618
0.139544
0.145894
0.15514
0.167998
0.186441
0.213382
0.250932
0.29263
0.321314
0.406289
0.569125
0.976536
1.87009
2
1.30369
0.690706
0.656139
0.756228
0.8899
1.06863
1.33298
1.61491
1.88332
2
2
2
2
2
2
0.000871303
0.00201097
0.00701771
0.0168759
0.0318214
0.0509022
0.0717998
0.0914082
0.107706
0.120242
0.129861
0.137005
0.141496
0.144074
0.145156
0.144934
0.14391
0.142315
0.140229
0.137999
0.135899
0.134173
0.132945
0.131816
0.130731
0.129835
0.129269
0.129004
0.12906
0.129514
0.13043
0.131999
0.13443
0.137891
0.14315
0.151313
0.162626
0.178632
0.201874
0.235244
0.276664
0.311153
0.36357
0.486829
0.748349
1.41898
2
1.86749
0.902594
0.645567
0.708063
0.8246
0.971475
1.18231
1.45777
1.73923
2
2
2
2
2
2
2
0.000869446
0.00201445
0.00702598
0.0168878
0.0318535
0.0509948
0.071839
0.0915049
0.107841
0.120186
0.129757
0.13713
0.141711
0.14413
0.145122
0.145012
0.143893
0.142351
0.140335
0.138081
0.135911
0.134196
0.132915
0.131779
0.130755
0.129821
0.129125
0.128771
0.128761
0.129114
0.129921
0.131256
0.133353
0.136464
0.140879
0.14794
0.158033
0.172008
0.192106
0.221252
0.26043
0.299224
0.330002
0.428266
0.606565
1.06216
1.99567
2
1.30555
0.707857
0.671511
0.770082
0.897905
1.0636
1.30892
1.59427
1.83765
2
2
2
2
2
2
2
0.000867432
0.00200966
0.00703624
0.0169103
0.0318865
0.0510522
0.0719529
0.0915402
0.108016
0.120323
0.129697
0.13704
0.141883
0.144313
0.145135
0.144952
0.143984
0.142361
0.140427
0.138214
0.136018
0.134229
0.132922
0.131711
0.130693
0.129818
0.129078
0.128595
0.128483
0.128754
0.129426
0.130639
0.132462
0.135181
0.139077
0.145065
0.154014
0.166394
0.183884
0.20917
0.244648
0.285896
0.316381
0.382908
0.517801
0.814838
1.54925
2
1.85217
0.905634
0.66327
0.724665
0.839072
0.981389
1.178
1.44065
1.71481
1.94909
2
2
2
2
2
2
2
0.000865238
0.00199792
0.00702129
0.016936
0.0319339
0.0511559
0.072093
0.0916659
0.108045
0.120526
0.129785
0.137068
0.141803
0.144538
0.14531
0.144987
0.14396
0.142361
0.140436
0.138306
0.136158
0.134322
0.132932
0.131691
0.130612
0.129754
0.129055
0.128519
0.128269
0.12842
0.128999
0.130052
0.131713
0.134107
0.137544
0.142677
0.150536
0.161565
0.176879
0.198878
0.230369
0.270535
0.306284
0.347039
0.455092
0.656403
1.17483
2
2
1.27988
0.718708
0.691415
0.789491
0.915787
1.07796
1.29895
1.57881
1.82324
2
2
2
2
2
2
2
2
0.000863069
0.0019866
0.00698658
0.0169047
0.0319821
0.0511871
0.0722286
0.0918822
0.108081
0.120502
0.129906
0.13716
0.141822
0.144554
0.145546
0.145103
0.143925
0.142297
0.140401
0.138286
0.136213
0.134426
0.132991
0.13171
0.130575
0.129667
0.128974
0.128471
0.128153
0.128155
0.128599
0.129541
0.131011
0.133189
0.136243
0.140565
0.147525
0.157397
0.170946
0.190165
0.217767
0.25514
0.294491
0.321602
0.406391
0.556612
0.903702
1.7163
2
1.80071
0.892873
0.680728
0.745798
0.860572
0.999395
1.17704
1.43577
1.70149
1.92432
2
2
2
2
2
2
2
2
0.00086109
0.00198298
0.00694785
0.016833
0.031933
0.0512145
0.0722212
0.0920458
0.108227
0.120531
0.129905
0.137303
0.142008
0.144493
0.145592
0.145312
0.144075
0.142267
0.140324
0.138279
0.136216
0.134492
0.133091
0.13176
0.130604
0.129613
0.128864
0.128354
0.128072
0.127994
0.128273
0.12906
0.130391
0.132339
0.135128
0.138966
0.14489
0.153678
0.165835
0.182692
0.206965
0.240793
0.281088
0.312703
0.367938
0.487484
0.722922
1.3208
2
2
1.22744
0.723296
0.711268
0.81183
0.937837
1.08978
1.30129
1.56929
1.82437
2
2
2
2
2
2
2
2
2
0.000859236
0.00198011
0.00693684
0.0167484
0.031814
0.0511537
0.0722679
0.0920419
0.108466
0.120659
0.129941
0.137238
0.14209
0.144646
0.145603
0.145394
0.144324
0.14244
0.140303
0.138207
0.136222
0.134524
0.133149
0.131843
0.130657
0.129618
0.128802
0.128212
0.127915
0.12787
0.128056
0.128662
0.129812
0.131594
0.134117
0.137613
0.142628
0.150502
0.161329
0.176375
0.197629
0.227879
0.266793
0.302816
0.336909
0.435463
0.605703
1.02162
1.92052
2
1.71129
0.8675
0.696887
0.768505
0.884655
1.0231
1.1932
1.43935
1.71717
1.92317
2
2
2
2
2
2
2
2
2
0.000857585
0.00197546
0.00692489
0.016723
0.0316698
0.0510383
0.0722006
0.0921064
0.108541
0.120878
0.130092
0.137248
0.142072
0.14478
0.145726
0.145433
0.144378
0.1427
0.140443
0.138156
0.136142
0.134551
0.133179
0.131921
0.130727
0.129674
0.128791
0.12814
0.127749
0.127679
0.127868
0.128375
0.129335
0.130908
0.133217
0.136397
0.14076
0.147648
0.157442
0.170875
0.1897
0.216483
0.252662
0.291593
0.319231
0.393434
0.528084
0.811616
1.50752
2
2
1.1563
0.725994
0.734536
0.837082
0.965824
1.11812
1.31861
1.57835
1.83777
2
2
2
2
2
2
2
2
2
2
0.000856088
0.00197098
0.00690878
0.0166946
0.0316252
0.0508793
0.0721287
0.0921157
0.108625
0.121045
0.130327
0.137397
0.142107
0.14473
0.145862
0.145591
0.144449
0.142774
0.140677
0.138256
0.136074
0.134536
0.133199
0.131948
0.130791
0.129725
0.128816
0.128097
0.127643
0.127482
0.127643
0.128128
0.128976
0.130323
0.1324
0.135316
0.139284
0.145186
0.154039
0.166096
0.182822
0.206548
0.239493
0.278915
0.310841
0.359601
0.470498
0.671322
1.17627
2
2
1.5905
0.838276
0.716536
0.796328
0.915087
1.05424
1.22677
1.45417
1.73035
1.93586
2
2
2
2
2
2
2
2
2
2
0.000854721
0.00196728
0.00688335
0.0166772
0.0315752
0.0508238
0.0720043
0.0920609
0.108655
0.121208
0.130477
0.137591
0.142208
0.144728
0.1458
0.145709
0.14461
0.142823
0.14075
0.138495
0.136174
0.134565
0.133192
0.131956
0.130809
0.129759
0.128864
0.128097
0.127584
0.12735
0.127421
0.127848
0.128664
0.129877
0.131685
0.134334
0.137983
0.143106
0.150986
0.161968
0.176915
0.19794
0.22759
0.265623
0.301336
0.331882
0.424962
0.579065
0.931305
1.74398
2
2
1.07369
0.731264
0.761842
0.868942
0.998712
1.14996
1.34052
1.60297
1.8522
2
2
2
2
2
2
2
2
2
2
2
0.00085345
0.0019637
0.00686975
0.016618
0.0315429
0.050751
0.0718833
0.0918644
0.108611
0.12117
0.130652
0.137719
0.142386
0.14479
0.145695
0.145653
0.144703
0.142986
0.140841
0.138596
0.136414
0.13468
0.133241
0.131925
0.130789
0.129757
0.128877
0.128134
0.127566
0.127267
0.127253
0.127577
0.12832
0.129486
0.131134
0.133487
0.136808
0.141329
0.148361
0.158281
0.171778
0.190549
0.217054
0.252591
0.290776
0.318361
0.38744
0.51407
0.761443
1.37674
2
2
1.44508
0.809547
0.739292
0.82737
0.948261
1.08763
1.25333
1.48113
1.74437
1.96425
2
2
2
2
2
2
2
2
2
2
2
0.000852315
0.00196436
0.00686669
0.0165683
0.0314747
0.0506585
0.0717474
0.0918195
0.108429
0.121155
0.130631
0.137904
0.142527
0.144921
0.145716
0.145553
0.144617
0.143072
0.140974
0.138721
0.13651
0.134829
0.133334
0.131945
0.13075
0.129729
0.128848
0.128141
0.12757
0.127212
0.127139
0.127367
0.127991
0.129072
0.130644
0.132805
0.135794
0.13992
0.146076
0.155089
0.167339
0.184153
0.207833
0.240371
0.279029
0.3104
0.356769
0.463413
0.646632
1.09398
2
2
1.92414
0.986914
0.740142
0.791806
0.902052
1.03293
1.18689
1.37838
1.62864
1.8945
2
2
2
2
2
2
2
2
2
2
2
2
0.000851094
0.0019579
0.00686632
0.016577
0.0313827
0.0505586
0.0716387
0.0917611
0.108415
0.12107
0.130615
0.137879
0.142674
0.145047
0.145832
0.145552
0.144529
0.14295
0.141047
0.138837
0.136619
0.13486
0.133454
0.132036
0.13077
0.1297
0.128819
0.128109
0.127568
0.127194
0.127056
0.127214
0.127728
0.128683
0.130148
0.132199
0.134947
0.138689
0.144102
0.152262
0.163464
0.178639
0.199833
0.229352
0.266665
0.301515
0.331293
0.422087
0.568641
0.886253
1.6375
2
2
1.28682
0.786427
0.765474
0.861014
0.983993
1.12778
1.29433
1.51686
1.78995
1.99404
2
2
2
2
2
2
2
2
2
2
2
2
0.000850068
0.00195176
0.00684531
0.0165738
0.0313643
0.0504805
0.0715212
0.0916547
0.108373
0.121005
0.130555
0.137889
0.142678
0.145262
0.145929
0.14561
0.144477
0.142846
0.140942
0.138843
0.136709
0.134917
0.133496
0.132157
0.130848
0.129729
0.12878
0.128076
0.127526
0.127174
0.126996
0.127102
0.127527
0.128365
0.129676
0.131589
0.134198
0.137649
0.142364
0.149789
0.15998
0.173806
0.192842
0.219495
0.254807
0.29169
0.318666
0.387484
0.511084
0.740982
1.31046
2
2
1.70329
0.908815
0.755531
0.825812
0.940005
1.07531
1.22994
1.4252
1.67325
1.92007
2
2
2
2
2
2
2
2
2
2
2
2
2
0.00084908
0.00195209
0.00682549
0.0165062
0.0313525
0.0504469
0.0714251
0.0915397
0.108287
0.120911
0.130557
0.137849
0.142686
0.145325
0.146195
0.145697
0.144516
0.142792
0.140785
0.13876
0.136731
0.135006
0.133564
0.132224
0.130968
0.129803
0.128775
0.128023
0.127471
0.127103
0.12694
0.127012
0.127371
0.128112
0.129297
0.131029
0.133459
0.136722
0.141012
0.147574
0.156928
0.16957
0.186796
0.21087
0.243502
0.281357
0.311332
0.358905
0.464666
0.640866
1.06041
1.96326
2
2
1.13412
0.776102
0.797203
0.900425
1.02759
1.17348
1.34682
1.56068
1.8252
2
2
2
2
2
2
2
2
2
2
2
2
2
2
0.000848191
0.00195058
0.00682564
0.0164652
0.0312362
0.0504331
0.0714561
0.0914431
0.108181
0.120905
0.130556
0.137892
0.142664
0.145348
0.146312
0.145891
0.144576
0.142772
0.140687
0.138616
0.136653
0.13506
0.133655
0.132299
0.131035
0.129913
0.128858
0.12799
0.127397
0.127023
0.126851
0.126923
0.127247
0.127907
0.128984
0.13056
0.132796
0.135841
0.139881
0.145649
0.154252
0.165803
0.181545
0.20334
0.233208
0.270138
0.303453
0.334986
0.426122
0.570827
0.875219
1.59837
2
2
1.47203
0.849939
0.779076
0.864396
0.983128
1.12274
1.2804
1.46323
1.71962
1.97773
2
2
2
2
2
2
2
2
2
2
2
2
2
2
0.00084737
0.00194939
0.00681951
0.0164669
0.0311706
0.0502631
0.0715077
0.0914234
0.108179
0.12083
0.1306
0.13791
0.14272
0.145343
0.146356
0.146023
0.144729
0.142799
0.140673
0.138475
0.136546
0.135017
0.133685
0.132363
0.13111
0.12996
0.128974
0.128052
0.127363
0.126927
0.126749
0.12681
0.127135
0.127735
0.128719
0.130179
0.132234
0.135052
0.138821
0.143925
0.151766
0.162496
0.176845
0.196659
0.224044
0.259226
0.294658
0.320433
0.393467
0.517781
0.743593
1.29893
2
2
1.90389
1.00268
0.78004
0.833564
0.942937
1.07373
1.22227
1.39135
1.61572
1.87785
2
2
2
2
2
2
2
2
2
2
2
2
2
2
2
0.000846602
0.00194789
0.00681547
0.016454
0.0311763
0.0501681
0.0712952
0.0914153
0.108169
0.120839
0.130493
0.137918
0.142735
0.145406
0.146352
0.146122
0.144852
0.142987
0.140716
0.138493
0.136447
0.134974
0.133649
0.132373
0.131174
0.130006
0.129016
0.128176
0.127411
0.126886
0.126654
0.126685
0.126988
0.127572
0.128495
0.129838
0.131753
0.134363
0.137866
0.142505
0.149559
0.159546
0.172781
0.190792
0.21574
0.248922
0.285725
0.313861
0.366231
0.474172
0.651121
1.06814
1.96871
2
2
1.25127
0.814901
0.809553
0.906519
1.02924
1.16965
1.3316
1.5266
1.77624
2
2
2
2
2
2
2
2
2
2
2
2
2
2
2
2
0.000845903
0.00194599
0.00680963
0.0164423
0.031152
0.0501745
0.071163
0.0912572
0.1081
0.120928
0.130417
0.13793
0.14278
0.145506
0.146425
0.146133
0.144967
0.143138
0.140871
0.138552
0.136522
0.134996
0.133591
0.132347
0.131181
0.130065
0.12904
0.128207
0.127512
0.126926
0.126602
0.126569
0.126832
0.127391
0.128284
0.129555
0.131337
0.133771
0.137033
0.141349
0.147693
0.156825
0.169143
0.185679
0.208438
0.23917
0.275808
0.306899
0.343208
0.437553
0.585246
0.894566
1.62396
2
2
1.59745
0.903495
0.797131
0.874265
0.989194
1.12298
1.27718
1.45178
1.67829
1.94798
2
2
2
2
2
2
2
2
2
2
2
2
2
2
2
2
0.000845237
0.00194429
0.00680367
0.0164289
0.0311294
0.050137
0.0711647
0.091146
0.10794
0.120861
0.130442
0.137879
0.142799
0.145556
0.146531
0.146258
0.145047
0.143206
0.141065
0.138685
0.136631
0.135083
0.13359
0.132294
0.131138
0.130094
0.129071
0.128223
0.127533
0.12701
0.126618
0.126488
0.126679
0.127195
0.128045
0.129282
0.130964
0.133253
0.136307
0.140352
0.146137
0.154491
0.165861
0.18112
0.201942
0.230353
0.265749
0.299307
0.323588
0.405926
0.534902
0.768892
1.33982
2
2
2
1.06622
0.804573
0.847042
0.953289
1.08042
1.22688
1.39179
1.59328
1.84651
2
2
2
2
2
2
2
2
2
2
2
2
2
2
2
2
2
0.000844635
0.0019434
0.00679859
0.0164154
0.0311029
0.0501036
0.0711129
0.0911157
0.107841
0.120637
0.130379
0.137798
0.142744
0.145504
0.14659
0.146384
0.14518
0.143315
0.141132
0.13882
0.136752
0.135179
0.133688
0.132273
0.131089
0.13005
0.129093
0.128246
0.12754
0.127014
0.126676
0.126474
0.126576
0.127018
0.12782
0.129003
0.130642
0.132797
0.135659
0.139453
0.144754
0.152531
0.162966
0.177048
0.196243
0.222474
0.256191
0.291204
0.317355
0.378925
0.49276
0.678837
1.1181
2
2
2
1.31534
0.845462
0.826848
0.920661
1.04131
1.18018
1.33787
1.52357
1.74734
2
2
2
2
2
2
2
2
2
2
2
2
2
2
2
2
2
2
0.000843995
0.00194225
0.00679529
0.0164033
0.0310788