/*--------------------------------*- C++ -*----------------------------------*\
| =========                 |                                                 |
| \\      /  F ield         | OpenFOAM: The Open Source CFD Toolbox           |
|  \\    /   O peration     | Version:  v2012                                 |
|   \\  /    A nd           | Website:  www.openfoam.com                      |
|    \\/     M anipulation  |                                                 |
\*---------------------------------------------------------------------------*/
FoamFile
{
    version     2.0;
    format      ascii;
    class       volScalarField;
    location    "13200";
    object      q4;
}
// * * * * * * * * * * * * * * * * * * * * * * * * * * * * * * * * * * * * * //

dimensions      [0 0 0 0 0 0 0];


internalField   uniform 0;

boundaryField
{
    base
    {
        type            calculated;
        value           nonuniform List<scalar> 
398
(
0.0221488
0.00369799
0.00178934
0.00169867
0.00180073
0.00191185
0.00199177
0.00204363
0.0020637
0.00206502
0.00205588
0.00204037
0.00202144
0.00199946
0.00197785
0.00195699
0.00193635
0.00191566
0.00189446
0.00187128
0.00185137
0.0018353
0.00181428
0.00179649
0.00177897
0.00176247
0.00174578
0.00173045
0.00171459
0.00170038
0.00168595
0.0016744
0.00166161
0.00164789
0.0016359
0.00162544
0.00161642
0.00160736
0.00159666
0.00158537
0.00157683
0.00157118
0.00156523
0.0015575
0.00154969
0.0015421
0.00153477
0.00152872
0.00152514
0.00152294
0.00151994
0.00151516
0.00150833
0.00150131
0.00149478
0.00148942
0.00148566
0.00148353
0.00148286
0.00148185
0.00148022
0.00147762
0.00147468
0.00147134
0.00146775
0.00146386
0.00146005
0.00145661
0.00145338
0.00145052
0.00144792
0.00144555
0.00144335
0.00144139
0.00143926
0.00143746
0.00143572
0.00143414
0.00143266
0.00143127
0.00142999
0.00142875
0.00142763
0.00142644
0.00142533
0.00142417
0.00142304
0.00142188
0.00142073
0.0014196
0.00141852
0.00141748
0.00141653
0.00141555
0.00141482
0.00141305
0.00136172
0.000811606
0.00067074
0.00154408
0.00179227
0.00190177
0.00197851
0.00207627
0.00216335
0.00223618
0.00231029
0.00238556
0.00246448
0.00254468
0.00262478
0.00270088
0.00277219
0.00283778
0.00289832
0.00295464
0.00300859
0.00306277
0.00312011
0.00318315
0.00325409
0.00333431
0.0034249
0.00352594
0.00363709
0.0037576
0.00388714
0.00402482
0.00416719
0.00431259
0.00446296
0.00461705
0.00475564
0.00487346
0.00498668
0.0050863
0.00516558
0.00522118
0.00524522
0.00522296
0.00514512
0.00499724
0.00475527
0.00438534
0.00384699
0.00311024
0.00219404
0.00116196
0.000885766
0.000757248
0.000413789
0.000718806
0.00107894
0.00152134
0.00204496
0.0026058
0.0031622
0.00368755
0.00417094
0.0046061
0.00500788
0.00536303
0.00568859
0.00598461
0.00626284
0.00652573
0.00676455
0.0069932
0.00722232
0.00743989
0.00764259
0.00784425
0.00805369
0.00826209
0.00847232
0.00869224
0.0089124
0.00912727
0.00934931
0.00958832
0.00985057
0.0101259
0.0103954
0.0106804
0.0109998
0.011337
0.0116886
0.012067
0.0124733
0.0129106
0.0133915
0.0139008
0.0144518
0.0150471
0.0156885
0.016412
0.0171993
0.0180725
0.0190388
0.0200736
0.0212118
0.0225107
0.024056
0.0257387
0.0275118
0.0296553
0.0323128
0.0356362
0.0394299
0.0437579
0.0488997
0.0549548
0.0620127
0.0688093
0.0751199
0.0819809
0.0911014
0.100854
0.110847
0.122388
0.135561
0.150458
0.166718
0.184084
0.204801
0.229991
0.256137
0.286971
0.323234
0.358545
0.399445
0.443569
0.484567
0.527011
0.568962
0.607377
0.644634
0.678861
0.704587
0.727119
0.743096
0.749656
0.746386
0.738974
0.729989
0.721473
0.710966
0.69904
0.6855
0.671241
0.656345
0.641364
0.625796
0.614061
0.604224
0.598247
0.5926
0.588176
0.584819
0.579283
0.576878
0.573201
0.566694
0.563925
0.564407
0.560634
0.560174
0.558674
0.554574
0.555678
0.555417
0.551268
0.546894
0.544526
0.54611
0.549663
0.548233
0.543947
0.540871
0.539353
0.541465
0.542537
0.540474
0.5357
0.534942
0.535536
0.530437
0.537564
0.537599
0.534431
0.533759
0.532295
0.532435
0.526952
0.537142
0.53094
0.527845
0.527041
0.522454
0.52966
0.525302
0.504343
0.527114
0.526479
0.523111
0.521363
0.501703
0.495782
0.491858
0.487143
0.487249
0.490208
0.510785
0.502459
0.48375
0.483234
0.509546
0.522757
0.514946
0.48104
0.466599
0.478746
0.485245
0.483787
0.491026
0.497337
0.48692
0.476792
0.48341
0.48282
0.470949
0.459941
0.458605
0.47386
0.456262
0.481642
0.4693
0.461042
0.464131
0.465308
0.472369
0.473956
0.430502
0.441686
0.443368
0.473222
0.4692
0.449413
0.470118
0.477804
0.469653
0.456272
0.444739
0.477801
0.468654
0.436555
0.450859
0.451737
0.473594
0.447099
0.459248
0.450717
0.45318
0.452823
0.418731
0.445503
0.452865
0.459903
0.4458
0.394643
0.421296
0.429697
0.428838
0.455241
0.456892
0.432038
0.438519
0.435731
0.440631
0.408666
0.429043
0.457872
0.464206
0.467126
0.445072
0.43491
0.450978
0.465814
0.452948
0.453344
0.461055
0.465368
0.439178
0.428171
0.427385
0.443701
0.439902
0.434228
)
;
    }
    frontAndBack
    {
        type            empty;
    }
    inlet
    {
        type            calculated;
        value           uniform 0;
    }
    outlet
    {
        type            calculated;
        value           uniform 0;
    }
    top
    {
        type            calculated;
        value           uniform 0;
    }
}


// ************************************************************************* //
