/*--------------------------------*- C++ -*----------------------------------*\
| =========                 |                                                 |
| \\      /  F ield         | OpenFOAM: The Open Source CFD Toolbox           |
|  \\    /   O peration     | Version:  v2012                                 |
|   \\  /    A nd           | Website:  www.openfoam.com                      |
|    \\/     M anipulation  |                                                 |
\*---------------------------------------------------------------------------*/
FoamFile
{
    version     2.0;
    format      ascii;
    class       volScalarField;
    location    "13200";
    object      Rekd;
}
// * * * * * * * * * * * * * * * * * * * * * * * * * * * * * * * * * * * * * //

dimensions      [0 0 0 0 0 0 0];


internalField   nonuniform List<scalar> 
39402
(
0.00756665
0.00201765
0.0100476
0.00102725
0.00227342
0.0104907
0.000981902
0.00113219
0.00226502
0.0112355
0.00103946
0.00168834
0.00109213
0.00256016
0.0128348
0.00110288
0.00216019
0.00511336
0.00133554
0.00312851
0.0157943
0.00114855
0.00243715
0.007146
0.0119559
0.00197016
0.00390131
0.0203293
0.00117883
0.00261814
0.00823892
0.0168478
0.0224354
0.00295716
0.00481756
0.0266018
0.00119124
0.00272719
0.00893531
0.0195161
0.0317127
0.0367721
0.00424696
0.00584674
0.0348396
0.00119328
0.00278012
0.00935725
0.0212064
0.0368726
0.0520359
0.055006
0.00580554
0.00698931
0.0453889
0.00118934
0.0027963
0.009564
0.0222546
0.0401294
0.0606585
0.0777556
0.0769738
0.00759546
0.0082746
0.0587801
0.00118169
0.0027939
0.00963977
0.0227783
0.0421833
0.0660766
0.0906953
0.108454
0.102405
0.00961217
0.00976301
0.0754338
0.00117194
0.00277989
0.00964467
0.0229934
0.0432194
0.0695258
0.0987494
0.126346
0.143602
0.131174
0.0119118
0.0115552
0.0961069
0.00116041
0.00276392
0.00961096
0.0230253
0.0436757
0.0712544
0.103892
0.137335
0.166883
0.182869
0.163812
0.0145791
0.0137659
0.122049
0.00114899
0.00274148
0.00956381
0.0229564
0.0437651
0.0720425
0.10647
0.144324
0.180996
0.21189
0.226722
0.200958
0.0177605
0.0165699
0.154652
0.00113787
0.00271527
0.00948223
0.0228271
0.0436513
0.072223
0.107674
0.147844
0.189942
0.229304
0.261688
0.275546
0.243485
0.0216688
0.0202337
0.195631
0.0011268
0.00268882
0.00939288
0.0226287
0.0434083
0.0720587
0.107973
0.149527
0.194465
0.240302
0.282535
0.316601
0.329778
0.292486
0.0263618
0.025162
0.247097
0.00111563
0.00266199
0.0093006
0.0224313
0.0430346
0.071712
0.107763
0.149992
0.196633
0.245865
0.295661
0.340964
0.377017
0.38988
0.348537
0.0315225
0.0319288
0.312063
0.00110414
0.00263467
0.00920602
0.0222095
0.0426713
0.0711077
0.107253
0.149736
0.197245
0.248519
0.302293
0.356248
0.404976
0.443441
0.45622
0.410443
0.0369117
0.0414175
0.394729
0.00109148
0.00260086
0.0091077
0.0219787
0.0422706
0.0704757
0.106413
0.149019
0.196932
0.249269
0.305444
0.364018
0.422452
0.475049
0.516423
0.529225
0.476101
0.0419887
0.0549128
0.500473
0.00108059
0.0025726
0.00899432
0.0217396
0.0418272
0.0698088
0.105488
0.147895
0.196051
0.248927
0.306336
0.367602
0.431325
0.494806
0.551833
0.596759
0.609643
0.545852
0.0463031
0.0742416
0.632387
0.00107183
0.0025563
0.00888576
0.0214857
0.041364
0.069076
0.104473
0.146687
0.194625
0.247848
0.305905
0.368583
0.435394
0.504769
0.573972
0.636184
0.685223
0.698174
0.61818
0.0498527
0.0993974
0.79082
0.00106028
0.00252794
0.00880831
0.021233
0.0408744
0.0683405
0.103394
0.14536
0.193078
0.246105
0.304577
0.368019
0.43643
0.509246
0.584997
0.66073
0.72895
0.782812
0.795044
0.690659
0.0531745
0.132322
0.961166
0.00105051
0.00249662
0.00872744
0.0210285
0.0403747
0.0675612
0.102342
0.143949
0.191427
0.244187
0.302433
0.366382
0.435615
0.510299
0.589796
0.672763
0.755977
0.831023
0.890033
0.900023
0.759079
0.0583139
0.176725
1.12365
0.00104084
0.00247123
0.00861442
0.0208266
0.0399582
0.066725
0.101224
0.142513
0.189666
0.242126
0.30008
0.363832
0.433627
0.509259
0.590828
0.677924
0.769005
0.860718
0.943548
1.00784
1.01136
0.816873
0.0680754
0.235332
1.26704
0.00103174
0.00243515
0.00852259
0.0205538
0.0395634
0.066016
0.0999838
0.140948
0.187825
0.239936
0.297627
0.360999
0.43063
0.506826
0.589504
0.678802
0.774436
0.874684
0.976161
1.06756
1.13652
1.12685
0.854669
0.0855349
0.308026
1.40402
0.00102251
0.00241501
0.00840704
0.0203305
0.0390405
0.0653535
0.0989206
0.139264
0.185822
0.237708
0.294935
0.358073
0.427232
0.503294
0.586501
0.677094
0.775061
0.880311
0.991047
1.10352
1.2042
1.27615
1.24207
0.862011
0.112839
0.391523
1.54111
0.00101403
0.00239968
0.00831973
0.0200775
0.038606
0.064531
0.0979318
0.137862
0.183731
0.235296
0.292196
0.354913
0.423737
0.49934
0.582384
0.673464
0.772882
0.880617
0.996786
1.1195
1.24429
1.35449
1.42575
1.35389
0.833228
0.150924
0.48506
1.6785
0.00100523
0.00237128
0.00824769
0.0198812
0.0381585
0.0638111
0.0967649
0.136568
0.18192
0.232722
0.289265
0.351534
0.41998
0.495173
0.577748
0.668494
0.768531
0.877774
0.996625
1.12525
1.2615
1.39993
1.51911
1.58323
1.45705
0.770539
0.199349
0.585186
1.81659
0.000997342
0.0023421
0.00816688
0.0197003
0.0377975
0.0630326
0.0957498
0.134988
0.180311
0.230455
0.286095
0.348004
0.416078
0.490764
0.572871
0.663129
0.762664
0.872545
0.992986
1.12443
1.26722
1.41874
1.57182
1.698
1.74455
1.53945
0.683113
0.256481
0.691657
1.95015
0.000989324
0.00232032
0.00807725
0.0194818
0.0374343
0.0624211
0.0946115
0.133659
0.178298
0.228452
0.28345
0.344344
0.411963
0.48619
0.567646
0.657442
0.756428
0.865764
0.986745
1.11986
1.26557
1.42438
1.59293
1.7613
1.89012
1.9025
1.58356
0.581309
0.321605
0.809712
2.08018
0.000982913
0.00230157
0.00799985
0.0192504
0.0370237
0.0618401
0.0936935
0.132186
0.176523
0.22597
0.280965
0.341077
0.407621
0.481459
0.562376
0.65135
0.749881
0.858472
0.978753
1.11229
1.25975
1.42164
1.59859
1.78583
1.96908
2.09217
2.0519
1.57593
0.474068
0.395097
0.934877
2.21528
0.000975813
0.00228374
0.00792866
0.0190652
0.0365865
0.0612476
0.092867
0.13093
0.17471
0.223766
0.278048
0.338182
0.40378
0.476384
0.556952
0.645289
0.742778
0.850815
0.970202
1.10289
1.25062
1.41435
1.59459
1.79179
1.9992
2.1948
2.29996
2.1864
1.50465
0.384494
0.475589
1.05685
2.36764
0.000968156
0.00226664
0.00786616
0.0189054
0.0362303
0.0605744
0.0919877
0.129728
0.173164
0.221618
0.275452
0.334796
0.400397
0.471848
0.551042
0.639025
0.735685
0.842646
0.961372
1.09297
1.23962
1.40345
1.58552
1.78639
2.00615
2.2343
2.43591
2.5053
2.28895
1.35152
0.349401
0.561307
1.17364
2.54709
0.000961465
0.0022535
0.00780212
0.0187724
0.0359176
0.0599893
0.0910001
0.128465
0.171543
0.219765
0.272837
0.331716
0.39639
0.467852
0.545823
0.632301
0.728488
0.834463
0.952073
1.08277
1.22818
1.39054
1.57247
1.77526
1.99932
2.24375
2.49132
2.68822
2.70094
2.33122
1.08896
0.365462
0.641282
1.28506
2.75299
0.000955642
0.00223419
0.00774603
0.0186156
0.0356839
0.0594666
0.090186
0.127202
0.169934
0.21786
0.270595
0.328581
0.392849
0.463319
0.541275
0.626371
0.720798
0.826102
0.942681
1.07207
1.21639
1.37725
1.55735
1.75963
1.98579
2.23578
2.50626
2.76869
2.94571
2.88849
2.31653
0.801136
0.411647
0.720419
1.39728
2.97112
0.00095059
0.00221744
0.00768041
0.0184747
0.0353853
0.0590694
0.0894126
0.126156
0.168393
0.215949
0.268295
0.325946
0.389164
0.459204
0.535955
0.620992
0.714006
0.817391
0.93308
1.06132
1.20401
1.36363
1.54179
1.7419
1.96718
2.21971
2.4981
2.79458
3.06224
3.19494
3.02859
2.06776
0.580035
0.472356
0.798597
1.49894
3.22421
0.00094555
0.00219565
0.00762365
0.0183218
0.0351102
0.0585413
0.088818
0.125103
0.167054
0.213974
0.266119
0.323282
0.386005
0.454962
0.531243
0.61492
0.707807
0.809611
0.923137
1.05037
1.19159
1.34939
1.52592
1.72374
1.94643
2.19765
2.47958
2.78837
3.10779
3.36669
3.4366
3.18098
1.66741
0.462066
0.540581
0.880898
1.59846
3.52233
0.000939586
0.00217875
0.00756521
0.0181915
0.0348534
0.0580831
0.088093
0.124284
0.165776
0.212317
0.263787
0.320603
0.382956
0.451253
0.52635
0.609486
0.700879
0.802554
0.914296
1.03908
1.17912
1.3351
1.50953
1.70536
1.92524
2.17331
2.45384
2.76807
3.10784
3.4413
3.67084
3.66442
3.14607
1.20279
0.43265
0.611736
0.972558
1.70399
3.82063
0.000933262
0.00216584
0.00751272
0.0180701
0.0346061
0.0577035
0.0874235
0.123372
0.164792
0.210824
0.261841
0.318021
0.379947
0.447707
0.522157
0.604058
0.694817
0.794726
0.906157
1.02902
1.16628
1.32088
1.49329
1.6864
1.90392
2.14867
2.42534
2.73857
3.08749
3.45572
3.78952
3.96105
3.84378
2.72386
0.810616
0.457201
0.677118
1.07957
1.81309
4.15578
0.000928483
0.00215379
0.00747088
0.017965
0.0343853
0.0573061
0.0868062
0.122531
0.163636
0.209629
0.260091
0.315766
0.376976
0.444338
0.518087
0.599166
0.688486
0.787702
0.897201
1.01977
1.15472
1.30626
1.47705
1.66788
1.88209
2.12388
2.39656
2.70553
3.05466
3.4393
3.82754
4.14271
4.2555
4.03103
2.08977
0.581923
0.506691
0.754674
1.17819
1.94499
4.52363
0.000925319
0.00214105
0.00742842
0.0178676
0.0341873
0.056952
0.0862821
0.121698
0.162639
0.208274
0.25844
0.313584
0.374239
0.440948
0.514149
0.594498
0.682928
0.780599
0.889261
1.00956
1.14431
1.29301
1.46042
1.64932
1.86083
2.09872
2.36785
2.67194
3.01697
3.40482
3.82309
4.21827
4.47893
4.50146
3.84447
1.45399
0.486368
0.56904
0.834271
1.27486
2.09992
4.92374
0.000922005
0.00213263
0.00738739
0.0177702
0.0340074
0.0566364
0.0858277
0.121064
0.161663
0.207046
0.256976
0.311828
0.371676
0.437761
0.510147
0.589955
0.677744
0.774358
0.881385
1.00054
1.13287
1.28118
1.44543
1.63029
1.83971
2.0743
2.33895
2.6386
2.97818
3.3628
3.79081
4.23479
4.61803
4.80946
4.81903
3.10943
0.962362
0.477802
0.629585
0.913381
1.37232
2.26764
5.35772
0.000917689
0.00212161
0.00735983
0.0176769
0.0338225
0.0563404
0.0853638
0.120453
0.160766
0.205825
0.255585
0.309991
0.36968
0.434961
0.506677
0.58545
0.672505
0.768289
0.874116
0.99163
1.12259
1.26836
1.4319
1.61335
1.81801
2.05022
2.31084
2.6054
2.93957
3.3185
3.74586
4.2124
4.66926
5.00425
5.11611
4.86671
2.25247
0.668525
0.510735
0.691312
0.993911
1.47487
2.44954
5.82828
0.000913335
0.00210832
0.00732502
0.0176179
0.0336571
0.0560837
0.0849379
0.119831
0.159912
0.204873
0.254175
0.308476
0.367595
0.432587
0.503491
0.581485
0.667397
0.76243
0.867219
0.983513
1.11243
1.25673
1.41729
1.59794
1.7986
2.02559
2.28318
2.5732
2.90127
3.27424
3.69628
4.16812
4.66522
5.11606
5.37119
5.49141
4.24846
1.52077
0.53593
0.55866
0.757351
1.08126
1.58178
2.64823
6.33878
0.000909102
0.00209828
0.00727832
0.0175263
0.0335518
0.0558611
0.0845612
0.119328
0.15921
0.203796
0.25304
0.306778
0.365687
0.430097
0.500859
0.577765
0.663003
0.756759
0.860799
0.975699
1.1032
1.24513
1.40423
1.58141
1.78111
2.00351
2.25507
2.54127
2.86428
3.23018
3.646
4.11458
4.62904
5.14359
5.54924
5.73279
5.7285
3.1783
0.99944
0.508436
0.608432
0.831907
1.17486
1.70303
2.88715
6.89395
0.000904985
0.00209037
0.00724992
0.0174231
0.0334196
0.0557037
0.0842466
0.118757
0.158649
0.202949
0.251943
0.30535
0.363868
0.427968
0.498159
0.574876
0.658898
0.751852
0.854432
0.968483
1.09455
1.23472
1.3912
1.56667
1.76257
1.9836
2.22991
2.50919
2.82759
3.18759
3.59566
4.05859
4.57525
5.12351
5.63616
5.95258
6.13497
5.26577
2.19565
0.695231
0.527854
0.66503
0.910498
1.28002
1.85015
3.12786
7.49762
0.000901575
0.00208016
0.00722733
0.0173765
0.033256
0.0555377
0.0840834
0.118337
0.158017
0.202246
0.250878
0.304145
0.362289
0.425883
0.495576
0.571837
0.655657
0.747249
0.848944
0.961399
1.08646
1.22498
1.37943
1.55197
1.74586
1.96251
2.20743
2.4806
2.791
3.14552
3.54683
4.0017
4.51513
5.07739
5.64531
6.11251
6.35964
6.45559
4.11302
1.45132
0.557246
0.567705
0.728185
0.99838
1.39671
1.98609
3.39802
8.15407
0.000899548
0.00207176
0.00719588
0.0173303
0.0331806
0.0553205
0.083907
0.118201
0.157583
0.201595
0.250118
0.303051
0.360848
0.424217
0.493209
0.569064
0.652145
0.743433
0.843603
0.955053
1.07834
1.21572
1.36846
1.53874
1.72936
1.94376
2.18367
2.45508
2.7587
3.10384
3.49867
3.94603
4.45202
5.01726
5.6149
6.18171
6.55142
6.75043
6.19142
2.88726
0.952595
0.528969
0.616392
0.799981
1.09716
1.51182
2.13556
3.69321
8.86762
0.000898323
0.00206772
0.00717115
0.0172797
0.0331074
0.0552133
0.0836047
0.117963
0.157313
0.20104
0.249227
0.30215
0.359606
0.422693
0.491414
0.566495
0.649053
0.739601
0.839264
0.949132
1.07126
1.20666
1.35806
1.52652
1.7146
1.92534
2.16256
2.42832
2.72969
3.06693
3.45115
3.891
4.38921
4.94962
5.56344
6.18088
6.69707
6.9977
7.13356
4.98667
1.92069
0.676518
0.550726
0.670557
0.885745
1.19959
1.62151
2.30392
4.01448
9.64364
0.000896662
0.00206386
0.00716164
0.0172429
0.0330206
0.0551024
0.0834513
0.117579
0.156945
0.200741
0.248658
0.30134
0.358633
0.42135
0.489804
0.564302
0.646225
0.736183
0.835026
0.94425
1.06479
1.19882
1.34805
1.51502
1.70082
1.9087
2.14197
2.4043
2.69921
3.03392
3.40917
3.83693
4.32696
4.88039
5.496
6.14586
6.76048
7.16724
7.39921
7.0041
3.54201
1.24521
0.5659
0.592495
0.735472
0.977234
1.30888
1.73703
2.49922
4.36485
10.4877
0.000894004
0.00205937
0.00715752
0.0172292
0.032963
0.0549398
0.0833069
0.11738
0.156554
0.200379
0.248331
0.30055
0.357798
0.420247
0.488321
0.562436
0.643794
0.732905
0.831114
0.939338
1.05932
1.19159
1.33915
1.50378
1.68786
1.89316
2.12319
2.38122
2.67189
2.99939
3.3713
3.78928
4.26566
4.81087
5.42242
6.08785
6.75671
7.3119
7.64536
7.81923
5.74903
2.36489
0.834097
0.55368
0.644643
0.81071
1.07479
1.42515
1.86682
2.70852
4.74683
11.4058
0.000890197
0.00205349
0.00714979
0.0172121
0.0329775
0.0548178
0.0830807
0.117262
0.156394
0.19992
0.248068
0.300238
0.357016
0.419216
0.487067
0.56095
0.641585
0.730197
0.827595
0.935113
1.05392
1.18549
1.33078
1.49377
1.67528
1.87854
2.10566
2.36019
2.64579
2.9684
3.332
3.74601
4.21135
4.74188
5.34654
6.01587
6.71729
7.37788
7.80802
8.10491
7.75531
4.11373
1.5302
0.632822
0.584543
0.704548
0.893858
1.18004
1.5442
1.99984
2.94171
5.16249
12.4045
0.000886267
0.00204538
0.00712993
0.0171886
0.0329552
0.054893
0.0829768
0.117054
0.156253
0.199817
0.247384
0.299845
0.35664
0.418305
0.485806
0.559559
0.639777
0.727865
0.824474
0.931153
1.04895
1.17963
1.32403
1.48448
1.66419
1.86437
2.08916
2.34036
2.62202
2.93887
3.29686
3.70107
4.16199
4.68039
5.27013
5.93662
6.65619
7.37428
7.95825
8.30115
8.53529
6.4219
2.74965
0.999676
0.574016
0.632502
0.771213
0.989106
1.29242
1.65607
2.15275
3.19736
5.61464
13.4909
0.000882591
0.00203371
0.00710169
0.0171648
0.032899
0.0549161
0.0831058
0.116933
0.15609
0.199673
0.247279
0.299228
0.356177
0.417808
0.484905
0.558052
0.638312
0.725775
0.821897
0.927709
1.04441
1.17407
1.31742
1.47682
1.6539
1.8519
2.07323
2.32188
2.5999
2.91195
3.26351
3.66105
4.11096
4.62414
5.20122
5.85443
6.58091
7.3354
8.03321
8.47237
8.79259
8.44515
4.58924
1.77871
0.713617
0.58763
0.687877
0.845622
1.09219
1.41123
1.76745
2.32822
3.47702
6.10663
14.6729
0.000879573
0.00202394
0.00707035
0.0171236
0.032892
0.054841
0.0831522
0.117114
0.15595
0.199487
0.247316
0.299133
0.355753
0.417419
0.484442
0.5572
0.636798
0.724042
0.819839
0.924933
1.04081
1.16907
1.31142
1.4693
1.64539
1.84054
2.05933
2.30412
2.57916
2.88701
3.23313
3.62335
4.0654
4.56627
5.13746
5.77846
6.49665
7.27239
8.0401
8.63585
8.96563
9.26955
6.94233
3.06177
1.14841
0.605969
0.62981
0.751432
0.933465
1.20525
1.53425
1.88856
2.52398
3.78191
6.64198
15.9584
0.000877447
0.00201979
0.00704513
0.0170432
0.0328591
0.0548471
0.0831201
0.11719
0.156095
0.199406
0.247081
0.299084
0.355503
0.417073
0.484051
0.556845
0.635707
0.722404
0.817992
0.922714
1.03795
1.16507
1.30602
1.46254
1.63695
1.83112
2.04672
2.28866
2.55932
2.86366
3.20496
3.58913
4.02274
4.51451
5.07192
5.70658
6.41574
7.19489
8.00262
8.73445
9.16366
9.49468
9.06106
4.92567
1.97518
0.791803
0.599242
0.684571
0.824526
1.0346
1.31831
1.64634
2.02174
2.74196
4.1139
7.22451
17.3575
0.00087624
0.00201882
0.0070383
0.0169919
0.0326916
0.054805
0.0831442
0.117241
0.156202
0.199611
0.24704
0.298976
0.355442
0.416813
0.483393
0.556241
0.635209
0.72145
0.815995
0.920662
1.03536
1.16196
1.3016
1.45673
1.62934
1.82189
2.03613
2.27444
2.542
2.84144
3.17859
3.55714
3.98391
4.46602
5.01344
5.63313
6.33667
7.11363
7.9396
8.7543
9.3525
9.64938
10.0177
7.31225
3.27371
1.26734
0.640884
0.635278
0.747426
0.906301
1.14018
1.44138
1.75522
2.18082
2.98142
4.47526
7.8583
18.8796
0.000875864
0.00201405
0.00703057
0.0169829
0.0326084
0.054592
0.0831019
0.117291
0.156373
0.199825
0.247353
0.29889
0.355368
0.416595
0.483232
0.555525
0.634673
0.721017
0.81507
0.918373
1.03291
1.15886
1.29789
1.45175
1.62281
1.8133
2.02575
2.26248
2.52595
2.82203
3.15362
3.5275
3.94749
4.42187
4.95848
5.56756
6.25507
7.03051
7.86826
8.72114
9.47929
9.89074
10.2264
9.58383
5.13064
2.10795
0.85754
0.615034
0.688493
0.815954
0.994258
1.26039
1.56408
1.86805
2.36071
3.24318
4.86835
8.54773
20.5352
0.000875309
0.00201286
0.00701359
0.016972
0.0325974
0.0544748
0.0828115
0.117245
0.156442
0.200051
0.247657
0.299271
0.355259
0.416561
0.483169
0.555476
0.634239
0.720397
0.814699
0.917231
1.03047
1.15626
1.29457
1.4477
1.61729
1.80597
2.01628
2.251
2.51288
2.80411
3.13187
3.49963
3.91402
4.38038
4.90846
5.50564
6.1825
6.94228
7.78737
8.66871
9.51843
10.1124
10.3537
10.7622
7.5186
3.39119
1.34622
0.673649
0.64596
0.751454
0.891707
1.10398
1.37925
1.6846
1.99373
2.56413
3.52835
5.29604
9.29793
22.3368
0.000874414
0.00201267
0.00702097
0.0169553
0.03259
0.0544677
0.0826492
0.116877
0.156401
0.200163
0.247959
0.299622
0.355711
0.416621
0.483049
0.555542
0.634316
0.719973
0.814128
0.916848
1.02899
1.15372
1.29184
1.44422
1.61296
1.79996
2.00819
2.24044
2.5001
2.78967
3.11174
3.47495
3.88255
4.34221
4.86114
5.44871
6.11295
6.8633
7.69672
8.59946
9.5016
10.2663
10.6706
10.965
9.94901
5.20372
2.17308
0.901906
0.633583
0.699674
0.820147
0.982681
1.21694
1.51309
1.78776
2.14735
2.78839
3.83876
5.76153
10.1142
24.2971
0.000872966
0.00201189
0.00702411
0.016982
0.0326001
0.0544686
0.082657
0.116599
0.156051
0.200119
0.248131
0.300029
0.356176
0.417108
0.483219
0.555323
0.634256
0.720179
0.813525
0.916494
1.02872
1.15204
1.28937
1.44124
1.6093
1.7951
2.00163
2.23134
2.48814
2.77546
3.09552
3.45235
3.85477
4.30679
4.8175
5.39505
6.04841
6.78596
7.61363
8.51565
9.4564
10.3337
10.9071
11.1473
11.4155
7.55696
3.41375
1.38134
0.698619
0.661144
0.761889
0.896629
1.07689
1.3439
1.62821
1.89819
2.32542
3.03358
4.17658
6.26798
11.0022
26.4298
0.000871324
0.00201115
0.00702584
0.0169961
0.0326603
0.0544973
0.0826658
0.116609
0.155722
0.199704
0.248108
0.300448
0.356669
0.41778
0.484029
0.555509
0.634044
0.720093
0.813487
0.915849
1.02838
1.15173
1.2875
1.43839
1.60597
1.79103
1.99617
2.22387
2.47806
2.76185
3.07981
3.43402
3.8295
4.27582
4.77757
5.34557
5.98745
6.71362
7.52959
8.43437
9.38725
10.3382
11.0795
11.4948
11.7274
10.1029
5.15415
2.17412
0.922842
0.650979
0.713366
0.830795
0.978845
1.19165
1.46975
1.75346
2.02687
2.5269
3.30073
4.54416
6.81912
11.9688
28.7508
0.000869468
0.00201463
0.0070341
0.017008
0.0326948
0.0546073
0.0827272
0.116725
0.155852
0.199439
0.247649
0.300412
0.357167
0.418277
0.484673
0.556538
0.63412
0.719923
0.813526
0.915643
1.02772
1.15146
1.28729
1.43667
1.60261
1.78723
1.99157
2.21795
2.46957
2.75059
3.06459
3.41631
3.8087
4.2474
4.74254
5.29984
5.93161
6.64515
7.44988
8.34638
9.31837
10.299
11.1901
11.6887
12.0258
11.9039
7.43105
3.35277
1.37829
0.715909
0.676634
0.775844
0.904657
1.07175
1.31944
1.60751
1.85226
2.18502
2.74872
3.59155
4.94421
7.41884
13.0205
31.2752
0.000867453
0.00200983
0.00704434
0.0170305
0.032729
0.054677
0.0828921
0.116812
0.156104
0.199585
0.247352
0.299899
0.357229
0.418776
0.485172
0.557303
0.635385
0.720233
0.813689
0.915962
1.02786
1.15084
1.28697
1.43621
1.60066
1.78349
1.98733
2.21296
2.46307
2.74125
3.05179
3.39945
3.78891
4.22396
4.71044
5.26026
5.88019
6.58268
7.37413
8.26126
9.2343
10.2528
11.2249
11.9159
12.2109
12.5991
10.0205
4.99218
2.12253
0.924774
0.668813
0.73009
0.845358
0.988819
1.18718
1.45243
1.72884
1.96415
2.3702
2.99088
3.90806
5.37952
8.07148
14.1648
34.0234
0.000865259
0.00199809
0.00702933
0.017056
0.0327767
0.054791
0.0830803
0.117051
0.156231
0.19994
0.24745
0.299739
0.356662
0.418995
0.485743
0.558026
0.63651
0.721305
0.814092
0.916142
1.02835
1.15102
1.28618
1.43572
1.60022
1.78165
1.98335
2.20838
2.45766
2.73403
3.04157
3.3854
3.77018
4.20174
4.68392
5.22377
5.83528
6.52495
7.30486
8.17953
9.14877
10.1814
11.2192
12.0843
12.5048
12.8016
12.2066
7.13837
3.21788
1.34295
0.726597
0.696691
0.795397
0.922683
1.0862
1.30927
1.59181
1.83778
2.10533
2.57738
3.25469
4.25254
5.8533
8.7817
15.4103
37.0135
0.00086309
0.00198678
0.00699454
0.017024
0.0328242
0.0548216
0.0832476
0.11739
0.15643
0.200049
0.247751
0.29989
0.356432
0.418613
0.486022
0.558515
0.637119
0.722483
0.815263
0.916468
1.02834
1.15144
1.28623
1.43512
1.59968
1.78134
1.98146
2.20415
2.45265
2.72805
3.03359
3.37421
3.75462
4.1806
4.65869
5.19355
5.79383
6.47417
7.2405
8.1042
9.06439
10.107
11.1742
12.172
12.7946
12.9727
13.3596
9.68571
4.72505
2.02149
0.909871
0.686341
0.751377
0.86703
1.00695
1.1861
1.44737
1.7153
1.93923
2.27724
2.80452
3.54181
4.6275
6.36887
9.55452
16.7659
40.267
0.000861111
0.00198315
0.00695572
0.0169512
0.032771
0.0548441
0.0832337
0.117627
0.156758
0.200329
0.247986
0.300327
0.356862
0.418134
0.485667
0.558738
0.637908
0.723336
0.816685
0.918074
1.02891
1.15157
1.28679
1.43524
1.59932
1.78075
1.98114
2.20198
2.44809
2.72258
3.02693
3.36524
3.74202
4.16303
4.635
5.16493
5.75897
6.427
7.18353
8.03345
8.98537
10.0271
11.1193
12.186
12.9998
13.4049
13.559
12.1943
6.68812
3.01081
1.27815
0.730777
0.716659
0.8179
0.944888
1.09805
1.31149
1.582
1.83899
2.0653
2.47499
3.05205
3.85434
5.03565
6.93014
10.3959
18.2414
43.808
0.000859257
0.00198028
0.00694465
0.0168654
0.0326451
0.0547685
0.0832713
0.117616
0.157158
0.200728
0.248401
0.30053
0.357254
0.418545
0.485382
0.558447
0.638379
0.7244
0.817818
0.919788
1.03075
1.15229
1.287
1.43586
1.5997
1.7803
1.98068
2.20155
2.44559
2.71756
3.02087
3.35779
3.7319
4.14902
4.61576
5.13843
5.72667
6.38689
7.12974
7.96974
8.90902
9.94925
11.0554
12.1684
13.14
13.6323
13.9112
13.8334
9.11977
4.36012
1.87817
0.881867
0.702501
0.774237
0.89128
1.03083
1.20232
1.45081
1.73122
1.93812
2.22684
2.69301
3.32156
4.1946
5.47984
7.54104
11.3116
19.8473
47.6616
0.000857606
0.00197563
0.00693263
0.016839
0.0324928
0.0546307
0.0831672
0.117668
0.157263
0.201183
0.248968
0.301034
0.357691
0.419203
0.485812
0.558232
0.637902
0.724987
0.818893
0.920996
1.03255
1.15425
1.2879
1.43646
1.60045
1.78102
1.98025
2.20127
2.44528
2.71495
3.01504
3.35096
3.72374
4.13789
4.59996
5.11702
5.69697
6.35005
7.08394
7.90911
8.83937
9.87025
10.99
12.1348
13.2141
13.9209
14.117
14.4883
11.7712
6.13182
2.74869
1.19472
0.732989
0.740068
0.843324
0.973098
1.12662
1.32884
1.59107
1.85252
2.05266
2.41821
2.9309
3.61503
4.56499
5.96339
8.20595
12.3083
21.5954
51.8547
0.000856109
0.00197114
0.00691647
0.0168097
0.0324425
0.0544437
0.0830468
0.117628
0.157337
0.201463
0.249558
0.301744
0.35842
0.419689
0.486616
0.558898
0.637778
0.724562
0.819454
0.922066
1.03381
1.15632
1.29014
1.4376
1.60117
1.78185
1.9809
2.20067
2.44485
2.71474
3.01248
3.34453
3.7163
4.1285
4.58757
5.09943
5.67279
6.31663
7.04215
7.85726
8.77199
9.7969
10.9157
12.0882
13.2363
14.1402
14.5338
14.6725
13.9673
8.37657
3.93845
1.70795
0.850147
0.722179
0.802259
0.921954
1.06222
1.23616
1.46566
1.7444
1.95085
2.20656
2.6311
3.18997
3.9345
4.96821
6.4898
8.92988
13.3935
23.4982
56.4193
0.000854741
0.00196745
0.00689097
0.0167917
0.0323867
0.0543667
0.0828586
0.117482
0.157296
0.201669
0.249856
0.302369
0.359181
0.420483
0.487214
0.559808
0.638564
0.724283
0.818969
0.922846
1.03516
1.15813
1.29263
1.4401
1.60249
1.78249
1.9821
2.20133
2.44435
2.71437
3.01263
3.34173
3.70936
4.12029
4.57667
5.08531
5.65311
6.28959
7.00418
7.81033
8.71434
9.72456
10.8434
12.0307
13.2247
14.2856
14.8374
15.059
15.2003
10.9674
5.5081
2.45515
1.10144
0.737831
0.767547
0.875433
1.00624
1.15867
1.35086
1.61582
1.8669
2.06052
2.394
2.86374
3.47212
4.28234
5.40722
7.06295
9.71814
14.5752
25.5701
61.3865
0.00085347
0.00196386
0.00687732
0.0167316
0.0323496
0.0542713
0.0826716
0.11714
0.157106
0.201486
0.250112
0.302677
0.359896
0.421321
0.487883
0.560583
0.639563
0.725212
0.818914
0.922531
1.03617
1.15974
1.29497
1.44276
1.60511
1.78391
1.98278
2.20288
2.44523
2.714
3.01227
3.34189
3.70622
4.1127
4.56762
5.07347
5.63724
6.26722
6.97367
7.76795
8.66252
9.66207
10.7694
11.9716
13.1984
14.3574
15.1371
15.344
15.5999
13.5703
7.48239
3.48026
1.52228
0.819292
0.744991
0.833526
0.955374
1.09583
1.26286
1.49274
1.75831
1.97943
2.20868
2.60466
3.11717
3.77928
4.66108
5.88523
7.68705
10.5764
15.8619
27.8264
66.7938
0.000852335
0.00196452
0.00687422
0.016681
0.032276
0.0541562
0.0824679
0.116985
0.156692
0.201278
0.249916
0.302985
0.360305
0.42206
0.488799
0.561514
0.6404
0.726349
0.819789
0.922652
1.03596
1.16045
1.29666
1.44518
1.60812
1.78694
1.98424
2.20393
2.44682
2.71479
3.01196
3.34154
3.70641
4.10942
4.55917
5.06326
5.62408
6.24938
6.94811
7.73398
8.61597
9.60589
10.7049
11.9034
13.1593
14.3874
15.3602
15.7479
15.8277
15.4691
9.8897
4.81991
2.14392
1.00632
0.74637
0.797704
0.908778
1.04068
1.19588
1.38899
1.64152
1.90955
2.08182
2.39441
2.83516
3.39316
4.11381
5.07348
6.40569
8.36669
11.5109
17.2628
30.2823
72.6817
0.000851114
0.00195806
0.00687383
0.0166893
0.0321785
0.0540351
0.0822988
0.116815
0.156509
0.200916
0.249647
0.30273
0.360569
0.422506
0.489653
0.562581
0.641616
0.727251
0.821013
0.923528
1.03606
1.16022
1.29726
1.44716
1.61097
1.7906
1.98784
2.20583
2.44827
2.71666
3.01288
3.34123
3.70597
4.10982
4.55573
5.05395
5.61229
6.23419
6.92783
7.70415
8.57774
9.55516
10.646
11.8432
13.1099
14.385
15.5156
16.0952
16.2633
16.4231
12.5479
6.52979
2.99666
1.3348
0.794546
0.771269
0.867406
0.991348
1.13628
1.30416
1.52865
1.80422
2.00935
2.22849
2.60511
3.08633
3.69371
4.47811
5.52262
6.9726
9.10674
12.5288
18.7886
32.9569
79.0905
0.000850088
0.00195192
0.00685277
0.0166858
0.0321567
0.0539387
0.0821245
0.116588
0.156287
0.20057
0.249246
0.302444
0.360341
0.423027
0.490105
0.563423
0.642737
0.728641
0.822234
0.924563
1.03691
1.16042
1.2972
1.44795
1.61315
1.79408
1.99201
2.21009
2.45064
2.71847
3.01473
3.34247
3.7056
4.10954
4.55607
5.04975
5.60182
6.22078
6.91053
7.68065
8.54408
9.51318
10.593
11.7854
13.0672
14.3691
15.6006
16.4172
16.5928
16.7231
15.0398
8.63677
4.1221
1.83168
0.922445
0.761564
0.831938
0.947003
1.08339
1.23925
1.43614
1.68641
1.93511
2.11745
2.41455
2.83596
3.35991
4.02104
4.87486
6.01178
7.59002
9.91281
13.6377
20.4504
35.8704
86.0664
0.000849101
0.00195226
0.00683291
0.0166173
0.0321419
0.0538912
0.0819788
0.116361
0.156012
0.200182
0.248943
0.301984
0.359976
0.42293
0.49085
0.563947
0.643722
0.730077
0.823661
0.926083
1.03824
1.16158
1.29761
1.44825
1.61415
1.79663
1.99556
2.21476
2.45536
2.72107
3.01664
3.34462
3.70692
4.10926
4.55612
5.05034
5.597
6.20874
6.89508
7.66082
8.51687
9.4751
10.5476
11.7331
13.0189
14.3522
15.6457
16.6635
17.022
17.005
16.7502
11.1233
5.55918
2.52514
1.16314
0.783164
0.803164
0.907104
1.03528
1.18234
1.35706
1.57271
1.83957
2.05687
2.26173
2.6273
3.08748
3.65787
4.37759
5.30696
6.54456
8.26254
10.791
14.8453
22.261
39.0444
93.6621
0.000848211
0.00195074
0.00683304
0.0165757
0.0320203
0.0538657
0.0819826
0.116166
0.155725
0.199953
0.248652
0.30168
0.359453
0.422536
0.490903
0.564514
0.644282
0.731057
0.825196
0.9279
1.03985
1.16314
1.29902
1.44889
1.61463
1.79776
1.99873
2.21849
2.46051
2.72624
3.01977
3.34683
3.70953
4.11069
4.55598
5.05022
5.598
6.20387
6.88191
7.64314
8.49365
9.44441
10.5056
11.687
12.9743
14.3247
15.6722
16.8444
17.4099
17.5061
17.5981
13.7908
7.34446
3.44206
1.54289
0.859947
0.785072
0.87079
0.990451
1.13119
1.29007
1.47432
1.73304
1.9932
2.15867
2.45143
2.8604
3.36149
3.98246
4.76595
5.77772
7.12497
8.9952
11.7476
16.1612
24.2341
42.5014
101.933
0.00084739
0.00194955
0.00682689
0.0165771
0.0319508
0.0536743
0.0820122
0.116075
0.1556
0.199635
0.248463
0.301337
0.359089
0.421945
0.490506
0.564611
0.644835
0.731655
0.826522
0.929529
1.04205
1.16494
1.3006
1.45025
1.61546
1.79817
2.00029
2.22193
2.46497
2.73194
3.02565
3.35054
3.71243
4.11351
4.55751
5.05042
5.59821
6.20526
6.87675
7.62828
8.47329
9.4179
10.4714
11.6425
12.9317
14.3007
15.6803
16.9651
17.7761
17.8639
17.9155
16.2237
9.49188
4.61454
2.08155
1.02045
0.786506
0.839742
0.949926
1.08176
1.23146
1.40183
1.62813
1.89254
2.10414
2.30809
2.66791
3.11442
3.65996
4.33604
5.18906
6.29058
7.75732
9.79337
12.79
17.5953
26.3838
46.268
110.944
0.000846622
0.00194805
0.00682283
0.0165639
0.0319546
0.0535635
0.0817411
0.116003
0.155475
0.199473
0.248024
0.300998
0.358663
0.421515
0.489815
0.564335
0.644927
0.732539
0.827436
0.931201
1.04411
1.16729
1.30278
1.45192
1.61709
1.79885
2.00082
2.224
2.46877
2.73715
3.0326
3.35725
3.71664
4.11656
4.56065
5.05183
5.59813
6.20526
6.87798
7.62242
8.45626
9.39502
10.4426
11.6062
12.8874
14.2717
15.6887
17.0406
18.0588
18.3517
18.2175
17.8991
11.977
6.07121
2.80085
1.28897
0.822806
0.815628
0.913211
1.0369
1.17841
1.34161
1.53818
1.79001
2.04757
2.20946
2.50317
2.9049
3.39116
3.98516
4.72126
5.65002
6.84938
8.44639
10.6632
13.9259
19.158
28.7264
50.3725
120.756
0.000845923
0.00194615
0.00681697
0.0165518
0.031928
0.0535622
0.0815637
0.115746
0.155272
0.19946
0.247665
0.300731
0.35834
0.421237
0.489331
0.563589
0.644616
0.732817
0.828289
0.932415
1.04589
1.16977
1.30536
1.45455
1.61902
1.80074
2.00142
2.22464
2.47094
2.74159
3.03859
3.36511
3.72421
4.12156
4.56424
5.05543
5.59992
6.20523
6.87805
7.62325
8.44966
9.37583
10.4176
11.5753
12.8521
14.2353
15.6808
17.1013
18.2815
18.7624
18.7473
18.7732
14.6213
7.84462
3.72369
1.68476
0.915045
0.803337
0.880706
0.996519
1.13136
1.28676
1.46269
1.69114
1.9632
2.15479
2.36611
2.72475
3.16317
3.69266
4.33949
5.14099
6.1523
7.45828
9.19723
11.6113
15.1643
20.8615
31.2805
54.8463
131.443
0.000845257
0.00194445
0.00681099
0.0165382
0.0319033
0.053515
0.0815428
0.115551
0.154948
0.199199
0.247509
0.300354
0.357993
0.420847
0.488995
0.563209
0.644004
0.732186
0.828854
0.933319
1.04739
1.17191
1.30804
1.4576
1.62188
1.80332
2.00329
2.22537
2.47174
2.74395
3.04339
3.37167
3.73278
4.12989
4.56944
5.05934
5.60331
6.20702
6.87816
7.62417
8.45034
9.36825
10.3964
11.5488
12.8221
14.2076
15.6651
17.13
18.4561
19.193