/*--------------------------------*- C++ -*----------------------------------*\
| =========                 |                                                 |
| \\      /  F ield         | OpenFOAM: The Open Source CFD Toolbox           |
|  \\    /   O peration     | Version:  v2012                                 |
|   \\  /    A nd           | Website:  www.openfoam.com                      |
|    \\/     M anipulation  |                                                 |
\*---------------------------------------------------------------------------*/
FoamFile
{
    version     2.0;
    format      ascii;
    class       volScalarField;
    location    "13200";
    object      Res;
}
// * * * * * * * * * * * * * * * * * * * * * * * * * * * * * * * * * * * * * //

dimensions      [0 0 0 0 0 0 0];


internalField   nonuniform List<scalar> 
39402
(
0.707999
0.382572
0.999986
0.206288
0.994558
1
0.196603
0.91995
0.999997
1
0.206505
0.911253
0.999079
1
1
0.218134
0.923185
0.99893
0.999997
1
1
0.226551
0.935751
0.999277
0.999997
1
1
1
0.232175
0.943811
0.99955
0.999999
1
1
1
1
0.2345
0.948691
0.999683
0.999999
1
1
1
1
1
0.234926
0.951165
0.999751
1
1
1
1
1
1
1
0.234247
0.951778
0.999782
1
1
1
1
1
1
1
1
0.232865
0.951646
0.999791
1
1
1
1
1
1
1
1
1
0.23109
0.950872
0.999791
1
1
1
1
1
1
1
1
1
1
0.228977
0.95039
0.999787
1
1
1
1
1
1
1
1
1
1
1
0.226877
0.949567
0.999784
1
1
1
1
1
1
1
1
1
1
1
1
0.22483
0.948159
0.999773
1
1
1
1
1
1
1
1
1
1
1
1
1
0.22278
0.946701
0.999757
1
1
1
1
1
1
1
1
1
1
1
1
1
1
0.220711
0.945218
0.99974
1
1
1
1
1
1
1
1
1
1
1
1
1
1
1
0.21858
0.943636
0.999721
1
1
1
1
1
1
1
1
1
1
1
1
1
1
1
1
0.216222
0.94117
0.9997
1
1
1
1
1
1
1
1
1
1
1
1
1
1
1
1
1
0.214189
0.939856
0.99967
1
1
1
1
1
1
1
1
1
1
1
1
1
1
1
1
1
1
0.212551
0.939802
0.999647
1
1
1
1
1
1
1
1
1
1
1
1
1
1
1
1
1
1
1
0.210392
0.937306
0.999634
1
1
1
1
1
1
1
1
1
1
1
1
1
1
1
1
1
1
1
1
0.20856
0.935176
0.99961
1
1
1
1
1
1
1
1
1
1
1
1
1
1
1
1
1
1
1
1
1
0.206747
0.933302
0.999575
1
1
1
1
1
1
1
1
1
1
1
1
1
1
1
1
1
1
1
1
1
1
0.205035
0.929518
0.999542
0.999999
1
1
1
1
1
1
1
1
1
1
1
1
1
1
1
1
1
1
1
1
1
1
0.203298
0.928371
0.999486
0.999999
1
1
1
1
1
1
1
1
1
1
1
1
1
1
1
1
1
1
1
1
1
1
1
0.201702
0.928157
0.99945
0.999999
1
1
1
1
1
1
1
1
1
1
1
1
1
1
1
1
1
1
1
1
1
1
1
1
0.200045
0.925153
0.999428
0.999999
1
1
1
1
1
1
1
1
1
1
1
1
1
1
1
1
1
1
1
1
1
1
1
1
1
0.198555
0.922077
0.999389
0.999999
1
1
1
1
1
1
1
1
1
1
1
1
1
1
1
1
1
1
1
1
1
1
1
1
1
1
0.19704
0.920087
0.999341
0.999999
1
1
1
1
1
1
1
1
1
1
1
1
1
1
1
1
1
1
1
1
1
1
1
1
1
1
1
0.195827
0.918761
0.999298
0.999999
1
1
1
1
1
1
1
1
1
1
1
1
1
1
1
1
1
1
1
1
1
1
1
1
1
1
1
1
0.194483
0.916994
0.999261
0.999999
1
1
1
1
1
1
1
1
1
1
1
1
1
1
1
1
1
1
1
1
1
1
1
1
1
1
1
1
1
0.193032
0.915711
0.99922
0.999999
1
1
1
1
1
1
1
1
1
1
1
1
1
1
1
1
1
1
1
1
1
1
1
1
1
1
1
1
1
1
0.191764
0.91547
0.999183
0.999999
1
1
1
1
1
1
1
1
1
1
1
1
1
1
1
1
1
1
1
1
1
1
1
1
1
1
1
1
1
1
1
0.190658
0.913389
0.999162
0.999998
1
1
1
1
1
1
1
1
1
1
1
1
1
1
1
1
1
1
1
1
1
1
1
1
1
1
1
1
1
1
1
1
0.189698
0.911582
0.999111
0.999998
1
1
1
1
1
1
1
1
1
1
1
1
1
1
1
1
1
1
1
1
1
1
1
1
1
1
1
1
1
1
1
1
1
0.188743
0.908247
0.999064
0.999998
1
1
1
1
1
1
1
1
1
1
1
1
1
1
1
1
1
1
1
1
1
1
1
1
1
1
1
1
1
1
1
1
1
1
0.187608
0.905988
0.999004
0.999998
1
1
1
1
1
1
1
1
1
1
1
1
1
1
1
1
1
1
1
1
1
1
1
1
1
1
1
1
1
1
1
1
1
1
1
0.186404
0.905105
0.99895
0.999998
1
1
1
1
1
1
1
1
1
1
1
1
1
1
1
1
1
1
1
1
1
1
1
1
1
1
1
1
1
1
1
1
1
1
1
1
0.185493
0.904505
0.998929
0.999998
1
1
1
1
1
1
1
1
1
1
1
1
1
1
1
1
1
1
1
1
1
1
1
1
1
1
1
1
1
1
1
1
1
1
1
1
1
0.184888
0.902988
0.998908
0.999998
1
1
1
1
1
1
1
1
1
1
1
1
1
1
1
1
1
1
1
1
1
1
1
1
1
1
1
1
1
1
1
1
1
1
1
1
1
1
0.184256
0.901967
0.998865
0.999997
1
1
1
1
1
1
1
1
1
1
1
1
1
1
1
1
1
1
1
1
1
1
1
1
1
1
1
1
1
1
1
1
1
1
1
1
1
1
1
0.183434
0.90043
0.998834
0.999997
1
1
1
1
1
1
1
1
1
1
1
1
1
1
1
1
1
1
1
1
1
1
1
1
1
1
1
1
1
1
1
1
1
1
1
1
1
1
1
1
0.182604
0.898723
0.998789
0.999997
1
1
1
1
1
1
1
1
1
1
1
1
1
1
1
1
1
1
1
1
1
1
1
1
1
1
1
1
1
1
1
1
1
1
1
1
1
1
1
1
1
0.181795
0.897765
0.998728
0.999997
1
1
1
1
1
1
1
1
1
1
1
1
1
1
1
1
1
1
1
1
1
1
1
1
1
1
1
1
1
1
1
1
1
1
1
1
1
1
1
1
1
1
0.181007
0.897326
0.998706
0.999997
1
1
1
1
1
1
1
1
1
1
1
1
1
1
1
1
1
1
1
1
1
1
1
1
1
1
1
1
1
1
1
1
1
1
1
1
1
1
1
1
1
1
1
0.180355
0.896227
0.998699
0.999997
1
1
1
1
1
1
1
1
1
1
1
1
1
1
1
1
1
1
1
1
1
1
1
1
1
1
1
1
1
1
1
1
1
1
1
1
1
1
1
1
1
1
1
1
0.179965
0.895247
0.998666
0.999997
1
1
1
1
1
1
1
1
1
1
1
1
1
1
1
1
1
1
1
1
1
1
1
1
1
1
1
1
1
1
1
1
1
1
1
1
1
1
1
1
1
1
1
1
1
0.17973
0.89479
0.998637
0.999997
1
1
1
1
1
1
1
1
1
1
1
1
1
1
1
1
1
1
1
1
1
1
1
1
1
1
1
1
1
1
1
1
1
1
1
1
1
1
1
1
1
1
1
1
1
1
0.179413
0.894054
0.998626
0.999997
1
1
1
1
1
1
1
1
1
1
1
1
1
1
1
1
1
1
1
1
1
1
1
1
1
1
1
1
1
1
1
1
1
1
1
1
1
1
1
1
1
1
1
1
1
1
0.999559
0.178906
0.893474
0.998618
0.999996
1
1
1
1
1
1
1
1
1
1
1
1
1
1
1
1
1
1
1
1
1
1
1
1
1
1
1
1
1
1
1
1
1
1
1
1
1
1
1
1
1
1
1
1
1
1
1
0.971039
0.178177
0.893062
0.998613
0.999996
1
1
1
1
1
1
1
1
1
1
1
1
1
1
1
1
1
1
1
1
1
1
1
1
1
1
1
1
1
1
1
1
1
1
1
1
1
1
1
1
1
1
1
1
1
1
1
1
0.751929
0.177423
0.89265
0.998593
0.999996
1
1
1
1
1
1
1
1
1
1
1
1
1
1
1
1
1
1
1
1
1
1
1
1
1
1
1
1
1
1
1
1
1
1
1
1
1
1
1
1
1
1
1
1
1
1
1
1
1
0.398062
0.176715
0.8911
0.998573
0.999996
1
1
1
1
1
1
1
1
1
1
1
1
1
1
1
1
1
1
1
1
1
1
1
1
1
1
1
1
1
1
1
1
1
1
1
1
1
1
1
1
1
1
1
1
1
1
1
1
1
0.999985
0.163832
0.176133
0.88986
0.998539
0.999996
1
1
1
1
1
1
1
1
1
1
1
1
1
1
1
1
1
1
1
1
1
1
1
1
1
1
1
1
1
1
1
1
1
1
1
1
1
1
1
1
1
1
1
1
1
1
1
1
1
1
0.981939
0.058861
0.175722
0.88989
0.998516
0.999996
1
1
1
1
1
1
1
1
1
1
1
1
1
1
1
1
1
1
1
1
1
1
1
1
1
1
1
1
1
1
1
1
1
1
1
1
1
1
1
1
1
1
1
1
1
1
1
1
1
1
1
0.700227
0.0190549
0.175492
0.890385
0.998533
0.999996
1
1
1
1
1
1
1
1
1
1
1
1
1
1
1
1
1
1
1
1
1
1
1
1
1
1
1
1
1
1
1
1
1
1
1
1
1
1
1
1
1
1
1
1
1
1
1
1
1
1
1
0.999999
0.281746
0.00555321
0.175422
0.889295
0.998531
0.999996
1
1
1
1
1
1
1
1
1
1
1
1
1
1
1
1
1
1
1
1
1
1
1
1
1
1
1
1
1
1
1
1
1
1
1
1
1
1
1
1
1
1
1
1
1
1
1
1
1
1
1
1
0.984913
0.0882204
0.00146191
0.175319
0.888831
0.998481
0.999996
1
1
1
1
1
1
1
1
1
1
1
1
1
1
1
1
1
1
1
1
1
1
1
1
1
1
1
1
1
1
1
1
1
1
1
1
1
1
1
1
1
0.999999
1
1
1
1
1
1
1
1
1
1
1
0.637948
0.0244096
0.000344183
0.175151
0.888777
0.99849
0.999996
1
1
1
1
1
1
1
1
1
1
1
1
1
1
1
1
1
1
1
1
1
1
1
1
1
1
1
1
1
1
1
1
1
1
1
1
1
1
1
1
1
1
1
1
1
1
1
1
1
1
1
1
1
0.999988
0.207366
0.00601516
7.22897e-05
0.174876
0.888816
0.998492
0.999996
1
1
1
1
1
1
1
1
1
1
1
1
1
1
1
1
1
1
1
1
1
1
1
1
1
1
1
1
1
1
1
1
1
1
1
1
1
1
1
1
1
1
1
1
1
1
1
1
1
1
1
1
1
1
0.934206
0.0525146
0.00127812
1.37773e-05
0.174563
0.889201
0.998501
0.999996
1
1
1
1
1
1
1
1
1
1
1
1
1
1
1
1
1
1
1
1
1
1
1
1
1
1
1
1
1
1
1
1
1
1
1
1
1
1
1
1
1
1
1
1
1
1
1
1
1
1
1
1
1
1
1
0.402547
0.0116311
0.000229766
2.25136e-06
0.174207
0.890991
0.998542
0.999996
1
1
1
1
1
1
1
1
1
1
1
1
1
1
1
1
1
1
1
1
1
1
1
1
1
1
1
1
1
1
1
1
1
1
1
1
1
1
1
1
1
1
1
1
1
1
1
1
1
1
1
1
1
1
1
0.997618
0.0952563
0.00227082
3.47833e-05
4.7101e-07
0.173821
0.890566
0.998596
0.999996
1
1
1
1
1
1
1
1
1
1
1
1
1
1
1
1
1
1
1
1
1
1
1
1
1
1
1
1
1
1
1
1
1
1
1
1
1
1
1
1
1
1
1
1
1
1
1
1
1
1
1
1
1
1
1
1
0.644088
0.0191498
0.000375037
4.06736e-06
5.00854e-08
0.173398
0.888221
0.998585
0.999997
1
1
1
1
1
1
1
1
1
1
1
1
1
1
1
1
1
1
1
1
1
1
1
1
1
1
1
1
1
1
1
1
1
1
1
1
1
1
1
1
1
1
1
1
1
1
1
1
1
1
1
1
1
1
1
1
0.999988
0.154709
0.00337749
5.33411e-05
5.70436e-07
1.50135e-07
0.172978
0.886089
0.99852
0.999997
1
1
1
1
1
1
1
1
1
1
1
1
1
1
1
1
1
1
1
1
1
1
1
1
1
1
1
1
1
1
1
1
1
1
1
1
1
1
1
1
1
1
1
1
1
1
1
1
1
1
1
1
1
1
1
1
1
0.848322
0.0282047
0.000493536
4.90526e-06
2.10705e-09
7.95062e-08
0.172594
0.886235
0.998446
0.999996
1
1
1
1
1
1
1
1
1
1
1
1
1
1
1
1
1
1
1
1
1
1
1
1
1
1
1
1
1
1
1
1
1
1
1
1
1
1
1
1
1
1
1
1
1
1
1
1
1
1
1
1
1
1
1
1
1
1
0.225858
0.00438398
5.65493e-05
2.50284e-07
1.74549e-07
9.47505e-08
0.172232
0.886506
0.998459
0.999996
1
1
1
1
1
1
1
1
1
1
1
1
1
1
1
1
1
1
1
1
1
1
1
1
1
1
1
1
1
1
1
1
1
1
1
1
1
1
1
1
1
1
1
1
1
1
1
1
1
1
1
1
1
1
1
1
1
1
0.951488
0.0367694
0.000512615
4.84873e-06
1.45803e-07
3.55887e-08
5.8475e-08
0.171911
0.886086
0.998465
0.999996
1
1
1
1
1
1
1
1
1
1
1
1
1
1
1
1
1
1
1
1
1
1
1
1
1
1
1
1
1
1
1
1
1
1
1
1
1
1
1
1
1
1
1
1
1
1
1
1
1
1
1
1
1
1
1
1
1
1
1
0.291591
0.00457813
5.15135e-05
1.90149e-07
2.6291e-08
1.49848e-07
5.58672e-08
0.171619
0.885571
0.998452
0.999996
1
1
1
1
1
1
1
1
1
1
1
1
1
1
1
1
1
1
1
1
1
1
1
1
1
1
1
1
1
1
1
1
1
1
1
1
1
1
1
1
1
1
1
1
1
1
1
1
1
1
1
1
1
1
1
1
1
1
1
0.983968
0.0388258
0.000490948
4.06296e-06
3.57374e-07
9.60205e-08
1.03369e-08
1.63897e-08
0.171353
0.885178
0.998403
0.999996
1
1
1
1
1
1
1
1
1
1
1
1
1
1
1
1
1
1
1
1
1
1
1
1
1
1
1
1
1
1
1
1
1
1
1
1
1
1
1
1
1
1
1
1
1
1
1
1
1
1
1
1
1
1
1
1
1
1
1
1
0.318991
0.00446091
4.28206e-05
1.44089e-07
1.19529e-07
3.65888e-08
2.27253e-07
1.3525e-07
0.171107
0.884731
0.998388
0.999996
1
1
1
1
1
1
1
1
1
1
1
1
1
1
1
1
1
1
1
1
1
1
1
1
1
1
1
1
1
1
1
1
1
1
1
1
1
1
1
1
1
1
1
1
1
1
1
1
1
1
1
1
1
1
1
1
1
1
1
1
0.991876
0.0396886
0.000423518
2.54749e-06
2.66398e-07
1.91405e-07
1.47625e-07
1.09869e-07
9.07019e-08
0.170887
0.88553
0.998404
0.999996
1
1
1
1
1
1
1
1
1
1
1
1
1
1
1
1
1
1
1
1
1
1
1
1
1
1
1
1
1
1
1
1
1
1
1
1
1
1
1
1
1
1
1
1
1
1
1
1
1
1
1
1
1
1
1
1
1
1
1
1
1
0.334074
0.00411858
3.06576e-05
9.6176e-08
1.0078e-07
7.01548e-08
4.72837e-08
1.26448e-07
4.69732e-08
0.170654
0.884022
0.998426
0.999996
1
1
1
1
1
1
1
1
1
1
1
1
1
1
1
1
1
1
1
1
1
1
1
1
1
1
1
1
1
1
1
1
1
1
1
1
1
1
1
1
1
1
1
1
1
1
1
1
1
1
1
1
1
1
1
1
1
1
1
1
1
0.9938
0.0384582
0.000343419
1.56905e-06
1.35481e-08
1.53971e-07
7.79425e-08
1.5465e-07
1.1003e-07
5.4774e-08
0.170457
0.882609
0.998377
0.999996
1
1
1
1
1
1
1
1
1
1
1
1
1
1
1
1
1
1
1
1
1
1
1
1
1
1
1
1
1
1
1
1
1
1
1
1
1
1
1
1
1
1
1
1
1
1
1
1
1
1
1
1
1
1
1
1
1
1
1
1
1
1
0.32936
0.00353927
2.07538e-05
2.82728e-08
5.26208e-08
4.26247e-08
1.02742e-07
6.92707e-09
5.34665e-08
4.31925e-09
0.170269
0.883107
0.998329
0.999996
1
1
1
1
1
1
1
1
1
1
1
1
1
1
1
1
1
1
1
1
1
1
1
1
1
1
1
1
1
1
1
1
1
1
1
1
1
1
1
1
1
1
1
1
1
1
1
1
1
1
0.999719
1
1
1
1
1
1
1
1
1
1
1
0.993674
0.0346579
0.000249775
1.14033e-06
9.14463e-08
6.35485e-08
4.86759e-08
3.89151e-08
5.67825e-08
2.09266e-08
1.14172e-08
0.1701
0.882951
0.998346
0.999995
1
1
1
1
1
1
1
1
1
1
1
1
1
1
1
1
1
1
1
1
1
1
1
1
1
1
1
1
1
1
1
1
1
1
1
1
1
1
1
1
1
1
1
1
1
1
1
1
1
1
1
1
1
1
1
1
1
1
1
1
1
1
1
0.306086
0.00276386
1.32745e-05
5.38859e-08
4.29298e-08
8.64499e-08
3.24476e-08
1.08825e-07
3.8197e-08
1.52206e-08
3.59387e-09
0.169944
0.882858
0.998337
0.999996
1
1
1
1
1
1
1
1
1
1
1
1
1
1
1
1
1
1
1
1
1
1
1
1
1
1
1
1
1
1
1
1
1
1
1
1
1
1
1
1
1
1
1
1
1
1
1
1
1
1
1
1
1
1
1
1
1
1
1
1
1
1
1
0.992582
0.0282939
0.000166297
5.70024e-07
4.30982e-08
2.53117e-08
2.07483e-08
6.18965e-08
4.93881e-08
8.67881e-08
1.33638e-08
3.63621e-10
0.169799
0.882626
0.998334
0.999996
1
1
1
1
1
1
1
1
1
1
1
1
1
1
1
1
1
1
1
1
1
1
1
1
1
1
1
1
1
1
1
1
1
1
1
1
1
1
1
1
1
1
1
1
1
1
1
1
1
1
1
1
1
1
1
1
1
1
1
1
1
1
1
1
0.265995
0.00192074
6.35512e-06
4.10584e-08
6.30839e-08
3.55094e-08
6.21414e-08
5.061e-08
8.7885e-08
9.71929e-09
1.85881e-08
6.20099e-09
0.169667
0.882257
0.998324
0.999995
1
1
1
1
1
1
1
1
1
1
1
1
1
1
1
1
1
1
1
1
1
1
1
1
1
1
1
1
1
1
1
1
1
1
1
1
1
1
1
1
1
1
1
1
1
1
1
1
1
1
1
1
1
1
1
1
1
1
1
1
1
1
1
1
0.984611
0.0207055
9.56185e-05
7.46857e-08
5.12408e-08
4.58328e-08
8.21918e-08
6.72022e-08
8.73042e-08
2.55085e-08
2.47794e-08
7.94044e-09
2.63517e-09
0.169541
0.881928
0.998312
0.999995
1
1
1
1
1
1
1
1
1
1
1
1
1
1
1
1
1
1
1
1
1
1
1
1
1
1
1
1
1
1
1
1
1
1
1
1
1
1
1
1
1
1
1
1
1
1
1
1
1
1
1
1
1
1
1
1
1
1
1
1
1
1
1
1
1
0.202977
0.00116035
2.95307e-06
2.74865e-08
6.75773e-08
1.98438e-07
3.30139e-08
2.25683e-08
5.91746e-08
6.76481e-08
9.84506e-09
1.02026e-08
1.82378e-08
0.169427
0.881835
0.998303
0.999995
1
1
1
1
1
1
1
1
1
1
1
1
1
1
1
1
1
1
1
1
1
1
1
1
1
1
1
1
1
1
1
1
1
1
1
1
1
1
1
1
1
1
1
1
1
1
1
1
1
1
1
1
1
1
1
1
1
1
1
1
1
1
1
1
1
0.947822
0.0131092
4.71297e-05
1.43882e-08
4.67809e-08
3.36775e-08
6.65389e-08
3.39455e-08
7.01283e-08
1.02801e-07
3.18779e-08
9.81851e-09
1.13299e-08
3.86828e-09
0.169306
0.881632
0.998299
0.999995
1
1
1
1
1
1
1
1
1
1
1
1
1
1
1
1
1
1
1
1
1
1
1
1
1
1
1
1
1
1
1
1
1
1
1
1
1
1
1
1
1
1
1
1
1
1
1
1
1
1
1
1
1
1
1
1
1
1
1
1
1
1
1
1
1
1
0.129281
0.000596132
1.21627e-06
1.1746e-08
9.0052e-08
1.72595e-08
1.63221e-07
3.3125e-08
9.15892e-09
1.59271e-08
7.44891e-08
3.08019e-08
8.74031e-09
1.31458e-08
0.169192
0.881419
0.99829
0.999995
1
1
1
1
1
1
1
1
1
1
1
1
1
1
1
1
1
1
1
1
1
1
1
1
1
1
1
1
1
1
1
1
1
1
1
1
1
1
1
1
1
1
1
1
1
1
1
1
1
1
1
1
0.999994
1
1
1
1
1
1
1
1
1
1
1
1
1
0.825479
0.00684346
1.91279e-05
1.15233e-08
4.1551e-08
1.73792e-08
4.25517e-08
1.96228e-08
2.79147e-08
4.74836e-08
3.56255e-08
3.18888e-08
1.25654e-08
7.51783e-09
7.4968e-10
0.16907
0.881215
0.998283
0.999995
1
1
1
1
1
1
1
1
1
1
1
1
1
1
1
1
1
1
1
1
1
1
1
1
1
1
1
1
1
1
1
1
1
1
1
1
1
1
1
1
1
1
1
1
1
1
1
1
1
1
1
1
1
1
1
1
1
1
1
1
1
1
1
1
1
1
1
0.0695512
0.00024695
5.95427e-07
3.92532e-08
5.49844e-08
2.27159e-07
2.03251e-08
4.77012e-08
1.98774e-08
3.71996e-09
3.38081e-08
5.25515e-08
9.36667e-09
8.34122e-09
1.81586e-08
0.168953
0.880997
0.998274
0.999995
1
1
1
1
1
1
1
1
1
1
1
1
1
1
1
1
1
1
1
1
1
1
1
1
1
1
1
1
1
1
1
1
1
1
1
1
1
1
1
1
1
1
1
1
1
1
1
1
1
1
1
1
1
1
1
1
1
1
1
1
1
1
1
1
1
1
1
0.566575
0.00294001
6.92537e-06
1.37762e-07
8.48659e-08
1.49601e-07
1.23647e-08
4.37958e-08
5.20196e-08
4.14487e-08
2.273e-08
3.02167e-08
7.81365e-08
2.30866e-08
1.84195e-08
1.94683e-08
0.168833
0.880979
0.998269
0.999995
1
1
1
1
1
1
1
1
1
1
1
1
1
1
1
1
1
1
1
1
1
1
1
1
1
1
1
1
1
1
1
1
1
1
1
1
1
1
1
1
1
1
1
1
1
1
1
1
1
1
1
1
1
1
1
1
1
1
1
1
1
1
1
1
1
1
1
0.99991
0.0310218
8.15825e-05
6.18448e-07
1.41291e-08
5.29142e-08
2.53751e-08
1.17611e-07
5.58186e-08
1.19344e-08
3.96252e-08
1.48007e-08
1.48522e-08
1.91538e-08
7.09881e-09
2.68201e-08
7.99819e-08
0.168712
0.880651
0.998263
0.999995
1
1
1
1
1
1
1
1
1
1
1
1
1
1
1
1
1
1
1
1
1
1
1
1
1
1
1
1
1
1
1
1
1
1
1
1
1
1
1
1
1
1
1
1
1
1
1
1
1
1
1
1
1
1
1
1
1
1
1
1
1
1
1
1
1
1
1
1
0.274534
0.00102929
2.26442e-06
2.05482e-07
1.688e-07
5.70163e-08
8.21295e-08
9.3614e-09
4.4638e-08
1.02174e-07
3.31012e-08
8.36733e-08
2.62295e-08
1.09268e-07
1.93932e-08
7.05496e-08
2.40687e-08
0.168593
0.880301
0.998246
0.999995
1
1
1
1
1
1
1
1
1
1
1
1
1
1
1
1
1
1
1
1
1
1
1
1
1
1
1
1
1
1
1
1
1
1
1
1
1
1
1
1
1
1
1
1
1
1
1
1
1
1
1
1
1
1
1
1
1
1
1
1
1
1
1
1
1
1
1
1
0.978378
0.0109513
2.20167e-05
2.11718e-07
1.41688e-07
1.52657e-08
9.36042e-09
3.06751e-08
6.44783e-08
7.19588e-08
4.98687e-09
6.15533e-09
5.25365e-08
8.22971e-08
4.37731e-08
4.16586e-08
1.59267e-08
5.70549e-08
0.168477
0.880166
0.998231
0.999995
1
1
1
1
1
1
1
1
1
1
1
1
1
1
1
1
1
1
1
1
1
1
1
1
1
1
1
1
1
1
1
1
1
1
1
1
1
1
1
1
1
1
1
1
1
1
1
1
1
1
1
1
1
1
1
1
1
1
1
1
1
1
1
1
1
1
1
1
1
0.10176
0.000279132
2.39965e-07
6.58387e-08
5.65561e-08
7.48703e-08
5.9491e-08
1.24166e-08
3.40057e-09
9.24081e-08
5.69122e-08
7.096e-08
6.26026e-08
2.92174e-08
6.34789e-08
3.51397e-08
6.18214e-08
2.97668e-08
0.168366
0.880037
0.998229
0.999995
1
1
1
1
1
1
1
1
1
1
1
1
1
1
1
1
1
1
1
1
1
1
1
1
1
1
1
1
1
1
1
1
1
1
1
1
1
1
1
1
1
1
1
1
1
1
1
1
1
1
1
1
1
1
1
1
1
1
1
1
1
1
1
1
1
1
1
1
1
0.699403
0.00312902
4.30277e-06
3.70361e-08
4.26037e-08
6.18439e-08
5.32473e-09
2.61214e-08
5.80125e-08
5.47815e-08
3.4015e-08
4.12343e-08
7.06707e-08
5.20801e-08
2.65191e-08
3.41686e-08
2.36452e-08
9.54123e-09
3.33484e-08
0.168264
0.879822
0.998222
0.999995
1
1
1
1
1
1
1
1
1
1
1
1
1
1
1
1
1
1
1
1
1
1
1
1
1
1
1
1
1
1
1
1
1
1
1
1
1
1
1
1
1
1
1
1
1
1
1
1
1
1
1
1
1
1
1
1
1
1
1
1
1
1
1
1
1
1
1
1
1
0.999994
0.0303751
6.12849e-05
2.32216e-08
7.50559e-08
3.65661e-08
1.78369e-08
7.10959e-08
6.88427e-08
6.81883e-08
1.9588e-08
2.14299e-07
8.96426e-08
5.14144e-08
1.66896e-08
4.19812e-08
3.29466e-08
3.71856e-08
4.09382e-08
1.78773e-08
0.168159
0.87936
0.998208
0.999995
1
1
1
1
1
1
1
1
1
1
1
1
1
1
1
1
1
1
1
1
1
1
1
1
1
1
1
1
1
1
1
1
1
1
1
1
1
1
1
1
1
1
1
1
1
1
1
1
1
1
1
1
1
1
1
1
1
1
1
1
1
1
1
1
1
1
1
1
1
1
0.25684
0.000700952
1.07536e-06
5.21526e-08
3.90731e-09
1.44844e-08
4.76193e-08
3.51124e-08
2.48076e-08
3.03611e-08
1.66525e-07
8.34028e-08
5.68033e-08
9.223e-08
1.44511e-08
1.82036e-08
2.1822e-08
1.54397e-08
1.39243e-08
1.31294e-08
0.168081
0.87916
0.998194
0.999995
1
1
1
1
1
1
1
1
1
1
1
1
1
1
1
1
1
1
1
1
1
1
1
1
1
1
1
1
1
1
1
1
1
1
1
1
1
1
1
1
1
1
1
1
1
1
1
1
1
1
1
1
1
1
1
1
1
1
1
1
1
1
1
1
1
1
1
1
1
1
0.969351
0.00707885
1.13035e-05
3.50306e-08
1.7432e-08
6.91084e-08
5.63407e-09
9.75509e-09
7.92363e-09
3.15463e-08
2.00355e-07
5.9939e-08
1.02781e-07
8.34823e-08
2.19518e-09
3.585e-08
8.04508e-08
3.70668e-08
2.44304e-08
2.54593e-08
1.71397e-08
0.167885
0.87907
0.998187
0.999995
1
1
1
1
1
1
1
1
1
1
1
1
1
1
1
1
1
1
1
1
1
1
1
1
1
1
1
1
1
1
1
1
1
1
1
1
1
1
1
1
1
1
1
1
1
1
1
1
1
1
1
1
1
1
1
1
1
1
1
1
1
1
1
1
1
1
1
1
1
1
1
0.0650606
0.000117649
3.23116e-07
8.13914e-08
2.4718e-08
1.65889e-08
3.28631e-08
6.56899e-08
3.00011e-08
4.30447e-08
3.32695e-08
9.1637e-08
8.42661e-08
1.16839e-08
3.35706e-08
1.27509e-08
2.42407e-08
1.4802e-08
1.85123e-08
3.39464e-09
1.3933e-09
0.162264
0.878698
0.998179
0.999995
1
1
1
1
1
1
1
1
1
1
1
1
1
1
1
1
1
1
1
1
1
1
1
1
1
1
1
1
1
1
1
1
1
1
1
1
1
1
1
1
1
1
1
1
1
1
1
1
1
1
1
1
1
1
1
1
1
1
1
1
1
1
1
1
1
1
1
1
1
1
1
0.508119
0.00126344
1.52731e-06
4.21634e-08
3.64952e-08
9.4099e-08
3.18656e-08
7.90177e-08
6.25682e-08
2.81327e-08
7.92116e-08
1.27588e-07
8.03672e-08
1.42133e-08
2.71955e-08
6.24323e-09
3.59074e-08
5.41781e-08
4.52851e-09
1.22775e-08
7.31778e-09
4.65895e-09
0.0993018
0.869781
0.998159
0.999995
1
1
1
1
1
1
1
1
1
1
1
1
1
1
1
1
1
1
1
1
1
1
1
1
1
1
1
1
1
1
1
1
1
1
1
1
1
1
1
1
1
1
1
1
1
1
1
1
1
1
1
1
1
1
0.999978
1
1
1
1
1
1
1
1
1
1
1
1
1
1
1
1
0.999294
0.0129344
1.44458e-05
6.22484e-08
3.048e-08
5.65463e-08
2.08967e-08
2.53363e-08
2.77544e-08
7.86911e-08
4.86514e-08
8.8033e-09
3.66872e-08
7.83079e-09
3.63926e-08
4.29617e-08
4.85633e-08
3.30048e-08
4.00319e-08
2.64614e-09
3.3226e-09
7.57534e-09
1.14683e-08
0.0668699
0.70895
0.997873
0.999995
1
1
1
1
1
1
1
1
1
1
1
1
1
1
1
1
1
1
1
1
1
1
1
1
1
1
1
1
1
1
1
1
1
1
1
1
1
1
1
1
1
1
1
1
1
1
1
1
1
1
1
1
1
1
1
1
1
1
1
1
1
1
1
1
1
1
1
1
1
1
1
1
0.112298
0.000172616
1.94215e-07
3.57034e-08
2.71934e-08
2.45785e-08
7.44924e-08
2.26819e-08
1.46377e-07
6.17781e-08
2.0136e-08
4.12755e-09
2.21496e-08
5.58312e-08
5.16872e-08
4.71578e-08
4.08374e-08
3.16726e-08
5.08511e-08
1.85991e-09
4.10282e-09
1.47621e-08
1.28016e-08
0.16934
0.333302
0.985376
0.999993
1
1
1
1
1
1
1
1
1
1
1
1
1
1
1
1
1
1
1
1
1
1
1
1
1
1
1
1
1
1
1
1
1
1
1
1
1
1
1
1
1
1
1
1
1
1
1
1
1
1
1
1
1
1
1
1
1
1
1
1
1
1
1
1
1
1
1
1
1
1
1
1
0.705267
0.00196135
1.03444e-06
1.94398e-08
1.88854e-08
1.71214e-08
9.32271e-09
2.96575e-08
4.62874e-08
4.20982e-08
6.29768e-08
2.73906e-08
2.41736e-08
7.84036e-08
4.78999e-08
2.83522e-08
2.3444e-08
2.28269e-08
5.04188e-08
6.62715e-09
4.94792e-09
2.49082e-08
1.30784e-08
0.194716
0.816581
0.380128
0.999879
1
1
1
1
1
1
1
1
1
1
1
1
1
1
1
1
1
1
1
1
1
1
1
1
1
1
1
1
1
1
1
1
1
1
1
1
1
1
1
1
1
1
1
1
1
1
1
1
1
1
1
1
1
1
1
1
1
1
1
1
1
1
1
1
1
1
1
1
1
1
1
1
0.999976
0.0185449
1.89058e-05
5.95208e-08
1.00969e-07
3.56938e-08
4.43885e-09
2.62795e-08
5.94103e-08
3.51072e-08
6.43963e-08
1.50732e-08
9.50871e-08
6.19664e-08
8.48843e-09
7.73714e-09
1.59432e-08
8.89692e-09
1.05627e-07
7.92962e-08
5.06204e-08
3.80293e-08
1.35329e-08
0.204121
0.872546
0.982038
0.294019
1
1
1
1
1
1
1
1
1
1
1
1
1
1
1
1
1
1
1
1
1
1
1
1
1
1
1
1
1
1
1
1
1
1
1
1
1
1
1
1
1
1
1
1
1
1
1
1
1
1
1
1
1
1
1
1
1
1
1
1
1
1
1
1
1
1
1
1
1
1
1
1
1
0.142108
0.000246578
5.80636e-08
6.09318e-08
4.78639e-09
4.19023e-08
3.59343e-09
7.81997e-08
5.4274e-08
2.58577e-08
1.63073e-08
1.13255e-07
1.03663e-07
4.29799e-08
7.03844e-08
5.36471e-08
7.38711e-08
1.29157e-08
3.44406e-08
3.17971e-08
3.90503e-08
3.72411e-08
0.210448
0.887161
0.993352
0.997356
0.932718
1
1
1
1
1
1
1
1
1
1
1
1
1
1
1
1
1
1
1
1
1
1
1
1
1
1
1
1
1
1
1
1
1
1
1
1
1
1
1
1
1
1
1
1
1
1
1
1
1
1
1
1
1
1
1
1
1
1
1
1
1
1
1
1
1
1
1
1
1
1
1
1
0.750225
0.00229783
2.77365e-06
1.86102e-07
1.70922e-08
1.08053e-07
3.30412e-08
3.94817e-09
5.8343e-08
1.02625e-07
2.34206e-08
1.59439e-07
7.27937e-08
5.21811e-08
6.38538e-08
4.33222e-08
3.58927e-08
2.00364e-08
2.11941e-09
3.93838e-08
1.02883e-07
2.70149e-08
0.218716
0.896265
0.995119
0.999591
0.997974
0.999541
1
1
1
1
1
1
1
1
1
1
1
1
1
1
1
1
1
1
1
1
1
1
1
1
1
1
1
1
1
1
1
1
1
1
1
1
1
1
1
1
1
1
1
1
1
1
1
1
1
1
1
1
1
1
1
1
1
1
1
1
1
1
1
1
1
1
1
1
1
1
1
0.999982
0.0174071
2.62489e-05
2.01682e-08
4.57654e-08
1.12636e-07
3.94582e-08
1.4986e-08
6.39547e-08
5.50367e-08
8.92384e-08
1.59022e-07
7.71785e-08
2.10739e-07
1.01195e-07
7.35273e-08
8.65682e-08
2.19709e-08
4.03081e-08
6.23751e-08
9.91739e-08
9.14184e-08
0.2259
0.905995
0.996067
0.999765
0.999931
0.995494
0.999999
1
1
1
1
1
1
1
1
1
1
1
1
1
1
1
1
1
1
1
1
1
1
1
1
1
1
1
1
1
1
1
1
1
1
1
1
1
1
1
1
1
1
1
1
1
1
1
1
1
1
1
1
1
1
1
1
1
1
1
1
1
1
1
1
1
1
1
1
1
1
1
0.122754
0.000215918
2.60651e-07
4.71455e-08
1.94463e-07
3.6376e-08
2.8748e-08
3.43322e-08
5.99535e-08
2.77805e-08
5.74522e-08
1.25155e-07
2.4772e-07
7.53596e-08
6.31469e-08
4.87525e-08
3.51658e-08
4.81359e-08
6.01378e-08
3.84606e-08
1.15775e-07
0.231895
0.913494
0.996804
0.99984
0.99997
0.999938
0.938405
1
1
1
1
1
1
1
1
1
1
1
1
1
1
1
1
1
1
1
1
1
1
1
1
1
1
1
1
1
1
1
1
1
1
1
1
1
1
1
1
1
1
1
1
1
1
1
1
1
1
1
1
1
1
1
1
1
1
1
1
1
1
1
1
1
1
1
1
1
1
1
0.661276
0.00165219
2.33303e-06
1.05608e-07
1.02074e-07
1.36453e-08
1.36724e-07
9.5047e-08
1.03387e-07
5.71965e-08
9.98246e-08
2.51497e-07
2.48758e-07
2.79856e-08
7.76803e-08
1.9796e-08
9.9129e-08
4.90428e-08
4.02675e-08
8.28523e-08
1.29066e-08
0.237989
0.919403
0.997306
0.999883
0.999983
0.999981
0.999653
0.661958
1
1
1
1
1
1
1
1
1
1
1
1
1
1
1
1
1
1
1
1
1
1
1
1
1
1
1
1
1
1
1
1
1
1
1
1
1
1
1
1
1
1
1
1
1
1
1
1
1
1
1
1
1
1
1
1
1
1
1
1
1
1
1
1
1
1
1
1
1
1
0.999799
0.0113778
1.78484e-05
2.37032e-07
3.47029e-08
6.5462e-08
1.83048e-07
9.52995e-08
4.30305e-08
3.74035e-08
5.49728e-08
1.1792e-07
9.35879e-08
2.82673e-08
1.12204e-07
7.60956e-08
9.44796e-08
2.30798e-08
6.38444e-08
5.74887e-08
8.66095e-08
0.244271
0.924924
0.997667
0.999908
0.999988
0.99999
0.999922
0.993176
0.992623
1
1
1
1
1
1
1
1
1
1
1
1
1
1
1
1
1
1
1
1
1
1
1
1
1
1
1
1
1
1
1
1
1
1
1
1
1
1
1
1
1
1
1
1
1
1
1
1
1
1
1
1
1
1
1
1
1
1
1
1
1
1
1
1
1
1
1
1
1
1
0.0739402
0.000138519
7.18259e-08
2.14847e-07
5.99241e-08
9.77714e-08
5.59571e-08
7.62485e-08
5.24158e-08
4.15823e-08
4.11682e-08
1.30069e-07
1.06652e-07
1.20571e-07
7.29426e-08
4.43705e-08
2.05145e-08
1.02829e-07
9.81955e-08
1.03603e-07
0.250918
0.930309
0.997977
0.999924
0.999991
0.999993
0.999964
0.998937
0.839492
0.999823
1
1
1
1
1
1
1
1
1
1
1
1
1
1
1
1
1
1
1
1
1
1
1
1
1
1
1
1
1
1
1
1
1
1
1
1
1
1
1
1
1
1
1
1
1
1
1
1
1
1
1
1
1
1
1
1
1
1
1
1
1
1
1
1
1
1
1
1
1
0.44708
0.000776105
1.82562e-06
2.03966e-07
1.55168e-08
3.33546e-08
3.56804e-08
6.1312e-08
1.99371e-08
8.40938e-08
1.57283e-07
1.17608e-07
6.15355e-08
1.37538e-07
9.08747e-08
1.18428e-08
1.99006e-08
9.48848e-08
8.50716e-08
5.05382e-08
0.25771
0.93544
0.998264
0.999938
0.999993
0.999995
0.999975
0.999553
0.98188
0.215943
0.999992
1
1
1
1
1
1
1
1
1
1
1
1
1
1
1
1
1
1
1
1
1
1
1
1
1
1
1
1
1
1
1
1
1
1
1
1
1
1
1
1
1
1
1
1
1
1
1
1
1
1
1
1
1
1
1
1
1
1
1
1
1
1
1
1
1
1
1
1
0.990076
0.00461608
1.33015e-05
1.37211e-07
3.52863e-08
1.26793e-07
4.56215e-08
4.93975e-08
1.77446e-07
6.90257e-08
7.10384e-08
5.70034e-08
9.85681e-08
1.25384e-07
3.42171e-08
1.2812e-08
3.72582e-08
9.18025e-08
3.72994e-08
1.08516e-07
0.264501
0.940453
0.998509
0.999949
0.999994
0.999995
0.999979
0.999698
0.993118
0.822539
0.779313
0.999999
1
1
1
1
1
1
1
1
1
1
1
1
1
1
1
1
1
1
1
1
1
1
1
1
1
1
1
1
1
1
1
1
1
1
1
1
1
1
1
1
1
1
1
1
1
1
1
1
1
1
1
1
1
1
1
1
1
1
1
1
1
1
1
1
1
1
1
1
0.0290976
6.04455e-05
3.18696e-07
4.15818e-08
1.92499e-07
7.6778e-08
1.87381e-08
1.31472e-07
2.21411e-08
6.21641e-08
6.4348e-08
1.39862e-07
6.45368e-08
7.72571e-08
5.95491e-08
6.30259e-08
7.77437e-08
4.30299e-08
4.9918e-08
0.270972
0.945061
0.998727
0.999959
0.999995
0.999996
0.999982
0.999744
0.995607
0.933537
0.308637
0.937319
1
1
1
1
1
1
1
1
1
1
1
1
1
1
1
1
1
1
1
1
1
1
1
1
1
1
1
1
1
1
1
1
1
1
1
1
1
1
1
1
1
1
1
1
1
1
1
1
1
1
1
1
1
1
1
1
1
1
1
1
1
1
1
1
1
1
1
1
0.185709
0.0002235
1.54501e-06
1.60536e-08
1.57713e-07
2.46742e-08
2.98131e-08
1.05156e-07
2.86025e-08
1.08174e-07
7.33085e-08
1.568e-07
3.71021e-08
6.91927e-08
2.33362e-08
2.05311e-08
8.94242e-09
1.5006e-07
2.90234e-08
0.277064
0.949169
0.998911
0.999966
0.999996
0.999997
0.999984
0.99978
0.996435
0.959316
0.690407
0.289102
0.977687
1
1
1
1
1
1
1
1
1
1
1
1
1
1
1
1
1
1
1
1
1
1
1
1
1
1
1
1
1
1
1
1
1
1
1
1
1
1
1
1
1
1
1
1
1
1
1
1
1
1
1
1
1
1
1
1
1
1
1
1
1
1
1
1
1
1
1
0.811534
0.000970556
6.88854e-06
1.09089e-07
1.51382e-07
2.29111e-08
1.27646e-07
7.10935e-08
9.98693e-08
1.11555e-07
5.41232e-08
8.37518e-08
3.15598e-08
2.97311e-08
2.7441e-08
2.93368e-08
8.95433e-08
2.48448e-07
5.55973e-08
0.282714
0.952898
0.999061
0.999973
0.999997
0.999997
0.999985
0.999804
0.997024
0.968529
0.805975
0.271707
0.603196
0.991271
1
1
1
1
1
1
1
1
1
1
1
1
1
1
1
1
1
1
1
1
1
1
1
1
1
1
1
1
1
1
1
1
1
1
1
1
1
1
1
1
1
1
1
1
1
1
1
1
1
1
1
1
1
1
1
1
1
1
1
1
1
1
1
1
1
1
0.999986
0.00720207
1.62807e-05
4.14185e-07
1.36822e-07
2.17209e-08
5.64965e-08
3.67641e-08
1.00915e-07
5.9697e-08
7.4439e-08
4.30823e-08
3.18645e-08
5.7469e-08
6.3203e-08
4.33666e-08
7.00062e-08
1.87429e-07
1.77295e-07
0.287983
0.956009
0.99919
0.999977
0.999997
0.999998
0.999987
0.999823
0.997413
0.974474
0.852155
0.499397
0.144723
0.763523
0.996675
1
1
1
1
1
1
1
1
1
1
1
1
1
1
1
1
1
1
1
1
1
1
1
1
1
1
1
1
1
1
1
1
1
1
1
1
1
1
1
1
1
1
1
1
1
1
1
1
1
1
1
1
1
1
1
1
1
1
1
1
1
1
1
1
1
1
0.0559946
2.6302e-05
8.61842e-07
3.99152e-08
1.61214e-08
1.15561e-07
1.74675e-08
7.69774e-08
4.38001e-08
1.48209e-07
5.33645e-08
4.9037e-08
3.40794e-08
4.59665e-08
1.70472e-08
8.04333e-08
9.23828e-08
2.00157e-07
0.292947
0.958804
0.999293
0.999981
0.999998
0.999998
0.999988
0.999834
0.997681
0.978307
0.880891
0.608022
0.16408
0.392586
0.85153
0.998893
1
1
1
1
1
1
1
1
1
1
1
1
1
1
1
1
1
1
1
1
1
1
1
1
1
1
1
1
1
1
1
1
1
1
1
1
1
1
1
1
1
1
1
1
1
1
1
1
1
1
1
1
1
1
1
1
1
1
1
1
1
1
1
1
1
0.332392
7.16938e-05
1.60521e-06
1.00181e-07
4.77394e-08
4.20857e-08
1.16989e-08
6.46148e-08
4.91354e-08
1.54082e-07
2.71382e-08
2.99139e-08
2.98774e-08
3.75735e-08
2.60856e-09
6.77517e-08
6.93559e-08
1.33338e-07
0.297758
0.961396
0.999379
0.999984
0.999998
0.999998
0.999989
0.999843
0.997849
0.980853
0.899458
0.677696
0.311521
0.132934
0.557061
0.905802
0.999705
1
1
1
1
1
1
1
1
1
1
1
1
1
1
1
1
1
1
1
1
1
1
1
1
1
1
1
1
1
1
1
1
1
1
1
1
1
1
1
1
1
1
1
1
1
1
1
1
1
1
1
1
1
1
1
1
1
1
1
1
1
1
1
1
0.929262
0.000975025
4.36312e-06
2.0887e-07
2.44803e-08
3.03633e-08
3.32939e-08
2.97239e-08
6.51709e-08
1.43068e-07
2.2947e-08
4.38325e-08
3.33677e-08
1.88336e-08
9.75279e-09
6.62106e-08
1.03092e-07
7.30904e-08
0.302629
0.963788
0.999457
0.999987
0.999998
0.999998
0.99999
0.999851
0.997975
0.982525
0.911812
0.724358
0.41437
0.0656962
0.31806
0.668169
0.941882
0.999943
1
1
1
1
1
1
1
1
1
1
1
1
1
1
1
1
1
1
1
1
1
1
1
1
1
1
1
1
1
1
1
1
1
1
1
1
1
1
1
1
1
1
1
1
1
1
1
1
1
1
1
1
1
1
1
1
1
1
1
1
1
1
1
0.999999
0.00860653
9.4552e-06
3.45922e-07
4.15453e-08
1.16306e-08
2.74356e-08
5.17766e-08
4.58974e-08
5.24416e-08
2.11953e-08
5.66451e-08
3.13324e-08
4.92501e-08
1.46944e-08
9.62844e-09
1.33416e-07
5.84325e-08
0.307791
0.966101
0.999525
0.999989
0.999999
0.999999
0.999991
0.999859
0.998076
0.983736
0.920079
0.756362
0.487018
0.17085
0.156586
0.453624
0.749164
0.966461
0.999993
1
1
1
1
1
1
1
1
1
1
1
1
1
1
1
1
1
1
1
1
1
1
1
1
1
1
1
1
1
1
1
1
1
1
1
1
1
1
1
1
1
1
1
1
1
1
1
1
1
1
1
1
1
1
1
1
1
1
1
1
1
1
1
0.0536613
1.40001e-05
7.45339e-07
6.93e-08
1.66003e-08
3.66657e-08
1.05375e-07
2.4174e-08
6.57789e-08
2.48763e-08
6.28083e-08
7.10587e-08
4.40946e-08
1.25432e-08
1.01743e-08
1.20876e-07
7.20583e-08
0.313443
0.968424
0.999587
0.999991
0.999999
0.999999
0.999992
0.99987
0.998178
0.984667
0.92614
0.778386
0.539026
0.255677
0.0550758
0.299364
0.555539
0.812384
0.982591
1
1
1
1
1
1
1
1
1
1
1
1
1
1
1
1
1
1
1
1
1
1
1
1
1
1
1
1
1
1
1
1
1
1
1
1
1
1
1
1
1
1
1
1
1
1
1
1
1
1
1
1
1
1
1
1
1
1
1
1
1
1
1
0.279883
8.32266e-05
1.27265e-06
2.62296e-07
1.11216e-07
4.78158e-08
1.04043e-07
2.03386e-08
4.08689e-08
8.1775e-09
5.35057e-08
4.01633e-08
3.49635e-08
3.91809e-09
6.05311e-08
1.0257e-07
7.18513e-08
0.319749
0.970803
0.999645
0.999993
0.999999
0.999999
0.999993
0.999883
0.99831
0.985559
0.930762
0.794857
0.576501
0.318938
0.0743189
0.187361
0.409406
0.636594
0.863546
0.992204
1
1
1
1
1
1
1
1
1
1
1
1
1
1
1
1
1
1
1
1
1
1
1
1
1
1
1
1
1
1
1
1
1
1
1
1
1
1
1
1
1
1
1
1
1
1
1
1
1
1
1
1
1
1
1
1
1
1
1
1
1
1
0.858106
0.000576286
8.11741e-06
3.38332e-07
6.12925e-08
3.19751e-08
4.52055e-08
5.30757e-08
6.3704e-08
1.62931e-08
2.34112e-08
3.54457e-08
1.06938e-07
4.42797e-08
2.44592e-08
2.62314e-08
9.94491e-08
0.326807
0.973229
0.999699
0.999994
0.999999
0.999999
0.999994
0.999898
0.998466
0.986583
0.934929
0.807577
0.6048
0.366531
0.135066
0.105338
0.301018
0.497664
0.704732
0.905538
0.997172
1
1
1
1
1
1
1
1
1
1
1
1
1
1
1
1
1
1
1
1
1
1
1
1
1
1
1
1
1
1
1
1
1
1
1
1
1
1
1
1
1
1
1
1
1
1
1
1
1
1
1
1
1
1
1
1
1
1
1
1
1
0.999899
0.00531397
2.7861e-05
1.24095e-07
1.40062e-07
2.81752e-08
6.7028e-08
4.36205e-08
9.58415e-08
1.13802e-08
1.32902e-08
4.03334e-08
1.07083e-07
4.6648e-08
6.19622e-08
1.42723e-08
3.52087e-08
0.334672
0.975687
0.999748
0.999995
0.999999
0.999999
0.999995
0.999913
0.998639
0.987722
0.939319
0.818774
0.627206
0.403482
0.184997
0.0564395
0.217548
0.392941
0.572057
0.764564
0.939115
0.999229
1
1
1
1
1
1
1
1
1
1
1
1
1
1
1
1
1
1
1
1
1
1
1
1
1
1
1
1
1
1
1
1
1
1
1
1
1
1
1
1
1
1
1
1
1
1
1
1
1
1
1
1
1
1
1
1
1
1
1
1
1
0.031058
7.01697e-05
1.69156e-06
1.38021e-07
1.10269e-08
7.08677e-08
2.76253e-08
5.05741e-08
1.03993e-08
1.33776e-08
2.76611e-08
3.8576e-08
4.38465e-08
1.00368e-07
4.86462e-08
1.27233e-08
0.34332
0.978138
0.999793
0.999996
1
1
0.999996
0.999928
0.998825
0.988972
0.94396
0.829682
0.646517
0.432731
0.225326
0.0587134
0.154195
0.311341
0.470226
0.637879
0.817812
0.964323
0.99986
1
1
1
1
1
1
1
1
1
1
1
1
1
1
1
1
1
1
1
1
1
1
1
1
1
1
1
1
1
1
1
1
1
1
1
1
1
1
1
1
1
1
1
1
1
1
1
1
1
1
1
1
1
1
1
1
1
1
1
1
0.143568
0.000180553
5.29933e-06
1.1837e-07
2.58716e-08
6.96326e-08
6.04497e-08
3.43916e-08
3.00776e-08
4.97964e-08
3.91799e-08
4.77408e-08
1.21151e-07
1.23351e-07