/*--------------------------------*- C++ -*----------------------------------*\
| =========                 |                                                 |
| \\      /  F ield         | OpenFOAM: The Open Source CFD Toolbox           |
|  \\    /   O peration     | Version:  v2012                                 |
|   \\  /    A nd           | Website:  www.openfoam.com                      |
|    \\/     M anipulation  |                                                 |
\*---------------------------------------------------------------------------*/
FoamFile
{
    version     2.0;
    format      ascii;
    class       volScalarField;
    location    "13200";
    object      Rew;
}
// * * * * * * * * * * * * * * * * * * * * * * * * * * * * * * * * * * * * * //

dimensions      [0 0 0 0 0 0 0];


internalField   nonuniform List<scalar> 
39402
(
0.707423
0.382587
0.999985
0.206288
0.994562
1
0.196603
0.919951
0.999997
1
0.206505
0.911253
0.999079
1
1
0.218134
0.923185
0.99893
0.999997
1
1
0.226551
0.935751
0.999277
0.999997
1
1
1
0.232175
0.943811
0.99955
0.999999
1
1
1
1
0.2345
0.948691
0.999683
0.999999
1
1
1
1
1
0.234926
0.951165
0.999751
1
1
1
1
1
1
1
0.234247
0.951778
0.999782
1
1
1
1
1
1
1
1
0.232865
0.951646
0.999791
1
1
1
1
1
1
1
1
1
0.23109
0.950872
0.999791
1
1
1
1
1
1
1
1
1
1
0.228977
0.95039
0.999787
1
1
1
1
1
1
1
1
1
1
1
0.226877
0.949567
0.999784
1
1
1
1
1
1
1
1
1
1
1
1
0.22483
0.948159
0.999773
1
1
1
1
1
1
1
1
1
1
1
1
1
0.22278
0.946701
0.999757
1
1
1
1
1
1
1
1
1
1
1
1
1
1
0.220711
0.945218
0.99974
1
1
1
1
1
1
1
1
1
1
1
1
1
1
1
0.21858
0.943636
0.999721
1
1
1
1
1
1
1
1
1
1
1
1
1
1
1
1
0.216222
0.94117
0.9997
1
1
1
1
1
1
1
1
1
1
1
1
1
1
1
1
1
0.214189
0.939856
0.99967
1
1
1
1
1
1
1
1
1
1
1
1
1
1
1
1
1
1
0.212551
0.939802
0.999647
1
1
1
1
1
1
1
1
1
1
1
1
1
1
1
1
1
1
1
0.210392
0.937306
0.999634
1
1
1
1
1
1
1
1
1
1
1
1
1
1
1
1
1
1
1
1
0.20856
0.935176
0.99961
1
1
1
1
1
1
1
1
1
1
1
1
1
1
1
1
1
1
1
1
1
0.206747
0.933302
0.999575
1
1
1
1
1
1
1
1
1
1
1
1
1
1
1
1
1
1
1
1
1
1
0.205035
0.929518
0.999542
0.999999
1
1
1
1
1
1
1
1
1
1
1
1
1
1
1
1
1
1
1
1
1
1
0.203298
0.928371
0.999486
0.999999
1
1
1
1
1
1
1
1
1
1
1
1
1
1
1
1
1
1
1
1
1
1
1
0.201703
0.928157
0.99945
0.999999
1
1
1
1
1
1
1
1
1
1
1
1
1
1
1
1
1
1
1
1
1
1
1
1
0.200045
0.925153
0.999428
0.999999
1
1
1
1
1
1
1
1
1
1
1
1
1
1
1
1
1
1
1
1
1
1
1
1
1
0.198555
0.922077
0.999389
0.999999
1
1
1
1
1
1
1
1
1
1
1
1
1
1
1
1
1
1
1
1
1
1
1
1
1
1
0.19704
0.920087
0.999341
0.999999
1
1
1
1
1
1
1
1
1
1
1
1
1
1
1
1
1
1
1
1
1
1
1
1
1
1
1
0.195827
0.918761
0.999298
0.999999
1
1
1
1
1
1
1
1
1
1
1
1
1
1
1
1
1
1
1
1
1
1
1
1
1
1
1
1
0.194483
0.916994
0.999261
0.999999
1
1
1
1
1
1
1
1
1
1
1
1
1
1
1
1
1
1
1
1
1
1
1
1
1
1
1
1
1
0.193032
0.915711
0.99922
0.999999
1
1
1
1
1
1
1
1
1
1
1
1
1
1
1
1
1
1
1
1
1
1
1
1
1
1
1
1
1
1
0.191764
0.91547
0.999183
0.999999
1
1
1
1
1
1
1
1
1
1
1
1
1
1
1
1
1
1
1
1
1
1
1
1
1
1
1
1
1
1
1
0.190658
0.913389
0.999162
0.999998
1
1
1
1
1
1
1
1
1
1
1
1
1
1
1
1
1
1
1
1
1
1
1
1
1
1
1
1
1
1
1
1
0.189698
0.911582
0.999111
0.999998
1
1
1
1
1
1
1
1
1
1
1
1
1
1
1
1
1
1
1
1
1
1
1
1
1
1
1
1
1
1
1
0.999872
1
0.188743
0.908247
0.999064
0.999998
1
1
1
1
1
1
1
1
1
1
1
1
1
1
1
1
1
1
1
1
1
1
1
1
1
1
1
1
1
1
1
1
1
1
0.187608
0.905988
0.999004
0.999998
1
1
1
1
1
1
1
1
1
1
1
1
1
1
1
1
1
1
1
1
1
1
1
1
1
1
1
1
1
1
1
1
1
1
1
0.186404
0.905105
0.99895
0.999998
1
1
1
1
1
1
1
1
1
1
1
1
1
1
1
1
1
1
1
1
1
1
1
1
1
1
1
1
1
1
1
1
1
1
1
1
0.185493
0.904505
0.998929
0.999998
1
1
1
1
1
1
1
1
1
1
1
1
1
1
1
1
1
1
1
1
1
1
1
1
1
1
1
1
1
1
1
1
1
1
1
1
1
0.184888
0.902988
0.998908
0.999998
1
1
1
1
1
1
1
1
1
1
1
1
1
1
1
1
1
1
1
1
1
1
1
1
1
1
1
1
1
1
1
1
1
1
1
1
1
1
0.184256
0.901967
0.998865
0.999997
1
1
1
1
1
1
1
1
1
1
1
1
1
1
1
1
1
1
1
1
1
1
1
1
1
1
1
1
1
1
1
1
1
1
0.999999
1
0.114619
0.999999
1
0.183434
0.90043
0.998834
0.999997
1
1
1
1
1
1
1
1
1
1
1
1
1
1
1
1
1
1
1
1
1
1
1
1
1
1
1
1
1
1
1
1
1
1
1
1
1
1
1
1
0.182604
0.898723
0.998789
0.999997
1
1
1
1
1
1
1
1
1
1
1
1
1
1
1
1
1
1
1
1
1
1
1
1
1
1
1
1
1
1
1
1
1
1
1
1
1
1
1
1
1
0.181795
0.897765
0.998728
0.999997
1
1
1
1
1
1
1
1
1
1
1
1
1
1
1
1
1
1
1
1
1
1
1
1
1
1
1
1
1
1
1
1
1
1
1
1
1
1
0.837204
1
1
1
0.181007
0.897326
0.998706
0.999997
1
1
1
1
1
1
1
1
1
1
1
1
1
1
1
1
1
1
1
1
1
1
1
1
1
1
1
1
1
1
1
1
1
1
1
1
1
1
1
1
1
1
1
0.180355
0.896227
0.998699
0.999997
1
1
1
1
1
1
1
1
1
1
1
1
1
1
1
1
1
1
1
1
1
1
1
1
1
1
1
1
1
1
1
1
1
1
1
1
1
1
1
1
1
1
1
0.996657
0.179965
0.895247
0.998666
0.999997
1
1
1
1
1
1
1
1
1
1
1
1
1
1
1
1
1
1
1
1
1
1
1
1
1
1
1
1
1
1
1
1
1
1
1
1
1
1
0.999997
1
1
1
1
1
0.971873
0.17973
0.89479
0.998637
0.999997
1
1
1
1
1
1
1
1
1
1
1
1
1
1
1
1
1
1
1
1
1
1
1
1
1
1
1
1
1
1
1
1
1
1
1
1
1
1
1
1
1
1
1
1
1
0.98471
0.179413
0.894055
0.998626
0.999997
1
1
1
1
1
1
1
1
1
1
1
1
1
1
1
1
1
1
1
1
1
1
1
1
1
1
1
1
1
1
1
1
1
1
1
1
1
1
0.99965
1
1
1
1
1
1
1
0.860859
0.178906
0.893474
0.998618
0.999996
1
1
1
1
1
1
1
1
1
1
1
1
1
1
1
1
1
1
1
1
1
1
1
1
1
1
1
1
1
1
1
1
1
1
1
1
1
1
1
1
1
1
1
1
1
1
0.999989
0.565494
0.178177
0.893062
0.998613
0.999996
1
1
1
1
1
1
1
1
1
1
1
1
1
1
1
1
1
1
1
1
1
1
1
1
1
1
1
1
1
1
1
1
1
1
1
1
1
1
1
0.999951
1
1
1
1
1
1
1
0.99258
0.288613
0.177423
0.89265
0.998593
0.999996
1
1
1
1
1
1
1
1
1
1
1
1
1
1
1
1
1
1
1
1
1
1
1
1
1
1
1
1
1
1
1
1
1
1
1
1
1
1
1
1
1
1
1
1
1
1
1
1
0.989594
0.125277
0.176715
0.8911
0.998573
0.999996
1
1
1
1
1
1
1
1
1
1
1
1
1
1
1
1
1
1
1
1
1
1
1
1
1
1
1
1
1
1
1
1
1
1
1
1
1
1
1
0.999384
1
0.999401
1
0.123276
1
1
1
1
0.999996
0.808257
0.0490889
0.176133
0.88986
0.998539
0.999996
1
1
1
1
1
1
1
1
1
1
1
1
1
1
1
1
1
1
1
1
1
1
1
1
1
1
1
1
1
1
1
1
1
1
1
1
1
1
1
1
1
0.999951
1
1
1
1
1
1
1
0.999909
0.419443
0.0174521
0.175722
0.88989
0.998516
0.999996
1
1
1
1
1
1
1
1
1
1
1
1
1
1
1
1
1
1
1
1
1
1
1
1
1
1
1
1
1
1
1
1
1
1
1
1
1
1
1
1
0.998806
1
1
1
1
1
1
1
1
1
0.997554
0.15984
0.00564368
0.175492
0.890385
0.998533
0.999996
1
1
1
1
1
1
1
1
1
1
1
1
1
1
1
1
1
1
1
1
1
1
1
1
1
1
1
1
1
1
1
1
1
1
1
1
1
1
1
1
0.999438
1
0.999956
1
1
1
1
1
1
1
1
0.838526
0.0534184
0.00165438
0.175422
0.889295
0.998531
0.999996
1
1
1
1
1
1
1
1
1
1
1
1
1
1
1
1
1
1
1
1
1
1
1
1
1
1
1
1
1
1
1
1
1
1
1
1
1
1
1
1
1
0.999999
0.995254
1
1
1
1
1
1
0.867457
1
0.999936
0.387629
0.0160316
0.000434947
0.175319
0.888831
0.998481
0.999996
1
1
1
1
1
1
1
1
1
1
1
1
1
1
1
1
1
1
1
1
1
1
1
1
1
1
1
1
1
1
1
1
1
1
1
1
1
1
1
1
1
0.995352
1
1
1
1
1
1
1
1
1
1
0.995343
0.123311
0.00431745
0.000100906
0.175151
0.888777
0.99849
0.999996
1
1
1
1
1
1
1
1
1
1
1
1
1
1
1
1
1
1
1
1
1
1
1
1
1
1
1
1
1
1
1
1
1
1
1
1
1
1
1
1
1
0.999895
1
0.995871
1
1
1
1
1
1
1
1
1
0.730651
0.0337199
0.00102706
2.04098e-05
0.174876
0.888816
0.998492
0.999996
1
1
1
1
1
1
1
1
1
1
1
1
1
1
1
1
1
1
1
1
1
1
1
1
1
1
1
1
1
1
1
1
1
1
1
1
1
1
1
1
1
1
1
0.998843
1
1
1
1
1
1
1
1
1
0.999998
0.250983
0.00816275
0.000213739
3.55124e-06
0.174563
0.889201
0.998501
0.999996
1
1
1
1
1
1
1
1
1
1
1
1
1
1
1
1
1
1
1
1
1
1
1
1
1
1
1
1
1
1
1
1
1
1
1
1
1
1
1
1
1
1
0.848505
0.30088
1
1
1
1
1
1
1
1
1
1
0.956892
0.0628668
0.00176848
3.79489e-05
4.7788e-07
0.174207
0.890991
0.998542
0.999996
1
1
1
1
1
1
1
1
1
1
1
1
1
1
1
1
1
1
1
1
1
1
1
1
1
1
1
1
1
1
1
1
1
1
1
1
1
1
1
1
1
1
0.99999
0.999735
1
1
1
1
1
1
1
1
1
1
1
0.443627
0.0138493
0.00033644
5.51785e-06
6.43933e-08
0.173821
0.890566
0.998596
0.999996
1
1
1
1
1
1
1
1
1
1
1
1
1
1
1
1
1
1
1
1
1
1
1
1
1
1
1
1
1
1
1
1
1
1
1
1
1
1
1
1
1
1
1
0.351095
0.999999
1
1
1
0.999836
1
1
1
1
1
1
0.998361
0.106397
0.00270692
5.34886e-05
6.60641e-07
7.76934e-09
0.173398
0.88822
0.998585
0.999997
1
1
1
1
1
1
1
1
1
1
1
1
1
1
1
1
1
1
1
1
1
1
1
1
1
1
1
1
1
1
1
1
1
1
1
1
1
1
1
1
1
1
1
0.999632
0.639968
1
1
1
1
0.999998
1
1
0.656376
1
1
1
0.670586
0.0212076
0.00045778
7.22621e-06
6.41971e-08
2.51587e-08
0.172978
0.886089
0.99852
0.999997
1
1
1
1
1
1
1
1
1
1
1
1
1
1
1
1
1
1
1
1
1
1
1
1
1
1
1
1
1
1
1
1
1
1
1
1
1
1
1
1
1
1
1
1
0.782713
1
1
1
1
1
1
1
1
1
1
1
0.99999
0.162533
0.00367568
6.26421e-05
6.10687e-07
3.74527e-10
8.71743e-09
0.172594
0.886234
0.998446
0.999996
1
1
1
1
1
1
1
1
1
1
1
1
1
1
1
1
1
1
1
1
1
1
1
1
1
1
1
1
1
1
1
1
1
1
1
1
1
1
1
1
1
1
1
1
0.991222
1
1
1
1
1
1
1
1
1
1
1
1
0.847943
0.0288367
0.000536847
6.71996e-06
3.06482e-08
1.53634e-08
2.99085e-08
0.172232
0.886506
0.998459
0.999996
1
1
1
1
1
1
1
1
1
1
1
1
1
1
1
1
1
1
1
1
1
1
1
1
1
1
1
1
1
1
1
1
1
1
1
1
1
1
1
1
1
1
1
1
0.999838
0.999813
1
1
1
1
1
1
1
1
1
1
1
0.997552
0.219685
0.00434872
5.96492e-05
5.30143e-07
3.42559e-08
8.73551e-10
8.06774e-09
0.171911
0.886086
0.998465
0.999996
1
1
1
1
1
1
1
1
1
1
1
1
1
1
1
1
1
1
1
1
1
1
1
1
1
1
1
1
1
1
1
1
1
1
1
1
1
1
1
1
1
1
1
1
1
0.998663
1
1
1
1
1
1
1
1
1
1
1
1
0.936014
0.0345404
0.000524446
5.92681e-06
1.22363e-08
2.38569e-08
1.74701e-09
1.51817e-08
0.171619
0.885571
0.998452
0.999996
1
1
1
1
1
1
1
1
1
1
1
1
1
1
1
1
1
1
1
1
1
1
1
1
1
1
1
1
1
1
1
1
1
1
1
1
1
1
1
1
1
1
1
1
1
0.999284
1
1
1
1
1
0.540971
0.991614
1
1
1
1
1
0.999993
0.263476
0.00449479
5.5194e-05
4.11926e-07
4.37744e-08
2.31064e-08
8.99776e-09
1.19971e-08
0.171353
0.885178
0.998403
0.999996
1
1
1
1
1
1
1
1
1
1
1
1
1
1
1
1
1
1
1
1
1
1
1
1
1
1
1
1
1
1
1
1
1
1
1
1
1
1
1
1
1
1
1
1
1
1
1
1
1
1
1
0.999985
1
1
1
1
1
1
1
0.969139
0.0386134
0.00050974
4.44671e-06
2.26496e-11
1.93578e-08
3.65428e-08
1.14461e-08
3.56309e-08
0.171107
0.884731
0.998388
0.999996
1
1
1
1
1
1
1
1
1
1
1
1
1
1
1
1
1
1
1
1
1
1
1
1
1
1
1
1
1
1
1
1
1
1
1
1
1
1
1
1
1
1
1
1
1
1
1
1
1
1
1
1
1
1
1
1
1
1
1
1
0.30191
0.0045429
4.66536e-05
2.38086e-07
3.94214e-08
2.37988e-08
2.18981e-08
3.22855e-08
5.0939e-08
0.170887
0.88553
0.998404
0.999996
1
1
1
1
1
1
1
1
1
1
1
1
1
1
1
1
1
1
1
1
1
1
1
1
1
1
1
1
1
1
1
1
1
1
1
1
1
1
1
1
1
1
1
1
1
1
1
1
1
1
1
1
0.619777
1
1
1
1
1
1
1
0.983024
0.0383733
0.000466274
3.143e-06
3.06987e-08
7.17234e-09
1.54265e-08
3.11102e-08
5.17441e-09
2.15129e-09
0.170654
0.884023
0.998426
0.999996
1
1
1
1
1
1
1
1
1
1
1
1
1
1
1
1
1
1
1
1
1
1
1
1
1
1
1
1
1
1
1
1
1
1
1
1
1
1
1
1
1
1
1
1
1
1
1
1
1
1
1
1
1
1
1
1
1
1
1
1
1
0.302214
0.00435971
3.57605e-05
1.51795e-07
2.19144e-09
5.66058e-09
5.03099e-08
3.88009e-08
1.813e-08
5.23508e-09
0.170457
0.882609
0.998377
0.999996
1
1
1
1
1
1
1
1
1
1
1
1
1
1
1
1
1
1
1
1
1
1
1
1
1
1
1
1
1
1
1
1
1
1
1
1
1
1
1
1
1
1
1
1
1
1
1
1
1
1
1
1
1
1
1
1
1
1
1
1
1
0.987917
0.0379245
0.000380989
1.95315e-06
4.10218e-09
7.06064e-09
1.29786e-08
1.52068e-08
6.17648e-09
9.64077e-09
1.26022e-09
0.170269
0.883107
0.998329
0.999996
1
1
1
1
1
1
1
1
1
1
1
1
1
1
1
1
1
1
1
1
1
1
1
1
1
1
1
1
1
1
1
1
1
1
1
1
1
1
1
1
1
1
1
1
1
1
1
1
1
1
1
1
1
1
1
1
0.784841
1
1
1
1
1
0.312359
0.00376817
2.45123e-05
9.74026e-08
4.52554e-09
1.89794e-08
2.62943e-09
6.18553e-09
8.4482e-09
1.46374e-08
5.51825e-09
0.1701
0.882951
0.998346
0.999995
1
1
1
1
1
1
1
1
1
1
1
1
1
1
1
1
1
1
1
1
1
1
1
1
1
1
1
1
1
1
1
1
1
1
1
1
1
1
1
1
1
1
1
1
1
1
1
1
1
1
1
1
1
0.997351
0.987005
0.999979
1
1
1
1
1
0.999999
0.987824
0.0351394
0.000276329
1.18213e-06
3.02246e-09
6.72828e-09
1.21701e-08
3.19691e-08
2.03934e-08
1.24263e-08
1.98192e-09
3.50164e-09
0.169944
0.882858
0.998337
0.999996
1
1
1
1
1
1
1
1
1
1
1
1
1
1
1
1
1
1
1
1
1
1
1
1
1
1
1
1
1
1
1
1
1
1
1
1
1
1
1
1
1
1
1
1
1
1
1
1
1
1
1
1
1
1
1
0.999957
0.999995
1
1
1
1
1
1
0.290383
0.00290091
1.50716e-05
1.77705e-08
2.74005e-09
5.07516e-10
3.09557e-09
1.65365e-08
5.46632e-09
2.22569e-09
6.69908e-09
2.96666e-10
0.169799
0.882626
0.998334
0.999996
1
1
1
1
1
1
1
1
1
1
1
1
1
1
1
1
1
1
1
1
1
1
1
1
1
1
1
1
1
1
1
1
1
1
1
1
1
1
1
1
1
1
1
1
1
1
1
1
1
1
1
1
1
1
1
0.945164
1
1
1
1
1
1
0.999834
0.980524
0.0278784
0.000177111
4.86445e-07
3.60118e-09
1.5064e-08
1.99401e-08
1.63771e-09
1.19068e-08
2.59103e-08
8.21187e-09
1.54831e-09
1.6287e-09
0.169667
0.882257
0.998324
0.999995
1
1
1
1
1
1
1
1
1
1
1
1
1
1
1
1
1
1
1
1
1
1
1
1
1
1
1
1
1
1
1
1
1
1
1
1
1
1
1
1
1
1
1
1
1
1
1
1
1
1
1
1
1
1
1
0.999608
1
1
1
1
1
1
1
0.999999
0.232624
0.00193013
7.59142e-06
5.94562e-09
1.85039e-08
1.93714e-09
2.12838e-08
9.24785e-09
9.88065e-09
1.89356e-08
4.08882e-09
6.02717e-10
2.53221e-09
0.169541
0.881928
0.998312
0.999995
1
1
1
1
1
1
1
1
1
1
1
1
1
1
1
1
1
1
1
1
1
1
1
1
1
1
1
1
1
1
1
1
1
1
1
1
1
1
1
1
1
1
1
1
1
1
1
1
1
1
1
1
1
1
1
0.99958
1
1
1
1
1
1
1
0.997656
0.950491
0.0185069
9.52662e-05
2.22814e-07
7.05178e-09
1.86335e-08
1.55673e-08
2.25476e-08
2.05471e-08
1.00739e-08
3.64862e-09
9.06131e-09
1.06365e-09
2.97131e-09
0.169427
0.881835
0.998303
0.999995
1
1
1
1
1
1
1
1
1
1
1
1
1
1
1
1
1
1
1
1
1
1
1
1
1
1
1
1
1
1
1
1
1
1
1
1
1
1
1
1
1
1
1
1
1
1
1
1
1
1
1
1
1
1
1
1
1
1
1
1
1
1
1
1
0.963655
0.161138
0.00105786
3.24926e-06
1.22172e-08
2.42599e-09
7.3014e-09
1.8368e-08
1.47047e-08
3.12313e-08
1.99218e-08
1.28388e-08
6.98895e-09
1.02751e-09
3.83141e-09
0.169306
0.881632
0.998299
0.999995
1
1
1
1
1
1
1
1
1
1
1
1
1
1
1
1
1
1
1
1
1
1
1
1
1
1
1
1
1
1
1
1
1
1
1
1
1
1
1
1
1
1
1
1
1
1
1
1
1
1
1
1
1
1
1
1
1
1
1
1
1
1
1
1
1
0.849829
0.0104784
4.14455e-05
7.58962e-08
3.57645e-09
3.37367e-09
3.14662e-09
7.50586e-10
1.0474e-08
7.25418e-09
1.45827e-08
8.33296e-09
2.1113e-08
1.74478e-09
2.937e-09
0.169192
0.881419
0.99829
0.999995
1
1
1
1
1
1
1
1
1
1
1
1
1
1
1
1
1
1
1
1
1
1
1
1
1
1
1
1
1
1
1
1
1
1
1
1
1
1
1
1
1
1
1
1
1
1
1
1
1
1
1
1
1
1
1
1
1
1
1
1
1
1
1
1
1
1
0.0933842
0.000478949
1.08612e-06
1.00648e-09
1.06154e-08
1.66475e-08
1.14159e-08
4.07634e-09
1.19602e-08
2.51362e-08
6.39195e-09
9.02019e-09
1.24221e-08
2.89978e-09
5.26137e-10
0.16907
0.881215
0.998283
0.999995
1
1
1
1
1
1
1
1
1
1
1
1
1
1
1
1
1
1
1
1
1
1
1
1
1
1
1
1
1
1
1
1
1
1
1
1
1
1
1
1
1
1
1
1
1
1
1
1
1
1
1
1
1
1
1
1
1
0.286212
1
1
1
1
1
1
1
1
0.610023
0.00492094
1.43164e-05
6.06343e-08
2.13681e-09
5.49835e-08
9.82745e-10
1.77337e-08
1.96713e-08
4.79861e-09
3.67776e-09
1.47513e-08
1.41939e-08
4.35742e-09
7.60712e-09
7.78167e-10
0.168953
0.880997
0.998274
0.999995
1
1
1
1
1
1
1
1
1
1
1
1
1
1
1
1
1
1
1
1
1
1
1
1
1
1
1
1
1
1
1
1
1
1
1
1
1
1
1
1
1
1
1
1
1
1
1
1
1
1
1
1
1
1
1
1
1
0.999641
1
0.999999
1
1
1
1
1
1
0.999822
0.0432461
0.00017536
3.22649e-07
2.33525e-08
5.17387e-08
9.70535e-10
1.10413e-08
2.19932e-09
7.17997e-10
2.73844e-08
2.23336e-08
1.19048e-08
3.56275e-09
2.2938e-08
1.25021e-09
1.93871e-08
0.168833
0.880979
0.998269
0.999995
1
1
1
1
1
1
1
1
1
1
1
1
1
1
1
1
1
1
1
1
1
1
1
1
1
1
1
1
1
1
1
1
1
1
1
1
1
1
1
1
1
1
1
1
1
1
1
1
1
1
1
1
1
1
1
1
1
1
0.999988
0.997781
0.999999
1
1
1
1
1
0.999889
0.327999
0.00182756
4.00853e-06
5.02252e-08
8.93371e-09
2.51216e-09
1.76972e-08
1.45233e-09
7.90281e-09
1.0608e-08
2.68191e-10
8.89609e-09
6.40458e-09
1.54093e-08
5.86446e-09
2.61657e-08
6.75772e-09
0.168712
0.880651
0.998263
0.999995
1
1
1
1
1
1
1
1
1
1
1
1
1
1
1
1
1
1
1
1
1
1
1
1
1
1
1
1
1
1
1
1
1
1
1
1
1
1
1
1
1
1
1
1
1
1
1
1
1
1
1
1
1
1
1
1
1
1
1
1
0.280115
1
1
1
0.999846
1
1
0.98413
0.016613
5.02458e-05
5.14583e-08
1.8868e-08
1.33931e-08
3.72716e-08
7.9781e-09
8.75414e-09
3.2943e-08
2.68321e-09
2.45309e-08
4.64368e-09
2.01785e-08
4.367e-09
1.88541e-08
1.92909e-09
2.40241e-08
0.168593
0.880301
0.998246
0.999995
1
1
1
1
1
1
1
1
1
1
1
1
1
1
1
1
1
1
1
1
1
1
1
1
1
1
1
1
1
1
1
1
1
1
1
1
1
1
1
1
1
1
1
1
1
1
1
1
1
1
1
1
1
1
1
1
1
1
0.999999
1
1
0.999945
1
1
1
1
1
0.650353
0.137791
0.000551127
8.37115e-07
1.11868e-08
4.04378e-09
1.46296e-08
6.58069e-09
2.50645e-08
3.76851e-08
9.75377e-09
4.76419e-09
6.02078e-09
3.73513e-09
3.13346e-08
4.36623e-08
3.68031e-09
1.24646e-08
4.12994e-09
0.168477
0.880166
0.998231
0.999995
1
1
1
1
1
1
1
1
1
1
1
1
1
1
1
1
1
1
1
1
1
1
1
1
1
1
1
1
1
1
1
1
1
1
1
1
1
1
1
1
1
1
1
1
1
1
1
1
1
1
1
1
1
1
1
1
1
1
1
1
1
1
1
1
1
1
1
1
0.763015
0.00527481
1.15047e-05
2.60857e-09
2.22803e-08
3.70203e-10
1.07164e-09
1.13334e-08
1.0467e-08
1.5255e-09
1.24351e-08
5.25174e-08
5.71891e-08
1.36462e-08
2.85428e-08
1.05903e-09
3.4282e-08
2.13141e-08
2.97602e-08
0.168366
0.880037
0.998229
0.999995
1
1
1
1
1
1
1
1
1
1
1
1
1
1
1
1
1
1
1
1
1
1
1
1
1
1
1
1
1
1
1
1
1
1
1
1
1
1
1
1
1
1
1
1
1
1
1
1
1
1
1
1
1
1
1
0.999993
1
1
1
1
1
1
1
1
1
1
1
1
0.999996
0.044558
0.000131055
1.69652e-07
3.83851e-10
8.77048e-09
4.56936e-09
5.11232e-09
9.69807e-09
1.13008e-08
1.93439e-08
3.15475e-08
1.16645e-08
8.14466e-09
1.21612e-08
7.69055e-10
3.28055e-08
9.39465e-09
5.06544e-09
5.77755e-09
0.168264
0.879821
0.998222
0.999995
1
1
1
1
1
1
1
1
1
1
1
1
1
1
1
1
1
1
1
1
1
1
1
1
1
1
1
1
1
1
1
1
1
1
1
1
1
1
1
1
1
1
1
1
1
1
1
1
1
1
1
1
1
1
1
1
1
1
1
1
1
1
1
1
1
1
1
1
1
0.335873
0.00130763
2.11528e-06
2.40765e-09
8.26917e-09
1.87099e-08
1.78042e-08
2.40894e-08
1.79476e-08
2.16045e-08
1.35108e-08
6.76836e-09
7.16473e-08
4.12978e-08
8.82646e-09
2.85958e-08
2.99779e-08
2.10773e-08
2.2305e-08
1.78772e-08
0.168159
0.87936
0.998208
0.999995
1
1
1
1
1
1
1
1
1
1
1
1
1
1
1
1
1
1
1
1
1
1
1
1
1
1
1
1
1
1
1
1
1
1
1
1
1
1
1
1
1
1
1
1
1
1
1
1
1
1
1
1
1
1
1
1
1
1
1
1
0.810597
1
0.999574
1
1
1
1
1
1
0.983515
0.0118943
2.39386e-05
5.58161e-08
1.85768e-08
2.49407e-09
1.05303e-08
3.52881e-09
1.24449e-08
1.0597e-08
3.03069e-08
3.68203e-08
5.06382e-08
1.22871e-08
1.45602e-08
1.43289e-08
1.37708e-08
1.8282e-09
1.06649e-08
1.27919e-08
1.90678e-09
0.168081
0.87916
0.998194
0.999995
1
1
1
1
1
1
1
1
1
1
1
1
1
1
1
1
1
1
1
1
1
1
1
1
1
1
1
1
1
1
1
1
1
1
1
1
1
1
1
1
1
1
1
1
1
1
1
1
1
1
1
1
1
1
1
1
1
1
1
1
1
1
1
1
0.994633
1
1
1
1
0.996279
0.100336
0.000252652
2.57665e-07
6.73788e-09
5.67189e-09
4.73111e-09
7.36977e-10
3.97485e-09
7.8398e-09
3.15461e-08
1.3142e-08
3.84056e-09
1.18777e-08
1.31709e-08
4.24471e-10
3.502e-08
1.2022e-08
3.586e-08
1.92824e-08
4.26569e-09
1.70316e-08
0.167885
0.87907
0.998187
0.999995
1
1
1
1
1
1
1
1
1
1
1
1
1
1
1
1
1
1
1
1
1
1
1
1
1
1
1
1
1
1
1
1
1
1
1
1
1
1
1
1
1
1
1
1
1
1
1
1
1
1
1
1
1
1
1
1
1
1
1
1
1
1
0.946378
1
1
1
1
1
1
1
0.612018
0.00254221
3.02062e-06
2.23072e-08
3.78751e-09
1.76872e-09
2.47281e-09
1.28316e-08
5.03056e-09
1.53267e-08
2.0736e-08
3.31702e-08
2.98653e-08
7.89137e-09
1.10131e-08
3.05969e-08
8.7988e-10
1.09909e-08
7.30291e-09
2.98572e-09
3.24728e-09
4.89894e-10
0.162263
0.878696
0.998179
0.999995
1
1
1
1
1
1
1
1
1
1
1
1
1
1
1
1
1
1
1
1
1
1
1
1
1
1
1
1
1
1
1
1
1
1
1
1
1
1
1
1
1
1
1
1
1
1
1
1
1
1
1
1
1
1
1
1
1
1
0.868928
1
1
1
1
1
1
1
1
1
1
1
0.999686
0.0218278
3.77393e-05
4.7611e-08
6.6725e-09
5.83207e-09
4.39617e-09
3.15884e-08
6.77366e-09
5.33464e-08
9.67293e-11
7.66651e-08
3.66673e-08
6.98051e-09
1.41925e-08
2.30408e-08
1.58112e-09
3.58618e-08
3.50801e-08
2.0723e-09
1.22396e-08
1.62925e-09
4.48583e-09
0.099296
0.869767
0.998159
0.999995
1
1
1
1
1
1
1
1
1
1
1
1
1
1
1
1
1
1
1
1
1
1
1
1
1
1
1
1
1
1
1
1
1
1
1
1
1
1
1
1
1
1
1
1
1
1
1
1
1
1
1
1
1
1
1
1
1
1
1
1
1
0.999992
1
1
1
1
1
1
1
1
0.999975
0.167129
0.000418613
2.60655e-07
5.37932e-10
1.3232e-08
2.85639e-09
1.22703e-08
1.79558e-08
2.14871e-08
1.49758e-08
2.64771e-08
3.75704e-10
8.79453e-09
4.95885e-09
8.93167e-09
9.66937e-09
4.74292e-08
1.80026e-08
3.10748e-08
1.76457e-09
1.11431e-09
9.17361e-10
1.14676e-08
0.0668563
0.708824
0.997872
0.999995
1
1
1
1
1
1
1
1
1
1
1
1
1
1
1
1
1
1
1
1
1
1
1
1
1
1
1
1
1
1
1
1
1
1
1
1
1
1
1
1
1
1
1
1
1
1
1
1
1
1
1
1
1
1
1
1
1
1
1
0.792029
1
0.981032
1
1
1
1
1
1
1
1
1
0.798025
0.00391703
4.53245e-06
7.72509e-10
1.95176e-08
1.02472e-08
2.1539e-08
1.26277e-08
2.08647e-08
8.66308e-09
5.54871e-08
9.28441e-09
3.5867e-09
1.78029e-08
3.35816e-08
2.13506e-08
4.48801e-08
3.69525e-08
6.24254e-09
5.08502e-08
4.21903e-10
2.71193e-09
1.32188e-08
1.27977e-08
0.169338
0.332509
0.985332
0.999993
1
1
1
1
1
1
1
1
1
1
1
1
1
1
1
1
1
1
1
1
1
1
1
1
1
1
1
1
1
1
1
1
1
1
1
1
1
1
1
1
1
1
1
1
1
1
1
1
1
1
1
1
1
1
1
1
1
1
1
1
0.999431
1
0.999766
1
1
1
1
1
1
1
1
1
0.0305112
5.79464e-05
9.80195e-09
3.22585e-09
1.26451e-09
1.62781e-08
9.68317e-10
2.24463e-08
2.56478e-08
2.7561e-08
3.42156e-08
4.48115e-09
9.5213e-09
5.75985e-08
2.27287e-08
9.50903e-09
2.29272e-08
1.78815e-08
4.36617e-08
6.11585e-09
4.82761e-09
2.47559e-08
1.30451e-08
0.194716
0.816552
0.368925
0.999878
1
1
1
1
1
1
1
1
1
1
1
1
1
1
1
1
1
1
1
1
1
1
1
1
1
1
1
1
1
1
1
1
1
1
1
1
1
1
1
1
1
1
1
1
1
1
1
1
1
1
1
1
1
1
1
1
1
1
1
1
0.674211
1
1
0.985767
1
1
1
1
1
1
1
1
0.206425
0.00054542
5.90741e-07
1.59026e-08
1.06106e-08
1.94559e-08
1.18171e-09
7.56717e-09
1.62047e-08
6.63273e-09
1.19856e-08
1.36341e-08
3.31573e-08
6.18819e-08
6.6052e-10
8.32743e-10
5.18344e-09
2.69765e-09
1.05578e-07
1.24667e-08
4.82937e-08
3.75395e-08
1.34489e-08
0.204121
0.872542
0.982015
0.16474
1
1
1
1
1
1
1
1
1
1
1
1
1
1
1
1
1
1
1
1
1
1
1
1
1
1
1
1
1
1
1
1
1
1
1
1
1
1
1
1
1
1
1
1
1
1
1
1
1
1
1
1
1
1
1
1
1
1
1
1
1
1
1
1
1
1
1
1
1
1
1
1
0.850491
0.00417162
7.0353e-06
1.5688e-08
9.88731e-09
4.17843e-09
3.70057e-09
3.47334e-09
6.59023e-09
3.54623e-08
8.6026e-09
1.59407e-08
1.19609e-09
7.08249e-08
1.35356e-08
2.05033e-08
2.65671e-08
5.0036e-08
1.03874e-08
1.71886e-10
2.96245e-08
3.7979e-08
3.6965e-08
0.210448
0.88716
0.993351
0.997342
0.922242
1
1
1
1
1
1
1
1
1
1
1
1
1
1
1
1
1
1
1
1
1
1
1
1
1
1
1
1
1
1
1
1
1
1
1
1
1
1
1
1
1
1
1
1
1
1
1
1
1
1
1
1
1
1
1
1
1
1
1
1
1
1
1
1
1
1
1
1
1
1
1
1
0.0295696
5.79636e-05
6.35214e-08
1.37661e-08
1.16789e-08
1.19448e-09
2.05525e-08
3.35207e-09
5.83229e-08
2.34244e-09
1.93064e-08
2.24026e-08
4.73581e-08
6.86109e-09
5.70174e-08
3.08383e-08
3.3692e-08
1.99055e-08
1.32425e-09
1.32419e-08
1.01993e-07
2.61781e-08
0.218716
0.896266
0.995118
0.99959
0.997941
0.999458
1
1
1
1
1
1
1
1
1
1
1
1
1
1
1
1
1
1
1
1
1
1
1
1
1
1
1
1
1
1
1
1
1
1
1
1
1
1
1
1
1
1
1
1
1
1
1
1
1
1
1
1
0.999999
1
1
1
1
1
1
1
1
1
1
1
1
1
1
1
1
1
1
0.189899
0.000448154
7.02605e-07
2.00933e-08
6.65613e-09
4.2866e-09
2.73834e-08
4.40319e-09
6.33404e-08
6.5166e-10
3.16711e-08
5.22249e-08
3.26486e-09
1.33212e-08
9.70078e-08
6.06901e-08
1.73962e-08
2.66153e-09
2.81381e-08
3.55163e-08
9.7793e-08
9.12692e-08
0.225901
0.905995
0.996067
0.999765
0.999931
0.995292
0.999999
1
1
1
1
1
1
1
1
1
1
1
1
1
1
1
1
1
1
1
1
1
1
1
1
1
1
1
1
1
1
1
1
1
1
1
1
1
1
1
1
1
1
1
1
1
1
1
1
1
1
1
1
1
1
1
1
1
1
1
1
0.659389
1
1
1
1
1
1
1
1
1
0.807375
0.00315142
5.72801e-06
4.61701e-08
1.65386e-08
6.91816e-09
2.26803e-08
8.13679e-10
8.23666e-09
4.37689e-08
8.96432e-09
1.7499e-08
3.00054e-08
5.02289e-08
7.46193e-08
6.27254e-08
1.98604e-08
2.4976e-08
4.49518e-08
1.78454e-08
1.41546e-08
1.12956e-07
0.231895
0.913495
0.996804
0.99984
0.99997
0.999938
0.928719
1
1
1
1
1
1
1
1
1
1
1
1
1
1
1
1
1
1
1
1
1
1
1
1
1
1
1
1
1
1
1
1
1
1
1
1
1
1
1
1
1
1
1
1
1
1
1
1
1
1
1
1
1
1
1
1
1
1
1
1
1
1
1
1
1
1
1
1
1
1
1
0.0211007
4.24461e-05
2.4255e-08
4.02306e-08
9.54856e-09
1.35223e-08
1.86591e-08
3.62508e-08
3.95e-08
3.28207e-08
9.96626e-08
5.96566e-08
6.13888e-08
1.88165e-08
3.47837e-08
1.77757e-08
6.01163e-08
3.12114e-08
1.29473e-09
6.87796e-08
1.02559e-08
0.237989
0.919404
0.997306
0.999883
0.999983
0.999981
0.99965
0.474904
1
1
1
1
1
1
1
1
1
1
1
1
1
1
1
1
1
1
1
1
1
1
1
1
1
1
1
1
1
1
1
1
1
1
1
1
1
1
1
1
1
1
1
1
1
1
1
1
1
1
1
1
1
1
1
1
0.998803
1
1
1
1
1
1
1
1
1
1
1
1
1
0.136353
0.000252933
5.83916e-07
4.74812e-08
1.03894e-08
4.60149e-08
9.28706e-09
4.88089e-08
1.91753e-09
3.51379e-09
1.29434e-08
2.99567e-08
2.1098e-09
4.58444e-09
1.81008e-08
5.28817e-08
5.4135e-08
5.82281e-09
7.36063e-09
5.42841e-08
8.62937e-08
0.244271
0.924925
0.997668
0.999908
0.999988
0.99999
0.999922
0.993057
0.991288
1
1
1
1
1
1
1
1
1
1
1
1
1
1
1
1
1
1
1
1
1
1
1
1
1
1
1
1
1
1
1
1
1
1
1
1
1
1
1
1
1
1
1
1
1
1
1
1
1
1
1
1
1
1
1
0.999878
1
1
1
1
0.97829
1
0.971664
1
1
1
1
1
1
0.643733
0.00161173
4.41065e-06
1.43332e-08
4.48738e-09
5.80535e-08
5.06903e-09
9.24386e-09
6.06735e-08
2.34792e-08
2.99975e-09
1.29866e-08
4.37884e-08
2.07142e-08
2.88487e-09
4.01306e-08
1.52827e-08
1.8005e-08
6.36323e-09
9.81953e-08
1.03601e-07
0.250918
0.93031
0.997977
0.999924
0.999991
0.999993
0.999964
0.998934
0.83356
0.9998
1
1
1
1
1
1
1
1
1
1
1
1
1
1
1
1
1
1
1
1
1
1
1
1
1
1
1
1
1
1
1
1
1
1
1
1
1
1
1
1
1
1
1
1
1
1
1
1
1
1
1
1
1
1
0.506606
1
1
0.49912
1
1
0.191956
1
1
1
1
1
1
1
0.999167
0.0108298
2.08581e-05
8.29448e-08
2.34195e-08
1.54155e-08
3.04656e-08
2.3722e-08
3.17936e-08
9.05601e-09
8.26314e-08
3.4435e-08
7.57007e-09
2.08572e-08
2.51427e-09
4.44829e-08
2.97561e-09
1.20803e-08
1.37173e-08
8.2746e-08
4.28288e-08
0.25771
0.935441
0.998264
0.999938
0.999993
0.999995
0.999975
0.999553
0.981801
0.0687371
0.999991
1
1
1
1
1
1
1
1
1
1
1
1
1
1
1
1
1
1
1
1
1
1
1
1
1
1
1
1
1
1
1
1
1
1
1
1
1
1
1
1
1
1
1
1
1
1
1
1
1
0.9988
1
1
1
0.265939
1
0.205683
1
1
1
1
1
1
1
1
1
1
1
0.999999
0.0686763
9.24229e-05
5.4417e-07
7.53084e-09
5.96529e-09
4.73868e-09
3.66545e-08
2.13512e-08
1.02683e-08
5.56941e-08
3.07245e-08
7.36608e-09
3.05145e-08
5.88161e-08
7.39851e-09
1.27517e-08
1.71567e-08
9.39282e-09
3.40774e-09
9.7727e-08
0.2645
0.940453
0.998509
0.999949
0.999994
0.999995
0.999979
0.999698
0.993115
0.821148
0.772532
0.999999
1
1
1
1
1
1
1
1
1
1
1
1
1
1
1
1
1
1
1
1
1
1
1
1
1
1
1
1
1
1
1
1
1
1
1
1
1
1
1
1
1
1
1
1
1
1
1
1
1
1
1
1
1
1
1
0.999438
1
1
0.70356
1
1
1
1
1
1
1
1
0.383012
0.000524628
2.26049e-06
4.27392e-08
1.09522e-08
5.23487e-09
4.83972e-08
5.45664e-09
1.56693e-08
1.98886e-08
9.52812e-09
6.40918e-08
4.29498e-08
3.86815e-08
5.14549e-08
1.1177e-08
5.09109e-08
2.08464e-08
2.67347e-08
3.8915e-08
0.270972
0.945061
0.998727
0.999959
0.999995
0.999996
0.999982
0.999744
0.995603
0.933434
0.29496
0.936323
1
1
1
1
1
1
1
1
1
1
1
1
1
1
1
1
1
1
1
1
1
1
1
1
1
1
1
1
1
1
1
1
1
1
1
1
1
1
1
1
1
1
1
1
1
1
1
1
1
1
1
1
1
1
1
1
1
1
1
1
1
1
1
1
1
1
1
0.969037
0.00390884
6.39359e-06
9.34311e-08
8.82007e-09
4.66852e-09
1.94351e-08
1.30311e-08
1.40262e-08
1.45797e-08
1.48143e-08
6.18363e-08
4.24551e-08
2.81583e-08
5.47232e-08
9.59928e-09
1.82436e-08
2.09731e-09
1.36809e-07
1.0343e-08
0.277064
0.949169
0.998911
0.999966
0.999996
0.999997
0.999984
0.99978
0.996434
0.959253
0.689218
0.275056
0.977465
1
1
1
1
1
1
1
1
1
1
1
1
1
1
1
1
1
1
1
1
1
1
1
1
1
1
1
1
1
1
1
1
1
1
1
1
1
1
1
1
1
1
1
1
1
1
1
1
1
1
1
1
1
1
1
1
1
1
1
1
1
1
1
1
1
1
1
0.027974
1.65185e-05
2.59347e-07
2.2485e-08
1.03223e-09
3.57087e-09
2.85354e-08
5.37233e-09
3.60205e-08
5.30112e-08
8.53054e-09
4.35284e-08
2.85833e-08
1.19627e-08
2.72335e-08
2.17425e-08
1.17874e-09
2.4323e-07
5.55022e-08
0.282714
0.952898
0.999061
0.999973
0.999997
0.999997
0.999985
0.999804
0.997025
0.968504
0.805475
0.263684
0.59925
0.99121
1
1
1
1
1
1
1
1
1
1
1
1
1
1
1
1
1
1
1
1
1
1
1
1
1
1
1
1
1
1
1
1
1
1
1
1
1
1
1
1
1
1
1
1
1
1
1
0.985196
1
1
1
1
1
0.716156
1
1
1
1
1
1
1
1
1
1
1
1
0.163526
0.000109587
5.40069e-07
1.16507e-08
2.04455e-08
1.28353e-09
1.20063e-09
2.74435e-09
2.97577e-08
3.15781e-08
1.40659e-09
1.67463e-08
1.44735e-08
1.35633e-08
1.50938e-08
4.19685e-08
3.99509e-09
1.87408e-07
1.70806e-07
0.287983
0.956009
0.99919
0.999977
0.999997
0.999998
0.999987
0.999823
0.997415
0.974483
0.851963
0.497165
0.124568
0.761729
0.996657
1
1
1
1
1
1
1
1
1
1
1
1
1
1
1
1
1
1
1
1
1
1
1
1
1
1
1
1
1
1
1
1
1
1
1
1
1
1
1
1
1
1
1
1
1
1
0.999994
1
1
1
1
1
0.999993
1
1
1
1
1
1
1
1
1
1
1
1
0.645167
0.00105384
1.40209e-06
6.23348e-08
5.78692e-09
1.30301e-08
1.60934e-08
6.03669e-09
1.34162e-08
2.01745e-09
1.72707e-09
6.18798e-09
2.16194e-10
3.75016e-09
2.95928e-08
8.32276e-09
9.17027e-09
8.45283e-08
1.82478e-07
0.292947
0.958804
0.999293
0.999981
0.999998
0.999998
0.999988
0.999834
0.997682
0.97832
0.880896
0.6072
0.153945
0.385972
0.850553
0.998887
1
1
1
1
1
1
1
1
1
1
1
1
1
1
1
1
1
1
1
1
1
1
1
1
1
1
1
1
1
1
1
1
1
1
1
1
1
1
1
1
1
1
1
1
0.969432
1
1
1
1
1
0.999959
1
1
1
1
1
1
1
1
1
1
1
1
1
0.996176
0.00760909
2.37658e-06
1.14977e-07
3.25517e-08
2.49317e-08
3.87101e-09
1.10755e-09
9.98085e-09
1.93859e-08
1.0765e-08
1.93243e-09
4.01035e-09
3.10952e-09
7.44924e-09
1.18066e-09
1.63952e-08
9.85295e-09
1.09167e-07
0.297758
0.961396
0.999379
0.999984
0.999998
0.999998
0.999989
0.999843
0.997849
0.98086
0.899491
0.677516
0.308827
0.11946
0.552968
0.905231
0.999704
1
1
1
1
1
1
1
1
1
1
1
1
1
1
1
1
1
1
1
1
1
1
1
1
1
1
1
1
1
1
1
1
1
1
1
1
1
1
1
1
1
1
1
1
1
1
1
1
0.99177
1
1
1
1
1
1
1
1
1
1
1
1
1
1
1
0.0417414
1.39937e-05
2.10127e-07
4.14194e-08
1.44399e-08
1.22084e-08
2.9923e-08
1.43753e-08
2.38368e-08
2.23768e-08
5.36332e-09
4.67441e-09
5.16646e-10
1.03251e-08
6.20681e-09
4.6241e-09
6.83668e-08
2.15152e-08
0.302629
0.963788
0.999457
0.999987
0.999998
0.999998
0.99999
0.999851
0.997975
0.982525
0.911819
0.724296
0.413345
0.0480241
0.312992
0.6652
0.941544
0.999943
1
1
1
1
1
1
1
1
1
1
1
1
1
1
1
1
1
1
1
1
1
1
1
1
1
1
1
1
1
1
1
1
1
1
1
1
1
1
1
1
1
1
1
1
1
1
1
1
1
1
1
1
1
1
1
1
1
1
1
1
1
1
1
0.198041
0.000145229
8.25872e-07
5.8011e-08
2.36727e-08
2.7642e-09
2.11787e-08
1.01531e-08
8.78899e-09
5.04458e-09
1.68019e-08
8.01112e-09
1.51309e-09
2.8573e-08
4.89819e-10
9.55894e-09
1.06534e-07
4.03564e-08
0.307791
0.966101
0.999525
0.999989
0.999999
0.999999
0.999991
0.999859
0.998075
0.983729
0.920052
0.756249
0.486385
0.166307
0.149751
0.45039
0.746863
0.96627
0.999993
1
1
1
1
1
1
1
1
1
1
1
1
1
1
1
1
1
1
1
1
1
1
1
1
1
1
1
1
1
1
1
1
1
1
1
1
1
1
1
1
1
1
1
1
1
1
1
0.998101
1
1
1
1
1
1
1
1
1
1
1
1
1
1
0.690129
0.00114995
5.17624e-06
1.0134e-07
4.16628e-08
7.07597e-09
1.09048e-08
1.24597e-08
4.90351e-09
4.62396e-09
9.77965e-09
1.13091e-08
2.28979e-08
2.14781e-08
1.17366e-08
1.00917e-08
1.03038e-07
6.4862e-08
0.313442
0.968424
0.999587
0.999991
0.999999
0.999999
0.999992
0.99987
0.998177
0.984655
0.926084
0.778195
0.538391
0.253037
0.0305963
0.295866
0.553134
0.810567
0.982491
1
1
1
1
1
1
1
1
1
1
1
1
1
1
1
1
1
1
1
1
1
1
1
1
1
1
1
1
1
1
1
1
1
1
1
1
1
1
1
1
1
1
1
1
1
1
1
1
1
1
1
1
1
1
1
1
1
1
1
1
1
1
0.996093
0.00723916
1.18005e-05
9.32997e-08
1.76922e-08
9.07809e-09
1.0549e-09
4.34932e-09
3.97677e-11
2.61239e-09
1.20138e-09
1.08864e-08
7.85941e-09
1.29237e-08
3.78966e-09
2.01237e-08
9.31835e-08
7.15117e-08
0.319748
0.970803
0.999645
0.999993
0.999999
0.999999
0.999993
0.999883
0.998309
0.985547
0.930685
0.794594
0.575784
0.316762
0.0591257
0.180471
0.406897
0.634692
0.862127
0.992161
1
1
1
1
1
1
1
1
1
1
1
1
1
1
1
1
1
1
1
1
1
1
1
1
1
1
1
1
1
1
1
1
1
1
1
1
1
1
1
1
1
1
1
1
1
1
1
1
0.798222
1
1
1
1
1
1
1
1
1
1
1
1
1
0.0364013
1.05174e-06
9.86528e-07
1.71724e-08
4.28483e-09
1.3393e-08
3.24991e-08
1.71631e-08
7.70336e-09
1.43845e-09
1.53263e-09
3.08032e-08
1.69103e-08
3.93215e-08
1.22261e-08
2.62309e-08
9.87331e-08
0.326806
0.973229
0.999699
0.999994
0.999999
0.999999
0.999994
0.999898
0.998465
0.986573
0.934851
0.807267
0.603986
0.3645
0.127266
0.0921693
0.296178
0.495648
0.703187
0.90447
0.997156
1
1
1
1
1
1
1
1
1
1
1
1
1
1
1
1
1
1
1
1
1
1
1
1
1
1
1
1
1
1
1
1
1
1
1
1
1
1
1
1
1
1
1
0.623339
1
1
1
1
0.999992
1
1
1
1
1
1
1
1
1
1
1
1
0.151356
0.000101269
3.92132e-06
4.21505e-09