/*--------------------------------*- C++ -*----------------------------------*\
| =========                 |                                                 |
| \\      /  F ield         | OpenFOAM: The Open Source CFD Toolbox           |
|  \\    /   O peration     | Version:  v2012                                 |
|   \\  /    A nd           | Website:  www.openfoam.com                      |
|    \\/     M anipulation  |                                                 |
\*---------------------------------------------------------------------------*/
FoamFile
{
    version     2.0;
    format      ascii;
    class       volScalarField;
    location    "13200";
    object      rho;
}
// * * * * * * * * * * * * * * * * * * * * * * * * * * * * * * * * * * * * * //

dimensions      [1 -3 0 0 0 0 0];


internalField   nonuniform List<scalar> 
39402
(
0.0372297
0.040421
0.0350424
0.0330669
0.0365719
0.0362269
0.0321457
0.0308302
0.0341322
0.038727
0.031653
0.0301491
0.0291672
0.0325496
0.0419673
0.0316452
0.0296864
0.0286635
0.0278949
0.0315506
0.0457778
0.0319395
0.0296966
0.0282567
0.0275377
0.0269086
0.0310067
0.0499805
0.0322005
0.0299832
0.0283114
0.0272074
0.026689
0.0261461
0.0308456
0.0545314
0.0323726
0.0302502
0.0286116
0.0273274
0.0264577
0.0260702
0.0255709
0.031035
0.0594084
0.0324612
0.0304363
0.0288956
0.0276579
0.0266626
0.0259616
0.0256503
0.0251625
0.0315641
0.064566
0.0325229
0.0305495
0.029097
0.0279681
0.0270387
0.026268
0.0256815
0.0254031
0.024914
0.0324476
0.0700431
0.0325578
0.0306378
0.02923
0.0281873
0.0273841
0.0267016
0.0260968
0.0255778
0.0253049
0.0248286
0.033709
0.0758354
0.0325811
0.0306976
0.0293364
0.0283374
0.027624
0.0270888
0.0265922
0.0260967
0.0256119
0.0253378
0.0249177
0.0353975
0.0819414
0.0325758
0.0307442
0.0294123
0.0284572
0.0277903
0.0273516
0.0270226
0.0266501
0.0262198
0.0257566
0.0254951
0.0252048
0.0375635
0.0884016
0.032579
0.0307637
0.0294731
0.0285433
0.0279201
0.0275336
0.0273082
0.0271201
0.0268229
0.026434
0.0259988
0.0257798
0.0257237
0.0402811
0.0952591
0.0325843
0.0307887
0.0295067
0.028612
0.0280126
0.0276711
0.0275049
0.0274264
0.0273262
0.0270768
0.0267223
0.0263314
0.0262024
0.0265241
0.0436249
0.102541
0.0325879
0.0308136
0.0295437
0.0286529
0.0280845
0.0277671
0.0276484
0.0276359
0.0276501
0.0276069
0.0273939
0.0270744
0.0267499
0.0267813
0.0276743
0.0476856
0.110268
0.0325871
0.0308344
0.0295793
0.0286954
0.0281275
0.0278389
0.027746
0.0277841
0.0278701
0.0279452
0.0279439
0.0277625
0.027485
0.0272511
0.0275172
0.0292634
0.0525465
0.118544
0.0325764
0.0308518
0.0296097
0.0287354
0.0281703
0.0278801
0.0278154
0.0278818
0.0280216
0.0281733
0.0282935
0.028325
0.0281755
0.0279528
0.0278305
0.0283965
0.0314032
0.0583462
0.127588
0.03254
0.0308589
0.0296363
0.0287698
0.0282098
0.0279193
0.0278526
0.0279476
0.0281183
0.0283263
0.0285271
0.0286828
0.028743
0.0286302
0.0284786
0.0285101
0.0294541
0.0342332
0.0652226
0.137471
0.0325285
0.0308409
0.0296526
0.028799
0.0282429
0.0279545
0.0278861
0.0279798
0.02818
0.028421
0.0286797
0.0289186
0.0291049
0.0291942
0.0291271
0.0290695
0.0292989
0.0307523
0.0378997
0.0734466
0.148178
0.0325461
0.0308445
0.0296446
0.0288183
0.0282703
0.0279825
0.0279148
0.0280069
0.0282066
0.0284777
0.0287712
0.0290692
0.0293396
0.0295554
0.029679
0.0296702
0.029734
0.0302328
0.0323667
0.0425649
0.0825317
0.158915
0.0325059
0.0308744
0.0296558
0.0288141
0.0282876
0.0280044
0.0279356
0.0280283
0.028227
0.0284982
0.0288219
0.0291562
0.0294864
0.0297858
0.0300322
0.0301987
0.030266
0.0304977
0.0313472
0.0344142
0.0483632
0.0923302
0.167633
0.0324969
0.0308515
0.0296914
0.0288278
0.0282817
0.028016
0.02795
0.0280412
0.028241
0.0285116
0.0288357
0.0292002
0.0295677
0.0299266
0.0302552
0.0305367
0.0307575
0.0309242
0.0313682
0.032693
0.0370674
0.0553728
0.103203
0.17345
0.0324823
0.0308555
0.0296777
0.028864
0.028293
0.0280042
0.0279537
0.0280473
0.0282459
0.028518
0.0288415
0.0292066
0.029604
0.0300007
0.0303875
0.030748
0.031072
0.0313617
0.0316602
0.0323827
0.0343166
0.0405854
0.0637663
0.114996
0.175159
0.0324735
0.0308534
0.0296884
0.0288537
0.0283264
0.0280097
0.0279338
0.0280425
0.0282437
0.0285146
0.02884
0.0292045
0.0296022
0.0300283
0.0304527
0.0308689
0.0312658
0.0316419
0.0320224
0.0324919
0.0335795
0.0362768
0.0453574
0.0735912
0.127018
0.174686
0.0324546
0.0308563
0.0296929
0.0288663
0.0283145
0.0280372
0.0279312
0.0280136
0.0282306
0.0285042
0.028828
0.0291946
0.0295918
0.0300175
0.0304703
0.030923
0.0313718
0.031812
0.0322538
0.0327497
0.0334462
0.0350135
0.0387026
0.0519078
0.0847783
0.13798
0.172945
0.0324452
0.0308506
0.0297017
0.0288728
0.0283249
0.0280202
0.0279511
0.0280025
0.028193
0.0284828
0.0288091
0.0291738
0.0295733
0.0299981
0.0304496
0.030929
0.0314123
0.0318985
0.0323916
0.0329166
0.0335647
0.0345584
0.0367537
0.0419006
0.0608125
0.0966885
0.147976
0.170166
0.0324242
0.0308526
0.0297024
0.0288831
0.0283294
0.028025
0.0279269
0.0280145
0.0281733
0.0284366
0.0287795
0.0291463
0.0295434
0.0299705
0.0304204
0.0308973
0.0314049
0.0319224
0.0324529
0.0330112
0.0336427
0.0344895
0.0358795
0.0388909
0.0463507
0.0721455
0.108652
0.156036
0.16674
0.0324152
0.0308431
0.0297099
0.0288854
0.0283376
0.0280243
0.0279245
0.0279822
0.0281774
0.0284084
0.0287247
0.0291084
0.0295071
0.0299311
0.0303831
0.0308574
0.0313604
0.0318992
0.0324559
0.0330398
0.0336795
0.0344485
0.035557
0.0374694
0.041519
0.0527573
0.0853266
0.11992
0.163308
0.162362
0.0323974
0.0308436
0.0297066
0.0288943
0.0283379
0.0280273
0.0279165
0.0279719
0.0281373
0.0284047
0.0286879
0.029045
0.0294609
0.0298857
0.0303338
0.0308096
0.0313087
0.03184
0.0324142
0.0330174
0.0336661
0.0344082
0.035356
0.0368123
0.039412
0.0448855
0.0620011
0.0990555
0.130585
0.169518
0.157509
0.0324025
0.0308362
0.0297119
0.0288928
0.0283448
0.0280227
0.0279125
0.0279562
0.0281191
0.0283569
0.0286764
0.0289997
0.0293888
0.0298311
0.030279
0.0307497
0.0312495
0.031775
0.032338
0.0329529
0.0336115
0.0343403
0.0352129
0.0363953
0.0383142
0.0418115
0.049533
0.0746368
0.11123
0.14057
0.174269
0.152578
0.0323886
0.0308496
0.0297097
0.0288995
0.0283416
0.028025
0.0279014
0.0279446
0.0280958
0.0283312
0.028621
0.0289803
0.029335
0.0297504
0.0302157
0.030685
0.0311783
0.0317033
0.0322579
0.032857
0.0335196
0.0342449
0.0350734
0.0361139
0.0376072
0.0401429
0.0447996
0.056425
0.0898276
0.119264
0.149693
0.177031
0.148133
0.0323597
0.0308454
0.0297267
0.0288989
0.0283468
0.0280174
0.0278973
0.0279262
0.0280768
0.0283003
0.0285877
0.0289175
0.0293078
0.0296879
0.0301261
0.0306127
0.0311031
0.0316198
0.0321722
0.0327594
0.0334003
0.0341195
0.0349261
0.0358802
0.0371391
0.0390475
0.0423984
0.0486473
0.0667188
0.105392
0.125671
0.157735
0.178167
0.144495
0.0323429
0.030827
0.0297272
0.0289162
0.0283441
0.0280183
0.0278835
0.027915
0.0280511
0.0282741
0.0285494
0.0288768
0.0292375
0.0296528
0.0300548
0.0305139
0.0310212
0.0315333
0.0320752
0.0326578
0.0332825
0.0339722
0.0347592
0.035666
0.0367801
0.0383267
0.0407902
0.0452062
0.0540399
0.0811816
0.11777
0.132328
0.163366
0.177697
0.141595
0.0323363
0.0308188
0.0297142
0.028918
0.0283594
0.0280114
0.0278784
0.0278946
0.0280332
0.0282416
0.0285159
0.0288312
0.0291896
0.0295752
0.0300116
0.0304335
0.0309128
0.0314413
0.0319765
0.032546
0.0331627
0.0338306
0.0345782
0.0354472
0.0364787
0.0377995
0.0397291
0.0429335
0.0487131
0.0622338
0.0991171
0.12627
0.139007
0.167407
0.176501
0.139099
0.0323374
0.030819
0.0297103
0.0289067
0.0283599
0.0280227
0.027866
0.0278831
0.0280062
0.0282171
0.0284768
0.0287905
0.0291366
0.02952
0.0299266
0.0303821
0.0308231
0.0313227
0.0318733
0.0324338
0.0330343
0.0336899
0.0344083
0.0352249
0.0361941
0.0373832
0.0389747
0.0414174
0.0455931
0.053354
0.0744324
0.115034
0.131747
0.145293
0.169812
0.173523
0.137516
0.0323362
0.0308253
0.0297138
0.0289041
0.0283475
0.0280194
0.0278719
0.0278644
0.0279882
0.0281838
0.0284458
0.0287448
0.0290889
0.0294597
0.0298642
0.0302895
0.0307632
0.0312232
0.0317439
0.0323185
0.0329072
0.0335427
0.0342431
0.035021
0.0359209
0.0370142
0.0384048
0.0403557
0.0434873
0.048922
0.0601197
0.0920529
0.127161
0.135821
0.151208
0.171274
0.168825
0.13676
0.0323116
0.030831
0.0297223
0.0289083
0.0283436
0.0280036
0.0278639
0.0278646
0.0279634
0.0281596
0.0284063
0.0287076
0.0290367
0.029405
0.0297966
0.0302198
0.0306628
0.0311544
0.0316341
0.0321773
0.0327784
0.0333989
0.0340744
0.0348268
0.0356756
0.0366769
0.037926
0.0395787
0.0420111
0.0460574
0.0531679
0.0705733
0.111482
0.134595
0.139517
0.156594
0.171984
0.16244
0.136322
0.0322758
0.0308152
0.0297311
0.028917
0.0283465
0.0279967
0.0278433
0.0278514
0.0279581
0.028129
0.0283762
0.028662
0.0289934
0.0293465
0.0297348
0.0301448
0.0305855
0.0310458
0.031556
0.0320566
0.0326244
0.0332549
0.0339117
0.0346334
0.0354469
0.0363807
0.037507
0.0389549
0.0409534
0.044033
0.0492674
0.0590599
0.0857316
0.126761
0.13772
0.143052
0.159843
0.172703
0.156601
0.136058
0.032264
0.0307884
0.0297196
0.0289264
0.028354
0.0279964
0.0278317
0.0278255
0.0279396
0.0281183
0.0283399
0.0286259
0.0289418
0.0292971
0.0296699
0.0300759
0.0305029
0.0309607
0.0314387
0.0319686
0.0324919
0.0330867
0.0337505
0.034449
0.0352244
0.0361102
0.0371473
0.0384301
0.0401354
0.042596
0.0465374
0.0532789
0.0680315
0.106074
0.135762
0.140375
0.146577
0.163002
0.171663
0.151404
0.135905
0.0322766
0.0307826
0.0296974
0.0289163
0.0283617
0.0280018
0.0278274
0.027809
0.0279085
0.0280947
0.028324
0.0285839
0.0288999
0.0292396
0.0296146
0.0300045
0.0304268
0.0308702
0.0313454
0.031842
0.0323933
0.0329415
0.0335664
0.034268
0.0350149
0.0358533
0.0368258
0.0379896
0.0394713
0.0415159
0.0445973
0.0496571
0.0586489
0.0814631
0.125019
0.140644
0.142782
0.149912
0.165192
0.17032
0.147158
0.135796
0.0322834
0.0307975
0.0296944
0.0288958
0.0283508
0.0280061
0.0278299
0.0278003
0.0278872
0.0280587
0.0282955
0.0285628
0.0288523
0.0291919
0.0295512
0.0299433
0.0303489
0.0307867
0.0312468
0.03174
0.0322566
0.0328315
0.0334072
0.0340662
0.0348112
0.0356143
0.0365275
0.0376048
0.0389266
0.0406656
0.0431633
0.0470745
0.0535513
0.066614
0.100969
0.136591
0.142592
0.144437
0.152337
0.166917
0.167725
0.143462
0.135713
0.0322677
0.0308079
0.0297098
0.0288933
0.0283297
0.0279926
0.0278298
0.027799
0.0278738
0.0280327
0.0282546
0.0285295
0.028826
0.0291387
0.0294977
0.029874
0.0302816
0.0307022
0.0311556
0.0316328
0.0321452
0.0326837
0.0332849
0.0338916
0.0345891
0.0353841
0.0362534
0.037256
0.0384621
0.0399841
0.0420613
0.0451685
0.0501623
0.0586706
0.0787889
0.121799
0.142085
0.144229
0.145825
0.154624
0.167477
0.164488
0.14059
0.135647
0.0322501
0.0307981
0.0297213
0.0289083
0.0283263
0.0279694
0.0278128
0.0277946
0.0278682
0.028015
0.0282241
0.0284838
0.0287881
0.0291073
0.029439
0.0298147
0.0302062
0.0306286
0.0310641
0.0315336
0.032029
0.0325621
0.0331249
0.0337555
0.0343973
0.035139
0.0359921
0.0369397
0.0380507
0.0394172
0.0411978
0.0437262
0.0476501
0.0540189
0.0660444
0.0969829
0.136492
0.14491
0.145508
0.147039
0.157257
0.167402
0.159966
0.138433
0.135595
0.0322284
0.0307874
0.0297143
0.0289194
0.0283401
0.0279639
0.0277863
0.0277738
0.0278601
0.0280053
0.0282021
0.0284489
0.0287377
0.0290648
0.0294025
0.0297504
0.0301411
0.0305471
0.030984
0.0314349
0.0319215
0.0324363
0.0329922
0.0335821
0.034246
0.0349277
0.0357202
0.0366416
0.0376828
0.0389268
0.0404971
0.0426172
0.0457518
0.0507427
0.0590224
0.0774257
0.118608
0.1433
0.145976
0.146299
0.147932
0.160054
0.166884
0.154961
0.137013
0.135562
0.032205
0.0307719
0.0297067
0.0289131
0.02835
0.0279762
0.0277778
0.0277434
0.0278355
0.0279936
0.0281885
0.0284226
0.0286984
0.0290099
0.0293554
0.0297089
0.0300712
0.0304759
0.0308962
0.031348
0.031815
0.03232
0.0328561
0.0334373
0.0340579
0.0347592
0.0354867
0.0363384
0.0373405
0.0384948
0.0399048
0.0417386
0.044312
0.048258
0.0546034
0.0661081
0.094504
0.135578
0.146049
0.146856
0.14641
0.14942
0.161923
0.166289
0.149628
0.136336
0.135542
0.0321907
0.0307541
0.0296941
0.0289064
0.0283431
0.0279841
0.0277883
0.0277315
0.0278014
0.0279653
0.0281731
0.0284051
0.0286679
0.0289663
0.0292961
0.0296571
0.0300245
0.0304004
0.0308189
0.0312535
0.031721
0.0322054
0.0327305
0.0332905
0.0339
0.034555
0.0352987
0.0360792
0.0370004
0.0380989
0.0393918
0.0410127
0.0431937
0.0463767
0.0513802
0.0595702
0.0770627
0.115867
0.144064
0.147637
0.146958
0.146646
0.151441
0.163648
0.164487
0.144576
0.135996
0.135531
0.0322016
0.030744
0.029679
0.0288946
0.0283352
0.0279756
0.0277939
0.0277399
0.0277864
0.0279275
0.0281412
0.0283861
0.0286465
0.0289316
0.0292481
0.0295933
0.0299682
0.0303485
0.0307376
0.0311698
0.0316194
0.0321037
0.0326073
0.0331551
0.0337415
0.0343826
0.0350763
0.0358684
0.036711
0.0377146
0.0389298
0.0403954
0.0422891
0.0449345
0.0489337
0.0552733
0.0665508
0.0932084
0.134898
0.147207
0.147762
0.14692
0.147014
0.153797
0.164283
0.161721
0.140719
0.135785
0.135524
0.032224
0.0307557
0.0296705
0.0288802
0.0283229
0.0279654
0.0277829
0.0277428
0.027792
0.0279093
0.0281
0.0283508
0.028624
0.0289063
0.0292093
0.029541
0.0298999
0.0302875
0.0306804
0.0310826
0.0315292
0.0319947
0.0324975
0.0330227
0.0335957
0.0342115
0.0348877
0.0356251
0.0364735
0.0373894
0.0384918
0.0398505
0.041535
0.0437885
0.0470593
0.0521209
0.0602723
0.077308
0.114421
0.144668
0.148428
0.147865
0.146848
0.147268
0.156984
0.164227
0.156687
0.138186
0.13565
0.13552
0.0322373
0.0307788
0.0296819
0.0288721
0.0283079
0.0279514
0.0277698
0.0277293
0.0277922
0.0279122
0.0280786
0.028306
0.0285852
0.0288802
0.0291801
0.0294981
0.0298432
0.0302146
0.0306145
0.03102
0.0314357
0.0318976
0.0323807
0.0329042
0.0334535
0.0340544
0.0347026
0.0354184
0.0362054
0.0371203
0.0381234
0.039346
0.040884
0.0428523
0.045587
0.0496938
0.0560929
0.0672944
0.0930666
0.134521
0.147909
0.148595
0.147547
0.146722
0.148455
0.159433
0.163758
0.150824
0.136715
0.135578
0.135519
0.0322304
0.0307936
0.0297045
0.0288828
0.0282991
0.0279349
0.0277536
0.0277132
0.0277762
0.0279098
0.0280787
0.0282815
0.028537
0.028838
0.0291505
0.029465
0.029796
0.0301536
0.0305369
0.0309491
0.0313675
0.0317977
0.0322763
0.0327792
0.0333255
0.0339014
0.0345331
0.0352176
0.0359781
0.0368228
0.0378164
0.0389245
0.0402958
0.0420626
0.0444055
0.0477878
0.052976
0.06121
0.0781203
0.114148
0.145097
0.148821
0.148468
0.147344
0.146798
0.150576
0.161414
0.162793
0.144936
0.136054
0.135545
0.135518
0.0321997
0.0307906
0.0297196
0.0289044
0.0283091
0.0279246
0.027735
0.0276947
0.0277575
0.0278913
0.0280737
0.0282788
0.0285093
0.0287865
0.029105
0.0294318
0.0297592
0.0301021
0.0304714
0.0308666
0.0312913
0.0317237
0.0321699
0.0326672
0.0331917
0.033763
0.0343682
0.0350343
0.0357598
0.0365713
0.0374842
0.0385713
0.0398078
0.0413662
0.0434312
0.0462766
0.0505205
0.0570613
0.0684272
0.0941433
0.134753
0.148363
0.148973
0.148288
0.147107
0.147244
0.153072
0.162433
0.159561
0.14046
0.135767
0.135529
0.135518
0.0321636
0.0307662
0.0297181
0.0289189
0.0283296
0.0279337
0.0277231
0.027674
0.0277366
0.0278702
0.0280528
0.0282712
0.0285039
0.0287557
0.0290501
0.029383
0.0297224
0.0300612
0.0304156
0.0307965
0.0312039
0.031642
0.0320899
0.0325539
0.0330717
0.0336196
0.0342183
0.034856
0.0355609
0.0363329
0.037204
0.0381981
0.0393977
0.0407932
0.0425921
0.0450533
0.0485758
0.0539224
0.0623525
0.0795479
0.115295
0.145743
0.149026
0.148883
0.147966
0.147002
0.147829
0.156499
0.162248
0.154295
0.137732
0.135622
0.135522
0.135517
0.0321324
0.0307363
0.0296967
0.0289177
0.0283431
0.0279531
0.0277312
0.0276601
0.0277137
0.0278471
0.0280295
0.0282479
0.0284937
0.0287475
0.0290162
0.0293249
0.0296703
0.0300209
0.0303706
0.0307362
0.031129
0.0315493
0.0320024
0.0324677
0.0329511
0.0334909
0.0340645
0.0346935
0.0353676
0.0361162
0.0369417
0.0378841
0.038975
0.0403116
0.0419081
0.0440226
0.0470176
0.0514374
0.0581521
0.0698936
0.0960078
0.135894
0.148674
0.149162
0.148707
0.14766
0.146828
0.149146
0.158632
0.161515
0.147742
0.136362
0.135558
0.135519
0.135517
0.0321096
0.0307101
0.0296698
0.0288974
0.0283413
0.0279654
0.0277493
0.0276669
0.0276977
0.0278219
0.0280041
0.0282224
0.028468
0.0287347
0.0290052
0.0292879
0.0296088
0.0299654
0.0303265
0.030687
0.0310639
0.0314694
0.0319042
0.0323741
0.0328582
0.0333626
0.0339266
0.0345283
0.035191
0.0359059
0.0367044
0.0375927
0.0386209
0.0398285
0.0413351
0.0431909
0.0457268
0.04944
0.0549977
0.0636906
0.0814801
0.117585
0.146341
0.149101
0.149023
0.14854
0.147378
0.147214
0.15144
0.160639
0.159942
0.141998
0.135835
0.135532
0.135518
0.135517
0.0321013
0.0306912
0.029646
0.0288714
0.0283208
0.0279626
0.0277605
0.0276837
0.0277028
0.0278039
0.0279767
0.0281948
0.0284402
0.0287066
0.0289897
0.0292739
0.0295687
0.0299007
0.0302677
0.0306391
0.0310103
0.0313995
0.0318191
0.0322701
0.0327582
0.0332626
0.0337898
0.0343804
0.0350133
0.0357136
0.0364747
0.0373305
0.0382944
0.0394262
0.0407767
0.0424987
0.0446953
0.0477993
0.0524557
0.0594306
0.0717198
0.0986965
0.13762
0.148777
0.149006
0.148848
0.148356
0.147449
0.148008
0.154642
0.160732
0.154874
0.138297
0.135635
0.135522
0.135517
0.135517
0.0321076
0.0306852
0.0296288
0.0288482
0.0282942
0.0279409
0.0277563
0.0276937
0.0277182
0.0278072
0.0279567
0.0281652
0.0284105
0.0286766
0.0289593
0.0292557
0.0295517
0.0298573
0.0301996
0.0305768
0.0309586
0.0313413
0.0317441
0.0321795
0.0326479
0.0331556
0.0336822
0.0342345
0.0348544
0.035522
0.0362646
0.0370782
0.0380017
0.0390572
0.0403152
0.041844
0.0438452
0.0464978
0.0503632
0.0561984
0.0653222
0.0840228
0.120872
0.14693
0.149
0.148907
0.148739
0.148207
0.147532
0.149001
0.15687
0.160071
0.148478
0.136478
0.135556
0.135519
0.135517
0.135517
0.0321305
0.0306926
0.0296235
0.0288313
0.0282705
0.027913
0.0277328
0.0276881
0.027727
0.0278212
0.0279581
0.0281431
0.0283787
0.0286449
0.0289271
0.0292229
0.0295308
0.0298373
0.030153
0.0305054
0.0308928
0.0312856
0.0316814
0.0320993
0.0325515
0.0330386
0.0335676
0.0341186
0.0346985
0.0353511
0.0360576
0.036848
0.0377223
0.0387273
0.0398938
0.0413079
0.0430647
0.0454354
0.0487021
0.0535533
0.0609123
0.0740471
0.102311
0.139839
0.148826
0.148989
0.148872
0.148731
0.147967
0.147324
0.150445
0.159226
0.158379
0.14205
0.13581
0.135529
0.135518
0.135517
0.135517
0.0321478
0.0307154
0.029631
0.0288258
0.0282531
0.027888
0.0277031
0.0276628
0.02772
0.0278286
0.0279706
0.0281425
0.0283545
0.0286108
0.0288932
0.0291885
0.0294955
0.0298135
0.0301298
0.0304555
0.0308179
0.0312162
0.0316216
0.0320318
0.0324659
0.0329361
0.0334435
0.0339957
0.0345733
0.035184
0.0358732
0.0366237
0.0374688
0.0384148
0.0395186
0.040821
0.0424321
0.044487
0.047355
0.0514397
0.0575175
0.0673205
0.0872845
0.12503
0.147515
0.14899
0.149006
0.148943
0.148682
0.147842
0.147573
0.153976
0.159439
0.154096
0.138076
0.135609
0.135521
0.135517
0.135517
0.135517
0.0321587
0.030733
0.0296531
0.0288331
0.0282468
0.0278695
0.0276765
0.0276311
0.027693
0.0278203
0.0279766
0.0281535
0.0283519
0.0285844
0.028857
0.0291526
0.0294589
0.0297757
0.030103
0.0304291
0.0307647
0.0311378
0.0315484
0.0319677
0.0323932
0.0328447
0.0333343
0.0338638
0.0344414
0.0350485
0.0356936
0.0364242
0.0372247
0.0381336
0.0391663
0.0403898
0.0418611
0.0437264
0.0461794
0.0497179
0.0548474
0.062587
0.0769996
0.106784
0.142111
0.148837
0.14898
0.149024
0.14909
0.148671
0.147903
0.149361
0.15635
0.159445
0.146977
0.136271
0.135543
0.135518
0.135517
0.135517
0.135517
0.0321598
0.0307456
0.0296705
0.0288543
0.0282536
0.0278621
0.0276565
0.0276025
0.0276597
0.0277917
0.0279669
0.028158
0.0283612
0.0285798
0.0288284
0.0291141
0.0294209
0.0297369
0.0300628
0.0303991
0.030735
0.0310813
0.0314664
0.0318906
0.0323246
0.0327667
0.0332368
0.0337476
0.034301
0.0349066
0.0355465
0.0362304
0.0370082
0.0378662
0.0388516
0.0399895
0.0413597
0.0430452
0.0452454
0.0482366
0.0526605
0.0590836
0.0696906
0.0915713
0.129524
0.147912
0.148881
0.148935
0.149043
0.149145
0.148557
0.148178
0.150548
0.158265
0.156063
0.140805
0.135711
0.135524
0.135518
0.135517
0.135517
0.135517
0.0321571
0.0307492
0.0296837
0.0288716
0.028274
0.0278682
0.0276478
0.0275811
0.0276294
0.0277569
0.027937
0.028147
0.0283643
0.0285874
0.0288216
0.0290833
0.0293803
0.0296968
0.0300218
0.0303563
0.0307018
0.0310481
0.0314064
0.0318048
0.0322434
0.0326932
0.0331531
0.0336434
0.0341772
0.034757
0.0353935
0.0360701
0.0367979
0.0376299
0.0385559
0.0396345
0.0409004
0.042454
0.0444176
0.0470671
0.0507815
0.0563152
0.0646079
0.0806417
0.112147
0.144103
0.148723
0.148791
0.148925
0.149045
0.149029
0.148242
0.148107
0.153231
0.158084
0.151806
0.137228
0.135568
0.135519
0.135517
0.135517
0.135517
0.135517
0.0321489
0.0307493
0.0296886
0.0288849
0.0282912
0.0278877
0.0276532
0.0275712
0.0276066
0.027725
0.0279007
0.0281156
0.028352
0.028589
0.0288275
0.0290745
0.0293473
0.029654
0.0299796
0.0303131
0.0306562
0.0310117
0.0313698
0.0317412
0.0321537
0.0326076
0.0330745
0.0335537
0.0340661
0.034625
0.0352338
0.0359046
0.0366225
0.0374006
0.0382956
0.0393042
0.0404965
0.0419206
0.0437088
0.0460409
0.0492959
0.0539488
0.0608904
0.0725899
0.0969543
0.134045
0.148225
0.148716
0.148811
0.14903
0.149113
0.148702
0.14794
0.148772
0.156158
0.157832
0.144115
0.135937
0.135529
0.135518
0.135517
0.135517
0.135517
0.135517
0.0321379
0.030744
0.0296899
0.0288903
0.0283043
0.0279048
0.0276719
0.0275757
0.0275954
0.0277008
0.0278672
0.028078
0.0283191
0.0285754
0.0288276
0.0290785
0.0293362
0.0296187
0.0299345
0.0302687
0.0306106
0.0309632
0.03133
0.031701
0.0320864
0.0325138
0.0329843
0.0334695
0.0339698
0.0345063
0.0350929
0.0357338
0.036443
0.0372077
0.0380439
0.0390141
0.040124
0.0414561
0.0430801
0.0451756
0.0480039
0.0520661
0.0578794
0.0670171
0.0848706
0.118733
0.145824
0.148676
0.148756
0.14896
0.14922
0.14919
0.148499
0.148082
0.151885
0.157443
0.154007
0.138794
0.135608
0.13552
0.135517
0.135517
0.135517
0.135517
0.135517
0.0321218
0.0307356
0.029686
0.028892
0.0283096
0.0279176
0.0276891
0.0275936
0.0275991
0.0276882
0.0278416
0.0280429
0.0282802
0.028541
0.0288127
0.029077
0.0293382
0.0296054
0.0298969
0.0302213
0.0305641
0.0309152
0.0312786
0.0316577
0.0320425
0.0324426
0.032886
0.0333743
0.0338796
0.034403
0.034966
0.0355832
0.0362599
0.0370124
0.0378306
0.0387349
0.0397974
0.0410314
0.0425385
0.0444214
0.0469281
0.0504225
0.0555089
0.0628959
0.0762058
0.103106
0.138559
0.148461
0.148786
0.14892
0.149243
0.149493
0.149289
0.148403
0.1493
0.154028
0.157545
0.147508
0.136322
0.135536
0.135518
0.135517
0.135517
0.135517
0.135517
0.135517
0.0321059
0.0307222
0.0296789
0.0288886
0.0283111
0.0279225
0.0277013
0.0276107
0.027616
0.027691
0.0278277
0.0280159
0.0282436
0.0285007
0.0287768
0.0290608
0.0293352
0.0296055
0.0298814
0.0301815
0.0305144
0.0308664
0.031228
0.0316033
0.0319955
0.0323948
0.0328107
0.0332714
0.0337789
0.0343062
0.0348549
0.0354473
0.0360987
0.0368156
0.0376172
0.0384972
0.039484
0.0406595
0.0420476
0.0437786
0.0460044
0.0490667
0.0534327
0.0597846
0.0699073
0.090164
0.125793
0.147078
0.148721
0.148863
0.149136
0.149411
0.149487
0.149051
0.148545
0.149555
0.15631
0.154846
0.140591
0.135666
0.135521
0.135517
0.135517
0.135517
0.135517
0.135517
0.135517
0.0320902
0.0307087
0.0296668
0.0288817
0.0283075
0.0279233
0.0277054
0.0276223
0.0276325
0.0277071
0.0278295
0.0280006
0.0282151
0.0284626
0.0287351
0.0290235
0.0293176
0.0296008
0.0298795
0.0301636
0.0304723
0.0308144
0.0311768
0.0315498
0.0319377
0.0323438
0.0327588
0.0331917
0.0336709
0.0341995
0.0347509
0.0353277
0.0359527
0.0366424
0.0374049
0.0382629
0.0392163
0.0403043
0.0416188
0.0432014
0.045226
0.0479152
0.0517208
0.0571639
0.0653751
0.0807512
0.110203
0.142468
0.14847
0.148743
0.14895
0.149225
0.149323
0.149313
0.148692
0.148092
0.152029
0.156185
0.150087
0.136865
0.135545
0.135518
0.135517
0.135517
0.135517
0.135517
0.135517
0.135517
0.0320786
0.0306944
0.0296543
0.0288698
0.0283001
0.0279189
0.0277053
0.0276257
0.0276434
0.0277228
0.0278447
0.0280014
0.0281984
0.0284327
0.0286955
0.0289803
0.0292787
0.0295817
0.0298728
0.0301596
0.0304521
0.03077
0.0311225
0.0314961
0.0318813
0.0322826
0.0327037
0.0331355
0.0335867
0.0340861
0.0346377
0.0352157
0.0358237
0.0364854
0.0372184
0.0380329
0.0389569
0.0400004
0.041212
0.0426996
0.0445343
0.0469517
0.0502656
0.0550258
0.0618701
0.073521
0.0969482
0.132521
0.147724
0.148554
0.148775
0.149022
0.149179
0.149275
0.149006
0.148352
0.148738
0.154819
0.155898
0.142326
0.135757
0.135522
0.135517
0.135517
0.135517
0.135517
0.135517
0.135517
0.135517
0.0320689
0.030684
0.0296405
0.0288575
0.0282879
0.0279107
0.0277
0.0276247
0.0276463
0.0277331
0.0278597
0.0280157
0.0281982
0.0284145
0.0286641
0.0289391
0.0292342
0.0295413
0.0298523
0.0301511
0.0304459
0.0307476
0.0310758
0.0314395
0.0318249
0.032223
0.0326387
0.033076
0.033526
0.033997
0.0345183
0.0350951
0.0357027
0.0363458
0.0370488
0.0378314
0.038706
0.03971
0.0408639
0.0422284
0.0439365
0.0461042
0.0490529
0.0531952
0.0591272
0.068279
0.0860697
0.118742
0.145198
0.148351
0.148619
0.148904
0.149115
0.149264
0.149265
0.148904
0.148539
0.151305
0.155623
0.151324
0.13753
0.135554
0.135518
0.135517
0.135517
0.135517
0.135517
0.135517
0.135517
0.135517
0.0320617
0.0306753
0.0296305
0.0288436
0.0282748
0.0278977
0.0276908
0.0276185
0.0276443
0.0277353
0.0278692
0.0280299
0.0282115
0.0284133
0.0286445
0.0289063
0.0291914
0.0294954
0.0298104
0.0301291
0.0304356
0.0307394
0.0310512
0.0313904
0.0317658
0.0321638
0.0325757
0.0330071
0.0334618
0.0339314
0.0344238
0.0349692
0.0355739
0.0362146
0.0368971
0.0376473
0.0384871
0.0394333
0.040536
0.041826
0.0433827
0.0453785
0.0479959
0.0516558
0.0568254
0.0644412
0.0780904
0.104648
0.13864
0.148104
0.148491
0.1488
0.149071
0.149274
0.149471
0.149452
0.14883
0.149542
0.153657
0.155686
0.143867
0.13586
0.135523
0.135517
0.135517
0.135517
0.135517
0.135517
0.135517
0.135517
0.135517
0.0320554
0.030669
0.0296221
0.0288334
0.0282604
0.0278833
0.0276766
0.027608
0.0276372
0.0277324
0.0278708
0.0280388
0.028225
0.0284257
0.0286421
0.0288852
0.0291571
0.0294511
0.029763
0.0300854
0.0304119
0.0307271
0.031041
0.0313636
0.0317144
0.0321022
0.0325136
0.0329404
0.0333886
0.0338622
0.0343531
0.034869
0.0354408
0.0360766
0.0367544
0.0374818
0.0382862
0.0391932
0.0402277
0.041452
0.0429119
0.0447168
0.0470966
0.0503181
0.054894
0.0613873
0.0720351
0.0931844
0.127555
0.146957
0.148428
0.148697
0.149025
0.14924
0.149438
0.149636
0.149329
0.148932
0.150099
0.15508
0.151304
0.138078
0.135562
0.135518
0.135517
0.135517
0.135517
0.135517
0.135517
0.135517
0.135517
0.135517
0.032051
0.0306638
0.0296161
0.0288248
0.0282496
0.0278681
0.0276605
0.0275923
0.0276253
0.0277243
0.0278671
0.0280398
0.0282332
0.0284385
0.0286537
0.0288817
0.0291346
0.0294152
0.0297171
0.0300365
0.0303665
0.0307016
0.0310268
0.0313514
0.0316854
0.0320483
0.0324492
0.032875
0.0333179
0.0337844
0.0342786
0.0347927
0.0353343
0.0359355
0.0366061
0.0373259
0.0381046
0.0389718
0.039961
0.041105
0.0424805
0.0441579
0.0462901
0.0491882
0.0532106
0.0589038
0.0675047
0.083829
0.114109
0.143398
0.148249
0.148595
0.148919
0.149167
0.149351
0.149511
0.149491
0.148972
0.148524
0.152422
0.154344
0.144914
0.135953
0.135523
0.135517
0.135517
0.135517
0.135517
0.135517
0.135517
0.135517
0.135517
0.135517
0.0320469
0.0306603
0.0296112
0.0288186
0.0282405
0.0278561
0.0276441
0.0275748
0.0276083
0.0277113
0.0278581
0.0280353
0.0282337
0.0284461
0.0286658
0.0288923
0.0291299
0.0293912
0.0296797
0.0299889
0.0303159
0.0306545
0.0309995
0.0313353
0.0316711
0.0320171
0.0323929
0.0328078
0.033249
0.0337095
0.0341959
0.0347126
0.0352521
0.0358221
0.0364561
0.0371658
0.0379336
0.0387714
0.0397139
0.040805
0.0420852
0.0436521
0.045615
0.0481881
0.0517805
0.0567955
0.0640742
0.0767717
0.101424
0.135674
0.147765
0.148428
0.148749
0.149009
0.149194
0.149315
0.149355
0.149139
0.148608
0.149754
0.154023
0.152834
0.138427
0.135564
0.135518
0.135517
0.135517
0.135517
0.135517
0.135517
0.135517
0.135517
0.135517
0.135517
0.0320436
0.0306573
0.0296081
0.0288137
0.0282337
0.0278461
0.0276308
0.0275574
0.0275895
0.0276931
0.0278439
0.0280254
0.0282284
0.0284461
0.0286729
0.0289039
0.0291396
0.0293854
0.0296543
0.02995
0.0302667
0.0306021
0.0309504
0.031306
0.0316529
0.0320006
0.0323594
0.0327488
0.0331788
0.0336367
0.0341162
0.0346244
0.0351658
0.0357333
0.0363349
0.0370057
0.03776
0.0385829
0.0394905
0.0405259
0.0417429
0.0431951
0.0450107
0.047357
0.0505232
0.0550077
0.0612941
0.07141
0.0912637
0.12431
0.14611
0.148243
0.148544
0.148824
0.149021
0.149175
0.149246
0.149282
0.148978
0.148698
0.151953
0.154966
0.144865
0.136009
0.135522
0.135517
0.135517
0.135517
0.135517
0.135517
0.135517
0.135517
0.135517
0.135517
0.135517
0.0320412
0.0306551
0.0296056
0.0288106
0.0282283
0.0278385
0.0276196
0.0275427
0.0275709
0.027673
0.0278246
0.0280101
0.0282177
0.02844
0.0286724
0.0289104
0.0291506
0.0293942
0.0296472
0.0299231
0.0302262
0.030551
0.0308959
0.0312547
0.0316216
0.0319803
0.0323407
0.032713
0.0331171
0.0335632
0.0340393
0.0345396
0.0350718
0.0356402
0.0362389
0.036876
0.0375885
0.0383938
0.039281
0.0402737
0.0414239
0.0427983
0.044472
0.0466184
0.0494844
0.0534335
0.0590057
0.0673176
0.0828869
0.11161
0.14188
0.14799
0.148345
0.148643
0.148882
0.149104
0.149247
0.149378
0.149408
0.148912
0.150346
0.154023
0.15118
0.138696
0.135562
0.135518
0.135517
0.135517
0.135517
0.135517
0.135517
0.135517
0.135517
0.135517
0.135517
0.135517
0.0320404
0.030654
0.0296041
0.0288082
0.0282248
0.0278324
0.0276108
0.0275302
0.0275547
0.0276531
0.0278033
0.0279897
0.0282013
0.0284285
0.0286656
0.0289095
0.0291566
0.0294046
0.0296552
0.0299149
0.0301978
0.0305089
0.030843
0.0311981
0.031568
0.0319468
0.0323182
0.0326921
0.0330788
0.0334987
0.0339623
0.0344582
0.0349814
0.0355399
0.0361385
0.0367719
0.0374491
0.0382091
0.0390737
0.0400384
0.0411362
0.0424288
0.0440032
0.0459689
0.0485638
0.0521266
0.0570407
0.0641755
0.076458
0.100098
0.133914
0.147408
0.148234
0.148525
0.148775
0.149021
0.149247
0.149482
0.149664
0.149402
0.14944
0.151293
0.153537
0.145443
0.135989
0.135522
0.135517
0.135517
0.135517
0.135517
0.135517
0.135517
0.135517
0.135517
0.135517
0.135517
0.135517
0.0320404
0.0306547
0.0296039
0.028807
0.0282222
0.0278282
0.0276039
0.0275202
0.027541
0.0276357
0.0277822
0.027967
0.0281798
0.028411
0.0286532