/*--------------------------------*- C++ -*----------------------------------*\
| =========                 |                                                 |
| \\      /  F ield         | OpenFOAM: The Open Source CFD Toolbox           |
|  \\    /   O peration     | Version:  v2012                                 |
|   \\  /    A nd           | Website:  www.openfoam.com                      |
|    \\/     M anipulation  |                                                 |
\*---------------------------------------------------------------------------*/
FoamFile
{
    version     2.0;
    format      ascii;
    class       volScalarField::Internal;
    location    "13200";
    object      Rstream;
}
// * * * * * * * * * * * * * * * * * * * * * * * * * * * * * * * * * * * * * //

dimensions      [0 0 -1 0 0 0 0];


value           nonuniform List<scalar> 
39402
(
0
0
0
0
0
0
0
-2.64204e-20
0
0
0
-2.24899e-20
7.51352e-19
9.02542e-17
0
1.31608e-21
-6.42836e-20
0
5.46529e-19
-1.98829e-17
-3.38207e-15
0
6.2444e-22
-2.2865e-19
0
2.25937e-18
-5.2655e-16
5.56325e-15
0
1.49754e-20
-5.99514e-20
-1.27438e-19
-6.96093e-20
5.0868e-18
8.54264e-17
0
0
0
9.18184e-21
-3.42244e-20
0
-5.7407e-20
2.73997e-18
8.18946e-16
0
0
0
0
-1.0379e-19
2.41681e-19
8.26111e-19
2.88559e-19
0
-7.32282e-16
0
-1.47993e-22
0
0
0
-8.17247e-20
-4.0267e-19
7.0628e-19
1.56997e-18
0
3.68829e-16
0
0
-5.1156e-23
0
0
0
0
-1.19107e-18
0
1.16991e-18
1.60622e-17
0
0
0
0
-2.21072e-21
0
6.98911e-20
0
0
8.31147e-19
0
-2.44738e-18
-2.25595e-17
0
-3.82996e-14
0
0
0
-6.44947e-21
0
5.79695e-20
2.04529e-19
7.53601e-19
2.73318e-18
0
-2.22157e-18
7.5202e-18
3.30839e-16
3.7455e-14
0
0
0
-1.52091e-21
-5.33207e-21
6.76228e-20
0
4.02008e-19
6.8004e-19
1.32552e-18
0
0
3.29314e-17
6.71654e-16
0
0
0
0
2.17351e-20
1.61568e-21
-6.91736e-21
6.22252e-20
-2.28041e-19
2.09235e-19
0
0
0
-4.92985e-20
-4.84046e-17
1.09162e-15
0
7.66454e-22
6.72479e-21
-7.93439e-21
0
-7.69755e-21
-2.08685e-20
0
-8.05276e-21
-1.9698e-19
0
-7.96908e-19
0
0
-1.83123e-17
-4.47625e-17
7.21997e-16
0
-4.80815e-22
4.48947e-21
-2.99468e-21
-5.75675e-21
-2.95011e-20
3.69557e-20
-6.58502e-20
-8.11073e-21
0
-5.02577e-19
-4.53747e-19
-7.4576e-19
0
0
-2.07951e-18
-6.25964e-17
-8.58709e-16
0
0
-1.66039e-22
4.56392e-22
-5.16624e-21
-2.5641e-20
-2.54128e-20
5.07132e-20
-4.24182e-20
3.83699e-21
0
-4.80429e-19
-8.46606e-19
-4.60735e-20
1.17922e-18
0
0
-5.86387e-17
-8.32476e-16
0
-5.36182e-21
0
6.9449e-21
-2.76586e-20
0
-2.22212e-20
0
0
-1.72517e-21
3.53059e-21
0
0
-4.55142e-19
-1.08031e-18
1.56542e-18
7.81572e-17
0
0
0
0
0
1.60153e-21
8.665e-22
5.04062e-21
-2.17921e-20
0
7.2496e-20
8.83575e-20
1.6125e-19
0
0
-2.36761e-20
1.22659e-19
6.54943e-19
-1.02912e-18
3.9451e-19
-1.7296e-17
0
-1.63272e-16
1.10169e-15
0
-8.30996e-23
0
7.453e-22
0
0
-5.23682e-20
-2.23734e-21
6.61551e-20
8.009e-20
3.34048e-19
-1.30836e-19
-7.18041e-20
0
1.16729e-19
1.05464e-18
3.3995e-19
-3.97616e-17
0
0
1.41149e-17
1.08107e-15
-2.9463e-14
0
-1.29209e-22
-3.91671e-22
0
0
0
-1.06752e-19
-7.93319e-22
-1.15656e-21
0
1.72481e-19
-1.22994e-19
-3.31676e-20
0
2.69985e-20
4.1136e-19
3.26005e-19
-4.3225e-18
0
-2.30938e-18
1.66351e-16
1.19265e-17
2.1575e-14
-3.39522e-21
-1.01535e-22
-2.0796e-22
1.77682e-20
3.86305e-20
-1.56616e-21
-2.89544e-22
-5.54084e-20
-8.34906e-22
0
0
2.48256e-19
1.23413e-20
0
3.61304e-21
0
0
0
-3.35568e-18
-2.18078e-17
0
1.39879e-17
-3.75337e-16
0
0
-3.17162e-23
-4.87184e-21
1.61694e-20
-2.16157e-20
3.13737e-20
6.00446e-20
-3.63715e-22
-1.65003e-19
-1.9492e-19
-2.35846e-19
-1.79837e-21
2.36845e-19
-1.78743e-19
-2.0004e-19
-2.27673e-20
-1.02116e-18
0
-3.5559e-18
0
-2.08912e-17
0
-1.51723e-16
5.08168e-16
0
-1.55906e-22
-4.89423e-21
-5.56496e-21
-5.26282e-21
1.30219e-20
1.19023e-20
0
5.49442e-20
1.65986e-19
-1.54511e-19
-4.05661e-19
3.75738e-20
-3.11127e-19
-5.36273e-24
-1.71172e-19
-2.05094e-19
0
4.642e-19
0
-3.37911e-18
-8.38792e-21
0
0
-1.48892e-16
3.65204e-16
0
-1.90649e-22
-1.02461e-21
-1.41771e-21
-5.95533e-21
-2.04236e-20
0
3.39077e-20
1.39753e-19
4.05767e-21
-3.35673e-20
-2.18136e-19
-2.08764e-19
2.37407e-19
-2.92313e-19
4.37296e-21
-1.71128e-20
0
0
1.42644e-18
0
-8.62901e-21
-1.77637e-17
0
0
0
3.51695e-16
-1.30669e-15
-3.36901e-23
-6.44703e-22
-2.59538e-22
8.95785e-22
-1.06066e-20
-1.1496e-20
-4.67329e-20
-9.69883e-20
2.87281e-19
-1.73612e-19
3.01084e-20
-2.12853e-19
-2.87922e-19
4.25738e-21
4.41961e-21
-4.32369e-21
0
0
-1.67275e-18
0
-4.65393e-18
1.04157e-17
-1.71246e-17
0
0
-1.12781e-17
1.99561e-17
2.12449e-15
-2.19108e-21
-8.41387e-22
-4.41232e-21
-1.90816e-20
6.99215e-22
-1.19395e-20
-2.23662e-21
-3.74734e-20
-9.41729e-20
1.47541e-19
-3.51561e-19
1.81202e-19
0
-2.68968e-19
-6.72571e-19
0
1.0757e-20
0
-1.22384e-18
-1.62849e-18
1.89711e-20
-4.53623e-18
1.00921e-17
0
0
-8.93614e-17
0
-3.11085e-16
0
5.75367e-22
-5.28519e-22
-5.17078e-22
-2.91828e-21
-3.47498e-20
0
-1.54287e-21
6.6061e-20
0
1.46044e-19
0
2.6476e-20
4.66502e-19
-6.34428e-19
6.92799e-19
-6.56533e-19
1.1887e-20
0
0
-2.67881e-18
2.66573e-18
4.42176e-18
-8.24236e-18
0
3.49347e-17
0
-8.80484e-17
3.17874e-16
1.51211e-16
0
5.9635e-22
1.98637e-22
4.49212e-22
1.01927e-20
0
2.34326e-20
2.75886e-21
5.12173e-21
5.90504e-20
1.24524e-19
1.35841e-19
1.39982e-21
-2.46997e-19
4.44473e-19
-1.31123e-18
-1.06085e-19
-7.82935e-21
-1.11972e-18
-1.12645e-20
-1.74256e-20
4.62126e-19
2.6175e-18
-1.29446e-18
-7.99124e-18
0
3.36287e-17
0
0
3.16272e-16
4.72711e-16
0
2.7709e-22
1.37616e-22
7.23783e-22
-3.64791e-21
1.92934e-20
5.78183e-22
-1.16876e-20
0
-1.00319e-19
-1.55393e-19
1.15806e-19
-1.96138e-19
5.34559e-19
-4.19787e-19
2.20104e-21
1.02274e-19
-7.43108e-19
-8.8383e-19
-2.32717e-18
-1.4119e-18
-1.50746e-18
1.91271e-18
4.1731e-18
-5.45465e-18
0
-2.75694e-19
0
1.0148e-16
0
0
-3.74796e-16
0
3.24538e-23
3.52796e-23
1.50567e-21
2.38875e-22
7.56811e-21
1.04146e-20
-2.07339e-21
-4.06463e-20
-1.01163e-19
-2.18026e-19
-1.38892e-19
5.27024e-21
-1.85868e-19
4.97245e-19
-5.10782e-19
-2.06174e-21
7.52049e-19
0
-8.58778e-19
-2.54241e-18
-1.37412e-18
4.22054e-19
2.6419e-20
4.01471e-18
1.77108e-17
-2.19187e-20
0
6.22363e-19
5.35907e-17
0
0
2.11662e-17
0
3.26842e-23
0
9.88297e-22
-5.38546e-21
-6.57309e-22
9.15967e-21
3.48976e-20
0
-1.02908e-19
-9.51232e-20
2.32691e-20
-1.64216e-19
-3.08671e-19
-6.27375e-21
-6.33647e-21
-4.95057e-19
-6.51797e-19
0
1.00413e-18
0
-1.3177e-18
3.26019e-20
1.80464e-18
3.50573e-21
1.24614e-17
-4.62156e-18
1.78761e-17
6.42503e-19
-1.79903e-19
-4.51891e-17
-1.724e-16
0
-1.43645e-16
0
3.64901e-23
0
1.26546e-21
-1.03474e-22
-2.48963e-21
1.10044e-21
3.38538e-21
2.68991e-20
3.48468e-21
-1.01463e-19
-1.39606e-19
1.24388e-19
-1.60223e-19
-6.08059e-19
-5.93236e-19
-6.93576e-19
5.89572e-19
-6.2789e-19
0
9.76184e-19
-2.42392e-18
-3.29488e-18
0
3.55667e-21
1.45247e-20
1.21288e-17
5.42184e-18
-3.19376e-18
1.13799e-18
-9.95997e-17
0
-1.71884e-16
3.89638e-18
0
0
0
1.25922e-23
1.01806e-22
1.75255e-21
7.48989e-21
-1.15592e-20
6.73798e-22
-3.95078e-20
1.16953e-21
2.88293e-22
-1.29135e-19
-1.33918e-19
0
3.64161e-19
3.09506e-20
-5.64162e-19
-6.61694e-19
5.70502e-19
-5.00985e-21
1.06778e-18
2.40674e-18
-2.36124e-18
4.43523e-19
0
-1.4293e-20
0
1.8653e-17
-4.66814e-18
-4.70894e-17
9.42985e-19
-9.71574e-17
-4.58914e-18
0
0
0
0
-3.13772e-24
-1.3912e-22
0
-3.32422e-21
0
3.51775e-21
1.69492e-21
-2.6566e-20
-3.30965e-20
8.72222e-21
0
-1.24099e-19
1.80723e-19
-3.58487e-22
7.01251e-19
3.32797e-19
6.97392e-19
8.12278e-19
-5.05831e-21
0
1.0379e-18
4.99515e-18
-3.05768e-18
-5.38846e-19
5.60087e-18
0
8.82652e-20
1.80322e-17
-2.97674e-17
-9.85506e-17
1.39817e-18
3.0799e-19
-3.62657e-16
-2.80475e-18
8.79515e-18
0
-7.08006e-18
-1.97638e-24
-5.8555e-23
5.47752e-22
-1.82254e-21
-2.91099e-22
-7.66033e-21
-1.18541e-21
1.41032e-20
-6.32122e-20
8.99435e-21
-9.40384e-20
1.18305e-19
0
1.71637e-19
-1.25331e-20
-3.52031e-20
-1.60452e-20
6.8658e-19
7.6358e-19
-7.70895e-19
-7.44745e-21
-2.43857e-18
5.4648e-18
4.47334e-19
-3.99101e-18
5.49583e-18
3.72283e-20
-1.66374e-17
0
4.02488e-17
-1.70816e-16
7.0011e-17
2.90831e-19
9.8136e-16
4.9991e-18
0
-6.60988e-18
-1.14297e-16
1.83882e-23
2.50874e-22
-2.86045e-22
-9.23181e-22
3.72318e-21
0
-7.56396e-21
0
-1.88713e-21
-7.30866e-20
0
-8.81996e-20
1.15317e-19
0
-4.5081e-21
0
-3.93024e-19
-1.05938e-20
-8.0359e-19
0
-7.56326e-19
5.39347e-21
2.30926e-19
6.01731e-18
3.37679e-18
0
0
0
-1.62956e-17
4.10633e-19
-1.66493e-17
-2.12902e-16
6.70318e-17
9.04195e-19
-3.83e-16
0
4.30968e-17
-6.45754e-16
-3.7013e-17
-6.32959e-23
8.74595e-23
-3.08654e-22
1.95106e-22
-6.49132e-22
1.88665e-21
6.91028e-21
-1.80162e-20
2.88268e-21
-3.11487e-21
-3.61317e-20
0
9.10302e-21
3.6806e-21
-4.54427e-21
-4.82123e-19
0
4.38134e-19
-1.48151e-20
-7.57126e-19
0
2.09795e-20
0
2.55115e-18
3.1212e-18
0
5.22402e-20
0
-8.9093e-20
-2.39785e-17
-3.39024e-17
-1.25477e-16
-1.15188e-16
6.68086e-18
0
0
0
7.37996e-17
-1.30437e-15
0
-2.21999e-23
1.94387e-22
-2.91789e-22
4.10891e-22
-5.55288e-22
-6.82561e-22
-6.21815e-21
6.71158e-21
-1.33295e-20
-1.5952e-21
3.96464e-21
1.15225e-19
5.64255e-21
1.09782e-19
0
3.91076e-19
-4.74648e-19
-4.94891e-19
9.28123e-19
5.0775e-19
1.7072e-18
1.56792e-20
9.18772e-21
-2.34587e-18
-3.01869e-20
0
5.29217e-20
0
1.08772e-17
-3.2452e-19
-2.37886e-17
1.06801e-17
-1.64551e-16
-3.87482e-18
5.4913e-16
-5.96312e-18
-1.0294e-16
6.64512e-18
-1.99536e-16
-6.19446e-16
0
-8.25065e-23
-4.68187e-22
7.11678e-22
0
1.41271e-21
-6.8519e-22
0
-2.4827e-21
0
1.5498e-21
3.24944e-21
-4.95703e-20
1.10704e-19
1.3418e-19
1.0144e-19
-1.0276e-20
-4.48343e-20
7.492e-21
-1.0054e-18
4.88045e-19
4.73938e-19
1.67744e-18
-1.90108e-20
-2.29648e-18
-2.3118e-18
2.83086e-20
4.3684e-18
0
-8.39618e-18
2.34725e-17
-2.69036e-19
3.95081e-19
4.18624e-17
9.78152e-17
-5.39782e-20
-2.14697e-19
2.99468e-16
1.05027e-15
-2.94558e-18
0
-4.31534e-16
3.65825e-17
1.12013e-22
-2.5743e-22
0
-4.24252e-22
0
-5.70324e-22
3.1748e-21
3.01423e-21
0
2.07704e-20
3.26896e-21
2.71445e-21
-5.64035e-20
6.96606e-21
1.28301e-19
-1.27358e-19
0
-3.96429e-19
5.87353e-19
-5.00237e-19
1.15433e-18
0
1.03992e-20
0
-2.23875e-18
-2.82916e-18
2.21578e-20
4.25763e-18
-1.54204e-19
-1.78987e-17
-1.81686e-17
-4.59704e-19
0
0
1.93977e-16
2.61715e-18
-1.24505e-18
7.63736e-19
-1.36503e-16
-2.99182e-17
-7.42369e-17
-4.36664e-16
8.97439e-18
2.71693e-22
1.06759e-21
-1.24923e-21
1.042e-21
-2.63841e-22
-1.94409e-21
7.20994e-21
0
1.7212e-21
-9.04042e-21
4.6994e-20
-3.40887e-21
-4.9303e-20
1.7206e-20
0
-1.69255e-19
-1.0516e-19
8.66828e-21
4.66146e-19
5.7736e-19
0
1.12606e-18
1.63976e-20
0
0
1.9211e-20
3.77681e-19
0
-8.4989e-20
0
-9.59497e-18
-6.73691e-17
-5.16311e-17
0
-1.74831e-16
3.96381e-17
1.36612e-18
8.61466e-19
0
5.30211e-18
-5.36549e-16
-3.56421e-16
-1.50331e-17
0
7.93046e-23
1.53885e-22
5.09016e-22
-9.07427e-22
-1.33085e-21
0
0
3.54244e-21
0
3.27516e-21
-1.2769e-20
4.99347e-20
8.29472e-22
-7.65613e-20
1.42566e-19
-9.17024e-21
-3.04559e-19
8.7276e-21
3.29069e-19
4.50563e-19
6.41804e-19
1.31463e-18
-4.64965e-20
-1.40299e-18
1.97885e-18
-1.89071e-20
3.07205e-18
3.10255e-18
-7.31735e-20
-9.55441e-20
0
-3.21478e-19
-3.50348e-17
-1.10621e-16
-1.00023e-18
-1.788e-16
4.11446e-17
-1.8437e-18
1.53213e-18
-4.21315e-16
1.45487e-16
0
-2.14163e-16
1.10946e-16
0
0
-6.83986e-22
-5.9496e-22
8.0028e-22
-2.68287e-21
0
7.13996e-21
-8.36753e-21
0
-1.12303e-21
0
-1.45652e-20
2.3003e-20
4.70871e-20
-9.50256e-20
-1.95671e-20
2.05571e-19
-1.6893e-19
-2.60979e-21
3.01811e-19
-1.06023e-21
6.21169e-19
1.28323e-18
1.52812e-18
-2.88233e-18
1.89987e-18
0
-3.48123e-19
-8.71056e-20
-9.67481e-20
1.18011e-19
0
-3.07236e-19
1.94561e-19
-5.77172e-17
-2.1257e-18
-7.87077e-19
-1.42518e-17
-2.71645e-18
3.91361e-17
6.12001e-16
-7.45662e-18
1.63119e-18
0
4.54914e-17
0
0
-1.10998e-21
0
-5.54239e-21
2.23096e-21
3.06545e-21
0
1.08294e-20
-7.53002e-21
-6.71905e-22
-6.56976e-21
0
-1.03356e-20
-1.48009e-21
4.52008e-20
-4.54008e-20
-1.59663e-19
3.95229e-19
1.95495e-19
-1.81309e-20
-1.80519e-20
-6.55903e-21
2.07337e-20
1.06784e-20
1.52093e-18
-1.45054e-18
0
2.98647e-18
-7.00849e-18
9.00885e-18
3.42817e-20
0
-2.58671e-17
-4.82481e-19
0
-9.69907e-17
1.34981e-16
-1.1822e-17
0
-5.39261e-18
-1.12098e-16
6.32921e-17
1.63176e-18
0
-1.9867e-16
-5.60363e-17
0
0
1.05631e-21
-7.83412e-22
-5.42669e-21
4.22891e-21
2.57681e-23
0
2.37713e-21
-1.86514e-20
-2.59927e-20
0
1.36979e-20
4.19513e-21
0
-3.93104e-20
0
-4.87219e-21
0
-1.2626e-20
1.87449e-19
-1.8169e-20
-1.2376e-20
9.26583e-21
-1.83053e-21
-9.17169e-21
5.24872e-20
-1.84627e-18
-1.07474e-19
2.81146e-18
-3.64727e-18
8.76674e-18
0
0
-2.4994e-17
-9.15675e-19
-3.32006e-18
-9.25624e-17
1.31958e-16
-3.00651e-17
2.87859e-18
-6.79822e-18
1.48525e-17
0
0
5.28027e-16
-1.98603e-16
0
2.35769e-19
6.00044e-22
-1.86099e-21
5.45672e-22
0
-1.99402e-21
7.9981e-21
3.32767e-21
8.52472e-21
-2.13946e-20
-1.70677e-20
-1.83558e-20
1.02601e-20
1.25008e-20
6.09754e-21
-1.54277e-21
-3.65518e-20
5.26017e-20
-5.53377e-20
0
1.61533e-20
5.75827e-21
3.85088e-19
0
-1.26753e-20
-9.23871e-21
0
0
6.25661e-20
-1.09312e-19
1.38118e-21
8.96845e-18
-1.16408e-17
-2.18024e-19
-4.1197e-19
-3.54303e-17
4.77286e-17
0
0
-1.47306e-17
-3.04632e-16
1.47131e-18
-1.23849e-18
-2.35294e-17
1.0706e-16
-1.72469e-16
2.25537e-16
0
-8.29506e-19
1.06608e-19
0
1.09396e-21
-2.0899e-21
-4.65808e-21
0
0
-1.10022e-20
2.92959e-21
0
-1.07809e-20
-5.17198e-21
4.19257e-21
0
1.03181e-20
4.23547e-22
-1.65844e-20
-4.42882e-22
5.12767e-20
4.28282e-21
2.04275e-19
2.31712e-19
8.54019e-21
-4.22908e-20
0
1.17759e-18
1.4706e-18
-1.77262e-18
-9.82103e-20
2.00074e-18
2.6591e-18
1.4488e-20
1.87803e-17
-1.1821e-17
-1.94416e-17
-2.82069e-17
-3.19756e-17
4.70436e-17
9.98581e-17
-1.28521e-18
-1.37828e-17
-2.93931e-18
-3.20131e-18
-5.30862e-18
-9.12011e-17
1.88896e-16
-3.2067e-19
3.75547e-16
-1.24809e-18
-1.056e-18
-2.56648e-19
0
-5.66564e-21
-2.37951e-21
4.26302e-21
0
0
-9.72023e-21
-6.93698e-21
0
0
4.7035e-21
-7.99553e-21
5.25364e-20
-3.58802e-20
0
-2.03643e-20
0
0
5.55846e-22
-1.77046e-21
-4.3205e-21
-2.42847e-19
9.81872e-21
4.41324e-20
5.60615e-19
1.08212e-18
-7.76384e-20
-1.77258e-18
0
-2.56738e-18
2.41336e-18
0
2.05844e-17
-1.01856e-19
-4.09424e-17
-5.71733e-17
0
0
9.51839e-17
-5.24635e-18
6.37806e-17
-5.67851e-19
-9.90045e-18
0
0
2.50077e-17
4.28784e-18
2.29666e-17
-4.04376e-17
1.97065e-18
7.39584e-21
-1.19823e-21
1.46912e-22
-6.59907e-21
2.70043e-21
-2.36004e-21
-1.42199e-20
0
3.23708e-20
0
2.84006e-21
1.55567e-20
-6.85786e-21
0
5.22342e-20
-4.41661e-20
-1.00742e-20
2.0219e-20
1.67858e-20
5.58281e-22
0
1.26845e-20
-1.90515e-19
-2.38378e-19
-5.28599e-19
4.70749e-19
1.01406e-18
-1.23462e-18
-1.48292e-18
1.24203e-20
-5.88916e-20
-2.66313e-18
0
-1.06109e-19
-1.30452e-18
0
-2.16093e-17
-3.1418e-17
0
0
5.96664e-17
-2.72834e-18
-2.83408e-18
-7.3114e-18
-8.89404e-18
0
7.16003e-18
-3.87594e-17
-1.1927e-17
-3.32264e-16
-3.55205e-17
3.29109e-18
-4.40494e-20
0
5.53402e-21
-2.22708e-21
-1.12769e-20
-1.33444e-20
-1.06903e-20
-1.21781e-20
5.74215e-22
2.91076e-20
0
-1.36455e-21
1.928e-20
0
-1.10799e-19
-5.57723e-20
-1.01046e-20
-1.02105e-20
2.9378e-20
-1.94204e-20
-5.64541e-22
3.37861e-21
6.3365e-20
-2.15819e-19
2.60227e-19
3.7405e-20
0
5.41303e-19
1.24468e-19
1.25104e-20
2.8178e-20
0
0
0
1.51193e-19
-1.22365e-17
0
-3.33537e-19
0
6.84744e-17
0
6.09493e-17
1.25683e-17
-3.85465e-18
-2.117e-18
-3.37799e-18
-4.5542e-18
2.38704e-17
-1.36087e-17
6.12378e-18
1.37491e-16
0
2.00917e-18
0
0
1.83614e-21
5.20416e-22
-2.66016e-21
-1.22666e-20
-1.82863e-20
1.78872e-20
-4.58554e-20
-6.09105e-22
0
-8.51391e-21
-7.38086e-21
1.81934e-20
2.55502e-20
-1.05704e-19
-5.57629e-20
0
0
0
-3.46688e-20
2.84308e-21
-7.30028e-21
0
-1.66564e-19
2.38432e-19
5.39818e-19
6.33362e-19
3.40657e-20
1.27817e-18
2.8383e-20
0
0
-6.94192e-18
-8.38327e-18
0
-4.99923e-19
2.1705e-19
0
1.71085e-18
6.7529e-17
5.37225e-17
2.94558e-18
1.94428e-18
1.16422e-16
-8.13876e-18
0
2.17934e-17
-8.87987e-18
0
-2.86523e-16
1.37491e-16
-2.68238e-19
-6.70637e-19
0
0
-3.42835e-21
0
-2.14418e-20
7.62879e-21
-1.63127e-20
-2.06728e-21
2.37899e-20
-4.23506e-20
-6.07889e-20
-1.5307e-20
0
-6.96491e-21
2.55919e-20
0
0
1.2556e-19
-1.09905e-19
0
7.19586e-20
-8.03134e-20
4.57136e-21
0
3.80868e-20
-9.96754e-21
-2.39468e-19
6.28732e-19
5.99531e-19
0
-5.36003e-20
1.10535e-19
2.32688e-18
6.44953e-18
-6.81955e-18
-8.23099e-18
-5.06386e-19
-1.40598e-18
0
1.73546e-18
-2.24893e-18
-3.8264e-18
5.9031e-17
2.36672e-16
-6.26007e-19
-2.38393e-16
2.98613e-18
-1.80167e-18
-3.51725e-17
0
1.28044e-17
-2.81666e-16
2.04743e-17
-1.6517e-20
1.13508e-19
1.7988e-23
-1.35075e-21
-3.64422e-21
-3.95933e-22
-1.83051e-20
2.73168e-20
0
0
0
-1.06685e-20
0
-7.16545e-20
-1.60322e-20
3.04702e-20
0
-4.58508e-20
2.7008e-20
-3.37424e-20
1.2646e-19
3.09834e-20
-1.02842e-19
-6.81282e-20
-5.21275e-20
-1.21909e-20
1.38149e-20
-2.3869e-20
6.08434e-20
-2.29029e-19
5.64927e-19
-7.47383e-19
-5.39408e-20
-1.5326e-18
-1.11459e-19
4.78669e-18
6.73084e-18
1.27549e-19
-3.58719e-19
-1.6297e-17
0
0
-2.27865e-18
-3.85773e-18
0
7.46575e-18
4.15177e-18
-9.4242e-19
-1.30642e-18
1.62426e-17
1.9086e-16
1.01206e-16
4.20162e-19
1.56146e-17
0
2.67021e-17
0
-1.03837e-19
2.16674e-23
-1.38381e-21
-4.49437e-22
0
-1.75307e-21
1.63833e-20
0
-3.00127e-20
-9.58599e-21
2.72092e-20
-1.22893e-19
-1.167e-20
1.22054e-19
3.05088e-20
3.14196e-20
-3.17027e-20
-6.02852e-20
-7.97936e-20
1.43035e-19
-1.08606e-19
1.26993e-19
1.94456e-20
-1.47885e-19
1.37979e-20
1.38677e-20
-2.39657e-20
2.31405e-20
6.67339e-20
-2.26282e-20
-6.86653e-19
3.3243e-20
3.22347e-20
-1.72811e-18
1.10796e-19
3.02184e-18
1.28761e-19
-2.91264e-19
3.9751e-19
-1.53681e-17
0
-2.46342e-18
0
0
-3.3453e-17
-2.7075e-16
4.15212e-18
5.23408e-17
0
0
-1.41468e-18
1.57295e-16
-1.16979e-16
2.42159e-16
7.20172e-17
9.37298e-19
0
-1.01996e-21
-3.45321e-23
-8.54344e-22
-2.48108e-21
-2.81337e-21
-7.9614e-21
1.64801e-20
-4.8189e-21
-1.87235e-20
-2.67565e-20
0
-3.64161e-21
-9.28672e-20
-1.44209e-19
2.71608e-19
-2.71638e-21
-1.95703e-20
-1.44888e-19
1.39077e-20
-9.75843e-20
-1.87181e-19
-1.29052e-19
-2.41889e-20
6.37758e-20
1.59292e-19
-2.13164e-19
0
5.20802e-20
2.80945e-20
-1.15484e-19
3.06233e-19
-6.6713e-19
7.97482e-19
3.22472e-20
1.11577e-19
3.87223e-19
0
7.19709e-20
4.01952e-19
-4.65246e-19
0
2.41974e-17
0
5.66613e-18
-4.99809e-18
5.55675e-17
0
-1.44164e-17
0
-3.60797e-18
-5.87805e-19
1.84309e-17
-8.79241e-17
6.37817e-16
2.54902e-16
7.06368e-17
-6.01431e-19
7.7081e-20
-2.57287e-21
0
4.25019e-23
-2.3164e-21
2.95306e-21
-1.05897e-20
1.82345e-20
-2.14319e-20
0
2.72737e-20
0
0
-2.7802e-21
0
-1.61622e-19
9.82106e-20
-1.85992e-19
0
-5.12009e-20
0
-3.43703e-20
-5.75047e-19
-2.42423e-20
1.89693e-20
-2.91925e-20
1.01032e-19
-1.82944e-19
-1.83075e-20
1.95967e-19
-7.71289e-20
-7.22064e-20
3.04328e-19
-6.83768e-19
8.8806e-19
7.05162e-20
1.63406e-19
-2.70273e-18
1.95188e-19
0
-4.70699e-19
-1.77222e-17
2.15161e-17
-5.6476e-18
5.72063e-18
-1.1576e-16
2.1657e-17
0
-2.196e-19
0
1.33241e-18
-8.53787e-18
3.95819e-16
0
-4.86522e-17
5.9556e-17
2.42533e-17
-4.95161e-18
-2.78944e-20
-6.5088e-20
2.17635e-21
0
0
-1.71544e-22
0
-1.49851e-20
1.20365e-20
-9.96794e-21
0
8.42296e-20
-3.84837e-20
-4.74264e-20
-5.69481e-20
7.35037e-20
-2.06863e-19
-1.78665e-21
2.03208e-21
-3.66501e-19
1.03729e-19
-8.49337e-20
-2.07633e-20
5.62767e-20
-2.5509e-19
6.20431e-20
-2.38006e-19
-2.93805e-19
-3.3621e-20
-2.77736e-20
0
-1.75958e-19
-5.78897e-20
4.39649e-20
2.78578e-19
-8.24311e-19
9.12398e-19
-1.40066e-19
0
-2.46039e-18
-2.00998e-19
1.19487e-17
0
1.60744e-18
4.92324e-17
-3.13701e-17
1.17247e-16
-1.64863e-16
2.11237e-17
0
4.42013e-19
-5.3934e-20
4.94376e-18
-8.5393e-18
-3.68881e-16
-6.00443e-17
-2.25135e-17
6.09562e-18
-9.48696e-17
-1.25501e-19
-4.69227e-19
-4.43152e-21
-2.54991e-23
0
-1.4571e-21
0
-1.8964e-22
-1.65565e-20
-7.32294e-21
-3.12773e-22
6.59902e-20
0
3.96064e-20
0
-3.23719e-20
5.03143e-20
-4.90845e-20
-1.07479e-19
2.03338e-21
0
8.08157e-21
1.0022e-19
-1.03075e-19
5.63407e-20
8.9922e-20
3.25694e-19
2.9861e-19
-2.32673e-19
-2.69042e-19
-2.78523e-20
-4.83017e-19
-4.78222e-19
-5.15115e-19
-1.16951e-19
0
1.39083e-19
1.58203e-19
-1.08711e-18
2.38696e-18
0
-2.02726e-19
1.29143e-18
-1.73338e-18
1.37028e-18
1.93913e-17
-6.02165e-18
-3.13987e-18
1.22062e-16
5.44645e-17
-4.445e-16
7.00956e-19
2.29786e-17
2.23733e-18
0
-8.50201e-18
-1.54365e-16
-8.45966e-17
-5.23955e-18
1.48446e-16
-3.8219e-17
7.76884e-19
-6.30373e-20
4.91936e-21
-1.8722e-23
0
0
-5.00277e-22
3.78048e-21
-3.04214e-22
3.96288e-21
-4.77929e-21
-2.22753e-20
2.92333e-20
9.93048e-20
0
0
0
5.76334e-20
0
-2.50223e-19
3.08076e-19
-2.69509e-19
1.82785e-19
0
0
3.55841e-20
1.11145e-19
2.5496e-19
2.93475e-19
2.15172e-20
-1.88636e-20
-1.35e-19
2.35764e-20
-5.10336e-19
-2.81394e-19
-1.14948e-19
0
7.32053e-20
-4.36719e-20
-1.01693e-18
2.48076e-18
-1.65371e-19
0
-4.25689e-19
-2.6055e-17
0
2.44519e-17
-7.58635e-17
-1.14581e-16
-8.99878e-18
-1.83733e-17
-3.57561e-18
1.84221e-20
4.25718e-18
-6.81959e-19
-3.22113e-18
-3.8281e-16
-7.14232e-17
0
-2.8295e-16
1.99972e-16
1.22988e-18
6.15163e-20
3.72966e-20
-7.31836e-22
1.95508e-23
0
1.53455e-21
4.87635e-21
0
2.73755e-21
-1.9594e-22
1.96317e-20
2.34561e-21
-3.31274e-20
9.6303e-20
6.01451e-20
-3.32091e-20
0
8.24921e-20
-3.27649e-20
5.74329e-20
-2.40006e-19
2.96645e-19
-2.60366e-19
0
7.16333e-20
-2.05914e-20
-2.92232e-19
-6.46082e-20
-6.9409e-19
0
4.83159e-19
4.92727e-19
-7.46675e-19
-1.28483e-19
-4.64453e-20
9.11492e-20
2.81359e-19
-8.6189e-20
0
1.25654e-19
-9.60892e-19
2.67663e-18
3.58981e-18
-9.17188e-19
0
-1.38113e-17
0
2.08529e-17
-1.35519e-16
-3.49071e-17
0
8.97768e-17
-4.04165e-18
0
7.14263e-16
-4.86531e-18
0
-8.93984e-17
0
0
-3.33149e-16
-5.10559e-18
4.1034e-18
-1.86608e-19
-1.10743e-21
-1.22805e-22
-2.46791e-24
0
1.4023e-21
5.70975e-21
2.47931e-21
-3.52902e-21
-2.04948e-20
0
1.39922e-20
0
0
7.14252e-20
-7.43456e-20
4.56319e-21
-9.32709e-20
-2.10201e-20
7.97948e-20
0
0
0
2.53218e-19
-6.30007e-20
1.30989e-19
0
-3.93922e-19
4.43057e-20
-6.93813e-19
5.9627e-19
4.92231e-19
1.11407e-18
-7.98245e-19
-1.45263e-18
6.44779e-19
-8.61185e-20
2.7676e-19
0
2.00312e-19
0
-8.16843e-19
-3.17775e-19
3.03667e-18
5.37609e-18
0
1.44349e-17
-2.13648e-18
3.0742e-17
-7.45957e-17
7.54802e-17
-8.27632e-17
6.06997e-19
0
-9.53337e-19
-3.79981e-16
0
1.07359e-16
-8.34172e-18
-5.07424e-17
0
-1.71117e-16
7.29656e-18
-1.05944e-19
-5.80569e-20
0
-2.01897e-23
-3.45859e-26
0
0
4.47106e-21
2.76957e-21
3.04253e-21
-1.13675e-20
8.5883e-22
6.8048e-21
-4.52713e-20
0
-1.99486e-20
3.47406e-20
0
-2.04859e-19
6.2157e-20
-6.96288e-21
7.84118e-20
1.14371e-19
0
5.0316e-20
2.45905e-19
4.96547e-19
0
0
-3.88951e-19
4.35228e-20
1.14481e-19
5.45062e-19
-2.79895e-20
5.96565e-19
7.19106e-19
-9.20776e-19
3.5372e-19
-1.20433e-18
6.76648e-19
0
-8.34892e-20
2.61552e-19
0
-3.06158e-18
4.55013e-18
-2.07059e-19
1.30588e-17
1.54812e-17
0
4.53307e-17
-5.19975e-17
1.57231e-16
-1.19762e-18
-1.23563e-16
-9.53823e-19
9.21371e-19
-1.01382e-17
1.20375e-17
5.35322e-17
-3.16944e-17
-2.62066e-16
-1.4154e-16
5.44432e-17
7.19462e-18
4.43811e-19
7.50465e-21
5.73544e-23
0
2.89896e-26
4.82302e-29
2.25605e-22
-1.65859e-21
2.54431e-21
7.86649e-21
1.66971e-20
5.67567e-21
-2.87568e-20
-3.92787e-20
0
-3.35966e-21
1.59107e-19
0
-7.96142e-20
-2.07803e-20
3.18966e-20
5.14702e-20
1.53602e-19
0
5.03156e-20
-5.68803e-19
1.30061e-19
2.31655e-19
-3.58283e-19
5.68704e-20
-9.61611e-19
1.14611e-19
-7.2695e-19
6.30317e-19
1.18901e-19
0
-3.77019e-20
-1.04279e-19
1.27583e-18
-1.26099e-18
6.65986e-19
9.35744e-19
2.56351e-19
3.92934e-19
7.11402e-19
-1.91335e-18
4.65183e-18
-4.85012e-18
1.51354e-17
-3.96865e-18
-3.79646e-18
7.28524e-18
7.22196e-17
-6.05653e-16
1.2407e-18
0
1.9705e-19
-3.33063e-19
-8.33259e-18
1.1647e-17
3.27629e-17
-4.77552e-17
-3.45934e-16
-1.54522e-16
5.44564e-17
-2.22172e-18
-7.00171e-20
1.00676e-21
-7.9752e-24
-3.9928e-26
3.51884e-29
-6.39174e-30
0
1.21469e-21
-9.77673e-21
0
2.07406e-20
-4.45161e-21
-2.39089e-20
3.17757e-20
0
-8.83895e-20
-7.45436e-20
1.16342e-19
3.66049e-20
-1.19377e-20
2.84084e-21
-1.84682e-19
0
8.80452e-20
-1.10416e-19
0
-1.10397e-18
-5.44365e-19
4.83893e-19
-2.93324e-19
-3.96513e-20
5.28648e-20
-6.67213e-19
-6.74416e-19
7.13868e-19
1.87459e-19
0
2.26982e-19
0
1.17931e-18
-1.45105e-18
0
1.03788e-18
9.13949e-19
-6.96128e-20
-4.83678e-19
-2.4037e-18
1.29274e-18
2.12607e-18
1.56547e-17
-3.29647e-17
-3.26377e-17
3.34223e-17
-3.69499e-16
0
0
1.29155e-18
-5.44501e-17
2.09216e-18
0
3.17643e-16
-1.50244e-17
2.21035e-19
2.73671e-16
0
-1.10477e-17
-3.17078e-19
4.64716e-22
7.77133e-24
0
2.75547e-26
0
2.76092e-29
0
1.73717e-21
-6.21528e-21
-1.34864e-21
1.32285e-20
-2.00371e-20
5.18207e-21
5.08754e-20
3.43726e-20
-1.14361e-19
-1.56377e-19
0
-1.78017e-19
6.88966e-20
3.14776e-20
-1.50825e-19
1.56148e-20
9.05807e-20
-6.07874e-20
2.14278e-19
0
-6.05801e-19
-3.06137e-19
-1.16746e-20
0
0
1.80837e-18
-2.02775e-18
-1.44568e-18
1.87738e-19
0
-1.2591e-18
8.26078e-19
-2.06358e-18
2.88411e-19
-2.96196e-18
2.98592e-20
0
1.10576e-18
8.12771e-19
-1.60545e-18
1.30431e-18
-2.70809e-18
0
-3.42075e-18
-2.87748e-17
-1.95334e-17
-8.87307e-17
-7.38512e-19
3.92734e-19
2.96828e-18
2.26154e-18
-3.18363e-18
-2.05416e-19
-4.47961e-18
1.16326e-16
3.98355e-17
-1.23728e-16
2.30694e-16
2.85897e-17
-3.29977e-19
0
0
0
0
9.43396e-29
-3.32737e-28
6.46115e-29
0
3.45059e-21
9.80444e-21
1.7921e-20
0
-1.55973e-20
-1.13725e-20
5.23289e-20
3.21205e-22
-5.63089e-20
-5.67322e-20
-9.36363e-20
-6.96641e-20
-4.24504e-19
-6.84949e-20
9.58789e-20
1.57159e-19
6.13808e-20
-7.84139e-20
2.14169e-19
2.0701e-19
-8.75073e-20
5.07525e-19
-2.13869e-20
-1.41474e-19
0
8.51677e-20
1.21422e-18
6.29166e-20
-2.72579e-18
0
0
-1.42223e-18
0
-1.74211e-18
0
-1.71548e-18
1.65846e-19
-7.29164e-20
4.33103e-18
-1.08973e-19
-2.66002e-19
1.53537e-19
-8.03049e-18
2.02939e-18
-2.44401e-17
-3.36829e-17
1.76141e-17
3.78411e-16
-2.05577e-18
1.41917e-18
1.6949e-18
-6.02489e-19
-2.5097e-16
-6.89138e-18
2.40964e-18
-4.25543e-17
0
0
0
3.88349e-17
0
0
1.18915e-22
0
-7.95149e-27
-6.31628e-30
4.53224e-28
-1.97454e-29
4.8782e-23
1.05087e-21
1.00269e-20
1.79505e-20
2.23194e-21
-2.24698e-21
0
-2.04071e-20
-2.32942e-20
-3.11154e-20
1.04648e-19
5.61216e-21
-2.83254e-19
1.82397e-19
-3.57342e-19
-7.25855e-20
1.57131e-19
0
-1.17259e-20
-1.07402e-19
2.98933e-19
0
-5.33233e-19
9.62855e-19
2.17489e-19
2.04462e-19
8.51821e-20
-7.55084e-20
1.44508e-18
1.89315e-18
-1.28994e-18
1.52965e-18
-1.38537e-18
2.79221e-20
0
2.18549e-18
-2.78111e-18
1.66481e-19
-1.17185e-19
-5.16075e-19
2.65425e-18
1.96227e-18
-2.61208e-19
-3.14184e-18
0
6.79328e-18
-3.16685e-17
-5.66602e-17
7.4965e-17
1.45271e-18
-3.57076e-18
2.98353e-18
-2.01845e-16
0
0
-2.65063e-18
5.83243e-18
-1.26462e-16
0
0
-5.30374e-17
-1.46393e-18
-6.06286e-20
-1.06303e-21
0
8.75948e-27
0
-1.03886e-28
-3.37042e-28
-5.02242e-29
5.5873e-23
1.67334e-23
-1.98926e-22
0
1.33982e-20
1.84186e-21
3.02556e-21
0
3.76999e-20
-4.16612e-20
1.80372e-19
0
-1.4362e-19
1.18561e-19
1.89032e-19
-2.34203e-19
0
-1.26524e-19
1.46027e-19
4.37311e-20
9.19752e-20
8.79962e-20
-1.89564e-19
-5.21179e-19
4.77679e-19
2.04432e-19
0
-7.55163e-20
4.9291e-21
3.10411e-18
-1.28567e-19
0
-4.33846e-20
-1.50693e-18
0
0
-1.24527e-19
-2.06178e-19
-1.17655e-19
-6.37442e-19
5.70752e-18
0
8.73418e-19
0
2.24845e-19
2.81419e-18
0
-3.14763e-17
1.82691e-17
-6.70893e-16
-1.12187e-18
1.56432e-18
0
3.53176e-16
-3.52331e-18
-2.65151e-18
3.09334e-18
-2.49085e-16
-4.0867e-17
-2.93236e-16
1.29329e-16
-1.91221e-17
-1.36734e-18
9.15642e-22
0
0
0
-2.54338e-29
2.26973e-28
7.58919e-29
-1.27001e-28
0
-2.81322e-22
2.14045e-22
4.72173e-23
3.022e-21
-1.9523e-20
2.58953e-20
4.34578e-21
3.00219e-20
4.61452e-20
-5.03264e-20
5.43078e-20
-9.70486e-20
1.70752e-19
0
-1.48083e-19
0
-3.18589e-19
2.66777e-19
3.15663e-19
3.72051e-19
8.79326e-20
3.76325e-19
0
-1.40168e-18
9.15376e-19
8.11104e-19
7.03188e-19
-9.78898e-19
-1.1422e-19
9.76725e-19
2.82563e-19
1.57078e-18
-3.53052e-18
1.87172e-18
-5.66456e-20
3.18116e-19
-2.07768e-19
2.87344e-18
-1.19425e-19
4.90945e-18
5.61355e-18
-9.1741e-18
0
-2.22578e-18
-5.86131e-18
-5.06122e-18
-7.4712e-18
0
3.47425e-18
2.7555e-19
-1.81798e-18
0
0
5.67507e-18
-9.94499e-17
6.60373e-18
-2.17525e-17
4.68362e-18
3.57149e-18
1.29447e-16
-6.04181e-17
0
-2.55784e-19
1.63794e-21
1.66097e-23
-1.28865e-25
0
9.07548e-29
-1.19022e-28
1.30419e-28
-5.92827e-29
0
1.25301e-21
-2.66523e-23
2.83081e-22
-1.21616e-20
-3.76435e-21
2.86036e-20
3.8666e-20
1.08212e-19
-1.94466e-20
-1.24387e-20
1.25143e-21
2.24539e-20
9.73224e-20
1.14951e-19
8.46227e-20
-1.45089e-19
-6.84936e-20
5.50182e-20
2.28474e-19
5.57002e-19
7.52722e-19
0
1.45423e-20
-3.71961e-19
-1.00837e-18
4.95132e-20
5.71432e-19
1.45135e-18
-8.87289e-21
-1.2736e-19
2.82671e-19
0
4.62181e-18
-1.72455e-18
6.19338e-18
3.18733e-19
-2.89711e-19
2.38444e-18
0
1.04909e-20
1.01685e-17
0
-1.82717e-17
-4.91613e-18
0
-1.80253e-18
-6.65167e-18
0
2.97721e-17
0
-3.11738e-18
-1.04262e-18
0
2.18987e-19
9.59248e-19
7.73474e-18
0
4.89095e-20
-6.49409e-17
0
1.62128e-16
0
-4.49847e-20
2.56145e-20
-1.64039e-23
1.09436e-25
1.11329e-26
-5.35154e-28
-3.24102e-28
-9.54258e-29
-9.35645e-29
3.61674e-29
1.88842e-22
2.30353e-21
-5.67427e-21
1.1367e-22
-1.10541e-21
1.19413e-20
1.04364e-20
8.60772e-21
1.82922e-20
-6.40494e-20
8.73794e-20
-7.39794e-20
9.9097e-20
-2.71589e-20
2.83599e-19
-4.49581e-20
-3.68949e-19
1.92697e-19
1.1791e-19
2.90977e-20
2.59866e-19
0
9.12157e-19
-4.11531e-19
5.47522e-20
3.14119e-19
-3.14675e-19
-8.79747e-19
3.23389e-19
-1.01026e-18
1.24006e-18
0
-3.1194e-18
2.88598e-18
3.41312e-18
2.99764e-19
-4.56835e-19
-2.90279e-19
5.17954e-19
0
8.95319e-19
0
1.71151e-17
-1.05997e-18
-1.43645e-18
-1.2987e-17
0
5.21469e-18
8.43585e-19
-1.69548e-17
0
-2.44287e-18
-1.73903e-18
2.07135e-18
-4.3148e-19
2.65306e-18
5.16118e-18
2.04328e-18
0
-2.16254e-16
4.20596e-17
1.23044e-16
3.20163e-16
1.55e-18
3.39562e-19
-3.01644e-22
2.34435e-23
4.02935e-27
-3.30358e-29
1.92989e-28
1.73964e-28
-2.90713e-28
2.95742e-28
7.28223e-29
-4.33344e-22
2.93962e-21
-5.04099e-21
8.30497e-21
2.59175e-21
4.14971e-22
-5.35713e-21
-1.51615e-20
-6.81118e-20
-7.49247e-20
0
2.25102e-20
-4.0232e-20
-2.2608e-20
1.56041e-19
-1.55702e-19
-4.93135e-19
1.35612e-19
4.18877e-18
-1.24248e-19
0
-1.98381e-19
-2.23144e-19
6.43037e-19
-6.30136e-19
-4.20964e-19
-3.14462e-19
0
0
-9.74018e-20
3.5386e-19
1.72226e-19
-6.71563e-20
-6.25915e-18
3.1445e-18
3.80801e-18
0
-4.43582e-18
6.03707e-18
0
8.98197e-19
0
1.10488e-17
2.49741e-17