/*--------------------------------*- C++ -*----------------------------------*\
| =========                 |                                                 |
| \\      /  F ield         | OpenFOAM: The Open Source CFD Toolbox           |
|  \\    /   O peration     | Version:  v2012                                 |
|   \\  /    A nd           | Website:  www.openfoam.com                      |
|    \\/     M anipulation  |                                                 |
\*---------------------------------------------------------------------------*/
FoamFile
{
    version     2.0;
    format      ascii;
    class       volSymmTensorField;
    location    "13200";
    object      Sp;
}
// * * * * * * * * * * * * * * * * * * * * * * * * * * * * * * * * * * * * * //

dimensions      [0 0 -1 0 0 0 0];


internalField   nonuniform List<symmTensor> 
39402
(
(-494211 1.57782e+07 0 801926 0 -307715)
(-19154.6 5.39404e+06 0 12405.3 0 6749.26)
(-496416 1.1658e+07 0 771669 0 -275254)
(-2897 3.36186e+06 0 3626.4 0 -729.395)
(-35206 4.90724e+06 0 23321.3 0 11884.6)
(-428608 7.89419e+06 0 664444 0 -235836)
(137.588 3.28856e+06 0 -151.561 0 13.973)
(-6100.12 3.16797e+06 -3.64199e-17 6409.25 -1.30218e-20 -309.124)
(-47163.2 4.55345e+06 0 35054.3 0 12108.9)
(-339666 5.647e+06 0 509058 0 -169392)
(461.294 3.52037e+06 0 -538.824 0 77.531)
(343.142 3.12586e+06 3.50366e-17 -274.939 1.02356e-20 -68.203)
(-8729.07 3.01902e+06 -4.47846e-15 8473.57 -4.5344e-18 255.503)
(-55861 4.25714e+06 3.67807e-14 45396.4 7.73577e-17 10464.7)
(-265089 4.17412e+06 0 378664 0 -113575)
(252.534 3.73063e+06 4.88979e-17 -230.998 -1.37273e-21 -21.5359)
(1199.57 3.34912e+06 -7.48747e-16 -1288.47 1.09794e-19 88.9)
(604.511 3.00175e+06 0 -465.563 0 -138.948)
(-10938.8 2.8997e+06 4.38762e-15 10028.3 4.44243e-18 910.489)
(-61875.2 3.9861e+06 7.89646e-15 53656.2 4.49922e-17 8219.03)
(-197204 3.15473e+06 -2.06806e-13 259095 -7.09921e-15 -61890.5)
(157.771 3.84777e+06 0 -165.582 0 7.81115)
(761.24 3.54998e+06 -4.87972e-17 -729.3 1.61426e-21 -31.9404)
(1995.49 3.22076e+06 -1.44355e-15 -2169.63 3.64416e-19 174.139)
(883.41 2.89845e+06 0 -653.543 0 -229.867)
(-13115.2 2.80097e+06 -1.38771e-14 11802.8 -1.78356e-17 1312.34)
(-66309.3 3.72495e+06 -1.4136e-13 61012.4 -5.1126e-16 5296.89)
(-153031 2.42817e+06 1.98803e-13 185086 5.91016e-15 -32055)
(177.452 3.91743e+06 0 -285.014 0 107.562)
(481.888 3.66264e+06 3.78155e-16 -527.731 -1.96526e-20 45.8438)
(1315.22 3.41459e+06 -1.11259e-15 -1331.98 1.19665e-19 16.765)
(2806.38 3.10931e+06 2.06318e-15 -3089.97 -4.49158e-19 283.592)
(1140.21 2.79981e+06 -1.32223e-14 -793.382 7.22379e-19 -346.829)
(-15407.5 2.71676e+06 -2.5782e-15 14064.6 -6.03613e-18 1342.89)
(-69924 3.46942e+06 -1.37406e-14 68369.8 -1.31805e-16 1554.27)
(-122135 1.89321e+06 0 136223 0 -14087.1)
(173.092 3.9396e+06 0 -331.564 0 158.472)
(312.565 3.73006e+06 0 -419.837 0 107.272)
(821.465 3.52403e+06 -3.74336e-16 -926.075 1.94542e-20 104.61)
(1893.74 3.29215e+06 1.1691e-15 -1995 -1.319e-19 101.255)
(3615.92 2.98844e+06 0 -4041.87 0 425.952)
(1337.9 2.69255e+06 1.27949e-14 -885.259 -6.99029e-19 -452.638)
(-17719.3 2.64174e+06 1.53897e-14 16592.1 2.23979e-17 1127.2)
(-72805.3 3.21034e+06 2.21391e-13 75490.3 1.24862e-15 -2685)
(-100122 1.49454e+06 0 103988 0 -3866.4)
(55.0676 3.93884e+06 0 -124.995 0 69.9271)
(186.25 3.75295e+06 0 -322.769 0 136.519)
(474.645 3.58983e+06 0 -610.17 0 135.526)
(1145.59 3.39521e+06 -2.85205e-15 -1298.51 3.24663e-19 152.915)
(2492.84 3.14882e+06 3.4614e-15 -2730.6 -7.54324e-19 237.757)
(4363.48 2.83746e+06 7.82555e-15 -4965.44 -3.73026e-18 601.951)
(1507.92 2.57017e+06 1.70047e-14 -1094.75 -1.17199e-18 -413.171)
(-20058.6 2.57234e+06 0 19374.1 0 684.508)
(-75226.1 2.94963e+06 -2.34553e-13 82646 -1.62905e-15 -7419.86)
(-82186.5 1.19179e+06 0 78962.8 0 3223.69)
(-53.232 3.92195e+06 8.50162e-17 74.9505 1.04775e-21 -21.7186)
(13.4547 3.75488e+06 0 -61.3317 0 47.877)
(233.918 3.6131e+06 0 -378.065 0 144.147)
(648.156 3.45721e+06 0 -825.64 0 177.485)
(1453.86 3.23767e+06 2.78006e-15 -1658.66 -3.16468e-19 204.793)
(3047.39 2.95945e+06 -1.12937e-14 -3452.53 2.99959e-18 405.136)
(4949.11 2.65089e+06 -7.52877e-15 -5741.63 3.58879e-18 792.521)
(1646.74 2.43628e+06 2.07039e-14 -1510.45 -2.37201e-18 -136.294)
(-22366.8 2.5025e+06 0 22297.8 0 68.9595)
(-77298.1 2.68665e+06 1.16711e-13 89867.2 9.29348e-16 -12569.1)
(-67372.1 959036 0 59350.3 0 8021.82)
(-112.453 3.89615e+06 0 185.241 0 -72.7876)
(-90.9063 3.74152e+06 -8.51716e-17 98.9928 -1.04966e-21 -8.08653)
(1.81311 3.61685e+06 0 -51.2511 0 49.438)
(304.437 3.47938e+06 0 -476.794 0 172.357)
(815.815 3.2905e+06 0 -1040.49 0 224.678)
(1716.52 3.02415e+06 0 -1976.2 0 259.672)
(3461.99 2.7217e+06 -1.14137e-15 -4020.75 9.60236e-19 558.767)
(5262.32 2.44105e+06 0 -6213.29 0 950.972)
(1626.09 2.30558e+06 -3.51978e-14 -1935.37 3.32559e-18 309.281)
(-24608.9 2.43083e+06 -4.44281e-14 25346.1 -1.12081e-16 -737.189)
(-79173.9 2.4213e+06 0 97319.1 0 -18145.2)
(-55223.5 776920 0 44308 0 10915.5)
(-70.9554 3.86528e+06 0 99.1995 0 -28.2441)
(-158.354 3.71945e+06 0 209.057 0 -50.7033)
(-123.889 3.60582e+06 1.94487e-15 120.881 2.7761e-20 3.00756)
(23.0693 3.48399e+06 0 -103.273 0 80.2036)
(376.328 3.30877e+06 6.52007e-15 -581.789 -5.267e-19 205.461)
(958.671 3.0615e+06 0 -1233.63 0 274.96)
(1917.15 2.75583e+06 0 -2248.06 0 330.903)
(3686.33 2.45679e+06 2.72761e-14 -4366.81 -1.11418e-17 680.476)
(5249.54 2.23618e+06 0 -6304.21 0 1054.68)
(1371.59 2.18947e+06 -4.13239e-14 -2198.48 7.842e-18 826.894)
(-26668.6 2.35269e+06 1.3476e-13 28359.5 3.74472e-16 -1690.88)
(-79377.6 2.15527e+06 0 101930 0 -22552.4)
(-44941.8 634842 -6.96561e-13 32266.9 -1.2993e-14 12674.8)
(-62.267 3.83218e+06 0 81.372 0 -19.105)
(-94.8852 3.69227e+06 0 72.9196 0 21.9656)
(-207.672 3.58636e+06 0 246.795 0 -39.1227)
(-151.364 3.47451e+06 3.18667e-15 136.217 5.00471e-20 15.1471)
(71.9726 3.31268e+06 0 -210.466 0 138.494)
(436.065 3.0727e+06 -6.31377e-15 -676.079 5.10035e-19 240.015)
(1056.93 2.77415e+06 8.48579e-15 -1382.13 -1.30418e-18 325.209)
(2033.92 2.46045e+06 1.85952e-14 -2443.78 -4.77336e-18 409.857)
(3734.73 2.19979e+06 1.8453e-15 -4523.09 -2.22778e-18 788.361)
(4902.97 2.05753e+06 0 -5992.9 0 1089.93)
(838.335 2.08462e+06 3.90058e-14 -2164.19 -7.4021e-18 1325.86)
(-28348.4 2.26452e+06 -1.83242e-13 31001 -5.69389e-16 -2652.65)
(-77663 1.89514e+06 -2.60792e-13 103113 -3.53817e-15 -25449.9)
(-36144.4 520760 6.51595e-13 22491.3 1.11988e-14 13653.1)
(-91.1038 3.79842e+06 0 140.693 0 -49.5889)
(-119.514 3.66288e+06 0 120.481 0 -0.966912)
(-160.79 3.56179e+06 0 137.714 0 23.0763)
(-257.539 3.45719e+06 -6.68732e-17 289.798 -1.71182e-21 -32.2585)
(-174.986 3.30415e+06 1.14598e-15 145.71 2.01916e-20 29.2758)
(116.671 3.0742e+06 7.30412e-15 -314.147 -2.51979e-19 197.476)
(471.596 2.77663e+06 0 -743.859 0 272.263)
(1102.56 2.46043e+06 9.53959e-16 -1475.26 -3.58248e-19 372.704)
(2062.45 2.17697e+06 -1.77016e-14 -2550.1 4.54397e-18 487.652)
(3617.77 1.97488e+06 -1.87759e-14 -4506.28 9.45006e-18 888.516)
(4226.92 1.90001e+06 0 -5271.41 0 1044.5)
(-29.8777 1.98523e+06 0 -1697.64 0 1727.52)
(-29670.2 2.16346e+06 9.03922e-14 33372.5 3.0078e-16 -3702.31)
(-75377.4 1.64016e+06 -1.30156e-14 103457 -5.20995e-16 -28079.7)
(-28509.9 429778 0 14334.3 0 14175.6)
(-15.5158 3.76545e+06 0 -8.37953 0 23.8954)
(-150.233 3.63276e+06 0 185.865 0 -35.632)
(-189.853 3.53504e+06 0 192.138 0 -2.28479)
(-232.825 3.43496e+06 -4.63809e-15 219.042 -8.18777e-20 13.7833)
(-301.283 3.2889e+06 8.217e-17 323.702 2.44874e-21 -22.4194)
(-198 3.0659e+06 -5.96427e-15 154.153 -9.02241e-20 43.8466)
(135.88 2.77464e+06 -6.92986e-15 -376.02 2.41765e-19 240.14)
(479.436 2.4546e+06 -1.75585e-14 -781.685 2.02204e-18 302.249)
(1095.3 2.16189e+06 -8.78142e-15 -1508.16 1.55137e-18 412.858)
(2010.51 1.92982e+06 0 -2572.9 0 562.395)
(3329.07 1.77918e+06 0 -4298.22 0 969.149)
(3229.65 1.75363e+06 0 -4149.37 0 919.727)
(-1347.39 1.88532e+06 -8.91474e-14 -543.148 2.85536e-17 1890.54)
(-30506.9 2.04421e+06 9.95911e-14 35237.6 4.19322e-16 -4730.74)
(-72809.8 1.39823e+06 -2.61738e-13 103435 -4.63508e-15 -30625.1)
(-21683.6 356190 0 7101.66 0 14581.9)
(0.432 3.73277e+06 -6.64458e-17 -38.7046 6.85122e-22 38.2726)
(-109.452 3.60309e+06 -5.4251e-16 109.516 -1.729e-21 -0.0636905)
(-211.595 3.50746e+06 1.65325e-15 241.569 5.16417e-20 -29.9734)
(-257.714 3.41071e+06 0 263.009 0 -5.29517)
(-291.087 3.26944e+06 1.00325e-14 276.795 1.99928e-19 14.2924)
(-341.114 3.05277e+06 6.65691e-15 352.744 2.92746e-19 -11.63)
(-221.285 2.76601e+06 0 160.679 0 60.606)
(121.661 2.44891e+06 1.25557e-16 -382.381 -2.15054e-21 260.72)
(460.088 2.14927e+06 1.68536e-14 -787.441 -1.94641e-18 327.354)
(1039.79 1.90248e+06 0 -1483.48 0 443.688)
(1879.39 1.71577e+06 -2.02582e-14 -2511.32 7.62084e-18 631.929)
(2883.61 1.60465e+06 0 -3915.86 0 1032.25)
(1927.35 1.61322e+06 0 -2651.1 0 723.758)
(-3466.94 1.76746e+06 1.73168e-13 2023.65 -4.81183e-17 1443.29)
(-31121.8 1.9051e+06 -9.29163e-14 37056.7 -3.91218e-16 -5934.93)
(-70020.2 1.17404e+06 4.66899e-13 103046 7.64521e-15 -33026)
(-15015.9 296998 0 -492.484 0 15508.4)
(-79.197 3.70032e+06 -6.3979e-17 121.772 -1.42078e-21 -42.5748)
(-66.9086 3.57347e+06 -4.55239e-16 28.6967 1.54906e-21 38.2119)
(-167.188 3.48012e+06 2.13016e-15 160.343 1.64256e-20 6.84507)
(-272.984 3.38555e+06 -1.62827e-15 301.043 -5.08616e-20 -28.0585)
(-316.823 3.24832e+06 5.36618e-15 320.093 1.54017e-19 -3.27041)
(-341.509 3.03651e+06 -1.82007e-14 322.904 -4.54207e-19 18.6053)
(-376.765 2.75462e+06 8.25259e-15 375.991 4.07413e-19 0.77392)
(-245.606 2.43954e+06 -1.21433e-16 166.157 2.0799e-21 79.4487)
(73.7292 2.14018e+06 0 -331.705 0 257.976)
(423.68 1.88464e+06 -3.75394e-14 -778.666 5.28414e-18 354.985)
(947.037 1.67812e+06 -1.95003e-14 -1420.54 4.81359e-18 473.502)
(1671.65 1.52683e+06 1.90513e-14 -2366.35 -7.1668e-18 694.699)
(2303.59 1.44885e+06 0 -3384.82 0 1081.23)
(645.538 1.47501e+06 0 -1394.41 0 748.875)
(-5810.78 1.61845e+06 -8.37802e-14 4879.62 2.18438e-17 931.164)
(-31945.5 1.74409e+06 9.98819e-14 39582.1 5.2978e-16 -7636.63)
(-67702 973060 4.66931e-13 103542 9.2133e-15 -35840.2)
(-7939.73 248643 0 -9533.66 0 17473.4)
(-54.7258 3.66785e+06 0 73.3614 0 -18.6356)
(-114.094 3.54409e+06 6.45083e-17 126.475 1.43254e-21 -12.381)
(-124.956 3.45267e+06 5.19885e-16 82.5413 -2.9341e-21 42.4142)
(-212.902 3.36052e+06 -1.567e-15 190.352 -1.44891e-20 22.5498)
(-329.435 3.22632e+06 5.15927e-15 354.086 2.05391e-19 -24.6512)
(-372.132 3.01925e+06 -5.11193e-15 374.518 -1.46039e-19 -2.38626)
(-384.399 2.74138e+06 1.23117e-14 358.541 3.23097e-19 25.858)
(-408.073 2.42937e+06 -1.403e-14 391.83 -6.59568e-19 16.2424)
(-273.882 2.12977e+06 -1.69873e-14 175.876 -2.80251e-19 98.0058)
(1.19898 1.87225e+06 0 -241.894 0 240.695)
(351.232 1.65631e+06 3.52861e-14 -716.25 -4.9596e-18 365.019)
(829.303 1.48088e+06 -1.1485e-15 -1341.96 7.19184e-19 512.658)
(1385.72 1.36087e+06 3.06564e-16 -2128.99 -1.09636e-19 743.265)
(1589.45 1.31099e+06 4.10938e-14 -2669.12 -3.21601e-17 1079.67)
(-831.874 1.3469e+06 0 174.993 0 656.881)
(-7917.27 1.46437e+06 0 7222.56 0 694.713)
(-32522.7 1.56033e+06 -9.28417e-14 41937.9 -4.92439e-16 -9415.18)
(-66235.2 799749 -4.33543e-13 105533 -8.55449e-15 -39297.7)
(108.248 210088 0 -21087.6 0 20979.3)
(20.0954 3.63433e+06 1.18996e-16 -74.3957 -2.10686e-21 54.3004)
(-113.664 3.51452e+06 0 126.761 0 -13.0973)
(-172.763 3.42541e+06 -1.47632e-15 183.256 -3.43836e-20 -10.4932)
(-198.807 3.3353e+06 3.96906e-15 171.068 1.36793e-20 27.7383)
(-267.611 3.20433e+06 0 241.697 0 25.914)
(-382.057 3.00127e+06 -5.08703e-15 404.113 -2.0222e-19 -22.0567)
(-420.955 2.72806e+06 0 421.627 0 -0.67156)
(-422.56 2.4185e+06 0 388.686 0 33.8738)
(-437.85 2.11995e+06 -1.21876e-16 405.65 -5.43952e-21 32.1995)
(-308.352 1.8606e+06 1.6098e-14 193.453 2.6558e-19 114.9)
(-83.2766 1.64062e+06 0 -138.965 0 222.241)
(227.973 1.45573e+06 0 -570.749 0 342.776)
(686.612 1.30905e+06 1.81047e-14 -1246.62 -4.83757e-18 560.006)
(1029.98 1.21698e+06 -3.957e-14 -1805.43 1.89742e-17 775.454)
(785.2 1.19131e+06 1.99865e-15 -1808.83 -2.37602e-18 1023.63)
(-2163.47 1.2398e+06 -8.27781e-14 1529.16 3.44228e-17 634.313)
(-10189.9 1.33487e+06 0 10040.8 0 149.119)
(-32561 1.35905e+06 0 43583.5 0 -11022.5)
(-66729.7 656186 0 111088 0 -44358)
(9115.68 174315 0 -35033.9 0 25918.2)
(23.6175 3.60343e+06 0 -77.2683 0 53.6508)
(-67.3617 3.48391e+06 -1.2021e-16 39.0975 1.30725e-21 28.2642)
(-173.823 3.39787e+06 3.7304e-17 187.117 2.28571e-22 -13.2937)
(-236.81 3.31016e+06 1.45582e-15 253.784 3.39062e-20 -16.9747)
(-253.69 3.1822e+06 -3.87828e-15 224.652 -1.33664e-20 29.0375)
(-320.203 2.98329e+06 0 293.17 0 27.0326)
(-428.835 2.71424e+06 -1.312e-14 448.469 -6.52802e-19 -19.6334)
(-462.667 2.40824e+06 -1.44666e-14 460.007 -6.53275e-19 2.6601)
(-460.025 2.11024e+06 -3.13795e-14 420.394 -1.2496e-18 39.6311)
(-469.22 1.85052e+06 0 421.292 0 47.9275)
(-348.856 1.62809e+06 0 217.984 0 130.872)
(-165.752 1.43721e+06 2.75893e-16 -51.0466 -7.40693e-21 216.798)
(72.7735 1.28051e+06 3.73678e-14 -379.075 -6.2605e-18 306.302)
(484.436 1.16129e+06 3.81033e-14 -1063.64 -1.18273e-17 579.207)
(608.82 1.09388e+06 3.69042e-14 -1397.13 -1.76959e-17 788.313)
(-4.01329 1.0888e+06 -7.68907e-14 -1013.66 6.19616e-17 1017.67)
(-3762.95 1.15034e+06 7.69088e-14 3497.71 -5.04854e-17 265.233)
(-12826.1 1.22221e+06 0 13889.6 0 -1063.46)
(-32113.5 1.14829e+06 1.882e-13 44570.6 1.42318e-15 -12457.1)
(-66439.6 524659 -4.01138e-13 114552 -1.07571e-14 -48112)
(12889.4 137729 0 -39133 0 26243.7)
(-64.9959 3.57619e+06 -1.11414e-16 101.161 -2.13902e-21 -36.1648)
(-47.8078 3.45569e+06 0 11.4862 0 36.3216)
(-137.696 3.36936e+06 -7.24452e-17 122.855 5.57643e-23 14.8402)
(-230.969 3.28479e+06 0 244.352 0 -13.383)
(-292.859 3.16012e+06 0 311.186 0 -18.3271)
(-296.438 2.96527e+06 1.09678e-14 258.58 1.42801e-19 37.858)
(-367.832 2.70052e+06 9.26088e-17 340.898 3.27696e-21 26.9342)
(-468.64 2.39781e+06 1.24675e-14 484.487 6.21647e-19 -15.8471)
(-500.448 2.10166e+06 1.39988e-14 494.657 6.32748e-19 5.79104)
(-500.142 1.84116e+06 -2.38236e-15 457.093 -2.67875e-19 43.0487)
(-501.971 1.61783e+06 3.37089e-14 437.272 2.04634e-18 64.6985)
(-395.129 1.424e+06 3.46984e-14 250.297 6.56391e-19 144.832)
(-255.36 1.26004e+06 0 40.4814 0 214.879)
(-98.6552 1.12907e+06 -3.49321e-14 -173.556 5.85244e-18 272.212)
(214.384 1.03502e+06 1.60555e-15 -777.251 -1.03981e-18 562.866)
(116.667 989050 3.75822e-14 -894.085 -1.94581e-17 777.418)
(-1001.01 1.00105e+06 7.48169e-14 136.644 -4.06612e-17 864.366)
(-5146.98 1.07022e+06 0 5070.68 0 76.2951)
(-15803.6 1.11386e+06 0 18868 0 -3064.38)
(-31144.9 937019 -3.55872e-13 44750 -2.85781e-15 -13605.2)
(-58523.2 405103 3.71171e-13 102181 9.95349e-15 -43657.5)
(11680.2 102798 -7.73543e-13 -33820.8 -1.04106e-14 22140.6)
(-74.1792 3.54626e+06 0 119.771 0 -45.5917)
(-100.978 3.43078e+06 1.33543e-16 121.468 2.61148e-21 -20.49)
(-92.864 3.34307e+06 3.52102e-17 51.4497 -1.42882e-22 41.4144)
(-184.223 3.25848e+06 0 161.59 0 22.6332)
(-283.624 3.13791e+06 0 295.56 0 -11.9363)
(-345.398 2.94739e+06 0 366.291 0 -20.8935)
(-342.831 2.68691e+06 1.53053e-15 305.851 7.65678e-20 36.9794)
(-410.004 2.38761e+06 -9.91852e-17 383.655 -2.4021e-21 26.3493)
(-504.088 2.09313e+06 -1.09349e-16 516.476 -5.81079e-21 -12.3876)
(-538.596 1.83314e+06 0 530.935 0 7.66165)
(-544.214 1.60875e+06 3.03117e-14 500.776 1.37056e-18 43.4373)
(-536.714 1.41375e+06 -3.16961e-14 455.605 -1.92416e-18 81.1093)
(-448.632 1.24617e+06 -3.30355e-14 292.787 -6.19692e-19 155.845)
(-353.287 1.1074e+06 0 139.614 0 213.673)
(-264.192 999484 -2.72124e-16 -0.201057 3.23888e-20 264.393)
(-99.1748 927305 -3.45692e-14 -437.655 1.12343e-17 536.83)
(-444.355 899951 -3.49138e-14 -302.521 1.80765e-17 746.877)
(-2219.12 925397 1.5528e-15 1671.95 9.43681e-19 547.171)
(-6664.62 994054 0 6979.41 0 -314.792)
(-18481.2 1.00728e+06 3.2223e-16 23795.8 1.56015e-18 -5314.6)
(-29173.8 737557 1.67669e-13 43221.8 1.4229e-15 -14048)
(-48586.5 316442 1.37752e-15 85209 3.62374e-17 -36622.4)
(10561 65591.6 6.82525e-13 -28799 9.38912e-15 18238)
(-1.44459 3.51811e+06 5.24168e-17 -23.6202 -3.62672e-22 25.0648)
(-117.193 3.40329e+06 -2.03556e-17 154.359 -4.37404e-22 -37.1662)
(-147.787 3.31976e+06 3.38247e-17 166.876 7.9562e-22 -19.0897)
(-138.187 3.2342e+06 -3.5024e-15 94.1418 1.0157e-20 44.0451)
(-227.503 3.11485e+06 -8.67429e-15 196.697 -6.9192e-20 30.8056)
(-330.958 2.92944e+06 -7.35808e-17 341.1 -1.54442e-21 -10.1421)
(-390.019 2.67352e+06 -8.53261e-17 411.736 -3.26058e-21 -21.7169)
(-385.083 2.37768e+06 -1.148e-14 350.901 -2.02609e-19 34.1822)
(-449.111 2.08499e+06 -1.04377e-16 425.07 -3.0898e-21 24.041)
(-539.323 1.82541e+06 0 549.271 0 -9.94751)
(-578.187 1.6012e+06 0 569.956 0 8.23168)
(-590.256 1.40506e+06 -3.21579e-14 548.417 -1.88722e-18 41.8389)
(-574.132 1.23575e+06 2.53854e-16 478.101 1.08059e-20 96.0303)
(-511.248 1.09283e+06 0 348.654 0 162.595)
(-468.476 976684 5.24052e-16 264.251 -3.70574e-20 204.225)
(-455.545 889305 0 204.172 0 251.374)
(-446.988 835926 0 -64.1192 0 511.108)
(-1069.33 824484 0 368.849 0 700.476)
(-3641.98 859466 -3.40334e-14 3577.07 2.51406e-17 64.9144)
(-8329.02 915521 7.39746e-14 9285.28 -7.20966e-18 -956.266)
(-20791.5 897381 0 28584.7 0 -7793.19)
(-26459.2 565653 -6.49735e-16 40363.1 -1.34754e-17 -13904)
(-37336.9 249277 -3.31069e-13 65145.2 -1.06987e-14 -27808.2)
(14341.9 38166.5 0 -34190.7 0 19848.7)
(14.108 3.49101e+06 0 -53.3394 0 39.2314)
(-62.0488 3.37749e+06 -5.3132e-17 49.7365 6.5239e-22 12.3123)
(-163.961 3.29403e+06 1.25219e-15 200.02 3.58628e-20 -36.0583)
(-198.086 3.21253e+06 -3.30467e-15 221.453 -8.75015e-20 -23.3671)
(-184.754 3.09347e+06 1.17186e-14 141.608 -1.01227e-20 43.1455)
(-273.115 2.91097e+06 8.49884e-15 241.03 6.89393e-20 32.0853)
(-372.104 2.66024e+06 -1.11936e-14 380.682 -4.38063e-19 -8.57765)
(-424.637 2.36807e+06 -9.23132e-17 443.463 -4.02889e-21 -18.8267)
(-423.597 2.07726e+06 2.70926e-14 393.42 7.71928e-19 30.1772)
(-487.077 1.81812e+06 2.85419e-14 465.814 1.22987e-18 21.263)
(-573.407 1.59415e+06 2.98769e-14 580.004 2.27153e-18 -6.59764)
(-617.567 1.39798e+06 -1.1859e-16 609.141 -7.36472e-21 8.42669)
(-637.07 1.22731e+06 3.02564e-14 597.131 1.77602e-18 39.9388)
(-616.732 1.0821e+06 3.26715e-14 508.305 2.42988e-18 108.427)
(-585.195 961344 3.25716e-14 421.488 9.17358e-19 163.707)
(-610.384 865210 2.5285e-16 431.016 -4.16239e-21 179.367)
(-696.879 795858 6.64682e-14 486.849 -9.97037e-18 210.03)
(-838.413 758806 0 360.935 0 477.479)
(-1844.48 760849 6.7152e-14 1295.63 -3.16578e-17 548.845)
(-4835.01 800581 0 5021.48 0 -186.471)
(-10184.9 828855 -6.83868e-14 12125.4 6.66506e-18 -1940.47)
(-22450.9 781035 0 32600.9 0 -10150)
(-23472.9 427616 1.55085e-13 36904.5 1.78068e-15 -13431.5)
(-27182.1 190542 3.05625e-13 46897.2 1.02871e-14 -19715.1)
(16661.4 23217.4 0 -37388 0 20726.6)
(-23.2473 3.46483e+06 6.32143e-18 22.4536 7.18671e-23 0.793741)
(-44.5924 3.35253e+06 4.02612e-16 18.8543 -2.04606e-21 25.738)
(-112.046 3.26991e+06 1.18507e-15 105.279 8.57294e-22 6.76724)
(-211.759 3.1887e+06 -1.28214e-15 249.913 -3.65482e-20 -38.1535)
(-243.457 3.07422e+06 3.3933e-15 268.292 8.85463e-20 -24.8352)
(-227.955 2.89366e+06 -1.77283e-14 185.857 -4.11058e-20 42.098)
(-318.16 2.64683e+06 0 290.632 0 27.5274)
(-408.044 2.3588e+06 1.09744e-14 416.757 4.29072e-19 -8.71322)
(-454.046 2.06994e+06 -2.60597e-14 469.86 -1.42426e-18 -15.8138)
(-462.402 1.81138e+06 -2.5367e-14 438.299 -7.20262e-19 24.1028)
(-525.357 1.58763e+06 1.97428e-15 507.799 2.94443e-19 17.558)
(-606.782 1.39166e+06 -5.80775e-14 610.762 -4.65634e-18 -3.98024)
(-659.196 1.22056e+06 3.06192e-14 653.239 2.56026e-18 5.95757)
(-683.854 1.0737e+06 -2.39347e-16 644.949 -1.71488e-20 38.9057)
(-666.654 950267 -3.02335e-14 550.155 -2.24919e-18 116.499)
(-672.662 849043 -3.05462e-14 514.586 -8.30667e-19 158.076)
(-766.465 770424 0 613.364 0 153.102)
(-957.897 716936 -1.2544e-13 784.958 1.75812e-17 172.939)
(-1303.47 694065 0 895.611 0 407.862)
(-2789.44 707134 -6.23709e-14 2524.36 2.94341e-17 265.084)
(-6067.7 745812 2.50296e-16 6613.62 -9.23234e-20 -545.926)
(-12213.4 739756 0 15533.9 0 -3320.54)
(-22876.5 656902 0 34593.2 0 -11716.7)
(-20887.4 319908 -1.43098e-13 34046.5 -1.64305e-15 -13159.1)
(-18017.9 138895 -5.74013e-13 30286.4 -2.06305e-14 -12268.5)
(17638.8 15785.7 0 -38366.1 0 20727.3)
(-69.9162 3.43884e+06 -1.23804e-17 116.904 -2.0203e-22 -46.9874)
(-64.2063 3.32839e+06 3.92337e-16 60.9626 2.28397e-21 3.24365)
(-88.9551 3.24646e+06 -4.33763e-16 65.2604 3.02417e-21 23.6948)
(-141.196 3.16633e+06 -1.15932e-15 121.013 -5.00804e-22 20.1829)
(-256.144 3.05327e+06 3.81442e-15 295.306 1.42236e-19 -39.1617)
(-282.776 2.87781e+06 0 306.662 0 -23.8854)
(-267.235 2.63402e+06 9.2178e-15 227.324 3.72756e-20 39.9109)
(-360.014 2.34973e+06 -2.34282e-14 340.268 -5.27176e-19 19.746)
(-439.582 2.06302e+06 1.87884e-16 449.672 6.84977e-21 -10.0906)
(-483.186 1.80514e+06 5.12835e-14 497.698 2.97808e-18 -14.5114)
(-502.547 1.58168e+06 2.77772e-14 486.884 1.17316e-18 15.6622)
(-565.129 1.38596e+06 -2.71707e-14 554.369 -1.36522e-18 10.7607)
(-641.829 1.2147e+06 2.77811e-14 645.901 2.33945e-18 -4.07281)
(-709.311 1.06706e+06 -2.90747e-14 714.116 -2.43558e-18 -4.80504)
(-731.35 941762 -2.31006e-16 692.472 -2.10944e-20 38.8781)
(-724.678 837483 2.30689e-16 604.439 2.79554e-20 120.239)
(-775.242 753363 0 629.808 0 145.433)
(-942.876 690077 0 821.199 0 121.677)
(-1249.64 650432 5.88473e-14 1118.25 -7.70237e-18 131.393)
(-1810.16 639888 0 1473.47 0 336.688)
(-3752.7 661092 -2.41041e-16 3766.75 8.89097e-20 -14.0491)
(-7247.41 692448 6.34032e-14 8270.21 -1.16236e-18 -1022.8)
(-14584.9 662131 0 19944.8 0 -5359.88)
(-21602.7 527442 0 33589.4 0 -11986.8)
(-18752.2 235102 0 31785 0 -13032.8)
(-11309 98131.6 5.28848e-13 18249.7 1.90126e-14 -6940.69)
(16235.8 11546 4.70764e-13 -34872.6 1.09648e-14 18636.8)
(-59.5194 3.4141e+06 6.06995e-18 97.0726 1.29339e-22 -37.5532)
(-98.988 3.30449e+06 3.82837e-16 133.523 9.42032e-21 -34.535)
(-100.173 3.22379e+06 -3.62115e-16 92.5379 -2.26855e-21 7.63547)
(-125.967 3.1445e+06 -8.45251e-17 98.8104 -3.26811e-22 27.1564)
(-173.299 3.03349e+06 3.87161e-15 144.86 2.85045e-20 28.439)
(-296.935 2.86099e+06 -3.68039e-15 337.33 -1.37703e-19 -40.3949)
(-315.049 2.62204e+06 1.02522e-14 335.971 3.97429e-19 -20.9219)
(-301.514 2.34077e+06 2.24496e-14 264.112 2.74505e-19 37.4019)
(-397.504 2.05657e+06 -2.52023e-15 386.704 -2.07335e-19 10.8006)
(-468.003 1.79937e+06 2.58082e-14 478.5 1.46635e-18 -10.4971)
(-510.99 1.57641e+06 -5.21182e-14 524.176 -3.38035e-18 -13.1861)
(-541.795 1.38087e+06 -2.60003e-14 535.555 -1.0955e-18 6.23952)
(-603.978 1.20958e+06 2.86269e-14 600.536 1.94579e-18 3.44245)
(-676.746 1.06143e+06 4.43112e-16 681.228 4.13921e-20 -4.48229)
(-762.768 935093 2.24048e-16 781.162 2.0459e-20 -18.3946)
(-784.227 828750 -4.50857e-16 748.498 -3.99857e-20 35.7295)
(-789.533 741261 0 667.34 0 122.194)
(-897.762 671994 0 775.404 0 122.357)
(-1148.77 622075 5.87675e-14 1070.25 -6.79543e-20 78.5181)
(-1590.7 594552 0 1519.73 0 70.9701)
(-2443.63 594417 5.84397e-14 2264.37 -1.16588e-17 179.263)
(-4730.77 620562 -5.8711e-14 5039.56 7.67301e-18 -308.792)
(-8356.16 636919 -5.85195e-14 9976.6 1.07283e-18 -1620.44)
(-17235.5 592902 0 25312.1 0 -8076.54)
(-18533.1 399488 0 29279.2 0 -10746.1)
(-17150.9 169286 4.96561e-16 30194 1.26793e-17 -13043.1)
(-5836.48 68374.4 4.93062e-13 8389.5 1.80797e-14 -2553.02)
(15005.5 9032.15 -4.47121e-13 -31916.7 -1.00884e-14 16911.2)
(-1.77879 3.38941e+06 4.62803e-17 -17.5045 -2.51157e-22 19.2833)
(-91.1307 3.28166e+06 3.74211e-16 120.566 7.94912e-21 -29.4351)
(-136.576 3.20134e+06 7.43885e-16 170.068 2.08951e-20 -33.492)
(-153.598 3.12339e+06 3.08335e-15 160.826 3.82417e-20 -7.22816)
(-162.98 3.01405e+06 -5.24924e-17 134.301 -4.45157e-22 28.6793)
(-208.597 2.84484e+06 -3.8323e-15 178.231 -2.86821e-20 30.3657)
(-333.307 2.60983e+06 -7.27701e-17 375.786 -2.0599e-21 -42.4792)
(-342.215 2.3322e+06 -9.48908e-15 360.544 -3.6908e-19 -18.3287)
(-333.403 2.05004e+06 -2.13556e-14 300.523 -2.61823e-19 32.8806)
(-433.906 1.79416e+06 2.30978e-14 433.099 6.59822e-19 0.807574)
(-494.421 1.57164e+06 1.79045e-15 504.821 2.83447e-19 -10.4005)
(-536.978 1.37641e+06 2.51106e-14 549.109 1.7159e-18 -12.1305)
(-580.938 1.2051e+06 0 585.219 0 -4.28075)
(-642.173 1.05661e+06 -2.65481e-14 646.201 -1.80287e-18 -4.02853)
(-712.495 929604 5.60147e-14 717.92 6.44347e-18 -5.42522)
(-817.432 821936 0 849.3 0 -31.8678)
(-849.585 732173 -4.3013e-16 826.307 -5.14201e-20 23.2785)
(-858.289 659246 0 732.083 0 126.206)
(-1036.83 602893 5.55881e-14 942.526 4.33413e-18 94.3007)
(-1383.46 564651 -5.39494e-14 1356.12 5.37476e-20 27.332)
(-1980.67 547769 -2.12223e-16 1985.52 -1.44321e-21 -4.84192)
(-3199.86 556236 -5.4401e-14 3263.02 1.08487e-17 -63.1628)
(-5818.89 582260 5.45968e-14 6569.89 -7.15973e-18 -750.999)
(-9570.34 574297 0 12024.6 0 -2454.23)
(-19995.5 516575 0 31317.2 0 -11321.7)
(-14536.3 285257 1.20114e-13 23203.3 8.84853e-16 -8666.98)
(-16201.1 119432 0 29500.4 0 -13299.3)
(827.332 47505 -9.10832e-13 -4108.21 -3.32229e-14 3280.88)
(14166.8 7204.93 0 -29874.8 0 15708)
(37.6847 3.36603e+06 -4.53629e-17 -95.4313 1.03217e-21 57.7466)
(-62.799 3.2588e+06 -4.7072e-17 66.3814 5.91213e-22 -3.58233)
(-126.503 3.17986e+06 -3.74841e-16 154.289 -7.9625e-21 -27.7867)
(-177.811 3.10247e+06 -1.11513e-15 215.576 -3.00024e-20 -37.7657)
(-204.277 2.99521e+06 7.38255e-16 225.379 2.86853e-20 -21.1012)
(-199.328 2.82891e+06 0 171.351 0 27.9772)
(-246.759 2.59782e+06 2.12963e-16 222.188 3.42872e-21 24.5709)
(-364.127 2.32403e+06 -1.06667e-14 408.836 -5.54789e-19 -44.7085)
(-364.718 2.04362e+06 0 380.294 0 -15.5756)
(-368.251 1.78875e+06 -2.42134e-14 344.748 -5.4495e-19 23.5033)
(-469.857 1.5674e+06 0 479.815 0 -9.95811)
(-519.038 1.37257e+06 -5.0437e-14 529.775 -3.41327e-18 -10.737)
(-562.616 1.20122e+06 -5.29542e-14 574.886 -4.46973e-18 -12.2697)
(-620.693 1.05249e+06 5.36255e-14 637.14 3.84053e-18 -16.447)
(-681.463 924890 -5.39831e-14 694.192 -4.90359e-18 -12.7292)
(-750.94 816412 -5.25247e-14 759.373 -6.03976e-18 -8.43377)
(-873.052 725075 3.66002e-18 917.232 -5.45827e-21 -44.1797)
(-931.181 649703 0 932.365 0 -1.18331)
(-946.695 589348 0 828.312 0 118.382)
(-1189.56 544205 1.91787e-15 1123 1.51029e-18 66.5618)
(-1648.61 516262 -5.22393e-14 1679.09 -4.14022e-18 -30.4833)
(-2428.03 508743 -5.27334e-14 2530.42 -3.58791e-18 -102.386)
(-3984.13 523607 5.30229e-14 4291.43 1.95921e-18 -307.296)
(-6888.12 543242 0 8157.1 0 -1268.98)
(-11212.9 508759 -5.50581e-14 15072 -6.98213e-17 -3859.08)
(-21525.8 425576 0 35328.5 0 -13802.8)
(-10496.6 195215 -1.10653e-13 16887.1 -8.15152e-16 -6390.46)
(-15831.9 82639.2 -2.18082e-13 29627.5 -3.80333e-15 -13795.6)
(6356.15 33101.7 8.41155e-13 -14539.3 3.01278e-14 8183.12)
(15399.3 5661.55 0 -32040.7 0 16641.5)
(8.50801 3.34292e+06 -5.01999e-17 -35.6741 3.98386e-22 27.1661)
(-16.8415 3.2371e+06 4.61626e-17 -22.6937 -1.05036e-21 39.5353)
(-94.6715 3.15832e+06 2.8302e-17 94.361 -1.60597e-22 0.310487)
(-162.658 3.0824e+06 -2.82519e-15 191.22 -7.52589e-20 -28.5616)
(-217.137 2.97657e+06 0 258.985 0 -41.8482)
(-235.543 2.81337e+06 -1.1846e-14 254.048 -2.52886e-19 -18.5054)
(-233.11 2.58597e+06 -2.76988e-16 207.932 -3.76429e-21 25.1779)
(-279.086 2.3157e+06 -1.54731e-16 259.55 -5.08169e-21 19.5357)
(-388.879 2.038e+06 1.02366e-14 434.612 5.29447e-19 -45.7333)
(-384.98 1.7834e+06 -2.35141e-14 397.61 -1.24812e-18 -12.6306)
(-404.94 1.56298e+06 2.28428e-14 393.927 5.14103e-19 11.0134)
(-504.077 1.36929e+06 9.51651e-17 525.434 3.825e-21 -21.357)
(-542.331 1.19796e+06 7.55455e-14 553.689 5.8146e-18 -11.3577)
(-588.438 1.049e+06 4.94835e-14 602.103 4.17678e-18 -13.6655)
(-661.009 920955 1.89984e-15 690.688 8.03222e-19 -29.6797)
(-721.842 811740 1.02738e-13 744.184 1.0067e-17 -22.3416)
(-792.188 719448 3.45876e-18 805.433 4.38189e-21 -13.2449)
(-929.319 642317 5.20794e-14 983.755 8.47235e-18 -54.4359)
(-1018.73 579256 3.93501e-16 1045.28 6.2644e-20 -26.5488)
(-1073.11 529829 -3.9429e-16 991.202 -4.34651e-20 81.9046)
(-1378.48 494476 -9.9775e-14 1359.31 -1.19939e-17 19.1736)
(-1955.11 475540 4.84167e-14 2056.8 3.80585e-18 -101.683)
(-2950.7 476003 9.83662e-14 3187.63 1.16815e-17 -236.931)
(-4842.8 494169 -4.89046e-14 5466.49 -1.80703e-18 -623.685)
(-7781.53 500604 0 9578.13 0 -1796.6)
(-13323.4 449940 5.03435e-14 19293.6 6.38434e-17 -5970.28)
(-20406.5 324052 0 34486.6 0 -14080)
(-7437.31 131069 0 12178.1 0 -4740.76)
(-16075.6 56450.2 2.00827e-13 30732.9 3.5024e-15 -14657.3)
(8087.79 23099.2 -3.87805e-13 -17531.8 -1.37067e-14 9444)
(16851.3 4683.57 0 -34698.8 0 17847.5)
(-54.8921 3.32226e+06 2.75198e-17 92.2337 4.47132e-22 -37.3415)
(-32.3882 3.21571e+06 4.53351e-17 12.2589 -4.26128e-22 20.1293)
(-68.0105 3.13782e+06 -5.57271e-17 45.6581 4.0559e-22 22.3524)
(-118.053 3.06221e+06 1.36367e-15 106.876 8.82794e-21 11.1766)
(-195.768 2.95869e+06 -6.55895e-16 223.636 -2.78832e-20 -27.8688)
(-252.496 2.79801e+06 1.17144e-16 297.488 3.92501e-21 -44.992)
(-265.382 2.57425e+06 1.74996e-14 284.222 4.41136e-19 -18.84)
(-264.239 2.30746e+06 0 244.041 0 20.1972)
(-306.193 2.03199e+06 2.15344e-14 290.8 4.91115e-19 15.3929)
(-409.921 1.77897e+06 2.26823e-14 454.938 1.45522e-18 -45.0178)
(-404.245 1.55855e+06 2.21829e-14 414.103 1.17746e-18 -9.85748)
(-441.226 1.36587e+06 2.4089e-14 444.383 8.832e-19 -3.15664)
(-536.925 1.19535e+06 -4.92155e-14 570.167 -3.07571e-18 -33.2419)
(-565.217 1.0461e+06 -4.78586e-14 577.95 -3.81121e-18 -12.7327)
(-615.095 917638 -1.9049e-16 631.488 -1.99188e-20 -16.3932)
(-702.328 807838 -9.87332e-14 746.265 -9.08659e-18 -43.9368)
(-764.12 714743 -4.76274e-14 797.161 -4.98132e-18 -33.0404)
(-837.495 636488 4.93419e-14 857.866 7.88763e-18 -20.3715)
(-990.837 571541 8.60078e-16 1057.39 1.31334e-18 -66.5578)
(-1106.22 519150 4.87952e-14 1151.75 9.00914e-18 -45.5327)
(-1219.94 479115 4.81192e-14 1184.01 8.29146e-18 35.9343)
(-1609.86 452439 4.69761e-14 1660.51 6.44086e-18 -50.6582)
(-2316.97 441357 -4.79211e-14 2513.54 -1.04097e-17 -196.569)
(-3556.07 448325 -4.61898e-14 3975.48 -7.76964e-18 -419.412)
(-5761.2 465597 0 6799.93 0 -1038.73)