/*--------------------------------*- C++ -*----------------------------------*\
| =========                 |                                                 |
| \\      /  F ield         | OpenFOAM: The Open Source CFD Toolbox           |
|  \\    /   O peration     | Version:  v2012                                 |
|   \\  /    A nd           | Website:  www.openfoam.com                      |
|    \\/     M anipulation  |                                                 |
\*---------------------------------------------------------------------------*/
FoamFile
{
    version     2.0;
    format      ascii;
    class       volScalarField;
    location    "13200";
    object      T;
}
// * * * * * * * * * * * * * * * * * * * * * * * * * * * * * * * * * * * * * //

dimensions      [0 0 0 1 0 0 0];


internalField   nonuniform List<scalar> 
39402
(
418.524
317.708
444.944
308.489
351.318
427.589
307.284
330.879
376.709
397.484
307.534
327.633
349.741
395.343
364.329
307.658
327.904
344.614
365.692
408.071
331.959
307.73
327.844
344.493
358.702
379.099
415.442
301.88
307.679
327.807
343.883
357.775
370.11
390.164
417.852
274.496
307.558
327.515
343.519
356.263
367.91
378.896
398.955
415.611
249.818
307.372
327.125
342.868
355.363
365.141
374.936
385.099
405.439
408.998
227.656
307.175
326.606
342.181
354.236
363.498
370.621
379.019
388.844
409.498
398.315
207.756
306.98
326.075
341.35
353.225
361.789
368.083
373.048
380.552
390.354
410.938
383.924
189.848
306.796
325.582
340.54
352.101
360.427
365.73
369.593
373.045
380.043
389.85
409.498
366.265
173.729
306.613
325.125
339.81
351.063
359.032
364.016
366.623
368.784
371.289
377.911
387.451
404.874
345.895
159.117
306.443
324.674
339.149
350.156
357.817
362.38
364.593
365.302
366.402
368.276
374.397
383.185
396.744
323.416
145.857
306.287
324.262
338.505
349.355
356.79
361.039
362.76
363.021
362.542
362.96
364.3
369.68
377.02
384.816
299.544
133.772
306.143
323.891
337.926
348.591
355.917
359.946
361.337
361.042
360.083
358.852
358.753
359.562
363.913
368.921
368.891
275.029
122.749
306.005
323.552
337.406
347.917
355.103
359.057
360.221
359.576
358.01
356.28
354.52
353.984
354.19
357.244
359.122
348.958
250.58
112.622
305.869
323.216
336.935
347.315
354.402
358.253
359.36
358.468
356.531
354.16
351.892
349.744
348.79
348.271
349.801
348.044
325.298
226.713
103.283
305.732
322.892
336.473
346.772
353.786
357.589
358.607
357.659
355.454
352.699
349.772
347.115
344.653
343.248
341.847
341.559
335.63
298.584
203.724
94.6104
305.614
322.576
336.029
346.255
353.24
357.018
358.015
356.977
354.71
351.67
348.358
345.041
342.08
339.32
337.39
334.913
332.38
321.545
269.913
181.756
87.025
305.512
322.3
335.594
345.757
352.73
356.526
357.526
356.472
354.106
351.001
347.392
343.695
340.094
336.865
333.775
331.216
327.424
322.144
305.595
240.652
162.116
80.5473
305.392
322.054
335.219
345.267
352.246
356.078
357.124
356.079
353.694
350.481
346.809
342.808
338.838
335.005
331.513
328.029
324.701
319.307
310.717
287.522
212.305
144.857
75.6495
305.289
321.77
334.885
344.847
351.769
355.661
356.771
355.778
353.398
350.164
346.378
342.316
338.041
333.86
329.812
326.034
322.069
317.798
310.466
297.991
267.053
186.133
129.168
72.6521
305.19
321.531
334.496
344.485
351.365
355.255
356.455
355.532
353.199
349.968
346.159
341.979
337.647
333.167
328.802
324.532
320.419
315.864
310.436
300.775
283.95
244.008
162.688
115.338
70.9066
305.097
321.304
334.17
344.05
351.023
354.92
356.152
355.329
353.058
349.869
346.063
341.859
337.406
332.878
328.227
323.681
319.161
314.646
309.363
302.518
290.092
268.691
218.445
142.191
104.034
69.7335
305.005
321.087
333.862
343.689
350.601
354.643
355.917
355.139
352.964
349.83
346.063
341.861
337.387
332.738
328.05
323.24
318.499
313.685
308.678
302.495
293.92
278.257
251.938
190.96
124.849
95.28
68.8219
304.917
320.862
333.568
343.344
350.259
354.285
355.734
355.01
352.882
349.841
346.126
341.96
337.487
332.819
328.016
323.186
318.212
313.246
308.077
302.465
295.172
284.493
265.121
232.811
163.116
110.982
88.5929
68.0934
304.831
320.658
333.266
343.021
349.93
354.007
355.469
354.929
352.858
349.862
346.238
342.12
337.681
333.017
328.201
323.264
318.293
313.135
307.902
302.299
295.944
287.282
274.069
250.611
210.545
137.582
100.442
83.4601
67.5508
304.753
320.459
332.991
342.692
349.624
353.74
355.284
354.768
352.876
349.937
346.357
342.329
337.935
333.305
328.498
323.557
318.492
313.366
307.995
302.439
296.306
289.032
278.686
262.485
234.815
185.057
116.522
92.719
79.5343
67.1974
304.675
320.281
332.719
342.39
349.313
353.494
355.106
354.683
352.814
350.051
346.527
342.541
338.238
333.652
328.879
323.954
318.897
313.697
308.395
302.769
296.821
290.036
281.628
269.222
249.592
217.32
157.476
100.485
86.9576
76.4618
67.047
304.609
320.101
332.481
342.09
349.03
353.242
354.946
354.601
352.829
350.082
346.734
342.802
338.538
334.044
329.317
324.43
319.398
314.221
308.869
303.361
297.429
291.003
283.418
273.609
258.711
235.31
197.024
130.802
89.8394
82.4515
74.0929
66.9148
304.536
319.942
332.238
341.828
348.745
353.013
354.777
354.536
352.84
350.191
346.854
343.096
338.884
334.429
329.798
324.958
319.97
314.831
309.522
303.996
298.242
291.941
284.93
276.36
264.823
246.974
219.674
173.179
108.626
84.0256
78.9184
72.4034
66.657
304.463
319.773
332.028
341.559
348.492
352.78
354.631
354.462
352.866
350.289
347.051
343.3
339.262
334.856
330.263
325.526
320.59
315.503
310.247
304.788
299.058
293.009
286.261
278.536
268.749
255.095
233.879
202.376
146.523
92.6068
80.1345
76.1903
71.2408
66.2102
304.399
319.601
331.8
341.335
348.244
352.579
354.476
354.407
352.882
350.402
347.233
343.581
339.545
335.313
330.769
326.071
321.244
316.217
311.026
305.638
300.005
294.033
287.63
280.339
271.737
260.445
244.241
219.403
182.292
120.636
82.8649
76.7507
74.6556
70.4163
65.6837
304.34
319.452
331.57
341.085
348.035
352.38
354.348
354.337
352.914
350.501
347.427
343.84
339.903
335.671
331.304
326.653
321.868
316.957
311.836
306.529
300.99
295.152
288.891
282.062
274.111
264.427
251.284
232.103
203.656
158.411
98.6281
77.4196
73.916
73.634
69.7824
65.3517
304.293
319.324
331.371
340.832
347.798
352.217
354.219
354.289
352.927
350.616
347.606
344.111
340.235
336.103
331.732
327.263
322.526
317.661
312.666
307.442
302.003
296.286
290.205
283.601
276.258
267.498
256.477
241.079
218.602
186.052
132.607
85.0314
74.2727
71.8223
72.9325
69.4171
65.1929
304.24
319.219
331.201
340.615
347.557
352.024
354.121
354.239
352.959
350.706
347.799
344.364
340.578
336.504
332.234
327.76
323.209
318.394
313.451
308.364
303.024
297.431
291.506
285.138
278.123
270.157
260.402
247.728
229.652
203.783
165.164
107.34
76.6896
72.1776
70.4258
72.2426
69.2483
65.1025
304.178
319.092
331.066
340.43
347.351
351.825
353.988
354.213
352.983
350.811
347.96
344.631
340.901
336.913
332.7
328.33
323.774
319.151
314.261
309.233
304.043
298.569
292.797
286.626
279.918
272.409
263.684
252.7
237.999
216.882
187.549
140.92
88.522
72.4916
70.5995
69.7316
71.647
69.0619
65.0105
304.118
318.949
330.897
340.285
347.178
351.656
353.852
354.148
353.027
350.904
348.134
344.86
341.236
337.303
333.174
328.859
324.409
319.783
315.092
310.121
305
299.692
294.063
288.081
281.62
274.506
266.402
256.745
244.241
227.107
202.801
168.956
116.075
77.9765
70.9295
69.2015
69.9036
71.2869
68.6146
64.8969
304.071
318.81
330.706
340.103
347.04
351.519
353.741
354.079
353.03
351.014
348.293
345.098
341.529
337.703
333.625
329.393
324.999
320.482
315.791
311.028
305.969
300.741
295.296
289.486
283.258
276.456
268.857
260.03
249.222
234.847
214.921
187.569
146.687
93.9072
72.4627
69.5618
68.2335
69.9989
71.1063
67.8106
64.7824
304.04
318.705
330.522
339.894
346.874
351.407
353.655
354.031
353.027
351.08
348.464
345.319
341.828
338.055
334.086
329.904
325.593
321.132
316.553
311.795
306.954
301.797
296.446
290.841
284.82
278.302
271.095
262.913
253.199
240.967
224.336
201.45
170.502
122.771
79.4742
69.988
68.4663
67.6083
70.1503
70.9546
66.8843
64.6877
304.005
318.642
330.385
339.692
346.675
351.278
353.577
354
353.04
351.14
348.589
345.55
342.106
338.41
334.493
330.422
326.161
321.785
317.264
312.622
307.793
302.863
297.594
292.1
286.309
280.04
273.182
265.491
256.604
245.796
231.807
212.562
186.821
150.138
99.0707
72.8514
68.9133
67.7116
67.8182
70.3723
70.6528
66.0875
64.6191
303.96
318.566
330.308
339.545
346.48
351.11
353.502
353.972
353.067
351.209
348.707
345.729
342.392
338.742
334.903
330.883
326.735
322.409
317.975
313.394
308.685
303.776
298.744
293.346
287.687
281.678
275.118
267.858
259.589
249.839
237.674
221.555
199.508
170.594
127.15
82.1722
69.7537
68.0622
67.2817
68.2443
70.4582
70.2252
65.5027
64.5726
303.912
318.465
330.212
339.466
346.342
350.943
353.38
353.95
353.091
351.289
348.83
345.902
342.625
339.082
335.286
331.344
327.247
323.037
318.654
314.164
309.52
304.736
299.735
294.587
289.041
283.189
276.925
270.023
262.284
253.318
242.503
228.662
210.062
185.296
151.582
103.362
73.1625
68.4268
67.4089
66.976
68.836
70.4942
69.4967
65.1078
64.546
303.866
318.351
330.081
339.367
346.271
350.831
353.257
353.876
353.117
351.362
348.959
346.076
342.848
339.363
335.676
331.776
327.757
323.6
319.336
314.898
310.349
305.635
300.766
295.66
290.377
284.66
278.585
272.023
264.717
256.404
246.586
234.453
218.575
197.298
169.655
129.461
84.6283
69.7983
67.7908
67.0318
67.1261
69.2845
70.5198
68.4138
64.8917
64.5278
303.826
318.248
329.932
339.227
346.183
350.776
353.182
353.804
353.092
351.433
349.078
346.253
343.07
339.633
336.004
332.213
328.236
324.157
319.947
315.633
311.139
306.525
301.733
296.764
291.535
286.101
280.186
273.851
266.938
259.151
250.146
239.279
225.518
207.261
183.389
151.539
106.155
73.933
68.2444
67.276
66.9849
67.4059
69.6731
70.4276
67.2518
64.7391
64.5158
303.796
318.159
329.801
339.068
346.05
350.709
353.148
353.771
353.066
351.454
349.193
346.415
343.291
339.9
336.319
332.586
328.72
324.682
320.552
316.293
311.926
307.373
302.686
297.799
292.715
287.347
281.74
275.597
268.959
261.633
253.269
243.417
231.252
215.513
194.696
168.139
130.124
86.7457
69.5937
67.5733
67.108
66.9718
67.842
69.9878
70.1103
66.2481
64.6361
64.5082
303.78
318.091
329.686
338.927
345.903
350.596
353.109
353.763
353.073
351.473
349.256
346.572
343.495
340.164
336.628
332.943
329.135
325.21
321.121
316.944
312.635
308.212
303.59
298.817
293.822
288.608
283.083
277.278
270.869
263.876
256.059
246.996
236.1
222.331
204.292
181.012
150.568
107.677
74.497
68.0736
67.3097
67.0215
67.0366
68.3323
70.0189
69.5156
65.4998
64.5707
64.5042
303.765
318.061
329.6
338.805
345.77
350.478
353.026
353.759
353.1
351.519
349.316
346.676
343.691
340.407
336.932
333.293
329.533
325.667
321.693
317.558
313.333
308.97
304.482
299.778
294.905
289.79
284.431
278.728
272.691
265.972
258.561
250.157
240.238
228.047
212.336
191.842
166.027
129.665
87.8692
69.4314
67.4917
67.2066
67.0264
67.1747
68.8518
69.996
68.5702
65.0133
64.5362
64.5021
303.745
318.03
329.567
338.715
345.655
350.366
352.947
353.709
353.13
351.579
349.4
346.775
343.833
340.641
337.212
333.635
329.921
326.104
322.19
318.173
313.992
309.716
305.29
300.723
295.926
290.943
285.695
280.173
274.266
267.954
260.872
252.965
243.85
232.874
219.082
201.127
178.306
148.775
107.77
74.7052
67.8986
67.3352
67.1358
67.0343
67.4314
69.2121
69.8965
67.4275
64.7669
64.5178
64.5009
303.713
317.986
329.53
338.685
345.573
350.272
352.864
353.669
353.112
351.641
349.494
346.895
343.97
340.819
337.482
333.95
330.3
326.529
322.665
318.71
314.651
310.42
306.083
301.581
296.925
292.026
286.922
281.524
275.817
269.675
263.036
255.527
247.025
237.039
224.75
209.023
188.709
163.456
128.216
88.0176
69.2277
67.4338
67.3042
67.1267
67.094
67.7354
69.5227
69.6559
66.301
64.6339
64.508
64.5004
303.669
317.916
329.476
338.651
345.548
350.208
352.797
353.617
353.106
351.654
349.586
347.021
344.124
340.99
337.693
334.255
330.649
326.943
323.126
319.222
315.228
311.121
306.831
302.422
297.835
293.081
288.069
282.83
277.264
271.349
264.923
257.901
249.883
240.661
229.597
215.686
197.748
175.242
146.303
106.447
74.5535
67.717
67.3628
67.2811
67.139
67.16
68.1496
69.5366
69.0606
65.4486
64.5603
64.5034
64.5002
303.628
317.818
329.389
338.597
345.522
350.19
352.754
353.577
353.085
351.679
349.629
347.143
344.281
341.177
337.898
334.499
330.986
327.325
323.574
319.719
315.776
311.739
307.575
303.216
298.726
294.046
289.185
284.048
278.657
272.901
266.742
259.98
252.505
243.876
233.767
221.363
205.505
185.297
160.411
125.928
87.134
68.9618
67.4205
67.3856
67.2753
67.1379
67.1737
68.6237
69.5116
68.0744
64.9263
64.5256
64.5014
64.5001
303.591
317.726
329.264
338.505
345.475
350.173
352.747
353.559
353.073
351.687
349.681
347.214
344.431
341.363
338.116
334.734
331.261
327.695
323.989
320.201
316.307
312.324
308.232
304.003
299.566
294.989
290.207
285.228
279.95
274.388
268.417
261.965
254.806
246.793
237.418
226.208
212.157
194.108
171.847
143.166
104.372
73.9307
67.599
67.4066
67.4086
67.2435
67.1135
67.3299
68.9238
69.4095
66.83
64.6836
64.5104
64.5005
64.5
303.563
317.65
329.147
338.372
345.389
350.139
352.743
353.566
353.079
351.702
349.718
347.293
344.529
341.54
338.331
334.982
331.527
328
324.391
320.648
316.823
312.889
308.854
304.698
300.397
295.877
291.204
286.31
281.199
275.764
270.007
263.784
256.983
249.355
240.694
230.399
217.82
201.809
181.579
156.942
122.863
85.3743
68.6424
67.4075
67.4249
67.3955
67.1917
67.0742
67.7032
69.23
69.0702
65.7352
64.5762
64.5038
64.5002
64.5
303.544
317.589
329.053
338.249
345.263
350.066
352.722
353.578
353.106
351.731
349.758
347.356
344.635
341.665
338.535
335.225
331.804
328.295
324.726
321.081
317.303
313.439
309.454
305.356
301.132
296.752
292.143
287.366
282.347
277.089
271.475
265.496
258.969
251.755
243.569
234.117
222.675
208.418
190.26
168.086
139.435
101.457
72.9243
67.5166
67.4076
67.4508
67.3689
67.1292
67.1268
68.2139
69.2463
68.1839
65.034
64.5275
64.5013
64.5001
64.5
303.534
317.549
328.979
338.153
345.149
349.957
352.667
353.57
353.134
351.779
349.81
347.422
344.723
341.795
338.682
335.454
332.073
328.6
325.049
321.446
317.767
313.95
310.037
305.991
301.827
297.529
293.064
288.356
283.464
278.308
272.883
267.066
260.824
253.931
246.229
237.371
226.941
214.075
197.851
177.635
152.995
119.106
82.9908
68.3075
67.4058
67.4371
67.444
67.2878
67.0792
67.1521
68.5902
69.1019
66.9482
64.6924
64.5097
64.5004
64.5
64.5
303.531
317.526
328.932
338.079
345.063
349.864
352.583
353.534
353.142
351.823
349.879
347.495
344.812
341.907
338.837
335.625
332.328
328.896
325.381
321.796
318.16
314.444
310.579
306.607
302.497
298.262
293.883
289.326
284.51
279.49
274.179
268.567
262.515
255.953
248.628
240.344
230.661
219.015
204.417
186.098
163.933
135.046
97.8833
71.7381
67.4645
67.4288
67.4741
67.4011
67.1775
66.9665
67.4796
68.944
68.8565
65.7434
64.5698
64.503
64.5001
64.5
64.5
303.522
317.515
328.903
338.034
344.997
349.796
352.514
353.476
353.126
351.849
349.941
347.585
344.906
342.018
338.972
335.804
332.522
329.174
325.703
322.154
318.537
314.866
311.103
307.18
303.146
298.968
294.655
290.189
285.53
280.595
275.433
269.949
264.122
257.791
250.843
243.004
234.014
223.311
210.159
193.573
173.302
148.376
114.649
80.2359
68.0345
67.4245
67.4735
67.4761
67.3196
67.0509
66.985
68.0238
69.0002
68.026
64.9915
64.522
64.5009
64.5
64.5
64.5
303.509
317.496
328.89
338.004
344.962
349.746
352.469
353.432
353.09
351.851
349.984
347.665
345.015
342.133
339.105
335.961
332.723
329.391
326.006
322.501
318.921
315.27
311.553
307.734
303.751
299.651
295.399
291.002
286.439
281.668
276.602
271.281
265.6
259.525
252.853
245.446
236.989
227.13
215.156
200.2
181.579
159.275
129.766
93.809
70.5816
67.442
67.4598
67.4801
67.4225
67.2114
67.0459
67.243
68.4666
68.9403
66.6778
64.6552
64.5065
64.5002
64.5
64.5
64.5
303.491
317.461
328.866
337.994
344.936
349.725
352.439
353.413
353.067
351.835
350.003
347.724
345.114
342.263
339.24
336.114
332.902
329.614
326.244
322.828
319.293
315.679
311.984
308.213
304.336
300.288
296.118
291.785
287.297
282.627
277.732
272.517
267.017
261.113
254.738
247.656
239.702
230.492
219.55
206.015
189.054
168.61
143.095
109.128
77.3892
67.79
67.4244
67.4655
67.4569
67.3099
67.164
67.0712
67.4807
68.7325
68.4384
65.5089
64.5468
64.5017
64.5001
64.5
64.5
64.5
303.471
317.416
328.818
337.967
344.932
349.706
352.434
353.403
353.07
351.83
350.005
347.761
345.19
342.38
339.389
336.268
333.075
329.813
326.487
323.088
319.643
316.074
312.418
308.67
304.843
300.905
296.788
292.541
288.12
283.532
278.744
273.709
268.329
262.626
256.459
249.719
242.149
233.534
223.391
211.101
195.73
176.823
154.243
123.685
89.2629
69.5286
67.4139
67.4353
67.4371
67.3604
67.2331
67.0537
66.9562
67.8979
68.6716
67.563
64.8301
64.5128
64.5004
64.5
64.5
64.5
64.5
303.448
317.369
328.757
337.913
344.903
349.71
352.425
353.413
353.076
351.852
350.016
347.78
345.244
342.473
339.524
336.437
333.247
330.006
326.706
323.351
319.925
316.448
312.836
309.13
305.328
301.441
297.436
293.245
288.915
284.399
279.698
274.78
269.588
264.021
258.084
251.596
244.419
236.266
226.841
215.533
201.6
184.276
163.594
137.394
102.91
74.6881
67.6015
67.4075
67.4294
67.3803
67.2931
67.1535
66.9997
67.1249
68.3554
68.6688
66.138
64.5917
64.503
64.5001
64.5
64.5
64.5
64.5
303.427
317.319
328.694
337.843
344.848
349.679
352.438
353.414
353.102
351.875
350.055
347.806
345.278
342.542
339.633
336.59
333.434
330.197
326.919
323.59
320.208
316.75
313.231
309.57
305.812
301.953
298.002
293.925
289.655
285.233
280.612
275.788
270.722
265.354
259.573
253.356
246.479
238.782
229.92
219.488
206.737
190.921
171.795
148.68
117.584
84.2199
68.6873
67.4101
67.424
67.3969
67.3298
67.2728
67.1099
67.0122
67.6095
68.5815
68.0115
65.1277
64.522
64.5007
64.5
64.5
64.5
64.5
64.5
303.406
317.273
328.629
337.775
344.777
349.627
352.406
353.439
353.115
351.917
350.094
347.861
345.319
342.592
339.719
336.716
333.606
330.401
327.128
323.821
320.467
317.054
313.554
309.987
306.276
302.463
298.542
294.523
290.368
286.01
281.49
276.753
271.791
266.559
260.99
254.958
248.397
241.056
232.732
222.996
211.31
196.834
179.111
158.109
130.842
96.8454
72.1919
67.4935
67.426
67.4165
67.3525
67.3045
67.253
67.0849
67.1483
68.0182
68.5467
66.7638
64.6555
64.505
64.5001
64.5
64.5
64.5
64.5
64.5
303.389
317.23
328.571
337.704
344.71
349.562
352.362
353.409
353.153
351.942
350.152
347.915
345.389
342.646
339.783
336.816
333.748
330.591
327.349
324.048
320.715
317.331
313.877
310.331
306.714
302.95
299.078
295.092
290.998
286.759
282.306
277.676
272.81
267.693
262.273
256.474
250.136
243.158
235.26
226.171
215.347
202.126
185.762
166.349
142.292
110.614
79.4741
68.0551
67.4127
67.4156
67.3634
67.3051
67.2767
67.205
67.12
67.2753
68.3398
68.2304
65.468
64.5366
64.501
64.5
64.5
64.5
64.5
64.5
64.5
303.377
317.193
328.516
337.643
344.64
349.503
352.307
353.375
353.134
351.994
350.189
347.988
345.457
342.729
339.849
336.893
333.863
330.749
327.559
324.287
320.96
317.598
314.174
310.674
307.079
303.411
299.589
295.655
291.597
287.422
283.09
278.534
273.782
268.772
263.48
257.846
251.772
245.06
237.581
229.007
218.969
206.795
191.793
173.648
152.148
123.198
90.6201
70.1687
67.4173
67.4004
67.3654
67.2986
67.26
67.2192
67.1102
66.982
67.6345
68.3224
67.284
64.7613
64.5076
64.5002
64.5
64.5
64.5
64.5
64.5
64.5
303.367
317.172
328.471
337.586
344.585
349.442
352.26
353.33
353.111
351.986
350.255
348.038
345.544
342.811
339.946
336.971
333.954
330.88
327.734
324.515
321.217
317.859
314.458
310.99
307.443
303.797
300.072
296.19
292.188
288.053
283.789
279.356
274.684
269.798
264.627
259.136
253.251
246.838
239.675
231.592
222.186
210.963
197.163
180.322
160.466
135.389
102.631
75.3755
67.6393
67.3704
67.3571
67.2865
67.2472
67.2348
67.138
67.0005
67.1179
68.071
68.2131
65.8008
64.5555
64.5013
64.5
64.5
64.5
64.5
64.5
64.5
64.5
303.358
317.153
328.449
337.541
344.533
349.396
352.211
353.298
353.076
351.977
350.262
348.119
345.608
342.913
340.04
337.081
334.043
330.983
327.878
324.707
321.463
318.132
314.735
311.292
307.778
304.181
300.48
296.696
292.748
288.672
284.453
280.093
275.548
270.748
265.711
260.356
254.638
248.449
241.623
233.918
225.095
214.649
201.97
186.361
167.88
145.427
115.691
83.961
68.767
67.36
67.3465
67.2931
67.2479
67.2391
67.2199
67.1085
67.0335
67.4736
68.3434
67.4847
64.8878
64.5101
64.5002
64.5
64.5
64.5
64.5
64.5
64.5
64.5
303.35
317.136
328.428
337.522
344.497
349.354
352.177
353.259
353.057
351.954
350.267
348.14
345.704
342.989
340.156
337.187
334.163
331.082
327.993
324.866
321.671
318.395
315.025
311.586
308.097
304.535
300.885
297.126
293.278
289.26
285.103
280.792
276.324
271.656
266.713
261.505
255.941
249.953
243.388
236.067
227.703
217.962
206.219
191.837
174.483
154.105
127.265
95.2211
71.9353
67.4361
67.3409
67.3012
67.2562
67.2469
67.2398
67.2297
67.0898
67.1168
67.9789
68.2003
66.1041
64.5738
64.5016
64.5
64.5
64.5
64.5
64.5
64.5
64.5
64.5
303.343
317.121
328.41
337.506
344.485
349.335
352.148
353.241
353.032
351.948
350.255
348.159
345.739
343.101
340.246
337.316
334.282
331.212
328.101
324.992
321.844
318.619
315.304
311.891
308.408
304.872
301.259
297.551
293.731
289.814
285.718
281.473
277.061
272.475
267.668
262.565
257.162
251.354
245.033
238.016
230.098
220.921
210.029
196.719
180.558
161.581
137.943
106.664
78.2018
67.9264
67.3385
67.3086
67.2641
67.2499
67.2412
67.2633
67.1924
67.1248
67.3253
68.099
67.5026
64.993
64.5118
64.5002
64.5
64.5
64.5
64.5
64.5
64.5
64.5
64.5
303.337
317.107
328.394
337.491
344.478
349.332
352.149
353.229
353.028
351.935
350.263
348.159
345.773
343.15
340.373
337.421
334.424
331.342
328.242
325.109
321.982
318.807
315.543
312.186
308.729
305.199
301.614
297.945
294.177
290.29
286.299
282.119
277.777
273.252
268.534
263.573
258.286
252.66
246.554
239.825
232.266
223.618
213.423
201.115
186.052
168.297
146.941
118.611
87.3114
69.5758
67.3529
67.3121
67.2598
67.2433
67.234
67.2352
67.2149
67.1332
67.0109
67.6598
68.0821
66.2918
64.5867
64.5017
64.5
64.5
64.5
64.5
64.5
64.5
64.5
64.5
64.5
303.331
317.091
328.375
337.478
344.47
349.339
352.161
353.245
353.028
351.944
350.26
348.179
345.786
343.198
340.437
337.564
334.541
331.497
328.382
325.259
322.107
318.956
315.745
312.441
309.04
305.537
301.957
298.319
294.591
290.758
286.799
282.726
278.454
274.005
269.356
264.49
259.353
253.857
247.963
241.488
234.268
226.051
216.496
205.034
191.068
174.308
154.746
129.31
98.0357
73.4418
67.5017
67.3001
67.2488
67.2229
67.2142
67.1983
67.1907
67.1481
66.9649
67.1386
67.9829
67.7473
65.0609
64.5131
64.5002
64.5
64.5
64.5
64.5
64.5
64.5
64.5
64.5
64.5
303.324
317.077
328.356
337.46
344.463
349.342
352.182
353.265
353.058
351.953
350.28
348.187
345.818
343.223
340.5
337.642
334.701
331.628
328.549
325.409
322.265
319.09
315.905
312.656
309.31
305.864
302.312
298.68
294.984
291.193
287.29
283.253
279.091
274.717
270.149
265.36
260.327
254.99
249.247
243.02
236.098
228.285
219.256
208.568
195.577
179.883
161.55
138.869
108.72
80.0872
68.1736
67.289
67.2344
67.1983
67.1927
67.1787
67.1791
67.1672
67.0666
67.0876
67.6262
68.0697
66.2779
64.5953
64.5018
64.5
64.5
64.5
64.5
64.5
64.5
64.5
64.5
64.5
64.5
303.316
317.059
328.336
337.44
344.451
349.345
352.198
353.301
353.089
351.994
350.299
348.217
345.835
343.268
340.536
337.72
334.794
331.803
328.694
325.587
322.425
319.257
316.049
312.828
309.54
306.15
302.656
299.052
295.363
291.605
287.746
283.767
279.644
275.384
270.897
266.197
261.25
256.028
250.46
244.412
237.776
230.315
221.773
211.731
199.648
184.966
167.725
147.069
119.713
89.076
70.1302
67.3081
67.223
67.1754
67.1758
67.1755
67.1776
67.1768
67.1781
67.1127
67.2389
67.928
67.5006
65.1085
64.5135
64.5002
64.5
64.5
64.5
64.5
64.5
64.5
64.5
64.5
64.5
64.5
303.307
317.039
328.311
337.418
344.435
349.342
352.215
353.331
353.138
352.034
350.346
348.242
345.873
343.294
340.592
337.768
334.887
331.913
328.885
325.745
322.614
319.425
316.225
312.982
309.724
306.394
302.958
299.412
295.753
292.002
288.179
284.245
280.183
275.967
271.598
266.985
262.136
257.011
251.572
245.723
239.298
232.166
224.046
214.596
203.294
189.592
173.291
154.264
129.6
99.1068
74.2393
67.5248
67.2236
67.1695
67.1622
67.1716
67.1834
67.1983
67.2353
67.2047
67.0935
67.4437
67.8522
66.4011
64.5989
64.5018
64.5
64.5
64.5
64.5
64.5
64.5
64.5
64.5
64.5
64.5
64.5
303.298
317.016
328.282
337.391
344.415
349.335
352.221
353.362
353.18
352.094
350.394
348.296
345.905
343.34
340.628
337.834
334.947
332.02
329.01
325.953
322.786
319.625
316.403
313.166
309.887
306.59
303.216
299.731
296.13
292.41
288.594
284.699
280.684
276.532
272.212
267.723
262.968
257.95
252.623
246.925
240.727
233.844
226.111
217.17
206.583
193.773
178.407
160.562
138.423
108.988
80.7577
68.2959
67.2336
67.1772
67.1525
67.1646
67.1789
67.2016
67.2246
67.1939
67.1231
67.118
67.7797
67.4827
65.062
64.5136
64.5002
64.5
64.5
64.5
64.5
64.5
64.5
64.5
64.5
64.5
64.5
64.5
303.287
316.991
328.249
337.356
344.389
349.321
352.223
353.383
353.222
352.146
350.462
348.35
345.964
343.377
340.681
337.878
335.024
332.093
329.134
326.095
323.009
319.809
316.613
313.353
310.08
306.762
303.424
300.003
296.465
292.805
289.022
285.134
281.161
277.058
272.805
268.371
263.746
258.832
253.622
248.058
242.04
235.414
227.978
219.5
209.529
197.55
183.101
166.263
146.009
119.23
89.1951
70.2791
67.2778
67.1831
67.1465
67.1524
67.168
67.179
67.1903
67.171
67.1571
67.0366
67.4557
67.8574
66.2001
64.5902
64.5018
64.5
64.5
64.5
64.5
64.5
64.5
64.5
64.5
64.5
64.5
64.5
64.5
303.276
316.963
328.211
337.318
344.355
349.301
352.219
353.4
353.255
352.199
350.523
348.426
346.023
343.44
340.722
337.938
335.075
332.18
329.219
326.235
323.169
320.047
316.808
313.573
310.275
306.963
303.606
300.223
296.753
293.158
289.435
285.581
281.617
277.558
273.358
268.994
264.431
259.654
254.557
249.128
243.275
236.859
229.717
221.602
212.192
200.942
187.364
171.396
152.727
128.343
98.5014
74.1504
67.4946
67.1783
67.1378
67.1349
67.1443
67.1535
67.1567
67.1435
67.1656
66.9968
67.0913
67.7516
67.4635
64.9973
64.5121
64.5002
64.5
64.5
64.5
64.5
64.5
64.5
64.5
64.5
64.5
64.5
64.5
64.5
303.263
316.933
328.171
337.274
344.317
349.272
352.209
353.406
353.285
352.241
350.586
348.495
346.105
343.504
340.789
337.983
335.141
332.239
329.317
326.333
323.323
320.222
317.058
313.779
310.504
307.167
303.815
300.415
296.985
293.461
289.806
286.013
282.084
278.036
273.883
269.575
265.088
260.38
255.43
250.125
244.43
238.215
231.319
223.549
214.587
204.01
191.246
176.066
158.549
136.634
107.59
80.1121
68.1935
67.1755
67.1193
67.1068
67.1159
67.1235
67.131
67.145
67.1563
67.0769
67.0873
67.473
67.7097
66.0418
64.5748
64.5015
64.5
64.5
64.5
64.5
64.5
64.5
64.5
64.5
64.5
64.5
64.5
64.5
64.5
303.25
316.902
328.128
337.226
344.272
349.239
352.189
353.406
353.303
352.283
350.638
348.565
346.179
343.59
340.855
338.052
335.189
332.309
329.383
326.44
323.433
320.389
317.247
314.042
310.722
307.406
304.027
300.633
297.187
293.707
290.125
286.403
282.536
278.525
274.384
270.127
265.7
261.074
256.201
251.052
245.499
239.474
232.819
225.341
216.793
206.767
194.779
180.416
163.823
143.671
117.137
87.6741
69.9103
67.2071
67.1064
67.0786
67.083
67.0926
67.1097
67.1349
67.1614
67.1668
67.1463
67.2693
67.6749
67.0594
64.9008
64.5097
64.5002
64.5
64.5
64.5
64.5
64.5
64.5
64.5
64.5
64.5
64.5
64.5
64.5
64.5
303.238
316.868
328.082
337.175
344.222
349.198
352.166
353.398
353.315
352.313
350.689
348.625
346.257
343.669
340.945
338.12
335.259
332.36
329.457
326.513
323.55
320.51
317.428
314.245
310.997
307.634
304.275
300.854
297.413
293.919
290.384
286.739
282.945
278.997
274.896
270.653
266.281
261.72
256.936
251.875
246.492
240.629
234.2
227.01
218.817
209.295
197.961
184.409
168.612
150.022
125.44
96.1766
73.1693
67.3778
67.1052
67.0665
67.0584
67.0676
67.0908
67.1238
67.1565
67.1974
67.211
67.1261
67.4214
67.6033
65.8605
64.557
64.5012
64.5
64.5
64.5
64.5
64.5
64.5
64.5
64.5
64.5
64.5
64.5
64.5
64.5
64.5
303.225
316.836
328.034
337.122
344.17
349.153
352.134
353.386
353.319
352.336
350.73
348.686
346.324
343.753
341.028
338.212
335.328
332.431
329.509
326.591
323.629
320.638
317.561
314.439
311.214
307.922
304.515
301.11
297.643
294.154
290.608
287.012
283.299
279.427
275.39
271.189
266.835
262.333
257.62
252.657
247.378
241.702
235.46
228.539
220.692
211.607
200.876
188.027
172.989
155.545
133.333
104.555
78.2016
67.9003
67.1114
67.069
67.0544
67.0551
67.0749
67.1067
67.1394
67.1799
67.1826
67.1205
67.0786
67.5556
67.0936
64.7822
64.507
64.5001
64.5
64.5
64.5
64.5
64.5
64.5
64.5
64.5
64.5
64.5
64.5
64.5
64.5
64.5
303.213
316.804
327.987
337.065
344.114
349.104
352.097
353.366
353.319
352.351
350.764
348.736
346.394
343.827
341.118
338.299
335.423
332.501
329.581
326.645
323.713
320.725
317.698
314.584
311.422
308.153
304.815
301.361
297.908
294.392
290.851
287.248
283.587
279.8
275.841
271.706
267.397
262.916
258.269
253.384
248.214
242.666
236.628
229.924
222.399
213.735
203.537
191.37
176.985
160.5
140.124
113.005
84.6882
69.1495
67.1307
67.069
67.0549
67.0564
67.0681
67.0924
67.1203
67.147
67.1422
67.114
67.0787
67.4379
67.4126
65.51
64.5377
64.5007
64.5
64.5
64.5
64.5
64.5
64.5
64.5
64.5
64.5
64.5
64.5
64.5
64.5
64.5
64.5
303.202
316.773
327.941
337.009
344.055
349.051
352.056
353.34
353.31
352.363
350.79
348.781
346.453
343.904
341.197
338.393
335.512
332.597
329.651
326.717
323.77
320.815
317.793
314.732
311.579
308.375
305.06
301.673
298.17
294.666
291.098
287.501
283.836
280.104
276.234
272.181
267.938
263.506
258.885
254.073
248.989
243.572
237.684
231.206
223.939
215.662
205.972
194.429
180.739
165.002
146.136
121.132
92.1889
71.553
67.2191
67.0583
67.048
67.0527
67.0637
67.0834
67.1081
67.1154
67.1073
67.1153
67.0558
67.1726
67.5771
66.5915
64.6868
64.5044
64.5001
64.5
64.5
64.5
64.5
64.5
64.5
64.5
64.5
64.5
64.5
64.5
64.5
64.5
64.5
64.5
303.191
316.744
327.896
336.954
343.997
348.997
352.011
353.309
353.296
352.366
350.814
348.818
346.507
343.972
341.281
338.479
335.611
332.688
329.747
326.786
323.842
320.875
317.888
314.834
311.736
308.543
305.295
301.932
298.494
294.939
291.382
287.757
284.099
280.367
276.556
272.595
268.437
264.073
259.506
254.726
249.724
244.408
238.675
232.371
225.361