/*--------------------------------*- C++ -*----------------------------------*\
| =========                 |                                                 |
| \\      /  F ield         | OpenFOAM: The Open Source CFD Toolbox           |
|  \\    /   O peration     | Version:  v2012                                 |
|   \\  /    A nd           | Website:  www.openfoam.com                      |
|    \\/     M anipulation  |                                                 |
\*---------------------------------------------------------------------------*/
FoamFile
{
    version     2.0;
    format      ascii;
    class       volScalarField;
    location    "13200";
    object      TuM;
}
// * * * * * * * * * * * * * * * * * * * * * * * * * * * * * * * * * * * * * //

dimensions      [0 0 0 0 0 0 0];


internalField   nonuniform List<scalar> 
39402
(
0.164982
0.037948
0.0743398
0.0234869
0.0156444
0.0452458
0.0230942
0.00936558
0.0102019
0.0319594
0.0248527
0.0142899
0.00578987
0.00870862
0.0256054
0.0263909
0.0186186
0.0275823
0.00531013
0.00854479
0.0229321
0.0272435
0.0210269
0.0391955
0.0481284
0.00631275
0.00882057
0.0220603
0.0277448
0.0223846
0.0451559
0.068784
0.0724017
0.00794109
0.0091651
0.0220122
0.027898
0.0231261
0.0484892
0.0793945
0.103384
0.0988553
0.00978243
0.00943168
0.022328
0.0278806
0.0234157
0.0503108
0.0853077
0.119315
0.140583
0.125958
0.0116344
0.00957908
0.0228081
0.0277464
0.0234777
0.0510545
0.0885742
0.12813
0.161883
0.177808
0.15219
0.0133511
0.00961949
0.0233755
0.0275487
0.0233956
0.0512604
0.0899285
0.133027
0.173493
0.203815
0.212709
0.176319
0.0148763
0.00958974
0.0239173
0.0273136
0.0232425
0.0511251
0.0903381
0.135075
0.179925
0.21768
0.242319
0.243746
0.19775
0.0162403
0.00952943
0.0244426
0.0270614
0.0230423
0.0508191
0.090141
0.135731
0.182618
0.225269
0.257701
0.275855
0.270363
0.216877
0.0174667
0.00945905
0.0250113
0.0268048
0.0228133
0.0503973
0.0896353
0.135483
0.183513
0.22843
0.265972
0.29211
0.304153
0.293244
0.233889
0.0186002
0.00940038
0.0256218
0.0265539
0.022584
0.0498987
0.0889131
0.134773
0.183229
0.2295
0.269385
0.30067
0.320856
0.32803
0.312692
0.248936
0.0196771
0.00938513
0.0262649
0.0263054
0.0223545
0.0493971
0.0880512
0.133733
0.182345
0.229183
0.270534
0.304169
0.329471
0.344894
0.348014
0.328921
0.262049
0.020529
0.0094486
0.0269315
0.0260585
0.0221228
0.0488895
0.0871766
0.132482
0.181023
0.228177
0.270187
0.305322
0.33296
0.353419
0.36487
0.36454
0.342103
0.272838
0.0207609
0.00961527
0.0276221
0.0258113
0.0218921
0.0483698
0.0862853
0.131199
0.17943
0.226656
0.269109
0.304942
0.334064
0.356846
0.373232
0.381324
0.37797
0.352337
0.280001
0.0202223
0.00990568
0.0283313
0.0255567
0.0216563
0.0478515
0.0853684
0.129886
0.177782
0.224825
0.267471
0.303824
0.333655
0.357871
0.376563
0.389517
0.394731
0.388558
0.359416
0.281888
0.0187794
0.0103304
0.0290631
0.0253227
0.0214061
0.0473176
0.0844497
0.12853
0.176085
0.222915
0.265518
0.302138
0.33252
0.357422
0.377494
0.392737
0.402806
0.405486
0.39655
0.363466
0.278682
0.0165773
0.0108631
0.0297472
0.0251159
0.0211881
0.0467502
0.0835037
0.127166
0.174328
0.220941
0.263464
0.300143
0.330822
0.356273
0.377015
0.393586
0.405924
0.413544
0.413893
0.402032
0.36422
0.269752
0.014013
0.0113136
0.030372
0.0248881
0.0209963
0.0462559
0.0824997
0.12576
0.172553
0.218892
0.261336
0.298036
0.328833
0.354569
0.37586
0.393088
0.40672
0.416596
0.422077
0.420139
0.404918
0.361238
0.254495
0.0115384
0.0117518
0.0308897
0.0246759
0.0207676
0.0458193
0.0816193
0.124273
0.170723
0.216816
0.259122
0.295849
0.326726
0.352597
0.374169
0.391939
0.406215
0.417382
0.425145
0.428648
0.424275
0.405044
0.353944
0.232377
0.00964662
0.0122175
0.0312173
0.0244706
0.0205683
0.0452954
0.0808354
0.12296
0.168794
0.214674
0.256877
0.293572
0.324535
0.3505
0.372229
0.390275
0.405088
0.416895
0.425969
0.43186
0.433406
0.426282
0.40213
0.341693
0.203306
0.00849763
0.0126799
0.0314932
0.0242733
0.0203691
0.0448434
0.0799064
0.121781
0.16708
0.212425
0.254557
0.29126
0.322254
0.34832
0.370164
0.388382
0.403463
0.415804
0.425531
0.43279
0.436937
0.436426
0.426045
0.395706
0.324262
0.168118
0.00800958
0.013083
0.0317743
0.0240788
0.0201795
0.0443869
0.0791004
0.120401
0.165525
0.210413
0.252139
0.288873
0.319938
0.346052
0.368015
0.386363
0.401627
0.414234
0.424497
0.43244
0.438071
0.440512
0.437708
0.423311
0.38525
0.300856
0.129477
0.00792693
0.0134098
0.0320686
0.023894
0.0199922
0.0439556
0.0782873
0.119195
0.163727
0.208568
0.249959
0.286403
0.31755
0.343749
0.365781
0.384262
0.399666
0.412463
0.422994
0.431491
0.437865
0.441977
0.442653
0.437149
0.417709
0.370137
0.270699
0.0921563
0.00805411
0.0136641
0.0323748
0.0237097
0.0198167
0.0435296
0.0775189
0.117981
0.162143
0.206463
0.247936
0.284163
0.315096
0.341378
0.363513
0.382077
0.397625
0.41057
0.421301
0.430074
0.437038
0.441994
0.44462
0.443345
0.434533
0.408703
0.34985
0.233435
0.0612856
0.00825416
0.0138794
0.0326744
0.0235364
0.0196361
0.0431321
0.0767618
0.116832
0.160552
0.204591
0.245662
0.282057
0.312857
0.338958
0.36118
0.379859
0.3955
0.408593
0.419484
0.428471
0.435731
0.441333
0.444956
0.446042
0.442494
0.429518
0.395685
0.324276
0.189707
0.0390062
0.0084622
0.0140013
0.0329798
0.0233658
0.0194696
0.0427223
0.0760557
0.115702
0.159042
0.202712
0.243621
0.279726
0.310731
0.336739
0.358817
0.377581
0.393342
0.406536
0.41758
0.426741
0.434236
0.440172
0.444523
0.446828
0.446215
0.439895
0.421619
0.377994
0.292414
0.142967
0.0243493
0.00863516
0.0141743
0.0332684
0.0232147
0.0193042
0.0423454
0.0753306
0.114646
0.157557
0.200923
0.241571
0.277614
0.308408
0.33461
0.35664
0.375287
0.391126
0.404446
0.415596
0.424919
0.432605
0.438806
0.443544
0.446705
0.447632
0.445045
0.435237
0.410207
0.35501
0.253357
0.100048
0.0152848
0.00878127
0.0143553
0.0335652
0.0230609
0.0191627
0.0419721
0.0746637
0.113567
0.156167
0.199165
0.239613
0.275495
0.306287
0.332315
0.354531
0.373167
0.388909
0.402299
0.413578
0.423015
0.430878
0.437291
0.442341
0.445961
0.447926
0.447329
0.442341
0.428066
0.394526
0.326682
0.207217
0.0666271
0.0102255
0.00888913
0.014478
0.0338756
0.0229024
0.0190123
0.0416562
0.074007
0.112575
0.154751
0.197514
0.237691
0.273464
0.304162
0.330203
0.352287
0.371095
0.386854
0.400161
0.411503
0.421072
0.429059
0.43567
0.440959
0.444954
0.44749
0.448187
0.445818
0.437809
0.417771
0.373803
0.292333
0.157258
0.0430749
0.00788116
0.00895921
0.0145395
0.0341945
0.0227574
0.0188572
0.0413193
0.0734484
0.111599
0.153447
0.195835
0.235874
0.27147
0.302118
0.328091
0.350207
0.368913
0.384829
0.398173
0.409446
0.419074
0.427198
0.433947
0.439459
0.443736
0.446723
0.448151
0.447444
0.442924
0.431035
0.403604
0.347642
0.250649
0.110642
0.0268069
0.00701156
0.00897095
0.0145683
0.0344952
0.0226248
0.01872
0.0409744
0.0728595
0.110767
0.152166
0.194284
0.234037
0.26958
0.300113
0.326052
0.348128
0.366879
0.382717
0.3962
0.407528
0.417096
0.425281
0.432175
0.437845
0.442376
0.445703
0.447696
0.447938
0.44559
0.438365
0.421443
0.384739
0.316272
0.202188
0.0747215
0.0162409
0.00675361
0.00896265
0.0145795
0.0347264
0.0225039
0.0185941
0.0406722
0.0722593
0.109896
0.151068
0.192763
0.232329
0.267672
0.298203
0.324056
0.346116
0.364847
0.380737
0.39416
0.405613
0.41525
0.423385
0.43034
0.436174
0.440886
0.444512
0.446919
0.447875
0.446788
0.442453
0.43175
0.408306
0.360585
0.278265
0.150712
0.0486684
0.0101002
0.0066949
0.00894912
0.0145786
0.0349899
0.0223844
0.0184798
0.0403958
0.071735
0.109012
0.149925
0.191449
0.230658
0.26589
0.296284
0.322147
0.344149
0.362876
0.378758
0.392238
0.403641
0.413392
0.421613
0.42853
0.43443
0.439326
0.443168
0.445929
0.447402
0.447237
0.444598
0.437761
0.422529
0.390776
0.331082
0.232928
0.106191
0.0307221
0.00704744
0.00668422
0.00894326
0.0146694
0.0353066
0.022258
0.0183674
0.0401449
0.0712567
0.108241
0.148772
0.190089
0.2292
0.264148
0.294482
0.320247
0.34226
0.36095
0.376836
0.390316
0.401777
0.411492
0.419816
0.426834
0.432707
0.437684
0.441736
0.444757
0.446659
0.447149
0.445714
0.441187
0.431134
0.409986
0.368003
0.295979
0.181774
0.0719037
0.0185978
0.00582323
0.00667092
0.0089923
0.0149186
0.0352921
0.0221292
0.0182442
0.039903
0.0708234
0.107539
0.147766
0.188723
0.2277
0.262614
0.292728
0.318456
0.340388
0.359095
0.374959
0.388444
0.399913
0.409687
0.417983
0.425101
0.431091
0.436058
0.440207
0.443475
0.445693
0.44671
0.44612
0.44319
0.436297
0.422044
0.393265
0.33986
0.253686
0.131773
0.0467825
0.011106
0.0054472
0.00665761
0.00910857
0.0150794
0.035325
0.0220202
0.0181205
0.0396375
0.0704108
0.106905
0.146849
0.187527
0.226198
0.261042
0.291164
0.316717
0.338616
0.357263
0.373146
0.386618
0.398094
0.40788
0.416236
0.423338
0.429427
0.434526
0.438685
0.442077
0.444587
0.445996
0.446064
0.444241
0.43949
0.429552
0.409796
0.371494
0.306709
0.205006
0.0920107
0.0294725
0.00710152
0.00536689
0.00669258
0.0091784
0.0152731
0.0353554
0.0219324
0.0180219
0.0393721
0.0699602
0.106304
0.146023
0.186436
0.22488
0.259476
0.289568
0.31515
0.336898
0.355521
0.37136
0.384853
0.396321
0.406114
0.414487
0.421649
0.427734
0.432937
0.437246
0.440669
0.443341
0.4451
0.445658
0.444672
0.441385
0.434351
0.420436
0.393545
0.34451
0.266766
0.153509
0.0622861
0.0178057
0.00530959
0.00538461
0.0067183
0.00918924
0.0154674
0.0353797
0.0218439
0.0179439
0.0391663
0.069512
0.105652
0.145238
0.185456
0.223673
0.258096
0.287986
0.313558
0.335336
0.353835
0.369654
0.383114
0.3946
0.404392
0.412773
0.419957
0.426104
0.431314
0.435738
0.439332
0.44207
0.444037
0.44502
0.444651
0.442445
0.437372
0.427398
0.408267
0.372404
0.312521
0.219928
0.109413
0.0402356
0.0105794
0.00470569
0.00539797
0.00670326
0.00920958
0.0156371
0.0353963
0.0217468
0.0178612
0.0390047
0.0691673
0.105007
0.144396
0.184517
0.222586
0.256824
0.286585
0.311986
0.333756
0.352288
0.368004
0.381448
0.392911
0.402717
0.411102
0.418296
0.424473
0.42975
0.434197
0.437916
0.440848
0.44292
0.444173
0.444325
0.442912
0.439254
0.431932
0.418117
0.392203
0.346122
0.274218
0.168771
0.0759252
0.0250733
0.00662518
0.00456019
0.00538741
0.00668685
0.00924342
0.0157615
0.0354061
0.0216495
0.017767
0.0388328
0.0688988
0.104513
0.143565
0.183521
0.221539
0.255674
0.285287
0.310587
0.3322
0.350729
0.366481
0.379838
0.391286
0.401074
0.409474
0.416676
0.422864
0.428182
0.432702
0.436466
0.439535
0.441832
0.443241
0.44374
0.442976
0.440345
0.434905
0.424686
0.405825
0.371342
0.314835
0.228892
0.122136
0.0507571
0.0150719
0.00480867
0.00453317
0.00536181
0.00669135
0.00931119
0.0158525
0.0354116
0.0215566
0.0176763
0.038636
0.0686136
0.104131
0.142932
0.182544
0.220439
0.254563
0.284105
0.309284
0.330809
0.349198
0.364947
0.378342
0.389717
0.399489
0.407875
0.415091
0.421296
0.42663
0.431202
0.43505
0.438189
0.440639
0.442309
0.443032
0.442714
0.440904
0.436812
0.429123
0.415112
0.389678
0.345397
0.277526
0.178578
0.0858947
0.0322947
0.00898314
0.00415499
0.004516
0.00533964
0.0067051
0.00942192
0.0160231
0.0354145
0.0214676
0.0175897
0.0384517
0.0682911
0.103725
0.142442
0.181796
0.219366
0.253407
0.282962
0.30809
0.329507
0.347822
0.363447
0.376837
0.38825
0.397961
0.406332
0.413542
0.41976
0.425113
0.429709
0.433624
0.436861
0.439414
0.441253
0.442282
0.442272
0.441037
0.437999
0.432108
0.421514
0.402519
0.368767
0.314491
0.23317
0.130641
0.0586601
0.0198369
0.00568085
0.0039594
0.00450283
0.00532743
0.00673346
0.00964233
0.0160174
0.0354155
0.0213892
0.0175059
0.0382752
0.0679917
0.103272
0.141922
0.181216
0.218538
0.252285
0.28178
0.306931
0.328308
0.346528
0.362092
0.375368
0.386774
0.396525
0.404843
0.412039
0.418257
0.423627
0.428253
0.432201
0.435521
0.438183
0.440164
0.441393
0.441747
0.440924
0.438633
0.434113
0.425941
0.411542
0.386052
0.34282
0.277705
0.183585
0.0924662
0.0381924
0.0118463
0.00417487
0.00390658
0.0044887
0.00532712
0.00680874
0.00975619
0.0160242
0.035415
0.0213269
0.0174349
0.0381047
0.0677055
0.102852
0.141347
0.1806
0.21789
0.251411
0.280642
0.305742
0.327138
0.345332
0.360812
0.374038
0.385337
0.39508
0.403438
0.410588
0.416795
0.422173
0.426822
0.430808
0.434173
0.436939
0.439048
0.440453
0.441049
0.44067
0.438928
0.435387
0.429027
0.417904
0.398497
0.364805
0.311981
0.233919
0.135088
0.0640843
0.0237829
0.00712169
0.00363989
0.00389069
0.00448263
0.00536133
0.00685439
0.00983806
0.0160288
0.0354129
0.0212757
0.0173837
0.0379641
0.06743
0.102453
0.140815
0.179924
0.217199
0.25071
0.279742
0.304603
0.325949
0.344161
0.359624
0.372777
0.384032
0.393673
0.402024
0.409217
0.415384
0.420756
0.425417
0.429436
0.432853
0.435677
0.437908
0.439463
0.440282
0.440205
0.439006
0.436196
0.431132
0.42243
0.407431
0.381517
0.338577
0.275306
0.18498
0.0958989
0.0423756
0.0143416
0.00464006
0.00348449
0.00388813
0.00448987
0.00538852
0.00691633
0.00988961
0.0160308
0.0354102
0.0212207
0.0173436
0.0378675
0.067207
0.102071
0.140311
0.179299
0.216454
0.249965
0.279003
0.30369
0.324811
0.342976
0.358456
0.371599
0.382791
0.392395
0.400647
0.40783
0.414043
0.419386
0.424047
0.428087
0.431543
0.434436
0.43674
0.438441
0.439435
0.439638
0.438825
0.436686
0.432596
0.425632
0.41389
0.39379
0.359704
0.30754
0.231683
0.136515
0.0670107
0.0266805
0.00852186
0.00357217
0.00344836
0.00389717
0.00449729
0.00541478
0.00700207
0.00994463
0.0160318
0.0354073
0.0211552
0.0172945
0.0377962
0.0670578
0.101766
0.139832
0.17871
0.21576
0.249176
0.278221
0.302923
0.323887
0.341847
0.35728
0.370439
0.381626
0.391172
0.399395
0.406485
0.412689
0.418077
0.422718
0.426763
0.430257
0.433196
0.435584
0.437378
0.438546
0.438955
0.438497
0.436848
0.433607
0.427951
0.418556
0.402814
0.376088
0.33295
0.270596
0.183072
0.0970462
0.0447423
0.0161989
0.00524848
0.003216
0.00344816
0.0039034
0.00450267
0.00543969
0.00712327
0.00994307
0.0160329
0.0354048
0.0210774
0.0172305
0.0377029
0.066952
0.101567
0.139454
0.178153
0.215109
0.248438
0.277405
0.302114
0.323096
0.340917
0.356165
0.369275
0.380476
0.390023
0.398194
0.405259
0.411375
0.416756
0.421449
0.425484
0.428986
0.431975
0.434422
0.436319
0.4376
0.438216
0.43801
0.436818
0.434195
0.429627
0.422002
0.409438
0.38843
0.353546
0.301478
0.22673
0.135166
0.0680726
0.0283796
0.00961512
0.00366285
0.0031256
0.00345508
0.00390566
0.00451577
0.00549827
0.00717955
0.00994156
0.0160332
0.0354025
0.0210004
0.0171492
0.0375757
0.0668095
0.10143
0.139212
0.177718
0.214499
0.247747
0.27664
0.301281
0.322265
0.340107
0.355233
0.368172
0.379325
0.388884
0.397058
0.40408
0.410174
0.415473
0.420161
0.424255
0.427756
0.430763
0.433273
0.435241
0.436646
0.437406
0.437444
0.436567
0.43453
0.430752
0.424545
0.414388
0.397646
0.369818
0.326139
0.26394
0.178093
0.0959572
0.0456745
0.017305
0.00577681
0.00305966
0.00311029
0.0034625
0.00390179
0.00454993
0.00555537
0.00720857
0.00994086
0.016033
0.0354006
0.0209269
0.017073
0.0374089
0.0666108
0.101241
0.139046
0.17744
0.214023
0.247102
0.275924
0.3005
0.321417
0.339259
0.354407
0.367241
0.378236
0.387747
0.395931
0.402958
0.409015
0.414299
0.41891
0.423006
0.426572
0.429586
0.432121
0.434169
0.435664
0.436575
0.436787
0.436205
0.434574
0.43154
0.426357
0.41808
0.404605
0.382367
0.346378
0.294004
0.219487
0.130952
0.0672912
0.0290383
0.0102754
0.00379466
0.00288351
0.00311165
0.00346346
0.00391709
0.00458294
0.00562666
0.00722137
0.00994127
0.0160327
0.0353991
0.0208639
0.0170034
0.0372528
0.066345
0.100974
0.138815
0.177244
0.213712
0.246596
0.275256
0.299766
0.320623
0.338402
0.353545
0.366404
0.377309
0.386671
0.394808
0.401843
0.407913
0.413163
0.417765
0.42179
0.425365
0.428448
0.431004
0.433089
0.43468
0.435698
0.436094
0.435726
0.434463
0.431953
0.427718
0.420789
0.409831
0.391977
0.362676
0.318158
0.255578
0.170741
0.0929308
0.0451128
0.0177182
0.00610269
0.00296395
0.00284416
0.00311454
0.00347244
0.00393391
0.00461064
0.00569072
0.00721662
0.00994166
0.0160329
0.0353974
0.0208125
0.0169464
0.0371116
0.0660944
0.100609
0.138486
0.176974
0.213482
0.246253
0.274728
0.299082
0.319875
0.337597
0.352683
0.365532
0.376462
0.385749
0.393746
0.400734
0.406809
0.412079
0.416656
0.420672
0.424187
0.427287
0.429919
0.432036
0.433679
0.434813
0.435339
0.435189
0.434196
0.432156
0.428598
0.422887
0.413734
0.39925
0.375663
0.338193
0.28513
0.210324
0.124685
0.0650455
0.028632
0.010509
0.00387182
0.00269614
0.00283797
0.00312545
0.00348005
0.00395311
0.00465898
0.00571089
0.00721387
0.00994218
0.0160333
0.0353975
0.0207744
0.0169034
0.0369995
0.0658679
0.100262
0.138033
0.176593
0.213174
0.245985
0.274354
0.298537
0.319176
0.336839
0.351873
0.364668
0.37558
0.384896
0.392831
0.399687
0.405718
0.410994
0.415592
0.419592
0.423103
0.426151
0.428809
0.43101
0.432697
0.433895
0.434563
0.434574
0.43384
0.432148
0.429194
0.42436
0.416796
0.404749
0.385609
0.354763
0.309092
0.245543
0.16148
0.0884312
0.0434031
0.0174401
0.00620151
0.00288161
0.00262725
0.00284459
0.00313696
0.00348659
0.00398379
0.00470836
0.00571885
0.00721331
0.00994285
0.0160338
0.0353978
0.0207453
0.0168753
0.0369178
0.0656918
0.099951
0.137601
0.176071
0.21275
0.245639
0.274047
0.298134
0.318615
0.336129
0.351106
0.363853
0.374714
0.384008
0.391974
0.39878
0.404685
0.409917
0.414525
0.418553
0.422052
0.425101
0.427714
0.429952
0.431735
0.432998
0.433746
0.433925
0.433384
0.432013
0.429511
0.425452
0.419037
0.409092
0.393231
0.368024
0.32912
0.274814
0.199318
0.116916
0.0616594
0.0274111
0.0103208
0.00385794
0.00254024
0.00261812
0.0028549
0.00314192
0.00350095
0.00400686
0.00475999
0.00571138
0.00721386
0.00994338
0.0160343
0.0353981
0.020717
0.0168584
0.0368721
0.0655662
0.0997117
0.137213
0.175573
0.21218
0.24518
0.273664
0.297789
0.318183
0.335552
0.350387
0.363079
0.373898
0.38314
0.39108
0.397923
0.403789
0.408899
0.413467
0.417509
0.421041
0.424085
0.426705
0.428909
0.43074
0.432107
0.432941
0.433219
0.43288
0.431742
0.429646
0.42618
0.420763
0.412347
0.399285
0.378396
0.345745
0.298947
0.233778
0.150544
0.082836
0.0407812
0.0166213
0.00605787
0.00278344
0.00245058
0.00262508
0.00286288
0.00314831
0.00351814
0.00404636
0.0047693
0.00570798
0.00721464
0.00994406
0.0160351
0.0353994
0.0206837
0.0168406
0.0368517
0.0655038
0.0995458
0.136919
0.175125
0.211638
0.24458
0.273173
0.29737
0.317801
0.335094
0.349795
0.362354
0.373122
0.382325
0.390214
0.397025
0.402935
0.408015
0.412466
0.416467
0.420019
0.423102
0.425725
0.42794
0.42975
0.431181
0.432129
0.432519
0.432306
0.431404
0.429605
0.426659
0.422014
0.414896
0.403888
0.386709
0.359321
0.318764
0.26313
0.186677
0.107946
0.0573492
0.0255611
0.00978938
0.00372875
0.00240194
0.00243685
0.00263165
0.00287155
0.00315368
0.0035452
0.00408686
0.00476838
0.0057075
0.00721555
0.00994507
0.0160362
0.0354017
0.0206456
0.0168146
0.0368258
0.0654838
0.0994718
0.136719
0.17479
0.211152
0.244014
0.272556
0.296852
0.317351
0.334677
0.349314
0.361749
0.372389
0.381547
0.389402
0.396161
0.402037
0.407167
0.411593
0.415485
0.419002
0.422105
0.424773
0.426997
0.428827
0.430251
0.431281
0.431799
0.431722
0.430981
0.429467
0.426903
0.422929
0.416819
0.407526
0.393108
0.370529
0.335541
0.287196
0.220385
0.138578
0.0763512
0.0375054
0.0153983
0.00571925
0.00265293
0.00229983
0.00243919
0.00263963
0.00287547
0.0031696
0.00356612
0.00411738
0.00476088
0.00570813
0.00721655
0.00994615
0.0160375
0.0354043
0.0206045
0.0167808
0.0367806
0.0654531
0.0994587
0.136638
0.174561
0.210787
0.243505
0.271977
0.296223
0.316808
0.334199
0.348866
0.361247
0.371775
0.380811
0.388623
0.395353
0.401175
0.406273
0.410756
0.414628
0.418039
0.421113
0.423805
0.426083
0.427929
0.42938
0.430419
0.431038
0.431108
0.430533
0.429215
0.42701
0.423536
0.418293
0.410328
0.398197
0.379272
0.349841
0.307177
0.249423
0.172563
0.0983395
0.0523152
0.0232908
0.00901597
0.00350984
0.0022693
0.00228033
0.00244684
0.00264659
0.00288398
0.00318773
0.00359989
0.00411917
0.00475854
0.0057091
0.00721768
0.00994751
0.0160394
0.0354081
0.0205626
0.0167418
0.0367152
0.0653869
0.099429
0.136633
0.174475
0.210538
0.243123
0.271457
0.295638
0.31617
0.333636
0.348362
0.360772
0.371257
0.380187
0.387884
0.394576
0.400371
0.405416
0.409869
0.413804
0.417198
0.420172
0.422841
0.425147
0.427055
0.428531
0.429606
0.430254
0.430444
0.43004
0.428924
0.426969
0.423952
0.419364
0.412526
0.402168
0.386288
0.361487
0.324479
0.273879
0.204626
0.12593
0.0692399
0.033774
0.0139181
0.00525012
0.00249858
0.00216492
0.0022822
0.00245212
0.00265522
0.00289161
0.00320934
0.00363303
0.00411062
0.00475871
0.00571018
0.00721895
0.00994902
0.0160415
0.0354115
0.0205189
0.0166985
0.036636
0.0652856
0.0993442
0.136605
0.174471
0.210441
0.242857
0.271064
0.295111
0.31558
0.332989
0.347781
0.360244
0.370756
0.379656
0.387252
0.393836
0.399596
0.404614
0.409017
0.412927
0.416388
0.419348
0.421922
0.424212
0.426156
0.427702
0.428812
0.429507
0.429748
0.429488
0.428567
0.426861
0.424171
0.420175
0.414199
0.40532
0.391816
0.37099
0.339054
0.294677
0.233889
0.156199
0.0887599
0.0467765
0.0207429
0.00809352
0.0032321
0.00214089
0.00214483
0.00228715
0.00246087
0.00265935
0.00290732
0.00323172
0.00364122
0.00410555
0.00475961
0.00571143
0.00722031
0.00995081
0.0160439
0.0354171
0.0204755
0.0166511
0.036545
0.0651582
0.0992081
0.136504
0.174444
0.210428
0.242745
0.270782
0.294706
0.315047
0.332397
0.347129
0.359648
0.370208
0.379132
0.386711
0.393197
0.398856
0.403845
0.408219
0.412081
0.415523
0.418556
0.421121
0.423322
0.425253
0.426843
0.428032
0.428776
0.429079
0.428895
0.428146
0.42666
0.424288
0.420726
0.415516
0.407781
0.39624
0.378572
0.351381
0.312001
0.259298
0.187348
0.112169
0.06184
0.0297404
0.0122751
0.00469887
0.0023277
0.00204478
0.00214521
0.0022948
0.00246692
0.00266762
0.00292545
0.00325873
0.00363553
0.00410486
0.00476078
0.00571272
0.00722186
0.00995278
0.0160469
0.035423
0.020433
0.0166023
0.0364418
0.06501
0.0990317
0.136336
0.174323
0.210389
0.242711
0.27065
0.294411
0.314631
0.33186
0.346535
0.358993
0.369597
0.378566
0.386169
0.392649
0.398218
0.403109
0.407457
0.411293
0.414686
0.417705
0.420345
0.422543
0.424394
0.425979
0.427221
0.428054
0.42842
0.42831
0.427667
0.426388
0.424278
0.421123
0.416491
0.409755
0.399746
0.384688
0.361575
0.32712
0.280387
0.216912
0.139213
0.0789321
0.0409543
0.0180375
0.00707936
0.00291899
0.00201689
0.00202574
0.00215109
0.00229978
0.0024741
0.00267829
0.00293922
0.00327537
0.00362751
0.0041057
0.00476201
0.00571423
0.00722355
0.00995488
0.0160504
0.0354296
0.0203943
0.0165547
0.036334
0.0648377
0.0988242
0.136114
0.174125
0.210245
0.242649
0.270588
0.294258
0.31432
0.331433
0.345994
0.358397
0.36894
0.377943
0.385586
0.392091
0.397662
0.402469
0.406725
0.410536
0.413906
0.416878
0.41951
0.421789
0.423642
0.425154
0.426401
0.427296
0.427761
0.427732
0.427184
0.426043
0.424178
0.421348
0.417246
0.411276
0.402583
0.38959
0.369882
0.339985
0.298406
0.242434
0.169213
0.0984795
0.0542447
0.0255815
0.0105547
0.00410755
0.00215121
0.00193518
0.00202729
0.0021573
0.00230853
0.00248115
0.00269196
0.00296206
0.00327085
0.00362575
0.00410682
0.00476333
0.00571589
0.00722556
0.00995747
0.0160546
0.0354373
0.0203568
0.0165112
0.0362268
0.0646562
0.0985792
0.135851
0.173865
0.210024
0.242479
0.270496
0.294164
0.314143
0.331107
0.345559
0.357853
0.368345
0.377283
0.384953
0.391494
0.397094
0.401911
0.406086
0.40981
0.413155
0.416106
0.418696
0.420971
0.422911
0.424431
0.425614
0.426523
0.427063
0.427147
0.426698
0.425675
0.423985
0.421459
0.417772
0.412494
0.404821
0.393577
0.37663
0.350902
0.313783
0.264521
0.197309
0.122698
0.0690628
0.0351308
0.0153026
0.00604421
0.00260026
0.00189949
0.00192092
0.00203242
0.00216525
0.00231554
0.00248665
0.00270948
0.0029836
0.00326114
0.00362638
0.00410807
0.00476487
0.00571761
0.00722771
0.00996046
0.0160592
0.0354459
0.0203235
0.0164717
0.0361276
0.0644746
0.0983193
0.135538
0.173557
0.209731
0.242234
0.270299
0.294041
0.314018
0.330908
0.345218
0.357409
0.367798
0.37669
0.384292
0.390855
0.396485
0.401338
0.40553
0.409174
0.412438
0.415366
0.417934
0.420173
0.422115
0.423728
0.424924
0.425781
0.426347
0.426518
0.4262
0.425296
0.423754
0.42145
0.418147
0.413404
0.40664
0.396764
0.382143
0.360015
0.327305
0.283169
0.22373
0.148881
0.0859146
0.0465986
0.0215471
0.00885505
0.00352658
0.00198347
0.00183715
0.00192216
0.00203963
0.00217231
0.00231933
0.00249919
0.00272677
0.00297905
0.00325817
0.0036275
0.00410949
0.00476652
0.00571955
0.00723008
0.00996363
0.0160644
0.035455
0.0202924
0.0164373
0.0360374
0.0643017
0.0980553
0.135206
0.173189
0.209391
0.241917
0.270035
0.293818
0.313865
0.330752
0.344998
0.357058
0.367347
0.376143
0.383701
0.390194
0.39584
0.400724
0.404956
0.408623
0.411807
0.414661
0.417208
0.419425
0.421335
0.422958
0.424255
0.425129
0.425653
0.425865
0.425649
0.424896
0.423497
0.421377
0.418367
0.414116
0.40805
0.399374
0.386597
0.367507
0.338856
0.299235
0.246517
0.176646
0.105764
0.0594957
0.0294973
0.0126968
0.00504565
0.00230175
0.00179327
0.00182708
0.00192838
0.00204628
0.00217707
0.00232539
0.00251366
0.00274012
0.00297017
0.00325859
0.00362878
0.00411102
0.00476829
0.00572168
0.00723278
0.00996735
0.0160702
0.0354657
0.0202641
0.0164065
0.0359589
0.0641438
0.0978041
0.134866
0.1728
0.208986
0.241555
0.269698
0.293536
0.313616
0.330571
0.344816
0.356817
0.366986
0.375687
0.383155
0.389605
0.395178
0.400072
0.404336
0.40805
0.41126
0.414035
0.416513
0.418712
0.420601
0.422197
0.423512
0.424495
0.425046
0.425229
0.425067
0.424435
0.42321
0.421263
0.418489
0.414629
0.409197
0.40144
0.390263
0.37364
0.348745
0.313086
0.266213
0.202549
0.129238
0.0739106
0.0390773
0.0177583
0.00725727
0.00298318
0.0018328
0.00174882
0.00182999
0.00193457
0.00205008
0.00218209
0.00233663
0.00252755
0.00274187
0.00296625
0.00325973
0.00363023
0.00411268
0.00477025
0.00572404
0.00723584
0.00997164
0.0160769
0.0354769
0.0202372
0.0163789
0.0358881
0.0640057
0.097572
0.13454
0.1724
0.208559
0.241126
0.269319
0.293183
0.313316
0.330297
0.344606
0.356609
0.366727
0.375316
0.382694
0.389059
0.39459
0.39941
0.403682
0.407432
0.410692
0.413494
0.415896
0.418029
0.419906
0.421481
0.422778
0.423785
0.424451
0.42467
0.424496
0.423936
0.422852
0.421107
0.418546
0.414997
0.410087
0.403154
0.393204
0.378708
0.357041
0.325382
0.282956
0.226344
0.154092
0.0902178
0.0502511
0.0241418
0.0102908
0.00412481
0.00203585
0.00169838
0.00174367
0.00183565
0.00193919
0.00205643
0.00218853
0.00234722
0.00254244
0.00273231
0.0029665
0.00326106
0.00363174
0.00411449
0.0047724
0.00572668
0.00723924
0.0099764
0.0160846
0.0354896
0.0202131
0.0163534
0.0358254
0.0638818
0.0973664
0.134237
0.172018
0.208121
0.240681
0.26888
0.292792
0.312951
0.329982
0.344311
0.356374
0.366495
0.375043
0.382317
0.388596
0.394046
0.398823
0.403021
0.406778
0.410077
0.41293
0.41536
0.417422
0.419238
0.420804
0.422083
0.423081
0.423781
0.424122
0.423993
0.423439
0.422449
0.420868
0.418543
0.415268
0.410773
0.404534
0.395666
0.382823
0.363928
0.335908
0.297555
0.2469
0.179582
0.109539
0.0624981
0.0320306
0.0142572
0.00581259
0.00250202
0.00170276
0.00167034
0.00174751
0.00184017
0.001946
0.00206351
0.00219482
0.0023583
0.00254229
0.00272796
0.00296762
0.00326249
0.00363342
0.00411645
0.00477469
0.00572962
0.00724291
0.00998158
0.0160926
0.0355044
0.0201882
0.0163315
0.0357684
0.0637698
0.0971815
0.133968
0.171658
0.207708
0.240227
0.268429
0.292347
0.31255
0.329605
0.343983
0.356059
0.366237
0.374789
0.38203
0.388213
0.393582
0.398281
0.402433
0.406116
0.40942
0.412316
0.414802
0.416897
0.418643
0.420155
0.421425
0.422408
0.423111
0.423497
0.423497
0.423
0.422037
0.420575
0.418442
0.415452
0.411316
0.405633
0.397688
0.386283
0.369599
0.344996
0.310182
0.264816
0.203415
0.131739
0.0761104
0.0413069
0.0193195
0.00812884
0.00332034
0.00181374
0.00161586
0.00166887
0.00175165
0.00184645
0.00195079
0.00206565
0.00220484
0.00237313
0.00253378
0.00272809
0.00296896
0.00326405
0.00363527
0.00411861
0.00477732
0.00573278
0.00724711
0.00998738
0.0161015
0.0355201
0.0201662
0.0163099
0.0357171
0.0636676
0.0970162
0.133725
0.17134
0.207314
0.239801
0.267971
0.291897
0.312102
0.329197
0.343596
0.355719
0.365903
0.37451
0.381758
0.387916
0.393195
0.397815
0.401893
0.405527
0.40876
0.411663
0.414195
0.416348
0.418126
0.419574
0.420796
0.421776
0.422466
0.422865
0.422924
0.422565
0.421671
0.42026
0.418274
0.41552
0.411735
0.406526
0.399327
0.389156
0.374384
0.352667
0.321479
0.280112
0.225189
0.154876
0.0915247
0.0518065
0.0255711
0.0111846
0.00455733
0.00210608
0.00159555
0.00160016
0.00167215
0.00175723
0.00185164
0.00195476
0.00207135
0.00221575
0.00237354
0.00252909
0.00272927
0.00297043
0.00326575
0.00363726
0.00412095
0.00478017
0.00573628
0.00725183
0.00999379
0.0161117
0.0355366
0.0201447
0.0162916
0.0356686
0.0635758
0.0968621
0.133506
0.17105
0.206966
0.239392
0.267543
0.291442
0.311656
0.328749
0.343182
0.355326
0.365553
0.37416
0.381462
0.387628
0.392892
0.397425
0.401426
0.404987
0.408172
0.411005
0.413545
0.415746
0.417588
0.41907
0.420235
0.421171
0.42186
0.422254
0.422339
0.422051
0.421305
0.419979
0.418072
0.415501
0.412012
0.407249
0.400679
0.391511
0.378392
0.359165
0.331189
0.293543
0.244042
0.178386
0.109712
0.0631607
0.0330795
0.0150763
0.00628081
0.00265495
0.00164057
0.00154413
0.00160037
0.00167689
0.00176218
0.00185588
0.00195809
0.00208113
0.00222652
0.0023643
0.00252934
0.00273064
0.00297201
0.00326762
0.0036394
0.00412352
0.00478328
0.00574023
0.00725688
0.010001
0.0161232
0.0355548
0.0201251
0.0162755
0.0356275
0.0634893
0.0967236
0.133304
0.170791
0.206648
0.239032
0.267133
0.291021
0.311207
0.328309
0.342735
0.354909
0.365155
0.373799
0.381094
0.387315
0.392591
0.397116
0.401033
0.404522
0.407634
0.410421
0.412892
0.415102
0.416993
0.418545
0.419742
0.420629
0.421283
0.42168
0.421765
0.42152
0.42086
0.419692
0.417888
0.415429
0.412179
0.407794
0.401796
0.393468
0.381702
0.364666
0.339696
0.305141
0.260573
0.200362
0.130318
0.0757237
0.041722
0.0199026
0.00855558
0.00351925
0.00180074
0.00150884
0.0015362
0.00160427
0.00168217
0.00176654
0.00185831
0.00196311
0.0020917
0.00222732
0.00236029
0.00253057
0.00273213
0.00297375
0.00326962
0.00364177
0.00412632
0.00478672
0.00574453
0.00726255
0.0100092
0.0161354
0.0355749
0.0201066
0.0162611
0.0355917
0.0634143
0.0965931
0.13312
0.17055
0.206363
0.238702
0.266773
0.290617