/*--------------------------------*- C++ -*----------------------------------*\
| =========                 |                                                 |
| \\      /  F ield         | OpenFOAM: The Open Source CFD Toolbox           |
|  \\    /   O peration     | Version:  v2012                                 |
|   \\  /    A nd           | Website:  www.openfoam.com                      |
|    \\/     M anipulation  |                                                 |
\*---------------------------------------------------------------------------*/
FoamFile
{
    version     2.0;
    format      ascii;
    class       volSymmTensorField;
    location    "13200";
    object      turbulenceProperties:R;
}
// * * * * * * * * * * * * * * * * * * * * * * * * * * * * * * * * * * * * * //

dimensions      [0 2 -2 0 0 0 0];


internalField   nonuniform List<symmTensor> 
39402
(
(1528.04 -65.7466 0 1522.64 0 1527.26)
(61.2884 -0.746703 0 61.284 0 61.2848)
(331.134 -41.1189 0 326.661 0 330.354)
(22.7953 -0.136915 0 22.7951 0 22.7952)
(11.5229 -0.701966 0 11.5145 0 11.5162)
(118.22 -17.7593 0 115.761 0 117.787)
(21.9532 -0.124634 0 21.9532 0 21.9532)
(3.88791 -0.125481 1.44256e-24 3.88742 5.15782e-28 3.88769)
(5.26004 -0.785571 0 5.24586 0 5.24982)
(54.8346 -7.49604 0 53.708 0 54.6086)
(25.4445 -0.152159 0 25.4446 0 25.4445)
(8.9619 -0.265869 -2.98003e-24 8.96196 -8.70589e-28 8.96194)
(1.57089 -0.134544 1.99585e-22 1.57012 2.02078e-25 1.57049)
(4.02943 -1.00048 -8.64393e-21 4.00563 -1.81801e-23 4.01384)
(32.2295 -3.66186 0 31.6647 0 32.0966)
(28.7033 -0.181753 -2.38227e-24 28.7033 6.68782e-29 28.7033)
(15.2261 -0.475274 1.06255e-22 15.2264 -1.55808e-26 15.2263)
(35.1188 -2.7669 0 35.1198 0 35.1195)
(1.38209 -0.218689 -3.30905e-22 1.38051 -3.35038e-25 1.3812)
(4.01175 -1.33056 -2.63584e-21 3.97318 -1.50184e-23 3.98835)
(23.5223 -2.20696 1.44676e-19 23.2031 4.9664e-21 23.4276)
(30.595 -0.201554 0 30.595 0 30.595)
(19.4164 -0.641324 8.8155e-24 19.4167 -2.91626e-28 19.4165)
(70.8897 -5.87119 2.63147e-21 70.8973 -6.64302e-25 70.893)
(111.294 -16.6365 0 111.302 0 111.3)
(2.02597 -0.488542 2.42043e-21 2.02163 3.11087e-24 2.02346)
(4.3596 -1.67975 6.37454e-20 4.30219 2.3055e-22 4.32731)
(19.7751 -1.51874 -1.24345e-19 19.5636 -3.69662e-21 19.6994)
(31.7259 -0.214324 0 31.7259 0 31.7259)
(22.0022 -0.755808 -7.80344e-23 22.0024 4.05543e-27 22.0023)
(93.9242 -8.22177 2.67894e-21 93.9305 -2.88134e-25 93.9273)
(226.713 -35.5274 -2.35743e-20 226.781 5.13215e-24 226.742)
(259.86 -60.3019 2.84781e-19 259.902 -1.55585e-23 259.892)
(3.30182 -1.06415 1.00987e-21 3.29028 2.36433e-24 3.29526)
(4.7409 -1.94814 7.7156e-21 4.66325 7.40106e-23 4.70077)
(17.8888 -1.12487 0 17.7353 0 17.8246)
(32.0647 -0.218712 0 32.0647 0 32.0647)
(23.4633 -0.826723 0 23.4635 0 23.4634)
(108.19 -9.84113 1.04536e-21 108.195 -5.43274e-26 108.192)
(300.789 -49.6366 -1.76269e-20 300.848 1.98869e-24 300.816)
(526.587 -127.234 0 526.913 0 526.723)
(495.911 -155.539 -7.39119e-19 496.04 4.03804e-23 496.015)
(5.12758 -2.0088 -1.17024e-20 5.10149 -1.70315e-23 5.11325)
(4.99954 -2.07787 -1.43294e-19 4.90356 -8.08158e-22 4.95416)
(16.7413 -0.868154 0 16.6227 0 16.6854)
(32.0052 -0.218485 0 32.0052 0 32.0052)
(24.0258 -0.855343 0 24.0259 0 24.0258)
(116.251 -10.8443 0 116.255 0 116.252)
(346.399 -59.238 4.97612e-20 346.441 -5.66456e-24 346.416)
(696.174 -175.772 -1.9322e-19 696.466 4.21075e-23 696.3)
(992.114 -320.327 -8.83445e-19 993.167 4.21118e-22 992.539)
(818.243 -313.408 -2.07356e-18 818.56 1.42913e-22 818.477)
(7.37699 -3.28217 0 7.32668 0 7.35053)
(5.07989 -2.0682 1.64462e-19 4.9692 1.14225e-21 5.03235)
(15.9112 -0.685789 0 15.8184 0 15.862)
(31.6776 -0.215356 -4.66827e-24 31.6776 -5.75322e-29 31.6776)
(24.1151 -0.860214 0 24.1151 0 24.1151)
(119.475 -11.2637 0 119.477 0 119.475)
(372.261 -65.1844 0 372.289 0 372.27)
(799.293 -207.977 -1.78582e-19 799.493 2.03289e-23 799.374)
(1300.59 -433.813 1.65549e-18 1301.54 -4.39696e-22 1300.97)
(1604 -623.474 1.77072e-18 1606.51 -8.44063e-22 1604.97)
(1206.07 -524.541 -4.45763e-18 1206.75 5.10704e-22 1206.46)
(9.8183 -4.54643 0 9.73716 0 9.77754)
(4.99333 -1.95013 -8.47158e-20 4.872 -6.74576e-22 4.94635)
(15.2452 -0.551742 0 15.1723 0 15.2018)
(31.208 -0.210628 0 31.208 0 31.208)
(23.9079 -0.850363 1.93576e-23 23.9078 2.38565e-28 23.9079)
(120.148 -11.3577 0 120.148 0 120.148)
(382.641 -67.6817 0 382.656 0 382.643)
(857.55 -227.669 0 857.679 0 857.591)
(1483.82 -506.039 0 1484.44 0 1484.06)
(2074.78 -822.281 3.44832e-19 2077.04 -2.90106e-22 2075.66)
(2304.25 -1002 0 2308.96 0 2306.02)
(1625.06 -755.901 1.15398e-17 1626.23 -1.09032e-21 1625.49)
(12.2393 -5.66433 1.03527e-19 12.1229 2.61172e-22 12.1837)
(4.78729 -1.7687 0 4.65837 0 4.74271)
(14.5786 -0.440838 0 14.5221 0 14.5411)
(30.6591 -0.205069 0 30.6591 0 30.6591)
(23.5603 -0.832903 0 23.5602 0 23.5603)
(119.232 -11.2477 -6.06671e-21 119.231 -8.6596e-26 119.231)
(384.912 -68.2892 0 384.914 0 384.91)
(880.86 -235.881 -4.64813e-19 880.928 3.75482e-23 880.872)
(1585.8 -548.993 0 1586.19 0 1585.92)
(2345.26 -942.185 0 2346.69 0 2345.81)
(2932.27 -1284.06 -1.4256e-17 2936.48 5.82332e-21 2933.84)
(3021.27 -1405.3 0 3028.53 0 3023.9)
(2041.53 -949.588 1.79225e-17 2043.08 -3.40114e-21 2041.77)
(14.5438 -6.72704 -3.85318e-19 14.3864 -1.07073e-21 14.4724)
(4.51296 -1.56403 0 4.38139 0 4.47172)
(13.9285 -0.354118 3.88545e-19 13.8854 7.24757e-21 13.8963)
(30.0776 -0.199063 0 30.0776 0 30.0776)
(23.1236 -0.810968 0 23.1236 0 23.1236)
(117.557 -11.0313 0 117.555 0 117.556)
(382.108 -67.693 -6.2085e-20 382.102 -9.75055e-25 382.104)
(886.021 -237.936 0 886.042 0 886.017)
(1626.07 -566.518 1.16408e-18 1626.28 -9.4036e-23 1626.11)
(2491.77 -1010.6 -3.09129e-18 2492.66 4.75099e-22 2492.04)
(3279.45 -1444.67 -1.09183e-17 3282.07 2.80271e-21 3280.4)
(3781.68 -1752.42 -1.47002e-18 3788.26 1.77472e-21 3784.03)
(3696.2 -1720.63 0 3705.31 0 3699.39)
(2440.7 -1135.14 -2.12398e-17 2442.33 4.03067e-21 2440.43)
(16.6424 -7.69884 6.22982e-19 16.4406 1.93579e-21 16.555)
(4.20069 -1.34312 1.84828e-19 4.07257 2.50756e-21 4.16368)
(13.3533 -0.287975 -3.60325e-19 13.3209 -6.19284e-21 13.3258)
(29.4935 -0.193153 0 29.4935 0 29.4935)
(22.6349 -0.786258 0 22.6348 0 22.6349)
(115.388 -10.7499 0 115.387 0 115.387)
(376.859 -66.4672 1.28569e-21 376.848 3.29111e-26 376.855)
(879.819 -236.038 -8.18655e-20 879.796 -1.44242e-24 879.805)
(1634.73 -570.803 -1.3562e-18 1634.81 4.67862e-23 1634.72)
(2548.22 -1037.5 0 2548.68 0 2548.3)
(3460.89 -1531.75 -5.9389e-19 3462.5 2.23029e-22 3461.35)
(4186.13 -1939.68 1.57721e-17 4190.24 -4.04867e-21 4187.53)
(4559.74 -2122.08 2.01754e-17 4568.47 -1.01545e-20 4562.67)
(4308.17 -2005.37 0 4318.19 0 4311.52)
(2807.91 -1305.93 0 2809 0 2806.75)
(18.505 -8.637 -3.60865e-19 18.2533 -1.20078e-21 18.4013)
(3.87943 -1.11276 8.83042e-21 3.7581 3.53467e-22 3.84734)
(12.842 -0.236798 0 12.8184 0 12.8185)
(28.9293 -0.187519 0 28.9293 0 28.9293)
(22.1538 -0.762172 0 22.1538 0 22.1538)
(112.901 -10.4251 0 112.9 0 112.901)
(369.961 -64.8369 8.75468e-20 369.953 1.54549e-24 369.956)
(868.121 -232.08 -5.79828e-21 868.077 -1.72794e-25 868.102)
(1623.7 -566.551 1.10214e-18 1623.64 1.66726e-23 1623.66)
(2559.36 -1043.54 2.6063e-18 2559.55 -9.09273e-23 2559.32)
(3528.53 -1564.34 1.11902e-17 3529.33 -1.28867e-21 3528.64)
(4389.26 -2035.9 8.26968e-18 4391.71 -1.46097e-21 4389.9)
(5002.92 -2327.48 0 5008.45 0 5004.67)
(5246.4 -2441.7 0 5256.87 0 5249.64)
(4837.7 -2251.61 0 4847.17 0 4840.67)
(3130.66 -1459.87 6.90297e-17 3130.03 -2.21099e-20 3128.15)
(20.1056 -9.86572 -4.80645e-19 19.7883 -2.02373e-21 19.9812)
(3.58099 -0.898318 1.68158e-19 3.46776 2.97789e-21 3.55389)
(12.3735 -0.19596 0 12.3576 0 12.3535)
(28.377 -0.182053 3.24066e-24 28.377 -3.34143e-29 28.377)
(21.6812 -0.73884 1.11246e-22 21.6812 3.54543e-28 21.6812)
(110.454 -10.1074 -4.76415e-21 110.453 -1.48816e-25 110.453)
(362.032 -62.9445 0 362.022 0 362.027)
(852.68 -226.772 -6.95863e-19 852.641 -1.38672e-23 852.659)
(1603.22 -557.961 -1.2167e-18 1603.1 -5.35057e-23 1603.16)
(2542.4 -1035.99 0 2542.25 0 2542.29)
(3539.54 -1570.3 -8.05102e-20 3539.86 1.37898e-24 3539.45)
(4462.13 -2069.84 -1.62307e-17 4463.33 1.87447e-21 4462.26)
(5216.64 -2426.35 0 5219.86 0 5217.4)
(5713.44 -2658.11 3.13844e-17 5720.24 -1.18064e-20 5715.37)
(5828.51 -2712.64 0 5840 0 5831.63)
(5270.99 -2454.89 0 5277.96 0 5272.83)
(3396.67 -1611.55 -1.57892e-16 3391.67 4.38736e-20 3392.2)
(21.006 -11.069 5.39859e-19 20.6099 2.27304e-21 20.8597)
(3.33164 -0.714629 -2.84199e-19 3.2263 -4.6536e-21 3.30912)
(11.9342 -0.163291 0 11.9262 0 11.9174)
(27.8343 -0.176715 3.05541e-24 27.8343 6.78517e-29 27.8343)
(21.2117 -0.715871 9.11976e-23 21.2117 -3.10322e-28 21.2117)
(108.028 -9.79657 -5.99644e-21 108.028 -4.62382e-26 108.028)
(354.188 -61.0793 2.9376e-20 354.178 9.17604e-25 354.184)
(834.902 -220.585 -3.64404e-19 834.858 -1.04589e-23 834.88)
(1576.15 -546.418 3.2752e-18 1576.04 8.17343e-23 1576.09)
(2512.41 -1021.93 -3.06162e-18 2512.13 -1.51146e-22 2512.27)
(3516.35 -1559.06 7.76055e-20 3516.09 -1.32922e-24 3516.14)
(4470.5 -2073.84 0 4470.89 0 4470.32)
(5290.31 -2460.25 4.90049e-17 5291.88 -6.89806e-21 5290.4)
(5930.06 -2758.21 3.20512e-17 5933.95 -7.91174e-21 5930.84)
(6309.45 -2935.51 -3.66283e-17 6317.22 1.3779e-20 6311.33)
(6300.27 -2933.5 0 6311.79 0 6302.74)
(5599.41 -2623.56 0 5603.04 0 5599.23)
(3587.44 -1796.63 9.3004e-17 3575.57 -2.42487e-20 3579.95)
(20.3431 -10.6885 -6.12117e-19 19.9048 -3.24671e-21 20.1941)
(3.14265 -0.565798 -2.71503e-19 3.04308 -5.35719e-21 3.12413)
(11.5147 -0.136668 0 11.5156 0 11.5007)
(27.2965 -0.171436 0 27.2965 0 27.2965)
(20.7502 -0.693443 -1.26218e-23 20.7501 -2.80293e-28 20.7501)
(105.596 -9.48732 -1.42855e-21 105.596 8.06237e-27 105.596)
(346.382 -59.2422 2.76244e-20 346.375 2.55427e-25 346.378)
(817.189 -214.429 -3.42898e-19 817.143 -1.36508e-23 817.168)
(1545.09 -532.99 9.02413e-19 1544.95 2.57804e-23 1545.02)
(2473.09 -1003.24 -4.5056e-18 2472.82 -1.18241e-22 2472.94)
(3477.69 -1540.04 8.89394e-18 3477.18 4.18115e-22 3477.42)
(4441.31 -2058.77 1.6421e-17 4440.88 2.70908e-22 4440.95)
(5294.34 -2461.87 0 5294.66 0 5294.02)
(6001.76 -2791.1 -5.94617e-17 6003.56 8.35756e-21 6001.74)
(6524.51 -3034.81 2.35367e-18 6528.96 -1.47385e-21 6525.16)
(6790.45 -3160.48 -7.11964e-19 6798.61 2.54617e-22 6791.94)
(6660.99 -3111.71 -9.75385e-17 6671.1 7.6334e-20 6662.2)
(5818.61 -2781.24 0 5816.53 0 5815.54)
(3665.79 -1964.01 0 3645.49 0 3654.24)
(18.0129 -9.27793 5.52049e-19 17.5701 2.9281e-21 17.8755)
(3.01708 -0.449149 2.43483e-19 2.92061 4.80431e-21 3.00195)
(11.1049 -0.115454 0 11.1165 0 11.0934)
(26.7487 -0.165993 -5.435e-24 26.7487 9.6228e-29 26.7487)
(20.2852 -0.671008 0 20.2852 0 20.2852)
(103.204 -9.1851 3.9587e-21 103.203 9.21983e-26 103.203)
(338.529 -57.4049 -6.83128e-20 338.523 -2.35439e-25 338.526)
(799.517 -208.331 0 799.484 0 799.498)
(1514.01 -519.553 8.8062e-19 1513.88 3.50065e-23 1513.95)
(2428.21 -981.677 0 2427.91 0 2428.06)
(3427.75 -1515.25 0 3427.24 0 3427.47)
(4395.64 -2035.65 1.17029e-19 4394.83 5.22322e-24 4395.19)
(5260.02 -2445.72 -2.11605e-17 5259.36 -3.491e-22 5259.46)
(6000.67 -2790.25 0 6000.77 0 6000.16)
(6592.79 -3066 0 6594.47 0 6592.54)
(7002.96 -3258.5 -4.50662e-17 7007.77 1.20417e-20 7003.27)
(7161.31 -3335.86 1.08466e-16 7169.08 -5.20103e-20 7162.01)
(6911.34 -3227.57 -5.41488e-18 6918.37 6.4373e-21 6910.69)
(5915.29 -2825.48 1.8865e-16 5906.88 -7.84489e-20 5908.91)
(3587.26 -1938.13 0 3557.89 0 3572.25)
(14.2727 -6.9836 0 13.8814 0 14.162)
(2.94885 -0.359825 0 2.85134 0 2.93658)
(10.6997 -0.0957683 0 10.724 0 10.6905)
(26.2511 -0.161215 0 26.2511 0 26.2511)
(19.7999 -0.647523 2.23424e-23 19.7999 -2.42967e-28 19.7999)
(100.78 -8.88101 -9.75015e-23 100.78 -5.97416e-28 100.78)
(330.789 -55.6018 -2.44539e-20 330.78 -5.69534e-25 330.785)
(781.703 -202.209 2.4644e-19 781.672 8.49353e-25 781.685)
(1482.87 -506.14 0 1482.77 0 1482.82)
(2383.19 -959.997 4.64041e-18 2382.88 2.30889e-22 2383.05)
(3371.45 -1487.09 8.93321e-18 3370.88 4.034e-22 3371.16)
(4337.9 -2006.36 2.98348e-17 4337.06 1.18808e-21 4337.42)
(5209.27 -2422.02 0 5208.1 0 5208.59)
(5961.92 -2772.02 0 5960.96 0 5961.1)
(6586.7 -3062.77 -5.87941e-19 6586.46 1.57845e-23 6585.88)
(7067.61 -3287.77 -9.59435e-17 7068.77 1.60741e-20 7067.01)
(7373.44 -3431.36 -1.12587e-16 7378.01 3.49472e-20 7373.16)
(7428.88 -3458.57 -1.16682e-16 7435.22 5.595e-20 7428.31)
(7054.75 -3292.21 2.32494e-16 7057.8 -1.87353e-19 7051.66)
(5891.08 -2815.04 -1.88207e-16 5873.31 1.23545e-19 5881.22)
(3364.43 -1838.34 0 3324.24 0 3346.73)
(10.0615 -4.49496 -7.36708e-19 9.76133 -5.57103e-21 9.98456)
(2.90894 -0.283152 2.16489e-19 2.81126 5.80547e-21 2.89905)
(10.3084 -0.0756523 0 10.337 0 10.3011)
(25.8154 -0.157196 4.89736e-24 25.8154 9.40236e-29 25.8154)
(19.3819 -0.627558 0 19.3819 0 19.3819)
(98.251 -8.56335 1.84122e-22 98.2504 -1.41727e-28 98.2506)
(322.954 -53.7875 0 322.946 0 322.95)
(764.092 -196.171 0 764.054 0 764.074)
(1451.42 -492.622 -1.82209e-18 1451.33 -2.37236e-23 1451.37)
(2337.97 -938.258 -3.21757e-20 2337.72 -1.13853e-24 2337.83)
(3314.8 -1458.72 -7.58467e-18 3314.22 -3.78181e-22 3314.52)
(4273.55 -1973.72 -1.31466e-17 4272.62 -5.94229e-22 4273.07)
(5146.41 -2392.78 3.09612e-18 5145.17 3.48131e-22 5145.7)
(5907.47 -2746.58 -5.72274e-17 5905.87 -3.47407e-21 5906.5)
(6544.88 -3043.08 -7.41507e-17 6543.5 -1.40271e-21 6543.72)
(7057.87 -3282.72 0 7057.09 0 7056.64)
(7435.57 -3458.65 1.07007e-16 7435.8 -1.79276e-20 7434.43)
(7645.53 -3556.77 -5.51735e-18 7648.94 3.57325e-21 7644.33)
(7600.05 -3536.78 -1.34392e-16 7603.66 6.95811e-20 7597.69)
(7092.31 -3307.85 -2.47223e-16 7088.55 1.3436e-19 7086.14)
(5737.64 -2748.35 0 5711.4 0 5724.23)
(3002.01 -1642.7 0 2950.88 0 2983.23)
(6.41317 -2.50157 9.50074e-19 6.21056 7.62953e-21 6.36635)
(2.81088 -0.216547 -1.98409e-19 2.72497 -5.32061e-21 2.80293)
(9.94652 -0.056427 4.24606e-19 9.9715 5.71451e-21 9.94078)
(25.3393 -0.152575 0 25.3393 0 25.3393)
(19.0181 -0.610761 -2.37738e-23 19.018 -4.64906e-28 19.0181)
(96.0762 -8.29273 -8.73416e-23 96.0759 3.54428e-28 96.0759)
(314.787 -51.8936 0 314.781 0 314.784)
(746.264 -190.086 0 746.229 0 746.247)
(1420.24 -479.228 0 1420.12 0 1420.18)
(2292.2 -916.27 -5.2193e-19 2291.98 -2.61106e-23 2292.07)
(3257.85 -1430.21 5.94131e-20 3257.38 1.43889e-24 3257.59)
(4208.87 -1940.82 1.01392e-19 4207.93 5.38796e-24 4208.42)
(5077.25 -2360.6 0 5075.87 0 5076.54)
(5841.37 -2715.81 -5.11706e-17 5839.6 -2.31371e-21 5840.37)
(6488.35 -3016.64 6.76327e-17 6486.23 4.10573e-21 6487.03)
(7014.51 -3262.2 8.64798e-17 7012.57 1.62222e-21 7012.93)
(7424.37 -3452.73 0 7422.83 0 7422.6)
(7707.95 -3584.44 9.75916e-19 7707 -1.16156e-22 7706.05)
(7828.32 -3640.85 1.35728e-16 7829.65 -4.41087e-20 7825.83)
(7679.3 -3572.28 1.38588e-16 7678.73 -7.17533e-20 7674.57)
(7020.72 -3273.03 -5.49207e-18 7006.95 -3.33769e-21 7010.93)
(5448.94 -2626.63 0 5412.89 0 5432.17)
(2519.52 -1364.4 -4.36473e-19 2462.25 -2.11328e-21 2501.69)
(3.83585 -1.25521 -2.85348e-19 3.71264 -2.42156e-21 3.81011)
(2.7056 -0.168216 -7.3227e-22 2.63448 -1.92633e-23 2.69924)
(9.66328 -0.0359699 -3.74291e-19 9.68486 -5.14892e-21 9.65907)
(24.9005 -0.148499 -2.21251e-24 24.9005 1.53084e-29 24.9005)
(18.5896 -0.590644 3.53273e-24 18.5896 7.59118e-29 18.5896)
(94.1777 -8.06371 -8.21603e-23 94.1769 -1.93257e-27 94.1774)
(307.729 -50.2703 5.44391e-20 307.725 -1.57874e-25 307.726)
(727.727 -183.738 5.11678e-19 727.702 4.08148e-24 727.712)
(1388.65 -465.695 1.16972e-20 1388.54 2.45517e-25 1388.59)
(2246.73 -894.402 2.85451e-20 2246.46 1.0908e-24 2246.61)
(3200.16 -1401.3 6.76575e-18 3199.73 1.19408e-22 3199.91)
(4143.82 -1907.77 9.55055e-20 4143.02 2.82718e-24 4143.38)
(5007.84 -2328.33 0 5006.45 0 5007.17)
(5769.44 -2682.34 0 5767.51 0 5768.45)
(6420.95 -2985.24 6.83237e-17 6418.53 4.00966e-21 6419.61)
(6957.5 -3235.4 -6.64632e-19 6954.75 -2.82917e-23 6955.75)
(7381.14 -3432.23 0 7378.44 0 7379.02)
(7698.12 -3579.28 -1.92051e-18 7695.43 1.35805e-22 7695.65)
(7895.75 -3671.06 0 7893.02 0 7892.83)
(7928.9 -3686.68 0 7927.22 0 7924.68)
(7667.62 -3565.47 0 7661.4 0 7659.97)
(6836.44 -3187.06 1.26202e-16 6809.67 -9.3226e-20 6822.69)
(5022.97 -2453.3 -1.98228e-16 4975.77 1.93195e-20 5003.21)
(1955.59 -1031.62 0 1898.83 0 1940.65)
(2.34941 -0.624235 7.17026e-22 2.27566 1.4871e-23 2.33555)
(2.6025 -0.132131 1.75486e-19 2.54818 5.67093e-21 2.59745)
(9.47614 -0.020913 0 9.50273 0 9.47312)
(24.4802 -0.144603 0 24.4802 0 24.4802)
(18.221 -0.573603 9.02347e-24 18.221 -1.10796e-28 18.221)
(91.9291 -7.78955 -2.9611e-21 91.9282 -8.48064e-26 91.9288)
(301.53 -48.8826 5.02846e-20 301.523 1.33144e-24 301.527)
(711.611 -178.259 -6.75277e-19 711.592 5.83312e-25 711.598)
(1355.88 -451.594 -1.31847e-18 1355.8 -1.06949e-23 1355.83)
(2200.59 -872.24 3.67014e-18 2200.34 1.43632e-22 2200.47)
(3142.79 -1372.5 5.35032e-20 3142.28 2.33508e-24 3142.55)
(4077.96 -1874.28 -2.44452e-17 4077.22 -6.96498e-22 4077.55)
(4938.06 -2295.91 -3.60426e-17 4936.86 -1.55308e-21 4937.42)
(5697.43 -2648.87 -4.96438e-17 5695.52 -3.77441e-21 5696.49)
(6348.35 -2951.44 2.50369e-19 6345.76 1.55485e-23 6347.03)
(6890.66 -3204.13 -7.89898e-17 6887.44 -4.63663e-21 6888.9)
(7325.34 -3406.02 -1.02837e-16 7321.8 -7.64829e-21 7323.06)
(7657.1 -3559.89 -1.20614e-16 7653.37 -3.39701e-21 7654.33)
(7890.59 -3668.17 -1.07199e-18 7886.17 1.7647e-23 7887.24)
(8008.19 -3722.57 -3.10901e-16 8002.66 4.66357e-20 8003.95)
(7951.82 -3696.27 0 7945.98 0 7945.41)
(7564.99 -3516.26 -3.10343e-16 7550.48 1.46306e-19 7553.93)
(6533.63 -3049.41 0 6496.09 0 6515.92)
(4468.33 -2236.34 1.84514e-16 4408.14 -1.7983e-20 4446.09)
(1370.84 -689.841 0 1322.21 0 1359.97)
(1.59204 -0.335241 -1.21583e-19 1.54471 -1.39601e-21 1.58417)
(2.49844 -0.100827 -1.61725e-19 2.45924 -5.44353e-21 2.49449)
(9.41134 -0.0127176 0 9.44095 0 9.40911)
(24.0795 -0.140948 -2.57154e-25 24.0795 -2.92353e-30 24.0795)
(17.8571 -0.557004 -6.68916e-23 17.8571 3.39941e-28 17.8571)
(90.0163 -7.55892 -2.73947e-21 90.0158 -1.98177e-27 90.016)
(294.267 -47.2422 1.89955e-20 294.26 5.4148e-25 294.265)
(697.36 -173.522 -1.91532e-19 697.332 -4.99792e-24 697.348)
(1327.21 -439.321 2.69154e-18 1327.15 6.24076e-24 1327.17)
(2152.89 -849.209 0 2152.69 0 2152.78)
(3084.52 -1343.29 -6.24972e-18 3084.05 -2.44348e-22 3084.29)
(4012.4 -1840.87 2.31758e-17 4011.58 1.26664e-21 4012.01)
(4867.51 -2263.12 3.16934e-17 4866.39 8.9989e-22 4866.9)
(5625.11 -2615.27 -3.2522e-18 5623.4 -4.85032e-22 5624.21)
(6275.91 -2917.76 1.21765e-16 6273.36 9.76248e-21 6274.65)
(6819.18 -3170.75 -7.95422e-17 6815.77 -6.65102e-21 6817.45)
(7260.62 -3375.77 7.52517e-19 7256.44 5.39166e-23 7258.34)
(7604.08 -3535.03 1.1247e-16 7599.55 8.36707e-21 7601.17)
(7854.03 -3650.95 1.31351e-16 7848.92 3.57193e-21 7850.45)
(8011.57 -3723.81 0 8004.9 0 8007.13)
(8051.6 -3741.88 6.54706e-16 8042.5 -9.17607e-20 8045.7)
(7899.89 -3670.84 0 7888.26 0 7890.84)
(7369.04 -3423.71 3.01979e-16 7343.31 -1.4251e-19 7354.25)
(6107.89 -2858.93 -9.59466e-19 6059.28 3.53905e-22 6086.73)
(3817.34 -1995.04 0 3742.51 0 3793.36)
(840.675 -391.71 0 806.405 0 834.02)
(1.23513 -0.202315 9.04977e-20 1.20039 1.03909e-21 1.23024)
(2.39483 -0.0733823 3.03269e-19 2.36931 1.08997e-20 2.39179)
(9.42107 -0.00864851 0 9.45175 0 9.41938)
(23.6881 -0.137375 4.94571e-25 23.6881 8.0707e-30 23.6881)
(17.5145 -0.541559 -6.38367e-23 17.5145 -3.71622e-28 17.5145)
(88.1109 -7.33248 9.79701e-22 88.1105 -6.83043e-27 88.1106)
(288.057 -45.8533 1.67887e-20 288.053 7.25241e-27 288.054)
(680.821 -167.978 -2.09853e-19 680.79 -7.82522e-24 680.809)
(1301.62 -428.553 0 1301.53 0 1301.58)
(2110.88 -828.985 -2.90105e-18 2110.73 -1.17315e-23 2110.79)
(3024.55 -1313.07 1.30921e-17 3024.16 2.94596e-22 3024.34)
(3945.85 -1806.99 -1.64566e-19 3945.07 -5.99968e-24 3945.48)
(4797.3 -2230.47 -6.33669e-17 4796.09 -3.67978e-21 4796.72)
(5552.07 -2581.33 -4.5333e-17 5550.46 -1.91462e-21 5551.23)
(6203.22 -2883.99 5.65384e-17 6200.89 2.84083e-21 6202.02)
(6748.06 -3137.6 -7.17592e-17 6744.73 -6.04287e-21 6746.41)
(7191.76 -3343.68 9.11071e-17 7187.3 7.63204e-21 7189.55)
(7542.92 -3506.44 8.601e-19 7537.62 7.85402e-23 7540.06)
(7805.54 -3628.25 -9.99422e-19 7799.78 -1.21112e-22 7801.88)
(7982.15 -3710.02 0 7975.23 0 7977.62)
(8068.86 -3749.74 0 8059.27 0 8063.07)
(8030.84 -3731.2 -3.37577e-16 8017.25 4.41846e-20 8022.91)
(7773.41 -3610.62 0 7754.89 0 7761.3)
(7073.72 -3285.72 1.19801e-18 7036.35 -4.41893e-22 7055.14)
(5559.44 -2618.58 -2.39767e-16 5500.76 4.39562e-21 5535.9)
(3090.73 -1637.11 0 3005.36 0 3067.93)
(436.208 -180.276 0 417.343 0 432.921)
(1.0614 -0.132027 0 1.03302 0 1.05819)
(2.30106 -0.0517718 -2.79007e-19 2.28547 -1.00306e-20 2.29876)
(9.47177 -0.00632796 -2.5801e-19 9.49978 -6.00941e-21 9.47045)
(23.3192 -0.134076 -2.38375e-25 23.3192 -5.07932e-30 23.3192)
(17.1788 -0.526465 -6.09929e-23 17.1788 -1.50083e-27 17.1788)
(86.3309 -7.12311 8.00111e-22 86.3305 5.01248e-27 86.3306)
(281.882 -44.4907 1.19592e-21 281.879 4.62396e-27 281.88)
(666.594 -163.25 -2.08354e-19 666.577 -1.53399e-24 666.583)
(1272.22 -416.086 5.35256e-19 1272.12 2.00268e-23 1272.18)
(2072.98 -810.966 -3.17088e-18 2072.78 -1.2292e-22 2072.89)
(2971.37 -1286.26 -1.23361e-17 2971.05 -1.50841e-22 2971.18)
(3877.73 -1772.2 2.17174e-18 3877.05 1.78665e-22 3877.38)
(4726.08 -2197.36 -3.15166e-17 4724.93 -1.79068e-21 4725.53)
(5479.44 -2547.56 8.42259e-17 5477.77 5.46283e-21 5478.63)
(6129.82 -2849.89 5.36602e-17 6127.6 2.26093e-21 6128.69)
(6676.75 -3104.4 -7.34715e-17 6673.66 -4.99391e-21 6675.19)
(7123.38 -3311.91 -1.38261e-18 7119.14 -1.29153e-22 7121.28)
(7477.97 -3476.16 -8.32889e-19 7472.23 -7.60553e-23 7475.2)
(7749.34 -3601.97 1.95955e-18 7742.68 1.73789e-22 7745.78)
(7940.13 -3690.4 0 7932.88 0 7935.59)
(8049.86 -3740.92 0 8040.55 0 8044.19)
(8068.32 -3748.63 -3.54133e-16 8054.95 4.09493e-22 8060.93)
(7948.68 -3691.74 0 7929.36 0 7938.36)
(7570.38 -3514.53 -3.45529e-16 7542.55 6.89334e-20 7554.87)
(6672.86 -3100.32 2.93319e-16 6624.05 -3.83342e-20 6650.77)
(4896.09 -2335.81 2.14612e-16 4828.86 -3.93445e-21 4871.39)
(2320.4 -1209.74 0 2233.59 0 2301.71)
(188.584 -65.0427 0 180.8 0 187.316)
(0.973456 -0.0897764 -2.63338e-22 0.948347 -6.72416e-24 0.971277)
(2.21878 -0.0360237 -2.59774e-19 2.21129 -9.52543e-21 2.21705)
(9.55211 -0.00495172 2.45126e-19 9.57783 5.53077e-21 9.55106)
(22.9542 -0.130798 -1.78596e-24 22.9542 9.69218e-30 22.9542)
(16.8678 -0.512676 -5.84609e-23 16.8678 -1.24185e-27 16.8678)
(84.589 -6.91898 -1.60774e-21 84.5883 -4.516e-26 84.5887)
(276.117 -43.2301 -4.26758e-20 276.112 -5.29293e-25 276.115)
(652.477 -158.606 2.76227e-21 652.461 2.34252e-26 652.466)
(1246.74 -405.353 5.46055e-19 1246.68 4.08684e-24 1246.7)
(2029.83 -790.308 2.20363e-20 2029.62 6.2378e-25 2029.75)
(2922.83 -1262.02 5.13482e-18 2922.44 1.9972e-22 2922.65)
(3816.98 -1741.12 1.81375e-17 3816.44 2.22369e-22 3816.67)
(4653.56 -2163.66 -2.78548e-17 4652.51 -7.95711e-22 4653.03)
(5405.82 -2513.34 -2.86325e-18 5404.22 -4.53284e-22 5405.04)
(6056.89 -2815.97 -5.13736e-17 6054.67 -3.51055e-21 6055.82)
(6604.76 -3070.89 0 6601.79 0 6603.29)
(7054.86 -3280.08 8.24141e-17 7050.86 5.5967e-21 7052.88)
(7413.51 -3446.26 -2.0766e-16 7408.21 -2.38875e-20 7410.89)
(7689.49 -3574.06 0 7682.24 0 7686.07)
(7890.46 -3667.14 2.15434e-18 7882.06 2.57541e-22 7886.08)
(8016.52 -3725.46 0 8007.53 0 8010.95)
(8063.91 -3746.76 -3.4546e-16 8051.61 -2.6935e-20 8056.88)
(8014.25 -3722.46 3.55661e-16 7996.19 -3.54331e-22 8004.95)
(7805.04 -3623.5 1.40386e-18 7778.8 9.54684e-24 7791.97)
(7285.65 -3380.41 3.30611e-16 7246.37 -6.59309e-20 7266.58)
(6161 -2866.23 -2.68758e-16 6100.02 3.52445e-20 6136.06)
(4142.57 -2026.04 0 4066.39 0 4117.46)
(1567.37 -788.641 0 1489.03 0 1554.12)
(70.1776 -18.7927 -7.91309e-18 67.6914 -5.82938e-20 69.791)
(0.925042 -0.0616922 0 0.901435 0 0.923543)
(2.1532 -0.0251009 4.81269e-19 2.15581 1.75545e-20 2.15191)
(9.6527 -0.0039509 0 9.67685 0 9.65185)
(22.6142 -0.127817 1.72255e-24 22.6142 -3.9194e-29 22.6142)
(16.5515 -0.498759 7.20436e-24 16.5515 -9.04851e-29 16.5515)
(82.9829 -6.73307 7.93692e-22 82.9823 1.68599e-26 82.9827)
(270.49 -42.0038 1.50975e-20 270.484 4.06197e-25 270.488)
(639.275 -154.298 -3.80312e-20 639.252 -1.47772e-24 639.265)
(1221.45 -394.781 0 1221.4 0 1221.42)
(1992.13 -772.344 -6.33148e-20 1991.99 -1.01937e-24 1992.05)
(2868.14 -1234.55 5.66623e-18 2867.73 2.94709e-22 2867.97)
(3760.85 -1712.56 0 3760.22 0 3760.55)
(4588.55 -2133.47 2.88798e-17 4587.7 6.49972e-22 4588.09)
(5331.24 -2478.68 0 5329.74 0 5330.52)
(5983.03 -2781.64 1.02215e-16 5980.9 6.91728e-21 5982)
(6533.2 -3037.58 1.33908e-16 6530.32 1.13028e-20 6531.8)
(6985.65 -3247.92 -1.65485e-16 6981.77 -1.18516e-20 6983.78)
(7348.78 -3416.21 1.99394e-16 7343.7 1.81121e-20 7346.31)
(7629.93 -3546.49 2.28167e-16 7623.37 2.62367e-20 7626.7)
(7836.79 -3642.11 -1.83846e-20 7827.79 2.74173e-23 7832.62)
(7975.04 -3705.95 0 7964.42 0 7969.74)
(8041.8 -3736.67 0 8030.55 0 8035.05)
(8029.09 -3729.76 -1.31443e-17 8013.24 -1.03509e-20 8020.48)
(7908.39 -3672.02 3.71562e-16 7884.72 2.94481e-20 7896.88)
(7597.56 -3525.4 3.65423e-16 7563.2 2.48628e-20 7581.44)
(6911.39 -3205.32 -3.24586e-16 6860.73 -1.19935e-20 6888.88)
(5537.78 -2586.05 0 5466.16 0 5511.03)
(3345.36 -1715.18 1.85617e-16 3256.74 2.35389e-19 3320.56)
(913.609 -424.708 0 856.87 0 905.901)
(24 -4.68495 2.65555e-18 23.3429 1.95628e-20 23.9015)
(0.897483 -0.0422938 1.11612e-19 0.874217 1.9465e-21 0.89644)
(2.08526 -0.0171558 -4.35951e-19 2.09609 -1.56146e-20 2.08431)
(9.78195 -0.00310509 0 9.80797 0 9.78127)
(22.2817 -0.124894 1.87551e-24 22.2817 -1.4884e-29 22.2817)
(16.263 -0.486254 -6.93421e-24 16.263 1.57778e-28 16.263)
(81.3469 -6.54548 -5.86546e-23 81.3465 3.3283e-28 81.3467)
(265.303 -40.8859 3.74742e-20 265.298 9.98257e-25 265.301)
(626.405 -150.111 0 626.381 0 626.396)
(1197.76 -384.931 1.6208e-18 1197.69 3.46004e-23 1197.73)
(1954.72 -754.601 8.08269e-20 1954.59 1.09844e-24 1954.65)
(2819.97 -1210.44 8.0879e-20 2819.68 2.65624e-24 2819.81)
(3698.3 -1680.66 -8.44173e-18 3697.62 -4.36615e-22 3698.02)
(4527.89 -2105.26 2.77577e-17 4526.96 1.47337e-21 4527.45)
(5264.17 -2447.55 -3.57707e-17 5262.92 -8.05058e-22 5263.52)
(5908.62 -2747.06 -1.90919e-19 5906.55 -7.67367e-24 5907.65)
(6460.78 -3003.88 -1.8943e-16 6458.03 -1.45801e-20 6459.45)
(6916.74 -3215.93 -1.51703e-16 6913.09 -1.28048e-20 6914.98)
(7283.36 -3385.82 -6.98461e-18 7278.39 -2.95299e-21 7281.04)
(7570 -3518.67 -4.45341e-16 7563.64 -4.36375e-20 7566.96)
(7783.12 -3617.33 -1.73904e-20 7775.08 -2.20318e-23 7779.2)
(7928.8 -3684.43 -2.98736e-16 7917.82 -4.85987e-20 7923.78)
(8010.48 -3721.84 -2.52833e-18 7997.22 -4.02501e-22 8004.1)
(8021.61 -3726.55 2.77324e-18 8007.1 3.05712e-22 8013.49)
(7948.62 -3691.35 7.44837e-16 7928.19 8.95362e-20 7938.19)
(7750.39 -3597.14 -3.66239e-16 7720.04 -2.87886e-20 7736.37)
(7321.11 -3395.12 -7.01603e-16 7277.33 -8.33193e-20 7301.76)
(6439.94 -2986.4 2.95544e-16 6377.64 1.09204e-20 6414.44)
(4812.22 -2267.83 0 4733.58 0 4785.11)
(2527.74 -1303.78 -1.45879e-16 2433.23 -1.84998e-19 2506.43)
(442.338 -177.504 0 412.27 0 438.873)
(8.04289 -1.10134 0 7.87807 0 8.02024)
(0.876661 -0.0284484 -1.01208e-19 0.853072 -1.76506e-21 0.875947)
(2.05364 -0.0118714 1.99305e-19 2.06681 7.04431e-21 2.05295)
(9.93102 -0.00256913 0 9.9593 0 9.93048)
(21.9899 -0.122433 -1.01417e-24 21.9899 -1.64778e-29 21.9899)
(15.9787 -0.47399 -6.6823e-24 15.9787 6.28104e-29 15.9787)
(79.8608 -6.37727 1.13259e-22 79.8606 -8.24316e-28 79.8606)
(260.039 -39.7613 -1.77066e-20 260.036 -1.14627e-25 260.037)
(614.522 -146.284 3.24289e-20 614.502 1.37861e-24 614.514)
(1174.65 -375.346 -1.57145e-20 1174.58 -5.26529e-25 1174.63)
(1919.52 -737.967 -5.01666e-18 1919.37 -1.26462e-22 1919.45)
(2772.08 -1186.51 0 2771.81 0 2771.93)
(3642.76 -1652.39 -1.75115e-17 3642.27 -3.99368e-22 3642.49)
(4460.88 -2074.09 -2.64452e-17 4459.88 -1.69663e-21 4460.46)
(5200.89 -2418.12 -3.44173e-17 5199.62 -1.82685e-21 5200.28)
(5841.46 -2715.89 -4.78984e-17 5839.7 -1.75615e-21 5840.59)
(6388.18 -2970.09 1.22286e-16 6385.43 7.64221e-21 6386.93)
(6846.99 -3183.53 1.45645e-16 6843.51 1.15984e-20 6845.31)
(7218.12 -3355.56 6.96574e-19 7213.56 7.28379e-23 7215.93)
(7509.17 -3490.43 4.26597e-16 7502.91 3.92604e-20 7506.32)
(7728.84 -3592.16 2.39366e-16 7720.99 2.50351e-20 7725.17)
(7882.02 -3662.91 -2.83957e-16 7872.26 -4.53924e-20 7877.32)
(7973.02 -3704.48 -5.57464e-18 7959.75 -8.51248e-21 7967.03)
(8002.32 -3717.4 -3.49401e-16 7986.15 -6.45104e-20 7994.73)
(7959.61 -3696.85 -3.71288e-16 7941.06 -6.39769e-20 7949.92)
(7823.66 -3632.01 -3.77106e-16 7797.4 -5.17047e-20 7811.14)
(7537.82 -3496.67 3.79657e-16 7499.55 8.24717e-20 7521.02)
(6968.42 -3229.51 3.32728e-16 6914.16 5.59686e-20 6945.82)
(5865.1 -2722.31 0 5791.65 0 5837.49)
(4009.34 -1927.01 -1.62687e-18 3925.36 -2.05966e-21 3983.06)
(1729.78 -868.42 0 1638.26 0 1714.25)
(179.43 -56.6924 2.48596e-17 168.468 1.90361e-19 178.251)
(2.82985 -0.264854 0 2.78006 0 2.82467)
(0.859307 -0.0188727 0 0.836856 0 0.858817)
(2.04146 -0.00803722 1.83501e-19 2.05346 6.06526e-21 2.04094)
(10.0893 -0.00248397 0 10.1172 0 10.0889)
(21.6943 -0.119885 -1.99485e-25 21.6943 -4.84436e-30 21.6943)
(15.7375 -0.463846 -2.19453e-23 15.7375 -4.12132e-28 15.7375)
(78.4015 -6.21306 5.3979e-23 78.4012 1.28851e-27 78.4013)
(255.259 -38.7535 4.81543e-22 255.257 -1.91788e-27 255.258)
(602.519 -142.446 2.30789e-19 602.505 2.02519e-24 602.511)
(1153.28 -366.551 -4.27508e-19 1153.21 -1.25583e-23 1153.25)
(1885.18 -721.741 3.73177e-20 1885.01 1.21306e-24 1885.11)
(2726.83 -1163.95 4.4615e-18 2726.53 1.22132e-22 2726.7)
(3587.46 -1624.21 -1.68902e-17 3587 -3.23112e-22 3587.22)
(4401.01 -2046.29 -2.14551e-18 4400.26 -1.79687e-22 4400.61)
(5131.64 -2385.91 3.30802e-17 5130.26 2.1171e-21 5131.04)
(5777.5 -2686.17 -3.56227e-19 5775.83 -1.66479e-23 5776.69)
(6322.52 -2939.6 5.71788e-17 6320.12 2.11279e-21 6321.39)
(6777.38 -3151.17 -1.38745e-16 6773.81 -8.66009e-21 6775.8)
(7152 -3324.87 -1.78236e-16 7147.67 -1.76108e-20 7149.92)
(7448.3 -3462.24 1.5989e-18 7442.68 1.71247e-22 7445.62)
(7673.33 -3566.39 -2.34268e-16 7665.58 -2.32712e-20 7669.89)