/*--------------------------------*- C++ -*----------------------------------*\
| =========                 |                                                 |
| \\      /  F ield         | OpenFOAM: The Open Source CFD Toolbox           |
|  \\    /   O peration     | Version:  v2012                                 |
|   \\  /    A nd           | Website:  www.openfoam.com                      |
|    \\/     M anipulation  |                                                 |
\*---------------------------------------------------------------------------*/
FoamFile
{
    version     2.0;
    format      ascii;
    class       volVectorField;
    location    "13200";
    object      U;
}
// * * * * * * * * * * * * * * * * * * * * * * * * * * * * * * * * * * * * * //

dimensions      [0 1 -1 0 0 0 0];


internalField   nonuniform List<vector> 
39402
(
(300.405 5.81178 0)
(57.0958 0.0523786 0)
(583.694 16.5019 0)
(34.8068 0.0153375 0)
(160.175 0.18978 0)
(772.912 27.0562 0)
(33.8637 -0.000644975 0)
(100.199 0.0721699 0)
(256.582 0.553064 0)
(908.701 35.0421 0)
(36.2188 -0.0018761 0)
(97.9897 -0.00282283 0)
(162.87 0.151242 0)
(348.321 1.15996 0)
(1010.5 41.3374 0)
(38.3638 -0.000560721 0)
(104.772 -0.0108658 0)
(159.85 -0.00576104 0)
(223.909 0.240651 0)
(436.444 1.93728 0)
(1089.25 46.3063 0)
(39.5488 -0.000457886 0)
(110.944 -0.00438 0)
(170.922 -0.0296118 0)
(220.449 -0.00980352 0)
(284.149 0.342072 0)
(521.544 2.85765 0)
(1151.61 50.3645 0)
(40.2446 -0.00173187 0)
(114.356 -0.00367874 0)
(180.961 -0.0145878 0)
(235.754 -0.058605 0)
(280.42 -0.0145821 0)
(344.27 0.466387 0)
(603.899 3.91552 0)
(1202.08 53.628 0)
(40.4443 -0.00261387 0)
(116.36 -0.0061152 0)
(186.512 -0.0119804 0)
(249.544 -0.0318065 0)
(299.767 -0.0996568 0)
(340.026 -0.0193395 0)
(404.836 0.625232 0)
(683.667 5.1203 0)
(1243.64 56.2959 0)
(40.3982 -0.00128412 0)
(116.945 -0.00717475 0)
(189.765 -0.0123017 0)
(257.168 -0.0245953 0)
(317.063 -0.0580269 0)
(362.838 -0.153805 0)
(399.243 -0.024129 0)
(466.29 0.824302 0)
(760.795 6.47165 0)
(1278.37 58.5156 0)
(40.1863 0.000460283 0)
(116.839 -0.00260676 0)
(190.71 -0.0118092 0)
(261.628 -0.0212231 0)
(326.603 -0.0419793 0)
(383.091 -0.094919 0)
(424.399 -0.222208 0)
(457.918 -0.0351011 0)
(528.994 1.07672 0)
(835.116 7.9695 0)
(1307.8 60.2574 0)
(39.8845 0.00129605 0)
(116.258 0.00146769 0)
(190.536 -0.00346665 0)
(262.91 -0.0177325 0)
(332.164 -0.0329935 0)
(394.182 -0.0641011 0)
(446.679 -0.142727 0)
(483.831 -0.303238 0)
(516.033 -0.0573322 0)
(593.205 1.38928 0)
(906.31 9.62257 0)
(1333.03 61.597 0)
(39.5318 0.00117893 0)
(115.413 0.00384629 0)
(189.591 0.00259846 0)
(262.666 -0.00463875 0)
(333.733 -0.0251707 0)
(400.605 -0.0479933 0)
(458.738 -0.090932 0)
(506.936 -0.19935 0)
(540.817 -0.393342 0)
(574.011 -0.0919319 0)
(659.054 1.77622 0)
(973.989 11.4347 0)
(1354.84 62.5588 0)
(39.1556 0.00052197 0)
(114.412 0.00163254 0)
(188.211 0.0064757 0)
(261.36 0.00384022 0)
(333.406 -0.00724716 0)
(402.347 -0.0343492 0)
(465.649 -0.0659536 0)
(519.271 -0.122774 0)
(563.475 -0.262969 0)
(595.846 -0.487742 0)
(632.358 -0.13801 0)
(726.533 2.24265 0)
(1037.66 13.4197 0)
(1373.93 63.1433 0)
(38.7735 0.000880013 0)
(113.343 0.00147727 0)
(186.572 0.00219365 0)
(259.457 0.00959201 0)
(331.742 0.00507334 0)
(401.894 -0.0120042 0)
(467.386 -0.045134 0)
(526.247 -0.086743 0)
(575.411 -0.15876 0)
(616.773 -0.332198 0)
(649.568 -0.580541 0)
(691.338 -0.19031 0)
(795.452 2.79176 0)
(1096.98 15.6034 0)
(1390.74 63.3672 0)
(38.4021 -0.000902172 0)
(112.255 0.00290238 0)
(184.812 0.00293677 0)
(257.183 0.00393752 0)
(329.328 0.013052 0)
(399.874 0.00628096 0)
(466.748 -0.0183792 0)
(527.788 -0.0573531 0)
(582.059 -0.109764 0)
(627.685 -0.198583 0)
(667.517 -0.405281 0)
(702.23 -0.664344 0)
(751.139 -0.240379 0)
(865.419 3.43348 0)
(1151.51 17.9903 0)
(1405.66 63.1445 0)
(38.0351 -0.000611547 0)
(111.19 -0.000334773 0)
(183.022 0.00527779 0)
(254.741 0.00537119 0)
(326.443 0.00638015 0)
(396.979 0.0168354 0)
(464.36 0.00745713 0)
(526.88 -0.0259204 0)
(583.228 -0.0707649 0)
(633.667 -0.134569 0)
(676.813 -0.241295 0)
(716.067 -0.479307 0)
(753.954 -0.730911 0)
(811.624 -0.268441 0)
(935.775 4.16543 0)
(1200.95 20.5936 0)
(1418.95 62.5009 0)
(37.6704 0.000978099 0)
(110.134 -0.000917817 0)
(181.264 0.0012703 0)
(252.255 0.0083255 0)
(323.345 0.00839163 0)
(393.527 0.00942116 0)
(461.022 0.0209204 0)
(524.118 0.00852629 0)
(581.977 -0.0335309 0)
(634.309 -0.0850409 0)
(681.797 -0.160367 0)
(723.195 -0.28621 0)
(762.729 -0.552168 0)
(804.637 -0.770612 0)
(871.678 -0.216452 0)
(1005.55 5.01841 0)
(1245.19 23.4244 0)
(1430.9 61.2058 0)
(37.3067 0.000363656 0)
(109.086 0.00228209 0)
(179.515 -0.00093434 0)
(249.806 0.0027216 0)
(320.184 0.0119509 0)
(389.825 0.0121056 0)
(457.065 0.0129362 0)
(520.368 0.0252498 0)
(578.82 0.00948382 0)
(632.633 -0.0404938 0)
(681.78 -0.100468 0)
(726.865 -0.187257 0)
(767.174 -0.332011 0)
(807.761 -0.620567 0)
(854.08 -0.803477 0)
(929.901 -0.10612 0)
(1073.48 6.03282 0)
(1284.46 26.5779 0)
(1441.71 59.1787 0)
(36.9336 -0.00148601 0)
(108.04 0.00145819 0)
(177.78 0.00372235 0)
(247.365 -9.34671e-06 0)
(317.068 0.00466685 0)
(386.048 0.0161894 0)
(452.837 0.0164886 0)
(515.964 0.0168656 0)
(574.68 0.0297163 0)
(629.053 0.0104469 0)
(679.588 -0.0460931 0)
(726.065 -0.115012 0)
(769.242 -0.215211 0)
(809.099 -0.376926 0)
(851.469 -0.678789 0)
(902.664 -0.801506 0)
(986.644 0.0688058 0)
(1138.09 7.20584 0)
(1319.17 30.1322 0)
(1451.61 55.8977 0)
(36.5898 -0.000922402 0)
(106.964 -0.00187573 0)
(176.044 0.00312325 0)
(244.943 0.00612878 0)
(313.956 0.00196411 0)
(382.315 0.0071932 0)
(448.525 0.0210777 0)
(511.293 0.0215272 0)
(569.878 0.0212295 0)
(624.52 0.0344414 0)
(675.545 0.0115208 0)
(723.25 -0.0504506 0)
(767.522 -0.127329 0)
(809.313 -0.244257 0)
(849.346 -0.419112 0)
(894.222 -0.722894 0)
(951.039 -0.731232 0)
(1042.71 0.362038 0)
(1197.83 8.53846 0)
(1349.93 34.346 0)
(1460.17 51.6877 0)
(36.2853 0.000710168 0)
(105.969 -0.00167034 0)
(174.265 -0.00103054 0)
(242.52 0.00542742 0)
(310.866 0.00917105 0)
(378.588 0.00402539 0)
(444.261 0.0103537 0)
(506.53 0.0266001 0)
(564.823 0.0271459 0)
(619.332 0.0262179 0)
(670.608 0.0394087 0)
(718.72 0.0128524 0)
(763.991 -0.053948 0)
(806.515 -0.136469 0)
(847.478 -0.270517 0)
(888.297 -0.455896 0)
(936.381 -0.757722 0)
(999.5 -0.628477 0)
(1097.97 0.80377 0)
(1251.4 10.0245 0)
(1375.65 38.8942 0)
(1467.32 47.7064 0)
(35.9519 0.000768084 0)
(105.084 0.00200412 0)
(172.616 -0.00166054 0)
(240.039 0.000259666 0)
(307.776 0.00829746 0)
(374.886 0.0129135 0)
(440.004 0.00666736 0)
(501.823 0.0141602 0)
(559.679 0.0327012 0)
(613.917 0.0334934 0)
(665.037 0.0319622 0)
(713.371 0.0446902 0)
(758.938 0.0146174 0)
(802.186 -0.0558873 0)
(843.401 -0.142222 0)
(884.085 -0.292569 0)
(926.294 -0.483911 0)
(978.261 -0.767068 0)
(1048.16 -0.483355 0)
(1152.21 1.44981 0)
(1297.69 11.6564 0)
(1397.1 42.8033 0)
(1472.77 43.5478 0)
(35.6413 -0.00140091 0)
(104.126 0.00249717 0)
(171.144 0.00349952 0)
(237.736 -0.00129247 0)
(304.615 0.00175152 0)
(371.189 0.0117414 0)
(435.779 0.0173919 0)
(497.128 0.00997348 0)
(554.6 0.0186355 0)
(608.419 0.0395053 0)
(659.272 0.0406623 0)
(707.424 0.0387854 0)
(753.168 0.0503685 0)
(796.569 0.0171456 0)
(838.201 -0.0563824 0)
(878.542 -0.145971 0)
(919.464 -0.308155 0)
(963.669 -0.499388 0)
(1020.14 -0.703287 0)
(1096.87 -0.268582 0)
(1204.94 2.35862 0)
(1336.41 13.3306 0)
(1415.52 46.5463 0)
(1476.31 40.1671 0)
(35.3411 -0.000686449 0)
(103.222 -0.00123662 0)
(169.553 0.00452619 0)
(235.672 0.00566359 0)
(301.678 -0.000538824 0)
(367.41 0.00365844 0)
(431.562 0.0157318 0)
(492.473 0.0224635 0)
(549.542 0.0139842 0)
(602.999 0.0239242 0)
(653.436 0.0471015 0)
(701.325 0.0488718 0)
(746.85 0.0467626 0)
(790.357 0.0566193 0)
(831.97 0.0208771 0)
(872.374 -0.0536363 0)
(912.27 -0.14385 0)
(953.945 -0.316366 0)
(1000.75 -0.498285 0)
(1062.25 -0.59375 0)
(1145.06 0.0633012 0)
(1255.28 3.55082 0)
(1368.28 15.0412 0)
(1431.11 49.3605 0)
(1478.43 37.5466 0)
(35.0522 -3.37459e-05 0)
(102.356 -0.0011423 0)
(168.058 -0.000273016 0)
(233.451 0.0071338 0)
(299.035 0.00837693 0)
(363.891 0.000721585 0)
(427.262 0.00616631 0)
(487.835 0.0202943 0)
(544.534 0.0280266 0)
(597.615 0.0187885 0)
(647.692 0.030055 0)
(695.175 0.0555105 0)
(740.426 0.0581498 0)
(783.665 0.0561571 0)
(825.288 0.0637326 0)
(865.468 0.0264408 0)
(905.02 -0.0465221 0)
(944.897 -0.134181 0)
(987.844 -0.312997 0)
(1037.86 -0.461672 0)
(1104.7 -0.425986 0)
(1191.73 0.542533 0)
(1302.01 5.02864 0)
(1394.28 16.7345 0)
(1443.65 51.4264 0)
(1479.75 34.932 0)
(34.7676 0.000835056 0)
(101.521 0.000458435 0)
(166.62 -0.000889377 0)
(231.363 0.000694191 0)
(296.202 0.0102521 0)
(360.712 0.0116319 0)
(423.248 0.00249002 0)
(483.12 0.00943012 0)
(539.556 0.0254972 0)
(592.291 0.0342011 0)
(642.002 0.0245939 0)
(689.135 0.0372737 0)
(733.98 0.0649449 0)
(776.918 0.0689879 0)
(818.209 0.0669705 0)
(858.279 0.0721739 0)
(897.366 0.0347001 0)
(936.433 -0.0343235 0)
(976.723 -0.116003 0)
(1021.48 -0.292011 0)
(1075.28 -0.377377 0)
(1147.47 -0.18178 0)
(1236.72 1.24073 0)
(1343.67 6.67762 0)
(1415.25 18.4963 0)
(1453.34 52.7325 0)
(1480.63 32.4306 0)
(34.4974 0.000639337 0)
(100.698 0.00239305 0)
(165.237 0.00109438 0)
(229.353 -0.000328546 0)
(293.539 0.00175908 0)
(357.322 0.0139274 0)
(419.603 0.0153097 0)
(478.703 0.00481933 0)
(534.515 0.0135089 0)
(587.013 0.031378 0)
(636.389 0.0410919 0)
(683.164 0.031581 0)
(727.664 0.0458005 0)
(770.182 0.0756443 0)
(811.134 0.0820691 0)
(850.794 0.0795348 0)
(889.625 0.0824053 0)
(927.945 0.0466617 0)
(966.894 -0.0148788 0)
(1008.04 -0.0858471 0)
(1055.15 -0.252518 0)
(1113.26 -0.244243 0)
(1190.36 0.152345 0)
(1280.65 2.25465 0)
(1378.87 8.35647 0)
(1431.79 20.2984 0)
(1460.67 53.5896 0)
(1481.24 29.9014 0)
(34.2287 -0.000996011 0)
(99.9164 0.00201013 0)
(163.878 0.00411717 0)
(227.424 0.00211694 0)
(290.974 0.000529646 0)
(354.131 0.00320207 0)
(415.744 0.0181575 0)
(474.676 0.0193999 0)
(529.776 0.00766323 0)
(581.687 0.0184745 0)
(630.837 0.0379349 0)
(677.293 0.0487257 0)
(721.438 0.0398742 0)
(763.604 0.0557241 0)
(804.11 0.0876708 0)
(843.378 0.0975122 0)
(881.702 0.0943783 0)
(919.594 0.094812 0)
(957.465 0.0641124 0)
(996.665 0.0140495 0)
(1039.12 -0.0393782 0)
(1089.14 -0.171789 0)
(1151.92 -0.0445954 0)
(1232.83 0.599984 0)
(1323.04 3.68907 0)
(1406.76 9.83996 0)
(1444.63 22.2234 0)
(1466.2 53.7307 0)
(1481.68 27.4539 0)
(33.9761 -0.000988546 0)
(99.1433 -0.000688632 0)
(162.588 0.00356589 0)
(225.531 0.00636299 0)
(288.513 0.00442015 0)
(351.052 0.00180929 0)
(412.1 0.00514205 0)
(470.444 0.0230117 0)
(525.435 0.0239205 0)
(576.665 0.0112394 0)
(625.255 0.0244839 0)
(671.5 0.0452668 0)
(715.328 0.0572282 0)
(757.137 0.0497455 0)
(797.272 0.0673048 0)
(836.061 0.101363 0)
(873.925 0.115863 0)
(911.195 0.112813 0)
(948.433 0.109527 0)
(986.171 0.0878692 0)
(1026 0.0551375 0)
(1070.25 0.0279474 0)
(1123.72 -0.0458189 0)
(1191.18 0.249232 0)
(1273.77 1.21121 0)
(1362.16 5.64336 0)
(1427.73 11.0858 0)
(1454.38 24.3041 0)
(1470.35 52.7961 0)
(1481.96 24.8431 0)
(33.7269 -0.000467986 0)
(98.4146 -0.00202754 0)
(161.313 0.000364833 0)
(223.735 0.00555638 0)
(286.102 0.00911117 0)
(348.1 0.00708685 0)
(408.585 0.0035179 0)
(466.435 0.00759904 0)
(520.914 0.0284447 0)
(572.05 0.0288494 0)
(619.977 0.0157967 0)
(665.698 0.0316526 0)
(709.322 0.0534356 0)
(750.808 0.0667458 0)
(790.572 0.0614234 0)
(828.962 0.0807992 0)
(866.304 0.117021 0)
(903.028 0.137198 0)
(939.507 0.136119 0)
(976.37 0.129207 0)
(1014.29 0.119578 0)
(1055.15 0.111463 0)
(1101.7 0.123584 0)
(1159.09 0.137529 0)
(1230.73 0.643056 0)
(1312.98 2.10359 0)
(1395.82 7.9128 0)
(1443.07 11.9978 0)
(1461.71 26.6432 0)
(1473.49 51.1809 0)
(1482.12 21.5738 0)
(33.506 0.000713075 0)
(97.7012 -0.000770057 0)
(160.113 -0.0022051 0)
(221.963 0.00114003 0)
(283.813 0.00789116 0)
(345.213 0.0124186 0)
(405.212 0.0100794 0)
(462.567 0.00576218 0)
(516.615 0.0105786 0)
(567.281 0.0344516 0)
(615.11 0.0342553 0)
(660.198 0.0215178 0)
(703.325 0.0401345 0)
(744.603 0.0625619 0)
(784.032 0.0774535 0)
(822.031 0.0752272 0)
(858.938 0.0965366 0)
(895.086 0.135069 0)
(930.918 0.162091 0)
(966.856 0.164524 0)
(1003.62 0.157214 0)
(1042.05 0.164089 0)
(1084.35 0.188336 0)
(1133.71 0.257644 0)
(1195.31 0.398192 0)
(1269.95 1.14879 0)
(1350.72 3.38846 0)
(1422.23 10.1621 0)
(1454.23 12.8912 0)
(1467.16 29.3206 0)
(1475.81 49.5523 0)
(1482.25 17.9674 0)
(33.2816 0.000906537 0)
(97.0637 0.00183417 0)
(158.942 -0.000623637 0)
(220.297 -0.00157325 0)
(281.559 0.00224708 0)
(342.475 0.0106098 0)
(401.918 0.0162095 0)
(458.852 0.013619 0)
(512.467 0.00857324 0)
(562.731 0.014149 0)
(610.12 0.0410124 0)
(655.111 0.0401713 0)
(697.63 0.0285727 0)
(738.433 0.0500853 0)
(777.641 0.0727864 0)
(815.285 0.0895814 0)
(851.77 0.0914713 0)
(887.439 0.114895 0)
(922.627 0.156023 0)
(957.8 0.191248 0)
(993.443 0.198559 0)
(1030.38 0.194281 0)
(1069.67 0.224947 0)
(1113.85 0.292721 0)
(1166.52 0.443176 0)
(1232.26 0.757166 0)
(1307.84 1.80437 0)
(1385.75 5.31722 0)
(1441.22 11.8274 0)
(1462.31 14.2782 0)
(1471.13 31.9149 0)
(1477.42 47.9941 0)
(1482.47 14.2514 0)
(33.0506 0.000703607 0)
(96.424 0.0026404 0)
(157.9 0.00297765 0)
(218.677 -0.000167248 0)
(279.443 -0.00128776 0)
(339.781 0.0037383 0)
(398.79 0.0136894 0)
(455.229 0.0204523 0)
(508.481 0.0175693 0)
(558.343 0.0120344 0)
(605.344 0.0183954 0)
(649.933 0.0480894 0)
(692.349 0.0466416 0)
(732.563 0.0371711 0)
(771.309 0.0616922 0)
(808.713 0.0842919 0)
(844.818 0.103411 0)
(880.026 0.110343 0)
(914.683 0.136348 0)
(949.131 0.180553 0)
(983.869 0.225525 0)
(1019.46 0.24 0)
(1056.85 0.243223 0)
(1097.36 0.306185 0)
(1143.89 0.432993 0)
(1200.27 0.698249 0)
(1269.48 1.22601 0)
(1343.85 2.71594 0)
(1415.67 7.6789 0)
(1454.27 12.6811 0)
(1468.22 15.7562 0)
(1474.01 34.2021 0)
(1478.5 46.1808 0)
(1482.8 10.7964 0)
(32.8393 0.000114261 0)
(95.7639 0.00217636 0)
(156.856 0.00447861 0)
(217.234 0.00460487 0)
(277.388 0.000679831 0)
(337.25 -0.00136494 0)
(395.717 0.00564783 0)
(451.781 0.0171674 0)
(504.599 0.0250829 0)
(554.122 0.0220009 0)
(600.745 0.0162715 0)
(644.966 0.0234022 0)
(687.012 0.0557603 0)
(727.107 0.0537581 0)
(765.277 0.0475126 0)
(802.225 0.0751706 0)
(838.067 0.0973157 0)
(872.862 0.119197 0)
(907.011 0.132294 0)
(940.865 0.161465 0)
(974.779 0.209511 0)
(1009.3 0.266006 0)
(1045.07 0.29077 0)
(1083.23 0.308159 0)
(1125.34 0.414651 0)
(1174.71 0.621101 0)
(1234.93 1.0423 0)
(1306.12 1.81853 0)
(1378.01 4.06956 0)
(1438.47 10.3411 0)
(1463.27 12.7419 0)
(1472.61 17.4062 0)
(1475.71 36.2224 0)
(1479.25 43.8411 0)
(1483.18 7.79128 0)
(32.646 -0.000733385 0)
(95.1628 0.000552033 0)
(155.786 0.00384886 0)
(215.795 0.00669001 0)
(275.559 0.00660182 0)
(334.794 0.00202071 0)
(392.83 -0.00100054 0)
(448.406 0.00800865 0)
(500.9 0.0209941 0)
(550.016 0.0300633 0)
(596.315 0.0269831 0)
(640.186 0.0214176 0)
(681.88 0.0292595 0)
(721.627 0.0640722 0)
(759.658 0.0616198 0)
(796.037 0.0598141 0)
(831.424 0.0907577 0)
(865.928 0.112156 0)
(899.623 0.13726 0)
(932.914 0.157701 0)
(966.159 0.190929 0)
(999.739 0.243963 0)
(1034.25 0.314089 0)
(1070.47 0.353537 0)
(1109.7 0.39421 0)
(1153.85 0.558738 0)
(1206.46 0.872689 0)
(1270.2 1.502 0)
(1340.97 2.56317 0)
(1409.15 6.0472 0)
(1454.07 12.2953 0)
(1469.58 12.5622 0)
(1475.74 19.3075 0)
(1476.8 38.102 0)
(1479.82 40.8891 0)
(1483.41 5.49672 0)
(32.47 -0.000257372 0)
(94.613 -0.00078884 0)
(154.812 0.00136746 0)
(214.326 0.00594314 0)
(273.739 0.00926064 0)
(332.605 0.00902298 0)
(390.03 0.00359718 0)
(445.228 -0.000207508 0)
(497.286 0.0108032 0)
(546.098 0.0251261 0)
(592.013 0.0354474 0)
(635.579 0.0325956 0)
(676.945 0.0276219 0)
(716.352 0.0360794 0)
(754.051 0.0731239 0)
(790.266 0.0703681 0)
(825.085 0.0742599 0)
(859.128 0.108737 0)
(892.498 0.129207 0)
(925.288 0.158132 0)
(957.908 0.187019 0)
(990.729 0.225571 0)
(1024.17 0.285233 0)
(1058.9 0.371578 0)
(1095.82 0.431725 0)
(1136.48 0.508211 0)
(1183.1 0.750156 0)
(1239.22 1.20707 0)
(1305.38 2.07943 0)
(1373.85 3.62969 0)
(1434.7 8.66586 0)
(1464.15 13.322 0)
(1474.25 12.8222 0)
(1477.86 21.4313 0)
(1477.51 39.3593 0)
(1480.19 37.2712 0)
(1483.53 3.89818 0)
(32.2955 0.000129162 0)
(94.1129 -0.000440157 0)
(153.924 -0.00029462 0)
(212.993 0.00249494 0)
(271.887 0.00836971 0)
(330.432 0.0122209 0)
(387.527 0.0117944 0)
(442.151 0.00551053 0)
(493.879 0.00126799 0)
(542.299 0.0140629 0)
(587.901 0.0296159 0)
(631.111 0.0412293 0)
(672.19 0.0389397 0)
(711.28 0.0350404 0)
(748.646 0.0439918 0)
(784.538 0.0830161 0)
(819.166 0.0802853 0)
(852.638 0.091047 0)
(885.534 0.129422 0)
(917.959 0.14896 0)
(950.025 0.182275 0)
(982.147 0.220795 0)
(1014.73 0.266416 0)
(1048.22 0.335005 0)
(1083.38 0.440908 0)
(1121.3 0.529776 0)
(1163.78 0.658974 0)
(1213.29 1.00419 0)
(1272.81 1.64807 0)
(1339.43 2.79675 0)
(1404.67 5.1517 0)
(1452.91 11.4641 0)
(1471.03 13.5747 0)
(1477.16 13.0365 0)
(1479.22 23.7925 0)
(1478.09 40.4672 0)
(1480.4 33.3353 0)
(1483.59 2.8336 0)
(32.1111 0.000592164 0)
(93.6234 0.000350336 0)
(153.116 -0.000404902 0)
(211.777 0.000420049 0)
(270.212 0.00390815 0)
(328.232 0.0111763 0)
(385.053 0.0155601 0)
(439.389 0.0149233 0)
(490.584 0.00780163 0)
(538.709 0.0033826 0)
(583.935 0.0178421 0)
(626.838 0.0344549 0)
(667.579 0.0474168 0)
(706.393 0.0461376 0)
(743.451 0.0438428 0)
(779.013 0.0531478 0)
(813.32 0.0939385 0)
(846.57 0.091311 0)
(878.889 0.110371 0)
(910.821 0.153175 0)
(942.476 0.172025 0)
(973.984 0.210338 0)
(1005.78 0.25974 0)
(1038.29 0.314726 0)
(1072.03 0.39541 0)
(1107.87 0.525243 0)
(1147.1 0.653613 0)
(1191.8 0.858118 0)
(1244.52 1.34094 0)
(1306.7 2.21145 0)
(1371.52 3.70049 0)
(1431.46 7.42117 0)
(1464.7 13.0842 0)
(1475.45 13.0946 0)
(1478.96 13.5804 0)
(1479.93 26.0552 0)
(1478.56 40.5673 0)
(1480.62 28.9293 0)
(1483.65 2.05472 0)
(31.9233 0.000698935 0)
(93.1069 0.00182903 0)
(152.333 0.000532282 0)
(210.675 -0.000152127 0)
(268.684 0.00116273 0)
(326.244 0.00560808 0)
(382.556 0.0143207 0)
(436.67 0.0193015 0)
(487.612 0.0183693 0)
(535.242 0.0105535 0)
(580.184 0.00619068 0)
(622.721 0.0222095 0)
(663.166 0.0396585 0)
(701.663 0.054053 0)
(738.446 0.0543103 0)
(773.703 0.0541863 0)
(807.679 0.0637379 0)
(840.606 0.106088 0)
(872.673 0.103833 0)
(904.017 0.132415 0)
(935.152 0.180415 0)
(966.196 0.199143 0)
(997.306 0.243093 0)
(1028.93 0.304754 0)
(1061.55 0.372073 0)
(1095.75 0.469163 0)
(1132.53 0.628984 0)
(1173.42 0.811215 0)
(1220.74 1.12032 0)
(1276.68 1.78437 0)
(1339.89 2.9128 0)
(1401.59 5.04412 0)
(1451.76 10.3278 0)
(1471.94 14.0552 0)
(1478.08 12.9974 0)
(1480.28 14.5178 0)
(1479.93 28.6142 0)
(1478.85 39.9703 0)
(1481.02 23.7502 0)
(1483.73 1.50352 0)
(31.7642 0.0001851 0)
(92.5807 0.0021487 0)
(151.511 0.00322563 0)
(209.614 0.00081123 0)
(267.301 -6.40315e-05 0)
(324.427 0.00210438 0)
(380.293 0.0076004 0)
(433.934 0.017836 0)
(484.699 0.0233855 0)
(532.098 0.0220919 0)
(576.565 0.0138516 0)
(618.823 0.00977755 0)
(658.922 0.027239 0)
(697.129 0.0452585 0)
(733.608 0.0611903 0)
(768.59 0.063589 0)
(802.261 0.0662223 0)
(834.853 0.0759681 0)
(866.586 0.11977 0)
(897.645 0.118159 0)
(928.177 0.15739 0)
(958.668 0.211638 0)
(989.255 0.231191 0)
(1020.12 0.281509 0)
(1051.74 0.356985 0)
(1084.64 0.440454 0)
(1119.52 0.559741 0)
(1157.53 0.757859 0)
(1200.46 1.01326 0)
(1250.71 1.46444 0)
(1309.32 2.35723 0)
(1371.13 3.76243 0)
(1428.72 6.88398 0)
(1465.01 13.0311 0)
(1476.21 14.2835 0)
(1479.83 12.9289 0)
(1481.16 15.649 0)
(1479.89 31.14 0)
(1478.99 39.449 0)
(1481.64 18.576 0)
(1483.81 1.08573 0)
(31.6365 -0.000942171 0)
(92.1376 0.000723258 0)
(150.678 0.00377888 0)
(208.504 0.00496241 0)
(265.975 0.00165986 0)
(322.787 -8.04896e-05 0)
(378.228 0.00326815 0)
(431.449 0.00992979 0)
(481.777 0.0217076 0)
(529.03 0.0277487 0)
(573.275 0.0261163 0)
(615.069 0.0177817 0)
(654.899 0.014267 0)
(692.775 0.0330108 0)
(728.97 0.0512951 0)
(763.653 0.0689393 0)
(797.044 0.0741254 0)
(829.326 0.0801039 0)
(860.718 0.0900864 0)
(891.429 0.135348 0)
(921.643 0.134577 0)
(951.511 0.185533 0)
(981.501 0.247396 0)
(1011.77 0.2692 0)
(1042.54 0.326805 0)
(1074.32 0.417962 0)
(1107.7 0.522395 0)
(1143.49 0.671716 0)
(1183.06 0.920032 0)
(1228.4 1.27367 0)
(1281.67 1.91169 0)
(1341.5 3.07074 0)
(1400.37 4.95372 0)
(1450.43 9.52904 0)
(1472.7 14.2986 0)
(1478.76 13.7381 0)
(1480.93 12.763 0)
(1481.69 17.2978 0)
(1479.78 33.0452 0)
(1479.14 37.8932 0)
(1482.32 13.6274 0)
(1483.87 0.760159 0)
(31.5079 -0.00143841 0)
(91.7811 -0.00220836 0)
(149.98 0.00154189 0)
(207.384 0.00579485 0)
(264.595 0.00703137 0)
(321.217 0.00330083 0)
(376.366 1.35632e-06 0)
(429.179 0.0047156 0)
(479.114 0.012596 0)
(525.962 0.0258836 0)
(570.07 0.0324425 0)
(611.639 0.0304387 0)
(651.029 0.0224516 0)
(688.644 0.0197869 0)
(724.52 0.0396121 0)
(758.92 0.057839 0)
(792.014 0.0774894 0)
(824.008 0.0860225 0)
(855.081 0.0960042 0)
(885.441 0.106388 0)
(915.287 0.153259 0)
(944.805 0.153556 0)
(974.146 0.217136 0)
(1003.77 0.288369 0)
(1033.87 0.314371 0)
(1064.69 0.380501 0)
(1096.79 0.489676 0)
(1130.86 0.621172 0)
(1167.83 0.811036 0)
(1209.31 1.1264 0)
(1257.38 1.61094 0)
(1313.23 2.48396 0)
(1372.06 3.92024 0)
(1427.33 6.59722 0)
(1465 12.4549 0)
(1476.93 14.8891 0)
(1480.33 13.6661 0)
(1481.61 12.9826 0)
(1481.59 19.3471 0)
(1479.61 34.5236 0)
(1479.39 35.8288 0)
(1482.9 9.36519 0)
(1483.92 0.510095 0)
(31.3661 -0.000591408 0)
(91.4225 -0.00359045 0)
(149.42 -0.00306267 0)
(206.449 0.00262953 0)
(263.206 0.00813325 0)
(319.591 0.00945931 0)
(374.583 0.00525802 0)
(427.131 0.00141387 0)
(476.679 0.00652244 0)
(523.159 0.0156179 0)
(566.873 0.030435 0)
(608.315 0.0374614 0)
(647.478 0.0350894 0)
(684.671 0.0279712 0)
(720.291 0.0264808 0)
(754.381 0.047156 0)
(787.191 0.0649934 0)
(818.888 0.0867997 0)
(849.662 0.0995661 0)
(879.691 0.114091 0)
(909.172 0.1252 0)
(938.295 0.174065 0)
(967.256 0.175593 0)
(996.201 0.252569 0)
(1025.59 0.335324 0)
(1055.66 0.368098 0)
(1086.68 0.444543 0)
(1119.29 0.574781 0)
(1154.26 0.741041 0)
(1192.72 0.985577 0)
(1236.46 1.39153 0)
(1287.37 2.04646 0)
(1344.53 3.19062 0)
(1400.7 5.02238 0)
(1449.66 8.93164 0)
(1473.26 14.489 0)
(1479.32 14.9994 0)
(1481.29 13.5075 0)
(1482 13.2283 0)
(1481.29 21.9202 0)
(1479.54 35.1123 0)
(1479.76 32.4672 0)
(1483.31 6.02503 0)
(1483.95 0.324188 0)
(31.2233 0.00101896 0)
(91.0348 -0.00131316 0)
(148.861 -0.00525417 0)
(205.702 -0.00374913 0)
(262.052 0.00396342 0)
(317.963 0.0108148 0)
(372.745 0.0122756 0)
(425.168 0.00767105 0)
(474.479 0.00361365 0)
(520.584 0.00872741 0)
(563.945 0.0190567 0)
(605.002 0.0353611 0)
(644.048 0.0428171 0)
(681.015 0.0400903 0)
(716.227 0.0344501 0)
(750.063 0.0344839 0)
(782.568 0.0557799 0)
(813.977 0.072911 0)
(844.453 0.0971641 0)
(874.167 0.114712 0)
(903.303 0.134541 0)
(932.044 0.146909 0)
(960.578 0.19839 0)
(989.111 0.201305 0)
(1017.78 0.292308 0)
(1047.07 0.389197 0)
(1077.24 0.432 0)
(1108.63 0.5214 0)
(1141.93 0.676819 0)
(1178.06 0.887689 0)
(1218.34 1.20583 0)
(1264.66 1.73504 0)
(1318.03 2.60568 0)
(1374.43 4.03082 0)
(1427.2 6.52553 0)
(1465.14 11.8364 0)
(1477.56 15.2496 0)
(1480.68 14.5122 0)
(1481.88 13.4027 0)
(1482.24 13.885 0)
(1480.85 24.8259 0)
(1479.52 35.0507 0)
(1480.35 28.0187 0)
(1483.58 3.63126 0)
(1483.97 0.196803 0)
(31.0871 0.00265565 0)
(90.6462 0.00284161 0)
(148.257 -0.00173963 0)
(204.958 -0.00682463 0)
(261.13 -0.00427778 0)
(316.612 0.00552913 0)
(370.913 0.0138334 0)
(423.16 0.0154713 0)
(472.37 0.010478 0)
(518.261 0.00543031 0)
(561.249 0.011372 0)
(601.96 0.0229458 0)
(640.641 0.0406971 0)
(677.495 0.0485294 0)
(712.475 0.0454973 0)
(745.919 0.0420071 0)
(778.166 0.0439146 0)
(809.273 0.065639 0)
(839.453 0.081805 0)
(868.865 0.108828 0)
(897.67 0.13171 0)
(926.049 0.157554 0)
(954.182 0.171941 0)
(982.253 0.226958 0)
(1010.48 0.231415 0)
(1038.99 0.336981 0)
(1068.31 0.451117 0)
(1098.73 0.507967 0)
(1130.64 0.614227 0)
(1164.85 0.800557 0)
(1202.44 1.06872 0)
(1244.87 1.48557 0)
(1293.86 2.17953 0)
(1348.55 3.3009 0)
(1402.43 5.07789 0)
(1449.65 8.62613 0)
(1473.86 14.3013 0)
(1479.78 15.4905 0)
(1481.5 14.4464 0)
(1482.19 13.3575 0)
(1482.14 14.8454 0)
(1480.49 27.6992 0)
(1479.5 34.9285 0)
(1481.18 22.3665 0)
(1483.73 2.17073 0)
(1483.98 0.115961 0)
(30.9573 0.00270282 0)
(90.2741 0.00721391 0)
(147.659 0.00455498 0)
(204.161 -0.00197258 0)
(260.218 -0.0082304 0)
(315.531 -0.00469914 0)
(369.388 0.00731064 0)
(421.161 0.0172168 0)
(470.225 0.0190492 0)
(516.032 0.0135806 0)
(558.808 0.00760758 0)
(599.156 0.0145055 0)
(637.498 0.0273509 0)
(674.005 0.0464785 0)
(708.872 0.0546131 0)
(742.08 0.0513715 0)
(773.945 0.0508048 0)
(804.79 0.054898 0)
(834.668 0.0769254 0)
(863.777 0.0919407 0)
(892.268 0.121998 0)
(920.301 0.150736 0)
(948.054 0.183346 0)
(975.708 0.200748 0)
(1003.44 0.260514 0)
(1031.45 0.266802 0)
(1059.93 0.387424 0)
(1089.4 0.522441 0)
(1120.22 0.598282 0)
(1152.85 0.727076 0)
(1188.21 0.952427 0)
(1227.56 1.29451 0)
(1272.44 1.84262 0)
(1323.76 2.75189 0)
(1377.78 4.14308 0)
(1428.33 6.48457 0)
(1465.56 11.3285 0)
(1478.18 15.4704 0)
(1480.98 15.4734 0)
(1482 14.188 0)
(1482.24 13.3856 0)
(1481.94 16.3967 0)
(1480.19 29.7634 0)
(1479.59 34.0199 0)
(1482.05 16.1794 0)
(1483.84 1.2997 0)
(1483.99 0.0657236 0)
(30.8434 0.0015171 0)
(89.9196 0.00735109 0)
(147.088 0.0113543 0)
(203.376 0.00655104 0)
(259.245 -0.00200702 0)
(314.468 -0.00951434 0)
(368.169 -0.00504247 0)
(419.491 0.00931215 0)
(468.095 0.0209713 0)
(513.779 0.0230241 0)
(556.474 0.0170248 0)
(596.611 0.0101829 0)
(634.596 0.0181852 0)
(670.777 0.0323299 0)
(705.313 0.0527501 0)
(738.402 0.0611135 0)
(770.026 0.0578165 0)
(800.497 0.0608803 0)
(830.107 0.0675465 0)
(858.909 0.0898428 0)
(887.09 0.103647 0)
(914.797 0.13701 0)
(942.187 0.171973 0)
(969.447 0.212125 0)
(996.736 0.233776 0)
(1024.23 0.299923 0)
(1052.13 0.308533 0)
(1080.69 0.444782 0)
(1110.44 0.604871 0)
(1141.82 0.70571 0)
(1175.38 0.865124 0)
(1212.17 1.1412 0)
(1253.61 1.57895 0)
(1301.02 2.29808 0)
(1353.55 3.46459 0)
(1405.11 5.18457 0)
(1450.54 8.45368 0)
(1474.54 14.0005 0)
(1480.22 15.7852 0)
(1481.68 15.1968 0)
(1482.15 14.0328 0)
(1482.27 13.3671 0)
(1481.61 18.7582 0)
(1479.94 31.4414 0)
(1479.84 32.4209 0)
(1482.78 10.4645 0)
(1483.91 0.746206 0)
(1483.99 0.0352978 0)
(30.7537 -0.00195396 0)
(89.6092 0.00419777 0)
(146.544 0.0116045 0)
(202.629 0.0159804 0)
(258.292 0.00879019 0)
(313.34 -0.00181834 0)
(366.972 -0.0106934 0)
(418.151 -0.00533882 0)
(466.306 0.0115319 0)
(511.543 0.0250965 0)
(554.123 0.0274374 0)
(594.174 0.0208207 0)
(631.961 0.0132511 0)
(667.787 0.0224736 0)
(702.009 0.037952 0)
(734.776 0.0595897 0)
(766.28 0.0680983 0)
(796.502 0.0649552 0)
(825.742 0.0723782 0)
(854.271 0.0819722 0)
(882.139 0.104633 0)
(909.527 0.117301 0)
(936.58 0.15418 0)
(963.462 0.195611 0)
(990.34 0.244089 0)
(1017.36 0.271583 0)
(1044.7 0.346134 0)
(1072.59 0.358004 0)
(1101.36 0.510609 0)
(1131.55 0.700559 0)
(1163.67 0.833728 0)
(1198.38 1.03509 0)
(1236.91 1.37867 0)
(1280.69 1.94054 0)
(1330.28 2.87475 0)
(1382.06 4.32798 0)
(1430.39 6.59678 0)
(1466.47 10.9863 0)
(1478.76 15.4868 0)
(1481.29 15.838 0)
(1481.98 15.1647 0)
(1482.22 13.7815 0)
(1482.23 13.585 0)
(1481.25 21.4676 0)
(1479.91 32.0367 0)
(1480.32 29.047 0)
(1483.31 6.06561 0)
(1483.95 0.399435 0)
(1484 0.0177709 0)
(30.6798 -0.00458266 0)
(89.3637 -0.00484125 0)
(146.071 0.00675806 0)
(201.918 0.0163549 0)
(257.387 0.0209052 0)
(312.236 0.0113548 0)
(365.708 -0.00135915 0)
(416.837 -0.0117992 0)
(464.859 -0.0055626 0)
(509.654 0.0139766 0)
(551.799 0.0296547 0)
(591.735 0.032312 0)
(629.436 0.0250191 0)
(665.068 0.0168778 0)
(698.94 0.0274428 0)
(731.402 0.0443013 0)
(762.593 0.0670982 0)
(792.689 0.0756863 0)
(821.674 0.0728672 0)
(849.833 0.0854019 0)
(877.42 0.098288 0)
(904.489 0.12156 0)
(931.218 0.133332 0)
(957.751 0.173901 0)
(984.234 0.221855 0)
(1010.82 0.279554 0)
(1037.65 0.314829 0)
(1064.93 0.400338 0)
(1092.94 0.416978 0)
(1122.04 0.586923 0)
(1152.82 0.81231 0)
(1185.88 0.986803 0)
(1222.02 1.24563 0)
(1262.59 1.68038 0)
(1308.78 2.40158 0)
(1359.38 3.58529 0)
(1408.7 5.38108 0)
(1452.14 8.53733 0)
(1475.36 13.7539 0)
(1480.67 15.8993 0)
(1481.78 15.7358 0)
(1482.08 14.835 0)
(1482.22 13.7555 0)
(1482.11 14.397 0)
(1480.84 24.6601 0)
(1479.92 32.0269 0)
(1481.05 24.0264 0)
(1483.65 3.17833 0)
(1483.98 0.19923 0)
(1484 0.00848324 0)
(30.6001 -0.00592561 0)
(89.1626 -0.0117961 0)
(145.699 -0.00702533 0)
(201.306 0.00965598 0)
(256.528 0.0214066 0)
(311.19 0.0262369 0)
(364.474 0.0142893 0)
(415.461 -0.000727465 0)
(463.446 -0.0128685 0)
(508.112 -0.00570756 0)
(549.816 0.0166869 0)
(589.324 0.034682 0)
(626.921 0.0377015 0)
(662.465 0.0296513 0)
(696.147 0.0211245 0)
(728.265 0.033165 0)
(759.155 0.0514692 0)
(788.944 0.0753935 0)
(817.795 0.0840297 0)
(845.692 0.0816344 0)
(872.907 0.100054 0)
(899.688 0.116614 0)
(926.095 0.140913 0)
(952.296 0.152245 0)
(978.416 0.196662 0)
(1004.58 0.251066 0)
(1030.95 0.318979 0)
(1057.68 0.364225 0)
(1084.99 0.463954 0)
(1113.25 0.487588 0)
(1142.83 0.676473 0)
(1174.36 0.94379 0)
(1208.59 1.17096 0)
(1246.46 1.50809 0)
(1289.31 2.06649 0)
(1337.49 2.98737 0)
(1387.16 4.43642 0)
(1433.32 6.78259 0)
(1467.72 10.944 0)
(1479.4 15.5103 0)
(1481.52 16.003 0)
(1481.97 15.7002 0)
(1482.13 14.6869 0)
(1482.21 13.8395 0)
(1481.93 15.5651 0)
(1480.56 27.1898 0)
(1480 31.6496 0)
(1481.91 17.4373 0)
(1483.82 1.56973 0)
(1483.99 0.0959289 0)
(1484 0.00380882 0)
(30.5042 -0.00446262 0)
(88.9498 -0.0152837 0)
(145.401 -0.0177534 0)
(200.827 -0.00914559 0)
(255.791 0.0128071 0)
(310.197 0.0268633 0)
(363.309 0.0319989 0)
(414.119 0.0176213 0)
(461.977 0.000120874 0)
(506.611 -0.0138911 0)
(548.185 -0.00575644 0)
(587.258 0.0197257 0)
(624.436 0.0402354 0)
(659.883 0.0436385 0)
(693.472 0.0347736 0)
(725.404 0.0260438 0)
(755.951 0.0397268 0)
(785.447 0.0595666 0)
(813.995 0.0846299 0)
(841.746 0.0932734 0)
(868.692 0.0915012 0)
(895.099 0.116427 0)
(921.214 0.137037 0)
(947.088 0.162969 0)
(972.862 0.174597 0)
(998.646 0.223059 0)
(1024.57 0.283777 0)
(1050.8 0.362946 0)
(1077.51 0.420582 0)
(1104.96 0.53877 0)
(1133.62 0.572456 0)