/*--------------------------------*- C++ -*----------------------------------*\
| =========                 |                                                 |
| \\      /  F ield         | OpenFOAM: The Open Source CFD Toolbox           |
|  \\    /   O peration     | Version:  v2012                                 |
|   \\  /    A nd           | Website:  www.openfoam.com                      |
|    \\/     M anipulation  |                                                 |
\*---------------------------------------------------------------------------*/
FoamFile
{
    version     2.0;
    format      ascii;
    class       volScalarField;
    location    "13200";
    object      up;
}
// * * * * * * * * * * * * * * * * * * * * * * * * * * * * * * * * * * * * * //

dimensions      [0 0 0 0 0 0 0];


internalField   nonuniform List<scalar> 
39402
(
2.12001
0.795574
4.55211
0.561944
2.14355
7.55606
0.54584
1.56701
3.35662
11.1494
0.559737
1.53124
2.48597
4.52232
15.4968
0.575776
1.56901
2.43823
3.3548
5.69998
20.7739
0.587113
1.61412
2.49856
3.2997
4.19889
6.94022
27.1192
0.594558
1.6459
2.57279
3.38366
4.13675
5.0388
8.28742
34.7482
0.597504
1.66746
2.62467
3.4896
4.24415
4.96135
5.89432
9.80102
43.8482
0.597835
1.67661
2.66059
3.56289
4.38393
5.08589
5.77969
6.78465
11.5397
54.6549
0.596691
1.67877
2.67636
3.61439
4.47932
5.25773
5.90616
6.59468
7.73635
13.5833
67.4546
0.59463
1.67684
2.68102
3.63756
4.5471
5.37294
6.10306
6.70191
7.41007
8.77497
16.0361
82.6217
0.592068
1.67217
2.67903
3.64536
4.57807
5.4555
6.23257
6.91321
7.46188
8.2606
9.93816
19.039
100.404
0.589048
1.6659
2.67234
3.64381
4.58948
5.4935
6.32626
7.04995
7.67678
8.24178
9.13745
11.2746
22.7549
121.476
0.58604
1.65834
2.66292
3.63549
4.58867
5.50831
6.36929
7.15058
7.81419
8.44032
9.01558
10.0627
12.8485
27.4547
146.253
0.583123
1.65068
2.6512
3.62301
4.57893
5.50835
6.38676
7.19643
7.91749
8.56972
9.1806
9.80619
11.0596
14.759
33.4399
175.5
0.580209
1.64311
2.63922
3.60729
4.56356
5.49739
6.38731
7.21554
7.96399
8.6725
9.29282
9.91011
10.6308
12.1556
17.1391
41.127
209.753
0.577253
1.63544
2.62727
3.59101
4.54402
5.47945
6.37526
7.21621
7.98392
8.71678
9.3887
9.99401
10.6389
11.4907
13.3175
20.1945
51.0115
250.179
0.574208
1.62768
2.615
3.57459
4.52344
5.45652
6.35509
7.2028
7.98431
8.73682
9.42779
10.0771
10.6807
11.3663
12.3425
14.5308
24.2318
63.694
297.317
0.57086
1.61964
2.60257
3.55767
4.50265
5.43205
6.32927
7.18042
7.96967
8.73478
9.44674
10.1088
10.7435
11.3585
12.1231
13.3129
16.0872
29.6904
79.8327
357.24
0.56795
1.61067
2.58963
3.5404
4.48102
5.40717
6.30145
7.15216
7.9456
8.71689
9.44185
10.1245
10.766
11.3952
12.042
12.9123
14.3658
17.9168
37.2089
101.815
439.163
0.565589
1.6028
2.57525
3.52243
4.45887
5.38125
6.27307
7.12137
7.91544
8.6887
9.4212
10.1155
10.7754
11.4068
12.0414
12.7367
13.7512
15.5547
20.2737
47.7584
131.655
552.099
0.56249
1.59641
2.5625
3.50255
4.43577
5.35456
6.24348
7.08995
7.8825
8.65434
9.39005
10.0909
10.7611
11.4066
12.0357
12.6886
13.4561
14.6674
16.9365
23.4624
62.6728
168.431
740.63
0.559852
1.58817
2.55208
3.48478
4.41039
5.32685
6.21303
7.05726
7.84887
8.6168
9.35302
10.0559
10.732
11.3854
12.0227
12.6583
13.3462
14.2171
15.6926
18.5866
28.0199
83.4166
214.549
1038.17
0.557231
1.58093
2.53878
3.47005
4.38752
5.29646
6.18143
7.02365
7.81394
8.5786
9.31254
10.0154
10.6924
11.3505
11.9926
12.6291
13.2824
14.0259
15.0402
16.8708
20.5934
34.888
111.843
276.579
1431.27
0.55475
1.57386
2.52709
3.45164
4.36836
5.26881
6.14693
6.98882
7.7781
8.53909
9.27149
9.97121
10.6478
11.3054
11.9505
12.5876
13.2322
13.917
14.7417
15.9526
18.2641
22.9912
45.8247
150.467
361.399
1877.1
0.552224
1.56715
2.5156
3.4353
4.34481
5.24548
6.11522
6.95097
7.74127
8.49866
9.22936
9.9266
10.5998
11.2561
11.899
12.5365
13.176
13.839
14.5724
15.5112
16.9925
19.9514
26.4354
64.0286
203.178
471.639
2361.61
0.549895
1.56033
2.50472
3.41929
4.32374
5.21729
6.08824
6.91595
7.70135
8.45736
9.18626
9.88109
10.5513
11.2034
11.8441
12.4774
13.1138
13.7641
14.4578
15.261
16.3585
18.2113
22.0391
31.6454
94.8433
273.602
610.695
2880.82
0.547478
1.55402
2.49373
3.40412
4.30322
5.1918
6.05637
6.88596
7.66398
8.41294
9.14255
9.835
10.5022
11.1506
11.786
12.4158
13.0454
13.6878
14.3583
15.0977
15.9987
17.3154
19.6831
24.6574
39.9133
145.037
365.445
779.852
3531.73
0.5453
1.54752
2.48356
3.38884
4.28372
5.16702
6.0271
6.85118
7.63191
8.37107
9.09598
9.78843
10.4529
11.0975
11.7285
12.3517
12.9759
13.6079
14.2641
14.9662
15.7701
16.8063
18.4267
21.5037
27.8737
54.4556
220.776
482.472
985.569
4585.35
0.543071
1.54163
2.47314
3.37471
4.26411
5.14347
5.99875
6.81882
7.5954
8.33492
9.05162
9.73922
10.4035
11.0445
11.6711
12.2887
12.9046
13.5287
14.17
14.8491
15.5964
16.4899
17.7129
19.7563
23.8008
32.9243
81.9257
325.699
630.182
1236.9
5824.7
0.541278
1.53568
2.46366
3.36033
4.24588
5.11985
5.97178
6.78766
7.56101
8.29462
9.01319
9.69189
10.3515
10.9919
11.6142
12.2264
12.8352
13.449
14.079
14.7371
15.4497
16.2596
17.2759
18.7576
21.3925
26.735
41.1609
134.631
457.931
819.096
1568.28
5491
0.539295
1.53084
2.45415
3.34722
4.22747
5.09792
5.94488
6.75792
7.52812
8.25641
8.97131
9.65081
10.3013
10.937
11.5581
12.165
12.7673
13.3721
13.9891
14.6313
15.3151
16.0745
16.9699
18.1541
19.9972
23.4603
30.4277
55.8682
229.164
608.023
1060.33
2017.72
4507.27
0.537152
1.52561
2.44647
3.33421
4.21078
5.07584
5.91988
6.72832
7.4967
8.21974
8.931
9.60681
10.2574
10.8837
11.5001
12.105
12.7008
13.2976
13.9033
14.5294
15.1913
15.9111
16.7336
17.745
19.1609
21.5132
26.1266
36.0191
85.0708
377.099
782.965
1413.81
2583.24
4088.72
0.535269
1.5199
2.43824
3.32358
4.1942
5.05576
5.89476
6.7007
7.46549
8.18475
8.89255
9.5641
10.2114
10.837
11.4437
12.0437
12.6364
13.2253
13.8211
14.4331
15.0745
15.7649
16.5333
17.4406
18.6091
20.3483
23.4216
29.5794
45.6891
145.406
571.189
1006.68
1946.68
3190.05
4546.25
0.533627
1.51493
2.42933
3.31239
4.18068
5.03591
5.87188
6.67328
7.43633
8.15018
8.85576
9.52363
10.1664
10.7888
11.3939
11.9837
12.5712
13.1559
13.7422
14.3417
14.9655
15.6296
16.3585
17.1917
18.2124
19.5966
21.791
25.883
33.931
63.5798
264.476
788.672
1316.36
2578.99
3943.03
6422.3
0.532196
1.51059
2.42156
3.30038
4.16659
5.01965
5.84927
6.64814
7.40694
8.11782
8.81959
9.48472
10.1239
10.7414
11.3435
11.9305
12.5073
13.0863
13.6669
14.2547
14.8632
15.5052
16.2006
16.9808
17.8997
19.0726
20.7561
23.5978
29.0938
41.3418
100.88
461.599
1052.32
1752.32
3224.79
5197.21
9634.47
0.530759
1.50682
2.41485
3.28992
4.15151
5.00278
5.83061
6.62335
7.37992
8.08735
8.7855
9.44671
10.083
10.6968
11.2936
11.8777
12.4507
13.0181
13.5922
14.1726
14.7668
15.3899
16.0576
16.7945
17.6417
18.6739
20.0547
22.1594
25.9241
33.239
54.2603
180.378
739.661
1446.59
2440.32
3762.91
6253.94
12512.9
0.529061
1.50318
2.409
3.28089
4.1384
4.98491
5.81151
6.60279
7.35348
8.05927
8.75242
9.41077
10.0431
10.654
11.247
11.8254
12.3952
12.9573
13.519
14.0921
14.6767
15.2823
15.9264
16.6284
17.4194
18.354
19.5376
21.2057
23.9116
28.9819
39.062
79.9786
340.207
1116.39
1910.23
4385.41
4631.47
5365.13
12222.9
0.527255
1.49884
2.4035
3.27308
4.12715
4.96951
5.79133
6.58205
7.33139
8.03188
8.72177
9.37649
10.0055
10.6123
11.2021
11.7765
12.3399
12.8987
13.4537
14.0132
14.5891
15.1826
15.8053
16.4778
17.2245
18.0856
19.1353
20.5235
22.5953
26.1646
32.9845
49.5896
135.59
627.151
1567.97
2429.68
20204
6435.13
4296.13
11941.7
0.525882
1.49418
2.397
3.26588
4.11746
4.95614
5.77393
6.56014
7.30934
8.00846
8.69176
9.34459
9.96962
10.5728
11.1586
11.7295
12.2886
12.8405
13.3915
13.9427
14.5037
15.0869
15.6943
16.3406
17.0501
17.8543
18.8064
20.0086
21.6788
24.3262
29.1293
38.0791
69.025
257.108
1067.22
2094.62
3227.64
10897.3
8223.6
3914.52
13316.7
0.524977
1.49069
2.39002
3.25741
4.10861
4.94476
5.7588
6.54112
7.28618
7.98581
8.6662
9.31352
9.93624
10.5355
11.1172
11.684
12.2393
12.7863
13.3298
13.8764
14.4273
14.9939
15.5886
16.2157
16.8932
17.6507
18.5284
19.5992
21.007
23.0724
26.5489
33.0205
47.2778
110.472
508.495
1634.28
2824.52
8964.61
8306.06
7931.98
4111.52
15571.5
0.524027
1.48842
2.3849
3.24837
4.09829
4.93431
5.74614
6.52468
7.26578
7.96206
8.64147
9.28699
9.90402
10.5008
11.0783
11.6408
12.1917
12.7344
13.2725
13.8108
14.3561
14.9105
15.4869
16.0983
16.7516
17.4693
18.2877
19.2608
20.4879
22.1781
24.8073
29.4747
38.0189
63.5453
204.474
962.457
2307.75
3847.77
6850.07
9266.55
6612.2
4801.3
19047.4
0.52278
1.48606
2.38162
3.24178
4.08727
4.92239
5.73435
6.51093
7.2484
7.94094
8.6158
9.26151
9.876
10.4673
11.042
11.6003
12.1465
12.6845
13.2177
13.7498
14.286
14.8334
15.3955
15.9862
16.6201
17.3076
18.0764
18.9728
20.0694
21.5067
23.5924
27.0351
33.3286
46.2452
97.4042
412.933
1642.55
3164.47
5279.16
5237.83
16904.7
5402.03
6004.7
25024.8
0.52151
1.48303
2.37831
3.2377
4.07933
4.9097
5.72109
6.49811
7.23365
7.92297
8.59288
9.23502
9.84956
10.4379
11.007
11.5625
12.1043
12.6372
13.1653
13.6917
14.2207
14.7579
15.3113
15.8853
16.4956
17.1588
17.8898
18.7237
19.7201
20.979
22.705
25.3556
29.9712
38.3142
60.9573
174.775
839.839
2521.8
4390.23
16608.6
5239.5
28997.6
4314.79
7950.61
34093.9
0.520274
1.47997
2.37398
3.23358
4.07455
4.90064
5.70719
6.48394
7.22001
7.90794
8.57293
9.21136
9.82212
10.4106
10.9762
11.5261
12.0648
12.5931
13.1155
13.6363
14.1587
14.6876
15.2292
15.7924
16.3839
17.0195
17.7201
18.5062
19.4226
20.5484
22.0258
24.156
27.6231
33.8497
46.1146
90.7883
354.607
1587.82
3554.05
7340.86
10020.2
6047.48
20247.9
4074.71
10714.7
42794.9
0.519079
1.47695
2.36973
3.22826
4.06974
4.89521
5.69719
6.46908
7.20518
7.89374
8.55646
9.19074
9.79743
10.3822
10.9479
11.4936
12.0268
12.5516
13.0691
13.5836
14.0998
14.6211
15.1529
15.7049
16.2842
16.897
17.5629
18.3108
19.1665
20.1885
21.4845
23.2615
25.9698
30.6178
38.8875
60.1844
158.856
753.016
2651.61
5367.07
16177.1
6674.32
6927.54
10072.1
4337.14
13646
63379.5
0.518092
1.47402
2.36551
3.22307
4.06355
4.88992
5.69134
6.4583
7.18972
7.87873
8.54122
9.17344
9.776
10.3565
10.9187
11.4641
11.9927
12.5119
13.0254
13.5346
14.0438
14.558
15.0809
15.6251
16.1892
16.7866
17.423
18.1317
18.9385
19.8824
21.0416
22.5667
24.7643
28.3098
34.5813
46.6074
88.1799
321.827
1533.18
4161.12
9720.77
80811.8
6091.94
10010.7
6769.84
5049.55
18145.3
62125.2
0.517514
1.47164
2.36145
3.21796
4.05758
4.88314
5.68575
6.45219
7.17829
7.86283
8.52511
9.15766
9.75792
10.3341
10.8919
11.4341
11.962
12.476
12.9839
13.4886
13.9919
14.4981
15.0142
15.5494
16.1006
16.6807
17.3018
17.9726
18.7328
19.6141
20.6707
22.0105
23.8508
26.6507
31.4094
39.7361
60.5725
152.079
703.301
2831.79
7092.17
17785.1
14856.6
6038.4
44767.9
5335.02
6287.78
23784.5
92398.3
0.517164
1.47029
2.35819
3.21304
4.05179
4.87653
5.67857
6.44629
7.17177
7.85112
8.50815
9.14124
9.74133
10.3151
10.8683
11.4062
11.931
12.444
12.946
13.4449
13.9431
14.4427
14.9515
15.478
16.0182
16.5836
17.1845
17.8346
18.551
19.375
20.3506
21.5535
23.1367
25.421
29.095
35.5145
47.6544
88.173
308.834
1520.82
5087.94
12273.9
55014.8
9900.05
6655.91
19837.8
4804.62
8505.5
33032.2
4.9805e+06
0.516685
1.46958
2.35649
3.20923
4.04627
4.87017
5.67143
6.43885
7.1657
7.84437
8.4952
9.12411
9.72446
10.2978
10.8483
11.3815
11.9018
12.4117
12.9125
13.4049
13.8968
14.3906
14.8939
15.4099
15.9404
16.4934
17.0788
17.7055
18.3899
19.1653
20.0695
21.1653
22.5616
24.4811
27.4038
32.3445
40.8515
61.9931
151.345
692.665
3128.97
9613.95
20178.4
26376.3
8557.28
7910.37
11454.9
4807.43
12543.3
68187.7
7.3476e+06
0.515902
1.4686
2.35587
3.20741
4.04211
4.86414
5.66466
6.43137
7.15804
7.83832
8.48769
9.11068
9.70663
10.2805
10.8302
11.3604
11.8759
12.3813
12.8789
13.3696
13.8544
14.3414
14.8397
15.3477
15.8674
16.4092
16.9802
17.5894
18.2497
18.9797
19.825
20.8307
22.0829
23.7406
26.136
29.9888
36.6502
49.2432
90.4307
309.404
1594.09
6336.17
20180.2
51599.1
24273.9
7746.49
11501.5
7900.98
5363.05
17967
70534
1.484e+13
0.514768
1.46685
2.35481
3.20707
4.04033
4.85961
5.65825
6.42445
7.15046
7.83046
8.48087
9.10258
9.69257
10.262
10.8123
11.3414
11.854
12.3542
12.8471
13.3345
13.8171
14.296
14.7884
15.2895
15.801
16.3314
16.8887
17.4783
18.1169
18.8129
19.6094
20.5423
21.6779
23.1378
25.1585
28.2411
33.4324
42.2402
64.4408
156.197
716.366
3621.7
15681.4
36298.8
56130.6
29337.6
7182.17
69119.9
6017.35
6748.24
27465.5
104750
1.484e+13
0.513599
1.46413
2.35262
3.20622
4.04033
4.85804
5.65352
6.4179
7.14345
7.82279
8.47285
9.09537
9.68374
10.2472
10.7933
11.323
11.8339
12.3311
12.8186
13.3011
13.7802
14.2562
14.7404
15.2344
15.7382
16.2593
16.803
17.3797
17.9943
18.6679
19.4169
20.2892
21.3331
22.6383
24.3806
26.9181
31.0057
37.9884
51.3998
95.0573
325.06
1766.98
8620.31
54334
39602.7
44428.8
18270.6
7965.01
21414.3
5270.12
9455.39
41304.8
8.13648e+06
1.484e+13
0.512502
1.46129
2.34897
3.20386
4.03983
4.85856
5.6522
6.41311
7.1368
7.81612
8.46455
9.08755
9.67626
10.2378
10.7778
11.3037
11.8149
12.3102
12.7942
13.2711
13.745
14.2172
14.6991
15.1828
15.6794
16.1914
16.7245
17.2833
17.8827
18.5328
19.2445
20.0656
21.0324
22.2192
23.7505
25.8875
29.1753
34.691
43.9
67.9976
167.112
783.583
4544.48
33527.6
56497
23396.8
29925.9
9911.07
9528.03
11500
5373.86
15052.3
53121.8
1.484e+13
1.484e+13
0.511603
1.45866
2.34506
3.19956
4.03752
4.85835
5.65318
6.41185
7.13201
7.80947
8.45724
9.07905
9.66811
10.2299
10.7677
11.2872
11.795
12.2904
12.7722
13.2452
13.7131
14.18
14.659
15.1381
15.6242
16.1283
16.6521
17.1989
17.7799
18.4066
19.0964
19.8666
20.7695
21.857
23.2308
25.0721
27.7749
32.1608
39.5536
54.1706
102.311
358.081
2098.23
13497.8
31093.5
41233.2
19813.6
32889.9
7935.3
13828
7489.78
6410.14
24810.4
113946
1.484e+13
1.484e+13
0.510974
1.45652
2.34141
3.19491
4.03283
4.85624
5.65336
6.41309
7.13072
7.80472
8.45034
9.07147
9.65938
10.2211
10.7592
11.2762
11.7776
12.2698
12.7516
13.2219
13.6855
14.146
14.6203
15.0951
15.5767
16.0689
16.5834
17.1203
17.6887
18.2971
18.957
19.6881
20.5374
21.5438
22.7869
24.4122
26.6905
30.2176
36.1386
45.9309
72.8138
185.169
910.296
6956.86
51890
59185.5
21215
19572.9
35361.7
8143.53
36824
5908.5
8840.42
38793.4
6.37939e+06
1.484e+13
1.484e+13
0.510628
1.45501
2.33852
3.19053
4.02753
4.85136
5.65153
6.41371
7.13204
7.80333
8.44502
9.06454
9.65163
10.2123
10.7502
11.2672
11.7656
12.2514
12.7301
13.2002
13.6606
14.1166
14.5847
15.0538
15.531
16.0179
16.5182
17.0452
17.6003
18.1919
18.8324
19.5374
20.3315
21.2697
22.4084
23.8571
25.8298
28.7383
33.4683
41.354
57.7132
112.699
413.429
2785.77
38757.3
32288.7
30293.9
17202.9
21477.3
12390.7
9325.41
13763.4
5710.25
13856.7
57815.9
1.484e+13
1.484e+13
1.484e+13
0.510535
1.45426
2.33656
3.18718
4.02261
4.84569
5.64657
6.41219
7.133
7.80473
8.44317
9.05903
9.64439
10.2044
10.741
11.2581
11.7561
12.2384
12.7106
13.1779
13.6378
14.0907
14.5537
15.0156
15.4867
15.9693
16.4633
16.9759
17.519
18.0961
18.7147
19.3933
20.1475
21.0286
22.0803
23.3913
25.1187
27.5843
31.4155
37.7927
48.7513
79.3237
212.545
1132.08
16105.9
30628.8
83724.5
20690
16192.3
46772
8969.03
13425.2
8443.45
6669.07
23951
127853
1.484e+13
1.484e+13
1.484e+13
0.510386
1.45414
2.33576
3.18497
4.01891
4.84043
5.64078
6.40735
7.13171
7.80578
8.44432
9.05669
9.63863
10.1968
10.733
11.2485
11.7467
12.2283
12.6965
13.1571
13.6145
14.0673
14.5257
14.9819
15.446
15.9222
16.4117
16.9169
17.4439
18.0089
18.6089
19.2647
19.9878
20.8152
21.7943
22.9926
24.5328
26.6488
29.8301
34.9917
43.4356
62.2416
127.591
503.801
3962.74
33673
33138.6
28003
18018.4
22027.6
30430.7
8627.74
44149.2
6370.84
9405.73
41559.8
1.484e+13
1.484e+13
1.484e+13
1.484e+13
0.510136
1.45398
2.3359
3.18429
4.01661
4.83649
5.63538
6.40156
7.12714
7.80485
8.44544
9.05759
9.6358
10.1907
10.725
11.2399
11.7365
12.2183
12.6856
13.1416
13.5923
14.0436
14.5011
14.9525
15.4102
15.8787
16.3612
16.8597
17.3782
17.9248
18.5114
19.1453
19.8454
20.624
21.5432
22.6482
24.0387
25.893
28.5654
32.798
39.7363
52.1994
88.2926
254.373
1536.77
22954.6
31488.2
71439.8
19593.9
19357.2
36004.2
13028.8
10448.2
13974.7
6120.67
15444.8
129467
1.484e+13
1.484e+13
1.484e+13
1.484e+13
0.509716
1.45342
2.33595
3.18486
4.01618
4.83418
5.63137
6.3961
7.12155
7.8006
8.44489
9.05862
9.6364
10.1874
10.7183
11.2317
11.7274
12.2074
12.6751
13.1297
13.5753
14.0204
14.4757
14.9263
15.3786
15.8401
16.3146
16.8053
17.3167
17.8512
18.4209
19.0344
19.7117
20.4565
21.32
22.3482
23.6172
25.2661
27.563
31.048
36.7634
45.9105
68.1403
149.355
651.557
6596.67
28066.3
64205.8
24570
19423.6
20472.6
54792.8
10124.5
16408.5
8331.5
7481.17
27802.9
3.55033e+06
1.484e+13
1.484e+13
1.484e+13
1.484e+13
0.509234
1.45253
2.33543
3.18532
4.01728
4.83406
5.629
6.39212
7.1161
7.79522
8.44084
9.05818
9.63725
10.1874
10.7144
11.2245
11.7189
12.198
12.6636
13.1186
13.5621
14.0026
14.4511
14.8993
15.3507
15.8057
16.2727
16.7562
17.2585
17.7881
18.3426
18.9352
19.5891
20.3082
21.1207
22.0841
23.2532
24.7389
26.7462
29.6835
34.3582
41.9899
56.6285
100.78
320.162
2269.75
56858.9
210655
28725
21309.4
23442.6
24104.3
31611.2
9821.17
27736.2
6617.22
11041.2
53227.1
1.484e+13
1.484e+13
1.484e+13
1.484e+13
1.484e+13
0.508677
1.45136
2.33433
3.18501
4.01829
4.83565
5.62914
6.38982
7.11222
7.78999
8.43544
9.05453
9.63678
10.1881
10.7139
11.2196
11.7113
12.189
12.6537
13.1067
13.5502
13.9893
14.4313
14.8729
15.3223
15.7758
16.236
16.7111
17.2047
17.7233
18.2684
18.8476
19.4728
20.1719
20.9415
21.8499
22.9357
24.2889
26.0703
28.5885
32.4669
38.7721
49.1526
76.2176
181.62
905.123
13871.6
36694.3
36574.9
25474.1
26381.3
26030.6
112589
12502.4
12206.4
12189.2
6802.93
20743.1
145087
1.484e+13
1.484e+13
1.484e+13
1.484e+13
1.484e+13
0.508069
1.45003
2.3328
3.18392
4.01822
4.83713
5.63102
6.39004
7.10994
7.78605
8.4301
9.04948
9.63341
10.1877
10.7145
11.2188
11.7055
12.1808
12.6441
13.0962
13.5376
13.9773
14.416
14.8514
15.2939
15.7457
16.2039
16.6706
17.1558
17.6609
18.1989
18.7655
19.3758
20.0429
20.7859
21.6416
22.6563
23.9011
25.5015
27.697
30.961
36.194
44.5401
62.3493
119.102
425.458
3616.55
44384.8
67946.9
27469
26489.5
33055.4
33972.5
57827.5
10594.2
24703.7
7856.24
9080.71
43031.4
1.484e+13
1.484e+13
1.484e+13
1.484e+13
1.484e+13
1.484e+13
0.507409
1.44851
2.33099
3.18219
4.01731
4.83748
5.63303
6.39201
7.11009
7.78356
8.42603
9.04409
9.62869
10.1845
10.7141
11.2191
11.7039
12.1742
12.6352
13.0858
13.5264
13.9639
14.403
14.8351
15.2708
15.7154
16.1716
16.6351
17.1126
17.6088
18.1329
18.6897
19.2862
19.9331
20.648
21.4544
22.4102
23.5628
25.0176
26.9592
29.7521
34.1137
41.1434
53.4758
87.4974
232.499
1375.51
22751.5
54269.4
29590.9
26437.7
32704.3
34244
36344.2
22461.3
11641.6
24665.8
6888.9
14969.3
147039
1.484e+13
1.484e+13
1.484e+13
1.484e+13
1.484e+13
1.484e+13
0.506757
1.44686
2.32879
3.18003
4.01551
4.83675
5.6338
6.39446
7.11204
7.78374
8.4233
9.04022
9.6231
10.1799
10.7111
11.2189
11.704
12.1719
12.6277
13.0761
13.5153
13.9517
14.3887
14.8215
15.2532
15.6906
16.1388
16.6012
17.0747
17.5604
18.0727
18.6183
19.1991
19.83
20.5209
21.2865
22.1913
23.2675
24.6007
26.3408
28.7674
32.4364
38.33
47.5911
69.7977
146.707
602.947
6946.39
46556.9
47733.6
26472.8
32663.9
34433.1
24455.3
71650.5
13338.6
16364.4
9793.74
8206.1
33092.3
2.67825e+06
1.484e+13
1.484e+13
1.484e+13
1.484e+13
1.484e+13
1.484e+13
0.506167
1.44523
2.32641
3.17729
4.01314
4.8349
5.63309
6.39545
7.11469
7.78569
8.42311
9.03729
9.61903
10.1745
10.7064
11.216
11.7038
12.1717
12.6246
13.0676
13.5047
13.9399
14.3759
14.8065
15.2385
15.6714
16.1115
16.5661
17.0378
17.5216
18.022
18.5512
19.1203
19.7344
20.4068
21.1466
21.9962
23.007
24.2405
25.8156
27.955
31.088
36.0332
43.871
59.1367
103.603
316.366
2298.59
37105.3
34852.6
24394.3
29678.2
38277.2
30316.5
24826
38423.1
11692.8
32130.2
7385.47
12608.8
74596.4
1.484e+13
1.484e+13
1.484e+13
1.484e+13
1.484e+13
1.484e+13
1.484e+13
0.505615
1.44361
2.32393
3.17424
4.00992
4.8324
5.63127
6.39499
7.11577
7.78851
8.42466
9.03681
9.61578
10.1701
10.701
11.2113
11.7011
12.1713
12.6239
13.0634
13.4949
13.929
14.3633
14.7926
15.2227
15.6556
16.0911
16.5364
16.9991
17.4794
17.9769
18.4975
19.0502
19.6465
20.2997
21.0191
21.8221
22.7767
23.925
25.3668
27.2754
29.9901
34.165
40.8259
51.8818
80.4074
189.425
938.782
14740.8
52868.8
25461.2
27480
43820
55436.9
27924
43494.3
16095
13679.8
12464.5
7776.04
26054.2
164731
1.484e+13
1.484e+13
1.484e+13
1.484e+13
1.484e+13
1.484e+13
1.484e+13
0.505124
1.44212
2.32146
3.17106
4.00623
4.82886
5.62872
6.3932
7.11559
7.78973
8.42741
9.03789
9.61493
10.1665
10.6966
11.2057
11.6964
12.1686
12.6233
13.0621
13.4893
13.9192
14.3512
14.7792
15.2077
15.6384
16.0742
16.5141
16.9665
17.4393
17.9316
18.4447
18.9837
19.5686
20.1967
20.8964
21.6668
22.5719
23.6487
24.9774
26.7027
29.0857
32.6445
38.2879
47.0722
66.561
128.489
459.43
3913.17
43763.4
28746
27240.6
66116.7
78375.8
60661.3
38281.1
215393
12230.8
41610.5
8463.56
11350
54383.7
1.484e+13
1.484e+13
1.484e+13
1.484e+13
1.484e+13
1.484e+13
1.484e+13
1.484e+13
0.504682
1.44077
2.31915
3.16778
4.00236
4.82469
5.6251
6.39077
7.11407
7.78964
8.42865
9.04042
9.6154
10.1651
10.6924
11.201
11.6906
12.1641
12.6207
13.0613
13.4871
13.9143
14.3399
14.766
15.1928
15.6222
16.0553
16.4954
16.9413
17.4025
17.8869
18.3978
18.9298
19.4954
20.1083
20.7834
21.5326
22.3872
23.4036
24.6398
26.2116
28.3338
31.4087
36.2049
43.7303
57.6286
95.8203
261.097
1624.35
25589.1
28937.2
26706.5
37700.3
121185
4.84896e+06
61070.1
46768.2
23599.1
14612.5
19306.3
7897.78
22347.1
171889
1.484e+13
1.484e+13
1.484e+13
1.484e+13
1.484e+13
1.484e+13
1.484e+13
1.484e+13
0.504281
1.43955
2.31705
3.16468
3.99836
4.82036
5.62085
6.38723
7.11171
7.78825
8.42853
9.0416
9.61765
10.1648
10.6904
11.1963
11.6855
12.158
12.6162
13.0588
13.4861
13.9132
14.3329
14.7533
15.1784
15.606
16.038
16.4756
16.9216
17.3764
17.8477
18.3466
18.8774
19.4337
20.0295
20.6819
21.4086
22.2212
23.1841
24.3422
25.7902
27.6974
30.3921
34.4897
40.9607
51.3063
77.0688
168.097
724.636
6746.53
35316.3
27765.6
33729.9
56255.2
81219.2
78367.1
32200.3
119258
14799.5
29575.7
9097.85
10726.5
50655.3
1.484e+13
1.484e+13
1.484e+13
1.484e+13
1.484e+13
1.484e+13
1.484e+13
1.484e+13
1.484e+13
0.503911
1.43843
2.31508
3.16182
3.99461
4.81581
5.61605
6.3829
7.10821
7.78614
8.42709
9.04167
9.61875
10.1667
10.6896
11.1936
11.6803
12.1525
12.6101
13.0545
13.4837
13.9123
14.3307
14.7455
15.1647
15.5905
16.0207
16.4564
16.8996
17.3524
17.8177
18.3042
18.8215
19.3742
19.9604
20.5917
21.2929
22.0705
22.9889
24.077
25.4217
27.1583
29.5438
33.0796
38.6237
47.1663
65.3354
119.977
388.969
2963.81
19969.9
25891.1
33257.2
45606.5
58749.7
51172.3
37302.5
28219.2
43820.3
14633
24391.2
8430.61
19713.6
179372
1.484e+13
1.484e+13
1.484e+13
1.484e+13
1.484e+13
1.484e+13
1.484e+13
1.484e+13
1.484e+13
0.503583
1.43737
2.3133
3.15918
3.99104
4.81137
5.61102
6.37785
7.10401
7.78277
8.42534
9.04035
9.61893
10.1678
10.6913
11.1923
11.6769
12.1467
12.6041
13.0481
13.4796
13.9092
14.3294
14.7428
15.1563
15.5756
16.0037
16.4375
16.8783
17.3302
17.7924
18.2713
18.775
19.3148
19.8921
20.513
21.1906
21.9448
22.8134
23.8436
25.0958
26.6915
28.834
31.9184
36.6888
44.0878
57.4253
92.7439
236.014
1298.9
11098.7
22887.8
27346
39591.7
58700.2
61212.3
78362.3
31725.5
73921.7
18280.2
21133.8
9910.58
10417.4
48190.9
1.484e+13
1.484e+13
1.484e+13
1.484e+13
1.484e+13
1.484e+13
1.484e+13
1.484e+13
1.484e+13
1.484e+13
0.503228
1.4364
2.31161
3.15673
3.98766
4.80723
5.60602
6.37261
7.09887
7.77879
8.42203
9.03885
9.61784
10.168
10.6922
11.1937
11.6748
12.1426
12.5976
13.0418
13.4732
13.9034
14.3266
14.7414
15.1531
15.5659
15.9873
16.4189
16.8585
17.3083
17.7675
18.2442
18.7388
19.2629
19.8279
20.4393
21.0985
21.8296
22.6565
23.6353
24.8117
26.2833
28.2272
30.9564
35.0749
41.5121
51.6617
76.3578
159.707
634.358
5260.55
21083.2
25926.6
38805
47573.2
61271.8
299207
74459.8
48153
39863
14339.3
21800
8462.16
19419.5
187206
1.484e+13
1.484e+13
1.484e+13
1.484e+13
1.484e+13
1.484e+13
1.484e+13
1.484e+13
1.484e+13
1.484e+13
0.502928
1.43547
2.30999
3.15439
3.9846
4.80328
5.60144
6.36732
7.09349
7.77378
8.41799
9.03577
9.61667
10.167
10.6926
11.1945
11.6758
12.1396
12.5928
13.0347
13.4666
13.8956
14.3214
14.7383
15.1512
15.5621
15.9761
16.4009
16.838
17.286
17.7439
18.2151
18.7063
19.2167
19.7664
20.3626
21.014
21.7302
22.5155
23.4503
24.5603
25.9308
27.703
30.1449
33.7383
39.3111
47.8023
65.716
117.948
362.551
2518.3
15629.7
23829.3
38128.1
58465.4
84572.8
451923
505195
183749
53828.9
21225.3
24736.2
10875.1
10990.9
46818.7
1.484e+13
1.484e+13
1.484e+13
1.484e+13
1.484e+13
1.484e+13
1.484e+13
1.484e+13
1.484e+13
1.484e+13
1.484e+13
0.50264
1.43458
2.30845
3.15215
3.98159
4.79948
5.59705
6.36241
7.0881
7.76869
8.41312
9.03194
9.61379
10.1661
10.6914
11.1949
11.6765
12.1402
12.5889
13.0288
13.4589
13.8883
14.3138
14.7331
15.1483
15.5602
15.9712
16.3885
16.818
17.2625
17.7179
18.1877
18.6777
19.1833
19.7172
20.2955
20.9311
21.6279
22.3951
23.2841
24.3381
25.6212
27.2548
29.4523
32.6242
37.4801
44.9015
58.3281
93.1972
230.242
1205.28
9168.08
22463.8
30196.8
58061
84502.3
1.58764e+06
93430.7
395137
49466.5
103390
17064
27705.3
9034.42
19229
195420
1.484e+13
1.484e+13
1.484e+13
1.484e+13
1.484e+13
1.484e+13
1.484e+13
1.484e+13
1.484e+13
1.484e+13
1.484e+13
0.502376
1.43377
2.30699
3.15
3.97873
4.79587
5.59289
6.35771
7.08302
7.76336
8.40795
9.02717
9.61018
10.1634
10.6905
11.1938
11.6769
12.1407
12.5888
13.0239
13.4518
13.8803
14.3056
14.7244
15.1424
15.557
15.9692
16.3829
16.8037
17.2396
17.6938
18.1608
18.6456
19.1517
19.6785
20.242
20.8568
21.5364
22.2898
23.1351
24.1392
25.3493
26.8653
28.867
31.6832
35.9354
42.4778
52.8365
77.8192
160.772
616.771
4585.4
18923.9
31224.5
86306.9
84370.6
744995
97592.4
1.48209e+13
58450.5
49489.2
20086.1
21413.9
11011
11073.3
48844.3
1.484e+13
1.484e+13
1.484e+13
1.484e+13
1.484e+13
1.484e+13
1.484e+13
1.484e+13
1.484e+13
1.484e+13
1.484e+13
1.484e+13
0.502128
1.43301
2.30564
3.14796
3.97598
4.79243
5.58888
6.35329
7.07806
7.75816
8.40217
9.02196
9.60551
10.16
10.6881
11.193
11.6761
12.1412
12.589
13.023
13.4455
13.8733
14.2967
14.7156
15.1328
15.5506
15.9658
16.3802
16.7972
17.2251
17.6696
18.1339
18.6171
19.1169
19.6399
20.1967
20.7936
21.4515
22.1822
22.9983
23.961
25.1071
26.5254
28.3635
30.8959
34.627
40.3793
48.9905
67.5561
121.249
367.824
2406.81
13394.5
26005.5
45783.4
712595
729933
746543
88537.9
73868
40013.2
148788
17804.6
24089.7
9661.64
21467.2
204012
1.484e+13
1.484e+13
1.484e+13
1.484e+13
1.484e+13
1.484e+13
1.484e+13
1.484e+13
1.484e+13
1.484e+13
1.484e+13
1.484e+13
0.501894
1.43233
2.30439
3.14607
3.97338
4.78914
5.58492
6.34888
7.07343
7.75283
8.39678
9.01615
9.60055
10.1556
10.685
11.1906
11.6754
12.1404
12.5893
13.0223
13.4433
13.8679
14.2883
14.7057
15.1233
15.5403
15.9592
16.3767
16.7944
17.2161
17.6512
18.1068
18.5861
19.0833
19.6074
20.1522
20.7431
21.3793
22.087
22.8752
23.7989
24.8903
26.2244
27.9277
30.2256
33.5394
38.5898
46.2212
60.3772
97.0213
240.732
1232.2
8844.13
22785.4
34243.3
60468.9
91511.8
95553.3
99223.7
292687
54164.2
51243.9
30240.8
27055.4
11465.2
12032.1
54731
1.484e+13
1.484e+13
1.484e+13
1.484e+13
1.484e+13
1.484e+13
1.484e+13
1.484e+13
1.484e+13
1.484e+13
1.484e+13
1.484e+13
1.484e+13
0.501678
1.43167
2.30322
3.1443
3.9709
4.78603
5.5811
6.34452
7.06866
7.74789
8.39126
9.01071
9.59475
10.1506
10.6807
11.1877
11.673
12.1399
12.5885
13.0224
13.4442
13.8673
14.281
14.6966
15.1127
15.5296
15.9482
16.3695
16.7903
17.2134
17.6423
18.0836
18.555
19.0505
19.5678
20.1154
20.6917
21.3156
22.0032
22.7661
23.6522
24.6943
25.9561
27.545
29.6506
32.6217
37.0893
43.8677
54.9605
81.6432
171.283
665.298
4697.4
17964.2
29514.9
48493.3
87283
91618.8
95568.4
76471.9
252568
56371.5
41301.7
17969.2
27558
9664.96
24568.9
213022
1.484e+13
1.484e+13
1.484e+13
1.484e+13
1.484e+13
1.484e+13
1.484e+13
1.484e+13
1.484e+13
1.484e+13
1.484e+13
1.484e+13
1.484e+13
0.501467
1.43107
2.30214
3.14266
3.96861
4.78299
5.57753
6.34042
7.064
7.74301
8.38575
9.00521
9.58896
10.1448
10.6759
11.1837
11.6703
12.1377
12.5881
13.0215
13.4451
13.8674
14.2786
14.6884
15.1024
15.5183
15.9366
16.358
16.7828
17.2085
17.637
18.0761
18.5312
19.0178
19.5295
20.0746
20.6456
21.2612
21.9287
22.6699
23.5202
24.5195
25.7151
27.2058
29.1505
31.8403
35.8098
41.8484
50.7552
71.1643
130.726
406.323
2555.41
13867.4
26741.5
41108.3
63298.1
95005.6
584004
74969.4
120022
132205
117608
23963.6
38277.7
11489.5
13311.6
62671.6
1.484e+13
1.484e+13
1.484e+13
1.484e+13
1.484e+13
1.484e+13
1.484e+13
1.484e+13
1.484e+13
1.484e+13
1.484e+13
1.484e+13
1.484e+13
1.484e+13
0.501278
1.43051
2.30112
3.1411
3.96647
4.7802
5.57401
6.33632
7.05954
7.73842
8.38053
8.99982
9.58333
10.139
10.6699
11.1788
11.6663
12.135
12.5861
13.0212
13.4445
13.8677
14.2782
14.686
15.0933
15.5069
15.9237
16.3452
16.7705
17.2005
17.6322
18.0685
18.5184
18.9901
19.4948
20.0328
20.6027
21.2101
21.8662
22.5882
23.4007
24.3632
25.5024
26.9034
28.7108
31.1671
34.7202
40.0958
48.0612
63.7233
105.152
270.902
1427.59
9301.09
25987.2
46043.2
131334
270372
291778
718970
103949
271572
69227.1
71043.3
24663.2
26710.1
10756.7
26600.7
220945
1.484e+13
1.484e+13
1.484e+13
1.484e+13
1.484e+13
1.484e+13
1.484e+13
1.484e+13
1.484e+13
1.484e+13
1.484e+13
1.484e+13
1.484e+13
1.484e+13
0.501075
1.42997
2.30017
3.13963
3.96443
4.77754
5.57075
6.33241
7.05523
7.73387
8.37559
8.9945
9.578
10.1334
10.6642
11.1729
11.6616
12.1312
12.5839
13.0197
13.4435
13.867
14.279
14.6857
15.0902
15.4968
15.9115
16.3312
16.7565
17.1879
17.6232
18.0636
18.5108
18.9707
19.4621
19.9892
20.556
21.1567
21.808
22.5137
23.2946
24.2214
25.3143
26.6395
28.3222
30.5812
33.7909
38.5997
45.7525
58.1889
88.3238
194.355
798.171
5430.32
20504.6
43457.9
133310
146399
97854.8
446912
113534
340297
49521.7
42039.2
33542.4
89310
11268.3
14637.8
111103
1.484e+13
1.484e+13
1.484e+13
1.484e+13
1.484e+13
1.484e+13
1.484e+13
1.484e+13
1.484e+13
1.484e+13
1.484e+13
1.484e+13
1.484e+13
1.484e+13
1.484e+13
0.500884
1.42942
2.29925
3.13828
3.9625
4.77502
5.56764
6.32874
7.05094
7.7293
8.37065
8.98922
9.57246
10.128
10.6584
11.1673
11.6558
12.1268
12.5802
13.018
13.4415
13.867
14.2784
14.6862
15.0898
15.493
15.9003
16.3173
16.7413
17.173
17.6115
18.056
18.5063
18.9654
19.441
19.9538
20.5048
21.104
21.7488
22.4458
23.208
24.0948
25.1431
26.4081
27.9871
30.0685
32.9887
37.3115
43.7772
53.8423
76.9792
148.193
491.54
3136.79
14954.7