/*--------------------------------*- C++ -*----------------------------------*\
| =========                 |                                                 |
| \\      /  F ield         | OpenFOAM: The Open Source CFD Toolbox           |
|  \\    /   O peration     | Version:  v2012                                 |
|   \\  /    A nd           | Website:  www.openfoam.com                      |
|    \\/     M anipulation  |                                                 |
\*---------------------------------------------------------------------------*/
FoamFile
{
    version     2.0;
    format      ascii;
    class       volScalarField;
    location    "13200";
    object      wallHeatFlux;
}
// * * * * * * * * * * * * * * * * * * * * * * * * * * * * * * * * * * * * * //

dimensions      [1 0 -3 0 0 0 0];


internalField   uniform 0;

boundaryField
{
    base
    {
        type            calculated;
        value           nonuniform List<scalar> 
398
(
-653671
-119992
-71429.8
-65118
-66494.1
-67183.9
-67594
-67349.6
-66737.8
-65786.1
-64774.2
-63771.9
-62828.8
-61891.8
-61023
-60227.9
-59496.2
-58795.8
-58104.8
-57408.2
-56809.8
-56295.7
-55686.1
-55162.3
-54660.4
-54188.5
-53718.3
-53267.5
-52826.4
-52425
-52022.1
-51679.1
-51298.7
-50913.7
-50575.4
-50261.8
-50009.8
-49724.6
-49389
-49061
-48801.8
-48626.9
-48428.5
-48176.3
-47906.9
-47646.1
-47417.4
-47241.8
-47141.2
-47045.1
-46923.3
-46737.1
-46485.7
-46250.9
-46039.5
-45876.8
-45761.8
-45696.8
-45669
-45612.3
-45531.9
-45429.5
-45314.5
-45185.2
-45066.8
-44951.5
-44858.5
-44790.8
-44735.8
-44687.1
-44644.3
-44607.5
-44576.8
-44545.3
-44512.6
-44471.9
-44427.3
-44382.8
-44328
-44273.6
-44208.5
-44144.1
-44084.5
-44020.6
-43961.2
-43908.1
-43854.4
-43801
-43753
-43710.3
-43673
-43641.1
-43608.8
-43582.9
-43561.3
-43540
-42896.8
-37219.1
-31851
-47932.7
-62173.5
-70768.5
-76600.4
-81685.1
-86139
-89832.2
-93215.3
-96315
-99242.3
-101972
-104503
-106779
-108788
-110536
-112050
-113372
-114556
-115671
-116773
-117926
-119151
-120482
-121919
-123468
-125120
-126865
-128724
-130716
-132797
-134987
-137328
-139877
-142541
-145056
-147724
-150528
-153432
-156429
-159541
-162715
-165972
-169272
-172488
-175348
-177003
-175636
-167643
-145960
-94415.4
-66961.6
-80275.6
-95914.9
-107212
-116680
-125638
-134032
-141608
-148300
-154185
-159384
-164034
-168340
-172339
-176076
-179680
-183161
-186606
-190036
-193413
-196848
-200341
-203847
-207444
-211152
-214993
-218935
-223007
-227281
-231678
-236275
-241049
-246056
-251320
-256852
-262659
-268763
-275254
-282045
-289256
-296876
-304911
-313529
-322573
-332216
-342550
-353482
-365292
-377870
-391375
-405848
-421247
-437810
-456424
-476196
-496164
-519411
-546026
-574233
-606339
-642242
-680410
-722690
-765332
-808421
-850203
-892354
-933812
-975313
-1.01616e+06
-1.06122e+06
-1.1063e+06
-1.15217e+06
-1.20187e+06
-1.25478e+06
-1.30869e+06
-1.36641e+06
-1.43257e+06
-1.47892e+06
-1.5327e+06
-1.5953e+06
-1.63716e+06
-1.66874e+06
-1.70501e+06
-1.73402e+06
-1.7562e+06
-1.78297e+06
-1.78173e+06
-1.79373e+06
-1.79962e+06
-1.77412e+06
-1.7476e+06
-1.71144e+06
-1.72679e+06
-1.67273e+06
-1.6242e+06
-1.59332e+06
-1.56806e+06
-1.54441e+06
-1.51878e+06
-1.49544e+06
-1.46288e+06
-1.46142e+06
-1.42682e+06
-1.40298e+06
-1.38486e+06
-1.36942e+06
-1.35721e+06
-1.34388e+06
-1.34419e+06
-1.33213e+06
-1.31663e+06
-1.32015e+06
-1.32626e+06
-1.31099e+06
-1.31285e+06
-1.31242e+06
-1.30464e+06
-1.31075e+06
-1.29328e+06
-1.29172e+06
-1.29207e+06
-1.293e+06
-1.3014e+06
-1.28654e+06
-1.31549e+06
-1.31902e+06
-1.29543e+06
-1.28523e+06
-1.28451e+06
-1.2777e+06
-1.2765e+06
-1.27524e+06
-1.28473e+06
-1.29543e+06
-1.28627e+06
-1.30845e+06
-1.28062e+06
-1.32663e+06
-1.28684e+06
-1.28782e+06
-1.29653e+06
-1.26178e+06
-1.30644e+06
-1.26273e+06
-1.34742e+06
-1.69574e+06
-1.59544e+06
-1.19972e+06
-1.19735e+06
-1.2433e+06
-1.87799e+06
-1.26462e+06
-1.75778e+06
-1.92604e+06
-1.69451e+06
-1.50281e+06
-1.29959e+06
-1.25501e+06
-1.23127e+06
-1.20278e+06
-1.20487e+06
-1.21369e+06
-1.60461e+06
-2.38725e+06
-1.68478e+06
-1.63177e+06
-2.29374e+06
-1.03512e+06
-1.53519e+06
-3.78542e+06
-1.60491e+06
-2.00731e+06
-1.90053e+06
-1.89823e+06
-1.96924e+06
-1.72709e+06
-1.76433e+06
-1.87384e+06
-1.77066e+06
-2.21314e+06
-1.9707e+06
-934941
-998636
-1.63887e+06
-998330
-1.97471e+06
-987422
-1.86577e+06
-1.758e+06
-2.39478e+06
-1.9801e+06
-2.14656e+06
-942735
-1.55689e+06
-1.56072e+06
-1.9902e+06
-1.60562e+06
-958822
-1.65323e+06
-934274
-1.6809e+06
-2.32004e+06
-1.63618e+06
-1.94884e+06
-2.2438e+06
-1.44122e+06
-1.60775e+06
-1.17823e+06
-2.05751e+06
-1.44242e+06
-1.43261e+06
-2.2561e+06
-1.80735e+06
-1.85746e+06
-885632
-1.97749e+06
-1.43647e+06
-1.16776e+06
-2.65398e+06
-1.02934e+06
-1.46054e+06
-2.07835e+06
-1.38283e+06
-1.73802e+06
-1.4303e+06
-890165
-1.65922e+06
-1.71596e+06
-2.14089e+06
-843692
-1.62306e+06
-1.90934e+06
-1.50194e+06
-1.86077e+06
-1.29754e+06
-1.69754e+06
-1.72498e+06
-1.68089e+06
-1.55952e+06
-1.5865e+06
-1.46807e+06
-1.97353e+06
-1.00303e+06
-1.12708e+06
-893313
-1.34856e+06
-2.06766e+06
-1.30428e+06
)
;
    }
    frontAndBack
    {
        type            empty;
    }
    inlet
    {
        type            calculated;
        value           uniform 0;
    }
    outlet
    {
        type            calculated;
        value           uniform 0;
    }
    top
    {
        type            calculated;
        value           uniform 0;
    }
}


// ************************************************************************* //
