/*--------------------------------*- C++ -*----------------------------------*\
| =========                 |                                                 |
| \\      /  F ield         | OpenFOAM: The Open Source CFD Toolbox           |
|  \\    /   O peration     | Version:  v2012                                 |
|   \\  /    A nd           | Website:  www.openfoam.com                      |
|    \\/     M anipulation  |                                                 |
\*---------------------------------------------------------------------------*/
FoamFile
{
    version     2.0;
    format      ascii;
    class       volScalarField;
    location    "13200";
    object      xx;
}
// * * * * * * * * * * * * * * * * * * * * * * * * * * * * * * * * * * * * * //

dimensions      [0 0 0 0 0 0 0];


internalField   nonuniform List<scalar> 
39402
(
0.00328513
0.000145002
0.002507
3.56881e-05
0.000125742
0.00169989
3.23827e-05
3.06906e-05
0.00013448
0.0011294
3.63424e-05
6.49265e-05
3.13466e-05
0.000168709
0.000861554
4.09414e-05
0.000106598
0.000644168
4.9096e-05
0.000227065
0.000802897
4.4421e-05
0.000135768
0.00125619
0.00374127
0.000106694
0.000297649
0.0008423
4.67804e-05
0.000156592
0.00166466
0.0073724
0.0132975
0.000228023
0.000367197
0.000939946
4.77375e-05
0.000169801
0.00195266
0.00980158
0.026172
0.0342486
0.000426049
0.000427483
0.00107914
4.78498e-05
0.000175839
0.00213624
0.0115011
0.034772
0.0671636
0.0703001
0.000695418
0.0004764
0.00125334
4.7481e-05
0.000177619
0.00222324
0.0125974
0.0407128
0.088985
0.137331
0.122073
0.000973456
0.000516658
0.00146749
4.68189e-05
0.000176938
0.00225379
0.0131262
0.0445658
0.103776
0.181343
0.238016
0.184654
0.00124118
0.00055466
0.00169292
4.60013e-05
0.000174872
0.00225093
0.0133283
0.046449
0.113354
0.210532
0.313717
0.365237
0.244816
0.00153229
0.000598776
0.00194392
4.5053e-05
0.000171963
0.00222889
0.013333
0.0472146
0.118082
0.229305
0.362933
0.482076
0.490766
0.31066
0.00185792
0.000647285
0.00224993
4.4127e-05
0.000168343
0.00219471
0.0132223
0.0472959
0.120104
0.238652
0.394325
0.556948
0.659472
0.629484
0.382533
0.00225916
0.000698721
0.00261698
4.32389e-05
0.000164831
0.00215001
0.0130347
0.0469723
0.120457
0.242839
0.410109
0.604369
0.766303
0.858235
0.782768
0.46308
0.00287867
0.000759693
0.00305141
4.23658e-05
0.00016137
0.0021062
0.0127832
0.0463734
0.11982
0.2438
0.417449
0.628507
0.833129
1.00442
1.08144
0.953364
0.566214
0.00372862
0.000840771
0.00356228
4.14975e-05
0.000157881
0.00206231
0.0125331
0.0455479
0.11849
0.242889
0.419536
0.640142
0.8678
1.09657
1.2758
1.32955
1.15074
0.722414
0.00433203
0.0009531
0.00416718
4.06149e-05
0.00015441
0.00201726
0.0122794
0.0447115
0.116603
0.24062
0.418563
0.644026
0.885136
1.14459
1.39984
1.58118
1.60501
1.3857
0.921765
0.0047533
0.00110921
0.00489213
3.96574e-05
0.00015082
0.00197233
0.0120169
0.0438557
0.114661
0.237279
0.415344
0.643383
0.892357
1.16994
1.46499
1.74425
1.91904
1.89246
1.59465
1.06338
0.00477986
0.00132433
0.00576647
3.88439e-05
0.000146844
0.00192545
0.0117527
0.0429621
0.112649
0.233785
0.410412
0.639428
0.89342
1.18104
1.50115
1.83197
2.12753
2.281
2.18911
1.79585
1.18781
0.00436144
0.00161989
0.00678351
3.81944e-05
0.000143587
0.00187359
0.011477
0.0420559
0.110529
0.23012
0.405144
0.632985
0.890141
1.18381
1.51758
1.88201
2.24506
2.54657
2.66448
2.48886
1.99094
1.27414
0.00366277
0.00199637
0.00789657
3.73495e-05
0.000140977
0.00183087
0.0111724
0.0411067
0.108361
0.22622
0.399552
0.62596
0.883615
1.1807
1.52275
1.90576
2.31244
2.70298
2.99932
3.06246
2.78465
2.18305
1.30418
0.00294307
0.00246297
0.00890841
3.6642e-05
0.000137424
0.0017963
0.0109192
0.0400599
0.106082
0.222204
0.393535
0.618391
0.876222
1.17329
1.52013
1.91466
2.34637
2.79337
3.2034
3.47915
3.46476
3.06758
2.38411
1.26332
0.00244581
0.0030597
0.00962806
3.59504e-05
0.000134571
0.00174949
0.0107111
0.0391828
0.103565
0.21795
0.387293
0.610155
0.868045
1.16455
1.51197
1.9132
2.36103
2.84145
3.32432
3.74211
3.97633
3.85898
3.33279
2.61576
1.14249
0.00225499
0.00380079
0.00998465
3.53051e-05
0.000131711
0.00171208
0.0104351
0.0384533
0.101444
0.213253
0.380637
0.601529
0.858909
1.15469
1.50179
1.90465
2.36207
2.86438
3.39169
3.90265
4.31118
4.47859
4.23181
3.57649
2.88649
0.94426
0.00237636
0.00464786
0.010146
3.46579e-05
0.000129066
0.0016742
0.0102123
0.0374978
0.0996578
0.209268
0.373273
0.592279
0.849201
1.14351
1.49
1.89323
2.35408
2.8697
3.42664
3.99601
4.52302
4.90099
4.97127
4.57209
3.80038
2.97205
0.694479
0.00275173
0.00551741
0.0101968
3.40686e-05
0.00012642
0.0016394
0.00998732
0.0367199
0.097341
0.205879
0.367003
0.582021
0.838631
1.13143
1.47643
1.87954
2.34213
2.86349
3.43876
4.04776
4.65136
5.17804
5.49885
5.44042
4.87038
4.01915
2.83134
0.445562
0.00332764
0.00637625
0.0101561
3.34632e-05
0.000124033
0.00160471
0.00978026
0.0359362
0.09544
0.20151
0.361626
0.573265
0.826787
1.1182
1.46171
1.86348
2.32702
2.85167
3.43625
4.07042
4.72652
5.35255
5.85745
6.08863
5.86796
5.13011
4.27947
2.54809
0.250328
0.00402884
0.00718424
0.0100434
3.2925e-05
0.000121532
0.00157351
0.0095745
0.0352129
0.0935238
0.197899
0.354706
0.565693
0.816776
1.10337
1.44538
1.84591
2.3087
2.8358
3.42604
4.0745
4.76469
5.46007
6.09255
6.5477
6.65152
6.23992
5.36106
4.6031
2.11798
0.126619
0.00478546
0.00776738
0.00983907
3.23831e-05
0.000119331
0.00154087
0.0093894
0.0344949
0.091751
0.194255
0.348963
0.555968
0.808089
1.0908
1.42706
1.82631
2.2883
2.81555
3.41028
4.06779
4.77876
5.52057
6.24302
6.86024
7.23276
7.17015
6.55335
5.58729
4.56047
1.57791
0.0597234
0.00548931
0.0083446
0.00957052
3.19526e-05
0.000117117
0.00151216
0.00919686
0.0338473
0.0899899
0.190874
0.343154
0.547859
0.796714
1.07984
1.4114
1.80408
2.26538
2.79262
3.38888
4.05357
4.77851
5.54938
6.33388
7.06808
7.64087
7.8929
7.62516
6.81133
5.85507
4.17984
1.03512
0.027121
0.00618255
0.00884942
0.00929205
3.14793e-05
0.00011539
0.00148346
0.00902749
0.0331779
0.0884
0.187513
0.337745
0.539639
0.787318
1.06553
1.39779
1.78507
2.2391
2.76636
3.36369
4.03218
4.76817
5.5594
6.38455
7.19984
7.92477
8.41915
8.50419
8.00214
7.03663
6.20833
3.58347
0.60188
0.0131792
0.00685366
0.00920875
0.00906002
3.09741e-05
0.000113449
0.00146126
0.0088593
0.0325892
0.0867575
0.18447
0.332366
0.531977
0.777709
1.05359
1.37997
1.76844
2.21656
2.736
3.33427
4.00556
4.74838
5.55602
6.41026
7.28085
8.11166
8.79581
9.17281
9.0429
8.30282
7.27484
6.23013
2.79218
0.313639
0.00831176
0.00747081
0.00942939
0.00890287
3.05359e-05
0.00011139
0.00143639
0.00872829
0.0320043
0.085312
0.181322
0.327477
0.524337
0.768767
1.0414
1.365
1.74676
2.19686
2.70994
3.3
3.97364
4.72183
5.54034
6.41801
7.32957
8.23411
9.05604
9.66581
9.8742
9.49112
8.54616
7.61518
5.70078
1.92144
0.14072
0.00699004
0.0078906
0.00952467
0.00880067
3.01569e-05
0.000109651
0.00141024
0.00858389
0.0315483
0.0838769
0.178548
0.322421
0.517392
0.759835
1.03002
1.34977
1.72844
2.17107
2.68696
3.27034
3.93564
4.68844
5.51579
6.40943
7.35396
8.31265
9.23246
10.0157
10.5094
10.4949
9.84213
8.78002
8.07719
4.9002
1.18874
0.0564463
0.00689855
0.00820018
0.00955382
0.00869206
2.98309e-05
0.000108136
0.00138838
0.00843282
0.0310496
0.0827547
0.175799
0.317955
0.510179
0.751747
1.01867
1.33546
1.7098
2.14908
2.6567
3.24396
3.90252
4.64745
5.48238
6.38923
7.35689
8.3596
9.35311
10.2657
10.9755
11.2945
11.0112
10.1043
9.08
7.77949
3.81509
0.626901
0.0230512
0.00718236
0.00840594
0.00944355
0.00875045
2.95061e-05
0.000106827
0.00136942
0.00830725
0.0305306
0.0815325
0.173639
0.313527
0.503789
0.742248
1.00833
1.32127
1.69223
2.12675
2.63083
3.20936
3.87332
4.61153
5.43966
6.35831
7.34479
8.3808
9.43308
10.4431
11.3191
11.9055
11.9942
11.4065
10.3265
9.52482
7.00599
2.7192
0.28775
0.0116829
0.00755361
0.00857607
0.00932466
0.00897716
2.91248e-05
0.00010555
0.00135303
0.00819871
0.0301012
0.0802689
0.171297
0.310039
0.49746
0.733803
0.997534
1.30829
1.67477
2.10575
2.60467
3.17961
3.83441
4.57963
5.40159
6.31531
7.31883
8.38194
9.47967
10.5681
11.5669
12.363
12.7738
12.5771
11.6927
10.5913
9.78472
5.89431
1.68728
0.114077
0.00827236
0.00788463
0.00877723
0.00925271
0.00890147
2.8724e-05
0.000104021
0.00133755
0.00810529
0.0297311
0.0792254
0.168882
0.306266
0.492475
0.725475
0.987946
1.29503
1.65892
2.0847
2.57976
3.1492
3.80055
4.53673
5.36784
6.27653
7.27791
8.36502
9.49916
10.6474
11.7508
12.7072
13.377
13.5441
13.0206
11.9153
11.044
9.04928
4.49558
0.868242
0.0420811
0.00748482
0.0080734
0.009083
0.00899067
0.00889402
2.84228e-05
0.000102439
0.00131895
0.00801878
0.0294144
0.078328
0.166891
0.30238
0.487076
0.71889
0.978438
1.28321
1.64267
2.06546
2.555
3.12031
3.76594
4.49901
5.3215
6.24226
7.24047
8.33013
9.498
10.6946
11.8743
12.9665
13.8418
14.322
14.1856
13.3286
12.171
11.6762
7.97003
3.15003
0.38254
0.0176717
0.0074966
0.00837543
0.00919204
0.00880729
0.00889846
2.82244e-05
0.000101311
0.00129981
0.00791523
0.0291238
0.0775673
0.165184
0.299189
0.481528
0.711756
0.970993
1.2715
1.62817
2.04587
2.53222
3.0916
3.73311
4.46067
5.28071
6.19387
7.20698
8.29643
9.47219
10.7136
11.9611
13.1545
14.1945
14.9376
15.1599
14.6683
13.5483
12.6124
11.014
6.46697
1.87826
0.147087
0.0101178
0.0077663
0.00861091
0.00901398
0.00869111
0.00890352
2.80169e-05
0.000100571
0.00128663
0.00780901
0.0287777
0.0768674
0.163754
0.296462
0.476988
0.704442
0.962863
1.26246
1.61398
2.02849
2.50912
3.06513
3.7002
4.42373
5.23872
6.15066
7.15831
8.26601
9.44577
10.7038
12.0065
13.2874
14.4627
15.4135
15.9526
15.8505
14.9917
13.7887
13.2421
9.89696
4.88214
0.90187
0.0530738
0.00808506
0.00796315
0.0086442
0.00887864
0.00858281
0.00890685
2.77479e-05
9.97566e-05
0.00127822
0.00773747
0.0284241
0.0760389
0.162423
0.294194
0.473117
0.698485
0.954559
1.25247
1.60286
2.0115
2.48867
3.03842
3.66999
4.38655
5.19808
6.10563
7.11407
8.21919
9.42171
10.6895
12.0203
13.3743
14.6609
15.7804
16.5859
16.8457
16.3588
15.2074
14.2163
12.9014
8.35066
3.2266
0.373187
0.0211711
0.00769809
0.00803503
0.00863553
0.00875766
0.00848743
0.00890837
2.74776e-05
9.86927e-05
0.00126897
0.00769344
0.0281911
0.0751972
0.160859
0.292062
0.469904
0.693409
0.947871
1.24223
1.59068
1.99813
2.4685
3.01461
3.63949
4.35288
5.15719
6.06198
7.06708
8.17525
9.37828
10.6741
12.0264
13.4167
14.8012
16.0657
17.0845
17.6629
17.5734
16.6902
15.4305
14.8712
11.727
6.58814
1.73749
0.139058
0.011305
0.00767275
0.00808233
0.00862979
0.00861551
0.00842112
0.00890813
2.72161e-05
9.76681e-05
0.00125662
0.00764482
0.0280531
0.0746539
0.159279
0.289572
0.466889
0.68923
0.94217
1.23408
1.57813
1.98356
2.45283
2.99111
3.61223
4.31842
5.11975
6.01815
7.02092
8.12739
9.335
10.6344
12.0263
13.4503
14.8889
16.2736
17.4751
18.3266
18.6025
18.098
16.8973
15.8542
14.7366
10.1321
4.65648
0.763251
0.0500434
0.00850082
0.00765061
0.00816843
0.00862133
0.00850944
0.0086616
0.00890835
2.69639e-05
9.66757e-05
0.0012452
0.00758004
0.0278997
0.0743479
0.158278
0.287064
0.46336
0.685293
0.937569
1.22716
1.56822
1.96845
2.43578
2.97285
3.58535
4.28758
5.08174
5.97711
6.97435
8.07948
9.28594
10.5902
11.9819
13.4695
14.9564
16.425
17.7782
18.8526
19.459
19.3568
18.4218
17.1027
16.5524
13.4711
8.20434
2.7203
0.297704
0.0201897
0.00772523
0.00767492
0.00823409
0.00868566
0.00864343
0.00856774
0.00890871
2.67565e-05
9.57109e-05
0.00123402
0.00752095
0.0276945
0.074001
0.157746
0.285507
0.45983
0.680676
0.933215
1.22151
1.55994
1.95651
2.41799
2.95287
3.56427
4.25705
5.04706
5.93528
6.93012
8.02972
9.23581
10.5346
11.9406
13.435
15.0114
16.5388
17.997
19.2705
20.1616
20.4337
19.8822
18.6064
17.5444
16.5086
11.7871
6.01264
1.27859
0.107973
0.0109219
0.00753194
0.00772975
0.00834968
0.00872835
0.00846421
0.00855019
0.00890902
2.66338e-05
9.49475e-05
0.00122321
0.00746317
0.0275092
0.0735331
0.157128
0.284734
0.457688
0.676082
0.928034
1.21625
1.55316
1.94666
2.40401
2.9324
3.54144
4.23312
5.01313
5.89731
6.88483
7.98198
9.18119
10.4788
11.8884
13.4038
14.9961
16.6348
18.1778
19.5846
20.7192
21.3402
21.1905
20.1874
18.8066
18.2918
15.1232
9.64751
3.74288
0.515447
0.0391413
0.00830086
0.00749197
0.00783803
0.00847868
0.00867235
0.00831921
0.00854061
0.00890906
2.65591e-05
9.45438e-05
0.00121502
0.0074075
0.0273291
0.073113
0.156281
0.283797
0.456675
0.673354
0.922919
1.20994
1.54675
1.93868
2.39235
2.91614
3.51788
4.20757
4.98672
5.86036
6.84415
7.9332
9.12857
10.421
11.8346
13.3587
14.9808
16.6621
18.3256
19.8497
21.1689
22.0892
22.3334
21.7022
20.3447
19.2829
18.2028
13.3184
7.23107
1.84735
0.190242
0.0166416
0.00760615
0.00750339
0.00802052
0.00853358
0.00852722
0.00823962
0.00853384
0.00890911
2.64577e-05
9.43313e-05
0.00121135
0.00736738
0.0271574
0.0727076
0.155521
0.2825
0.455413
0.672141
0.920064
1.20384
1.53912
1.93108
2.38291
2.90256
3.4991
4.18069
4.95828
5.8315
6.8041
7.88892
9.07294
10.3668
11.7776
13.3101
14.9477
16.67
18.4258
20.0746
21.5332
22.6892
23.304
23.0834
21.9686
20.545
20.0847
16.658
10.9828
4.67496
0.763953
0.0674094
0.00984775
0.00745121
0.00759006
0.00816549
0.00856673
0.00837832
0.00833889
0.00853051
0.0089092
2.62963e-05
9.39684e-05
0.00121018
0.00735284
0.0270394
0.0723254
0.154797
0.281335
0.453645
0.670579
0.918977
1.20047
1.53164
1.92198
2.37408
2.89156
3.48362
4.15956
4.92813
5.80037
6.77285
7.84504
9.02279
10.3089
11.7234
13.2564
14.9087
16.6557
18.4669
20.2383
21.8464
23.192
24.093
24.2909
23.5493
22.0884
21.0745
19.8134
14.6888
8.33111
2.37989
0.285481
0.0255717
0.00797734
0.00745441
0.00771413
0.00828235
0.00852709
0.00834756
0.00828457
0.0085292
0.00890917
2.60662e-05
9.33321e-05
0.00120698
0.00735284
0.0270097
0.0720786
0.154123
0.280238
0.452056
0.668345
0.917383
1.19928
1.52772
1.91296
2.36343
2.88133
3.47141
4.14204
4.90458
5.76735
6.73946
7.81108
8.97298
10.2564
11.6643
13.2045
14.8621
16.632
18.48
20.3624
22.0881
23.619
24.7706
25.3259
25.0041
23.7559
22.3065
21.9471
18.062
12.2083
5.48829
1.00104
0.100949
0.0124499
0.00752369
0.00750343
0.00784002
0.00834691
0.00854644
0.0081765
0.00826548
0.00852858
0.00890923
2.58303e-05
9.23782e-05
0.00120028
0.00734137
0.0270295
0.0720527
0.15372
0.27924
0.45058
0.666344
0.914922
1.1974
1.52637
1.90838
2.35283
2.86905
3.4596
4.12865
4.88539
5.74095
6.70325
7.77476
8.93548
10.204
11.6107
13.1462
14.8154
16.597
18.4791
20.4142
22.2959
23.9597
25.3439
26.2125
26.3067
25.4149
23.8435
22.941
21.3219
15.8622
9.27519
2.83802
0.376891
0.0364576
0.00867112
0.00744415
0.00756389
0.00797605
0.00844835
0.00841729
0.0081009
0.00825571
0.0085283
0.00890917
2.56111e-05
9.14453e-05
0.00118944
0.00731009
0.0270103
0.0721431
0.153753
0.278686
0.449251
0.664509
0.91282
1.19466
1.52431
1.907
2.34772
2.85703
3.44564
4.11585
4.87061
5.72029
6.67468
7.73553
8.89339
10.1651
11.5566
13.0929
14.7603
16.5599
18.4626
20.4459
22.4466
24.2553
25.8092
26.9697
27.4435
26.9641
25.5652
24.1148
23.8913
19.3135
13.1748
6.11061
1.19793
0.13339
0.0157195
0.00768626
0.00744327
0.00761841
0.00813985
0.0085234
0.00825539
0.00810779
0.00825178
0.00852814
0.00890919
2.54319e-05
9.06117e-05
0.00117878
0.00725484
0.0269241
0.0721369
0.153995
0.278853
0.448588
0.662886
0.910979
1.19217
1.52108
1.90475
2.34652
2.85111
3.43203
4.10022
4.85693
5.7048
6.65227
7.70481
8.84889
10.1208
11.5173
13.0388
14.7101
16.5118
18.4401
20.4559
22.5232
24.4987
26.2153
27.6034
28.4251
28.372
27.2977
25.6424
24.8902
22.7036
16.8334
10.0132
3.141
0.45109
0.0470603
0.00958126
0.00746349
0.0074685
0.00776124
0.0083135
0.00846515
0.00812743
0.00806806
0.0082503
0.00852813
0.0089092
2.53063e-05
8.99586e-05
0.00116933
0.00719938
0.0267538
0.0719676
0.154053
0.27935
0.44898
0.66217
0.909395
1.18995
1.51816
1.90073
2.34386
2.84992
3.42541
4.08453
4.83962
5.68954
6.63547
7.67999
8.81461
10.0734
11.4716
13.0006
14.6578
16.4676
18.404
20.4554
22.5703
24.6909
26.5642
28.1416
29.2561
29.6178
28.9516
27.3975
26.0252
25.861
20.405
13.9205
6.50674
1.3165
0.159093
0.0189267
0.0079176
0.00742916
0.00755285
0.00795519
0.00834111
0.0083743
0.00796622
0.00805212
0.00824975
0.00852813
0.00890916
2.52352e-05
8.95338e-05
0.00116226
0.00715042
0.0265795
0.0715891
0.153789
0.279533
0.449821
0.662861
0.908881
1.18823
1.5156
1.89754
2.33929
2.84719
3.42439
4.07754
4.82191
5.67043
6.61874
7.66124
8.78645
10.0373
11.422
12.9543
14.6224
16.4201
18.3699
20.4375
22.6013
24.794
26.8568
28.6117
29.9746
30.6899
30.4744
29.1926
27.4904
26.9198
23.9481
17.6108
10.5256
3.27485
0.493318
0.0554185
0.0104756
0.00750749
0.00746512
0.00766547
0.00806249
0.00841338
0.00818449
0.00796714
0.00804594
0.00824954
0.00852812
0.00890917
2.52132e-05
8.93438e-05
0.00115802
0.00711539
0.0264277
0.0711947
0.153118
0.279192
0.450198
0.664144
0.910074
1.18781
1.51363
1.89476
2.33576
2.84249
3.42189
4.07699
4.81429
5.65125
6.59783
7.64201
8.76556
10.0077
11.3846
12.9033
14.5774
16.3902
18.3312
20.4195
22.6102
24.8685
27.0927
29.0217
30.5907
31.6321
31.8278
30.9405
29.2251
27.9911
27.2788
21.3262
14.4515
6.6581
1.35216
0.173259
0.0214436
0.00813653
0.00744189
0.00751758
0.00773416
0.00823098
0.00834498
0.00804092
0.00791069
0.00804413
0.00824953
0.0085281
0.0089092
2.518e-05
8.93624e-05
0.00115698
0.00709629
0.0263233
0.0708567
0.152413
0.278177
0.449803
0.664783
0.91189
1.18948
1.51338
1.89248
2.33281
2.83852
3.41683
4.07482
4.81417
5.64263
6.57704
7.61823
8.74545
9.98634
11.3542
12.8656
14.5264
16.3486
18.3101
20.3948
22.6158
24.9149
27.2414
29.3612
31.1341
32.4433
33.0292
32.5785
31.0584
29.3648
28.9856
25.0094
18.1656
10.7827
3.2354
0.50162
0.0597412
0.0111627
0.00756717
0.00747939
0.00755742
0.00792404
0.00826112
0.00830224
0.00785654
0.0078927
0.00804357
0.00824948
0.00852817
0.00890919
2.51266e-05
8.93281e-05
0.00115864
0.00709626
0.0262739
0.0706346
0.151813
0.277105
0.448436
0.664368
0.912841
1.19194
1.51565
1.89248
2.33027
2.83508
3.41238
4.06916
4.81261
5.64316
6.56762
7.59453
8.71999
9.96563
11.3329
12.8354
14.4894
16.2994
18.275
20.3866
22.611
24.9538
27.3391
29.6543
31.6096
33.145
34.082
34.0744
32.9158
31.0395
30.0545
28.5161
22.0758
14.7
6.53071
1.30778
0.174447
0.0226357
0.008317
0.00748335
0.00751012
0.00767502
0.00802789
0.0083712
0.00807508
0.00782475
0.00788702
0.00804344
0.00824949
0.00852813
0.00890917
2.50408e-05
8.9172e-05
0.00115938
0.00711177
0.0262914
0.0705488
0.151446
0.276211
0.446992
0.662651
0.912508
1.19327
1.51894
1.8956
2.33044
2.83242
3.40842
4.06395
4.80682
5.6422
6.56835
7.5843
8.69464
9.93888
11.3121
12.8148
14.4603
16.265
18.23
20.3619
22.6222
24.9777
27.4238
29.8633
32.0206
33.7753
35.003
35.3973
34.6808
32.9362
31.3152
31.1607
25.8457
18.5867
10.6898
3.04097
0.47809
0.0595684
0.0114567
0.00762895
0.00748546
0.0075618
0.00772925
0.00819086
0.00823781
0.00789868
0.00777706
0.00788559
0.00804344
0.0082495
0.00852812
0.00890916
2.49439e-05
8.88688e-05
0.00115847
0.0071216
0.0263624
0.0706294
0.151337
0.275699
0.445808
0.660847
0.91056
1.19297
1.5207
1.89976
2.33454
2.83283
3.40583
4.05984
4.80111
5.63662
6.56725
7.58388
8.68442
9.9121
11.2845
12.7946
14.442
16.2388
18.2008
20.3246
22.6126
25.0155
27.487
30.0088
32.3747
34.3278
35.8173
36.5836
36.2984
34.8538
32.9302
32.2255
29.4742
22.6117
14.671
6.11985
1.19915
0.164192
0.0224331
0.00838386
0.00748981
0.00751306
0.00758627
0.00789423
0.00821943
0.00817894
0.00776549
0.00776328
0.00788524
0.00804344
0.00824957
0.00852817
0.00890916
2.48344e-05
8.84917e-05
0.00115546
0.00712098
0.0264132
0.0708413
0.151563
0.275616
0.445192
0.659419
0.90856
1.19072
1.52038
1.90207
2.33977
2.83787
3.40688
4.05738
4.79703
5.63122
6.56168
7.58044
8.68503
9.90214
11.2566
12.7669
14.4235
16.224
18.1795
20.3035
22.5881
25.0278
27.561
30.1248
32.6639
34.8243
36.5339
37.6327
37.78
36.7234
34.7808
33.4189
32.9092
26.2931
18.826
10.2073
2.72359
0.430777
0.0557122
0.0113756
0.00762907
0.00748178
0.00751923
0.00765635
0.00803769
0.00830387
0.00794769
0.00769374
0.00775979
0.00788524
0.00804348
0.00824955
0.00852815
0.00890917
2.47164e-05
8.80313e-05
0.00115129
0.00710789
0.0264248
0.0710013
0.152032
0.276079
0.445191
0.658743
0.907148
1.1884
1.51778
1.90185
2.3429
2.84474
3.41289
4.05921
4.79441
5.62713
6.5568
7.5737
8.68213
9.90426
11.2475
12.7384
14.3963
16.2088
18.1704
20.2906
22.5794
25.0218
27.6038
30.2467
32.8694
35.2613
37.1797
38.5607
39.1021
38.4954
36.7453
34.862
34.4792
30.1194
22.5823
14.4621
5.468
1.04481
0.145969
0.0211347
0.0083573
0.00748548
0.00749218
0.00757178
0.00779882
0.00817449
0.00818422
0.00772417
0.00766363
0.00775909
0.00788527
0.00804353
0.00824959
0.00852818
0.00890917
2.45885e-05
8.7509e-05
0.00114591
0.00708717
0.026392
0.0710587
0.152405
0.276932
0.445989
0.658896
0.906618
1.18679
1.5152
1.89886
2.34281
2.8488
3.42144
4.06673
4.79689
5.62402
6.55268
7.56909
8.67551
9.90221
11.2517
12.7309
14.3682
16.1834
18.1601
20.2897
22.5783
25.0312
27.6243
30.3313
33.054
35.6126
37.7632
39.3859
40.2986
40.1283
38.7136
36.6341
35.63
33.8211
26.4776
18.5027
9.39006
2.31879
0.367888
0.0492718
0.0109768
0.00763087
0.00748092
0.00753047
0.00764641
0.00794123
0.00823119
0.00797912
0.00764012
0.00765633
0.00775901
0.00788531
0.00804356
0.00824962
0.00852817
0.0089092
2.44629e-05
8.69358e-05
0.00113944
0.00705888
0.0263303
0.0710029
0.152558
0.277619
0.447333
0.660126
0.907146
1.18643
1.51323
1.89589
2.33929
2.84909
3.42674
4.07728
4.80667
5.62736
6.54948
7.56554
8.67152
9.89607
11.251
12.7378
14.3633
16.1569
18.1384
20.2871
22.5896
25.0473
27.6588
30.3884
33.194
35.9476
38.2735
40.1328
41.3556
41.6166
40.6242
38.6136
36.944
36.848
30.4834
22.3065
13.7832
4.64337
0.863853
0.122607
0.0190375
0.00824513
0.00748006
0.00750448
0.00755488
0.00769978
0.00807974
0.00811516
0.00774758
0.00758181
0.00765507
0.007759
0.00788538
0.0080436
0.00824966
0.00852823
0.00890922
2.43493e-05
8.63749e-05
0.0011322
0.00702322
0.0262409
0.0708705
0.152484
0.27792
0.448414
0.662054
0.90898
1.18733
1.51297
1.8938
2.3358
2.84509
3.42761
4.08435
4.81998
5.63928
6.55351
7.56237
8.66851
9.89284
11.2456
12.7389
14.3739
16.1556
18.1149
20.2712
22.5976
25.075
27.6984
30.4574
33.3008
36.167
38.7472
40.8211
42.3174
42.9726
42.4149
40.6418
38.558
37.9697
34.3315
26.498
17.7559
8.23252
1.87175
0.296955
0.0413118
0.0103422
0.00757937
0.00747665
0.00751905
0.00759244
0.00783565
0.00809809
0.00801028
0.0076077
0.00756917
0.00765489
0.00775908
0.0078854
0.00804365
0.00824967
0.0085282
0.00890922
2.42431e-05
8.58529e-05
0.0011249
0.00698237
0.026123
0.0706665
0.152259
0.277854
0.448915
0.6636
0.91165
1.18984
1.51428
1.89358
2.3336
2.84092
3.42323
4.08565
4.82896
5.65512
6.5667
7.5657
8.66583
9.89069
11.2435
12.735
14.3777
16.1712
18.1189
20.2524
22.5903
25.0978
27.7486
30.5289
33.4159
36.3397
39.151
41.4374
43.1937
44.1864
44.0795
42.6603
40.438
39.1841
38.0016
30.3053
21.9669
12.5407
3.74859
0.675846
0.0975132
0.016561
0.00805478
0.00745829
0.00748984
0.00755651
0.00764885
0.00796084
0.00818036
0.00777392
0.00751455
0.00756699
0.0076549
0.00775914
0.00788547
0.00804366
0.00824965
0.00852819
0.00890923
2.41487e-05
8.53897e-05
0.00111799
0.00694079
0.0259854
0.0703868
0.15189
0.277524
0.448878
0.664349
0.913781
1.19336
1.51767
1.89546
2.33373
2.83841
3.41828
4.08051
4.83077
5.66633
6.58434
7.57857
8.67046
9.88884
11.2427
12.7346
14.3757
16.1787
18.1412
20.2639
22.5793
25.1029
27.7915
30.6091
33.5298
36.5157
39.473
42.0081
43.9941
45.2858
45.5966
44.5937
42.4968
40.6155
40.3934
34.383
25.7325
16.8512
6.80836
1.4408
0.227028
0.0332271
0.00963492
0.00753103
0.00745694
0.00753091
0.00759916
0.00776254
0.00805918
0.00802749
0.00754068
0.007494
0.0075667
0.00765499
0.00775927
0.00788554
0.0080437
0.00824969
0.00852823
0.0089092
2.40633e-05
8.49864e-05
0.00111184
0.00689992
0.0258424
0.070057
0.151369
0.276956
0.448447
0.664361
0.914858
1.19615
1.52218
1.89981
2.33613
2.83884
3.41524
4.0749
4.82508
5.66927
6.59739
7.59486
8.68579
9.89518
11.2422
12.7356
14.3778
16.1798
18.1538
20.295
22.6008
25.103
27.814
30.6789
33.6494
36.6852
39.7281
42.5071
44.7165
46.3056
46.9809
46.4316
44.5784
42.3403
41.5823
38.322
29.8903
20.8561
10.8742
2.87777
0.503779
0.0738442
0.0141615
0.00787565
0.0074479
0.00750446
0.00756489
0.00765508
0.00790153
0.00811988
0.00774003
0.00745649
0.00749077
0.00756672
0.0076551
0.0077593
0.00788557
0.00804376
0.00824971
0.00852825
0.00890924
2.39856e-05
8.46311e-05
0.00110648
0.00686328
0.0257012
0.0697099
0.150745
0.276139
0.447668
0.663832
0.914942
1.19758
1.52574
1.90533
2.34167
2.84197
3.41578
4.07118
4.81861
5.66341
6.60174
7.6065
8.705
9.9135
11.2506
12.737
14.3813
16.1849
18.1587
20.3143
22.6431
25.1383
27.8298
30.7246
33.7547
36.8558
39.9696
42.9507
45.3896
47.2214
48.2572
48.1287
46.6444
44.2923
42.8868
42.0441
33.9147
25.0058
15.3215
5.28871
1.05827
0.165107
0.0258416
0.00898038
0.00748866
0.00747051
0.00753741
0.00757642
0.0077106
0.0080139
0.00794108
0.00750387
0.00742796
0.00749041
0.00756685
0.0076552
0.00775942
0.00788567
0.00804381
0.00824978
0.00852824
0.00890924
2.39134e-05
8.43134e-05
0.00110169
0.00683113
0.0255732
0.069363
0.150081
0.275143
0.446508
0.662835
0.914339
1.19778
1.52761
1.90988
2.34866
2.84877
3.41983
4.07191
4.81447
5.65624
6.5958
7.61112
8.719
9.93618
11.2726
12.7481
14.3851
16.1921
18.1684
20.3253
22.6715
25.195
27.8827
30.7618
33.8318
37.0072
40.2056
43.345
46.0046
48.0768
49.4285
49.7064
48.6163
46.3953
44.3905
44.0977
38.0695
28.848
19.4873
8.85685
2.08508
0.357248
0.0534229
0.0120374
0.00770865
0.0074403
0.00750115
0.00753869
0.0076057
0.00784089
0.00798758
0.00772956
0.0074041
0.00742363
0.00749045
0.00756694
0.00765528
0.00775945
0.00788574
0.00804386
0.0082498
0.00852829
0.00890922
2.3849e-05
8.40224e-05
0.00109746
0.00680269
0.0254585
0.0690443
0.14942
0.274078
0.445109
0.661326
0.913149
1.19707
1.52797
1.91233
2.35448
2.8578
3.42823
4.07682
4.81519
5.65114
6.5889
7.60678
8.72493
9.95291
11.2991
12.7743
14.3999
16.1992
18.1802
20.3407
22.6903
25.2355
27.9583
30.8382
33.8977
37.1257
40.4164
43.6641
46.5651
48.8681
50.4881
51.1626
50.5072
48.5212
46.1612
45.3512
42.0538
32.9824
23.4772
13.1402
3.87216
0.7343
0.11422
0.019659
0.00841465
0.00744794
0.00745724
0.00750674
0.00757382
0.00769607
0.00791037
0.00794448
0.00746532
0.00736849
0.00742324
0.00749057
0.00756705
0.00765537
0.00775957
0.00788583
0.00804392
0.00824986
0.00852832
0.00890925
2.37798e-05
8.37734e-05
0.00109364
0.00677672
0.0253571
0.06876
0.148804
0.27303
0.443605
0.659505
0.911318
1.19562
1.52723
1.91288
2.35766
2.86516
3.43936
4.08747
4.82084
5.65188
6.58353
7.60313
8.72064
9.96032
11.3191
12.8057
14.4313
16.2184
18.1919
20.3583
22.7131
25.2647
28.0146
30.9376
34.0042
37.2297
40.5887
43.951
47.0757
49.598
51.475
52.4887
52.2742
50.6376
48.1624
46.7093
45.8335
37.1324
27.6003
17.531
6.66283
1.43628
0.239541
0.0372862
0.0103236
0.00757013
0.00742292
0.00747495
0.00754381
0.00759821
0.0077724
0.00796998
0.00767726
0.00735465
0.00736354
0.0074233
0.00749067
0.00756717
0.0076555
0.00775966
0.0078859
0.00804399
0.00824991
0.00852833
0.00890926
2.37213e-05
8.35212e-05
0.00109016
0.00675327
0.0252656
0.0685056
0.148254
0.27204
0.442128
0.657538
0.909116
1.19339
1.52556
1.91217
2.35852
2.8694
3.44872
4.10089
4.83386
5.65904
6.58481
7.60098
8.71715
9.95627
11.3285
12.8295
14.4683
16.2561
18.2168
20.3761
22.7389
25.2974
28.0574
31.0145
34.1341
37.3752
40.7429
44.193
47.5413
50.2763
52.407
53.7344
53.9309
52.6932
50.2826
48.2614
47.9559
41.3687
31.4658
21.5688
10.4767
2.66241
0.48441
0.0753781
0.014997
0.00798596
0.00741824
0.00744435
0.00751765
0.00756897
0.00767766
0.00786589
0.0078361
0.00743193
0.00731403
0.00736326
0.00742343
0.00749079
0.00756729
0.00765558
0.00775977
0.00788595
0.00804407
0.00824995
0.00852838
0.00890926
2.3665e-05
8.33109e-05
0.00108682
0.0067319
0.0251806
0.0682742
0.147759
0.271157
0.440727
0.655617
0.906782
1.19069
1.52286
1.91024
2.3575
2.87068
3.45435
4.11288
4.8505
5.67397
6.59327
7.60392
8.71525
9.95303
11.3248
12.8412
14.4965
16.2997
18.2621
20.4083
22.7643
25.3332
28.1033
31.0755
34.2377
37.5437
40.9381
44.4116
47.8971
50.9116
53.2726
54.8772
55.4661
54.6411
52.4653
50.0106
49.2539
45.4287
35.6327
25.5344
14.796
4.66576
0.936744
0.15316
0.0255907
0.00909973
0.00747751
0.00741781
0.00748805
0.00754799
0.00760519
0.00771107
0.00787413
0.00765237
0.00730201
0.00730934
0.00736332
0.00742353
0.00749094
0.0075674
0.00765573
0.0077599
0.00788607
0.00804413
0.00825001
0.00852843
0.0089093
2.36142e-05
8.31273e-05
0.001084
0.00671145
0.0251031
0.068062
0.147315
0.270361
0.439482
0.6538
0.904562
1.1878
1.51959
1.90706
2.35518
2.86942
3.45636
4.12043
4.86547
5.69404
6.60943
7.61206
8.71915
9.95162
11.3221
12.8382
14.5112
16.3333
18.3138
20.4626
22.8057
25.3689
28.1521
31.1382
34.3222
37.6811
41.1549
44.67
48.1983
51.4765
54.0636
55.9617
56.8679
56.4751
54.6338
52.0273
50.6463
49.2838
39.8566
29.668
19.1071
7.62801
1.72929
0.303055
0.0481331
0.0117742
0.00769636
0.00739673
0.0074487
0.0075271
0.00755832
0.00757647
0.00780279
0.0078235
0.00737687
0.00726388
0.0073091
0.00736345
0.00742369
0.00749106
0.00756753
0.00765581
0.00775997
0.00788614
0.00804424
0.00825007
0.00852849
0.00890927
2.35672e-05
8.29637e-05
0.00108157
0.00669382
0.0250294
0.067866
0.146901
0.269643
0.438358
0.652195
0.902471
1.18502
1.51605
1.90311
2.35145
2.86659
3.45547
4.12366
4.87548
5.7126
6.63151
7.62814
8.72884
9.95668
11.3214
12.8363
14.5092
16.3518
18.3538
20.5238
22.8712
25.4217
28.2007
31.2034
34.4066
37.796
41.3358
44.9471
48.5369
52.0018
54.8312
56.9579
58.2126
58.2012
56.7195
54.1669
52.2151
51.9444
44.1781
33.5008
23.0932
11.49
3.03998
0.577702
0.0933147
0.0177237
0.00828964
0.00741064
0.00741231
0.00748384
0.00752272
0.00753133
0.00768013
0.00782124
0.00758867
0.00725091
0.00725993
0.00730918
0.00736359
0.00742383
0.00749121
0.00756765
0.00765594
0.00776008
0.00788627
0.00804432
0.00825017
0.00852857
0.0089093
2.35228e-05
8.28182e-05
0.00107943
0.00667863
0.0249655
0.0676801
0.146517
0.268969
0.43734
0.650734
0.900666
1.18245
1.51278
1.89889
2.34682
2.86209
3.45233
4.12312
4.8802
5.7238
6.65212
7.64827
8.74771
9.9684
11.3279
12.8366
14.5084
16.3511
18.3765
20.5718
22.944
25.5008
28.2677
31.2686
34.4929
37.9086
41.4897
45.1828
48.8887
52.4887
55.5412
57.8858
59.4385
59.8319
58.7358
56.3342
53.9084
53.2935
48.31
37.7027
26.9786
15.7573
5.08369
1.05623
0.179355
0.0301237
0.00970031
0.0075046
0.00738131
0.00744172
0.00748675
0.00751573
0.00758223
0.00775624