/*--------------------------------*- C++ -*----------------------------------*\
| =========                 |                                                 |
| \\      /  F ield         | OpenFOAM: The Open Source CFD Toolbox           |
|  \\    /   O peration     | Version:  v2012                                 |
|   \\  /    A nd           | Website:  www.openfoam.com                      |
|    \\/     M anipulation  |                                                 |
\*---------------------------------------------------------------------------*/
FoamFile
{
    version     2.0;
    format      ascii;
    class       volScalarField;
    location    "13200";
    object      yp;
}
// * * * * * * * * * * * * * * * * * * * * * * * * * * * * * * * * * * * * * //

dimensions      [0 0 0 0 0 0 0];


internalField   nonuniform List<scalar> 
39402
(
1.11869
0.755063
2.89445
0.544052
2.0434
4.04228
0.530769
1.49894
3.08413
5.06648
0.544347
1.47335
2.33087
4.01662
6.03762
0.559945
1.50909
2.30863
3.09625
4.89466
6.98872
0.571019
1.55189
2.36876
3.0852
3.82598
5.7512
7.9412
0.578324
1.58308
2.43904
3.17086
3.82604
4.543
6.60833
8.89659
0.581324
1.60382
2.48969
3.26903
3.93317
4.54263
5.26466
7.48015
9.87114
0.581872
1.61496
2.52433
3.33827
4.05588
4.6566
5.24112
6.00565
8.38822
10.8749
0.580997
1.61779
2.54256
3.38722
4.14144
4.79363
5.33855
5.93063
6.77742
9.34455
11.9221
0.579216
1.61718
2.54871
3.41359
4.20312
4.88972
5.47234
5.98183
6.63436
7.59585
10.3552
13.016
0.576921
1.61361
2.54899
3.42481
4.23644
4.96007
5.56816
6.09207
6.61228
7.38054
8.47204
11.4298
14.1851
0.574179
1.61141
2.54588
3.42646
4.25239
4.99654
5.64028
6.17584
6.67703
7.26698
8.18211
9.42017
12.5827
15.4161
0.571445
1.6077
2.54384
3.42288
4.25537
5.01476
5.6771
6.24154
6.73829
7.26378
7.95524
9.04648
10.4569
13.8093
16.7419
0.568768
1.60147
2.53692
3.41712
4.25142
5.01828
5.69584
6.27522
6.79244
7.29224
7.86373
8.6705
9.97695
11.5943
15.1248
18.1664
0.566079
1.59517
2.52757
3.40701
4.24395
5.01371
5.69882
6.29299
6.82003
7.32912
7.84808
8.47559
9.40735
10.936
12.8523
16.533
19.7257
0.563354
1.5889
2.51783
3.39691
4.23141
5.0078
5.69333
6.2951
6.83359
7.34747
7.86007
8.40379
9.10509
10.1554
11.8586
14.2452
18.0533
21.4328
0.560536
1.58237
2.50821
3.38387
4.22024
4.9932
5.68545
6.2879
6.83186
7.35368
7.86602
8.38248
8.96777
9.76396
10.9406
12.7944
15.7768
19.742
23.3919
0.557405
1.57248
2.49769
3.37061
4.20647
4.97754
5.67077
6.27648
6.8213
7.34598
7.86143
8.37268
8.90659
9.55302
10.4714
11.8297
13.8845
17.4538
21.6928
25.3022
0.554693
1.56735
2.48411
3.35644
4.1901
4.96093
5.65311
6.25961
6.80746
7.33155
7.84722
8.35266
8.87313
9.4466
10.1764
11.2484
12.8486
15.1597
19.2635
23.6888
26.6362
0.552502
1.56714
2.47421
3.34144
4.17237
4.94175
5.63256
6.24147
6.78733
7.31318
7.827
8.32948
8.83682
9.38008
10.0147
10.8538
12.1125
13.9971
16.6064
21.1574
25.4065
27.0911
0.549601
1.55765
2.46905
3.32977
4.15387
4.9234
5.61111
6.2206
6.7658
7.28852
7.8033
8.3026
8.80231
9.32393
9.90657
10.6221
11.5996
13.0835
15.2772
18.2641
23.0664
27.3387
24.9826
0.54713
1.54979
2.45989
3.32056
4.13808
4.90417
5.5925
6.1992
6.74342
7.26218
7.77279
8.27276
8.76527
9.2752
9.8246
10.4648
11.2839
12.4324
14.1789
16.6685
20.1543
25.0086
29.5742
21.0808
0.544676
1.54305
2.44751
3.30779
4.12468
4.88513
5.57301
6.17838
6.72062
7.23471
7.74121
8.23729
8.72847
9.2274
9.75804
10.3513
11.0671
12.0171
13.3761
15.419
18.1176
22.3026
27.0732
31.4815
17.3222
0.542349
1.5299
2.43671
3.29127
4.10869
4.8684
5.55154
6.1551
6.697
7.20731
7.71065
8.20081
8.68742
9.18122
9.69704
10.2611
10.9135
11.7277
12.842
14.4541
16.8175
19.662
24.7228
29.2374
32.4494
14.6397
0.53998
1.52603
2.41977
3.27686
4.08838
4.84958
5.53234
6.13165
6.67094
7.18107
7.67815
8.16643
8.64468
9.13266
9.63867
10.1829
10.7939
11.5233
12.4626
13.7796
15.6902
18.3871
21.5361
27.3967
31.2584
32.4223
12.746
0.537797
1.52531
2.40959
3.25845
4.07031
4.82907
5.51132
6.11271
6.64699
7.15286
7.64736
8.13147
8.60501
9.08397
9.58135
10.1105
10.6945
11.3671
12.1947
13.2907
14.8531
17.1094
20.1176
23.9049
30.1951
32.7796
31.7184
11.3377
0.535522
1.51542
2.40394
3.24744
4.05163
4.80828
5.49127
6.09243
6.62519
7.1251
7.61532
8.09448
8.56532
9.03735
9.52474
10.0395
10.6046
11.24
11.9923
12.9434
14.2328
16.0921
18.7196
21.9418
26.702
32.7969
33.5345
30.4971
9.96047
0.533469
1.50561
2.39419
3.23899
4.03996
4.7838
5.47135
6.07091
6.60473
7.09881
7.58227
8.05835
8.52594
8.99234
9.47072
9.97375
10.5184
11.1281
11.8303
12.6819
13.7867
15.3148
17.5249
20.5204
23.9076
29.8074
34.8665
33.3892
29.0366
8.18331
0.531374
1.49943
2.3829
3.2222
4.02809
4.76939
5.44511
6.05193
6.5812
7.07484
7.55536
8.02462
8.48673
8.94814
9.41801
9.91103
10.441
11.0254
11.6913
12.4772
13.4514
14.7445
16.5621
19.1711
22.4935
26.3276
33.0381
36.1571
32.5877
27.3377
6.82133
0.529693
1.49538
2.37333
3.20448
4.00844
4.75734
5.42864
6.02714
6.55763
7.04776
7.52702
7.99246
8.4488
8.9058
9.36879
9.85013
10.3688
10.9328
11.5665
12.3037
13.1911
14.3176
15.8407
18.0068
21.0454
24.5858
29.3449
35.9749
36.1674
31.2104
25.0032
7.64691
0.527824
1.49006
2.3658
3.19189
3.98716
4.74125
5.41743
6.00924
6.53331
7.02054
7.49873
7.9631
8.41358
8.86349
9.32238
9.79494
10.2977
10.847
11.4551
12.1511
12.9752
13.9867
15.2991
17.1054
19.6819
23.1352
26.8239
32.7663
37.9783
34.5718
29.3738
22.0558
9.88705
0.5258
1.48626
2.35759
3.18364
3.97144
4.72036
5.39961
5.99372
6.51595
6.99597
7.47069
7.93411
8.38219
8.82364
9.27449
9.74255
10.2332
10.7652
11.3543
12.0177
12.7893
13.718
14.8828
16.4201
18.5734
21.6056
25.3884
29.4846
36.2457
38.6969
32.623
26.2978
19.2171
11.6585
0.524025
1.48555
2.35062
3.17564
3.96052
4.70243
5.37701
5.97165
6.49579
6.97768
7.44297
7.9041
8.34961
8.78805
9.2307
9.68996
10.1737
10.6906
11.2604
11.8984
12.6292
13.4904
14.5466
15.8961
17.7128
20.2789
23.7752
27.7026
32.8013
39.1643
37.7558
30.5927
22.0358
17.1124
11.2824
0.522475
1.47949
2.34673
3.16556
3.95297
4.6893
5.36029
5.9511
6.47216
6.95774
7.42245
7.87341
8.31873
8.75448
9.19285
9.6425
10.1148
10.6211
11.1741
11.7886
12.4872
13.2982
14.2685
15.4785
17.0527
19.2134
22.2501
26.1459
30.1979
36.5322
40.9206
35.8504
27.9389
18.8432
15.1157
8.5856
0.521125
1.47432
2.33768
3.15899
3.94042
4.67975
5.34585
5.93616
6.45328
6.93373
7.40028
7.852
8.28547
8.72103
9.15422
9.59851
10.0619
10.5554
11.0939
11.6888
12.3575
13.1297
14.0345
15.1348
16.5302
18.3871
20.9595
24.5036
28.6324
33.3005
39.8942
40.4158
32.5559
24.6779
16.8169
12.3393
6.17172
0.519778
1.46499
2.32996
3.1473
3.93141
4.6623
5.33509
5.9207
6.43751
6.91046
7.37778
7.82954
8.26076
8.68571
9.11823
9.55574
10.0121
10.4956
11.0187
11.5964
12.2402
12.9761
13.8311
14.8494
16.1058
17.731
19.9318
22.9899
27.0053
31.2102
37.0494
42.5961
38.3129
27.6362
20.528
15.9884
10.8829
5.148
0.518176
1.45882
2.32045
3.13755
3.92056
4.65125
5.31907
5.90874
6.42373
6.8928
7.3526
7.80311
8.2381
8.65778
9.07951
9.51551
9.96429
10.4402
10.9516
11.5107
12.1336
12.8379
13.6488
14.6038
15.7589
17.2072
19.1132
21.7298
25.3202
29.6614
34.1538
40.8315
43.0812
33.5493
24.0493
13.0208
14.3257
13.3178
5.72331
0.51647
1.45644
2.31234
3.12763
3.9083
4.64183
5.30726
5.89506
6.41351
6.88
7.33369
7.77978
8.21233
8.63297
9.05057
9.47618
9.92202
10.3872
10.8882
11.4344
12.0351
12.7139
13.4881
14.3876
15.462
16.7801
18.4604
20.7156
23.8236
27.9255
32.3274
37.778
43.6183
39.9364
28.2295
21.6022
3.13042
11.3279
17.5718
6.37195
0.515176
1.45483
2.3093
3.11973
3.89682
4.62809
5.29325
5.88568
6.39937
6.86939
7.31998
7.76012
8.18831
8.60774
9.02344
9.44286
9.87666
10.3384
10.8274
11.3627
11.9466
12.5995
13.3423
14.1982
15.205
16.4197
17.9325
19.902
22.5787
26.2385
30.7031
35.1823
41.7811
44.6043
34.5642
24.2706
18.4317
6.42937
9.61297
20.5565
6.22027
0.514316
1.45079
2.30633
3.11546
3.8868
4.61509
5.28169
5.87083
6.39237
6.85598
7.30135
7.74188
8.16494
8.58281
8.99507
9.41271
9.83993
10.2891
10.7729
11.2928
11.8664
12.497
13.21
14.0277
14.9786
16.109
17.4961
19.2457
21.571
24.7514
28.9562
33.507
38.7586
44.853
41.6909
29.0878
20.3712
7.46419
9.2773
10.785
21.0199
5.79054
0.513415
1.44811
2.30039
3.11142
3.88152
4.60393
5.27104
5.86202
6.38018
6.84764
7.29056
7.72604
8.14461
8.55714
8.96604
9.38102
9.80858
10.2494
10.7202
11.2312
11.7876
12.4054
13.0927
13.8722
14.7805
15.8417
17.1216
18.7098
20.7578
23.5144
27.2655
31.8748
36.4669
42.8358
46.1103
35.5374
24.1611
16.6924
10.7624
9.10904
13.9289
19.3511
5.15156
0.512242
1.44411
2.29614
3.10356
3.87592
4.59724
5.25859
5.85065
6.36713
6.83344
7.28256
7.71111
8.1289
8.53822
8.94157
9.35022
9.77272
10.2121
10.6733
11.1721
11.7169
12.3162
12.9867
13.7373
14.5979
15.6067
16.8012
18.2584
20.0937
22.5083
25.7845
30.1054
34.8406
40.0367
46.153
43.2852
29.1603
19.9851
13.4689
15.4334
5.44327
18.3174
16.6614
4.26588
0.511055
1.43972
2.29033
3.09834
3.8669
4.59404
5.25155
5.83751
6.35205
6.82403
7.2679
7.70498
8.11394
8.51991
8.92158
9.32349
9.73904
10.1733
10.631
11.1205
11.6494
12.236
12.8839
13.6159
14.4384
15.3949
16.5211
17.872
19.5404
21.6883
24.5465
28.411
33.1717
37.9164
44.1227
47.4722
36.7039
23.6705
16.0715
4.72237
16.9043
3.44889
24.5556
13.5699
3.40563
0.509896
1.43728
2.28266
3.08831
3.86053
4.58691
5.24762
5.83339
6.34174
6.80658
7.25729
7.68783
8.10386
8.5019
8.90326
9.30017
9.71137
10.1379
10.5908
11.0722
11.5907
12.1588
12.7948
13.5001
14.298
15.2081
16.2696
17.537
19.0745
21.0054
23.5329
26.9269
31.3801
36.2904
41.5127
47.6279
44.689
29.1627
19.3895
10.5997
8.54705
16.0974
5.35481
27.9016
10.8788
2.95102
0.508765
1.43617
2.28004
3.07843
3.85218
4.58013
5.24003
5.82589
6.34027
6.79582
7.24355
7.6736
8.08898
8.4922
8.88621
9.28206
9.68736
10.1083
10.5517
11.028
11.5381
12.0928
12.7095
13.4003
14.172
15.0441
16.0518
17.2357
18.6689
20.4373
22.6915
25.6808
29.6832
34.5914
39.4766
45.6365
48.8893
37.4786
23.1716
14.3882
5.24433
14.0352
15.3686
11.6869
28.0809
9.26937
2.16721
0.507826
1.4334
2.27911
3.07761
3.84274
4.57387
5.23611
5.81764
6.33581
6.79301
7.22973
7.66096
8.07521
8.47656
8.87261
9.26418
9.66815
10.0824
10.5199
10.9859
11.4893
12.0345
12.6361
13.3064
14.059
14.8994
15.8604
16.9808
18.3151
19.9476
21.9897
24.6442
28.191
32.7986
37.8371
43.1399
49.2764
45.748
29.1239
17.7836
8.71561
1.14459
16.8316
11.6336
18.8082
25.7973
7.57629
2.40472
0.507265
1.43095
2.27524
3.07668
3.84231
4.5662
5.23274
5.81695
6.33079
6.7918
7.22792
7.64987
8.06062
8.4647
8.8559
9.25138
9.64732
10.0592
10.489
10.9484
11.4409
11.9792
12.5717
13.2258
13.9545
14.7722
15.6918
16.7574
18.013
19.5249
21.3973
23.7794
26.9236
31.0947
36.1477
41.1368
47.3484
50.1974
38.1199
22.0541
11.7886
5.1969
6.78419
18.6077
2.8397
25.78
22.2263
6.28367
1.75851
0.506927
1.42982
2.27192
3.07478
3.84184
4.56629
5.22455
5.81286
6.32566
6.78498
7.22211
7.64702
8.0495
8.45163
8.84515
9.23526
9.63369
10.0377
10.4627
10.9148
11.3995
11.9264
12.5107
13.1552
13.8642
14.6544
15.5461
16.5565
17.7514
19.1637
20.8815
23.0468
25.8551
29.5793
34.3691
39.513
44.9221
51.0025
46.6087
28.7425
15.35
7.51281
1.82772
11.0703
18.5837
6.97223
30.6542
17.7045
4.9189
0.0354819
0.506469
1.428
2.27065
3.07318
3.83945
4.5657
5.22437
5.80474
6.31822
6.77998
7.21679
7.64582
8.0476
8.44132
8.8336
9.221
9.61743
10.0234
10.4396
10.8855
11.3639
11.8822
12.4547
13.0892
13.7844
14.5516
15.411
16.3854
17.5049
18.8507
20.4525
22.4244
24.9519
28.2778
32.6516
37.859
42.9414
49.2233
51.5942
38.2438
20.2599
9.37147
4.98483
4.14435
13.9857
17.1738
13.1207
32.7119
12.9763
2.59105
0.0261585
0.505738
1.42657
2.2697
3.07215
3.83782
4.56032
5.22428
5.80446
6.31315
6.77452
7.21158
7.63646
8.04844
8.43914
8.82323
9.20798
9.60251
10.004
10.4225
10.8579
11.3317
11.8435
12.4055
13.0269
13.7095
14.4601
15.2926
16.2294
17.3003
18.5606
20.0795
21.9048
24.1927
27.173
31.1079
36.0958
41.3353
46.8938
52.8241
47.3189
27.5292
12.9355
4.95509
2.12063
4.89765
16.9609
12.9432
20.6564
31.2578
9.8304
2.7241
0
0.504683
1.42555
2.2691
3.06864
3.84034
4.55522
5.2184
5.80762
6.31602
6.7694
7.21017
7.63232
8.04114
8.43825
8.82041
9.19994
9.58637
9.98814
10.4032
10.8399
11.3017
11.8084
12.3608
12.9718
13.6394
14.3738
15.187
16.0958
17.1217
18.3118
19.7365
21.4577
23.5561
26.2308
29.7652
34.3705
39.7229
44.8914
51.2949
53.0633
37.7493
17.9701
6.16025
3.01468
2.1179
4.41766
20.0912
2.35748
29.2087
26.5876
6.98971
1.99494
0
0.503591
1.42454
2.26692
3.06589
3.83634
4.56143
5.21668
5.80544
6.31905
6.77479
7.19997
7.62829
8.03624
8.42999
8.81737
9.19675
9.57566
9.97237
10.3843
10.8188
11.2788
11.7775
12.3232
12.9229
13.5788
14.2944
15.0893
15.9722
16.9659
18.0989
19.4374
21.0489
23.0147
25.4493
28.6043
32.7847
37.9914
43.2819
49.0408
54.7001
47.657
25.5574
10.0002
1.99216
3.00628
2.90966
7.74685
19.991
8.27245
35.6749
20.4315
5.05349
0.0279335
0
0.502564
1.42078
2.26468
3.06605
3.83051
4.56082
5.2237
5.80373
6.32027
6.77791
7.2052
7.62133
8.03123
8.42301
8.81062
9.19126
9.57307
9.95918
10.3676
10.7983
11.254
11.7517
12.2894
12.8803
13.5247
14.226
14.9995
15.8635
16.8267
17.9143
19.1755
20.6943
22.5267
24.7874
27.6396
31.3865
36.2469
41.7442
46.9731
53.5204
54.2132
36.4825
14.9127
3.08778
2.10283
5.53158
4.6968
15.6346
18.3367
16.7119
37.2339
13.8835
4.2734
0
0
0.501717
1.41779
2.26104
3.06652
3.83403
4.5546
5.2229
5.81066
6.31819
6.77881
7.21355
7.62687
8.03017
8.42015
8.80444
9.18676
9.56929
9.95432
10.3562
10.7805
11.2341
11.7249
12.263
12.8416
13.4772
14.166
14.9214
15.7608
16.6993
17.7548
18.9554
20.3793
22.1042
24.1947
26.8245
30.2003
34.6194
40.0373
45.3832
51.3623
56.4918
47.376
22.7351
6.7665
3.76522
3.14215
7.10138
4.66542
21.4353
13.8487
27.8032
33.2714
9.14544
2.167
0
0
0.50112
1.41786
2.25849
3.05958
3.83872
4.55909
5.22004
5.80966
6.3211
6.77885
7.21297
7.63272
8.03224
8.42204
8.80231
9.18283
9.56213
9.95086
10.3513
10.7691
11.2174
11.7037
12.2354
12.8115
13.4331
14.1131
14.8544
15.6722
16.5806
17.6032
18.7667
20.1081
21.7281
23.6911
26.1036
29.1896
33.1943
38.2854
43.8775
49.2326
55.8718
54.9341
34.1706
10.3358
2.14201
2.17869
6.64603
7.83486
4.74277
23.0043
5.6599
37.6877
25.8838
6.35914
0.0421023
0
0
0.500784
1.41905
2.26033
3.05681
3.82749
4.56448
5.22512
5.81046
6.31975
6.78192
7.21381
7.63551
8.03765
8.42387
8.79893
9.17726
9.55605
9.94625
10.345
10.7632
11.2035
11.6866
12.2127
12.7827
13.3982
14.0649
14.795
15.5955
16.4818
17.4711
18.5925
19.8764
21.4009
23.2433
25.4921
28.3065
31.9538
36.658
42.2341
47.6374
53.8787
58.1653
46.2361
18.4984
2.52341
3.92152
4.64866
8.92426
7.78057
14.8186
22.0313
16.4464
41.5471
17.838
4.64054
0
0
0
0.500683
1.41644
2.26009
3.05964
3.82479
4.55567
5.23154
5.81595
6.32412
6.78265
7.2182
7.63465
8.04121
8.42565
8.80265
9.173
9.55147
9.94095
10.3414
10.7547
11.1947
11.6693
12.1918
12.7573
13.3658
14.0244
14.7397
15.5258
16.392
17.3556
18.4402
19.6774
21.1126
22.8503
24.9574
27.5579
30.8647
35.186
40.5462
46.1702
51.8085
58.3229
55.075
30.6109
4.82241
3.91894
1.67162
7.42086
10.3206
3.88953
22.3646
16.7993
28.9809
37.8166
11.1974
2.28268
0
0
0
0.500532
1.41533
2.25487
3.05983
3.82811
4.55331
5.22242
5.82266
6.32951
6.78715
7.21988
7.63904
8.03942
8.43003
8.80708
9.17862
9.55199
9.93502
10.3369
10.7495
11.186
11.6605
12.174
12.7348
13.3373
13.987
14.6936
15.463
16.3139
17.2505
18.3058
19.4975
20.8688
22.5046
24.4891
26.9084
29.9474
33.859
38.9079
44.6477
50.1054
56.6819
59.5402
43.797
14.3263
3.14769
4.14537
5.46928
9.28565
8.26652
6.51395
25.6499
5.56053
41.2322
28.7394
7.01622
0
0
0
0
0.500288
1.41521
2.25581
3.0563
3.82909
4.55735
5.21973
5.81363
6.3365
6.79298
7.22492
7.64008
8.04362
8.43126
8.80972
9.18527
9.55938
9.93608
10.3313
10.7445
11.1778
11.6521
12.1651
12.7163
13.3132
13.9557
14.6519
15.4116
16.2433
17.1638
18.1851
19.3407
20.6542
22.1979
24.0697
26.3466
29.1491
32.7312
37.3485
43.0124
48.6505
54.6372
60.7885
54.2288
25.5915
3.71608
4.14002
2.13047
8.53495
9.42339
5.50619
16.6818
23.2262
19.1324
45.5844
18.9062
2.44976
0
0
0
0
0.499887
1.4153
2.25603
3.05843
3.82881
4.55878
5.22462
5.80719
6.33119
6.79973
7.23124
7.6462
8.0454
8.43419
8.81253
9.18598
9.56404
9.94528
10.3298
10.7413
11.1743
11.6428
12.1589
12.7059
13.2939
13.9283
14.6173
15.3636
16.1827
17.0845
18.0822
19.2026
20.4694
21.9342
23.7002
25.8426
28.4594
31.751
35.9914
41.3229
47.215
52.7665
59.6524
60.4658
39.8574
9.6467
4.13607
2.32568
6.78256
9.39467
9.69659
3.94281
23.4467
16.2152
34.4656
39.6797
11.402
0.0971814
0
0
0
0
0.49943
1.41622
2.2569
3.05916
3.83175
4.55863
5.22602
5.81169
6.32495
6.79409
7.23831
7.65782
8.05187
8.43852
8.81953
9.18841
9.56448
9.94914
10.3355
10.739
11.1715
11.6391
12.1479
12.6974
13.2811
13.9065
14.5857
15.3217
16.1275
17.0091
17.9888
19.081
20.3067
21.7144
23.3751
25.3989
27.8505
30.899
34.7901
39.7769
45.6101
51.2882
57.662
63.0749
51.9605
19.9882
1.67091
0.67533
5.76217
8.53832
8.47641
8.96017
7.44749
26.5781
10.4357
46.6176
28.8569
6.47676
0
0
0
0
0
0.49891
1.42051
2.26134
3.06108
3.83283
4.56223
5.22619
5.81759
6.33358
6.79151
7.23285
7.66415
8.06395
8.44342
8.82138
9.19726
9.56419
9.94981
10.3404
10.7417
11.169
11.6379
12.145
12.6882
13.2689
13.8903
14.5596
15.2865
16.0789
16.9469
17.9059
18.9722
20.1689
21.5207
23.1008
25.0017
27.3192
30.1548
33.74
38.3414
44.0143
49.8643
55.6853
62.5986
60.5518
34.3084
5.22594
3.49432
4.44699
7.12238
7.52105
8.30066
2.08519
20.5226
23.5283
25.7988
48.0105
16.6259
2.5848
0
0
0
0
0
0.498345
1.41949
2.26722
3.06687
3.83598
4.56391
5.2297
5.81724
6.34322
6.79936
7.22982
7.65849
8.07226
8.45399
8.82456
9.19876
9.57482
9.95189
10.3453
10.7494
11.1747
11.636
12.1434
12.6823
13.258
13.8756
14.5402
15.2579
16.0387
16.8951
17.8313
18.8767
20.0414
21.3572
22.8645
24.6608
26.8464
29.5102
32.8279
37.0656
42.4163
48.4597
54.1029
60.8865
64.5062
48.2774
14.6898
2.41423
2.29524
6.56339
7.48203
6.53891
6.91743
4.42119
26.6822
12.7057
42.9712
38.3715
8.70954
0
0
0
0
0
0
0.497726
1.41388
2.26591
3.07436
3.84303
4.57183
5.23623
5.82107
6.34281
6.81021
7.23478
7.6596
8.0663
8.46509
8.83509
9.2041
9.57976
9.95748
10.3478
10.7545
11.1836
11.6414
12.1398
12.6782
13.2511
13.8649
14.524
15.2365
16.0057
16.8478
17.7704
18.7905
19.9282
21.2073
22.6617
24.3686
26.4347
28.9436
32.0336
35.9447
40.9352
46.8761
52.7571
58.9729
65.3816
58.8615
27.3862
3.68472
2.62924
6.0029
7.4798
6.61331
6.87652
7.03513
12.4596
26.6079
13.8626
52.1819
25.0868
2.77254
0
0
0
0
0
0
0.497111
1.40887
2.25896
3.07276
3.85161
4.57547
5.24437
5.83152
6.34189
6.80739
7.24148
7.66465
8.06633
8.46399
8.84683
9.21169
9.5815
9.96082
10.3521
10.7552
11.1863
11.6484
12.1429
12.6756
13.2456
13.8578
14.5124
15.2174
15.98
16.8103
17.7184
18.719
19.8316
21.076
22.4861
24.1142
26.0712
28.4498
31.3432
34.9715
39.5905
45.2988
51.3794
57.1826
64.3569
64.9455
42.7874
9.0815
2.62392
3.59449
7.42902
6.61127
6.83997
10.4712
3.88502
22.819
20.7877
37.5405
46.4758
12.3142
0.165601
0
0
0
0
0
0
0.496546
1.40921
2.25124
3.06493
3.84999
4.58038
5.2444
5.8403
6.348
6.80705
7.24104
7.67291
8.07677
8.45897
8.84698
9.22184
9.59212
9.96391
10.3558
10.7627
11.189
11.6522
12.1503
12.6783
13.2445
13.851
14.504
15.2026
15.9581
16.7775
17.6722
18.659
19.7469
20.9597
22.328
23.8959
25.7553
28.0032
30.7411
34.1149
38.4075
43.7931
49.9432
55.7594
62.494
67.8143
55.0875
20.0849
2.6471
4.57603
7.96146
7.25653
6.14387
8.45389
11.2173
7.87812
28.6182
11.5146
53.3609
32.4469
5.94146
0
0
0
0
0
0
0
0.496016
1.40984
2.25251
3.05549
3.84138
4.57901
5.24975
5.84024
6.36078
6.81274
7.24253
7.66999
8.08217
8.4678
8.84595
9.2238
9.60533
9.97696
10.3605
10.7676
11.1978
11.6563
12.154
12.6853
13.2482
13.8479
14.4964
15.1914
15.9402
16.7535
17.6355
18.6019
19.6712
20.8602
22.192
23.7052
25.4783
27.6205
30.1995
33.376
37.3547
42.4078
48.4389
54.4741
60.6279
67.6498
64.1685
34.9033
5.1367
2.65136
7.42009
7.80081
5.35879
4.61817
9.98269
6.96507
20.5088
26.9047
32.2997
53.6665
17.0106
2.92719
0
0
0
0
0
0
0
0.495543
1.40886
2.25314
3.05692
3.83069
4.57436
5.24832
5.84576
6.36509
6.82433
7.25059
7.67152
8.08301
8.47695
8.85357
9.22434
9.60509
9.99131
10.3721
10.771
11.2023
11.6651
12.159
12.6917
13.2548
13.8532
14.4919
15.1833
15.9276
16.7311
17.6041
18.5607
19.612
20.7716
22.0784
23.5455
25.2396
27.2739
29.7313
32.7173
36.4403
41.1462
46.9488
53.1825
59.0571
66.2751
68.7741
49.5206
14.5625
2.65101
6.2096
7.79679
3.54609
3.26449
4.59457
7.92403
1.53176
29.6935
9.63124
50.8712
39.2948
8.86123
0
0
0
0
0
0
0
0
0.495114
1.40766
2.25183
3.05759
3.83219
4.56688
5.248
5.84891
6.37074
6.83361
7.26349
7.68065
8.0875
8.47705
8.8637
9.23468
9.60752
9.99233
10.3853
10.7807
11.2048
11.6715
12.1686
12.6973
13.2612
13.859
14.4951
15.1762
15.9168
16.717
17.5798
18.5202
19.5582
20.6989
21.9749
23.4069
25.0406
26.9714
29.3161
32.143
35.6256
40.0227
45.5183
51.8
57.7755
64.5054
70.5652
60.7395
25.8477
3.58745
5.56848
7.79403
6.20128
2.11019
0.057517
4.97283
7.05791
15.2963
27.2318
22.6508
57.7724
21.5744
3.05026
0
0
0
0
0
0
0
0
0.494723
1.40675
2.24692
3.05958
3.83282
4.5688
5.24483
5.84909
6.37426
6.84306
7.27183
7.69194
8.09521
8.48079
8.86411
9.24463
9.61862
9.99306
10.3862
10.7954
11.2157
11.6789
12.1774
12.707
13.2671
13.8634
14.5018
15.1771
15.9078
16.7026
17.5632
18.493
19.5112
20.6363
21.8825
23.2844
24.8694
26.7172
28.9419
31.6398
34.9206
39.0201
44.199
50.3604
56.5474
62.7647
70.0927
68.4405
41.5122
10.5218
3.89975
7.19253
6.88883
4.54158
3.43224
3.87657
10.2633
3.01284
26.5471
14.7463
51.4471
45.3104
10.3453
0
0
0
0
0
0
0
0
0
0.494359
1.40571
2.24542
3.0532
3.8348
4.56905
5.24216
5.84111
6.37404
6.84186
7.28168
7.69913
8.10636
8.48758
8.86305
9.2464
9.62798
10.005
10.39
10.7985
11.2317
11.691
12.1879
12.7144
13.275
13.8683
14.505
15.1843
15.9084
16.6937
17.5463
18.4711
19.4773
20.5815
21.8073
23.1774
24.7231
26.5008
28.623
31.1879
34.2994
38.1496
42.9962
48.9436
55.3148
61.307
68.6341
72.2168
54.8845
18.1879
5.62837
7.14399
6.89186
5.5919
4.74203
5.93371
8.8635
12.7299
8.91635
29.5024
19.3726
59.0936
26.609
3.17865
0
0
0
0
0
0
0
0
0
0.494036
1.40756
2.247
3.04791
3.8318
4.56678
5.23827
5.84306
6.36631
6.84222
7.28071
7.70925
8.1146
8.49701
8.8687
9.24712
9.62879
10.0147
10.4003
10.8049
11.2353
11.702
12.1989
12.7229
13.2822
13.8766
14.5082
15.1884
15.9136
16.6894
17.5337
18.4495
19.4493
20.5384
21.7429
23.0862
24.5948
26.3167
28.3458
30.7995
33.7565
37.3845
41.9311
47.5776
54.0023
60.1009
66.9339
73.4326
65.1511
30.9075
8.01917
7.14721
8.14576
6.41459
4.74165
4.95711
4.21683
11.3302
5.29132
23.4045
22.3406
51.6742
50.8106
11.8266
0
0
0
0
0
0
0
0
0
0
0.493692
1.40407
2.24917
3.05301
3.82521
4.56316
5.2358
5.844
6.36869
6.83878
7.28018
7.70744
8.12251
8.50478
8.87819
9.25275
9.63146
10.0141
10.4098
10.8144
11.2409
11.7042
12.2077
12.7344
13.2913
13.8859
14.5178
15.1927
15.9175
16.6924
17.5275
18.4318
19.4212
20.5045
21.689
23.0048
24.4857
26.1577
28.1089
30.4538
33.2832
36.7156
40.9894
46.3337
52.6296
58.9381
65.2713
72.8451
72.0502
46.1379
13.2073
6.54545
8.14243
6.48695
5.84269
4.95005
1.1039
4.83036
8.128
10.6644
32.674
23.6809
64.0361
29.3883
3.31245
0
0
0
0
0
0
0
0
0
0
0.493402
1.40083
2.24432
3.05553
3.82699
4.56088
5.23201
5.84142
6.36929
6.83675
7.27726
7.70733
8.12183
8.51689
8.88476
9.25976
9.63519
10.0168
10.4112
10.8197
11.2492
11.7094
12.2109
12.7442
13.3026
13.8968
14.5274
15.2035
15.9223
16.6962
17.5262
18.4253
19.4008
20.4767
21.6499
22.9426
24.3871
26.0164
27.9005
30.1549
32.856
36.1281
40.1553
45.197
51.3212
57.7681
63.8984
71.4105
75.4093
58.6858
21.2411
7.19523
8.09407
6.48384
4.743
3.58558
0.731092
0.712388
2.13218
7.90474
21.983
20.7888
50.8908
52.4463
13.2411
0
0
0
0
0
0
0
0
0
0
0
0.493124
1.40197
2.23974
3.04581
3.8293
4.56219
5.22921
5.83775
6.36691
6.83284
7.27779
7.70433
8.12077
8.51921
8.90019
9.26628
9.64208
10.0219
10.4114
10.8233
11.2564
11.7194
12.2172
12.75
13.3126
13.9081
14.5358
15.2126
15.9326
16.7005
17.529
18.4233
19.3863
20.4476
21.6134
22.8928
24.3064
25.902
27.7256
29.8882
32.4836
35.6061
39.4257
44.1872
50.0449
56.6006
62.7609
69.8106
76.5067
68.4262
33.5844
9.80277
7.52066
7.90869
4.75301
3.5872
0.208182
3.85467
0.992454
8.61722
4.49715
29.845
20.1617
65.378
32.2812
3.45183
0
0
0
0
0
0
0
0
0
0
0
0.492874
1.40161
2.24131
3.04088
3.81843
4.56484
5.23532
5.83478
6.36297
6.8336
7.2782
7.70594
8.1177
8.51836
8.90554
9.27763
9.64762
10.0261
10.4147
10.8254
11.2602
11.7285
12.2285
12.7583
13.3196
13.9181
14.5488
15.2186
15.9411
16.7104
17.5314
18.4223
19.3838
20.4273
21.5783
22.8433
24.2438
25.8019
27.5715
29.6553
32.1566
35.1447
38.7807
43.2918
48.8691
55.3382
61.7149
68.2605
76.0006
75.1252
48.8603
15.5239
7.52558
7.19963
3.16544
3.58963
0.443771
3.6905
0
7.30978
9.38127
25.1101
26.0679
54.8548
56.5762
13.8077
0
0
0
0
0
0
0
0
0
0
0
0
0.492644
1.4014
2.24053
3.04335
3.81356
4.55296
5.24258
5.83635
6.36484
6.83039
7.28109
7.7062
8.11894
8.51527
8.90538
9.28379
9.65715
10.0304
10.4207
10.8268
11.2652
11.7331
12.2366
12.7682
13.3292
13.9239
14.5602
15.2302
15.9476
16.7162
17.5401
18.4239
19.3807
20.4199
21.5547
22.8018
24.1861
25.7257
27.4533
29.4487
31.8545
34.7377
38.205
42.4813
47.8005
54.1199
60.64
66.918
74.7414
78.4955
61.0174
23.1717
8.73618
7.86352
5.8485
0.424117
0.453006
0.482632
4.43113
5.78292
11.6031
3.38837
31.1436
25.1777
66.3339
31.4561
3.59744
0
0
0
0
0
0
0
0
0
0
0
0
0.492429
1.40087
2.24024
3.04269
3.81689
4.54766
5.23022
5.83849
6.36594
6.8319
7.27549
7.70592
8.11806
8.51605
8.90162
9.28654
9.66289
10.0431
10.4272
10.8356
11.2699
11.7392
12.2432
12.7756
13.3403
13.9316
14.566
15.2433
15.9581
16.7244
17.5497
18.4324
19.3815
20.414
21.5355
22.7706
24.1304
25.6521
27.3543
29.2873
31.5879
34.3749
37.7045
41.7678
46.8094
52.9458
59.6175
65.8366
73.2331
79.8601
70.6237
34.9555
10.7232
7.87037
7.53719
4.97323
3.61343
3.7718
3.95503
1.45931
8.57311
9.86232
18.2388
22.4034
57.1546
56.5904
13.4088
0
0
0
0
0
0
0
0
0
0
0
0
0
0.492234
1.40002
2.23925
3.04204
3.81607
4.55102
5.22355
5.8309
6.36359
6.83763
7.27162
7.70603
8.11895
8.51919
8.90226
9.28303
9.66621
10.0511
10.4384
10.8441
11.2792
11.7482
12.2495
12.7839
13.3482
13.9437
14.5725
15.2489
15.9696
16.7341
17.5563
18.4442
19.3901
20.4114
21.5282
22.7448
24.0921
25.5888
27.2634
29.1614
31.3754
34.0428
37.2556
41.1408
45.9347
51.8069
58.4818
64.8824
71.7668
79.6077
77.5787
49.3377
16.2648
8.48163
8.22697
6.13602
3.78604
3.93571
4.10838
5.5873
1.84077
8.98106
13.309
33.5843
24.0191
71.8737
29.8991
3.74918
0
0
0
0
0
0
0
0
0
0
0
0
0
0.492048
1.39927
2.23814
3.04091
3.81522
4.54997
5.22617
5.82605
6.35583
6.83451
7.27333
7.70268
8.11851
8.5196
8.90513
9.28638
9.66638
10.0508
10.4498
10.8545
11.2899
11.7595
12.2585
12.7916
13.3561
13.9551
14.583
15.2554
15.9748
16.7447
17.5656
18.445
19.3972
20.4154
21.5217
22.7276
24.06
25.5332
27.1852
29.0494
31.2073
33.7717
36.8516
40.5796
45.1493
50.7752
57.3262
63.9093
70.3783
78.6012
81.3201
61.6467
23.9032
9.14877
8.28856
7.09428
5.21047
3.79744
0.672866
5.70558
3.87868
3.83437
4.6805
25.0924
17.2617
61.7109
55.5767
12.7449
0
0
0
0
0
0
0
0
0
0
0
0
0
0
0.491879
1.39906
2.23726
3.03966
3.81366
4.549
5.22452
5.82611
6.3514
6.82238
7.27013
7.69763
8.11414
8.51429
8.90524
9.28985
9.66975
10.0522
10.4493
10.8622
11.2999
11.7703
12.2719
12.7991
13.3652
13.9641
14.5957
15.2668
15.9813
16.7485
17.5731
18.4528
19.3998
20.423
21.5234
22.7184
24.0356
25.4903
27.112
28.9425
31.0566
33.5523
36.5096
40.0788
44.4545
49.8423
56.2401
62.9374
69.2984
77.1707
83.2613
71.4699
33.875
11.2432
7.55019
6.11766
2.50026
1.33529
1.34819
0.59562
4.48443
1.86869
7.96994
8.46492
26.6392
26.8265
70.0715
30.0497
3.9345
0
0
0
0
0
0
0
0
0
0
0
0
0
0
0.491699
1.3986
2.23691
3.03862
3.8123
4.54723
5.22315
5.82488
6.35191
6.81705
7.2613
7.69436
8.10948
8.50967
8.8997
9.2849
9.66836
10.0583
10.4466
10.8606
11.3028
11.7787
12.2809
12.8107
13.3742
13.9723
14.6055
15.2777
15.9948
16.7559
17.5761
18.4588
19.4047
20.4301
21.532
22.7213
24.0193
25.4597
27.0547
28.8516
30.916
33.3532
36.2261
39.6594
43.8397
48.9938
55.2083
62.007
68.3908
75.7667
83.5816
78.9011
47.4225
15.8245
8.25435
6.13594
2.4414
2.46725
4.02533
0.959451
4.11159
1.49261
11.1559
14.3042
19.5157
8.03234
68.6603
54.8939
7.82666
0
0
0
0
0
0
0
0
0
0
0
0
0
0
0
0.49153
1.39812
2.23611
3.03798
3.81086
4.54544
5.22178
5.82358
6.35102
6.82167
7.25881
7.69032
8.10978
8.50442
8.89771
9.27915
9.66761
10.0566
10.456
10.8596
11.3024
11.7833
12.2909
12.8213
13.384
13.9801
14.6149
15.2888
16.0062
16.771
17.5824
18.4612
19.4059
20.4284
21.533
22.7247
24.0206
25.4384
27.0117
28.7775
30.7874
33.1619
35.9724
39.2885
43.3089
48.2374
54.2382
61.0042
67.5543
74.4696
82.9136
83.8279
60.1336
22.4071
9.59881
7.12756
5.20011
0.258094
4.02959
0.755737
3.96503
1.11767
9.19641
9.2571
10.2488
31.2227
48.2059
73.7135
25.9709
0
0
0
0
0
0
0
0
0
0
0
0
0
0
0
0
0.491351
1.39766
2.23543
3.03697
3.81046
4.5439
5.21998
5.82199
6.35003
6.81967
7.26117
7.68918
8.10515
8.50803
8.89608
9.28101
9.66506
10.056
10.4584
10.8687
11.3029
11.7846
12.2973
12.8324
13.3931
13.991
14.6237
15.3016
16.0186
16.7846
17.5976
18.4678
19.4082
20.4262
21.5279
22.7201
24.019
25.4259
26.9826
28.7212
30.6851
32.9893
35.7307
38.9673
42.8369
47.5705
53.348
60.0229
66.7246
73.299
81.7752
86.4408
70.4789
30.4132
10.7632
7.92994
5.23507
3.95074
0.589983
4.02279
4.07873
6.49477
1.10588
6.10684
4.40421
28.355
11.1456
70.0399
49.2003
7.0722
0
0
0
0
0
0
0
0
0
0
0
0
0
0
0
0
0.491177
1.39716
2.23456
3.03552
3.80916
4.5433
5.21815
5.82008
6.34841
6.81897
7.25945
7.68882
8.1014
8.50349
8.89552
9.28243
9.66262
10.0527
10.4566
10.8703
11.3097
11.7841
12.2981
12.8378
13.403
14.0004
14.6352
15.311
16.0319
16.7957
17.6098
18.483
19.4156
20.4244
21.5252
22.7166
24.0116
25.4219
26.9637
28.6792
30.6022
32.8352
35.5089
38.6662
42.4235
46.979
52.5517
59.1004
65.9085
72.4123
80.4762
87.5844
78.7271
42.3044
14.022
7.94593
6.454
5.4701
3.98154
0.789986
2.93309
6.47952
4.58553
9.79156
3.04168
15.9051
29.2706
38.7229
71.0697
22.4193
0
0
0
0
0
0
0
0
0
0
0
0
0
0
0
0
0
0.490998
1.39712
2.23411
3.03437
3.80743
4.54171
5.2174
5.81815
6.3463
6.81701
7.25814
7.68726
8.10257
8.49726
8.89093
9.27708
9.66327
10.0503
10.4536
10.8721
11.3102
11.7883
12.2968
12.8379
13.4073
14.0087
14.6452
15.3207
16.0423
16.8071
17.6231
18.4954
19.4292
20.432
21.5183
22.7088
24.001
25.4133
26.9534
28.6515
30.5407
32.7055
35.2989
38.3945
42.0465
46.4452
51.8226
58.2346
65.1512
71.6556
79.2626
87.6359
84.9351
55.4788
19.7158
8.7371
6.45749
3.9875
5.71445
4.36308
4.37024
1.18554
6.46659