/*--------------------------------*- C++ -*----------------------------------*\
| =========                 |                                                 |
| \\      /  F ield         | OpenFOAM: The Open Source CFD Toolbox           |
|  \\    /   O peration     | Version:  v2012                                 |
|   \\  /    A nd           | Website:  www.openfoam.com                      |
|    \\/     M anipulation  |                                                 |
\*---------------------------------------------------------------------------*/
FoamFile
{
    version     2.0;
    format      ascii;
    class       volScalarField;
    location    "13200";
    object      yPlus;
}
// * * * * * * * * * * * * * * * * * * * * * * * * * * * * * * * * * * * * * //

dimensions      [0 0 0 0 0 0 0];


internalField   uniform 0;

boundaryField
{
    base
    {
        type            calculated;
        value           nonuniform List<scalar> 
398
(
0.380762
0.0629824
0.0304461
0.0289019
0.03064
0.0325326
0.0338938
0.0347772
0.0351191
0.0351416
0.034986
0.0347218
0.0343992
0.0340248
0.0336568
0.0333014
0.0329498
0.0325975
0.0322363
0.0318415
0.0315024
0.0312287
0.0308708
0.0305678
0.0302694
0.0299884
0.0297042
0.0294432
0.0291731
0.028931
0.0286854
0.0284887
0.0282709
0.0280372
0.027833
0.027655
0.0275014
0.0273471
0.0271649
0.0269726
0.0268272
0.026731
0.0266298
0.0264982
0.0263652
0.0262359
0.0261111
0.0260081
0.0259471
0.0259097
0.0258587
0.0257772
0.025661
0.0255415
0.0254302
0.025339
0.025275
0.0252387
0.0252274
0.0252102
0.0251824
0.0251381
0.025088
0.0250312
0.0249701
0.0249039
0.024839
0.0247804
0.0247255
0.0246767
0.0246325
0.0245922
0.0245547
0.0245213
0.0244851
0.0244544
0.0244247
0.0243978
0.0243727
0.0243491
0.0243272
0.0243061
0.0242871
0.0242668
0.0242479
0.0242281
0.0242089
0.0241891
0.0241696
0.0241504
0.024132
0.0241142
0.024098
0.0240814
0.024069
0.0240389
0.0231651
0.0138029
0.0114064
0.0262696
0.0304959
0.0323609
0.033668
0.0353333
0.0368168
0.0380577
0.0393203
0.0406029
0.0419478
0.0433147
0.0446799
0.0459771
0.0471926
0.0483109
0.049343
0.0503032
0.0512231
0.052147
0.0531248
0.0541998
0.0554097
0.056778
0.0583232
0.0600469
0.0619432
0.0639995
0.0662102
0.06856
0.0709903
0.0734725
0.0760401
0.0786716
0.0810387
0.0830514
0.0849856
0.0866878
0.0880424
0.0889926
0.0894035
0.089023
0.0876928
0.0851661
0.0810324
0.0747148
0.065525
0.0529564
0.0373397
0.0197648
0.0150647
0.0128781
0.00703587
0.0122241
0.0183518
0.0258825
0.0347999
0.0443565
0.0538425
0.0628043
0.0710543
0.0784846
0.0853479
0.0914168
0.0969822
0.102044
0.106803
0.111301
0.115388
0.119302
0.123225
0.126951
0.130423
0.133878
0.137467
0.141039
0.144643
0.148414
0.15219
0.155876
0.159686
0.163788
0.16829
0.173018
0.177646
0.182543
0.188033
0.193829
0.199877
0.206387
0.21338
0.22091
0.229194
0.237971
0.247473
0.257745
0.268818
0.281319
0.294931
0.310042
0.32678
0.344723
0.36448
0.387054
0.413951
0.443287
0.474255
0.511767
0.558388
0.616874
0.683882
0.760651
0.852307
0.960883
1.08832
1.21195
1.32755
1.45413
1.62387
1.80727
1.99727
2.21937
2.47646
2.77199
3.10052
3.45855
3.89577
4.44301
5.03028
5.74997
6.63731
7.54827
8.66831
9.96561
11.2667
12.7276
14.3065
15.8934
17.5883
19.31
20.7295
22.0782
23.1039
23.5436
23.323
22.8333
22.258
21.7301
21.1006
20.4132
19.6651
18.9113
18.158
17.4326
16.7102
16.1853
15.7574
15.5026
15.2653
15.0817
14.9437
14.7185
14.6216
14.4745
14.2173
14.109
14.1278
13.9812
13.9634
13.9055
13.7483
13.7905
13.7805
13.6226
13.4577
13.3691
13.4283
13.5619
13.508
13.3475
13.2332
13.1771
13.2552
13.295
13.2185
13.0428
13.0151
13.0368
12.8512
13.1112
13.1125
12.9964
12.9719
12.9186
12.9237
12.7255
13.0957
12.8694
12.7576
12.7287
12.5646
12.8231
12.6663
11.9318
12.7313
12.7085
12.588
12.5258
11.8415
11.6407
11.5089
11.3519
11.3554
11.4538
12.1542
11.8673
11.2398
11.2228
12.1112
12.5754
12.2994
11.1508
10.6842
11.0758
11.2891
11.241
11.4811
11.6932
11.3445
11.0122
11.2286
11.2092
10.8234
10.4733
10.4313
10.9172
10.3579
11.1705
10.7705
10.508
10.6057
10.6431
10.8691
10.9203
9.57099
9.90817
9.95946
10.8966
10.7673
10.1451
10.7967
11.0451
10.7818
10.3582
10.0014
11.045
10.7498
9.75264
10.1898
10.217
10.9086
10.0738
10.4515
10.1854
10.2618
10.2507
9.22321
10.0248
10.252
10.4721
10.0339
8.53293
9.29839
9.54699
9.5214
10.326
10.3776
9.61692
9.81201
9.7278
9.87607
8.93136
9.52751
10.4083
10.6081
10.701
10.0116
9.7031
10.1935
10.6592
10.2546
10.2669
10.5084
10.645
9.83198
9.50155
9.4782
9.96965
9.85394
9.6826
)
;
    }
    frontAndBack
    {
        type            empty;
    }
    inlet
    {
        type            calculated;
        value           uniform 0;
    }
    outlet
    {
        type            calculated;
        value           uniform 0;
    }
    top
    {
        type            calculated;
        value           uniform 0;
    }
}


// ************************************************************************* //
