# Wall heat-flux
# Time        	patch         	min           	max           	integral      
2800          	base	-1.846823e+06	-5.992629e+04	-2.632938e+02
