# y+ ()       
# Time        	patch         	min           	max           	average       
7700          	base	5.013682e-03	6.370920e-01	2.601656e-01
