# p  FACE_DATA 203
# x  y  z  p
-0.873265 0 0.0205 3482.01
-0.846493 0 0.0205 2970.73
-0.820677 0 0.0205 2839.45
-0.795786 0 0.0205 2787.66
-0.771783 0 0.0205 2769.94
-0.74637 0 0.0205 2769.59
-0.719597 0 0.0205 2767.52
-0.693782 0 0.0205 2762.97
-0.66889 0 0.0205 2760.1
-0.644887 0 0.0205 2759.74
-0.621743 0 0.0205 2759.31
-0.599426 0 0.0205 2757.55
-0.577905 0 0.0205 2755.37
-0.557154 0 0.0205 2753.51
-0.537145 0 0.0205 2752.28
-0.517849 0 0.0205 2751.1
-0.499243 0 0.0205 2749.45
-0.481301 0 0.0205 2747.79
-0.463999 0 0.0205 2746.58
-0.447314 0 0.0205 2746.09
-0.431225 0 0.0205 2746.23
-0.41571 0 0.0205 2745.94
-0.400747 0 0.0205 2744.44
-0.386317 0 0.0205 2742.34
-0.372401 0 0.0205 2740.18
-0.358981 0 0.0205 2738.59
-0.346039 0 0.0205 2737.89
-0.333556 0 0.0205 2738.12
-0.321518 0 0.0205 2739.34
-0.309908 0 0.0205 2740.79
-0.298709 0 0.0205 2741.72
-0.287908 0 0.0205 2741.93
-0.27749 0 0.0205 2740.89
-0.267441 0 0.0205 2738.95
-0.257748 0 0.0205 2736.49
-0.248397 0 0.0205 2733.91
-0.239378 0 0.0205 2731.49
-0.230677 0 0.0205 2729.49
-0.222282 0 0.0205 2728.19
-0.214183 0 0.0205 2727.67
-0.20637 0 0.0205 2727.77
-0.19883 0 0.0205 2728.66
-0.191555 0 0.0205 2729.99
-0.184536 0 0.0205 2731.64
-0.177762 0 0.0205 2733.45
-0.171224 0 0.0205 2735.23
-0.164914 0 0.0205 2736.85
-0.158824 0 0.0205 2738.12
-0.152944 0 0.0205 2739.05
-0.147268 0 0.0205 2739.6
-0.141788 0 0.0205 2739.79
-0.136496 0 0.0205 2739.74
-0.131387 0 0.0205 2739.34
-0.126452 0 0.0205 2738.73
-0.121685 0 0.0205 2737.93
-0.117081 0 0.0205 2736.93
-0.112632 0 0.0205 2735.78
-0.108332 0 0.0205 2734.49
-0.104177 0 0.0205 2733.1
-0.100161 0 0.0205 2731.66
-0.0962773 0 0.0205 2730.19
-0.0925221 0 0.0205 2728.72
-0.08889 0 0.0205 2727.25
-0.0853762 0 0.0205 2725.83
-0.0819759 0 0.0205 2724.51
-0.0786847 0 0.0205 2723.31
-0.0754981 0 0.0205 2722.26
-0.0724121 0 0.0205 2721.37
-0.0694223 0 0.0205 2720.65
-0.066525 0 0.0205 2720.64
-0.0637161 0 0.0205 2723.2
-0.060992 0 0.0205 2728.11
-0.0583491 0 0.0205 2735.01
-0.0557837 0 0.0205 2744.48
-0.0532926 0 0.0205 2756.83
-0.0508723 0 0.0205 2769.48
-0.0485197 0 0.0205 2781.42
-0.0462317 0 0.0205 2792.36
-0.0440053 0 0.0205 2804.53
-0.0418373 0 0.0205 2821.51
-0.039725 0 0.0205 2850.23
-0.0376655 0 0.0205 2895.86
-0.0356562 0 0.0205 2969.35
-0.0336943 0 0.0205 3088.73
-0.0317773 0 0.0205 3279.36
-0.0299025 0 0.0205 3570.16
-0.0280674 0 0.0205 3974.39
-0.0262697 0 0.0205 4458.03
-0.024507 0 0.0205 4976.03
-0.0227768 0 0.0205 5478.54
-0.021077 0 0.0205 5957.82
-0.0194052 0 0.0205 6406.07
-0.0177593 0 0.0205 6826.73
-0.016137 0 0.0205 7217.47
-0.014536 0 0.0205 7580.07
-0.0129545 0 0.0205 7919.14
-0.0113902 0 0.0205 8237.7
-0.00984104 0 0.0205 8535.64
-0.00830498 0 0.0205 8817.04
-0.00677997 0 0.0205 9074.17
-0.00526398 0 0.0205 9303.84
-0.00375499 0 0.0205 9502.22
-0.002251 0 0.0205 9716.09
-0.00075 0 0.0205 10192.7
0.000689475 0.000398068 0.0205 10296.5
0.00206843 0.0011942 0.0205 10902.3
0.00344737 0.00199034 0.0205 11911.1
0.00482631 0.00278648 0.0205 13118.9
0.00620527 0.00358261 0.0205 14632.7
0.00758422 0.00437875 0.0205 16460.2
0.00896317 0.00517489 0.0205 18656.9
0.0103421 0.00597102 0.0205 21286.2
0.0117211 0.00676715 0.0205 24392.4
0.0131 0.00756329 0.0205 28021.5
0.0144789 0.00835943 0.0205 32215.1
0.0158579 0.00915557 0.0205 37054.4
0.0172368 0.00995171 0.0205 42641.3
0.0186158 0.0107478 0.0205 49575.9
0.0199947 0.0115439 0.0205 57956.8
0.0213737 0.0123401 0.0205 67631.4
0.0227526 0.0131362 0.0205 78505.7
0.0241316 0.0139323 0.0205 89979.5
0.0255106 0.0147285 0.0205 101202
0.0268895 0.0155246 0.0205 111333
0.0282685 0.0163208 0.0205 119753
0.0296474 0.0171169 0.0205 125768
0.0310264 0.017913 0.0205 128333
0.0324053 0.0187092 0.0205 128739
0.0337843 0.0195054 0.0205 122245
0.0351632 0.0203015 0.0205 117266
0.0365421 0.0210976 0.0205 114456
0.037921 0.0218938 0.0205 112639
0.0393 0.0226898 0.0205 110989
0.0406789 0.023486 0.0205 108935
0.0420579 0.0242821 0.0205 106725
0.0434368 0.0250783 0.0205 104491
0.0448158 0.0258745 0.0205 102127
0.0461948 0.0266706 0.0205 100477
0.0475737 0.0274667 0.0205 99820.8
0.0489527 0.0282628 0.0205 99869
0.0503316 0.029059 0.0205 100348
0.0517106 0.0298551 0.0205 100875
0.0530895 0.0306512 0.0205 100843
0.0544684 0.0314473 0.0205 100703
0.0558474 0.0322435 0.0205 100638
0.0572264 0.0330397 0.0205 100823
0.0586053 0.0338357 0.0205 101034
0.0599842 0.0346319 0.0205 101261
0.0613632 0.0354281 0.0205 101330
0.0627422 0.0362242 0.0205 101569
0.0641211 0.0370204 0.0205 101863
0.0655001 0.0378164 0.0205 102156
0.066879 0.0386126 0.0205 102329
0.0682579 0.0394088 0.0205 102194
0.0696369 0.0402049 0.0205 101671
0.0710158 0.041001 0.0205 101066
0.0723947 0.0417971 0.0205 100626
0.0737737 0.0425932 0.0205 100425
0.0751527 0.0433894 0.0205 100689
0.0765316 0.0441856 0.0205 101208
0.0779106 0.0449817 0.0205 101830
0.0792895 0.0457778 0.0205 102178
0.0806685 0.0465739 0.0205 102217
0.0820474 0.0473701 0.0205 101897
0.0834263 0.0481662 0.0205 101445
0.0848053 0.0489624 0.0205 100969
0.0861843 0.0497585 0.0205 100692
0.0875632 0.0505546 0.0205 100577
0.0889421 0.0513508 0.0205 100808
0.0903211 0.0521469 0.0205 101204
0.0917 0.0529431 0.0205 101762
0.093079 0.0537392 0.0205 102301
0.094458 0.0545353 0.0205 102795
0.0958369 0.0553315 0.0205 102900
0.0972159 0.0561276 0.0205 102906
0.0985948 0.0569238 0.0205 102677
0.0999737 0.0577198 0.0205 102374
0.101352 0.058516 0.0205 102000
0.102732 0.0593121 0.0205 101737
0.10411 0.0601083 0.0205 101586
0.105489 0.0609044 0.0205 101530
0.106868 0.0617005 0.0205 101658
0.108248 0.0624967 0.0205 101888
0.109627 0.0632928 0.0205 102192
0.111006 0.064089 0.0205 102497
0.112385 0.0648851 0.0205 102781
0.113764 0.0656812 0.0205 102936
0.115143 0.0664774 0.0205 102987
0.116522 0.0672735 0.0205 102971
0.117901 0.0680697 0.0205 102848
0.119279 0.0688658 0.0205 102753
0.120658 0.0696619 0.0205 102370
0.122037 0.0704581 0.0205 102059
0.123415 0.0712542 0.0205 101768
0.124794 0.0720503 0.0205 101566
0.126173 0.0728465 0.0205 101410
0.127552 0.0736426 0.0205 101334
0.128931 0.0744387 0.0205 101355
0.13031 0.0752348 0.0205 101434
0.131689 0.076031 0.0205 101572
0.133069 0.0768271 0.0205 101731
0.134447 0.0776233 0.0205 101891
0.135827 0.0784194 0.0205 101825
