# wallHeatFlux  FACE_DATA 203
# x  y  z  wallHeatFlux
-0.873265 0 0.0205 -297614
-0.846493 0 0.0205 -78238.6
-0.820677 0 0.0205 -76593.1
-0.795786 0 0.0205 -75372.3
-0.771783 0 0.0205 -74470
-0.74637 0 0.0205 -73886.1
-0.719597 0 0.0205 -73196.1
-0.693782 0 0.0205 -72399.9
-0.66889 0 0.0205 -71497.5
-0.644887 0 0.0205 -70595.2
-0.621743 0 0.0205 -70011.3
-0.599426 0 0.0205 -69639.8
-0.577905 0 0.0205 -69215.1
-0.557154 0 0.0205 -68472
-0.537145 0 0.0205 -67728.9
-0.517849 0 0.0205 -67198.1
-0.499243 0 0.0205 -66773.5
-0.481301 0 0.0205 -66455
-0.463999 0 0.0205 -66083.5
-0.447314 0 0.0205 -65658.8
-0.431225 0 0.0205 -65234.2
-0.41571 0 0.0205 -64862.6
-0.400747 0 0.0205 -64597.2
-0.386317 0 0.0205 -64278.8
-0.372401 0 0.0205 -64013.4
-0.358981 0 0.0205 -63748
-0.346039 0 0.0205 -63482.6
-0.333556 0 0.0205 -63217.2
-0.321518 0 0.0205 -63004.9
-0.309908 0 0.0205 -62739.5
-0.298709 0 0.0205 -62527.2
-0.287908 0 0.0205 -62367.9
-0.27749 0 0.0205 -62155.6
-0.267441 0 0.0205 -61996.4
-0.257748 0 0.0205 -61784.1
-0.248397 0 0.0205 -61624.8
-0.239378 0 0.0205 -61465.6
-0.230677 0 0.0205 -61253.3
-0.222282 0 0.0205 -61147.1
-0.214183 0 0.0205 -60987.9
-0.20637 0 0.0205 -60881.7
-0.19883 0 0.0205 -60775.6
-0.191555 0 0.0205 -60669.4
-0.184536 0 0.0205 -60616.3
-0.177762 0 0.0205 -60563.2
-0.171224 0 0.0205 -60510.2
-0.164914 0 0.0205 -60457.1
-0.158824 0 0.0205 -60404
-0.152944 0 0.0205 -60297.8
-0.147268 0 0.0205 -60244.8
-0.141788 0 0.0205 -60138.6
-0.136496 0 0.0205 -60032.4
-0.131387 0 0.0205 -59926.3
-0.126452 0 0.0205 -59873.2
-0.121685 0 0.0205 -59767
-0.117081 0 0.0205 -59660.9
-0.112632 0 0.0205 -59554.7
-0.108332 0 0.0205 -59448.6
-0.104177 0 0.0205 -59395.5
-0.100161 0 0.0205 -59289.3
-0.0962773 0 0.0205 -59183.2
-0.0925221 0 0.0205 -59077
-0.08889 0 0.0205 -58970.9
-0.0853762 0 0.0205 -58864.7
-0.0819759 0 0.0205 -58758.5
-0.0786847 0 0.0205 -58652.4
-0.0754981 0 0.0205 -58599.3
-0.0724121 0 0.0205 -58546.2
-0.0694223 0 0.0205 -58440.1
-0.066525 0 0.0205 -58280.8
-0.0637161 0 0.0205 -57697
-0.060992 0 0.0205 -56370
-0.0583491 0 0.0205 -54565.3
-0.0557837 0 0.0205 -52282.9
-0.0532926 0 0.0205 -49522.8
-0.0508723 0 0.0205 -46338
-0.0485197 0 0.0205 -43259.5
-0.0462317 0 0.0205 -40499.3
-0.0440053 0 0.0205 -38163.9
-0.0418373 0 0.0205 -35828.4
-0.039725 0 0.0205 -33068.3
-0.0376655 0 0.0205 -29299.7
-0.0356562 0 0.0205 -24151
-0.0336943 0 0.0205 -17940.7
-0.0317773 0 0.0205 -12261.3
-0.0299025 0 0.0205 -9660.39
-0.0280674 0 0.0205 -12261.3
-0.0262697 0 0.0205 -19267.7
-0.024507 0 0.0205 -28768.9
-0.0227768 0 0.0205 -37845.4
-0.021077 0 0.0205 -46497.3
-0.0194052 0 0.0205 -54246.8
-0.0177593 0 0.0205 -61306.3
-0.016137 0 0.0205 -67410.4
-0.014536 0 0.0205 -72771.4
-0.0129545 0 0.0205 -77548.5
-0.0113902 0 0.0205 -81847.9
-0.00984104 0 0.0205 -85882
-0.00830498 0 0.0205 -90075.2
-0.00677997 0 0.0205 -94693.1
-0.00526398 0 0.0205 -100532
-0.00375499 0 0.0205 -108441
-0.002251 0 0.0205 -119269
-0.00075 0 0.0205 -124948
0.000689475 0.000398068 0.0205 -140539
0.00206843 0.0011942 0.0205 -175352
0.00344737 0.00199034 0.0205 -206182
0.00482631 0.00278648 0.0205 -238787
0.00620527 0.00358261 0.0205 -277830
0.00758422 0.00437875 0.0205 -324472
0.00896317 0.00517489 0.0205 -380735
0.0103421 0.00597102 0.0205 -448400
0.0117211 0.00676715 0.0205 -528389
0.0131 0.00756329 0.0205 -620622
0.0144789 0.00835943 0.0205 -726912
0.0158579 0.00915557 0.0205 -848863
0.0172368 0.00995171 0.0205 -983915
0.0186158 0.0107478 0.0205 -1.14629e+06
0.0199947 0.0115439 0.0205 -1.33864e+06
0.0213737 0.0123401 0.0205 -1.5829e+06
0.0227526 0.0131362 0.0205 -1.82302e+06
0.0241316 0.0139323 0.0205 -2.0443e+06
0.0255106 0.0147285 0.0205 -2.28602e+06
0.0268895 0.0155246 0.0205 -2.4618e+06
0.0282685 0.0163208 0.0205 -2.61276e+06
0.0296474 0.0171169 0.0205 -2.71873e+06
0.0310264 0.017913 0.0205 -2.71449e+06
0.0324053 0.0187092 0.0205 -2.68645e+06
0.0337843 0.0195054 0.0205 -2.55378e+06
0.0351632 0.0203015 0.0205 -2.46148e+06
0.0365421 0.0210976 0.0205 -2.3757e+06
0.037921 0.0218938 0.0205 -2.30776e+06
0.0393 0.0226898 0.0205 -2.21517e+06
0.0406789 0.023486 0.0205 -2.16699e+06
0.0420579 0.0242821 0.0205 -2.0831e+06
0.0434368 0.0250783 0.0205 -2.00303e+06
0.0448158 0.0258745 0.0205 -1.9281e+06
0.0461948 0.0266706 0.0205 -1.8384e+06
0.0475737 0.0274667 0.0205 -1.77946e+06
0.0489527 0.0282628 0.0205 -1.74083e+06
0.0503316 0.029059 0.0205 -1.70022e+06
0.0517106 0.0298551 0.0205 -1.67616e+06
0.0530895 0.0306512 0.0205 -1.63734e+06
0.0544684 0.0314473 0.0205 -1.57436e+06
0.0558474 0.0322435 0.0205 -1.54215e+06
0.0572264 0.0330397 0.0205 -1.49677e+06
0.0586053 0.0338357 0.0205 -1.44072e+06
0.0599842 0.0346319 0.0205 -1.42216e+06
0.0613632 0.0354281 0.0205 -1.38667e+06
0.0627422 0.0362242 0.0205 -1.35676e+06
0.0641211 0.0370204 0.0205 -1.33476e+06
0.0655001 0.0378164 0.0205 -1.30291e+06
0.066879 0.0386126 0.0205 -1.2759e+06
0.0682579 0.0394088 0.0205 -1.25486e+06
0.0696369 0.0402049 0.0205 -1.22256e+06
0.0710158 0.041001 0.0205 -1.19107e+06
0.0723947 0.0417971 0.0205 -1.16586e+06
0.0737737 0.0425932 0.0205 -1.13244e+06
0.0751527 0.0433894 0.0205 -1.13342e+06
0.0765316 0.0441856 0.0205 -1.12993e+06
0.0779106 0.0449817 0.0205 -1.12226e+06
0.0792895 0.0457778 0.0205 -1.12147e+06
0.0806685 0.0465739 0.0205 -1.10801e+06
0.0820474 0.0473701 0.0205 -1.09153e+06
0.0834263 0.0481662 0.0205 -1.08429e+06
0.0848053 0.0489624 0.0205 -1.0622e+06
0.0861843 0.0497585 0.0205 -1.05006e+06
0.0875632 0.0505546 0.0205 -1.04112e+06
0.0889421 0.0513508 0.0205 -1.02361e+06
0.0903211 0.0521469 0.0205 -1.02945e+06
0.0917 0.0529431 0.0205 -1.02839e+06
0.093079 0.0537392 0.0205 -1.01391e+06
0.094458 0.0545353 0.0205 -1.02585e+06
0.0958369 0.0553315 0.0205 -1.01869e+06
0.0972159 0.0561276 0.0205 -1.01071e+06
0.0985948 0.0569238 0.0205 -1.0079e+06
0.0999737 0.0577198 0.0205 -992510
0.101352 0.058516 0.0205 -979003
0.102732 0.0593121 0.0205 -975172
0.10411 0.0601083 0.0205 -964569
0.105489 0.0609044 0.0205 -955222
0.106868 0.0617005 0.0205 -947960
0.108248 0.0624967 0.0205 -931963
0.109627 0.0632928 0.0205 -940941
0.111006 0.064089 0.0205 -940115
0.112385 0.0648851 0.0205 -936099
0.113764 0.0656812 0.0205 -939502
0.115143 0.0664774 0.0205 -931289
0.116522 0.0672735 0.0205 -924392
0.117901 0.0680697 0.0205 -923873
0.119279 0.0688658 0.0205 -912945
0.120658 0.0696619 0.0205 -899876
0.122037 0.0704581 0.0205 -892003
0.123415 0.0712542 0.0205 -872329
0.124794 0.0720503 0.0205 -873459
0.126173 0.0728465 0.0205 -866568
0.127552 0.0736426 0.0205 -849774
0.128931 0.0744387 0.0205 -856788
0.13031 0.0752348 0.0205 -852655
0.131689 0.076031 0.0205 -850598
0.133069 0.0768271 0.0205 -858232
0.134447 0.0776233 0.0205 -853023
0.135827 0.0784194 0.0205 -859179
