# wallHeatFlux  FACE_DATA 398
# x  y  z  wallHeatFlux
-0.7975 0 0.025 -653671
-0.79239 0 0.025 -120050
-0.787056 0 0.025 -71313.3
-0.781492 0 0.025 -64434.2
-0.775691 0 0.025 -65889.3
-0.769649 0 0.025 -66727.5
-0.763362 0 0.025 -67339.1
-0.756822 0 0.025 -67248.7
-0.750025 0 0.025 -66727.2
-0.742968 0 0.025 -65972.3
-0.735648 0 0.025 -65104
-0.72806 0 0.025 -64160.5
-0.720203 0 0.025 -63164.3
-0.712076 0 0.025 -62259.5
-0.703677 0 0.025 -61444.3
-0.695006 0 0.025 -60670.8
-0.686065 0 0.025 -59944.7
-0.676855 0 0.025 -59244.6
-0.667379 0 0.025 -58543.2
-0.65764 0 0.025 -57862.9
-0.647644 0 0.025 -57280.8
-0.637397 0 0.025 -56745.5
-0.626906 0 0.025 -56136.2
-0.616179 0 0.025 -55639.4
-0.605224 0 0.025 -55132.5
-0.594054 0 0.025 -54623.3
-0.582678 0 0.025 -54126.4
-0.57111 0 0.025 -53686.5
-0.559364 0 0.025 -53267
-0.547454 0 0.025 -52865.8
-0.535396 0 0.025 -52414.6
-0.523205 0 0.025 -52012.6
-0.510901 0 0.025 -51648.4
-0.4985 0 0.025 -51311.8
-0.486021 0 0.025 -51000.5
-0.473483 0 0.025 -50660.1
-0.460905 0 0.025 -50311.2
-0.448308 0 0.025 -49988.3
-0.435709 0 0.025 -49695.7
-0.42313 0 0.025 -49416.1
-0.41059 0 0.025 -49194.5
-0.39811 0 0.025 -48971.2
-0.385706 0 0.025 -48718.9
-0.373398 0 0.025 -48455.9
-0.361205 0 0.025 -48207.9
-0.349141 0 0.025 -47979.2
-0.337226 0 0.025 -47766.6
-0.325475 0 0.025 -47574.8
-0.313901 0 0.025 -47409.7
-0.30252 0 0.025 -47275.9
-0.291343 0 0.025 -47127.2
-0.280382 0 0.025 -46957.1
-0.269646 0 0.025 -46791.3
-0.259148 0 0.025 -46631.5
-0.248893 0 0.025 -46478.9
-0.23889 0 0.025 -46337.5
-0.229143 0 0.025 -46201
-0.219659 0 0.025 -46071.6
-0.210441 0 0.025 -45936.6
-0.201491 0 0.025 -45794.3
-0.192812 0 0.025 -45649.7
-0.184405 0 0.025 -45520.5
-0.176269 0 0.025 -45410.7
-0.168404 0 0.025 -45324.3
-0.160808 0 0.025 -45264.7
-0.15348 0 0.025 -45218.9
-0.146415 0 0.025 -45195.4
-0.13961 0 0.025 -45175.8
-0.133063 0 0.025 -45158.2
-0.126767 0 0.025 -45136.2
-0.120718 0 0.025 -45104.1
-0.11491 0 0.025 -45056.7
-0.109339 0 0.025 -44993.9
-0.103997 0 0.025 -44924.9
-0.0988805 0 0.025 -44849.5
-0.0939808 0 0.025 -44766
-0.0892928 0 0.025 -44684
-0.0848096 0 0.025 -44607.4
-0.0805248 0 0.025 -44531.3
-0.0764316 0 0.025 -44455.5
-0.0725237 0 0.025 -44385
-0.0687943 0 0.025 -44320.7
-0.065237 0 0.025 -44266.5
-0.0618454 0 0.025 -44207.9
-0.058613 0 0.025 -44159.2
-0.0555337 0 0.025 -44116.9
-0.0526013 0 0.025 -44079.3
-0.0498099 0 0.025 -44042
-0.0471536 0 0.025 -44015.4
-0.0446266 0 0.025 -43988.8
-0.0422235 0 0.025 -43967.7
-0.039939 0 0.025 -43946.5
-0.0377676 0 0.025 -43935.6
-0.0357044 0 0.025 -43925.9
-0.0337445 0 0.025 -43915
-0.0318832 0 0.025 -43529.3
-0.0301159 0 0.025 -38806.6
-0.0284383 0 0.025 -28812.4
-0.0268461 0 0.025 -35014.6
-0.0253353 0 0.025 -52255.1
-0.023902 0 0.025 -63315.9
-0.0225426 0 0.025 -70682.7
-0.0212532 0 0.025 -76739.9
-0.0200306 0 0.025 -82227
-0.0188715 0 0.025 -86825.9
-0.0177728 0 0.025 -90916.4
-0.0167313 0 0.025 -94562.6
-0.0157444 0 0.025 -97823.6
-0.0148092 0 0.025 -100821
-0.0139232 0 0.025 -103600
-0.0130838 0 0.025 -106157
-0.0122887 0 0.025 -108445
-0.0115356 0 0.025 -110475
-0.0108223 0 0.025 -112266
-0.0101469 0 0.025 -113845
-0.00950727 0 0.025 -115237
-0.00890168 0 0.025 -116459
-0.00832835 0 0.025 -117564
-0.00778557 0 0.025 -118607
-0.00727176 0 0.025 -119637
-0.0067854 0 0.025 -120695
-0.00632507 0 0.025 -121817
-0.00588937 0 0.025 -123028
-0.00547703 0 0.025 -124346
-0.0050868 0 0.025 -125783
-0.00471753 0 0.025 -127355
-0.0043681 0 0.025 -129053
-0.00403746 0 0.025 -130884
-0.00372461 0 0.025 -132872
-0.0034286 0 0.025 -134998
-0.00314855 0 0.025 -137301
-0.0028836 0 0.025 -139828
-0.00263294 0 0.025 -142503
-0.00239581 0 0.025 -145045
-0.0021715 0 0.025 -147713
-0.00195929 0 0.025 -150511
-0.00175856 0 0.025 -153410
-0.00156869 0 0.025 -156385
-0.00138908 0 0.025 -159469
-0.0012192 0 0.025 -162588
-0.00105853 0 0.025 -165761
-0.000906546 0 0.025 -168971
-0.000762803 0 0.025 -172112
-0.000626848 0 0.025 -174895
-0.000498265 0 0.025 -176491
-0.000376656 0 0.025 -175158
-0.000261642 0 0.025 -167251
-0.00015287 0 0.025 -145720
-5e-05 0 0.025 -94315.2
4.14519e-05 2.79596e-05 0.025 -68038.3
0.000125371 8.45641e-05 0.025 -81764.2
0.000211347 0.000142556 0.025 -97025.3
0.000299429 0.000201968 0.025 -108149
0.000389669 0.000262835 0.025 -117583
0.000482118 0.000325193 0.025 -126476
0.000576831 0.000389077 0.025 -134802
0.000673861 0.000454524 0.025 -142331
0.000773265 0.000521574 0.025 -149005
0.0008751 0.000590262 0.025 -154910
0.000979426 0.000660632 0.025 -160156
0.0010863 0.000732721 0.025 -164859
0.00119579 0.000806572 0.025 -169195
0.00130795 0.000882227 0.025 -173226
0.00142285 0.00095973 0.025 -177021
0.00154056 0.00103912 0.025 -180673
0.00166115 0.00112046 0.025 -184206
0.00178467 0.00120378 0.025 -187709
0.00191121 0.00128913 0.025 -191198
0.00204083 0.00137656 0.025 -194643
0.00217362 0.00146612 0.025 -198147
0.00230964 0.00155787 0.025 -201704
0.00244897 0.00165185 0.025 -205269
0.00259169 0.00174812 0.025 -208924
0.00273789 0.00184673 0.025 -212674
0.00288765 0.00194774 0.025 -216563
0.00304105 0.00205122 0.025 -220551
0.00319818 0.00215719 0.025 -224661
0.00335912 0.00226575 0.025 -228972
0.00352397 0.00237695 0.025 -233413
0.00369283 0.00249085 0.025 -238057
0.00386579 0.00260751 0.025 -242889
0.00404294 0.00272699 0.025 -247963
0.00422438 0.00284938 0.025 -253297
0.00441022 0.00297474 0.025 -258910
0.00460056 0.00310312 0.025 -264812
0.00479552 0.00323462 0.025 -270979
0.00499519 0.0033693 0.025 -277534
0.00519968 0.00350723 0.025 -284399
0.00540911 0.00364849 0.025 -291722
0.00562361 0.00379318 0.025 -299454
0.00584329 0.00394134 0.025 -307625
0.00606826 0.00409309 0.025 -316376
0.00629865 0.00424849 0.025 -325526
0.0065346 0.00440764 0.025 -335297
0.00677623 0.00457063 0.025 -345717
0.00702368 0.00473753 0.025 -356748
0.00727707 0.00490844 0.025 -368703
0.00753655 0.00508347 0.025 -381465
0.00780227 0.00526269 0.025 -395154
0.00807436 0.00544622 0.025 -409952
0.00835298 0.00563415 0.025 -425678
0.00863826 0.00582659 0.025 -442655
0.00893038 0.00602362 0.025 -461276
0.00922949 0.00622537 0.025 -481463
0.00953574 0.00643195 0.025 -503559
0.00984929 0.00664345 0.025 -527546
0.0101703 0.00686 0.025 -553139
0.0104991 0.00708171 0.025 -584044
0.0108356 0.00730871 0.025 -618943
0.0111801 0.0075411 0.025 -655818
0.0115329 0.00777902 0.025 -697411
0.011894 0.00802259 0.025 -742089
0.0122637 0.00827194 0.025 -786148
0.0126421 0.00852719 0.025 -833068
0.0130295 0.0087885 0.025 -880828
0.013426 0.00905597 0.025 -923883
0.013832 0.00932978 0.025 -964107
0.0142475 0.00961003 0.025 -1.00747e+06
0.0146727 0.0098969 0.025 -1.05035e+06
0.0151081 0.0101905 0.025 -1.09416e+06
0.0155536 0.010491 0.025 -1.14146e+06
0.0160097 0.0107986 0.025 -1.19033e+06
0.0164764 0.0111134 0.025 -1.24313e+06
0.016954 0.0114356 0.025 -1.29857e+06
0.0174427 0.0117653 0.025 -1.35397e+06
0.0179429 0.0121026 0.025 -1.41227e+06
0.0184548 0.0124479 0.025 -1.48112e+06
0.0189786 0.0128013 0.025 -1.52896e+06
0.0195146 0.0131628 0.025 -1.57868e+06
0.020063 0.0135327 0.025 -1.63808e+06
0.0206242 0.0139112 0.025 -1.67556e+06
0.0211983 0.0142984 0.025 -1.70255e+06
0.0217857 0.0146947 0.025 -1.73589e+06
0.0223867 0.0151 0.025 -1.76423e+06
0.0230015 0.0155147 0.025 -1.78782e+06
0.0236304 0.0159389 0.025 -1.81813e+06
0.0242738 0.0163729 0.025 -1.82107e+06
0.0249318 0.0168167 0.025 -1.8384e+06
0.025605 0.0172708 0.025 -1.85023e+06
0.0262935 0.0177352 0.025 -1.82784e+06
0.0269977 0.0182102 0.025 -1.80152e+06
0.0277178 0.0186959 0.025 -1.7632e+06
0.0284544 0.0191927 0.025 -1.77572e+06
0.0292075 0.0197008 0.025 -1.71033e+06
0.0299777 0.0202203 0.025 -1.66643e+06
0.0307653 0.0207514 0.025 -1.6352e+06
0.0315704 0.0212945 0.025 -1.60491e+06
0.0323937 0.0218499 0.025 -1.57966e+06
0.0332354 0.0224176 0.025 -1.55248e+06
0.0340959 0.022998 0.025 -1.52867e+06
0.0349755 0.0235913 0.025 -1.49524e+06
0.0358747 0.0241978 0.025 -1.49248e+06
0.0367938 0.0248178 0.025 -1.45513e+06
0.0377331 0.0254513 0.025 -1.42666e+06
0.0386932 0.0260989 0.025 -1.40505e+06
0.0396743 0.0267606 0.025 -1.38638e+06
0.0406769 0.0274369 0.025 -1.37232e+06
0.0417013 0.0281279 0.025 -1.35793e+06
0.042748 0.0288339 0.025 -1.35886e+06
0.0438175 0.0295552 0.025 -1.34398e+06
0.04491 0.0302922 0.025 -1.32884e+06
0.0460262 0.031045 0.025 -1.32794e+06
0.0471662 0.031814 0.025 -1.33227e+06
0.0483306 0.0325995 0.025 -1.31959e+06
0.0495199 0.0334016 0.025 -1.32344e+06
0.0507344 0.0342208 0.025 -1.31963e+06
0.0519746 0.0350573 0.025 -1.31781e+06
0.0532409 0.0359114 0.025 -1.32106e+06
0.0545339 0.0367835 0.025 -1.30719e+06
0.0558538 0.0376739 0.025 -1.30335e+06
0.0572012 0.0385827 0.025 -1.30182e+06
0.0585766 0.0395104 0.025 -1.30087e+06
0.0599804 0.0404573 0.025 -1.31043e+06
0.061413 0.0414236 0.025 -1.29471e+06
0.0628748 0.0424096 0.025 -1.31804e+06
0.0643665 0.0434157 0.025 -1.32122e+06
0.0658883 0.0444422 0.025 -1.29758e+06
0.0674408 0.0454894 0.025 -1.28872e+06
0.0690245 0.0465576 0.025 -1.28839e+06
0.0706398 0.0476471 0.025 -1.27992e+06
0.0722871 0.0487582 0.025 -1.27114e+06
0.0739669 0.0498912 0.025 -1.2653e+06
0.0756797 0.0510466 0.025 -1.27522e+06
0.0774258 0.0522244 0.025 -1.28987e+06
0.0792059 0.053425 0.025 -1.28594e+06
0.0810203 0.0546489 0.025 -1.30838e+06
0.0828694 0.0558961 0.025 -1.27629e+06
0.0847537 0.0571671 0.025 -1.31641e+06
0.0866737 0.0584622 0.025 -1.27467e+06
0.0886298 0.0597816 0.025 -1.27572e+06
0.0906224 0.0611256 0.025 -1.28795e+06
0.0926518 0.0624944 0.025 -1.25574e+06
0.0947185 0.0638884 0.025 -1.29974e+06
0.096823 0.065308 0.025 -1.25756e+06
0.0989659 0.0667532 0.025 -1.34485e+06
0.101147 0.0682245 0.025 -1.69352e+06
0.103367 0.0697219 0.025 -1.59783e+06
0.105626 0.0712458 0.025 -1.20464e+06
0.107926 0.0727965 0.025 -1.19978e+06
0.110265 0.074374 0.025 -1.23898e+06
0.112644 0.0759789 0.025 -1.84437e+06
0.115063 0.0776111 0.025 -1.24095e+06
0.117524 0.0792709 0.025 -1.71413e+06
0.120026 0.0809585 0.025 -1.88136e+06
0.122569 0.0826741 0.025 -1.66973e+06
0.125155 0.0844179 0.025 -1.49241e+06
0.127782 0.0861901 0.025 -1.29557e+06
0.130451 0.0879908 0.025 -1.25262e+06
0.133163 0.08982 0.025 -1.23088e+06
0.135918 0.0916781 0.025 -1.20071e+06
0.138716 0.0935651 0.025 -1.20129e+06
0.141556 0.095481 0.025 -1.21067e+06
0.14444 0.097426 0.025 -1.59763e+06
0.147367 0.0994004 0.025 -2.36444e+06
0.150337 0.101404 0.025 -1.67723e+06
0.153351 0.103437 0.025 -1.62223e+06
0.156408 0.105498 0.025 -2.25955e+06
0.159508 0.107589 0.025 -1.02992e+06
0.162651 0.10971 0.025 -1.52362e+06
0.165838 0.111859 0.025 -3.61392e+06
0.169069 0.114039 0.025 -1.6427e+06
0.172343 0.116247 0.025 -1.99966e+06
0.175659 0.118483 0.025 -1.88887e+06
0.179018 0.120749 0.025 -1.88612e+06
0.182421 0.123045 0.025 -1.9535e+06
0.185866 0.125368 0.025 -1.71496e+06
0.189353 0.12772 0.025 -1.74985e+06
0.192882 0.1301 0.025 -1.8575e+06
0.196453 0.132509 0.025 -1.75567e+06
0.200065 0.134946 0.025 -2.17654e+06
0.203718 0.13741 0.025 -1.95774e+06
0.207412 0.139901 0.025 -929605
0.211146 0.14242 0.025 -992258
0.214919 0.144965 0.025 -1.6245e+06
0.218732 0.147537 0.025 -992175
0.222583 0.150134 0.025 -1.9442e+06
0.226472 0.152757 0.025 -982398
0.230399 0.155406 0.025 -1.84384e+06
0.234362 0.15808 0.025 -1.73506e+06
0.238362 0.160777 0.025 -2.33897e+06
0.242396 0.163498 0.025 -1.96495e+06
0.246466 0.166244 0.025 -2.12544e+06
0.250569 0.169012 0.025 -934617
0.254706 0.171801 0.025 -1.53818e+06
0.258874 0.174613 0.025 -1.53932e+06
0.263074 0.177446 0.025 -1.9556e+06
0.267304 0.180299 0.025 -1.58556e+06
0.271564 0.183172 0.025 -949261
0.275852 0.186064 0.025 -1.62771e+06
0.280168 0.188975 0.025 -923664
0.28451 0.191904 0.025 -1.65258e+06
0.288876 0.19485 0.025 -2.25759e+06
0.293268 0.197812 0.025 -1.61544e+06
0.297683 0.20079 0.025 -1.91199e+06
0.302119 0.203782 0.025 -2.02386e+06
0.306577 0.206788 0.025 -1.51287e+06
0.311054 0.209808 0.025 -1.5936e+06
0.315549 0.212841 0.025 -1.16518e+06
0.320063 0.215885 0.025 -2.00331e+06
0.324591 0.218939 0.025 -1.43306e+06
0.329134 0.222003 0.025 -1.41168e+06
0.333691 0.225077 0.025 -2.19355e+06
0.33826 0.228159 0.025 -1.78885e+06
0.342839 0.231248 0.025 -1.83081e+06
0.347428 0.234343 0.025 -874074
0.352025 0.237444 0.025 -1.92545e+06
0.356628 0.240548 0.025 -1.41212e+06
0.361237 0.243658 0.025 -1.15234e+06
0.36585 0.246769 0.025 -2.52373e+06
0.370465 0.249882 0.025 -1.04012e+06
0.375082 0.252996 0.025 -1.45444e+06
0.379698 0.25611 0.025 -2.18222e+06
0.384313 0.259223 0.025 -1.38579e+06
0.388926 0.262333 0.025 -1.70366e+06
0.393534 0.265442 0.025 -1.40648e+06
0.398136 0.268546 0.025 -878287
0.40273 0.271645 0.025 -1.61903e+06
0.407317 0.274739 0.025 -1.67722e+06
0.411894 0.277826 0.025 -2.08216e+06
0.41646 0.280906 0.025 -836497
0.421014 0.283977 0.025 -1.58713e+06
0.425554 0.28704 0.025 -1.8544e+06
0.430079 0.290092 0.025 -1.4775e+06
0.434588 0.293133 0.025 -1.8131e+06
0.439079 0.296162 0.025 -1.27351e+06
0.443551 0.299179 0.025 -1.65437e+06
0.448004 0.302183 0.025 -1.68201e+06
0.452437 0.305172 0.025 -1.64247e+06
0.456846 0.308146 0.025 -1.52576e+06
0.461232 0.311105 0.025 -1.55116e+06
0.465593 0.314047 0.025 -1.43651e+06
0.469929 0.316971 0.025 -1.90795e+06
0.474238 0.319878 0.025 -986231
0.47852 0.322766 0.025 -1.10345e+06
0.482773 0.325635 0.025 -875504
0.486996 0.328483 0.025 -1.31434e+06
0.491189 0.331311 0.025 -1.9816e+06
0.49535 0.334118 0.025 -1.2791e+06
