# p  FACE_DATA 203
# x  y  z  p
-0.873265 0 0.0205 3482
-0.846493 0 0.0205 2971.72
-0.820677 0 0.0205 2839.19
-0.795786 0 0.0205 2785.9
-0.771783 0 0.0205 2771.51
-0.74637 0 0.0205 2771.59
-0.719597 0 0.0205 2768.77
-0.693782 0 0.0205 2765.49
-0.66889 0 0.0205 2765.52
-0.644887 0 0.0205 2766.93
-0.621743 0 0.0205 2765.95
-0.599426 0 0.0205 2762.59
-0.577905 0 0.0205 2759.46
-0.557154 0 0.0205 2758.15
-0.537145 0 0.0205 2758.34
-0.517849 0 0.0205 2757.91
-0.499243 0 0.0205 2755.89
-0.481301 0 0.0205 2753.33
-0.463999 0 0.0205 2751.39
-0.447314 0 0.0205 2750.41
-0.431225 0 0.0205 2750.43
-0.41571 0 0.0205 2750.02
-0.400747 0 0.0205 2748.06
-0.386317 0 0.0205 2745.42
-0.372401 0 0.0205 2742.71
-0.358981 0 0.0205 2740.65
-0.346039 0 0.0205 2739.67
-0.333556 0 0.0205 2739.7
-0.321518 0 0.0205 2740.81
-0.309908 0 0.0205 2742.23
-0.298709 0 0.0205 2743.11
-0.287908 0 0.0205 2742.6
-0.27749 0 0.0205 2741.02
-0.267441 0 0.0205 2738.71
-0.257748 0 0.0205 2735.94
-0.248397 0 0.0205 2733.04
-0.239378 0 0.0205 2730.43
-0.230677 0 0.0205 2728.44
-0.222282 0 0.0205 2727.11
-0.214183 0 0.0205 2726.61
-0.20637 0 0.0205 2726.42
-0.19883 0 0.0205 2726.69
-0.191555 0 0.0205 2727.37
-0.184536 0 0.0205 2728.31
-0.177762 0 0.0205 2729.35
-0.171224 0 0.0205 2730.32
-0.164914 0 0.0205 2731.12
-0.158824 0 0.0205 2731.68
-0.152944 0 0.0205 2732.01
-0.147268 0 0.0205 2732.12
-0.141788 0 0.0205 2732.03
-0.136496 0 0.0205 2731.7
-0.131387 0 0.0205 2731.2
-0.126452 0 0.0205 2730.52
-0.121685 0 0.0205 2729.7
-0.117081 0 0.0205 2728.76
-0.112632 0 0.0205 2727.75
-0.108332 0 0.0205 2726.69
-0.104177 0 0.0205 2725.62
-0.100161 0 0.0205 2724.57
-0.0962773 0 0.0205 2723.57
-0.0925221 0 0.0205 2722.62
-0.08889 0 0.0205 2721.72
-0.0853762 0 0.0205 2720.89
-0.0819759 0 0.0205 2720.12
-0.0786847 0 0.0205 2719.42
-0.0754981 0 0.0205 2718.77
-0.0724121 0 0.0205 2718.2
-0.0694223 0 0.0205 2717.69
-0.066525 0 0.0205 2717.25
-0.0637161 0 0.0205 2716.86
-0.060992 0 0.0205 2716.54
-0.0583491 0 0.0205 2716.3
-0.0557837 0 0.0205 2716.03
-0.0532926 0 0.0205 2715.83
-0.0508723 0 0.0205 2715.67
-0.0485197 0 0.0205 2715.54
-0.0462317 0 0.0205 2715.45
-0.0440053 0 0.0205 2715.37
-0.0418373 0 0.0205 2715.32
-0.039725 0 0.0205 2715.29
-0.0376655 0 0.0205 2715.28
-0.0356562 0 0.0205 2715.29
-0.0336943 0 0.0205 2715.27
-0.0317773 0 0.0205 2715.28
-0.0299025 0 0.0205 2716.29
-0.0280674 0 0.0205 2812.16
-0.0262697 0 0.0205 5713.79
-0.024507 0 0.0205 8618.38
-0.0227768 0 0.0205 9592
-0.021077 0 0.0205 10257
-0.0194052 0 0.0205 10695.9
-0.0177593 0 0.0205 11047
-0.016137 0 0.0205 11316.9
-0.014536 0 0.0205 11553.8
-0.0129545 0 0.0205 11766.3
-0.0113902 0 0.0205 11957.7
-0.00984104 0 0.0205 12133.5
-0.00830498 0 0.0205 12280.6
-0.00677997 0 0.0205 12405.4
-0.00526398 0 0.0205 12507.4
-0.00375499 0 0.0205 12592.5
-0.002251 0 0.0205 12817.9
-0.00075 0 0.0205 14154.8
0.000689475 0.000398068 0.0205 13183.9
0.00206843 0.0011942 0.0205 13669.4
0.00344737 0.00199034 0.0205 14465.9
0.00482631 0.00278648 0.0205 15437.2
0.00620527 0.00358261 0.0205 16681.7
0.00758422 0.00437875 0.0205 18170.2
0.00896317 0.00517489 0.0205 19934.9
0.0103421 0.00597102 0.0205 21995.6
0.0117211 0.00676715 0.0205 24367.7
0.0131 0.00756329 0.0205 27099.7
0.0144789 0.00835943 0.0205 30220.2
0.0158579 0.00915557 0.0205 33707.9
0.0172368 0.00995171 0.0205 37569.1
0.0186158 0.0107478 0.0205 41887.6
0.0199947 0.0115439 0.0205 46794.9
0.0213737 0.0123401 0.0205 52447
0.0227526 0.0131362 0.0205 59144.8
0.0241316 0.0139323 0.0205 67009.9
0.0255106 0.0147285 0.0205 76051.3
0.0268895 0.0155246 0.0205 85858.8
0.0282685 0.0163208 0.0205 95738.7
0.0296474 0.0171169 0.0205 104631
0.0310264 0.017913 0.0205 112257
0.0324053 0.0187092 0.0205 118353
0.0337843 0.0195054 0.0205 122455
0.0351632 0.0203015 0.0205 124297
0.0365421 0.0210976 0.0205 126123
0.037921 0.0218938 0.0205 124570
0.0393 0.0226898 0.0205 120830
0.0406789 0.023486 0.0205 117672
0.0420579 0.0242821 0.0205 115837
0.0434368 0.0250783 0.0205 115058
0.0448158 0.0258745 0.0205 114461
0.0461948 0.0266706 0.0205 112434
0.0475737 0.0274667 0.0205 109845
0.0489527 0.0282628 0.0205 106967
0.0503316 0.029059 0.0205 104336
0.0517106 0.0298551 0.0205 102474
0.0530895 0.0306512 0.0205 101141
0.0544684 0.0314473 0.0205 100187
0.0558474 0.0322435 0.0205 99488.4
0.0572264 0.0330397 0.0205 99015.4
0.0586053 0.0338357 0.0205 98791.3
0.0599842 0.0346319 0.0205 98864
0.0613632 0.0354281 0.0205 99055.2
0.0627422 0.0362242 0.0205 99337.3
0.0641211 0.0370204 0.0205 99605.2
0.0655001 0.0378164 0.0205 99907.3
0.066879 0.0386126 0.0205 100221
0.0682579 0.0394088 0.0205 100545
0.0696369 0.0402049 0.0205 100742
0.0710158 0.041001 0.0205 100774
0.0723947 0.0417971 0.0205 100528
0.0737737 0.0425932 0.0205 100095
0.0751527 0.0433894 0.0205 99729.1
0.0765316 0.0441856 0.0205 99509.9
0.0779106 0.0449817 0.0205 99707
0.0792895 0.0457778 0.0205 100171
0.0806685 0.0465739 0.0205 100749
0.0820474 0.0473701 0.0205 101219
0.0834263 0.0481662 0.0205 101569
0.0848053 0.0489624 0.0205 101361
0.0861843 0.0497585 0.0205 100952
0.0875632 0.0505546 0.0205 100379
0.0889421 0.0513508 0.0205 99900.2
0.0903211 0.0521469 0.0205 99706.3
0.0917 0.0529431 0.0205 99717.4
0.093079 0.0537392 0.0205 99943.4
0.094458 0.0545353 0.0205 100387
0.0958369 0.0553315 0.0205 100804
0.0972159 0.0561276 0.0205 101210
0.0985948 0.0569238 0.0205 101419
0.0999737 0.0577198 0.0205 101570
0.101352 0.058516 0.0205 101419
0.102732 0.0593121 0.0205 101140
0.10411 0.0601083 0.0205 100767
0.105489 0.0609044 0.0205 100398
0.106868 0.0617005 0.0205 100149
0.108248 0.0624967 0.0205 100045
0.109627 0.0632928 0.0205 100092
0.111006 0.064089 0.0205 100205
0.112385 0.0648851 0.0205 100418
0.113764 0.0656812 0.0205 100704
0.115143 0.0664774 0.0205 101062
0.116522 0.0672735 0.0205 101435
0.117901 0.0680697 0.0205 101709
0.119279 0.0688658 0.0205 102032
0.120658 0.0696619 0.0205 102023
0.122037 0.0704581 0.0205 102003
0.123415 0.0712542 0.0205 101868
0.124794 0.0720503 0.0205 101693
0.126173 0.0728465 0.0205 101482
0.127552 0.0736426 0.0205 101255
0.128931 0.0744387 0.0205 101118
0.13031 0.0752348 0.0205 100994
0.131689 0.076031 0.0205 100948
0.133069 0.0768271 0.0205 100956
0.134447 0.0776233 0.0205 100994
0.135827 0.0784194 0.0205 100990
