# wallHeatFlux  FACE_DATA 203
# x  y  z  wallHeatFlux
-0.873265 0 0.0205 -297614
-0.846493 0 0.0205 -77813.9
-0.820677 0 0.0205 -76433.9
-0.795786 0 0.0205 -75319.2
-0.771783 0 0.0205 -74735.3
-0.74637 0 0.0205 -74576.1
-0.719597 0 0.0205 -74045.3
-0.693782 0 0.0205 -73143
-0.66889 0 0.0205 -72506
-0.644887 0 0.0205 -72081.4
-0.621743 0 0.0205 -71550.6
-0.599426 0 0.0205 -70754.4
-0.577905 0 0.0205 -70011.3
-0.557154 0 0.0205 -69480.5
-0.537145 0 0.0205 -69109
-0.517849 0 0.0205 -68684.3
-0.499243 0 0.0205 -68153.5
-0.481301 0 0.0205 -67622.8
-0.463999 0 0.0205 -67145
-0.447314 0 0.0205 -66826.6
-0.431225 0 0.0205 -66561.2
-0.41571 0 0.0205 -66295.8
-0.400747 0 0.0205 -65924.2
-0.386317 0 0.0205 -65446.5
-0.372401 0 0.0205 -65021.9
-0.358981 0 0.0205 -64703.4
-0.346039 0 0.0205 -64438
-0.333556 0 0.0205 -64331.8
-0.321518 0 0.0205 -64331.8
-0.309908 0 0.0205 -64331.8
-0.298709 0 0.0205 -64331.8
-0.287908 0 0.0205 -64172.6
-0.27749 0 0.0205 -63907.2
-0.267441 0 0.0205 -63588.7
-0.257748 0 0.0205 -63164.1
-0.248397 0 0.0205 -62739.5
-0.239378 0 0.0205 -62314.8
-0.230677 0 0.0205 -62049.4
-0.222282 0 0.0205 -61784.1
-0.214183 0 0.0205 -61677.9
-0.20637 0 0.0205 -61624.8
-0.19883 0 0.0205 -61624.8
-0.191555 0 0.0205 -61731
-0.184536 0 0.0205 -61837.1
-0.177762 0 0.0205 -61996.4
-0.171224 0 0.0205 -62155.6
-0.164914 0 0.0205 -62261.8
-0.158824 0 0.0205 -62367.9
-0.152944 0 0.0205 -62421
-0.147268 0 0.0205 -62421
-0.141788 0 0.0205 -62367.9
-0.136496 0 0.0205 -62314.8
-0.131387 0 0.0205 -62208.7
-0.126452 0 0.0205 -62102.5
-0.121685 0 0.0205 -61890.2
-0.117081 0 0.0205 -61731
-0.112632 0 0.0205 -61518.7
-0.108332 0 0.0205 -61306.3
-0.104177 0 0.0205 -61094
-0.100161 0 0.0205 -60881.7
-0.0962773 0 0.0205 -60669.4
-0.0925221 0 0.0205 -60457.1
-0.08889 0 0.0205 -60297.8
-0.0853762 0 0.0205 -60085.5
-0.0819759 0 0.0205 -59926.3
-0.0786847 0 0.0205 -59767
-0.0754981 0 0.0205 -59607.8
-0.0724121 0 0.0205 -59501.7
-0.0694223 0 0.0205 -59395.5
-0.066525 0 0.0205 -59289.3
-0.0637161 0 0.0205 -59183.2
-0.060992 0 0.0205 -59077
-0.0583491 0 0.0205 -59023.9
-0.0557837 0 0.0205 -58970.9
-0.0532926 0 0.0205 -58917.8
-0.0508723 0 0.0205 -58864.7
-0.0485197 0 0.0205 -58811.6
-0.0462317 0 0.0205 -58811.6
-0.0440053 0 0.0205 -58758.5
-0.0418373 0 0.0205 -58758.5
-0.039725 0 0.0205 -58758.5
-0.0376655 0 0.0205 -58758.5
-0.0356562 0 0.0205 -58758.5
-0.0336943 0 0.0205 -58758.5
-0.0317773 0 0.0205 -58758.5
-0.0299025 0 0.0205 -58864.7
-0.0280674 0 0.0205 -64862.6
-0.0262697 0 0.0205 -209981
-0.024507 0 0.0205 -204832
-0.0227768 0 0.0205 -149471
-0.021077 0 0.0205 -125904
-0.0194052 0 0.0205 -110723
-0.0177593 0 0.0205 -100850
-0.016137 0 0.0205 -94693.1
-0.014536 0 0.0205 -91189.9
-0.0129545 0 0.0205 -90287.5
-0.0113902 0 0.0205 -91083.7
-0.00984104 0 0.0205 -93525.3
-0.00830498 0 0.0205 -97718.6
-0.00677997 0 0.0205 -103982
-0.00526398 0 0.0205 -112846
-0.00375499 0 0.0205 -125479
-0.002251 0 0.0205 -145437
-0.00075 0 0.0205 -165660
0.000689475 0.000398068 0.0205 -148078
0.00206843 0.0011942 0.0205 -193678
0.00344737 0.00199034 0.0205 -218807
0.00482631 0.00278648 0.0205 -246816
0.00620527 0.00358261 0.0205 -277462
0.00758422 0.00437875 0.0205 -312949
0.00896317 0.00517489 0.0205 -354564
0.0103421 0.00597102 0.0205 -402862
0.0117211 0.00676715 0.0205 -458211
0.0131 0.00756329 0.0205 -520719
0.0144789 0.00835943 0.0205 -590478
0.0158579 0.00915557 0.0205 -664933
0.0172368 0.00995171 0.0205 -740096
0.0186158 0.0107478 0.0205 -810672
0.0199947 0.0115439 0.0205 -881416
0.0213737 0.0123401 0.0205 -969441
0.0227526 0.0131362 0.0205 -1.06069e+06
0.0241316 0.0139323 0.0205 -1.16112e+06
0.0255106 0.0147285 0.0205 -1.29805e+06
0.0268895 0.0155246 0.0205 -1.43619e+06
0.0282685 0.0163208 0.0205 -1.55351e+06
0.0296474 0.0171169 0.0205 -1.63452e+06
0.0310264 0.017913 0.0205 -1.67819e+06
0.0324053 0.0187092 0.0205 -1.70487e+06
0.0337843 0.0195054 0.0205 -1.72741e+06
0.0351632 0.0203015 0.0205 -1.71337e+06
0.0365421 0.0210976 0.0205 -1.71787e+06
0.037921 0.0218938 0.0205 -1.70663e+06
0.0393 0.0226898 0.0205 -1.63673e+06
0.0406789 0.023486 0.0205 -1.6259e+06
0.0420579 0.0242821 0.0205 -1.60173e+06
0.0434368 0.0250783 0.0205 -1.60212e+06
0.0448158 0.0258745 0.0205 -1.62e+06
0.0461948 0.0266706 0.0205 -1.5789e+06
0.0475737 0.0274667 0.0205 -1.52639e+06
0.0489527 0.0282628 0.0205 -1.48028e+06
0.0503316 0.029059 0.0205 -1.41014e+06
0.0517106 0.0298551 0.0205 -1.35965e+06
0.0530895 0.0306512 0.0205 -1.32507e+06
0.0544684 0.0314473 0.0205 -1.28293e+06
0.0558474 0.0322435 0.0205 -1.28245e+06
0.0572264 0.0330397 0.0205 -1.26754e+06
0.0586053 0.0338357 0.0205 -1.2465e+06
0.0599842 0.0346319 0.0205 -1.26893e+06
0.0613632 0.0354281 0.0205 -1.26777e+06
0.0627422 0.0362242 0.0205 -1.2742e+06
0.0641211 0.0370204 0.0205 -1.291e+06
0.0655001 0.0378164 0.0205 -1.28648e+06
0.066879 0.0386126 0.0205 -1.29055e+06
0.0682579 0.0394088 0.0205 -1.31057e+06
0.0696369 0.0402049 0.0205 -1.3178e+06
0.0710158 0.041001 0.0205 -1.31874e+06
0.0723947 0.0417971 0.0205 -1.30977e+06
0.0737737 0.0425932 0.0205 -1.28548e+06
0.0751527 0.0433894 0.0205 -1.30369e+06
0.0765316 0.0441856 0.0205 -1.29326e+06
0.0779106 0.0449817 0.0205 -1.29596e+06
0.0792895 0.0457778 0.0205 -1.31894e+06
0.0806685 0.0465739 0.0205 -1.32277e+06
0.0820474 0.0473701 0.0205 -1.33333e+06
0.0834263 0.0481662 0.0205 -1.35776e+06
0.0848053 0.0489624 0.0205 -1.34444e+06
0.0861843 0.0497585 0.0205 -1.33684e+06
0.0875632 0.0505546 0.0205 -1.32961e+06
0.0889421 0.0513508 0.0205 -1.30695e+06
0.0903211 0.0521469 0.0205 -1.32689e+06
0.0917 0.0529431 0.0205 -1.32516e+06
0.093079 0.0537392 0.0205 -1.31588e+06
0.094458 0.0545353 0.0205 -1.34996e+06
0.0958369 0.0553315 0.0205 -1.35149e+06
0.0972159 0.0561276 0.0205 -1.3613e+06
0.0985948 0.0569238 0.0205 -1.37913e+06
0.0999737 0.0577198 0.0205 -1.37197e+06
0.101352 0.058516 0.0205 -1.36949e+06
0.102732 0.0593121 0.0205 -1.37864e+06
0.10411 0.0601083 0.0205 -1.37527e+06
0.105489 0.0609044 0.0205 -1.36599e+06
0.106868 0.0617005 0.0205 -1.35486e+06
0.108248 0.0624967 0.0205 -1.335e+06
0.109627 0.0632928 0.0205 -1.36054e+06
0.111006 0.064089 0.0205 -1.35596e+06
0.112385 0.0648851 0.0205 -1.35674e+06
0.113764 0.0656812 0.0205 -1.37306e+06
0.115143 0.0664774 0.0205 -1.36889e+06
0.116522 0.0672735 0.0205 -1.37697e+06
0.117901 0.0680697 0.0205 -1.39525e+06
0.119279 0.0688658 0.0205 -1.39397e+06
0.120658 0.0696619 0.0205 -1.39431e+06
0.122037 0.0704581 0.0205 -1.39917e+06
0.123415 0.0712542 0.0205 -1.38311e+06
0.124794 0.0720503 0.0205 -1.40596e+06
0.126173 0.0728465 0.0205 -1.39905e+06
0.127552 0.0736426 0.0205 -1.37784e+06
0.128931 0.0744387 0.0205 -1.39934e+06
0.13031 0.0752348 0.0205 -1.38918e+06
0.131689 0.076031 0.0205 -1.38763e+06
0.133069 0.0768271 0.0205 -1.39978e+06
0.134447 0.0776233 0.0205 -1.38912e+06
0.135827 0.0784194 0.0205 -1.3997e+06
