# Wall shear stress
# Time        	patch         	min           	max           
10000         	base	(-2.998671e+02 -5.426559e-01 -3.281291e-15)	(7.361900e+01 1.882350e+00 1.312516e-15)
