# wallHeatFlux  FACE_DATA 398
# x  y  z  wallHeatFlux
-0.7975 0 0.025 -653677
-0.79239 0 0.025 -120045
-0.787056 0 0.025 -71323.9
-0.781492 0 0.025 -64593.2
-0.775691 0 0.025 -65899.9
-0.769649 0 0.025 -66446.1
-0.763362 0 0.025 -66776.3
-0.756822 0 0.025 -66510.3
-0.750025 0 0.025 -65898.2
-0.742968 0 0.025 -65004.5
-0.735648 0 0.025 -63960.2
-0.72806 0 0.025 -62909.5
-0.720203 0 0.025 -61955.2
-0.712076 0 0.025 -61103
-0.703677 0 0.025 -60276.4
-0.695006 0 0.025 -59443.5
-0.686065 0 0.025 -58689.9
-0.676855 0 0.025 -58053.2
-0.667379 0 0.025 -57351.1
-0.65764 0 0.025 -56654
-0.647644 0 0.025 -56076.6
-0.637397 0 0.025 -55513.8
-0.626906 0 0.025 -54919.8
-0.616179 0 0.025 -54433.1
-0.605224 0 0.025 -53898.7
-0.594054 0 0.025 -53431.8
-0.582678 0 0.025 -52934.4
-0.57111 0 0.025 -52472.5
-0.559364 0 0.025 -52036.5
-0.547454 0 0.025 -51667.1
-0.535396 0 0.025 -51263.9
-0.523205 0 0.025 -50899.3
-0.510901 0 0.025 -50502.6
-0.4985 0 0.025 -50101.2
-0.486021 0 0.025 -49773.7
-0.473483 0 0.025 -49492.3
-0.460905 0 0.025 -49191.9
-0.448308 0 0.025 -48912
-0.435709 0 0.025 -48614.1
-0.42313 0 0.025 -48286.2
-0.41059 0 0.025 -48005.6
-0.39811 0 0.025 -47771.7
-0.385706 0 0.025 -47562.7
-0.373398 0 0.025 -47353.6
-0.361205 0 0.025 -47159.7
-0.349141 0 0.025 -46968.9
-0.337226 0 0.025 -46751.2
-0.325475 0 0.025 -46506
-0.313901 0 0.025 -46260.7
-0.30252 0 0.025 -46041.4
-0.291343 0 0.025 -45871.6
-0.280382 0 0.025 -45750.1
-0.269646 0 0.025 -45659.9
-0.259148 0 0.025 -45586.2
-0.248893 0 0.025 -45487.5
-0.23889 0 0.025 -45357.1
-0.229143 0 0.025 -45210.1
-0.219659 0 0.025 -45048.8
-0.210441 0 0.025 -44887.4
-0.201491 0 0.025 -44729.2
-0.192812 0 0.025 -44595.5
-0.184405 0 0.025 -44482.5
-0.176269 0 0.025 -44389
-0.168404 0 0.025 -44313.4
-0.160808 0 0.025 -44254
-0.15348 0 0.025 -44197.5
-0.146415 0 0.025 -44141.9
-0.13961 0 0.025 -44063.6
-0.133063 0 0.025 -43976.6
-0.126767 0 0.025 -43879.7
-0.120718 0 0.025 -43788.8
-0.11491 0 0.025 -43698.6
-0.109339 0 0.025 -43614.4
-0.103997 0 0.025 -43534.7
-0.0988805 0 0.025 -43464.5
-0.0939808 0 0.025 -43402.4
-0.0892928 0 0.025 -43352.3
-0.0848096 0 0.025 -43313.1
-0.0805248 0 0.025 -43290.3
-0.0764316 0 0.025 -43278.6
-0.0725237 0 0.025 -43272.2
-0.0687943 0 0.025 -43277.3
-0.065237 0 0.025 -43276.5
-0.0618454 0 0.025 -43282
-0.058613 0 0.025 -43286.7
-0.0555337 0 0.025 -43292.5
-0.0526013 0 0.025 -43297.6
-0.0498099 0 0.025 -43303
-0.0471536 0 0.025 -43303.2
-0.0446266 0 0.025 -43303.3
-0.0422235 0 0.025 -43303.4
-0.039939 0 0.025 -43303.6
-0.0377676 0 0.025 -43298
-0.0357044 0 0.025 -43293.5
-0.0337445 0 0.025 -43298.7
-0.0318832 0 0.025 -43234.5
-0.0301159 0 0.025 -41776.4
-0.0284383 0 0.025 -34849.4
-0.0268461 0 0.025 -35486.5
-0.0253353 0 0.025 -53241.8
-0.023902 0 0.025 -64383.2
-0.0225426 0 0.025 -71186.9
-0.0212532 0 0.025 -76439.4
-0.0200306 0 0.025 -81148.5
-0.0188715 0 0.025 -85108.7
-0.0177728 0 0.025 -88689.1
-0.0167313 0 0.025 -91927.1
-0.0157444 0 0.025 -94828
-0.0148092 0 0.025 -97615.5
-0.0139232 0 0.025 -100297
-0.0130838 0 0.025 -102795
-0.0122887 0 0.025 -105007
-0.0115356 0 0.025 -106945
-0.0108223 0 0.025 -108645
-0.0101469 0 0.025 -110147
-0.00950727 0 0.025 -111469
-0.00890168 0 0.025 -112636
-0.00832835 0 0.025 -113714
-0.00778557 0 0.025 -114772
-0.00727176 0 0.025 -115855
-0.0067854 0 0.025 -117003
-0.00632507 0 0.025 -118243
-0.00588937 0 0.025 -119598
-0.00547703 0 0.025 -121082
-0.0050868 0 0.025 -122695
-0.00471753 0 0.025 -124450
-0.0043681 0 0.025 -126345
-0.00403746 0 0.025 -128402
-0.00372461 0 0.025 -130594
-0.0034286 0 0.025 -132934
-0.00314855 0 0.025 -135458
-0.0028836 0 0.025 -138199
-0.00263294 0 0.025 -141030
-0.00239581 0 0.025 -143743
-0.0021715 0 0.025 -146621
-0.00195929 0 0.025 -149619
-0.00175856 0 0.025 -152706
-0.00156869 0 0.025 -155876
-0.00138908 0 0.025 -159151
-0.0012192 0 0.025 -162484
-0.00105853 0 0.025 -165889
-0.000906546 0 0.025 -169322
-0.000762803 0 0.025 -172657
-0.000626848 0 0.025 -175592
-0.000498265 0 0.025 -177250
-0.000376656 0 0.025 -175788
-0.000261642 0 0.025 -167566
-0.00015287 0 0.025 -145563
-5e-05 0 0.025 -94002.7
4.14519e-05 2.79596e-05 0.025 -66242
0.000125371 8.45641e-05 0.025 -79623.2
0.000211347 0.000142556 0.025 -95032.2
0.000299429 0.000201968 0.025 -106313
0.000389669 0.000262835 0.025 -115759
0.000482118 0.000325193 0.025 -124761
0.000576831 0.000389077 0.025 -133257
0.000673861 0.000454524 0.025 -140970
0.000773265 0.000521574 0.025 -147799
0.0008751 0.000590262 0.025 -153814
0.000979426 0.000660632 0.025 -159121
0.0010863 0.000732721 0.025 -163847
0.00119579 0.000806572 0.025 -168200
0.00130795 0.000882227 0.025 -172238
0.00142285 0.00095973 0.025 -176007
0.00154056 0.00103912 0.025 -179643
0.00166115 0.00112046 0.025 -183156
0.00178467 0.00120378 0.025 -186632
0.00191121 0.00128913 0.025 -190100
0.00204083 0.00137656 0.025 -193509
0.00217362 0.00146612 0.025 -196976
0.00230964 0.00155787 0.025 -200495
0.00244897 0.00165185 0.025 -204023
0.00259169 0.00174812 0.025 -207641
0.00273789 0.00184673 0.025 -211365
0.00288765 0.00194774 0.025 -215233
0.00304105 0.00205122 0.025 -219196
0.00319818 0.00215719 0.025 -223289
0.00335912 0.00226575 0.025 -227584
0.00352397 0.00237695 0.025 -232024
0.00369283 0.00249085 0.025 -236674
0.00386579 0.00260751 0.025 -241512
0.00404294 0.00272699 0.025 -246582
0.00422438 0.00284938 0.025 -251910
0.00441022 0.00297474 0.025 -257490
0.00460056 0.00310312 0.025 -263350
0.00479552 0.00323462 0.025 -269497
0.00499519 0.0033693 0.025 -276040
0.00519968 0.00350723 0.025 -282879
0.00540911 0.00364849 0.025 -290176
0.00562361 0.00379318 0.025 -297897
0.00584329 0.00394134 0.025 -306042
0.00606826 0.00409309 0.025 -314783
0.00629865 0.00424849 0.025 -323996
0.0065346 0.00440764 0.025 -333831
0.00677623 0.00457063 0.025 -344325
0.00702368 0.00473753 0.025 -355367
0.00727707 0.00490844 0.025 -367279
0.00753655 0.00508347 0.025 -379984
0.00780227 0.00526269 0.025 -393742
0.00807436 0.00544622 0.025 -408466
0.00835298 0.00563415 0.025 -424031
0.00863826 0.00582659 0.025 -441083
0.00893038 0.00602362 0.025 -460150
0.00922949 0.00622537 0.025 -479982
0.00953574 0.00643195 0.025 -500887
0.00984929 0.00664345 0.025 -524734
0.0101703 0.00686 0.025 -551671
0.0104991 0.00708171 0.025 -580464
0.0108356 0.00730871 0.025 -615008
0.0111801 0.0075411 0.025 -651702
0.0115329 0.00777902 0.025 -690663
0.011894 0.00802259 0.025 -734506
0.0122637 0.00827194 0.025 -779231
0.0126421 0.00852719 0.025 -823645
0.0130295 0.0087885 0.025 -866885
0.013426 0.00905597 0.025 -910360
0.013832 0.00932978 0.025 -953184
0.0142475 0.00961003 0.025 -995579
0.0146727 0.0098969 0.025 -1.03745e+06
0.0151081 0.0101905 0.025 -1.07969e+06
0.0155536 0.010491 0.025 -1.12395e+06
0.0160097 0.0107986 0.025 -1.16874e+06
0.0164764 0.0111134 0.025 -1.21709e+06
0.016954 0.0114356 0.025 -1.26828e+06
0.0174427 0.0117653 0.025 -1.31777e+06
0.0179429 0.0121026 0.025 -1.3721e+06
0.0184548 0.0124479 0.025 -1.43572e+06
0.0189786 0.0128013 0.025 -1.47784e+06
0.0195146 0.0131628 0.025 -1.52732e+06
0.020063 0.0135327 0.025 -1.58575e+06
0.0206242 0.0139112 0.025 -1.62449e+06
0.0211983 0.0142984 0.025 -1.6545e+06
0.0217857 0.0146947 0.025 -1.69128e+06
0.0223867 0.0151 0.025 -1.7232e+06
0.0230015 0.0155147 0.025 -1.74959e+06
0.0236304 0.0159389 0.025 -1.78072e+06
0.0242738 0.0163729 0.025 -1.78255e+06
0.0249318 0.0168167 0.025 -1.79672e+06
0.025605 0.0172708 0.025 -1.80392e+06
0.0262935 0.0177352 0.025 -1.77843e+06
0.0269977 0.0182102 0.025 -1.75048e+06
0.0277178 0.0186959 0.025 -1.71235e+06
0.0284544 0.0191927 0.025 -1.7264e+06
0.0292075 0.0197008 0.025 -1.672e+06
0.0299777 0.0202203 0.025 -1.62276e+06
0.0307653 0.0207514 0.025 -1.59253e+06
0.0315704 0.0212945 0.025 -1.5622e+06
0.0323937 0.0218499 0.025 -1.53657e+06
0.0332354 0.0224176 0.025 -1.50949e+06
0.0340959 0.022998 0.025 -1.48557e+06
0.0349755 0.0235913 0.025 -1.45332e+06
0.0358747 0.0241978 0.025 -1.45104e+06
0.0367938 0.0248178 0.025 -1.41318e+06
0.0377331 0.0254513 0.025 -1.38828e+06
0.0386932 0.0260989 0.025 -1.36942e+06
0.0396743 0.0267606 0.025 -1.35399e+06
0.0406769 0.0274369 0.025 -1.34272e+06
0.0417013 0.0281279 0.025 -1.32949e+06
0.042748 0.0288339 0.025 -1.33017e+06
0.0438175 0.0295552 0.025 -1.31815e+06
0.04491 0.0302922 0.025 -1.30631e+06
0.0460262 0.031045 0.025 -1.3072e+06
0.0471662 0.031814 0.025 -1.3136e+06
0.0483306 0.0325995 0.025 -1.30553e+06
0.0495199 0.0334016 0.025 -1.30945e+06
0.0507344 0.0342208 0.025 -1.30566e+06
0.0519746 0.0350573 0.025 -1.30288e+06
0.0532409 0.0359114 0.025 -1.30623e+06
0.0545339 0.0367835 0.025 -1.29208e+06
0.0558538 0.0376739 0.025 -1.2908e+06
0.0572012 0.0385827 0.025 -1.29011e+06
0.0585766 0.0395104 0.025 -1.28837e+06
0.0599804 0.0404573 0.025 -1.29679e+06
0.061413 0.0414236 0.025 -1.2795e+06
0.0628748 0.0424096 0.025 -1.30597e+06
0.0643665 0.0434157 0.025 -1.31129e+06
0.0658883 0.0444422 0.025 -1.2842e+06
0.0674408 0.0454894 0.025 -1.27418e+06
0.0690245 0.0465576 0.025 -1.27307e+06
0.0706398 0.0476471 0.025 -1.26822e+06
0.0722871 0.0487582 0.025 -1.26516e+06
0.0739669 0.0498912 0.025 -1.26371e+06
0.0756797 0.0510466 0.025 -1.2736e+06
0.0774258 0.0522244 0.025 -1.28494e+06
0.0792059 0.053425 0.025 -1.27586e+06
0.0810203 0.0546489 0.025 -1.29949e+06
0.0828694 0.0558961 0.025 -1.27062e+06
0.0847537 0.0571671 0.025 -1.31407e+06
0.0866737 0.0584622 0.025 -1.27394e+06
0.0886298 0.0597816 0.025 -1.27403e+06
0.0906224 0.0611256 0.025 -1.28532e+06
0.0926518 0.0624944 0.025 -1.25125e+06
0.0947185 0.0638884 0.025 -1.29408e+06
0.096823 0.065308 0.025 -1.25326e+06
0.0989659 0.0667532 0.025 -1.3419e+06
0.101147 0.0682245 0.025 -1.6883e+06
0.103367 0.0697219 0.025 -1.59299e+06
0.105626 0.0712458 0.025 -1.201e+06
0.107926 0.0727965 0.025 -1.19563e+06
0.110265 0.074374 0.025 -1.23434e+06
0.112644 0.0759789 0.025 -1.83503e+06
0.115063 0.0776111 0.025 -1.23856e+06
0.117524 0.0792709 0.025 -1.71036e+06
0.120026 0.0809585 0.025 -1.87986e+06
0.122569 0.0826741 0.025 -1.66966e+06
0.125155 0.0844179 0.025 -1.49167e+06
0.127782 0.0861901 0.025 -1.29513e+06
0.130451 0.0879908 0.025 -1.25e+06
0.133163 0.08982 0.025 -1.22729e+06
0.135918 0.0916781 0.025 -1.19736e+06
0.138716 0.0935651 0.025 -1.19827e+06
0.141556 0.095481 0.025 -1.20683e+06
0.14444 0.097426 0.025 -1.58923e+06
0.147367 0.0994004 0.025 -2.34419e+06
0.150337 0.101404 0.025 -1.66814e+06
0.153351 0.103437 0.025 -1.61741e+06
0.156408 0.105498 0.025 -2.254e+06
0.159508 0.107589 0.025 -1.02634e+06
0.162651 0.10971 0.025 -1.51673e+06
0.165838 0.111859 0.025 -3.65626e+06
0.169069 0.114039 0.025 -1.60683e+06
0.172343 0.116247 0.025 -1.98275e+06
0.175659 0.118483 0.025 -1.87955e+06
0.179018 0.120749 0.025 -1.87591e+06
0.182421 0.123045 0.025 -1.94266e+06
0.185866 0.125368 0.025 -1.7053e+06
0.189353 0.12772 0.025 -1.74054e+06
0.192882 0.1301 0.025 -1.84924e+06
0.196453 0.132509 0.025 -1.74829e+06
0.200065 0.134946 0.025 -2.17812e+06
0.203718 0.13741 0.025 -1.94457e+06
0.207412 0.139901 0.025 -927384
0.211146 0.14242 0.025 -990345
0.214919 0.144965 0.025 -1.62056e+06
0.218732 0.147537 0.025 -990448
0.222583 0.150134 0.025 -1.9441e+06
0.226472 0.152757 0.025 -979831
0.230399 0.155406 0.025 -1.8362e+06
0.234362 0.15808 0.025 -1.72995e+06
0.238362 0.160777 0.025 -2.3589e+06
0.242396 0.163498 0.025 -1.94994e+06
0.246466 0.166244 0.025 -2.11321e+06
0.250569 0.169012 0.025 -933514
0.254706 0.171801 0.025 -1.53555e+06
0.258874 0.174613 0.025 -1.53741e+06
0.263074 0.177446 0.025 -1.95807e+06
0.267304 0.180299 0.025 -1.58436e+06
0.271564 0.183172 0.025 -950452
0.275852 0.186064 0.025 -1.62849e+06
0.280168 0.188975 0.025 -925195
0.28451 0.191904 0.025 -1.65429e+06
0.288876 0.19485 0.025 -2.2793e+06
0.293268 0.197812 0.025 -1.61167e+06
0.297683 0.20079 0.025 -1.91765e+06
0.302119 0.203782 0.025 -2.25231e+06
0.306577 0.206788 0.025 -1.40291e+06
0.311054 0.209808 0.025 -1.58114e+06
0.315549 0.212841 0.025 -1.16737e+06
0.320063 0.215885 0.025 -2.01561e+06
0.324591 0.218939 0.025 -1.42326e+06
0.329134 0.222003 0.025 -1.41363e+06
0.333691 0.225077 0.025 -2.21995e+06
0.33826 0.228159 0.025 -1.7841e+06
0.342839 0.231248 0.025 -1.83156e+06
0.347428 0.234343 0.025 -876670
0.352025 0.237444 0.025 -1.93663e+06
0.356628 0.240548 0.025 -1.41698e+06
0.361237 0.243658 0.025 -1.15656e+06
0.36585 0.246769 0.025 -2.57351e+06
0.370465 0.249882 0.025 -1.02641e+06
0.375082 0.252996 0.025 -1.43919e+06
0.379698 0.25611 0.025 -2.3182e+06
0.384313 0.259223 0.025 -1.37638e+06
0.388926 0.262333 0.025 -1.70959e+06
0.393534 0.265442 0.025 -1.4104e+06
0.398136 0.268546 0.025 -881853
0.40273 0.271645 0.025 -1.63146e+06
0.407317 0.274739 0.025 -1.68715e+06
0.411894 0.277826 0.025 -2.12759e+06
0.41646 0.280906 0.025 -837606
0.421014 0.283977 0.025 -1.5956e+06
0.425554 0.28704 0.025 -1.8929e+06
0.430079 0.290092 0.025 -1.48288e+06
0.434588 0.293133 0.025 -1.83045e+06
0.439079 0.296162 0.025 -1.28123e+06
0.443551 0.299179 0.025 -1.66782e+06
0.448004 0.302183 0.025 -1.69735e+06
0.452437 0.305172 0.025 -1.65551e+06
0.456846 0.308146 0.025 -1.53721e+06
0.461232 0.311105 0.025 -1.56256e+06
0.465593 0.314047 0.025 -1.44792e+06
0.469929 0.316971 0.025 -1.92541e+06
0.474238 0.319878 0.025 -994960
0.47852 0.322766 0.025 -1.11457e+06
0.482773 0.325635 0.025 -884305
0.486996 0.328483 0.025 -1.33027e+06
0.491189 0.331311 0.025 -2.02059e+06
0.49535 0.334118 0.025 -1.28873e+06
