# p  FACE_DATA 448
# x  y  z  p
-0.778 -3.80769e-06 0 1196.57
-0.773968 -3.80769e-06 0 934.75
-0.769872 -3.80769e-06 0 761.611
-0.76571 -3.80769e-06 0 735.175
-0.761486 -3.80769e-06 0 699.303
-0.757196 -3.80769e-06 0 676.5
-0.752841 -3.80769e-06 0 663.97
-0.748422 -3.80769e-06 0 654.445
-0.743939 -3.80769e-06 0 647.986
-0.739391 -3.80769e-06 0 642.788
-0.73478 -3.80769e-06 0 638.297
-0.730104 -3.80769e-06 0 634.235
-0.725364 -3.80769e-06 0 630.076
-0.720562 -3.80769e-06 0 625.485
-0.715696 -3.80769e-06 0 619.474
-0.710769 -3.80769e-06 0 613.629
-0.705778 -3.80769e-06 0 607.78
-0.700727 -3.80769e-06 0 604.759
-0.695615 -3.80769e-06 0 604.059
-0.690443 -3.80769e-06 0 606.018
-0.685211 -3.80769e-06 0 608.632
-0.67992 -3.80769e-06 0 611.5
-0.674571 -3.80769e-06 0 614.146
-0.669166 -3.80769e-06 0 616.409
-0.663704 -3.80769e-06 0 618.371
-0.658187 -3.80769e-06 0 620.11
-0.652616 -3.80769e-06 0 621.599
-0.646993 -3.80769e-06 0 622.728
-0.641317 -3.80769e-06 0 623.495
-0.635592 -3.80769e-06 0 624.063
-0.629817 -3.80769e-06 0 624.568
-0.623994 -3.80769e-06 0 624.914
-0.618125 -3.80769e-06 0 625.07
-0.61221 -3.80769e-06 0 625.085
-0.606252 -3.80769e-06 0 625.028
-0.600253 -3.80769e-06 0 624.865
-0.594213 -3.80769e-06 0 624.653
-0.588134 -3.80769e-06 0 624.431
-0.582018 -3.80769e-06 0 624.28
-0.575867 -3.80769e-06 0 624.02
-0.569683 -3.80769e-06 0 623.589
-0.563467 -3.80769e-06 0 623.048
-0.557221 -3.80769e-06 0 622.582
-0.550946 -3.80769e-06 0 622.313
-0.544647 -3.80769e-06 0 622.106
-0.538323 -3.80769e-06 0 621.694
-0.531979 -3.80769e-06 0 621.135
-0.525613 -3.80769e-06 0 620.568
-0.51923 -3.80769e-06 0 620.202
-0.512832 -3.80769e-06 0 620.026
-0.50642 -3.80769e-06 0 619.728
-0.499995 -3.80769e-06 0 619.182
-0.493562 -3.80769e-06 0 618.499
-0.487123 -3.80769e-06 0 617.874
-0.480677 -3.80769e-06 0 617.57
-0.47423 -3.80769e-06 0 617.639
-0.467782 -3.80769e-06 0 617.671
-0.461335 -3.80769e-06 0 617.339
-0.454892 -3.80769e-06 0 616.721
-0.448455 -3.80769e-06 0 615.984
-0.442026 -3.80769e-06 0 615.332
-0.435607 -3.80769e-06 0 614.996
-0.429202 -3.80769e-06 0 615.096
-0.42281 -3.80769e-06 0 615.332
-0.416434 -3.80769e-06 0 615.406
-0.410078 -3.80769e-06 0 615.005
-0.403743 -3.80769e-06 0 614.175
-0.39743 -3.80769e-06 0 613.274
-0.391141 -3.80769e-06 0 612.464
-0.38488 -3.80769e-06 0 611.976
-0.378648 -3.80769e-06 0 611.82
-0.372446 -3.80769e-06 0 612.448
-0.366277 -3.80769e-06 0 612.835
-0.360142 -3.80769e-06 0 612.997
-0.354042 -3.80769e-06 0 612.817
-0.347981 -3.80769e-06 0 612.185
-0.341959 -3.80769e-06 0 611.141
-0.335978 -3.80769e-06 0 610.085
-0.33004 -3.80769e-06 0 609.163
-0.324146 -3.80769e-06 0 608.562
-0.318298 -3.80769e-06 0 608.334
-0.312497 -3.80769e-06 0 608.798
-0.306744 -3.80769e-06 0 609.492
-0.301041 -3.80769e-06 0 610.156
-0.29539 -3.80769e-06 0 610.628
-0.28979 -3.80769e-06 0 610.835
-0.284243 -3.80769e-06 0 610.814
-0.278752 -3.80769e-06 0 610.373
-0.273316 -3.80769e-06 0 609.61
-0.267937 -3.80769e-06 0 608.535
-0.262614 -3.80769e-06 0 607.43
-0.25735 -3.80769e-06 0 606.437
-0.252146 -3.80769e-06 0 605.629
-0.247001 -3.80769e-06 0 605.116
-0.241916 -3.80769e-06 0 604.932
-0.236893 -3.80769e-06 0 605.149
-0.231931 -3.80769e-06 0 605.555
-0.227031 -3.80769e-06 0 606.178
-0.222195 -3.80769e-06 0 606.817
-0.217421 -3.80769e-06 0 607.392
-0.212711 -3.80769e-06 0 607.826
-0.208064 -3.80769e-06 0 608.066
-0.203482 -3.80769e-06 0 608.117
-0.198964 -3.80769e-06 0 608.021
-0.19451 -3.80769e-06 0 607.707
-0.19012 -3.80769e-06 0 607.233
-0.185796 -3.80769e-06 0 606.615
-0.181535 -3.80769e-06 0 605.902
-0.17734 -3.80769e-06 0 605.103
-0.173208 -3.80769e-06 0 604.3
-0.169141 -3.80769e-06 0 603.548
-0.165138 -3.80769e-06 0 602.88
-0.161199 -3.80769e-06 0 602.316
-0.157325 -3.80769e-06 0 601.901
-0.153513 -3.80769e-06 0 601.639
-0.149765 -3.80769e-06 0 601.528
-0.14608 -3.80769e-06 0 601.496
-0.142457 -3.80769e-06 0 601.733
-0.138897 -3.80769e-06 0 601.995
-0.135398 -3.80769e-06 0 602.412
-0.131961 -3.80769e-06 0 602.893
-0.128584 -3.80769e-06 0 603.435
-0.125268 -3.80769e-06 0 603.99
-0.122011 -3.80769e-06 0 604.511
-0.118815 -3.80769e-06 0 604.964
-0.115677 -3.80769e-06 0 605.349
-0.112597 -3.80769e-06 0 605.657
-0.109574 -3.80769e-06 0 605.887
-0.106609 -3.80769e-06 0 606.035
-0.1037 -3.80769e-06 0 606.127
-0.100846 -3.80769e-06 0 606.163
-0.098048 -3.80769e-06 0 606.158
-0.0953042 -3.80769e-06 0 606.068
-0.0926143 -3.80769e-06 0 605.954
-0.0899773 -3.80769e-06 0 605.795
-0.0873927 -3.80769e-06 0 605.594
-0.0848599 -3.80769e-06 0 605.347
-0.082378 -3.80769e-06 0 605.071
-0.0799465 -3.80769e-06 0 604.763
-0.0775645 -3.80769e-06 0 604.431
-0.0752312 -3.80769e-06 0 604.076
-0.0729462 -3.80769e-06 0 603.71
-0.0707085 -3.80769e-06 0 603.338
-0.0685175 -3.80769e-06 0 602.963
-0.0663725 -3.80769e-06 0 602.59
-0.0642727 -3.80769e-06 0 602.229
-0.0622173 -3.80769e-06 0 601.881
-0.0602058 -3.80769e-06 0 601.548
-0.0582373 -3.80769e-06 0 601.23
-0.0563111 -3.80769e-06 0 600.928
-0.0544265 -3.80769e-06 0 600.642
-0.0525827 -3.80769e-06 0 600.369
-0.0507792 -3.80769e-06 0 600.113
-0.0490152 -3.80769e-06 0 599.873
-0.0472898 -3.80769e-06 0 599.65
-0.0456025 -3.80769e-06 0 599.438
-0.0439526 -3.80769e-06 0 599.243
-0.0423394 -3.80769e-06 0 599.06
-0.0407622 -3.80769e-06 0 598.891
-0.0392203 -3.80769e-06 0 598.728
-0.0377131 -3.80769e-06 0 598.581
-0.0362398 -3.80769e-06 0 598.441
-0.0347999 -3.80769e-06 0 598.315
-0.0333926 -3.80769e-06 0 598.193
-0.0320175 -3.80769e-06 0 598.087
-0.0306737 -3.80769e-06 0 597.988
-0.0293607 -3.80769e-06 0 597.902
-0.0280779 -3.80769e-06 0 597.811
-0.0268246 -3.80769e-06 0 597.736
-0.0256004 -3.80769e-06 0 597.687
-0.0244045 -3.80769e-06 0 597.922
-0.0232363 -3.80769e-06 0 601.157
-0.0220954 -3.80769e-06 0 617.483
-0.0209812 -3.80769e-06 0 669.811
-0.019893 -3.80769e-06 0 764.417
-0.0188303 -3.80769e-06 0 866.093
-0.0177927 -3.80769e-06 0 947.91
-0.0167794 -3.80769e-06 0 1010.68
-0.0157901 -3.80769e-06 0 1062.84
-0.0148243 -3.80769e-06 0 1109.97
-0.0138814 -3.80769e-06 0 1153.29
-0.0129608 -3.80769e-06 0 1193.64
-0.0120623 -3.80769e-06 0 1231.45
-0.0111851 -3.80769e-06 0 1266.25
-0.0103289 -3.80769e-06 0 1298.61
-0.00949328 -3.80769e-06 0 1328.79
-0.00867767 -3.80769e-06 0 1356.95
-0.00788168 -3.80769e-06 0 1383.39
-0.00710485 -3.80769e-06 0 1408.15
-0.00634675 -3.80769e-06 0 1431.27
-0.00560698 -3.80769e-06 0 1452.54
-0.0048851 -3.80769e-06 0 1471.39
-0.00418071 -3.80769e-06 0 1487.23
-0.00349342 -3.80769e-06 0 1500.91
-0.00282284 -3.80769e-06 0 1514.34
-0.00216857 -3.80769e-06 0 1527.5
-0.00153026 -3.80769e-06 0 1546.88
-0.00090752 -3.80769e-06 0 1594.89
-0.0003 -3.80769e-06 0 1678.63
0.000259937 0.000146262 2.25537e-21 1567.45
0.000779437 0.000446185 0 1616.77
0.00129893 0.000746101 0 1636.48
0.00181858 0.00104611 2.2554e-21 1671.81
0.00233835 0.00134618 -2.25541e-21 1724.38
0.00285828 0.00164636 2.25542e-21 1786.35
0.00337841 0.00194664 0 1858.27
0.00389877 0.00224706 0 1938.15
0.00441941 0.00254764 -2.25544e-21 2025.32
0.00494034 0.00284839 2.25545e-21 2119.78
0.00546162 0.00314934 -2.25546e-21 2221.12
0.00598328 0.0034505 2.25547e-21 2329.37
0.00650535 0.00375191 2.25547e-21 2444.35
0.00702786 0.00405357 2.25548e-21 2566.93
0.00755087 0.00435552 0 2697.81
0.00807439 0.00465776 -2.25549e-21 2837.96
0.00859847 0.00496033 2.2555e-21 2987.6
0.00912315 0.00526324 0 3146.97
0.00964845 0.00556651 2.25551e-21 3315.61
0.0101744 0.00587017 0 3493.5
0.0107011 0.00617424 0 3680.56
0.0112285 0.00647873 -2.25552e-21 3876.97
0.0117567 0.00678367 0 4081.28
0.0122857 0.00708907 0 4295.45
0.0128156 0.00739497 0 4517.79
0.0133463 0.00770137 -2.25554e-21 4748.59
0.0138779 0.00800831 0 4988.38
0.0144106 0.0083158 0 5238.49
0.0149442 0.00862387 0 5501.23
0.0154788 0.00893253 0 5781.92
0.0160145 0.00924181 0 6086.34
0.0165513 0.00955172 2.25556e-21 6422.11
0.0170893 0.00986231 -2.25556e-21 6794.23
0.0176284 0.0101736 0 7201.4
0.0181687 0.0104855 0 7635.39
0.0187103 0.0107982 2.25556e-21 8086.02
0.0192532 0.0111117 2.25557e-21 8550.78
0.0197975 0.0114259 2.25557e-21 9024.11
0.0203431 0.0117408 0 9503.31
0.0208901 0.0120566 4.51114e-21 9980.73
0.0214385 0.0123732 -4.51114e-21 10452.4
0.0219884 0.0126907 0 10915.2
0.0225398 0.0130091 4.51114e-21 11367.5
0.0230928 0.0133283 0 11795.5
0.0236474 0.0136485 0 12185.1
0.0242037 0.0139697 0 12518.4
0.0247616 0.0142918 -4.51113e-21 12792.8
0.0253212 0.0146148 -4.51113e-21 13017.7
0.0258825 0.0149389 -4.51114e-21 13198.7
0.0264456 0.015264 0 13346.7
0.0270106 0.0155902 0 13473.7
0.0275774 0.0159174 -4.51112e-21 13584.3
0.0281462 0.0162457 0 13685.1
0.0287168 0.0165752 4.51111e-21 13768.3
0.0292895 0.0169059 -4.51111e-21 13825.2
0.0298642 0.0172376 0 13858.8
0.0304409 0.0175706 0 13880.1
0.0310198 0.0179048 4.5111e-21 13876.6
0.0316007 0.0182402 4.5111e-21 13856
0.0321839 0.0185768 -4.51107e-21 13847.2
0.0327693 0.0189148 0 13856.2
0.0333569 0.0192541 0 13869.6
0.0339469 0.0195947 4.51106e-21 13864.1
0.0345392 0.0199366 0 13898.8
0.0351339 0.02028 0 13824
0.035731 0.0206247 4.51105e-21 13778.7
0.0363305 0.0209708 -4.51103e-21 13735.8
0.0369326 0.0213184 4.51102e-21 13690.3
0.0375373 0.0216675 0 13655.5
0.0381445 0.0220181 0 13620.6
0.0387543 0.0223702 0 13579.6
0.0393668 0.0227238 4.51099e-21 13535.8
0.0399821 0.023079 -4.51097e-21 13492.1
0.0406001 0.0234358 4.51097e-21 13453.9
0.041221 0.0237942 0 13420
0.0418446 0.0241542 0 13394.5
0.0424712 0.024516 4.51092e-21 13374.9
0.0431006 0.0248794 -4.51094e-21 13343.6
0.0437331 0.0252445 0 13323.8
0.0443686 0.0256114 4.51089e-21 13304.3
0.0450071 0.02598 4.51089e-21 13277.4
0.0456487 0.0263505 0 13264.2
0.0462935 0.0267227 0 13229
0.0469415 0.0270968 -4.51085e-21 13207.7
0.0475927 0.0274728 0 13170.6
0.0482473 0.0278507 -4.51081e-21 13132.6
0.0489051 0.0282305 4.51081e-21 13099.7
0.0495663 0.0286122 -4.51079e-21 13062.3
0.050231 0.0289959 0 13036.9
0.0508991 0.0293816 -4.51077e-21 13013.9
0.0515707 0.0297694 4.51073e-21 13001.1
0.0522459 0.0301592 -4.51073e-21 12987
0.0529247 0.0305511 0 12981
0.0536071 0.0309451 0 12967.6
0.0542933 0.0313412 -4.51067e-21 12965.6
0.0549832 0.0317395 0 12963.7
0.0556769 0.03214 0 12953.3
0.0563744 0.0325427 0 12941.6
0.0570758 0.0329477 -4.5106e-21 12927.5
0.0577812 0.0333549 0 12910.7
0.0584905 0.0337645 0 12888.8
0.0592039 0.0341763 -4.51056e-21 12864.9
0.0599214 0.0345905 4.51053e-21 12844.3
0.060643 0.0350071 0 12820.6
0.0613688 0.0354262 4.51049e-21 12804
0.0620989 0.0358477 -4.51048e-21 12783.8
0.0628332 0.0362716 4.51046e-21 12777.4
0.0635719 0.0366981 0 12776.1
0.0643149 0.037127 4.51041e-21 12776.1
0.0650624 0.0375586 0 12791.3
0.0658144 0.0379927 0 12787.3
0.0665709 0.0384295 4.51035e-21 12789.5
0.0673321 0.0388689 -4.51035e-21 12774.1
0.0680979 0.039311 0 12759.5
0.0688683 0.0397558 -4.51029e-21 12735.4
0.0696435 0.0402034 4.51029e-21 12707.5
0.0704236 0.0406537 0 12687
0.0712085 0.0411069 0 12666.4
0.0719983 0.0415628 0 12656
0.0727931 0.0420217 0 12650
0.0735929 0.0424834 0 12648.7
0.0743978 0.0429481 0 12652
0.0752078 0.0434158 0 12643.9
0.076023 0.0438864 4.5101e-21 12639
0.0768435 0.0443601 -4.51009e-21 12623.9
0.0776693 0.0448369 -4.51004e-21 12607.9
0.0785004 0.0453167 4.51003e-21 12590
0.079337 0.0457997 0 12574.4
0.080179 0.0462858 0 12563.4
0.0810266 0.0467751 0 12558
0.0818797 0.0472677 0 12554.3
0.0827385 0.0477635 0 12559
0.083603 0.0482626 0 12558.3
0.0844733 0.0487651 4.50985e-21 12560
0.0853495 0.0492709 -4.50983e-21 12551.3
0.0862316 0.0497801 0 12542.6
0.0871195 0.0502927 -4.50978e-21 12529.4
0.0880135 0.0508089 0 12508.8
0.0889136 0.0513285 0 12490
0.0898198 0.0518517 0 12471
0.0907322 0.0523785 0 12454.2
0.0916509 0.0529089 0 12442.1
0.0925758 0.0534429 4.50963e-21 12432.6
0.0935072 0.0539806 4.50959e-21 12427.3
0.094445 0.054522 0 12425.3
0.0953894 0.0550672 4.50953e-21 12421.3
0.0963404 0.0556162 0 12420.2
0.0972979 0.0561691 0 12413.6
0.0982622 0.0567258 0 12403.1
0.0992333 0.0572865 0 12389.5
0.100211 0.057851 0 12378.8
0.101196 0.0584196 0 12367.9
0.102188 0.0589922 4.50935e-21 12351.8
0.103187 0.0595689 4.50932e-21 12338.7
0.104193 0.0601497 -4.50928e-21 12330.4
0.105206 0.0607347 0 12315.1
0.106226 0.0613239 0 12308
0.107254 0.0619172 0 12297.6
0.10829 0.0625149 4.50918e-21 12297.3
0.109332 0.0631169 4.50915e-21 12296.8
0.110382 0.0637232 -4.50911e-21 12289.2
0.11144 0.064334 -4.50908e-21 12278.5
0.112506 0.0649492 4.50905e-21 12269.8
0.11358 0.0655688 4.50902e-21 12274.5
0.114661 0.066193 0 12265.3
0.11575 0.0668218 0 12267.2
0.116847 0.0674552 0 12266
0.117952 0.0680932 0 12258.1
0.119065 0.068736 0 12248.3
0.120187 0.0693834 4.50884e-21 12245.2
0.121316 0.0700357 0 12226.7
0.122455 0.0706928 0 12215.2
0.123601 0.0713548 -4.50875e-21 12211.3
0.124756 0.0720217 0 12196.7
0.12592 0.0726935 -4.5087e-21 12192.8
0.127093 0.0733704 0 12187.5
0.128274 0.0740524 0 12180
0.129464 0.0747395 4.50859e-21 12169.3
0.130663 0.0754317 0 12161
0.131871 0.0761292 4.50853e-21 12169.2
0.133088 0.0768319 4.50851e-21 12162.1
0.134315 0.0775399 0 12169.4
0.13555 0.0782532 4.50845e-21 12162.3
0.136795 0.078972 0 12155.5
0.13805 0.0796962 0 12141.9
0.139314 0.080426 -4.50834e-21 12128.1
0.140587 0.0811613 -4.50831e-21 12117.4
0.14187 0.0819021 4.50827e-21 12106.4
0.143163 0.0826487 0 12093.9
0.144466 0.0834009 0 12084.3
0.145779 0.0841589 0 12080.7
0.147102 0.0849227 4.50815e-21 12077
0.148435 0.0856924 4.50811e-21 12065.4
0.149779 0.0864679 0 12063.4
0.151133 0.0872495 4.50805e-21 12058.6
0.152497 0.0880371 4.50801e-21 12063.4
0.153871 0.0888307 4.50798e-21 12063.7
0.155257 0.0896305 0 12059.4
0.156653 0.0904364 4.50791e-21 12057.7
0.15806 0.0912487 4.50787e-21 12040.4
0.159478 0.0920672 0 12034.3
0.160907 0.092892 0 12016.4
0.162347 0.0937233 0 12003.6
0.163798 0.0945611 4.50774e-21 12008.4
0.16526 0.0954054 0 11998.6
0.166734 0.0962563 0 12001.9
0.168219 0.0971138 0 11997.8
0.169716 0.097978 4.50761e-21 11989.3
0.171225 0.098849 4.50758e-21 11982.4
0.172745 0.0997268 4.50754e-21 11966.7
0.174278 0.100611 0 11957.9
0.175822 0.101503 0 11954.6
0.177379 0.102402 0 11964.8
0.178947 0.103308 4.50741e-21 11960.7
0.180529 0.10422 4.50737e-21 11956.1
0.182122 0.10514 4.50734e-21 11956.4
0.183728 0.106068 0 11942.9
0.185347 0.107002 -4.50727e-21 11929.8
0.186979 0.107944 0 11914.9
0.188623 0.108894 0 11915.5
0.190281 0.109851 4.50716e-21 11906.4
0.191952 0.110815 0 11918.1
0.193636 0.111787 -4.5071e-21 11922.6
0.195333 0.112767 -4.50707e-21 11928.6
0.197044 0.113755 -4.50702e-21 11924.9
0.198768 0.114751 -4.507e-21 11925
0.200506 0.115754 -4.50696e-21 11900.3
0.202258 0.116766 0 11902.8
0.204024 0.117785 4.50688e-21 11894.9
0.205805 0.118813 4.50686e-21 11903.1
0.207599 0.119849 0 11904.6
0.209408 0.120893 -4.50679e-21 11905.2
0.211231 0.121946 -4.50676e-21 11906.6
0.213068 0.123007 0 11878.2
0.214921 0.124076 0 11867.6
0.216788 0.125154 0 11856.2
0.21867 0.126241 0 11848.3
0.220567 0.127336 0 11845.2
0.22248 0.12844 0 11856.3
0.224408 0.129553 0 11861.1
0.226351 0.130675 0 11863.8
0.22831 0.131806 0 11857.6
0.230284 0.132946 9.01282e-21 11832.9
0.232275 0.134095 0 11809.7
0.234282 0.135254 9.01268e-21 11805.8
0.236304 0.136421 0 11788.7
0.238344 0.137598 9.01253e-21 11799.7
0.2404 0.138785 0 11803.8
0.242472 0.139982 0 11821.4
