# wallHeatFlux  FACE_DATA 398
# x  y  z  wallHeatFlux
-0.7975 0 0.025 -653698
-0.79239 0 0.025 -120515
-0.787056 0 0.025 -69279.9
-0.781492 0 0.025 -56392.5
-0.775691 0 0.025 -55560.3
-0.769649 0 0.025 -58192.8
-0.763362 0 0.025 -60383.3
-0.756822 0 0.025 -60858.5
-0.750025 0 0.025 -60583.8
-0.742968 0 0.025 -59899.8
-0.735648 0 0.025 -58980.4
-0.72806 0 0.025 -57943
-0.720203 0 0.025 -56874
-0.712076 0 0.025 -55842.8
-0.703677 0 0.025 -54868.9
-0.695006 0 0.025 -53915.4
-0.686065 0 0.025 -52928.8
-0.676855 0 0.025 -51925.2
-0.667379 0 0.025 -51171.2
-0.65764 0 0.025 -50464.9
-0.647644 0 0.025 -49648.4
-0.637397 0 0.025 -49007
-0.626906 0 0.025 -48328.8
-0.616179 0 0.025 -47726.2
-0.605224 0 0.025 -47107.7
-0.594054 0 0.025 -46583.8
-0.582678 0 0.025 -46072.7
-0.57111 0 0.025 -45634.8
-0.559364 0 0.025 -45142.4
-0.547454 0 0.025 -44706.2
-0.535396 0 0.025 -44284.6
-0.523205 0 0.025 -43870
-0.510901 0 0.025 -43525.4
-0.4985 0 0.025 -43176.8
-0.486021 0 0.025 -42837.6
-0.473483 0 0.025 -42550.4
-0.460905 0 0.025 -42228.3
-0.448308 0 0.025 -41905.4
-0.435709 0 0.025 -41656.2
-0.42313 0 0.025 -41415.1
-0.41059 0 0.025 -41167.6
-0.39811 0 0.025 -40918.7
-0.385706 0 0.025 -40689.6
-0.373398 0 0.025 -40465.9
-0.361205 0 0.025 -40273.6
-0.349141 0 0.025 -40111.7
-0.337226 0 0.025 -39949.6
-0.325475 0 0.025 -39754.9
-0.313901 0 0.025 -39549.2
-0.30252 0 0.025 -39332.2
-0.291343 0 0.025 -39137.7
-0.280382 0 0.025 -38975.3
-0.269646 0 0.025 -38876.6
-0.259148 0 0.025 -38810.5
-0.248893 0 0.025 -38740.5
-0.23889 0 0.025 -38649.4
-0.229143 0 0.025 -38557.9
-0.219659 0 0.025 -38414.4
-0.210441 0 0.025 -38254.7
-0.201491 0 0.025 -38092.4
-0.192812 0 0.025 -37938.8
-0.184405 0 0.025 -37794.6
-0.176269 0 0.025 -37675.6
-0.168404 0 0.025 -37579.5
-0.160808 0 0.025 -37510.2
-0.15348 0 0.025 -37459.6
-0.146415 0 0.025 -37420.4
-0.13961 0 0.025 -37401.4
-0.133063 0 0.025 -37378.8
-0.126767 0 0.025 -37362.2
-0.120718 0 0.025 -37340.8
-0.11491 0 0.025 -37314.6
-0.109339 0 0.025 -37283.7
-0.103997 0 0.025 -37246.7
-0.0988805 0 0.025 -37202.6
-0.0939808 0 0.025 -37156.2
-0.0892928 0 0.025 -37100.3
-0.0848096 0 0.025 -37039.1
-0.0805248 0 0.025 -36978.4
-0.0764316 0 0.025 -36917.8
-0.0725237 0 0.025 -36852
-0.0687943 0 0.025 -36792.1
-0.065237 0 0.025 -36731.8
-0.0618454 0 0.025 -36677.6
-0.058613 0 0.025 -36628.1
-0.0555337 0 0.025 -36579.4
-0.0526013 0 0.025 -36535.5
-0.0498099 0 0.025 -36491.9
-0.0471536 0 0.025 -36448.3
-0.0446266 0 0.025 -36410.1
-0.0422235 0 0.025 -36371.9
-0.039939 0 0.025 -36322.9
-0.0377676 0 0.025 -36005.8
-0.0357044 0 0.025 -33862.1
-0.0337445 0 0.025 -27188.3
-0.0318832 0 0.025 -20164.7
-0.0301159 0 0.025 -23104.9
-0.0284383 0 0.025 -32554.7
-0.0268461 0 0.025 -42065.8
-0.0253353 0 0.025 -49959.8
-0.023902 0 0.025 -56858.2
-0.0225426 0 0.025 -63065.7
-0.0212532 0 0.025 -68467.2
-0.0200306 0 0.025 -73089.5
-0.0188715 0 0.025 -77257.9
-0.0177728 0 0.025 -81100.2
-0.0167313 0 0.025 -84616.3
-0.0157444 0 0.025 -87865.1
-0.0148092 0 0.025 -90893.4
-0.0139232 0 0.025 -93681
-0.0130838 0 0.025 -96210.2
-0.0122887 0 0.025 -98469.3
-0.0115356 0 0.025 -100482
-0.0108223 0 0.025 -102272
-0.0101469 0 0.025 -103865
-0.00950727 0 0.025 -105276
-0.00890168 0 0.025 -106534
-0.00832835 0 0.025 -107680
-0.00778557 0 0.025 -108764
-0.00727176 0 0.025 -109818
-0.0067854 0 0.025 -110885
-0.00632507 0 0.025 -111983
-0.00588937 0 0.025 -113147
-0.00547703 0 0.025 -114392
-0.0050868 0 0.025 -115744
-0.00471753 0 0.025 -117210
-0.0043681 0 0.025 -118811
-0.00403746 0 0.025 -120567
-0.00372461 0 0.025 -122495
-0.0034286 0 0.025 -124576
-0.00314855 0 0.025 -126828
-0.0028836 0 0.025 -129281
-0.00263294 0 0.025 -131983
-0.00239581 0 0.025 -134848
-0.0021715 0 0.025 -137642
-0.00195929 0 0.025 -140635
-0.00175856 0 0.025 -143801
-0.00156869 0 0.025 -147106
-0.00138908 0 0.025 -150550
-0.0012192 0 0.025 -154145
-0.00105853 0 0.025 -157823
-0.000906546 0 0.025 -161561
-0.000762803 0 0.025 -165259
-0.000626848 0 0.025 -168590
-0.000498265 0 0.025 -170831
-0.000376656 0 0.025 -170081
-0.000261642 0 0.025 -162682
-0.00015287 0 0.025 -141423
-5e-05 0 0.025 -90028.7
4.14519e-05 2.79596e-05 0.025 -63182.3
0.000125371 8.45641e-05 0.025 -75792.9
0.000211347 0.000142556 0.025 -91229.1
0.000299429 0.000201968 0.025 -102624
0.000389669 0.000262835 0.025 -112512
0.000482118 0.000325193 0.025 -122022
0.000576831 0.000389077 0.025 -130932
0.000673861 0.000454524 0.025 -138935
0.000773265 0.000521574 0.025 -145958
0.0008751 0.000590262 0.025 -152085
0.000979426 0.000660632 0.025 -157518
0.0010863 0.000732721 0.025 -162412
0.00119579 0.000806572 0.025 -166864
0.00130795 0.000882227 0.025 -171084
0.00142285 0.00095973 0.025 -175062
0.00154056 0.00103912 0.025 -178960
0.00166115 0.00112046 0.025 -182761
0.00178467 0.00120378 0.025 -186536
0.00191121 0.00128913 0.025 -190361
0.00204083 0.00137656 0.025 -194164
0.00217362 0.00146612 0.025 -198041
0.00230964 0.00155787 0.025 -202034
0.00244897 0.00165185 0.025 -206126
0.00259169 0.00174812 0.025 -210345
0.00273789 0.00184673 0.025 -214712
0.00288765 0.00194774 0.025 -219271
0.00304105 0.00205122 0.025 -223997
0.00319818 0.00215719 0.025 -228918
0.00335912 0.00226575 0.025 -234104
0.00352397 0.00237695 0.025 -239504
0.00369283 0.00249085 0.025 -245201
0.00386579 0.00260751 0.025 -251177
0.00404294 0.00272699 0.025 -257489
0.00422438 0.00284938 0.025 -264155
0.00441022 0.00297474 0.025 -271234
0.00460056 0.00310312 0.025 -278752
0.00479552 0.00323462 0.025 -286733
0.00499519 0.0033693 0.025 -295240
0.00519968 0.00350723 0.025 -304226
0.00540911 0.00364849 0.025 -313871
0.00562361 0.00379318 0.025 -324196
0.00584329 0.00394134 0.025 -335188
0.00606826 0.00409309 0.025 -346993
0.00629865 0.00424849 0.025 -359537
0.0065346 0.00440764 0.025 -373106
0.00677623 0.00457063 0.025 -387778
0.00702368 0.00473753 0.025 -403625
0.00727707 0.00490844 0.025 -420960
0.00753655 0.00508347 0.025 -439666
0.00780227 0.00526269 0.025 -460093
0.00807436 0.00544622 0.025 -482306
0.00835298 0.00563415 0.025 -507097
0.00863826 0.00582659 0.025 -534376
0.00893038 0.00602362 0.025 -564113
0.00922949 0.00622537 0.025 -599478
0.00953574 0.00643195 0.025 -638788
0.00984929 0.00664345 0.025 -680876
0.0101703 0.00686 0.025 -727122
0.0104991 0.00708171 0.025 -776443
0.0108356 0.00730871 0.025 -825166
0.0111801 0.0075411 0.025 -874520
0.0115329 0.00777902 0.025 -926627
0.011894 0.00802259 0.025 -978303
0.0122637 0.00827194 0.025 -1.0304e+06
0.0126421 0.00852719 0.025 -1.0867e+06
0.0130295 0.0087885 0.025 -1.14403e+06
0.013426 0.00905597 0.025 -1.20653e+06
0.013832 0.00932978 0.025 -1.27269e+06
0.0142475 0.00961003 0.025 -1.33945e+06
0.0146727 0.0098969 0.025 -1.40806e+06
0.0151081 0.0101905 0.025 -1.47349e+06
0.0155536 0.010491 0.025 -1.53675e+06
0.0160097 0.0107986 0.025 -1.59071e+06
0.0164764 0.0111134 0.025 -1.64498e+06
0.016954 0.0114356 0.025 -1.69901e+06
0.0174427 0.0117653 0.025 -1.73747e+06
0.0179429 0.0121026 0.025 -1.77435e+06
0.0184548 0.0124479 0.025 -1.8271e+06
0.0189786 0.0128013 0.025 -1.83455e+06
0.0195146 0.0131628 0.025 -1.84667e+06
0.020063 0.0135327 0.025 -1.87336e+06
0.0206242 0.0139112 0.025 -1.86592e+06
0.0211983 0.0142984 0.025 -1.84944e+06
0.0217857 0.0146947 0.025 -1.84623e+06
0.0223867 0.0151 0.025 -1.83862e+06
0.0230015 0.0155147 0.025 -1.82259e+06
0.0236304 0.0159389 0.025 -1.80576e+06
0.0242738 0.0163729 0.025 -1.76213e+06
0.0249318 0.0168167 0.025 -1.71057e+06
0.025605 0.0172708 0.025 -1.67645e+06
0.0262935 0.0177352 0.025 -1.61945e+06
0.0269977 0.0182102 0.025 -1.5707e+06
0.0277178 0.0186959 0.025 -1.52077e+06
0.0284544 0.0191927 0.025 -1.5256e+06
0.0292075 0.0197008 0.025 -1.47367e+06
0.0299777 0.0202203 0.025 -1.43078e+06
0.0307653 0.0207514 0.025 -1.39838e+06
0.0315704 0.0212945 0.025 -1.37026e+06
0.0323937 0.0218499 0.025 -1.34958e+06
0.0332354 0.0224176 0.025 -1.33393e+06
0.0340959 0.022998 0.025 -1.32223e+06
0.0349755 0.0235913 0.025 -1.30417e+06
0.0358747 0.0241978 0.025 -1.3114e+06
0.0367938 0.0248178 0.025 -1.29241e+06
0.0377331 0.0254513 0.025 -1.28186e+06
0.0386932 0.0260989 0.025 -1.27796e+06
0.0396743 0.0267606 0.025 -1.27363e+06
0.0406769 0.0274369 0.025 -1.27248e+06
0.0417013 0.0281279 0.025 -1.26371e+06
0.042748 0.0288339 0.025 -1.26746e+06
0.0438175 0.0295552 0.025 -1.25966e+06
0.04491 0.0302922 0.025 -1.2496e+06
0.0460262 0.031045 0.025 -1.25671e+06
0.0471662 0.031814 0.025 -1.26317e+06
0.0483306 0.0325995 0.025 -1.24819e+06
0.0495199 0.0334016 0.025 -1.24254e+06
0.0507344 0.0342208 0.025 -1.23563e+06
0.0519746 0.0350573 0.025 -1.23006e+06
0.0532409 0.0359114 0.025 -1.23699e+06
0.0545339 0.0367835 0.025 -1.2228e+06
0.0558538 0.0376739 0.025 -1.2144e+06
0.0572012 0.0385827 0.025 -1.21171e+06
0.0585766 0.0395104 0.025 -1.21542e+06
0.0599804 0.0404573 0.025 -1.22882e+06
0.061413 0.0414236 0.025 -1.21426e+06
0.0628748 0.0424096 0.025 -1.23137e+06
0.0643665 0.0434157 0.025 -1.22264e+06
0.0658883 0.0444422 0.025 -1.1938e+06
0.0674408 0.0454894 0.025 -1.18205e+06
0.0690245 0.0465576 0.025 -1.18236e+06
0.0706398 0.0476471 0.025 -1.17677e+06
0.0722871 0.0487582 0.025 -1.16962e+06
0.0739669 0.0498912 0.025 -1.16397e+06
0.0756797 0.0510466 0.025 -1.16686e+06
0.0774258 0.0522244 0.025 -1.1723e+06
0.0792059 0.053425 0.025 -1.16424e+06
0.0810203 0.0546489 0.025 -1.18086e+06
0.0828694 0.0558961 0.025 -1.1542e+06
0.0847537 0.0571671 0.025 -1.18592e+06
0.0866737 0.0584622 0.025 -1.15258e+06
0.0886298 0.0597816 0.025 -1.15056e+06
0.0906224 0.0611256 0.025 -1.15821e+06
0.0926518 0.0624944 0.025 -1.12943e+06
0.0947185 0.0638884 0.025 -1.16471e+06
0.096823 0.065308 0.025 -1.1277e+06
0.0989659 0.0667532 0.025 -1.19413e+06
0.101147 0.0682245 0.025 -1.47186e+06
0.103367 0.0697219 0.025 -1.38901e+06
0.105626 0.0712458 0.025 -1.06474e+06
0.107926 0.0727965 0.025 -1.07257e+06
0.110265 0.074374 0.025 -1.11075e+06
0.112644 0.0759789 0.025 -1.61877e+06
0.115063 0.0776111 0.025 -1.1269e+06
0.117524 0.0792709 0.025 -1.51476e+06
0.120026 0.0809585 0.025 -1.63191e+06
0.122569 0.0826741 0.025 -1.45283e+06
0.125155 0.0844179 0.025 -1.30834e+06
0.127782 0.0861901 0.025 -1.15072e+06
0.130451 0.0879908 0.025 -1.12108e+06
0.133163 0.08982 0.025 -1.10656e+06
0.135918 0.0916781 0.025 -1.08479e+06
0.138716 0.0935651 0.025 -1.08346e+06
0.141556 0.095481 0.025 -1.08612e+06
0.14444 0.097426 0.025 -1.39653e+06
0.147367 0.0994004 0.025 -1.98682e+06
0.150337 0.101404 0.025 -1.47774e+06
0.153351 0.103437 0.025 -1.44384e+06
0.156408 0.105498 0.025 -1.939e+06
0.159508 0.107589 0.025 -933975
0.162651 0.10971 0.025 -1.34614e+06
0.165838 0.111859 0.025 -2.83779e+06
0.169069 0.114039 0.025 -1.85971e+06
0.172343 0.116247 0.025 -1.70325e+06
0.175659 0.118483 0.025 -1.61936e+06
0.179018 0.120749 0.025 -1.63558e+06
0.182421 0.123045 0.025 -1.69788e+06
0.185866 0.125368 0.025 -1.51819e+06
0.189353 0.12772 0.025 -1.55033e+06
0.192882 0.1301 0.025 -1.63601e+06
0.196453 0.132509 0.025 -1.55092e+06
0.200065 0.134946 0.025 -1.89626e+06
0.203718 0.13741 0.025 -1.70758e+06
0.207412 0.139901 0.025 -841224
0.211146 0.14242 0.025 -896750
0.214919 0.144965 0.025 -1.4349e+06
0.218732 0.147537 0.025 -895094
0.222583 0.150134 0.025 -1.65547e+06
0.226472 0.152757 0.025 -880631
0.230399 0.155406 0.025 -1.557e+06
0.234362 0.15808 0.025 -1.47157e+06
0.238362 0.160777 0.025 -1.97963e+06
0.242396 0.163498 0.025 -1.74383e+06
0.246466 0.166244 0.025 -1.86918e+06
0.250569 0.169012 0.025 -852417
0.254706 0.171801 0.025 -1.3681e+06
0.258874 0.174613 0.025 -1.36931e+06
0.263074 0.177446 0.025 -1.71417e+06
0.267304 0.180299 0.025 -1.39804e+06
0.271564 0.183172 0.025 -864037
0.275852 0.186064 0.025 -1.42222e+06
0.280168 0.188975 0.025 -841233
0.28451 0.191904 0.025 -1.43655e+06
0.288876 0.19485 0.025 -1.94485e+06
0.293268 0.197812 0.025 -1.40691e+06
0.297683 0.20079 0.025 -1.68055e+06
0.302119 0.203782 0.025 -1.88381e+06
0.306577 0.206788 0.025 -1.37755e+06
0.311054 0.209808 0.025 -1.41466e+06
0.315549 0.212841 0.025 -1.07187e+06
0.320063 0.215885 0.025 -1.74456e+06
0.324591 0.218939 0.025 -1.24939e+06
0.329134 0.222003 0.025 -1.2452e+06
0.333691 0.225077 0.025 -1.86457e+06
0.33826 0.228159 0.025 -1.57736e+06
0.342839 0.231248 0.025 -1.60349e+06
0.347428 0.234343 0.025 -793771
0.352025 0.237444 0.025 -1.63839e+06
0.356628 0.240548 0.025 -1.23574e+06
0.361237 0.243658 0.025 -1.04547e+06
0.36585 0.246769 0.025 -2.08196e+06
0.370465 0.249882 0.025 -1.01109e+06
0.375082 0.252996 0.025 -1.33063e+06
0.379698 0.25611 0.025 -2.06492e+06
0.384313 0.259223 0.025 -1.24532e+06
0.388926 0.262333 0.025 -1.47984e+06
0.393534 0.265442 0.025 -1.23695e+06
0.398136 0.268546 0.025 -799605
0.40273 0.271645 0.025 -1.41982e+06
0.407317 0.274739 0.025 -1.4394e+06
0.411894 0.277826 0.025 -1.7999e+06
0.41646 0.280906 0.025 -766299
0.421014 0.283977 0.025 -1.36287e+06
0.425554 0.28704 0.025 -1.60218e+06
0.430079 0.290092 0.025 -1.30555e+06
0.434588 0.293133 0.025 -1.56173e+06
0.439079 0.296162 0.025 -1.12691e+06
0.443551 0.299179 0.025 -1.40945e+06
0.448004 0.302183 0.025 -1.45338e+06
0.452437 0.305172 0.025 -1.43241e+06
0.456846 0.308146 0.025 -1.34149e+06
0.461232 0.311105 0.025 -1.36157e+06
0.465593 0.314047 0.025 -1.27144e+06
0.469929 0.316971 0.025 -1.63236e+06
0.474238 0.319878 0.025 -908554
0.47852 0.322766 0.025 -994628
0.482773 0.325635 0.025 -797098
0.486996 0.328483 0.025 -1.16572e+06
0.491189 0.331311 0.025 -1.714e+06
0.49535 0.334118 0.025 -1.13839e+06
