# p  FACE_DATA 398
# x  y  z  p
-0.7975 -7.61524e-06 0 1136.76
-0.79239 -7.61524e-06 0 893.87
-0.787056 -7.61524e-06 0 734.943
-0.781492 -7.61524e-06 0 707.192
-0.775691 -7.61524e-06 0 674.338
-0.769649 -7.61524e-06 0 653.869
-0.763361 -7.61524e-06 0 643.14
-0.756822 -7.61524e-06 0 635.615
-0.750025 -7.61524e-06 0 629.512
-0.742968 -7.61524e-06 0 618.71
-0.735648 -7.61524e-06 0 610.087
-0.72806 -7.61524e-06 0 601.607
-0.720203 -7.61524e-06 0 599.849
-0.712075 -7.61524e-06 0 602.21
-0.703676 -7.61524e-06 0 606.071
-0.695006 -7.61524e-06 0 610.294
-0.686065 -7.61524e-06 0 614.195
-0.676855 -7.61524e-06 0 616.909
-0.667379 -7.61524e-06 0 618.384
-0.657641 -7.61524e-06 0 619.386
-0.647644 -7.61524e-06 0 620.048
-0.637398 -7.61524e-06 0 620.189
-0.626906 -7.61524e-06 0 619.963
-0.616179 -7.61524e-06 0 619.498
-0.605225 -7.61524e-06 0 618.843
-0.594054 -7.61524e-06 0 617.834
-0.582677 -7.61524e-06 0 617.082
-0.57111 -7.61524e-06 0 616.446
-0.559364 -7.61524e-06 0 615.46
-0.547454 -7.61524e-06 0 614.311
-0.535396 -7.61524e-06 0 613.188
-0.523205 -7.61524e-06 0 612.276
-0.510901 -7.61524e-06 0 611.177
-0.498499 -7.61524e-06 0 610.056
-0.486021 -7.61524e-06 0 609.345
-0.473482 -7.61524e-06 0 609.036
-0.460905 -7.61524e-06 0 608.333
-0.448307 -7.61524e-06 0 607.206
-0.435709 -7.61524e-06 0 605.987
-0.42313 -7.61524e-06 0 605.292
-0.41059 -7.61524e-06 0 605.374
-0.39811 -7.61524e-06 0 605.399
-0.385706 -7.61524e-06 0 604.694
-0.373398 -7.61524e-06 0 603.543
-0.361205 -7.61524e-06 0 602.362
-0.349142 -7.61524e-06 0 601.661
-0.337226 -7.61524e-06 0 601.637
-0.325475 -7.61524e-06 0 602.042
-0.313901 -7.61524e-06 0 602.135
-0.30252 -7.61524e-06 0 601.383
-0.291343 -7.61524e-06 0 599.889
-0.280381 -7.61524e-06 0 598.248
-0.269647 -7.61524e-06 0 596.756
-0.259148 -7.61524e-06 0 595.746
-0.248893 -7.61524e-06 0 595.385
-0.23889 -7.61524e-06 0 596.001
-0.229143 -7.61524e-06 0 596.827
-0.219659 -7.61524e-06 0 597.645
-0.210441 -7.61524e-06 0 598.299
-0.201491 -7.61524e-06 0 598.632
-0.192812 -7.61524e-06 0 598.691
-0.184405 -7.61524e-06 0 598.326
-0.176269 -7.61524e-06 0 597.682
-0.168404 -7.61524e-06 0 596.834
-0.160809 -7.61524e-06 0 595.864
-0.15348 -7.61524e-06 0 594.787
-0.146415 -7.61524e-06 0 593.775
-0.13961 -7.61524e-06 0 592.849
-0.133063 -7.61524e-06 0 592.073
-0.126767 -7.61524e-06 0 591.487
-0.120717 -7.61524e-06 0 591.123
-0.11491 -7.61524e-06 0 590.973
-0.109339 -7.61524e-06 0 590.95
-0.103997 -7.61524e-06 0 591.192
-0.0988804 -7.61524e-06 0 591.451
-0.0939809 -7.61524e-06 0 591.786
-0.0892928 -7.61524e-06 0 592.161
-0.0848096 -7.61524e-06 0 592.554
-0.0805248 -7.61524e-06 0 592.924
-0.0764317 -7.61524e-06 0 593.25
-0.0725237 -7.61524e-06 0 593.51
-0.0687943 -7.61524e-06 0 593.729
-0.065237 -7.61524e-06 0 593.893
-0.0618454 -7.61524e-06 0 594.006
-0.058613 -7.61524e-06 0 594.087
-0.0555337 -7.61524e-06 0 594.142
-0.0526013 -7.61524e-06 0 594.179
-0.0498099 -7.61524e-06 0 594.198
-0.0471536 -7.61524e-06 0 594.204
-0.0446266 -7.61524e-06 0 594.192
-0.0422235 -7.61524e-06 0 594.171
-0.0399389 -7.61524e-06 0 594.132
-0.0377676 -7.61524e-06 0 594.131
-0.0357044 -7.61524e-06 0 594.097
-0.0337445 -7.61524e-06 0 594.448
-0.0318832 -7.61524e-06 0 594.72
-0.0301159 -7.61524e-06 0 595.033
-0.0284383 -7.61524e-06 0 595.416
-0.0268462 -7.61524e-06 0 598.3
-0.0253353 -7.61524e-06 0 608.762
-0.023902 -7.61524e-06 0 642.903
-0.0225425 -7.61524e-06 0 714.094
-0.0212532 -7.61524e-06 0 805.172
-0.0200306 -7.61524e-06 0 888.11
-0.0188715 -7.61524e-06 0 955.351
-0.0177727 -7.61524e-06 0 1011.76
-0.0167313 -7.61524e-06 0 1061.75
-0.0157444 -7.61524e-06 0 1107.18
-0.0148093 -7.61524e-06 0 1148.51
-0.0139232 -7.61524e-06 0 1186.02
-0.0130838 -7.61524e-06 0 1219.59
-0.0122887 -7.61524e-06 0 1250.13
-0.0115355 -7.61524e-06 0 1277.96
-0.0108223 -7.61524e-06 0 1303.37
-0.0101469 -7.61524e-06 0 1326.78
-0.00950727 -7.61524e-06 0 1348.26
-0.00890169 -7.61524e-06 0 1368.09
-0.00832834 -7.61524e-06 0 1386.35
-0.00778557 -7.61524e-06 0 1403.18
-0.00727176 -7.61524e-06 0 1418.66
-0.00678541 -7.61524e-06 0 1432.82
-0.00632507 -7.61524e-06 0 1445.67
-0.00588937 -7.61524e-06 0 1457.15
-0.00547703 -7.61524e-06 0 1467.31
-0.00508681 -7.61524e-06 0 1476.21
-0.00471753 -7.61524e-06 0 1484.05
-0.0043681 -7.61524e-06 0 1490.98
-0.00403746 -7.61524e-06 0 1497.19
-0.00372461 -7.61524e-06 0 1502.89
-0.0034286 -7.61524e-06 0 1508.29
-0.00314855 -7.61524e-06 0 1513.61
-0.00288361 -7.61524e-06 0 1519.03
-0.00263295 -7.61524e-06 0 1524.77
-0.00239582 -7.61524e-06 0 1531.08
-0.00217149 -7.61524e-06 0 1537.93
-0.00195929 -7.61524e-06 0 1545.5
-0.00175856 -7.61524e-06 0 1553.85
-0.00156869 -7.61524e-06 0 1563.69
-0.00138908 -7.61524e-06 0 1573.86
-0.00121921 -7.61524e-06 0 1584.36
-0.00105853 -7.61524e-06 0 1595.32
-0.000906546 -7.61524e-06 0 1606.19
-0.000762803 -7.61524e-06 0 1616.77
-0.000626849 -7.61524e-06 0 1626.48
-0.000498266 -7.61524e-06 0 1634.76
-0.000376656 -7.61524e-06 0 1641.03
-0.000261642 -7.61524e-06 0 1644.95
-0.00015287 -7.61524e-06 0 1646.75
-5e-05 -7.61524e-06 0 1649.87
4.14596e-05 2.03453e-05 0 1626.79
0.000125379 7.69412e-05 0 1632.26
0.000211356 0.000134924 0 1629.5
0.000299438 0.000194328 0 1626.17
0.000389678 0.000255186 0 1622.63
0.000482128 0.000317535 0 1619.45
0.000576841 0.000381409 0 1616.87
0.000673871 0.000446848 0 1615.08
0.000773276 0.000513887 0 1614.21
0.000875112 0.000582565 0 1614.57
0.000979439 0.000652924 0 1616.2
0.00108632 0.000725003 0 1619.13
0.00119581 0.000798843 0 1623.46
0.00130797 0.000874487 0 1629.27
0.00142287 0.000951979 0 1636.45
0.00154058 0.00103136 0 1645.04
0.00166117 0.00111268 0 1655.15
0.00178469 0.00119599 0 1666.63
0.00191123 0.00128133 0 1679.52
0.00204085 0.00136875 0 1693.79
0.00217364 0.0014583 0 1709.42
0.00230966 0.00155003 0 1726.4
0.00244899 0.001644 0 1744.74
0.00259171 0.00174025 0 1764.46
0.00273791 0.00183885 0 1785.54
0.00288767 0.00193985 0 1808.06
0.00304108 0.0020433 0 1831.99
0.0031982 0.00214927 0 1857.42
0.00335915 0.00225781 0 1884.38
0.003524 0.002369 0 1912.9
0.00369286 0.00248287 0 1943.08
0.00386582 0.00259951 0 1974.96
0.00404297 0.00271899 0 2008.6
0.00422442 0.00284136 0 2044.17
0.00441026 0.00296669 0 2081.69
0.0046006 0.00309506 0 2121.36
0.00479556 0.00322653 0 2163.45
0.00499523 0.00336119 0 2208.17
0.00519972 0.00349911 0 2256.07
0.00540916 0.00364036 0 2307.51
0.00562366 0.00378501 0 2363.07
0.00584334 0.00393316 0 2423.18
0.00606831 0.00408489 0 2488.28
0.00629871 0.00424027 0 2558.71
0.00653466 0.0043994 0 2634.87
0.00677629 0.00456236 0 2717.11
0.00702374 0.00472923 0 2805.76
0.00727714 0.00490013 0 2900.98
0.00753663 0.00507513 0 3003.03
0.00780234 0.00525433 0 3112.1
0.00807444 0.00543783 0 3228.22
0.00835306 0.00562573 0 3351.41
0.00863835 0.00581814 0 3481.7
0.00893047 0.00601514 0 3619.1
0.00922958 0.00621687 0 3763.56
0.00953584 0.00642341 0 3915.27
0.00984939 0.00663489 0 4073.78
0.0101705 0.00685141 0 4239.85
0.0104992 0.00707309 0 4413.51
0.0108357 0.00730005 0 4595.33
0.0111802 0.00753241 0 4785.81
0.011533 0.0077703 0 4985.91
0.0118941 0.00801384 0 5196.44
0.0122638 0.00826316 0 5419.81
0.0126422 0.00851837 0 5658.85
0.0130296 0.00877964 0 5917.23
0.0134262 0.00904708 0 6200.96
0.0138321 0.00932084 0 6514.23
0.0142476 0.00960107 0 6863.37
0.0146729 0.00988792 0 7251.87
0.0151082 0.0101815 0 7685.34
0.0155538 0.0104819 0 8166.39
0.0160098 0.0107895 0 8699.96
0.0164766 0.0111042 0 9289.35
0.0169542 0.0114263 0 9935.79
0.0174429 0.011756 0 10632.5
0.0179431 0.0120934 0 11366.2
0.018455 0.0124386 0 12124.5
0.0189789 0.0127918 0 12889
0.0195149 0.0131533 0 13654.2
0.0200633 0.0135232 0 14416.1
0.0206245 0.0139016 0 15159.4
0.0211986 0.0142888 0 15853.1
0.0217861 0.014685 0 16444.2
0.022387 0.0150903 0 16897.4
0.0230018 0.0155049 0 17181
0.0236307 0.0159291 0 17312.9
0.0242741 0.0163629 0 17356.3
0.0249322 0.0168068 0 17338.1
0.0256053 0.0172608 0 17282.7
0.0262939 0.0177251 0 17226.3
0.0269981 0.0182 0 17200
0.0277183 0.0186857 0 17196.6
0.0284548 0.0191825 0 17126.2
0.029208 0.0196904 0 17008.2
0.0299782 0.0202098 0 16856
0.0307658 0.0207409 0 16670.4
0.031571 0.021284 0 16461.3
0.0323942 0.0218393 0 16251.1
0.033236 0.0224069 0 16093.3
0.0340965 0.0229872 0 16013.7
0.0349762 0.0235805 0 15961.7
0.0358753 0.0241869 0 15884.9
0.0367944 0.0248067 0 15759.4
0.0377338 0.0254403 0 15635.7
0.0386938 0.0260877 0 15573.4
0.039675 0.0267494 0 15568.2
0.0406776 0.0274256 0 15543.7
0.0417021 0.0281165 0 15480.9
0.0427488 0.0288225 0 15367.1
0.0438183 0.0295437 0 15263.7
0.0449109 0.0302805 0 15224.1
0.046027 0.0310332 0 15223.3
0.0471671 0.0318021 0 15229.9
0.0483315 0.0325874 0 15212.1
0.0495209 0.0333895 0 15184.1
0.0507354 0.0342086 0 15149.1
0.0519756 0.035045 0 15115.4
0.053242 0.0358991 0 15085.7
0.054535 0.036771 0 15060.3
0.0558549 0.0376613 0 15031.7
0.0572024 0.03857 0 15001.4
0.0585778 0.0394976 0 14971.3
0.0599816 0.0404443 0 14940.3
0.0614142 0.0414105 0 14912.4
0.0628761 0.0423964 0 14886.6
0.0643678 0.0434024 0 14862
0.0658897 0.0444287 0 14835
0.0674422 0.0454758 0 14807.5
0.069026 0.0465439 0 14786.4
0.0706413 0.0476333 0 14772.1
0.0722886 0.0487443 0 14764
0.0739685 0.0498771 0 14748.7
0.0756813 0.0510323 0 14730.7
0.0774275 0.05221 0 14714.6
0.0792077 0.0534105 0 14708.3
0.0810221 0.0546342 0 14703.1
0.0828712 0.0558812 0 14683.6
0.0847556 0.0571521 0 14658.2
0.0866757 0.058447 0 14634.1
0.0886318 0.0597661 0 14611.2
0.0906244 0.06111 0 14586.5
0.0926539 0.0624787 0 14561.3
0.0947207 0.0638726 0 14544.9
0.0968252 0.0652919 0 14536.7
0.0989682 0.066737 0 14528.7
0.101149 0.068208 0 14509.5
0.103369 0.0697052 0 14499.9
0.105629 0.0712289 0 14493.8
0.107928 0.0727794 0 14495.6
0.110267 0.0743568 0 14469.6
0.112646 0.0759614 0 14446.4
0.115066 0.0775934 0 14421.5
0.117527 0.079253 0 14411.7
0.120029 0.0809404 0 14395
0.122572 0.0826558 0 14371.5
0.125158 0.0843994 0 14348.5
0.127785 0.0861713 0 14342.7
0.130454 0.0879717 0 14329.1
0.133167 0.0898008 0 14348.9
0.135921 0.0916586 0 14372.4
0.138719 0.0935453 0 14397.5
0.141559 0.095461 0 14400.2
0.144443 0.0974057 0 14379.5
0.14737 0.0993798 0 14344.1
0.15034 0.101383 0 14314
0.153354 0.103415 0 14355.6
0.156411 0.105477 0 14385.6
0.159511 0.107568 0 14370.4
0.162655 0.109688 0 14329.9
0.165842 0.111837 0 14269.9
0.169073 0.114016 0 14224.6
0.172346 0.116223 0 14254.7
0.175663 0.118461 0 14280.4
0.179022 0.120727 0 14280.7
0.182425 0.123021 0 14319.1
0.18587 0.125344 0 14337.9
0.189357 0.127696 0 14340.8
0.192886 0.130076 0 14306.5
0.196457 0.132484 0 14252.4
0.200069 0.13492 0 14255.9
0.203722 0.137384 0 14302.1
0.207416 0.139875 0 14322.6
0.21115 0.142393 0 14324.7
0.214924 0.144938 0 14284.9
0.218736 0.147509 0 14231.4
0.222587 0.150107 0 14225.3
0.226476 0.152729 0 14247.6
0.230403 0.155377 0 14258.7
0.234366 0.15805 0 14202.6
0.238366 0.160748 0 14122.9
0.242401 0.163469 0 14057.5
0.24647 0.166214 0 14051.3
0.250573 0.168981 0 14068.7
0.25471 0.17177 0 14073.4
0.258878 0.174582 0 14009.5
0.263078 0.177414 0 13971.9
0.267309 0.180266 0 13941.2
0.271568 0.183139 0 13977.4
0.275856 0.186031 0 13986.8
0.280172 0.188942 0 13986.3
0.284514 0.19187 0 13921.9
0.288881 0.194815 0 13903.5
0.293272 0.197777 0 13920.4
0.297687 0.200754 0 13951.6
0.302124 0.203746 0 13998.7
0.306581 0.206752 0 14003.3
0.311058 0.209772 0 13946.8
0.315554 0.212804 0 13892.6
0.320067 0.215847 0 13841.6
0.324595 0.218901 0 13888.7
0.329138 0.221965 0 13943.6
0.333695 0.225038 0 13961.4
0.338264 0.228119 0 13953.1
0.342843 0.231208 0 13885.8
0.347432 0.234302 0 13827
0.352029 0.237402 0 13823.8
0.356632 0.240507 0 13874.9
0.361241 0.243616 0 13931.5
0.365854 0.246727 0 13944.6
0.370469 0.249839 0 13936.3
0.375085 0.252953 0 13872.6
0.379702 0.256066 0 13816.6
0.384317 0.259178 0 13800.1
0.388929 0.262289 0 13840
0.393537 0.265396 0 13931.7
0.398139 0.2685 0 14012.7
0.402734 0.271598 0 14023.2
0.407321 0.274692 0 13971.6
0.411898 0.277779 0 13884.9
0.416464 0.280858 0 13792.2
0.421017 0.283929 0 13731.2
0.425557 0.286991 0 13747.7
0.430082 0.290042 0 13862.7
0.434591 0.293083 0 13961.7
0.439082 0.296112 0 14040.3
0.443555 0.299128 0 14037.7
0.448008 0.302131 0 13980.6
0.45244 0.30512 0 13870.4
0.456849 0.308094 0 13749.6
0.461235 0.311052 0 13687.2
0.465596 0.313993 0 13693.5
0.469932 0.316917 0 13794.1
0.474241 0.319823 0 13944.5
0.478523 0.322711 0 14080.3
0.482776 0.325579 0 14182.7
0.486999 0.328427 0 14182.1
0.491191 0.331254 0 14103.7
0.495353 0.334061 0 13951.5
