# wallHeatFlux  FACE_DATA 398
# x  y  z  wallHeatFlux
-0.7975 -7.61524e-06 0 -98551.4
-0.79239 -7.61524e-06 0 -22460.2
-0.787056 -7.61524e-06 0 -13918
-0.781492 -7.61524e-06 0 -10969.2
-0.775691 -7.61524e-06 0 -9216.04
-0.769649 -7.61524e-06 0 -8010.15
-0.763361 -7.61524e-06 0 -7121.32
-0.756822 -7.61524e-06 0 -6428.17
-0.750025 -7.61524e-06 0 -5867.76
-0.742968 -7.61524e-06 0 -5408.38
-0.735648 -7.61524e-06 0 -5033.57
-0.72806 -7.61524e-06 0 -4722.24
-0.720203 -7.61524e-06 0 -4453.3
-0.712075 -7.61524e-06 0 -4221.49
-0.703676 -7.61524e-06 0 -4016.06
-0.695006 -7.61524e-06 0 -3837.07
-0.686065 -7.61524e-06 0 -3673.9
-0.676855 -7.61524e-06 0 -3526.57
-0.667379 -7.61524e-06 0 -3395.07
-0.657641 -7.61524e-06 0 -3279.49
-0.647644 -7.61524e-06 0 -3168.97
-0.637398 -7.61524e-06 0 -3063.64
-0.626906 -7.61524e-06 0 -2968.99
-0.616179 -7.61524e-06 0 -2879.36
-0.605225 -7.61524e-06 0 -2800.41
-0.594054 -7.61524e-06 0 -2726.66
-0.582677 -7.61524e-06 0 -2658.05
-0.57111 -7.61524e-06 0 -2594.66
-0.559364 -7.61524e-06 0 -2536.57
-0.547454 -7.61524e-06 0 -2478.3
-0.535396 -7.61524e-06 0 -2425.3
-0.523205 -7.61524e-06 0 -2372.07
-0.510901 -7.61524e-06 0 -2329.59
-0.498499 -7.61524e-06 0 -2281.51
-0.486021 -7.61524e-06 0 -2238.74
-0.473482 -7.61524e-06 0 -2201.24
-0.460905 -7.61524e-06 0 -2163.6
-0.448307 -7.61524e-06 0 -2131.31
-0.435709 -7.61524e-06 0 -2098.94
-0.42313 -7.61524e-06 0 -2066.43
-0.41059 -7.61524e-06 0 -2039.26
-0.39811 -7.61524e-06 0 -2006.64
-0.385706 -7.61524e-06 0 -1979.32
-0.373398 -7.61524e-06 0 -1957.39
-0.361205 -7.61524e-06 0 -1935.43
-0.349142 -7.61524e-06 0 -1913.38
-0.337226 -7.61524e-06 0 -1891.33
-0.325475 -7.61524e-06 0 -1869.27
-0.313901 -7.61524e-06 0 -1847.21
-0.30252 -7.61524e-06 0 -1830.5
-0.291343 -7.61524e-06 0 -1813.83
-0.280381 -7.61524e-06 0 -1797.18
-0.269647 -7.61524e-06 0 -1780.49
-0.259148 -7.61524e-06 0 -1769.2
-0.248893 -7.61524e-06 0 -1763.33
-0.23889 -7.61524e-06 0 -1752.13
-0.229143 -7.61524e-06 0 -1740.91
-0.219659 -7.61524e-06 0 -1729.76
-0.210441 -7.61524e-06 0 -1713.26
-0.201491 -7.61524e-06 0 -1696.88
-0.192812 -7.61524e-06 0 -1669.72
-0.184405 -7.61524e-06 0 -1626.69
-0.176269 -7.61524e-06 0 -1540.8
-0.168404 -7.61524e-06 0 -1412.21
-0.160809 -7.61524e-06 0 -1251.56
-0.15348 -7.61524e-06 0 -1091.03
-0.146415 -7.61524e-06 0 -967.977
-0.13961 -7.61524e-06 0 -871.646
-0.133063 -7.61524e-06 0 -796.753
-0.126767 -7.61524e-06 0 -753.964
-0.120717 -7.61524e-06 0 -737.922
-0.11491 -7.61524e-06 0 -737.933
-0.109339 -7.61524e-06 0 -748.65
-0.103997 -7.61524e-06 0 -791.44
-0.0988804 -7.61524e-06 0 -850.355
-0.0939809 -7.61524e-06 0 -919.923
-0.0892928 -7.61524e-06 0 -1005.58
-0.0848096 -7.61524e-06 0 -1101.94
-0.0805248 -7.61524e-06 0 -1198.34
-0.0764317 -7.61524e-06 0 -1294.77
-0.0725237 -7.61524e-06 0 -1385.86
-0.0687943 -7.61524e-06 0 -1466.3
-0.065237 -7.61524e-06 0 -1546.73
-0.0618454 -7.61524e-06 0 -1621.86
-0.058613 -7.61524e-06 0 -1691.63
-0.0555337 -7.61524e-06 0 -1766.81
-0.0526013 -7.61524e-06 0 -1831.28
-0.0498099 -7.61524e-06 0 -1895.77
-0.0471536 -7.61524e-06 0 -1954.93
-0.0446266 -7.61524e-06 0 -2008.74
-0.0422235 -7.61524e-06 0 -2062.57
-0.0399389 -7.61524e-06 0 -2121.77
-0.0377676 -7.61524e-06 0 -2175.61
-0.0357044 -7.61524e-06 0 -2229.52
-0.0337445 -7.61524e-06 0 -2283.38
-0.0318832 -7.61524e-06 0 -2337.28
-0.0301159 -7.61524e-06 0 -2396.55
-0.0284383 -7.61524e-06 0 -2455.83
-0.0268462 -7.61524e-06 0 -2520.5
-0.0253353 -7.61524e-06 0 -2585.18
-0.023902 -7.61524e-06 0 -2660.6
-0.0225425 -7.61524e-06 0 -2736.02
-0.0212532 -7.61524e-06 0 -2816.92
-0.0200306 -7.61524e-06 0 -2903.11
-0.0188715 -7.61524e-06 0 -2994.73
-0.0177727 -7.61524e-06 0 -3086.37
-0.0167313 -7.61524e-06 0 -3172.69
-0.0157444 -7.61524e-06 0 -3264.4
-0.0148093 -7.61524e-06 0 -3350.72
-0.0139232 -7.61524e-06 0 -3437.26
-0.0130838 -7.61524e-06 0 -3518.21
-0.0122887 -7.61524e-06 0 -3599.49
-0.0115355 -7.61524e-06 0 -3669.85
-0.0108223 -7.61524e-06 0 -3740.33
-0.0101469 -7.61524e-06 0 -3800.11
-0.00950727 -7.61524e-06 0 -3859.97
-0.00890169 -7.61524e-06 0 -3914.51
-0.00832834 -7.61524e-06 0 -3958.35
-0.00778557 -7.61524e-06 0 -4002.28
-0.00727176 -7.61524e-06 0 -4040.92
-0.00678541 -7.61524e-06 0 -4068.86
-0.00632507 -7.61524e-06 0 -4091.57
-0.00588937 -7.61524e-06 0 -4108.97
-0.00547703 -7.61524e-06 0 -4121.13
-0.00508681 -7.61524e-06 0 -4128.05
-0.00471753 -7.61524e-06 0 -4124.38
-0.0043681 -7.61524e-06 0 -4110.07
-0.00403746 -7.61524e-06 0 -4090.61
-0.00372461 -7.61524e-06 0 -4066.02
-0.0034286 -7.61524e-06 0 -4030.92
-0.00314855 -7.61524e-06 0 -3985.32
-0.00288361 -7.61524e-06 0 -3934.8
-0.00263295 -7.61524e-06 0 -3879.28
-0.00239582 -7.61524e-06 0 -3813.57
-0.00217149 -7.61524e-06 0 -3737.69
-0.00195929 -7.61524e-06 0 -3662.69
-0.00175856 -7.61524e-06 0 -3572.41
-0.00156869 -7.61524e-06 0 -3477.95
-0.00138908 -7.61524e-06 0 -3379.6
-0.00121921 -7.61524e-06 0 -3272.09
-0.00105853 -7.61524e-06 0 -3155.95
-0.000906546 -7.61524e-06 0 -3031.33
-0.000762803 -7.61524e-06 0 -2898.65
-0.000626849 -7.61524e-06 0 -2758.06
-0.000498266 -7.61524e-06 0 -2603.55
-0.000376656 -7.61524e-06 0 -2433.53
-0.000261642 -7.61524e-06 0 -2225.46
-0.00015287 -7.61524e-06 0 -1953.18
-5e-05 -7.61524e-06 0 -1486.02
4.14596e-05 2.03453e-05 0 -1488.76
0.000125379 7.69412e-05 0 -1934.81
0.000211356 0.000134924 0 -2176.55
0.000299438 0.000194328 0 -2348.98
0.000389678 0.000255186 0 -2486.72
0.000482128 0.000317535 0 -2603.17
0.000576841 0.000381409 0 -2704.96
0.000673871 0.000446848 0 -2797.53
0.000773276 0.000513887 0 -2886.14
0.000875112 0.000582565 0 -2970.72
0.000979439 0.000652924 0 -3051.1
0.00108632 0.000725003 0 -3126.36
0.00119581 0.000798843 0 -3202.71
0.00130797 0.000874487 0 -3275.18
0.00142287 0.000951979 0 -3348.01
0.00154058 0.00103136 0 -3419.54
0.00166117 0.00111268 0 -3491.05
0.00178469 0.00119599 0 -3564.1
0.00191123 0.00128133 0 -3632.85
0.00204085 0.00136875 0 -3707.42
0.00217364 0.0014583 0 -3775.01
0.00230966 0.00155003 0 -3849.01
0.00244899 0.001644 0 -3917.04
0.00259171 0.00174025 0 -3984.59
0.00273791 0.00183885 0 -4054.36
0.00288767 0.00193985 0 -4119.31
0.00304108 0.0020433 0 -4186.11
0.0031982 0.00214927 0 -4252.3
0.00335915 0.00225781 0 -4317.89
0.003524 0.002369 0 -4378.18
0.00369286 0.00248287 0 -4440.16
0.00386582 0.00259951 0 -4506.2
0.00404297 0.00271899 0 -4565.27
0.00422442 0.00284136 0 -4625.62
0.00441026 0.00296669 0 -4689.43
0.0046006 0.00309506 0 -4751.23
0.00479556 0.00322653 0 -4813.73
0.00499523 0.00336119 0 -4872.79
0.00519972 0.00349911 0 -4941.86
0.00540916 0.00364036 0 -5005.63
0.00562366 0.00378501 0 -5074.71
0.00584334 0.00393316 0 -5143.8
0.00606831 0.00408489 0 -5212.87
0.00629871 0.00424027 0 -5281.95
0.00653466 0.0043994 0 -5356.35
0.00677629 0.00456236 0 -5428.47
0.00702374 0.00472923 0 -5500.57
0.00727714 0.00490013 0 -5569.59
0.00753663 0.00507513 0 -5644.73
0.00780234 0.00525433 0 -5718.99
0.00807444 0.00543783 0 -5793.41
0.00835306 0.00562573 0 -5870.12
0.00863835 0.00581814 0 -5944.54
0.00893047 0.00601514 0 -6025.32
0.00922958 0.00621687 0 -6104.98
0.00953584 0.00642341 0 -6188.87
0.00984939 0.00663489 0 -6271.19
0.0101705 0.00685141 0 -6357.17
0.0104992 0.00707309 0 -6445.65
0.0108357 0.00730005 0 -6535.36
0.0111802 0.00753241 0 -6633.59
0.011533 0.0077703 0 -6726.76
0.0118941 0.00801384 0 -6830.63
0.0122638 0.00826316 0 -6933.71
0.0126422 0.00851837 0 -7041.83
0.0130296 0.00877964 0 -7152.18
0.0134262 0.00904708 0 -7269.13
0.0138321 0.00932084 0 -7393.69
0.0142476 0.00960107 0 -7519.11
0.0146729 0.00988792 0 -7653.07
0.0151082 0.0101815 0 -7794.45
0.0155538 0.0104819 0 -7941.86
0.0160098 0.0107895 0 -8098.92
0.0164766 0.0111042 0 -8262.37
0.0169542 0.0114263 0 -8433.22
0.0174429 0.011756 0 -8616.08
0.0179431 0.0120934 0 -8812.21
0.018455 0.0124386 0 -9019.01
0.0189789 0.0127918 0 -9236.41
0.0195149 0.0131533 0 -9466.61
0.0200633 0.0135232 0 -9719.88
0.0206245 0.0139016 0 -9981.38
0.0211986 0.0142888 0 -10266.3
0.0217861 0.014685 0 -10572.9
0.022387 0.0150903 0 -10898.7
0.0230018 0.0155049 0 -11251
0.0236307 0.0159291 0 -11632.4
0.0242741 0.0163629 0 -12039.6
0.0249322 0.0168068 0 -12482.1
0.0256053 0.0172608 0 -12965.2
0.0262939 0.0177251 0 -13486
0.0269981 0.0182 0 -14050.8
0.0277183 0.0186857 0 -14669.5
0.0284548 0.0191825 0 -15343.9
0.029208 0.0196904 0 -16081.5
0.0299782 0.0202098 0 -16888.2
0.0307658 0.0207409 0 -17779.7
0.031571 0.021284 0 -18759.6
0.0323942 0.0218393 0 -19846.1
0.033236 0.0224069 0 -21049.7
0.0340965 0.0229872 0 -22385.9
0.0349762 0.0235805 0 -23879.5
0.0358753 0.0241869 0 -25555.9
0.0367944 0.0248067 0 -27438.9
0.0377338 0.0254403 0 -29586.3
0.0386938 0.0260877 0 -32025.3
0.039675 0.0267494 0 -34810.3
0.0406776 0.0274256 0 -37982.3
0.0417021 0.0281165 0 -41615.6
0.0427488 0.0288225 0 -45733
0.0438183 0.0295437 0 -50371.8
0.0449109 0.0302805 0 -55602.9
0.046027 0.0310332 0 -61444.9
0.0471671 0.0318021 0 -67905.5
0.0483315 0.0325874 0 -74955
0.0495209 0.0333895 0 -82634.7
0.0507354 0.0342086 0 -90890.5
0.0519756 0.035045 0 -99760.6
0.053242 0.0358991 0 -109410
0.054535 0.036771 0 -119681
0.0558549 0.0376613 0 -130300
0.0572024 0.03857 0 -140854
0.0585778 0.0394976 0 -150759
0.0599816 0.0404443 0 -159060
0.0614142 0.0414105 0 -164615
0.0628761 0.0423964 0 -166988
0.0643678 0.0434024 0 -164752
0.0658897 0.0444287 0 -159099
0.0674422 0.0454758 0 -152808
0.069026 0.0465439 0 -145537
0.0706413 0.0476333 0 -136966
0.0722886 0.0487443 0 -128521
0.0739685 0.0498771 0 -119602
0.0756813 0.0510323 0 -110206
0.0774275 0.05221 0 -100424
0.0792077 0.0534105 0 -91237.7
0.0810221 0.0546342 0 -83379.1
0.0828712 0.0558812 0 -76913.2
0.0847556 0.0571521 0 -71704.2
0.0866757 0.058447 0 -67589.5
0.0886318 0.0597661 0 -64328
0.0906244 0.06111 0 -61862.4
0.0926539 0.0624787 0 -59923.1
0.0947207 0.0638726 0 -59494.1
0.0968252 0.0652919 0 -58875.9
0.0989682 0.066737 0 -57835.2
0.101149 0.068208 0 -56706.2
0.103369 0.0697052 0 -56082.1
0.105629 0.0712289 0 -56604.7
0.107928 0.0727794 0 -55499.5
0.110267 0.0743568 0 -56092.4
0.112646 0.0759614 0 -55039.7
0.115066 0.0775934 0 -55205.5
0.117527 0.079253 0 -53954.7
0.120029 0.0809404 0 -53421.9
0.122572 0.0826558 0 -52789.7
0.125158 0.0843994 0 -52400.7
0.127785 0.0861713 0 -51923.6
0.130454 0.0879717 0 -51817.2
0.133167 0.0898008 0 -51640.6
0.135921 0.0916586 0 -51488.7
0.138719 0.0935453 0 -50694.1
0.141559 0.095461 0 -50990.7
0.144443 0.0974057 0 -49372.9
0.14737 0.0993798 0 -49185.4
0.15034 0.101383 0 -49134.5
0.153354 0.103415 0 -48378.3
0.156411 0.105477 0 -48123
0.159511 0.107568 0 -48575.2
0.162655 0.109688 0 -47884.2
0.165842 0.111837 0 -47666.8
0.169073 0.114016 0 -48618.2
0.172346 0.116223 0 -47238.3
0.175663 0.118461 0 -46026.2
0.179022 0.120727 0 -47182.6
0.182425 0.123021 0 -45465.5
0.18587 0.125344 0 -45176.5
0.189357 0.127696 0 -45403.3
0.192886 0.130076 0 -45918.1
0.196457 0.132484 0 -45526
0.200069 0.13492 0 -44587
0.203722 0.137384 0 -43177.5
0.207416 0.139875 0 -43539.7
0.21115 0.142393 0 -43396
0.214924 0.144938 0 -43034.8
0.218736 0.147509 0 -43156.1
0.222587 0.150107 0 -41450.8
0.226476 0.152729 0 -41003.5
0.230403 0.155377 0 -40603.3
0.234366 0.15805 0 -40227.6
0.238366 0.160748 0 -39762.6
0.242401 0.163469 0 -40076.1
0.24647 0.166214 0 -39406.4
0.250573 0.168981 0 -38253.9
0.25471 0.17177 0 -38462.4
0.258878 0.174582 0 -38828.3
0.263078 0.177414 0 -37585.7
0.267309 0.180266 0 -38845.4
0.271568 0.183139 0 -36428.3
0.275856 0.186031 0 -36451.7
0.280172 0.188942 0 -36662.9
0.284514 0.19187 0 -37276.4
0.288881 0.194815 0 -36255.5
0.293272 0.197777 0 -35830.6
0.297687 0.200754 0 -37350.7
0.302124 0.203746 0 -35929.8
0.306581 0.206752 0 -35643.4
0.311058 0.209772 0 -35355.8
0.315554 0.212804 0 -35561.4
0.320067 0.215847 0 -37712.2
0.324595 0.218901 0 -36011.5
0.329138 0.221965 0 -34716.2
0.333695 0.225038 0 -35022.6
0.338264 0.228119 0 -34856.4
0.342843 0.231208 0 -34437.4
0.347432 0.234302 0 -34570
0.352029 0.237402 0 -34409.4
0.356632 0.240507 0 -34349.9
0.361241 0.243616 0 -34905.7
0.365854 0.246727 0 -34535.7
0.370469 0.249839 0 -34195
0.375085 0.252953 0 -35428
0.379702 0.256066 0 -34656.7
0.384317 0.259178 0 -33821.1
0.388929 0.262289 0 -34005.6
0.393537 0.265396 0 -33724.1
0.398139 0.2685 0 -33515.3
0.402734 0.271598 0 -33450.7
0.407321 0.274692 0 -33277.5
0.411898 0.277779 0 -33457.5
0.416464 0.280858 0 -34602.8
0.421017 0.283929 0 -34446
0.425557 0.286991 0 -33994.3
0.430082 0.290042 0 -33441.2
0.434591 0.293083 0 -33599.7
0.439082 0.296112 0 -32801.4
0.443555 0.299128 0 -33780.5
0.448008 0.302131 0 -32840.8
0.45244 0.30512 0 -33040.7
0.456849 0.308094 0 -35150.6
0.461235 0.311052 0 -33593.4
0.465596 0.313993 0 -34231.2
0.469932 0.316917 0 -32121.4
0.474241 0.319823 0 -33168.7
0.478523 0.322711 0 -32424.7
0.482776 0.325579 0 -32281.3
0.486999 0.328427 0 -32141.4
0.491191 0.331254 0 -33739.1
0.495353 0.334061 0 -30922.2
