# wallHeatFlux  FACE_DATA 398
# x  y  z  wallHeatFlux
-0.7975 0 0.025 -653698
-0.79239 0 0.025 -120563
-0.787056 0 0.025 -69539.3
-0.781492 0 0.025 -57208.9
-0.775691 0 0.025 -60536.5
-0.769649 0 0.025 -62794.5
-0.763362 0 0.025 -63898.4
-0.756822 0 0.025 -64151.9
-0.750025 0 0.025 -63836.2
-0.742968 0 0.025 -63186
-0.735648 0 0.025 -62257.7
-0.72806 0 0.025 -61232.7
-0.720203 0 0.025 -60229.5
-0.712076 0 0.025 -59173.7
-0.703677 0 0.025 -58164.6
-0.695006 0 0.025 -57181
-0.686065 0 0.025 -56281.9
-0.676855 0 0.025 -55462
-0.667379 0 0.025 -54752.9
-0.65764 0 0.025 -53888.4
-0.647644 0 0.025 -53159.5
-0.637397 0 0.025 -52445.1
-0.626906 0 0.025 -51736.8
-0.616179 0 0.025 -51178.8
-0.605224 0 0.025 -50578.3
-0.594054 0 0.025 -50007.8
-0.582678 0 0.025 -49423
-0.57111 0 0.025 -48922.1
-0.559364 0 0.025 -48500.8
-0.547454 0 0.025 -48011.9
-0.535396 0 0.025 -47553.8
-0.523205 0 0.025 -47129.2
-0.510901 0 0.025 -46753.1
-0.4985 0 0.025 -46421.1
-0.486021 0 0.025 -46028.5
-0.473483 0 0.025 -45623.1
-0.460905 0 0.025 -45295.7
-0.448308 0 0.025 -45026.6
-0.435709 0 0.025 -44771.9
-0.42313 0 0.025 -44514.3
-0.41059 0 0.025 -44228.8
-0.39811 0 0.025 -43925.6
-0.385706 0 0.025 -43652.9
-0.373398 0 0.025 -43423.2
-0.361205 0 0.025 -43273.2
-0.349141 0 0.025 -43110.4
-0.337226 0 0.025 -42926
-0.325475 0 0.025 -42708.8
-0.313901 0 0.025 -42486.1
-0.30252 0 0.025 -42268.1
-0.291343 0 0.025 -42072.7
-0.280382 0 0.025 -41920.2
-0.269646 0 0.025 -41809.8
-0.259148 0 0.025 -41737.3
-0.248893 0 0.025 -41666.5
-0.23889 0 0.025 -41574.6
-0.229143 0 0.025 -41460.9
-0.219659 0 0.025 -41311.3
-0.210441 0 0.025 -41134.7
-0.201491 0 0.025 -40961.2
-0.192812 0 0.025 -40807
-0.184405 0 0.025 -40662.4
-0.176269 0 0.025 -40542.8
-0.168404 0 0.025 -40446.3
-0.160808 0 0.025 -40371.4
-0.15348 0 0.025 -40336.6
-0.146415 0 0.025 -40324
-0.13961 0 0.025 -40320.8
-0.133063 0 0.025 -40308.8
-0.126767 0 0.025 -40292.2
-0.120718 0 0.025 -40270.7
-0.11491 0 0.025 -40239.3
-0.109339 0 0.025 -40197.7
-0.103997 0 0.025 -40150.1
-0.0988805 0 0.025 -40095.6
-0.0939808 0 0.025 -40033.3
-0.0892928 0 0.025 -39961.6
-0.0848096 0 0.025 -39895.3
-0.0805248 0 0.025 -39824.1
-0.0764316 0 0.025 -39753.1
-0.0725237 0 0.025 -39682.2
-0.0687943 0 0.025 -39617.3
-0.065237 0 0.025 -39551.9
-0.0618454 0 0.025 -39498.1
-0.058613 0 0.025 -39443.5
-0.0555337 0 0.025 -39389.9
-0.0526013 0 0.025 -39341
-0.0498099 0 0.025 -39297.8
-0.0471536 0 0.025 -39259.9
-0.0446266 0 0.025 -39222
-0.0422235 0 0.025 -39184.1
-0.039939 0 0.025 -39151.6
-0.0377676 0 0.025 -39113.4
-0.0357044 0 0.025 -38974.4
-0.0337445 0 0.025 -38282.3
-0.0318832 0 0.025 -35317.6
-0.0301159 0 0.025 -27951
-0.0284383 0 0.025 -22233.9
-0.0268461 0 0.025 -28960.8
-0.0253353 0 0.025 -40987.9
-0.023902 0 0.025 -51071.1
-0.0225426 0 0.025 -59144.5
-0.0212532 0 0.025 -65731.1
-0.0200306 0 0.025 -71495.9
-0.0188715 0 0.025 -76479.8
-0.0177728 0 0.025 -80794.3
-0.0167313 0 0.025 -84659.2
-0.0157444 0 0.025 -88240.9
-0.0148092 0 0.025 -91537.7
-0.0139232 0 0.025 -94615.4
-0.0130838 0 0.025 -97483.1
-0.0122887 0 0.025 -100113
-0.0115356 0 0.025 -102486
-0.0108223 0 0.025 -104609
-0.0101469 0 0.025 -106503
-0.00950727 0 0.025 -108179
-0.00890168 0 0.025 -109647
-0.00832835 0 0.025 -110939
-0.00778557 0 0.025 -112099
-0.00727176 0 0.025 -113181
-0.0067854 0 0.025 -114227
-0.00632507 0 0.025 -115293
-0.00588937 0 0.025 -116416
-0.00547703 0 0.025 -117629
-0.0050868 0 0.025 -118950
-0.00471753 0 0.025 -120396
-0.0043681 0 0.025 -121977
-0.00403746 0 0.025 -123702
-0.00372461 0 0.025 -125600
-0.0034286 0 0.025 -127683
-0.00314855 0 0.025 -129921
-0.0028836 0 0.025 -132360
-0.00263294 0 0.025 -135049
-0.00239581 0 0.025 -137934
-0.0021715 0 0.025 -140809
-0.00195929 0 0.025 -143764
-0.00175856 0 0.025 -146910
-0.00156869 0 0.025 -150195
-0.00138908 0 0.025 -153605
-0.0012192 0 0.025 -157179
-0.00105853 0 0.025 -160840
-0.000906546 0 0.025 -164553
-0.000762803 0 0.025 -168270
-0.000626848 0 0.025 -171683
-0.000498265 0 0.025 -174187
-0.000376656 0 0.025 -173938
-0.000261642 0 0.025 -167281
-0.00015287 0 0.025 -146585
-5e-05 0 0.025 -94751.5
4.14519e-05 2.79596e-05 0.025 -69092.9
0.000125371 8.45641e-05 0.025 -82834.7
0.000211347 0.000142556 0.025 -98052.4
0.000299429 0.000201968 0.025 -109031
0.000389669 0.000262835 0.025 -118498
0.000482118 0.000325193 0.025 -127495
0.000576831 0.000389077 0.025 -135805
0.000673861 0.000454524 0.025 -143211
0.000773265 0.000521574 0.025 -149689
0.0008751 0.000590262 0.025 -155361
0.000979426 0.000660632 0.025 -160381
0.0010863 0.000732721 0.025 -164960
0.00119579 0.000806572 0.025 -169147
0.00130795 0.000882227 0.025 -173135
0.00142285 0.00095973 0.025 -176909
0.00154056 0.00103912 0.025 -180625
0.00166115 0.00112046 0.025 -184254
0.00178467 0.00120378 0.025 -187874
0.00191121 0.00128913 0.025 -191550
0.00204083 0.00137656 0.025 -195234
0.00217362 0.00146612 0.025 -198967
0.00230964 0.00155787 0.025 -202833
0.00244897 0.00165185 0.025 -206803
0.00259169 0.00174812 0.025 -210888
0.00273789 0.00184673 0.025 -215137
0.00288765 0.00194774 0.025 -219558
0.00304105 0.00205122 0.025 -224146
0.00319818 0.00215719 0.025 -228929
0.00335912 0.00226575 0.025 -233966
0.00352397 0.00237695 0.025 -239211
0.00369283 0.00249085 0.025 -244765
0.00386579 0.00260751 0.025 -250608
0.00404294 0.00272699 0.025 -256777
0.00422438 0.00284938 0.025 -263284
0.00441022 0.00297474 0.025 -270176
0.00460056 0.00310312 0.025 -277509
0.00479552 0.00323462 0.025 -285272
0.00499519 0.0033693 0.025 -293529
0.00519968 0.00350723 0.025 -302222
0.00540911 0.00364849 0.025 -311554
0.00562361 0.00379318 0.025 -321517
0.00584329 0.00394134 0.025 -332139
0.00606826 0.00409309 0.025 -343546
0.00629865 0.00424849 0.025 -355617
0.0065346 0.00440764 0.025 -368644
0.00677623 0.00457063 0.025 -382676
0.00702368 0.00473753 0.025 -397771
0.00727707 0.00490844 0.025 -414315
0.00753655 0.00508347 0.025 -432104
0.00780227 0.00526269 0.025 -451446
0.00807436 0.00544622 0.025 -472657
0.00835298 0.00563415 0.025 -496095
0.00863826 0.00582659 0.025 -521493
0.00893038 0.00602362 0.025 -549582
0.00922949 0.00622537 0.025 -582776
0.00953574 0.00643195 0.025 -618851
0.00984929 0.00664345 0.025 -658683
0.0101703 0.00686 0.025 -701762
0.0104991 0.00708171 0.025 -747122
0.0108356 0.00730871 0.025 -794240
0.0111801 0.0075411 0.025 -840146
0.0115329 0.00777902 0.025 -888105
0.011894 0.00802259 0.025 -935091
0.0122637 0.00827194 0.025 -982766
0.0126421 0.00852719 0.025 -1.03459e+06
0.0130295 0.0087885 0.025 -1.08747e+06
0.013426 0.00905597 0.025 -1.14616e+06
0.013832 0.00932978 0.025 -1.21014e+06
0.0142475 0.00961003 0.025 -1.27528e+06
0.0146727 0.0098969 0.025 -1.34335e+06
0.0151081 0.0101905 0.025 -1.41044e+06
0.0155536 0.010491 0.025 -1.47697e+06
0.0160097 0.0107986 0.025 -1.53525e+06
0.0164764 0.0111134 0.025 -1.59427e+06
0.016954 0.0114356 0.025 -1.65357e+06
0.0174427 0.0117653 0.025 -1.69779e+06
0.0179429 0.0121026 0.025 -1.73871e+06
0.0184548 0.0124479 0.025 -1.7951e+06
0.0189786 0.0128013 0.025 -1.80689e+06
0.0195146 0.0131628 0.025 -1.82207e+06
0.020063 0.0135327 0.025 -1.85109e+06
0.0206242 0.0139112 0.025 -1.84641e+06
0.0211983 0.0142984 0.025 -1.83218e+06
0.0217857 0.0146947 0.025 -1.82924e+06
0.0223867 0.0151 0.025 -1.81924e+06
0.0230015 0.0155147 0.025 -1.79786e+06
0.0236304 0.0159389 0.025 -1.77553e+06
0.0242738 0.0163729 0.025 -1.73145e+06
0.0249318 0.0168167 0.025 -1.68121e+06
0.025605 0.0172708 0.025 -1.65232e+06
0.0262935 0.0177352 0.025 -1.60292e+06
0.0269977 0.0182102 0.025 -1.56154e+06
0.0277178 0.0186959 0.025 -1.51776e+06
0.0284544 0.0191927 0.025 -1.52678e+06
0.0292075 0.0197008 0.025 -1.47894e+06
0.0299777 0.0202203 0.025 -1.43938e+06
0.0307653 0.0207514 0.025 -1.40995e+06
0.0315704 0.0212945 0.025 -1.38495e+06
0.0323937 0.0218499 0.025 -1.36734e+06
0.0332354 0.0224176 0.025 -1.35408e+06
0.0340959 0.022998 0.025 -1.34385e+06
0.0349755 0.0235913 0.025 -1.32643e+06
0.0358747 0.0241978 0.025 -1.33625e+06
0.0367938 0.0248178 0.025 -1.32085e+06
0.0377331 0.0254513 0.025 -1.31596e+06
0.0386932 0.0260989 0.025 -1.31147e+06
0.0396743 0.0267606 0.025 -1.30548e+06
0.0406769 0.0274369 0.025 -1.30638e+06
0.0417013 0.0281279 0.025 -1.29693e+06
0.042748 0.0288339 0.025 -1.3027e+06
0.0438175 0.0295552 0.025 -1.29333e+06
0.04491 0.0302922 0.025 -1.28664e+06
0.0460262 0.031045 0.025 -1.29121e+06
0.0471662 0.031814 0.025 -1.29905e+06
0.0483306 0.0325995 0.025 -1.28527e+06
0.0495199 0.0334016 0.025 -1.28413e+06
0.0507344 0.0342208 0.025 -1.28148e+06
0.0519746 0.0350573 0.025 -1.28122e+06
0.0532409 0.0359114 0.025 -1.2924e+06
0.0545339 0.0367835 0.025 -1.27874e+06
0.0558538 0.0376739 0.025 -1.2692e+06
0.0572012 0.0385827 0.025 -1.26316e+06
0.0585766 0.0395104 0.025 -1.25999e+06
0.0599804 0.0404573 0.025 -1.27237e+06
0.061413 0.0414236 0.025 -1.25669e+06
0.0628748 0.0424096 0.025 -1.2754e+06
0.0643665 0.0434157 0.025 -1.26813e+06
0.0658883 0.0444422 0.025 -1.24032e+06
0.0674408 0.0454894 0.025 -1.23125e+06
0.0690245 0.0465576 0.025 -1.23328e+06
0.0706398 0.0476471 0.025 -1.22863e+06
0.0722871 0.0487582 0.025 -1.22105e+06
0.0739669 0.0498912 0.025 -1.21582e+06
0.0756797 0.0510466 0.025 -1.22326e+06
0.0774258 0.0522244 0.025 -1.23294e+06
0.0792059 0.053425 0.025 -1.22425e+06
0.0810203 0.0546489 0.025 -1.24174e+06
0.0828694 0.0558961 0.025 -1.20824e+06
0.0847537 0.0571671 0.025 -1.23766e+06
0.0866737 0.0584622 0.025 -1.19809e+06
0.0886298 0.0597816 0.025 -1.1917e+06
0.0906224 0.0611256 0.025 -1.19382e+06
0.0926518 0.0624944 0.025 -1.16004e+06
0.0947185 0.0638884 0.025 -1.19119e+06
0.096823 0.065308 0.025 -1.15358e+06
0.0989659 0.0667532 0.025 -1.23021e+06
0.101147 0.0682245 0.025 -1.54259e+06
0.103367 0.0697219 0.025 -1.47387e+06
0.105626 0.0712458 0.025 -1.1309e+06
0.107926 0.0727965 0.025 -1.12781e+06
0.110265 0.074374 0.025 -1.16319e+06
0.112644 0.0759789 0.025 -1.68994e+06
0.115063 0.0776111 0.025 -1.15804e+06
0.117524 0.0792709 0.025 -1.55829e+06
0.120026 0.0809585 0.025 -1.67984e+06
0.122569 0.0826741 0.025 -1.4939e+06
0.125155 0.0844179 0.025 -1.34899e+06
0.127782 0.0861901 0.025 -1.18893e+06
0.130451 0.0879908 0.025 -1.15983e+06
0.133163 0.08982 0.025 -1.14335e+06
0.135918 0.0916781 0.025 -1.11718e+06
0.138716 0.0935651 0.025 -1.11503e+06
0.141556 0.095481 0.025 -1.11797e+06
0.14444 0.097426 0.025 -1.44805e+06
0.147367 0.0994004 0.025 -2.09982e+06
0.150337 0.101404 0.025 -1.54021e+06
0.153351 0.103437 0.025 -1.49932e+06
0.156408 0.105498 0.025 -2.03224e+06
0.159508 0.107589 0.025 -959772
0.162651 0.10971 0.025 -1.38858e+06
0.165838 0.111859 0.025 -3.04376e+06
0.169069 0.114039 0.025 -1.56204e+06
0.172343 0.116247 0.025 -1.80094e+06
0.175659 0.118483 0.025 -1.70168e+06
0.179018 0.120749 0.025 -1.70533e+06
0.182421 0.123045 0.025 -1.76751e+06
0.185866 0.125368 0.025 -1.5722e+06
0.189353 0.12772 0.025 -1.60811e+06
0.192882 0.1301 0.025 -1.69581e+06
0.196453 0.132509 0.025 -1.60302e+06
0.200065 0.134946 0.025 -1.96297e+06
0.203718 0.13741 0.025 -1.76281e+06
0.207412 0.139901 0.025 -862184
0.211146 0.14242 0.025 -920517
0.214919 0.144965 0.025 -1.48821e+06
0.218732 0.147537 0.025 -921045
0.222583 0.150134 0.025 -1.73258e+06
0.226472 0.152757 0.025 -906204
0.230399 0.155406 0.025 -1.63371e+06
0.234362 0.15808 0.025 -1.53844e+06
0.238362 0.160777 0.025 -2.05227e+06
0.242396 0.163498 0.025 -1.79942e+06
0.246466 0.166244 0.025 -1.94229e+06
0.250569 0.169012 0.025 -874480
0.254706 0.171801 0.025 -1.4166e+06
0.258874 0.174613 0.025 -1.41461e+06
0.263074 0.177446 0.025 -1.76937e+06
0.267304 0.180299 0.025 -1.44297e+06
0.271564 0.183172 0.025 -882968
0.275852 0.186064 0.025 -1.48453e+06
0.280168 0.188975 0.025 -866034
0.28451 0.191904 0.025 -1.51667e+06
0.288876 0.19485 0.025 -2.08233e+06
0.293268 0.197812 0.025 -1.48779e+06
0.297683 0.20079 0.025 -1.76952e+06
0.302119 0.203782 0.025 -1.97678e+06
0.306577 0.206788 0.025 -1.41428e+06
0.311054 0.209808 0.025 -1.4641e+06
0.315549 0.212841 0.025 -1.09483e+06
0.320063 0.215885 0.025 -1.82768e+06
0.324591 0.218939 0.025 -1.3107e+06
0.329134 0.222003 0.025 -1.29966e+06
0.333691 0.225077 0.025 -1.96599e+06
0.33826 0.228159 0.025 -1.65404e+06
0.342839 0.231248 0.025 -1.68097e+06
0.347428 0.234343 0.025 -819696
0.352025 0.237444 0.025 -1.73415e+06
0.356628 0.240548 0.025 -1.29577e+06
0.361237 0.243658 0.025 -1.0775e+06
0.36585 0.246769 0.025 -2.23262e+06
0.370465 0.249882 0.025 -1.04268e+06
0.375082 0.252996 0.025 -1.38662e+06
0.379698 0.25611 0.025 -2.1743e+06
0.384313 0.259223 0.025 -1.29415e+06
0.388926 0.262333 0.025 -1.54734e+06
0.393534 0.265442 0.025 -1.29508e+06
0.398136 0.268546 0.025 -824530
0.40273 0.271645 0.025 -1.48157e+06
0.407317 0.274739 0.025 -1.51971e+06
0.411894 0.277826 0.025 -1.89393e+06
0.41646 0.280906 0.025 -787416
0.421014 0.283977 0.025 -1.43967e+06
0.425554 0.28704 0.025 -1.69346e+06
0.430079 0.290092 0.025 -1.35843e+06
0.434588 0.293133 0.025 -1.63872e+06
0.439079 0.296162 0.025 -1.17636e+06
0.443551 0.299179 0.025 -1.49364e+06
0.448004 0.302183 0.025 -1.52815e+06
0.452437 0.305172 0.025 -1.50092e+06
0.456846 0.308146 0.025 -1.40273e+06
0.461232 0.311105 0.025 -1.42451e+06
0.465593 0.314047 0.025 -1.32658e+06
0.469929 0.316971 0.025 -1.72688e+06
0.474238 0.319878 0.025 -932933
0.47852 0.322766 0.025 -1.02884e+06
0.482773 0.325635 0.025 -822316
0.486996 0.328483 0.025 -1.21368e+06
0.491189 0.331311 0.025 -1.81124e+06
0.49535 0.334118 0.025 -1.18482e+06
