# p  FACE_DATA 398
# x  y  z  p
-0.7975 0 0.025 4472.6
-0.79239 0 0.025 3679.35
-0.787056 0 0.025 2937.32
-0.781492 0 0.025 2838.07
-0.775691 0 0.025 2788
-0.769649 0 0.025 2786.35
-0.763362 0 0.025 2813.02
-0.756822 0 0.025 2836.86
-0.750025 0 0.025 2851.11
-0.742968 0 0.025 2858.33
-0.735648 0 0.025 2862.99
-0.72806 0 0.025 2864.06
-0.720203 0 0.025 2863.81
-0.712076 0 0.025 2863.01
-0.703677 0 0.025 2862.75
-0.695006 0 0.025 2861.62
-0.686065 0 0.025 2860.35
-0.676855 0 0.025 2860.4
-0.667379 0 0.025 2856.32
-0.65764 0 0.025 2852.28
-0.647644 0 0.025 2852.1
-0.637397 0 0.025 2850.53
-0.626906 0 0.025 2846.41
-0.616179 0 0.025 2846.42
-0.605224 0 0.025 2843.45
-0.594054 0 0.025 2841.54
-0.582678 0 0.025 2838.74
-0.57111 0 0.025 2837.19
-0.559364 0 0.025 2834.82
-0.547454 0 0.025 2833.96
-0.535396 0 0.025 2831.28
-0.523205 0 0.025 2830.26
-0.510901 0 0.025 2828.03
-0.4985 0 0.025 2824.8
-0.486021 0 0.025 2823.55
-0.473483 0 0.025 2822.76
-0.460905 0 0.025 2821.12
-0.448308 0 0.025 2820.03
-0.435709 0 0.025 2818.14
-0.42313 0 0.025 2815.25
-0.41059 0 0.025 2814.01
-0.39811 0 0.025 2814
-0.385706 0 0.025 2813.03
-0.373398 0 0.025 2811.33
-0.361205 0 0.025 2810.37
-0.349141 0 0.025 2809.5
-0.337226 0 0.025 2807.86
-0.325475 0 0.025 2805.76
-0.313901 0 0.025 2804.21
-0.30252 0 0.025 2803.11
-0.291343 0 0.025 2802.75
-0.280382 0 0.025 2802.62
-0.269646 0 0.025 2802.69
-0.259148 0 0.025 2802.43
-0.248893 0 0.025 2802.49
-0.23889 0 0.025 2801.71
-0.229143 0 0.025 2800.5
-0.219659 0 0.025 2798.62
-0.210441 0 0.025 2796.69
-0.201491 0 0.025 2794.54
-0.192812 0 0.025 2792.55
-0.184405 0 0.025 2790.62
-0.176269 0 0.025 2789.65
-0.168404 0 0.025 2789.22
-0.160808 0 0.025 2789.65
-0.15348 0 0.025 2790.58
-0.146415 0 0.025 2791.81
-0.13961 0 0.025 2792.93
-0.133063 0 0.025 2794.01
-0.126767 0 0.025 2794.78
-0.120718 0 0.025 2795.35
-0.11491 0 0.025 2795.52
-0.109339 0 0.025 2795.27
-0.103997 0 0.025 2794.59
-0.0988805 0 0.025 2793.62
-0.0939808 0 0.025 2792.35
-0.0892928 0 0.025 2790.97
-0.0848096 0 0.025 2789.58
-0.0805248 0 0.025 2788.26
-0.0764316 0 0.025 2787.05
-0.0725237 0 0.025 2785.96
-0.0687943 0 0.025 2784.94
-0.065237 0 0.025 2784.06
-0.0618454 0 0.025 2783.31
-0.058613 0 0.025 2782.67
-0.0555337 0 0.025 2782.14
-0.0526013 0 0.025 2781.69
-0.0498099 0 0.025 2781.3
-0.0471536 0 0.025 2780.96
-0.0446266 0 0.025 2780.68
-0.0422235 0 0.025 2780.43
-0.039939 0 0.025 2780.24
-0.0377676 0 0.025 2780.1
-0.0357044 0 0.025 2780.01
-0.0337445 0 0.025 2780.1
-0.0318832 0 0.025 2779.66
-0.0301159 0 0.025 2794.27
-0.0284383 0 0.025 3124.01
-0.0268461 0 0.025 4463.44
-0.0253353 0 0.025 5918.34
-0.023902 0 0.025 6893.79
-0.0225426 0 0.025 7589.17
-0.0212532 0 0.025 8104.9
-0.0200306 0 0.025 8534.91
-0.0188715 0 0.025 8912.3
-0.0177728 0 0.025 9234.58
-0.0167313 0 0.025 9515.9
-0.0157444 0 0.025 9766.75
-0.0148092 0 0.025 9993.26
-0.0139232 0 0.025 10200.3
-0.0130838 0 0.025 10391.6
-0.0122887 0 0.025 10568.7
-0.0115356 0 0.025 10733.2
-0.0108223 0 0.025 10886.2
-0.0101469 0 0.025 11028.4
-0.00950727 0 0.025 11160
-0.00890168 0 0.025 11280.7
-0.00832835 0 0.025 11390.4
-0.00778557 0 0.025 11489.4
-0.00727176 0 0.025 11578.3
-0.0067854 0 0.025 11657.9
-0.00632507 0 0.025 11729.7
-0.00588937 0 0.025 11795
-0.00547703 0 0.025 11855.7
-0.0050868 0 0.025 11913.4
-0.00471753 0 0.025 11970
-0.0043681 0 0.025 12026.7
-0.00403746 0 0.025 12085.3
-0.00372461 0 0.025 12147.7
-0.0034286 0 0.025 12214
-0.00314855 0 0.025 12284.8
-0.0028836 0 0.025 12362.3
-0.00263294 0 0.025 12450.4
-0.00239581 0 0.025 12539
-0.0021715 0 0.025 12633.4
-0.00195929 0 0.025 12733.2
-0.00175856 0 0.025 12837.9
-0.00156869 0 0.025 12946.3
-0.00138908 0 0.025 13057.6
-0.0012192 0 0.025 13170.9
-0.00105853 0 0.025 13284.9
-0.000906546 0 0.025 13397.8
-0.000762803 0 0.025 13506.7
-0.000626848 0 0.025 13607.4
-0.000498265 0 0.025 13693.4
-0.000376656 0 0.025 13756.2
-0.000261642 0 0.025 13788.5
-0.00015287 0 0.025 13796.5
-5e-05 0 0.025 13883.6
4.14519e-05 2.79596e-05 0.025 13467
0.000125371 8.45641e-05 0.025 13563
0.000211347 0.000142556 0.025 13530
0.000299429 0.000201968 0.025 13462.9
0.000389669 0.000262835 0.025 13383.8
0.000482118 0.000325193 0.025 13302.9
0.000576831 0.000389077 0.025 13226.2
0.000673861 0.000454524 0.025 13157.6
0.000773265 0.000521574 0.025 13099.9
0.0008751 0.000590262 0.025 13054.5
0.000979426 0.000660632 0.025 13023
0.0010863 0.000732721 0.025 13002.6
0.00119579 0.000806572 0.025 12996.3
0.00130795 0.000882227 0.025 13003.4
0.00142285 0.00095973 0.025 13022.5
0.00154056 0.00103912 0.025 13052.9
0.00166115 0.00112046 0.025 13094.6
0.00178467 0.00120378 0.025 13147.2
0.00191121 0.00128913 0.025 13209.3
0.00204083 0.00137656 0.025 13281.8
0.00217362 0.00146612 0.025 13363.4
0.00230964 0.00155787 0.025 13454.5
0.00244897 0.00165185 0.025 13553.6
0.00259169 0.00174812 0.025 13662
0.00273789 0.00184673 0.025 13778.8
0.00288765 0.00194774 0.025 13904.4
0.00304105 0.00205122 0.025 14038.4
0.00319818 0.00215719 0.025 14181.6
0.00335912 0.00226575 0.025 14333.2
0.00352397 0.00237695 0.025 14494
0.00369283 0.00249085 0.025 14664.2
0.00386579 0.00260751 0.025 14844.2
0.00404294 0.00272699 0.025 15034.1
0.00422438 0.00284938 0.025 15234.6
0.00441022 0.00297474 0.025 15446.3
0.00460056 0.00310312 0.025 15669.9
0.00479552 0.00323462 0.025 15906.1
0.00499519 0.0033693 0.025 16155.4
0.00519968 0.00350723 0.025 16419.4
0.00540911 0.00364849 0.025 16698.3
0.00562361 0.00379318 0.025 16993.7
0.00584329 0.00394134 0.025 17306.6
0.00606826 0.00409309 0.025 17638.2
0.00629865 0.00424849 0.025 17989.8
0.0065346 0.00440764 0.025 18363.4
0.00677623 0.00457063 0.025 18760.1
0.00702368 0.00473753 0.025 19182.3
0.00727707 0.00490844 0.025 19631.4
0.00753655 0.00508347 0.025 20110
0.00780227 0.00526269 0.025 20620.6
0.00807436 0.00544622 0.025 21165.3
0.00835298 0.00563415 0.025 21747.4
0.00863826 0.00582659 0.025 22369.3
0.00893038 0.00602362 0.025 23034.2
0.00922949 0.00622537 0.025 23745.4
0.00953574 0.00643195 0.025 24507.4
0.00984929 0.00664345 0.025 25321.7
0.0101703 0.00686 0.025 26195.9
0.0104991 0.00708171 0.025 27130.6
0.0108356 0.00730871 0.025 28133
0.0111801 0.0075411 0.025 29209
0.0115329 0.00777902 0.025 30364.9
0.011894 0.00802259 0.025 31606.8
0.0122637 0.00827194 0.025 32946
0.0126421 0.00852719 0.025 34389.8
0.0130295 0.0087885 0.025 35949
0.013426 0.00905597 0.025 37635.3
0.013832 0.00932978 0.025 39458.1
0.0142475 0.00961003 0.025 41430.1
0.0146727 0.0098969 0.025 43560.5
0.0151081 0.0101905 0.025 45863.5
0.0155536 0.010491 0.025 48356.6
0.0160097 0.0107986 0.025 51059
0.0164764 0.0111134 0.025 53978.3
0.016954 0.0114356 0.025 57141.3
0.0174427 0.0117653 0.025 60558.2
0.0179429 0.0121026 0.025 64250.1
0.0184548 0.0124479 0.025 68224.6
0.0189786 0.0128013 0.025 72508.2
0.0195146 0.0131628 0.025 77142.6
0.020063 0.0135327 0.025 82152.3
0.0206242 0.0139112 0.025 87598.7
0.0211983 0.0142984 0.025 93572.4
0.0217857 0.0146947 0.025 100147
0.0223867 0.0151 0.025 107343
0.0230015 0.0155147 0.025 115104
0.0236304 0.0159389 0.025 123534
0.0242738 0.0163729 0.025 132654
0.0249318 0.0168167 0.025 142290
0.025605 0.0172708 0.025 151854
0.0262935 0.0177352 0.025 160130
0.0269977 0.0182102 0.025 166012
0.0277178 0.0186959 0.025 168582
0.0284544 0.0191927 0.025 168831
0.0292075 0.0197008 0.025 166597
0.0299777 0.0202203 0.025 164463
0.0307653 0.0207514 0.025 161770
0.0315704 0.0212945 0.025 158988
0.0323937 0.0218499 0.025 155996
0.0332354 0.0224176 0.025 152601
0.0340959 0.022998 0.025 148872
0.0349755 0.0235913 0.025 145008
0.0358747 0.0241978 0.025 141383
0.0367938 0.0248178 0.025 138078
0.0377331 0.0254513 0.025 135293
0.0386932 0.0260989 0.025 133063
0.0396743 0.0267606 0.025 131364
0.0406769 0.0274369 0.025 130023
0.0417013 0.0281279 0.025 128922
0.042748 0.0288339 0.025 128225
0.0438175 0.0295552 0.025 127756
0.04491 0.0302922 0.025 127301
0.0460262 0.031045 0.025 126696
0.0471662 0.031814 0.025 126178
0.0483306 0.0325995 0.025 125941
0.0495199 0.0334016 0.025 126504
0.0507344 0.0342208 0.025 126923
0.0519746 0.0350573 0.025 126973
0.0532409 0.0359114 0.025 126904
0.0545339 0.0367835 0.025 126907
0.0558538 0.0376739 0.025 127061
0.0572012 0.0385827 0.025 127010
0.0585766 0.0395104 0.025 126716
0.0599804 0.0404573 0.025 126270
0.061413 0.0414236 0.025 126635
0.0628748 0.0424096 0.025 127601
0.0643665 0.0434157 0.025 128434
0.0658883 0.0444422 0.025 128510
0.0674408 0.0454894 0.025 128155
0.0690245 0.0465576 0.025 127817
0.0706398 0.0476471 0.025 127656
0.0722871 0.0487582 0.025 128127
0.0739669 0.0498912 0.025 128532
0.0756797 0.0510466 0.025 128604
0.0774258 0.0522244 0.025 128469
0.0792059 0.053425 0.025 128288
0.0810203 0.0546489 0.025 128611
0.0828694 0.0558961 0.025 129101
0.0847537 0.0571671 0.025 129688
0.0866737 0.0584622 0.025 129879
0.0886298 0.0597816 0.025 130012
0.0906224 0.0611256 0.025 130101
0.0926518 0.0624944 0.025 130177
0.0947185 0.0638884 0.025 130383
0.096823 0.065308 0.025 130445
0.0989659 0.0667532 0.025 130148
0.101147 0.0682245 0.025 129314
0.103367 0.0697219 0.025 128537
0.105626 0.0712458 0.025 128080
0.107926 0.0727965 0.025 127776
0.110265 0.074374 0.025 128212
0.112644 0.0759789 0.025 128542
0.115063 0.0776111 0.025 129447
0.117524 0.0792709 0.025 129642
0.120026 0.0809585 0.025 129714
0.122569 0.0826741 0.025 129868
0.125155 0.0844179 0.025 129813
0.127782 0.0861901 0.025 129604
0.130451 0.0879908 0.025 129031
0.133163 0.08982 0.025 128621
0.135918 0.0916781 0.025 128290
0.138716 0.0935651 0.025 128657
0.141556 0.095481 0.025 129234
0.14444 0.097426 0.025 129642
0.147367 0.0994004 0.025 129087
0.150337 0.101404 0.025 129529
0.153351 0.103437 0.025 128673
0.156408 0.105498 0.025 127129
0.159508 0.107589 0.025 127691
0.162651 0.10971 0.025 126630
0.165838 0.111859 0.025 124223
0.169069 0.114039 0.025 127390
0.172343 0.116247 0.025 125360
0.175659 0.118483 0.025 124871
0.179018 0.120749 0.025 124070
0.182421 0.123045 0.025 123014
0.185866 0.125368 0.025 122541
0.189353 0.12772 0.025 122185
0.192882 0.1301 0.025 122134
0.196453 0.132509 0.025 122412
0.200065 0.134946 0.025 121787
0.203718 0.13741 0.025 121790
0.207412 0.139901 0.025 122034
0.211146 0.14242 0.025 121207
0.214919 0.144965 0.025 120419
0.218732 0.147537 0.025 121227
0.222583 0.150134 0.025 121072
0.226472 0.152757 0.025 122545
0.230399 0.155406 0.025 122203
0.234362 0.15808 0.025 122260
0.238362 0.160777 0.025 121004
0.242396 0.163498 0.025 121011
0.246466 0.166244 0.025 120233
0.250569 0.169012 0.025 121176
0.254706 0.171801 0.025 120348
0.258874 0.174613 0.025 120340
0.263074 0.177446 0.025 119884
0.267304 0.180299 0.025 120645
0.271564 0.183172 0.025 121252
0.275852 0.186064 0.025 120811
0.280168 0.188975 0.025 121418
0.28451 0.191904 0.025 121001
0.288876 0.19485 0.025 120296
0.293268 0.197812 0.025 121002
0.297683 0.20079 0.025 119854
0.302119 0.203782 0.025 119664
0.306577 0.206788 0.025 120151
0.311054 0.209808 0.025 119304
0.315549 0.212841 0.025 119928
0.320063 0.215885 0.025 119289
0.324591 0.218939 0.025 120893
0.329134 0.222003 0.025 121490
0.333691 0.225077 0.025 120959
0.33826 0.228159 0.025 121921
0.342839 0.231248 0.025 121512
0.347428 0.234343 0.025 122452
0.352025 0.237444 0.025 120995
0.356628 0.240548 0.025 121262
0.361237 0.243658 0.025 121245
0.36585 0.246769 0.025 119575
0.370465 0.249882 0.025 122007
0.375082 0.252996 0.025 120877
0.379698 0.25611 0.025 120387
0.384313 0.259223 0.025 121283
0.388926 0.262333 0.025 120518
0.393534 0.265442 0.025 120954
0.398136 0.268546 0.025 121265
0.40273 0.271645 0.025 120534
0.407317 0.274739 0.025 120416
0.411894 0.277826 0.025 119987
0.41646 0.280906 0.025 121483
0.421014 0.283977 0.025 120602
0.425554 0.28704 0.025 120343
0.430079 0.290092 0.025 120904
0.434588 0.293133 0.025 120631
0.439079 0.296162 0.025 121404
0.443551 0.299179 0.025 121029
0.448004 0.302183 0.025 120942
0.452437 0.305172 0.025 121076
0.456846 0.308146 0.025 121402
0.461232 0.311105 0.025 121285
0.465593 0.314047 0.025 121440
0.469929 0.316971 0.025 121001
0.474238 0.319878 0.025 122169
0.47852 0.322766 0.025 121828
0.482773 0.325635 0.025 121931
0.486996 0.328483 0.025 121499
0.491189 0.331311 0.025 120739
0.49535 0.334118 0.025 122081
