# wallHeatFlux  FACE_DATA 398
# x  y  z  wallHeatFlux
-0.7975 0 0.025 -653671
-0.79239 0 0.025 -120082
-0.787056 0 0.025 -71260.3
-0.781492 0 0.025 -63872.3
-0.775691 0 0.025 -65289.8
-0.769649 0 0.025 -66021.5
-0.763362 0 0.025 -66537.4
-0.756822 0 0.025 -66446.6
-0.750025 0 0.025 -65935.4
-0.742968 0 0.025 -65174.7
-0.735648 0 0.025 -64279.4
-0.72806 0 0.025 -63314.1
-0.720203 0 0.025 -62328.1
-0.712076 0 0.025 -61454.8
-0.703677 0 0.025 -60660.3
-0.695006 0 0.025 -59891.7
-0.686065 0 0.025 -59149.1
-0.676855 0 0.025 -58491.3
-0.667379 0 0.025 -57757.4
-0.65764 0 0.025 -57081.9
-0.647644 0 0.025 -56531.5
-0.637397 0 0.025 -55958.3
-0.626906 0 0.025 -55343.1
-0.616179 0 0.025 -54846
-0.605224 0 0.025 -54322.5
-0.594054 0 0.025 -53839.7
-0.582678 0 0.025 -53326.4
-0.57111 0 0.025 -52870
-0.559364 0 0.025 -52434.2
-0.547454 0 0.025 -52064.9
-0.535396 0 0.025 -51634.9
-0.523205 0 0.025 -51232.8
-0.510901 0 0.025 -50846.9
-0.4985 0 0.025 -50461.7
-0.486021 0 0.025 -50150.3
-0.473483 0 0.025 -49852.9
-0.460905 0 0.025 -49536.3
-0.448308 0 0.025 -49218.8
-0.435709 0 0.025 -48888.6
-0.42313 0 0.025 -48571.4
-0.41059 0 0.025 -48317.6
-0.39811 0 0.025 -48132.1
-0.385706 0 0.025 -47923
-0.373398 0 0.025 -47676.2
-0.361205 0 0.025 -47423.1
-0.349141 0 0.025 -47157
-0.337226 0 0.025 -46923.1
-0.325475 0 0.025 -46720.8
-0.313901 0 0.025 -46556
-0.30252 0 0.025 -46411.7
-0.291343 0 0.025 -46268.7
-0.280382 0 0.025 -46120.3
-0.269646 0 0.025 -45970.9
-0.259148 0 0.025 -45816.7
-0.248893 0 0.025 -45675
-0.23889 0 0.025 -45533.9
-0.229143 0 0.025 -45386.9
-0.219659 0 0.025 -45236.3
-0.210441 0 0.025 -45069.4
-0.201491 0 0.025 -44895.1
-0.192812 0 0.025 -44723.9
-0.184405 0 0.025 -44568.1
-0.176269 0 0.025 -44447.9
-0.168404 0 0.025 -44361.5
-0.160808 0 0.025 -44307.4
-0.15348 0 0.025 -44293.8
-0.146415 0 0.025 -44307.7
-0.13961 0 0.025 -44320.3
-0.133063 0 0.025 -44329.5
-0.126767 0 0.025 -44334.2
-0.120718 0 0.025 -44323.5
-0.11491 0 0.025 -44302.8
-0.109339 0 0.025 -44256
-0.103997 0 0.025 -44197.7
-0.0988805 0 0.025 -44122.3
-0.0939808 0 0.025 -44033.4
-0.0892928 0 0.025 -43935.3
-0.0848096 0 0.025 -43831.9
-0.0805248 0 0.025 -43728.9
-0.0764316 0 0.025 -43620.9
-0.0725237 0 0.025 -43523.6
-0.0687943 0 0.025 -43432.5
-0.065237 0 0.025 -43346
-0.0618454 0 0.025 -43265.9
-0.058613 0 0.025 -43195.7
-0.0555337 0 0.025 -43126.5
-0.0526013 0 0.025 -43067.4
-0.0498099 0 0.025 -43019.3
-0.0471536 0 0.025 -42971.1
-0.0446266 0 0.025 -42928.4
-0.0422235 0 0.025 -42891
-0.039939 0 0.025 -42858.9
-0.0377676 0 0.025 -42831.9
-0.0357044 0 0.025 -42811.2
-0.0337445 0 0.025 -42794.9
-0.0318832 0 0.025 -42773.5
-0.0301159 0 0.025 -42237.5
-0.0284383 0 0.025 -37283.5
-0.0268461 0 0.025 -32843
-0.0253353 0 0.025 -49954.5
-0.023902 0 0.025 -64388.6
-0.0225426 0 0.025 -72812.3
-0.0212532 0 0.025 -78344
-0.0200306 0 0.025 -83262.6
-0.0188715 0 0.025 -87630.9
-0.0177728 0 0.025 -91281.3
-0.0167313 0 0.025 -94551.9
-0.0157444 0 0.025 -97522.9
-0.0148092 0 0.025 -100327
-0.0139232 0 0.025 -102955
-0.0130838 0 0.025 -105367
-0.0122887 0 0.025 -107526
-0.0115356 0 0.025 -109427
-0.0108223 0 0.025 -111090
-0.0101469 0 0.025 -112539
-0.00950727 0 0.025 -113818
-0.00890168 0 0.025 -114969
-0.00832835 0 0.025 -116042
-0.00778557 0 0.025 -117090
-0.00727176 0 0.025 -118168
-0.0067854 0 0.025 -119296
-0.00632507 0 0.025 -120504
-0.00588937 0 0.025 -121811
-0.00547703 0 0.025 -123226
-0.0050868 0 0.025 -124753
-0.00471753 0 0.025 -126406
-0.0043681 0 0.025 -128195
-0.00403746 0 0.025 -130123
-0.00372461 0 0.025 -132203
-0.0034286 0 0.025 -134425
-0.00314855 0 0.025 -136842
-0.0028836 0 0.025 -139504
-0.00263294 0 0.025 -142292
-0.00239581 0 0.025 -144963
-0.0021715 0 0.025 -147811
-0.00195929 0 0.025 -150794
-0.00175856 0 0.025 -153895
-0.00156869 0 0.025 -157107
-0.00138908 0 0.025 -160429
-0.0012192 0 0.025 -163839
-0.00105853 0 0.025 -167317
-0.000906546 0 0.025 -170860
-0.000762803 0 0.025 -174314
-0.000626848 0 0.025 -177403
-0.000498265 0 0.025 -179256
-0.000376656 0 0.025 -177941
-0.000261642 0 0.025 -169660
-0.00015287 0 0.025 -147306
-5e-05 0 0.025 -95335.2
4.14519e-05 2.79596e-05 0.025 -67467
0.000125371 8.45641e-05 0.025 -81156.5
0.000211347 0.000142556 0.025 -96631.1
0.000299429 0.000201968 0.025 -107697
0.000389669 0.000262835 0.025 -117014
0.000482118 0.000325193 0.025 -125910
0.000576831 0.000389077 0.025 -134303
0.000673861 0.000454524 0.025 -141921
0.000773265 0.000521574 0.025 -148671
0.0008751 0.000590262 0.025 -154625
0.000979426 0.000660632 0.025 -159888
0.0010863 0.000732721 0.025 -164591
0.00119579 0.000806572 0.025 -168917
0.00130795 0.000882227 0.025 -172932
0.00142285 0.00095973 0.025 -176669
0.00154056 0.00103912 0.025 -180283
0.00166115 0.00112046 0.025 -183769
0.00178467 0.00120378 0.025 -187219
0.00191121 0.00128913 0.025 -190665
0.00204083 0.00137656 0.025 -194057
0.00217362 0.00146612 0.025 -197514
0.00230964 0.00155787 0.025 -201028
0.00244897 0.00165185 0.025 -204550
0.00259169 0.00174812 0.025 -208158
0.00273789 0.00184673 0.025 -211876
0.00288765 0.00194774 0.025 -215733
0.00304105 0.00205122 0.025 -219685
0.00319818 0.00215719 0.025 -223773
0.00335912 0.00226575 0.025 -228057
0.00352397 0.00237695 0.025 -232471
0.00369283 0.00249085 0.025 -237099
0.00386579 0.00260751 0.025 -241921
0.00404294 0.00272699 0.025 -246970
0.00422438 0.00284938 0.025 -252277
0.00441022 0.00297474 0.025 -257851
0.00460056 0.00310312 0.025 -263696
0.00479552 0.00323462 0.025 -269821
0.00499519 0.0033693 0.025 -276349
0.00519968 0.00350723 0.025 -283156
0.00540911 0.00364849 0.025 -290415
0.00562361 0.00379318 0.025 -298077
0.00584329 0.00394134 0.025 -306175
0.00606826 0.00409309 0.025 -314841
0.00629865 0.00424849 0.025 -323943
0.0065346 0.00440764 0.025 -333634
0.00677623 0.00457063 0.025 -343969
0.00702368 0.00473753 0.025 -354927
0.00727707 0.00490844 0.025 -366801
0.00753655 0.00508347 0.025 -379304
0.00780227 0.00526269 0.025 -392596
0.00807436 0.00544622 0.025 -407016
0.00835298 0.00563415 0.025 -422453
0.00863826 0.00582659 0.025 -439324
0.00893038 0.00602362 0.025 -457809
0.00922949 0.00622537 0.025 -477306
0.00953574 0.00643195 0.025 -497779
0.00984929 0.00664345 0.025 -521033
0.0101703 0.00686 0.025 -546255
0.0104991 0.00708171 0.025 -574594
0.0108356 0.00730871 0.025 -608221
0.0111801 0.0075411 0.025 -644225
0.0115329 0.00777902 0.025 -683904
0.011894 0.00802259 0.025 -727194
0.0122637 0.00827194 0.025 -774534
0.0126421 0.00852719 0.025 -819520
0.0130295 0.0087885 0.025 -863652
0.013426 0.00905597 0.025 -909764
0.013832 0.00932978 0.025 -952945
0.0142475 0.00961003 0.025 -996839
0.0146727 0.0098969 0.025 -1.03777e+06
0.0151081 0.0101905 0.025 -1.07932e+06
0.0155536 0.010491 0.025 -1.12425e+06
0.0160097 0.0107986 0.025 -1.17103e+06
0.0164764 0.0111134 0.025 -1.22184e+06
0.016954 0.0114356 0.025 -1.27584e+06
0.0174427 0.0117653 0.025 -1.32874e+06
0.0179429 0.0121026 0.025 -1.38638e+06
0.0184548 0.0124479 0.025 -1.455e+06
0.0189786 0.0128013 0.025 -1.5021e+06
0.0195146 0.0131628 0.025 -1.55426e+06
0.020063 0.0135327 0.025 -1.61528e+06
0.0206242 0.0139112 0.025 -1.65479e+06
0.0211983 0.0142984 0.025 -1.68386e+06
0.0217857 0.0146947 0.025 -1.71816e+06
0.0223867 0.0151 0.025 -1.74582e+06
0.0230015 0.0155147 0.025 -1.76823e+06
0.0236304 0.0159389 0.025 -1.79691e+06
0.0242738 0.0163729 0.025 -1.79865e+06
0.0249318 0.0168167 0.025 -1.81494e+06
0.025605 0.0172708 0.025 -1.82551e+06
0.0262935 0.0177352 0.025 -1.80179e+06
0.0269977 0.0182102 0.025 -1.77329e+06
0.0277178 0.0186959 0.025 -1.73338e+06
0.0284544 0.0191927 0.025 -1.7455e+06
0.0292075 0.0197008 0.025 -1.67703e+06
0.0299777 0.0202203 0.025 -1.63486e+06
0.0307653 0.0207514 0.025 -1.60519e+06
0.0315704 0.0212945 0.025 -1.57619e+06
0.0323937 0.0218499 0.025 -1.55213e+06
0.0332354 0.0224176 0.025 -1.52614e+06
0.0340959 0.022998 0.025 -1.50241e+06
0.0349755 0.0235913 0.025 -1.46931e+06
0.0358747 0.0241978 0.025 -1.46689e+06
0.0367938 0.0248178 0.025 -1.43126e+06
0.0377331 0.0254513 0.025 -1.40661e+06
0.0386932 0.0260989 0.025 -1.38607e+06
0.0396743 0.0267606 0.025 -1.36819e+06
0.0406769 0.0274369 0.025 -1.35572e+06
0.0417013 0.0281279 0.025 -1.34124e+06
0.042748 0.0288339 0.025 -1.34024e+06
0.0438175 0.0295552 0.025 -1.32707e+06
0.04491 0.0302922 0.025 -1.31487e+06
0.0460262 0.031045 0.025 -1.31575e+06
0.0471662 0.031814 0.025 -1.32034e+06
0.0483306 0.0325995 0.025 -1.30565e+06
0.0495199 0.0334016 0.025 -1.30955e+06
0.0507344 0.0342208 0.025 -1.30595e+06
0.0519746 0.0350573 0.025 -1.30491e+06
0.0532409 0.0359114 0.025 -1.30874e+06
0.0545339 0.0367835 0.025 -1.29478e+06
0.0558538 0.0376739 0.025 -1.29162e+06
0.0572012 0.0385827 0.025 -1.28941e+06
0.0585766 0.0395104 0.025 -1.28731e+06
0.0599804 0.0404573 0.025 -1.29569e+06
0.061413 0.0414236 0.025 -1.28171e+06
0.0628748 0.0424096 0.025 -1.30965e+06
0.0643665 0.0434157 0.025 -1.31266e+06
0.0658883 0.0444422 0.025 -1.28905e+06
0.0674408 0.0454894 0.025 -1.27598e+06
0.0690245 0.0465576 0.025 -1.27663e+06
0.0706398 0.0476471 0.025 -1.26623e+06
0.0722871 0.0487582 0.025 -1.26367e+06
0.0739669 0.0498912 0.025 -1.26186e+06
0.0756797 0.0510466 0.025 -1.27126e+06
0.0774258 0.0522244 0.025 -1.28289e+06
0.0792059 0.053425 0.025 -1.27427e+06
0.0810203 0.0546489 0.025 -1.2961e+06
0.0828694 0.0558961 0.025 -1.26766e+06
0.0847537 0.0571671 0.025 -1.31172e+06
0.0866737 0.0584622 0.025 -1.27223e+06
0.0886298 0.0597816 0.025 -1.27305e+06
0.0906224 0.0611256 0.025 -1.28374e+06
0.0926518 0.0624944 0.025 -1.24994e+06
0.0947185 0.0638884 0.025 -1.29382e+06
0.096823 0.065308 0.025 -1.25046e+06
0.0989659 0.0667532 0.025 -1.33484e+06
0.101147 0.0682245 0.025 -1.67657e+06
0.103367 0.0697219 0.025 -1.57912e+06
0.105626 0.0712458 0.025 -1.19102e+06
0.107926 0.0727965 0.025 -1.18746e+06
0.110265 0.074374 0.025 -1.23095e+06
0.112644 0.0759789 0.025 -1.8463e+06
0.115063 0.0776111 0.025 -1.24622e+06
0.117524 0.0792709 0.025 -1.72808e+06
0.120026 0.0809585 0.025 -1.88994e+06
0.122569 0.0826741 0.025 -1.66723e+06
0.125155 0.0844179 0.025 -1.48305e+06
0.127782 0.0861901 0.025 -1.28425e+06
0.130451 0.0879908 0.025 -1.241e+06
0.133163 0.08982 0.025 -1.21962e+06
0.135918 0.0916781 0.025 -1.18982e+06
0.138716 0.0935651 0.025 -1.19223e+06
0.141556 0.095481 0.025 -1.20218e+06
0.14444 0.097426 0.025 -1.58222e+06
0.147367 0.0994004 0.025 -2.3563e+06
0.150337 0.101404 0.025 -1.66302e+06
0.153351 0.103437 0.025 -1.61225e+06
0.156408 0.105498 0.025 -2.25983e+06
0.159508 0.107589 0.025 -1.02256e+06
0.162651 0.10971 0.025 -1.50887e+06
0.165838 0.111859 0.025 -3.65853e+06
0.169069 0.114039 0.025 -1.61695e+06
0.172343 0.116247 0.025 -1.9763e+06
0.175659 0.118483 0.025 -1.87411e+06
0.179018 0.120749 0.025 -1.87103e+06
0.182421 0.123045 0.025 -1.93934e+06
0.185866 0.125368 0.025 -1.69971e+06
0.189353 0.12772 0.025 -1.73734e+06
0.192882 0.1301 0.025 -1.84386e+06
0.196453 0.132509 0.025 -1.74508e+06
0.200065 0.134946 0.025 -2.15676e+06
0.203718 0.13741 0.025 -1.94434e+06
0.207412 0.139901 0.025 -923302
0.211146 0.14242 0.025 -985929
0.214919 0.144965 0.025 -1.6146e+06
0.218732 0.147537 0.025 -986521
0.222583 0.150134 0.025 -1.94797e+06
0.226472 0.152757 0.025 -976353
0.230399 0.155406 0.025 -1.82845e+06
0.234362 0.15808 0.025 -1.7237e+06
0.238362 0.160777 0.025 -2.36931e+06
0.242396 0.163498 0.025 -1.9541e+06
0.246466 0.166244 0.025 -2.11529e+06
0.250569 0.169012 0.025 -929550
0.254706 0.171801 0.025 -1.53031e+06
0.258874 0.174613 0.025 -1.53217e+06
0.263074 0.177446 0.025 -1.95353e+06
0.267304 0.180299 0.025 -1.57693e+06
0.271564 0.183172 0.025 -946811
0.275852 0.186064 0.025 -1.62308e+06
0.280168 0.188975 0.025 -923056
0.28451 0.191904 0.025 -1.64941e+06
0.288876 0.19485 0.025 -2.28817e+06
0.293268 0.197812 0.025 -1.60523e+06
0.297683 0.20079 0.025 -1.93218e+06
0.302119 0.203782 0.025 -1.92138e+06
0.306577 0.206788 0.025 -1.38285e+06
0.311054 0.209808 0.025 -1.57042e+06
0.315549 0.212841 0.025 -1.16465e+06
0.320063 0.215885 0.025 -2.03377e+06
0.324591 0.218939 0.025 -1.427e+06
0.329134 0.222003 0.025 -1.41026e+06
0.333691 0.225077 0.025 -2.22965e+06
0.33826 0.228159 0.025 -1.78341e+06
0.342839 0.231248 0.025 -1.83052e+06
0.347428 0.234343 0.025 -872819
0.352025 0.237444 0.025 -1.93079e+06
0.356628 0.240548 0.025 -1.41061e+06
0.361237 0.243658 0.025 -1.15359e+06
0.36585 0.246769 0.025 -2.59362e+06
0.370465 0.249882 0.025 -1.02033e+06
0.375082 0.252996 0.025 -1.45694e+06
0.379698 0.25611 0.025 -2.1573e+06
0.384313 0.259223 0.025 -1.3886e+06
0.388926 0.262333 0.025 -1.7086e+06
0.393534 0.265442 0.025 -1.40638e+06
0.398136 0.268546 0.025 -879026
0.40273 0.271645 0.025 -1.62773e+06
0.407317 0.274739 0.025 -1.67996e+06
0.411894 0.277826 0.025 -2.12397e+06
0.41646 0.280906 0.025 -834312
0.421014 0.283977 0.025 -1.58814e+06
0.425554 0.28704 0.025 -1.87126e+06
0.430079 0.290092 0.025 -1.47924e+06
0.434588 0.293133 0.025 -1.8238e+06
0.439079 0.296162 0.025 -1.27633e+06
0.443551 0.299179 0.025 -1.65866e+06
0.448004 0.302183 0.025 -1.69098e+06
0.452437 0.305172 0.025 -1.65047e+06
0.456846 0.308146 0.025 -1.53426e+06
0.461232 0.311105 0.025 -1.55951e+06
0.465593 0.314047 0.025 -1.44425e+06
0.469929 0.316971 0.025 -1.93215e+06
0.474238 0.319878 0.025 -989839
0.47852 0.322766 0.025 -1.10977e+06
0.482773 0.325635 0.025 -880686
0.486996 0.328483 0.025 -1.32467e+06
0.491189 0.331311 0.025 -2.02532e+06
0.49535 0.334118 0.025 -1.28385e+06
