/*--------------------------------*- C++ -*----------------------------------*\
| =========                 |                                                 |
| \\      /  F ield         | OpenFOAM: The Open Source CFD Toolbox           |
|  \\    /   O peration     | Version:  v2012                                 |
|   \\  /    A nd           | Website:  www.openfoam.com                      |
|    \\/     M anipulation  |                                                 |
\*---------------------------------------------------------------------------*/
FoamFile
{
    version     2.0;
    format      ascii;
    class       volScalarField;
    location    "2000";
    object      alphat;
}
// * * * * * * * * * * * * * * * * * * * * * * * * * * * * * * * * * * * * * //

dimensions      [1 -1 -1 0 0 0 0];


internalField   nonuniform List<scalar> 
39402
(
7.75779e-08
2.76348e-09
6.08916e-08
6.78452e-10
2.50445e-09
3.97097e-08
5.52782e-10
6.02468e-10
2.73846e-09
2.49072e-08
5.8607e-10
9.70692e-10
6.12468e-10
3.46153e-09
1.78301e-08
6.29432e-10
1.5035e-09
8.91726e-09
8.82839e-10
4.68306e-09
1.5528e-08
6.64331e-10
1.85438e-09
1.70041e-08
5.28774e-08
1.80093e-09
6.17339e-09
1.51807e-08
6.81914e-10
2.08854e-09
2.18677e-08
1.01245e-07
1.92968e-07
3.78776e-09
7.64455e-09
1.5751e-08
6.94342e-10
2.2078e-09
2.49666e-08
1.29237e-07
3.66559e-07
5.10312e-07
7.09459e-09
8.89744e-09
1.67847e-08
6.99136e-10
2.29099e-09
2.65093e-08
1.46639e-07
4.63932e-07
9.62738e-07
1.07446e-06
1.16562e-08
9.8622e-09
1.80673e-08
6.94392e-10
2.32478e-09
2.75577e-08
1.55127e-07
5.23175e-07
1.2104e-06
2.01903e-06
1.90939e-06
1.65805e-08
1.05789e-08
1.95161e-08
6.84798e-10
2.31315e-09
2.79564e-08
1.60738e-07
5.51638e-07
1.35799e-06
2.52855e-06
3.58793e-06
2.98278e-06
2.12369e-08
1.11734e-08
2.10875e-08
6.75603e-10
2.2835e-09
2.77908e-08
1.62724e-07
5.69961e-07
1.42836e-06
2.82674e-06
4.49186e-06
5.63141e-06
4.03385e-06
2.62234e-08
1.18196e-08
2.27617e-08
6.6471e-10
2.25567e-09
2.74196e-08
1.61579e-07
5.76077e-07
1.47252e-06
2.96891e-06
5.01394e-06
7.07732e-06
7.90741e-06
5.11792e-06
3.16792e-08
1.24493e-08
2.45402e-08
6.53003e-10
2.2183e-09
2.70747e-08
1.59338e-07
5.717e-07
1.48683e-06
3.0561e-06
5.26488e-06
7.90669e-06
1.0196e-05
1.01497e-05
6.27142e-06
3.83771e-08
1.29791e-08
2.64304e-08
6.42148e-10
2.17787e-09
2.66037e-08
1.57235e-07
5.63762e-07
1.47561e-06
3.08459e-06
5.41591e-06
8.31168e-06
1.14297e-05
1.32839e-05
1.25659e-05
7.50886e-06
4.88004e-08
1.34879e-08
2.84348e-08
6.31258e-10
2.1405e-09
2.60997e-08
1.54441e-07
5.56299e-07
1.45605e-06
3.06314e-06
5.46716e-06
8.55208e-06
1.20458e-05
1.51443e-05
1.66324e-05
1.51509e-05
8.93366e-06
5.84688e-08
1.41127e-08
3.05609e-08
6.19546e-10
2.102e-09
2.56331e-08
1.51473e-07
5.46528e-07
1.4375e-06
3.02604e-06
5.43508e-06
8.63923e-06
1.24083e-05
1.61184e-05
1.91257e-05
2.02784e-05
1.79031e-05
1.09146e-05
6.50222e-08
1.49674e-08
3.28259e-08
6.07968e-10
2.05944e-09
2.5151e-08
1.48715e-07
5.36158e-07
1.41339e-06
2.99054e-06
5.37715e-06
8.60042e-06
1.25501e-05
1.66956e-05
2.04703e-05
2.35137e-05
2.42091e-05
2.09595e-05
1.40645e-05
6.78085e-08
1.61368e-08
3.53056e-08
5.97427e-10
2.01839e-09
2.4618e-08
1.45873e-07
5.26512e-07
1.38784e-06
2.94412e-06
5.32085e-06
8.5225e-06
1.25145e-05
1.69592e-05
2.12648e-05
2.5312e-05
2.83176e-05
2.84371e-05
2.47515e-05
1.70979e-05
6.46252e-08
1.76658e-08
3.79919e-08
5.87593e-10
1.98175e-09
2.41065e-08
1.42753e-07
5.16577e-07
1.36393e-06
2.89484e-06
5.2466e-06
8.44545e-06
1.24223e-05
1.69859e-05
2.16514e-05
2.63826e-05
3.06769e-05
3.35344e-05
3.30641e-05
2.91779e-05
1.92651e-05
5.60414e-08
1.96297e-08
4.0938e-08
5.77797e-10
1.94729e-09
2.36534e-08
1.39762e-07
5.05722e-07
1.3393e-06
2.84854e-06
5.16704e-06
8.34134e-06
1.23282e-05
1.69288e-05
2.17254e-05
2.69248e-05
3.21058e-05
3.65748e-05
3.9172e-05
3.78029e-05
3.26041e-05
2.07973e-05
4.4921e-08
2.18744e-08
4.38356e-08
5.67912e-10
1.91239e-09
2.32246e-08
1.371e-07
4.95303e-07
1.31243e-06
2.80066e-06
5.092e-06
8.22867e-06
1.21964e-05
1.68626e-05
2.1683e-05
2.70648e-05
3.28507e-05
3.8454e-05
4.30075e-05
4.50294e-05
4.24377e-05
3.57075e-05
2.1313e-05
3.45099e-08
2.43603e-08
4.63697e-08
5.58737e-10
1.87751e-09
2.27905e-08
1.34579e-07
4.86e-07
1.28662e-06
2.74844e-06
5.01397e-06
8.12164e-06
1.20512e-05
1.67462e-05
2.16229e-05
2.70471e-05
3.30885e-05
3.94689e-05
4.54383e-05
4.98607e-05
5.10615e-05
4.69491e-05
3.88138e-05
2.05533e-05
2.72085e-08
2.71072e-08
4.80756e-08
5.49993e-10
1.84527e-09
2.23581e-08
1.32034e-07
4.77175e-07
1.26349e-06
2.69816e-06
4.92874e-06
8.0097e-06
1.19121e-05
1.65882e-05
2.14987e-05
2.69976e-05
3.31149e-05
3.98477e-05
4.68064e-05
5.3004e-05
5.70972e-05
5.71556e-05
5.12604e-05
4.23241e-05
1.84051e-05
2.32908e-08
3.01339e-08
4.87333e-08
5.41352e-10
1.81481e-09
2.19605e-08
1.2951e-07
4.68286e-07
1.24149e-06
2.65295e-06
4.84645e-06
7.88684e-06
1.17656e-05
1.64199e-05
2.13455e-05
2.68668e-05
3.30884e-05
3.99447e-05
4.73834e-05
5.48419e-05
6.11247e-05
6.46091e-05
6.31305e-05
5.53515e-05
4.65091e-05
1.49764e-05
2.21954e-08
3.32852e-08
4.86022e-08
5.327e-10
1.78442e-09
2.15847e-08
1.27186e-07
4.59489e-07
1.21935e-06
2.60985e-06
4.7723e-06
7.76804e-06
1.16037e-05
1.62409e-05
2.11943e-05
2.67022e-05
3.29594e-05
3.99597e-05
4.75892e-05
5.57011e-05
6.35738e-05
6.97285e-05
7.22223e-05
6.88264e-05
5.92046e-05
4.88833e-05
1.07455e-05
2.28747e-08
3.61612e-08
4.81694e-08
5.24445e-10
1.75399e-09
2.12128e-08
1.24995e-07
4.51371e-07
1.19745e-06
2.56643e-06
4.70138e-06
7.66087e-06
1.1447e-05
1.60413e-05
2.10269e-05
2.65403e-05
3.27859e-05
3.98445e-05
4.76719e-05
5.60742e-05
6.48202e-05
7.29601e-05
7.86737e-05
7.97299e-05
7.40626e-05
6.28577e-05
4.65925e-05
6.58535e-06
2.47102e-08
3.87852e-08
4.73941e-08
5.16633e-10
1.72525e-09
2.08418e-08
1.22837e-07
4.43738e-07
1.17722e-06
2.5235e-06
4.62985e-06
7.55807e-06
1.13053e-05
1.58475e-05
2.08329e-05
2.63565e-05
3.26124e-05
3.96694e-05
4.75887e-05
5.62651e-05
6.5435e-05
7.47263e-05
8.29034e-05
8.7768e-05
8.68794e-05
7.87313e-05
6.6761e-05
4.18151e-05
3.41425e-06
2.7175e-08
4.08724e-08
4.64636e-08
5.09096e-10
1.69797e-09
2.04941e-08
1.20694e-07
4.36235e-07
1.15819e-06
2.48373e-06
4.55905e-06
7.45404e-06
1.1169e-05
1.56724e-05
2.06435e-05
2.61395e-05
3.24099e-05
3.94903e-05
4.74257e-05
5.6247e-05
6.57863e-05
7.56839e-05
8.53655e-05
9.32552e-05
9.67671e-05
9.33999e-05
8.28627e-05
7.15498e-05
3.45408e-05
1.53302e-06
2.98543e-08
4.27771e-08
4.52121e-08
5.01801e-10
1.67134e-09
2.01647e-08
1.18691e-07
4.28806e-07
1.13951e-06
2.44638e-06
4.49341e-06
7.35105e-06
1.10309e-05
1.55037e-05
2.04748e-05
2.59266e-05
3.21654e-05
3.92728e-05
4.72515e-05
5.61173e-05
6.58704e-05
7.62707e-05
8.67986e-05
9.66315e-05
0.000103804
0.000105361
9.91029e-05
8.66989e-05
7.42094e-05
2.5378e-05
6.27716e-07
3.25571e-08
4.44217e-08
4.38495e-08
4.95118e-10
1.64574e-09
1.98445e-08
1.16802e-07
4.21865e-07
1.12104e-06
2.40967e-06
4.43168e-06
7.25539e-06
1.08938e-05
1.53316e-05
2.03103e-05
2.57361e-05
3.19237e-05
3.90035e-05
4.70268e-05
5.59632e-05
6.58042e-05
7.651e-05
8.77172e-05
9.87158e-05
0.000108364
0.000114271
0.000113233
0.000103921
9.0741e-05
6.84084e-05
1.59741e-05
2.50565e-07
3.50867e-08
4.56375e-08
4.24615e-08
4.88459e-10
1.62231e-09
1.95384e-08
1.14974e-07
4.15348e-07
1.10381e-06
2.37338e-06
4.37095e-06
7.16541e-06
1.07665e-05
1.51606e-05
2.01406e-05
2.55505e-05
3.17077e-05
3.8734e-05
4.67364e-05
5.57444e-05
6.56932e-05
7.65486e-05
8.81922e-05
0.000100109
0.000111329
0.000120342
0.000124313
0.000120097
0.00010807
9.58482e-05
5.86488e-05
8.43707e-06
1.08123e-07
3.73415e-08
4.63397e-08
4.12212e-08
4.81719e-10
1.59898e-09
1.92612e-08
1.13237e-07
4.09059e-07
1.08764e-06
2.33954e-06
4.31092e-06
7.07681e-06
1.06468e-05
1.5002e-05
1.99704e-05
2.53569e-05
3.14967e-05
3.84931e-05
4.6441e-05
5.54425e-05
6.54998e-05
7.65164e-05
8.83977e-05
0.000100921
0.000113368
0.000124461
0.00013225
0.000133556
0.00012578
0.000112058
0.000100141
4.51615e-05
3.77447e-06
5.78531e-08
3.92541e-08
4.65332e-08
4.02114e-08
4.74941e-10
1.57507e-09
1.89867e-08
1.11666e-07
4.03107e-07
1.07206e-06
2.30776e-06
4.25488e-06
6.98912e-06
1.05286e-05
1.48527e-05
1.98135e-05
2.51623e-05
3.12749e-05
3.82575e-05
4.61784e-05
5.51284e-05
6.52012e-05
7.63725e-05
8.84877e-05
0.000101371
0.000114657
0.000127375
0.000137866
0.000143718
0.000141592
0.000130344
0.000116729
9.19175e-05
2.98677e-05
1.48734e-06
4.1323e-08
4.06253e-08
4.63957e-08
3.94069e-08
4.68936e-10
1.55125e-09
1.87069e-08
1.10131e-07
3.97742e-07
1.05736e-06
2.27719e-06
4.20231e-06
6.90736e-06
1.04115e-05
1.47051e-05
1.96655e-05
2.49829e-05
3.10508e-05
3.80071e-05
4.59196e-05
5.48484e-05
6.4879e-05
7.6098e-05
8.84284e-05
0.000101649
0.00011546
0.00012932
0.000141936
0.00015121
0.000154287
0.000148177
0.000134254
0.000122487
7.83787e-05
1.63424e-05
5.45655e-07
3.66093e-08
4.14981e-08
4.59941e-08
3.87066e-08
4.63889e-10
1.53076e-09
1.84311e-08
1.08575e-07
3.92532e-07
1.04413e-06
2.24836e-06
4.15165e-06
6.83047e-06
1.03024e-05
1.45587e-05
1.95181e-05
2.48141e-05
3.08441e-05
3.77517e-05
4.564e-05
5.45703e-05
6.45906e-05
7.5784e-05
8.82043e-05
0.000101728
0.000116008
0.000130618
0.000144771
0.000156786
0.000164067
0.000163503
0.000153294
0.00013846
0.000122492
5.9867e-05
7.34701e-06
2.01123e-07
3.58775e-08
4.20464e-08
4.519e-08
3.82243e-08
4.58938e-10
1.51366e-09
1.81981e-08
1.07052e-07
3.87275e-07
1.03133e-06
2.22246e-06
4.10395e-06
6.75629e-06
1.01996e-05
1.44225e-05
1.93715e-05
2.46446e-05
3.06495e-05
3.7516e-05
4.5355e-05
5.42677e-05
6.43003e-05
7.54991e-05
8.79225e-05
0.000101596
0.000116296
0.000131556
0.000146756
0.000160802
0.000171548
0.00017592
0.000171012
0.000157436
0.000144606
0.000109983
3.91025e-05
2.8138e-06
8.45127e-08
3.64644e-08
4.23449e-08
4.39246e-08
3.79906e-08
4.53636e-10
1.49662e-09
1.80063e-08
1.05777e-07
3.82166e-07
1.01849e-06
2.19748e-06
4.06113e-06
6.68648e-06
1.01001e-05
1.42935e-05
1.92354e-05
2.44756e-05
3.04549e-05
3.72959e-05
4.50921e-05
5.39544e-05
6.39772e-05
7.52077e-05
8.76622e-05
0.000101378
0.000116317
0.000132142
0.000148235
0.000163706
0.000177096
0.000185751
0.000186239
0.000176738
0.000161722
0.000151698
9.09038e-05
2.1054e-05
9.69139e-07
4.78072e-08
3.73136e-08
4.26629e-08
4.232e-08
3.78549e-08
4.483e-10
1.47791e-09
1.78168e-08
1.04743e-07
3.77921e-07
1.00605e-06
2.17247e-06
4.01991e-06
6.62394e-06
1.00068e-05
1.41685e-05
1.90933e-05
2.43203e-05
3.0259e-05
3.70737e-05
4.48448e-05
5.36637e-05
6.36394e-05
7.48742e-05
8.73839e-05
0.000101167
0.000116211
0.000132396
0.000149247
0.000165916
0.000181231
0.000193263
0.000198791
0.000194555
0.000181083
0.000167744
0.000139846
6.63926e-05
9.32147e-06
3.19941e-07
3.73963e-08
3.80159e-08
4.28586e-08
4.08323e-08
3.77689e-08
4.43505e-10
1.45941e-09
1.76079e-08
1.03731e-07
3.74518e-07
9.95792e-07
2.14834e-06
3.97866e-06
6.56376e-06
9.92307e-06
1.40511e-05
1.89432e-05
2.41709e-05
3.00785e-05
3.685e-05
4.45947e-05
5.33906e-05
6.3324e-05
7.45158e-05
8.70536e-05
0.000100925
0.00011609
0.000132463
0.000149825
0.000167517
0.000184429
0.00019898
0.000208735
0.000210064
0.000200705
0.000185189
0.000174837
0.000120603
4.08106e-05
3.52049e-06
1.13975e-07
3.49281e-08
3.88207e-08
4.27571e-08
3.95344e-08
3.77155e-08
4.39631e-10
1.44336e-09
1.74034e-08
1.02619e-07
3.71216e-07
9.87653e-07
2.12857e-06
3.93905e-06
6.50359e-06
9.84257e-06
1.39461e-05
1.88023e-05
2.40227e-05
2.99086e-05
3.66427e-05
4.43429e-05
5.31143e-05
6.30304e-05
7.41824e-05
8.66905e-05
0.000100616
0.000115921
0.000132482
0.000150155
0.000168562
0.000186819
0.000203474
0.000216507
0.000222875
0.000219008
0.000205106
0.000190953
0.000167651
9.3958e-05
2.04086e-05
1.19849e-06
5.39027e-08
3.47241e-08
3.9349e-08
4.24022e-08
3.84329e-08
3.76752e-08
4.36086e-10
1.43071e-09
1.72311e-08
1.01539e-07
3.67599e-07
9.79804e-07
2.11305e-06
3.90682e-06
6.44597e-06
9.76216e-06
1.38452e-05
1.86768e-05
2.38846e-05
2.97438e-05
3.64495e-05
4.41092e-05
5.28332e-05
6.27282e-05
7.38709e-05
8.63454e-05
0.000100262
0.000115656
0.000132433
0.000150389
0.000169265
0.0001885
0.00020693
0.000222686
0.000233186
0.00023495
0.000225417
0.000209053
0.000198232
0.000147963
6.29966e-05
8.3897e-06
3.88727e-07
3.76714e-08
3.50038e-08
3.98628e-08
4.19012e-08
3.74625e-08
3.76446e-08
4.32131e-10
1.41891e-09
1.71008e-08
1.00647e-07
3.64108e-07
9.71221e-07
2.09814e-06
3.88175e-06
6.39948e-06
9.68536e-06
1.37442e-05
1.85563e-05
2.37623e-05
2.95895e-05
3.62628e-05
4.38926e-05
5.25733e-05
6.24182e-05
7.35466e-05
8.60199e-05
9.9919e-05
0.00011533
0.000132254
0.000150511
0.000169813
0.000189721
0.000209477
0.000227526
0.000241533
0.000248276
0.000244348
0.00022974
0.000214777
0.000194038
0.00011969
3.46128e-05
2.9834e-06
1.32761e-07
3.3758e-08
3.56251e-08
4.00296e-08
4.10533e-08
3.66873e-08
3.76206e-08
4.27742e-10
1.4051e-09
1.69808e-08
9.99975e-08
3.61282e-07
9.62992e-07
2.08184e-06
3.8577e-06
6.3636e-06
9.62397e-06
1.36482e-05
1.84354e-05
2.36443e-05
2.94532e-05
3.60863e-05
4.36823e-05
5.23339e-05
6.2136e-05
7.32135e-05
8.56815e-05
9.95923e-05
0.000115011
0.000131984
0.000150471
0.000170189
0.000190701
0.0002114
0.000231218
0.000248174
0.000259317
0.000260982
0.00025082
0.000233578
0.00022238
0.000173524
8.47556e-05
1.53542e-05
9.67077e-07
5.81899e-08
3.3046e-08
3.62713e-08
4.01647e-08
3.9984e-08
3.60927e-08
3.76024e-08
4.23391e-10
1.38977e-09
1.68347e-08
9.94096e-08
3.59301e-07
9.56467e-07
2.06634e-06
3.83146e-06
6.32936e-06
9.57719e-06
1.35721e-05
1.83206e-05
2.35246e-05
2.93218e-05
3.59332e-05
4.34838e-05
5.20999e-05
6.18742e-05
7.29083e-05
8.53315e-05
9.92463e-05
0.000114702
0.000131714
0.000150313
0.000170355
0.000191444
0.000212966
0.000234089
0.000253369
0.000268276
0.000275196
0.000270597
0.000254951
0.000239466
0.000219165
0.000143531
4.97788e-05
5.72635e-06
3.03172e-07
3.80699e-08
3.30112e-08
3.70595e-08
4.01885e-08
3.87126e-08
3.56831e-08
3.75914e-08
4.19632e-10
1.37486e-09
1.66731e-08
9.86843e-08
3.57539e-07
9.52068e-07
2.05426e-06
3.80661e-06
6.29183e-06
9.53246e-06
1.35149e-05
1.82309e-05
2.34121e-05
2.91879e-05
3.57856e-05
4.33118e-05
5.18797e-05
6.16171e-05
7.26265e-05
8.5005e-05
9.88846e-05
0.000114364
0.000131449
0.000150127
0.000170358
0.000191912
0.000214208
0.000236455
0.0002575
0.00027542
0.000287027
0.000288313
0.0002769
0.000258737
0.000247308
0.000197031
0.000105351
2.35312e-05
1.90503e-06
1.0426e-07
3.31028e-08
3.3391e-08
3.75443e-08
4.01831e-08
3.73797e-08
3.54663e-08
3.7585e-08
4.16931e-10
1.36262e-09
1.65169e-08
9.78725e-08
3.55331e-07
9.48235e-07
2.04646e-06
3.78767e-06
6.25654e-06
9.48334e-06
1.34603e-05
1.81646e-05
2.33288e-05
2.90616e-05
3.56342e-05
4.31448e-05
5.16876e-05
6.13735e-05
7.23461e-05
8.47044e-05
9.85444e-05
0.000114001
0.000131138
0.000149932
0.00017031
0.000192159
0.000215094
0.000238382
0.000260923
0.000281191
0.000296682
0.000303547
0.000297856
0.000280682
0.000265022
0.000243135
0.000164608
6.48594e-05
9.21873e-06
5.93944e-07
4.93109e-08
3.19403e-08
3.39773e-08
3.81724e-08
3.98367e-08
3.60793e-08
3.53456e-08
3.75813e-08
4.15631e-10
1.35437e-09
1.63948e-08
9.70945e-08
3.52837e-07
9.43314e-07
2.0398e-06
3.77604e-06
6.23035e-06
9.43748e-06
1.33999e-05
1.8101e-05
2.32699e-05
2.89705e-05
3.54918e-05
4.29759e-05
5.15027e-05
6.11611e-05
7.20817e-05
8.44056e-05
9.82328e-05
0.000113655
0.000130793
0.000149681
0.000170238
0.000192316
0.000215698
0.00023984
0.000263744
0.000286001
0.000304579
0.000316275
0.000316771
0.000303743
0.000284495
0.000273001
0.000218546
0.000122837
3.21507e-05
3.17573e-06
1.87141e-07
3.52759e-08
3.18325e-08
3.47013e-08
3.83921e-08
3.9188e-08
3.50486e-08
3.52692e-08
3.75791e-08
4.14331e-10
1.35168e-09
1.63214e-08
9.65116e-08
3.50467e-07
9.37715e-07
2.03102e-06
3.76626e-06
6.215e-06
9.40424e-06
1.33439e-05
1.80302e-05
2.32127e-05
2.89094e-05
3.5389e-05
4.28167e-05
5.13143e-05
6.09604e-05
7.1854e-05
8.41263e-05
9.79238e-05
0.000113346
0.000130466
0.000149377
0.000170081
0.000192423
0.000216149
0.000240917
0.000265965
0.000289995
0.000311191
0.000326875
0.000333133
0.000326009
0.000306997
0.000291331
0.000265881
0.000182895
7.73516e-05
1.30289e-05
1.00939e-06
7.09212e-08
3.19965e-08
3.20756e-08
3.55831e-08
3.85875e-08
3.79516e-08
3.43275e-08
3.52219e-08
3.75779e-08
4.12557e-10
1.34763e-09
1.63156e-08
9.62085e-08
3.4878e-07
9.32444e-07
2.02094e-06
3.75297e-06
6.20245e-06
9.38602e-06
1.33046e-05
1.79651e-05
2.31464e-05
2.88494e-05
3.53227e-05
4.27024e-05
5.11357e-05
6.07529e-05
7.16356e-05
8.38851e-05
9.76311e-05
0.000113032
0.000130169
0.000149082
0.000169849
0.00019241
0.000216508
0.000241772
0.000267699
0.000293228
0.00031674
0.000335817
0.000347077
0.000346172
0.000331189
0.000310887
0.000299325
0.000238109
0.000137066
3.92069e-05
4.57351e-06
3.11437e-07
4.02647e-08
3.13275e-08
3.25398e-08
3.6269e-08
3.86017e-08
3.64847e-08
3.38725e-08
3.5198e-08
3.75773e-08
4.09871e-10
1.34181e-09
1.62894e-08
9.62829e-08
3.48053e-07
9.28886e-07
2.01156e-06
3.73753e-06
6.18461e-06
9.37155e-06
1.32847e-05
1.7921e-05
2.30861e-05
2.87776e-05
3.52583e-05
4.26304e-05
5.10121e-05
6.05568e-05
7.14093e-05
8.36524e-05
9.73795e-05
0.000112727
0.000129858
0.000148813
0.000169615
0.0001923
0.000216716
0.000242485
0.000269116
0.000295834
0.000321298
0.000343361
0.000358976
0.000363981
0.000354631
0.000333808
0.000318515
0.000287256
0.000198501
8.6856e-05
1.61416e-05
1.46122e-06
1.04995e-07
3.27248e-08
3.1222e-08
3.32383e-08
3.69235e-08
3.85355e-08
3.49727e-08
3.36403e-08
3.51869e-08
3.7577e-08
4.06229e-10
1.33188e-09
1.6241e-08
9.62413e-08
3.48611e-07
9.27758e-07
2.00562e-06
3.72336e-06
6.16368e-06
9.34976e-06
1.32696e-05
1.79012e-05
2.30504e-05
2.87121e-05
3.51801e-05
4.25617e-05
5.09387e-05
6.04228e-05
7.11974e-05
8.34095e-05
9.71414e-05
0.00011247
0.000129556
0.00014853
0.000169404
0.000192167
0.000216787
0.000242999
0.00027031
0.000298002
0.000325031
0.000349662
0.00036909
0.000379504
0.000376442
0.000358861
0.000337914
0.000326404
0.000255446
0.000148131
4.42948e-05
5.71074e-06
4.43209e-07
4.86471e-08
3.09917e-08
3.14038e-08
3.40153e-08
3.73121e-08
3.77203e-08
3.37559e-08
3.35265e-08
3.51816e-08
3.75769e-08
4.02308e-10
1.31861e-09
1.61405e-08
9.60731e-08
3.4877e-07
9.29805e-07
2.00456e-06
3.7151e-06
6.1448e-06
9.32373e-06
1.32447e-05
1.78869e-05
2.30409e-05
2.86767e-05
3.51089e-05
4.24777e-05
5.08654e-05
6.03499e-05
7.10553e-05
8.31793e-05
9.68828e-05
0.000112227
0.000129304
0.000148252
0.000169165
0.000192046
0.000216814
0.000243339
0.000271239
0.000299851
0.000328188
0.000354896
0.000377623
0.000392886
0.000396117
0.00038388
0.000361379
0.000346421
0.000306884
0.000211057
9.32925e-05
1.83163e-05
1.8264e-06
1.40428e-07
3.4427e-08
3.07097e-08
3.17538e-08
3.49703e-08
3.7446e-08
3.6456e-08
3.29459e-08
3.34691e-08
3.51793e-08
3.75768e-08
3.98447e-10
1.30477e-09
1.59997e-08
9.56071e-08
3.48497e-07
9.30835e-07
2.00979e-06
3.71517e-06
6.1348e-06
9.30072e-06
1.32145e-05
1.78603e-05
2.3037e-05
2.86732e-05
3.50744e-05
4.2403e-05
5.07755e-05
6.02793e-05
7.09839e-05
8.30338e-05
9.66397e-05
0.000111965
0.000129059
0.000148016
0.00016893
0.000191888
0.000216838
0.000243597
0.000271953
0.000301357
0.000330902
0.000359329
0.000384806
0.000404293
0.000413406
0.000407649
0.000387132
0.000366589
0.000353346
0.000270058
0.000155465
4.72039e-05
6.48851e-06
5.51522e-07
5.73196e-08
3.11879e-08
3.07798e-08
3.22855e-08
3.56583e-08
3.75559e-08
3.47808e-08
3.24883e-08
3.34453e-08
3.51784e-08
3.75768e-08
3.95197e-10
1.29162e-09
1.58528e-08
9.49097e-08
3.472e-07
9.30784e-07
2.01291e-06
3.72565e-06
6.13743e-06
9.29009e-06
1.31884e-05
1.7827e-05
2.3019e-05
2.86761e-05
3.50787e-05
4.23682e-05
5.06976e-05
6.01855e-05
7.09166e-05
8.29694e-05
9.64915e-05
0.000111719
0.000128796
0.000147787
0.000168733
0.00019172
0.000216803
0.000243826
0.000272531
0.000302562
0.000333168
0.00036317
0.00039093
0.000413971
0.000428376
0.000429248
0.000413723
0.000389699
0.000375135
0.000324371
0.000219897
9.61306e-05
1.9308e-05
2.07857e-06
1.70048e-07
3.62758e-08
3.05577e-08
3.09379e-08
3.30251e-08
3.62849e-08
3.69513e-08
3.32499e-08
3.22832e-08
3.34359e-08
3.51781e-08
3.75768e-08
3.92896e-10
1.28104e-09
1.57145e-08
9.41743e-08
3.4509e-07
9.28173e-07
2.01388e-06
3.73259e-06
6.15554e-06
9.29701e-06
1.31786e-05
1.77991e-05
2.29905e-05
2.86586e-05
3.5087e-05
4.23797e-05
5.06661e-05
6.01017e-05
7.08218e-05
8.29031e-05
9.64352e-05
0.000111568
0.000128549
0.000147531
0.000168542
0.000191584
0.000216738
0.00024397
0.000273044
0.000303575
0.000335047
0.000366436
0.000396225
0.00042226
0.000441255
0.00044844
0.000439254
0.000415751
0.000395899
0.000373485
0.000281631
0.000158525
4.74952e-05
6.78249e-06
6.265e-07
6.47152e-08
3.137e-08
3.0526e-08
3.11785e-08
3.40149e-08
3.64461e-08
3.59528e-08
3.21662e-08
3.21959e-08
3.34324e-08
3.5178e-08
3.75768e-08
3.91852e-10
1.27409e-09
1.56083e-08
9.34851e-08
3.42838e-07
9.23518e-07
2.00973e-06
3.73573e-06
6.168e-06
9.32493e-06
1.31917e-05
1.77917e-05
2.29684e-05
2.86325e-05
3.50718e-05
4.2397e-05
5.06875e-05
6.00762e-05
7.07347e-05
8.28065e-05
9.63743e-05
0.00011152
0.000128405
0.000147289
0.000168309
0.00019145
0.000216692
0.000244054
0.000273437
0.000304477
0.000336646
0.000369181
0.000400767
0.000429448
0.000452376
0.000465267
0.000462934
0.000443496
0.000418385
0.000403768
0.000338808
0.000224929
9.50194e-05
1.89751e-05
2.15324e-06
1.90191e-07
3.77972e-08
3.03271e-08
3.06042e-08
3.18096e-08
3.47143e-08
3.65846e-08
3.41662e-08
3.15637e-08
3.21628e-08
3.34313e-08
3.5178e-08
3.75768e-08
3.9172e-10
1.27198e-09
1.55445e-08
9.29777e-08
3.40753e-07
9.18502e-07
2.00149e-06
3.73025e-06
6.1748e-06
9.3449e-06
1.32318e-05
1.78133e-05
2.29717e-05
2.86135e-05
3.50477e-05
4.2391e-05
5.07176e-05
6.0113e-05
7.07128e-05
8.27228e-05
9.62826e-05
0.000111475
0.000128377
0.00014716
0.000168082
0.000191267
0.000216643
0.000244155
0.000273747
0.00030521
0.000338067
0.000371554
0.000404664
0.000435659
0.000462024
0.00047995
0.000484358
0.00047094
0.00044472
0.000425681
0.000391078
0.000289316
0.000157501
4.52077e-05
6.5419e-06
6.41801e-07
6.94846e-08
3.14733e-08
3.01878e-08
3.07904e-08
3.24118e-08
3.54778e-08
3.60415e-08
3.25195e-08
3.13027e-08
3.21523e-08
3.3431e-08
3.5178e-08
3.75768e-08
3.92038e-10
1.27283e-09
1.55399e-08
9.27026e-08
3.39274e-07
9.13909e-07
1.99258e-06
3.71782e-06
6.1685e-06
9.3568e-06
1.32611e-05
1.78679e-05
2.30082e-05
2.86235e-05
3.50332e-05
4.23695e-05
5.07201e-05
6.01585e-05
7.07659e-05
8.27064e-05
9.62073e-05
0.000111398
0.00012836
0.000147167
0.000167985
0.00019108
0.000216534
0.00024424
0.000274055
0.000305831
0.000339259
0.000373663
0.000408032
0.000441021
0.000470379
0.000492743
0.000503355
0.000497001
0.00047334
0.000448257
0.000432768
0.000349535
0.000225427
9.05495e-05
1.75539e-05
2.04347e-06
1.92325e-07
3.87055e-08
3.01795e-08
3.02394e-08
3.0999e-08
3.33942e-08
3.56504e-08
3.51083e-08
3.13233e-08
3.12103e-08
3.21491e-08
3.3431e-08
3.51781e-08
3.75768e-08
3.92357e-10
1.27506e-09
1.55692e-08
9.27617e-08
3.38593e-07
9.10801e-07
1.98445e-06
3.70435e-06
6.15192e-06
9.35045e-06
1.32794e-05
1.79085e-05
2.30811e-05
2.86745e-05
3.50505e-05
4.2357e-05
5.07023e-05
6.01676e-05
7.08326e-05
8.27807e-05
9.62036e-05
0.000111333
0.0001283
0.000147185
0.000168037
0.00019103
0.000216413
0.000244238
0.000274317
0.00030641
0.000340295
0.00037546
0.000411017
0.000445679
0.000477638
0.000503856
0.000520087
0.000520768
0.000502696
0.0004745
0.000456322
0.000405416
0.000292156
0.000151965
4.12078e-05
5.92618e-06
6.00861e-07
6.93969e-08
3.15571e-08
3.00275e-08
3.03467e-08
3.13771e-08
3.4155e-08
3.57847e-08
3.31847e-08
3.07195e-08
3.11805e-08
3.21484e-08
3.34312e-08
3.51781e-08
3.75768e-08
3.92119e-10
1.27648e-09
1.56124e-08
9.30073e-08
3.3904e-07
9.09683e-07
1.97937e-06
3.69229e-06
6.13387e-06
9.33007e-06
1.3274e-05
1.79347e-05
2.31365e-05
2.87692e-05
3.51165e-05
4.23849e-05
5.06937e-05
6.01521e-05
7.08542e-05
8.28707e-05
9.63035e-05
0.000111351
0.000128246
0.000147147
0.000168095
0.000191138
0.000216427
0.000244213
0.000274466
0.000306927
0.000341245
0.000377051
0.000413625
0.000449831
0.00048397
0.000513544
0.000534731
0.000542188
0.000530843
0.000503391
0.00047992
0.000457273
0.000355647
0.000220464
8.29102e-05
1.54755e-05
1.82061e-06
1.79213e-07
3.84313e-08
3.00987e-08
3.00788e-08
3.04103e-08
3.20875e-08
3.47813e-08
3.51229e-08
3.15242e-08
3.04868e-08
3.11728e-08
3.21484e-08
3.34313e-08
3.51782e-08
3.75768e-08
3.91392e-10
1.27572e-09
1.56431e-08
9.33296e-08
3.40118e-07
9.11327e-07
1.97812e-06
3.68527e-06
6.11799e-06
9.30787e-06
1.32504e-05
1.79314e-05
2.31732e-05
2.88409e-05
3.52363e-05
4.24687e-05
5.07353e-05
6.01525e-05
7.0844e-05
8.29112e-05
9.64191e-05
0.000111482
0.000128293
0.000147107
0.000168092
0.000191251
0.000216621
0.000244319
0.000274588
0.000307303
0.000342094
0.000378499
0.00041595
0.000453477
0.000489586
0.00052205
0.000547568
0.000561222
0.000557283
0.000533917
0.00050491
0.000487375
0.000415536
0.000289403
0.000141396
3.58443e-05
5.09268e-06
5.29279e-07
6.55578e-08
3.13025e-08
2.98567e-08
3.0143e-08
3.06727e-08
3.29393e-08
3.4913e-08
3.38953e-08
3.04186e-08
3.0418e-08
3.1171e-08
3.21486e-08
3.34315e-08
3.51783e-08
3.75769e-08
3.90047e-10
1.27295e-09
1.56448e-08
9.3569e-08
3.4145e-07
9.14534e-07
1.98241e-06
3.68481e-06
6.10983e-06
9.289e-06
1.3225e-05
1.79055e-05
2.31745e-05
2.88895e-05
3.53273e-05
4.26154e-05
5.08431e-05
6.02117e-05
7.08569e-05
8.29176e-05
9.64832e-05
0.00011163
0.000128461
0.000147187
0.000168085
0.0001913
0.000216816
0.000244625
0.000274839
0.000307618
0.000342777
0.000379795
0.000418055
0.000456735
0.000494556
0.000529603
0.000558882
0.00057805
0.000581333
0.000564491
0.000534042
0.000512174
0.00047125
0.000356337
0.000209467
7.2405e-05
1.29343e-05
1.53179e-06
1.58019e-07
3.72922e-08
2.98054e-08
2.98283e-08
3.0271e-08
3.1236e-08
3.37821e-08
3.49513e-08
3.1879e-08
2.99505e-08
3.04001e-08
3.11708e-08
3.21489e-08
3.34316e-08
3.51783e-08
3.75769e-08
3.88071e-10
1.26764e-09
1.56198e-08
9.36375e-08
3.42463e-07
9.1832e-07
1.98964e-06
3.69354e-06
6.11137e-06
9.2807e-06
1.3204e-05
1.78777e-05
2.3152e-05
2.88961e-05
3.53914e-05
4.27327e-05
5.10195e-05
6.03481e-05
7.0934e-05
8.29437e-05
9.65079e-05
0.000111722
0.000128647
0.000147403
0.000168206
0.000191347
0.000216942
0.000244934
0.000275292
0.000308066
0.000343372
0.000380887
0.000419949
0.000459703
0.00049903
0.000536308
0.000568936
0.000592981
0.000603029
0.000593556
0.000565525
0.000537838
0.000518343
0.00042012
0.000280414
0.000126206
2.95543e-05
4.12206e-06
4.3864e-07
5.9678e-08
3.08569e-08
2.95716e-08
2.98928e-08
3.0494e-08
3.19829e-08
3.42777e-08
3.38867e-08
3.03659e-08
2.98032e-08
3.03964e-08
3.11711e-08
3.21491e-08
3.34318e-08
3.51784e-08
3.7577e-08
3.85635e-10
1.25998e-09
1.55622e-08
9.35448e-08
3.4287e-07
9.21257e-07
1.99804e-06
3.70717e-06
6.12658e-06
9.28575e-06
1.31969e-05
1.78556e-05
2.31282e-05
2.88736e-05
3.54049e-05
4.28139e-05
5.11649e-05
6.05613e-05
7.1099e-05
8.30363e-05
9.65456e-05
0.000111761
0.000128777
0.00014764
0.000168487
0.000191526
0.000217062
0.000245161
0.000275744
0.000308716
0.000344085
0.000381859
0.000421564
0.000462359
0.000503099
0.000542336
0.000577875
0.000606276
0.000622489
0.000620628
0.000598087
0.00056644
0.000545475
0.000480355
0.000350536
0.000192577
6.00211e-05
1.01979e-05
1.2078e-06
1.31855e-07
3.57091e-08
2.95663e-08
2.96093e-08
2.99354e-08
3.06103e-08
3.28493e-08
3.43833e-08
3.23912e-08
2.95638e-08
2.97679e-08
3.0396e-08
3.11715e-08
3.21494e-08
3.3432e-08
3.51785e-08
3.7577e-08
3.82902e-10
1.25083e-09
1.54739e-08
9.32595e-08
3.42695e-07
9.22635e-07
2.00456e-06
3.72253e-06
6.1489e-06
9.30946e-06
1.3207e-05
1.78511e-05
2.31096e-05
2.88505e-05
3.53814e-05
4.28376e-05
5.12669e-05
6.07386e-05
7.13617e-05
8.32377e-05
9.66634e-05
0.000111817
0.000128842
0.000147821
0.000168791
0.000191881
0.000217308
0.000245374
0.000276104
0.000309352
0.000344991
0.00038291
0.000423016
0.000464661
0.000506746
0.000547807
0.000585903
0.000618093
0.000639907
0.000645374
0.000629829
0.000598471
0.000572605
0.000536707
0.000418315
0.000264628
0.000107598
2.30582e-05
3.13918e-06
3.40782e-07
5.2688e-08
3.03858e-08
2.94164e-08
2.96793e-08
2.98985e-08
3.11734e-08
3.35418e-08
3.42147e-08
3.04233e-08
2.92982e-08
2.97615e-08
3.03963e-08
3.11719e-08
3.21497e-08
3.34321e-08
3.51786e-08
3.75771e-08
3.80136e-10
1.24076e-09
1.53676e-08
9.27906e-08
3.41837e-07
9.22494e-07
2.00786e-06
3.73449e-06
6.1735e-06
9.34261e-06
1.32413e-05
1.78682e-05
2.31133e-05
2.88351e-05
3.53573e-05
4.28162e-05
5.13044e-05
6.08686e-05
7.15802e-05
8.35545e-05
9.69103e-05
0.000111969
0.000128926
0.000147926
0.000169024
0.000192267
0.000217748
0.000245711
0.000276436
0.000309886
0.000345868
0.000384148
0.000424512
0.000466746
0.000509949
0.000552728
0.000593181
0.000628691
0.000655385
0.000667702
0.000659808
0.000631808
0.000600563
0.000577464
0.000482852
0.000337393
0.000170193
4.72739e-05
7.60554e-06
8.9587e-07
1.04831e-07
3.39041e-08
2.93574e-08
2.94626e-08
2.96944e-08
3.00874e-08
3.19303e-08
3.3685e-08
3.23705e-08
2.93013e-08
2.92376e-08
2.97607e-08
3.03967e-08
3.11724e-08
3.215e-08
3.34323e-08
3.51788e-08
3.75772e-08
3.77394e-10
1.23052e-09
1.52486e-08
9.22133e-08
3.40321e-07
9.20615e-07
2.00812e-06
3.74099e-06
6.19273e-06
9.37853e-06
1.32874e-05
1.79153e-05
2.31422e-05
2.88434e-05
3.5346e-05
4.27912e-05
5.12864e-05
6.09177e-05
7.17384e-05
8.38174e-05
9.72819e-05
0.000112264
0.000129117
0.000148043
0.000169177
0.000192566
0.000218233
0.000246267
0.000276899
0.000310372
0.000346628
0.000385341
0.000426185
0.000468828
0.000512857
0.000557082
0.000599721
0.000638265
0.000669257
0.000687665
0.000687356
0.000665244
0.00063101
0.000606122
0.000543735
0.00040859
0.000241541
8.71755e-05
1.70635e-05
2.26238e-06
2.51141e-07
4.57478e-08
2.98519e-08
2.92187e-08
2.94843e-08
2.98132e-08
3.05691e-08
3.27573e-08
3.32456e-08
3.05987e-08
2.88792e-08
2.92267e-08
2.9761e-08
3.03973e-08
3.11728e-08
3.21503e-08
3.34325e-08
3.51789e-08
3.75773e-08
3.74809e-10
1.22065e-09
1.51277e-08
9.1561e-08
3.38413e-07
9.17033e-07
2.00482e-06
3.74211e-06
6.20347e-06
9.40655e-06
1.33366e-05
1.79765e-05
2.32053e-05
2.88847e-05
3.5363e-05
4.27822e-05
5.12623e-05
6.09005e-05
7.18013e-05
8.40082e-05
9.7598e-05
0.000112701
0.000129471
0.000148275
0.000169338
0.000192771
0.000218619
0.000246863
0.000277599
0.000311009
0.000347323
0.000386396
0.00042778
0.000471063
0.000515686