/*--------------------------------*- C++ -*----------------------------------*\
| =========                 |                                                 |
| \\      /  F ield         | OpenFOAM: The Open Source CFD Toolbox           |
|  \\    /   O peration     | Version:  v2012                                 |
|   \\  /    A nd           | Website:  www.openfoam.com                      |
|    \\/     M anipulation  |                                                 |
\*---------------------------------------------------------------------------*/
FoamFile
{
    version     2.0;
    format      ascii;
    class       volScalarField;
    location    "2000";
    object      k;
}
// * * * * * * * * * * * * * * * * * * * * * * * * * * * * * * * * * * * * * //

dimensions      [0 2 -2 0 0 0 0];


internalField   nonuniform List<scalar> 
39402
(
2288.98
92.6224
490.931
33.1782
17.1632
173.49
29.1208
5.57345
7.64397
80.0808
32.7309
10.0801
2.14423
5.68961
47.0828
35.6996
16.7094
35.5531
1.68112
5.54164
34.4688
37.6233
21.0989
73.109
112.24
2.25409
5.95084
29.0669
38.7447
23.8538
96.8853
232.904
263.417
3.543
6.44321
26.3535
39.2364
25.3729
111.522
307.827
543.02
507.363
5.43197
6.79815
24.6988
39.4256
26.2422
119.442
353.339
713.514
1034.89
848.825
7.77962
6.93202
23.4931
39.1904
26.6037
123.995
377.739
815.801
1350.27
1707.32
1274.24
10.3453
6.853
22.4982
38.7469
26.5012
125.806
391.465
870.267
1536.88
2209.51
2520.78
1754.01
12.89
6.62012
21.6166
38.2547
26.2253
125.263
396.682
900.28
1635.83
2502.26
3233.94
3410.06
2250.79
15.3157
6.30439
20.8086
37.7212
25.9202
123.906
394.646
911.264
1689.29
2657.11
3643.51
4338.61
4306.61
2744.89
17.5378
5.93909
20.0549
37.1453
25.5391
122.428
390.17
906.131
1708.38
2739.31
3860.07
4864.48
5440.36
5162.74
3221.45
19.5349
5.55032
19.3434
36.5883
25.1239
120.525
385.286
895.661
1698.58
2768.48
3973.45
5142.93
6075.05
6477.43
5955.52
3666.35
21.2434
5.17543
18.6681
36.0325
24.7248
118.47
379.111
884.262
1679.4
2753.34
4013.79
5287.33
6411.87
7211.17
7427.57
6662.33
4065.78
22.0017
4.85176
18.024
35.4655
24.3141
116.495
372.481
870.003
1658.34
2724.2
3994.36
5339.49
6585.62
7601.09
8245.93
8268.58
7263.42
4402.58
21.3039
4.59934
17.4079
34.8983
23.88
114.453
366.099
854.715
1632.2
2691.77
3956.19
5317.95
6649.65
7802.05
8681.21
9161.43
8982.81
7740.08
4642.69
19.0357
4.42718
16.8048
34.3621
23.4577
112.285
359.518
839.996
1604.24
2651.57
3912.79
5273.44
6628.91
7877.8
8905.45
9637.12
9943.27
9556.62
8073.63
4701.43
15.4124
4.33262
16.211
33.8509
23.0676
110.19
352.559
824.832
1577.19
2608.55
3859.07
5221.54
6581.54
7860.33
8991.6
9882.35
10456.2
10581.9
9978.99
8238.76
4541.77
11.2892
4.28872
15.6276
33.3476
22.6938
108.272
345.841
808.854
1549.34
2566.74
3801.27
5156.9
6524.42
7813.28
8978.56
9979.08
10721.3
11131.1
11071.2
10238.5
8202.06
4172.83
7.60795
4.15424
15.0913
32.8459
22.3188
106.425
339.676
793.426
1520.05
2523.6
3744.81
5087.07
6452.68
7754.2
8933.44
9972.35
10829.5
11416.6
11658.8
11406.5
10326.2
7959.52
3614.86
4.86998
4.00563
14.6439
32.3658
21.9472
104.571
333.741
779.234
1491.76
2478.34
3686.37
5018.33
6374.64
7678.98
8874.31
9931.52
10831.1
11537.6
11966.7
12038.1
11584.8
10231.2
7501.91
2914.19
3.18936
3.86324
14.3435
31.9039
21.5959
102.738
327.794
765.561
1465.64
2434.51
3625.13
4946.94
6297.23
7596.64
8797.91
9874.95
10797
11550
12103
12373
12269.9
11600.3
9941.46
6834.25
2146.43
2.27327
3.72021
14.217
31.4501
21.26
101.015
321.934
751.886
1440.44
2393.89
3565.69
4872.11
6216.5
7514.35
8714.32
9800.23
10745.6
11524.9
12128.8
12528.1
12638.6
12353.5
11445
9451.45
5987.94
1408.01
1.81291
3.57437
14.2287
31.0027
20.926
99.3687
316.424
738.434
1415.26
2354.6
3510.34
4799.36
6131.86
7428.12
8630.57
9717.84
10675.3
11481.2
12115.1
12570.5
12817.3
12766.1
12286.5
11112.4
8758.22
5002.5
797.977
1.5736
3.43822
14.3001
30.5676
20.596
97.7405
311.169
725.772
1390.49
2315.33
3456.61
4731.3
6049.46
7337.65
8542.16
9634.69
10596.9
11418
12081.6
12570.9
12880.1
12975.4
12757.2
12066
10595.8
7867.49
3917.36
380.987
1.44624
3.31762
14.4229
30.1503
20.2792
96.1352
305.993
713.717
1367.17
2276.73
3402.87
4664.97
5971.9
7249.4
8449.29
9546.31
10516.9
11346.1
12028
12550
12897.6
13063.7
13006.7
12612.8
11688.3
9887.61
6808.21
2816.75
154.359
1.37256
3.22017
14.5733
29.7443
19.9736
94.605
300.905
701.862
1344.94
2240.24
3350.02
4598.5
5896.02
7165.97
8358.55
9453.15
10431.2
11272
11965.1
12508.4
12892
13101.8
13126.8
12914.5
12332.4
11146.6
8990.99
5640.91
1805.82
55.7038
1.326
3.14063
14.7759
29.3501
19.6728
93.1308
296.068
690.239
1323.11
2205.49
3299.93
4533.11
5819.91
7084.04
8272.46
9362.09
10340.5
11191.4
11899
12456.8
12864.8
13114.2
13190
13074.7
12701.5
11913.3
10435.9
7922.72
4434.81
999.18
19.1215
1.29701
3.11116
15.0061
28.9754
19.3822
91.6837
291.422
679.191
1301.73
2171.32
3252.11
4470.91
5744.89
7001.56
8187.47
9275.29
10251.6
11105.5
11825.9
12401
12826.6
13103.9
13223.9
13168.5
12911.9
12368.1
11350.9
9554.01
6720.21
3227.89
468.262
6.67823
1.27677
3.1012
15.2489
28.6093
19.1078
90.2918
286.878
668.62
1281.43
2137.88
3205.05
4411.38
5673.36
6920.27
8101.74
9189.26
10166.6
11021.3
11747.2
12337.4
12783
13081.3
13233
13227.8
13043.1
12641.3
11912.7
10639.8
8507.8
5449.87
2108.41
189.006
2.60305
1.25699
3.08648
15.4731
28.2463
18.8374
88.9889
282.527
658.299
1261.99
2106.08
3158.99
4352.72
5604.72
6842.51
8017.13
9102.21
10081.9
10940.3
11669.7
12267.8
12731
13051.9
13228.2
13259.4
13132.4
12818.2
12263.7
11331.2
9775.62
7321.85
4196.76
1191.04
68.7547
1.28307
1.23645
3.06649
15.6592
27.8872
18.5653
87.7082
278.456
648.44
1243.05
2075.62
3115.07
4295.26
5536.93
6767.7
7935.95
9016.23
9995.85
10859.1
11594.8
12199
12672.3
13013.2
13215
13274.9
13190.1
12943.3
12496.8
11777.7
10617.9
8759.92
6049.4
2985.84
568.465
23.5487
0.853762
1.21615
3.04498
15.8073
27.5507
18.298
86.4236
274.491
639.233
1224.97
2045.93
3072.98
4240.39
5470.46
6693.63
7857.6
8933.48
9910.75
10776.4
11519.3
12132.1
12613.8
12967.1
13191.4
13279.9
13228.5
13031.2
12664.7
12079.6
11179.6
9767.18
7606.94
4771.96
1893.91
232.088
7.8609
0.710608
1.19871
3.02539
15.9377
27.2496
18.0558
85.1715
270.529
630.3
1208.1
2017.6
3031.86
4187.61
5406.83
6620.98
7779.85
8853.37
9828.65
10694.3
11441.7
12063.9
12556.5
12920.4
13159.5
13273.3
13254
13095.7
12787.7
12299.1
11565.4
10463.7
8777.56
6355.44
3546.22
1034.22
84.4527
2.69717
0.659303
1.18469
3.01086
16.0228
26.9574
17.8409
84.0534
266.688
621.408
1191.76
1991.12
2992.62
4135.94
5345.44
6551.26
7703.54
8773.73
9748.85
10614.9
11364.6
11993.3
12497.4
12874.2
13126.1
13257.1
13266.2
13144.1
12881.9
12463.4
11847.1
10950.5
9624.11
7658.22
5080.46
2404.79
480.813
28.3441
1.07388
0.637673
1.17323
3.016
16.0575
26.6671
17.6281
83.0688
263.274
612.828
1175.56
1965.51
2955.82
4086.56
5285.13
6483.64
7630.1
8695.42
9669.33
10537.4
11289.7
11922.7
12435.2
12825.5
13092.3
13238.2
13267.3
13177
12956.1
12591.8
12060.3
11307.5
10229.6
8658.27
6440.75
3867.02
1434.02
195.081
9.01894
0.584827
0.627234
1.17055
3.05039
16.0723
26.3777
17.4096
82.0977
260.287
605.221
1159.97
1940.18
2920.26
4040.11
5227.46
6417.09
7558.67
8619.9
9591.1
10459.9
11216.3
11854
12372.6
12773.1
13055.2
13218.1
13264.4
13197.2
13012.1
12694.9
12228.3
11578.8
10676.6
9396.77
7573.09
5196.87
2725.42
733.039
71.7487
2.8415
0.442227
0.623291
1.17488
3.09437
16.0788
26.106
17.1956
81.097
257.356
598.589
1146.16
1915.83
2885.07
3995.15
5172.93
6353.28
7488.15
8546.53
9515.44
10383.6
11142.6
11786.3
12311.5
12719.9
13013.9
13193.8
13259.1
13211.6
13053.2
12776.7
12364.5
11793
11017.2
9949.03
8448.83
6394.47
4002.72
1715.79
323.398
24.5578
0.981072
0.401403
0.621769
1.17969
3.13614
16.079
25.8661
17.0017
80.1265
254.352
592.115
1134.14
1894.26
2851.36
3950.7
5120.04
6292.65
7420.36
8474.02
9441.69
10309.6
11069.8
11717.8
12250.7
12667.5
12971
13164.6
13248.7
13222.3
13086.5
12840.8
12475
11967.1
11285.9
10371.9
9118.94
7390.8
5187.14
2881.29
934.612
127.556
7.94832
0.453973
0.389737
0.621137
1.18418
3.17259
16.0782
25.6402
16.8341
79.2645
251.454
585.513
1122.44
1875.48
2821.41
3908.15
5067.77
6233.78
7355.66
8404.1
9368.51
10237.2
10999.1
11650.2
12188.9
12614.9
12928.4
13133.2
13232.6
13227
13114.4
12894.6
12564.5
12110.1
11503.9
10705
9637.46
8182.72
6246.18
4022.6
1874.44
438.546
46.123
2.50709
0.312471
0.386913
0.620516
1.18694
3.20309
16.0766
25.4157
16.6736
78.5333
248.903
579.17
1110.57
1857.22
2795.23
3870.23
5017.76
6175.48
7292.7
8337.11
9297.76
10164.9
10929.5
11584.1
12127.5
12560.9
12885.1
13101.4
13213.6
13225
13135.2
12941.3
12641
12228
11683.8
10974.2
10046.4
8807.9
7144.64
5075.69
2931.07
1064.95
182.631
15.4559
0.841952
0.276408
0.386731
0.620308
1.19013
3.22528
16.0742
25.1808
16.5046
77.8354
246.765
573.624
1099.2
1838.76
2769.78
3836.87
4973
6119.79
7230.28
8271.65
9229.68
10094.9
10859.6
11518.6
12067.4
12506.9
12839.9
13068.2
13193.4
13219.2
13148.3
12979.3
12707.8
12329.2
11833.5
11196.6
10375.8
9304.53
7879.57
6029.16
3946.45
1944.88
522.432
69.1874
4.87115
0.364936
0.267625
0.387044
0.623272
1.19544
3.23964
16.0727
24.9504
16.3274
77.0854
244.735
569.017
1089.31
1821.16
2744.18
3804.45
4933.38
6069.71
7170.6
8206.7
9162.88
10027.1
10791.7
11452.5
12007.3
12453.7
12794.1
13032.6
13171.2
13211.4
13156.6
13008.5
12764.4
12418.1
11962.3
11382.3
10647.3
9704.45
8473.49
6856.86
4894.77
2890.5
1135.74
226.982
24.0551
1.50368
0.237226
0.265909
0.387298
0.626513
1.20414
3.24666
16.0709
24.7348
16.1568
76.3052
242.562
564.66
1081.14
1805.88
2719.82
3771.93
4894.75
6024.99
7116.7
8144.57
9096.48
9960.33
10725.6
11387.9
11946.1
12399.9
12748.8
12996
13145.9
13200.8
13162
13031.8
12810.8
12494.7
12075.3
11541.8
10874.2
10033.4
8954.55
7549.91
5767.44
3803.66
1935.17
575.603
89.6283
7.76721
0.512773
0.205404
0.265981
0.388431
0.629837
1.2147
3.24677
16.0687
24.5591
16.0056
75.5591
240.298
560.014
1073.45
1793.27
2698.69
3741.06
4856.17
5981.28
7068.23
8088.2
9032.98
9893.78
10660.2
11324.8
11885.9
12344.7
12702.4
12959.3
13119.1
13186.6
13163.7
13051.2
12850
12559.7
12173.7
11681.6
11068.5
10307.8
9350.41
8120.23
6539.05
4668.57
2785.74
1144.86
258.53
32.3713
2.39049
0.241539
0.197888
0.266641
0.389617
0.632122
1.22599
3.2451
16.0664
24.4173
15.8878
74.9154
238.146
555.18
1065.25
1781.41
2681.23
3714.28
4819.62
5937.73
7020.59
8037.13
8975.13
9830.15
10594.7
11261.8
11826.8
12289.9
12653.9
12920.9
13091.8
13170.3
13161.2
13065.9
12884.2
12615.8
12258.5
11803.7
11238
10541.6
9679.9
8592.52
7198.79
5473.3
3617.03
1866.74
589.56
105.302
10.8022
0.748729
0.172677
0.196553
0.267668
0.391088
0.633939
1.23281
3.24388
16.0636
24.2945
15.8059
74.4357
236.314
550.611
1056.76
1768.84
2664.73
3691.95
4787.78
5896.54
6973.25
7986.68
8922.3
9772
10532.1
11198.6
11767.3
12235.7
12605.3
12879.9
13062.1
13152.9
13156
13075.7
12912.6
12665.6
12332.9
11910.1
11386.4
10744.7
9959.29
8985.78
7754.1
6197.13
4409.39
2638.64
1107.43
269.236
38.9983
3.38937
0.283544
0.156541
0.196707
0.268707
0.393578
0.63665
1.23489
3.24302
16.0606
24.1613
15.7202
74.1353
234.994
546.767
1048.76
1755.84
2647.36
3670.8
4761
5860.56
6928.54
7936.62
8869.88
9718.46
10474.7
11138
11707.3
12180.7
12556.9
12838.3
13029.2
13132.5
13149
13082.1
12935.4
12708.6
12399.4
12004.1
11516.3
10922.2
10200.4
9317.87
8219.4
6833.61
5153.39
3398.08
1759.31
573.095
111.409
13.2176
1.04153
0.161011
0.15315
0.197271
0.270009
0.396476
0.641064
1.23388
3.24258
16.0576
24.0161
15.6242
73.7961
234.217
544.066
1042.09
1743.67
2629.49
3648.65
4735.5
5829.94
6889.32
7889.45
8817.85
9665.01
10421.5
11082.4
11649.8
12124.7
12507
12796.2
12995.2
13108.4
13138.4
13086.1
12954
12745.1
12457.8
12088.4
11631.6
11078
10410.7
9602.81
8612.25
7375.34
5840.27
4123.88
2459.8
1038.31
263.728
41.7428
4.1699
0.350905
0.131002
0.152524
0.1981
0.271598
0.398643
0.644736
1.23174
3.24252
16.0553
23.8425
15.5061
73.4031
233.32
542.562
1037.51
1733.56
2612.82
3626.02
4708.96
5800.61
6855.56
7847.83
8768.93
9611.94
10368
11030.4
11596.8
12071
12455.9
12752.3
12960.2
13082.4
13123.5
13085.8
12969.4
12776.4
12508.6
12163.2
11735
11216.4
10595.3
9850.29
8947.86
7836.28
6453.03
4818.34
3153.59
1622.48
535.88
109.953
14.2569
1.26126
0.16265
0.124211
0.152716
0.19922
0.273338
0.400057
0.646186
1.23011
3.24244
16.053
23.6619
15.3667
72.8902
232.255
540.792
1035.06
1726.71
2598.99
3605
4682
5770.17
6823.03
7811.64
8725.57
9562.08
10314.7
10977.7
11546.8
12021.5
12406.8
12706.7
12922.7
13054.9
13106.1
13080.5
12979.8
12803.7
12553.3
12229.3
11827.3
11340.6
10759.2
10067.2
9238.07
8230.1
6985.15
5470.28
3823.79
2256.6
945.724
246.695
41.4415
4.51279
0.399355
0.115162
0.122934
0.153347
0.200458
0.275612
0.401717
0.644841
1.22933
3.24222
16.0514
23.4787
15.227
72.276
230.82
538.654
1032.13
1723.09
2589.65
3587.44
4657.02
5739.53
6789.31
7776.47
8687.44
9517.72
10264.8
10925.1
11495.8
11974.4
12361.4
12662.7
12883.2
13024.5
13086.6
13072
12984.6
12825.3
12593.1
12288.1
11909.6
11451.8
10906
10259.3
9491.71
8569.62
7443.57
6060.77
4475.13
2894.86
1463.86
483.043
102.823
14.2082
1.3593
0.163042
0.104196
0.123017
0.153969
0.201899
0.27776
0.402919
0.642489
1.22916
3.24211
16.05
23.3124
15.091
71.6641
229.069
535.697
1028.53
1718.71
2584.54
3575.51
4636.05
5711.19
6755.62
7740.14
8650.15
9478.35
10220.2
10875.8
11444.7
11925.7
12317.7
12622.1
12844.9
12991.6
13063.7
13061
12985.6
12840.6
12626.3
12340.9
11983.3
11551.4
11037.6
10431.1
9715.55
8865.43
7839.25
6584.78
5090.44
3517.93
2040.16
837.024
220.697
38.6145
4.50596
0.419071
0.10313
0.102043
0.123237
0.155057
0.203579
0.279042
0.403281
0.640672
1.22914
3.24214
16.0485
23.1726
14.9739
71.0738
227.322
532.02
1023.48
1713.33
2578.45
3568.62
4621.53
5687.22
6724.55
7703.98
8611.72
9439.58
10180.2
10831.7
11396.6
11876.7
12272.2
12582.6
12809.5
12959.4
13037.9
13046
12983.4
12851.4
12652.5
12386.2
12049.9
11641
11155.9
10585
9914.93
9125.35
8183.49
7041.17
5658.89
4123.97
2626.81
1295.37
420.138
91.231
13.1514
1.35451
0.159452
0.0892268
0.101774
0.123753
0.156228
0.205278
0.279888
0.401365
0.639754
1.22923
3.24231
16.0486
23.0716
14.8822
70.5801
225.639
528.349
1017.12
1705.74
2570.97
3560.46
4612.51
5670.24
6698.06
7670.72
8573.57
9399.6
10140.6
10791.8
11353.7
11830.6
12225.9
12540.8
12774.8
12929.8
13012.2
13027.6
12976.7
12858.4
12673.5
12423.9
12108
11722.2
11262.5
10723.5
10093.4
9355.81
8484.82
7439.91
6173.28
4702.49
3204.42
1814.23
722.639
189.511
33.7668
4.13427
0.410925
0.093165
0.0863262
0.101964
0.12442
0.157606
0.207113
0.280029
0.398998
0.639503
1.22939
3.24252
16.0488
23.0001
14.8264
70.2054
224.253
524.825
1010.78
1696.16
2560.6
3550.67
4602.04
5658.91
6678.85
7642.2
8538.54
9360
10099.6
10751.9
11314.5
11789.5
12182.4
12497.8
12737.3
12900.3
12988.8
13009
12966.1
12860.3
12690.1
12455.6
12157.7
11793.7
11359.2
10848.5
10254.1
9561.64
8750.71
7788.68
6629.41
5249.25
3765.85
2351.22
1121.55
355.362
77.0671
11.3229
1.22885
0.150116
0.0775823
0.0859579
0.102203
0.125269
0.159074
0.208114
0.279466
0.397311
0.639543
1.22951
3.24272
16.0491
22.9513
14.7909
70.0087
223.218
521.945
1004.71
1686.67
2547.59
3537.41
4589.74
5645.93
6665.12
7620.97
8508.36
9323.71
10059.2
10710.6
11275
11751.7
12143.6
12457.3
12698.2
12867.6
12964.9
12992
12954.7
12857.9
12701.1
12482.1
12200.4
11855.9
11444.9
10961.7
10399
9746.79
8987.4
8095.26
7030.94
5752.47
4311.88
2885.11
1582.8
607.719
157.768
27.996
3.50657
0.367944
0.0835803
0.0743598
0.0860388
0.102644
0.126312
0.160551
0.20864
0.277139
0.396589
0.639661
1.22968
3.24307
16.0503
22.9081
14.7686
69.9027
222.727
519.844
999.784
1677.55
2534.79
3521.11
4573.63
5630.96
6649.56
7604.93
8485.36
9292.34
10022.1
10669.8
11233.8
11713
12107.6
12421.3
12661.2
12832.7
12937.4
12974.2
12944.6
12854.2
12707.3
12502.5
12237.4
11910.3
11520.4
11062.6
10530
9913.39
9199.77
8367.17
7383.73
6207.67
4834.23
3407.36
2071.75
946.732
292.23
62.7258
9.22924
1.02878
0.132694
0.0680406
0.0738585
0.0863478
0.103118
0.127504
0.161935
0.208102
0.274985
0.396441
0.639822
1.22994
3.2435
16.0524
22.8588
14.7422
69.8491
222.504
518.929
996.251
1670.24
2522.55
3505.2
4554.32
5612.14
6631.97
7586.83
8467.16
9267.97
9990.02
10632.5
11193.3
11672.6
12070.5
12387.8
12628.4
12799.8
12907.4
12952.3
12933.1
12851.2
12711.4
12517.6
12267.6
11958.2
11587
11152.1
10647.1
10063.8
9390.38
8610.28
7696.04
6610.32
5324.19
3921.2
2565.02
1351.22
496.29
126.88
22.2593
2.81548
0.306567
0.0734359
0.064782
0.0739725
0.0865409
0.103977
0.128724
0.162519
0.206733
0.273714
0.396505
0.639998
1.23021
3.244
16.0548
22.7973
14.706
69.7648
222.438
518.601
994.82
1664.99
2512.72
3490
4535.69
5590.2
6610.61
7566.75
8446.72
9247.85
9964.69
10600.2
11156.3
11632.8
12031.3
12352.7
12597.7
12770.6
12878.7
12927.4
12917.2
12846.4
12715.8
12530
12292
11998.7
11646.3
11231.7
10751.6
10198.3
9561.93
8827.75
7974.29
6968.07
5772.99
4416.46
3053.22
1793.43
777.408
232.487
48.9517
7.18213
0.816745
0.112094
0.0597445
0.0642826
0.0741337
0.0870097
0.104891
0.129993
0.162663
0.204386
0.273325
0.396632
0.640202
1.23054
3.2448
16.0582
22.7253
14.6577
69.6221
222.259
518.615
994.433
1663
2505.67
3477.83
4517.99
5569.34
6586.42
7543.07
8424.28
9225.29
9943.02
10574.3
11124
11596.4
11992.7
12315.2
12565.2
12743.1
12853.5
12903.5
12897.9
12836.8
12718
12542.1
12313
12032.7
11697.6
11303
10845
10318.9
9715.45
9022.77
8222.18
7286.39
6178.58
4888.85
3531.92
2247.94
1126.32
393.14
97.864
16.8627
2.14717
0.243645
0.063718
0.0569312
0.0643111
0.0744011
0.0875458
0.106051
0.130994
0.161427
0.20273
0.273311
0.396783
0.640429
1.23092
3.24566
16.0613
22.6346
14.596
69.4139
221.894
518.344
994.634
1662.5
2502.96
3468.97
4503.72
5549.58
6563.74
7516.94
8398.45
9200.69
9918.61
10551.5
11098
11564.8
11957.4
12278.2
12529.8
12713.6
12829.7
12882.6
12879
12823.4
12715.1
12551.5
12333.1
12062.7
11741.8
11365.6
10929
10427.1
9853.4
9197.15
8443.6
7569.04
6540.86
5329.89
4000.88
2702.63
1519.85
620.567
178.513
36.4015
5.29027
0.613685
0.0919338
0.0527078
0.0565107
0.064506
0.0746576
0.0882762
0.107075
0.131186
0.159662
0.202042
0.273407
0.396959
0.640673
1.23137
3.24664
16.0663
22.5338
14.5188
69.1334
221.312
517.648
994.284
1662.93
2502.21
3465.35
4493.13
5533.52
6542.37
7492.79
8370.65
9172.91
9892.11
10525.6
11074.5
11539.1
11926.9
12244.4
12494.8
12680.9
12803.6
12862.8
12862.8
12809.8
12707.9
12555.7
12350
12091.1
11781.2
11420.6
11003.7
10524.7
9977.54
9354.11
8641.26
7820.61
6862.84
5735.52
4452.41
3149.47
1935.27
913.609
302.33
72.2197
12.1162
1.5427
0.184256
0.0549542
0.0504905
0.0566043
0.0646745
0.0748873
0.0891051
0.108202
0.130961
0.157732
0.201935
0.273541
0.39714
0.64095
1.23185
3.24783
16.0718
22.4229
14.4345
68.7713
220.501
516.446
993.154
1662.42
2502.64
3464.01
4488.39
5521.35
6524.83
7470.23
8345.24
9143.72
9862.6
10497.5
11047.6
11515.3
11901.9
12215.4
12463
12648.3
12773.8
12840.3
12847.2
12798.5
12699.9
12554.9
12361.4
12115.9
11818.3
11469.9
11069.9
10612.1
10089.8
9495.6
8819.3
8044.69
7148.93
6099.33
4883.25
3589.06
2354.12
1256.57
480.833
132.291
25.7921
3.6865
0.434519
0.073535
0.0467159
0.0502137
0.0567558
0.0648152
0.0754176
0.0901075
0.108642
0.128994
0.156794
0.202008
0.273684
0.397353
0.641252
1.23237
3.24928
16.0777
22.3114
14.3439
68.3756
219.425
514.72
991.078
1660.69
2501.71
3464.03
4486.04
5515.31
6511.29
7451.56
8321.75
9117.4
9832.29
10466.5
11018.2
11487.7
11878.3
12191.5
12435.7
12618.6
12743.9
12814
12828.8
12787.4
12693.7
12552.9
12367.4
12134.9
11851.2
11516
11129.7
10690.3
10190.8
9623.67
8979.89
8246.44
7403.28
6423.66
5280.81
4017.96
2769.92
1628.33
718.439
225.322
51.0762
8.28339
1.04831
0.133488
0.0472728
0.0451253
0.0502819
0.0569078
0.0650904
0.0761427
0.0908261
0.108027
0.127215
0.156582
0.202118
0.273838
0.397586
0.641611
1.23302
3.25097
16.0847
22.1969
14.2532
67.9455
218.239
512.381
988.048
1657.52
2499.23
3462.31
4485.14
5511.62
6503.87
7436.85
8302.23
9093.2
9805.34
10435.3
10986.1
11457.6
11850.5
12168.5
12413.3
12593.5
12716.8
12787.1
12806.2
12773.4
12687.5
12552.1
12371.7
12148
11878.1
11557.4
11185.3
10761.1
10281.8
9739.38
9125.28
8428.39
7632.05
6712.08
5642.91
4425.11
3178.75
2011.7
1007.52
360.545
94.2123
17.4531
2.44355
0.293348
0.0581989
0.0416151
0.0449248
0.0504059
0.0570877
0.0655716
0.0769144
0.0913767
0.107219
0.126062
0.156625
0.202242
0.274017
0.397827
0.641997
1.23377
3.25283
16.0925
22.0876
14.164
67.5167
216.944
509.786
983.876
1652.88
2494.72
3458.69
4482.16
5509.34
6498.64
7428.1
8286.59
9073.14
9780.78
10408
10954.4
11424.7
11819.9
12141
12391.4
12572.8
12694.1
12762.8
12782.7
12754.8
12678.1
12550.9
12376.5
12158.8
11898.7
11592.6
11235.7
10826.9
10364.4
9844.11
9256.93
8592.96
7838.21
6971.58
5966.76
4809.46
3578.02
2397.16
1332.69
545.219
161.697
34.5255
5.39541
0.67915
0.0946358
0.0409099
0.0405623
0.0449936
0.0505403
0.0573413
0.066025
0.0778171
0.0916919
0.105238
0.12576
0.156721
0.202384
0.274208
0.398099
0.64242
1.23456
3.25497
16.1009
21.9835
14.0799
67.0944
215.634
506.925
979.248
1646.45
2488.26
3452.7
4477.15
5504.72
6494.69
7421.32
8276.63
9056.86
9760.41
10383.4
10926.8
11392.6
11786.5
12110.4
12364.6
12552.4
12675.6
12742.8
12761.4
12735.1
12663.9
12546.4
12380.6
12169.5
11916.3
11621
11279.5
10886.7
10440.9
9939.35
9376.46
8742.09
8024.26
7205.34
6259.86
5164.08
3962.92
2776.31
1679.45
779.676
260.585
63.945
11.249
1.53959
0.191073
0.0465179
0.0373167
0.0404697
0.045115
0.0507217
0.0574708
0.0667872
0.0784925
0.090301
0.104102
0.125776
0.156833
0.202536
0.274414
0.398399
0.642904
1.23548
3.25731
16.1105
21.8897
14.002
66.6953
214.342
504.036
974.131
1639.32
2479.42
3444.4
4469.5
5498.05
6488.15
7415.55
8268.35
9045.86
9743.84
10363
10902.3
11365
11754.4
12076.9
12334.4
12526.8
12657.1
12726.7
12744.4
12717.1
12648.1
12536.8
12381.2
12179.2
11933.2
11645.7
11316.1
10939.4
10510.6
10027.3
9485.25
8877.72
8192.83
7415.68
6523.95
5491.35
4328.7
3145.18
2031.6
1056.24
398.389
110.898
22.1417
3.33348
0.419146
0.0669909
0.0358462
0.0367095
0.0405585
0.0452886
0.0508124
0.0579744
0.0674519
0.0783286
0.0889757
0.103725
0.125863
0.156959
0.202701
0.274641
0.39873
0.64345
1.23655
3.26004
16.1208
21.8044
13.9336
66.3247
213.114
501.172
968.921
1631.42
2469.63
3433.15
4459.35
5488.66
6479.62
7406.96
8260.76
9036.2
9732.01
10346.4
10882.2
11340.9
11727
12044.9
12301.1
12497.4
12633
12710.4
12730.9
12703.1
12633.6
12525.2
12376.6
12185.2
11948.6
11669.1
11348.3
10984.7
10572.9
10107.5
9585.4
9001.16
8346.15
7606.14
6761.96
5788.71
4676.43
3504.24
2381.33
1359.79
580.668
180.822
41.1721
6.86035
0.918115
0.121072
0.0380277
0.0337368
0.0366922
0.0407039
0.0453718
0.0510342
0.0585114
0.0680499
0.0779617
0.0877155
0.103728
0.125967
0.157091
0.202881
0.274891
0.399099
0.644058
1.23774
3.26317
16.1324
21.7322
13.8724
66.0011
211.98
498.419
963.74
1623.4
2458.82
3420.93
4446.01
5476.73
6468.47
7396.48
8250.17
9026.84
9721.16
10334
10865.9
11321.3
11703.4
12017.8
12269.5
12464.8
12604.9
12688.3
12717.1
12692.4
12623
12514.6
12369.4
12185.7
11960.2
11690.6
11378.5
11024.8
10627.2
10179.8
9676.8
9114.5
8485.62
7779.22
6977.45
6057.35
5000.08
3851.72
2722.53
1677.12
804.501
280.157
72.2678
13.4567
1.94594
0.247014
0.0482905
0.0318699
0.0334218
0.0367987
0.0407708
0.0454999
0.0513801
0.0592191
0.0683657
0.0762176
0.0873417
0.103806
0.126079
0.157239
0.203077
0.275158
0.399513
0.644717
1.23903
3.26642
16.1458
21.6672
13.8224
65.7141
210.969
495.872
958.77
1615.38
2447.87
3407.48
4431.71
5461.56
6454.85
7383.57
8237.79
9014.32
9710.18
10322.2
10853.2
11305.5
11684.5
11995
12243
12433.8
12573.2
12661.8
12697.4
12681.5
12615.4
12507.4
12362.8
12183.3
11966.1
11708
11406.3
11062.2
10675.7
10243.7
9759.79
9217.94
8613.32
7936.48
7173.02
6301.25
5298.66
4183.22
3055.19
1995.28
1060.88
414.178
119.895
25.1289
3.96978
0.519351
0.0761717
0.0320132
0.0307281
0.0334598
0.0368674
0.0408773
0.0456408
0.0518913
0.0597624
0.0672938
0.0751529
0.0873361
0.1039
0.126201
0.157401
0.203292
0.275463
0.399956
0.645469
1.24048
3.27006
16.1601
21.6125
13.7772
65.4693
210.071
493.616
954.126
1607.67
2436.9
3393.86
4416.06
5445.62
6438.15
7368.34
8223.13
9000.07
9695.84
10309.9
10840.9
11292.8
11669.4
11976.9
12221.1
12407.9
12543.1
12631.4
12672.8
12664.5
12607.5
12503
12359.4
12180.9
11968.8
11719.6
11429.8
11096.5
10720.6
10301
9833.84
9312.28
8729.74
8079.99
7350.33
6522.39
5572.71
4498.39
3379.17
2310.86
1336.97
585.316
188.22
44.5785
7.7563
1.08084
0.141219
0.0362943
0.0287247
0.030604
0.0335329
0.0369828
0.0409822
0.045938
0.0524296
0.0596844
0.0663209
0.0747674
0.0874108
0.104004
0.126334
0.157574
0.203526
0.275795
0.400449
0.646316
1.24208
3.27423
16.1752
21.5667
13.7425
65.2529
209.301
491.571
949.988
1600.43
2426.32
3380.22
4400.32
5428.33
6420.94
7350.34
8206.38
8983.82
9679.83
10293.9
10827.4
11280.2
11657.2
11962.8
12204
12387
12518
12602.4
12644.1
12642.3
12593.5
12498.5
12358.3
12181.3
11970.8
11727.5
11447.4
11126.4
10761.8
10353.9
9900.52
9397.11
8836.27
8210.62
7511.6
6722.6
5821.82
4793.96
3692.46
2618.46
1623.87
790.298
281.822
74.9521
14.4733
2.17729
0.28246
0.0493618
0.027803
0.0281755
0.0306483
0.0336462
0.0371
0.0412044
0.046343
0.0529237
0.0595221
0.0651848
0.0747685
0.0874992
0.104117
0.12648
0.157762
0.203781
0.276157
0.401004
0.647221
1.24389
3.2789
16.1918
21.5289
13.7134
65.087
208.619
489.81
946.248
1593.98
2416.36
3367.07
4384.58
5411.12
6402.55
7332.16
8187.2
8965.67
9662.13
10276.3
10810.1
11265.9
11644.5
11951.2
12191
12371
12498.3
12578.4
12616.4
12615.6
12574
12487.7
12357.2
12183.8
11975.3
11734.3
11460.8
11150.2
10798.4
10402.3
9961.87
9473.77
8932.62
8330.35
7658.04
6904.15
6047.73
5068.51
3992.51
2917.28
1910.46
1022.26
404.697
119.62
25.7648
4.21008
0.569768
0.0808325
0.0289433
0.0261979
0.0281363
0.0307391
0.0337327
0.0372621
0.0413758
0.0469343
0.053246
0.0580357
0.0648787
0.0748404
0.0875959
0.10424
0.126637
0.157969
0.204061
0.276557
0.40161
0.64824
1.24594
3.28389
16.2101
21.4972
13.6901
64.9445
208.081
488.242
942.983
1588.08
2407.44
3354.63
4369.45
5393.95
6384.36
7312.97
8168.2
8945.48
9642.69
10257.2
10791.1
11247.7
11629.8
11938.9
12180.2
12359.3
12483.5
12559.8
12593.6
12589.6
12549.5
12471.2
12349.9
12186.3
11981.5
11743
11472.6
11169.5
10828.7
10445.9
10018
9544.15
9019.93
8439.12
7792.31
7068.49
6252.44
5321.08
4279.24
3208.19
2193.06
1270.06
558.926
181.852
43.8212
7.80592
1.12277
0.148614
0.0342722
0.0248325
0.0259594
0.0282009
0.0308031
0.0338513
0.0372732
0.0418032
0.0473579
0.0523085
0.0571975
0.0648887
0.0749245
0.0877008
0.104373
0.126809
0.158196
0.204369
0.276991
0.402273
0.64938
1.24815
3.28941
16.2311
21.4709
13.6713
64.8289
207.614
486.988
940.072
1582.9
2399.22
3343.45
4355.05
5377.35
6366.3
7294.23
8148.47
8925.82
9621.65
10236.7
10770.8
11227.5
11610.9
11924.1
12168.7
12349.8
12473.2
12546.4
12576.4
12568.1
12525.5
12449.4
12336.7
12182.7
11987.7
11753.1
11485.7
11186.6
10854.2
10483.1
10068.9
9608.49
9100.01
8537.86
7914.65
7219.07
6437.2
5551.07
4549.09
3491.47
2469.42
1525.6
741.063
265.342
71.1129
13.9287
2.14039
0.284676
0.0479227
0.0244808
0.0241144
0.0259876
0.0282621
0.0309057
0.0338378
0.0375029
0.0421987
0.0472229
0.0514455
0.0569328
0.0649576
0.0750156
0.0878161
0.104519
0.126997
0.158443
0.204706
0.277472
0.403007
0.650622
1.25057
3.29549
16.2534
21.4504
13.6561
64.7321
207.226
485.886
937.701
1578.25
2391.94
3333.09
4342.06
5361.64
6348.94
7275.78
8129.4
8905.73
9601.47
10214.9
10749.2
11206.2
11590
11905
12154.2
12339.2
12465
12537.5
12564.4
12552.2
12505.5
12427.5
12317.9
12173
11988
11763.1
11499.8
11204.4
10876.9
10515
10113.3
9667.16
9173.06
8628.32
8025.93
7356.53
6606.38
5758.4
4798.94
3762.51
2738.78
1782.13
945.155
372.609
110.22
23.8583
3.95027
0.54489
0.0776377
0.0259818
0.0226359
0.0240559
0.0260515
0.0283633
0.030947
0.0340088
0.0378156
0.0425299
0.0469388
0.0506032
0.0569577
0.0650374
0.0751147
0.0879411
0.104677
0.127199
0.158713
0.205073
0.278002
0.403825
0.651993
1.25328
3.30221
16.2776
21.4391
13.6446
64.6516
206.894
484.955
935.606
1574.44
2385.42
3323.86
4329.93
5347.38
6332.39
7258.12
8110.8
8886.65
9581.22
10194.3
10726.9
11183.8
11568
11883.6
12135.2
12325.3
12455.6
12530.9
12557.1
12541.7
12491.1
12409.2
12298.5
12157.5
11982.2
11767.5
11513.8
11222.7
10899.6
10543.6
10152.1
9719.07
9239.95
8710.67
8127.44
7481.65
6761.01
5948.64
5028.37
4018.81
2998.85
2035.72
1163.8
505.133
163.347
39.1778
7.02276
1.02405
0.1375
0.0310242
0.0216526
0.0223666
0.0241008
0.0261412
0.0284341
0.03111
0.0342191
0.0382938
0.042788
0.0457227
0.0504433
0.0570254
0.0651252
0.0752236
0.0880763
0.10485
0.127423
0.159008
0.205476
0.278584
0.404718
0.653505
1.25622
3.30959
16.3045
21.4198
13.6456
64.5877
206.609
484.146
933.806
1571.03
2379.97
3315.47
4319.02
5333.96
6317.35
7241.2
8093.12
8868.17
9562.27
10174.1
10706.1
11161
11544.9
11861
12113.6
12306.8
12442.8
12523
12552
12535.9
12482
12396.4
12282.2
12140.9
11970.2
11765.7
11522.4
11240.7
10922.3
10571.6
10186.9
9765.08
9299.85
8786.34
8220
7595.52
6901.69
6122.86
5240.97
4260.44
3249.72
2283.54
1390.33
661.539
233.177
61.6418
12.0144
1.86445
0.25177
0.0427925
0.0214858
0.0209153
0.022368
0.0241724
0.0261991
0.0285573
0.0312136
0.0345791
0.0386989
0.0418905
0.0451642
0.0504812
0.0571024
0.0652201
0.0753416
0.0882234
0.105037
0.127666
0.159332
0.205921
0.27922
0.405695
0.655171
1.25948
3.31758
16.3338
21.4085
13.6258
64.5902
206.373
483.435
932.222
1568.06
2375.06
3308.46
4309.11
5321.78
6303.12
7225.76
8076.15
8850.71
9544.15
10155.4
10685.8
11139.9
11521.7
11837.4
12090.8
12285.4
12425.1
12511.4
12545.8
12532.7
12477.9
12388.9
12271
12126.7
11956.6
11757.6
11524.9
11253.7
10944.6
10599
10220.4
9806.55
9353.47
8854.69
8305.1
7699.25
7029.46
6281.2
5436.68
4488.32
3489.74
2521.42
1618.68
837.684
322.169
93.2405
19.8113
3.27635
0.458101
0.0668257
0.0227692
0.0197458
0.0208329
0.0224227
0.0242172
0.026288
0.0285682
0.0313487
0.034908
0.0383828
0.0410504
0.0450657
0.0505478
0.0571863
0.0653233
0.0754694
0.0883839
0.105241
0.127931
0.159684
0.206409
0.27992
0.406779
0.657004
1.26307
3.32634
16.3658
21.3535
13.619
64.4703
206.346
482.831
930.81
1565.42
2370.75
3302.05
4300.68
5310.7
6290.16
7211.12
8060.6
8834
9527.14
10137.8
10667.5
11119.9
11500.4
11814
12066.9
12262.6
12404.2
12494.9
12535.8
12528.3
12476.5
12386.4
12265.1