/*--------------------------------*- C++ -*----------------------------------*\
| =========                 |                                                 |
| \\      /  F ield         | OpenFOAM: The Open Source CFD Toolbox           |
|  \\    /   O peration     | Version:  v2012                                 |
|   \\  /    A nd           | Website:  www.openfoam.com                      |
|    \\/     M anipulation  |                                                 |
\*---------------------------------------------------------------------------*/
FoamFile
{
    version     2.0;
    format      ascii;
    class       volScalarField;
    location    "2000";
    object      Mg;
}
// * * * * * * * * * * * * * * * * * * * * * * * * * * * * * * * * * * * * * //

dimensions      [0 0 0 0 0 0 0];


internalField   nonuniform List<scalar> 
39402
(
0.0033547
0.000217845
0.0043301
6.68418e-05
0.000438545
0.00317608
4.40752e-05
0.000141279
0.000689616
0.00203554
5.14943e-05
0.000116928
0.000225132
0.000966317
0.0013539
6.0088e-05
0.000176243
0.000467287
0.000346793
0.00125943
0.000999737
6.55273e-05
0.000224131
0.000935022
0.00151453
0.00057672
0.00151059
0.000786577
6.89929e-05
0.000253042
0.00121628
0.00310714
0.00358614
0.00092917
0.0016793
0.000642258
7.06759e-05
0.00027095
0.00137818
0.0039865
0.00731569
0.00681771
0.00136301
0.00175558
0.000537032
7.09117e-05
0.000279854
0.00147591
0.00447802
0.00923231
0.013699
0.0110533
0.00181911
0.00175519
0.000455548
7.05106e-05
0.000281989
0.00152348
0.00476965
0.0102732
0.0169795
0.0217251
0.015893
0.00224249
0.00169978
0.000390453
6.95244e-05
0.000281032
0.00153464
0.00490772
0.0108796
0.0187056
0.0264295
0.0304122
0.020882
0.00260667
0.00161295
0.000336902
6.8141e-05
0.000277533
0.00152893
0.00493677
0.0111587
0.0196913
0.0288241
0.0363395
0.0388376
0.0256884
0.00291103
0.00151595
0.000293016
6.66687e-05
0.000272307
0.00151009
0.00491441
0.0112123
0.0201329
0.0301619
0.0392647
0.045627
0.0465607
0.0302331
0.003163
0.00140014
0.000255559
6.51343e-05
0.000266688
0.00148226
0.0048537
0.0111566
0.0202134
0.0307477
0.0408643
0.0489109
0.0538507
0.0535519
0.034556
0.00337585
0.00125738
0.000223988
6.34641e-05
0.000260689
0.00145228
0.00476601
0.0110225
0.0201119
0.0308559
0.041552
0.0506758
0.0573169
0.0611374
0.059816
0.0387852
0.00355733
0.00110358
0.000197068
6.18021e-05
0.000254006
0.00142019
0.00467198
0.0108331
0.0198874
0.0307091
0.041687
0.0514247
0.0591503
0.0646329
0.0675954
0.0653417
0.0430665
0.00368237
0.000953011
0.00017428
6.03068e-05
0.000247405
0.00138444
0.00457158
0.0106304
0.0195741
0.0304031
0.0415087
0.0515871
0.059915
0.0664513
0.0710662
0.0731618
0.0701668
0.0472474
0.00370901
0.000815116
0.000154717
5.88948e-05
0.000241459
0.0013492
0.00446029
0.0104135
0.0192385
0.0299796
0.0411497
0.051394
0.0600918
0.0671886
0.0728421
0.0766032
0.077929
0.0742288
0.0510994
0.00356067
0.000693624
0.000139459
5.74734e-05
0.000235789
0.00131729
0.00435053
0.0101745
0.018879
0.0295241
0.040654
0.0510126
0.0598835
0.0673547
0.0735475
0.0783367
0.0812944
0.0819134
0.077119
0.0544271
0.00319791
0.000594042
0.000124993
5.60783e-05
0.000230014
0.00128672
0.00425069
0.00993823
0.0184834
0.0290338
0.0401196
0.0504878
0.0594904
0.0671154
0.0736949
0.0790365
0.0829538
0.0852519
0.0851541
0.079258
0.0567875
0.00267039
0.000501343
0.000106725
5.47767e-05
0.000224348
0.00125563
0.00415491
0.00972207
0.0180914
0.0284962
0.0395401
0.0499185
0.058953
0.0666992
0.073433
0.0791586
0.0836521
0.0868299
0.0886029
0.0879822
0.0820537
0.0572747
0.00207771
0.000414872
8.66911e-05
5.35774e-05
0.000219083
0.00122512
0.00405761
0.00951414
0.0177298
0.0279611
0.0389075
0.0492963
0.0583699
0.0661389
0.0730039
0.0788987
0.083724
0.087485
0.0901068
0.0915533
0.0908673
0.085327
0.0552835
0.00153573
0.000346231
6.37234e-05
5.24488e-05
0.000214253
0.00119674
0.00396209
0.00930321
0.0173811
0.0274633
0.0382742
0.0486202
0.0577391
0.0655349
0.0724293
0.078476
0.0834759
0.0875037
0.0906572
0.0929272
0.0943155
0.093971
0.087076
0.0506589
0.00111754
0.000292347
4.35345e-05
5.13406e-05
0.000209655
0.00117064
0.00387311
0.00909592
0.017027
0.0269801
0.0376799
0.0479394
0.0570571
0.0649001
0.0718115
0.0779151
0.0830673
0.0872716
0.0906376
0.0933253
0.0954321
0.0970596
0.0967998
0.085921
0.0435285
0.000824848
0.000243679
3.51442e-05
5.02936e-05
0.000205157
0.00114579
0.00379113
0.00890211
0.0166788
0.0264905
0.0370996
0.0472958
0.0563689
0.0642178
0.0711552
0.0773093
0.0825274
0.0868811
0.0904088
0.0932487
0.0956165
0.0977593
0.0997705
0.0984919
0.0823082
0.0343544
0.000627489
0.000191689
3.25607e-05
4.93326e-05
0.000200916
0.00112146
0.00371288
0.00872321
0.0163518
0.026008
0.0365123
0.0466634
0.0557114
0.0635282
0.0704555
0.0766407
0.0819399
0.0863612
0.0900298
0.0930038
0.095439
0.09763
0.0999925
0.101911
0.0985642
0.0776264
0.0242315
0.000482629
0.000143748
2.93991e-05
4.84244e-05
0.000197019
0.00109859
0.00363651
0.0085519
0.0160486
0.0255532
0.0359326
0.0460241
0.055063
0.0628646
0.0697465
0.0759311
0.0812856
0.0858009
0.0895331
0.0926314
0.0951535
0.0972965
0.0994661
0.101901
0.103136
0.096918
0.0713902
0.0148481
0.000368761
0.000104478
2.58712e-05
4.75362e-05
0.000193325
0.00107756
0.00356468
0.00838521
0.0157583
0.0251289
0.0353836
0.0453937
0.0544092
0.0622075
0.0690593
0.075216
0.0805932
0.0851704
0.0890008
0.0921552
0.0947746
0.0969417
0.0989152
0.101045
0.103313
0.103521
0.092844
0.0621209
0.00780831
0.00027696
7.50967e-05
2.41081e-05
4.66935e-05
0.000189716
0.00105764
0.00349853
0.00822805
0.0154748
0.0247218
0.0348693
0.0447934
0.0537631
0.0615445
0.0683784
0.0745156
0.0798968
0.0845024
0.0883953
0.0916435
0.0943146
0.096538
0.0984499
0.100268
0.102312
0.104422
0.10271
0.0864607
0.0495324
0.00360572
0.000204832
5.77719e-05
2.52221e-05
4.58827e-05
0.000186311
0.00103824
0.00343593
0.00808315
0.0152076
0.0243244
0.0343737
0.0442288
0.0531467
0.0608923
0.0676934
0.0738176
0.0792096
0.08383
0.0877526
0.0910656
0.0938292
0.0960808
0.0979984
0.0996764
0.101364
0.103459
0.105078
0.100224
0.0790362
0.0347157
0.00154194
0.000152299
4.52951e-05
2.6878e-05
4.51024e-05
0.000183032
0.00101999
0.00337519
0.00794591
0.0149605
0.0239479
0.0338917
0.0436834
0.0525641
0.0602691
0.067023
0.0731189
0.0785197
0.083162
0.0871074
0.0904529
0.0932752
0.0956219
0.0975356
0.0991854
0.100655
0.102353
0.104439
0.10496
0.0955085
0.0703029
0.0204329
0.000658052
0.000113398
3.37825e-05
2.60806e-05
4.43622e-05
0.000179859
0.00100245
0.00331814
0.00781305
0.0147262
0.0235989
0.0334315
0.0431526
0.0520005
0.0596749
0.0663776
0.0724362
0.0778293
0.0824854
0.0864641
0.0898368
0.0926918
0.0950938
0.0970887
0.0987054
0.1001
0.101509
0.103247
0.105144
0.103485
0.0883738
0.0581851
0.00984298
0.00030836
8.20904e-05
2.74372e-05
2.35e-05
4.37162e-05
0.000176884
0.000985557
0.00326344
0.00768842
0.0144995
0.0232668
0.0330029
0.0426442
0.0514529
0.059102
0.0657631
0.0717779
0.0771547
0.0818096
0.0858059
0.0892184
0.092101
0.0945334
0.0965824
0.0982736
0.0996325
0.100866
0.102269
0.104069
0.105326
0.0999898
0.0799533
0.0421799
0.00399141
0.000171962
5.7104e-05
2.60862e-05
1.9717e-05
4.31349e-05
0.000174307
0.000969782
0.00321081
0.00756906
0.0142868
0.0229461
0.032595
0.0421686
0.050926
0.0585467
0.0651699
0.0711505
0.0765051
0.0811462
0.0851445
0.0885793
0.091508
0.0939731
0.0960458
0.0977881
0.0992137
0.100348
0.101534
0.102985
0.104766
0.104481
0.0938021
0.0704673
0.0251889
0.00148357
0.000113172
3.85554e-05
2.79618e-05
1.51806e-05
4.25409e-05
0.000171998
0.000956207
0.00316192
0.00745435
0.0140832
0.022645
0.0322018
0.0417162
0.0504319
0.0580195
0.0645975
0.0705426
0.0758816
0.0805092
0.0844975
0.0879329
0.0908903
0.093405
0.0955187
0.0972754
0.0987492
0.0999334
0.100929
0.102103
0.103659
0.10507
0.101927
0.0855609
0.0575513
0.0118519
0.000559105
8.15985e-05
2.63046e-05
2.93775e-05
9.67408e-06
4.19186e-05
0.000169609
0.000944099
0.00311995
0.00734799
0.0138875
0.0223565
0.0318312
0.0412796
0.0499589
0.0575235
0.0640656
0.0699579
0.0752786
0.0798975
0.0838768
0.0873039
0.0902588
0.0928084
0.0949812
0.0967778
0.0982666
0.099501
0.100511
0.101426
0.102627
0.104247
0.104605
0.0968427
0.0766109
0.0403635
0.00453252
0.000221851
6.22671e-05
1.40909e-05
3.35266e-05
5.50148e-06
4.13205e-05
0.000167092
0.000931589
0.00308268
0.00725673
0.0137063
0.022079
0.0314761
0.0408672
0.0495057
0.0570506
0.0635657
0.06941
0.0746976
0.0793025
0.0832742
0.0866958
0.0896482
0.0921994
0.0944048
0.0962715
0.0977958
0.0990513
0.100088
0.100966
0.101864
0.103156
0.104578
0.102642
0.0889203
0.0659168
0.0226803
0.00157046
9.37026e-05
5.08291e-05
6.78706e-06
4.02516e-05
3.29591e-06
4.08177e-05
0.000164708
0.000918436
0.0030443
0.00717602
0.0135505
0.0218223
0.0311343
0.0404722
0.0490755
0.0565955
0.0630898
0.0688942
0.0741388
0.0787273
0.0826858
0.086105
0.0890565
0.0916026
0.093812
0.0957219
0.0973227
0.0986067
0.0996487
0.100534
0.101318
0.102252
0.103633
0.104221
0.0982111
0.0798492
0.0509949
0.00982562
0.000516796
5.23496e-05
4.68681e-05
5.19479e-06
4.27482e-05
2.16854e-06
4.03935e-05
0.000162739
0.000906121
0.00300422
0.00709313
0.0134125
0.0216006
0.030818
0.0400909
0.0486638
0.0561629
0.062633
0.068399
0.0736114
0.0781752
0.0821239
0.0855284
0.0884779
0.0910263
0.0932349
0.0951477
0.0967985
0.0981616
0.0992306
0.100093
0.100854
0.101631
0.102647
0.103891
0.102539
0.0907074
0.070265
0.0326773
0.0033779
0.000168027
4.10812e-05
4.39892e-05
8.70059e-06
4.19121e-05
1.50018e-06
3.99662e-05
0.00016109
0.000896089
0.0029669
0.00700693
0.0132718
0.0214035
0.0305427
0.0397379
0.0482678
0.0557503
0.0622011
0.0679288
0.0731071
0.0776511
0.081579
0.0849772
0.0879125
0.0904625
0.0926736
0.0945909
0.0962454
0.0976693
0.098835
0.0997135
0.100432
0.101115
0.101911
0.102995
0.103586
0.0985283
0.0816834
0.0575828
0.0159927
0.00101635
6.11325e-05
3.83823e-05
3.36875e-05
1.38362e-05
3.7972e-05
1.08002e-06
3.95101e-05
0.000159399
0.000887783
0.00293674
0.00692712
0.0131262
0.0212041
0.0302978
0.0394282
0.0478964
0.0553523
0.0617876
0.0674843
0.0726282
0.0771505
0.0810606
0.0844388
0.087365
0.0899061
0.0921202
0.0940455
0.0957073
0.0971472
0.0983692
0.0993408
0.100079
0.100696
0.101323
0.102171
0.103166
0.102048
0.091429
0.0725453
0.0402433
0.00574763
0.000304325
2.61962e-05
4.50652e-05
2.42753e-05
1.72296e-05
3.1643e-05
7.59192e-07
3.9052e-05
0.000157585
0.000879262
0.00291198
0.00686303
0.0129915
0.0209989
0.0300506
0.0391515
0.0475701
0.0549797
0.0613851
0.0670551
0.0721713
0.0766789
0.0805683
0.0839293
0.0868404
0.0893691
0.0915742
0.0935068
0.0951853
0.0966263
0.0978672
0.0989243
0.0997341
0.100322
0.100854
0.101508
0.102426
0.102853
0.0982487
0.0825629
0.0611391
0.0218421
0.00165116
9.31124e-05
1.61112e-05
4.89464e-05
1.31801e-05
2.62035e-05
2.4099e-05
5.19543e-07
3.86461e-05
0.00015577
0.000870106
0.00288671
0.00681068
0.0128835
0.0208085
0.0297972
0.0388732
0.0472758
0.054647
0.0610125
0.0666438
0.0717324
0.0762253
0.0801013
0.0834426
0.0863405
0.0888533
0.0910509
0.0929715
0.0946613
0.0961234
0.0973815
0.0984487
0.0993401
0.100006
0.100477
0.100953
0.101698
0.102531
0.101322
0.0913635
0.0734863
0.0450272
0.00851296
0.000453157
2.83687e-05
1.7654e-05
5.01113e-05
1.04593e-06
3.61691e-05
1.67091e-05
3.42903e-07
3.83241e-05
0.000154203
0.000861025
0.00285964
0.0067576
0.0127957
0.020656
0.0295629
0.0385901
0.0469813
0.0543468
0.0606745
0.0662598
0.0713142
0.0757924
0.0796524
0.0829802
0.0858556
0.0883602
0.090543
0.0924597
0.0941365
0.0956221
0.0968966
0.0979877
0.0989152
0.099642
0.100164
0.100559
0.101064
0.10185
0.102109
0.0975153
0.0825523
0.0627133
0.0262143
0.00244561
0.000127478
9.83152e-06
2.42947e-05
4.70147e-05
1.93165e-06
4.64023e-05
1.04116e-05
2.06869e-07
3.80703e-05
0.000152988
0.00085329
0.00283294
0.00670104
0.0127071
0.0205311
0.0293734
0.0383279
0.0466851
0.0540488
0.0603679
0.0659107
0.07092
0.0753742
0.0792271
0.082539
0.0854
0.0878804
0.090055
0.0919622
0.0936342
0.0951119
0.0964103
0.0975199
0.0984624
0.0992643
0.0998614
0.100245
0.100592
0.101152
0.101857
0.100492
0.0906555
0.0734981
0.0475519
0.0108998
0.000609041
3.43205e-05
5.25235e-06
3.50462e-05
3.49117e-05
6.58349e-06
4.90766e-05
5.57425e-06
1.19787e-07
3.77978e-05
0.000152055
0.000847519
0.00281056
0.00664533
0.0126134
0.0204063
0.0292173
0.0381131
0.0464101
0.0537493
0.060065
0.0655883
0.0705615
0.0749825
0.0788153
0.0821178
0.0849661
0.0874292
0.0895816
0.091481
0.0931465
0.0946177
0.0959182
0.0970612
0.0980384
0.0988455
0.0994907
0.0999505
0.100254
0.100626
0.10123
0.101331
0.0965205
0.0818733
0.0630534
0.0288767
0.00313562
0.000151474
9.48028e-06
4.06892e-06
4.37347e-05
2.45435e-05
1.31404e-05
4.55448e-05
3.06138e-06
6.65467e-08
3.74507e-05
0.000151011
0.000843256
0.00279427
0.00659929
0.0125214
0.0202754
0.0290625
0.0379347
0.0461803
0.0534689
0.059765
0.0652731
0.0702312
0.0746211
0.0784316
0.0817137
0.0845514
0.0870028
0.0891385
0.0910159
0.0926737
0.0941431
0.0954383
0.0965851
0.0975993
0.0984311
0.0991131
0.0996107
0.0999631
0.100241
0.100641
0.101164
0.0995376
0.0894439
0.0728476
0.0485132
0.0124979
0.000697655
4.24853e-05
2.23485e-06
8.11654e-06
4.56335e-05
1.29734e-05
2.38953e-05
3.52484e-05
1.77166e-06
3.77605e-08
3.70529e-05
0.000149616
0.000838349
0.00278268
0.00656659
0.0124459
0.020147
0.0289015
0.0377594
0.0459888
0.0532324
0.0594809
0.0649648
0.0699077
0.0742885
0.0780688
0.0813342
0.0841549
0.0865952
0.0887168
0.0905778
0.0922161
0.0936797
0.0949726
0.0961191
0.0971413
0.0980186
0.0987186
0.0992609
0.0996484
0.0999098
0.100182
0.100637
0.100468
0.0952145
0.0806076
0.0625724
0.0301034
0.00357432
0.00015046
1.37152e-05
1.86261e-06
1.34386e-05
4.73485e-05
6.65058e-07
4.05251e-05
2.33453e-05
9.95353e-07
1.94179e-08
3.66637e-05
0.000148027
0.000831507
0.00276912
0.00654412
0.012393
0.0200418
0.0287439
0.0375778
0.0458003
0.0530311
0.059239
0.0646736
0.0695915
0.0739671
0.0777335
0.0809753
0.0837782
0.0862031
0.0883099
0.0901584
0.0917819
0.0932218
0.0945194
0.0956675
0.0966797
0.0975822
0.0983195
0.0989354
0.099332
0.0996064
0.0998269
0.100152
0.100419
0.0983902
0.0877931
0.0716436
0.0483217
0.013211
0.000725052
3.55255e-05
5.02236e-06
3.78116e-06
2.9091e-05
3.8702e-05
3.52288e-06
5.15014e-05
1.32646e-05
5.07318e-07
8.51248e-09
3.63241e-05
0.000146469
0.000823664
0.00274968
0.00651735
0.0123577
0.0199689
0.0286144
0.0374017
0.0456077
0.0528365
0.0590246
0.06442
0.0692953
0.0736568
0.0774158
0.0806412
0.0834234
0.0858315
0.0879221
0.0897556
0.0913681
0.092792
0.0940707
0.0952252
0.0962464
0.0971476
0.0979135
0.0985559
0.0990055
0.0993043
0.0995132
0.099754
0.100085
0.0995518
0.0935976
0.0788823
0.0613554
0.0300411
0.00370914
0.000133048
1.16444e-05
3.93803e-06
2.54344e-06
3.98345e-05
2.70753e-05
9.8766e-06
5.21363e-05
6.36944e-06
2.33766e-07
3.79133e-09
3.60845e-05
0.00014515
0.000815981
0.00272709
0.00647812
0.0123153
0.0199209
0.0285241
0.0372545
0.0454194
0.0526384
0.0588233
0.0641968
0.0690329
0.0733613
0.0771112
0.0803206
0.083088
0.0854795
0.0875582
0.0893695
0.0909737
0.0923828
0.0936473
0.0947868
0.0958167
0.0967126
0.0975188
0.0981779
0.0987117
0.0990275
0.0992175
0.0993831
0.099646
0.0997373
0.0970283
0.0857425
0.0699863
0.0470311
0.0130894
0.000690843
1.91317e-05
5.6957e-06
4.06598e-06
3.91835e-06
4.21549e-05
1.48208e-05
2.13479e-05
4.2581e-05
2.89812e-06
1.0879e-07
1.64239e-09
3.59545e-05
0.000144261
0.000809601
0.00270503
0.00643206
0.0122524
0.0198634
0.0284643
0.0371508
0.0452632
0.052446
0.058621
0.0639837
0.0688027
0.0730957
0.0768194
0.0800193
0.0827688
0.0851424
0.0872062
0.0890066
0.0905937
0.0919938
0.0932404
0.0943655
0.0953881
0.0963196
0.0971146
0.0977848
0.09836
0.0987608
0.098975
0.099068
0.0992572
0.0994939
0.098535
0.0915375
0.076752
0.0595621
0.0287744
0.00355004
8.62928e-05
4.47179e-07
2.8544e-06
1.34379e-06
1.38069e-05
4.51913e-05
7.54086e-07
4.17068e-05
2.7583e-05
1.35683e-06
4.68925e-08
6.4163e-10
3.5904e-05
0.000143863
0.000805541
0.00268693
0.00638703
0.0121779
0.0197782
0.0283931
0.0370791
0.0451488
0.0522832
0.0584267
0.0637757
0.0685818
0.0728583
0.0765534
0.0797362
0.0824695
0.0848235
0.0868713
0.0886595
0.0902327
0.091618
0.0928492
0.0939683
0.0949748
0.0958971
0.0967152
0.0974355
0.0979976
0.0984305
0.0987077
0.0988035
0.0988855
0.0990988
0.0989546
0.0952977
0.083306
0.067943
0.0449032
0.0121347
0.00056829
5.9956e-06
1.46664e-06
1.21582e-06
3.00123e-06
2.69504e-05
3.55404e-05
3.57182e-06
5.34252e-05
1.43179e-05
5.82783e-07
1.78229e-08
2.33222e-10
3.58346e-05
0.000143766
0.000804184
0.00267611
0.00635063
0.0121049
0.019676
0.0282904
0.036996
0.0450639
0.0521591
0.0582521
0.0635727
0.0683668
0.0726315
0.0763088
0.0794703
0.0821857
0.0845285
0.0865499
0.0883232
0.0898837
0.0912657
0.0924774
0.0935809
0.0945793
0.0954908
0.0963033
0.097039
0.0976484
0.0981199
0.0984253
0.0985668
0.098607
0.0987348
0.0988218
0.0973017
0.0890642
0.0743985
0.0572117
0.0266264
0.00303674
3.83228e-05
9.12535e-06
2.47055e-06
1.01182e-06
2.49754e-06
3.52388e-05
2.18812e-05
1.23796e-05
5.27206e-05
5.97502e-06
2.33995e-07
6.70418e-09
7.7249e-11
3.57114e-05
0.00014357
0.000804385
0.00267357
0.00633025
0.0120468
0.0195762
0.0281671
0.0368817
0.0449719
0.0520645
0.0581216
0.0633874
0.0681575
0.072412
0.0760802
0.0792209
0.0819204
0.0842449
0.0862539
0.0880004
0.0895424
0.0909193
0.0921317
0.0932104
0.0941968
0.0950922
0.0959034
0.0966368
0.097291
0.0977845
0.0981383
0.0983284
0.0983702
0.0984196
0.0985366
0.0980263
0.093303
0.0806161
0.0655372
0.0420582
0.0105566
0.00035655
8.38383e-06
7.60264e-06
4.38617e-06
1.1852e-06
3.28372e-06
4.2137e-05
8.3881e-06
3.23685e-05
3.77897e-05
2.30104e-06
8.69346e-08
2.26369e-09
2.32981e-11
3.55349e-05
0.000143129
0.00080399
0.00267595
0.00632758
0.0120159
0.0194974
0.0280474
0.036746
0.0448499
0.0519617
0.0580182
0.0632462
0.0679717
0.0722041
0.0758622
0.0789878
0.0816698
0.0839794
0.0859794
0.0877054
0.0892202
0.0905768
0.0917911
0.0928635
0.0938308
0.0947162
0.0955328
0.0962585
0.0969344
0.0974472
0.097833
0.0980679
0.0981661
0.0981663
0.0982114
0.0981249
0.0958693
0.0862963
0.0718624
0.054269
0.0237121
0.00232229
2.22557e-05
4.08904e-06
4.02556e-06
4.39067e-06
1.12891e-06
1.94253e-05
3.75989e-05
2.20886e-06
5.02337e-05
2.04246e-05
8.85309e-07
2.86283e-08
7.0776e-10
6.38077e-12
3.52896e-05
0.000142449
0.00080225
0.00267633
0.00633556
0.0120147
0.019457
0.0279516
0.0366131
0.0447076
0.0518368
0.0579049
0.0631314
0.0678162
0.0720178
0.075654
0.0787681
0.0814312
0.0837282
0.0857196
0.0874405
0.0889331
0.0902515
0.0914488
0.0925279
0.0934887
0.0943553
0.0951539
0.0958932
0.0965568
0.097131
0.0975602
0.0978138
0.0979125
0.0979342
0.0979362
0.0979406
0.0970046
0.0910164
0.0776502
0.0626967
0.0384005
0.00850465
0.000200158
1.1639e-05
2.04069e-06
2.30335e-06
3.25236e-06
5.42681e-06
3.16117e-05
2.65568e-05
1.15424e-05
5.59223e-05
8.3892e-06
3.00684e-07
9.16082e-09
2.00295e-10
1.57622e-12
3.49849e-05
0.000141437
0.0007991
0.00267255
0.00633933
0.0120315
0.0194573
0.0279025
0.0365057
0.0445677
0.0516922
0.0577779
0.0630108
0.0676886
0.0718525
0.0754575
0.0785605
0.0812091
0.0834906
0.085463
0.0871826
0.0886707
0.0899682
0.0911217
0.0921879
0.0931538
0.0940193
0.0947999
0.0955211
0.0961759
0.0967585
0.0972465
0.097572
0.0977065
0.0977079
0.0976656
0.0976902
0.0973206
0.093994
0.0832298
0.0690229
0.0505745
0.0200642
0.00154549
2.29788e-05
7.3909e-06
1.27502e-06
2.37066e-06
3.22934e-06
4.61436e-06
3.81832e-05
1.20001e-05
2.89977e-05
4.07074e-05
2.69668e-06
9.65689e-08
2.60842e-09
5.16951e-11
3.51738e-13
3.46682e-05
0.000140181
0.000794067
0.00266411
0.00633371
0.0120414
0.0194829
0.027902
0.036449
0.0444526
0.0515505
0.0576316
0.0628758
0.0675605
0.0717124
0.0752858
0.07836
0.0810005
0.0832705
0.0852254
0.0869204
0.0884102
0.0897048
0.0908339
0.0918571
0.0928156
0.0936888
0.0944689
0.0951779
0.0958447
0.0964222
0.0969144
0.0972792
0.0974742
0.0974859
0.0974336
0.0974106
0.0973183
0.0956698
0.0880422
0.0743823
0.0593955
0.0338589
0.0062981
0.000118156
7.04869e-06
8.31526e-07
1.30873e-06
3.34214e-06
5.33292e-06
1.03075e-05
3.74348e-05
1.05082e-06
4.90892e-05
2.15121e-05
8.91113e-07
2.72439e-08
6.8087e-10
1.2082e-11
7.01135e-14
3.43742e-05
0.00013889
0.000787715
0.00264973
0.00631787
0.0120352
0.0194986
0.0279324
0.036443
0.0443894
0.0514298
0.0574871
0.0627261
0.06742
0.071578
0.0751391
0.0781835
0.0808058
0.0830597
0.0850046
0.0866788
0.0881464
0.0894495
0.0905732
0.0915662
0.0924813
0.0933545
0.0941458
0.0948445
0.0955001
0.0960903
0.0965941
0.0970041
0.0972371
0.0972998
0.097218
0.097156
0.097136
0.096386
0.0916288
0.0797512
0.0657904
0.046131
0.0158986
0.000871351
4.31222e-06
3.59007e-06
1.56425e-06
1.4721e-06
2.88322e-06
9.34734e-07
2.76912e-05
2.43314e-05
1.15355e-05
5.55391e-05
7.90989e-06
2.53354e-07
7.21426e-09
1.60768e-10
2.51293e-12
1.24644e-14
3.41142e-05
0.000137674
0.000781118
0.00263114
0.00628887
0.0120112
0.0194932
0.0279512
0.0364716
0.0443735
0.0513564
0.0573606
0.0625751
0.0672652
0.0714359
0.074996
0.0780308
0.0806282
0.0828651
0.0847958
0.0864578
0.0879001
0.0891869
0.0903258
0.0913121
0.0921885
0.0930158
0.0938121
0.0945236
0.0951631
0.0957361
0.0962637
0.0966791
0.0969839
0.0971209
0.0970655
0.0969583
0.0968924
0.0966064
0.0939747
0.0846398
0.0710972
0.0555175
0.0285845
0.00421649
4.56469e-05
7.54276e-06
2.73334e-06
1.10974e-06
8.45079e-07
1.61427e-06
1.03529e-05
3.46276e-05
8.23688e-06
3.34742e-05
3.75387e-05
2.21171e-06
6.79158e-08
1.72488e-09
3.38912e-11
4.52016e-13
1.99968e-15
3.39129e-05
0.000136625
0.000774905
0.00261166
0.0062504
0.0119648
0.019462
0.0279455
0.0364881
0.0443919
0.0513292
0.0572792
0.0624425
0.0671129
0.07128
0.0748547
0.0778782
0.0804663
0.0826868
0.084599
0.0862528
0.0876781
0.0889318
0.0900691
0.0910705
0.0919405
0.0927223
0.0934757
0.0941984
0.094858
0.0954298
0.0959304
0.0963649
0.096695
0.0968657
0.096897
0.0967704
0.0966689
0.0965085
0.0952055
0.0888266
0.0760999
0.0622854
0.040933
0.0116711
0.0004672
1.07295e-05
4.52353e-07
1.06282e-06
6.50224e-07
9.69618e-07
4.44891e-06
1.52762e-05
3.27206e-05
3.11824e-06
5.15249e-05
1.75747e-05
6.10282e-07
1.65959e-08
3.66896e-10
6.36441e-12
6.90856e-14
2.76096e-16
3.37694e-05
0.000135822
0.000769555
0.00259317
0.00621
0.011902
0.0193997
0.0279085
0.0364798
0.0444017
0.0513355
0.0572372
0.0623551
0.0669746
0.0711284
0.0747013
0.0777335
0.0803054
0.0825138
0.0844139
0.0860572
0.0874768
0.0887111
0.0898109
0.090815
0.0917063
0.0924721
0.0931761
0.0938649
0.0945301
0.0951357
0.0956191
0.096064
0.0964082
0.0966326
0.0966978
0.0966114
0.0964923
0.0963512
0.0957015
0.0917012
0.0809061
0.0676198
0.0508738
0.0228354
0.0024958
4.95287e-05
1.08096e-05
2.18979e-06
7.4304e-07
2.47823e-06
3.597e-06
8.24448e-07
2.73117e-05
2.08705e-05
1.77393e-05
5.1096e-05
5.24597e-06
1.50088e-07
3.56553e-09
6.97962e-11
1.05402e-12
8.79285e-15
4.95204e-17
3.3677e-05
0.000135265
0.000765512
0.00257736
0.00617125
0.0118359
0.0193138
0.0278344
0.0364367
0.0443883
0.0513328
0.05723
0.062297
0.0668769
0.0709841
0.0745451
0.0775862
0.0801544
0.0823473
0.0842326
0.0858666
0.0872832
0.0885151
0.089586
0.0905555
0.0914504
0.092242
0.0929258
0.0935684
0.0941948
0.0948253
0.0953334
0.0957722
0.0961018
0.0963649
0.0964866
0.0964518
0.0963038
0.096174
0.0958265
0.0935551
0.0852032
0.0722037
0.0582391
0.0348778
0.00780015
0.00023227
2.60407e-05
5.82208e-06
9.48529e-07
1.53821e-06
4.26784e-06
6.63606e-06
5.31923e-06
3.5007e-05
4.47198e-06
4.1177e-05
2.88963e-05
1.28988e-06
3.22947e-08
6.89854e-10
1.18884e-11
1.48122e-13
9.4547e-16
1.89782e-18
3.363e-05
0.000134942
0.000762794
0.00256548
0.00613815
0.0117718
0.0192233
0.0277323
0.0363569
0.0443406
0.0513115
0.0572166
0.0622731
0.0668069
0.0708799
0.0743976
0.0774323
0.0800114
0.0821994
0.0840639
0.0856861
0.0870982
0.0883219
0.0893917
0.0903247
0.0911865
0.0919882
0.0926997
0.0933168
0.0938926
0.0944742
0.0950511
0.0955055
0.0958475
0.0960869
0.0962272
0.0962368
0.0961152
0.0959584
0.095727
0.0944765
0.0887558
0.0767883
0.0637492
0.0453269
0.0169312
0.0012358
3.78944e-05
1.01804e-05
1.59144e-06
6.0097e-07
1.91488e-06
4.01414e-06
1.78549e-06
1.69834e-05
2.68187e-05
3.39462e-06
5.07244e-05
1.0586e-05
2.77278e-07
6.39172e-09
1.19417e-10
1.78919e-12
1.77295e-14
5.51211e-17
1.3689e-17
3.36126e-05
0.000134812
0.000761309
0.00255768
0.00611329
0.0117168
0.0191344
0.0276235
0.0362458
0.0442581
0.0512591
0.0571839
0.0622546
0.0667675
0.0707989
0.0742837
0.0772829
0.0798609
0.0820531
0.0839171
0.08551
0.0869127
0.0881378
0.0891998
0.090129
0.090953
0.0917275
0.0924517
0.0930924
0.0936449
0.0941649
0.0947253
0.0952142
0.0956083
0.0958324
0.0959987
0.0960278
0.0959193
0.0957629
0.0955715
0.0948244
0.0911139
0.0811543
0.0683744
0.0534447
0.0280787
0.00463694
8.14241e-05
5.93191e-06
2.29512e-06
5.9588e-07
5.25874e-07
6.39859e-07
9.78025e-07
2.86436e-06
2.51463e-05
1.13076e-05
3.18788e-05
4.02608e-05
2.31378e-06
5.59813e-08
1.12644e-09
1.84582e-11
2.24281e-13
1.36501e-15
2.70895e-17
1.95648e-18
3.36196e-05
0.000134808
0.000760872
0.00255364
0.00609738
0.0116758
0.0190582
0.0275154
0.0361271
0.0441431
0.0511752
0.0571273
0.0622174
0.0667357
0.0707472
0.0741881
0.0771567
0.079706
0.0819013
0.0837699
0.0853578
0.0867288
0.087947
0.0890125
0.0899441
0.0907553
0.0914914
0.0921918
0.0928519
0.0934164
0.093912
0.094397
0.0949009
0.0953361
0.095606
0.0957588
0.0957932
0.095715
0.0955672
0.0953586
0.0948704
0.0926009
0.0849152
0.072584
0.0595144
0.0387958
0.0113515
0.000522335
4.36979e-06
2.32398e-06
1.31421e-06
1.27123e-06
2.09336e-06
2.03804e-06
2.28013e-06
8.65487e-06
2.88178e-05
3.56399e-06
5.23494e-05
1.67391e-05
4.87567e-07
1.01626e-08
1.77155e-10
2.44612e-12
2.145e-14
3.61946e-17
2.05925e-17
3.93338e-18
3.36205e-05
0.000134886
0.000761089
0.00255278
0.00608961
0.01165
0.0190013
0.027424
0.0360083
0.0440225
0.0510615
0.0570415
0.0621552
0.0666973
0.0706996
0.0741257
0.0770457
0.079578
0.0817477
0.0836253
0.0852181
0.0865734
0.0877546
0.0888202
0.0897573
0.0905743
0.0912886
0.0919507
0.0925907
0.0931975
0.0937153
0.0941423
0.0945748
0.0950118
0.0953638
0.095535
0.0955783
0.0954903
0.0953403
0.095163
0.0947776
0.0933305
0.0879691
0.0767867
0.0642957
0.0476747
0.0209018
0.00234785
4.17753e-05
3.14648e-06
2.99242e-06
1.72807e-06
1.63715e-06
5.16183e-07
1.29707e-06
4.95903e-07
2.2033e-05
1.69989e-05
1.76299e-05
4.42561e-05
4.11878e-06
8.93745e-08
1.62714e-09
2.40815e-11
2.43156e-13
1.4566e-15
2.52194e-17
9.67479e-18
6.27947e-19
3.36141e-05
0.000134935
0.000761723
0.00255395
0.00608866
0.0116376
0.0189658
0.0273537
0.035907
0.0438992
0.0509407
0.0569291
0.062068
0.0666279
0.0706512
0.0740673
0.0769712
0.0794593
0.0816185
0.0834747
0.08508
0.0864405
0.0875969
0.0886196
0.0895613
0.090393
0.091112
0.0917511
0.0923442
0.0929341
0.0934887
0.0939464
0.0943248
0.0947239
0.0950871
0.095332
0.0953965
0.0953187
0.0951472
0.0949304
0.09465
0.0937153
0.090077
0.0806834
0.0684661
0.0545628
0.0313285
0.00669073
0.000209223
1.2321e-05
5.8008e-06
2.57488e-06
1.29964e-06
1.61556e-07
2.74972e-06
4.7608e-06
4.47031e-06
3.0619e-05
2.50701e-06
4.34317e-05
2.31975e-05
7.56432e-07
1.44012e-08
2.23622e-10
2.53151e-12
2.04442e-14
3.88308e-17
1.18246e-17
8.26298e-18
2.80319e-18
3.35913e-05
0.000134941
0.000762145
0.00255626
0.00609181
0.0116372
0.0189486
0.0273098
0.0358276
0.0437931
0.0508184
0.0568112
0.0619563
0.0665423
0.0705795
0.0740103
0.076903
0.0793678
0.0814889
0.0833412
0.0849259
0.0863036
0.0874636
0.0884616
0.0893608
0.0901969
0.0909418
0.0915749
0.0921431
0.0926762
0.093238
0.0937161
0.0941028
0.0944618
0.0947972
0.0950887
0.0952226
0.0951669
0.0949699
0.0947197
0.0944484
0.0938659
0.0915561
0.084111
0.0722768
0.059827
0.0408123
0.0139912
0.00095693
3.65805e-05
1.11245e-05
3.42023e-06
9.97267e-07
2.4504e-07
1.40445e-06
3.55282e-06
1.17278e-06
1.62559e-05
2.10217e-05
7.65851e-06
4.94383e-05
6.12339e-06
1.24193e-07
2.00231e-09
2.4609e-11
2.31134e-13
1.21071e-15
5.32219e-17
1.09721e-17
1.88636e-18
4.76083e-19
3.35497e-05
0.000134865
0.000762272
0.00255783
0.00609753
0.0116433
0.0189476
0.0272875
0.0357778
0.0437085
0.0507128
0.0566894
0.0618398
0.0664366
0.0704939
0.0739379
0.0768425
0.0792897
0.0813834
0.0831974
0.0847874
0.0861508
0.0873356
0.0883313
0.089194
0.0899916
0.0907429
0.0914085
0.0919699
0.0924769
0.0929754
0.0934891
0.0939161
0.0942684
0.0945484
0.0948011
0.0949998
0.0950128
0.0948416
0.0945531
0.0942466
0.0938974
0.0924418
0.0870284
0.0761177
0.0640979
0.0485296
0.0232595
0.00335709
9.80091e-05
1.92209e-05
5.27994e-06
8.59945e-07
3.15236e-07
9.58444e-07
5.94692e-07
1.03629e-06
2.97945e-06
2.31151e-05
5.94354e-06
3.86021e-05
2.73277e-05
1.04605e-06
1.73863e-08
2.33044e-10
2.3879e-12
1.64186e-14
3.28205e-17
3.22935e-19
5.27221e-18
6.69806e-18
4.95594e-18
3.34845e-05
0.000134698
0.000761895
0.00255836
0.00610132
0.0116531
0.018956
0.0272841
0.0357491
0.043654
0.0506253
0.0565819
0.0617168
0.0663206
0.0703886
0.073853
0.0767673
0.0792264
0.0812916
0.0830804
0.0846423
0.0860107
0.0871906
0.088213
0.08907
0.0898203
0.0905291
0.0912171
0.0918074
0.0922979
0.0927678
0.0932398
0.0936836
0.0940834
0.0943663
0.094579
0.0947491
0.0948012
0.094702
0.0944236
0.0941198
0.093815
0.0929534
0.089102
0.0796996
0.0678622
0.0545925
0.0327702
0.00808103
0.000333705
1.83768e-05
6.50622e-06
1.12052e-06
8.41596e-08
2.36774e-07
1.30383e-07
3.77483e-07
2.43276e-06
1.10768e-05
2.14512e-05
6.37191e-06
4.48916e-05
8.24857e-06
1.47903e-07
2.13868e-09
2.36806e-11
1.91573e-13
7.08752e-16
3.42137e-17
2.14846e-17
1.75088e-18
7.07464e-18
1.01998e-18
3.34051e-05
0.000134423
0.000760999
0.00255732
0.00610264
0.0116596
0.0189698
0.0272929
0.0357423
0.0436194
0.0505658
0.0564922
0.0616055
0.0661963
0.0702763
0.0737477
0.0766854
0.0791472
0.0812244
0.0829788
0.0845149
0.085865
0.087057
0.0880753
0.0889536
0.0896938
0.0903513
0.090994
0.0916203
0.0921527
0.0925896
0.0930234
0.0934268
0.0938236
0.0941645
0.0943706
0.0945142
0.0946029
0.0945381
0.0943128
0.0939884
0.0936999
0.0931785
0.0906326
0.0829092
0.0713102
0.0593249
0.041237
0.0153019
0.00126676
2.83653e-05
3.9253e-06
1.48774e-06
6.51525e-07
8.24384e-07
8.87219e-07
1.74303e-07
7.3854e-07
5.70032e-07
2.01786e-05
1.02537e-05
3.3315e-05
3.04422e-05
1.2318e-06
1.86725e-08
2.2756e-10
2.07703e-12
1.14874e-14
4.61769e-17
3.58424e-18
1.6297e-17
3.27879e-18
4.24084e-18
8.62253e-19