/*--------------------------------*- C++ -*----------------------------------*\
| =========                 |                                                 |
| \\      /  F ield         | OpenFOAM: The Open Source CFD Toolbox           |
|  \\    /   O peration     | Version:  v2012                                 |
|   \\  /    A nd           | Website:  www.openfoam.com                      |
|    \\/     M anipulation  |                                                 |
\*---------------------------------------------------------------------------*/
FoamFile
{
    version     2.0;
    format      ascii;
    class       volScalarField;
    location    "2000";
    object      nut;
}
// * * * * * * * * * * * * * * * * * * * * * * * * * * * * * * * * * * * * * //

dimensions      [0 2 -1 0 0 0 0];


internalField   nonuniform List<scalar> 
39402
(
2.08362e-06
6.90607e-08
1.73798e-06
2.01141e-08
6.91948e-08
1.09632e-06
1.69842e-08
1.90996e-08
8.10796e-08
6.4326e-07
1.85549e-08
3.18828e-08
2.04756e-08
1.07475e-07
4.24965e-07
2.00997e-08
5.10935e-08
3.09027e-07
3.08001e-08
1.49998e-07
3.39332e-07
2.12083e-08
6.37858e-08
6.11288e-07
1.91444e-06
6.50209e-08
2.01172e-07
3.03895e-07
2.18068e-08
7.19828e-08
7.97537e-07
3.80882e-06
7.24129e-06
1.40524e-07
2.50353e-07
2.89048e-07
2.21402e-08
7.63144e-08
9.13687e-07
4.93965e-06
1.43059e-05
1.97145e-05
2.68745e-07
2.89508e-07
2.82793e-07
2.22601e-08
7.90252e-08
9.73685e-07
5.62942e-06
1.84118e-05
3.86915e-05
4.24732e-05
4.48134e-07
3.1537e-07
2.80143e-07
2.21053e-08
8.00934e-08
1.01063e-06
5.97979e-06
2.08664e-05
4.94851e-05
8.30074e-05
7.67965e-05
6.43092e-07
3.28881e-07
2.79018e-07
2.18131e-08
7.96733e-08
1.02416e-06
6.18881e-06
2.20984e-05
5.58118e-05
0.000105748
0.00014999
0.000121409
8.25778e-07
3.34099e-07
2.78536e-07
2.1513e-08
7.86785e-08
1.0178e-06
6.25931e-06
2.2812e-05
5.89703e-05
0.000118851
0.000190956
0.000238061
0.000165295
1.01539e-06
3.36296e-07
2.78333e-07
2.11733e-08
7.76684e-08
1.00438e-06
6.2135e-06
2.30368e-05
6.07517e-05
0.000125397
0.000214275
0.000304106
0.000336316
0.000210008
1.21239e-06
3.33419e-07
2.78255e-07
2.08089e-08
7.63775e-08
9.90924e-07
6.12809e-06
2.28569e-05
6.12937e-05
0.000129012
0.000226013
0.000341482
0.000440594
0.000432231
0.000256249
1.43952e-06
3.23764e-07
2.78231e-07
2.0464e-08
7.49847e-08
9.73398e-07
6.04178e-06
2.2543e-05
6.08275e-05
0.000130127
0.000232409
0.000360561
0.000496364
0.000574655
0.000533293
0.000303599
1.77708e-06
3.10249e-07
2.78227e-07
2.01192e-08
7.36712e-08
9.54702e-07
5.93194e-06
2.22253e-05
6.00369e-05
0.000129237
0.000234477
0.000370905
0.000525391
0.000658372
0.000717189
0.000637752
0.00035498
2.04469e-06
2.96565e-07
2.78231e-07
1.97583e-08
7.23228e-08
9.3705e-07
5.8156e-06
2.18255e-05
5.92273e-05
0.000127729
0.000233182
0.000374526
0.000541166
0.000703747
0.000828942
0.000867958
0.000743592
0.000422954
2.15725e-06
2.85056e-07
2.78258e-07
1.94002e-08
7.08716e-08
9.18877e-07
5.70538e-06
2.14023e-05
5.82133e-05
0.000126159
0.000230856
0.000373074
0.00054721
0.000729039
0.000891155
0.00101212
0.00102426
0.000854274
0.000527235
2.10563e-06
2.76465e-07
2.78283e-07
1.90678e-08
6.94674e-08
8.99305e-07
5.5922e-06
2.10008e-05
5.71415e-05
0.000124178
0.000228367
0.000370057
0.000546164
0.000740523
0.000926084
0.00109469
0.00120601
0.00118414
0.00098418
0.000614869
1.85102e-06
2.7072e-07
2.78272e-07
1.8755e-08
6.81891e-08
8.80469e-07
5.47105e-06
2.05884e-05
5.61171e-05
0.000122078
0.000225193
0.000366708
0.000542852
0.000742634
0.00094318
0.00114182
0.00131338
0.00140784
0.00134899
0.00112504
0.000658437
1.45877e-06
2.66983e-07
2.78276e-07
1.84457e-08
6.69779e-08
8.63456e-07
5.3546e-06
2.01489e-05
5.5064e-05
0.000120059
0.000221794
0.000362316
0.000538923
0.000741382
0.000947975
0.00116608
0.00137628
0.00154488
0.00161497
0.00150398
0.00121092
0.000668262
1.04782e-06
2.64692e-07
2.78178e-07
1.81353e-08
6.57607e-08
8.47238e-07
5.24899e-06
1.97261e-05
5.39433e-05
0.000117974
0.000218502
0.000357557
0.000533534
0.000739019
0.000948107
0.00117462
0.00140989
0.00162751
0.0017862
0.00181593
0.00163777
0.00126727
0.000635896
7.12803e-07
2.63341e-07
2.7798e-07
1.78442e-08
6.45518e-08
8.30957e-07
5.14822e-06
1.93412e-05
5.28643e-05
0.000115756
0.000215079
0.000352894
0.000527563
0.000734708
0.000946575
0.00117686
0.00142383
0.00167351
0.00189286
0.00202925
0.00200576
0.00174717
0.0013041
0.000561261
4.93442e-07
2.62618e-07
2.77765e-07
1.75653e-08
6.34238e-08
8.14842e-07
5.04733e-06
1.89733e-05
5.18773e-05
0.000113614
0.000211434
0.000348006
0.000521631
0.000728586
0.00094255
0.00117663
0.00142938
0.00169507
0.00195496
0.00216659
0.00226902
0.00217678
0.00182694
0.00133218
0.000452533
3.68556e-07
2.62236e-07
2.77657e-07
1.7291e-08
6.2353e-08
7.99888e-07
4.94792e-06
1.86056e-05
5.09311e-05
0.000111646
0.000207903
0.000342778
0.000515347
0.000721675
0.000937268
0.00117324
0.00143134
0.00170548
0.00198698
0.00224988
0.00244399
0.00249759
0.00231901
0.0018744
0.00135625
0.00032567
3.05497e-07
2.61843e-07
2.77701e-07
1.70196e-08
6.12901e-08
7.85691e-07
4.85551e-06
1.82441e-05
4.99859e-05
0.000109752
0.000204645
0.000337705
0.000508582
0.000714244
0.000931621
0.00116838
0.00142931
0.00171085
0.00200436
0.00229631
0.00255444
0.00271826
0.00270459
0.00242393
0.0018874
0.00130488
0.000203011
2.73859e-07
2.61456e-07
2.77819e-07
1.67589e-08
6.02375e-08
7.71714e-07
4.76802e-06
1.79074e-05
4.9057e-05
0.000107859
0.000201494
0.000333002
0.000502002
0.000706166
0.000925195
0.00116304
0.00142534
0.00171114
0.00201475
0.00232368
0.00262011
0.00286294
0.00297991
0.00287892
0.0024832
0.00186621
0.00112095
0.000106525
2.59101e-07
2.61077e-07
2.77923e-07
1.65107e-08
5.92375e-08
7.57922e-07
4.68234e-06
1.75893e-05
4.81909e-05
0.000105998
0.000198338
0.000328433
0.000495868
0.000698274
0.000917908
0.00115664
0.00142062
0.00170883
0.00201866
0.00234136
0.00266112
0.00295368
0.00316731
0.00321773
0.00300863
0.00249218
0.00182314
0.000888675
4.70282e-05
2.52276e-07
2.60821e-07
2.78009e-07
1.62713e-08
5.82838e-08
7.44924e-07
4.59813e-06
1.72782e-05
4.73715e-05
0.000104257
0.000195235
0.000323839
0.000489876
0.000690894
0.000910736
0.00114916
0.00141447
0.00170539
0.00201912
0.00235089
0.00268891
0.00301309
0.00329053
0.0034576
0.00341917
0.0030824
0.00245192
0.00177327
0.000634306
1.81299e-05
2.49189e-07
2.60774e-07
2.78074e-07
1.60396e-08
5.73535e-08
7.32554e-07
4.519e-06
1.69735e-05
4.65714e-05
0.00010261
0.000192324
0.000319322
0.00048384
0.000683644
0.00090405
0.00114173
0.00140693
0.00170007
0.00201791
0.00235564
0.00270629
0.00305475
0.00337427
0.00362205
0.00372179
0.00357028
0.00309331
0.00237047
0.0016455
0.000394905
6.50185e-06
2.4785e-07
2.60927e-07
2.78135e-07
1.58246e-08
5.64597e-08
7.20544e-07
4.444e-06
1.66872e-05
4.57887e-05
0.000101001
0.000189565
0.00031507
0.000477884
0.000676288
0.00089733
0.00113472
0.00139932
0.00169298
0.00201422
0.00235786
0.00271727
0.00308291
0.00343438
0.00373752
0.00393767
0.00394603
0.00365835
0.00303988
0.00226236
0.00133191
0.000208833
2.32869e-06
2.47322e-07
2.61083e-07
2.7817e-07
1.56123e-08
5.56319e-08
7.09071e-07
4.37154e-06
1.64171e-05
4.50543e-05
9.94279e-05
0.000186866
0.000311034
0.000472277
0.000669028
0.000890431
0.00112762
0.00139211
0.00168564
0.00200824
0.00235693
0.00272458
0.00310261
0.00347739
0.00382242
0.004094
0.00422489
0.00411537
0.00367349
0.00293042
0.00214816
0.000978878
9.35835e-05
9.20744e-07
2.47076e-07
2.61156e-07
2.78168e-07
1.54011e-08
5.4815e-08
6.98557e-07
4.30275e-06
1.61568e-05
4.43611e-05
9.7951e-05
0.00018423
0.000307081
0.000466941
0.000662178
0.000883555
0.00112022
0.00138472
0.00167862
0.00200172
0.00235305
0.00272788
0.00311721
0.00350917
0.0038851
0.00421091
0.00443233
0.00446862
0.00421535
0.00361138
0.00278112
0.00198812
0.000632464
3.65479e-05
4.58509e-07
2.46855e-07
2.6119e-07
2.78135e-07
1.5191e-08
5.39911e-08
6.88243e-07
4.23975e-06
1.59106e-05
4.36944e-05
9.65552e-05
0.00018175
0.000303216
0.000461702
0.000655647
0.000877079
0.00111282
0.00137689
0.0016713
0.00199545
0.00234821
0.00272738
0.00312648
0.00353366
0.00393298
0.00429955
0.00459036
0.00473912
0.0046531
0.00423249
0.00347675
0.00261493
0.00158597
0.000348416
1.30091e-05
3.08016e-07
2.4663e-07
2.61221e-07
2.78078e-07
1.50003e-08
5.31793e-08
6.77901e-07
4.17876e-06
1.56857e-05
4.30653e-05
9.52141e-05
0.000179406
0.000299582
0.000456577
0.000649216
0.000870852
0.00110584
0.001369
0.00166335
0.00198867
0.00234339
0.0027253
0.00313098
0.00355118
0.0039709
0.00436861
0.00471238
0.00494859
0.00499864
0.00476129
0.00416104
0.00328607
0.00244103
0.00114681
0.000161661
4.42689e-06
2.59045e-07
2.46546e-07
2.61204e-07
2.7799e-07
1.48357e-08
5.24652e-08
6.6782e-07
4.11797e-06
1.54693e-05
4.24915e-05
9.39503e-05
0.000177149
0.000296135
0.000451757
0.000642926
0.00086468
0.00109911
0.00136154
0.00165521
0.00198097
0.00233778
0.00272289
0.00313308
0.00356259
0.00399968
0.00442411
0.00480896
0.00511316
0.00527162
0.00519348
0.00477881
0.00400407
0.0030667
0.00213683
0.000728953
6.41087e-05
1.53702e-06
2.43014e-07
2.46641e-07
2.61106e-07
2.77883e-07
1.46753e-08
5.18533e-08
6.59104e-07
4.05917e-06
1.52548e-05
4.19412e-05
9.27976e-05
0.000175025
0.00029281
0.00044717
0.00063701
0.000858644
0.00109237
0.00135431
0.00164749
0.00197303
0.00233107
0.00271932
0.00313427
0.00357068
0.00402065
0.00446798
0.00488755
0.00524516
0.00548927
0.00554236
0.00530517
0.00469728
0.00377984
0.00285623
0.0016438
0.000397378
2.24901e-05
6.17819e-07
2.37755e-07
2.46914e-07
2.61076e-07
2.77769e-07
1.45104e-08
5.12484e-08
6.51722e-07
4.00874e-06
1.50489e-05
4.13991e-05
9.16948e-05
0.000173086
0.000289683
0.000442732
0.000631343
0.00085296
0.00108577
0.0013471
0.00164005
0.00196549
0.00232385
0.00271426
0.00313385
0.0035771
0.00403691
0.00450186
0.00495093
0.0053534
0.00566558
0.00582487
0.00574219
0.00531766
0.00451886
0.00352063
0.00263485
0.00113769
0.000184221
7.30741e-06
3.39091e-07
2.36175e-07
2.47444e-07
2.61219e-07
2.77665e-07
1.43462e-08
5.06093e-08
6.4449e-07
3.96653e-06
1.48733e-05
4.0881e-05
9.06133e-05
0.000171235
0.000286829
0.000438566
0.000625846
0.000846899
0.00107962
0.00133994
0.00163252
0.00195811
0.00231689
0.00270845
0.00313147
0.00358114
0.00405043
0.00452921
0.00500192
0.00544211
0.0058112
0.00605655
0.00610267
0.0058506
0.00521997
0.00426051
0.00326446
0.00209726
0.000689244
7.36246e-05
2.3276e-06
2.5806e-07
2.36071e-07
2.48179e-07
2.61414e-07
2.77575e-07
1.41959e-08
4.99839e-08
6.3684e-07
3.92555e-06
1.47275e-05
4.04415e-05
8.9584e-05
0.000169423
0.000284106
0.000434754
0.000620684
0.000840475
0.00107357
0.00133325
0.00162502
0.00195056
0.00231003
0.00270271
0.00312786
0.00358276
0.00406073
0.00455242
0.00504384
0.00551478
0.00593213
0.00624906
0.00640112
0.00630144
0.00585019
0.00501319
0.00395631
0.00299984
0.00152469
0.000358682
2.62252e-05
8.09198e-07
2.35414e-07
2.3658e-07
2.48856e-07
2.6151e-07
2.775e-07
1.40698e-08
4.94326e-08
6.29443e-07
3.88253e-06
1.45873e-05
4.0079e-05
8.87145e-05
0.000167709
0.000281446
0.00043112
0.000615963
0.000834443
0.00106755
0.0013268
0.00161796
0.00194303
0.00230293
0.00269705
0.00312421
0.00358271
0.00406785
0.00457129
0.00507966
0.00557575
0.0060328
0.0064102
0.0066512
0.00668058
0.00640039
0.00572849
0.00471571
0.00365208
0.00249322
0.000985802
0.000159702
8.63469e-06
3.76193e-07
2.29358e-07
2.37245e-07
2.49474e-07
2.61498e-07
2.77434e-07
1.39533e-08
4.89808e-08
6.23101e-07
3.8413e-06
1.44411e-05
3.97327e-05
8.80016e-05
0.000166268
0.000278943
0.000427582
0.000611468
0.000828937
0.00106194
0.00132053
0.00161121
0.00193591
0.00229567
0.00269087
0.00312042
0.00358206
0.00407272
0.00458581
0.00511001
0.00562816
0.00611802
0.00654587
0.00686254
0.00700045
0.00687248
0.00637939
0.00548673
0.00436615
0.00334721
0.00186579
0.000554966
6.16024e-05
2.74515e-06
2.59706e-07
2.28184e-07
2.38035e-07
2.49861e-07
2.6135e-07
2.77381e-07
1.38306e-08
4.85561e-08
6.18075e-07
3.80658e-06
1.43021e-05
3.93735e-05
8.73233e-05
0.00016509
0.00027685
0.000424267
0.00060709
0.000823699
0.00105683
0.00131468
0.00160468
0.00192913
0.00228886
0.00268435
0.00311584
0.00358092
0.00407641
0.00459723
0.00513452
0.00567299
0.00619184
0.00666167
0.00704202
0.00727263
0.00727579
0.00695385
0.00622609
0.0051454
0.00401763
0.00284728
0.00125657
0.000268631
2.12111e-05
9.25641e-07
2.30198e-07
2.28474e-07
2.3877e-07
2.50067e-07
2.61112e-07
2.77341e-07
1.36983e-08
4.80857e-08
6.13405e-07
3.77986e-06
1.4187e-05
3.90349e-05
8.6624e-05
0.000163973
0.000275144
0.000421514
0.000603022
0.000818602
0.00105195
0.00130934
0.00159851
0.00192253
0.00228241
0.00267842
0.00311082
0.0035789
0.00407917
0.00460699
0.00515461
0.00571063
0.00625543
0.00676232
0.00719583
0.00750579
0.00762146
0.00745336
0.00690416
0.00594218
0.0047507
0.00367489
0.00216739
0.000745637
0.000111278
6.75524e-06
4.02182e-07
2.23194e-07
2.29178e-07
2.39705e-07
2.50192e-07
2.60804e-07
2.77315e-07
1.35685e-08
4.75785e-08
6.08078e-07
3.75538e-06
1.41009e-05
3.87597e-05
8.59717e-05
0.000162828
0.000273532
0.000419284
0.000599668
0.000813885
0.00104718
0.00130424
0.00159301
0.0019163
0.00227604
0.0026727
0.00310622
0.00357622
0.00408065
0.0046152
0.00517232
0.0057426
0.00630985
0.0068499
0.0073298
0.00770665
0.00791974
0.00788648
0.00750851
0.00671027
0.00555275
0.00436161
0.00315161
0.00149797
0.000383869
4.02449e-05
2.09435e-06
2.61835e-07
2.21919e-07
2.3007e-07
2.40582e-07
2.50276e-07
2.60477e-07
2.77301e-07
1.34524e-08
4.709e-08
6.02381e-07
3.72743e-06
1.4023e-05
3.85591e-05
8.54491e-05
0.00016177
0.000271887
0.000417176
0.000596966
0.00081005
0.00104286
0.00129926
0.00158776
0.00191078
0.00227007
0.00266697
0.00310178
0.00357358
0.0040812
0.00462161
0.0051879
0.00577065
0.00635667
0.00692586
0.00744724
0.00788217
0.00817825
0.00826282
0.00804175
0.00742063
0.00637637
0.00511309
0.0039799
0.00241744
0.000921688
0.000169117
1.31876e-05
7.15865e-07
2.26915e-07
2.22129e-07
2.31101e-07
2.41489e-07
2.50201e-07
2.60161e-07
2.77295e-07
1.33645e-08
4.66765e-08
5.96941e-07
3.69736e-06
1.3934e-05
3.83806e-05
8.50785e-05
0.000160939
0.000270384
0.000415038
0.000594421
0.000806993
0.00103953
0.00129477
0.00158259
0.00190544
0.00226475
0.00266154
0.0030971
0.00357098
0.00408146
0.00462653
0.00520087
0.00579566
0.00639823
0.00699179
0.00755005
0.00803693
0.00840449
0.00859065
0.00851058
0.00806289
0.00717588
0.00593373
0.00468703
0.00340687
0.00169204
0.000496393
6.43138e-05
4.0816e-06
3.37638e-07
2.18837e-07
2.22921e-07
2.32233e-07
2.42089e-07
2.49898e-07
2.59917e-07
2.7729e-07
1.33086e-08
4.63814e-08
5.92537e-07
3.66898e-06
1.3838e-05
3.81748e-05
8.47534e-05
0.000160368
0.00026923
0.000413108
0.000591845
0.000804107
0.00103694
0.00129143
0.00157798
0.0019003
0.00225966
0.00265674
0.00309273
0.00356806
0.00408161
0.00463075
0.0052118
0.0058174
0.00643569
0.00705055
0.00764034
0.00817306
0.0086044
0.00887833
0.00892112
0.00863603
0.00792579
0.00678398
0.00544931
0.00426477
0.002616
0.00106073
0.000229048
2.18913e-05
1.28142e-06
2.41597e-07
2.17489e-07
2.23931e-07
2.33349e-07
2.42432e-07
2.49282e-07
2.59754e-07
2.77288e-07
1.3258e-08
4.62352e-08
5.89675e-07
3.64682e-06
1.37486e-05
3.79535e-05
8.43766e-05
0.00015987
0.000268459
0.000411662
0.000589553
0.000801194
0.00103447
0.00128898
0.00157463
0.00189576
0.00225472
0.00265229
0.00308906
0.00356549
0.00408138
0.00463487
0.00522175
0.00583617
0.00646859
0.00710367
0.00772068
0.00829303
0.00878134
0.00913301
0.00928247
0.00914319
0.00861151
0.00762207
0.0062828
0.0049879
0.00361591
0.0018383
0.000585196
9.02814e-05
6.91738e-06
4.85818e-07
2.19201e-07
2.17722e-07
2.25157e-07
2.34456e-07
2.42421e-07
2.48537e-07
2.59659e-07
2.77286e-07
1.31966e-08
4.60599e-08
5.88751e-07
3.63393e-06
1.36817e-05
3.775e-05
8.39721e-05
0.000159291
0.000267799
0.000410737
0.000587896
0.000798652
0.00103197
0.00128662
0.0015723
0.00189258
0.00225038
0.00264787
0.00308553
0.00356345
0.0040812
0.00463816
0.005231
0.00585324
0.00649743
0.0071507
0.00779337
0.00840006
0.00893829
0.00935963
0.00960377
0.00959208
0.00922802
0.00841488
0.0071639
0.00575324
0.00452312
0.00276673
0.00116148
0.000276879
3.13595e-05
2.13114e-06
2.76099e-07
2.14587e-07
2.18426e-07
2.26443e-07
2.35523e-07
2.42259e-07
2.47817e-07
2.59616e-07
2.77285e-07
1.31171e-08
4.5839e-08
5.87306e-07
3.63234e-06
1.36477e-05
3.76048e-05
8.36068e-05
0.000158671
0.00026702
0.000409958
0.000586896
0.000796899
0.00102987
0.00128417
0.0015701
0.00189052
0.00224769
0.00264411
0.003082
0.00356141
0.00408145
0.00464105
0.00523889
0.00586903
0.00652367
0.00719254
0.00785848
0.00849708
0.00907859
0.00956157
0.00989027
0.00999228
0.0097787
0.00914647
0.00803884
0.00660096
0.00525975
0.00377504
0.00193988
0.000648302
0.00011115
9.97858e-06
7.18887e-07
2.2479e-07
2.13924e-07
2.19461e-07
2.27828e-07
2.36336e-07
2.4158e-07
2.47278e-07
2.59597e-07
2.77285e-07
1.30148e-08
4.55153e-08
5.85248e-07
3.62763e-06
1.36533e-05
3.75447e-05
8.33605e-05
0.000158123
0.000266193
0.000409023
0.000586071
0.000795938
0.00102869
0.00128218
0.00156779
0.00188863
0.00224627
0.00264213
0.00307924
0.00355927
0.00408175
0.00464438
0.00524611
0.00588332
0.00654814
0.00723058
0.00791666
0.00858456
0.00920557
0.00974244
0.010146
0.010351
0.0102721
0.00981096
0.0088778
0.00750782
0.00602787
0.00475107
0.00286612
0.00122627
0.000310301
3.90292e-05
3.0274e-06
3.33455e-07
2.13312e-07
2.1432e-07
2.20684e-07
2.29141e-07
2.36573e-07
2.40527e-07
2.46952e-07
2.59588e-07
2.77284e-07
1.29058e-08
4.51021e-08
5.8177e-07
3.61926e-06
1.36477e-05
3.75837e-05
8.32866e-05
0.000157781
0.000265485
0.000408031
0.000585048
0.000795175
0.00102828
0.00128129
0.00156601
0.00188664
0.00224485
0.00264165
0.00307837
0.0035578
0.00408151
0.00464758
0.00525358
0.00589658
0.00657034
0.00726588
0.00796976
0.00866344
0.00932043
0.00990632
0.0103759
0.010672
0.010716
0.0104124
0.00966045
0.00842219
0.00689294
0.00550294
0.00387918
0.00199405
0.000685728
0.000125669
1.24746e-05
9.59737e-07
2.36242e-07
2.11266e-07
2.15128e-07
2.22103e-07
2.30348e-07
2.36476e-07
2.39306e-07
2.46788e-07
2.59584e-07
2.77284e-07
1.27965e-08
4.46776e-08
5.77153e-07
3.60246e-06
1.36294e-05
3.75934e-05
8.34099e-05
0.000157734
0.000265085
0.000407221
0.000583976
0.000794169
0.00102805
0.00128131
0.00156554
0.00188531
0.00224337
0.00264125
0.00307916
0.00355861
0.004082
0.00465031
0.00526046
0.00590935
0.00659116
0.00729837
0.00801907
0.00873535
0.00942486
0.0100552
0.0105844
0.0109603
0.0111147
0.0109563
0.0103796
0.00930917
0.00781694
0.0062915
0.00493942
0.00291009
0.00125197
0.000328083
4.43595e-05
3.76965e-06
3.92077e-07
2.1388e-07
2.11413e-07
2.16012e-07
2.23544e-07
2.3139e-07
2.35652e-07
2.38294e-07
2.46726e-07
2.59583e-07
2.77284e-07
1.27016e-08
4.42694e-08
5.72417e-07
3.57882e-06
1.35813e-05
3.75709e-05
8.34704e-05
0.000158008
0.000265127
0.000406834
0.00058315
0.000793116
0.00102758
0.00128152
0.00156615
0.00188534
0.00224268
0.00264057
0.00308005
0.0035612
0.00408494
0.00465368
0.00526681
0.00592127
0.00661094
0.00732863
0.00806445
0.00880196
0.0095199
0.0101903
0.0107743
0.0112224
0.0114736
0.0114464
0.0110366
0.0101454
0.00876533
0.00715207
0.00572182
0.00392972
0.00199875
0.000694353
0.000132324
1.42098e-05
1.16345e-06
2.48138e-07
2.09513e-07
2.11881e-07
2.17306e-07
2.25033e-07
2.31749e-07
2.34388e-07
2.37678e-07
2.46702e-07
2.59583e-07
2.77284e-07
1.26295e-08
4.39324e-08
5.67907e-07
3.55439e-06
1.35084e-05
3.74729e-05
8.34674e-05
0.000158177
0.000265637
0.000407049
0.000582876
0.000792386
0.00102695
0.00128128
0.00156682
0.00188663
0.00224353
0.00264062
0.00308055
0.00356358
0.00408974
0.00465921
0.00527377
0.00593228
0.00662957
0.00735715
0.0081065
0.0088634
0.00960781
0.0103136
0.0109473
0.0114617
0.0117993
0.0118884
0.0116332
0.0109236
0.00969619
0.00808059
0.00651909
0.00500085
0.00290366
0.00123801
0.000328087
4.63781e-05
4.285e-06
4.42936e-07
2.14751e-07
2.09031e-07
2.12677e-07
2.18752e-07
2.26233e-07
2.31682e-07
2.32693e-07
2.37377e-07
2.46694e-07
2.59583e-07
2.77284e-07
1.25879e-08
4.36944e-08
5.64346e-07
3.53119e-06
1.34325e-05
3.73117e-05
8.33128e-05
0.000158232
0.000265972
0.000407874
0.000583363
0.000792345
0.00102673
0.00128106
0.00156698
0.00188801
0.00224574
0.0026426
0.00308169
0.00356553
0.00409414
0.00466665
0.00528281
0.00594369
0.00664663
0.00738406
0.00814585
0.00892002
0.00968895
0.0104276
0.0111051
0.0116796
0.0120969
0.0122898
0.0121739
0.0116395
0.0105897
0.00905379
0.00736548
0.00589437
0.00391883
0.0019611
0.000675311
0.000129945
1.4721e-05
1.30136e-06
2.58879e-07
2.07848e-07
2.09462e-07
2.13653e-07
2.20241e-07
2.27332e-07
2.3063e-07
2.31318e-07
2.37268e-07
2.46692e-07
2.59583e-07
2.77284e-07
1.25692e-08
4.35908e-08
5.62008e-07
3.51363e-06
1.33612e-05
3.71428e-05
8.30326e-05
0.000158037
0.000266144
0.000408451
0.000584603
0.000793233
0.00102734
0.00128129
0.00156724
0.00188898
0.00224811
0.00264613
0.00308492
0.00356834
0.00409815
0.00467389
0.00529381
0.00595716
0.00666362
0.00740902
0.00818301
0.00897327
0.00976397
0.0105329
0.0112507
0.011879
0.0123693
0.0126571
0.0126652
0.0122932
0.0114305
0.0100311
0.00829801
0.00670211
0.00499607
0.00284328
0.00119319
0.000311414
4.47456e-05
4.38893e-06
4.75593e-07
2.15625e-07
2.06975e-07
2.0999e-07
2.14814e-07
2.21784e-07
2.27651e-07
2.29087e-07
2.30501e-07
2.37236e-07
2.46691e-07
2.59583e-07
2.77284e-07
1.2563e-08
4.35677e-08
5.61423e-07
3.50293e-06
1.33092e-05
3.69863e-05
8.274e-05
0.000157632
0.000265943
0.000408802
0.000585496
0.000794985
0.00102895
0.00128244
0.00156807
0.00188985
0.00224999
0.00264974
0.00308998
0.00357314
0.00410317
0.00468075
0.00530484
0.0059729
0.00668285
0.00743337
0.00821772
0.00902348
0.00983442
0.0106304
0.0113852
0.0120628
0.0126179
0.0129934
0.0131147
0.0128892
0.012208
0.0109836
0.00929038
0.0075472
0.00602388
0.00384276
0.00188188
0.00063585
0.000120275
1.39796e-05
1.31537e-06
2.64842e-07
2.06651e-07
2.07219e-07
2.10747e-07
2.16195e-07
2.22986e-07
2.27498e-07
2.26989e-07
2.30152e-07
2.37227e-07
2.46692e-07
2.59584e-07
2.77284e-07
1.25591e-08
4.3586e-08
5.618e-07
3.50254e-06
1.32813e-05
3.68773e-05
8.24696e-05
0.000157213
0.000265443
0.000408648
0.000586086
0.000796285
0.0010314
0.0012848
0.00156986
0.00189129
0.00225165
0.00265258
0.00309526
0.00358015
0.00411015
0.00468847
0.00531512
0.0059885
0.00670427
0.00745972
0.00825126
0.00907012
0.00990032
0.0107214
0.01151
0.0122324
0.0128467
0.0133007
0.0135267
0.0134348
0.0129227
0.0118839
0.0103093
0.0084778
0.00684843
0.00492076
0.00272683
0.00111964
0.000283531
4.0583e-05
4.11229e-06
4.745e-07
2.1558e-07
2.0528e-07
2.07859e-07
2.11503e-07
2.17661e-07
2.2394e-07
2.26048e-07
2.2546e-07
2.30043e-07
2.37226e-07
2.46693e-07
2.59584e-07
2.77284e-07
1.25432e-08
4.35838e-08
5.62612e-07
3.5076e-06
1.3289e-05
3.68293e-05
8.22982e-05
0.000156835
0.000264931
0.000408107
0.000586049
0.000797194
0.00103327
0.00128812
0.00157304
0.00189396
0.00225391
0.00265513
0.00309948
0.00358738
0.00411954
0.00469831
0.00532594
0.00600286
0.00672523
0.00748791
0.00828614
0.00911492
0.00996153
0.0108068
0.011626
0.0123902
0.0130591
0.0135841
0.0139035
0.0139355
0.0135799
0.0127255
0.0113078
0.00947416
0.00770747
0.00604761
0.00370078
0.00176149
0.000577065
0.000106122
1.24733e-05
1.22635e-06
2.62607e-07
2.05279e-07
2.05553e-07
2.08306e-07
2.12727e-07
2.19047e-07
2.24e-07
2.24025e-07
2.24653e-07
2.30017e-07
2.37227e-07
2.46694e-07
2.59584e-07
2.77284e-07
1.25165e-08
4.35269e-08
5.63059e-07
3.51512e-06
1.33155e-05
3.68694e-05
8.22421e-05
0.000156619
0.000264485
0.000407567
0.000585541
0.00079735
0.00103463
0.00129065
0.0015774
0.00189814
0.00225772
0.00265859
0.00310323
0.00359347
0.00412905
0.0047106
0.00533937
0.00601739
0.00674479
0.0075154
0.00832296
0.00916028
0.0100205
0.0108864
0.0117347
0.0125367
0.0132566
0.0138468
0.0142503
0.0143948
0.0141848
0.0135078
0.01227
0.0105124
0.00861253
0.00695501
0.00477202
0.00255829
0.00101722
0.000246359
3.49114e-05
3.62614e-06
4.48467e-07
2.13667e-07
2.03688e-07
2.0596e-07
2.091e-07
2.14052e-07
2.20176e-07
2.23467e-07
2.2174e-07
2.24376e-07
2.30012e-07
2.37229e-07
2.46695e-07
2.59585e-07
2.77285e-07
1.24765e-08
4.34175e-08
5.62701e-07
3.52001e-06
1.33503e-05
3.69563e-05
8.23637e-05
0.000156597
0.000264281
0.000407131
0.000585067
0.000796967
0.00103513
0.00129254
0.00158074
0.00190365
0.00226325
0.00266384
0.00310822
0.00359912
0.00413743
0.00472294
0.00535512
0.00603499
0.0067643
0.00754137
0.00835875
0.0092075
0.0100791
0.0109622
0.0118366
0.0126737
0.0134396
0.014091
0.0145722
0.0148177
0.014741
0.014232
0.0131802
0.0115588
0.00960607
0.0078211
0.0059027
0.00349697
0.00160558
0.000500778
8.87048e-05
1.05e-05
1.08227e-06
2.54958e-07
2.03606e-07
2.03748e-07
2.06532e-07
2.10003e-07
2.15605e-07
2.20895e-07
2.21362e-07
2.20349e-07
2.24307e-07
2.30013e-07
2.37231e-07
2.46696e-07
2.59585e-07
2.77285e-07
1.24212e-08
4.3243e-08
5.61593e-07
3.51996e-06
1.33744e-05
3.70617e-05
8.25707e-05
0.000156864
0.000264354
0.000407018
0.000584734
0.000796659
0.00103519
0.00129346
0.00158336
0.00190813
0.00227006
0.00267101
0.00311508
0.00360587
0.0041453
0.00473405
0.0053708
0.006055
0.00678685
0.00756733
0.00839284
0.00925349
0.0101389
0.011037
0.0119333
0.0128023
0.0136109
0.014318
0.0148722
0.0152105
0.0152537
0.0149011
0.0140349
0.0125809
0.0106561
0.00872838
0.00700861
0.00454645
0.00234702
0.000891113
0.000202926
2.82599e-05
3.00589e-06
4.08438e-07
2.10874e-07
2.02037e-07
2.04221e-07
2.07071e-07
2.11154e-07
2.1684e-07
2.20503e-07
2.1898e-07
2.19779e-07
2.24295e-07
2.30016e-07
2.37232e-07
2.46697e-07
2.59586e-07
2.77285e-07
1.23547e-08
4.30038e-08
5.59577e-07
3.5151e-06
1.33803e-05
3.71377e-05
8.28142e-05
0.000157269
0.000264846
0.000407267
0.000584811
0.000796536
0.00103539
0.00129385
0.00158481
0.00191159
0.0022758
0.00267948
0.00312399
0.00361441
0.00415397
0.00474424
0.00538536
0.00607488
0.00681221
0.00759608
0.00842659
0.00929731
0.010197
0.0111119
0.0120276
0.0129244
0.0137712
0.0145296
0.0151509
0.0155759
0.0157298
0.0155194
0.0148315
0.0135637
0.0117405
0.00970388
0.00789493
0.00567487
0.00323573
0.00142354
0.000413832
6.99441e-05
8.27861e-06
9.02885e-07
2.44107e-07
2.01927e-07
2.02228e-07
2.04645e-07
2.07517e-07
2.12428e-07
2.17855e-07
2.19514e-07
2.16915e-07
2.19632e-07
2.24295e-07
2.30018e-07
2.37234e-07
2.46699e-07
2.59587e-07
2.77286e-07
1.22805e-08
4.27262e-08
5.56653e-07
3.50463e-06
1.33681e-05
3.71658e-05
8.29906e-05
0.000157723
0.000265525
0.000408065
0.000585329
0.000796914
0.00103574
0.00129448
0.00158557
0.00191377
0.00228029
0.00268667
0.00313473
0.00362552
0.0041648
0.00475539
0.00539865
0.00609379
0.00683735
0.00762761
0.00846241
0.00934036
0.0102525
0.0111845
0.0121208
0.0130418
0.0139229
0.0147277
0.0154106
0.0159154
0.0161723
0.0160931
0.015571
0.0144936
0.0128189
0.0107592
0.00881087
0.00684923
0.00424883
0.00210168
0.000750604
0.000158339
2.15276e-05
2.33468e-06
3.60306e-07
2.07427e-07
2.0067e-07
2.02657e-07
2.04977e-07
2.08407e-07
2.1384e-07
2.18075e-07
2.16543e-07
2.15969e-07
2.19608e-07
2.24298e-07
2.30021e-07
2.37237e-07
2.467e-07
2.59588e-07
2.77286e-07
1.22059e-08
4.24225e-08
5.53232e-07
3.48843e-06
1.33354e-05
3.71456e-05
8.30665e-05
0.000158053
0.000266259
0.00040909
0.000586523
0.000797814
0.00103672
0.00129535
0.00158663
0.00191513
0.00228344
0.00269258
0.00314385
0.00363878
0.00417865
0.0047691
0.00541297
0.00611114
0.00686102
0.00765895
0.00850102
0.00938484
0.0103065
0.011254
0.0122107
0.0131567
0.014068
0.0149152
0.015654
0.016232
0.0165837
0.0166262
0.0162575
0.0153634
0.0138649
0.011855
0.00976849
0.00789408
0.00535392
0.00292493
0.00122252
0.000325522
5.2195e-05
6.14209e-06
7.17351e-07
2.31552e-07
2.00246e-07
2.00836e-07
2.03057e-07
2.05506e-07
2.09603e-07
2.14699e-07
2.16534e-07
2.14136e-07
2.15705e-07
2.19607e-07
2.24301e-07
2.30025e-07
2.37239e-07
2.46701e-07
2.59589e-07
2.77287e-07
1.21304e-08
4.21152e-08
5.49423e-07
3.4691e-06
1.32815e-05
3.7072e-05
8.30457e-05
0.000158214
0.000266793
0.000410164
0.000587968
0.000799503
0.00103826
0.00129683
0.00158816
0.00191673
0.00228557
0.00269669
0.00315124
0.00365002
0.00419454
0.00478599
0.00543007
0.00612916
0.00688309
0.00768836
0.00853977
0.00943226
0.0103617
0.0113212
0.012297
0.0132674
0.0142091
0.0150934
0.0158839
0.0165286
0.0169669
0.0171213
0.0168955
0.0161749
0.0148584
0.0129626
0.0107885
0.0088163
0.00652108
0.00388008
0.00182932
0.000603761
0.000117239
1.55231e-05
1.72002e-06
3.12684e-07
2.03736e-07
1.99256e-07
2.01202e-07
2.03463e-07
2.06366e-07
2.10922e-07
2.14917e-07
2.147e-07
2.1274e-07
2.1566e-07
2.1961e-07
2.24306e-07
2.30028e-07
2.37241e-07
2.46703e-07
2.5959e-07
2.77287e-07
1.20585e-08
4.18149e-08
5.45576e-07
3.44737e-06
1.32157e-05
3.69417e-05
8.29142e-05
0.000158204
0.000267066
0.000410941
0.000589436
0.00080145
0.0010406
0.00129906
0.00159038
0.00191891
0.00228789
0.00269958
0.00315649
0.00365918
0.00420836
0.00480502
0.00545056
0.00615004
0.00690565
0.00771578
0.00857618
0.00947934
0.0104196
0.0113894
0.01238
0.0133738
0.0143444
0.0152656
0.0161011
0.0168074
0.0173256
0.0175823
0.0174879
0.0169318
0.0157975
0.0140432
0.0118609
0.0097647
0.00773357
0.00494353
0.00257309
0.00100768
0.000242789
3.69159e-05
4.32372e-06
5.54857e-07
2.19706e-07
1.98494e-07
1.99436e-07
2.01549e-07
2.03975e-07
2.0725e-07
2.12103e-07
2.1492e-07
2.11603e-07
2.12331e-07
2.15657e-07
2.19615e-07
2.2431e-07
2.30031e-07
2.37243e-07
2.46705e-07
2.59591e-07
2.77288e-07
1.19918e-08
4.15316e-08
5.41798e-07
3.42493e-06
1.31405e-05
3.67813e-05
8.26666e-05
0.000158005
0.000267087
0.000411359
0.000590497
0.000803374
0.00104313
0.00130211
0.00159332
0.001922
0.00229086
0.00270287
0.00316046
0.00366607
0.00421997
0.00482206
0.00547329
0.0061747
0.00693072
0.00774377
0.0086099
0.00952417
0.0104767
0.0114597
0.0124634
0.0134763
0.0144748
0.0154296
0.0163093
0.0170709
0.0176624
0.0180136
0.0180396
0.0176356
0.0166821
0.0150927
0.0129594
0.010736
0.00874667
0.00609272
0.00345263
0.00153769
0.000459011
8.21567e-05
1.05908e-05
1.21684e-06
2.72643e-07
2.0032e-07
1.97907e-07
1.99787e-07
2.01966e-07
2.04255e-07
2.08589e-07
2.12898e-07
2.12073e-07
2.09947e-07
2.1226e-07
2.15661e-07
2.19619e-07
2.24313e-07
2.30034e-07
2.37246e-07
2.46707e-07
2.59593e-07
2.77289e-07
1.19331e-08
4.12739e-08
5.38217e-07
3.40282e-06
1.30629e-05
3.65961e-05
8.23564e-05
0.000157611
0.000266829