/*--------------------------------*- C++ -*----------------------------------*\
| =========                 |                                                 |
| \\      /  F ield         | OpenFOAM: The Open Source CFD Toolbox           |
|  \\    /   O peration     | Version:  v2012                                 |
|   \\  /    A nd           | Website:  www.openfoam.com                      |
|    \\/     M anipulation  |                                                 |
\*---------------------------------------------------------------------------*/
FoamFile
{
    version     2.0;
    format      ascii;
    class       volScalarField;
    location    "2000";
    object      omega;
}
// * * * * * * * * * * * * * * * * * * * * * * * * * * * * * * * * * * * * * //

dimensions      [0 0 -1 0 0 0 0];


internalField   nonuniform List<scalar> 
39402
(
1.09856e+09
1.34117e+09
2.82473e+08
1.6495e+09
2.48042e+08
1.58248e+08
1.71459e+09
2.91811e+08
9.42773e+07
1.24492e+08
1.76401e+09
3.16162e+08
1.04721e+08
5.29388e+07
1.10792e+08
1.77612e+09
3.27036e+08
1.15048e+08
5.45818e+07
3.69449e+07
1.01579e+08
1.77399e+09
3.30778e+08
1.19598e+08
5.86283e+07
3.46671e+07
2.95809e+07
9.56479e+07
1.77673e+09
3.31382e+08
1.21481e+08
6.11485e+07
3.6377e+07
2.52129e+07
2.57365e+07
9.11736e+07
1.77217e+09
3.32479e+08
1.22057e+08
6.23175e+07
3.79579e+07
2.57355e+07
2.02123e+07
2.34817e+07
8.73387e+07
1.77113e+09
3.32073e+08
1.2267e+08
6.27665e+07
3.8753e+07
2.67472e+07
1.99849e+07
1.736e+07
2.19806e+07
8.38614e+07
1.7729e+09
3.32158e+08
1.22692e+08
6.31692e+07
3.90965e+07
2.72864e+07
2.05683e+07
1.65924e+07
1.56182e+07
2.08373e+07
8.06336e+07
1.77632e+09
3.32623e+08
1.22838e+08
6.32537e+07
3.93814e+07
2.75369e+07
2.08942e+07
1.68063e+07
1.44471e+07
1.44673e+07
1.98148e+07
7.76078e+07
1.77822e+09
3.33322e+08
1.23072e+08
6.33748e+07
3.94653e+07
2.77398e+07
2.10538e+07
1.69355e+07
1.43243e+07
1.30059e+07
1.36221e+07
1.87466e+07
7.47614e+07
1.78155e+09
3.33729e+08
1.23365e+08
6.35143e+07
3.95569e+07
2.78065e+07
2.11895e+07
1.70039e+07
1.42668e+07
1.2577e+07
1.19757e+07
1.29175e+07
1.78127e+07
7.20739e+07
1.78506e+09
3.3438e+08
1.23549e+08
6.3669e+07
3.96436e+07
2.78721e+07
2.12331e+07
1.7079e+07
1.42452e+07
1.23478e+07
1.12752e+07
1.11827e+07
1.22548e+07
1.71431e+07
6.95229e+07
1.78793e+09
3.35054e+08
1.23819e+08
6.37704e+07
3.97312e+07
2.79246e+07
2.12752e+07
1.70968e+07
1.42637e+07
1.22391e+07
1.0895e+07
1.02515e+07
1.05106e+07
1.15608e+07
1.66816e+07
6.70969e+07
1.79096e+09
3.3561e+08
1.24091e+08
6.39102e+07
3.97862e+07
2.79728e+07
2.13045e+07
1.71181e+07
1.42552e+07
1.2204e+07
1.07058e+07
9.74444e+06
9.40469e+06
9.86923e+06
1.07604e+07
1.63599e+07
6.47806e+07
1.79497e+09
3.36189e+08
1.24321e+08
6.40485e+07
3.98617e+07
2.79995e+07
2.13279e+07
1.71298e+07
1.42567e+07
1.21693e+07
1.06215e+07
9.48483e+06
8.79855e+06
8.66834e+06
9.18686e+06
9.87548e+06
1.61348e+07
6.25604e+07
1.79886e+09
3.36947e+08
1.24558e+08
6.41673e+07
3.99356e+07
2.80383e+07
2.13363e+07
1.71371e+07
1.42544e+07
1.21519e+07
1.05619e+07
9.35671e+06
8.48036e+06
7.99665e+06
7.99473e+06
8.43535e+06
9.04038e+06
1.60135e+07
6.03873e+07
1.8021e+09
3.37679e+08
1.24858e+08
6.42892e+07
3.99983e+07
2.80749e+07
2.1353e+07
1.71338e+07
1.42504e+07
1.21372e+07
1.05268e+07
9.27408e+06
8.31391e+06
7.63318e+06
7.29897e+06
7.35396e+06
7.64623e+06
8.32642e+06
1.60041e+07
5.82561e+07
1.8049e+09
3.38289e+08
1.25149e+08
6.44407e+07
4.00629e+07
2.81053e+07
2.13678e+07
1.71367e+07
1.4239e+07
1.2124e+07
1.05013e+07
9.22303e+06
8.20998e+06
7.4344e+06
6.90519e+06
6.67932e+06
6.73709e+06
6.89781e+06
7.73885e+06
1.60637e+07
5.61586e+07
1.80788e+09
3.38826e+08
1.25394e+08
6.45877e+07
4.01438e+07
2.8137e+07
2.13789e+07
1.71387e+07
1.42331e+07
1.21064e+07
1.04806e+07
9.18811e+06
8.14458e+06
7.31111e+06
6.68038e+06
6.27088e+06
6.11882e+06
6.14149e+06
6.24431e+06
7.26076e+06
1.56947e+07
5.42507e+07
1.81116e+09
3.39394e+08
1.25614e+08
6.47127e+07
4.02222e+07
2.81787e+07
2.13912e+07
1.71385e+07
1.42273e+07
1.20942e+07
1.04582e+07
9.16136e+06
8.10114e+06
7.23287e+06
6.54027e+06
6.02655e+06
5.71133e+06
5.59971e+06
5.57694e+06
5.68467e+06
6.83215e+06
1.52108e+07
5.26796e+07
1.81379e+09
3.39994e+08
1.25844e+08
6.48265e+07
4.02888e+07
2.82187e+07
2.14101e+07
1.71396e+07
1.42205e+07
1.20832e+07
1.04414e+07
9.13538e+06
8.06903e+06
7.18156e+06
6.45048e+06
5.87245e+06
5.45462e+06
5.21014e+06
5.10973e+06
5.06642e+06
5.19223e+06
6.4635e+06
1.47105e+07
5.16389e+07
1.81631e+09
3.40502e+08
1.26083e+08
6.49441e+07
4.03494e+07
2.82521e+07
2.1428e+07
1.71455e+07
1.42151e+07
1.20722e+07
1.04266e+07
9.11536e+06
8.0401e+06
7.1445e+06
6.3918e+06
5.77244e+06
5.28968e+06
4.94993e+06
4.75351e+06
4.65907e+06
4.61147e+06
4.74314e+06
6.16804e+06
1.41865e+07
5.12036e+07
1.81887e+09
3.40962e+08
1.26287e+08
6.50644e+07
4.04118e+07
2.82821e+07
2.14418e+07
1.71507e+07
1.42136e+07
1.20628e+07
1.04124e+07
9.09778e+06
8.01766e+06
7.11292e+06
6.35007e+06
5.70688e+06
5.181e+06
4.77826e+06
4.50031e+06
4.33872e+06
4.26558e+06
4.20332e+06
4.32343e+06
5.93432e+06
1.36508e+07
5.12373e+07
1.82158e+09
3.41425e+08
1.26473e+08
6.5168e+07
4.04752e+07
2.83131e+07
2.14538e+07
1.71533e+07
1.42117e+07
1.20568e+07
1.04e+07
9.08128e+06
7.99821e+06
7.08848e+06
6.31597e+06
5.66061e+06
5.1091e+06
4.66276e+06
4.32702e+06
4.09864e+06
3.97711e+06
3.91889e+06
3.83368e+06
3.93071e+06
5.74601e+06
1.31502e+07
5.14727e+07
1.82396e+09
3.41914e+08
1.26654e+08
6.52616e+07
4.05292e+07
2.83444e+07
2.14663e+07
1.71549e+07
1.4208e+07
1.20507e+07
1.03908e+07
9.06688e+06
7.98025e+06
7.06762e+06
6.28968e+06
5.62397e+06
5.05843e+06
4.58525e+06
4.20712e+06
3.92778e+06
3.74833e+06
3.66402e+06
3.59433e+06
3.49467e+06
3.5765e+06
5.58177e+06
1.27074e+07
5.18954e+07
1.8261e+09
3.42336e+08
1.2684e+08
6.53504e+07
4.05769e+07
2.83698e+07
2.14789e+07
1.71569e+07
1.42037e+07
1.20433e+07
1.03819e+07
9.05555e+06
7.96466e+06
7.04867e+06
6.26765e+06
5.59588e+06
5.01924e+06
4.53042e+06
4.12501e+06
3.80573e+06
3.57943e+06
3.44615e+06
3.37767e+06
3.28254e+06
3.16961e+06
3.28227e+06
5.44068e+06
1.23463e+07
5.24203e+07
1.82803e+09
3.42695e+08
1.27e+08
6.54408e+07
4.06213e+07
2.83914e+07
2.14878e+07
1.71589e+07
1.41999e+07
1.20358e+07
1.0372e+07
9.04476e+06
7.95215e+06
7.03235e+06
6.24794e+06
5.57271e+06
4.98928e+06
4.48863e+06
4.0664e+06
3.72005e+06
3.45515e+06
3.27799e+06
3.17575e+06
3.1093e+06
2.98087e+06
2.84692e+06
3.07248e+06
5.32125e+06
1.20435e+07
5.31366e+07
1.82986e+09
3.4301e+08
1.27132e+08
6.55162e+07
4.06657e+07
2.84104e+07
2.14938e+07
1.71582e+07
1.41961e+07
1.20286e+07
1.03622e+07
9.03333e+06
7.9404e+06
7.01914e+06
6.23113e+06
5.5523e+06
4.96492e+06
4.45678e+06
4.02201e+06
3.65811e+06
3.36571e+06
3.15061e+06
3.01126e+06
2.93005e+06
2.85121e+06
2.69512e+06
2.53018e+06
2.94093e+06
5.23305e+06
1.19235e+07
5.39526e+07
1.83104e+09
3.43293e+08
1.27242e+08
6.55765e+07
4.07013e+07
2.84291e+07
2.14981e+07
1.71556e+07
1.41902e+07
1.20215e+07
1.03529e+07
9.0222e+06
7.92836e+06
7.00699e+06
6.21747e+06
5.53505e+06
4.94381e+06
4.43112e+06
3.98819e+06
3.61121e+06
3.29989e+06
3.05685e+06
2.8825e+06
2.77341e+06
2.70202e+06
2.59775e+06
2.4235e+06
2.24228e+06
2.86781e+06
5.16238e+06
1.18782e+07
5.48185e+07
1.83248e+09
3.43469e+08
1.27338e+08
6.56241e+07
4.0727e+07
2.84418e+07
2.15019e+07
1.71516e+07
1.41829e+07
1.20128e+07
1.03438e+07
9.01169e+06
7.91673e+06
6.99477e+06
6.20514e+06
5.52105e+06
4.92611e+06
4.40924e+06
3.96117e+06
3.57541e+06
3.25001e+06
2.98649e+06
2.78542e+06
2.64561e+06
2.55872e+06
2.48462e+06
2.34843e+06
2.1539e+06
2.01966e+06
2.82711e+06
5.08744e+06
1.18185e+07
5.56248e+07
1.83404e+09
3.43654e+08
1.2739e+08
6.5662e+07
4.07444e+07
2.84482e+07
2.15014e+07
1.7147e+07
1.41745e+07
1.20031e+07
1.03333e+07
9.00143e+06
7.90583e+06
6.98308e+06
6.19297e+06
5.50864e+06
4.91174e+06
4.39101e+06
3.9384e+06
3.54692e+06
3.21192e+06
2.93316e+06
2.7114e+06
2.54655e+06
2.43498e+06
2.36135e+06
2.27166e+06
2.11092e+06
1.88318e+06
1.88122e+06
2.79835e+06
5.00883e+06
1.17405e+07
5.63006e+07
1.83577e+09
3.43859e+08
1.27438e+08
6.56776e+07
4.07553e+07
2.84487e+07
2.14967e+07
1.71394e+07
1.41657e+07
1.19924e+07
1.03222e+07
8.99018e+06
7.89528e+06
6.97222e+06
6.18143e+06
5.4966e+06
4.89922e+06
4.37623e+06
3.91958e+06
3.52316e+06
3.18176e+06
2.89242e+06
2.6549e+06
2.46957e+06
2.33567e+06
2.24574e+06
2.1753e+06
2.06066e+06
1.88267e+06
1.63157e+06
1.81017e+06
2.77181e+06
4.93107e+06
1.16567e+07
5.68448e+07
1.83668e+09
3.44081e+08
1.27487e+08
6.56873e+07
4.07526e+07
2.84446e+07
2.14876e+07
1.71287e+07
1.41543e+07
1.19815e+07
1.03103e+07
8.97838e+06
7.88398e+06
6.96183e+06
6.17081e+06
5.4853e+06
4.8873e+06
4.36352e+06
3.9043e+06
3.50366e+06
3.15686e+06
2.86032e+06
2.61156e+06
2.41023e+06
2.25676e+06
2.14848e+06
2.07283e+06
1.99452e+06
1.85621e+06
1.65147e+06
1.43565e+06
1.77572e+06
2.74319e+06
4.86203e+06
1.15825e+07
5.73318e+07
1.83677e+09
3.44148e+08
1.27537e+08
6.56949e+07
4.07452e+07
2.84316e+07
2.14752e+07
1.71148e+07
1.41409e+07
1.19685e+07
1.02982e+07
8.96611e+06
7.87223e+06
6.95085e+06
6.16076e+06
5.47501e+06
4.87626e+06
4.35168e+06
3.89132e+06
3.48781e+06
3.13653e+06
2.83407e+06
2.57744e+06
2.36441e+06
2.19508e+06
2.06899e+06
1.9807e+06
1.911e+06
1.81474e+06
1.65958e+06
1.41878e+06
1.31734e+06
1.7548e+06
2.71303e+06
4.8033e+06
1.15312e+07
5.76603e+07
1.83693e+09
3.44066e+08
1.27527e+08
6.57001e+07
4.07353e+07
2.8415e+07
2.14566e+07
1.70983e+07
1.4125e+07
1.19539e+07
1.02844e+07
8.95362e+06
7.86018e+06
6.93956e+06
6.15034e+06
5.46537e+06
4.86627e+06
4.34083e+06
3.87945e+06
3.47446e+06
3.12001e+06
2.81273e+06
2.54969e+06
2.32828e+06
2.14703e+06
2.00572e+06
1.90243e+06
1.82797e+06
1.75474e+06
1.63787e+06
1.46294e+06
1.20996e+06
1.26029e+06
1.73819e+06
2.68206e+06
4.75156e+06
1.15522e+07
5.78088e+07
1.83779e+09
3.43975e+08
1.27461e+08
6.5675e+07
4.07224e+07
2.83959e+07
2.14354e+07
1.70772e+07
1.4107e+07
1.19375e+07
1.02696e+07
8.93976e+06
7.84805e+06
6.92805e+06
6.13961e+06
5.4555e+06
4.85702e+06
4.33111e+06
3.86873e+06
3.46246e+06
3.10616e+06
2.79538e+06
2.52722e+06
2.299e+06
2.10898e+06
1.95581e+06
1.83863e+06
1.75335e+06
1.6858e+06
1.59966e+06
1.46764e+06
1.26046e+06
1.05895e+06
1.23422e+06
1.72469e+06
2.6558e+06
4.73057e+06
1.16775e+07
5.78838e+07
1.83866e+09
3.43999e+08
1.27384e+08
6.56208e+07
4.06917e+07
2.83742e+07
2.14116e+07
1.70541e+07
1.40855e+07
1.19194e+07
1.02535e+07
8.92511e+06
7.83472e+06
6.91654e+06
6.12881e+06
5.44542e+06
4.84771e+06
4.32219e+06
3.85917e+06
3.45176e+06
3.09393e+06
2.78093e+06
2.50894e+06
2.27533e+06
2.07815e+06
1.91601e+06
1.78744e+06
1.69044e+06
1.61799e+06
1.54952e+06
1.44789e+06
1.29952e+06
1.06354e+06
974521
1.22079e+06
1.71366e+06
2.64027e+06
4.734e+06
1.18371e+07
5.79257e+07
1.83898e+09
3.44023e+08
1.27343e+08
6.55591e+07
4.06442e+07
2.83411e+07
2.13859e+07
1.70288e+07
1.40622e+07
1.18985e+07
1.02359e+07
8.90943e+06
7.82063e+06
6.90406e+06
6.11807e+06
5.43537e+06
4.83826e+06
4.31336e+06
3.85052e+06
3.4423e+06
3.08317e+06
2.76833e+06
2.49376e+06
2.25607e+06
2.05326e+06
1.8837e+06
1.74619e+06
1.63882e+06
1.55785e+06
1.49241e+06
1.41497e+06
1.30126e+06
1.12534e+06
901628
936422
1.2124e+06
1.70509e+06
2.62816e+06
4.74043e+06
1.19925e+07
5.79425e+07
1.83842e+09
3.43937e+08
1.27298e+08
6.5512e+07
4.0591e+07
2.82976e+07
2.13523e+07
1.70018e+07
1.40371e+07
1.18761e+07
1.0216e+07
8.89259e+06
7.80561e+06
6.89084e+06
6.10654e+06
5.42544e+06
4.82892e+06
4.30448e+06
3.84209e+06
3.4338e+06
3.07372e+06
2.75735e+06
2.4807e+06
2.24011e+06
2.03296e+06
1.85756e+06
1.71254e+06
1.59658e+06
1.50693e+06
1.43753e+06
1.3725e+06
1.28386e+06
1.15565e+06
948073
798711
920510
1.20676e+06
1.69925e+06
2.61812e+06
4.7467e+06
1.21324e+07
5.79534e+07
1.83757e+09
3.43688e+08
1.2721e+08
6.54608e+07
4.0545e+07
2.82499e+07
2.13118e+07
1.69691e+07
1.40106e+07
1.18522e+07
1.01948e+07
8.87361e+06
7.78959e+06
6.87674e+06
6.09429e+06
5.41484e+06
4.81975e+06
4.29578e+06
3.8337e+06
3.42568e+06
3.0653e+06
2.74779e+06
2.46938e+06
2.22648e+06
2.01617e+06
1.83622e+06
1.6852e+06
1.5618e+06
1.4644e+06
1.38886e+06
1.32601e+06
1.25475e+06
1.15657e+06
1.00463e+06
790221
748721
913280
1.20317e+06
1.69562e+06
2.60683e+06
4.75042e+06
1.22559e+07
5.79586e+07
1.83765e+09
3.43389e+08
1.27061e+08
6.53876e+07
4.04955e+07
2.82059e+07
2.12683e+07
1.69315e+07
1.39795e+07
1.18269e+07
1.01723e+07
8.8536e+06
7.77175e+06
6.86179e+06
6.08123e+06
5.40356e+06
4.81004e+06
4.28731e+06
3.82556e+06
3.41769e+06
3.05737e+06
2.73935e+06
2.4596e+06
2.21479e+06
2.00192e+06
1.81856e+06
1.6628e+06
1.53337e+06
1.42889e+06
1.34699e+06
1.28162e+06
1.21958e+06
1.14045e+06
1.02943e+06
847506
679858
728672
909588
1.20074e+06
1.69267e+06
2.59793e+06
4.75925e+06
1.23521e+07
5.79581e+07
1.83824e+09
3.43233e+08
1.26891e+08
6.52842e+07
4.0433e+07
2.81593e+07
2.12269e+07
1.68917e+07
1.3945e+07
1.17979e+07
1.01485e+07
8.83248e+06
7.75304e+06
6.84528e+06
6.06747e+06
5.39158e+06
4.79969e+06
4.27839e+06
3.81766e+06
3.41001e+06
3.04968e+06
2.7315e+06
2.45103e+06
2.20474e+06
1.98978e+06
1.80364e+06
1.64424e+06
1.50997e+06
1.39958e+06
1.31134e+06
1.24173e+06
1.18211e+06
1.11575e+06
1.029e+06
897339
700652
621751
721092
907390
1.19907e+06
1.68883e+06
2.60017e+06
4.7781e+06
1.24217e+07
5.79583e+07
1.83884e+09
3.43167e+08
1.26769e+08
6.51692e+07
4.03533e+07
2.81042e+07
2.11832e+07
1.68532e+07
1.39086e+07
1.17662e+07
1.01218e+07
8.81033e+06
7.73338e+06
6.82798e+06
6.05233e+06
5.37898e+06
4.78874e+06
4.26889e+06
3.80946e+06
3.4026e+06
3.04237e+06
2.724e+06
2.44318e+06
2.19597e+06
1.97938e+06
1.79097e+06
1.6286e+06
1.49051e+06
1.37527e+06
1.28149e+06
1.20678e+06
1.14594e+06
1.08702e+06
1.01528e+06
917152
758187
591299
597718
717973
906013
1.19823e+06
1.68339e+06
2.60415e+06
4.81126e+06
1.24643e+07
5.79545e+07
1.83869e+09
3.43105e+08
1.26673e+08
6.50749e+07
4.02666e+07
2.80386e+07
2.11339e+07
1.68129e+07
1.38731e+07
1.17331e+07
1.00927e+07
8.78552e+06
7.71281e+06
6.80988e+06
6.03645e+06
5.36518e+06
4.77724e+06
4.2589e+06
3.80073e+06
3.39501e+06
3.03537e+06
2.71695e+06
2.43577e+06
2.18804e+06
1.97036e+06
1.78017e+06
1.61537e+06
1.47413e+06
1.35496e+06
1.25647e+06
1.17691e+06
1.11284e+06
1.05683e+06
994887
916907
800503
624509
529979
588978
716299
905202
1.19742e+06
1.68079e+06
2.60814e+06
4.85492e+06
1.24799e+07
5.79482e+07
1.83764e+09
3.42904e+08
1.26577e+08
6.49918e+07
4.01905e+07
2.79685e+07
2.10779e+07
1.67684e+07
1.38361e+07
1.17005e+07
1.00624e+07
8.75872e+06
7.68988e+06
6.79099e+06
6.01991e+06
5.3507e+06
4.7647e+06
4.24841e+06
3.79159e+06
3.38696e+06
3.02829e+06
2.71026e+06
2.42889e+06
2.18066e+06
1.96229e+06
1.77084e+06
1.60412e+06
1.46029e+06
1.33783e+06
1.2354e+06
1.15148e+06
1.0837e+06
1.0271e+06
971429
905951
817683
676616
520816
503333
585675
715379
904270
1.19612e+06
1.6777e+06
2.61112e+06
4.90596e+06
1.24851e+07
5.79406e+07
1.83471e+09
3.42546e+08
1.26432e+08
6.4908e+07
4.01199e+07
2.79046e+07
2.10187e+07
1.67193e+07
1.37959e+07
1.16667e+07
1.00326e+07
8.73091e+06
7.6652e+06
6.77e+06
6.00265e+06
5.33564e+06
4.75152e+06
4.23705e+06
3.78203e+06
3.37857e+06
3.0208e+06
2.70358e+06
2.42242e+06
2.17387e+06
1.95485e+06
1.76256e+06
1.59442e+06
1.44855e+06
1.32337e+06
1.21757e+06
1.12984e+06
1.05836e+06
999737
947052
889263
818466
713584
555804
459739
493449
584298
714734
903736
1.19531e+06
1.67598e+06
2.61491e+06
4.94543e+06
1.24883e+07
5.79311e+07
1.83245e+09
3.41859e+08
1.26232e+08
6.48e+07
4.00486e+07
2.78435e+07
2.09636e+07
1.66681e+07
1.37524e+07
1.16304e+07
1.00017e+07
8.70357e+06
7.63969e+06
6.74739e+06
5.98356e+06
5.31996e+06
4.73784e+06
4.22506e+06
3.77169e+06
3.3698e+06
3.01305e+06
2.69657e+06
2.41604e+06
2.16754e+06
1.94808e+06
1.75501e+06
1.58588e+06
1.43845e+06
1.3111e+06
1.20247e+06
1.1114e+06
1.03645e+06
975162
922822
870038
810021
729731
602419
460079
431963
489979
583641
714146
903477
1.19342e+06
1.67869e+06
2.62621e+06
4.96863e+06
1.24896e+07
5.79209e+07
1.83088e+09
3.41299e+08
1.2592e+08
6.46666e+07
3.99633e+07
2.77818e+07
2.09098e+07
1.66197e+07
1.37073e+07
1.15914e+07
9.9687e+06
8.67529e+06
7.61455e+06
6.72406e+06
5.96294e+06
5.30264e+06
4.72365e+06
4.21265e+06
3.76078e+06
3.36037e+06
3.005e+06
2.68936e+06
2.40941e+06
2.16138e+06
1.94183e+06
1.7482e+06
1.57816e+06
1.4296e+06
1.30056e+06
1.18966e+06
1.09571e+06
1.01756e+06
953430
899932
850694
796422
731643
635880
493417
402374
421487
488720
583166
713693
903147
1.19239e+06
1.68339e+06
2.64619e+06
4.979e+06
1.24899e+07
5.79101e+07
1.83089e+09
3.40848e+08
1.25652e+08
6.44812e+07
3.98649e+07
2.77115e+07
2.08557e+07
1.6572e+07
1.36643e+07
1.15512e+07
9.93351e+06
8.64515e+06
7.58868e+06
6.70106e+06
5.94168e+06
5.28389e+06
4.70798e+06
4.1998e+06
3.74954e+06
3.35045e+06
2.99638e+06
2.68192e+06
2.40266e+06
2.15506e+06
1.93582e+06
1.74196e+06
1.57126e+06
1.42167e+06
1.29136e+06
1.17867e+06
1.08236e+06
1.00138e+06
934390
879034
830638
780982
725318
651594
535244
406797
375554
417886
488122
582773
712982
902666
1.19212e+06
1.68676e+06
2.66883e+06
4.98118e+06
1.24906e+07
5.79018e+07
1.83196e+09
3.40679e+08
1.25422e+08
6.43174e+07
3.97386e+07
2.76341e+07
2.07959e+07
1.6524e+07
1.36218e+07
1.15127e+07
9.89745e+06
8.61319e+06
7.56115e+06
6.67749e+06
5.92067e+06
5.26454e+06
4.69092e+06
4.18563e+06
3.7379e+06
3.34023e+06
2.9873e+06
2.674e+06
2.39572e+06
2.14868e+06
1.92972e+06
1.73603e+06
1.56497e+06
1.41462e+06
1.28317e+06
1.16909e+06
1.0709e+06
987529
917880
860289
811451
765106
714683
654562
566090
437001
354343
365287
416616
487772
582298
712560
902738
1.19288e+06
1.69105e+06
2.68654e+06
4.98116e+06
1.24907e+07
5.78937e+07
1.83343e+09
3.4071e+08
1.2529e+08
6.41718e+07
3.96251e+07
2.75402e+07
2.07322e+07
1.64721e+07
1.35789e+07
1.14746e+07
9.86273e+06
8.58054e+06
7.53201e+06
6.65239e+06
5.89924e+06
5.24541e+06
4.67335e+06
4.17016e+06
3.72508e+06
3.32967e+06
2.978e+06
2.66569e+06
2.3884e+06
2.14215e+06
1.92363e+06
1.73009e+06
1.55906e+06
1.40823e+06
1.27594e+06
1.16061e+06
1.06092e+06
975599
903636
843740
793637
748799
702312
650444
581723
474273
359756
329766
361758
416109
487476
581893
712816
902547
1.1965e+06
1.69876e+06
2.69463e+06
4.98134e+06
1.249e+07
5.78877e+07
1.83477e+09
3.40819e+08
1.25229e+08
6.40729e+07
3.95214e+07
2.7455e+07
2.06581e+07
1.64178e+07
1.35332e+07
1.14361e+07
9.82836e+06
8.54895e+06
7.50233e+06
6.62585e+06
5.87641e+06
5.2259e+06
4.65594e+06
4.15418e+06
3.71105e+06
3.31809e+06
2.9684e+06
2.65718e+06
2.38075e+06
2.13533e+06
1.91744e+06
1.72422e+06
1.55321e+06
1.40228e+06
1.2694e+06
1.15313e+06
1.05212e+06
965215
891293
829277
777490
732776
689133
642612
586073
503029
385826
313405
320298
360591
415840
487170
581879
712777
903174
1.2004e+06
1.7098e+06
2.69621e+06
4.9819e+06
1.24897e+07
5.78827e+07
1.83539e+09
3.40891e+08
1.25196e+08
6.40069e+07
3.94437e+07
2.73758e+07
2.05906e+07
1.6357e+07
1.3486e+07
1.13954e+07
9.7937e+06
8.51783e+06
7.47354e+06
6.59883e+06
5.85221e+06
5.20517e+06
4.63823e+06
4.13835e+06
3.69657e+06
3.30537e+06
2.95791e+06
2.64841e+06
2.37294e+06
2.12824e+06
1.91106e+06
1.71831e+06
1.5475e+06
1.39649e+06
1.26338e+06
1.14643e+06
1.04439e+06
956079
880520
816627
763109
717639
676000
632496
584264
519161
418775
317846
291817
317103
360197
415614
487046
581631
713543
904661
1.20407e+06
1.72056e+06
2.69555e+06
4.9823e+06
1.24898e+07
5.78774e+07
1.8348e+09
3.40841e+08
1.2515e+08
6.39554e+07
3.93843e+07
2.73125e+07
2.0527e+07
1.63011e+07
1.34342e+07
1.13538e+07
9.75717e+06
8.48646e+06
7.44525e+06
6.57264e+06
5.82763e+06
5.18316e+06
4.61942e+06
4.1223e+06
3.68218e+06
3.29225e+06
2.9464e+06
2.6389e+06
2.36491e+06
2.12104e+06
1.90444e+06
1.71227e+06
1.54181e+06
1.39088e+06
1.25758e+06
1.1403e+06
1.03748e+06
948068
871046
805518
750338
703775
662636
621584
578513
525272
446118
339366
278070
283569
316105
359989
415490
486886
581883
714180
907377
1.20807e+06
1.72487e+06
2.69509e+06
4.98283e+06
1.24905e+07
5.7878e+07
1.83284e+09
3.40598e+08
1.25065e+08
6.38987e+07
3.93336e+07
2.72601e+07
2.04739e+07
1.62481e+07
1.33866e+07
1.13087e+07
9.71992e+06
8.45346e+06
7.41675e+06
6.54688e+06
5.80377e+06
5.16081e+06
4.59943e+06
4.10527e+06
3.66762e+06
3.27918e+06
2.9345e+06
2.62847e+06
2.35626e+06
2.11366e+06
1.89775e+06
1.70605e+06
1.53604e+06
1.38534e+06
1.25204e+06
1.13445e+06
1.03119e+06
940930
862746
795731
739004
691186
649886
610851
570329
525204
462951
368486
280627
259855
280842
315766
359878
415333
486792
582344
715606
911060
1.21419e+06
1.72489e+06
2.69528e+06
4.9835e+06
1.24913e+07
5.78786e+07
1.82988e+09
3.40126e+08
1.24919e+08
6.38237e+07
3.92797e+07
2.72133e+07
2.04277e+07
1.62025e+07
1.33412e+07
1.12671e+07
9.67992e+06
8.41979e+06
7.38686e+06
6.52094e+06
5.78032e+06
5.13902e+06
4.57908e+06
4.08712e+06
3.65222e+06
3.26595e+06
2.92261e+06
2.61767e+06
2.34678e+06
2.10576e+06
1.89093e+06
1.6998e+06
1.53016e+06
1.3798e+06
1.24661e+06
1.12892e+06
1.02527e+06
934471
855360
787144
728965
679830
637920
599982
561540
521166
470614
394457
297825
247475
253050
279989
315640
359802
415307
486702
583151
717247
914182
1.21992e+06
1.72368e+06
2.69581e+06
4.984e+06
1.2492e+07
5.78795e+07
1.82689e+09
3.39492e+08
1.24699e+08
6.37232e+07
3.92169e+07
2.71644e+07
2.03852e+07
1.61616e+07
1.33014e+07
1.12273e+07
9.64298e+06
8.38395e+06
7.35629e+06
6.49386e+06
5.75673e+06
5.1177e+06
4.55924e+06
4.06862e+06
3.63577e+06
3.25202e+06
2.91059e+06
2.60684e+06
2.33696e+06
2.09712e+06
1.88367e+06
1.69345e+06
1.52428e+06
1.37418e+06
1.24122e+06
1.12354e+06
1.01971e+06
928430
848699
779505
720124
669665
626853
589235
552567
515079
472042
411891
322931
248122
232766
250835
279727
315585
359832
415207
487050
584250
720004
917108
1.22094e+06
1.72316e+06
2.69641e+06
4.9847e+06
1.24933e+07
5.78838e+07
1.82402e+09
3.38838e+08
1.24426e+08
6.35901e+07
3.91411e+07
2.71111e+07
2.03414e+07
1.61234e+07
1.3265e+07
1.11921e+07
9.60774e+06
8.35074e+06
7.32388e+06
6.46608e+06
5.73216e+06
5.09629e+06
4.53988e+06
4.05056e+06
3.61897e+06
3.23713e+06
2.89797e+06
2.59593e+06
2.32709e+06
2.08817e+06
1.87578e+06
1.68675e+06
1.51833e+06
1.36861e+06
1.23582e+06
1.11827e+06
1.01435e+06
922803
842517
772627
712242
660641
616776
578890
543778
507883
469848
421023
347191
261004
221231
227416
250171
279649
315617
359794
415415
487550
585791
723115
920610
1.21966e+06
1.72333e+06
2.6971e+06
4.9857e+06
1.2495e+07
5.78914e+07
1.82241e+09
3.38249e+08
1.24151e+08
6.34348e+07
3.90496e+07
2.70505e+07
2.0295e+07
1.60841e+07
1.32306e+07
1.11596e+07
9.57623e+06
8.31915e+06
7.29379e+06
6.43662e+06
5.7069e+06
5.07399e+06
4.52045e+06
4.03301e+06
3.60254e+06
3.2219e+06
2.88449e+06
2.58448e+06
2.31717e+06
2.07917e+06
1.86762e+06
1.67951e+06
1.51212e+06
1.363e+06
1.2305e+06
1.11304e+06
1.00915e+06
917426
836792
766278
705138
652554
607707
569230
534696
500359
465519
424138
365117
281745
219871
209752
225720
249983
279642
315580
359871
415451
488781
587651
725531
922816
1.21838e+06
1.7238e+06
2.69783e+06
4.98678e+06
1.24969e+07
5.79e+07
1.82137e+09
3.3786e+08
1.23903e+08
6.32805e+07
3.89472e+07
2.69823e+07
2.0245e+07
1.60435e+07
1.31955e+07
1.11287e+07
9.54706e+06
8.29073e+06
7.26524e+06
6.40922e+06
5.6801e+06
5.05102e+06
4.50022e+06
4.01536e+06
3.5866e+06
3.20695e+06
2.8707e+06
2.57228e+06
2.30678e+06
2.07013e+06
1.85939e+06
1.67204e+06
1.50543e+06
1.35719e+06
1.22517e+06
1.10792e+06
1.00404e+06
912255
831362
760425
698605
645240
599498
560345
525906
492976
459732
423717
375821
303878
228551
198700
205724
225238
249949
279614
315594
359943
416115
490024
590405
727904
921739
1.21815e+06
1.7244e+06
2.69867e+06
4.98811e+06
1.25e+07
5.79125e+07
1.82145e+09
3.37598e+08
1.23728e+08
6.31415e+07
3.88469e+07
2.69083e+07
2.01909e+07
1.60008e+07
1.31596e+07
1.10972e+07
9.51916e+06
8.26436e+06
7.23946e+06
6.38327e+06
5.65506e+06
5.02664e+06
4.47932e+06
3.99703e+06
3.57059e+06
3.19247e+06
2.85712e+06
2.5598e+06
2.29573e+06
2.06069e+06
1.85113e+06
1.6645e+06
1.49858e+06
1.35099e+06
1.21969e+06
1.10282e+06
999073
907227
826185
754915
692605
638516
592020
552167
517543
485654
453598
420834
380832
322085
244859
195424
190099
204491
225125
249916
279615
315640
360240
416878
491877
593015
729246
920043
1.21847e+06
1.72504e+06
2.6996e+06
4.98963e+06
1.25033e+07
5.79235e+07
1.82226e+09
3.37534e+08
1.23602e+08
6.30387e+07
3.87565e+07
2.68372e+07
2.01342e+07
1.59562e+07
1.31224e+07
1.10652e+07
9.49078e+06
8.23908e+06
7.21559e+06
6.35979e+06
5.63141e+06
5.00373e+06
4.45715e+06
3.97804e+06
3.55401e+06
3.17795e+06
2.84396e+06
2.54745e+06
2.28443e+06
2.05067e+06
1.84252e+06
1.65692e+06
1.49163e+06
1.34467e+06
1.21392e+06
1.09763e+06
994157
902377
821201
749701
686990
632356
585126
544622
509640
478247
447380
416683
381911
334294
264406
200326
179383
187201
204161
225086
249949
279704
315863
360540
418065
493797
594940
729119
919297
1.21896e+06
1.72579e+06
2.70061e+06
4.9914e+06
1.2507e+07
5.79415e+07
1.8239e+09
3.37616e+08
1.23546e+08
6.29605e+07
3.86874e+07
2.67729e+07
2.00802e+07
1.59104e+07
1.30844e+07
1.10324e+07
9.46207e+06
8.21353e+06
7.19262e+06
6.33814e+06
5.60994e+06
4.98212e+06
4.4362e+06
3.95787e+06
3.53678e+06
3.16298e+06
2.83081e+06
2.53551e+06
2.2732e+06
2.04043e+06
1.83342e+06
1.64907e+06
1.48467e+06
1.33826e+06
1.20805e+06
1.0922e+06
989200
897606
816432
744729
681713
626620
578808
537613
502202
470974
441430
411752
380662
341025
282351
212380
174514
173227
186348
204075
225124
250043
279903
316032
360873
419459
496668
596597
727160
919422
1.21956e+06
1.72656e+06
2.70176e+06
4.99336e+06
1.25115e+07
5.7961e+07
1.8259e+09
3.37837e+08
1.23544e+08
6.29171e+07
3.86326e+07
2.67223e+07
2.00314e+07
1.58673e+07
1.30459e+07
1.09992e+07
9.43289e+06
8.18763e+06
7.16955e+06
6.31734e+06
5.5903e+06
4.96246e+06
4.41644e+06
3.93874e+06
3.51845e+06
3.14736e+06
2.81728e+06
2.52359e+06
2.26234e+06
2.03022e+06
1.82413e+06
1.64079e+06
1.47748e+06
1.33183e+06
1.20212e+06
1.08674e+06
984076
892840
811773
740008
676722
621259
572946
531171
495193
463908
435239
406807
377880
343705
295745
228786
176247
162892
171245
186115
204090
225216
250230
280058
316207
361877
421377
498184
595697
726006
919854
1.22018e+06
1.72746e+06
2.70301e+06
4.99544e+06
1.25171e+07
5.79822e+07
1.82792e+09
3.3812e+08
1.23593e+08
6.29006e+07
3.85979e+07
2.66809e+07
1.99923e+07
1.58283e+07
1.301e+07
1.09659e+07
9.40339e+06
8.16141e+06
7.14616e+06
6.29645e+06
5.57146e+06
4.94461e+06
4.39845e+06
3.92067e+06
3.50098e+06
3.13073e+06
2.80313e+06
2.51135e+06
2.25152e+06
2.02034e+06
1.81485e+06
1.63235e+06
1.46993e+06
1.32523e+06
1.19617e+06
1.08122e+06
978954
887965
807157
735427
672019
616228
567490
525200
488702
457083
428888
401645
374237
343797
304138
245626
184310
156906
158701
170677
186084
204157
225349
250363
280255
316733
363272
423040
498893
594086
725910
920361
1.22085e+06
1.72845e+06
2.70449e+06
4.99803e+06
1.25235e+07
5.80075e+07
1.82987e+09
3.38433e+08
1.23667e+08
6.29094e+07
3.85786e+07
2.66522e+07
1.99592e+07
1.57965e+07
1.29775e+07
1.0935e+07
9.37402e+06
8.13489e+06
7.12249e+06
6.27531e+06
5.55259e+06
4.92756e+06
4.38221e+06
3.90422e+06
3.48449e+06
3.11481e+06
2.7881e+06
2.49853e+06
2.24046e+06
2.01051e+06
1.80586e+06
1.62391e+06
1.46224e+06
1.31831e+06
1.19007e+06
1.07569e+06
973789
883130
802485
730928
667492
611516
562402
519653
482673
450675
422483
396351
369727
342218
308492
259665
197092
156042
148868
157413
170549
186127
204260
225462
250525
280581
317744
364659
425173
499389
592563
726257
920915
1.22163e+06
1.72947e+06
2.70609e+06
5.00103e+06
1.25306e+07
5.80355e+07
1.8317e+09
3.38731e+08
1.23753e+08
6.29304e+07
3.85743e+07
2.66332e+07
1.99348e+07
1.57691e+07
1.29507e+07
1.0907e+07
9.3468e+06
8.10861e+06
7.09848e+06
6.25392e+06
5.53343e+06
4.91051e+06
4.36675e+06
3.88947e+06
3.46945e+06
3.09976e+06
2.77359e+06
2.48498e+06
2.22885e+06
2.00051e+06
1.79692e+06
1.61571e+06
1.45455e+06
1.31131e+06
1.18373e+06
1.07003e+06
968622
878275
797893
726419
663075
607017
557666
514500
477059
444685
416348
390583
365027
339380
309968
269583
211893
160465
142204
146154
157076
170559
186203
204350
225604
250760
281119
318576
366884
426633
497335
592280
726717
921540
1.22245e+06
1.73063e+06
2.70785e+06
5.00419e+06
1.25388e+07
5.80656e+07
1.83321e+09
3.39016e+08
1.23837e+08
6.29601e+07
3.85773e+07
2.66236e+07
1.99168e+07
1.5748e+07
1.29273e+07
1.08838e+07
9.32219e+06
8.08427e+06
7.07475e+06
6.2321e+06
5.51412e+06
4.89321e+06
4.35138e+06
3.87544e+06
3.45604e+06
3.08601e+06
2.75985e+06
2.47178e+06
2.21665e+06
1.99e+06
1.78786e+06
1.60757e+06
1.44708e+06
1.30429e+06
1.17732e+06
1.06418e+06
963357
873423
793301
722024
658698
602656
553168
509724
471849
439061
410553
384944
360060
335752
309488
275648
225820
169465
139310
136921
145371
157025
170619
186286
204489
225815
251140
281368
320186
368686
425802
495848
592557
727223
922212
1.22335e+06
1.73191e+06
2.70986e+06
5.00791e+06
1.25478e+07
5.81002e+07
1.83437e+09
3.39247e+08
1.23919e+08
6.29895e+07
3.85853e+07
2.66184e+07
1.99052e+07
1.57312e+07
1.29087e+07
1.08634e+07
9.30164e+06
8.06231e+06
7.05273e+06
6.21059e+06
5.49426e+06
4.87575e+06
4.33574e+06
3.86156e+06
3.44329e+06
3.07381e+06
2.7473e+06
2.45926e+06
2.20467e+06
1.97902e+06
1.77835e+06
1.59935e+06
1.43965e+06
1.29745e+06
1.17089e+06
1.0583e+06
957946
868498
788722
717657
654460
598376
548840
505212
467031
433828
405013
379449
355321
331533
307598
278593
236948
181474
140630
129944
135253
145190
157063
170694
186416
204681
226158
251331
282562
321712
369519
424685
495406
592982
727789
922945
1.22434e+06
1.73332e+06
2.71213e+06
5.01219e+06
1.25582e+07
5.81369e+07
1.83515e+09
3.39425e+08
1.23987e+08
6.30193e+07
3.85936e+07
2.66171e+07
1.98967e+07
1.57193e+07
1.28935e+07
1.08468e+07
9.28352e+06
8.04384e+06
7.0329e+06
6.19049e+06
5.47465e+06
4.85768e+06
4.32e+06
3.84746e+06
3.43077e+06
3.06223e+06
2.73619e+06
2.44779e+06
2.19327e+06
1.96814e+06
1.76846e+06
1.59073e+06
1.43216e+06
1.29065e+06
1.16462e+06
1.05241e+06
952527
863466
784094
713313
650279
594263
544628
500897
462495
428984
399828
374168
350541
327363
304762
279233
244584
194363
146057
125656
126661
134803
145188
157128
170805
186579
204966
226333
251922
283725
323534
369927
422931
495645
593459
728386
923746
1.22543e+06
1.7349e+06
2.71466e+06
5.01695e+06
1.25701e+07
5.81786e+07
1.83548e+09
3.39543e+08
1.24037e+08
6.30427e+07
3.86041e+07
2.66163e+07
1.98909e+07
1.57095e+07
1.28819e+07
1.0833e+07
9.2686e+06
8.02756e+06
7.01615e+06
6.17241e+06
5.45622e+06
4.83976e+06