/*--------------------------------*- C++ -*----------------------------------*\
| =========                 |                                                 |
| \\      /  F ield         | OpenFOAM: The Open Source CFD Toolbox           |
|  \\    /   O peration     | Version:  v2012                                 |
|   \\  /    A nd           | Website:  www.openfoam.com                      |
|    \\/     M anipulation  |                                                 |
\*---------------------------------------------------------------------------*/
FoamFile
{
    version     2.0;
    format      ascii;
    class       volScalarField;
    location    "2000";
    object      p;
}
// * * * * * * * * * * * * * * * * * * * * * * * * * * * * * * * * * * * * * //

dimensions      [1 -1 -2 0 0 0 0];


internalField   nonuniform List<scalar> 
39402
(
4472.91
3650.42
4475.88
2980.71
3652.29
4446.73
2873.67
2980.8
3654.93
4418.92
2797.44
2873.68
2980.78
3657.8
4389.15
2781
2797.43
2873.69
2980.81
3659.69
4362.26
2786.65
2781
2797.42
2873.71
2980.87
3661.63
4331.14
2784.54
2786.65
2780.99
2797.41
2873.72
2980.97
3663.82
4296.81
2794.29
2784.54
2786.64
2780.98
2797.39
2873.75
2981.09
3666.6
4260.13
2799.06
2794.29
2784.54
2786.64
2780.97
2797.37
2873.79
2981.19
3669.9
4219.26
2799.35
2799.06
2794.28
2784.54
2786.63
2780.96
2797.34
2873.83
2981.3
3674.14
4176.9
2797.03
2799.35
2799.06
2794.28
2784.54
2786.63
2780.95
2797.33
2873.89
2981.54
3679.27
4132.36
2797.29
2797.04
2799.35
2799.06
2794.28
2784.53
2786.62
2780.94
2797.3
2873.97
2981.74
3685.47
4085.78
2795.46
2797.29
2797.04
2799.36
2799.06
2794.28
2784.53
2786.61
2780.93
2797.31
2874.08
2982.01
3693.63
4036.9
2793.36
2795.46
2797.29
2797.04
2799.36
2799.05
2794.28
2784.53
2786.6
2780.93
2797.47
2874.21
2982.27
3703.53
3987.26
2792.29
2793.36
2795.47
2797.29
2797.04
2799.36
2799.06
2794.28
2784.52
2786.6
2780.92
2797.58
2874.49
2982.55
3715.12
3935.97
2791.02
2792.29
2793.37
2795.47
2797.3
2797.04
2799.37
2799.05
2794.28
2784.52
2786.59
2781
2797.65
2874.79
2983.03
3728.9
3883.59
2788.24
2791.02
2792.3
2793.37
2795.47
2797.3
2797.05
2799.37
2799.05
2794.28
2784.53
2786.59
2781.02
2797.78
2875.17
2983.56
3744.03
3829.54
2785.62
2788.24
2791.02
2792.3
2793.37
2795.48
2797.31
2797.05
2799.38
2799.05
2794.28
2784.54
2786.64
2781.09
2797.88
2875.63
2984.32
3762.04
3779.73
2784.09
2785.62
2788.24
2791.03
2792.3
2793.38
2795.49
2797.31
2797.06
2799.38
2799.05
2794.3
2784.55
2786.66
2781.19
2798.15
2876.25
2985.6
3779.43
3727.92
2782.98
2784.09
2785.61
2788.24
2791.03
2792.3
2793.38
2795.5
2797.32
2797.07
2799.39
2799.05
2794.31
2784.57
2786.71
2781.33
2798.43
2876.99
2987.32
3799.07
3695.6
2781.53
2782.98
2784.09
2785.61
2788.24
2791.03
2792.31
2793.39
2795.51
2797.33
2797.08
2799.4
2799.05
2794.32
2784.6
2786.78
2781.52
2798.79
2877.85
2990.45
3809.26
3666.24
2779.79
2781.54
2782.98
2784.09
2785.61
2788.24
2791.03
2792.31
2793.4
2795.52
2797.35
2797.09
2799.4
2799.05
2794.34
2784.65
2786.89
2781.75
2799.22
2878.74
2996.21
3810.63
3633.37
2778.59
2779.8
2781.54
2782.98
2784.09
2785.61
2788.24
2791.04
2792.32
2793.41
2795.54
2797.37
2797.11
2799.41
2799.06
2794.36
2784.73
2787.04
2782.05
2799.74
2879.7
3005.6
3800.42
3606.75
2777.68
2778.59
2779.8
2781.54
2782.99
2784.09
2785.61
2788.24
2791.04
2792.32
2793.42
2795.56
2797.39
2797.13
2799.43
2799.06
2794.4
2784.83
2787.25
2782.44
2800.4
2880.65
3022.76
3780.34
3564.25
2776.52
2777.68
2778.59
2779.8
2781.54
2782.99
2784.09
2785.6
2788.24
2791.05
2792.33
2793.44
2795.58
2797.41
2797.16
2799.44
2799.08
2794.44
2784.97
2787.52
2782.9
2801.26
2881.71
3046.65
3767.42
3494.61
2774.82
2776.52
2777.68
2778.59
2779.8
2781.55
2783
2784.09
2785.6
2788.24
2791.06
2792.34
2793.45
2795.61
2797.44
2797.19
2799.46
2799.1
2794.51
2785.16
2787.88
2783.42
2802.23
2882.92
3078.79
3748.15
3418.07
2773.46
2774.82
2776.52
2777.68
2778.59
2779.8
2781.56
2783.01
2784.09
2785.59
2788.24
2791.07
2792.35
2793.47
2795.64
2797.48
2797.23
2799.49
2799.13
2794.61
2785.41
2788.32
2783.98
2803.15
2884.57
3118.15
3739.36
3327.32
2772.4
2773.46
2774.82
2776.52
2777.68
2778.58
2779.8
2781.56
2783.02
2784.09
2785.58
2788.24
2791.08
2792.36
2793.49
2795.67
2797.52
2797.28
2799.53
2799.19
2794.75
2785.72
2788.87
2784.7
2803.85
2887.13
3167.47
3714.92
3235.97
2771.36
2772.4
2773.47
2774.83
2776.52
2777.68
2778.58
2779.8
2781.57
2783.03
2784.09
2785.58
2788.24
2791.09
2792.38
2793.52
2795.71
2797.58
2797.34
2799.58
2799.26
2794.93
2786.12
2789.49
2785.76
2804.13
2890.66
3222.96
3707.17
3134.82
2770.32
2771.36
2772.4
2773.47
2774.83
2776.52
2777.67
2778.58
2779.8
2781.58
2783.04
2784.09
2785.57
2788.24
2791.11
2792.4
2793.54
2795.76
2797.64
2797.41
2799.65
2799.38
2795.18
2786.61
2790.14
2787.28
2803.99
2896.24
3286.68
3701.3
3035.43
2769.81
2770.32
2771.36
2772.41
2773.47
2774.83
2776.52
2777.67
2778.58
2779.81
2781.6
2783.06
2784.1
2785.56
2788.25
2791.13
2792.42
2793.58
2795.81
2797.71
2797.5
2799.75
2799.53
2795.52
2787.19
2790.75
2789.1
2802.94
2903.28
3348.63
3687.36
2934.94
2768.95
2769.81
2770.32
2771.37
2772.41
2773.48
2774.83
2776.52
2777.67
2778.57
2779.81
2781.61
2783.08
2784.1
2785.55
2788.25
2791.15
2792.45
2793.62
2795.87
2797.8
2797.61
2799.88
2799.75
2795.95
2787.85
2791.53
2791.11
2803.14
2914.42
3407.1
3663.17
2838.84
2767.43
2768.95
2769.81
2770.32
2771.37
2772.42
2773.48
2774.83
2776.52
2777.67
2778.57
2779.81
2781.63
2783.09
2784.1
2785.55
2788.26
2791.18
2792.48
2793.66
2795.94
2797.9
2797.75
2800.06
2800.04
2796.49
2788.57
2792.76
2792.67
2804.73
2931.83
3460.84
3625.88
2750.43
2765.49
2767.43
2768.95
2769.81
2770.32
2771.37
2772.42
2773.49
2774.83
2776.52
2777.67
2778.57
2779.82
2781.64
2783.11
2784.1
2785.54
2788.28
2791.21
2792.53
2793.72
2796.02
2798.02
2797.92
2800.3
2800.42
2797.14
2789.19
2794.19
2793.27
2807.22
2957.59
3506.31
3578.75
2673.32
2764.55
2765.49
2767.43
2768.95
2769.81
2770.33
2771.38
2772.43
2773.5
2774.84
2776.52
2777.67
2778.57
2779.82
2781.66
2783.14
2784.11
2785.54
2788.3
2791.25
2792.58
2793.79
2796.12
2798.17
2798.14
2800.6
2800.91
2797.89
2790.04
2795.52
2793.44
2811.56
2991.39
3539.77
3521.94
2612.17
2764.51
2764.55
2765.49
2767.43
2768.95
2769.81
2770.33
2771.39
2772.44
2773.51
2774.84
2776.52
2777.66
2778.56
2779.83
2781.68
2783.16
2784.11
2785.55
2788.32
2791.3
2792.64
2793.87
2796.23
2798.34
2798.41
2800.99
2801.51
2798.69
2791.32
2796.55
2794.24
2817.12
3036.96
3554.51
3446.58
2574.16
2764.27
2764.52
2764.55
2765.49
2767.43
2768.95
2769.81
2770.33
2771.39
2772.46
2773.52
2774.84
2776.52
2777.66
2778.56
2779.84
2781.71
2783.19
2784.12
2785.55
2788.35
2791.36
2792.72
2793.98
2796.37
2798.55
2798.74
2801.47
2802.21
2799.5
2793.26
2795.43
2795.25
2828.64
3094.11
3545.08
3344.39
2555.88
2762.75
2764.27
2764.52
2764.55
2765.49
2767.44
2768.95
2769.81
2770.33
2771.4
2772.47
2773.53
2774.85
2776.52
2777.66
2778.56
2779.85
2781.73
2783.22
2784.14
2785.57
2788.39
2791.42
2792.81
2794.1
2796.54
2798.81
2799.14
2802.05
2802.99
2800.79
2794.97
2793.65
2796.23
2844.3
3169.75
3538.91
3212.13
2544.02
2760.87
2762.75
2764.27
2764.52
2764.55
2765.49
2767.44
2768.95
2769.8
2770.33
2771.42
2772.49
2773.54
2774.85
2776.52
2777.66
2778.57
2779.86
2781.76
2783.25
2784.16
2785.59
2788.43
2791.5
2792.93
2794.26
2796.75
2799.12
2799.62
2802.69
2803.71
2802.44
2797.01
2791.83
2797.75
2869.45
3233.37
3528.89
3075.82
2534.53
2759.68
2760.87
2762.76
2764.27
2764.52
2764.55
2765.49
2767.44
2768.95
2769.8
2770.34
2771.43
2772.51
2773.56
2774.85
2776.52
2777.66
2778.57
2779.87
2781.78
2783.28
2784.2
2785.63
2788.49
2791.59
2793.06
2794.45
2797
2799.5
2800.2
2803.42
2804.45
2804.35
2797.41
2789.33
2798.7
2898.83
3299.02
3505.66
2940.97
2527.17
2759.6
2759.68
2760.88
2762.76
2764.28
2764.52
2764.55
2765.49
2767.44
2768.95
2769.8
2770.34
2771.44
2772.53
2773.57
2774.86
2776.52
2777.67
2778.59
2779.89
2781.81
2783.32
2784.24
2785.68
2788.55
2791.7
2793.23
2794.68
2797.32
2799.96
2800.88
2804.04
2805.88
2806.12
2797.37
2787.12
2803.44
2946.5
3341.16
3460.11
2820.03
2521.42
2759.71
2759.6
2759.68
2760.88
2762.76
2764.28
2764.52
2764.55
2765.5
2767.44
2768.95
2769.8
2770.34
2771.46
2772.55
2773.59
2774.86
2776.52
2777.68
2778.6
2779.91
2781.85
2783.37
2784.29
2785.74
2788.64
2791.82
2793.43
2794.97
2797.71
2800.53
2801.67
2804.76
2806.98
2807.36
2796.33
2785.46
2809.78
2998.33
3385.59
3399.92
2718.1
2517.22
2758.43
2759.71
2759.6
2759.68
2760.88
2762.76
2764.28
2764.52
2764.55
2765.5
2767.44
2768.94
2769.79
2770.35
2771.48
2772.58
2773.61
2774.87
2776.52
2777.69
2778.62
2779.93
2781.88
2783.43
2784.37
2785.83
2788.74
2791.98
2793.67
2795.32
2798.17
2801.19
2802.48
2805.76
2808.64
2807.44
2796.88
2784.3
2819.34
3067.21
3393.58
3306.7
2641.11
2514.19
2756.24
2758.43
2759.71
2759.6
2759.68
2760.88
2762.76
2764.28
2764.51
2764.55
2765.5
2767.44
2768.94
2769.79
2770.36
2771.5
2772.61
2773.63
2774.88
2776.53
2777.71
2778.65
2779.97
2781.93
2783.49
2784.45
2785.94
2788.87
2792.16
2793.96
2795.73
2798.72
2801.97
2803.39
2807.18
2808.95
2807.32
2797.17
2784.51
2838.91
3136.14
3393.75
3184.7
2585.89
2512.19
2753.77
2756.24
2758.43
2759.71
2759.6
2759.69
2760.88
2762.76
2764.27
2764.51
2764.55
2765.5
2767.44
2768.94
2769.79
2770.36
2771.52
2772.63
2773.65
2774.89
2776.54
2777.73
2778.68
2780
2781.98
2783.57
2784.56
2786.07
2789.04
2792.38
2794.31
2796.23
2799.35
2802.75
2804.67
2808.38
2807.85
2806.25
2797.66
2788.49
2867.46
3212.01
3383.24
3034.08
2551.4
2510.88
2752.41
2753.77
2756.24
2758.44
2759.72
2759.61
2759.69
2760.88
2762.76
2764.27
2764.51
2764.55
2765.51
2767.45
2768.94
2769.79
2770.37
2771.54
2772.66
2773.67
2774.9
2776.55
2777.76
2778.72
2780.05
2782.04
2783.66
2784.7
2786.25
2789.24
2792.65
2794.73
2796.81
2800.04
2803.61
2806.37
2809.59
2806.47
2805.47
2798.87
2793.19
2917.03
3254.58
3364.48
2881.68
2533.11
2510.06
2752.29
2752.41
2753.78
2756.24
2758.44
2759.72
2759.61
2759.69
2760.89
2762.76
2764.27
2764.51
2764.56
2765.51
2767.45
2768.94
2769.79
2770.38
2771.57
2772.7
2773.69
2774.91
2776.57
2777.79
2778.77
2780.11
2782.11
2783.77
2784.87
2786.47
2789.49
2792.99
2795.23
2797.48
2800.74
2804.64
2807.98
2809.13
2805.24
2803.38
2798.23
2796.98
2978.03
3307.11
3311.46
2743.84
2522.92
2509.56
2754.98
2752.3
2752.41
2753.78
2756.24
2758.44
2759.72
2759.61
2759.69
2760.89
2762.76
2764.27
2764.51
2764.56
2765.51
2767.45
2768.94
2769.79
2770.39
2771.6
2772.73
2773.72
2774.93
2776.6
2777.84
2778.83
2780.18
2782.2
2783.89
2785.07
2786.73
2789.8
2793.39
2795.83
2798.21
2801.43
2806.04
2809.74
2808.64
2803.68
2800.78
2798.62
2813.73
3048.09
3310.36
3224.25
2642.49
2516.54
2509.28
2756.56
2754.98
2752.3
2752.41
2753.78
2756.25
2758.44
2759.72
2759.61
2759.69
2760.89
2762.76
2764.27
2764.51
2764.56
2765.52
2767.46
2768.94
2769.79
2770.41
2771.63
2772.77
2773.75
2774.96
2776.63
2777.89
2778.9
2780.26
2782.3
2784.04
2785.31
2787.06
2790.19
2793.89
2796.52
2799.01
2802.4
2807.24
2809.95
2808.09
2802.37
2797.57
2800.56
2841.21
3130.86
3310.36
3079.44
2576.98
2512.78
2509.13
2757.22
2756.56
2754.98
2752.3
2752.41
2753.78
2756.25
2758.44
2759.72
2759.61
2759.7
2760.89
2762.76
2764.27
2764.51
2764.56
2765.52
2767.46
2768.94
2769.79
2770.43
2771.66
2772.81
2773.79
2774.99
2776.67
2777.95
2778.98
2780.36
2782.42
2784.22
2785.6
2787.45
2790.66
2794.48
2797.32
2799.8
2803.61
2808.45
2810.17
2808.21
2801.61
2795.4
2805.64
2884.86
3188.25
3290.21
2913.01
2540.84
2510.78
2509.06
2755.49
2757.23
2756.56
2754.98
2752.3
2752.41
2753.78
2756.25
2758.45
2759.72
2759.61
2759.7
2760.89
2762.77
2764.27
2764.51
2764.57
2765.53
2767.47
2768.94
2769.8
2770.44
2771.69
2772.85
2773.83
2775.03
2776.73
2778.02
2779.08
2780.49
2782.57
2784.43
2785.93
2787.93
2791.22
2795.14
2798.09
2801.12
2804.78
2808.34
2810.61
2809.79
2800.82
2792.08
2804.82
2950.15
3240.16
3261.17
2753.64
2523.82
2509.8
2509.03
2752.06
2755.49
2757.23
2756.56
2754.98
2752.3
2752.42
2753.79
2756.25
2758.45
2759.73
2759.62
2759.7
2760.9
2762.77
2764.27
2764.51
2764.57
2765.54
2767.48
2768.95
2769.81
2770.47
2771.73
2772.89
2773.87
2775.08
2776.79
2778.11
2779.2
2780.63
2782.75
2784.68
2786.33
2788.48
2791.89
2795.9
2799.02
2802.21
2805.92
2808.31
2810.72
2809.73
2799.47
2786.41
2818.83
3023.06
3253.52
3160.34
2635.59
2515.81
2509.33
2509.01
2748.07
2752.07
2755.49
2757.23
2756.56
2754.98
2752.3
2752.42
2753.79
2756.26
2758.45
2759.73
2759.62
2759.71
2760.9
2762.77
2764.27
2764.51
2764.58
2765.55
2767.49
2768.96
2769.82
2770.49
2771.77
2772.94
2773.93
2775.15
2776.87
2778.21
2779.34
2780.81
2782.96
2784.98
2786.8
2789.14
2792.63
2796.56
2800.15
2803.89
2805.75
2807.92
2809.99
2809.54
2798.08
2787.53
2846.76
3107.95
3247.01
3012.3
2565.3
2511.86
2509.13
2509
2744.51
2748.08
2752.07
2755.5
2757.23
2756.56
2754.98
2752.3
2752.42
2753.79
2756.26
2758.45
2759.73
2759.62
2759.71
2760.9
2762.77
2764.27
2764.51
2764.58
2765.56
2767.5
2768.97
2769.84
2770.52
2771.81
2772.99
2773.99
2775.23
2776.97
2778.34
2779.51
2781.03
2783.22
2785.33
2787.35
2789.89
2793.48
2797.43
2801.28
2804.69
2805.67
2807.93
2808.62
2809.63
2800.13
2793.59
2892.82
3163.46
3237.33
2829.84
2531.22
2510.12
2509.05
2509
2742.08
2744.51
2748.08
2752.07
2755.5
2757.23
2756.56
2754.98
2752.3
2752.42
2753.79
2756.26
2758.46
2759.73
2759.63
2759.71
2760.91
2762.77
2764.27
2764.52
2764.59
2765.58
2767.52
2768.99
2769.86
2770.56
2771.86
2773.05
2774.07
2775.33
2777.09
2778.49
2779.72
2781.28
2783.53
2785.75
2787.98
2790.72
2794.22
2798.46
2802.63
2804.93
2806.52
2807.62
2808.13
2810.02
2800.62
2801.11
2958.05
3207.53
3160.74
2675.68
2517.65
2509.4
2509.02
2509
2741.37
2742.08
2744.51
2748.08
2752.07
2755.5
2757.23
2756.56
2754.98
2752.31
2752.42
2753.8
2756.27
2758.46
2759.74
2759.63
2759.72
2760.91
2762.78
2764.27
2764.52
2764.61
2765.6
2767.54
2769.01
2769.89
2770.6
2771.91
2773.11
2774.15
2775.45
2777.24
2778.67
2779.96
2781.59
2783.91
2786.26
2788.68
2791.61
2795.14
2799.48
2803.18
2805.19
2807.46
2807.93
2807.42
2807.04
2802.82
2817.36
3048.74
3205.39
3038.75
2580.01
2512.17
2509.13
2509
2509
2742.93
2741.37
2742.08
2744.51
2748.08
2752.07
2755.5
2757.23
2756.56
2754.98
2752.31
2752.43
2753.8
2756.27
2758.47
2759.74
2759.64
2759.72
2760.92
2762.78
2764.28
2764.53
2764.62
2765.62
2767.56
2769.04
2769.92
2770.65
2771.96
2773.18
2774.25
2775.59
2777.41
2778.88
2780.24
2781.96
2784.37
2786.85
2789.48
2792.49
2796.26
2800.43
2803.47
2806.77
2809.05
2808.37
2804.93
2800.35
2800.47
2871.56
3109.79
3198.44
2844.89
2533.68
2510.06
2509.04
2509
2509
2745.95
2742.93
2741.37
2742.08
2744.51
2748.09
2752.08
2755.5
2757.23
2756.56
2754.98
2752.31
2752.43
2753.81
2756.28
2758.47
2759.74
2759.64
2759.73
2760.93
2762.79
2764.28
2764.54
2764.64
2765.64
2767.59
2769.07
2769.97
2770.7
2772.03
2773.26
2774.37
2775.75
2777.62
2779.14
2780.59
2782.4
2784.91
2787.51
2790.25
2793.43
2797.39
2800.76
2802.9
2806.98
2809.84
2807.62
2802.39
2796.09
2811.54
2926.67
3171.26
3127.46
2678.09
2516.93
2509.33
2509.01
2509
2509
2749.43
2745.95
2742.93
2741.37
2742.08
2744.52
2748.09
2752.08
2755.5
2757.23
2756.56
2754.98
2752.31
2752.43
2753.81
2756.28
2758.48
2759.75
2759.65
2759.74
2760.94
2762.8
2764.29
2764.56
2764.66
2765.67
2767.63
2769.12
2770.02
2770.77
2772.1
2773.35
2774.51
2775.95
2777.86
2779.45
2780.99
2782.91
2785.53
2788.25
2791.1
2794.7
2798.11
2799.69
2803.28
2807.7
2810.45
2808
2801.84
2794
2823.94
3020.29
3170.29
3013.31
2573.73
2511.49
2509.09
2509
2509
2509
2752.44
2749.43
2745.95
2742.93
2741.37
2742.08
2744.52
2748.09
2752.08
2755.51
2757.23
2756.56
2754.98
2752.31
2752.43
2753.82
2756.29
2758.48
2759.76
2759.65
2759.75
2760.95
2762.81
2764.31
2764.57
2764.69
2765.71
2767.67
2769.17
2770.09
2770.85
2772.18
2773.45
2774.67
2776.17
2778.15
2779.81
2781.46
2783.5
2786.22
2788.94
2792.08
2795.45
2798.39
2799.29
2802.84
2807.66
2811.11
2811.44
2804.05
2794.95
2856.27
3089.2
3165.31
2808.72
2528.52
2509.7
2509.02
2509
2509
2509
2754.13
2752.44
2749.43
2745.95
2742.93
2741.37
2742.09
2744.52
2748.09
2752.08
2755.51
2757.23
2756.56
2754.98
2752.31
2752.44
2753.82
2756.29
2758.49
2759.76
2759.66
2759.76
2760.96
2762.83
2764.32
2764.6
2764.72
2765.75
2767.72
2769.23
2770.17
2770.93
2772.27
2773.57
2774.85
2776.43
2778.48
2780.24
2782.01
2784.15
2786.95
2789.71
2793.09
2796.63
2797.27
2799.38
2802.94
2808.07
2812.04
2813.02
2804.08
2792.49
2923.22
3137.47
3083.67
2645.36
2514.27
2509.18
2509.01
2509
2509
2509
2754.73
2754.13
2752.44
2749.43
2745.95
2742.93
2741.38
2742.09
2744.52
2748.1
2752.09
2755.51
2757.23
2756.56
2754.98
2752.32
2752.44
2753.83
2756.3
2758.5
2759.77
2759.67
2759.77
2760.97
2762.84
2764.34
2764.63
2764.76
2765.8
2767.78
2769.3
2770.26
2771.04
2772.39
2773.71
2775.06
2776.72
2778.87
2780.74
2782.65
2784.87
2787.62
2790.75
2794.19
2796.92
2797.96
2800.1
2803.48
2808.09
2811.97
2811.01
2802.85
2814.54
3003.55
3132.1
2940.97
2552.46
2510.4
2509.04
2509
2509
2509
2509
2753.86
2754.73
2754.13
2752.44
2749.43
2745.95
2742.93
2741.38
2742.09
2744.53
2748.1
2752.09
2755.51
2757.23
2756.56
2754.98
2752.32
2752.45
2753.83
2756.31
2758.51
2759.78
2759.68
2759.79
2760.99
2762.87
2764.37
2764.66
2764.81
2765.86
2767.85
2769.39
2770.37
2771.17
2772.52
2773.88
2775.3
2777.07
2779.32
2781.33
2783.36
2785.6
2788.34
2791.59
2795.21
2796.85
2799.15
2801.17
2803.83
2806.46
2805.77
2805.12
2808.73
2866.1
3080.9
3120.29
2733.15
2519.99
2509.32
2509.01
2509
2509
2509
2509
2751.89
2753.86
2754.73
2754.14
2752.44
2749.43
2745.95
2742.93
2741.38
2742.09
2744.53
2748.11
2752.1
2755.52
2757.23
2756.56
2754.98
2752.32
2752.45
2753.84
2756.32
2758.52
2759.79
2759.7
2759.81
2761.01
2762.89
2764.4
2764.7
2764.87
2765.93
2767.93
2769.5
2770.51
2771.32
2772.68
2774.09
2775.6
2777.46
2779.83
2782
2784.19
2786.41
2789.36
2792.51
2795.55
2798.46
2800.54
2801.93
2803.53
2805.03
2804.16
2802.8
2825.74
2939.48
3114.1
2998.06
2591.4
2511.45
2509.07
2509
2509
2509
2509
2509
2749.05
2751.89
2753.87
2754.73
2754.14
2752.44
2749.43
2745.95
2742.93
2741.38
2742.09
2744.54
2748.11
2752.1
2755.52
2757.24
2756.56
2754.97
2752.32
2752.46
2753.85
2756.33
2758.53
2759.8
2759.71
2759.83
2761.04
2762.92
2764.44
2764.75
2764.93
2766
2768.02
2769.62
2770.66
2771.49
2772.88
2774.34
2775.94
2777.92
2780.43
2782.77
2784.97
2787.41
2790.01
2793.14
2795.59
2798.75
2801.16
2802.54
2804.57
2805.71
2804.24
2800.04
2832.67
3021.99
3111.26
2829.5
2529.2
2509.52
2509.01
2509
2509
2509
2509
2509
2745.78
2749.05
2751.89
2753.87
2754.73
2754.14
2752.44
2749.42
2745.95
2742.93
2741.38
2742.1
2744.54
2748.11
2752.1
2755.52
2757.24
2756.56
2754.97
2752.33
2752.47
2753.86
2756.35
2758.54
2759.82
2759.73
2759.85
2761.07
2762.96
2764.49
2764.82
2765.01
2766.1
2768.14
2769.76
2770.85
2771.71
2773.13
2774.65
2776.37
2778.46
2781.11
2783.6
2785.94
2788.42
2790.94
2792.01
2796.09
2799.31
2801.32
2804.1
2807.74
2809.38
2804.18
2787.9
2886.22
3084.04
3079.45
2639.69
2513.02
2509.1
2509
2509
2509
2509
2509
2509
2742.32
2745.78
2749.05
2751.89
2753.87
2754.73
2754.14
2752.44
2749.42
2745.95
2742.93
2741.38
2742.1
2744.54
2748.12
2752.11
2755.53
2757.24
2756.56
2754.98
2752.33
2752.48
2753.88
2756.36
2758.56
2759.84
2759.75
2759.88
2761.11
2763.01
2764.55
2764.89
2765.11
2766.21
2768.27
2769.93
2771.06
2771.97
2773.43
2775.04
2776.88
2779.09
2781.84
2784.45
2787.11
2789.4
2790.73
2792.4
2795.91
2799.1
2802.4
2806.33
2810.23
2811.04
2798.44
2801.57
2960.64
3082.28
2881.09
2543.41
2509.79
2509.02
2509
2509
2509
2509
2509
2509
2739.21
2742.32
2745.79
2749.05
2751.89
2753.87
2754.73
2754.13
2752.44
2749.42
2745.94
2742.93
2741.38
2742.1
2744.55
2748.12
2752.11
2755.53
2757.24
2756.56
2754.98
2752.34
2752.49
2753.89
2756.38
2758.58
2759.86
2759.78
2759.92
2761.15
2763.06
2764.61
2764.97
2765.22
2766.33
2768.42
2770.12
2771.31
2772.27
2773.8
2775.52
2777.5
2779.78
2782.56
2785.36
2788.23
2790.39
2790.3
2792.75
2796.26
2799.98
2803.84
2808.05
2810.02
2806.75
2804.8
2848.31
3038.23
3027.27
2693.04
2515.4
2509.14
2509
2509
2509
2509
2509
2509
2509
2736.39
2739.21
2742.32
2745.79
2749.06
2751.9
2753.87
2754.73
2754.13
2752.44
2749.42
2745.94
2742.93
2741.39
2742.11
2744.55
2748.13
2752.12
2755.54
2757.24
2756.57
2754.98
2752.35
2752.5
2753.91
2756.4
2758.6
2759.88
2759.81
2759.96
2761.21
2763.13
2764.69
2765.07
2765.34
2766.48
2768.6
2770.34
2771.6
2772.63
2774.25
2776.1
2778.19
2780.53
2783.21
2786.34
2789.22
2790.28
2791.08
2793.65
2797.35
2801.15
2804.2
2807.02
2806.18
2804.92
2820.18
2918.1
3053.52
2955.7
2560.03
2510.08
2509.02
2509
2509
2509
2509
2509
2509
2509
2734.14
2736.39
2739.22
2742.33
2745.79
2749.06
2751.9
2753.87
2754.73
2754.13
2752.43
2749.42
2745.94
2742.93
2741.39
2742.11
2744.56
2748.14
2752.13
2755.54
2757.24
2756.57
2754.98
2752.36
2752.52
2753.93
2756.43
2758.63
2759.91
2759.85
2760.01
2761.27
2763.2
2764.78
2765.19
2765.49
2766.66
2768.8
2770.6
2771.93
2773.06
2774.78
2776.77
2778.97
2781.22
2784.18
2787.09
2789.78
2790.76
2792.15
2794.91
2798.47
2801.47
2803.79
2805.75
2805.67
2804.7
2834.97
3004.84
3070.42
2722.37
2518.23
2509.16
2509
2509
2509
2509
2509
2509
2509
2509
2732.49
2734.14
2736.39
2739.22
2742.33
2745.79
2749.06
2751.9
2753.87
2754.73
2754.13
2752.43
2749.41
2745.94
2742.92
2741.39
2742.11
2744.56
2748.14
2752.14
2755.55
2757.25
2756.57
2754.98
2752.37
2752.53
2753.95
2756.45
2758.66
2759.94
2759.89
2760.06
2761.34
2763.29
2764.89
2765.32
2765.67
2766.86
2769.04
2770.89
2772.31
2773.54
2775.37
2777.5
2779.76
2781.96
2784.57
2787.49
2788.87
2791.08
2793.31
2796.12
2798.84
2801.6
2805.01
2807.36
2809.26
2803.81
2892.31
3048.53
2918.98
2577.41
2510.27
2509.02
2509
2509
2509
2509
2509
2509
2509
2509
2731.5
2732.49
2734.14
2736.39
2739.22
2742.33
2745.8
2749.06
2751.9
2753.87
2754.73
2754.13
2752.43
2749.41
2745.93
2742.92
2741.39
2742.12
2744.57
2748.15
2752.14
2755.55
2757.25
2756.58
2754.99
2752.39
2752.55
2753.98
2756.49
2758.7
2759.98
2759.94
2760.13
2761.42
2763.39
2765.01
2765.48
2765.87
2767.1
2769.32
2771.23
2772.75
2774.09
2776.04
2778.29
2780.61
2782.9
2785.31
2787.07
2789.13
2791.57
2793.95
2796.43
2799.05
2802.79
2806.63
2812.3
2808.31
2812.04
2963.13
3027.92
2764.3
2520.36
2509.17
2509
2509
2509
2509
2509
2509
2509
2509
2509
2731.07
2731.5
2732.49
2734.15
2736.4
2739.22
2742.34
2745.8
2749.07
2751.9
2753.88
2754.73
2754.13
2752.43
2749.41
2745.93
2742.92
2741.4
2742.13
2744.58
2748.16
2752.15
2755.56
2757.26
2756.58
2754.99
2752.4
2752.58
2754.01
2756.52
2758.74
2760.03
2760
2760.21
2761.52
2763.51
2765.15
2765.66
2766.11
2767.38
2769.64
2771.62
2773.24
2774.71
2776.71
2779.04
2781.68
2783.61
2785.38
2786.4
2788.88
2791.46
2794.4
2797.2
2800.15
2804.42
2808.99
2808.73
2805.24
2870.33
3018
2996.36
2585.29
2510.39
2509.02
2509
2509
2509
2509
2509
2509
2509
2509
2509
2731.01
2731.07
2731.5
2732.49
2734.15
2736.4
2739.23
2742.34
2745.8
2749.07
2751.91
2753.88
2754.73
2754.13
2752.42
2749.4
2745.93
2742.92
2741.4
2742.13
2744.59
2748.17
2752.17
2755.57
2757.26
2756.59
2755
2752.43
2752.61
2754.05
2756.57
2758.79
2760.09
2760.07
2760.31
2761.64
2763.65
2765.32
2765.87
2766.39
2767.71
2770.02
2772.06
2773.79
2775.35
2777.42
2779.74
2782.48
2784.67
2784.85
2786.68
2789
2791.89
2795.68
2798.93
2801.95
2804.86
2804.95
2797.38
2820.04
2941.71
3034.57
2757.87
2522.01
2509.16
2509
2509
2509
2509
2509
2509
2509
2509
2509
2509
2731.57
2731.01
2731.07
2731.5
2732.5
2734.15
2736.4
2739.23
2742.34
2745.81
2749.07
2751.91
2753.88
2754.73
2754.13
2752.42
2749.4
2745.92
2742.92
2741.4
2742.14
2744.6
2748.19
2752.18
2755.58
2757.27
2756.6
2755.01
2752.45
2752.65
2754.1
2756.62
2758.85
2760.15
2760.15
2760.42
2761.78
2763.81
2765.5
2766.12
2766.72
2768.09
2770.45
2772.56
2774.42
2776.09
2778.05
2780.74
2783.49
2784.89
2785.72
2787.24
2789.6
2793.12
2797.31
2800.94
2803.49
2805.33
2800.78
2801.19
2852.68
3007.91
2903.12
2594.69
2510.36
2509.02
2509
2509
2509
2509
2509
2509
2509
2509
2509
2509
2732.46
2731.57
2731.01
2731.07
2731.51
2732.5
2734.15
2736.41
2739.23
2742.35
2745.81
2749.08
2751.91
2753.88
2754.73
2754.12
2752.42
2749.39
2745.92
2742.93
2741.41
2742.15
2744.61
2748.2
2752.19
2755.59
2757.28
2756.61
2755.03
2752.48
2752.69
2754.15
2756.68
2758.91
2760.23
2760.25
2760.55
2761.93
2763.99
2765.71
2766.4
2767.1
2768.54
2770.94
2773.13
2775.09
2776.78
2779.08
2781.3
2784.13
2785.28
2786.47
2788.27
2790.61
2794.38
2798.66
2802.42
2805.92
2807.02
2809.19
2814.81
2920.43
2992.69
2782.93
2521.83
2509.16
2509
2509
2509
2509
2509
2509
2509
2509
2509
2509
2509
2733.61
2732.46
2731.57
2731.01
2731.08
2731.51
2732.5
2734.16
2736.41
2739.24
2742.35
2745.82
2749.08
2751.92
2753.88
2754.73
2754.12
2752.41
2749.39
2745.92
2742.93
2741.41
2742.16
2744.63
2748.22
2752.21
2755.61
2757.3
2756.63
2755.05
2752.52
2752.74
2754.21
2756.75
2758.99
2760.32
2760.37
2760.71
2762.12
2764.19
2765.96
2766.72
2767.55
2769.05
2771.5
2773.73
2775.79
2777.59
2779.55
2782.25
2783.74
2785.51
2787.56
2789.32
2791.38
2794.88
2798.86
2803.28
2807.68
2814.71
2818.3
2841.23
2984.72
2976.9
2587.19
2510.31
2509.02
2509
2509
2509
2509
2509
2509
2509
2509
2509
2509
2509
2734.98
2733.61
2732.46
2731.57
2731.01
2731.08
2731.51
2732.5
2734.16
2736.41
2739.24
2742.36
2745.82
2749.09
2751.92
2753.88
2754.73
2754.12
2752.41
2749.39
2745.91
2742.93
2741.42
2742.17
2744.64
2748.24
2752.23
2755.63
2757.31
2756.65
2755.07
2752.57
2752.8
2754.28
2756.83
2759.08
2760.42
2760.51
2760.89
2762.33
2764.43
2766.23
2767.1
2768.07
2769.65
2772.11
2774.38
2776.48
2778.61
2780.65
2781.93
2783.76
2785.97
2788.13
2790.06
2791.67
2794.49
2798.03
2803.55
2808.92
2815.19
2817.77
2927.47
3010.94
2739.58
2521.01
2509.15
2509
2509
2509
2509
2509
2509
2509
2509
2509
2509
2509
2509
2736.48
2734.98
2733.61
2732.46
2731.58
2731.02
2731.08
2731.51
2732.5
2734.16
2736.42
2739.25
2742.36
2745.82
2749.09
2751.92
2753.88
2754.73
2754.12
2752.41
2749.38
2745.91
2742.93
2741.43
2742.19
2744.66
2748.26
2752.26
2755.65
2757.33
2756.68
2755.1
2752.62
2752.87
2754.36
2756.93
2759.18
2760.55
2760.67
2761.11
2762.58
2764.7
2766.54
2767.53
2768.67
2770.32
2772.76
2774.98
2777.55
2779.43
2780.84
2781.8
2783.78
2785.95
2788.54
2790.6
2792.18
2794.85
2798.69
2801.49
2805.76
2793
2848.55
2975.7
2875.7
2583.94
2510.18
2509.02
2509
2509
2509
2509
2509
2509
2509
2509
2509
2509
2509
2509
2738.05
2736.48
2734.98
2733.61
2732.46
2731.58
2731.02
2731.08
2731.51
2732.51
2734.17
2736.42
2739.25
2742.37
2745.83
2749.09
2751.93
2753.89
2754.73
2754.12
2752.4
2749.38
2745.91
2742.93
2741.44
2742.2
2744.68
2748.29
2752.29
2755.68
2757.36
2756.71
2755.14
2752.69
2752.95
2754.46
2757.03
2759.3
2760.69
2760.87
2761.36
2762.86
2765.01
2766.9
2768.02
2769.36
2771.02
2773.36
2775.65
2778.06
2780.49
2780.83
2782.21
2783.74
2785.96
2788.83
2791.42
2794.35
2797.53
2800.89
2802.84
2795.66
2796.97
2899.53
2954.4
2742.42
2518.57
2509.13
2509
2509
2509
2509
2509
2509
2509
2509
2509
2509
2509
2509
2509
2739.71
2738.05
2736.48
2734.98
2733.61
2732.46
2731.58
2731.02
2731.08
2731.51
2732.51
2734.17
2736.43
2739.26
2742.37
2745.84
2749.1
2751.93
2753.89
2754.72
2754.11
2752.4
2749.37
2745.91
2742.94
2741.46
2742.23
2744.71
2748.32
2752.32
2755.71
2757.39
2756.74
2755.18
2752.77
2753.05
2754.57
2757.16
2759.44
2760.85
2761.1
2761.66
2763.2
2765.36
2767.3
2768.58
2770.11
2771.79
2773.86
2776.22
2778.93
2780.5
2781.63
2782.94
2784.09
2786.22
2789.32
2792.94
2796.89
2801.44
2805.55
2808.7
2805.72
2837.46
2951.51
2915.96
2564.15
2509.94
2509.01
2509
2509
2509
2509
2509
2509
2509
2509
2509
2509
2509
2509
2509
2741.37
2739.71
2738.05
2736.48
2734.98
2733.61
2732.46
2731.58
2731.02
2731.08
2731.52
2732.51
2734.18
2736.43
2739.26
2742.38
2745.84
2749.11
2751.93
2753.89
2754.72
2754.11
2752.4
2749.37
2745.92
2742.94
2741.48
2742.25
2744.74
2748.35
2752.36
2755.74
2757.43
2756.79
2755.23
2752.86
2753.17
2754.7
2757.3
2759.6
2761.05
2761.36
2762.01
2763.59
2765.76
2767.75
2769.22
2770.98
2772.57
2774.74
2776.64
2779.04
2780.71
2782.43
2783.94
2784.81
2786.74
2789.99
2793.91
2799.14
2804.76
2809.87
2814.91
2832.56
2916.39
2996.51
2684.38
2515.88
2509.1
2509
2509
2509
2509
2509
2509
2509
2509
2509
2509
2509
2509
2509
2509
2743.08
2741.37
2739.71
2738.05
2736.48
2734.98
2733.61
2732.46
2731.58
2731.02
2731.09
2731.52
2732.52
2734.18
2736.44
2739.27
2742.39
2745.85
2749.11
2751.94
2753.89
2754.72
2754.11
2752.39
2749.37
2745.92
2742.95
2741.5
2742.28
2744.78
2748.4
2752.4
2755.78
2757.47
2756.84
2755.29
2752.97
2753.3
2754.86
2757.46
2759.78
2761.27
2761.68
2762.43
2764.03
2766.2
2768.25
2769.89
2771.81
2773.63
2775
2777.06
2777.97
2780.85
2783.38
2785.04
2786.08
2787.47
2790.11
2793.95
2799.51
2804.15
2810.55
2817.23
2852.78
2965.71
2836.55
2551.51
2509.67
2509.01
2509
2509
2509
2509
2509
2509
2509
2509
2509
2509
2509
2509
2509
2509
2744.08
2743.08
2741.37
2739.71
2738.05
2736.48
2734.98
2733.61
2732.46
2731.58
2731.02
2731.09
2731.52
2732.52
2734.18
2736.44
2739.28
2742.39
2745.86
2749.12
2751.94
2753.9
2754.73
2754.11
2752.39
2749.37
2745.93
2742.97
2741.52
2742.31
2744.82
2748.44
2752.45
2755.83
2757.52
2756.9
2755.37
2753.1
2753.46
2755.03
2757.65
2759.99
2761.52
2762.05
2762.91
2764.55
2766.73
2768.74
2770.59
2772.65
2774.32
2775.86
2776.12
2778.17
2781.12
2783.93
2786.07
2787.45
2789.01
2790.48
2794
2796.21
2802.53
2794.58
2799.85
2902.72
2906.29
2661.7
2513.18
2509.06
2509
2509
2509
2509
2509
2509
2509
2509
2509
2509
2509
2509
2509
2509
2509
2770.95
2744.08
2743.08
2741.37
2739.71
2738.05
2736.48
2734.98
2733.61
2732.46
2731.58
2731.02
2731.09
2731.53
2732.52
2734.19
2736.45
2739.28
2742.4
2745.87
2749.13
2751.95
2753.9
2754.73
2754.11
2752.39
2749.37
2745.93
2742.98
2741.55
2742.35
2744.87
2748.5
2752.51
2755.89
2757.58
2756.97
2755.46
2753.26
2753.65
2755.24
2757.87
2760.23
2761.82
2762.48
2763.48
2765.15
2767.24
2769.29
2771.2
2773.86
2775.45
2775.7
2776.21
2778.03
2781.13
2784.17
2786.77
2788.99
2790.83
2793.1
2795.72
2799.57
2797.78
2799.3
2841.27
2929.96
2826.03
2533.9
2509.4
2509
2509
2509
2509
2509
2509
2509
2509
2509
2509
2509
2509
2509
2509
2509
2509
3403.94
2770.94
2744.08
2743.08
2741.37
2739.71
2738.05
2736.48
2734.98
2733.61
2732.46
2731.58
2731.03
2731.09
2731.53
2732.53
2734.2
2736.46
2739.29
2742.41
2745.88
2749.14
2751.96
2753.91
2754.73
2754.11
2752.39
2749.37
2745.94
2743
2741.59
2742.4
2744.92
2748.56
2752.58
2755.95
2757.65
2757.06