/*--------------------------------*- C++ -*----------------------------------*\
| =========                 |                                                 |
| \\      /  F ield         | OpenFOAM: The Open Source CFD Toolbox           |
|  \\    /   O peration     | Version:  v2012                                 |
|   \\  /    A nd           | Website:  www.openfoam.com                      |
|    \\/     M anipulation  |                                                 |
\*---------------------------------------------------------------------------*/
FoamFile
{
    version     2.0;
    format      ascii;
    class       volScalarField;
    location    "2000";
    object      Res;
}
// * * * * * * * * * * * * * * * * * * * * * * * * * * * * * * * * * * * * * //

dimensions      [0 0 0 0 0 0 0];


internalField   nonuniform List<scalar> 
39402
(
0.708113
0.379914
0.999986
0.210179
0.99429
1
0.169381
0.925988
0.999997
1
0.177913
0.86944
0.999276
1
1
0.189265
0.879758
0.997154
0.999998
1
1
0.196533
0.893813
0.997564
0.999983
1
1
1
0.201284
0.902237
0.998096
0.999986
1
1
1
1
0.203662
0.907271
0.998384
0.99999
1
1
1
1
1
0.203973
0.910238
0.998547
0.999992
1
1
1
1
1
1
0.203557
0.910314
0.998632
0.999993
1
1
1
1
1
1
1
0.202276
0.909742
0.998625
0.999993
1
1
1
1
1
1
1
1
0.200376
0.908109
0.998595
0.999993
1
1
1
1
1
1
1
1
1
0.198348
0.906717
0.99854
0.999993
1
1
1
1
1
1
1
1
1
1
0.19621
0.905085
0.99849
0.999992
1
1
1
1
1
1
1
1
1
1
1
0.193769
0.902466
0.99841
0.999992
1
1
1
1
1
1
1
1
1
1
1
1
0.191324
0.899367
0.998301
0.999991
1
1
1
1
1
1
1
1
1
1
1
1
1
0.189143
0.896252
0.998166
0.99999
1
1
1
1
1
1
1
1
1
1
1
1
1
1
0.18706
0.893349
0.998027
0.999989
1
1
1
1
1
1
1
1
1
1
1
1
1
1
1
0.184886
0.889371
0.997887
0.999987
1
1
1
1
1
1
1
1
1
1
1
1
1
1
1
1
0.182702
0.887305
0.997713
0.999985
1
1
1
1
1
1
1
1
1
1
1
1
1
1
1
1
1
0.180656
0.886673
0.997585
0.999984
1
1
1
1
1
1
1
1
1
1
1
1
1
1
1
1
1
1
0.178758
0.882069
0.997494
0.999982
1
1
1
1
1
1
1
1
1
1
1
1
1
1
1
1
1
1
1
0.17695
0.87898
0.997323
0.999981
1
1
1
1
1
1
1
1
1
1
1
1
1
1
1
1
1
1
1
1
0.175133
0.875957
0.997148
0.999979
1
1
1
1
1
1
1
1
1
1
1
1
1
1
1
1
1
1
1
1
1
0.173408
0.870158
0.996969
0.999976
1
1
1
1
1
1
1
1
1
1
1
1
1
1
1
1
1
1
1
1
1
1
0.17182
0.868185
0.996673
0.999974
1
1
1
1
1
1
1
1
1
1
1
1
1
1
1
1
1
1
1
1
1
1
1
0.170306
0.867801
0.996477
0.99997
1
1
1
1
1
1
1
1
1
1
1
1
1
1
1
1
1
1
1
1
1
1
1
1
0.16879
0.86334
0.996374
0.999968
1
1
1
1
1
1
1
1
1
1
1
1
1
1
1
1
1
1
1
1
1
1
1
1
1
0.167346
0.858919
0.996181
0.999966
1
1
1
1
1
1
1
1
1
1
1
1
1
1
1
1
1
1
1
1
1
1
1
1
1
1
0.165934
0.85593
0.995955
0.999962
1
1
1
1
1
1
1
1
1
1
1
1
1
1
1
1
1
1
1
1
1
1
1
1
1
1
1
0.164561
0.85396
0.995745
0.999958
1
1
1
1
1
1
1
1
1
1
1
1
1
1
1
1
1
1
1
1
1
1
1
1
1
1
1
1
0.163248
0.850931
0.995577
0.999954
1
1
1
1
1
1
1
1
1
1
1
1
1
1
1
1
1
1
1
1
1
1
1
1
1
1
1
1
1
0.16213
0.848908
0.995352
0.999952
1
1
1
1
1
1
1
1
1
1
1
1
1
1
1
1
1
1
1
1
1
1
1
1
1
1
1
1
1
1
0.161132
0.848899
0.995174
0.999949
1
1
1
1
1
1
1
1
1
1
1
1
1
1
1
1
1
1
1
1
1
1
1
1
1
1
1
1
1
1
1
0.160076
0.846291
0.995112
0.999945
1
1
1
1
1
1
1
1
1
1
1
1
1
1
1
1
1
1
1
1
1
1
1
1
1
1
1
1
1
1
1
1
0.158929
0.843685
0.994911
0.999944
1
1
1
1
1
1
1
1
1
1
1
1
1
1
1
1
1
1
1
1
1
1
1
1
1
1
1
1
1
1
1
1
1
0.157828
0.838567
0.994706
0.99994
1
1
1
1
1
1
1
1
1
1
1
1
1
1
1
1
1
1
1
1
1
1
1
1
1
1
1
1
1
1
1
1
1
1
0.156933
0.834953
0.994407
0.999936
1
1
1
1
1
1
1
1
1
1
1
1
1
1
1
1
1
1
1
1
1
1
1
1
1
1
1
1
1
1
1
1
1
1
1
0.156204
0.833976
0.994133
0.999931
1
1
1
1
1
1
1
1
1
1
1
1
1
1
1
1
1
1
1
1
1
1
1
1
1
1
1
1
1
1
1
1
1
1
1
1
0.155439
0.833883
0.994069
0.999927
1
1
1
1
1
1
1
1
1
1
1
1
1
1
1
1
1
1
1
1
1
1
1
1
1
1
1
1
1
1
1
1
1
1
1
1
1
0.154589
0.831944
0.994052
0.999926
1
1
1
1
1
1
1
1
1
1
1
1
1
1
1
1
1
1
1
1
1
1
1
1
1
1
1
1
1
1
1
1
1
1
1
1
1
1
0.153722
0.829944
0.993888
0.999926
1
1
1
1
1
1
1
1
1
1
1
1
1
1
1
1
1
1
1
1
1
1
1
1
1
1
1
1
1
1
1
1
1
1
1
1
1
1
1
0.152972
0.827239
0.993708
0.999922
1
1
1
1
1
1
1
1
1
1
1
1
1
1
1
1
1
1
1
1
1
1
1
1
1
1
1
1
1
1
1
1
1
1
1
1
1
1
1
1
0.15241
0.824905
0.993471
0.999919
0.999999
1
1
1
1
1
1
1
1
1
1
1
1
1
1
1
1
1
1
1
1
1
1
1
1
1
1
1
1
1
1
1
1
1
1
1
1
1
1
1
1
0.152005
0.823985
0.993218
0.999912
0.999999
1
1
1
1
1
1
1
1
1
1
1
1
1
1
1
1
1
1
1
1
1
1
1
1
1
1
1
1
1
1
1
1
1
1
1
1
1
1
1
1
1
0.151536
0.824089
0.993168
0.999906
0.999999
1
1
1
1
1
1
1
1
1
1
1
1
1
1
1
1
1
1
1
1
1
1
1
1
1
1
1
1
1
1
1
1
1
1
1
1
1
1
1
1
1
1
0.150852
0.823154
0.993208
0.999907
0.999999
1
1
1
1
1
1
1
1
1
1
1
1
1
1
1
1
1
1
1
1
1
1
1
1
1
1
1
1
1
1
1
1
1
1
1
1
1
1
1
1
1
1
1
0.150045
0.821642
0.993132
0.999908
0.999999
1
1
1
1
1
1
1
1
1
1
1
1
1
1
1
1
1
1
1
1
1
1
1
1
1
1
1
1
1
1
1
1
1
1
1
1
1
1
1
1
1
1
1
1
0.149248
0.820038
0.993003
0.999908
0.999999
1
1
1
1
1
1
1
1
1
1
1
1
1
1
1
1
1
1
1
1
1
1
1
1
1
1
1
1
1
1
1
1
1
1
1
1
1
1
1
1
1
1
1
1
1
0.148572
0.817725
0.992869
0.999907
0.999999
1
1
1
1
1
1
1
1
1
1
1
1
1
1
1
1
1
1
1
1
1
1
1
1
1
1
1
1
1
1
1
1
1
1
1
1
1
1
1
1
1
1
1
1
1
0.999455
0.148132
0.816049
0.992708
0.999905
0.999999
1
1
1
1
1
1
1
1
1
1
1
1
1
1
1
1
1
1
1
1
1
1
1
1
1
1
1
1
1
1
1
1
1
1
1
1
1
1
1
1
1
1
1
1
1
1
0.967276
0.147975
0.815509
0.9926
0.9999
0.999999
1
1
1
1
1
1
1
1
1
1
1
1
1
1
1
1
1
1
1
1
1
1
1
1
1
1
1
1
1
1
1
1
1
1
1
1
1
0.989227
1
1
1
1
1
1
1
1
1
0.738125
0.148
0.816072
0.992526
0.999896
0.999999
1
1
1
1
1
1
1
1
1
1
1
1
1
1
1
1
1
1
1
1
1
1
1
1
1
1
1
1
1
1
1
1
1
1
1
1
1
1
1
1
1
1
1
1
1
1
1
1
0.38605
0.147965
0.81565
0.992559
0.999897
0.999999
1
1
1
1
1
1
1
1
1
1
1
1
1
1
1
1
1
1
1
1
1
1
1
1
1
1
1
1
1
1
1
1
1
1
1
1
1
1
1
1
1
1
1
1
1
1
1
1
0.999977
0.15821
0.147778
0.815429
0.992592
0.9999
0.999999
1
1
1
1
1
1
1
1
1
1
1
1
1
1
1
1
1
1
1
1
1
1
1
1
1
1
1
1
1
1
1
1
1
1
1
1
1
1
1
1
1
1
1
1
1
1
1
1
1
0.97897
0.0568673
0.147453
0.81624
0.992644
0.999899
0.999999
1
1
1
1
1
1
1
1
1
1
1
1
1
1
1
1
1
1
1
1
1
1
1
1
1
1
1
1
1
1
1
1
1
1
1
1
1
1
1
1
1
1
1
1
1
1
1
1
1
1
0.686236
0.0184439
0.14693
0.816987
0.992793
0.999901
0.999999
1
1
1
1
1
1
1
1
1
1
1
1
1
1
1
1
1
1
1
1
1
1
1
1
1
1
1
1
1
1
1
1
1
1
1
1
1
1
1
1
1
1
1
1
1
1
1
1
1
1
0.999998
0.274354
0.00538946
0.146257
0.814845
0.992799
0.999904
0.999999
1
1
1
1
1
1
1
1
1
1
1
1
1
1
1
1
1
1
1
1
1
1
1
1
1
1
1
1
1
1
1
1
1
1
1
1
1
1
1
1
1
1
1
1
1
1
1
1
1
1
1
0.982864
0.0857902
0.00142305
0.145547
0.812799
0.99254
0.999905
0.999999
1
1
1
1
1
1
1
1
1
1
1
1
1
1
1
1
1
1
1
1
1
1
1
1
1
1
1
1
1
1
1
1
1
1
1
1
1
1
1
1
1
1
1
1
1
1
1
1
1
1
1
1
0.625476
0.0237875
0.000335809
0.144897
0.811246
0.992431
0.999901
0.999999
1
1
1
1
1
1
1
1
1
1
1
1
1
1
1
1
1
1
1
1
1
1
1
1
1
1
1
1
1
1
1
1
1
1
1
1
1
1
1
1
0.999291
1
1
1
1
1
1
1
1
1
1
1
0.999983
0.202325
0.0058577
7.07336e-05
0.144324
0.810063
0.99229
0.999899
0.999999
1
1
1
1
1
1
1
1
1
1
1
1
1
1
1
1
1
1
1
1
1
1
1
1
1
1
1
1
1
1
1
1
1
1
1
1
1
1
1
1
1
1
1
1
1
1
1
1
1
1
1
1
1
0.928776
0.0511517
0.00124703
1.34692e-05
0.143904
0.809733
0.992197
0.999897
0.999999
1
1
1
1
1
1
1
1
1
1
1
1
1
1
1
1
1
1
1
1
1
1
1
1
1
1
1
1
1
1
1
1
1
1
1
1
1
1
1
1
1
1
0.999369
1
1
1
1
1
1
1
1
1
1
1
0.392993
0.0113797
0.000225565
2.21207e-06
0.143623
0.8117
0.992281
0.999895
0.999999
1
1
1
1
1
1
1
1
1
1
1
1
1
1
1
1
1
1
1
1
1
1
1
1
1
1
1
1
1
1
1
1
1
1
1
1
1
1
1
1
1
1
1
1
1
1
1
1
1
1
1
1
1
1
0.997132
0.0932637
0.00223098
3.39892e-05
4.72361e-07
0.143479
0.811196
0.992464
0.999897
0.999999
1
1
1
1
1
1
1
1
1
1
1
1
1
1
1
1
1
1
1
1
1
1
1
1
1
1
1
1
1
1
1
1
1
1
1
1
1
1
1
1
1
1
1
1
1
1
1
1
1
1
1
1
1
1
1
0.634989
0.0188588
0.000371194
4.32445e-06
2.06818e-08
0.143442
0.808611
0.992425
0.999901
0.999999
1
1
1
1
1
1
1
1
1
1
1
1
1
1
1
1
1
1
1
1
1
1
1
1
1
1
1
1
1
1
1
1
1
1
1
1
1
1
1
1
1
1
1
1
1
1
1
1
1
1
1
1
1
1
1
0.999985
0.152465
0.00336137
5.26093e-05
2.99606e-07
1.83258e-07
0.14348
0.80667
0.992216
0.9999
0.999999
1
1
1
1
1
1
1
1
1
1
1
1
1
1
1
1
1
1
1
1
1
1
1
1
1
1
1
1
1
1
1
1
1
1
1
1
1
1
1
1
1
1
1
1
1
1
1
1
1
1
1
1
1
1
1
1
0.843293
0.0281222
0.000499007
4.79683e-06
1.74192e-07
2.78885e-08
0.143575
0.807882
0.99201
0.999897
0.999999
1
1
1
1
1
1
1
1
1
1
1
1
1
1
1
1
1
1
1
1
1
1
1
1
1
1
1
1
1
1
1
1
1
1
1
1
1
1
1
1
1
1
1
0.999491
1
1
1
1
1
1
1
1
1
1
1
1
1
0.225633
0.00441537
5.65202e-05
1.49581e-07
1.57064e-07
7.36406e-08
0.143651
0.809358
0.992173
0.999892
0.999999
1
1
1
1
1
1
1
1
1
1
1
1
1
1
1
1
1
1
1
1
1
1
1
1
1
1
1
1
1
1
1
1
1
1
1
1
1
1
1
1
1
1
1
1
1
1
1
1
1
1
1
1
1
1
1
1
1
0.95164
0.0369479
0.000519799
4.54523e-06
1.24137e-07
8.5552e-08
1.24562e-08
0.143702
0.809835
0.99232
0.999896
0.999999
1
1
1
1
1
1
1
1
1
1
1
1
1
1
1
1
1
1
1
1
1
1
1
1
1
1
1
1
1
1
1
1
1
1
1
1
1
1
1
1
1
1
1
1
1
1
1
1
1
1
1
1
1
1
1
1
1
1
0.292188
0.00460172
5.17423e-05
1.43878e-07
6.91578e-08
8.81908e-08
7.37631e-08
0.143707
0.810047
0.992382
0.999899
0.999999
1
1
1
1
1
1
1
1
1
1
1
1
1
1
1
1
1
1
1
1
1
1
1
1
1
1
1
1
1
1
1
1
1
1
1
1
1
1
1
1
1
1
1
1
1
1
1
1
1
1
1
1
1
1
1
1
1
1
0.984093
0.0391985
0.00049753
3.63181e-06
2.31344e-07
7.56809e-08
2.38407e-08
1.24757e-08
0.143658
0.81023
0.992292
0.999903
0.999999
1
1
1
1
1
1
1
1
1
1
1
1
1
1
1
1
1
1
1
1
1
1
1
1
1
1
1
1
1
1
1
1
1
1
1
1
1
1
1
1
1
1
1
1
1
1
1
1
1
1
1
1
1
1
1
1
1
1
1
0.320797
0.00450643
4.18676e-05
1.16539e-07
1.50433e-09
3.8891e-08
9.91807e-08
1.82209e-07
0.143544
0.810138
0.992312
0.999901
0.999999
1
1
1
1
1
1
1
1
1
1
1
1
1
1
1
1
1
1
1
1
1
1
1
1
1
1
1
1
1
1
1
1
1
1
1
1
1
1
1
1
1
1
1
1
1
1
1
1
1
1
1
1
1
1
1
1
1
1
1
0.992259
0.0399985
0.000428226
2.1405e-06
1.4414e-07
1.32072e-07
1.56082e-08
1.25344e-07
3.6347e-08
0.14339
0.811443
0.992426
0.9999
0.999999
1
1
1
1
1
1
1
1
1
1
1
1
1
1
1
1
1
1
1
1
1
1
1
1
1
1
1
1
1
1
1
1
1
1
1
1
1
1
1
1
1
1
1
1
1
1
1
1
1
1
1
1
1
1
1
1
1
1
1
1
0.336182
0.00415737
3.04182e-05
1.64605e-07
1.60352e-08
1.18473e-07
3.29136e-08
8.71504e-08
4.44979e-08
0.143166
0.809643
0.99254
0.999904
0.999999
1
1
1
1
1
1
1
1
1
1
1
1
1
1
1
1
1
1
1
1
1
1
1
1
1
1
1
1
1
1
1
1
1
1
1
1
1
1
1
1
1
1
1
1
1
1
1
1
1
1
1
1
1
1
1
1
1
1
1
1
0.994146
0.0387412
0.000347267
1.06073e-06
7.71573e-08
7.60023e-08
2.11192e-08
2.01986e-08
1.07611e-07
5.13698e-09
0.142913
0.807813
0.992376
0.999907
0.999999
1
1
1
1
1
1
1
1
1
1
1
1
1
1
1
1
1
1
1
1
1
1
1
1
1
1
1
1
1
1
1
1
1
1
1
1
1
1
1
1
1
1
1
1
1
1
1
1
1
1
1
1
1
1
1
1
1
1
1
1
1
0.331322
0.00357021
2.14893e-05
8.24034e-08
1.01118e-07
4.3745e-08
1.10632e-08
3.74593e-08
3.45214e-08
8.3e-09
0.142621
0.808259
0.992202
0.999901
0.999999
1
1
1
1
1
1
1
1
1
1
1
1
1
1
1
1
1
1
1
1
1
1
1
1
1
1
1
1
1
1
1
1
1
1
1
1
1
1
1
1
1
1
1
1
1
1
1
1
1
1
1
1
1
1
1
1
1
1
1
1
1
0.994178
0.0348752
0.000252018
1.00284e-06
8.40798e-08
8.64409e-08
2.39425e-07
4.31911e-08
2.29237e-08
1.48427e-08
4.18731e-09
0.142307
0.807739
0.992244
0.999898
0.999999
1
1
1
1
1
1
1
1
1
1
1
1
1
1
1
1
1
1
1
1
1
1
1
1
1
1
1
1
1
1
1
1
1
1
1
1
1
1
1
1
1
1
1
1
1
1
1
1
1
1
1
1
1
1
1
1
1
1
1
1
1
1
0.309087
0.00278534
1.30638e-05
2.11782e-08
2.10905e-08
1.2379e-07
5.73415e-08
3.58532e-08
2.21934e-08
3.38174e-08
6.40651e-09
0.141978
0.807191
0.992182
0.999899
0.999999
1
1
1
1
1
1
1
1
1
1
1
1
1
1
1
1
1
1
1
1
1
1
1
1
1
1
1
1
1
1
1
1
1
1
1
1
1
1
1
1
1
1
1
1
1
1
1
1
1
1
1
1
1
1
1
1
1
1
1
1
1
1
0.992722
0.0285462
0.000167691
3.8607e-07
4.94888e-08
8.30799e-09
1.09784e-07
3.51587e-07
6.11123e-08
4.94335e-09
6.95465e-09
2.26525e-09
0.141641
0.80639
0.992127
0.999898
0.999999
1
1
1
1
1
1
1
1
1
1
1
1
1
1
1
1
1
1
1
1
1
1
1
1
1
1
1
1
1
1
1
1
1
1
1
1
1
1
1
1
1
1
1
1
1
1
1
1
1
1
1
1
1
1
1
1
1
1
1
1
1
1
1
0.267406
0.00193731
6.42882e-06
7.31598e-08
5.54562e-08
5.44611e-08
1.34794e-07
2.04458e-08
1.65763e-08
5.20136e-08
1.42825e-08
1.70143e-08
0.141309
0.805355
0.992035
0.999897
0.999999
1
1
1
1
1
1
1
1
1
1
1
1
1
1
1
1
1
1
1
1
1
1
1
1
1
1
1
1
1
1
1
1
1
1
1
1
1
1
1
1
1
1
1
1
1
1
1
1
1
1
1
1
1
1
1
1
1
1
1
1
1
1
1
0.985984
0.0208486
9.41701e-05
7.59991e-08
5.78137e-08
6.28387e-08
7.51434e-08
1.18271e-07
1.96229e-07
2.89364e-08
7.89382e-09
1.95248e-08
2.57423e-08
0.140996
0.804356
0.991932
0.999895
0.999999
1
1
1
1
1
1
1
1
1
1
1
1
1
1
1
1
1
1
1
1
1
1
1
1
1
1
1
1
1
1
1
1
1
1
1
1
1
1
1
1
1
1
1
1
1
1
1
1
1
1
1
1
1
1
1
1
1
1
1
1
1
1
1
1
0.206147
0.00117032
2.69287e-06
6.33825e-08
8.53605e-08
1.04403e-07
3.50046e-08
6.68016e-08
6.59568e-08
2.91858e-08
4.57503e-08
2.82612e-08
6.50856e-08
0.140663
0.803672
0.991834
0.999893
0.999999
1
1
1
1
1
1
1
1
1
1
1
1
1
1
1
1
1
1
1
1
1
1
1
1
1
1
1
1
1
1
1
1
1
1
1
1
1
1
1
1
1
1
1
1
1
1
1
1
1
1
1
1
1
1
1
1
1
1
1
1
1
1
1
1
0.955811
0.013264
4.53928e-05
7.38e-09
2.73862e-08
7.67035e-08
2.7858e-08
5.3483e-08
7.38505e-08
3.55016e-08
3.76646e-08
1.75461e-08
6.73485e-08
1.54146e-08
0.140345
0.802775
0.991758
0.99989
0.999999
1
1
1
1
1
1
1
1
1
1
1
1
1
1
1
1
1
1
1
1
1
1
1
1
1
1
1
1
1
1
1
1
1
1
1
1
1
1
1
1
1
1
1
1
1
1
1
1
1
1
1
1
1
1
1
1
1
1
1
1
1
1
1
1
1
0.134097
0.000600123
9.94531e-07
3.38414e-08
1.89215e-07
2.21944e-08
3.54861e-08
1.16257e-08
2.58323e-08
2.49004e-08
1.05411e-07
1.4313e-07
1.6258e-08
4.69858e-08
0.140102
0.801922
0.991656
0.999889
0.999999
1
1
1
1
1
1
1
1
1
1
1
1
1
1
1
1
1
1
1
1
1
1
1
1
1
1
1
1
1
1
1
1
1
1
1
1
1
1
1
1
1
1
1
1
1
1
1
1
1
1
1
1
1
1
1
1
1
1
1
1
1
1
1
1
1
0.851463
0.00701815
1.84689e-05
8.50699e-09
2.35062e-08
5.71645e-08
7.6842e-08
8.50472e-08
4.81745e-08
3.8195e-08
4.59955e-08
5.37729e-08
1.25065e-08
2.58833e-08
4.65988e-09
0.139552
0.801238
0.991563
0.999886
0.999999
1
1
1
1
1
1
1
1
1
1
1
1
1
1
1
1
1
1
1
1
1
1
1
1
1
1
1
1
1
1
1
1
1
1
1
1
1
1
1
1
1
1
1
1
1
1
1
1
1
1
1
1
1
1
1
1
1
1
1
1
1
1
1
1
1
1
0.0736566
0.00024996
6.805e-07
5.61137e-09
6.62693e-08
7.81304e-08
2.9227e-08
4.28223e-08
2.97766e-08
1.40465e-08
8.84587e-08
6.00408e-08
3.11907e-08
4.60069e-08
2.07912e-08
0.126661
0.799803
0.99148
0.999884
0.999999
1
1
1
1
1
1
1
1
1
1
1
1
1
1
1
1
1
1
1
1
1
1
1
1
1
1
1
1
1
1
1
1
1
1
1
1
1
1
1
1
1
1
1
1
1
1
1
1
1
1
1
1
1
1
1
1
1
1
1
1
1
1
1
1
1
1
0.606331
0.00305558
6.0501e-06
8.38158e-08
7.36281e-09
2.58253e-08
1.12488e-07
5.65983e-08
4.55885e-08
6.31399e-08
3.99483e-08
5.16966e-08
4.86951e-08
2.07414e-08
6.69284e-09
9.65598e-09
0.0128675
0.765873
0.99134
0.999882
0.999999
1
1
1
1
1
1
1
1
1
1
1
1
1
1
1
1
1
1
1
1
1
1
1
1
1
1
1
1
1
1
1
1
1
1
1
1
1
1
1
1
1
1
1
1
1
1
1
1
1
1
1
1
1
1
1
1
1
1
1
1
1
1
1
1
1
1
0.999974
0.0333999
8.43074e-05
3.14846e-07
1.79307e-08
3.4353e-08
9.4554e-08
1.22751e-08
3.64766e-08
1.06317e-07
3.57367e-08
1.76375e-08
3.60571e-09
2.62473e-09
8.55262e-08
2.19979e-08
2.08655e-08
0.160866
0.203154
0.987556
0.999879
0.999999
1
1
1
1
1
1
1
1
1
1
1
1
1
1
1
1
1
1
1
1
1
1
1
1
1
1
1
1
1
1
1
1
1
1
1
1
1
1
1
1
1
1
1
1
1
1
1
1
1
1
1
1
1
1
1
1
1
1
1
1
1
1
1
1
1
1
1
0.30273
0.00107872
1.65024e-06
7.82177e-08
2.08072e-08
3.91359e-09
2.72114e-08
3.57357e-08
4.92766e-08
1.60571e-08
1.02909e-08
1.66253e-08
2.81291e-08
1.95701e-08
1.13376e-08
2.26409e-08
1.06652e-08
0.197524
0.786253
0.641304
0.999796
0.999999
1
1
1
1
1
1
1
1
1
1
1
1
1
1
1
1
1
1
1
1
1
1
1
1
1
1
1
1
1
1
1
1
1
1
1
1
1
1
1
1
1
1
1
1
1
1
1
1
1
1
1
1
1
1
1
1
1
1
1
1
1
1
1
1
1
1
1
0.987115
0.0118563
2.18384e-05
2.38712e-08
5.43591e-09
2.40841e-08
1.19044e-08
2.81559e-08
1.16855e-08
2.9736e-08
6.03284e-08
5.49499e-08
1.99265e-08
8.25303e-08
9.59863e-09
3.25735e-08
5.2297e-09
1.43762e-08
0.198737
0.879114
0.972437
0.946305
0.999999
1
1
1
1
1
1
1
1
1
1
1
1
1
1
1
1
1
1
1
1
1
1
1
1
1
1
1
1
1
1
1
1
1
1
1
1
1
1
1
1
1
1
1
1
1
1
1
1
1
1
1
1
1
1
1
1
1
1
1
1
1
1
1
1
1
1
1
1
0.112122
0.00028883
2.80711e-07
1.12116e-08
3.41161e-08
1.41092e-08
2.15558e-08
3.88333e-08
7.70719e-08
9.59329e-08
7.00711e-08
2.45312e-08
3.9085e-08
2.34161e-08
2.36642e-09
1.3444e-08
1.75038e-08
7.36707e-09
0.201847
0.884779
0.994523
0.992426
0.997729
1
1
1
1
1
1
1
1
1
1
1
1
1
1
1
1
1
1
1
1
1
1
1
1
1
1
1
1
1
1
1
1
1
1
1
1
1
1
1
1
1
1
1
1
1
1
1
1
1
1
1
1
1
1
1
1
1
1
1
1
1
1
1
1
1
1
1
1
0.746996
0.00333777
3.8964e-06
2.70526e-08
1.79484e-08
3.70654e-08
1.66278e-08
3.08922e-08
1.8514e-08
5.66394e-09
4.24827e-08
3.13507e-08
2.50657e-08
1.92071e-08
2.75968e-08
1.63152e-08
2.16353e-08
7.02134e-09
7.44838e-09
0.206736
0.889249
0.995522
0.999744
0.987212
0.999969
1
1
1
1
1
1
1
1
1
1
1
1
1
1
1
1
1
1
1
1
1
1
1
1
1
1
1
1
1
1
1
1
1
1
1
1
1
1
1
1
1
1
1
1
1
1
1
1
1
1
1
1
1
1
1
1
1
1
1
1
1
1
1
1
1
1
1
0.999999
0.0335988
5.82834e-05
1.22101e-08
1.4361e-08
3.52406e-08
5.16666e-08
1.33838e-08
6.85564e-09
1.4884e-07
1.3643e-07
2.65652e-07
7.54099e-08
1.70952e-08
1.49263e-08
2.96745e-08
5.02726e-08
6.0797e-09
6.77163e-09
8.95374e-09
0.213342
0.895805
0.996038
0.999842
0.999972
0.986042
1
1
1
1
1
1
1
1
1
1
1
1
1
1
1
1
1
1
1
1
1
1
1
1
1
1
1
1
1
1
1
1
1
1
1
1
1
1
1
1
1
1
1
1
1
1
1
1
1
1
1
1
1
1
1
1
1
1
1
1
1
1
1
1
1
1
1
1
0.289569
0.000736226
6.90051e-07
2.07334e-07
2.1731e-08
6.44658e-08
2.58105e-08
2.41012e-08
1.70178e-07
8.77632e-08
2.51712e-08
6.89609e-08
4.80843e-08
1.01249e-08
1.28521e-08
2.13513e-08
1.30734e-08
3.35233e-08
6.88661e-09
1.32991e-08
0.220206
0.903747
0.996589
0.999879
0.999988
0.999986
0.939275
1
1
1
1
1
1
1
1
1
1
1
1
1
1
1
1
1
1
1
1
1
1
1
1
1
1
1
1
1
1
1
1
1
1
1
1
1
1
1
1
1
1
1
1
1
1
1
1
1
1
1
1
1
1
1
1
1
1
1
1
1
1
1
1
1
1
1
0.981325
0.00784785
8.8133e-06
1.41003e-07
5.95496e-08
8.28041e-08
1.9473e-07
2.88405e-08
1.20332e-07
3.62505e-08
2.67417e-07
1.18238e-07
1.33551e-07
4.05091e-08
3.26198e-08
7.27184e-09
7.99802e-08
5.52927e-08
5.98496e-09
1.10689e-08
6.10089e-09
0.228174
0.911542
0.99713
0.999906
0.999993
0.999996
0.999959
0.541802
1
1
1
1
1
1
1
1
1
1
1
1
1
1
1
1
1
1
1
1
1
1
1
1
1
1
1
1
1
1
1
1
1
1
1
1
1
1
1
1
1
1
1
1
1
1
1
1
1
1
1
1
1
1
1
1
1
1
1
1
1
1
1
1
1
1
1
0.0730012
0.000117939
7.21582e-08
3.78061e-08
3.97379e-08
3.9712e-08
6.27394e-08
1.31109e-07
7.24609e-08
3.16606e-07
1.02735e-07
2.44259e-08
2.6098e-08
1.72909e-08
2.5618e-08
6.20288e-08
3.14726e-08
2.39281e-08
1.75347e-08
5.83546e-09
7.37366e-09
0.236693
0.919703
0.997603
0.999928
0.999995
0.999998
0.999993
0.999541
0.9159
1
1
1
1
1
1
1
1
1
1
1
1
1
1
1
1
1
1
1
1
1
1
1
1
1
1
1
1
1
1
1
1
1
1
1
1
1
1
1
1
1
1
1
1
1
1
1
1
1
1
1
1
1
1
1
1
1
1
1
1
1
1
1
1
1
1
0.545551
0.00139905
6.17363e-07
4.89139e-08
8.15773e-08
2.52835e-07
9.86217e-08
6.93763e-08
9.67483e-08
3.19688e-07
6.51019e-08
1.67637e-07
6.71309e-08
4.27719e-08
3.19381e-08
1.08481e-07
3.64907e-08
4.26091e-08
6.70657e-09
6.47935e-09
9.15442e-09
1.87781e-09
0.245557
0.927626
0.998037
0.999945
0.999996
0.999999
0.999997
0.999952
0.982808
0.996124
1
1
1
1
1
1
1
1
1
1
1
1
1
1
1
1
1
1
1
1
1
1
1
1
1
1
1
1
1
1
1
1
1
1
1
1
1
1
1
1
1
1
1
1
1
1
1
1
1
1
1
1
1
1
1
1
1
1
1
1
1
1
1
1
1
0.999755
0.0142019
1.25309e-05
7.86144e-08
5.16938e-08
7.4844e-08
4.3764e-08
6.84553e-08
9.08776e-08
1.00626e-07
1.29747e-07
1.93759e-07
2.28337e-08
2.00027e-08
1.91629e-08
8.95111e-08
4.26195e-08
5.22468e-08
2.72944e-08
3.04419e-08
8.62663e-09
8.09564e-09
6.74487e-10
0.25514
0.934954
0.998413
0.999958
0.999997
0.999999
0.999998
0.999981
0.999371
0.846994
0.99965
1
1
1
1
1
1
1
1
1
1
1
1
1
1
1
1
1
1
1
1
1
1
1
1
1
1
1
1
1
1
1
1
1
1
1
1
1
1
1
1
1
1
1
1
1
1
1
1
1
1
1
1
1
1
1
1
1
1
1
1
1
1
1
1
1
0.126661
0.000181445
5.7069e-08
8.59251e-09
1.18266e-07
4.40252e-08
1.04753e-07
3.93636e-08
3.87006e-09
1.20106e-07
1.65812e-07
1.36222e-08
3.31089e-08
3.65951e-08
7.44894e-08
4.68873e-08
4.79655e-08
7.60023e-09
6.08908e-09
2.74646e-09
2.16497e-09
2.50666e-09
9.3609e-10
0.264785
0.942079
0.998721
0.999969
0.999998
0.999999
0.999999
0.99999
0.999769
0.992529
0.46515
0.99994
1
1
1
1
1
1
1
1
1
1
1
1
1
1
1
1
1
1
1
1
1
1
1
1
1
1
1
1
1
1
1
1
1
1
1
1
1
1
1
1
1
1
1
1
1
1
1
1
1
1
1
1
1
1
1
1
1
1
1
1
1
1
1
1
0.75635
0.00207838
1.44908e-06
7.66649e-08
1.84499e-07
4.4224e-08
6.13186e-08
3.73824e-08
5.21608e-08
1.06654e-07
8.29277e-08
2.79326e-08
4.19959e-08
1.0128e-08
4.13585e-08
7.50505e-08
8.11119e-08
1.04389e-08
3.64113e-08
2.53855e-08
1.68497e-08
2.43522e-09
6.8591e-10
0.274336
0.948602
0.998982
0.999977
0.999999
1
0.999999
0.999994
0.99989
0.997397
0.945552
0.225867
0.999986
1
1
1
1
1
1
1
1
1
1
1
1
1
1
1
1
1
1
1
1
1
1
1
1
1
1
1
1
1
1
1
1
1
1
1
1
1
1
1
1
1
1
1
1
1
1
1
1
1
1
1
1
1
1
1
1
1
1
1
1
1
1
1
0.999995
0.0198037
1.57714e-05
7.37586e-08
1.73311e-07
1.70012e-08
5.04836e-09
4.29217e-08
3.51741e-08
5.76574e-08
6.95102e-09
2.33884e-08
2.87824e-08
2.80278e-08
2.67023e-08
7.04679e-08
3.43112e-08
9.4174e-09
5.92525e-09
2.06691e-08
3.26678e-08
4.89885e-08
2.71601e-09
0.283682
0.954325
0.999196
0.999983
0.999999
1
0.999999
0.999995
0.999931
0.99878
0.980594
0.778848
0.60488
0.999996
1
1
1
1
1
1
1
1
1
1
1
1
1
1
1
1
1
1
1
1
1
1
1
1
1
1
1
1
1
1
1
1
1
1
1
1
1
1
1
1
1
1
1
1
1
1
1
1
1
1
1
1
1
1
1
1
1
1
1
1
1
1
1
0.157202
0.00021319
2.31518e-07
5.43654e-08
6.16122e-08
5.3185e-08
1.45048e-08
7.08353e-08
6.07292e-08
7.26124e-08
1.06049e-09
3.93474e-08
6.13573e-08
2.78486e-08
2.06654e-08
1.58499e-08
4.59685e-08
2.42951e-08
8.40042e-09
3.44262e-08
8.24574e-08
4.8982e-08
0.292746
0.959246
0.999364
0.999988
0.999999
1
0.999999
0.999996
0.999949
0.99924
0.99054
0.91273
0.471311
0.78974
0.999999
1
1
1
1
1
1
1
1
1
1
1
1
1
1
1
1
1
1
1
1
1
1
1
1
1
1
1
1
1
1
1
1
1
1
1
1
1
1
1
1
1
1
1
1
1
1
1
1
1
1
1
1
1
1
1
1
1
1
1
1
1
1
0.819558
0.00220875
1.42645e-06
2.65566e-08
7.42886e-08
8.63855e-08
8.01614e-09
4.66198e-08
3.12405e-08
4.78867e-09
1.12295e-08
1.01437e-07
1.05549e-07
4.20891e-08
8.13742e-09
2.14536e-08
3.92587e-08
3.52539e-08
1.27587e-08
3.3923e-08
4.71417e-08
1.09423e-07
0.301482
0.963664
0.999494
0.999991
0.999999
1
1
0.999997
0.999959
0.999451
0.994061
0.95406
0.753782
0.148487
0.879514
1
1
1
1
1
1
1
1
1
1
1
1
1
1
1
1
1
1
1
1
1
1
1
1
1
1
1
1
1
1
1
1
1
1
1
1
1
1
1
1
1
1
1
1
1
1
1
1
1
1
1
1
1
1
1
1
1
1
1
1
1
1
0.999999
0.0196187
1.34948e-05
6.21302e-08
2.42628e-08
5.66394e-09
1.99325e-08
2.00272e-08
5.72471e-08
1.32117e-08
7.00757e-08
6.48131e-08
5.21762e-08
7.31649e-08
7.36835e-08
4.38706e-08
3.23614e-08
3.67779e-08
2.56156e-08
2.91906e-08
4.41305e-08
1.1528e-08
0.309828
0.967607
0.999597
0.999993
1
1
1
0.999997
0.999964
0.999565
0.995718
0.970166
0.856232
0.520488
0.176913
0.928872
1
1
1
1
1
1
1
1
1
1
1
1
1
1
1
1
1
1
1
1
1
1
1
1
1
1
1
1
1
1
1
1
1
1
1
1
1
1
1
1
1
1
1
1
1
1
1
1
1
1
1
1
1
1
1
1
1
1
1
1
1
1
0.155796
0.000171499
4.14123e-07
6.01222e-08
1.73801e-07
5.321e-08
1.60613e-08
1.76351e-08
3.2545e-08
4.21059e-08
8.55134e-08
5.29053e-08
1.54778e-07
1.08224e-07
3.51593e-08
3.99253e-08
2.01108e-08
4.27671e-08
4.17309e-08
2.98804e-08
4.9551e-08
0.317801
0.970957
0.999678
0.999995
1
1
1
0.999997
0.999968
0.999615
0.996614
0.978156
0.90163
0.687153
0.277662
0.36392
0.958813
1
1
1
1
1
1
1
1
1
1
1
1
1
1
1
1
1
1
1
1
1
1
1
1
1
1
1
1
1
1
1
1
1
1
1
1
1
1
1
1
1
1
1
1
1
1
1
1
1
1
1
1
1
1
1
1
1
1
1
1
1
0.776283
0.00175089
7.54527e-07
2.03973e-07
1.48587e-07
2.98052e-08
7.76314e-08
9.05706e-08
7.03109e-08
6.24826e-08
3.81288e-08
6.59898e-08
1.90179e-07
6.87617e-08
1.45816e-08
2.79229e-08
2.33922e-08
5.27998e-08
2.09999e-08
6.33652e-08
1.97301e-08
0.325363
0.973882
0.999742
0.999996
1
1
1
0.999998
0.999971
0.999659
0.997046
0.982588
0.925794
0.772015
0.480128
0.0856707
0.504005
0.977522
1
1
1
1
1
1
1
1
1
1
1
1
1
1
1
1
1
1
1
1
1
1
1
1
1
1
1
1
1
1
1
1
1
1
1
1
1
1
1
1
1
1
1
1
1
1
1
1
1
1
1
1
1
1
1
1
1
1
1
1
0.99998
0.0144884
8.7355e-06
2.38857e-07
2.76292e-08
6.75173e-08
1.59206e-07
5.2702e-08
2.00755e-08
3.93254e-08
5.69703e-08
1.04319e-07
1.90722e-07
6.62534e-08
5.99828e-08
7.27148e-08
5.22636e-08
2.66747e-08
1.22076e-08
2.52018e-08
3.75737e-08
0.332554
0.976429
0.999792
0.999997
1
1
1
0.999998
0.999973
0.999692
0.997402
0.984886
0.939704
0.821137
0.59674
0.279079
0.129945
0.609923
0.988974
1
1
1
1
1
1
1
1
1
1
1
1
1
1
1
1
1
1
1
1
1
1
1
1
1
1
1
1
1
1
1
1
1
1
1
1
1
1
1
1
1
1
1
1
1
1
1
1
1
1
1
1
1
1
1
1
1
1
1
1
0.100591
0.000107639
4.16543e-07
1.18829e-07
1.39631e-07
1.64894e-07
6.09987e-08
3.68209e-08
6.11546e-08
9.54634e-09
5.35309e-08
1.23698e-07
8.76579e-09
1.06244e-07
8.34983e-08
4.02303e-08
4.3321e-08
1.3579e-08
6.10789e-08
1.96548e-08
0.3395
0.978663
0.999831
0.999998
1
1
1
0.999998
0.999976
0.999718
0.997668
0.986773
0.947504
0.850885
0.670011
0.410234
0.113432
0.254768
0.69427
0.995356
1
1
1
1
1
1
1
1
1
1
1
1
1
1
1
1
1
1
1
1
1
1
1
1
1
1
1
1
1
1
1
1
1
1
1
1
1
1
1
1
1
1
1
1
1
1
1
1
1
1
1
1
1
1
1
1
1
1
1
0.569238
0.000948702
3.24894e-08
8.01827e-08
5.68312e-08
6.9044e-08
8.17196e-09
2.97227e-08
3.27724e-08
1.80148e-08
2.33515e-08
5.87596e-08
6.91811e-08
1.15229e-07
7.22121e-08
1.11568e-08
6.31831e-08
4.79651e-09
2.74713e-08
5.8046e-08
0.346295
0.980589
0.999863
0.999999
1
1
1
0.999998
0.999979
0.999743
0.99787
0.988158
0.953925
0.868765
0.716792
0.498614
0.240533
0.0731436
0.359838
0.764485
0.99842
1
1
1
1
1
1
1
1
1
1
1
1
1
1
1
1
1
1
1
1
1
1
1
1
1
1
1
1
1
1
1
1
1
1
1
1
1
1
1
1
1
1
1
1
1
1
1
1
1
1
1
1
1
1
1
1
1
1
0.998635
0.00716126
4.47734e-06
1.92463e-07
8.86732e-08
1.7078e-07
1.17363e-08
4.68378e-08
6.2732e-08
6.94966e-09
2.81383e-08
7.38075e-08
9.58728e-08
1.11304e-07
1.22706e-08
6.96144e-08
7.67471e-08
3.63443e-08
8.31502e-08
9.29663e-09
0.353121
0.982389
0.999888
0.999999
1
1
1
0.999999
0.999982
0.999771
0.998054
0.989186
0.958658
0.883733
0.746984
0.557845
0.333164
0.102539
0.172064
0.44877
0.824745
0.999601
1
1
1
1
1
1
1
1
1
1
1
1
1
1
1
1
1
1
1
1
1
1
1
1
1
1
1
1
1
1
1
1
1
1
1
1
1
1
1
1
1
1
1
1
1
1
1
1
1
1
1
1
1
1
1
1
1
1
0.0500679
4.57766e-05
1.9727e-07
5.32925e-08
1.1385e-07
1.67696e-08
1.82049e-08
3.48439e-08
1.55785e-08
3.91004e-08
4.94083e-08
1.03191e-07
8.90451e-08
6.99366e-09
9.31327e-08
3.69579e-08
4.15174e-08
1.04044e-07
6.23946e-08
0.36
0.984036
0.999909
0.999999
1
1
1
0.999999
0.999985
0.999803
0.998255
0.990094
0.962114
0.894832
0.772885
0.598622
0.398151
0.188678
0.0634165
0.265391
0.527432
0.875944
0.999931
1
1
1
1
1
1
1
1
1
1
1
1
1
1
1
1
1
1
1
1
1
1
1
1
1
1
1
1
1
1
1
1
1
1
1
1
1
1
1
1
1
1
1
1
1
1
1
1
1
1
1
1
1
1
1
1
1
0.301669
0.000360241
1.28438e-07
2.57552e-08
5.50474e-08
3.13231e-08
3.8169e-08
3.97913e-09
4.61056e-08
2.29623e-08
3.16096e-08
7.99843e-08
5.39476e-08
3.64889e-08
8.42266e-08
2.46012e-08
1.01255e-07
5.90973e-08
1.25314e-07
0.367123
0.985559
0.999926
0.999999
1
1
1
0.999999
0.999988
0.999837
0.998485
0.991057
0.965124
0.902928
0.79215
0.634123
0.445531
0.25382
0.0755672
0.146488
0.346932
0.599179
0.918515
0.999993
1
1
1
1
1
1
1
1
1
1
1
1
1
1
1
1
1
1
1
1
1
1
1
1
1
1
1
1
1
1
1
1
1
1
1
1
1
1
1
1
1
1
1
1
1
1
1
1
1
1
1
1
1
1
1
1
0.919206
0.00252331
2.38462e-06
4.83839e-08
5.44586e-08
7.64117e-08
2.96296e-08
2.90777e-08
5.7025e-08
6.54294e-08
2.97815e-08
3.3801e-08
3.715e-08
2.56253e-08
4.43531e-08
6.91008e-08
1.25107e-07
4.02925e-08
1.22949e-07
0.374552
0.987024
0.99994
1
1
1
1
1
0.999991
0.99987
0.99872
0.992119
0.968194
0.909948
0.806509
0.661138
0.487328
0.303748
0.132383
0.0709196
0.229355
0.420238
0.666689
0.951676
1
1
1
1
1
1
1
1
1
1
1
1
1
1
1
1
1
1
1
1
1
1
1
1
1
1
1
1
1
1
1
1
1
1
1
1
1
1
1
1
1
1
1
1
1
1
1
1
1
1
1
1
1
1
1
1
0.999999
0.0155422
1.63931e-05
1.02549e-07
5.08658e-08
6.31239e-08
1.94441e-08
2.96546e-08
4.27102e-08
5.01185e-08
3.81667e-08
4.67202e-08
3.55129e-08
1.9725e-08
5.31601e-08
1.16577e-07
5.83737e-08
8.31659e-08
6.12984e-08
0.382376
0.988328
0.999952
1
1
1
1
1
0.999994
0.999898
0.998947
0.993198
0.971515
0.916915
0.818669
0.681286
0.519763
0.348541
0.180965
0.0539343
0.148535
0.30376
0.488464
0.731095
0.975075
1
1
1
1
1
1
1
1
1
1
1
1
1
1
1
1
1
1
1
1
1
1
1
1
1
1
1
1
1
1
1
1
1
1
1
1
1
1
1
1
1
1
1
1
1
1
1
1
1
1
1
1
1
1
1
1
0.0868237
9.72938e-05
1.06869e-07
2.56778e-08
2.7717e-08
2.31061e-08
2.2169e-08
3.52262e-08
1.3654e-07
6.09886e-08
2.66667e-08
2.73891e-08
4.38127e-08
6.21115e-08
6.63136e-08
1.0959e-08
1.51714e-07
4.8811e-09
0.390709
0.989562
0.999961
1
1
1
1
1
0.999995
0.999923
0.999157
0.994255
0.974896
0.924336
0.8307
0.698404
0.543945
0.383435
0.226028
0.0840822
0.0945394
0.223954
0.372086
0.553692
0.792106
0.989395
1
1
1
1
1
1
1
1
1
1
1
1
1
1
1
1
1
1
1
1
1
1
1
1
1
1
1
1
1
1
1
1
1
1
1
1
1
1
1
1
1
1
1
1
1
1
1
1
1
1
1
1
1
1
1
0.424895
0.000533374
9.56435e-07
4.48955e-08
1.43614e-07
4.88129e-09
5.43216e-08
4.77767e-08
1.19605e-07
3.9322e-08
1.61086e-08
3.30239e-08
4.5046e-08
3.74668e-08
6.96391e-08
4.53299e-08
1.63896e-07
7.59516e-08
0.399612
0.990742
0.999969
1
1
1
1
1
0.999997
0.999944
0.999342
0.99525
0.978215
0.931935
0.843379
0.715209
0.564706
0.409766
0.261229
0.12472
0.0624706
0.167571
0.292984
0.436376
0.617482
0.84851
0.996532
1
1
1
1
1
1
1
1
1
1
1
1
1
1
1
1
1
1
1
1
1
1
1
1
1
1
1
1
1
1
1
1
1
1
1
1
1
1
1
1
1
1
1
1
1
1
1
1
1
1
1
1
1
1
0.971192
0.00302256
4.82708e-06
3.04299e-08
2.07141e-08
4.36233e-08
2.08923e-08
4.50016e-08
8.52011e-08
3.59539e-08
5.70433e-08
3.56543e-08
2.38545e-08
3.59252e-08
3.18795e-08
4.67839e-08
7.52395e-08
1.209e-07
0.409082
0.99183
0.999976
1
1
1
1
1
0.999998
0.99996
0.999503
0.996168
0.981403
0.939384
0.856106
0.732629
0.584818
0.432343
0.287891
0.157704
0.0642162
0.123861
0.236452
0.357081
0.498627
0.680438
0.898277
0.999209
1
1
1
1
1
1
1
1
1
1
1
1
1
1
1
1
1
1
1
1
1
1
1
1
1
1
1
1
1
1
1
1
1
1
1
1
1
1
1
1
1
1
1
1
1
1
1
1
1
1
1
1
1
1
0.0173227
1.80692e-05
1.45711e-07
2.84846e-08
2.43989e-08
1.11654e-07
8.03013e-08
5.61222e-08
6.583e-08
8.46346e-08
3.36356e-08
8.79334e-09
1.71828e-08
4.60299e-08
3.81488e-08
7.16358e-08
1.19562e-07
0.419141
0.99283
0.999981
1
1
1
1
1
0.999999
0.999972
0.999634
0.996989
0.984454
0.946689
0.868835
0.750037
0.605312
0.453899
0.31081
0.183108
0.0821292
0.094062
0.191264
0.300276
0.418423
0.560095
0.742443
0.938942
0.999892
1
1
1
1
1
1
1
1
1
1
1
1
1
1
1
1
1
1
1
1
1
1
1
1
1
1
1
1
1
1
1
1
1
1
1
1
1
1
1
1
1
1
1
1
1
1
1
1
1
1
1
1
1
0.0940414
7.1452e-05
3.80362e-07
8.68321e-08
1.09106e-08
2.03056e-08
8.35065e-08
3.06684e-08
6.39822e-08
4.93767e-08
6.75815e-08
2.41177e-08
4.53831e-08
7.87789e-08
9.71788e-08
5.74558e-08
9.98715e-08
0.429761
0.993745
0.999985
1
1
1
1
1
0.999999
0.999981
0.999736
0.997691
0.98731
0.953925
0.881622
0.767544
0.625662
0.475797
0.33278
0.205258
0.100961
0.0770958
0.156262
0.254815
0.36087
0.47844
0.621593
0.80243
0.968603
0.999993
1
1
1
1
1
1
1
1
1
1
1
1
1
1
1
1
1
1
1
1
1
1
1
1
1
1
1
1
1
1
1
1
1
1
1
1
1
1
1
1
1
1
1
1
1
1
1
1
1
1
1
1
0.397318
0.000358904
1.18767e-06
9.66843e-08
8.06445e-09
4.14838e-08
6.93255e-08
3.04813e-08
1.33913e-07
7.47237e-08
1.08171e-07
7.15965e-08
5.08664e-08
5.80936e-08
4.55504e-08
6.30417e-08
7.55364e-08
0.440924
0.994574
0.999988
1
1
1
1
1
0.999999
0.999987
0.999812
0.998265
0.989848
0.960955
0.894479
0.785268
0.645973
0.49693
0.354211
0.226247
0.119801
0.0713902
0.130147
0.218684
0.314847
0.419686
0.53799
0.683437
0.858317
0.986998
1
1
1
1
1
1
1
1
1
1
1
1
1
1
1
1
1
1
1
1
1
1
1
1
1
1
1
1
1
1
1
1
1
1
1
1
1
1
1
1
1
1
1
1
1
1
1
1
1
1
1
1
0.919349
0.00195879
3.09971e-06
9.819e-08
2.54229e-08
6.57429e-08