/*--------------------------------*- C++ -*----------------------------------*\
| =========                 |                                                 |
| \\      /  F ield         | OpenFOAM: The Open Source CFD Toolbox           |
|  \\    /   O peration     | Version:  v2012                                 |
|   \\  /    A nd           | Website:  www.openfoam.com                      |
|    \\/     M anipulation  |                                                 |
\*---------------------------------------------------------------------------*/
FoamFile
{
    version     2.0;
    format      ascii;
    class       volScalarField;
    location    "2000";
    object      rho;
}
// * * * * * * * * * * * * * * * * * * * * * * * * * * * * * * * * * * * * * //

dimensions      [1 -3 0 0 0 0 0];


internalField   nonuniform List<scalar> 
39402
(
0.0372322
0.0400152
0.0350359
0.0337302
0.0361941
0.036221
0.0325469
0.0315436
0.0337749
0.0387203
0.0315858
0.0304457
0.0299121
0.0322077
0.0419566
0.0313155
0.0294264
0.0288559
0.0286636
0.0312209
0.0457606
0.0313241
0.0290719
0.0278168
0.0276203
0.0276977
0.0306871
0.0499539
0.0312708
0.0290144
0.0274191
0.0265818
0.0266482
0.0269547
0.0305351
0.0544927
0.0313611
0.0289304
0.0273251
0.0261632
0.025623
0.0258851
0.0263989
0.0307329
0.0593535
0.0314076
0.0289907
0.0272257
0.0260487
0.0251975
0.0248824
0.0252973
0.0260106
0.0312718
0.0644931
0.0314129
0.0290258
0.027268
0.0259418
0.0250726
0.02446
0.0243235
0.0248629
0.0257824
0.0321664
0.0699456
0.0313939
0.0290329
0.0272968
0.0259723
0.0249628
0.0243315
0.0239112
0.0239211
0.024568
0.0257174
0.0334434
0.0757086
0.0314044
0.0290232
0.0273047
0.0259971
0.0249852
0.0242217
0.0237839
0.023523
0.0236553
0.024404
0.0258259
0.0351465
0.0817786
0.0313938
0.0290423
0.0272999
0.0260045
0.0250069
0.0242384
0.023676
0.0233996
0.0232725
0.0235118
0.0243701
0.0261296
0.0373382
0.0881934
0.0313809
0.0290439
0.0273227
0.0260013
0.0250121
0.0242574
0.0236886
0.0232946
0.023154
0.0231415
0.0234822
0.0244739
0.0266597
0.0400882
0.0949946
0.0313794
0.0290442
0.0273308
0.0260246
0.0250083
0.0242589
0.0237044
0.0233034
0.0230521
0.0230269
0.0231163
0.0235628
0.0247328
0.0274611
0.0434744
0.1022
0.0313759
0.0290548
0.0273381
0.0260355
0.02503
0.0242526
0.0237016
0.0233164
0.0230573
0.0229272
0.0230027
0.023191
0.0237567
0.0251667
0.0285955
0.0475872
0.10984
0.0313563
0.0290641
0.0273552
0.0260459
0.0250408
0.0242709
0.023691
0.0233083
0.0230671
0.0229288
0.0229036
0.0230724
0.0233633
0.0240765
0.0258056
0.0301412
0.0525067
0.117969
0.0313382
0.0290587
0.0273715
0.0260657
0.0250514
0.0242794
0.0237045
0.0232922
0.0230528
0.0229347
0.0229008
0.0229706
0.023232
0.0236355
0.0245349
0.0266759
0.0322034
0.0583683
0.126869
0.0313317
0.0290551
0.0273744
0.0260851
0.0250711
0.0242877
0.0237089
0.0232996
0.0230302
0.0229134
0.0229017
0.022962
0.0231225
0.0234804
0.024015
0.0251493
0.0278074
0.0349133
0.0652549
0.136528
0.0313299
0.0290625
0.0273791
0.0260924
0.0250907
0.0243051
0.0237129
0.0232982
0.0230304
0.0228834
0.0228725
0.0229558
0.0231056
0.0233572
0.0238198
0.0245103
0.0259349
0.0292589
0.038417
0.0735241
0.147113
0.0313242
0.0290737
0.0273939
0.0261012
0.0250992
0.0243226
0.0237261
0.0232965
0.0230223
0.0228756
0.0228341
0.0229177
0.02309
0.0233279
0.0236748
0.0242556
0.0251353
0.026925
0.0311214
0.042871
0.0826412
0.157581
0.0313153
0.0290811
0.0274121
0.0261193
0.025109
0.0243298
0.0237396
0.0233041
0.0230136
0.0228596
0.0228176
0.0228698
0.0230414
0.0233002
0.0236274
0.0240777
0.0247969
0.0259118
0.0281767
0.0335165
0.0484143
0.0925051
0.166809
0.0313119
0.0290853
0.0274269
0.0261409
0.0251277
0.0243382
0.0237435
0.0233122
0.0230144
0.0228431
0.022793
0.0228433
0.0229824
0.023239
0.0235844
0.0240052
0.0245711
0.0254574
0.0268715
0.0297629
0.0366199
0.0551403
0.103219
0.17308
0.0313114
0.0290943
0.0274386
0.0261592
0.0251499
0.0243553
0.0237485
0.0233111
0.023016
0.0228363
0.0227677
0.0228091
0.0229448
0.0231674
0.0235079
0.0239423
0.0244642
0.0251638
0.0262569
0.028058
0.0317705
0.0406713
0.0631948
0.114911
0.175516
0.0313083
0.0291054
0.0274545
0.0261747
0.0251691
0.0243759
0.0237622
0.0233111
0.0230086
0.0228304
0.0227525
0.0227742
0.0228997
0.0231171
0.0234214
0.023847
0.0243755
0.0250103
0.0258686
0.027223
0.0295303
0.0342924
0.0459865
0.0726536
0.127119
0.175016
0.0312992
0.0291143
0.0274723
0.0261941
0.0251856
0.0243938
0.0237795
0.0233199
0.0230025
0.0228159
0.0227385
0.0227499
0.0228541
0.0230597
0.0233566
0.0237428
0.0242568
0.0248875
0.0256518
0.0267036
0.0283945
0.0313684
0.0374618
0.0529304
0.0835273
0.138307
0.173384
0.0312935
0.0291179
0.0274879
0.0262152
0.0252058
0.0244093
0.0237944
0.0233326
0.0230054
0.0228027
0.0227161
0.022727
0.0228197
0.0230021
0.0232854
0.0236614
0.0241317
0.0247395
0.0254843
0.0264014
0.0276944
0.0298255
0.033682
0.0415651
0.0618198
0.0953689
0.148558
0.170529
0.0312907
0.0291243
0.0274986
0.0262342
0.0252278
0.0244283
0.023807
0.0233432
0.0230125
0.022799
0.0226953
0.022696
0.0227871
0.0229565
0.0232143
0.0235744
0.0240309
0.0245892
0.0252994
0.0261747
0.0272764
0.0288768
0.0315914
0.0366187
0.0470534
0.0726001
0.107719
0.156707
0.16713
0.0312881
0.0291328
0.0275117
0.0262485
0.0252477
0.0244492
0.0238233
0.0233516
0.0230177
0.0227998
0.0226842
0.0226668
0.0227466
0.022913
0.0231561
0.0234883
0.0239258
0.0244658
0.0251183
0.0259427
0.0269711
0.0283013
0.030301
0.033795
0.040349
0.0544545
0.0845578
0.119806
0.164039
0.16259
0.0312852
0.0291411
0.0275266
0.026265
0.0252633
0.0244681
0.0238415
0.0233637
0.0230208
0.0227987
0.022678
0.0226479
0.0227083
0.0228621
0.0231008
0.0234161
0.0238226
0.0243397
0.0249679
0.0257237
0.0266787
0.0278909
0.0295105
0.0320378
0.0365745
0.0450984
0.0642635
0.0965442
0.131358
0.170246
0.157655
0.031288
0.0291489
0.027541
0.026283
0.0252808
0.0244829
0.0238579
0.0233781
0.0230278
0.0227958
0.0226702
0.0226341
0.0226807
0.0228137
0.0230384
0.0233475
0.0237347
0.024217
0.0248175
0.0255409
0.0264121
0.0275199
0.0289583
0.0309519
0.0341857
0.040109
0.051361
0.0764922
0.107599
0.141866
0.174801
0.152646
0.0312868
0.0291616
0.0275549
0.0263005
0.0252997
0.0244996
0.0238704
0.0233908
0.0230374
0.022797
0.0226607
0.022619
0.0226588
0.0227767
0.0229788
0.0232723
0.0236513
0.0241113
0.0246723
0.0253616
0.0261899
0.0271933
0.0284841
0.0302069
0.032693
0.0368788
0.0446187
0.0599143
0.0901555
0.11743
0.151133
0.177441
0.148188
0.0312781
0.0291705
0.0275728
0.0263173
0.0253181
0.0245178
0.0238849
0.0233997
0.0230454
0.0228011
0.0226555
0.0226024
0.0226357
0.0227458
0.0229314
0.0232006
0.0235619
0.0240113
0.0245464
0.0251905
0.0259763
0.0269224
0.0280803
0.0295952
0.0316833
0.0348287
0.0402922
0.0503699
0.0714057
0.103275
0.126177
0.159017
0.178159
0.144575
0.0312646
0.0291728
0.0275873
0.0263378
0.0253358
0.0245355
0.0239009
0.0234107
0.0230499
0.0228038
0.0226535
0.0225903
0.0226113
0.0227141
0.0228909
0.0231419
0.0234768
0.0239062
0.0244276
0.0250414
0.0257746
0.0266673
0.0277485
0.0290911
0.0308866
0.0334536
0.0374902
0.0446394
0.0579568
0.0857242
0.11433
0.134159
0.164722
0.177611
0.141712
0.0312618
0.0291702
0.0275954
0.026355
0.0253569
0.0245524
0.0239165
0.0234235
0.0230567
0.0228033
0.0226505
0.0225819
0.0225919
0.0226813
0.0228497
0.0230907
0.0234056
0.0238062
0.0243049
0.0249012
0.0255986
0.0264294
0.0274427
0.028682
0.0302501
0.0324046
0.0356106
0.0408555
0.0501785
0.0683452
0.101091
0.123259
0.141324
0.168318
0.176085
0.139237
0.0312685
0.0291767
0.0275989
0.0263662
0.0253749
0.0245727
0.0239314
0.0234359
0.0230654
0.0228051
0.0226444
0.0225727
0.0225766
0.0226539
0.0228079
0.0230392
0.0233428
0.0237213
0.0241883
0.0247585
0.0254339
0.0262219
0.0271614
0.0283133
0.0297415
0.031591
0.0342141
0.0382845
0.0451494
0.0573245
0.0821274
0.114602
0.130852
0.147636
0.170476
0.173071
0.137555
0.0312728
0.0291912
0.0276103
0.0263728
0.0253871
0.02459
0.0239496
0.0234478
0.0230739
0.0228092
0.0226409
0.0225606
0.0225606
0.022631
0.0227717
0.0229875
0.0232802
0.0236457
0.0240883
0.0246235
0.0252686
0.0260288
0.0269166
0.0279793
0.0292938
0.0309522
0.0331601
0.0364067
0.0416516
0.0506284
0.0669079
0.0984012
0.125113
0.136792
0.15337
0.171497
0.168245
0.136771
0.0312628
0.0292032
0.0276288
0.0263866
0.0253949
0.0246017
0.0239651
0.0234631
0.0230821
0.0228132
0.0226399
0.0225514
0.0225421
0.0226077
0.0227407
0.0229419
0.0232177
0.0235708
0.0239985
0.0245065
0.0251127
0.0258375
0.0266904
0.0276898
0.0288947
0.0304034
0.0323484
0.0350228
0.0391111
0.0459355
0.0575735
0.0799017
0.114287
0.132624
0.140986
0.157991
0.172414
0.16201
0.136333
0.0312487
0.0292024
0.0276448
0.0264068
0.0254093
0.0246093
0.0239752
0.0234759
0.0230937
0.022817
0.0226389
0.022545
0.0225267
0.0225823
0.0227096
0.0229021
0.0231619
0.0234966
0.0239102
0.0244011
0.0249768
0.025658
0.026469
0.0274244
0.0285511
0.0299232
0.0316686
0.0339778
0.0372713
0.0425026
0.0513848
0.0666807
0.0963268
0.126608
0.137456
0.144913
0.161036
0.172692
0.156198
0.136067
0.0312417
0.0291975
0.0276488
0.0264246
0.0254298
0.024623
0.0239813
0.0234836
0.0231032
0.0228246
0.0226381
0.0225387
0.0225145
0.0225603
0.0226767
0.0228625
0.0231125
0.0234298
0.0238232
0.0242979
0.024854
0.0255008
0.0262624
0.0271679
0.0282389
0.029513
0.0310852
0.033125
0.0359073
0.0400354
0.0468086
0.058282
0.0791005
0.113779
0.134241
0.140849
0.148369
0.164092
0.171814
0.151177
0.135912
0.0312466
0.0291985
0.0276488
0.026431
0.0254478
0.0246426
0.0239934
0.0234874
0.0231078
0.0228302
0.0226411
0.0225328
0.0225027
0.0225419
0.0226476
0.0228216
0.0230638
0.0233701
0.0237444
0.0241969
0.0247343
0.0253584
0.0260809
0.0269301
0.027941
0.0291441
0.030592
0.0324084
0.0348222
0.0382314
0.0434942
0.0522862
0.0672428
0.0953113
0.127792
0.138799
0.143285
0.151397
0.165858
0.169966
0.146972
0.135799
0.0312533
0.0292096
0.0276538
0.0264334
0.0254551
0.0246599
0.0240115
0.0234972
0.0231086
0.0228311
0.0226425
0.022531
0.0224914
0.022524
0.0226224
0.0227848
0.0230142
0.0233115
0.0236734
0.024105
0.0246179
0.0252204
0.0259165
0.0267209
0.0276667
0.0287968
0.0301536
0.0318102
0.0339304
0.0368296
0.0410841
0.0478804
0.0592231
0.0793029
0.113514
0.136191
0.141605
0.145054
0.153401
0.167466
0.167698
0.143342
0.135714
0.0312446
0.0292221
0.0276678
0.0264403
0.0254584
0.0246669
0.0240272
0.0235129
0.0231153
0.0228284
0.0226394
0.022528
0.0224845
0.022507
0.0225981
0.0227525
0.0229692
0.0232526
0.0236041
0.0240217
0.0245115
0.0250868
0.0257578
0.0265312
0.0274253
0.0284795
0.0297467
0.0312852
0.0331968
0.0357034
0.0392458
0.0446496
0.0534586
0.0681488
0.0952514
0.128849
0.140653
0.143426
0.146648
0.155926
0.16765
0.164169
0.140504
0.135647
0.0312259
0.0292207
0.0276829
0.0264553
0.0254657
0.02467
0.0240331
0.0235265
0.0231283
0.0228319
0.0226329
0.0225206
0.0224767
0.0224947
0.022575
0.0227213
0.0229292
0.0231987
0.0235351
0.0239408
0.0244148
0.0249645
0.0256051
0.0263493
0.0272067
0.0282005
0.0293781
0.0308053
0.0325626
0.0347919
0.0378006
0.0422101
0.049167
0.0605132
0.0800613
0.113669
0.13798
0.14316
0.144686
0.148059
0.158267
0.167559
0.159813
0.13839
0.135595
0.0312039
0.0292101
0.0276851
0.0264712
0.0254807
0.0246768
0.0240351
0.0235306
0.0231394
0.0228418
0.0226327
0.02251
0.0224647
0.0224818
0.0225568
0.0226915
0.0228906
0.0231504
0.0234717
0.0238608
0.0243212
0.0248531
0.0254653
0.0261751
0.0269982
0.0279484
0.0290548
0.030375
0.0319921
0.0340172
0.0366512
0.0403258
0.0459143
0.0549031
0.0695406
0.0958165
0.129676
0.142288
0.144757
0.145396
0.148754
0.161079
0.167047
0.15468
0.136991
0.135561
0.0311938
0.0291963
0.0276787
0.0264751
0.0254965
0.0246911
0.0240407
0.0235309
0.0231413
0.02285
0.0226393
0.0225059
0.0224498
0.022465
0.0225384
0.0226671
0.0228538
0.0231038
0.0234145
0.0237871
0.0242293
0.0247456
0.0253376
0.0260156
0.0267999
0.0277095
0.0287634
0.0299987
0.031486
0.0333324
0.0356922
0.0388528
0.043426
0.0506028
0.0621393
0.0815041
0.114302
0.139142
0.144456
0.145642
0.145881
0.150323
0.162459
0.166397
0.149399
0.136325
0.135542
0.0311969
0.0291928
0.0276693
0.0264709
0.025501
0.0247061
0.0240537
0.0235349
0.0231395
0.0228493
0.0226444
0.022509
0.0224416
0.0224454
0.0225164
0.0226429
0.0228226
0.0230594
0.0233593
0.0237202
0.0241444
0.0246407
0.0252147
0.0258698
0.0266182
0.0274835
0.0284892
0.0296608
0.0310457
0.0327322
0.0348604
0.0376474
0.0415079
0.0473028
0.0565437
0.0713662
0.097284
0.130661
0.14334
0.145517
0.146046
0.145955
0.152419
0.164371
0.164554
0.144376
0.135988
0.135531
0.0312304
0.0292007
0.0276689
0.0264636
0.0254976
0.0247104
0.0240675
0.0235462
0.0231414
0.0228451
0.0226409
0.0225107
0.0224409
0.0224328
0.0224919
0.0226153
0.0227922
0.0230211
0.0233068
0.0236558
0.0240672
0.0245436
0.0250955
0.0257299
0.0264521
0.0272768
0.0282314
0.0293451
0.0306522
0.0322134
0.0341414
0.0366228
0.0399672
0.0447736
0.0522074
0.0640131
0.0835421
0.115804
0.140367
0.145068
0.146043
0.146012
0.146364
0.154964
0.164526
0.161645
0.140598
0.135779
0.135524
0.0312514
0.029235
0.0276787
0.0264646
0.0254912
0.024707
0.0240709
0.0235583
0.0231507
0.0228446
0.0226339
0.0225042
0.0224392
0.0224281
0.0224745
0.0225855
0.0227586
0.0229841
0.0232608
0.0235946
0.0239928
0.0244551
0.0249851
0.025595
0.0262934
0.0270878
0.0279961
0.0290506
0.0302875
0.0317524
0.0335246
0.0357507
0.0386846
0.0427717
0.0488631
0.0584075
0.0735309
0.0994913
0.132181
0.144314
0.145922
0.145983
0.145969
0.147324
0.158036
0.164583
0.156552
0.138118
0.135647
0.13552
0.0312625
0.0292582
0.0277122
0.026475
0.0254924
0.0247005
0.0240668
0.0235605
0.0231608
0.0228517
0.0226308
0.0224943
0.0224294
0.0224226
0.0224656
0.0225631
0.0227231
0.0229441
0.0232166
0.0235404
0.0239221
0.0243699
0.0248842
0.02547
0.026141
0.0269079
0.0277811
0.0287822
0.0299496
0.031329
0.0329808
0.0350098
0.0376113
0.0411381
0.0462303
0.0540369
0.0661766
0.0860615
0.11801
0.141603
0.145841
0.146136
0.145834
0.145989
0.148974
0.160168
0.163898
0.150602
0.136683
0.135577
0.135519
0.031247
0.0292721
0.0277357
0.0265072
0.0255026
0.0247012
0.0240598
0.0235553
0.0231616
0.0228598
0.0226356
0.0224884
0.0224164
0.0224095
0.0224561
0.0225496
0.0226953
0.0229025
0.0231698
0.0234885
0.0238591
0.0242891
0.0247874
0.0253556
0.0259999
0.0267361
0.0275773
0.0285374
0.0296429
0.0309399
0.0324862
0.0343626
0.03671
0.0397947
0.0441147
0.0505696
0.0605569
0.0760936
0.102326
0.133975
0.145224
0.146436
0.146053
0.145579
0.145949
0.151454
0.162068
0.163054
0.144767
0.136042
0.135544
0.135518
0.031213
0.0292623
0.0277507
0.0265301
0.0255331
0.0247108
0.0240596
0.0235472
0.0231549
0.0228588
0.0226415
0.0224907
0.0224076
0.0223931
0.0224392
0.0225358
0.0226771
0.022869
0.0231218
0.0234344
0.0237989
0.0242164
0.0246955
0.0252459
0.0258705
0.0265771
0.0273836
0.0283065
0.0293637
0.030588
0.0320355
0.0337803
0.0359314
0.0386816
0.0424026
0.0477983
0.0560586
0.0687011
0.0891258
0.120798
0.142748
0.14632
0.146399
0.145888
0.145288
0.146528
0.154136
0.162834
0.159444
0.140341
0.135761
0.135528
0.135518
0.0311727
0.0292361
0.0277437
0.0265449
0.0255552
0.0247396
0.0240682
0.0235459
0.0231455
0.0228505
0.0226386
0.0224943
0.0224073
0.0223812
0.0224193
0.022515
0.0226587
0.0228455
0.0230821
0.0233794
0.023737
0.0241474
0.0246125
0.0251421
0.0257468
0.0264312
0.0272045
0.028088
0.0291016
0.0302687
0.0316299
0.0332548
0.0352393
0.0377324
0.041004
0.0455795
0.0524275
0.0629519
0.0791106
0.105844
0.136049
0.14575
0.146409
0.14632
0.145728
0.14536
0.147604
0.157451
0.162563
0.154164
0.137673
0.135619
0.135522
0.135517
0.0311371
0.0292042
0.0277217
0.0265394
0.0255694
0.0247606
0.0240953
0.0235534
0.0231428
0.0228395
0.0226285
0.0224894
0.0224085
0.0223781
0.0224041
0.0224913
0.0226336
0.0228222
0.023053
0.0233332
0.0236746
0.0240769
0.0245338
0.0250478
0.0256298
0.0262919
0.0270403
0.0278864
0.0288549
0.0299704
0.0312632
0.0327845
0.0346212
0.0369003
0.0398288
0.0437901
0.0495248
0.0582674
0.071536
0.0928007
0.124176
0.143878
0.146271
0.146306
0.146195
0.14582
0.145591
0.149461
0.159514
0.162305
0.147594
0.136337
0.135557
0.135519
0.135517
0.0311139
0.0291764
0.0276945
0.0265198
0.0255645
0.024774
0.0241152
0.0235788
0.023149
0.0228351
0.0226158
0.0224772
0.0224013
0.0223766
0.022398
0.0224725
0.0226058
0.0227926
0.0230245
0.0232981
0.0236213
0.0240065
0.0244542
0.0249587
0.0255233
0.0261604
0.0268837
0.0277013
0.0286275
0.0296911
0.0309226
0.0323612
0.034072
0.0361659
0.0388143
0.0423096
0.0472
0.0544876
0.0655622
0.0825431
0.110017
0.138446
0.145915
0.146278
0.146159
0.146192
0.145851
0.146015
0.151975
0.161242
0.159445
0.141858
0.135828
0.135531
0.135518
0.135517
0.0311094
0.0291594
0.027671
0.0264952
0.0255463
0.0247692
0.0241278
0.0235976
0.0231728
0.0228401
0.0226096
0.0224626
0.022387
0.0223671
0.0223938
0.0224632
0.0225832
0.0227605
0.02299
0.023264
0.0235798
0.0239457
0.0243751
0.0248692
0.0254228
0.0260405
0.0267363
0.0275255
0.028419
0.0294343
0.0306055
0.0319706
0.0335804
0.0355187
0.0379307
0.0410523
0.0453018
0.0514506
0.0607292
0.0746843
0.0969917
0.128048
0.144764
0.146243
0.146208
0.146105
0.146076
0.146036
0.1466
0.155495
0.1611
0.155181
0.138234
0.135632
0.135522
0.135517
0.135517
0.0311293
0.0291592
0.0276573
0.0264741
0.025523
0.0247514
0.0241227
0.0236091
0.0231905
0.0228623
0.0226131
0.0224546
0.0223704
0.0223506
0.0223818
0.022456
0.0225705
0.0227337
0.0229532
0.0232242
0.0235396
0.0238972
0.0243062
0.0247807
0.0253225
0.0259274
0.0266015
0.0273603
0.0282215
0.0291991
0.0303146
0.031609
0.0331298
0.0349433
0.0371595
0.0399732
0.0437155
0.0489846
0.0568035
0.0685006
0.0864563
0.114695
0.140705
0.146024
0.14627
0.146148
0.146003
0.14591
0.146109
0.148884
0.15762
0.16093
0.148143
0.136451
0.135555
0.135519
0.135517
0.135517
0.0311651
0.0291801
0.0276589
0.026462
0.0255031
0.0247289
0.0241049
0.0236036
0.023201
0.0228789
0.0226338
0.0224566
0.0223603
0.0223318
0.0223627
0.0224412
0.0225601
0.0227173
0.0229221
0.0231824
0.0234942
0.0238506
0.0242504
0.024703
0.0252239
0.0258154
0.0264747
0.0272092
0.0280364
0.028977
0.0300486
0.0312783
0.0327153
0.03442
0.0364797
0.0390419
0.0423742
0.046948
0.0535935
0.0635145
0.0782772
0.101754
0.132
0.145169
0.146202
0.146232
0.146101
0.145963
0.145853
0.146628
0.150883
0.159966
0.158319
0.141953
0.135803
0.135529
0.135518
0.135517
0.135517
0.0312056
0.0292151
0.0276795
0.0264643
0.0254917
0.0247094
0.0240824
0.0235854
0.0231948
0.0228884
0.0226493
0.0224757
0.0223608
0.0223196
0.0223416
0.0224196
0.0225424
0.0227035
0.0229018
0.0231467
0.0234471
0.0237991
0.0241967
0.0246392
0.0251367
0.0257057
0.0263497
0.0270671
0.0278669
0.0287694
0.0297984
0.0309765
0.0323376
0.0339418
0.0358667
0.0382291
0.0412314
0.0452491
0.0509495
0.0593939
0.0718422
0.0909593
0.119788
0.142407
0.145948
0.146175
0.146214
0.146145
0.146041
0.145929
0.147091
0.154463
0.159878
0.154324
0.137995
0.135607
0.13552
0.135517
0.135517
0.135517
0.0312409
0.0292538
0.027713
0.0264841
0.025494
0.0246981
0.0240628
0.0235627
0.023176
0.0228815
0.0226577
0.0224901
0.0223784
0.0223183
0.0223271
0.0223958
0.0225178
0.0226827
0.0228842
0.0231221
0.0234063
0.0237462
0.0241387
0.0245779
0.0250641
0.0256082
0.0262279
0.0269277
0.0277079
0.0285793
0.0295652
0.0306938
0.0319939
0.0335081
0.0353108
0.0375037
0.040246
0.0438214
0.0487617
0.0559697
0.0666317
0.082389
0.107141
0.135726
0.145338
0.146026
0.146113
0.146253
0.146382
0.146276
0.145996
0.148353
0.156918
0.159796
0.146804
0.136253
0.135542
0.135518
0.135517
0.135517
0.135517
0.0312615
0.029288
0.0277498
0.026516
0.0255129
0.0247
0.0240512
0.0235425
0.0231527
0.0228618
0.02265
0.0224973
0.0223915
0.0223342
0.022324
0.0223789
0.0224914
0.022655
0.02286
0.0231006
0.0233772
0.0237001
0.0240795
0.0245128
0.0249947
0.0255262
0.0261191
0.0267926
0.0275526
0.0284012
0.0293518
0.0304313
0.0316734
0.0331146
0.0348093
0.0368515
0.0393765
0.0426063
0.0469449
0.0531331
0.0622669
0.0756122
0.0961005
0.125158
0.143676
0.145827
0.14596
0.146135
0.146345
0.146623
0.146331
0.145989
0.150839
0.158784
0.156799
0.140718
0.135706
0.135524
0.135518
0.135517
0.135517
0.135517
0.03127
0.0293089
0.0277824
0.0265509
0.025543
0.0247177
0.0240524
0.0235302
0.0231317
0.0228377
0.0226294
0.0224887
0.0223976
0.0223461
0.0223382
0.0223738
0.0224719
0.0226257
0.0228291
0.0230727
0.0233514
0.0236662
0.0240277
0.024447
0.0249218
0.0254479
0.0260269
0.0266716
0.0274027
0.0282282
0.0291522
0.0301913
0.0313769
0.0327496
0.0343563
0.0362667
0.0386024
0.0415479
0.0454184
0.0507891
0.0586251
0.0700753
0.0870775
0.113124
0.139002
0.145496
0.145874
0.145962
0.146182
0.146501
0.146581
0.146354
0.146689
0.153884
0.158568
0.151679
0.137182
0.135567
0.135519
0.135517
0.135517
0.135517
0.135517
0.0312624
0.0293189
0.027803
0.026582
0.0255763
0.0247464
0.024069
0.0235306
0.0231187
0.0228158
0.0226042
0.022467
0.0223879
0.0223509
0.0223486
0.0223861
0.0224647
0.0226033
0.0227966
0.0230383
0.0233196
0.0236358
0.0239884
0.0243889
0.0248488
0.0253667
0.0259388
0.026568
0.0272681
0.0280618
0.0289591
0.0299672
0.0311061
0.0324133
0.0339382
0.0357411
0.0379135
0.0406162
0.0441066
0.0488363
0.0555942
0.0654862
0.0798363
0.101899
0.130462
0.144585
0.145812
0.145884
0.146007
0.146268
0.146387
0.146398
0.146568
0.14874
0.156685
0.158226
0.144013
0.135923
0.135529
0.135518
0.135517
0.135517
0.135517
0.135517
0.0312427
0.0293144
0.0278134
0.0266018
0.0256059
0.0247781
0.0240963
0.0235461
0.0231181
0.0228017
0.0225812
0.0224408
0.0223651
0.0223402
0.0223521
0.0223951
0.0224749
0.0225937
0.0227712
0.0230024
0.0232813
0.0235996
0.0239531
0.024344
0.024784
0.0252859
0.0258485
0.0264693
0.0271521
0.0279122
0.0287744
0.0297514
0.0308539
0.0321067
0.0335547
0.035259
0.0372982
0.0397943
0.0429664
0.0471792
0.0530703
0.0616194
0.073958
0.0924062
0.119477
0.141628
0.14564
0.145863
0.145927
0.146113
0.146328
0.146367
0.146374
0.147263
0.151467
0.158078
0.153679
0.13867
0.135605
0.13552
0.135517
0.135517
0.135517
0.135517
0.135517
0.0312135
0.0292993
0.0278106
0.0266123
0.025625
0.0248065
0.0241268
0.0235722
0.0231326
0.0228001
0.0225661
0.0224166
0.0223377
0.022316
0.0223402
0.0223971
0.0224822
0.0226019
0.022759
0.0229737
0.0232417
0.0235572
0.0239124
0.0243034
0.024733
0.0252138
0.0257592
0.026369
0.0270417
0.0277824
0.0286078
0.0295457
0.0306121
0.0318219
0.0332059
0.0348189
0.0367376
0.0390658
0.0419707
0.0457566
0.0509421
0.0583726
0.0690918
0.084646
0.108333
0.135281
0.145037
0.145801
0.145894
0.146037
0.146285
0.14642
0.146415
0.14628
0.147507
0.154637
0.157826
0.147559
0.136292
0.135535
0.135518
0.135517
0.135517
0.135517
0.135517
0.135517
0.0311797
0.0292755
0.0277981
0.0266104
0.0256352
0.0248249
0.0241541
0.0236017
0.0231575
0.0228136
0.0225634
0.0224003
0.0223122
0.0222873
0.0223146
0.0223839
0.0224826
0.0226074
0.0227649
0.0229589
0.0232096
0.0235138
0.0238655
0.0242576
0.0246867
0.0251561
0.0256792
0.0262703
0.0269304
0.0276591
0.0284627
0.0293602
0.0303826
0.0315501
0.032883
0.0344199
0.0362287
0.0384073
0.041096
0.0445283
0.0491329
0.0556241
0.0649885
0.0783602
0.0984544
0.125913
0.143349
0.145626
0.145821
0.145965
0.146231
0.146489
0.14659
0.14645
0.145862
0.14958
0.156854
0.156894
0.140495
0.13566
0.135521
0.135517
0.135517
0.135517
0.135517
0.135517
0.135517
0.0311436
0.0292477
0.0277778
0.0265995
0.0256337
0.0248345
0.0241717
0.0236281
0.0231861
0.0228375
0.0225759
0.0223964
0.0222946
0.0222604
0.0222845
0.0223568
0.022468
0.0226061
0.0227684
0.0229622
0.0231918
0.023478
0.0238179
0.024206
0.0246354
0.0251035
0.0256143
0.0261817
0.0268214
0.0275356
0.028325
0.0291979
0.0301757
0.0312934
0.0325763
0.0340517
0.0357689
0.0378133
0.0403126
0.0434605
0.0475882
0.0532948
0.0614796
0.0731514
0.0901866
0.115351
0.139215
0.145225
0.145714
0.145858
0.146136
0.146421
0.146607
0.1467
0.146237
0.146407
0.152337
0.156894
0.149494
0.136835
0.135544
0.135518
0.135517
0.135517
0.135517
0.135517
0.135517
0.135517
0.0311115
0.0292179
0.0277538
0.0265813
0.0256238
0.0248332
0.0241809
0.0236451
0.0232117
0.0228653
0.0225989
0.022408
0.0222895
0.0222414
0.022256
0.0223251
0.0224392
0.0225898
0.0227652
0.0229635
0.0231925
0.0234569
0.0237781
0.0241538
0.0245786
0.0250464
0.0255549
0.026109
0.0267234
0.0274152
0.028188
0.0290441
0.0299939
0.0310618
0.0322878
0.0337041
0.0353465
0.037279
0.0396114
0.0425144
0.0462603
0.0513201
0.058489
0.0687502
0.0833811
0.105304
0.132038
0.144387
0.145545
0.145742
0.14601
0.146306
0.146523
0.146639
0.146541
0.146529
0.148131
0.155306
0.15469
0.142518
0.135749
0.135522
0.135517
0.135517
0.135517
0.135517
0.135517
0.135517
0.135517
0.0310825
0.0291918
0.0277279
0.0265597
0.0256069
0.0248238
0.0241795
0.0236537
0.0232283
0.0228902
0.022626
0.02243
0.0223
0.0222351
0.0222356
0.022295
0.0224059
0.0225593
0.0227472
0.0229582
0.0231915
0.0234548
0.0237537
0.0241097
0.0245216
0.0249839
0.0254914
0.0260422
0.0266422
0.0273069
0.0280551
0.028892
0.029822
0.0308578
0.032028
0.0333785
0.03495
0.0367908
0.0389842
0.0416753
0.045098
0.0496394
0.0559509
0.0649708
0.0777302
0.0965378
0.122698
0.14212
0.145357
0.145646
0.145874
0.146179
0.146371
0.146514
0.146515
0.146518
0.147055
0.150835
0.155648
0.15225
0.137469
0.135554
0.135518
0.135517
0.135517
0.135517
0.135517
0.135517
0.135517
0.135517
0.0310598
0.0291683
0.0277055
0.0265364
0.0255868
0.0248077
0.0241702
0.0236522
0.0232364
0.0229063
0.0226503
0.0224565
0.0223211
0.0222446
0.0222279
0.022273
0.022374
0.0225241
0.0227147
0.0229383
0.0231839
0.0234512
0.0237483
0.0240816
0.0244728
0.0249216
0.0254228
0.0259717
0.0265673
0.0272162
0.0279352
0.0287451
0.0296528
0.0306654
0.0317985
0.0330857
0.0345807
0.0363353
0.0384146
0.0409298
0.0440776
0.0481851
0.0537988
0.0617437
0.0729679
0.0891195
0.112858
0.137273
0.14498
0.145562
0.145764
0.146055
0.146255
0.146394
0.146488
0.146521
0.14653
0.147693
0.153859
0.156575
0.143589
0.135859
0.135523
0.135517
0.135517
0.135517
0.135517
0.135517
0.135517
0.135517
0.135517
0.0310435
0.0291506
0.0276855
0.0265164
0.0255652
0.0247884
0.0241545
0.0236427
0.0232345
0.022914
0.0226659
0.0224801
0.022347
0.0222647
0.0222362
0.0222638
0.0223503
0.0224903
0.0226777
0.0229038
0.0231618
0.0234411
0.0237419
0.0240728
0.0244407
0.0248679
0.0253548
0.0258965
0.0264891
0.0271324
0.0278341
0.0286124
0.0294902
0.0304769
0.0315825
0.0328265
0.034249
0.0359137
0.0378872
0.040258
0.0431787
0.0469219
0.0519491
0.0589903
0.0689399
0.082949
0.103691
0.129796
0.143873
0.145474
0.145682
0.145934
0.146155
0.146305
0.146458
0.146589
0.146714
0.146603
0.14971
0.155776
0.150765
0.138135
0.135561
0.135518
0.135517
0.135517
0.135517
0.135517
0.135517
0.135517
0.135517
0.135517
0.0310345
0.0291384
0.0276708
0.0264987
0.0255465
0.0247677
0.0241355
0.023627
0.0232247
0.0229116
0.022673
0.0224953
0.02237
0.0222899
0.0222553
0.0222709
0.0223395
0.0224649
0.0226418
0.0228646
0.023125
0.0234166
0.0237291
0.0240633
0.0244283
0.0248316
0.0252957
0.0258222
0.0264066
0.0270458
0.0277406
0.0284997
0.0293432
0.0302964
0.031372
0.0325833
0.0339552
0.0355357
0.037402
0.0396411
0.0423756
0.0458194
0.0503567
0.0566212
0.0654657
0.0778079
0.0957459
0.120808
0.141073
0.145242
0.145599
0.145818
0.146053
0.146219
0.146369
0.146557
0.146804
0.14674
0.14669
0.152615
0.154767
0.145203
0.135949
0.135523
0.135517
0.135517
0.135517
0.135517
0.135517
0.135517
0.135517
0.135517
0.135517
0.0310315
0.0291328
0.0276613
0.0264858
0.0255302
0.0247498
0.0241151
0.023608
0.0232087
0.0229013
0.0226702
0.0225018
0.0223847
0.0223123
0.0222798
0.022289
0.0223453
0.0224523
0.0226144
0.0228266
0.0230836
0.0233774
0.0237019
0.0240476
0.0244154
0.0248152
0.0252548
0.0257574
0.0263256
0.0269554
0.0276447
0.0283954
0.0292175
0.0301333
0.0311713
0.0323476
0.0336802
0.0352008
0.0369682
0.0390775
0.041645
0.0448438
0.0489795
0.0545886
0.0624592
0.0734429
0.0890146
0.111706
0.135918
0.144668
0.145471
0.145705
0.145951
0.146142
0.146281
0.146469
0.146672
0.14673
0.146558
0.149173
0.154409
0.153724
0.138433
0.135565
0.135518
0.135517
0.135517
0.135517
0.135517
0.135517
0.135517
0.135517
0.135517
0.135517
0.0310325
0.0291324
0.0276576
0.0264779
0.0255184
0.0247342
0.0240974
0.0235876
0.0231893
0.022885
0.0226593
0.0224986
0.0223906
0.0223264
0.0223016
0.0223127
0.0223622
0.0224568
0.0226001
0.0227972
0.0230433
0.0233336
0.0236602
0.0240177
0.0243965
0.0247986
0.025234
0.0257113
0.0262545
0.0268668
0.0275454
0.0282892
0.0291012
0.029993
0.0309897
0.0321235
0.0334151
0.0348884
0.036584
0.0385753
0.0409826
0.0439653
0.0477721
0.0528392
0.0598693
0.0696987
0.083375
0.103362
0.128683
0.143371
0.145325
0.145587
0.145837
0.146069
0.146234
0.146378
0.146507
0.146612
0.1463
0.147216
0.151624
0.155282
0.144893
0.136015
0.135522
0.135517
0.135517
0.135517
0.135517
0.135517
0.135517
0.135517
0.135517
0.135517
0.135517
0.0310402
0.0291354
0.0276588
0.0264754
0.0255113
0.024723
0.0240821
0.0235697
0.0231687
0.0228651
0.0226424
0.0224871
0.0223869
0.0223318
0.0223152
0.0223337
0.0223853
0.0224726
0.022603
0.0227809
0.0230117
0.0232908
0.0236138
0.023973
0.0243635
0.0247761
0.0252134
0.0256859
0.0262028
0.0267889
0.0274487
0.0281801
0.0289835
0.0298632
0.0308329
0.031921
0.0331641
0.0345888
0.0362269
0.0381309
0.0403951
0.0431757
0.0466964
0.0513167
0.0576333
0.0664459
0.0786054
0.0960928
0.120322
0.14052
0.145094
0.145497
0.145729
0.145959
0.146165
0.146336
0.146454
0.146607
0.146392
0.146491
0.148331
0.154306
0.150195
0.138795
0.135562
0.135518
0.135517
0.135517
0.135517
0.135517
0.135517
0.135517
0.135517
0.135517
0.135517
0.135517
0.0310513
0.0291443
0.027663
0.0264774
0.0255095
0.0247163
0.0240709
0.0235542
0.0231503
0.0228438
0.0226219
0.0224695
0.0223747
0.0223275
0.02232
0.0223468
0.0224054
0.0224947
0.0226176
0.0227823
0.0229934
0.0232569
0.0235684
0.0239238
0.0243157
0.0247397
0.0251871
0.0256609
0.0261724
0.0267312
0.0273633
0.0280743
0.0288635
0.0297326
0.0306878
0.0317453
0.0329373
0.0343063
0.0358865
0.0377198
0.039876
0.0424792
0.0457389
0.0499739
0.0556913
0.0636158
0.074528
0.0898592
0.111944
0.135574
0.144578
0.145439
0.14565
0.145855
0.146041
0.146246
0.146412
0.146608
0.146594
0.146774
0.146985
0.151072
0.153452
0.145915
0.135997
0.135522
0.135517
0.135517
0.135517
0.135517
0.135517
0.135517
0.135517
0.135517
0.135517
0.135517
0.135517
0.0310653
0.0291562
0.0276725
0.0264822
0.0255119
0.0247146
0.0240642
0.0235427
0.0231343
0.0228248
0.0226
0.0224482
0.0223564