/*--------------------------------*- C++ -*----------------------------------*\
| =========                 |                                                 |
| \\      /  F ield         | OpenFOAM: The Open Source CFD Toolbox           |
|  \\    /   O peration     | Version:  v2012                                 |
|   \\  /    A nd           | Website:  www.openfoam.com                      |
|    \\/     M anipulation  |                                                 |
\*---------------------------------------------------------------------------*/
FoamFile
{
    version     2.0;
    format      ascii;
    class       volScalarField;
    location    "2000";
    object      T;
}
// * * * * * * * * * * * * * * * * * * * * * * * * * * * * * * * * * * * * * //

dimensions      [0 0 0 1 0 0 0];


internalField   nonuniform List<scalar> 
39402
(
418.529
317.812
445.061
307.861
351.545
427.695
307.597
329.212
376.998
397.587
308.548
328.826
347.166
395.653
364.447
309.383
331.189
346.945
362.292
408.369
332.104
309.926
333.258
350.351
362.467
374.934
415.692
302.055
310.22
334.598
353.346
366.627
375.691
385.281
418.012
274.702
310.409
335.316
355.283
370.307
380.344
386.77
393.408
415.637
250.052
310.478
335.789
356.31
372.69
384.497
391.662
395.763
399.294
408.842
227.917
310.458
335.955
357.003
373.944
387.199
396.089
400.657
402.682
402.843
397.93
208.041
310.389
335.908
357.235
374.812
388.61
398.991
405.177
407.396
407.525
403.893
383.27
190.154
310.313
335.743
357.169
375.095
389.62
400.5
408.176
411.863
411.968
410.275
402.225
365.313
174.056
310.215
335.552
356.937
375.028
389.948
401.624
409.729
414.879
416.294
414.485
410.862
397.585
344.631
159.465
310.11
335.315
356.672
374.763
389.909
401.995
410.945
416.437
419.278
418.651
415.031
409.137
389.714
321.85
146.228
310.006
335.06
356.333
374.462
389.645
402.014
411.374
417.738
420.818
421.592
419.107
413.627
404.894
378.377
297.71
134.17
309.899
334.809
355.97
374.062
389.343
401.787
411.468
418.22
422.197
423.11
422.035
417.767
410.261
397.955
363.425
272.989
123.176
309.784
334.549
355.612
373.631
388.921
401.52
411.31
418.412
422.739
424.563
423.547
420.761
414.69
404.831
388.154
344.847
248.415
113.092
309.672
334.278
355.238
373.204
388.464
401.118
411.115
418.354
423.049
425.179
425.082
422.314
417.876
409.924
397.282
375.55
322.847
224.543
103.791
309.566
334.005
354.845
372.757
388.01
400.679
410.772
418.261
423.114
425.624
425.792
423.952
419.541
413.458
403.462
387.614
360.347
297.917
201.775
95.1258
309.46
333.736
354.45
372.279
387.531
400.239
410.392
418.013
423.15
425.83
426.386
424.789
421.319
415.328
407.575
395.33
375.91
342.559
270.902
180.012
87.516
309.356
333.475
354.065
371.804
387.011
399.769
410.006
417.728
423.026
426.016
426.75
425.548
422.32
417.306
409.761
400.263
385.525
362.134
322.153
243.011
160.582
81.0532
309.25
333.218
353.689
371.343
386.496
399.249
409.586
417.432
422.866
426.038
427.102
426.088
423.264
418.51
412.018
402.912
391.541
374.003
346.099
299.225
215.602
143.511
75.8827
309.15
332.961
353.316
370.889
385.997
398.736
409.109
417.096
422.687
426.024
427.287
426.623
424.001
419.666
413.467
405.538
394.832
381.402
360.684
327.715
273.959
189.896
128.27
72.5978
309.053
332.713
352.944
370.437
385.505
398.239
408.637
416.698
422.465
425.985
427.437
426.988
424.738
420.62
414.867
407.287
397.933
385.547
369.816
345.479
307.079
246.75
166.639
114.61
70.7465
308.955
332.477
352.585
369.986
385.01
397.746
408.18
416.304
422.176
425.9
427.554
427.317
425.301
421.578
416.063
408.971
400.051
389.252
375.061
356.727
328.309
284.583
218.31
146.089
103.249
69.5624
308.856
332.238
352.242
369.551
384.516
397.247
407.722
415.921
421.888
425.742
427.623
427.605
425.825
422.354
417.259
410.434
402.065
391.823
379.526
363.358
342.053
309.129
260.597
189.749
128.412
94.4119
68.6793
308.761
331.993
351.896
369.133
384.04
396.746
407.255
415.532
421.606
425.583
427.612
427.84
426.298
423.088
418.266
411.889
403.826
394.223
382.652
368.764
350.389
325.693
287.954
234.948
162.558
113.905
87.6908
67.9749
308.669
331.758
351.543
368.713
383.58
396.263
406.782
415.128
421.314
425.423
427.597
427.991
426.714
423.761
419.223
413.142
405.562
396.319
385.504
372.567
356.952
336.08
307.548
264.928
207.595
138.542
102.441
82.5877
67.4536
308.58
331.534
351.204
368.285
383.118
395.796
406.327
414.716
421
425.247
427.576
428.133
427.038
424.371
420.109
414.337
407.08
398.361
387.979
375.951
361.576
344.048
320.329
287.558
240.528
179.399
119.096
93.7198
78.7315
67.1694
308.492
331.315
350.879
367.875
382.649
395.325
405.884
414.319
420.675
425.046
427.533
428.263
427.35
424.881
420.924
415.448
408.527
400.164
390.358
378.858
365.589
349.665
329.98
303.017
265.767
215.315
152.008
104.511
87.1677
75.7413
67.0758
308.409
331.102
350.564
367.482
382.198
394.845
405.437
413.929
420.362
424.828
427.458
428.364
427.643
425.374
421.632
416.48
409.875
401.878
392.468
381.611
368.995
354.426
336.795
314.65
284.038
242.4
189.184
127.659
94.0012
82.2322
73.4898
66.9834
308.325
330.897
350.256
367.099
381.765
394.384
404.977
413.534
420.05
424.618
427.362
428.427
427.9
425.842
422.317
417.395
411.134
403.476
394.467
384.055
372.166
358.41
342.446
322.899
297.939
263.359
217.961
162.293
108.319
86.4623
78.5378
71.9213
66.7392
308.241
330.693
349.964
366.727
381.344
393.94
404.536
413.124
419.73
424.404
427.27
428.465
428.114
426.266
422.967
418.279
412.266
404.973
396.329
386.359
374.977
362.054
347.106
329.61
307.884
279.724
241.109
193.16
136.251
94.6132
80.9494
75.8214
70.9023
66.2767
308.157
330.486
349.672
366.374
380.935
393.509
404.11
412.73
419.393
424.177
427.167
428.502
428.296
426.639
423.567
419.122
413.357
406.33
398.076
388.502
377.611
365.271
351.29
335.066
315.855
291.632
259.926
217.677
167.96
113.518
85.5402
76.8023
74.1572
70.1967
65.7201
308.08
330.283
349.377
366.021
380.546
393.089
403.695
412.347
419.069
423.929
427.049
428.521
428.471
426.975
424.11
419.906
414.399
407.637
399.668
390.511
380.052
368.264
354.962
339.874
322.253
301.092
274.014
238.58
193.708
142.498
96.2679
79.4661
73.7411
73.2653
69.6808
65.3582
308.01
330.097
349.087
365.666
380.159
392.691
403.29
411.973
418.75
423.693
426.905
428.521
428.623
427.299
424.607
420.624
415.374
408.885
401.198
392.349
382.338
371.027
358.351
344.062
327.787
308.605
285.208
254.931
215.952
169.638
118.628
84.9424
75.0029
71.6641
72.6391
69.3774
65.1948
307.941
329.929
348.824
365.317
379.768
392.294
402.908
411.607
418.438
423.456
426.768
428.491
428.75
427.592
425.088
421.291
416.274
410.057
402.658
394.109
384.433
373.607
361.461
347.888
332.563
314.989
294.036
268.076
234.382
192.637
145.441
98.9696
77.8347
72.0394
70.2831
72.0152
69.2515
65.1031
307.87
329.765
348.587
365.002
379.384
391.892
402.522
411.261
418.13
423.221
426.626
428.464
428.843
427.856
425.53
421.934
417.115
411.144
404.032
395.789
386.433
375.972
364.355
351.379
336.882
320.444
301.421
278.437
249.591
212.582
169.478
121.864
85.1591
73.4521
70.2834
69.8949
71.5074
69.0725
65.0091
307.8
329.593
348.354
364.718
379.04
391.496
402.132
410.909
417.839
422.987
426.481
428.425
428.934
428.079
425.937
422.531
417.927
412.165
405.312
397.371
388.34
378.224
367.009
354.612
340.793
325.322
307.665
286.999
261.685
229.727
190.087
146.416
101.158
76.8213
70.9089
68.9835
69.9497
71.19
68.6024
64.8931
307.736
329.424
348.112
364.441
378.73
391.145
401.748
410.551
417.538
422.766
426.331
428.379
429.007
428.298
426.299
423.088
418.684
413.149
406.516
398.849
390.135
380.365
369.524
357.574
344.396
329.702
313.182
294.165
271.614
243.669
208.649
167.636
123.511
85.6536
72.3883
69.2238
68.0668
70.041
71.0827
67.7731
64.7786
307.679
329.27
347.876
364.152
378.429
390.828
401.408
410.197
417.229
422.531
426.192
428.323
429.068
428.489
426.65
423.593
419.395
414.071
407.677
400.24
391.816
382.38
371.909
360.369
347.689
333.712
318.092
300.42
279.86
255.144
224.346
186.832
145.371
102.569
76.2609
69.9558
68.1626
67.8022
70.1803
70.9221
66.8458
64.6851
307.625
329.136
347.662
363.871
378.113
390.52
401.102
409.886
416.921
422.284
426.033
428.274
429.112
428.663
426.967
424.083
420.048
414.939
408.767
401.581
393.4
384.269
374.153
363.01
350.783
337.367
322.555
305.933
286.973
264.642
237.477
203.851
164.99
123.312
86.1592
71.5309
68.5286
67.4835
68.0933
70.4307
70.631
66.0612
64.6174
307.568
329.008
347.477
363.62
377.807
390.196
400.804
409.607
416.657
422.037
425.86
428.199
429.159
428.815
427.261
424.53
420.681
415.743
409.796
402.841
394.924
386.05
376.256
365.492
353.695
340.782
326.606
310.904
293.179
272.756
248.391
218.564
182.633
143.432
102.726
75.9071
69.2753
67.6303
66.9771
68.5299
70.5195
70.1709
65.4865
64.5714
307.508
328.872
347.301
363.402
377.535
389.881
400.486
409.334
416.418
421.829
425.683
428.108
429.176
428.964
427.526
424.948
421.262
416.522
410.754
404.034
396.357
387.761
378.239
367.817
356.425
343.983
330.37
315.396
298.728
279.767
257.662
230.992
198.538
161.394
122.152
86.091
70.8811
68.0693
67.0466
66.799
69.0335
70.5612
69.4241
65.0967
64.5452
307.449
328.729
347.113
363.198
377.302
389.604
400.181
409.038
416.182
421.641
425.541
428.009
429.172
429.078
427.783
425.331
421.808
417.241
411.681
405.148
397.716
389.37
380.14
370.007
358.982
346.976
333.882
319.544
303.715
285.976
265.607
241.57
212.404
177.845
140.507
102.11
75.434
68.709
67.33
66.8144
67.1558
69.4691
70.5585
68.3355
64.8842
64.5273
307.396
328.59
346.916
362.976
377.083
389.368
399.913
408.755
415.919
421.453
425.411
427.94
429.156
429.168
428
425.702
422.313
417.919
412.541
406.226
398.988
390.897
381.93
372.104
361.388
349.775
337.155
323.393
308.288
291.523
272.582
250.594
224.371
192.772
157.183
119.955
85.6332
70.2678
67.6588
66.9497
66.7045
67.6036
69.7921
70.4413
67.1975
64.7341
64.5155
307.353
328.467
346.725
362.745
376.842
389.147
399.686
408.51
415.669
421.234
425.28
427.875
429.166
429.241
428.188
426.025
422.8
418.548
413.352
407.228
400.218
392.329
383.627
374.077
363.686
352.406
340.211
326.967
312.505
296.573
278.771
258.457
234.607
206.031
172.561
136.911
100.556
74.8996
68.1799
67.1153
66.7493
66.7613
68.0683
70.0934
70.1075
66.209
64.6332
64.5081
307.323
328.364
346.558
362.522
376.593
388.9
399.474
408.302
415.456
421.027
425.112
427.805
429.172
429.335
428.354
426.316
423.234
419.155
414.108
408.174
401.363
393.712
385.222
375.948
365.847
354.913
343.078
330.298
316.406
301.199
284.36
265.385
243.491
217.542
186.725
152.463
117.015
84.5275
69.7085
67.33
66.8118
66.7743
66.9735
68.5252
70.0961
69.4898
65.4768
64.569
64.5041
307.292
328.299
346.421
362.328
376.351
388.645
399.232
408.108
415.278
420.855
424.955
427.695
429.169
429.417
428.538
426.581
423.632
419.702
414.835
409.058
402.446
395.001
386.758
377.707
367.897
357.268
345.803
333.415
320.033
305.459
289.443
271.591
251.275
227.565
199.384
166.952
132.774
98.2988
74.0602
67.7886
66.9051
66.7625
66.8403
67.1868
69.0176
70.072
68.5276
65.0001
64.5354
64.502
307.258
328.227
346.339
362.171
376.147
388.399
398.982
407.881
415.112
420.712
424.83
427.594
429.121
429.485
428.7
426.857
423.997
420.208
415.498
409.909
403.46
396.223
388.194
379.4
369.822
359.5
348.361
336.368
323.418
309.407
294.1
277.193
258.192
236.329
210.586
180.346
147.393
113.492
82.9093
69.1377
67.0815
66.7887
66.7787
66.9522
67.4635
69.3476
69.9365
67.3852
64.7612
64.5174
64.5009
307.217
328.149
346.243
362.084
375.98
388.194
398.743
407.647
414.907
420.579
424.728
427.52
429.079
429.504
428.845
427.103
424.369
420.677
416.116
410.688
404.435
397.368
389.555
380.984
371.674
361.597
350.78
339.137
326.614
313.081
298.401
282.295
264.387
244.068
220.427
192.561
160.973
128.244
95.4917
73.0267
67.4243
66.8466
66.8082
66.8162
66.9509
67.8603
69.6505
69.678
66.2663
64.6307
64.5078
64.5004
307.169
328.053
346.14
361.978
375.897
388.028
398.547
407.422
414.695
420.403
424.633
427.464
429.062
429.526
428.934
427.328
424.703
421.148
416.69
411.418
405.333
398.468
390.831
382.484
373.406
363.608
353.052
341.753
329.604
316.536
302.389
286.988
269.995
250.947
229.103
203.489
173.753
141.937
109.534
80.9222
68.5379
66.9219
66.8619
66.8512
66.8142
67.0197
68.3279
69.6083
69.0524
65.4255
64.5587
64.5033
64.5002
307.12
327.939
346.01
361.863
375.787
387.954
398.387
407.243
414.493
420.221
424.492
427.413
429.056
429.569
429.024
427.491
425.01
421.572
417.26
412.099
406.176
399.486
392.057
383.893
375.049
365.492
355.228
344.206
332.425
319.762
306.124
291.321
275.127
257.135
236.774
213.184
185.57
154.764
123.311
92.2889
71.8469
67.1165
66.8636
66.8939
66.8918
66.8079
67.1902
68.7675
69.5853
68.0722
64.9149
64.5251
64.5013
64.5001
307.071
327.821
345.854
361.711
375.669
387.847
398.327
407.096
414.337
420.047
424.345
427.31
429.051
429.616
429.131
427.653
425.251
421.965
417.777
412.771
406.963
400.443
393.194
385.246
376.592
367.278
357.266
346.551
335.069
322.8
309.603
295.361
279.844
262.767
243.632
221.753
196.254
167.022
136.235
105.162
78.6867
67.9354
66.8778
66.8781
66.9532
66.8983
66.8468
67.4291
69.0905
69.4878
66.7955
64.6797
64.5102
64.5005
64.5
307.029
327.708
345.693
361.528
375.505
387.731
398.226
407.053
414.207
419.919
424.203
427.201
428.99
429.661
429.235
427.826
425.487
422.285
418.258
413.382
407.739
401.338
394.267
386.504
378.072
368.958
359.199
348.747
337.588
325.643
312.873
299.115
284.222
267.917
249.838
229.381
205.78
178.432
148.478
118.112
88.7478
70.582
67.0076
66.8674
66.9339
66.9637
66.8958
66.8321
67.8087
69.302
69.0606
65.7105
64.5743
64.5037
64.5002
64.5
306.994
327.608
345.537
361.34
375.307
387.563
398.116
406.962
414.185
419.81
424.108
427.096
428.922
429.646
429.333
427.99
425.729
422.596
418.66
413.953
408.446
402.217
395.272
387.692
379.451
370.567
361.017
350.83
339.948
328.345
315.927
302.633
288.274
272.669
255.48
236.25
214.269
188.827
160.144
130.385
100.553
76.2662
67.5081
66.8793
66.9069
66.9417
66.9458
66.8636
66.9518
68.3056
69.3169
68.2195
65.0217
64.5269
64.5013
64.5001
64.5
306.972
327.526
345.402
361.159
375.104
387.359
397.95
406.862
414.107
419.81
424.024
427.037
428.857
429.622
429.366
428.145
425.956
422.911
419.049
414.439
409.107
403.021
396.253
388.806
380.755
372.069
362.756
352.789
342.185
330.875
318.822
305.913
292.063
277.052
260.655
242.458
221.894
198.202
171.081
142.021
112.677
85.0615
69.4129
66.9631
66.9048
66.9447
66.9289
66.8623
66.7743
67.1929
68.7345
69.2395
66.9018
64.6886
64.5094
64.5004
64.5
64.5
306.957
327.477
345.293
361.004
374.91
387.15
397.749
406.702
414.019
419.746
424.048
426.98
428.836
429.6
429.39
428.228
426.169
423.203
419.437
414.906
409.677
403.773
397.154
389.891
381.978
373.489
364.382
354.661
344.288
333.272
321.529
309.012
295.586
281.136
265.408
248.119
228.755
206.656
181.2
153.047
124.324
95.7754
73.9194
67.2645
66.8867
66.9411
66.9482
66.8865
66.7869
66.8009
67.5751
69.0651
68.8196
65.7258
64.5679
64.5029
64.5001
64.5
64.5
306.947
327.446
345.231
360.879
374.745
386.952
397.543
406.51
413.87
419.675
424.001
427.03
428.809
429.62
429.412
428.302
426.308
423.478
419.796
415.368
410.225
404.429
397.999
390.889
383.167
374.822
365.92
356.413
346.297
335.524
324.093
311.908
298.904
284.924
269.82
253.29
234.977
214.261
190.468
163.548
135.348
107.039
81.3778
68.4909
66.9147
66.9163
66.964
66.9369
66.8379
66.7017
66.8843
68.1206
69.082
68.0243
64.9761
64.5214
64.5008
64.5
64.5
64.5
306.937
327.426
345.194
360.813
374.614
386.786
397.35
406.313
413.691
419.538
423.947
427.003
428.888
429.625
429.476
428.372
426.434
423.672
420.135
415.796
410.762
405.058
398.742
391.827
384.264
376.115
367.364
358.07
348.177
337.673
326.502
314.648
302.001
288.48
273.9
258.069
240.628
221.126
198.869
173.427
145.819
118.063
90.897
71.8287
67.1
66.8686
66.9435
66.9619
66.9105
66.7832
66.6941
67.0742
68.5848
69.0089
66.6537
64.6509
64.5063
64.5002
64.5
64.5
64.5
306.923
327.403
345.173
360.777
374.55
386.657
397.19
406.133
413.508
419.378
423.827
426.969
428.883
429.735
429.516
428.482
426.553
423.853
420.387
416.2
411.26
405.671
399.453
392.659
385.297
377.311
368.762
359.627
349.956
339.685
328.795
317.219
304.927
291.792
277.714
262.474
245.824
227.333
206.454
182.55
155.929
128.535
101.254
77.8449
67.8273
66.8769
66.901
66.9434
66.9416
66.8381
66.7586
66.6385
67.5155
68.8376
68.5141
65.4921
64.5455
64.5017
64.5001
64.5
64.5
64.5
306.906
327.371
345.145
360.759
374.519
386.598
397.068
405.985
413.345
419.213
423.686
426.866
428.871
429.755
429.66
428.56
426.71
424.022
420.622
416.512
411.731
406.241
400.143
393.451
386.216
378.438
370.057
361.13
351.626
341.588
330.943
319.664
307.671
294.918
281.261
266.574
250.595
233.009
213.296
190.872
165.491
138.587
111.652
86.0509
70.099
66.9953
66.8727
66.9131
66.9223
66.8688
66.8097
66.719
66.8443
67.9977
68.8133
67.549
64.8212
64.5124
64.5004
64.5
64.5
64.5
64.5
306.884
327.329
345.103
360.732
374.506
386.576
397.018
405.873
413.212
419.07
423.543
426.748
428.788
429.767
429.706
428.739
426.828
424.229
420.845
416.804
412.104
406.779
400.785
394.219
387.091
379.446
371.278
362.524
353.235
343.374
332.974
321.953
310.275
297.847
284.603
270.379
255.018
238.199
219.527
198.41
174.419
148.191
121.674
95.4411
74.6421
67.3907
66.8783
66.8939
66.9009
66.844
66.7733
66.753
66.7611
67.1299
68.502
68.7023
66.1173
64.589
64.5029
64.5001
64.5
64.5
64.5
64.5
306.857
327.277
345.047
360.684
374.482
386.57
397.006
405.835
413.114
418.956
423.423
426.628
428.694
429.705
429.744
428.814
427.045
424.39
421.103
417.081
412.455
407.216
401.392
394.933
387.936
380.403
372.376
363.841
354.731
345.092
334.88
324.117
312.712
300.62
287.731
273.958
259.111
242.99
225.202
205.268
182.625
157.411
131.254
105.162
81.4266
68.7658
66.941
66.8885
66.8923
66.8453
66.7825
66.744
66.7086
66.8484
67.6092
68.6301
67.9642
65.1038
64.5212
64.5006
64.5
64.5
64.5
64.5
64.5
306.827
327.211
344.974
360.621
374.434
386.55
397.006
405.833
413.088
418.876
423.331
426.533
428.598
429.636
429.705
428.881
427.153
424.646
421.308
417.392
412.787
407.626
401.892
395.609
388.723
381.327
373.418
365.03
356.145
346.69
336.709
326.146
315.014
303.213
290.685
277.302
262.951
247.409
230.419
211.505
190.147
166.082
140.426
114.723
89.7221
71.93
67.1502
66.8739
66.889
66.8564
66.7914
66.7567
66.7242
66.6858
66.9016
68.0822
68.6769
66.8034
64.6496
64.5048
64.5001
64.5
64.5
64.5
64.5
64.5
306.795
327.139
344.881
360.534
374.366
386.503
396.991
405.838
413.099
418.864
423.271
426.465
428.531
429.567
429.664
428.867
427.249
424.788
421.606
417.642
413.15
408.013
402.361
396.174
389.468
382.188
374.42
366.156
357.426
348.202
338.411
328.089
317.173
305.661
293.444
280.451
266.532
251.542
235.214
217.218
197.009
174.185
149.219
123.86
98.6684
77.2208
67.8541
66.8909
66.8782
66.8603
66.8048
66.7739
66.7665
66.7067
66.5867
67.222
68.4979
68.3786
65.4552
64.5357
64.501
64.5
64.5
64.5
64.5
64.5
64.5
306.763
327.061
344.778
360.422
374.271
386.436
396.946
405.83
413.112
418.887
423.275
426.427
428.488
429.528
429.622
428.854
427.262
424.916
421.784
417.982
413.448
408.43
402.805
396.705
390.101
383.003
375.354
367.237
358.638
349.577
340.023
329.898
319.234
307.954
296.046
283.389
269.895
255.386
239.679
222.448
203.288
181.665
157.636
132.608
107.663
84.2451
69.8369
66.987
66.8461
66.8563
66.808
66.7713
66.7794
66.7562
66.6673
66.6645
67.7069
68.4414
67.1411
64.7552
64.5074
64.5002
64.5
64.5
64.5
64.5
64.5
64.5
306.732
326.981
344.666
360.297
374.147
386.336
396.882
405.787
413.109
418.907
423.31
426.447
428.473
429.511
429.613
428.841
427.28
424.959
421.947
418.199
413.832
408.776
403.276
397.205
390.693
383.702
376.241
368.245
359.797
350.875
341.492
331.612
321.153
310.139
298.483
286.156
273.027
258.985
243.82
227.297
209.021
188.547
165.573
141.002
116.377
92.2434
73.624
67.3248
66.8479
66.8414
66.8078
66.7641
66.7659
66.7598
66.7265
66.6857
66.988
68.1534
68.1775
65.8304
64.5541
64.5013
64.5
64.5
64.5
64.5
64.5
64.5
64.5
306.701
326.904
344.552
360.162
374.007
386.205
396.781
405.727
413.069
418.91
423.338
426.497
428.512
429.522
429.625
428.863
427.296
425.007
422.02
418.399
414.089
409.205
403.67
397.731
391.251
384.358
377.008
369.204
360.881
352.115
342.879
333.179
322.972
312.173
300.797
288.745
275.973
262.33
247.683
231.776
214.31
194.833
172.985
149.095
124.741
100.552
79.1955
68.3986
66.8948
66.8233
66.8072
66.7581
66.7435
66.7451
66.7249
66.6937
66.8116
67.3987
68.3456
67.6327
64.8773
64.5101
64.5002
64.5
64.5
64.5
64.5
64.5
64.5
64.5
306.674
326.829
344.441
360.023
373.857
386.057
396.649
405.627
413.014
418.874
423.348
426.533
428.577
429.58
429.662
428.904
427.349
425.054
422.099
418.504
414.326
409.504
404.147
398.175
391.832
384.973
377.726
370.039
361.911
353.274
344.2
334.656
324.639
314.099
302.951
291.197
278.725
265.471
251.265
235.937
219.177
200.617
179.813
156.8
132.788
108.837
86.0343
70.8011
67.0608
66.8258
66.7995
66.7509
66.7312
66.7231
66.7271
66.7101
66.6826
66.8719
68.038
68.3171
66.0511
64.5744
64.5016
64.5
64.5
64.5
64.5
64.5
64.5
64.5
64.5
306.649
326.76
344.334
359.887
373.702
385.898
396.497
405.499
412.919
418.826
423.317
426.552
428.623
429.663
429.741
428.969
427.421
425.139
422.178
418.617
414.466
409.781
404.49
398.7
392.325
385.609
378.4
370.82
362.815
354.377
345.437
336.061
326.209
315.871
304.99
293.478
281.324
268.399
254.619
239.785
223.68
205.927
186.122
164.032
140.472
116.841
93.556
74.8178
67.531
66.8405
66.7986
66.75
66.7141
66.7113
66.7228
66.719
66.7072
66.6282
67.3052
68.1779
67.4504
65.0032
64.5118
64.5002
64.5
64.5
64.5
64.5
64.5
64.5
64.5
64.5
306.627
326.698
344.234
359.757
373.551
385.734
396.338
405.351
412.798
418.738
423.277
426.528
428.652
429.721
429.843
429.072
427.516
425.242
422.296
418.727
414.613
409.958
404.808
399.088
392.898
386.152
379.09
371.553
363.661
355.352
346.613
337.375
327.7
317.538
306.87
295.635
283.739
271.157
257.741
243.378
227.83
210.821
191.918
170.805
147.849
124.5
101.259
80.3216
68.8269
66.9008
66.7949
66.7514
66.7035
66.6901
66.7107
66.7166
66.7389
66.6729
66.7846
67.6408
68.1586
66.323
64.5863
64.5017
64.5
64.5
64.5
64.5
64.5
64.5
64.5
64.5
64.5
306.608
326.642
344.145
359.636
373.403
385.576
396.173
405.195
412.657
418.626
423.197
426.497
428.635
429.76
429.913
429.194
427.643
425.367
422.431
418.88
414.756
410.138
405.023
399.448
393.333
386.774
379.684
372.299
364.454
356.263
347.659
338.626
329.094
319.117
308.637
297.628
286.021
273.716
260.672
246.715
231.694
215.32
197.254
177.08
154.878
131.825
108.868
86.8131
71.3943
67.1004
66.7894
66.744
66.7016
66.6813
66.6878
66.7041
66.7203
66.6876
66.683
67.0338
68.0929
67.9056
65.0613
64.5132
64.5002
64.5
64.5
64.5
64.5
64.5
64.5
64.5
64.5
64.5
306.592
326.596
344.065
359.526
373.269
385.421
396.015
405.034
412.51
418.494
423.097
426.426
428.615
429.753
429.966
429.28
427.787
425.52
422.587
419.046
414.942
410.314
405.238
399.7
393.736
387.257
380.355
372.945
365.255
357.116
348.637
339.744
330.42
320.593
310.308
299.501
288.134
276.133
263.388
249.837
235.275
219.496
202.154
182.882
161.498
138.826
116.151
93.7831
75.3886
67.6697
66.8039
66.7389
66.6938
66.6779
66.6803
66.6866
66.6971
66.6515
66.6134
66.7348
67.5905
68.0817
66.31
64.5972
64.5018
64.5
64.5
64.5
64.5
64.5
64.5
64.5
64.5
64.5
64.5
306.579
326.555
343.997
359.429
373.147
385.279
395.859
404.881
412.358
418.361
422.978
426.339
428.554
429.743
429.968
429.346
427.887
425.686
422.767
419.233
415.14
410.533
405.447
399.952
394.028
387.705
380.887
373.665
365.953
357.973
349.552
340.791
331.613
321.997
311.869
301.268
290.118
278.372
265.948
252.724
238.611
223.355
206.69
188.225
167.708
145.553
123.124
100.815
80.5931
69.0437
66.887
66.7382
66.6886
66.6675
66.6732
66.6816
66.6888
66.6626
66.6523
66.6172
67.0002
67.9103
67.3386
65.1277
64.5136
64.5002
64.5
64.5
64.5
64.5
64.5
64.5
64.5
64.5
64.5
64.5
306.568
326.523
343.937
359.346
373.039
385.151
395.717
404.731
412.217
418.223
422.859
426.233
428.481
429.694
429.972
429.36
427.971
425.805
422.957
419.44
415.36
410.765
405.7
400.196
394.317
388.038
381.38
374.246
366.722
358.724
350.464
341.769
332.729
323.265
313.353
302.917
291.986
280.475
268.324
255.441
241.689
226.935
210.872
193.169
173.475
151.973
129.8
107.744
86.5571
71.5427
67.1152
66.7465
66.6929
66.6551
66.6599
66.6685
66.682
66.6763
66.7087
66.6785
66.716
67.3467
67.943
66.4442
64.601
64.5018
64.5
64.5
64.5
64.5
64.5
64.5
64.5
64.5
64.5
64.5
64.5
306.559
326.495
343.889
359.272
372.946
385.038
395.588
404.595
412.077
418.096
422.736
426.131
428.39
429.636
429.934
429.376
427.998
425.907
423.096
419.657
415.595
411.018
405.965
400.483
394.595
388.366
381.756
374.785
367.353
359.541
351.269
342.737
333.772
324.454
314.7
304.483
293.728
282.45
270.553
257.964
244.579
230.231
214.737
197.722
178.842
158.024
136.178
114.387
92.9042
75.2386
67.6877
66.7697
66.6986
66.6524
66.6446
66.6488
66.6553
66.6681
66.7083
66.7177
66.761
66.847
67.888
67.7514
65.0787
64.514
64.5002
64.5
64.5
64.5
64.5
64.5
64.5
64.5
64.5
64.5
64.5
64.5
306.552
326.472
343.848
359.213
372.862
384.94
395.474
404.473
411.951
417.971
422.627
426.025
428.306
429.56
429.893
429.352
428.029
425.949
423.217
419.817
415.84
411.282
406.25
400.781
394.916
388.678
382.123
375.204
367.94
360.222
352.135
343.596
334.799
325.563
315.962
305.912
295.381
284.291
272.643
260.33
247.263
233.316
218.282
201.917
183.8
163.741
142.278
120.727
99.2995
79.9599
68.9554
66.8466
66.6959
66.6527
66.6368
66.6338
66.6305
66.632
66.6797
66.6816
66.7419
66.6914
67.5156
67.9222
66.1816
64.5941
64.5018
64.5
64.5
64.5
64.5
64.5
64.5
64.5
64.5
64.5
64.5
64.5
64.5
306.546
326.454
343.814
359.162
372.796
384.851
395.377
404.366
411.84
417.86
422.518
425.935
428.217
429.494
429.833
429.327
428.019
425.996
423.277
419.96
416.024
411.555
406.544
401.096
395.247
389.032
382.47
375.612
368.404
360.857
352.867
344.511
335.712
326.649
317.141
307.251
296.894
286.034
274.589
262.544
249.778
236.18
221.592
205.755
188.367
169.074
148.159
126.786
105.575
85.3344
71.1814
67.0521
66.6964
66.6456
66.6275
66.6277
66.6229
66.6144
66.6432
66.6364
66.6838
66.5232
66.995
67.6974
67.1507
65.0512
64.5127
64.5002
64.5
64.5
64.5
64.5
64.5
64.5
64.5
64.5
64.5
64.5
64.5
64.5
306.542
326.439
343.786
359.119
372.739
384.783
395.289
404.273
411.744
417.761
422.426
425.845
428.148
429.425
429.786
429.284
428.011
426.002
423.341
420.038
416.189
411.764
406.846
401.421
395.594
389.394
382.857
375.995
368.852
361.368
353.551
345.294
336.676
327.619
318.288
308.501
298.314
287.636
276.429
264.603
252.128
238.861
224.661
209.325
192.54
174.013
153.712
132.619
111.615
91.0257
74.4216
67.5456
66.714
66.6363
66.6115
66.6156
66.6193
66.6129
66.627
66.6327
66.6615
66.5427
66.6402
67.2069
67.6649
66.1686
64.5822
64.5016
64.5
64.5
64.5
64.5
64.5
64.5
64.5
64.5
64.5
64.5
64.5
64.5
64.5
306.54
326.426
343.762
359.083
372.69
384.723
395.221
404.189
411.661
417.68
422.344
425.772
428.078
429.376
429.735
429.256
427.985
426.01
423.362
420.12
416.287
411.953
407.082
401.754
395.95
389.774
383.25
376.415
369.271
361.857
354.109
346.028
337.51
328.632
319.316
309.713
299.638
289.14
278.124
266.546
254.31
241.36
227.529
212.633
196.414
178.543
158.927
138.158
117.406
96.7787
78.524
68.5963
66.7829
66.6398
66.6041
66.5954
66.6061
66.6073
66.6216
66.6387
66.6765
66.6354
66.6978
66.8088
67.6516
67.351
64.9113
64.5106
64.5002
64.5
64.5
64.5
64.5
64.5
64.5
64.5
64.5
64.5
64.5
64.5
64.5
64.5
306.536
326.421
343.742
359.052
372.649
384.671
395.162
404.127
411.584
417.609
422.278
425.708
428.025
429.327
429.709
429.226
427.977
426.002
423.389
420.158
416.388
412.071
407.296
402.017
396.314
390.161
383.662
376.84
369.724
362.314
354.641
346.634
338.295
329.518
320.379
310.8
300.916
290.542
279.716
268.341
256.363
243.677
230.196
215.716
199.999
182.754
163.772
143.47
122.93
102.465
83.2253
70.3969
66.9468
66.6476
66.6077
66.5893
66.585
66.5892
66.6013
66.6245
66.6689
66.654
66.7545
66.7798
67.4268
67.8374
65.7918
64.5605
64.5012
64.5
64.5
64.5
64.5
64.5
64.5
64.5
64.5
64.5
64.5
64.5
64.5
64.5
64.5
306.534
326.41
343.733
359.026
372.613
384.627
395.111
404.072
411.53
417.543
422.222
425.661
427.98
429.295
429.681
429.221
427.966
426.015
423.398
420.203
416.443
412.191
407.436
402.257
396.605
390.555
384.079
377.282
370.182
362.801
355.136
347.211
338.951
330.354
321.318
311.915
302.066
291.891
281.202
270.027
258.266
245.852
232.663
218.574
203.333
186.655
168.303
148.483
128.197
107.988
88.27
73.0348
67.2895
66.6581
66.6084
66.5938
66.5842
66.5715
66.5815
66.5862
66.6262
66.6245
66.7171
66.6735
66.9893
67.6334
66.8437
64.8161
64.5075
64.5001
64.5
64.5
64.5
64.5
64.5
64.5
64.5
64.5
64.5
64.5
64.5
64.5
64.5
64.5
306.526
326.402
343.713
359.013
372.582
384.589
395.068
404.024
411.482
417.499
422.169
425.621
427.952
429.271
429.671
429.214
427.983
426.023
423.43
420.231
416.506
412.266
407.576
402.42
396.872
390.876
384.506
377.73
370.655
363.291
355.657
347.746
339.573
331.062
322.205
312.907
303.233
293.105
282.625
271.601
260.053
247.871
234.974
221.213
206.415
190.276
172.522
153.21
133.175
113.228
93.4225
76.4522
68.0391
66.6912
66.599
66.5891
66.5873
66.5731
66.5769
66.573
66.5761
66.5737
66.6575
66.5361
66.6861
67.2136
67.3609
65.6098
64.5412
64.5008
64.5
64.5
64.5
64.5
64.5
64.5
64.5
64.5
64.5
64.5
64.5
64.5
64.5
64.5
64.5
306.191
326.384
343.699
358.987
372.566
384.556
395.03
403.984
411.441
417.461
422.138
425.582
427.929
429.262
429.667
429.228
427.999
426.062
423.459
420.282
416.553
412.349
407.672
402.582
397.059
391.171
384.856
378.188
371.132
363.794
356.179
348.302
340.149
331.731
322.966
313.847
304.28
294.328
283.907
273.104
261.721
249.769
237.122
223.678
209.252
193.615
176.448
157.668
137.898
118.172
98.504
80.4461
69.3624
66.7954
66.5833
66.5731
66.5768
66.5715
66.5756
66.5754
66.5778
66.578
66.6282
66.5656
66.6388
66.8343
67.4942
66.7454
64.6878
64.5048
64.5001
64.5
64.5
64.5
64.5
64.5
64.5
64.5
64.5
64.5
64.5
64.5
64.5
64.5
64.5
64.5
304.004
325.7
343.674
358.967
372.536
384.539
394.996
403.949
411.406
417.428
422.111
425.565
427.907
429.259
429.68
429.246
428.034
426.1
423.52
420.331
416.624
412.414
407.774
402.699
397.244
391.384
385.18
378.569
371.621
364.301
356.713
348.857
340.742
332.35
323.685
314.662
305.274
295.431
285.188
274.458