/*--------------------------------*- C++ -*----------------------------------*\
| =========                 |                                                 |
| \\      /  F ield         | OpenFOAM: The Open Source CFD Toolbox           |
|  \\    /   O peration     | Version:  v2012                                 |
|   \\  /    A nd           | Website:  www.openfoam.com                      |
|    \\/     M anipulation  |                                                 |
\*---------------------------------------------------------------------------*/
FoamFile
{
    version     2.0;
    format      ascii;
    class       volScalarField;
    location    "2000";
    object      TuM;
}
// * * * * * * * * * * * * * * * * * * * * * * * * * * * * * * * * * * * * * //

dimensions      [0 0 0 0 0 0 0];


internalField   nonuniform List<scalar> 
39402
(
0.164986
0.038205
0.0740948
0.023213
0.0156356
0.0449312
0.0193233
0.00919582
0.0100692
0.0316607
0.0212968
0.00947353
0.0055005
0.00847213
0.0253561
0.023143
0.0141511
0.0144144
0.00459621
0.00822562
0.0227269
0.0241686
0.0169557
0.0284553
0.0246137
0.00502837
0.00844746
0.0218834
0.0247611
0.0184608
0.0352395
0.0498162
0.0371478
0.00608277
0.00876644
0.0218494
0.0250268
0.0193174
0.0387457
0.0614695
0.0749926
0.0512334
0.00736936
0.00903191
0.02217
0.0250633
0.0197334
0.0407015
0.0674008
0.0920168
0.10251
0.0662965
0.00869198
0.00919755
0.0226473
0.0249764
0.0198651
0.0416435
0.0706736
0.100574
0.124985
0.130904
0.0817427
0.00992865
0.00927091
0.0231966
0.0247999
0.0198489
0.0419492
0.0722266
0.10525
0.136138
0.158465
0.158702
0.0969873
0.0110286
0.00928576
0.0237823
0.0245617
0.0197365
0.0419245
0.0727134
0.107439
0.142173
0.171963
0.19065
0.184695
0.111533
0.0120096
0.00928248
0.0243882
0.0243038
0.0195584
0.0416946
0.0726396
0.108104
0.144964
0.179189
0.2061
0.220213
0.208151
0.125521
0.0128905
0.00927636
0.0250131
0.0240322
0.01936
0.0413247
0.0722297
0.107959
0.145796
0.182498
0.214286
0.237201
0.246486
0.229023
0.139214
0.0137031
0.00927969
0.0256522
0.0237433
0.0191399
0.0409092
0.071585
0.10734
0.145573
0.183484
0.218006
0.246117
0.264667
0.269381
0.247751
0.152883
0.0144604
0.00931731
0.0263076
0.0234489
0.0188931
0.0404444
0.0708649
0.106389
0.14475
0.183192
0.219128
0.250152
0.274133
0.288509
0.289483
0.264563
0.166803
0.0149878
0.00942101
0.0269771
0.0231743
0.0186453
0.0399195
0.0700626
0.105331
0.143503
0.182202
0.218794
0.251397
0.278408
0.298392
0.30926
0.307124
0.279631
0.181077
0.015139
0.00961562
0.0276675
0.0229115
0.0184149
0.0393945
0.0691615
0.104152
0.142117
0.180715
0.217693
0.251049
0.279761
0.302863
0.319422
0.327368
0.322535
0.293079
0.194975
0.0148282
0.00992169
0.0283728
0.0226499
0.0181905
0.0389046
0.0682598
0.102837
0.140574
0.179056
0.21604
0.249891
0.279428
0.304305
0.324019
0.337732
0.343134
0.335888
0.304932
0.205806
0.0139837
0.0103522
0.0291094
0.0223918
0.0179612
0.0384246
0.0674159
0.10152
0.138861
0.177208
0.214193
0.248152
0.278258
0.304002
0.325515
0.342425
0.353649
0.356795
0.347283
0.314818
0.211791
0.0127035
0.0109073
0.0297978
0.0221458
0.0177354
0.0379338
0.0665895
0.100283
0.137142
0.175165
0.212126
0.246197
0.276491
0.302849
0.325235
0.343956
0.358423
0.367445
0.368531
0.356752
0.321488
0.212234
0.0112123
0.0113659
0.0304291
0.0219148
0.0175222
0.0374495
0.0657459
0.0990715
0.135521
0.173109
0.209852
0.244
0.274494
0.301091
0.324095
0.343708
0.359977
0.372288
0.379341
0.378458
0.364219
0.325099
0.206322
0.00976018
0.0118045
0.0309884
0.021695
0.0173231
0.0369932
0.0649135
0.097838
0.133933
0.171163
0.207556
0.241591
0.272236
0.299091
0.322346
0.342593
0.359773
0.373862
0.384244
0.389501
0.386665
0.369587
0.325161
0.193441
0.00864322
0.0122574
0.0313731
0.0214791
0.0171312
0.0365663
0.0641283
0.0966208
0.132318
0.16925
0.205371
0.239152
0.269768
0.29682
0.320349
0.340869
0.358696
0.373718
0.38586
0.394485
0.39805
0.393133
0.372584
0.321064
0.173354
0.00797083
0.0127259
0.0316371
0.0212712
0.0169426
0.0361543
0.0633931
0.0954707
0.130725
0.16731
0.203216
0.236815
0.267264
0.294346
0.318095
0.338893
0.357014
0.372692
0.385782
0.396175
0.403172
0.405044
0.397731
0.372887
0.312343
0.146545
0.00771483
0.0131472
0.0319188
0.0210769
0.0167616
0.0357493
0.0626837
0.0943932
0.129217
0.165395
0.201035
0.234506
0.264848
0.291828
0.315646
0.336656
0.355075
0.371064
0.384822
0.396181
0.404976
0.410409
0.410467
0.400292
0.369985
0.297461
0.115091
0.00773274
0.0134886
0.0321991
0.0208911
0.0165929
0.0353622
0.0619879
0.0933529
0.127801
0.163579
0.198882
0.232172
0.262454
0.289383
0.313142
0.33423
0.352868
0.369178
0.383264
0.395299
0.405086
0.412387
0.416249
0.414251
0.400526
0.363144
0.275836
0.0831257
0.00790478
0.0137507
0.0325034
0.02071
0.0164308
0.0350006
0.0613233
0.0923351
0.126435
0.16187
0.196836
0.22987
0.260039
0.286954
0.310698
0.331745
0.350483
0.367017
0.381444
0.393822
0.404299
0.412637
0.418501
0.420694
0.416267
0.397963
0.351707
0.246504
0.0555598
0.00813804
0.0139605
0.0327954
0.0205354
0.016272
0.034654
0.0607021
0.0913624
0.125099
0.160219
0.194906
0.227675
0.257657
0.284507
0.30826
0.329303
0.34803
0.364684
0.379345
0.392082
0.402922
0.411971
0.418942
0.423359
0.423705
0.416257
0.392084
0.335249
0.209019
0.0351684
0.00837362
0.0141203
0.0330869
0.0203668
0.0161205
0.0343149
0.0601075
0.0904531
0.123823
0.158609
0.19304
0.2256
0.255382
0.282097
0.305809
0.326859
0.345605
0.36228
0.377078
0.390058
0.401276
0.41071
0.418431
0.424073
0.42698
0.425162
0.413876
0.382271
0.312681
0.164866
0.0217569
0.00859569
0.0143298
0.0333612
0.0202032
0.0159733
0.033993
0.0595278
0.0895825
0.122627
0.157066
0.191222
0.223592
0.253225
0.279787
0.303397
0.324404
0.343169
0.359887
0.374734
0.387869
0.39934
0.409174
0.417309
0.423768
0.428077
0.429319
0.424862
0.40864
0.367841
0.282406
0.119116
0.0137424
0.00878676
0.0145209
0.0336499
0.0200462
0.0158294
0.0336808
0.0589788
0.0887375
0.121484
0.15562
0.189475
0.221638
0.251137
0.277593
0.301081
0.32199
0.340722
0.357472
0.372386
0.385599
0.39724
0.40734
0.415903
0.422819
0.428043
0.430961
0.430278
0.422495
0.399912
0.348345
0.243279
0.0790201
0.00948529
0.0089256
0.014637
0.0339563
0.0199037
0.015693
0.0333768
0.058448
0.0879378
0.120376
0.154237
0.187835
0.219755
0.249109
0.275469
0.298874
0.319667
0.338318
0.355047
0.370005
0.383311
0.395054
0.405343
0.41419
0.421565
0.427311
0.431292
0.432683
0.429666
0.417607
0.386957
0.323122
0.195631
0.0490649
0.00759038
0.00901181
0.0146896
0.0342803
0.0197724
0.0155718
0.0330902
0.0579317
0.0871662
0.119329
0.152898
0.186265
0.217985
0.24715
0.273409
0.296738
0.31745
0.336001
0.352662
0.36761
0.380974
0.392835
0.403253
0.412309
0.419991
0.426239
0.430835
0.433512
0.433141
0.427197
0.409595
0.369209
0.289961
0.144069
0.0292052
0.00691913
0.00903924
0.0147065
0.0345903
0.019641
0.0154606
0.0328374
0.0574478
0.086418
0.11832
0.151632
0.18475
0.21629
0.245303
0.271415
0.294668
0.315301
0.333783
0.350361
0.365256
0.378619
0.390556
0.401117
0.410327
0.418242
0.424828
0.429985
0.43341
0.434655
0.432156
0.422443
0.397715
0.346469
0.247508
0.0968187
0.0171332
0.00673711
0.00902681
0.0147108
0.0348324
0.0195059
0.0153458
0.032607
0.0570216
0.0857181
0.117342
0.150415
0.183316
0.214656
0.243534
0.269531
0.292665
0.313224
0.331633
0.348153
0.36298
0.376303
0.388249
0.398904
0.408286
0.416383
0.42323
0.428767
0.432836
0.435024
0.434618
0.429451
0.414824
0.381313
0.317311
0.196637
0.0602351
0.0104172
0.00670133
0.00901339
0.0147037
0.0349721
0.0193737
0.0152261
0.0323687
0.0566346
0.0851022
0.116429
0.149236
0.181937
0.213108
0.241832
0.267727
0.290769
0.311223
0.329557
0.346009
0.360788
0.374059
0.385982
0.396658
0.406151
0.41445
0.421509
0.427344
0.43185
0.434801
0.435622
0.433221
0.42461
0.403599
0.360073
0.279619
0.143127
0.0354499
0.00714619
0.00669873
0.0090096
0.0147302
0.0350356
0.0192573
0.0151117
0.0321206
0.0562366
0.0845448
0.115626
0.148136
0.180602
0.211619
0.240216
0.265993
0.288953
0.309328
0.327557
0.343944
0.358661
0.371893
0.383777
0.394442
0.403973
0.412409
0.419702
0.42578
0.430629
0.434098
0.435856
0.435094
0.430188
0.417073
0.388055
0.333543
0.232566
0.0954605
0.0201642
0.00585724
0.00667097
0.00903155
0.0148307
0.0350774
0.0191548
0.0150138
0.0318864
0.0558245
0.083974
0.114901
0.147167
0.179357
0.210179
0.238665
0.264345
0.287211
0.307511
0.325661
0.34195
0.356611
0.369788
0.381642
0.392286
0.401821
0.410311
0.417767
0.424113
0.429246
0.433118
0.435507
0.435935
0.433264
0.425123
0.406114
0.367911
0.299365
0.178978
0.059102
0.0114655
0.00546313
0.00665529
0.00906772
0.0149905
0.0351163
0.0190542
0.0149285
0.0316892
0.0554375
0.083386
0.114161
0.14629
0.178255
0.208835
0.237163
0.262763
0.285552
0.305772
0.323842
0.34006
0.354632
0.367758
0.379562
0.390189
0.399718
0.408231
0.415762
0.422301
0.427742
0.431945
0.434819
0.436041
0.434928
0.429854
0.417473
0.391034
0.342923
0.256172
0.126177
0.0345391
0.00705089
0.00536723
0.00664351
0.00908942
0.0151819
0.0351477
0.0189497
0.0148416
0.031519
0.0551136
0.0828359
0.113402
0.1454
0.177258
0.207639
0.235759
0.26123
0.283961
0.304115
0.322105
0.338245
0.352752
0.365799
0.377561
0.388144
0.397669
0.40619
0.413763
0.420404
0.426073
0.430627
0.433893
0.435715
0.435631
0.432644
0.424469
0.406529
0.371571
0.311058
0.204891
0.0818714
0.0194109
0.00521875
0.00532739
0.00663478
0.00911788
0.0153752
0.0351721
0.0188449
0.01475
0.031345
0.0548362
0.0823778
0.112694
0.144493
0.176251
0.206554
0.234503
0.259797
0.282418
0.302524
0.320447
0.336516
0.350948
0.363934
0.375626
0.386172
0.395661
0.404193
0.411796
0.418497
0.424298
0.429123
0.432792
0.435087
0.435761
0.434146
0.428804
0.416556
0.391618
0.347424
0.270643
0.151061
0.0495518
0.0108166
0.00463465
0.00531008
0.00661883
0.00914574
0.015538
0.0351887
0.0187487
0.0146587
0.0311614
0.054554
0.0819872
0.112105
0.143646
0.175227
0.205463
0.23336
0.258506
0.280975
0.300983
0.318856
0.334862
0.349229
0.362142
0.373781
0.384266
0.393726
0.402231
0.40986
0.416613
0.4225
0.427491
0.431481
0.43424
0.435498
0.434875
0.431399
0.423003
0.40541
0.372489
0.316925
0.221633
0.102576
0.0284909
0.00643426
0.0044877
0.00529612
0.00661423
0.00918947
0.0156588
0.0351984
0.0186677
0.014578
0.03098
0.0542575
0.081592
0.111605
0.142942
0.174272
0.20436
0.232216
0.257328
0.279666
0.299537
0.317315
0.333275
0.347584
0.360439
0.372005
0.382443
0.391853
0.400338
0.40795
0.41475
0.42071
0.425817
0.430016
0.433156
0.434959
0.435076
0.432924
0.427093
0.414684
0.390414
0.348793
0.278264
0.168125
0.0647133
0.0158535
0.00459553
0.00445536
0.0052792
0.00662959
0.00926022
0.0157393
0.0352039
0.0185988
0.0145119
0.030822
0.0539657
0.0811788
0.111102
0.142343
0.173475
0.20333
0.231066
0.256153
0.278466
0.298219
0.315865
0.331738
0.346006
0.358806
0.37032
0.380689
0.390058
0.398501
0.406103
0.412901
0.418929
0.424137
0.428485
0.431885
0.434142
0.434913
0.433721
0.429695
0.420811
0.403129
0.371337
0.31904
0.230928
0.11747
0.0384974
0.00882656
0.00400931
0.00443623
0.00526477
0.00664648
0.00936775
0.0157813
0.0352069
0.0185285
0.0144577
0.0306972
0.0537149
0.0807734
0.110578
0.141745
0.172795
0.202465
0.229988
0.254977
0.277275
0.297005
0.314537
0.330291
0.344476
0.357242
0.368704
0.379024
0.388325
0.396738
0.40431
0.411108
0.41715
0.422449
0.426929
0.430523
0.433105
0.434415
0.43403
0.431285
0.424884
0.411977
0.38781
0.347779
0.281405
0.178128
0.0759843
0.0219303
0.00533527
0.00386505
0.00442339
0.00526092
0.0066709
0.00948864
0.0157995
0.0352077
0.018449
0.0143985
0.0305973
0.0535201
0.0804282
0.110066
0.141125
0.172119
0.201722
0.229075
0.253873
0.27609
0.295806
0.313311
0.328956
0.343037
0.355724
0.367154
0.377427
0.386684
0.395034
0.402583
0.409364
0.415421
0.420753
0.425351
0.429111
0.431937
0.433653
0.433924
0.432202
0.427546
0.418054
0.399866
0.368516
0.318288
0.235221
0.126703
0.0460406
0.0121735
0.0039314
0.00382802
0.00441358
0.00525789
0.00669805
0.00960176
0.0158076
0.0352072
0.0183591
0.0143255
0.0304855
0.0533672
0.080164
0.109632
0.140522
0.171425
0.20099
0.228286
0.252928
0.274972
0.294618
0.312103
0.32772
0.341699
0.354293
0.365652
0.375894
0.385108
0.393418
0.40091
0.407681
0.413733
0.419097
0.423751
0.427663
0.430696
0.432719
0.433496
0.432592
0.429267
0.422172
0.408609
0.384053
0.344769
0.281092
0.183194
0.0833371
0.0265641
0.00685684
0.0035019
0.0038164
0.00440738
0.00526894
0.00673916
0.00968158
0.0158125
0.0352051
0.0182713
0.0142446
0.0303424
0.053195
0.0799604
0.109303
0.14001
0.170749
0.20024
0.227512
0.252104
0.274006
0.293495
0.310913
0.326509
0.340457
0.352958
0.36423
0.374409
0.383594
0.391866
0.399323
0.406043
0.412096
0.417471
0.422177
0.426173
0.429395
0.431679
0.432842
0.432569
0.430291
0.424976
0.414697
0.395808
0.364352
0.315082
0.235526
0.131776
0.0512275
0.0148031
0.00431784
0.00339598
0.00381358
0.00439947
0.00528719
0.00680133
0.00972429
0.0158145
0.0352024
0.0181911
0.0141653
0.0301835
0.0529718
0.0797303
0.109053
0.139626
0.170176
0.199512
0.226725
0.251301
0.273156
0.292514
0.309785
0.32532
0.339245
0.351713
0.362901
0.373001
0.382128
0.390374
0.397797
0.404489
0.410502
0.415893
0.420629
0.424696
0.428037
0.430552
0.43204
0.43226
0.430785
0.426837
0.418969
0.404496
0.379344
0.340188
0.277732
0.184089
0.0875854
0.0299208
0.0081712
0.00336545
0.00337273
0.00381245
0.004401
0.00531073
0.00688185
0.00973775
0.0158156
0.0351994
0.0181298
0.0140963
0.0300281
0.0527217
0.0794287
0.10877
0.139334
0.169745
0.198893
0.225963
0.250491
0.272331
0.291643
0.308789
0.324189
0.338061
0.3505
0.361654
0.371676
0.380737
0.388926
0.396329
0.402991
0.408983
0.414347
0.419115
0.423235
0.426675
0.429348
0.431123
0.431744
0.430896
0.427997
0.421959
0.410742
0.390873
0.359054
0.309958
0.232125
0.133008
0.0543395
0.0168243
0.00477959
0.00309629
0.0033693
0.00380969
0.00440426
0.0053364
0.00696122
0.00973903
0.0158166
0.0351971
0.0180861
0.0140463
0.0298956
0.0524776
0.0790886
0.108398
0.139004
0.169415
0.198422
0.225309
0.249706
0.271504
0.290801
0.307898
0.323182
0.336932
0.349324
0.360446
0.370432
0.379421
0.387553
0.394904
0.40155
0.407518
0.41287
0.417624
0.421799
0.425314
0.428122
0.430099
0.431074
0.430735
0.428644
0.424001
0.415261
0.399624
0.373636
0.33426
0.272024
0.180926
0.0887303
0.0319554
0.00927029
0.0033435
0.003035
0.00337063
0.00380845
0.0044185
0.00536939
0.00701157
0.00973806
0.0158169
0.0351946
0.0180591
0.0140178
0.029804
0.0522713
0.0787563
0.107977
0.138575
0.169046
0.198058
0.224805
0.249025
0.270705
0.289963
0.30704
0.322273
0.335917
0.3482
0.359277
0.369228
0.378178
0.386247
0.39355
0.400149
0.406106
0.411441
0.416197
0.420374
0.423968
0.426877
0.429029
0.430267
0.430364
0.428922
0.425343
0.418491
0.406199
0.385094
0.352584
0.303184
0.226011
0.130302
0.0551472
0.0180398
0.00525093
0.00288626
0.00302475
0.00337297
0.00380704
0.0044373
0.00541965
0.00703171
0.00973755
0.0158167
0.0351928
0.0180303
0.0140024
0.0297608
0.0521343
0.0784789
0.107565
0.138086
0.168573
0.197654
0.224407
0.248492
0.270003
0.289153
0.306191
0.321402
0.334993
0.347179
0.358159
0.36807
0.37698
0.385011
0.392258
0.398817
0.404733
0.410062
0.41481
0.419002
0.42262
0.425637
0.427926
0.429385
0.429815
0.428921
0.426181
0.420756
0.411037
0.394077
0.36701
0.326833
0.26429
0.174935
0.0866389
0.0324038
0.00992845
0.00340438
0.00277498
0.00302643
0.00337234
0.00381192
0.00446077
0.00548111
0.00703116
0.00973796
0.0158165
0.0351913
0.0179938
0.0139826
0.0297434
0.0520773
0.0783013
0.107224
0.137609
0.168034
0.19715
0.223973
0.248062
0.269445
0.288435
0.30537
0.320544
0.33411
0.346244
0.357139
0.366961
0.375833
0.383821
0.39103
0.39754
0.403426
0.408719
0.413467
0.417663
0.421313
0.42438
0.426808
0.428447
0.429158
0.428687
0.426643
0.422328
0.414542
0.401051
0.378545
0.344994
0.294544
0.2176
0.125078
0.0536219
0.0182651
0.00552393
0.00274758
0.00275452
0.00302986
0.00337243
0.00382233
0.00448397
0.00552562
0.0070269
0.00973836
0.0158166
0.0351896
0.017948
0.0139532
0.029715
0.0520635
0.0782354
0.107011
0.137215
0.167508
0.196576
0.223446
0.247599
0.268985
0.287852
0.304635
0.319716
0.333246
0.345352
0.356192
0.36594
0.374736
0.382685
0.389847
0.39632
0.402168
0.40744
0.41216
0.416364
0.420031
0.423152
0.42566
0.427477
0.428416
0.428302
0.426798
0.423383
0.41709
0.406215
0.387842
0.359487
0.317932
0.254331
0.166617
0.0825451
0.0314447
0.0100159
0.0034166
0.002572
0.00275367
0.00303296
0.00337161
0.00383812
0.00452054
0.00554343
0.00702447
0.00973892
0.015817
0.0351897
0.0178928
0.0139138
0.0296651
0.0520305
0.0782313
0.10694
0.136974
0.167071
0.196017
0.22285
0.247057
0.268497
0.287363
0.304029
0.318967
0.332412
0.344484
0.355291
0.364986
0.373718
0.3816
0.388725
0.395148
0.40096
0.406203
0.410909
0.415094
0.418783
0.421935
0.424523
0.426457
0.42762
0.427794
0.426744
0.424031
0.418928
0.41008
0.395129
0.371218
0.33633
0.284031
0.206684
0.117747
0.050721
0.0176979
0.00551659
0.00262185
0.00253548
0.0027573
0.003034
0.00337676
0.00385887
0.00456638
0.00554046
0.00702407
0.00973962
0.0158175
0.03519
0.017826
0.0138605
0.0295915
0.0519618
0.078201
0.106949
0.136896
0.166807
0.195548
0.22227
0.246447
0.267943
0.286851
0.303511
0.318339
0.331652
0.343645
0.35442
0.364081
0.372759
0.380589
0.387654
0.394041
0.399798
0.405011
0.409701
0.41388
0.417557
0.420745
0.423385
0.425428
0.426752
0.427206
0.426523
0.424391
0.420214
0.412966
0.400757
0.38077
0.351027
0.307675
0.2421
0.155819
0.0767016
0.0295844
0.00968329
0.00333593
0.00239977
0.00253204
0.00276108
0.00303649
0.00338506
0.00387736
0.0045987
0.00553392
0.00702464
0.00974012
0.015818
0.0351903
0.0177572
0.0137974
0.0294861
0.0518513
0.0781184
0.106925
0.136915
0.166718
0.195261
0.221778
0.245852
0.267323
0.286285
0.302977
0.317795
0.331004
0.342876
0.353583
0.363211
0.37185
0.379628
0.386651
0.392988
0.398708
0.403863
0.408527
0.412703
0.416383
0.419571
0.422262
0.424384
0.425855
0.426522
0.426186
0.424522
0.421103
0.415099
0.405052
0.388434
0.363024
0.326536
0.271794
0.193357
0.108252
0.0466378
0.0165735
0.00531465
0.00249186
0.0023523
0.00253385
0.0027648
0.00303775
0.00339931
0.00390718
0.00460834
0.00553091
0.00702537
0.00974078
0.0158189
0.0351916
0.0176914
0.0137328
0.0293595
0.0516872
0.0779748
0.106833
0.136894
0.166736
0.195154
0.221468
0.245341
0.266718
0.285659
0.3024
0.31724
0.330436
0.34221
0.352805
0.362371
0.370981
0.378715
0.38569
0.391995
0.397672
0.402791
0.407395
0.411554
0.415242
0.418444
0.421149
0.42334
0.42492
0.42578
0.425721
0.424489
0.421674
0.416678
0.408324
0.394585
0.372815
0.341539
0.295989
0.227896
0.142873
0.0692758
0.0269415
0.00902647
0.00318725
0.00225004
0.00234579
0.00253788
0.00276699
0.00304117
0.0034182
0.00394266
0.00460085
0.00553052
0.0070263
0.00974181
0.0158199
0.0351939
0.0176324
0.0136711
0.0292288
0.0514862
0.077754
0.106662
0.136797
0.166714
0.195161
0.221334
0.24501
0.266189
0.285045
0.301767
0.316654
0.329861
0.341621
0.352128
0.36159
0.370143
0.377847
0.384778
0.391035
0.396693
0.401773
0.406339
0.410438
0.41412
0.417342
0.420076
0.422299
0.423973
0.424977
0.425168
0.42429
0.422022
0.417818
0.410828
0.399382
0.380961
0.353813
0.3153
0.257811
0.178206
0.0971047
0.0415318
0.0149544
0.00493486
0.00235563
0.00219678
0.00234821
0.00254297
0.00276838
0.00305054
0.00343525
0.00396225
0.00459405
0.00553118
0.00702729
0.00974288
0.0158211
0.0351965
0.0175836
0.0136171
0.0291039
0.0512779
0.0774795
0.106391
0.136602
0.166609
0.195127
0.221317
0.244843
0.265837
0.284502
0.301145
0.316016
0.329268
0.341028
0.351517
0.3609
0.369361
0.377017
0.383912
0.390124
0.395742
0.400811
0.405345
0.409404
0.41303
0.416257
0.419024
0.421288
0.423014
0.424144
0.424524
0.423964
0.422148
0.418646
0.412714
0.40313
0.38761
0.364036
0.330842
0.282496
0.211872
0.128569
0.0608741
0.0236895
0.0080796
0.0029606
0.00211478
0.0021892
0.00235176
0.00254385
0.00276914
0.00306544
0.00346231
0.00396178
0.00459193
0.00553211
0.00702839
0.00974418
0.0158231
0.0352003
0.0175463
0.0135742
0.0289954
0.0510771
0.0771935
0.106051
0.136294
0.166396
0.195011
0.221263
0.244794
0.265635
0.284128
0.300586
0.315387
0.328626
0.340429
0.350907
0.360272
0.368662
0.376234
0.383088
0.389263
0.394833
0.39987
0.404403
0.40843
0.412016
0.415194
0.417981
0.420295
0.422079
0.423287
0.423828
0.423513
0.422097
0.419175
0.414164
0.406021
0.393022
0.372623
0.343596
0.302501
0.241749
0.161621
0.0851595
0.0359019
0.0130022
0.00440575
0.00220236
0.00206151
0.00219138
0.00235612
0.00254643
0.00277504
0.00307967
0.00348982
0.0039524
0.00459216
0.00553318
0.00702964
0.00974569
0.0158252
0.0352037
0.0175176
0.0135427
0.02891
0.0509035
0.0769159
0.105694
0.135898
0.166059
0.194782
0.221132
0.244714
0.26555
0.283889
0.30019
0.314812
0.327991
0.339787
0.350303
0.359647
0.368018
0.375528
0.382308
0.388447
0.393977
0.398965
0.403475
0.407513
0.411068
0.414206
0.416952
0.419303
0.421157
0.422441
0.423088
0.422982
0.42188
0.419468
0.415211
0.408293
0.397252
0.379846
0.354358
0.318873
0.266993
0.193906
0.113418
0.0522383
0.0201969
0.00697235
0.00267905
0.00198763
0.00205376
0.0021946
0.00235992
0.00254878
0.00278513
0.00309502
0.00349287
0.00394776
0.00459305
0.0055344
0.00703098
0.00974747
0.0158276
0.0352091
0.0174987
0.0135224
0.0288491
0.050767
0.0766761
0.105345
0.135485
0.165628
0.194428
0.220886
0.244563
0.26544
0.283768
0.299916
0.314395
0.327404
0.339147
0.349662
0.359039
0.367379
0.37487
0.3816
0.387672
0.39317
0.398115
0.402579
0.406601
0.410176
0.413286
0.415992
0.418314
0.420223
0.421596
0.422348
0.422386
0.42155
0.419539
0.415934
0.410013
0.40063
0.38578
0.363455
0.332339
0.287962
0.223479
0.143734
0.0730229
0.0302676
0.0109614
0.00381838
0.00204285
0.0019413
0.00205531
0.00219783
0.00236286
0.0025519
0.00279926
0.00311894
0.00348498
0.00394717
0.0045942
0.00553566
0.0070325
0.00974937
0.0158305
0.0352152
0.0174855
0.0135111
0.0288123
0.0506712
0.0764879
0.105044
0.135078
0.165174
0.193973
0.220523
0.244301
0.265267
0.283627
0.299757
0.314087
0.326965
0.338547
0.34902
0.358399
0.36677
0.37422
0.380932
0.386964
0.392402
0.397319
0.401736
0.405716
0.409286
0.412424
0.415105
0.417391
0.419287
0.420738
0.421602
0.421775
0.421132
0.419456
0.416368
0.411296
0.403245
0.39064
0.371199
0.343672
0.305231
0.24937
0.174148
0.0977445
0.0437867
0.0167733
0.00584457
0.00238944
0.00187048
0.00193498
0.00205799
0.00220122
0.00236483
0.0025581
0.00281421
0.00313381
0.00347734
0.00394802
0.00459539
0.00553714
0.00703415
0.00975143
0.015834
0.0352216
0.0174777
0.0135057
0.0287947
0.0506146
0.0763575
0.104808
0.134725
0.164723
0.193496
0.220057
0.243932
0.264991
0.283433
0.299588
0.313893
0.326624
0.338088
0.348409
0.357757
0.366131
0.373609
0.38027
0.386289
0.391696
0.396561
0.40095
0.404884
0.408416
0.411561
0.414274
0.416538
0.418407
0.419865
0.420831
0.421144
0.420675
0.419255
0.416597
0.412199
0.405269
0.394441
0.377707
0.353309
0.319626
0.271356
0.203123
0.124889
0.0610631
0.0248811
0.00898992
0.00323913
0.00189204
0.00183505
0.00193679
0.00206107
0.00220302
0.00236533
0.00257086
0.00283183
0.0031263
0.00347573
0.00394912
0.00459668
0.00553877
0.00703612
0.009754
0.0158381
0.0352293
0.0174689
0.0135042
0.0287891
0.0505897
0.0762815
0.104646
0.134448
0.164334
0.193017
0.219568
0.243464
0.264617
0.283143
0.299377
0.313695
0.326396
0.337716
0.347934
0.357139
0.365492
0.372976
0.37966
0.385618
0.391016
0.395861
0.400205
0.404109
0.407595
0.410708
0.413441
0.415745
0.417594
0.419037
0.420035
0.420481
0.420184
0.418988
0.416664
0.412826
0.406788
0.397453
0.383022
0.361446
0.331564
0.289807
0.229464
0.153052
0.0819603
0.0357203
0.0135527
0.00477445
0.00211812
0.00176504
0.00183075
0.00193974
0.0020646
0.00220527
0.00236981
0.002582
0.00284453
0.00311761
0.00347635
0.00395033
0.00459818
0.00554045
0.00703824
0.00975696
0.0158427
0.0352378
0.0174596
0.0135013
0.0287912
0.0505848
0.0762505
0.104551
0.134258
0.164023
0.192603
0.219075
0.242972
0.264149
0.282766
0.299072
0.313466
0.326171
0.337456
0.34753
0.356648
0.364869
0.372341
0.379033
0.385006
0.390337
0.395177
0.399513
0.403379
0.406836
0.409902
0.412614
0.414949
0.416843
0.41827
0.419273
0.419779
0.419648
0.418667
0.416633
0.413236
0.40794
0.399795
0.387327
0.368299
0.341671
0.305102
0.252496
0.180949
0.105703
0.0496518
0.0198694
0.0071677
0.00270836
0.00175706
0.00174035
0.00183244
0.00194288
0.00206731
0.00220726
0.00238009
0.00259638
0.00284236
0.00311483
0.00347745
0.00395172
0.00459979
0.00554234
0.00704056
0.00976009
0.0158479
0.035247
0.0174475
0.0134967
0.0287891
0.0505905
0.0762461
0.104515
0.134147
0.163811
0.192269
0.218646
0.242472
0.26366
0.282302
0.298694
0.313149
0.325924
0.337205
0.347239
0.356218
0.364366
0.371714
0.378406
0.384387
0.389727
0.394495
0.398832
0.4027
0.406121
0.409157
0.411826
0.41415
0.416087
0.417567
0.418564
0.419096
0.41906
0.418286
0.416521
0.413502
0.408796
0.401651
0.390752
0.374102
0.350289
0.317938
0.272047
0.207269
0.131263
0.0667871
0.0283224
0.0106279
0.00381188
0.0018828
0.00167116
0.0017379
0.00183522
0.00194536
0.00206999
0.00221088
0.00239075
0.00261282
0.00283243
0.00311524
0.00347869
0.0039532
0.00460151
0.00554443
0.00704321
0.00976372
0.0158536
0.0352575
0.0174329
0.0134885
0.0287821
0.0505889
0.0762578
0.104512
0.134104
0.163683
0.192039
0.218295
0.242036
0.263158
0.281815
0.298232
0.312771
0.325597
0.336943
0.346964
0.355898
0.363911
0.371201
0.377778
0.383768
0.389115
0.393883
0.398146
0.402022
0.405455
0.40846
0.4111
0.413385
0.415324
0.416859
0.417912
0.418452
0.418475
0.417839
0.41633
0.41365
0.409443
0.403096
0.393507
0.37893
0.357636
0.328702
0.28854
0.230971
0.157375
0.0869788
0.0392531
0.0154218
0.00556019
0.00225581
0.00164109
0.00165558
0.00173995
0.0018376
0.00194873
0.00207198
0.0022189
0.00240213
0.00260917
0.00282879
0.00311635
0.00348009
0.00395481
0.00460342
0.00554673
0.0070462
0.00976795
0.0158602
0.0352688
0.0174142
0.0134768
0.028766
0.0505779
0.0762578
0.104528
0.134099
0.163629
0.191893
0.218049
0.241671
0.262715
0.281312
0.297748
0.312312
0.32522
0.336606
0.346688
0.355598
0.363561
0.370725
0.377257
0.383144
0.388508
0.393283
0.397535
0.401335
0.404788
0.407814
0.410421
0.412677
0.414585
0.416139
0.41726
0.417864
0.417915
0.417374
0.416053
0.413693
0.409923
0.404241
0.395751
0.382926
0.363945
0.337889
0.302396
0.251699
0.182869
0.109365
0.0529168
0.0218419
0.00811129
0.00299975
0.00169217
0.00158796
0.00165495
0.00174253
0.00184053
0.00194979
0.00207391
0.00222933
0.00241256
0.00260011
0.00282905
0.00311764
0.00348155
0.00395656
0.00460551
0.0055493
0.00704953
0.00977265
0.0158678
0.0352815
0.0173932
0.0134603
0.0287417
0.050552
0.076242
0.104528
0.134117
0.16362
0.191827
0.217886
0.241411
0.262341
0.280866
0.297245
0.31183
0.324764
0.33623
0.346343
0.355308
0.36324
0.370348
0.37676
0.382619
0.387892
0.392687
0.396943
0.400728
0.404101
0.407158
0.409797
0.412023
0.413904
0.415437
0.416591
0.417274
0.417399
0.416914
0.415737
0.413627
0.410258
0.405149
0.39757
0.386255
0.369352
0.345805
0.314136
0.269489
0.206791
0.13298
0.0692947
0.030167
0.0116482
0.0042258
0.0019
0.00154425
0.00157973
0.00165711
0.00174523
0.00184355
0.00195214
0.00208001
0.00224055
0.00241609
0.00259574
0.00283014
0.00311903
0.00348319
0.00395848
0.00460775
0.00555217
0.00705313
0.00977774
0.0158757
0.0352961
0.0173691
0.0134417
0.028707
0.0505101
0.0762045
0.104508
0.134115
0.163635
0.191807
0.217805
0.241231
0.262068
0.280481
0.296794
0.311327
0.324287
0.33578
0.34597
0.354957
0.362938
0.370007
0.37636
0.382108
0.387365
0.392083
0.396363
0.400144
0.403495
0.406476
0.409157
0.41142
0.413274
0.414783
0.41593
0.416667
0.416884
0.41649
0.415404
0.413495
0.410453
0.405858
0.399053
0.388981
0.373966
0.352636
0.324035
0.284644
0.228484
0.156885
0.0880983
0.0406153
0.0163589
0.00603574
0.00236272
0.00154725
0.00151487
0.00158032
0.00165943
0.00174784
0.00184616
0.00195575
0.00208989
0.00225374
0.00240592
0.00259591
0.00283143
0.00312053
0.00348499
0.00396057
0.0046103
0.00555525
0.00705725
0.00978346
0.0158846
0.0353118
0.0173429
0.0134184
0.0286653
0.0504504
0.0761449
0.104459
0.13409
0.163627
0.191812
0.217768
0.241132
0.26187
0.280195
0.296397
0.310871
0.323783
0.335307
0.345524
0.354585
0.36258
0.369692
0.375998
0.381683
0.386842
0.391558
0.395772
0.399579
0.402921
0.405874
0.408483
0.410801
0.412698
0.41418
0.415311
0.416058
0.416349
0.416059
0.415087
0.413318
0.410551
0.406386
0.400255
0.39124
0.377875
0.358578
0.332566
0.297434
0.24759
0.180288
0.108644
0.0533524
0.0224467
0.00853588
0.00316639
0.00164178
0.00146489
0.00151135
0.00158227
0.00166156
0.00174996
0.001848
0.00195984
0.00209824
0.00224941
0.00240169
0.00259705
0.00283284
0.00312218
0.0034869
0.00396285
0.00461308
0.00555867
0.00706187
0.00978977
0.0158947
0.0353283
0.0173145
0.0133932
0.0286139
0.0503787
0.0760571
0.104379
0.134028
0.163593
0.191794
0.217759
0.241076
0.261753
0.27998
0.296098
0.310466
0.323324
0.334805
0.345058
0.354151
0.362213
0.369327
0.375672
0.381303
0.386396
0.391026
0.395253
0.399003
0.402372
0.405308
0.407885
0.410139
0.412102
0.413635
0.414742
0.415481
0.415802
0.415607
0.41476
0.413134
0.41057
0.406775
0.401216
0.393103
0.381176
0.363749
0.340009
0.308403
0.26407
0.202339
0.13028
0.068371
0.0301548
0.0118563
0.00437695
0.00189281
0.00144054
0.00145035
0.0015126
0.00158448
0.00166408
0.00175187
0.00184881
0.00196878
0.00210531
0.00224157
0.00240188
0.00259836
0.00283438
0.00312398
0.00348898
0.00396533
0.0046161
0.00556252
0.00706682
0.0097969
0.015906
0.0353464
0.0172853
0.0133657
0.0285578
0.0502905
0.0759514
0.104265
0.133932
0.16352
0.19175
0.217727
0.241051
0.261677
0.279844
0.295865
0.310154
0.32291
0.334342
0.344558
0.353691
0.361787
0.368966
0.375303
0.380966
0.385996
0.390563
0.394717
0.398495
0.401816
0.404778
0.407328
0.40955
0.411458
0.413068
0.414229
0.414949
0.415277
0.415134
0.414404
0.412929
0.410553
0.40704
0.401983
0.39464
0.383912
0.3682
0.346486
0.317729
0.278264
0.22242
0.152182
0.0854857
0.0396761
0.0161761
0.00606639
0.00236743
0.00146403
0.00139872
0.00144961
0.00151469
0.001587
0.00166703
0.00175371
0.00185453
0.00197794
0.00210886
0.00223716
0.00240306
0.0025998
0.00283606
0.00312592
0.00349127
0.00396805
0.00461945
0.00556673
0.00707238
0.00980497
0.0159181
0.0353664
0.0172552
0.0133368
0.028496
0.0501929
0.0758222
0.104125
0.133792
0.163409
0.191665
0.217673
0.241004