# p  FACE_DATA 317
# x  y  z  p
-2.24217 0 0.27 23911.1
-2.12942 0 0.27 23882.1
-2.02231 0 0.27 23855.4
-1.92055 0 0.27 23845.1
-1.82389 0 0.27 23842.4
-1.73207 0 0.27 23837.4
-1.64485 0 0.27 23829.8
-1.562 0 0.27 23825.2
-1.48331 0 0.27 23824.9
-1.40856 0 0.27 23822.8
-1.33756 0 0.27 23814.9
-1.27013 0 0.27 23801
-1.20608 0 0.27 23782.5
-1.14539 0 0.27 23761.1
-1.08787 0 0.27 23741.7
-1.03323 0 0.27 23724.6
-0.981322 0 0.27 23709.6
-0.932014 0 0.27 23697.5
-0.885173 0 0.27 23688.3
-0.84068 0 0.27 23681.4
-0.798416 0 0.27 23676.7
-0.758473 0 0.27 23673.7
-0.720912 0 0.27 23672
-0.685558 0 0.27 23671.3
-0.652245 0 0.27 23671.2
-0.620811 0 0.27 23671.2
-0.591171 0 0.27 23671.2
-0.563165 0 0.27 23671.3
-0.536572 0 0.27 23672.3
-0.51125 0 0.27 23673.8
-0.487059 0 0.27 23676.2
-0.463863 0 0.27 23679.6
-0.441526 0 0.27 23684.1
-0.419915 0 0.27 23689.2
-0.398896 0 0.27 23694.7
-0.378338 0 0.27 23700.6
-0.358104 0 0.27 23706.3
-0.33806 0 0.27 23709.7
-0.318069 0 0.27 23737.7
-0.296809 0 0.27 23754.6
-0.275112 0 0.27 23737.8
-0.255001 0 0.27 23733.9
-0.23636 0 0.27 23760.9
-0.219081 0 0.27 23752
-0.203066 0 0.27 23730.4
-0.188221 0 0.27 23728.1
-0.174462 0 0.27 23725.7
-0.161708 0 0.27 23725.9
-0.149886 0 0.27 23726.7
-0.138929 0 0.27 23726.3
-0.128773 0 0.27 23726.6
-0.119359 0 0.27 23725.9
-0.110632 0 0.27 23726
-0.102544 0 0.27 23726
-0.0950472 0 0.27 23726.6
-0.0880983 0 0.27 23726.7
-0.0816572 0 0.27 23726.7
-0.0756869 0 0.27 23727.5
-0.070153 0 0.27 23725.3
-0.0650234 0 0.27 23754.8
-0.0602687 0 0.27 25062.3
-0.0558616 0 0.27 32489.4
-0.0517765 0 0.27 41549
-0.0479899 0 0.27 45072
-0.04448 0 0.27 47343.1
-0.0412265 0 0.27 48988.5
-0.0382106 0 0.27 50043.4
-0.0354151 0 0.27 50960.6
-0.0328237 0 0.27 51761.6
-0.0304215 0 0.27 52403
-0.0281948 0 0.27 52985.6
-0.0261306 0 0.27 53505.1
-0.0242171 0 0.27 53973.9
-0.0224431 0 0.27 54392.8
-0.0207985 0 0.27 54771.6
-0.0192738 0 0.27 55115
-0.0178602 0 0.27 55427.3
-0.0165496 0 0.27 55711.9
-0.0153345 0 0.27 55971
-0.0142077 0 0.27 56206.4
-0.0131629 0 0.27 56421.3
-0.0121939 0 0.27 56617.8
-0.0112952 0 0.27 56798.2
-0.0104616 0 0.27 56964.3
-0.0096884 0 0.27 57118.2
-0.00897103 0 0.27 57261.2
-0.00830536 0 0.27 57394.7
-0.00768758 0 0.27 57519.9
-0.0071141 0 0.27 57637.7
-0.00658165 0 0.27 57748.4
-0.00608714 0 0.27 57853.3
-0.00562772 0 0.27 57952.4
-0.00520074 0 0.27 58046.3
-0.00480375 0 0.27 58135.3
-0.00443446 0 0.27 58219.6
-0.00409073 0 0.27 58299.3
-0.00377059 0 0.27 58374.8
-0.00347218 0 0.27 58445.3
-0.00319379 0 0.27 58518
-0.00293381 0 0.27 58581.1
-0.00269075 0 0.27 58642.1
-0.00246319 0 0.27 58699.6
-0.00224984 0 0.27 58754.2
-0.00204945 0 0.27 58805.7
-0.00186089 0 0.27 58854.6
-0.00168306 0 0.27 58900.5
-0.00151492 0 0.27 58944.1
-0.00135552 0 0.27 58984.6
-0.00120394 0 0.27 59023.2
-0.00105929 0 0.27 59058.4
-0.000920752 0 0.27 59092.1
-0.000787523 0 0.27 59121.9
-0.000658834 0 0.27 59149.3
-0.000533942 0 0.27 59172.6
-0.000412129 0 0.27 59189.4
-0.000292693 0 0.27 59205.4
-0.000174943 0 0.27 59184.7
-5.82025e-05 0 0.27 59384.9
6.0278e-05 2.68374e-05 0.27 58665.9
0.000182584 8.12915e-05 0.27 58888.6
0.000308438 0.000137325 0.27 58846.5
0.000437939 0.000194983 0.27 58832.9
0.00057119 0.00025431 0.27 58820.3
0.000708293 0.000315353 0.27 58821.2
0.000849358 0.000378158 0.27 58831.6
0.000994492 0.000442776 0.27 58846.8
0.00114381 0.000509256 0.27 58869.2
0.00129743 0.000577649 0.27 58894.9
0.00145545 0.000648007 0.27 58926
0.00161801 0.000720386 0.27 58960.1
0.00178523 0.000794839 0.27 58998.7
0.00195724 0.000871423 0.27 59040.1
0.00213417 0.000950195 0.27 59085.4
0.00231614 0.00103122 0.27 59133.5
0.0025033 0.00111455 0.27 59185.2
0.00269579 0.00120024 0.27 59239.7
0.00289374 0.00128838 0.27 59297.4
0.00309731 0.00137901 0.27 59358.3
0.00330663 0.00147221 0.27 59422.7
0.00352187 0.00156804 0.27 59490.8
0.00374317 0.00166657 0.27 59561
0.0039707 0.00176788 0.27 59634.4
0.00420463 0.00187202 0.27 59711
0.00444512 0.0019791 0.27 59791
0.00469233 0.00208916 0.27 59874.5
0.00494645 0.0022023 0.27 59961.4
0.00520763 0.00231859 0.27 60051.7
0.00547608 0.00243811 0.27 60145.6
0.00575197 0.00256094 0.27 60243.2
0.00603549 0.00268717 0.27 60344.3
0.00632683 0.00281688 0.27 60449.3
0.00662618 0.00295016 0.27 60558.1
0.00693375 0.0030871 0.27 60670.8
0.00724974 0.0032278 0.27 60787.6
0.00757435 0.00337232 0.27 60908.7
0.0079078 0.00352077 0.27 61034
0.00825029 0.00367327 0.27 61163.8
0.00860204 0.00382988 0.27 61298.1
0.00896328 0.00399071 0.27 61437.2
0.00933422 0.00415586 0.27 61581.2
0.0097151 0.00432544 0.27 61730.1
0.0101061 0.00449954 0.27 61884.3
0.0105076 0.00467828 0.27 62044.2
0.0109197 0.00486175 0.27 62209.6
0.0113426 0.00505007 0.27 62381.2
0.0117768 0.00524333 0.27 62558.7
0.0122222 0.00544166 0.27 62742.8
0.0126792 0.00564515 0.27 62933.4
0.0131482 0.00585394 0.27 63131.1
0.0136292 0.00606812 0.27 63335.8
0.0141227 0.00628781 0.27 63548.3
0.0146288 0.00651313 0.27 63768.6
0.0151477 0.00674419 0.27 63996.7
0.0156799 0.00698113 0.27 64233.3
0.0162254 0.00722403 0.27 64478.4
0.0167847 0.00747303 0.27 64732.4
0.017358 0.00772826 0.27 64995.5
0.0179454 0.00798982 0.27 65268.1
0.0185474 0.00825783 0.27 65550.3
0.0191641 0.00853242 0.27 65842.3
0.0197959 0.00881371 0.27 66144.2
0.0204431 0.00910183 0.27 66456.1
0.0211057 0.00939688 0.27 66777.9
0.0217843 0.00969898 0.27 67110
0.0224789 0.0100083 0.27 67452.3
0.02319 0.0103248 0.27 67804.9
0.0239176 0.0106488 0.27 68168.3
0.0246623 0.0109804 0.27 68542
0.025424 0.0113195 0.27 68926.4
0.0262032 0.0116664 0.27 69321.5
0.0270001 0.0120212 0.27 69727.3
0.0278149 0.012384 0.27 70143.4
0.0286479 0.0127549 0.27 70570.3
0.0294992 0.0131339 0.27 71006.8
0.0303692 0.0135212 0.27 71453.6
0.0312581 0.013917 0.27 71910
0.0321659 0.0143213 0.27 72375.8
0.0330931 0.014734 0.27 72851.3
0.0340398 0.0151555 0.27 73336.6
0.0350062 0.0155858 0.27 73831.2
0.0359924 0.0160249 0.27 74335.4
0.0369987 0.0164729 0.27 74850.2
0.0380251 0.0169299 0.27 75373.7
0.0390719 0.0173959 0.27 75906.5
0.0401391 0.0178711 0.27 76448
0.041227 0.0183554 0.27 76996.3
0.0423356 0.018849 0.27 77552.9
0.043465 0.0193519 0.27 78117.1
0.0446154 0.0198641 0.27 78686.2
0.0457867 0.0203856 0.27 79260.5
0.046979 0.0209164 0.27 79837.5
0.0481924 0.0214567 0.27 80416.5
0.0494267 0.0220063 0.27 80995.4
0.0506823 0.0225652 0.27 81571.9
0.0519588 0.0231335 0.27 82144.6
0.0532563 0.0237113 0.27 82710.2
0.0545749 0.0242983 0.27 83267.7
0.0559142 0.0248946 0.27 83813.8
0.0572744 0.0255002 0.27 84347.7
0.0586552 0.0261149 0.27 84867.7
0.0600565 0.0267388 0.27 85374.6
0.0614781 0.0273718 0.27 85868.9
0.0629198 0.0280137 0.27 86351.1
0.0643815 0.0286645 0.27 86824.9
0.0658629 0.029324 0.27 87290.2
0.0673636 0.0299922 0.27 87750.8
0.0688836 0.030669 0.27 88207.2
0.0704223 0.0313541 0.27 88661.4
0.0719795 0.0320474 0.27 89116.3
0.0735549 0.0327488 0.27 89570.9
0.075148 0.0334581 0.27 90025.7
0.0767585 0.0341751 0.27 90480.3
0.0783859 0.0348996 0.27 90932.4
0.0800297 0.0356315 0.27 91382.9
0.0816895 0.0363706 0.27 91831.3
0.0833647 0.0371164 0.27 92269.7
0.085055 0.0378689 0.27 92698.4
0.0867595 0.0386278 0.27 93108.4
0.0884779 0.0393929 0.27 93495.9
0.0902095 0.0401639 0.27 93858.8
0.0919538 0.0409405 0.27 94194.4
0.09371 0.0417224 0.27 94501.4
0.0954776 0.0425094 0.27 94782.3
0.0972558 0.0433011 0.27 95041.3
0.0990439 0.0440972 0.27 95281.8
0.100841 0.0448975 0.27 95501
0.102647 0.0457015 0.27 95701.5
0.104461 0.046509 0.27 95905.5
0.106282 0.0473197 0.27 96096
0.108109 0.0481331 0.27 96300.1
0.109941 0.048949 0.27 96497.4
0.111779 0.0497671 0.27 96690.1
0.11362 0.0505868 0.27 96890.2
0.115464 0.051408 0.27 97127.4
0.117311 0.0522302 0.27 97354.4
0.11916 0.0530531 0.27 97576.7
0.121009 0.0538763 0.27 97851.6
0.122857 0.0546995 0.27 98111.6
0.124705 0.0555223 0.27 98359.4
0.126552 0.0563444 0.27 98612
0.128395 0.0571653 0.27 98860.2
0.130236 0.0579847 0.27 99097.9
0.132072 0.0588023 0.27 99322.2
0.133904 0.0596177 0.27 99530.7
0.13573 0.0604306 0.27 99706
0.137549 0.0612407 0.27 99839.1
0.139361 0.0620475 0.27 99952.3
0.141165 0.0628508 0.27 100018
0.14296 0.0636503 0.27 100121
0.144747 0.0644455 0.27 100201
0.146523 0.0652363 0.27 100253
0.148288 0.0660222 0.27 100295
0.150042 0.0668031 0.27 100317
0.151784 0.0675785 0.27 100370
0.153513 0.0683483 0.27 100377
0.155228 0.0691121 0.27 100393
0.15693 0.0698698 0.27 100441
0.158617 0.070621 0.27 100470
0.160289 0.0713654 0.27 100522
0.161946 0.072103 0.27 100563
0.163586 0.0728334 0.27 100606
0.165211 0.0735564 0.27 100675
0.166817 0.0742718 0.27 100745
0.168406 0.0749795 0.27 100838
0.169978 0.0756793 0.27 100943
0.171532 0.0763709 0.27 101036
0.173067 0.0770543 0.27 101140
0.174583 0.0777293 0.27 101235
0.17608 0.0783958 0.27 101367
0.177557 0.0790535 0.27 101520
0.179014 0.0797025 0.27 101592
0.180452 0.0803425 0.27 101681
0.18187 0.0809736 0.27 101823
0.183266 0.0815956 0.27 101972
0.184643 0.0822085 0.27 102157
0.185999 0.0828122 0.27 102316
0.187334 0.0834066 0.27 102470
0.188648 0.0839917 0.27 102660
0.189942 0.0845675 0.27 102831
0.191214 0.0851339 0.27 103061
0.192465 0.085691 0.27 103254
0.193695 0.0862387 0.27 103484
0.194904 0.086777 0.27 103733
0.196093 0.0873059 0.27 103981
0.197259 0.0878254 0.27 104224
0.198405 0.0883357 0.27 104478
0.19953 0.0888366 0.27 104759
0.200635 0.0893284 0.27 105068
0.201718 0.0898108 0.27 105341
0.202782 0.0902841 0.27 105603
0.203824 0.0907483 0.27 105862
0.204846 0.0912035 0.27 106078
0.205848 0.0916496 0.27 106304
0.206831 0.0920869 0.27 106541
0.207793 0.0925153 0.27 106744
0.208735 0.092935 0.27 106975
0.209658 0.093346 0.27 106860
