# p  FACE_DATA 298
# x  y  z  p
-0.789454 0 0.005 3515.81
-0.76864 0 0.005 3030.31
-0.748373 0 0.005 2768.12
-0.72864 0 0.005 2743.27
-0.709426 0 0.005 2729.35
-0.690719 0 0.005 2732.97
-0.672503 0 0.005 2742.17
-0.654767 0 0.005 2745.42
-0.637498 0 0.005 2754.66
-0.620683 0 0.005 2755.32
-0.604311 0 0.005 2755.92
-0.588369 0 0.005 2755.4
-0.572847 0 0.005 2757.34
-0.557734 0 0.005 2756.42
-0.543018 0 0.005 2754.58
-0.52869 0 0.005 2753.24
-0.514738 0 0.005 2753.38
-0.501153 0 0.005 2753.9
-0.487926 0 0.005 2753.64
-0.475046 0 0.005 2752.35
-0.462505 0 0.005 2750.95
-0.450294 0 0.005 2750.56
-0.438403 0 0.005 2750.42
-0.426826 0 0.005 2750.25
-0.415552 0 0.005 2749.46
-0.404575 0 0.005 2748.5
-0.393887 0 0.005 2747.1
-0.383478 0 0.005 2746.08
-0.373344 0 0.005 2745.53
-0.363476 0 0.005 2746.23
-0.353866 0 0.005 2747.04
-0.34451 0 0.005 2747.45
-0.335398 0 0.005 2746.87
-0.326526 0 0.005 2745.72
-0.317887 0 0.005 2743.73
-0.309474 0 0.005 2741.66
-0.301281 0 0.005 2739.57
-0.293304 0 0.005 2738.19
-0.285535 0 0.005 2737.45
-0.277971 0 0.005 2737.47
-0.270605 0 0.005 2738.39
-0.263431 0 0.005 2740.15
-0.256444 0 0.005 2742.03
-0.249642 0 0.005 2744.13
-0.243016 0 0.005 2745.76
-0.236565 0 0.005 2747.03
-0.230282 0 0.005 2747.44
-0.224163 0 0.005 2747.38
-0.218204 0 0.005 2745.88
-0.2124 0 0.005 2743.76
-0.206748 0 0.005 2740.91
-0.201243 0 0.005 2737.66
-0.195882 0 0.005 2734.22
-0.190661 0 0.005 2731.28
-0.185575 0 0.005 2728.61
-0.180621 0 0.005 2726.5
-0.175796 0 0.005 2725
-0.171097 0 0.005 2724.19
-0.16652 0 0.005 2723.97
-0.162061 0 0.005 2724.09
-0.157718 0 0.005 2724.83
-0.153487 0 0.005 2725.98
-0.149367 0 0.005 2727.42
-0.145351 0 0.005 2729.22
-0.14144 0 0.005 2731.2
-0.13763 0 0.005 2733.3
-0.133918 0 0.005 2735.35
-0.130302 0 0.005 2737.39
-0.126778 0 0.005 2739.23
-0.123345 0 0.005 2740.95
-0.119999 0 0.005 2742.42
-0.116739 0 0.005 2743.76
-0.113562 0 0.005 2744.88
-0.110466 0 0.005 2745.79
-0.107449 0 0.005 2746.43
-0.104509 0 0.005 2746.82
-0.101644 0 0.005 2746.96
-0.0988499 0 0.005 2746.97
-0.0961267 0 0.005 2746.7
-0.0934723 0 0.005 2746.34
-0.0908845 0 0.005 2745.84
-0.0883616 0 0.005 2745.25
-0.0859017 0 0.005 2744.53
-0.0835029 0 0.005 2743.71
-0.0811636 0 0.005 2742.78
-0.0788823 0 0.005 2741.77
-0.0766572 0 0.005 2740.63
-0.0744867 0 0.005 2739.45
-0.0723694 0 0.005 2738.21
-0.0703036 0 0.005 2736.98
-0.068288 0 0.005 2735.73
-0.0663211 0 0.005 2734.52
-0.0644014 0 0.005 2733.34
-0.0625277 0 0.005 2732.24
-0.0606985 0 0.005 2731.18
-0.0589126 0 0.005 2730.19
-0.0571687 0 0.005 2729.25
-0.0554656 0 0.005 2728.37
-0.0538019 0 0.005 2727.53
-0.0521766 0 0.005 2726.74
-0.0505886 0 0.005 2725.98
-0.0490366 0 0.005 2725.26
-0.0475196 0 0.005 2724.56
-0.0460364 0 0.005 2723.91
-0.0445861 0 0.005 2723.28
-0.0431675 0 0.005 2722.69
-0.0417798 0 0.005 2722.11
-0.0404219 0 0.005 2721.53
-0.0390927 0 0.005 2721.12
-0.0377914 0 0.005 2720.52
-0.0365171 0 0.005 2743.84
-0.0352688 0 0.005 3052.7
-0.0340456 0 0.005 4085.05
-0.0328467 0 0.005 5161.75
-0.0316712 0 0.005 5973.37
-0.0305183 0 0.005 6534.76
-0.0293871 0 0.005 6981.28
-0.028277 0 0.005 7342.73
-0.0271869 0 0.005 7654.8
-0.0261162 0 0.005 7931.68
-0.0250641 0 0.005 8179.77
-0.02403 0 0.005 8405.99
-0.023013 0 0.005 8614.38
-0.0220124 0 0.005 8805.18
-0.0210274 0 0.005 8984.56
-0.0200575 0 0.005 9153.03
-0.0191018 0 0.005 9312.55
-0.0181598 0 0.005 9464.45
-0.0172307 0 0.005 9610.3
-0.0163139 0 0.005 9751.34
-0.0154087 0 0.005 9887.02
-0.0145146 0 0.005 10018
-0.0136307 0 0.005 10144.3
-0.0127566 0 0.005 10266.4
-0.0118916 0 0.005 10384
-0.011035 0 0.005 10496.8
-0.0101864 0 0.005 10603.3
-0.00934497 0 0.005 10703.3
-0.00851021 0 0.005 10795
-0.00768153 0 0.005 10878.7
-0.00685832 0 0.005 10952.6
-0.00604 0 0.005 11023.1
-0.00522598 0 0.005 11087.4
-0.0044157 0 0.005 11152.4
-0.00360857 0 0.005 11233.8
-0.002804 0 0.005 11353.3
-0.00200143 0 0.005 11624.1
-0.00120028 0 0.005 12061.1
-0.0004 0 0.005 13152.4
0.00034641 0.0002 0.005 11587.4
0.00103936 0.000600074 0.005 12018.3
0.00173269 0.00100037 0.005 12003.1
0.00242667 0.00140104 0.005 12125.6
0.00312154 0.00180222 0.005 12442.9
0.00381758 0.00220408 0.005 12831.5
0.00451503 0.00260675 0.005 13298.4
0.00521415 0.00301039 0.005 13834.5
0.0059152 0.00341514 0.005 14435.3
0.00661845 0.00382117 0.005 15104
0.00732415 0.0042286 0.005 15843.9
0.00803257 0.00463761 0.005 16663.8
0.00874396 0.00504833 0.005 17569.1
0.0094586 0.00546093 0.005 18572.5
0.0101767 0.00587555 0.005 19678.9
0.0108987 0.00629234 0.005 20900.5
0.0116246 0.00671146 0.005 22246.5
0.0123549 0.00713309 0.005 23732.5
0.0130897 0.00755735 0.005 25369.3
0.0138294 0.00798441 0.005 27177.7
0.0145742 0.00841443 0.005 29171.8
0.0153244 0.00884757 0.005 31372.3
0.0160804 0.009284 0.005 33802.5
0.0168422 0.00972386 0.005 36485
0.0176104 0.0101673 0.005 39435
0.018385 0.0106146 0.005 42672.5
0.0191664 0.0110657 0.005 46216.5
0.019955 0.011521 0.005 50093.2
0.0207509 0.0119805 0.005 54336.8
0.0215546 0.0124445 0.005 59015.6
0.0223662 0.0129131 0.005 64199.8
0.0231861 0.0133865 0.005 69970.5
0.0240146 0.0138648 0.005 76303.7
0.0248521 0.0143483 0.005 83174.2
0.0256987 0.0148371 0.005 90596.2
0.0265549 0.0153315 0.005 98560.9
0.0274209 0.0158315 0.005 107024
0.0282971 0.0163373 0.005 115743
0.0291837 0.0168492 0.005 124591
0.0300812 0.0173674 0.005 133162
0.0309898 0.017892 0.005 140541
0.03191 0.0184232 0.005 145693
0.0328419 0.0189613 0.005 147868
0.033786 0.0195063 0.005 147832
0.0347427 0.0200587 0.005 146750
0.0357122 0.0206184 0.005 140401
0.036695 0.0211858 0.005 134781
0.0376913 0.0217611 0.005 129498
0.0387017 0.0223444 0.005 124446
0.0397264 0.022936 0.005 119745
0.0407658 0.0235361 0.005 115459
0.0418202 0.0241449 0.005 111807
0.0428902 0.0247627 0.005 108723
0.0439762 0.0253897 0.005 106242
0.0450784 0.0260261 0.005 104219
0.0461974 0.0266721 0.005 102616
0.0473334 0.0273279 0.005 101425
0.0484871 0.027994 0.005 100549
0.0496586 0.0286704 0.005 99829.8
0.0508486 0.0293575 0.005 99248.1
0.0520574 0.0300554 0.005 98742.7
0.0532855 0.0307644 0.005 98650.4
0.0545335 0.0314849 0.005 98526.9
0.0558016 0.0322171 0.005 98395.7
0.0570903 0.0329612 0.005 98314.8
0.0584003 0.0337174 0.005 98604.4
0.0597319 0.0344863 0.005 99239.5
0.0610857 0.0352678 0.005 99824.1
0.062462 0.0360624 0.005 100110
0.0638616 0.0368705 0.005 100252
0.0652848 0.0376922 0.005 100449
0.0667321 0.0385279 0.005 100676
0.0682043 0.0393778 0.005 100780
0.0697018 0.0402423 0.005 100736
0.071225 0.0411218 0.005 100676
0.0727747 0.0420165 0.005 100837
0.0743514 0.0429267 0.005 101314
0.0759556 0.043853 0.005 101996
0.0775879 0.0447954 0.005 102426
0.0792491 0.0457545 0.005 102482
0.0809395 0.0467305 0.005 102210
0.08266 0.0477239 0.005 101735
0.0844112 0.0487348 0.005 101206
0.0861936 0.0497639 0.005 100834
0.0880081 0.0508114 0.005 100649
0.089855 0.0518778 0.005 100455
0.0917354 0.0529634 0.005 100704
0.0936497 0.0540687 0.005 101156
0.0955988 0.055194 0.005 101871
0.0975833 0.0563398 0.005 102460
0.0996037 0.0575064 0.005 102631
0.101662 0.0586943 0.005 102420
0.103757 0.0599039 0.005 102136
0.10589 0.0611359 0.005 101857
0.108064 0.0623905 0.005 101608
0.110277 0.0636682 0.005 101992
0.112531 0.0649695 0.005 102391
0.114826 0.0662949 0.005 102674
0.117164 0.0676448 0.005 102704
0.119546 0.0690198 0.005 102659
0.121972 0.0704204 0.005 102612
0.124443 0.0718472 0.005 102398
0.126961 0.0733005 0.005 102321
0.129525 0.0747811 0.005 102162
0.132137 0.0762893 0.005 102081
0.134798 0.0778258 0.005 101713
0.13751 0.0793912 0.005 101567
0.140272 0.080986 0.005 101551
0.143086 0.0826109 0.005 101672
0.145954 0.0842664 0.005 101935
0.148875 0.085953 0.005 102422
0.151852 0.0876716 0.005 102824
0.154884 0.0894226 0.005 103009
0.157975 0.0912068 0.005 103002
0.161123 0.0930248 0.005 102801
0.164332 0.0948773 0.005 102645
0.167602 0.096765 0.005 102452
0.170933 0.0986885 0.005 102273
0.174328 0.100649 0.005 102161
0.177788 0.102646 0.005 102087
0.181313 0.104681 0.005 102102
0.184907 0.106756 0.005 102009
0.188568 0.10887 0.005 102157
0.192299 0.111024 0.005 101883
0.196102 0.113219 0.005 101697
0.199977 0.115456 0.005 101501
0.203926 0.117737 0.005 101237
0.20795 0.120061 0.005 100991
0.212053 0.122428 0.005 100507
0.216234 0.124843 0.005 100006
0.220494 0.127302 0.005 99627.3
0.224837 0.129809 0.005 99256.5
0.229262 0.132365 0.005 98927
0.233773 0.134969 0.005 98582.9
0.23837 0.137624 0.005 98424.5
0.243057 0.140328 0.005 97930.9
0.247833 0.143086 0.005 97542.9
0.2527 0.145896 0.005 97111.8
0.257662 0.148761 0.005 97020.4
0.262718 0.151681 0.005 96955.8
0.267873 0.154657 0.005 97100.2
0.273127 0.15769 0.005 97304.5
0.278482 0.160781 0.005 97370.4
0.28394 0.163933 0.005 97402.8
0.289504 0.167145 0.005 97185.4
0.295175 0.170419 0.005 97058.9
0.300955 0.173756 0.005 97329.6
0.306846 0.177158 0.005 97082.3
0.312851 0.180625 0.005 97796.7
