# wallHeatFlux  FACE_DATA 298
# x  y  z  wallHeatFlux
-0.789454 0 0.005 -321986
-0.76864 0 0.005 -54530
-0.748373 0 0.005 -57409.2
-0.72864 0 0.005 -62867.1
-0.709426 0 0.005 -66377.2
-0.690719 0 0.005 -68640.7
-0.672503 0 0.005 -70017.7
-0.654767 0 0.005 -70727.5
-0.637498 0 0.005 -71202.8
-0.620683 0 0.005 -71335.8
-0.604311 0 0.005 -71305.5
-0.588369 0 0.005 -71174.3
-0.572847 0 0.005 -71004.8
-0.557734 0 0.005 -70732.4
-0.543018 0 0.005 -70438
-0.52869 0 0.005 -70163.9
-0.514738 0 0.005 -69937.5
-0.501153 0 0.005 -69727.7
-0.487926 0 0.005 -69486.4
-0.475046 0 0.005 -69235.9
-0.462505 0 0.005 -68982
-0.450294 0 0.005 -68749.9
-0.438403 0 0.005 -68536
-0.426826 0 0.005 -68333.1
-0.415552 0 0.005 -68127.1
-0.404575 0 0.005 -67930.6
-0.393887 0 0.005 -67728
-0.383478 0 0.005 -67534.4
-0.373344 0 0.005 -67355.4
-0.363476 0 0.005 -67204
-0.353866 0 0.005 -67048.1
-0.34451 0 0.005 -66901.7
-0.335398 0 0.005 -66738.3
-0.326526 0 0.005 -66575.1
-0.317887 0 0.005 -66412.3
-0.309474 0 0.005 -66248.9
-0.301281 0 0.005 -66099.6
-0.293304 0 0.005 -65966.7
-0.285535 0 0.005 -65847.3
-0.277971 0 0.005 -65748.7
-0.270605 0 0.005 -65664.9
-0.263431 0 0.005 -65603.9
-0.256444 0 0.005 -65545.1
-0.249642 0 0.005 -65496.7
-0.243016 0 0.005 -65437.5
-0.236565 0 0.005 -65377.9
-0.230282 0 0.005 -65301.9
-0.224163 0 0.005 -65220.4
-0.218204 0 0.005 -65112
-0.2124 0 0.005 -64982.9
-0.206748 0 0.005 -64849.3
-0.201243 0 0.005 -64695.8
-0.195882 0 0.005 -64547.5
-0.190661 0 0.005 -64417.6
-0.185575 0 0.005 -64293.4
-0.180621 0 0.005 -64187.5
-0.175796 0 0.005 -64097.6
-0.171097 0 0.005 -64029.4
-0.16652 0 0.005 -63977.9
-0.162061 0 0.005 -63937
-0.157718 0 0.005 -63906.9
-0.153487 0 0.005 -63883.1
-0.149367 0 0.005 -63873.5
-0.145351 0 0.005 -63866.6
-0.14144 0 0.005 -63867.7
-0.13763 0 0.005 -63869.1
-0.133918 0 0.005 -63874
-0.130302 0 0.005 -63894.2
-0.126778 0 0.005 -63891.3
-0.123345 0 0.005 -63886.1
-0.119999 0 0.005 -63887.1
-0.116739 0 0.005 -63882.8
-0.113562 0 0.005 -63871.3
-0.110466 0 0.005 -63858.7
-0.107449 0 0.005 -63839
-0.104509 0 0.005 -63810.4
-0.101644 0 0.005 -63783.9
-0.0988499 0 0.005 -63751.2
-0.0961267 0 0.005 -63720
-0.0934723 0 0.005 -63679.3
-0.0908845 0 0.005 -63640
-0.0883616 0 0.005 -63595.1
-0.0859017 0 0.005 -63550.5
-0.0835029 0 0.005 -63505.9
-0.0811636 0 0.005 -63456.7
-0.0788823 0 0.005 -63406.3
-0.0766572 0 0.005 -63352.9
-0.0744867 0 0.005 -63303
-0.0723694 0 0.005 -63249.8
-0.0703036 0 0.005 -63194.8
-0.068288 0 0.005 -63141.6
-0.0663211 0 0.005 -63088
-0.0644014 0 0.005 -63039.8
-0.0625277 0 0.005 -62992
-0.0606985 0 0.005 -62944.3
-0.0589126 0 0.005 -62902.2
-0.0571687 0 0.005 -62860.2
-0.0554656 0 0.005 -62823.7
-0.0538019 0 0.005 -62782.9
-0.0521766 0 0.005 -62745.6
-0.0505886 0 0.005 -62711.1
-0.0490366 0 0.005 -62679.6
-0.0475196 0 0.005 -62644.9
-0.0460364 0 0.005 -62615.1
-0.0445861 0 0.005 -62586.2
-0.0431675 0 0.005 -62556.2
-0.0417798 0 0.005 -62526.6
-0.0404219 0 0.005 -62504
-0.0390927 0 0.005 -62481
-0.0377914 0 0.005 -62420.9
-0.0365171 0 0.005 -61375.3
-0.0352688 0 0.005 -54397.4
-0.0340456 0 0.005 -41383.1
-0.0328467 0 0.005 -43099.3
-0.0316712 0 0.005 -55767.1
-0.0305183 0 0.005 -63463.8
-0.0293871 0 0.005 -69235.9
-0.028277 0 0.005 -73608.7
-0.0271869 0 0.005 -77333.7
-0.0261162 0 0.005 -80590.3
-0.0250641 0 0.005 -83487.3
-0.02403 0 0.005 -86151.3
-0.023013 0 0.005 -88612.2
-0.0220124 0 0.005 -90838.5
-0.0210274 0 0.005 -93009.4
-0.0200575 0 0.005 -95126.8
-0.0191018 0 0.005 -97158.5
-0.0181598 0 0.005 -99098.2
-0.0172307 0 0.005 -100943
-0.0163139 0 0.005 -102672
-0.0154087 0 0.005 -104192
-0.0145146 0 0.005 -105523
-0.0136307 0 0.005 -106738
-0.0127566 0 0.005 -107822
-0.0118916 0 0.005 -108746
-0.011035 0 0.005 -109608
-0.0101864 0 0.005 -110429
-0.00934497 0 0.005 -111418
-0.00851021 0 0.005 -112515
-0.00768153 0 0.005 -114135
-0.00685832 0 0.005 -116239
-0.00604 0 0.005 -119364
-0.00522598 0 0.005 -123143
-0.0044157 0 0.005 -128197
-0.00360857 0 0.005 -134626
-0.002804 0 0.005 -142185
-0.00200143 0 0.005 -150915
-0.00120028 0 0.005 -154603
-0.0004 0 0.005 -158715
0.00034641 0.0002 0.005 -119283
0.00103936 0.000600074 0.005 -139290
0.00173269 0.00100037 0.005 -164850
0.00242667 0.00140104 0.005 -182024
0.00312154 0.00180222 0.005 -195899
0.00381758 0.00220408 0.005 -207926
0.00451503 0.00260675 0.005 -220701
0.00521415 0.00301039 0.005 -234302
0.0059152 0.00341514 0.005 -249189
0.00661845 0.00382117 0.005 -265345
0.00732415 0.0042286 0.005 -283156
0.00803257 0.00463761 0.005 -302819
0.00874396 0.00504833 0.005 -324617
0.0094586 0.00546093 0.005 -348669
0.0101767 0.00587555 0.005 -375274
0.0108987 0.00629234 0.005 -404381
0.0116246 0.00671146 0.005 -436992
0.0123549 0.00713309 0.005 -472860
0.0130897 0.00755735 0.005 -512708
0.0138294 0.00798441 0.005 -557195
0.0145742 0.00841443 0.005 -606567
0.0153244 0.00884757 0.005 -661845
0.0160804 0.009284 0.005 -723443
0.0168422 0.00972386 0.005 -792301
0.0176104 0.0101673 0.005 -868373
0.018385 0.0106146 0.005 -952095
0.0191664 0.0110657 0.005 -1.04094e+06
0.019955 0.011521 0.005 -1.13611e+06
0.0207509 0.0119805 0.005 -1.23515e+06
0.0215546 0.0124445 0.005 -1.33638e+06
0.0223662 0.0129131 0.005 -1.4404e+06
0.0231861 0.0133865 0.005 -1.54337e+06
0.0240146 0.0138648 0.005 -1.64436e+06
0.0248521 0.0143483 0.005 -1.74011e+06
0.0256987 0.0148371 0.005 -1.82601e+06
0.0265549 0.0153315 0.005 -1.90517e+06
0.0274209 0.0158315 0.005 -1.9797e+06
0.0282971 0.0163373 0.005 -2.06237e+06
0.0291837 0.0168492 0.005 -2.11094e+06
0.0300812 0.0173674 0.005 -2.15302e+06
0.0309898 0.017892 0.005 -2.18446e+06
0.03191 0.0184232 0.005 -2.20299e+06
0.0328419 0.0189613 0.005 -2.18137e+06
0.033786 0.0195063 0.005 -2.1461e+06
0.0347427 0.0200587 0.005 -2.10684e+06
0.0357122 0.0206184 0.005 -2.0366e+06
0.036695 0.0211858 0.005 -1.96584e+06
0.0376913 0.0217611 0.005 -1.90123e+06
0.0387017 0.0223444 0.005 -1.82691e+06
0.0397264 0.022936 0.005 -1.75873e+06
0.0407658 0.0235361 0.005 -1.69882e+06
0.0418202 0.0241449 0.005 -1.64696e+06
0.0428902 0.0247627 0.005 -1.5962e+06
0.0439762 0.0253897 0.005 -1.55091e+06
0.0450784 0.0260261 0.005 -1.51455e+06
0.0461974 0.0266721 0.005 -1.48178e+06
0.0473334 0.0273279 0.005 -1.45494e+06
0.0484871 0.027994 0.005 -1.42078e+06
0.0496586 0.0286704 0.005 -1.42593e+06
0.0508486 0.0293575 0.005 -1.39886e+06
0.0520574 0.0300554 0.005 -1.36723e+06
0.0532855 0.0307644 0.005 -1.35933e+06
0.0545335 0.0314849 0.005 -1.3513e+06
0.0558016 0.0322171 0.005 -1.33575e+06
0.0570903 0.0329612 0.005 -1.32399e+06
0.0584003 0.0337174 0.005 -1.31258e+06
0.0597319 0.0344863 0.005 -1.29924e+06
0.0610857 0.0352678 0.005 -1.29929e+06
0.062462 0.0360624 0.005 -1.29939e+06
0.0638616 0.0368705 0.005 -1.28222e+06
0.0652848 0.0376922 0.005 -1.28937e+06
0.0667321 0.0385279 0.005 -1.27085e+06
0.0682043 0.0393778 0.005 -1.27531e+06
0.0697018 0.0402423 0.005 -1.25311e+06
0.071225 0.0411218 0.005 -1.24888e+06
0.0727747 0.0420165 0.005 -1.23664e+06
0.0743514 0.0429267 0.005 -1.23707e+06
0.0759556 0.043853 0.005 -1.23727e+06
0.0775879 0.0447954 0.005 -1.23019e+06
0.0792491 0.0457545 0.005 -1.22562e+06
0.0809395 0.0467305 0.005 -1.22759e+06
0.08266 0.0477239 0.005 -1.21308e+06
0.0844112 0.0487348 0.005 -1.19771e+06
0.0861936 0.0497639 0.005 -1.19468e+06
0.0880081 0.0508114 0.005 -1.18882e+06
0.089855 0.0518778 0.005 -1.177e+06
0.0917354 0.0529634 0.005 -1.16621e+06
0.0936497 0.0540687 0.005 -1.16735e+06
0.0955988 0.055194 0.005 -1.15918e+06
0.0975833 0.0563398 0.005 -1.17011e+06
0.0996037 0.0575064 0.005 -1.33205e+06
0.101662 0.0586943 0.005 -1.25359e+06
0.103757 0.0599039 0.005 -1.26237e+06
0.10589 0.0611359 0.005 -1.13385e+06
0.108064 0.0623905 0.005 -1.11343e+06
0.110277 0.0636682 0.005 -1.14022e+06
0.112531 0.0649695 0.005 -1.19163e+06
0.114826 0.0662949 0.005 -1.28532e+06
0.117164 0.0676448 0.005 -1.36426e+06
0.119546 0.0690198 0.005 -1.22601e+06
0.121972 0.0704204 0.005 -1.20886e+06
0.124443 0.0718472 0.005 -1.0878e+06
0.126961 0.0733005 0.005 -1.2064e+06
0.129525 0.0747811 0.005 -1.07891e+06
0.132137 0.0762893 0.005 -1.19304e+06
0.134798 0.0778258 0.005 -1.35926e+06
0.13751 0.0793912 0.005 -1.30725e+06
0.140272 0.080986 0.005 -1.05296e+06
0.143086 0.0826109 0.005 -1.31118e+06
0.145954 0.0842664 0.005 -1.26975e+06
0.148875 0.085953 0.005 -1.25626e+06
0.151852 0.0876716 0.005 -1.24066e+06
0.154884 0.0894226 0.005 -1.13895e+06
0.157975 0.0912068 0.005 -1.30935e+06
0.161123 0.0930248 0.005 -1.27708e+06
0.164332 0.0948773 0.005 -1.16136e+06
0.167602 0.096765 0.005 -1.15649e+06
0.170933 0.0986885 0.005 -1.03567e+06
0.174328 0.100649 0.005 -995372
0.177788 0.102646 0.005 -989593
0.181313 0.104681 0.005 -984577
0.184907 0.106756 0.005 -1.33333e+06
0.188568 0.10887 0.005 -993584
0.192299 0.111024 0.005 -1.25286e+06
0.196102 0.113219 0.005 -1.12737e+06
0.199977 0.115456 0.005 -1.21275e+06
0.203926 0.117737 0.005 -1.20729e+06
0.20795 0.120061 0.005 -996444
0.212053 0.122428 0.005 -1.20594e+06
0.216234 0.124843 0.005 -1.24473e+06
0.220494 0.127302 0.005 -1.20751e+06
0.224837 0.129809 0.005 -901855
0.229262 0.132365 0.005 -1.26406e+06
0.233773 0.134969 0.005 -1.21427e+06
0.23837 0.137624 0.005 -953107
0.243057 0.140328 0.005 -1.10314e+06
0.247833 0.143086 0.005 -1.07369e+06
0.2527 0.145896 0.005 -1.14548e+06
0.257662 0.148761 0.005 -1.0485e+06
0.262718 0.151681 0.005 -1.14989e+06
0.267873 0.154657 0.005 -1.19458e+06
0.273127 0.15769 0.005 -1.12041e+06
0.278482 0.160781 0.005 -857589
0.28394 0.163933 0.005 -1.15564e+06
0.289504 0.167145 0.005 -1.09145e+06
0.295175 0.170419 0.005 -1.18137e+06
0.300955 0.173756 0.005 -1.09969e+06
0.306846 0.177158 0.005 -863305
0.312851 0.180625 0.005 -1.21528e+06
