# Wall heat-flux
# Time        	patch         	min           	max           	integral      
11200         	base	-1.241526e+04	3.505170e+04	3.918191e+02
