# y+ ()       
# Time        	patch         	min           	max           	average       
4500          	base	4.715000e-03	2.561880e+01	5.491441e+00
