# Wall heat-flux
# Time        	patch         	min           	max           	integral      
6700          	base	-1.663508e+05	-6.844798e+02	-1.875944e+02
