# p  FACE_DATA 80
# x  y  z  p
-0.275972 0 0.05 671.719
-0.22368 0 0.05 671.719
-0.181118 0 0.05 671.719
-0.146477 0 0.05 671.719
-0.118282 0 0.05 671.719
-0.095333 0 0.05 671.719
-0.0766546 0 0.05 671.719
-0.061452 0 0.05 671.719
-0.0490783 0 0.05 671.719
-0.0390072 0 0.05 671.719
-0.0308101 0 0.05 671.719
-0.0241383 0 0.05 671.719
-0.0187081 0 0.05 671.719
-0.0142883 0 0.05 671.719
-0.0106909 0 0.05 671.719
-0.00776298 0 0.05 671.719
-0.00537988 0 0.05 671.719
-0.00344023 0 0.05 671.719
-0.00186151 0 0.05 671.72
-0.000576564 0 0.05 669.994
0.000597823 0 0.05 1192.18
0.00183445 0 0.05 1019.88
0.00315586 0 0.05 889.299
0.00456785 0 0.05 847.48
0.00607663 0 0.05 808.334
0.00768885 0 0.05 785.826
0.00941159 0 0.05 771.024
0.0112524 0 0.05 759.706
0.0132195 0 0.05 750.364
0.0153213 0 0.05 740.685
0.0175673 0 0.05 728.548
0.0199673 0 0.05 712.519
0.0225317 0 0.05 706.635
0.025272 0 0.05 701.093
0.0282001 0 0.05 700.576
0.031329 0 0.05 705.596
0.0346723 0 0.05 712.204
0.0382448 0 0.05 716.701
0.0420623 0 0.05 719.509
0.0461414 0 0.05 721.492
0.0505002 0 0.05 722.395
0.0551578 0 0.05 722.313
0.0601347 0 0.05 721.617
0.0654528 0 0.05 720.956
0.0711354 0 0.05 720.013
0.0772076 0 0.05 719.089
0.0836961 0 0.05 718.22
0.0906293 0 0.05 717.273
0.0980379 0 0.05 716.307
0.105954 0 0.05 715.442
0.114413 0 0.05 714.675
0.123453 0 0.05 713.967
0.133111 0 0.05 713.333
0.143432 0 0.05 712.739
0.15446 0 0.05 712.121
0.166245 0 0.05 711.476
0.178837 0 0.05 710.831
0.192293 0 0.05 710.226
0.20667 0 0.05 709.663
0.222034 0 0.05 709.111
0.238451 0 0.05 708.574
0.255993 0 0.05 708.075
0.274738 0 0.05 707.602
0.294767 0 0.05 707.127
0.31617 0 0.05 706.666
0.33904 0 0.05 706.217
0.363478 0 0.05 705.742
0.389591 0 0.05 705.258
0.417495 0 0.05 704.809
0.447311 0 0.05 704.393
0.479171 0 0.05 703.982
0.513216 0 0.05 703.58
0.549594 0 0.05 703.183
0.588466 0 0.05 702.772
0.630002 0 0.05 702.372
0.674387 0 0.05 701.993
0.721814 0 0.05 701.639
0.772492 0 0.05 701.215
0.826644 0 0.05 701.053
0.884509 0 0.05 700.33
