# wallShearStress  FACE_DATA 80
# x  y  z  wallShearStress_x  wallShearStress_y  wallShearStress_z
-0.275972 0 0.05 2.02278e-12 4.38417e-10 0
-0.22368 0 0.05 4.17666e-12 1.54531e-08 0
-0.181118 0 0.05 -6.50018e-12 2.98023e-08 0
-0.146477 0 0.05 -5.17906e-11 -1.55331e-08 0
-0.118282 0 0.05 -1.40416e-10 -1.96893e-07 0
-0.095333 0 0.05 -4.1387e-10 -5.30919e-07 0
-0.0766546 0 0.05 -1.05622e-09 -1.41449e-06 0
-0.061452 0 0.05 -1.63461e-09 -3.09538e-06 0
-0.0490783 0 0.05 -2.05649e-09 -4.75041e-06 0
-0.0390072 0 0.05 -1.98871e-09 -6.49899e-06 0
-0.0308101 0 0.05 -1.80967e-11 -7.51234e-06 0
-0.0241383 0 0.05 3.31678e-09 -6.7056e-06 0
-0.0187081 0 0.05 7.16934e-09 -4.67017e-06 0
-0.0142883 0 0.05 1.32171e-08 -1.59069e-06 0
-0.0106909 0 0.05 2.0885e-08 3.0095e-06 0
-0.00776298 0 0.05 2.60987e-08 8.40525e-06 0
-0.00537988 0 0.05 3.14337e-08 1.33098e-05 0
-0.00344023 0 0.05 -5.8494e-08 1.58878e-05 0
-0.00186151 0 0.05 -0.000427809 -0.000118733 0
-0.000576564 0 0.05 -0.0367166 -0.521135 0
0.000597823 0 0.05 -261.68 -26.0388 0
0.00183445 0 0.05 -90.9532 -2.8471 0
0.00315586 0 0.05 -55.2389 -0.565365 0
0.00456785 0 0.05 -41.4401 -0.211032 0
0.00607663 0 0.05 -34.2708 -0.143655 0
0.00768885 0 0.05 -29.2415 -0.0878578 0
0.00941159 0 0.05 -25.765 -0.0575729 0
0.0112524 0 0.05 -23.2189 -0.0406286 0
0.0132195 0 0.05 -21.3361 -0.0275496 0
0.0153213 0 0.05 -20.0501 -0.0168484 0
0.0175673 0 0.05 -19.3267 -0.00766002 0
0.0199673 0 0.05 -18.8978 -0.00981221 0
0.0225317 0 0.05 -18.8699 0.0023443 0
0.025272 0 0.05 -19.3661 0.00530793 0
0.0282001 0 0.05 -20.3454 0.007246 0
0.031329 0 0.05 -21.2482 0.00788522 0
0.0346723 0 0.05 -22.0125 0.00447855 0
0.0382448 0 0.05 -22.3653 0.000490073 0
0.0420623 0 0.05 -22.4366 -0.000852457 0
0.0461414 0 0.05 -22.3338 -0.00257107 0
0.0505002 0 0.05 -22.0683 -0.00320988 0
0.0551578 0 0.05 -21.7065 -0.00257819 0
0.0601347 0 0.05 -21.3197 -0.00366156 0
0.0654528 0 0.05 -20.923 -0.00437744 0
0.0711354 0 0.05 -20.5427 -0.00394803 0
0.0772076 0 0.05 -20.1698 -0.00335817 0
0.0836961 0 0.05 -19.8111 -0.00358115 0
0.0906293 0 0.05 -19.4695 -0.00364326 0
0.0980379 0 0.05 -19.1407 -0.00326393 0
0.105954 0 0.05 -18.8237 -0.00321493 0
0.114413 0 0.05 -18.5192 -0.00373584 0
0.123453 0 0.05 -18.228 -0.00431667 0
0.133111 0 0.05 -17.9515 -0.00433817 0
0.143432 0 0.05 -17.6883 -0.00412626 0
0.15446 0 0.05 -17.4336 -0.00444946 0
0.166245 0 0.05 -17.1856 -0.00520184 0
0.178837 0 0.05 -16.9453 -0.00585933 0
0.192293 0 0.05 -16.7131 -0.00631752 0
0.20667 0 0.05 -16.4891 -0.00670676 0
0.222034 0 0.05 -16.2719 -0.00712905 0
0.238451 0 0.05 -16.0604 -0.00761181 0
0.255993 0 0.05 -15.8548 -0.00815887 0
0.274738 0 0.05 -15.655 -0.00870336 0
0.294767 0 0.05 -15.46 -0.00925132 0
0.31617 0 0.05 -15.2693 -0.00980845 0
0.33904 0 0.05 -15.0827 -0.010413 0
0.363478 0 0.05 -14.8994 -0.0110281 0
0.389591 0 0.05 -14.7191 -0.0116754 0
0.417495 0 0.05 -14.5417 -0.0123404 0
0.447311 0 0.05 -14.368 -0.0130113 0
0.479171 0 0.05 -14.1974 -0.0136847 0
0.513216 0 0.05 -14.0293 -0.0143775 0
0.549594 0 0.05 -13.864 -0.0150542 0
0.588466 0 0.05 -13.7007 -0.0157465 0
0.630002 0 0.05 -13.5397 -0.0164569 0
0.674387 0 0.05 -13.3807 -0.0171725 0
0.721814 0 0.05 -13.2255 -0.0178802 0
0.772492 0 0.05 -13.067 -0.0186439 0
0.826644 0 0.05 -12.9243 -0.0192576 0
0.884509 0 0.05 -12.6637 -0.020435 0
