/*--------------------------------*- C++ -*----------------------------------*\
| =========                 |                                                 |
| \\      /  F ield         | OpenFOAM: The Open Source CFD Toolbox           |
|  \\    /   O peration     | Version:  v2012                                 |
|   \\  /    A nd           | Website:  www.openfoam.com                      |
|    \\/     M anipulation  |                                                 |
\*---------------------------------------------------------------------------*/
FoamFile
{
    version     2.0;
    format      ascii;
    class       volScalarField;
    location    "6700";
    object      alphat;
}
// * * * * * * * * * * * * * * * * * * * * * * * * * * * * * * * * * * * * * //

dimensions      [1 -1 -1 0 0 0 0];


internalField   nonuniform List<scalar> 
39402
(
7.75793e-08
2.76333e-09
6.08927e-08
6.78256e-10
2.50433e-09
3.97104e-08
5.54399e-10
6.02635e-10
2.73832e-09
2.49076e-08
5.87214e-10
9.7457e-10
6.17591e-10
3.46154e-09
1.78303e-08
6.30484e-10
1.50419e-09
8.95815e-09
9.15196e-10
4.68318e-09
1.55283e-08
6.65022e-10
1.8528e-09
1.69975e-08
5.31084e-08
1.91641e-09
6.17354e-09
1.5181e-08
6.82196e-10
2.08528e-09
2.18254e-08
1.01182e-07
1.93757e-07
4.08317e-09
7.64466e-09
1.57513e-08
6.94689e-10
2.2039e-09
2.4903e-08
1.28957e-07
3.66267e-07
5.12256e-07
7.69363e-09
8.89748e-09
1.67851e-08
6.99646e-10
2.28842e-09
2.64425e-08
1.46239e-07
4.62857e-07
9.61832e-07
1.07826e-06
1.26793e-08
9.8621e-09
1.80677e-08
6.95015e-10
2.32403e-09
2.7511e-08
1.54718e-07
5.21693e-07
1.20746e-06
2.01691e-06
1.91572e-06
1.80701e-08
1.05786e-08
1.95167e-08
6.85434e-10
2.31396e-09
2.79376e-08
1.60448e-07
5.50152e-07
1.35404e-06
2.52218e-06
3.5839e-06
2.99212e-06
2.31774e-08
1.1173e-08
2.10883e-08
6.76351e-10
2.28544e-09
2.77946e-08
1.62602e-07
5.68897e-07
1.42447e-06
2.81837e-06
4.48029e-06
5.62493e-06
4.04624e-06
2.86496e-08
1.18189e-08
2.27626e-08
6.65216e-10
2.25858e-09
2.74407e-08
1.61587e-07
5.75592e-07
1.4697e-06
2.96077e-06
4.99891e-06
7.05883e-06
7.89789e-06
5.13321e-06
3.46371e-08
1.24486e-08
2.45413e-08
6.53047e-10
2.22044e-09
2.71096e-08
1.59449e-07
5.71674e-07
1.4854e-06
3.05012e-06
5.25035e-06
7.88268e-06
1.01691e-05
1.0138e-05
6.28946e-06
4.19787e-08
1.29785e-08
2.64318e-08
6.41903e-10
2.17839e-09
2.66307e-08
1.57429e-07
5.64109e-07
1.47541e-06
3.08131e-06
5.40515e-06
8.28848e-06
1.13945e-05
1.3246e-05
1.2552e-05
7.52913e-06
5.33791e-08
1.34872e-08
2.84365e-08
6.30687e-10
2.13984e-09
2.61086e-08
1.54596e-07
5.56948e-07
1.45681e-06
3.06242e-06
5.46086e-06
8.53463e-06
1.20116e-05
1.50929e-05
1.65851e-05
1.5135e-05
8.95538e-06
6.39222e-08
1.41119e-08
3.05631e-08
6.1818e-10
2.09953e-09
2.56282e-08
1.51531e-07
5.47058e-07
1.43905e-06
3.02733e-06
5.43328e-06
8.62855e-06
1.23821e-05
1.60675e-05
1.90597e-05
2.0222e-05
1.78856e-05
1.0937e-05
7.10121e-08
1.49665e-08
3.28288e-08
6.05659e-10
2.0532e-09
2.51226e-08
1.48697e-07
5.36376e-07
1.41468e-06
2.99343e-06
5.37886e-06
8.59672e-06
1.25335e-05
1.66556e-05
2.04039e-05
2.34326e-05
2.41436e-05
2.09403e-05
1.40873e-05
7.39093e-08
1.61357e-08
3.53092e-08
5.94698e-10
2.00791e-09
2.45431e-08
1.45723e-07
5.2648e-07
1.3884e-06
2.94659e-06
5.32536e-06
8.52431e-06
1.25079e-05
1.69329e-05
2.12118e-05
2.52283e-05
2.82206e-05
2.83635e-05
2.47299e-05
1.71213e-05
7.02202e-08
1.76647e-08
3.79968e-08
5.84746e-10
1.9688e-09
2.39798e-08
1.42346e-07
5.16098e-07
1.3639e-06
2.89597e-06
5.25057e-06
8.45163e-06
1.24236e-05
1.69733e-05
2.16158e-05
2.63151e-05
3.05742e-05
3.3421e-05
3.29842e-05
2.91567e-05
1.92859e-05
6.05652e-08
1.96283e-08
4.09437e-08
5.74547e-10
1.93268e-09
2.34936e-08
1.39067e-07
5.04378e-07
1.33817e-06
2.84852e-06
5.16891e-06
8.34692e-06
1.23358e-05
1.69272e-05
2.17072e-05
2.68783e-05
3.20212e-05
3.64518e-05
3.9043e-05
3.77191e-05
3.25795e-05
2.0814e-05
4.81118e-08
2.18733e-08
4.38425e-08
5.6414e-10
1.89492e-09
2.30399e-08
1.36217e-07
4.92985e-07
1.30919e-06
2.79851e-06
5.09197e-06
8.2313e-06
1.22035e-05
1.68695e-05
2.16791e-05
2.704e-05
3.27913e-05
3.83498e-05
4.28637e-05
4.48857e-05
4.23469e-05
3.56782e-05
2.13248e-05
3.65034e-08
2.43592e-08
4.63744e-08
5.54713e-10
1.85687e-09
2.25668e-08
1.33549e-07
4.83034e-07
1.28099e-06
2.74215e-06
5.01038e-06
8.12146e-06
1.20544e-05
1.67529e-05
2.163e-05
2.70402e-05
3.30556e-05
3.93944e-05
4.53127e-05
4.96939e-05
5.09023e-05
4.68501e-05
3.87798e-05
2.05594e-05
2.83316e-08
2.7107e-08
4.80786e-08
5.45938e-10
1.82266e-09
2.20924e-08
1.30781e-07
4.73695e-07
1.25623e-06
2.68718e-06
4.91823e-06
8.00418e-06
1.19115e-05
1.65918e-05
2.15059e-05
2.70047e-05
3.3104e-05
3.98048e-05
4.67148e-05
5.28544e-05
5.69067e-05
5.69811e-05
5.11525e-05
4.22862e-05
1.84052e-05
2.38728e-08
3.01346e-08
4.87324e-08
5.37292e-10
1.79116e-09
2.16674e-08
1.28018e-07
4.64036e-07
1.23293e-06
2.63871e-06
4.82806e-06
7.87095e-06
1.17575e-05
1.64184e-05
2.13471e-05
2.68742e-05
3.30947e-05
3.99285e-05
4.73286e-05
5.47302e-05
6.09493e-05
6.4395e-05
6.29411e-05
5.52343e-05
4.64628e-05
1.49706e-05
2.24789e-08
3.32854e-08
4.86014e-08
5.28757e-10
1.75958e-09
2.1276e-08
1.25535e-07
4.54414e-07
1.20885e-06
2.59292e-06
4.74832e-06
7.74032e-06
1.15812e-05
1.62294e-05
2.1189e-05
2.67025e-05
3.29665e-05
3.99643e-05
4.75659e-05
5.56318e-05
6.34395e-05
6.95258e-05
7.19848e-05
6.86231e-05
5.90781e-05
4.8783e-05
1.0735e-05
2.30066e-08
3.61606e-08
4.81678e-08
5.20796e-10
1.72823e-09
2.08854e-08
1.2325e-07
4.45736e-07
1.18487e-06
2.54558e-06
4.67268e-06
7.62455e-06
1.14081e-05
1.60108e-05
2.10085e-05
2.6532e-05
3.27844e-05
3.98507e-05
4.76736e-05
5.60418e-05
6.47339e-05
7.28009e-05
7.84427e-05
7.94699e-05
7.38464e-05
6.27234e-05
4.64746e-05
6.57301e-06
2.47697e-08
3.87836e-08
4.73927e-08
5.13267e-10
1.69926e-09
2.04981e-08
1.20982e-07
4.37759e-07
1.1632e-06
2.49846e-06
4.59437e-06
7.51433e-06
1.12541e-05
1.57952e-05
2.07902e-05
2.63315e-05
3.26002e-05
3.96653e-05
4.75929e-05
5.62623e-05
6.53911e-05
7.46202e-05
8.27169e-05
8.75081e-05
8.65978e-05
7.85026e-05
6.66244e-05
4.16811e-05
3.40373e-06
2.72007e-08
4.08704e-08
4.6462e-08
5.05804e-10
1.67212e-09
2.01415e-08
1.18738e-07
4.29854e-07
1.14324e-06
2.45569e-06
4.51632e-06
7.39978e-06
1.1107e-05
1.56034e-05
2.0573e-05
2.60841e-05
3.2377e-05
3.94731e-05
4.74181e-05
5.6248e-05
6.57771e-05
7.56259e-05
8.52368e-05
9.30392e-05
9.64778e-05
9.30971e-05
8.26227e-05
7.14015e-05
3.43959e-05
1.52614e-06
2.98642e-08
4.27746e-08
4.52111e-08
4.98627e-10
1.64497e-09
1.98094e-08
1.16676e-07
4.22054e-07
1.12349e-06
2.41628e-06
4.44534e-06
7.28559e-06
1.09538e-05
1.54197e-05
2.03821e-05
2.58364e-05
3.20952e-05
3.92304e-05
4.72282e-05
5.6105e-05
6.58667e-05
7.6253e-05
8.67237e-05
9.64773e-05
0.000103557
0.000105041
9.87794e-05
8.64496e-05
7.39256e-05
2.52324e-05
6.24052e-07
3.25593e-08
4.44191e-08
4.38488e-08
4.92367e-10
1.61904e-09
1.94795e-08
1.14761e-07
4.14881e-07
1.10402e-06
2.37727e-06
4.37978e-06
7.18148e-06
1.08006e-05
1.52271e-05
2.01967e-05
2.56177e-05
3.18106e-05
3.89157e-05
4.69728e-05
5.5932e-05
6.57856e-05
7.65e-05
8.76884e-05
9.86209e-05
0.000108182
0.000113989
0.000112883
0.000103578
9.04869e-05
6.80876e-05
1.58476e-05
2.48859e-07
3.5085e-08
4.56356e-08
4.24613e-08
4.86327e-10
1.59643e-09
1.91657e-08
1.12871e-07
4.0825e-07
1.08614e-06
2.33884e-06
4.31483e-06
7.08515e-06
1.0661e-05
1.50344e-05
1.99997e-05
2.54052e-05
3.15592e-05
3.85939e-05
4.66281e-05
5.56766e-05
6.56527e-05
7.65223e-05
8.81738e-05
0.000100066
0.000111211
0.000120128
0.000123996
0.000119717
0.00010771
9.55742e-05
5.82935e-05
8.34686e-06
1.07399e-07
3.73379e-08
4.63383e-08
4.1221e-08
4.80117e-10
1.57466e-09
1.88942e-08
1.11083e-07
4.01721e-07
1.0696e-06
2.3035e-06
4.25083e-06
6.98963e-06
1.05315e-05
1.48587e-05
1.98005e-05
2.51768e-05
3.13143e-05
3.83094e-05
4.62697e-05
5.53104e-05
6.5416e-05
7.6465e-05
8.83622e-05
0.000100892
0.000113308
0.000124316
0.000132001
0.000133202
0.000125372
0.000111685
9.96673e-05
4.47927e-05
3.7226e-06
5.75549e-08
3.92501e-08
4.65339e-08
4.0211e-08
4.73747e-10
1.55198e-09
1.86342e-08
1.09534e-07
3.95567e-07
1.05334e-06
2.2708e-06
4.1919e-06
6.8954e-06
1.04029e-05
1.46956e-05
1.96199e-05
2.49454e-05
3.10493e-05
3.80318e-05
4.59537e-05
5.49211e-05
6.50418e-05
7.62704e-05
8.84236e-05
0.000101325
0.000114616
0.000127295
0.000137691
0.000143432
0.000141201
0.000129916
0.000116358
9.13887e-05
2.95267e-05
1.46287e-06
4.12021e-08
4.06195e-08
4.63968e-08
3.94064e-08
4.68147e-10
1.52898e-09
1.83652e-08
1.08069e-07
3.90245e-07
1.03806e-06
2.2387e-06
4.13746e-06
6.8087e-06
1.02759e-05
1.45331e-05
1.94519e-05
2.47355e-05
3.07795e-05
3.77283e-05
4.56433e-05
5.45765e-05
6.46306e-05
7.5908e-05
8.83059e-05
0.000101571
0.000115401
0.000129264
0.000141832
0.000151001
0.00015396
0.00014775
0.000133818
0.000122105
7.78036e-05
1.60838e-05
5.35642e-07
3.65574e-08
4.14937e-08
4.59969e-08
3.8706e-08
4.63688e-10
1.50943e-09
1.80951e-08
1.06564e-07
3.8524e-07
1.02485e-06
2.20856e-06
4.08386e-06
6.72851e-06
1.01592e-05
1.43726e-05
1.92833e-05
2.45406e-05
3.05345e-05
3.74169e-05
4.52993e-05
5.42356e-05
6.42646e-05
7.54897e-05
8.79805e-05
0.000101583
0.000115915
0.000130546
0.000144696
0.000156656
0.000163821
0.000163129
0.000152834
0.000138032
0.000121835
5.92713e-05
7.19467e-06
1.97407e-07
3.58517e-08
4.20432e-08
4.51924e-08
3.82241e-08
4.5933e-10
1.49406e-09
1.78698e-08
1.05063e-07
3.80128e-07
1.01248e-06
2.18252e-06
4.0336e-06
6.64935e-06
1.00511e-05
1.42252e-05
1.91159e-05
2.43435e-05
3.0307e-05
3.7134e-05
4.49464e-05
5.38555e-05
6.38985e-05
7.51123e-05
8.75776e-05
0.000101336
0.000116128
0.000131447
0.000146668
0.000160707
0.000171388
0.000175632
0.000170592
0.000156951
0.00014415
0.000109251
3.85656e-05
2.742e-06
8.32179e-08
3.64503e-08
4.23438e-08
4.39272e-08
3.79906e-08
4.54505e-10
1.4789e-09
1.76956e-08
1.03822e-07
3.75068e-07
9.99919e-07
2.15819e-06
3.99021e-06
6.57518e-06
9.94398e-06
1.40885e-05
1.89625e-05
2.41476e-05
3.00776e-05
3.68728e-05
4.46257e-05
5.34607e-05
6.34831e-05
7.47301e-05
8.72079e-05
0.000100978
0.000116019
0.00013195
0.000148109
0.000163602
0.000176978
0.000185556
0.000185906
0.000176273
0.000161233
0.00015094
9.01183e-05
2.06662e-05
9.40772e-07
4.73711e-08
3.73043e-08
4.26616e-08
4.23217e-08
3.78548e-08
4.49527e-10
1.46156e-09
1.75264e-08
1.02876e-07
3.70908e-07
9.87527e-07
2.13358e-06
3.94977e-06
6.51126e-06
9.84382e-06
1.39524e-05
1.88204e-05
2.39694e-05
2.98479e-05
3.66075e-05
4.43278e-05
5.31e-05
6.30481e-05
7.42872e-05
8.68218e-05
0.000100639
0.000115754
0.000132059
0.000149031
0.000165775
0.000181111
0.000193119
0.000198558
0.000194173
0.000180593
0.000167279
0.000138996
6.56162e-05
9.10429e-06
3.10023e-07
3.72498e-08
3.80099e-08
4.28596e-08
4.08337e-08
3.77688e-08
4.4514e-10
1.44398e-09
1.73311e-08
1.0197e-07
3.67776e-07
9.77404e-07
2.10936e-06
3.90887e-06
6.45174e-06
9.75749e-06
1.38251e-05
1.86551e-05
2.38039e-05
2.96383e-05
3.63417e-05
4.40249e-05
5.27652e-05
6.26485e-05
7.3814e-05
8.63632e-05
0.00010027
0.000115484
0.000131947
0.00014945
0.000167279
0.000184272
0.000198842
0.000208563
0.000209789
0.000200281
0.000184721
0.000174367
0.000119674
4.01609e-05
3.42555e-06
1.10851e-07
3.488e-08
3.88164e-08
4.27569e-08
3.9535e-08
3.77155e-08
4.41897e-10
1.42916e-09
1.7135e-08
1.00927e-07
3.64804e-07
9.69861e-07
2.0897e-06
3.86882e-06
6.39158e-06
9.67717e-06
1.37157e-05
1.85005e-05
2.36348e-05
2.94445e-05
3.60982e-05
4.37216e-05
5.24247e-05
6.22801e-05
7.33801e-05
8.58652e-05
9.98112e-05
0.000115166
0.000131794
0.00014958
0.000168152
0.000186562
0.000203304
0.000216351
0.000222672
0.000218689
0.00020466
0.000190542
0.000166782
9.29903e-05
1.9985e-05
1.16249e-06
5.29479e-08
3.47033e-08
3.93465e-08
4.24045e-08
3.84333e-08
3.76752e-08
4.39091e-10
1.41859e-09
1.69752e-08
9.98861e-08
3.61396e-07
9.62758e-07
2.07521e-06
3.83649e-06
6.33283e-06
9.59607e-06
1.36141e-05
1.83682e-05
2.34776e-05
2.92528e-05
3.58741e-05
4.3443e-05
5.20811e-05
6.19012e-05
7.29789e-05
8.54009e-05
9.93003e-05
0.000114728
0.000131573
0.000149618
0.000168633
0.000188057
0.000206656
0.000222504
0.00023301
0.000234714
0.000225059
0.000208636
0.000197815
0.000146994
6.21135e-05
8.17917e-06
3.76533e-07
3.7387e-08
3.49926e-08
3.98614e-08
4.19015e-08
3.74627e-08
3.76446e-08
4.35774e-10
1.40935e-09
1.68673e-08
9.90557e-08
3.58018e-07
9.54634e-07
2.06164e-06
3.81289e-06
6.28573e-06
9.51701e-06
1.35112e-05
1.82456e-05
2.33442e-05
2.90742e-05
3.5654e-05
4.31875e-05
5.17663e-05
6.1516e-05
7.2563e-05
8.49685e-05
9.88174e-05
0.00011422
0.000131195
0.000149541
0.000168959
0.000189036
0.000209007
0.00022724
0.00024134
0.000248078
0.000244079
0.000229365
0.000214422
0.000193219
0.000118655
3.39684e-05
2.89872e-06
1.29019e-07
3.3667e-08
3.56186e-08
4.00293e-08
4.10548e-08
3.66875e-08
3.76206e-08
4.31824e-10
1.39772e-09
1.67756e-08
9.85241e-08
3.55377e-07
9.46624e-07
2.04612e-06
3.79085e-06
6.25164e-06
9.45415e-06
1.34113e-05
1.81211e-05
2.32202e-05
2.89231e-05
3.54472e-05
4.29362e-05
5.14787e-05
6.11672e-05
7.21403e-05
8.45217e-05
9.83641e-05
0.000113738
0.000130717
0.000149274
0.000169108
0.000189769
0.000210669
0.000230728
0.000247881
0.000259114
0.00026076
0.000250526
0.000233235
0.000222015
0.000172607
8.37579e-05
1.49988e-05
9.37449e-07
5.71228e-08
3.30096e-08
3.62668e-08
4.01646e-08
3.99844e-08
3.60928e-08
3.76024e-08
4.27817e-10
1.38371e-09
1.66539e-08
9.80874e-08
3.53772e-07
9.40495e-07
2.03092e-06
3.76567e-06
6.22001e-06
9.40924e-06
1.33325e-05
1.80003e-05
2.30928e-05
2.8783e-05
3.52752e-05
4.27006e-05
5.11946e-05
6.08463e-05
7.1755e-05
8.40655e-05
9.78904e-05
0.00011328
0.000130256
0.000148879
0.000169017
0.000190254
0.000211961
0.00023332
0.000252866
0.000267979
0.000274983
0.000270353
0.000254652
0.00023919
0.000218429
0.000142541
4.89836e-05
5.57455e-06
2.93809e-07
3.7753e-08
3.30143e-08
3.70556e-08
4.01894e-08
3.87136e-08
3.56831e-08
3.75914e-08
4.24386e-10
1.36982e-09
1.65061e-08
9.74921e-08
3.52505e-07
9.36971e-07
2.0195e-06
3.7411e-06
6.18371e-06
9.36757e-06
1.3277e-05
1.79061e-05
2.29702e-05
2.86384e-05
3.51158e-05
4.25049e-05
5.09295e-05
6.05288e-05
7.14011e-05
8.36435e-05
9.74039e-05
0.000112793
0.000129816
0.000148473
0.000168751
0.000190433
0.000212915
0.000235387
0.000256703
0.000274911
0.000286731
0.000288089
0.000276644
0.000258488
0.000247029
0.000196207
0.000104366
2.30622e-05
1.85026e-06
1.01512e-07
3.29794e-08
3.33821e-08
3.75435e-08
4.01836e-08
3.73804e-08
3.54664e-08
3.7585e-08
4.2209e-10
1.35861e-09
1.63603e-08
9.67518e-08
3.5072e-07
9.34315e-07
2.01332e-06
3.72307e-06
6.14849e-06
9.3196e-06
1.32256e-05
1.78409e-05
2.28788e-05
2.84985e-05
3.49503e-05
4.23227e-05
5.0708e-05
6.02311e-05
7.10483e-05
8.3256e-05
9.69506e-05
0.000112283
0.000129332
0.000148076
0.000168452
0.000190377
0.000213477
0.000236994
0.000259804
0.000280375
0.000296175
0.000303253
0.000297623
0.000280437
0.000264854
0.000242513
0.000163722
6.40392e-05
9.00844e-06
5.76268e-07
4.86016e-08
3.19169e-08
3.39652e-08
3.81689e-08
3.98371e-08
3.608e-08
3.53457e-08
3.75813e-08
4.21232e-10
1.35178e-09
1.62489e-08
9.60258e-08
3.48451e-07
9.30393e-07
2.0089e-06
3.71396e-06
6.1233e-06
9.27332e-06
1.3166e-05
1.77804e-05
2.28186e-05
2.83964e-05
3.47907e-05
4.21358e-05
5.05037e-05
5.99829e-05
7.07191e-05
8.28706e-05
9.65347e-05
0.000111805
0.000128817
0.000147624
0.000168146
0.000190249
0.000213741
0.000238091
0.000262273
0.000284843
0.000303755
0.000315776
0.000316482
0.000303511
0.000284311
0.00027285
0.000217854
0.000121948
3.16411e-05
3.09844e-06
1.81902e-07
3.51086e-08
3.18274e-08
3.46988e-08
3.83913e-08
3.91889e-08
3.5049e-08
3.52693e-08
3.75791e-08
4.20381e-10
1.35069e-09
1.61906e-08
9.5496e-08
3.46239e-07
9.25306e-07
2.002e-06
3.70777e-06
6.1114e-06
9.24099e-06
1.31087e-05
1.77097e-05
2.27626e-05
2.83326e-05
3.46738e-05
4.19549e-05
5.02928e-05
5.97576e-05
7.04478e-05
8.25144e-05
9.6123e-05
0.000111371
0.000128335
0.000147124
0.000167758
0.000190088
0.000213871
0.00023879
0.000264095
0.000288456
0.000310008
0.000326051
0.000332647
0.000325728
0.000306785
0.000291241
0.000265411
0.000182158
7.65978e-05
1.27926e-05
9.83826e-07
6.94766e-08
3.19614e-08
3.20634e-08
3.55782e-08
3.85866e-08
3.79517e-08
3.43277e-08
3.52219e-08
3.75779e-08
4.19025e-10
1.34844e-09
1.62027e-08
9.52697e-08
3.44711e-07
9.2038e-07
1.99284e-06
3.69746e-06
6.10396e-06
9.22708e-06
1.307e-05
1.76421e-05
2.26937e-05
2.82726e-05
3.46033e-05
4.18229e-05
5.00875e-05
5.95221e-05
7.01989e-05
8.22205e-05
9.57394e-05
0.000110936
0.000127891
0.000146648
0.000167302
0.000189811
0.000213927
0.000239287
0.00026541
0.00029125
0.000315149
0.000334621
0.000346262
0.000345707
0.000330931
0.000310744
0.000299265
0.000237595
0.000136328
3.87282e-05
4.48562e-06
3.03702e-07
3.98615e-08
3.12682e-08
3.25321e-08
3.62659e-08
3.86023e-08
3.64856e-08
3.38726e-08
3.5198e-08
3.75773e-08
4.16711e-10
1.34427e-09
1.61979e-08
9.54375e-08
3.44221e-07
9.17162e-07
1.98405e-06
3.68342e-06
6.09033e-06
9.21925e-06
1.30551e-05
1.75979e-05
2.26279e-05
2.81966e-05
3.45379e-05
4.17449e-05
4.99417e-05
5.92935e-05
6.99383e-05
8.19501e-05
9.54247e-05
0.000110524
0.000127438
0.000146207
0.000166858
0.000189444
0.000213833
0.000239657
0.000266429
0.000293394
0.000319229
0.000341736
0.000357779
0.000363185
0.000354198
0.000333611
0.000318468
0.00028692
0.000197957
8.62267e-05
1.59172e-05
1.43217e-06
1.02881e-07
3.26167e-08
3.12275e-08
3.32172e-08
3.69214e-08
3.85358e-08
3.49732e-08
3.36403e-08
3.51869e-08
3.7577e-08
4.13275e-10
1.33588e-09
1.61694e-08
9.55137e-08
3.4508e-07
9.16565e-07
1.97868e-06
3.67007e-06
6.07121e-06
9.20287e-06
1.3048e-05
1.75836e-05
2.259e-05
2.81234e-05
3.44538e-05
4.1674e-05
4.98598e-05
5.91323e-05
6.96869e-05
8.16655e-05
9.51402e-05
0.000110193
0.000127011
0.000145757
0.000166447
0.000189071
0.000213611
0.000239829
0.00026724
0.000295122
0.000322454
0.00034752
0.000367447
0.000378316
0.000375678
0.000358483
0.000337823
0.000326404
0.000255081
0.000147593
4.38971e-05
5.62769e-06
4.34771e-07
4.81187e-08
3.09866e-08
3.14716e-08
3.40128e-08
3.73113e-08
3.7721e-08
3.37564e-08
3.35266e-08
3.51816e-08
3.75769e-08
4.09573e-10
1.32314e-09
1.60878e-08
9.54559e-08
3.4563e-07
9.19332e-07
1.97856e-06
3.66259e-06
6.05329e-06
9.17893e-06
1.30296e-05
1.75787e-05
2.25851e-05
2.80843e-05
3.43725e-05
4.15819e-05
4.97828e-05
5.90479e-05
6.95115e-05
8.13882e-05
9.48315e-05
0.000109893
0.00012667
0.000145334
0.000166015
0.000188717
0.000213363
0.000239837
0.000267784
0.000296546
0.000325127
0.000352197
0.000375428
0.000391241
0.000394951
0.000383168
0.000361102
0.000346398
0.000306635
0.000210691
9.28528e-05
1.81414e-05
1.7997e-06
1.38163e-07
3.43072e-08
3.07167e-08
3.16826e-08
3.49631e-08
3.74449e-08
3.64566e-08
3.29462e-08
3.34691e-08
3.51793e-08
3.75768e-08
4.0599e-10
1.30991e-09
1.59526e-08
9.50969e-08
3.45731e-07
9.21308e-07
1.98519e-06
3.6641e-06
6.04421e-06
9.15688e-06
1.30017e-05
1.75595e-05
2.25902e-05
2.80854e-05
3.43327e-05
4.14945e-05
4.96826e-05
5.89712e-05
6.94252e-05
8.12021e-05
9.45321e-05
0.000109571
0.000126358
0.000144993
0.00016561
0.000188337
0.000213121
0.000239783
0.000268122
0.000297621
0.000327373
0.0003561
0.000382001
0.000402063
0.000411772
0.000406522
0.000386504
0.000366435
0.000353127
0.000269806
0.000155119
4.6956e-05
6.42904e-06
5.43703e-07
5.67184e-08
3.1147e-08
3.07071e-08
3.23119e-08
3.56555e-08
3.75573e-08
3.4781e-08
3.24885e-08
3.34453e-08
3.51784e-08
3.75768e-08
4.03075e-10
1.29753e-09
1.5812e-08
9.44303e-08
3.44799e-07
9.22167e-07
1.99016e-06
3.67691e-06
6.04882e-06
9.14715e-06
1.29763e-05
1.75282e-05
2.25787e-05
2.80981e-05
3.43416e-05
4.14523e-05
4.95886e-05
5.88642e-05
6.9349e-05
8.11183e-05
9.43352e-05
0.000109258
0.000126023
0.000144684
0.00016529
0.000187973
0.000212829
0.000239709
0.000268347
0.000298403
0.00032916
0.000359429
0.000387545
0.00041108
0.000426132
0.00042764
0.000412661
0.000389193
0.000375042
0.000324154
0.000219646
9.58786e-05
1.92145e-05
2.06155e-06
1.67847e-07
3.61101e-08
3.05351e-08
3.09057e-08
3.30039e-08
3.62807e-08
3.69571e-08
3.32505e-08
3.22833e-08
3.34359e-08
3.51781e-08
3.75768e-08
4.01172e-10
1.28795e-09
1.56817e-08
9.37279e-08
3.4279e-07
9.20458e-07
1.99289e-06
3.6869e-06
6.07031e-06
9.15659e-06
1.29672e-05
1.75005e-05
2.25503e-05
2.80875e-05
3.43608e-05
4.14686e-05
4.95473e-05
5.87607e-05
6.92375e-05
8.10399e-05
9.42542e-05
0.000109049
0.000125697
0.000144343
0.000165003
0.000187693
0.000212539
0.000239559
0.000268517
0.000299019
0.000330564
0.000362165
0.000392284
0.000418735
0.000438298
0.000446202
0.000437693
0.000414784
0.000395533
0.000373192
0.000281434
0.000158307
4.73724e-05
6.75701e-06
6.22208e-07
6.41538e-08
3.13331e-08
3.0531e-08
3.124e-08
3.4002e-08
3.64407e-08
3.5955e-08
3.21665e-08
3.21959e-08
3.34324e-08
3.5178e-08
3.75768e-08
4.00523e-10
1.28239e-09
1.55858e-08
9.30791e-08
3.40642e-07
9.1604e-07
1.9905e-06
3.69295e-06
6.0873e-06
9.18897e-06
1.29832e-05
1.74934e-05
2.25266e-05
2.80606e-05
3.43532e-05
4.14978e-05
4.95733e-05
5.87225e-05
6.91264e-05
8.09227e-05
9.41771e-05
0.00010897
0.000125484
0.000144009
0.000164671
0.000187445
0.000212326
0.000239385
0.000268576
0.000299535
0.000331718
0.00036438
0.000396244
0.000425318
0.000448723
0.000462267
0.00046073
0.000442013
0.000417548
0.000403471
0.000338568
0.000224757
9.48682e-05
1.89435e-05
2.1483e-06
1.89252e-07
3.76755e-08
3.03409e-08
3.06541e-08
3.17411e-08
3.47027e-08
3.65742e-08
3.41646e-08
3.1564e-08
3.21629e-08
3.34313e-08
3.5178e-08
3.75768e-08
4.00812e-10
1.28175e-09
1.55373e-08
9.26249e-08
3.3868e-07
9.11255e-07
1.98269e-06
3.69036e-06
6.0984e-06
9.21507e-06
1.30289e-05
1.75182e-05
2.25287e-05
2.80387e-05
3.43274e-05
4.14997e-05
4.96163e-05
5.87634e-05
6.90883e-05
8.08099e-05
9.40602e-05
0.000108904
0.000125418
0.000143798
0.000164338
0.000187145
0.000212144
0.000239292
0.00026859
0.000299892
0.000332707
0.000366254
0.00039955
0.000430894
0.000457714
0.000476187
0.000481344
0.00046881
0.00044337
0.000424973
0.000390641
0.000289138
0.000157399
4.51578e-05
6.53969e-06
6.41329e-07
6.93104e-08
3.14527e-08
3.01904e-08
3.0752e-08
3.24218e-08
3.54784e-08
3.60502e-08
3.25201e-08
3.13027e-08
3.21524e-08
3.3431e-08
3.5178e-08
3.75768e-08
4.01491e-10
1.28439e-09
1.55494e-08
9.24292e-08
3.37366e-07
9.06929e-07
1.97417e-06
3.67857e-06
6.09623e-06
9.23285e-06
1.3066e-05
1.75793e-05
2.25679e-05
2.80466e-05
3.43086e-05
4.14756e-05
4.96271e-05
5.88226e-05
6.91449e-05
8.07731e-05
9.39498e-05
0.000108796
0.000125373
0.000143759
0.000164144
0.000186836
0.0002119
0.000239221
0.000268675
0.000300176
0.000333477
0.000367884
0.000402364
0.000435602
0.00046538
0.000488263
0.000499503
0.000494019
0.000471337
0.000447068
0.000432157
0.000349182
0.000225369
9.05199e-05
1.75627e-05
2.0461e-06
1.92413e-07
3.86698e-08
3.01624e-08
3.01744e-08
3.09489e-08
3.339e-08
3.56496e-08
3.51116e-08
3.13233e-08
3.12104e-08
3.21491e-08
3.3431e-08
3.51781e-08
3.75768e-08
4.02112e-10
1.28819e-09
1.56001e-08
9.25763e-08
3.36936e-07
9.04186e-07
1.96649e-06
3.66562e-06
6.08044e-06
9.23193e-06
1.30918e-05
1.76294e-05
2.26476e-05
2.81002e-05
3.43227e-05
4.14573e-05
4.96055e-05
5.88404e-05
6.92259e-05
8.08497e-05
9.39207e-05
0.00010869
0.000125276
0.000143741
0.000164139
0.000186674
0.000211637
0.000239063
0.000268757
0.000300498
0.000334131
0.000369211
0.000404821
0.000439645
0.000471918
0.000498629
0.000515448
0.000516865
0.000499809
0.000472675
0.000455222
0.000404685
0.000291978
0.000152001
4.12546e-05
5.94107e-06
6.0263e-07
6.94487e-08
3.15327e-08
2.99848e-08
3.02993e-08
3.14604e-08
3.41506e-08
3.57738e-08
3.31817e-08
3.07198e-08
3.11806e-08
3.21484e-08
3.34312e-08
3.51781e-08
3.75768e-08
4.02103e-10
1.29105e-09
1.56629e-08
9.29399e-08
3.37669e-07
9.03642e-07
1.96203e-06
3.65415e-06
6.06298e-06
9.21239e-06
1.30932e-05
1.7665e-05
2.27133e-05
2.82023e-05
3.43912e-05
4.14805e-05
4.95892e-05
5.88198e-05
6.92564e-05
8.09547e-05
9.40214e-05
0.000108675
0.000125173
0.000143658
0.000164153
0.000186713
0.000211522
0.000238875
0.000268727
0.000300807
0.000334786
0.00037037
0.000406906
0.000443213
0.000477567
0.000507527
0.000529283
0.000537413
0.000526951
0.000500677
0.000478264
0.000455989
0.000355048
0.000220388
8.30248e-05
1.55265e-05
1.82925e-06
1.79931e-07
3.8446e-08
3.00832e-08
3.00779e-08
3.04977e-08
3.20215e-08
3.47721e-08
3.51062e-08
3.15245e-08
3.04875e-08
3.11727e-08
3.21484e-08
3.34313e-08
3.51782e-08
3.75768e-08
4.01506e-10
1.29135e-09
1.5712e-08
9.33715e-08
3.3914e-07
9.05973e-07
1.96183e-06
3.64802e-06
6.04771e-06
9.19067e-06
1.30704e-05
1.76696e-05
2.27598e-05
2.82859e-05
3.45193e-05
4.15668e-05
4.96244e-05
5.88104e-05
6.92396e-05
8.10038e-05
9.41524e-05
0.000108805
0.000125181
0.000143561
0.000164096
0.000186771
0.000211632
0.000238834
0.000268664
0.000300978
0.000335397
0.00037148
0.000408745
0.000446283
0.000482542
0.000515275
0.000541255
0.000555563
0.000552417
0.000530127
0.000502414
0.000485786
0.000414347
0.000288922
0.000141434
3.59582e-05
5.12113e-06
5.32906e-07
6.58031e-08
3.13062e-08
2.98801e-08
3.01585e-08
3.07004e-08
3.29498e-08
3.49077e-08
3.39011e-08
3.04198e-08
3.0418e-08
3.11709e-08
3.21486e-08
3.34315e-08
3.51783e-08
3.75769e-08
4.00253e-10
1.28915e-09
1.57271e-08
9.37145e-08
3.40843e-07
9.10135e-07
1.96746e-06
3.64916e-06
6.04061e-06
9.17227e-06
1.30451e-05
1.76442e-05
2.2769e-05
2.83459e-05
3.4624e-05
4.17225e-05
4.97344e-05
5.88609e-05
6.92399e-05
8.10016e-05
9.42247e-05
0.000108969
0.000125345
0.000143594
0.000164023
0.000186756
0.00021176
0.00023904
0.000268744
0.000301083
0.000335848
0.000372505
0.000410463
0.000448995
0.00048688
0.000522122
0.000551726
0.000571442
0.000575489
0.000559615
0.00053046
0.000509857
0.000469388
0.000355266
0.000209127
7.25004e-05
1.3001e-05
1.5444e-06
1.5927e-07
3.73789e-08
2.98412e-08
2.98559e-08
3.02548e-08
3.12187e-08
3.37773e-08
3.4963e-08
3.18729e-08
2.99505e-08
3.03999e-08
3.11708e-08
3.21489e-08
3.34316e-08
3.51783e-08
3.75769e-08
3.98273e-10
1.28427e-09
1.571e-08
9.38609e-08
3.42213e-07
9.14839e-07
1.97656e-06
3.66014e-06
6.04436e-06
9.16505e-06
1.30242e-05
1.76161e-05
2.27448e-05
2.83612e-05
3.47015e-05
4.18553e-05
4.99204e-05
5.89989e-05
6.93059e-05
8.10121e-05
9.42386e-05
0.000109068
0.000125546
0.000143802
0.000164088
0.000186726
0.000211811
0.000239268
0.000269082
0.000301338
0.000336205
0.000373334
0.000412047
0.000451521
0.000490745
0.000528133
0.000560998
0.000585432
0.000596143
0.000587587
0.000560744
0.000534495
0.000516092
0.000418367
0.000279476
0.000126008
2.96408e-05
4.15296e-06
4.4321e-07
6.00749e-08
3.08858e-08
2.95742e-08
2.98775e-08
3.03501e-08
3.20015e-08
3.42849e-08
3.38618e-08
3.03689e-08
2.98033e-08
3.03962e-08
3.11711e-08
3.21491e-08
3.34318e-08
3.51784e-08
3.7577e-08
3.95776e-10
1.27646e-09
1.56583e-08
9.38154e-08
3.42891e-07
9.18672e-07
1.98677e-06
3.67684e-06
6.06286e-06
9.17295e-06
1.3018e-05
1.75935e-05
2.27183e-05
2.8336e-05
3.47246e-05
4.19521e-05
5.00834e-05
5.9222e-05
6.94716e-05
8.10911e-05
9.42574e-05
0.000109094
0.000125682
0.000144053
0.000164356
0.000186839
0.000211841
0.000239406
0.000269436
0.000301853
0.0003367
0.00037404
0.000413368
0.000453825
0.00049431
0.000533484
0.000569179
0.000597857
0.000614546
0.000613508
0.000592101
0.00056184
0.000542223
0.000477734
0.000348906
0.000191827
5.99783e-05
1.02505e-05
1.22e-06
1.33294e-07
3.58126e-08
2.95673e-08
2.95905e-08
2.9906e-08
3.06464e-08
3.28294e-08
3.43442e-08
3.24019e-08
2.95633e-08
2.97679e-08
3.0396e-08
3.11715e-08
3.21494e-08
3.3432e-08
3.51785e-08
3.7577e-08
3.92952e-10
1.26692e-09
1.55682e-08
9.35664e-08
3.42883e-07
9.20738e-07
1.9951e-06
3.6953e-06
6.08973e-06
9.20099e-06
1.30316e-05
1.75895e-05
2.26976e-05
2.83087e-05
3.46978e-05
4.1987e-05
5.02034e-05
5.9419e-05
6.9744e-05
8.12917e-05
9.43585e-05
0.000109128
0.000125731
0.000144238
0.000164672
0.000187175
0.00021201
0.000239516
0.000269691
0.000302374
0.000337451
0.000374846
0.000414521
0.000455797
0.000497553
0.000538383
0.00057646
0.000608843
0.000630981
0.000637057
0.000622577
0.000592635
0.000568184
0.000532926
0.000415794
0.000263172
0.000107134
2.30748e-05
3.16344e-06
3.44987e-07
5.30853e-08
3.03946e-08
2.93787e-08
2.96559e-08
3.00061e-08
3.11485e-08
3.35259e-08
3.42385e-08
3.04222e-08
2.92994e-08
2.97614e-08
3.03963e-08
3.11719e-08
3.21497e-08
3.34321e-08
3.51786e-08
3.75771e-08
3.90089e-10
1.25627e-09
1.54569e-08
9.3089e-08
3.42158e-07
9.21015e-07
1.9998e-06
3.71036e-06
6.11899e-06
9.24031e-06
1.30712e-05
1.76105e-05
2.27009e-05
2.829e-05
3.46682e-05
4.1961e-05
5.02536e-05
5.95693e-05
6.9984e-05
8.16171e-05
9.46023e-05
0.000109259
0.000125788
0.000144325
0.000164907
0.00018757
0.000212424
0.000239764
0.000269906
0.000302787
0.000338195
0.000375908
0.000415746
0.000457551
0.000500385
0.000542842
0.000583088
0.000618619
0.00064554
0.000658267
0.000651204
0.000624599
0.000595
0.000573092
0.000479159
0.000335026
0.000169052
4.70801e-05
7.62515e-06
9.05189e-07
1.06082e-07
3.40012e-08
2.93458e-08
2.94256e-08
2.97135e-08
3.01687e-08
3.19243e-08
3.36966e-08
3.23515e-08
2.93047e-08
2.92371e-08
2.97606e-08
3.03967e-08
3.11724e-08
3.215e-08
3.34323e-08
3.51788e-08
3.75772e-08
3.87283e-10
1.24542e-09
1.53301e-08
9.2484e-08
3.40617e-07
9.19486e-07
2.00089e-06
3.71929e-06
6.14296e-06
9.28269e-06
1.31252e-05
1.76638e-05
2.27341e-05
2.82973e-05
3.46522e-05
4.1929e-05
5.02301e-05
5.96333e-05
7.01654e-05
8.19032e-05
9.49811e-05
0.000109549
0.000125954
0.00014441
0.000165037
0.000187868
0.000212915
0.000240286
0.000270267
0.00030314
0.000338815
0.000376947
0.000417221
0.000459329
0.000502926
0.000546777
0.000589096
0.00062746
0.00065851
0.000677196
0.000677464
0.000656543
0.000624044
0.000600628
0.000538721
0.000405015
0.000239454
8.64744e-05
1.70104e-05
2.27376e-06
2.54123e-07
4.60866e-08
2.98735e-08
2.92289e-08
2.94731e-08
2.97769e-08
3.04364e-08
3.27562e-08
3.32393e-08
3.06071e-08
2.88789e-08
2.92264e-08
2.9761e-08
3.03973e-08
3.11728e-08
3.21503e-08
3.34325e-08
3.51789e-08
3.75773e-08
3.84693e-10
1.23509e-09
1.5201e-08
9.17874e-08
3.38615e-07
9.15846e-07
1.9983e-06
3.72179e-06
6.15746e-06
9.31739e-06
1.31828e-05
1.77347e-05
2.28046e-05
2.83432e-05
3.46671e-05
4.19137e-05
5.01971e-05
5.96096e-05
7.02456e-05
8.21206e-05
9.53217e-05
0.00010999
0.000126298
0.000144613
0.000165161
0.000188046
0.000213296
0.000240883
0.000270924
0.000303659
0.000339359
0.000377843
0.000418641
0.000461343
0.00050542