/*--------------------------------*- C++ -*----------------------------------*\
| =========                 |                                                 |
| \\      /  F ield         | OpenFOAM: The Open Source CFD Toolbox           |
|  \\    /   O peration     | Version:  v2012                                 |
|   \\  /    A nd           | Website:  www.openfoam.com                      |
|    \\/     M anipulation  |                                                 |
\*---------------------------------------------------------------------------*/
FoamFile
{
    version     2.0;
    format      ascii;
    class       volScalarField;
    location    "0";
    object      c;
}
// * * * * * * * * * * * * * * * * * * * * * * * * * * * * * * * * * * * * * //

dimensions      [0 1 -1 0 0 0 0];


internalField   nonuniform List<scalar> 
39402
(
410.11
357.372
422.909
351.731
375.86
414.576
351.595
363.718
389.229
399.717
352.136
363.544
373.5
398.745
382.696
352.611
364.84
373.436
381.547
405.104
365.32
352.918
365.976
375.253
381.702
388.143
408.723
348.401
353.085
366.705
376.852
383.874
388.603
393.46
409.865
332.251
353.192
367.09
377.875
385.793
390.99
394.289
397.585
408.702
316.993
353.23
367.348
378.41
387.024
393.115
396.761
398.841
400.547
405.35
302.637
353.219
367.436
378.778
387.663
394.485
398.994
401.287
402.305
402.321
399.908
289.139
353.179
367.413
378.895
388.113
395.191
400.446
403.542
404.642
404.708
402.843
392.476
276.43
353.135
367.32
378.862
388.251
395.705
401.19
405.026
406.852
406.897
406.06
402.01
383.176
264.47
353.077
367.217
378.737
388.22
395.867
401.753
405.783
408.333
409.027
408.13
406.339
399.684
372.175
253.141
353.014
367.084
378.599
388.082
395.848
401.94
406.386
409.087
410.488
410.174
408.388
405.472
395.708
359.667
242.407
352.953
366.938
378.414
387.927
395.711
401.945
406.6
409.725
411.229
411.612
410.387
407.684
403.351
389.911
345.919
232.196
352.891
366.796
378.213
387.714
395.559
401.829
406.641
409.967
411.901
412.342
411.82
409.718
406.008
399.866
382.129
331.248
222.478
352.821
366.651
378.016
387.48
395.339
401.695
406.561
410.054
412.172
413.05
412.549
411.188
408.192
403.298
394.899
372.234
315.989
213.177
352.752
366.491
377.814
387.253
395.096
401.488
406.464
410.024
412.317
413.355
413.297
411.941
409.765
405.823
399.505
388.423
360.165
300.423
204.22
352.689
366.33
377.588
387.017
394.859
401.259
406.289
409.979
412.346
413.566
413.646
412.741
410.577
407.579
402.595
394.599
380.47
345.981
284.784
195.508
352.63
366.18
377.363
386.75
394.611
401.033
406.093
409.853
412.365
413.664
413.931
413.152
411.449
408.5
404.653
398.498
388.581
370.953
329.922
268.986
187.525
352.569
366.037
377.156
386.486
394.327
400.794
405.898
409.706
412.301
413.755
414.106
413.518
411.942
409.475
405.739
400.989
393.506
381.381
359.729
312.477
254.053
180.467
352.506
365.893
376.957
386.243
394.047
400.516
405.687
409.558
412.217
413.763
414.278
413.78
412.4
410.071
406.861
402.319
396.576
387.562
372.828
346.685
294.327
240.167
174.62
352.448
365.75
376.752
386.009
393.789
400.241
405.435
409.392
412.13
413.753
414.368
414.042
412.76
410.636
407.583
403.636
398.248
391.388
380.578
362.779
331.721
276.223
227.05
170.804
352.393
365.612
376.551
385.767
393.54
399.988
405.184
409.183
412.022
413.736
414.44
414.221
413.123
411.104
408.273
404.514
399.82
393.517
385.375
372.45
351.161
314.812
258.753
214.617
168.614
352.338
365.477
376.358
385.527
393.281
399.743
404.956
408.977
411.87
413.699
414.499
414.381
413.398
411.578
408.865
405.352
400.892
395.419
388.11
378.47
363.057
338.046
296.109
242.271
203.704
167.198
352.283
365.346
376.168
385.298
393.022
399.486
404.732
408.788
411.719
413.612
414.537
414.525
413.656
411.961
409.458
406.081
401.906
396.735
390.429
381.984
370.58
352.274
323.478
276.055
227.141
194.793
166.133
352.232
365.219
375.985
385.075
392.776
399.226
404.494
408.6
411.582
413.528
414.527
414.647
413.894
412.324
409.959
406.809
402.791
397.955
392.05
384.835
375.082
361.585
339.976
307.135
255.506
213.93
187.733
165.279
352.182
365.099
375.805
384.856
392.537
398.98
404.252
408.396
411.445
413.454
414.517
414.717
414.104
412.661
410.435
407.437
403.666
399.021
393.517
386.832
378.601
367.319
351.343
326.085
288.69
235.878
202.884
182.189
164.643
352.133
364.982
375.636
384.641
392.302
398.742
404.023
408.186
411.288
413.373
414.511
414.785
414.261
412.969
410.879
408.035
404.432
400.06
394.79
388.598
381.066
371.672
358.582
339.708
310.695
268.355
218.706
194.062
177.885
164.295
352.086
364.861
375.471
384.44
392.068
398.505
403.801
407.989
411.123
413.273
414.496
414.855
414.416
413.22
411.291
408.595
405.162
400.976
396.013
390.111
383.191
374.718
363.971
348.731
326.56
293.946
247.01
204.89
187.161
174.474
164.179
352.042
364.748
375.302
384.244
391.849
398.269
403.578
407.796
410.968
413.163
414.459
414.912
414.567
413.466
411.642
409.116
405.844
401.849
397.096
391.542
384.988
377.279
367.736
355.39
337.606
311.855
275.509
226.364
194.329
181.79
171.86
164.065
352
364.645
375.144
384.046
391.638
398.049
403.354
407.6
410.815
413.06
414.409
414.942
414.7
413.703
411.985
409.573
406.482
402.662
398.123
392.811
386.657
379.413
370.829
360.047
345.797
325.056
295.701
255.153
208.531
186.386
177.663
170.014
163.766
351.956
364.546
375
383.859
391.425
397.835
403.145
407.402
410.657
412.955
414.365
414.959
414.805
413.918
412.313
410.018
407.051
403.425
399.077
394.006
388.134
381.357
373.367
363.794
351.551
335.03
310.995
278.348
233.77
194.919
180.354
174.564
168.803
163.198
351.912
364.444
374.862
383.689
391.222
397.621
402.943
407.217
410.495
412.842
414.314
414.978
414.892
414.101
412.616
410.443
407.603
404.113
399.974
395.113
389.514
383.069
375.635
366.819
356.101
342.118
322.926
295.472
259.525
213.385
185.366
175.678
172.643
167.958
162.512
351.873
364.342
374.719
383.525
391.039
397.415
402.738
407.037
410.344
412.723
414.254
414.986
414.979
414.264
412.882
410.836
408.13
404.776
400.786
396.152
390.789
384.657
377.617
369.468
359.719
347.656
331.593
309.35
278.71
239.014
196.54
178.682
172.144
171.6
167.337
162.064
351.839
364.251
374.578
383.356
390.861
397.23
402.542
406.853
410.195
412.615
414.185
414.982
415.05
414.423
413.125
411.191
408.618
405.408
401.568
397.097
391.981
386.115
379.437
371.763
362.825
352.001
338.335
319.804
294.286
260.794
218.065
184.673
173.599
169.705
170.862
166.972
161.861
351.804
364.171
374.451
383.189
390.678
397.052
402.367
406.677
410.042
412.504
414.122
414.966
415.106
414.562
413.36
411.518
409.064
405.998
402.311
398.004
393.069
387.475
381.098
373.849
365.487
355.657
343.571
327.988
306.608
277.923
241.442
199.206
176.809
170.147
168.062
170.124
166.82
161.748
351.768
364.09
374.342
383.041
390.497
396.865
402.196
406.522
409.895
412.389
414.055
414.955
415.148
414.684
413.571
411.831
409.478
406.539
403.006
398.864
394.106
388.714
382.641
375.739
367.878
358.753
347.897
334.31
316.444
291.965
260.651
220.982
184.85
171.785
168.06
167.599
169.52
166.604
161.63
351.732
364.005
374.232
382.913
390.338
396.681
402.018
406.367
409.765
412.277
413.983
414.936
415.192
414.788
413.762
412.119
409.876
407.044
403.645
399.668
395.089
389.893
384.047
377.483
370.028
361.5
351.514
339.453
324.072
303.556
276.051
242.229
201.348
175.629
168.797
166.496
167.663
169.143
166.037
161.487
351.699
363.92
374.115
382.785
390.202
396.522
401.842
406.206
409.636
412.179
413.91
414.909
415.224
414.889
413.93
412.38
410.241
407.527
404.244
400.411
396.008
391.007
385.377
379.071
371.998
363.947
354.681
343.7
330.209
312.688
289.258
259.21
222.444
185.337
170.534
166.792
165.386
167.771
169.013
165.031
161.344
351.673
363.846
374
382.65
390.068
396.385
401.689
406.045
409.497
412.08
413.85
414.88
415.247
414.977
414.094
412.616
410.579
407.974
404.818
401.108
396.859
392.045
386.628
380.565
373.786
366.173
357.471
347.366
335.222
320.018
300.001
273.686
241.351
202.71
174.967
167.663
165.496
165.074
167.937
168.822
163.898
161.227
351.647
363.785
373.9
382.516
389.922
396.251
401.559
405.908
409.358
411.97
413.785
414.861
415.264
415.052
414.238
412.845
410.885
408.39
405.349
401.774
397.658
393.011
387.795
381.966
375.46
368.186
359.989
350.562
339.49
325.961
308.713
285.938
257.167
222.25
185.846
169.514
165.948
164.663
165.423
168.235
168.475
162.934
161.143
351.62
363.731
373.819
382.402
389.78
396.104
401.432
405.791
409.243
411.86
413.71
414.834
415.288
415.118
414.369
413.05
411.18
408.768
405.844
402.392
398.42
393.916
388.881
383.269
377.022
370.058
362.257
353.418
343.165
330.958
315.773
296.136
270.62
239.749
202.846
174.537
166.843
164.858
164.051
165.949
168.341
167.926
162.223
161.086
351.59
363.669
373.748
382.31
389.66
395.961
401.29
405.677
409.145
411.771
413.63
414.795
415.302
415.189
414.489
413.239
411.447
409.133
406.298
402.971
399.129
394.779
389.897
384.482
378.473
371.797
364.35
355.974
346.417
335.21
321.653
304.489
282.213
254.374
221.216
185.751
168.734
165.388
164.151
163.835
166.556
168.391
167.03
161.74
161.053
351.56
363.6
373.664
382.229
389.563
395.841
401.153
405.547
409.05
411.695
413.571
414.75
415.302
415.245
414.607
413.412
411.697
409.466
406.735
403.502
399.793
395.58
390.865
385.616
379.822
373.408
366.284
358.318
349.308
338.93
326.603
311.428
291.955
267.076
237.316
202.248
173.975
166.156
164.487
163.845
164.288
167.08
168.388
165.716
161.476
161.031
351.535
363.533
373.572
382.134
389.478
395.746
401.039
405.421
408.935
411.623
413.523
414.724
415.294
415.287
414.71
413.583
411.927
409.777
407.135
404.012
400.405
396.333
391.764
386.692
381.081
374.903
368.07
360.47
351.937
342.213
330.885
317.224
300.116
278.11
251.063
219.245
185.261
167.996
164.887
164.02
163.688
164.816
167.471
168.249
164.329
161.288
161.016
351.515
363.473
373.482
382.029
389.378
395.662
400.95
405.318
408.825
411.528
413.473
414.703
415.303
415.318
414.794
413.733
412.152
410.066
407.51
404.482
400.991
397.029
392.609
387.695
382.273
376.295
369.724
362.45
354.335
345.172
334.632
322.184
306.92
287.566
263.106
234.292
200.732
173.363
165.511
164.228
163.782
163.801
165.383
167.831
167.85
163.116
161.163
161.007
351.504
363.429
373.405
381.927
389.267
395.562
400.872
405.239
408.738
411.437
413.401
414.681
415.313
415.365
414.868
413.864
412.351
410.345
407.859
404.923
401.532
397.692
393.39
388.635
383.383
377.61
371.261
364.278
356.532
347.852
337.976
326.485
312.702
295.529
273.739
247.295
216.578
184.089
167.33
164.488
163.856
163.817
164.06
165.944
167.834
167.109
162.211
161.082
161.002
351.489
363.405
373.35
381.842
389.16
395.45
400.776
405.171
408.672
411.368
413.334
414.635
415.32
415.407
414.952
413.98
412.53
410.597
408.195
405.334
402.041
398.306
394.134
389.506
384.424
378.835
372.71
365.975
358.554
350.292
340.982
330.288
317.674
302.288
282.907
258.823
230.758
198.506
172.408
165.04
163.965
163.795
163.881
164.31
166.538
167.806
165.948
161.62
161.041
160.999
351.473
363.374
373.323
381.781
389.074
395.345
400.671
405.083
408.616
411.318
413.286
414.592
415.299
415.444
415.03
414.106
412.691
410.825
408.5
405.729
402.516
398.886
394.825
390.334
385.388
379.982
374.055
367.565
360.424
352.532
343.701
333.673
322.023
308.066
290.775
269.043
243.177
213.328
182.356
166.652
164.186
163.816
163.799
163.975
164.642
166.935
167.645
164.559
161.322
161.018
160.998
351.452
363.339
373.285
381.758
389.013
395.26
400.569
404.985
408.539
411.276
413.253
414.567
415.283
415.454
415.101
414.22
412.86
411.033
408.779
406.087
402.97
399.426
395.475
391.104
386.304
381.045
375.315
369.041
362.171
354.595
346.186
336.716
325.861
313.078
297.507
278.035
254.167
226.818
195.69
171.224
164.603
163.895
163.839
163.845
164.036
165.13
167.3
167.335
163.187
161.16
161.007
160.997
351.426
363.292
373.24
381.717
388.993
395.204
400.491
404.891
408.451
411.213
413.226
414.553
415.282
415.464
415.141
414.326
413.012
411.245
409.036
406.419
403.386
399.942
396.083
391.828
387.154
382.052
376.482
370.423
363.789
356.514
348.465
339.481
329.283
317.457
303.315
285.833
264.095
238.657
209.612
180.193
165.941
163.992
163.922
163.903
163.875
164.139
165.706
167.249
166.581
162.148
161.07
161.001
160.997
351.4
363.233
373.179
381.67
388.955
395.188
400.44
404.822
408.368
411.138
413.178
414.545
415.289
415.489
415.18
414.397
413.154
411.437
409.292
406.725
403.772
400.416
396.663
392.505
387.957
382.987
377.584
371.699
365.3
358.288
350.577
342.006
332.374
321.33
308.349
292.574
272.946
249.239
222.441
192.421
169.864
164.228
163.926
163.965
163.964
163.867
164.263
166.233
167.223
165.394
161.514
161.028
160.998
160.997
351.376
363.173
373.099
381.6
388.907
395.154
400.429
404.778
408.311
411.068
413.118
414.511
415.299
415.518
415.232
414.467
413.258
411.617
409.526
407.029
404.127
400.857
397.197
393.151
388.706
383.871
378.61
372.905
366.697
359.941
352.522
344.334
335.181
324.804
312.765
298.396
280.704
258.938
233.838
205.42
177.728
165.219
163.939
163.945
164.032
163.951
163.829
164.628
166.626
167.107
163.837
161.221
161.009
160.997
160.997
351.356
363.118
373.021
381.509
388.835
395.11
400.4
404.773
408.274
411.024
413.063
414.469
415.285
415.549
415.284
414.548
413.361
411.757
409.746
407.306
404.48
401.264
397.695
393.746
389.419
384.695
379.577
374.025
368.011
361.466
354.331
346.472
337.754
327.939
316.695
303.467
287.437
267.647
244.137
217.725
188.731
168.386
164.101
163.928
164.003
164.032
163.945
163.867
165.055
166.88
166.595
162.501
161.089
161.001
160.997
160.997
351.341
363.075
372.948
381.419
388.738
395.037
400.361
404.748
408.277
410.993
413.032
414.429
415.259
415.553
415.337
414.625
413.472
411.892
409.922
407.565
404.8
401.666
398.155
394.302
390.078
385.478
380.481
375.082
369.232
362.898
355.998
348.453
340.109
330.796
320.217
307.946
293.287
275.332
253.556
228.779
200.897
175.005
164.707
163.945
163.967
164.005
164.019
163.926
164.069
165.668
166.898
165.574
161.647
161.03
160.998
160.997
160.997
351.333
363.043
372.891
381.337
388.643
394.941
400.291
404.717
408.258
411.006
413.012
414.414
415.235
415.546
415.361
414.701
413.575
412.034
410.091
407.779
405.101
402.032
398.607
394.818
390.694
386.203
381.337
376.067
370.383
364.228
357.558
350.275
342.283
333.398
323.405
311.93
298.427
282.065
262.069
238.78
212.679
184.802
166.999
164.044
163.973
164.016
163.999
163.945
163.861
164.283
166.188
166.8
163.967
161.232
161.008
160.997
160.997
160.997
351.33
363.028
372.852
381.275
388.558
394.845
400.197
404.653
408.232
410.993
413.034
414.404
415.236
415.539
415.374
414.745
413.675
412.165
410.265
407.984
405.353
402.376
399.02
395.321
391.266
386.882
382.13
377
371.456
365.48
359.006
351.977
344.278
335.79
326.292
315.51
302.969
287.983
269.687
247.871
223.414
196.095
172.316
164.411
163.958
164.014
164.028
163.953
163.832
163.792
164.799
166.597
166.302
162.52
161.081
161
160.997
160.997
160.997
351.327
363.022
372.837
381.234
388.494
394.76
400.104
404.563
408.177
410.973
413.028
414.437
415.238
415.557
415.386
414.779
413.743
412.291
410.425
408.19
405.595
402.668
399.408
395.782
391.823
387.512
382.874
377.865
372.47
366.646
360.366
353.553
346.136
337.98
328.934
318.732
307.021
293.195
276.461
256.21
233.103
207.31
180.788
165.896
163.99
163.99
164.049
164.012
163.876
163.663
163.931
165.449
166.628
165.336
161.59
161.023
160.998
160.997
160.997
160.997
351.324
363.019
372.834
381.22
388.454
394.697
400.023
404.475
408.093
410.926
413.016
414.437
415.282
415.572
415.422
414.811
413.798
412.382
410.577
408.38
405.835
402.946
399.742
396.217
392.333
388.123
383.565
378.677
373.411
367.746
361.632
355.031
347.854
340.012
331.346
321.665
310.64
297.815
282.451
263.796
241.928
217.718
191.063
169.884
164.217
163.931
164.021
164.045
163.964
163.78
163.664
164.228
166.02
166.522
163.66
161.185
161.005
160.997
160.997
160.997
160.997
351.317
363.013
372.834
381.222
388.444
394.661
399.965
404.402
408.012
410.852
412.975
414.432
415.292
415.628
415.449
414.865
413.85
412.46
410.694
408.562
406.056
403.222
400.059
396.592
392.814
388.684
384.233
379.431
374.294
368.768
362.825
356.406
349.462
341.886
333.574
324.331
313.915
301.914
287.745
270.601
250.132
227.144
201.637
176.843
165.106
163.945
163.969
164.017
164.012
163.867
163.796
163.728
164.697
166.316
165.929
162.229
161.054
160.999
160.997
160.997
160.997
160.997
351.309
362.999
372.828
381.226
388.45
394.653
399.935
404.35
407.947
410.78
412.91
414.401
415.295
415.648
415.519
414.908
413.924
412.533
410.795
408.704
406.267
403.475
400.37
396.949
393.235
389.214
384.846
380.158
375.115
369.726
363.931
357.697
350.954
343.638
335.625
326.784
316.879
305.598
292.421
276.653
257.639
235.819
211.709
185.906
167.842
164.093
163.937
163.983
163.988
163.924
163.871
163.755
163.834
165.321
166.296
164.763
161.398
161.012
160.997
160.997
160.997
160.997
160.997
351.296
362.977
372.811
381.223
388.459
394.666
399.929
404.326
407.903
410.723
412.848
414.346
415.273
415.66
415.549
414.992
413.981
412.627
410.89
408.828
406.435
403.717
400.657
397.297
393.631
389.68
385.426
380.825
375.902
370.616
364.971
358.897
352.354
345.261
337.537
329.035
319.592
308.913
296.599
282.01
264.446
243.8
220.969
195.752
173.172
164.569
163.944
163.961
163.965
163.901
163.842
163.803
163.782
164.203
165.914
166.161
163
161.107
161
160.997
160.997
160.997
160.997
160.997
351.281
362.949
372.781
381.205
388.461
394.68
399.948
404.324
407.885
410.688
412.803
414.293
415.228
415.646
415.571
415.033
414.081
412.702
411.006
408.947
406.587
403.913
400.929
397.617
394.018
390.119
385.939
381.458
376.628
371.467
365.935
360.022
353.653
346.78
339.305
331.128
322.074
311.934
300.339
286.778
270.538
251.214
229.451
205.436
180.834
166.23
164.014
163.953
163.959
163.903
163.829
163.773
163.738
163.78
164.832
166.076
165.24
161.751
161.022
160.998
160.997
160.997
160.997
160.997
160.997
351.263
362.911
372.743
381.173
388.444
394.685
399.965
404.347
407.886
410.675
412.776
414.258
415.186
415.612
415.568
415.066
414.135
412.816
411.097
409.084
406.728
404.091
401.155
397.923
394.373
390.545
386.421
382.02
377.314
372.254
366.854
361.065
354.871
348.188
340.956
333.059
324.372
314.685
303.727
291.032
275.987
257.977
237.275
214.523
189.775
169.99
164.265
163.93
163.954
163.919
163.832
163.782
163.746
163.669
163.993
165.384
166.11
163.851
161.184
161.002
160.997
160.997
160.997
160.997
160.997
160.997
351.245
362.87
372.692
381.128
388.41
394.669
399.973
404.367
407.916
410.683
412.771
414.243
415.162
415.581
415.546
415.073
414.18
412.884
411.23
409.195
406.888
404.256
401.359
398.179
394.712
390.937
386.888
382.548
377.927
372.997
367.703
362.058
356
349.506
342.483
334.857
326.489
317.224
306.799
294.866
280.85
264.125
244.522
222.844
198.957
176.089
165.12
163.945
163.937
163.923
163.855
163.802
163.77
163.732
163.699
164.342
165.911
165.783
162.183
161.043
160.998
160.997
160.997
160.997
160.997
160.997
160.997
351.227
362.826
372.634
381.067
388.362
394.64
399.96
404.378
407.939
410.717
412.784
414.245
415.156
415.569
415.526
415.064
414.197
412.943
411.313
409.346
407.018
404.439
401.549
398.411
394.999
391.31
387.318
383.055
378.502
373.664
368.507
362.973
357.071
350.728
343.913
336.517
328.452
319.553
309.619
298.323
285.219
269.662
251.249
230.512
207.767
183.865
167.493
164.06
163.909
163.917
163.862
163.813
163.8
163.774
163.704
163.702
164.978
165.864
164.255
161.317
161.006
160.997
160.997
160.997
160.997
160.997
160.997
160.997
351.209
362.782
372.573
381
388.297
394.589
399.934
404.367
407.952
410.743
412.823
414.265
415.167
415.575
415.525
415.055
414.201
412.972
411.385
409.445
407.189
404.589
401.756
398.628
395.26
391.63
387.727
383.525
379.054
374.288
369.23
363.84
358.058
351.884
345.237
338.069
330.263
321.706
312.197
301.48
289.143
274.647
257.414
237.62
215.947
192.327
171.925
164.469
163.89
163.896
163.86
163.811
163.8
163.799
163.752
163.677
163.918
165.5
165.515
162.658
161.063
160.998
160.997
160.997
160.997
160.997
160.997
160.997
160.997
351.193
362.74
372.511
380.928
388.223
394.522
399.884
404.345
407.942
410.758
412.851
414.309
415.194
415.595
415.542
415.068
414.206
412.989
411.426
409.532
407.305
404.78
401.928
398.858
395.504
391.922
388.081
383.971
379.564
374.886
369.906
364.623
358.992
352.949
346.484
339.506
331.951
323.686
314.569
304.352
292.703
279.116
263.033
244.253
223.498
200.734
178.243
165.755
163.947
163.868
163.848
163.794
163.788
163.79
163.788
163.709
163.69
164.601
165.708
164.861
161.469
161.009
160.997
160.997
160.997
160.997
160.997
160.997
160.997
160.997
351.179
362.701
372.453
380.854
388.144
394.444
399.817
404.297
407.924
410.75
412.869
414.339
415.243
415.63
415.572
415.095
414.231
413.007
411.458
409.586
407.408
404.915
402.14
399.053
395.76
392.192
388.404
384.36
380.048
375.438
370.551
365.355
359.839
353.954
347.633
340.854
333.512
325.529
316.744
306.982
295.927
283.156
268.099
250.397
230.505
208.762
185.699
168.59
164.145
163.865
163.834
163.774
163.754
163.766
163.776
163.751
163.706
164.038
165.341
165.685
162.925
161.092
160.998
160.997
160.997
160.997
160.997
160.997
160.997
160.997
160.997
351.167
362.667
372.401
380.785
388.063
394.363
399.74
404.233
407.88
410.734
412.863
414.361
415.277
415.685
415.615
415.136
414.269
413.045
411.489
409.632
407.477
405.036
402.295
399.287
395.978
392.474
388.704
384.716
380.473
375.962
371.148
366.05
360.629
354.87
348.716
342.095
334.974
327.23
318.762
309.382
298.861
286.801
272.689
256.024
236.989
216.217
193.56
173.229
164.703
163.883
163.83
163.767
163.729
163.728
163.751
163.741
163.728
163.604
164.403
165.521
164.64
161.625
161.012
160.997
160.997
160.997
160.997
160.997
160.997
160.997
160.997
160.997
351.157
362.64
372.353
380.721
387.988
394.279
399.658
404.157
407.82
410.696
412.851
414.358
415.303
415.723
415.676
415.187
414.321
413.096
411.54
409.677
407.538
405.12
402.434
399.462
396.234
392.716
389.012
385.045
380.864
376.426
371.714
366.693
361.379
355.723
349.705
343.263
336.315
328.816
320.621
311.602
301.528
290.101
276.828
261.182
243.038
223.098
201.278
179.386
166.229
163.953
163.831
163.773
163.721
163.708
163.717
163.731
163.73
163.636
163.723
164.846
165.496
163.261
161.103
160.999
160.997
160.997
160.997
160.997
160.997
160.997
160.997
160.997
160.997
351.15
362.615
372.313
380.666
387.917
394.202
399.575
404.079
407.748
410.641
412.819
414.349
415.303
415.752
415.718
415.256
414.382
413.158
411.602
409.742
407.596
405.196
402.534
399.62
396.431
392.996
389.277
385.381
381.224
376.852
372.219
367.304
362.072
356.531
350.628
344.332
337.577
330.27
322.349
313.642
303.985
293.086
280.563
265.862
248.669
229.475
208.607
186.385
169.214
164.183
163.82
163.772
163.722
163.706
163.71
163.718
163.727
163.689
163.761
164.217
165.414
165.183
161.698
161.013
160.997
160.997
160.997
160.997
160.997
160.997
160.997
160.997
160.997
160.997
351.142
362.597
372.28
380.619
387.858
394.129
399.499
403.999
407.675
410.574
412.769
414.322
415.298
415.755
415.753
415.304
414.459
413.229
411.678
409.817
407.675
405.267
402.626
399.738
396.608
393.214
389.582
385.672
381.588
377.245
372.681
367.85
362.728
357.276
351.496
345.329
338.734
331.635
323.93
315.531
306.236
295.825
283.933
270.096
253.85
235.408
215.385
193.616
173.765
164.837
163.83
163.759
163.711
163.697
163.709
163.716
163.725
163.706
163.726
163.839
164.81
165.403
163.245
161.119
160.998
160.997
160.997
160.997
160.997
160.997
160.997
160.997
160.997
160.997
160.997
351.138
362.582
372.253
380.579
387.806
394.066
399.427
403.926
407.601
410.509
412.71
414.278
415.276
415.755
415.76
415.344
414.513
413.316
411.758
409.903
407.762
405.36
402.712
399.846
396.744
393.414
389.824
386.002
381.907
377.638
373.108
368.352
363.32
357.982
352.298
346.264
339.81
332.888
325.411
317.257
308.313
298.328
287.012
273.919
258.595
240.957
221.675
200.647
179.533
166.425
163.917
163.745
163.694
163.669
163.691
163.708
163.723
163.725
163.715
163.581
163.963
165.19
164.498
161.778
161.014
160.997
160.997
160.997
160.997
160.997
160.997
160.997
160.997
160.997
160.997
160.997
351.135
362.571
372.231
380.548
387.765
394.014
399.366
403.859
407.534
410.441
412.652
414.225
415.239
415.739
415.765
415.356
414.559
413.376
411.854
409.996
407.862
405.461
402.82
399.947
396.87
393.569
390.045
386.269
382.262
377.986
373.533
368.817
363.864
358.62
353.057
347.127
340.819
334.055
326.771
318.868
310.205
300.625
289.815
277.403
262.906
246.121
227.523
207.341
185.936
169.292
164.177
163.753
163.686
163.643
163.656
163.68
163.7
163.705
163.722
163.635
163.645
164.542
165.237
163.403
161.119
160.999
160.997
160.997
160.997
160.997
160.997
160.997
160.997
160.997
160.997
160.997
160.997
351.132
362.562
372.217
380.522
387.731
393.972
399.315
403.802
407.472
410.382
412.591
414.175
415.193
415.709
415.754
415.366
414.576
413.429
411.923
410.104
407.967
405.575
402.934
400.07
396.987
393.712
390.221
386.512
382.553
378.365
373.909
369.274
364.366
359.209
353.745
347.943
341.75
335.144
328.036
320.349
311.966
302.712
292.378
280.569
266.849
250.868
232.954
213.563
192.528
173.464
164.825
163.777
163.69
163.64
163.629
163.643
163.664
163.675
163.718
163.716
163.737
164.029
165.171
165.012
161.719
161.013
160.997
160.997
160.997
160.997
160.997
160.997
160.997
160.997
160.997
160.997
160.997
160.997
351.131
362.556
372.204
380.504
387.702
393.938
399.274
403.755
407.421
410.327
412.541
414.123
415.152
415.671
415.732
415.362
414.593
413.453
411.985
410.181
408.085
405.692
403.061
400.196
397.124
393.845
390.382
386.709
382.821
378.683
374.316
369.68
364.859
359.752
354.382
348.686
342.627
336.148
329.215
321.726
313.584
304.646
294.697
283.451
270.438
255.264
237.998
219.312
198.955
178.678
166.265
163.86
163.691
163.643
163.623
163.622
163.638
163.643
163.685
163.696
163.728
163.892
164.655
165.212
163.081
161.115
160.998
160.997
160.997
160.997
160.997
160.997
160.997
160.997
160.997
160.997
160.997
160.997
160.997
351.13
362.553
372.196
380.489
387.682
393.908
399.242
403.719
407.38
410.283
412.494
414.083
415.108
415.638
415.702
415.348
414.595
413.476
412.016
410.251
408.173
405.822
403.191
400.336
397.265
393.997
390.532
386.891
383.04
378.976
374.661
370.114
365.296
360.282
354.969
349.373
343.428
337.092
330.3
323.005
315.087
306.425
296.838
286.052
273.702
259.3
242.756
224.64
205.052
184.456
168.784
164.089
163.685
163.634
163.617
163.618
163.626
163.624
163.658
163.676
163.685
163.671
163.992
164.938
164.264
161.683
161.012
160.997
160.997
160.997
160.997
160.997
160.997
160.997
160.997
160.997
160.997
160.997
160.997
160.997
351.13
362.551
372.19
380.479
387.667
393.889
399.213
403.688
407.349
410.249
412.459
414.045
415.078
415.603
415.678
415.325
414.588
413.484
412.046
410.29
408.253
405.921
403.333
400.481
397.42
394.153
390.699
387.057
383.242
379.219
374.98
370.488
365.759
360.754
355.539
350.009
344.171
337.958
331.319
324.181
316.479
308.072
298.804
288.442
276.641
262.985
247.171
229.64
210.739
190.389
172.414
164.63
163.701
163.614
163.597
163.6
163.615
163.615
163.651
163.662
163.659
163.647
163.54
164.351
164.894
163.064
161.099
160.999
160.997
160.997
160.997
160.997
160.997
160.997
160.997
160.997
160.997
160.997
160.997
160.997
160.997
351.13
362.55
372.187
380.472
387.656
393.873
399.197
403.663
407.324
410.225
412.432
414.019
415.049
415.583
415.653
415.309
414.574
413.487
412.061
410.328
408.3
406.011
403.443
400.636
397.576
394.321
390.869
387.24
383.428
379.443
375.248
370.834
366.162
361.247
356.047
350.621
344.857
338.761
332.254
325.281
317.756
309.594
300.621
290.633
279.332
266.311
251.247
234.29
216.033
196.199
176.929
165.797
163.773
163.612
163.574
163.574
163.586
163.593
163.635
163.655
163.668
163.662
163.654
163.809
164.879
164.515
161.508
161.01
160.997
160.997
160.997
160.997
160.997
160.997
160.997
160.997
160.997
160.997
160.997
160.997
160.997
160.997
351.129
362.55
372.184
380.467
387.648
393.863
399.183
403.649
407.302
410.207
412.415
414
415.032
415.563
415.641
415.294
414.568
413.48
412.072
410.349
408.346
406.067
403.545
400.758
397.747
394.492
391.052
387.426
383.628
379.647
375.495
371.127
366.537
361.68
356.573
351.168
345.517
339.503
333.123
326.294
318.949
310.989
302.295
292.653
281.795
269.358
254.967
238.652
220.958
201.773
181.985
167.797
163.95
163.619
163.575
163.558
163.558
163.557
163.596
163.626
163.659
163.658
163.713
163.843
164.584
165.12
162.602
161.072
160.998
160.997
160.997
160.997
160.997
160.997
160.997
160.997
160.997
160.997
160.997
160.997
160.997
160.997
160.997
351.128
362.547
372.184
380.463
387.641
393.855
399.173
403.638
407.293
410.19
412.404
413.991
415.022
415.556
415.632
415.293
414.56
413.484
412.074
410.369
408.376
406.122
403.611
400.872
397.881
394.676
391.237
387.622
383.827
379.864
375.719
371.4
366.858
362.085
357.038
351.728
346.105
340.213
333.927
327.237
320.049
312.287
303.824
294.507
284.06
272.146
258.394
242.696
225.548
207.038
187.276
170.712
164.311
163.625
163.576
163.561
163.55
163.539
163.559
163.579
163.621
163.626
163.713
163.773
164.087
164.849
163.861
161.392
161.006
160.997
160.997
160.997
160.997
160.997
160.997
160.997
160.997
160.997
160.997
160.997
160.997
160.997
160.997
160.997
351.128
362.544
372.177
380.462
387.636
393.849
399.166
403.631
407.285
410.185
412.393
413.987
415.022
415.554
415.633
415.292
414.569
413.485
412.086
410.379
408.403
406.159
403.676
400.95
398.008
394.825
391.436
387.822
384.039
380.081
375.956
371.646
367.156
362.436
357.474
352.227
346.703
340.848
334.692
328.108
321.074
313.484
305.243
296.195
286.129
274.705
261.543
246.448
229.794
211.921
192.542
174.453
165.11
163.652
163.559
163.553
163.555
163.543
163.547
163.548
163.586
163.582
163.658
163.613
163.667
164.315
164.53
162.377
161.048
160.998
160.997
160.997
160.997
160.997
160.997
160.997
160.997
160.997
160.997
160.997
160.997
160.997
160.997
160.997
160.997
351.127
362.542
372.172
380.452
387.635
393.842
399.162
403.627
407.281
410.182
412.394
413.982
415.025
415.563
415.641
415.304
414.579
413.504
412.096
410.4
408.423
406.197
403.722
401.024
398.097
394.964
391.598
388.035
384.253
380.308
376.188
371.902
367.426
362.761
357.856
352.696
347.238
341.485