/*--------------------------------*- C++ -*----------------------------------*\
| =========                 |                                                 |
| \\      /  F ield         | OpenFOAM: The Open Source CFD Toolbox           |
|  \\    /   O peration     | Version:  v2012                                 |
|   \\  /    A nd           | Website:  www.openfoam.com                      |
|    \\/     M anipulation  |                                                 |
\*---------------------------------------------------------------------------*/
FoamFile
{
    version     2.0;
    format      ascii;
    class       volScalarField;
    location    "0";
    object      Fs;
}
// * * * * * * * * * * * * * * * * * * * * * * * * * * * * * * * * * * * * * //

dimensions      [0 0 0 0 0 0 0];


internalField   nonuniform List<scalar> 
39402
(
0
0.00393019
0
2.94267e-05
0.0850029
0
4.71045e-05
4.02565e-05
0.080667
0
4.49714e-05
4.67522e-05
5.58559e-05
0.0303243
0
4.5866e-05
4.30185e-05
4.58688e-05
7.44735e-05
0.00844382
0
4.67496e-05
4.44632e-05
4.16729e-05
4.39502e-05
8.11427e-05
0.00162354
2.94209e-15
4.52969e-05
4.58284e-05
4.35906e-05
4.06048e-05
4.09433e-05
7.15779e-05
0.000192936
6.4445e-10
4.48682e-05
4.48795e-05
4.53218e-05
4.2713e-05
3.999e-05
3.71379e-05
5.57146e-05
1.66166e-05
1.35209e-06
4.4697e-05
4.62063e-05
4.42736e-05
4.48495e-05
4.18265e-05
3.99172e-05
3.34521e-05
3.81405e-05
9.64771e-07
0.000499377
4.52976e-05
4.56328e-05
4.61828e-05
4.40345e-05
4.42969e-05
4.09744e-05
3.97717e-05
3.21152e-05
2.29785e-05
3.44298e-08
0.0479625
4.54077e-05
4.60328e-05
4.58843e-05
4.58992e-05
4.40524e-05
4.3709e-05
4.01899e-05
3.83321e-05
3.28472e-05
1.20058e-05
7.10944e-10
0.592545
4.51719e-05
4.53158e-05
4.56707e-05
4.58878e-05
4.57289e-05
4.39304e-05
4.31687e-05
3.94289e-05
3.45463e-05
3.4715e-05
5.55589e-06
9.34808e-12
0.950898
4.5102e-05
4.54281e-05
4.51695e-05
4.50548e-05
4.60318e-05
4.54217e-05
4.36631e-05
4.27326e-05
3.86575e-05
3.1632e-05
3.72705e-05
2.33609e-06
4.2949e-13
0.993148
4.5454e-05
4.52565e-05
4.55357e-05
4.50772e-05
4.47308e-05
4.62536e-05
4.5308e-05
4.32386e-05
4.24063e-05
3.8048e-05
3.02462e-05
3.87624e-05
8.22367e-07
1.7486e-14
0.998743
4.52506e-05
4.54469e-05
4.52507e-05
4.55924e-05
4.4947e-05
4.44142e-05
4.63327e-05
4.55293e-05
4.3143e-05
4.20728e-05
3.7674e-05
2.71617e-05
3.54694e-05
2.55102e-07
5.55112e-16
0.999755
4.46858e-05
4.5411e-05
4.53768e-05
4.52144e-05
4.56149e-05
4.48068e-05
4.41652e-05
4.62516e-05
4.54997e-05
4.30705e-05
4.19019e-05
3.63551e-05
2.68794e-05
2.74004e-05
7.07552e-08
0
0.999979
4.58808e-05
4.55748e-05
4.54517e-05
4.53531e-05
4.51746e-05
4.55874e-05
4.46779e-05
4.39473e-05
4.60376e-05
4.55164e-05
4.2946e-05
4.181e-05
3.47565e-05
2.59646e-05
1.86075e-05
1.69944e-08
0
1
4.62541e-05
4.52297e-05
4.54645e-05
4.54797e-05
4.53054e-05
4.51197e-05
4.54819e-05
4.45936e-05
4.37156e-05
4.57297e-05
4.56898e-05
4.30202e-05
4.103e-05
3.35202e-05
2.00985e-05
1.01329e-05
3.8922e-09
0
1
4.63316e-05
4.53537e-05
4.52519e-05
4.53263e-05
4.54943e-05
4.5242e-05
4.50543e-05
4.5318e-05
4.44986e-05
4.3413e-05
4.54604e-05
4.50515e-05
4.30993e-05
3.98898e-05
3.128e-05
1.5748e-05
4.50953e-06
8.64322e-10
0
1
4.42359e-05
4.50205e-05
4.5584e-05
4.52946e-05
4.53042e-05
4.54927e-05
4.5141e-05
4.49392e-05
4.5154e-05
4.42949e-05
4.30835e-05
4.52415e-05
4.4211e-05
4.2281e-05
3.85448e-05
2.80559e-05
1.1444e-05
1.54966e-06
1.7786e-10
0
1
4.41633e-05
4.50593e-05
4.51356e-05
4.57676e-05
4.52453e-05
4.52056e-05
4.54755e-05
4.50329e-05
4.47315e-05
4.49667e-05
4.39908e-05
4.28082e-05
4.49336e-05
4.38708e-05
4.10488e-05
3.64567e-05
2.40018e-05
7.6633e-06
3.97677e-07
3.17097e-11
0
1
4.61174e-05
4.53346e-05
4.51941e-05
4.56837e-05
4.56388e-05
4.5228e-05
4.51145e-05
4.5407e-05
4.49382e-05
4.44951e-05
4.47236e-05
4.36375e-05
4.25259e-05
4.44466e-05
4.33989e-05
3.94787e-05
3.351e-05
1.93013e-05
4.47179e-06
7.86584e-08
7.96707e-12
0
1
4.64831e-05
4.5672e-05
4.53477e-05
4.51613e-05
4.58033e-05
4.56357e-05
4.5173e-05
4.5041e-05
4.52613e-05
4.47827e-05
4.42404e-05
4.44252e-05
4.32335e-05
4.2115e-05
4.37974e-05
4.25476e-05
3.73602e-05
2.95613e-05
1.42726e-05
2.15835e-06
1.37683e-08
2.75868e-12
0
1
4.50105e-05
4.60284e-05
4.56129e-05
4.5193e-05
4.51523e-05
4.5823e-05
4.55908e-05
4.50597e-05
4.49623e-05
4.5116e-05
4.45222e-05
4.39271e-05
4.4071e-05
4.2729e-05
4.1543e-05
4.29156e-05
4.11898e-05
3.45424e-05
2.47398e-05
9.433e-06
7.61358e-07
2.70688e-09
1.32672e-12
0
1
4.47366e-05
4.52717e-05
4.57742e-05
4.56029e-05
4.51558e-05
4.51087e-05
4.58224e-05
4.55435e-05
4.48772e-05
4.4824e-05
4.49296e-05
4.42132e-05
4.35817e-05
4.36138e-05
4.21001e-05
4.0785e-05
4.17254e-05
3.92476e-05
3.09109e-05
1.92544e-05
5.54642e-06
1.65471e-07
8.51294e-10
3.67706e-13
3.60822e-15
1
4.61212e-05
4.5089e-05
4.53457e-05
4.58056e-05
4.55683e-05
4.50649e-05
4.50804e-05
4.57406e-05
4.54792e-05
4.47019e-05
4.45988e-05
4.46825e-05
4.38998e-05
4.31454e-05
4.30367e-05
4.13412e-05
3.97969e-05
4.0153e-05
3.66152e-05
2.64258e-05
1.35794e-05
2.96352e-06
1.90998e-08
5.73361e-10
4.83502e-14
4.28854e-11
1
4.65575e-05
4.53321e-05
4.51918e-05
4.53488e-05
4.58275e-05
4.55446e-05
4.49751e-05
4.5038e-05
4.56177e-05
4.53407e-05
4.44986e-05
4.43309e-05
4.44336e-05
4.34971e-05
4.25952e-05
4.23389e-05
4.04138e-05
3.85296e-05
3.80992e-05
3.31782e-05
2.1213e-05
8.36519e-06
1.42354e-06
1.26635e-09
7.60772e-10
4.82947e-15
2.61736e-07
1
4.6383e-05
4.59538e-05
4.49293e-05
4.51846e-05
4.53605e-05
4.58275e-05
4.55101e-05
4.49059e-05
4.49733e-05
4.5522e-05
4.51172e-05
4.42386e-05
4.40664e-05
4.40981e-05
4.29807e-05
4.19419e-05
4.14885e-05
3.9281e-05
3.69189e-05
3.54698e-05
2.89245e-05
1.56251e-05
4.37192e-06
5.21615e-07
7.30697e-11
1.06047e-09
3.88578e-16
0.111783
1
4.49518e-05
4.55798e-05
4.57986e-05
4.5388e-05
4.51981e-05
4.53546e-05
4.58217e-05
4.54581e-05
4.48216e-05
4.48814e-05
4.53785e-05
4.48454e-05
4.39548e-05
4.37374e-05
4.36548e-05
4.23759e-05
4.11568e-05
4.04659e-05
3.78973e-05
3.48993e-05
3.2187e-05
2.38878e-05
1.02583e-05
1.95411e-06
1.04339e-07
1.01065e-11
6.0495e-10
0
0.999949
1
4.4003e-05
4.51806e-05
4.55064e-05
4.58495e-05
4.56253e-05
4.51882e-05
4.5344e-05
4.57913e-05
4.53904e-05
4.47107e-05
4.47635e-05
4.51699e-05
4.45491e-05
4.36042e-05
4.33163e-05
4.31329e-05
4.16554e-05
4.02196e-05
3.92301e-05
3.62071e-05
3.23909e-05
2.82066e-05
1.83427e-05
5.80743e-06
7.96937e-07
8.33233e-09
1.50933e-11
1.46207e-10
0
0.999998
1
4.35758e-05
4.46719e-05
4.52466e-05
4.55776e-05
4.58748e-05
4.5638e-05
4.5172e-05
4.53127e-05
4.5734e-05
4.53046e-05
4.45894e-05
4.46111e-05
4.49356e-05
4.4198e-05
4.31701e-05
4.28219e-05
4.25037e-05
4.08009e-05
3.91012e-05
3.77468e-05
3.41567e-05
2.93496e-05
2.35539e-05
1.27352e-05
2.74658e-06
2.88222e-07
3.04992e-10
3.81062e-10
8.37252e-12
0
0.99999
1
4.41679e-05
4.45548e-05
4.48902e-05
4.52308e-05
4.56161e-05
4.59368e-05
4.56363e-05
4.51344e-05
4.52573e-05
4.56436e-05
4.51879e-05
4.44451e-05
4.44342e-05
4.46614e-05
4.37678e-05
4.26552e-05
4.22327e-05
4.17537e-05
3.979e-05
3.77759e-05
3.59671e-05
3.16785e-05
2.57279e-05
1.84267e-05
7.73664e-06
1.0734e-06
6.36616e-08
1.41562e-11
3.54013e-08
4.23384e-13
0
0.999989
1
4.47539e-05
4.49354e-05
4.4878e-05
4.48832e-05
4.52313e-05
4.56281e-05
4.59541e-05
4.56009e-05
4.5086e-05
4.51755e-05
4.55429e-05
4.50197e-05
4.42681e-05
4.42346e-05
4.43174e-05
4.32662e-05
4.20593e-05
4.15345e-05
4.08654e-05
3.85965e-05
3.62032e-05
3.38358e-05
2.87279e-05
2.15787e-05
1.31727e-05
3.97078e-06
3.7685e-07
4.76786e-09
6.62742e-12
8.24123e-07
2.88103e-14
7.77156e-16
0.999999
1
4.63046e-05
4.58141e-05
4.51387e-05
4.48797e-05
4.48967e-05
4.52228e-05
4.56414e-05
4.59306e-05
4.55284e-05
4.50266e-05
4.50776e-05
4.53899e-05
4.48125e-05
4.40772e-05
4.39776e-05
4.39023e-05
4.26875e-05
4.13619e-05
4.0714e-05
3.98129e-05
3.7193e-05
3.43496e-05
3.13096e-05
2.5267e-05
1.70296e-05
8.33637e-06
1.68503e-06
1.20674e-07
1.21364e-10
1.87349e-10
1.80672e-06
2.27596e-15
4.40203e-14
1
1
4.67098e-05
4.56987e-05
4.57138e-05
4.51149e-05
4.48931e-05
4.48925e-05
4.52063e-05
4.56373e-05
4.58939e-05
4.54326e-05
4.49227e-05
4.49533e-05
4.51896e-05
4.45927e-05
4.38337e-05
4.36541e-05
4.3418e-05
4.20203e-05
4.05585e-05
3.97531e-05
3.85759e-05
3.55474e-05
3.21667e-05
2.83485e-05
2.13247e-05
1.23655e-05
4.49798e-06
6.04957e-07
2.36398e-08
3.67184e-12
7.63195e-08
1.54906e-06
4.44089e-16
5.00372e-12
1
0.999962
4.64259e-05
4.59549e-05
4.56109e-05
4.53223e-05
4.50936e-05
4.48914e-05
4.48823e-05
4.51778e-05
4.56089e-05
4.58253e-05
4.53222e-05
4.47886e-05
4.47916e-05
4.49836e-05
4.4319e-05
4.35207e-05
4.32696e-05
4.28484e-05
4.12575e-05
3.96297e-05
3.86299e-05
3.71252e-05
3.36288e-05
2.96284e-05
2.49156e-05
1.7023e-05
8.01917e-06
1.99387e-06
2.0125e-07
1.45525e-09
1.88999e-12
8.90603e-06
8.31689e-07
3.88578e-16
9.22358e-09
1
0.872811
4.52894e-05
4.58777e-05
4.57578e-05
4.55856e-05
4.52557e-05
4.50548e-05
4.48801e-05
4.48555e-05
4.51309e-05
4.55503e-05
4.57255e-05
4.51837e-05
4.46345e-05
4.46227e-05
4.47177e-05
4.39729e-05
4.31525e-05
4.28094e-05
4.21908e-05
4.03839e-05
3.85605e-05
3.73214e-05
3.54311e-05
3.1396e-05
2.67025e-05
2.10502e-05
1.25747e-05
4.47306e-06
7.18989e-07
5.40122e-08
3.84086e-11
1.09407e-10
6.15025e-05
7.88122e-08
6.10623e-16
2.1428e-06
1
0.0657791
4.49719e-05
4.58254e-05
4.57259e-05
4.57972e-05
4.55645e-05
4.52331e-05
4.50203e-05
4.48648e-05
4.48168e-05
4.50675e-05
4.54671e-05
4.55929e-05
4.50056e-05
4.44697e-05
4.44119e-05
4.43852e-05
4.35766e-05
4.27138e-05
4.22648e-05
4.14293e-05
3.93865e-05
3.73347e-05
3.5804e-05
3.34588e-05
2.88239e-05
2.33679e-05
1.68567e-05
8.37227e-06
2.07803e-06
2.29044e-07
6.46336e-09
2.70811e-12
6.76531e-08
5.64222e-05
2.14666e-09
8.32667e-16
0.000728694
1
0.00596348
4.4903e-05
4.52133e-05
4.57489e-05
4.57667e-05
4.59284e-05
4.55544e-05
4.52165e-05
4.49805e-05
4.48453e-05
4.47919e-05
4.49976e-05
4.53549e-05
4.54242e-05
4.48109e-05
4.42702e-05
4.41431e-05
4.40064e-05
4.31125e-05
4.21946e-05
4.16245e-05
4.05516e-05
3.82535e-05
3.59269e-05
3.40402e-05
3.11706e-05
2.58782e-05
1.96764e-05
1.25377e-05
4.85159e-06
7.86573e-07
6.97283e-08
2.55933e-10
1.11048e-11
6.63131e-06
3.09438e-05
1.11599e-10
1.4988e-15
0.0121541
1
0.00128272
4.5094e-05
4.51467e-05
4.52784e-05
4.55786e-05
4.59165e-05
4.59455e-05
4.55355e-05
4.52018e-05
4.49331e-05
4.47891e-05
4.47608e-05
4.49064e-05
4.52081e-05
4.52222e-05
4.45839e-05
4.40147e-05
4.38303e-05
4.3564e-05
4.25742e-05
4.15865e-05
4.08777e-05
3.95433e-05
3.69626e-05
3.43176e-05
3.2008e-05
2.85506e-05
2.25721e-05
1.572e-05
8.44367e-06
2.36539e-06
2.60193e-07
1.29745e-08
1.03065e-11
3.73788e-09
4.41008e-05
1.22687e-05
6.97797e-12
1.64424e-13
0.321358
1
0.00050754
4.54296e-05
4.525e-05
4.52035e-05
4.52569e-05
4.55398e-05
4.59588e-05
4.59182e-05
4.5517e-05
4.51907e-05
4.489e-05
4.47131e-05
4.46882e-05
4.47827e-05
4.50354e-05
4.49843e-05
4.43058e-05
4.37223e-05
4.34642e-05
4.30564e-05
4.1956e-05
4.08739e-05
4.00056e-05
3.83899e-05
3.54958e-05
3.24873e-05
2.96907e-05
2.55708e-05
1.89515e-05
1.1692e-05
4.97831e-06
9.48137e-07
8.14863e-08
9.00722e-10
5.23681e-12
1.72003e-06
5.66502e-05
3.62075e-06
2.80942e-13
3.12644e-11
0.966336
1
0.000263732
4.56027e-05
4.54747e-05
4.5291e-05
4.51755e-05
4.52426e-05
4.55081e-05
4.59477e-05
4.5902e-05
4.54843e-05
4.5139e-05
4.4845e-05
4.46547e-05
4.4587e-05
4.46441e-05
4.48354e-05
4.46991e-05
4.39874e-05
4.3378e-05
4.30368e-05
4.24755e-05
4.12459e-05
4.00522e-05
3.89928e-05
3.70709e-05
3.38342e-05
3.04018e-05
2.70535e-05
2.22431e-05
1.50986e-05
7.89216e-06
2.48302e-06
3.26693e-07
1.87795e-08
3.38068e-11
3.10393e-10
6.15969e-05
6.12743e-05
9.23246e-07
1.40998e-14
1.6296e-08
0.999924
1
0.000160758
4.55016e-05
4.54596e-05
4.54943e-05
4.52857e-05
4.51594e-05
4.5221e-05
4.54627e-05
4.59549e-05
4.58434e-05
4.54367e-05
4.50482e-05
4.47735e-05
4.4582e-05
4.44771e-05
4.44867e-05
4.45913e-05
4.43643e-05
4.36187e-05
4.29782e-05
4.25461e-05
4.18131e-05
4.0437e-05
3.91025e-05
3.78227e-05
3.55667e-05
3.19517e-05
2.80521e-05
2.40822e-05
1.8601e-05
1.1209e-05
4.68094e-06
1.02264e-06
1.0582e-07
1.8664e-09
6.24939e-12
2.11236e-07
0.000143196
6.18819e-05
1.86563e-07
3.44169e-15
2.38977e-05
1
0.999986
0.000108163
4.54983e-05
4.53625e-05
4.54323e-05
4.55333e-05
4.5289e-05
4.51343e-05
4.52073e-05
4.54281e-05
4.5943e-05
4.58023e-05
4.53814e-05
4.49676e-05
4.46758e-05
4.44897e-05
4.43574e-05
4.4292e-05
4.43044e-05
4.39818e-05
4.31984e-05
4.25157e-05
4.19802e-05
4.1061e-05
3.95161e-05
3.80109e-05
3.64788e-05
3.38628e-05
2.98193e-05
2.54115e-05
2.08088e-05
1.47603e-05
7.56253e-06
2.3617e-06
3.6233e-07
2.7052e-08
9.46544e-11
8.38699e-11
1.55491e-05
0.000143104
3.8888e-05
5.20877e-09
5.44009e-15
9.78603e-05
1
0.973662
7.84261e-05
4.5431e-05
4.53935e-05
4.54975e-05
4.54942e-05
4.55691e-05
4.52769e-05
4.51023e-05
4.51877e-05
4.54033e-05
4.59281e-05
4.57829e-05
4.5299e-05
4.48706e-05
4.45666e-05
4.43941e-05
4.42049e-05
4.40567e-05
4.39739e-05
4.35471e-05
4.27187e-05
4.19833e-05
4.13329e-05
4.02084e-05
3.84731e-05
3.67594e-05
3.49287e-05
3.19202e-05
2.74395e-05
2.24875e-05
1.72746e-05
1.09079e-05
4.49819e-06
9.93042e-07
1.19e-07
3.4138e-09
1.33861e-11
2.84443e-08
5.46334e-05
0.000130936
1.22966e-05
4.09957e-11
9.21985e-13
0.00248648
1
0.0749618
6.28621e-05
4.53951e-05
4.53885e-05
4.53384e-05
4.55064e-05
4.55421e-05
4.56012e-05
4.52563e-05
4.50585e-05
4.51393e-05
4.53861e-05
4.58697e-05
4.5747e-05
4.51862e-05
4.47441e-05
4.44537e-05
4.42669e-05
4.40173e-05
4.37846e-05
4.3594e-05
4.30571e-05
4.21733e-05
4.13742e-05
4.05949e-05
3.92459e-05
3.72896e-05
3.53282e-05
3.31695e-05
2.97232e-05
2.47761e-05
1.93036e-05
1.35907e-05
7.32064e-06
2.27983e-06
3.61742e-07
3.18195e-08
2.27418e-10
1.00976e-10
3.26084e-06
6.30571e-05
0.000117121
8.6156e-06
6.14231e-13
1.32732e-10
0.191029
1
0.00294662
5.47348e-05
4.52582e-05
4.54234e-05
4.53239e-05
4.53034e-05
4.54471e-05
4.55798e-05
4.56298e-05
4.52369e-05
4.5013e-05
4.50645e-05
4.53741e-05
4.57939e-05
4.56585e-05
4.50559e-05
4.46099e-05
4.43137e-05
4.41039e-05
4.37963e-05
4.34711e-05
4.31641e-05
4.25084e-05
4.15554e-05
4.06797e-05
3.97513e-05
3.81637e-05
3.59592e-05
3.37038e-05
3.116e-05
2.72582e-05
2.18426e-05
1.59016e-05
9.93985e-06
4.32122e-06
9.76111e-07
1.22897e-07
4.56553e-09
3.09474e-11
3.12089e-08
2.08721e-05
5.87889e-05
9.86648e-05
3.54921e-06
1.00808e-13
3.31205e-08
0.990794
1
0.000542919
5.05465e-05
4.53134e-05
4.53455e-05
4.54027e-05
4.52864e-05
4.52616e-05
4.54503e-05
4.56132e-05
4.56471e-05
4.52243e-05
4.49616e-05
4.49709e-05
4.53442e-05
4.57261e-05
4.5533e-05
4.49113e-05
4.44443e-05
4.41365e-05
4.39111e-05
4.35358e-05
4.3111e-05
4.26788e-05
4.1894e-05
4.08581e-05
3.98892e-05
3.87921e-05
3.69435e-05
3.44501e-05
3.1864e-05
2.88895e-05
2.45042e-05
1.86505e-05
1.24056e-05
6.59532e-06
2.18664e-06
3.64854e-07
3.42803e-08
3.63774e-10
1.46239e-10
4.40598e-06
3.79896e-05
4.78807e-05
5.03698e-05
2.17364e-07
2.93654e-14
3.27949e-05
1
0.999992
0.000190375
4.78917e-05
4.51537e-05
4.55022e-05
4.5387e-05
4.53936e-05
4.52445e-05
4.52327e-05
4.54414e-05
4.56235e-05
4.56368e-05
4.52067e-05
4.49001e-05
4.48767e-05
4.52703e-05
4.56486e-05
4.53929e-05
4.47348e-05
4.42418e-05
4.39336e-05
4.36802e-05
4.32296e-05
4.26971e-05
4.21332e-05
4.1208e-05
4.00733e-05
3.89915e-05
3.76985e-05
3.55617e-05
3.27561e-05
2.97996e-05
2.63455e-05
2.14817e-05
1.52723e-05
8.98278e-06
3.84412e-06
9.36371e-07
1.2988e-07
5.42462e-09
5.74211e-11
2.84472e-08
4.29683e-05
4.63841e-05
3.36301e-05
2.24254e-05
2.14782e-09
5.34572e-13
0.00019047
1
0.938645
9.6669e-05
4.66049e-05
4.51225e-05
4.53659e-05
4.56254e-05
4.54151e-05
4.5378e-05
4.52144e-05
4.51915e-05
4.54463e-05
4.56327e-05
4.56041e-05
4.51875e-05
4.48297e-05
4.47961e-05
4.5174e-05
4.55489e-05
4.52269e-05
4.45228e-05
4.40102e-05
4.36948e-05
4.34076e-05
4.28727e-05
4.22242e-05
4.15219e-05
4.04452e-05
3.91913e-05
3.79715e-05
3.64762e-05
3.402e-05
3.08645e-05
2.74818e-05
2.35344e-05
1.82064e-05
1.18122e-05
5.89336e-06
1.92426e-06
3.60939e-07
3.63969e-08
5.38855e-10
2.36981e-10
3.38773e-06
7.59997e-05
6.69348e-05
3.14576e-05
1.25287e-05
1.87052e-11
1.0829e-10
0.00716042
1
0.0241705
6.53605e-05
4.59728e-05
4.50796e-05
4.53285e-05
4.54848e-05
4.56951e-05
4.54466e-05
4.53615e-05
4.51771e-05
4.51516e-05
4.54446e-05
4.56469e-05
4.55603e-05
4.51549e-05
4.47422e-05
4.47119e-05
4.50663e-05
4.5421e-05
4.50282e-05
4.4281e-05
4.37409e-05
4.34164e-05
4.3086e-05
4.24624e-05
4.16891e-05
4.08381e-05
3.95971e-05
3.82061e-05
3.68224e-05
3.50747e-05
3.22863e-05
2.87449e-05
2.49092e-05
2.04442e-05
1.47535e-05
8.45753e-06
3.39721e-06
8.23032e-07
1.31601e-07
6.20186e-09
1.14516e-10
3.01895e-08
2.73838e-05
8.57829e-05
9.64044e-05
3.83622e-05
6.89787e-06
1.3104e-12
4.48652e-08
0.96301
1
0.000843349
5.39154e-05
4.56335e-05
4.50684e-05
4.52374e-05
4.54085e-05
4.56347e-05
4.57651e-05
4.55873e-05
4.53446e-05
4.51418e-05
4.51045e-05
4.54279e-05
4.56515e-05
4.55049e-05
4.50912e-05
4.46406e-05
4.46067e-05
4.49435e-05
4.52622e-05
4.48007e-05
4.40045e-05
4.3436e-05
4.3094e-05
4.27128e-05
4.19889e-05
4.10822e-05
4.00745e-05
3.86544e-05
3.70891e-05
3.55138e-05
3.3494e-05
3.03416e-05
2.63914e-05
2.20826e-05
1.71432e-05
1.12511e-05
5.46119e-06
1.6827e-06
3.24669e-07
3.66423e-08
7.2824e-10
5.86779e-10
2.61417e-06
4.50014e-05
7.64801e-05
0.000134225
3.33187e-05
2.1372e-07
2.90545e-13
1.98424e-05
0.999999
0.999985
0.000185366
4.89021e-05
4.54925e-05
4.52291e-05
4.51404e-05
4.52708e-05
4.54455e-05
4.56468e-05
4.58443e-05
4.55995e-05
4.53236e-05
4.51063e-05
4.50441e-05
4.53684e-05
4.56456e-05
4.54681e-05
4.49987e-05
4.45303e-05
4.44772e-05
4.47949e-05
4.50725e-05
4.454e-05
4.36911e-05
4.30885e-05
4.27214e-05
4.22783e-05
4.1446e-05
4.03975e-05
3.92222e-05
3.76067e-05
3.58507e-05
3.40431e-05
3.17245e-05
2.81717e-05
2.37997e-05
1.90273e-05
1.37005e-05
7.90452e-06
3.08486e-06
7.16526e-07
1.22133e-07
6.21221e-09
2.32691e-10
7.14957e-08
1.84661e-05
4.42703e-05
7.04781e-05
0.000148321
1.32549e-05
1.3964e-09
5.8723e-12
0.000444223
1
0.796708
8.49922e-05
4.67949e-05
4.54334e-05
4.53258e-05
4.52312e-05
4.51005e-05
4.52498e-05
4.55844e-05
4.5449e-05
4.59018e-05
4.53294e-05
4.52988e-05
4.50574e-05
4.49983e-05
4.52876e-05
4.56171e-05
4.54319e-05
4.48942e-05
4.44045e-05
4.43243e-05
4.46174e-05
4.48506e-05
4.42409e-05
4.33342e-05
4.26948e-05
4.22945e-05
4.17802e-05
4.08246e-05
3.96244e-05
3.82749e-05
3.64493e-05
3.44698e-05
3.23886e-05
2.97249e-05
2.57644e-05
2.09736e-05
1.57888e-05
1.02697e-05
4.97903e-06
1.50665e-06
2.83491e-07
3.34827e-08
8.6937e-10
1.80856e-09
4.75211e-06
2.95409e-05
3.53905e-05
6.55035e-05
0.000131439
1.06096e-05
3.93149e-11
1.82658e-09
0.0697004
1
0.00600973
5.85701e-05
4.59098e-05
4.54101e-05
4.54808e-05
4.53099e-05
4.51661e-05
4.50423e-05
4.52531e-05
4.56442e-05
4.54683e-05
4.59345e-05
4.53142e-05
4.5272e-05
4.4995e-05
4.49472e-05
4.52022e-05
4.55599e-05
4.53625e-05
4.4774e-05
4.42522e-05
4.41467e-05
4.441e-05
4.45932e-05
4.39018e-05
4.29351e-05
4.22486e-05
4.18078e-05
4.1209e-05
4.01167e-05
3.87542e-05
3.72207e-05
3.51564e-05
3.29058e-05
3.05259e-05
2.7494e-05
2.31137e-05
1.79327e-05
1.24597e-05
7.06829e-06
2.7483e-06
6.47737e-07
1.07985e-07
5.5612e-09
4.24877e-10
2.00963e-07
2.73392e-05
3.92986e-05
3.56189e-05
6.38787e-05
0.000163994
6.91889e-06
1.19615e-12
3.8483e-07
0.999353
1
0.000310995
5.00628e-05
4.55684e-05
4.54017e-05
4.54437e-05
4.52297e-05
4.52459e-05
4.51002e-05
4.49772e-05
4.52435e-05
4.53775e-05
4.56059e-05
4.5977e-05
4.54301e-05
4.52361e-05
4.49235e-05
4.48651e-05
4.51116e-05
4.54778e-05
4.52683e-05
4.4634e-05
4.40754e-05
4.39429e-05
4.41721e-05
4.42966e-05
4.35208e-05
4.24852e-05
4.17471e-05
4.12525e-05
4.05549e-05
3.93135e-05
3.77775e-05
3.60324e-05
3.37183e-05
3.11801e-05
2.84502e-05
2.50022e-05
2.02153e-05
1.47226e-05
9.18685e-06
4.35109e-06
1.31805e-06
2.64416e-07
3.01907e-08
9.87507e-10
4.5792e-09
9.01151e-06
4.30526e-05
5.2595e-05
4.26655e-05
6.15412e-05
9.2246e-05
6.97522e-08
6.83154e-12
6.91719e-05
1
0.982338
9.7436e-05
4.70409e-05
4.54504e-05
4.5399e-05
4.54981e-05
4.5365e-05
4.52443e-05
4.51863e-05
4.50296e-05
4.49068e-05
4.52309e-05
4.51962e-05
4.56436e-05
4.60159e-05
4.54113e-05
4.51766e-05
4.48479e-05
4.47686e-05
4.50248e-05
4.53708e-05
4.51574e-05
4.44718e-05
4.38775e-05
4.37068e-05
4.39e-05
4.39607e-05
4.30931e-05
4.19811e-05
4.11858e-05
4.06215e-05
3.98145e-05
3.84003e-05
3.66786e-05
3.47146e-05
3.2123e-05
2.92483e-05
2.61379e-05
2.22611e-05
1.71098e-05
1.14529e-05
6.18565e-06
2.34618e-06
5.77771e-07
9.80623e-08
5.41164e-09
7.85424e-10
4.00664e-07
3.1235e-05
5.17109e-05
5.8194e-05
4.17617e-05
3.47694e-05
2.10796e-05
7.17482e-10
6.50279e-10
0.00691812
1
0.0174644
5.87843e-05
4.59455e-05
4.54121e-05
4.53982e-05
4.56318e-05
4.55211e-05
4.53995e-05
4.52677e-05
4.51392e-05
4.49636e-05
4.48362e-05
4.52141e-05
4.53116e-05
4.56673e-05
4.60332e-05
4.54078e-05
4.51044e-05
4.4758e-05
4.46603e-05
4.49308e-05
4.52492e-05
4.50238e-05
4.42847e-05
4.36491e-05
4.34369e-05
4.35871e-05
4.35803e-05
4.26161e-05
4.14208e-05
4.05556e-05
3.99077e-05
3.89651e-05
3.73743e-05
3.54483e-05
3.3241e-05
3.03425e-05
2.71167e-05
2.35913e-05
1.92951e-05
1.38547e-05
8.27602e-06
3.70793e-06
1.11131e-06
2.41635e-07
2.59884e-08
1.23507e-09
1.39614e-08
9.16296e-06
3.59145e-05
5.00481e-05
6.08709e-05
4.36312e-05
2.47407e-05
1.58736e-06
2.6128e-11
2.19853e-07
0.99681
1
0.000322767
4.91396e-05
4.55577e-05
4.54013e-05
4.53979e-05
4.55794e-05
4.56016e-05
4.55708e-05
4.53909e-05
4.52343e-05
4.50865e-05
4.49062e-05
4.47601e-05
4.51642e-05
4.53987e-05
4.56777e-05
4.60322e-05
4.53871e-05
4.50247e-05
4.46527e-05
4.45413e-05
4.48064e-05
4.51056e-05
4.48667e-05
4.40731e-05
4.33883e-05
4.31314e-05
4.32291e-05
4.315e-05
4.20814e-05
4.07985e-05
3.98501e-05
3.91041e-05
3.80014e-05
3.62119e-05
3.40598e-05
3.1599e-05
2.83811e-05
2.4774e-05
2.08207e-05
1.61218e-05
1.05745e-05
5.42396e-06
1.95121e-06
4.90476e-07
8.46826e-08
5.05822e-09
1.92714e-09
1.22124e-06
2.39495e-05
3.41871e-05
4.79259e-05
6.974e-05
7.17762e-05
2.66305e-05
1.33955e-07
1.32848e-11
9.25065e-05
1
0.966899
9.07061e-05
4.63686e-05
4.5439e-05
4.53986e-05
4.53979e-05
4.55623e-05
4.55717e-05
4.56759e-05
4.56373e-05
4.53719e-05
4.5221e-05
4.5022e-05
4.48412e-05
4.4706e-05
4.51041e-05
4.54046e-05
4.56775e-05
4.60191e-05
4.53673e-05
4.49322e-05
4.45302e-05
4.44029e-05
4.466e-05
4.49353e-05
4.46818e-05
4.38334e-05
4.30932e-05
4.27868e-05
4.28234e-05
4.26652e-05
4.14868e-05
4.01064e-05
3.90622e-05
3.81875e-05
3.69094e-05
3.48964e-05
3.25172e-05
2.97659e-05
2.62174e-05
2.21953e-05
1.7833e-05
1.2841e-05
7.4544e-06
3.15142e-06
9.13683e-07
2.09497e-07
2.07436e-08
1.72216e-09
6.39349e-08
1.50621e-05
2.99948e-05
3.09872e-05
4.98096e-05
9.16494e-05
0.000191401
3.20847e-05
8.58642e-10
1.26559e-09
0.0097372
1
0.00725368
5.63137e-05
4.56323e-05
4.54069e-05
4.5398e-05
4.53979e-05
4.54852e-05
4.55208e-05
4.56421e-05
4.5772e-05
4.569e-05
4.53952e-05
4.52022e-05
4.49578e-05
4.47633e-05
4.46519e-05
4.50524e-05
4.5403e-05
4.56661e-05
4.59836e-05
4.53416e-05
4.48262e-05
4.43902e-05
4.42413e-05
4.44916e-05
4.47405e-05
4.44677e-05
4.35613e-05
4.27601e-05
4.2398e-05
4.23673e-05
4.21208e-05
4.08267e-05
3.93339e-05
3.81785e-05
3.71721e-05
3.56911e-05
3.34241e-05
3.07729e-05
2.77218e-05
2.38161e-05
1.94159e-05
1.46875e-05
9.58247e-06
4.73336e-06
1.61888e-06
4.02596e-07
6.96683e-08
4.6436e-09
5.56176e-09
4.19134e-06
3.02038e-05
3.29478e-05
3.18619e-05
5.25702e-05
9.33719e-05
0.000226933
6.47461e-06
2.67405e-11
3.82168e-07
0.999032
0.999992
0.000184793
4.832e-05
4.54471e-05
4.53995e-05
4.53979e-05
4.53979e-05
4.53221e-05
4.54229e-05
4.55836e-05
4.5729e-05
4.58679e-05
4.57517e-05
4.54319e-05
4.51755e-05
4.48936e-05
4.46809e-05
4.45648e-05
4.49865e-05
4.5393e-05
4.56422e-05
4.59367e-05
4.53088e-05
4.46963e-05
4.42332e-05
4.40582e-05
4.4292e-05
4.45182e-05
4.42224e-05
4.32537e-05
4.23881e-05
4.19626e-05
4.18548e-05
4.15122e-05
4.00923e-05
3.84864e-05
3.72006e-05
3.60192e-05
3.43049e-05
3.17663e-05
2.88197e-05
2.54584e-05
2.12023e-05
1.64508e-05
1.14818e-05
6.55667e-06
2.66506e-06
7.65728e-07
1.68078e-07
1.62016e-08
2.57563e-09
2.64313e-07
2.73776e-05
3.91997e-05
3.5422e-05
3.189e-05
3.9652e-05
6.35052e-05
7.52674e-05
3.37928e-07
1.23715e-10
0.000168086
1
0.538343
6.59875e-05
4.60827e-05
4.54065e-05
4.53981e-05
4.53979e-05
4.53979e-05
4.53855e-05
4.57772e-05
4.54559e-05
4.56719e-05
4.58065e-05
4.5957e-05
4.5822e-05
4.54411e-05
4.51478e-05
4.48251e-05
4.46049e-05
4.44725e-05
4.49089e-05
4.53767e-05
4.5612e-05
4.58728e-05
4.52663e-05
4.45487e-05
4.4051e-05
4.38555e-05
4.40646e-05
4.42647e-05
4.39437e-05
4.29051e-05
4.19727e-05
4.14749e-05
4.12805e-05
4.08325e-05
3.92819e-05
3.75288e-05
3.60966e-05
3.47206e-05
3.27549e-05
2.99056e-05
2.66608e-05
2.29566e-05
1.83736e-05
1.33464e-05
8.35911e-06
4.01747e-06
1.32816e-06
3.47994e-07
5.30069e-08
4.4865e-09
1.91127e-08
9.26004e-06
3.81281e-05
4.14631e-05
3.68248e-05
3.07885e-05
2.82324e-05
3.52946e-05
1.49435e-05
4.55679e-09
2.29746e-08
0.0882465
1
0.00121054
4.92764e-05
4.55378e-05
4.53991e-05
4.53979e-05
4.53979e-05
4.53979e-05
4.51638e-05
4.53361e-05
4.5632e-05
4.55212e-05
4.57518e-05
4.58944e-05
4.60147e-05
4.58824e-05
4.53898e-05
4.51114e-05
4.47428e-05
4.45251e-05
4.43767e-05
4.48169e-05
4.53578e-05
4.55672e-05
4.57842e-05
4.5213e-05
4.43898e-05
4.38494e-05
4.36255e-05
4.38078e-05
4.39774e-05
4.3628e-05
4.25135e-05
4.1507e-05
4.09279e-05
4.06378e-05
4.00668e-05
3.83751e-05
3.64735e-05
3.48665e-05
3.32746e-05
3.10121e-05
2.78451e-05
2.42572e-05
2.02133e-05
1.5346e-05
1.02087e-05
5.53806e-06
2.18573e-06
6.18652e-07
1.33251e-07
1.3218e-08
5.09055e-09
9.69615e-07
3.04345e-05
4.07412e-05
4.08978e-05
3.59989e-05
3.32534e-05
3.13322e-05
2.97028e-05
2.72971e-06
1.41893e-10
1.31235e-05
0.999971
0.997138
0.000108541
4.61336e-05
4.54208e-05
4.5398e-05
4.53979e-05
4.53979e-05
4.53979e-05
4.52411e-05
4.55922e-05
4.53372e-05
4.53799e-05
4.55719e-05
4.58324e-05
4.59889e-05
4.60888e-05
4.59245e-05
4.5385e-05
4.50608e-05
4.46544e-05
4.44292e-05
4.4277e-05
4.46985e-05
4.53317e-05
4.54972e-05
4.56747e-05
4.51495e-05
4.42054e-05
4.36225e-05
4.33647e-05
4.35162e-05
4.36562e-05
4.32708e-05
4.20765e-05
4.0985e-05
4.03157e-05
3.99228e-05
3.92175e-05
3.73678e-05
3.53047e-05
3.34973e-05
3.16624e-05
2.90653e-05
2.55508e-05
2.1618e-05
1.72499e-05
1.22014e-05
7.21429e-06
3.27352e-06
1.08084e-06
2.80234e-07
3.82021e-08
5.23946e-09
8.15144e-08
1.31572e-05
3.62732e-05
4.01289e-05
4.07678e-05
4.0221e-05
4.69117e-05
4.79644e-05
4.76516e-05
5.48839e-08
6.25925e-10
0.00304559
1
0.0160134
5.58038e-05
4.55143e-05
4.54007e-05
4.53979e-05
4.53979e-05
4.53979e-05
4.53979e-05
4.52519e-05
4.53097e-05
4.54626e-05
4.535e-05
4.55095e-05
4.56213e-05
4.59059e-05
4.60707e-05
4.61402e-05
4.59567e-05
4.542e-05
4.5007e-05
4.45649e-05
4.43195e-05
4.41633e-05
4.458e-05
4.53035e-05
4.54183e-05
4.55369e-05
4.50733e-05
4.39964e-05
4.33711e-05
4.30747e-05
4.31854e-05
4.32949e-05
4.28671e-05
4.15882e-05
4.04003e-05
3.96379e-05
3.91178e-05
3.82747e-05
3.62479e-05
3.39904e-05
3.19717e-05
2.98499e-05
2.69059e-05
2.30261e-05
1.87486e-05
1.41086e-05
9.06795e-06
4.59699e-06
1.72622e-06
5.10583e-07
1.03089e-07
1.12502e-08
1.49463e-08
3.39262e-06
2.86896e-05
3.77076e-05
4.18934e-05
4.3866e-05
5.18952e-05
6.70981e-05
8.94237e-05
2.79492e-05
6.37873e-10
2.2197e-07
0.939847
0.999953
0.000161639
4.7299e-05
4.54128e-05
4.53982e-05
4.53979e-05
4.53979e-05
4.53979e-05
4.53979e-05
4.5187e-05
4.52675e-05
4.52325e-05
4.51943e-05
4.53472e-05
4.54224e-05
4.56697e-05
4.59665e-05
4.61505e-05
4.61652e-05
4.59789e-05
4.54206e-05
4.49345e-05
4.44652e-05
4.42028e-05
4.40382e-05
4.44484e-05
4.52517e-05
4.5348e-05
4.53712e-05
4.49691e-05
4.37677e-05
4.3091e-05
4.27496e-05
4.28161e-05
4.28879e-05
4.24147e-05
4.10468e-05
3.975e-05
3.88721e-05
3.82237e-05
3.72175e-05
3.50024e-05
3.25309e-05
3.02611e-05
2.78337e-05
2.45122e-05
2.02796e-05
1.56824e-05
1.08968e-05
6.16499e-06
2.62117e-06
8.49626e-07
2.20171e-07
2.96032e-08
8.41275e-09
4.60908e-07
2.07269e-05
3.42481e-05
3.80132e-05
4.36826e-05
4.9189e-05
5.65502e-05
7.49431e-05
7.06803e-05
4.13023e-07
2.06264e-10
3.22558e-05
0.999994
0.270018
5.75176e-05
4.57011e-05
4.53993e-05
4.53979e-05
4.53979e-05
4.53979e-05
4.53979e-05
4.53979e-05
4.51879e-05
4.52132e-05
4.51834e-05
4.51371e-05
4.5117e-05
4.53577e-05
4.54041e-05
4.57208e-05
4.60313e-05
4.62324e-05
4.6205e-05
4.59766e-05
4.53966e-05
4.48549e-05
4.435e-05
4.40776e-05
4.39029e-05
4.43075e-05
4.51295e-05
4.52795e-05
4.51866e-05
4.48001e-05
4.35089e-05
4.27788e-05
4.23871e-05
4.24037e-05
4.24318e-05
4.19067e-05
4.04379e-05
3.90258e-05
3.80219e-05
3.72203e-05
3.60368e-05
3.36123e-05
3.09089e-05
2.83628e-05
2.56012e-05
2.18946e-05
1.73236e-05
1.25122e-05
7.80694e-06
3.77142e-06
1.35772e-06
4.1047e-07
7.4835e-08
1.13875e-08
6.52261e-08
1.06311e-05
3.18411e-05
3.61485e-05
3.83517e-05
4.08141e-05
4.46456e-05
5.25046e-05
6.85736e-05
4.04824e-05
1.34528e-08
2.9594e-08
0.0149877
0.999998
0.000469301
4.71322e-05
4.54363e-05
4.53979e-05
4.53979e-05
4.53979e-05
4.53979e-05
4.53979e-05
4.53979e-05
4.51671e-05
4.52367e-05
4.5131e-05
4.50953e-05
4.50725e-05
4.50502e-05
4.53518e-05
4.54899e-05
4.57628e-05
4.60885e-05
4.63001e-05
4.62685e-05
4.59654e-05
4.53656e-05
4.47722e-05
4.42221e-05
4.39421e-05
4.37459e-05
4.41833e-05
4.49525e-05
4.51871e-05
4.50222e-05
4.45705e-05
4.32211e-05
4.24328e-05
4.19812e-05
4.19465e-05
4.19233e-05
4.13315e-05
3.97691e-05
3.8223e-05
3.70772e-05
3.61112e-05
3.47251e-05
3.20747e-05
2.91211e-05
2.62683e-05
2.3136e-05
1.90599e-05
1.4229e-05
9.3684e-06
5.09461e-06
2.0807e-06
6.72062e-07
1.63167e-07
2.37125e-08
1.88708e-08
2.41931e-06
3.3072e-05
3.74808e-05
3.57227e-05
3.4174e-05
3.37336e-05
3.64683e-05
4.96251e-05
6.4089e-05
2.74476e-05
3.16233e-09
7.76973e-05
0.999992
0.817093
7.4045e-05
4.56263e-05
4.54022e-05
4.53979e-05
4.53979e-05
4.53979e-05
4.53979e-05
4.53979e-05
4.53979e-05
4.51761e-05
4.52262e-05
4.51666e-05
4.50407e-05
4.50143e-05
4.4995e-05
4.50152e-05
4.53461e-05
4.55163e-05
4.58022e-05
4.61343e-05
4.63619e-05
4.63257e-05
4.59447e-05
4.53294e-05
4.46813e-05
4.40864e-05
4.37879e-05
4.35752e-05
4.40494e-05
4.47597e-05
4.50459e-05
4.48672e-05
4.43101e-05
4.29011e-05
4.20475e-05
4.15346e-05
4.14362e-05
4.13602e-05
4.06998e-05
3.9008e-05
3.7331e-05
3.60234e-05
3.48747e-05
3.32587e-05
3.03641e-05