/*--------------------------------*- C++ -*----------------------------------*\
| =========                 |                                                 |
| \\      /  F ield         | OpenFOAM: The Open Source CFD Toolbox           |
|  \\    /   O peration     | Version:  v2012                                 |
|   \\  /    A nd           | Website:  www.openfoam.com                      |
|    \\/     M anipulation  |                                                 |
\*---------------------------------------------------------------------------*/
FoamFile
{
    version     2.0;
    format      ascii;
    class       volScalarField;
    location    "0";
    object      I1_4;
}
// * * * * * * * * * * * * * * * * * * * * * * * * * * * * * * * * * * * * * //

dimensions      [0 0 0 0 0 0 0];


internalField   nonuniform List<scalar> 
39402
(
-1.33905e-05
-0.0734178
-5.79661e-05
-64.4817
-0.0037417
-0.000204211
-5.61488
-0.307607
-0.00161426
-0.000261909
-5.92791
-0.820206
-0.0231714
-0.000747157
-0.000375118
-0.615298
-0.0610602
-0.358883
-0.00511786
-0.000403751
-0.000640269
-0.0281927
-0.00220575
-0.00870703
-0.264334
-0.00186458
-0.000379834
-0.00141194
-0.199697
-0.0148747
-0.000374119
-0.00243238
-0.269845
-0.000907248
-0.000468877
-0.00309693
-0.116861
-0.0123989
-0.000726005
-0.000103445
-0.000996557
-0.232823
-0.000528904
-0.000648992
-0.00738913
-0.013158
-0.109461
-0.00166283
-4.0711e-05
-3.01749e-05
-0.000521992
-0.0809541
-0.00034879
-0.00100269
-0.0187748
-0.00797371
-0.0163963
-0.170048
-0.000247122
-1.42275e-05
-1.51381e-05
-0.000333197
-0.0148676
-0.000256663
-0.00175364
-0.0516792
-0.100071
-0.112145
-0.0289563
-0.0365779
-0.000107539
-6.53752e-06
-9.25215e-06
-0.000262859
-0.00288786
-0.000205471
-0.00324188
-0.171965
-0.167688
-0.00101897
-0.0104599
-1.75551
-0.0123568
-5.87852e-05
-3.78776e-06
-8.11838e-06
-0.000257805
-0.000799155
-0.000176946
-0.00702164
-0.529284
-2.15817
-0.000883275
-0.000197826
-0.00316335
-0.0111828
-0.0054879
-3.82485e-05
-7.9977e-06
-1.08963e-05
-0.000658047
-0.0002909
-0.000166847
-0.016473
-0.627605
-0.17688
-0.0152125
-0.00458918
-5.81098e-05
-0.00121938
-0.00188447
-0.00302982
-2.91958e-05
-6.62965e-06
-1.81725e-05
-0.00260671
-0.000155308
-0.000173005
-0.0341927
-0.424287
-1.13847
-0.00275274
-0.00684338
-0.00114986
-0.00062782
-0.000640062
-0.000562179
-0.00271169
-4.02229e-05
-1.66937e-05
-0.000165004
-0.060725
-0.000100611
-0.000204709
-0.0546009
-0.312161
-0.0616819
-0.00211534
-0.000494535
-0.00172269
-7.16054e-06
-0.000294567
-1.44069e-05
-0.000508627
-0.00514472
-8.45589e-05
-4.73364e-05
-0.00160565
-0.00121746
-6.46111e-05
-0.000270783
-0.0559176
-0.277502
-0.0179239
-0.111611
-0.00458584
-0.000149309
-0.000124028
-3.36353e-06
-5.64359e-06
-0.000151378
-0.000241661
-0.0297907
-0.000207126
-0.000580262
-0.00212864
-0.000186905
-4.76545e-05
-0.000398725
-0.0467004
-0.249141
-0.00610576
-0.00579107
-0.0073883
-0.00122628
-0.000430657
-5.55624e-05
-1.7355e-06
-6.71484e-05
-8.53724e-05
-5.69959e-05
-0.00965275
-0.0010334
-0.257515
-0.000238815
-8.0451e-05
-4.02647e-05
-0.000687962
-0.0316709
-0.268811
-0.0198327
-0.00079714
-0.001862
-0.000392284
-2.64209e-05
-0.000207596
-2.85227e-05
-1.03614e-06
-3.96081e-05
-4.01987e-05
-5.67019e-05
-0.00116084
-0.0241617
-0.000424291
-0.000103111
-5.62676e-05
-3.71435e-05
-0.0012518
-0.0189511
-0.189442
-0.0391117
-0.00337235
-0.000425288
-0.000604343
-0.0001409
-1.23034e-05
-1.55397e-05
-6.30272e-05
-2.42724e-05
-1.99966e-05
-8.59337e-05
-6.74729e-05
-0.000303662
-0.000691316
-0.000165183
-5.54538e-05
-3.59939e-05
-3.36664e-05
-0.00246547
-0.00803265
-0.0720057
-0.00354727
-0.00352525
-0.00301288
-0.000709568
-0.000655007
-6.43314e-05
-6.54216e-06
-5.37287e-05
-3.82188e-05
-1.60723e-05
-4.74548e-05
-4.5864e-05
-3.42482e-05
-0.000190924
-0.000169924
-9.18762e-05
-3.96689e-05
-2.81944e-05
-3.07978e-05
-0.0053221
-0.00117394
-0.0553608
-0.0298336
-0.00903672
-0.319465
-7.81111e-05
-8.49298e-05
-0.000325831
-3.42541e-05
-4.88773e-05
-3.38621e-05
-2.14202e-05
-8.78527e-06
-2.81746e-05
-5.46887e-05
-3.29929e-05
-0.000101022
-0.000109489
-6.18559e-05
-3.2184e-05
-2.38052e-05
-3.0367e-05
-0.0106097
-0.000534256
-0.0397949
-0.0227169
-0.00774043
-0.0122725
-0.000732906
-3.37776e-05
-4.69594e-05
-6.8721e-05
-2.02482e-05
-3.11118e-05
-1.88015e-05
-4.49352e-05
-2.30114e-05
-1.71578e-05
-3.2015e-05
-4.41485e-05
-8.25754e-05
-8.3075e-05
-4.88198e-05
-2.74443e-05
-2.40445e-05
-3.24877e-05
-0.0234314
-0.0055169
-0.0312059
-0.0551513
-0.00468365
-0.000390848
-0.00109137
-0.000158237
-1.71133e-05
-0.000100093
-4.10745e-05
-4.2438e-05
-1.6421e-06
-4.38007e-05
-9.5973e-06
-1.46928e-05
-2.31671e-05
-3.05483e-05
-3.46272e-05
-7.54161e-05
-6.57349e-05
-4.10165e-05
-2.42035e-05
-2.71541e-05
-3.98145e-05
-0.0426492
-0.00758715
-0.040331
-0.0223937
-0.103763
-0.000129994
-0.000164284
-0.00029139
-5.78645e-05
-0.000104266
-6.38801e-05
-5.42424e-05
-2.84344e-05
-1.08726e-05
-2.83036e-05
-1.73341e-05
-9.54088e-06
-2.64866e-05
-4.13678e-05
-3.26044e-05
-5.53342e-05
-5.70569e-05
-3.57782e-05
-2.09749e-05
-3.07621e-05
-6.21663e-05
-0.0616585
-0.0104192
-0.0438738
-0.0291271
-0.0293374
-0.00145929
-6.10874e-05
-8.0684e-05
-0.000116101
-2.65997e-05
-6.38807e-05
-3.67827e-05
-3.74857e-05
-1.67218e-05
-2.85428e-05
-1.84282e-05
-2.62501e-05
-1.37601e-05
-2.59645e-05
-3.29016e-05
-4.06845e-05
-4.87014e-05
-4.85852e-05
-3.19097e-05
-1.75074e-05
-2.94886e-05
-0.000121947
-0.0791396
-0.0153361
-0.0499473
-0.00970369
-0.0166226
-0.0129631
-0.000297307
-3.1411e-05
-4.39685e-05
-0.000294874
-1.42324e-05
-3.5163e-05
-8.05085e-05
-2.38836e-05
-1.23612e-05
-1.87816e-05
-1.22502e-05
-1.69084e-05
-1.66386e-05
-3.28372e-05
-3.25963e-05
-3.66316e-05
-4.62529e-05
-4.27291e-05
-2.98772e-05
-1.9086e-05
-2.31351e-05
-0.000321912
-0.0980522
-0.0413545
-0.0521537
-0.0296423
-0.00359897
-0.0003934
-0.0115084
-9.8015e-05
-1.79609e-05
-2.61437e-05
-0.000160007
-8.34147e-06
-2.50796e-05
-1.8246e-05
-1.76344e-05
-7.81976e-06
-1.25313e-05
-1.76725e-05
-2.02365e-05
-1.71931e-05
-3.51904e-05
-3.4875e-05
-3.74406e-05
-4.47376e-05
-3.93225e-05
-2.65844e-05
-3.14825e-05
-1.48982e-05
-0.000891809
-0.116474
-0.0764775
-0.0528262
-0.0587195
-0.00071556
-0.000125937
-0.000218804
-0.00301503
-0.000643136
-1.08844e-05
-1.67549e-05
-1.92241e-05
-3.97923e-05
-1.49052e-05
-1.16394e-05
-1.16859e-05
-1.64798e-05
-1.85764e-05
-3.31708e-05
-2.0819e-05
-2.28226e-05
-3.41159e-05
-3.79354e-05
-4.05229e-05
-4.48859e-05
-3.63951e-05
-2.18045e-05
-5.52969e-05
-7.47837e-06
-0.00287704
-0.139049
-0.0180098
-0.0550692
-0.0417899
-0.328034
-0.00534492
-6.58477e-05
-9.83907e-05
-0.000112879
-0.000321404
-7.11546e-06
-5.54859e-05
-1.23485e-05
-2.73589e-05
-3.91223e-05
-5.18562e-05
-2.02661e-05
-1.14772e-05
-2.31984e-05
-3.32742e-05
-2.0729e-05
-2.55941e-05
-3.58018e-05
-3.65094e-05
-3.83967e-05
-4.2458e-05
-3.4076e-05
-1.73213e-05
-8.4772e-05
-2.65373e-05
-0.00904078
-0.163545
-0.168883
-0.0532125
-0.020647
-0.000615612
-0.00719643
-0.00205381
-3.70016e-05
-5.08749e-05
-5.41415e-05
-1.25351e-05
-4.86688e-06
-3.93516e-05
-8.57897e-06
-1.56282e-05
-2.65042e-05
-3.76511e-05
-2.74231e-05
-8.02512e-06
-1.61479e-05
-2.32173e-05
-1.92028e-05
-2.59656e-05
-3.86337e-05
-3.52016e-05
-3.88524e-05
-4.07681e-05
-3.12628e-05
-1.93134e-05
-0.000113718
-4.44264e-05
-0.0200791
-0.1647
-0.66669
-0.0496226
-0.0454504
-0.000132959
-0.0236626
-0.0128815
-0.000988645
-2.21052e-05
-2.92472e-05
-0.000218604
-7.6764e-06
-3.18538e-05
-5.78991e-06
-2.00044e-05
-1.13936e-05
-1.83152e-05
-2.56152e-05
-2.03652e-05
-1.13852e-05
-1.74884e-05
-2.18457e-05
-2.67346e-05
-2.84035e-05
-4.10169e-05
-3.81383e-05
-3.86943e-05
-3.98377e-05
-2.81055e-05
-3.86887e-05
-0.000126865
-0.000164354
-0.0313439
-0.147623
-0.189147
-0.0425128
-0.0530138
-0.000932952
-0.00983546
-0.00431949
-0.00376421
-3.99595e-05
-1.38582e-05
-0.000136571
-0.00013157
-5.23875e-05
-2.36204e-05
-1.60233e-05
-1.47821e-05
-6.84857e-06
-2.78601e-05
-3.25387e-05
-1.40826e-05
-2.15332e-05
-2.43067e-05
-3.09964e-05
-2.69349e-05
-3.54275e-05
-4.25168e-05
-4.06513e-05
-3.67084e-05
-3.81893e-05
-2.24883e-05
-6.43477e-05
-8.23289e-05
-0.00167448
-0.0468386
-0.119962
-0.161
-0.0342358
-0.00280693
-0.0541902
-0.0733357
-0.000378735
-0.00919635
-0.000131568
-2.34704e-05
-9.28208e-06
-9.01423e-05
-6.97445e-05
-3.68151e-05
-1.43845e-05
-1.23307e-05
-9.19148e-06
-1.76983e-05
-3.58459e-05
-2.35566e-05
-1.71303e-05
-2.22289e-05
-2.86001e-05
-3.18596e-05
-2.85609e-05
-3.54559e-05
-4.49486e-05
-4.19206e-05
-3.64299e-05
-3.62863e-05
-2.43969e-05
-7.49203e-05
-1.70319e-05
-0.00999153
-0.063776
-0.0858826
-0.142807
-0.0247875
-0.023376
-0.00094321
-0.0255379
-0.178793
-0.00437099
-0.00049451
-6.4062e-05
-1.48722e-05
-6.47264e-05
-5.17411e-05
-4.79573e-05
-2.11759e-05
-1.1243e-05
-7.89287e-06
-2.1209e-05
-1.22796e-05
-2.57025e-05
-2.5903e-05
-1.84237e-05
-1.595e-05
-2.53953e-05
-3.02424e-05
-3.20604e-05
-3.75933e-05
-4.9314e-05
-4.20919e-05
-3.5937e-05
-3.27489e-05
-4.83225e-05
-6.46473e-05
-4.5962e-05
-0.01634
-0.0841791
-0.040775
-0.150613
-0.0163952
-5.83223e-05
-0.00010384
-0.000434002
-0.000761808
-0.00105122
-0.000819075
-0.000125255
-3.51715e-05
-1.00186e-05
-4.71392e-05
-3.81734e-05
-2.76273e-05
-1.58298e-05
-7.04309e-06
-1.96226e-05
-1.49506e-05
-1.86505e-05
-2.85431e-05
-2.7308e-05
-2.54781e-05
-1.97503e-05
-2.58436e-05
-3.53532e-05
-3.49558e-05
-4.15104e-05
-5.18496e-05
-4.13175e-05
-3.36513e-05
-2.89209e-05
-9.7691e-05
-2.46969e-07
-0.000325204
-0.023819
-0.108353
-0.00412457
-0.169576
-0.00769317
-0.00359954
-1.48785e-05
-5.07948e-05
-0.000214449
-0.000328083
-0.000228893
-0.000101846
-0.000796318
-0.000172499
-7.10864e-06
-3.76824e-06
-2.30767e-05
-7.0231e-05
-9.54091e-06
-5.75815e-06
-1.41236e-05
-1.0664e-05
-2.39537e-05
-3.03368e-05
-2.68749e-05
-2.42644e-05
-2.2619e-05
-3.30403e-05
-3.72667e-05
-3.78689e-05
-4.46811e-05
-5.13749e-05
-4.02579e-05
-3.10576e-05
-4.44252e-05
-0.000135834
-0.000330122
-0.00165916
-0.0314303
-0.149838
-0.029712
-0.155124
-0.00345901
-0.0640403
-0.0153172
-6.38122e-06
-2.73511e-05
-0.000117952
-0.000163045
-8.52974e-05
-3.21379e-05
-0.000388483
-0.000111248
-5.26567e-06
-2.01937e-05
-6.1722e-05
-4.69429e-05
-2.65311e-05
-3.7084e-06
-1.02713e-05
-7.72086e-06
-1.71392e-05
-2.99419e-05
-3.25794e-05
-2.20338e-05
-2.31676e-05
-3.70483e-05
-3.93598e-05
-3.93476e-05
-4.73744e-05
-5.20148e-05
-3.77715e-05
-2.49927e-05
-8.00293e-05
-0.000192961
-0.00161356
-0.0247184
-0.0420921
-0.147423
-0.0416732
-0.160714
-0.00271775
-0.0414162
-0.0994572
-0.000503021
-3.47796e-06
-1.74776e-05
-0.000677531
-8.92399e-05
-3.96241e-05
-1.42899e-05
-1.38503e-05
-9.64788e-06
-2.60673e-05
-1.58846e-05
-4.28263e-05
-3.21542e-05
-1.86216e-05
-1.03924e-05
-7.5792e-06
-1.13915e-05
-1.90874e-05
-3.6584e-05
-3.58293e-05
-2.38888e-05
-2.97938e-05
-3.82781e-05
-4.38375e-05
-4.17665e-05
-4.8502e-05
-5.2728e-05
-3.61886e-05
-2.15542e-05
-0.000121928
-0.000149768
-0.00703692
-0.0328432
-0.0507729
-0.126365
-0.405153
-0.126316
-0.00256719
-0.0268274
-0.0344264
-0.0354343
-0.000162943
-1.75607e-06
-0.000540855
-0.000418927
-5.35557e-05
-2.15999e-05
-0.000226749
-9.72697e-05
-3.98973e-05
-2.02891e-05
-1.0123e-05
-3.02463e-05
-4.87494e-05
-1.33099e-05
-1.65186e-05
-1.15589e-05
-1.47451e-05
-2.03692e-05
-3.37024e-05
-3.70142e-05
-2.79727e-05
-3.05279e-05
-3.98293e-05
-4.68901e-05
-4.36303e-05
-5.09345e-05
-5.14902e-05
-2.94391e-05
-4.70384e-05
-0.000158567
-8.82888e-06
-0.0616732
-0.0280774
-0.0676186
-0.0890945
-0.125182
-0.0894468
-0.0024953
-0.00468524
-0.120591
-0.19791
-0.00342821
-7.28617e-05
-1.02789e-06
-5.96166e-06
-2.85848e-05
-3.38019e-05
-1.30644e-05
-0.000135972
-6.59341e-05
-3.01836e-05
-2.48445e-06
-2.936e-05
-4.69425e-05
-6.25811e-05
-2.07206e-05
-1.28003e-05
-1.52479e-05
-1.64798e-05
-2.00596e-05
-3.00669e-05
-3.64611e-05
-3.02187e-05
-3.1997e-05
-4.36796e-05
-4.80676e-05
-4.62548e-05
-5.09187e-05
-5.19506e-05
-2.66621e-05
-6.50428e-05
-0.00016399
-0.00024138
-0.560226
-0.0283155
-0.081139
-0.0599591
-0.114552
-0.057727
-0.00248693
-0.1867
-0.000120925
-0.00410262
-0.00583282
-0.000933813
-3.80559e-05
-6.48416e-07
-4.13228e-06
-1.97463e-05
-0.000127516
-8.43271e-06
-3.02381e-06
-3.5906e-05
-1.8125e-05
-9.21693e-06
-2.13749e-05
-3.57534e-05
-4.48142e-05
-1.58351e-05
-9.02647e-06
-1.72921e-05
-2.36441e-05
-2.45205e-05
-3.61354e-05
-3.46374e-05
-3.3351e-05
-3.66874e-05
-4.63734e-05
-5.08764e-05
-4.75166e-05
-5.01299e-05
-4.90282e-05
-4.07345e-05
-8.42935e-05
-7.76315e-05
-0.000350736
-0.169307
-0.0339407
-0.0956193
-0.0291172
-0.11756
-0.0352468
-0.00251104
-0.0479468
-0.0561162
-2.17919e-05
-0.0343843
-0.00127482
-0.00037443
-2.24197e-05
-4.25971e-07
-3.00507e-06
-1.41104e-05
-8.98878e-05
-5.85928e-06
-4.22816e-05
-9.68344e-05
-4.92116e-05
-7.57999e-06
-1.57322e-05
-2.49635e-05
-3.24089e-05
-1.10431e-05
-1.88046e-05
-1.88539e-05
-2.30977e-05
-2.72175e-05
-3.99849e-05
-3.88165e-05
-3.46369e-05
-4.0666e-05
-4.93298e-05
-5.28149e-05
-4.8029e-05
-4.94681e-05
-4.68481e-05
-7.03339e-05
-6.71923e-05
-6.90793e-06
-0.0281962
-0.0103745
-0.0472781
-0.105278
-0.0056632
-0.123315
-0.0211527
-0.00257639
-0.239769
-0.0160223
-6.3601e-05
-6.63251e-06
-0.00996969
-0.000462376
-0.000183824
-0.000383956
-2.87672e-07
-2.18741e-06
-1.07449e-05
-1.18102e-05
-4.25939e-06
-3.05929e-05
-6.42549e-05
-3.4292e-05
-4.94804e-06
-1.16627e-05
-3.32132e-05
-2.36986e-05
-2.28608e-05
-2.06675e-05
-1.90176e-05
-2.15413e-05
-2.82478e-05
-4.10575e-05
-4.11045e-05
-3.59878e-05
-4.16581e-05
-5.20461e-05
-5.34833e-05
-4.61403e-05
-4.54092e-05
-6.76588e-05
-8.56495e-05
-5.41809e-05
-0.00164305
-0.373302
-0.0108409
-0.0489799
-0.114027
-0.0095861
-0.114523
-0.0127448
-0.00249535
-0.691428
-0.0257314
-0.00328532
-2.74006e-05
-2.5067e-06
-6.91073e-05
-0.00182044
-0.000100342
-0.000256851
-9.09457e-05
-1.6757e-06
-4.29283e-05
-8.92571e-06
-2.56757e-05
-1.73751e-05
-4.32912e-05
-2.4222e-05
-1.37395e-05
-8.69521e-06
-3.78122e-05
-2.68651e-05
-2.48816e-05
-1.55774e-05
-2.36482e-05
-2.39878e-05
-3.18141e-05
-4.41576e-05
-4.32187e-05
-4.19481e-05
-4.32981e-05
-5.49317e-05
-5.44268e-05
-4.47603e-05
-4.41952e-05
-0.000113229
-8.42518e-05
-0.00095767
-0.027537
-0.451332
-0.0057046
-0.0662986
-0.081422
-0.167814
-0.10159
-0.00808029
-0.00243645
-32.5192
-0.0297706
-0.00713428
-0.000850528
-1.3294e-05
-1.22031e-06
-3.37458e-05
-0.000945339
-0.000375198
-6.58891e-06
-6.91674e-05
-3.73106e-05
-3.38154e-05
-7.01163e-06
-1.98447e-05
-5.02488e-05
-2.96898e-05
-1.74007e-05
-1.01495e-05
-1.40763e-05
-4.13687e-05
-3.92416e-05
-2.50544e-05
-1.5857e-05
-2.22243e-05
-2.50788e-05
-3.71239e-05
-4.47802e-05
-4.85244e-05
-4.43965e-05
-4.6716e-05
-5.56817e-05
-5.52818e-05
-4.18081e-05
-5.77363e-05
-0.000150727
-8.66895e-06
-0.00525693
-0.0410541
-0.103989
-0.0166264
-0.0791606
-0.0560038
-0.0613429
-0.0720305
-0.00533183
-0.00246239
-0.404087
-0.352218
-0.00712818
-0.00250529
-0.000384294
-6.60991e-06
-6.93262e-07
-1.8794e-05
-6.65825e-05
-0.000242165
-4.85191e-06
-1.25939e-07
-2.97252e-05
-5.20659e-06
-1.75842e-05
-1.9793e-06
-3.4354e-05
-2.09466e-05
-1.27092e-05
-1.63533e-05
-1.94243e-05
-3.10844e-05
-3.87564e-05
-2.49125e-05
-1.99329e-05
-2.38003e-05
-2.83334e-05
-3.67634e-05
-4.88032e-05
-5.01547e-05
-4.56838e-05
-4.9208e-05
-5.6461e-05
-5.33658e-05
-3.97676e-05
-9.07581e-05
-0.00020607
-0.000109728
-0.0370871
-0.0681185
-0.045201
-0.0331924
-0.088944
-0.0289853
-0.0877049
-0.0453521
-0.00462807
-0.00250064
-1.32846
-0.349291
-0.00187489
-0.0163479
-0.00114091
-0.000193116
-3.71977e-06
-3.83628e-07
-1.18339e-05
-4.24338e-05
-2.75779e-05
-3.61087e-06
-1.06278e-07
-8.82068e-07
-1.51098e-05
-1.421e-05
-8.3785e-06
-2.39862e-05
-3.27209e-05
-2.00923e-05
-1.30048e-05
-1.47514e-05
-3.15813e-05
-3.64976e-05
-2.35497e-05
-2.68031e-05
-3.2145e-05
-3.32259e-05
-3.75402e-05
-5.28049e-05
-5.50999e-05
-4.84928e-05
-4.97874e-05
-5.52094e-05
-5.29011e-05
-5.13066e-05
-0.00011063
-0.000156026
-0.000663849
-0.159871
-0.0655352
-0.0511264
-0.0407009
-0.0983997
-0.00359912
-0.0906988
-0.0255035
-0.0051271
-0.00264229
-0.0624747
-0.263799
-0.00732716
-0.000576976
-0.00684161
-0.0027122
-0.000107495
-2.25282e-06
-2.56859e-07
-7.42085e-06
-0.000154957
-1.99298e-05
-2.80662e-06
-8.72122e-08
-1.30766e-05
-1.25001e-05
-9.31461e-06
-2.44231e-05
-1.69377e-05
-4.31961e-05
-2.70421e-05
-9.29647e-06
-1.71945e-05
-3.1655e-05
-3.4292e-05
-2.67246e-05
-2.82057e-05
-3.45009e-05
-3.58284e-05
-4.18464e-05
-5.32901e-05
-5.81191e-05
-5.20053e-05
-4.9038e-05
-5.43353e-05
-4.95386e-05
-7.91866e-05
-0.000123279
-4.0895e-05
-0.0022619
-0.348177
-0.092481
-0.00301566
-0.0535155
-0.0875824
-0.165486
-0.0967117
-0.0149115
-0.00556218
-0.00255608
-0.00292659
-0.14432
-0.0112043
-0.00144136
-0.000249345
-0.000525933
-0.00153645
-6.55176e-05
-1.4825e-06
-1.83011e-07
-0.000148268
-0.000109813
-5.78374e-05
-2.75034e-05
-1.47228e-05
-1.09974e-05
-8.31966e-06
-2.44207e-05
-5.0645e-06
-1.21224e-05
-3.1522e-05
-2.01267e-05
-1.95792e-05
-2.59358e-05
-3.70771e-05
-3.11824e-05
-2.82854e-05
-2.77194e-05
-3.47978e-05
-3.9133e-05
-4.55274e-05
-5.70828e-05
-6.04157e-05
-5.32572e-05
-4.62277e-05
-4.95482e-05
-7.59505e-05
-9.03885e-05
-4.37876e-05
-0.000319707
-0.101951
-0.108611
-0.0965893
-0.010311
-0.0687005
-0.0609958
-0.0638756
-0.0751041
-0.00951741
-0.0053011
-0.00226017
-0.235758
-0.00531885
-0.022051
-0.0026303
-0.000464271
-0.000121172
-0.000293371
-0.000199008
-0.000341658
-1.00704e-06
-0.000127361
-0.000106157
-1.51449e-05
-4.40945e-05
-2.22774e-05
-1.23555e-05
-6.93755e-06
-2.29318e-05
-6.03155e-06
-3.2708e-06
-1.94288e-05
-2.32779e-05
-2.31671e-05
-1.54123e-05
-2.63482e-05
-3.5047e-05
-3.82035e-05
-3.25624e-05
-3.3041e-05
-3.68039e-05
-4.03597e-05
-4.87345e-05
-5.92997e-05
-6.46427e-05
-5.40518e-05
-4.52613e-05
-5.16336e-05
-9.33101e-05
-9.67188e-05
-3.85775e-05
-0.00112574
-0.244293
-0.043763
-0.0807587
-0.0932016
-0.081146
-0.0304549
-0.0583128
-0.0470777
-0.00700301
-0.0051709
-0.00263266
-0.671745
-0.247387
-0.00157975
-0.00234021
-0.000956453
-0.000199337
-6.7547e-05
-0.000176236
-0.000130449
-0.000234165
-7.2745e-07
-9.57015e-05
-2.67662e-06
-4.30656e-05
-2.75544e-05
-1.37219e-05
-4.88524e-08
-6.02391e-06
-1.70513e-05
-4.21966e-06
-9.30753e-06
-2.62276e-05
-2.66534e-05
-3.45382e-05
-1.62609e-05
-2.02411e-05
-3.13412e-05
-3.85428e-05
-3.52118e-05
-3.62411e-05
-3.94275e-05
-4.35766e-05
-4.89448e-05
-6.22712e-05
-6.51075e-05
-5.32512e-05
-3.85637e-05
-7.48336e-05
-0.000131163
-2.54461e-05
-0.000559557
-0.09861
-0.545563
-0.0500248
-0.0284299
-0.0415286
-0.0897543
-0.0061099
-0.0835634
-0.0277081
-0.00655396
-0.00535864
-0.00470634
-10.8725
-0.702259
-0.229447
-0.000155133
-0.0119201
-0.000446415
-0.00233237
-4.07142e-05
-0.000114381
-8.94782e-05
-2.15988e-05
-5.59649e-07
-6.69528e-08
-3.9549e-05
-3.39276e-05
-2.24672e-05
-1.14694e-05
-5.67853e-06
-3.85104e-06
-1.28593e-05
-2.10279e-05
-1.50919e-05
-1.94242e-05
-3.94515e-05
-3.469e-05
-2.28379e-05
-2.3982e-05
-3.78679e-05
-3.68173e-05
-3.57196e-05
-4.01289e-05
-4.4557e-05
-4.6479e-05
-5.13466e-05
-6.46481e-05
-6.61948e-05
-5.29466e-05
-4.13653e-05
-9.43211e-05
-0.000156723
-1.05195e-05
-0.0204734
-0.0952902
-0.0509889
-0.0435448
-0.0190747
-0.0523015
-0.0777041
-0.444325
-0.0825954
-0.0158141
-0.00702064
-0.00502442
-0.00381391
-34.6971
-2.37918
-5.81688
-0.0169061
-4.20915e-05
-0.00554978
-0.000238686
-0.00134982
-2.55993e-05
-7.76357e-05
-0.000183838
-1.65014e-05
-5.41397e-05
-3.89383e-05
-3.11115e-05
-2.11746e-05
-1.46428e-05
-7.14043e-06
-1.85624e-05
-1.25376e-05
-9.74501e-06
-1.66675e-05
-2.06658e-05
-2.23558e-05
-3.94105e-05
-2.63952e-05
-2.1959e-05
-2.70361e-05
-3.72032e-05
-4.2002e-05
-4.08943e-05
-4.43378e-05
-4.89804e-05
-4.80147e-05
-5.362e-05
-6.45475e-05
-6.58969e-05
-4.71062e-05
-6.12785e-05
-0.000115181
-9.06906e-05
-0.000903476
-1.70787
-0.106882
-0.0441238
-0.0169552
-0.0153757
-0.0692346
-0.047811
-0.0554663
-0.0595027
-0.0104734
-0.00680669
-0.00508553
-0.000863999
-0.0778788
-0.28427
-0.128831
-0.10833
-0.00423064
-1.49341e-05
-0.00221098
-0.000699598
-3.56481e-05
-1.76555e-05
-0.000183563
-0.000135569
-5.97884e-05
-4.26203e-05
-3.1257e-05
-1.86032e-05
-5.74838e-05
-3.80921e-05
-6.08968e-06
-1.38607e-05
-2.09223e-05
-1.56236e-05
-1.20356e-05
-1.54748e-05
-2.47105e-05
-3.75035e-05
-3.10159e-05
-2.52771e-05
-2.8064e-05
-3.95015e-05
-4.15424e-05
-4.37282e-05
-4.81526e-05
-5.22539e-05
-5.16348e-05
-5.28629e-05
-6.22524e-05
-6.55115e-05
-4.69345e-05
-6.74209e-05
-0.00010994
-9.03243e-05
-0.0421083
-9.01397
-0.0837233
-0.0462049
-0.0746045
-0.0472721
-0.0810576
-0.0231978
-0.0743765
-0.0370714
-0.00814141
-0.00706397
-0.00744241
0
-0.00790175
-0.0441943
-0.0426492
-0.0289618
-0.0461686
-0.0015925
-0.00200194
-0.00124577
-0.000447696
-2.31988e-05
-1.27968e-05
-0.000136326
-3.68543e-05
-4.82628e-05
-2.67851e-07
-1.90731e-05
-5.79298e-05
-4.11262e-05
-9.1056e-06
-3.90835e-06
-1.04331e-05
-1.6775e-05
-2.1665e-05
-1.64234e-05
-1.1672e-05
-2.52268e-05
-3.56119e-05
-3.48515e-05
-2.73504e-05
-3.21973e-05
-4.01749e-05
-4.23066e-05
-4.43172e-05
-5.35519e-05
-5.60484e-05
-5.33266e-05
-5.3414e-05
-6.13197e-05
-6.28351e-05
-7.32882e-05
-6.05834e-05
-3.86884e-05
-0.00608739
-0.0788881
-0.00155937
-0.156854
-0.0564675
-0.09496
-0.0516783
-0.0783251
-0.0101631
-0.0744442
-0.020692
-0.00844371
-0.00671828
-0.0120073
0
-0.129559
-0.00181664
-0.0170882
-0.0127638
-0.0198781
-0.0161047
-0.00275289
-0.00135693
-5.24631e-05
-6.18509e-05
-1.65796e-05
-0.000114566
-3.09529e-05
-5.93848e-05
-8.2035e-06
-2.34805e-07
-1.58902e-05
-1.08901e-05
-2.97541e-05
-6.39731e-06
-1.23322e-05
-7.91338e-06
-1.21335e-05
-1.66095e-05
-1.91314e-05
-1.36764e-05
-3.18984e-05
-3.88082e-05
-3.60887e-05
-3.18678e-05
-3.42103e-05
-3.92983e-05
-4.70521e-05
-4.74256e-05
-5.75131e-05
-5.94378e-05
-5.57128e-05
-5.30551e-05
-5.77135e-05
-7.44218e-05
-8.38517e-05
-4.90455e-05
-0.000146872
-0.0701479
-0.0800427
-0.0222439
-0.106445
-0.073327
-0.0227934
-0.0542146
-0.0573386
-0.0610428
-0.0594176
-0.013031
-0.00829419
-0.00835624
-0.000392799
0
-0.535519
-0.0328224
-0.000424294
-0.00442418
-0.00522912
-0.00861094
-0.00363343
-0.00148341
-3.15846e-06
-3.50153e-05
-4.47607e-05
-1.12792e-05
-8.76283e-05
-5.75879e-05
-4.76849e-05
-2.17808e-05
-1.30034e-05
-9.8997e-06
-6.76406e-06
-2.19051e-05
-3.24801e-05
-9.26982e-06
-6.03919e-06
-2.6568e-05
-1.96023e-05
-2.1454e-05
-2.06932e-05
-3.04222e-05
-4.1104e-05
-4.12804e-05
-3.48865e-05
-3.80974e-05
-4.27078e-05
-4.68035e-05
-5.1741e-05
-6.14236e-05
-6.21678e-05
-5.58969e-05
-5.13508e-05
-6.21125e-05
-0.000102236
-8.77839e-05
-7.21741e-05
-0.000786403
-0.030004
-0.0660819
-0.00892664
-0.278642
-0.138238
-0.0138344
-0.0803832
-0.0319768
-0.0682126
-0.037992
-0.00977207
-0.00885419
-0.00938404
-2.15598e-15
-5.04597e-12
-0.984499
-0.0798864
-0.0108974
-0.000131502
-0.00173592
-0.00568353
-0.0023847
-0.00188438
-0.000248697
-1.90674e-06
-2.40343e-05
-3.30544e-05
-8.58715e-06
-5.57724e-06
-4.56198e-05
-3.15236e-05
-1.81076e-05
-1.10306e-05
-3.08386e-05
-4.84578e-05
-1.62946e-05
-2.55526e-05
-1.54111e-05
-1.0199e-05
-2.11764e-05
-2.9872e-05
-2.21851e-05
-2.09548e-05
-2.80261e-05
-4.08538e-05
-3.97871e-05
-3.59119e-05
-3.98783e-05
-4.64177e-05
-4.66295e-05
-5.50612e-05
-6.47912e-05
-6.509e-05
-5.44454e-05
-4.65306e-05
-7.97498e-05
-0.000127033
-7.20985e-05
-0.00131186
-0.0162539
-0.0480744
-0.0568013
-0.0578076
-0.788842
-0.173512
-0.0609708
-0.071674
-0.00536363
-0.068553
-0.0216341
-0.00881366
-0.00965005
-0.00981357
-5.22863e-14
0
-0.446062
-0.131253
-0.0248512
-0.00415019
-5.36311e-05
-0.000795064
-0.00305027
-0.00135666
-0.00167893
-0.000167226
-1.59976e-06
-0.00020079
-2.5827e-05
-6.75775e-06
-4.52147e-06
-2.99951e-05
-2.6104e-05
-1.1959e-05
-6.87086e-06
-2.27759e-05
-3.77714e-05
-2.58296e-05
-1.82336e-05
-1.23329e-05
-1.44136e-05
-2.2634e-05
-3.06153e-05
-2.26133e-05
-2.02753e-05
-3.4928e-05
-4.47694e-05
-4.45715e-05
-3.87008e-05
-4.23317e-05
-4.79664e-05
-5.03688e-05
-5.67119e-05
-6.60178e-05
-6.48786e-05
-5.29768e-05
-4.76255e-05
-0.000102797
-0.000152702
-3.53215e-06
-0.00449088
-0.514585
-0.0326035
-0.0256765
-0.095991
-0.149702
-0.141498
-0.0557852
-0.0570373
-0.0665279
-0.0546147
-0.0142353
-0.0088339
-0.0117529
0
0
-1.71113e-08
-0.123632
-0.0869748
-0.0373585
-0.0193404
-0.00187681
-2.29751e-05
-0.000428074
-0.000808839
-0.00118447
-0.00101309
-0.000274688
-1.02164e-06
-0.000152198
-2.05951e-05
-5.62413e-05
-2.48904e-05
-2.4951e-05
-1.88127e-05
-3.37298e-05
-2.27911e-05
-1.69801e-05
-1.19278e-05
-2.05501e-05
-2.4949e-05
-8.88926e-06
-1.71868e-05
-3.2407e-05
-2.98674e-05
-2.69566e-05
-2.33964e-05
-3.54867e-05
-4.60747e-05
-4.78052e-05
-4.50011e-05
-4.77489e-05
-5.11372e-05
-5.30347e-05
-5.83654e-05
-6.7e-05
-6.22284e-05
-4.8921e-05
-7.24758e-05
-0.00011728
-0.000174374
-0.000136609
-0.0304666
-0.037244
-0.0226106
-0.00961812
-0.725394
-0.0697523
-0.0384786
-0.0674263
-0.0221982
-0.0651189
-0.03416
-0.0117279
-0.010001
-0.0120799
0
0
0
-0.103272
-0.0343756
-0.0283947
-0.0132413
-0.00840707
-0.000975591
-1.52888e-05
-0.00122224
-0.000515454
-0.000770725
-0.000456239
-0.000202724
-8.00307e-07
-1.03111e-05
-1.66403e-05
-4.48956e-05
-2.06321e-05
-1.74029e-05
-4.1313e-05
-8.00275e-06
-1.69833e-05
-1.27832e-05
-1.98695e-05
-2.57567e-05
-1.90721e-05
-1.25937e-05
-1.95828e-05
-2.52398e-05
-2.88894e-05
-3.05892e-05
-2.92978e-05
-3.43906e-05
-4.60781e-05
-4.83594e-05
-4.90285e-05
-5.25121e-05
-5.36402e-05
-5.42136e-05
-5.96883e-05
-6.56397e-05
-5.95914e-05
-4.74911e-05
-7.85888e-05
-0.000149434
-5.64327e-05
-0.0409985
-0.064827
-0.0261418
-0.0780457
-0.0263545
-0.0315537
-0.0238517
-0.0401432
-0.0717472
-0.054488
-0.0605996
-0.0206145
-0.0110496
-0.0115331
-0.00132696
0
0
-0.000100768
-1.30021
-8.55481e-05
-0.0123674
-0.00996874
-0.0058146
-0.00209966
-0.000537599
-0.00157622
-0.000744955
-0.000557489
-0.000384781
-0.000394916
-6.4308e-05
-6.22814e-07
-8.21425e-06
-1.35115e-05
-3.35276e-06
-1.28169e-05
-4.06074e-05
-3.09125e-05
-5.62062e-06
-1.27438e-05
-2.10484e-05
-2.78456e-05
-3.25827e-05
-2.23999e-05
-1.49995e-05
-2.05216e-05
-2.47019e-05
-3.21596e-05
-2.77035e-05
-3.00722e-05
-3.97442e-05
-4.76475e-05
-5.28903e-05
-5.23643e-05
-5.81009e-05
-5.63849e-05
-5.54348e-05
-6.0127e-05
-6.73968e-05
-6.17844e-05
-6.97328e-05
-7.02002e-05
-9.75833e-05
-0.00260029
-0.0499632
-0.0590085
-0.0273924
-0.0925185
-0.108048
-0.0858069
-0.013032
-0.0682451
-0.0460601
-0.0715989
-0.0419745
-0.013542
-0.0121886
-0.0164404
0
0
-3.60345e-07
-0.112215
-0.030985
-0.123868
-0.0696708
-0.00400744
-0.00435762
-0.0049092
-0.00120575
-0.000332409
-0.000979425
-0.000100599
-0.000389478
-0.000324921
-0.000290432
-9.05412e-05
-4.77362e-07
-6.66316e-06
-1.13396e-05
-2.1227e-05
-4.0376e-05
-3.01418e-05
-2.34725e-05
-3.06972e-05
-2.14232e-05
-2.92462e-05
-3.28135e-05
-2.40563e-05
-2.51651e-05
-1.7065e-05
-2.1246e-05
-3.44097e-05
-3.96551e-05
-3.25112e-05
-2.91326e-05
-4.2945e-05
-5.3479e-05
-5.48836e-05
-5.77235e-05
-6.23915e-05
-6.19089e-05
-5.76705e-05
-5.99106e-05
-6.24626e-05
-7.71323e-05
-6.26603e-05
-6.5973e-05
-9.38948e-06
-0.0402953
-0.0505235
-0.0367591
-0.0192034
-0.254382
-0.066904
-0.0730004
-0.0469871
-0.0638326
-0.0135759
-0.0687057
-0.0276319
-0.011639
-0.0136324
-0.0478896
0
0
0
-0.00363364
-4.68618
-0.39106
-0.0246486
-0.0365239
-0.00162177
-0.00214985
-0.00265991
-0.000753146
-0.000215125
-3.16611e-06
-7.18217e-05
-0.000182701
-0.000243967
-0.000196659
-7.29034e-05
-3.44601e-05
-5.52388e-06
-2.96433e-05
-1.77391e-05
-2.97387e-05
-2.29676e-05
-1.83179e-05
-2.46367e-05
-1.72483e-05
-2.24202e-05
-3.69647e-05
-2.70467e-05
-1.93769e-05
-1.78148e-05
-2.08466e-05
-3.72589e-05
-3.96668e-05
-3.58312e-05
-3.36871e-05
-4.41573e-05
-5.64975e-05
-5.88734e-05
-6.13707e-05
-6.7538e-05
-6.36804e-05
-5.89349e-05
-5.88813e-05
-6.1597e-05
-8.33666e-05
-5.35839e-05
-3.72444e-05
-0.00507295
-0.0292762
-0.0332016
-0.0379713
-0.035478
-1.81846
-0.0548228
-0.023409
-0.0500193
-0.0651754
-0.319256
-0.0534177
-0.0172663
-0.011218
-0.0172169
0
-2.69032e-10
-0.000216721
0
-39.734
-12.0287
-7.80954
-0.0863292
-0.00614859
-1.42745e-05
-0.000766533
-0.0011765
-0.0009755
-0.000498527
-0.000144873
-2.20865e-06
-5.28236e-05
-0.000178521
-0.00017195
-0.000325555
-4.95384e-05
-2.84219e-05
-2.63137e-05
-2.56164e-05
-1.18695e-05
-2.21131e-05
-1.78104e-05
-2.75694e-05
-1.77895e-05
-1.24587e-05
-2.64704e-05
-2.84057e-05
-2.80839e-05
-2.60524e-05
-2.31721e-05
-2.4436e-05
-3.77484e-05
-3.88008e-05
-3.71791e-05
-3.65212e-05
-4.61718e-05
-5.69159e-05
-6.01517e-05
-6.53303e-05
-7.20295e-05
-6.61296e-05
-5.70157e-05
-5.779e-05
-9.14573e-05
-8.00031e-05
-2.44102e-05
-0.000544286
-0.0256902
-0.059138
-0.0471362
-0.0536578
-0.0573469
-0.0672676
-0.0385685
-0.278786
-0.0605421
-0.0338193
-0.0679647
-0.0331333
-0.0157131
-0.0126483
-0.0218432
0
0
0
0
0
-3.43439
-4.2596
-0.162144
-0.0256611
-0.00227576
-0.00643351
-0.000399499
-0.00140063
-0.000628111
-0.000462541
-0.000104119
-1.59323e-06
-0.000107388
-0.000137935
-0.000138245
-0.000118565
-4.13043e-05
-2.55807e-07
-2.25099e-05
-7.30313e-06
-2.93824e-05
-1.65644e-05
-2.74193e-05
-2.23127e-05
-2.48309e-05
-1.76792e-05
-2.99273e-05
-2.96554e-05
-2.88247e-05
-3.24626e-05
-2.25342e-05
-2.68535e-05
-4.20946e-05
-4.4216e-05
-4.0516e-05
-4.01211e-05
-4.88545e-05
-5.94174e-05
-6.21046e-05
-6.86175e-05
-7.3654e-05
-6.55571e-05
-5.19907e-05
-6.43351e-05
-0.000102366
-0.000104194
-7.647e-05
-0.0307085
-0.0420707
-0.0627721
-0.074884
-0.0533585
-0.106559
-0.0198727
-0.044603
-0.026144
-0.0710247
-0.289182
-0.0569428
-0.0221924
-0.0140087
-0.0180793
0
0
0
0
-0.000778111
-0.186126
-2.67919
-641532
-0.272784
-0.0492473
-0.0247524
-0.00103125
-1.5367e-07
-0.000241366
-0.000899199
-0.000431957
-0.000330731
-7.90221e-05
-1.17295e-06
-8.32154e-05
-9.74311e-05
-0.000104551
-9.02767e-05
-2.98582e-05
-1.22293e-05
-3.40316e-06
-1.53067e-05
-2.22497e-05
-1.24932e-05
-2.21842e-05
-1.6569e-05
-1.90662e-05
-2.10811e-05
-3.12401e-05
-3.84984e-05
-2.8176e-05
-2.51694e-05
-2.11815e-05
-3.18491e-05
-4.42019e-05
-4.80251e-05
-4.19014e-05
-4.4175e-05
-5.34744e-05
-6.15563e-05
-6.47236e-05
-6.87486e-05
-7.35281e-05
-6.36441e-05
-4.77359e-05
-8.56662e-05
-0.000116745
-9.39233e-05
-0.00125226
-0.0405429