/*--------------------------------*- C++ -*----------------------------------*\
| =========                 |                                                 |
| \\      /  F ield         | OpenFOAM: The Open Source CFD Toolbox           |
|  \\    /   O peration     | Version:  v2012                                 |
|   \\  /    A nd           | Website:  www.openfoam.com                      |
|    \\/     M anipulation  |                                                 |
\*---------------------------------------------------------------------------*/
FoamFile
{
    version     2.0;
    format      ascii;
    class       volScalarField;
    location    "0";
    object      I2_2;
}
// * * * * * * * * * * * * * * * * * * * * * * * * * * * * * * * * * * * * * //

dimensions      [0 0 0 0 0 0 0];


internalField   nonuniform List<scalar> 
39402
(
-4.8652e-06
2.15121e-12
-0.000458121
2.30092e-16
-2.26954e-05
-1.55149e-05
-5.56348e-11
2.09499e-10
-0.000822654
-1.0324e-05
-6.38021e-11
4.61252e-12
-0.000110932
3.49464e-05
-0.000328353
-6.82071e-17
-5.83382e-07
1.13456e-09
-0.00108826
8.30957e-05
-0.000155769
5.51646e-18
-6.67692e-07
-6.24255e-09
-0.000697054
9.99634e-06
-0.0109649
-1.98141e-07
-9.59332e-11
-5.54249e-12
-6.52649e-05
-1.55478e-07
-0.00280201
2.6002e-05
-0.0125373
1.51556e-08
-1.00842e-10
-4.43569e-12
-6.99303e-05
-1.02259e-07
-0.00280129
-4.01956e-07
-0.0115441
0.000118296
-1.14919e-05
-3.88218e-17
-8.06128e-07
-1.57624e-09
-0.000775786
-6.43552e-07
-0.0061501
-1.13211e-06
-0.0146326
9.06136e-05
-4.70976e-06
6.40403e-18
-8.15098e-07
-1.30813e-10
-0.000788529
-3.36129e-07
-0.00617822
-5.59556e-06
-0.0131168
7.34868e-05
-0.0114446
1.81102e-08
-9.67711e-11
2.53299e-12
-7.38564e-05
-6.78931e-09
-0.00295388
-1.03e-06
-0.0096327
-8.73206e-06
-0.0154725
7.77027e-05
-0.0102331
1.05594e-08
-9.30621e-11
1.4886e-12
-7.25083e-05
4.12087e-09
-0.00296898
-5.58552e-07
-0.00963909
-5.98013e-06
-0.0148307
6.96082e-06
-0.0189206
-2.46519e-05
-3.40829e-07
3.21514e-18
-7.45077e-07
4.4089e-10
-0.000784977
2.79639e-08
-0.00625841
-1.09817e-06
-0.0123905
-7.84181e-06
-0.0163577
1.47306e-05
-0.019311
-4.58617e-05
-1.43748e-07
1.7932e-17
-7.14461e-07
6.05168e-10
-0.000766403
3.26124e-08
-0.00623949
-3.39473e-07
-0.0123387
-4.23913e-06
-0.0158058
-1.54089e-05
-0.0193256
5.45683e-05
-0.00583668
1.85614e-09
-7.9951e-11
1.74558e-12
-6.60399e-05
1.40428e-08
-0.00287145
8.33876e-08
-0.00957706
-4.24513e-07
-0.0142291
-5.00797e-06
-0.0168239
-1.5411e-05
-0.0200338
3.59702e-05
-0.00415854
1.04687e-09
-7.59659e-11
1.54687e-12
-6.35952e-05
1.20733e-08
-0.00282198
1.78561e-07
-0.0095003
3.52862e-07
-0.0141737
-2.57987e-06
-0.0165108
-9.02941e-06
-0.0189262
3.7135e-05
-0.0193851
-4.90904e-05
-1.1728e-08
2.91811e-17
-6.25322e-07
5.27038e-10
-0.000707967
7.51114e-08
-0.00601382
3.64775e-07
-0.0121845
4.83751e-07
-0.0153918
-2.71565e-06
-0.0172242
-7.907e-06
-0.0193893
4.03737e-05
-0.019308
-3.55846e-05
-5.25929e-09
3.84933e-17
-5.94981e-07
5.09084e-10
-0.000688691
7.74978e-08
-0.00592378
5.11701e-07
-0.0120978
3.90607e-07
-0.0153372
-1.8319e-07
-0.0170142
-4.40214e-06
-0.0185489
-2.57383e-06
-0.020655
-4.73858e-05
-0.000846581
3.48862e-10
-6.40893e-11
1.18347e-12
-5.68396e-05
1.12053e-08
-0.00264863
2.35504e-07
-0.00921744
8.10436e-07
-0.0139861
5.14472e-07
-0.0161661
-1.14024e-07
-0.0175074
-3.37754e-06
-0.0188202
1.09287e-06
-0.0207318
-7.82642e-05
-0.000416133
2.89199e-10
-6.10187e-11
6.04307e-13
-5.45309e-05
1.07084e-08
-0.00259257
2.43671e-07
-0.00911186
7.68784e-07
-0.0139166
1.17883e-06
-0.0160916
1.18205e-06
-0.0173764
-1.21416e-06
-0.0183335
1.07116e-06
-0.0198518
1.77605e-05
-0.01479
-1.27251e-06
-4.15437e-10
-2.52228e-17
-5.17956e-07
2.9917e-10
-0.000628046
6.77044e-08
-0.00565186
5.05367e-07
-0.0118261
1.0708e-06
-0.0151456
1.46525e-06
-0.0167271
1.62735e-06
-0.017691
-4.97572e-07
-0.0185093
3.49002e-06
-0.0203594
-9.84988e-06
-0.0115918
8.77961e-07
-1.06985e-10
2.52628e-17
-4.95582e-07
2.87076e-10
-0.000609979
7.36367e-08
-0.00555509
4.41774e-07
-0.0117352
1.11604e-06
-0.0150815
1.84375e-06
-0.0166627
1.27688e-06
-0.0175926
1.48479e-06
-0.0182002
1.93244e-06
-0.0196062
-2.29936e-06
-0.0209783
-0.000109676
-2.604e-05
7.39737e-12
-5.23817e-11
1.13284e-12
-4.89149e-05
7.27891e-09
-0.00241778
2.29333e-07
-0.00880359
7.28264e-07
-0.0136877
1.45898e-06
-0.0158999
2.23746e-06
-0.0171441
1.65026e-06
-0.0177832
2.45292e-06
-0.0183206
3.24796e-06
-0.0201776
-1.45536e-05
-0.0202236
-8.56397e-05
-1.00875e-05
9.90937e-13
-5.00179e-11
1.38786e-12
-4.71228e-05
7.04933e-09
-0.0023679
2.2205e-07
-0.00869446
7.24106e-07
-0.0136124
1.51256e-06
-0.0158427
2.04764e-06
-0.0170883
2.49134e-06
-0.017704
3.31192e-06
-0.0180925
2.37429e-06
-0.0192785
1.17182e-07
-0.0217854
-0.000140997
-0.00279895
1.19936e-07
-1.37394e-13
-8.73379e-18
-4.36369e-07
3.56103e-10
-0.000560132
4.68135e-08
-0.00528934
4.64373e-07
-0.011443
1.01174e-06
-0.0149033
1.8693e-06
-0.0164815
2.42309e-06
-0.0174106
2.83417e-06
-0.017808
3.92928e-06
-0.0181657
2.84306e-06
-0.0197333
-8.30031e-06
-0.0211522
-0.000166016
-0.00133078
1.88036e-08
-2.5933e-14
1.93734e-17
-4.19378e-07
2.32658e-10
-0.00054504
5.42734e-08
-0.00520635
3.3797e-07
-0.0113505
1.11826e-06
-0.0148428
1.67776e-06
-0.0164312
2.51073e-06
-0.0173602
3.46521e-06
-0.0177558
2.75603e-06
-0.0179911
4.9551e-06
-0.0188971
-2.22442e-06
-0.0215629
-0.000154119
-0.0140911
-1.16951e-05
-1.70311e-07
5.72663e-15
-4.36313e-11
5.20754e-13
-4.26348e-05
6.05483e-09
-0.0022206
1.7209e-07
-0.00840474
5.70573e-07
-0.0133746
1.45215e-06
-0.0156964
1.99516e-06
-0.0169294
2.88682e-06
-0.0175612
3.83537e-06
-0.0178013
3.00784e-06
-0.018024
5.01772e-06
-0.0191653
-1.21501e-05
-0.0216243
-0.000244663
-0.0103828
-2.20468e-06
-2.75952e-08
1.60308e-15
-4.18265e-11
9.97568e-13
-4.12609e-05
4.97991e-09
-0.0021779
1.77719e-07
-0.00830837
5.22518e-07
-0.0133024
1.39537e-06
-0.0156475
1.90864e-06
-0.0168805
3.08007e-06
-0.0175194
3.43718e-06
-0.0177579
3.63714e-06
-0.0178784
4.8355e-06
-0.0185223
-5.29676e-06
-0.0208344
-7.37668e-05
-0.0190754
-9.38058e-05
-4.29215e-05
3.24412e-10
-4.82167e-16
-3.941e-18
-3.74151e-07
2.76152e-10
-0.00050472
3.53399e-08
-0.00497404
3.76516e-07
-0.0110833
7.5878e-07
-0.014668
1.72578e-06
-0.0162826
2.23457e-06
-0.0172256
3.47052e-06
-0.0176325
3.68799e-06
-0.0177638
3.68621e-06
-0.0178835
4.13794e-06
-0.0186656
-1.53071e-05
-0.0210769
-0.000131801
-0.0172796
-5.31137e-05
-9.06829e-06
3.87547e-10
-1.60566e-16
-1.99916e-17
-3.60864e-07
2.03923e-10
-0.000492586
4.31423e-08
-0.00490356
2.95798e-07
-0.0109984
8.72321e-07
-0.0146124
1.38336e-06
-0.0162349
2.41272e-06
-0.0171832
3.05842e-06
-0.0175968
3.81538e-06
-0.0177206
4.48248e-06
-0.0177765
2.0826e-06
-0.0181882
-4.15951e-06
-0.0200866
-8.57006e-05
-0.0195955
-0.000331892
-0.000823466
4.54859e-07
-1.66373e-10
8.53104e-17
-3.70749e-11
-1.33473e-13
-3.77094e-05
5.53429e-09
-0.0020569
1.4118e-07
-0.00805108
5.01444e-07
-0.0130853
1.15043e-06
-0.0155091
1.67821e-06
-0.0167384
2.7414e-06
-0.0174049
3.37913e-06
-0.0176477
4.00116e-06
-0.0176971
4.37387e-06
-0.0177502
5.32456e-07
-0.0183019
-1.40482e-05
-0.0204383
-0.000124397
-0.0188855
-0.000197317
-0.000180463
1.34993e-07
-2.26636e-11
6.82346e-17
-3.57697e-11
-2.39108e-13
-3.66513e-05
3.92884e-09
-0.00202149
1.51403e-07
-0.00796914
4.44411e-07
-0.0130185
1.18063e-06
-0.0154632
1.52983e-06
-0.0166945
2.77606e-06
-0.0173703
3.09026e-06
-0.0176153
4.45654e-06
-0.0176603
3.71427e-06
-0.0176704
1.74232e-06
-0.0179302
-7.65471e-06
-0.0195227
-9.49235e-05
-0.020004
-0.000453149
-0.00477543
1.64771e-06
-4.48844e-08
3.09271e-12
-7.1352e-17
-6.66946e-18
-3.27656e-07
5.06915e-11
-0.000460276
2.82203e-08
-0.0047089
3.26164e-07
-0.0107625
6.53404e-07
-0.0144515
1.4689e-06
-0.0161011
1.82119e-06
-0.017065
3.12525e-06
-0.0175005
3.29809e-06
-0.017622
4.6344e-06
-0.0176162
3.25967e-06
-0.0176256
-2.96974e-07
-0.0180214
-1.8256e-05
-0.0199139
-0.000138637
-0.0189776
-0.000441449
-0.0014535
1.09516e-06
-4.52287e-09
6.69077e-13
-5.2449e-17
1.53576e-17
-3.17541e-07
9.40133e-11
-0.000451344
1.89804e-08
-0.00465002
2.77419e-07
-0.0106888
7.38308e-07
-0.0144016
1.21355e-06
-0.0160587
2.0076e-06
-0.0170285
2.68788e-06
-0.0174705
3.53339e-06
-0.0175937
4.00164e-06
-0.0175826
3.60563e-06
-0.017556
1.44481e-06
-0.0177508
-1.45815e-05
-0.0190973
-9.21915e-05
-0.0200871
-0.000441397
-0.0102331
-2.45992e-06
-9.95854e-07
2.00895e-10
-2.22638e-13
1.57029e-17
-3.20297e-11
5.29478e-13
-3.40259e-05
2.77325e-09
-0.00192601
6.95325e-08
-0.00774979
4.73499e-07
-0.0128275
9.68564e-07
-0.0153377
1.47038e-06
-0.0165699
2.31889e-06
-0.0172712
3.01894e-06
-0.0175337
3.69532e-06
-0.0175675
3.9966e-06
-0.0175248
2.90008e-06
-0.0175036
-1.12226e-06
-0.0178279
-2.64186e-05
-0.0195062
-0.000139269
-0.0191314
-0.000561293
-0.00480379
-3.68045e-07
-1.47287e-07
8.65578e-12
-8.81822e-14
1.26899e-18
-3.11523e-11
6.4688e-13
-3.31659e-05
3.46359e-09
-0.00189948
6.29088e-08
-0.00768289
3.70999e-07
-0.0127701
1.03856e-06
-0.0152981
1.32389e-06
-0.016531
2.372e-06
-0.0172422
2.74263e-06
-0.0175071
4.01073e-06
-0.0175449
3.39052e-06
-0.0174897
4.03116e-06
-0.0174403
-1.29073e-06
-0.0176111
-1.72413e-05
-0.0187607
-9.89093e-05
-0.0201512
-0.000383179
-0.0136514
-2.17515e-06
-5.17437e-06
1.34937e-08
-6.8327e-13
3.80819e-14
-8.19755e-20
6.64393e-19
-2.91996e-07
1.73198e-10
-0.000426362
2.36731e-08
-0.00449935
1.48072e-07
-0.0104886
5.47522e-07
-0.0142603
1.28606e-06
-0.0159403
1.56866e-06
-0.0169254
2.67767e-06
-0.0173883
3.02342e-06
-0.0175216
4.203e-06
-0.0174977
3.12215e-06
-0.0174221
3.16996e-06
-0.0173901
-4.6664e-06
-0.0176826
-2.98005e-05
-0.0191652
-0.000149926
-0.0192126
-0.000533007
-0.00852358
1.18618e-06
-4.02596e-07
5.59678e-10
-4.47611e-14
5.10971e-14
-9.95768e-21
-3.29541e-18
-2.85569e-07
1.57399e-10
-0.000419198
2.88831e-08
-0.00445349
1.61606e-07
-0.010432
4.36753e-07
-0.014217
1.14609e-06
-0.0159041
1.68048e-06
-0.016893
2.31975e-06
-0.0173627
3.15556e-06
-0.0174987
3.86088e-06
-0.0174761
3.53769e-06
-0.017389
2.55317e-06
-0.0173334
-2.91222e-06
-0.0174837
-2.05702e-05
-0.0185201
-0.00011049
-0.0199651
-0.000352143
-0.0152523
-7.0615e-05
-1.45197e-05
1.8007e-08
1.23375e-13
4.54186e-15
-9.33066e-14
1.77354e-21
-2.84677e-11
1.49145e-13
-3.13244e-05
4.17292e-09
-0.00182352
9.69631e-08
-0.00751472
2.83193e-07
-0.0126123
6.04732e-07
-0.0151912
1.37458e-06
-0.0164231
1.93265e-06
-0.0171568
2.59726e-06
-0.0174371
3.37741e-06
-0.017477
4.02465e-06
-0.017414
3.13519e-06
-0.0173142
1.25017e-06
-0.017296
-7.0192e-06
-0.0175601
-3.43066e-05
-0.0189243
-0.000163042
-0.0191351
-0.000498845
-0.0111535
-3.65131e-06
-9.18706e-07
3.83227e-09
-7.27095e-13
3.22988e-15
-1.9908e-13
3.51919e-22
-2.76686e-11
1.02678e-13
-3.07391e-05
3.49046e-09
-0.00180612
1.11199e-07
-0.00745987
3.2143e-07
-0.0125681
5.57459e-07
-0.0151609
1.12253e-06
-0.0163904
2.04645e-06
-0.0171313
2.34376e-06
-0.0174154
3.46036e-06
-0.0174584
3.5959e-06
-0.0173911
4.06174e-06
-0.0172849
5.16335e-07
-0.0172369
-3.65765e-06
-0.0173872
-2.76413e-05
-0.0183621
-0.000115553
-0.0197949
-0.000350514
-0.0159198
-0.000175519
-3.3715e-05
6.94056e-10
-1.46192e-10
2.31739e-12
-8.63698e-15
2.05828e-13
-5.41472e-23
1.86124e-18
-2.65309e-07
7.05233e-11
-0.000403006
2.37894e-08
-0.00433906
2.39156e-07
-0.0102745
4.8438e-07
-0.0141041
7.08875e-07
-0.0158179
1.32339e-06
-0.0168067
2.29446e-06
-0.0172921
2.58861e-06
-0.0174371
3.64993e-06
-0.0174121
3.61376e-06
-0.0173174
3.62016e-06
-0.0172107
-1.30165e-06
-0.0171957
-8.31747e-06
-0.0174628
-4.29602e-05
-0.0187708
-0.000168811
-0.0190713
-0.00047878
-0.0126551
-1.63428e-05
-1.54434e-06
5.1857e-10
-3.66909e-13
2.22939e-12
-5.08249e-14
9.14711e-14
-6.54719e-24
3.77094e-18
-2.60952e-07
7.30827e-11
-0.0003973
1.825e-08
-0.00431148
2.3055e-07
-0.0102296
5.42091e-07
-0.01407
7.44431e-07
-0.0157943
1.15216e-06
-0.0167788
2.09659e-06
-0.0172721
2.63413e-06
-0.0174177
3.32946e-06
-0.017395
3.63105e-06
-0.0172945
3.68537e-06
-0.0171888
-1.29521e-07
-0.0171302
-7.52577e-06
-0.0173048
-3.31757e-05
-0.0182416
-0.000125086
-0.0196693
-0.000361555
-0.0160242
-0.000296195
-6.74001e-05
4.53277e-10
-1.6806e-10
1.16635e-10
-3.25887e-13
3.63803e-13
-2.18176e-14
5.96893e-25
-2.60086e-11
2.23969e-13
-2.92867e-05
2.17972e-09
-0.00175469
6.38916e-08
-0.00734496
3.95817e-07
-0.0124426
7.24618e-07
-0.0150823
9.11516e-07
-0.0163142
1.36056e-06
-0.0170604
2.32822e-06
-0.0173563
2.826e-06
-0.017402
3.50121e-06
-0.0173314
3.49158e-06
-0.0172144
3.10688e-06
-0.0171148
-2.29675e-06
-0.0171003
-1.32073e-05
-0.0173943
-5.01405e-05
-0.0186572
-0.000180734
-0.0189787
-0.000476914
-0.0133256
-4.66954e-05
-1.8481e-06
2.86972e-11
-6.97623e-12
2.58383e-10
-3.16172e-17
2.51437e-12
-3.3741e-15
3.55611e-26
-2.53294e-11
1.79056e-13
-2.89974e-05
2.72021e-09
-0.00173985
5.74097e-08
-0.00730976
2.97971e-07
-0.0124136
7.7915e-07
-0.0150578
9.82201e-07
-0.0162924
1.26785e-06
-0.0170379
1.99368e-06
-0.0173381
2.91342e-06
-0.0173862
3.14858e-06
-0.017315
3.73296e-06
-0.0171949
2.60183e-06
-0.0170862
-1.78206e-08
-0.017045
-1.24263e-05
-0.017236
-3.76655e-05
-0.0181671
-0.00014045
-0.0195392
-0.00036932
-0.0159566
-0.000385342
-0.000115864
3.56174e-09
-3.47375e-11
1.22884e-12
-2.24087e-10
1.78988e-18
-1.2103e-11
3.11665e-16
-1.54814e-27
1.83046e-18
-2.47748e-07
9.66006e-11
-0.000386776
2.02007e-08
-0.00422674
1.3143e-07
-0.0101307
4.43246e-07
-0.0139833
9.89349e-07
-0.0157334
1.16369e-06
-0.0167076
1.49308e-06
-0.017211
2.20677e-06
-0.0173671
3.05498e-06
-0.0173426
3.22925e-06
-0.0172393
3.49979e-06
-0.017113
1.68885e-06
-0.0170177
-2.46519e-06
-0.0170266
-1.91593e-05
-0.0173268
-5.63335e-05
-0.0185873
-0.0001987
-0.0188256
-0.000476946
-0.013584
-8.25486e-05
-2.05439e-06
1.92974e-10
-3.52265e-13
1.81843e-10
-6.90716e-11
3.43003e-16
-1.69782e-11
1.41647e-17
-6.82539e-29
1.24666e-18
-2.42543e-07
7.6325e-11
-0.000383684
1.94374e-08
-0.00421146
1.33968e-07
-0.0100971
3.83372e-07
-0.0139632
9.73722e-07
-0.0157149
1.28486e-06
-0.0166877
1.48357e-06
-0.0171928
2.0384e-06
-0.0173499
2.903e-06
-0.017328
3.13035e-06
-0.0172214
3.48441e-06
-0.0170928
1.75209e-06
-0.0169901
-1.35748e-06
-0.0169705
-1.50509e-05
-0.0171672
-4.70625e-05
-0.018126
-0.000154958
-0.0194012
-0.00038661
-0.0157952
-0.000427042
-0.000160769
4.21788e-10
-1.49178e-11
2.16727e-16
-3.94941e-10
1.62668e-11
-1.0792e-13
9.82695e-12
-6.20848e-19
1.79597e-30
-2.37029e-11
1.84204e-13
-2.78093e-05
2.16686e-09
-0.00171404
6.91433e-08
-0.00722774
2.36726e-07
-0.0123316
5.08586e-07
-0.0150021
1.16797e-06
-0.0162312
1.48269e-06
-0.016979
1.69579e-06
-0.0172859
2.25735e-06
-0.0173391
3.02555e-06
-0.0172669
3.07392e-06
-0.0171397
3.18798e-06
-0.0170119
5.16886e-07
-0.0169255
-4.29904e-06
-0.0169582
-2.26007e-05
-0.0172721
-6.81366e-05
-0.0185752
-0.000215757
-0.0186008
-0.000490684
-0.0135646
-0.000100505
-1.8519e-06
1.01194e-11
-2.85189e-14
4.00215e-13
-4.58845e-10
8.70955e-13
-2.6856e-12
2.4889e-12
-2.40105e-20
1.01905e-31
-2.35599e-11
1.11371e-13
-2.74653e-05
2.05716e-09
-0.00170253
6.52556e-08
-0.00721513
2.87679e-07
-0.0123088
4.66247e-07
-0.0149861
9.55761e-07
-0.0162149
1.63427e-06
-0.0169615
1.74047e-06
-0.0172712
2.17415e-06
-0.0173254
2.73981e-06
-0.0172532
3.09745e-06
-0.0171231
2.79699e-06
-0.0169893
1.34211e-06
-0.0168977
-4.30633e-06
-0.0169048
-1.68903e-05
-0.017121
-5.77653e-05
-0.0181138
-0.000170026
-0.0192529
-0.000406304
-0.01558
-0.000446158
-0.000187364
-1.07993e-11
-1.4681e-12
2.69803e-18
-9.99748e-12
4.7827e-10
-1.80271e-18
4.23246e-11
-3.20314e-13
6.65067e-22
-1.27794e-33
-1.655e-18
-2.34746e-07
5.72703e-11
-0.000372848
1.50806e-08
-0.00416727
1.47826e-07
-0.0100417
4.28782e-07
-0.0139026
5.9088e-07
-0.0156726
1.13213e-06
-0.0166305
1.85654e-06
-0.0171439
1.92238e-06
-0.0173067
2.39215e-06
-0.0172846
2.84541e-06
-0.0171785
2.91327e-06
-0.0170366
2.29407e-06
-0.0169147
-1.56121e-07
-0.0168438
-7.92709e-06
-0.0168969
-2.54213e-05
-0.0172473
-8.1252e-05
-0.0185683
-0.00023465
-0.018356
-0.000508319
-0.0133556
-0.000108494
-1.40199e-06
6.83363e-14
-5.84363e-17
2.02937e-15
-5.2832e-11
2.11222e-10
-5.84162e-18
1.17653e-10
-1.81392e-14
1.1011e-23
-2.78863e-36
-1.85244e-18
-2.3401e-07
8.23332e-11
-0.000371262
1.54671e-08
-0.0041485
1.24913e-07
-0.0100274
4.22596e-07
-0.0138921
6.39698e-07
-0.015658
8.95632e-07
-0.016615
1.85692e-06
-0.0171304
2.06911e-06
-0.0172933
2.29914e-06
-0.0172723
2.79615e-06
-0.0171633
2.97812e-06
-0.0170214
2.01858e-06
-0.0168885
6.7614e-07
-0.0168103
-6.89252e-06
-0.0168348
-2.12211e-05
-0.0170927
-6.56712e-05
-0.0181247
-0.000192483
-0.0190974
-0.00042577
-0.0153228
-0.000444259
-0.000173439
2.36905e-10
-1.29195e-14
4.50337e-21
-1.18146e-14
2.4292e-10
-4.40606e-11
7.11554e-14
-1.15509e-10
4.01695e-16
-6.53532e-26
2.55175e-38
-2.28298e-11
9.78776e-14
-2.72338e-05
2.41712e-09
-0.00167784
5.42503e-08
-0.00715762
2.17844e-07
-0.0122741
5.80765e-07
-0.0149479
7.90081e-07
-0.0161727
1.05261e-06
-0.0169154
2.09918e-06
-0.0172304
2.24291e-06
-0.0172863
2.47191e-06
-0.017212
2.89474e-06
-0.0170789
2.74757e-06
-0.0169355
1.23061e-06
-0.0168161
-1.04376e-06
-0.0167711
-1.12236e-05
-0.0168443
-3.12459e-05
-0.0172417
-9.16391e-05
-0.0186009
-0.000260774
-0.0180599
-0.000526521
-0.012979
-0.000101825
-7.51868e-07
1.06043e-12
-1.63431e-16
6.83378e-19
-2.0433e-14
5.40073e-10
-1.92745e-12
9.3497e-12
-4.16166e-11
5.58156e-18
-1.19922e-27
1.16701e-40
-2.22877e-11
7.82925e-14
-2.71603e-05
2.27523e-09
-0.00168019
5.79561e-08
-0.00714239
2.12786e-07
-0.0122592
5.35196e-07
-0.0149413
8.78469e-07
-0.01616
9.8915e-07
-0.0169024
1.71274e-06
-0.0172184
2.4916e-06
-0.0172747
2.37817e-06
-0.0171985
2.89097e-06
-0.0170669
2.68752e-06
-0.0169203
1.31131e-06
-0.0167997
-1.22107e-06
-0.0167366
-8.6361e-06
-0.0167818
-2.80771e-05
-0.0170829
-7.41042e-05
-0.0181737
-0.00021651
-0.0189038
-0.000446957
-0.0150214
-0.000415359
-0.000127527
-5.73769e-14
-2.62661e-17
1.96613e-15
4.74603e-21
1.95141e-12
-5.98161e-10
1.98415e-17
-1.55528e-10
4.77481e-12
-4.92053e-20
7.21573e-30
-4.38686e-43
-3.44722e-19
-2.25725e-07
5.12832e-11
-0.000371662
1.63889e-08
-0.00413549
1.32357e-07
-0.00997669
3.19003e-07
-0.013864
6.66668e-07
-0.0156334
1.05426e-06
-0.0165758
1.13663e-06
-0.0170912
1.91239e-06
-0.0172575
2.68056e-06
-0.0172372
2.46882e-06
-0.0171254
2.949e-06
-0.0169776
2.38971e-06
-0.0168386
2.57079e-07
-0.0167308
-3.40116e-06
-0.016705
-1.35378e-05
-0.0168068
-3.95602e-05
-0.0172473
-0.000103514
-0.0186671
-0.000287842
-0.0177289
-0.000551319
-0.0124461
-8.08702e-05
-2.32232e-07
9.35174e-18
-9.41604e-16
1.10565e-16
1.63671e-18
5.49672e-11
-2.35429e-10
4.70166e-17
-5.28339e-10
1.76659e-13
-2.99846e-22
5.41779e-33
-9.36463e-46
5.30819e-19
-2.21129e-07
3.45862e-11
-0.000370126
1.6619e-08
-0.0041419
1.52198e-07
-0.00997365
3.25151e-07
-0.0138525
5.46106e-07
-0.0156255
1.1085e-06
-0.0165656
1.26214e-06
-0.0170801
1.5229e-06
-0.0172445
2.80021e-06
-0.0172264
2.60949e-06
-0.0171127
2.74802e-06
-0.0169646
2.6322e-06
-0.0168196
9.03982e-07
-0.0167032
-3.52793e-06
-0.0166652
-1.07627e-05
-0.0167423
-3.42961e-05
-0.0170729
-8.70028e-05
-0.0182526
-0.000239455
-0.0185694
-0.000472769
-0.0146503
-0.000367551
-6.81634e-05
2.74581e-13
-7.08588e-17
1.92328e-19
1.26588e-17
1.37387e-15
-2.83628e-10
3.41839e-11
-1.32428e-12
4.43392e-10
-1.5776e-15
2.21419e-24
-1.17476e-35
1.1033e-48
-2.07245e-11
1.26206e-13
-2.62336e-05
1.15316e-09
-0.00167964
6.08623e-08
-0.00715682
2.67683e-07
-0.0122313
4.41884e-07
-0.0149183
6.64315e-07
-0.0161341
1.29894e-06
-0.016868
1.42883e-06
-0.0171839
1.66926e-06
-0.0172388
3.01104e-06
-0.0171666
2.64616e-06
-0.0170292
2.69815e-06
-0.0168758
2.25072e-06
-0.0167362
-2.64734e-07
-0.0166491
-6.34777e-06
-0.0166436
-1.63364e-05
-0.0167712
-4.72589e-05
-0.0172641
-0.000120109
-0.0187445
-0.000312096
-0.0173199
-0.000580753
-0.0117236
-5.29714e-05
-1.25388e-08
3.50878e-19
-9.43753e-18
4.74214e-18
1.5338e-17
1.12325e-13
-7.20008e-10
5.37527e-13
-1.17908e-10
8.2184e-11
-6.69116e-18
2.59135e-27
-1.61603e-38
7.52106e-52
-2.04402e-11
6.45758e-14
-2.58655e-05
1.43191e-09
-0.00167046
4.70447e-08
-0.00716271
2.11238e-07
-0.0122398
4.25859e-07
-0.0149118
6.47332e-07
-0.0161276
1.06939e-06
-0.0168597
1.65555e-06
-0.017174
1.5644e-06
-0.017227
2.46379e-06
-0.0171543
3.06372e-06
-0.0170174
2.37002e-06
-0.0168614
2.47212e-06
-0.0167222
1.38038e-07
-0.0166262
-5.52808e-06
-0.0166044
-1.53649e-05
-0.0167158
-3.96854e-05
-0.0170854
-0.000102688
-0.0183591
-0.000265673
-0.0182091
-0.000499731
-0.0141802
-0.000305737
-2.35301e-05
5.88036e-16
-1.42494e-16
1.4518e-19
-3.92372e-16
4.02994e-17
-2.25905e-11
5.86319e-10
-1.03095e-18
1.15149e-09
-3.88839e-12
1.93092e-20
-1.17324e-30
1.07727e-41
-2.84977e-55
1.52628e-18
-2.11099e-07
4.38196e-11
-0.000359976
1.08633e-08
-0.00412652
1.09492e-07
-0.0100007
3.27998e-07
-0.0138482
5.48856e-07
-0.0156065
7.62906e-07
-0.016541
1.2251e-06
-0.0170517
1.86369e-06
-0.0172139
1.69064e-06
-0.017191
2.61057e-06
-0.0170813
3.08777e-06
-0.0169273
2.14221e-06
-0.0167741
1.97996e-06
-0.016643
-1.29086e-06
-0.0165808
-8.75428e-06
-0.0165955
-2.21117e-05
-0.0167659
-5.44368e-05
-0.0173155
-0.000140017
-0.018858
-0.000338105
-0.0169255
-0.000604555
-0.0107462
-2.52393e-05
-8.35216e-10
1.06275e-16
-9.28815e-17
5.19735e-18
-3.48294e-15
6.42613e-19
-2.46548e-10
1.49798e-10
-8.45957e-13
1.52379e-09
-3.61985e-14
4.41936e-23
-1.00367e-33
3.43615e-45
-5.01086e-59
2.64944e-18
-2.10554e-07
5.02355e-11
-0.000357358
1.19926e-08
-0.00410968
7.41023e-08
-0.00999971
2.65601e-07
-0.0138541
7.26062e-07
-0.0156041
8.00181e-07
-0.016534
1.01507e-06
-0.0170427
1.87699e-06
-0.0172036
1.91288e-06
-0.0171823
2.00858e-06
-0.0170693
3.44916e-06
-0.0169193
2.25332e-06
-0.0167586
1.71649e-06
-0.0166289
-5.08525e-07
-0.0165527
-6.84159e-06
-0.0165613
-2.07957e-05
-0.0166886
-4.63234e-05
-0.0171241
-0.000118679
-0.0184927
-0.000295907
-0.0178263
-0.000530462
-0.0135468
-0.000225142
-4.24776e-06
1.46752e-16
-1.80052e-16
1.01256e-19
-5.70773e-17
2.25725e-14
-1.4985e-13
8.99206e-10
-3.77163e-12
1.8374e-10
-3.35021e-10
6.95745e-17
-1.95506e-26
4.03513e-37
-4.86113e-49
2.9554e-63
-2.04814e-11
1.59389e-13
-2.5395e-05
1.49964e-09
-0.00164195
4.2453e-08
-0.00712609
1.27898e-07
-0.012255
3.98713e-07
-0.0149163
8.94825e-07
-0.0161096
9.31219e-07
-0.0168364
1.13646e-06
-0.0171453
2.0717e-06
-0.0172004
2.05548e-06
-0.017122
2.06132e-06
-0.016985
3.48588e-06
-0.0168276
1.87741e-06
-0.0166714
9.79243e-07
-0.0165649
-2.23354e-06
-0.01651
-1.04873e-05
-0.0165545
-2.85886e-05
-0.0167497
-6.3306e-05
-0.0173977
-0.000160771
-0.0189385
-0.000367247
-0.0164988
-0.000629252
-0.00944424
-7.57933e-06
-1.55788e-10
4.00683e-16
-2.00433e-19
1.07826e-16
-3.97112e-15
1.01711e-15
-1.11279e-11
1.01214e-09
-3.97762e-18
2.29488e-09
-1.38025e-11
9.43746e-20
-1.96518e-30
6.90779e-41
-2.49476e-53
3.51552e-68
-2.05721e-11
1.38247e-13
-2.54927e-05
1.92377e-09
-0.0016382
4.44725e-08
-0.00710771
1.55812e-07
-0.0122457
3.74253e-07
-0.014919
7.37686e-07
-0.0161078
1.00894e-06
-0.0168307
1.11791e-06
-0.0171368
1.69815e-06
-0.0171887
2.48685e-06
-0.0171151
1.9174e-06
-0.0169715
2.78073e-06
-0.016817
2.58777e-06
-0.0166596
4.09694e-07
-0.0165477
-1.47654e-06
-0.0164888
-9.06736e-06
-0.0165135
-2.51933e-05
-0.0166717
-5.71051e-05
-0.0171885
-0.000135829
-0.0186166
-0.00032832
-0.0173443
-0.000565197
-0.0126807
-0.000136699
-4.16411e-07
2.35957e-16
-8.27001e-18
2.06295e-20
-4.23363e-15
2.39434e-15
-2.76127e-18
2.71819e-10
-1.51433e-10
3.37885e-12
-3.12435e-09
6.82174e-14
-2.18066e-23
3.67994e-34
-4.49984e-45
3.06753e-58
-5.31948e-74
1.37703e-18
-2.13454e-07
5.82258e-11
-0.000357544
1.48114e-08
-0.00407641
1.03933e-07
-0.00995498
2.26209e-07
-0.013853
4.67557e-07
-0.0156068
8.92133e-07
-0.0165157
1.19783e-06
-0.0170213
1.22762e-06
-0.0171787
1.83913e-06
-0.0171539
2.67571e-06
-0.0170388
1.91241e-06
-0.0168801
2.69375e-06
-0.0167265
2.13576e-06
-0.0165823
-6.95574e-07
-0.0164873
-3.50994e-06
-0.0164611
-1.34641e-05
-0.0165312
-3.41751e-05
-0.0167642
-7.66589e-05
-0.017509
-0.000183759
-0.0189759
-0.000398183
-0.016075
-0.000650867
-0.00776542
-1.17641e-06
-2.90178e-12
6.33793e-16
-3.34731e-17
3.8136e-16
-1.52462e-15
1.36255e-16
-6.96653e-14
9.53234e-10
-1.60917e-12
6.64026e-10
-5.12491e-10
4.23022e-17
-3.2584e-27
2.75501e-38
-7.44674e-50
1.70302e-63
-5.71475e-80
-1.39556e-19
-2.13718e-07
5.15205e-11
-0.000359547
1.58034e-08
-0.00408115
1.02643e-07
-0.00994412
2.40593e-07
-0.013845
3.14032e-07
-0.0156061
7.87052e-07
-0.0165133
1.46686e-06
-0.0170158
1.32526e-06
-0.0171727
1.43764e-06
-0.017144
2.60388e-06
-0.0170292
2.32782e-06
-0.0168715
1.85242e-06
-0.0167126
2.94881e-06
-0.0165692
-5.08309e-07
-0.0164628
-3.48104e-06
-0.016433
-1.16639e-05
-0.0164922
-2.92969e-05
-0.0166785
-6.87946e-05
-0.0172778
-0.000156651
-0.0187719
-0.000359234
-0.0168145
-0.000600078
-0.0114822
-6.28725e-05
-2.46796e-08
1.94887e-19
-1.76129e-19
2.15652e-15
-3.03459e-15
1.60088e-16
7.89015e-19
2.95224e-11
-8.94358e-10
5.81542e-18
-5.35503e-09
9.91557e-12
-1.69662e-20
3.97454e-31
-6.43008e-43
2.07899e-55
-3.86377e-69
3.37075e-86
-2.02937e-11
2.94841e-13
-2.58354e-05
1.66717e-09
-0.00165352
5.75173e-08
-0.00709831
1.84976e-07
-0.0122135
3.16938e-07
-0.0149097
3.6277e-07
-0.0161065
9.39206e-07
-0.0168139
1.67658e-06
-0.0171178
1.44834e-06
-0.0171677
1.51008e-06
-0.0170833
2.74461e-06
-0.016944
2.32491e-06
-0.0167794
1.5966e-06
-0.0166242
2.45101e-06
-0.0164986
-1.95703e-06
-0.0164217
-6.08889e-06
-0.0164242
-1.69367e-05
-0.0165196
-3.95321e-05
-0.0167866
-9.10926e-05
-0.0176476
-0.000210992
-0.0189127
-0.000423171
-0.0156983
-0.000660993
-0.00576695
1.44923e-07
-2.16795e-15
5.67586e-18
-1.47053e-16
6.54916e-15
-7.16089e-15
5.30795e-16
-1.83288e-15
4.69499e-10
-9.33929e-11
4.21459e-11
-4.35624e-09
1.65063e-14
-1.12886e-24
1.64287e-35
-4.37325e-48
1.43173e-61
-1.85087e-74
7.1509e-94
-2.00054e-11
8.27732e-14
-2.58074e-05
1.42318e-09
-0.00166017
5.19829e-08
-0.00711359
2.36009e-07
-0.0122108
3.7576e-07
-0.0149029
4.29508e-07
-0.0161025
7.28191e-07
-0.0168109
1.42855e-06
-0.0171112
1.86106e-06
-0.01716
1.49088e-06
-0.0170743
2.1353e-06
-0.0169338
3.07483e-06
-0.0167711
1.44564e-06
-0.0166095
1.62782e-06
-0.0164872
-6.86002e-07
-0.0163965
-6.5967e-06
-0.0163934
-1.46396e-05
-0.0164675
-3.59433e-05
-0.0167009
-7.98761e-05
-0.0173956
-0.000183596
-0.0188494
-0.00039189
-0.0162581
-0.00063012
-0.00986427
-1.71976e-05
-7.43369e-10
1.14421e-17
-9.60991e-25
1.27816e-15
-9.91835e-16
4.98307e-16
-1.71599e-15
4.1772e-13
-1.29698e-09
3.83573e-14
-3.01517e-09
2.65334e-10
-4.36913e-18
1.66255e-29
-1.44398e-40
8.79268e-54
-2.71348e-69
1.15141e-79
-1.69958e-91
-4.96503e-19
-2.09267e-07
4.2891e-11
-0.000362117
1.14853e-08
-0.00412135
1.2489e-07
-0.0099643
3.62238e-07
-0.0138291
4.707e-07
-0.015594
4.88276e-07
-0.0165079
7.98517e-07
-0.0169978
1.61945e-06
-0.01715
2.11826e-06
-0.0171229
1.53571e-06
-0.0169989
2.16309e-06
-0.0168439
3.11015e-06
-0.0166784
1.05774e-06
-0.0165233
8.96461e-07
-0.0164232
-2.33941e-06
-0.016357
-9.81857e-06
-0.0163834
-2.07478e-05
-0.0165017
-4.81789e-05
-0.0168289
-0.000105573
-0.0177939
-0.000244147
-0.0186722
-0.000452753
-0.0152955
-0.000644795
-0.00364737
1.06365e-07
-1.45379e-16
1.4763e-21
-1.04026e-16
4.4838e-17
-8.20716e-19
8.5563e-19
-8.70145e-19
6.62196e-11
-5.60558e-10
2.98148e-14
-8.36854e-09
1.28542e-12
-1.74252e-22
2.85166e-34
-2.93563e-46
4.29541e-60
-9.48494e-78
4.03636e-89
-2.23639e-100
-3.20468e-19
-2.06205e-07
7.17618e-11
-0.000361133
1.20159e-08
-0.00412922
1.15986e-07
-0.00998448
3.64604e-07
-0.0138342
4.99128e-07
-0.0155892
5.20256e-07
-0.0165031
5.02592e-07
-0.0169937
1.49165e-06
-0.0171412
2.30286e-06
-0.017116
1.75441e-06
-0.0169932
1.53058e-06
-0.0168293
2.91883e-06
-0.0166691
1.80031e-06
-0.01651
-1.45582e-07
-0.0164054
-7.41326e-07
-0.0163404
-9.28456e-06
-0.0163474
-1.92938e-05
-0.0164601
-4.35364e-05
-0.0167231
-9.31174e-05
-0.0175188
-0.000213377
-0.0187374
-0.000419755
-0.0158032
-0.000652688
-0.00778383
-1.27422e-06
-1.14663e-11
2.76615e-19
-1.39802e-16
1.0359e-17
-3.55779e-20
1.48725e-18
-2.65953e-16
1.49287e-17
-7.37624e-10
1.31031e-11
-9.93216e-10
2.42704e-09
-1.65125e-16
3.44583e-27
-1.58403e-39
1.02296e-52
-2.66071e-66
9.58346e-78
-6.59176e-87
3.99493e-91
-1.88367e-11
9.45267e-14
-2.5193e-05
1.14921e-09
-0.00166194
3.61015e-08
-0.00716171
2.09316e-07
-0.0122471
4.99016e-07
-0.0149004
6.27937e-07
-0.0160898
5.85247e-07
-0.0168035
5.32686e-07
-0.0170919
1.69784e-06
-0.0171324
2.49978e-06
-0.0170552
1.81709e-06
-0.0169065
1.43525e-06
-0.0167359
2.83735e-06
-0.0165813
1.37187e-06
-0.0164385
-1.22893e-06
-0.0163467
-2.62803e-06
-0.0163148
-1.32451e-05
-0.0163604
-2.64639e-05
-0.0165033
-5.79076e-05
-0.0168708
-0.000123612
-0.0179337
-0.000279666
-0.0182163
-0.000483711
-0.0148833
-0.000589457
-0.00177711
7.61255e-09
-6.22151e-16
9.48407e-16
-3.79993e-16
4.6765e-18
2.63738e-21
5.33301e-18
-2.78803e-17
3.38281e-12
-1.06352e-09
1.43762e-15
-1.25478e-08
2.69611e-11
-1.01155e-20
3.14396e-32
-1.95272e-45
2.08759e-60
-4.32419e-72
6.86031e-81
-1.05573e-86
2.29194e-98
-1.84463e-11
7.05285e-14
-2.48667e-05
1.2053e-09
-0.00165527
4.22492e-08
-0.00716525
1.88666e-07
-0.0122614
5.10605e-07
-0.0149052
8.0629e-07
-0.0160865
7.64717e-07
-0.0167978
6.35826e-07
-0.0170876
9.93726e-07
-0.0171255
2.31791e-06
-0.0170445
2.89236e-06
-0.0168999
1.43643e-06
-0.0167236
1.85146e-06
-0.0165676
2.64233e-06
-0.0164301
-1.30649e-06
-0.016332
-3.39353e-06
-0.0163022
-1.08966e-05
-0.0163257
-2.60872e-05
-0.0164604
-5.16137e-05
-0.016766
-0.000111985
-0.0176533
-0.000245962
-0.0185233
-0.000449799
-0.0153933
-0.000651905
-0.00532772
2.52274e-07
-3.02104e-13
8.60147e-16
-3.3343e-15
8.95016e-17
-3.3527e-21
1.32874e-20
-3.17155e-17
1.67532e-19
-3.54798e-10
1.11298e-10
-2.40454e-11
6.08522e-09
-1.15591e-14
2.35883e-25
-1.01834e-37
3.76467e-52
-9.0394e-65
1.10703e-75
-1.4563e-83
1.5057e-89
-1.68436e-95
-1.1878e-18
-1.95666e-07
3.50138e-11
-0.000352738
9.28114e-09
-0.00411671
9.76577e-08
-0.0100171
2.92968e-07
-0.013864
6.77866e-07
-0.0155889
9.73354e-07
-0.0164897
8.70492e-07
-0.0169846
6.67606e-07
-0.0171244
1.06881e-06
-0.0170874
2.58383e-06
-0.0169694
3.05566e-06
-0.0168067
1.28077e-06
-0.0166302
1.55279e-06
-0.0164854
2.1715e-06
-0.0163636
-2.64407e-06
-0.0162851
-5.75137e-06
-0.0162838