/*--------------------------------*- C++ -*----------------------------------*\
| =========                 |                                                 |
| \\      /  F ield         | OpenFOAM: The Open Source CFD Toolbox           |
|  \\    /   O peration     | Version:  v2012                                 |
|   \\  /    A nd           | Website:  www.openfoam.com                      |
|    \\/     M anipulation  |                                                 |
\*---------------------------------------------------------------------------*/
FoamFile
{
    version     2.0;
    format      ascii;
    class       volScalarField;
    location    "0";
    object      I2_3;
}
// * * * * * * * * * * * * * * * * * * * * * * * * * * * * * * * * * * * * * //

dimensions      [0 0 0 0 0 0 0];


internalField   nonuniform List<scalar> 
39402
(
0.000287524
3.16695e-06
0.00598322
2.19745e-07
0.000800389
0.00930507
1.45735e-07
0.000108684
0.0087467
0.00747708
1.5967e-07
6.60382e-05
0.00230757
0.0244683
0.00476065
1.81448e-07
6.98196e-05
0.00148858
0.0105686
0.0394129
0.00287743
2.00037e-07
7.63934e-05
0.00153202
0.00786164
0.0242853
0.0490271
0.00164261
2.09562e-07
8.19652e-05
0.00162108
0.0079531
0.0198759
0.0388581
0.0536313
0.000908567
2.16651e-07
8.46437e-05
0.00169741
0.00821168
0.0198765
0.033875
0.0509496
0.0546329
0.000499219
2.19421e-07
8.66169e-05
0.00173111
0.00844333
0.020175
0.0335783
0.0462823
0.0596613
0.0533763
0.000274361
2.16556e-07
8.72582e-05
0.0017554
0.00853541
0.0204831
0.0336769
0.0455396
0.055624
0.0653469
0.0506887
0.000151568
2.1078e-07
8.61214e-05
0.00176032
0.00860002
0.020588
0.0338932
0.0452843
0.0543992
0.0620923
0.0688426
0.04717
8.39543e-05
2.0536e-07
8.40923e-05
0.00173883
0.00860023
0.0206574
0.0339377
0.0452987
0.0537647
0.0603974
0.0665555
0.0708282
0.0433121
4.70871e-05
1.9885e-07
8.21864e-05
0.00170426
0.00850946
0.0206286
0.0339613
0.0452432
0.0535551
0.0593573
0.0644788
0.0696965
0.0718243
0.0386442
2.63733e-05
1.91877e-07
7.99193e-05
0.00167195
0.00837467
0.02045
0.0338918
0.0451983
0.0534014
0.0589578
0.063005
0.0674429
0.0719649
0.0721916
0.0327486
1.49122e-05
1.85588e-07
7.75027e-05
0.00163381
0.00824854
0.020202
0.03366
0.045097
0.0532918
0.0587259
0.0624105
0.0656815
0.0695572
0.0736969
0.0721527
0.0262252
8.46743e-06
1.79368e-07
7.53111e-05
0.00159324
0.00810028
0.0199692
0.0333561
0.0448559
0.0531707
0.0585688
0.0620846
0.0648539
0.0677009
0.0710486
0.0749694
0.0721656
0.0197502
4.85373e-06
1.72568e-07
7.31255e-05
0.00155614
0.00794335
0.0196975
0.033069
0.0445599
0.0529498
0.0584394
0.0618777
0.0644009
0.0667075
0.0691061
0.0721873
0.0754305
0.0720582
0.0139546
2.7953e-06
1.65902e-07
7.07405e-05
0.0015189
0.00779849
0.0194098
0.0327382
0.0442792
0.0526975
0.0582492
0.0617283
0.0641319
0.0661578
0.0680294
0.0700856
0.0729248
0.0752066
0.0706059
0.00920628
1.67855e-06
1.60149e-07
6.83886e-05
0.00147831
0.00765222
0.0191428
0.0323885
0.0439601
0.0524563
0.0580468
0.0615478
0.0639323
0.0658487
0.0674283
0.0689298
0.0707595
0.0731016
0.0754123
0.0669406
0.00575347
9.35982e-07
1.54992e-07
6.63481e-05
0.001438
0.00749254
0.0188717
0.0320614
0.0436237
0.0521865
0.0578537
0.0613758
0.0637362
0.0656085
0.0670871
0.0682795
0.0695328
0.0712248
0.0733139
0.0762764
0.0606567
0.00322727
4.24456e-07
1.49816e-07
6.44953e-05
0.00140272
0.00733368
0.0185759
0.0317285
0.0433075
0.051905
0.0576433
0.0612109
0.0635621
0.0654029
0.0668366
0.0678928
0.0688271
0.0699721
0.0717697
0.0745603
0.0767487
0.0517301
0.00168715
1.61058e-07
1.44626e-07
6.26244e-05
0.00137033
0.00719236
0.0182798
0.0313653
0.0429852
0.0516384
0.0574256
0.0610384
0.0633959
0.0652328
0.0666363
0.0676368
0.0683945
0.0691898
0.070424
0.0727009
0.0765359
0.0762291
0.0411818
0.000882511
3.59201e-08
1.39997e-07
6.07576e-05
0.0013375
0.00706166
0.0180137
0.031
0.0426342
0.0513674
0.0572176
0.0608688
0.0632265
0.0650698
0.0664825
0.0674389
0.0681229
0.0687014
0.0694921
0.0710232
0.0741092
0.0780187
0.0745258
0.0302794
0.000464572
3.2254e-09
1.35753e-07
5.90688e-05
0.00130462
0.00692858
0.0177652
0.0306689
0.0422811
0.0510739
0.0570078
0.0607129
0.0630745
0.0649071
0.0663367
0.0672968
0.0679223
0.0683994
0.0689092
0.0698278
0.0718897
0.0756859
0.0781112
0.0714036
0.0204015
0.000227644
1.67974e-10
1.31631e-07
5.7531e-05
0.0012747
0.00679499
0.0175117
0.030357
0.041957
0.0507778
0.0567831
0.0605567
0.062946
0.064758
0.0661943
0.0671672
0.0677877
0.068187
0.0685532
0.0690926
0.070288
0.0730199
0.0768841
0.0767085
0.0664037
0.0125556
9.18966e-05
6.15952e-12
1.2762e-07
5.60278e-05
0.00124728
0.00667238
0.0172568
0.0300387
0.0416506
0.0505037
0.0565541
0.0603927
0.062817
0.0646258
0.0660562
0.0670384
0.0676689
0.0680523
0.0683125
0.0686481
0.069311
0.0709409
0.074092
0.0775303
0.0751382
0.0589182
0.00686663
3.11042e-05
1.7402e-13
1.23936e-07
5.45533e-05
0.00122042
0.00655941
0.0170205
0.0297178
0.041337
0.0502434
0.0563417
0.0602255
0.0626861
0.0644958
0.0659248
0.0669166
0.0675539
0.0679383
0.0681677
0.0683577
0.0687307
0.0696322
0.0716166
0.074969
0.0777284
0.0741142
0.0481587
0.00326001
9.36974e-06
4.37478e-16
1.20495e-07
5.31886e-05
0.00119406
0.00644841
0.0168017
0.0294183
0.0410202
0.0499776
0.0561395
0.0600692
0.0625552
0.0643644
0.0657985
0.0668025
0.0674464
0.067834
0.0680549
0.0681894
0.0683645
0.0688567
0.069995
0.0722567
0.0757919
0.0770802
0.072335
0.0343061
0.00132967
2.58964e-06
1.85493e-15
1.1713e-07
5.19235e-05
0.00116952
0.00633915
0.0165858
0.0291383
0.040723
0.0497084
0.0559331
0.0599183
0.0624272
0.064236
0.0656721
0.0666916
0.0673461
0.0677358
0.0679483
0.0680693
0.0681554
0.068378
0.0690031
0.0703629
0.0730624
0.076441
0.0752802
0.0679703
0.0199119
0.000470536
6.82133e-07
4.93891e-14
1.13938e-07
5.06869e-05
0.00114671
0.00623712
0.0163733
0.0288625
0.0404446
0.0494542
0.0557249
0.0597669
0.0623075
0.0641105
0.0655468
0.0665824
0.0672491
0.0676434
0.0678581
0.0679602
0.0680152
0.0681043
0.0683909
0.0691536
0.0709148
0.0739755
0.0766339
0.0733127
0.0595806
0.00909751
0.000148607
1.55062e-07
8.87497e-14
1.11187e-07
4.95132e-05
0.00112451
0.00614201
0.0161734
0.0285902
0.0401692
0.0492161
0.0555267
0.0596136
0.0621871
0.0639945
0.0654286
0.0664757
0.0671534
0.0675555
0.067773
0.0678697
0.0679002
0.0679339
0.0680386
0.0684061
0.0694506
0.0716665
0.0749013
0.0760067
0.0719273
0.0461155
0.00336191
4.21702e-05
2.61441e-08
3.93728e-14
1.08562e-07
4.84912e-05
0.00110338
0.00604956
0.0159873
0.0283329
0.039896
0.0489792
0.0553381
0.0594664
0.062064
0.0638752
0.0653151
0.0663753
0.0670638
0.0674738
0.0676914
0.0677894
0.0678055
0.0677976
0.0678316
0.0679768
0.0685098
0.0699328
0.0725819
0.0755414
0.0741842
0.0690907
0.0287089
0.00108459
1.08527e-05
3.05966e-09
3.71667e-15
1.05897e-07
4.75276e-05
0.00108497
0.00596134
0.0158055
0.0280934
0.0396376
0.0487447
0.0551532
0.0593274
0.0619468
0.0637587
0.0652044
0.0662772
0.0669767
0.0673977
0.0676168
0.067708
0.0677231
0.067693
0.0676729
0.0677193
0.0679765
0.0687536
0.070615
0.0736117
0.0755257
0.0719627
0.061832
0.0129877
0.000330195
2.18184e-06
2.72855e-10
9.35744e-17
1.03203e-07
4.65442e-05
0.00106767
0.00588397
0.0156324
0.0278589
0.0393965
0.0485218
0.0549695
0.059191
0.0618384
0.0636465
0.0650951
0.0661834
0.0668921
0.0673204
0.0675487
0.0676367
0.0676422
0.0676048
0.0675534
0.0675422
0.0676344
0.0680571
0.0691911
0.0715342
0.0745733
0.074389
0.070446
0.0481683
0.0042718
9.54713e-05
2.78759e-07
2.17369e-11
1.9344e-16
1.00856e-07
4.55507e-05
0.00105004
0.00581183
0.0154799
0.0276354
0.0391608
0.0483137
0.0547954
0.0590547
0.0617285
0.0635408
0.0649896
0.0660909
0.0668098
0.0672455
0.0674819
0.0675744
0.0675694
0.0675237
0.0674571
0.0674007
0.0674115
0.0676331
0.0682677
0.0698386
0.0726164
0.0750546
0.072244
0.0674138
0.0288451
0.00123436
2.31948e-05
3.2576e-08
6.94285e-13
1.72458e-15
9.90055e-08
4.46888e-05
0.00103227
0.00573842
0.0153375
0.0274378
0.0389353
0.0481096
0.0546321
0.0589251
0.061622
0.0634367
0.0648888
0.0660022
0.0667346
0.0671762
0.0674145
0.0675133
0.0675107
0.0674496
0.0673687
0.0673005
0.0672473
0.067332
0.0677032
0.0686633
0.0707168
0.0736994
0.0745547
0.0702756
0.0589815
0.0116061
0.0003283
4.49681e-06
5.7651e-09
2.29898e-16
2.43683e-15
9.72111e-08
4.40133e-05
0.00101696
0.00566478
0.015194
0.0272539
0.0387356
0.0479148
0.0544714
0.0588032
0.06152
0.0633342
0.0647932
0.065916
0.0666595
0.0671105
0.0673518
0.0674511
0.0674521
0.0673897
0.0672927
0.067196
0.0671266
0.067123
0.0673213
0.0679021
0.0692774
0.0717974
0.0743969
0.0724236
0.0684437
0.0429545
0.00312723
6.28661e-05
4.73033e-07
1.51047e-09
4.01486e-13
1.21391e-15
9.52428e-08
4.33651e-05
0.00100499
0.00560114
0.0150502
0.0270684
0.0385512
0.0477423
0.0543185
0.0586844
0.0614218
0.063238
0.0646988
0.0658325
0.066585
0.0670443
0.0672929
0.0673933
0.0673926
0.0673325
0.0672298
0.067113
0.0670147
0.0669721
0.0670621
0.0673877
0.0682861
0.0701254
0.0729183
0.0741392
0.069769
0.063589
0.0220429
0.000599569
1.10535e-05
1.49695e-08
2.45211e-10
3.13608e-14
3.39119e-16
9.32328e-08
4.26529e-05
0.000993696
0.00555207
0.0149257
0.0268828
0.038365
0.0475816
0.0541818
0.0585702
0.0613352
0.063145
0.0646059
0.0657544
0.0665154
0.0669824
0.0672351
0.0673392
0.067337
0.0672743
0.0671731
0.0670449
0.0669225
0.0668571
0.0668813
0.0670626
0.0676029
0.0688869
0.0712118
0.073768
0.0722648
0.0682173
0.0517706
0.00640247
9.73072e-05
2.3098e-06
5.38231e-10
3.67146e-12
6.3088e-15
6.52706e-17
9.14798e-08
4.19212e-05
0.000981281
0.00550629
0.0148306
0.0267239
0.0381779
0.0474213
0.054055
0.0584694
0.061254
0.0630757
0.0645204
0.0656783
0.0664493
0.0669218
0.0671802
0.0672889
0.0672892
0.0672176
0.0671144
0.0669842
0.0668454
0.0667523
0.0667292
0.0668257
0.067149
0.0679935
0.0697416
0.0723984
0.0737663
0.0696353
0.0653798
0.0315351
0.00103556
1.56694e-05
2.45665e-07
5.88192e-11
5.80267e-18
1.62749e-13
1.45074e-17
9.01898e-08
4.1289e-05
0.000968554
0.00545598
0.0147424
0.0266026
0.0380182
0.0472605
0.053928
0.0583737
0.0611793
0.0630107
0.0644499
0.065608
0.0663878
0.0668638
0.0671242
0.0672353
0.067242
0.0671699
0.0670563
0.066925
0.0667884
0.0666568
0.0665955
0.0666298
0.0668267
0.0673652
0.0685873
0.0708467
0.0733523
0.0721613
0.0678819
0.0565366
0.0107995
0.000132159
1.99924e-06
2.64815e-09
1.05408e-12
2.26825e-15
3.09437e-14
2.87724e-18
8.90808e-08
4.08357e-05
0.000957667
0.00540436
0.0146461
0.0264898
0.0378972
0.0471223
0.0538037
0.0582796
0.0611108
0.0629483
0.0643824
0.0655362
0.0663283
0.0668119
0.0670752
0.0671863
0.0671913
0.0671254
0.0670063
0.0668672
0.0667216
0.0665961
0.0664975
0.0664621
0.0665866
0.0669417
0.0677596
0.0694642
0.0720755
0.0734852
0.0695121
0.0656205
0.0383634
0.00164947
1.55912e-05
2.69708e-07
4.59261e-15
2.55989e-13
7.05665e-18
1.08665e-19
4.94633e-19
8.77832e-08
4.04478e-05
0.000950122
0.00536076
0.0145478
0.0263678
0.037785
0.0470175
0.0536943
0.0581869
0.0610422
0.0628938
0.0643218
0.0654699
0.0662667
0.0667593
0.0670284
0.0671439
0.0671455
0.0670794
0.0669614
0.0668158
0.0666614
0.0665281
0.066408
0.0663546
0.066394
0.0666295
0.0671969
0.0683993
0.0705951
0.0730789
0.0719668
0.0674609
0.0586181
0.0152201
0.00014841
1.75847e-06
3.11296e-08
2.6126e-11
7.5321e-14
4.83578e-14
5.58278e-15
8.25865e-20
8.62482e-08
3.9994e-05
0.000943856
0.00533183
0.0144657
0.0262441
0.0376643
0.0469211
0.0536106
0.0581044
0.0609757
0.0628387
0.0642646
0.065408
0.0662091
0.0667055
0.0669821
0.0670987
0.0671048
0.0670332
0.0669197
0.0667692
0.0666112
0.0664532
0.0663324
0.0662618
0.0662461
0.0663868
0.0667792
0.0676216
0.0693019
0.0718482
0.073203
0.069231
0.0654251
0.0423077
0.00238243
1.3411e-05
1.28432e-07
1.40891e-10
3.90174e-11
4.38837e-14
5.45518e-12
3.24207e-14
1.36779e-20
8.47031e-08
3.94463e-05
0.000936375
0.00530849
0.0144131
0.0261417
0.0375418
0.0468186
0.0535346
0.0580394
0.0609172
0.0627857
0.0642098
0.0653512
0.0661546
0.0666562
0.0669334
0.0670563
0.0670641
0.0669922
0.0668758
0.0667245
0.0665627
0.0664009
0.0662639
0.0661588
0.0661421
0.0662091
0.0664495
0.0670419
0.0682756
0.0704524
0.0728857
0.0716338
0.0670134
0.0594146
0.0184578
0.000158739
1.0213e-06
4.72166e-09
1.71897e-10
1.88918e-12
3.15608e-17
1.0905e-11
1.88567e-14
1.50406e-21
8.33909e-08
3.88919e-05
0.000927215
0.00528016
0.014372
0.0260786
0.0374413
0.0467152
0.0534557
0.0579844
0.0608687
0.0627363
0.0641556
0.0652992
0.0661037
0.0666093
0.0668904
0.0670127
0.0670226
0.0669545
0.0668339
0.0666795
0.0665151
0.0663474
0.0661978
0.0660883
0.0660389
0.0660539
0.0662113
0.0666216
0.0675129
0.0692197
0.0717472
0.072918
0.0688228
0.0649944
0.0443546
0.0029823
8.67571e-06
4.60826e-08
2.01871e-11
1.35231e-10
1.52535e-14
3.21989e-17
1.83889e-12
2.87557e-15
2.43629e-22
8.25153e-08
3.84288e-05
0.000917895
0.00524489
0.0143223
0.0260312
0.0373819
0.0466303
0.0533751
0.0579253
0.0608256
0.0626982
0.0641026
0.0652472
0.0660563
0.0665676
0.0668492
0.0669748
0.0669846
0.0669174
0.066797
0.0666405
0.0664686
0.0662995
0.0661395
0.0660051
0.0659258
0.065947
0.0660345
0.0663005
0.0669252
0.0682246
0.0704529
0.0727658
0.0711329
0.066508
0.0593999
0.0204417
0.000147996
4.46227e-07
4.18856e-10
3.23828e-15
5.81739e-11
8.1553e-13
3.68264e-13
4.05093e-15
2.8051e-16
2.73083e-24
8.21831e-08
3.81347e-05
0.000910308
0.0052088
0.0142581
0.0259732
0.0373385
0.0465798
0.0533092
0.0578669
0.0607827
0.0626596
0.0640596
0.0651952
0.0660108
0.0665225
0.0668113
0.06694
0.0669496
0.0668806
0.0667618
0.0666061
0.0664262
0.0662488
0.06608
0.0659535
0.0658531
0.0658157
0.0658894
0.066086
0.0665158
0.0674374
0.0692263
0.0717598
0.0726094
0.0682491
0.0644715
0.0449119
0.00332428
4.8536e-06
7.7932e-09
2.32697e-13
2.66507e-12
2.41364e-11
8.23161e-13
5.89158e-12
2.70986e-14
1.62013e-17
2.75287e-25
8.1857e-08
3.80539e-05
0.000905879
0.00518028
0.0141924
0.0258959
0.0372833
0.0465438
0.0532692
0.0578168
0.0607386
0.0626248
0.0640214
0.0651491
0.0659683
0.0664827
0.066773
0.0669023
0.0669138
0.0668439
0.0667239
0.0665689
0.066388
0.0662033
0.0660385
0.0658887
0.0657814
0.0657193
0.0657532
0.0658832
0.0662104
0.066879
0.0682219
0.0704826
0.0727145
0.070579
0.0659965
0.0588611
0.0208474
0.000125875
1.24396e-07
3.91946e-19
5.07186e-12
9.95099e-14
2.03835e-12
1.44532e-12
1.55588e-11
2.00281e-13
8.92142e-19
2.61722e-25
8.13441e-08
3.79743e-05
0.000905523
0.00516558
0.014142
0.0258181
0.0372117
0.0464997
0.0532415
0.0577876
0.0607038
0.0625861
0.0639834
0.0651094
0.0659285
0.0664472
0.0667392
0.0668678
0.0668812
0.0668123
0.0666887
0.0665301
0.0663495
0.0661636
0.0659799
0.0658216
0.0657211
0.0656279
0.0656203
0.0657193
0.0659561
0.0664534
0.0674534
0.0692991
0.0717976
0.0722801
0.0676262
0.0638438
0.0441641
0.0031675
2.04247e-06
1.3387e-10
1.33636e-12
5.41106e-13
5.98321e-13
2.08527e-22
1.04936e-13
5.60893e-12
9.33656e-14
2.3335e-19
1.07042e-26
8.04762e-08
3.78244e-05
0.000905187
0.00516853
0.0141199
0.0257591
0.0371399
0.0464431
0.0532088
0.0577633
0.0606791
0.062557
0.0639499
0.0650727
0.0658913
0.0664142
0.066705
0.0668369
0.0668493
0.0667795
0.0666563
0.0664989
0.0663119
0.0661259
0.0659423
0.065772
0.0656362
0.0655541
0.0655333
0.065579
0.0657613
0.0661484
0.0668802
0.0682941
0.0706206
0.0726422
0.0698934
0.0654495
0.0578179
0.0197566
8.31298e-05
7.70027e-09
4.91814e-12
4.03811e-12
7.57884e-16
8.85672e-12
8.72021e-12
5.04382e-14
3.18748e-14
6.40279e-15
2.14442e-21
3.25926e-28
7.91973e-08
3.75357e-05
0.000903556
0.00517179
0.0141331
0.0257384
0.0370872
0.0463848
0.053166
0.0577416
0.0606612
0.0625336
0.0639162
0.0650408
0.0658584
0.06638
0.0666738
0.0668064
0.0668192
0.0667489
0.0666218
0.0664658
0.0662806
0.0660849
0.0659019
0.065735
0.0655946
0.0655021
0.0654387
0.0654724
0.0655929
0.0658835
0.0664467
0.0675242
0.0694641
0.0719338
0.0718745
0.0668871
0.0631182
0.0422902
0.00257823
2.99926e-07
2.69595e-13
1.33968e-11
8.33416e-16
4.6402e-14
4.47578e-12
2.80164e-12
4.31436e-12
6.21552e-14
3.22603e-16
4.95907e-23
7.61603e-30
7.78288e-08
3.70726e-05
0.000899229
0.00516929
0.0141475
0.025764
0.0370726
0.0463431
0.0531235
0.0577099
0.0606449
0.0625198
0.0638921
0.0650075
0.0658291
0.0663475
0.0666434
0.0667743
0.0667911
0.0667221
0.0665919
0.0664327
0.0662487
0.0660494
0.06586
0.065691
0.065541
0.0654192
0.0653593
0.0653647
0.0654601
0.0656781
0.0661011
0.0669195
0.0684739
0.0708412
0.0724537
0.069132
0.0648635
0.0563041
0.0174995
3.72093e-05
1.95119e-11
2.17676e-11
8.14898e-13
7.25377e-14
9.87693e-18
3.82227e-14
4.21846e-13
2.21481e-11
5.40379e-13
8.87061e-18
2.16033e-23
1.21973e-31
7.65154e-08
3.65677e-05
0.000891505
0.00515504
0.0141502
0.0257907
0.0371048
0.0463338
0.0530919
0.057678
0.0606226
0.0624992
0.0638714
0.0649806
0.0657964
0.0663191
0.0666149
0.0667418
0.0667601
0.0666932
0.0665675
0.0664003
0.0662172
0.0660155
0.0658192
0.0656413
0.0654864
0.0653463
0.0652722
0.0652603
0.0653307
0.0654982
0.0658197
0.0664486
0.067654
0.0697076
0.0720564
0.0711287
0.0660658
0.0622135
0.0394439
0.00169937
3.02411e-09
1.23311e-11
5.94576e-13
4.94344e-15
2.78331e-12
2.53806e-15
3.16433e-13
2.90845e-15
3.37828e-12
1.82265e-13
2.84782e-20
3.65201e-25
1.35398e-33
7.54495e-08
3.6083e-05
0.000882886
0.00512568
0.01413
0.0258035
0.0371372
0.0463638
0.0530853
0.0576556
0.0605996
0.0624829
0.063848
0.0649558
0.0657684
0.0662926
0.0665872
0.0667147
0.0667265
0.0666612
0.0665386
0.066371
0.0661841
0.0659836
0.0657852
0.065604
0.0654259
0.0652929
0.06521
0.0651817
0.0652142
0.0653566
0.0655962
0.0660795
0.0669969
0.0686878
0.0710935
0.0721623
0.0681854
0.0641591
0.0542046
0.0140686
5.53135e-06
2.03639e-14
5.25236e-12
7.1058e-15
3.2294e-13
1.23536e-11
1.35683e-12
2.08778e-12
1.17005e-12
3.14968e-16
7.4288e-15
5.54846e-21
4.74519e-27
9.84878e-36
7.47578e-08
3.56965e-05
0.000874608
0.0050924
0.0140785
0.0257854
0.0371576
0.0463972
0.0531096
0.0576503
0.0605818
0.0624662
0.063831
0.0649376
0.0657467
0.0662662
0.0665611
0.0666918
0.0666974
0.0666315
0.066506
0.0663446
0.0661533
0.0659504
0.0657485
0.0655607
0.0653884
0.0652399
0.0651469
0.0651042
0.0651116
0.0652151
0.0654384
0.0658127
0.0665084
0.0678382
0.0700323
0.0721649
0.0703022
0.0654152
0.0610366
0.0352416
0.00083538
8.50156e-10
6.52745e-12
8.61839e-17
2.48428e-13
7.61844e-12
1.9087e-13
2.90635e-12
1.63854e-12
2.22052e-11
9.55816e-13
7.98287e-17
6.28117e-22
3.59096e-29
4.50009e-38
7.45208e-08
3.54534e-05
0.000868135
0.00506036
0.0140187
0.0257269
0.037147
0.0464174
0.0531365
0.0576656
0.0605762
0.0624488
0.0638149
0.064917
0.0657306
0.0662445
0.0665348
0.0666639
0.0666772
0.0666041
0.0664787
0.0663168
0.066129
0.0659199
0.0657148
0.065522
0.0653479
0.0651842
0.0650981
0.065034
0.0650206
0.0651009
0.0652869
0.0655952
0.0661268
0.0671646
0.0690167
0.0714488
0.0718034
0.0672703
0.0634943
0.0512632
0.00976403
9.09078e-07
1.11403e-12
1.20208e-12
1.68478e-13
6.85734e-12
8.92057e-13
1.82878e-15
5.11733e-15
1.05965e-20
5.9334e-12
4.87448e-13
2.72789e-19
5.024e-24
1.63811e-31
1.20658e-40
7.46181e-08
3.53923e-05
0.000864299
0.00503579
0.0139607
0.0256568
0.0370942
0.0464144
0.0531541
0.0576824
0.0605839
0.0624425
0.0637954
0.0648989
0.0657106
0.0662218
0.066511
0.0666363
0.0666547
0.0665822
0.0664513
0.0662873
0.0661018
0.0658978
0.0656845
0.065483
0.0653061
0.065146
0.065024
0.0649583
0.064953
0.0650071
0.0651481
0.0653863
0.0658353
0.0666345
0.068127
0.0704389
0.0721836
0.0694132
0.0648278
0.0593794
0.0296085
0.000259438
1.30543e-11
4.35641e-12
1.95515e-16
4.88502e-12
2.84122e-11
1.74515e-12
1.05022e-11
9.88162e-13
1.27761e-12
3.59118e-17
1.5104e-14
1.65096e-20
2.51457e-26
4.16582e-34
1.45838e-43
7.48584e-08
3.5465e-05
0.000863968
0.00502232
0.0139178
0.0255879
0.0370309
0.0463738
0.0531539
0.0576961
0.060594
0.0624432
0.0637835
0.0648793
0.0656875
0.0662005
0.066487
0.0666103
0.0666275
0.0665634
0.0664261
0.0662569
0.0660685
0.0658688
0.0656599
0.0654521
0.065257
0.0651047
0.0649816
0.0649047
0.0648533
0.0649095
0.0650036
0.0652162
0.0655757
0.0662203
0.0674112
0.0693801
0.0717362
0.0711377
0.0662702
0.0626688
0.0471203
0.00569284
2.12754e-07
3.29729e-12
5.80436e-16
4.77048e-12
3.83754e-11
3.50193e-12
6.87235e-16
4.33964e-12
2.23724e-12
1.73793e-11
1.59817e-12
9.38029e-17
9.99778e-22
6.87564e-29
5.25436e-37
5.53135e-47
7.50791e-08
3.5602e-05
0.000866183
0.00502454
0.0138966
0.0255394
0.0369672
0.0463254
0.0531274
0.0576967
0.0606014
0.0624471
0.063778
0.0648617
0.0656724
0.0661826
0.0664659
0.0665891
0.0665974
0.0665367
0.0664076
0.0662291
0.0660354
0.0658308
0.0656307
0.0654237
0.0652261
0.0650626
0.0649372
0.0648475
0.0647948
0.0648132
0.0648875
0.0650827
0.0653643
0.0659027
0.0668313
0.0684891
0.0708274
0.0719156
0.0682722
0.0640921
0.0569986
0.022765
5.41631e-05
2.59551e-12
2.23307e-14
2.59039e-14
4.5204e-11
6.49312e-12
5.50001e-13
9.72927e-14
2.46169e-16
1.09605e-13
3.37712e-12
4.05592e-13
9.59837e-18
3.39662e-24
9.71451e-32
2.3866e-40
7.06531e-51
7.50715e-08
3.57165e-05
0.000869683
0.00503754
0.0139068
0.0255181
0.0369243
0.046276
0.0530929
0.0576798
0.0606002
0.0624496
0.063775
0.0648499
0.0656554
0.0661671
0.0664533
0.0665739
0.0665772
0.066507
0.0663822
0.0662098
0.0660093
0.0657982
0.065594
0.0653952
0.0652016
0.0650265
0.0648827
0.0647827
0.0647224
0.0647305
0.0647976
0.0649502
0.0652212
0.0656405
0.0663819
0.0677379
0.0698695
0.0719246
0.0701211
0.0652801
0.0614703
0.0414215
0.00262304
1.38636e-08
4.53347e-12
3.95074e-13
2.56048e-11
8.89092e-12
2.78478e-13
3.43312e-12
3.95232e-12
3.71898e-12
1.10601e-12
2.16017e-14
7.23903e-15
8.58539e-20
6.07742e-27
4.93888e-35
7.62258e-44
1.25803e-54
7.48524e-08
3.5746e-05
0.000872679
0.00505634
0.0139394
0.0255378
0.036908
0.0462423
0.0530574
0.0576575
0.0605898
0.0624481
0.0637758
0.0648441
0.0656376
0.0661523
0.0664327
0.0665585
0.0665639
0.0664826
0.066353
0.0661833
0.0659871
0.0657765
0.0655599
0.0653607
0.0651715
0.0649898
0.0648413
0.0647204
0.0646593
0.0646531
0.0647198
0.0648422
0.0650697
0.0654007
0.0660184
0.0671065
0.068943
0.0712999
0.0714795
0.0670292
0.0632658
0.0535308
0.0153165
8.64112e-06
1.57223e-14
1.37164e-13
2.33846e-11
5.88796e-11
1.1562e-13
1.30883e-14
3.91804e-20
1.34105e-12
3.99429e-12
1.23279e-11
1.99424e-12
1.35637e-17
1.9277e-22
4.81544e-30
8.64112e-39
1.1928e-47
1.15145e-58
7.44003e-08
3.56811e-05
0.000873929
0.0050723
0.0139831
0.0255868
0.0369344
0.046232
0.0530339
0.0576327
0.0605767
0.0624396
0.0637758
0.0648413
0.0656282
0.0661317
0.0664158
0.0665373
0.0665454
0.0664631
0.0663253
0.0661549
0.0659619
0.0657535
0.0655372
0.0653255
0.0651308
0.0649641
0.0648074
0.0646757
0.0646176
0.0645968
0.0646396
0.0647209
0.0649335
0.0652154
0.0657224
0.066597
0.0681501
0.0703823
0.071868
0.0689314
0.0644459
0.0596411
0.0339784
0.000845856
1.7551e-10
3.38691e-16
1.23429e-11
4.81583e-11
9.71745e-12
9.5997e-14
4.36924e-14
2.2803e-12
3.4475e-13
4.84298e-13
9.48699e-15
2.29619e-13
4.18079e-19
1.99532e-25
1.81283e-33
4.77154e-43
3.45712e-51
7.02326e-65
7.3694e-08
3.55213e-05
0.000873297
0.00508084
0.0140206
0.025651
0.0369874
0.046257
0.053026
0.0576181
0.0605581
0.0624301
0.0637658
0.0648401
0.0656208
0.0661144
0.0663979
0.0665154
0.066525
0.0664445
0.0663034
0.0661277
0.0659357
0.0657305
0.0655145
0.0652969
0.0650951
0.0649235
0.064774
0.064654
0.0645512
0.0645208
0.0645571
0.0646459
0.06479
0.0650558
0.0654782
0.0661959
0.0674612
0.0694685
0.0715869
0.0704923
0.065714
0.0622758
0.0485139
0.00836821
8.14018e-07
6.98928e-17
4.39725e-13
7.86204e-11
1.2022e-11
3.56297e-14
2.18458e-13
5.09721e-14
1.39884e-12
5.60556e-12
6.42537e-12
1.00195e-12
1.33876e-15
3.79449e-21
6.8916e-29
3.06457e-37
9.65142e-49
2.63134e-54
5.08692e-62
7.28048e-08
3.52479e-05
0.000870727
0.0050804
0.0140424
0.0257053
0.0370574
0.0463046
0.0530462
0.0576132
0.0605481
0.0624162
0.0637533
0.0648315
0.0656166
0.0661058
0.0663781
0.0664977
0.0665061
0.0664288
0.0662875
0.0661078
0.0659049
0.0657018
0.0654875
0.0652734
0.0650632
0.0648711
0.0647412
0.0646091
0.0645049
0.064454
0.0644504
0.0645422
0.0646883
0.0649029
0.0652674
0.0658583
0.0668683
0.0685902
0.0708134
0.0713682
0.0674659
0.0635677
0.0567767
0.0249733
0.000147462
1.49844e-11
4.81966e-13
4.30909e-11
2.26153e-11
6.69991e-13
8.22569e-14
1.94732e-14
1.49982e-19
5.25626e-13
4.11585e-15
7.74635e-12
1.25086e-12
2.48017e-17
2.71154e-24
9.43978e-33
3.02341e-41
2.32233e-55
3.95902e-61
3.24644e-70
7.18044e-08
3.49033e-05
0.000865785
0.0050712
0.0140454
0.0257381
0.0371164
0.0463671
0.0530831
0.0576269
0.0605425
0.062403
0.0637458
0.0648188
0.0656104
0.0660962
0.0663649
0.0664758
0.0664788
0.0664093
0.0662731
0.0660934
0.0658837
0.0656657
0.0654588
0.0652463
0.0650418
0.0648371
0.0646814
0.0645638
0.0644713
0.0644063
0.0643902
0.0644486
0.0645722
0.0647836
0.0650722
0.065566
0.0664163
0.0678317
0.0698883
0.0714162
0.0691035
0.0646664
0.0608399
0.0414889
0.00334153
3.29871e-08
4.49301e-13
5.60506e-11
6.50274e-11
1.33961e-12
2.51987e-13
1.81099e-13
1.76576e-15
1.2354e-12
4.12675e-13
9.39189e-12
1.62463e-13
1.41995e-14
6.74633e-20
9.483e-28
2.52242e-37
9.77211e-45
4.63752e-54
2.30687e-60
1.50051e-61
7.0795e-08
3.45085e-05
0.000859381
0.0050511
0.0140306
0.0257468
0.0371541
0.0464196
0.0531308
0.0576496
0.0605508
0.0623973
0.0637317
0.0648077
0.065603
0.0660877
0.0663504
0.0664567
0.0664523
0.0663786
0.0662513
0.0660756
0.0658684
0.0656402
0.0654227
0.0652151
0.0650175
0.0648152
0.0646518
0.0645199
0.0644132
0.0643689
0.0643466
0.0643794
0.0644971
0.0646611
0.0649238
0.065338
0.0660067
0.0671988
0.0690192
0.0709788
0.0703366
0.0660336
0.0626446
0.0524736
0.0153553
1.41716e-05
2.02535e-11
6.51942e-11
1.34248e-10
1.49335e-11
2.26297e-13
8.83707e-14
3.80671e-14
5.95713e-12
1.48324e-12
1.18528e-12
2.39602e-12
1.93671e-12
1.75223e-17
2.7378e-23
1.31012e-31
3.39091e-43
2.64552e-48
1.10171e-54
2.46522e-58
8.74196e-66
6.98135e-08
3.41014e-05
0.000851945
0.00502413
0.013993
0.0257315
0.0371665
0.0464555
0.0531722
0.0576816
0.0605636
0.0623967
0.0637228
0.0647993
0.0655879
0.0660838
0.0663404
0.0664433
0.0664349
0.0663524
0.0662232
0.0660569
0.0658506
0.065624
0.0653929
0.0651798
0.0649819
0.0647997
0.0646276
0.0644815
0.0643779
0.0643218
0.0643063
0.0643222
0.0644043
0.0645556
0.0648024
0.0651481
0.0657128
0.0666828
0.0682418
0.0702629
0.0709996
0.0676595
0.0637553
0.0584418
0.0321907
0.000795992
2.32896e-09
3.81795e-11
1.55084e-10
3.14861e-11
1.02946e-12
1.05163e-15
8.01976e-14
1.60403e-16
6.91276e-13
2.79398e-14
1.08819e-10
7.64627e-15
2.0506e-13
1.47239e-21
5.78999e-27
9.18257e-36
8.27568e-46
5.49421e-51
8.50409e-57
4.01844e-62
1.27949e-64
6.8912e-08
3.37036e-05
0.000844156
0.00499229
0.0139412
0.0256861
0.0371557
0.0464682
0.0531992
0.0577099
0.0605821
0.0624015
0.0637159
0.0647827
0.0655774
0.0660731
0.0663381
0.0664356
0.0664229
0.066336
0.0661964
0.0660279
0.0658295
0.0656082
0.0653755
0.0651499
0.064945
0.0647674
0.0645948
0.0644555
0.0643085
0.0642593
0.0642363
0.0642665
0.0643198
0.0644429
0.064671
0.0649955
0.0654492
0.0662588
0.0676008
0.0695505
0.0711085
0.0691234
0.0647778
0.0613602
0.0459728
0.00702744
9.11593e-07
2.49109e-11
2.1759e-10
6.27665e-11
6.92924e-13
6.07004e-14
4.21565e-15
6.05333e-15
3.72186e-14
3.4529e-12
3.28969e-11
2.46527e-12
2.09384e-12
1.30373e-17
1.46886e-22
2.81995e-31
9.38621e-39
1.20551e-53
6.21992e-59
3.63952e-62
6.76857e-61
2.85668e-62
6.81253e-08
3.33379e-05
0.000836455
0.00495844
0.0138777
0.0256222
0.037113
0.0464617
0.0532102
0.0577302
0.0605991
0.0624122
0.0637138
0.0647766
0.0655633
0.0660602
0.0663307
0.0664325
0.0664129
0.0663182
0.0661722
0.0659974
0.065803
0.0655883
0.0653631
0.0651307
0.0649149
0.0647196
0.0645641
0.0644136
0.0642893
0.0641964
0.0641631
0.064193
0.0642505
0.0643723
0.0645457
0.0648451
0.0652515
0.0659172
0.0670298
0.0688346
0.0708436
0.0703394
0.0661545
0.0627703
0.0545422
0.0211395
8.2325e-05
1.13298e-09
2.04314e-10
9.98382e-11
3.3823e-12
4.42072e-14
7.1348e-14
4.05256e-14
1.96949e-12
1.21806e-10
2.91719e-16
3.17279e-13
1.07064e-15
1.66953e-13
7.26961e-20
2.91157e-26
2.25001e-36
4.6971e-42
4.20448e-51
2.70184e-56
1.08851e-57
1.11098e-60
6.53698e-72
6.7483e-08
3.30158e-05
0.000829291
0.00492462
0.0138102
0.025541
0.0370498
0.0464278
0.053208
0.0577377
0.0606139
0.062422
0.063721
0.064774
0.0655522
0.0660474
0.0663198
0.0664244
0.0664087
0.0663059
0.0661495
0.0659654
0.0657703
0.065564
0.0653467
0.0651168
0.064891
0.0646821
0.0645104
0.0643803
0.0642713
0.0641677
0.0641332
0.0641376
0.0642006
0.0642949
0.0644809
0.0647142
0.0650668
0.0656402
0.0666106
0.0681672
0.0702819
0.0710145
0.0677175
0.0638074
0.0592085
0.0366041
0.00200438
5.8228e-08
1.6575e-10
1.80023e-10
8.06798e-12
7.95739e-13
2.10695e-13
5.28985e-14
2.36995e-12
2.68129e-17
3.30326e-14
6.19915e-12
1.57106e-12
1.19914e-12
1.08724e-17
9.18864e-22
1.48978e-30
2.48672e-39
2.35613e-45
3.76471e-52
8.17716e-59
5.49336e-58
5.21222e-67
1.2662e-63
6.69709e-08
3.27494e-05
0.000822937
0.00489299
0.0137421
0.0254532
0.0369708
0.0463755
0.0531834
0.0577385
0.0606204
0.0624317
0.063726
0.064774
0.0655447
0.066033
0.066306
0.0664149
0.0663988
0.0663011
0.066141
0.0659445
0.0657406
0.0655295
0.0653214
0.0651029
0.0648776
0.0646719
0.0644765
0.0643351
0.0642224
0.0641386
0.0640766
0.0640846
0.0641234
0.0642333
0.0643991
0.0645971
0.0648993
0.0654093
0.0662318
0.0675911
0.0696286
0.0711445
0.0691351
0.0647909
0.0615555
0.0482602
0.0103066
4.48546e-06
3.28908e-10
2.37291e-10
1.83897e-11
2.08155e-13
6.67372e-14
3.45967e-14
4.3044e-15
1.07074e-15
8.60152e-13
9.40655e-18
6.56244e-15
4.28893e-13
4.79347e-13
6.38153e-19
6.86471e-26
3.58074e-34
1.30141e-43
8.48037e-48
1.14925e-54
9.70867e-57
1.92763e-61
6.88217e-62
2.43519e-68
6.66018e-08
3.25359e-05
0.000817667
0.00486473
0.0136779
0.0253639
0.0368849
0.046311
0.0531462
0.0577219
0.0606201
0.0624357
0.0637313
0.0647753
0.0655374
0.066018
0.0662904
0.0664026
0.0663913
0.0662942
0.0661393
0.0659374
0.0657176
0.0655003
0.0652837
0.0650776
0.0648624
0.0646528
0.0644633
0.0643117
0.0641973
0.0641114
0.0640544
0.0640397
0.064047
0.0641404
0.064311
0.0645219
0.0647776
0.0651869
0.0658965
0.0670939
0.0689586
0.0709572
0.0702922
0.0661122
0.0627731
0.055452
0.0246383
0.000239345
6.66345e-09
2.32658e-10
5.11088e-11
1.61867e-12
1.54054e-13
1.56673e-14
1.84551e-13
1.43765e-16
6.76112e-14
5.83305e-13
1.05442e-12
4.15128e-12
2.58466e-12
7.38182e-17
1.53071e-21
4.64234e-30
1.76781e-37
1.35337e-48
5.08379e-51
1.70666e-59
1.60388e-59
3.56936e-59
7.29764e-68