/*--------------------------------*- C++ -*----------------------------------*\
| =========                 |                                                 |
| \\      /  F ield         | OpenFOAM: The Open Source CFD Toolbox           |
|  \\    /   O peration     | Version:  v2012                                 |
|   \\  /    A nd           | Website:  www.openfoam.com                      |
|    \\/     M anipulation  |                                                 |
\*---------------------------------------------------------------------------*/
FoamFile
{
    version     2.0;
    format      ascii;
    class       volScalarField;
    location    "0";
    object      I2_4;
}
// * * * * * * * * * * * * * * * * * * * * * * * * * * * * * * * * * * * * * //

dimensions      [0 0 0 0 0 0 0];


internalField   nonuniform List<scalar> 
39402
(
4.48264e-11
0.00134754
8.40017e-10
1039.47
3.50009e-06
1.04255e-08
7.88171
0.0236555
6.51462e-07
1.71491e-08
8.78504
0.168184
0.000134228
1.39561e-07
3.51784e-08
0.0946481
0.000932088
0.0321993
6.54812e-06
4.07537e-08
1.02486e-07
0.000198707
1.21633e-06
1.89531e-05
0.0174682
8.69164e-07
3.60684e-08
4.98394e-07
0.0099697
5.53138e-05
3.49913e-08
1.47912e-06
0.0182041
2.05775e-07
5.49615e-08
2.39775e-06
0.00341412
3.8433e-05
1.31771e-07
2.67521e-09
2.48282e-07
0.0135516
6.99349e-08
1.05298e-07
1.36498e-05
4.32834e-05
0.00299545
6.91248e-07
4.14347e-10
2.27632e-10
6.81188e-08
0.00163839
3.04136e-08
2.51348e-07
8.81232e-05
1.5895e-05
6.72096e-05
0.00722904
1.52674e-08
5.06055e-11
5.72904e-11
2.77551e-08
5.52615e-05
1.6469e-08
7.68816e-07
0.000667686
0.00250356
0.00314414
0.000209617
0.000334486
2.89119e-09
1.06848e-11
2.14006e-11
1.72737e-08
2.08493e-06
1.05546e-08
2.62744e-06
0.00739296
0.00702984
2.59577e-07
2.73524e-05
0.770453
3.81726e-05
8.63926e-10
3.58679e-12
1.6477e-11
1.66159e-08
1.59662e-07
7.82749e-09
1.23259e-05
0.0700355
1.16442
1.95043e-07
9.78377e-09
2.50169e-06
3.12639e-05
7.52927e-06
3.65737e-10
1.59908e-11
2.96824e-11
1.08256e-07
2.11557e-08
6.95946e-09
6.78399e-05
0.0984722
0.00782165
5.78551e-05
5.26515e-06
8.44187e-10
3.71722e-07
8.87811e-07
2.29495e-06
2.13099e-10
1.09881e-11
8.25599e-11
1.69874e-06
6.03016e-09
7.48273e-09
0.000292285
0.0450049
0.324031
1.89439e-06
1.17079e-05
3.30545e-07
9.85396e-08
1.0242e-07
7.90113e-08
1.83832e-06
4.0447e-10
6.967e-11
6.8066e-09
0.00092188
2.53066e-09
1.04764e-08
0.000745316
0.0243611
0.000951163
1.11867e-06
6.11411e-08
7.41913e-07
1.28183e-11
2.16925e-08
5.18897e-11
6.46753e-08
6.61704e-06
1.78755e-09
5.60184e-10
6.44527e-07
3.70555e-07
1.04365e-09
1.83309e-08
0.000781694
0.0192518
8.03169e-05
0.00311427
5.25748e-06
5.57328e-09
3.84571e-09
2.82834e-12
7.96254e-12
5.72884e-09
1.46e-08
0.000221872
1.07253e-08
8.41761e-08
1.13277e-06
8.73336e-09
5.67739e-10
3.97454e-08
0.000545231
0.0155178
9.32007e-06
8.38412e-06
1.36467e-05
3.7594e-07
4.63665e-08
7.71796e-10
7.5299e-13
1.12723e-09
1.82211e-09
8.12134e-10
2.32939e-05
2.66979e-07
0.0165786
1.42581e-08
1.61809e-09
4.05312e-10
1.18323e-07
0.000250762
0.0180648
9.83335e-05
1.58858e-07
8.66765e-07
3.84716e-08
1.74516e-10
1.0774e-08
2.03387e-10
2.68397e-13
3.922e-10
4.03985e-10
8.03777e-10
3.3689e-07
0.000145947
4.50058e-08
2.65795e-09
7.91512e-10
3.44909e-10
3.91748e-07
8.97864e-05
0.00897208
0.000382432
2.84319e-06
4.52174e-08
9.13075e-08
4.96321e-09
3.78432e-11
6.03706e-11
9.93106e-10
1.47288e-10
9.99662e-11
1.84615e-09
1.13815e-09
2.30527e-08
1.19479e-07
6.82133e-09
7.68781e-10
3.2389e-10
2.83357e-10
1.51964e-06
1.61309e-05
0.00129621
3.14578e-06
3.10685e-06
2.26936e-06
1.25872e-07
1.07259e-07
1.03463e-09
1.07e-11
7.21692e-10
3.6517e-10
6.45798e-11
5.62989e-10
5.25877e-10
2.93235e-10
9.11296e-09
7.21856e-09
2.11031e-09
3.93405e-10
1.98731e-10
2.37126e-10
7.08118e-06
3.44536e-07
0.000766204
0.000222511
2.04156e-05
0.0255145
1.52533e-09
1.80327e-09
2.65414e-08
2.93336e-10
5.97248e-10
2.86661e-10
1.14707e-10
1.92953e-11
1.98453e-10
7.47713e-10
2.72134e-10
2.55134e-09
2.99695e-09
9.56537e-10
2.58952e-10
1.41671e-10
2.30538e-10
2.81414e-05
7.13573e-08
0.000395908
0.000129014
1.49786e-05
3.76537e-05
1.34288e-07
2.85231e-10
5.51297e-10
1.18065e-09
1.02497e-10
2.41986e-10
8.83745e-11
5.04792e-10
1.32382e-10
7.35979e-11
2.5624e-10
4.87273e-10
1.70467e-09
1.72536e-09
5.95843e-10
1.88297e-10
1.44534e-10
2.63863e-10
0.000137258
7.60904e-06
0.000243453
0.000760417
5.48415e-06
3.81904e-08
2.97774e-07
6.25976e-09
7.32166e-11
2.50463e-09
4.21778e-10
4.50247e-10
6.74124e-13
4.79625e-10
2.30271e-11
5.39698e-11
1.34178e-10
2.33299e-10
2.99761e-10
1.4219e-09
1.08027e-09
4.20589e-10
1.46452e-10
1.84337e-10
3.96299e-10
0.000454738
1.43912e-05
0.000406648
0.000125369
0.0026917
4.2246e-09
6.74727e-09
2.12271e-08
8.37075e-10
2.71784e-09
1.02017e-09
7.35559e-10
2.02128e-10
2.95533e-11
2.00274e-10
7.51179e-11
2.27571e-11
1.75385e-10
4.27823e-10
2.65761e-10
7.6547e-10
8.13873e-10
3.2002e-10
1.09987e-10
2.36576e-10
9.66161e-10
0.000950443
2.71401e-05
0.000481227
0.000212097
0.000215171
5.32382e-07
9.32918e-10
1.62748e-09
3.36985e-09
1.76887e-10
1.02019e-09
3.38242e-10
3.51295e-10
6.99049e-11
2.03674e-10
8.48995e-11
1.72268e-10
4.7335e-11
1.68539e-10
2.70629e-10
4.13806e-10
5.92958e-10
5.90131e-10
2.54557e-10
7.66269e-11
2.17394e-10
3.71775e-09
0.00156577
5.87992e-05
0.000623684
2.35404e-05
6.90779e-05
4.20106e-05
2.20978e-08
2.46663e-10
4.83307e-10
2.17377e-08
5.06405e-11
3.0911e-10
1.6204e-09
1.42606e-10
3.81996e-11
8.81873e-11
3.75168e-11
7.14731e-11
6.9211e-11
2.69571e-10
2.65629e-10
3.35469e-10
5.34833e-10
4.56443e-10
2.23161e-10
9.10692e-11
1.33808e-10
2.59068e-08
0.00240356
0.000427549
0.000680002
0.000219666
3.23814e-06
3.86909e-08
3.3111e-05
2.40173e-09
8.06486e-11
1.70873e-10
6.40057e-09
1.7395e-11
1.57246e-10
8.32294e-11
7.77429e-11
1.52872e-11
3.92585e-11
7.80796e-11
1.02379e-10
7.39009e-11
3.09592e-10
3.04066e-10
3.5045e-10
5.00364e-10
3.86565e-10
1.76682e-10
2.47787e-10
5.5489e-11
1.98831e-07
0.00339157
0.0014622
0.000697652
0.000861994
1.28007e-07
3.96501e-09
1.19688e-08
2.27261e-06
1.03406e-07
2.96173e-11
7.01813e-11
9.2392e-11
3.95856e-10
5.55416e-11
3.38688e-11
3.41399e-11
6.78962e-11
8.62705e-11
2.75076e-10
1.08357e-10
1.30218e-10
2.90973e-10
3.59774e-10
4.10527e-10
5.03685e-10
3.31151e-10
1.18859e-10
7.64436e-10
1.39815e-11
2.06934e-06
0.00483367
8.10883e-05
0.000758155
0.0004366
0.0269015
7.14205e-06
1.08398e-09
2.42018e-09
3.18543e-09
2.58251e-08
1.26575e-11
7.69672e-10
3.81213e-11
1.87128e-10
3.82638e-10
6.72266e-10
1.02679e-10
3.29315e-11
1.34542e-10
2.76793e-10
1.07423e-10
1.63764e-10
3.20443e-10
3.33235e-10
3.68577e-10
4.50669e-10
2.90293e-10
7.50067e-11
1.79657e-09
1.76057e-10
2.04339e-05
0.00668671
0.00713038
0.000707892
0.000106574
9.47444e-08
1.29472e-05
1.05453e-06
3.4228e-10
6.47064e-10
7.32826e-10
3.92821e-11
5.92163e-12
3.87137e-10
1.83997e-11
6.10601e-11
1.75619e-10
3.54401e-10
1.88007e-10
1.61006e-11
6.51886e-11
1.34761e-10
9.21868e-11
1.68553e-10
3.73141e-10
3.09788e-10
3.77378e-10
4.15509e-10
2.44341e-10
9.32515e-11
3.23296e-09
4.93426e-10
0.000100792
0.00678155
0.111119
0.000615602
0.000516436
4.41954e-09
0.00013998
4.14833e-05
2.44355e-07
1.2216e-10
2.1385e-10
1.1947e-08
1.47318e-11
2.53667e-10
8.38076e-12
1.00044e-10
3.24535e-11
8.3862e-11
1.64035e-10
1.03686e-10
3.24059e-11
7.64614e-11
1.19308e-10
1.78685e-10
2.0169e-10
4.20597e-10
3.63632e-10
3.74312e-10
3.96761e-10
1.9748e-10
3.74203e-10
4.02368e-09
6.75304e-09
0.000245609
0.00544817
0.00894413
0.000451835
0.000702615
2.176e-07
2.41841e-05
4.66451e-06
3.54232e-06
3.99189e-10
4.80123e-11
4.66293e-09
4.32764e-09
6.86111e-10
1.3948e-10
6.41869e-11
5.46276e-11
1.17257e-11
1.94046e-10
2.64693e-10
4.95799e-11
1.15919e-10
1.47704e-10
2.40194e-10
1.81372e-10
3.13777e-10
4.51919e-10
4.13132e-10
3.36877e-10
3.64606e-10
1.26431e-10
1.03516e-09
1.69451e-09
7.00973e-07
0.000548463
0.00359775
0.00648022
0.000293023
1.96971e-06
0.000734146
0.00134453
3.58601e-08
2.11432e-05
4.3275e-09
1.37715e-10
2.15393e-11
2.03141e-09
1.21608e-09
3.38838e-10
5.17285e-11
3.80117e-11
2.11208e-11
7.8307e-11
3.21232e-10
1.38729e-10
7.33618e-11
1.23531e-10
2.04491e-10
2.53759e-10
2.03931e-10
3.1428e-10
5.05094e-10
4.39334e-10
3.31784e-10
3.29173e-10
1.48802e-10
1.40326e-09
7.25218e-11
2.49577e-05
0.00101684
0.00184396
0.00509848
0.000153605
0.00013661
2.22411e-07
0.000163047
0.00799169
4.77638e-06
6.11351e-08
1.02599e-09
5.52956e-11
1.04738e-09
6.69285e-10
5.74976e-10
1.12104e-10
3.16013e-11
1.55743e-11
1.12455e-10
3.76974e-11
1.65154e-10
1.67741e-10
8.48578e-11
6.36002e-11
1.61231e-10
2.28651e-10
2.56968e-10
3.53313e-10
6.07967e-10
4.42931e-10
3.22867e-10
2.68123e-10
5.83765e-10
1.04482e-09
5.28127e-10
6.67488e-05
0.00177153
0.00041565
0.00567104
6.72003e-05
8.50372e-10
2.69571e-09
4.70893e-08
1.45088e-07
2.76263e-07
1.67721e-07
3.92222e-09
3.09259e-10
2.50929e-11
5.55527e-10
3.64301e-10
1.90817e-10
6.2646e-11
1.24013e-11
9.62616e-11
5.58798e-11
8.69606e-11
2.03677e-10
1.86431e-10
1.62284e-10
9.75186e-11
1.66973e-10
3.12462e-10
3.05476e-10
4.30778e-10
6.72096e-10
4.26785e-10
2.83103e-10
2.09105e-10
2.38588e-09
1.52484e-14
2.64395e-08
0.000141836
0.00293507
4.25303e-06
0.00718901
1.47962e-05
3.23918e-06
5.53426e-11
6.45027e-10
1.14971e-08
2.69097e-08
1.3098e-08
2.59314e-09
1.58531e-07
7.43898e-09
1.26332e-11
3.5499e-12
1.33133e-10
1.2331e-09
2.27573e-11
8.28908e-12
4.98691e-11
2.843e-11
1.43445e-10
2.3008e-10
1.80565e-10
1.47191e-10
1.27905e-10
2.72916e-10
3.47202e-10
3.58513e-10
4.991e-10
6.59845e-10
4.05174e-10
2.41144e-10
4.93399e-10
4.6127e-09
2.72451e-08
6.88205e-07
0.000246966
0.00561282
0.0002207
0.00601589
2.99118e-06
0.00102529
5.86541e-05
1.018e-11
1.8702e-10
3.47816e-09
6.64593e-09
1.81891e-09
2.58212e-10
3.77297e-08
3.09403e-09
6.93183e-12
1.01946e-10
9.52401e-10
5.5091e-10
1.75974e-10
3.43806e-12
2.63751e-11
1.49029e-11
7.34381e-11
2.24129e-10
2.65355e-10
1.21373e-10
1.34184e-10
3.43143e-10
3.87298e-10
3.87059e-10
5.61083e-10
6.76384e-10
3.56671e-10
1.56158e-10
1.60117e-09
9.30848e-09
6.50895e-07
0.00015275
0.000442937
0.00543341
0.000434163
0.00645727
1.84654e-06
0.000428826
0.00247293
6.32574e-08
3.02404e-12
7.63664e-11
1.14762e-07
1.99094e-09
3.92517e-10
5.10506e-11
4.79578e-11
2.32704e-11
1.69877e-10
6.30801e-11
4.58522e-10
2.58473e-10
8.66908e-11
2.70005e-11
1.43611e-11
3.24418e-11
9.10823e-11
3.34598e-10
3.20935e-10
1.42669e-10
2.21918e-10
3.66302e-10
4.80432e-10
4.3611e-10
5.88111e-10
6.9506e-10
3.27404e-10
1.16146e-10
3.71663e-09
5.60761e-09
1.23796e-05
0.000269669
0.000644473
0.003992
0.0410372
0.00398894
1.64762e-06
0.000179927
0.000296294
0.000313898
6.6376e-09
7.70945e-13
7.31312e-08
4.3875e-08
7.17054e-10
1.16638e-10
1.28538e-08
2.36535e-09
3.97949e-10
1.02912e-10
2.56188e-11
2.2871e-10
5.94126e-10
4.42885e-11
6.82158e-11
3.3402e-11
5.43542e-11
1.03726e-10
2.83963e-10
3.42512e-10
1.95618e-10
2.32988e-10
3.96593e-10
5.49669e-10
4.759e-10
6.48581e-10
6.62809e-10
2.16666e-10
5.53154e-10
6.28588e-09
1.94873e-11
0.000950894
0.000197086
0.00114307
0.00198446
0.00391764
0.00200018
1.55663e-06
5.48786e-06
0.00363552
0.00979208
2.93816e-06
1.32721e-09
2.64139e-13
8.88534e-12
2.04272e-10
2.85642e-10
4.26696e-11
4.62211e-09
1.08683e-09
2.27762e-10
1.54313e-12
2.15502e-10
5.509e-10
9.79097e-10
1.07336e-10
4.09621e-11
5.81248e-11
6.78956e-11
1.00597e-10
2.26005e-10
3.32354e-10
2.28292e-10
2.55952e-10
4.76977e-10
5.77623e-10
5.34877e-10
6.48179e-10
6.74717e-10
1.77717e-10
1.05764e-09
6.72315e-09
1.45661e-08
0.0784634
0.000200441
0.00164589
0.000898774
0.00328053
0.000833101
1.5462e-06
0.00871419
3.65571e-09
4.20787e-06
8.50545e-06
2.18002e-07
3.62063e-10
1.05111e-13
4.26892e-12
9.74794e-11
4.06507e-09
1.77776e-11
2.28586e-12
3.22311e-10
8.21292e-11
2.12379e-11
1.14222e-10
3.19577e-10
5.02079e-10
6.26877e-11
2.03693e-11
7.47545e-11
1.39761e-10
1.50313e-10
3.26442e-10
2.99937e-10
2.78072e-10
3.36492e-10
5.37623e-10
6.47102e-10
5.64458e-10
6.28252e-10
6.0094e-10
4.14825e-10
1.77635e-09
1.50666e-09
3.07539e-08
0.00716621
0.000287993
0.00228576
0.000211952
0.00345508
0.000310584
1.57633e-06
0.000574723
0.000787257
1.18722e-10
0.000295571
4.0629e-07
3.50495e-08
1.25661e-10
4.53629e-14
2.25761e-12
4.97757e-11
2.01995e-09
8.58279e-12
4.46933e-10
2.34423e-09
6.05445e-10
1.43641e-11
6.18752e-11
1.55794e-10
2.62585e-10
3.04877e-11
8.84032e-11
8.8867e-11
1.33376e-10
1.85198e-10
3.99698e-10
3.7668e-10
2.99929e-10
4.13431e-10
6.08358e-10
6.97353e-10
5.76696e-10
6.11772e-10
5.48686e-10
1.23671e-09
1.1287e-09
1.19299e-11
0.000198756
2.69076e-05
0.000558804
0.00277089
8.01795e-06
0.00380164
0.00011186
1.65944e-06
0.0143722
6.41786e-05
1.01127e-09
1.09975e-11
2.48487e-05
5.3448e-08
8.44777e-09
3.68555e-08
2.06887e-14
1.19619e-12
2.88632e-11
3.48702e-11
4.5356e-12
2.33982e-10
1.03217e-09
2.93986e-10
6.12077e-12
3.40045e-11
2.75779e-10
1.40406e-10
1.30654e-10
1.06787e-10
9.04176e-11
1.16006e-10
1.99484e-10
4.2143e-10
4.22394e-10
3.2378e-10
4.33849e-10
6.77198e-10
7.15116e-10
5.32232e-10
5.15499e-10
1.14443e-09
1.83396e-09
7.33894e-10
6.74904e-07
0.0348387
2.93811e-05
0.000599758
0.00325054
2.29733e-05
0.00327888
4.06076e-05
1.5567e-06
0.119518
0.000165526
2.69833e-06
1.87698e-10
1.57089e-12
1.19396e-09
8.28503e-07
2.51711e-09
1.64932e-08
2.06778e-09
7.0199e-13
4.60709e-10
1.99171e-11
1.6481e-10
7.54739e-11
4.68532e-10
1.46676e-10
4.71933e-11
1.89017e-11
3.57441e-10
1.80433e-10
1.54773e-10
6.06637e-11
1.39809e-10
1.43853e-10
2.53034e-10
4.87473e-10
4.66964e-10
4.3991e-10
4.68681e-10
7.54373e-10
7.4057e-10
5.00871e-10
4.88305e-10
3.20519e-09
1.77459e-09
2.29283e-07
0.000189572
0.0509251
8.13563e-06
0.00109888
0.00165738
0.00704036
0.00258014
1.63228e-05
1.48407e-06
264.374
0.000221573
1.27245e-05
1.80849e-07
4.41827e-11
3.72288e-13
2.84694e-10
2.23416e-07
3.51934e-08
1.08534e-11
1.19603e-09
3.48021e-10
2.8587e-10
1.22907e-11
9.84528e-11
6.31235e-10
2.20371e-10
7.56959e-11
2.57532e-11
4.95358e-11
4.27842e-10
3.84976e-10
1.56931e-10
6.2861e-11
1.2348e-10
1.57236e-10
3.44545e-10
5.01316e-10
5.88654e-10
4.92763e-10
5.45596e-10
7.75114e-10
7.64018e-10
4.36979e-10
8.33371e-10
5.67963e-09
1.87877e-11
6.90882e-06
0.00042136
0.00270345
6.91089e-05
0.0015666
0.000784106
0.000940737
0.0012971
7.10709e-06
1.51584e-06
0.0408215
0.0310144
1.27027e-05
1.56913e-06
3.69205e-08
1.09227e-11
1.20153e-13
8.83032e-11
1.10831e-09
1.4661e-08
5.88525e-12
3.96513e-15
2.20897e-10
6.77715e-12
7.73013e-11
9.79402e-13
2.95049e-10
1.0969e-10
4.0381e-11
6.68572e-11
9.43263e-11
2.4156e-10
3.75515e-10
1.55158e-10
9.933e-11
1.41613e-10
2.00696e-10
3.37887e-10
5.95439e-10
6.28872e-10
5.21753e-10
6.05356e-10
7.96962e-10
7.11978e-10
3.95366e-10
2.05926e-09
1.06163e-08
3.01005e-09
0.000343864
0.00116003
0.000510783
0.000275435
0.00197776
0.000210037
0.00192304
0.000514203
5.35477e-06
1.56331e-06
0.441205
0.030501
8.78802e-07
6.68137e-05
3.2542e-07
9.32345e-09
3.45917e-12
3.67926e-14
3.50104e-11
4.50156e-10
1.90135e-10
3.25959e-12
2.82373e-15
1.94511e-13
5.70763e-11
5.04814e-11
1.75498e-11
1.43835e-10
2.67665e-10
1.00925e-10
4.22815e-11
5.44013e-11
2.49344e-10
3.33019e-10
1.38647e-10
1.79602e-10
2.58326e-10
2.7599e-10
3.52317e-10
6.9709e-10
7.59001e-10
5.87887e-10
6.19695e-10
7.62018e-10
6.99631e-10
6.58091e-10
3.05977e-09
6.08604e-09
1.10174e-07
0.00638969
0.00107372
0.000653478
0.000414142
0.00242063
3.23841e-06
0.00205657
0.000162607
6.57178e-06
1.74542e-06
0.000975771
0.0173975
1.34218e-05
8.32254e-08
1.17019e-05
1.839e-06
2.88879e-09
1.2688e-12
1.64941e-14
1.37673e-11
6.00295e-09
9.92988e-11
1.96929e-12
1.90149e-15
4.27495e-11
3.90631e-11
2.16905e-11
1.49122e-10
7.17211e-11
4.66475e-10
1.82819e-10
2.16061e-11
7.3913e-11
2.5051e-10
2.93986e-10
1.78551e-10
1.9889e-10
2.97578e-10
3.20919e-10
4.3778e-10
7.09958e-10
8.44457e-10
6.76139e-10
6.01182e-10
7.38081e-10
6.13517e-10
1.56763e-09
3.79945e-09
4.18099e-10
1.27904e-06
0.0303068
0.00213818
2.27355e-06
0.000715978
0.00191767
0.00684641
0.00233829
5.55885e-05
7.73445e-06
1.63339e-06
2.14124e-06
0.00520704
3.13841e-05
5.19378e-07
1.55432e-08
6.91513e-08
5.90168e-07
1.07314e-09
5.49452e-13
8.37322e-15
5.49589e-09
3.01472e-09
8.36291e-10
1.89109e-10
5.41905e-11
3.0236e-11
1.73042e-11
1.49093e-10
6.41229e-12
3.67379e-11
2.48409e-10
1.01271e-10
9.58366e-11
1.68166e-10
3.43678e-10
2.43085e-10
2.00015e-10
1.92092e-10
3.02722e-10
3.82848e-10
5.18186e-10
8.14612e-10
9.12515e-10
7.09084e-10
5.34249e-10
6.13757e-10
1.44212e-09
2.04252e-09
4.79339e-10
2.55531e-08
0.00259851
0.00294909
0.00233237
2.65792e-05
0.00117994
0.000930122
0.00102002
0.00141016
2.26453e-05
7.02541e-06
1.27709e-06
0.0138955
7.07255e-06
0.000121561
1.72962e-06
5.3887e-08
3.67068e-09
2.15167e-08
9.90109e-09
2.91825e-08
2.53534e-13
4.05523e-09
2.81732e-09
5.73421e-11
4.86081e-10
1.24071e-10
3.81648e-11
1.20324e-11
1.31467e-10
9.0949e-12
2.67454e-12
9.43694e-11
1.35465e-10
1.34178e-10
5.93846e-11
1.73557e-10
3.07072e-10
3.64876e-10
2.65077e-10
2.72927e-10
3.38632e-10
4.07226e-10
5.93764e-10
8.79112e-10
1.04467e-09
7.304e-10
5.12147e-10
6.66506e-10
2.17669e-09
2.33863e-09
3.72056e-10
3.16825e-07
0.0149198
0.000478799
0.00163049
0.00217164
0.00164617
0.000231875
0.000850095
0.000554078
1.22605e-05
6.68455e-06
1.73272e-06
0.11281
0.0153001
6.23901e-07
1.36914e-06
2.28701e-07
9.93379e-09
1.14065e-09
7.76476e-09
4.25427e-09
1.37084e-08
1.32296e-13
2.28969e-09
1.79107e-12
4.63662e-10
1.89811e-10
4.70727e-11
5.9664e-16
9.07186e-12
7.26871e-11
4.45139e-12
2.16575e-11
1.71972e-10
1.77601e-10
2.98222e-10
6.61043e-11
1.02425e-10
2.45567e-10
3.71387e-10
3.09968e-10
3.28354e-10
3.88631e-10
4.7473e-10
5.98898e-10
9.69426e-10
1.05975e-09
7.08922e-10
3.7179e-10
1.40002e-09
4.30093e-09
1.61877e-10
7.82759e-08
0.00243098
0.0744098
0.000625619
0.000202064
0.000431156
0.00201396
9.33273e-06
0.00174571
0.000191935
1.07386e-05
7.17875e-06
5.53741e-06
29.5529
0.123292
0.0131615
6.01653e-09
3.55225e-05
4.98215e-08
1.35998e-06
4.14411e-10
3.27073e-09
2.00159e-09
1.16627e-10
7.83019e-14
1.12067e-15
3.91031e-10
2.87771e-10
1.26194e-10
3.28865e-11
8.06144e-12
3.70762e-12
4.13406e-11
1.10544e-10
5.69416e-11
9.4325e-11
3.89106e-10
3.00849e-10
1.30392e-10
1.43784e-10
3.58495e-10
3.38879e-10
3.18972e-10
4.02582e-10
4.96331e-10
5.40074e-10
6.59118e-10
1.04485e-09
1.09544e-09
7.00834e-10
4.27772e-10
2.22412e-09
6.14055e-09
2.76648e-11
0.000104791
0.00227006
0.000649967
0.000474036
9.09611e-05
0.000683861
0.00150948
0.0493561
0.0017055
6.25212e-05
1.23223e-05
6.3112e-06
3.63648e-06
300.972
1.41513
8.45904
7.14542e-05
4.42923e-10
7.7e-06
1.42428e-08
4.55506e-07
1.63831e-10
1.50683e-09
8.44914e-09
6.8074e-11
7.32777e-10
3.79048e-10
2.41982e-10
1.12091e-10
5.36027e-11
1.27464e-11
8.6141e-11
3.9298e-11
2.37413e-11
6.94518e-11
1.06769e-10
1.24945e-10
3.88298e-10
1.74177e-10
1.20549e-10
1.82738e-10
3.4602e-10
4.41043e-10
4.18086e-10
4.9146e-10
5.9977e-10
5.76352e-10
7.18775e-10
1.04159e-09
1.0856e-09
5.54749e-10
9.38765e-10
3.31665e-09
2.0562e-09
2.04067e-07
0.729204
0.00285596
0.000486728
7.18698e-05
5.91027e-05
0.00119836
0.000571472
0.000769128
0.000885142
2.74231e-05
1.15828e-05
6.46565e-06
1.86624e-07
0.00151628
0.0202023
0.00414937
0.00293385
4.47457e-06
5.57571e-11
1.22211e-06
1.22359e-07
3.17697e-10
7.79289e-11
8.42386e-09
4.59474e-09
8.93662e-10
4.54123e-10
2.44249e-10
8.65194e-11
8.26096e-10
3.62752e-10
9.27105e-12
4.80296e-11
1.09435e-10
6.10244e-11
3.62137e-11
5.98674e-11
1.52652e-10
3.51628e-10
2.40496e-10
1.59733e-10
1.96897e-10
3.90092e-10
4.31443e-10
4.78038e-10
5.79668e-10
6.82617e-10
6.66537e-10
6.9862e-10
9.6884e-10
1.07294e-09
5.50713e-10
1.13639e-09
3.02168e-09
2.03962e-09
0.000443278
20.3129
0.0017524
0.000533724
0.00139146
0.000558663
0.00164258
0.000134535
0.00138297
0.000343573
1.65706e-05
1.24749e-05
1.38474e-05
0
1.56094e-05
0.000488284
0.000454738
0.000209696
0.000532886
6.34012e-07
1.00194e-06
3.87985e-07
5.01079e-08
1.34547e-10
4.09398e-11
4.64618e-09
3.39559e-10
5.82324e-10
1.7936e-14
9.09458e-11
8.38966e-10
4.2284e-10
2.0728e-11
3.81881e-12
2.72122e-11
7.035e-11
1.17343e-10
6.74324e-11
3.4059e-11
1.59098e-10
3.17051e-10
3.03657e-10
1.87011e-10
2.59167e-10
4.03505e-10
4.47462e-10
4.91004e-10
7.16951e-10
7.85355e-10
7.10931e-10
7.13263e-10
9.40026e-10
9.87064e-10
1.34279e-09
9.17586e-10
3.74198e-10
9.26409e-06
0.00155583
6.07907e-07
0.00615077
0.000797143
0.00225435
0.000667661
0.00153371
2.58221e-05
0.00138549
0.00010704
1.78241e-05
1.12838e-05
3.60439e-05
0
0.00419638
8.25046e-07
7.30013e-05
4.07288e-05
9.87848e-05
6.48401e-05
1.89461e-06
4.60314e-07
6.88093e-10
9.56383e-10
6.87209e-11
3.28135e-09
2.3952e-10
8.81639e-10
1.68243e-11
1.37834e-14
6.31247e-11
2.96487e-11
2.21326e-10
1.02314e-11
3.80211e-11
1.56554e-11
3.68054e-11
6.89692e-11
9.15027e-11
4.67613e-11
2.54378e-10
3.7652e-10
3.25598e-10
2.53889e-10
2.92586e-10
3.86089e-10
5.53475e-10
5.62298e-10
8.26938e-10
8.83212e-10
7.7598e-10
7.03712e-10
8.32711e-10
1.38465e-09
1.75778e-09
6.01365e-10
5.39285e-09
0.00123018
0.00160171
0.000123698
0.00283261
0.00134421
0.000129885
0.000734805
0.000821928
0.000931556
0.000882612
4.24515e-05
1.71984e-05
1.74567e-05
3.85728e-08
0
0.0716951
0.000269327
4.50064e-08
4.89334e-06
6.83591e-06
1.85371e-05
3.30046e-06
5.5013e-07
2.49396e-12
3.06518e-10
5.0088e-10
3.18048e-11
1.91968e-09
8.29091e-10
5.68463e-10
1.18601e-10
4.22719e-11
2.4501e-11
1.14381e-11
1.19958e-10
2.63739e-10
2.14824e-11
9.11796e-12
1.76464e-10
9.60627e-11
1.15068e-10
1.07052e-10
2.31377e-10
4.22385e-10
4.26018e-10
3.04267e-10
3.62853e-10
4.55988e-10
5.47641e-10
6.69284e-10
9.43216e-10
9.6621e-10
7.81117e-10
6.59227e-10
9.64492e-10
2.61304e-09
1.9265e-09
1.30227e-09
1.54607e-07
0.00022506
0.0010917
1.99212e-05
0.0194104
0.00477744
4.78479e-05
0.00161536
0.000255629
0.00116324
0.000360848
2.38733e-05
1.95992e-05
2.20151e-05
1.16207e-30
6.36546e-24
0.24231
0.00159546
2.96881e-05
4.32317e-09
7.53352e-07
8.07564e-06
1.4217e-06
8.87726e-07
1.54625e-08
9.08913e-13
1.44412e-10
2.73148e-10
1.84348e-11
7.77641e-12
5.20292e-10
2.48434e-10
8.19711e-11
3.04186e-11
2.37755e-10
5.8704e-10
6.63789e-11
1.63233e-10
5.93751e-11
2.6005e-11
1.1211e-10
2.23085e-10
1.23044e-10
1.09775e-10
1.96366e-10
4.17257e-10
3.95753e-10
3.22415e-10
3.9757e-10
5.38651e-10
5.43577e-10
7.57935e-10
1.04948e-09
1.05918e-09
7.41076e-10
5.41273e-10
1.59001e-09
4.03434e-09
1.29955e-09
4.30247e-07
6.60475e-05
0.000577787
0.000806596
0.000835429
0.155568
0.0075266
0.000929359
0.00128429
7.19213e-06
0.00117488
0.000117008
1.94201e-05
2.32809e-05
2.40765e-05
6.83464e-28
0
0.0497429
0.00430681
0.000154395
4.30602e-06
7.19073e-10
1.58032e-07
2.32604e-06
4.60133e-07
7.04702e-07
6.99111e-09
6.3981e-13
1.00792e-08
1.66759e-10
1.14168e-11
5.11093e-12
2.24927e-10
1.70354e-10
3.57542e-11
1.18022e-11
1.29685e-10
3.5667e-10
1.66792e-10
8.31156e-11
3.80252e-11
5.19379e-11
1.28074e-10
2.34324e-10
1.2784e-10
1.02772e-10
3.04992e-10
5.01074e-10
4.96654e-10
3.74439e-10
4.47993e-10
5.75194e-10
6.34253e-10
8.04061e-10
1.08959e-09
1.05231e-09
7.01634e-10
5.67046e-10
2.64181e-09
5.82948e-09
3.11903e-12
5.04199e-06
0.0661994
0.000265748
0.000164821
0.00230357
0.00560268
0.00500541
0.000777997
0.000813313
0.00110649
0.000745692
5.06611e-05
1.95094e-05
3.45324e-05
0
0
7.31991e-17
0.00382122
0.00189115
0.000348914
9.35132e-05
8.80608e-07
1.31963e-10
4.58119e-08
1.63555e-07
3.5074e-07
2.56587e-07
1.88633e-08
2.60939e-13
5.79106e-09
1.06039e-10
7.90771e-10
1.54883e-10
1.55638e-10
8.84793e-11
2.84425e-10
1.29858e-10
7.20809e-11
3.55681e-11
1.05577e-10
1.55613e-10
1.97547e-11
7.38465e-11
2.62553e-10
2.23015e-10
1.81665e-10
1.36847e-10
3.14827e-10
5.30719e-10
5.71335e-10
5.06274e-10
5.6999e-10
6.53754e-10
7.0317e-10
8.51629e-10
1.12225e-09
9.68095e-10
5.98317e-10
1.31318e-09
3.43868e-09
7.60155e-09
4.66549e-09
0.000232053
0.000346779
0.00012781
2.3127e-05
0.131549
0.00121634
0.00037015
0.00113658
0.00012319
0.00106012
0.000291726
3.43857e-05
2.5005e-05
3.64808e-05
0
0
0
0.00266627
0.00029542
0.000201565
4.3833e-05
1.76697e-05
2.37944e-07
5.84366e-11
3.7347e-07
6.64233e-08
1.48504e-07
5.20385e-08
1.02743e-08
1.60123e-13
2.65799e-11
6.92246e-11
5.03903e-10
1.06421e-10
7.57156e-11
4.2669e-10
1.6011e-11
7.21085e-11
4.08528e-11
9.86989e-11
1.65852e-10
9.09365e-11
3.96505e-11
9.58718e-11
1.59262e-10
2.0865e-10
2.33925e-10
2.14591e-10
2.95679e-10
5.30799e-10
5.84658e-10
6.00949e-10
6.89379e-10
7.19316e-10
7.34778e-10
8.90673e-10
1.07714e-09
8.87785e-10
5.63851e-10
1.54405e-09
5.58265e-09
7.96162e-10
0.00042022
0.00105063
0.000170849
0.00152278
0.00017364
0.00024891
0.000142225
0.000402869
0.00128691
0.000742236
0.000918078
0.00010624
3.05233e-05
3.32534e-05
4.40204e-07
0
0
2.53855e-09
0.422638
1.82962e-09
3.82384e-05
2.48439e-05
8.4524e-06
1.10214e-06
7.22533e-08
6.21119e-07
1.38739e-07
7.76985e-08
3.70141e-08
3.89897e-08
1.03388e-09
9.69745e-14
1.68685e-11
4.564e-11
2.81025e-12
4.10681e-11
4.12241e-10
2.38895e-10
7.89784e-12
4.06011e-11
1.10759e-10
1.93844e-10
2.65408e-10
1.25438e-10
5.62459e-11
1.05284e-10
1.52545e-10
2.58559e-10
1.91871e-10
2.26084e-10
3.94901e-10
5.6757e-10
6.99345e-10
6.85504e-10
8.43929e-10
7.94816e-10
7.68255e-10
9.03814e-10
1.13558e-09
9.54329e-10
1.21567e-09
1.23202e-09
2.38062e-09
1.69038e-06
0.00062408
0.000870501
0.000187586
0.00213992
0.00291859
0.0018407
4.24581e-05
0.00116435
0.000530384
0.0012816
0.000440464
4.58467e-05
3.71407e-05
6.75715e-05
0
0
3.24621e-14
0.00314803
0.000240018
0.00383579
0.00121351
4.01489e-06
4.74722e-06
6.02505e-06
3.63458e-07
2.76239e-08
2.39818e-07
2.53005e-09
3.79232e-08
2.63934e-08
2.10878e-08
2.04943e-09
5.69685e-14
1.10994e-11
3.21465e-11
1.12647e-10
4.07555e-10
2.27132e-10
1.3774e-10
2.3558e-10
1.14739e-10
2.13835e-10
2.69181e-10
1.44676e-10
1.58321e-10
7.28034e-11
1.12849e-10
2.96007e-10
3.93132e-10
2.64245e-10
2.12176e-10
4.61068e-10
7.15002e-10
7.53053e-10
8.33001e-10
9.73175e-10
9.58179e-10
8.31472e-10
8.97319e-10
9.75395e-10
1.48735e-09
9.81578e-10
1.08811e-09
2.20406e-11
0.000405928
0.000638157
0.000337808
9.21926e-05
0.0161776
0.00111904
0.00133226
0.000551947
0.00101865
4.6076e-05
0.00118012
0.000190881
3.38664e-05
4.64607e-05
0.000573353
0
0
0
3.30083e-06
5.49007
0.038232
0.000151889
0.0003335
6.57533e-07
1.15546e-06
1.76878e-06
1.41807e-07
1.15697e-08
2.50606e-12
1.28959e-09
8.3449e-09
1.488e-08
9.66868e-09
1.32873e-09
2.96875e-10
7.6283e-12
2.19681e-10
7.86692e-11
2.21097e-10
1.31877e-10
8.38868e-11
1.51742e-10
7.43763e-11
1.25666e-10
3.41597e-10
1.82881e-10
9.38662e-11
7.93421e-11
1.08645e-10
3.47056e-10
3.93365e-10
3.20969e-10
2.83704e-10
4.87467e-10
7.97991e-10
8.6652e-10
9.41591e-10
1.14035e-09
1.0138e-09
8.68332e-10
8.66753e-10
9.48548e-10
1.7375e-09
7.17808e-10
3.46786e-10
6.4337e-06
0.000214273
0.000275587
0.000360455
0.000314672
0.826697
0.000751386
0.000136995
0.000625481
0.00106196
0.0254811
0.000713364
7.45314e-05
3.14611e-05
7.41051e-05
0
1.80946e-20
1.1742e-08
0
394.697
36.1725
15.2472
0.00186318
9.4513e-06
5.094e-11
1.46893e-07
3.46035e-07
2.379e-07
6.21323e-08
5.24703e-09
1.21954e-12
6.97583e-10
7.96743e-09
7.3917e-09
2.64964e-08
6.13514e-10
2.01951e-10
1.73102e-10
1.6405e-10
3.52213e-11
1.22247e-10
7.93025e-11
1.90018e-10
7.91169e-11
3.88047e-11
1.7517e-10
2.01721e-10
1.97177e-10
1.69681e-10
1.34237e-10
1.49279e-10
3.56236e-10
3.76376e-10
3.45571e-10
3.3345e-10
5.32959e-10
8.09854e-10
9.04558e-10
1.06701e-09
1.29706e-09
1.09328e-09
8.12697e-10
8.3492e-10
2.09111e-09
1.60012e-09
1.48965e-10
7.40619e-08
0.000164997
0.000874324
0.000555455
0.000719789
0.000822166
0.00113123
0.000371883
0.0194305
0.000916336
0.000285936
0.0011548
0.000274453
6.17252e-05
3.99946e-05
0.000119281
0
0
0
0
0
2.94875
4.53604
0.0065727
0.000164623
1.29477e-06
1.03475e-05
3.98999e-08
4.90439e-07
9.8631e-08
5.3486e-08
2.71019e-09
6.34598e-13
2.88303e-09
4.7565e-09
4.77794e-09
3.51441e-09
4.26512e-10
1.63593e-14
1.26674e-10
1.33339e-11
2.15831e-10
6.85948e-11
1.87955e-10
1.24465e-10
1.54143e-10
7.81381e-11
2.23911e-10
2.19861e-10
2.07715e-10
2.63454e-10
1.26948e-10
1.80277e-10
4.42989e-10
4.88763e-10
4.10387e-10
4.02425e-10
5.96691e-10
8.82608e-10
9.64244e-10
1.17709e-09
1.35623e-09
1.07443e-09
6.75759e-10
1.03475e-09
2.61968e-09
2.71408e-09
1.46192e-09
0.000235753
0.000442487
0.000985084
0.0014019
0.000711782
0.00283868
9.87308e-05
0.000497358
0.000170877
0.00126113
0.0209065
0.000810619
0.000123126
4.90609e-05
8.17155e-05
0
0
0
0
1.51364e-07
0.00866074
1.79451
1.02891e+11
0.0186028
0.000606325
0.000153171
2.65871e-07
5.90359e-15
1.45644e-08
2.0214e-07
4.66468e-08
2.73457e-08
1.56112e-09
3.43951e-13
1.7312e-09
2.3732e-09
2.73272e-09
2.03747e-09
2.22879e-10
3.7389e-11
2.89537e-12
5.85736e-11
1.23763e-10
3.90203e-11
1.23035e-10
6.86329e-11
9.088e-11
1.11103e-10
2.43987e-10
3.70531e-10
1.98472e-10
1.58375e-10
1.12164e-10
2.53591e-10
4.88453e-10
5.76604e-10
4.38931e-10
4.87857e-10
7.14877e-10
9.47293e-10
1.04729e-09
1.18159e-09
1.3516e-09
1.01264e-09
5.6968e-10
1.83467e-09
3.40733e-09
2.2054e-09
3.92037e-07
0.000410932
0.000723111
0.00211626
0.0016998
0.00166579
0.00117586
0.0117723
0.000186385
0.00101973
0.000403287
0.011513
0.000420409
5.78406e-05
6.42955e-05
4.30446e-05
0
0
2.68048e-12
1.4052e-07
0
0.000458527
0.658166
932620
0.149054
0.00240754
8.07738e-05
7.93547e-06
7.56509e-08
1.95239e-15
5.60299e-09
2.40639e-08
2.42764e-08
9.35206e-09
9.17985e-10
1.89219e-09
1.55756e-10
1.5784e-09
5.4987e-09
4.09286e-09
1.66344e-10
2.80069e-11
3.61418e-11
4.60989e-11
7.32799e-11
1.0918e-10
6.71593e-11
2.7775e-10
5.43958e-11
1.4458e-10
2.60066e-10
3.47065e-10
2.70677e-10
1.93736e-10
1.34467e-10
2.54622e-10
5.83312e-10
5.97579e-10
5.40802e-10
5.31297e-10
8.26556e-10
1.01924e-09
9.45178e-10
1.07521e-09
1.26512e-09
8.97453e-10
1.29763e-09
1.67248e-09
6.88245e-09
3.60412e-08
0.000619057
0.000615778
0.000504331
0.000843332
0.00070052
0.000269333
0.295145
0.00142068
0.00469559
0.000829208
2.45061e-05
0.000639703
0.000170133
4.68331e-05
6.363e-05
3.55108e-30
0
0
0.000180282
0
0
0
0.19902
54.528
0.0815686
0.00331822
0.000310574
3.59444e-05
2.54583e-06
2.75574e-08
8.67442e-16
2.55177e-09
1.26747e-08
1.57714e-08
5.46798e-09
5.57012e-10
1.16074e-09
3.53691e-10
9.06936e-10
3.26343e-09
2.43586e-09
9.83316e-11
1.08321e-11
2.76403e-11
2.79067e-11
4.42189e-11
2.19892e-10
2.85832e-10