/*--------------------------------*- C++ -*----------------------------------*\
| =========                 |                                                 |
| \\      /  F ield         | OpenFOAM: The Open Source CFD Toolbox           |
|  \\    /   O peration     | Version:  v2012                                 |
|   \\  /    A nd           | Website:  www.openfoam.com                      |
|    \\/     M anipulation  |                                                 |
\*---------------------------------------------------------------------------*/
FoamFile
{
    version     2.0;
    format      ascii;
    class       volScalarField;
    location    "6700";
    object      k;
}
// * * * * * * * * * * * * * * * * * * * * * * * * * * * * * * * * * * * * * //

dimensions      [0 2 -2 0 0 0 0];


internalField   nonuniform List<scalar> 
39402
(
2288.98
92.5941
490.93
33.1792
17.158
173.489
29.2176
5.57652
7.64192
80.0806
32.8207
10.1265
2.16333
5.68841
47.0826
35.783
16.7329
35.7435
1.74341
5.54069
34.4687
37.6837
21.0978
73.1575
112.829
2.39927
5.94993
29.0667
38.7848
23.8324
96.7846
233.022
264.748
3.81996
6.44231
26.3533
39.2755
25.3448
111.32
307.461
543.235
509.806
5.89118
6.79733
24.6985
39.4683
26.2269
119.224
352.657
712.607
1035.19
852.672
8.46282
6.93129
23.4929
39.2326
26.6052
123.857
377.019
814.186
1348.48
1707.63
1279.6
11.2748
6.8524
22.498
38.7821
26.5164
125.771
391
868.584
1533.81
2206.49
2520.96
1760.79
14.068
6.61969
21.6162
38.2843
26.2471
125.311
396.551
899.179
1632.66
2497.28
3229.43
3409.92
2258.68
16.733
6.30414
20.8083
37.735
25.9459
124.003
394.776
910.925
1687.2
2652.05
3636.35
4332.44
4305.91
2753.47
19.1759
5.93906
20.0545
37.1352
25.5539
122.553
390.461
906.383
1707.66
2735.92
3852.89
4855.04
5432.38
5161.19
3230.23
21.3688
5.55052
19.343
36.5581
25.1206
120.602
385.672
896.293
1698.97
2767.18
3968.58
5133.58
6063.29
6467.44
5952.79
3674.79
23.2363
5.17575
18.6676
35.9809
24.7048
118.463
379.353
885.114
1680.49
2753.79
4011.74
5280.88
6400.37
7197.01
7415.42
6658.05
4073.34
24.0541
4.85218
18.0234
35.3814
24.2712
116.409
372.473
870.548
1659.84
2725.79
3994.77
5336.56
6577.54
7587.43
8229.38
8254.06
7257.28
4408.75
23.2668
4.59983
17.4073
34.7764
23.8
114.249
365.847
854.716
1633.18
2694.02
3958.21
5318.16
6645.7
7792.26
8665.44
9142.32
8965.65
7731.79
4647.13
20.7489
4.42773
16.804
34.2189
23.3376
111.894
358.9
839.455
1604.26
2653.05
3915.73
5275.72
6628.73
7872.71
8893.88
9619.13
9921.45
9536.61
8063.02
4704.18
16.7473
4.33322
16.2101
33.6985
22.9205
109.599
351.368
823.473
1576.24
2608.6
3861.01
5224.99
6583.88
7859.58
8985.28
9868.88
10435.8
10557.2
9955.98
8225.9
4543
12.2009
4.28915
15.6265
33.1816
22.5261
107.537
344.036
806.224
1546.91
2565.3
3801.34
5159.21
6528.17
7815.47
8977.09
9971.35
10705.8
11108.1
11043.4
10212.5
8187.1
4172.86
8.1485
4.15458
15.0901
32.6645
22.1239
105.571
337.422
789.43
1515.34
2519.88
3742.85
5087.14
6455.22
7758.05
8935.36
9969.97
10820.1
11398.7
11632.9
11375.4
10297.2
7942.83
3614.04
5.15125
4.00594
14.643
32.1787
21.7246
103.565
331.11
774.228
1484.59
2471.11
3681.29
5015.88
6374.71
7681.65
8878.13
9932.96
10827.6
11526.4
11946.3
12009.1
11550.3
10199.4
7484.07
2912.86
3.32088
3.86348
14.3429
31.7201
21.3558
101.581
324.689
759.699
1456.63
2423.51
3615.28
4940.6
6294.39
7596.72
8800.67
9878.59
10797.7
11545.1
12089.7
12349.9
12237.6
11562.5
9907.54
6816.06
2144.86
2.32992
3.72034
14.217
31.273
21.0103
99.758
318.357
744.952
1429.84
2380
3550.7
4859.86
6209.13
7511.24
8714.44
9803
10748.9
11524.8
12122.3
12512.5
12612.5
12317.9
11404.2
9416.12
5970.33
1406.42
1.83588
3.57442
14.2288
30.8393
20.6671
98.0506
312.531
730.437
1402.7
2338.19
3491.35
4780.75
6117.64
7419.99
8627.34
9718.1
10678
11484
12113.9
12562.2
12799.2
12736.9
12247.6
11069.1
8722.38
4985.85
796.586
1.58249
3.43826
14.3003
30.4256
20.3315
96.3598
307.082
717.055
1375.99
2295.83
3434.05
4707.61
6027.88
7321.99
8533.57
9631.55
10597.3
11420.6
12083.8
12568.5
12869.9
12954.6
12724.8
12023.9
10550.5
7832.2
3902.34
379.97
1.44958
3.31768
14.4231
30.0321
20.016
94.7044
301.704
704.549
1351.32
2254.17
3376
4636.68
5944.33
7225.63
8432.69
9537.61
10514
11346.7
12030.4
12551.4
12893.8
13051.2
12983
12577.1
11643.4
9841.25
6774.74
2803.81
153.764
1.37378
3.22024
14.5736
29.6441
19.7176
93.1567
296.45
692.224
1328.23
2215.53
3318.88
4564.69
5862.88
7135.42
8333.32
9436.15
10422.7
11269.4
11965.9
12510.5
12892.5
13096.3
13111.9
12887.8
12293.6
11099.4
8944.74
5610.64
1795.45
55.4187
1.32644
3.1407
14.776
29.2703
19.4196
91.6996
291.544
680.208
1305.51
2179.33
3265.71
4493.87
5780.18
7047.08
8239.83
9336.1
10323.5
11183.2
11896.8
12457.7
12866.5
13113.6
13182.7
13057.2
12671.7
11871.5
10387.1
7877.98
4407.87
991.715
19.0021
1.29717
3.1112
15.0062
28.9261
19.1345
90.2498
286.938
668.982
1283.37
2143.68
3215.72
4427.64
5698.68
6957.1
8147.7
9241.42
10225.4
11088.8
11818.2
12399.1
12827.6
13105.1
13222
13159.2
12891.7
12335.3
11306.5
9504.65
6678.56
3204.82
463.708
6.63165
1.27683
3.10124
15.2489
28.5958
18.8746
88.8684
282.378
658.478
1262.69
2108.99
3166.47
4365.16
5622.24
6868.44
8053.69
9147.63
10132.2
10995.4
11731.1
12330.2
12781.6
13082.2
13233.5
13224.5
13031.6
12618.3
11877
10593.3
8459.16
5412.91
2089.79
186.696
2.58553
1.25703
3.08652
15.4731
28.2663
18.6236
87.6193
278.05
648.103
1243.34
2076.52
3118.55
4303.55
5549.84
6784.96
7960.98
9051.66
10039.1
10905.9
11644.4
12252.4
12724.4
13050.7
13229
13259.2
13127.5
12804.5
12237.9
11292.7
9727.84
7275.39
4164.51
1177.53
67.7494
1.27656
1.23648
3.06648
15.6593
27.9385
18.3691
86.4165
274.132
638.278
1224.26
2046.1
3073.58
4243.55
5478.3
6705.6
7873.33
8956.95
9943.65
10815.9
11560.8
12174.4
12657.7
13007.1
13214
13275.4
13188.9
12936.7
12480.7
11749.2
10577.1
8711.87
6006.85
2958.66
560.12
23.1553
0.851377
1.21619
3.04494
15.8074
27.6337
18.1169
85.2003
270.393
629.393
1206.21
2016.13
3031.43
4187.17
5408.62
6627.02
7789.68
8867.07
9849.27
10723.2
11476
12098.7
12590.2
12953.2
13185.8
13279
13228.5
13028.8
12656.2
12061
11148.5
9724.72
7559.98
4734.83
1872.56
227.794
7.71738
0.709737
1.19875
3.0253
15.9378
27.37
17.8922
84.0056
266.629
620.941
1189.88
1987.79
2989.82
4134.15
5342.97
6550.45
7706.67
8780.93
9759.43
10631.4
11388.1
12020.9
12523.9
12897.7
13146.3
13267.9
13253
13095.1
12784.1
12288.5
11544.3
10430.3
8734.18
6311.62
3514.31
1019.4
82.5713
2.64767
0.658984
1.18472
3.01076
16.0229
27.1128
17.7011
82.9574
262.952
612.471
1174.38
1962.09
2950.46
4081.72
5281.08
6478.18
7625.75
8695.31
9672.88
10543.6
11300.7
11939.5
12454.8
12842.3
13104.2
13244.5
13261
13142.7
12880.6
12458.3
11834.5
10927.1
9588.78
7615.01
5041.51
2378.59
472.215
27.6048
1.05759
0.637557
1.17323
3.01589
16.0575
26.8543
17.5118
82.0754
259.741
604.241
1158.91
1937.71
2914.66
4032.08
5219.7
6409.73
7549.18
8611.73
9586.65
10458.7
11216.8
11858.2
12381.4
12783.3
13061.1
13217
13255.1
13171.8
12954.2
12589.4
12053.7
11292.7
10203.9
8621.57
6399.49
3832.87
1414.53
190.921
8.75494
0.57965
0.627194
1.17053
3.05032
16.0723
26.5929
17.3123
81.2089
257.058
597.071
1143.92
1913.46
2880.7
3986.76
5161.59
6341.74
7476.45
8532.46
9502.43
10373.7
11135.3
11780
12307.7
12719.4
13013.4
13187.5
13243.7
13185.2
13006.7
12692.5
12224.8
11570.5
10659.6
9369.01
7535.79
5159.17
2696.62
720.701
69.9824
2.75419
0.440637
0.623277
1.17485
3.09431
16.0788
26.3504
17.1144
80.2902
254.441
591.099
1130.88
1890.01
2846.93
3943.7
5108.22
6277.26
7404.1
8457.01
9422.34
10290.7
11053.3
11703.3
12236.4
12654.5
12960.1
13152.3
13228.8
13191.3
13041.2
12771
12361.3
11788.3
11007.1
9929.98
8419.42
6358.23
3969.67
1693.44
316.891
23.8855
0.954276
0.40093
0.621761
1.17967
3.13612
16.079
26.1475
16.9394
79.3867
251.682
585.312
1120.03
1869.6
2814.39
3900.92
5057.39
6217.73
7335.34
8382.21
9345.88
10211.5
10973
11625.8
12166
12591.4
12905.2
13110.7
13207.3
13192.3
13066.3
12828.7
12468.8
11963
11279.8
10360
9097.89
7360.37
5153.71
2853.1
919.558
124.613
7.70965
0.446084
0.389596
0.621127
1.18416
3.17258
16.0782
25.9597
16.7978
78.6066
248.982
579.243
1109.55
1852.61
2786.01
3859.78
5006.94
6160.96
7271.56
8310.96
9269.89
10135.6
10896.3
11549.7
12094.3
12528.4
12851.3
13066.8
13178.5
13185.6
13084.5
12874.4
12552.3
12103.4
11498.7
10697.4
9623.66
8159.93
6216.21
3993.04
1851.91
430.13
44.9307
2.42879
0.310291
0.386869
0.620511
1.18693
3.20309
16.0766
25.7681
16.6658
77.9925
246.675
573.331
1098.63
1836.23
2762.28
3823.79
4958.51
6104.51
7210.59
8244.61
9197.37
10059.9
10822.4
11476.7
12023.6
12463.6
12796.7
13023
13146.4
13170.5
13093.6
12911.2
12620.6
12215.5
11676.4
10967.9
10037.3
8792.29
7120.59
5047.78
2905.59
1049.19
178.651
15.0159
0.818159
0.275814
0.386708
0.6203
1.19011
3.22527
16.0742
25.561
16.5208
77.4256
244.888
568.318
1088.03
1819.24
2739.39
3793.48
4915.98
6050.46
7149.94
8180.9
9129.54
9987.57
10748.5
11406.1
11955.5
12399.3
12739.9
12977.8
13113.6
13151.2
13093.3
12937.4
12677.5
12308.7
11820.7
11188.5
10368.3
9293.91
7862.34
6005.16
3921.52
1924.22
513.287
67.5014
4.7226
0.358161
0.267471
0.387028
0.62326
1.19544
3.23964
16.0727
25.3558
16.3609
76.785
243.252
564.484
1079.1
1802.82
2715.8
3764.25
4879.88
6002.79
7091.85
8117.51
9064.15
9919.55
10677.6
11335.1
11889.3
12337.2
12682.9
12929.7
13078.6
13130.1
13087.6
12952.9
12722.1
12387.6
11941.5
11369.1
10638.5
9695.85
8461.4
6838.42
4872.22
2868.79
1121.03
222.516
23.4128
1.45748
0.235352
0.265909
0.38729
0.626509
1.20413
3.24666
16.0709
25.1666
16.2062
76.0807
241.409
560.996
1072.32
1789.01
2693.07
3734.25
4844.97
5961.93
7040.45
8056.82
8999.01
9853.7
10610.6
11266.9
11822.3
12276.3
12627.6
12880.9
13040
13106
13079
12961.7
12754.6
12452.1
12044.5
11520.8
10860.7
10023.9
8944.78
7536.5
5748.9
3783.36
1917.44
566.935
87.6985
7.54458
0.499479
0.204863
0.265953
0.388418
0.629827
1.2147
3.24677
16.0687
25.0185
16.0721
75.4038
239.373
557.078
1066.18
1778.56
2673.99
3705.45
4809.33
5922.32
6996.01
8002.9
8936.7
9787.98
10545.5
11202.1
11757.7
12214.3
12572.8
12833.1
13000
13077.6
13066.5
12966.5
12778.9
12502.9
12130.7
11650.6
11047.4
10294
9340.14
8109.36
6524.66
4651.12
2768.01
1132.19
254.259
31.6212
2.31983
0.23808
0.197791
0.266621
0.389608
0.632119
1.22599
3.2451
16.0664
24.9056
15.9746
74.8371
237.43
552.749
1059.3
1769.12
2659.49
3681.26
4775.23
5882.03
6952.69
7955.89
8881.13
9725.17
10480.3
11138.7
11696
12154.2
12516.6
12785.3
12960.4
13047.1
13049
12966.3
12797.8
12543.7
12201.3
11760.6
11207
10520.5
9665.86
8581.56
7186.99
5458.86
3601.33
1852.29
582.137
103.446
10.5389
0.727875
0.17183
0.196542
0.267669
0.391081
0.633931
1.2328
3.24388
16.0636
24.807
15.9154
74.4505
235.83
548.638
1051.72
1758.59
2646.35
3662.67
4746.47
5843.59
6908.79
7909.84
8832.25
9668.99
10418
11075
11635.3
12096.5
12461.7
12735.5
12920.1
13016.3
13028.7
12960.4
12810.7
12577.7
12260
11852.7
11343.3
10713.8
9938.36
8971.61
7742.55
6184.71
4395.87
2624.98
1097.23
265.611
38.2695
3.30425
0.277805
0.156354
0.196689
0.268705
0.39357
0.636644
1.23489
3.24302
16.0606
24.6951
15.8507
74.2564
234.79
545.308
1044.55
1747.02
2631.79
3645.76
4724.09
5811.07
6867.04
7863.3
8784.17
9619.13
10362.1
11014.2
11574
12039.2
12408.7
12686.4
12877.4
12984.1
13007.2
12950.7
12817.1
12604.5
12310.2
11930.7
11458.9
10879.3
10169.9
9297.3
8205.23
6821.63
5141.14
3386.01
1748.31
567.25
109.847
12.9626
1.01604
0.159506
0.153014
0.197248
0.270003
0.396474
0.641061
1.23388
3.24258
16.0576
24.5646
15.7728
74.0197
234.336
543.224
1038.81
1736.16
2615.93
3627.17
4703.58
5785.34
6831.55
7819.18
8735.64
9569.83
10312.1
10959.5
11515.5
11981.1
12355.5
12638.7
12834.8
12948.9
12983.6
12939.1
12818.7
12623.9
12351.8
11998.2
11558
11021
10368.4
9572.98
8592.25
7361.32
5828.32
4112.6
2449.42
1030.81
260.956
41.1364
4.08791
0.343996
0.130641
0.152531
0.198083
0.271594
0.398639
0.644731
1.23174
3.24252
16.0553
24.4028
15.6683
73.7157
233.755
542.441
1035.35
1727.51
2601.09
3607.09
4681.22
5761.57
6803.02
7781.44
8689.78
9520.1
10262.4
10910.2
11462.8
11925.5
12301.3
12590.3
12792.9
12913.3
12956.5
12924.6
12817.5
12637.5
12385
12055.8
11644.3
11143.2
10539
9808.91
8919.01
7817.11
6439.4
4807.18
3143.72
1614.38
531.803
108.809
14.0475
1.23746
0.160917
0.124163
0.152811
0.199218
0.273335
0.400057
0.646188
1.23011
3.24244
16.053
24.2357
15.5346
73.2711
232.966
541.38
1034.22
1722.42
2589.32
3588.43
4657.3
5735.8
6776.43
7750.66
8650.34
9473.18
10212.3
10860.8
11414.7
11875.4
12249.4
12540.6
12749.9
12877.8
12928.2
12906
12812.5
12647.2
12411.2
12103.7
11719
11250
10686.7
10012.1
9198.01
8202.59
6967.1
5457.68
3814
2248.4
940.482
244.938
41.0243
4.44669
0.392872
0.114761
0.122953
0.153229
0.20044
0.27561
0.401711
0.64484
1.22933
3.24222
16.0514
24.0708
15.402
72.6807
231.744
539.867
1032.59
1720.89
2582.47
3573.57
4635.18
5708.61
6747.71
7721.62
8617.63
9432.66
10165
10810.9
11366.4
11829.4
12202.5
12492.7
12705.1
12840.5
12899.5
12885.6
12803
12652.4
12432.6
12143.4
11782.7
11343.1
10816
10188.2
9438.24
8531.3
7417.78
6044.21
4464.16
2886.52
1457.75
480.458
102.17
14.0774
1.33998
0.161327
0.104097
0.122918
0.154
0.201899
0.277761
0.402921
0.64249
1.22916
3.24211
16.05
23.9271
15.2763
72.0991
230.067
537.391
1030.15
1718.57
2580.34
3564.87
4617.48
5683.55
6717.79
7690.49
8586.54
9398.57
10124
10763.9
11317.4
11782.7
12159
12449.6
12661.8
12801.2
12868.5
12864
12790.8
12652.3
12448.4
12177
11836.8
11423.8
10929.3
10342.4
9646.35
8814.1
7803.1
6561.13
5075.94
3508.81
2033.52
833.362
219.7
38.4147
4.46934
0.413731
0.102701
0.102014
0.123218
0.155019
0.203568
0.279045
0.403282
0.640672
1.22915
3.24214
16.0485
23.8132
15.1735
71.5527
228.413
533.884
1025.97
1715.02
2577.17
3561.84
4606.9
5663.34
6690.31
7658.31
8553.39
9365.9
10089.1
10723.1
11271.2
11735.2
12114.6
12409.3
12622.9
12763
12835.1
12839.8
12776.9
12648.8
12458.2
12204.1
11883.5
11493.4
11028.4
10477.8
9828.25
9058.68
8134.82
7007.68
5637.86
4111.93
2619.53
1290.85
418.5
90.9223
13.1009
1.34548
0.15813
0.0891349
0.10177
0.123854
0.156214
0.205269
0.279881
0.401368
0.639754
1.22923
3.24231
16.0486
23.7376
15.1009
71.1219
226.861
530.417
1019.93
1708.83
2572.29
3557.48
4602.55
5650.92
6667.97
7628.86
8519.33
9331.16
10055.3
10687.8
11231.1
11690.5
12069.1
12367.7
12586.3
12728.6
12802.2
12812.6
12759.6
12642.9
12463.9
12224.4
11922.5
11554.1
11114.7
10597
9988.25
9271.87
8421.28
7394.43
6142.94
4684.58
3194.91
1808.93
720.256
188.954
33.6986
4.12466
0.408989
0.0928776
0.0863261
0.102032
0.12435
0.157588
0.207103
0.280008
0.399
0.639503
1.22939
3.24252
16.0488
23.6898
15.0651
70.8351
225.666
527.184
1013.96
1699.75
2563.87
3551.05
4596.68
5644.94
6653.82
7604.78
8488.24
9295.65
10019.4
10653.4
11196
11651.6
12026.3
12324.7
12548
12696.1
12772.9
12785.5
12739.1
12633.1
12466.4
12239.7
11953.9
11605.8
11190.5
10701.5
10129.5
9459.29
8670.26
7728.91
6587.72
5222.76
3751.3
2344.13
1118.4
354.516
76.9417
11.3177
1.22781
0.149745
0.0775326
0.0859643
0.102129
0.125286
0.159069
0.208142
0.27947
0.397312
0.639544
1.22951
3.24272
16.0491
23.6609
15.0514
70.7342
224.897
524.723
1008.41
1690.82
2551.56
3540.28
4588.46
5637.25
6645.97
7588.97
8462.68
9263.33
9982.9
10616.7
11161.4
11617.1
11989
12284.1
12507.9
12661.5
12744.8
12761.5
12718.2
12619.5
12464.4
12251.1
11979.4
11649.1
11255.8
10793.5
10253.8
9625.03
8888.72
8019.04
6975.59
5715.26
4289.74
2873.88
1578.08
606.45
157.606
28.0048
3.5107
0.36806
0.0835047
0.0743454
0.085982
0.102599
0.126316
0.160563
0.208644
0.277136
0.396589
0.639661
1.22968
3.24307
16.0503
23.6322
15.0482
70.7363
224.698
523.213
1004.24
1682.51
2539.55
3524.87
4575.32
5627.01
6636.28
7579.19
8445.33
9236.63
9949.75
10579.7
11124.6
11582.9
11955.8
12249
12470
12624.8
12714.4
12738.2
12699.8
12605.1
12458.3
12257.4
12000.1
11685.4
11311.7
10873.6
10363.5
9771.1
9081.83
8273.01
7312.46
6157.47
4802.25
3389.65
2063.62
944.266
292.01
62.7813
9.25149
1.0317
0.132786
0.0680177
0.0738313
0.0863079
0.103188
0.127494
0.161912
0.208073
0.274986
0.396441
0.639821
1.22994
3.2435
16.0524
23.5929
15.0375
70.7787
224.809
522.951
1001.78
1676.38
2528.41
3509.95
4557.09
5611.56
6623.94
7567.41
8433.63
9217.99
9922.23
10546.2
11087.5
11546.3
11922.3
12217.3
12437.3
12590
12681.4
12712.2
12681.6
12592.6
12450.6
12259.1
12015.2
11716
11359.5
10942.9
10459.4
9900.12
9252.08
8497.12
7607.23
6544.8
5280.04
3894.84
2551.43
1345.95
495.419
127.003
22.3292
2.82856
0.307791
0.0734714
0.0647737
0.073983
0.0866353
0.103927
0.128706
0.162526
0.206743
0.273716
0.396504
0.639998
1.23021
3.244
16.0548
23.5367
15.0119
70.7766
225.044
523.374
1001.55
1672.82
2520.22
3496.14
4539.61
5590.85
6606.29
7553.03
8419.85
9204.47
9902.58
10518.2
11053.9
11509.5
11886.3
12185.1
12407.6
12560
12650.1
12683.5
12660.5
12579.9
12444.4
12258.5
12025.1
11740.4
11400.6
11003
10543.3
10013.3
9402.39
8694.52
7866.84
6885.47
5714.1
4379.05
3032.39
1783.64
774.591
232.376
49.098
7.22157
0.822356
0.112512
0.0597554
0.0643046
0.0741514
0.0870092
0.104908
0.129998
0.162667
0.204386
0.273326
0.396632
0.640202
1.23054
3.2448
16.0582
23.4672
14.9689
70.6896
225.123
524.07
1002.54
1672.72
2515.54
3486.06
4523.53
5571.26
6583.48
7533.37
8403.48
9188.8
9887.47
10497.8
11025.7
11476.1
11850.2
12150.1
12377.1
12532.7
12623.1
12655.8
12636.2
12564
12437.4
12258.8
12032.1
11758.9
11434.9
11055.4
10616.7
10113
9534.57
8868.56
8095.08
7185.57
6103.12
4837.58
3501.35
2232.14
1120.04
391.952
97.9698
16.9486
2.1646
0.245578
0.063854
0.0569551
0.0643247
0.0744073
0.0875085
0.106051
0.130997
0.161401
0.202732
0.273311
0.396783
0.640429
1.23092
3.24566
16.0613
23.376
14.91
70.5102
224.935
524.388
1004
1674.41
2515.52
3480.25
4511.73
5553.28
6562.13
7508.72
8381.95
9170.55
9870.07
10481.4
11004.9
11448.2
11817.4
12115
12343.6
12504.3
12598.5
12632.2
12612.6
12544.5
12427
12258
12039.3
11774
11462.7
11100.2
10681.2
10200.7
9651.4
9021.69
8295.89
7449.06
6447.64
5262.65
3957.81
2678.68
1508.67
617.094
178.121
36.5089
5.3299
0.619997
0.0925298
0.0527462
0.0565121
0.0645003
0.0745582
0.0882637
0.107075
0.131173
0.159675
0.202042
0.273407
0.396958
0.640673
1.23137
3.24664
16.0663
23.2731
14.8303
70.2457
224.449
524.102
1004.75
1676.87
2517.87
3480.12
4504.83
5540
6542.63
7485.94
8355.77
9147.31
9850.13
10462.5
10987.5
11427.2
11790
12083.1
12309.8
12472.5
12572.5
12610.6
12592.6
12525.1
12412.6
12253.3
12044.8
11788.4
11486.2
11137.9
10737.2
10278.3
9754.76
9157.48
8472.53
7680.51
6751
5650.96
4394.36
3114.65
1917.36
906.514
300.689
72.1518
12.1794
1.55821
0.186237
0.0551111
0.0504972
0.0565943
0.0646438
0.0749614
0.0890933
0.108173
0.130965
0.157731
0.201935
0.273541
0.39714
0.64095
1.23185
3.24783
16.0718
23.16
14.7415
69.8708
223.692
523.127
1004.4
1678.13
2521.2
3482.8
4504.28
5532.02
6528.07
7465.26
8331.75
9119.88
9825.35
10441.1
10967.4
11409.1
11769.2
12056.7
12279.2
12440.4
12542.9
12587.4
12574.3
12509.1
12397.9
12244.4
12046.3
11800.6
11508.3
11170.5
10785.5
10346.5
9846.63
9278.01
8629.45
7883.92
7017.51
5996.7
4808.62
3540.73
2326.97
1244.1
476.891
131.612
25.8102
3.71493
0.439796
0.0740855
0.0467484
0.0502013
0.0567409
0.0648845
0.0754206
0.0900844
0.10866
0.128988
0.156798
0.202007
0.273684
0.397353
0.641252
1.23237
3.24928
16.0777
23.0476
14.6453
69.451
222.579
521.532
1002.75
1677.66
2522.83
3486.6
4506.8
5530.76
6519.09
7449.67
8310.09
9094.92
9796.91
10415
10944.8
11388.2
11750.8
12036.3
12253.8
12411.3
12512.8
12560.3
12554.1
12494.3
12385.9
12234.5
12043.1
11808.6
11527.6
11200.7
10827.8
10406.2
9927.96
9385.44
8769.04
8064.75
7251.64
6301.99
5188.66
3954.43
2731.22
1608.24
710.658
223.387
50.8491
8.30552
1.05904
0.135057
0.0474119
0.0451312
0.0502741
0.0569161
0.0650938
0.0761485
0.090839
0.108022
0.127222
0.156583
0.202117
0.273838
0.397586
0.641611
1.23302
3.25097
16.0847
22.9346
14.5497
68.9896
221.32
519.117
999.982
1675.21
2522.17
3488.26
4510.52
5532.67
6516.9
7439.75
8293.63
9072.45
9771.27
10385.8
10917.7
11364.7
11729.5
12018
12234.2
12387.3
12485.4
12532.4
12529.8
12477.4
12374.9
12227
12038.5
11811.5
11542.4
11227.6
10866.8
10458.9
9999.93
9481.14
8893.67
8225.78
7459.81
6570.69
5532.21
4344.99
3126.6
1981.86
993.843
356.27
93.3596
17.3974
2.45573
0.29679
0.0586196
0.0416491
0.0449343
0.0504161
0.0570702
0.065456
0.0769265
0.0913612
0.107227
0.126062
0.156624
0.202242
0.274017
0.397827
0.641997
1.23377
3.25283
16.0925
22.8299
14.4578
68.5324
219.928
516.361
995.682
1670.99
2518.71
3487.07
4511.7
5535.75
6517.84
7436.5
8282.84
9055.32
9748.27
10359.7
10888
11336.9
11705.4
11996.6
12216.4
12368.8
12463
12507
12504.5
12456.3
12361.7
12220
12035.5
11812.4
11551.8
11249.6
10901.6
10507.3
10063.9
9566.47
9005.12
8369.57
7645.23
6810.01
5836.87
4711.36
3510.56
2355.6
1310.99
536.928
159.592
34.2129
5.38576
0.684056
0.0956179
0.0410155
0.0405802
0.0450144
0.0505493
0.057293
0.066068
0.0778056
0.0916915
0.10524
0.125759
0.156721
0.202384
0.274208
0.398099
0.64242
1.23456
3.25497
16.1009
22.7334
14.3741
68.0922
218.528
513.281
990.765
1664.38
2512.88
3482.49
4509.71
5536.01
6519.88
7436.32
8278.52
9043.81
9730.62
10336.4
10861.6
11306.9
11677.1
11972.3
12195.3
12351.8
12445.8
12486.5
12481.3
12433.8
12344
12210.7
12032.9
11814.4
11558.6
11265.9
10931.4
10550.7
10122.4
9642.68
9105.03
8498.46
7810.63
7023.32
6110.21
5047.22
3878.73
2721.41
1647.71
765.271
256.12
63.0298
11.1543
1.54002
0.192759
0.0467766
0.0373436
0.040481
0.0451236
0.0507276
0.0575788
0.0667732
0.0784905
0.090302
0.104104
0.125775
0.156833
0.202536
0.274414
0.398399
0.642904
1.23548
3.25731
16.1105
22.6504
14.3004
67.6911
217.178
510.189
985.249
1656.81
2503.8
3475.02
4503.85
5532.91
6518.85
7437.05
8277.11
9038.43
9718.58
10318.4
10838.2
11280.3
11647.1
11943.8
12171
12331.3
12430
12470.8
12462.9
12413.1
12324.6
12196.7
12027.6
11816.2
11565.8
11278.9
10954.9
10588.5
10175
9712.08
9194.51
8614.37
7959
7213.21
6354.22
5355.1
4226.55
3075.27
1988.32
1033.69
389.919
108.736
21.8091
3.30951
0.420393
0.0675095
0.0359074
0.0367142
0.040555
0.0452667
0.0507941
0.05791
0.0674482
0.0783273
0.0889778
0.103725
0.125863
0.156959
0.202701
0.274641
0.39873
0.64345
1.23655
3.26004
16.1208
22.5785
14.2395
67.3374
215.942
507.192
979.664
1648.28
2493.41
3463.52
4494.75
5525.7
6514.41
7434.53
8276.41
9035.77
9712.22
10306
10820.1
11257
11620.6
11913.9
12142.6
12307.5
12410.5
12456.4
12448.9
12396.9
12306.6
12180.7
12017.7
11815.4
11572.5
11291.7
10974.7
10619.8
10221.6
9774.6
9275.8
8718.38
8092.65
7383.61
6572.05
5632.8
4555.48
3417.68
2324.77
1327.35
566.215
176.35
40.263
6.7566
0.913225
0.121698
0.0381692
0.0337509
0.0366905
0.040682
0.0453478
0.0510115
0.058523
0.0680486
0.0779643
0.0877158
0.103728
0.125967
0.157091
0.202881
0.274891
0.399099
0.644058
1.23774
3.26317
16.1324
22.5204
14.1887
67.0488
214.858
504.415
974.233
1639.66
2481.72
3450.54
4481.16
5515.03
6505.83
7428.63
8272.38
9033.56
9708.35
10298.8
10807.5
11239
11597.5
11887.6
12113.2
12279.6
12387.4
12438.2
12436.3
12384.8
12292.8
12165.5
12005.3
11809.7
11576.3
11303.4
10993.3
10646.7
10261.2
9830.51
9349.05
8812.66
8212.7
7537.18
6767.7
5881.5
4859.83
3747.62
2651.44
1633.13
782.176
271.98
70.1826
13.1314
1.91718
0.246256
0.0484988
0.0319078
0.0334273
0.0367931
0.0407725
0.0455245
0.0514161
0.0592085
0.0683664
0.076217
0.0873409
0.103806
0.126079
0.157239
0.203077
0.275158
0.399513
0.644717
1.23903
3.26642
16.1458
22.4698
14.1501
66.8108
213.954
501.977
969.211
1631.24
2469.94
3435.98
4465.99
5499.67
6493.7
7418.67
8265.03
9027.99
9704.67
10293.9
10799.7
11226.4
11579.7
11865
12087.2
12250.6
12360.2
12416.3
12419.6
12374.1
12282.9
12154.4
11993.3
11801.2
11575.1
11312.1
11010.4
10671.8
10295.7
9879.03
9415.05
8897.6
8321.29
7675.16
6943.98
6105.72
5138.56
4060.57
2968.36
1938.62
1028.92
400.597
115.764
24.3033
3.86833
0.512171
0.0760963
0.0320698
0.0307404
0.0334683
0.0368843
0.0409061
0.0456845
0.051867
0.0597559
0.0672907
0.0751531
0.0873361
0.1039
0.126201
0.157401
0.203292
0.275463
0.399956
0.645469
1.24048
3.27006
16.1601
22.4291
14.1167
66.6212
213.206
499.957
964.76
1623.44
2458.38
3421.28
4449.02
5482.77
6476.9
7405.2
8253.76
9019.21
9697.61
10288.8
10793.9
11218.1
11567.2
11847.5
12065.2
12225.2
12332
12390.1
12399.2
12359.4
12274.3
12146.7
11984.9
11792.6
11570.8
11315.8
11024.3
10694.6
10327.5
9921.73
9473.13
8974.51
8419.02
7799.64
7102.28
6307.83
5392.99
4356.25
3275.1
2240.23
1293.99
564.456
180.926
42.7867
7.47926
1.05278
0.139626
0.0363005
0.0287378
0.0306133
0.0335444
0.0369929
0.0409771
0.0458885
0.0524329
0.0596817
0.0663211
0.0747668
0.0874108
0.104004
0.126334
0.157574
0.203526
0.275795
0.400449
0.646316
1.24208
3.27423
16.1752
22.3972
14.0944
66.4622
212.606
498.248
961.05
1616.5
2447.66
3406.89
4431.99
5464.01
6458.71
7387.24
8239.07
9006.77
9687.45
10280.4
10787.6
11211.7
11558.8
11835.3
12048.2
12203.8
12307.2
12362.8
12374.2
12340.7
12261.7
12140.5
11979.8
11787.2
11565.9
11315.9
11033.1
10714
10356.5
9960.86
9524.65
9042.88
8507.8
7911.54
7244.72
6489.34
5623.24
4632.24
3570.03
2532.77
1568.54
760.42
269.939
71.5173
13.8248
2.09621
0.275658
0.0490645
0.0278073
0.0281793
0.0306495
0.0336391
0.0370828
0.0411431
0.0463446
0.052921
0.0595251
0.0651847
0.0747684
0.0874992
0.104117
0.12648
0.157762
0.203781
0.276157
0.401004
0.647221
1.24389
3.2789
16.1918
22.373
14.0778
66.3569
212.101
496.867
957.922
1610.71
2438.11
3393.54
4415.34
5445.33
6438.73
7368.1
8220.14
8991.02
9673.97
10269
10778
11204.5
11551.9
11826.9
12036.4
12187.4
12286.7
12338.9
12348.1
12317.3
12245
12130.3
11976.1
11784.7
11563.7
11314.9
11038
10728.2
10381.7
9996.37
9571.64
9103.91
8587.34
8013.36
7372.55
6652.36
5830.66
4887.79
3851.03
2815.02
1841.89
981.836
386.49
113.643
24.4114
4.00851
0.548749
0.0793939
0.0288985
0.0261993
0.0281341
0.0307325
0.0337251
0.0372132
0.0414436
0.0469226
0.0532467
0.0580328
0.0648788
0.0748404
0.0875959
0.10424
0.126637
0.157969
0.204061
0.276557
0.40161
0.64824
1.24594
3.28389
16.2101
22.3546
14.0674
66.2762
211.75
495.699
955.354
1605.77
2430.12
3381.61
4399.96
5427.11
6418.94
7347.27
8200.29
8971.34
9657.29
10254.5
10765.4
11193.9
11544
11819.9
12028.3
12176.3
12271
12319.2
12325.1
12292.6
12223.4
12115.8
11968.4
11783.6
11564
11316.2
11041.3
10738.2
10401.7
10027.9
9614.23
9159.41
8658.65
8105.11
7488.91
6798.33
6017.18
5121.86
4118.83
3088
2109.66
1217.86
532.546
172.168
41.249
7.35475
1.06732
0.143744
0.0340071
0.0248295
0.0259602
0.0282014
0.0308094
0.0338268
0.0373727
0.0417861
0.0473589
0.0523015
0.0571981
0.0648887
0.0749245
0.0877008
0.104373
0.126809
0.158196
0.204369
0.276991
0.402273
0.64938
1.24815
3.28941
16.2311
22.3407
14.0614
66.225
211.475
494.866
953.177
1601.69
2423.24
3371.62
4386.14
5410.2
6399.69
7326.83
8178.93
8950.99
9637.06
10237.1
10750.1
11180.4
11532.7
11811.6
12021.4
12168.7
12260.6
12304.4
12306.5
12270.7
12200.4
12096.3
11956.3
11778.8
11565.7
11319.5
11046.2
10746.1
10417.1
10054
9652.44
9209.65
8723.4
8187.59
7594.15
6931.16
6183.88
5333.92
4370.22
3353.27
2370.31
1460.12
704.802
250.471
66.6087
13.0063
2.00887
0.270938
0.0469059
0.0244386
0.0241158
0.0259934
0.0282743
0.0309006
0.0339186
0.0374585
0.042197
0.0472168
0.0514473
0.0569329
0.0649576
0.0750156
0.0878161
0.104519
0.126997
0.158443
0.204706
0.277472
0.403007
0.650622
1.25057
3.29549
16.2534
22.3309
14.0579
66.1923
211.286
494.198
951.583
1598.21
2417.51
3362.97
4374.55
5395.12
6381.95
7307.07
8158.08
8929.32
9616.38
10216.5
10732
11164.4
11518.5
11799.8
12012.9
12162
12253.7
12294.8
12292.6
12253.1
12179.7
12075.2
11939.2
11769.4
11563.7
11324.1
11052.8
10754.9
10430
10075.3
9685.08
9255.05
8781.91
8262.48
7689.06
7051.6
6335.55
5523.46
4602.13
3606.57
2623.34
1702.69
897.342
350.761
102.861
22.1152
3.66615
0.510604
0.0745547
0.0257889
0.0226286
0.0240596
0.0260569
0.0283625
0.030972
0.0339598
0.0377841
0.0425262
0.0469386
0.0506032
0.0569577
0.0650374
0.0751147
0.0879411
0.104677
0.127199
0.158713
0.205073
0.278002
0.403825
0.651993
1.25328
3.30221
16.2776
22.3282
14.0566
66.1706
211.154
493.717
950.285
1595.63
2412.65
3355.74
4364.47
5382.42
6366.04
7288.94
8138.07
8908.43
9594.66
10195.6
10711.2
11145.8
11502.1
11785.2
12001
12153.7
12247.6
12288.8
12284
12240.2
12163.3
12056
11920.2
11754.9
11557.3
11325.2
11060.4
10765
10443.1
10093.4
9712.61
9294.69
8835.06
8329.99
7774.92
7160.38
6473.36
5696.39
4813.75
3845.09
2867.04
1941.6
1103.4
474.306
151.933
36.0985
6.45484
0.946673
0.129456
0.0304
0.0216162
0.0223648
0.0241004
0.0261401
0.0284349
0.0310698
0.0342036
0.0382981
0.0427896
0.0457242
0.0504434
0.0570254
0.0651252
0.0752236
0.0880763
0.10485
0.127423
0.159008
0.205476
0.278584
0.404718
0.653505
1.25622
3.30959
16.3045
22.315
14.0656
66.1568
211.052
493.358
949.319
1593.49
2408.95
3349.48
4355.95
5371.29
6352.66
7272.62
8119.79
8888.44
9573.91
10174
10690.4
11124.9
11483.1
11768.5
11986.2
12142
12239.7
12283.4
12278.9
12232.6
12151.5
12040.8
11902.6
11738.2
11545.6
11321.9
11064.8
10775.8
10456.8
10111.1
9736.38
9328.88
8882.22
8391.54
7852.4
7258.54
6597.88
5854.04
5009.04
4068.89
3100.83
2174.47
1316.68
620.101
216.156
56.5008
10.948
1.70321
0.232936
0.0410987
0.0213687
0.0209062
0.0223644
0.0241719
0.0262009
0.0285387
0.0312336
0.0345917
0.0386982
0.0418803
0.0451653
0.0504812
0.0571024
0.0652201
0.0753416
0.0882234
0.105037
0.127666
0.159332
0.205921
0.27922
0.405695
0.655171
1.25948
3.31758
16.3338
22.3045
14.0521
66.1994
210.97
493.061
948.567
1591.86
2405.85
3344.74
4348.6
5361.82
6340.88
7258.85
8103.32
8870.24
9554.18
10153.6
10669
11104.1
11462.1
11749.3
11969.4
12127.3
12228.4
12276.1
12274.4
12228.6
12144.9
12030.1
11888.8
11722.4
11531.5
11313.3
11064.8
10783.6
10471.1
10128.8
9759.07
9358.79
8923.56
8446.78
7923.13
7347.07
6709.99
5996.5
5188.37
4279.4
3323.64
2397.34
1531.36
784.571
297.842
85.0818
17.9057
2.95994
0.417335
0.0627082
0.0224471
0.0197227
0.0208284
0.022423
0.0242197
0.0262822
0.0286116
0.0313683
0.0348955
0.0383668
0.0410531
0.0450658
0.0505478
0.0571863
0.0653233
0.0754694
0.0883839
0.105241
0.127931
0.159684
0.206409
0.27992
0.406779
0.657004
1.26307
3.32634
16.3658
22.2977
14.0498
66.1116
211.069
492.808
947.921
1590.54
2403.43
3340.68
4342.93
5353.68
6330.86
7246.75
8089.39
8853.89
9536.28
10134.2
10648.9
11083.1
11441.5
11728.4
11950.1
12110.4
12213.9
12265.4
12268
12225.2
12142.1
12024.7
11879.4