/*--------------------------------*- C++ -*----------------------------------*\
| =========                 |                                                 |
| \\      /  F ield         | OpenFOAM: The Open Source CFD Toolbox           |
|  \\    /   O peration     | Version:  v2012                                 |
|   \\  /    A nd           | Website:  www.openfoam.com                      |
|    \\/     M anipulation  |                                                 |
\*---------------------------------------------------------------------------*/
FoamFile
{
    version     2.0;
    format      ascii;
    class       volScalarField;
    location    "0";
    object      lambda1;
}
// * * * * * * * * * * * * * * * * * * * * * * * * * * * * * * * * * * * * * //

dimensions      [0 0 0 0 0 0 0];


internalField   nonuniform List<scalar> 
39402
(
0.0339854
0.00355889
0.155124
0.000937537
0.0565712
0.193736
0.000763505
0.0208502
0.186997
0.173844
0.000799175
0.0162527
0.0960727
0.312751
0.138826
0.000851934
0.0167116
0.0771638
0.205601
0.396914
0.107903
0.00089451
0.0174807
0.0782819
0.17733
0.311661
0.442661
0.0815409
0.000915559
0.0181069
0.0805253
0.17836
0.28196
0.394227
0.462945
0.0606761
0.000930916
0.0184004
0.0823992
0.181237
0.281968
0.368098
0.45141
0.467203
0.0450178
0.000936848
0.0186136
0.0832133
0.183775
0.284078
0.366487
0.430258
0.488473
0.461743
0.0334077
0.000930712
0.0186824
0.083795
0.184775
0.286239
0.367026
0.426799
0.471682
0.51121
0.449903
0.0248603
0.000918217
0.0185603
0.0839123
0.185473
0.28697
0.368202
0.425603
0.466471
0.498349
0.524695
0.433935
0.0185284
0.000906333
0.0183404
0.0833985
0.185475
0.287454
0.368444
0.42567
0.463745
0.491516
0.515945
0.532195
0.415737
0.0138976
0.000891851
0.0181313
0.0825654
0.184493
0.287254
0.368572
0.425409
0.46284
0.487268
0.507852
0.527973
0.535909
0.392653
0.0104195
0.000876075
0.0178795
0.081779
0.183026
0.286007
0.368195
0.425198
0.462175
0.485625
0.502017
0.519393
0.536489
0.537259
0.361433
0.00785177
0.000861598
0.0176071
0.0808409
0.181643
0.284268
0.366933
0.424721
0.461701
0.484669
0.499643
0.512569
0.52747
0.542899
0.537091
0.323438
0.00593764
0.000847038
0.0173564
0.0798308
0.180003
0.282625
0.365273
0.423584
0.461176
0.48402
0.498336
0.50933
0.520388
0.533093
0.547556
0.537111
0.280748
0.00451998
0.000830827
0.0171027
0.0788958
0.178251
0.280696
0.363698
0.422184
0.460217
0.483485
0.497505
0.507547
0.516557
0.525761
0.537346
0.549224
0.536675
0.236191
0.00346344
0.000814621
0.0168215
0.0779462
0.176618
0.278638
0.361874
0.420853
0.459119
0.482698
0.496904
0.506486
0.514424
0.52165
0.529473
0.54008
0.54839
0.53119
0.192289
0.00273528
0.000800372
0.0165395
0.0768976
0.174954
0.276715
0.359936
0.419333
0.458067
0.481858
0.496177
0.505697
0.51322
0.51934
0.52509
0.532011
0.54073
0.549121
0.517147
0.15294
0.00214327
0.00078738
0.0162909
0.075842
0.173119
0.274749
0.358114
0.417726
0.456887
0.481056
0.495483
0.504921
0.512284
0.518024
0.522608
0.527382
0.533755
0.541511
0.552241
0.492167
0.116011
0.00153788
0.000774121
0.0160618
0.0749058
0.171274
0.272587
0.35625
0.416209
0.455653
0.48018
0.494817
0.50423
0.51148
0.517056
0.521125
0.524699
0.529044
0.535791
0.546089
0.553932
0.454341
0.0848954
0.000990011
0.000760594
0.0158271
0.074036
0.169616
0.270405
0.354205
0.414658
0.454482
0.479273
0.494119
0.503571
0.510814
0.516281
0.520143
0.523047
0.52608
0.530749
0.539252
0.553271
0.552038
0.405115
0.0619157
0.000520272
0.000748324
0.0155894
0.0731436
0.168067
0.26843
0.352136
0.412961
0.453288
0.478404
0.493432
0.502898
0.510176
0.515684
0.519381
0.522009
0.52422
0.527228
0.533001
0.544446
0.558598
0.545818
0.34702
0.0450143
0.000275118
0.000736894
0.0153712
0.0722391
0.166476
0.266572
0.350251
0.411247
0.451991
0.477526
0.4928
0.502293
0.509537
0.515118
0.518833
0.521239
0.523067
0.525012
0.528499
0.53624
0.550204
0.558923
0.534238
0.284369
0.0313063
0.000204711
0.00072562
0.0151698
0.071406
0.164864
0.264663
0.348465
0.409668
0.450678
0.476584
0.492165
0.501781
0.508952
0.514565
0.518333
0.520721
0.522254
0.523656
0.52571
0.530237
0.540436
0.554537
0.553882
0.515151
0.222595
0.0196022
0.000182935
0.000714478
0.0149703
0.0706337
0.163369
0.26273
0.346633
0.40817
0.449461
0.475622
0.491499
0.501266
0.508432
0.514028
0.517836
0.520265
0.521737
0.522735
0.524018
0.52654
0.532692
0.544387
0.556857
0.548204
0.485166
0.164247
0.0112507
0.000147373
0.000704092
0.014772
0.0698689
0.16198
0.260925
0.344777
0.40663
0.448301
0.474728
0.490818
0.500744
0.50792
0.513517
0.517365
0.519823
0.5213
0.522179
0.522908
0.524334
0.527758
0.535222
0.547597
0.55756
0.544503
0.438483
0.113071
0.00607172
0.000115002
0.000694247
0.0145861
0.0691102
0.160604
0.259243
0.343035
0.405069
0.447113
0.473875
0.49018
0.500221
0.507403
0.513024
0.516923
0.519409
0.520899
0.521747
0.522262
0.522935
0.524815
0.52913
0.537607
0.550593
0.555221
0.538007
0.369845
0.0725975
0.00322094
9.80235e-05
0.000684487
0.0144116
0.0683964
0.159237
0.257572
0.341399
0.403599
0.445908
0.473004
0.489564
0.499709
0.506896
0.512531
0.516494
0.519022
0.520522
0.521338
0.521802
0.522132
0.522987
0.525373
0.530517
0.540594
0.552949
0.548699
0.52162
0.281484
0.0443878
0.00205612
0.000105886
0.000675096
0.0142389
0.0677263
0.157951
0.255916
0.339779
0.402217
0.444766
0.472122
0.488945
0.49923
0.506401
0.512042
0.516071
0.518649
0.520167
0.520992
0.521384
0.521595
0.521936
0.523036
0.525946
0.532592
0.543961
0.553651
0.541512
0.488415
0.190168
0.0273301
0.00137862
0.000118059
0.000666894
0.0140731
0.0670676
0.156742
0.25435
0.338172
0.400845
0.443694
0.471282
0.488318
0.498747
0.505943
0.51158
0.515657
0.518279
0.519829
0.520665
0.521036
0.521154
0.521283
0.521684
0.523095
0.527074
0.535406
0.547356
0.551386
0.536462
0.4296
0.116006
0.0169148
0.000827354
0.000109518
0.000658975
0.0139271
0.0664344
0.155558
0.252882
0.336648
0.39948
0.442625
0.470481
0.487714
0.498253
0.505471
0.511136
0.515268
0.517933
0.519514
0.520351
0.520728
0.520789
0.52076
0.52089
0.521447
0.523492
0.528901
0.538814
0.549698
0.544753
0.525932
0.338665
0.0671066
0.00989933
0.000595121
8.73574e-05
0.000650837
0.013788
0.0658778
0.154419
0.25144
0.335222
0.398184
0.441564
0.469694
0.487144
0.497782
0.50501
0.510703
0.514887
0.517597
0.519221
0.520064
0.520415
0.520473
0.520357
0.520281
0.520459
0.521445
0.524423
0.531475
0.542625
0.549654
0.536604
0.497694
0.227326
0.0392916
0.00542594
0.000578816
6.0038e-05
0.000642503
0.0136447
0.0653506
0.153414
0.250059
0.33382
0.396971
0.440553
0.468911
0.486584
0.497346
0.504565
0.510275
0.514522
0.51727
0.518924
0.519802
0.520141
0.520162
0.520018
0.51982
0.519778
0.520132
0.521754
0.52609
0.534925
0.546164
0.54552
0.531087
0.439261
0.129789
0.0244725
0.0029277
0.000654863
3.4659e-05
0.000635157
0.0134982
0.0648085
0.152471
0.248837
0.332478
0.395782
0.439608
0.468168
0.486023
0.496904
0.504146
0.509861
0.514163
0.516952
0.518635
0.519546
0.519901
0.519882
0.519707
0.51945
0.519232
0.519275
0.520127
0.522561
0.528547
0.538961
0.547936
0.537637
0.519825
0.339645
0.0690858
0.0162047
0.00151819
0.000748954
1.3721e-05
0.000629303
0.0133699
0.0642579
0.151505
0.247689
0.331287
0.394641
0.438678
0.46747
0.48549
0.496476
0.503733
0.509466
0.513818
0.516661
0.518367
0.519286
0.519666
0.519656
0.519421
0.51911
0.518847
0.518641
0.518969
0.520397
0.524073
0.531863
0.542975
0.54613
0.530375
0.48658
0.215115
0.0350091
0.0114951
0.000459587
0.000877926
4.46636e-06
0.000623574
0.0132685
0.0637797
0.150529
0.246528
0.330175
0.393627
0.437789
0.466782
0.484988
0.496064
0.503326
0.50909
0.513482
0.51637
0.518114
0.519044
0.519427
0.519431
0.51919
0.518816
0.518444
0.518176
0.518161
0.518928
0.521161
0.526411
0.535917
0.545557
0.538307
0.523664
0.415415
0.111537
0.0154397
0.00880544
9.81e-05
0.00129913
1.60772e-06
0.000617229
0.0131704
0.0634032
0.149682
0.245359
0.329049
0.392689
0.437
0.466127
0.484497
0.495669
0.502943
0.508719
0.513157
0.516082
0.517858
0.518817
0.519204
0.519202
0.51897
0.518573
0.518123
0.517745
0.517579
0.517926
0.519185
0.522633
0.529626
0.540095
0.544643
0.528446
0.505144
0.297503
0.0487198
0.00829451
0.00780269
5.73131e-05
0.00142329
6.86174e-07
0.000610681
0.0130618
0.0630459
0.149024
0.244342
0.32792
0.39174
0.436264
0.46554
0.484026
0.495319
0.502574
0.508354
0.512852
0.515811
0.517619
0.518595
0.518996
0.518987
0.518746
0.518355
0.51786
0.517387
0.517136
0.517228
0.517927
0.520013
0.524929
0.533717
0.543253
0.537763
0.522757
0.456136
0.160311
0.0194572
0.0068522
0.00717138
0.000146177
0.0013613
3.19782e-07
0.000604912
0.0129493
0.0626508
0.148409
0.243562
0.326949
0.390783
0.435528
0.464995
0.483609
0.494991
0.502298
0.508018
0.512555
0.515555
0.517385
0.518383
0.518802
0.518803
0.518527
0.518129
0.517626
0.517088
0.516729
0.516641
0.517013
0.518261
0.521515
0.528179
0.538155
0.543279
0.527983
0.512155
0.355972
0.0645362
0.00769531
0.00719236
0.00461013
0.000355944
0.00109152
1.61736e-07
0.000600632
0.0128513
0.0622432
0.147729
0.242837
0.326206
0.389965
0.434789
0.464448
0.483213
0.494689
0.502039
0.50774
0.512281
0.515316
0.517161
0.518167
0.518595
0.518621
0.518343
0.517904
0.517398
0.516868
0.516358
0.516122
0.516257
0.517017
0.519095
0.52379
0.532353
0.541707
0.53739
0.521496
0.476794
0.207993
0.0230864
0.00289038
0.00924901
0.00245942
0.000686857
0.000754192
8.12019e-08
0.000596928
0.0127806
0.0618924
0.147029
0.242042
0.325514
0.389344
0.434153
0.463912
0.482823
0.494412
0.50179
0.507474
0.512001
0.515086
0.51696
0.517977
0.518406
0.518426
0.518171
0.517711
0.517174
0.516611
0.516124
0.51574
0.515605
0.51609
0.517462
0.520613
0.527133
0.536963
0.54223
0.527526
0.513142
0.393122
0.0811782
0.00795835
0.00161484
0.0116635
0.000779765
0.00134565
0.000434542
3.91248e-08
0.000592565
0.0127197
0.0616481
0.146434
0.241229
0.324763
0.388767
0.43367
0.463441
0.482439
0.494135
0.501573
0.507235
0.511742
0.514847
0.516757
0.517797
0.518242
0.518249
0.517994
0.517538
0.516974
0.516377
0.515861
0.515394
0.515186
0.515341
0.516257
0.518448
0.523068
0.531415
0.54071
0.536651
0.519882
0.485631
0.247484
0.0244576
0.00262747
0.0017162
0.0125661
8.12295e-06
0.00260334
0.00020969
1.69498e-08
0.000587361
0.0126482
0.0614445
0.146039
0.240547
0.324
0.388146
0.433226
0.463079
0.482097
0.493865
0.501353
0.507009
0.5115
0.514623
0.516548
0.517618
0.518068
0.518092
0.517815
0.517377
0.516795
0.516182
0.51557
0.515102
0.514826
0.514764
0.515313
0.516838
0.520086
0.526512
0.536126
0.541206
0.526445
0.512361
0.413289
0.0977812
0.00747198
0.000653883
0.00399598
0.0116746
8.8675e-06
0.00400383
8.15098e-05
6.25233e-09
0.000582076
0.0125613
0.0612005
0.145719
0.240109
0.323368
0.387514
0.432752
0.462751
0.481827
0.493628
0.501141
0.506793
0.511278
0.514411
0.516357
0.51743
0.517905
0.517934
0.517657
0.517207
0.516622
0.515995
0.515367
0.514835
0.514427
0.514361
0.51462
0.515557
0.517856
0.522598
0.530874
0.540009
0.535435
0.518135
0.488906
0.273478
0.0253824
0.00216401
0.000243508
0.00852181
0.00708421
0.000172762
0.00443162
2.34544e-05
2.09926e-09
0.00057755
0.0124727
0.0609004
0.145329
0.239767
0.322977
0.386995
0.432274
0.46241
0.481599
0.493432
0.500944
0.506579
0.511074
0.514213
0.516176
0.517264
0.517737
0.517775
0.517511
0.517044
0.516447
0.515811
0.51516
0.514577
0.514153
0.513962
0.514018
0.514628
0.516226
0.519675
0.526206
0.535746
0.540172
0.524931
0.510644
0.423141
0.110095
0.00607305
0.00054252
0.000237513
0.0130349
0.00368461
0.000723601
0.00377579
6.98246e-06
6.51326e-10
0.00057451
0.0123982
0.0605936
0.144843
0.239351
0.322684
0.386688
0.431881
0.462061
0.481354
0.493257
0.500792
0.50637
0.510871
0.514028
0.516014
0.517104
0.51759
0.517628
0.517368
0.516902
0.516296
0.51563
0.514974
0.514352
0.513828
0.51352
0.513604
0.513942
0.514975
0.517403
0.522413
0.530884
0.539564
0.533588
0.516238
0.488823
0.287581
0.0246981
0.00145452
0.00011478
0.000561011
0.0147577
0.00118784
0.00193497
0.00229529
2.33842e-06
2.07961e-10
0.000573352
0.0123507
0.0603426
0.144344
0.238814
0.322324
0.386463
0.431647
0.461776
0.481111
0.493083
0.500638
0.5062
0.510667
0.513851
0.515839
0.516957
0.517455
0.517493
0.517226
0.516766
0.516163
0.515465
0.514777
0.514121
0.513628
0.513236
0.513092
0.51338
0.514142
0.515811
0.519383
0.526244
0.535805
0.53903
0.522781
0.508673
0.425855
0.115762
0.00450482
0.000227344
4.22452e-06
0.00215825
0.0156969
3.35707e-06
0.00559236
0.00103092
7.38962e-07
5.32001e-11
0.000572213
0.0123376
0.0601956
0.143948
0.238264
0.321844
0.386178
0.43148
0.461602
0.480902
0.492904
0.500499
0.506049
0.510486
0.513686
0.515685
0.516809
0.51731
0.517354
0.517084
0.516619
0.516019
0.515317
0.514599
0.513959
0.513376
0.512957
0.512714
0.512848
0.513356
0.514627
0.517219
0.522402
0.531013
0.539391
0.531514
0.514307
0.486732
0.290644
0.0223743
0.000733987
2.08673e-05
7.02027e-05
0.00644534
0.011606
4.56992e-05
0.00842556
0.000340011
1.93323e-07
1.07861e-11
0.000570418
0.0123247
0.0601838
0.143744
0.23784
0.32136
0.385806
0.431276
0.461482
0.480781
0.492763
0.500344
0.505899
0.510331
0.513531
0.515547
0.516679
0.517176
0.517228
0.516961
0.516483
0.515869
0.515168
0.514446
0.51373
0.513114
0.512723
0.512358
0.512328
0.512716
0.513641
0.515571
0.519438
0.52652
0.535969
0.53783
0.52041
0.506268
0.422554
0.113265
0.00290292
6.9544e-05
2.44433e-05
0.000199321
0.0124216
0.00594223
0.000504136
0.00878229
7.99768e-05
4.14982e-08
2.20683e-12
0.000567367
0.0123003
0.0601727
0.143785
0.237654
0.320993
0.385434
0.431013
0.46134
0.48068
0.492663
0.500228
0.505766
0.510187
0.513386
0.515419
0.516546
0.517056
0.517104
0.516834
0.516358
0.515748
0.515022
0.514299
0.513584
0.51292
0.512391
0.512071
0.511988
0.512166
0.512881
0.514391
0.517227
0.522672
0.531535
0.539153
0.528963
0.512207
0.482502
0.283492
0.0182744
0.000305584
0.000141504
5.40626e-06
0.000379971
0.0159611
0.00173303
0.00302511
0.00594
1.65215e-05
8.90038e-09
3.94167e-13
0.00056284
0.0122533
0.0601184
0.14383
0.237765
0.320864
0.385161
0.430742
0.461155
0.48059
0.49259
0.500134
0.505633
0.510062
0.513258
0.515286
0.516425
0.516938
0.516988
0.516716
0.516224
0.515619
0.5149
0.51414
0.513428
0.512776
0.512228
0.511867
0.511621
0.51175
0.512221
0.513359
0.515553
0.519716
0.527141
0.536482
0.536361
0.517617
0.503448
0.41363
0.10284
0.00110819
9.12009e-05
0.000278212
1.52448e-05
0.0027272
0.017637
2.33097e-05
0.00880048
0.00262199
3.64002e-06
1.6292e-09
6.03602e-14
0.000557956
0.0121775
0.0599743
0.143796
0.237887
0.321023
0.385085
0.430549
0.460971
0.480458
0.492524
0.500079
0.505538
0.509931
0.513144
0.51516
0.516308
0.516814
0.516879
0.516612
0.516108
0.515491
0.514776
0.514001
0.513264
0.512606
0.512019
0.511543
0.511309
0.511331
0.511702
0.512554
0.514208
0.517388
0.523366
0.53236
0.538465
0.526133
0.510008
0.476232
0.266858
0.0125114
1.29228e-05
6.87799e-05
0.000307556
0.000227173
0.00891787
0.0124477
0.000177923
0.0144445
0.000744874
6.78355e-07
2.41677e-10
8.02687e-15
0.000553228
0.0120942
0.0597162
0.143597
0.237909
0.32119
0.385252
0.430506
0.460834
0.480325
0.492433
0.499997
0.505456
0.509826
0.513016
0.51505
0.516198
0.516689
0.51676
0.5165
0.516013
0.515365
0.514654
0.51387
0.513105
0.512411
0.511806
0.511258
0.510968
0.510922
0.511198
0.511852
0.513107
0.515561
0.520227
0.528074
0.536939
0.533594
0.514521
0.499977
0.399539
0.0833392
0.000210406
2.90894e-05
4.08628e-05
0.000234023
0.000300615
0.0144563
0.0052424
0.00166641
0.0130886
0.000134484
1.0814e-07
3.27721e-11
8.88448e-16
0.000549361
0.0120138
0.0594268
0.143188
0.237739
0.32127
0.38542
0.430645
0.460805
0.480231
0.49234
0.499932
0.505363
0.509729
0.512907
0.514947
0.51609
0.516584
0.51663
0.516377
0.515901
0.515251
0.514525
0.513745
0.512972
0.512265
0.51157
0.51105
0.510724
0.510613
0.510742
0.5113
0.512235
0.514121
0.51769
0.524199
0.533322
0.537385
0.522557
0.507377
0.467507
0.239336
0.00472448
1.1458e-05
2.41695e-05
3.41207e-05
0.000322846
0.000489887
0.0203874
0.00118135
0.00770394
0.00731206
2.00193e-05
1.51038e-08
3.47451e-12
8.2642e-17
0.000546838
0.0119493
0.0591475
0.142722
0.237305
0.321157
0.385526
0.4308
0.460911
0.480209
0.492267
0.499865
0.505296
0.509657
0.512822
0.514844
0.515989
0.516495
0.516517
0.516262
0.515775
0.515149
0.514405
0.513616
0.512829
0.512096
0.511423
0.510842
0.510478
0.51031
0.510339
0.510746
0.511621
0.513081
0.51579
0.520939
0.529324
0.537365
0.530496
0.512037
0.495433
0.378096
0.0583293
4.3947e-05
1.75401e-05
2.03566e-06
3.21938e-05
9.61392e-05
0.00481627
0.0162959
1.10404e-05
0.0181456
0.00230735
2.97693e-06
1.8103e-09
3.11981e-13
6.54483e-18
0.00054597
0.0119085
0.0589283
0.142272
0.236801
0.320792
0.385471
0.430894
0.461027
0.480273
0.492245
0.499795
0.505232
0.509576
0.51276
0.51476
0.515887
0.516387
0.516438
0.516156
0.51567
0.515041
0.514311
0.513497
0.512698
0.511945
0.511264
0.510623
0.510287
0.510036
0.509982
0.510297
0.511029
0.512235
0.514306
0.518335
0.525459
0.53468
0.536077
0.519066
0.504829
0.454977
0.200235
0.00192982
1.71479e-05
3.29598e-05
5.47872e-06
4.04171e-05
0.000104408
0.0121263
0.00846401
0.00118599
0.0190458
0.000417871
3.25892e-07
2.02023e-10
2.17858e-14
4.26278e-19
0.000546326
0.0118983
0.0587979
0.141927
0.23631
0.320355
0.385197
0.43088
0.461104
0.480343
0.492276
0.49977
0.505155
0.509505
0.512682
0.514672
0.515795
0.51628
0.516351
0.51607
0.515563
0.514927
0.514206
0.513411
0.512579
0.511793
0.511101
0.510474
0.509996
0.509739
0.509718
0.509929
0.510483
0.511419
0.513174
0.516281
0.522045
0.530869
0.53747
0.527176
0.509792
0.488826
0.347106
0.0333611
4.55575e-05
1.42603e-05
3.81977e-05
7.94028e-06
0.000122125
0.00176961
0.0183633
0.00202146
0.0093578
0.0117623
4.41257e-05
2.97957e-08
1.63643e-11
1.18732e-15
2.10287e-20
0.000547205
0.0119105
0.0587867
0.141737
0.235947
0.319925
0.384868
0.430691
0.461102
0.4804
0.492317
0.499773
0.505108
0.509428
0.512591
0.514589
0.515701
0.51618
0.516246
0.515997
0.515465
0.514809
0.514077
0.513298
0.512483
0.511671
0.510909
0.510313
0.509829
0.509528
0.509327
0.509547
0.509916
0.510751
0.512162
0.514677
0.519289
0.526841
0.535772
0.533638
0.515272
0.501647
0.436453
0.153298
0.00124505
6.15645e-05
2.32779e-06
7.89084e-05
7.89583e-05
7.23085e-05
0.00480246
0.0190029
3.9425e-05
0.0235721
0.00356113
5.25775e-06
1.99743e-09
1.02126e-12
4.82047e-17
6.50438e-22
0.000548011
0.0119335
0.058862
0.141768
0.235768
0.319621
0.384537
0.430467
0.460988
0.480403
0.492347
0.499789
0.505086
0.509359
0.512532
0.51452
0.51562
0.516097
0.51613
0.515894
0.515393
0.5147
0.513948
0.513151
0.51237
0.51156
0.510787
0.510147
0.509656
0.509303
0.509096
0.509169
0.509461
0.510226
0.511332
0.513441
0.517052
0.523436
0.532335
0.5365
0.5229
0.507025
0.479121
0.304596
0.0154468
0.0001481
9.85353e-05
4.7604e-06
0.000201414
0.000593745
2.57222e-05
0.0142243
0.00955047
0.00183747
0.0238461
0.000524066
4.81019e-07
1.1203e-10
4.66326e-14
1.31621e-18
7.61306e-24
0.000547984
0.0119527
0.0589808
0.141951
0.235855
0.319488
0.384314
0.430237
0.460838
0.480332
0.492342
0.499799
0.505074
0.509313
0.512466
0.514459
0.515571
0.516039
0.516051
0.515779
0.515295
0.514625
0.513845
0.513024
0.512227
0.51145
0.51069
0.510004
0.509441
0.509049
0.508812
0.508843
0.509108
0.509708
0.51077
0.512414
0.51531
0.520558
0.528706
0.536486
0.529858
0.511524
0.497034
0.409553
0.103885
0.000376237
8.82809e-05
8.09225e-05
2.24628e-05
0.00019628
0.000694952
0.00075292
0.0219468
0.00206492
0.014215
0.0134179
3.91793e-05
3.75107e-08
4.68913e-12
1.51481e-15
2.2894e-20
4.65479e-26
0.000547183
0.0119576
0.0590823
0.142216
0.23613
0.319611
0.384229
0.43008
0.460684
0.480239
0.4923
0.499792
0.505078
0.50929
0.512397
0.514402
0.515491
0.515979
0.516
0.515685
0.515182
0.514522
0.513758
0.512938
0.512094
0.511316
0.510574
0.50986
0.509277
0.508804
0.508564
0.508539
0.508801
0.509284
0.510178
0.511474
0.513891
0.518124
0.525185
0.534123
0.534889
0.518192
0.503929
0.464682
0.250269
0.0059499
2.11476e-05
4.74983e-05
8.57925e-05
3.30597e-05
4.37265e-05
6.61111e-05
0.00418238
0.0173179
0.000158521
0.0307639
0.00315418
2.66637e-06
2.08981e-09
1.35725e-13
2.42452e-17
3.27377e-22
3.142e-28
0.000545528
0.0119467
0.0591246
0.14244
0.2365
0.319918
0.384367
0.430032
0.460582
0.480136
0.492247
0.499758
0.505078
0.509279
0.51236
0.514322
0.515425
0.515896
0.515928
0.515609
0.515074
0.514412
0.51366
0.512848
0.512004
0.511178
0.510416
0.509761
0.509144
0.508626
0.5084
0.508319
0.508486
0.508806
0.509643
0.51075
0.512733
0.516144
0.522152
0.530666
0.5363
0.525376
0.508359
0.489876
0.371512
0.0590907
4.93734e-05
9.12167e-06
3.65002e-05
0.00010412
0.000116354
3.20714e-05
0.000305499
0.0125233
0.00647153
0.0045596
0.0255005
0.00033854
1.24477e-07
8.32315e-11
2.45496e-15
3.01438e-19
5.41259e-24
1.01985e-29
0.000542933
0.0119199
0.0591032
0.14256
0.236817
0.320319
0.384642
0.430149
0.460547
0.480075
0.492171
0.49972
0.505038
0.509274
0.512331
0.514255
0.515356
0.515811
0.515849
0.515536
0.514989
0.514307
0.513559
0.512759
0.511915
0.511065
0.510276
0.509603
0.509015
0.508541
0.508136
0.508019
0.508163
0.508512
0.509078
0.510125
0.511781
0.514582
0.519493
0.5272
0.53523
0.531228
0.513158
0.50015
0.44284
0.1857
0.00189654
1.4344e-05
9.75333e-06
4.98861e-05
6.15477e-05
6.40292e-05
6.77837e-05
0.00173877
0.0207648
0.000197339
0.024428
0.0102894
2.32277e-05
4.50536e-09
2.10358e-12
2.97986e-17
2.81247e-21
4.70019e-26
3.56663e-30
0.000539647
0.011874
0.0590162
0.142554
0.237002
0.320657
0.385006
0.43037
0.460635
0.480055
0.49213
0.499665
0.504988
0.509241
0.512315
0.514221
0.515279
0.515743
0.515775
0.515475
0.514927
0.514229
0.51344
0.512647
0.51181
0.510972
0.510149
0.509397
0.508888
0.508366
0.507953
0.507753
0.507742
0.508105
0.508679
0.509522
0.510956
0.513269
0.517197
0.523839
0.532313
0.534478
0.519833
0.505018
0.47828
0.319244
0.0253312
6.61467e-05
1.57924e-05
1.56622e-05
1.45103e-05
2.08439e-06
2.73287e-06
2.31953e-06
0.00845733
0.0159257
0.00186206
0.0386267
0.0015335
1.23923e-06
1.08463e-10
3.11957e-14
1.53069e-19
4.08429e-23
1.03212e-28
6.88893e-31
0.000535927
0.0118158
0.0588484
0.142425
0.237027
0.320862
0.385312
0.430661
0.460795
0.480112
0.492108
0.499612
0.504959
0.509191
0.512291
0.514184
0.515228
0.515658
0.515669
0.5154
0.514871
0.514173
0.513357
0.512507
0.511699
0.510866
0.510064
0.509262
0.508652
0.508191
0.507824
0.507564
0.507502
0.507736
0.508224
0.509054
0.510188
0.512128
0.515446
0.520923
0.5288
0.534629
0.526037
0.509157
0.494555
0.409998
0.117899
0.000613174
4.0714e-05
1.37503e-05
8.17264e-06
1.12399e-05
7.40211e-05
0.000170955
6.54115e-05
0.0198348
0.00388838
0.0138588
0.0206726
7.2044e-05
4.48898e-08
1.70119e-12
4.06551e-16
3.7113e-22
2.07081e-24
2.85896e-27
3.43711e-30
0.000532147
0.0117488
0.0586304
0.142142
0.236901
0.320916
0.385508
0.430904
0.461003
0.480207
0.492141
0.499589
0.504903
0.509147
0.512261
0.514151
0.515172
0.515584
0.515567
0.515281
0.514786
0.514103
0.513296
0.512407
0.511558
0.510745
0.509969
0.509174
0.508534
0.508017
0.507598
0.507421
0.507328
0.507459
0.507927
0.508576
0.509606
0.511232
0.513853
0.518486
0.525484
0.532953
0.530658
0.514394
0.501504
0.46012
0.250785
0.0081182
0.000112218
4.57685e-05
1.49815e-05
6.98973e-06
2.8399e-05
0.000113719
6.93866e-05
0.00517034
0.0222473
3.29447e-05
0.0328848
0.00466502
2.38806e-06
1.15892e-09
1.52669e-14
6.15759e-18
3.26104e-24
8.32623e-27
5.85261e-29
8.53513e-33
0.000528445
0.0116793
0.0583762
0.141762
0.236584
0.320821
0.385572
0.431071
0.461182
0.48034
0.492194
0.499587
0.504867
0.509114
0.512202
0.514135
0.515133
0.515532
0.5155
0.515179
0.514677
0.51403
0.513226
0.512343
0.511441
0.510608
0.509831
0.509114
0.508437
0.507863
0.507458
0.507239
0.507174
0.507232
0.507557
0.508159
0.509133
0.510489
0.512701
0.516489
0.522513
0.530232
0.533098
0.520592
0.505722
0.484989
0.361589
0.0575544
0.00026682
7.49478e-05
4.87541e-05
1.55263e-05
3.90487e-07
1.18151e-05
7.28004e-05
4.73638e-06
0.0133306
0.00853024
0.00403478
0.0335093
0.000331429
5.8786e-08
1.76643e-11
4.70585e-17
1.09257e-19
3.49736e-25
1.80469e-27
3.75099e-28
1.42955e-31
0.000525022
0.011611
0.0581087
0.141312
0.236146
0.320538
0.385516
0.43113
0.461299
0.480458
0.492269
0.499606
0.50484
0.509049
0.512162
0.514094
0.515123
0.515502
0.515453
0.515116
0.514574
0.513918
0.513144
0.512281
0.511372
0.51049
0.509688
0.50899
0.508308
0.507758
0.507181
0.506991
0.506902
0.507017
0.507221
0.50771
0.508615
0.509894
0.511671
0.514834
0.520048
0.527529
0.533467
0.526112
0.509611
0.496584
0.431136
0.169824
0.0019447
5.82457e-05
9.31724e-05
9.36793e-05
7.23676e-05
3.14794e-05
4.3558e-06
4.79344e-05
0.000123973
0.0171666
8.94589e-05
0.0389048
0.00945357
1.41248e-05
9.90199e-10
2.10894e-13
2.27029e-19
1.66904e-21
2.57836e-25
5.34199e-27
1.41999e-28
7.8801e-31
0.000522017
0.0115478
0.0578431
0.140832
0.235608
0.320139
0.385295
0.4311
0.461347
0.480542
0.492338
0.499649
0.504832
0.509025
0.512106
0.514043
0.515095
0.51549
0.515414
0.515047
0.51448
0.5138
0.513042
0.512203
0.511323
0.510414
0.509569
0.508803
0.50819
0.507595
0.507103
0.506739
0.506612
0.506732
0.506954
0.507428
0.508115
0.509302
0.510902
0.513503
0.517833
0.524796
0.532454
0.530655
0.514857
0.502008
0.468958
0.293702
0.0184282
7.42005e-05
6.20593e-05
0.00010479
0.000137029
0.000138212
5.2746e-05
7.0369e-06
2.05929e-05
0.0035545
0.0105087
0.00380747
0.0350971
0.000810109
3.23713e-07
1.08515e-11
2.79257e-15
5.71953e-21
3.06379e-23
9.13114e-27
4.48625e-28
5.24985e-30
5.04215e-33
0.00051955
0.0114919
0.0575948
0.140351
0.235034
0.319631
0.384967
0.430942
0.461337
0.480573
0.492398
0.499688
0.50486
0.509015
0.512063
0.513993
0.515052
0.515458
0.515398
0.514999
0.514392
0.513676
0.512915
0.512109
0.511259
0.510358
0.509473
0.508655
0.50798
0.507467
0.507033
0.506622
0.506489
0.506512
0.506763
0.50713
0.507855
0.508779
0.510176
0.512428
0.516208
0.522227
0.530322
0.533165
0.520797
0.505906
0.488133
0.38545
0.0911836
0.0004649
1.87344e-05
4.52417e-05
7.32533e-05
0.000120753
0.00010211
3.08643e-06
1.52706e-05
0.00270309
0.0232509
0.00241527
0.0305872
0.0160262
1.89979e-05
5.17763e-09
4.75211e-14
6.85382e-17
9.71336e-23
1.42204e-25
2.23236e-28
1.22473e-28
3.06835e-28
7.37593e-32
0.000517575
0.0114454
0.0573738
0.1399
0.234454
0.319081
0.384556
0.4307
0.46123
0.480577
0.492424
0.499727
0.50488
0.509015
0.512034
0.513937
0.514999
0.515421
0.515359
0.51498
0.514358
0.513594
0.5128
0.511975
0.51116
0.510303
0.50942
0.508613
0.507846
0.50729
0.506845
0.506509
0.506262
0.506297
0.506457
0.506894
0.507541
0.508313
0.509508
0.511523
0.514742
0.520008
0.527824
0.533622
0.526173
0.509641
0.497327
0.441651
0.206131
0.00456799
5.33061e-05
2.56212e-05
1.18504e-05
1.64656e-05
3.47686e-05
2.79642e-06
1.53287e-05
4.46254e-05
0.00412639
0.0153313
0.00213832
0.0493965
0.00164653
3.38729e-07
6.26151e-11
1.35018e-16
1.57019e-18
1.16844e-23
4.35797e-26
7.84922e-27
8.78825e-28
5.59233e-31
8.65138e-34
0.000516146
0.011408
0.0571897
0.139495
0.233905
0.318521
0.384109
0.4304
0.461069
0.480508
0.492423
0.499743
0.504901
0.50902
0.512005
0.513879
0.514938
0.515374
0.515329
0.514953
0.514351
0.513566
0.51271
0.511862
0.511014
0.510206
0.50936
0.508536
0.507792
0.507197
0.506747
0.506407
0.506176
0.506115
0.506148
0.506525
0.507203
0.508026
0.509023
0.510639
0.513434
0.518096
0.525266
0.532879
0.530502
0.514716
0.501992
0.472737
0.316982
0.0323913
0.000361065
8.96487e-05
2.12508e-05
3.77713e-07
7.96664e-07
1.00245e-06
2.71272e-06
3.07531e-05
1.29014e-05
0.0101532
0.00242808
0.0305549
0.0195898
4.63321e-05
4.87333e-09
5.99178e-13
3.01782e-18
2.9544e-20
2.45844e-24
3.42089e-28
9.09712e-30
1.19489e-29
1.35113e-29
2.69612e-33
0.000514919
0.0113805
0.0570422
0.139156
0.233412
0.317992
0.383646
0.430069
0.460863
0.480406
0.492385
0.499747
0.504901
0.509028
0.511995
0.513836
0.514867
0.515301
0.515292
0.514928
0.514327
0.513553
0.512658
0.511754
0.51088
0.510049
0.509267
0.508462
0.507735
0.506993
0.506516
0.506181
0.506041
0.505934
0.506042
0.506223
0.506795
0.507671
0.508613
0.510014
0.512441
0.516349
0.522914
0.530963
0.533112
0.520401
0.505727
0.489076
0.396136
0.113273
0.00144366
0.000217107
0.000145138
3.94809e-05
2.75315e-06
7.91561e-07
1.01992e-06
4.1436e-07
4.71408e-05
0.00318544
0.0184656
0.000833768
0.040138
0.0025928
7.5819e-07
4.0443e-11
8.21821e-15
3.15737e-20
4.09109e-22
2.02093e-26
9.2098e-28
5.53921e-29
1.07193e-29
7.18271e-31
4.9053e-33
0.000514202
0.011358
0.0569278
0.13888
0.232998
0.317515
0.383206
0.429726
0.460637
0.480265
0.492324
0.499721
0.504895
0.509014
0.51199
0.513804
0.51481
0.515232
0.515206
0.514887
0.514296
0.513532
0.512634
0.511685
0.510767
0.50992
0.509117
0.50839
0.507612
0.506931
0.50632
0.505949
0.505735
0.505737
0.505821
0.506029
0.506518
0.507234
0.508285
0.509589
0.51151
0.514912
0.520706
0.528635
0.533816
0.525505
0.509218
0.49723
0.445282
0.223195
0.00685327
0.000144673
0.000173782
0.000195114
0.000130243
3.58316e-05
2.01072e-05
4.96798e-06
1.5144e-06
0.00157824
0.0165776
0.00582943
0.0249604
0.025829
5.86288e-05
9.04028e-09
1.73954e-13
1.96622e-16
3.79863e-22
6.04177e-24
3.76139e-27
7.00416e-28
2.92668e-29
1.80412e-30
2.89483e-31
1.35062e-34
0.000513773
0.0113434
0.056835
0.138664
0.232652
0.317112
0.3828
0.429389
0.460388
0.480115
0.492232
0.499682
0.504875
0.508999
0.511986
0.513788
0.514761
0.515156
0.515129
0.514801
0.514239
0.513492
0.512609
0.511666
0.51068
0.50979
0.508989
0.508239
0.507562
0.506925
0.506262
0.505853
0.50561
0.505546
0.505681
0.505894
0.506253
0.506851
0.507837
0.509067
0.510858
0.513759
0.518686
0.526169
0.533219
0.529745
0.5138
0.501581
0.473012
0.324684
0.0397859
0.000248511
4.22903e-05
0.000103294
0.000214643
0.00021539
0.000145063
6.15881e-05
4.19493e-06
6.47698e-05
0.0012075
0.0141531
0.00221285
0.0554558
0.00295641
8.11108e-07
9.60118e-11
4.60647e-16
4.87706e-18
5.57049e-23
6.7177e-25
4.06674e-27
1.83589e-28
1.40716e-30
6.55074e-29
1.20743e-30
5.94556e-34
0.000513635
0.0113348
0.0567736
0.138487
0.232381
0.316779
0.382461
0.42908
0.460152
0.479943
0.492129
0.499628
0.504848
0.508978
0.511977
0.513789
0.514734
0.515091
0.515056
0.514709
0.514164
0.513447
0.512588
0.51164
0.510662
0.509687
0.508848
0.508092
0.507448
0.506862
0.506253
0.505812
0.505463
0.505289
0.505459
0.505724
0.506026
0.506609
0.507417
0.508562
0.510232
0.512713
0.517054
0.523826
0.531715
0.53251