/*--------------------------------*- C++ -*----------------------------------*\
| =========                 |                                                 |
| \\      /  F ield         | OpenFOAM: The Open Source CFD Toolbox           |
|  \\    /   O peration     | Version:  v2012                                 |
|   \\  /    A nd           | Website:  www.openfoam.com                      |
|    \\/     M anipulation  |                                                 |
\*---------------------------------------------------------------------------*/
FoamFile
{
    version     2.0;
    format      ascii;
    class       volScalarField;
    location    "0";
    object      lambda2;
}
// * * * * * * * * * * * * * * * * * * * * * * * * * * * * * * * * * * * * * //

dimensions      [0 0 0 0 0 0 0];


internalField   nonuniform List<scalar> 
39402
(
-0.0339131
-0.00355919
-0.154703
-0.000937539
-0.0565823
-0.192926
-0.000763506
-0.0208503
-0.187048
-0.17294
-0.000799175
-0.0162528
-0.0960744
-0.312847
-0.137995
-0.000851934
-0.0167116
-0.0771642
-0.205608
-0.397053
-0.107283
-0.00089451
-0.0174807
-0.0782819
-0.177332
-0.311675
-0.442841
-0.0810583
-0.000915559
-0.0181069
-0.0805253
-0.17836
-0.281963
-0.394249
-0.463169
-0.0602849
-0.000930916
-0.0184004
-0.0823992
-0.181237
-0.281968
-0.368103
-0.451441
-0.467474
-0.0446864
-0.000936848
-0.0186136
-0.0832133
-0.183775
-0.284077
-0.366487
-0.430267
-0.488513
-0.462066
-0.0331277
-0.000930712
-0.0186824
-0.083795
-0.184775
-0.286239
-0.367026
-0.4268
-0.471695
-0.511261
-0.450283
-0.0246226
-0.000918217
-0.0185603
-0.0839123
-0.185473
-0.28697
-0.368202
-0.425602
-0.466473
-0.498366
-0.524758
-0.434373
-0.0183253
-0.000906333
-0.0183404
-0.0833985
-0.185475
-0.287454
-0.368444
-0.42567
-0.463744
-0.491518
-0.515967
-0.532271
-0.416231
-0.013724
-0.000891851
-0.0181313
-0.0825654
-0.184493
-0.287253
-0.368572
-0.425409
-0.46284
-0.487267
-0.507853
-0.528002
-0.536001
-0.393163
-0.010271
-0.000876075
-0.0178795
-0.081779
-0.183026
-0.286007
-0.368194
-0.425198
-0.462175
-0.485624
-0.502016
-0.519395
-0.536526
-0.53737
-0.361931
-0.00772327
-0.000861598
-0.0176071
-0.0808409
-0.181643
-0.284268
-0.366933
-0.424721
-0.4617
-0.484669
-0.499642
-0.512568
-0.527474
-0.542944
-0.537225
-0.323884
-0.00581977
-0.000847038
-0.0173564
-0.0798308
-0.180003
-0.282625
-0.365273
-0.423584
-0.461175
-0.48402
-0.498336
-0.509329
-0.520388
-0.533099
-0.547611
-0.537273
-0.281071
-0.00440624
-0.000830827
-0.0171027
-0.0788958
-0.178251
-0.280696
-0.363698
-0.422184
-0.460217
-0.483485
-0.497504
-0.507547
-0.516556
-0.525761
-0.537354
-0.549292
-0.536873
-0.236259
-0.00334383
-0.000814621
-0.0168215
-0.0779462
-0.176618
-0.278638
-0.361874
-0.420853
-0.459119
-0.482697
-0.496904
-0.506485
-0.514423
-0.521649
-0.529474
-0.540092
-0.548477
-0.531435
-0.191899
-0.00259118
-0.000800372
-0.0165395
-0.0768976
-0.174954
-0.276715
-0.359936
-0.419333
-0.458067
-0.481858
-0.496177
-0.505697
-0.51322
-0.519339
-0.52509
-0.532013
-0.540746
-0.549226
-0.517458
-0.151703
-0.00193492
-0.00078738
-0.0162909
-0.075842
-0.173119
-0.274749
-0.358114
-0.417726
-0.456887
-0.481056
-0.495483
-0.50492
-0.512283
-0.518024
-0.522607
-0.527382
-0.533759
-0.541531
-0.552364
-0.492572
-0.113618
-0.00130301
-0.000774121
-0.0160618
-0.0749058
-0.171274
-0.272587
-0.35625
-0.416209
-0.455653
-0.48018
-0.494817
-0.50423
-0.51148
-0.517055
-0.521125
-0.524698
-0.529045
-0.535797
-0.546115
-0.554071
-0.454885
-0.0821497
-0.00080264
-0.000760594
-0.0158271
-0.074036
-0.169616
-0.270405
-0.354205
-0.414658
-0.454482
-0.479273
-0.494119
-0.503571
-0.510814
-0.51628
-0.520141
-0.523047
-0.526079
-0.53075
-0.539262
-0.553303
-0.552192
-0.405866
-0.0594142
-0.000379052
-0.000748324
-0.0155894
-0.0731436
-0.168067
-0.26843
-0.352136
-0.412961
-0.453288
-0.478404
-0.493432
-0.502898
-0.510176
-0.515684
-0.51938
-0.522007
-0.524219
-0.527227
-0.533004
-0.54446
-0.558637
-0.545988
-0.34802
-0.0431079
-0.000113585
-0.000736894
-0.0153712
-0.0722391
-0.166476
-0.266572
-0.350251
-0.411247
-0.451991
-0.477526
-0.4928
-0.502293
-0.509537
-0.515118
-0.518833
-0.521238
-0.523065
-0.525011
-0.528499
-0.536245
-0.550222
-0.558968
-0.534429
-0.285668
-0.0301758
-2.59209e-05
-0.00072562
-0.0151698
-0.071406
-0.164864
-0.264663
-0.348465
-0.409668
-0.450679
-0.476584
-0.492165
-0.501781
-0.508952
-0.514565
-0.518333
-0.520721
-0.522253
-0.523653
-0.525709
-0.530238
-0.540444
-0.55456
-0.553926
-0.515378
-0.224103
-0.0191725
-4.96368e-06
-0.000714478
-0.0149703
-0.0706337
-0.163369
-0.26273
-0.346633
-0.40817
-0.449461
-0.475622
-0.491499
-0.501266
-0.508432
-0.514028
-0.517835
-0.520265
-0.521737
-0.522733
-0.524016
-0.52654
-0.532695
-0.544397
-0.556885
-0.548227
-0.485461
-0.16573
-0.0111542
-8.34313e-07
-0.000704092
-0.014772
-0.0698689
-0.16198
-0.260925
-0.344777
-0.40663
-0.448301
-0.474728
-0.490818
-0.500744
-0.50792
-0.513517
-0.517365
-0.519823
-0.5213
-0.522179
-0.522906
-0.524331
-0.527758
-0.535226
-0.547609
-0.557596
-0.544479
-0.438902
-0.114193
-0.00612201
-4.1832e-08
-0.000694247
-0.0145861
-0.0691102
-0.160604
-0.259243
-0.343035
-0.405069
-0.447113
-0.473875
-0.49018
-0.500221
-0.507403
-0.513024
-0.516923
-0.519409
-0.520899
-0.521747
-0.522262
-0.522932
-0.524811
-0.529131
-0.537612
-0.550607
-0.555266
-0.537903
-0.370438
-0.0729293
-0.00321847
-8.61378e-08
-0.000684486
-0.0144116
-0.0683964
-0.159238
-0.257572
-0.341399
-0.403599
-0.445908
-0.473004
-0.489564
-0.499709
-0.506896
-0.512532
-0.516494
-0.519022
-0.520522
-0.521338
-0.521802
-0.522132
-0.522984
-0.525369
-0.53052
-0.540601
-0.552959
-0.548745
-0.521422
-0.282219
-0.0433837
-0.00165183
-4.44473e-07
-0.000675096
-0.0142389
-0.0677263
-0.157951
-0.255917
-0.339779
-0.402217
-0.444766
-0.472122
-0.488945
-0.499229
-0.506401
-0.512042
-0.516071
-0.518648
-0.520167
-0.520992
-0.521384
-0.521594
-0.521936
-0.523033
-0.525941
-0.532597
-0.543969
-0.553657
-0.541526
-0.488183
-0.190762
-0.0243809
-0.000787558
-5.95818e-07
-0.000666894
-0.0140731
-0.0670676
-0.156742
-0.25435
-0.338172
-0.400845
-0.443694
-0.471282
-0.488318
-0.498747
-0.505943
-0.51158
-0.515657
-0.518279
-0.519829
-0.520665
-0.521036
-0.521153
-0.521283
-0.521684
-0.523091
-0.52707
-0.535412
-0.547362
-0.551386
-0.536385
-0.42949
-0.115964
-0.0129877
-0.000323383
-3.96852e-07
-0.000658975
-0.0139271
-0.0664344
-0.155558
-0.252882
-0.336648
-0.39948
-0.442625
-0.470481
-0.487714
-0.498253
-0.505471
-0.511136
-0.515268
-0.517934
-0.519514
-0.520351
-0.520728
-0.52079
-0.52076
-0.52089
-0.521447
-0.523487
-0.528896
-0.53882
-0.549696
-0.544736
-0.525702
-0.338874
-0.0658662
-0.0065887
-0.000110628
-1.21929e-07
-0.000650837
-0.013788
-0.0658778
-0.154419
-0.25144
-0.335222
-0.398184
-0.441564
-0.469694
-0.487144
-0.497782
-0.50501
-0.510703
-0.514887
-0.517597
-0.519221
-0.520065
-0.520415
-0.520473
-0.520358
-0.52028
-0.520459
-0.521446
-0.524418
-0.53147
-0.542629
-0.549639
-0.536517
-0.497321
-0.227927
-0.0363425
-0.00295421
-3.30367e-05
-1.93468e-08
-0.000642503
-0.0136447
-0.0653506
-0.153414
-0.250059
-0.33382
-0.396971
-0.440553
-0.468912
-0.486584
-0.497346
-0.504565
-0.510275
-0.514523
-0.51727
-0.518924
-0.519803
-0.520141
-0.520162
-0.520019
-0.519821
-0.519778
-0.520132
-0.521755
-0.526084
-0.534918
-0.546162
-0.545487
-0.530833
-0.438945
-0.130718
-0.0195419
-0.00105595
-9.32458e-06
-2.78165e-08
-0.000635157
-0.0134982
-0.0648085
-0.152471
-0.248837
-0.332478
-0.395782
-0.439608
-0.468168
-0.486023
-0.496904
-0.504146
-0.509861
-0.514163
-0.516952
-0.518635
-0.519546
-0.519902
-0.519882
-0.519706
-0.51945
-0.519233
-0.519274
-0.520127
-0.522562
-0.52854
-0.538948
-0.547922
-0.537565
-0.519284
-0.339677
-0.0702669
-0.0096322
-0.000360977
-1.66648e-06
-8.3056e-08
-0.000629303
-0.0133699
-0.0642579
-0.151505
-0.247689
-0.331287
-0.394641
-0.438678
-0.46747
-0.48549
-0.496476
-0.503733
-0.509465
-0.513818
-0.516661
-0.518367
-0.519286
-0.519666
-0.519657
-0.519421
-0.51911
-0.518847
-0.518642
-0.518968
-0.520397
-0.524074
-0.531852
-0.542953
-0.546094
-0.530191
-0.485722
-0.215463
-0.0362381
-0.00424113
-0.000151856
-3.03248e-08
-9.87285e-08
-0.000623574
-0.0132685
-0.0637797
-0.150529
-0.246528
-0.330175
-0.393627
-0.437789
-0.466782
-0.484988
-0.496064
-0.503326
-0.50909
-0.513482
-0.51637
-0.518114
-0.519045
-0.519427
-0.519431
-0.519191
-0.518817
-0.518444
-0.518176
-0.518162
-0.518927
-0.521161
-0.526412
-0.535901
-0.545516
-0.538233
-0.523235
-0.414509
-0.111843
-0.0158576
-0.00137555
-7.77294e-05
-1.26726e-06
-6.96825e-08
-0.000617229
-0.0131704
-0.0634032
-0.149682
-0.245359
-0.329049
-0.392689
-0.437
-0.466127
-0.484497
-0.495669
-0.502943
-0.508719
-0.513157
-0.516082
-0.517858
-0.518818
-0.519204
-0.519202
-0.51897
-0.518574
-0.518123
-0.517744
-0.517579
-0.517927
-0.519183
-0.522632
-0.529624
-0.540068
-0.54457
-0.528276
-0.504337
-0.296937
-0.0489722
-0.00664936
-0.0002447
-3.13184e-05
-3.5418e-07
-3.68303e-08
-0.000610681
-0.0130618
-0.0630459
-0.149024
-0.244342
-0.32792
-0.39174
-0.436264
-0.46554
-0.484026
-0.495319
-0.502573
-0.508354
-0.512852
-0.515811
-0.517619
-0.518595
-0.518996
-0.518987
-0.518746
-0.518355
-0.517861
-0.517388
-0.517135
-0.517228
-0.517929
-0.520011
-0.524926
-0.533711
-0.543205
-0.537642
-0.522369
-0.455063
-0.160031
-0.0197289
-0.00303961
-4.63996e-05
-3.83221e-06
-1.58856e-07
-1.6158e-08
-0.000604912
-0.0129493
-0.0626508
-0.148409
-0.243562
-0.326949
-0.390783
-0.435528
-0.464995
-0.483609
-0.494991
-0.502298
-0.508017
-0.512555
-0.515555
-0.517385
-0.518383
-0.518802
-0.518803
-0.518527
-0.518129
-0.517626
-0.51709
-0.516729
-0.51664
-0.517013
-0.518262
-0.521511
-0.528173
-0.538139
-0.543199
-0.52777
-0.51139
-0.355162
-0.0643601
-0.00791692
-0.000991293
-1.53387e-05
-4.81775e-09
-8.06844e-07
-7.61771e-09
-0.000600632
-0.0128513
-0.0622432
-0.147729
-0.242837
-0.326206
-0.389965
-0.434789
-0.464448
-0.483213
-0.494689
-0.502039
-0.50774
-0.512281
-0.515316
-0.517161
-0.518167
-0.518595
-0.518621
-0.518343
-0.517905
-0.517397
-0.516869
-0.516359
-0.516122
-0.516255
-0.517017
-0.519096
-0.523783
-0.532341
-0.541672
-0.537257
-0.521083
-0.475548
-0.207841
-0.0229921
-0.00282789
-0.00010292
-2.05336e-06
-9.52524e-08
-3.51816e-07
-3.39248e-09
-0.000596928
-0.0127806
-0.0618924
-0.147029
-0.242042
-0.325514
-0.389344
-0.434153
-0.463912
-0.482823
-0.494412
-0.50179
-0.507474
-0.512001
-0.515086
-0.51696
-0.517978
-0.518406
-0.518426
-0.518171
-0.517712
-0.517174
-0.51661
-0.516124
-0.515742
-0.515605
-0.516088
-0.517462
-0.520613
-0.527121
-0.536938
-0.542163
-0.527303
-0.51233
-0.391731
-0.0812273
-0.00789714
-0.00103867
-1.35538e-07
-1.01191e-06
-5.31287e-09
-6.59286e-10
-1.4066e-09
-0.000592565
-0.0127197
-0.0616481
-0.146434
-0.241229
-0.324763
-0.388767
-0.43367
-0.463441
-0.482439
-0.494135
-0.501573
-0.507235
-0.511742
-0.514846
-0.516756
-0.517797
-0.518243
-0.518249
-0.517994
-0.517538
-0.516975
-0.516377
-0.515861
-0.515395
-0.515188
-0.515341
-0.516254
-0.518447
-0.523065
-0.531395
-0.540662
-0.536533
-0.519465
-0.484223
-0.24674
-0.0243647
-0.00265215
-0.000352871
-1.02227e-05
-5.48894e-07
-4.39808e-07
-1.49436e-07
-5.74757e-10
-0.000587361
-0.0126482
-0.0614445
-0.146039
-0.240547
-0.324
-0.388146
-0.433226
-0.463079
-0.482097
-0.493865
-0.501353
-0.507009
-0.5115
-0.514623
-0.516548
-0.517618
-0.518068
-0.518092
-0.517815
-0.517377
-0.516795
-0.516183
-0.51557
-0.515102
-0.514827
-0.514766
-0.515313
-0.516833
-0.520083
-0.526505
-0.53609
-0.541121
-0.526236
-0.511567
-0.411377
-0.0976203
-0.00732421
-0.000716749
-2.37395e-05
-1.24928e-05
-4.18969e-07
-4.67126e-06
-3.60115e-07
-2.33905e-10
-0.000582076
-0.0125613
-0.0612005
-0.145719
-0.240109
-0.323368
-0.387514
-0.432752
-0.462751
-0.481827
-0.493628
-0.501141
-0.506793
-0.511278
-0.514411
-0.516357
-0.51743
-0.517905
-0.517935
-0.517657
-0.517207
-0.516622
-0.515995
-0.515368
-0.514835
-0.514427
-0.514362
-0.514623
-0.515556
-0.517849
-0.522592
-0.530857
-0.539947
-0.53529
-0.517739
-0.487502
-0.271719
-0.0251983
-0.00202119
-0.000137429
-2.62219e-05
-2.74895e-06
-1.12358e-08
-6.60455e-06
-2.7464e-07
-7.75643e-11
-0.00057755
-0.0124727
-0.0609004
-0.145329
-0.239767
-0.322977
-0.386995
-0.432274
-0.46241
-0.481599
-0.493432
-0.500944
-0.506579
-0.511074
-0.514213
-0.516176
-0.517263
-0.517736
-0.517775
-0.517511
-0.517045
-0.516447
-0.51581
-0.51516
-0.514579
-0.514153
-0.513961
-0.514019
-0.514631
-0.516223
-0.519665
-0.526193
-0.535713
-0.540067
-0.524682
-0.50988
-0.421211
-0.109221
-0.00589091
-0.000429337
-8.98601e-06
-2.32577e-05
-2.4701e-07
-1.13488e-08
-2.71211e-06
-1.07249e-07
-3.12172e-11
-0.00057451
-0.0123982
-0.0605936
-0.144843
-0.239351
-0.322684
-0.386688
-0.431881
-0.462061
-0.481354
-0.493257
-0.500792
-0.50637
-0.510871
-0.514029
-0.516014
-0.517104
-0.51759
-0.517627
-0.517368
-0.516902
-0.516296
-0.51563
-0.514974
-0.514352
-0.513829
-0.513521
-0.513603
-0.513943
-0.514978
-0.517398
-0.522397
-0.530859
-0.539503
-0.533415
-0.515783
-0.487442
-0.285949
-0.0243307
-0.001336
-4.0932e-05
-1.13812e-07
-1.52544e-05
-1.80613e-06
-1.21369e-06
-1.27294e-07
-3.34969e-08
-3.30504e-12
-0.000573352
-0.0123507
-0.0603426
-0.144344
-0.238814
-0.322324
-0.386463
-0.431647
-0.461776
-0.481111
-0.493083
-0.500638
-0.5062
-0.510667
-0.513851
-0.515839
-0.516957
-0.517455
-0.517493
-0.517226
-0.516766
-0.516163
-0.515466
-0.514777
-0.514121
-0.513628
-0.513237
-0.513092
-0.513378
-0.514144
-0.515813
-0.519374
-0.526218
-0.53576
-0.538923
-0.522491
-0.507825
-0.423848
-0.115313
-0.00440618
-0.000176558
-9.64773e-07
-3.26501e-06
-9.82577e-06
-1.81456e-06
-4.85452e-06
-3.29233e-07
-8.05017e-09
-1.04936e-12
-0.000572213
-0.0123376
-0.0601956
-0.143948
-0.238264
-0.321844
-0.386178
-0.43148
-0.461602
-0.480903
-0.492904
-0.500499
-0.506049
-0.510486
-0.513686
-0.515685
-0.51681
-0.51731
-0.517354
-0.517084
-0.516619
-0.516019
-0.515317
-0.5146
-0.513959
-0.513376
-0.512958
-0.512715
-0.512848
-0.513354
-0.514628
-0.51722
-0.522386
-0.530971
-0.539313
-0.531334
-0.513796
-0.485226
-0.288773
-0.0224388
-0.000705397
-1.25211e-09
-4.50416e-06
-6.30904e-07
-2.85542e-06
-2.40443e-06
-7.88893e-06
-8.95056e-07
-1.88907e-09
-1.02318e-12
-0.000570418
-0.0123247
-0.0601838
-0.143744
-0.23784
-0.32136
-0.385806
-0.431276
-0.461482
-0.480781
-0.492763
-0.500344
-0.505899
-0.510331
-0.513531
-0.515547
-0.516679
-0.517176
-0.517228
-0.516961
-0.516483
-0.515869
-0.515168
-0.514446
-0.513731
-0.513114
-0.512723
-0.512359
-0.512329
-0.512715
-0.513638
-0.515571
-0.519436
-0.526494
-0.535901
-0.537699
-0.520101
-0.505347
-0.420305
-0.112561
-0.0028583
-2.31404e-05
-2.31202e-06
-1.4712e-06
-1.54702e-06
-2.88809e-11
-6.47878e-07
-4.73664e-06
-6.11116e-07
-9.66126e-10
-2.06922e-13
-0.000567367
-0.0123003
-0.0601727
-0.143785
-0.237654
-0.320993
-0.385434
-0.431013
-0.46134
-0.48068
-0.492663
-0.500228
-0.505766
-0.510187
-0.513386
-0.515419
-0.516546
-0.517057
-0.517105
-0.516834
-0.516358
-0.515748
-0.515022
-0.514299
-0.513585
-0.512921
-0.512391
-0.512071
-0.511989
-0.512168
-0.512879
-0.514387
-0.517224
-0.522663
-0.531491
-0.539044
-0.528747
-0.511662
-0.480907
-0.281117
-0.0182351
-0.000175502
-4.43538e-06
-4.01901e-06
-5.50594e-08
-5.95205e-06
-5.906e-06
-4.49169e-07
-3.5707e-07
-1.60035e-07
-9.26157e-11
-3.61068e-14
-0.00056284
-0.0122533
-0.0601184
-0.14383
-0.237765
-0.320864
-0.385161
-0.430742
-0.461155
-0.48059
-0.49259
-0.500134
-0.505633
-0.510062
-0.513258
-0.515286
-0.516425
-0.516939
-0.516988
-0.516716
-0.516224
-0.515619
-0.5149
-0.51414
-0.513427
-0.512777
-0.512229
-0.511868
-0.51162
-0.511752
-0.512222
-0.513356
-0.515545
-0.519708
-0.527121
-0.53641
-0.536189
-0.517251
-0.502467
-0.411291
-0.101553
-0.00109531
-1.03845e-06
-7.32033e-06
-5.77379e-08
-4.30822e-07
-4.23121e-06
-3.34762e-06
-4.15421e-06
-4.98619e-07
-3.59223e-08
-1.40841e-11
-5.51943e-15
-0.000557956
-0.0121775
-0.0599743
-0.143796
-0.237887
-0.321023
-0.385085
-0.430549
-0.460971
-0.480458
-0.492524
-0.500079
-0.505538
-0.509932
-0.513144
-0.51516
-0.516308
-0.516814
-0.51688
-0.516612
-0.516108
-0.515491
-0.514777
-0.514001
-0.513264
-0.512605
-0.51202
-0.511544
-0.511309
-0.51133
-0.511703
-0.512555
-0.514203
-0.517376
-0.523351
-0.53232
-0.538344
-0.525859
-0.509366
-0.47457
-0.264571
-0.0121999
-8.83445e-06
-9.33115e-06
-1.80543e-06
-5.38656e-07
-6.28552e-09
-3.91013e-07
-1.29899e-06
-9.41236e-06
-1.47021e-06
-5.95671e-09
-9.29587e-12
-6.98493e-16
-0.000553228
-0.0120942
-0.0597162
-0.143597
-0.237909
-0.32119
-0.385252
-0.430506
-0.460834
-0.480325
-0.492433
-0.499997
-0.505456
-0.509826
-0.513016
-0.51505
-0.516197
-0.516689
-0.51676
-0.516501
-0.516014
-0.515365
-0.514654
-0.51387
-0.513105
-0.512411
-0.511806
-0.511258
-0.510969
-0.510922
-0.511197
-0.511852
-0.513107
-0.515552
-0.520208
-0.528044
-0.536867
-0.533399
-0.514065
-0.498853
-0.39721
-0.082447
-0.000109984
-7.02312e-06
-1.54217e-06
-1.40619e-07
-3.33665e-06
-1.00758e-07
-1.12505e-06
-1.0786e-07
-3.67602e-06
-8.53849e-07
-3.3751e-10
-1.20864e-12
-7.3593e-17
-0.000549361
-0.0120138
-0.0594268
-0.143188
-0.237739
-0.32127
-0.38542
-0.430645
-0.460805
-0.480231
-0.49234
-0.499932
-0.505363
-0.509729
-0.512907
-0.514947
-0.51609
-0.516584
-0.51663
-0.516377
-0.515901
-0.515251
-0.514526
-0.513745
-0.512972
-0.512265
-0.51157
-0.511049
-0.510725
-0.510614
-0.510742
-0.511299
-0.512235
-0.514118
-0.517675
-0.524167
-0.533267
-0.537261
-0.522247
-0.506593
-0.465638
-0.237222
-0.00470377
-2.85404e-07
-4.5836e-06
-1.68592e-07
-1.13656e-06
-7.02953e-06
-2.32966e-06
-2.88983e-06
-2.16338e-06
-3.54947e-08
-1.72381e-07
-1.48976e-10
-1.37771e-13
-6.27655e-18
-0.000546838
-0.0119493
-0.0591475
-0.142722
-0.237305
-0.321157
-0.385526
-0.4308
-0.460911
-0.480209
-0.492267
-0.499865
-0.505296
-0.509657
-0.512822
-0.514844
-0.515989
-0.516495
-0.516517
-0.516262
-0.515775
-0.515149
-0.514406
-0.513616
-0.512829
-0.512096
-0.511423
-0.510842
-0.510478
-0.510311
-0.510339
-0.510745
-0.511618
-0.51308
-0.515785
-0.520915
-0.529272
-0.537271
-0.530291
-0.511528
-0.494112
-0.375455
-0.0578059
-5.83149e-05
-5.10978e-06
-1.85671e-08
-9.96852e-07
-5.5203e-06
-8.73774e-07
-3.4096e-06
-2.56011e-06
-9.42447e-06
-1.95532e-06
-1.78694e-08
-5.01245e-11
-1.19849e-14
-4.24268e-19
-0.00054597
-0.0119085
-0.0589283
-0.142272
-0.236801
-0.320792
-0.385471
-0.430894
-0.461027
-0.480273
-0.492245
-0.499795
-0.505232
-0.509576
-0.51276
-0.51476
-0.515887
-0.516387
-0.516439
-0.516155
-0.515669
-0.515041
-0.514311
-0.513498
-0.512698
-0.511945
-0.511265
-0.510624
-0.510287
-0.510035
-0.509983
-0.510298
-0.511026
-0.512231
-0.514303
-0.518323
-0.52542
-0.534598
-0.535923
-0.51873
-0.503962
-0.452828
-0.197626
-0.00190691
-2.11095e-06
-2.19279e-06
-8.2092e-07
-5.23731e-06
-1.88897e-06
-8.55284e-08
-1.43071e-07
-2.05879e-10
-4.87171e-06
-1.39635e-06
-1.04458e-09
-4.48286e-12
-8.09471e-16
-2.19689e-20
-0.000546326
-0.0118983
-0.0587979
-0.141927
-0.23631
-0.320355
-0.385197
-0.43088
-0.461104
-0.480343
-0.492276
-0.49977
-0.505155
-0.509505
-0.512682
-0.514672
-0.515795
-0.51628
-0.516351
-0.51607
-0.515563
-0.514926
-0.514206
-0.513411
-0.51258
-0.511793
-0.511101
-0.510474
-0.509996
-0.509738
-0.509718
-0.50993
-0.510482
-0.511415
-0.513168
-0.516273
-0.522023
-0.530807
-0.53734
-0.526928
-0.509226
-0.487358
-0.344142
-0.0322142
-7.22616e-06
-4.1744e-06
-2.79654e-08
-4.42042e-06
-1.06606e-05
-2.64209e-06
-6.48141e-06
-1.98813e-06
-2.26063e-06
-1.19853e-08
-2.45797e-07
-2.5698e-10
-3.17148e-13
-4.08207e-17
-7.63776e-22
-0.000547205
-0.0119105
-0.0587867
-0.141737
-0.235947
-0.319925
-0.384868
-0.430691
-0.461102
-0.4804
-0.492317
-0.499773
-0.505108
-0.509428
-0.512591
-0.514589
-0.515701
-0.51618
-0.516246
-0.515998
-0.515465
-0.514808
-0.514076
-0.513298
-0.512484
-0.511672
-0.510909
-0.510313
-0.50983
-0.509528
-0.509326
-0.509547
-0.509916
-0.510749
-0.512155
-0.514666
-0.519273
-0.526802
-0.535672
-0.533433
-0.51486
-0.500675
-0.434144
-0.150902
-0.000922506
-3.63169e-06
-4.81845e-08
-4.36829e-06
-1.23896e-05
-3.74269e-06
-5.24303e-08
-4.16636e-06
-2.99148e-06
-8.33769e-06
-2.52838e-06
-1.93704e-08
-6.32385e-11
-1.65839e-14
-1.44974e-18
-1.48746e-23
-0.000548011
-0.0119335
-0.058862
-0.141768
-0.235768
-0.319621
-0.384537
-0.430467
-0.460988
-0.480403
-0.492347
-0.499789
-0.505086
-0.509359
-0.512532
-0.51452
-0.51562
-0.516097
-0.516129
-0.515894
-0.515393
-0.5147
-0.513947
-0.51315
-0.51237
-0.511561
-0.510788
-0.510147
-0.509656
-0.509304
-0.509097
-0.509169
-0.50946
-0.510226
-0.511329
-0.51343
-0.517035
-0.523408
-0.532268
-0.536342
-0.522579
-0.506329
-0.477487
-0.301762
-0.0147191
-3.22212e-06
-2.98869e-07
-3.21894e-07
-1.34468e-05
-5.09632e-06
-1.48324e-06
-6.23836e-07
-3.13795e-08
-6.62134e-07
-3.67539e-06
-1.27372e-06
-6.19625e-09
-3.68599e-12
-6.23362e-16
-3.08973e-20
-1.68111e-25
-0.000547984
-0.0119527
-0.0589808
-0.141951
-0.235855
-0.319488
-0.384314
-0.430237
-0.460838
-0.480332
-0.492342
-0.499799
-0.505074
-0.509313
-0.512466
-0.514459
-0.515571
-0.516039
-0.516051
-0.515779
-0.515295
-0.514625
-0.513845
-0.513023
-0.512226
-0.51145
-0.510692
-0.510006
-0.509442
-0.509049
-0.508812
-0.508844
-0.509107
-0.509707
-0.510769
-0.512408
-0.515294
-0.52053
-0.528657
-0.536375
-0.529608
-0.510999
-0.495864
-0.407045
-0.102431
-0.000235487
-4.25839e-06
-1.2571e-06
-1.01202e-05
-5.96353e-06
-1.05542e-06
-3.70574e-06
-3.97609e-06
-3.85693e-06
-2.10334e-06
-2.9395e-07
-1.70165e-07
-5.86017e-10
-1.55916e-13
-1.40554e-17
-5.52181e-22
-2.24324e-27
-0.000547183
-0.0119576
-0.0590823
-0.142216
-0.23613
-0.319611
-0.384229
-0.43008
-0.460684
-0.480239
-0.4923
-0.499792
-0.505078
-0.50929
-0.512397
-0.514402
-0.515491
-0.515979
-0.515999
-0.515685
-0.515182
-0.514522
-0.513759
-0.512939
-0.512093
-0.511315
-0.510574
-0.509862
-0.509279
-0.508804
-0.508564
-0.50854
-0.508802
-0.509283
-0.510175
-0.511471
-0.513881
-0.518098
-0.52514
-0.534041
-0.534713
-0.5178
-0.503054
-0.462735
-0.24752
-0.00587916
-2.50777e-07
-7.40714e-07
-9.67153e-06
-1.53466e-05
-6.80059e-07
-2.28808e-07
-3.95881e-10
-2.31607e-06
-3.99715e-06
-7.02221e-06
-2.82435e-06
-7.36578e-09
-2.77683e-11
-4.38882e-15
-1.85915e-19
-6.9074e-24
-2.14612e-29
-0.000545528
-0.0119467
-0.0591246
-0.14244
-0.2365
-0.319918
-0.384367
-0.430032
-0.460582
-0.480136
-0.492247
-0.499758
-0.505077
-0.509279
-0.51236
-0.514322
-0.515425
-0.515897
-0.515928
-0.515609
-0.515074
-0.514412
-0.513661
-0.512849
-0.512005
-0.511177
-0.510415
-0.509761
-0.509146
-0.508628
-0.5084
-0.508318
-0.508487
-0.508806
-0.509641
-0.510746
-0.512728
-0.516128
-0.522112
-0.530593
-0.536164
-0.525096
-0.507724
-0.488431
-0.368665
-0.0581672
-2.6496e-05
-3.68071e-08
-7.0265e-06
-1.38792e-05
-6.23456e-06
-6.19668e-07
-4.18055e-07
-3.02013e-06
-1.17431e-06
-1.39183e-06
-1.94802e-07
-9.58371e-07
-1.29318e-09
-8.93381e-13
-8.51548e-17
-1.38153e-21
-1.17595e-25
-1.6761e-32
-0.000542933
-0.0119199
-0.0591032
-0.14256
-0.236817
-0.320319
-0.384642
-0.430149
-0.460548
-0.480075
-0.492171
-0.49972
-0.505038
-0.509274
-0.512331
-0.514255
-0.515356
-0.515812
-0.515849
-0.515536
-0.514989
-0.514306
-0.513559
-0.512759
-0.511916
-0.511065
-0.510275
-0.509602
-0.509015
-0.508543
-0.508139
-0.508019
-0.508162
-0.508511
-0.509077
-0.510121
-0.511774
-0.514571
-0.519466
-0.527138
-0.535115
-0.531008
-0.512695
-0.499102
-0.440517
-0.182956
-0.00180446
-1.67204e-08
-1.32624e-06
-1.77336e-05
-6.93456e-06
-3.77517e-07
-9.3479e-07
-4.5154e-07
-2.36545e-06
-4.73521e-06
-5.06966e-06
-2.00195e-06
-7.31781e-08
-1.23199e-10
-1.66031e-14
-1.10717e-18
-1.96483e-24
-3.24428e-27
-4.51084e-31
-0.000539647
-0.011874
-0.0590162
-0.142554
-0.237002
-0.320657
-0.385006
-0.43037
-0.460635
-0.480055
-0.49213
-0.499665
-0.504988
-0.509241
-0.512315
-0.514221
-0.515279
-0.515743
-0.515776
-0.515476
-0.514927
-0.514229
-0.513439
-0.512647
-0.51181
-0.510973
-0.51015
-0.509396
-0.508886
-0.508366
-0.507956
-0.507756
-0.507742
-0.508103
-0.508678
-0.509521
-0.51095
-0.513257
-0.517178
-0.523795
-0.532216
-0.534296
-0.519484
-0.504253
-0.476557
-0.316059
-0.0242868
-7.74193e-06
-1.38848e-06
-1.31287e-05
-9.51112e-06
-1.63706e-06
-5.73609e-07
-2.79093e-07
-7.7455e-10
-1.45e-06
-1.2831e-07
-5.56645e-06
-2.23684e-06
-9.96026e-09
-3.29335e-12
-1.94317e-16
-1.09971e-20
-9.63811e-28
-1.25842e-30
-3.60358e-35
-0.000535927
-0.0118158
-0.0588484
-0.142425
-0.237027
-0.320862
-0.385312
-0.430661
-0.460795
-0.480112
-0.492108
-0.499612
-0.504959
-0.509191
-0.512291
-0.514184
-0.515228
-0.515658
-0.51567
-0.5154
-0.514871
-0.514173
-0.513357
-0.512506
-0.511698
-0.510867
-0.510066
-0.509263
-0.508651
-0.508188
-0.507824
-0.507568
-0.507505
-0.507734
-0.508221
-0.509052
-0.510185
-0.512117
-0.515427
-0.520891
-0.528728
-0.534476
-0.525751
-0.508592
-0.493315
-0.407376
-0.115612
-0.000363247
-1.3406e-06
-1.49734e-05
-1.61279e-05
-2.31483e-06
-1.00397e-06
-8.51114e-07
-8.4042e-08
-2.22297e-06
-1.2848e-06
-6.12924e-06
-8.06135e-07
-2.38324e-07
-5.19474e-10
-6.1589e-14
-1.00447e-18
-1.97708e-22
-4.30698e-27
-3.03768e-30
-7.74729e-31
-0.000532147
-0.0117488
-0.0586304
-0.142142
-0.236901
-0.320916
-0.385508
-0.430904
-0.461003
-0.480207
-0.492142
-0.499589
-0.504903
-0.509147
-0.512262
-0.514151
-0.515172
-0.515584
-0.515567
-0.515281
-0.514786
-0.514104
-0.513297
-0.512407
-0.511557
-0.510745
-0.509971
-0.509177
-0.508534
-0.508015
-0.507595
-0.507421
-0.507333
-0.507462
-0.507925
-0.508571
-0.509603
-0.511226
-0.513835
-0.518455
-0.52543
-0.532837
-0.530421
-0.51394
-0.500578
-0.458143
-0.247833
-0.00752905
-9.00079e-06
-1.61486e-05
-2.3173e-05
-7.72879e-06
-9.51413e-07
-5.94544e-07
-3.90216e-07
-4.88144e-06
-2.43577e-06
-2.17741e-06
-3.09581e-06
-2.78331e-06
-8.37194e-09
-1.04648e-11
-7.23912e-16
-1.16463e-21
-3.25301e-24
-2.09924e-27
-3.14021e-29
-5.91336e-33
-0.000528445
-0.0116793
-0.0583762
-0.141762
-0.236584
-0.320821
-0.385572
-0.431071
-0.461182
-0.48034
-0.492194
-0.499587
-0.504867
-0.509114
-0.512203
-0.514135
-0.515133
-0.515532
-0.515499
-0.515179
-0.514678
-0.514031
-0.513227
-0.512343
-0.511441
-0.510607
-0.509831
-0.509116
-0.508439
-0.507864
-0.507456
-0.507235
-0.507174
-0.507236
-0.50756
-0.508156
-0.509126
-0.510482
-0.51269
-0.51646
-0.522463
-0.530143
-0.532915
-0.520229
-0.504996
-0.483495
-0.358835
-0.0564267
-9.65186e-05
-1.23579e-05
-2.49066e-05
-1.12225e-05
-2.02924e-06
-6.48577e-08
-5.66384e-07
-2.53301e-08
-1.66286e-06
-3.34304e-07
-2.08633e-05
-1.74886e-07
-9.05671e-07
-7.67434e-11
-1.52184e-13
-6.06055e-18
-5.7535e-23
-1.48246e-25
-1.84435e-28
-4.00921e-31
-2.26229e-32
-0.000525022
-0.011611
-0.0581087
-0.141312
-0.236146
-0.320538
-0.385516
-0.43113
-0.461299
-0.480458
-0.492269
-0.499606
-0.50484
-0.509049
-0.512162
-0.514094
-0.515124
-0.515502
-0.515453
-0.515115
-0.514573
-0.513918
-0.513145
-0.512282
-0.511373
-0.510489
-0.509686
-0.508989
-0.50831
-0.507762
-0.507182
-0.506988
-0.506898
-0.507017
-0.507227
-0.507712
-0.50861
-0.509884
-0.511661
-0.514816
-0.520003
-0.527449
-0.533324
-0.525827
-0.50903
-0.49542
-0.428826
-0.16766
-0.00190955
-9.98217e-06
-2.95019e-05
-1.58451e-05
-1.66484e-06
-4.92749e-07
-1.29856e-07
-1.55606e-07
-3.85842e-07
-3.7164e-06
-1.14712e-05
-3.14023e-06
-2.89402e-06
-7.22143e-09
-2.42393e-11
-1.06206e-15
-1.93765e-19
-6.94409e-27
-1.57733e-29
-3.81551e-31
-1.64543e-30
-3.38034e-31
-0.000522017
-0.0115478
-0.0578431
-0.140832
-0.235608
-0.320139
-0.385295
-0.4311
-0.461347
-0.480542
-0.492338
-0.499649
-0.504832
-0.509025
-0.512106
-0.514044
-0.515095
-0.51549
-0.515414
-0.515047
-0.514479
-0.513799
-0.513042
-0.512204
-0.511324
-0.510414
-0.509568
-0.508801
-0.508189
-0.507597
-0.507107
-0.50674
-0.506609
-0.506727
-0.506953
-0.507434
-0.508117
-0.509294
-0.510888
-0.513487
-0.517802
-0.524727
-0.532329
-0.530431
-0.51441
-0.50108
-0.467085
-0.290789
-0.0181466
-6.73195e-05
-2.85877e-05
-1.99838e-05
-3.6782e-06
-4.2051e-07
-5.34221e-07
-4.02619e-07
-2.80677e-06
-2.20731e-05
-3.41596e-08
-1.12655e-06
-6.54412e-08
-8.17199e-07
-5.39244e-10
-3.41266e-13
-3.00001e-18
-4.33456e-21
-1.29684e-25
-3.28746e-28
-6.59851e-29
-2.10806e-30
-5.1135e-36
-0.00051955
-0.0114919
-0.0575948
-0.140351
-0.235034
-0.319631
-0.384967
-0.430942
-0.461337
-0.480573
-0.492398
-0.499688
-0.50486
-0.509015
-0.512063
-0.513994
-0.515053
-0.515459
-0.515398
-0.514999
-0.514391
-0.513675
-0.512914
-0.512109
-0.51126
-0.51036
-0.509474
-0.508653
-0.507978
-0.507465
-0.507036
-0.506627
-0.506491
-0.506508
-0.506757
-0.507129
-0.507862
-0.50878
-0.510164
-0.512407
-0.516181
-0.522177
-0.530215
-0.532971
-0.520452
-0.505202
-0.486656
-0.382644
-0.0895407
-0.00048261
-2.57487e-05
-2.68345e-05
-5.68084e-06
-1.78408e-06
-9.18031e-07
-4.59994e-07
-3.07893e-06
-1.03562e-08
-3.63498e-07
-4.97962e-06
-2.50684e-06
-2.19011e-06
-6.59466e-09
-6.06255e-11
-2.44113e-15
-9.97341e-20
-9.708e-23
-3.88057e-26
-1.80855e-29
-4.68758e-29
-1.44391e-33
-7.11675e-32
-0.000517575
-0.0114454
-0.0573738
-0.1399
-0.234454
-0.319081
-0.384556
-0.4307
-0.46123
-0.480577
-0.492424
-0.499727
-0.50488
-0.509015
-0.512034
-0.513938
-0.514999
-0.515422
-0.515359
-0.51498
-0.514358
-0.513593
-0.512798
-0.511974
-0.511161
-0.510306
-0.509422
-0.508613
-0.507845
-0.507287
-0.506843
-0.506512
-0.506267
-0.506299
-0.506452
-0.506886
-0.50754
-0.508319
-0.509507
-0.511505
-0.514711
-0.519966
-0.527745
-0.533459
-0.525871
-0.509081
-0.496208
-0.439364
-0.203043
-0.00423578
-3.62716e-05
-3.08085e-05
-8.57665e-06
-9.1248e-07
-5.16671e-07
-3.72004e-07
-1.31216e-07
-6.54442e-08
-1.85489e-06
-6.13402e-09
-1.62018e-07
-1.3098e-06
-1.3847e-06
-1.59769e-09
-5.24012e-13
-3.78457e-17
-7.21501e-22
-5.82421e-24
-2.14406e-27
-1.97065e-28
-8.78095e-31
-5.24678e-31
-3.12102e-34
-0.000516146
-0.011408
-0.0571897
-0.139495
-0.233905
-0.318521
-0.384109
-0.4304
-0.461069
-0.480508
-0.492423
-0.499743
-0.504901
-0.50902
-0.512005
-0.513879
-0.514939
-0.515374
-0.51533
-0.514953
-0.514351
-0.513566
-0.512709
-0.51186
-0.511013
-0.510206
-0.509362
-0.508538
-0.507793
-0.507195
-0.506744
-0.506405
-0.50618
-0.506122
-0.50615
-0.506519
-0.507192
-0.508023
-0.509029
-0.510634
-0.513406
-0.51805
-0.525199
-0.532756
-0.530254
-0.514246
-0.501091
-0.470965