/*--------------------------------*- C++ -*----------------------------------*\
| =========                 |                                                 |
| \\      /  F ield         | OpenFOAM: The Open Source CFD Toolbox           |
|  \\    /   O peration     | Version:  v2012                                 |
|   \\  /    A nd           | Website:  www.openfoam.com                      |
|    \\/     M anipulation  |                                                 |
\*---------------------------------------------------------------------------*/
FoamFile
{
    version     2.0;
    format      ascii;
    class       volScalarField;
    location    "0";
    object      Mg;
}
// * * * * * * * * * * * * * * * * * * * * * * * * * * * * * * * * * * * * * //

dimensions      [0 0 0 0 0 0 0];


internalField   nonuniform List<scalar> 
39402
(
0.00335454
0.000217387
0.00433052
6.58286e-05
0.000437676
0.00317666
5.55964e-05
0.000139441
0.000688629
0.00203601
6.02324e-05
0.000162763
0.000225105
0.000965802
0.00135429
6.49086e-05
0.000211837
0.000783635
0.000365353
0.00125911
0.00100015
6.82456e-05
0.000243346
0.00112686
0.00257614
0.000641831
0.00150985
0.000786992
7.00376e-05
0.000263418
0.00131625
0.00369972
0.00603285
0.00106661
0.00167777
0.000642612
7.10647e-05
0.000273897
0.00143065
0.00428777
0.0085892
0.0112421
0.00159075
0.00175333
0.000537324
7.1465e-05
0.00028029
0.00148872
0.00463343
0.00986254
0.0158316
0.0177629
0.00214545
0.00175252
0.000455846
7.10126e-05
0.000282839
0.00152334
0.00480567
0.0105912
0.0180015
0.0246939
0.0248121
0.00266448
0.00169699
0.000390758
7.0121e-05
0.000281315
0.0015361
0.0049045
0.0109498
0.019207
0.0278006
0.0340204
0.0316762
0.00311372
0.0016103
0.000337211
6.9212e-05
0.000278029
0.00152681
0.00493748
0.0111467
0.0197961
0.0294742
0.0379448
0.0428347
0.037978
0.0034925
0.0015135
0.000293264
6.81565e-05
0.00027468
0.00150865
0.00490394
0.0112063
0.0201046
0.0302904
0.0399958
0.0473422
0.0507416
0.0436796
0.0038094
0.00139832
0.000255804
6.70057e-05
0.000270503
0.00149032
0.00484483
0.0111267
0.0201904
0.0306981
0.0410013
0.04966
0.0555887
0.0577637
0.0488349
0.00408087
0.00125638
0.000224312
6.59261e-05
0.00026594
0.00146724
0.00478517
0.0109962
0.0200512
0.030807
0.0414811
0.0508074
0.0580502
0.0628534
0.0639009
0.053546
0.00431618
0.0011033
0.000197467
6.48434e-05
0.000261661
0.00144224
0.0047111
0.010864
0.0198334
0.0306114
0.0416075
0.0513338
0.0592715
0.0653428
0.069251
0.069196
0.0578023
0.00448119
0.000953231
0.000174695
6.3677e-05
0.000257268
0.00141874
0.00463155
0.0107019
0.0196105
0.0303176
0.0413763
0.0514763
0.0598133
0.0665654
0.0717387
0.0747087
0.0738127
0.0612493
0.00451749
0.00081592
0.000155207
6.25054e-05
0.000252452
0.00139449
0.0045565
0.0105281
0.0193398
0.0300121
0.0410372
0.0512323
0.0599553
0.0670915
0.0729432
0.0772194
0.0793303
0.077648
0.0637445
0.00432565
0.000694954
0.000140003
6.14529e-05
0.000247682
0.00136797
0.00447913
0.0103638
0.0190502
0.0296431
0.0406761
0.0508787
0.0596999
0.0671984
0.0734509
0.0784235
0.0818408
0.0832029
0.0804623
0.0656435
0.00385379
0.000595508
0.000125305
6.04827e-05
0.000243435
0.0013418
0.00439499
0.0101943
0.0187745
0.0292484
0.0402426
0.0504936
0.0593429
0.0669181
0.073517
0.0789083
0.0830309
0.0857097
0.0864089
0.0827549
0.0668946
0.00316678
0.000503108
0.000106831
5.95053e-05
0.000239475
0.00131852
0.00431219
0.010011
0.0184898
0.02887
0.0397787
0.0500337
0.0589444
0.0665445
0.0732163
0.0789583
0.0834697
0.086872
0.088973
0.089255
0.0854775
0.0665071
0.00240375
0.00041637
8.63497e-05
5.85175e-05
0.00023543
0.00129664
0.00423798
0.00983041
0.0181829
0.0284781
0.0393298
0.0495404
0.0584738
0.0661227
0.072833
0.078655
0.0835087
0.0872588
0.0900854
0.0918467
0.0921036
0.0883274
0.0637941
0.00171787
0.00034796
6.23143e-05
5.76065e-05
0.000231377
0.00127431
0.00416813
0.00966771
0.0178802
0.0280571
0.0388638
0.0490579
0.0579736
0.0656308
0.0723946
0.0782795
0.0832038
0.0872773
0.0904095
0.0928342
0.094513
0.095058
0.0897884
0.0585598
0.00120317
0.000293862
4.29785e-05
5.67527e-05
0.000227651
0.00125201
0.004097
0.00951395
0.0176059
0.0276417
0.0383652
0.0485564
0.0574857
0.065121
0.0718894
0.0778448
0.0828375
0.0869692
0.0903925
0.0930559
0.0952583
0.0971269
0.0976876
0.0886239
0.0508493
0.000857244
0.000243834
3.50342e-05
5.59153e-05
0.000224192
0.00123157
0.0040262
0.00935772
0.0173452
0.0272616
0.037872
0.0480224
0.0569771
0.0646311
0.0713653
0.0773476
0.082413
0.086612
0.0900738
0.0929791
0.0953164
0.0974875
0.0996676
0.0992015
0.0846378
0.0409795
0.00063513
0.000191185
3.2456e-05
5.50951e-05
0.000220761
0.00121258
0.00396113
0.00920261
0.0170808
0.026899
0.0374174
0.0474924
0.0564393
0.0641186
0.0708567
0.0768218
0.0819239
0.0861976
0.0897204
0.0926336
0.0951428
0.0972884
0.0996133
0.101678
0.0992098
0.0792257
0.0298599
0.000479434
0.000143224
2.90934e-05
5.43221e-05
0.000217381
0.00119379
0.00390071
0.00905946
0.0168185
0.0265309
0.0369811
0.0470008
0.0559054
0.0635818
0.0703264
0.0763009
0.0814098
0.0857235
0.0893138
0.0922756
0.0947485
0.0969682
0.0990727
0.101404
0.102889
0.0976536
0.0728632
0.0190271
0.000361567
0.000104246
2.58339e-05
5.35884e-05
0.000214209
0.00117531
0.00384111
0.00892647
0.0165755
0.0261658
0.0365387
0.0465264
0.0554064
0.0630508
0.0697738
0.0757611
0.0809
0.0852249
0.0888562
0.0918759
0.0943725
0.0964984
0.0985475
0.100595
0.102745
0.10335
0.0939099
0.0642267
0.01038
0.000269151
7.51129e-05
2.39851e-05
5.28628e-05
0.000211225
0.00115801
0.00378262
0.00879532
0.0163486
0.025826
0.0360998
0.0460453
0.054921
0.0625475
0.06923
0.0752011
0.0803691
0.0847293
0.0883726
0.0914235
0.0939732
0.0960865
0.0979647
0.0998636
0.101797
0.103837
0.102753
0.0876545
0.0522295
0.00489287
0.000198348
5.784e-05
2.51225e-05
5.21642e-05
0.000208261
0.0011418
0.00372794
0.00866702
0.0161255
0.0255082
0.0356889
0.0455689
0.0544307
0.0620596
0.0687123
0.0746478
0.079821
0.0842116
0.0878887
0.090957
0.0935288
0.0956756
0.0974932
0.0991565
0.1009
0.10289
0.104511
0.100562
0.080072
0.0376381
0.00209099
0.000147991
4.57225e-05
2.67853e-05
5.15387e-05
0.000205421
0.00112579
0.00367677
0.00854681
0.0159071
0.0251949
0.0353035
0.0451204
0.0539449
0.0615663
0.0682107
0.0741237
0.0792805
0.0836775
0.0873845
0.0904883
0.0930728
0.0952387
0.0970627
0.0986167
0.10009
0.101839
0.103847
0.104503
0.0961837
0.0715633
0.02302
0.000867592
0.000111175
3.45386e-05
2.60494e-05
5.09365e-05
0.000202875
0.00111049
0.00362652
0.0084347
0.0157023
0.0248883
0.0349228
0.0446963
0.0534854
0.061077
0.0677015
0.0736108
0.0787677
0.0831558
0.0868704
0.0899976
0.0926197
0.0947909
0.0966169
0.0981653
0.0994981
0.100884
0.102711
0.104541
0.103239
0.0892152
0.0601475
0.0116046
0.000379559
8.15909e-05
2.82592e-05
2.34995e-05
5.03266e-05
0.000200433
0.00109685
0.00357864
0.0083246
0.0155114
0.0246
0.0345504
0.0442788
0.0530506
0.0606138
0.0672019
0.0730963
0.0782618
0.082655
0.0863676
0.0894991
0.092138
0.0943474
0.0961738
0.0977145
0.0990163
0.100224
0.101599
0.103493
0.104784
0.100055
0.0807907
0.044718
0.00489617
0.000191846
5.77247e-05
2.70719e-05
1.96842e-05
4.97104e-05
0.000197939
0.00108383
0.00353585
0.00822008
0.0153238
0.0243308
0.0341991
0.0438701
0.0526216
0.0601761
0.0667264
0.0725909
0.0777569
0.0821603
0.0858799
0.0890126
0.0916531
0.0938778
0.0957379
0.0972729
0.0985725
0.0996792
0.100822
0.102288
0.104163
0.10416
0.0943086
0.0716336
0.0277232
0.00185985
0.000117122
4.01158e-05
2.84756e-05
1.50794e-05
4.91532e-05
0.000195434
0.00107058
0.00349541
0.00812662
0.015146
0.0240665
0.0338705
0.0434842
0.0522015
0.0597411
0.0662746
0.0721084
0.0772609
0.0816652
0.0853973
0.0885426
0.0911832
0.093403
0.0952824
0.0968452
0.098128
0.0992148
0.100236
0.10135
0.102931
0.104506
0.101918
0.0863468
0.0594956
0.0136468
0.000704964
8.20896e-05
2.77063e-05
3.03403e-05
9.52249e-06
4.86911e-05
0.000193221
0.00105738
0.00345449
0.00803842
0.0149866
0.0238156
0.033547
0.0431218
0.0518034
0.0593181
0.065828
0.0716476
0.0767872
0.0811856
0.084918
0.088073
0.0907274
0.0929487
0.0948199
0.0963973
0.0977181
0.0987736
0.099721
0.100672
0.10186
0.103486
0.104141
0.097269
0.0775059
0.0429298
0.00541618
0.000273946
6.29656e-05
1.51713e-05
3.28354e-05
5.43875e-06
4.82397e-05
0.000191403
0.00104588
0.003414
0.00794992
0.0148365
0.0235899
0.03324
0.0427638
0.0514285
0.0589163
0.0653929
0.0711961
0.0763321
0.080723
0.0844505
0.0876057
0.0902709
0.0925056
0.0943771
0.0959486
0.0972697
0.098364
0.0992615
0.100118
0.101051
0.102356
0.103806
0.102345
0.0895616
0.0672724
0.0251443
0.00189624
0.000107633
5.17788e-05
7.42768e-06
4.02983e-05
3.27262e-06
4.77629e-05
0.000189622
0.0010365
0.00337878
0.00786283
0.0146864
0.0233779
0.0329625
0.0424241
0.0510579
0.0585347
0.0649806
0.0707559
0.0758839
0.0802766
0.0839984
0.0871503
0.0898158
0.0920612
0.0939472
0.0955167
0.0968308
0.0979304
0.0988456
0.0996449
0.100416
0.101427
0.102788
0.103518
0.0982082
0.0804499
0.0531619
0.011407
0.000620859
5.39989e-05
4.73881e-05
5.48623e-06
4.25936e-05
2.15227e-06
4.72756e-05
0.000187703
0.00102743
0.00335038
0.00778715
0.0145392
0.0231663
0.032701
0.0421148
0.0507055
0.0581642
0.0645881
0.0703341
0.0754519
0.0798386
0.0835656
0.0867118
0.0893727
0.0916175
0.0935148
0.0951011
0.0964089
0.0975015
0.0984378
0.0992322
0.0999242
0.100696
0.101798
0.103058
0.102007
0.0910412
0.0711774
0.035254
0.00404691
0.000202804
3.97608e-05
4.50696e-05
8.22367e-06
4.21303e-05
1.48876e-06
4.68355e-05
0.000185761
0.00101764
0.00332317
0.00772637
0.0144119
0.022959
0.032441
0.0418228
0.0503833
0.0578132
0.0642184
0.0699363
0.0750385
0.0794163
0.0831374
0.0862893
0.0889483
0.0911902
0.0930797
0.09468
0.0960029
0.0970873
0.0980181
0.0988117
0.0994912
0.100126
0.100968
0.102145
0.102828
0.0983354
0.0821965
0.0591937
0.0180593
0.00124203
7.15145e-05
3.71092e-05
3.54239e-05
1.2833e-05
3.81125e-05
1.06572e-06
4.64888e-05
0.000184057
0.00100782
0.00329397
0.00766849
0.0143095
0.0227796
0.0321875
0.0415326
0.0500767
0.0574875
0.0638674
0.0695562
0.0746473
0.0790138
0.0827235
0.0858682
0.0885319
0.0907767
0.0926621
0.0942544
0.0955956
0.0967036
0.0976024
0.0983849
0.0990576
0.0996498
0.100292
0.101224
0.102356
0.101457
0.0916583
0.073163
0.0424087
0.00680447
0.000377581
2.8536e-05
4.16345e-05
2.53913e-05
1.80099e-05
3.19058e-05
7.558e-07
4.61783e-05
0.000182747
0.000999353
0.00326478
0.0076069
0.014212
0.0226352
0.0319669
0.0412523
0.0497737
0.0571795
0.063538
0.069194
0.0742582
0.0786299
0.0823313
0.0854673
0.0881234
0.0903698
0.0922606
0.0938448
0.0951834
0.0963026
0.0972338
0.0979918
0.098624
0.0992147
0.099775
0.100459
0.101499
0.102108
0.0979988
0.0829604
0.0621669
0.0238314
0.002005
0.000117039
1.63242e-05
4.72515e-05
1.3992e-05
2.55679e-05
2.42997e-05
5.23455e-07
4.58384e-05
0.000181566
0.00099304
0.00323994
0.00754572
0.0141092
0.0224977
0.0317877
0.0410056
0.0494812
0.0568736
0.0632283
0.0688569
0.0738896
0.0782465
0.0819536
0.0850827
0.0877346
0.0899711
0.0918668
0.0934526
0.0947837
0.0959016
0.0968492
0.097609
0.0982498
0.0987943
0.099318
0.0998839
0.100667
0.101642
0.10074
0.0915026
0.0739135
0.0466419
0.00963691
0.000547313
3.77024e-05
1.45586e-05
4.91563e-05
1.5134e-06
3.62823e-05
1.68937e-05
3.42512e-07
4.54519e-05
0.000180231
0.000987438
0.00322189
0.0074941
0.0140077
0.0223537
0.0316171
0.0408027
0.0492219
0.0565803
0.0629204
0.0685351
0.073543
0.0778823
0.0815776
0.0847132
0.0873554
0.0895898
0.0914748
0.0930731
0.0944003
0.0955174
0.096446
0.0972357
0.0978896
0.0984053
0.0988907
0.0993839
0.0999822
0.100863
0.101323
0.0972421
0.0828052
0.0634955
0.0278816
0.00281859
0.000157572
1.21684e-05
2.21134e-05
4.70327e-05
1.53376e-06
4.59733e-05
1.05317e-05
2.073e-07
4.50637e-05
0.000178695
0.000980969
0.0032061
0.00745731
0.0139228
0.0222123
0.0314405
0.0406096
0.049005
0.0563194
0.0626259
0.0682186
0.0732134
0.077538
0.0812206
0.0843432
0.0869933
0.089221
0.0910999
0.0926919
0.0940273
0.0951432
0.0960741
0.0968595
0.0975048
0.0980631
0.0985094
0.0989169
0.0993985
0.100097
0.100912
0.0998922
0.0907036
0.0737507
0.0488946
0.0119364
0.000702298
4.50047e-05
5.29377e-06
3.32545e-05
3.55805e-05
6.50144e-06
4.91138e-05
5.65112e-06
1.20183e-07
4.47192e-05
0.000177174
0.000973517
0.00318782
0.00742546
0.0138629
0.022094
0.0312678
0.0404122
0.0488002
0.0560964
0.0623604
0.0679145
0.0728915
0.0772083
0.0808813
0.0839941
0.0866317
0.0888641
0.0907409
0.0923236
0.0936538
0.0947776
0.0957072
0.0964867
0.0971481
0.0977069
0.0981392
0.0985155
0.0989114
0.0994515
0.100226
0.100513
0.0961987
0.0819735
0.0635771
0.0303726
0.00351765
0.000179066
1.25561e-05
4.4854e-06
4.19512e-05
2.50123e-05
1.35506e-05
4.56448e-05
3.08969e-06
6.68484e-08
4.44696e-05
0.000175875
0.000966166
0.00316665
0.00738883
0.0138115
0.0220112
0.0311234
0.0402194
0.0485911
0.0558832
0.0621341
0.0676368
0.0725826
0.0768861
0.0805587
0.0836606
0.0862902
0.088513
0.090394
0.0919725
0.0932975
0.0944125
0.0953532
0.0961291
0.0967726
0.0973203
0.0978127
0.0981666
0.098478
0.0988773
0.0995272
0.100244
0.0989078
0.0893804
0.0728981
0.0494931
0.0135065
0.000805471
4.67253e-05
3.57953e-06
6.94892e-06
4.48837e-05
1.37942e-05
2.26643e-05
3.5489e-05
1.78814e-06
3.79735e-08
4.43248e-05
0.000174983
0.00096008
0.00314583
0.00734601
0.0137526
0.0219401
0.0310205
0.0400579
0.0483894
0.0556695
0.0619121
0.0673973
0.072298
0.0765788
0.0802356
0.0833412
0.0859652
0.0881785
0.0900494
0.0916344
0.0929575
0.0940617
0.0949942
0.095774
0.0964406
0.0969804
0.097433
0.0978323
0.0981415
0.0984294
0.0988755
0.0996015
0.0996973
0.0948568
0.0805915
0.0628272
0.0312538
0.00398405
0.000180648
1.01395e-05
6.24757e-07
1.37802e-05
4.64037e-05
7.57746e-07
4.00432e-05
2.35898e-05
1.00528e-06
1.95632e-08
4.41938e-05
0.000174566
0.000956193
0.00312898
0.00730416
0.0136836
0.0218586
0.0309315
0.0399397
0.0482174
0.0554626
0.061694
0.067166
0.0720467
0.0762984
0.0799318
0.0830242
0.0856464
0.0878545
0.0897168
0.0912938
0.0926238
0.0937256
0.0946505
0.0954396
0.0960941
0.096642
0.0970883
0.0974826
0.0977844
0.098054
0.0983694
0.0989245
0.0994959
0.0978221
0.0876949
0.0715957
0.0489157
0.0140358
0.000839011
3.92861e-05
1.59822e-06
2.18281e-06
2.4498e-05
3.90412e-05
2.66491e-06
5.05225e-05
1.34208e-05
5.1345e-07
8.59156e-09
4.40251e-05
0.000174123
0.000954889
0.003119
0.00727092
0.0136168
0.0217646
0.0308317
0.0398366
0.0480897
0.0552878
0.0614812
0.066937
0.0718056
0.0760467
0.079655
0.0827263
0.0853336
0.0875428
0.0894009
0.0909676
0.0922886
0.093398
0.0943218
0.0950906
0.0957418
0.0963193
0.0967476
0.0971216
0.0974426
0.0976955
0.0979425
0.098334
0.0989528
0.0987734
0.0932688
0.0788175
0.0614551
0.0307926
0.00405205
0.000158097
5.91846e-06
1.25799e-06
3.58113e-06
3.51561e-05
2.70088e-05
8.97232e-06
5.2283e-05
6.46097e-06
2.36445e-07
3.82814e-09
4.37907e-05
0.000173518
0.000953346
0.00311689
0.00725262
0.0135643
0.0216748
0.0307189
0.0397234
0.0479736
0.0551509
0.0613014
0.0667213
0.07157
0.0758009
0.0794059
0.0824493
0.0850398
0.0872345
0.0890915
0.0906548
0.0919729
0.0930712
0.0940036
0.0947751
0.0954171
0.0959603
0.0964283
0.0968134
0.0971102
0.0973693
0.0976034
0.0978583
0.0983227
0.0987521
0.0965437
0.0856123
0.0698512
0.0474037
0.0136302
0.00077448
2.56869e-05
4.47414e-06
5.46146e-07
4.89915e-06
4.05079e-05
1.40445e-05
2.28384e-05
4.26954e-05
2.92879e-06
1.10011e-07
1.66036e-09
4.34708e-05
0.000172592
0.000950933
0.00311414
0.00725106
0.0135374
0.0216047
0.0306107
0.039597
0.0478521
0.0550273
0.0611558
0.0665298
0.0713494
0.0755632
0.079158
0.0821993
0.0847667
0.0869424
0.088787
0.0903463
0.0916636
0.0927616
0.0936804
0.0944632
0.0951141
0.0956609
0.0961305
0.0964918
0.0968091
0.097047
0.0972561
0.0974646
0.0977913
0.0983075
0.0977986
0.0914063
0.0766381
0.0595183
0.0292716
0.00376438
0.000100156
6.78666e-06
4.32194e-06
8.69666e-07
1.3591e-05
4.28457e-05
1.54108e-06
4.08617e-05
2.77942e-05
1.37236e-06
4.74578e-08
6.49667e-10
4.3132e-05
0.000171284
0.00094671
0.00310867
0.00724829
0.0135383
0.02157
0.0305266
0.0394779
0.0477171
0.0548981
0.0610259
0.0663755
0.0711513
0.07534
0.0789167
0.0819517
0.0845132
0.0866728
0.0885013
0.0900457
0.0913608
0.0924591
0.0933721
0.094147
0.0948079
0.0953498
0.0957947
0.0961807
0.0964992
0.0967513
0.0969438
0.0971035
0.0973288
0.0977743
0.0979707
0.0949348
0.0832522
0.0677214
0.0450744
0.0124899
0.000622102
5.88477e-06
3.40156e-06
3.82016e-06
3.39318e-06
2.57763e-05
3.51248e-05
4.41081e-06
5.44018e-05
1.44988e-05
5.90374e-07
1.80243e-08
2.3665e-10
4.2801e-05
0.000169923
0.000940401
0.00309763
0.00723969
0.0135368
0.0215734
0.0304851
0.0393833
0.0475902
0.0547589
0.0608842
0.0662308
0.070986
0.0751363
0.0786906
0.0817114
0.0842609
0.0864197
0.0882318
0.0897652
0.0910602
0.0921622
0.0930732
0.0938397
0.0944915
0.0950417
0.095474
0.0958588
0.0961819
0.0964478
0.0966359
0.0967668
0.0969264
0.0972478
0.0976565
0.0966331
0.088975
0.0741504
0.0570233
0.0268891
0.00314978
3.93313e-05
4.08094e-06
1.63516e-06
3.16065e-06
3.92045e-06
3.38119e-05
2.18613e-05
1.39544e-05
5.20183e-05
6.06742e-06
2.36806e-07
6.71373e-09
7.86492e-11
4.25225e-05
0.000168621
0.000933823
0.00308005
0.0072194
0.0135262
0.0215728
0.0304872
0.0393351
0.0474894
0.0546286
0.0607417
0.0660785
0.0708289
0.0749629
0.0784885
0.0814833
0.0840201
0.0861643
0.0879771
0.0894976
0.0907772
0.0918652
0.092781
0.0935468
0.0941969
0.0947223
0.0951806
0.0955688
0.0958938
0.0961455
0.0963589
0.0964641
0.096573
0.0967706
0.0971764
0.0970954
0.0930138
0.0805146
0.0652002
0.0419928
0.0106945
0.000352916
4.58638e-06
2.02799e-06
1.1961e-06
3.68947e-06
5.08093e-06
4.12559e-05
9.96953e-06
3.17072e-05
3.79554e-05
2.32486e-06
8.85245e-08
2.18753e-09
2.39464e-11
4.23231e-05
0.000167565
0.000927567
0.00306165
0.00718478
0.0134958
0.0215604
0.0304863
0.0393322
0.0474349
0.054522
0.0606094
0.0659291
0.070674
0.0748013
0.0783111
0.0812785
0.0837952
0.0859201
0.0877258
0.0892433
0.0905151
0.0915841
0.0924887
0.0932552
0.0938998
0.0944365
0.0948821
0.0952781
0.0956041
0.0958536
0.0960619
0.0962184
0.0962929
0.0963931
0.0966839
0.0969898
0.0952886
0.0862687
0.0715804
0.0540139
0.0236785
0.00233868
1.86195e-05
3.36832e-06
3.84392e-07
1.13532e-06
2.00275e-06
1.66285e-05
3.62669e-05
9.76062e-07
5.16954e-05
2.05487e-05
8.92252e-07
3.0334e-08
6.55318e-10
6.72083e-12
4.22225e-05
0.000166858
0.000922645
0.00304416
0.00714833
0.0134417
0.0215211
0.0304694
0.0393254
0.0474213
0.0544606
0.060496
0.0657915
0.0705149
0.0746421
0.0781428
0.0810959
0.0835861
0.0856979
0.087483
0.0889951
0.0902682
0.0913272
0.0922116
0.0929674
0.0936116
0.0941513
0.0945842
0.0949989
0.0953216
0.09557
0.0957876
0.0959545
0.0960369
0.0960683
0.0962475
0.0966142
0.0961908
0.0908404
0.0776076
0.0623985
0.0382065
0.00844925
0.000205161
5.83605e-06
2.39943e-06
5.10882e-07
1.34411e-06
2.08244e-06
2.75968e-05
2.51642e-05
1.01411e-05
5.37158e-05
8.50036e-06
2.95536e-07
1.02277e-08
1.73123e-10
1.70971e-12
4.21944e-05
0.000166587
0.000919534
0.00303071
0.00711369
0.0133844
0.0214488
0.0304229
0.0393025
0.0474038
0.0544347
0.0604281
0.0656701
0.07037
0.0744776
0.0779712
0.0809202
0.0833983
0.0854932
0.0872583
0.0887525
0.0900182
0.0910834
0.0919616
0.0926954
0.0933233
0.0938669
0.0943113
0.094689
0.0950232
0.0953111
0.0955283
0.0956881
0.0957559
0.0958029
0.0958721
0.0961544
0.0962839
0.0936653
0.0833208
0.0688003
0.0503521
0.019871
0.00150639
1.48141e-05
3.03444e-06
1.51694e-06
6.03859e-07
2.21431e-06
8.86803e-06
3.49949e-05
1.17162e-05
3.0521e-05
4.11013e-05
2.7247e-06
8.99489e-08
2.90898e-09
4.03895e-11
3.78328e-13
4.22037e-05
0.00016661
0.000918799
0.00302261
0.00708764
0.01333
0.0213733
0.0303372
0.039248
0.0473728
0.054406
0.0603882
0.065591
0.0702424
0.0743228
0.0778005
0.0807414
0.0832152
0.0853023
0.087057
0.0885235
0.0897726
0.0908305
0.0917182
0.0924463
0.0930563
0.0935721
0.0940356
0.0944213
0.0947534
0.0950006
0.0952549
0.095397
0.0954981
0.0955295
0.0955629
0.0957362
0.0959692
0.0950209
0.0881609
0.0744139
0.059134
0.033656
0.00616981
0.000143265
9.51421e-06
6.27112e-07
1.64303e-06
1.61075e-06
1.63505e-06
1.50873e-05
3.56954e-05
1.60723e-06
5.20588e-05
2.14857e-05
9.36678e-07
2.32523e-08
7.2619e-10
8.13004e-12
6.63196e-14
4.22103e-05
0.000166774
0.000919598
0.00302192
0.00707292
0.01329
0.0213009
0.0302493
0.0391553
0.0473109
0.0543638
0.0603473
0.0655368
0.0701513
0.0741941
0.0776467
0.0805672
0.083036
0.085111
0.0868649
0.0883226
0.0895412
0.090583
0.0914619
0.0922061
0.0928071
0.0933112
0.0937578
0.0941516
0.0944788
0.0947406
0.0949703
0.0951294
0.0952624
0.0952792
0.0953092
0.0953706
0.095604
0.0953924
0.091508
0.0799523
0.0656072
0.0459351
0.0157086
0.00086295
2.37993e-05
6.42765e-06
5.08179e-07
2.3941e-06
4.29546e-06
9.45648e-07
2.74888e-05
2.41905e-05
1.12818e-05
5.29147e-05
7.92406e-06
2.8253e-07
5.50899e-09
1.55082e-10
1.34132e-12
7.17403e-15
4.21749e-05
0.000166868
0.0009211
0.00302579
0.00707386
0.0132686
0.0212489
0.030165
0.0390604
0.0472137
0.0542935
0.0602939
0.0654816
0.0700821
0.0740975
0.077513
0.0804159
0.082865
0.0849295
0.0866704
0.0881304
0.0893394
0.0903544
0.0912168
0.0919541
0.0925718
0.0930721
0.0934968
0.0938668
0.0941943
0.0944605
0.0946978
0.0948781
0.0950087
0.0950822
0.0950716
0.0950743
0.0952381
0.0953316
0.0935387
0.0849195
0.0710267
0.0552596
0.0283848
0.00411448
6.71689e-05
1.02072e-05
3.18463e-06
9.17089e-07
2.29524e-06
4.65453e-06
5.28085e-06
3.53376e-05
1.0629e-05
3.41811e-05
3.81376e-05
2.12747e-06
7.85383e-08
1.12732e-09
2.79256e-11
1.76943e-13
5.64614e-16
4.20941e-05
0.00016677
0.000922147
0.00303186
0.00708465
0.0132732
0.0212218
0.030104
0.0389694
0.0471165
0.0541939
0.0602167
0.0654197
0.070016
0.074013
0.077413
0.0802726
0.0827077
0.0847581
0.0864813
0.0879344
0.0891451
0.0901497
0.0909956
0.0917099
0.0923264
0.09284
0.0932487
0.0936065
0.0939097
0.0941916
0.094428
0.094634
0.094765
0.0948472
0.0948151
0.0948092
0.0948834
0.0950537
0.0944024
0.0889675
0.076325
0.062054
0.0407049
0.0115241
0.000451126
7.86432e-06
3.9665e-06
2.03944e-06
1.04804e-06
1.08906e-06
1.40503e-06
1.29747e-05
3.08557e-05
2.87619e-06
5.40954e-05
1.73215e-05
5.5281e-07
1.86438e-08
1.91779e-10
3.532e-12
2.11459e-14
4.662e-17
4.19683e-05
0.000166457
0.000922057
0.00303626
0.0071
0.013294
0.0212314
0.0300729
0.0389039
0.047023
0.0540972
0.0601138
0.065338
0.0699432
0.0739353
0.077317
0.0801657
0.0825597
0.0845945
0.0863011
0.0877394
0.0889486
0.089957
0.0907905
0.0914892
0.0920837
0.0925914
0.0930275
0.0933689
0.0936545
0.0939444
0.0941826
0.0943803
0.0944921
0.094605
0.094591
0.0945641
0.0945706
0.0947381
0.0945698
0.0915556
0.0813301
0.0675445
0.0506608
0.0226318
0.00244674
1.98264e-05
2.92791e-06
1.95787e-06
1.71684e-06
1.70552e-06
9.88074e-07
3.07891e-06
2.36253e-05
1.78677e-05
1.64318e-05
4.87064e-05
5.44788e-06
1.20024e-07
3.71891e-09
2.58119e-11
3.93586e-13
2.71975e-15
8.26353e-18
4.17864e-05
0.000165933
0.000920741
0.00303718
0.0071114
0.0133224
0.0212612
0.0300848
0.0388687
0.0469559
0.054002
0.0600161
0.0652292
0.0698547
0.0738508
0.0772235
0.0800646
0.082443
0.0844447
0.0861349
0.0875542
0.0887529
0.0897627
0.0906012
0.0912861
0.0918585
0.0923521
0.0927842
0.0931448
0.0934404
0.0936724
0.093906
0.0941197
0.0942684
0.094336
0.0943649
0.0943333
0.0943015
0.0943895
0.0944465
0.0929994
0.0856422
0.0724531
0.0580469
0.0346819
0.0077011
0.00020998
5.698e-06
1.56321e-06
1.45193e-06
1.19004e-06
1.24404e-06
1.38701e-06
7.51809e-06
3.15355e-05
2.95864e-06
4.2182e-05
2.89671e-05
1.40637e-06
2.28073e-08
5.90931e-10
2.84604e-12
3.79877e-14
2.56432e-16
5.03768e-18
4.1567e-05
0.000165147
0.000918213
0.00303405
0.00711516
0.0133434
0.0213024
0.0301197
0.0388794
0.0469182
0.0539333
0.0599205
0.0651257
0.0697432
0.0737536
0.0771304
0.0799609
0.0823355
0.0843272
0.0859882
0.0873897
0.0885687
0.0895612
0.0904036
0.091093
0.0916564
0.0921256
0.0925285
0.092917
0.0932087
0.0934359
0.0936453
0.0938205
0.0940023
0.0941068
0.0941242
0.0941006
0.0940421
0.0940293
0.0941308
0.0935162
0.0888795
0.0773166
0.0637374
0.0451827
0.0167963
0.0012339
1.8342e-05
3.14503e-06
1.18461e-06
6.13736e-07
2.40769e-07
2.82385e-07
2.85528e-07
1.75441e-05
2.70768e-05
9.2506e-06
5.60816e-05
1.0438e-05
3.23543e-07
3.54208e-09
7.19488e-11
2.05754e-13
4.57792e-15
1.18525e-17
2.14755e-18
4.13215e-05
0.000164218
0.000914165
0.00302708
0.00710988
0.0133515
0.0213323
0.0301676
0.0389126
0.0469235
0.053891
0.0598452
0.0650329
0.0696362
0.0736407
0.0770223
0.0798563
0.0822226
0.0842025
0.0858667
0.087243
0.0884053
0.089375
0.0901956
0.0908966
0.0914647
0.0919288
0.0923033
0.0926578
0.0929727
0.0932274
0.0934177
0.0935825
0.0937392
0.0938514
0.093908
0.0938563
0.0937816
0.0937465
0.0937751
0.0935214
0.0908621
0.0817323
0.0685752
0.0533865
0.0280095
0.00459916
9.20787e-05
7.78549e-06
1.76036e-06
5.94308e-07
4.60623e-07
1.23117e-06
2.00095e-06
1.3095e-06
2.84364e-05
1.24812e-05
2.76196e-05
3.8668e-05
2.1874e-06
6.10358e-08
4.44351e-10
8.2081e-12
1.12043e-14
1.03156e-15
6.22217e-17
5.06088e-18
4.10742e-05
0.00016318
0.000909325
0.00301521
0.00709626
0.0133441
0.0213443
0.0302014
0.0389589
0.0469478
0.0538893
0.059799
0.0649535
0.0695372
0.0735359
0.0769036
0.0797378
0.0821052
0.0840789
0.0857328
0.0871158
0.0882527
0.0892096
0.0900039
0.0906888
0.0912663
0.0917425
0.0921087
0.092442
0.0927393
0.0929836
0.0932144
0.0933724
0.093507
0.0936352
0.0936759
0.0936469
0.0935601
0.0934393
0.0934343
0.0933279
0.0919124
0.0854249
0.0731358
0.0595406
0.0388172
0.0113443
0.000539045
1.96706e-05
4.66344e-06
1.09163e-06
3.93022e-07
7.20162e-07
1.5273e-06
1.2706e-06
1.25252e-05
3.04229e-05
1.21462e-06
4.61319e-05
1.68366e-05
3.94872e-07
9.90035e-09
4.2222e-11
1.00988e-12
1.1429e-15
6.93936e-17
1.00257e-17
2.77479e-19
4.08292e-05
0.000162125
0.000903855
0.00300075
0.00707175
0.0133228
0.0213348
0.0302153
0.0389906
0.0469855
0.0539031
0.0597856
0.0649006
0.0694595
0.0734303
0.0768004
0.0796144
0.0819831
0.0839579
0.0856046
0.0869807
0.0881272
0.089056
0.0898366
0.0904918
0.0910603
0.0915405
0.0919362
0.0922485
0.0925181
0.0927682
0.092994
0.0931775
0.0932948
0.0933934
0.0934498
0.0934555
0.0933538
0.0932189
0.0931316
0.0930445
0.0923103
0.0881477
0.077556
0.0645324
0.0477662
0.0210015
0.00234713
4.6894e-05
8.84334e-06
2.63954e-06
6.58707e-07
9.02839e-08
4.62778e-07
1.22058e-06
3.35578e-07
2.11699e-05
1.77086e-05
1.28393e-05
4.68174e-05
4.24932e-06
6.241e-08
1.2225e-09
2.39105e-12
1.34573e-13
3.36671e-16
3.12226e-17
2.25501e-17
1.01689e-18
4.06026e-05
0.000161101
0.000898281
0.00298426
0.0070416
0.0132829
0.0213065
0.0302022
0.0390003
0.0470087
0.0539282
0.0597876
0.0648761
0.0693954
0.0733477
0.0766966
0.0795108
0.0818597
0.0838334
0.0854798
0.0868476
0.0879875
0.0889262
0.089685
0.0903229
0.090864
0.0913345
0.0917412
0.0920577
0.092326
0.0925146
0.0927533
0.0929394
0.0930938
0.093165
0.0932079
0.0932319
0.0931723
0.0929919
0.092863
0.0927799
0.0924315
0.0899473
0.0814938
0.0689019
0.0547009
0.0315473
0.00677029
0.000206636
1.14315e-05
5.38944e-06
1.97162e-06
1.09852e-06
7.1743e-07
2.83566e-07
9.89247e-07
1.85769e-06
2.45586e-05
1.84004e-06
4.6856e-05
2.24979e-05
8.63257e-07
8.08928e-09
1.33504e-10
1.92346e-13
1.66364e-14
2.62674e-16
5.24136e-17
1.39155e-17
2.53347e-18
4.03995e-05
0.000160161
0.000892833
0.00296722
0.00700643
0.0132336
0.0212517
0.0301677
0.0389826
0.0470128
0.0539398
0.0598013
0.0648658
0.0693658
0.0732818
0.076609
0.0794088
0.0817533
0.0837048
0.0853449
0.0867096
0.0878467
0.088787
0.0895553
0.0901751
0.0906932
0.091139
0.0915241
0.0918682
0.0921286
0.0923364
0.0925149
0.0926958
0.0928655
0.0929636
0.0930188
0.0930049
0.0929684
0.0928168
0.0926339
0.0924879
0.0923458
0.0910212
0.0848899
0.0731231
0.0600854
0.0410995
0.0142375
0.00096123
2.08769e-05
6.60963e-06
2.96465e-06
1.62526e-06
1.45304e-06
9.32789e-07
3.78515e-07
6.71336e-07
9.65054e-06
1.85683e-05
1.16135e-05
4.42661e-05
6.0972e-06
1.30383e-07
8.48557e-10
1.53532e-11
3.0025e-14
2.25723e-15
4.98929e-17
1.57434e-17
2.92457e-18
1.83993e-19
4.02294e-05
0.00015933
0.000887808
0.00295049
0.00697022
0.0131754
0.0211837
0.0301019
0.0389437
0.046989
0.0539365
0.0598014
0.0648701
0.0693483
0.0732416
0.0765408
0.0793206
0.081649
0.0835951
0.0852114
0.0865655
0.0876955
0.0886407
0.0894171
0.090049
0.0905441
0.090963
0.0913211
0.0916469
0.0919396
0.0921731
0.0923311
0.0925071
0.0926556
0.0927801
0.092827
0.0928493
0.0927721
0.0926253
0.0924424
0.0922926
0.0921548
0.0915001
0.08743
0.077176
0.0645989
0.0489279
0.0236753
0.00346804
7.87e-05
5.67486e-06
2.97543e-06
1.42916e-06
1.3315e-06
1.23497e-06
2.34478e-07
5.92114e-07
7.83237e-06
2.72887e-05
8.36859e-06
3.74554e-05
2.77764e-05
9.10702e-07
1.6525e-08
5.64511e-11
2.40647e-12
4.08227e-15
1.63832e-16
7.89026e-18
8.66919e-18
2.04124e-17
8.56875e-19
4.00884e-05
0.000158643
0.000883362
0.00293501
0.00693442
0.0131148
0.0211037
0.0300204
0.0388709
0.0469463
0.0539078
0.0597895
0.0648594
0.069339
0.0732128
0.0764916
0.0792484
0.0815603
0.0834872
0.0850997
0.0864341
0.0875506
0.0884893
0.089267
0.0899085
0.0904206
0.090815
0.0911631
0.0914509
0.0917328
0.0919701
0.0921601
0.0922957
0.0924487
0.0925571
0.092648
0.0926763
0.0925839
0.0924306
0.0922644
0.0920854
0.0919494
0.0916447
0.0891207
0.080827
0.0685794
0.055034
0.0333571
0.00841402
0.000351193
1.33401e-05
3.48143e-06
7.80454e-07
5.05817e-07
6.8933e-07
2.01416e-07
5.08724e-07
9.03046e-07
9.88222e-06
2.15474e-05
7.90833e-06
5.06907e-05
8.08392e-06
1.2141e-07
1.81638e-09
3.17381e-12
3.64314e-13
1.29281e-15
8.61565e-17
4.61757e-17
2.12913e-17
1.05675e-18
8.28383e-20
3.99811e-05
0.00015808
0.000879702
0.0029213
0.006901
0.0130545
0.0210206
0.0299255
0.0387837
0.0468707
0.0538597
0.0597546
0.0648384
0.0693184
0.0731892
0.0764483
0.0791927
0.0814871
0.0833994
0.0849936
0.0863244
0.0874197
0.08834
0.0891139
0.0897532
0.09028
0.09069
0.0910087
0.0912905
0.0915528
0.0917926
0.0919897
0.0921398
0.09226
0.092333
0.0924223
0.0924863
0.0924486
0.0922775
0.0920621
0.0918725
0.0917517
0.0915866
0.0901991
0.083977
0.0724647
0.0598604
0.041935
0.0159192
0.00141131
4.87997e-05
8.83028e-06
1.52348e-06
8.94148e-08
1.23745e-07
1.36633e-07
2.04712e-07
7.09626e-07
5.96984e-07
1.61581e-05
7.98078e-06
3.48441e-05
2.88984e-05
1.30613e-06
1.45754e-08
1.77708e-10
4.74547e-13
4.99922e-14
5.38465e-16
7.5905e-18
1.87578e-18
3.04144e-18
4.28764e-18
1.3498e-19
3.98884e-05
0.00015766