/*--------------------------------*- C++ -*----------------------------------*\
| =========                 |                                                 |
| \\      /  F ield         | OpenFOAM: The Open Source CFD Toolbox           |
|  \\    /   O peration     | Version:  v2012                                 |
|   \\  /    A nd           | Website:  www.openfoam.com                      |
|    \\/     M anipulation  |                                                 |
\*---------------------------------------------------------------------------*/
FoamFile
{
    version     2.0;
    format      ascii;
    class       volScalarField;
    location    "0";
    object      nk;
}
// * * * * * * * * * * * * * * * * * * * * * * * * * * * * * * * * * * * * * //

dimensions      [0 0 0 0 0 0 0];


internalField   nonuniform List<scalar> 
39402
(
0.0482551
0.0533766
0.0028712
0.0534497
0.00132588
0.000579854
0.0540776
0.00113905
0.000230389
0.000193688
0.0546301
0.00236802
0.000166904
9.30611e-05
9.20903e-05
0.0548935
0.00353376
0.00314653
7.09898e-05
5.77306e-05
5.80214e-05
0.0550341
0.00412352
0.00582418
0.00522379
6.05279e-05
4.34069e-05
4.37706e-05
0.0551031
0.0044484
0.00714734
0.00975979
0.0075715
6.55239e-05
3.50473e-05
3.64212e-05
0.0551519
0.00461077
0.00786528
0.011966
0.0140623
0.0099017
7.29639e-05
2.88466e-05
3.18901e-05
0.0551732
0.00472202
0.00821978
0.01315
0.017175
0.0182383
0.0119807
7.89122e-05
2.37482e-05
2.87074e-05
0.0551788
0.00477352
0.00845916
0.0137309
0.0188281
0.0221845
0.0218745
0.0136147
8.16169e-05
1.94816e-05
2.6268e-05
0.0551829
0.00478911
0.00856791
0.0141171
0.0196359
0.0242568
0.0265092
0.0246649
0.0146858
8.09427e-05
1.59777e-05
2.42922e-05
0.0551891
0.00479693
0.00859869
0.0142913
0.0201655
0.0252681
0.0289163
0.0298161
0.0264741
0.0151561
7.79873e-05
1.31747e-05
2.26377e-05
0.0551898
0.00480508
0.00861419
0.0143387
0.0204048
0.0259237
0.0300936
0.0324672
0.0319896
0.0273219
0.0151537
7.35581e-05
1.09365e-05
2.12164e-05
0.0551895
0.00480219
0.00863051
0.0143628
0.020471
0.0262232
0.0308496
0.0337707
0.0348119
0.0331017
0.0273595
0.0147984
6.84204e-05
9.14758e-06
1.99731e-05
0.0551899
0.0047972
0.0086223
0.0143871
0.0205072
0.0263143
0.0312029
0.0346028
0.0362104
0.0360497
0.0332983
0.0268062
0.0141795
6.29119e-05
7.74391e-06
1.88704e-05
0.0551887
0.00479264
0.00860994
0.0143721
0.0205427
0.0263712
0.0313271
0.0350024
0.0371006
0.0375248
0.0363582
0.0328312
0.0258152
0.0133723
5.57602e-05
6.67764e-06
1.78812e-05
0.0551838
0.0047843
0.00859826
0.0143506
0.0205252
0.0264254
0.0314174
0.0351693
0.0375422
0.038463
0.0379071
0.0359779
0.0318679
0.0244947
0.0124384
4.67547e-05
5.89207e-06
1.69857e-05
0.0551794
0.00477067
0.00857821
0.0143295
0.0204981
0.0264164
0.0315019
0.0353033
0.0377569
0.0389434
0.0388915
0.0375914
0.0350921
0.0305329
0.022929
0.011405
3.66044e-05
5.3339e-06
1.61551e-05
0.0551783
0.00475874
0.00854661
0.014295
0.0204712
0.026396
0.0315169
0.0354281
0.0379405
0.0392082
0.0394125
0.0386147
0.0367703
0.0338305
0.028919
0.0211957
0.0101702
2.62805e-05
4.95371e-06
1.53752e-05
0.055179
0.00474971
0.00851927
0.0142419
0.0204257
0.0263737
0.0315193
0.0354822
0.0381115
0.039442
0.039729
0.0391748
0.037832
0.0355765
0.0322901
0.0271008
0.019338
0.00873991
1.72655e-05
4.6859e-06
1.46511e-05
0.0551751
0.00474059
0.00849789
0.0141955
0.0203552
0.0263285
0.0315174
0.0355229
0.0382136
0.0396601
0.0400123
0.0395376
0.0384328
0.0366804
0.0341085
0.0305441
0.025126
0.0173346
0.00720322
1.0546e-05
4.37334e-06
1.40132e-05
0.0551695
0.00472856
0.00847552
0.0141587
0.0202935
0.0262533
0.0314889
0.0355557
0.0383018
0.0398122
0.0402769
0.0398634
0.03884
0.0373238
0.0352606
0.0324414
0.0286427
0.0230269
0.0152223
0.00564123
6.18544e-06
4.09037e-06
1.34958e-05
0.0551664
0.00471596
0.00844737
0.0141199
0.0202444
0.0261885
0.0314279
0.03556
0.0383786
0.0399504
0.0404787
0.0401677
0.0392043
0.0377745
0.03595
0.0336488
0.0306282
0.0266232
0.0208251
0.0130416
0.00414215
3.75053e-06
3.84549e-06
1.31535e-05
0.055166
0.00470604
0.00841851
0.014072
0.020192
0.0261376
0.0313778
0.0355313
0.0384259
0.0400739
0.0406654
0.0404122
0.0395446
0.0381747
0.036444
0.0343879
0.0318999
0.0287083
0.0245084
0.018541
0.0108531
0.00280009
2.50454e-06
3.62401e-06
1.29996e-05
0.0551634
0.00469631
0.0083951
0.0140233
0.0201274
0.0260816
0.0313407
0.0355133
0.038441
0.0401675
0.0408337
0.0406424
0.0398271
0.0385482
0.0368791
0.0349263
0.0326943
0.0300547
0.0267077
0.0223128
0.0162053
0.00874025
0.0016998
1.89696e-06
3.42183e-06
1.29876e-05
0.0551581
0.00468519
0.00837246
0.0139831
0.0200618
0.0260108
0.0312965
0.0355061
0.0384666
0.0402307
0.040972
0.0408531
0.0400952
0.0388654
0.0372832
0.0353953
0.0332795
0.030911
0.0281413
0.0246414
0.0200522
0.0138489
0.00675391
0.000899758
1.58447e-06
3.24783e-06
1.30384e-05
0.0551544
0.00467366
0.00834716
0.0139448
0.0200075
0.0259384
0.0312352
0.0354885
0.0384994
0.0403039
0.0410819
0.041034
0.0403423
0.0391672
0.0376325
0.0358292
0.0337832
0.0315466
0.0290682
0.0261776
0.0225205
0.0177405
0.01151
0.00491494
0.000405382
1.41632e-06
3.10266e-06
1.31405e-05
0.0551529
0.00466338
0.0083207
0.0139021
0.0199556
0.0258792
0.0311721
0.0354529
0.0385193
0.0403806
0.0412008
0.0411878
0.0405593
0.0394462
0.0379645
0.0362081
0.0342459
0.0320866
0.029759
0.0271861
0.0241753
0.0203547
0.0153934
0.00924817
0.00329695
0.000156779
1.31741e-06
2.98913e-06
1.32707e-05
0.0551513
0.00465334
0.00829741
0.0138578
0.0198981
0.0258224
0.031122
0.035415
0.0385201
0.0404416
0.0413199
0.0413494
0.0407504
0.0396956
0.0382726
0.036568
0.0346532
0.0325786
0.0303382
0.0279389
0.0252775
0.0221415
0.0181475
0.0130417
0.00714795
0.00198252
5.46329e-05
1.25439e-06
2.8993e-06
1.34515e-05
0.0551497
0.00464221
0.00827504
0.0138186
0.0198382
0.0257588
0.0310738
0.0353887
0.0385186
0.0404838
0.0414216
0.0415087
0.0409479
0.0399191
0.03855
0.0369018
0.0350388
0.0330138
0.0308608
0.0285616
0.0261007
0.0233507
0.0200792
0.0159092
0.0107313
0.00526931
0.00103676
1.82918e-05
1.21402e-06
2.86031e-06
1.36599e-05
0.0551482
0.00463141
0.00825058
0.0137814
0.0197855
0.0256918
0.0310169
0.035362
0.0385263
0.040523
0.0415041
0.0416485
0.0411407
0.0401476
0.0388022
0.0372049
0.0353965
0.0334238
0.031324
0.0291172
0.0267727
0.0242543
0.0214098
0.0179896
0.0136558
0.00852427
0.00361032
0.000463874
6.27893e-06
1.18581e-06
2.8428e-06
1.38796e-05
0.055145
0.00462235
0.00822705
0.0137411
0.0197359
0.0256333
0.0309562
0.0353258
0.0385311
0.0405688
0.0415834
0.0417694
0.0413126
0.0403696
0.0390582
0.0374828
0.0357229
0.0338041
0.0317579
0.0296091
0.0273648
0.0249825
0.0224044
0.0194541
0.015876
0.0114169
0.006499
0.00222759
0.000180825
2.41973e-06
1.16086e-06
2.82372e-06
1.40807e-05
0.0551404
0.00461236
0.00820739
0.0137028
0.0196819
0.0255783
0.0309043
0.0352851
0.0385254
0.0406096
0.041667
0.0418867
0.0414658
0.0405693
0.0393051
0.0377621
0.0360235
0.034152
0.0321595
0.0300672
0.0278873
0.025615
0.0231968
0.020552
0.0174823
0.0137462
0.00924162
0.00472678
0.0011956
6.42151e-05
1.18476e-06
1.13728e-06
2.80192e-06
1.4244e-05
0.0551364
0.00460125
0.00818645
0.0136707
0.0196309
0.0255181
0.030855
0.0352522
0.038514
0.0406384
0.0417428
0.0420058
0.0416147
0.0407504
0.0395293
0.038031
0.0363232
0.0344731
0.0325279
0.0304899
0.0283704
0.026171
0.0238758
0.0214181
0.0186951
0.0154927
0.0116179
0.00720154
0.00318753
0.000546995
2.16464e-05
7.8531e-07
1.11576e-06
2.78002e-06
1.43715e-05
0.0551345
0.00458972
0.00816301
0.0136373
0.0195887
0.0254614
0.0307993
0.0352205
0.0385094
0.0406612
0.0418061
0.0421148
0.0417635
0.0409266
0.0397346
0.0382766
0.0366117
0.0347913
0.0328681
0.0308781
0.0288148
0.0266805
0.0244679
0.02215
0.0196452
0.0168294
0.0134875
0.00952564
0.00537879
0.00192231
0.000216419
7.1498e-06
6.5174e-07
1.09818e-06
2.76059e-06
1.44852e-05
0.0551341
0.00458126
0.00813955
0.0136003
0.0195449
0.0254149
0.0307473
0.0351808
0.0385037
0.0406887
0.0418626
0.042211
0.0419002
0.0411008
0.0399342
0.0385032
0.0368762
0.0350967
0.0332029
0.0312366
0.0292223
0.0271475
0.0250069
0.0227836
0.0204376
0.0178751
0.0149517
0.0114773
0.00752859
0.00379887
0.00100379
7.71146e-05
2.4373e-06
6.03309e-07
1.08432e-06
2.74648e-06
1.45605e-05
0.055134
0.00457462
0.00812294
0.0135636
0.0194965
0.025367
0.0307058
0.0351443
0.0384885
0.0407127
0.0419224
0.0422996
0.0420236
0.0412617
0.0401303
0.0387226
0.0371209
0.0353779
0.0335235
0.0315868
0.0295988
0.0275753
0.0254973
0.0233543
0.021118
0.0187374
0.0161025
0.0130607
0.00948849
0.00571042
0.00245533
0.00045043
2.55165e-05
9.69408e-07
5.82545e-07
1.07298e-06
2.75083e-06
1.45906e-05
0.055132
0.00456691
0.00811059
0.0135382
0.0194491
0.0253133
0.0306615
0.0351169
0.0384753
0.0407259
0.0419761
0.0423894
0.0421389
0.0414084
0.040312
0.0389373
0.0373575
0.0356387
0.0338199
0.0319215
0.0299634
0.0279692
0.0259461
0.0238706
0.0217246
0.019471
0.0170442
0.0143223
0.0111635
0.0075719
0.00414059
0.00140071
0.000178339
8.04249e-06
5.29914e-07
5.72635e-07
1.06992e-06
2.7818e-06
1.46029e-05
0.0551302
0.00455641
0.00809658
0.0135202
0.0194176
0.0252611
0.0306116
0.0350857
0.0384691
0.0407398
0.0420177
0.0424715
0.042254
0.0415465
0.0404788
0.0391371
0.037589
0.0358904
0.0340951
0.0322315
0.0303115
0.0283484
0.0263584
0.0243416
0.0222697
0.0201178
0.0178389
0.0153527
0.012532
0.00928101
0.00581156
0.00278836
0.000689863
6.45912e-05
2.52071e-06
4.02089e-07
5.68963e-07
1.07352e-06
2.82069e-06
1.46072e-05
0.0551293
0.00454667
0.00807667
0.0135
0.019396
0.0252284
0.0305635
0.0350479
0.0384574
0.0407579
0.0420586
0.0425394
0.0423598
0.0416832
0.0406367
0.0393212
0.0378037
0.0361356
0.0343599
0.0325197
0.0306342
0.0287092
0.0267524
0.0247729
0.0227647
0.0206949
0.0185318
0.0162165
0.0136569
0.0107357
0.00745622
0.00427325
0.00168162
0.00029622
2.19074e-05
8.71267e-07
3.65414e-07
5.67564e-07
1.07781e-06
2.85662e-06
1.46058e-05
0.0551288
0.00453952
0.00805841
0.0134705
0.0193716
0.0252071
0.0305363
0.0350127
0.0384386
0.0407685
0.0421005
0.0426048
0.0424513
0.0418092
0.0407916
0.0394956
0.038003
0.0363639
0.0346173
0.0327963
0.0309345
0.0290442
0.027126
0.0251826
0.0232165
0.0212165
0.0191449
0.0169625
0.0145981
0.0119532
0.00895019
0.00576671
0.00294512
0.000882195
0.000114908
7.04673e-06
4.0667e-07
3.54935e-07
5.67035e-07
1.08175e-06
2.88738e-06
1.46039e-05
0.0551288
0.00453459
0.00804629
0.0134441
0.0193352
0.0251826
0.0305205
0.0349981
0.0384224
0.0407719
0.0421341
0.0426692
0.0425389
0.0419205
0.0409347
0.0396662
0.0381917
0.0365762
0.0348573
0.0330644
0.0312219
0.029356
0.0274731
0.0255691
0.0236427
0.0216911
0.0196964
0.0176169
0.0154045
0.0129773
0.0102437
0.00721439
0.00427723
0.00183877
0.000402351
4.1156e-05
2.21547e-06
2.82622e-07
3.52513e-07
5.66592e-07
1.08399e-06
2.91307e-06
1.46015e-05
0.0551274
0.00452977
0.00803929
0.0134279
0.0193032
0.0251438
0.0305011
0.0349929
0.0384251
0.0407772
0.0421593
0.0427233
0.0426236
0.0420266
0.0410628
0.0398239
0.0383753
0.0367771
0.0350808
0.0333147
0.0314996
0.0296535
0.027796
0.0259283
0.024043
0.0221349
0.0201959
0.0182017
0.0161059
0.0138515
0.0113495
0.00854332
0.00560129
0.00298957
0.00100698
0.000164633
1.3711e-05
7.45394e-07
2.51072e-07
3.52492e-07
5.6644e-07
1.08644e-06
2.93169e-06
1.45987e-05
0.0551254
0.00452133
0.00803259
0.0134203
0.0192856
0.0251105
0.0304658
0.0349831
0.038434
0.0407995
0.0421863
0.042769
0.0426964
0.0421281
0.0411848
0.0399668
0.0385456
0.0369719
0.0352921
0.0335484
0.0317592
0.0299401
0.0281032
0.0262625
0.0244148
0.0225504
0.0206595
0.0187288
0.0167287
0.0146065
0.0122965
0.00971674
0.00689088
0.0041731
0.00190732
0.000480114
6.17674e-05
4.30496e-06
3.2607e-07
2.43422e-07
3.52943e-07
5.69167e-07
1.09055e-06
2.94371e-06
1.4597e-05
0.0551241
0.00451132
0.00801823
0.0134132
0.0192796
0.0250953
0.030437
0.0349567
0.0384371
0.0408239
0.0422277
0.0428154
0.0427606
0.0422166
0.0413009
0.0401023
0.0387007
0.0371529
0.0354969
0.0337687
0.0320018
0.0302083
0.0283982
0.0265793
0.0247607
0.0229356
0.0210909
0.0192146
0.0172871
0.0152726
0.0131123
0.0107358
0.00809263
0.00535576
0.0029372
0.00107508
0.000204908
2.136e-05
1.3273e-06
2.14198e-07
2.42078e-07
3.53324e-07
5.72137e-07
1.09739e-06
2.9495e-06
1.45951e-05
0.0551238
0.00450244
0.00800103
0.0133942
0.0192743
0.0250936
0.0304282
0.0349378
0.0384235
0.040841
0.0422675
0.0428739
0.0428247
0.0422958
0.0414027
0.0402304
0.0388478
0.0373186
0.035687
0.033982
0.0322306
0.030459
0.0286745
0.0268825
0.0250871
0.0232931
0.0214908
0.0196642
0.0177974
0.0158664
0.0138278
0.0116166
0.00917037
0.00651848
0.00399519
0.00189413
0.000529971
8.01755e-05
6.87354e-06
4.54653e-07
1.86424e-07
2.42212e-07
3.54457e-07
5.751e-07
1.10586e-06
2.94921e-06
1.45929e-05
0.055125
0.00449631
0.00798591
0.0133708
0.0192533
0.0250924
0.0304332
0.0349394
0.0384177
0.0408415
0.0422979
0.0429275
0.0428986
0.0423745
0.0414947
0.0403439
0.0389868
0.0374754
0.035862
0.0341799
0.0324511
0.0306951
0.0289328
0.0271665
0.0253989
0.02363
0.0218613
0.0200795
0.0182675
0.0164054
0.0144619
0.0123872
0.0101148
0.00761467
0.00506097
0.00281673
0.00108337
0.000233958
2.88278e-05
2.11202e-06
2.16664e-07
1.8e-07
2.42925e-07
3.55641e-07
5.77019e-07
1.11513e-06
2.94742e-06
1.45908e-05
0.055128
0.00449334
0.00797729
0.013351
0.0192266
0.0250721
0.0304382
0.0349527
0.0384317
0.0408505
0.0423126
0.0429706
0.0429646
0.0424612
0.0415856
0.0404471
0.0391098
0.0376232
0.0360271
0.0343629
0.0326564
0.0309223
0.0291759
0.0274322
0.0256907
0.0239504
0.022209
0.0204643
0.0187003
0.0168981
0.0150328
0.0130673
0.0109447
0.00860942
0.00611402
0.00377091
0.00182126
0.00054335
9.44978e-05
9.59744e-06
6.62442e-07
1.56376e-07
1.78896e-07
2.43982e-07
3.56988e-07
5.78347e-07
1.12057e-06
2.94615e-06
1.45881e-05
0.0551291
0.00449527
0.00797556
0.0133418
0.019205
0.0250459
0.030422
0.0349651
0.0384543
0.040877
0.042335
0.0429978
0.043019
0.0425377
0.0416831
0.0405484
0.0392224
0.0377551
0.0361828
0.0345352
0.0328462
0.0311338
0.0294091
0.0276822
0.0259638
0.0242504
0.0225384
0.0208237
0.0191005
0.0173504
0.0155516
0.0136753
0.011676
0.00949642
0.00711607
0.00473258
0.00265264
0.00104638
0.00024412
3.48702e-05
3.00751e-06
2.52815e-07
1.42297e-07
1.79064e-07
2.45039e-07
3.59251e-07
5.80306e-07
1.12199e-06
2.94525e-06
1.45854e-05
0.0551293
0.00449309
0.00798424
0.0133439
0.019198
0.025026
0.0303999
0.0349552
0.0384742
0.0409084
0.0423735
0.0430331
0.0430578
0.0426016
0.0417686
0.0406545
0.0393327
0.0378756
0.0363218
0.0346976
0.0330247
0.0313299
0.0296265
0.0279212
0.0262202
0.0245306
0.0228466
0.0211635
0.0194733
0.0177675
0.016026
0.0142239
0.0123261
0.0102817
0.00804591
0.0056852
0.00351353
0.00170943
0.000528235
0.000100266
1.18009e-05
9.24659e-07
1.45157e-07
1.39269e-07
1.79617e-07
2.46295e-07
3.61857e-07
5.83726e-07
1.12083e-06
2.94481e-06
1.45827e-05
0.0551276
0.0044891
0.00798404
0.0133624
0.0192062
0.0250243
0.0303854
0.0349402
0.0384716
0.0409353
0.0424126
0.0430812
0.0431042
0.0426499
0.0418406
0.0407476
0.0394465
0.0379934
0.0364495
0.0348429
0.0331928
0.0315141
0.0298282
0.028144
0.0264649
0.024794
0.0231354
0.0214806
0.0198238
0.0181549
0.0164623
0.0147232
0.012909
0.0109788
0.00888102
0.00661112
0.0043783
0.00245644
0.000978905
0.000239498
3.74646e-05
3.7205e-06
3.13062e-07
1.18894e-07
1.38834e-07
1.80443e-07
2.47815e-07
3.63747e-07
5.86468e-07
1.11875e-06
2.94476e-06
1.45806e-05
0.0551246
0.00448054
0.00797997
0.0133667
0.0192366
0.0250404
0.0303908
0.0349333
0.038465
0.04094
0.0424462
0.0431274
0.0431615
0.042705
0.0418969
0.0408268
0.0395462
0.0381137
0.0365732
0.0349767
0.0333439
0.0316874
0.0300175
0.0283511
0.0266929
0.0250443
0.0234054
0.0217774
0.020151
0.0185175
0.0168659
0.0151806
0.0134366
0.0116009
0.00962732
0.00747899
0.00524772
0.00323088
0.00156859
0.000493819
9.92409e-05
1.2786e-05
1.12624e-06
1.46453e-07
1.13e-07
1.39096e-07
1.81556e-07
2.49394e-07
3.64829e-07
5.8734e-07
1.1172e-06
2.94464e-06
1.45785e-05
0.0551224
0.00446933
0.0079657
0.0133647
0.0192473
0.0250826
0.0304151
0.0349471
0.0384673
0.0409422
0.0424567
0.0431658
0.0432137
0.0427693
0.0419592
0.0408905
0.0396314
0.0382189
0.0366989
0.0351063
0.0334833
0.0318439
0.0301956
0.0285449
0.0269051
0.0252774
0.0236612
0.0220546
0.0204565
0.0188556
0.0172421
0.0156024
0.0139185
0.0121614
0.010293
0.00826936
0.00610305
0.00401419
0.00223634
0.000888824
0.000224438
3.73489e-05
4.04708e-06
3.57573e-07
1.0445e-07
1.11897e-07
1.39495e-07
1.82743e-07
2.51466e-07
3.66011e-07
5.85837e-07
1.11646e-06
2.94444e-06
1.4577e-05
0.0551209
0.00445933
0.0079456
0.0133466
0.01925
0.0251003
0.0304668
0.0349788
0.0384893
0.040953
0.0424668
0.0431819
0.0432563
0.0428261
0.0420295
0.0409587
0.039701
0.0383097
0.0368096
0.0352366
0.0336171
0.031988
0.0303565
0.0287274
0.0271036
0.0254947
0.0239
0.0223171
0.020742
0.0191711
0.017592
0.0159939
0.0143607
0.0126708
0.0108907
0.00897989
0.00691314
0.00481068
0.00293719
0.00140662
0.000444713
9.31146e-05
1.28124e-05
1.21958e-06
1.4684e-07
9.47443e-08
1.11865e-07
1.40232e-07
1.84129e-07
2.53405e-07
3.66684e-07
5.83577e-07
1.11629e-06
2.94434e-06
1.45757e-05
0.0551206
0.00445061
0.00792823
0.0133187
0.0192302
0.0251085
0.0304905
0.0350367
0.038527
0.0409825
0.0424859
0.0431987
0.043278
0.0428725
0.0420905
0.0410339
0.0397746
0.0383846
0.0369052
0.0353515
0.0337517
0.0321259
0.0305052
0.0288928
0.0272901
0.0256978
0.0241225
0.0225616
0.0210113
0.0194652
0.0179183
0.0163573
0.0147697
0.0131366
0.0114321
0.00961849
0.00766158
0.00559582
0.00365115
0.00200528
0.000783397
0.000200969
3.49676e-05
4.06769e-06
3.76572e-07
9.34786e-08
9.28474e-08
1.12139e-07
1.41207e-07
1.85686e-07
2.54479e-07
3.6665e-07
5.81871e-07
1.11626e-06
2.94437e-06
1.45744e-05
0.0551215
0.00444492
0.0079138
0.013295
0.0191974
0.0250893
0.0305033
0.0350641
0.0385872
0.0410242
0.0425212
0.0432241
0.0433
0.0428987
0.0421402
0.0410987
0.039854
0.0384624
0.036985
0.0354518
0.0338711
0.0322641
0.0306473
0.0290458
0.02746
0.0258886
0.02433
0.0227895
0.0212617
0.0197416
0.018222
0.0166957
0.0151478
0.0135649
0.0119246
0.0101958
0.00834002
0.00634966
0.00437402
0.00263886
0.00123657
0.000386025
8.28189e-05
1.19236e-05
1.2246e-06
1.43928e-07
8.11297e-08
9.26243e-08
1.12732e-07
1.42361e-07
1.87239e-07
2.55042e-07
3.64681e-07
5.81014e-07
1.11634e-06
2.94453e-06
1.45745e-05
0.0551237
0.00444315
0.00790559
0.0132759
0.0191702
0.0250551
0.0304869
0.0350801
0.0386153
0.0410839
0.0425657
0.0432644
0.0433306
0.0429251
0.0421698
0.0411512
0.039922
0.0385456
0.0370668
0.0355359
0.0339754
0.0323875
0.0307884
0.0291911
0.0276169
0.0260624
0.0245252
0.0230019
0.0214951
0.0199988
0.0185069
0.0170099
0.0154995
0.0139599
0.0123751
0.010719
0.00895576
0.00705725
0.00509053
0.00328643
0.00176804
0.000673343
0.000172571
3.06728e-05
3.75409e-06
3.72256e-07
8.45347e-08
7.85689e-08
9.28565e-08
1.13205e-07
1.4367e-07
1.889e-07
2.54851e-07
3.62419e-07
5.80778e-07
1.11648e-06
2.94472e-06
1.45747e-05
0.0551269
0.00444534
0.00790516
0.0132672
0.0191495
0.0250277
0.0304544
0.0350662
0.0386327
0.0411109
0.0426232
0.0433102
0.0433751
0.0429591
0.0421996
0.041184
0.0399773
0.0386168
0.0371532
0.0356211
0.0340634
0.0324956
0.0309152
0.0293355
0.0277657
0.0262233
0.0247033
0.0232012
0.0217128
0.0202382
0.0187711
0.0173038
0.0158256
0.0143264
0.0127893
0.0111954
0.00951334
0.00770857
0.0057916
0.00393819
0.00233726
0.00106342
0.000325913
7.00607e-05
1.03007e-05
1.11754e-06
1.36298e-07
7.05661e-08
7.82332e-08
9.29443e-08
1.141e-07
1.45064e-07
1.89775e-07
2.54088e-07
3.60847e-07
5.80808e-07
1.11659e-06
2.9449e-06
1.45749e-05
0.0551299
0.00444944
0.00791376
0.0132704
0.0191423
0.0250085
0.0304304
0.0350385
0.038621
0.0411277
0.042648
0.0433648
0.0434214
0.0430066
0.0422369
0.0412169
0.040013
0.0386746
0.0372272
0.03571
0.0341513
0.0325873
0.031027
0.0294655
0.0279127
0.0263756
0.024868
0.0233835
0.0219167
0.0204616
0.0190176
0.017576
0.0161296
0.0146657
0.0131729
0.0116315
0.0100193
0.00830227
0.00645993
0.00459434
0.00292162
0.00152837
0.000563851
0.000143759
2.5489e-05
3.19534e-06
3.35012e-07
7.60048e-08
6.76617e-08
7.82408e-08
9.33787e-08
1.15096e-07
1.4643e-07
1.90093e-07
2.51795e-07
3.60171e-07
5.80914e-07
1.11674e-06
2.94522e-06
1.4576e-05
0.0551314
0.00445264
0.00792592
0.0132879
0.0191516
0.0250054
0.030416
0.0350205
0.0385989
0.0411177
0.0426632
0.0433869
0.0434734
0.0430535
0.0422865
0.041257
0.040049
0.0387137
0.037288
0.0357871
0.0342429
0.0326781
0.0311224
0.029581
0.0280459
0.0265254
0.0250238
0.0235528
0.0221035
0.0206702
0.0192466
0.01783
0.016411
0.0149813
0.0135268
0.0120339
0.0104808
0.00884078
0.00708474
0.00524353
0.00351195
0.00203602
0.000891089
0.000267651
5.71535e-05
8.41995e-06
9.39039e-07
1.20863e-07
6.19063e-08
6.71885e-08
7.85362e-08
9.39346e-08
1.16219e-07
1.47649e-07
1.89336e-07
2.49765e-07
3.60032e-07
5.81059e-07
1.11698e-06
2.94561e-06
1.45779e-05
0.0551319
0.00445452
0.00793607
0.0133112
0.0191794
0.025022
0.0304191
0.0350132
0.0385879
0.0411011
0.042654
0.0434004
0.0434931
0.043103
0.042334
0.0413079
0.0400912
0.0387522
0.0373298
0.0358505
0.0343225
0.0327718
0.0312161
0.0296798
0.0281647
0.0266615
0.0251763
0.0237118
0.0222769
0.020862
0.0194607
0.0180657
0.0166729
0.0152725
0.0138546
0.0124044
0.010905
0.00933113
0.00765524
0.00587191
0.0041119
0.00256331
0.0012915
0.000458207
0.000115738
2.03225e-05
2.57444e-06
2.80147e-07
6.68727e-08
5.89499e-08
6.73268e-08
7.88341e-08
9.46426e-08
1.17349e-07
1.48141e-07
1.87925e-07
2.48588e-07
3.60089e-07
5.8122e-07
1.11723e-06
2.94606e-06
1.45801e-05
0.0551315
0.00445312
0.00794271
0.013331
0.019215
0.0250605
0.0304434
0.0350233
0.0385884
0.0410971
0.0426421
0.0433921
0.0435049
0.0431212
0.0423818
0.0413559
0.0401435
0.038796
0.0373703
0.035895
0.0343887
0.0328539
0.0313116
0.0297762
0.0282673
0.0267838
0.0253155
0.0238671
0.0224396
0.0210403
0.019658
0.0182857
0.0169157
0.0155433
0.0141568
0.0127463
0.0112941
0.00978032
0.00817666
0.00646444
0.00470823
0.00310127
0.00174115
0.000725533
0.000212462
4.46913e-05
6.57259e-06
7.48477e-07
1.02404e-07
5.43849e-08
5.85223e-08
6.74785e-08
7.91853e-08
9.55796e-08
1.18526e-07
1.48141e-07
1.8567e-07
2.48227e-07
3.60205e-07
5.81405e-07
1.11753e-06
2.94679e-06
1.45832e-05
0.0551302
0.00445022
0.00794238
0.0133444
0.0192454
0.0251073
0.0304904
0.0350544
0.0386056
0.041105
0.0426439
0.0433838
0.0434969
0.0431313
0.0423987
0.0414028
0.0401919
0.0388495
0.0374157
0.0359377
0.0344361
0.032923
0.0313964
0.0298736
0.0283659
0.0268897
0.0254412
0.0240094
0.022598
0.021207
0.0198409
0.0184886
0.0171424
0.0157942
0.0144376
0.013061
0.0116522
0.0101911
0.00865396
0.00701501
0.00529282
0.00364395
0.00221633
0.00106482
0.000360792
8.92248e-05
1.54254e-05
1.97011e-06
2.23513e-07
5.81143e-08
5.18328e-08
5.85382e-08
6.77131e-08
7.96598e-08
9.66638e-08
1.19424e-07
1.46795e-07
1.84128e-07
2.4821e-07
3.60342e-07
5.81611e-07
1.11787e-06
2.94757e-06
1.4586e-05
0.0551277
0.00444471
0.00793791
0.0133465
0.0192667
0.0251471
0.0305453
0.0351069
0.0386421
0.0411278
0.042658
0.0433898
0.0434916
0.0431233
0.0424076
0.0414192
0.0402383
0.0388987
0.0374706
0.0359846
0.034481
0.0329734
0.0314682
0.0299608
0.0284653
0.0269911
0.0255506
0.0241385
0.0227436
0.0213684
0.0200122
0.0186769
0.0173516
0.0160279
0.0146978
0.0133527
0.0119808
0.0105673
0.00908922
0.00752089
0.00585329
0.00419031
0.00270435
0.00145712
0.000573932
0.000162543
3.32294e-05
4.85093e-06
5.64291e-07
8.42125e-08
4.80023e-08
5.14275e-08
5.86956e-08
6.7851e-08
8.0386e-08
9.76097e-08
1.19502e-07
1.4509e-07
1.83489e-07
2.48297e-07
3.60501e-07
5.81833e-07
1.11828e-06
2.94846e-06
1.45906e-05
0.0551253
0.00443706
0.00792778
0.0133416
0.0192722
0.0251753
0.0305913
0.0351659
0.0386969
0.0411683
0.0426848
0.0434091
0.0435008
0.0431203
0.0423997
0.0414274
0.0402549
0.0389447
0.0375204
0.0360405
0.0345293
0.0330203
0.0315212
0.0300352
0.0285549
0.0270924
0.0256544
0.0242515
0.022876
0.0215173
0.020177
0.0188531
0.017546
0.016244
0.0149395
0.0136229
0.0122849
0.0109118
0.00948675
0.00798317
0.00638255
0.00473001
0.00319617
0.00188157
0.000854099
0.000275672
6.56881e-05
1.10847e-05
1.41821e-06
1.69499e-07
5.01546e-08
4.59543e-08
5.15015e-08
5.88229e-08
6.82264e-08
8.11753e-08
9.86125e-08
1.19189e-07
1.43264e-07
1.83389e-07
2.48419e-07
3.60666e-07
5.82085e-07
1.11872e-06
2.94954e-06
1.45955e-05
0.0551222
0.00442848
0.00791278
0.0133274
0.019268
0.0251847
0.030624
0.0352135
0.0387558
0.0412224
0.0427273
0.0434389
0.0435238
0.0431321
0.0423984
0.0414196
0.0402628
0.0389619
0.0375667
0.0360913
0.0345865
0.0330702
0.0315704
0.0300914
0.0286321
0.0271844
0.025758
0.0243582
0.0229931
0.0216533
0.0203294
0.0190219
0.0177275
0.0164453
0.0151634
0.0138737
0.0125664
0.0112302
0.00984966
0.00840487
0.00687078
0.00525812
0.0036919
0.00231934
0.00118903
0.000440714
0.000119943
2.34904e-05
3.3811e-06
4.0027e-07
6.74244e-08
4.25434e-08
4.56845e-08
5.16336e-08
5.9042e-08
6.86644e-08
8.21107e-08
9.90318e-08
1.17244e-07
1.42401e-07
1.83455e-07
2.48549e-07
3.6086e-07
5.82359e-07
1.11919e-06
2.95086e-06
1.46009e-05
0.0551198
0.00441953
0.00789589
0.0133049
0.0192508
0.0251817
0.0306357
0.035247
0.0388008
0.0412784
0.0427795
0.0434828
0.0435565
0.0431569
0.0424118
0.0414194
0.0402557
0.0389703
0.0375853
0.0361385
0.0346382
0.0331281
0.0316217
0.0301429
0.0286915
0.0272641
0.0258522
0.0244636
0.0231026
0.0217741
0.0204695
0.019178
0.0179005
0.0166327
0.0153718
0.0141061
0.0128273
0.0115244
0.0101845
0.00878897
0.00731768
0.00575879
0.00418821
0.00276399
0.00155979
0.000663871
0.000204171
4.62841e-05
7.55894e-06
9.63849e-07
1.22914e-07
4.31473e-08
4.10711e-08
4.57501e-08
5.17918e-08
5.92345e-08
6.9359e-08
8.27958e-08
9.83373e-08
1.15564e-07
1.42204e-07
1.83554e-07
2.48689e-07
3.61071e-07
5.82685e-07
1.11978e-06
2.95239e-06
1.46073e-05
0.0551172
0.00441116
0.00787788
0.0132792
0.0192222
0.0251632
0.0306343
0.0352591
0.0388322
0.0413185
0.0428315
0.0435321
0.0436005
0.0431911
0.0424384
0.041434
0.0402568
0.0389643
0.0375945
0.0361591
0.0346866
0.0331809
0.0316806
0.0301955
0.0287453
0.0273266
0.0259346
0.0245601
0.0232103
0.0218868
0.0205941
0.019322
0.0180609
0.0168106
0.0155655
0.0143222
0.013069
0.0117967
0.0104932
0.00914283
0.00772514
0.00622639
0.00467158
0.00321161
0.00195031
0.000940145
0.00032746
8.50175e-05
1.58332e-05
2.23497e-06
2.70102e-07
5.33463e-08
3.79024e-08
4.0892e-08
4.58788e-08
5.19313e-08
5.95739e-08
7.00955e-08
8.32494e-08
9.74986e-08
1.14491e-07
1.4224e-07
1.83668e-07
2.48851e-07
3.6129e-07
5.83035e-07
1.12046e-06
2.95408e-06
1.46143e-05
0.0551154
0.00440383
0.00786072
0.0132514
0.0191892
0.0251307
0.0306156
0.0352584
0.0388426
0.0413454
0.0428657
0.0435796
0.0436477
0.0432355
0.0424731
0.0414617
0.0402718
0.0389664
0.0375898
0.0361694
0.0347092
0.0332309
0.0317348
0.0302554
0.0287994
0.0273831
0.0260005
0.0246455
0.023309
0.0219967
0.0207103
0.0194508
0.0182091
0.0169752
0.0157489
0.0145233
0.013294
0.0120488
0.0107784
0.00946845
0.00810021
0.00665529
0.00513859
0.00365919
0.00235133
0.00125678
0.000497692
0.000145555
3.11381e-05
4.90152e-06
6.22537e-07
8.70152e-08
3.73253e-08
3.69291e-08
4.09649e-08
4.59988e-08
5.21354e-08
6.01604e-08
7.09078e-08
8.35091e-08
9.5608e-08
1.14211e-07
1.42328e-07
1.83797e-07
2.49025e-07
3.61537e-07
5.8342e-07
1.12118e-06
2.95602e-06
1.4622e-05
0.055114
0.00439753
0.00784574
0.0132245
0.0191531
0.0250929
0.030582
0.0352403
0.0388417
0.041353
0.0428875
0.0436084
0.0436915
0.0432804
0.0425178
0.0414971
0.0403002
0.0389817
0.0375927
0.036166
0.0347211
0.033256
0.0317863
0.0303109
0.0288604
0.0274388
0.0260595
0.0247146
0.0233972
0.0220984
0.0208228
0.019571
0.0183427
0.0171285
0.0159188
0.014713
0.0135032
0.0122835
0.0110423
0.00976852
0.00844519
0.00705227
0.00557962
0.0041008
0.00275464
0.00160111
0.000716871
0.000234415
5.73762e-05
1.01512e-05
1.40152e-06
1.75414e-07
4.25669e-08
3.39833e-08
3.68388e-08
4.10632e-08
4.61611e-08
5.24066e-08
6.08364e-08
7.15308e-08
8.21255e-08
9.45494e-08
1.14224e-07
1.42429e-07
1.83935e-07
2.49212e-07
3.6181e-07
5.83859e-07
1.12201e-06
2.95815e-06
1.46307e-05
0.0551135
0.00439282
0.00783265
0.0132012
0.019118
0.0250518
0.0305431
0.0352084
0.0388247
0.0413516
0.0428916
0.043625
0.0437151
0.043321
0.0425608
0.0415416
0.0403357
0.0390103
0.0376079
0.03617
0.0347196
0.0332698
0.031814
0.0303642
0.0289171
0.0275009
0.0261171
0.0247763
0.0234699
0.0221893
0.0209269
0.0196862
0.0184667
0.0172667
0.0160767
0.0148884
0.0136993
0.0125015
0.0112878
0.0100456
0.00876194
0.00741758
0.00599547
0.00452982
0.00315535
0.001958
0.000979823
0.00035902
9.90483e-05
1.9848e-05
3.01184e-06
3.82566e-07
6.14332e-08
3.26754e-08
3.34105e-08
3.69051e-08
4.11928e-08
4.62177e-08
5.2725e-08
6.14596e-08
7.13262e-08
8.08427e-08
9.42001e-08
1.14304e-07
1.42544e-07
1.84085e-07
2.49418e-07
3.6211e-07
5.84355e-07
1.12298e-06
2.96063e-06
1.464e-05
0.0551129
0.0043896
0.00782296
0.0131808
0.0190878
0.0250117
0.0305014
0.0351723
0.0387963
0.0413351
0.0428889
0.0436253
0.0437273
0.0433405
0.0425985
0.0415832
0.0403802
0.0390461
0.0376368
0.0361855
0.0347245
0.0332703
0.0318304
0.0303947
0.0289721
0.0275587
0.0261802
0.0248359
0.0235346
0.0222656
0.0210209
0.019793
0.0185851
0.0173949
0.0162201
0.0150518
0.013881
0.0127052
0.0115154
0.0103031
0.00905424
0.00775323
0.00638157
0.00494622
0.0035535
0.00231922
0.00127379
0.000525713
0.000160937
3.66449e-05
6.14887e-06
8.31054e-07
1.10745e-07
3.47332e-08
3.07126e-08
3.3388e-08
3.70207e-08
4.12628e-08
4.64211e-08
5.33e-08
6.20058e-08
7.09227e-08
7.96664e-08
9.42016e-08
1.14398e-07
1.42664e-07
1.84248e-07
2.49645e-07
3.62445e-07
5.84907e-07
1.12406e-06
2.96347e-06
1.46506e-05
0.0551128
0.0043877
0.00781661
0.0131658
0.0190609
0.0249776
0.0304611
0.0351339
0.0387653
0.041311
0.0428731
0.0436214
0.0437245
0.0433493
0.0426151
0.0416191
0.0404208
0.0390904
0.0376727
0.0362142
0.03474
0.0332764
0.0318333
0.0304135
0.0290056
0.0276157
0.0262392
0.0249002
0.0235957
0.0223332
0.0211007
0.0198904
0.0186949
0.0175168
0.016353
0.0152007
0.0140501
0.0128935
0.0117275
0.0105416
0.00932536
0.00806292
0.00673724
0.00534176
0.00394713
0.00267879
0.00158676
0.000733519
0.00024914
6.38914e-05
1.19502e-05
1.74467e-06
2.24089e-07
4.4133e-08
2.90355e-08
3.04181e-08
3.34818e-08
3.71011e-08
4.14286e-08
4.68052e-08
5.39474e-08
6.2281e-08
6.92532e-08
7.93205e-08
9.42724e-08
1.145e-07
1.42798e-07