/*--------------------------------*- C++ -*----------------------------------*\
| =========                 |                                                 |
| \\      /  F ield         | OpenFOAM: The Open Source CFD Toolbox           |
|  \\    /   O peration     | Version:  v2012                                 |
|   \\  /    A nd           | Website:  www.openfoam.com                      |
|    \\/     M anipulation  |                                                 |
\*---------------------------------------------------------------------------*/
FoamFile
{
    version     2.0;
    format      ascii;
    class       volScalarField;
    location    "0";
    object      nu;
}
// * * * * * * * * * * * * * * * * * * * * * * * * * * * * * * * * * * * * * //

dimensions      [0 2 -1 0 0 0 0];


internalField   nonuniform List<scalar> 
39402
(
0.000634164
0.000482238
0.000703702
0.000558565
0.000574947
0.000661927
0.000578581
0.000628373
0.000648505
0.000587879
0.000597702
0.000650704
0.000689397
0.000704211
0.000509369
0.000604063
0.000676954
0.000714659
0.000742384
0.000743111
0.000435953
0.000604663
0.000688358
0.000746802
0.000771141
0.000787739
0.00076567
0.000371643
0.000606148
0.00069173
0.000762351
0.000808056
0.000820462
0.000825569
0.000772545
0.000316464
0.000604642
0.000694819
0.000767982
0.00082693
0.000861014
0.000862602
0.000855709
0.000764495
0.000269588
0.000603802
0.00069406
0.00077237
0.000834361
0.000882387
0.000905594
0.000897336
0.000877778
0.000742586
0.000230027
0.000603618
0.000693407
0.000772233
0.000839788
0.00089118
0.00092863
0.000941584
0.000924364
0.000891159
0.00070813
0.000196511
0.000603818
0.000693121
0.000771687
0.000840169
0.000897384
0.000938336
0.000965456
0.000968847
0.000943408
0.000895068
0.000662945
0.000168092
0.000603405
0.000693011
0.000771308
0.000839718
0.000898208
0.000945071
0.000975655
0.000992851
0.000987465
0.000954224
0.000888672
0.000609196
0.000143992
0.000603437
0.000692171
0.000770988
0.000839323
0.000897884
0.000946269
0.000982685
0.0010032
0.00101113
0.000997721
0.00095643
0.000871069
0.000549341
0.000123416
0.000603534
0.000691724
0.000769827
0.000838895
0.000897559
0.000946103
0.000984191
0.00101033
0.0010214
0.00102085
0.000999814
0.000949423
0.000841561
0.00048613
0.000105804
0.000603368
0.000691309
0.000769002
0.000837535
0.000897147
0.000945956
0.000984222
0.00101213
0.00102852
0.00103099
0.00102265
0.000993885
0.000932427
0.000799747
0.000422398
9.06956e-05
0.000603243
0.000690607
0.000768186
0.000836469
0.000895737
0.000945704
0.000984368
0.00101237
0.00103061
0.00103806
0.00103276
0.00101694
0.000979942
0.000904986
0.000745766
0.000360703
7.7724e-05
0.000603539
0.00068994
0.000767061
0.00083539
0.000894582
0.000944397
0.000984414
0.00101292
0.00103109
0.00104045
0.00103983
0.00102735
0.00100402
0.000957658
0.000866804
0.000680662
0.00030322
6.65376e-05
0.000603844
0.000689707
0.000765954
0.000833976
0.000893398
0.00094332
0.000983381
0.00101339
0.00103213
0.00104123
0.00104257
0.0010346
0.00101523
0.000984198
0.000927066
0.00081864
0.000606403
0.000251125
5.67569e-05
0.000603829
0.000689464
0.000765276
0.000832568
0.000891854
0.000942215
0.000982546
0.00101277
0.00103313
0.00104283
0.00104373
0.00103779
0.00102294
0.000996822
0.000957585
0.00088841
0.000761903
0.000526093
0.000205296
4.82263e-05
0.000603692
0.000688897
0.000764601
0.00083158
0.000890299
0.000940713
0.000981692
0.00101234
0.00103304
0.00104444
0.00104597
0.00103948
0.00102673
0.00100534
0.000972508
0.000924499
0.000842469
0.000697466
0.000443954
0.000165045
4.10132e-05
0.000603733
0.000688213
0.000763601
0.000830603
0.000889157
0.000939184
0.000980409
0.00101189
0.00103314
0.00104497
0.00104824
0.00104241
0.00102912
0.00101
0.000982271
0.000942615
0.000885198
0.00078957
0.000626191
0.000364679
0.000132585
3.52778e-05
0.00060388
0.000687731
0.000762483
0.000829296
0.000888036
0.000938061
0.000979079
0.00101099
0.00103324
0.0010457
0.00104949
0.00104543
0.00103283
0.00101324
0.000988106
0.000954167
0.000907411
0.000839842
0.000729617
0.000549593
0.00029255
0.000106799
3.103e-05
0.000603887
0.000687385
0.000761567
0.000827867
0.000886569
0.000936964
0.000978155
0.00101001
0.00103284
0.00104644
0.00105091
0.00104744
0.00103666
0.00101781
0.000992362
0.000961523
0.000921395
0.000867122
0.00078852
0.000663073
0.000469611
0.000230498
8.60369e-05
2.84907e-05
0.000603808
0.000686884
0.000760812
0.000826638
0.000884968
0.0009355
0.000977252
0.00100945
0.00103235
0.00104664
0.00105236
0.00104964
0.00103952
0.00102253
0.000997925
0.000967002
0.000930667
0.000884247
0.000821909
0.000731413
0.000591233
0.000388941
0.000179201
6.92316e-05
2.73068e-05
0.000603803
0.00068629
0.000759901
0.000825573
0.000883565
0.000933876
0.000975955
0.0010089
0.00103227
0.00104675
0.00105324
0.00105185
0.00104254
0.00102631
0.00100361
0.000973692
0.00093762
0.000895895
0.00084298
0.000771914
0.000668869
0.000516476
0.000311006
0.000138193
5.63605e-05
2.68764e-05
0.00060392
0.000685805
0.000758893
0.000824362
0.000882322
0.000932449
0.000974468
0.00100792
0.00103221
0.00104725
0.00105401
0.00105346
0.00104558
0.00103022
0.00100836
0.000980418
0.000945591
0.000904618
0.000857509
0.000797778
0.000717259
0.000601505
0.000441031
0.000239768
0.000106392
4.72522e-05
2.67461e-05
0.000603955
0.000685468
0.000758021
0.000823064
0.000880939
0.000931173
0.000973169
0.00100672
0.00103166
0.00104777
0.00105517
0.00105496
0.00104799
0.00103414
0.00101321
0.000986215
0.000953455
0.000914043
0.000868334
0.000815755
0.000748764
0.000658101
0.000530305
0.000365495
0.000178987
8.28858e-05
4.07168e-05
2.68819e-05
0.000603968
0.000685074
0.000757312
0.000821895
0.000879466
0.000929754
0.000972014
0.00100568
0.00103087
0.00104776
0.00105633
0.00105682
0.00105025
0.00103738
0.00101804
0.000992044
0.000960355
0.000923152
0.000879422
0.000829061
0.000770808
0.00069603
0.000594738
0.000456789
0.000291166
0.000131484
6.59658e-05
3.62136e-05
2.71935e-05
0.000604047
0.000684664
0.000756561
0.000820908
0.000878124
0.000928244
0.000970703
0.00100479
0.00103022
0.00104746
0.00105692
0.00105867
0.00105287
0.00104046
0.00102216
0.000997825
0.000967209
0.000931227
0.000889907
0.000842052
0.000787017
0.000722779
0.000639648
0.000527767
0.000383509
0.000221726
9.76158e-05
5.41245e-05
3.28575e-05
2.78198e-05
0.000604134
0.000684299
0.000755801
0.000819893
0.000876967
0.000926851
0.000969283
0.00100372
0.00102971
0.0010473
0.00105719
0.00105992
0.00105545
0.00104386
0.00102609
0.00100285
0.000973971
0.000939154
0.000899232
0.000854057
0.000802192
0.000742362
0.000671727
0.000579752
0.000458285
0.000313044
0.000161801
7.50729e-05
4.5753e-05
3.03534e-05
2.86452e-05
0.000604048
0.000683982
0.00075509
0.000818878
0.000875787
0.000925648
0.000967974
0.00100252
0.00102899
0.00104726
0.00105759
0.00106081
0.00105741
0.00104722
0.00103031
0.00100766
0.000979934
0.000946927
0.000908289
0.000864728
0.000815893
0.000760033
0.000695193
0.000617684
0.000516667
0.000388035
0.000246039
0.000115311
6.04327e-05
3.98157e-05
2.85991e-05
2.95389e-05
0.00060398
0.00068351
0.000754451
0.000817924
0.000874614
0.00092442
0.000966846
0.00100141
0.00102811
0.00104698
0.00105807
0.0010618
0.00105896
0.0010499
0.00103446
0.00101272
0.000985643
0.000953846
0.000917103
0.000874973
0.000828018
0.000775641
0.000715719
0.000645553
0.000560714
0.000451119
0.000319485
0.000184033
8.32565e-05
5.07295e-05
3.55685e-05
2.75102e-05
3.0303e-05
0.000604083
0.00068307
0.000753671
0.000817049
0.000873516
0.000923192
0.000965687
0.00100048
0.00102732
0.00104651
0.00105831
0.00106287
0.00106059
0.00105217
0.00103792
0.00101768
0.000991549
0.000960473
0.000925003
0.000884869
0.000839526
0.000789362
0.000733479
0.000669332
0.000593457
0.000501005
0.000384465
0.000255308
0.000131272
6.33396e-05
4.40106e-05
3.25348e-05
2.69677e-05
3.08189e-05
0.00060433
0.00068282
0.000752935
0.00081604
0.000872501
0.000922054
0.000964524
0.000999507
0.00102669
0.00104611
0.00105831
0.00106366
0.00106228
0.00105447
0.00104091
0.00102191
0.000997326
0.00096724
0.000932562
0.000893777
0.000850551
0.00080222
0.000748957
0.000689525
0.000620904
0.000538927
0.000439044
0.00031884
0.000196095
9.15992e-05
5.14987e-05
3.91032e-05
3.06567e-05
2.6751e-05
3.11447e-05
0.000604391
0.000682724
0.000752397
0.000815085
0.00087135
0.000920994
0.000963445
0.000998513
0.001026
0.00104585
0.00105836
0.00106417
0.00106366
0.00105681
0.00104391
0.00102566
0.00100235
0.000973834
0.000940195
0.000902282
0.000860497
0.00081443
0.000763272
0.000706952
0.00064385
0.000570439
0.000482076
0.000375813
0.000256797
0.000142941
6.57711e-05
4.41588e-05
3.55076e-05
2.96034e-05
2.67607e-05
3.15017e-05
0.000604225
0.000682462
0.000752049
0.000814337
0.000870258
0.000919792
0.000962442
0.000997593
0.00102525
0.00104551
0.00105853
0.00106472
0.00106473
0.00105881
0.00104692
0.00102938
0.00100686
0.000979656
0.000947614
0.000910787
0.000869968
0.000825454
0.000776738
0.000722855
0.000663447
0.000596481
0.000517941
0.000423248
0.000313046
0.00019996
9.97395e-05
5.09341e-05
3.90625e-05
3.29375e-05
2.89516e-05
2.70947e-05
3.17968e-05
0.000604079
0.000681988
0.000751537
0.0008138
0.000869379
0.000918658
0.000961291
0.000996743
0.00102459
0.0010451
0.0010586
0.00106536
0.0010658
0.00106047
0.00104957
0.00103308
0.0010113
0.000984924
0.000954231
0.000919032
0.000879358
0.000835913
0.000788884
0.000737663
0.000681097
0.000618507
0.000547413
0.000463485
0.000363241
0.000253212
0.00014877
6.94248e-05
4.25076e-05
3.57505e-05
3.10284e-05
2.8504e-05
2.78152e-05
3.19283e-05
0.000604241
0.000681527
0.000750823
0.000813115
0.000868728
0.000917736
0.000960188
0.000995728
0.00102397
0.00104475
0.00105856
0.00106588
0.00106695
0.00106211
0.00105184
0.00103638
0.00101569
0.000990098
0.000960266
0.000926445
0.000888419
0.000846193
0.000800363
0.000750995
0.000697355
0.000638081
0.000572144
0.000496639
0.000407337
0.00030356
0.000198854
0.000105185
5.11511e-05
3.76623e-05
3.37556e-05
2.99359e-05
2.81304e-05
2.8803e-05
3.19784e-05
0.000604519
0.000681395
0.000750129
0.000812232
0.000867936
0.00091705
0.000959316
0.000994745
0.00102317
0.00104443
0.00105859
0.00106626
0.00106795
0.00106379
0.00105406
0.00103928
0.00101966
0.000995177
0.000966162
0.000933239
0.000896624
0.000856088
0.000811558
0.000763527
0.000711945
0.000655915
0.000593849
0.000524346
0.000444212
0.000350162
0.000246515
0.000150149
7.24561e-05
4.13881e-05
3.49635e-05
3.2166e-05
2.93936e-05
2.79453e-05
2.96486e-05
3.19765e-05
0.00060465
0.000681405
0.000749787
0.000811376
0.000866952
0.000916233
0.000958681
0.000993995
0.00102238
0.0010439
0.00105862
0.00106669
0.00106879
0.0010653
0.0010563
0.0010421
0.00102319
0.00099982
0.000971927
0.000939856
0.000904177
0.000865082
0.000822285
0.000775665
0.000725587
0.000671853
0.000613413
0.00054841
0.000475099
0.000390345
0.000293249
0.000194448
0.000107596
5.16408e-05
3.66059e-05
3.32177e-05
3.09466e-05
2.88865e-05
2.80413e-05
3.02202e-05
3.19492e-05
0.00060451
0.000681287
0.000749605
0.00081089
0.000866013
0.000915211
0.000957909
0.000993484
0.00102182
0.00104337
0.00105841
0.0010671
0.00106965
0.00106662
0.00105834
0.0010449
0.00102663
0.00100399
0.000977237
0.000946304
0.000911512
0.000873384
0.000832069
0.000787241
0.000738694
0.000686665
0.000630803
0.000569873
0.000501747
0.000424439
0.000335602
0.000238662
0.000147866
7.42164e-05
4.06533e-05
3.41027e-05
3.20983e-05
3.02006e-05
2.86405e-05
2.82738e-05
3.06087e-05
3.19235e-05
0.000604272
0.000680909
0.000749314
0.000810579
0.000865441
0.00091424
0.000956913
0.000992828
0.0010215
0.00104306
0.00105818
0.00106726
0.00107047
0.00106794
0.00106016
0.00104749
0.00103
0.00100803
0.000982045
0.00095227
0.000918634
0.000881429
0.000841129
0.000797824
0.000751141
0.000700789
0.000646863
0.000588846
0.000525299
0.000453839
0.00037255
0.000281142
0.000188649
0.000107121
5.20433e-05
3.56061e-05
3.26709e-05
3.13581e-05
2.99465e-05
2.84769e-05
2.8527e-05
3.09702e-05
3.19057e-05
0.000604335
0.00068046
0.000748772
0.000810181
0.000865064
0.000913649
0.00095597
0.000991924
0.00102102
0.00104298
0.00105816
0.00106735
0.00107101
0.00106919
0.00106196
0.00104982
0.00103313
0.00101198
0.00098668
0.000957707
0.000925244
0.000889217
0.000849875
0.000807636
0.000762534
0.000714135
0.000662061
0.000606243
0.000545998
0.000479664
0.000404713
0.000319954
0.000228893
0.000144089
7.4345e-05
4.00937e-05
3.32891e-05
3.17753e-05
3.07582e-05
2.96693e-05
2.8485e-05
2.89287e-05
3.12863e-05
3.18959e-05
0.000604659
0.000680313
0.000748174
0.000809531
0.000864609
0.000913263
0.000955415
0.000991072
0.00102026
0.00104273
0.00105836
0.00106766
0.00107146
0.00107013
0.00106366
0.0010521
0.00103598
0.00101566
0.0009912
0.00096294
0.0009313
0.000896466
0.000858316
0.000817084
0.000773104
0.000726356
0.000676344
0.000622581
0.000564843
0.00050225
0.000432945
0.000354548
0.000267747
0.000181036
0.000105143
5.19003e-05
3.47847e-05
3.20743e-05
3.11913e-05
3.03734e-05
2.94687e-05
2.85191e-05
2.93666e-05
3.15512e-05
3.18934e-05
0.000605086
0.000680436
0.000747871
0.000808823
0.0008639
0.000912802
0.000955077
0.000990604
0.00101955
0.00104216
0.00105837
0.00106817
0.00107211
0.00107097
0.00106502
0.00105426
0.00103876
0.00101903
0.000995434
0.000968019
0.000937124
0.000903127
0.000866195
0.000826175
0.000783254
0.000737695
0.000689418
0.000637851
0.000582403
0.000522666
0.000457573
0.000385171
0.000303848
0.000217788
0.000138546
7.34601e-05
3.9552e-05
3.26074e-05
3.1333e-05
3.09327e-05
3.03983e-05
2.91578e-05
2.8605e-05
2.98105e-05
3.17559e-05
3.18914e-05
0.000605322
0.000680674
0.000747858
0.000808433
0.000863131
0.000912082
0.000954666
0.000990365
0.00101921
0.00104162
0.00105802
0.00106847
0.00107295
0.00107198
0.00106626
0.00105607
0.00104139
0.0010223
0.000999322
0.000972795
0.000942756
0.00090953
0.000873455
0.000834671
0.000792991
0.00074855
0.000701542
0.000651812
0.000598719
0.000541544
0.000479698
0.000411947
0.000336521
0.00025371
0.000172172
0.000101507
5.13224e-05
3.41568e-05
3.15715e-05
3.09535e-05
3.07873e-05
3.03093e-05
2.90583e-05
2.86641e-05
3.02894e-05
3.18276e-05
3.18893e-05
0.000605275
0.000680718
0.000747981
0.000808339
0.000862693
0.000911293
0.000953971
0.000990047
0.00101911
0.00104146
0.00105769
0.00106836
0.00107356
0.00107316
0.00106765
0.00105772
0.00104365
0.00102541
0.00100309
0.000977198
0.000948061
0.000915707
0.000880426
0.000842522
0.000802099
0.000758933
0.000713114
0.000664745
0.000613611
0.000558982
0.000500005
0.000435908
0.0003654
0.000287512
0.000205963
0.000131797
7.12594e-05
3.89465e-05
3.20866e-05
3.10617e-05
3.07546e-05
3.0787e-05
3.01262e-05
2.88597e-05
2.88329e-05
3.08258e-05
3.18502e-05
3.18877e-05
0.00060466
0.000680513
0.000747926
0.000808401
0.000862567
0.000910842
0.000953204
0.000989419
0.00101892
0.00104153
0.00105773
0.00106827
0.00107372
0.0010741
0.0010692
0.0010595
0.00104571
0.00102811
0.00100665
0.000981453
0.000952968
0.000921529
0.000887133
0.000850048
0.000810532
0.000768651
0.000724147
0.000677049
0.000627385
0.000574857
0.000518646
0.00045776
0.000391273
0.00031813
0.000239282
0.000162594
9.66969e-05
4.99827e-05
3.3557e-05
3.12656e-05
3.07899e-05
3.07692e-05
3.08059e-05
2.98499e-05
2.88321e-05
2.90639e-05
3.12601e-05
3.18632e-05
3.18871e-05
0.000604209
0.000679747
0.000747631
0.000808296
0.00086261
0.000910726
0.000952782
0.000988708
0.0010184
0.00104151
0.00105801
0.00106854
0.00107389
0.00107455
0.00107047
0.00106141
0.00104789
0.00103059
0.0010098
0.000985475
0.000957705
0.00092693
0.000893464
0.000857275
0.000818607
0.000777664
0.000734477
0.000688747
0.000640441
0.000589509
0.000535574
0.000477707
0.000414778
0.00034584
0.0002707
0.000193658
0.000124303
6.81177e-05
3.80344e-05
3.16625e-05
3.08654e-05
3.07762e-05
3.08068e-05
3.07175e-05
2.95055e-05
2.88117e-05
2.95468e-05
3.15601e-05
3.18757e-05
3.18869e-05
0.000603936
0.000679137
0.000746776
0.000807954
0.000862504
0.000910793
0.000952714
0.000988349
0.00101778
0.00104111
0.00105817
0.00106904
0.00107439
0.00107499
0.00107123
0.00106304
0.00105018
0.00103317
0.00101271
0.00098907
0.00096218
0.000932136
0.000899347
0.000864107
0.000826346
0.000786278
0.000744065
0.00069969
0.000652818
0.000603351
0.000551153
0.00049576
0.000436131
0.000371037
0.000299836
0.000224298
0.000152505
9.11246e-05
4.80771e-05
3.29605e-05
3.09708e-05
3.07619e-05
3.08276e-05
3.08861e-05
3.05108e-05
2.92664e-05
2.88695e-05
3.01413e-05
3.17591e-05
3.18821e-05
3.18865e-05
0.000604103
0.000678709
0.000746062
0.000807052
0.000862147
0.000910715
0.000952836
0.000988359
0.00101751
0.00104061
0.00105792
0.0010694
0.00107513
0.00107575
0.00107196
0.00106412
0.00105216
0.00103583
0.00101569
0.00099239
0.000966212
0.000937058
0.000905011
0.000870462
0.000833662
0.000794519
0.000753216
0.000709853
0.000664386
0.000616428
0.000565814
0.000512327
0.000455402
0.000393885
0.0003266
0.000253881
0.000180788
0.000116248
6.43305e-05
3.69662e-05
3.12741e-05
3.07285e-05
3.07914e-05
3.08975e-05
3.08753e-05
3.02232e-05
2.90638e-05
2.88997e-05
3.07725e-05
3.18362e-05
3.18845e-05
3.18865e-05
0.000604696
0.000678732
0.000745533
0.000806274
0.000861217
0.000910379
0.000952815
0.000988562
0.00101762
0.00104045
0.00105755
0.00106931
0.0010757
0.00107673
0.00107298
0.00106515
0.00105356
0.00103818
0.00101873
0.000995773
0.000969948
0.000941516
0.000910366
0.000876572
0.000840476
0.000802311
0.000761953
0.000719538
0.000675129
0.000628633
0.000579617
0.000527852
0.000473025
0.000414463
0.000350955
0.000281739
0.000209255
0.000141872
8.49917e-05
4.57989e-05
3.23915e-05
3.07858e-05
3.07435e-05
3.08437e-05
3.09433e-05
3.07479e-05
2.9914e-05
2.89063e-05
2.92581e-05
3.12896e-05
3.1862e-05
3.18857e-05
3.18864e-05
0.000605422
0.000679184
0.000745468
0.000805689
0.000860411
0.000909436
0.000952518
0.000988622
0.00101793
0.00104067
0.00105752
0.0010691
0.0010758
0.00107753
0.00107421
0.00106644
0.0010549
0.00103991
0.00102143
0.000999177
0.000973722
0.000945664
0.000915246
0.000882351
0.000847025
0.000809575
0.000770212
0.00072877
0.000685351
0.000639971
0.000592485
0.000542417
0.000489469
0.000433225
0.000372911
0.000307434
0.000237198
0.000167842
0.000107701
6.00749e-05
3.57817e-05
3.10026e-05
3.07377e-05
3.07679e-05
3.08963e-05
3.09279e-05
3.06852e-05
2.94955e-05
2.89449e-05
2.9781e-05
3.16153e-05
3.18765e-05
3.1886e-05
3.18865e-05
0.000606081
0.000679785
0.000745841
0.000805572
0.000859799
0.00090862
0.000951571
0.000988372
0.00101809
0.00104111
0.00105789
0.00106921
0.00107575
0.00107783
0.00107526
0.00106794
0.00105648
0.00104157
0.0010235
0.00100224
0.000977485
0.000949817
0.000919789
0.000887638
0.000853217
0.000816552
0.000777922
0.000737493
0.000695079
0.000650735
0.000604425
0.000555972
0.000504838
0.000450652
0.00039289
0.000330753
0.000263674
0.000194402
0.000131138
7.83908e-05
4.32643e-05
3.18256e-05
3.07747e-05
3.07661e-05
3.08269e-05
3.08842e-05
3.09283e-05
3.03782e-05
2.92655e-05
2.89446e-05
3.04544e-05
3.17944e-05
3.18828e-05
3.18863e-05
3.18865e-05
0.000606529
0.000680333
0.00074638
0.000805907
0.000859663
0.000908009
0.000950756
0.000987443
0.0010179
0.0010414
0.00105846
0.00106973
0.00107602
0.00107795
0.00107576
0.00106923
0.00105824
0.00104343
0.00102547
0.00100464
0.000980899
0.000953935
0.000924322
0.000892571
0.000858905
0.000823147
0.000785317
0.000745642
0.000704264
0.000660956
0.000615745
0.000568539
0.000519111
0.000466877
0.000411374
0.000351995
0.000288124
0.00022056
0.000155178
9.9012e-05
5.55137e-05
3.44908e-05
3.09145e-05
3.07687e-05
3.08296e-05
3.0843e-05
3.08788e-05
3.08238e-05
3.00869e-05
2.90507e-05
2.92594e-05
3.11071e-05
3.1855e-05
3.18852e-05
3.18864e-05
3.18865e-05
0.000606628
0.000680692
0.000746868
0.000806427
0.000859993
0.000907876
0.000950173
0.000986644
0.00101702
0.00104126
0.00105888
0.00107044
0.00107669
0.00107839
0.00107608
0.00106994
0.00105978
0.00104546
0.00102763
0.00100693
0.000983638
0.000957694
0.000928786
0.000897466
0.000864217
0.000829228
0.000792307
0.00075345
0.000712848
0.000670605
0.000626472
0.000580423
0.000532329
0.000481909
0.000428513
0.000371595
0.000310563
0.00024547
0.000179624
0.000120524
7.17085e-05
4.05815e-05
3.14128e-05
3.07799e-05
3.0803e-05
3.08476e-05
3.08524e-05
3.08108e-05
3.07111e-05
2.96451e-05
2.90844e-05
2.96561e-05
3.15455e-05
3.18745e-05
3.1886e-05
3.18865e-05
3.18865e-05
0.000606273
0.000680694
0.000747177
0.000806901
0.000860524
0.000908234
0.000950066
0.000986094
0.00101624
0.00104044
0.00105883
0.00107101
0.00107757
0.00107923
0.00107669
0.00107047
0.00106073
0.00104726
0.00102992
0.00100937
0.000986243
0.000960763
0.000932881
0.000902272
0.000869465
0.000834913
0.000798767
0.000760827
0.000721059
0.000679624
0.000636589
0.000591667
0.000544802
0.00049581
0.000444354
0.000389714
0.000331295
0.000268783
0.000203812
0.000142546
9.02828e-05
5.09524e-05
3.33272e-05
3.08627e-05
3.07855e-05
3.08374e-05
3.08577e-05
3.08344e-05
3.07347e-05
3.04306e-05
2.94493e-05
2.90807e-05
3.03955e-05
3.17727e-05
3.18828e-05
3.18862e-05
3.18865e-05
3.18865e-05
0.000605584
0.00068025
0.000747138
0.000807202
0.000861018
0.000908802
0.000950472
0.00098604
0.00101572
0.0010397
0.00105808
0.00107105
0.00107827
0.00108026
0.00107771
0.00107126
0.00106146
0.00104844
0.00103198
0.00101193
0.000988968
0.000963683
0.000936274
0.000906691
0.000874598
0.000840505
0.000804815
0.000767658
0.000728819
0.000688243
0.000646043
0.000602259
0.000556575
0.000508893
0.000458977
0.000406421
0.000350442
0.000290528
0.000227237
0.000164782
0.000109875
6.50649e-05
3.80711e-05
3.12023e-05
3.07922e-05
3.08082e-05
3.08449e-05
3.08416e-05
3.08129e-05
3.06624e-05
3.01763e-05
2.91685e-05
2.93509e-05
3.10946e-05
3.18573e-05
3.18853e-05
3.18863e-05
3.18865e-05
3.18865e-05
0.000604803
0.000679461
0.000746658
0.000807149
0.000861337
0.000909342
0.000951103
0.000986512
0.00101574
0.00103922
0.00105738
0.00107038
0.00107841
0.00108111
0.00107889
0.00107246
0.00106245
0.00104939
0.00103339
0.00101424
0.000991793
0.000966687
0.0009395
0.000910401
0.000879335
0.000845957
0.000810748
0.000774063
0.000736023
0.000696382
0.000655068
0.000612157
0.000567655
0.000521216
0.000472699
0.000421811
0.000368075
0.000310691
0.000249579
0.000187141
0.000129886
8.15581e-05
4.65663e-05
3.24558e-05
3.0859e-05
3.08103e-05
3.08253e-05
3.08293e-05
3.08057e-05
3.07816e-05
3.06387e-05
2.97497e-05
2.9199e-05
2.97247e-05
3.15753e-05
3.18771e-05
3.18863e-05
3.18865e-05
3.18865e-05
3.18865e-05
0.000604098
0.000678585
0.000745809
0.000806648
0.0008613
0.000909703
0.000951709
0.000987222
0.0010163
0.00103932
0.00105696
0.00106974
0.00107785
0.00108137
0.00107991
0.00107381
0.00106383
0.00105057
0.00103457
0.0010159
0.000994352
0.000969772
0.000942785
0.000913932
0.000883358
0.000851003
0.000816508
0.000780325
0.000742777
0.000703951
0.000663585
0.000621589
0.000578003
0.000532795
0.000485596
0.00043621
0.000384284
0.000329278
0.000270574
0.00020922
0.00015016
9.92629e-05
5.85443e-05
3.58958e-05
3.10849e-05
3.08176e-05
3.08364e-05
3.08191e-05
3.07738e-05
3.07408e-05
3.07539e-05
3.03927e-05
2.9509e-05
2.91778e-05
3.0544e-05
3.1798e-05
3.18841e-05
3.18864e-05
3.18865e-05
3.18865e-05
3.18865e-05
0.000603656
0.000677774
0.000744866
0.000805767
0.000860788
0.000909698
0.000952136
0.00098792
0.00101709
0.00103996
0.00105713
0.00106938
0.00107728
0.00108091
0.00108029
0.00107499
0.00106535
0.00105213
0.00103595
0.00101731
0.000996246
0.000972581
0.00094613
0.000917493
0.000887188
0.000855326
0.000821852
0.000786388
0.000749364
0.000711051
0.000671518
0.000630487
0.00058785
0.000543604
0.000497691
0.000449707
0.000399403
0.000346354
0.00029005
0.000230499
0.000170855
0.00011744
7.29691e-05
4.25038e-05
3.18262e-05
3.08637e-05
3.08473e-05
3.08334e-05
3.07911e-05
3.06814e-05
3.07032e-05
3.06729e-05
3.02042e-05
2.92813e-05
2.95063e-05
3.12423e-05
3.18672e-05
3.1886e-05
3.18865e-05
3.18865e-05
3.18865e-05
3.18865e-05
0.000603455
0.000677234
0.000743984
0.000804779
0.000859892
0.00090918
0.000952183
0.000988426
0.00101789
0.00104086
0.00105787
0.00106963
0.00107699
0.00108043
0.00107995
0.00107549
0.00106669
0.00105382
0.00103769
0.0010189
0.000997888
0.000974714
0.00094918
0.000921085
0.000891018
0.000859447
0.000826471
0.000792023
0.000755725
0.000717955
0.000678961
0.000638782
0.000597134
0.000553874
0.000508977
0.000462345
0.000413535
0.00036224
0.000307998
0.000250579
0.000191436
0.000136075
8.8847e-05
5.23487e-05
3.41251e-05
3.09956e-05
3.08515e-05
3.08562e-05
3.08115e-05
3.07201e-05
3.0661e-05
3.06661e-05
3.06137e-05
2.97985e-05
2.93126e-05
3.00071e-05
3.16761e-05
3.18817e-05
3.18862e-05
3.18865e-05
3.18865e-05
3.18865e-05
3.18865e-05
0.000603532
0.00067692
0.000743371
0.000803849
0.000858873
0.00090828
0.00095166
0.000988531
0.00101847
0.00104176
0.00105887
0.00107047
0.00107731
0.00108022
0.00107955
0.00107528
0.00106732
0.00105533
0.00103956
0.00102081
0.000999676
0.000976587
0.00095155
0.000924374
0.000894848
0.00086354
0.000830876
0.000796933
0.000761638
0.000724606
0.00068618
0.000646571
0.000605796
0.000563556
0.000519688
0.000474129
0.000426746
0.000377052
0.000324685
0.000269288
0.000211467
0.000154927
0.000105426
6.47482e-05
3.89561e-05
3.13994e-05
3.08683e-05
3.0859e-05
3.08392e-05
3.07496e-05
3.06788e-05
3.06646e-05
3.06615e-05
3.03807e-05
2.95123e-05
2.93092e-05
3.0857e-05
3.18406e-05
3.18856e-05
3.18863e-05
3.18865e-05
3.18865e-05
3.18865e-05
3.18865e-05
0.00060387
0.000676909
0.000742978
0.000803184
0.000857907
0.000907242
0.000950767
0.000988011
0.00101864
0.00104244
0.00105988
0.00107156
0.00107825
0.00108062
0.00107943
0.00107499
0.00106725
0.00105611
0.00104123
0.00102285
0.00100178
0.000978582
0.000953651
0.000926976
0.000898372
0.000867606
0.000835222
0.000801612
0.000766831
0.000730797
0.000693119
0.000654106
0.000613928
0.00057259
0.000529774
0.000485294
0.000439053
0.000390873
0.000340218
0.000286745
0.000230543
0.000173935
0.000122369
7.88027e-05
4.67232e-05
3.27892e-05
3.09393e-05
3.08639e-05
3.08487e-05
3.07841e-05
3.0706e-05
3.06804e-05
3.06802e-05
3.06193e-05
3.00619e-05
2.93058e-05
2.98321e-05
3.14907e-05
3.18771e-05
3.18863e-05
3.18865e-05
3.18865e-05
3.18865e-05
3.18865e-05
3.18865e-05
0.000604399
0.000677143
0.000742898
0.000802745
0.000857207
0.000906248
0.000949703
0.000987121
0.00101813
0.00104265
0.00106065
0.00107268
0.00107946
0.00108166
0.00107992
0.00107497
0.00106708
0.00105618
0.00104215
0.00102469
0.00100399
0.000980873
0.00095585
0.000929303
0.000901203
0.000871355
0.00083952
0.000806213
0.000771782
0.000736268
0.000699584
0.00066133
0.000621777
0.00058107
0.000539189
0.000495799
0.000450697
0.00040374
0.000354697
0.000303019
0.000248582
0.0001926
0.000139556
9.37932e-05
5.70802e-05
3.60722e-05
3.11761e-05
3.08697e-05
3.08563e-05
3.08074e-05
3.07222e-05
3.06784e-05
3.06768e-05
3.06794e-05
3.05158e-05
2.97012e-05
2.94012e-05
3.04588e-05
3.17891e-05
3.18848e-05
3.18863e-05
3.18865e-05
3.18865e-05
3.18865e-05
3.18865e-05
3.18865e-05
0.00060504
0.000677586
0.000743071
0.00080262
0.000856745
0.000905523
0.000948689
0.000986042
0.00101727
0.0010422
0.00106093
0.00107356
0.00108068
0.00108296
0.00108106
0.00107554
0.00106716
0.00105612
0.00104238
0.00102576
0.00100599
0.000983233
0.000958319
0.000931708
0.000903752
0.000874418
0.000843491
0.00081074
0.000776627
0.000741482
0.000705327
0.000668068
0.000629289
0.000589236
0.00054802
0.000505605
0.000461638
0.000415888
0.000368164
0.000318192
0.000265528
0.000210718
0.000156871
0.000109144
6.927e-05
4.18567e-05
3.19154e-05
3.09146e-05
3.08662e-05
3.08232e-05
3.07434e-05
3.06828e-05
3.06692e-05
3.06666e-05
3.06659e-05
3.02837e-05
2.94853e-05
2.93994e-05
3.1271e-05
3.18729e-05
3.18862e-05
3.18865e-05
3.18865e-05
3.18865e-05
3.18865e-05
3.18865e-05
3.18865e-05
0.000605748
0.000678144
0.000743456
0.000802752
0.000856592
0.000905064
0.000947951
0.000985012
0.00101618
0.00104135
0.00106052
0.00107392
0.00108166
0.0010843
0.00108247
0.00107679
0.00106782
0.00105632
0.00104246
0.00102615
0.00100722
0.000985395
0.000960843
0.000934354
0.00090636
0.000877186
0.000846776
0.000814919
0.000781374
0.000746568
0.0007108
0.000674078
0.000636297
0.000597039
0.00055651
0.000514799
0.000471849
0.00042729
0.000380856
0.000332304
0.000281382
0.000228034
0.000174217
0.000124735
8.25625e-05
5.01278e-05
3.39223e-05
3.10501e-05
3.08814e-05
3.08444e-05
3.07621e-05
3.06899e-05
3.06603e-05
3.06484e-05
3.06625e-05
3.0565e-05
2.99746e-05
2.94409e-05
3.02563e-05
3.17188e-05
3.18848e-05
3.18863e-05
3.18865e-05
3.18865e-05
3.18865e-05
3.18865e-05
3.18865e-05
3.18865e-05
0.000606393
0.000678773
0.000743959
0.000803102
0.000856706
0.000904899
0.000947508
0.000984262
0.00101514
0.00104026
0.0010597
0.00107356
0.00108209
0.00108538
0.00108391
0.0010783
0.00106918
0.00105708
0.00104278
0.00102637
0.00100777
0.000986781
0.000963162
0.00093704
0.000909184
0.000879992
0.00084976
0.000818419
0.000785764
0.000751533
0.000716123
0.000679803
0.000642575
0.000604316
0.000564605
0.000523616
0.000481417
0.000437927
0.000392745
0.000345575
0.000296153
0.000244413
0.000191248
0.000140499
9.64075e-05
6.03607e-05
3.78814e-05
3.14083e-05
3.09087e-05
3.0865e-05
3.07893e-05
3.07048e-05
3.06638e-05
3.06305e-05
3.06517e-05
3.06395e-05
3.04792e-05
2.96083e-05
2.97316e-05
3.10236e-05
3.18619e-05
3.18863e-05
3.18865e-05
3.18865e-05
3.18865e-05
3.18865e-05
3.18865e-05
3.18865e-05
3.18865e-05
0.000606976
0.00067934
0.000744537
0.000803578
0.000857043
0.000905009
0.000947344
0.000983836
0.00101437
0.00103921
0.0010586
0.00107277
0.00108179
0.0010859
0.00108509
0.00107984
0.00107079
0.00105854
0.00104364
0.00102681
0.00100814
0.000987504
0.000964704
0.000939514
0.000912027
0.000882992
0.000852763
0.000821618
0.000789473
0.000756124
0.000721297
0.000685361
0.000648554
0.00061086
0.000572155
0.000532013
0.000490573
0.00044788
0.000403826
0.000357985
0.000310026
0.000259762
0.000207705
0.000156403
0.000110542
7.18916e-05
4.40795e-05
3.24679e-05
3.09769e-05
3.08823e-05
3.08198e-05
3.07289e-05
3.0677e-05
3.0639e-05
3.06315e-05
3.06257e-05
3.0623e-05
3.0073e-05
2.96243e-05
2.99326e-05
3.16415e-05
3.18833e-05
3.18864e-05
3.18865e-05
3.18865e-05
3.18865e-05
3.18865e-05
3.18865e-05
3.18865e-05
3.18865e-05
0.00060743
0.000679851
0.000745053
0.000804127
0.000857508
0.00090535
0.00094747
0.000983692