/*--------------------------------*- C++ -*----------------------------------*\
| =========                 |                                                 |
| \\      /  F ield         | OpenFOAM: The Open Source CFD Toolbox           |
|  \\    /   O peration     | Version:  v2012                                 |
|   \\  /    A nd           | Website:  www.openfoam.com                      |
|    \\/     M anipulation  |                                                 |
\*---------------------------------------------------------------------------*/
FoamFile
{
    version     2.0;
    format      ascii;
    class       volScalarField;
    location    "6700";
    object      nut;
}
// * * * * * * * * * * * * * * * * * * * * * * * * * * * * * * * * * * * * * //

dimensions      [0 2 -1 0 0 0 0];


internalField   nonuniform List<scalar> 
39402
(
2.08364e-06
6.9048e-08
1.73799e-06
2.01113e-08
6.91826e-08
1.09632e-06
1.70378e-08
1.91072e-08
8.10652e-08
6.43262e-07
1.8599e-08
3.20209e-08
2.06489e-08
1.07463e-07
4.24966e-07
2.01405e-08
5.11423e-08
3.10566e-07
3.19315e-08
1.49986e-07
3.39333e-07
2.12367e-08
6.37583e-08
6.11373e-07
1.92359e-06
6.9195e-08
2.01158e-07
3.03895e-07
2.18229e-08
7.18955e-08
7.96353e-07
3.8085e-06
7.27393e-06
1.51491e-07
2.50336e-07
2.89048e-07
2.21571e-08
7.62051e-08
9.11702e-07
4.93125e-06
1.43021e-05
1.97976e-05
2.91449e-07
2.89491e-07
2.82793e-07
2.22805e-08
7.89577e-08
9.71567e-07
5.61623e-06
1.83777e-05
3.86752e-05
4.26399e-05
4.87481e-07
3.15352e-07
2.80143e-07
2.21274e-08
8.00827e-08
1.0092e-06
5.96614e-06
2.08152e-05
4.93869e-05
8.29608e-05
7.70777e-05
7.00884e-07
3.28862e-07
2.79018e-07
2.18333e-08
7.97101e-08
1.02366e-06
6.17948e-06
2.20467e-05
5.56702e-05
0.000105526
0.00014989
0.000121826
9.0125e-07
3.34082e-07
2.78536e-07
2.15334e-08
7.87448e-08
1.01806e-06
6.25583e-06
2.27761e-05
5.88297e-05
0.000118541
0.000190539
0.000237882
0.000165844
1.10935e-06
3.36279e-07
2.78334e-07
2.11853e-08
7.77574e-08
1.00516e-06
6.21457e-06
2.30222e-05
6.06527e-05
0.000125094
0.000213703
0.000303418
0.000336029
0.000210676
1.3256e-06
3.3341e-07
2.78255e-07
2.08067e-08
7.64366e-08
9.92068e-07
6.13242e-06
2.28588e-05
6.12488e-05
0.000128794
0.000225458
0.000340548
0.000439564
0.000431854
0.00025702
1.57463e-06
3.23765e-07
2.78231e-07
2.04514e-08
7.49885e-08
9.74203e-07
6.04845e-06
2.25571e-05
6.08265e-05
0.000130018
0.000232003
0.000359656
0.000494965
0.000573155
0.000532819
0.000304441
1.94383e-06
3.10253e-07
2.78227e-07
2.00953e-08
7.36295e-08
9.5484e-07
5.93675e-06
2.22482e-05
6.00687e-05
0.000129221
0.000234256
0.000370232
0.000524033
0.000656276
0.00071528
0.000637175
0.000355847
2.23542e-06
2.96573e-07
2.78232e-07
1.97125e-08
7.22155e-08
9.36612e-07
5.81665e-06
2.18424e-05
5.92826e-05
0.000127783
0.000233127
0.000374133
0.000540133
0.000701684
0.00082622
0.000865627
0.000742914
0.000423803
2.35601e-06
2.85065e-07
2.78258e-07
1.93287e-08
7.0644e-08
9.17531e-07
5.70311e-06
2.14066e-05
5.82549e-05
0.000126262
0.000230925
0.000372942
0.000546574
0.000727423
0.000888425
0.00100874
0.00102151
0.000853479
0.00052804
2.29511e-06
2.76473e-07
2.78283e-07
1.89836e-08
6.91071e-08
8.96366e-07
5.58456e-06
2.09935e-05
5.71528e-05
0.000124257
0.000228523
0.000370122
0.000545905
0.00073947
0.00092391
0.00109122
0.00120191
0.00118099
0.000983235
0.000615623
2.01131e-06
2.70727e-07
2.78272e-07
1.86665e-08
6.77467e-08
8.75787e-07
5.45413e-06
2.05623e-05
5.60998e-05
0.0001221
0.000225316
0.000366911
0.000542881
0.000742103
0.000941716
0.00113902
0.00130908
0.001403
0.0013455
0.00112404
0.000659026
1.57654e-06
2.66988e-07
2.78276e-07
1.8347e-08
6.64767e-08
8.57608e-07
5.32751e-06
2.00904e-05
5.49991e-05
0.000120025
0.000221827
0.000362479
0.000539153
0.000741256
0.000947183
0.00116413
0.00137273
0.0015397
0.00160942
0.00150025
0.00120973
0.000668656
1.12226e-06
2.64696e-07
2.78177e-07
1.80239e-08
6.51704e-08
8.40467e-07
5.2149e-06
1.96319e-05
5.37972e-05
0.000117845
0.000218441
0.000357596
0.000533724
0.000739169
0.000947845
0.00117351
0.00140735
0.0016231
0.00178011
0.00180969
0.00163369
0.00126586
0.000636089
7.53979e-07
2.63344e-07
2.77979e-07
1.77274e-08
6.38673e-08
8.22879e-07
5.10848e-06
1.92221e-05
5.26287e-05
0.000115465
0.000214857
0.000352792
0.000527595
0.000734832
0.000946677
0.00117642
0.00142232
0.00167028
0.00188749
0.00202215
0.00199881
0.00174269
0.00130251
0.000561269
5.13801e-07
2.62622e-07
2.77764e-07
1.74488e-08
6.26802e-08
8.05418e-07
4.99976e-06
1.88336e-05
5.15776e-05
0.000113145
0.000210941
0.000347663
0.000521471
0.00072859
0.000942639
0.00117666
0.00142869
0.00169306
0.00195092
0.00216015
0.00226089
0.00216914
0.00182209
0.00133047
0.000452388
3.7775e-07
2.62238e-07
2.77656e-07
1.71764e-08
6.15776e-08
7.89573e-07
4.89226e-06
1.84378e-05
5.05774e-05
0.000111046
0.00020711
0.000342029
0.00051485
0.00072143
0.000937143
0.00117327
0.00143124
0.00170448
0.00198436
0.0022449
0.00243639
0.00248843
0.00231073
0.00186923
0.00135433
0.000325422
3.09377e-07
2.61844e-07
2.77701e-07
1.69109e-08
6.04818e-08
7.74862e-07
4.79446e-06
1.80473e-05
4.95594e-05
0.000109039
0.000203624
0.000336506
0.000507525
0.000713556
0.000931171
0.00116815
0.00142925
0.00171058
0.00200296
0.00229297
0.0025484
0.00270945
0.00269444
0.0024151
0.00188198
0.0013016
0.000202726
2.75417e-07
2.61457e-07
2.77819e-07
1.66609e-08
5.94062e-08
7.60307e-07
4.70377e-06
1.76909e-05
4.85554e-05
0.000106995
0.000200272
0.000331454
0.000500324
0.000704745
0.000924167
0.00116241
0.00142498
0.00171095
0.00201422
0.00232175
0.0026159
0.00285571
0.00296984
0.00286785
0.00247395
0.0018607
0.0011175
0.000106276
2.5971e-07
2.61078e-07
2.77923e-07
1.6424e-08
5.84055e-08
7.46036e-07
4.61446e-06
1.73606e-05
4.76368e-05
0.000104979
0.000196852
0.000326565
0.000493693
0.000696041
0.000915957
0.00115529
0.00141977
0.00170829
0.00201827
0.00234049
0.00265856
0.00294847
0.0031588
0.0032064
0.00299674
0.00248264
0.00181777
0.000885245
4.68616e-05
2.5251e-07
2.60821e-07
2.78009e-07
1.61907e-08
5.74656e-08
7.32822e-07
4.52713e-06
1.70358e-05
4.67832e-05
0.000103126
0.000193477
0.000321559
0.000487234
0.000687993
0.000907762
0.00114667
0.00141275
0.00170428
0.00201836
0.00235024
0.0026876
0.00300977
0.0032842
0.00344771
0.0034066
0.00306981
0.00244228
0.00176788
0.000631139
1.80419e-05
2.49277e-07
2.60774e-07
2.78073e-07
1.59666e-08
5.65306e-08
7.20481e-07
4.44641e-06
1.67191e-05
4.59453e-05
0.000101403
0.000190365
0.000316618
0.000480607
0.000680101
0.000900191
0.00113797
0.00140383
0.00169791
0.00201648
0.00235458
0.00270529
0.00305288
0.00337004
0.00361446
0.00371046
0.00355652
0.00308018
0.00236093
0.00163746
0.000392279
6.46249e-06
2.47882e-07
2.60928e-07
2.78135e-07
1.57669e-08
5.56397e-08
7.08287e-07
4.37127e-06
1.64261e-05
4.51289e-05
9.97096e-05
0.000187458
0.000312043
0.000474043
0.00067194
0.000892582
0.00112984
0.00139468
0.00168918
0.00201155
0.00235604
0.00271586
0.00308147
0.00343183
0.00373226
0.00392871
0.00393322
0.0036435
0.00302642
0.00225318
0.00132399
0.00020698
2.31271e-06
2.47333e-07
2.61083e-07
2.7817e-07
1.55746e-08
5.48478e-08
6.96722e-07
4.29752e-06
1.61545e-05
4.43741e-05
9.80609e-05
0.000184601
0.000307757
0.000467957
0.000663855
0.000884606
0.00112162
0.00138609
0.00167998
0.00200363
0.00235368
0.00272229
0.00310075
0.0034754
0.00381904
0.00408755
0.00421446
0.00410109
0.00365771
0.00291689
0.0021391
0.000971516
9.25111e-05
9.14596e-07
2.4708e-07
2.61156e-07
2.78168e-07
1.53812e-08
5.40871e-08
6.8653e-07
4.22794e-06
1.58887e-05
4.36742e-05
9.65347e-05
0.00018182
0.000303539
0.000462235
0.000656338
0.000876627
0.00111285
0.00137729
0.00167127
0.0019949
0.00234753
0.00272394
0.00311439
0.0035068
0.00388247
0.00420657
0.00442458
0.00445665
0.00419965
0.00359497
0.00276782
0.00197566
0.000626246
3.60313e-05
4.56192e-07
2.46854e-07
2.6119e-07
2.78135e-07
1.51862e-08
5.33109e-08
6.76793e-07
4.16652e-06
1.56389e-05
4.29907e-05
9.51183e-05
0.00017924
0.000299431
0.00045659
0.000649249
0.000869216
0.00110404
0.00136777
0.00166223
0.00198659
0.00234008
0.00272082
0.00312178
0.00353023
0.00393
0.00429614
0.00458492
0.00472994
0.00463955
0.00421555
0.00346015
0.00260237
0.00157397
0.000343869
1.27948e-05
3.07156e-07
2.46628e-07
2.61221e-07
2.78078e-07
1.50108e-08
5.25357e-08
6.66921e-07
4.10857e-06
1.54186e-05
4.23497e-05
9.37367e-05
0.000176847
0.000295619
0.000451088
0.000642231
0.000862173
0.00109585
0.00135813
0.00165222
0.00197772
0.00233283
0.00271569
0.00312328
0.00354563
0.00396678
0.00436493
0.00470809
0.00494193
0.00498795
0.00474616
0.00414314
0.00326988
0.00242908
0.00113596
0.0001589
4.34644e-06
2.58726e-07
2.46544e-07
2.61204e-07
2.7799e-07
1.4866e-08
5.18637e-08
6.57174e-07
4.05025e-06
1.52118e-05
4.17845e-05
9.24423e-05
0.000174508
0.000292077
0.000445983
0.000635393
0.000855143
0.00108805
0.00134915
0.00164193
0.00196754
0.00232472
0.00271041
0.00312186
0.00355365
0.00399323
0.00441924
0.00480452
0.00510786
0.00526361
0.00518119
0.00476214
0.00398559
0.00305151
0.00212109
0.000720077
6.27359e-05
1.50883e-06
2.42892e-07
2.46639e-07
2.61106e-07
2.77884e-07
1.47249e-08
5.13168e-08
6.48875e-07
3.99311e-06
1.5005e-05
4.12556e-05
9.13001e-05
0.000172319
0.000288605
0.000441233
0.000629048
0.000848282
0.00108019
0.00134056
0.00163233
0.00195701
0.00231504
0.00270387
0.00311967
0.00355771
0.00401041
0.00446057
0.0048819
0.00523988
0.00548286
0.0055329
0.00529124
0.00467925
0.00376126
0.00284146
0.00162908
0.000391158
2.19126e-05
6.08435e-07
2.37707e-07
2.46912e-07
2.61075e-07
2.77769e-07
1.45764e-08
5.07787e-08
6.42217e-07
3.94483e-06
1.48041e-05
4.07304e-05
9.02335e-05
0.000170385
0.000285359
0.000436556
0.000623129
0.000841911
0.0010725
0.00133191
0.00162319
0.00194716
0.00230472
0.00269529
0.00311574
0.0035602
0.00402209
0.00449026
0.00494253
0.00534692
0.0056594
0.00581724
0.00573119
0.00530211
0.00449985
0.00350274
0.00261581
0.00112496
0.000180604
7.09468e-06
3.36087e-07
2.36154e-07
2.47442e-07
2.61219e-07
2.77665e-07
1.44257e-08
5.01913e-08
6.35763e-07
3.90657e-06
1.46352e-05
4.02224e-05
8.91798e-05
0.000168583
0.00028249
0.000432194
0.000617273
0.000835965
0.00106542
0.00132337
0.00161386
0.00193767
0.00229497
0.0026858
0.00310924
0.00356014
0.00403107
0.00451247
0.00498896
0.00543273
0.00580388
0.00604942
0.00609373
0.00583801
0.00520295
0.00424125
0.00324799
0.0020792
0.000679522
7.18805e-05
2.25622e-06
2.57131e-07
2.36061e-07
2.48177e-07
2.61413e-07
2.77576e-07
1.429e-08
4.96054e-08
6.28684e-07
3.86996e-06
1.45025e-05
3.97977e-05
8.81649e-05
0.000166805
0.000279818
0.000428329
0.00061181
0.000829026
0.00105879
0.00131549
0.00160463
0.00192792
0.00228552
0.0026767
0.0031013
0.00355696
0.0040366
0.00453049
0.00502517
0.0055005
0.0059218
0.00624092
0.006393
0.00629113
0.00583601
0.00499507
0.00393814
0.00298438
0.00150863
0.000352348
2.55162e-05
7.87077e-07
2.35132e-07
2.36573e-07
2.48855e-07
2.6151e-07
2.775e-07
1.41842e-08
4.9103e-08
6.21703e-07
3.83007e-06
1.43768e-05
3.94661e-05
8.73201e-05
0.000165105
0.000277189
0.000424731
0.000606974
0.000822559
0.00105203
0.00130812
0.00159606
0.00191824
0.00227572
0.00266792
0.00309365
0.00355185
0.0040382
0.00454388
0.00505511
0.00555521
0.00601729
0.00639899
0.00664225
0.00667144
0.0063887
0.00571287
0.00469727
0.00363583
0.00247357
0.000972916
0.000156267
8.37631e-06
3.69665e-07
2.29269e-07
2.3724e-07
2.49474e-07
2.61498e-07
2.77434e-07
1.40902e-08
4.87251e-08
6.15908e-07
3.79107e-06
1.42409e-05
3.91545e-05
8.66646e-05
0.000163696
0.000274687
0.000421204
0.000602478
0.000816845
0.00104577
0.00130088
0.0015881
0.00190924
0.00226585
0.00265849
0.0030861
0.00354648
0.00403722
0.00455208
0.00507921
0.00560104
0.00609573
0.00652925
0.00685053
0.00699072
0.00686229
0.00636639
0.00547005
0.00434878
0.00333181
0.00184797
0.000546003
6.00521e-05
2.65946e-06
2.57901e-07
2.28152e-07
2.38031e-07
2.4986e-07
2.61351e-07
2.77381e-07
1.39868e-08
4.83865e-08
6.1175e-07
3.75934e-06
1.41091e-05
3.88198e-05
8.60519e-05
0.000162607
0.000272627
0.000417862
0.000598067
0.000811539
0.00104027
0.00129415
0.00158032
0.0019009
0.00225671
0.00264881
0.00307764
0.00354087
0.00403538
0.00455678
0.00509654
0.00563878
0.00616225
0.00663783
0.00702447
0.00725995
0.0072653
0.0069426
0.00621195
0.00512845
0.0040021
0.00282743
0.00124189
0.00026336
2.06121e-05
8.99446e-07
2.29708e-07
2.28458e-07
2.38767e-07
2.50066e-07
2.61112e-07
2.77341e-07
1.38693e-08
4.7989e-08
6.0811e-07
3.73749e-06
1.40039e-05
3.84979e-05
8.53977e-05
0.000161592
0.000271038
0.000415129
0.000593922
0.000806338
0.00103514
0.00128826
0.00157304
0.00189272
0.00224828
0.00264004
0.00306883
0.00353424
0.00403285
0.00456011
0.00510899
0.00566833
0.00621789
0.00673049
0.00717069
0.00748751
0.0076082
0.00744213
0.00689191
0.00592728
0.00473481
0.00366005
0.00214935
0.000735043
0.000108687
6.54957e-06
3.94687e-07
2.23061e-07
2.29168e-07
2.39702e-07
2.50192e-07
2.60805e-07
2.77315e-07
1.37521e-08
4.753e-08
6.03653e-07
3.71883e-06
1.39343e-05
3.82461e-05
8.47751e-05
0.000160517
0.000269567
0.000413036
0.000590557
0.000801469
0.00103008
0.00128277
0.00156678
0.00188509
0.00223996
0.00263186
0.0030608
0.00352705
0.00402891
0.00456212
0.0051193
0.00569167
0.00626326
0.00680921
0.00729603
0.00768053
0.00790096
0.00787277
0.00749657
0.00669715
0.00553781
0.00434751
0.00313273
0.00148303
0.000377296
3.91868e-05
2.02996e-06
2.59777e-07
2.21899e-07
2.30064e-07
2.40582e-07
2.50276e-07
2.60477e-07
2.77301e-07
1.36486e-08
4.70825e-08
5.98506e-07
3.69582e-06
1.38764e-05
3.80859e-05
8.42964e-05
0.000159502
0.000268012
0.000411099
0.000587999
0.00079757
0.00102544
0.00127735
0.00156096
0.00187857
0.00223223
0.00262371
0.00305333
0.0035203
0.00402414
0.00456219
0.00512766
0.00571127
0.00630042
0.00687511
0.0074037
0.00784685
0.00815148
0.00824377
0.00802769
0.00740805
0.00636278
0.00509937
0.00396648
0.00240037
0.000910794
0.000165706
1.28111e-05
6.97293e-07
2.26349e-07
2.22108e-07
2.31095e-07
2.41488e-07
2.50201e-07
2.60161e-07
2.77295e-07
1.35749e-08
4.6712e-08
5.93526e-07
3.66881e-06
1.38043e-05
3.79566e-05
8.40038e-05
0.000158739
0.000266562
0.000409064
0.000585642
0.000794642
0.00102191
0.00127238
0.00155519
0.00187247
0.00222562
0.00261611
0.00304571
0.00351401
0.00401953
0.0045609
0.00513327
0.00572794
0.00633241
0.0069303
0.00749542
0.00799095
0.00836806
0.0085636
0.00849148
0.00804859
0.00716282
0.00592036
0.00467515
0.00338978
0.00167798
0.000489477
6.28575e-05
3.96102e-06
3.32787e-07
2.18717e-07
2.22905e-07
2.32227e-07
2.42088e-07
2.49899e-07
2.59917e-07
2.7729e-07
1.35342e-08
4.64713e-08
5.89621e-07
3.64298e-06
1.37186e-05
3.77924e-05
8.37752e-05
0.000158294
0.000265501
0.000407189
0.000583168
0.000791942
0.00101934
0.00126873
0.00154994
0.00186651
0.00221951
0.00260967
0.00303867
0.00350753
0.00401524
0.00455939
0.00513699
0.00574119
0.00636032
0.00697833
0.00757387
0.00811492
0.00855648
0.00884128
0.00889413
0.00861708
0.00791137
0.00677082
0.00543732
0.00425363
0.00260073
0.00105056
0.000225337
2.13611e-05
1.2457e-06
2.40398e-07
2.17466e-07
2.23928e-07
2.33345e-07
2.42432e-07
2.49282e-07
2.59754e-07
2.77288e-07
1.34976e-08
4.63865e-08
5.87405e-07
3.6236e-06
1.36377e-05
3.75962e-05
8.34792e-05
0.000157955
0.000264909
0.000405855
0.000580919
0.000789111
0.00101697
0.00126623
0.00154613
0.00186111
0.0022135
0.00260389
0.00303293
0.00350171
0.0040107
0.00455818
0.00514023
0.00575166
0.00638349
0.00702061
0.00764228
0.00822194
0.0087202
0.00908373
0.00924529
0.00911658
0.00859296
0.00760778
0.00627017
0.00497782
0.00360149
0.00182597
0.000578727
8.86458e-05
6.74392e-06
4.75973e-07
2.18922e-07
2.17705e-07
2.25152e-07
2.34453e-07
2.4242e-07
2.48537e-07
2.59659e-07
2.77286e-07
1.34489e-08
4.62735e-08
5.8723e-07
3.61431e-06
1.35802e-05
3.74133e-05
8.31228e-05
0.000157508
0.000264477
0.000405159
0.000579382
0.000786582
0.00101444
0.00126391
0.00154367
0.00185731
0.00220806
0.00259809
0.0030277
0.0034971
0.00400661
0.00455634
0.00514318
0.00576095
0.00640284
0.00705658
0.00770276
0.00831583
0.00886307
0.00929609
0.00955373
0.00955521
0.00920212
0.00839699
0.00715024
0.00574216
0.00451395
0.00275415
0.00115276
0.000273368
3.07598e-05
2.07905e-06
2.73528e-07
2.14448e-07
2.18409e-07
2.26438e-07
2.35521e-07
2.42259e-07
2.47817e-07
2.59616e-07
2.77285e-07
1.33796e-08
4.61079e-08
5.86584e-07
3.61698e-06
1.35583e-05
3.72907e-05
8.27968e-05
0.000156965
0.000263887
0.000404677
0.000578653
0.000784943
0.00101224
0.00126135
0.00154143
0.001855
0.00220452
0.00259292
0.00302242
0.00349291
0.0040037
0.00455456
0.00514498
0.00576935
0.00642012
0.00708761
0.00775536
0.00839923
0.008989
0.0094828
0.00982501
0.00994212
0.00974258
0.00912162
0.00802205
0.00658886
0.0052507
0.00376328
0.00193015
0.000642859
0.000109594
9.78293e-06
7.04745e-07
2.24179e-07
2.13916e-07
2.19446e-07
2.27824e-07
2.36335e-07
2.4158e-07
2.47278e-07
2.59597e-07
2.77285e-07
1.32838e-08
4.58307e-08
5.85241e-07
3.61693e-06
1.35786e-05
3.72603e-05
8.2594e-05
0.00015648
0.000263166
0.000403985
0.000578187
0.00078428
0.00101109
0.00125918
0.00153894
0.00185297
0.00220269
0.00258983
0.00301787
0.00348858
0.00400131
0.00455406
0.00514667
0.00577648
0.006436
0.00711543
0.00780134
0.00847268
0.00910093
0.00964809
0.0100643
0.0102848
0.0102224
0.009776
0.00885443
0.00749273
0.00601819
0.00474322
0.00285627
0.00121974
0.000307423
3.84627e-05
2.97023e-06
3.29892e-07
2.13204e-07
2.14399e-07
2.2068e-07
2.29138e-07
2.36573e-07
2.40528e-07
2.46952e-07
2.59588e-07
2.77284e-07
1.31821e-08
4.5435e-08
5.82379e-07
3.61278e-06
1.35894e-05
3.73363e-05
8.25783e-05
0.000156209
0.000262546
0.000403126
0.000577453
0.000783924
0.00101094
0.00125827
0.00153686
0.00185068
0.00220101
0.00258874
0.00301556
0.00348489
0.00399837
0.00455393
0.00514951
0.00578319
0.00644984
0.00714082
0.00784285
0.00853785
0.00920016
0.00979549
0.0102775
0.0105883
0.0106495
0.0103638
0.00962709
0.00840089
0.00688052
0.00549496
0.00386938
0.00198686
0.000681977
0.000124458
1.2292e-05
9.44083e-07
2.35405e-07
2.11265e-07
2.1503e-07
2.22089e-07
2.30346e-07
2.36475e-07
2.39306e-07
2.46788e-07
2.59584e-07
2.77284e-07
1.30824e-08
4.50316e-08
5.77959e-07
3.59964e-06
1.35861e-05
3.73876e-05
8.27761e-05
0.000156258
0.000262247
0.000402424
0.00057653
0.000783238
0.00101109
0.00125853
0.0015363
0.00184893
0.00219908
0.00258789
0.00301548
0.00348387
0.00399614
0.00455335
0.00515236
0.00579045
0.00646299
0.00716362
0.00788081
0.0085967
0.00928928
0.00992706
0.0104681
0.0108586
0.0110297
0.0108904
0.0103326
0.00927797
0.00779842
0.00628207
0.00492931
0.00290228
0.00124759
0.000326265
4.39555e-05
3.71596e-06
3.87948e-07
2.13675e-07
2.1131e-07
2.16031e-07
2.23541e-07
2.3139e-07
2.35653e-07
2.38294e-07
2.46726e-07
2.59583e-07
2.77284e-07
1.29992e-08
4.4652e-08
5.73458e-07
3.57714e-06
1.3551e-05
3.74033e-05
8.29207e-05
0.00015666
0.00026243
0.000402168
0.000575825
0.000782338
0.00101088
0.00125912
0.00153715
0.00184878
0.00219781
0.00258657
0.00301569
0.00348526
0.00399676
0.00455339
0.0051547
0.0057975
0.00647623
0.00718497
0.00791504
0.00865043
0.00936971
0.0100452
0.010639
0.0111014
0.0113694
0.0113609
0.010972
0.0101006
0.00873702
0.00713706
0.00571417
0.00392139
0.00199347
0.000692066
0.000131674
1.40942e-05
1.14861e-06
2.4712e-07
2.09459e-07
2.1185e-07
2.17275e-07
2.25025e-07
2.31751e-07
2.3439e-07
2.37678e-07
2.46702e-07
2.59583e-07
2.77284e-07
1.29408e-08
4.43537e-08
5.69267e-07
3.55405e-06
1.34821e-05
3.73384e-05
8.29948e-05
0.000156972
0.000263132
0.000402573
0.000575707
0.000781729
0.00101033
0.00125914
0.00153819
0.00185026
0.00219835
0.00258584
0.00301532
0.00348666
0.00399996
0.00455607
0.00515764
0.00580369
0.00648904
0.00720581
0.00794679
0.00869913
0.00944311
0.0101523
0.0107933
0.0113201
0.0116745
0.0117825
0.0115481
0.0108612
0.00965441
0.0080559
0.00650766
0.00499161
0.00289767
0.00123507
0.000327153
4.62018e-05
4.25636e-06
4.39265e-07
2.14531e-07
2.09025e-07
2.1277e-07
2.18736e-07
2.26225e-07
2.3168e-07
2.32694e-07
2.37377e-07
2.46694e-07
2.59583e-07
2.77284e-07
1.29127e-08
4.41682e-08
5.66149e-07
3.53263e-06
1.34106e-05
3.7187e-05
8.29068e-05
0.000157159
0.000263684
0.00040366
0.000576432
0.000781861
0.00101016
0.00125895
0.0015386
0.00185199
0.00220068
0.00258735
0.00301544
0.00348746
0.00400303
0.00456143
0.00516318
0.00581031
0.00650038
0.00722582
0.0079772
0.00874395
0.00950983
0.0102501
0.0109331
0.0115175
0.0119499
0.0121621
0.0120671
0.0115559
0.0105305
0.00901597
0.007345
0.00588534
0.00391198
0.00195763
0.000673956
0.000129701
1.46864e-05
1.29519e-06
2.58072e-07
2.07828e-07
2.09534e-07
2.13582e-07
2.20224e-07
2.27323e-07
2.3062e-07
2.31319e-07
2.37268e-07
2.46692e-07
2.59583e-07
2.77284e-07
1.29076e-08
4.41202e-08
5.64444e-07
3.51755e-06
1.33453e-05
3.70288e-05
8.26449e-05
0.000157076
0.000264054
0.000404536
0.000578005
0.000783027
0.00101091
0.00125918
0.00153883
0.00185317
0.00220337
0.00259089
0.00301798
0.00348895
0.00400555
0.0045669
0.00517153
0.00581953
0.0065117
0.00724402
0.00800628
0.00878686
0.0095714
0.0103391
0.0110607
0.011697
0.0121998
0.0125057
0.0125354
0.0121867
0.0113496
0.00997645
0.00826539
0.00668568
0.00498647
0.00283917
0.00119175
0.000311021
4.47257e-05
4.38505e-06
4.74383e-07
2.15469e-07
2.06972e-07
2.09908e-07
2.14824e-07
2.21781e-07
2.27663e-07
2.29089e-07
2.30501e-07
2.37236e-07
2.46691e-07
2.59583e-07
2.77284e-07
1.29129e-08
4.41607e-08
5.64552e-07
3.51045e-06
1.33017e-05
3.68864e-05
8.23718e-05
0.000156698
0.000264017
0.000405159
0.000579282
0.00078518
0.0010128
0.00126046
0.00153961
0.00185395
0.00220539
0.00259475
0.00302292
0.0034928
0.00400888
0.00457184
0.00518025
0.00583194
0.00652581
0.00726169
0.00803307
0.00882764
0.00962997
0.0104214
0.0111771
0.0118611
0.0124267
0.0128177
0.0129597
0.0127583
0.012103
0.0109071
0.00924166
0.00752022
0.0060107
0.00383621
0.00188031
0.000635579
0.000120321
1.39957e-05
1.3157e-06
2.64591e-07
2.06608e-07
2.07132e-07
2.10686e-07
2.16197e-07
2.22991e-07
2.27502e-07
2.26988e-07
2.30152e-07
2.37227e-07
2.46692e-07
2.59584e-07
2.77284e-07
1.2918e-08
4.42349e-08
5.65761e-07
3.51403e-06
1.32861e-05
3.67979e-05
8.21275e-05
0.000156307
0.000263552
0.000405222
0.000580222
0.000786947
0.00101569
0.00126311
0.00154151
0.00185527
0.00220686
0.00259765
0.00302832
0.0034995
0.00401459
0.00457745
0.00518812
0.00584459
0.00654311
0.00728196
0.00805882
0.00886509
0.009685
0.0104989
0.0112848
0.0120107
0.012634
0.0131012
0.0133455
0.0132774
0.0127919
0.0117818
0.0102388
0.00843608
0.00682576
0.00490833
0.00272336
0.00111967
0.000283823
4.06804e-05
4.12384e-06
4.74816e-07
2.1551e-07
2.05228e-07
2.07798e-07
2.11587e-07
2.1765e-07
2.23923e-07
2.26029e-07
2.2546e-07
2.30044e-07
2.37226e-07
2.46693e-07
2.59584e-07
2.77284e-07
1.29086e-08
4.42813e-08
5.67319e-07
3.52396e-06
1.33076e-05
3.67804e-05
8.19951e-05
0.000155969
0.000263075
0.000404719
0.000580454
0.000788284
0.00101807
0.00126692
0.00154498
0.001858
0.0022089
0.0025999
0.00303249
0.0035067
0.00402342
0.00458561
0.00519634
0.00585597
0.00656039
0.00730514
0.00808655
0.00890088
0.00973562
0.0105718
0.0113856
0.0121494
0.0128243
0.013361
0.0136965
0.0137501
0.0134213
0.0125963
0.011211
0.00941168
0.00767249
0.00602547
0.00369202
0.00176033
0.000577775
0.000106452
1.2531e-05
1.23122e-06
2.62735e-07
2.05258e-07
2.05567e-07
2.08425e-07
2.12661e-07
2.19028e-07
2.23995e-07
2.24031e-07
2.24655e-07
2.30017e-07
2.37227e-07
2.46694e-07
2.59584e-07
2.77284e-07
1.28856e-08
4.42585e-08
5.68435e-07
3.53593e-06
1.33513e-05
3.68553e-05
8.19993e-05
0.000155815
0.000262678
0.000404213
0.000579978
0.000788756
0.00101987
0.00127002
0.00154987
0.00186247
0.0022127
0.00260301
0.00303578
0.00351257
0.00403269
0.00459703
0.00520761
0.00586734
0.00657627
0.00732809
0.00811731
0.0089379
0.00978419
0.0106393
0.0114801
0.0122786
0.0130006
0.0135997
0.0140178
0.0141814
0.0139963
0.0133493
0.0121446
0.0104234
0.00855889
0.00692501
0.00475456
0.0025529
0.00101735
0.000247093
3.51019e-05
3.65095e-06
4.50135e-07
2.13706e-07
2.03727e-07
2.05986e-07
2.09103e-07
2.14066e-07
2.20177e-07
2.23475e-07
2.2174e-07
2.24377e-07
2.30012e-07
2.37229e-07
2.46695e-07
2.59585e-07
2.77285e-07
1.28478e-08
4.41669e-08
5.68551e-07
3.54485e-06
1.3402e-05
3.69863e-05
8.21914e-05
0.000155893
0.000262561
0.000403831
0.000579526
0.000788388
0.00102066
0.00127242
0.00155386
0.00186854
0.00221849
0.00260813
0.00304025
0.00351756
0.00404064
0.00460886
0.0052221
0.00588221
0.00659197
0.0073496
0.00814756
0.00897792
0.0098332
0.0107032
0.0115682
0.0123996
0.0131643
0.0138206
0.0143138
0.0145767
0.0145222
0.0140417
0.0130238
0.0114401
0.00952736
0.00777548
0.00587349
0.00348417
0.0016027
0.000501414
8.91527e-05
1.05849e-05
1.09082e-06
2.55486e-07
2.03659e-07
2.03775e-07
2.06535e-07
2.09951e-07
2.15604e-07
2.209e-07
2.2134e-07
2.2035e-07
2.24308e-07
2.30013e-07
2.37231e-07
2.46696e-07
2.59585e-07
2.77285e-07
1.27922e-08
4.4004e-08
5.67701e-07
3.5477e-06
1.34407e-05
3.7133e-05
8.24881e-05
0.000156282
0.000262782
0.000403826
0.000579243
0.000788079
0.00102062
0.00127363
0.00155704
0.00187372
0.00222588
0.0026155
0.00304684
0.00352358
0.00404761
0.00461927
0.00523693
0.00590049
0.00661115
0.00737098
0.00817627
0.00901724
0.00988449
0.010767
0.0116515
0.0125127
0.0133175
0.014026
0.0145882
0.0149415
0.015005
0.0146781
0.0138448
0.0124295
0.0105471
0.00866063
0.00696931
0.00452325
0.00233831
0.00088983
0.000203529
2.84708e-05
3.03668e-06
4.11061e-07
2.11014e-07
2.02039e-07
2.04208e-07
2.06907e-07
2.11138e-07
2.16839e-07
2.20482e-07
2.18991e-07
2.19779e-07
2.24295e-07
2.30016e-07
2.37232e-07
2.46697e-07
2.59586e-07
2.77285e-07
1.27241e-08
4.37586e-08
5.65858e-07
3.54449e-06
1.34572e-05
3.72471e-05
8.28169e-05
0.000156841
0.000263456
0.000404275
0.000579442
0.000787987
0.00102071
0.00127387
0.00155881
0.00187781
0.00223237
0.00262452
0.00305587
0.00353168
0.0040553
0.00462829
0.00525045
0.00591908
0.00663418
0.0073956
0.00820458
0.00905465
0.00993465
0.0108321
0.0117333
0.0126196
0.0134605
0.0142175
0.0148429
0.0152791
0.0154512
0.015264
0.014606
0.0133765
0.0115977
0.00960675
0.00783581
0.00563715
0.00321834
0.00141803
0.000413576
7.0308e-05
8.36161e-06
9.12553e-07
2.44794e-07
2.01953e-07
2.02202e-07
2.04591e-07
2.07614e-07
2.12409e-07
2.1782e-07
2.19523e-07
2.16914e-07
2.19632e-07
2.24295e-07
2.30018e-07
2.37234e-07
2.46699e-07
2.59587e-07
2.77286e-07
1.26478e-08
4.34675e-08
5.62851e-07
3.53514e-06
1.34513e-05
3.73032e-05
8.3073e-05
0.000157445
0.000264371
0.000405322
0.000580211
0.000788493
0.00102103
0.00127432
0.00155936
0.00188033
0.00223755
0.00263251
0.0030671
0.00354277
0.00406547
0.00463816
0.00526224
0.00593653
0.00665751
0.00742413
0.00823544
0.00909127
0.00998257
0.0108953
0.0118151
0.0127229
0.0135953
0.0143962
0.0150802
0.0155922
0.0158638
0.0158058
0.0153105
0.014268
0.0126386
0.0106293
0.00872587
0.00679104
0.00421869
0.0020894
0.000747507
0.000158467
2.16934e-05
2.36292e-06
3.62993e-07
2.07577e-07
2.00638e-07
2.0262e-07
2.05101e-07
2.08413e-07
2.1381e-07
2.18095e-07
2.16537e-07
2.15972e-07
2.19608e-07
2.24298e-07
2.30021e-07
2.37237e-07
2.467e-07
2.59588e-07
2.77286e-07
1.25713e-08
4.31453e-08
5.59242e-07
3.5185e-06
1.34229e-05
3.72996e-05
8.32076e-05
0.000157915
0.000265335
0.000406675
0.000581721
0.00078969
0.00102212
0.0012751
0.00156016
0.0018814
0.00224105
0.00263915
0.00307702
0.00355642
0.0040791
0.00465094
0.0052749
0.00595197
0.00667923
0.00745302
0.00827027
0.00912984
0.0100291
0.010956
0.0118942
0.0128249
0.0137246
0.0145649
0.015302
0.0158838
0.016246
0.0163069
0.0159629
0.0151
0.0136436
0.0116867
0.00965417
0.00781942
0.00530548
0.00290212
0.00121439
0.000324231
5.2336e-05
6.20467e-06
7.25752e-07
2.32229e-07
2.00274e-07
2.00812e-07
2.03063e-07
2.05526e-07
2.09603e-07
2.14712e-07
2.16525e-07
2.14143e-07
2.15705e-07
2.19607e-07
2.24301e-07
2.30025e-07
2.37239e-07
2.46701e-07
2.59589e-07
2.77287e-07
1.24951e-08
4.28201e-08
5.55166e-07
3.49807e-06
1.33675e-05
3.72376e-05
8.32214e-05
0.000158181
0.00026609
0.000408074
0.000583593
0.00079176
0.00102399
0.00127666
0.00156152
0.00188265
0.00224281
0.00264362
0.00308518
0.00356844
0.00409524
0.00466735
0.00529072
0.00596793
0.00669892
0.00747989
0.00830582
0.00917257
0.0100773
0.0110144
0.0119702
0.0129232
0.0138511
0.0147255
0.0155112
0.0161565
0.0166014
0.0167702
0.0165667
0.0158747
0.014596
0.0127516
0.0106372
0.00871467
0.00644897
0.00384146
0.00181303
0.000599044
0.000116885
1.56006e-05
1.74015e-06
3.14932e-07
2.03896e-07
1.99285e-07
2.01218e-07
2.03421e-07
2.06155e-07
2.1094e-07
2.14899e-07
2.14711e-07
2.1274e-07
2.1566e-07
2.1961e-07
2.24306e-07
2.30028e-07
2.37241e-07
2.46703e-07
2.5959e-07
2.77287e-07
1.24244e-08
4.25076e-08
5.51054e-07
3.47474e-06
1.32978e-05
3.71039e-05
8.31146e-05
0.000158231
0.000266527
0.000409166
0.000585492
0.000794234
0.00102678
0.00127926
0.0015638
0.00188459
0.00224467
0.00264606
0.0030908
0.00357839
0.00410977
0.00468643
0.00531041
0.00598712
0.00671892
0.00750439
0.00833899
0.00921561
0.0101295
0.0110745
0.0120432
0.0130177
0.0139724
0.0148815
0.0157089
0.0164124
0.0169337
0.0172003
0.0171245
0.016595
0.015495
0.013788
0.0116675
0.00963065
0.00763222
0.00488353
0.00254396
0.000996909
0.000240733
3.68532e-05
4.35503e-06
5.60608e-07
2.20257e-07
1.98558e-07
1.99493e-07
2.01574e-07
2.03865e-07
2.07334e-07
2.12084e-07
2.14919e-07
2.11607e-07
2.12331e-07
2.15657e-07
2.19615e-07
2.2431e-07
2.30031e-07
2.37243e-07
2.46705e-07
2.59591e-07
2.77288e-07
1.23609e-08
4.22216e-08
5.47083e-07
3.45069e-06
1.32168e-05
3.69335e-05
8.28601e-05
0.000158076
0.000266643
0.00040982
0.000586973
0.000796701
0.00102996
0.00128284
0.00156714
0.00188768
0.00224727
0.00264875
0.00309423
0.00358565
0.00412216
0.00470405
0.00533294
0.00601057
0.00674184
0.00752924
0.00836916
0.00925637
0.0101816
0.011138
0.0121171
0.0131087
0.0140893
0.0150298
0.0158992
0.0166546
0.0172453
0.0176023
0.017642
0.0172614
0.0163402
0.0147936
0.0127192
0.0105643
0.00862647
0.00600577
0.00340496
0.00151697
0.00045307
8.14846e-05
1.05945e-05
1.22762e-06
2.7415e-07
2.0045e-07
1.97943e-07
1.99816e-07
2.01982e-07
2.04483e-07
2.08557e-07
2.12893e-07
2.12075e-07
2.09949e-07
2.12259e-07
2.15661e-07
2.19619e-07
2.24313e-07
2.30034e-07
2.37246e-07
2.46707e-07
2.59593e-07
2.77289e-07
1.23076e-08
4.1973e-08
5.43437e-07
3.42738e-06
1.31334e-05
3.67332e-05
8.25293e-05