/*--------------------------------*- C++ -*----------------------------------*\
| =========                 |                                                 |
| \\      /  F ield         | OpenFOAM: The Open Source CFD Toolbox           |
|  \\    /   O peration     | Version:  v2012                                 |
|   \\  /    A nd           | Website:  www.openfoam.com                      |
|    \\/     M anipulation  |                                                 |
\*---------------------------------------------------------------------------*/
FoamFile
{
    version     2.0;
    format      ascii;
    class       volScalarField;
    location    "6700";
    object      omega;
}
// * * * * * * * * * * * * * * * * * * * * * * * * * * * * * * * * * * * * * //

dimensions      [0 0 -1 0 0 0 0];


internalField   nonuniform List<scalar> 
39402
(
1.09855e+09
1.34101e+09
2.8247e+08
1.64978e+09
2.48011e+08
1.58247e+08
1.71487e+09
2.91855e+08
9.42687e+07
1.24491e+08
1.76465e+09
3.16248e+08
1.04767e+08
5.29337e+07
1.10792e+08
1.77667e+09
3.27183e+08
1.15091e+08
5.45984e+07
3.69415e+07
1.01578e+08
1.77446e+09
3.30903e+08
1.19661e+08
5.86553e+07
3.4674e+07
2.95784e+07
9.56471e+07
1.77725e+09
3.31486e+08
1.21535e+08
6.11846e+07
3.63968e+07
2.52158e+07
2.57346e+07
9.11727e+07
1.77259e+09
3.32587e+08
1.22101e+08
6.23495e+07
3.79827e+07
2.5751e+07
2.02134e+07
2.34803e+07
8.73378e+07
1.77143e+09
3.32164e+08
1.22714e+08
6.27924e+07
3.87756e+07
2.67662e+07
1.9997e+07
1.73603e+07
2.19795e+07
8.38604e+07
1.77303e+09
3.32222e+08
1.22728e+08
6.31931e+07
3.91149e+07
2.73043e+07
2.05835e+07
1.66014e+07
1.56181e+07
2.08367e+07
8.06326e+07
1.77628e+09
3.32661e+08
1.22863e+08
6.32739e+07
3.93975e+07
2.75517e+07
2.09095e+07
1.68188e+07
1.44533e+07
1.44671e+07
1.98146e+07
7.76066e+07
1.77791e+09
3.33319e+08
1.23088e+08
6.33891e+07
3.94791e+07
2.77523e+07
2.10668e+07
1.6949e+07
1.43345e+07
1.30094e+07
1.36219e+07
1.87467e+07
7.47601e+07
1.78119e+09
3.33678e+08
1.23367e+08
6.35242e+07
3.95672e+07
2.78173e+07
2.12004e+07
1.70159e+07
1.42788e+07
1.25851e+07
1.19766e+07
1.29174e+07
1.78131e+07
7.20725e+07
1.78477e+09
3.34315e+08
1.23533e+08
6.36717e+07
3.96514e+07
2.78807e+07
2.12426e+07
1.70892e+07
1.42566e+07
1.23586e+07
1.12812e+07
1.11814e+07
1.22548e+07
1.71437e+07
6.95213e+07
1.78756e+09
3.34993e+08
1.23795e+08
6.37637e+07
3.97343e+07
2.79313e+07
2.1283e+07
1.71057e+07
1.42736e+07
1.22499e+07
1.09044e+07
1.02557e+07
1.05075e+07
1.15609e+07
1.66823e+07
6.7095e+07
1.79051e+09
3.35528e+08
1.24066e+08
6.38991e+07
3.97835e+07
2.79762e+07
2.13107e+07
1.71255e+07
1.42637e+07
1.22137e+07
1.0716e+07
9.75248e+06
9.40701e+06
9.86481e+06
1.07604e+07
1.63609e+07
6.47785e+07
1.79487e+09
3.36094e+08
1.24287e+08
6.40356e+07
3.98558e+07
2.79989e+07
2.13315e+07
1.71356e+07
1.42638e+07
1.21776e+07
1.0631e+07
9.49419e+06
8.80505e+06
8.66892e+06
9.18172e+06
9.87547e+06
1.61361e+07
6.25579e+07
1.79921e+09
3.369e+08
1.24518e+08
6.41487e+07
3.99278e+07
2.8035e+07
2.13368e+07
1.71407e+07
1.426e+07
1.21588e+07
1.057e+07
9.36571e+06
8.48868e+06
8.00151e+06
7.99374e+06
8.43009e+06
9.04045e+06
1.6015e+07
6.03844e+07
1.80255e+09
3.37702e+08
1.24831e+08
6.42665e+07
3.99864e+07
2.80697e+07
2.13513e+07
1.71349e+07
1.4254e+07
1.21427e+07
1.05335e+07
9.28182e+06
8.32228e+06
7.6403e+06
7.30212e+06
7.35163e+06
7.64134e+06
8.32658e+06
1.60059e+07
5.82525e+07
1.8053e+09
3.38326e+08
1.25143e+08
6.44224e+07
4.00478e+07
2.80971e+07
2.13644e+07
1.7136e+07
1.42405e+07
1.21277e+07
1.05066e+07
9.22948e+06
8.21727e+06
7.44197e+06
6.91098e+06
6.68078e+06
6.73377e+06
6.8935e+06
7.73902e+06
1.60649e+07
5.61548e+07
1.80856e+09
3.38857e+08
1.25391e+08
6.45772e+07
4.01299e+07
2.81261e+07
2.13731e+07
1.71365e+07
1.42331e+07
1.21082e+07
1.04843e+07
9.19319e+06
8.15069e+06
7.31785e+06
6.687e+06
6.27527e+06
6.11873e+06
6.13756e+06
6.24067e+06
7.26081e+06
1.56957e+07
5.42464e+07
1.81229e+09
3.39477e+08
1.2561e+08
6.47034e+07
4.02115e+07
2.81677e+07
2.13831e+07
1.71344e+07
1.4226e+07
1.20947e+07
1.04602e+07
9.16494e+06
8.10597e+06
7.23856e+06
6.54636e+06
6.03211e+06
5.71428e+06
5.59827e+06
5.57275e+06
5.68166e+06
6.83209e+06
1.52118e+07
5.26765e+07
1.8152e+09
3.40152e+08
1.25857e+08
6.48158e+07
4.0278e+07
2.82088e+07
2.14014e+07
1.71336e+07
1.42177e+07
1.20826e+07
1.04423e+07
9.13746e+06
8.07252e+06
7.18611e+06
6.45569e+06
5.87779e+06
5.45905e+06
5.21168e+06
5.10721e+06
5.0622e+06
5.18978e+06
6.46336e+06
1.47112e+07
5.1637e+07
1.81789e+09
3.4071e+08
1.26122e+08
6.4941e+07
4.03373e+07
2.82416e+07
2.14195e+07
1.71388e+07
1.42109e+07
1.20704e+07
1.04266e+07
9.11654e+06
8.04227e+06
7.14787e+06
6.39603e+06
5.77712e+06
5.29421e+06
4.95318e+06
4.75368e+06
4.65581e+06
4.60742e+06
4.74118e+06
6.16788e+06
1.41869e+07
5.12036e+07
1.82069e+09
3.412e+08
1.26344e+08
6.50735e+07
4.04035e+07
2.82704e+07
2.14326e+07
1.7144e+07
1.42089e+07
1.20601e+07
1.04116e+07
9.09838e+06
8.0191e+06
7.11515e+06
6.3533e+06
5.71076e+06
5.1851e+06
4.78192e+06
4.50234e+06
4.33769e+06
4.26185e+06
4.19966e+06
4.32184e+06
5.93413e+06
1.3651e+07
5.12377e+07
1.82364e+09
3.41708e+08
1.26539e+08
6.51858e+07
4.04734e+07
2.83034e+07
2.14436e+07
1.7146e+07
1.4207e+07
1.20539e+07
1.03986e+07
9.08134e+06
7.99927e+06
7.09013e+06
6.31822e+06
5.66368e+06
5.1126e+06
4.66625e+06
4.32975e+06
4.09948e+06
3.97519e+06
3.9149e+06
3.83056e+06
3.92937e+06
5.74579e+06
1.31504e+07
5.14735e+07
1.82616e+09
3.42245e+08
1.26738e+08
6.52842e+07
4.05323e+07
2.83386e+07
2.14574e+07
1.7147e+07
1.42029e+07
1.2048e+07
1.03896e+07
9.06666e+06
7.981e+06
7.06906e+06
6.2915e+06
5.62622e+06
5.06131e+06
4.58835e+06
4.20996e+06
3.92958e+06
3.7482e+06
3.66148e+06
3.59024e+06
3.49202e+06
3.57532e+06
5.58154e+06
1.27076e+07
5.18961e+07
1.82855e+09
3.42707e+08
1.26943e+08
6.53822e+07
4.05833e+07
2.83672e+07
2.14725e+07
1.71499e+07
1.41984e+07
1.20405e+07
1.0381e+07
9.05568e+06
7.96538e+06
7.04998e+06
6.2694e+06
5.59782e+06
5.02146e+06
4.53308e+06
4.12767e+06
3.80789e+06
3.58042e+06
3.44532e+06
3.37466e+06
3.27851e+06
3.16727e+06
3.28123e+06
5.4405e+06
1.23465e+07
5.24212e+07
1.83093e+09
3.43121e+08
1.2712e+08
6.54828e+07
4.06334e+07
2.83912e+07
2.14837e+07
1.71538e+07
1.41955e+07
1.2033e+07
1.03714e+07
9.04554e+06
7.95344e+06
7.03384e+06
6.2497e+06
5.57468e+06
4.9913e+06
4.49079e+06
4.06882e+06
3.72226e+06
3.45671e+06
3.27835e+06
3.17432e+06
3.10595e+06
2.97719e+06
2.84478e+06
3.07167e+06
5.32114e+06
1.20438e+07
5.31371e+07
1.83322e+09
3.43523e+08
1.27276e+08
6.55683e+07
4.06845e+07
2.84143e+07
2.14918e+07
1.7155e+07
1.41933e+07
1.20268e+07
1.03618e+07
9.03454e+06
7.94254e+06
7.02137e+06
6.23321e+06
5.5544e+06
4.96704e+06
4.45882e+06
4.02408e+06
3.66026e+06
3.36751e+06
3.15167e+06
3.01104e+06
2.92814e+06
2.84767e+06
2.6919e+06
2.52809e+06
2.94037e+06
5.233e+06
1.19236e+07
5.39529e+07
1.83461e+09
3.439e+08
1.2742e+08
6.56418e+07
4.07268e+07
2.84379e+07
2.14993e+07
1.71543e+07
1.41892e+07
1.20214e+07
1.03537e+07
9.02395e+06
7.93113e+06
7.01022e+06
6.22041e+06
5.53757e+06
4.94613e+06
4.43334e+06
3.99023e+06
3.61316e+06
3.30178e+06
3.05828e+06
2.88309e+06
2.77269e+06
2.69973e+06
2.59419e+06
2.42058e+06
2.24035e+06
2.86749e+06
5.16241e+06
1.18784e+07
5.48187e+07
1.83606e+09
3.44127e+08
1.27552e+08
6.57073e+07
4.07612e+07
2.84557e+07
2.15069e+07
1.7153e+07
1.41838e+07
1.20144e+07
1.03463e+07
9.01473e+06
7.92021e+06
6.99877e+06
6.20918e+06
5.52449e+06
4.92892e+06
4.4117e+06
3.96342e+06
3.57739e+06
3.25183e+06
2.98814e+06
2.78649e+06
2.64576e+06
2.55756e+06
2.48203e+06
2.34512e+06
2.15106e+06
2.01809e+06
2.82697e+06
5.08753e+06
1.18187e+07
5.5625e+07
1.83772e+09
3.44326e+08
1.27626e+08
6.57648e+07
4.07902e+07
2.84685e+07
2.15106e+07
1.71518e+07
1.41779e+07
1.20065e+07
1.03376e+07
9.00623e+06
7.91069e+06
6.98791e+06
6.19788e+06
5.51324e+06
4.9155e+06
4.39399e+06
3.94091e+06
3.54913e+06
3.21383e+06
2.93483e+06
2.71279e+06
2.54727e+06
2.43474e+06
2.35982e+06
2.26884e+06
2.10791e+06
1.88031e+06
1.88029e+06
2.7983e+06
5.00894e+06
1.17404e+07
5.63009e+07
1.83972e+09
3.44565e+08
1.27685e+08
6.57939e+07
4.08136e+07
2.84773e+07
2.15111e+07
1.71479e+07
1.41721e+07
1.19983e+07
1.03282e+07
8.99673e+06
7.90191e+06
6.97847e+06
6.18723e+06
5.50211e+06
4.90414e+06
4.38014e+06
3.92261e+06
3.52565e+06
3.18391e+06
2.89424e+06
2.65641e+06
2.4707e+06
2.33606e+06
2.24513e+06
2.17341e+06
2.05777e+06
1.87974e+06
1.62888e+06
1.80974e+06
2.77181e+06
4.93126e+06
1.16566e+07
5.68453e+07
1.84092e+09
3.4485e+08
1.27752e+08
6.58118e+07
4.08205e+07
2.84822e+07
2.15084e+07
1.71415e+07
1.41641e+07
1.19902e+07
1.03187e+07
8.98674e+06
7.89235e+06
6.96984e+06
6.17803e+06
5.49173e+06
4.89315e+06
4.36857e+06
3.90822e+06
3.50664e+06
3.15927e+06
2.86236e+06
2.61324e+06
2.41155e+06
2.25763e+06
2.14857e+06
2.0719e+06
1.9923e+06
1.85342e+06
1.64845e+06
1.43357e+06
1.77557e+06
2.7432e+06
4.86221e+06
1.15821e+07
5.73322e+07
1.84112e+09
3.44985e+08
1.27829e+08
6.58303e+07
4.08198e+07
2.84766e+07
2.1503e+07
1.71328e+07
1.41543e+07
1.19802e+07
1.03093e+07
8.97672e+06
7.88238e+06
6.96056e+06
6.1697e+06
5.48282e+06
4.88302e+06
4.35762e+06
3.89631e+06
3.49162e+06
3.13939e+06
2.83635e+06
2.57935e+06
2.36595e+06
2.19621e+06
2.0696e+06
1.98049e+06
1.90975e+06
1.81238e+06
1.65684e+06
1.41568e+06
1.31617e+06
1.75478e+06
2.71307e+06
4.80344e+06
1.15308e+07
5.76604e+07
1.8413e+09
3.44937e+08
1.27848e+08
6.58513e+07
4.08179e+07
2.84658e+07
2.14906e+07
1.71221e+07
1.41429e+07
1.19689e+07
1.02984e+07
8.96678e+06
7.87246e+06
6.95096e+06
6.1609e+06
5.47482e+06
4.87434e+06
4.34764e+06
3.88529e+06
3.47925e+06
3.12361e+06
2.81542e+06
2.55181e+06
2.33004e+06
2.1484e+06
2.00665e+06
1.9028e+06
1.8275e+06
1.75317e+06
1.63554e+06
1.46008e+06
1.20722e+06
1.25977e+06
1.73822e+06
2.68211e+06
4.75161e+06
1.15518e+07
5.78088e+07
1.84232e+09
3.44864e+08
1.278e+08
6.58434e+07
4.08159e+07
2.84531e+07
2.14744e+07
1.71063e+07
1.41299e+07
1.19565e+07
1.02864e+07
8.95562e+06
7.86271e+06
6.94146e+06
6.15177e+06
5.46647e+06
4.86661e+06
4.33913e+06
3.87538e+06
3.46803e+06
3.11065e+06
2.79872e+06
2.52971e+06
2.30094e+06
2.11056e+06
1.95701e+06
1.83935e+06
1.75347e+06
1.68506e+06
1.59792e+06
1.46527e+06
1.25741e+06
1.05713e+06
1.23402e+06
1.7247e+06
2.65586e+06
4.73052e+06
1.16773e+07
5.78839e+07
1.84345e+09
3.44927e+08
1.27734e+08
6.58014e+07
4.0797e+07
2.84398e+07
2.14562e+07
1.70877e+07
1.41129e+07
1.19427e+07
1.02738e+07
8.94351e+06
7.85188e+06
6.93215e+06
6.14282e+06
5.45787e+06
4.8587e+06
4.3316e+06
3.86691e+06
3.45807e+06
3.09912e+06
2.78504e+06
2.51198e+06
2.27758e+06
2.0799e+06
1.91741e+06
1.78846e+06
1.69096e+06
1.61787e+06
1.54846e+06
1.44603e+06
1.29695e+06
1.0606e+06
973594
1.22071e+06
1.71367e+06
2.64032e+06
4.73394e+06
1.18369e+07
5.79258e+07
1.84397e+09
3.45011e+08
1.27712e+08
6.57477e+07
4.07586e+07
2.84156e+07
2.14372e+07
1.70674e+07
1.40938e+07
1.19259e+07
1.02601e+07
8.93108e+06
7.84021e+06
6.92194e+06
6.13409e+06
5.4495e+06
4.85059e+06
4.32404e+06
3.8595e+06
3.44957e+06
3.089e+06
2.77306e+06
2.49746e+06
2.25879e+06
2.05526e+06
1.88524e+06
1.7474e+06
1.63964e+06
1.55816e+06
1.49203e+06
1.41372e+06
1.29923e+06
1.1225e+06
899369
936092
1.21243e+06
1.70513e+06
2.6282e+06
4.74041e+06
1.19924e+07
5.79425e+07
1.84343e+09
3.44976e+08
1.27692e+08
6.57121e+07
4.07122e+07
2.83795e+07
2.14109e+07
1.70461e+07
1.40731e+07
1.19073e+07
1.02438e+07
8.91771e+06
7.82813e+06
6.91098e+06
6.1246e+06
5.44136e+06
4.84275e+06
4.31635e+06
3.85219e+06
3.44216e+06
3.08039e+06
2.76262e+06
2.48491e+06
2.24337e+06
2.03534e+06
1.85931e+06
1.71386e+06
1.59758e+06
1.50756e+06
1.43762e+06
1.37182e+06
1.28246e+06
1.15344e+06
945157
797437
920411
1.20672e+06
1.6993e+06
2.61814e+06
4.74663e+06
1.21323e+07
5.79534e+07
1.8424e+09
3.44745e+08
1.27627e+08
6.56759e+07
4.06746e+07
2.83378e+07
2.13768e+07
1.70194e+07
1.40515e+07
1.18872e+07
1.0226e+07
8.90201e+06
7.81524e+06
6.89953e+06
6.11441e+06
5.43257e+06
4.83516e+06
4.30896e+06
3.84484e+06
3.43499e+06
3.07289e+06
2.75376e+06
2.47404e+06
2.23016e+06
2.01898e+06
1.83826e+06
1.68669e+06
1.56291e+06
1.46521e+06
1.38929e+06
1.32586e+06
1.2539e+06
1.15499e+06
1.00213e+06
787780
748196
913266
1.20314e+06
1.69566e+06
2.60684e+06
4.75039e+06
1.22559e+07
5.79586e+07
1.84231e+09
3.44432e+08
1.27491e+08
6.56165e+07
4.06355e+07
2.83008e+07
2.13386e+07
1.69875e+07
1.40257e+07
1.18664e+07
1.02071e+07
8.88508e+06
7.80034e+06
6.88738e+06
6.10372e+06
5.42315e+06
4.82703e+06
4.30186e+06
3.83782e+06
3.42789e+06
3.06577e+06
2.74608e+06
2.46482e+06
2.21882e+06
2.00506e+06
1.82093e+06
1.66452e+06
1.53462e+06
1.4298e+06
1.34762e+06
1.28185e+06
1.21917e+06
1.13945e+06
1.02764e+06
844838
678352
728500
909626
1.20072e+06
1.69268e+06
2.59793e+06
4.75919e+06
1.2352e+07
5.79581e+07
1.84299e+09
3.44262e+08
1.27322e+08
6.55221e+07
4.05828e+07
2.82621e+07
2.13031e+07
1.69525e+07
1.39961e+07
1.18421e+07
1.01873e+07
8.86718e+06
7.7844e+06
6.87348e+06
6.09244e+06
5.41326e+06
4.81831e+06
4.29428e+06
3.83107e+06
3.42115e+06
3.05881e+06
2.73889e+06
2.45686e+06
2.20921e+06
1.99318e+06
1.80625e+06
1.64619e+06
1.51138e+06
1.4006e+06
1.31206e+06
1.24216e+06
1.18212e+06
1.11517e+06
1.02781e+06
895254
698309
621060
721055
907456
1.1991e+06
1.68884e+06
2.60014e+06
4.77807e+06
1.24217e+07
5.79583e+07
1.84378e+09
3.44223e+08
1.272e+08
6.54108e+07
4.05104e+07
2.82146e+07
2.12659e+07
1.69191e+07
1.39641e+07
1.18147e+07
1.01646e+07
8.84857e+06
7.76764e+06
6.85864e+06
6.07959e+06
5.40284e+06
4.80919e+06
4.2862e+06
3.82399e+06
3.41468e+06
3.05226e+06
2.73198e+06
2.44953e+06
2.20091e+06
1.98311e+06
1.79377e+06
1.63072e+06
1.49208e+06
1.3764e+06
1.28229e+06
1.20731e+06
1.14619e+06
1.08679e+06
1.01457e+06
915746
755905
589767
597467
717983
905977
1.19833e+06
1.6834e+06
2.60414e+06
4.81122e+06
1.24643e+07
5.79545e+07
1.8439e+09
3.44209e+08
1.27118e+08
6.53195e+07
4.04279e+07
2.81553e+07
2.12229e+07
1.68842e+07
1.39331e+07
1.17854e+07
1.01394e+07
8.82737e+06
7.75023e+06
6.84313e+06
6.06589e+06
5.39102e+06
4.79957e+06
4.27778e+06
3.81647e+06
3.40801e+06
3.04601e+06
2.72553e+06
2.44257e+06
2.19337e+06
1.97443e+06
1.7832e+06
1.6176e+06
1.47579e+06
1.35618e+06
1.25734e+06
1.17751e+06
1.11319e+06
1.05688e+06
994511
916012
798811
622462
529243
588908
716311
905074
1.19741e+06
1.68077e+06
2.60811e+06
4.85488e+06
1.24799e+07
5.79482e+07
1.843e+09
3.44068e+08
1.27044e+08
6.52455e+07
4.03555e+07
2.80895e+07
2.11724e+07
1.68451e+07
1.39009e+07
1.17569e+07
1.01125e+07
8.80398e+06
7.7305e+06
6.82704e+06
6.05162e+06
5.37843e+06
4.78874e+06
4.26891e+06
3.80867e+06
3.40096e+06
3.03964e+06
2.7194e+06
2.43614e+06
2.18631e+06
1.96662e+06
1.77409e+06
1.6065e+06
1.46201e+06
1.33909e+06
1.23631e+06
1.15213e+06
1.08412e+06
1.02728e+06
971282
905444
816574
674735
519451
503062
585665
715411
904324
1.19612e+06
1.6777e+06
2.61111e+06
4.90593e+06
1.24851e+07
5.79406e+07
1.8402e+09
3.43752e+08
1.26924e+08
6.51745e+07
4.02918e+07
2.80295e+07
2.11175e+07
1.68009e+07
1.38653e+07
1.17273e+07
1.00863e+07
8.7793e+06
7.70882e+06
6.80886e+06
6.03682e+06
5.36535e+06
4.77717e+06
4.25897e+06
3.80045e+06
3.39368e+06
3.03297e+06
2.71326e+06
2.43008e+06
2.17984e+06
1.95939e+06
1.76595e+06
1.59692e+06
1.45033e+06
1.32463e+06
1.21846e+06
1.13049e+06
1.0588e+06
999980
947058
888983
817788
712218
554119
459072
493367
584312
714772
903784
1.19534e+06
1.67597e+06
2.61489e+06
4.94541e+06
1.24883e+07
5.79311e+07
1.83788e+09
3.43105e+08
1.26745e+08
6.50816e+07
4.02295e+07
2.79741e+07
2.10662e+07
1.67538e+07
1.38262e+07
1.1695e+07
1.00592e+07
8.75516e+06
7.68611e+06
6.78887e+06
6.02018e+06
5.35181e+06
4.7652e+06
4.24835e+06
3.7913e+06
3.38603e+06
3.02613e+06
2.70688e+06
2.42407e+06
2.17377e+06
1.95283e+06
1.75852e+06
1.58842e+06
1.44027e+06
1.31237e+06
1.20334e+06
1.11198e+06
1.03685e+06
975421
922900
869871
809617
728860
600903
458958
431713
489960
583658
714199
903469
1.19344e+06
1.67867e+06
2.6262e+06
4.96862e+06
1.24896e+07
5.79209e+07
1.83621e+09
3.42543e+08
1.26452e+08
6.49611e+07
4.01547e+07
2.79193e+07
2.10174e+07
1.6709e+07
1.37848e+07
1.16598e+07
1.00298e+07
8.73022e+06
7.66384e+06
6.76801e+06
6.00183e+06
5.33661e+06
4.75284e+06
4.23739e+06
3.78153e+06
3.37756e+06
3.01897e+06
2.7004e+06
2.41791e+06
2.16784e+06
1.94671e+06
1.75181e+06
1.58073e+06
1.43138e+06
1.30179e+06
1.19048e+06
1.09623e+06
1.01788e+06
953640
900027
850609
796138
731088
634791
492081
401827
421414
488705
583144
713522
903114
1.1924e+06
1.68339e+06
2.64618e+06
4.979e+06
1.24899e+07
5.79101e+07
1.83597e+09
3.42084e+08
1.26188e+08
6.47879e+07
4.00657e+07
2.78571e+07
2.09689e+07
1.66657e+07
1.37452e+07
1.1623e+07
9.99795e+06
8.70324e+06
7.64095e+06
6.74756e+06
5.98274e+06
5.3198e+06
4.73898e+06
4.2261e+06
3.7715e+06
3.36855e+06
3.01111e+06
2.69365e+06
2.41171e+06
2.16184e+06
1.9408e+06
1.74559e+06
1.57384e+06
1.4234e+06
1.29248e+06
1.17939e+06
1.0828e+06
1.00161e+06
934494
879075
830582
780762
724923
650873
534058
405930
375352
417861
488114
582755
713040
902652
1.19212e+06
1.68676e+06
2.66881e+06
4.98118e+06
1.24906e+07
5.79018e+07
1.83703e+09
3.41874e+08
1.25958e+08
6.4628e+07
3.99483e+07
2.7787e+07
2.09156e+07
1.66225e+07
1.37065e+07
1.15876e+07
9.96489e+06
8.67423e+06
7.61619e+06
6.72663e+06
5.96396e+06
5.30234e+06
4.72358e+06
4.21346e+06
3.76115e+06
3.35933e+06
3.00276e+06
2.68631e+06
2.4053e+06
2.15585e+06
1.93489e+06
1.73965e+06
1.56748e+06
1.41629e+06
1.28418e+06
1.16965e+06
1.0712e+06
987655
917874
860214
811350
764906
714371
654041
565207
435998
353939
365224
416620
487788
582367
712745
902749
1.19288e+06
1.69105e+06
2.68654e+06
4.98116e+06
1.24907e+07
5.78937e+07
1.83853e+09
3.41908e+08
1.25813e+08
6.44839e+07
3.98384e+07
2.77002e+07
2.0858e+07
1.6576e+07
1.36678e+07
1.1553e+07
9.93293e+06
8.64425e+06
7.58961e+06
6.70396e+06
5.94485e+06
5.28516e+06
4.70763e+06
4.19937e+06
3.74962e+06
3.34984e+06
2.99425e+06
2.67855e+06
2.39839e+06
2.1497e+06
1.92906e+06
1.73379e+06
1.56147e+06
1.40976e+06
1.27682e+06
1.161e+06
1.06101e+06
975554
903507
843542
793417
748576
702025
650046
581076
473350
359159
329623
361755
416141
487504
581984
712593
902521
1.1965e+06
1.69875e+06
2.69462e+06
4.98134e+06
1.249e+07
5.78877e+07
1.83993e+09
3.42026e+08
1.25754e+08
6.43798e+07
3.97368e+07
2.76184e+07
2.07897e+07
1.6527e+07
1.36268e+07
1.15182e+07
9.90167e+06
8.61514e+06
7.56228e+06
6.67961e+06
5.92414e+06
5.26768e+06
4.6919e+06
4.18478e+06
3.73673e+06
3.33931e+06
2.98551e+06
2.67066e+06
2.39114e+06
2.14316e+06
1.92311e+06
1.72806e+06
1.5556e+06
1.40363e+06
1.27009e+06
1.15335e+06
1.05201e+06
964937
890976
828947
777139
732442
688806
642261
585582
502277
385110
313149
320265
360602
415847
487173
581694
712864
903184
1.2004e+06
1.70981e+06
2.69621e+06
4.9819e+06
1.24897e+07
5.78827e+07
1.84066e+09
3.4212e+08
1.25727e+08
6.4316e+07
3.9657e+07
2.75416e+07
2.07255e+07
1.6471e+07
1.35841e+07
1.14815e+07
9.87027e+06
8.58681e+06
7.5357e+06
6.65463e+06
5.9018e+06
5.24877e+06
4.67595e+06
4.17039e+06
3.72342e+06
3.32753e+06
2.97587e+06
2.66257e+06
2.3838e+06
2.13633e+06
1.91687e+06
1.72227e+06
1.54993e+06
1.39773e+06
1.26383e+06
1.14641e+06
1.04406e+06
955564
879951
816101
762622
717169
675575
632106
583843
518571
418047
317456
291741
317105
360202
415592
487036
581629
713472
904650
1.20407e+06
1.72056e+06
2.69555e+06
4.9823e+06
1.24898e+07
5.78774e+07
1.84016e+09
3.42104e+08
1.25693e+08
6.42684e+07
3.95995e+07
2.74777e+07
2.06642e+07
1.64181e+07
1.35363e+07
1.14436e+07
9.83719e+06
8.55834e+06
7.50992e+06
6.6304e+06
5.87897e+06
5.22834e+06
4.65871e+06
4.15584e+06
3.71025e+06
3.31538e+06
2.96511e+06
2.65373e+06
2.37628e+06
2.12946e+06
1.9104e+06
1.71627e+06
1.54425e+06
1.39207e+06
1.25785e+06
1.13998e+06
1.03688e+06
947309
870218
804732
749655
703168
662075
621090
578075
524785
445477
338847
277920
283558
316110
359986
415486
486878
582105
714168
907366
1.20805e+06
1.72487e+06
2.69509e+06
4.98283e+06
1.24905e+07
5.7878e+07
1.83831e+09
3.41894e+08
1.25624e+08
6.42188e+07
3.95519e+07
2.74271e+07
2.06114e+07
1.63675e+07
1.34914e+07
1.1402e+07
9.80327e+06
8.52834e+06
7.48399e+06
6.60686e+06
5.85682e+06
5.20747e+06
4.64003e+06
4.14015e+06
3.69697e+06
3.30332e+06
2.95401e+06
2.64388e+06
2.36813e+06
2.12244e+06
1.90392e+06
1.7101e+06
1.53843e+06
1.38647e+06
1.25218e+06
1.13391e+06
1.03027e+06
939871
861656
794673
738062
690391
649191
610218
569792
524720
462408
367923
280366
259817
280849
315775
359890
415373
486949
582214
715580
911052
1.21415e+06
1.72489e+06
2.69528e+06
4.9835e+06
1.24913e+07
5.78786e+07
1.83535e+09
3.41456e+08
1.25496e+08
6.41541e+07
3.95033e+07
2.7383e+07
2.05669e+07
1.63225e+07
1.34482e+07
1.13628e+07
9.76625e+06
8.49756e+06
7.4567e+06
6.5832e+06
5.83534e+06
5.18717e+06
4.62093e+06
4.12308e+06
3.68269e+06
3.29117e+06
2.94296e+06
2.63372e+06
2.35909e+06
2.1149e+06
1.89734e+06
1.70395e+06
1.53251e+06
1.38079e+06
1.2466e+06
1.12819e+06
1.02407e+06
933069
853957
785813
727748
678783
637047
599223
560875
520597
470097
393920
297475
247384
253047
279999
315663
359831
415342
486541
583203
717235
914255
1.21992e+06
1.72368e+06
2.69581e+06
4.984e+06
1.2492e+07
5.78795e+07
1.83235e+09
3.40833e+08
1.25293e+08
6.40651e+07
3.94479e+07
2.73383e+07
2.05267e+07
1.62833e+07
1.34093e+07
1.13251e+07
9.73145e+06
8.46426e+06
7.42864e+06
6.55837e+06
5.81374e+06
5.16756e+06
4.60236e+06
4.10562e+06
3.66712e+06
3.27818e+06
2.93182e+06
2.62357e+06
2.34977e+06
2.10657e+06
1.89032e+06
1.69773e+06
1.52664e+06
1.37506e+06
1.24102e+06
1.12261e+06
1.01827e+06
926721
846941
777856
718631
668348
625743
588311
551767
514394
471452
411363
322527
247973
232750
250841
279744
315599
359838
415107
486978
584262
720044
917110
1.22093e+06
1.72316e+06
2.69641e+06
4.9847e+06
1.24933e+07
5.78838e+07
1.8294e+09
3.40187e+08
1.25029e+08
6.39432e+07
3.93805e+07
2.72908e+07
2.04866e+07
1.62471e+07
1.33745e+07
1.12909e+07
9.69802e+06
8.43294e+06
7.3984e+06
6.53275e+06
5.79112e+06
5.14789e+06
4.58449e+06
4.08865e+06
3.65119e+06
3.264e+06
2.91999e+06
2.61338e+06
2.34045e+06
2.09801e+06
1.88263e+06
1.69117e+06
1.52074e+06
1.36943e+06
1.23544e+06
1.11709e+06
1.01267e+06
920823
840431
770621
710435
659051
615404
577746
542825
507070
469148
420431
346729
260799
221198
227419
250179
279658
315612
359753
415344
487685
585775
723070
920561
1.21966e+06
1.72333e+06
2.6971e+06
4.9857e+06
1.2495e+07
5.78914e+07
1.82769e+09
3.39591e+08
1.2476e+08
6.37944e+07
3.92972e+07
2.72368e+07
2.04449e+07
1.6211e+07
1.3342e+07
1.12599e+07
9.66752e+06
8.40299e+06
7.36998e+06
6.50514e+06
5.76771e+06
5.12726e+06
4.56655e+06
4.07237e+06
3.63567e+06
3.24947e+06
2.90707e+06
2.60257e+06
2.33111e+06
2.08943e+06
1.87475e+06
1.68403e+06
1.51457e+06
1.36378e+06
1.23e+06
1.11163e+06
1.00718e+06
915162
834408
763932
702978
650659
606072
567839
533543
499407
464698
423441
364556
281435
219814
209758
225725
249988
279641
315572
359896
415666
488699
587623
725579
922831
1.21838e+06
1.7238e+06
2.69783e+06
4.98678e+06
1.24969e+07
5.79e+07
1.82659e+09
3.39187e+08
1.24511e+08
6.36448e+07
3.92001e+07
2.71751e+07
2.04004e+07
1.61744e+07
1.33096e+07
1.12307e+07
9.63977e+06
8.37558e+06
7.3429e+06
6.4792e+06
5.74248e+06
5.10586e+06
4.54776e+06
4.05601e+06
3.62081e+06
3.23529e+06
2.89385e+06
2.59081e+06
2.32123e+06
2.08085e+06
1.86684e+06
1.67676e+06
1.50791e+06
1.35794e+06
1.22457e+06
1.10633e+06
1.0018e+06
909669
828668
757764
696102
643004
597574
558704
524522
491831
458786
422900
375143
303416
228413
198703
205732
225244
249952
279615
315640
359983
416106
490071
590427
727898
921738
1.21816e+06
1.7244e+06
2.69867e+06
4.98811e+06
1.25e+07
5.79125e+07
1.82656e+09
3.38917e+08
1.24333e+08
6.3507e+07
3.91037e+07
2.71056e+07
2.03515e+07
1.61363e+07
1.32771e+07
1.12015e+07
9.61347e+06
8.35056e+06
7.31812e+06
6.45458e+06
5.71873e+06
5.08284e+06
4.52819e+06
4.03889e+06
3.6059e+06
3.22171e+06
2.88089e+06
2.57879e+06
2.31051e+06
2.0718e+06
1.85892e+06
1.66944e+06
1.50116e+06
1.3517e+06
1.219e+06
1.10107e+06
996612
904340
823148
751928
689778
635943
589774
550257
515924
484294
452478
419886
380037
321465
244557
195387
190108
204499
225132
249931
279658
315665
360265
416804
491880
593016
729200
920045
1.21847e+06
1.72504e+06
2.6996e+06
4.98963e+06
1.25033e+07
5.79235e+07
1.82736e+09
3.38833e+08
1.24203e+08
6.34032e+07
3.90149e+07
2.7038e+07
2.02988e+07
1.60961e+07
1.32439e+07
1.11725e+07
9.58714e+06
8.32675e+06
7.29551e+06
6.43204e+06
5.69625e+06
5.06104e+06
4.50718e+06
4.02103e+06
3.59034e+06
3.20812e+06
2.86849e+06
2.56695e+06
2.29956e+06
2.06202e+06
1.85062e+06
1.66211e+06
1.49437e+06
1.34541e+06
1.21312e+06
1.09573e+06
991493
899235
817838
746357
683829
629456
582552
542413
507776
476668
446056
415578
380979
333537
263906
200174
179379
187206
204169
225100
249966
279710
315856
360347
418039
493799
594936
729139
919295
1.21896e+06
1.72579e+06
2.70061e+06
4.9914e+06
1.2507e+07
5.79415e+07
1.82905e+09
3.38913e+08
1.2414e+08
6.33234e+07
3.89458e+07
2.69754e+07
2.02479e+07
1.60537e+07
1.32095e+07
1.1143e+07
9.56092e+06
8.30297e+06
7.27387e+06
6.41156e+06
5.67566e+06
5.04047e+06
4.4872e+06
4.00186e+06
3.57406e+06
3.194e+06
2.85611e+06
2.55562e+06
2.28875e+06
2.05205e+06
1.84169e+06
1.65447e+06
1.48756e+06
1.33908e+06
1.20723e+06
1.09015e+06
986338
894225
812787
741043
678188
623385
575913
535095
500065
469174
439898
410466
379574
340129
281672
212047
174458
173230
186353
204084
225133
250045
279890
315965
361061
419442
496618
596590
727157
919423
1.21956e+06
1.72656e+06
2.70176e+06
4.99336e+06
1.25115e+07
5.7961e+07
1.83115e+09
3.39139e+08
1.24137e+08
6.32766e+07
3.88905e+07
2.69253e+07
2.02007e+07
1.60132e+07
1.31739e+07
1.11128e+07
9.5345e+06
8.27918e+06
7.25234e+06
6.39195e+06
5.6571e+06
5.02163e+06
4.46837e+06
3.98358e+06
3.5566e+06
3.17918e+06
2.84328e+06
2.54433e+06
2.27839e+06
2.04217e+06
1.83258e+06
1.6463e+06
1.48051e+06
1.33275e+06
1.20132e+06
1.08461e+06
981015
889223
807861
736020
672847
617661
569721
528342
492768
461863
433513
405337
376620
342653
294902
228244
176068
162875
171247
186124
204096
225210
250209
280036
316353
361880
421329
498222
595684
726011
919853
1.22018e+06
1.72746e+06
2.70301e+06
4.99544e+06
1.25171e+07
5.79822e+07
1.83335e+09
3.39441e+08
1.24188e+08
6.32595e+07
3.88539e+07
2.68838e+07
2.01624e+07
1.59759e+07
1.31404e+07
1.10821e+07
9.50758e+06
8.25526e+06
7.23073e+06
6.37237e+06
5.63932e+06
5.00475e+06
4.45112e+06
3.96632e+06
3.53988e+06
3.16332e+06
2.8298e+06
2.53267e+06
2.26808e+06
2.03268e+06
1.82356e+06
1.63798e+06
1.47302e+06
1.32622e+06
1.1954e+06
1.07906e+06
975772
884114
802981
731151
667828
612278
563910
522052
485983
454776
426945
399997
372821
342572
303129
244876
183950
156830
158696
170684
186093
204160
225347
250354
280287
316718
363299
423073
498888
594096
725911
920361
1.22085e+06
1.72845e+06
2.70449e+06
4.99803e+06
1.25235e+07
5.80075e+07
1.83549e+09
3.39787e+08
1.24268e+08
6.32691e+07
3.88343e+07
2.68541e+07
2.01295e+07
1.59448e+07
1.31093e+07
1.10532e+07
9.48035e+06
8.23091e+06
7.20895e+06
6.35273e+06
5.62156e+06
4.98862e+06
4.43576e+06
3.95054e+06
3.52409e+06
3.14805e+06
2.81543e+06
2.52041e+06
2.25748e+06
2.02326e+06
1.81488e+06
1.62973e+06
1.46541e+06
1.31931e+06
1.18932e+06
1.07351e+06
970533
879119
798045
726365
662998
607244
558474
516163
479652
448096
420308
394516
368167
340844
307314
258715
196505
155848
148842
157412
170555
186134
204266
225478
250554
280553
317508
364685
425135
499401
592562
726257
920915
1.22163e+06
1.72947e+06
2.70609e+06
5.00103e+06
1.25306e+07
5.80355e+07
1.83751e+09
3.40123e+08
1.24366e+08
6.32934e+07
3.88304e+07
2.6835e+07
2.01046e+07
1.59179e+07
1.30834e+07
1.10266e+07
9.45487e+06
8.20645e+06
7.18676e+06
6.33288e+06
5.60364e+06
4.97252e+06
4.4211e+06
3.93658e+06
3.50966e+06
3.13362e+06
2.80151e+06
2.50742e+06
2.24635e+06
2.01363e+06
1.80625e+06
1.62177e+06
1.45785e+06
1.31233e+06
1.18294e+06
1.06783e+06
965304
874153
793260
721570
658279
602433
553415
510672
473714
441825
413925
388546
363303
337867
308638
268452
211060
160087
142120
146141
157072
170561
186217
204374
225644
250773
281033
318655
366862
426632
497338
592280
726716
921540
1.22245e+06
1.73063e+06
2.70785e+06
5.00419e+06
1.25388e+07
5.80656e+07
1.83914e+09
3.40444e+08
1.24464e+08
6.3329e+07
3.88354e+07
2.68257e+07
2.00867e+07
1.58966e+07
1.30605e+07
1.10041e+07
9.43146e+06
8.1836e+06
7.16457e+06
6.31259e+06
5.58558e+06
4.95623e+06
4.40651e+06
3.92324e+06
3.49693e+06
3.12041e+06
2.78832e+06
2.49475e+06
2.23461e+06
2.00351e+06
1.79748e+06
1.61386e+06
1.45054e+06
1.30539e+06
1.17651e+06
1.0619e+06
959970
869202
788525
716955
653600
597761
548603
505579
468182
435899
407873
382684
358155
334103
308015
274354
224752
168837
139117
136888
145361
157018
170624
186299
204509
225825
251149
281582
320167
368685
425802
495851
592556
727223
922212
1.22335e+06
1.73191e+06
2.70986e+06
5.00791e+06
1.25478e+07
5.81002e+07
1.84036e+09
3.40704e+08
1.24561e+08
6.33657e+07
3.88468e+07
2.68218e+07
2.00754e+07
1.588e+07
1.30419e+07
1.09843e+07
9.41164e+06
8.1627e+06
7.14383e+06
6.29238e+06
5.56699e+06
4.93977e+06
4.3917e+06
3.91e+06
3.48478e+06
3.10881e+06
2.77624e+06
2.48272e+06
2.2231e+06
1.99292e+06
1.78828e+06
1.60585e+06
1.44328e+06
1.29867e+06
1.17014e+06
1.05598e+06
954449
864172
783816
712417
649119
593167
543959
500755
463058
430364
402056
376951
353213
329738
305999
277159
235684
180555
140248
129866
135239
145181
157060
170696
186418
204674
226111
251288
282437
321706
369520
424689
495407
592981
727789
922945
1.22434e+06
1.73332e+06
2.71213e+06
5.01219e+06
1.25582e+07
5.81369e+07
1.84114e+09
3.40901e+08
1.24642e+08
6.34033e+07
3.88596e+07
2.68227e+07
2.00677e+07
1.58684e+07
1.3027e+07
1.09678e+07
9.39411e+06
8.14494e+06
7.12496e+06
6.27339e+06
5.54848e+06
4.92277e+06
4.37676e+06
3.89656e+06
3.47279e+06
3.09773e+06
2.76566e+06
2.47167e+06
2.21214e+06
1.98246e+06
1.77872e+06
1.59748e+06
1.43595e+06
1.29198e+06
1.16393e+06
1.0501e+06
948951
859004
779054
707919
644745
588795
539428
496125
458218
425229
396592
371418
348219
325400
303034
277674
243166
193169
145396
125475
126634
134798
145187
157130
170808
186578
204923
226286
251898
283754
323538
369932
422932
495645
593459
728386
923746
1.22543e+06
1.7349e+06
2.71466e+06
5.01695e+06
1.25701e+07
5.81786e+07
1.84145e+09
3.41028e+08
1.24701e+08
6.34338e+07
3.8875e+07
2.68249e+07
2.00635e+07
1.58594e+07
1.30157e+07
1.09544e+07
9.37945e+06
8.12925e+06
7.10887e+06
6.25617e+06
5.53102e+06
4.90579e+06
4.36121e+06