/*--------------------------------*- C++ -*----------------------------------*\
| =========                 |                                                 |
| \\      /  F ield         | OpenFOAM: The Open Source CFD Toolbox           |
|  \\    /   O peration     | Version:  v2012                                 |
|   \\  /    A nd           | Website:  www.openfoam.com                      |
|    \\/     M anipulation  |                                                 |
\*---------------------------------------------------------------------------*/
FoamFile
{
    version     2.0;
    format      ascii;
    class       volScalarField;
    location    "6700";
    object      p;
}
// * * * * * * * * * * * * * * * * * * * * * * * * * * * * * * * * * * * * * //

dimensions      [1 -1 -2 0 0 0 0];


internalField   nonuniform List<scalar> 
39402
(
4472.96
3650.86
4475.93
2980.21
3652.74
4446.78
2873.2
2980.3
3655.38
4418.97
2796.41
2873.21
2980.28
3658.25
4389.2
2780.15
2796.41
2873.22
2980.31
3660.13
4362.31
2785.92
2780.15
2796.4
2873.23
2980.37
3662.07
4331.19
2783.72
2785.92
2780.15
2796.4
2873.25
2980.47
3664.26
4296.86
2793.64
2783.72
2785.91
2780.14
2796.4
2873.27
2980.58
3667.05
4260.18
2798.6
2793.62
2783.73
2785.91
2780.14
2796.39
2873.3
2980.68
3670.34
4219.31
2799.13
2798.59
2793.63
2783.73
2785.91
2780.14
2796.38
2873.34
2980.79
3674.58
4176.95
2797.1
2799.12
2798.59
2793.63
2783.73
2785.91
2780.14
2796.39
2873.39
2981.02
3679.71
4132.41
2797.77
2797.1
2799.14
2798.59
2793.63
2783.73
2785.91
2780.14
2796.39
2873.46
2981.23
3685.91
4085.84
2796.02
2797.77
2797.1
2799.13
2798.59
2793.63
2783.73
2785.91
2780.15
2796.42
2873.57
2981.49
3694.08
4036.95
2793.82
2796.02
2797.77
2797.1
2799.13
2798.59
2793.63
2783.73
2785.92
2780.16
2796.6
2873.69
2981.75
3703.97
3987.32
2792.88
2793.82
2796.02
2797.78
2797.1
2799.14
2798.59
2793.63
2783.73
2785.92
2780.18
2796.74
2873.95
2982.04
3715.57
3936.04
2791.72
2792.88
2793.82
2796.03
2797.78
2797.11
2799.14
2798.59
2793.63
2783.74
2785.94
2780.25
2796.83
2874.23
2982.52
3729.35
3883.65
2788.39
2791.71
2792.88
2793.82
2796.03
2797.78
2797.11
2799.14
2798.6
2793.64
2783.75
2785.95
2780.31
2796.99
2874.6
2983.04
3744.48
3829.63
2785.08
2788.39
2791.72
2792.89
2793.82
2796.03
2797.78
2797.11
2799.15
2798.6
2793.64
2783.77
2786.01
2780.38
2797.1
2875.04
2983.81
3762.47
3779.81
2783.39
2785.09
2788.39
2791.72
2792.89
2793.83
2796.03
2797.78
2797.12
2799.15
2798.6
2793.66
2783.79
2786.05
2780.5
2797.37
2875.65
2985.1
3779.88
3728.04
2782.37
2783.41
2785.08
2788.39
2791.72
2792.89
2793.83
2796.03
2797.78
2797.12
2799.16
2798.61
2793.67
2783.83
2786.11
2780.64
2797.64
2876.38
2986.84
3799.47
3695.72
2780.48
2782.36
2783.4
2785.09
2788.39
2791.72
2792.89
2793.83
2796.04
2797.79
2797.13
2799.17
2798.62
2793.69
2783.87
2786.2
2780.82
2797.99
2877.23
2989.97
3809.66
3666.4
2778.06
2780.48
2782.37
2783.4
2785.09
2788.4
2791.72
2792.89
2793.84
2796.04
2797.79
2797.14
2799.18
2798.63
2793.72
2783.92
2786.31
2781.04
2798.38
2878.12
2995.75
3810.98
3633.49
2776.43
2778.07
2780.48
2782.37
2783.4
2785.09
2788.4
2791.72
2792.9
2793.84
2796.05
2797.8
2797.15
2799.2
2798.65
2793.75
2784
2786.46
2781.32
2798.87
2879.1
3005.16
3800.72
3606.96
2775.26
2776.44
2778.07
2780.48
2782.37
2783.4
2785.09
2788.4
2791.72
2792.9
2793.85
2796.06
2797.81
2797.16
2799.21
2798.68
2793.81
2784.1
2786.65
2781.66
2799.49
2880.07
3022.34
3780.67
3564.28
2773.75
2775.26
2776.44
2778.07
2780.48
2782.37
2783.4
2785.1
2788.4
2791.73
2792.9
2793.86
2796.06
2797.82
2797.18
2799.24
2798.71
2793.88
2784.24
2786.9
2782.08
2800.3
2881.15
3046.23
3767.74
3494.66
2771.7
2773.75
2775.26
2776.44
2778.07
2780.48
2782.37
2783.41
2785.1
2788.41
2791.73
2792.91
2793.87
2796.08
2797.83
2797.2
2799.27
2798.76
2793.97
2784.42
2787.21
2782.55
2801.26
2882.4
3078.4
3748.46
3418.05
2770.12
2771.72
2773.75
2775.26
2776.44
2778.07
2780.48
2782.37
2783.41
2785.11
2788.41
2791.74
2792.92
2793.88
2796.09
2797.85
2797.23
2799.31
2798.83
2794.09
2784.65
2787.6
2783.06
2802.19
2884.05
3117.78
3739.65
3327.31
2768.68
2770.13
2771.72
2773.75
2775.26
2776.44
2778.07
2780.49
2782.37
2783.42
2785.12
2788.42
2791.74
2792.93
2793.89
2796.11
2797.87
2797.27
2799.36
2798.91
2794.25
2784.94
2788.08
2783.74
2802.92
2886.6
3167.16
3715.21
3235.93
2766.96
2768.69
2770.13
2771.72
2773.76
2775.26
2776.44
2778.07
2780.49
2782.37
2783.42
2785.12
2788.42
2791.75
2792.94
2793.91
2796.13
2797.9
2797.32
2799.43
2799.03
2794.46
2785.31
2788.62
2784.8
2803.33
2890.05
3222.71
3707.44
3134.77
2765.24
2766.96
2768.68
2770.13
2771.72
2773.76
2775.27
2776.44
2778.07
2780.49
2782.38
2783.43
2785.13
2788.43
2791.76
2792.96
2793.94
2796.16
2797.94
2797.38
2799.52
2799.18
2794.74
2785.76
2789.19
2786.32
2803.26
2895.57
3286.49
3701.54
3035.37
2764.42
2765.23
2766.96
2768.68
2770.13
2771.72
2773.76
2775.27
2776.44
2778.08
2780.49
2782.38
2783.44
2785.15
2788.44
2791.77
2792.98
2793.97
2796.19
2797.99
2797.46
2799.63
2799.37
2795.08
2786.31
2789.76
2788.23
2802.35
2902.55
3348.5
3687.61
2934.87
2763.56
2764.41
2765.24
2766.96
2768.69
2770.13
2771.72
2773.76
2775.27
2776.44
2778.08
2780.49
2782.39
2783.45
2785.16
2788.46
2791.78
2793
2794
2796.23
2798.05
2797.56
2799.77
2799.62
2795.52
2786.93
2790.53
2790.26
2802.47
2913.88
3407.04
3663.37
2838.76
2761.88
2763.55
2764.42
2765.24
2766.97
2768.69
2770.13
2771.72
2773.77
2775.27
2776.45
2778.08
2780.5
2782.39
2783.46
2785.18
2788.47
2791.8
2793.03
2794.04
2796.29
2798.13
2797.69
2799.96
2799.93
2796.05
2787.62
2791.83
2791.98
2803.81
2931.3
3460.85
3626.13
2750.36
2759.54
2761.87
2763.56
2764.42
2765.24
2766.97
2768.69
2770.13
2771.73
2773.77
2775.28
2776.45
2778.09
2780.5
2782.4
2783.48
2785.2
2788.49
2791.83
2793.07
2794.1
2796.35
2798.24
2797.85
2800.2
2800.31
2796.69
2788.25
2793.35
2792.69
2806.1
2957.11
3506.39
3578.92
2673.26
2758.17
2759.54
2761.88
2763.56
2764.42
2765.24
2766.97
2768.69
2770.13
2771.73
2773.78
2775.28
2776.46
2778.09
2780.51
2782.41
2783.5
2785.22
2788.51
2791.86
2793.12
2794.16
2796.44
2798.36
2798.06
2800.51
2800.79
2797.41
2789.12
2794.84
2792.78
2810.43
2990.84
3539.9
3522.14
2612.12
2757.98
2758.18
2759.54
2761.88
2763.56
2764.42
2765.24
2766.97
2768.69
2770.14
2771.74
2773.78
2775.29
2776.46
2778.1
2780.52
2782.42
2783.52
2785.25
2788.54
2791.89
2793.17
2794.24
2796.54
2798.53
2798.33
2800.89
2801.36
2798.17
2790.49
2795.82
2793.65
2816.36
3036.38
3554.64
3446.73
2574.14
2757.71
2757.98
2758.17
2759.54
2761.88
2763.56
2764.42
2765.24
2766.97
2768.69
2770.14
2771.74
2773.79
2775.29
2776.47
2778.11
2780.53
2782.44
2783.55
2785.28
2788.58
2791.94
2793.24
2794.34
2796.68
2798.73
2798.67
2801.36
2802.01
2798.93
2792.41
2794.63
2794.2
2828.29
3093.63
3545.28
3344.53
2555.87
2755.97
2757.71
2757.98
2758.18
2759.54
2761.88
2763.56
2764.42
2765.25
2766.98
2768.69
2770.14
2771.75
2773.8
2775.3
2776.47
2778.12
2780.54
2782.46
2783.58
2785.32
2788.62
2791.99
2793.33
2794.46
2796.84
2799
2799.08
2801.92
2802.72
2800.19
2794.22
2792.81
2795.06
2843.56
3169.4
3539
3212.21
2544.01
2753.7
2755.97
2757.71
2757.98
2758.17
2759.54
2761.88
2763.56
2764.42
2765.25
2766.98
2768.69
2770.15
2771.76
2773.81
2775.31
2776.48
2778.13
2780.55
2782.48
2783.62
2785.37
2788.67
2792.06
2793.44
2794.61
2797.05
2799.32
2799.6
2802.56
2803.36
2801.75
2796.23
2790.62
2796.5
2868.45
3233.09
3529.11
3075.9
2534.53
2752.2
2753.7
2755.97
2757.71
2757.98
2758.18
2759.55
2761.88
2763.56
2764.42
2765.25
2766.98
2768.7
2770.15
2771.77
2773.82
2775.32
2776.49
2778.14
2780.57
2782.51
2783.67
2785.43
2788.73
2792.15
2793.57
2794.8
2797.3
2799.73
2800.22
2803.29
2804.05
2803.69
2796.59
2788.75
2798.62
2898.23
3298.8
3505.7
2941.02
2527.17
2752.11
2752.2
2753.7
2755.97
2757.71
2757.98
2758.18
2759.55
2761.88
2763.56
2764.43
2765.26
2766.99
2768.7
2770.16
2771.78
2773.84
2775.33
2776.51
2778.16
2780.59
2782.54
2783.72
2785.5
2788.81
2792.25
2793.73
2795.03
2797.62
2800.23
2800.95
2803.93
2805.42
2805.34
2796.54
2786.66
2802.11
2946.14
3341.03
3460.35
2820.08
2521.42
2752.48
2752.11
2752.2
2753.7
2755.97
2757.71
2757.98
2758.18
2759.55
2761.88
2763.56
2764.43
2765.26
2766.99
2768.7
2770.17
2771.8
2773.86
2775.35
2776.52
2778.18
2780.62
2782.58
2783.78
2785.58
2788.9
2792.38
2793.93
2795.31
2798.01
2800.83
2801.8
2804.68
2806.47
2806.52
2795.53
2785
2807.56
2997.89
3385.5
3399.99
2718.13
2517.22
2751.45
2752.49
2752.11
2752.2
2753.7
2755.97
2757.71
2757.98
2758.18
2759.55
2761.89
2763.56
2764.43
2765.27
2767
2768.71
2770.18
2771.81
2773.88
2775.36
2776.54
2778.21
2780.66
2782.63
2783.86
2785.67
2789.02
2792.54
2794.17
2795.66
2798.49
2801.53
2802.66
2805.71
2808.07
2806.56
2796.23
2784.65
2817.46
3066.82
3393.56
3306.87
2641.12
2514.19
2749.14
2751.45
2752.49
2752.11
2752.21
2753.7
2755.97
2757.71
2757.98
2758.18
2759.55
2761.89
2763.56
2764.44
2765.28
2767.01
2768.71
2770.19
2771.83
2773.9
2775.38
2776.57
2778.24
2780.7
2782.69
2783.95
2785.79
2789.15
2792.74
2794.47
2796.08
2799.06
2802.33
2803.58
2807.07
2808.33
2806.41
2796.5
2785.59
2837.3
3135.78
3393.76
3184.79
2585.89
2512.19
2746.39
2749.14
2751.45
2752.49
2752.11
2752.21
2753.7
2755.97
2757.72
2757.98
2758.18
2759.55
2761.89
2763.56
2764.44
2765.29
2767.02
2768.72
2770.2
2771.85
2773.92
2775.41
2776.6
2778.28
2780.75
2782.76
2784.06
2785.92
2789.32
2792.97
2794.83
2796.59
2799.71
2803.13
2804.88
2808.24
2806.83
2805.27
2797.15
2786.71
2868.33
3211.64
3383.34
3034.21
2551.41
2510.88
2744.62
2746.39
2749.14
2751.45
2752.49
2752.11
2752.21
2753.71
2755.97
2757.72
2757.99
2758.18
2759.56
2761.89
2763.57
2764.45
2765.3
2767.03
2768.73
2770.21
2771.88
2773.95
2775.44
2776.63
2778.33
2780.81
2782.85
2784.19
2786.09
2789.53
2793.26
2795.28
2797.2
2800.45
2804.01
2806.51
2809.19
2805.66
2804.72
2797.47
2788.5
2916.24
3254.57
3364.58
2881.77
2533.11
2510.06
2744.29
2744.63
2746.39
2749.14
2751.45
2752.49
2752.11
2752.21
2753.71
2755.98
2757.72
2757.99
2758.19
2759.56
2761.89
2763.57
2764.46
2765.31
2767.04
2768.74
2770.23
2771.91
2773.99
2775.48
2776.67
2778.38
2780.88
2782.96
2784.34
2786.29
2789.78
2793.61
2795.8
2797.92
2801.2
2805.11
2808.18
2808.65
2804.27
2802.72
2798.27
2796.68
2976.91
3306.82
3311.54
2743.9
2522.92
2509.56
2746.76
2744.29
2744.63
2746.39
2749.14
2751.45
2752.49
2752.11
2752.21
2753.71
2755.98
2757.72
2757.99
2758.19
2759.56
2761.9
2763.57
2764.47
2765.32
2767.05
2768.76
2770.25
2771.94
2774.03
2775.52
2776.72
2778.45
2780.97
2783.08
2784.53
2786.53
2790.08
2794.04
2796.44
2798.7
2801.99
2806.55
2809.84
2808.26
2803.26
2800.44
2799.44
2813.76
3047.91
3310.3
3224.38
2642.53
2516.54
2509.28
2748.41
2746.76
2744.29
2744.63
2746.4
2749.14
2751.45
2752.49
2752.11
2752.21
2753.71
2755.98
2757.72
2757.99
2758.19
2759.57
2761.9
2763.58
2764.48
2765.34
2767.07
2768.77
2770.27
2771.98
2774.08
2775.57
2776.79
2778.54
2781.08
2783.23
2784.75
2786.83
2790.45
2794.54
2797.14
2799.57
2803
2807.84
2810.16
2807.72
2801.41
2797.26
2800.72
2840.13
3130.43
3310.3
3079.48
2577
2512.78
2509.13
2749.21
2748.41
2746.76
2744.29
2744.63
2746.4
2749.15
2751.45
2752.49
2752.11
2752.21
2753.72
2755.98
2757.72
2757.99
2758.2
2759.57
2761.91
2763.59
2764.49
2765.36
2767.09
2768.79
2770.3
2772.02
2774.13
2775.63
2776.86
2778.64
2781.21
2783.41
2785.01
2787.18
2790.9
2795.13
2797.96
2800.37
2804.27
2809.05
2810.41
2807.89
2800.06
2792.84
2800.34
2884.01
3188
3290.3
2913.11
2540.85
2510.78
2509.06
2747.87
2749.21
2748.41
2746.76
2744.29
2744.63
2746.4
2749.15
2751.45
2752.49
2752.11
2752.22
2753.72
2755.99
2757.73
2758
2758.2
2759.58
2761.92
2763.59
2764.5
2765.38
2767.11
2768.82
2770.34
2772.08
2774.19
2775.7
2776.95
2778.76
2781.37
2783.63
2785.33
2787.61
2791.43
2795.77
2798.72
2801.71
2805.37
2808.83
2810.78
2808.87
2799.05
2789.87
2805.72
2948.21
3239.99
3261.22
2753.7
2523.83
2509.8
2509.03
2744.46
2747.87
2749.21
2748.41
2746.76
2744.29
2744.63
2746.4
2749.15
2751.46
2752.49
2752.12
2752.22
2753.72
2755.99
2757.73
2758
2758.21
2759.59
2761.92
2763.6
2764.52
2765.4
2767.14
2768.84
2770.38
2772.13
2774.27
2775.79
2777.06
2778.9
2781.55
2783.89
2785.7
2788.13
2792.06
2796.51
2799.65
2802.75
2806.39
2808.53
2810.64
2809.41
2798.89
2787.89
2824.82
3022.91
3253.43
3160.41
2635.64
2515.81
2509.33
2509.01
2740.46
2744.46
2747.87
2749.21
2748.41
2746.76
2744.29
2744.63
2746.4
2749.15
2751.46
2752.49
2752.12
2752.22
2753.73
2756
2757.74
2758
2758.21
2759.6
2761.93
2763.61
2764.54
2765.43
2767.18
2768.88
2770.42
2772.2
2774.35
2775.89
2777.19
2779.07
2781.78
2784.19
2786.16
2788.73
2792.76
2797.14
2800.79
2804.51
2806.07
2808.12
2810.24
2810.3
2798.59
2788.7
2839.72
3107.35
3246.94
3012.35
2565.33
2511.86
2509.13
2509
2736.81
2740.46
2744.46
2747.87
2749.21
2748.42
2746.76
2744.3
2744.63
2746.4
2749.15
2751.46
2752.49
2752.12
2752.23
2753.73
2756
2757.74
2758.01
2758.22
2759.61
2761.95
2763.63
2764.56
2765.47
2767.22
2768.92
2770.48
2772.28
2774.45
2776.01
2777.35
2779.28
2782.04
2784.56
2786.69
2789.45
2793.55
2797.99
2802.01
2805.28
2806.17
2807.83
2809.07
2809.83
2798.75
2785.96
2895.51
3163.2
3237.51
2829.86
2531.23
2510.12
2509.05
2509
2734.23
2736.81
2740.46
2744.46
2747.87
2749.21
2748.42
2746.76
2744.3
2744.63
2746.4
2749.16
2751.46
2752.5
2752.13
2752.23
2753.74
2756.01
2757.75
2758.02
2758.23
2759.62
2761.96
2763.65
2764.59
2765.51
2767.26
2768.97
2770.54
2772.37
2774.57
2776.16
2777.54
2779.53
2782.36
2784.99
2787.32
2790.24
2794.26
2798.97
2803.31
2805.82
2806.87
2807.57
2807.47
2808.33
2798.78
2798.11
2955.86
3207.22
3161.33
2675.74
2517.65
2509.4
2509.02
2509
2733.38
2734.23
2736.81
2740.46
2744.46
2747.87
2749.21
2748.41
2746.75
2744.3
2744.63
2746.41
2749.16
2751.47
2752.5
2752.13
2752.24
2753.75
2756.02
2757.75
2758.03
2758.25
2759.64
2761.98
2763.67
2764.62
2765.56
2767.32
2769.03
2770.62
2772.48
2774.7
2776.33
2777.77
2779.83
2782.74
2785.49
2788.01
2791.12
2795.09
2799.93
2804.02
2805.9
2807.8
2807.24
2805.96
2806.55
2803.55
2823.08
3047.45
3204.94
3038.98
2580.03
2512.17
2509.14
2509
2509
2734.76
2733.38
2734.23
2736.81
2740.46
2744.47
2747.87
2749.22
2748.41
2746.75
2744.3
2744.63
2746.41
2749.16
2751.47
2752.5
2752.14
2752.25
2753.76
2756.02
2757.76
2758.04
2758.26
2759.66
2762
2763.69
2764.66
2765.61
2767.38
2769.1
2770.71
2772.6
2774.86
2776.53
2778.05
2780.19
2783.19
2786.08
2788.81
2791.96
2796.22
2800.7
2804.06
2807.43
2809.29
2807.69
2804.6
2802.8
2805.79
2864.92
3108.63
3197.41
2844.88
2533.69
2510.06
2509.04
2509
2509
2737.78
2734.76
2733.38
2734.23
2736.81
2740.47
2744.47
2747.88
2749.22
2748.41
2746.75
2744.3
2744.64
2746.41
2749.17
2751.47
2752.5
2752.14
2752.25
2753.77
2756.03
2757.77
2758.05
2758.28
2759.68
2762.03
2763.72
2764.71
2765.68
2767.46
2769.19
2770.82
2772.74
2775.05
2776.77
2778.38
2780.62
2783.73
2786.74
2789.58
2793.03
2797.18
2801.17
2803.35
2807.63
2810.23
2807.85
2802.75
2796.57
2807.37
2927.75
3171.36
3128.1
2678.14
2516.93
2509.33
2509.01
2509
2509
2741.24
2737.78
2734.76
2733.38
2734.23
2736.81
2740.47
2744.47
2747.88
2749.22
2748.41
2746.75
2744.3
2744.64
2746.42
2749.17
2751.48
2752.51
2752.15
2752.26
2753.78
2756.05
2757.78
2758.06
2758.31
2759.71
2762.06
2763.76
2764.76
2765.75
2767.55
2769.29
2770.95
2772.91
2775.26
2777.06
2778.78
2781.13
2784.34
2787.46
2790.51
2794.23
2798.2
2799.73
2803.86
2808.24
2811.25
2808.14
2800.41
2787.17
2819.72
3019.74
3170.55
3013.49
2573.74
2511.51
2509.09
2509
2509
2509
2744.35
2741.24
2737.78
2734.76
2733.38
2734.23
2736.82
2740.47
2744.47
2747.88
2749.22
2748.41
2746.75
2744.3
2744.64
2746.42
2749.18
2751.48
2752.51
2752.16
2752.28
2753.79
2756.06
2757.8
2758.08
2758.33
2759.75
2762.1
2763.8
2764.82
2765.84
2767.65
2769.41
2771.1
2773.11
2775.51
2777.4
2779.25
2781.74
2785.03
2788.15
2791.53
2795.55
2798.52
2799.82
2803.33
2808.13
2811.49
2809.7
2799.36
2789.78
2864.47
3089.11
3164.34
2808.6
2528.54
2509.71
2509.02
2509
2509
2509
2746.18
2744.35
2741.24
2737.78
2734.76
2733.38
2734.23
2736.82
2740.47
2744.48
2747.88
2749.22
2748.42
2746.75
2744.3
2744.64
2746.43
2749.18
2751.49
2752.52
2752.17
2752.29
2753.81
2756.08
2757.81
2758.1
2758.37
2759.79
2762.14
2763.85
2764.9
2765.94
2767.78
2769.55
2771.28
2773.34
2775.81
2777.8
2779.8
2782.42
2785.76
2788.93
2792.77
2796.68
2798.02
2800.2
2803.38
2808.15
2811.61
2811.12
2803.96
2801.79
2917.41
3136.71
3082.21
2645.28
2514.32
2509.18
2509
2509
2509
2509
2746.86
2746.18
2744.35
2741.24
2737.77
2734.76
2733.38
2734.23
2736.82
2740.48
2744.48
2747.89
2749.22
2748.42
2746.75
2744.31
2744.65
2746.43
2749.19
2751.5
2752.53
2752.18
2752.3
2753.82
2756.1
2757.83
2758.13
2758.41
2759.84
2762.2
2763.91
2764.98
2766.06
2767.92
2769.73
2771.5
2773.62
2776.16
2778.27
2780.44
2783.17
2786.47
2790
2793.87
2797.4
2798.9
2800.65
2803.57
2808
2811.71
2813.24
2804.35
2814.88
3004.92
3131.73
2941.52
2552.59
2510.4
2509.04
2509
2509
2509
2509
2746.16
2746.85
2746.18
2744.35
2741.24
2737.77
2734.76
2733.38
2734.24
2736.82
2740.48
2744.48
2747.89
2749.22
2748.42
2746.75
2744.31
2744.65
2746.44
2749.2
2751.5
2752.54
2752.19
2752.32
2753.85
2756.12
2757.85
2758.16
2758.45
2759.89
2762.26
2763.99
2765.08
2766.19
2768.09
2769.93
2771.76
2773.94
2776.57
2778.82
2781.15
2783.94
2787.2
2790.86
2795.02
2797.14
2799.67
2801.75
2803.88
2807.32
2809.54
2807.98
2806.76
2863.71
3080.39
3121.35
2732.8
2519.96
2509.31
2509.01
2509
2509
2509
2509
2744.2
2746.16
2746.86
2746.18
2744.35
2741.24
2737.77
2734.76
2733.39
2734.24
2736.83
2740.48
2744.49
2747.89
2749.22
2748.42
2746.75
2744.31
2744.66
2746.45
2749.21
2751.51
2752.55
2752.21
2752.34
2753.87
2756.15
2757.88
2758.2
2758.5
2759.96
2762.33
2764.07
2765.2
2766.35
2768.29
2770.18
2772.08
2774.33
2777.05
2779.45
2781.97
2784.78
2788.26
2791.73
2794.98
2798.33
2800.7
2802.55
2804.36
2806.1
2804.37
2801.83
2810.47
2941.45
3114.94
2995.29
2591.58
2511.44
2509.06
2509
2509
2509
2509
2509
2741.32
2744.2
2746.16
2746.86
2746.18
2744.35
2741.23
2737.77
2734.76
2733.39
2734.24
2736.83
2740.49
2744.49
2747.9
2749.22
2748.42
2746.75
2744.32
2744.67
2746.46
2749.22
2751.53
2752.57
2752.23
2752.37
2753.9
2756.18
2757.91
2758.24
2758.57
2760.04
2762.42
2764.17
2765.34
2766.54
2768.52
2770.47
2772.45
2774.8
2777.62
2780.16
2782.72
2785.77
2788.87
2792.17
2795.12
2798.51
2801.46
2803.41
2804.81
2805.23
2802.73
2796.9
2835.59
3019.57
3107.56
2830.5
2529.18
2509.5
2509.01
2509
2509
2509
2509
2509
2737.9
2741.32
2744.21
2746.16
2746.85
2746.18
2744.35
2741.23
2737.77
2734.76
2733.39
2734.24
2736.83
2740.49
2744.5
2747.9
2749.23
2748.42
2746.76
2744.32
2744.68
2746.47
2749.23
2751.54
2752.58
2752.25
2752.4
2753.93
2756.21
2757.95
2758.29
2758.64
2760.13
2762.52
2764.29
2765.5
2766.76
2768.8
2770.82
2772.91
2775.34
2778.27
2780.91
2783.57
2786.71
2789.68
2791.15
2795.57
2799.36
2802.24
2804.58
2806.27
2805.18
2802.64
2800.3
2883.24
3083.01
3081.91
2639.6
2513.15
2509.09
2509
2509
2509
2509
2509
2509
2734.2
2737.9
2741.32
2744.2
2746.16
2746.86
2746.18
2744.35
2741.23
2737.77
2734.76
2733.39
2734.24
2736.84
2740.5
2744.51
2747.91
2749.23
2748.43
2746.76
2744.33
2744.69
2746.48
2749.25
2751.56
2752.6
2752.28
2752.43
2753.97
2756.26
2758
2758.35
2758.73
2760.23
2762.64
2764.43
2765.69
2767.01
2769.11
2771.23
2773.44
2775.99
2778.97
2781.68
2784.71
2787.61
2789.51
2791.66
2795.91
2799.89
2803.38
2806.36
2808.14
2807.35
2801.01
2809.76
2961.05
3083.92
2879.35
2543.68
2509.76
2509.01
2509
2509
2509
2509
2509
2509
2730.82
2734.2
2737.9
2741.32
2744.21
2746.16
2746.86
2746.18
2744.34
2741.23
2737.76
2734.76
2733.39
2734.25
2736.84
2740.5
2744.51
2747.91
2749.23
2748.43
2746.76
2744.34
2744.7
2746.5
2749.26
2751.58
2752.62
2752.31
2752.47
2754.01
2756.31
2758.05
2758.42
2758.83
2760.36
2762.78
2764.6
2765.91
2767.31
2769.49
2771.72
2774.07
2776.69
2779.66
2782.54
2785.68
2788.49
2789.14
2792.12
2796.47
2800.78
2804.88
2807.88
2810.82
2805.45
2801.12
2833.5
3038.1
3026.65
2693.96
2515.31
2509.11
2509
2509
2509
2509
2509
2509
2509
2727.74
2730.82
2734.2
2737.9
2741.32
2744.21
2746.16
2746.86
2746.18
2744.34
2741.23
2737.76
2734.76
2733.39
2734.25
2736.85
2740.51
2744.52
2747.92
2749.24
2748.43
2746.77
2744.35
2744.71
2746.51
2749.28
2751.6
2752.65
2752.35
2752.52
2754.06
2756.36
2758.11
2758.51
2758.95
2760.5
2762.94
2764.8
2766.18
2767.65
2769.92
2772.27
2774.77
2777.46
2780.34
2783.6
2786.83
2788.63
2790.05
2792.93
2797.1
2801.44
2805.78
2809.41
2809.92
2804.74
2803.57
2922.91
3052.67
2956.37
2560.15
2510.03
2509.01
2509
2509
2509
2509
2509
2509
2509
2725.32
2727.74
2730.82
2734.2
2737.91
2741.32
2744.21
2746.16
2746.86
2746.18
2744.34
2741.23
2737.76
2734.76
2733.4
2734.25
2736.85
2740.52
2744.53
2747.92
2749.24
2748.44
2746.77
2744.36
2744.73
2746.53
2749.31
2751.62
2752.68
2752.39
2752.57
2754.12
2756.43
2758.18
2758.6
2759.09
2760.67
2763.14
2765.03
2766.49
2768.06
2770.4
2772.89
2775.54
2778.19
2781.39
2784.38
2787.6
2789.25
2790.99
2793.79
2797.53
2801.59
2805.82
2808.73
2808.53
2803.55
2854.46
3003.27
3069.81
2722.88
2518.37
2509.15
2509
2509
2509
2509
2509
2509
2509
2509
2723.6
2725.32
2727.75
2730.82
2734.2
2737.91
2741.33
2744.21
2746.16
2746.86
2746.18
2744.34
2741.22
2737.76
2734.76
2733.4
2734.26
2736.86
2740.53
2744.54
2747.93
2749.25
2748.44
2746.78
2744.37
2744.75
2746.56
2749.33
2751.65
2752.72
2752.44
2752.63
2754.19
2756.5
2758.27
2758.72
2759.26
2760.87
2763.36
2765.3
2766.85
2768.52
2770.95
2773.56
2776.29
2779
2781.88
2785.34
2787.35
2790
2792.22
2794.82
2797.88
2801.35
2805.54
2807.42
2805.77
2804.68
2885.11
3048.42
2919.49
2577.64
2510.28
2509.02
2509
2509
2509
2509
2509
2509
2509
2509
2722.6
2723.6
2725.33
2727.75
2730.82
2734.21
2737.91
2741.33
2744.22
2746.16
2746.86
2746.18
2744.34
2741.22
2737.76
2734.76
2733.4
2734.27
2736.87
2740.54
2744.55
2747.94
2749.26
2748.45
2746.79
2744.39
2744.77
2746.58
2749.37
2751.69
2752.76
2752.49
2752.7
2754.27
2756.59
2758.37
2758.85
2759.45
2761.1
2763.62
2765.63
2767.29
2769.05
2771.56
2774.27
2777.11
2779.98
2782.82
2785.1
2788.01
2791.01
2793.52
2796.14
2798.57
2801.92
2805.74
2806.77
2804.97
2804.37
2960.96
3027.89
2764.72
2520.34
2509.14
2509
2509
2509
2509
2509
2509
2509
2509
2509
2722.21
2722.6
2723.6
2725.33
2727.75
2730.83
2734.21
2737.91
2741.33
2744.22
2746.16
2746.86
2746.18
2744.34
2741.22
2737.76
2734.76
2733.4
2734.27
2736.88
2740.55
2744.56
2747.95
2749.27
2748.46
2746.8
2744.41
2744.8
2746.61
2749.4
2751.73
2752.81
2752.56
2752.79
2754.37
2756.7
2758.49
2759.01
2759.68
2761.36
2763.93
2766
2767.79
2769.66
2772.18
2774.95
2778.14
2780.63
2782.9
2784.78
2788.01
2791.57
2794.91
2797.94
2800.71
2803.76
2806.44
2807.71
2807.39
2875.2
3017.59
2996.32
2585.48
2510.34
2509.01
2509
2509
2509
2509
2509
2509
2509
2509
2509
2722.16
2722.21
2722.6
2723.6
2725.33
2727.75
2730.83
2734.21
2737.92
2741.33
2744.22
2746.17
2746.86
2746.18
2744.34
2741.22
2737.76
2734.76
2733.41
2734.28
2736.89
2740.56
2744.58
2747.97
2749.28
2748.47
2746.81
2744.43
2744.83
2746.65
2749.44
2751.77
2752.87
2752.63
2752.89
2754.48
2756.82
2758.63
2759.2
2759.94
2761.67
2764.28
2766.44
2768.37
2770.32
2772.83
2775.61
2778.83
2781.58
2782.17
2784.83
2788.18
2792.08
2796.34
2800.04
2803.01
2806.09
2808.16
2805.33
2835.12
2939.22
3033.2
2758.45
2522.05
2509.16
2509
2509
2509
2509
2509
2509
2509
2509
2509
2509
2722.78
2722.16
2722.21
2722.6
2723.6
2725.33
2727.75
2730.83
2734.22
2737.92
2741.34
2744.22
2746.17
2746.86
2746.18
2744.34
2741.22
2737.76
2734.76
2733.41
2734.29
2736.9
2740.58
2744.6
2747.98
2749.29
2748.49
2746.83
2744.46
2744.87
2746.69
2749.49
2751.83
2752.93
2752.72
2753
2754.6
2756.95
2758.79
2759.42
2760.25
2762.03
2764.69
2766.94
2769.03
2771.09
2773.44
2776.53
2779.77
2781.44
2782.77
2785.05
2788.19
2792.46
2797.33
2801.73
2805.5
2808.29
2805.35
2800.7
2839.16
3006.57
2902.77
2594.62
2510.33
2509.02
2509
2509
2509
2509
2509
2509
2509
2509
2509
2509
2723.75
2722.78
2722.16
2722.21
2722.61
2723.6
2725.33
2727.76
2730.83
2734.22
2737.93
2741.34
2744.23
2746.17
2746.86
2746.18
2744.33
2741.22
2737.75
2734.77
2733.42
2734.3
2736.92
2740.6
2744.62
2748
2749.31
2748.51
2746.85
2744.5
2744.91
2746.74
2749.55
2751.89
2753.01
2752.82
2753.13
2754.75
2757.11
2758.98
2759.68
2760.61
2762.44
2765.15
2767.51
2769.77
2771.82
2774.46
2777.07
2780.23
2781.72
2783.54
2785.67
2788.46
2792.7
2797.84
2802.46
2806.39
2807.85
2804.36
2798.8
2923.1
2992.31
2783.1
2521.74
2509.16
2509
2509
2509
2509
2509
2509
2509
2509
2509
2509
2509
2725.06
2723.75
2722.78
2722.16
2722.21
2722.61
2723.6
2725.34
2727.76
2730.84
2734.22
2737.93
2741.35
2744.23
2746.17
2746.86
2746.18
2744.33
2741.21
2737.75
2734.77
2733.43
2734.31
2736.94
2740.62
2744.64
2748.01
2749.33
2748.53
2746.87
2744.53
2744.96
2746.8
2749.61
2751.96
2753.1
2752.94
2753.29
2754.92
2757.3
2759.2
2759.99
2761.04
2762.92
2765.67
2768.11
2770.51
2772.72
2774.96
2778.01
2779.79
2782.29
2784.74
2786.76
2789.06
2793.08
2797.86
2802.67
2806.83
2808.72
2809.02
2859.54
2983.08
2976.84
2587.27
2510.29
2509.02
2509
2509
2509
2509
2509
2509
2509
2509
2509
2509
2509
2726.63
2725.06
2723.75
2722.78
2722.16
2722.21
2722.61
2723.6
2725.34
2727.76
2730.84
2734.23
2737.94
2741.35
2744.23
2746.18
2746.87
2746.18
2744.33
2741.21
2737.75
2734.77
2733.44
2734.33
2736.96
2740.64
2744.66
2748.04
2749.35
2748.55
2746.89
2744.58
2745.02
2746.86
2749.69
2752.04
2753.2
2753.08
2753.47
2755.13
2757.52
2759.45
2760.35
2761.53
2763.46
2766.22
2768.75
2771.27
2773.77
2776.12
2777.81
2780.16
2783.12
2785.83
2788.18
2790.43
2793.88
2798.34
2803.15
2807.07
2811.03
2838.13
2918.7
3011.21
2739.26
2521
2509.14
2509
2509
2509
2509
2509
2509
2509
2509
2509
2509
2509
2509
2728.32
2726.63
2725.06
2723.75
2722.78
2722.16
2722.21
2722.61
2723.61
2725.34
2727.77
2730.85
2734.23
2737.94
2741.36
2744.24
2746.18
2746.87
2746.18
2744.33
2741.21
2737.76
2734.78
2733.45
2734.35
2736.98
2740.67
2744.69
2748.06
2749.37
2748.58
2746.92
2744.63
2745.08
2746.94
2749.78
2752.13
2753.31
2753.24
2753.69
2755.37
2757.77
2759.75
2760.77
2762.11
2764.08
2766.82
2769.34
2772.38
2774.69
2776.47
2777.87
2780.37
2783.49
2786.88
2789.72
2792.46
2796.18
2799.79
2804.3
2807.35
2814.43
2839
2976.17
2874.49
2583.94
2510.17
2509.01
2509
2509
2509
2509
2509
2509
2509
2509
2509
2509
2509
2509
2730.01
2728.32
2726.63
2725.06
2723.75
2722.78
2722.16
2722.21
2722.61
2723.61
2725.34
2727.77
2730.85
2734.24
2737.95
2741.36
2744.24
2746.18
2746.87
2746.18
2744.33
2741.21
2737.76
2734.79
2733.47
2734.37
2737
2740.69
2744.72
2748.09
2749.4
2748.61
2746.96
2744.7
2745.16
2747.03
2749.87
2752.24
2753.45
2753.44
2753.94
2755.64
2758.06
2760.09
2761.27
2762.78
2764.72
2767.34
2770.02
2772.93
2775.86
2776.55
2778.39
2780.57
2783.8
2787.4
2791.15
2795
2798.77
2803
2804.5
2803.05
2788.1
2901.23
2953
2742.44
2518.57
2509.13
2509
2509
2509
2509
2509
2509
2509
2509
2509
2509
2509
2509
2509
2731.72
2730.01
2728.32
2726.63
2725.06
2723.75
2722.78
2722.16
2722.21
2722.61
2723.61
2725.35
2727.78
2730.86
2734.25
2737.95
2741.37
2744.25
2746.19
2746.87
2746.18
2744.33
2741.21
2737.76
2734.79
2733.48
2734.39
2737.03
2740.73
2744.76
2748.12
2749.43
2748.65
2747.01
2744.78
2745.26
2747.13
2749.99
2752.36
2753.6
2753.66
2754.24
2755.97
2758.39
2760.49
2761.84
2763.52
2765.42
2767.77
2770.51
2773.87
2775.96
2777.55
2779.15
2780.77
2783.87
2787.76
2792.1
2797.06
2802.07
2805.02
2806.45
2799.75
2830.39
2950.57
2915.69
2564.01
2509.94
2509.01
2509
2509
2509
2509
2509
2509
2509
2509
2509
2509
2509
2509
2509
2733.39
2731.72
2730.01
2728.32
2726.63
2725.06
2723.75
2722.78
2722.16
2722.22
2722.61
2723.61
2725.35
2727.78
2730.86
2734.25
2737.96
2741.38
2744.26
2746.19
2746.87
2746.18
2744.33
2741.21
2737.77
2734.8
2733.5
2734.42
2737.07
2740.77
2744.8
2748.15
2749.47
2748.69
2747.06
2744.87
2745.37
2747.26
2750.12
2752.5
2753.78
2753.92
2754.59
2756.34
2758.79
2760.94
2762.49
2764.37
2766.13
2768.54
2770.95
2773.94
2776.38
2778.45
2780.29
2781.51
2784.19
2787.88
2792.68
2798.49
2803.67
2807.81
2811.55
2829.84
2915.5
2997.87
2684.61
2515.88
2509.1
2509
2509
2509
2509
2509
2509
2509
2509
2509
2509
2509
2509
2509
2509
2734.97
2733.39
2731.72
2730.01
2728.31
2726.62
2725.06
2723.75
2722.78
2722.16
2722.22
2722.61
2723.62
2725.36
2727.79
2730.87
2734.26
2737.97
2741.39
2744.26
2746.2
2746.88
2746.18
2744.33
2741.21
2737.78
2734.81
2733.53
2734.45
2737.1
2740.81
2744.85
2748.19
2749.51
2748.74
2747.12
2744.97
2745.5
2747.4
2750.27
2752.65
2753.99
2754.22
2755
2756.78
2759.22
2761.44
2763.2
2765.23
2767.17
2768.8
2771.25
2773.02
2776.61
2779.61
2781.63
2783.03
2785.12
2788.24
2792.97
2798.95
2804.14
2809.87
2822.18
2855.62
2964.62
2832.43
2551.64
2509.66
2509.01
2509
2509
2509
2509
2509
2509
2509
2509
2509
2509
2509
2509
2509
2509
2736.47
2734.97
2733.39
2731.72
2730.01
2728.31
2726.62
2725.06
2723.75
2722.78
2722.17
2722.22
2722.62
2723.62
2725.36
2727.79
2730.88
2734.27
2737.98
2741.39
2744.27
2746.2
2746.88
2746.18
2744.33
2741.22
2737.79
2734.83
2733.55
2734.48
2737.15
2740.86
2744.9
2748.24
2749.56
2748.8
2747.2
2745.1
2745.65
2747.56
2750.44
2752.83
2754.22
2754.58
2755.48
2757.29
2759.72
2761.94
2763.93
2766.18
2767.84
2769.58
2770.33
2773.28
2776.98
2780.4
2783.06
2785.1
2787.26
2789.46
2793.89
2798.21
2803.48
2803.4
2805.11
2896.73
2903.87
2662.07
2513.2
2509.06
2509
2509
2509
2509
2509
2509
2509
2509
2509
2509
2509
2509
2509
2509
2509
2737.96
2736.48
2734.97
2733.38
2731.72
2730.01
2728.31
2726.62
2725.05
2723.74
2722.78
2722.17
2722.22
2722.62
2723.62
2725.37
2727.8
2730.89
2734.28
2737.99
2741.41
2744.28
2746.21
2746.89
2746.19
2744.34
2741.22
2737.8
2734.85
2733.58
2734.52
2737.2
2740.92
2744.96
2748.29
2749.62
2748.87
2747.28
2745.25
2745.84
2747.76
2750.64
2753.04
2754.5
2755
2756.04
2757.87
2760.2
2762.48
2764.59
2767.39
2769.04
2769.42
2770.52
2773.11
2777.03
2780.82
2784.24
2787.22
2789.8
2793.1
2796.61
2800.44
2800.93
2795.11
2836.96
2928.96
2826.25
2533.94
2509.4
2509
2509
2509
2509
2509
2509
2509
2509
2509
2509
2509
2509
2509
2509
2509
2509
2738.87
2737.96
2736.47
2734.97
2733.38
2731.71
2730.01
2728.31
2726.62
2725.05
2723.74
2722.78
2722.17
2722.22
2722.62
2723.63
2725.37
2727.81
2730.9
2734.29
2738
2741.42
2744.29
2746.22
2746.89
2746.19
2744.34
2741.23
2737.81
2734.87
2733.62
2734.57
2737.25
2740.98
2745.03
2748.35
2749.69
2748.95
2747.39
2745.43
2746.05
2747.98
2750.87
2753.28
2754.8
2755.49