/*--------------------------------*- C++ -*----------------------------------*\
| =========                 |                                                 |
| \\      /  F ield         | OpenFOAM: The Open Source CFD Toolbox           |
|  \\    /   O peration     | Version:  v2012                                 |
|   \\  /    A nd           | Website:  www.openfoam.com                      |
|    \\/     M anipulation  |                                                 |
\*---------------------------------------------------------------------------*/
FoamFile
{
    version     2.0;
    format      ascii;
    class       volScalarField;
    location    "0";
    object      p1;
}
// * * * * * * * * * * * * * * * * * * * * * * * * * * * * * * * * * * * * * //

dimensions      [0 1 0 0 0 0 0];


internalField   nonuniform List<scalar> 
39402
(
4.35513e-08
7.17562e-09
7.844e-08
3.49146e-09
1.67018e-08
8.32339e-08
3.15204e-09
8.09123e-09
2.93247e-08
7.18829e-08
3.2465e-09
1.00624e-08
1.4039e-08
4.50571e-08
6.1933e-08
3.36691e-09
1.25024e-08
5.19466e-08
2.41835e-08
6.37188e-08
5.7798e-08
3.45948e-09
1.38809e-08
7.14787e-08
1.81094e-07
4.4672e-08
8.24672e-08
5.63671e-08
3.50415e-09
1.47271e-08
8.09472e-08
2.49492e-07
4.47047e-07
7.75098e-08
9.86287e-08
5.63057e-08
3.53551e-09
1.5137e-08
8.64107e-08
2.8123e-07
6.13632e-07
8.76816e-07
1.20078e-07
1.11036e-07
5.69027e-08
3.5465e-09
1.54177e-08
8.8979e-08
2.99067e-07
6.88441e-07
1.20205e-06
1.46025e-06
1.67572e-07
1.19781e-07
5.77978e-08
3.53271e-09
1.55258e-08
9.06811e-08
3.07264e-07
7.2949e-07
1.3449e-06
2.0076e-06
2.15473e-06
2.14994e-07
1.2563e-07
5.88249e-08
3.50594e-09
1.54794e-08
9.12786e-08
3.1251e-07
7.48061e-07
1.42147e-06
2.2465e-06
2.9853e-06
2.90327e-06
2.5926e-07
1.29847e-07
5.99089e-08
3.48017e-09
1.53702e-08
9.0945e-08
3.14148e-07
7.59549e-07
1.45596e-06
2.37211e-06
3.35289e-06
4.0737e-06
3.65317e-06
3.00296e-07
1.33933e-07
6.10167e-08
3.44875e-09
1.52654e-08
9.02645e-08
3.12778e-07
7.62792e-07
1.47662e-06
2.42911e-06
3.54387e-06
4.60972e-06
5.21406e-06
4.38134e-06
3.39002e-07
1.3681e-07
6.2135e-08
3.41437e-09
1.51207e-08
8.96146e-08
3.10343e-07
7.59272e-07
1.48217e-06
2.46232e-06
3.63222e-06
4.88743e-06
5.96384e-06
6.36824e-06
5.08301e-06
3.77211e-07
1.37424e-07
6.32622e-08
3.38245e-09
1.49616e-08
8.87103e-08
3.07989e-07
7.53459e-07
1.47571e-06
2.47164e-06
3.68279e-06
5.01969e-06
6.35655e-06
7.37504e-06
7.52307e-06
5.76922e-06
4.16958e-07
1.36374e-07
6.43953e-08
3.35011e-09
1.48136e-08
8.77281e-08
3.04808e-07
7.47819e-07
1.46531e-06
2.46245e-06
3.69848e-06
5.09473e-06
6.55021e-06
7.91668e-06
8.82984e-06
8.67405e-06
6.46974e-06
4.55791e-07
1.34636e-07
6.55371e-08
3.31402e-09
1.46583e-08
8.68096e-08
3.01388e-07
7.40295e-07
1.4551e-06
2.44751e-06
3.68847e-06
5.12148e-06
6.65994e-06
8.19357e-06
9.55489e-06
1.03182e-05
9.82702e-06
7.23159e-06
4.88439e-07
1.32914e-07
6.66935e-08
3.27763e-09
1.44806e-08
8.58409e-08
2.98169e-07
7.3221e-07
1.44151e-06
2.4326e-06
3.67046e-06
5.11401e-06
6.7047e-06
8.35135e-06
9.93927e-06
1.12639e-05
1.18337e-05
1.09999e-05
8.08649e-06
5.03857e-07
1.3139e-07
6.78862e-08
3.24523e-09
1.43052e-08
8.47385e-08
2.94783e-07
7.2458e-07
1.42692e-06
2.41239e-06
3.65195e-06
5.0957e-06
6.70502e-06
8.42344e-06
1.01604e-05
1.17849e-05
1.3037e-05
1.33736e-05
1.22142e-05
8.97579e-06
4.9148e-07
1.30054e-07
6.91159e-08
3.21555e-09
1.41507e-08
8.36559e-08
2.90967e-07
7.16549e-07
1.41302e-06
2.39063e-06
3.62611e-06
5.07595e-06
6.69056e-06
8.43796e-06
1.02704e-05
1.20894e-05
1.3727e-05
1.48674e-05
1.49353e-05
1.34689e-05
9.77758e-06
4.51346e-07
1.28916e-07
7.03954e-08
3.18505e-09
1.40064e-08
8.27013e-08
2.87225e-07
7.07554e-07
1.39837e-06
2.36974e-06
3.59788e-06
5.04652e-06
6.67292e-06
8.43215e-06
1.03063e-05
1.22513e-05
1.41392e-05
1.57612e-05
1.67463e-05
1.6516e-05
1.47424e-05
1.03511e-05
3.93146e-07
1.29862e-07
7.16102e-08
3.15363e-09
1.38554e-08
8.1799e-08
2.83896e-07
6.98725e-07
1.38199e-06
2.34757e-06
3.57053e-06
5.01365e-06
6.64294e-06
8.42047e-06
1.0314e-05
1.2318e-05
1.43702e-05
1.6309e-05
1.78803e-05
1.86647e-05
1.81262e-05
1.59926e-05
1.05809e-05
3.32202e-07
1.31574e-07
7.26437e-08
3.12507e-09
1.37026e-08
8.08591e-08
2.80741e-07
6.90823e-07
1.3659e-06
2.32276e-06
3.54121e-06
4.98132e-06
6.608e-06
8.39327e-06
1.03118e-05
1.23461e-05
1.44801e-05
1.66305e-05
1.85953e-05
2.00742e-05
2.06214e-05
1.97744e-05
1.70895e-05
1.03995e-05
2.81947e-07
1.33611e-07
7.33428e-08
3.09813e-09
1.35635e-08
7.99126e-08
2.77469e-07
6.83304e-07
1.3514e-06
2.29833e-06
3.50825e-06
4.94616e-06
6.57287e-06
8.35931e-06
1.02903e-05
1.23586e-05
1.45375e-05
1.67992e-05
1.90325e-05
2.09909e-05
2.23339e-05
2.26202e-05
2.1379e-05
1.79188e-05
9.76817e-06
2.47477e-07
1.35958e-07
7.36383e-08
3.07149e-09
1.34341e-08
7.90532e-08
2.74191e-07
6.75531e-07
1.33756e-06
2.27622e-06
3.47572e-06
4.90627e-06
6.53378e-06
8.32412e-06
1.02602e-05
1.23468e-05
1.45713e-05
1.68973e-05
1.92796e-05
2.15732e-05
2.34854e-05
2.46507e-05
2.46192e-05
2.27687e-05
1.83986e-05
8.67738e-06
2.28331e-07
1.38496e-07
7.36198e-08
3.04518e-09
1.33041e-08
7.8253e-08
2.71202e-07
6.67762e-07
1.32326e-06
2.25498e-06
3.44615e-06
4.86682e-06
6.4888e-06
8.28375e-06
1.02279e-05
1.23237e-05
1.45744e-05
1.6961e-05
1.94332e-05
2.19225e-05
2.42451e-05
2.60657e-05
2.69958e-05
2.64666e-05
2.3856e-05
1.84335e-05
7.18279e-06
2.18938e-07
1.41004e-07
7.34664e-08
3.02051e-09
1.31749e-08
7.74535e-08
2.68423e-07
6.60655e-07
1.30897e-06
2.23302e-06
3.41755e-06
4.83085e-06
6.44418e-06
8.23599e-06
1.01887e-05
1.22968e-05
1.45625e-05
1.6986e-05
1.95382e-05
2.21503e-05
2.47247e-05
2.70355e-05
2.87064e-05
2.9255e-05
2.8053e-05
2.46501e-05
1.7889e-05
5.45205e-06
2.15708e-07
1.43335e-07
7.31804e-08
2.99699e-09
1.30547e-08
7.66613e-08
2.65663e-07
6.54046e-07
1.29587e-06
2.21111e-06
3.38797e-06
4.79583e-06
6.40335e-06
8.18839e-06
1.01406e-05
1.22606e-05
1.45444e-05
1.69906e-05
1.95939e-05
2.23108e-05
2.50494e-05
2.76771e-05
2.99229e-05
3.13225e-05
3.13192e-05
2.93965e-05
2.51056e-05
1.67182e-05
3.77912e-06
2.15437e-07
1.45345e-07
7.28243e-08
2.9737e-09
1.29414e-08
7.59265e-08
2.62935e-07
6.47501e-07
1.28367e-06
2.19094e-06
3.35842e-06
4.75943e-06
6.36329e-06
8.14465e-06
1.00919e-05
1.22136e-05
1.45144e-05
1.6986e-05
1.96224e-05
2.24091e-05
2.5284e-05
2.81259e-05
3.07628e-05
3.28418e-05
3.38208e-05
3.31894e-05
3.04501e-05
2.51594e-05
1.48949e-05
2.42356e-06
2.16441e-07
1.47146e-07
7.23403e-08
2.9512e-09
1.28282e-08
7.5238e-08
2.6041e-07
6.4105e-07
1.27161e-06
2.17214e-06
3.33118e-06
4.7231e-06
6.32151e-06
8.10157e-06
1.00474e-05
1.21653e-05
1.44708e-05
1.69657e-05
1.96371e-05
2.24709e-05
2.54396e-05
2.84573e-05
3.13682e-05
3.39325e-05
3.57171e-05
3.61856e-05
3.48061e-05
3.11686e-05
2.46635e-05
1.24566e-05
1.48251e-06
2.17645e-07
1.4793e-07
7.17994e-08
2.93158e-09
1.27197e-08
7.45565e-08
2.58056e-07
6.35078e-07
1.25973e-06
2.15355e-06
3.30572e-06
4.68952e-06
6.2796e-06
8.05598e-06
1.00028e-05
1.21209e-05
1.44248e-05
1.69287e-05
1.96316e-05
2.25128e-05
2.55471e-05
2.86895e-05
3.18245e-05
3.47429e-05
3.7126e-05
3.85227e-05
3.83498e-05
3.61117e-05
3.15021e-05
2.33874e-05
9.61184e-06
8.98067e-07
2.18884e-07
1.48255e-07
7.12345e-08
2.91249e-09
1.26247e-08
7.39071e-08
2.55742e-07
6.2954e-07
1.24876e-06
2.1353e-06
3.28056e-06
4.65809e-06
6.24098e-06
8.01021e-06
9.95508e-06
1.20758e-05
1.43824e-05
1.68877e-05
1.96055e-05
2.25286e-05
2.56263e-05
2.88583e-05
3.21567e-05
3.5364e-05
3.8203e-05
4.03128e-05
4.11911e-05
4.02429e-05
3.70558e-05
3.13726e-05
2.1252e-05
6.7706e-06
5.68792e-07
2.20377e-07
1.4865e-07
7.07162e-08
2.89304e-09
1.25332e-08
7.33433e-08
2.53553e-07
6.24117e-07
1.2386e-06
2.11844e-06
3.25587e-06
4.62702e-06
6.20474e-06
7.96808e-06
9.90696e-06
1.20268e-05
1.43384e-05
1.68495e-05
1.95727e-05
2.25187e-05
2.5672e-05
2.89881e-05
3.24072e-05
3.58291e-05
3.90398e-05
4.17124e-05
4.34289e-05
4.36462e-05
4.17955e-05
3.75945e-05
3.06147e-05
1.82497e-05
4.37752e-06
4.03763e-07
2.21997e-07
1.49155e-07
7.02863e-08
2.87309e-09
1.24386e-08
7.28045e-08
2.51648e-07
6.19013e-07
1.22868e-06
2.10281e-06
3.23304e-06
4.59653e-06
6.16884e-06
7.92856e-06
9.86267e-06
1.1977e-05
1.42894e-05
1.68087e-05
1.95418e-05
2.24989e-05
2.56856e-05
2.90747e-05
3.26045e-05
3.61879e-05
3.96798e-05
4.2817e-05
4.52168e-05
4.64002e-05
4.58081e-05
4.29451e-05
3.7664e-05
2.89367e-05
1.45295e-05
2.65894e-06
3.32888e-07
2.23637e-07
1.49699e-07
6.99416e-08
2.85552e-09
1.23427e-08
7.22525e-08
2.49858e-07
6.14586e-07
1.21938e-06
2.08762e-06
3.212e-06
4.56848e-06
6.13362e-06
7.88922e-06
9.82104e-06
1.19312e-05
1.4239e-05
1.67615e-05
1.95068e-05
2.24792e-05
2.56848e-05
2.91212e-05
3.27463e-05
3.64751e-05
4.0182e-05
4.3679e-05
4.66504e-05
4.86451e-05
4.91427e-05
4.75959e-05
4.36421e-05
3.7126e-05
2.62508e-05
1.05282e-05
1.56458e-06
3.07108e-07
2.2518e-07
1.50175e-07
6.96331e-08
2.84155e-09
1.22612e-08
7.17009e-08
2.48044e-07
6.10456e-07
1.21133e-06
2.07341e-06
3.1915e-06
4.5426e-06
6.10137e-06
7.85066e-06
9.77948e-06
1.18881e-05
1.41928e-05
1.67121e-05
1.94635e-05
2.24533e-05
2.56815e-05
2.91476e-05
3.28379e-05
3.66907e-05
4.0588e-05
4.43654e-05
4.77892e-05
5.04749e-05
5.19155e-05
5.15675e-05
4.89367e-05
4.3835e-05
3.57799e-05
2.25532e-05
6.90403e-06
9.27276e-07
2.9921e-07
2.26598e-07
1.5048e-07
6.94213e-08
2.82789e-09
1.21972e-08
7.12416e-08
2.46249e-07
6.06306e-07
1.20387e-06
2.06116e-06
3.1724e-06
4.51734e-06
6.07166e-06
7.8155e-06
9.73878e-06
1.18449e-05
1.41492e-05
1.66667e-05
1.9417e-05
2.2417e-05
2.56693e-05
2.91674e-05
3.29018e-05
3.68435e-05
4.0902e-05
4.49256e-05
4.87085e-05
5.19534e-05
5.4213e-05
5.49363e-05
5.35827e-05
4.9775e-05
4.34129e-05
3.34028e-05
1.80005e-05
4.17062e-06
5.91635e-07
2.97703e-07
2.27956e-07
1.50334e-07
6.93178e-08
2.81282e-09
1.21344e-08
7.08885e-08
2.4477e-07
6.02248e-07
1.19645e-06
2.04986e-06
3.15601e-06
4.49392e-06
6.04253e-06
7.78317e-06
9.70184e-06
1.18025e-05
1.41053e-05
1.66241e-05
1.93744e-05
2.2376e-05
2.56438e-05
2.91748e-05
3.29539e-05
3.69586e-05
4.11369e-05
4.53682e-05
4.94652e-05
5.31624e-05
5.61006e-05
5.77743e-05
5.76083e-05
5.51033e-05
5.00631e-05
4.22517e-05
2.99109e-05
1.30707e-05
2.39775e-06
4.41438e-07
2.98192e-07
2.28709e-07
1.49565e-07
6.92598e-08
2.79738e-09
1.20629e-08
7.05497e-08
2.43658e-07
5.98942e-07
1.18924e-06
2.03872e-06
3.14098e-06
4.47398e-06
6.01574e-06
7.75127e-06
9.66807e-06
1.17642e-05
1.40621e-05
1.65806e-05
1.93343e-05
2.23384e-05
2.56118e-05
2.91655e-05
3.29884e-05
3.70547e-05
4.13212e-05
4.57117e-05
5.00737e-05
5.41665e-05
5.76641e-05
6.01446e-05
6.10572e-05
5.98278e-05
5.60615e-05
4.96721e-05
4.00393e-05
2.5312e-05
8.59244e-06
1.35952e-06
3.87359e-07
2.99009e-07
2.28965e-07
1.48609e-07
6.92237e-08
2.78381e-09
1.19908e-08
7.01616e-08
2.42612e-07
5.96501e-07
1.18345e-06
2.02798e-06
3.12623e-06
4.45578e-06
5.99299e-06
7.72207e-06
9.63457e-06
1.17295e-05
1.40233e-05
1.65376e-05
1.92925e-05
2.23028e-05
2.55822e-05
2.91468e-05
3.30019e-05
3.71264e-05
4.14764e-05
4.59881e-05
5.05572e-05
5.49852e-05
5.89747e-05
6.21346e-05
6.39864e-05
6.39532e-05
6.14984e-05
5.64033e-05
4.84944e-05
3.66605e-05
1.97932e-05
5.22094e-06
8.05713e-07
3.71344e-07
3.00022e-07
2.29121e-07
1.47669e-07
6.92042e-08
2.77388e-09
1.19305e-08
6.97767e-08
2.41424e-07
5.9425e-07
1.17926e-06
2.01948e-06
3.1122e-06
4.43807e-06
5.97241e-06
7.69759e-06
9.6041e-06
1.16956e-05
1.39885e-05
1.64994e-05
1.92511e-05
2.22648e-05
2.55539e-05
2.91293e-05
3.30028e-05
3.71713e-05
4.15993e-05
4.62221e-05
5.09537e-05
5.56486e-05
6.00566e-05
6.38182e-05
6.64796e-05
6.75158e-05
6.63478e-05
6.25393e-05
5.59778e-05
4.63088e-05
3.20838e-05
1.39986e-05
3.01672e-06
5.5348e-07
3.67314e-07
3.01021e-07
2.29256e-07
1.46813e-07
6.91894e-08
2.76545e-09
1.18885e-08
6.94683e-08
2.40258e-07
5.91708e-07
1.17546e-06
2.01349e-06
3.10132e-06
4.42139e-06
5.9526e-06
7.67571e-06
9.57912e-06
1.1665e-05
1.39546e-05
1.64653e-05
1.92147e-05
2.22267e-05
2.55222e-05
2.91118e-05
3.30026e-05
3.71995e-05
4.16876e-05
4.64134e-05
5.12912e-05
5.61994e-05
6.09473e-05
6.52257e-05
6.86105e-05
7.05894e-05
7.06118e-05
6.81311e-05
6.28782e-05
5.47109e-05
4.29424e-05
2.63266e-05
8.95893e-06
1.70647e-06
4.62987e-07
3.66812e-07
3.02176e-07
2.29342e-07
1.46029e-07
6.91798e-08
2.75536e-09
1.18525e-08
6.92703e-08
2.39359e-07
5.89247e-07
1.17119e-06
2.00816e-06
3.09389e-06
4.40882e-06
5.93412e-06
7.65461e-06
9.55705e-06
1.16405e-05
1.39244e-05
1.64324e-05
1.91827e-05
2.21936e-05
2.54895e-05
2.90896e-05
3.30006e-05
3.72234e-05
4.17532e-05
4.65603e-05
5.15712e-05
5.66704e-05
6.16945e-05
6.63998e-05
7.04131e-05
7.32464e-05
7.43432e-05
7.31499e-05
6.9214e-05
6.23527e-05
5.24537e-05
3.83401e-05
1.97037e-05
5.3192e-06
9.94388e-07
4.37388e-07
3.67381e-07
3.03161e-07
2.29224e-07
1.45394e-07
6.91752e-08
2.74325e-09
1.18066e-08
6.91097e-08
2.38834e-07
5.87427e-07
1.16712e-06
2.00218e-06
3.0874e-06
4.4006e-06
5.92074e-06
7.63546e-06
9.53599e-06
1.16192e-05
1.39011e-05
1.64036e-05
1.9152e-05
2.21653e-05
2.54621e-05
2.90655e-05
3.29922e-05
3.72433e-05
4.18106e-05
4.66769e-05
5.1795e-05
5.70659e-05
6.2336e-05
6.73948e-05
7.19363e-05
7.55217e-05
7.76069e-05
7.76107e-05
7.50092e-05
6.94898e-05
6.09276e-05
4.89983e-05
3.24439e-05
1.32289e-05
3.01385e-06
6.59498e-07
4.31303e-07
3.68369e-07
3.03625e-07
2.28829e-07
1.449e-07
6.91718e-08
2.73105e-09
1.17507e-08
6.88892e-08
2.3844e-07
5.86488e-07
1.16428e-06
1.99661e-06
3.08015e-06
4.39366e-06
5.91265e-06
7.6223e-06
9.51714e-06
1.1599e-05
1.38812e-05
1.63822e-05
1.91256e-05
2.21381e-05
2.54393e-05
2.90463e-05
3.29807e-05
3.7254e-05
4.18604e-05
4.6779e-05
5.1979e-05
5.73901e-05
6.288e-05
6.82518e-05
7.32381e-05
7.74673e-05
8.04366e-05
8.15594e-05
8.02536e-05
7.60908e-05
6.87989e-05
5.8489e-05
4.42936e-05
2.5293e-05
8.09865e-06
1.68146e-06
5.35478e-07
4.30319e-07
3.69684e-07
3.03948e-07
2.28077e-07
1.44561e-07
6.91724e-08
2.72066e-09
1.16955e-08
6.86168e-08
2.37867e-07
5.85867e-07
1.16306e-06
1.99297e-06
3.07357e-06
4.38585e-06
5.90611e-06
7.6152e-06
9.50537e-06
1.15816e-05
1.38625e-05
1.63646e-05
1.91073e-05
2.21157e-05
2.54175e-05
2.90317e-05
3.29731e-05
3.72599e-05
4.18975e-05
4.68693e-05
5.21405e-05
5.76619e-05
6.33335e-05
6.89843e-05
7.43652e-05
7.91451e-05
8.2885e-05
8.50264e-05
8.49602e-05
8.21408e-05
7.624e-05
6.71487e-05
5.48172e-05
3.8252e-05
1.76946e-05
4.66412e-06
9.86636e-07
5.00089e-07
4.30685e-07
3.70801e-07
3.04288e-07
2.27016e-07
1.44383e-07
6.91752e-08
2.71397e-09
1.16518e-08
6.83506e-08
2.3713e-07
5.84865e-07
1.16244e-06
1.99188e-06
3.06977e-06
4.37903e-06
5.89861e-06
7.61005e-06
9.50049e-06
1.15722e-05
1.3847e-05
1.63484e-05
1.90932e-05
2.21018e-05
2.54006e-05
2.90176e-05
3.29697e-05
3.72686e-05
4.19275e-05
4.6942e-05
5.22839e-05
5.79016e-05
6.37193e-05
6.96025e-05
7.53343e-05
8.06054e-05
8.50164e-05
8.80624e-05
8.91455e-05
8.76606e-05
8.31637e-05
7.53212e-05
6.443e-05
4.98685e-05
3.06968e-05
1.11781e-05
2.60063e-06
6.82034e-07
4.91789e-07
4.3169e-07
3.72049e-07
3.04491e-07
2.25695e-07
1.44285e-07
6.91793e-08
2.71196e-09
1.16271e-08
6.81577e-08
2.36423e-07
5.83509e-07
1.16117e-06
1.99176e-06
3.06949e-06
4.37592e-06
5.89249e-06
7.60382e-06
9.49766e-06
1.15706e-05
1.38408e-05
1.63358e-05
1.90805e-05
2.20926e-05
2.5393e-05
2.90087e-05
3.29665e-05
3.7281e-05
4.19583e-05
4.70042e-05
5.24039e-05
5.81149e-05
6.40603e-05
7.01342e-05
7.61616e-05
8.18691e-05
8.68827e-05
9.07301e-05
9.28552e-05
9.26386e-05
8.95152e-05
8.31108e-05
7.33822e-05
6.04285e-05
4.35421e-05
2.21552e-05
6.58003e-06
1.4601e-06
5.79939e-07
4.90527e-07
4.3282e-07
3.73136e-07
3.04486e-07
2.24514e-07
1.44221e-07
6.91846e-08
2.71e-09
1.16274e-08
6.80774e-08
2.35962e-07
5.82235e-07
1.15929e-06
1.99066e-06
3.07051e-06
4.3772e-06
5.89095e-06
7.59935e-06
9.49373e-06
1.15712e-05
1.38433e-05
1.63336e-05
1.90718e-05
2.20847e-05
2.53903e-05
2.90096e-05
3.29684e-05
3.72924e-05
4.19917e-05
4.70651e-05
5.25094e-05
5.82968e-05
6.43634e-05
7.0605e-05
7.68779e-05
8.29569e-05
8.85078e-05
9.30839e-05
9.61483e-05
9.71053e-05
9.53427e-05
9.04076e-05
8.18922e-05
7.02941e-05
5.51245e-05
3.551e-05
1.43295e-05
3.71002e-06
9.0305e-07
5.5365e-07
4.90882e-07
4.34347e-07
3.73719e-07
3.03823e-07
2.23655e-07
1.44187e-07
6.91904e-08
2.70634e-09
1.16228e-08
6.81461e-08
2.35877e-07
5.81547e-07
1.1576e-06
1.9887e-06
3.07026e-06
4.3802e-06
5.89479e-06
7.60039e-06
9.49204e-06
1.15706e-05
1.38481e-05
1.63412e-05
1.90747e-05
2.20812e-05
2.53889e-05
2.90156e-05
3.29807e-05
3.73087e-05
4.20229e-05
4.71266e-05
5.26096e-05
5.84582e-05
6.46261e-05
7.1024e-05
7.75135e-05
8.39058e-05
8.99186e-05
9.51478e-05
9.90745e-05
0.00010111
0.000100644
9.70989e-05
9.0062e-05
7.95929e-05
6.58686e-05
4.84006e-05
2.60828e-05
8.54353e-06
2.06257e-06
6.84877e-07
5.48224e-07
4.91772e-07
4.35775e-07
3.74044e-07
3.02573e-07
2.23097e-07
1.44174e-07
6.91968e-08
2.69954e-09
1.16097e-08
6.81798e-08
2.36279e-07
5.81724e-07
1.157e-06
1.9871e-06
3.06895e-06
4.3816e-06
5.9006e-06
7.6077e-06
9.49683e-06
1.15727e-05
1.38516e-05
1.63513e-05
1.90888e-05
2.20908e-05
2.53923e-05
2.90225e-05
3.2998e-05
3.73357e-05
4.20585e-05
4.71836e-05
5.27077e-05
5.86099e-05
6.48604e-05
7.13898e-05
7.80797e-05
8.47489e-05
9.11557e-05
9.69532e-05
0.000101662
0.0001047
0.000105445
0.000103299
9.77807e-05
8.8464e-05
7.60388e-05
6.01175e-05
3.97954e-05
1.70873e-05
4.83859e-06
1.20159e-06
6.20231e-07
5.47728e-07
4.93064e-07
4.3716e-07
3.74314e-07
3.00865e-07
2.22806e-07
1.44164e-07
6.92018e-08
2.68908e-09
1.15783e-08
6.81639e-08
2.3657e-07
5.83013e-07
1.15798e-06
1.98719e-06
3.06818e-06
4.38179e-06
5.90454e-06
7.61724e-06
9.50867e-06
1.15822e-05
1.38582e-05
1.63601e-05
1.91054e-05
2.21129e-05
2.54101e-05
2.90347e-05
3.30159e-05
3.73678e-05
4.21045e-05
4.72443e-05
5.2799e-05
5.8756e-05
6.50788e-05
7.17181e-05
7.85771e-05
8.55012e-05
9.22573e-05
9.8545e-05
0.000103943
0.000107901
0.000109787
0.000108972
0.000104909
9.70558e-05
8.57269e-05
7.10878e-05
5.28921e-05
2.94716e-05
1.02622e-05
2.67009e-06
8.22375e-07
6.05061e-07
5.48458e-07
4.94421e-07
4.38279e-07
3.74028e-07
2.99217e-07
2.2266e-07
1.44161e-07
6.92065e-08
2.67767e-09
1.15276e-08
6.80363e-08
2.36698e-07
5.84049e-07
1.16098e-06
1.98974e-06
3.06982e-06
4.38282e-06
5.90707e-06
7.62464e-06
9.52299e-06
1.15998e-05
1.38735e-05
1.63722e-05
1.91207e-05
2.21375e-05
2.54418e-05
2.90628e-05
3.30395e-05
3.74e-05
4.21554e-05
4.73152e-05
5.28921e-05
5.88912e-05
6.52861e-05
7.20217e-05
7.90245e-05
8.61647e-05
9.32423e-05
9.9967e-05
0.000105967
0.000110747
0.000113695
0.000114149
0.000111504
0.000105233
9.5005e-05
8.16026e-05
6.47877e-05
4.35754e-05
1.94314e-05
5.82913e-06
1.50621e-06
6.94895e-07
6.02502e-07
5.49324e-07
4.96061e-07
4.38768e-07
3.73102e-07
2.98008e-07
2.22581e-07
1.44165e-07
6.92102e-08
2.66651e-09
1.14744e-08
6.77935e-08
2.36458e-07
5.84723e-07
1.1635e-06
1.99539e-06
3.07485e-06
4.3869e-06
5.91083e-06
7.63057e-06
9.53489e-06
1.16199e-05
1.38977e-05
1.63943e-05
1.91397e-05
2.21606e-05
2.54764e-05
2.91065e-05
3.30802e-05
3.74377e-05
4.22056e-05
4.73899e-05
5.29946e-05
5.90267e-05
6.54782e-05
7.23084e-05
7.9438e-05
8.67632e-05
9.41155e-05
0.000101239
0.000107779
0.000113288
0.000117198
0.000118853
0.000117588
0.000112869
0.00010403
9.17486e-05
7.60148e-05
5.69171e-05
3.22783e-05
1.17153e-05
3.21012e-06
9.65873e-07
6.62271e-07
6.02717e-07
5.50495e-07
4.97497e-07
4.39046e-07
3.71246e-07
2.97289e-07
2.22541e-07
1.44166e-07
6.92132e-08
2.65749e-09
1.14243e-08
6.75362e-08
2.35835e-07
5.84555e-07
1.16536e-06
2.00022e-06
3.08403e-06
4.39532e-06
5.91839e-06
7.63802e-06
9.54512e-06
1.16373e-05
1.39247e-05
1.64266e-05
1.91698e-05
2.21878e-05
2.55092e-05
2.91528e-05
3.31381e-05
3.74942e-05
4.22617e-05
4.7463e-05
5.31001e-05
5.91692e-05
6.56671e-05
7.25726e-05
7.9824e-05
8.73135e-05
9.49024e-05
0.000102372
0.000109405
0.000115572
0.000120348
0.000123106
0.000123172
0.000119899
0.000112712
0.000101457
8.69593e-05
6.90545e-05
4.66908e-05
2.12447e-05
6.66682e-06
1.78572e-06
7.71117e-07
6.55796e-07
6.03519e-07
5.51843e-07
4.9874e-07
4.38718e-07
3.69092e-07
2.96941e-07
2.22522e-07
1.44165e-07
6.92163e-08
2.65188e-09
1.13864e-08
6.7298e-08
2.3516e-07
5.8349e-07
1.1657e-06
2.00408e-06
3.09207e-06
4.40897e-06
5.93119e-06
7.65007e-06
9.55726e-06
1.16528e-05
1.39486e-05
1.64617e-05
1.92115e-05
2.22277e-05
2.55462e-05
2.91973e-05
3.31987e-05
3.75693e-05
4.23373e-05
4.75421e-05
5.32023e-05
5.93137e-05
6.58608e-05
7.28295e-05
8.01801e-05
8.78262e-05
9.56258e-05
0.000103394
0.000110857
0.000117627
0.000123193
0.000126961
0.000128267
0.000126439
0.000120893
0.000110927
9.75282e-05
8.06515e-05
6.03732e-05
3.43096e-05
1.27646e-05
3.66945e-06
1.10464e-06
7.18567e-07
6.55224e-07
6.0458e-07
5.53426e-07
4.9932e-07
4.37927e-07
3.67295e-07
2.96779e-07
2.22505e-07
1.44161e-07
6.92158e-08
2.65033e-09
1.13661e-08
6.71319e-08
2.3454e-07
5.82293e-07
1.16441e-06
2.00559e-06
3.09869e-06
4.42094e-06
5.95002e-06
7.66811e-06
9.57486e-06
1.16707e-05
1.39704e-05
1.64932e-05
1.92562e-05
2.22804e-05
2.55974e-05
2.92463e-05
3.32573e-05
3.76472e-05
4.24333e-05
4.76414e-05
5.33098e-05
5.94525e-05
6.60537e-05
7.30879e-05
8.05224e-05
8.82972e-05
9.62953e-05
0.000104332
0.000112171
0.00011947
0.000125764
0.000130464
0.000132921
0.000132459
0.000128441
0.000120121
0.000107721
9.19783e-05
7.29435e-05
4.9029e-05
2.23428e-05
7.23138e-06
2.02525e-06
8.46809e-07
7.07347e-07
6.55971e-07
6.05676e-07
5.54758e-07
4.99517e-07
4.35826e-07
3.66206e-07
2.967e-07
2.2249e-07
1.44156e-07
6.92155e-08
2.65193e-09
1.13671e-08
6.70648e-08
2.34158e-07
5.8123e-07
1.16287e-06
2.00458e-06
3.10214e-06
4.43113e-06
5.96674e-06
7.69311e-06
9.59934e-06
1.16949e-05
1.3995e-05
1.65224e-05
1.9297e-05
2.23365e-05
2.56631e-05
2.93108e-05
3.33208e-05
3.77228e-05
4.25322e-05
4.77629e-05
5.34386e-05
5.95955e-05
6.62388e-05
7.33418e-05
8.08617e-05
8.87479e-05
9.69109e-05
0.000105198
0.000113373
0.00012114
0.000128078
0.000133644
0.000137178
0.000138003
0.00013545
0.00012885
0.000117649
0.000102992
8.48966e-05
6.32947e-05
3.54576e-05
1.32947e-05
3.95739e-06
1.22589e-06
7.73826e-07
7.05916e-07
6.56833e-07
6.0692e-07
5.56072e-07
4.99014e-07
4.33347e-07
3.65687e-07
2.96651e-07
2.22478e-07
1.44153e-07
6.92151e-08
2.65465e-09
1.13827e-08
6.71256e-08
2.34083e-07
5.80686e-07
1.16157e-06
2.00322e-06
3.10213e-06
4.43724e-06
5.98124e-06
7.71536e-06
9.63142e-06
1.17269e-05
1.40268e-05
1.6555e-05
1.93349e-05
2.23879e-05
2.57324e-05
2.93916e-05
3.34009e-05
3.78037e-05
4.26285e-05
4.7887e-05
5.35908e-05
5.97607e-05
6.64269e-05
7.35842e-05
8.11921e-05
8.91885e-05
9.74964e-05
0.000105994
0.000114483
0.000122667
0.00013018
0.00013652
0.000141064
0.000143108
0.000141966
0.000137013
0.000127327
0.00011371
9.65693e-05
7.63539e-05
5.0627e-05
2.27367e-05
7.46962e-06
2.1687e-06
9.1563e-07
7.5774e-07
7.06389e-07
6.57752e-07
6.08305e-07
5.56498e-07
4.9806e-07
4.31177e-07
3.65464e-07
2.96612e-07
2.22463e-07
1.44145e-07
6.92125e-08
2.65732e-09
1.14031e-08
6.72683e-08
2.34426e-07
5.80842e-07
1.16119e-06
2.00221e-06
3.10172e-06
4.43909e-06
5.99076e-06
7.73492e-06
9.66014e-06
1.17672e-05
1.40673e-05
1.65956e-05
1.93766e-05
2.2436e-05
2.57966e-05
2.94764e-05
3.34996e-05
3.79026e-05
4.27298e-05
4.80079e-05
5.37453e-05
5.995e-05
6.66363e-05
7.38275e-05
8.1506e-05
8.96143e-05
9.80628e-05
0.000106747
0.000115502
0.000124075
0.000132103
0.000139139
0.0001446
0.000147799
0.000148011
0.000144558
0.000136664
0.000124099
0.000108049
8.86252e-05
6.55229e-05
3.58207e-05
1.33745e-05
4.06e-06
1.30301e-06
8.26338e-07
7.55294e-07
7.07322e-07
6.58681e-07
6.09557e-07
5.56492e-07
4.95513e-07
4.29949e-07
3.6536e-07
2.96573e-07
2.22442e-07
1.44135e-07
6.92079e-08
2.65759e-09
1.14191e-08
6.74335e-08
2.35031e-07
5.81928e-07
1.16206e-06
2.00263e-06
3.1018e-06
4.44048e-06
5.99528e-06
7.74866e-06
9.68555e-06
1.18034e-05
1.41173e-05
1.66462e-05
1.94276e-05
2.24885e-05
2.58565e-05
2.95554e-05
3.36022e-05
3.80218e-05
4.2851e-05
4.81338e-05
5.38959e-05
6.01405e-05
6.68709e-05
7.40915e-05
8.18184e-05
9.00169e-05
9.86064e-05
0.000107469
0.000116461
0.000125368
0.000133875
0.00014154
0.000147831
0.000152094
0.000153599
0.000151628
0.0001455
0.000134299
0.000119289
0.000100635
7.90876e-05
5.12686e-05
2.25278e-05
7.4508e-06
2.21926e-06
9.693e-07
8.06494e-07
7.55769e-07
7.08114e-07
6.59664e-07
6.10521e-07
5.55619e-07
4.92712e-07
4.29405e-07
3.65289e-07
2.96534e-07
2.22418e-07
1.44125e-07
6.92028e-08
2.65602e-09
1.1423e-08
6.75674e-08
2.35706e-07
5.83605e-07
1.16457e-06
2.00487e-06
3.10378e-06
4.44252e-06
5.99933e-06
7.75662e-06
9.70429e-06
1.18357e-05
1.41622e-05
1.67071e-05
1.94897e-05
2.25514e-05
2.59214e-05
2.96294e-05
3.36985e-05
3.81451e-05
4.2994e-05
4.8281e-05
5.40513e-05
6.03271e-05
6.71049e-05
7.43812e-05
8.21498e-05
9.04139e-05
9.91196e-05
0.000108158
0.000117376
0.000126583
0.000135505
0.000143753
0.000150801
0.000156038
0.000158752
0.000158199
0.000153694
0.000144238
0.000130213
0.000112579
9.17271e-05
6.67383e-05
3.52637e-05
1.30621e-05
4.02603e-06
1.34197e-06
8.74235e-07
8.03395e-07
7.56446e-07
7.0889e-07
6.60915e-07
6.10664e-07
5.54089e-07
4.90476e-07
4.29177e-07
3.65221e-07
2.96489e-07
2.22388e-07
1.44107e-07
6.91952e-08
2.65214e-09
1.14157e-08
6.76225e-08
2.36259e-07
5.85432e-07
1.16813e-06
2.00963e-06
3.10822e-06
4.44697e-06
6.0043e-06
7.7642e-06
9.71655e-06
1.18603e-05
1.42024e-05
1.67622e-05
1.9563e-05
2.26269e-05
2.59981e-05
2.97087e-05
3.37891e-05
3.82616e-05
4.31413e-05
4.84523e-05
5.42294e-05
6.05179e-05
6.73345e-05
7.46684e-05
8.25058e-05
9.08281e-05
9.96221e-05
0.000108807
0.000118245
0.000127735
0.000137031
0.000145791
0.000153544
0.000159676
0.00016351
0.000164303
0.000161312
0.000153715
0.000140924
0.000124318
0.000104108
8.09536e-05
5.06583e-05
2.16554e-05
7.19445e-06
2.20119e-06
1.01105e-06
8.53373e-07
8.03457e-07
7.57157e-07
7.0973e-07
6.62061e-07
6.10329e-07
5.50943e-07
4.89387e-07
4.29056e-07
3.65155e-07
2.9644e-07
2.22355e-07
1.44088e-07
6.91888e-08
2.64582e-09
1.1396e-08
6.76073e-08
2.36547e-07
5.86943e-07
1.1719e-06
2.01586e-06
3.11597e-06
4.4544e-06
6.01203e-06
7.77295e-06
9.72852e-06
1.18776e-05
1.42339e-05
1.68116e-05
1.963e-05
2.27146e-05
2.60889e-05
2.98012e-05
3.38852e-05
3.83715e-05
4.32816e-05
4.86278e-05
5.44335e-05
6.07327e-05
6.75682e-05
7.49495e-05
8.28569e-05
9.12654e-05
0.000100138
0.000109439
0.000119061
0.000128824
0.000138472
0.000147696
0.000156074
0.000163046
0.00016792
0.000169972
0.000168455
0.000162635
0.000151382
0.00013585
0.000116454
9.41296e-05
6.6673e-05
3.36843e-05
1.23322e-05
3.8566e-06
1.35134e-06
9.18787e-07
8.4989e-07
8.04066e-07
7.57751e-07
7.1068e-07
6.62665e-07
6.08768e-07
5.48035e-07
4.88952e-07
4.28959e-07
3.65077e-07
2.96385e-07
2.22317e-07
1.44067e-07
6.9178e-08
2.63756e-09
1.13628e-08
6.75147e-08
2.36589e-07
5.87824e-07
1.17506e-06
2.02241e-06
3.12566e-06
4.46592e-06
6.02334e-06
7.78494e-06
9.74188e-06
1.18948e-05
1.4257e-05
1.68512e-05
1.96902e-05
2.27951e-05
2.61931e-05
2.99094e-05
3.39955e-05
3.8487e-05
4.34139e-05
4.87953e-05
5.46415e-05
6.09749e-05
6.78264e-05
7.52343e-05
8.32003e-05
9.16931e-05
0.000100673
0.000110078
0.000119851
0.000129845
0.000139831
0.000149489
0.000158435
0.000166162
0.000172019
0.000175254
0.000175126
0.000170887
0.000161499
0.000147031
0.000128738
0.000106892
8.17761e-05
4.86892e-05
2.0146e-05
6.69849e-06
2.11458e-06
1.04275e-06
8.98702e-07
8.49961e-07
8.04682e-07
7.58295e-07
7.11624e-07
6.62273e-07
6.06599e-07
5.46173e-07
4.88754e-07
4.28853e-07
3.64998e-07
2.96323e-07
2.22273e-07
1.44041e-07
6.91666e-08
2.62812e-09
1.13212e-08
6.73359e-08
2.36364e-07
5.88112e-07
1.17704e-06
2.0279e-06
3.13564e-06
4.47971e-06
6.03934e-06
7.80089e-06
9.75899e-06
1.19136e-05
1.42802e-05
1.68811e-05
1.97392e-05
2.28678e-05
2.62893e-05
3.00324e-05
3.41239e-05
3.86184e-05
4.35524e-05
4.89541e-05
5.48412e-05
6.12217e-05
6.81135e-05
7.55443e-05
8.35459e-05
9.21107e-05
0.000101194
0.000110733
0.000120641
0.000130828
0.000141101
0.000151175
0.000160655
0.000169069
0.000175823
0.000180189
0.000181375
0.00017863
0.000171078
0.000157995
0.00014078
0.000119605
9.56776e-05
6.51579e-05
3.11919e-05
1.12552e-05
3.56306e-06
1.33362e-06
9.60054e-07
8.95477e-07
8.50617e-07
8.0519e-07
7.58893e-07
7.12366e-07
6.61625e-07
6.02919e-07
5.45415e-07
4.88613e-07
4.28747e-07
3.64905e-07
2.96256e-07
2.22227e-07
1.44009e-07
6.9154e-08
2.61859e-09
1.12742e-08
6.71057e-08
2.35839e-07
5.87768e-07
1.17789e-06
2.03147e-06
3.14397e-06
4.49358e-06
6.05776e-06
7.82208e-06
9.78054e-06
1.19368e-05
1.43055e-05
1.69111e-05
1.97771e-05
2.29277e-05
2.63764e-05
3.01466e-05
3.42681e-05
3.87695e-05
4.37076e-05
4.91191e-05
5.50311e-05
6.14582e-05
6.84044e-05
7.58835e-05
8.39167e-05
9.25294e-05
0.000101701
0.000111366
0.00012144
0.000131801
0.000142319
0.00015275
0.000162735
0.000171798
0.000179375
0.000184788
0.000187249
0.000185937
0.000180082
0.000168671
0.000152555
0.000132296
0.000108864
8.12511e-05
4.54687e-05
1.81601e-05
6.02925e-06
1.97482e-06
1.06653e-06
9.42729e-07
8.95607e-07
8.51167e-07
8.05558e-07
7.59568e-07
7.12395e-07
6.58799e-07
6.00378e-07
5.45116e-07
4.88476e-07
4.28632e-07
3.64803e-07
2.96176e-07
2.2217e-07
1.43973e-07
6.91389e-08
2.60912e-09
1.12259e-08
6.68394e-08
2.35136e-07
5.86701e-07
1.17757e-06
2.0333e-06
3.14969e-06
4.50531e-06
6.07611e-06
7.8459e-06
9.80782e-06
1.19648e-05
1.43355e-05
1.69436e-05
1.9815e-05
2.29748e-05
2.6449e-05
3.02505e-05
3.44031e-05
3.89378e-05
4.3885e-05
4.9302e-05
5.52268e-05
6.16835e-05
6.86841e-05
7.6226e-05
8.43187e-05
9.29739e-05
0.000102207
0.00011198
0.000122208
0.000132775
0.000143515
0.000154252
0.000164678
0.000174352
0.000182706
0.000189087
0.000192749
0.000192858
0.000188532
0.00017904
0.000164052
0.000144862
0.000121853
9.60541e-05
6.19981e-05
2.80231e-05
9.95526e-06
3.19419e-06
1.30076e-06
9.99095e-07
9.40123e-07
8.96155e-07
8.5151e-07
8.05787e-07
7.60537e-07
7.10975e-07
6.55696e-07
5.99181e-07
5.44928e-07
4.88333e-07
4.28498e-07
3.64699e-07
2.9609e-07
2.22105e-07
1.43932e-07
6.91223e-08
2.60029e-09
1.11793e-08
6.65651e-08
2.34305e-07
5.85201e-07
1.17587e-06
2.03325e-06
3.15285e-06
4.51346e-06
6.09156e-06
7.86924e-06
9.83777e-06
1.19992e-05
1.4371e-05
1.69817e-05
1.98558e-05
2.3022e-05
2.65067e-05
3.03377e-05
3.4526e-05
3.90964e-05
4.40803e-05
4.95093e-05
5.54411e-05
6.19154e-05
6.89515e-05
7.65564e-05
8.4722e-05
9.34486e-05
0.000102738
0.000112591
0.000122953
0.000133707
0.000144699
0.000155717
0.000166523