/*--------------------------------*- C++ -*----------------------------------*\
| =========                 |                                                 |
| \\      /  F ield         | OpenFOAM: The Open Source CFD Toolbox           |
|  \\    /   O peration     | Version:  v2012                                 |
|   \\  /    A nd           | Website:  www.openfoam.com                      |
|    \\/     M anipulation  |                                                 |
\*---------------------------------------------------------------------------*/
FoamFile
{
    version     2.0;
    format      ascii;
    class       volScalarField;
    location    "0";
    object      q2;
}
// * * * * * * * * * * * * * * * * * * * * * * * * * * * * * * * * * * * * * //

dimensions      [0 0 0 0 0 0 0];


internalField   nonuniform List<scalar> 
39402
(
1
1
1
1
1
1
1
1
1
0.999994
1
1
1
1
0.976951
1
1
1
1
1
0.729122
1
1
1
1
1
0.995405
0.406394
1
1
1
1
1
1
0.866051
0.215108
1
1
1
1
1
1
0.999757
0.554408
0.116782
1
1
1
1
1
1
1
0.966373
0.303468
0.0656365
1
1
1
1
1
1
1
0.999567
0.75382
0.162062
0.0379156
1
1
1
1
1
1
1
0.99999
0.986235
0.45815
0.0878147
0.022442
1
1
1
1
1
1
1
0.999999
0.999596
0.905922
0.252091
0.0485409
0.0134344
1
1
1
1
1
1
1
1
0.999974
0.996117
0.727994
0.136229
0.0272211
0.00818697
1
1
1
1
1
1
1
1
0.999995
0.99982
0.979508
0.518955
0.0738207
0.0155469
0.00501406
1
1
1
1
1
1
1
1
0.999998
0.999976
0.999029
0.935335
0.34646
0.0403134
0.00899475
0.0030862
1
1
1
1
1
1
1
1
0.999999
0.999993
0.999906
0.996347
0.856029
0.230109
0.0220707
0.00527036
0.00189581
1
1
1
1
1
1
1
1
0.999999
0.999997
0.99998
0.999702
0.989829
0.747116
0.164914
0.0120804
0.00311113
0.00116087
1
1
1
1
1
1
1
1
1
0.999998
0.999993
0.99995
0.99925
0.976752
0.633502
0.135494
0.00662409
0.00183097
0.000680912
1
1
1
1
1
1
1
1
1
0.999999
0.999996
0.999985
0.999897
0.998386
0.954117
0.546315
0.108691
0.00363814
0.00104332
0.000411618
1
1
1
1
1
1
1
1
1
0.999999
0.999998
0.999994
0.999975
0.999821
0.996823
0.920369
0.473994
0.0778471
0.00201719
0.000605755
0.000291101
1
1
1
1
1
1
1
1
1
0.999999
0.999999
0.999997
0.999991
0.999966
0.999712
0.99398
0.867026
0.368821
0.0514854
0.0011483
0.000394205
0.000247221
1
1
1
1
1
1
1
1
1
0.999999
0.999999
0.999998
0.999996
0.99999
0.999958
0.99954
0.988053
0.783158
0.266819
0.0309338
0.000681427
0.000255981
0.000314149
1
1
1
1
1
1
1
1
1
0.999999
0.999999
0.999999
0.999997
0.999996
0.99999
0.999948
0.999198
0.975494
0.668321
0.188288
0.0165947
0.000419369
0.000162722
0.000550065
1
1
1
1
1
1
1
1
1
1
0.999999
0.999999
0.999998
0.999998
0.999996
0.999991
0.999931
0.998447
0.949135
0.534032
0.136199
0.00782497
0.000263219
0.000109507
0.000649651
1
1
1
1
1
1
1
1
1
1
0.999999
0.999999
0.999999
0.999999
0.999998
0.999997
0.999991
0.999895
0.996622
0.896474
0.400395
0.102794
0.00320809
0.00016745
8.97337e-05
0.000501258
1
1
1
1
1
1
1
1
1
1
1
0.999999
0.999999
0.999999
0.999999
0.999999
0.999998
0.99999
0.99981
0.991768
0.802978
0.284761
0.0685538
0.00115251
0.000112416
9.02398e-05
0.000417011
1
1
1
1
1
1
1
1
1
1
1
1
0.999999
0.999999
1
1
0.999999
0.999998
0.999986
0.999575
0.978528
0.664904
0.195374
0.0343052
0.000390046
8.41401e-05
0.000104663
0.000363047
1
1
1
1
1
1
1
1
1
1
1
1
1
1
1
1
1
1
0.999998
0.999977
0.998827
0.943641
0.503292
0.134671
0.0145734
0.000147597
7.14307e-05
0.000134515
0.000278247
1
1
1
1
1
1
1
1
1
1
1
1
1
1
1
1
1
1
1
0.999998
0.999946
0.996184
0.863775
0.352029
0.0969053
0.00540531
7.5663e-05
6.84265e-05
0.00015543
0.000151974
1
1
1
1
1
1
1
1
1
1
1
1
1
1
1
1
1
1
1
1
0.999997
0.999833
0.986502
0.722424
0.235515
0.0627415
0.00176981
5.63451e-05
6.89597e-05
0.000175318
8.06346e-05
1
1
1
1
1
1
1
1
1
1
1
1
1
1
1
1
1
1
1
1
1
0.999993
0.999334
0.954132
0.53983
0.157599
0.0283071
0.000542229
5.58387e-05
7.38624e-05
0.000236665
5.69235e-05
1
1
1
1
1
1
1
1
1
1
1
1
1
1
1
1
1
1
1
1
1
1
0.999975
0.996921
0.86842
0.368791
0.110392
0.0107223
0.000183305
6.39373e-05
8.9691e-05
0.000271337
5.00361e-05
1
1
1
1
1
1
1
1
1
1
1
1
1
1
1
1
1
1
1
1
1
1
0.999999
0.999877
0.985722
0.707736
0.242622
0.0740164
0.00361905
8.71826e-05
7.52037e-05
0.000129801
0.000194299
5.40288e-05
1
1
1
1
1
1
1
1
1
1
1
1
1
1
1
1
1
1
1
1
1
1
1
0.999996
0.999265
0.942516
0.507139
0.163089
0.0330818
0.00114589
6.6968e-05
8.59017e-05
0.000221803
0.000102666
7.4844e-05
1
1
1
1
1
1
1
1
1
1
1
1
1
1
1
1
1
1
1
1
1
1
1
1
0.999975
0.995414
0.826457
0.334058
0.113201
0.0124695
0.000384654
7.13399e-05
9.90055e-05
0.000403862
5.22997e-05
0.000182612
1
1
1
1
1
1
1
1
1
1
1
1
1
1
1
1
1
1
1
1
1
1
1
1
0.999999
0.999808
0.975054
0.631735
0.217476
0.0662466
0.00437815
0.000162303
9.51309e-05
0.000110675
0.00133647
2.60597e-05
0.0005887
1
1
1
1
1
1
1
1
1
1
1
1
1
1
1
1
1
1
1
1
1
1
1
1
1
0.999994
0.998411
0.899519
0.42857
0.150843
0.0280163
0.00154602
0.000103757
0.000182413
0.000114422
0.005306
9.20463e-06
0.00160751
1
1
1
1
1
1
1
1
1
1
1
1
1
1
1
1
1
1
1
1
1
1
1
1
1
1
0.999943
0.988518
0.731266
0.279617
0.105275
0.0105712
0.000606671
0.000123184
0.000318984
9.08389e-05
0.00877591
5.18623e-06
0.00343835
1
1
1
1
1
1
1
1
1
1
1
1
1
1
1
1
1
1
1
1
1
1
1
1
1
1
0.999999
0.999369
0.939556
0.514524
0.190829
0.0481804
0.00398377
0.00031577
0.000233062
0.000325347
6.25085e-05
0.00231657
3.51565e-06
0.00654794
1
1
1
1
1
1
1
1
1
1
1
1
1
1
1
1
1
1
1
1
1
1
1
1
1
1
1
0.99998
0.994002
0.798622
0.336662
0.132369
0.0190104
0.00169141
0.000265711
0.000516782
0.00023173
7.45704e-05
0.000376467
3.04577e-06
0.011021
1
1
1
1
1
1
1
1
1
1
1
1
1
1
1
1
1
1
1
1
1
1
1
1
1
1
1
1
0.99971
0.960027
0.580545
0.225815
0.0684533
0.00748498
0.000924288
0.000369435
0.00138628
0.000101575
0.000120959
8.45521e-05
3.27289e-06
0.0188137
1
1
1
1
1
1
1
1
1
1
1
1
1
1
1
1
1
1
1
1
1
1
1
1
1
1
1
1
0.999992
0.99642
0.839932
0.3825
0.155696
0.0284376
0.00338652
0.000717595
0.000803366
0.00258913
4.13194e-05
0.000434916
1.84536e-05
4.64066e-06
0.0342149
1
1
1
1
1
1
1
1
1
1
1
1
1
1
1
1
1
1
1
1
1
1
1
1
1
1
1
1
1
0.999838
0.970672
0.625532
0.254922
0.0869443
0.0115697
0.00203415
0.000834012
0.00227471
0.00214092
2.14471e-05
0.239821
4.1006e-06
8.58196e-06
0.0725786
1
1
1
1
1
1
1
1
1
1
1
1
1
1
1
1
1
1
1
1
1
1
1
1
1
1
1
1
1
0.999996
0.997474
0.864099
0.416145
0.175706
0.0374268
0.0054956
0.00173099
0.00145073
0.0101888
0.000424959
1.4431e-05
0.13238
1.28782e-06
2.18225e-05
0.192682
1
1
1
1
1
1
1
1
1
1
1
1
1
1
1
1
1
1
1
1
1
1
1
1
1
1
1
1
1
1
0.999889
0.975659
0.652618
0.277449
0.101198
0.0156895
0.00361169
0.00203751
0.00431226
0.0420173
7.53967e-05
1.95024e-05
0.00097437
6.76147e-07
8.63857e-05
0.541699
1
1
1
1
1
1
1
1
1
1
1
1
1
1
1
1
1
1
1
1
1
1
1
1
1
1
1
1
1
1
0.999997
0.997884
0.874424
0.437426
0.190971
0.0444767
0.00779459
0.00356048
0.0034726
0.021464
0.0478105
2.22152e-05
3.36399e-05
6.58417e-05
5.38878e-07
0.000322793
0.969752
1
1
1
1
1
1
1
1
1
1
1
1
1
1
1
1
1
1
1
1
1
1
1
1
1
1
1
1
1
1
1
0.999904
0.976591
0.663105
0.294222
0.110156
0.0190243
0.00556728
0.00507251
0.0105283
0.196617
0.00818482
1.06902e-05
0.000118318
8.72648e-06
7.32123e-07
0.00101238
0.999999
1
1
1
1
1
1
1
1
1
1
1
1
1
1
1
1
1
1
1
1
1
1
1
1
1
1
1
1
1
1
1
0.999998
0.997858
0.87318
0.446619
0.202076
0.0487143
0.00977149
0.00640263
0.00963563
0.0949653
1
0.000609896
5.65447e-06
0.268413
9.89873e-07
1.56916e-06
0.00347017
1
1
1
1
1
1
1
1
1
1
1
1
1
1
1
1
1
1
1
1
1
1
1
1
1
1
1
1
1
1
1
1
1
0.999897
0.974825
0.657713
0.302564
0.113555
0.0212119
0.00753908
0.0116333
0.0377324
0.99983
0.21493
6.35405e-05
5.52572e-06
0.00572401
3.16615e-07
5.27306e-06
0.0157292
1
1
1
1
1
1
1
1
1
1
1
1
1
1
1
1
1
1
1
1
1
1
1
1
1
1
1
1
1
1
1
1
1
0.999997
0.997434
0.862716
0.443658
0.20711
0.0502417
0.0113895
0.0101164
0.0303958
0.757391
0.957955
0.0295986
1.26635e-05
9.84977e-06
9.6497e-05
1.8507e-07
2.8862e-05
0.0935306
1
1
1
1
1
1
1
1
1
1
1
1
1
1
1
1
1
1
1
1
1
1
1
1
1
1
1
1
1
1
1
1
1
1
0.999862
0.969354
0.64007
0.303942
0.111575
0.0223603
0.0096279
0.0246851
0.242304
0.257828
0.999972
0.0067438
4.84854e-06
4.11884e-05
3.57189e-06
2.1989e-07
0.000188822
0.523943
1
1
1
1
1
1
1
1
1
1
1
1
1
1
1
1
1
1
1
1
1
1
1
1
1
1
1
1
1
1
1
1
1
1
0.999996
0.996376
0.841359
0.431103
0.206965
0.0490926
0.0127395
0.0153205
0.178533
0.782308
0.0555268
0.926021
0.000188768
2.38596e-06
0.0143967
3.9392e-07
5.06149e-07
0.0011116
0.999754
1
1
1
1
1
1
1
1
1
1
1
1
1
1
1
1
1
1
1
1
1
1
1
1
1
1
1
1
1
1
1
1
1
1
1
0.999766
0.958906
0.613807
0.29806
0.104808
0.0224419
0.0120095
0.0578951
1
0.592762
0.0295035
0.0165388
1.66926e-05
2.50364e-06
0.000482402
1.07488e-07
2.21504e-06
0.00839111
1
1
1
1
1
1
1
1
1
1
1
1
1
1
1
1
1
1
1
1
1
1
1
1
1
1
1
1
1
1
1
1
1
1
1
1
0.999991
0.994129
0.809418
0.417307
0.200702
0.0457362
0.0137261
0.0246468
0.999205
0.999672
0.755349
0.0271286
0.00642974
4.3327e-06
6.12535e-06
9.33034e-06
8.03658e-08
1.8432e-05
0.0802178
1
1
1
1
1
1
1
1
1
1
1
1
1
1
1
1
1
1
1
1
1
1
1
1
1
1
1
1
1
1
1
1
1
1
1
1
1
0.999534
0.941089
0.578911
0.288188
0.0948461
0.0216456
0.0151787
0.275793
1
0.994623
0.66881
0.00996161
0.00180916
1.39783e-06
3.77947e-05
4.98043e-07
1.33623e-07
0.000198409
0.726316
1
1
1
1
1
1
1
1
1
1
1
1
1
1
1
1
1
1
1
1
1
1
1
1
1
1
1
1
1
1
1
1
1
1
1
1
1
0.999978
0.989382
0.764312
0.39572
0.178862
0.0411375
0.0146976
0.044288
1
1
1
0.470691
0.0348214
3.0692e-05
1.18537e-06
0.0202566
7.30524e-08
5.29969e-07
0.00211778
1
1
1
1
1
1
1
1
1
1
1
1
1
1
1
1
1
1
1
1
1
1
1
1
1
1
1
1
1
1
1
1
1
1
1
1
1
1
0.999999
0.998903
0.910819
0.534093
0.270311
0.081992
0.0205802
0.0204537
0.750933
1
0.963475
1
0.187957
0.0194325
3.93745e-06
2.09853e-06
1.34549e-05
4.29292e-08
4.59836e-06
0.0355511
1
1
1
1
1
1
1
1
1
1
1
1
1
1
1
1
1
1
1
1
1
1
1
1
1
1
1
1
1
1
1
1
1
1
1
1
1
1
1
0.999933
0.979418
0.706247
0.3665
0.152842
0.0360243
0.0162856
0.0975761
1
1
0.752221
0.971368
0.0227308
0.000155161
1.13236e-06
1.2156e-05
3.04654e-07
6.22603e-08
8.48388e-05
0.647289
1
1
1
1
1
1
1
1
1
1
1
1
1
1
1
1
1
1
1
1
1
1
1
1
1
1
1
1
1
1
1
1
1
1
1
1
1
1
1
0.999997
0.997232
0.865958
0.487509
0.248098
0.0682136
0.0196751
0.0300751
0.931279
0.999631
1
0.176118
0.0619945
0.0317508
1.91188e-05
6.13073e-07
0.00269864
3.88882e-08
2.75768e-07
0.00126738
1
1
1
1
1
1
1
1
1
1
1
1
1
1
1
1
1
1
1
1
1
1
1
1
1
1
1
1
1
1
1
1
1
1
1
1
1
1
1
1
1
0.999768
0.960274
0.643155
0.335936
0.126094
0.0309569
0.0191134
0.248743
0.999996
0.577366
1
0.0251929
0.00210826
0.0896715
1.86128e-06
1.15153e-06
5.01616e-06
2.46283e-08
3.37623e-06
0.0273829
1
1
1
1
1
1
1
1
1
1
1
1
1
1
1
1
1
1
1
1
1
1
1
1
1
1
1
1
1
1
1
1
1
1
1
1
1
1
1
1
1
0.999987
0.992556
0.803795
0.443109
0.215662
0.0550287
0.0192443
0.0488603
0.999999
0.956752
0.384401
0.564129
0.0164416
0.0010016
0.000341303
5.16422e-07
7.89247e-06
1.12072e-07
4.26973e-08
0.000105467
0.638834
1
1
1
1
1
1
1
1
1
1
1
1
1
1
0.999999
1
1
1
1
1
1
1
1
1
1
1
1
1
1
1
1
1
1
1
1
1
1
1
1
1
1
1
0.999123
0.923784
0.572881
0.302387
0.100031
0.02651
0.0240974
0.599023
1
0.914336
0.178682
0.206316
0.0977186
0.02157
1.39397e-05
4.47963e-07
0.000236603
1.81297e-08
2.86882e-07
0.00364761
1
1
1
1
1
1
1
1
1
1
1
1
1
1
1
0.999999
1
1
1
1
1
1
1
1
1
1
1
1
1
1
1
1
1
1
1
1
1
1
1
1
1
1
1
0.999932
0.9805
0.726845
0.396281
0.171814
0.0435711
0.0197327
0.0907984
1
1
0.700387
0.0768108
0.0305879
0.0934272
0.00127148
1.34878e-06
1.34809e-06
7.96379e-07
1.65643e-08
5.63317e-06
0.213034
1
1
1
1
1
1
1
1
1
1
1
1
1
1
1
0.999999
1
1
1
1
1
1
1
1
1
1
1
1
1
1
1
1
1
1
1
1
1
1
1
1
1
1
1
0.999996
0.996702
0.865801
0.509191
0.266692
0.076392
0.0232329
0.0337393
0.973878
1
1
0.245736
0.104068
0.0486362
0.0183567
5.21517e-05
3.27226e-07
0.000175827
2.99298e-08
5.05945e-08
0.000197963
1
1
1
1
1
1
1
1
1
1
1
1
1
1
1
1
0.999999
1
1
1
1
1
1
1
1
1
1
1
1
1
1
1
1
1
1
1
1
1
1
1
1
1
1
1
1
0.999636
0.953668
0.644973
0.350607
0.131564
0.0344567
0.0219957
0.219804
1
1
0.858781
0.605984
0.999914
0.988161
0.910744
2.45192e-06
2.98237e-07
3.43309e-06
8.26513e-09
6.70682e-07
0.00972522
1
1
1
1
1
1
1
1
1
1
1
1
1
1
1
1
0.999999
1
1
1
1
1
1
1
1
1
1
1
1
1
1
1
1
1
1
1
1
1
1
1
1
1
1
1
1
0.999973
0.98914
0.789879
0.449319
0.212548
0.0568374
0.0214929
0.0546646
0.999999
1
0.960977
0.736354
0.757256
0.032587
0.00396504
0.00710746
3.38045e-07
1.77574e-06
7.9044e-08
1.67244e-08
4.40486e-05
0.689638
1
1
1
1
1
1
1
1
1
1
1
1
1
1
1
1
0.999999
1
1
1
1
1
1
1
1
1
1
1
1
1
1
1
1
1
1
1
1
1
1
1
1
1
1
1
1
0.999999
0.998244
0.90439
0.56548
0.301385
0.0961225
0.0277004
0.0277788
0.587361
1
0.804511
0.575479
0.828344
0.182651
0.0103212
0.00932325
4.92483e-06
1.59551e-07
0.00146257
1.12964e-08
1.27278e-07
0.00449798
1
1
1
1
1
1
1
1
1
1
1
1
1
1
1
1
1
0.999999
1
1
1
1
1
1
1
1
1
1
1
1
1
1
1
1
1
1
1
1
1
1
1
1
1
1
1
1
1
0.999802
0.968299
0.696649
0.386491
0.156763
0.0418842
0.0217411
0.113084
1
0.9304
0.33524
0.566798
1
0.406681
0.0121295
0.308581
6.10875e-07
4.68264e-07
6.02063e-07
7.06193e-09
4.82514e-06
0.608274
1
1
1
1
1
1
1
1
1
1
1
1
1
1
1
1
1
0.999999
1
1
1
1
1
1
1
1
1
1
1
1
1
1
1
1
1
1
1
1
1
1
1
1
1
1
1
1
1
0.999983
0.992327
0.823035
0.485127
0.241636
0.0677511
0.0234018
0.0413897
0.979765
1
0.255194
0.101676
0.081459
0.130149
0.807948
0.0137451
0.00139058
2.26777e-07
0.0002808
7.7541e-09
4.11158e-08
0.000347604
1
1
1
1
1
1
1
1
1
1
1
1
1
1
1
1
1
0.999999
0.999999
1
1
1
1
1
1
1
1
1
1
1
1
1
1
1
1
1
1
1
1
1
1
1
1
1
1
1
1
1
0.999999
0.998648
0.918021
0.5937
0.324115
0.110317
0.0312694
0.0250534
0.335564
1
0.691608
0.114233
0.0404286
0.0188531
0.0362912
0.304069
0.024474
4.52083e-06
3.0231e-07
5.98515e-07
6.25808e-09
1.26469e-06
0.0607111
1
1
1
1
1
1
1
1
1
1
1
1
1
1
1
1
1
0.999999
0.999999
1
1
1
1
1
1
1
1
1
1
1
1
1
1
1
1
1
1
1
1
1
1
1
1
1
1
1
1
1
1
0.999824
0.971044
0.713644
0.405884
0.172263
0.0470749
0.0218204
0.0754772
0.999992
0.999999
0.370681
0.126135
0.0296711
0.0177205
0.858536
0.048439
1.01241e-05
1.18511e-07
1.87241e-06
1.14648e-08
1.62517e-08
0.000229942
1
1
1
1
1
1
1
1
1
1
1
1
1
1
1
1
1
1
0.999999
0.999999
0.999999
1
1
1
1
1
1
1
1
1
1
1
1
1
1
1
1
1
1
1
1
1
1
1
1
1
1
1
1
1
0.999982
0.99223
0.828367
0.497989
0.255782
0.0741697
0.0247046
0.0349846
0.821549
1
0.750925
0.858232
0.623395
0.116075
0.965231
0.0839655
0.00753279
3.11085e-06
1.38997e-07
1.3709e-06
2.96907e-09
4.08934e-07
0.0583389
1
1
1
1
1
1
1
1
1
1
1
1
1
1
1
1
1
1
0.999999
0.999999
0.999999
1
1
1
1
1
1
1
1
1
1
1
1
1
1
1
1
1
1
1
1
1
1
1
1
1
1
1
1
1
0.999999
0.99841
0.914872
0.598524
0.33239
0.116541
0.0331941
0.0237537
0.202298
0.999473
0.607111
0.644521
1
1
1
0.765076
0.0177988
0.0278087
4.10774e-07
1.64372e-06
9.85977e-09
1.0636e-08
5.83885e-05
1
1
1
1
1
1
1
1
1
1
1
1
1
1
1
1
1
1
1
0.999999
0.999999
0.999999
1
1
1
1
1
1
1
1
1
1
1
1
1
1
1
1
1
1
1
1
1
1
1
1
1
1
1
1
1
1
0.99974
0.966526
0.707002
0.408043
0.175662
0.048929
0.0218036
0.0617899
0.967322
0.60306
0.107695
0.310519
0.999991
1
0.999976
1
0.00546974
3.77468e-06
8.65119e-08
5.07521e-06
3.98498e-09
1.86049e-07
0.0169781
1
1
1
1
1
1
1
1
1
1
1
1
1
1
1
1
1
1
1
0.999999
0.999999
0.999999
1
1
1
1
1
1
1
1
1
1
1
1
1
1
1
1
1
1
1
1
1
1
1
1
1
1
1
1
1
1
0.999966
0.989464
0.812733
0.492188
0.253424
0.0747246
0.0248547
0.0322576
0.667278
0.999549
0.150692
0.0380684
0.032543
0.106944
0.114185
0.442127
0.562131
1.56258e-05
1.50042e-07
3.39522e-07
1.28411e-08
5.79602e-09
3.80371e-05
1
1
1
1
1
1
1
1
1
1
1
1
1
1
1
1
1
1
1
1
0.999999
0.999999
0.999999
1
1
1
1
1
1
1
1
1
1
1
1
1
1
1
1
1
1
1
1
1
1
1
1
1
1
1
1
1
1
0.999996
0.997345
0.897921
0.582442
0.326203
0.113677
0.0328597
0.0229258
0.162444
0.999985
0.952843
0.120709
0.0191822
0.0090031
0.00781321
0.0137397
0.285293
0.00273274
1.4248e-05
1.11851e-07
9.58655e-07
1.81246e-09
1.35247e-07
0.0142769
1
1
1
1
1
1
1
1
1
1
1
1
1
1
1
1
1
1
1
1
0.999999
0.999999
0.999999
1
1
1
1
1
1
1
1
1
1
1
1
1
1
1
1
1
1
1
1
1
1
1
1
1
1
1
1
1
1
1
0.999452
0.953275
0.679608
0.394869
0.166921
0.0470435
0.0212185
0.0570911
0.974413
0.999987
0.986191
0.206605
0.0177446
0.0064221
0.00343831
0.0238028
0.00433972
6.76845e-05
5.56672e-07
1.03234e-06
7.59627e-09
5.84045e-09
3.22626e-05
1
1
1
1
1
1
1
1
1
1
1
1
1
1
1
1
1
1
1
1
1
0.999999
0.999999
0.999999
1
1
1
1
1
1
1
1
1
1
1
1
1
1
1
1
1
1
1
1
1
1
1
1
1
1
1
1
1
1
1
0.999906
0.9824
0.778523
0.469023
0.234814
0.069484
0.0238015
0.0311208
0.559583
0.999966
0.96321
0.998899
0.498065
0.0454525
0.0103627
0.00837218
0.11237
0.0520533
1.76406e-05
6.76654e-08
2.75197e-06
2.75918e-09
1.04627e-07
0.0146718
1
1
1
1
1
1
1
1
1
1
1
1
1
1
1
1
1
1
1
1
1
0.999999
0.999999
0.999999
1
1
1
1
1
1
1
1
1
1
1
1
1
1
1
1
1
1
1
1
1
1
1
1
1
1
1
1
1
1
1
0.999986
0.99441
0.863973
0.551211
0.306826
0.102321
0.0303252
0.0223894
0.170914
0.996049
0.414245
0.289548
0.980634
0.794778
0.298937
0.0540723
0.047838
0.000803059
7.25777e-06
8.4367e-08
1.30515e-07
5.94667e-09
3.83963e-09
2.83346e-05
1
1
1
1
1
1
1
1
1
1
1
1
1
1
1
1
1
1
1
1
1
1
0.999999
0.999999
0.999999
1
1
1
1
1
1
1
1
1
1
1
1
1
1
1
1
1
1
1
1
1
1
1
1
1
1
1
1
1
1
1
0.999998
0.998472
0.926379
0.635984
0.368409
0.147091
0.0417295
0.020177
0.0580335
0.95147
0.849107
0.0694064
0.0429122
0.140404
0.314149
0.329734
0.609097
0.0169521
0.000126577
1.77965e-06
6.17805e-08
3.91664e-07
1.2001e-09
1.39313e-07
0.0149598
1
1
1
1
1
1
1
1
1
1
1
1
1
1
1
1
1
1
1
1
1
1
0.999999
0.999999
0.999999
1
1
1
1
1
1
1
1
1
1
1
1
1
1
1
1
1
1
1
1
1
1
1
1
1
1
1
1
1
1
1
1
0.999637
0.965577
0.723291
0.433895
0.203696
0.0594787
0.0216117
0.0319254
0.635528
1
0.488087
0.0363904
0.0131615
0.0102022
0.0177513
0.0682601
0.868674
0.00155925
1.95866e-05
5.57529e-07
6.00151e-06
2.65517e-09
5.60184e-09
4.01728e-05
1
1
1
1
1
1
1
1
1
1
1
1
1
1
1
1
1
1
1
1
1
1
1
0.999999
0.999999
0.999999
1
1
1
1
1
1
1
1
1
1
1
1
1
1
1
1
1
1
1
1
1
1
1
1
1
1
1
1
1
1
1
1
0.999924
0.985992
0.807437
0.503766
0.27219
0.0851915
0.0262911
0.0221846
0.193317
0.999997
1
0.972555
0.0483764
0.00927968
0.00255143
0.00154891
0.00362685
0.102875
0.000101823
0.000556498
1.09168e-07
9.61971e-08
1.64866e-09
1.99557e-07
0.0250268
1
1
1
1
1
1
1
1
1
1
1
1
1
1
1
1
1
1
1
1
1
1
1
0.999999
0.999999
0.999999
1
1
1
1
1
1
1
1
1
1
1
1
1
1
1
1
1
1
1
1
1
1
1
1
1
1
1
1
1
1
1
1
0.999986
0.995007
0.877438
0.576431
0.331021
0.120204
0.0345679
0.0190164
0.0667843
0.992753
0.999979
1
1
0.236505
0.0130135
0.00159685
0.000684312
0.000386527
0.000266311
1.20073e-05
5.29799e-08
9.24948e-08
2.49971e-09
4.97498e-09
7.7417e-05
1
1
1
1
1
1
1
1
1
1
1
1
1
1
1
1
1
1
1
1
1
1
1
1
0.999999
0.999999
0.999999
1
1
1
1
1
1
1
1
1
1
1
1
1
1
1
1
1
1
1
1
1
1
1
1
1
1
1
1
1
1
1
1
0.999997
0.998377
0.929755
0.650775
0.385831
0.163995
0.047232
0.019224
0.0350006
0.648835
0.840821
0.272729
1
0.99987
0.963354
0.0532993
0.00348586
0.0010329
0.000206962
1.87828e-05
2.92269e-07
2.96084e-08
9.43223e-08
9.89952e-10
5.07249e-07
0.0610619
1
1
1
1
1
1
1
1
1
1
1
1
1
1
1
1
1
1
1
1
1
1
1
1
0.999999
0.999999
0.999999
1
1
1
1
1
1
1
1
1
1
1
1
1
1
1
1
1
1
1
1
1
1
1
1
1
1
1
1
1
1
1
1
1
0.999529
0.963715
0.727277
0.443507
0.216449
0.0652493
0.0218129
0.0233645
0.303436
0.946317
0.0824921
0.0282701
0.106576
0.996156
0.772664
0.319588
0.12156
0.00672303
0.0524196
0.000132414
1.5614e-07
1.07226e-06
8.34881e-10
9.82612e-09
0.000262947
1
1
1
1
1
1
1
1
1
1
1
1
1
1
1
1
1
1
1
1
1
1
1
1
1
0.999999
0.999999
0.999999
1
1
1
1
1
1
1
1
1
1
1
1
1
1
1
1
1
1
1
1
1
1
1
1
1
1
1
1
1
1
1
1
1
0.999872
0.982979
0.801716
0.505963
0.277886
0.0895473
0.0268201
0.0185213
0.107955
0.999545
0.568653
0.0230526
0.00722687
0.00631964
0.0126642
0.0820398
0.210104
0.0186812
0.000240861
9.8842e-06
9.21421e-06
3.52331e-07
7.0042e-09
1.41853e-09
1.52453e-06
0.291113
1
1
1
1
1
1
1
1
1
1
1
1
1
1
1
1
1
1
1
1
1
1
1
1
1
0.999999
0.999999
0.999999
1
1
1
1
1
1
1
1
1
1
1
1
1
1
1
1
1
1
1
1
1
1
1
1
1
1
1
1
1
1
1
1
1
0.999966
0.992597
0.863994
0.570702
0.330171
0.121067
0.0346803
0.0170466
0.0439034
0.995393
1
0.40103
0.0184286
0.00466435
0.00161951
0.00093828
0.000911075
0.00262494
0.214913
0.00180562
0.00127395
7.53205e-08
3.87717e-05
1.13755e-09
1.88088e-08
0.00115286
1
1
1
1
1
1
1
1
1
1
1
1
1
1
1
1
1
1
1
1
1
1
1
1
1
1
0.999999
0.999999
0.999999
1
1
1
1
1
1
1
1
1
1
1
1
1
1
1
1
1
1
1
1
1
1
1
1
1
1
1
1
1
1
1
1
1
0.999992
0.997022
0.912224
0.634382
0.378914
0.159275
0.0459882
0.017682
0.02663
0.710095
1
1
0.998464
0.064326
0.00670305
0.00107669
0.000353719
0.000144132
8.69889e-05
3.74961e-05
6.14134e-06
6.11304e-08
2.44107e-08
2.80516e-09
1.2647e-09
6.6355e-06
0.963496
1
1
1
1
1
1
1
1
1
1
1
1
1
1
1
1
1
1
1
1
1
1
1
1
1
1
0.999999
0.999999
0.999999
1
1
1
1
1
1
1
1
1
1
1
1
1
1
1
1
1
1
1
1
1
1
1
1
1
1
1
1
1
1
1
1
1
0.999998
0.998858
0.946902
0.697373
0.427686
0.203705
0.0614779
0.0200641
0.019259
0.228584
0.999991
1
0.815297
0.953837
0.996843
0.0362831
0.00277617
0.000419677
0.00010873
3.10987e-05
7.18993e-06
3.80569e-07
2.67849e-08
9.64026e-08
4.99503e-10
7.06226e-08
0.00672846
1
1
1
1
1
1
1
1
1
1
1
1
1
1
1
1
1
1
1
1
1
1
1
1
1
1
1
0.999999
0.999999
0.999999
1
1
1
1
1
1
1
1
1
1
1
1
1
1
1
1
1
1
1
1
1
1
1
1
1
1
1
1
1
1
1
1
1
1
0.999599
0.970107
0.759175
0.478084
0.254099
0.0814192
0.024286
0.0160286
0.0831021
0.980737
0.32935
0.651375
0.927529
0.14608
0.0647291
0.173721
0.0898942
0.00275388
0.00110475
0.000421104
0.0248327
3.48151e-07
9.71089e-07
7.32933e-10
3.24321e-09
4.07071e-05
1
1
1
1
1
1
1
1
1
1
1
1
1
1
1
1
1
1
1
1
1
1
1
1
1
1
1
1
0.999999
0.999999
0.999999
1
1
1
1
1
1
1
1
1
1
1
1
1
1
1
1
1
1
1
1
1
1
1
1
1
1
1
1
1
1
1
1
1
1
0.999865
0.984375
0.81843
0.530899
0.304882
0.106135
0.0304667
0.0149673
0.0367523
0.896389
0.321004
0.0186436
0.0233013
0.15019
0.861967
0.0199438
0.00935259
0.00385905
0.000447411
0.000124464
3.11657e-06
2.06943e-05
4.13523e-07
7.37914e-09
8.60508e-10
3.27411e-07
0.0717579
1
1
1
1
1
1
1
1
1
1
1
1
1
1
1
1
1
1
1
1
1
1
1
1
1
1
1
1
0.999999
0.999999
0.999999
1
1
1
1
1
1
1
1
1
1
1
1
1
1
1
1
1
1
1
1
1
1
1
1
1
1
1
1
1
1
1
1
1
1
0.999955
0.992182
0.869056
0.58561
0.346122
0.135469
0.038831
0.0153499
0.0236869
0.556584
0.866284
0.0365316
0.00518308
0.00265961
0.00361727
0.00660054
0.429277
0.0919828
0.0107739
0.000397031
2.56096e-05
0.000181855
8.54361e-08
1.11908e-05
7.94228e-10
7.2813e-09
0.000331924
1
1
1
1
1
1
1
1
1
1
1
1
1
1
1
1
1
1
1
1
1
1
1
1
1
1
1
1
1
0.999999
0.999999
0.999999
1
1
1
1
1
1
1
1
1
1
1
1
1
1
1
1
1
1
1
1
1
1
1
1
1
1
1
1
1
1
1
1
1
1
0.999985
0.996218
0.908766
0.639471
0.386989
0.169178
0.0497365
0.016794
0.0173928
0.268959
1
0.703557
0.0255921
0.00357086
0.00135682
0.000559409
0.000344401
0.000238492
0.000152362
0.000248643
2.78155e-05
1.60811e-05
4.39028e-08
1.34273e-08
1.81238e-09
7.47315e-10
2.92252e-06
0.772849
1
1
1
1
1
1
1
1
1
1
1
1
1
1
1
1
1
1
1
1
1
1
1
1
1
1
1
1
1
0.999999
0.999999
0.999999
1
1
1
1
1
1
1
1
1
1
1
1
1
1
1
1
1
1
1
1
1
1
1
1
1
1
1
1
1
1
1
1
1
1
0.999995
0.998203
0.938666
0.69149
0.42805
0.206827
0.0635866
0.0193885
0.0142269
0.109713
1
1
1
0.0904571
0.00664494
0.00128039
0.000331942
0.0001279
4.1818e-05
1.68115e-05
3.69844e-06
1.96735e-06
1.14259e-07
1.72583e-08
3.86209e-08
3.26552e-10
4.91716e-08
0.00427686
1
1
1
1
1
1
1
1
1
1
1
1
1
1
1
1
1
1
1
1
1
1
1
1
1
1
1
1
1
1
0.999999
0.999999
0.999999
1
1
1
1
1
1
1
1
1
1
1
1
1
1
1
1
1
1
1
1
1
1
1
1
1
1
1
1
1
1
1
1
1
1
0.999998
0.99915
0.959876
0.741812
0.471206
0.248539
0.0806148
0.0232104
0.0128099
0.0465091
0.935372
1
0.671407
0.354666
0.9856
0.0731242
0.00420657
0.00112141
0.000191176
3.73964e-05
1.34035e-05
7.52417e-06
3.71161e-06
1.40609e-07
1.4005e-07
3.85606e-10
2.65576e-09
3.83202e-05
1
1
1
1
1
1
1
1
1
1
1
1
1
1
1
1
1
1
1
1
1
1
1
1
1
1
1
1
1
1
1
0.999998
0.999999
0.999999
1
1
1
1
1
1
1
1
1
1
1
1
1
1
1
1
1
1
1
1
1
1
1
1
1
1
1
1
1
1
1
1
1
1
0.999999
0.999606
0.974518
0.789377
0.513628
0.293213
0.10088
0.0284271
0.0125341
0.0233136
0.568064
0.850788
0.981016
0.354484
0.0728666
0.032257
0.0448607
0.0595246
0.0874016
0.0100194
0.00737939
0.0015783
1.32295e-06
7.25524e-06
2.0893e-06
2.01683e-09
7.24407e-10
4.22791e-07
0.121909
1
1
1
1
1
1
1
1
1
1
1
1
1
1
1
1
1
1
1
1
1
1
1
1
1
1
1
1
1
1
1
1
0.999996
0.999999
1
1
1
1
1
1
1
1
1
1
1
1
1
1
1
1
1
1
1
1
1
1
1
1
1
1
1
1
1
1
1
1
1
1
1
0.999824
0.984216
0.831532
0.556489
0.328978
0.124047
0.0350991
0.0130589
0.0169063
0.302442
0.45438
0.0214701
0.0220855
0.818477
0.284238
0.0135159
0.00344413
0.00104416
0.000253844
5.91034e-05
2.34308e-05
2.24354e-06
1.51849e-05
1.91502e-07
3.38041e-07
4.92997e-10
1.10994e-08
0.000676581
1
1
1
1
1
1
1
1
1
1
1
1
1
1
1
1
1
1
1
1
1
1
1
1
1
1
1
1
1
1
1
1
1
0.999995
0.999997
1
1
1
1
1
1
1
1
1
1
1
1
1
1
1
1
1
1
1
1
1
1
1
1
1
1
1
1
1
1
1
1
1
1
1
0.999924
0.990569
0.868324
0.597887
0.361189
0.149557
0.0433961
0.0142733
0.0135116
0.168988
0.38725
0.016899
0.00300924
0.00234189
0.00458172
0.0164824
0.12458
0.316439
0.00946311
0.0039639
0.00351641
0.00206624
0.000608811
3.01974e-08
1.63675e-08
7.57881e-10
7.95983e-10
8.04482e-06
0.999803
1
1
1
1
1
1
1
1
1
1
1
1
1
1
1
1
1
1
1
1
1
1
1
1
1
1
1
1
1
1
1
1
1
1
0.999959
0.999999
1
1
1
1
1
1
1
1
1
1
1
1
1
1
1
1
1
1
1
1
1
1
1
1
1
1
1
1
1
1
1
1
1
1
0.999967
0.994517
0.899021
0.638104
0.392082
0.177038
0.0531644
0.016095
0.0116382
0.0844456
0.924836
0.0908427
0.00418225
0.00096009
0.000674223
0.000362358
0.000288833
0.000191048
0.000168697
5.67676e-05
2.45145e-05
3.4095e-06
1.91094e-06
3.61723e-08
9.09834e-09
1.08625e-08
2.7119e-10
1.68366e-07
0.0239108
1
1
1
1
1
1
1
1
1
1
1
1
1
1
1
1
1
1
1
1
1
1
1
1
1
1
1
1
1
1
1
1
1
1
1
0.999744
0.999999
1
1
1
1
1
1
1
1
1
1
1
1
1
1
1
1
1
1
1
1
1
1
1
1
1
1
1
1
1
1
1
1
1
0.999986
0.99693
0.924462
0.676667
0.42251
0.20593
0.0645584
0.0185125
0.0105576
0.0430521
0.999055
0.984833
0.190759
0.0048994
0.0010104
0.000384872
0.000153316
7.04919e-05
3.41782e-05
1.13338e-05
5.27259e-06
1.35292e-06
6.98572e-07
1.16515e-07
2.41507e-08
1.92616e-08
1.72648e-10
6.34497e-09
0.000242067
1
1
1
1
1
1
1
1
1
1
1
1
1
1
1
1
1
1
1
1
1
1
1
1
1
1
1
1
1
1
1
1
1
1
1
1
0.998384
1
1
1
1
1
1
1
1
1
1
1
1
1
1
1
1
1
1
1
1
1
1
1
1
1
1
1
1
1
1
1
1
1
0.999994
0.998293
0.945008
0.714806
0.454293
0.236967
0.0775726
0.0215955
0.0101071
0.0237088
0.881385
0.728182
0.319029
0.999854
0.0245264
0.00455321
0.000903181
0.000258267
6.8099e-05
2.43519e-05
9.01628e-06
3.95877e-06
1.56171e-06
5.35232e-05
4.2798e-07
5.81788e-08
3.38468e-10
9.66592e-10
3.94825e-06
0.967289
1
1
1
1
1
1
1
1
1
1
1
1
1
1
1
1
1
1
1
1
1
1
1
1
1
1
1
1
1
1
1
1
1
1
1
1
0.993153
1
1
1
1
1
1
1
1
1
1
1
1
1
1
1
1
1
1
1
1
1
1
1
1
1
1
1
1
1
1
1
1
0.999998
0.999063
0.961087
0.753579
0.488242
0.270303
0.0923434
0.0254194
0.0100995
0.0146382
0.505371
0.446073
0.0254631
0.00457204
0.00990032
0.0376642
0.301182
0.0439546
0.00157512
0.00192852
0.000194931
0.00484033
0.000358791
1.18067e-06
1.31741e-06
9.54398e-07
2.0452e-09
4.30767e-10
7.9408e-08
0.0157383
1
1
1
1
1
1
1
1
1
1
1
1
1
1
1
1
1
1
1
1
1
1
1
1
1
1
1
1
1
1
1
1
1
1
1
1
1
0.981212
1
1
1
1
1
1
1
1
1
1
1
1
1
1
1
1
1
1
1
1
1
1
1
1
1
1
1
1
1
1
1
0.999999
0.99948
0.972716
0.791026
0.522746
0.304615
0.108986
0.0300611
0.0104839
0.0114824
0.239139
0.995439
0.196245
0.0110359
0.00190066
0.00135269
0.000957705
0.000661322
0.000661879
0.000192474
0.000210264
1.14146e-05
9.457e-06
4.29498e-07
4.56044e-07
2.54928e-07
4.38845e-07
3.37604e-10
4.06168e-09
0.000163928
1
1
1
1
1
1
1
1
1
1
1
1
1
1
1
1
1
1
1
1
1
1
1
1
1
1
1
1
1
1
1
1
1
1
1
1
1
1
0.96357
1
1
1
1
1
1
1
1
1
1
1
1
1
1
1
1
1
1
1
1
1
1
1
1
1
1
1
1
1
1
0.999999
0.999708
0.981044
0.825094
0.557264
0.331902
0.127441
0.0356326
0.0112298
0.00965448
0.106454
0.616651
0.228742
0.991687
0.0315444
0.00425778
0.00147258
0.000341796
0.000127143
4.3859e-05
2.28273e-05
8.53637e-06
6.00411e-06
3.46239e-06
1.22659e-05
8.89551e-08
1.61539e-08
4.69867e-10
4.66243e-10
3.34251e-06
0.942158
1
1
1
1
1
1
1
1
1
1
1
1
1
1
1
1
1
1
1
1
1
1
1
1
1
1
1
1
1
1
1
1
1
1
1
1
1
1
0.945764
1
1
1
1
1
1
1
1
1
1
1
1
1
1
1
1
1
1
1
1
1
1
1
1
1
1
1
1
1
1
0.999833
0.98696
0.855353
0.591142
0.358404
0.147153
0.0422429
0.0123742
0.00856154
0.0521977
0.133767
0.0172871
0.00331387
0.00748962
0.275022
0.853181
0.344354
0.039253
0.00396733
0.00657802
0.00558486
0.00188165
4.99769e-05
2.64209e-06
1.49138e-08
5.11905e-09
1.01497e-09
1.8135e-10
1.17759e-07
0.0143958
1
1
1
1
1
1
1
1
1
1
1
1
1
1
1
1
1
1
1
1
1
1
1
1
1
1
1
1
1
1
1
1
1
1
1
1
1
1
0.999969
0.937327
1
1
1
1
1
1
1
1
1
1
1
1
1
1
1
1
1
1
1
1
1
1
1
1
1
1
1
1
1
0.999904
0.990876
0.880435
0.623476
0.38397
0.168142
0.0497534
0.0138667
0.00799525
0.0341651
0.0732593
0.00532643
0.000746214
0.000497417
0.000374138
0.000483659
0.000235028
0.000283476
8.80103e-05
5.55583e-05
9.01839e-06
5.73113e-06
3.02144e-07
1.93999e-07
2.21446e-08
8.19084e-09
1.13898e-08
1.25234e-10
6.42638e-09
0.000231421
1
1
1
1
1
1
1
1
1
1
1
1
1
1
1
1
1
1
1
1
1
1
1
1
1
1
1
1
1
1
1
1
1
1
1
1
1
1
1
0.995927
0.946002
1
1
1
1
1
1
1
1
1
1
1
1
1
1
1
1
1
1
1
1
1
1
1
1
1
1
1
1
0.999944
0.993684
0.901286
0.652599
0.407523
0.189783
0.0582709
0.0157464
0.00769497
0.0221481
0.166775
0.00503169
0.000504801
0.000256328
8.41092e-05
0.00011064
3.69521e-05
3.62049e-05
1.10869e-05
9.58794e-06
1.71851e-06
1.39515e-06
2.10002e-07
1.66525e-07
1.17645e-07
6.03799e-08
7.64655e-09
1.52828e-10
1.08848e-09
6.06207e-06
0.999329
1
1
1
1
1
1
1
1
1
1
1
1
1
1
1
1
1
1
1
1
1
1
1
1
1
1
1
1
1
1
1
1
1
1
1
1
1
1
1
0.958257
0.967863
1
1
1
1
1
1
1
1
1
1
1
1
1
1
1
1
1
1
1
1
1
1
1
1
1
1
1
0.999967
0.99559
0.918498
0.680707
0.430755
0.211784
0.0675564
0.0179762
0.00765356
0.0154829
0.265203
0.0140285
0.00333641
0.000402377
0.000166122
7.27495e-05
3.38589e-05
1.99398e-05
7.30341e-06
5.16627e-06
2.11731e-06
1.25199e-06
6.62891e-07
5.57348e-06
0.00777907
2.80011e-06
2.77348e-08
3.63271e-10
4.37415e-10
1.89336e-07
0.0499546
1
1
1
1
1
1
1
1
1
1
1
1
1
1
1
1
1
1
1
1
1
1
1
1
1
1
1
1
1
1
1
1
1
1
1
1
1
1
1
1
0.870302
0.988447
1
1
1
1
1
1
1
1
1
1
1
1
1
1
1
1
1
1
1
1
1
1
1
1
1
1
0.999981
0.996894
0.932609
0.704944
0.453105
0.234071
0.0775595
0.0205608
0.00777411
0.0108024
0.315161
0.147172
0.0130418
0.00924311
0.0037911
0.000228164
0.000330811
5.03329e-05
4.31447e-05
1.71624e-05
1.70098e-05
5.47472e-06
0.00088909
2.55417e-05
2.50345e-07
2.99996e-07
4.49273e-07
2.6059e-09
2.91467e-10
1.06555e-08
0.000710204
1
1
1
1
1
1
1
1
1
1
1
1
1
1
1
1
1
1
1
1
1
1
1
1
1
1
1
1
1
1
1
1
1
1
1
1
1
1
1
1
1
0.761693
0.998147
1
1
1
1
1
1
1
1
1
1
1
1
1
1
1
1
1
1
1
1
1
1
1
1
1
0.999989
0.997841
0.944679
0.728619
0.474415
0.256679
0.0880008
0.0234503
0.00804652
0.00842983
0.175589
0.960956
0.742073
0.732183
0.179147
0.0113618
0.106755
0.00136886
0.771336
0.000288077
0.001553
0.00151246
4.67482e-06
2.95568e-06
1.14074e-07
1.42149e-07
2.66124e-07
4.45494e-07
2.64127e-10
1.14725e-09
1.92185e-05
1
1
1
1
1
1
1
1
1
1
1
1
1
1
1
1
1
1
1
1
1
1
1
1
1
1
1
1
1
1
1
1
1
1
1
1
1
1
1
1
1
1
0.651228
0.999921