/*--------------------------------*- C++ -*----------------------------------*\
| =========                 |                                                 |
| \\      /  F ield         | OpenFOAM: The Open Source CFD Toolbox           |
|  \\    /   O peration     | Version:  v2012                                 |
|   \\  /    A nd           | Website:  www.openfoam.com                      |
|    \\/     M anipulation  |                                                 |
\*---------------------------------------------------------------------------*/
FoamFile
{
    version     2.0;
    format      ascii;
    class       volScalarField;
    location    "0";
    object      q3;
}
// * * * * * * * * * * * * * * * * * * * * * * * * * * * * * * * * * * * * * //

dimensions      [0 0 0 0 0 0 0];


internalField   nonuniform List<scalar> 
39402
(
0.00754241
0.00200409
0.00998734
0.00103363
0.00224115
0.0103984
0.000935422
0.00113695
0.00220627
0.011116
0.000958971
0.00147498
0.00107911
0.00246013
0.0126955
0.000990296
0.00181792
0.00421489
0.00126743
0.00297642
0.0156339
0.00101483
0.00200465
0.00575396
0.0097529
0.0018173
0.00369339
0.0201371
0.00102662
0.002119
0.00647135
0.0133109
0.0180894
0.00270388
0.00455561
0.0263587
0.00103519
0.00217357
0.00688233
0.0148949
0.0244348
0.0290922
0.00387999
0.00553615
0.0345185
0.00103859
0.00221425
0.0070739
0.0157759
0.02714
0.0386175
0.042297
0.00531251
0.00663785
0.0449524
0.00103523
0.00223012
0.00720913
0.0161803
0.0286043
0.0424641
0.0547296
0.0569979
0.00696786
0.00789198
0.0581484
0.00102836
0.00222587
0.00726027
0.0164594
0.029265
0.0444858
0.059383
0.0713583
0.0725227
0.00883624
0.00936274
0.0747287
0.00102185
0.00221313
0.00724288
0.0165631
0.0297073
0.0453811
0.0617316
0.0761827
0.0874085
0.0890785
0.010968
0.0111572
0.0954695
0.00101382
0.00220531
0.0072037
0.0165121
0.0298656
0.0459465
0.0627466
0.0784748
0.0916339
0.10289
0.106669
0.0134399
0.0133987
0.12142
0.00100495
0.00219187
0.00717865
0.0164149
0.0297597
0.046132
0.0633551
0.0794138
0.0934528
0.1053
0.118586
0.125427
0.0163829
0.0162585
0.15388
0.00099678
0.00217313
0.00712744
0.0163335
0.0295772
0.0459578
0.063531
0.0799499
0.0941206
0.106268
0.118807
0.13401
0.145618
0.0199611
0.0199991
0.194509
0.000988475
0.0021558
0.00706427
0.0162065
0.0294185
0.0456794
0.0632898
0.080076
0.094465
0.106475
0.118187
0.131508
0.14931
0.167084
0.0240956
0.0250219
0.245379
0.000979118
0.00213771
0.0070053
0.0160701
0.0291864
0.0454603
0.0629328
0.079791
0.0944789
0.106513
0.117495
0.129215
0.143443
0.164684
0.187979
0.0286436
0.0318996
0.309285
0.000969626
0.00211616
0.00694389
0.015932
0.0289497
0.0451147
0.0626397
0.0793808
0.094133
0.106352
0.116959
0.127582
0.139181
0.154815
0.179711
0.204139
0.0334177
0.0415102
0.390429
0.000961247
0.00209086
0.00686998
0.0157876
0.0287174
0.0447433
0.0622221
0.0790207
0.0936838
0.105924
0.116438
0.126494
0.136423
0.148265
0.165761
0.192689
0.221074
0.0380229
0.0550812
0.49386
0.000953576
0.00207594
0.00679049
0.0156186
0.0284594
0.0443953
0.0617564
0.0785524
0.093302
0.105448
0.115776
0.1256
0.134651
0.144195
0.156688
0.176104
0.203951
0.242426
0.0421984
0.074634
0.623125
0.000945637
0.00206738
0.00673438
0.015452
0.0281597
0.0440151
0.0612982
0.0780555
0.0928129
0.105037
0.115124
0.124737
0.133355
0.141599
0.151121
0.164637
0.186873
0.219919
0.267015
0.0460107
0.0999896
0.777185
0.000937455
0.00204367
0.00669064
0.0153298
0.0278652
0.0435982
0.0608212
0.0775676
0.0923006
0.104539
0.114557
0.123959
0.132256
0.13981
0.14758
0.157429
0.172799
0.198852
0.238078
0.29729
0.0499212
0.133149
0.949472
0.000929972
0.00202415
0.006627
0.015218
0.0276384
0.0431875
0.0603244
0.0770664
0.0918196
0.104025
0.113919
0.123286
0.13131
0.138424
0.145188
0.152824
0.163592
0.181397
0.212162
0.257032
0.33591
0.0556289
0.177138
1.11598
0.000922954
0.00200655
0.00656095
0.0150713
0.0274265
0.0428477
0.0598337
0.0765223
0.0913317
0.103539
0.113342
0.122585
0.130527
0.137299
0.143457
0.149754
0.157697
0.169834
0.190785
0.227084
0.274562
0.386107
0.0654689
0.23555
1.2638
0.000915979
0.00198188
0.00650132
0.0149211
0.0271666
0.042527
0.0594028
0.0759614
0.0907895
0.10306
0.112878
0.121907
0.129764
0.136376
0.142111
0.147587
0.153797
0.162421
0.176477
0.201404
0.243751
0.288576
0.451484
0.0822438
0.309034
1.4001
0.000909031
0.00196854
0.00642967
0.0147854
0.0269017
0.042146
0.0589956
0.0754829
0.0902264
0.102564
0.1124
0.121323
0.129016
0.135523
0.141007
0.145965
0.151087
0.15753
0.167273
0.183922
0.213706
0.262131
0.309265
0.533469
0.108155
0.393715
1.53684
0.000902494
0.00195925
0.00637384
0.0146416
0.0266597
0.0417823
0.0585183
0.0750594
0.0897708
0.10205
0.111922
0.120758
0.128367
0.134721
0.140051
0.144654
0.149114
0.154172
0.161207
0.172592
0.192559
0.228135
0.281828
0.350981
0.623527
0.144795
0.488608
1.67283
0.000896266
0.00193868
0.00632991
0.014527
0.0264314
0.0414281
0.0580886
0.0745646
0.0893425
0.101613
0.111433
0.120151
0.12776
0.134005
0.139166
0.14353
0.147553
0.151752
0.157064
0.16511
0.178732
0.202897
0.244955
0.300793
0.409196
0.691849
0.192903
0.589056
1.81037
0.00089004
0.00191941
0.00627719
0.0144239
0.0262423
0.0410667
0.0576731
0.0740924
0.0888764
0.101196
0.110995
0.119564
0.127159
0.133361
0.138383
0.14255
0.14623
0.149879
0.154104
0.160008
0.169542
0.186082
0.21545
0.264184
0.315779
0.492576
0.698148
0.251511
0.697631
1.94036
0.000884007
0.00190399
0.00622442
0.0142882
0.0260524
0.0407841
0.0572211
0.0736625
0.0884047
0.100754
0.110643
0.119074
0.126565
0.132743
0.137673
0.141677
0.145118
0.148344
0.151849
0.156389
0.163261
0.174802
0.195113
0.230605
0.28501
0.336693
0.614285
0.631906
0.320225
0.817697
2
0.000878716
0.00189181
0.00617397
0.0141578
0.0258197
0.0405219
0.0568623
0.0731932
0.0879413
0.100304
0.110217
0.118613
0.126045
0.132158
0.137039
0.140899
0.144148
0.147052
0.150028
0.153657
0.158806
0.167079
0.181277
0.206287
0.248653
0.305466
0.388828
0.786979
0.528458
0.39725
0.942554
2
0.000873576
0.00187837
0.00613065
0.0140456
0.0255935
0.0402359
0.0565594
0.0727975
0.0874965
0.099855
0.109827
0.118147
0.125571
0.131621
0.136454
0.140237
0.143276
0.145934
0.148508
0.151473
0.155487
0.161607
0.171743
0.18937
0.220047
0.269132
0.322078
0.46492
0.997553
0.436633
0.480035
1.06337
2
0.00086825
0.00186774
0.00608716
0.013957
0.0253952
0.0399328
0.0562003
0.0724307
0.0871342
0.0994653
0.109434
0.117718
0.125116
0.131125
0.135886
0.139625
0.142536
0.144956
0.147223
0.149689
0.152872
0.157555
0.165035
0.177599
0.199524
0.236848
0.290724
0.339304
0.580026
1.15777
0.388011
0.566229
1.17621
2
0.000862745
0.00186087
0.00604975
0.0138731
0.025237
0.039644
0.0558185
0.0719975
0.0867337
0.0991555
0.109063
0.117269
0.124674
0.130663
0.135386
0.139044
0.14188
0.144132
0.146129
0.148195
0.150769
0.154421
0.160057
0.169309
0.18506
0.212318
0.256751
0.310702
0.392743
0.758007
1.13925
0.389255
0.648371
1.28535
2
0.000857872
0.00184618
0.00602002
0.0137872
0.0251063
0.0394102
0.0554851
0.0716097
0.0862956
0.0988203
0.10879
0.116831
0.124246
0.130257
0.134944
0.138543
0.141266
0.143396
0.145198
0.14694
0.149018
0.151904
0.156254
0.16324
0.17476
0.194544
0.228166
0.278779
0.32687
0.471063
1.02038
0.949229
0.426306
0.725263
1.39321
2
0.000853987
0.00183377
0.00597379
0.0137165
0.0249565
0.0392154
0.055192
0.0712748
0.0859376
0.0984314
0.108488
0.116523
0.123803
0.129838
0.134519
0.138066
0.140738
0.142744
0.144377
0.14588
0.147548
0.14985
0.153235
0.158587
0.167282
0.18179
0.206562
0.247265
0.300715
0.354985
0.590491
1.32218
0.723671
0.481965
0.802106
1.49334
2
0.000850172
0.00181794
0.00593547
0.0136166
0.0248296
0.0389721
0.0549475
0.070951
0.0856054
0.0980533
0.108179
0.116201
0.123483
0.129408
0.134111
0.13764
0.140237
0.142172
0.143654
0.144955
0.146316
0.148115
0.150777
0.154937
0.16162
0.172517
0.190826
0.221634
0.268901
0.318334
0.415252
0.778958
1.46863
0.555558
0.547541
0.882046
1.58392
2
0.000845917
0.00180596
0.00589857
0.0135355
0.0246797
0.0387842
0.0546702
0.0706794
0.0853166
0.0977397
0.107838
0.115816
0.123192
0.129086
0.133682
0.137222
0.139796
0.141647
0.143032
0.144151
0.14526
0.146671
0.148741
0.151994
0.157215
0.16555
0.179341
0.202358
0.239991
0.291001
0.332369
0.503972
1.07173
1.29593
0.477449
0.612438
0.971191
1.6736
2
0.000841491
0.00179812
0.00586495
0.0134671
0.0245391
0.0385947
0.0544393
0.0704094
0.0850818
0.0975089
0.107571
0.115495
0.12285
0.128808
0.133392
0.136834
0.139398
0.141191
0.14245
0.143459
0.14435
0.145452
0.147058
0.149598
0.153696
0.160222
0.170738
0.188162
0.216974
0.261266
0.309952
0.383294
0.640722
1.44528
0.951408
0.476381
0.676528
1.0655
1.7814
2
0.000837571
0.00179134
0.00584216
0.0134071
0.0244264
0.0383944
0.0541689
0.0701939
0.0848145
0.0973054
0.107388
0.115276
0.122547
0.128513
0.133127
0.136528
0.138975
0.140758
0.141953
0.14282
0.143554
0.144402
0.145632
0.14762
0.150818
0.155967
0.164173
0.177512
0.199505
0.234992
0.283645
0.325508
0.456184
0.860941
1.67585
0.66717
0.51422
0.748044
1.15759
1.91381
2
0.000834673
0.0017818
0.00582013
0.0133586
0.0243232
0.0382324
0.0539525
0.0698955
0.0846464
0.0970826
0.107123
0.115081
0.122252
0.128235
0.132828
0.136265
0.138668
0.14033
0.141497
0.142263
0.142854
0.143483
0.14443
0.145931
0.14845
0.152508
0.158997
0.169372
0.186262
0.213948
0.25609
0.303718
0.364369
0.564875
1.20569
1.51553
0.519943
0.565255
0.820427
1.2514
2
2
0.000832173
0.00177508
0.00579203
0.0133127
0.0242433
0.0380886
0.0537837
0.0696979
0.0843896
0.0969365
0.106988
0.11491
0.122012
0.127934
0.132529
0.135963
0.138436
0.140031
0.141075
0.141769
0.142246
0.142692
0.143372
0.144521
0.146487
0.149669
0.154854
0.163061
0.176195
0.197618
0.231866
0.278642
0.32037
0.428533
0.736359
1.62221
1.11313
0.484642
0.618126
0.897275
1.35093
2
2
0.000829185
0.00176757
0.00577251
0.0132537
0.0241643
0.0379735
0.0536041
0.0695096
0.0841496
0.0966859
0.106902
0.114757
0.121824
0.127745
0.132287
0.13568
0.138119
0.13976
0.140727
0.141318
0.141691
0.14202
0.142454
0.143311
0.144798
0.147364
0.151476
0.15805
0.168442
0.185116
0.212101
0.252934
0.299197
0.352524
0.521576
1.01803
1.81144
0.760254
0.507315
0.678691
0.975768
1.45128
2
2
0.000825598
0.0017589
0.00575161
0.0132161
0.0240696
0.0378905
0.053468
0.0693106
0.0839157
0.0965247
0.106695
0.114744
0.121653
0.127539
0.132113
0.135444
0.137838
0.139448
0.140435
0.140957
0.141191
0.141397
0.141678
0.142232
0.143371
0.145401
0.148694
0.153988
0.162314
0.175467
0.196633
0.230092
0.275477
0.316229
0.411651
0.664214
1.4406
1.54294
0.56628
0.550594
0.743764
1.06285
1.55885
2
2
0.000821932
0.0017511
0.00572337
0.0131637
0.0240095
0.0377843
0.0533693
0.0692059
0.0837555
0.0962763
0.106553
0.114546
0.121566
0.127343
0.131939
0.135259
0.137627
0.139182
0.140147
0.140635
0.140788
0.140822
0.140982
0.141334
0.14214
0.143696
0.146378
0.150655
0.157359
0.16788
0.184594
0.211317
0.25132
0.296117
0.345804
0.495423
0.898657
1.84532
1.07993
0.505837
0.596911
0.818079
1.15584
1.67673
2
2
0.000818778
0.0017449
0.00570297
0.0131063
0.0239468
0.0377054
0.0532439
0.0690687
0.0837015
0.0961262
0.106388
0.114387
0.12139
0.127282
0.131786
0.135116
0.137469
0.138983
0.139873
0.140333
0.140453
0.140369
0.140337
0.140536
0.141092
0.142268
0.144395
0.147847
0.153322
0.16185
0.175207
0.196445
0.229634
0.273825
0.313345
0.40241
0.620423
1.28071
1.84416
0.725197
0.516511
0.65145
0.8944
1.25819
1.8032
2
2
0.000816678
0.00173823
0.0056869
0.0130767
0.023868
0.0376465
0.0531841
0.0689325
0.0836165
0.0960843
0.106223
0.114259
0.121224
0.127115
0.131692
0.134979
0.137339
0.138833
0.139679
0.14006
0.140129
0.139996
0.139818
0.139804
0.140163
0.141012
0.14267
0.145531
0.149994
0.156933
0.167721
0.184739
0.211654
0.251105
0.294062
0.342925
0.481441
0.823418
1.76192
1.41029
0.554715
0.552398
0.713991
0.981233
1.3633
1.93658
2
2
0.000815915
0.00173399
0.00566892
0.0130472
0.0238279
0.0375632
0.053151
0.0689139
0.0835298
0.096072
0.106233
0.114161
0.121049
0.126994
0.131536
0.134924
0.137185
0.138677
0.139497
0.139828
0.139814
0.139623
0.139387
0.139206
0.139315
0.139964
0.141241
0.143499
0.147223
0.152952
0.161744
0.17542
0.197081
0.230433
0.273499
0.311359
0.398691
0.597272
1.16679
1.99716
0.939833
0.514101
0.598834
0.785519
1.07058
1.47354
2
2
2
0.000815176
0.00173373
0.00565919
0.0130256
0.0237881
0.0375201
0.0530546
0.0688789
0.0834661
0.0959816
0.10619
0.114184
0.120932
0.126849
0.131452
0.134804
0.137145
0.138539
0.139324
0.139642
0.139567
0.13928
0.138963
0.138714
0.138653
0.138995
0.139997
0.1418
0.144852
0.149585
0.156867
0.168025
0.185473
0.212813
0.252263
0.293337
0.343051
0.475696
0.783579
1.66214
1.70297
0.647679
0.533353
0.653695
0.866222
1.16925
1.58044
2
2
2
0.000813953
0.00173118
0.00566288
0.0130206
0.0237572
0.0374714
0.0530107
0.0687808
0.0833949
0.0959322
0.106146
0.114243
0.120958
0.12675
0.131339
0.134687
0.137048
0.138511
0.139196
0.139461
0.139387
0.139018
0.138594
0.138251
0.138058
0.138183
0.138902
0.140317
0.142803
0.146765
0.152815
0.16202
0.176224
0.198463
0.232231
0.274485
0.310622
0.399092
0.587236
1.10427
2
1.1769
0.536641
0.572745
0.717061
0.952374
1.27423
1.69154
2
2
2
0.000811826
0.00172824
0.00566219
0.0130359
0.0237577
0.0374133
0.0529666
0.0687472
0.0833405
0.0958972
0.106109
0.11416
0.121036
0.126782
0.13125
0.134565
0.13694
0.138396
0.139151
0.139297
0.139191
0.138822
0.13829
0.137833
0.137529
0.137507
0.137929
0.139034
0.141083
0.144372
0.149441
0.15715
0.168793
0.186868
0.214967
0.254486
0.293621
0.345926
0.475879
0.765775
1.59937
1.91083
0.777033
0.528135
0.622455
0.789222
1.04639
1.38862
1.80794
2
2
2
0.000808624
0.00172399
0.00565933
0.0130298
0.0238135
0.0373955
0.0529
0.0687508
0.0833671
0.0958513
0.106142
0.114149
0.120971
0.126841
0.131283
0.134518
0.136788
0.138292
0.139058
0.139266
0.13902
0.138604
0.138032
0.137477
0.13705
0.136896
0.137153
0.137974
0.139554
0.142333
0.146587
0.153043
0.162754
0.177586
0.20067
0.235118
0.276517
0.310834
0.403245
0.586361
1.07672
2
1.37483
0.584316
0.559634
0.680692
0.869973
1.14825
1.49504
1.93681
2
2
2
0.000805144
0.00171802
0.00564604
0.0130202
0.0238102
0.037513
0.0529224
0.0687302
0.0833895
0.0959374
0.106036
0.114145
0.120931
0.126767
0.131321
0.134554
0.136709
0.138159
0.138936
0.139167
0.138943
0.138437
0.137796
0.137181
0.136651
0.136337
0.136417
0.136995
0.138267
0.140532
0.144162
0.149611
0.157753
0.170047
0.189045
0.218079
0.257468
0.294953
0.351453
0.48142
0.763721
1.57291
2
0.896241
0.537698
0.606321
0.743155
0.962797
1.25278
1.60151
2
2
2
2
0.000801756
0.00170854
0.00562668
0.0130085
0.0237852
0.0375478
0.0530867
0.0687668
0.0834242
0.0959864
0.106142
0.114104
0.1209
0.126694
0.131277
0.134568
0.136764
0.138056
0.1388
0.139043
0.138821
0.138337
0.1376
0.136898
0.136309
0.135861
0.135755
0.136118
0.137137
0.138983
0.142032
0.146678
0.153564
0.163869
0.179572
0.203746
0.238919
0.278631
0.312568
0.411064
0.593953
1.07612
2
1.52015
0.634953
0.557872
0.659647
0.818747
1.05951
1.36829
1.70673
2
2
2
2
0.000798989
0.00170027
0.00560335
0.0129849
0.0237932
0.0375208
0.053139
0.0689602
0.0834676
0.0960315
0.106292
0.114229
0.120931
0.12669
0.131218
0.134563
0.136813
0.138087
0.138734
0.138909
0.138719
0.1382
0.137498
0.136655
0.135989
0.135479
0.135194
0.135367
0.136151
0.137687
0.14021
0.144176
0.150034
0.158748
0.171828
0.191914
0.222148
0.261272
0.296785
0.359502
0.492188
0.776739
1.58183
2
0.991249
0.553522
0.60114
0.721056
0.902352
1.16597
1.47618
1.81905
2
2
2
2
0.000797184
0.00169682
0.00558378
0.0129287
0.0237856
0.0375475
0.0531484
0.0690249
0.0836242
0.096113
0.106332
0.114353
0.121
0.126759
0.131217
0.134535
0.136771
0.138145
0.138767
0.138849
0.138603
0.13809
0.137359
0.136519
0.135697
0.135102
0.134752
0.134738
0.135271
0.136519
0.138655
0.142014
0.147077
0.154499
0.165504
0.182218
0.207788
0.243784
0.281683
0.32054
0.422188
0.60984
1.1021
2
1.62839
0.681648
0.561578
0.654798
0.789454
1.00013
1.27238
1.58711
1.94718
2
2
2
2
0.000796584
0.00169653
0.00557905
0.0128924
0.0236768
0.0375488
0.0531984
0.0690858
0.0836907
0.096271
0.106427
0.114453
0.121112
0.126827
0.131205
0.134481
0.136709
0.138144
0.138791
0.138873
0.138517
0.137976
0.137236
0.136376
0.13552
0.134779
0.134317
0.134182
0.13455
0.135494
0.137275
0.140174
0.144532
0.150895
0.160233
0.174278
0.195726
0.227413
0.266146
0.299909
0.370411
0.507533
0.804503
1.6309
2
1.06609
0.571643
0.601888
0.715182
0.868578
1.10012
1.39066
1.6855
2
2
2
2
2
0.000796891
0.00169398
0.00557508
0.0128884
0.0236246
0.0374293
0.0532217
0.0691598
0.0838083
0.0963661
0.106596
0.114521
0.121209
0.126889
0.131304
0.134455
0.136669
0.138091
0.13881
0.138873
0.138504
0.137844
0.137079
0.136231
0.135345
0.134546
0.133933
0.133677
0.133862
0.134605
0.13609
0.138572
0.142329
0.147796
0.15583
0.1677
0.185697
0.212876
0.249654
0.285804
0.330839
0.436966
0.633077
1.15492
2
1.68449
0.720279
0.56946
0.654072
0.780403
0.956541
1.21403
1.50298
1.79122
2
2
2
2
2
0.000797581
0.00169461
0.00556658
0.0128857
0.023624
0.0373678
0.0530823
0.0692064
0.0838965
0.0964901
0.106696
0.114673
0.121249
0.126992
0.131404
0.134577
0.136708
0.13803
0.138764
0.138869
0.138501
0.137824
0.136936
0.136055
0.13517
0.134329
0.133644
0.133238
0.133287
0.133847
0.135017
0.137147
0.14037
0.145155
0.152087
0.162231
0.177432
0.200358
0.233545
0.2714
0.303805
0.384448
0.527987
0.845932
1.71687
2
1.09911
0.589617
0.60772
0.712548
0.851775
1.0599
1.32568
1.6168
1.91143
2
2
2
2
2
0.000798217
0.00169725
0.00557772
0.012884
0.0236301
0.0373785
0.0530138
0.0690613
0.0839705
0.0965976
0.106826
0.114753
0.121375
0.127065
0.131477
0.134706
0.136848
0.13807
0.138704
0.138814
0.138455
0.137821
0.13691
0.135904
0.134985
0.134128
0.133393
0.132908
0.132774
0.133162
0.134122
0.135898
0.138675
0.142883
0.148899
0.157682
0.170563
0.190012
0.218839
0.255898
0.290239
0.34373
0.455978
0.66508
1.23292
2
1.69
0.737962
0.58108
0.660471
0.777533
0.936949
1.16796
1.44944
1.70998
2
2
2
2
2
2
0.000798245
0.0016999
0.00558949
0.0129157
0.0236561
0.0373983
0.0530458
0.0689528
0.0838777
0.0966906
0.106952
0.114891
0.121455
0.127151
0.13156
0.134746
0.136943
0.138227
0.138707
0.138784
0.138409
0.137757
0.136929
0.135861
0.134831
0.133912
0.133171
0.132594
0.132351
0.132535
0.1333
0.134808
0.13723
0.140878
0.146202
0.153817
0.16487
0.181402
0.206148
0.240588
0.276658
0.311426
0.402007
0.554865
0.905141
1.83558
2
1.09543
0.602044
0.619173
0.720351
0.849908
1.02947
1.28665
1.56257
1.81347
2
2
2
2
2
2
0.000797701
0.00170234
0.00560157
0.0129468
0.0237185
0.0374448
0.0530784
0.0689981
0.0837769
0.0966046
0.107069
0.115098
0.121586
0.127251
0.131684
0.134809
0.13697
0.138303
0.138807
0.13877
0.138372
0.137691
0.136842
0.135857
0.134758
0.133736
0.132915
0.1323
0.131975
0.132011
0.132585
0.133841
0.135973
0.139161
0.143822
0.150441
0.160064
0.174195
0.195347
0.226087
0.262948
0.295288
0.359596
0.479856
0.709353
1.34302
2
1.6623
0.73937
0.593211
0.671871
0.785733
0.928607
1.14063
1.40544
1.67273
1.93524
2
2
2
2
2
2
0.000796529
0.00170753
0.00561813
0.0129796
0.0237779
0.0375446
0.0531488
0.0690982
0.0838956
0.0965674
0.106998
0.115218
0.121795
0.127344
0.131727
0.134932
0.136983
0.138327
0.138889
0.138821
0.138344
0.137653
0.136775
0.135784
0.134712
0.133625
0.132692
0.132022
0.131625
0.131563
0.132008
0.133019
0.134837
0.137612
0.141751
0.147558
0.155962
0.168153
0.186313
0.213037
0.248358
0.282509
0.325805
0.423452
0.589783
0.989562
1.99028
2
1.06857
0.611261
0.631358
0.731215
0.856648
1.02107
1.25984
1.53523
1.76343
2
2
2
2
2
2
2
0.000794643
0.00170477
0.00563378
0.0130191
0.0238438
0.037639
0.0532781
0.069178
0.084064
0.0966935
0.106972
0.115157
0.121946
0.127525
0.131781
0.134954
0.137106
0.138358
0.138959
0.138929
0.138426
0.137623
0.136721
0.135681
0.134617
0.133542
0.132548
0.13177
0.131294
0.131178
0.131432
0.132284
0.133834
0.1363
0.1399
0.145081
0.152443
0.163059
0.17867
0.201797
0.234154
0.269678
0.30091
0.378938
0.509247
0.770238
1.49446
2
1.59872
0.730763
0.606393
0.684456
0.796441
0.934438
1.1276
1.38705
1.6425
1.87038
2
2
2
2
2
2
2
0.00079225
0.0016949
0.00562628
0.0130557
0.0239177
0.0377762
0.0534503
0.0693323
0.0841479
0.0968942
0.10707
0.115203
0.121879
0.127721
0.13195
0.135027
0.13716
0.13839
0.138985
0.138992
0.138542
0.137694
0.136659
0.135593
0.134493
0.133445
0.132439
0.131572
0.131022
0.130775
0.130944
0.131623
0.132927
0.135095
0.138315
0.142893
0.149411
0.158691
0.172156
0.19213
0.220888
0.256313
0.288581
0.343076
0.449405
0.634846
1.10719
2
2
1.0189
0.618384
0.64654
0.745545
0.867728
1.02303
1.24758
1.51206
1.74932
2
2
2
2
2
2
2
2
0.000789523
0.00168477
0.00559909
0.0130419
0.0239833
0.0378557
0.0536293
0.0695765
0.0842466
0.09694
0.10722
0.115315
0.121904
0.12773
0.132155
0.135141
0.137165
0.138405
0.138976
0.138978
0.13856
0.137779
0.136693
0.135529
0.134386
0.133315
0.13233
0.131437
0.130775
0.130437
0.130501
0.131057
0.132171
0.134055
0.136881
0.141
0.146755
0.154929
0.166706
0.183931
0.209075
0.242546
0.276421
0.314014
0.402217
0.545474
0.853162
1.69317
2
1.49581
0.713329
0.621455
0.701864
0.812708
0.94648
1.12516
1.37497
1.64908
1.84042
2
2
2
2
2
2
2
2
0.000786746
0.00168031
0.00556692
0.0129889
0.0239649
0.0379179
0.0536952
0.0697905
0.0844477
0.0970393
0.10729
0.115491
0.122089
0.127681
0.132184
0.135313
0.137311
0.138415
0.138981
0.138989
0.138553
0.137796
0.13677
0.135545
0.134331
0.133187
0.132184
0.131293
0.130617
0.130175
0.130086
0.130532
0.13151
0.133147
0.135696
0.139308
0.144465
0.151725
0.161986
0.176987
0.198899
0.229484
0.264196
0.295659
0.364086
0.480814
0.694044
1.26671
2
2
0.95102
0.62486
0.665263
0.764968
0.885967
1.03506
1.24287
1.50466
1.7389
1.961
2
2
2
2
2
2
2
2
0.000784007
0.001676
0.00555438
0.0129222
0.0238805
0.0378999
0.0537815
0.069867
0.0847267
0.0972292
0.1074
0.115509
0.122209
0.12784
0.132194
0.135367
0.137522
0.138582
0.139008
0.138993
0.138555
0.137784
0.136775
0.135603
0.134344
0.133108
0.132041
0.131129
0.130429
0.129961
0.129787
0.13007
0.13089
0.132348
0.134601
0.137858
0.142483
0.148933
0.158035
0.171109
0.190165
0.217537
0.251709
0.284087
0.332929
0.430429
0.591317
0.96736
1.93928
2
1.36425
0.692338
0.638621
0.723251
0.83366
0.96624
1.13269
1.37604
1.62607
1.83895
2
2
2
2
2
2
2
2
2
0.000781476
0.00166992
0.00553976
0.0128955
0.0237706
0.0378212
0.0537642
0.0699717
0.0848652
0.0974934
0.10761
0.1156
0.122267
0.128005
0.132333
0.135402
0.137537
0.138799
0.139141
0.138995
0.138523
0.137754
0.136752
0.13563
0.134384
0.133123
0.131944
0.130982
0.130217
0.129739
0.129461
0.129662
0.130319
0.131604
0.133611
0.136541
0.140729
0.146528
0.154573
0.166106
0.182796
0.20705
0.239381
0.272665
0.307141
0.389537
0.519452
0.774922
1.47954
2
1.9152
0.876401
0.632919
0.686843
0.787893
0.909298
1.05419
1.25499
1.5051
1.76081
1.94411
2
2
2
2
2
2
2
2
2
0.00077924
0.00166397
0.00552083
0.0128641
0.0237265
0.0377006
0.0537172
0.0700124
0.0849847
0.0977014
0.107884
0.115805
0.122381
0.128034
0.132502
0.135572
0.137593
0.138825
0.139326
0.139084
0.138481
0.137704
0.136714
0.135602
0.134401
0.133139
0.131925
0.130836
0.130039
0.129483
0.129219
0.129291
0.129828
0.130928
0.132726
0.135412
0.139153
0.144422
0.151628
0.161817
0.176458
0.197896
0.227712
0.261657
0.292501
0.355728
0.464606
0.651582
1.12737
2
2
1.21728
0.674203
0.658237
0.74683
0.859007
0.991065
1.16043
1.38407
1.65518
1.84195
2
2
2
2
2
2
2
2
2
2
0.000777405
0.00165909
0.00549427
0.0128391
0.0236741
0.0376446
0.0536187
0.0699756
0.0850396
0.0978826
0.10807
0.116037
0.122546
0.128112
0.132516
0.135727
0.137763
0.138844
0.13934
0.139278
0.13857
0.137684
0.136661
0.135552
0.134366
0.133122
0.131931
0.13078
0.129868
0.12928
0.12898
0.128982
0.129452
0.130388
0.131972
0.134361
0.137838
0.142557
0.149057
0.158146
0.17115
0.189963
0.216945
0.250331
0.281871
0.327764
0.420189
0.56795
0.889174
1.75835
2
1.70764
0.805381
0.644774
0.710763
0.814036
0.936079
1.08265
1.2681
1.52937
1.75804
1.94925
2
2
2
2
2
2
2
2
2
2
0.000775939
0.00165498
0.00547847
0.0127813
0.0236315
0.0375688
0.0535083
0.0698169
0.0850083
0.0978783
0.108257
0.116195
0.122762
0.128238
0.1325
0.135739
0.137896
0.139013
0.139392
0.139315
0.138777
0.13777
0.136659
0.135466
0.134285
0.133069
0.131892
0.130796
0.1298
0.129101
0.128718
0.128679
0.129036
0.129901
0.1313
0.13347
0.136604
0.140899
0.146777
0.154992
0.166538
0.183172
0.207316
0.239023
0.271497
0.3043
0.383447
0.506177
0.734172
1.35119
2
2
1.06717
0.663817
0.681155
0.773917
0.8875
1.02193
1.17711
1.40752
1.6616
1.87353
2
2
2
2
2
2
2
2
2
2
2
0.000774877
0.00165511
0.00547321
0.0127333
0.0235608
0.037474
0.0533767
0.0697566
0.0848538
0.0978684
0.108263
0.116383
0.122927
0.128407
0.132583
0.135732
0.137876
0.139138
0.139524
0.139391
0.138827
0.137915
0.136716
0.135432
0.134181
0.13298
0.131809
0.130743
0.129779
0.129013
0.128544
0.128414
0.128692
0.129441
0.130682
0.132653
0.135516
0.139469
0.144812
0.15218
0.162546
0.17736
0.198817
0.228377
0.261396
0.2915
0.352686
0.457359
0.630897
1.05362
2
2
1.47195
0.74617
0.662106
0.738468
0.843949
0.968459
1.11183
1.3018
1.54739
1.80804
1.96442
2
2
2
2
2
2
2
2
2
2
2
0.000773964
0.00164983
0.00547208
0.0127349
0.0234765
0.0373719
0.0532606
0.0696735
0.0848138
0.0977869
0.108254
0.116378
0.12308
0.128547
0.132731
0.13579
0.137877
0.139085
0.139629
0.139497
0.138888
0.137954
0.136819
0.135473
0.134134
0.13288
0.131721
0.130649
0.129724
0.128908
0.128372
0.128152
0.128364
0.129
0.13018
0.131933
0.134535
0.138179
0.143063
0.149762
0.159128
0.172305
0.191481
0.218409
0.251148
0.281791
0.32698
0.417056
0.558151
0.851743
1.6557
2
1.98552
0.927946
0.663512
0.708176
0.804947
0.920862
1.054
1.2217
1.43254
1.70097
1.89002
2
2
2
2
2
2
2
2
2
2
2
2
0.000773438
0.0016452
0.00545636
0.0127315
0.0234549
0.037292
0.0531358
0.0695499
0.0847382
0.0977066
0.108196
0.116388
0.123093
0.128757
0.132836
0.135881
0.137888
0.139068
0.139589
0.139536
0.138965
0.138019
0.136865
0.135567
0.134156
0.132841
0.131612
0.13057
0.129601
0.128832
0.128228
0.127953
0.128024
0.128598
0.129646
0.131288
0.133696
0.137012
0.141557
0.147681
0.15609
0.167952
0.185083
0.209456
0.240849
0.272291
0.305197
0.383258
0.502861
0.717781
1.29028
2
2
1.23548
0.704881
0.684793
0.769963
0.877973
1.00267
1.15069
1.33036
1.5878
1.81247
1.99635
2
2
2
2
2
2
2
2
2
2
2
2
0.000773128
0.0016466
0.00544266
0.0126824
0.0234452
0.0372556
0.0530351
0.0694183
0.0846263
0.097591
0.10818
0.116346
0.123094
0.128814
0.133081
0.135966
0.137958
0.139082
0.139525
0.139501
0.139009
0.138106
0.136939
0.135639
0.134239
0.13285
0.131538
0.130446
0.129511
0.128731
0.128121
0.12782
0.127829
0.128259
0.129213
0.13071
0.132903
0.135965
0.140173
0.145798
0.153485
0.164195
0.17947
0.201466
0.230966
0.263136
0.292504
0.354608
0.458177
0.626374
1.02623
2
2
1.67149
0.816357
0.673442
0.738752
0.839422
0.957044
1.09467
1.25215
1.47579
1.72583
1.94328
2
2
2
2
2
2
2
2
2
2
2
2
2
0.000773035
0.00164663
0.00544663
0.0126562
0.0233639
0.0372439
0.0530411
0.0693094
0.084497
0.0975447
0.108154
0.116366
0.123057
0.128826
0.133178
0.136135
0.138014
0.1391
0.139504
0.139447
0.138952
0.138153
0.137036
0.135721
0.13431
0.132912
0.131548
0.130335
0.129383
0.128611
0.127999
0.127689
0.127645
0.127961
0.128806
0.130183
0.132191
0.135057
0.138929
0.144132
0.151184
0.160868
0.174665
0.194431
0.221771
0.253904
0.283548
0.330459
0.42063
0.560267
0.845148
1.62659
2
2
1.02953
0.686097
0.712316
0.804279
0.91494
1.04368
1.19256
1.38366
1.62287
1.88522
2
2
2
2
2
2
2
2
2
2
2
2
2
2
0.000773101
0.00164725
0.00544608
0.0126663
0.0233242
0.037126
0.0530751
0.0692728
0.0844576
0.0974421
0.108164
0.116358
0.12308
0.128799
0.133204
0.136236
0.138145
0.139124
0.139531
0.139384
0.138905
0.138079
0.137063
0.135791
0.134405
0.132961
0.131608
0.130315
0.129261
0.128444
0.127878
0.127481
0.127468
0.12771
0.128432
0.129702
0.131582
0.134244
0.137814
0.142668
0.149142
0.158033
0.170483
0.188228
0.213258
0.244479
0.274973
0.309939
0.388811
0.508859
0.722327
1.28791
2
2
1.35965
0.743436
0.693537
0.772658
0.876641
0.997974
1.13849
1.30911
1.51875
1.78929
1.96776
2
2
2
2
2
2
2
2
2
2
2
2
2
2
0.000773272
0.00164779
0.00544796
0.012666
0.0233439
0.0370691
0.0529243
0.0692587
0.0844254
0.097414
0.108051
0.116343
0.123064
0.12883
0.13318
0.136305
0.138228
0.139289
0.139569
0.139417
0.138844
0.138002
0.13699
0.135799
0.134472
0.133026
0.131643
0.130376
0.129219
0.128318
0.1277
0.127342
0.127269
0.127499
0.128111
0.129249
0.131
0.133485
0.136831
0.141301
0.147324
0.155497
0.1668
0.182895
0.205655
0.235393
0.266388
0.295414
0.361695
0.466811
0.636603
1.04047
2
2
1.79556
0.87043
0.688547
0.745292
0.841952
0.956302
1.08852
1.24436
1.42343
1.68153
1.90249
2
2
2
2
2
2
2
2
2
2
2
2
2
2
2
0.000773509
0.00164806
0.00544895
0.0126683
0.0233425
0.0370953
0.0528409
0.0691434
0.0843605
0.0974614
0.107967
0.11634
0.123075
0.128892
0.133223
0.136293
0.138306
0.139392
0.139698
0.139463
0.138843
0.137945
0.136886
0.135738
0.134471
0.133098
0.131681
0.130394
0.129259
0.12826
0.127572
0.12718
0.127075
0.127278
0.127839
0.128886
0.130499
0.132799
0.135953
0.140156
0.145716
0.15327
0.163618
0.178222
0.198948
0.226916
0.258166
0.287019
0.338527
0.431221
0.573824
0.867328
1.67093
2
2
1.08861
0.707675
0.722743
0.810827
0.918818
1.04332
1.1858
1.34743
1.57546
1.82527
2
2
2
2
2
2
2
2
2
2
2
2
2
2
2
2
0.00077385
0.00164849
0.00544997
0.0126703
0.0233449
0.0370914
0.0528668
0.0690716
0.0842375
0.0973964
0.107971
0.116286
0.123063
0.128912
0.133296
0.136387
0.138347
0.139415
0.139838
0.139566
0.138888
0.137936
0.136803
0.135634
0.134401
0.133123
0.131731
0.130426
0.12926
0.128273
0.12748
0.127023
0.12688
0.127055
0.127542
0.128535
0.130045
0.132202
0.135118
0.139075
0.144318
0.151279
0.16075
0.174113
0.193005
0.218986
0.249945
0.279048
0.318718
0.400626
0.524699
0.747767
1.34363
2
2
1.40938
0.767936
0.707123
0.782698
0.884609
1.0026
1.13808
1.29124
1.48394
1.73213
1.98705
2
2
2
2
2
2
2
2
2
2
2
2
2
2
2
2
0.00077402
0.00165007
0.00545156
0.0126723
0.0233458
0.0370938
0.0528563
0.0690725
0.0841688
0.0972148
0.107919
0.116207
0.122996
0.128841
0.133327
0.136484
0.138448
0.139472
0.139854
0.139654
0.138971
0.137958
0.136798
0.135521
0.134301
0.133055
0.131756
0.130461
0.129255
0.128226
0.127421
0.1269
0.126666
0.12684
0.127335
0.128183
0.129637
0.131663
0.1344
0.138101
0.143018
0.149485
0.158252
0.170403
0.187715