/*--------------------------------*- C++ -*----------------------------------*\
| =========                 |                                                 |
| \\      /  F ield         | OpenFOAM: The Open Source CFD Toolbox           |
|  \\    /   O peration     | Version:  v2012                                 |
|   \\  /    A nd           | Website:  www.openfoam.com                      |
|    \\/     M anipulation  |                                                 |
\*---------------------------------------------------------------------------*/
FoamFile
{
    version     2.0;
    format      ascii;
    class       volScalarField;
    location    "0";
    object      q4;
}
// * * * * * * * * * * * * * * * * * * * * * * * * * * * * * * * * * * * * * //

dimensions      [0 0 0 0 0 0 0];


internalField   uniform 0;

boundaryField
{
    base
    {
        type            calculated;
        value           nonuniform List<scalar> 
398
(
0.0221508
0.00367579
0.00179402
0.00162148
0.0016713
0.00173407
0.00178243
0.00180614
0.00182314
0.00182982
0.0018237
0.0018109
0.00179864
0.0017835
0.00176681
0.00175138
0.00173572
0.00171809
0.00170029
0.00168454
0.00167012
0.00165522
0.00163988
0.00162587
0.00161272
0.00159965
0.00158666
0.00157446
0.00156282
0.00155121
0.00153997
0.00153008
0.0015205
0.00151058
0.00150034
0.00149129
0.00148403
0.0014769
0.00146898
0.00146077
0.0014535
0.00144808
0.00144337
0.00143781
0.00143116
0.00142438
0.00141857
0.00141465
0.00141317
0.00141168
0.00140934
0.00140536
0.00139946
0.00139308
0.00138688
0.00138181
0.00137849
0.00137734
0.00137783
0.00137898
0.00138004
0.00137999
0.00137894
0.00137673
0.00137327
0.00136889
0.00136393
0.00135889
0.00135392
0.00134933
0.00134529
0.00134196
0.0013393
0.00133737
0.0013357
0.00133473
0.00133415
0.00133396
0.00133406
0.00133434
0.00133474
0.00133534
0.00133561
0.00133591
0.00133629
0.00133672
0.00133555
0.00125982
0.000538653
0.00109766
0.00177109
0.00190324
0.00200417
0.0020771
0.00216894
0.00225741
0.00234189
0.00243344
0.00252997
0.0026277
0.00272746
0.00282614
0.00292188
0.00301318
0.00309899
0.00318006
0.00325693
0.00332972
0.00339953
0.00346745
0.00353651
0.00360779
0.00368411
0.00376627
0.00385572
0.00395321
0.00405965
0.00417591
0.0043021
0.00443801
0.0045843
0.00474169
0.00490952
0.00508585
0.00527041
0.0054622
0.00566144
0.00587006
0.00608371
0.00628517
0.00647623
0.00666937
0.00685382
0.0070234
0.00717327
0.00729806
0.00739423
0.00745198
0.0074539
0.00739032
0.00724545
0.00699758
0.0066152
0.00605711
0.0052775
0.00425038
0.00303645
0.00177272
0.00145541
0.00120628
0.000735465
0.000710065
0.000925031
0.00128181
0.00176178
0.00232375
0.00291842
0.00350884
0.0040727
0.00459826
0.00508181
0.00552078
0.00591731
0.00627681
0.00660959
0.00691346
0.00719306
0.00745017
0.0077061
0.00793955
0.00815422
0.00836523
0.00857782
0.0087839
0.00898661
0.00919476
0.00939855
0.00959054
0.00978342
0.00998854
0.0102107
0.0104389
0.0106538
0.0108758
0.011122
0.0113753
0.0116325
0.0119042
0.0121904
0.0124927
0.0128205
0.0131599
0.0135182
0.0139005
0.0142989
0.0147436
0.0152121
0.0157217
0.016274
0.0168423
0.0174546
0.01813
0.018889
0.0196885
0.0205283
0.021444
0.022446
0.0237342
0.025014
0.026251
0.0277655
0.0295206
0.0316268
0.0338282
0.0360775
0.0388503
0.0420198
0.0457253
0.0500521
0.0552084
0.061268
0.0685102
0.0763606
0.0850253
0.0953946
0.107905
0.125736
0.149467
0.178157
0.20711
0.242065
0.281412
0.320315
0.360749
0.402705
0.44396
0.486268
0.531199
0.572814
0.617737
0.663176
0.705514
0.741457
0.771733
0.802146
0.827861
0.847145
0.860542
0.865796
0.865359
0.845461
0.821163
0.791607
0.761588
0.732149
0.707902
0.686158
0.667139
0.649316
0.629761
0.615269
0.603513
0.591601
0.5894
0.593301
0.592322
0.590085
0.586148
0.579354
0.580027
0.583224
0.584543
0.585137
0.584125
0.584118
0.585061
0.582976
0.579048
0.577186
0.57625
0.577636
0.577082
0.574121
0.568449
0.566891
0.566536
0.560676
0.5674
0.567158
0.563733
0.562949
0.561487
0.562368
0.557408
0.568942
0.56402
0.561236
0.56051
0.555563
0.559545
0.552696
0.529934
0.552473
0.549241
0.544266
0.542079
0.523099
0.520111
0.519371
0.51668
0.517578
0.519427
0.539155
0.527906
0.501093
0.498766
0.533164
0.54719
0.541518
0.531874
0.515561
0.501313
0.502303
0.499853
0.510275
0.519337
0.506623
0.493869
0.504958
0.505891
0.485911
0.475927
0.473972
0.488017
0.471039
0.492455
0.479163
0.468769
0.469687
0.4824
0.490151
0.490478
0.446119
0.456176
0.456892
0.487553
0.485266
0.463781
0.48187
0.487005
0.476884
0.466119
0.452478
0.486331
0.482905
0.486071
0.470871
0.467317
0.489938
0.488255
0.467991
0.464965
0.464285
0.463437
0.427419
0.450927
0.459722
0.466878
0.464887
0.439089
0.438665
0.453048
0.438033
0.459648
0.464389
0.439259
0.444785
0.442936
0.454808
0.419085
0.436954
0.463433
0.470582
0.473142
0.450924
0.440291
0.454571
0.469778
0.456643
0.455981
0.467396
0.473315
0.444394
0.433365
0.433605
0.447791
0.447759
0.440133
)
;
    }
    frontAndBack
    {
        type            empty;
    }
    inlet
    {
        type            calculated;
        value           uniform 0;
    }
    outlet
    {
        type            calculated;
        value           uniform 0;
    }
    top
    {
        type            calculated;
        value           uniform 0;
    }
}


// ************************************************************************* //
