/*--------------------------------*- C++ -*----------------------------------*\
| =========                 |                                                 |
| \\      /  F ield         | OpenFOAM: The Open Source CFD Toolbox           |
|  \\    /   O peration     | Version:  v2012                                 |
|   \\  /    A nd           | Website:  www.openfoam.com                      |
|    \\/     M anipulation  |                                                 |
\*---------------------------------------------------------------------------*/
FoamFile
{
    version     2.0;
    format      ascii;
    class       volScalarField;
    location    "0";
    object      Rekd;
}
// * * * * * * * * * * * * * * * * * * * * * * * * * * * * * * * * * * * * * //

dimensions      [0 0 0 0 0 0 0];


internalField   nonuniform List<scalar> 
39402
(
0.00756719
0.00200438
0.010012
0.00103367
0.00224142
0.0104156
0.00093545
0.00113698
0.00220655
0.0111282
0.000959001
0.00147505
0.00107914
0.0024605
0.0127061
0.000990329
0.00181806
0.00421673
0.00126748
0.00297702
0.0156461
0.00101486
0.00200484
0.00575867
0.00977723
0.00181746
0.00369436
0.0201536
0.00102666
0.00211922
0.00647811
0.0133736
0.0182498
0.00270438
0.00455708
0.0263828
0.00103522
0.00217381
0.0068905
0.0149837
0.0248407
0.0297599
0.00388131
0.00553825
0.0345547
0.00103863
0.0022145
0.0070828
0.0158821
0.0277053
0.0402668
0.0443069
0.00531546
0.00664066
0.0450071
0.00103527
0.00223038
0.00721855
0.0162952
0.0292724
0.0447224
0.0595517
0.0617507
0.00697334
0.00789564
0.058231
0.0010284
0.00222612
0.0072699
0.0165805
0.0299839
0.0471251
0.0658736
0.0823981
0.0818879
0.00884514
0.00936746
0.0748525
0.00102188
0.00221338
0.00725244
0.0166865
0.0304606
0.048206
0.0692319
0.0908029
0.108465
0.10456
0.0109816
0.0111633
0.095654
0.00101385
0.00220556
0.0072131
0.0166343
0.0306314
0.0488915
0.0707342
0.0951916
0.119131
0.137543
0.130166
0.0134604
0.0134069
0.121694
0.00100499
0.00219211
0.0071879
0.0165349
0.0305176
0.0491185
0.0716459
0.0971351
0.124611
0.15064
0.169808
0.159381
0.0164135
0.0162693
0.154285
0.000996813
0.00217337
0.00713647
0.0164515
0.0303209
0.0489129
0.0719236
0.0982763
0.127033
0.157286
0.185393
0.205853
0.193163
0.0200096
0.0200138
0.195105
0.000988508
0.00215603
0.00707305
0.0163215
0.0301492
0.0485808
0.071598
0.098605
0.1284
0.160226
0.19329
0.224007
0.246395
0.232782
0.0241678
0.0250425
0.246258
0.00097915
0.00213793
0.00701385
0.016182
0.029899
0.0483139
0.0711018
0.0981553
0.128761
0.161808
0.196781
0.233132
0.267114
0.292439
0.279887
0.0287428
0.0319296
0.310579
0.000969657
0.00211638
0.00695221
0.0160409
0.0296434
0.0479008
0.0706823
0.0974696
0.128146
0.162179
0.198564
0.237139
0.277472
0.3155
0.345158
0.335812
0.0335441
0.0415559
0.392343
0.000961278
0.00209107
0.00687802
0.0158935
0.0293934
0.0474574
0.070091
0.0968512
0.127246
0.161373
0.198933
0.239106
0.281953
0.327034
0.370194
0.405946
0.399703
0.0381683
0.0551539
0.49671
0.000953606
0.00207614
0.00679827
0.0157211
0.0291167
0.0470429
0.0694375
0.0960357
0.126441
0.160259
0.197917
0.239387
0.284029
0.331956
0.382733
0.432403
0.476067
0.471492
0.0423483
0.0747548
0.627353
0.000945666
0.00206758
0.00674194
0.0155511
0.0287959
0.0465927
0.0688025
0.0951668
0.125377
0.159231
0.196532
0.238078
0.284204
0.334053
0.387999
0.44574
0.503591
0.556852
0.552138
0.0461523
0.100189
0.783313
0.000937483
0.00204387
0.00669802
0.0154262
0.0284812
0.0460985
0.0681418
0.0943274
0.124245
0.157896
0.19524
0.236348
0.282528
0.334
0.389998
0.45113
0.517425
0.585662
0.651148
0.641368
0.0500499
0.133477
0.957978
0.000929999
0.00202433
0.00663416
0.015312
0.0282376
0.0456133
0.0674453
0.0934606
0.123183
0.156472
0.193574
0.234712
0.280322
0.331864
0.389559
0.452823
0.522618
0.599537
0.681061
0.761951
0.737382
0.0557529
0.177679
1.12686
0.000922981
0.00200674
0.00656789
0.0151624
0.0280101
0.0452101
0.0667612
0.0925129
0.122089
0.155126
0.191813
0.232674
0.278273
0.329136
0.386842
0.451884
0.523724
0.604072
0.69429
0.792818
0.892417
0.835201
0.0656069
0.236442
1.27665
0.000916005
0.00198206
0.00650807
0.0150095
0.0277335
0.0448302
0.0661618
0.091555
0.120871
0.153751
0.190195
0.23052
0.275799
0.326558
0.383467
0.448366
0.522029
0.604123
0.697428
0.804346
0.924904
1.04528
0.923895
0.0824279
0.31047
1.41456
0.000909057
0.00196872
0.00643623
0.0148714
0.027452
0.044386
0.065597
0.0907323
0.119641
0.152269
0.188494
0.228562
0.273155
0.323539
0.380208
0.444164
0.517463
0.601303
0.695805
0.805078
0.93327
1.08221
1.22199
0.984523
0.108435
0.395893
1.55281
0.000902518
0.00195942
0.00638023
0.0147253
0.0271951
0.043961
0.0649521
0.0899914
0.118612
0.15078
0.186674
0.226544
0.270752
0.32036
0.376548
0.440095
0.512225
0.595397
0.69137
0.800955
0.930088
1.08572
1.2707
1.42411
0.993754
0.145248
0.491741
1.69012
0.00089629
0.00193884
0.00633614
0.0146085
0.0269532
0.0435507
0.0643623
0.0891599
0.117645
0.149492
0.184859
0.224289
0.268298
0.317405
0.372691
0.435534
0.507155
0.588782
0.683659
0.794202
0.922242
1.07649
1.26756
1.49784
1.65329
0.938429
0.193642
0.593298
1.82888
0.000890064
0.00191957
0.00628327
0.0145034
0.0267514
0.0431365
0.0638002
0.0883593
0.116617
0.148268
0.183246
0.222085
0.265646
0.314441
0.369113
0.430894
0.50156
0.582443
0.6753
0.784075
0.912233
1.06315
1.24942
1.48669
1.77146
1.89468
0.827184
0.25267
0.703168
1.95975
0.00088403
0.00190414
0.00623036
0.0143657
0.026549
0.0428058
0.0632073
0.0876333
0.115588
0.146991
0.181821
0.220205
0.263024
0.311262
0.365483
0.426553
0.495941
0.575659
0.667375
0.773486
0.89886
1.04851
1.2281
1.45586
1.75318
2.09785
2.10359
0.686302
0.32196
0.824727
2.08778
0.000878739
0.00189197
0.00617976
0.0142334
0.026304
0.0424975
0.0627195
0.0868795
0.11461
0.145706
0.180245
0.218414
0.260725
0.308168
0.361711
0.422171
0.49072
0.568807
0.659009
0.763478
0.885299
1.03071
1.20688
1.42295
1.70511
2.07923
2.48119
2.19959
0.548682
0.399718
0.951159
2.22113
0.000873598
0.00187852
0.00613631
0.0141194
0.0260662
0.0421673
0.0622959
0.0862171
0.113688
0.144486
0.178735
0.216577
0.258573
0.305388
0.358056
0.417691
0.485411
0.562431
0.65062
0.75313
0.872641
1.01327
1.18307
1.39234
1.65558
2.00933
2.47857
2.91925
2.10599
0.444505
0.483369
1.07347
2.37322
0.000868273
0.00186789
0.00609271
0.0140293
0.0258571
0.0418219
0.0618183
0.0855937
0.112879
0.143398
0.177303
0.21481
0.256396
0.302768
0.354693
0.413321
0.479994
0.556059
0.642901
0.742916
0.859846
0.997221
1.16046
1.36023
1.61149
1.93658
2.38377
2.96496
3.34708
1.81637
0.392033
0.570526
1.1876
2.55411
0.000862767
0.00186102
0.00605519
0.0139439
0.0256894
0.0414924
0.0613232
0.0849086
0.112029
0.142433
0.175971
0.2131
0.25425
0.300146
0.351582
0.409346
0.474782
0.549571
0.6353
0.733538
0.847404
0.981322
1.13996
1.33066
1.56778
1.87316
2.28
2.84656
3.54512
3.6036
1.42229
0.392312
0.653587
1.2979
2.76254
0.000857894
0.00184632
0.00602535
0.0138567
0.0255506
0.0412223
0.0608834
0.0842926
0.11116
0.141443
0.174806
0.211485
0.252252
0.297655
0.348522
0.405687
0.470043
0.543281
0.627541
0.724356
0.835974
0.966023
1.12008
1.30426
1.52868
1.81308
2.18916
2.70433
3.41891
4.21459
3.48558
1.04266
0.429412
0.731303
1.40681
2.98332
0.000854008
0.00183391
0.00597901
0.0137847
0.0253927
0.0409969
0.0604932
0.0837429
0.11042
0.140419
0.173609
0.210111
0.250316
0.295277
0.345492
0.401965
0.465686
0.537669
0.620018
0.715073
0.824807
0.952046
1.10111
1.27921
1.49441
1.76085
2.10585
2.57552
3.23218
4.12052
4.85359
2.95072
0.751624
0.485519
0.808939
1.50773
3.22357
0.000850193
0.00181807
0.00594059
0.0136834
0.0252582
0.0407223
0.0601662
0.0832171
0.109719
0.139451
0.172463
0.208725
0.248632
0.292996
0.342688
0.398381
0.461258
0.532467
0.613304
0.706102
0.813601
0.938494
1.08387
1.25561
1.4626
1.71587
2.03531
2.4593
3.05331
3.89042
4.96241
5.16782
2.22571
0.565013
0.551735
0.889686
1.59878
3.49559
0.000845937
0.00180609
0.00590361
0.0136011
0.0251003
0.0405055
0.0598078
0.0827738
0.109093
0.138581
0.171317
0.207297
0.247024
0.290965
0.33998
0.395039
0.457007
0.527241
0.607123
0.698102
0.802891
0.924964
1.06735
1.2343
1.43303
1.67507
1.97575
2.36299
2.89138
3.64879
4.70449
5.89395
4.85578
1.54005
0.482203
0.617269
0.979734
1.68878
3.79777
0.000841511
0.00179825
0.00586992
0.0135319
0.0249529
0.0402875
0.0595001
0.0823419
0.108572
0.137859
0.170297
0.206045
0.245408
0.289047
0.337625
0.39195
0.453146
0.522241
0.600877
0.690734
0.793324
0.912136
1.05109
1.21403
1.40656
1.63776
1.92278
2.28315
2.75857
3.4258
4.39409
5.69099
6.64967
3.95537
1.0128
0.480189
0.681961
1.07496
1.7971
4.13162
0.000837591
0.00179147
0.00584706
0.013471
0.024835
0.0400621
0.0591506
0.0819734
0.108028
0.137231
0.169451
0.204868
0.243947
0.287209
0.335361
0.389107
0.449404
0.517591
0.594906
0.683338
0.784438
0.900653
1.03568
1.19437
1.3816
1.60461
1.87516
2.21369
2.65026
3.24208
4.09273
5.32137
6.85246
6.73519
2.844
0.682978
0.518127
0.75417
1.16786
1.93037
4.49738
0.000834692
0.00178193
0.00582496
0.0134217
0.024727
0.039881
0.0588706
0.0815112
0.107609
0.136603
0.168556
0.20379
0.242491
0.285504
0.333143
0.386422
0.446057
0.513234
0.589431
0.676226
0.775733
0.889962
1.02189
1.17578
1.35765
1.57371
1.8334
2.15225
2.55812
3.09366
3.84042
4.93061
6.45966
7.96992
5.84021
1.88777
0.525931
0.569546
0.827223
1.26245
2.08469
4.89504
0.000832192
0.00177521
0.00579679
0.013375
0.0246423
0.0397199
0.0586547
0.0811896
0.107083
0.136081
0.167901
0.202859
0.241208
0.283775
0.331054
0.383778
0.442976
0.509339
0.584407
0.669746
0.767393
0.879605
1.00914
1.15909
1.3352
1.54433
1.79494
2.09902
2.47809
2.96985
3.63591
4.5883
5.97869
7.82126
8.46173
4.35818
1.20374
0.488628
0.622835
0.904775
1.36276
2.25141
5.32639
0.000829204
0.00176769
0.00577723
0.0133152
0.0245584
0.0395869
0.0584293
0.0809043
0.106619
0.135422
0.167322
0.202009
0.240149
0.282366
0.329142
0.381355
0.439819
0.505578
0.579682
0.663805
0.759676
0.869795
0.996716
1.14384
1.31501
1.51709
1.75868
2.05079
2.40957
2.8643
3.46758
4.30725
5.53018
7.27004
9.23415
7.70506
2.93305
0.781775
0.511103
0.683917
0.983947
1.46382
2.43208
5.79414
0.000825617
0.00175903
0.00575629
0.0132772
0.0244595
0.0394877
0.0582472
0.0806115
0.106208
0.134953
0.16657
0.201403
0.239182
0.281075
0.327495
0.379107
0.436972
0.50192
0.575231
0.658308
0.752593
0.860653
0.984985
1.12897
1.29651
1.49264
1.7253
2.00583
2.34833
2.77527
3.32653
4.0768
5.14745
6.7104
8.82672
10.0712
5.94185
1.85801
0.573445
0.554637
0.749548
1.07178
1.57213
2.62854
6.30164
0.000821951
0.00175122
0.00572799
0.0132242
0.0243968
0.0393675
0.0581065
0.08042
0.1059
0.134433
0.166009
0.200492
0.238366
0.279873
0.326037
0.377112
0.434404
0.498648
0.571069
0.653048
0.746058
0.85219
0.974199
1.11497
1.2787
1.47025
1.69543
1.96454
2.29203
2.69667
3.20923
3.88603
4.8315
6.20661
8.16497
10.4971
9.47113
4.06298
1.14989
0.510085
0.601268
0.824534
1.16556
1.69081
2.84323
6.8535
0.000818796
0.00174502
0.00570753
0.0131662
0.0243317
0.0392799
0.0579453
0.0801925
0.105712
0.134065
0.165513
0.199773
0.237404
0.278947
0.324715
0.375463
0.432136
0.495676
0.56724
0.648165
0.739974
0.84446
0.964203
1.10217
1.26207
1.44883
1.66821
1.92789
2.24076
2.62542
3.1073
3.72945
4.57166
5.77702
7.53233
9.91834
11.6308
7.49386
2.59248
0.741534
0.520308
0.656224
0.901513
1.26879
1.81809
3.08516
7.45363
0.000816696
0.00173835
0.00569141
0.0131361
0.0242499
0.0392145
0.0578673
0.0799849
0.105487
0.133824
0.165039
0.199245
0.236614
0.277826
0.323519
0.373928
0.430223
0.493034
0.563784
0.643719
0.734247
0.837272
0.955021
1.09027
1.24676
1.42876
1.64243
1.89469
2.19554
2.56129
3.01623
3.59559
4.3602
5.42173
6.96932
9.16286
11.8182
11.1721
5.21352
1.59013
0.560718
0.556322
0.719274
0.989128
1.37474
1.95228
3.35199
8.10622
0.000815934
0.0017341
0.00567339
0.013106
0.0242068
0.0391218
0.0578223
0.0799393
0.105295
0.133631
0.164803
0.198791
0.235969
0.276998
0.322216
0.372619
0.428361
0.490681
0.56058
0.63955
0.728912
0.830417
0.946517
1.07939
1.23263
1.41055
1.61838
1.86349
2.15495
2.5051
2.93524
3.47781
4.18206
5.13432
6.48829
8.45769
11.1218
13.151
9.00189
3.36166
0.977857
0.518117
0.603062
0.791411
1.07924
1.48583
2.09995
3.64329
8.8156
0.000815195
0.00173385
0.00566363
0.013084
0.0241642
0.039069
0.057703
0.0798829
0.105177
0.133384
0.164495
0.198508
0.235453
0.276326
0.321313
0.371174
0.426841
0.488574
0.557787
0.635843
0.724052
0.824179
0.938432
1.06939
1.21977
1.39378
1.59659
1.83453
2.11696
2.45481
2.86474
3.37436
4.02772
4.89443
6.0951
7.83272
10.2824
13.2272
12.7064
6.31566
2.07507
0.657696
0.537143
0.658328
0.872832
1.17877
1.59341
2.26447
3.96026
9.58703
0.000813971
0.0017313
0.00566733
0.0130788
0.0241313
0.0390106
0.0576358
0.079742
0.105066
0.133265
0.164264
0.198302
0.235167
0.275775
0.320604
0.370004
0.425199
0.486818
0.555353
0.632557
0.719808
0.818541
0.931185
1.05997
1.20785
1.37842
1.57662
1.80821
2.08176
2.40824
2.80213
3.28506
3.89412
4.68972
5.77062
7.30243
9.50385
12.4613
14.6675
10.2629
4.08971
1.25644
0.541402
0.576721
0.722194
0.959742
1.28462
1.70514
2.44679
4.30596
10.4261
0.000811844
0.00172836
0.00566664
0.0130944
0.0241313
0.0389453
0.0575691
0.0796652
0.104954
0.13319
0.164148
0.197953
0.234991
0.275439
0.319983
0.36914
0.42386
0.484832
0.553223
0.62958
0.715955
0.813559
0.924469
1.05139
1.19667
1.36421
1.55821
1.7843
2.04984
2.36545
2.74447
3.20645
3.7797
4.51483
5.49566
6.85924
8.82238
11.5445
14.754
14.083
7.20407
2.51918
0.794817
0.531967
0.626768
0.794952
1.05459
1.39998
1.82214
2.6528
4.68278
11.3388
0.000808642
0.0017241
0.00566377
0.0130883
0.024189
0.038926
0.0574856
0.0796334
0.104927
0.133069
0.164172
0.19787
0.234676
0.275175
0.319577
0.36853
0.422768
0.483277
0.551001
0.627167
0.712512
0.809023
0.918387
1.04343
1.18653
1.35089
1.54121
1.7623
2.02094
2.32671
2.69197
3.1347
3.67975
4.36644
5.26368
6.48839
8.22917
10.7013
13.9548
16.2026
11.2957
4.65446
1.50766
0.590566
0.56349
0.685438
0.876391
1.15735
1.50713
1.9517
2.88141
5.09283
12.3317
0.000805161
0.00171814
0.00565045
0.0130786
0.0241863
0.0390531
0.0575105
0.07959
0.104898
0.133101
0.163936
0.197842
0.234572
0.274797
0.3192
0.368061
0.421948
0.482089
0.549113
0.624556
0.709486
0.80509
0.913087
1.0363
1.17721
1.33882
1.52534
1.74191
1.99441
2.29162
2.64472
3.06962
3.58969
4.2381
5.06888
6.17751
7.72553
9.94986
12.9781
16.4035
15.3197
7.88726
2.85448
0.923741
0.541795
0.610463
0.748362
0.970047
1.26275
1.61423
2.09913
3.1319
5.53891
13.4117
0.000801773
0.00170865
0.00563104
0.0130666
0.0241611
0.0390929
0.0577046
0.0796386
0.104913
0.133088
0.163988
0.197689
0.234532
0.27463
0.318845
0.367549
0.421441
0.481072
0.547737
0.622372
0.70634
0.801507
0.908389
1.02995
1.16884
1.32776
1.51098
1.72306
1.97009
2.25947
2.60205
3.01145
3.50868
4.12385
4.90217
5.91887
7.30544
9.28247
12.0616
15.63
17.7214
12.1082
5.06583
1.70375
0.642944
0.561731
0.664154
0.824569
1.06761
1.37923
1.71994
2.26658
3.4059
6.02427
14.5867
0.000799006
0.00170039
0.00560765
0.0130425
0.0241683
0.0390664
0.0577736
0.0799008
0.104987
0.133117
0.164117
0.197769
0.234541
0.274671
0.318715
0.367233
0.420952
0.480391
0.546715
0.620803
0.703939
0.797863
0.904284
1.02428
1.16136
1.31793
1.49789
1.70601
1.9476
2.23021
2.56305
2.9593
3.4365
4.02198
4.75555
5.69952
6.95901
8.71483
11.2252
14.5977
18.1664
16.3622
8.3193
3.10719
1.02818
0.557957
0.605218
0.726011
0.908868
1.175
1.48787
1.83276
2.45756
3.70457
6.5524
15.8647
0.000797201
0.00169693
0.00558804
0.0129857
0.0241585
0.0390917
0.0577907
0.0800065
0.10526
0.133272
0.164143
0.197863
0.234542
0.274764
0.318783
0.367187
0.42048
0.479829
0.545947
0.619628
0.70224
0.795032
0.90013
1.01936
1.1546
1.30911
1.48627
1.6905
1.92729
2.20322
2.52765
2.9119
3.37229
3.93162
4.62596
5.50869
6.66734
8.2453
10.4872
13.5961
17.4825
19.1699
12.58
5.31104
1.8534
0.691355
0.565483
0.659241
0.794923
1.00751
1.28227
1.59951
1.96154
2.66994
4.02979
7.12706
17.2556
0.000796601
0.00169664
0.00558328
0.0129488
0.0240457
0.0390862
0.0578408
0.0800964
0.105406
0.133621
0.164367
0.198007
0.234648
0.274775
0.318699
0.367143
0.42034
0.47944
0.54515
0.618692
0.700739
0.793055
0.896789
1.0146
1.1487
1.30123
1.47574
1.67656
1.9088
2.1789
2.49511
2.8688
3.31418
3.8517
4.5118
5.34211
6.41622
7.85472
9.8569
12.6831
16.4204
20.0073
17.0735
8.4848
3.24287
1.11086
0.576423
0.605945
0.720058
0.874674
1.10835
1.40153
1.69829
2.1125
2.90319
4.38379
7.75231
18.7687
0.000796908
0.00169409
0.00557929
0.0129445
0.0239908
0.0389543
0.0578494
0.0801769
0.105596
0.133861
0.164827
0.198246
0.234848
0.274794
0.318787
0.367047
0.420366
0.479341
0.544755
0.617681
0.699477
0.791094
0.894243
1.01061
1.14305
1.29415
1.4663
1.66393
1.89201
2.15672
2.46579
2.82949
3.26141
3.7799
4.41156
5.19641
6.19895
7.52146
9.32902
11.8794
15.3454
19.5043
20.4505
12.6671
5.36433
1.92424
0.731356
0.573438
0.658465
0.785746
0.963351
1.22326
1.51463
1.80441
2.28729
3.15811
4.76883
8.43244
20.4147
0.000797598
0.00169472
0.00557079
0.0129418
0.0239888
0.0388836
0.0576796
0.0801991
0.105703
0.134108
0.16515
0.198791
0.235119
0.275051
0.318923
0.367217
0.420475
0.479329
0.544682
0.617101
0.69833
0.789645
0.891977
1.0076
1.13831
1.28741
1.45794
1.65275
1.87716
2.13665
2.43913
2.79416
3.21358
3.715
4.32223
5.06957
6.01087
7.23491
8.88131
11.1792
14.363
18.4676
21.8476
17.4117
8.41107
3.24999
1.14602
0.594677
0.611796
0.717343
0.857633
1.0676
1.3358
1.62917
1.92517
2.48458
3.43578
5.18778
9.17253
22.2057
0.000798234
0.00169736
0.00558195
0.0129401
0.0239946
0.0388904
0.0575886
0.0799959
0.105746
0.13426
0.165469
0.19917
0.235751
0.275484
0.319152
0.367444
0.420731
0.479464
0.544718
0.616994
0.697459
0.788356
0.89032
1.00502
1.13482
1.28187
1.45001
1.64279
1.86383
2.11899
2.41496
2.76173
3.17054
3.6562
4.24168
4.95701
5.84837
6.98885
8.50088
10.5757
13.4856
17.3405
21.6671
21.4105
12.4902
5.2693
1.91601
0.749331
0.58515
0.664881
0.782787
0.943471
1.17657
1.46056
1.72264
2.07177
2.70191
3.73808
5.64378
9.97776
24.1545
0.000798262
0.00170001
0.00559375
0.0129722
0.0240218
0.0389103
0.0576139
0.0798388
0.105573
0.134319
0.165678
0.199581
0.236234
0.276183
0.319712
0.367637
0.42088
0.479795
0.54474
0.617176
0.697379
0.787264
0.888974
1.00301
1.13184
1.27764
1.44351
1.6333
1.85179
2.10307
2.39368
2.73252
3.13109
3.60358
4.16887
4.85634
5.70506
6.7781
8.17547
10.0638
12.7006
16.2896
20.7424
23.5351
17.3371
8.16669
3.16836
1.13917
0.607181
0.623315
0.725174
0.855683
1.03672
1.29628
1.57443
1.82648
2.2439
2.93951
4.06702
6.13987
10.8538
26.2747
0.000797718
0.00170245
0.00560585
0.0130037
0.0240868
0.0389627
0.0576494
0.0798749
0.105397
0.134121
0.165769
0.199973
0.236724
0.27683
0.320669
0.368261
0.421097
0.47992
0.544891
0.617168
0.697562
0.787081
0.887615
1.00127
1.12936
1.27403
1.43837
1.62541
1.84052
2.08846
2.3747
2.70676
3.09578
3.55569
4.10417
4.76571
5.57762
6.59369
7.89903
9.63097
12.018
15.3224
19.603
23.8811
21.8569
12.0494
5.05759
1.85898
0.750172
0.597337
0.676335
0.791011
0.93495
1.14882
1.416
1.68518
1.94879
2.43842
3.19841
4.42499
6.67973
11.8074
28.582
0.000796546
0.00170764
0.00562243
0.0130369
0.024149
0.0390734
0.0577391
0.0799951
0.105524
0.134001
0.165559
0.200076
0.237186
0.277346
0.321328
0.369407
0.421708
0.480184
0.545078
0.617177
0.697527
0.787286
0.887401
0.999842
1.12707
1.2709
1.43393
1.61932
1.83096
2.075
2.35712
2.68377
3.0644
3.51266
4.04523
4.68489
5.46373
6.43084
7.65892
9.26477
11.4366
14.461
18.4771
23.2099
24.8542
16.7918
7.73852
3.0134
1.10637
0.616339
0.635549
0.736074
0.862419
1.02813
1.26905
1.5468
1.77608
2.10076
2.65249
3.48021
4.81456
7.26721
12.8449
31.0916
0.00079466
0.00170488
0.00563809
0.0130766
0.0242173
0.0391795
0.0579005
0.0801205
0.10575
0.134151
0.165434
0.199848
0.237373
0.277827
0.32187
0.370181
0.423057
0.481009
0.545579
0.617522
0.697721
0.787253
0.887521
0.999318
1.12527
1.26809
1.43009
1.61403
1.82366
2.0636
2.34082
2.66268
3.03662
3.47449
3.99247
4.61205
5.36268
6.28627
7.44841
8.94861
10.9455
13.6974
17.4393
22.1298
25.995
21.6729
11.3256
4.72481
1.7561
0.740521
0.61056
0.688964
0.801742
0.940753
1.13552
1.39731
1.65464
1.88339
2.2791
2.8862
3.78693
5.23846
7.90655
13.9738
33.8237
0.000792267
0.00169501
0.00563056
0.0131134
0.0242932
0.0393288
0.0581114
0.0803483
0.105922
0.134464
0.165564
0.199831
0.237127
0.278137
0.322413
0.370895
0.424103
0.482278
0.546526
0.618042
0.698143
0.787407
0.887318
0.999242
1.12457
1.26607
1.42675
1.60944
1.81733
2.05477
2.32724
2.64326
3.01121
3.44066
3.94578
4.54686
5.27167
6.15838
7.26238
8.67308
10.5263
13.0401
16.4936
20.9626
25.7881
25.5912
15.795
7.13753
2.7817
1.04908
0.623311
0.650796
0.75046
0.873515
1.02999
1.25651
1.52326
1.76193
2.01755
2.47837
3.14081
4.12074
5.69982
8.60222
15.2025
36.7963
0.00078954
0.00168488
0.00560333
0.0130994
0.0243598
0.0394151
0.0583254
0.080686
0.106141
0.134641
0.165858
0.20001
0.237078
0.278029
0.32278
0.371402
0.424765
0.483393
0.547903
0.618985
0.698526
0.787713
0.88729
0.999087
1.12434
1.26523
1.42434
1.60546
1.81177
2.04709
2.31654
2.62699
2.98785
3.40961
3.90422
4.48932
5.19072
6.04366
7.09864
8.43083
10.1621
12.4777
15.6527
19.8523
24.8981
27.7743
20.8355
10.3722
4.29194
1.61048
0.721752
0.625659
0.706455
0.818078
0.952811
1.13291
1.38494
1.66131
1.85316
2.18289
2.69679
3.41788
4.48409
6.20188
9.35925
16.5399
40.0307
0.000786763
0.00168042
0.00557111
0.0130458
0.0243404
0.0394805
0.0584083
0.0809791
0.106498
0.134936
0.166141
0.200415
0.237459
0.277828
0.322702
0.37174
0.425487
0.484237
0.549217
0.6207
0.69968
0.788177
0.887615
0.998997
1.12426
1.26482
1.42319
1.60238
1.80697
2.04035
2.30718
2.61393
2.96803
3.38112
3.86627
4.43803
5.11908
5.9421
6.95262
8.21869
9.84303
11.9902
14.9075
18.8305
23.7602
28.3172
25.5402
14.4939
6.41283
2.49652
0.973457
0.629588
0.669609
0.76998
0.891834
1.04202
1.25156
1.51563
1.75134
1.97424
2.37252
2.93485
3.71948
4.8796
6.74846
10.1834
17.9955
43.5509
0.000784024
0.00167611
0.00555853
0.0129785
0.0242531
0.0394595
0.0585052
0.0810954
0.106936
0.13537
0.166546
0.200698
0.237855
0.278208
0.322641
0.371714
0.426
0.485158
0.550276
0.622243
0.701597
0.789474
0.888084
0.999251
1.1242
1.26451
1.42266
1.60075
1.80305
2.03446
2.29894
2.60249
2.95197
3.35704
3.83189
4.39152
5.05562
5.85221
6.82359
8.03026
9.56434
11.5667
14.2515
17.9032
22.6035
27.8237
28.8922
19.4176
9.27288
3.79845
1.44135
0.699439
0.642867
0.727957
0.839133
0.972655
1.14035
1.38585
1.63782
1.85168
2.12869
2.58157
3.19402
4.04786
5.31004
7.34335
11.0805
19.5797
47.3818
0.000781492
0.00167003
0.00554386
0.0129512
0.0241394
0.0393718
0.0584812
0.0812253
0.107164
0.135879
0.167127
0.201186
0.238316
0.278804
0.323048
0.371711
0.425853
0.485756
0.551211
0.623374
0.703218
0.791497
0.88954
0.999926
1.12439
1.26451
1.42218
1.60008
1.80101
2.0297
2.29149
2.59231
2.93809
3.33749
3.80232
4.34939
4.99821
5.77293
6.71006
7.86486
9.31889
11.1971
13.6838
17.063
21.5134
26.8503
30.4986
24.5685
12.9776
5.62234
2.18583
0.892389
0.637463
0.691294
0.793025
0.915283
1.0612
1.26364
1.51588
1.77345
1.95711
2.31182
2.80966
3.47624
4.40531
5.77862
7.99085
12.0569
21.3043
51.5505
0.000779256
0.00166407
0.00552488
0.0129193
0.0240922
0.0392386
0.058415
0.0812632
0.107333
0.136259
0.167762
0.201896
0.238979
0.27932
0.323764
0.372288
0.425915
0.485641
0.551791
0.624311
0.70439
0.793313
0.891769
1.00156
1.12505
1.26457
1.42188
1.59922
1.79988
2.0271
2.28582
2.58317
2.92575
3.32029
3.77833
4.3132
4.9461
5.70157
6.6102
7.71988
9.10453
10.8743
13.1934
16.3166
20.4964
25.7105
30.7202
28.9783
17.5272
8.0884
3.27736
1.26587
0.680225
0.662541
0.751655
0.864613
0.997599
1.16825
1.39374
1.66715
1.85459
2.1043
2.51536
3.05804
3.78346
4.79444
6.28875
8.69582
13.1199
23.1815
56.0881
0.000777421
0.0016592
0.00549828
0.0128938
0.0240365
0.0391711
0.0582874
0.0811898
0.107389
0.136546
0.168187
0.20259
0.239758
0.280053
0.324381
0.373097
0.426586
0.4856
0.551626
0.625037
0.705523
0.794867
0.893867
1.00397
1.12681
1.26504
1.42196
1.59863
1.79875
2.02554
2.28266
2.57611
2.91464
3.30514
3.75684
4.28339
4.90149
5.63699
6.52042
7.59317
8.91779
10.5937
12.7678
15.6641
19.5736
24.5663
30.1248
31.9
22.6925
11.3065
4.80386
1.86828
0.816651
0.649195
0.71533
0.819304
0.942198
1.08981
1.27668
1.54023
1.77041
1.96219
2.28299
2.73779
3.32853
4.11796
5.21811
6.84416
9.46344
14.2775
25.2255
61.0264
0.000775954
0.00165508
0.00548244
0.0128354
0.0239908
0.0390826
0.0581426
0.0809627
0.107296
0.136522
0.168534
0.203056
0.240552
0.28092
0.325059
0.373859
0.427477
0.486377
0.551731
0.624975
0.706395
0.796165
0.895765
1.00617
1.1293
1.26685
1.42229
1.59865
1.79796
2.02407
2.28052
2.57195
2.9058
3.29154
3.73825
4.25724
4.86452
5.58146
6.43969
7.47974
8.75542
10.3506
12.3992
15.0978
18.7389
23.4881
29.1436
33.2352
27.7966
15.3354
6.86466
2.75302
1.09628
0.669071
0.685545
0.778885
0.893254
1.02863
1.18489
1.41724
1.67337
1.88639
2.10162
2.48394
2.98008
3.623
4.48218
5.67943
7.44894
10.2993
15.5379
27.4514
66.4021
0.000774893
0.00165521
0.00547716
0.0127869
0.0239167
0.0389747
0.0579734
0.0808405
0.107027
0.136429
0.16852
0.203467
0.24112
0.281772
0.326019
0.374741
0.428305
0.487384
0.552481
0.625187
0.706386
0.796816
0.897109
1.0081
1.13171
1.2696
1.42407
1.59901
1.7976
2.02271
2.2785
2.56899
2.90031
3.28062
3.72139
4.23417
4.83224
5.53543
6.37021
7.37822
8.61078
10.1402
12.08
14.6084
17.9948
22.4825
28.0199
33.3629
32.0363
20.1242
9.57037
3.98873
1.55946
0.754286
0.666487
0.74318
0.849377
0.974754
1.11911
1.31055
1.55819
1.82082
1.97733
2.27837
2.70382
3.24395
3.94371
4.87878
6.18171
8.10758
11.2093
16.9103
29.8743
72.2553
0.000773979
0.00164993
0.00547601
0.0127882
0.0238291
0.0388598
0.0578218
0.0806887
0.106885
0.136203
0.168399
0.203434
0.24153
0.282401
0.32699
0.375843
0.429412
0.488283
0.553567
0.625937
0.706562
0.796768
0.897655
1.00961
1.1339
1.27241
1.42715
1.60102
1.79796
2.02209
2.27665
2.56625
2.89626
3.27364
3.70792
4.21327
4.80326
5.49493
6.3124
7.29006
8.48126
9.95324
11.8046
14.1873
17.3437
21.5673
26.8997
32.7709
34.8162
25.4252
13.0163
5.66613
2.24897
0.945011
0.668285
0.71269
0.810087
0.926801
1.06085
1.22978
1.44227
1.71295
1.90279
2.1164
2.47891
2.94336
3.5313
4.29299
5.3107
6.72883
8.82473
12.2006
18.405
32.5129
78.6267
0.000773453
0.0016453
0.00546027
0.0127846
0.0238057
0.0387692
0.0576626
0.0804911
0.106692
0.135949
0.168153
0.203313
0.241536
0.283015
0.32766
0.376854
0.430595
0.489536
0.554706
0.626912
0.707301
0.796997
0.897712
1.01026
1.13551
1.27498
1.43024
1.60449
1.80014
2.02232
2.27541
2.56388
2.89253
3.26836
3.69871
4.19601
4.77717
5.45866
6.26159
7.21669
8.36942
9.78683
11.561
13.8247
16.7821
20.7396
25.8412
31.8302
36.1061
30.5639
17.2436
7.88212
3.22446
1.28023
0.711064
0.689207
0.774848
0.883591
1.00914
1.15819
1.33916
1.59879
1.82493
2.00937
2.29281
2.69856
3.20429
3.84426
4.67335
5.78113
7.32471
9.60589
13.2805
20.0329
35.3872
85.5619
0.000773143
0.0016467
0.00544655
0.0127352
0.0237947
0.0387253
0.0575327
0.0802879
0.106454
0.135637
0.167929
0.203035
0.241375
0.283126
0.328454
0.37761
0.431752
0.490981
0.556019
0.628277
0.708484
0.797935
0.898044
1.01052
1.13625
1.27678
1.4328
1.60781
1.80381
2.02445
2.2752
2.56209
2.88925
3.26348
3.69197
4.18429
4.75538
5.42573
6.21585
7.15251
8.27543
9.64295
11.3445
13.504
16.298
20.0033
24.8539
30.7543
36.292
34.7877
22.1747
10.7243
4.55251
1.79937
0.826748
0.677967
0.743419
0.844754
0.963177
1.10175
1.2603
1.48574
1.73775
1.9564
2.14391
2.4949
2.93792
3.48848
4.18516
5.08762
6.2935
7.97376
10.4569
14.4565
21.8066
38.5186
93.1131
0.00077305
0.00164673
0.00545052
0.0127087
0.0237111
0.0387084
0.0575226
0.0801178
0.106201
0.135424
0.167677
0.202813
0.241062
0.282958
0.328683
0.378314
0.432573
0.492182
0.557581
0.629878
0.709933
0.799287
0.899132
1.01098
1.13658
1.27755
1.43495
1.61038
1.80733
2.02829
2.27741
2.56145
2.88685
3.25905
3.68561
4.17516
4.74047
5.39871
6.1748
7.09469
8.19307
9.52192
11.1579
13.2207
15.8735
19.3601
23.955
29.6747
35.806
37.6336
27.5266
14.2613
6.30249
2.54077
1.05222
0.69124
0.716823
0.809351
0.920759
1.05038
1.20027
1.39281
1.63393
1.89827
2.04244
2.32362
2.71628
3.19867
3.79805
4.55648
5.53895
6.85168
8.68087
11.384
15.738
23.7396
41.9292
101.336
0.000773116
0.00164735
0.00544996
0.0127188
0.0236701
0.0385822
0.0575462
0.08004
0.106074
0.135143
0.167486
0.202521
0.240798
0.282604
0.328524
0.37859
0.433297
0.49307
0.559067
0.631556
0.711817
0.800858
0.900511
1.01201
1.13711
1.27775
1.43592
1.61259
1.81024
2.03198
2.28151
2.56369
2.88593
3.25565
3.67971
4.16699
4.72866
5.37963
6.14084
7.04282
8.11936
9.41565
11
12.976
15.5003
18.7933
23.1479
28.6532
34.9727
39.1125
32.7097
18.5236
8.54835
3.54792
1.41757
0.750456
0.698002
0.777502
0.882176
1.00433
1.14581
1.31765
1.52887
1.80164
1.98075
2.18484
2.52872
2.95752
3.48271
4.13528
4.96102
6.03067
7.45983
9.45121
12.3942
17.1346
25.8455
45.6451
110.294
0.000773287
0.00164789
0.00545184
0.0127185
0.0236897
0.0385201
0.0573725
0.0799951
0.105971
0.134984
0.167114
0.202221
0.240446
0.282296
0.328106
0.378519
0.433584
0.494047
0.560206
0.633332
0.713838
0.802868
0.902338
1.01344
1.1383
1.2781
1.43611
1.61381
1.81258
2.03522
2.28583
2.56805
2.88798
3.25376
3.67505
4.15902
4.71761
5.3638
6.11569
6.99955
8.0533
9.32103
10.8621
12.7682
15.1773
18.2952
22.4121
27.7027
33.9885
39.529
37.1076
23.4381
11.3831
4.87411
1.94898
0.882531
0.693217
0.749953
0.847231
0.96235
1.09547
1.25239
1.4327
1.69293
1.91527
2.09212
2.36847
2.75335
3.22033
3.79219
4.50272
5.40179
6.56641
8.12252
10.2907
13.4951
18.6565
28.1405
49.6946
120.048
0.000773524
0.00164816
0.00545284
0.0127207
0.023688
0.0385456
0.0572737
0.0798399
0.105838
0.134953
0.166816
0.201961
0.240152
0.282037
0.327761
0.378069
0.433494
0.494474
0.561191
0.634717
0.715723
0.805208
0.904489
1.01557
1.13989
1.27942
1.43631
1.61395
1.81371
2.03781
2.28938
2.57267
2.89252
3.25567
3.67224
4.15283
4.70741
5.34928
6.09496
6.96645
7.99789
9.23639
10.7395
12.5864
14.9012
17.8642
21.7562
26.8156
32.9769
39.2591
40.2668
28.789
14.8643
6.59599
2.6795
1.11421
0.713083
0.727284
0.815881
0.924592
1.04994
1.19337
1.35607
1.58589
1.83759
2.04573
2.23528
2.57807
2.99816
3.50667
4.12939
4.90306
5.88202
7.15023
8.84465
11.2057
14.6952
20.3156
30.6426
54.1083
130.673
0.000773865
0.00164859
0.00545386
0.0127227
0.0236903
0.0385404
0.0572969
0.0797393
0.105646
0.134785
0.166688
0.201646
0.239832