/*--------------------------------*- C++ -*----------------------------------*\
| =========                 |                                                 |
| \\      /  F ield         | OpenFOAM: The Open Source CFD Toolbox           |
|  \\    /   O peration     | Version:  v2012                                 |
|   \\  /    A nd           | Website:  www.openfoam.com                      |
|    \\/     M anipulation  |                                                 |
\*---------------------------------------------------------------------------*/
FoamFile
{
    version     2.0;
    format      ascii;
    class       volScalarField;
    location    "0";
    object      Res;
}
// * * * * * * * * * * * * * * * * * * * * * * * * * * * * * * * * * * * * * //

dimensions      [0 0 0 0 0 0 0];


internalField   nonuniform List<scalar> 
39402
(
0.708111
0.380345
0.999986
0.207823
0.994329
1
0.187739
0.92379
0.999997
1
0.191076
0.896384
0.999228
1
1
0.196394
0.897927
0.998316
0.999998
1
1
0.200657
0.902857
0.998311
0.999993
1
1
1
0.202682
0.907207
0.99844
0.999992
1
1
1
1
0.204167
0.908908
0.998563
0.999992
1
1
1
1
1
0.204742
0.910796
0.998604
0.999993
1
1
1
1
1
1
0.204091
0.911144
0.99865
0.999993
1
1
1
1
1
1
1
0.202791
0.910264
0.998652
0.999993
1
1
1
1
1
1
1
1
0.201558
0.90859
0.998611
0.999993
1
1
1
1
1
1
1
1
1
0.200047
0.907979
0.998554
0.999993
1
1
1
1
1
1
1
1
1
1
0.198386
0.906958
0.998532
0.999992
1
1
1
1
1
1
1
1
1
1
1
0.196852
0.904935
0.998475
0.999992
1
1
1
1
1
1
1
1
1
1
1
1
0.195294
0.903021
0.99839
0.999991
1
1
1
1
1
1
1
1
1
1
1
1
1
0.193542
0.901113
0.998306
0.999991
1
1
1
1
1
1
1
1
1
1
1
1
1
1
0.191765
0.898839
0.998221
0.99999
1
1
1
1
1
1
1
1
1
1
1
1
1
1
1
0.190191
0.895393
0.998114
0.999989
1
1
1
1
1
1
1
1
1
1
1
1
1
1
1
1
0.188745
0.894252
0.997972
0.999988
1
1
1
1
1
1
1
1
1
1
1
1
1
1
1
1
1
0.187253
0.8947
0.997894
0.999986
1
1
1
1
1
1
1
1
1
1
1
1
1
1
1
1
1
1
0.185717
0.891106
0.99786
0.999986
1
1
1
1
1
1
1
1
1
1
1
1
1
1
1
1
1
1
1
0.184309
0.888694
0.997747
0.999985
1
1
1
1
1
1
1
1
1
1
1
1
1
1
1
1
1
1
1
1
0.182988
0.886456
0.99762
0.999984
1
1
1
1
1
1
1
1
1
1
1
1
1
1
1
1
1
1
1
1
1
0.181674
0.881771
0.997497
0.999982
1
1
1
1
1
1
1
1
1
1
1
1
1
1
1
1
1
1
1
1
1
1
0.180364
0.880598
0.997288
0.999981
1
1
1
1
1
1
1
1
1
1
1
1
1
1
1
1
1
1
1
1
1
1
1
0.179131
0.88072
0.997159
0.999978
1
1
1
1
1
1
1
1
1
1
1
1
1
1
1
1
1
1
1
1
1
1
1
1
0.177954
0.877004
0.997098
0.999977
1
1
1
1
1
1
1
1
1
1
1
1
1
1
1
1
1
1
1
1
1
1
1
1
1
0.176778
0.873458
0.996965
0.999976
1
1
1
1
1
1
1
1
1
1
1
1
1
1
1
1
1
1
1
1
1
1
1
1
1
1
0.175637
0.871173
0.996813
0.999974
1
1
1
1
1
1
1
1
1
1
1
1
1
1
1
1
1
1
1
1
1
1
1
1
1
1
1
0.174636
0.869862
0.996672
0.999971
1
1
1
1
1
1
1
1
1
1
1
1
1
1
1
1
1
1
1
1
1
1
1
1
1
1
1
1
0.173663
0.867736
0.996567
0.999969
1
1
1
1
1
1
1
1
1
1
1
1
1
1
1
1
1
1
1
1
1
1
1
1
1
1
1
1
1
0.172654
0.866515
0.996429
0.999967
1
1
1
1
1
1
1
1
1
1
1
1
1
1
1
1
1
1
1
1
1
1
1
1
1
1
1
1
1
1
0.171613
0.866778
0.996328
0.999966
1
1
1
1
1
1
1
1
1
1
1
1
1
1
1
1
1
1
1
1
1
1
1
1
1
1
1
1
1
1
1
0.170689
0.864321
0.996293
0.999964
1
1
1
1
1
1
1
1
1
1
1
1
1
1
1
1
1
1
1
1
1
1
1
1
1
1
1
1
1
1
1
1
0.169954
0.862191
0.99613
0.999963
1
1
1
1
1
1
1
1
1
1
1
1
1
1
1
1
1
1
1
1
1
1
1
1
1
1
1
1
1
1
1
1
1
0.169231
0.858238
0.995987
0.999961
1
1
1
1
1
1
1
1
1
1
1
1
1
1
1
1
1
1
1
1
1
1
1
1
1
1
1
1
1
1
1
1
1
1
0.168423
0.855667
0.995808
0.999958
1
1
1
1
1
1
1
1
1
1
1
1
1
1
1
1
1
1
1
1
1
1
1
1
1
1
1
1
1
1
1
1
1
1
1
0.167581
0.855006
0.995649
0.999956
1
1
1
1
1
1
1
1
1
1
1
1
1
1
1
1
1
1
1
1
1
1
1
1
1
1
1
1
1
1
1
1
1
1
1
1
0.166836
0.854771
0.995616
0.999954
1
1
1
1
1
1
1
1
1
1
1
1
1
1
1
1
1
1
1
1
1
1
1
1
1
1
1
1
1
1
1
1
1
1
1
1
1
0.166285
0.853065
0.995589
0.999953
1
1
1
1
1
1
1
1
1
1
1
1
1
1
1
1
1
1
1
1
1
1
1
1
1
1
1
1
1
1
1
1
1
1
1
1
1
1
0.16581
0.851856
0.995468
0.999953
1
1
1
1
1
1
1
1
1
1
1
1
1
1
1
1
1
1
1
1
1
1
1
1
1
1
1
1
1
1
1
1
1
1
1
1
1
1
1
0.165243
0.85017
0.995375
0.999951
1
1
1
1
1
1
1
1
1
1
1
1
1
1
1
1
1
1
1
1
1
1
1
1
1
1
1
1
1
1
1
1
1
1
1
1
1
1
1
1
0.164561
0.84843
0.995254
0.999949
1
1
1
1
1
1
1
1
1
1
1
1
1
1
1
1
1
1
1
1
1
1
1
1
1
1
1
1
1
1
1
1
1
1
1
1
1
1
1
1
1
0.163861
0.847383
0.995093
0.999946
1
1
1
1
1
1
1
1
1
1
1
1
1
1
1
1
1
1
1
1
1
1
1
1
1
1
1
1
1
1
1
1
1
1
1
1
1
1
1
1
1
1
0.16326
0.846936
0.995038
0.999943
1
1
1
1
1
1
1
1
1
1
1
1
1
1
1
1
1
1
1
1
1
1
1
1
1
1
1
1
1
1
1
1
1
1
1
1
1
1
1
1
1
1
1
0.162859
0.845855
0.995023
0.999943
1
1
1
1
1
1
1
1
1
1
1
1
1
1
1
1
1
1
1
1
1
1
1
1
1
1
1
1
1
1
1
1
1
1
1
1
1
1
1
1
1
1
1
1
0.162712
0.845082
0.994947
0.999943
1
1
1
1
1
1
1
1
1
1
1
1
1
1
1
1
1
1
1
1
1
1
1
1
1
1
1
1
1
1
1
1
1
1
1
1
1
1
1
1
1
1
1
1
1
0.162573
0.845014
0.994896
0.999943
1
1
1
1
1
1
1
1
1
1
1
1
1
1
1
1
1
1
1
1
1
1
1
1
1
1
1
1
1
1
1
1
1
1
1
1
1
1
1
1
1
1
1
1
1
1
0.162341
0.844307
0.994906
0.999943
1
1
1
1
1
1
1
1
1
1
1
1
1
1
1
1
1
1
1
1
1
1
1
1
1
1
1
1
1
1
1
1
1
1
1
1
1
1
1
1
1
1
1
1
1
1
0.999495
0.161937
0.843756
0.994899
0.999943
1
1
1
1
1
1
1
1
1
1
1
1
1
1
1
1
1
1
1
1
1
1
1
1
1
1
1
1
1
1
1
1
1
1
1
1
1
1
1
1
1
1
1
1
1
1
1
0.968686
0.161327
0.843394
0.994898
0.999942
1
1
1
1
1
1
1
1
1
1
1
1
1
1
1
1
1
1
1
1
1
1
1
1
1
1
1
1
1
1
1
1
1
1
1
1
1
1
1
1
1
1
1
1
1
1
1
1
0.743537
0.160663
0.843007
0.994853
0.999941
1
1
1
1
1
1
1
1
1
1
1
1
1
1
1
1
1
1
1
1
1
1
1
1
1
1
1
1
1
1
1
1
1
1
1
1
1
1
1
1
1
1
1
1
1
1
1
1
1
0.391335
0.160014
0.841175
0.994803
0.999942
1
1
1
1
1
1
1
1
1
1
1
1
1
1
1
1
1
1
1
1
1
1
1
1
1
1
1
1
1
1
1
1
1
1
1
1
1
1
1
1
1
1
1
1
1
1
1
1
1
0.999977
0.16126
0.159483
0.839679
0.994711
0.999942
1
1
1
1
1
1
1
1
1
1
1
1
1
1
1
1
1
1
1
1
1
1
1
1
1
1
1
1
1
1
1
1
1
1
1
1
1
1
1
1
1
1
1
1
1
1
1
1
1
1
0.975454
0.0586231
0.159136
0.839731
0.994644
0.99994
1
1
1
1
1
1
1
1
1
1
1
1
1
1
1
1
1
1
1
1
1
1
1
1
1
1
1
1
1
1
1
1
1
1
1
1
1
1
1
1
1
1
1
1
1
1
1
1
1
1
1
0.651454
0.0195371
0.159022
0.840421
0.994699
0.999939
1
1
1
1
1
1
1
1
1
1
1
1
1
1
1
1
1
1
1
1
1
1
1
1
1
1
1
1
1
1
1
1
1
1
1
1
1
1
1
1
1
1
1
1
1
1
1
1
1
1
1
1
0.238504
0.00589951
0.15908
0.839326
0.994701
0.99994
1
1
1
1
1
1
1
1
1
1
1
1
1
1
1
1
1
1
1
1
1
1
1
1
1
1
1
1
1
1
1
1
1
1
1
1
1
1
1
1
1
1
1
1
1
1
1
1
1
1
1
1
0.990164
0.0670699
0.00155022
0.159212
0.83905
0.994574
0.99994
1
1
1
1
1
1
1
1
1
1
1
1
1
1
1
1
1
1
1
1
1
1
1
1
1
1
1
1
1
1
1
1
1
1
1
1
1
1
1
1
1
1
1
1
1
1
1
1
1
1
1
1
1
0.655517
0.0160131
0.000322576
0.159335
0.83949
0.994624
0.999939
1
1
1
1
1
1
1
1
1
1
1
1
1
1
1
1
1
1
1
1
1
1
1
1
1
1
1
1
1
1
1
1
1
1
1
1
1
1
1
1
1
1
1
1
1
1
1
1
1
1
1
1
1
0.999722
0.195937
0.00313125
4.12932e-05
0.159342
0.840131
0.994673
0.99994
1
1
1
1
1
1
1
1
1
1
1
1
1
1
1
1
1
1
1
1
1
1
1
1
1
1
1
1
1
1
1
1
1
1
1
1
1
1
1
1
1
1
1
1
1
1
1
1
1
1
1
1
1
1
0.791428
0.0423176
0.000488671
3.82057e-06
0.159238
0.841141
0.994745
0.999941
1
1
1
1
1
1
1
1
1
1
1
1
1
1
1
1
1
1
1
1
1
1
1
1
1
1
1
1
1
1
1
1
1
1
1
1
1
1
1
1
1
1
1
1
1
1
1
1
1
1
1
1
1
1
1
0.213227
0.00634027
6.91548e-05
3.71443e-07
0.159016
0.843707
0.994909
0.999943
1
1
1
1
1
1
1
1
1
1
1
1
1
1
1
1
1
1
1
1
1
1
1
1
1
1
1
1
1
1
1
1
1
1
1
1
1
1
1
1
1
1
1
1
1
1
1
1
1
1
1
1
1
1
1
0.99787
0.0344637
0.000836788
1.05233e-05
7.91877e-08
0.158658
0.843419
0.995097
0.999946
1
1
1
1
1
1
1
1
1
1
1
1
1
1
1
1
1
1
1
1
1
1
1
1
1
1
1
1
1
1
1
1
1
1
1
1
1
1
1
1
1
1
1
1
1
1
1
1
1
1
1
1
1
1
1
1
0.567697
0.00449673
9.56738e-05
1.16058e-06
5.54208e-08
0.158202
0.840617
0.995082
0.999949
1
1
1
1
1
1
1
1
1
1
1
1
1
1
1
1
1
1
1
1
1
1
1
1
1
1
1
1
1
1
1
1
1
1
1
1
1
1
1
1
1
1
1
1
1
1
1
1
1
1
1
1
1
1
1
1
0.997076
0.0926097
0.000381556
1.36476e-05
6.43694e-08
2.8826e-08
0.15768
0.837942
0.994903
0.999949
1
1
1
1
1
1
1
1
1
1
1
1
1
1
1
1
1
1
1
1
1
1
1
1
1
1
1
1
1
1
1
1
1
1
1
1
1
1
1
1
1
1
1
1
1
1
1
1
1
1
1
1
1
1
1
1
1
0.44941
0.012554
2.22433e-05
3.6377e-06
4.01007e-07
7.62047e-08
0.157149
0.837861
0.994686
0.999946
1
1
1
1
1
1
1
1
1
1
1
1
1
1
1
1
1
1
1
1
1
1
1
1
1
1
1
1
1
1
1
1
1
1
1
1
1
1
1
1
1
1
1
1
1
1
1
1
1
1
1
1
1
1
1
1
1
1
0.054241
0.00182965
2.46871e-06
2.73075e-07
6.79174e-08
4.49468e-09
0.156624
0.837871
0.994705
0.999943
1
1
1
1
1
1
1
1
1
1
1
1
1
1
1
1
1
1
1
1
1
1
1
1
1
1
1
1
1
1
1
1
1
1
1
1
1
1
1
1
1
1
1
1
1
1
1
1
1
1
1
1
1
1
1
1
1
1
0.883429
0.00357005
0.000288607
9.57277e-07
1.50519e-07
2.03546e-07
2.17731e-08
0.156138
0.837004
0.994702
0.999943
1
1
1
1
1
1
1
1
1
1
1
1
1
1
1
1
1
1
1
1
1
1
1
1
1
1
1
1
1
1
1
1
1
1
1
1
1
1
1
1
1
1
1
1
1
1
1
1
1
1
1
1
1
1
1
1
1
1
1
0.178131
0.000293691
4.22437e-05
9.73269e-07
3.0661e-07
1.4827e-07
6.05102e-08
0.155709
0.836024
0.994641
0.999943
1
1
1
1
1
1
1
1
1
1
1
1
1
1
1
1
1
1
1
1
1
1
1
1
1
1
1
1
1
1
1
1
1
1
1
1
1
1
1
1
1
1
1
1
1
1
1
1
1
1
1
1
1
1
1
1
1
1
1
0.769027
0.0245374
5.52135e-05
6.77848e-06
2.16897e-07
1.05212e-07
3.37545e-08
5.7299e-09
0.155356
0.835251
0.994475
0.999944
1
1
1
1
1
1
1
1
1
1
1
1
1
1
1
1
1
1
1
1
1
1
1
1
1
1
1
1
1
1
1
1
1
1
1
1
1
1
1
1
1
1
1
1
1
1
1
1
1
1
1
1
1
1
1
1
1
1
1
1
0.0796357
0.00455465
8.52299e-06
5.4697e-07
4.01648e-08
6.51001e-08
3.05565e-07
2.59441e-08
0.155073
0.834513
0.994411
0.999941
1
1
1
1
1
1
1
1
1
1
1
1
1
1
1
1
1
1
1
1
1
1
1
1
1
1
1
1
1
1
1
1
1
1
1
1
1
1
1
1
1
1
1
1
1
1
1
1
1
1
1
1
1
1
1
1
1
1
1
1
0.982314
0.00503964
0.000816721
3.50175e-06
3.58668e-07
2.8209e-07
2.06534e-07
1.54487e-08
3.32659e-09
0.154869
0.835389
0.994444
0.999938
1
1
1
1
1
1
1
1
1
1
1
1
1
1
1
1
1
1
1
1
1
1
1
1
1
1
1
1
1
1
1
1
1
1
1
1
1
1
1
1
1
1
1
1
1
1
1
1
1
0.999999
1
1
1
1
1
1
1
1
1
1
1
0.266878
0.000892722
0.000132729
1.90288e-06
3.76448e-08
1.13753e-08
2.85241e-08
8.99312e-08
6.95346e-09
0.154694
0.833604
0.994502
0.99994
1
1
1
1
1
1
1
1
1
1
1
1
1
1
1
1
1
1
1
1
1
1
1
1
1
1
1
1
1
1
1
1
1
1
1
1
1
1
1
1
1
1
1
1
1
1
1
1
1
1
1
1
1
1
1
1
1
1
1
1
1
0.954176
0.0379374
0.0001082
1.85064e-05
2.04413e-07
7.31766e-08
3.32529e-08
3.20032e-08
2.45593e-08
1.11061e-08
0.154593
0.832016
0.994366
0.999941
1
1
1
1
1
1
1
1
1
1
1
1
1
1
1
1
1
1
1
1
1
1
1
1
1
1
1
1
1
1
1
1
1
1
1
1
1
1
1
1
1
1
1
1
1
1
1
1
1
1
1
1
1
1
1
1
1
1
1
1
1
1
0.14482
0.0069573
1.40639e-05
2.66498e-06
1.04496e-07
7.56117e-08
2.86384e-08
1.55545e-08
1.84697e-08
2.1823e-09
0.154533
0.832803
0.994242
0.999937
1
1
1
1
1
1
1
1
1
1
1
1
1
1
1
1
1
1
1
1
1
1
1
1
1
1
1
1
1
1
1
1
1
1
1
1
1
1
1
1
1
1
1
1
1
1
1
1
1
1
1
1
1
1
1
1
1
1
1
1
1
1
0.994173
0.00889496
0.00129866
6.38262e-06
1.0531e-06
1.2876e-07
4.58729e-08
7.44091e-09
1.11058e-07
4.46911e-08
5.42253e-09
0.154515
0.832873
0.994306
0.999935
1
1
1
1
1
1
1
1
1
1
1
1
1
1
1
1
1
1
1
1
1
1
1
1
1
1
1
1
1
1
1
1
1
1
1
1
1
1
1
1
1
1
1
1
1
1
1
1
1
1
1
1
1
1
1
1
1
1
1
1
1
1
1
0.339965
0.000866978
0.000192918
9.83231e-07
6.217e-08
1.11802e-07
4.6876e-09
1.14659e-07
3.17017e-08
2.23486e-08
1.45131e-08
0.154528
0.83306
0.994304
0.999937
1
1
1
1
1
1
1
1
1
1
1
1
1
1
1
1
1
1
1
1
1
1
1
1
1
1
1
1
1
1
1
1
1
1
1
1
1
1
1
1
1
1
1
1
1
1
1
1
1
1
1
1
1
1
1
1
1
1
1
1
1
1
1
0.99128
0.04575
0.000126391
4.18854e-05
5.12427e-07
1.58737e-07
3.19523e-09
1.06884e-07
2.35873e-08
8.24727e-08
1.70711e-08
3.29647e-09
0.154561
0.833117
0.994321
0.999937
1
1
1
1
1
1
1
1
1
1
1
1
1
1
1
1
1
1
1
1
1
1
1
1
1
1
1
1
1
1
1
1
1
1
1
1
1
1
1
1
1
1
1
1
1
1
1
1
1
1
1
1
1
1
1
1
1
1
1
1
1
1
1
1
0.265642
0.0059241
8.33994e-05
8.87004e-06
1.87763e-07
1.28191e-08
1.96519e-08
8.39716e-08
4.13956e-08
1.22131e-08
8.19422e-08
2.762e-08
0.154607
0.833022
0.994319
0.999937
1
1
1
1
1
1
1
1
1
1
1
1
1
1
1
1
1
1
1
1
1
1
1
1
1
1
1
1
1
1
1
1
1
1
1
1
1
1
1
1
1
1
1
1
1
1
1
1
1
1
1
1
1
1
1
1
1
1
1
1
1
1
1
1
0.973943
0.0227005
0.000843361
3.41343e-05
2.46171e-06
3.20356e-07
7.90326e-08
3.79641e-08
3.41873e-08
2.09453e-08
3.97956e-08
1.15365e-08
3.25492e-09
0.154671
0.832973
0.994314
0.999937
1
1
1
1
1
1
1
1
1
1
1
1
1
1
1
1
1
1
1
1
1
1
1
1
1
1
1
1
1
1
1
1
1
1
1
1
1
1
1
1
1
1
1
1
1
1
1
1
1
1
1
1
1
1
1
1
1
1
1
1
1
1
1
1
1
0.146653
0.00241306
0.000320738
1.24271e-05
7.22943e-07
8.37923e-08
7.77956e-08
1.01533e-07
4.10289e-08
8.9111e-09
2.70264e-08
4.71749e-08
7.18346e-09
0.154707
0.833227
0.994315
0.999937
1
1
1
1
1
1
1
1
1
1
1
1
1
1
1
1
1
1
1
1
1
1
1
1
1
1
1
1
1
1
1
1
1
1
1
1
1
1
1
1
1
1
1
1
1
1
1
1
1
1
1
1
1
1
1
1
1
1
1
1
1
1
1
1
1
0.950171
0.00501939
0.00012917
0.000104717
4.2401e-06
2.84032e-07
9.07621e-08
5.96819e-09
3.73153e-08
1.83871e-08
1.16556e-08
2.38679e-08
3.42643e-10
1.50277e-09
0.154741
0.83327
0.994334
0.999937
1
1
1
1
1
1
1
1
1
1
1
1
1
1
1
1
1
1
1
1
1
1
1
1
1
1
1
1
1
1
1
1
1
1
1
1
1
1
1
1
1
1
1
1
1
1
1
1
1
1
1
1
1
1
1
1
1
1
1
1
1
1
1
1
1
1
0.132713
0.00147202
4.18392e-05
2.81325e-05
1.01537e-06
1.39845e-07
2.86634e-08
6.85182e-08
5.05178e-08
1.27601e-08
2.13475e-08
6.01433e-09
9.5316e-09
5.64719e-09
0.154785
0.833313
0.994333
0.999937
1
1
1
1
1
1
1
1
1
1
1
1
1
1
1
1
1
1
1
1
1
1
1
1
1
1
1
1
1
1
1
1
1
1
1
1
1
1
1
1
1
1
1
1
1
1
1
1
1
1
1
1
0.999997
1
1
1
1
1
1
1
1
1
1
1
1
1
0.842621
0.00647727
0.000507001
2.3124e-05
6.38443e-06
2.99715e-07
4.02393e-08
6.79014e-08
4.0462e-08
1.71717e-08
2.27954e-08
5.31823e-09
8.57635e-09
6.57947e-09
5.21542e-09
0.154834
0.833373
0.994336
0.999937
1
1
1
1
1
1
1
1
1
1
1
1
1
1
1
1
1
1
1
1
1
1
1
1
1
1
1
1
1
1
1
1
1
1
1
1
1
1
1
1
1
1
1
1
1
1
1
1
1
1
1
1
1
1
1
1
1
1
1
1
1
1
1
1
1
1
1
0.0712067
5.93591e-05
0.000104852
6.71977e-06
1.43786e-06
2.8595e-07
7.19899e-08
1.52462e-08
1.38218e-08
3.97009e-08
2.64445e-09
2.74078e-08
9.40295e-09
3.92864e-09
1.00436e-08
0.154709
0.833439
0.994335
0.999937
1
1
1
1
1
1
1
1
1
1
1
1
1
1
1
1
1
1
1
1
1
1
1
1
1
1
1
1
1
1
1
1
1
1
1
1
1
1
1
1
1
1
1
1
1
1
1
1
1
1
1
1
1
1
1
1
1
1
1
1
1
1
1
1
1
1
1
0.602231
0.00243342
0.000167536
1.17787e-05
1.57654e-06
4.06816e-07
2.72474e-08
2.0391e-08
2.99259e-08
4.15015e-08
3.10347e-09
1.00909e-08
1.39865e-08
7.30726e-09
1.69235e-08
1.16504e-08
0.146544
0.833391
0.994347
0.999937
1
1
1
1
1
1
1
1
1
1
1
1
1
1
1
1
1
1
1
1
1
1
1
1
1
1
1
1
1
1
1
1
1
1
1
1
1
1
1
1
1
1
1
1
1
1
1
1
1
1
1
0.99946
1
1
1
1
1
1
1
1
1
1
1
1
1
1
1
0.999957
0.0364225
0.000130988
2.72507e-05
1.78304e-06
6.46718e-07
4.61605e-09
4.13971e-08
2.38741e-08
4.21886e-08
2.62225e-08
5.52612e-08
3.95795e-08
2.72895e-08
1.56433e-08
1.48802e-08
5.25434e-08
0.0633438
0.816089
0.994333
0.999937
1
1
1
1
1
1
1
1
1
1
1
1
1
1
1
1
1
1
1
1
1
1
1
1
1
1
1
1
1
1
1
1
1
1
1
1
1
1
1
1
1
1
1
1
1
1
1
1
1
1
1
1
1
1
1
1
1
1
1
1
1
1
1
1
1
1
1
1
0.290705
0.00208374
8.38841e-05
5.15635e-06
4.50413e-07
7.8886e-08
8.82741e-09
5.19354e-08
3.06713e-08
1.27677e-08
2.39798e-09
1.18104e-07
5.70116e-08
1.25692e-08
4.41882e-08
5.2004e-08
1.7866e-08
0.115987
0.516896
0.992984
0.999937
1
1
1
1
1
1
1
1
1
1
1
1
1
1
1
1
1
1
1
1
1
1
1
1
1
1
1
1
1
1
1
1
1
1
1
1
1
1
1
1
1
1
1
1
1
1
1
1
1
1
1
1
0.999999
1
1
1
1
1
1
1
1
1
1
1
1
1
1
1
0.983696
0.0122835
0.000161966
1.58171e-05
2.09101e-06
1.1378e-07
3.53899e-08
5.66713e-08
1.77423e-08
6.9785e-09
8.31624e-08
3.76027e-08
4.51601e-08
7.34595e-08
6.09899e-08
4.17791e-08
8.8499e-09
3.45515e-08
0.188441
0.618772
0.92152
0.999916
1
1
1
1
1
1
1
1
1
1
1
1
1
1
1
1
1
1
1
1
1
1
1
1
1
1
1
1
1
1
1
1
1
1
1
1
1
1
1
1
1
1
1
1
1
1
1
1
1
1
1
1
1
1
1
1
1
1
1
1
1
1
1
1
1
1
1
1
1
0.105233
0.000589164
1.78452e-05
5.0257e-06
5.58427e-07
3.80246e-08
7.55097e-09
1.8422e-08
1.32843e-08
2.01184e-08
3.25868e-08
1.02881e-07
2.67277e-07
7.17191e-08
1.04428e-08
2.79923e-08
3.05062e-08
4.75945e-09
0.20074
0.853612
0.869802
0.996502
1
1
1
1
1
1
1
1
1
1
1
1
1
1
1
1
1
1
1
1
1
1
1
1
1
1
1
1
1
1
1
1
1
1
1
1
1
1
1
1
1
1
1
1
1
1
1
1
1
1
1
1
1
1
1
1
1
1
1
1
1
1
1
1
1
1
1
1
1
0.725316
0.0035987
6.55918e-05
4.31793e-06
1.48401e-06
1.00322e-07
3.54632e-08
9.1401e-09
2.42854e-08
2.96284e-08
5.10869e-08
1.04229e-07
2.45627e-08
7.10873e-08
3.54191e-08
3.49741e-08
2.86723e-08
4.71125e-09
1.02028e-08
0.208933
0.879163
0.989888
0.917186
0.999948
1
1
1
1
1
1
1
1
1
1
1
1
1
1
1
1
1
1
1
1
1
1
1
1
1
1
1
1
1
1
1
1
1
1
1
1
1
1
1
1
1
1
1
1
1
1
1
1
1
1
1
1
1
1
1
1
1
1
1
1
1
1
1
1
1
1
1
1
0.999997
0.0306438
0.000196962
1.20951e-05
9.46178e-07
3.62176e-07
9.91574e-08
1.24129e-09
2.56111e-08
8.2444e-10
1.66502e-08
5.9266e-08
5.57884e-08
1.44405e-07
1.55821e-07
2.59372e-08
3.28482e-08
3.39889e-09
6.72987e-09
1.38606e-08
0.215185
0.890775
0.99423
0.999099
0.831691
1
1
1
1
1
1
1
1
1
1
1
1
1
1
1
1
1
1
1
1
1
1
1
1
1
1
1
1
1
1
1
1
1
1
1
1
1
1
1
1
1
1
1
1
1
1
1
1
1
1
1
1
1
1
1
1
1
1
1
1
1
1
1
1
1
1
1
1
1
0.260173
0.000992265
1.98831e-05
3.75419e-06
3.07151e-07
2.09286e-07
9.4447e-08
3.47315e-08
3.84285e-08
2.52555e-08
2.8744e-08
7.15629e-08
4.32697e-08
1.92738e-08
2.27541e-08
8.30746e-09
6.25626e-09
1.19179e-08
5.9284e-09
9.3548e-09
0.223237
0.899022
0.995543
0.999707
0.999772
0.402704
1
1
1
1
1
1
1
1
1
1
1
1
1
1
1
1
1
1
1
1
1
1
1
1
1
1
1
1
1
1
1
1
1
1
1
1
1
1
1
1
1
1
1
1
1
1
1
1
1
1
1
1
1
1
1
1
1
1
1
1
1
1
1
1
1
1
1
1
0.97604
0.00674649
7.37036e-05
2.8629e-06
9.38345e-07
1.78648e-07
3.61542e-08
1.53216e-08
1.23481e-08
2.36931e-08
4.10395e-08
6.37859e-08
1.30712e-07
5.05236e-09
4.62446e-08
2.43073e-08
2.37024e-08
1.93081e-08
3.23736e-08
2.85432e-08
8.25391e-09
0.230944
0.908166
0.996302
0.999814
0.999964
0.999714
0.952078
1
1
1
1
1
1
1
1
1
1
1
1
1
1
1
1
1
1
1
1
1
1
1
1
1
1
1
1
1
1
1
1
1
1
1
1
1
1
1
1
1
1
1
1
1
1
1
1
1
1
0.999978
1
1
1
1
1
1
1
1
1
1
1
1
1
1
1
1
1
0.0595858
0.000334406
3.3761e-06
3.93384e-07
3.08231e-08
6.70332e-08
8.62141e-08
2.03813e-07
6.87097e-08
3.59592e-08
3.64099e-08
7.31728e-08
4.05359e-08
4.73003e-08
2.2668e-08
1.18044e-08
4.08829e-09
1.64149e-08
1.52542e-08
1.22474e-08
3.75458e-09
0.238391
0.91616
0.99697
0.999865
0.999981
0.999979
0.996597
0.999028
1
1
1
1
1
1
1
1
1
1
1
1
1
1
1
1
1
1
1
1
1
1
1
1
1
1
1
1
1
1
1
1
1
1
1
1
1
1
1
1
1
1
1
1
1
1
1
1
1
1
1
1
1
1
1
1
1
1
1
1
1
1
1
1
1
1
1
0.518206
0.00111855
4.61629e-05
4.07655e-07
1.7445e-07
1.329e-07
1.40465e-07
1.37034e-07
8.40624e-08
1.99712e-08
6.70414e-08
5.3839e-08
4.27351e-08
3.48369e-08
1.23517e-08
1.92556e-08
1.73778e-08
4.04758e-08
2.78403e-08
4.69276e-08
2.35345e-08
8.47416e-09
0.246476
0.923381
0.99749
0.9999
0.999988
0.999991
0.999936
0.976245
0.999966
1
1
1
1
1
1
1
1
1
1
1
1
1
1
1
1
1
1
1
1
1
1
1
1
1
1
1
1
1
1
1
1
1
1
1
1
1
1
1
1
1
1
1
1
1
1
1
1
1
1
1
1
1
1
1
1
1
1
1
1
1
1
1
1
1
1
0.999639
0.00906903
0.000148422
3.45848e-06
3.93828e-07
8.46072e-08
6.9147e-08
1.0769e-07
5.54302e-08
6.34895e-08
7.76305e-08
1.17993e-08
7.64794e-08
2.83444e-08
3.09733e-08
1.02739e-08
8.14977e-09
3.28702e-08
1.47081e-08
1.85222e-08
1.54114e-08
6.70363e-09
4.22463e-08
0.254949
0.930345
0.997922
0.999924
0.999992
0.999995
0.999978
0.999416
0.725891
0.999997
1
1
1
1
1
1
1
1
1
1
1
1
1
1
1
1
1
1
1
1
1
1
1
1
1
1
1
1
1
1
1
1
1
1
1
1
1
1
1
1
1
1
1
1
1
1
1
1
1
1
1
1
1
1
1
1
1
1
1
1
1
1
1
1
1
1
0.0996797
1.43764e-05
3.29232e-05
1.72136e-07
2.64268e-07
4.49698e-08
1.8666e-08
5.36543e-08
2.1061e-07
2.78857e-08
2.41135e-08
5.57835e-08
9.06662e-09
3.07577e-08
8.80282e-09
1.43364e-08
3.08706e-08
1.48786e-09
4.01387e-08
2.75272e-08
4.72682e-09
1.55287e-08
2.17731e-08
0.263558
0.937052
0.998288
0.999942
0.999994
0.999997
0.999989
0.999827
0.993165
0.25955
1
1
1
1
1
1
1
1
1
1
1
1
1
1
1
1
1
1
1
1
1
1
1
1
1
1
1
1
1
1
1
1
1
1
1
1
1
1
1
1
1
1
1
1
1
1
1
1
1
1
1
1
1
1
1
1
1
1
1
1
1
1
1
1
1
1
0.728196
0.000761838
2.51087e-05
3.72591e-06
5.91974e-07
2.47929e-08
4.45803e-08
1.3892e-08
8.25258e-08
2.9887e-08
1.14382e-08
1.9031e-08
2.25888e-08
1.82024e-08
5.41489e-09
1.01335e-08
1.90168e-08
1.78849e-08
2.97178e-08
1.21219e-08
9.27086e-09
4.3312e-08
1.72518e-08
0.272327
0.943353
0.9986
0.999956
0.999996
0.999998
0.999993
0.999922
0.998192
0.944088
0.71266
1
1
1
1
1
1
1
1
1
1
1
1
1
1
1
1
1
1
1
1
1
1
1
1
1
1
1
1
1
1
1
1
1
1
1
1
1
1
1
1
1
1
1
1
1
1
1
1
1
1
1
1
1
1
1
1
1
1
1
1
1
1
1
1
1
0.999996
0.0129862
2.35019e-05
1.59922e-05
1.35378e-07
7.59913e-08
1.21134e-07
5.26089e-08
1.10354e-07
3.09012e-08
4.40847e-08
4.78711e-08
7.92336e-08
3.65095e-08
1.509e-08
8.67092e-09
5.37244e-09
2.70884e-08
3.16305e-08
1.07864e-08
1.85817e-08
5.40774e-09
4.18146e-08
0.280997
0.949069
0.998866
0.999966
0.999997
0.999998
0.999995
0.999953
0.999219
0.985311
0.749102
0.882499
1
1
1
1
1
1
1
1
1
1
1
1
1
1
1
1
1
1
1
1
1
1
1
1
1
1
1
1
1
1
1
1
1
1
1
1
1
1
1
1
1
1
1
1
1
1
1
1
1
1
1
1
1
1
1
1
1
1
1
1
1
1
1
1
1
0.14022
0.000650242
5.33217e-06
1.98599e-06
2.47796e-07
7.75938e-08
5.87263e-09
7.34716e-09
2.63403e-08
2.68086e-08
2.59618e-08
6.47114e-09
7.16558e-08
1.86872e-08
1.28322e-08
7.66723e-09
4.44667e-08
2.5412e-08
3.47249e-08
1.54819e-08
1.23376e-08
1.4886e-09
0.289425
0.954078
0.999083
0.999975
0.999998
0.999999
0.999996
0.999966
0.99954
0.993577
0.925884
0.383543
0.942469
1
1
1
1
1
1
1
1
1
1
1
1
1
1
1
1
1
1
1
1
1
1
1
1
1
1
1
1
1
1
1
1
1
1
1
1
1
1
1
1
1
1
1
1
1
1
1
1
1
1
1
1
1
1
1
1
1
1
1
1
1
1
1
1
0.812036
0.000317031
4.97917e-05
6.58269e-06
1.77635e-08
1.90439e-08
1.11239e-08
1.01518e-07
6.94872e-08
4.95428e-08
3.71695e-08
3.95892e-08
1.22538e-07
6.14012e-08
1.73534e-08
7.68957e-09
4.61997e-08
2.29193e-08
4.53411e-08
1.41642e-08
1.06956e-08
1.78153e-08
0.297508
0.958629
0.999255
0.999981
0.999998
0.999999
0.999997
0.999975
0.999669
0.996206
0.965466
0.770785
0.109213
0.969239
1
1
1
1
1
1
1
1
1
1
1
1
1
1
1
1
1
1
1
1
1
1
1
1
1
1
1
1
1
1
1
1
1
1
1
1
1
1
1
1
1
1
1
1
1
1
1
1
1
1
1
1
1
1
1
1
1
1
1
1
1
1
1
0.999998
0.0145836
0.000263893
5.44464e-06
6.15072e-07
9.99626e-08
8.44965e-09
3.12256e-08
3.78597e-08
2.08965e-08
3.37354e-08
3.10567e-08
9.19457e-08
1.67749e-08
5.12551e-08
1.94394e-08
5.50264e-08
1.53593e-08
4.12964e-08
1.63268e-08
1.44142e-08
4.8397e-09
0.305162
0.96272
0.999394
0.999986
0.999999
0.999999
0.999998
0.99998
0.999755
0.99728
0.978892
0.881323
0.527117
0.319855
0.983434
1
1
1
1
1
1
1
1
1
1
1
1
1
1
1
1
1
1
1
1
1
1
1
1
1
1
1
1
1
1
1
1
1
1
1
1
1
1
1
1
1
1
1
1
1
1
1
1
1
1
1
1
1
1
1
1
1
1
1
1
1
1
1
0.135068
0.00119021
1.64478e-05
2.68686e-06
8.16422e-08
8.95241e-09
9.7664e-08
3.85548e-08
9.31189e-08
2.0638e-07
8.06336e-08
1.02681e-07
2.50024e-08
3.85846e-08
1.84614e-08
5.20769e-08
2.42452e-08
3.47564e-08
3.47032e-08
3.90539e-08
1.27629e-08
0.312457
0.966202
0.999505
0.999989
0.999999
0.999999
0.999998
0.999984
0.999809
0.997973
0.984673
0.923315
0.722723
0.266445
0.501859
0.99164
1
1
1
1
1
1
1
1
1
1
1
1
1
1
1
1
1
1
1
1
1
1
1
1
1
1
1
1
1
1
1
1
1
1
1
1
1
1
1
1
1
1
1
1
1
1
1
1
1
1
1
1
1
1
1
1
1
1
1
1
1
1
0.766528
0.00034869
0.000146919
3.82405e-06
3.46013e-07
3.68218e-08
9.50929e-08
3.93073e-08
9.87886e-08
1.61306e-07
5.41044e-08
8.21447e-08
2.15177e-08
3.30443e-08
1.0453e-08
2.52371e-08
4.10106e-08
3.3482e-08
5.23694e-08
4.30734e-08
1.25893e-08
0.319433
0.969276
0.999594
0.999992
0.999999
1
0.999999
0.999987
0.999843
0.998414
0.988426
0.942834
0.808189
0.516438
0.0676671
0.628045
0.996246
1
1
1
1
1
1
1
1
1
1
1
1
1
1
1
1
1
1
1
1
1
1
1
1
1
1
1
1
1
1
1
1
1
1
1
1
1
1
1
1
1
1
1
1
1
1
1
1
1
1
1
1
1
1
1
1
1
1
1
1
1
0.999991
0.0119601
0.000440267
7.02182e-06
9.84878e-07
2.84581e-08
3.73059e-08
4.47122e-08
1.25206e-07
1.23659e-07
4.5612e-08
2.05362e-07
2.23513e-08
4.04125e-08
8.64792e-09
1.90518e-08
4.88783e-08
3.22186e-08
6.28272e-08
3.36612e-08
1.29495e-08
0.326105
0.972008
0.999665
0.999994
0.999999
1
0.999999
0.999989
0.999869
0.998683
0.990825
0.955724
0.851553
0.641251
0.308521
0.160975
0.720343
0.998588
1
1
1
1
1
1
1
1
1
1
1
1
1
1
1
1
1
1
1
1
1
1
1
1
1
1
1
1
1
1
1
1
1
1
1
1
1
1
1
1
1
1
1
1
1
1
1
1
1
1
1
1
1
1
1
1
1
1
1
1
1
0.107418
0.00133913
2.91966e-05
1.34649e-06
6.60479e-08
9.14715e-09
3.13927e-08
1.19837e-07
1.03734e-07
3.90757e-08
1.54865e-07
6.83486e-09
1.86791e-08
6.64025e-09
5.21108e-09
3.94915e-08
1.69161e-08
7.66473e-08
2.66956e-08
2.40529e-08
0.332553
0.974446
0.999723
0.999995
1
1
0.999999
0.999991
0.999889
0.998892
0.992306
0.964182
0.881244
0.71097
0.455358
0.130899
0.295802
0.792108
0.999586
1
1
1
1
1
1
1
1
1
1
1
1
1
1
1
1
1
1
1
1
1
1
1
1
1
1
1
1
1
1
1
1
1
1
1
1
1
1
1
1
1
1
1
1
1
1
1
1
1
1
1
1
1
1
1
1
1
1
1
1
0.609627
0.000344066
0.000189269
1.8192e-06
2.25446e-07
3.36622e-08
2.77288e-08
4.2728e-08
3.0901e-08
3.66379e-08
1.28564e-07
1.6165e-08
6.44342e-08
6.79528e-09
1.74248e-08
1.93919e-08
1.08818e-08
8.04925e-08
1.81741e-08
2.6082e-08
0.338859
0.976573
0.999771
0.999996
1
1
0.999999
0.999992
0.999906
0.999054
0.993463
0.969562
0.901356
0.76039
0.544063
0.280616
0.0616057
0.406636
0.850134
0.999911
1
1
1
1
1
1
1
1
1
1
1
1
1
1
1
1
1
1
1
1
1
1
1
1
1
1
1
1
1
1
1
1
1
1
1
1
1
1
1
1
1
1
1
1
1
1
1
1
1
1
1
1
1
1
1
1
1
1
1
0.998738
0.00792732
0.000603088
8.02275e-06
6.46287e-07
8.45021e-09
5.92246e-08
3.4561e-08
3.99156e-08
2.59893e-08
7.90969e-08
2.13211e-08
3.24861e-08
2.66564e-09
1.36013e-08
4.50588e-08
4.44445e-09
8.98574e-08
8.73894e-09
2.69096e-08
0.345243
0.978589
0.99981
0.999997
1
1
0.999999
0.999994
0.999921
0.999187
0.994355
0.973744
0.914675
0.795253
0.609204
0.378223
0.132622
0.164686
0.499633
0.897372
0.999987
1
1
1
1
1
1
1
1
1
1
1
1
1
1
1
1
1
1
1
1
1
1
1
1
1
1
1
1
1
1
1
1
1
1
1
1
1
1
1
1
1
1
1
1
1
1
1
1
1
1
1
1
1
1
1
1
1
1
1
0.0580711
0.00106688
5.58587e-05
2.00921e-06
8.47258e-08
2.05483e-08
2.74285e-08
2.063e-08
2.45109e-08
5.33432e-08
2.18639e-08
5.48957e-08
5.72154e-09
4.38788e-08
5.30101e-08
9.20683e-09
9.19443e-08
1.10931e-08
3.29381e-08
0.351781
0.980469
0.999843
0.999998
1
1
1
0.999995
0.999935
0.999307
0.995088
0.976997
0.925123
0.819336
0.657107
0.45194
0.229921
0.048995
0.264547
0.581274
0.935095
0.999999
1
1
1
1
1
1
1
1
1
1
1
1
1
1
1
1
1
1
1
1
1
1
1
1
1
1
1
1
1
1
1
1
1
1
1
1
1
1
1
1
1
1
1
1
1
1
1
1
1
1
1
1
1
1
1
1
1
1
0.325826
0.00010378
0.00020845
2.0127e-06
2.10225e-07
2.67101e-08
3.62572e-08
3.04664e-08
3.37767e-08
4.33568e-08
8.1765e-09
1.6267e-08
9.3479e-09
2.35336e-08
3.17663e-08
1.86819e-08
9.07073e-08
8.36201e-09
3.08286e-08
0.358677
0.982246
0.999871
0.999998
1
1
1
0.999996
0.999948
0.999421
0.995752
0.979736
0.933406
0.83851
0.691339
0.507722
0.306044
0.106473
0.122604
0.352214
0.655595
0.963099
1
1
1
1
1
1
1
1
1
1
1
1
1
1
1
1
1
1
1
1
1
1
1
1
1
1
1
1
1
1
1
1
1
1
1
1
1
1
1
1
1
1
1
1
1
1
1
1
1
1
1
1
1
1
1
1
1
1
0.935898
0.0042108
0.000489751
1.10115e-05
1.20882e-06
4.62837e-08
4.38495e-08
3.04178e-08
3.37938e-08
2.02524e-08
1.25858e-08
7.94611e-09
1.44762e-08
3.44848e-08
2.04846e-08
5.39346e-08
7.14609e-08
3.34837e-08
3.02533e-08
0.365981
0.983991
0.999894
0.999999
1
1
1
0.999997
0.999959
0.999527
0.996379
0.982178
0.94038
0.853945
0.719046
0.548934
0.364738
0.179331
0.0481565
0.210052
0.431172
0.724257
0.981969
1
1
1
1
1
1
1
1
1
1
1
1
1
1
1
1
1
1
1
1
1
1
1
1
1
1
1
1
1
1
1
1
1
1
1
1
1
1
1
1
1
1
1
1
1
1
1
1
1
1
1
1
1
1
1
1
1
1
0.0262414
0.000624398
6.33319e-05
1.38612e-06
1.31075e-07
2.74327e-08
2.87656e-08
2.31259e-08
1.05971e-08
1.38024e-08
3.85938e-08
5.23641e-08
3.29162e-08
1.18557e-08
4.55982e-08
7.22989e-08
1.80339e-08
3.02644e-08
0.373777
0.985574
0.999915
0.999999
1
1
1
0.999998
0.999969
0.999623
0.99697
0.9845
0.946668
0.867007
0.741715
0.582912
0.409457
0.237579
0.0784095
0.116589
0.289381
0.504385
0.788214
0.992829
1
1
1
1
1
1
1
1
1
1
1
1
1
1
1
1
1
1
1
1
1
1
1
1
1
1
1
1
1
1
1
1
1
1
1
1
1
1
1
1
1
1
1
1
1
1
1
1
1
1
1
1
1
1
1
1
1
0.131279
0.000113816
0.000151996
2.45252e-06
1.71904e-07
5.39091e-08
8.07331e-08
2.46544e-08
4.35988e-08
1.73687e-08
1.59007e-08
2.56511e-08
3.1122e-08
1.35038e-08
3.33631e-08
1.31497e-08
2.86857e-08
2.67979e-08
0.382102
0.987092
0.999932
0.999999
1
1
1
0.999999
0.999977
0.999706
0.99752
0.986714
0.952658
0.878991
0.761217
0.610978
0.446523
0.282834
0.130546
0.0601259
0.194458
0.362194
0.574263
0.846489
0.997856
1
1
1
1
1
1
1
1
1
1
1
1
1
1
1
1
1
1
1
1
1
1
1
1
1
1
1
1
1
1
1
1
1
1
1
1
1
1
1
1
1
1
1
1
1
1
1
1
1
1
1
1
1
1
1
1
0.520734
0.0019419
0.000280585
1.0935e-05
4.00994e-07
3.47958e-08
2.76824e-08
1.10584e-08
6.20488e-08
2.13291e-08
2.05392e-08
3.9394e-08
2.65099e-08
2.91772e-08
2.64196e-08
2.4683e-08
4.56555e-08
2.00717e-08
0.391006
0.988548
0.999946
1
1
1
1
0.999999
0.999984
0.999778
0.99801
0.988798
0.958407
0.8904
0.779087
0.635488
0.477681
0.320764
0.173553
0.0576213
0.127808
0.266659
0.430889
0.642322
0.897267
0.999571
1
1
1
1
1
1
1
1
1
1
1
1
1
1
1
1
1
1
1
1
1
1
1
1
1
1
1
1
1
1
1
1
1
1
1
1
1
1
1
1
1
1
1
1
1
1
1
1
1
1
1
1
1
1
1
0.978035
0.00960287
0.000301745
4.19016e-05
7.26366e-08
1.26765e-08
7.68096e-08
4.3478e-09
8.7299e-08
1.56302e-08
7.99638e-09
2.51024e-08
3.22035e-08
6.02799e-08
2.86166e-08
1.09475e-08
1.50187e-08
2.64581e-08
0.400521
0.989897
0.999957
1
1
1
1
0.999999
0.999989
0.999837
0.998447
0.990738
0.963912
0.901429
0.796113
0.657783
0.504985
0.352917
0.210592
0.0865224
0.0825029
0.19851
0.333902
0.497243
0.708834
0.93846
0.999952
1
1
1
1
1
1
1
1
1
1
1
1
1
1
1
1
1
1
1
1
1
1
1
1
1
1
1
1
1
1
1
1
1
1
1
1
1
1
1
1
1
1
1
1
1
1
1
1
1
1
1
1
1
1
1
0.0358986
5.715e-05
8.71086e-05
1.9459e-06
1.33248e-07
3.35776e-08
4.33544e-09
7.69294e-08
8.95989e-09
1.22549e-08
1.7277e-08
2.21572e-08
3.49174e-08
2.17146e-08
4.25853e-09
2.01512e-08
2.71304e-08
0.410605
0.991143
0.999967
1
1
1
1
1
0.999992
0.999883
0.998818
0.992509
0.969223
0.912258
0.812876
0.679316
0.529793
0.380836
0.241915
0.118863
0.0592611
0.148118
0.265066
0.398211
0.562938
0.773125
0.968346
0.999998
1
1
1
1
1
1
1
1
1
1
1
1
1
1
1
1
1
1
1
1
1
1
1
1
1
1
1
1
1
1
1
1
1
1
1
1
1
1
1
1
1
1
1
1
1
1
1
1
1
1
1
1
1
1
0.126417
0.00072324
0.000135792
7.45037e-06
1.73665e-07
3.29045e-08
3.85586e-08
8.85169e-08
6.84798e-09
1.11331e-08
1.7699e-08
3.33381e-09
3.04384e-08
9.70342e-09
1.47047e-08
1.24731e-08
1.48688e-08
0.421211
0.99228
0.999974
1
1
1
1
1
0.999995
0.999918
0.999121
0.994073
0.974236
0.922907
0.829541
0.700313
0.553416
0.406367
0.269335
0.147691
0.0616316
0.110795
0.213385
0.3282
0.461337
0.628481
0.833588
0.98686
1
1
1
1
1
1
1
1
1
1
1
1
1
1
1
1
1
1
1
1
1
1
1
1
1
1
1
1
1
1
1
1
1
1
1
1
1
1
1
1
1
1
1
1
1
1
1
1
1
1
1
1
1
1
0.42672
0.00296567
0.000137601
2.16921e-05
2.74879e-07
5.48437e-08
3.15491e-08
1.45297e-07
4.12964e-08
7.94318e-09
1.17099e-08
2.11671e-08
2.92008e-08
2.5344e-09
1.24208e-08
1.26101e-08
5.03303e-09
0.432342
0.993307
0.99998
1
1
1
1
1
0.999996
0.999943
0.999359
0.995416
0.978816
0.933339
0.846167
0.721384
0.57661
0.430415
0.294345
0.173496
0.0776028
0.0852362
0.173675
0.275612
0.389553
0.524354
0.693881
0.88769
0.995975
1
1
1
1
1
1
1
1
1
1
1
1
1
1
1
1
1
1
1
1
1
1
1
1
1
1
1
1
1
1
1
1
1
1
1
1
1
1
1
1
1
1
1
1
1
1
1
1
1
1
1
1
1
0.926768
0.00881067
1.45225e-05
4.07621e-05
1.06759e-06
4.7221e-08
3.03576e-08
1.34835e-07
3.6971e-08
1.29307e-08
4.80525e-09
3.12305e-08
2.25059e-08
4.73693e-09
3.06057e-08
2.49983e-08
9.78248e-09
0.443989
0.994223
0.999985
1
1
1
1
1
0.999998
0.99996
0.999536
0.996511
0.982929
0.943228
0.862973
0.742949
0.600125
0.454045
0.317843
0.196822
0.097088
0.0700548
0.143089
0.2347
0.335621
0.450294
0.587981
0.758488
0.932397
0.999207
1
1
1
1
1
1
1