/*--------------------------------*- C++ -*----------------------------------*\
| =========                 |                                                 |
| \\      /  F ield         | OpenFOAM: The Open Source CFD Toolbox           |
|  \\    /   O peration     | Version:  v2012                                 |
|   \\  /    A nd           | Website:  www.openfoam.com                      |
|    \\/     M anipulation  |                                                 |
\*---------------------------------------------------------------------------*/
FoamFile
{
    version     2.0;
    format      ascii;
    class       volScalarField;
    location    "0";
    object      Rew;
}
// * * * * * * * * * * * * * * * * * * * * * * * * * * * * * * * * * * * * * //

dimensions      [0 0 0 0 0 0 0];


internalField   nonuniform List<scalar> 
39402
(
0.707536
0.38036
0.999985
0.207823
0.994333
1
0.187739
0.923791
0.999997
1
0.191076
0.896384
0.999228
1
1
0.196394
0.897927
0.998316
0.999998
1
1
0.200657
0.902857
0.998311
0.999993
1
1
1
0.202682
0.907207
0.99844
0.999992
1
1
1
1
0.204167
0.908908
0.998563
0.999992
1
1
1
1
1
0.204742
0.910796
0.998604
0.999993
1
1
1
1
1
1
0.204091
0.911144
0.99865
0.999993
1
1
1
1
1
1
1
0.202791
0.910264
0.998652
0.999993
1
1
1
1
1
1
1
1
0.201558
0.90859
0.998611
0.999993
1
1
1
1
1
1
1
1
1
0.200047
0.907979
0.998554
0.999993
1
1
1
1
1
1
1
1
1
1
0.198386
0.906958
0.998532
0.999992
1
1
1
1
1
1
1
1
1
1
1
0.196852
0.904935
0.998475
0.999992
1
1
1
1
1
1
1
1
1
1
1
1
0.195294
0.903021
0.99839
0.999991
1
1
1
1
1
1
1
1
1
1
1
1
1
0.193542
0.901113
0.998306
0.999991
1
1
1
1
1
1
1
1
1
1
1
1
1
1
0.191765
0.898839
0.998221
0.99999
1
1
1
1
1
1
1
1
1
1
1
1
1
1
1
0.190191
0.895393
0.998114
0.999989
1
1
1
1
1
1
1
1
1
1
1
1
1
1
1
1
0.188745
0.894252
0.997972
0.999988
1
1
1
1
1
1
1
1
1
1
1
1
1
1
1
1
1
0.187253
0.8947
0.997894
0.999986
1
1
1
1
1
1
1
1
1
1
1
1
1
1
1
1
1
1
0.185717
0.891106
0.99786
0.999986
1
1
1
1
1
1
1
1
1
1
1
1
1
1
1
1
1
1
1
0.184309
0.888694
0.997747
0.999985
1
1
1
1
1
1
1
1
1
1
1
1
1
1
1
1
1
1
1
1
0.182988
0.886456
0.99762
0.999984
1
1
1
1
1
1
1
1
1
1
1
1
1
1
1
1
1
1
1
1
1
0.181674
0.881771
0.997497
0.999982
1
1
1
1
1
1
1
1
1
1
1
1
1
1
1
1
1
1
1
1
1
1
0.180364
0.880598
0.997288
0.999981
1
1
1
1
1
1
1
1
1
1
1
1
1
1
1
1
1
1
1
1
1
1
1
0.179131
0.88072
0.997159
0.999978
1
1
1
1
1
1
1
1
1
1
1
1
1
1
1
1
1
1
1
1
1
1
1
1
0.177954
0.877004
0.997098
0.999977
1
1
1
1
1
1
1
1
1
1
1
1
1
1
1
1
1
1
1
1
1
1
1
1
1
0.176778
0.873458
0.996965
0.999976
1
1
1
1
1
1
1
1
1
1
1
1
1
1
1
1
1
1
1
1
1
1
1
1
1
1
0.175637
0.871173
0.996813
0.999974
1
1
1
1
1
1
1
1
1
1
1
1
1
1
1
1
1
1
1
1
1
1
1
1
1
1
1
0.174636
0.869862
0.996672
0.999971
1
1
1
1
1
1
1
1
1
1
1
1
1
1
1
1
1
1
1
1
1
1
1
1
1
1
1
1
0.173663
0.867736
0.996567
0.999969
1
1
1
1
1
1
1
1
1
1
1
1
1
1
1
1
1
1
1
1
1
1
1
1
1
1
1
1
1
0.172654
0.866515
0.996429
0.999967
1
1
1
1
1
1
1
1
1
1
1
1
1
1
1
1
1
1
1
1
1
1
1
1
1
1
1
1
1
1
0.171613
0.866778
0.996328
0.999966
1
1
1
1
1
1
1
1
1
1
1
1
1
1
1
1
1
1
1
1
1
1
1
1
1
1
1
1
1
1
1
0.170689
0.864321
0.996293
0.999964
1
1
1
1
1
1
1
1
1
1
1
1
1
1
1
1
1
1
1
1
1
1
1
1
1
1
1
1
1
1
1
1
0.169954
0.862191
0.99613
0.999963
1
1
1
1
1
1
1
1
1
1
1
1
1
1
1
1
1
1
1
1
1
1
1
1
1
1
1
1
1
1
1
1
1
0.169231
0.858238
0.995987
0.999961
1
1
1
1
1
1
1
1
1
1
1
1
1
1
1
1
1
1
1
1
1
1
1
1
1
1
1
1
1
1
1
1
1
1
0.168423
0.855667
0.995808
0.999958
1
1
1
1
1
1
1
1
1
1
1
1
1
1
1
1
1
1
1
1
1
1
1
1
1
1
1
1
1
1
1
1
1
1
1
0.167581
0.855006
0.995649
0.999956
1
1
1
1
1
1
1
1
1
1
1
1
1
1
1
1
1
1
1
1
1
1
1
1
1
1
1
1
1
1
1
1
1
1
1
1
0.166836
0.854771
0.995616
0.999954
1
1
1
1
1
1
1
1
1
1
1
1
1
1
1
1
1
1
1
1
1
1
1
1
1
1
1
1
1
1
1
1
1
1
0.982988
1
1
0.166285
0.853065
0.995589
0.999953
1
1
1
1
1
1
1
1
1
1
1
1
1
1
1
1
1
1
1
1
1
1
1
1
1
1
1
1
1
1
1
1
1
1
1
1
1
1
0.16581
0.851856
0.995468
0.999953
1
1
1
1
1
1
1
1
1
1
1
1
1
1
1
1
1
1
1
1
1
1
1
1
1
1
1
1
1
1
1
1
1
1
0.999539
1
0.997976
0.997951
1
0.165243
0.85017
0.995375
0.999951
1
1
1
1
1
1
1
1
1
1
1
1
1
1
1
1
1
1
1
1
1
1
1
1
1
1
1
1
1
1
1
1
1
1
1
1
1
1
1
1
0.164561
0.84843
0.995254
0.999949
1
1
1
1
1
1
1
1
1
1
1
1
1
1
1
1
1
1
1
1
1
1
1
1
1
1
1
1
1
1
1
1
1
1
1
1
1
1
1
1
1
0.163861
0.847383
0.995093
0.999946
1
1
1
1
1
1
1
1
1
1
1
1
1
1
1
1
1
1
1
1
1
1
1
1
1
1
1
1
1
1
1
1
1
1
1
1
1
1
0.99904
1
1
1
0.16326
0.846936
0.995038
0.999943
1
1
1
1
1
1
1
1
1
1
1
1
1
1
1
1
1
1
1
1
1
1
1
1
1
1
1
1
1
1
1
1
1
1
1
1
1
1
1
0.999773
1
1
1
0.162859
0.845855
0.995023
0.999943
1
1
1
1
1
1
1
1
1
1
1
1
1
1
1
1
1
1
1
1
1
1
1
1
1
1
1
1
1
1
1
1
1
1
1
1
1
0.997198
1
1
1
1
1
0.995651
0.162712
0.845082
0.994947
0.999943
1
1
1
1
1
1
1
1
1
1
1
1
1
1
1
1
1
1
1
1
1
1
1
1
1
1
1
1
1
1
1
1
1
1
1
1
1
0.999999
1
1
1
1
1
1
0.966883
0.162573
0.845014
0.994896
0.999943
1
1
1
1
1
1
1
1
1
1
1
1
1
1
1
1
1
1
1
1
1
1
1
1
1
1
1
1
1
1
1
1
1
1
1
1
1
0.21585
1
1
1
1
1
1
1
0.983175
0.162341
0.844307
0.994906
0.999943
1
1
1
1
1
1
1
1
1
1
1
1
1
1
1
1
1
1
1
1
1
1
1
1
1
1
1
1
1
1
1
1
1
1
1
1
1
1
1
1
1
0.141884
1
1
1
1
0.853358
0.161937
0.843756
0.994899
0.999943
1
1
1
1
1
1
1
1
1
1
1
1
1
1
1
1
1
1
1
1
1
1
1
1
1
1
1
1
1
1
1
1
1
1
1
1
1
1
1
1
0.994787
1
1
1
1
1
0.999981
0.55575
0.161327
0.843394
0.994898
0.999942
1
1
1
1
1
1
1
1
1
1
1
1
1
1
1
1
1
1
1
1
1
1
1
1
1
1
1
1
1
1
1
1
1
1
1
1
1
1
0.999894
1
0.985933
1
1
1
1
1
1
0.990424
0.281947
0.160663
0.843007
0.994853
0.999941
1
1
1
1
1
1
1
1
1
1
1
1
1
1
1
1
1
1
1
1
1
1
1
1
1
1
1
1
1
1
1
1
1
1
1
1
1
1
1
1
1
1
0.888724
1
1
1
1
1
0.988221
0.121341
0.160014
0.841175
0.994803
0.999942
1
1
1
1
1
1
1
1
1
1
1
1
1
1
1
1
1
1
1
1
1
1
1
1
1
1
1
1
1
1
1
1
1
1
1
1
1
1
1
1
1
0.999045
1
0.999997
1
1
1
1
0.999991
0.798268
0.0467863
0.159483
0.839679
0.994711
0.999942
1
1
1
1
1
1
1
1
1
1
1
1
1
1
1
1
1
1
1
1
1
1
1
1
1
1
1
1
1
1
1
1
1
1
1
1
1
1
1
0.940051
1
0.998392
1
1
1
1
1
1
1
0.999873
0.411061
0.016173
0.159136
0.839731
0.994644
0.99994
1
1
1
1
1
1
1
1
1
1
1
1
1
1
1
1
1
1
1
1
1
1
1
1
1
1
1
1
1
1
1
1
1
1
1
1
1
1
1
1
1
0.767728
1
1
1
1
1
1
1
1
0.997379
0.151281
0.00497489
0.159022
0.840421
0.994699
0.999939
1
1
1
1
1
1
1
1
1
1
1
1
1
1
1
1
1
1
1
1
1
1
1
1
1
1
1
1
1
1
1
1
1
1
1
1
1
1
1
1
0.999886
1
1
1
1
0.999999
1
0.666808
1
1
1
0.82563
0.0468422
0.0013393
0.15908
0.839326
0.994701
0.99994
1
1
1
1
1
1
1
1
1
1
1
1
1
1
1
1
1
1
1
1
1
1
1
1
1
1
1
1
1
1
1
1
1
1
1
1
1
1
1
1
0.999889
1
0.858862
1
1
1
1
1
1
1
1
0.999864
0.353649
0.0124542
0.00029544
0.159212
0.83905
0.994574
0.99994
1
1
1
1
1
1
1
1
1
1
1
1
1
1
1
1
1
1
1
1
1
1
1
1
1
1
1
1
1
1
1
1
1
1
1
1
1
1
1
1
1
0.999998
0.897235
1
1
1
0.999965
1
1
1
1
1
0.992892
0.0996897
0.00277722
4.87812e-05
0.159335
0.83949
0.994624
0.999939
1
1
1
1
1
1
1
1
1
1
1
1
1
1
1
1
1
1
1
1
1
1
1
1
1
1
1
1
1
1
1
1
1
1
1
1
1
1
1
1
1
0.998698
0.994853
0.999792
1
1
1
1
0.999999
1
1
1
1
0.667014
0.0229466
0.000479751
6.13616e-06
0.159342
0.840131
0.994673
0.99994
1
1
1
1
1
1
1
1
1
1
1
1
1
1
1
1
1
1
1
1
1
1
1
1
1
1
1
1
1
1
1
1
1
1
1
1
1
1
1
1
1
1
1
1
1
1
1
1
1
1
1
1
1
0.999995
0.193592
0.0040787
7.5892e-05
8.38718e-07
0.159238
0.841141
0.994745
0.999941
1
1
1
1
1
1
1
1
1
1
1
1
1
1
1
1
1
1
1
1
1
1
1
1
1
1
1
1
1
1
1
1
1
1
1
1
1
1
1
1
1
1
0.829192
0.99992
1
1
1
1
0.514659
1
1
1
1
1
0.931472
0.0389207
0.000555211
1.00451e-05
9.7077e-08
0.159016
0.843707
0.994909
0.999943
1
1
1
1
1
1
1
1
1
1
1
1
1
1
1
1
1
1
1
1
1
1
1
1
1
1
1
1
1
1
1
1
1
1
1
1
1
1
1
1
1
1
0.999992
0.691624
1
1
1
1
1
1
1
1
1
1
1
0.340379
0.0064211
5.66495e-05
1.55112e-06
3.21025e-09
0.158658
0.843419
0.995097
0.999946
1
1
1
1
1
1
1
1
1
1
1
1
1
1
1
1
1
1
1
1
1
1
1
1
1
1
1
1
1
1
1
1
1
1
1
1
1
1
1
1
1
1
1
0.350741
0.999999
1
1
1
1
1
1
1
1
1
1
0.994391
0.0571619
0.000866781
2.52879e-06
3.04914e-07
1.97094e-08
0.158202
0.840617
0.995082
0.999949
1
1
1
1
1
1
1
1
1
1
1
1
1
1
1
1
1
1
1
1
1
1
1
1
1
1
1
1
1
1
1
1
1
1
1
1
1
1
1
1
1
1
1
0.99962
0.999987
1
1
1
1
1
0.748644
1
1
1
1
1
0.514348
0.00732998
0.000102271
6.62969e-08
7.10766e-09
2.08485e-10
0.15768
0.837942
0.994903
0.999949
1
1
1
1
1
1
1
1
1
1
1
1
1
1
1
1
1
1
1
1
1
1
1
1
1
1
1
1
1
1
1
1
1
1
1
1
1
1
1
1
1
1
1
1
0.999348
1
1
1
1
1
1
1
1
1
1
1
0.999957
0.0918247
0.000624047
1.62348e-05
1.65899e-07
1.30713e-08
3.61793e-08
0.157149
0.837861
0.994686
0.999946
1
1
1
1
1
1
1
1
1
1
1
1
1
1
1
1
1
1
1
1
1
1
1
1
1
1
1
1
1
1
1
1
1
1
1
1
1
1
1
1
1
1
1
1
0.99999
1
1
1
1
1
1
1
1
1
1
1
1
0.718272
0.0118223
2.51626e-05
2.46567e-06
1.37116e-07
4.97491e-08
3.7412e-09
0.156624
0.837871
0.994705
0.999943
1
1
1
1
1
1
1
1
1
1
1
1
1
1
1
1
1
1
1
1
1
1
1
1
1
1
1
1
1
1
1
1
1
1
1
1
1
1
1
1
1
1
1
1
1
1
1
1
1
0.999813
1
0.999921
1
1
1
1
1
0.958671
0.128414
0.00128119
6.62289e-06
6.23245e-07
4.81185e-08
6.65457e-09
8.66155e-09
0.156138
0.837004
0.994702
0.999943
1
1
1
1
1
1
1
1
1
1
1
1
1
1
1
1
1
1
1
1
1
1
1
1
1
1
1
1
1
1
1
1
1
1
1
1
1
1
1
1
1
1
1
1
1
1
1
1
1
1
1
1
1
1
1
1
1
1
0.857628
0.0127766
0.000271323
8.6166e-08
7.61241e-09
2.59126e-09
1.59606e-08
3.96317e-08
0.155709
0.836024
0.994641
0.999943
1
1
1
1
1
1
1
1
1
1
1
1
1
1
1
1
1
1
1
1
1
1
1
1
1
1
1
1
1
1
1
1
1
1
1
1
1
1
1
1
1
1
1
1
1
1
1
1
1
1
1
1
1
1
1
1
1
1
0.999896
0.178584
0.000804406
4.80659e-05
4.41008e-07
4.11549e-08
4.03503e-08
2.13894e-08
1.82473e-10
0.155356
0.835251
0.994475
0.999944
1
1
1
1
1
1
1
1
1
1
1
1
1
1
1
1
1
1
1
1
1
1
1
1
1
1
1
1
1
1
1
1
1
1
1
1
1
1
1
1
1
1
1
1
1
1
1
1
1
1
1
1
1
0.999431
1
1
1
1
1
0.961063
0.0180856
0.000173745
8.52064e-06
2.8573e-07
1.14322e-08
4.02751e-08
6.6286e-10
2.54842e-08
0.155073
0.834513
0.994411
0.999941
1
1
1
1
1
1
1
1
1
1
1
1
1
1
1
1
1
1
1
1
1
1
1
1
1
1
1
1
1
1
1
1
1
1
1
1
1
1
1
1
1
1
1
1
1
1
1
1
1
1
1
1
1
1
1
0.999924
1
1
1
1
0.212567
0.00266818
1.75072e-05
2.4723e-06
7.95552e-08
4.4697e-08
6.52845e-09
1.49638e-08
1.99804e-09
0.154869
0.835389
0.994444
0.999938
1
1
1
1
1
1
1
1
1
1
1
1
1
1
1
1
1
1
1
1
1
1
1
1
1
1
1
1
1
1
1
1
1
1
1
1
1
1
1
1
1
1
1
1
1
1
1
1
1
1
1
1
1
0.99992
1
1
1
1
1
1
0.975866
0.0231899
0.000471242
1.17788e-06
4.58295e-07
5.85042e-09
1.06738e-08
2.85241e-08
5.68685e-10
6.81503e-10
0.154694
0.833604
0.994502
0.99994
1
1
1
1
1
1
1
1
1
1
1
1
1
1
1
1
1
1
1
1
1
1
1
1
1
1
1
1
1
1
1
1
1
1
1
1
1
1
1
1
1
1
1
1
1
1
1
1
1
1
1
1
1
0.99744
1
0.997964
1
1
0.981517
1
1
0.261574
0.00170935
8.82621e-05
4.07736e-07
1.56648e-07
1.72052e-08
1.48932e-08
6.71921e-10
1.44226e-08
8.45136e-09
0.154593
0.832016
0.994366
0.999941
1
1
1
1
1
1
1
1
1
1
1
1
1
1
1
1
1
1
1
1
1
1
1
1
1
1
1
1
1
1
1
1
1
1
1
1
1
1
1
1
1
1
1
1
1
1
1
1
1
1
1
1
1
0.992503
1
0.998931
1
1
1
1
1
0.987556
0.0278178
0.00021097
1.38264e-05
4.07303e-08
8.01217e-09
1.65876e-08
5.55726e-09
8.52254e-09
6.15906e-09
1.96649e-09
0.154533
0.832803
0.994242
0.999937
1
1
1
1
1
1
1
1
1
1
1
1
1
1
1
1
1
1
1
1
1
1
1
1
1
1
1
1
1
1
1
1
1
1
1
1
1
1
1
1
1
1
1
1
1
1
1
1
1
1
1
1
1
0.990482
1
0.999932
1
1
1
1
1
1
0.322056
0.00368792
2.15743e-05
5.68807e-06
1.10769e-07
2.32028e-08
3.77597e-09
3.91061e-09
4.98254e-09
2.15691e-08
5.05493e-09
0.154515
0.832873
0.994306
0.999935
1
1
1
1
1
1
1
1
1
1
1
1
1
1
1
1
1
1
1
1
1
1
1
1
1
1
1
1
1
1
1
1
1
1
1
1
1
1
1
1
1
1
1
1
1
1
1
1
1
1
1
1
1
1
1
1
1
1
1
1
1
1
0.985352
0.0390826
0.00045708
1.56587e-05
9.82839e-07
2.46881e-08
9.2961e-09
1.96209e-09
1.59278e-09
2.22399e-08
7.4861e-10
1.44923e-08
0.154528
0.83306
0.994304
0.999937
1
1
1
1
1
1
1
1
1
1
1
1
1
1
1
1
1
1
1
1
1
1
1
1
1
1
1
1
1
1
1
1
1
1
1
1
1
1
1
1
1
1
1
1
1
1
1
1
1
1
1
1
1
1
1
1
1
1
1
1
1
1
1
0.266878
0.00410103
0.000100615
6.86385e-06
4.55195e-07
4.48515e-08
2.75964e-09
8.3772e-09
7.78068e-09
1.51753e-10
5.77821e-09
9.23584e-10
0.154561
0.833117
0.994321
0.999937
1
1
1
1
1
1
1
1
1
1
1
1
1
1
1
1
1
1
1
1
1
1
1
1
1
1
1
1
1
1
1
1
1
1
1
1
1
1
1
1
1
1
1
1
1
1
1
1
1
1
1
1
1
1
1
1
1
1
1
1
1
1
1
0.982722
0.022936
0.000296534
4.61408e-05
2.42629e-06
1.51532e-07
7.82962e-10
2.67815e-09
3.72714e-08
1.04847e-08
1.22041e-08
1.19924e-09
2.70545e-08
0.154607
0.833022
0.994319
0.999937
1
1
1
1
1
1
1
1
1
1
1
1
1
1
1
1
1
1
1
1
1
1
1
1
1
1
1
1
1
1
1
1
1
1
1
1
1
1
1
1
1
1
1
1
1
1
1
1
1
1
1
1
1
1
0.999448
1
1
1
1
1
1
1
1
1
0.2286
0.000796964
1.08269e-05
1.64583e-05
8.33512e-07
5.61135e-08
3.79436e-08
7.54077e-09
1.36276e-08
3.09517e-09
8.89883e-10
1.11143e-08
1.92545e-09
0.154671
0.832973
0.994314
0.999937
1
1
1
1
1
1
1
1
1
1
1
1
1
1
1
1
1
1
1
1
1
1
1
1
1
1
1
1
1
1
1
1
1
1
1
1
1
1
1
1
1
1
1
1
1
1
1
1
1
1
1
1
1
1
1
1
1
1
1
1
1
1
1
1
0.960532
0.0159228
0.000298743
4.69905e-06
5.39507e-06
2.53891e-07
1.03832e-08
2.23772e-08
5.10013e-09
1.40746e-08
6.01304e-09
2.70252e-08
4.15552e-09
1.9732e-09
0.154707
0.833227
0.994315
0.999937
1
1
1
1
1
1
1
1
1
1
1
1
1
1
1
1
1
1
1
1
1
1
1
1
1
1
1
1
1
1
1
1
1
1
1
1
1
1
1
1
1
1
1
1
1
1
1
1
1
1
1
1
1
1
0.99999
1
1
1
1
1
1
1
1
1
0.998451
0.168973
0.000790921
9.78984e-05
3.78676e-06
1.39069e-06
1.03302e-07
1.4893e-08
8.09041e-10
8.82488e-09
8.18542e-09
1.16128e-08
4.4122e-10
2.86414e-10
1.31435e-09
0.154741
0.83327
0.994334
0.999937
1
1
1
1
1
1
1
1
1
1
1
1
1
1
1
1
1
1
1
1
1
1
1
1
1
1
1
1
1
1
1
1
1
1
1
1
1
1
1
1
1
1
1
1
1
1
1
1
1
1
1
1
1
1
1
1
1
1
1
1
1
1
1
1
1
0.877079
0.0114824
2.38135e-05
2.47809e-05
1.24236e-06
3.29374e-07
7.78928e-08
1.07708e-10
2.47729e-08
7.89959e-10
7.49161e-09
1.15217e-09
5.02528e-09
5.4163e-09
5.6412e-09
0.154785
0.833313
0.994333
0.999937
1
1
1
1
1
1
1
1
1
1
1
1
1
1
1
1
1
1
1
1
1
1
1
1
1
1
1
1
1
1
1
1
1
1
1
1
1
1
1
1
1
1
1
1
1
1
1
1
1
1
1
1
1
1
1
1
1
1
1
1
1
1
1
1
1
0.99422
0.10067
0.00050625
3.63024e-05
3.78929e-06
3.1791e-07
1.16283e-07
8.63216e-09
3.50483e-09
1.07611e-09
9.01506e-09
1.75928e-09
5.21747e-09
1.79756e-09
6.52565e-09
4.83314e-09
0.154834
0.833373
0.994336
0.999937
1
1
1
1
1
1
1
1
1
1
1
1
1
1
1
1
1
1
1
1
1
1
1
1
1
1
1
1
1
1
1
1
1
1
1
1
1
1
1
1
1
1
1
1
1
1
1
1
1
1
1
1
1
1
1
1
1
1
0.967593
0.999989
1
1
1
1
1
1
0.642576
0.00539587
6.22449e-06
7.44409e-06
6.88578e-07
9.11546e-08
2.64513e-08
9.77076e-09
3.87549e-09
1.01628e-09
2.78771e-09
6.62994e-10
9.31331e-09
1.0495e-09
1.47347e-09
7.3578e-10
0.154709
0.833439
0.994335
0.999937
1
1
1
1
1
1
1
1
1
1
1
1
1
1
1
1
1
1
1
1
1
1
1
1
1
1
1
1
1
1
1
1
1
1
1
1
1
1
1
1
1
1
1
1
1
1
1
1
1
1
1
0.999991
1
1
1
1
1
1
0.999214
1
1
1
1
1
1
1
0.999931
0.0461785
0.000215944
1.34938e-05
1.57351e-06
2.34547e-07
3.81124e-08
4.50637e-09
7.30217e-09
6.36839e-09
6.21561e-09
2.32366e-09
1.91745e-10
7.70634e-09
6.76559e-09
9.01799e-09
1.15878e-08
0.146544
0.833391
0.994347
0.999937
1
1
1
1
1
1
1
1
1
1
1
1
1
1
1
1
1
1
1
1
1
1
1
1
1
1
1
1
1
1
1
1
1
1
1
1
1
1
1
1
1
1
1
1
1
1
1
1
1
1
1
0.999997
1
1
1
1
1
1
1
1
1
1
1
1
1
1
1
0.347536
0.00212548
3.52106e-05
2.90362e-06
6.54269e-07
1.1301e-08
1.51158e-09
8.30486e-09
3.73132e-09
2.8257e-09
2.94892e-09
1.17399e-08
2.0809e-08
2.68492e-08
1.3687e-08
1.40962e-08
5.85111e-09
0.0633406
0.81608
0.994333
0.999937
1
1
1
1
1
1
1
1
1
1
1
1
1
1
1
1
1
1
1
1
1
1
1
1
1
1
1
1
1
1
1
1
1
1
1
1
1
1
1
1
1
1
1
1
1
1
1
1
1
1
1
1
1
1
1
1
1
1
1
1
0.999991
1
1
1
1
1
1
0.988616
0.0172859
0.000127561
4.73258e-06
1.0787e-06
1.65138e-07
7.74119e-10
6.07142e-09
1.97303e-09
1.42729e-10
3.72996e-09
2.08969e-09
1.07226e-08
5.66534e-08
1.72651e-09
2.5331e-08
2.74447e-08
1.78184e-08
0.115985
0.516774
0.992982
0.999937
1
1
1
1
1
1
1
1
1
1
1
1
1
1
1
1
1
1
1
1
1
1
1
1
1
1
1
1
1
1
1
1
1
1
1
1
1
1
1
1
1
1
1
1
1
1
1
1
1
1
1
1
1
1
1
1
1
1
1
1
1
0.984048
1
1
1
1
1
0.953801
0.14696
0.000579648
1.82055e-05
1.40865e-06
4.17984e-07
2.32015e-08
2.48965e-08
3.37047e-09
2.95127e-09
4.90536e-09
1.5618e-08
1.46636e-08
2.31622e-08
2.09452e-08
4.33676e-08
3.01847e-08
7.24825e-09
3.86913e-10
0.188441
0.618688
0.921371
0.999916
1
1
1
1
1
1
1
1
1
1
1
1
1
1
1
1
1
1
1
1
1
1
1
1
1
1
1
1
1
1
1
1
1
1
1
1
1
1
1
1
1
1
1
1
1
1
1
1
1
1
1
1
1
1
1
1
1
1
1
1
1
1
1
1
1
1
1
1
0.792179
0.00528316
3.34467e-05
3.88395e-06
3.38107e-07
1.04753e-07
3.41379e-08
7.42743e-10
5.56674e-09
4.49525e-09
1.75202e-08
9.57311e-09
7.17038e-08
4.0026e-08
6.82008e-08
2.35324e-10
2.93738e-09
7.87877e-10
4.75302e-09
0.20074
0.853608
0.869512
0.996482
1
1
1
1
1
1
1
1
1
1
1
1
1
1
1
1
1
1
1
1
1
1
1
1
1
1
1
1
1
1
1
1
1
1
1
1
1
1
1
1
1
1
1
1
1
1
1
1
1
1
1
1
1
1
1
1
1
1
1
0.353418
1
1
1
1
1
1
1
1
0.999999
0.0458618
0.000146406
3.86669e-06
1.25769e-06
8.7381e-08
4.5582e-08
4.67965e-09
6.72135e-09
3.44809e-09
1.8285e-08
3.20453e-08
2.32428e-08
1.91077e-08
6.56159e-08
1.14332e-09
1.29527e-08
7.8218e-09
2.30694e-09
7.11698e-09
0.208933
0.879164
0.989887
0.916242
0.999948
1
1
1
1
1
1
1
1
1
1
1
1
1
1
1
1
1
1
1
1
1
1
1
1
1
1
1
1
1
1
1
1
1
1
1
1
1
1
1
1
1
1
1
1
1
1
1
1
1
1
1
1
1
1
1
1
1
0.999922
0.99981
1
1
1
1
1
1
1
1
1
0.358126
0.0011598
1.36157e-05
4.7524e-07
3.45753e-07
3.63778e-09
4.68485e-09
1.16269e-09
5.81043e-09
6.96158e-10
1.2332e-08
1.92387e-08
1.65738e-08
1.01654e-07
6.91048e-09
1.16943e-08
1.17601e-08
3.08813e-09
2.9921e-09
1.3377e-08
0.215185
0.890775
0.99423
0.999099
0.822544
1
1
1
1
1
1
1
1
1
1
1
1
1
1
1
1
1
1
1
1
1
1
1
1
1
1
1
1
1
1
1
1
1
1
1
1
1
1
1
1
1
1
1
1
1
1
1
1
1
1
1
1
1
1
1
1
1
0.999969
0.201095
1
0.952113
0.539227
1
1
1
1
1
1
0.989583
0.0113478
4.66376e-05
5.87476e-07
4.43342e-08
7.07015e-08
1.6705e-08
6.16303e-09
3.47237e-08
2.06315e-08
8.68182e-09
1.52361e-08
4.47901e-08
4.14061e-08
5.35287e-09
1.28526e-08
2.87128e-10
1.19502e-09
9.80205e-09
1.24803e-09
9.26141e-09
0.223237
0.899023
0.995544
0.999707
0.999771
0.0236293
1
1
1
1
1
1
1
1
1
1
1
1
1
1
1
1
1
1
1
1
1
1
1
1
1
1
1
1
1
1
1
1
1
1
1
1
1
1
1
1
1
1
1
1
1
1
1
1
1
1
1
1
1
1
1
1
1
0.99999
1
1
1
1
1
1
1
1
1
0.932202
0.105678
0.000148928
7.49375e-06
3.94454e-07
6.69074e-08
2.49583e-08
2.92772e-08
2.57155e-09
3.34773e-09
1.37412e-08
3.38545e-09
2.58047e-08
3.76703e-08
4.70155e-09
2.83172e-08
1.1784e-08
4.2929e-09
1.81602e-08
3.06744e-08
2.77996e-08
3.26666e-09
0.230944
0.908166
0.996302
0.999814
0.999964
0.999712
0.941684
1
1
1
1
1
1
1
1
1
1
1
1
1
1
1
1
1
1
1
1
1
1
1
1
1
1
1
1
1
1
1
1
1
1
1
1
1
1
1
1
1
1
1
1
1
1
1
1
1
1
1
1
1
1
1
1
1
1
1
1
1
1
1
1
1
1
1
0.65427
0.00185434
2.72802e-05
5.41388e-07
1.21415e-07
2.06363e-08
1.83605e-09
2.27616e-08
3.0362e-08
5.96213e-08
8.01059e-09
1.3603e-08
2.80122e-08
8.65321e-09
3.15461e-09
2.73187e-09
8.84506e-09
4.0061e-09
1.34455e-08
1.45173e-08
1.21344e-09
2.95506e-09
0.23839
0.916161
0.99697
0.999865
0.999981
0.999979
0.99657
0.998862
1
1
1
1
1
1
1
1
1
1
1
1
1
1
1
1
1
1
1
1
1
1
1
1
1
1
1
1
1
1
1
1
1
1
1
1
1
1
1
1
1
1
1
1
1
1
1
1
1
1
1
1
1
1
1
1
1
1
0.72617
1
1
1
1
1
1
1
0.99992
0.0208835
1.61094e-06
6.52628e-06
1.10267e-07
1.12657e-07
2.03021e-08
2.59005e-08
1.36453e-08
8.03346e-08
1.42376e-08
3.75247e-08
8.98135e-09
1.5186e-08
8.18753e-10
2.5506e-09
1.76883e-08
1.04592e-08
3.10627e-08
6.74965e-10
4.34626e-08
2.34917e-08
6.92426e-09
0.246476
0.923381
0.99749
0.9999
0.999988
0.999991
0.999936
0.975817
0.99996
1
1
1
1
1
1
1
1
1
1
1
1
1
1
1
1
1
1
1
1
1
1
1
1
1
1
1
1
1
1
1
1
1
1
1
1
1
1
1
1
1
1
1
1
1
1
1
1
1
1
1
1
1
1
1
1
1
1
1
1
1
1
1
1
1
1
0.181402
6.8376e-05
5.29036e-06
7.6337e-07
1.63527e-07
1.09885e-08
4.12395e-08
2.05009e-08
1.72952e-08
7.51261e-09
2.93239e-09
7.88483e-09
8.39344e-09
3.31245e-09
9.88961e-09
4.61463e-09
1.92265e-09
3.14618e-08
8.0483e-09
5.60446e-09
1.54113e-08
1.17491e-09
4.22047e-08
0.254948
0.930345
0.997922
0.999924
0.999992
0.999995
0.999978
0.999415
0.713547
0.999997
1
1
1
1
1
1
1
1
1
1
1
1
1
1
1
1
1
1
1
1
1
1
1
1
1
1
1
1
1
1
1
1
1
1
1
1
1
1
1
1
1
1
1
1
1
1
1
1
1
1
1
1
1
1
1
1
1
1
1
1
1
1
1
1
1
0.85465
0.00273958
8.94488e-06
4.03887e-06
3.47259e-08
4.10259e-08
4.41395e-09
1.74669e-08
3.25626e-08
1.92405e-08
2.78304e-08
1.86859e-08
1.00127e-08
2.85845e-09
1.8144e-08
7.91681e-09
8.95745e-09
2.60121e-08
1.38983e-09
3.41259e-08
1.40188e-08
3.89358e-09
1.29589e-08
2.17632e-08
0.263557
0.937052
0.998288
0.999942
0.999994
0.999997
0.999989
0.999827
0.993146
0.138206
1
1
1
1
1
1
1
1
1
1
1
1
1
1
1
1
1
1
1
1
1
1
1
1
1
1
1
1
1
1
1
1
1
1
1
1
1
1
1
1
1
1
1
1
1
1
1
1
1
1
1
1
1
0.999928
1
0.998438
1
1
1
1
1
1
1
1
1
1
0.0323088
0.0001409
5.37166e-07
5.2651e-07
8.89916e-08
2.46866e-08
1.61724e-09
1.33824e-08
9.25045e-09
2.62595e-10
1.00542e-08
9.7213e-09
2.11664e-08
4.09026e-09
5.08674e-09
1.24143e-09
1.81978e-08
7.00367e-09
1.29123e-08
1.1908e-08
3.29884e-09
4.31723e-08
1.66546e-08
0.272327
0.943353
0.9986
0.999956
0.999996
0.999998
0.999993
0.999922
0.998191
0.9438
0.697827
1
1
1
1
1
1
1
1
1
1
1
1
1
1
1
1
1
1
1
1
1
1
1
1
1
1
1
1
1
1
1
1
1
1
1
1
1
1
1
1
1
1
1
1
1
1
1
1
1
1
1
1
1
1
1
1
0.999912
1
1
1
1
1
1
1
0.99945
0.244699
5.84984e-05
2.12091e-05
1.80436e-06
7.99599e-09
2.3072e-08
1.97838e-09
5.25395e-08
2.12543e-09
1.61011e-08
3.49368e-09
3.25567e-08
6.66636e-08
2.27594e-08
3.38482e-09
1.24264e-09
4.81671e-09
7.43236e-09
2.52539e-08
4.29432e-09
1.66872e-08
5.3929e-09
4.18135e-08
0.280997
0.949069
0.998866
0.999966
0.999997
0.999998
0.999995
0.999953
0.999219
0.985296
0.746782
0.877851
1
1
1
1
1
1
1
1
1
1
1
1
1
1
1
1
1
1
1
1
1
1
1
1
1
1
1
1
1
1
1
1
1
1
1
1
1
1
1
1
1
1
1
1
1
1
1
1
1
1
1
1
1
1
1
1
0.999663
1
1
1
1
1
1
1
0.909473
0.00353704
6.73999e-05
9.43752e-07
3.56775e-07
3.59042e-08
7.50698e-09
5.59759e-09
7.29009e-09
3.88224e-09
1.03086e-08
2.30003e-08
6.41406e-09
4.36458e-09
1.83614e-08
7.86634e-10
7.07961e-09
7.61216e-09
2.50713e-08
3.46689e-08
1.0985e-08
1.13524e-08
1.4475e-09
0.289425
0.954078
0.999083
0.999975
0.999998
0.999999
0.999996
0.999966
0.99954
0.993577
0.925761
0.371691
0.940426
1
1
1
1
1
1
1
1
1
1
1
1
1
1
1
1
1
1
1
1
1
1
1
1
1
1
1
1
1
1
1
1
1
1
1
1
1
1
1
1
1
1
1
1
1
1
1
1
1
1
1
1
1
1
1
1
1
1
1
1
1
1
1
1
0.0347563
0.000244012
4.92644e-06
7.95629e-07
1.59854e-08
1.18796e-08
1.05211e-08
5.95289e-09
5.05305e-08
4.86345e-08
8.59003e-09
5.95457e-09
2.49113e-08
5.92619e-08
6.00259e-09
5.74822e-09
9.46499e-09
2.0879e-08
4.48264e-08
1.11693e-08
1.01594e-08
1.75178e-08
0.297508
0.958629
0.999255
0.999981
0.999998
0.999999
0.999997
0.999975
0.999669
0.996206
0.96546
0.770194
0.0160517
0.968131
1
1
1
1
1
1
1
1
1
1
1
1
1
1
1
1
1
1
1
1
1
1
1
1
1
1
1
1
1
1
1
1
1
1
1
1
1
1
1
1
1
1
1
1
1
1
1
1
1
0.466213
1
0.999883
1
0.999994
1
1
1
1
0.825869
1
1
1
0.880071
0.241302
7.06927e-05
5.51909e-05
7.73003e-07
7.43328e-08
1.76385e-08
7.81121e-09
5.65335e-09
2.18937e-08
2.08909e-08
2.12822e-08
6.24692e-11
5.23938e-09
1.05605e-08
4.41537e-09
1.93541e-08
7.62614e-09
6.35914e-09
3.77455e-08
1.13836e-08
1.43866e-08
4.7412e-09
0.305162
0.96272
0.999394
0.999986
0.999999
0.999999
0.999998
0.99998
0.999755
0.997281
0.978889
0.881257
0.525174
0.301951
0.982791
1
1
1
1
1
1
1
1
1
1
1
1
1
1
1
1
1
1
1
1
1
1
1
1
1
1
1
1
1
1
1
1
1
1
1
1
1
1
1
1
1
1
1
1
1
1
1
1
1
1
1
1
1
1
1
1
1
1
1
1
1
1
0.898567
0.00341272
0.000111916
1.57076e-06
3.283e-07
1.5159e-08
2.75543e-09
1.39897e-08
1.10187e-08
1.4632e-08
7.56218e-09
6.67109e-08
5.76029e-10
7.68653e-09
1.36113e-09
1.83962e-08
4.30651e-09
2.65787e-09
2.54279e-08
8.75822e-09
3.88205e-08
1.24046e-08
0.312457
0.966202
0.999505
0.999989
0.999999
0.999999
0.999998
0.999984
0.99981
0.997973
0.984673
0.923283
0.722397
0.26069
0.492159
0.991273
1
1
1
1
1
1
1
1
1
1
1
1
1
1
1
1
1
1
1
1
1
1
1
1
1
1
1
1
1
1
1
1
1
1
1
1
1
1
1
1
1
1
1
1
1
1
0.999998
0.999937
1
1
1
1
1
1
1
1
1
1
1
1
1
1
0.0310142
0.000270583
1.27281e-05
3.09671e-07
3.91325e-08
1.11222e-08
1.46299e-09
6.36997e-09
3.77402e-09
1.99226e-08
4.73831e-08
1.75881e-08
8.45418e-09
2.37423e-09
5.0286e-09
2.62402e-09
1.9879e-08
2.25784e-08
4.80229e-09
4.25558e-08
1.24429e-08
0.319433
0.969276
0.999594
0.999992
0.999999
1
0.999999
0.999987
0.999843
0.998414
0.988428
0.942822
0.808038
0.515384
0.0317869
0.621463
0.996051
1
1
1
1
1
1
1
1
1
1
1
1
1
1
1
1
1
1
1
1
1
1
1
1
1
1
1
1
1
1
1
1
1
1
1
1
1
1
1
1
1
1
1
1
1
1
1
1
1
1
1
1
1
1
1
1
1
1
1
1
1
0.195516
9.22058e-05
7.05226e-05
1.35099e-07
6.59194e-08
2.58934e-08
1.82757e-08
2.30691e-08
2.39406e-08
1.09152e-09
4.26809e-08
2.59857e-08
2.469e-10
1.69365e-09
2.43601e-09
6.38001e-09
2.94916e-08
1.94907e-08
7.0361e-10
3.22478e-08
5.96131e-09
0.326105
0.972008
0.999665
0.999994
0.999999
1
0.999999
0.999989
0.999869
0.998684
0.990826
0.955726
0.851486
0.640768
0.305626
0.148829
0.715471
0.998498
1
1
1
1
1
1
1
1
1
1
1
1
1
1
1
1
1
1
1
1
1
1
1
1
1
1
1
1
1
1
1
1
1
1
1
1
1
1
1
1
1
1
1
1
1
0.49496
1
0.988344
1
1
1
1
1
0.995229
1
1
1
1
1
1
0.771812
0.00277723
0.00015211
2.43904e-06
1.77116e-07
7.16536e-10
8.68862e-09
3.0684e-08
1.37933e-08
3.22412e-09
3.39048e-08
7.99262e-09
1.6621e-10
6.12312e-10
4.79502e-09
3.66377e-10
1.27459e-08
1.58892e-08
6.27381e-09
2.3349e-08
1.08305e-08
0.332553
0.974446
0.999723
0.999995
1
1
0.999999
0.999991
0.999889
0.998892
0.992306
0.96418
0.881225
0.710732
0.454141
0.121439
0.289331
0.788386
0.999552
1
1
1
1
1
1
1
1
1
1
1
1
1
1
1
1
1
1
1
1
1
1
1
1
1
1
1
1
1
1
1
1
1
1
1
1
1
1
1
1
1
0.994902
1
1
1
1
1
1
1
1
1
1
1
1
1
1
1
1
1
0.999898
0.0198168
0.000208453
1.99664e-05
5.73436e-07
5.52512e-08
8.31412e-09
6.04777e-09
1.7431e-08
8.94712e-09
2.92289e-08
2.3361e-09
4.97818e-09
3.68444e-09
6.70439e-09
5.93002e-09
1.22248e-09
1.08788e-08
5.08472e-09
1.1752e-08
9.54463e-09
0.338859
0.976573
0.999771
0.999996
1
1
0.999999
0.999992
0.999906
0.999054
0.993463
0.969556
0.901328
0.760277
0.543438
0.277763
0.0301763
0.402008
0.847309
0.999901
1
1
1
1
1
1
1
1
1
1
1
1
1
1
1
1
1
1
1
1
1
1
1
1
1
1
1
1
1
1
1
1
1
1
1
1
1
1
1
1
1
1
0.999358
1
1
1
1
1
1
1
1
1
1
1
1
1
1
1
0.999334
0.110517
0.000134118
7.60527e-05
4.01046e-07
1.43835e-07
8.11489e-09
1.6977e-09
1.51743e-08
5.71282e-09
2.30708e-08
5.70398e-09
1.64541e-08
2.69853e-10
6.02959e-10
6.49535e-09
9.01741e-09
8.03081e-10
5.14638e-10
4.46641e-09
5.12296e-09
0.345243
0.97859
0.99981
0.999997
1
1
0.999999
0.999994
0.999921
0.999187
0.994354
0.973738
0.914639
0.795129
0.608834
0.3768
0.124776
0.15434
0.495998
0.895308
0.999985
1
1
1
1
1
1
1
1
1
1
1
1
1
1
1
1
1
1
1
1
1
1
1
1
1
1
1
1
1
1
1
1
1
1
1
1
1
1
1
1
1
1
1
1
1
1
1
1
1
0.23652
1
1
1
1
1
1
1
1
0.509875
0.00177886
0.000121215
5.08749e-06
3.79267e-07
2.4037e-11
5.74414e-09
8.25935e-09
7.6803e-10
2.33295e-08
1.21398e-09
2.15262e-08
7.79569e-09
5.67668e-09
1.32654e-10
2.76246e-08
7.71576e-09
6.36203e-10
7.55675e-09
7.51165e-09
0.351781
0.980469
0.999843
0.999998
1
1
1
0.999995
0.999935
0.999307
0.995086
0.976989
0.925088
0.819202
0.656737
0.451018
0.226712
0.00350783
0.257516
0.57824
0.933684
0.999999
1
1
1
1
1
1
1
1
1
1
1
1
1
1
1
1
1
1
1
1
1
1
1
1
1
1
1
1
1
1
1
1
1
1
1
1
1
1
1
1
1
1
1
1
1
1
1
1
1
1
1
1
1
1
1
1
1
0.989191
0.0103093
0.000102021
2.31208e-05
2.88951e-07
3.5313e-08
1.11362e-08
2.31854e-08
6.75026e-09
2.93446e-08
7.22657e-09
2.29162e-09
1.35694e-08
9.13566e-09
3.13608e-09
1.10078e-08
1.71678e-08
5.66047e-10
6.94044e-10
9.23958e-10
0.358677
0.982247
0.999871
0.999998
1
1
1
0.999996
0.999948
0.999421
0.995751
0.979727
0.933364
0.838379
0.690971
0.50685
0.303973
0.0975043
0.110961
0.346457
0.653066
0.962225
1
1
1
1
1
1
1
1
1
1
1
1
1
1
1
1
1
1
1
1
1
1
1
1
1
1
1
1
1
1
1
1
1
1
1
1
1
1
1
1
1
0.878981
1
0.872212
1
1
1
1
1
1
1
1
1
1
1
1
1
1
0.0516826
0.000116855
5.38518e-05
1.05051e-06
1.49438e-07
1.29424e-08
1.29633e-08
1.73404e-09
2.96205e-08
3.1787e-09
6.27984e-09
1.62511e-09
8.76733e-09
9.98687e-09
9.37214e-09
3.55286e-08
8.07244e-09
3.0722e-08
2.30475e-09
0.365981
0.983992
0.999894
0.999999
1
1
1
0.999997
0.999959
0.999527
0.996378
0.982169
0.940336
0.853803
0.718687
0.548104
0.362901
0.174521
0.0119042
0.202704
0.426094
0.722167
0.981501
1
1
1
1
1
1
1
1
1
1
1
1
1
1
1
1
1
1
1
1
1
1
1
1
1
1
1
1
1
1
1
1
1
1
1
1
1
1
1
1
0.864843
1
1
1
1
1
1
1
1
1
1
1
1
1
1
1
1
0.23264
0.000974414
6.60477e-05
5.75329e-06
1.62202e-07
4.06876e-09
9.70752e-09
1.19052e-09
2.05803e-08
3.07982e-09
1.53757e-09
1.78784e-08
2.89137e-08
3.24638e-08
5.28293e-09
2.721e-08
1.69606e-08
1.75757e-08
1.62584e-08
0.373777
0.985574
0.999915
0.999999
1
1
1
0.999998
0.999969
0.999623
0.996969
0.984491
0.946626
0.866863
0.741341
0.58211
0.407785
0.233759
0.0632994
0.105247
0.283543
0.499744
0.786548
0.992622
1
1
1
1
1
1
1
1
1
1
1
1
1
1
1
1
1
1
1
1
1
1
1
1
1
1
1
1
1
1
1
1
1
1
1
1
1
1
1
1
1
0.999485
1
1
1
1
1
0.981755
1
1
1
1
1
1
1
1
0.740855
0.0044221
3.73112e-05
1.70675e-05
8.81721e-08
8.81212e-09
5.17033e-09
6.43348e-09
1.0629e-08
8.64193e-09
6.6154e-09
1.58796e-08
6.40054e-09
2.9977e-08
1.33387e-08
1.0328e-08
1.17966e-11
2.34342e-08
1.06187e-08
0.382103
0.987092
0.999932
0.999999
1
1
1
0.999999
0.999977
0.999706
0.99752
0.986707
0.952618
0.87885
0.760843
0.610163
0.44493
0.279571
0.121588
0.0320967
0.186949
0.35711
0.569967
0.845239
0.997784
1
1
1
1
1
1
1
1
1
1
1
1
1
1
1
1
1
1
1
1
1
1
1
1
1
1
1
1
1
1
1
1
1
1
1
1
1
1
1
1
0.873288
1
1
1
1
1
1
1
0.722651
1
1
1
1
1
1
0.998499
0.0174089
7.10408e-05
2.97423e-05
1.08011e-06
7.37281e-08
4.50191e-10
4.95944e-09
5.61901e-09
6.11963e-09
1.66688e-08
8.78753e-09
1.81163e-08
3.27284e-09
1.09935e-08
1.40205e-08
1.00891e-08
3.90963e-08
2.208e-09
0.391007
0.988548
0.999946
1
1
1
1
0.999999
0.999984
0.999778
0.998009
0.988792
0.958373
0.890267
0.778721
0.634682
0.476102
0.317749
0.166804
0.0245311
0.115272
0.260532
0.426261
0.638367
0.896412
0.999554
1
1
1
1
1
1
1
1
1
1
1
1
1
1
1
1
1
1
1
1
1
1
1
1
1
1
1
1
1
1
1
1
1
1
1
1
1
1
1
0.998628
1
1
1
1
1
1
1
1
1
1
1
1
1
1
1
0.0660514
0.000431495
3.05388e-05
3.94057e-06
7.17958e-08
1.22575e-08
1.24921e-08
1.21167e-09
3.91396e-09
1.5568e-08
3.26406e-11
2.48842e-08
1.35731e-08
3.2179e-08
1.7078e-08
3.23209e-09
1.38381e-08
2.60726e-08
0.400521
0.989897
0.999957
1
1
1
1
0.999999
0.999989
0.999837
0.998446
0.990733
0.963883
0.90131
0.795764
0.656994
0.503442
0.350021
0.20475
0.068764
0.0601205
0.189381
0.328441
0.492944
0.705264
0.937956
0.999949
1
1
1
1
1
1
1
1
1
1
1
1
1
1
1
1
1
1
1
1
1
1
1
1
1
1
1
1
1
1
1
1
1
1
1
1
1
1
0.999998
1
0.971362
1
0.999979
0.998652
1
1
1
0.999513
1
1
1
1
1
1
0.251109
0.0015138
1.3627e-05
9.73368e-06
1.21161e-07
1.02e-08
6.74726e-09
8.32846e-10
1.63421e-09
8.95346e-09
2.26121e-09
1.70015e-08
1.867e-08
1.88048e-08
7.3082e-09
4.23154e-09
1.98518e-08
2.49826e-08
0.410606
0.991143
0.999967
1
1
1
1
1
0.999992
0.999883
0.998818
0.992506
0.969197
0.91215
0.812556
0.678558
0.52829
0.378055
0.236572
0.10584
0.0167888
0.135084
0.257258
0.393127
0.55893
0.770018
0.968105
0.999998
1
1
1
1
1
1
1
1
1
1
1
1
1
1
1
1
1
1
1
1
1
1
1
1
1
1
1
1
1
1
1
1
1
1
1
0.999999
1
0.992542
1
1
1
0.560008
1
1
0.769991
1
1
1
1
1
1
1
1
0.746883
0.00470037
3.05476e-05
1.42586e-05
7.26015e-07
2.53214e-08
4.80808e-09
5.70512e-09
1.97027e-09
2.50341e-10
6.02698e-09
1.66563e-08
2.68007e-09
1.40516e-08
7.1607e-09
9.53692e-09
1.17736e-08
1.22714e-08
0.421212
0.99228
0.999974
1
1
1
1
1
0.999995
0.999918
0.999121
0.994071
0.974216
0.922809
0.829241
0.699599
0.551963
0.403685
0.264359
0.136901