/*--------------------------------*- C++ -*----------------------------------*\
| =========                 |                                                 |
| \\      /  F ield         | OpenFOAM: The Open Source CFD Toolbox           |
|  \\    /   O peration     | Version:  v2012                                 |
|   \\  /    A nd           | Website:  www.openfoam.com                      |
|    \\/     M anipulation  |                                                 |
\*---------------------------------------------------------------------------*/
FoamFile
{
    version     2.0;
    format      ascii;
    class       volScalarField;
    location    "6700";
    object      rho;
}
// * * * * * * * * * * * * * * * * * * * * * * * * * * * * * * * * * * * * * //

dimensions      [1 -3 0 0 0 0 0];


internalField   nonuniform List<scalar> 
39402
(
0.0372326
0.0400204
0.0350363
0.0337252
0.0361988
0.0362214
0.0325393
0.0315397
0.0337792
0.0387207
0.0315724
0.0304355
0.0299091
0.0322115
0.0419571
0.0313043
0.0294119
0.0288446
0.0286612
0.0312242
0.0457613
0.0313147
0.0290597
0.0278022
0.0276089
0.0276959
0.03069
0.0499547
0.0312605
0.0290043
0.0274066
0.0265675
0.0266372
0.0269533
0.0305375
0.0544937
0.0313528
0.0289207
0.0273148
0.0261509
0.0256092
0.0258747
0.0263979
0.0307349
0.0593548
0.0314017
0.0289828
0.0272163
0.0260387
0.0251858
0.0248695
0.0252877
0.0260098
0.0312733
0.0644947
0.0314097
0.0290204
0.0272601
0.0259326
0.025063
0.024449
0.0243116
0.0248544
0.0257819
0.0321674
0.0699476
0.0313939
0.0290296
0.0272917
0.0259646
0.024954
0.0243225
0.0239011
0.0239102
0.0245606
0.025717
0.0334438
0.0757111
0.0314094
0.0290233
0.0273017
0.0259921
0.0249778
0.0242134
0.0237755
0.0235138
0.0236459
0.0243979
0.0258255
0.0351461
0.0817817
0.0313999
0.0290465
0.0272998
0.0260013
0.0250016
0.0242314
0.0236683
0.0233919
0.0232644
0.0235036
0.0243654
0.0261293
0.0373371
0.0881973
0.0313864
0.0290494
0.0273263
0.026001
0.0250089
0.0242518
0.0236821
0.0232875
0.0231471
0.0231346
0.0234754
0.0244707
0.0266594
0.0400862
0.0949993
0.0313867
0.0290496
0.0273359
0.0260281
0.025008
0.024256
0.0236991
0.0232977
0.0230456
0.0230208
0.0231107
0.0235577
0.024731
0.0274607
0.0434715
0.102206
0.0313847
0.0290623
0.0273435
0.0260404
0.0250334
0.0242524
0.023699
0.0233115
0.0230521
0.0229214
0.0229977
0.0231869
0.0237533
0.0251664
0.0285951
0.0475832
0.109848
0.0313598
0.0290732
0.0273627
0.0260512
0.0250456
0.0242744
0.0236912
0.0233061
0.0230628
0.0229241
0.0228985
0.0230686
0.0233611
0.024075
0.0258068
0.0301408
0.0525019
0.117979
0.0313347
0.029064
0.0273806
0.0260731
0.0250566
0.0242842
0.0237081
0.0232927
0.0230511
0.022931
0.0228968
0.0229663
0.0232296
0.0236352
0.0245353
0.0266785
0.0322029
0.0583625
0.126882
0.0313269
0.0290551
0.0273807
0.026094
0.0250783
0.0242928
0.0237137
0.0233034
0.0230311
0.0229121
0.0228987
0.0229587
0.0231193
0.0234797
0.0240168
0.0251516
0.0278114
0.0349127
0.065249
0.136546
0.031326
0.0290613
0.0273808
0.0260988
0.0250993
0.024312
0.023718
0.0233031
0.0230345
0.0228846
0.0228718
0.0229536
0.0231032
0.0233554
0.0238211
0.0245144
0.0259392
0.0292642
0.0384164
0.0735176
0.147133
0.0313156
0.0290731
0.0273944
0.0261035
0.0251055
0.0243308
0.0237328
0.0233015
0.0230273
0.02288
0.0228359
0.0229176
0.0230887
0.0233266
0.0236746
0.0242591
0.0251419
0.0269312
0.0311281
0.0428705
0.0826355
0.157606
0.0312995
0.0290763
0.0274132
0.0261206
0.0251114
0.0243357
0.0237475
0.0233105
0.0230185
0.0228648
0.0228223
0.022872
0.0230421
0.0233
0.0236275
0.0240793
0.024803
0.0259211
0.028185
0.0335248
0.0484143
0.0924993
0.166827
0.0312913
0.0290739
0.0274243
0.0261426
0.0251291
0.0243402
0.0237488
0.0233196
0.0230205
0.0228479
0.0227982
0.0228484
0.0229852
0.0232406
0.0235855
0.0240069
0.0245748
0.0254663
0.0268838
0.0297732
0.0366302
0.0551411
0.103217
0.173091
0.0312879
0.0290787
0.0274298
0.0261576
0.0251516
0.0243562
0.0237499
0.0233157
0.0230228
0.0228421
0.0227724
0.0228145
0.0229503
0.0231708
0.0235105
0.023945
0.0244679
0.0251701
0.026269
0.0280735
0.0317829
0.0406844
0.0631975
0.114913
0.175514
0.0312807
0.0290878
0.0274419
0.0261675
0.0251676
0.0243771
0.0237623
0.0233116
0.0230125
0.0228367
0.0227581
0.0227789
0.0229054
0.023123
0.0234255
0.0238508
0.0243799
0.0250162
0.0258777
0.0272387
0.0295493
0.0343068
0.0460036
0.0726586
0.127119
0.175013
0.0312673
0.0290928
0.0274579
0.0261832
0.025179
0.0243919
0.0237798
0.023319
0.0230021
0.0228191
0.0227444
0.0227553
0.0228589
0.0230656
0.0233631
0.0237479
0.0242619
0.0248939
0.0256605
0.026716
0.0284141
0.0313914
0.0374793
0.052953
0.0835337
0.138304
0.173378
0.0312585
0.0290918
0.0274697
0.0262024
0.0251957
0.0244025
0.0237916
0.0233317
0.0230034
0.0228013
0.0227185
0.0227324
0.0228249
0.0230069
0.0232916
0.0236685
0.0241377
0.0247463
0.0254931
0.0264131
0.0277106
0.0298496
0.0337096
0.0415879
0.0618486
0.0953744
0.148552
0.170525
0.0312511
0.0290942
0.0274759
0.0262179
0.0252157
0.0244182
0.0237995
0.0233392
0.0230102
0.0227957
0.0226928
0.0226977
0.0227921
0.0229615
0.0232193
0.023581
0.0240387
0.0245964
0.0253081
0.0261862
0.0272917
0.0288973
0.0316206
0.0366517
0.0470842
0.0726337
0.107722
0.156699
0.167124
0.0312404
0.0290977
0.0274849
0.026228
0.0252323
0.024437
0.0238124
0.0233429
0.0230122
0.022796
0.0226796
0.0226634
0.0227477
0.0229176
0.0231612
0.0234934
0.0239329
0.0244743
0.0251268
0.0259536
0.0269858
0.0283208
0.0303266
0.0338302
0.0403881
0.0544982
0.0845888
0.119803
0.16403
0.162587
0.0312294
0.0290988
0.0274947
0.0262404
0.0252438
0.0244528
0.0238286
0.0233517
0.0230106
0.0227916
0.0226727
0.022642
0.0227039
0.0228626
0.0231051
0.0234211
0.023828
0.0243474
0.0249774
0.0257337
0.026692
0.0279094
0.0295349
0.0320694
0.0366167
0.0451465
0.0643226
0.0965653
0.13135
0.170235
0.157653
0.0312279
0.0290987
0.0275023
0.0262534
0.0252575
0.0244638
0.023842
0.023364
0.0230144
0.022784
0.0226614
0.0226273
0.0226736
0.0228085
0.0230383
0.0233515
0.0237398
0.0242228
0.0248258
0.0255515
0.0264239
0.0275362
0.0289812
0.0309821
0.0342245
0.0401597
0.0514263
0.0765659
0.107605
0.141853
0.174793
0.152645
0.0312257
0.0291065
0.0275084
0.0262642
0.0252716
0.0244768
0.0238509
0.0233738
0.0230219
0.0227819
0.0226472
0.0226086
0.0226505
0.0227685
0.0229729
0.0232718
0.0236552
0.0241167
0.0246786
0.0253708
0.0262019
0.0272072
0.0285038
0.0302349
0.0327302
0.0369264
0.0446797
0.0600026
0.0902254
0.117428
0.151117
0.177435
0.148187
0.0312145
0.0291133
0.0275213
0.0262735
0.0252834
0.0244904
0.0238619
0.0233793
0.0230271
0.0227839
0.0226387
0.0225872
0.0226237
0.0227362
0.0229223
0.023194
0.0235611
0.0240152
0.0245522
0.0251974
0.0259865
0.0269359
0.0280967
0.0296189
0.0317175
0.0348743
0.040351
0.0504476
0.0715257
0.103316
0.126164
0.159001
0.178161
0.144573
0.0311958
0.0291118
0.0275331
0.026289
0.0252938
0.0245016
0.0238735
0.0233871
0.0230284
0.022784
0.0226347
0.0225719
0.0225946
0.0227007
0.02288
0.0231319
0.0234698
0.0239052
0.0244317
0.0250476
0.0257824
0.0266787
0.0277639
0.0291105
0.0309151
0.0334952
0.0375463
0.0447122
0.0580624
0.0858663
0.114333
0.134141
0.164699
0.177615
0.14171
0.0311873
0.0291036
0.0275373
0.0263033
0.02531
0.0245116
0.0238829
0.0233956
0.023032
0.0227804
0.0226291
0.0225615
0.0225719
0.0226631
0.022835
0.0230787
0.023395
0.023799
0.0243039
0.0249056
0.0256055
0.0264382
0.0274556
0.0286997
0.0302732
0.0324388
0.0356614
0.0409245
0.0502678
0.0684917
0.101219
0.123237
0.141298
0.168301
0.176096
0.139235
0.0311912
0.0291038
0.0275347
0.0263105
0.0253251
0.0245272
0.0238912
0.0234022
0.0230368
0.0227793
0.02262
0.0225497
0.0225546
0.0226325
0.0227883
0.0230233
0.02333
0.0237103
0.024181
0.0247578
0.0254388
0.0262296
0.0271714
0.0283281
0.0297621
0.0316184
0.0342554
0.0383467
0.0452338
0.0574399
0.0823124
0.114682
0.130834
0.147603
0.170464
0.17308
0.137554
0.0311942
0.0291145
0.0275397
0.0263111
0.0253335
0.0245416
0.0239049
0.0234078
0.0230396
0.0227796
0.0226138
0.0225349
0.0225363
0.0226077
0.0227491
0.0229668
0.0232634
0.0236323
0.024077
0.0246163
0.0252682
0.0260344
0.0269254
0.0279908
0.0293107
0.0309761
0.033193
0.036457
0.0417283
0.0507308
0.0670629
0.0985934
0.125134
0.136774
0.153341
0.171494
0.168255
0.13677
0.0311809
0.0291245
0.0275539
0.0263184
0.0253355
0.0245497
0.0239178
0.0234188
0.0230418
0.0227782
0.0226093
0.0225231
0.0225152
0.0225823
0.0227163
0.0229183
0.0231962
0.0235534
0.0239847
0.0244952
0.025106
0.0258379
0.0266968
0.0276999
0.028908
0.0304231
0.0323765
0.0350626
0.0391732
0.0460306
0.0577029
0.0801081
0.114428
0.132602
0.140949
0.157966
0.172411
0.162017
0.136333
0.0311617
0.0291198
0.0275674
0.0263341
0.0253436
0.0245517
0.0239244
0.0234293
0.0230495
0.0227764
0.0226032
0.0225134
0.0224975
0.0225544
0.0226832
0.0228768
0.0231376
0.0234746
0.0238924
0.0243872
0.0249659
0.0256519
0.0264702
0.0274321
0.0285627
0.0299386
0.0316915
0.0340112
0.0373199
0.04258
0.0515025
0.0668507
0.0965624
0.126659
0.137408
0.144867
0.161017
0.172698
0.156203
0.136067
0.0311505
0.0291093
0.0275672
0.0263491
0.0253595
0.0245593
0.0239252
0.0234337
0.0230569
0.0227803
0.022597
0.0225024
0.0224822
0.0225303
0.0226481
0.0228355
0.0230868
0.0234051
0.023801
0.0242801
0.0248403
0.0254904
0.0262572
0.0271703
0.0282479
0.0295264
0.0311031
0.0331519
0.0359473
0.0400957
0.0469057
0.0584265
0.0793263
0.113981
0.13425
0.140838
0.148342
0.164078
0.171815
0.15118
0.135912
0.0311541
0.0291054
0.0275614
0.0263511
0.0253744
0.0245745
0.0239315
0.0234325
0.0230585
0.0227842
0.0225968
0.0224915
0.0224658
0.022509
0.022617
0.0227926
0.0230365
0.0233441
0.0237196
0.0241748
0.0247168
0.0253453
0.0260715
0.0269261
0.0279448
0.0291548
0.0306077
0.0324294
0.034854
0.0382801
0.0435699
0.0524069
0.0674258
0.095579
0.12789
0.138783
0.143232
0.151365
0.165851
0.169976
0.146974
0.135799
0.0311629
0.0291142
0.0275612
0.0263478
0.0253774
0.0245887
0.0239453
0.0234367
0.0230547
0.0227825
0.0225968
0.0224868
0.0224499
0.022487
0.0225894
0.0227541
0.0229853
0.0232843
0.0236476
0.0240805
0.0245962
0.0252035
0.0259042
0.0267125
0.0276641
0.0288023
0.0301664
0.0318284
0.0339551
0.0368677
0.0411439
0.0479757
0.0593717
0.0795433
0.11376
0.136201
0.141583
0.144966
0.153374
0.167463
0.1677
0.143343
0.135714
0.031156
0.0291269
0.0275722
0.0263492
0.025375
0.0245914
0.0239581
0.0234485
0.0230562
0.0227755
0.0225914
0.0224827
0.0224406
0.0224658
0.0225612
0.0227196
0.0229389
0.023224
0.0235775
0.0239965
0.0244878
0.025066
0.025742
0.0265201
0.0274184
0.0284786
0.0297541
0.0313005
0.0332182
0.0357327
0.0392919
0.044724
0.0535772
0.0683374
0.0955439
0.128981
0.140632
0.143443
0.146565
0.155908
0.16765
0.164176
0.140505
0.135647
0.0311352
0.0291258
0.0275865
0.026361
0.0253769
0.024589
0.0239599
0.0234593
0.0230656
0.022774
0.022581
0.0224733
0.0224321
0.0224514
0.0225342
0.0226849
0.0228969
0.0231691
0.0235074
0.0239151
0.0243907
0.0249419
0.0255857
0.0263348
0.0271971
0.0281954
0.0293791
0.0308151
0.0325807
0.0348172
0.0378357
0.0422666
0.0492597
0.060659
0.0803063
0.11395
0.137999
0.143131
0.144729
0.147985
0.158254
0.16756
0.159815
0.13839
0.135595
0.0311093
0.0291123
0.0275885
0.0263759
0.0253886
0.0245906
0.0239566
0.0234596
0.0230741
0.0227807
0.0225762
0.0224592
0.0224185
0.0224382
0.0225145
0.0226518
0.0228552
0.0231191
0.0234432
0.0238345
0.024297
0.0248305
0.0254442
0.0261573
0.0269855
0.0279407
0.0290516
0.0303781
0.0320044
0.0340388
0.0366812
0.0403684
0.0459843
0.0550176
0.0697249
0.0961153
0.129828
0.142256
0.144737
0.145329
0.148781
0.161066
0.167051
0.154684
0.136991
0.135561
0.0310937
0.029094
0.0275789
0.026379
0.0254032
0.0246015
0.0239572
0.0234549
0.0230725
0.0227866
0.0225799
0.0224508
0.0224004
0.0224201
0.0224962
0.0226262
0.0228155
0.0230699
0.0233847
0.0237603
0.0242049
0.0247233
0.0253169
0.0259965
0.0267841
0.0276989
0.0287579
0.0299977
0.0314915
0.0333477
0.0357178
0.0388886
0.0434784
0.0506901
0.0622792
0.0817403
0.114588
0.139176
0.144426
0.145579
0.145701
0.150297
0.162459
0.1664
0.149402
0.136325
0.135542
0.0310935
0.0290849
0.0275646
0.0263714
0.0254066
0.0246153
0.023967
0.023454
0.0230659
0.0227827
0.0225831
0.0224515
0.0223883
0.0223978
0.0224734
0.0226026
0.0227837
0.0230231
0.0233274
0.0236925
0.0241199
0.0246186
0.0251949
0.0258515
0.0266015
0.0274702
0.028481
0.0296578
0.0310471
0.0327403
0.034879
0.0376778
0.0415511
0.0473682
0.0566513
0.0715424
0.0975707
0.130832
0.143315
0.145484
0.146044
0.145928
0.152375
0.16436
0.164556
0.144378
0.135988
0.135531
0.0311235
0.0290884
0.0275582
0.0263591
0.0253998
0.0246185
0.0239796
0.0234623
0.0230632
0.022774
0.0225767
0.0224517
0.0223857
0.0223817
0.0224465
0.0225746
0.0227544
0.0229848
0.0232731
0.0236265
0.0240421
0.0245219
0.0250764
0.0257131
0.0264367
0.0272629
0.0282209
0.0293399
0.0306519
0.0322174
0.0341523
0.0366453
0.0400035
0.0448263
0.0522889
0.0641451
0.0837667
0.116079
0.140417
0.145051
0.146025
0.146044
0.146356
0.154955
0.164526
0.161649
0.1406
0.13578
0.135524
0.0311448
0.0291183
0.027563
0.0263539
0.0253884
0.0246117
0.023982
0.0234735
0.0230698
0.0227692
0.0225655
0.0224426
0.0223827
0.0223755
0.0224262
0.0225429
0.0227209
0.0229493
0.0232277
0.0235641
0.0239666
0.0244332
0.0249668
0.0255794
0.02628
0.0270757
0.0279853
0.0290431
0.0302854
0.0317553
0.0335314
0.0357646
0.0387115
0.0428151
0.0489277
0.0585078
0.0736949
0.0997597
0.132356
0.144312
0.145883
0.145968
0.145995
0.147279
0.158018
0.164581
0.156553
0.138119
0.135647
0.13552
0.0311567
0.0291408
0.0275917
0.026359
0.0253833
0.0246003
0.0239746
0.0234748
0.0230793
0.022774
0.0225584
0.0224288
0.0223708
0.0223693
0.0224162
0.022518
0.022684
0.0229099
0.0231856
0.023511
0.0238954
0.0243475
0.0248662
0.0254555
0.0261293
0.0268985
0.0277727
0.0287749
0.0299456
0.0313304
0.0329871
0.0350197
0.0376286
0.0411703
0.0462825
0.0541162
0.0662977
0.0862681
0.118263
0.14167
0.145827
0.146077
0.145731
0.145808
0.148951
0.160159
0.163901
0.150606
0.136684
0.135577
0.135519
0.0311452
0.0291549
0.0276139
0.026386
0.0253881
0.0245949
0.0239628
0.0234665
0.0230793
0.0227817
0.0225612
0.0224193
0.0223542
0.0223542
0.0224064
0.022504
0.0226542
0.0228675
0.0231399
0.0234619
0.0238341
0.0242667
0.0247694
0.0253419
0.0259898
0.0267289
0.0275722
0.0285332
0.0296394
0.0309396
0.0324914
0.0343725
0.0367232
0.0398158
0.0441531
0.0506326
0.0606525
0.0762421
0.102561
0.13413
0.145238
0.146395
0.145983
0.145494
0.14598
0.151368
0.162061
0.163056
0.144769
0.136042
0.135544
0.135518
0.0311112
0.0291482
0.0276286
0.0264074
0.0254136
0.0245989
0.0239567
0.0234539
0.0230699
0.0227802
0.0225672
0.02242
0.0223421
0.0223347
0.022388
0.0224903
0.0226359
0.0228325
0.0230914
0.0234094
0.0237773
0.0241966
0.0246782
0.0252329
0.0258618
0.0265719
0.0273813
0.0283062
0.029364
0.0305887
0.0320393
0.0337897
0.0359452
0.0386984
0.0424282
0.0478441
0.0561336
0.0688148
0.0893055
0.121004
0.142791
0.146315
0.146376
0.145862
0.145338
0.14679
0.154127
0.162833
0.159448
0.140343
0.135761
0.135528
0.135518
0.0310704
0.0291216
0.0276242
0.0264217
0.0254338
0.024623
0.0239598
0.0234468
0.0230562
0.0227694
0.022564
0.0224239
0.0223406
0.0223199
0.0223654
0.0224685
0.0226182
0.0228095
0.0230509
0.0233546
0.0237175
0.0241314
0.0245984
0.0251304
0.0257394
0.026428
0.0272048
0.0280911
0.0291065
0.0302737
0.031635
0.0332629
0.0352531
0.0377506
0.041025
0.0456104
0.0524818
0.0630393
0.0792465
0.106042
0.136152
0.145763
0.146412
0.146346
0.145737
0.145394
0.147341
0.157428
0.162559
0.154167
0.137674
0.135619
0.135522
0.135517
0.0310333
0.0290887
0.0276017
0.0264185
0.0254474
0.0246421
0.0239827
0.0234491
0.0230478
0.0227543
0.0225516
0.0224191
0.0223425
0.022316
0.0223476
0.0224424
0.0225925
0.0227874
0.0230229
0.0233081
0.0236559
0.0240638
0.0245243
0.0250401
0.0256244
0.0262907
0.027043
0.0278925
0.0288636
0.0299808
0.0312735
0.0327943
0.034634
0.036919
0.0398518
0.0438159
0.0495619
0.0583303
0.0716382
0.0929634
0.124335
0.14392
0.146263
0.146316
0.146201
0.145768
0.145318
0.149571
0.159503
0.162311
0.147594
0.136338
0.135557
0.135519
0.135517
0.0310076
0.0290587
0.0275731
0.0263983
0.0254445
0.0246547
0.0240007
0.0234707
0.0230492
0.0227446
0.0225351
0.0224049
0.0223357
0.0223157
0.0223412
0.0224214
0.0225628
0.0227576
0.0229961
0.0232747
0.0236029
0.0239948
0.0244481
0.0249562
0.0255226
0.026162
0.0268892
0.0277106
0.0286399
0.029706
0.0309389
0.0323769
0.0340868
0.0361837
0.0388382
0.0423379
0.0472313
0.0545312
0.0656337
0.082663
0.110183
0.13854
0.145924
0.146269
0.14613
0.146124
0.145781
0.145885
0.151899
0.16123
0.159469
0.14186
0.135828
0.135531
0.135518
0.135517
0.0310006
0.0290382
0.0275471
0.0263722
0.0254256
0.0246518
0.0240122
0.0234877
0.0230695
0.0227452
0.0225239
0.0223869
0.0223198
0.0223069
0.0223385
0.0224123
0.0225384
0.022724
0.0229619
0.0232428
0.0235638
0.0239349
0.0243711
0.0248708
0.025428
0.0260474
0.0267452
0.0275382
0.0284352
0.0294534
0.0306268
0.0319931
0.0336018
0.0355389
0.037954
0.0410821
0.0453361
0.0514882
0.0607796
0.0747638
0.097124
0.128177
0.144802
0.14625
0.146183
0.146048
0.146054
0.146064
0.146825
0.155448
0.161081
0.155192
0.138235
0.135632
0.135522
0.135517
0.135517
0.0310177
0.0290343
0.0275295
0.0263484
0.0254009
0.0246333
0.0240089
0.0234982
0.0230856
0.0227641
0.0225234
0.022374
0.0223
0.022289
0.0223276
0.0224071
0.0225263
0.022696
0.0229242
0.0232039
0.0235265
0.0238895
0.0243037
0.024785
0.0253325
0.025941
0.0266166
0.0273772
0.028242
0.0292227
0.0303407
0.0316371
0.0331588
0.0349708
0.0371856
0.0400026
0.0437518
0.0490256
0.0568479
0.0685552
0.0865465
0.114811
0.140763
0.146055
0.146279
0.146119
0.145988
0.145991
0.146296
0.148613
0.157579
0.160891
0.148143
0.136452
0.135555
0.135519
0.135517
0.135517
0.0310525
0.0290514
0.0275267
0.0263322
0.0253782
0.0246093
0.0239905
0.0234942
0.0230953
0.0227793
0.0225411
0.0223724
0.0222855
0.0222674
0.0223075
0.0223939
0.0225184
0.0226807
0.0228922
0.0231617
0.0234825
0.0238463
0.0242516
0.0247096
0.0252373
0.0258345
0.0264972
0.027233
0.0280618
0.0290056
0.03008
0.0313118
0.0327505
0.0344558
0.0365137
0.0390744
0.0424105
0.0469917
0.0536418
0.0635646
0.0783402
0.101839
0.132073
0.145192
0.146218
0.146254
0.146106
0.145973
0.145867
0.146502
0.150923
0.159971
0.158349
0.141954
0.135803
0.135529
0.135518
0.135517
0.135517
0.0310922
0.0290844
0.0275428
0.0263297
0.0253627
0.0245871
0.0239666
0.0234755
0.0230903
0.0227882
0.0225554
0.0223888
0.0222826
0.0222511
0.0222839
0.0223715
0.0225026
0.0226699
0.0228735
0.0231256
0.0234354
0.0237969
0.0242021
0.0246502
0.0251531
0.0257289
0.0263784
0.0270991
0.0278999
0.0288036
0.0298356
0.0310162
0.0323789
0.0339845
0.0359098
0.0382703
0.0412712
0.0452935
0.0510014
0.0594488
0.071898
0.0910225
0.119858
0.142421
0.145965
0.146194
0.146244
0.146149
0.145989
0.145677
0.146896
0.154443
0.15987
0.154335
0.137995
0.135608
0.13552
0.135517
0.135517
0.135517
0.0311281
0.0291216
0.0275737
0.0263448
0.02536
0.0245717
0.0239444
0.0234514
0.0230711
0.0227824
0.0225634
0.0224023
0.0222977
0.0222468
0.0222656
0.0223457
0.0224778
0.0226514
0.0228595
0.0231032
0.0233949
0.0237446
0.0241467
0.0245938
0.0250857
0.0256351
0.0262615
0.0269668
0.0277499
0.0286219
0.0296088
0.0307402
0.0320422
0.0335576
0.0353615
0.0375547
0.040295
0.0438696
0.0488154
0.0560301
0.0666917
0.0824486
0.107212
0.135754
0.145353
0.146043
0.146133
0.146264
0.146316
0.146105
0.145811
0.148688
0.156906
0.15976
0.146803
0.136254
0.135542
0.135518
0.135517
0.135517
0.135517
0.03115
0.0291557
0.0276086
0.0263737
0.0253741
0.0245686
0.0239287
0.0234287
0.0230466
0.0227624
0.0225568
0.0224094
0.0223102
0.0222606
0.0222599
0.0223254
0.0224497
0.0226239
0.0228381
0.0230857
0.0233685
0.0236992
0.0240887
0.0245319
0.0250218
0.0255591
0.0261572
0.0268373
0.0276024
0.0284536
0.0294044
0.0304847
0.0317293
0.0331722
0.0348677
0.0369108
0.0394361
0.0426642
0.0470031
0.0531975
0.062335
0.075677
0.0961662
0.125197
0.143698
0.145854
0.145978
0.14614
0.14633
0.146563
0.146316
0.146324
0.150575
0.158757
0.156728
0.140715
0.135708
0.135523
0.135517
0.135517
0.135517
0.135517
0.0311592
0.0291773
0.0276408
0.0264065
0.0254012
0.0245819
0.0239249
0.0234125
0.0230233
0.0227372
0.022536
0.0224019
0.0223164
0.022272
0.0222723
0.0223181
0.0224271
0.0225933
0.0228078
0.0230611
0.0233473
0.0236685
0.0240381
0.0244678
0.0249528
0.025487
0.0260717
0.0267214
0.0274589
0.0282893
0.0292155
0.0302544
0.0314404
0.0328156
0.0344236
0.0363346
0.0386713
0.0416172
0.0454868
0.0508592
0.0587009
0.0701496
0.0871473
0.113174
0.139021
0.145525
0.145893
0.145963
0.146185
0.146492
0.146667
0.14641
0.146819
0.153923
0.158544
0.151699
0.137187
0.135567
0.135519
0.135517
0.135517
0.135517
0.135517
0.0311535
0.0291881
0.0276617
0.0264368
0.0254322
0.0246074
0.0239376
0.023408
0.0230065
0.0227131
0.0225099
0.0223801
0.022308
0.0222772
0.0222826
0.0223289
0.0224182
0.0225683
0.0227744
0.0230278
0.0233193
0.0236433
0.0240028
0.0244116
0.0248822
0.0254103
0.0259906
0.0266254
0.0273303
0.0281301
0.029032
0.0300417
0.03118
0.0324874
0.0340147
0.0358189
0.037992
0.040696
0.0441874
0.0489171
0.0556775
0.0655723
0.0799163
0.101966
0.130484
0.144592
0.145829
0.145907
0.14601
0.146305
0.146525
0.146514
0.146487
0.148695
0.156664
0.158275
0.144
0.135923
0.135528
0.135518
0.135517
0.135517
0.135517
0.135517
0.031134
0.0291852
0.027673
0.0264569
0.0254609
0.0246368
0.0239617
0.0234201
0.0230014
0.0226955
0.0224849
0.0223532
0.0222852
0.0222679
0.0222868
0.0223381
0.0224273
0.0225574
0.0227468
0.0229914
0.0232825
0.0236115
0.0239733
0.0243713
0.0248198
0.0253325
0.0259056
0.0265345
0.0272226
0.0279872
0.0288552
0.0298364
0.0309401
0.0321918
0.0336399
0.0353467
0.0373874
0.0398848
0.043059
0.0472738
0.0531656
0.0617155
0.0740521
0.0924926
0.11952
0.141608
0.145634
0.145867
0.145952
0.146146
0.146369
0.146379
0.146309
0.146685
0.151567
0.158112
0.153581
0.138676
0.135606
0.135519
0.135517
0.135517
0.135517
0.135517
0.135517
0.0311044
0.0291705
0.0276717
0.026468
0.0254801
0.0246642
0.02399
0.0234432
0.0230128
0.0226899
0.0224665
0.0223272
0.0222572
0.022244
0.0222764
0.022341
0.0224351
0.0225649
0.0227339
0.0229611
0.023243
0.0235711
0.0239374
0.0243371
0.0247741
0.0252635
0.0258199
0.0264401
0.0271208
0.0278665
0.0286962
0.0296396
0.0307098
0.0319202
0.0333027
0.0349159
0.0368373
0.0391677
0.042075
0.0458646
0.0510534
0.0584838
0.069198
0.0847475
0.108412
0.135277
0.145024
0.145794
0.145905
0.146068
0.146297
0.146407
0.146342
0.146175
0.147612
0.154557
0.157672
0.147602
0.13629
0.135535
0.135518
0.135517
0.135517
0.135517
0.135517
0.135517
0.0310689
0.0291465
0.0276596
0.0264675
0.0254907
0.0246826
0.0240163
0.0234705
0.0230348
0.0227004
0.0224601
0.0223077
0.0222301
0.0222149
0.0222512
0.0223296
0.0224368
0.0225712
0.0227394
0.0229458
0.0232097
0.0235283
0.0238931
0.0242967
0.0247348
0.0252117
0.0257436
0.0263457
0.0270162
0.0277526
0.028561
0.0294623
0.03049
0.0316609
0.0329939
0.034529
0.0363381
0.0385201
0.0412124
0.0446493
0.04926
0.055755
0.0651149
0.0784748
0.0985601
0.125956
0.143322
0.145613
0.145825
0.146
0.146243
0.146426
0.146426
0.146362
0.146299
0.149455
0.156802
0.156989
0.140494
0.135663
0.13552
0.135517
0.135517
0.135517
0.135517
0.135517
0.135517
0.0310301
0.0291172
0.027639
0.026457
0.0254906
0.0246924
0.0240339
0.0234959
0.0230613
0.0227216
0.0224699
0.0223005
0.0222097
0.0221866
0.0222209
0.022303
0.0224242
0.0225714
0.0227441
0.0229492
0.0231919
0.0234918
0.0238466
0.0242482
0.0246896
0.0251669
0.0256853
0.0262616
0.0269123
0.0276367
0.0284336
0.0293108
0.030292
0.0314146
0.0327006
0.0341759
0.0358911
0.0379361
0.0404401
0.0435939
0.0477297
0.0534451
0.0616314
0.0732908
0.090314
0.115442
0.139207
0.145206
0.145696
0.145888
0.146168
0.146412
0.146528
0.146533
0.146326
0.146788
0.152308
0.156938
0.149412
0.136846
0.135542
0.135518
0.135517
0.135517
0.135517
0.135517
0.135517
0.135517
0.0309948
0.0290849
0.0276136
0.0264386
0.025481
0.0246924
0.0240429
0.0235129
0.023086
0.0227475
0.0224903
0.0223095
0.0222016
0.022165
0.0221913
0.0222713
0.022396
0.0225574
0.0227427
0.0229521
0.023193
0.0234713
0.0238066
0.0241976
0.0246364
0.0251164
0.0256344
0.0261962
0.0268194
0.0275221
0.0283049
0.0291682
0.0301218
0.0311927
0.0324235
0.0338426
0.0354847
0.0374152
0.0397491
0.0426589
0.0464144
0.0514869
0.0586664
0.0689214
0.0835359
0.105433
0.132074
0.144354
0.145531
0.145748
0.146036
0.146338
0.146513
0.146669
0.146473
0.146381
0.147638
0.155287
0.154674
0.142551
0.135747
0.135521
0.135517
0.135517
0.135517
0.135517
0.135517
0.135517
0.135517
0.0309628
0.0290556
0.0275854
0.0264156
0.0254639
0.0246833
0.0240428
0.0235213
0.0231026
0.0227716
0.0225158
0.0223293
0.0222098
0.0221559
0.0221685
0.0222403
0.0223628
0.0225277
0.0227273
0.0229491
0.0231939
0.0234699
0.0237832
0.0241539
0.0245814
0.0250581
0.0255781
0.0261386
0.0267462
0.0274196
0.0281786
0.0290252
0.0299619
0.0310012
0.032174
0.0335291
0.0351035
0.036944
0.0391359
0.0418299
0.0452626
0.0498189
0.0561482
0.0651771
0.0779251
0.0967147
0.122804
0.142098
0.145323
0.145612
0.145866
0.146189
0.146425
0.146611
0.146642
0.146512
0.146486
0.151035
0.15564
0.152282
0.137473
0.135553
0.135518
0.135517
0.135517
0.135517
0.135517
0.135517
0.135517
0.135517
0.0309378
0.0290291
0.0275599
0.0263901
0.0254426
0.024667
0.0240338
0.0235208
0.0231103
0.0227878
0.0225393
0.0223543
0.0222289
0.0221633
0.0221584
0.0222163
0.0223303
0.0224929
0.0226958
0.022932
0.023189
0.0234686
0.0237791
0.0241272
0.0245337
0.0249985
0.0255143
0.026076
0.0266813
0.0273377
0.0280653
0.0288856
0.0298029
0.0308217
0.0319576
0.0332473
0.0347471
0.0365049
0.0385843
0.0410991
0.0442522
0.0483747
0.0540097
0.0619749
0.0732033
0.0893483
0.113041
0.137308
0.14493
0.145517
0.145718
0.14602
0.146267
0.146468
0.146601
0.146636
0.146456
0.148512
0.153801
0.156558
0.143608
0.135863
0.135523
0.135517
0.135517
0.135517
0.135517
0.135517
0.135517
0.135517
0.135517
0.0309203
0.0290087
0.0275367
0.026367
0.0254187
0.0246465
0.0240179
0.0235116
0.0231094
0.0227952
0.0225551
0.0223773
0.0222534
0.0221817
0.0221649
0.022205
0.022305
0.0224588
0.0226593
0.0228986
0.0231701
0.0234615
0.0237753
0.0241202
0.0245035
0.0249465
0.0254495
0.0260061
0.0266117
0.0272648
0.0279738
0.0287604
0.0296483
0.0306442
0.0317556
0.0330021
0.034427
0.0360968
0.0380743
0.0404465
0.0433687
0.0471211
0.0521699
0.0592386
0.0692051
0.0832221
0.103953
0.129946
0.143852
0.145434
0.145644
0.145891
0.146118
0.146301
0.14648
0.146596
0.146532
0.146698
0.149441
0.155774
0.150787
0.138145
0.13556
0.135518
0.135517
0.135517
0.135517
0.135517
0.135517
0.135517
0.135517
0.135517
0.0309107
0.0289948
0.0275193
0.0263462
0.0253971
0.0246236
0.0239977
0.0234957
0.0230999
0.0227936
0.022562
0.0223927
0.0222759
0.0222057
0.0221827
0.0222106
0.0222924
0.022432
0.0226234
0.0228603
0.0231346
0.0234406
0.0237659
0.0241138
0.0244934
0.0249125
0.0253927
0.0259356
0.0265352
0.0271874
0.0278919
0.0286581
0.0295095
0.0304726
0.031557
0.0327737
0.0341478
0.035731
0.0376034
0.039848
0.0425859
0.0460347
0.050587
0.0568807
0.0657552
0.078114
0.0960677
0.12107
0.14111
0.145205
0.145578
0.145813
0.146042
0.146192
0.146352
0.146525
0.146581
0.146656
0.146469
0.152547
0.154772
0.145216
0.135951
0.135521
0.135517
0.135517
0.135517
0.135517
0.135517
0.135517
0.135517
0.135517
0.135517
0.0309076
0.0289881
0.0275077
0.0263305
0.0253778
0.0246028
0.0239752
0.0234755
0.0230837
0.0227836
0.0225598
0.0223992
0.0222909
0.0222278
0.0222062
0.0222275
0.022297
0.0224181
0.0225951
0.0228225
0.0230944
0.023403
0.0237428
0.0241019
0.024484
0.0248988
0.0253547
0.0258737
0.0264585
0.0271035
0.0278059
0.0285662
0.0293951
0.0303185
0.0313659
0.0325508
0.0338886
0.0354113
0.0371822
0.0392991
0.0418746
0.0450805
0.0492266
0.0548584
0.0627634
0.0737757
0.0893766
0.11206
0.136067
0.144631
0.145441
0.145712
0.145976
0.146163
0.146301
0.146445
0.14657
0.146703
0.146558
0.149266
0.154398
0.153739
0.138439
0.135563
0.135518
0.135517
0.135517
0.135517
0.135517
0.135517
0.135517
0.135517
0.135517
0.135517
0.0309083
0.0289869
0.0275025
0.0263203
0.0253631
0.0245842
0.0239547
0.0234531
0.0230632
0.022767
0.0225493
0.0223965
0.0222969
0.0222424
0.0222277
0.0222505
0.0223131
0.0224216
0.0225797
0.0227925
0.0230546
0.0233606
0.0237028
0.0240763
0.0244694
0.0248863
0.0253372
0.0258311
0.0263909
0.02702
0.0277139
0.0284707
0.0292921
0.0301904
0.0311943
0.0323372
0.0336371
0.0351156
0.0368137
0.0388099
0.0412274
0.0442221
0.0480416
0.0531269
0.0601873
0.0700502
0.0837637
0.103779
0.128972
0.143352
0.145258
0.145559
0.145848
0.146095
0.146268
0.14641
0.146555
0.146696
0.146513
0.147864
0.151493
0.155218
0.144915
0.136016
0.135523
0.135517
0.135517
0.135517
0.135517
0.135517
0.135517
0.135517
0.135517
0.135517
0.135517
0.0309161
0.0289888
0.0275025
0.0263161
0.0253537
0.0245702
0.0239363
0.0234325
0.0230405
0.0227459
0.0225321
0.0223853
0.0222937
0.0222479
0.0222419
0.0222715
0.0223355
0.0224367
0.022582
0.0227756
0.0230228
0.0233187
0.0236582
0.0240338
0.0244411
0.0248685
0.0253212
0.0258096
0.0263433
0.0269462
0.0276228
0.0283696
0.0291858
0.0300747
0.0310505
0.0321454
0.0333975
0.0348305
0.036474
0.0383816
0.040653
0.0434479
0.0469866
0.0516278
0.0579717
0.0668192
0.0790159
0.0965529
0.120739
0.140592
0.144996
0.145421
0.145675
0.145942
0.146158
0.146357
0.146527
0.14667
0.146534
0.146531
0.147852
0.154253
0.150183
0.138792
0.13556
0.135518
0.135517
0.135517
0.135517
0.135517
0.135517
0.135517
0.135517
0.135517
0.135517
0.135517
0.0309277
0.0289971
0.0275053
0.0263166
0.0253499
0.0245611
0.0239224
0.023414
0.0230195
0.0227227
0.0225104
0.0223675
0.0222819
0.0222441
0.0222469
0.0222852
0.0223559
0.0224585
0.0225962
0.0227766
0.0230042
0.023285
0.0236139
0.0239866
0.0243957
0.0248372
0.0253001
0.0257897
0.0263173
0.0268931
0.0275421
0.0282699
0.0290745
0.0299564
0.0309204
0.0319837
0.0331823
0.0345601
0.036149
0.0379887
0.0401503
0.0427644
0.0460446
0.0503064
0.0560551
0.0640139
0.0749622
0.0903513
0.112457
0.135811
0.144483
0.145328
0.145558
0.14578
0.145978
0.146205
0.14641
0.146607
0.146652
0.146625
0.146317
0.151154
0.153433
0.145927
0.135998
0.135522
0.135517
0.135517
0.135517
0.135517
0.135517
0.135517
0.135517
0.135517
0.135517
0.135517
0.135517
0.030943
0.0290088
0.0275137
0.0263198
0.0253506
0.0245574
0.0239133
0.0233998
0.0230006
0.0227011
0.0224865
0.0223451