/*--------------------------------*- C++ -*----------------------------------*\
| =========                 |                                                 |
| \\      /  F ield         | OpenFOAM: The Open Source CFD Toolbox           |
|  \\    /   O peration     | Version:  v2012                                 |
|   \\  /    A nd           | Website:  www.openfoam.com                      |
|    \\/     M anipulation  |                                                 |
\*---------------------------------------------------------------------------*/
FoamFile
{
    version     2.0;
    format      ascii;
    class       volScalarField::Internal;
    location    "0";
    object      Rstream;
}
// * * * * * * * * * * * * * * * * * * * * * * * * * * * * * * * * * * * * * //

dimensions      [0 0 -1 0 0 0 0];


value           nonuniform List<scalar> 
39402
(
0
0
0
0
0
0
0
-2.44915e-20
0
0
0
-1.52027e-20
1.00141e-18
9.26668e-17
0
1.15436e-21
-2.17148e-20
0
7.27477e-19
-1.79434e-17
-3.3603e-15
0
4.01395e-22
-7.12262e-20
0
3.53678e-18
-5.37893e-16
5.54623e-15
0
4.31963e-21
-1.99053e-20
-4.05729e-20
2.51597e-19
7.65481e-18
7.77591e-17
0
0
0
2.66223e-21
-1.30412e-20
0
4.85221e-19
4.02643e-18
8.67081e-16
0
0
0
0
-2.84664e-20
5.25534e-20
2.33578e-19
-8.76716e-19
0
-8.13083e-16
0
4.6235e-21
0
0
0
-2.24823e-20
-6.57684e-20
1.99539e-19
-2.90018e-18
0
4.22639e-16
0
0
9.12626e-22
0
0
0
0
-1.96872e-19
0
-1.87641e-18
2.02898e-17
0
0
0
0
-6.55869e-21
0
1.54483e-20
0
0
7.28499e-20
0
2.93914e-18
-2.77597e-17
0
-3.82136e-14
0
0
0
-2.57329e-20
0
1.2824e-20
1.33469e-20
1.13629e-19
2.32878e-19
0
2.66178e-18
9.53034e-18
3.23096e-16
3.73767e-14
0
0
0
-2.59051e-22
-4.476e-20
7.14447e-21
0
3.76836e-20
1.01946e-19
7.85894e-20
0
0
4.27992e-17
6.54004e-16
0
0
0
0
1.50995e-20
1.8968e-22
-2.5564e-20
7.82983e-21
-3.23716e-20
9.37596e-20
0
0
0
8.98517e-18
-6.15768e-17
1.0634e-15
0
-6.32456e-22
2.17022e-21
-7.50554e-21
0
-7.3706e-21
-3.32402e-20
0
-3.83862e-21
-2.81164e-20
0
1.31483e-20
0
0
5.62436e-18
-5.69736e-17
7.04141e-16
0
1.20693e-21
3.50714e-22
-4.70472e-21
-5.48052e-21
-2.40852e-20
3.32767e-20
-1.0597e-19
-3.86365e-21
0
-2.12679e-20
1.75133e-19
1.22284e-20
0
0
-2.07988e-17
-7.01671e-17
-8.36466e-16
0
0
4.21577e-22
3.53468e-22
-4.41582e-21
-2.33814e-20
-1.9828e-20
4.252e-20
-6.82279e-20
1.11299e-19
0
-2.0825e-20
9.74255e-20
-1.90951e-20
-1.93068e-18
0
0
-6.5748e-17
-8.1123e-16
0
-7.38378e-21
0
6.96874e-21
-1.52129e-20
0
-1.92427e-20
0
0
-7.07679e-22
1.01666e-19
0
0
-8.35995e-20
7.92592e-19
-4.52488e-18
1.51152e-17
0
0
0
0
0
-1.80458e-21
-7.66915e-23
5.09114e-21
-1.20427e-20
0
6.66829e-20
8.09751e-20
1.79488e-19
0
0
-1.42314e-20
-2.50944e-19
-4.63064e-19
7.50062e-19
1.00324e-18
1.42804e-17
0
-1.56463e-16
1.09283e-15
0
-1.56137e-21
0
3.24759e-22
0
0
-4.93351e-20
-2.06939e-22
5.89473e-20
7.3858e-20
3.73417e-19
-2.79341e-19
-3.57397e-19
0
-2.37098e-19
-1.13786e-18
-1.64995e-18
-1.13154e-18
0
0
1.03994e-17
1.07279e-15
-2.96211e-14
0
-1.75265e-22
4.05951e-22
0
0
0
-1.00634e-19
2.71978e-22
2.34113e-22
0
1.938e-19
-2.60743e-19
-3.21903e-19
0
8.43667e-21
-6.65267e-19
-1.57274e-18
-9.91969e-18
0
-2.15238e-18
1.56011e-16
9.80555e-18
2.28782e-14
-9.64543e-22
3.7338e-22
3.89543e-22
9.29585e-21
2.86922e-20
-1.90822e-23
-6.29046e-22
-5.10481e-20
3.15543e-22
0
0
2.82084e-19
6.20409e-22
0
-8.54872e-21
0
0
0
-5.29853e-18
-3.00849e-17
0
1.26993e-17
-1.88687e-16
0
0
1.55067e-22
-4.82565e-21
9.73403e-21
-1.86597e-20
2.27543e-20
4.9831e-20
-7.10511e-22
-1.49916e-19
-1.7244e-19
-2.311e-19
-1.1117e-21
2.66297e-19
-4.26589e-19
-5.41622e-19
-1.74187e-20
-1.68643e-18
0
-7.4983e-18
0
-2.87281e-17
0
-1.36992e-16
5.40664e-16
0
2.80784e-22
-7.64004e-22
-5.30001e-21
-4.0584e-21
8.21373e-21
1.00314e-20
0
4.39182e-20
1.52434e-19
-1.36747e-19
-3.58937e-19
4.63866e-20
-3.25513e-19
2.40292e-21
-4.07837e-19
-5.18637e-19
0
5.88002e-19
0
-7.25938e-18
1.04162e-19
0
0
-1.3431e-16
3.70042e-16
0
7.0752e-22
-5.04555e-22
-4.04748e-22
-4.12051e-21
-1.39215e-20
0
2.80988e-20
9.4334e-20
5.03672e-22
-3.08125e-20
-1.96497e-19
-1.85419e-19
2.44478e-19
-3.10127e-19
2.4249e-21
5.40291e-21
0
0
2.1272e-18
0
1.07221e-19
-2.28899e-17
0
0
0
3.57261e-16
-1.21737e-15
-1.53504e-22
-5.85946e-21
-2.43577e-22
1.73066e-22
-1.2693e-20
-1.12997e-20
-4.04073e-20
-9.13876e-20
1.95121e-19
-1.4438e-19
3.39427e-20
-1.83279e-19
-2.52844e-19
-2.18811e-21
2.44814e-21
5.88841e-21
0
0
-2.21469e-18
0
-7.47851e-18
1.50357e-17
-2.19967e-17
0
0
-1.05323e-17
2.54757e-17
2.0069e-15
-8.40924e-22
-5.65664e-21
-9.46662e-21
-7.10652e-21
1.01466e-22
-9.83117e-21
-3.30704e-22
-3.42021e-20
-8.02972e-20
9.89019e-20
-2.99408e-19
1.79291e-19
0
-2.37766e-19
-7.47809e-19
0
4.62903e-21
0
-2.01691e-18
-2.12615e-18
-4.40145e-22
-7.12937e-18
1.44017e-17
0
0
-7.15672e-17
0
-3.13802e-16
0
8.832e-23
-2.93707e-22
-2.00104e-21
-4.51686e-21
-1.5141e-20
0
-1.40634e-21
4.39325e-20
0
1.19964e-19
0
3.33453e-20
4.78287e-19
-5.52017e-19
6.40714e-19
-7.18606e-19
1.43188e-21
0
0
-4.30042e-18
3.36386e-18
5.89075e-18
-1.17188e-17
0
3.53709e-17
0
-7.03679e-17
3.06039e-16
1.3969e-16
0
-1.13676e-22
3.0845e-23
-2.41924e-22
9.72063e-21
0
1.51132e-20
-8.33562e-22
7.97197e-22
3.78306e-20
1.19964e-19
1.10795e-19
-8.86653e-22
-2.4394e-19
4.52403e-19
-1.14026e-18
-1.11896e-19
-8.24038e-21
-1.18703e-18
-3.87356e-21
2.62758e-21
5.02718e-19
3.30755e-18
-1.70939e-18
-1.133e-17
0
3.38305e-17
0
0
3.04452e-16
4.69761e-16
0
2.17255e-22
-5.36901e-23
-4.13357e-23
-4.17309e-21
1.7781e-20
7.41522e-22
-6.31326e-21
0
-7.89598e-20
-1.05339e-19
1.10776e-19
-1.52794e-19
3.51526e-19
-3.97193e-19
-5.29604e-21
9.68152e-20
-6.95974e-19
-1.05071e-18
-2.49517e-18
-1.6684e-18
-2.31191e-18
2.75927e-18
5.20234e-18
-7.16274e-18
0
-4.18354e-19
0
5.39313e-17
0
0
-3.59731e-16
0
2.6916e-24
5.73535e-22
3.31294e-22
2.41212e-22
5.86387e-21
8.987e-21
1.00321e-21
-2.40224e-20
-7.52952e-20
-1.63838e-19
-9.6292e-20
-2.9552e-23
-1.46273e-19
3.39153e-19
-5.31268e-19
-5.48345e-21
6.54817e-19
0
-1.01906e-18
-2.80959e-18
-1.61581e-18
4.30144e-19
3.4581e-20
5.03492e-18
2.28241e-17
-3.28995e-19
0
5.85158e-19
2.66372e-17
0
0
2.089e-17
0
-2.50386e-23
0
5.86108e-22
-2.07304e-21
-5.47297e-22
7.48284e-21
2.31062e-20
0
-7.3833e-20
-6.9428e-20
1.71736e-20
-1.31638e-19
-3.23251e-19
3.43919e-21
3.23538e-21
-5.11187e-19
-7.27212e-19
0
1.00739e-18
0
-1.4718e-18
-2.5459e-20
2.62211e-18
-3.16439e-20
1.58051e-17
-6.03179e-18
2.24423e-17
6.05268e-19
-8.3075e-20
-2.54559e-17
-1.85702e-16
0
-9.43524e-16
0
2.04488e-22
0
7.93537e-22
-4.01362e-22
-2.24893e-21
6.01517e-22
-1.07285e-21
2.11862e-20
-2.14163e-22
-6.51281e-20
-9.72881e-20
9.33202e-20
-1.19397e-19
-6.71853e-19
-4.0795e-19
-4.97828e-19
6.441e-19
-7.05395e-19
0
9.73972e-19
-2.97881e-18
-3.89441e-18
0
-3.20491e-20
4.52692e-20
1.53576e-17
5.92073e-18
-2.66925e-18
9.89071e-19
-4.57427e-17
0
-1.85132e-16
3.44646e-18
0
0
0
6.13245e-23
2.20398e-22
-3.01196e-23
2.61023e-21
-7.64462e-21
-1.43928e-21
-2.4392e-20
1.02177e-21
3.5268e-21
-9.38453e-20
-9.09437e-20
0
3.18019e-19
5.83436e-20
-3.9258e-19
-4.80427e-19
6.17144e-19
-1.23002e-20
1.03739e-18
2.51957e-18
-2.88173e-18
6.43569e-19
0
8.76644e-20
0
2.37447e-17
-5.8083e-18
-5.18733e-17
8.51798e-19
-4.44544e-17
-5.05817e-19
0
0
0
0
-7.45568e-24
-4.77731e-23
0
-2.08235e-21
0
2.52769e-21
2.33463e-21
-2.48075e-20
-2.2425e-20
9.16553e-22
0
-8.77272e-20
1.22387e-19
2.39206e-21
6.6599e-19
3.76025e-19
4.96008e-19
6.02303e-19
-1.24122e-20
0
1.00406e-18
5.28531e-18
-3.78794e-18
-7.66822e-19
6.96633e-18
0
1.37229e-19
2.29411e-17
-3.69188e-17
-9.66468e-17
6.71151e-19
-5.08434e-19
1.58909e-17
-3.00882e-18
1.0575e-17
0
-7.04325e-18
-8.63294e-23
-5.05994e-23
4.57753e-22
-6.57427e-22
-8.32475e-22
-3.4227e-21
4.63457e-22
9.53894e-21
-5.27703e-20
-2.30757e-21
-7.41956e-20
9.63336e-20
0
1.18089e-19
-3.14809e-21
-5.31758e-20
9.58077e-21
4.74255e-19
5.89243e-19
-8.69408e-19
-1.45045e-20
-2.55606e-18
5.89208e-18
5.75654e-19
-4.91773e-18
6.74862e-18
8.08439e-20
-2.10388e-17
0
4.53243e-17
-1.44633e-16
3.94581e-17
3.04602e-18
-1.51407e-17
4.65234e-18
0
-6.48128e-18
-1.11456e-16
4.76676e-24
5.5365e-23
-3.03414e-22
-7.44106e-22
2.468e-21
0
-4.01752e-21
0
-7.11007e-22
-6.05827e-20
0
-6.91319e-20
9.31793e-20
0
-4.04414e-22
0
-3.69196e-19
9.05794e-21
-5.97834e-19
0
-8.55938e-19
1.39775e-20
3.6011e-19
6.64499e-18
4.18059e-18
0
0
0
-2.06701e-17
6.21939e-19
-9.6049e-18
-1.45501e-16
3.72244e-17
2.33347e-18
-2.79478e-17
0
3.35731e-17
-6.37499e-16
-4.03579e-17
-1.00468e-23
-1.37234e-23
-3.00176e-22
-7.90749e-23
-5.9421e-22
1.64171e-21
3.86654e-21
-1.11713e-20
-9.79982e-22
7.04241e-23
-2.89974e-20
0
1.42831e-21
2.84394e-21
-4.07446e-22
-3.26671e-19
0
4.86916e-19
8.63479e-21
-5.80157e-19
0
-1.17431e-20
0
2.76993e-18
3.49288e-18
0
6.31101e-20
0
-7.61936e-20
-2.96216e-17
-3.99223e-17
-1.16437e-16
-7.01721e-17
1.7941e-18
0
0
0
7.71583e-17
-1.294e-15
0
1.00861e-23
6.78602e-23
-8.02697e-23
2.82451e-22
-5.34855e-22
5.21579e-23
-4.84141e-21
4.43372e-21
-1.09992e-20
-4.19111e-22
1.43533e-21
8.0672e-20
-1.30779e-21
1.0867e-19
0
3.1442e-19
-3.13812e-19
-4.22555e-19
1.00072e-18
6.19284e-19
1.44343e-18
-2.60671e-20
-1.41363e-20
-2.89546e-18
-1.36504e-20
0
6.38393e-20
0
1.37774e-17
-5.8593e-19
-2.93863e-17
6.33604e-18
-1.27602e-16
-2.1998e-18
2.97622e-16
-2.45024e-16
-1.05262e-16
6.40602e-18
-1.00318e-16
-6.17886e-16
0
-4.05314e-23
-5.14945e-23
3.95115e-22
0
5.03965e-22
-6.0898e-23
0
-2.87288e-21
0
-4.92725e-22
-1.00203e-21
-3.94824e-20
7.63877e-20
1.00471e-19
1.00496e-19
-2.98211e-21
-4.26773e-20
3.88451e-21
-8.74188e-19
5.13745e-19
5.97916e-19
1.40259e-18
-1.4978e-20
-2.54352e-18
-2.79915e-18
1.13079e-20
5.20794e-18
0
-1.08928e-17
2.94348e-17
-4.17607e-19
4.77087e-19
4.33015e-17
3.72202e-17
-8.37444e-19
-3.33378e-18
2.23987e-16
1.06242e-16
-2.60091e-18
0
-4.26974e-16
3.66054e-17
2.01544e-22
-1.30893e-23
0
-6.60449e-22
0
8.15616e-23
1.18548e-21
1.39013e-21
0
1.40714e-20
-1.00744e-21
8.08566e-22
-3.59288e-20
2.55153e-21
9.54195e-20
-1.36007e-19
0
-3.26476e-19
4.25639e-19
-4.42012e-19
1.25083e-18
0
3.20335e-21
0
-2.44724e-18
-3.55141e-18
2.03219e-20
5.07221e-18
-2.69809e-19
-2.31426e-17
-2.28277e-17
-7.03084e-19
0
0
1.02388e-16
-4.28528e-16
1.13331e-19
4.67274e-19
-1.34318e-16
-1.5134e-17
4.2497e-17
-4.32161e-16
9.09077e-18
2.92012e-22
2.08897e-22
-6.38985e-22
1.40525e-22
-6.72176e-22
-4.85392e-22
3.15097e-21
0
1.2278e-21
-6.51262e-21
3.03904e-20
1.03304e-21
-3.97116e-20
1.89662e-21
0
-1.17891e-19
-1.27324e-19
6.37586e-21
4.03708e-19
4.16668e-19
0
1.21437e-18
2.27706e-20
0
0
-3.67967e-20
4.88002e-19
0
-1.77334e-19
0
-1.23905e-17
-8.4301e-17
-6.0573e-17
0
-1.00749e-16
1.27841e-17
-3.11756e-18
-1.07965e-19
0
-2.01905e-18
-5.95803e-16
-3.53854e-16
-1.4859e-17
0
-1.73805e-22
2.07615e-22
9.09547e-22
-4.67182e-22
-1.38856e-22
0
0
1.72334e-21
0
1.34422e-21
-1.14219e-20
3.35439e-20
1.44751e-21
-8.20732e-20
1.02111e-19
4.08753e-21
-2.5893e-19
6.41672e-21
3.80591e-19
3.9005e-19
5.07394e-19
1.21928e-18
1.22853e-21
-1.7624e-18
2.09651e-18
-4.60679e-20
3.42893e-18
3.79757e-18
-5.01282e-20
-9.05198e-20
0
-4.06639e-19
-4.34541e-17
-1.26583e-16
-2.75367e-19
-1.01596e-16
1.52209e-16
-3.31967e-18
-4.29714e-18
-8.15173e-16
1.36199e-16
0
-2.21738e-16
1.06304e-16
0
0
-5.4642e-23
-5.3276e-23
7.03724e-22
-3.30309e-22
0
4.05685e-21
-4.47371e-21
0
-2.52018e-21
0
-1.27305e-20
1.7513e-20
3.98954e-20
-8.82677e-20
-1.39076e-20
1.25523e-19
-1.26393e-19
1.33052e-21
3.54765e-19
-3.56417e-22
4.91825e-19
1.17109e-18
1.62268e-18
-3.66734e-18
2.03862e-18
0
-6.30922e-19
-1.46281e-19
-9.15225e-20
1.15958e-19
0
-4.18769e-19
3.06081e-19
-6.46741e-17
1.51931e-19
-9.8814e-20
-1.34923e-19
-2.92397e-18
-4.44821e-18
3.37209e-17
-7.48477e-18
1.48242e-18
0
5.18924e-17
0
0
8.64019e-22
0
-2.26222e-21
2.11638e-21
1.0623e-22
0
4.29472e-21
-4.0071e-21
4.18922e-22
-4.15077e-21
0
-7.41044e-21
-2.92365e-21
3.77338e-20
-4.506e-20
-1.05086e-19
2.68659e-19
1.6021e-19
-1.31261e-20
-1.31303e-20
-1.06737e-20
2.77102e-21
-7.29521e-22
1.56347e-18
-1.92346e-18
0
3.13855e-18
-8.17775e-18
1.11946e-17
3.47748e-20
0
-3.29329e-17
-5.85876e-19
0
-8.43078e-17
5.66844e-17
-5.13945e-18
0
-4.3164e-18
5.83651e-16
8.4754e-17
1.48299e-18
0
-1.95617e-16
-5.32299e-17
0
0
-5.8818e-22
5.65351e-22
-2.77821e-21
3.0318e-21
1.55034e-21
0
-5.97692e-21
-1.06585e-20
-1.32684e-20
0
7.80281e-21
9.06414e-22
0
-2.93161e-20
0
1.12995e-21
0
-2.02501e-20
1.5672e-19
-1.32098e-20
-1.20367e-20
1.9174e-21
-3.32133e-21
2.42138e-21
-3.99473e-20
-2.32027e-18
-2.1128e-20
3.02454e-18
-4.38227e-18
1.09921e-17
0
0
-3.18125e-17
-1.13172e-18
-3.68376e-18
-8.09071e-17
5.38815e-17
-5.69942e-18
2.24842e-18
-4.75275e-18
-4.14957e-16
0
0
4.97713e-16
-1.95552e-16
0
2.31159e-19
-1.75897e-23
2.87658e-22
-3.32674e-22
0
-2.13133e-21
9.42553e-21
5.20484e-21
1.26757e-21
-1.60965e-20
-9.69427e-21
-1.0631e-20
3.58117e-21
6.36611e-21
4.01503e-21
2.55299e-21
-2.54008e-20
5.17172e-20
-6.02304e-20
0
1.774e-20
-5.1275e-21
4.53396e-19
0
-2.60353e-21
2.43768e-21
0
0
3.02876e-19
-3.89843e-20
-1.07618e-19
1.08863e-17
-1.44744e-17
-2.67984e-19
-4.69282e-19
-4.3745e-17
5.3588e-17
0
0
-2.18657e-18
-3.8378e-16
1.81144e-18
3.55155e-18
-4.97787e-17
1.05245e-16
-7.95983e-18
2.32622e-16
0
-7.94789e-19
1.05773e-19
0
-1.19944e-22
-7.8934e-22
1.31097e-24
0
0
-2.01611e-21
4.57179e-21
0
-8.1442e-21
-7.99217e-22
1.25163e-21
0
4.20157e-21
9.6336e-23
-8.10655e-21
-2.83615e-21
5.23969e-20
6.95212e-21
1.55413e-19
1.54724e-19
-3.88855e-21
-5.11497e-20
0
1.33449e-18
1.53275e-18
-1.8608e-18
-3.1235e-21
2.49988e-18
3.48255e-18
1.19279e-19
2.30771e-17
-1.50567e-17
-2.50844e-17
-3.5919e-17
-3.95601e-17
5.28349e-17
6.97154e-17
-7.29721e-19
-5.58063e-16
1.02318e-15
-1.83393e-17
3.30477e-18
-3.28489e-17
1.7642e-16
-3.25702e-18
3.77709e-16
-1.21766e-18
-1.03213e-18
-2.53508e-19
0
9.93714e-23
4.31261e-23
-1.54339e-21
0
0
-5.37305e-22
-5.66091e-21
0
0
6.86267e-22
-1.64361e-21
3.22101e-20
-2.6938e-20
0
-1.38919e-20
0
0
-2.66821e-21
-3.93534e-21
-1.28683e-20
-1.96874e-19
-3.84546e-21
5.4556e-20
6.55908e-19
1.25723e-18
-1.55012e-19
-1.88022e-18
0
-3.06441e-18
3.34207e-18
0
2.53952e-17
3.11777e-20
-5.25226e-17
-7.14336e-17
0
0
6.73649e-17
-1.63731e-18
-1.59222e-18
-1.42023e-16
3.38037e-16
0
0
1.61268e-17
7.17988e-18
2.4915e-17
-4.10624e-17
1.93075e-18
7.2954e-21
-3.03407e-23
5.55291e-23
1.51646e-22
6.87418e-22
-9.7305e-22
-5.67313e-21
0
1.8378e-20
0
1.45672e-20
1.98391e-21
-1.30423e-21
0
3.10577e-20
-2.95668e-20
-4.33975e-21
1.84067e-20
1.36923e-20
-2.67878e-21
0
1.14794e-20
-1.54824e-19
-1.90595e-19
-4.8418e-19
5.3199e-19
1.25002e-18
-1.54014e-18
-1.63103e-18
4.16249e-20
4.94129e-20
-3.12782e-18
0
-2.9885e-19
-1.70958e-18
0
-2.75935e-17
-3.85497e-17
0
0
1.66358e-17
-2.23535e-19
-2.26879e-18
-3.08158e-18
1.81579e-18
0
9.71959e-18
-3.78686e-17
-9.64657e-18
-3.31817e-16
-3.41204e-17
3.22166e-18
-4.31891e-20
0
2.87245e-22
-8.82401e-23
5.308e-23
2.7772e-22
-1.52667e-21
-4.86149e-21
-6.92037e-22
1.64512e-20
0
1.26991e-20
4.07425e-20
0
-6.92905e-20
-3.70804e-20
-4.35127e-21
-3.30758e-21
2.08473e-20
-1.65029e-20
-5.27344e-22
-4.90027e-21
8.10811e-20
-1.90011e-19
2.25795e-19
4.98602e-20
0
6.54265e-19
1.88459e-19
4.19002e-20
5.11108e-20
0
0
0
3.38568e-19
-1.58649e-17
0
-3.25675e-19
0
5.81615e-17
0
1.70537e-17
-2.12338e-18
-2.14672e-18
2.00054e-18
-2.15101e-19
1.47399e-18
2.51554e-17
-1.36961e-17
6.27609e-18
1.34954e-16
0
1.95954e-18
0
0
-3.05676e-23
7.36796e-23
8.94869e-23
-2.50127e-21
-5.41821e-22
8.05288e-21
-1.5523e-20
8.44688e-22
0
-8.59015e-22
-3.52896e-20
3.82095e-20
4.3884e-21
-6.57266e-20
-3.59681e-20
0
0
0
-2.86834e-20
-5.4292e-21
-1.15401e-21
0
-1.72407e-19
2.13947e-19
5.10868e-19
6.59629e-19
2.40551e-20
1.63825e-18
5.14495e-20
0
0
-8.64032e-18
-1.12878e-17
0
-8.79131e-19
5.85272e-20
0
1.91339e-18
5.73483e-17
1.27154e-17
2.22056e-18
2.93674e-19
-3.82692e-18
-2.43873e-18
0
1.14007e-17
-8.23944e-18
0
-2.8859e-16
1.34954e-16
-2.62206e-19
-6.52756e-19
0
0
4.74267e-22
0
-2.27747e-21
5.43671e-22
-1.66739e-21
-8.28269e-22
8.21784e-21
-1.24272e-20
-2.2542e-20
-1.53728e-23
0
-3.30963e-20
4.39438e-21
0
0
8.82264e-20
-8.83216e-20
0
5.68253e-20
-6.94095e-20
-4.6808e-21
0
1.03638e-20
-4.05733e-21
-2.53588e-19
6.00214e-19
6.54756e-19
0
-5.08682e-20
3.95391e-20
2.96492e-18
7.55508e-18
-8.48606e-18
-1.10846e-17
-8.88913e-19
-2.21895e-18
0
1.9377e-18
-2.18137e-18
-2.63406e-18
1.39607e-17
-3.2166e-16
-6.34918e-19
-8.84677e-16
4.4376e-19
-5.55271e-16
-5.13035e-17
0
3.54242e-18
-2.82971e-16
2.06736e-17
-1.61343e-20
1.07304e-19
1.77147e-23
2.0986e-22
4.46299e-23
-1.01413e-21
-3.19058e-22
-4.9107e-22
0
0
0
-1.05406e-20
0
-2.07671e-20
-2.26281e-23
2.86787e-21
0
-5.44896e-20
4.876e-21
-7.67389e-21
8.59712e-20
1.91854e-20
-9.27372e-20
-6.34013e-20
-4.19769e-20
-7.6623e-21
-8.37844e-21
6.89942e-21
1.82085e-20
-2.43803e-19
5.86819e-19
-7.51339e-19
-5.11623e-20
-2.12433e-18
-4.60127e-20
6.19588e-18
7.72985e-18
-3.37965e-19
-3.83266e-19
-2.17491e-17
0
0
-2.20775e-18
-2.65726e-18
0
1.95667e-16
-2.50921e-19
-9.37855e-19
-3.4256e-17
6.23732e-18
5.3915e-16
8.3587e-17
-7.83317e-17
1.84616e-17
0
2.56894e-17
0
-9.537e-20
2.17647e-23
1.19316e-22
6.83809e-23
0
-4.27664e-21
-6.96929e-21
0
1.45985e-20
5.07201e-22
-3.29518e-21
-4.07343e-20
-9.69366e-22
5.45142e-20
2.87039e-21
3.04788e-21
-3.71348e-21
-1.06167e-19
-7.52965e-20
9.6219e-20
-9.37627e-20
1.0116e-19
1.74148e-20
-1.0574e-19
1.80723e-20
-8.4072e-21
6.92482e-21
1.94124e-20
2.11393e-20
-8.13099e-21
-6.77512e-19
1.12002e-19
6.47859e-20
-2.17114e-18
5.35416e-20
3.73468e-18
-3.40765e-19
-7.768e-19
4.68e-19
-2.03423e-17
0
-3.13106e-18
0
0
-4.18886e-18
-2.20626e-16
-2.50946e-19
-2.9211e-17
0
0
3.7789e-18
1.61143e-16
8.83426e-17
2.27899e-16
7.02474e-17
9.10357e-19
0
-9.52173e-22
-3.57817e-23
2.12992e-22
-1.70497e-23
9.80956e-22
1.6352e-22
-2.9352e-21
-6.20412e-21
1.23759e-20
1.43596e-20
0
-1.0644e-20
-2.82075e-20
-4.58717e-20
1.10203e-19
2.97989e-21
-2.89512e-21
-1.12272e-19
-4.62248e-20
-7.47236e-20
-1.20567e-19
-9.85928e-20
-8.31227e-21
7.96806e-20
1.5816e-19
-1.98799e-19
0
1.19644e-19
-1.57834e-20
-1.37312e-19
3.46068e-19
-6.58498e-19
8.53073e-19
6.87569e-20
5.38794e-20
3.23851e-19
0
-3.93318e-19
4.72548e-19
-5.68699e-19
0
2.85638e-17
0
3.93351e-18
-1.14613e-18
2.09143e-16
0
-3.99119e-19
0
-2.38451e-18
1.97138e-17
1.71023e-17
-8.09277e-17
-1.28772e-16
2.41982e-16
6.87875e-17
-5.77887e-19
8.11508e-20
-1.93073e-21
0
-4.92172e-23
-1.31816e-23
-6.11272e-22
6.81786e-22
-3.04307e-22
4.09484e-22
0
1.32224e-20
0
0
-5.60228e-21
0
-4.55854e-20
5.87552e-20
-1.37762e-19
0
-1.06568e-19
0
-8.32957e-21
-4.15052e-19
-8.32739e-21
5.49906e-22
-1.23173e-20
1.01309e-19
-1.68382e-19
7.5627e-21
2.15546e-19
-1.38364e-20
-1.11706e-19
3.43656e-19
-8.62994e-19
1.05947e-18
1.47258e-19
-8.90258e-21
-3.56738e-18
2.65403e-19
0
-5.74456e-19
-2.2412e-17
2.54916e-17
-3.64463e-18
3.97057e-18
-3.51386e-17
5.4043e-17
0
-3.99409e-19
0
3.98592e-16
2.93764e-18
2.91258e-17
0
-4.40945e-17
2.52687e-18
2.42457e-17
-4.87861e-18
-7.41177e-20
-7.00683e-20
1.58596e-21
0
0
9.38408e-23
0
-1.22953e-21
5.65816e-21
9.67098e-21
0
2.49092e-20
-1.63016e-21
1.4071e-20
2.11986e-20
1.56522e-20
-4.70261e-20
3.08266e-21
-3.294e-21
-2.79697e-19
1.4193e-19
-1.35442e-19
-2.2031e-21
1.13931e-20
-2.02511e-19
1.85414e-20
-2.60517e-19
-2.93624e-19
-1.43009e-20
-2.68203e-20
0
-1.16905e-19
1.56249e-20
2.66976e-20
3.76984e-19
-8.64071e-19
1.1211e-18
-2.94398e-19
0
-3.2404e-18
-3.08193e-19
1.52314e-17
0
1.76993e-18
5.67655e-17
-3.43597e-17
5.71099e-17
-4.22699e-17
7.55936e-18
0
-7.55303e-17
3.35647e-19
-2.38899e-16
-1.22603e-16
2.91337e-17
-6.1084e-17
-7.33101e-17
3.19962e-18
-9.36571e-17
-1.38331e-19
-3.70032e-19
-3.98719e-21
-1.60956e-23
0
-7.59868e-23
0
1.40718e-22
-5.86546e-22
-2.67514e-21
5.56376e-21
1.72849e-20
0
1.93169e-20
0
1.18735e-20
-7.35482e-21
1.16673e-20
-3.6574e-20
-3.29505e-21
0
1.76853e-20
1.36294e-19
-1.32664e-19
1.14032e-20
2.05483e-20
2.5155e-19
2.71335e-19
-2.53662e-19
-2.73737e-19
-2.68892e-20
-4.78706e-19
-4.7369e-19
-4.81858e-19
-1.46937e-19
0
3.14621e-19
6.60739e-20
-1.45378e-18
2.8784e-18
0
-3.10477e-19
9.99298e-19
-2.36593e-18
1.58717e-18
2.38207e-17
-3.34946e-18
-3.37684e-18
5.81673e-17
2.09581e-16
-4.41421e-17
3.1697e-19
6.53925e-17
5.26408e-18
0
2.42629e-16
-9.07616e-17
-8.50016e-17
3.04145e-17
1.49456e-16
-3.64695e-17
7.82307e-19
-4.55056e-20
4.3129e-21
-6.55917e-24
0
0
-2.32835e-23
-9.27334e-23
1.70404e-22
7.46433e-22
-1.73604e-21
-7.6904e-21
8.99021e-21
2.73435e-20
0
0
0
-2.36353e-20
0
-9.1824e-20
1.32077e-19
-1.61435e-19
1.53328e-19
0
0
9.3917e-21
2.4058e-20
2.25898e-19
2.63986e-19
1.39611e-20
-1.31489e-20
-8.70913e-20
3.85259e-20
-4.93132e-19
-2.41569e-19
-1.44207e-19
0
-1.13009e-20
-1.18517e-19
-1.2897e-18
3.0221e-18
-3.8382e-19
0
-8.40309e-19
-3.45662e-17
0
2.80609e-17
-7.15438e-17
-4.98546e-17
-2.34864e-18
-2.20246e-17
-1.78877e-18
4.77719e-20
-1.25335e-18
1.78517e-18
-3.00462e-19
-3.86934e-16
-9.07997e-17
0
-1.15562e-16
2.00729e-16
1.42906e-18
7.91097e-20
2.3262e-20
-5.70572e-22
6.9231e-24
0
-5.48632e-22
-1.78801e-23
0
-6.75874e-23
9.29611e-23
2.02172e-21
1.07041e-21
-7.19871e-21
2.57533e-20
2.49857e-20
6.20379e-20
0
-3.62881e-20
3.23503e-20
-3.28032e-21
-8.75189e-20
1.26383e-19
-1.55011e-19
0
1.70806e-19
-2.34582e-21
-3.68325e-19
-1.8477e-20
-5.84681e-19
0
6.32868e-19
6.68597e-19
-8.30581e-19
-1.25692e-19
1.36382e-20
-2.766e-20
3.4356e-19
-7.799e-20
0
-4.4836e-20
-1.22754e-18
3.16325e-18
4.52001e-18
-1.4219e-18
0
-1.81727e-17
0
2.49752e-17
-1.01736e-16
-3.14872e-17
0
6.80224e-17
-2.22543e-18
0
-4.4449e-18
-3.31573e-18
0
9.35058e-18
0
0
-3.45124e-16
-5.03606e-18
3.43666e-18
-2.04837e-19
-6.65184e-22
-6.7387e-23
-7.22964e-25
0
-6.64413e-23
-7.08316e-22
9.9284e-23
7.54751e-23
-2.94338e-22
0
1.20109e-21
0
0
2.45391e-20
1.30036e-22
-9.64245e-21
-5.19936e-21
8.16059e-23
-4.75274e-20
0
0
0
1.86018e-19
-7.72211e-21
1.72826e-19
0
-3.81401e-19
6.25838e-21
-5.72453e-19
6.5542e-19
6.31634e-19
1.4177e-18
-8.69595e-19
-1.57221e-18
5.55518e-19
2.87001e-20
3.37613e-19
0
8.96463e-20
0
-1.05794e-18
-4.92344e-19
3.86758e-18
6.82827e-18
0
1.82414e-17
-3.75026e-18
2.42394e-17
-5.21818e-17
4.33607e-18
-6.65032e-17
4.76039e-19
0
-4.30182e-19
-2.72628e-18
0
8.70104e-18
-1.42107e-17
-5.42946e-17
0
-1.78005e-16
7.33949e-18
-3.62768e-20
-5.5519e-20
0
-7.79933e-24
-1.32714e-26
0
0
2.46145e-22
-6.57412e-23
-1.96483e-22
-3.56147e-22
-3.88621e-22
-1.06163e-21
-1.2771e-21
0
-7.92175e-22
-2.6782e-21
0
-6.82182e-20
6.43415e-22
3.98449e-20
-7.47101e-20
-6.61972e-21
0
9.81944e-21
1.79644e-19
4.20306e-19
0
0
-4.29731e-19
6.399e-21
3.90468e-20
6.3967e-19
-2.28813e-20
7.59848e-19
8.97628e-19
-1.02013e-18
5.41727e-19
-1.43424e-18
8.10155e-19
0
-7.6059e-20
3.40552e-19
0
-3.92103e-18
5.91171e-18
-2.2194e-19
1.86333e-17
1.72831e-17
0
3.39286e-17
-7.71402e-18
1.38404e-16
-9.95544e-19
-5.39996e-16
-4.30402e-19
6.24683e-19
2.27833e-18
1.17338e-18
-1.42158e-17
-3.39007e-17
1.6783e-17
-1.619e-16
5.29386e-17
7.75044e-18
2.80885e-19
6.34328e-21
1.76505e-23
0
8.5558e-27
5.17336e-29
9.6509e-24
1.84822e-22
1.42048e-22
6.03714e-22
-9.34953e-22
5.09259e-22
2.60418e-22
-2.20748e-21
0
-1.93369e-21
2.28292e-20
0
-3.64918e-24
-7.22483e-20
5.49979e-21
-6.08466e-21
8.41883e-20
0
9.8151e-21
-3.60065e-19
5.01075e-22
4.06728e-19
-4.43821e-19
1.514e-20
-9.11671e-19
3.90807e-20
-6.84962e-19
7.45225e-19
4.77112e-20
0
-8.70744e-20
-6.00386e-20
1.31837e-18
-1.38035e-18
7.96948e-19
1.27502e-18
3.54852e-19
1.66342e-19
9.91484e-19
-2.57771e-18
5.9294e-18
-5.04325e-18
1.89484e-17
-3.63339e-18
-4.28329e-18
3.25794e-18
9.49528e-17
-5.04409e-16
2.03566e-17
0
-4.68148e-19
1.56947e-18
5.45734e-16
5.69595e-19
4.96433e-18
-5.09016e-17
-3.2546e-16
-1.73455e-16
5.29518e-17
-2.53368e-18
-3.56051e-20
6.86797e-22
-1.60776e-24
-2.10932e-26
-4.05204e-29
-2.97375e-29
0
1.09731e-22
-3.29939e-22
0
9.41345e-22
4.38459e-22
6.96063e-22
-3.24771e-22
0
-5.39485e-21
-6.23186e-21
2.37142e-20
-3.47968e-21
-2.17092e-21
9.46905e-21
-1.25134e-20
0
8.11316e-20
6.33658e-21
0
-7.33868e-19
-4.68176e-19
4.77154e-19
-4.1697e-19
-4.87573e-21
4.71847e-20
-6.30324e-19
-6.69331e-19
7.56888e-19
5.04038e-20
0
1.79142e-19
0
1.32629e-18
-1.64977e-18
0
1.29212e-18
8.95778e-19
-9.64221e-20
-6.4045e-19
-3.25473e-18
1.66264e-18
2.13792e-18
1.84445e-17
-2.95227e-17
-1.31621e-17
2.77473e-18
-2.37101e-16
0
0
-2.22392e-18
-2.75128e-19
-3.05814e-18
0
9.02223e-18
-2.7068e-17
-1.20353e-18
1.82365e-16
0
-1.01718e-17
-2.80915e-19
1.25194e-22
2.67263e-24
0
1.9401e-26
0
-7.98383e-29
0
2.68492e-23
-1.6301e-23
-2.6381e-22
6.54564e-22
-5.3233e-22
-8.38096e-22
-1.67799e-21
-3.88025e-22
-1.18452e-20
-1.11924e-20
0
-5.96864e-20
-2.09993e-21
8.97481e-20
6.68639e-20
1.55802e-19
1.00054e-19
3.74235e-22
-1.19313e-20
0
-4.16223e-19
-4.37405e-19
-4.27301e-20
0
0
1.63714e-18
-1.95934e-18
-1.5476e-18
5.04626e-20
0
-1.92419e-18
1.07951e-18
-2.75833e-18
1.32957e-19
-3.42026e-18
3.90797e-19
0
1.29448e-18
8.54537e-19
-2.22278e-18
1.67496e-18
-4.19405e-18
0
1.59514e-18
-2.49188e-17
-1.35763e-17
-7.66648e-17
-6.48213e-19
4.80939e-19
-9.19532e-19
-1.17891e-18
-1.7616e-18
-1.77613e-18
-5.13137e-19
2.57657e-16
4.21526e-17
-1.27937e-17
1.59963e-16
2.71388e-17
-3.00625e-19
0
0
0
0
-1.07166e-27
1.1968e-27
8.06955e-30
0
-6.76653e-23
2.01534e-22
1.90186e-22
0
-9.71308e-22
1.01394e-21
-2.13445e-21
-1.55863e-21
3.83762e-21
-4.36304e-23
-8.88876e-21
-1.7452e-21
-1.38244e-19
2.19243e-21
8.34487e-20
6.03669e-22
3.14683e-19
-3.90291e-20
-1.19203e-20
-1.08151e-20
-2.53084e-20
4.39557e-19
1.7782e-20
-4.93407e-19
0
2.99689e-20
1.10041e-18
1.14359e-19
-3.08035e-18
0
0
-1.97583e-18
0
-2.58034e-18
0
-1.62692e-18
-1.62361e-19
-2.99362e-19
5.50729e-18
-1.35085e-19
-3.68739e-19
5.49816e-20
-1.0184e-17
3.26139e-18
-2.31479e-17
-1.05986e-17
-1.50471e-18
1.55747e-16
-4.74139e-19
9.39983e-19
-7.22297e-19
-2.53871e-18
1.26056e-16
-8.33975e-19
-2.64257e-16
-1.74117e-17
0
0
0
4.00641e-17
0
0
3.12803e-23
0
-6.76032e-27
-3.0364e-29
-5.07263e-28
-6.5402e-30
-1.39425e-24
4.2228e-23
1.44122e-22
1.90541e-22
1.45178e-21
2.84251e-21
0
2.6592e-21
3.18884e-21
-1.06374e-21
2.50063e-21
4.51544e-20
-2.09042e-20
3.28074e-20
-1.36217e-19
8.96152e-21
6.03431e-22
0
1.43433e-19
-1.15615e-19
-2.31972e-20
0
-3.43266e-19
9.14025e-19
7.62243e-22
4.73758e-22
2.99656e-20
-2.96904e-20
1.29796e-18
1.59666e-18
-1.53039e-18
1.93198e-18
-2.05801e-18
2.05353e-20
0
3.21591e-18
-3.71032e-18
-1.6289e-19
1.87242e-19
-6.80494e-19
3.53646e-18
2.60769e-18
-3.62826e-19
-3.90795e-18
0
5.52399e-18
-1.59153e-17
-1.30216e-17
4.19955e-17
-1.2415e-19
-1.5745e-18
1.47656e-18
-3.49238e-18
0
0
-8.69392e-19
1.10968e-16
-1.41571e-16
0
0
-5.38222e-17
-1.41442e-18
-4.34116e-20
-4.16629e-22
0
1.03302e-26
0
2.06605e-28
-9.40158e-29
-4.13859e-29
-7.81586e-25
-4.83523e-25
2.64555e-23
0
-1.20575e-21
1.20212e-21
-5.61743e-22
0
-1.66112e-21
1.93046e-21
-4.03578e-21
0
-2.77268e-21
5.67249e-21
4.30493e-20
-6.00501e-20
0
4.61095e-21
8.7214e-22
-3.38152e-19
-1.23802e-20
-1.29688e-20
8.39791e-21
-3.34191e-19
4.56632e-19
4.73577e-22
0
-2.96854e-20
-1.98082e-20
2.75282e-18
-2.63351e-20
0
-1.1582e-19
-2.04261e-18
0
0
-3.21998e-19
2.37979e-19
1.8787e-19
-2.48861e-19
7.28854e-18
0
1.47018e-18
0
2.62116e-19
6.58622e-19
0
-1.58151e-17
2.61695e-17
3.82741e-19
-6.1923e-19
5.36472e-19
0
-1.72213e-18
1.31969e-18
-8.69655e-19
-4.46743e-17
-4.07042e-16
-3.00369e-17
-2.19353e-16
1.38291e-16
-1.90549e-17
-1.44952e-18
2.6414e-22
0
0
0
-5.20009e-29
-2.04268e-28
-4.27856e-29
5.03092e-30
0
1.51615e-23
-6.42711e-23
3.54181e-22
5.90704e-22
-1.84847e-21
4.47658e-21
-2.62532e-21
2.17417e-21
-3.95135e-21
5.21803e-21
1.16801e-21
-4.85301e-22
-2.97346e-20
0
-1.74462e-20
0
-1.91721e-19
-3.73914e-21
2.83662e-20
6.06097e-20
-1.29555e-20
3.11878e-19
0
-8.55495e-19
1.05602e-18
1.17222e-18
1.29206e-18
-1.29453e-18
-5.79989e-20
1.22192e-18
1.13701e-19
2.00424e-18
-4.21525e-18
2.42542e-18
-2.02377e-20
2.22335e-19
2.0103e-19
3.99237e-18
4.35794e-19
7.01475e-18
7.17822e-18
-1.16802e-17
0
-3.50638e-18
-6.94822e-18
-5.20529e-18
-4.68926e-18
0
1.65369e-18
-1.25444e-19
-1.97394e-18
0
0
4.70095e-19
1.22656e-16
2.22246e-18
-4.81385e-16
7.61847e-18
2.66167e-18
1.38417e-16
-6.11317e-17
0
-2.42149e-19
7.00122e-22
8.03111e-24
-1.726e-25
0
6.03509e-28
-3.6301e-28
4.12489e-28
-2.26453e-30
0
1.34717e-23
-1.90394e-23
-2.2368e-22
4.61446e-22
-7.72728e-22
5.6406e-22
-4.50728e-21
4.72513e-21
-1.54876e-20
1.55411e-20
-5.81395e-21
-6.54579e-22
6.6101e-22
5.4847e-21
-3.93761e-21
-1.79464e-20
1.00964e-20
-4.4341e-19
-9.15013e-21
3.1358e-20
7.82373e-19
0
-4.91087e-20
-4.95746e-20
-7.86885e-19
-1.24237e-19
1.18416e-18
1.32417e-18
5.58253e-20
-1.89649e-20
1.13717e-19
0
6.06421e-18
-2.17667e-18
7.65355e-18
2.22687e-19
-2.34835e-19
3.74163e-18
0
5.07614e-19
1.37742e-17
0
-2.46154e-17
-6.34706e-18
0
-2.8329e-18
-4.25306e-18
0
1.68177e-17
0
-3.4446e-18
-1.91192e-18
0
1.30224e-16
-5.79454e-19
1.12349e-16
0
-1.05059e-17
-8.44173e-17
0
1.54046e-16
0
-2.42114e-20
2.1811e-20
-4.65944e-24
3.84655e-25
-5.23474e-26
-1.07585e-27
8.79358e-29
-5.18451e-29
-1.62935e-28
2.00109e-30
3.12166e-24
-5.80033e-24
-2.0969e-22
-2.07885e-23
7.49145e-22
-1.30253e-21
4.8004e-21
-6.28554e-23
-1.62357e-20
-5.3062e-21
-5.32795e-21
-1.47739e-21
-1.48031e-20
2.81502e-21
-1.2727e-21
-1.10952e-21
-3.25693e-20
1.8259e-20
-3.89768e-20
-1.98348e-19
2.20698e-21
0
8.27584e-19
-3.12308e-19
3.75071e-20
-1.20929e-20
-4.91213e-20
-1.09555e-18
-1.70634e-21
-1.45478e-18
1.38747e-18
0
-3.37938e-18
3.76846e-18
4.19144e-18
5.48415e-20
-4.99728e-19
-2.35207e-19
4.97443e-19
0
4.26025e-19
0
2.39946e-17
-2.41686e-18
-1.69074e-18
-1.47604e-17
0
4.5926e-18
4.51095e-19
-1.34477e-17
0
-1.89233e-18
-3.02397e-18
-7.08842e-21
2.20503e-16
1.18112e-16
-3.35556e-19
7.28376e-19
0
-7.85774e-17
3.5277e-17
1.28752e-16
3.23205e-16
1.55092e-18
2.69871e-19
-2.63537e-22
2.19406e-23
4.29836e-26
-1.0038e-26
2.91433e-28
3.70486e-29
-1.36505e-28
1.40648e-28
1.10153e-29
9.61139e-25
4.5393e-23
-2.21911e-22
3.93863e-22
8.44544e-22
3.61071e-22
-2.09429e-21
3.43559e-21
3.71887e-21
-1.05543e-20
0
2.43653e-21
1.79685e-20
7.39747e-21
-5.20643e-21
2.30403e-21
-2.85178e-20
1.82453e-20
-1.54276e-19
2.20692e-20
0
8.90746e-21
-2.69386e-21
4.91758e-19
-3.61161e-19
-4.41228e-19
-4.90756e-20
0
0
7.86412e-20
1.12599e-19
5.52449e-20
-5.54848e-20
-6.94647e-18
3.88945e-18
4.89008e-18
0
-5.56704e-18
7.50974e-18
0
4.27122e-19
0
1.55985e-17