/*--------------------------------*- C++ -*----------------------------------*\
| =========                 |                                                 |
| \\      /  F ield         | OpenFOAM: The Open Source CFD Toolbox           |
|  \\    /   O peration     | Version:  v2012                                 |
|   \\  /    A nd           | Website:  www.openfoam.com                      |
|    \\/     M anipulation  |                                                 |
\*---------------------------------------------------------------------------*/
FoamFile
{
    version     2.0;
    format      ascii;
    class       volSymmTensorField;
    location    "0";
    object      Sp;
}
// * * * * * * * * * * * * * * * * * * * * * * * * * * * * * * * * * * * * * //

dimensions      [0 0 -1 0 0 0 0];


internalField   nonuniform List<symmTensor> 
39402
(
(-494181 1.57812e+07 0 801855 0 -307674)
(-19359.1 5.41412e+06 0 12763.7 0 6595.39)
(-496396 1.16561e+07 0 771689 0 -275294)
(-2981.69 3.31629e+06 0 3603.65 0 -621.961)
(-35406.8 4.92542e+06 0 23603.3 0 11803.5)
(-428745 7.89087e+06 0 664807 0 -236061)
(-0.985518 3.10123e+06 0 -51.2154 0 52.201)
(-6534.7 3.13456e+06 -3.51644e-17 6712.61 -1.29201e-20 -177.909)
(-47369.5 4.57061e+06 0 35303.1 0 12066.3)
(-339946 5.64378e+06 0 509735 0 -169789)
(254.892 3.26709e+06 0 -241.7 0 -13.1921)
(-108.524 2.94067e+06 3.38289e-17 65.5903 6.89228e-21 42.9332)
(-9608.07 2.99484e+06 -4.43015e-15 9294.4 -4.72535e-18 313.668)
(-55921 4.2739e+06 3.69196e-14 45323.8 7.82239e-17 10597.2)
(-265556 4.17122e+06 0 379744 0 -114188)
(201.328 3.3994e+06 4.45564e-17 -215.498 -1.50514e-21 14.1696)
(662.497 3.09133e+06 -6.9304e-16 -584.614 4.09483e-20 -77.8832)
(-221.71 2.81714e+06 0 206.29 0 15.4198)
(-12401.6 2.88252e+06 4.34029e-15 11641.8 4.62951e-18 759.855)
(-61762.5 4.00271e+06 7.92935e-15 53220 4.424e-17 8542.52)
(-197619 3.1525e+06 -2.06757e-13 260101 -7.11716e-15 -62481.7)
(149.656 3.48156e+06 0 -189.689 0 40.0328)
(480.698 3.20845e+06 -4.44647e-17 -450.897 1.50204e-21 -29.8014)
(1048.43 2.95836e+06 -1.33118e-15 -921.512 1.2723e-19 -126.92)
(-363.248 2.71536e+06 0 412.422 0 -49.1742)
(-15218.2 2.78873e+06 -1.37575e-14 14319.4 -2.04048e-17 898.785)
(-66002.2 3.74158e+06 -1.41913e-13 60175.9 -5.05256e-16 5826.29)
(-153377 2.42645e+06 1.98755e-13 185989 5.9281e-15 -32611.6)
(52.4893 3.52909e+06 0 -49.4887 0 -3.00064)
(310.626 3.28004e+06 3.4045e-16 -324.003 -1.4279e-20 13.3768)
(742.066 3.06438e+06 -1.00614e-15 -682.352 6.63771e-20 -59.7138)
(1416.24 2.84667e+06 1.90584e-15 -1248.09 -1.58489e-19 -168.152)
(-560.238 2.62247e+06 -1.2419e-14 718.374 -6.85641e-19 -158.136)
(-18104.8 2.70754e+06 -2.56945e-15 17398.3 -7.91987e-18 706.459)
(-69378.6 3.48595e+06 -1.3806e-14 67046.7 -1.27652e-16 2331.83)
(-122389 1.89178e+06 0 136974 0 -14585)
(8.72788 3.55016e+06 0 6.89513 0 -15.623)
(132.888 3.32167e+06 0 -116.8 0 -16.0873)
(463.497 3.1286e+06 -3.37013e-16 -461.056 1.41348e-20 -2.44095)
(977.566 2.94143e+06 1.05789e-15 -886.4 -7.10277e-20 -91.1667)
(1765.47 2.73682e+06 0 -1572.46 0 -193.012)
(-854.903 2.52808e+06 1.20176e-14 1163.51 7.18054e-19 -308.604)
(-20941.2 2.63386e+06 1.527e-14 20624.2 2.65997e-17 316.905)
(-71953 3.22649e+06 2.22298e-13 73544.3 1.21261e-15 -1591.29)
(-100284 1.49337e+06 0 104593 0 -4309.07)
(-19.6847 3.55948e+06 0 40.1482 0 -20.4635)
(89.3616 3.33964e+06 0 -113.801 0 24.4396)
(195.326 3.16609e+06 0 -159.234 0 -36.0928)
(601.98 2.99852e+06 -2.54724e-15 -583.976 1.57934e-19 -18.004)
(1182.46 2.81629e+06 3.11637e-15 -1058.67 -3.06248e-19 -123.788)
(2071.76 2.61316e+06 7.2031e-15 -1875.23 -1.19097e-18 -196.527)
(-1280.2 2.42618e+06 1.59818e-14 1748.73 2.43066e-18 -468.534)
(-23737.3 2.56441e+06 0 24004.9 0 -267.601)
(-74010 2.96478e+06 -2.35537e-13 79959.2 -1.56948e-15 -5949.14)
(-82336.6 1.19087e+06 0 79578.4 0 2758.23)
(-21.9618 3.55064e+06 7.69673e-17 24.8354 3.00323e-22 -2.87356)
(7.3975 3.34736e+06 0 -14.4623 0 7.06482)
(125.215 3.182e+06 0 -149.613 0 24.3987)
(260.637 3.03202e+06 0 -215.944 0 -44.6928)
(720.667 2.86413e+06 2.48295e-15 -683.908 -1.53948e-19 -36.7592)
(1342.68 2.67067e+06 -1.01706e-14 -1187.17 1.10573e-18 -155.508)
(2267.01 2.46833e+06 -6.92992e-15 -2065.22 1.1458e-18 -201.794)
(-1793.23 2.31666e+06 1.95076e-14 2321.12 4.92875e-18 -527.887)
(-26470.4 2.49327e+06 0 27504.1 0 -1033.62)
(-75757.9 2.70013e+06 1.17206e-13 86513 8.89435e-16 -10755.1)
(-67488.5 958345 0 59930.2 0 7558.28)
(-26.3962 3.53244e+06 0 26.1178 0 0.278378)
(-34.6793 3.33908e+06 -7.7108e-17 15.8906 -1.30757e-21 18.7887)
(13.2101 3.18864e+06 0 -28.209 0 14.9989)
(148.809 3.04596e+06 0 -164.732 0 15.9228)
(325.409 2.89276e+06 0 -280.835 0 -44.5747)
(812.591 2.70584e+06 0 -755.585 0 -57.0058)
(1437.53 2.4973e+06 -1.04727e-15 -1252.98 2.2403e-19 -184.549)
(2259.01 2.30599e+06 0 -2002.63 0 -256.377)
(-2445.53 2.20812e+06 -3.31273e-14 2933.92 -6.91562e-18 -488.389)
(-29099.5 2.41927e+06 -4.41562e-14 31085.4 -1.40396e-16 -1985.9)
(-77280.6 2.43248e+06 0 93228.8 0 -15948.2)
(-55288.8 776431 0 44812 0 10476.8)
(-34.8653 3.51202e+06 0 41.2034 0 -6.33805)
(-76.6823 3.32269e+06 0 79.1028 0 -2.42048)
(-77.5657 3.1807e+06 1.73793e-15 69.2298 1.54076e-20 8.33594)
(9.79348 3.05154e+06 0 -25.1848 0 15.3913)
(170.422 2.90401e+06 5.77254e-15 -181.074 -1.20291e-19 10.652)
(372.173 2.72782e+06 0 -323.277 0 -48.8958)
(869.325 2.51666e+06 0 -793.726 0 -75.5985)
(1445.05 2.30253e+06 2.4697e-14 -1232.93 -3.30656e-18 -212.118)
(1966.35 2.13957e+06 0 -1556.85 0 -409.497)
(-3294.42 2.111e+06 -3.90505e-14 3693.5 -1.32319e-17 -399.075)
(-31494.9 2.33785e+06 1.33933e-13 34565.3 4.69061e-16 -3070.37)
(-78403.6 2.16344e+06 0 99634.9 0 -21231.3)
(-44964 634380 -6.96332e-13 32703.9 -1.31283e-14 12260.1)
(-38.8673 3.4894e+06 0 47.0801 0 -8.21271)
(-78.1653 3.3043e+06 0 77.2839 0 0.881363)
(-125.398 3.16552e+06 0 132.333 0 -6.93464)
(-128.263 3.04384e+06 2.82632e-15 139.015 4.18803e-20 -10.7516)
(7.99061 2.90831e+06 0 -28.0945 0 20.1039)
(179.046 2.73541e+06 -5.58988e-15 -179.821 1.16485e-19 0.774233)
(394.499 2.53039e+06 7.55382e-15 -336.605 -2.18336e-19 -57.8944)
(883.767 2.30456e+06 1.67207e-14 -793.52 -1.60141e-18 -90.247)
(1351.27 2.10069e+06 1.76218e-15 -1112.07 -3.66111e-19 -239.195)
(1483.38 1.98619e+06 0 -949.764 0 -533.616)
(-4330.88 2.02579e+06 3.68599e-14 4618.91 1.24896e-17 -288.027)
(-33524.4 2.2457e+06 -1.82098e-13 37749.1 -7.12865e-16 -4224.76)
(-76846.9 1.90006e+06 -2.61882e-13 101073 -3.481e-15 -24225.9)
(-36137.4 520195 6.5138e-13 22878.6 1.13373e-14 13258.8)
(-29.1864 3.46441e+06 0 27.6518 0 1.53452)
(-88.8125 3.28398e+06 0 92.8906 0 -4.07819)
(-121.365 3.14858e+06 0 117.244 0 4.12153)
(-171.022 3.02967e+06 -5.96372e-17 180.957 -7.3654e-22 -9.93494)
(-170.465 2.90089e+06 1.00612e-15 191.686 3.69215e-20 -21.2211)
(4.97592 2.73808e+06 6.47994e-15 -32.1735 -1.93468e-20 27.1976)
(182.448 2.53362e+06 0 -179.536 0 -2.91262)
(388.083 2.30929e+06 8.95361e-16 -316.145 -4.73424e-20 -71.9374)
(850.952 2.08575e+06 -1.59172e-14 -750.397 1.52445e-18 -100.554)
(1148.59 1.91189e+06 -1.71068e-14 -889.689 2.46472e-18 -258.905)
(849.636 1.85244e+06 0 -260.915 0 -588.721)
(-5582.27 1.94807e+06 0 5807.85 0 -225.581)
(-35202.8 2.14047e+06 8.98222e-14 40737.9 3.75581e-16 -5535.06)
(-74651.6 1.64183e+06 -1.30286e-14 101519 -5.0852e-16 -26867.7)
(-28468.9 429114 0 14651.6 0 13817.3)
(-33.4123 3.44016e+06 0 37.4087 0 -3.99633)
(-83.3723 3.26162e+06 0 81.9766 0 1.39578)
(-139.042 3.1299e+06 0 143.41 0 -4.36755)
(-163.788 3.01402e+06 -4.13571e-15 157.861 -6.21905e-20 5.92741)
(-216.633 2.88799e+06 7.3067e-17 230.781 1.30564e-21 -14.1483)
(-212.352 2.73112e+06 -5.29157e-15 243.903 -8.96778e-20 -31.5511)
(-7.29568 2.53435e+06 -6.14798e-15 -22.3554 1.93523e-20 29.6511)
(182.6 2.30781e+06 -1.571e-14 -186.823 4.11066e-19 4.22248)
(367.352 2.08147e+06 -7.86204e-15 -292.979 2.27901e-19 -74.3722)
(765.857 1.87977e+06 0 -655.343 0 -110.513)
(831.807 1.74902e+06 0 -563.49 0 -268.317)
(-72.4748 1.73169e+06 0 800.82 0 -728.345)
(-7144.14 1.87208e+06 -8.49979e-14 7487.18 -5.29991e-17 -343.041)
(-36384.3 2.018e+06 9.88762e-14 43274.4 5.24878e-16 -6890.18)
(-72070.3 1.39658e+06 -2.62676e-13 101377 -4.54666e-15 -29306.8)
(-21688.7 355556 0 7495.07 0 14193.6)
(-48.5064 3.41573e+06 -6.08021e-17 67.7535 -7.74333e-22 -19.2471)
(-80.8558 3.23995e+06 -4.91837e-16 80.4851 -4.47797e-21 0.370625)
(-134.997 3.10935e+06 1.48651e-15 135.613 1.87643e-20 -0.616587)
(-187.676 2.99669e+06 0 193.229 0 -5.55274)
(-205.563 2.8737e+06 8.93253e-15 198.877 1.51226e-19 6.6861)
(-261.283 2.71985e+06 5.91369e-15 279.951 1.59196e-19 -18.6676)
(-252.176 2.52792e+06 0 291.781 0 -39.6055)
(-30.5046 2.30639e+06 1.12116e-16 3.57539 1.43408e-21 26.9292)
(159.782 2.07544e+06 1.50798e-14 -163.018 -3.95185e-19 3.2362)
(320.799 1.86588e+06 0 -245.132 0 -75.6672)
(622.967 1.6998e+06 -1.85452e-14 -508.701 1.96455e-18 -114.266)
(366.382 1.60692e+06 0 -53.7693 0 -312.613)
(-1059.5 1.61968e+06 0 1783.86 0 -724.362)
(-9006.4 1.7865e+06 1.65476e-13 9686.77 1.17429e-16 -680.372)
(-37019.8 1.8783e+06 -9.22493e-14 45251.1 -4.89699e-16 -8231.38)
(-69249 1.1694e+06 4.68669e-13 100830 7.50542e-15 -31580.9)
(-15123.3 296178 0 79.0713 0 15044.2)
(-16.6378 3.39014e+06 -5.86159e-17 3.88064 7.6738e-23 12.7572)
(-75.8352 3.21802e+06 -4.12875e-16 70.9043 -4.68885e-21 4.93089)
(-127.328 3.08945e+06 1.92157e-15 125.767 2.24815e-20 1.56141)
(-182.783 2.97773e+06 -1.46405e-15 184.123 -1.84809e-20 -1.34016)
(-234.687 2.85799e+06 4.77963e-15 241.526 1.14219e-19 -6.83895)
(-247.536 2.70725e+06 -1.61899e-14 241.664 -3.43109e-19 5.8713)
(-303.652 2.51844e+06 7.379e-15 326.398 2.70138e-19 -22.7461)
(-290.758 2.30029e+06 -1.08434e-16 337.185 -1.38698e-21 -46.4274)
(-64.2648 2.0717e+06 0 44.2622 0 20.0026)
(123.383 1.8551e+06 -3.40553e-14 -127.093 9.57111e-19 3.71005)
(239.572 1.67605e+06 -1.78107e-14 -161.225 5.753e-19 -78.3471)
(417.478 1.54385e+06 1.74402e-14 -302.636 -1.8475e-18 -114.842)
(-209.465 1.47798e+06 0 576.001 0 -366.536)
(-2271.02 1.51485e+06 0 3021.11 0 -750.091)
(-11037.8 1.67254e+06 -8.02243e-14 12197.6 -6.43351e-17 -1159.77)
(-37222.5 1.72109e+06 9.90781e-14 46780.1 6.57352e-16 -9557.57)
(-66898.9 965922 4.68395e-13 101182 9.02534e-15 -34283.1)
(-8232.33 247657 0 -8633.04 0 16865.4)
(-5.56421 3.36405e+06 0 -16.7556 0 22.3198)
(-85.5831 3.19514e+06 5.91008e-17 90.2427 -7.73729e-23 -4.65966)
(-126.08 3.06927e+06 4.72046e-16 124.168 5.44491e-21 1.91245)
(-171.744 2.95937e+06 -1.41115e-15 169.325 -1.77611e-20 2.41878)
(-229.375 2.84089e+06 4.60111e-15 232.174 9.91159e-20 -2.79938)
(-279.824 2.69366e+06 -4.55318e-15 288.392 -1.08727e-19 -8.56832)
(-289.887 2.50774e+06 1.09528e-14 287.285 2.44683e-19 2.6024)
(-342.914 2.29245e+06 -1.25093e-14 368.192 -4.0517e-19 -25.2783)
(-330.564 2.06561e+06 -1.53367e-14 383.965 -6.22829e-19 -53.4006)
(-107.795 1.84844e+06 0 97.5395 0 10.2558)
(73.0202 1.66038e+06 3.20107e-14 -81.9733 -8.99023e-19 8.95311)
(130.784 1.51182e+06 -1.17251e-15 -56.5218 -6.87947e-21 -74.2625)
(132.354 1.40478e+06 2.83132e-16 5.27428 -1.88453e-20 -137.628)
(-869.817 1.36048e+06 3.85043e-14 1274.46 -2.11352e-18 -404.64)
(-3902.28 1.41025e+06 0 4961.06 0 -1058.78)
(-13289.3 1.5311e+06 0 15162.1 0 -1872.84)
(-36918.3 1.54565e+06 -9.20946e-14 47629.3 -6.11019e-16 -10711)
(-65263.2 789500 -4.34901e-13 102793 -8.37997e-15 -37529.6)
(-362.887 209656 0 -19893.2 0 20256.1)
(-1.26244 3.33983e+06 1.09354e-16 -22.8416 -7.68568e-22 24.104)
(-77.8531 3.17181e+06 0 79.0642 0 -1.21111)
(-132.434 3.04825e+06 -1.33297e-15 136.595 -1.56577e-20 -4.16131)
(-174.863 2.94074e+06 3.56043e-15 176.961 6.41283e-20 -2.09737)
(-214.634 2.82431e+06 0 211.75 0 2.88443)
(-274.187 2.67892e+06 -4.53657e-15 278.931 -9.79837e-20 -4.74454)
(-322.492 2.49658e+06 0 333.074 0 -10.5812)
(-331.829 2.28355e+06 0 334.292 0 -2.46331)
(-380.992 2.05887e+06 -1.09763e-16 408.984 -4.16483e-21 -27.9915)
(-373.913 1.84143e+06 1.45339e-14 436.201 5.90225e-19 -62.2884)
(-160.868 1.65019e+06 0 158.966 0 1.9024)
(-21.9937 1.4921e+06 0 32.4612 0 -10.4675)
(-8.73326 1.36632e+06 1.66483e-14 78.7009 -4.83785e-19 -69.9676)
(-218.248 1.2795e+06 -3.6937e-14 389.402 2.81207e-18 -171.154)
(-1659.78 1.25255e+06 2.10142e-15 2141.41 2.20035e-18 -481.63)
(-5496.48 1.29991e+06 -7.93173e-14 6823.2 -2.78065e-17 -1326.72)
(-15639.7 1.39137e+06 0 18396.2 0 -2756.53)
(-36054.4 1.35597e+06 0 47703.1 0 -11648.7)
(-65828.5 645190 0 108501 0 -42672.9)
(8776.85 174568 0 -34156 0 25379.2)
(-54.3766 3.31688e+06 0 84.8161 0 -30.4395)
(-80.2392 3.15019e+06 -1.10469e-16 90.5344 1.89644e-21 -10.2951)
(-116.079 3.02682e+06 3.38769e-17 110.84 8.62976e-23 5.23881)
(-175.987 2.92133e+06 1.31446e-15 178.988 1.54404e-20 -3.00049)
(-218.395 2.80749e+06 -3.47899e-15 221.175 -6.26615e-20 -2.78031)
(-255.933 2.66461e+06 0 253.082 0 2.85106)
(-317.052 2.48456e+06 -1.17409e-14 324.877 -3.70844e-19 -7.82434)
(-363.281 2.27462e+06 -1.3009e-14 377.344 -5.14981e-19 -14.0629)
(-371.938 2.05133e+06 -2.83852e-14 379.398 -1.0715e-18 -7.45933)
(-421.666 1.8348e+06 0 455.575 0 -33.909)
(-423.415 1.64161e+06 0 494.994 0 -71.579)
(-224.279 1.47892e+06 2.53379e-16 228.946 8.24426e-21 -4.66643)
(-139.364 1.34297e+06 3.46181e-14 174.693 -6.69593e-19 -35.3292)
(-208.223 1.23564e+06 3.55364e-14 301.403 -6.35327e-19 -93.1801)
(-628.184 1.16658e+06 3.44485e-14 838.228 -2.62262e-18 -210.044)
(-2543.99 1.15293e+06 -7.26941e-14 3145.39 -3.57027e-18 -601.397)
(-7065.45 1.1939e+06 7.36934e-14 8724.7 2.58349e-17 -1659.25)
(-17959.9 1.26899e+06 0 21793.6 0 -3833.68)
(-34677.9 1.15682e+06 1.8686e-13 47083.3 1.67605e-15 -12405.4)
(-66006.5 515667 -4.01859e-13 112966 -1.05236e-14 -46959.3)
(12920.8 138083 0 -39038.3 0 26117.5)
(-55.5427 3.29397e+06 -1.02622e-16 87.6512 -1.86555e-21 -32.1085)
(-75.4108 3.12964e+06 0 84.5658 0 -9.15497)
(-117.923 3.00697e+06 -6.58479e-17 125.277 -4.07244e-22 -7.35347)
(-152.934 2.90165e+06 0 142.346 0 10.5882)
(-220.101 2.79004e+06 0 224.589 0 -4.48794)
(-261.807 2.65012e+06 9.80698e-15 267.548 2.61202e-19 -5.74072)
(-294.711 2.47284e+06 8.2718e-17 292.38 2.27825e-21 2.3312)
(-356.818 2.26523e+06 1.11571e-14 367.883 3.52735e-19 -11.0648)
(-404.039 2.04419e+06 1.25889e-14 424.304 4.98421e-19 -20.2653)
(-411.665 1.8277e+06 -2.36494e-15 424.686 -2.83179e-19 -13.0208)
(-468.42 1.63426e+06 3.08919e-14 511.041 1.85612e-18 -42.6209)
(-476.739 1.46905e+06 3.20003e-14 555.376 2.15576e-18 -78.6363)
(-300.345 1.32766e+06 0 313.913 0 -13.5681)
(-260.075 1.20883e+06 -3.23617e-14 304.476 6.25948e-19 -44.4014)
(-452.302 1.11834e+06 1.73481e-15 580.329 5.49409e-19 -128.027)
(-1108.21 1.06539e+06 3.55291e-14 1380.59 -3.21335e-19 -272.379)
(-3468.8 1.06344e+06 7.11225e-14 4236.2 1.04358e-17 -767.404)
(-8613.33 1.10576e+06 0 10663.7 0 -2050.42)
(-20050.8 1.1556e+06 0 25134.6 0 -5083.84)
(-32956 954526 -3.53518e-13 45992.6 -3.32902e-15 -13036.6)
(-58321.1 397731 3.71838e-13 101162 9.73744e-15 -42841)
(11798.2 104650 -7.73296e-13 -33941.5 -1.06807e-14 22143.4)
(-4.27527 3.27097e+06 0 -13.8972 0 18.1725)
(-66.2904 3.10907e+06 1.2296e-16 67.9836 2.00002e-21 -1.69314)
(-110.57 2.98813e+06 3.20323e-17 116.233 3.1556e-22 -5.66328)
(-140.971 2.88333e+06 0 132.849 0 8.12214)
(-196.707 2.77235e+06 0 189.714 0 6.99228)
(-260.772 2.6352e+06 0 265.796 0 -5.02311)
(-301.88 2.46104e+06 1.40187e-15 310.347 9.08007e-20 -8.46682)
(-331.774 2.25601e+06 -8.91085e-17 331.502 -2.89161e-21 0.272674)
(-392.87 2.03689e+06 -9.87035e-17 406.681 -4.08489e-21 -13.8108)
(-443.219 1.82133e+06 0 470.354 0 -27.1353)
(-454.998 1.62683e+06 2.76172e-14 475.054 1.22545e-18 -20.0551)
(-520.177 1.46119e+06 -2.90474e-14 572.587 -1.74529e-18 -52.4096)
(-534.524 1.31686e+06 -3.04668e-14 619.919 -2.04599e-18 -85.3955)
(-391.102 1.19169e+06 0 418.309 0 -27.2069)
(-403.982 1.08859e+06 -2.55035e-16 460.707 -2.78361e-21 -56.7259)
(-737.999 1.01364e+06 -3.24614e-14 909.943 4.01767e-20 -171.944)
(-1657.86 975895 -3.30064e-14 2021.71 2.98519e-19 -363.85)
(-4453.92 984785 1.6525e-15 5443.09 5.39663e-18 -989.174)
(-10184.9 1.02966e+06 0 12730.5 0 -2545.61)
(-21698.5 1.04496e+06 3.18008e-16 28106.3 2.05137e-18 -6407.84)
(-30402.6 760135 1.66644e-13 43531.3 1.6417e-15 -13128.7)
(-48531 308988 1.37688e-15 84612.5 3.63669e-17 -36081.6)
(10702.4 70408.3 6.97788e-13 -29177.8 9.54237e-15 18475.4)
(6.2116 3.24895e+06 4.84066e-17 -33.3182 -4.50151e-22 27.1066)
(-54.6762 3.08842e+06 -1.87067e-17 47.4254 -1.09802e-22 7.25074)
(-103.732 2.96919e+06 3.08382e-17 105.113 2.47956e-22 -1.38066)
(-148.127 2.86595e+06 -3.15942e-15 154.834 -6.31994e-20 -6.70708)
(-174.225 2.75585e+06 -7.78632e-15 162.58 -1.02108e-19 11.6452)
(-234.638 2.62006e+06 -6.59232e-17 227.697 -9.75756e-22 6.94107)
(-299.114 2.44903e+06 -7.64469e-17 305.766 -1.81797e-21 -6.65227)
(-337.8 2.24683e+06 -1.02964e-14 348.414 -3.24913e-19 -10.6138)
(-368.047 2.02971e+06 -9.44011e-17 372.096 -3.56895e-21 -4.04936)
(-428.298 1.81526e+06 0 446.55 0 -18.2521)
(-483.312 1.62031e+06 0 517.583 0 -34.2715)
(-502.055 1.45362e+06 -2.97185e-14 530.476 -1.80833e-18 -28.4214)
(-574.674 1.30873e+06 2.35067e-16 637.871 1.73254e-20 -63.1963)
(-600.929 1.17995e+06 0 696.423 0 -95.494)
(-496.9 1.06967e+06 4.91501e-16 541.675 1.81061e-20 -44.7743)
(-578.428 981379 0 657.543 0 -79.115)
(-1073.6 920998 0 1305.24 0 -231.64)
(-2291.19 897045 0 2786.01 0 -494.819)
(-5551.74 914860 -3.25945e-14 6832.8 -1.12084e-17 -1281.06)
(-11776.1 953069 7.1892e-14 14948.5 1.10379e-16 -3172.42)
(-22645.1 933711 0 30255.5 0 -7610.34)
(-27282.3 588393 -6.48835e-16 40101.4 -1.36431e-17 -12819.1)
(-38256.2 242920 -3.31327e-13 66604 -1.05819e-14 -28347.8)
(13921.7 40780 0 -33359.7 0 19438)
(-29.6119 3.22812e+06 0 39.3785 0 -9.76664)
(-41.018 3.06869e+06 -4.90671e-17 24.5245 3.47515e-22 16.4935)
(-92.171 2.95021e+06 1.13812e-15 86.3145 4.15485e-21 5.85654)
(-143.743 2.84847e+06 -2.98275e-15 149.502 -5.51796e-20 -5.75888)
(-183.404 2.74013e+06 1.05449e-14 190.451 2.33425e-19 -7.04624)
(-208.378 2.60588e+06 7.62858e-15 196.104 1.00394e-19 12.2738)
(-270.777 2.43691e+06 -1.00559e-14 265.145 -2.2117e-19 5.63176)
(-335.27 2.23769e+06 -8.30726e-17 345.235 -2.38672e-21 -9.96497)
(-370.384 2.02272e+06 2.46064e-14 383.22 1.04792e-18 -12.8365)
(-401.79 1.80952e+06 2.60857e-14 410.044 1.18316e-18 -8.25389)
(-465.577 1.61453e+06 2.74702e-14 491.176 1.59737e-18 -25.5996)
(-526.672 1.44712e+06 -1.09254e-16 569.469 -6.66348e-21 -42.797)
(-551.241 1.30129e+06 2.79609e-14 589.25 1.7014e-18 -38.0088)
(-634.404 1.17146e+06 3.06011e-14 710.733 2.88046e-18 -76.3295)
(-677.786 1.05697e+06 3.06957e-14 787.441 3.31389e-18 -109.656)
(-620.688 960738 2.38972e-16 688.66 1.87117e-20 -67.9714)
(-788.189 886365 6.32715e-14 902.905 2.6197e-18 -114.715)
(-1468.37 839339 0 1781.42 0 -313.049)
(-3020.06 827483 6.45271e-14 3692.13 1.46586e-17 -672.07)
(-6761.02 851015 0 8419.88 0 -1658.86)
(-13436 868385 -6.64614e-14 17450.8 -1.02041e-16 -4014.75)
(-22694.6 819044 0 31140.8 0 -8446.23)
(-23872.4 447091 1.54661e-13 36080.8 1.95291e-15 -12208.4)
(-28091.3 187817 3.05864e-13 48431.6 1.01082e-14 -20340.3)
(16442.3 24163.8 0 -36903 0 20460.7)
(-35.6695 3.20758e+06 5.90628e-18 52.2869 -8.0871e-23 -16.6174)
(-57.7535 3.05007e+06 3.69373e-16 61.0579 3.33496e-21 -3.30443)
(-80.7783 2.93208e+06 1.07829e-15 70.6175 -8.07664e-23 10.1608)
(-126.389 2.83095e+06 -1.16522e-15 120.693 -4.50862e-21 5.69648)
(-178.891 2.72435e+06 3.06264e-15 185.783 5.65356e-20 -6.89114)
(-217.783 2.59229e+06 -1.59323e-14 226.131 -3.95967e-19 -8.34746)
(-240.581 2.42538e+06 0 228.327 0 12.2548)
(-303.514 2.22847e+06 9.8592e-15 299.284 2.1761e-19 4.22966)
(-369.847 2.01599e+06 -2.36854e-14 385.07 -9.9216e-19 -15.2228)
(-401.869 1.80408e+06 -2.30388e-14 418.574 -9.8121e-19 -16.7052)
(-434.584 1.60939e+06 1.99067e-15 448.085 2.7618e-19 -13.5016)
(-504.922 1.44134e+06 -5.35946e-14 538.965 -3.36075e-18 -34.0424)
(-571.168 1.29508e+06 2.8535e-14 622.988 2.3362e-18 -51.8196)
(-604.249 1.16409e+06 -2.23509e-16 654.289 -1.83272e-20 -50.0394)
(-700.265 1.04804e+06 -2.83183e-14 792.579 -2.66819e-18 -92.3145)
(-766.303 947039 -2.87858e-14 894.65 -3.08877e-18 -128.348)
(-765.753 864038 0 864.354 0 -98.6004)
(-1037.97 802531 -1.19766e-13 1203.55 -6.90411e-18 -165.577)
(-1931.92 767551 0 2355.2 0 -423.278)
(-3854.25 766196 -5.99325e-14 4762.97 -1.3632e-17 -908.719)
(-8011.69 790973 2.42192e-16 10119.2 1.63471e-19 -2107.54)
(-15208.5 777446 0 20377.5 0 -5168.96)
(-21677.9 698778 0 30333 0 -8655.07)
(-20992.1 335764 -1.42707e-13 32943.5 -1.80197e-15 -11951.4)
(-18297.1 138061 -5.74344e-13 30651.5 -2.0339e-14 -12354.3)
(17630.8 16031.9 0 -38287 0 20656.3)
(-0.386843 3.18733e+06 -1.1574e-17 -17.4129 8.65756e-23 17.7998)
(-60.6958 3.03165e+06 3.60363e-16 68.7532 4.20568e-21 -8.0574)
(-87.563 2.91491e+06 -3.97883e-16 88.9693 -3.64471e-21 -1.40629)
(-111.285 2.81422e+06 -1.05509e-15 100.064 2.4031e-22 11.2217)
(-159.769 2.70858e+06 3.43543e-15 154.977 3.94238e-20 4.79236)
(-213.556 2.5787e+06 0 223.096 0 -9.53982)
(-249.212 2.41433e+06 8.28198e-15 258.377 2.18984e-19 -9.16471)
(-272.221 2.21959e+06 -2.11885e-14 262.369 -5.12382e-19 9.85133)
(-333.311 2.00916e+06 1.70341e-16 330.97 4.7387e-21 2.34107)
(-400.939 1.79906e+06 4.6786e-14 421.048 2.12024e-18 -20.1092)
(-433.497 1.60456e+06 2.55897e-14 456.416 1.43584e-18 -22.9186)
(-469.752 1.43608e+06 -2.50071e-14 490.015 -1.30829e-18 -20.2625)
(-545.526 1.28949e+06 2.57243e-14 587.728 1.72331e-18 -42.2023)
(-618.463 1.15801e+06 -2.70974e-14 681.394 -2.21988e-18 -62.9313)
(-661.843 1.04061e+06 -2.17541e-16 726.635 -2.06911e-20 -64.7915)
(-772.875 937555 2.18784e-16 883.977 2.31611e-20 -111.102)
(-868.941 849252 0 1021.52 0 -152.58)
(-935.998 778553 0 1074.49 0 -138.493)
(-1333.17 728734 5.63471e-14 1568.53 4.12088e-18 -235.365)
(-2474.98 704853 0 3046.51 0 -571.528)
(-4796.57 711926 -2.33236e-16 6016.15 -1.57426e-19 -1219.58)
(-9162.69 732533 6.1679e-14 11747.9 8.60371e-17 -2585.21)
(-17052.1 694924 0 23719.8 0 -6667.72)
(-19528.9 573359 0 27669.2 0 -8140.3)
(-18790.6 247272 0 30884.6 0 -12094)
(-11348.4 97654.3 5.29154e-13 18209.1 1.87437e-14 -6860.74)
(16600.9 11562.3 4.73378e-13 -35540.9 1.10604e-14 18940)
(11.0047 3.16782e+06 5.67787e-18 -39.2535 -1.14745e-22 28.2488)
(-52.1346 3.01344e+06 3.52057e-16 53.8361 -1.1161e-21 -1.70152)
(-88.676 2.89796e+06 -3.32706e-16 94.2029 -3.90524e-21 -5.52694)
(-117.481 2.79837e+06 -7.68455e-17 118.829 -1.01685e-21 -1.34787)
(-140.549 2.69344e+06 3.49104e-15 128.583 2.44419e-20 11.9658)
(-190.963 2.56514e+06 -3.3149e-15 186.812 -3.80653e-20 4.1506)
(-245.634 2.40329e+06 9.23944e-15 257.76 2.70344e-19 -12.1264)
(-278.055 2.21105e+06 2.03266e-14 288.397 6.97896e-19 -10.3421)
(-302.015 2.00251e+06 -2.42965e-15 295.749 -1.61435e-19 6.26664)
(-362.473 1.79402e+06 2.3641e-14 364.1 8.9272e-19 -1.62705)
(-430.329 1.60031e+06 -4.7886e-14 455.928 -2.50099e-18 -25.5986)
(-466.617 1.43125e+06 -2.39517e-14 496.693 -1.34286e-18 -30.0762)
(-506.109 1.28429e+06 2.67269e-14 532.872 1.84928e-18 -26.7633)
(-588.388 1.1527e+06 4.14666e-16 640.81 3.52913e-20 -52.4219)
(-669.119 1.03463e+06 2.10989e-16 745.729 2.00678e-20 -76.6097)
(-724.225 929951 -4.27095e-16 806.299 -4.76613e-20 -82.0749)
(-854.211 839119 0 987.795 0 -133.584)
(-988.315 762625 0 1171.85 0 -183.539)
(-1136.08 703188 5.66848e-14 1326.54 7.58089e-18 -190.458)
(-1682.18 664176 0 2011.87 0 -329.691)
(-3108.45 650144 5.66916e-14 3877.09 2.14978e-17 -768.643)
(-5847.07 663151 -5.7094e-14 7471.09 -4.46553e-17 -1624.01)
(-10153.3 673418 -5.69282e-14 13235.2 -7.94101e-17 -3081.83)
(-18687.2 625128 0 27001.2 0 -8313.99)
(-16568.1 445415 0 23717.6 0 -7149.46)
(-17071.8 177488 4.96496e-16 29391.3 1.27768e-17 -12319.5)
(-5742.55 67892.8 4.93312e-13 8134.28 1.78236e-14 -2391.73)
(15092.9 8996.64 -4.50145e-13 -32032 -1.01765e-14 16939.1)
(7.22552 3.14911e+06 4.29992e-17 -31.152 -3.76031e-22 23.9265)
(-33.3686 2.99584e+06 3.44496e-16 19.1605 -1.94284e-21 14.2081)
(-92.3708 2.88121e+06 6.77009e-16 104.902 5.22382e-21 -12.5315)
(-117.799 2.78266e+06 2.79722e-15 123.635 4.37982e-20 -5.83556)
(-145.715 2.67909e+06 -4.74841e-17 146.754 -7.46036e-22 -1.03869)
(-168.921 2.55206e+06 -3.45537e-15 156.887 -2.46228e-20 12.0344)
(-220.173 2.39227e+06 -6.55522e-17 216.996 -9.46493e-22 3.1773)
(-274.154 2.20258e+06 -8.55112e-15 288.207 -2.503e-19 -14.0527)
(-304.673 1.9961e+06 -1.93352e-14 316.771 -6.6397e-19 -12.0979)
(-328.635 1.78902e+06 2.10315e-14 325.138 6.04266e-19 3.49635)
(-391.579 1.59613e+06 1.80878e-15 399.447 2.23414e-19 -7.86798)
(-461.245 1.42698e+06 2.31493e-14 493.681 1.28963e-18 -32.4364)
(-500.549 1.27961e+06 0 537.339 0 -36.7906)
(-544.571 1.14784e+06 -2.47868e-14 579.869 -1.71523e-18 -35.2981)
(-634.297 1.02953e+06 5.30096e-14 699.507 5.40235e-18 -65.2103)
(-723.078 923979 0 815.433 0 -92.3554)
(-792.694 831272 -4.1068e-16 895.265 -5.26562e-20 -102.571)
(-945.849 751759 0 1106.44 0 -160.596)
(-1127.56 686118 5.36975e-14 1350.52 1.13652e-17 -222.959)
(-1371.34 637088 -5.20386e-14 1629.15 -6.96195e-18 -257.815)
(-2093.71 608043 -2.05999e-16 2547.89 -4.27098e-20 -454.173)
(-3843.75 602584 -5.27744e-14 4871.32 -2.00852e-17 -1027.57)
(-6976.4 617652 5.30927e-14 9102.13 4.14331e-17 -2125.74)
(-11152.3 609823 0 14863.9 0 -3711.59)
(-19638.5 554014 0 29313.2 0 -9674.65)
(-13505.2 323519 1.19693e-13 19734.3 9.51325e-16 -6229.08)
(-15916.8 124308 0 28549.9 0 -12633.1)
(982.294 46909 -9.11273e-13 -4455.31 -3.27422e-14 3473.01)
(14376.2 6993.86 0 -30240.6 0 15864.5)
(-27.195 3.13037e+06 -4.2187e-17 38.1514 -3.30906e-22 -10.9565)
(-41.3043 2.97901e+06 -4.37347e-17 36.6577 3.82464e-22 4.64659)
(-64.7302 2.86499e+06 -3.45076e-16 54.1704 3.16131e-21 10.5598)
(-107.777 2.76717e+06 -1.01848e-15 108.045 -3.79242e-21 -0.268387)
(-145.003 2.66482e+06 6.57589e-16 150.534 1.86228e-20 -5.53077)
(-173.005 2.53955e+06 0 174.217 0 -1.21161)
(-195.427 2.3816e+06 1.91975e-16 183.552 2.97675e-21 11.8753)
(-247.062 2.19413e+06 -9.67043e-15 245.363 -2.24056e-19 1.69838)
(-300.097 1.98981e+06 0 316.42 0 -16.3228)
(-329.622 1.78416e+06 -2.22268e-14 344.157 -9.76181e-19 -14.5346)
(-354.675 1.59187e+06 0 355.213 0 -0.538006)
(-421.968 1.42291e+06 -4.66964e-14 437.196 -2.23912e-18 -15.2279)
(-493.391 1.27553e+06 -4.95191e-14 532.984 -3.61723e-18 -39.5929)
(-535.606 1.14352e+06 5.04765e-14 580.506 4.22161e-18 -44.8996)
(-585.423 1.02493e+06 -5.11339e-14 631.697 -4.66758e-18 -46.2737)
(-682.596 918963 -4.97084e-14 762.275 -5.06655e-18 -79.6791)
(-781.515 825115 3.09537e-18 892.302 -3.00901e-22 -110.787)
(-868.553 743564 0 995.154 0 -126.601)
(-1050.54 674463 0 1243.8 0 -193.256)
(-1290.51 618839 2.11244e-15 1563.41 2.63775e-18 -272.907)
(-1648.26 579448 -5.08649e-14 1993 -1.21708e-17 -344.743)
(-2577.92 559426 -5.14318e-14 3196.4 -1.8223e-17 -618.478)
(-4684.82 560993 5.1782e-14 6046.76 3.82636e-17 -1361.95)
(-8105.36 573173 0 10794.4 0 -2689.04)
(-12399.1 541092 -5.40282e-14 17081 -1.56082e-16 -4681.9)
(-19164 469866 0 29213.2 0 -10049.2)
(-11110.1 220295 -1.10264e-13 17025.6 -8.76388e-16 -5915.55)
(-15445.4 85398.9 -2.18047e-13 28633.9 -3.97588e-15 -13188.5)
(6430.74 32552 8.41523e-13 -14705.3 2.96731e-14 8274.56)
(15591.7 5301.51 0 -32365.7 0 16774)
(-49.7946 3.11213e+06 -4.67814e-17 84.2878 -9.22659e-22 -34.4933)
(-50.2126 2.96215e+06 4.29307e-17 55.7602 3.36739e-22 -5.54761)
(-69.9036 2.84947e+06 2.60237e-17 67.0482 1.25829e-22 2.85535)
(-89.1527 2.75217e+06 -2.56854e-15 77.0215 5.63528e-22 12.1312)
(-127.685 2.65079e+06 0 121.454 0 6.23072)
(-171.307 2.52714e+06 -1.06998e-14 177.148 -2.16109e-19 -5.84131)
(-198.374 2.37134e+06 -2.4991e-16 199.882 -4.67099e-21 -1.50854)
(-220.078 2.18585e+06 -1.39908e-16 209.104 -2.53632e-21 10.9738)
(-271.64 1.98357e+06 9.28089e-15 271.848 2.13851e-19 -0.207808)
(-324.257 1.77949e+06 -2.15936e-14 343.491 -9.40906e-19 -19.2341)
(-353.176 1.5878e+06 2.09686e-14 370.756 9.20924e-19 -17.5797)
(-382.431 1.41878e+06 8.82258e-17 388.644 4.17458e-21 -6.21297)
(-453.507 1.27165e+06 7.05228e-14 476.458 4.02696e-18 -22.9503)
(-526.401 1.13984e+06 4.62736e-14 574.585 3.38015e-18 -48.184)
(-572.482 1.02091e+06 2.13852e-15 627.508 7.6091e-19 -55.0262)
(-628.053 914499 9.76587e-14 686.772 9.59854e-18 -58.7193)
(-734.107 820123 2.95779e-18 830.514 4.49204e-21 -96.4065)
(-845.505 737206 5.02135e-14 977.769 8.3707e-18 -132.264)
(-953.257 665812 3.8033e-16 1108.35 6.61656e-20 -155.093)
(-1170.75 606328 -3.82153e-16 1403.82 -8.69411e-20 -233.075)
(-1482.47 559956 -9.70875e-14 1818.94 -2.72267e-17 -336.467)
(-1975.95 529360 4.71407e-14 2432.78 1.125e-17 -456.828)
(-3147.97 517520 9.60963e-14 3980.19 4.0676e-17 -832.225)
(-5624.24 523596 -4.776e-14 7406.73 -3.52916e-17 -1782.49)
(-9075.75 526766 0 12308.9 0 -3233.16)
(-13930.2 476899 4.94015e-14 20033.9 1.42784e-16 -6103.75)
(-16529.1 372566 0 25293.6 0 -8764.51)
(-9479.85 143874 0 15553.9 0 -6074.04)
(-15712.1 58143.2 2.00795e-13 29865.3 3.6613e-15 -14153.2)
(7915.71 22476.9 -3.87966e-13 -17188 -1.34955e-14 9272.32)
(17020.7 4424.11 0 -34991.9 0 17971.2)
(-59.4707 3.09501e+06 2.56807e-17 104.594 6.23843e-22 -45.1236)
(-60.8336 2.94576e+06 4.22052e-17 79.4019 8.05415e-22 -18.5683)
(-74.6144 2.83392e+06 -5.12675e-17 78.5884 -4.70132e-22 -3.97402)
(-93.1751 2.73777e+06 1.24145e-15 88.3571 6.70329e-21 4.81799)
(-113.187 2.63713e+06 -5.8461e-16 100.222 -9.67155e-21 12.9642)
(-152.167 2.51493e+06 1.05923e-16 145.55 8.31422e-22 6.61686)
(-195.673 2.36113e+06 1.58186e-14 201.967 3.57206e-19 -6.29434)
(-221.893 2.17786e+06 0 224.265 0 -2.37168)
(-243.208 1.97737e+06 1.96663e-14 233.912 4.1108e-19 9.29585)
(-294.314 1.7749e+06 2.08459e-14 296.889 6.69447e-19 -2.5754)
(-346.599 1.58395e+06 2.03711e-14 368.886 8.87638e-19 -22.2873)
(-377.522 1.41489e+06 2.24214e-14 398.938 1.25363e-18 -21.4159)
(-411.001 1.26781e+06 -4.6092e-14 423.351 -2.43749e-18 -12.3506)
(-485.535 1.13641e+06 -4.47794e-14 517.303 -2.67572e-18 -31.7683)
(-560.96 1.01751e+06 -1.80242e-16 619.486 -1.33874e-20 -58.5258)
(-610.764 910667 -9.39307e-14 677.26 -9.6144e-18 -66.4956)
(-673.47 815752 -4.54236e-14 746.707 -4.75843e-18 -73.2371)
(-789.512 732114 4.76215e-14 905.207 7.4283e-18 -115.695)
(-915.994 659207 1.09841e-15 1073.39 1.4445e-18 -157.399)
(-1048.88 597179 4.75036e-14 1237.71 1.02816e-17 -188.839)