/*--------------------------------*- C++ -*----------------------------------*\
| =========                 |                                                 |
| \\      /  F ield         | OpenFOAM: The Open Source CFD Toolbox           |
|  \\    /   O peration     | Version:  v2012                                 |
|   \\  /    A nd           | Website:  www.openfoam.com                      |
|    \\/     M anipulation  |                                                 |
\*---------------------------------------------------------------------------*/
FoamFile
{
    version     2.0;
    format      ascii;
    class       volScalarField;
    location    "6700";
    object      T;
}
// * * * * * * * * * * * * * * * * * * * * * * * * * * * * * * * * * * * * * //

dimensions      [0 0 0 1 0 0 0];


internalField   nonuniform List<scalar> 
39402
(
418.529
317.811
445.061
307.856
351.543
427.695
307.618
329.197
376.997
397.586
308.566
328.883
347.142
395.655
364.446
309.399
331.231
347.024
362.26
408.375
332.103
309.937
333.297
350.409
362.556
374.895
415.703
302.054
310.23
334.626
353.399
366.694
375.785
385.236
418.029
274.7
310.418
335.329
355.323
370.369
380.414
386.861
393.356
415.66
250.05
310.486
335.801
356.33
372.737
384.561
391.729
395.846
399.237
408.871
227.914
310.466
335.961
357.023
373.968
387.247
396.15
400.717
402.752
402.783
397.966
208.037
310.396
335.918
357.242
374.836
388.634
399.038
405.231
407.444
407.576
403.83
383.312
190.151
310.318
335.749
357.181
375.105
389.644
400.521
408.218
411.906
412
410.304
402.161
365.36
174.052
310.217
335.563
356.946
375.045
389.964
401.647
409.745
414.913
416.322
414.498
410.867
397.521
344.683
159.46
310.107
335.318
356.686
374.776
389.926
402.021
410.964
416.445
419.301
418.661
415.021
409.116
389.65
321.904
146.223
309.999
335.052
356.337
374.477
389.658
402.031
411.397
417.744
420.818
421.602
419.095
413.593
404.847
378.316
297.766
134.164
309.889
334.793
355.958
374.065
389.357
401.798
411.48
418.238
422.195
423.099
422.028
417.729
410.2
397.882
363.367
273.044
123.17
309.766
334.528
355.589
373.615
388.923
401.531
411.317
418.418
422.749
424.552
423.524
420.734
414.624
404.743
388.059
344.794
248.468
113.085
309.646
334.236
355.208
373.177
388.446
401.117
411.122
418.354
423.047
425.179
425.06
422.275
417.825
409.825
397.166
375.437
322.798
224.592
103.782
309.535
333.942
354.783
372.722
387.981
400.659
410.768
418.262
423.107
425.613
425.779
423.916
419.484
413.38
403.331
387.47
360.22
297.872
201.817
95.1167
309.431
333.67
354.361
372.209
387.493
400.209
410.371
418.005
423.145
425.815
426.365
424.762
421.266
415.249
407.466
395.165
375.742
342.423
270.862
180.047
87.507
309.324
333.408
353.971
371.701
386.937
399.732
409.977
417.706
423.014
426.003
426.726
425.514
422.278
417.234
409.656
400.12
385.326
361.946
322.014
242.975
160.61
81.0438
309.214
333.145
353.597
371.232
386.387
399.177
409.552
417.404
422.843
426.021
427.082
426.053
423.218
418.45
411.925
402.78
391.363
373.773
345.894
299.087
215.569
143.533
75.8773
309.113
332.885
353.215
370.783
385.88
398.629
409.041
417.067
422.662
426.001
427.265
426.594
423.955
419.604
413.387
405.421
394.669
381.188
360.424
327.499
273.823
189.866
128.283
72.5971
309.016
332.634
352.837
370.32
385.393
398.125
408.538
416.64
422.443
425.964
427.413
426.961
424.701
420.562
414.789
407.186
397.79
385.35
369.566
345.193
306.859
246.62
166.609
114.618
70.748
308.919
332.389
352.475
369.858
384.886
397.637
408.076
416.219
422.129
425.885
427.537
427.293
425.268
421.531
415.992
408.876
399.927
389.081
374.83
356.442
328.002
284.366
218.186
146.06
103.258
69.5646
308.824
332.152
352.12
369.418
384.378
397.126
407.625
415.834
421.821
425.709
427.616
427.592
425.799
422.316
417.202
410.349
401.951
391.676
379.325
363.092
341.735
308.806
260.385
189.634
128.386
94.4216
68.6813
308.734
331.919
351.777
368.992
383.897
396.609
407.146
415.453
421.541
425.535
427.593
427.841
426.288
423.061
418.221
411.82
403.726
394.089
382.479
368.532
350.089
325.346
287.622
234.739
162.453
113.885
87.7013
67.9766
308.647
331.701
351.439
368.573
383.43
396.122
406.658
415.039
421.258
425.382
427.571
427.986
426.722
423.753
419.195
413.09
405.482
396.202
385.348
372.367
356.689
335.747
307.177
264.599
207.391
138.453
102.429
82.5983
67.4551
308.561
331.489
351.123
368.161
382.97
395.65
406.198
414.613
420.936
425.218
427.56
428.128
427.047
424.385
420.102
414.306
407.02
398.269
387.845
375.773
361.348
343.753
319.966
287.169
240.212
179.204
119.027
93.7145
78.7418
67.1698
308.477
331.27
350.815
367.776
382.514
395.179
405.752
414.212
420.6
425.01
427.531
428.272
427.365
424.902
420.944
415.442
408.492
400.095
390.252
378.706
365.389
349.409
329.655
302.627
265.371
215.011
151.829
104.464
87.168
75.7508
67.0753
308.4
331.064
350.5
367.402
382.089
394.712
405.304
413.82
420.284
424.784
427.453
428.389
427.676
425.408
421.664
416.503
409.868
401.838
392.39
381.491
368.824
354.201
336.51
314.295
283.626
242.008
188.885
127.509
93.9725
82.2365
73.4978
66.9822
308.326
330.878
350.204
367.023
381.677
394.275
404.854
413.423
419.97
424.573
427.351
428.452
427.951
425.896
422.366
417.435
411.159
403.466
394.42
383.966
372.03
358.219
342.196
322.585
297.555
262.932
217.586
162.005
108.21
86.448
78.5449
71.9275
66.7379
308.25
330.697
349.936
366.664
381.261
393.851
404.436
413.021
419.647
424.356
427.259
428.486
428.166
426.339
423.04
418.341
412.31
404.997
396.315
386.305
374.876
361.902
346.894
329.334
307.54
279.314
240.676
192.798
135.989
94.5444
80.9431
75.8294
70.9061
66.2758
308.173
330.513
349.677
366.34
380.866
393.426
404.029
412.647
419.316
424.126
427.154
428.525
428.347
426.716
423.66
419.21
413.429
406.378
398.097
388.481
377.548
365.158
351.122
334.833
315.553
291.258
259.496
217.25
167.604
113.306
85.504
76.7998
74.1691
70.1981
65.7197
308.104
330.327
349.411
366.026
380.509
393.02
403.619
412.281
419.009
423.881
427.03
428.541
428.525
427.053
424.207
420.013
414.498
407.714
399.715
390.527
380.023
368.191
354.836
339.688
321.998
300.764
273.612
238.137
193.3
142.159
96.1232
79.4485
73.7413
73.2754
69.6806
65.358
308.044
330.161
349.148
365.704
380.164
392.654
403.227
411.91
418.703
423.657
426.886
428.534
428.673
427.379
424.707
420.737
415.492
408.99
401.276
392.392
382.346
370.988
358.266
343.921
327.582
308.328
284.853
254.504
215.509
169.247
118.331
84.8655
74.9933
71.6662
72.6468
69.3765
65.1946
307.985
330.017
348.913
365.386
379.808
392.301
402.876
411.555
418.392
423.43
426.758
428.5
428.791
427.667
425.19
421.407
416.398
410.179
402.764
394.186
384.469
373.605
361.411
347.79
332.406
314.766
293.737
267.695
233.934
192.209
145.061
98.7484
77.7924
72.0403
70.2851
72.0206
69.2502
65.103
307.921
329.871
348.708
365.104
379.457
391.934
402.533
411.238
418.092
423.194
426.62
428.477
428.876
427.919
425.624
422.051
417.242
411.273
404.155
395.892
386.503
375.999
364.341
351.317
336.77
320.272
301.18
278.116
249.185
212.123
169.062
121.517
85.0278
73.4333
70.2837
69.8987
71.5106
69.0714
65.009
307.858
329.715
348.503
364.86
379.147
391.571
402.177
410.926
417.827
422.964
426.471
428.437
428.966
428.132
426.017
422.639
418.053
412.295
405.439
397.488
388.434
378.284
367.023
354.585
340.717
325.195
307.476
286.738
261.342
229.299
189.629
146.008
100.883
76.7573
70.9017
68.9813
69.9519
71.1922
68.6019
64.8931
307.801
329.563
348.285
364.618
378.882
391.255
401.824
410.599
417.562
422.764
426.322
428.383
429.033
428.342
426.363
423.178
418.797
413.276
406.643
398.968
390.241
380.447
369.57
357.574
344.355
329.611
313.04
293.958
271.333
243.304
208.208
167.197
123.131
85.4776
72.3684
69.2272
68.0646
70.042
71.0834
67.7732
64.7787
307.754
329.428
348.072
364.358
378.623
390.985
401.519
410.273
417.28
422.56
426.199
428.323
429.08
428.522
426.7
423.661
419.487
414.182
407.798
400.358
391.922
382.471
371.975
360.399
347.674
333.655
317.986
300.262
279.634
254.844
223.961
186.394
144.953
102.253
76.1795
69.9521
68.1551
67.808
70.1805
70.923
66.8461
64.6851
307.709
329.317
347.886
364.105
378.34
390.722
401.259
409.996
416.997
422.336
426.065
428.284
429.116
428.677
426.999
424.13
420.113
415.025
408.868
401.689
393.501
384.357
374.225
363.056
350.795
337.334
322.482
305.812
286.799
264.398
237.156
203.455
164.573
122.917
85.9472
71.5052
68.5282
67.4706
68.0956
70.43
70.6316
66.0614
64.6174
307.662
329.219
347.734
363.887
378.064
390.431
401.006
409.761
416.763
422.109
425.909
428.228
429.167
428.816
427.268
424.552
420.716
415.796
409.868
402.926
395.011
386.13
376.322
365.54
353.72
340.773
326.556
310.815
293.043
272.566
248.127
218.227
182.24
143.034
102.39
75.806
69.2698
67.6308
66.9704
68.5288
70.5189
70.1718
65.4866
64.5715
307.609
329.108
347.602
363.711
377.829
390.149
400.723
409.532
416.564
421.927
425.745
428.147
429.194
428.961
427.514
424.94
421.266
416.538
410.786
404.084
396.417
387.822
378.292
367.856
356.448
343.984
330.341
315.328
298.623
279.615
257.455
230.711
198.19
161.017
121.775
85.8596
70.8482
68.0665
67.0525
66.7948
69.0311
70.5609
69.4252
65.0968
64.5453
307.558
328.984
347.446
363.557
377.642
389.911
400.448
409.268
416.369
421.774
425.624
428.055
429.194
429.078
427.76
425.296
421.775
417.217
411.669
405.152
397.737
389.399
380.17
370.03
358.992
346.971
333.858
319.494
303.628
285.856
265.44
241.347
212.108
177.499
140.146
101.788
75.3184
68.7002
67.3275
66.8028
67.1638
69.4665
70.5588
68.3368
64.8843
64.5273
307.513
328.862
347.275
363.376
377.478
389.724
400.221
409.014
416.135
421.622
425.523
428.001
429.178
429.163
427.971
425.648
422.247
417.851
412.48
406.177
398.956
390.882
381.922
372.098
361.377
349.754
337.122
323.344
308.216
291.42
272.446
250.413
224.132
192.468
156.852
119.615
85.4074
70.2303
67.6546
66.9453
66.6747
67.597
69.7914
70.4418
67.1983
64.7342
64.5155
307.479
328.753
347.109
363.176
377.284
389.559
400.043
408.808
415.912
421.428
425.423
427.958
429.196
429.229
428.146
425.957
422.706
418.44
413.241
407.122
400.124
392.255
383.571
374.029
363.641
352.359
340.158
326.905
312.432
296.482
278.65
258.306
234.411
205.78
172.261
136.597
100.267
74.789
68.1682
67.1147
66.7514
66.7666
68.0619
70.0918
70.1084
66.2095
64.6332
64.5081
307.458
328.674
346.966
362.983
377.069
389.362
399.887
408.647
415.734
421.243
425.275
427.913
429.217
429.323
428.297
426.227
423.116
419.01
413.948
408.011
401.205
393.567
385.099
375.846
365.755
354.826
342.994
330.212
316.317
301.103
284.249
265.249
243.326
217.333
186.467
152.18
116.723
84.3301
69.6743
67.3283
66.8119
66.7795
66.9777
68.525
70.0951
69.4906
65.4772
64.569
64.5041
307.433
328.631
346.863
362.821
376.862
389.144
399.696
408.508
415.6
421.103
425.136
427.816
429.231
429.411
428.472
426.467
423.483
419.523
414.63
408.839
402.223
394.785
386.558
377.532
367.745
357.13
345.674
333.294
319.915
305.343
289.326
271.463
251.124
227.387
199.165
166.698
132.507
98.0551
73.9678
67.7809
66.8997
66.7621
66.8323
67.1817
69.016
70.0714
68.5283
65.0002
64.5354
64.502
307.405
328.576
346.814
362.707
376.694
388.934
399.484
408.332
415.486
420.999
425.037
427.727
429.19
429.49
428.632
426.726
423.815
419.99
415.25
409.635
403.173
395.934
387.913
379.139
369.592
359.297
348.175
336.197
323.26
309.259
293.96
277.056
258.049
236.164
210.397
180.122
147.153
113.246
82.7493
69.1105
67.0804
66.7789
66.7648
66.909
67.4542
69.3462
69.9369
67.386
64.7613
64.5174
64.5009
307.368
328.512
346.743
362.661
376.577
388.769
399.281
408.135
415.33
420.914
424.969
427.676
429.155
429.508
428.779
426.961
424.161
420.416
415.818
410.361
404.084
397.007
389.194
380.635
371.35
361.309
350.525
338.904
326.401
312.889
298.225
282.133
264.235
243.911
220.252
192.365
160.755
128.021
95.2936
72.9547
67.422
66.8437
66.7976
66.8026
66.9584
67.8544
69.6496
69.6782
66.2668
64.6307
64.5078
64.5004
307.323
328.426
346.66
362.585
376.538
388.658
399.127
407.945
415.152
420.783
424.916
427.647
429.153
429.53
428.86
427.179
424.473
420.85
416.339
411.032
404.918
398.034
390.39
382.048
372.986
363.22
352.707
341.445
329.325
316.285
302.165
286.786
269.814
250.782
228.935
203.306
173.559
141.735
109.335
80.7982
68.5226
66.9221
66.8649
66.8493
66.8269
67.042
68.3282
69.607
69.0525
65.4259
64.5588
64.5033
64.5002
307.278
328.318
346.545
362.494
376.465
388.627
399.025
407.807
414.984
420.631
424.816
427.63
429.167
429.582
428.942
427.326
424.765
421.243
416.864
411.65
405.693
398.978
391.534
383.37
374.535
365.001
354.776
343.804
332.067
319.441
305.838
291.068
274.903
256.939
236.598
213.009
185.387
154.581
123.127
92.1365
71.8005
67.1155
66.8683
66.9
66.8996
66.8203
67.144
68.764
69.5851
68.0721
64.9151
64.5251
64.5013
64.5001
307.235
328.211
346.398
362.362
376.373
388.561
399.003
407.718
414.866
420.488
424.694
427.563
429.189
429.641
429.05
427.471
424.981
421.612
417.339
412.266
406.408
399.857
392.588
384.631
375.983
366.687
356.705
346.036
334.611
322.395
309.243
295.044
279.566
262.524
243.423
221.57
196.076
166.846
136.068
105.005
78.6023
67.9276
66.8793
66.8844
66.9552
66.889
66.7899
67.4421
69.0895
69.4891
66.7959
64.6798
64.5102
64.5005
64.5
307.199
328.112
346.251
362.19
376.232
388.474
398.944
407.707
414.791
420.397
424.579
427.474
429.158
429.705
429.157
427.638
425.191
421.898
417.786
412.826
407.117
400.67
393.574
385.796
377.364
368.264
358.531
348.118
337.014
325.133
312.424
298.719
283.876
267.616
249.579
229.165
205.594
178.258
148.318
117.962
88.6363
70.5568
67.0113
66.8702
66.9313
66.9549
66.8839
66.8202
67.7927
69.3007
69.0633
65.7109
64.5744
64.5037
64.5002
64.5
307.174
328.034
346.116
362.02
376.046
388.332
398.869
407.658
414.797
420.335
424.517
427.391
429.105
429.713
429.267
427.796
425.419
422.175
418.145
413.353
407.763
401.473
394.486
386.888
378.641
369.765
360.239
350.088
339.254
327.715
315.37
302.144
287.847
272.3
255.161
235.979
214.049
188.643
159.984
130.244
100.433
76.2125
67.5075
66.8842
66.9015
66.9328
66.9445
66.8681
66.9847
68.2978
69.3153
68.2199
65.0219
64.5269
64.5013
64.5001
64.5
307.16
327.977
346.011
361.864
375.863
388.14
398.73
407.595
414.758
420.362
424.474
427.36
429.057
429.699
429.316
427.953
425.631
422.466
418.49
413.786
408.37
402.204
395.382
387.9
379.839
371.156
361.862
351.93
341.372
330.121
318.141
305.313
291.539
276.599
260.267
242.126
221.616
197.982
170.907
141.88
112.558
84.9839
69.3988
66.9648
66.9068
66.9419
66.9277
66.8839
66.8153
67.1597
68.7265
69.2341
66.9017
64.6886
64.5094
64.5004
64.5
64.5
307.154
327.949
345.939
361.745
375.697
387.952
398.541
407.466
414.705
420.334
424.521
427.339
429.058
429.686
429.342
428.046
425.838
422.734
418.846
414.201
408.879
402.893
396.2
388.89
380.952
372.463
363.369
353.678
343.353
332.394
320.721
308.286
294.948
280.583
264.934
247.716
228.414
206.376
180.987
152.889
124.207
95.6887
73.8886
67.265
66.895
66.9405
66.9512
66.8905
66.7919
66.7589
67.5824
69.0653
68.8208
65.7262
64.568
64.503
64.5001
64.5
64.5
307.149
327.938
345.912
361.666
375.573
387.786
398.356
407.285
414.592
420.294
424.507
427.408
429.061
429.723
429.368
428.115
425.977
422.993
419.172
414.621
409.364
403.479
396.972
389.796
382.037
373.677
364.786
355.303
345.23
334.518
323.157
311.053
298.14
284.255
269.243
252.8
234.564
213.915
190.193
163.35
135.214
106.947
81.3331
68.4851
66.9209
66.9202
66.9695
66.9385
66.8277
66.654
66.8727
68.1171
69.0909
68.0233
64.9762
64.5215
64.5009
64.5
64.5
64.5
307.144
327.933
345.904
361.642
375.496
387.663
398.195
407.109
414.424
420.197
424.48
427.41
429.154
429.752
429.442
428.181
426.091
423.18
419.485
415.006
409.851
404.036
397.636
390.652
383.031
374.857
366.103
356.832
346.977
336.53
325.432
313.66
301.105
287.683
273.206
257.474
240.127
220.708
198.524
173.166
145.646
117.954
90.8398
71.8171
67.1056
66.8727
66.9457
66.9657
66.8993
66.7494
66.6552
67.1154
68.5879
69.0033
66.6512
64.651
64.5063
64.5002
64.5
64.5
64.5
307.132
327.922
345.904
361.644
375.476
387.592
398.08
406.96
414.26
420.044
424.4
427.399
429.174
429.87
429.499
428.293
426.198
423.34
419.722
415.376
410.297
404.59
398.267
391.395
383.973
375.94
367.379
358.254
348.62
338.401
327.582
316.093
303.896
290.864
276.893
261.76
245.217
226.825
206.035
182.215
155.692
128.389
101.174
77.8221
67.8351
66.8846
66.9035
66.9428
66.9385
66.8206
66.7626
66.7071
67.499
68.833
68.5126
65.4916
64.5459
64.5016
64.5
64.5
64.5
64.5
307.117
327.897
345.895
361.652
375.489
387.577
398.019
406.857
414.127
419.897
424.266
427.335
429.18
429.909
429.644
428.38
426.351
423.491
419.928
415.664
410.723
405.097
398.887
392.098
384.795
376.967
368.553
359.627
350.15
340.163
329.584
318.389
306.497
293.851
280.307
265.735
249.868
232.394
212.786
190.458
165.177
138.383
111.533
86.0028
70.1013
67.0043
66.877
66.9147
66.9188
66.8667
66.8233
66.7288
66.793
68.0116
68.816
67.5526
64.8219
64.5125
64.5003
64.5
64.5
64.5
64.5
307.095
327.856
345.863
361.647
375.507
387.602
398.009
406.808
414.038
419.782
424.137
427.22
429.133
429.935
429.704
428.554
426.469
423.685
420.123
415.918
411.064
405.582
399.458
392.788
385.571
377.87
369.665
360.893
351.621
341.802
331.468
320.527
308.948
296.634
283.51
269.408
254.167
237.465
218.909
197.904
174.02
147.909
121.503
95.3537
74.6244
67.3945
66.8833
66.8972
66.9009
66.8479
66.8002
66.7681
66.7511
67.0945
68.5
68.7043
66.1149
64.5886
64.503
64.5001
64.5
64.5
64.5
64.5
307.068
327.806
345.807
361.614
375.508
387.629
398.046
406.803
414.001
419.71
424.042
427.112
429.04
429.907
429.75
428.638
426.674
423.837
420.361
416.159
411.369
405.977
400.002
393.421
386.329
378.72
370.65
362.092
352.979
343.375
333.221
322.54
311.23
299.25
286.488
272.845
258.129
242.132
224.465
204.653
182.13
157.041
131.011
105.022
81.3739
68.7613
66.9405
66.8902
66.8956
66.8499
66.7895
66.7439
66.7152
66.7495
67.6102
68.6338
67.9449
65.1052
64.5206
64.5006
64.5
64.5
64.5
64.5
64.5
307.038
327.737
345.735
361.551
375.476
387.637
398.08
406.851
414.003
419.684
423.99
427.039
428.954
429.837
429.744
428.707
426.785
424.074
420.548
416.439
411.656
406.333
400.452
394.025
387.027
379.548
371.576
363.16
354.268
344.828
334.899
324.412
313.377
301.685
289.282
276.038
261.827
246.422
229.559
210.769
189.54
165.61
140.098
114.518
89.62
71.907
67.1453
66.8716
66.8911
66.8631
66.7916
66.7515
66.7219
66.6591
66.923
68.0627
68.6622
66.8076
64.6501
64.5046
64.5001
64.5
64.5
64.5
64.5
64.5
307.005
327.663
345.64
361.465
375.412
387.608
398.095
406.891
414.063
419.7
423.978
427.007
428.904
429.773
429.697
428.72
426.878
424.212
420.819
416.663
411.979
406.667
400.859
394.532
387.691
380.311
372.474
364.164
355.42
346.207
336.45
326.199
315.374
303.974
291.88
279.025
265.255
250.413
234.226
216.359
196.28
173.598
148.785
123.574
98.5018
77.1595
67.846
66.8843
66.8776
66.866
66.8107
66.7676
66.7414
66.7104
66.6833
67.2083
68.4979
68.3922
65.4537
64.5371
64.5008
64.5
64.5
64.5
64.5
64.5
64.5
306.973
327.584
345.534
361.351
375.318
387.549
398.07
406.912
414.11
419.769
424.007
427.012
428.893
429.747
429.658
428.701
426.913
424.332
420.988
416.972
412.243
407.034
401.241
394.992
388.257
381.037
373.303
365.132
356.503
347.447
337.922
327.851
317.275
306.104
294.322
281.8
268.454
254.104
238.552
221.463
202.434
180.952
157.085
132.225
107.418
84.1245
69.8105
66.9782
66.8541
66.8613
66.8163
66.7758
66.7654
66.7444
66.6877
66.6858
67.7291
68.4586
67.137
64.7565
64.5076
64.5001
64.5
64.5
64.5
64.5
64.5
64.5
306.943
327.504
345.421
361.223
375.192
387.451
398.018
406.89
414.136
419.822
424.086
427.054
428.916
429.758
429.657
428.686
426.922
424.391
421.136
417.173
412.589
407.338
401.652
395.422
388.771
381.661
374.091
366.027
357.543
348.609
339.25
329.417
319.032
308.124
296.592
284.405
271.422
257.54
242.541
226.175
208.042
187.704
164.889
140.505
116.044
92.0472
73.5541
67.3125
66.8394
66.8439
66.8152
66.7745
66.7661
66.7648
66.7264
66.6655
66.862
68.1587
68.171
65.8378
64.5528
64.5013
64.5
64.5
64.5
64.5
64.5
64.5
64.5
306.914
327.429
345.307
361.086
375.049
387.318
397.92
406.847
414.116
419.854
424.143
427.144
428.972
429.8
429.691
428.711
426.932
424.428
421.221
417.351
412.824
407.723
401.998
395.879
389.25
382.23
374.775
366.879
358.505
349.722
340.494
330.837
320.698
309.992
298.74
286.827
274.205
260.72
246.24
230.504
213.197
193.863
172.165
148.459
124.301
100.269
79.059
68.3688
66.8855
66.8216
66.8047
66.7607
66.7561
66.7578
66.7558
66.6918
66.6761
67.4206
68.3303
67.6341
64.8787
64.5095
64.5002
64.5
64.5
64.5
64.5
64.5
64.5
64.5
306.89
327.359
345.199
360.947
374.897
387.166
397.786
406.751
414.08
419.836
424.181
427.207
429.074
429.871
429.752
428.768
426.983
424.465
421.286
417.462
413.033
407.994
402.422
396.267
389.753
382.759
375.399
367.623
359.42
350.753
341.683
332.167
322.213
311.76
300.724
289.11
276.79
263.697
249.656
234.504
217.918
199.517
178.861
156.022
132.217
108.45
85.8117
70.7278
67.0473
66.8188
66.7933
66.7446
66.7287
66.7377
66.7464
66.7257
66.6894
66.9599
68.0285
68.3108
66.0548
64.5763
64.5014
64.5
64.5
64.5
64.5
64.5
64.5
64.5
64.5
306.869
327.298
345.1
360.816
374.742
387.006
397.631
406.62
413.992
419.805
424.168
427.252
429.144
429.985
429.84
428.851
427.063
424.542
421.349
417.557
413.173
408.236
402.731
396.732
390.183
383.308
375.979
368.303
360.227
351.734
342.784
333.432
323.63
313.375
302.601
291.219
279.22
266.459
252.848
238.186
222.261
204.685
185.039
163.113
139.759
116.333
93.23
74.6739
67.504
66.8332
66.79
66.7391
66.7085
66.7076
66.7256
66.7174
66.7075
66.606
67.2582
68.1762
67.4522
65.0042
64.5127
64.5001
64.5
64.5
64.5
64.5
64.5
64.5
64.5
64.5
306.852
327.247
345.013
360.695
374.596
386.842
397.469
406.469
413.868
419.728
424.144
427.244
429.196
430.064
429.967
428.956
427.169
424.646
421.454
417.647
413.297
408.407
403.009
397.079
390.689
383.78
376.574
368.935
360.964
352.603
343.831
334.605
324.976
314.885
304.32
293.211
281.462
269.049
255.805
241.616
226.246
209.422
190.698
169.751
146.985
123.856
100.813
80.0761
68.7604
66.8907
66.7912
66.7438
66.7015
66.6911
66.6976
66.7099
66.7088
66.6318
66.7026
67.6211
68.1556
66.3271
64.5851
64.5017
64.5
64.5
64.5
64.5
64.5
64.5
64.5
64.5
64.5
306.839
327.204
344.939
360.59
374.46
386.69
397.305
406.311
413.724
419.614
424.077
427.227
429.195
430.125
430.055
429.099
427.293
424.776
421.581
417.779
413.415
408.56
403.21
397.392
391.075
384.328
377.09
369.578
361.649
353.4
344.765
335.72
326.224
316.315
305.927
295.04
283.578
271.435
258.569
244.791
229.948
213.756
195.879
175.889
153.875
131.037
108.289
86.4464
71.2521
67.0787
66.7823
66.7432
66.7019
66.6894
66.6922
66.699
66.7059
66.6755
66.734
67.1059
68.0885
67.8983
65.0635
64.5127
64.5002
64.5
64.5
64.5
64.5
64.5
64.5
64.5
64.5
64.5
306.827
327.171
344.879
360.5
374.344
386.547
397.153
406.15
413.576
419.48
423.975
427.17
429.186
430.131
430.126
429.198
427.453
424.92
421.735
417.931
413.575
408.705
403.394
397.626
391.426
384.756
377.68
370.138
362.339
354.138
345.622
336.72
327.408
317.639
307.445
296.75
285.524
273.683
261.113
247.749
233.367
217.769
200.613
181.536
160.354
137.901
115.44
93.2839
75.1361
67.6133
66.79
66.7321
66.6933
66.682
66.6913
66.697
66.7045
66.6897
66.7057
66.7979
67.5919
68.0788
66.314
64.5977
64.5016
64.5
64.5
64.5
64.5
64.5
64.5
64.5
64.5
64.5
64.5
306.819
327.143
344.829
360.427
374.245
386.425
397.01
406.004
413.424
419.345
423.852
427.081
429.139
430.132
430.141
429.28
427.564
425.098
421.901
418.11
413.751
408.893
403.567
397.841
391.694
385.146
378.15
370.77
362.945
354.877
346.415
337.64
328.475
318.896
308.85
298.36
287.342
275.755
263.505
250.466
236.543
221.469
204.986
186.711
166.405
144.478
122.281
100.182
80.2072
68.9226
66.8615
66.7206
66.6791
66.6593
66.6767
66.6909
66.7031
66.7042
66.6965
66.5875
66.8986
67.9033
67.336
65.1272
64.5138
64.5002
64.5
64.5
64.5
64.5
64.5
64.5
64.5
64.5
64.5
64.5
306.813
327.123
344.788
360.368
374.164
386.323
396.889
405.867
413.289
419.207
423.732
426.972
429.064
430.096
430.152
429.304
427.659
425.223
422.098
418.298
413.955
409.095
403.783
398.044
391.942
385.449
378.578
371.282
363.619
355.529
347.205
338.491
329.46
320.033
310.181
299.85
289.051
277.69
265.713
253.016
239.455
224.893
209.011
191.491
172
150.738
128.818
106.979
86.0308
71.318
67.0735
66.7272
66.6725
66.6376
66.6487
66.6674
66.6841
66.688
66.7023
66.6315
66.6392
67.3718
67.9427
66.4426
64.5986
64.5019
64.5
64.5
64.5
64.5
64.5
64.5
64.5
64.5
64.5
64.5
64.5
306.81
327.108
344.76
360.318
374.1
386.24
396.788
405.753
413.163
419.086
423.609
426.869
428.97
430.036
430.13
429.327
427.695
425.333
422.24
418.517
414.167
409.325
404.011
398.287
392.173
385.73
378.919
371.751
364.174
356.244
347.903
339.332
330.37
321.085
311.392
301.26
290.631
279.505
267.775
255.372
242.18
228.027
212.723
195.886
177.197
156.609
135.042
113.495
92.2387
74.8766
67.6038
66.7471
66.6767
66.6353
66.6264
66.6383
66.6553
66.6636
66.6987
66.6972
66.7141
66.952
67.8878
67.7576
65.0802
64.5132
64.5002
64.5
64.5
64.5
64.5
64.5
64.5
64.5
64.5
64.5
64.5
64.5
306.807
327.098
344.737
360.284
374.043
386.173
396.706
405.659
413.059
418.974
423.506
426.762
428.884
429.957
430.084
429.318
427.73
425.38
422.366
418.675
414.408
409.561
404.265
398.54
392.444
385.99
379.234
372.129
364.684
356.843
348.66
340.077
331.265
322.057
312.513
302.548
292.125
281.181
269.703
257.572
244.7
230.95
216.111
199.933
181.995
162.145
140.953
119.688
98.4995
79.4448
68.7905
66.815
66.6765
66.6375
66.622
66.6203
66.6337
66.6379
66.6718
66.6815
66.7066
66.8402
67.4649
67.9216
66.1809
64.5945
64.5017
64.5
64.5
64.5
64.5
64.5
64.5
64.5
64.5
64.5
64.5
64.5
64.5
306.805
327.091
344.722
360.256
374.006
386.114
396.642
405.586
412.976
418.885
423.41
426.678
428.795
429.889
430.021
429.288
427.733
425.429
422.428
418.819
414.586
409.823
404.526
398.82
392.723
386.288
379.524
372.479
365.102
357.395
349.304
340.877
332.059
323.006
313.551
303.742
293.493
282.763
271.484
259.623
247.051
233.654
219.263
203.618
186.416
167.314
146.645
125.575
104.629
84.6666
70.8907
67.0013
66.6721
66.6303
66.6166
66.6172
66.6243
66.6224
66.6502
66.6644
66.672
66.6609
66.9222
67.6965
67.1446
65.0511
64.5127
64.5002
64.5
64.5
64.5
64.5
64.5
64.5
64.5
64.5
64.5
64.5
64.5
64.5
306.804
327.088
344.711
360.237
373.975
386.077
396.585
405.526
412.913
418.814
423.339
426.6
428.73
429.818
429.971
429.241
427.721
425.446
422.491
418.897
414.748
410.023
404.812
399.106
393.029
386.593
379.849
372.8
365.488
357.854
349.899
341.565
332.902
323.852
314.558
304.848
294.765
284.217
273.16
261.516
249.239
236.173
222.176
207.035
190.44
172.103
152.028
131.226
110.513
90.2005
73.9727
67.4441
66.6848
66.6142
66.5999
66.6031
66.6153
66.6154
66.6442
66.6536
66.6509
66.6409
66.5539
67.2156
67.6603
66.1672
64.5823
64.5016
64.5
64.5
64.5
64.5
64.5
64.5
64.5
64.5
64.5
64.5
64.5
64.5
64.5
306.805
327.086
344.705
360.223
373.954
386.047
396.551
405.474
412.864
418.765
423.283
426.547
428.671
429.774
429.92
429.211
427.69
425.451
422.521
418.975
414.844
410.206
405.033
399.417
393.339
386.924
380.179
373.153
365.841
358.277
350.399
342.204
333.636
324.739
315.456
305.915
295.941
285.57
274.704
263.295
251.255
238.513
224.887
210.192
194.163
176.483
157.082
136.595
116.136
95.7905
77.8973
68.4038
66.7437
66.6126
66.582
66.5816
66.5917
66.5972
66.6315
66.6477
66.658
66.6536
66.647
66.7729
67.6482
67.35
64.9104
64.5106
64.5002
64.5
64.5
64.5
64.5
64.5
64.5
64.5
64.5
64.5
64.5
64.5
64.5
64.5
306.803
327.087
344.701
360.213
373.939
386.026
396.523
405.447
412.819
418.728
423.249
426.508
428.636
429.734
429.896
429.178
427.679
425.437
422.544
419.019
414.938
410.319
405.238
399.66
393.675
387.26
380.535
373.509
366.222
358.662
350.861
342.747
334.319
325.519
316.389
306.87
297.074
286.823
276.144
264.938
253.145
240.666
227.398
213.124
197.602
180.545
161.769
141.729
121.491
101.31
82.4132
70.0641
66.8876
66.6177
66.5829
66.5691
66.5684
66.5678
66.5997
66.6235
66.6508
66.6499
66.6944
66.8006
67.4061
67.8464
65.7922
64.5605
64.5013
64.5
64.5
64.5
64.5
64.5
64.5
64.5
64.5
64.5
64.5
64.5
64.5
64.5
64.5
306.801
327.08
344.7
360.205
373.927
386.011
396.505
405.424
412.8
418.693
423.225
426.49
428.615
429.719
429.876
429.174
427.664
425.444
422.546
419.059
414.997
410.43
405.371
399.888
393.943
387.62
380.896
373.89
366.604
359.073
351.28
343.249
334.906
326.248
317.216
307.85
298.087
288.023
277.479
266.471
254.894
242.679
229.705
215.832
200.791
184.302
166.147
146.572
126.592
106.666
87.2751
72.5195
67.1825
66.6234
66.5829
66.5714
66.5625
66.5527
66.569
66.5855
66.6198
66.6239
66.6948
66.7433
66.9999
67.6238
66.8152
64.8171
64.5075
64.5001
64.5
64.5
64.5
64.5
64.5
64.5
64.5
64.5
64.5
64.5
64.5
64.5
64.5
64.5
306.8
327.075
344.687
360.203
373.916
385.999
396.492
405.41
412.784
418.683
423.202
426.481
428.615
429.716
429.881
429.174
427.681
425.448
422.572
419.079
415.054
410.506
405.5
400.042
394.193
387.912
381.282
374.274
367.01
359.482
351.721
343.705
335.449
326.88
317.992
308.725
299.116
289.099
278.752
267.893
256.529
244.543
231.856
218.313
203.728
187.783
170.22
151.139
131.403
111.757
92.2529
75.7325
67.8382
66.6451
66.5698
66.5649
66.5659
66.5561
66.5598
66.5605
66.5916
66.5877
66.6496
66.6131
66.6569
67.1863
67.3624
65.6107
64.5414
64.5008
64.5
64.5
64.5
64.5
64.5
64.5
64.5
64.5
64.5
64.5
64.5
64.5
64.5
64.5
64.5
306.8
327.071
344.678
360.186
373.913
385.986
396.482
405.402
412.777
418.677
423.204
426.47
428.621
429.733
429.896
429.199
427.701
425.485
422.594
419.122
415.092
410.581
405.593
400.19
394.369
388.187
381.598
374.686
367.417
359.912
352.157
344.177
335.943
327.467
318.67
309.548
300.041
290.181
279.895
269.245
258.045
246.29
233.851
220.622
206.414
190.983
174.008
155.442
135.961
116.542
97.172
79.5212
69.0204
66.7297
66.5434
66.5436
66.5532
66.5538
66.5598
66.5633
66.5868
66.5798
66.6282
66.6065
66.5678
66.7979
67.4815
66.749
64.6881
64.5048
64.5001
64.5
64.5
64.5
64.5
64.5
64.5
64.5
64.5
64.5
64.5
64.5
64.5
64.5
64.5
64.5
306.795
327.07
344.67
360.173
373.894
385.984
396.469
405.395
412.774
418.677
423.208
426.485
428.624
429.755
429.931
429.234
427.746
425.524
422.651
419.162
415.152
410.635
405.686
400.301
394.537
388.386
381.899
375.028
367.854
360.342
352.611
344.64
336.447
328
319.303
310.276
300.915
291.158
281.032
270.459
259.483
247.91
235.72
222.765
208.906
193.907