/*--------------------------------*- C++ -*----------------------------------*\
| =========                 |                                                 |
| \\      /  F ield         | OpenFOAM: The Open Source CFD Toolbox           |
|  \\    /   O peration     | Version:  v2012                                 |
|   \\  /    A nd           | Website:  www.openfoam.com                      |
|    \\/     M anipulation  |                                                 |
\*---------------------------------------------------------------------------*/
FoamFile
{
    version     2.0;
    format      ascii;
    class       volScalarField;
    location    "0";
    object      TuM;
}
// * * * * * * * * * * * * * * * * * * * * * * * * * * * * * * * * * * * * * //

dimensions      [0 0 0 0 0 0 0];


internalField   nonuniform List<scalar> 
39402
(
0.164982
0.038079
0.0740932
0.02316
0.0155855
0.0449311
0.0217417
0.00918188
0.0100441
0.0316611
0.023008
0.012379
0.00556911
0.00845893
0.0253566
0.0239915
0.0158561
0.0226411
0.00489404
0.00821732
0.0227276
0.024599
0.0177493
0.0322345
0.0393551
0.00564369
0.00843999
0.0218843
0.024944
0.018827
0.0369188
0.0562374
0.0592141
0.00702496
0.00875781
0.0218507
0.0250937
0.0193949
0.0394869
0.0642771
0.084303
0.0809847
0.00863349
0.00902148
0.0221718
0.0251525
0.0197156
0.0408069
0.0686204
0.096033
0.114682
0.10354
0.0102712
0.00918527
0.0226496
0.0250781
0.0198526
0.0415519
0.0708341
0.102293
0.130158
0.145632
0.125747
0.0118031
0.00925713
0.0231996
0.0249365
0.0198207
0.0418588
0.0720519
0.105466
0.138311
0.164618
0.17548
0.146631
0.0131672
0.00927088
0.0237859
0.0247791
0.0197247
0.0417857
0.0725357
0.107168
0.142434
0.174488
0.197534
0.202956
0.165521
0.0143901
0.00926681
0.0243925
0.0246046
0.0196167
0.0415808
0.072379
0.107822
0.14459
0.179478
0.208849
0.227577
0.227379
0.182628
0.0154944
0.00926034
0.0250183
0.0244127
0.019475
0.0413521
0.072008
0.107558
0.145397
0.182024
0.214581
0.240055
0.254122
0.248781
0.198231
0.0165208
0.00926364
0.0256586
0.0242264
0.0193169
0.0410416
0.0715936
0.106995
0.145024
0.182964
0.217441
0.246401
0.267535
0.277132
0.26764
0.212544
0.0174837
0.00930095
0.026315
0.0240386
0.0191638
0.0406977
0.0710437
0.106366
0.144275
0.182503
0.218491
0.249503
0.274385
0.291329
0.297234
0.284219
0.225723
0.018151
0.00940437
0.0269864
0.0238423
0.0190024
0.0403643
0.070439
0.105546
0.143434
0.181608
0.217981
0.25065
0.277679
0.298598
0.312003
0.314764
0.298728
0.237786
0.018326
0.00959873
0.0276784
0.0236422
0.0188252
0.0400095
0.0698506
0.104646
0.14235
0.18059
0.216998
0.250129
0.278909
0.302054
0.319577
0.329996
0.329966
0.311267
0.2482
0.0178859
0.0099054
0.0283872
0.0234561
0.0186496
0.0396187
0.0692265
0.10377
0.141165
0.179289
0.215854
0.249111
0.27841
0.303353
0.323135
0.337822
0.345613
0.343039
0.321816
0.254939
0.0167277
0.0103372
0.0291235
0.023281
0.0184898
0.0392336
0.0685434
0.102842
0.140006
0.177866
0.214406
0.2479
0.277401
0.302891
0.324467
0.341455
0.35366
0.359093
0.354104
0.330084
0.256961
0.0149727
0.0108886
0.0298117
0.0231058
0.0183372
0.0388842
0.0678708
0.101833
0.13878
0.176469
0.212819
0.246373
0.276164
0.301913
0.324033
0.342812
0.357353
0.367356
0.370624
0.363186
0.335522
0.253955
0.0129192
0.0113463
0.0304413
0.0229291
0.0181799
0.0385475
0.0672576
0.100838
0.137452
0.17499
0.211252
0.244695
0.274611
0.300676
0.323074
0.342408
0.358733
0.371104
0.37913
0.38034
0.370283
0.33806
0.245231
0.0109054
0.0117857
0.0309911
0.0227616
0.0180222
0.0382002
0.066666
0.0999277
0.136143
0.173396
0.209592
0.243027
0.2729
0.299127
0.321834
0.341473
0.358364
0.372517
0.38295
0.38915
0.388333
0.375282
0.337242
0.230092
0.00933
0.0122429
0.0313571
0.0226024
0.0178753
0.0378527
0.0660578
0.0990483
0.134941
0.171824
0.207811
0.241259
0.271187
0.297418
0.320288
0.340239
0.357461
0.372189
0.384405
0.393082
0.397557
0.3946
0.377946
0.332487
0.208048
0.00834257
0.0127099
0.0316246
0.0224461
0.0177366
0.0375308
0.0654512
0.0981468
0.133776
0.170371
0.20605
0.239369
0.269368
0.295697
0.318592
0.338709
0.356242
0.371323
0.384127
0.394603
0.40166
0.404416
0.39904
0.377986
0.32325
0.179111
0.00790925
0.0131256
0.0319057
0.0222933
0.0175975
0.037227
0.0648881
0.0972501
0.132586
0.168961
0.204416
0.237499
0.267432
0.293869
0.316885
0.337028
0.354735
0.370128
0.383304
0.394388
0.403279
0.408794
0.409727
0.401503
0.374932
0.308702
0.144589
0.00783231
0.0134621
0.0321908
0.0221465
0.0174601
0.0369226
0.0643572
0.0964154
0.131403
0.167522
0.202824
0.235754
0.265517
0.291929
0.315066
0.335331
0.353081
0.368654
0.382143
0.393619
0.403151
0.410569
0.41454
0.413439
0.401737
0.368136
0.287639
0.107892
0.00795912
0.0137212
0.0324958
0.0220059
0.0173298
0.0366216
0.0638273
0.0956291
0.1303
0.166095
0.201203
0.234049
0.263718
0.290009
0.313145
0.333523
0.351403
0.367033
0.380711
0.392499
0.402448
0.41056
0.416563
0.418913
0.415443
0.399308
0.356969
0.259393
0.0743454
0.00817009
0.0139295
0.032791
0.0218664
0.0172056
0.0363375
0.0633045
0.0948458
0.129259
0.164758
0.199596
0.232314
0.261956
0.288197
0.311244
0.331618
0.349613
0.365385
0.379132
0.391118
0.401383
0.409942
0.416723
0.421312
0.421885
0.415505
0.393725
0.340947
0.223301
0.0481374
0.00839302
0.0140893
0.0330879
0.021731
0.0170808
0.0360681
0.0628114
0.0940751
0.128224
0.163497
0.198087
0.230597
0.260165
0.286417
0.309441
0.329732
0.347734
0.363621
0.377518
0.389588
0.400061
0.408946
0.416225
0.421721
0.424843
0.423351
0.413306
0.384378
0.31942
0.1803
0.0300881
0.00860594
0.0142971
0.0333681
0.0216055
0.0169602
0.0357979
0.062345
0.0933476
0.127208
0.162244
0.196658
0.228978
0.258393
0.284608
0.307664
0.327936
0.345872
0.361774
0.375789
0.388017
0.398589
0.407699
0.415322
0.421388
0.425606
0.427124
0.42313
0.408388
0.370599
0.29059
0.134533
0.0187408
0.00879046
0.0144913
0.0336602
0.0214844
0.0168494
0.0355378
0.0618795
0.0926618
0.126249
0.161015
0.19524
0.227441
0.256718
0.282823
0.305861
0.326163
0.344095
0.359948
0.373984
0.38633
0.39707
0.406292
0.414161
0.42061
0.425502
0.428392
0.428064
0.42093
0.400147
0.351867
0.253376
0.0926643
0.0122004
0.00892466
0.0146139
0.0339688
0.021363
0.0167415
0.0353007
0.0614335
0.091979
0.125345
0.159853
0.193851
0.225917
0.255125
0.281129
0.304084
0.324366
0.342333
0.358194
0.372195
0.384571
0.395431
0.404832
0.412835
0.419558
0.424887
0.428608
0.430044
0.42749
0.416332
0.387873
0.327875
0.207593
0.0597191
0.0088595
0.00900851
0.0146709
0.0342915
0.0212414
0.0166314
0.0350705
0.0610261
0.0913264
0.124447
0.158758
0.192536
0.224425
0.253544
0.279514
0.302391
0.322597
0.340551
0.356452
0.370473
0.382826
0.393722
0.403249
0.411444
0.418327
0.423977
0.428214
0.430708
0.430473
0.425131
0.40876
0.370955
0.296403
0.156853
0.0367122
0.00742778
0.00903373
0.0146928
0.0345988
0.0211275
0.0165214
0.0348361
0.0606344
0.0907311
0.12359
0.157671
0.191295
0.223011
0.251999
0.277912
0.300775
0.320907
0.338797
0.354692
0.368758
0.381142
0.392028
0.401598
0.409926
0.417019
0.42286
0.42748
0.430615
0.431761
0.42951
0.42058
0.397489
0.349152
0.256041
0.108601
0.0219872
0.00692104
0.00902325
0.0146996
0.0348372
0.0210285
0.0164228
0.034604
0.0602375
0.0901607
0.122807
0.156635
0.190064
0.221676
0.250531
0.276348
0.29917
0.319289
0.337119
0.352962
0.367026
0.37946
0.390384
0.399956
0.408339
0.415577
0.421653
0.42651
0.430115
0.432083
0.431673
0.42689
0.413277
0.381782
0.321468
0.207062
0.0695868
0.0132556
0.00676485
0.00900902
0.0146963
0.0349737
0.0209315
0.0163384
0.0343991
0.0598467
0.0895858
0.12206
0.155687
0.18889
0.220347
0.249143
0.274861
0.297607
0.317686
0.335508
0.351302
0.365325
0.377761
0.38874
0.398358
0.406755
0.414061
0.4203
0.425422
0.429326
0.431889
0.432572
0.43028
0.42222
0.402501
0.361303
0.285668
0.15427
0.0420245
0.0085477
0.00671901
0.00900413
0.0147223
0.0350361
0.0208336
0.0162544
0.0342258
0.0595031
0.089023
0.12131
0.154782
0.187813
0.219082
0.24776
0.27345
0.296118
0.316124
0.333911
0.349706
0.363689
0.376091
0.387078
0.396758
0.405209
0.412542
0.418867
0.424176
0.428385
0.431334
0.432792
0.43198
0.427315
0.414964
0.387487
0.335906
0.240694
0.105712
0.0243589
0.00640669
0.0066826
0.00902577
0.0148252
0.0350777
0.0207341
0.0161654
0.0340546
0.0592148
0.0885294
0.120579
0.153879
0.186786
0.217916
0.246444
0.272043
0.294701
0.314633
0.332358
0.348122
0.362113
0.374486
0.385445
0.395138
0.403656
0.411056
0.417421
0.422838
0.427269
0.430581
0.432541
0.432761
0.430136
0.422396
0.404428
0.367973
0.303179
0.188559
0.0673617
0.0139042
0.00563836
0.00665915
0.00906261
0.0149827
0.035116
0.0206413
0.0160764
0.033872
0.0589323
0.0881162
0.119938
0.153
0.185762
0.216805
0.245224
0.270704
0.293291
0.313214
0.330874
0.346586
0.360548
0.372933
0.383871
0.393545
0.402081
0.409555
0.415997
0.421476
0.426043
0.429623
0.432025
0.432915
0.43169
0.426776
0.414997
0.38985
0.343748
0.261625
0.135834
0.0405294
0.00828278
0.00541441
0.00664676
0.00908813
0.0151756
0.0351473
0.0205632
0.0159973
0.0336913
0.0586326
0.0877139
0.119402
0.15223
0.184771
0.215699
0.24406
0.269456
0.291946
0.311808
0.329459
0.345113
0.35903
0.37139
0.382346
0.392005
0.400531
0.40803
0.414559
0.420128
0.424778
0.428532
0.431262
0.432707
0.432392
0.429401
0.421513
0.404428
0.370955
0.312985
0.211558
0.0902278
0.0234204
0.00570738
0.00534742
0.00663682
0.0091157
0.015369
0.0351719
0.0204907
0.015933
0.0335343
0.0583376
0.0872906
0.118882
0.151585
0.183899
0.214631
0.242904
0.268265
0.290687
0.310467
0.328058
0.343708
0.357575
0.369897
0.38083
0.390511
0.399031
0.406527
0.413089
0.418757
0.423516
0.427381
0.430338
0.432194
0.432589
0.430852
0.425618
0.413812
0.389947
0.347497
0.273831
0.15782
0.0559217
0.0132812
0.00478414
0.00531742
0.00662176
0.00914516
0.0155342
0.0351884
0.0204165
0.0158726
0.0334103
0.0580841
0.0868757
0.11834
0.150962
0.183167
0.213688
0.241792
0.267082
0.289485
0.309208
0.326719
0.342314
0.356184
0.368461
0.379363
0.389025
0.397571
0.405069
0.411637
0.417349
0.422222
0.426218
0.429324
0.431474
0.432396
0.431593
0.428105
0.419944
0.402978
0.371284
0.317963
0.225827
0.1083
0.032846
0.00775933
0.00452736
0.00529947
0.00661646
0.00918736
0.0156562
0.0351983
0.0203361
0.0158061
0.033295
0.0578872
0.0865217
0.11781
0.150315
0.182457
0.212891
0.240804
0.265949
0.288292
0.308001
0.325457
0.340983
0.354804
0.367087
0.37795
0.387586
0.396118
0.403648
0.410225
0.415956
0.420885
0.425014
0.428278
0.430628
0.431935
0.431819
0.429588
0.423864
0.411831
0.388329
0.348152
0.280431
0.17249
0.0688604
0.0185824
0.00515596
0.00446422
0.00528234
0.00663025
0.00925728
0.0157379
0.0352039
0.020256
0.0157324
0.0331644
0.0577059
0.0862508
0.117361
0.149686
0.181728
0.212118
0.239963
0.264936
0.28715
0.306805
0.324246
0.339723
0.353483
0.365721
0.376595
0.3862
0.39471
0.40223
0.408847
0.414594
0.419556
0.423759
0.42718
0.429725
0.431297
0.431688
0.430373
0.426371
0.417713
0.400569
0.36961
0.319181
0.23412
0.121257
0.0411837
0.0103797
0.00418736
0.00443891
0.00526754
0.00664762
0.00936456
0.0157807
0.0352067
0.0201817
0.0156607
0.0330201
0.0575011
0.0860027
0.11702
0.149154
0.181022
0.211331
0.239145
0.264064
0.286125
0.305662
0.323046
0.338509
0.352227
0.364416
0.375248
0.384867
0.393352
0.400856
0.407468
0.413262
0.418251
0.422502
0.42602
0.428752
0.430566
0.431312
0.430673
0.427914
0.421633
0.409082
0.385559
0.346475
0.282453
0.181759
0.0788337
0.0235584
0.00609363
0.00391047
0.00442504
0.00526291
0.00667072
0.00948493
0.0157993
0.0352076
0.0201234
0.0155984
0.0328808
0.0572739
0.0857238
0.116709
0.148751
0.180426
0.210571
0.238319
0.263217
0.285235
0.30463
0.321901
0.33731
0.351017
0.363168
0.373957
0.38354
0.392041
0.399527
0.40613
0.411926
0.41697
0.421263
0.424847
0.427704
0.429744
0.430799
0.430635
0.428786
0.424216
0.414937
0.397243
0.366575
0.317572
0.23706
0.130076
0.0480481
0.0131159
0.00421317
0.00383974
0.00441542
0.00525966
0.00669873
0.00959977
0.0158075
0.0352071
0.0200786
0.0155529
0.0327637
0.0570562
0.0854145
0.116362
0.148384
0.179971
0.209927
0.237525
0.262366
0.284366
0.303728
0.320863
0.336166
0.349819
0.361964
0.372721
0.382269
0.390738
0.398245
0.404835
0.410628
0.415682
0.42004
0.423681
0.426627
0.42883
0.430162
0.430393
0.429188
0.425865
0.418954
0.405684
0.381706
0.343187
0.281031
0.185353
0.0859605
0.0279111
0.00736342
0.00357855
0.00382156
0.00440912
0.00526948
0.00673807
0.0096801
0.0158125
0.0352051
0.0200396
0.015525
0.0326838
0.0568763
0.0851196
0.115977
0.147977
0.179556
0.20943
0.236848
0.26155
0.283498
0.302842
0.319946
0.335125
0.34868
0.360771
0.371525
0.381046
0.389485
0.396965
0.403581
0.409369
0.41443
0.418806
0.422524
0.425545
0.427868
0.429407
0.429986
0.429295
0.426854
0.421666
0.411658
0.393125
0.362272
0.313994
0.235989
0.133684
0.0530093
0.0156784
0.00455075
0.00341224
0.00381718
0.0044019
0.00528711
0.00679972
0.00972377
0.0158144
0.0352024
0.0199953
0.0154948
0.0326435
0.0567597
0.0848797
0.115612
0.147529
0.1791
0.208975
0.236318
0.260851
0.282669
0.301965
0.319045
0.334198
0.347638
0.359639
0.370339
0.379859
0.388277
0.395732
0.402328
0.408147
0.41321
0.417603
0.421353
0.424465
0.426888
0.428582
0.429426
0.429176
0.427417
0.423454
0.41583
0.401701
0.376898
0.338405
0.277189
0.184707
0.0889404
0.0310117
0.00870189
0.0034482
0.00337366
0.00381488
0.00440202
0.00531167
0.00688087
0.00973771
0.0158156
0.0351994
0.0199436
0.0154581
0.0325948
0.0567083
0.0847307
0.115319
0.147107
0.178603
0.20848
0.235828
0.260294
0.281955
0.301128
0.318155
0.333283
0.346703
0.358598
0.369216
0.378682
0.387102
0.394542
0.401119
0.406923
0.412022
0.416426
0.420204
0.423365
0.425897
0.42772
0.42877
0.428861
0.427668
0.424626
0.418713
0.407846
0.388318
0.356824
0.30858
0.232026
0.133424
0.055105
0.0174461
0.0050626
0.00311976
0.00336709
0.00381164
0.00440533
0.00533604
0.00695857
0.00973906
0.0158166
0.035197
0.0198793
0.0154088
0.0325317
0.0566439
0.084674
0.115143
0.146769
0.178137
0.207947
0.235303
0.259775
0.281375
0.300401
0.317311
0.332384
0.345778
0.357659
0.368179
0.377565
0.385937
0.39338
0.399947
0.40574
0.410831
0.415279
0.419077
0.422281
0.424879
0.426838
0.428051
0.428411
0.427661
0.425359
0.420716
0.412235
0.397032
0.371278
0.332248
0.271082
0.180989
0.0888985
0.0323216
0.00959719
0.00346123
0.00304088
0.00336807
0.00380927
0.00442078
0.0053697
0.00701105
0.00973804
0.0158169
0.0351946
0.0198126
0.0153455
0.0324387
0.0565553
0.0845993
0.115085
0.146571
0.177764
0.207451
0.234744
0.259224
0.28083
0.299802
0.316572
0.331533
0.344874
0.356726
0.367235
0.376535
0.384832
0.392228
0.398802
0.404589
0.409674
0.414121
0.417973
0.421209
0.423867
0.425916
0.427295
0.427867
0.427467
0.425746
0.422095
0.415382
0.403465
0.382774
0.350421
0.301465
0.225391
0.130299
0.0551553
0.0181922
0.00540618
0.00292189
0.00302617
0.00337012
0.00380881
0.00443984
0.0054194
0.00703123
0.00973751
0.0158167
0.0351928
0.0197464
0.0152823
0.0323147
0.0564172
0.0844913
0.115004
0.14651
0.177548
0.20705
0.234225
0.258646
0.280257
0.299232
0.315951
0.330781
0.344016
0.355815
0.366297
0.37559
0.383808
0.391134
0.397662
0.40346
0.408547
0.412996
0.416856
0.420155
0.422862
0.424989
0.426488
0.427262
0.427138
0.425878
0.422999
0.417642
0.408187
0.391684
0.364913
0.324928
0.262853
0.174416
0.08652
0.0323664
0.00998538
0.0034629
0.00278304
0.00302643
0.00337111
0.00381364
0.00446021
0.00547915
0.00703116
0.00973798
0.0158165
0.0351913
0.0196885
0.0152221
0.0321919
0.0562261
0.0843131
0.114881
0.146422
0.177477
0.206816
0.233803
0.258112
0.279663
0.298639
0.315356
0.330142
0.343254
0.354953
0.365382
0.374648
0.382863
0.390118
0.396582
0.402337
0.407439
0.411895
0.415765
0.419083
0.421863
0.424057
0.425662
0.42659
0.42672
0.425819
0.423549
0.41924
0.411659
0.398531
0.376453
0.343132
0.292908
0.216316
0.124487
0.0534136
0.0182383
0.00554654
0.00276296
0.00275516
0.00302943
0.00337349
0.00382353
0.00448427
0.00552667
0.00702693
0.0097384
0.0158166
0.0351896
0.0196424
0.0151726
0.032076
0.0560367
0.0840585
0.114669
0.146284
0.177379
0.206727
0.233552
0.257672
0.279118
0.298032
0.314744
0.329526
0.342599
0.354184
0.364516
0.373731
0.38192
0.389178
0.395576
0.401272
0.406336
0.410812
0.414694
0.41803
0.42084
0.423124
0.424818
0.425885
0.426214
0.42563
0.423831
0.420342
0.414205
0.403654
0.385669
0.357654
0.316381
0.252917
0.165315
0.0818724
0.0312224
0.0100046
0.00342898
0.00257422
0.00275219
0.0030335
0.00337392
0.00383906
0.00451865
0.00554267
0.00702448
0.0097389
0.015817
0.0351897
0.0196117
0.0151376
0.0319841
0.055858
0.0838055
0.114358
0.146046
0.177224
0.20661
0.233435
0.257402
0.278662
0.297475
0.314122
0.328895
0.341962
0.353513
0.363741
0.372865
0.381002
0.388236
0.394642
0.400276
0.405284
0.409729
0.413636
0.416994
0.419833
0.422161
0.423961
0.425144
0.425652
0.425325
0.423933
0.421068
0.416051
0.407502
0.392965
0.369347
0.33477
0.282814
0.205378
0.116407
0.050045
0.0175161
0.00551424
0.00262803
0.00253448
0.00275682
0.00303561
0.00337814
0.00385843
0.00456399
0.00554052
0.00702406
0.00973962
0.0158175
0.03519
0.0195921
0.0151203
0.0319229
0.0557199
0.083568
0.114051
0.145691
0.176962
0.206436
0.233293
0.257252
0.278373
0.297004
0.313554
0.328258
0.341314
0.352858
0.363057
0.372086
0.380135
0.387319
0.393704
0.399351
0.404305
0.408697
0.412578
0.415967
0.418836
0.421205
0.423064
0.424376
0.425036
0.42494
0.423878
0.421539
0.417366
0.41037
0.39858
0.37897
0.349446
0.306476
0.241183
0.154528
0.0754509
0.0290175
0.00955431
0.00333637
0.0024018
0.0025309
0.00275929
0.00303748
0.00338565
0.0038797
0.00460019
0.00553396
0.00702463
0.00974012
0.015818
0.0351903
0.0195803
0.0151137
0.0319014
0.0556309
0.0833866
0.113763
0.145342
0.176576
0.206151
0.233096
0.25708
0.278186
0.296695
0.313068
0.327678
0.340664
0.352192
0.362385
0.37139
0.379354
0.386451
0.392789
0.398419
0.403391
0.407733
0.411569
0.414935
0.417844
0.420253
0.422168
0.423562
0.424374
0.424472
0.423707
0.4218
0.41832
0.412485
0.402855
0.386722
0.361521
0.325238
0.270993
0.192638
0.10702
0.0456366
0.0161583
0.00522997
0.0024917
0.00235303
0.00253378
0.00276328
0.00303794
0.00340087
0.00390707
0.0046073
0.00553091
0.00702537
0.00974078
0.0158189
0.0351916
0.0195686
0.0151122
0.0319022
0.0556081
0.083275
0.113545
0.145014
0.176198
0.205744
0.232789
0.256855
0.277983
0.296471
0.312736
0.327177
0.340072
0.35153
0.361708
0.370705
0.378651
0.38567
0.391923
0.39751
0.402467
0.406832
0.410624
0.413951
0.416846
0.419303
0.421269
0.422736
0.423655
0.423941
0.423422
0.421895
0.418985
0.414085
0.40607
0.392891
0.371509
0.340335
0.295078
0.22745
0.142253
0.0682359
0.0262398
0.00875776
0.00314143
0.00224946
0.00234625
0.00253855
0.00276619
0.00304158
0.0034173
0.00394168
0.00460093
0.00553051
0.0070263
0.00974181
0.0158199
0.0351939
0.0195527
0.0151071
0.0319118
0.0556217
0.0832563
0.113417
0.14477
0.175843
0.205349
0.232367
0.256527
0.277728
0.296234
0.312476
0.326825
0.339557
0.35093
0.361036
0.370014
0.377953
0.384961
0.391141
0.396646
0.401564
0.405918
0.409738
0.413027
0.415889
0.418341
0.420366
0.421898
0.422912
0.423333
0.423045
0.421835
0.419417
0.415278
0.40855
0.397608
0.379755
0.35285
0.314489
0.257311
0.177997
0.096529
0.0407617
0.0145056
0.00478358
0.00233722
0.00219646
0.00234843
0.00254237
0.00276817
0.00305056
0.00343601
0.0039637
0.00459403
0.00553115
0.00702727
0.00974288
0.0158211
0.0351965
0.0195298
0.0150948
0.0319118
0.0556502
0.0832886
0.113406
0.144627
0.175581
0.204977
0.231961
0.256093
0.277378
0.29595
0.312206
0.32653
0.339185
0.350401
0.360425
0.369333
0.37725
0.384253
0.390429
0.395866
0.400708
0.405026
0.408839
0.412161
0.414991
0.417416
0.419449
0.421053
0.422146
0.422688
0.422574
0.421647
0.419636
0.416145
0.410455
0.401304
0.386414
0.36324
0.330239
0.282117
0.211718
0.128443
0.060389
0.0231822
0.00782072
0.0028927
0.00210893
0.00218844
0.00235169
0.00254621
0.00277071
0.00306621
0.00346183
0.00396134
0.00459195
0.00553211
0.00702839
0.00974418
0.0158231
0.0352003
0.0195017
0.0150741
0.0318936
0.0556603
0.083342
0.113458
0.144625
0.175428
0.204704
0.231582
0.255683
0.276936
0.295581
0.311893
0.326228
0.338858
0.350013
0.359882
0.368711
0.376562
0.383543
0.389715
0.395153
0.399929
0.404176
0.407958
0.41128
0.414147
0.416548
0.418564
0.420185
0.421368
0.42201
0.422048
0.421341
0.419685
0.416721
0.411897
0.404182
0.391766
0.371957
0.343241
0.302375
0.241783
0.161679
0.0850574
0.0355129
0.01269
0.00427422
0.00218036
0.00205994
0.00218969
0.00235535
0.00254777
0.00277581
0.00308047
0.00348563
0.00395241
0.00459216
0.00553318
0.00702964
0.00974569
0.0158252
0.0352037
0.0194646
0.0150456
0.0318557
0.0556397
0.0833671
0.113537
0.144691
0.175428
0.204542
0.231299
0.255298
0.276522
0.295129
0.311504
0.325888
0.338526
0.349655
0.359478
0.368159
0.375932
0.382845
0.388999
0.394436
0.399217
0.403402
0.407118
0.410415
0.413287
0.415731
0.417729
0.419347
0.420562
0.421311
0.421474
0.420959
0.41958
0.417065
0.412937
0.406401
0.395977
0.379218
0.35416
0.318996
0.267384
0.194272
0.113544
0.0520993
0.0199139
0.00679163
0.00262463
0.00198253
0.00205278
0.00219354
0.00235777
0.00254896
0.00278646
0.00309972
0.00349372
0.00394775
0.00459304
0.00553439
0.00703098
0.00974747
0.0158276
0.0352091
0.0194227
0.0150069
0.0317992
0.0555843
0.083348
0.113578
0.144791
0.1755
0.204538
0.23113
0.255009
0.276134
0.29471
0.311043
0.325477
0.338157
0.349294
0.359094
0.36774
0.37537
0.382208
0.388295
0.393712
0.398499
0.402694
0.406352
0.409586
0.412439
0.414895
0.416942
0.418551
0.419776
0.420578
0.420869
0.420511
0.419375
0.417214
0.413661
0.408062
0.399262
0.385202
0.363397
0.332635
0.288665
0.224369
0.144262
0.0731298
0.0301072
0.0107673
0.00372322
0.00202645
0.00194036
0.00205462
0.00219691
0.00236107
0.00255238
0.00280013
0.00312351
0.00348459
0.0039472
0.0045942
0.00553566
0.0070325
0.00974937
0.0158305
0.0352152
0.0193765
0.0149636
0.0317185
0.055497
0.0832776
0.113563
0.144843
0.175608
0.204602
0.231111
0.254828
0.275837
0.29432
0.310618
0.325005
0.337726
0.348898
0.358706
0.36733
0.374937
0.38164
0.387654
0.393006
0.397773
0.401979
0.405649
0.40883
0.411627
0.414072
0.416137
0.417801
0.419027
0.419857
0.420223
0.420023
0.419083
0.417228
0.414134
0.409291
0.401774
0.389939
0.371292
0.344147
0.306133
0.250717
0.175385
0.098257
0.043824
0.016627
0.00572137
0.00234921
0.00186672
0.0019348
0.00205745
0.00220059
0.00236326
0.00255837
0.00281197
0.00313174
0.0034773
0.00394801
0.00459539
0.00553714
0.00703415
0.00975143
0.015834
0.0352216
0.0193304
0.0149165
0.031628
0.0553676
0.0831608
0.113478
0.144827
0.175659
0.204702
0.231156
0.254791
0.275646
0.294017
0.310223
0.324576
0.337244
0.348448
0.358285
0.366919
0.374505
0.381195
0.387077
0.39236
0.397064
0.401253
0.404937
0.408134
0.410882
0.413276
0.415339
0.417032
0.418321
0.419163
0.419579
0.419481
0.418734
0.417129
0.414427
0.410188
0.403688
0.393618
0.377767
0.353958
0.320627
0.272969
0.205044
0.126196
0.0614686
0.0248655
0.00887864
0.00317172
0.0018798
0.00183417
0.00193617
0.00206097
0.0022041
0.00236548
0.0025698
0.00282978
0.00312692
0.00347571
0.00394911
0.00459668
0.00553877
0.00703612
0.009754
0.0158381
0.0352293
0.0192839
0.0148695
0.0315279
0.0552205
0.0829819
0.113335
0.144731
0.175641
0.204744
0.231238
0.254811
0.275586
0.293813
0.309912
0.324175
0.33681
0.347956
0.357816
0.366476
0.374076
0.380746
0.386624
0.391778
0.396414
0.400543
0.404213
0.407429
0.410197
0.412548
0.414567
0.416265
0.417593
0.418509
0.418954
0.41893
0.41832
0.416952
0.414569
0.410841
0.405154
0.396468
0.382992
0.36214
0.332789
0.291543
0.23181
0.155262
0.0830825
0.0359918
0.0135219
0.00470182
0.00209023
0.00176199
0.00183017
0.00193916
0.00206411
0.00220731
0.00237004
0.00258261
0.00284703
0.00311754
0.00347635
0.00395033
0.00459818
0.00554045
0.00703824
0.00975696
0.0158427
0.0352378
0.0192407
0.0148242
0.0314285
0.055057
0.0827771
0.113111
0.144566
0.17553
0.204714
0.231259
0.254865
0.275577
0.29373
0.309695
0.323856
0.336403
0.347514
0.357314
0.365991
0.373612
0.380299
0.38616
0.391318
0.395829
0.39989
0.403505
0.406712
0.409502
0.411875
0.413855
0.415521
0.416865
0.417829
0.418358
0.418386
0.41788
0.416693
0.414606
0.411292
0.406288
0.398714
0.387097
0.369044
0.343054
0.307108
0.25509
0.183848
0.107784
0.0504553
0.0200283
0.00713871
0.00266985
0.00174866
0.00173934
0.00183193
0.00194222
0.00206797
0.0022084
0.00238055
0.00259753
0.0028413
0.00311484
0.00347746
0.00395172
0.00459979
0.00554234
0.00704056
0.00976009
0.0158479
0.035247
0.0192008
0.0147828
0.0313323
0.0548921
0.0825467
0.112853
0.144304
0.175348
0.204588
0.231213
0.254859
0.2756
0.293691
0.309589
0.323627
0.336076
0.347102
0.356865
0.365478
0.37311
0.379817
0.385698
0.390843
0.395362
0.399303
0.402852
0.406006
0.408795
0.411194
0.413202
0.414832
0.416153
0.417148
0.41774
0.417863
0.417434
0.416392
0.414539
0.411601
0.407142
0.400499
0.390406
0.374754
0.351747
0.320061
0.274982
0.210675
0.134247
0.0684005
0.0288237
0.0107121
0.0037912
0.00186783
0.00166879
0.00173736
0.00183457
0.00194569
0.00206872
0.00221021
0.00239134
0.0026084
0.00283254
0.00311524
0.00347869
0.0039532
0.00460151
0.00554443
0.00704321
0.00976372
0.0158536
0.0352575
0.0191663
0.0147462
0.0312443
0.0547322
0.0823148
0.112562
0.144004
0.175059
0.204391
0.231071
0.254792
0.275563
0.293682
0.309521
0.323497
0.335835
0.346767
0.356448
0.365021
0.372589
0.3793
0.385199
0.390369
0.39488
0.398833
0.402267
0.405356
0.408095
0.410499
0.412535
0.414197
0.415492
0.416473
0.41711
0.417311
0.416999
0.416064
0.414407
0.411775
0.407802
0.401893
0.393066
0.379516
0.35911
0.330925
0.291655
0.234907
0.161206
0.0895364
0.0402996
0.0157038
0.00559907
0.00224425
0.00163675
0.00165481
0.00173932
0.00183773
0.00194818
0.00207005
0.00221894
0.00240401
0.00261005
0.00282877
0.00311635
0.00348009
0.00395481
0.00460342
0.00554673
0.0070462
0.00976795
0.0158602
0.0352688
0.0191364
0.0147159
0.0311665
0.0545854
0.0820886
0.112266
0.143662
0.174728
0.204082
0.230859
0.254633
0.275472
0.293614
0.30948
0.323402
0.335684
0.346516
0.356107
0.364598
0.372124
0.378768
0.384669
0.389857
0.394398
0.398345
0.401793
0.404771
0.407448
0.409809
0.411856
0.413552
0.414883
0.415846
0.416484
0.416745
0.416531
0.415736
0.414227
0.411852
0.408282
0.403015
0.3952
0.383413
0.365459
0.340179
0.305639
0.255983
0.187593
0.112979
0.0547328
0.0224379
0.00825205
0.00301337
0.00168772
0.00158696
0.00165447
0.00174216
0.00184041
0.00195092
0.00207539
0.00222914
0.00241869
0.00259987
0.00282904
0.00311764
0.00348155
0.00395656
0.00460551
0.0055493
0.00704953
0.00977265
0.0158678
0.0352815
0.0191122
0.0146906
0.031103
0.0544561
0.0818785
0.111977
0.143315
0.174351
0.203735
0.230541
0.254407
0.275296
0.293498
0.309382
0.32333
0.335561
0.346344
0.355845
0.364251
0.371695
0.378297
0.384131
0.389318
0.393875
0.397856
0.401303
0.404297
0.406865
0.409167
0.411179
0.412892
0.414261
0.415264
0.415894
0.416175
0.416041
0.415365
0.414027
0.411853
0.408624
0.403894
0.396954
0.38657
0.370826
0.348154
0.317337
0.273966
0.212206
0.137831
0.0721607
0.0312826
0.0119565
0.00428648
0.00190246
0.00154308
0.00157931
0.00165683
0.00174453
0.00184258
0.00195275
0.00208034
0.00223857
0.00241455
0.00259576
0.00283015
0.00311903
0.00348319
0.00395848
0.00460775
0.00555217
0.00705313
0.00977774
0.0158757
0.0352961
0.0190911
0.0146714
0.0310505
0.0543482
0.0816929
0.111708
0.142974
0.173972
0.203341
0.230188
0.254083
0.275057
0.293304
0.309243
0.323203
0.335459
0.346197
0.355656
0.36398
0.371342
0.377864
0.383651
0.388769
0.393326
0.397328
0.400811
0.403806
0.406394
0.408589
0.410546
0.412231
0.413625
0.414672
0.415349
0.415636
0.415538
0.414967
0.413776
0.411813
0.408854
0.404578
0.398367
0.389195
0.375333
0.355003
0.327305
0.289099
0.234296
0.162895
0.0923098
0.0425554
0.0169852
0.00618222
0.00238317
0.001547
0.00151453
0.00158022
0.00165909
0.00174699
0.00184493
0.00195423
0.00209008
0.00224726
0.00240626
0.00259591
0.00283143
0.00312053
0.00348499
0.00396057
0.0046103
0.00555525
0.00705725
0.00978346
0.0158846
0.0353118
0.0190741
0.0146547
0.0310086
0.0542587
0.0815392
0.111469
0.142658
0.173595
0.202943
0.229786
0.253729
0.27473
0.293053
0.309032
0.32304
0.335304
0.346066
0.355486
0.363774
0.371063
0.377504
0.383214
0.388283
0.392771
0.396773
0.400279
0.403315
0.405905
0.408119
0.409974
0.411609
0.412984
0.414065
0.414791
0.415132
0.415054
0.414546
0.413488
0.411707
0.40901
0.405098
0.399503
0.39134
0.379147
0.360954
0.335883
0.301957
0.253541
0.187148
0.1143
0.0564345
0.0236199
0.00886444
0.00322872
0.00164606
0.00146444
0.00151133
0.00158202
0.00166144
0.00175006
0.00184766
0.00196035
0.00210027
0.00225124
0.00240163
0.00259705
0.00283284
0.00312218
0.0034869
0.00396285
0.00461308
0.00555867
0.00706187
0.00978977
0.0158947
0.0353283
0.0190607
0.0146435
0.0309735
0.0541867
0.0814084
0.11127
0.142374
0.173245
0.202549
0.229384
0.25333
0.274379
0.292724
0.308769
0.322814
0.335119
0.345887
0.35533
0.363586
0.370844
0.377217
0.382849
0.387839
0.392276
0.39621
0.399717
0.402782
0.405416
0.407636
0.40951
0.411046
0.412377
0.413448
0.414218
0.414615
0.414603
0.414132
0.413163
0.411553
0.409084
0.405505
0.400406
0.393092
0.382293
0.366108
0.343322
0.312815
0.270132
0.209738
0.13725
0.0728464
0.0321112
0.012509
0.00453736
0.00191411
0.00144079
0.00145021
0.0015124
0.00158427
0.00166427
0.00175292
0.00185028
0.00196889
0.00211157
0.00224099
0.00240188
0.00259836
0.00283438
0.00312398
0.00348898
0.00396533
0.0046161
0.00556252
0.00706682
0.0097969
0.015906
0.0353464
0.0190505
0.0146352
0.0309501
0.0541261
0.0813026
0.1111
0.142137
0.172931
0.202183
0.228986
0.252934
0.273988
0.292376
0.308436
0.322539
0.334878
0.34568
0.355126
0.363409
0.370637
0.376987
0.382553
0.387469
0.39183
0.39571
0.39915
0.402219
0.404885
0.407154
0.409036
0.41059
0.411826
0.41286
0.413631
0.414083
0.414134
0.413741
0.412835
0.411346
0.409092
0.405803
0.401138
0.394511
0.384888
0.370515
0.349831
0.322096
0.284198
0.230166
0.160278
0.0914668
0.0426636
0.0172975
0.00640194
0.00243527
0.00146911
0.00139864
0.00144927
0.00151432
0.00158635
0.00166616
0.00175519
0.0018547
0.00197763
0.00210664
0.0022372
0.00240306
0.0025998
0.00283606
0.00312592
0.00349127
0.00396805
0.00461945
0.00556673
0.00707238
0.00980497
0.0159181
0.0353664
0.0190427
0.0146301
0.0309324
0.0540839
0.0812132
0.110961
0.141934
0.172668
0.201852
0.228617
0.252541