/*--------------------------------*- C++ -*----------------------------------*\
| =========                 |                                                 |
| \\      /  F ield         | OpenFOAM: The Open Source CFD Toolbox           |
|  \\    /   O peration     | Version:  v2012                                 |
|   \\  /    A nd           | Website:  www.openfoam.com                      |
|    \\/     M anipulation  |                                                 |
\*---------------------------------------------------------------------------*/
FoamFile
{
    version     2.0;
    format      ascii;
    class       volVectorField;
    location    "6700";
    object      U;
}
// * * * * * * * * * * * * * * * * * * * * * * * * * * * * * * * * * * * * * //

dimensions      [0 1 -1 0 0 0 0];


internalField   nonuniform List<vector> 
39402
(
(300.43 5.81125 0)
(57.3086 0.0590054 0)
(583.707 16.5002 0)
(34.2805 0.0141211 0)
(160.771 0.202615 0)
(772.858 27.0569 0)
(31.971 -0.00128808 0)
(98.8959 0.070776 0)
(257.534 0.574139 0)
(908.577 35.0526 0)
(33.7034 -0.000674509 0)
(92.3713 -0.00193609 0)
(160.993 0.153525 0)
(349.626 1.17955 0)
(1010.31 41.3608 0)
(35.1021 -0.000731059 0)
(97.1434 -0.00421784 0)
(150.492 -0.000468722 0)
(221.616 0.254956 0)
(438.104 1.9486 0)
(1089 46.344 0)
(35.9736 -0.000917977 0)
(100.949 -0.00386576 0)
(158.037 -0.0108767 0)
(207.298 0.00377882 0)
(281.555 0.381403 0)
(523.571 2.85635 0)
(1151.32 50.4186 0)
(36.4712 -3.49027e-05 0)
(103.283 -0.00367662 0)
(163.979 -0.00919592 0)
(217.452 -0.0203979 0)
(263.445 0.011876 0)
(341.452 0.543845 0)
(606.306 3.8985 0)
(1201.75 53.6997 0)
(36.684 0.000721537 0)
(104.609 -0.000894444 0)
(167.583 -0.0076906 0)
(225.331 -0.0165179 0)
(275.998 -0.0332931 0)
(319.302 0.0255245 0)
(401.833 0.752956 0)
(686.466 5.08341 0)
(1243.28 56.3848 0)
(36.7664 0.00107965 0)
(105.147 -0.00027168 0)
(169.619 -0.00205433 0)
(230.067 -0.0129791 0)
(285.581 -0.0256563 0)
(333.838 -0.0497845 0)
(375.014 0.0467494 0)
(463.108 1.01381 0)
(763.988 6.40947 0)
(1277.98 58.621 0)
(36.6545 0.00124396 0)
(105.327 0.00101922 0)
(170.399 -0.0020479 0)
(232.726 -0.00338737 0)
(291.304 -0.0193803 0)
(344.779 -0.0363691 0)
(390.787 -0.0702394 0)
(430.597 0.0767856 0)
(525.606 1.33949 0)
(838.689 7.87674 0)
(1307.39 60.3861 0)
(36.442 7.98969e-05 0)
(104.979 0.00115895 0)
(170.608 0.000555577 0)
(233.692 -0.00378662 0)
(294.503 -0.00559095 0)
(351.279 -0.0266882 0)
(402.563 -0.0482772 0)
(446.514 -0.09236 0)
(486.08 0.11524 0)
(589.553 1.73905 0)
(910.227 9.50239 0)
(1332.6 61.7499 0)
(36.2052 0.00017904 0)
(104.359 0.000561775 0)
(169.988 0.00118627 0)
(233.885 0.00014848 0)
(295.604 -0.0057644 0)
(354.911 -0.00838631 0)
(409.549 -0.0346629 0)
(458.437 -0.0607017 0)
(500.784 -0.111839 0)
(541.792 0.163192 0)
(655.044 2.22621 0)
(978.195 11.2806 0)
(1354.4 62.7388 0)
(35.9443 0.000190857 0)
(103.67 0.000767454 0)
(168.945 0.00170624 0)
(232.97 0.00239158 0)
(295.742 -0.000277535 0)
(356.079 -0.0078286 0)
(413.46 -0.0115854 0)
(465.541 -0.0430048 0)
(512.055 -0.0725499 0)
(553.703 -0.126103 0)
(598.247 0.224311 0)
(722.035 2.80767 0)
(1042.07 13.2086 0)
(1373.47 63.3525 0)
(35.6576 6.80763e-05 0)
(102.915 0.000908897 0)
(167.794 0.00170067 0)
(231.496 0.00336184 0)
(294.517 0.00425665 0)
(356.125 -0.000866938 0)
(414.608 -0.00969045 0)
(469.546 -0.0149463 0)
(518.864 -0.0513552 0)
(563.346 -0.0824602 0)
(605.776 -0.130403 0)
(655.823 0.301734 0)
(790.302 3.49284 0)
(1101.5 15.3437 0)
(1390.26 63.6118 0)
(35.3793 0.000128281 0)
(102.092 0.000557124 0)
(166.533 0.00211912 0)
(229.874 0.00303708 0)
(292.609 0.00560846 0)
(354.586 0.00686579 0)
(414.527 -0.00156879 0)
(470.576 -0.0118282 0)
(522.757 -0.0182705 0)
(569.437 -0.0591876 0)
(612.797 -0.0890855 0)
(657.442 -0.106509 0)
(714.824 0.407935 0)
(859.435 4.29464 0)
(1156.03 17.6695 0)
(1405.15 63.425 0)
(35.0993 0.000629549 0)
(101.292 0.000698746 0)
(165.169 0.00166797 0)
(228.104 0.00386749 0)
(290.522 0.00479861 0)
(352.261 0.00849281 0)
(412.676 0.0102291 0)
(470.322 -0.00203551 0)
(523.562 -0.0142087 0)
(572.998 -0.0212006 0)
(617.657 -0.0656493 0)
(660.984 -0.0905486 0)
(708.878 -0.0663279 0)
(775.29 0.563356 0)
(928.813 5.21737 0)
(1205.34 20.2083 0)
(1418.42 62.8351 0)
(34.8073 -0.000403918 0)
(100.487 0.00109851 0)
(163.843 0.00171632 0)
(226.198 0.0032787 0)
(288.247 0.00616197 0)
(349.721 0.00705217 0)
(409.963 0.0120646 0)
(468.171 0.0143292 0)
(523.09 -0.0021119 0)
(573.467 -0.015938 0)
(620.598 -0.023097 0)
(664.086 -0.0701159 0)
(708.173 -0.0810589 0)
(760.293 -0.00368527 0)
(836.704 0.779448 0)
(997.59 6.26544 0)
(1249.33 22.9572 0)
(1430.32 61.6075 0)
(34.5099 -0.00135747 0)
(99.6496 0.000224951 0)
(162.507 0.00193531 0)
(224.344 0.00317467 0)
(285.806 0.00543057 0)
(346.962 0.00904071 0)
(407.002 0.00988239 0)
(465.106 0.0163329 0)
(520.643 0.0192543 0)
(572.721 -0.00141742 0)
(620.591 -0.0176312 0)
(666.11 -0.0237658 0)
(709.057 -0.0711051 0)
(754.551 -0.060335 0)
(811.756 0.0879708 0)
(897.569 1.07106 0)
(1064.7 7.44401 0)
(1288.23 26.0242 0)
(1441.09 59.6923 0)
(34.2325 -0.00139632 0)
(98.801 -0.000875929 0)
(161.123 0.00147146 0)
(222.476 0.00353181 0)
(283.433 0.00509346 0)
(344.013 0.0081598 0)
(403.796 0.0125437 0)
(461.758 0.0134293 0)
(517.256 0.0212941 0)
(569.976 0.0251404 0)
(619.482 0.000187668 0)
(665.477 -0.018436 0)
(709.903 -0.0224115 0)
(752.792 -0.0653878 0)
(800.291 -0.0236454 0)
(862.955 0.220304 0)
(956.912 1.45827 0)
(1128.89 8.74849 0)
(1322.35 29.4553 0)
(1450.99 56.5088 0)
(33.971 0.00069988 0)
(98.0076 -0.000882007 0)
(159.72 0.000226079 0)
(220.545 0.00301774 0)
(281.041 0.00554836 0)
(341.143 0.0075008 0)
(400.383 0.0115094 0)
(458.158 0.016711 0)
(513.561 0.0177625 0)
(566.289 0.0271012 0)
(616.393 0.0322558 0)
(663.895 0.00295697 0)
(708.508 -0.0162721 0)
(752.195 -0.0183487 0)
(795.476 -0.0519006 0)
(845.474 0.0356902 0)
(913.399 0.408713 0)
(1015.14 1.96948 0)
(1188.78 10.1651 0)
(1352.6 33.5812 0)
(1459.58 52.3541 0)
(33.7107 0.000869274 0)
(97.2546 0.00158102 0)
(158.411 0.000589073 0)
(218.593 0.00121338 0)
(278.573 0.00513573 0)
(338.252 0.0081583 0)
(397.059 0.0104393 0)
(454.334 0.0155641 0)
(509.609 0.0216714 0)
(562.272 0.0229362 0)
(612.391 0.0340263 0)
(660.416 0.0408022 0)
(706.368 0.00709281 0)
(749.882 -0.0117574 0)
(793.173 -0.00892563 0)
(837.272 -0.0270137 0)
(890.213 0.12354 0)
(963.442 0.659666 0)
(1072.5 2.63111 0)
(1243.05 11.6873 0)
(1377.86 38.0708 0)
(1466.74 48.3655 0)
(33.4488 -0.000550473 0)
(96.5055 0.00150094 0)
(157.165 0.00254417 0)
(216.767 0.00173575 0)
(276.084 0.00287451 0)
(335.275 0.00773516 0)
(393.712 0.0113697 0)
(450.609 0.0139348 0)
(505.431 0.0203181 0)
(558.008 0.0276018 0)
(608.046 0.0291141 0)
(656.07 0.0423641 0)
(702.458 0.0508844 0)
(747.098 0.013284 0)
(789.774 -0.00444294 0)
(833.006 0.00750486 0)
(878.377 0.0129828 0)
(934.756 0.247073 0)
(1013.75 0.988493 0)
(1128.74 3.4613 0)
(1290.51 13.3176 0)
(1398.91 41.9322 0)
(1472.42 44.2845 0)
(33.2001 -0.000639511 0)
(95.7589 -0.000393589 0)
(155.926 0.00223855 0)
(215.029 0.00398499 0)
(273.751 0.00308553 0)
(332.277 0.00496626 0)
(390.274 0.0108867 0)
(446.86 0.0152088 0)
(501.356 0.0181165 0)
(553.518 0.0258296 0)
(603.471 0.034529 0)
(651.381 0.0365442 0)
(697.755 0.0523482 0)
(742.712 0.062915 0)
(786.253 0.0221266 0)
(828.351 0.0070461 0)
(871.876 0.0334332 0)
(919.014 0.0736865 0)
(979.352 0.416374 0)
(1064.31 1.41139 0)
(1183.47 4.46973 0)
(1330.66 14.9569 0)
(1416.78 45.6525 0)
(1476.2 40.725 0)
(32.9628 0.000214301 0)
(95.0431 -0.00082332 0)
(154.692 0.000236774 0)
(213.301 0.00359793 0)
(271.529 0.00577043 0)
(329.462 0.00482716 0)
(386.815 0.00754921 0)
(443.021 0.0146228 0)
(497.261 0.0196622 0)
(549.136 0.0230918 0)
(598.688 0.032295 0)
(646.486 0.0427186 0)
(692.72 0.0454501 0)
(737.634 0.0642915 0)
(781.339 0.0774596 0)
(823.989 0.0344889 0)
(865.789 0.024309 0)
(909.985 0.0722376 0)
(959.39 0.162202 0)
(1024.16 0.645833 0)
(1114.64 1.95226 0)
(1235.99 5.64312 0)
(1363.92 16.6182 0)
(1432.06 48.593 0)
(1478.46 37.8041 0)
(32.7305 0.000329844 0)
(94.3693 0.000754435 0)
(153.513 -0.000388773 0)
(211.583 0.00118715 0)
(269.321 0.00533275 0)
(326.778 0.0080186 0)
(383.561 0.00696615 0)
(439.162 0.0106712 0)
(493.08 0.019068 0)
(544.742 0.0248169 0)
(594.03 0.0288595 0)
(641.409 0.0399432 0)
(687.511 0.0523661 0)
(732.249 0.0561066 0)
(775.857 0.0786892 0)
(818.486 0.0951987 0)
(860.465 0.0515253 0)
(902.262 0.0497976 0)
(947.517 0.128497 0)
(999.701 0.287932 0)
(1069.24 0.951629 0)
(1163.71 2.64638 0)
(1285.28 6.93639 0)
(1391.14 18.2207 0)
(1444.51 50.6882 0)
(1479.82 35.3024 0)
(32.5044 -0.00123664 0)
(93.7069 0.00102802 0)
(152.401 0.00147355 0)
(209.943 0.000362136 0)
(267.129 0.00252423 0)
(324.114 0.00752322 0)
(380.454 0.010705 0)
(435.522 0.00956234 0)
(488.881 0.0143229 0)
(540.271 0.024306 0)
(589.371 0.0308069 0)
(636.478 0.0356582 0)
(682.14 0.048939 0)
(726.726 0.0636938 0)
(770.113 0.0689558 0)
(812.566 0.0960539 0)
(854.299 0.117032 0)
(895.842 0.074769 0)
(937.942 0.0862999 0)
(984.668 0.208353 0)
(1040.14 0.462977 0)
(1114.54 1.34788 0)
(1210.97 3.54387 0)
(1330.04 8.27145 0)
(1413.19 19.9049 0)
(1454.15 52.0001 0)
(1480.7 32.6919 0)
(32.2868 -0.00108893 0)
(93.058 -0.00106942 0)
(151.312 0.00183146 0)
(208.395 0.00252289 0)
(265.037 0.00137379 0)
(321.473 0.00423941 0)
(377.374 0.0102167 0)
(432.044 0.0138626 0)
(484.912 0.0127481 0)
(535.785 0.018596 0)
(584.649 0.0303278 0)
(631.553 0.0378246 0)
(676.926 0.0436357 0)
(721.066 0.0594659 0)
(764.273 0.0771265 0)
(806.446 0.0844354 0)
(847.898 0.117082 0)
(888.926 0.144107 0)
(930.277 0.10624 0)
(973.005 0.137971 0)
(1021.65 0.320029 0)
(1080.89 0.703077 0)
(1159.86 1.84199 0)
(1257.03 4.69745 0)
(1368.86 9.54737 0)
(1430.56 21.6388 0)
(1461.44 52.8402 0)
(1481.31 30.1856 0)
(32.0778 -0.000594192 0)
(92.4354 -0.0012802 0)
(150.247 0.000108858 0)
(206.883 0.00297652 0)
(263.064 0.00385201 0)
(318.952 0.00272658 0)
(374.325 0.00634901 0)
(428.6 0.0134027 0)
(481.116 0.0175205 0)
(531.532 0.0165215 0)
(579.914 0.0236324 0)
(626.586 0.037333 0)
(671.736 0.0460125 0)
(715.578 0.0529497 0)
(758.327 0.0719343 0)
(800.283 0.0930347 0)
(841.376 0.103137 0)
(881.987 0.142641 0)
(922.509 0.177927 0)
(963.927 0.14865 0)
(1007.64 0.20999 0)
(1058.66 0.474419 0)
(1122.03 1.0278 0)
(1204.8 2.44589 0)
(1302 6.1267 0)
(1400.4 10.7118 0)
(1443.96 23.501 0)
(1466.91 52.9591 0)
(1481.74 27.6978 0)
(31.8704 0.000216624 0)
(91.8432 -0.000494783 0)
(149.225 -0.000934416 0)
(205.406 0.00122033 0)
(261.137 0.00438901 0)
(316.572 0.00551103 0)
(371.411 0.00439867 0)
(425.194 0.00888558 0)
(477.361 0.0170938 0)
(527.463 0.0217423 0)
(575.416 0.0209075 0)
(621.612 0.0295847 0)
(666.519 0.0454684 0)
(710.131 0.0555089 0)
(752.571 0.0639809 0)
(794.049 0.0866735 0)
(834.877 0.111944 0)
(875.034 0.125775 0)
(914.965 0.173852 0)
(955.19 0.220454 0)
(996.96 0.205583 0)
(1042.05 0.309536 0)
(1095.92 0.685806 0)
(1163.54 1.45844 0)
(1248.45 3.19798 0)
(1344.48 7.786 0)
(1424.26 11.7746 0)
(1454.04 25.4925 0)
(1470.99 51.991 0)
(1481.98 25.0704 0)
(31.6693 0.000663083 0)
(91.2562 0.000748578 0)
(148.255 2.77294e-05 0)
(203.992 -0.000430758 0)
(259.259 0.00224243 0)
(314.25 0.00612515 0)
(368.659 0.0075053 0)
(421.937 0.006447 0)
(473.653 0.0118793 0)
(523.445 0.0213543 0)
(571.11 0.0265915 0)
(616.877 0.026089 0)
(661.307 0.0366179 0)
(704.68 0.0549195 0)
(746.877 0.0666308 0)
(788.028 0.0770011 0)
(828.351 0.104138 0)
(868.175 0.134465 0)
(907.539 0.153262 0)
(946.964 0.212182 0)
(987.123 0.274268 0)
(1029.56 0.281821 0)
(1076.44 0.446066 0)
(1133.59 0.97211 0)
(1205.18 2.01062 0)
(1290.04 4.17029 0)
(1382.4 9.49369 0)
(1441.34 12.8526 0)
(1461.58 27.7588 0)
(1474.07 50.3828 0)
(1482.1 21.7615 0)
(31.483 0.000897965 0)
(90.6899 0.00167298 0)
(147.298 0.00141013 0)
(202.651 0.000753625 0)
(257.46 0.000343968 0)
(311.991 0.00354097 0)
(365.977 0.00819123 0)
(418.859 0.00986271 0)
(470.101 0.00888266 0)
(519.48 0.0153701 0)
(566.864 0.0262415 0)
(612.344 0.0321511 0)
(656.336 0.0322063 0)
(699.242 0.0448832 0)
(741.2 0.0659414 0)
(782.091 0.0796489 0)
(822.061 0.0924141 0)
(861.346 0.124856 0)
(900.297 0.161398 0)
(939.014 0.186749 0)
(978.117 0.259495 0)
(1018.46 0.34283 0)
(1061.9 0.383872 0)
(1111.03 0.632237 0)
(1171.76 1.35507 0)
(1246.43 2.68649 0)
(1330.01 5.44641 0)
(1413.59 10.945 0)
(1453.32 14.0773 0)
(1467.17 30.3578 0)
(1476.29 48.8114 0)
(1482.21 18.1411 0)
(31.3037 0.000639428 0)
(90.1605 0.0020467 0)
(146.377 0.00257078 0)
(201.333 0.00235243 0)
(255.758 0.00166926 0)
(309.829 0.00132296 0)
(363.371 0.00512415 0)
(415.86 0.0106156 0)
(466.742 0.01262 0)
(515.68 0.0117871 0)
(562.68 0.0194126 0)
(607.881 0.0318112 0)
(651.578 0.0385812 0)
(694.051 0.039395 0)
(735.551 0.0546212 0)
(776.198 0.0788341 0)
(815.883 0.094912 0)
(854.782 0.110682 0)
(893.144 0.149497 0)
(931.351 0.193685 0)
(969.58 0.2277 0)
(1008.56 0.318291 0)
(1049.37 0.430692 0)
(1094.2 0.520423 0)
(1146 0.884651 0)
(1210.35 1.85784 0)
(1286.44 3.49862 0)
(1368.23 7.04246 0)
(1436.81 11.9377 0)
(1461.78 15.4337 0)
(1471.26 32.7898 0)
(1477.8 47.3139 0)
(1482.41 14.408 0)
(31.1242 0.000619453 0)
(89.6564 0.00141733 0)
(145.52 0.00292789 0)
(200.067 0.00374571 0)
(254.09 0.00353752 0)
(307.785 0.00284512 0)
(360.875 0.00252402 0)
(412.948 0.00703016 0)
(463.472 0.0134387 0)
(512.081 0.0158257 0)
(558.664 0.0151965 0)
(603.488 0.024101 0)
(646.901 0.0382191 0)
(689.081 0.0459795 0)
(730.153 0.0478411 0)
(770.348 0.0660924 0)
(809.778 0.093902 0)
(848.36 0.11284 0)
(886.297 0.132378 0)
(923.853 0.178889 0)
(961.454 0.23257 0)
(999.364 0.278023 0)
(1038.45 0.39183 0)
(1080.02 0.543958 0)
(1126.64 0.703131 0)
(1181.48 1.22423 0)
(1248.97 2.50065 0)
(1324.29 4.52167 0)
(1402.62 8.81434 0)
(1452.51 12.4895 0)
(1467.88 16.97 0)
(1474.19 34.923 0)
(1478.77 45.5681 0)
(1482.76 10.9488 0)
(30.9444 -0.000581915 0)
(89.1496 0.000770406 0)
(144.704 0.00208337 0)
(198.889 0.00405527 0)
(252.49 0.00514564 0)
(305.784 0.00498994 0)
(358.517 0.00426977 0)
(410.158 0.00402278 0)
(460.301 0.00930509 0)
(508.582 0.0166732 0)
(554.861 0.0195362 0)
(599.268 0.0191733 0)
(642.306 0.0296011 0)
(684.207 0.0455698 0)
(724.985 0.0544962 0)
(764.752 0.0577982 0)
(803.734 0.0795952 0)
(842.043 0.111546 0)
(879.623 0.133954 0)
(916.706 0.158203 0)
(953.579 0.214053 0)
(990.719 0.279585 0)
(1028.49 0.340179 0)
(1067.93 0.484464 0)
(1110.6 0.690875 0)
(1159.43 0.947479 0)
(1217.5 1.67485 0)
(1286.93 3.28069 0)
(1360.31 5.8767 0)
(1430.65 10.3898 0)
(1462.6 12.8452 0)
(1472.38 18.7486 0)
(1476.03 36.7519 0)
(1479.43 43.2454 0)
(1483.15 7.91019 0)
(30.7757 -0.00071872 0)
(88.6472 -0.000603411 0)
(143.89 0.000772895 0)
(197.773 0.00300805 0)
(251.002 0.00539462 0)
(303.868 0.00680388 0)
(356.214 0.00672163 0)
(407.526 0.00596976 0)
(457.261 0.00582956 0)
(505.189 0.0120013 0)
(551.164 0.0203813 0)
(595.27 0.0238007 0)
(637.886 0.0239017 0)
(679.423 0.036015 0)
(719.927 0.0539764 0)
(759.397 0.0643647 0)
(797.949 0.0695168 0)
(835.808 0.0954755 0)
(873.09 0.132239 0)
(909.771 0.158865 0)
(946.109 0.189022 0)
(982.428 0.256277 0)
(1019.27 0.336719 0)
(1057.1 0.417406 0)
(1097.16 0.60198 0)
(1141.31 0.882412 0)
(1192.72 1.27324 0)
(1253.86 2.25914 0)
(1323.28 4.20575 0)
(1394.43 7.59979 0)
(1450.7 11.3814 0)
(1469.21 13.1645 0)
(1475.65 20.7389 0)
(1477.05 38.3717 0)
(1479.91 40.4318 0)
(1483.41 5.57409 0)
(30.6286 -0.000502517 0)
(88.1774 -0.00100589 0)
(143.085 -0.000286016 0)
(196.662 0.00149561 0)
(249.596 0.00415595 0)
(302.087 0.00697464 0)
(354.01 0.00873616 0)
(404.956 0.00875395 0)
(454.392 0.00796529 0)
(501.937 0.00798702 0)
(547.585 0.0151617 0)
(591.385 0.0246562 0)
(633.698 0.0287599 0)
(674.821 0.0294655 0)
(714.971 0.0434434 0)
(754.165 0.0636722 0)
(792.413 0.0757973 0)
(829.839 0.0833156 0)
(866.664 0.114163 0)
(903.013 0.156522 0)
(938.898 0.18833 0)
(974.609 0.225899 0)
(1010.51 0.307148 0)
(1047.21 0.406498 0)
(1085.34 0.513981 0)
(1126.31 0.752143 0)
(1172.32 1.13339 0)
(1226.59 1.70502 0)
(1289.99 2.98952 0)
(1357.62 5.35226 0)
(1424.42 9.51971 0)
(1463.29 11.781 0)
(1473.92 13.4773 0)
(1477.85 22.876 0)
(1477.71 39.5291 0)
(1480.23 36.9141 0)
(1483.52 3.92945 0)
(30.4844 0.000372064 0)
(87.7692 -0.000713326 0)
(142.336 -0.000861958 0)
(195.569 0.000239352 0)
(248.201 0.00251971 0)
(300.404 0.00557258 0)
(351.959 0.00881388 0)
(402.498 0.0109612 0)
(451.594 0.0111121 0)
(498.868 0.010308 0)
(544.15 0.0105524 0)
(587.629 0.0188416 0)
(629.634 0.0295954 0)
(670.455 0.0345032 0)
(710.198 0.035964 0)
(749.048 0.0521304 0)
(787.018 0.0748643 0)
(824.13 0.0890745 0)
(860.513 0.0995574 0)
(896.392 0.136142 0)
(931.905 0.185105 0)
(967.1 0.223271 0)
(1002.31 0.270165 0)
(1037.93 0.368728 0)
(1074.69 0.492237 0)
(1113.34 0.635585 0)
(1155.57 0.945434 0)
(1203.81 1.46279 0)
(1260.9 2.26898 0)
(1325 3.8579 0)
(1390.21 6.85444 0)
(1447.64 11.1669 0)
(1470.88 11.8673 0)
(1477.07 13.8691 0)
(1479.27 25.0427 0)
(1478.25 40.5277 0)
(1480.41 33.0548 0)
(1483.59 2.86007 0)
(30.3393 0.000208997 0)
(87.3726 0.000328495 0)
(141.686 -0.000580627 0)
(194.556 -0.000488407 0)
(246.834 0.00100414 0)
(298.743 0.00379197 0)
(350.026 0.00726377 0)
(400.21 0.010931 0)
(448.92 0.013513 0)
(495.877 0.0138313 0)
(540.906 0.0130398 0)
(584.024 0.013596 0)
(625.705 0.0231609 0)
(666.225 0.0352946 0)
(705.67 0.0411103 0)
(744.119 0.0436401 0)
(781.75 0.0622629 0)
(818.576 0.0878014 0)
(854.632 0.104524 0)
(890.058 0.118684 0)
(925.082 0.162025 0)
(959.857 0.218778 0)
(994.473 0.264843 0)
(1029.3 0.323494 0)
(1064.81 0.443633 0)
(1101.82 0.598233 0)
(1141.28 0.789816 0)
(1185.11 1.19581 0)
(1235.86 1.89501 0)
(1295.19 2.98657 0)
(1357.82 4.90148 0)
(1420.15 8.67907 0)
(1463.07 12.1451 0)
(1475.47 11.8793 0)
(1479.02 14.5824 0)
(1479.8 27.267 0)
(1478.66 40.4197 0)
(1480.62 28.5776 0)
(1483.65 2.07189 0)
(30.1918 0.00023445 0)
(86.974 0.000628177 0)
(141.059 0.000370098 0)
(193.679 -0.000221442 0)
(245.568 -4.29044e-05 0)
(297.119 0.00198041 0)
(348.121 0.0053166 0)
(398.055 0.00923932 0)
(446.427 0.0133363 0)
(493.021 0.0164082 0)
(537.752 0.0169471 0)
(580.617 0.0162227 0)
(621.933 0.0172195 0)
(662.141 0.0282251 0)
(701.286 0.0418204 0)
(739.439 0.0487834 0)
(776.672 0.0526508 0)
(813.163 0.0740913 0)
(848.925 0.102801 0)
(884.008 0.122538 0)
(918.562 0.141218 0)
(952.819 0.19252 0)
(986.958 0.258571 0)
(1021.11 0.314476 0)
(1055.7 0.388003 0)
(1091.27 0.535249 0)
(1128.75 0.73021 0)
(1169.32 0.986847 0)
(1215.1 1.52148 0)
(1268.4 2.45517 0)
(1328.59 3.85529 0)
(1388.8 6.2348 0)
(1444.94 10.549 0)
(1471.95 12.5242 0)
(1478.21 11.914 0)
(1480.37 15.6305 0)
(1479.88 29.6117 0)
(1478.91 39.9625 0)
(1481.03 23.4653 0)
(1483.73 1.51506 0)
(30.0541 0.000145744 0)
(86.5684 0.000698135 0)
(140.433 0.00111295 0)
(192.837 0.000783337 0)
(244.476 0.000188495 0)
(295.617 0.000491585 0)
(346.262 0.00319451 0)
(395.936 0.00710136 0)
(444.08 0.0115236 0)
(490.352 0.0160571 0)
(534.739 0.0196414 0)
(577.319 0.0204936 0)
(618.369 0.0199424 0)
(658.216 0.0215323 0)
(697.059 0.0341075 0)
(734.914 0.0493617 0)
(771.852 0.0576757 0)
(807.946 0.0632378 0)
(843.372 0.0879044 0)
(878.147 0.120211 0)
(912.339 0.143579 0)
(946.105 0.167793 0)
(979.691 0.2285 0)
(1013.3 0.305705 0)
(1047.12 0.373944 0)
(1081.62 0.466408 0)
(1117.43 0.647965 0)
(1155.64 0.895697 0)
(1197.64 1.24027 0)
(1245.65 1.94529 0)
(1301.06 3.16786 0)
(1360.13 4.86683 0)
(1417.96 7.93128 0)
(1462.46 11.8812 0)
(1476.61 12.6176 0)
(1480 12.0346 0)
(1481.25 16.9431 0)
(1479.85 31.971 0)
(1479.01 39.2331 0)
(1481.67 18.3043 0)
(1483.81 1.09067 0)
(29.9383 8.05404e-06 0)
(86.1928 0.000492055 0)
(139.8 0.00122719 0)
(192.001 0.00180687 0)
(243.432 0.00142228 0)
(294.323 0.000655577 0)
(344.546 0.00128492 0)
(393.872 0.00465137 0)
(441.777 0.00915126 0)
(487.84 0.0141347 0)
(531.921 0.0191743 0)
(574.171 0.0232764 0)
(614.935 0.0245509 0)
(654.508 0.0243117 0)
(692.996 0.0266295 0)
(730.555 0.0409764 0)
(767.193 0.0580633 0)
(802.99 0.067994 0)
(838.021 0.0756559 0)
(872.457 0.104044 0)
(906.323 0.140484 0)
(939.706 0.168205 0)
(972.772 0.199165 0)
(1005.78 0.271019 0)
(1038.98 0.361724 0)
(1072.59 0.445511 0)
(1107.16 0.562189 0)
(1143.42 0.787562 0)
(1182.64 1.10487 0)
(1226.4 1.56788 0)
(1276.72 2.49277 0)
(1333.07 4.03163 0)
(1389.88 6.11995 0)
(1443.18 9.81003 0)
(1472.59 12.5043 0)
(1479.18 12.6403 0)
(1481.11 12.2853 0)
(1481.54 18.6267 0)
(1479.75 33.5798 0)
(1479.16 37.8181 0)
(1482.35 13.4311 0)
(1483.87 0.761142 0)
(29.8306 -0.000237634 0)
(85.8787 0.000131056 0)
(139.217 0.000926361 0)
(191.159 0.00197502 0)
(242.399 0.00268969 0)
(293.089 0.00224757 0)
(343.068 0.00134843 0)
(391.966 0.00224722 0)
(439.538 0.00636271 0)
(485.38 0.0114751 0)
(529.267 0.0170828 0)
(571.219 0.0226986 0)
(611.657 0.0274038 0)
(650.938 0.0292147 0)
(689.157 0.029409 0)
(726.366 0.0326522 0)
(762.711 0.0489818 0)
(798.206 0.0681165 0)
(832.936 0.0799752 0)
(866.976 0.0902231 0)
(900.496 0.122901 0)
(933.532 0.16413 0)
(966.188 0.197093 0)
(998.646 0.23625 0)
(1031.18 0.321381 0)
(1064.08 0.428509 0)
(1097.63 0.532029 0)
(1132.44 0.679886 0)
(1169.39 0.961708 0)
(1209.92 1.37123 0)
(1255.72 1.99232 0)
(1307.99 3.18801 0)
(1363.49 5.04154 0)
(1417.93 7.69806 0)
(1461.88 11.4353 0)
(1477.56 12.6503 0)
(1480.68 12.6078 0)
(1481.77 12.7215 0)
(1481.38 20.7491 0)
(1479.56 35.0421 0)
(1479.41 35.6013 0)
(1482.91 9.21373 0)
(1483.92 0.509315 0)
(29.7207 -0.000100497 0)
(85.5863 -0.000149851 0)
(138.733 0.00040387 0)
(190.387 0.00154349 0)
(241.363 0.00291035 0)
(291.874 0.00378147 0)
(341.66 0.00330576 0)
(390.323 0.00219203 0)
(437.468 0.00347095 0)
(482.994 0.00836178 0)
(526.672 0.0141708 0)
(568.443 0.0204087 0)
(608.578 0.0266507 0)
(647.532 0.0321014 0)
(685.461 0.0345668 0)
(722.404 0.0353648 0)
(758.404 0.0397653 0)
(793.61 0.0583074 0)
(828.033 0.0797355 0)
(861.765 0.0938939 0)
(894.886 0.107295 0)
(927.564 0.144966 0)
(959.851 0.191762 0)
(991.865 0.23107 0)
(1023.81 0.280162 0)
(1055.98 0.381188 0)
(1088.7 0.508468 0)
(1122.34 0.637178 0)
(1157.6 0.825431 0)
(1195.49 1.18064 0)
(1237.65 1.71252 0)
(1285.57 2.53905 0)
(1338.75 4.03633 0)
(1392.11 6.25252 0)
(1442.79 9.56807 0)
(1473.02 12.3175 0)
(1479.92 12.5666 0)
(1481.58 12.6042 0)
(1482.2 13.3339 0)
(1481.08 23.2807 0)
(1479.5 35.3393 0)
(1479.8 32.2917 0)
(1483.32 5.93057 0)
(1483.95 0.322897 0)
(29.6016 -5.06816e-05 0)
(85.293 0.000145055 0)
(138.286 0.000171861 0)
(189.751 0.000791342 0)
(240.417 0.0023125 0)
(290.66 0.00405706 0)
(340.279 0.00508883 0)
(388.759 0.00459199 0)
(435.678 0.00324835 0)
(480.781 0.00495895 0)
(524.16 0.0106746 0)
(565.731 0.0172642 0)
(605.682 0.0241856 0)
(644.328 0.0311366 0)
(681.936 0.0374351 0)
(718.592 0.0407088 0)
(754.329 0.0423303 0)
(789.192 0.04815 0)
(823.328 0.0691685 0)
(856.746 0.0931865 0)
(889.554 0.110073 0)
(921.825 0.127301 0)
(953.739 0.17079 0)
(985.355 0.224122 0)
(1016.82 0.27113 0)
(1048.34 0.33228 0)
(1080.26 0.452434 0)
(1112.95 0.604603 0)
(1146.85 0.765709 0)
(1182.77 1.00674 0)
(1221.9 1.45792 0)
(1265.93 2.15117 0)
(1315.64 3.23268 0)
(1368.05 5.02909 0)
(1419.09 7.7738 0)
(1461.86 11.3082 0)
(1478.3 12.5947 0)
(1481.17 12.4741 0)
(1482.12 12.5555 0)
(1482.36 14.1301 0)
(1480.7 25.9918 0)
(1479.47 35.2655 0)
(1480.4 27.6697 0)
(1483.59 3.57168 0)
(1483.97 0.195576 0)
(29.4829 -3.36375e-06 0)
(84.9738 0.00011004 0)
(137.837 0.00048436 0)
(189.167 0.000592886 0)
(239.643 0.00129183 0)
(289.555 0.00325884 0)
(338.905 0.00542116 0)
(387.233 0.00660918 0)
(433.978 0.00611245 0)
(478.863 0.00450382 0)
(521.824 0.00670499 0)
(563.109 0.0133296 0)
(602.858 0.0207685 0)
(641.314 0.0284938 0)
(678.613 0.0362119 0)
(714.957 0.0434909 0)
(750.408 0.0477835 0)
(785.011 0.0504622 0)
(818.804 0.0580139 0)
(851.937 0.0818134 0)
(884.422 0.108768 0)
(916.372 0.128892 0)
(947.867 0.150742 0)
(979.092 0.201048 0)
(1010.12 0.262115 0)
(1041.12 0.318485 0)
(1072.34 0.394309 0)
(1104.12 0.5376 0)
(1136.92 0.720784 0)
(1171.27 0.923832 0)
(1208.1 1.23423 0)
(1248.75 1.81151 0)
(1294.74 2.71251 0)
(1345.24 4.07937 0)
(1395.58 6.21032 0)
(1443.31 9.57537 0)
(1473.52 12.4398 0)
(1480.54 12.6328 0)
(1481.89 12.3603 0)
(1482.35 12.6482 0)
(1482.11 15.3767 0)
(1480.35 28.7308 0)
(1479.47 35.1154 0)
(1481.23 22.0819 0)
(1483.74 2.13437 0)
(1483.98 0.114953 0)
(29.3728 2.36521e-05 0)
(84.6548 0.00015565 0)
(137.352 0.000517237 0)
(188.584 0.000839909 0)
(238.935 0.00110554 0)
(288.654 0.00191439 0)
(337.655 0.00439614 0)
(385.717 0.00702758 0)
(432.325 0.00837172 0)
(477.043 0.00786318 0)
(519.789 0.00600334 0)
(560.665 0.00871419 0)
(600.13 0.0164069 0)
(638.38 0.024804 0)
(675.489 0.0333938 0)
(711.527 0.0419484 0)
(746.672 0.0504053 0)
(780.988 0.0559384 0)
(814.522 0.0599605 0)
(847.313 0.0695999 0)
(879.508 0.0965279 0)
(911.128 0.126842 0)
(942.29 0.150795 0)
(973.083 0.178231 0)
(1003.7 0.236535 0)
(1034.23 0.306832 0)
(1064.86 0.374635 0)
(1095.87 0.468365 0)
(1127.66 0.639867 0)
(1160.73 0.861987 0)
(1195.73 1.11975 0)
(1233.74 1.52204 0)
(1276.16 2.26355 0)
(1323.77 3.41982 0)
(1373.45 5.07355 0)
(1421.52 7.67629 0)
(1462.27 11.3524 0)
(1478.96 12.8953 0)
(1481.58 12.5908 0)
(1482.24 12.2686 0)
(1482.45 12.8481 0)
(1481.8 17.3864 0)
(1480.1 30.4215 0)
(1479.58 34.134 0)
(1482.09 15.8803 0)
(1483.84 1.27616 0)
(1483.99 0.0649886 0)
(29.2859 7.31201e-05 0)
(84.3616 0.000162762 0)
(136.87 0.000562767 0)
(187.954 0.00108842 0)
(238.231 0.00146887 0)
(287.833 0.00174153 0)
(336.639 0.00266484 0)
(384.339 0.0057423 0)
(430.688 0.00889232 0)
(475.282 0.010419 0)
(517.865 0.00985842 0)
(558.528 0.00782154 0)
(597.58 0.0110609 0)
(635.549 0.0199857 0)
(672.454 0.0294256 0)
(708.3 0.0389474 0)
(743.14 0.0484805 0)
(777.157 0.0582989 0)
(810.404 0.0653369 0)
(842.934 0.0710347 0)
(874.787 0.0831768 0)
(906.113 0.113665 0)
(936.933 0.147818 0)
(967.379 0.176321 0)
(997.544 0.210459 0)
(1027.63 0.278228 0)
(1057.75 0.359596 0)
(1088.12 0.44144 0)
(1119.04 0.55712 0)
(1150.96 0.763277 0)
(1184.49 1.0347 0)
(1220.39 1.3644 0)
(1259.86 1.8882 0)
(1304.09 2.83983 0)
(1352.3 4.27928 0)
(1399.94 6.25007 0)
(1444.91 9.41801 0)
(1474.07 12.5164 0)
(1481.07 13.0321 0)
(1482.1 12.5816 0)
(1482.41 12.1605 0)
(1482.4 13.028 0)
(1481.45 19.8573 0)
(1479.86 32.1357 0)
(1479.84 32.4638 0)
(1482.81 10.2531 0)
(1483.91 0.731142 0)
(1483.99 0.0348057 0)
(29.2189 6.97448e-05 0)
(84.1332 0.000274539 0)
(136.429 0.000472438 0)
(187.33 0.00114293 0)
(237.472 0.00187518 0)
(287.022 0.00222666 0)
(335.716 0.0024894 0)
(383.22 0.00355088 0)
(429.199 0.00729367 0)
(473.54 0.0110221 0)
(516.007 0.0127884 0)
(556.504 0.0121078 0)
(595.344 0.00996975 0)
(632.894 0.0138619 0)
(669.528 0.0241375 0)
(705.168 0.0347067 0)
(739.82 0.0452965 0)
(773.532 0.0559141 0)
(806.484 0.067325 0)
(838.726 0.0761719 0)
(870.316 0.0839407 0)
(901.297 0.0990624 0)
(931.816 0.133604 0)
(961.907 0.172199 0)
(991.708 0.206109 0)
(1021.32 0.248284 0)
(1050.96 0.327286 0)
(1080.76 0.42205 0)
(1110.98 0.521223 0)
(1141.93 0.663957 0)
(1174.15 0.913064 0)
(1208.33 1.24751 0)
(1245.39 1.67234 0)
(1286.54 2.35603 0)
(1332.2 3.56028 0)
(1379.43 5.28437 0)
(1424.89 7.70173 0)
(1463.38 11.1775 0)
(1479.53 12.9808 0)
(1481.89 13.0811 0)
(1482.36 12.5405 0)
(1482.4 12.096 0)
(1482.26 13.4712 0)
(1481.1 22.6066 0)
(1479.85 32.3928 0)
(1480.33 28.9838 0)
(1483.33 5.9257 0)
(1483.95 0.390734 0)
(1484 0.017482 0)
(29.1607 0.000139028 0)
(83.9591 0.000175886 0)
(136.091 0.000551199 0)
(186.763 0.000927428 0)
(236.723 0.00193128 0)
(286.147 0.00284602 0)
(334.807 0.00317326 0)
(382.202 0.00337723 0)
(427.983 0.0045963 0)
(471.952 0.00906348 0)
(514.176 0.0134524 0)
(554.561 0.0155186 0)
(593.226 0.0146884 0)
(630.557 0.0124958 0)
(666.776 0.0171857 0)
(702.153 0.0289361 0)
(736.599 0.0407911 0)
(770.121 0.0525409 0)
(802.77 0.0644048 0)
(834.72 0.077668 0)
(866.02 0.0886779 0)
(896.735 0.0989631 0)
(926.906 0.117632 0)
(956.685 0.156828 0)
(986.115 0.200566 0)
(1015.34 0.240923 0)
(1044.49 0.292743 0)
(1073.77 0.385145 0)
(1103.35 0.496195 0)
(1133.52 0.616873 0)
(1164.65 0.793203 0)
(1197.33 1.09604 0)
(1232.4 1.51177 0)
(1270.88 2.06224 0)
(1313.72 2.94934 0)
(1359.74 4.43244 0)
(1404.94 6.47031 0)
(1447.38 9.41757 0)
(1474.92 12.3744 0)
(1481.46 13.0662 0)
(1482.28 13.1048 0)
(1482.41 12.5747 0)
(1482.37 12.1358 0)
(1482.11 14.4074 0)
(1480.71 25.7449 0)
(1479.87 32.2915 0)
(1481.08 23.8377 0)
(1483.66 3.10189 0)
(1483.98 0.19485 0)
(1484 0.00833259 0)
(29.0948 0.000152684 0)
(83.8086 0.000345452 0)
(135.839 0.000251317 0)
(186.336 0.000927179 0)
(236.047 0.00153129 0)
(285.286 0.00290882 0)
(333.829 0.00402913 0)
(381.205 0.00428088 0)
(426.879 0.00442885 0)
(470.65 0.00584499 0)
(512.5 0.0110721 0)
(552.646 0.0162067 0)
(591.2 0.0186326 0)
(628.346 0.0176803 0)
(664.344 0.0154681 0)
(699.314 0.021099 0)
(733.502 0.0345081 0)
(766.818 0.0477755 0)
(799.275 0.0608277 0)
(830.922 0.07411 0)
(861.931 0.0895407 0)
(892.354 0.103126 0)
(922.254 0.116447 0)
(951.679 0.139316 0)
(980.786 0.183879 0)
(1009.63 0.233625 0)
(1038.36 0.281674 0)
(1067.11 0.345068 0)
(1096.12 0.45354 0)
(1125.59 0.584534 0)
(1155.83 0.732053 0)
(1187.28 0.950458 0)
(1220.64 1.32126 0)
(1256.85 1.8426 0)
(1296.93 2.55793 0)
(1341.01 3.68979 0)
(1385.86 5.44217 0)
(1428.96 7.92031 0)
(1465.08 11.149 0)
(1480.11 12.8737 0)
(1482.12 13.0335 0)
(1482.39 13.0785 0)
(1482.41 12.6111 0)
(1482.31 12.3062 0)
(1481.91 16.2041 0)
(1480.45 27.9406 0)
(1479.97 31.9174 0)
(1481.94 17.2138 0)
(1483.82 1.53425 0)
(1483.99 0.0938349 0)
(1484 0.00373283 0)
(29.0183 0.000157056 0)
(83.6398 0.00039898 0)
(135.624 0.000532082 0)
(186.025 0.000363015 0)
(235.544 0.00139256 0)
(284.511 0.00229801 0)
(332.872 0.00409486 0)
(380.139 0.00543063 0)
(425.804 0.00556275 0)
(469.466 0.00563267 0)
(511.118 0.00731599 0)
(550.894 0.0133331 0)
(589.207 0.0193339 0)
(626.237 0.0221615 0)
(662.044 0.0211448 0)
(696.793 0.0189586 0)
(730.579 0.0257146 0)
(763.645 0.0409671 0)
(795.893 0.0558149 0)
(827.346 0.0703075 0)
(858.053 0.0852334 0)
(888.185 0.103186 0)
(917.788 0.119824 0)
(946.936 0.136778 0)
(975.681 0.164618 0)
(1004.18 0.215409 0)
(1032.5 0.272212 0)
(1060.82 0.329467 0)
(1089.26 0.406772 0)
(1118.1 0.534617 0)