/*--------------------------------*- C++ -*----------------------------------*\
| =========                 |                                                 |
| \\      /  F ield         | OpenFOAM: The Open Source CFD Toolbox           |
|  \\    /   O peration     | Version:  v2012                                 |
|   \\  /    A nd           | Website:  www.openfoam.com                      |
|    \\/     M anipulation  |                                                 |
\*---------------------------------------------------------------------------*/
FoamFile
{
    version     2.0;
    format      ascii;
    class       volScalarField;
    location    "0";
    object      wallDistance;
}
// * * * * * * * * * * * * * * * * * * * * * * * * * * * * * * * * * * * * * //

dimensions      [0 1 0 0 0 0 0];


internalField   nonuniform List<scalar> 
39402
(
5.01517e-06
5.0225e-06
1.5899e-05
5.0118e-06
1.55556e-05
2.61715e-05
5.00648e-06
1.51272e-05
2.58818e-05
3.65527e-05
5.00265e-06
1.5081e-05
2.52904e-05
3.63246e-05
4.71611e-05
5.00027e-06
1.50436e-05
2.52026e-05
3.5632e-05
4.69919e-05
5.80903e-05
4.9982e-06
1.50226e-05
2.51402e-05
3.54902e-05
4.62145e-05
5.79822e-05
6.94624e-05
4.99624e-06
1.50141e-05
2.50998e-05
3.53966e-05
4.60118e-05
5.71165e-05
6.93522e-05
8.13199e-05
4.99392e-06
1.50009e-05
2.50776e-05
3.53315e-05
4.58828e-05
5.68473e-05
6.84184e-05
8.11985e-05
9.37222e-05
4.99113e-06
1.50062e-05
2.50506e-05
3.52822e-05
4.57896e-05
5.66683e-05
6.80778e-05
8.01933e-05
9.36529e-05
0.000106798
4.98839e-06
1.49918e-05
2.50442e-05
3.52385e-05
4.57122e-05
5.65478e-05
6.78463e-05
7.97844e-05
9.25363e-05
0.000106795
0.000120625
4.98564e-06
1.4982e-05
2.50121e-05
3.52245e-05
4.5649e-05
5.6454e-05
6.7696e-05
7.94985e-05
9.20525e-05
0.000105539
0.000120684
0.000135312
4.98276e-06
1.49701e-05
2.49855e-05
3.51818e-05
4.56207e-05
5.63752e-05
6.75832e-05
7.93215e-05
9.17087e-05
0.000104969
0.000119287
0.000135428
0.00015097
4.97972e-06
1.49854e-05
2.49703e-05
3.51342e-05
4.55634e-05
5.63163e-05
6.74874e-05
7.91812e-05
9.15029e-05
0.000104564
0.000118626
0.000133876
0.000151106
0.00016769
4.97668e-06
1.49981e-05
2.49921e-05
3.50986e-05
4.54912e-05
5.62279e-05
6.74045e-05
7.9053e-05
9.13326e-05
0.000104322
0.00011816
0.000133122
0.000149406
0.000167851
0.000185581
4.97364e-06
1.49886e-05
2.49864e-05
3.50807e-05
4.54308e-05
5.6127e-05
6.72846e-05
7.8947e-05
9.1178e-05
0.000104126
0.000117876
0.000132588
0.000148557
0.000165989
0.000185796
0.000204777
4.97057e-06
1.49784e-05
2.49604e-05
3.50476e-05
4.53865e-05
5.60366e-05
6.71526e-05
7.88031e-05
9.10496e-05
0.000103949
0.000117653
0.000132269
0.000147955
0.000165039
0.000183745
0.000205035
0.000225422
4.96749e-06
1.49703e-05
2.49323e-05
3.50222e-05
4.53263e-05
5.59969e-05
6.7032e-05
7.86523e-05
9.08698e-05
0.000103791
0.000117454
0.00013201
0.000147597
0.000164372
0.00018269
0.000202797
0.00022571
0.000247653
4.96445e-06
1.49603e-05
2.49098e-05
3.49706e-05
4.5293e-05
5.59055e-05
6.69579e-05
7.84994e-05
9.06837e-05
0.000103571
0.000117259
0.00013178
0.000147308
0.000163968
0.000181953
0.000201635
0.00022328
0.000247972
0.000271612
4.96135e-06
1.49219e-05
2.48799e-05
3.49239e-05
4.52391e-05
5.58195e-05
6.68516e-05
7.83751e-05
9.04958e-05
0.000103348
0.000117005
0.00013156
0.000147038
0.000163641
0.000181501
0.000200818
0.000222006
0.000245337
0.00027197
0.000297484
4.95849e-06
1.49372e-05
2.48256e-05
3.48719e-05
4.51673e-05
5.57327e-05
6.67322e-05
7.82309e-05
9.03506e-05
0.000103141
0.000116755
0.000131256
0.000146776
0.000163343
0.000181128
0.000200319
0.000221106
0.000243947
0.000269121
0.000297869
0.000325442
4.95569e-06
1.49903e-05
2.48223e-05
3.48196e-05
4.50871e-05
5.56296e-05
6.65906e-05
7.80948e-05
9.01681e-05
0.000102969
0.000116517
0.000130967
0.00014645
0.00016304
0.000180806
0.00019991
0.000220558
0.00024296
0.000267613
0.000294805
0.000325854
0.000355681
4.95274e-06
1.4942e-05
2.48527e-05
3.48219e-05
4.50092e-05
5.55435e-05
6.64525e-05
7.79384e-05
8.99938e-05
0.000102753
0.000116316
0.000130695
0.000146121
0.000162672
0.000180471
0.00019955
0.000220109
0.000242357
0.000266537
0.000293171
0.000322564
0.000356116
0.000388411
4.95022e-06
1.49271e-05
2.48232e-05
3.48317e-05
4.49859e-05
5.54602e-05
6.63565e-05
7.77902e-05
8.98211e-05
0.000102539
0.000116053
0.000130459
0.000145788
0.000162305
0.000180039
0.000199178
0.000219707
0.000241863
0.000265877
0.000292005
0.000320805
0.000352596
0.000388867
0.000423863
4.9476e-06
1.49137e-05
2.47895e-05
3.47793e-05
4.49668e-05
5.54083e-05
6.62641e-05
7.76578e-05
8.96573e-05
0.000102323
0.000115798
0.000130166
0.000145522
0.00016194
0.00017964
0.000198709
0.000219298
0.000241426
0.000265344
0.000291289
0.000319543
0.000350708
0.000385114
0.000424334
0.000462283
4.94514e-06
1.48381e-05
2.47574e-05
3.47245e-05
4.48899e-05
5.53587e-05
6.61787e-05
7.75075e-05
8.94903e-05
0.000102121
0.000115568
0.000129871
0.000145203
0.000161632
0.000179244
0.000198259
0.000218786
0.000240964
0.000264861
0.000290703
0.000318766
0.000349345
0.000383092
0.000420347
0.000462766
0.00050394
4.94297e-06
1.48496e-05
2.46636e-05
3.46732e-05
4.48105e-05
5.52534e-05
6.6097e-05
7.73857e-05
8.93034e-05
0.000101939
0.000115322
0.000129615
0.000144859
0.00016128
0.00017888
0.000197826
0.000218283
0.000240402
0.000264341
0.000290178
0.000318124
0.000348502
0.000381625
0.000418187
0.000458542
0.00050443
0.000549129
4.94096e-06
1.48936e-05
2.46343e-05
3.45812e-05
4.47332e-05
5.51774e-05
6.59601e-05
7.72991e-05
8.9174e-05
0.000101741
0.000115097
0.000129358
0.000144561
0.000160912
0.000178503
0.000197418
0.000217816
0.000239859
0.000263727
0.000289609
0.000317553
0.00034781
0.000380711
0.000416612
0.000456242
0.000499966
0.00054962
0.000598163
4.93901e-06
1.48444e-05
2.46539e-05
3.45623e-05
4.46522e-05
5.50749e-05
6.58841e-05
7.7161e-05
8.90518e-05
0.000101578
0.000114861
0.000129061
0.000144265
0.00016056
0.000178094
0.000196962
0.000217368
0.000239335
0.000263137
0.000288935
0.000316935
0.000347192
0.000379961
0.000415627
0.000454555
0.000497526
0.000544916
0.000598646
0.000651382
4.93734e-06
1.47988e-05
2.46259e-05
3.45747e-05
4.46425e-05
5.49339e-05
6.57869e-05
7.7055e-05
8.89113e-05
0.000101414
0.000114641
0.000128777
0.000143962
0.00016023
0.000177704
0.000196527
0.000216858
0.000238842
0.000262565
0.000288293
0.000316206
0.000346521
0.000379288
0.000414809
0.000453493
0.00049572
0.00054233
0.000593709
0.000651854
0.000709165
4.93579e-06
1.47841e-05
2.45871e-05
3.44906e-05
4.46356e-05
5.49025e-05
6.56185e-05
7.69595e-05
8.87742e-05
0.000101242
0.000114489
0.000128562
0.000143655
0.000159891
0.000177313
0.000196095
0.000216385
0.00023831
0.00026203
0.000287678
0.000315512
0.000345732
0.000378569
0.00041408
0.000452609
0.000494579
0.000540404
0.000590973
0.000646685
0.000709615
0.000771916
4.93465e-06
1.47917e-05
2.45594e-05
3.44035e-05
4.45331e-05
5.49039e-05
6.55627e-05
7.67961e-05
8.8617e-05
0.000101068
0.00011427
0.000128343
0.000143392
0.000159571
0.000176954
0.000195658
0.000215926
0.000237782
0.000261436
0.000287077
0.000314832
0.000344971
0.000377716
0.000413296
0.000451819
0.00049363
0.000539179
0.000588923
0.000643801
0.000704225
0.00077234
0.000840077
4.93348e-06
1.47772e-05
2.45547e-05
3.43624e-05
4.44215e-05
5.48487e-05
6.55767e-05
7.67164e-05
8.84555e-05
0.000100874
0.000114095
0.000128123
0.000143146
0.000159265
0.000176616
0.000195274
0.000215434
0.00023726
0.000260841
0.000286416
0.000314164
0.000344237
0.000376897
0.000412375
0.000450969
0.000492775
0.000538152
0.000587605
0.00064162
0.000701185
0.00076673
0.000840463
0.000914124
4.93274e-06
1.47827e-05
2.4528e-05
3.4371e-05
4.43607e-05
5.47484e-05
6.55022e-05
7.66736e-05
8.83849e-05
0.000100721
0.0001139
0.000127944
0.000142911
0.000158971
0.00017626
0.000194899
0.000214986
0.000236732
0.00026028
0.000285776
0.000313449
0.000343516
0.000376103
0.0004115
0.000449975
0.000491857
0.000537234
0.000586503
0.00064021
0.000698871
0.000763536
0.000834641
0.000914463
0.000994582
4.93214e-06
1.48246e-05
2.45221e-05
3.43626e-05
4.43593e-05
5.46711e-05
6.53799e-05
7.65394e-05
8.82828e-05
0.000100655
0.000113712
0.000127725
0.000142688
0.000158695
0.000175946
0.000194527
0.000214574
0.000236238
0.000259739
0.00028517
0.000312778
0.000342745
0.000375324
0.000410646
0.00044903
0.000490785
0.000536238
0.000585518
0.000639029
0.000697362
0.000761081
0.000831291
0.000908445
0.000994861
0.00108202
4.93176e-06
1.48075e-05
2.45572e-05
3.43426e-05
4.43713e-05
5.46573e-05
6.53186e-05
7.64345e-05
8.81258e-05
0.000100572
0.000113631
0.000127498
0.000142468
0.000158481
0.000175672
0.000194209
0.00021417
0.000235756
0.000259204
0.000284584
0.000312126
0.000342023
0.000374495
0.000409799
0.000448105
0.000489766
0.000535086
0.000584443
0.000637963
0.00069609
0.000759469
0.000828695
0.000904933
0.000988656
0.00108223
0.00117704
4.93167e-06
1.47943e-05
2.45296e-05
3.43731e-05
4.43407e-05
5.46586e-05
6.52928e-05
7.63922e-05
8.80349e-05
0.000100423
0.00011353
0.000127415
0.000142209
0.000158236
0.000175399
0.000193869
0.000213827
0.000235336
0.000258672
0.000284011
0.000311476
0.000341322
0.000373699
0.000408911
0.000447193
0.00048877
0.000533985
0.000583201
0.000636801
0.000694936
0.000758103
0.000826974
0.000902191
0.000984986
0.00107585
0.00117717
0.00128032
4.93167e-06
1.47353e-05
2.45088e-05
3.43355e-05
4.43648e-05
5.45823e-05
6.52857e-05
7.63521e-05
8.79789e-05
0.000100274
0.000113414
0.000127321
0.000142089
0.000157962
0.00017514
0.000193574
0.000213452
0.000234962
0.000258213
0.000283441
0.000310834
0.000340623
0.000372922
0.00040805
0.000446248
0.00048778
0.000532922
0.000582017
0.000635477
0.000693697
0.000756864
0.000825511
0.000900353
0.000982091
0.00107201
0.00117063
0.00128037
0.0013926
4.93186e-06
1.47071e-05
2.44635e-05
3.43105e-05
4.43535e-05
5.45981e-05
6.52289e-05
7.63326e-05
8.79605e-05
0.000100199
0.000113258
0.000127151
0.000142006
0.000157814
0.000174838
0.000193283
0.000213129
0.00023457
0.00025782
0.000282956
0.000310226
0.000339917
0.000372168
0.000407215
0.000445324
0.000486763
0.000531873
0.000580884
0.000634214
0.000692295
0.000755535
0.000824186
0.000898788
0.000980131
0.00106896
0.00116664
0.00127369
0.00139254
0.00151467
4.93238e-06
1.47245e-05
2.44307e-05
3.42762e-05
4.43165e-05
5.46179e-05
6.52439e-05
7.63051e-05
8.79683e-05
0.000100206
0.000113188
0.000127043
0.000141864
0.000157717
0.000174705
0.000193012
0.000212859
0.000234236
0.000257378
0.000282539
0.000309706
0.000339268
0.000371439
0.000406386
0.000444428
0.000485789
0.000530761
0.000579764
0.000632992
0.000690936
0.000754037
0.000822755
0.000897362
0.00097845
0.00106687
0.00116342
0.00126952
0.00138573
0.00151448
0.00164738
4.93302e-06
1.47538e-05
2.44633e-05
3.4261e-05
4.42791e-05
5.45759e-05
6.52186e-05
7.63552e-05
8.79357e-05
0.000100219
0.000113206
0.000126983
0.000141759
0.000157601
0.000174602
0.000192843
0.000212525
0.000233911
0.000256998
0.000282074
0.00030923
0.000338707
0.000370744
0.000405623
0.000443537
0.000484822
0.000529706
0.00057857
0.000631784
0.000689607
0.000752576
0.000821146
0.000895835
0.000976918
0.00106508
0.00116121
0.00126615
0.00138141
0.00150758
0.00164707
0.00179168
4.93384e-06
1.47483e-05
2.45031e-05
3.43014e-05
4.4256e-05
5.45309e-05
6.52106e-05
7.63231e-05
8.80252e-05
0.000100208
0.000113123
0.000126955
0.000141654
0.000157501
0.000174455
0.000192728
0.000212354
0.000233583
0.000256665
0.00028165
0.000308767
0.000338174
0.000370147
0.000404881
0.000442721
0.000483867
0.000528689
0.000577416
0.000630515
0.000688316
0.000751144
0.000819586
0.00089411
0.000975291
0.00106344
0.00115929
0.00126378
0.00137787
0.00150308
0.00164007
0.00179123
0.00194858
4.93487e-06
1.47463e-05
2.44958e-05
3.43538e-05
4.43055e-05
5.45085e-05
6.52008e-05
7.63577e-05
8.80328e-05
0.000100297
0.000113177
0.000126946
0.000141616
0.000157381
0.000174308
0.000192558
0.000212276
0.000233431
0.000256371
0.000281298
0.000308351
0.000337685
0.000369602
0.000404216
0.000441952
0.000482988
0.00052769
0.00057632
0.000629295
0.000686968
0.000749765
0.000818058
0.000892442
0.000973446
0.00106168
0.00115752
0.00126173
0.00137535
0.00149936
0.00163541
0.00178416
0.00194798
0.00211921
4.93592e-06
1.47322e-05
2.44914e-05
3.4343e-05
4.43624e-05
5.45602e-05
6.51751e-05
7.63459e-05
8.80221e-05
0.000100291
0.000113305
0.000126959
0.000141631
0.0001574
0.000174247
0.000192421
0.000212076
0.000233298
0.000256162
0.000280992
0.000307963
0.00033728
0.000369059
0.000403663
0.00044124
0.000482194
0.000526743
0.000575284
0.000628114
0.000685674
0.00074833
0.000816584
0.000890824
0.000971677
0.00105972
0.00115563
0.00125984
0.00137316
0.00149669
0.00163151
0.00177933
0.00194086
0.00211845
0.00230477
4.93708e-06
1.4721e-05
2.44722e-05
3.43419e-05
4.43548e-05
5.46647e-05
6.52367e-05
7.63212e-05
8.79673e-05
0.00010035
0.000113319
0.00012715
0.000141669
0.0001574
0.00017428
0.000192361
0.000211938
0.000233114
0.000256021
0.000280812
0.000307623
0.000336877
0.000368607
0.000403084
0.000440616
0.000481457
0.00052589
0.000574299
0.000627005
0.000684449
0.000746957
0.000815059
0.000889251
0.000969963
0.00105784
0.00115356
0.00125783
0.00137115
0.00149436
0.00162867
0.00177525
0.00193587
0.00211129
0.00230384
0.00250657
4.93849e-06
1.47297e-05
2.44434e-05
3.42898e-05
4.43547e-05
5.46957e-05
6.53518e-05
7.64338e-05
8.79903e-05
0.000100278
0.000113387
0.000127153
0.000141822
0.000157414
0.000174321
0.000192377
0.000211918
0.00023301
0.000255895
0.000280666
0.000307429
0.000336492
0.000368213
0.000402602
0.000440006
0.000480795
0.000525096
0.00057335
0.000625965
0.000683253
0.000745656
0.000813598
0.000887628
0.000968268
0.00105601
0.00115155
0.00125562
0.001369
0.00149221
0.00162619
0.00177223
0.00193159
0.00210613
0.00229666
0.00250546
0.00272606
4.93992e-06
1.47526e-05
2.44681e-05
3.42529e-05
4.43343e-05
5.47031e-05
6.53933e-05
7.652e-05
8.81567e-05
0.000100311
0.000113397
0.000127195
0.000141891
0.000157609
0.000174396
0.000192469
0.000211984
0.000233022
0.000255805
0.000280554
0.000307335
0.000336301
0.000367827
0.000402203
0.000439532
0.000480146
0.000524389
0.000572507
0.000624951
0.00068214
0.000744395
0.000812217
0.000886076
0.00096654
0.0010542
0.00114959
0.00125349
0.00136665
0.00148992
0.00162387
0.00176958
0.00192839
0.00210166
0.00229132
0.00249829
0.00272475
0.00296478
4.94143e-06
1.47583e-05
2.45123e-05
3.43156e-05
4.43179e-05
5.47217e-05
6.54492e-05
7.65692e-05
8.83025e-05
0.000100486
0.000113415
0.000127248
0.000141976
0.000157696
0.000174563
0.000192572
0.000212113
0.000233121
0.000255852
0.0002805
0.000307244
0.000336218
0.000367631
0.000401795
0.000439105
0.000479609
0.000523735
0.000571769
0.000624066
0.000681077
0.000743217
0.000810884
0.00088461
0.000964906
0.00105238
0.00114769
0.00125142
0.00136438
0.00148743
0.00162144
0.00176711
0.00192557
0.00209827
0.00228666
0.00249277
0.00271759
0.00296327
0.00322443
4.94296e-06
1.47627e-05
2.45252e-05
3.43796e-05
4.44055e-05
5.47422e-05
6.55198e-05
7.66852e-05
8.84143e-05
0.000100706
0.000113644
0.000127342
0.000142027
0.000157855
0.000174673
0.000192819
0.000212213
0.000233232
0.000255931
0.000280525
0.000307162
0.000336098
0.000367561
0.000401608
0.000438698
0.000479202
0.000523195
0.000571103
0.000623344
0.000680159
0.000742108
0.000809643
0.000883196
0.00096335
0.00105065
0.00114576
0.0012494
0.00136219
0.00148501
0.0016188
0.00176452
0.00192293
0.00209526
0.00228306
0.00248789
0.00271189
0.00295612
0.00322271
0.00350684
4.9446e-06
1.47713e-05
2.45369e-05
3.44335e-05
4.44954e-05
5.4858e-05
6.55511e-05
7.67659e-05
8.84936e-05
0.000100821
0.000113834
0.000127596
0.000142151
0.000157973
0.000174897
0.000192992
0.000212511
0.000233398
0.000256061
0.000280658
0.00030723
0.000336051
0.000367457
0.000401583
0.000438545
0.000478817
0.000522805
0.000570571
0.000622662
0.000679375
0.000741146
0.000808473
0.000881881
0.000961845
0.00104901
0.00114392
0.00124734
0.00136004
0.00148268
0.00161624
0.00176172
0.00192017
0.00209244
0.00227986
0.00248408
0.0027068
0.00295026
0.00321559
0.00350492
0.00381404
4.94612e-06
1.47664e-05
2.45568e-05
3.44815e-05
4.45647e-05
5.49678e-05
6.56865e-05
7.68143e-05
8.85505e-05
0.000100931
0.000114009
0.00012791
0.000142464
0.000158154
0.000175087
0.000193198
0.00021274
0.000233759
0.000256286
0.000280824
0.00030745
0.000336183
0.000367475
0.000401548
0.000438529
0.000478668
0.00052245
0.000570154
0.0006221
0.000678685
0.000740337
0.00080747
0.00088068
0.000960481
0.00104745
0.00114218
0.0012454
0.00135787
0.0014804
0.00161376
0.00175902
0.00191721
0.0020895
0.00227684
0.00248068
0.00270277
0.00294494
0.00320954
0.00349782
0.0038119
0.00414818
4.94765e-06
1.47684e-05
2.45695e-05
3.45173e-05
4.46316e-05
5.50223e-05
6.58238e-05
7.69734e-05
8.86597e-05
0.000101045
0.000114155
0.00012806
0.000142857
0.000158511
0.000175316
0.000193409
0.000213
0.000233997
0.000256675
0.000281043
0.000307664
0.000336458
0.000367621
0.000401591
0.000438512
0.000478667
0.000522299
0.000569825
0.00062166
0.00067815
0.000739592
0.000806653
0.000879626
0.00095924
0.00104599
0.00114053
0.00124356
0.00135582
0.00147811
0.00161133
0.00175638
0.00191434
0.00208636
0.00227373
0.00247747
0.00269915
0.00294068
0.00320401
0.0034916
0.00380484
0.00414583
0.00451165
4.94929e-06
1.47816e-05
2.45902e-05
3.45108e-05
4.47223e-05
5.50666e-05
6.58913e-05
7.71777e-05
8.88917e-05
0.000101178
0.000114367
0.000128264
0.000143087
0.00015892
0.000175719
0.000193744
0.000213214
0.000234311
0.000257006
0.000281539
0.000307959
0.000336724
0.000367869
0.00040177
0.000438596
0.000478666
0.000522311
0.000569713
0.000621316
0.000677723
0.000739053
0.000805893
0.000878745
0.000958132
0.00104469
0.00113902
0.00124181
0.00135388
0.00147594
0.00160892
0.00175381
0.00191157
0.00208334
0.00227041
0.00247415
0.00269573
0.00293683
0.00319949
0.00348583
0.00379842
0.00413882
0.0045091
0.00490703
4.95089e-06
1.48035e-05
2.46046e-05
3.45186e-05
4.47192e-05
5.52193e-05
6.59964e-05
7.73154e-05
8.91251e-05
0.000101484
0.000114456
0.000128471
0.00014332
0.000159183
0.000176147
0.000194207
0.000213555
0.000234618
0.000257346
0.00028192
0.000308453
0.000337131
0.000368213
0.000402093
0.000438857
0.000478777
0.000522337
0.000569742
0.000621209
0.000677372
0.000738672
0.000805314
0.000877989
0.00095721
0.00104355
0.00113765
0.00124024
0.00135206
0.00147389
0.00160666
0.00175128
0.00190886
0.00208042
0.00226721
0.00247067
0.00269222
0.00293319
0.0031954
0.00348106
0.00379243
0.0041322
0.00450209
0.00490426
0.0053371
4.9523e-06
1.47981e-05
2.46318e-05
3.45728e-05
4.47033e-05
5.52695e-05
6.61828e-05
7.74455e-05
8.93379e-05
0.000101759
0.000114804
0.000128658
0.000143559
0.000159431
0.0001765
0.00019466
0.00021411
0.000234993
0.000257721
0.000282335
0.000308863
0.000337698
0.000368671
0.000402473
0.000439272
0.000479091
0.000522489
0.000569832
0.000621327
0.000677264
0.00073835
0.000804943
0.000877437
0.000956463
0.00104261
0.00113652
0.00123884
0.00135041
0.00147203
0.00160455
0.00174892
0.00190619
0.00207756
0.00226412
0.00246729
0.00268854
0.00292946
0.00319153
0.00347673
0.00378737
0.00412595
0.00449529
0.00489727
0.00533414
0.00580493
4.95366e-06
1.47989e-05
2.4646e-05
3.46489e-05
4.48124e-05
5.52603e-05
6.62498e-05
7.76595e-05
8.94927e-05
0.000102004
0.000115209
0.000129059
0.000143891
0.000159762
0.00017683
0.000195123
0.000214685
0.000235589
0.000258245
0.000282805
0.000309423
0.000338197
0.00036938
0.000402964
0.000439739
0.000479615
0.000522888
0.000570065
0.000621491
0.00067744
0.000738282
0.000804679
0.000877074
0.000955939
0.00104188
0.00113556
0.00123768
0.00134896
0.00147034
0.00160257
0.00174671
0.0019037
0.00207477
0.00226113
0.00246404
0.00268498
0.00292558
0.00318759
0.0034726
0.00378278
0.00412063
0.0044888
0.00489027
0.00532715
0.00580175
0.0063138
4.95509e-06
1.48266e-05
2.46695e-05
3.46449e-05
4.49585e-05
5.54005e-05
6.62974e-05
7.77471e-05
8.9686e-05
0.000102227
0.000115479
0.000129472
0.000144284
0.000160191
0.000177229
0.000195566
0.000215165
0.000236254
0.000258946
0.000283431
0.00031004
0.000338845
0.000370011
0.000403752
0.000440298
0.000480185
0.000523524
0.000570573
0.000621814
0.000677678
0.000738525
0.000804703
0.000876879
0.000955583
0.00104136
0.00113479
0.00123676
0.00134777
0.00146883
0.00160083
0.00174464
0.00190139
0.00207216
0.00225822
0.00246089
0.00268155
0.00292183
0.00318352
0.00346845
0.00377842
0.00411575
0.00448317
0.00488352
0.00531995
0.00579476
0.00631045
0.00686734
4.95634e-06
1.48597e-05
2.47333e-05
3.46849e-05
4.49224e-05
5.55784e-05
6.64674e-05
7.78648e-05
8.97966e-05
0.000102463
0.000115758
0.000129851
0.000144744
0.000160642
0.000177613
0.000195967
0.000215641
0.00023689
0.00025964
0.000284223
0.000310717
0.000339579
0.000370763
0.000404538
0.000441176
0.00048089
0.000524174
0.000571279
0.000622425
0.000678098
0.000738839
0.000805005
0.000876987
0.000955418
0.00104103
0.00113433
0.00123598
0.00134683
0.00146759
0.00159927
0.0017428
0.00189924
0.00206972
0.00225548
0.00245783
0.00267825
0.00291823
0.00317956
0.00346416
0.00377401
0.00411112
0.00447801
0.0048776
0.00531293
0.00578736
0.00630344
0.00686383
0.00746948
4.95761e-06
1.48453e-05
2.47643e-05
3.47781e-05
4.49827e-05
5.55885e-05
6.66831e-05
7.80667e-05
8.99936e-05
0.000102639
0.000116061
0.000130151
0.000145191
0.0001611
0.000178169
0.000196412
0.000216151
0.000237479
0.000260405
0.000284984
0.000311557
0.000340287
0.00037153
0.000405384
0.000442062
0.000481866
0.00052497
0.000572007
0.000623202
0.000678813
0.000739349
0.000805446
0.000877359
0.000955614
0.00104094
0.00113405
0.00123551
0.00134615
0.00146668
0.00159802
0.00174123
0.00189735
0.00206752
0.00225295
0.00245498
0.00267504
0.00291478
0.00317579
0.00346001
0.00376949
0.00410647
0.00447311
0.00487214
0.0053067
0.00578007
0.00629582
0.00685678
0.00746578
0.00812443
4.95853e-06
1.48403e-05
2.47283e-05
3.48278e-05
4.51011e-05
5.5673e-05
6.6707e-05
7.8314e-05
9.02242e-05
0.000102873
0.000116291
0.000130505
0.00014553
0.000161622
0.000178752
0.000197081
0.000216783
0.000238057
0.000261113
0.000285809
0.00031245
0.000341268
0.000372373
0.000406278
0.000443031
0.00048286
0.000526107
0.000572953
0.000624129
0.000679725
0.000740192
0.000806113
0.000877935
0.000956101
0.00104127
0.00113407
0.00123533
0.00134568
0.00146601
0.00159711
0.00173998
0.00189576
0.00206561
0.0022507
0.00245238
0.00267209
0.00291146
0.00317219
0.00345605
0.00376517
0.00410175
0.00446821
0.00486695
0.00530093
0.00577351
0.00628827
0.00684895
0.00745868
0.00812059
0.00883687
4.9597e-06
1.48459e-05
2.47493e-05
3.48171e-05
4.51751e-05
5.58205e-05
6.68086e-05
7.83563e-05
9.05072e-05
0.000103147
0.000116575
0.000130771
0.000145939
0.000162082
0.000179308
0.000197781
0.000217575
0.000238787
0.000261814
0.000286623
0.000313313
0.000342317
0.000373522
0.000407296
0.0004441
0.000484
0.000527264
0.000574247
0.000625224
0.000680844
0.000741232
0.000807032
0.000878713
0.000956767
0.00104187
0.00113449
0.00123545
0.00134557
0.00146561
0.00159647
0.00173906
0.00189453
0.00206399
0.00224875
0.00245005
0.00266941
0.00290841
0.00316874
0.00345229
0.00376104
0.00409722
0.00446327
0.0048618
0.00529545
0.00576743
0.00628138
0.00684111
0.00745065
0.00811343
0.00883289
0.00961179
4.96037e-06
1.48565e-05
2.47628e-05
3.48567e-05
4.52108e-05
5.59173e-05
6.699e-05
7.843e-05
9.06217e-05
0.000103463
0.000116901
0.000131118
0.000146274
0.000162536
0.000179867
0.000198376
0.000218309
0.000239706
0.00026259
0.000287509
0.000314281
0.000343284
0.000374798
0.000408594
0.00044531
0.000485202
0.000528597
0.000575542
0.000626651
0.000682118
0.000742514
0.000808221
0.000879762
0.000957709
0.00104263
0.00113524
0.00123596
0.00134581
0.00146557
0.00159618
0.00173851
0.00189368
0.00206278
0.00224713
0.00244808
0.00266703
0.00290562
0.00316557
0.00344869
0.00375711
0.00409289
0.00445852
0.00485663
0.00529003
0.00576165
0.00627497
0.00683388
0.00744254
0.0081052
0.00882564
0.0096077
0.0104547
4.96125e-06
1.48787e-05
2.47874e-05
3.48804e-05
4.52675e-05
5.5967e-05
6.71059e-05
7.86331e-05
9.07197e-05
0.000103597
0.000117265
0.000131581
0.000146677
0.000162978
0.00018048
0.000199003
0.000218988
0.000240519
0.000263524
0.00028839
0.000315297
0.000344368
0.000375879
0.00040999
0.000446754
0.000486567
0.000529944
0.00057701
0.00062814
0.000683673
0.000744017
0.000809669
0.000881164
0.000958995
0.00104377
0.00113618
0.00123683
0.00134647
0.00146597
0.00159629
0.00173835
0.00189314
0.00206197
0.00224592
0.00244645
0.00266503
0.00290318
0.00316271
0.00344544
0.00375338
0.00408882
0.00445401
0.00485167
0.00528463
0.00575596
0.00626889
0.00682716
0.00743497
0.00809679
0.00881719
0.00960036
0.0104505
0.0113716
4.96193e-06
1.49385e-05
2.48554e-05
3.49227e-05
4.53005e-05
5.60429e-05
6.71754e-05
7.8833e-05
9.1013e-05
0.000103779
0.000117432
0.00013198
0.0001472
0.000163409
0.000180939
0.000199735
0.000219648
0.000241304
0.000264472
0.000289376
0.000316301
0.000345545
0.000377137
0.000411307
0.000448255
0.000488153
0.000531458
0.000578574
0.000629757
0.000685361
0.000745772
0.000811364
0.000882784
0.000960613
0.00104524
0.0011374
0.00123795
0.0013475
0.00146679
0.00159678
0.00173858
0.00189311
0.00206153
0.00224519
0.00244528
0.00266344
0.00290118
0.00316024
0.00344252
0.00375004
0.004085
0.00444979
0.004847
0.00527947
0.00575033
0.00626293
0.00682076
0.00742791
0.0080889
0.00880853
0.00959174
0.0104431
0.0113673
0.0123689
4.9626e-06
1.49436e-05
2.49432e-05
3.50148e-05
4.53639e-05
5.609e-05
6.7266e-05
7.89153e-05
9.12988e-05
0.000104098
0.000117646
0.00013218
0.000147686
0.000163963
0.000181404
0.000200275
0.000220508
0.000242125
0.000265465
0.000290518
0.000317515
0.000346706
0.00037845
0.000412651
0.000449719
0.000489823
0.000533224
0.000580312
0.000631545
0.000687213
0.000747624
0.000813381
0.000884735
0.000962487
0.0010471
0.00113913
0.00123944
0.00134886
0.00146805
0.0015978
0.00173923
0.00189351
0.00206161
0.00224488
0.00244465
0.00266232
0.00289962
0.00315824
0.00344002
0.00374708
0.00408156
0.00444587
0.00484264
0.00527463
0.00574498
0.00625708
0.00681453
0.00742119
0.00808147
0.00880028
0.00958277
0.0104343
0.0113598
0.0123645
0.0134536
4.96293e-06
1.49021e-05
2.4954e-05
3.5132e-05
4.54813e-05
5.6221e-05
6.73859e-05
7.90316e-05
9.14041e-05
0.000104442
0.000117965
0.000132504
0.000147922
0.000164561
0.000182024
0.000200861
0.000221217
0.000242971
0.000266405
0.000291623
0.000318825
0.000348062
0.000379719
0.000414083
0.000451244
0.000491546
0.000535129
0.00058232
0.000633536
0.000689237
0.000749762
0.00081553
0.000887041
0.000964706
0.00104926
0.00114124
0.00124141
0.00135061
0.00146964
0.0015993
0.00174042
0.00189434
0.00206219
0.0022451
0.00244448
0.0026618
0.0028986
0.00315673
0.00343804
0.00374457
0.00407857
0.00444237
0.00483861
0.00527015
0.00573997
0.00625153
0.00680846
0.0074147
0.00807446
0.00879255
0.00957424
0.0104251
0.0113508
0.0123569
0.0134492
0.0146335
4.96317e-06
1.48673e-05
2.49057e-05
3.51484e-05
4.56239e-05
5.63092e-05
6.75366e-05
7.92246e-05
9.14795e-05
0.000104541
0.000118291
0.000132879
0.000148265
0.000164932
0.000182698
0.000201496
0.000221807
0.000243743
0.000267345
0.000292632
0.000319986
0.00034947
0.000381179
0.00041558
0.000452845
0.000493306
0.000537095
0.00058449
0.000635794
0.000691481
0.000752054
0.000817982
0.000889495
0.000967262
0.00105173
0.00114372
0.00124386
0.00135287
0.00147169
0.00160118
0.00174223
0.00189582
0.00206326
0.00224587
0.00244486
0.00266176
0.00289819
0.00315581
0.00343662
0.00374263
0.00407609
0.00443935
0.00483504
0.00526603
0.00573537
0.00624637
0.00680272
0.0074084
0.00806772
0.00878523
0.00956616
0.0104162
0.0113413
0.0123477
0.0134415
0.014629
0.0159169
4.96356e-06
1.48888e-05
2.48501e-05
3.50979e-05
4.56491e-05
5.64204e-05
6.75894e-05
7.94037e-05
9.16389e-05
0.000104655
0.00011846
0.000133284
0.000148792
0.000165232
0.000183142
0.000202207
0.0002226
0.000244468
0.000268253
0.000293784
0.000321178
0.000350807
0.00038277
0.000417223
0.000454607
0.000495104
0.000539069
0.000586658
0.000638243
0.000694024
0.000754571
0.000820549
0.000892226
0.00096998
0.0010546
0.00114648
0.00124663
0.00135568
0.00147429
0.00160358
0.00174444
0.00189789
0.00206502
0.00224719
0.00244584
0.00266237
0.00289835
0.00315556
0.00343584
0.00374132
0.00407422
0.00443689
0.00483202
0.00526241
0.00573118
0.00624166
0.00679742
0.0074025
0.00806122
0.00877822
0.00955854
0.0104078
0.0113322
0.012338
0.0134321
0.0146213
0.0159123
0.0173128
4.96373e-06
1.49131e-05
2.48936e-05
3.50311e-05
4.55969e-05
5.6458e-05
6.77193e-05
7.94675e-05
9.18994e-05
0.000104839
0.000118637
0.00013345
0.0001492
0.000165786
0.000183578
0.000202741
0.000223466
0.000245413
0.000269131
0.000294845
0.00032248
0.00035216
0.000384269
0.000418988
0.000456508
0.00049705
0.000541135
0.000588843
0.000640634
0.000696758
0.000757413
0.000823367
0.000895081
0.00097306
0.00105775
0.00114974
0.00124979
0.00135878
0.00147743
0.00160649
0.00174717
0.00190044
0.00206743
0.00224924
0.00244748
0.00266367
0.00289926
0.00315595
0.00343577
0.0037407
0.00407302
0.00443511
0.00482963
0.00525945
0.00572757
0.00623743
0.00679264
0.00739708
0.00805517
0.00877155
0.0095513
0.0103999
0.0113234
0.0123286
0.0134223
0.0146118
0.0159045
0.0173082
0.0188311
4.9638e-06
1.49187e-05
2.49299e-05
3.50888e-05
4.55222e-05
5.64609e-05
6.77653e-05
7.9615e-05
9.20417e-05
0.000105113
0.000118894
0.000133666
0.00014948
0.000166329
0.000184183
0.00020327
0.000224005
0.00024639
0.000270141
0.000295813
0.000323632
0.000353579
0.000385803
0.000420756
0.000458477
0.000499247
0.000543324
0.000591211
0.000643116
0.000699461
0.000760386
0.000826517
0.000898283
0.000976309
0.00106118
0.00115329
0.00125346
0.00136233
0.00148095
0.00161002
0.00175049
0.00190353
0.00207038
0.00225207
0.00244994
0.00266562
0.00290087
0.00315716
0.00343642
0.00374087
0.00407259
0.00443407
0.00482797
0.00525715
0.00572465
0.0062338
0.00678838
0.00739224
0.00804964
0.00876535
0.00954445
0.0103924
0.0113153
0.0123196
0.0134126
0.0146018
0.015895
0.0173004
0.0188265
0.0204826
4.9638e-06
1.49199e-05
2.4942e-05
3.51383e-05
4.55939e-05
5.64306e-05
6.78318e-05
7.97328e-05
9.22114e-05
0.000105352
0.000119226
0.000133981
0.000149794
0.000166644
0.000184811
0.000204009
0.000224636
0.000247027
0.000271188
0.000296894
0.000324686
0.000354885
0.000387395
0.000422496