/*--------------------------------*- C++ -*----------------------------------*\
| =========                 |                                                 |
| \\      /  F ield         | OpenFOAM: The Open Source CFD Toolbox           |
|  \\    /   O peration     | Version:  v2012                                 |
|   \\  /    A nd           | Website:  www.openfoam.com                      |
|    \\/     M anipulation  |                                                 |
\*---------------------------------------------------------------------------*/
FoamFile
{
    version     2.0;
    format      ascii;
    class       volScalarField;
    location    "6700";
    object      wallHeatFlux;
}
// * * * * * * * * * * * * * * * * * * * * * * * * * * * * * * * * * * * * * //

dimensions      [1 0 -3 0 0 0 0];


internalField   uniform 0;

boundaryField
{
    base
    {
        type            calculated;
        value           nonuniform List<scalar> 
398
(
-653698
-120536
-68077.8
-66888.6
-71968.9
-76424.5
-79312.8
-80900.3
-81936.9
-82344.3
-82283.2
-81955.9
-81587.9
-81099.4
-80562.3
-80035.3
-79497.3
-78889.5
-78296.4
-77751.4
-77239.7
-76710.3
-76166.5
-75663.8
-75183.6
-74700.4
-74223.1
-73769.9
-73331.5
-72894.1
-72465.3
-72067.9
-71687
-71288.8
-70883.1
-70517.3
-70195.7
-69878.1
-69531
-69184.7
-68869.1
-68604.9
-68348.5
-68081.3
-67780.3
-67486.9
-67225.6
-67022.6
-66889
-66732.6
-66561.9
-66342.8
-66079.5
-65817
-65567.8
-65356.8
-65204.1
-65112.8
-65064
-65025.1
-64982.9
-64910
-64818.2
-64691.7
-64538.6
-64373.9
-64194.3
-64018.2
-63855.6
-63699.7
-63571.3
-63460
-63371
-63302.3
-63245
-63205.1
-63178
-63167.1
-63156.9
-63152.4
-63153.4
-63166.2
-63162.1
-63159.5
-63161
-63169.4
-63150.2
-61562.4
-51041.6
-46950.7
-69770.8
-82107
-90437.8
-95648.7
-100135
-104050
-107414
-110569
-113623
-116416
-119021
-121400
-123511
-125334
-126885
-128179
-129254
-130125
-130850
-131476
-132081
-132714
-133431
-134265
-135251
-136411
-137749
-139279
-141020
-142976
-145148
-147543
-150167
-152991
-156028
-159263
-162706
-166373
-170277
-174265
-178220
-182397
-186698
-191073
-195510
-199971
-204476
-208980
-213388
-217634
-221626
-225222
-228123
-229584
-228413
-222072
-206065
-172941
-105978
-71663.7
-83927.5
-99362.7
-110867
-120864
-130985
-140949
-150188
-158438
-165680
-172006
-177546
-182417
-186780
-190691
-194283
-197579
-200645
-203695
-206538
-209319
-212064
-214789
-217503
-220240
-223027
-225826
-228684
-231668
-234668
-237785
-240991
-244330
-247818
-251439
-255197
-259099
-263255
-267522
-272060
-276816
-281778
-287098
-292609
-298507
-304762
-311280
-318331
-325723
-333607
-342044
-350979
-360534
-370681
-381614
-393203
-405905
-419050
-433390
-449076
-465550
-483218
-503047
-523323
-546509
-571097
-597767
-626613
-658907
-693311
-731975
-773283
-819800
-869821
-924035
-985140
-1.05065e+06
-1.12305e+06
-1.19736e+06
-1.27685e+06
-1.36268e+06
-1.44894e+06
-1.53317e+06
-1.62304e+06
-1.71169e+06
-1.80124e+06
-1.89489e+06
-1.97331e+06
-2.06257e+06
-2.15307e+06
-2.22396e+06
-2.29511e+06
-2.35967e+06
-2.47196e+06
-2.49705e+06
-2.52812e+06
-2.5588e+06
-2.57308e+06
-2.5781e+06
-2.55838e+06
-2.53881e+06
-2.44831e+06
-2.39029e+06
-2.28007e+06
-2.17022e+06
-2.06939e+06
-1.98044e+06
-1.90411e+06
-1.83354e+06
-1.7789e+06
-1.7161e+06
-1.65969e+06
-1.62221e+06
-1.59982e+06
-1.56577e+06
-1.56513e+06
-1.56804e+06
-1.53951e+06
-1.53207e+06
-1.50668e+06
-1.4805e+06
-1.47758e+06
-1.48074e+06
-1.49045e+06
-1.48422e+06
-1.48867e+06
-1.48016e+06
-1.45973e+06
-1.43549e+06
-1.42728e+06
-1.41603e+06
-1.40587e+06
-1.40507e+06
-1.405e+06
-1.40342e+06
-1.38017e+06
-1.39226e+06
-1.36826e+06
-1.38293e+06
-1.35938e+06
-1.35438e+06
-1.34816e+06
-1.32117e+06
-1.34212e+06
-1.31685e+06
-1.35447e+06
-1.54558e+06
-1.48947e+06
-1.26162e+06
-1.232e+06
-1.26165e+06
-1.56053e+06
-1.26885e+06
-1.48211e+06
-1.55926e+06
-1.45343e+06
-1.36802e+06
-1.25364e+06
-1.21977e+06
-1.21103e+06
-1.19056e+06
-1.19177e+06
-1.19158e+06
-1.36932e+06
-1.58014e+06
-1.41128e+06
-1.3836e+06
-1.53077e+06
-1.06459e+06
-1.30965e+06
-1.67727e+06
-1.51916e+06
-1.45078e+06
-1.41469e+06
-1.41609e+06
-1.37956e+06
-1.35856e+06
-1.32523e+06
-1.39045e+06
-1.33776e+06
-1.3607e+06
-1.33144e+06
-955981
-983399
-1.27876e+06
-963477
-1.28332e+06
-963582
-1.28273e+06
-1.22844e+06
-1.32271e+06
-1.27752e+06
-1.30306e+06
-957941
-1.21742e+06
-1.2035e+06
-1.29138e+06
-1.2066e+06
-938441
-1.17787e+06
-897970
-1.18702e+06
-1.28902e+06
-1.18645e+06
-1.2046e+06
-1.29233e+06
-1.26427e+06
-1.16387e+06
-1.0643e+06
-1.19974e+06
-1.19588e+06
-1.07035e+06
-1.25786e+06
-1.26262e+06
-1.27359e+06
-874485
-1.20539e+06
-1.08038e+06
-1.02057e+06
-1.29899e+06
-1.12495e+06
-1.12869e+06
-1.27317e+06
-1.09563e+06
-1.11241e+06
-1.0432e+06
-847712
-1.14647e+06
-1.13763e+06
-1.21354e+06
-860564
-1.11346e+06
-1.15442e+06
-1.06394e+06
-1.11901e+06
-1.01457e+06
-1.12876e+06
-1.12923e+06
-1.12869e+06
-1.08664e+06
-1.08458e+06
-1.09153e+06
-1.15176e+06
-950413
-972069
-835209
-1.00735e+06
-1.17571e+06
-987719
)
;
    }
    frontAndBack
    {
        type            empty;
    }
    inlet
    {
        type            calculated;
        value           uniform 0;
    }
    outlet
    {
        type            calculated;
        value           uniform 0;
    }
    top
    {
        type            calculated;
        value           uniform 0;
    }
}


// ************************************************************************* //
