/*--------------------------------*- C++ -*----------------------------------*\
| =========                 |                                                 |
| \\      /  F ield         | OpenFOAM: The Open Source CFD Toolbox           |
|  \\    /   O peration     | Version:  v2012                                 |
|   \\  /    A nd           | Website:  www.openfoam.com                      |
|    \\/     M anipulation  |                                                 |
\*---------------------------------------------------------------------------*/
FoamFile
{
    version     2.0;
    format      ascii;
    class       volScalarField;
    location    "0";
    object      xx;
}
// * * * * * * * * * * * * * * * * * * * * * * * * * * * * * * * * * * * * * //

dimensions      [0 0 0 0 0 0 0];


internalField   nonuniform List<scalar> 
39402
(
0.00328564
0.000143182
0.00246978
3.60052e-05
0.000120328
0.00165625
2.94476e-05
3.04074e-05
0.000125003
0.00109421
3.11175e-05
4.92094e-05
2.99522e-05
0.0001526
0.000834295
3.33417e-05
7.55477e-05
0.000434567
4.30122e-05
0.000201835
0.000778369
3.51216e-05
9.26236e-05
0.000818655
0.00249448
8.78401e-05
0.000262722
0.000817709
3.60027e-05
0.000103936
0.0010446
0.00471317
0.00886566
0.000183499
0.000324041
0.000913369
3.6645e-05
0.000109676
0.00118714
0.00596332
0.0166108
0.0229509
0.000340594
0.000378669
0.00104898
3.69003e-05
0.000113762
0.00125789
0.00673119
0.0208273
0.0427071
0.0475184
0.000555358
0.000424668
0.00121787
3.6658e-05
0.000115491
0.00130686
0.00710434
0.0233569
0.0531827
0.0881081
0.0833847
0.000786486
0.000464409
0.00141986
3.61588e-05
0.000115001
0.00132653
0.00735505
0.0245677
0.0593287
0.109301
0.154709
0.129134
0.00100691
0.000503935
0.00165704
3.56864e-05
0.000113627
0.00131991
0.00744991
0.0253572
0.062249
0.121499
0.19191
0.240902
0.173799
0.00124832
0.000552006
0.00193299
3.51077e-05
0.000112338
0.00130372
0.00740427
0.0256405
0.0640969
0.127299
0.213022
0.300079
0.336795
0.220274
0.00152181
0.000606927
0.0022546
3.44748e-05
0.000110502
0.00128869
0.0073101
0.0254677
0.064738
0.130863
0.223151
0.333412
0.430587
0.431935
0.270713
0.00187109
0.000666004
0.00262968
3.38954e-05
0.000108473
0.00126685
0.00722174
0.0251432
0.0643019
0.132103
0.229224
0.349681
0.480089
0.560457
0.536099
0.326504
0.00243055
0.000734505
0.0030677
3.33122e-05
0.000106616
0.00124298
0.00709739
0.0248379
0.0635173
0.131273
0.231392
0.359235
0.504819
0.635456
0.703365
0.650218
0.393207
0.00299749
0.000822206
0.00357973
3.26615e-05
0.000104669
0.00122104
0.0069628
0.0244164
0.0627727
0.129806
0.230154
0.362852
0.519134
0.674801
0.80422
0.86216
0.77576
0.488925
0.00346136
0.000940126
0.00418198
3.20094e-05
0.000102426
0.00119789
0.00683846
0.0239608
0.0617554
0.128396
0.227873
0.361333
0.524935
0.697718
0.858713
0.993607
1.03792
0.920624
0.64502
0.0037848
0.00110094
0.00490308
3.14387e-05
0.000100233
0.0011713
0.00670763
0.0235392
0.0606579
0.126464
0.225643
0.358254
0.523479
0.708489
0.890262
1.06676
1.20574
1.2333
1.10674
0.808006
0.0038231
0.00131871
0.00577015
3.09205e-05
9.83409e-05
0.00114542
0.00655875
0.0230959
0.0596353
0.124377
0.22257
0.355175
0.519782
0.70948
0.905948
1.10937
1.30213
1.44265
1.45538
1.33422
0.944887
0.00355114
0.00161767
0.00678503
3.03892e-05
9.65933e-05
0.00112312
0.00641403
0.0225948
0.0585605
0.122423
0.21922
0.350853
0.515949
0.707137
0.90864
1.13118
1.35915
1.56748
1.7074
1.69483
1.53208
1.06781
0.00307739
0.00199641
0.00788533
2.98468e-05
9.47617e-05
0.00110228
0.00628835
0.0221072
0.0573493
0.120363
0.216067
0.346091
0.510398
0.704313
0.90666
1.13621
1.38896
1.64263
1.86562
1.99437
1.94522
1.73501
1.15738
0.00257727
0.0024658
0.00895843
2.93554e-05
9.29134e-05
0.00108051
0.00617065
0.0216815
0.0561693
0.118044
0.212728
0.341576
0.504181
0.699231
0.903799
1.13481
1.39744
1.68313
1.96303
2.19465
2.3051
2.2101
1.96443
1.19518
0.00222909
0.00305243
0.00974929
2.8898e-05
9.12531e-05
0.00105863
0.0060483
0.0212817
0.0551336
0.115779
0.208967
0.336767
0.498236
0.692339
0.898058
1.13192
1.39721
1.69658
2.01751
2.32108
2.55683
2.63912
2.49131
2.25033
1.16313
0.00210797
0.00378783
0.010168
2.84471e-05
8.97255e-05
0.00103905
0.0059259
0.0208675
0.0541584
0.113782
0.205283
0.331336
0.491855
0.684964
0.890942
1.12538
1.39454
1.69836
2.03797
2.39428
2.71948
2.95195
2.9937
2.79446
2.62221
1.04635
0.00223873
0.00464586
0.0103326
2.80018e-05
8.81909e-05
0.00102105
0.00581597
0.0204544
0.0531497
0.111896
0.202025
0.326007
0.484624
0.676993
0.883914
1.11721
1.38733
1.69638
2.04294
2.42492
2.81708
3.1597
3.37728
3.36707
3.12853
2.95126
0.845509
0.0025887
0.00553322
0.0103873
2.75864e-05
8.66652e-05
0.00100302
0.00571495
0.0200819
0.0521442
0.109945
0.198935
0.321281
0.477513
0.667894
0.876018
1.10919
1.37795
1.68865
2.04239
2.43513
2.86189
3.2887
3.64075
3.83014
3.75909
3.50876
3.0575
0.593763
0.00313334
0.00641206
0.0103386
2.71935e-05
8.52544e-05
0.000985114
0.00561442
0.0197399
0.0512358
0.108002
0.195741
0.316785
0.471191
0.658928
0.866717
1.10002
1.36861
1.67803
2.03443
2.43711
2.8799
3.35275
3.81015
4.15992
4.3056
4.17466
3.97962
3.04035
0.356407
0.00382789
0.00720233
0.0102234
2.68038e-05
8.39324e-05
0.000968626
0.0055148
0.0194003
0.0503996
0.106239
0.192556
0.312126
0.465157
0.650937
0.857454
1.08908
1.35782
1.66734
2.02276
2.42993
2.88608
3.38211
3.90023
4.38057
4.71333
4.79912
4.62746
4.60982
2.84648
0.184825
0.00460563
0.00793649
0.00999551
2.64289e-05
8.26112e-05
0.000953265
0.00542317
0.0190647
0.0495716
0.104616
0.18966
0.307483
0.458902
0.643308
0.849303
1.07818
1.34485
1.65473
2.01074
2.41749
2.88056
3.39498
3.94591
4.50565
4.99825
5.29432
5.31321
5.15128
5.23076
2.42445
0.0860828
0.00541785
0.00859634
0.00970966
2.61021e-05
8.13468e-05
0.000938015
0.00533812
0.0187558
0.0487538
0.103008
0.186988
0.303251
0.452654
0.635356
0.841404
1.0685
1.33181
1.63948
1.99626
2.40428
2.86808
3.39259
3.9687
4.57473
5.169
5.65767
5.89788
5.85737
5.80674
5.38121
1.79498
0.0382691
0.00621193
0.00912903
0.00941706
2.57865e-05
8.02442e-05
0.000923483
0.00525417
0.0184705
0.0480019
0.101424
0.184341
0.299341
0.446958
0.62742
0.833117
1.05917
1.32021
1.62402
1.97846
2.38795
2.854
3.38104
3.97205
4.6123
5.26998
5.88861
6.35247
6.52378
6.46597
6.69554
5.27903
1.11116
0.0180288
0.0069466
0.00949303
0.00917956
2.5462e-05
7.91824e-05
0.000910917
0.00517465
0.0181894
0.0473078
0.0999648
0.181733
0.295467
0.441691
0.620177
0.824778
1.04927
1.30901
1.61023
1.96023
2.36753
2.83605
3.36686
3.96305
4.62463
5.32934
6.03161
6.65899
7.07669
7.17644
7.19944
7.73834
4.77057
0.56886
0.0103655
0.0075874
0.00968529
0.00902485
2.51291e-05
7.80747e-05
0.000898875
0.00510579
0.0179242
0.0466249
0.0986169
0.179328
0.291646
0.436465
0.613479
0.817195
1.03932
1.29711
1.59688
1.944
2.34636
2.81296
3.34752
3.9498
4.62054
5.35487
6.12225
6.85932
7.47176
7.82242
7.88021
8.16169
8.02658
3.75405
0.248449
0.007855
0.00804484
0.00976487
0.00892856
2.48363e-05
7.69499e-05
0.000886393
0.00504068
0.017695
0.0459825
0.0972934
0.177111
0.288128
0.431312
0.606823
0.810178
1.03026
1.28513
1.58273
1.92824
2.32735
2.78868
3.32197
3.9296
4.60987
5.35943
6.16833
6.98979
7.74732
8.31963
8.59455
8.70064
9.45955
7.94698
2.41595
0.0984272
0.0072865
0.00832824
0.00976077
0.00882461
2.46033e-05
7.5995e-05
0.000873842
0.00497367
0.0174796
0.0454282
0.0960499
0.17493
0.284883
0.426571
0.600259
0.803163
1.0219
1.27421
1.56835
1.91141
2.30888
2.76667
3.29443
3.90178
4.59009
5.35333
6.18578
7.06631
7.93346
8.68614
9.19475
9.41602
9.74833
10.6076
7.21959
1.23171
0.0386262
0.00737434
0.00851904
0.00963678
0.00873938
2.43756e-05
7.52461e-05
0.000863397
0.00490676
0.0172594
0.0449088
0.0949763
0.172882
0.28168
0.422193
0.594228
0.796241
1.01349
1.26412
1.55524
1.89437
2.28914
2.74524
3.26931
3.87118
4.56059
5.33624
6.18855
7.104
8.04963
8.94611
9.66581
10.0962
10.3548
11.2212
10.9504
5.63428
0.515498
0.0170189
0.00766096
0.00866237
0.00938608
0.00869977
2.41234e-05
7.45074e-05
0.000855351
0.0048515
0.0170411
0.0443815
0.0939748
0.171116
0.278678
0.417858
0.588652
0.789877
1.00519
1.25404
1.5432
1.87882
2.2691
2.72221
3.24466
3.84287
4.52725
5.30638
6.17586
7.12076
8.11509
9.1182
10.0167
10.6773
11.0479
11.5387
13.1544
10.695
3.53078
0.188375
0.00995649
0.00788867
0.00879624
0.00906912
0.00868286
2.3863e-05
7.36594e-05
0.000847542
0.00480967
0.016862
0.0438608
0.0929619
0.169474
0.276094
0.41381
0.583109
0.784011
0.997631
1.24402
1.53108
1.86442
2.25073
2.69882
3.21815
3.81485
4.49584
5.27106
6.14745
7.11524
8.15157
9.22182
10.2616
11.134
11.7138
12.1123
13.1767
13.8476
9.3784
1.73674
0.0645306
0.00799387
0.00803105
0.00888079
0.00881703
0.00868063
2.36336e-05
7.27986e-05
0.00083848
0.00476963
0.0167281
0.0434364
0.0919648
0.167813
0.273693
0.410316
0.577935
0.777194
0.99064
1.23486
1.51911
1.85001
2.23371
2.67718
3.19088
3.78463
4.46443
5.23711
6.11164
7.09081
8.16072
9.28812
10.4219
11.4707
12.2842
12.7965
13.4291
15.3479
14.0213
6.82305
0.697051
0.0236945
0.00759798
0.00818974
0.00887455
0.00865344
0.00868565
2.34639e-05
7.20741e-05
0.000829376
0.00472329
0.0166012
0.0431225
0.0911569
0.166188
0.271271
0.407076
0.573476
0.770834
0.983536
1.22642
1.50808
1.8358
2.21672
2.65732
3.16568
3.75335
4.43026
5.20256
6.07534
7.05712
8.14548
9.31885
10.531
11.7072
12.734
13.4599
13.9964
15.2342
16.7283
13.1092
3.84389
0.24562
0.0115167
0.00759151
0.00828336
0.00882349
0.00854327
0.00869056
2.33176e-05
7.15592e-05
0.000821964
0.00467699
0.0164551
0.0428273
0.0905668
0.164879
0.268908
0.403818
0.569356
0.765368
0.976925
1.21814
1.49798
1.82267
2.19987
2.63732
3.14253
3.72421
4.39481
5.16436
6.0386
7.02016
8.11483
9.31831
10.5912
11.8726
13.0645
14.0283
14.6811
15.4666
17.6619
17.2513
10.4913
1.68656
0.0814014
0.00822439
0.00761866
0.00835878
0.00875871
0.00843878
0.00869376
2.31442e-05
7.11083e-05
0.000817003
0.00464013
0.0163099
0.0424887
0.0900154
0.163931
0.267014
0.400642
0.565195
0.760328
0.971288
1.2104
1.4881
1.8107
2.18436
2.61746
3.11919
3.69723
4.36149
5.12446
5.99675
6.98147
8.0817
9.29482
10.6103
11.9755
13.305
14.473
15.3487
16.0292
17.4834
19.6228
16.7043
6.56862
0.619183
0.0283064
0.00746816
0.00770018
0.00838222
0.0086442
0.00834594
0.00869523
2.29374e-05
7.05396e-05
0.000812791
0.00461685
0.0161968
0.0421542
0.089383
0.163048
0.265656
0.398116
0.561173
0.75524
0.966094
1.20384
1.4789
1.79899
2.17019
2.59933
3.09606
3.67029
4.33031
5.08679
5.95229
6.93755
8.04306
9.26567
10.603
12.0259
13.4678
14.8164
15.9175
16.7182
17.6856
20.2201
20.4423
14.1626
3.12458
0.2042
0.0126538
0.00734392
0.00777666
0.00840498
0.00851965
0.00826609
0.00869504
2.27275e-05
6.98522e-05
0.000807166
0.00459784
0.0161295
0.0418997
0.0887626
0.162039
0.264398
0.396327
0.557989
0.750322
0.960805
1.19778
1.47112
1.78808
2.15639
2.5827
3.0748
3.64357
4.29917
5.05153
5.91011
6.88889
7.99605
9.23169
10.5826
12.04
13.5655
15.0631
16.3853
17.3896
18.2245
19.96
22.6115
20.1882
9.5392
1.20177
0.0647867
0.00839814
0.00729975
0.00789031
0.00841047
0.00839554
0.00820247
0.0086952
2.25476e-05
6.91703e-05
0.000800292
0.00457159
0.0160769
0.0417571
0.0882992
0.161054
0.262961
0.394673
0.555752
0.74646
0.955717
1.19157
1.46396
1.77882
2.14351
2.56645
3.0554
3.61875
4.26848
5.01602
5.87061
6.84259
7.94501
9.1838
10.5531
12.0398
13.6147
15.2213
16.7351
17.9847
18.9085
20.0975
23.0384
23.6474
17.7465
4.85132
0.405782
0.0225271
0.00735205
0.00732802
0.00795281
0.00842475
0.00826039
0.00817402
0.00869554
2.24276e-05
6.86217e-05
0.000793503
0.00453869
0.0160014
0.0416513
0.0880568
0.160336
0.261562
0.39278
0.553699
0.743795
0.951884
1.18563
1.45665
1.77027
2.13255
2.55128
3.03629
3.59602
4.23978
4.98069
5.83047
6.79855
7.89503
9.1322
10.5121
12.0192
13.6376
15.3209
16.9836
18.4631
19.6006
20.5914
22.7001
25.7197
23.5475
12.5679
1.95899
0.127521
0.0108207
0.00710421
0.00739905
0.00804676
0.00839624
0.00810684
0.00816062
0.00869585
2.23831e-05
6.82886e-05
0.000788342
0.00450641
0.0159044
0.0414916
0.0878879
0.159987
0.260571
0.390951
0.551339
0.741329
0.949362
1.1812
1.44963
1.7617
2.1225
2.53831
3.01857
3.57382
4.21345
4.94758
5.79058
6.75389
7.84782
9.07794
10.4583
11.9861
13.6374
15.3784
17.1474
18.8256
20.22
21.2811
22.7232
26.1638
26.8957
21.0185
6.71506
0.683216
0.0404579
0.00781296
0.00705922
0.00750176
0.00809327
0.00834133
0.00797445
0.00815214
0.00869593
2.23393e-05
6.82406e-05
0.000785686
0.00448302
0.0158098
0.0412816
0.0876163
0.159759
0.260122
0.38968
0.549066
0.738497
0.946997
1.17839
1.44434
1.75343
2.11233
2.52662
3.00354
3.55337
4.18783
4.91744
5.75311
6.7093
7.7973
9.02753
10.4044
11.9374
13.6146
15.4108
17.2622
19.0825
20.7159
21.9988
23.1617
25.7021
28.9734
26.8061
15.2158
2.79971
0.218495
0.0154656
0.00710629
0.00708731
0.00763084
0.00813745
0.00820461
0.00787506
0.00814595
0.0086959
2.22688e-05
6.81359e-05
0.000786354
0.00447342
0.0157451
0.0410776
0.0872482
0.159364
0.259856
0.389163
0.547529
0.735787
0.944207
1.17574
1.44103
1.74714
2.10255
2.51466
2.98973
3.53572
4.16408
4.88804
5.71879
6.66697
7.74884
8.97538
10.3506
11.8866
13.5779
15.4089
17.3367
19.2756
21.0976
22.6302
23.8486
25.6041
29.5962
30.224
23.9772
8.29382
0.993185
0.0675851
0.00887281
0.00694322
0.00715841
0.00773709
0.00815814
0.00803744
0.00780303
0.00814301
0.008696
2.21479e-05
6.79348e-05
0.000786239
0.00448171
0.0157262
0.0409466
0.0868952
0.158814
0.259345
0.388887
0.546971
0.734004
0.941504
1.17254
1.43796
1.7432
2.09522
2.50322
2.97571
3.51971
4.14369
4.86045
5.68502
6.62794
7.70119
8.92099
10.2972
11.8336
13.5293
15.3845
17.3649
19.4038
21.3925
23.1605
24.5651
25.9534
29.0468
32.3728
30.0036
17.3905
3.50432
0.318367
0.0228877
0.00725555
0.00692841
0.00726084
0.00783876
0.00817774
0.00785052
0.00776722
0.00814179
0.00869601
2.19678e-05
6.75239e-05
0.000784996
0.00448598
0.0157667
0.0409283
0.0866845
0.158291
0.258611
0.388281
0.546724
0.733441
0.93993
1.16945
1.43425
1.73962
2.09068
2.49461
2.96238
3.50338
4.12525
4.83695
5.65343
6.58987
7.65762
8.86807
10.2372
11.7727
13.4815
15.3469
17.3643
19.4824
21.6092
23.5877
25.2305
26.5963
28.7601
33.4276
33.6064
26.6325
9.49085
1.24936
0.0966136
0.0106956
0.00689016
0.00697276
0.00737712
0.00792694
0.00808572
0.00768714
0.0077507
0.00814121
0.00869601
2.17734e-05
6.68965e-05
0.000781229
0.00448408
0.0157941
0.0410542
0.0866949
0.158007
0.257922
0.387369
0.546043
0.733256
0.939712
1.16773
1.4307
1.73541
2.08647
2.48938
2.95228
3.48781
4.10632
4.81558
5.62638
6.55422
7.61468
8.81992
10.1814
11.7152
13.4243
15.3068
17.3455
19.5174
21.7552
23.9231
25.8131
27.3269
29.0058
32.7337
35.927
33.0731
19.0594
4.01444
0.3999
0.0306841
0.00761922
0.00683089
0.00700762
0.0075296
0.00795811
0.00794045
0.00756932
0.00774197
0.00814104
0.008696
2.15853e-05
6.62439e-05
0.00077491
0.00446843
0.0158015
0.0411479
0.0869889
0.158096
0.257585
0.386531
0.544981
0.73254
0.939883
1.16766
1.42879
1.73133
2.08152
2.48462
2.94624
3.47611
4.08814
4.79387
5.60166
6.52351
7.57497
8.7729
10.1301
11.6586
13.3659
15.2572
17.3202
19.531
21.8482
24.1655
26.2992
28.0502
29.5771
32.3146
37.5888
37.0233
28.8364
10.2517
1.4283
0.120781
0.0125847
0.00691861
0.00683227
0.00711135
0.00763839
0.00799424
0.00773787
0.00749484
0.00773851
0.00814089
0.008696
2.14321e-05
6.56324e-05
0.000768319
0.00443864
0.0157631
0.0411928
0.0872154
0.158652
0.257815
0.38618
0.544021
0.731342
0.939456
1.16806
1.42889
1.72908
2.07685
2.4789
2.94075
3.46912
4.07458
4.77323
5.57671
6.49533
7.54009
8.72793
10.0796
11.6028
13.3047
15.1976
17.2801
19.5255
21.9049
24.3356
26.6762
28.6984
30.326
32.3553
36.8227
39.6052
35.9094
20.0652
4.2593
0.458069
0.0372567
0.00801218
0.00678326
0.00687293
0.00722156
0.00774591
0.00792059
0.00753494
0.00746124
0.00773722
0.00814088
0.00869599
2.13324e-05
6.51594e-05
0.000762204
0.00440715
0.015677
0.0411271
0.087347
0.159096
0.25873
0.386622
0.543695
0.730286
0.938365
1.16762
1.42944
1.72931
2.07433
2.47338
2.93428
3.4626
4.06654
4.75735
5.55314
6.4668
7.50866
8.68982
10.0297
11.5466
13.2476
15.1386
17.2299
19.5044
21.9288
24.4476
26.9508
29.2314
31.0873
32.8221
36.2305
41.4161
40.4092
30.4343
10.4146
1.50104
0.13818
0.0142399
0.00695348
0.00678417
0.00692809
0.00737848
0.00777823
0.00781221
0.00737647
0.00744727
0.00773672
0.00814081
0.00869595
2.12986e-05
6.48873e-05
0.000757717
0.00437802
0.0155843
0.0409442
0.0872645
0.159375
0.259472
0.38797
0.544407
0.730024
0.937442
1.16652
1.42902
1.73007
2.0747
2.47059
2.92786
3.45509
4.05886
4.74777
5.53464
6.43972
7.47625
8.65454
9.98696
11.4947
13.1865
15.0812
17.176
19.466
21.9304
24.5258
27.1577
29.6528
31.7816
33.5394
36.0356
41.2899
43.3303
38.4207
20.2224
4.20252
0.477056
0.0420007
0.00836331
0.00674014
0.00681749
0.00701865
0.00747808
0.00781696
0.00758732
0.00728043
0.00744188
0.00773663
0.00814083
0.00869597
2.13141e-05
6.48588e-05
0.000755471
0.00435772
0.0154995
0.0407447
0.0869515
0.1593
0.259967
0.38909
0.546278
0.731087
0.937539
1.16562
1.42785
1.72988
2.07579
2.4712
2.92446
3.44782
4.05023
4.73905
5.52358
6.41836
7.44542
8.61864
9.94805
11.4474
13.134
15.0225
17.1188
19.419
21.9146
24.5752
27.3101
29.9863
32.3821
34.3326
36.3678
40.5648
45.3831
43.6357
31.3033
9.96789
1.4525
0.142334
0.0153796
0.00698633
0.00671706
0.0068458
0.00711897
0.00760344
0.00775658
0.00736747
0.00723547
0.0074403
0.0077366
0.00814087
0.008696
2.13505e-05
6.49936e-05
0.000756103
0.00434919
0.015443
0.0405638
0.0866066
0.15884
0.259925
0.389866
0.547845
0.733551
0.939149
1.1659
1.42705
1.72868
2.07572
2.47264
2.92524
3.44375
4.04205
4.72937
5.51382
6.40583
7.42129
8.58394
9.9091
11.4045
13.0836
14.9634
17.0653
19.3735
21.8936
24.5934
27.4194
30.2491
32.877
35.1099
37.0283
40.1909
46.2771
47.0367
40.3791
19.5828
3.89907
0.454254
0.0426826
0.00858247
0.00670681
0.00672909
0.00687645
0.00726721
0.00763692
0.00765362
0.00718877
0.00721999
0.00743978
0.00773654
0.0081409
0.008696
2.13839e-05
6.51872e-05
0.000758585
0.00435633
0.0154256
0.0404503
0.0862946
0.158331
0.259326
0.389892
0.548954
0.735643
0.942336
1.16806
1.42744
1.72776
2.07445
2.47263
2.92718
3.44474
4.03743
4.72013
5.50294
6.39507
7.40701
8.55702
9.87023
11.3604
13.0376
14.9128
17.0056
19.3221
21.8631
24.5888
27.487
30.4367
33.2887
35.7812
37.8453
40.3279
45.4636
49.4479
46.5178
31.1924
9.13059
1.32004
0.133733
0.0154066
0.00700304
0.00667608
0.00675682
0.00696178
0.00737572
0.00767443
0.00740008
0.00709043
0.00721499
0.00743972
0.00773662
0.00814088
0.008696
2.1384e-05
6.53333e-05
0.000761639
0.00437343
0.0154598
0.0404314
0.0861169
0.157876
0.258655
0.389166
0.549087
0.737139
0.945037
1.17208
1.43016
1.72838
2.07339
2.47107
2.92726
3.44702
4.03855
4.71487
5.49221
6.3826
7.39452
8.54084
9.83948
11.318
12.9915
14.8681
16.9571
19.2697
21.8164
24.5795
27.5144
30.5722
33.6035
36.365
38.6583
40.8299
44.9074
51.3066
50.5971
41.4158
18.1541
3.44911
0.406227
0.0399315
0.0085328
0.00668998
0.00669531
0.00679509
0.00704076
0.00748014
0.00759143
0.00717078
0.00704974
0.00721375
0.00743974
0.00773664
0.00814089
0.00869601
2.1353e-05
6.53518e-05
0.000764044
0.00439367
0.0155268
0.040537
0.0861173
0.15764
0.258062
0.388347
0.548251
0.737412
0.946962
1.17547
1.43514
1.73172
2.07439
2.47006
2.92553
3.44742
4.04122
4.71629
5.48641
6.37003
7.38062
8.52644
9.8217
11.2858
12.946
14.8203
16.9108
19.2236
21.7676
24.5508
27.5366
30.6782
33.8461
36.8524
39.4358
41.5985
44.7049
50.8898
53.514
48.7672
29.8124
7.97185
1.13777
0.118322
0.0146093
0.00695656
0.00664451
0.00671706
0.00683039
0.00718381
0.00751133
0.00744741
0.00700023
0.00703777
0.00721352
0.00743979
0.00773665
0.00814088
0.00869597
2.12876e-05
6.52468e-05
0.000764828
0.00440985
0.0156042
0.0407214
0.0863664
0.157702
0.257799
0.387644
0.547308
0.73649
0.947412
1.17793
1.43935
1.73773
2.07855
2.47137
2.92457
3.44585
4.04199
4.71934
5.48803
6.36346
7.36649
8.51092
9.80647
11.2655
12.9104
14.772
16.8559
19.1759
21.7266
24.5258
27.5377
30.7495
34.0324
37.244
40.1077
42.489
45.0487
50.1877
55.712
53.8111
41.1412
15.9689
2.88815
0.343008
0.0353712
0.00830861
0.00663845
0.00664529
0.00673598
0.00691069
0.00730555
0.00753687
0.00717308
0.00692041
0.00703474
0.00721356
0.00743987
0.00773669
0.00814089
0.008696
2.11838e-05
6.50072e-05
0.000764089
0.00441703
0.0156669
0.0409295
0.0867596
0.158178
0.257974
0.387383
0.546519
0.735447
0.946544
1.17861
1.44247
1.74302
2.08561
2.47656
2.92618
3.44487
4.04039
4.72035
5.49146
6.36523
7.35903
8.4958
9.78928
11.2488
12.89
14.7313
16.8101
19.1286
21.6894
24.4914
27.5381
30.7895
34.1783
37.5521
40.6882
43.3446
45.7451
49.7917
56.9551
57.3996
50.046
27.1379
6.57834
0.922463
0.0984381
0.013353
0.00687206
0.00658526
0.00665601
0.0067574
0.00702343
0.00739919
0.00739077
0.00695416
0.00689459
0.00703421
0.00721357
0.00743992
0.00773677
0.00814094
0.008696
2.10526e-05
6.46221e-05
0.000761691
0.00441546
0.0156989
0.0411001
0.087203
0.158887
0.258763
0.387736
0.546307
0.734595
0.945584
1.17769
1.44345
1.74683
2.09202
2.48492
2.93227
3.4466
4.03922
4.71851
5.49295
6.36941
7.36154
8.48754
9.77285
11.2324
12.8704
14.7122
16.7728
19.082
21.6531
24.4685
27.5274
30.8201
34.2829
37.8074
41.1848
44.1418
46.6546
49.8755
56.1542
60.102
56.3827
39.3109
13.2658
2.27757
0.270985
0.0296212
0.00796797
0.00658288
0.00659137
0.00666871
0.0068035
0.00715152
0.00740853
0.0072072
0.00682356
0.00688831
0.00703421
0.00721366
0.00743997
0.00773675
0.00814099
0.00869605
2.09041e-05
6.41505e-05
0.000757467
0.00440451
0.0157005
0.0411952
0.087566
0.159674
0.259884
0.388911
0.546887
0.734463
0.944793
1.17669
1.44244
1.74826
2.09675
2.4926
2.94244
3.45384
4.04131
4.71723
5.49111
6.37173
7.36649
8.49051
9.76353
11.2146
12.8541
14.694
16.7512
19.0447
21.6059
24.4344
27.5228
30.8391
34.3699
38.0092
41.5819
44.8369
47.6049
50.4448
55.6262
62.221
60.9021
49.9177
23.4215
5.12593
0.70282
0.0766604
0.0118072
0.00676526
0.00654198
0.00660718
0.00668827
0.00688204
0.00725141
0.00741836
0.00692455
0.00677604
0.00688724
0.00703427
0.00721377
0.00744003
0.00773679
0.00814098
0.00869606
2.07533e-05
6.36226e-05
0.000752218
0.00438305
0.0156701
0.0412119
0.087776
0.160318
0.26111
0.390526
0.548523
0.735334
0.944968
1.17596
1.4413
1.74725
2.09872
2.49845
2.95173
3.46583
4.04991
4.7199
5.48986
6.37022
7.36929
8.49656
9.76672
11.2046
12.8341
14.6738
16.7358
19.0251
21.5688
24.3939
27.4921
30.8576
34.4347
38.1635
41.9211
45.4366
48.4876
51.2488
55.4259
62.6897
64.2599
57.8943
35.7992
10.4422
1.69475
0.20116
0.0235923
0.00756695
0.00653204
0.00655212
0.00662255
0.00672423
0.00699269
0.007293
0.00715637
0.00675132
0.00676514
0.00688717
0.00703437
0.00721386
0.00744012
0.00773686
0.00814106
0.00869606
2.06056e-05
6.30845e-05
0.000746234
0.0043557
0.0156034
0.0411511
0.0878321
0.160711
0.262122
0.392282
0.550716
0.737508
0.946295
1.17623
1.44066
1.74596
2.09769
2.50087
2.9586
3.4768
4.06368
4.72981
5.49303
6.36897
7.36809
8.49987
9.77435
11.2074
12.824
14.6544
16.7132
19.0083
21.5531
24.3653
27.4684
30.8553
34.4822
38.2942
42.1776
45.9306
49.295
52.1711
55.6188
62.02
66.8928
63.6417
47.8608
19.0727
3.78162
0.505447
0.0565177
0.0102568
0.00664942
0.00650609
0.00656469
0.00663916
0.00676381
0.00712435
0.00722798
0.00692089
0.00667696
0.00676339
0.00688724
0.00703447
0.00721398
0.00744019
0.00773692
0.0081411
0.00869608
2.04693e-05
6.25718e-05
0.00074013
0.00432409
0.015516
0.0409983
0.0877345
0.160831
0.26275
0.393727
0.553081
0.74036
0.949153
1.17808
1.44117
1.74524
2.09628
2.49972
2.96154
3.48488
4.07656
4.74574
5.50475
6.37248
7.367
8.49882
9.7787
11.216
12.8309
14.6445
16.7003
18.9928
21.5454
24.36
27.4582
30.8541
34.5166
38.3982
42.4102
46.3484
49.9797
53.079
56.1633
61.5785
69.0441
67.9289
57.713
30.7044
7.77134
1.19334
0.141307
0.0182437
0.00717985
0.00648058
0.00651268
0.00658187
0.00665728
0.00689435
0.00715914
0.00718011
0.00668763
0.00665961
0.00676328
0.0068874
0.00703465
0.00721407
0.00744026
0.00773699
0.00814113
0.0086961
2.03495e-05
6.21042e-05
0.000734288
0.00429121
0.0154131
0.0407946
0.0874537
0.160697
0.262968
0.39465
0.555024
0.743414
0.952756
1.1816
1.44347
1.74606
2.09547
2.49822
2.96042
3.48874
4.08653
4.76102
5.52289
6.38598
7.37086
8.49807
9.7779
11.2231
12.8411
14.6554
16.6895
18.9796
21.5356
24.3596
27.4673
30.8524
34.5443
38.4786
42.5948
46.7074
50.596
53.9497
56.9389
61.3589
69.0728
71.2758
65.121
43.4737
14.547
2.63696
0.343472
0.0399147
0.00893113
0.00653814
0.00646127
0.00652628
0.00659294
0.00673759
0.00699142
0.00723114
0.00686114
0.00659229
0.00665682
0.00676337
0.00688755
0.00703476
0.00721417
0.00744034
0.007737
0.00814114
0.00869611
2.02513e-05
6.17039e-05
0.000728935
0.00425964
0.0153059
0.0405518
0.0870717
0.160258
0.262808
0.394997
0.556283
0.745911
0.956466
1.186
1.44786
1.74888
2.09653
2.49744
2.95885
3.48769
4.09146
4.77313
5.54076
6.40658
7.38612
8.50293
9.77804
11.2238
12.8506
14.6679
16.6978
18.9727
21.5152
24.3485
27.467
30.8796
34.5599
38.542
42.7444
47.0137
51.1052
54.7673
57.8528
61.5737
68.4417
73.9513
70.6935
55.1669
24.5209
5.43021
0.793009
0.094074
0.0139934
0.00685699
0.00642568
0.0064708
0.00653606
0.00661813
0.00676428
0.00710123
0.00703326
0.00663932
0.00656683
0.00665661
0.00676354
0.00688769
0.00703488
0.00721429
0.00744043
0.00773709
0.00814121
0.00869617
2.01731e-05
6.13834e-05
0.000724333
0.00423058
0.0152024
0.0402954
0.0866091
0.159644
0.262186
0.394815
0.556787
0.747552
0.959496
1.19062
1.45327
1.75425
2.09999
2.49877
2.95811
3.48605
4.09015
4.77893
5.55472
6.42749
7.40976
8.52025
9.78377
11.2224
12.8517
14.6782
16.7172
18.9873
21.5192
24.3389
27.471
30.8967
34.6103
38.6132
42.8739
47.2589
51.573
55.5074
58.8081
62.1646
68.0206
76.1873
75.0041
64.6592
36.8611
10.3495
1.72818
0.219964
0.0272775
0.00791451
0.00644429
0.00641969
0.00648345
0.0065566
0.00660924
0.00690381
0.00708044
0.00686288
0.00651541
0.00656325
0.00665671
0.00676368
0.00688783
0.00703502
0.00721439
0.00744052
0.00773719
0.00814131
0.00869619
2.01164e-05
6.11335e-05
0.000720698
0.00420572
0.0151057
0.0400463
0.0861188
0.158893
0.261311
0.394006
0.556588
0.748246
0.961484
1.19437
1.45898
1.7609
2.10645
2.50289
2.95975
3.48513
4.08825
4.77759
5.56184
6.44361
7.43421
8.54725
9.80406
11.2302
12.8512
14.6784
16.7254
19.0055
21.5369
24.3445
27.4766
30.9191
34.658
38.6895
42.9897
47.4836
51.9744
56.1732
59.7595
62.966
67.8409
76.127
78.4473
71.9469
49.7789
18.1
3.55247
0.494922
0.0594549
0.0108774
0.00661658
0.00638084
0.00643236
0.00650094
0.00655266
0.00671911
0.00697534
0.00707008
0.0065729
0.00648433
0.00656311
0.0066569
0.00676387
0.006888
0.00703514
0.00721451
0.00744065
0.00773728
0.00814133
0.00869621
2.00676e-05
6.09591e-05
0.000717878
0.00418556
0.0150228
0.039814
0.0856397
0.158098
0.26023
0.392851
0.555589
0.748048
0.962388
1.19686
1.46355
1.76782
2.11446
2.51068
2.96455
3.48711
4.08728
4.77563
5.56091
6.45246
7.45349
8.57562
9.83466
11.2543
12.8599
14.6864
16.7348
19.0251
21.5628
24.377
27.4829
30.9349
34.7028
38.7668
43.1231
47.6776
52.2982
56.7654
60.6491
63.9578
68.0578
75.5364
81.2673
77.5767
61.3778
28.8508
6.86149
1.0649
0.132688
0.0183895
0.00719332
0.00637354
0.00638548
0.00644912
0.00649936
0.00661549
0.00679391
0.00704217
0.00675359
0.00644541
0.00648018
0.00656318
0.00665707
0.00676407
0.00688817
0.00703531
0.00721466
0.00744075
0.00773741
0.0081414
0.00869627
2.00394e-05
6.0813e-05
0.000715792
0.00416992
0.0149564
0.0396133
0.0851918
0.157314
0.259072
0.391403
0.554144
0.74685
0.962227
1.19804
1.46665
1.77342
2.12279
2.52011
2.97385
3.49283
4.08976
4.77454
5.5591
6.45212
7.46409
8.59778
9.86709
11.2884
12.8899
14.6973
16.745
19.0377
21.5936
24.4154
27.5294
30.9603
34.7317
38.8407
43.2338
47.8667
52.6191
57.2716
61.4637
65.0025
68.679
75.1668
83.6707
82.0516
70.8014
41.5811
12.3643
2.18209
0.291541
0.0362211
0.00877269
0.00644534
0.00634484
0.00639881
0.00645091
0.00651688
0.00661474
0.00692207
0.00687168
0.0065236
0.00640912
0.00647993
0.00656338
0.00665725
0.00676424
0.00688834
0.00703548
0.0072148
0.00744092
0.0077375
0.00814151
0.00869631
2.00226e-05
6.07426e-05
0.00071411
0.00415823
0.0149033
0.0394509
0.0848041
0.15658
0.257934
0.389855
0.552314
0.745104
0.960903
1.19795
1.46808
1.77723
2.12958
2.53015
2.98507
3.50373
4.09668
4.77769
5.55796
6.45004
7.46443
8.61071
9.89263
11.3255
12.9279
14.7262
16.7582
19.0444
21.6024
24.4444
27.5728
31.012
34.7809
38.9054
43.3442
48.0577
52.9169
57.7286
62.2114
66.0288
69.5646
75.0191
83.9696
85.7277
78.2095
54.5381
20.608
4.23807
0.61823
0.0765038
0.0127287
0.00671913
0.0063171
0.00635206
0.00640787
0.00646851
0.00651213
0.00674451
0.00690355
0.00675047
0.00637431
0.00640525
0.00648008
0.0065636
0.00665746
0.00676444
0.00688853
0.00703567
0.00721498
0.00744104
0.0077376
0.00814163
0.00869636
2.00175e-05
6.07078e-05
0.00071328
0.00414875
0.0148632
0.0393226
0.0844912
0.155944
0.256865
0.388331
0.55036
0.742882
0.958943
1.19644
1.46799
1.77896
2.13426
2.53832
2.99687
3.51698
4.10921
4.78553
5.56129
6.44892
7.46234
8.61198
9.90814
11.3557
12.9689
14.7707
16.7924
19.0601
21.6163
24.469
27.6137
31.0715
34.8607
38.9736
43.4456
48.2237
53.1928
58.1908
62.8815
66.9966
70.5762
75.2497
83.4829
88.7983
84.1248
66.1708
31.5702
7.7676
1.25372
0.162437
0.0220419
0.00749608
0.00632751
0.00630658
0.00635993
0.00641809
0.00647178
0.00661155
0.00681397
0.00692059
0.00643848
0.00634094
0.00640514
0.00648029
0.00656382
0.00665766
0.00676462
0.00688871
0.00703586
0.00721516
0.00744122
0.00773778
0.00814171
0.00869636
2.00206e-05
6.0711e-05
0.00071283
0.00414363
0.0148307
0.0392239
0.0842413
0.155432
0.255939
0.386907
0.548436
0.7405
0.956443
1.19415
1.46632
1.77892
2.13655
2.54409
3.00675
3.53105
4.12449
4.8
5.57006
6.45273
7.46035
8.60994
9.9106
11.3746
13.0046
14.82
16.8413
19.1103
21.6403
24.4926
27.6511
31.1273
34.9369
39.0736
43.5589
48.3653
53.4404
58.5803
63.5223
67.9378
71.6834
75.8708
83.1825
91.448
88.9478
75.8632
44.2838
13.3827
2.42551
0.335971
0.0425944
0.00944219
0.00643756
0.0062691
0.00631303
0.00637131
0.0064294
0.0065244
0.00666547
0.00689887
0.00660075
0.0063097
0.00633727
0.0064053
0.0064805
0.00656401
0.00665787
0.00676484
0.00688892
0.00703606
0.00721533
0.00744139
0.00773796
0.00814181
0.00869644
2.00292e-05
6.07418e-05
0.000712801
0.0041406
0.0148124
0.0391437
0.084048
0.155019
0.255198
0.38567
0.546625
0.738144
0.953827
1.19123
1.46363
1.777
2.13674
2.54692
3.01384
3.54271
4.1413