/*--------------------------------*- C++ -*----------------------------------*\
| =========                 |                                                 |
| \\      /  F ield         | OpenFOAM: The Open Source CFD Toolbox           |
|  \\    /   O peration     | Version:  v2012                                 |
|   \\  /    A nd           | Website:  www.openfoam.com                      |
|    \\/     M anipulation  |                                                 |
\*---------------------------------------------------------------------------*/
FoamFile
{
    version     2.0;
    format      ascii;
    class       volScalarField;
    location    "0";
    object      yPlus;
}
// * * * * * * * * * * * * * * * * * * * * * * * * * * * * * * * * * * * * * //

dimensions      [0 0 0 0 0 0 0];


internalField   uniform 0;

boundaryField
{
    base
    {
        type            calculated;
        value           nonuniform List<scalar> 
398
(
0.380797
0.0626036
0.0305257
0.0275875
0.0284359
0.0295048
0.0303284
0.0307321
0.0310216
0.0311355
0.0310312
0.0308132
0.0306044
0.0303465
0.0300623
0.0297996
0.0295328
0.0292327
0.0289296
0.0286614
0.0284158
0.028162
0.0279009
0.0276622
0.0274383
0.0272158
0.0269947
0.0267869
0.0265887
0.0263911
0.0261996
0.0260313
0.0258681
0.0256992
0.025525
0.0253708
0.0252472
0.0251259
0.024991
0.0248512
0.0247274
0.0246352
0.0245551
0.0244603
0.0243471
0.0242318
0.0241328
0.0240661
0.0240408
0.0240155
0.0239756
0.0239079
0.0238074
0.0236988
0.0235933
0.023507
0.0234505
0.023431
0.0234392
0.0234589
0.0234769
0.0234761
0.0234581
0.0234206
0.0233616
0.0232871
0.0232027
0.0231168
0.0230323
0.0229541
0.0228853
0.0228286
0.0227834
0.0227505
0.022722
0.0227056
0.0226957
0.0226925
0.0226942
0.0226989
0.0227057
0.0227159
0.0227206
0.0227256
0.0227321
0.0227394
0.0227196
0.0214304
0.00915957
0.0186705
0.0301352
0.0323859
0.0341051
0.0353474
0.0369121
0.0384194
0.0398589
0.0414189
0.043064
0.0447297
0.0464302
0.0481124
0.0497447
0.0513014
0.0527646
0.0541472
0.0554582
0.0566997
0.0578904
0.059049
0.0602273
0.0614434
0.0627455
0.0641475
0.065674
0.0673378
0.0691546
0.0711391
0.0732934
0.0756141
0.0781122
0.0808004
0.0836674
0.08668
0.0898339
0.093112
0.0965179
0.100085
0.103739
0.107185
0.110454
0.113759
0.116916
0.119819
0.122385
0.124522
0.126169
0.127158
0.127191
0.126102
0.123621
0.119377
0.112832
0.103284
0.089955
0.0724104
0.0516982
0.030163
0.02476
0.0205192
0.0125075
0.0120754
0.0157328
0.0218047
0.0299767
0.0395497
0.0496856
0.0597551
0.0693773
0.0783507
0.0866111
0.0941133
0.100893
0.107042
0.112736
0.117937
0.122724
0.127127
0.131511
0.135511
0.13919
0.142807
0.146452
0.149986
0.153463
0.157034
0.160531
0.163826
0.167137
0.170659
0.174474
0.178394
0.182087
0.185902
0.190133
0.194488
0.198911
0.203586
0.20851
0.213713
0.219358
0.225204
0.231376
0.237967
0.244836
0.252507
0.260592
0.269392
0.278934
0.288757
0.299349
0.311038
0.324185
0.338044
0.352613
0.368513
0.385929
0.408346
0.430646
0.452229
0.478691
0.509407
0.546342
0.585032
0.624654
0.673627
0.729778
0.795663
0.872919
0.965445
1.07483
1.20649
1.35037
1.5106
1.70436
1.94111
2.28433
2.75217
3.3355
3.9452
4.71169
5.61793
6.56414
7.60678
8.76085
9.97756
11.3229
12.8788
14.4591
16.348
18.4993
20.7829
22.9958
25.1131
27.5438
29.9107
31.9305
33.4898
34.1427
34.0874
31.7443
29.2618
26.6616
24.3738
22.3945
20.9213
19.7007
18.7005
17.8138
16.8913
16.2386
15.7269
15.2237
15.1323
15.2946
15.2537
15.1607
14.9982
14.7214
14.7486
14.8785
14.9324
14.9567
14.9153
14.915
14.9536
14.8684
14.709
14.634
14.5964
14.6521
14.6298
14.5112
14.2863
14.225
14.2111
13.9828
14.245
14.2355
14.1015
14.071
14.0142
14.0484
13.8568
14.3057
14.1127
14.0045
13.9764
13.7861
13.9391
13.6768
12.833
13.6683
13.546
13.3594
13.278
12.5876
12.4814
12.4552
12.3603
12.3919
12.4572
13.1698
12.7598
11.8207
11.7416
12.9502
13.4688
13.2572
12.9033
12.321
11.8282
11.862
11.7785
12.1365
12.454
12.0102
11.5763
11.9529
11.985
11.3111
10.9841
10.9208
11.3809
10.8263
11.5289
11.0894
10.7535
10.7829
11.1954
11.4519
11.4628
10.0437
10.3552
10.3776
11.3655
11.2898
10.5946
11.178
11.3473
11.0152
10.6689
10.24
11.325
11.212
11.3164
10.8209
10.7071
11.4448
11.3888
10.7286
10.6322
10.6106
10.5837
9.47922
10.1919
10.4664
10.6931
10.6297
9.82927
9.81645
10.2577
9.7973
10.4641
10.6139
9.83444
10.0028
9.94627
10.3125
9.23356
9.76471
10.5836
10.8116
10.894
10.1918
9.86576
10.3051
10.7858
10.3698
10.3491
10.7096
10.8996
9.99083
9.65668
9.66389
10.0951
10.0941
9.86096
)
;
    }
    frontAndBack
    {
        type            empty;
    }
    inlet
    {
        type            calculated;
        value           uniform 0;
    }
    outlet
    {
        type            calculated;
        value           uniform 0;
    }
    top
    {
        type            calculated;
        value           uniform 0;
    }
}


// ************************************************************************* //
