# p  FACE_DATA 80
# x  y  z  p
-0.275972 0 0.05 671.719
-0.22368 0 0.05 671.719
-0.181118 0 0.05 671.719
-0.146477 0 0.05 671.719
-0.118282 0 0.05 671.719
-0.095333 0 0.05 671.719
-0.0766546 0 0.05 671.719
-0.061452 0 0.05 671.719
-0.0490783 0 0.05 671.719
-0.0390072 0 0.05 671.719
-0.0308101 0 0.05 671.719
-0.0241383 0 0.05 671.719
-0.0187081 0 0.05 671.719
-0.0142883 0 0.05 671.719
-0.0106909 0 0.05 671.719
-0.00776298 0 0.05 671.719
-0.00537988 0 0.05 671.719
-0.00344023 0 0.05 671.719
-0.00186151 0 0.05 671.72
-0.000576564 0 0.05 669.994
0.000597823 0 0.05 1192.18
0.00183445 0 0.05 1019.88
0.00315586 0 0.05 889.298
0.00456785 0 0.05 847.482
0.00607663 0 0.05 808.334
0.00768885 0 0.05 785.819
0.00941159 0 0.05 771.018
0.0112524 0 0.05 759.689
0.0132195 0 0.05 750.372
0.0153213 0 0.05 740.66
0.0175673 0 0.05 728.714
0.0199673 0 0.05 712.945
0.0225317 0 0.05 706.756
0.025272 0 0.05 700.899
0.0282001 0 0.05 700.105
0.031329 0 0.05 704.717
0.0346723 0 0.05 711.187
0.0382448 0 0.05 715.824
0.0420623 0 0.05 718.685
0.0461414 0 0.05 720.673
0.0505002 0 0.05 721.661
0.0551578 0 0.05 721.762
0.0601347 0 0.05 721
0.0654528 0 0.05 720.175
0.0711354 0 0.05 719.237
0.0772076 0 0.05 718.341
0.0836961 0 0.05 717.393
0.0906293 0 0.05 716.371
0.0980379 0 0.05 715.429
0.105954 0 0.05 714.566
0.114413 0 0.05 713.722
0.123453 0 0.05 712.952
0.133111 0 0.05 712.309
0.143432 0 0.05 711.695
0.15446 0 0.05 711.034
0.166245 0 0.05 710.342
0.178837 0 0.05 709.657
0.192293 0 0.05 708.999
0.20667 0 0.05 708.362
0.222034 0 0.05 707.745
0.238451 0 0.05 707.157
0.255993 0 0.05 706.605
0.274738 0 0.05 706.076
0.294767 0 0.05 705.552
0.31617 0 0.05 705.025
0.33904 0 0.05 704.493
0.363478 0 0.05 703.96
0.389591 0 0.05 703.438
0.417495 0 0.05 702.943
0.447311 0 0.05 702.475
0.479171 0 0.05 702.004
0.513216 0 0.05 701.532
0.549594 0 0.05 701.078
0.588466 0 0.05 700.633
0.630002 0 0.05 700.195
0.674387 0 0.05 699.775
0.721814 0 0.05 699.386
0.772492 0 0.05 698.937
0.826644 0 0.05 698.722
0.884509 0 0.05 697.893
