# wallShearStress  FACE_DATA 80
# x  y  z  wallShearStress_x  wallShearStress_y  wallShearStress_z
-0.275972 0 0.05 -1.53214e-12 -9.60166e-10 0
-0.22368 0 0.05 -6.41025e-12 -1.11936e-08 0
-0.181118 0 0.05 -1.88058e-11 -4.36434e-08 0
-0.146477 0 0.05 -3.93957e-11 -1.14604e-07 0
-0.118282 0 0.05 -5.69276e-11 -2.22872e-07 0
-0.095333 0 0.05 -6.64626e-11 -3.30016e-07 0
-0.0766546 0 0.05 2.26644e-11 -4.28359e-07 0
-0.061452 0 0.05 1.61972e-10 -2.96816e-07 0
-0.0490783 0 0.05 3.79051e-10 -1.04321e-07 0
-0.0390072 0 0.05 8.02172e-10 3.09592e-07 0
-0.0308101 0 0.05 1.38175e-09 9.55518e-07 0
-0.0241383 0 0.05 2.04724e-09 1.80768e-06 0
-0.0187081 0 0.05 2.8652e-09 2.77572e-06 0
-0.0142883 0 0.05 3.20035e-09 3.8806e-06 0
-0.0106909 0 0.05 2.41428e-09 4.7021e-06 0
-0.00776298 0 0.05 6.09801e-10 5.09003e-06 0
-0.00537988 0 0.05 3.00042e-10 4.9915e-06 0
-0.00344023 0 0.05 -8.14323e-08 2.61554e-06 0
-0.00186151 0 0.05 -0.000427839 -0.000133386 0
-0.000576564 0 0.05 -0.0367166 -0.521155 0
0.000597823 0 0.05 -261.68 -26.0389 0
0.00183445 0 0.05 -90.9533 -2.8471 0
0.00315586 0 0.05 -55.2389 -0.565372 0
0.00456785 0 0.05 -41.4402 -0.21102 0
0.00607663 0 0.05 -34.2711 -0.143636 0
0.00768885 0 0.05 -29.242 -0.0878568 0
0.00941159 0 0.05 -25.7654 -0.0576492 0
0.0112524 0 0.05 -23.2176 -0.0409979 0
0.0132195 0 0.05 -21.331 -0.0285242 0
0.0153213 0 0.05 -20.0342 -0.0190178 0
0.0175673 0 0.05 -19.2849 -0.011838 0
0.0199673 0 0.05 -18.8255 -0.0170253 0
0.0225317 0 0.05 -18.7757 -0.00764991 0
0.025272 0 0.05 -19.2327 -0.0054288 0
0.0282001 0 0.05 -20.1786 -0.00100312 0
0.031329 0 0.05 -21.0997 -0.00116568 0
0.0346723 0 0.05 -21.8705 -0.00999573 0
0.0382448 0 0.05 -22.2312 -0.0209589 0
0.0420623 0 0.05 -22.3013 -0.020757 0
0.0461414 0 0.05 -22.2037 -0.0230164 0
0.0505002 0 0.05 -21.9385 -0.0248207 0
0.0551578 0 0.05 -21.5705 -0.0257854 0
0.0601347 0 0.05 -21.1804 -0.0289993 0
0.0654528 0 0.05 -20.7665 -0.032181 0
0.0711354 0 0.05 -20.367 -0.0329645 0
0.0772076 0 0.05 -19.9788 -0.0343125 0
0.0836961 0 0.05 -19.6012 -0.0377442 0
0.0906293 0 0.05 -19.238 -0.0402865 0
0.0980379 0 0.05 -18.8918 -0.0408258 0
0.105954 0 0.05 -18.5582 -0.0418803 0
0.114413 0 0.05 -18.2323 -0.044574 0
0.123453 0 0.05 -17.9182 -0.0468167 0
0.133111 0 0.05 -17.6195 -0.0479181 0
0.143432 0 0.05 -17.3319 -0.0491889 0
0.15446 0 0.05 -17.0507 -0.0510485 0
0.166245 0 0.05 -16.7753 -0.0529603 0
0.178837 0 0.05 -16.5064 -0.0546402 0
0.192293 0 0.05 -16.2444 -0.056153 0
0.20667 0 0.05 -15.989 -0.0576178 0
0.222034 0 0.05 -15.7395 -0.0591697 0
0.238451 0 0.05 -15.4956 -0.0607348 0
0.255993 0 0.05 -15.2576 -0.0622014 0
0.274738 0 0.05 -15.0248 -0.0636903 0
0.294767 0 0.05 -14.7967 -0.0651799 0
0.31617 0 0.05 -14.5727 -0.0667184 0
0.33904 0 0.05 -14.3522 -0.0682843 0
0.363478 0 0.05 -14.1353 -0.0698236 0
0.389591 0 0.05 -13.9221 -0.0712951 0
0.417495 0 0.05 -13.7131 -0.0726721 0
0.447311 0 0.05 -13.5084 -0.0739684 0
0.479171 0 0.05 -13.3077 -0.0751073 0
0.513216 0 0.05 -13.1102 -0.076233 0
0.549594 0 0.05 -12.9162 -0.0773282 0
0.588466 0 0.05 -12.7255 -0.0783871 0
0.630002 0 0.05 -12.5382 -0.0793636 0
0.674387 0 0.05 -12.3538 -0.080306 0
0.721814 0 0.05 -12.1744 -0.0811134 0
0.772492 0 0.05 -11.9926 -0.0819279 0
0.826644 0 0.05 -11.8264 -0.082851 0
0.884509 0 0.05 -11.5467 -0.0832156 0
