# wallHeatFlux  FACE_DATA 398
# x  y  z  wallHeatFlux
-0.7975 0 0.025 -653671
-0.79239 0 0.025 -120055
-0.787056 0 0.025 -71286.8
-0.781492 0 0.025 -64428.9
-0.775691 0 0.025 -65899.9
-0.769649 0 0.025 -66722.1
-0.763362 0 0.025 -67312.6
-0.756822 0 0.025 -67232.8
-0.750025 0 0.025 -66721.9
-0.742968 0 0.025 -65956.3
-0.735648 0 0.025 -65029.6
-0.72806 0 0.025 -64064.6
-0.720203 0 0.025 -63121.7
-0.712076 0 0.025 -62232.9
-0.703677 0 0.025 -61406.9
-0.695006 0 0.025 -60644.1
-0.686065 0 0.025 -59923.3
-0.676855 0 0.025 -59255.3
-0.667379 0 0.025 -58548.5
-0.65764 0 0.025 -57857.6
-0.647644 0 0.025 -57275.5
-0.637397 0 0.025 -56750.9
-0.626906 0 0.025 -56130.8
-0.616179 0 0.025 -55607.3
-0.605224 0 0.025 -55105.6
-0.594054 0 0.025 -54639.4
-0.582678 0 0.025 -54131.8
-0.57111 0 0.025 -53670.4
-0.559364 0 0.025 -53229.4
-0.547454 0 0.025 -52849.7
-0.535396 0 0.025 -52430.7
-0.523205 0 0.025 -52028.7
-0.510901 0 0.025 -51637.6
-0.4985 0 0.025 -51258
-0.486021 0 0.025 -50935.9
-0.473483 0 0.025 -50638.5
-0.460905 0 0.025 -50348.9
-0.448308 0 0.025 -50026
-0.435709 0 0.025 -49685
-0.42313 0 0.025 -49367.7
-0.41059 0 0.025 -49124.6
-0.39811 0 0.025 -48955.1
-0.385706 0 0.025 -48751.2
-0.373398 0 0.025 -48498.9
-0.361205 0 0.025 -48234.8
-0.349141 0 0.025 -47968.5
-0.337226 0 0.025 -47729
-0.325475 0 0.025 -47542.6
-0.313901 0 0.025 -47404.3
-0.30252 0 0.025 -47308.1
-0.291343 0 0.025 -47180.9
-0.280382 0 0.025 -47010.7
-0.269646 0 0.025 -46818.2
-0.259148 0 0.025 -46620.8
-0.248893 0 0.025 -46441.4
-0.23889 0 0.025 -46283.9
-0.229143 0 0.025 -46152.8
-0.219659 0 0.025 -46034.1
-0.210441 0 0.025 -45925.9
-0.201491 0 0.025 -45805
-0.192812 0 0.025 -45681.8
-0.184405 0 0.025 -45552.6
-0.176269 0 0.025 -45442.8
-0.168404 0 0.025 -45351
-0.160808 0 0.025 -45275.4
-0.15348 0 0.025 -45218.9
-0.146415 0 0.025 -45195.4
-0.13961 0 0.025 -45175.8
-0.133063 0 0.025 -45152.9
-0.126767 0 0.025 -45130.8
-0.120718 0 0.025 -45109.4
-0.11491 0 0.025 -45072.7
-0.109339 0 0.025 -45025.9
-0.103997 0 0.025 -44967.7
-0.0988805 0 0.025 -44897.7
-0.0939808 0 0.025 -44824.9
-0.0892928 0 0.025 -44748.2
-0.0848096 0 0.025 -44666.3
-0.0805248 0 0.025 -44584.8
-0.0764316 0 0.025 -44503.6
-0.0725237 0 0.025 -44422.5
-0.0687943 0 0.025 -44342.1
-0.065237 0 0.025 -44277.2
-0.0618454 0 0.025 -44207.9
-0.058613 0 0.025 -44143.1
-0.0555337 0 0.025 -44090.1
-0.0526013 0 0.025 -44036.5
-0.0498099 0 0.025 -43988.4
-0.0471536 0 0.025 -43945.8
-0.0446266 0 0.025 -43908.5
-0.0422235 0 0.025 -43871.2
-0.039939 0 0.025 -43844.7
-0.0377676 0 0.025 -43823.1
-0.0357044 0 0.025 -43808
-0.0337445 0 0.025 -43770.3
-0.0318832 0 0.025 -42655.6
-0.0301159 0 0.025 -35118.4
-0.0284383 0 0.025 -28817.8
-0.0268461 0 0.025 -44269.7
-0.0253353 0 0.025 -58513.5
-0.023902 0 0.025 -67622.7
-0.0225426 0 0.025 -74158.6
-0.0212532 0 0.025 -79792.5
-0.0200306 0 0.025 -84711.3
-0.0188715 0 0.025 -88913.4
-0.0177728 0 0.025 -92655.3
-0.0167313 0 0.025 -96081.7
-0.0157444 0 0.025 -99246.2
-0.0148092 0 0.025 -102195
-0.0139232 0 0.025 -104888
-0.0130838 0 0.025 -107295
-0.0122887 0 0.025 -109422
-0.0115356 0 0.025 -111302
-0.0108223 0 0.025 -112965
-0.0101469 0 0.025 -114452
-0.00950727 0 0.025 -115791
-0.00890168 0 0.025 -117034
-0.00832835 0 0.025 -118242
-0.00778557 0 0.025 -119452
-0.00727176 0 0.025 -120708
-0.0067854 0 0.025 -122030
-0.00632507 0 0.025 -123432
-0.00588937 0 0.025 -124918
-0.00547703 0 0.025 -126479
-0.0050868 0 0.025 -128121
-0.00471753 0 0.025 -129851
-0.0043681 0 0.025 -131679
-0.00403746 0 0.025 -133609
-0.00372461 0 0.025 -135620
-0.0034286 0 0.025 -137737
-0.00314855 0 0.025 -139999
-0.0028836 0 0.025 -142442
-0.00263294 0 0.025 -144968
-0.00239581 0 0.025 -147388
-0.0021715 0 0.025 -149957
-0.00195929 0 0.025 -152650
-0.00175856 0 0.025 -155433
-0.00156869 0 0.025 -158304
-0.00138908 0 0.025 -161280
-0.0012192 0 0.025 -164296
-0.00105853 0 0.025 -167383
-0.000906546 0 0.025 -170498
-0.000762803 0 0.025 -173544
-0.000626848 0 0.025 -176205
-0.000498265 0 0.025 -177641
-0.000376656 0 0.025 -176062
-0.000261642 0 0.025 -167827
-0.00015287 0 0.025 -145888
-5e-05 0 0.025 -94775.1
4.14519e-05 2.79596e-05 0.025 -67994.3
0.000125371 8.45641e-05 0.025 -81563.5
0.000211347 0.000142556 0.025 -96608.9
0.000299429 0.000201968 0.025 -107680
0.000389669 0.000262835 0.025 -117090
0.000482118 0.000325193 0.025 -125981
0.000576831 0.000389077 0.025 -134320
0.000673861 0.000454524 0.025 -141883
0.000773265 0.000521574 0.025 -148612
0.0008751 0.000590262 0.025 -154566
0.000979426 0.000660632 0.025 -159850
0.0010863 0.000732721 0.025 -164575
0.00119579 0.000806572 0.025 -168944
0.00130795 0.000882227 0.025 -172986
0.00142285 0.00095973 0.025 -176754
0.00154056 0.00103912 0.025 -180379
0.00166115 0.00112046 0.025 -183880
0.00178467 0.00120378 0.025 -187341
0.00191121 0.00128913 0.025 -190793
0.00204083 0.00137656 0.025 -194190
0.00217362 0.00146612 0.025 -197631
0.00230964 0.00155787 0.025 -201129
0.00244897 0.00165185 0.025 -204646
0.00259169 0.00174812 0.025 -208221
0.00273789 0.00184673 0.025 -211902
0.00288765 0.00194774 0.025 -215717
0.00304105 0.00205122 0.025 -219616
0.00319818 0.00215719 0.025 -223640
0.00335912 0.00226575 0.025 -227845
0.00352397 0.00237695 0.025 -232162
0.00369283 0.00249085 0.025 -236684
0.00386579 0.00260751 0.025 -241384
0.00404294 0.00272699 0.025 -246311
0.00422438 0.00284938 0.025 -251485
0.00441022 0.00297474 0.025 -256921
0.00460056 0.00310312 0.025 -262617
0.00479552 0.00323462 0.025 -268583
0.00499519 0.0033693 0.025 -274925
0.00519968 0.00350723 0.025 -281540
0.00540911 0.00364849 0.025 -288592
0.00562361 0.00379318 0.025 -296063
0.00584329 0.00394134 0.025 -303960
0.00606826 0.00409309 0.025 -312408
0.00629865 0.00424849 0.025 -321255
0.0065346 0.00440764 0.025 -330665
0.00677623 0.00457063 0.025 -340728
0.00702368 0.00473753 0.025 -351352
0.00727707 0.00490844 0.025 -362812
0.00753655 0.00508347 0.025 -375141
0.00780227 0.00526269 0.025 -388301
0.00807436 0.00544622 0.025 -402406
0.00835298 0.00563415 0.025 -417672
0.00863826 0.00582659 0.025 -434059
0.00893038 0.00602362 0.025 -451524
0.00922949 0.00622537 0.025 -470808
0.00953574 0.00643195 0.025 -491728
0.00984929 0.00664345 0.025 -515232
0.0101703 0.00686 0.025 -539472
0.0104991 0.00708171 0.025 -566703
0.0108356 0.00730871 0.025 -599493
0.0111801 0.0075411 0.025 -635499
0.0115329 0.00777902 0.025 -673603
0.011894 0.00802259 0.025 -718080
0.0122637 0.00827194 0.025 -762978
0.0126421 0.00852719 0.025 -807758
0.0130295 0.0087885 0.025 -855861
0.013426 0.00905597 0.025 -902580
0.013832 0.00932978 0.025 -943533
0.0142475 0.00961003 0.025 -987257
0.0146727 0.0098969 0.025 -1.03079e+06
0.0151081 0.0101905 0.025 -1.07326e+06
0.0155536 0.010491 0.025 -1.1215e+06
0.0160097 0.0107986 0.025 -1.16987e+06
0.0164764 0.0111134 0.025 -1.2222e+06
0.016954 0.0114356 0.025 -1.27747e+06
0.0174427 0.0117653 0.025 -1.3314e+06
0.0179429 0.0121026 0.025 -1.38955e+06
0.0184548 0.0124479 0.025 -1.45838e+06
0.0189786 0.0128013 0.025 -1.50774e+06
0.0195146 0.0131628 0.025 -1.55837e+06
0.020063 0.0135327 0.025 -1.61876e+06
0.0206242 0.0139112 0.025 -1.65833e+06
0.0211983 0.0142984 0.025 -1.68822e+06
0.0217857 0.0146947 0.025 -1.72474e+06
0.0223867 0.0151 0.025 -1.75645e+06
0.0230015 0.0155147 0.025 -1.78369e+06
0.0236304 0.0159389 0.025 -1.81715e+06
0.0242738 0.0163729 0.025 -1.82325e+06
0.0249318 0.0168167 0.025 -1.84458e+06
0.025605 0.0172708 0.025 -1.86217e+06
0.0262935 0.0177352 0.025 -1.84691e+06
0.0269977 0.0182102 0.025 -1.82824e+06
0.0277178 0.0186959 0.025 -1.79499e+06
0.0284544 0.0191927 0.025 -1.80754e+06
0.0292075 0.0197008 0.025 -1.73613e+06
0.0299777 0.0202203 0.025 -1.6866e+06
0.0307653 0.0207514 0.025 -1.64454e+06
0.0315704 0.0212945 0.025 -1.61031e+06
0.0323937 0.0218499 0.025 -1.58193e+06
0.0332354 0.0224176 0.025 -1.55374e+06
0.0340959 0.022998 0.025 -1.52919e+06
0.0349755 0.0235913 0.025 -1.49548e+06
0.0358747 0.0241978 0.025 -1.49314e+06
0.0367938 0.0248178 0.025 -1.45599e+06
0.0377331 0.0254513 0.025 -1.4298e+06
0.0386932 0.0260989 0.025 -1.40897e+06
0.0396743 0.0267606 0.025 -1.38868e+06
0.0406769 0.0274369 0.025 -1.37423e+06
0.0417013 0.0281279 0.025 -1.35541e+06
0.042748 0.0288339 0.025 -1.35527e+06
0.0438175 0.0295552 0.025 -1.33948e+06
0.04491 0.0302922 0.025 -1.32135e+06
0.0460262 0.031045 0.025 -1.32531e+06
0.0471662 0.031814 0.025 -1.33162e+06
0.0483306 0.0325995 0.025 -1.31544e+06
0.0495199 0.0334016 0.025 -1.3124e+06
0.0507344 0.0342208 0.025 -1.30563e+06
0.0519746 0.0350573 0.025 -1.30517e+06
0.0532409 0.0359114 0.025 -1.31653e+06
0.0545339 0.0367835 0.025 -1.30342e+06
0.0558538 0.0376739 0.025 -1.29811e+06
0.0572012 0.0385827 0.025 -1.29555e+06
0.0585766 0.0395104 0.025 -1.29566e+06
0.0599804 0.0404573 0.025 -1.30775e+06
0.061413 0.0414236 0.025 -1.29165e+06
0.0628748 0.0424096 0.025 -1.31268e+06
0.0643665 0.0434157 0.025 -1.3114e+06
0.0658883 0.0444422 0.025 -1.29094e+06
0.0674408 0.0454894 0.025 -1.28228e+06
0.0690245 0.0465576 0.025 -1.28389e+06
0.0706398 0.0476471 0.025 -1.27429e+06
0.0722871 0.0487582 0.025 -1.26556e+06
0.0739669 0.0498912 0.025 -1.26175e+06
0.0756797 0.0510466 0.025 -1.27119e+06
0.0774258 0.0522244 0.025 -1.28631e+06
0.0792059 0.053425 0.025 -1.28524e+06
0.0810203 0.0546489 0.025 -1.30633e+06
0.0828694 0.0558961 0.025 -1.27563e+06
0.0847537 0.0571671 0.025 -1.31634e+06
0.0866737 0.0584622 0.025 -1.27513e+06
0.0886298 0.0597816 0.025 -1.27609e+06
0.0906224 0.0611256 0.025 -1.28829e+06
0.0926518 0.0624944 0.025 -1.25627e+06
0.0947185 0.0638884 0.025 -1.29948e+06
0.096823 0.065308 0.025 -1.25752e+06
0.0989659 0.0667532 0.025 -1.33895e+06
0.101147 0.0682245 0.025 -1.68406e+06
0.103367 0.0697219 0.025 -1.58522e+06
0.105626 0.0712458 0.025 -1.19368e+06
0.107926 0.0727965 0.025 -1.19239e+06
0.110265 0.074374 0.025 -1.23711e+06
0.112644 0.0759789 0.025 -1.86498e+06
0.115063 0.0776111 0.025 -1.25623e+06
0.117524 0.0792709 0.025 -1.74537e+06
0.120026 0.0809585 0.025 -1.91029e+06
0.122569 0.0826741 0.025 -1.68256e+06
0.125155 0.0844179 0.025 -1.49375e+06
0.127782 0.0861901 0.025 -1.29279e+06
0.130451 0.0879908 0.025 -1.24794e+06
0.133163 0.08982 0.025 -1.2254e+06
0.135918 0.0916781 0.025 -1.19434e+06
0.138716 0.0935651 0.025 -1.19643e+06
0.141556 0.095481 0.025 -1.20681e+06
0.14444 0.097426 0.025 -1.59344e+06
0.147367 0.0994004 0.025 -2.35496e+06
0.150337 0.101404 0.025 -1.67656e+06
0.153351 0.103437 0.025 -1.62212e+06
0.156408 0.105498 0.025 -2.25943e+06
0.159508 0.107589 0.025 -1.0309e+06
0.162651 0.10971 0.025 -1.52583e+06
0.165838 0.111859 0.025 -3.60219e+06
0.169069 0.114039 0.025 -1.64795e+06
0.172343 0.116247 0.025 -2.00094e+06
0.175659 0.118483 0.025 -1.88863e+06
0.179018 0.120749 0.025 -1.88771e+06
0.182421 0.123045 0.025 -1.9582e+06
0.185866 0.125368 0.025 -1.72018e+06
0.189353 0.12772 0.025 -1.75531e+06
0.192882 0.1301 0.025 -1.85841e+06
0.196453 0.132509 0.025 -1.75875e+06
0.200065 0.134946 0.025 -2.14371e+06
0.203718 0.13741 0.025 -1.96562e+06
0.207412 0.139901 0.025 -927968
0.211146 0.14242 0.025 -988384
0.214919 0.144965 0.025 -1.61639e+06
0.218732 0.147537 0.025 -988152
0.222583 0.150134 0.025 -1.93386e+06
0.226472 0.152757 0.025 -980353
0.230399 0.155406 0.025 -1.84104e+06
0.234362 0.15808 0.025 -1.73326e+06
0.238362 0.160777 0.025 -2.34195e+06
0.242396 0.163498 0.025 -1.97181e+06
0.246466 0.166244 0.025 -2.12933e+06
0.250569 0.169012 0.025 -933047
0.254706 0.171801 0.025 -1.53125e+06
0.258874 0.174613 0.025 -1.5297e+06
0.263074 0.177446 0.025 -1.94356e+06
0.267304 0.180299 0.025 -1.57606e+06
0.271564 0.183172 0.025 -945137
0.275852 0.186064 0.025 -1.62229e+06
0.280168 0.188975 0.025 -921623
0.28451 0.191904 0.025 -1.64895e+06
0.288876 0.19485 0.025 -2.25044e+06
0.293268 0.197812 0.025 -1.61359e+06
0.297683 0.20079 0.025 -1.90309e+06
0.302119 0.203782 0.025 -2.21965e+06
0.306577 0.206788 0.025 -1.52969e+06
0.311054 0.209808 0.025 -1.59078e+06
0.315549 0.212841 0.025 -1.15969e+06
0.320063 0.215885 0.025 -1.98697e+06
0.324591 0.218939 0.025 -1.43041e+06
0.329134 0.222003 0.025 -1.40621e+06
0.333691 0.225077 0.025 -2.19448e+06
0.33826 0.228159 0.025 -1.78807e+06
0.342839 0.231248 0.025 -1.82855e+06
0.347428 0.234343 0.025 -871434
0.352025 0.237444 0.025 -1.9152e+06
0.356628 0.240548 0.025 -1.40663e+06
0.361237 0.243658 0.025 -1.14765e+06
0.36585 0.246769 0.025 -2.49152e+06
0.370465 0.249882 0.025 -1.0461e+06
0.375082 0.252996 0.025 -1.44101e+06
0.379698 0.25611 0.025 -2.53095e+06
0.384313 0.259223 0.025 -1.38044e+06
0.388926 0.262333 0.025 -1.69803e+06
0.393534 0.265442 0.025 -1.40119e+06
0.398136 0.268546 0.025 -874221
0.40273 0.271645 0.025 -1.60728e+06
0.407317 0.274739 0.025 -1.6702e+06
0.411894 0.277826 0.025 -2.07194e+06
0.41646 0.280906 0.025 -834188
0.421014 0.283977 0.025 -1.57989e+06
0.425554 0.28704 0.025 -1.83833e+06
0.430079 0.290092 0.025 -1.47253e+06
0.434588 0.293133 0.025 -1.79936e+06
0.439079 0.296162 0.025 -1.26869e+06
0.443551 0.299179 0.025 -1.6457e+06
0.448004 0.302183 0.025 -1.67325e+06
0.452437 0.305172 0.025 -1.63512e+06
0.456846 0.308146 0.025 -1.52012e+06
0.461232 0.311105 0.025 -1.54463e+06
0.465593 0.314047 0.025 -1.4305e+06
0.469929 0.316971 0.025 -1.90996e+06
0.474238 0.319878 0.025 -982137
0.47852 0.322766 0.025 -1.0983e+06
0.482773 0.325635 0.025 -871709
0.486996 0.328483 0.025 -1.30815e+06
0.491189 0.331311 0.025 -1.96867e+06
0.49535 0.334118 0.025 -1.27537e+06
