# p  FACE_DATA 398
# x  y  z  p
-0.7975 0 0.025 4472.56
-0.79239 0 0.025 3681.53
-0.787056 0 0.025 2934
-0.781492 0 0.025 2838.07
-0.775691 0 0.025 2791.23
-0.769649 0 0.025 2789.75
-0.763362 0 0.025 2815.94
-0.756822 0 0.025 2838.71
-0.750025 0 0.025 2852.71
-0.742968 0 0.025 2859.41
-0.735648 0 0.025 2863.11
-0.72806 0 0.025 2863.44
-0.720203 0 0.025 2862.97
-0.712076 0 0.025 2862.28
-0.703677 0 0.025 2862.01
-0.695006 0 0.025 2860.48
-0.686065 0 0.025 2858.69
-0.676855 0 0.025 2858.78
-0.667379 0 0.025 2854.63
-0.65764 0 0.025 2850.43
-0.647644 0 0.025 2850.31
-0.637397 0 0.025 2848.19
-0.626906 0 0.025 2844.06
-0.616179 0 0.025 2844.39
-0.605224 0 0.025 2841.15
-0.594054 0 0.025 2839.44
-0.582678 0 0.025 2836.61
-0.57111 0 0.025 2835.08
-0.559364 0 0.025 2832.49
-0.547454 0 0.025 2831.79
-0.535396 0 0.025 2829.37
-0.523205 0 0.025 2827.96
-0.510901 0 0.025 2825.77
-0.4985 0 0.025 2822.6
-0.486021 0 0.025 2821.63
-0.473483 0 0.025 2821.11
-0.460905 0 0.025 2818.99
-0.448308 0 0.025 2818.08
-0.435709 0 0.025 2816.58
-0.42313 0 0.025 2813.72
-0.41059 0 0.025 2811.73
-0.39811 0 0.025 2811.46
-0.385706 0 0.025 2811.04
-0.373398 0 0.025 2809.9
-0.361205 0 0.025 2808.61
-0.349141 0 0.025 2807.8
-0.337226 0 0.025 2806.63
-0.325475 0 0.025 2804.62
-0.313901 0 0.025 2802.69
-0.30252 0 0.025 2801.26
-0.291343 0 0.025 2800.68
-0.280382 0 0.025 2800.59
-0.269646 0 0.025 2800.92
-0.259148 0 0.025 2800.82
-0.248893 0 0.025 2800.63
-0.23889 0 0.025 2799.67
-0.229143 0 0.025 2798.47
-0.219659 0 0.025 2796.8
-0.210441 0 0.025 2795.29
-0.201491 0 0.025 2793.98
-0.192812 0 0.025 2793.07
-0.184405 0 0.025 2792.07
-0.176269 0 0.025 2791.49
-0.168404 0 0.025 2790.95
-0.160808 0 0.025 2790.87
-0.15348 0 0.025 2790.94
-0.146415 0 0.025 2791.09
-0.13961 0 0.025 2790.92
-0.133063 0 0.025 2790.59
-0.126767 0 0.025 2790.02
-0.120718 0 0.025 2789.49
-0.11491 0 0.025 2788.86
-0.109339 0 0.025 2788.25
-0.103997 0 0.025 2787.55
-0.0988805 0 0.025 2786.84
-0.0939808 0 0.025 2786.11
-0.0892928 0 0.025 2785.45
-0.0848096 0 0.025 2784.91
-0.0805248 0 0.025 2784.56
-0.0764316 0 0.025 2784.38
-0.0725237 0 0.025 2784.34
-0.0687943 0 0.025 2784.43
-0.065237 0 0.025 2784.57
-0.0618454 0 0.025 2784.76
-0.058613 0 0.025 2784.97
-0.0555337 0 0.025 2785.21
-0.0526013 0 0.025 2785.44
-0.0498099 0 0.025 2785.66
-0.0471536 0 0.025 2785.85
-0.0446266 0 0.025 2786.02
-0.0422235 0 0.025 2786.15
-0.039939 0 0.025 2786.26
-0.0377676 0 0.025 2786.33
-0.0357044 0 0.025 2786.36
-0.0337445 0 0.025 2786.55
-0.0318832 0 0.025 2786.15
-0.0301159 0 0.025 2815.09
-0.0284383 0 0.025 3296.02
-0.0268461 0 0.025 4718.41
-0.0253353 0 0.025 6019.21
-0.023902 0 0.025 6896.73
-0.0225426 0 0.025 7524.63
-0.0212532 0 0.025 8012.25
-0.0200306 0 0.025 8427.38
-0.0188715 0 0.025 8788.36
-0.0177728 0 0.025 9103.55
-0.0167313 0 0.025 9380.71
-0.0157444 0 0.025 9629.1
-0.0148092 0 0.025 9852.6
-0.0139232 0 0.025 10059.2
-0.0130838 0 0.025 10251.1
-0.0122887 0 0.025 10429.6
-0.0115356 0 0.025 10595.5
-0.0108223 0 0.025 10749.8
-0.0101469 0 0.025 10893.2
-0.00950727 0 0.025 11025.6
-0.00890168 0 0.025 11147
-0.00832835 0 0.025 11257.2
-0.00778557 0 0.025 11357
-0.00727176 0 0.025 11447
-0.0067854 0 0.025 11528.4
-0.00632507 0 0.025 11602.4
-0.00588937 0 0.025 11670.5
-0.00547703 0 0.025 11734.4
-0.0050868 0 0.025 11795.9
-0.00471753 0 0.025 11856.4
-0.0043681 0 0.025 11917.2
-0.00403746 0 0.025 11980.2
-0.00372461 0 0.025 12046.7
-0.0034286 0 0.025 12117
-0.00314855 0 0.025 12191.5
-0.0028836 0 0.025 12272.5
-0.00263294 0 0.025 12363.7
-0.00239581 0 0.025 12454.9
-0.0021715 0 0.025 12551.8
-0.00195929 0 0.025 12653.8
-0.00175856 0 0.025 12760.2
-0.00156869 0 0.025 12870.2
-0.00138908 0 0.025 12982.8
-0.0012192 0 0.025 13097.2
-0.00105853 0 0.025 13212
-0.000906546 0 0.025 13325.5
-0.000762803 0 0.025 13434.7
-0.000626848 0 0.025 13535.6
-0.000498265 0 0.025 13621.7
-0.000376656 0 0.025 13684.6
-0.000261642 0 0.025 13717.1
-0.00015287 0 0.025 13726.3
-5e-05 0 0.025 13811.8
4.14519e-05 2.79596e-05 0.025 13402.1
0.000125371 8.45641e-05 0.025 13495.7
0.000211347 0.000142556 0.025 13463.1
0.000299429 0.000201968 0.025 13396.5
0.000389669 0.000262835 0.025 13318.1
0.000482118 0.000325193 0.025 13238.2
0.000576831 0.000389077 0.025 13162.7
0.000673861 0.000454524 0.025 13095.4
0.000773265 0.000521574 0.025 13038.9
0.0008751 0.000590262 0.025 12994.7
0.000979426 0.000660632 0.025 12964.5
0.0010863 0.000732721 0.025 12944.8
0.00119579 0.000806572 0.025 12940.2
0.00130795 0.000882227 0.025 12949.2
0.00142285 0.00095973 0.025 12970.1
0.00154056 0.00103912 0.025 13002.7
0.00166115 0.00112046 0.025 13046.6
0.00178467 0.00120378 0.025 13101.5
0.00191121 0.00128913 0.025 13166
0.00204083 0.00137656 0.025 13240.9
0.00217362 0.00146612 0.025 13324.8
0.00230964 0.00155787 0.025 13418.4
0.00244897 0.00165185 0.025 13520.1
0.00259169 0.00174812 0.025 13631.2
0.00273789 0.00184673 0.025 13750.8
0.00288765 0.00194774 0.025 13878.9
0.00304105 0.00205122 0.025 14015.9
0.00319818 0.00215719 0.025 14161.8
0.00335912 0.00226575 0.025 14316.3
0.00352397 0.00237695 0.025 14480.2
0.00369283 0.00249085 0.025 14653.4
0.00386579 0.00260751 0.025 14836.5
0.00404294 0.00272699 0.025 15029.6
0.00422438 0.00284938 0.025 15233.4
0.00441022 0.00297474 0.025 15448.5
0.00460056 0.00310312 0.025 15675.6
0.00479552 0.00323462 0.025 15915.4
0.00499519 0.0033693 0.025 16168.4
0.00519968 0.00350723 0.025 16436.2
0.00540911 0.00364849 0.025 16719.2
0.00562361 0.00379318 0.025 17018.7
0.00584329 0.00394134 0.025 17336
0.00606826 0.00409309 0.025 17672.2
0.00629865 0.00424849 0.025 18028.7
0.0065346 0.00440764 0.025 18407.6
0.00677623 0.00457063 0.025 18809.8
0.00702368 0.00473753 0.025 19238.1
0.00727707 0.00490844 0.025 19694
0.00753655 0.00508347 0.025 20179.9
0.00780227 0.00526269 0.025 20698.4
0.00807436 0.00544622 0.025 21251.7
0.00835298 0.00563415 0.025 21843
0.00863826 0.00582659 0.025 22475
0.00893038 0.00602362 0.025 23151.2
0.00922949 0.00622537 0.025 23874.2
0.00953574 0.00643195 0.025 24648.5
0.00984929 0.00664345 0.025 25476.8
0.0101703 0.00686 0.025 26365.9
0.0104991 0.00708171 0.025 27317.2
0.0108356 0.00730871 0.025 28337.9
0.0111801 0.0075411 0.025 29434.3
0.0115329 0.00777902 0.025 30612.7
0.011894 0.00802259 0.025 31878.1
0.0122637 0.00827194 0.025 33245.3
0.0126421 0.00852719 0.025 34719.7
0.0130295 0.0087885 0.025 36308.2
0.013426 0.00905597 0.025 38025
0.013832 0.00932978 0.025 39880.5
0.0142475 0.00961003 0.025 41884.2
0.0146727 0.0098969 0.025 44044.2
0.0151081 0.0101905 0.025 46376.2
0.0155536 0.010491 0.025 48895.7
0.0160097 0.0107986 0.025 51618.1
0.0164764 0.0111134 0.025 54549
0.016954 0.0114356 0.025 57714.5
0.0174427 0.0117653 0.025 61121.8
0.0179429 0.0121026 0.025 64795
0.0184548 0.0124479 0.025 68749.3
0.0189786 0.0128013 0.025 73025.6
0.0195146 0.0131628 0.025 77675
0.020063 0.0135327 0.025 82729.7
0.0206242 0.0139112 0.025 88276.9
0.0211983 0.0142984 0.025 94427.5
0.0217857 0.0146947 0.025 101271
0.0223867 0.0151 0.025 108867
0.0230015 0.0155147 0.025 117153
0.0236304 0.0159389 0.025 126184
0.0242738 0.0163729 0.025 135795
0.0249318 0.0168167 0.025 145598
0.025605 0.0172708 0.025 154795
0.0262935 0.0177352 0.025 162444
0.0269977 0.0182102 0.025 167602
0.0277178 0.0186959 0.025 169712
0.0284544 0.0191927 0.025 169570
0.0292075 0.0197008 0.025 168929
0.0299777 0.0202203 0.025 165430
0.0307653 0.0207514 0.025 162096
0.0315704 0.0212945 0.025 158609
0.0323937 0.0218499 0.025 154984
0.0332354 0.0224176 0.025 151183
0.0340959 0.022998 0.025 147305
0.0349755 0.0235913 0.025 143454
0.0358747 0.0241978 0.025 139915
0.0367938 0.0248178 0.025 136751
0.0377331 0.0254513 0.025 134184
0.0386932 0.0260989 0.025 132158
0.0396743 0.0267606 0.025 130632
0.0406769 0.0274369 0.025 129374
0.0417013 0.0281279 0.025 128296
0.042748 0.0288339 0.025 127502
0.0438175 0.0295552 0.025 126948
0.04491 0.0302922 0.025 126582
0.0460262 0.031045 0.025 126170
0.0471662 0.031814 0.025 126207
0.0483306 0.0325995 0.025 126664
0.0495199 0.0334016 0.025 127115
0.0507344 0.0342208 0.025 127193
0.0519746 0.0350573 0.025 126857
0.0532409 0.0359114 0.025 126430
0.0545339 0.0367835 0.025 126784
0.0558538 0.0376739 0.025 127353
0.0572012 0.0385827 0.025 127517
0.0585766 0.0395104 0.025 127302
0.0599804 0.0404573 0.025 126899
0.061413 0.0414236 0.025 126674
0.0628748 0.0424096 0.025 127297
0.0643665 0.0434157 0.025 127973
0.0658883 0.0444422 0.025 128100
0.0674408 0.0454894 0.025 127984
0.0690245 0.0465576 0.025 127607
0.0706398 0.0476471 0.025 127668
0.0722871 0.0487582 0.025 128027
0.0739669 0.0498912 0.025 128421
0.0756797 0.0510466 0.025 128580
0.0774258 0.0522244 0.025 128652
0.0792059 0.053425 0.025 128653
0.0810203 0.0546489 0.025 128898
0.0828694 0.0558961 0.025 129117
0.0847537 0.0571671 0.025 129373
0.0866737 0.0584622 0.025 129483
0.0886298 0.0597816 0.025 129564
0.0906224 0.0611256 0.025 129587
0.0926518 0.0624944 0.025 129676
0.0947185 0.0638884 0.025 129879
0.096823 0.065308 0.025 130004
0.0989659 0.0667532 0.025 130113
0.101147 0.0682245 0.025 129773
0.103367 0.0697219 0.025 129457
0.105626 0.0712458 0.025 129256
0.107926 0.0727965 0.025 128727
0.110265 0.074374 0.025 128210
0.112644 0.0759789 0.025 127434
0.115063 0.0776111 0.025 127612
0.117524 0.0792709 0.025 127717
0.120026 0.0809585 0.025 128439
0.122569 0.0826741 0.025 129560
0.125155 0.0844179 0.025 130274
0.127782 0.0861901 0.025 130305
0.130451 0.0879908 0.025 129662
0.133163 0.08982 0.025 129273
0.135918 0.0916781 0.025 128852
0.138716 0.0935651 0.025 129075
0.141556 0.095481 0.025 129498
0.14444 0.097426 0.025 129756
0.147367 0.0994004 0.025 129112
0.150337 0.101404 0.025 129521
0.153351 0.103437 0.025 128647
0.156408 0.105498 0.025 127066
0.159508 0.107589 0.025 127644
0.162651 0.10971 0.025 126607
0.165838 0.111859 0.025 124208
0.169069 0.114039 0.025 127399
0.172343 0.116247 0.025 125375
0.175659 0.118483 0.025 124930
0.179018 0.120749 0.025 124216
0.182421 0.123045 0.025 123188
0.185866 0.125368 0.025 122749
0.189353 0.12772 0.025 122269
0.192882 0.1301 0.025 122126
0.196453 0.132509 0.025 122286
0.200065 0.134946 0.025 121655
0.203718 0.13741 0.025 121703
0.207412 0.139901 0.025 121974
0.211146 0.14242 0.025 121219
0.214919 0.144965 0.025 120535
0.218732 0.147537 0.025 121421
0.222583 0.150134 0.025 121239
0.226472 0.152757 0.025 122612
0.230399 0.155406 0.025 122125
0.234362 0.15808 0.025 122015
0.238362 0.160777 0.025 120735
0.242396 0.163498 0.025 120694
0.246466 0.166244 0.025 119972
0.250569 0.169012 0.025 121025
0.254706 0.171801 0.025 120278
0.258874 0.174613 0.025 120528
0.263074 0.177446 0.025 120169
0.267304 0.180299 0.025 120895
0.271564 0.183172 0.025 121381
0.275852 0.186064 0.025 120789
0.280168 0.188975 0.025 121312
0.28451 0.191904 0.025 120877
0.288876 0.19485 0.025 120228
0.293268 0.197812 0.025 120979
0.297683 0.20079 0.025 119854
0.302119 0.203782 0.025 119699
0.306577 0.206788 0.025 120251
0.311054 0.209808 0.025 119506
0.315549 0.212841 0.025 120092
0.320063 0.215885 0.025 119424
0.324591 0.218939 0.025 120970
0.329134 0.222003 0.025 121528
0.333691 0.225077 0.025 120999
0.33826 0.228159 0.025 121928
0.342839 0.231248 0.025 121486
0.347428 0.234343 0.025 122408
0.352025 0.237444 0.025 120953
0.356628 0.240548 0.025 121253
0.361237 0.243658 0.025 121260
0.36585 0.246769 0.025 119623
0.370465 0.249882 0.025 122043
0.375082 0.252996 0.025 120883
0.379698 0.25611 0.025 120114
0.384313 0.259223 0.025 121310
0.388926 0.262333 0.025 120495
0.393534 0.265442 0.025 120946
0.398136 0.268546 0.025 121252
0.40273 0.271645 0.025 120507
0.407317 0.274739 0.025 120377
0.411894 0.277826 0.025 119925
0.41646 0.280906 0.025 121461
0.421014 0.283977 0.025 120586
0.425554 0.28704 0.025 120341
0.430079 0.290092 0.025 120877
0.434588 0.293133 0.025 120606
0.439079 0.296162 0.025 121394
0.443551 0.299179 0.025 121027
0.448004 0.302183 0.025 120940
0.452437 0.305172 0.025 121067
0.456846 0.308146 0.025 121385
0.461232 0.311105 0.025 121267
0.465593 0.314047 0.025 121434
0.469929 0.316971 0.025 121030
0.474238 0.319878 0.025 122184
0.47852 0.322766 0.025 121843
0.482773 0.325635 0.025 121940
0.486996 0.328483 0.025 121479
0.491189 0.331311 0.025 120681
0.49535 0.334118 0.025 121984
