/*--------------------------------*- C++ -*----------------------------------*\
| =========                 |                                                 |
| \\      /  F ield         | OpenFOAM: The Open Source CFD Toolbox           |
|  \\    /   O peration     | Version:  v2012                                 |
|   \\  /    A nd           | Website:  www.openfoam.com                      |
|    \\/     M anipulation  |                                                 |
\*---------------------------------------------------------------------------*/
FoamFile
{
    version     2.0;
    format      ascii;
    class       volScalarField;
    location    "1801";
    object      alphat;
}
// * * * * * * * * * * * * * * * * * * * * * * * * * * * * * * * * * * * * * //

dimensions      [1 -1 -1 0 0 0 0];


internalField   nonuniform List<scalar> 
8000
(
5.20853e-22
4.54868e-22
5.70255e-22
4.12732e-22
4.8257e-22
5.73489e-22
3.85376e-22
4.24154e-22
4.91714e-22
5.73574e-22
3.67393e-22
3.90757e-22
4.34551e-22
5.02664e-22
5.73577e-22
3.96568e-22
3.70708e-22
3.98968e-22
4.46427e-22
5.29092e-22
5.73577e-22
4.87602e-22
3.96869e-22
3.7696e-22
4.09437e-22
4.63396e-22
5.37124e-22
5.73577e-22
5.66061e-22
4.87883e-22
3.97494e-22
3.85648e-22
4.22162e-22
4.75043e-22
5.38775e-22
5.73577e-22
6.32407e-22
5.66328e-22
4.88486e-22
3.98464e-22
3.96204e-22
4.34131e-22
4.88489e-22
5.39077e-22
5.73577e-22
6.87867e-22
6.32666e-22
5.66911e-22
4.8944e-22
3.99789e-22
4.07409e-22
4.46581e-22
5.02768e-22
5.39132e-22
5.73577e-22
7.33883e-22
6.88119e-22
6.33232e-22
5.67846e-22
4.90766e-22
4.01447e-22
4.19134e-22
4.59525e-22
5.09554e-22
5.39143e-22
5.73577e-22
7.71872e-22
7.34129e-22
6.88673e-22
6.3415e-22
5.69163e-22
4.92475e-22
4.04402e-22
4.31267e-22
4.72229e-22
5.11951e-22
5.39146e-22
5.73577e-22
8.03126e-22
7.72115e-22
7.34674e-22
6.89576e-22
6.35456e-22
5.70892e-22
4.9464e-22
4.13301e-22
4.43495e-22
4.84215e-22
5.12691e-22
5.39147e-22
5.73577e-22
8.28774e-22
8.03366e-22
7.72652e-22
7.35566e-22
6.90872e-22
6.3719e-22
5.73095e-22
4.97352e-22
4.24292e-22
4.55927e-22
4.9083e-22
5.12907e-22
5.39147e-22
5.73577e-22
8.49783e-22
8.29012e-22
8.03898e-22
7.73535e-22
7.36852e-22
6.92604e-22
6.39412e-22
5.75864e-22
5.00738e-22
4.36109e-22
4.68128e-22
4.93582e-22
5.12971e-22
5.39147e-22
5.73577e-22
8.66968e-22
8.50019e-22
8.29539e-22
8.04773e-22
7.74812e-22
7.3858e-22
6.94836e-22
6.42215e-22
5.79331e-22
5.05005e-22
4.48304e-22
4.76452e-22
4.94578e-22
5.12991e-22
5.39147e-22
5.73577e-22
3.30622e-19
8.67203e-22
8.50543e-22
8.30408e-22
8.06043e-22
7.76537e-22
7.40817e-22
6.9766e-22
6.45734e-22
5.83699e-22
5.10429e-22
4.59993e-22
4.80455e-22
4.94918e-22
5.12997e-22
5.39147e-22
5.73577e-22
4.96716e-15
1.73076e-19
8.67724e-22
8.51407e-22
8.31673e-22
8.07763e-22
7.78775e-22
7.43654e-22
7.01211e-22
6.50164e-22
5.89234e-22
5.1729e-22
4.6802e-22
4.8206e-22
4.95033e-22
5.12999e-22
5.39147e-22
5.73577e-22
6.0355e-11
2.15774e-15
6.7219e-20
8.68584e-22
8.52667e-22
8.33389e-22
8.10002e-22
7.8162e-22
7.47226e-22
7.05682e-22
6.5577e-22
5.96255e-22
5.24492e-22
4.71973e-22
4.82651e-22
4.95073e-22
5.13e-22
5.39147e-22
5.73577e-22
5.54863e-08
2.07634e-11
7.31974e-16
2.43092e-20
8.6984e-22
8.5438e-22
8.35627e-22
8.12852e-22
7.85207e-22
7.51725e-22
7.11334e-22
6.62873e-22
6.04802e-22
5.29151e-22
4.736e-22
4.82863e-22
4.95087e-22
5.13001e-22
5.39147e-22
5.73577e-22
2.9332e-08
4.03652e-07
6.38652e-12
2.53663e-16
9.83963e-21
8.71551e-22
8.56617e-22
8.38481e-22
8.16449e-22
7.89725e-22
7.57408e-22
7.18492e-22
6.71842e-22
6.12058e-22
5.31327e-22
4.74217e-22
4.82941e-22
4.95093e-22
5.13001e-22
5.39147e-22
5.73577e-22
1.61851e-08
5.16203e-07
2.31882e-08
2.29522e-12
1.03361e-16
4.78565e-21
8.73787e-22
8.59474e-22
8.42085e-22
8.2098e-22
7.9543e-22
7.64602e-22
7.27574e-22
6.81062e-22
6.16043e-22
5.32208e-22
4.74446e-22
4.8297e-22
4.95095e-22
5.13001e-22
5.39147e-22
5.73577e-22
1.086e-08
6.65565e-07
4.56326e-08
5.99078e-09
1.0109e-12
4.80889e-17
2.70472e-21
8.76645e-22
8.63082e-22
8.46626e-22
8.26701e-22
8.02648e-22
7.73722e-22
7.37989e-22
6.87036e-22
6.17783e-22
5.3255e-22
4.74533e-22
4.82982e-22
4.95096e-22
5.13001e-22
5.39147e-22
5.73577e-22
7.93074e-09
7.82676e-07
1.32103e-07
7.26712e-09
3.02606e-09
4.92901e-13
2.32594e-17
1.72383e-21
8.80257e-22
8.67631e-22
8.52357e-22
8.33936e-22
8.11791e-22
7.84776e-22
7.45821e-22
6.8987e-22
6.1848e-22
5.32685e-22
4.74568e-22
4.82987e-22
4.95097e-22
5.13001e-22
5.39147e-22
5.73577e-22
3.99213e-09
8.93739e-07
2.79788e-07
2.28635e-08
3.17175e-09
1.88961e-09
2.42709e-13
1.09218e-17
1.23734e-21
8.84811e-22
8.7337e-22
8.59604e-22
8.43096e-22
8.23163e-22
7.94164e-22
7.49859e-22
6.91044e-22
6.18755e-22
5.32739e-22
4.74582e-22
4.82989e-22
4.95097e-22
5.13001e-22
5.39147e-22
5.73577e-22
2.00171e-09
9.33315e-07
4.49085e-07
8.44351e-08
7.16237e-09
1.91142e-09
1.30464e-09
1.14549e-13
4.6376e-18
1.00544e-21
8.90556e-22
8.80626e-22
8.68778e-22
8.54622e-22
8.33766e-22
7.99403e-22
7.51594e-22
6.91513e-22
6.18866e-22
5.32762e-22
4.74588e-22
4.8299e-22
4.95097e-22
5.13001e-22
5.39147e-22
5.73577e-22
9.55914e-10
9.03171e-07
6.09925e-07
1.984e-07
3.28207e-08
3.61159e-09
1.30848e-09
9.79927e-10
4.84707e-14
1.58251e-18
9.18826e-22
8.97819e-22
8.89809e-22
8.80378e-22
8.66136e-22
8.40121e-22
8.01737e-22
7.52296e-22
6.91702e-22
6.18913e-22
5.32772e-22
4.74591e-22
4.8299e-22
4.95097e-22
5.13001e-22
5.39147e-22
5.73577e-22
4.065e-10
8.37165e-07
7.52178e-07
3.51916e-07
1.03517e-07
1.68957e-08
2.42539e-09
9.86402e-10
7.7771e-10
1.619e-14
4.09442e-19
9.11865e-22
9.0701e-22
9.01445e-22
8.92561e-22
8.73483e-22
8.43052e-22
8.02694e-22
7.52581e-22
6.91781e-22
6.18933e-22
5.32776e-22
4.74592e-22
4.82991e-22
4.95097e-22
5.13001e-22
5.39147e-22
5.73577e-22
1.34004e-10
7.23164e-07
8.35951e-07
5.0729e-07
2.24884e-07
6.35784e-08
1.17707e-08
1.99334e-09
7.97063e-10
6.4575e-10
4.04802e-15
7.52372e-20
9.21062e-22
9.18662e-22
9.14118e-22
9.0076e-22
8.76977e-22
8.44269e-22
8.03082e-22
7.52699e-22
6.91815e-22
6.18941e-22
5.32778e-22
4.74593e-22
4.82991e-22
4.95097e-22
5.13001e-22
5.39147e-22
5.73577e-22
3.27126e-11
2.18346e-07
8.69478e-07
6.42453e-07
3.80154e-07
1.39871e-07
4.842e-08
1.06071e-08
1.96313e-09
6.87173e-10
5.59024e-10
6.98e-16
1.0059e-20
9.32723e-22
9.31693e-22
9.23033e-22
9.0477e-22
8.78447e-22
8.44765e-22
8.03244e-22
7.52749e-22
6.9183e-22
6.18945e-22
5.32779e-22
4.74593e-22
4.82991e-22
4.95097e-22
5.13001e-22
5.39147e-22
5.73577e-22
5.39052e-12
6.51988e-08
8.43843e-07
7.32135e-07
5.17651e-07
3.12335e-07
1.22195e-07
4.65053e-08
1.19314e-08
2.2586e-09
6.38713e-10
5.05913e-10
7.92315e-17
1.70573e-21
9.46018e-22
9.41203e-22
9.27501e-22
9.06476e-22
8.79048e-22
8.44971e-22
8.03312e-22
7.52771e-22
6.91836e-22
6.18947e-22
5.32779e-22
4.74593e-22
4.82991e-22
4.95097e-22
5.13001e-22
5.39147e-22
5.73577e-22
5.69055e-13
1.49048e-08
7.71352e-07
7.70119e-07
6.1888e-07
4.92802e-07
2.56084e-07
1.32139e-07
5.50497e-08
1.55917e-08
3.01678e-09
6.57836e-10
4.7907e-10
6.12811e-18
9.93774e-22
9.56017e-22
9.46068e-22
9.2942e-22
9.07175e-22
8.79298e-22
8.45058e-22
8.03343e-22
7.52781e-22
6.9184e-22
6.18948e-22
5.32779e-22
4.74593e-22
4.82991e-22
4.95097e-22
5.13001e-22
5.39147e-22
5.73577e-22
4.03004e-14
2.36904e-09
6.34304e-07
7.64088e-07
6.85769e-07
6.16461e-07
5.15799e-07
2.59495e-07
1.68473e-07
7.45288e-08
2.30665e-08
4.64934e-09
7.54312e-10
4.81825e-10
4.08539e-19
9.68088e-22
9.61223e-22
9.48177e-22
9.30209e-22
9.07466e-22
8.79404e-22
8.45097e-22
8.03356e-22
7.52786e-22
6.91841e-22
6.18948e-22
5.32779e-22
4.74593e-22
4.82991e-22
4.95097e-22
5.13001e-22
5.39147e-22
5.73577e-22
2.65997e-15
2.57599e-10
3.50988e-07
7.68877e-07
7.19838e-07
6.75609e-07
7.21082e-07
5.9326e-07
3.35623e-07
2.3508e-07
1.13082e-07
3.81719e-08
7.71947e-09
8.95863e-10
5.04823e-10
3.43779e-20
9.73584e-22
9.63496e-22
9.49047e-22
9.30537e-22
9.07589e-22
8.7945e-22
8.45114e-22
8.03362e-22
7.52788e-22
6.91842e-22
6.18949e-22
5.32779e-22
4.74593e-22
4.82991e-22
4.95097e-22
5.13001e-22
5.39147e-22
5.73577e-22
2.43727e-16
1.73808e-11
1.01532e-07
6.93865e-07
7.22378e-07
6.94779e-07
8.00398e-07
9.46978e-07
7.60689e-07
4.88439e-07
3.64926e-07
1.90231e-07
6.62885e-08
1.21636e-08
1.17334e-09
5.4508e-10
3.72197e-21
9.75998e-22
9.64436e-22
9.49408e-22
9.30677e-22
9.07644e-22
8.79471e-22
8.45122e-22
8.03365e-22
7.52789e-22
6.91842e-22
6.18949e-22
5.32779e-22
4.74593e-22
4.82991e-22
4.95097e-22
5.13001e-22
5.39147e-22
5.73577e-22
2.07634e-17
1.71233e-12
3.07037e-08
5.65948e-07
6.9494e-07
6.95423e-07
7.83345e-07
1.11957e-06
1.34128e-06
9.83925e-07
7.87054e-07
6.22834e-07
3.33389e-07
1.08628e-07
1.8627e-08
1.47228e-09
5.80806e-10
1.12783e-21
9.76999e-22
9.64827e-22
9.49562e-22
9.30738e-22
9.07668e-22
8.79481e-22
8.45126e-22
8.03367e-22
7.52789e-22
6.91842e-22
6.18949e-22
5.3278e-22
4.74593e-22
4.82991e-22
4.95097e-22
5.13001e-22
5.39147e-22
5.73577e-22
1.12742e-18
1.47747e-13
8.10181e-09
3.8715e-07
6.36473e-07
6.74719e-07
7.36915e-07
1.07234e-06
1.77156e-06
1.98508e-06
1.48034e-06
1.37403e-06
1.09583e-06
5.51602e-07
1.67462e-07
2.52653e-08
1.71692e-09
6.06894e-10
9.87249e-22
9.77415e-22
9.64993e-22
9.49629e-22
9.30765e-22
9.07679e-22
8.79485e-22
8.45127e-22
8.03367e-22
7.5279e-22
6.91842e-22
6.18949e-22
5.3278e-22
4.74593e-22
4.82991e-22
4.95097e-22
5.13001e-22
5.39147e-22
5.73577e-22
4.34868e-20
7.56792e-15
1.05746e-09
2.10118e-07
5.37048e-07
6.4071e-07
6.89291e-07
9.28207e-07
1.75637e-06
2.90477e-06
3.11405e-06
2.48216e-06
2.42207e-06
1.80683e-06
8.43179e-07
2.27465e-07
3.06341e-08
1.87244e-09
6.20825e-10
9.87686e-22
9.77592e-22
9.65066e-22
9.49659e-22
9.30778e-22
9.07684e-22
8.79487e-22
8.45128e-22
8.03368e-22
7.5279e-22
6.91842e-22
6.18949e-22
5.3278e-22
4.74593e-22
4.82991e-22
4.95097e-22
5.13001e-22
5.39147e-22
5.73577e-22
2.57648e-21
2.70035e-16
5.29601e-11
9.13359e-08
4.20366e-07
5.84e-07
6.39209e-07
7.9229e-07
1.43891e-06
3.13174e-06
4.80834e-06
5.13178e-06
4.24998e-06
3.93223e-06
2.71097e-06
1.13464e-06
2.75655e-07
3.39842e-08
1.9679e-09
6.25872e-10
9.87872e-22
9.77669e-22
9.65098e-22
9.49673e-22
9.30784e-22
9.07686e-22
8.79488e-22
8.45129e-22
8.03368e-22
7.5279e-22
6.91842e-22
6.18949e-22
5.3278e-22
4.74593e-22
4.82991e-22
4.95097e-22
5.13001e-22
5.39147e-22
5.73577e-22
1.03895e-21
1.05155e-17
1.78345e-12
2.75159e-08
2.71653e-07
4.94943e-07
5.8689e-07
6.91652e-07
1.09331e-06
2.6242e-06
5.63649e-06
7.9247e-06
8.41897e-06
6.77761e-06
5.75651e-06
3.5841e-06
1.36467e-06
3.05753e-07
3.60774e-08
2.011e-09
6.22886e-10
9.87953e-22
9.77704e-22
9.65113e-22
9.49679e-22
9.30786e-22
9.07688e-22
8.79489e-22
8.45129e-22
8.03368e-22
7.5279e-22
6.91842e-22
6.18949e-22
5.3278e-22
4.74593e-22
4.82991e-22
4.95097e-22
5.13001e-22
5.39147e-22
5.73577e-22
9.9634e-22
3.85437e-19
7.26454e-14
4.9432e-09
1.41244e-07
3.78733e-07
5.19617e-07
6.12094e-07
8.45586e-07
1.86577e-06
5.02974e-06
9.654e-06
1.25357e-05
1.26904e-05
9.68196e-06
7.48011e-06
4.25705e-06
1.50851e-06
3.24468e-07
3.70448e-08
2.0233e-09
6.14861e-10
9.8799e-22
9.7772e-22
9.6512e-22
9.49682e-22
9.30788e-22
9.07688e-22
8.79489e-22
8.45129e-22
8.03368e-22
7.5279e-22
6.91842e-22
6.18949e-22
5.3278e-22
4.74593e-22
4.82991e-22
4.95097e-22
5.13001e-22
5.39147e-22
5.73577e-22
9.96378e-22
1.03639e-20
2.71739e-15
4.61844e-10
5.78997e-08
2.49632e-07
4.30596e-07
5.38154e-07
6.88959e-07
1.25729e-06
3.61131e-06
9.14124e-06
1.52403e-05
1.82222e-05
1.70556e-05
1.24721e-05
8.84107e-06
4.68087e-06
1.59737e-06
3.33076e-07
3.74026e-08
2.01345e-09
6.03447e-10
9.88006e-22
9.77727e-22
9.65123e-22
9.49684e-22
9.30788e-22
9.07688e-22
8.79489e-22
8.45129e-22
8.03368e-22
7.5279e-22
6.91842e-22
6.18949e-22
5.3278e-22
4.74593e-22
4.82991e-22
4.95097e-22
5.13001e-22
5.39147e-22
5.73577e-22
9.96396e-22
1.16958e-21
6.20704e-17
2.01415e-11
1.94222e-08
1.41477e-07
3.23353e-07
4.55205e-07
5.81514e-07
8.88116e-07
2.25973e-06
6.92168e-06
1.50063e-05
2.20407e-05
2.41715e-05
2.09461e-05
1.46547e-05
9.74082e-06
4.94158e-06
1.63849e-06
3.36173e-07
3.73126e-08
1.98447e-09
5.89656e-10
9.88014e-22
9.77731e-22
9.65125e-22
9.49684e-22
9.30789e-22
9.07689e-22
8.79489e-22
8.45129e-22
8.03368e-22
7.5279e-22
6.91842e-22
6.18949e-22
5.3278e-22
4.74593e-22
4.82991e-22
4.95097e-22
5.13001e-22
5.39147e-22
5.73577e-22
9.96404e-22
1.00509e-21
1.13416e-18
4.22945e-13
4.52279e-09
6.95472e-08
2.13301e-07
3.59305e-07
4.87949e-07
6.77456e-07
1.37464e-06
4.36191e-06
1.19639e-05
2.23902e-05
2.91154e-05
2.80574e-05
2.38064e-05
1.61055e-05
1.03153e-05
5.06793e-06
1.65354e-06
3.35311e-07
3.68168e-08
1.94957e-09
5.75088e-10
9.88018e-22
9.77732e-22
9.65126e-22
9.49685e-22
9.30789e-22
9.07689e-22
8.79489e-22
8.45129e-22
8.03368e-22
7.5279e-22
6.91842e-22
6.18949e-22
5.3278e-22
4.74593e-22
4.82991e-22
4.95097e-22
5.13001e-22
5.39147e-22
5.73577e-22
9.96408e-22
1.0051e-21
2.0504e-20
7.4124e-15
5.97371e-10
2.71174e-08
1.22042e-07
2.57755e-07
3.90988e-07
5.42124e-07
8.98175e-07
2.45618e-06
7.8839e-06
1.8931e-05
3.03615e-05
3.35892e-05
3.07328e-05
2.54618e-05
1.70454e-05
1.0647e-05
5.1198e-06
1.65034e-06
3.30867e-07
3.6223e-08
1.91022e-09
5.61224e-10
9.8802e-22
9.77733e-22
9.65126e-22
9.49685e-22
9.30789e-22
9.07689e-22
8.79489e-22
8.45129e-22
8.03368e-22
7.5279e-22
6.91842e-22
6.18949e-22
5.3278e-22
4.74593e-22
4.82991e-22
4.95097e-22
5.13001e-22
5.39147e-22
5.73577e-22
9.96409e-22
1.0051e-21
1.25439e-21
1.32896e-16
3.80893e-11
8.65175e-09
5.98845e-08
1.65321e-07
2.89954e-07
4.31087e-07
6.45785e-07
1.38428e-06
4.44814e-06
1.33195e-05
2.71807e-05
3.80052e-05
3.67263e-05
3.28706e-05
2.64886e-05
1.7589e-05
1.08256e-05
5.12055e-06
1.6307e-06
3.25553e-07
3.55348e-08
1.87196e-09
5.47381e-10
9.8802e-22
9.77734e-22
9.65126e-22
9.49685e-22
9.30789e-22
9.07689e-22
8.79489e-22
8.45129e-22
8.03368e-22
7.5279e-22
6.91842e-22
6.18949e-22
5.3278e-22
4.74593e-22
4.82991e-22
4.95097e-22
5.13001e-22
5.39147e-22
5.73577e-22
9.9641e-22
1.00511e-21
1.01439e-21
1.65764e-18
9.35767e-13
2.12047e-09
2.6863e-08
9.3595e-08
1.95306e-07
3.24815e-07
4.89003e-07
8.55446e-07
2.31349e-06
7.90507e-06
2.04838e-05
3.58894e-05
4.1902e-05
3.94695e-05
3.45054e-05
2.71235e-05
1.78972e-05
1.09065e-05
5.07639e-06
1.6069e-06
3.1942e-07
3.48605e-08
1.83036e-09
5.32852e-10
9.88021e-22
9.77734e-22
9.65126e-22
9.49685e-22
9.30789e-22
9.07689e-22
8.79489e-22
8.45129e-22
8.03368e-22
7.5279e-22
6.91842e-22
6.18949e-22
5.3278e-22
4.74593e-22
4.82991e-22
4.95097e-22
5.13001e-22
5.39147e-22
5.73577e-22
9.96411e-22
1.00511e-21
1.01439e-21
1.78479e-20
1.07072e-14
3.15444e-10
9.94333e-09
4.71058e-08
1.18759e-07
2.2482e-07
3.66021e-07
5.85585e-07
1.24482e-06
4.05844e-06
1.3072e-05
2.92006e-05
4.41643e-05
4.52875e-05
4.18264e-05
3.56772e-05
2.75091e-05
1.80397e-05
1.09064e-05
5.01952e-06
1.57936e-06
3.13413e-07
3.4104e-08
1.78538e-09
5.18777e-10
9.88021e-22
9.77734e-22
9.65126e-22
9.49685e-22
9.30789e-22
9.07689e-22
8.79489e-22
8.45129e-22
8.03368e-22
7.5279e-22
6.91842e-22
6.18949e-22
5.3278e-22
4.74593e-22
4.82991e-22
4.95097e-22
5.13001e-22
5.39147e-22
5.73577e-22
9.96411e-22
1.00511e-21
1.0144e-21
1.15302e-21
1.08014e-16
2.30259e-11
2.93739e-09
2.07211e-08
6.54498e-08
1.41266e-07
2.57643e-07
4.19718e-07
7.4792e-07
1.9828e-06
7.09184e-06
2.0209e-05
3.87787e-05
4.96096e-05
4.82392e-05
4.37433e-05
3.65112e-05
2.7614e-05
1.80546e-05
1.0877e-05
4.95222e-06
1.5523e-06
3.06673e-07
3.32775e-08
1.7408e-09
5.05198e-10
9.88021e-22
9.77734e-22
9.65126e-22
9.49685e-22
9.30789e-22
9.07689e-22
8.79489e-22
8.45129e-22
8.03368e-22
7.5279e-22
6.91842e-22
6.18949e-22
5.3278e-22
4.74593e-22
4.82991e-22
4.95097e-22
5.13001e-22
5.39147e-22
5.73577e-22
9.96411e-22
1.00511e-21
1.0144e-21
1.02431e-21
9.2772e-19
6.02605e-13
6.87922e-10
8.14581e-09
3.26836e-08
8.07936e-08
1.66079e-07
2.94493e-07
4.94637e-07
1.03479e-06
3.36345e-06
1.19765e-05
2.94151e-05
4.79799e-05
5.33492e-05
5.08991e-05
4.52736e-05
3.70545e-05
2.75351e-05
1.8021e-05
1.08285e-05
4.8856e-06
1.52172e-06
2.99296e-07
3.24523e-08
1.69585e-09
4.9223e-10
9.88021e-22
9.77734e-22
9.65126e-22
9.49685e-22
9.30789e-22
9.07689e-22
8.79489e-22
8.45129e-22
8.03368e-22
7.5279e-22
6.91842e-22
6.18949e-22
5.3278e-22
4.74593e-22
4.82991e-22
4.95097e-22
5.13001e-22
5.39147e-22
5.73577e-22
9.96411e-22
1.00511e-21
1.0144e-21
1.02432e-21
7.18069e-21
5.83692e-15
9.99416e-11
2.86283e-09
1.47632e-08
4.25968e-08
9.74024e-08
1.93145e-07
3.36825e-07
6.09334e-07
1.57263e-06
5.9811e-06
1.93214e-05
3.97799e-05
5.62201e-05
5.66976e-05
5.32049e-05
4.64522e-05
3.73597e-05
2.74079e-05
1.7959e-05
1.07783e-05
4.80848e-06
1.48782e-06
2.91933e-07
3.16087e-08
1.6528e-09
4.79377e-10
9.88021e-22
9.77734e-22
9.65126e-22
9.49685e-22
9.30789e-22
9.07689e-22
8.79489e-22
8.45129e-22
8.03368e-22
7.5279e-22
6.91842e-22
6.18949e-22
5.3278e-22
4.74593e-22
4.82991e-22
4.95097e-22
5.13001e-22
5.39147e-22
5.73577e-22
9.96411e-22
1.00511e-21
1.0144e-21
1.02432e-21
1.05163e-21
3.76351e-17
6.9721e-12
7.90613e-10
5.91274e-09
2.08381e-08
5.25177e-08
1.16018e-07
2.21491e-07
3.89755e-07
8.07127e-07
2.65716e-06
1.08675e-05
2.87521e-05
4.99021e-05
6.06456e-05
5.96714e-05
5.51713e-05
4.73218e-05
3.75319e-05
2.72584e-05
1.78966e-05
1.07037e-05
4.71967e-06
1.45385e-06
2.84404e-07
3.08006e-08
1.60955e-09
4.67063e-10
9.88021e-22
9.77734e-22
9.65126e-22
9.49685e-22
9.30789e-22
9.07689e-22
8.79489e-22
8.45129e-22
8.03368e-22
7.5279e-22
6.91842e-22
6.18949e-22
5.3278e-22
4.74593e-22
4.82991e-22
4.95097e-22
5.13001e-22
5.39147e-22
5.73577e-22
9.96411e-22
1.00511e-21
1.0144e-21
1.02432e-21
1.03491e-21
2.10835e-19
1.60922e-13
1.64373e-10
2.09966e-09
9.39185e-09
2.63635e-08
6.39181e-08
1.35486e-07
2.51556e-07
4.66862e-07
1.19846e-06
5.08745e-06
1.81947e-05
3.93237e-05
5.92131e-05
6.44491e-05
6.24555e-05
5.68012e-05
4.79748e-05
3.76125e-05
2.71271e-05
1.78087e-05
1.05578e-05
4.62966e-06
1.41897e-06
2.77186e-07
2.99862e-08
1.56886e-09
4.55773e-10
9.88021e-22
9.77734e-22
9.65126e-22
9.49685e-22
9.30789e-22
9.07689e-22
8.79489e-22
8.45129e-22
8.03368e-22
7.5279e-22
6.91842e-22
6.18949e-22
5.3278e-22
4.74593e-22
4.82991e-22
4.95097e-22
5.13001e-22
5.39147e-22
5.73577e-22
9.96411e-22
1.00511e-21
1.0144e-21
1.02432e-21
1.03491e-21
1.95841e-21
1.21189e-15
2.08559e-11
6.74162e-10
3.86911e-09
1.24462e-08
3.26258e-08
7.6291e-08
1.54878e-07
2.87405e-07
6.03641e-07
2.13339e-06
9.75651e-06
2.74812e-05
5.03205e-05
6.71325e-05
6.7935e-05
6.49477e-05
5.81578e-05
4.84567e-05
3.76621e-05
2.698e-05
1.7689e-05
1.0407e-05
4.53619e-06
1.38539e-06
2.69913e-07
2.92244e-08
1.53094e-09
4.44799e-10
9.88021e-22
9.77734e-22
9.65126e-22
9.49685e-22
9.30789e-22
9.07689e-22
8.79489e-22
8.45129e-22
8.03368e-22
7.5279e-22
6.91842e-22
6.18949e-22
5.3278e-22
4.74593e-22
4.82991e-22
4.95097e-22
5.13001e-22
5.39147e-22
5.73577e-22
9.96411e-22
1.00511e-21
1.0144e-21
1.02432e-21
1.03491e-21
1.04622e-21
5.31461e-18
1.15972e-12
1.67904e-10
1.40616e-09
5.5315e-09
1.5637e-08
3.97278e-08
8.87015e-08
1.75003e-07
3.39469e-07
9.18401e-07
4.33704e-06
1.69272e-05
3.81833e-05
6.0793e-05
7.14673e-05
7.11818e-05
6.71847e-05
5.92716e-05
4.88479e-05
3.76567e-05
2.68163e-05
1.75572e-05
1.02474e-05
4.44547e-06
1.35145e-06
2.63109e-07
2.85107e-08
1.49313e-09
4.34388e-10
9.88021e-22
9.77734e-22
9.65126e-22
9.49685e-22
9.30789e-22
9.07689e-22
8.79489e-22
8.45129e-22
8.03368e-22
7.5279e-22
6.91842e-22
6.18949e-22
5.3278e-22
4.74593e-22
4.82991e-22
4.95097e-22
5.13001e-22
5.39147e-22
5.73577e-22
9.96411e-22
1.00511e-21
1.0144e-21
1.02432e-21
1.03491e-21
1.04622e-21
2.03425e-20
1.94185e-14
2.95018e-11
4.60011e-10
2.27603e-09
7.0962e-09
1.93428e-08
4.7105e-08
1.00926e-07
1.98947e-07
4.44218e-07
1.73444e-06
8.7518e-06
2.59948e-05
4.9579e-05
7.04002e-05
7.55188e-05
7.43036e-05
6.91534e-05
6.02266e-05
4.91322e-05
3.76008e-05
2.66445e-05
1.74092e-05
1.00907e-05
4.35298e-06
1.3196e-06
2.5673e-07
2.77944e-08
1.45801e-09
4.24465e-10
9.88021e-22
9.77734e-22
9.65126e-22
9.49685e-22
9.30789e-22
9.07689e-22
8.79489e-22
8.45129e-22
8.03368e-22
7.5279e-22
6.91842e-22
6.18949e-22
5.3278e-22
4.74593e-22
4.82991e-22
4.95097e-22
5.13001e-22
5.39147e-22
5.73577e-22
9.96411e-22
1.00511e-21
1.0144e-21
1.02432e-21
1.03491e-21
1.04623e-21
1.09555e-21
9.88545e-17
2.95865e-12
1.28768e-10
8.535e-10
3.06317e-09
8.88276e-09
2.33591e-08
5.43569e-08
1.1376e-07
2.37904e-07
7.07491e-07
3.75265e-06
1.55417e-05
3.64745e-05
6.10673e-05
7.77783e-05
7.93443e-05
7.72316e-05
7.09131e-05
6.10087e-05
4.93159e-05
3.7507e-05
2.64561e-05
1.72597e-05
9.92865e-06
4.26573e-06
1.28966e-06
2.50326e-07
2.71332e-08
1.4238e-09
4.14827e-10
9.88021e-22
9.77734e-22
9.65126e-22
9.49685e-22
9.30789e-22
9.07689e-22
8.79489e-22
8.45129e-22
8.03368e-22
7.5279e-22
6.91842e-22
6.18949e-22
5.3278e-22
4.74593e-22
4.82991e-22
4.95097e-22
5.13001e-22
5.39147e-22
5.73577e-22
9.96411e-22
1.00511e-21
1.0144e-21
1.02432e-21
1.03491e-21
1.04623e-21
1.05831e-21
2.99802e-19
1.08506e-13
2.7439e-11
2.79166e-10
1.24848e-09
3.88388e-09
1.08999e-08
2.73938e-08
6.15361e-08
1.31052e-07
3.21471e-07
1.43926e-06
7.74077e-06
2.42614e-05
4.80954e-05
7.19544e-05
8.24762e-05
8.31165e-05
7.99696e-05
7.24368e-05
6.16277e-05
4.94181e-05
3.73711e-05
2.62681e-05
1.70996e-05
9.77472e-06
4.18317e-06
1.2595e-06
2.44414e-07
2.64854e-08
1.3905e-09
4.05743e-10
9.88021e-22
9.77734e-22
9.65126e-22
9.49685e-22
9.30789e-22
9.07689e-22
8.79489e-22
8.45129e-22
8.03368e-22
7.5279e-22
6.91842e-22
6.18949e-22
5.3278e-22
4.74593e-22
4.82991e-22
4.95097e-22
5.13001e-22
5.39147e-22
5.73577e-22
9.96411e-22
1.00511e-21
1.0144e-21
1.02432e-21
1.03491e-21
1.04623e-21
1.05831e-21
1.78702e-21
1.06364e-15
3.79878e-12
8.31842e-11
4.68781e-10
1.61972e-09
4.82576e-09
1.2996e-08
3.13108e-08
7.01343e-08
1.60817e-07
5.51598e-07
3.20082e-06
1.4021e-05
3.44689e-05
6.02751e-05
8.20365e-05
8.69835e-05
8.67978e-05
8.24641e-05
7.37349e-05
6.21085e-05
4.94409e-05
3.7216e-05
2.60671e-05
1.69469e-05
9.62808e-06
4.09935e-06
1.23157e-06
2.38618e-07
2.58545e-08
1.35926e-09
3.96974e-10
9.88021e-22
9.77734e-22
9.65126e-22
9.49685e-22
9.30789e-22
9.07689e-22
8.79489e-22
8.45129e-22
8.03368e-22
7.5279e-22
6.91842e-22
6.18949e-22
5.3278e-22
4.74593e-22
4.82991e-22
4.95097e-22
5.13001e-22
5.39147e-22
5.73577e-22
9.96411e-22
1.00511e-21
1.0144e-21
1.02432e-21
1.03491e-21
1.04623e-21
1.05831e-21
1.0712e-21
3.3637e-18
2.52809e-13
1.96637e-11
1.58041e-10
6.44281e-10
2.0338e-09
5.84317e-09
1.50374e-08
3.56324e-08
8.2702e-08
2.30872e-07
1.17265e-06
6.69126e-06
2.23341e-05
4.60493e-05
7.23314e-05
8.88705e-05
9.13506e-05
9.03649e-05
8.47063e-05
7.48318e-05
6.24596e-05
4.94139e-05
3.70292e-05
2.58765e-05
1.68011e-05
9.47728e-06
4.02133e-06
1.20411e-06
2.32973e-07
2.52638e-08
1.32851e-09
3.88503e-10
9.88021e-22
9.77734e-22
9.65126e-22
9.49685e-22
9.30789e-22
9.07689e-22
8.79489e-22
8.45129e-22
8.03368e-22
7.5279e-22
6.91842e-22
6.18949e-22
5.3278e-22
4.74593e-22
4.82991e-22
4.95097e-22
5.13001e-22
5.39147e-22
5.73577e-22
9.96411e-22
1.00511e-21
1.0144e-21
1.02432e-21
1.03491e-21
1.04623e-21
1.05831e-21
1.07121e-21
8.0361e-21
5.02283e-15
3.36042e-12
4.59951e-11
2.40098e-10
8.20969e-10
2.49781e-09
6.85434e-09
1.71545e-08
4.14967e-08
1.06021e-07
4.20884e-07
2.64368e-06
1.24127e-05
3.22738e-05
5.85832e-05
8.38419e-05
9.41257e-05
9.58675e-05
9.37233e-05
8.6695e-05
7.57386e-05
6.27155e-05
4.93256e-05
3.68427e-05
2.5697e-05
1.66458e-05
9.33603e-06
3.9441e-06
1.1773e-06
2.27684e-07
2.46789e-08
1.29871e-09
3.80476e-10
9.88021e-22
9.77734e-22
9.65126e-22
9.49685e-22
9.30789e-22
9.07689e-22
8.79489e-22
8.45129e-22
8.03368e-22
7.5279e-22
6.91842e-22
6.18949e-22
5.3278e-22
4.74593e-22
4.82991e-22
4.95097e-22
5.13001e-22
5.39147e-22
5.73577e-22
9.96411e-22
1.00511e-21
1.0144e-21
1.02432e-21
1.03491e-21
1.04623e-21
1.05831e-21
1.07121e-21
1.08496e-21
2.38861e-17
3.25634e-13
1.19652e-11
8.19384e-11
3.16475e-10
1.01978e-09
2.97482e-09
7.85811e-09
1.9906e-08
5.05011e-08
1.61648e-07
9.1889e-07
5.65938e-06
2.02639e-05
4.35648e-05
7.16756e-05
9.46535e-05
9.92773e-05
0.000100286
9.68334e-05
8.84328e-05
7.64907e-05
6.28649e-05
4.92182e-05
3.66619e-05
2.55047e-05
1.64998e-05
9.1948e-06
3.86819e-06
1.1521e-06
2.22445e-07
2.41119e-08
1.27029e-09
3.72607e-10
9.88021e-22
9.77734e-22
9.65126e-22
9.49685e-22
9.30789e-22
9.07689e-22
8.79489e-22
8.45129e-22
8.03368e-22
7.5279e-22
6.91842e-22
6.18949e-22
5.3278e-22
4.74593e-22
4.82991e-22
4.95097e-22
5.13001e-22
5.39147e-22
5.73577e-22
9.96411e-22
1.00511e-21
1.0144e-21
1.02432e-21
1.03491e-21
1.04623e-21
1.05831e-21
1.07121e-21
1.08499e-21
4.79958e-20
1.13833e-14
2.32849e-12
2.43097e-11
1.15948e-10
3.98158e-10
1.23253e-09
3.43803e-09
9.09985e-09
2.37404e-08
6.79208e-08
3.08911e-07
2.12943e-06
1.07504e-05
2.98025e-05
5.62846e-05
8.45515e-05
0.000100876
0.000104424
0.000104592
9.96684e-05
8.99485e-05
7.70748e-05
6.29603e-05
4.91044e-05
3.64591e-05
2.53236e-05
1.63508e-05
9.05466e-06
3.79644e-06
1.12707e-06
2.17365e-07
2.35701e-08
1.24217e-09
3.65151e-10
9.88021e-22
9.77734e-22
9.65126e-22
9.49685e-22
9.30789e-22
9.07689e-22
8.79489e-22
8.45129e-22
8.03368e-22
7.5279e-22
6.91842e-22
6.18949e-22
5.3278e-22
4.74593e-22
4.82991e-22
4.95097e-22
5.13001e-22
5.39147e-22
5.73577e-22
9.96411e-22
1.00511e-21
1.0144e-21
1.02432e-21
1.03491e-21
1.04623e-21
1.05831e-21
1.07121e-21
1.08499e-21
1.14302e-21
9.64382e-17
2.91003e-13
6.44362e-12
3.93444e-11
1.48903e-10
4.88037e-10
1.44039e-09
3.97462e-09
1.07651e-08
2.99364e-08
1.09535e-07
7.02684e-07
4.63479e-06
1.79921e-05
4.08092e-05
6.99903e-05
9.68744e-05
0.000106763
0.000109734
0.000108689
0.000102234
9.12202e-05
7.75504e-05
6.30232e-05
4.89525e-05
3.62627e-05
2.51378e-05
1.61998e-05
8.9211e-06
3.72463e-06
1.10273e-06
2.12509e-07
2.3033e-08
1.2161e-09
3.58239e-10
9.88021e-22
9.77734e-22
9.65126e-22
9.49685e-22
9.30789e-22
9.07689e-22
8.79489e-22
8.45129e-22
8.03368e-22
7.5279e-22
6.91842e-22
6.18949e-22
5.3278e-22
4.74593e-22
4.82991e-22
4.95097e-22
5.13001e-22
5.39147e-22
5.73577e-22
9.96411e-22
1.00511e-21
1.0144e-21
1.02432e-21
1.03491e-21
1.04623e-21
1.05831e-21
1.07121e-21
1.08499e-21
1.09969e-21
2.19184e-19
1.59132e-14
1.34182e-12
1.19169e-11
5.32967e-11
1.84806e-10
5.78139e-10
1.66389e-09
4.67962e-09
1.31902e-08
4.23385e-08
2.22009e-07
1.64695e-06
9.01753e-06
2.70594e-05
5.34437e-05
8.41404e-05
0.000107236
0.00011261
0.000115034
0.000112538
0.000104484
9.23095e-05
7.79491e-05
6.30211e-05
4.87963e-05
3.60558e-05
2.49477e-05
1.60542e-05
8.78588e-06
3.65433e-06
1.0794e-06
2.07695e-07
2.25384e-08
1.19177e-09
3.51452e-10
9.88021e-22
9.77734e-22
9.65126e-22
9.49685e-22
9.30789e-22
9.07689e-22
8.79489e-22
8.45129e-22
8.03368e-22
7.5279e-22
6.91842e-22
6.18949e-22
5.3278e-22
4.74593e-22
4.82991e-22
4.95097e-22
5.13001e-22
5.39147e-22
5.73577e-22
9.96411e-22
1.00511e-21
1.0144e-21
1.02432e-21
1.03491e-21
1.04623e-21
1.05831e-21
1.07121e-21
1.08499e-21
1.0997e-21
1.38685e-21
2.39921e-16
1.95358e-13
3.07042e-12
1.78401e-11
6.71732e-11
2.22168e-10
6.69428e-10
1.95083e-09
5.65719e-09
1.73273e-08
7.29513e-08
5.14502e-07
3.63939e-06
1.55334e-05
3.78333e-05
6.76099e-05
9.80253e-05
0.000113872
0.000118763
0.000120223
0.000116042
0.000106471
9.32575e-05
7.82415e-05
6.29928e-05
4.86182e-05
3.58391e-05
2.47628e-05
1.59026e-05
8.65215e-06
3.58662e-06
1.05623e-06
2.0326e-07
2.20757e-08
1.16737e-09
3.4488e-10
9.88021e-22
9.77734e-22
9.65126e-22
9.49685e-22
9.30789e-22
9.07689e-22
8.79489e-22
8.45129e-22
8.03368e-22
7.5279e-22
6.91842e-22
6.18949e-22
5.3278e-22
4.74593e-22
4.82991e-22
4.95097e-22
5.13001e-22
5.39147e-22
5.73577e-22
9.96411e-22
1.00511e-21
1.0144e-21
1.02432e-21
1.03491e-21
1.04623e-21
1.05831e-21
1.07121e-21
1.08499e-21
1.0997e-21
1.1154e-21
7.49638e-19
1.45026e-14
6.86161e-13
5.42418e-12
2.33101e-11
8.18502e-11
2.59201e-10
7.81153e-10
2.33994e-09
7.1749e-09
2.5965e-08
1.53316e-07
1.21699e-06
7.26891e-06
2.41655e-05
5.02965e-05
8.26994e-05
0.000111381
0.000120575
0.000125037
0.000125155
0.000119229
0.000108239
9.40407e-05
7.84709e-05
6.29213e-05
4.84196e-05
3.56234e-05
2.45668e-05
1.57489e-05
8.52235e-06
3.51898e-06
1.03483e-06
1.99109e-07
2.16093e-08
1.14405e-09
3.38607e-10
9.88021e-22
9.77734e-22
9.65126e-22
9.49685e-22
9.30789e-22
9.07689e-22
8.79489e-22
8.45129e-22
8.03368e-22
7.5279e-22
6.91842e-22
6.18949e-22
5.3278e-22
4.74593e-22
4.82991e-22
4.95097e-22
5.13001e-22
5.39147e-22
5.73577e-22
9.96411e-22
1.00511e-21
1.0144e-21
1.02432e-21
1.03491e-21
1.04623e-21
1.05831e-21
1.07121e-21
1.08499e-21
1.0997e-21
1.11541e-21
2.0469e-21
3.42565e-16
1.10835e-13
1.4084e-12
7.66037e-12
2.8888e-11
9.65669e-11
3.01135e-10
9.32033e-10
2.91602e-09
9.85651e-09
4.70015e-08
3.60806e-07
2.72839e-06
1.3053e-05
3.4626e-05
6.45848e-05
9.80682e-05
0.000120711
0.000127352
0.000131354
0.000129793
0.000122122
0.000109767
9.47062e-05
7.86225e-05
6.28108e-05
4.8212e-05
3.53865e-05
2.43625e-05
1.55977e-05
8.39167e-06
3.45634e-06
1.01477e-06
1.94925e-07
2.11651e-08
1.12164e-09
3.32387e-10
9.88021e-22
9.77734e-22
9.65126e-22
9.49685e-22
9.30789e-22
9.07689e-22
8.79489e-22
8.45129e-22
8.03368e-22
7.5279e-22
6.91842e-22
6.18949e-22
5.3278e-22
4.74593e-22
4.82991e-22
4.95097e-22
5.13001e-22
5.39147e-22
5.73577e-22
9.96411e-22
1.00511e-21
1.0144e-21
1.02432e-21
1.03491e-21
1.04623e-21
1.05831e-21
1.07121e-21
1.08499e-21
1.0997e-21
1.11541e-21
1.13216e-21
1.62933e-18
1.02388e-14
3.20833e-13
2.31272e-12
9.74871e-12
3.45633e-11
1.12038e-10
3.57569e-10
1.14811e-09
3.82929e-09
1.54969e-08
1.02025e-07
8.5919e-07
5.65106e-06
2.10927e-05
4.68929e-05
8.03795e-05
0.000113151
0.000128263
0.000134699
0.000137522
0.000134106
0.000124695
0.000111104
9.5243e-05
7.87056e-05
6.26736e-05
4.79721e-05
3.51124e-05
2.41603e-05
1.54426e-05
8.27019e-06
3.39732e-06
9.94497e-07
1.90938e-07
2.07378e-08
1.09917e-09
3.26353e-10
9.88021e-22
9.77734e-22
9.65126e-22
9.49685e-22
9.30789e-22
9.07689e-22
8.79489e-22
8.45129e-22
8.03368e-22
7.5279e-22
6.91842e-22
6.18949e-22
5.3278e-22
4.74593e-22
4.82991e-22
4.95097e-22
5.13001e-22
5.39147e-22
5.73577e-22
9.96411e-22
1.00511e-21
1.0144e-21
1.02432e-21
1.03491e-21
1.04623e-21
1.05831e-21
1.07121e-21
1.08499e-21
1.0997e-21
1.11541e-21
1.13218e-21
3.2895e-21
3.47095e-16
5.43817e-14
6.06415e-13
3.13772e-12
1.18469e-11
4.02582e-11
1.32288e-10
4.36222e-10
1.47271e-09
5.46915e-09
2.93996e-08
2.42825e-07
1.97091e-06
1.05979e-05
3.12016e-05
6.10879e-05
9.70596e-05
0.000127443
0.000135952
0.000142144
0.000143442
0.000138039
0.000126991