/*--------------------------------*- C++ -*----------------------------------*\
| =========                 |                                                 |
| \\      /  F ield         | OpenFOAM: The Open Source CFD Toolbox           |
|  \\    /   O peration     | Version:  v2012                                 |
|   \\  /    A nd           | Website:  www.openfoam.com                      |
|    \\/     M anipulation  |                                                 |
\*---------------------------------------------------------------------------*/
FoamFile
{
    version     2.0;
    format      ascii;
    class       volScalarField;
    location    "1801";
    object      betann;
}
// * * * * * * * * * * * * * * * * * * * * * * * * * * * * * * * * * * * * * //

dimensions      [0 0 0 0 0 0 0];


internalField   nonuniform List<scalar> 
8000
(
1.01739
1.01739
1.01739
1.01739
1.01739
1.01739
1.01739
1.01739
1.01739
1.01739
1.01739
1.01739
1.01739
1.01739
1.01739
1.01739
1.01739
1.01739
1.01739
1.01739
1.01739
1.01739
1.01739
1.01739
1.01739
1.01739
1.01739
1.01739
1.01739
1.01739
1.01739
1.01739
1.01739
1.01739
1.01739
1.01739
1.01739
1.01739
1.01739
1.01739
1.01739
1.01739
1.01739
1.01739
1.01739
1.01739
1.01739
1.01739
1.01739
1.01739
1.01739
1.01739
1.01739
1.01739
1.01739
1.01739
1.01739
1.01739
1.01739
1.01739
1.01739
1.01739
1.01739
1.01739
1.01739
1.01739
1.01739
1.01739
1.01739
1.01739
1.01739
1.01739
1.01739
1.01739
1.01739
1.01739
1.01739
1.01739
1.01739
1.01739
1.01739
1.01739
1.01739
1.01739
1.01739
1.01739
1.01739
1.01739
1.01739
1.01739
1.01739
1.01739
1.01739
1.01739
1.01739
1.01739
1.01739
1.01739
1.01739
1.01739
1.01739
1.01739
1.01739
1.01739
1.01739
1.01739
1.01739
1.01739
1.01739
1.01739
1.01739
1.01739
1.01739
1.01739
1.01739
1.01739
1.01739
1.01739
1.01739
1.01739
1.01739
1.01739
1.01739
1.01739
1.01739
1.01739
1.01739
1.01739
1.01739
1.01739
1.01739
1.01739
1.01739
1.01739
1.01739
1.01739
1.01739
1.01739
1.01739
1.01739
1.01739
1.01739
1.01739
1.01739
1.01739
1.01739
1.01739
1.01739
1.01739
1.01739
1.01739
1.01739
1.01739
1.01739
1.01739
1.01739
1.01739
1.01739
1.01739
1.01739
1.01739
1.01739
1.01739
1.01739
1.01739
1.01739
1.01739
1.01739
1.01739
1.01739
1.01739
1.01738
1.01739
1.01739
1.01739
1.01739
1.01739
1.01739
1.01739
1.01739
1.01739
1.01739
1.01739
1.01739
1.01739
1.01739
1.01739
1.01739
1.01739
1.01739
0.943535
1.01738
1.01739
1.01739
1.01739
1.01739
1.01739
1.01739
1.01739
1.01739
1.01739
1.01739
1.01739
1.01739
1.01739
1.01739
1.01739
1.01739
1.01739
1.01739
0.944524
0.945845
1.01738
1.01739
1.01739
1.01739
1.01739
1.01739
1.01739
1.01739
1.01739
1.01739
1.01739
1.01739
1.01739
1.01739
1.01739
1.01739
1.01739
1.01739
1.01739
0.944999
0.994029
0.986751
1.01738
1.01739
1.01739
1.01739
1.01739
1.01739
1.01739
1.01739
1.01739
1.01739
1.01739
1.01739
1.01739
1.01739
1.01739
1.01739
1.01739
1.01739
1.01739
0.945221
0.878761
1.00976
0.996838
1.01738
1.01739
1.01739
1.01739
1.01739
1.01739
1.01739
1.01739
1.01739
1.01739
1.01739
1.01739
1.01739
1.01739
1.01739
1.01739
1.01739
1.01739
1.01739
0.962999
0.890017
1.00974
1.01411
0.999564
1.01738
1.01739
1.01739
1.01739
1.01739
1.01739
1.01739
1.01739
1.01739
1.01739
1.01739
1.01739
1.01739
1.01739
1.01739
1.01739
1.01739
1.01739
1.01739
1.0208
0.903072
1.00934
1.01411
1.01513
1.00092
1.01739
1.01739
1.01739
1.01739
1.01739
1.01739
1.01739
1.01739
1.01739
1.01739
1.01739
1.01739
1.01739
1.01739
1.01739
1.01739
1.01739
1.01739
1.01739
1.01767
0.914469
1.00955
1.01283
1.01553
1.01555
1.00181
1.01739
1.01739
1.01739
1.01739
1.01739
1.01739
1.01739
1.01739
1.01739
1.01739
1.01739
1.01739
1.01739
1.01739
1.01739
1.01739
1.01739
1.01739
1.01739
1.01749
0.924325
1.01014
1.01187
1.01453
1.01605
1.01582
1.0024
1.01739
1.01739
1.01739
1.01739
1.01739
1.01739
1.01739
1.01739
1.01739
1.01739
1.01739
1.01739
1.01739
1.01739
1.01739
1.01739
1.01739
1.01739
1.01739
1.01744
0.932173
0.918191
1.01152
1.01322
1.01534
1.01627
1.01599
1.00282
1.01739
1.01739
1.01739
1.01739
1.01739
1.01739
1.01739
1.01739
1.01739
1.01739
1.01739
1.01739
1.01739
1.01739
1.01739
1.01739
1.01739
1.01739
1.01739
1.01741
0.938296
0.922675
1.01167
1.01228
1.01414
1.01568
1.01637
1.0161
1.00312
1.01739
1.01739
1.01739
1.01739
1.01739
1.01739
1.01739
1.01739
1.01739
1.01739
1.01739
1.01739
1.01739
1.01739
1.01739
1.01739
1.01739
1.01739
1.01739
1.0174
0.936756
0.927616
1.01209
1.012
1.01297
1.01458
1.01576
1.01636
1.01616
1.00332
1.01739
1.01739
1.01739
1.01739
1.01739
1.01739
1.01739
1.01739
1.01739
1.01739
1.01739
1.01739
1.01739
1.01739
1.01739
1.01739
1.01739
1.01739
1.01739
1.01739
0.914625
0.932564
1.0127
1.01228
1.01204
1.01332
1.01467
1.01565
1.01626
1.01618
1.00342
1.01739
1.01739
1.01739
1.01739
1.01739
1.01739
1.01739
1.01739
1.01739
1.01739
1.01739
1.01739
1.01739
1.01739
1.01739
1.01739
1.01739
1.01739
1.01739
1.01739
0.935075
0.936969
1.01342
1.01279
1.01189
1.0121
1.0133
1.01445
1.01538
1.01606
1.01613
1.00342
1.01739
1.01739
1.01739
1.01739
1.01739
1.01739
1.01739
1.01739
1.01739
1.01739
1.01739
1.01739
1.01739
1.01739
1.01739
1.01739
1.01739
1.01739
1.01739
1.01739
0.945413
0.940698
1.01416
1.01335
1.01241
1.01124
1.0119
1.01289
1.01396
1.01489
1.01568
1.01599
1.00333
1.01739
1.01739
1.01739
1.01739
1.01739
1.01739
1.01739
1.01739
1.01739
1.01739
1.01739
1.01739
1.01739
1.01739
1.01739
1.01739
1.01739
1.01739
1.01739
1.01739
0.945539
0.887702
0.943272
1.01391
1.01313
1.01145
1.01041
1.0112
1.01211
1.01311
1.01408
1.01508
1.01581
1.00315
1.01739
1.01739
1.01739
1.01739
1.01739
1.01739
1.01739
1.01739
1.01739
1.01739
1.01739
1.01739
1.01739
1.01739
1.01739
1.01739
1.01739
1.01739
1.01739
1.01739
0.975836
0.887603
0.939267
1.01446
1.01378
1.01235
1.00994
1.00926
1.01006
1.0108
1.0117
1.01284
1.01435
1.01554
1.00296
1.01739
1.01739
1.01739
1.01739
1.01739
1.01739
1.01739
1.01739
1.01739
1.01739
1.01739
1.01739
1.01739
1.01739
1.01739
1.01739
1.01739
1.01739
1.01739
1.01739
1.01878
0.887285
0.941919
1.01499
1.01434
1.01333
1.01082
1.00795
1.00775
1.00819
1.00865
1.00959
1.01132
1.01352
1.01531
1.00282
1.01739
1.01739
1.01739
1.01739
1.01739
1.01739
1.01739
1.01739
1.01739
1.01739
1.01739
1.01739
1.01739
1.01739
1.01739
1.01739
1.01739
1.01739
1.01739
1.01739
1.01745
0.886356
0.919576
1.01549
1.01483
1.01411
1.01226
1.00833
1.0055
1.00535
1.00523
1.00549
1.00699
1.00964
1.01283
1.01515
1.00273
1.01739
1.01739
1.01739
1.01739
1.01739
1.01739
1.01739
1.01739
1.01739
1.01739
1.01739
1.01739
1.01739
1.01739
1.01739
1.01739
1.01739
1.01739
1.01739
1.01739
1.0174
0.902168
0.888495
1.01596
1.01526
1.0147
1.01351
1.01018
1.00496
1.00223
1.00165
1.00103
1.00167
1.00421
1.00826
1.01236
1.01506
1.00268
1.01739
1.01739
1.01739
1.01739
1.01739
1.01739
1.01739
1.01739
1.01739
1.01739
1.01739
1.01739
1.01739
1.01739
1.01739
1.01739
1.01739
1.01739
1.01739
1.01739
1.01739
0.945559
0.888318
0.980326
1.01567
1.01517
1.01439
1.01221
1.00681
1.00072
0.99776
0.996632
0.996187
0.997763
1.00194
1.00731
1.01211
1.015
1.00267
1.01739
1.01739
1.01739
1.01739
1.01739
1.01739
1.01739
1.01739
1.01739
1.01739
1.01739
1.01739
1.01739
1.01739
1.01739
1.01739
1.01739
1.01739
1.01739
1.01739
1.01739
0.992362
0.888099
0.944003
1.01604
1.01556
1.015
1.01371
1.00976
1.00209
0.995591
0.992224
0.991222
0.991528
0.994673
1.0004
1.00679
1.01195
1.01498
1.00268
1.01739
1.01739
1.01739
1.01739
1.01739
1.01739
1.01739
1.01739
1.01739
1.01739
1.01739
1.01739
1.01739
1.01739
1.01739
1.01739
1.01739
1.01739
1.01739
1.01739
1.01739
1.01784
0.887887
0.925122
1.01638
1.0159
1.01546
1.01466
1.01228
1.00579
0.996437
0.989945
0.985477
0.984787
0.987415
0.992637
0.999549
1.00648
1.01189
1.01497
1.0027
1.01739
1.01739
1.01739
1.01739
1.01739
1.01739
1.01739
1.01739
1.01739
1.01739
1.01739
1.01739
1.01739
1.01739
1.01739
1.01739
1.01739
1.01739
1.01739
1.01739
1.01739
1.01741
0.891925
0.887937
1.01667
1.01621
1.01582
1.01528
1.01393
1.00971
1.00046
0.990625
0.982213
0.976891
0.977109
0.982545
0.991514
0.999058
1.00635
1.01186
1.01498
1.00274
1.01739
1.01739
1.01739
1.01739
1.01739
1.01739
1.01739
1.01739
1.01739
1.01739
1.01739
1.01739
1.01739
1.01739
1.01739
1.01739
1.01739
1.01739
1.01739
1.01739
1.01739
1.01739
0.945566
0.888056
1.01919
1.01648
1.01613
1.01571
1.01492
1.01253
1.00578
0.994576
0.983144
0.973971
0.96988
0.972144
0.979675
0.990887
0.998855
1.0063
1.01186
1.01499
1.00278
1.01739
1.01739
1.01739
1.01739
1.01739
1.01739
1.01739
1.01739
1.01739
1.01739
1.01739
1.01739
1.01739
1.01739
1.01739
1.01739
1.01739
1.01739
1.01739
1.01739
1.01739
1.01739
0.995275
0.887943
0.94488
1.01672
1.01639
1.01605
1.01552
1.01422
1.0102
1.00085
0.988643
0.976101
0.967686
0.965499
0.969413
0.978103
0.990638
0.998785
1.00631
1.01189
1.015
1.00281
1.01739
1.01739
1.01739
1.01739
1.01739
1.01739
1.01739
1.01739
1.01739
1.01739
1.01739
1.01739
1.01739
1.01739
1.01739
1.01739
1.01739
1.01739
1.01739
1.01739
1.01739
1.01739
1.01763
0.8863
0.906182
1.01692
1.01662
1.01633
1.01594
1.01519
1.01301
1.00696
0.995224
0.981363
0.969693
0.963627
0.963109
0.967961
0.977425
0.990562
0.998809
1.00637
1.01192
1.01502
1.00285
1.01739
1.01739
1.01739
1.01739
1.01739
1.01739
1.01739
1.01739
1.01739
1.01739
1.01739
1.01739
1.01739
1.01739
1.01739
1.01739
1.01739
1.01739
1.01739
1.01739
1.01739
1.01739
1.0174
0.945561
0.887649
1.01712
1.01681
1.01657
1.01625
1.01577
1.0146
1.01121
1.00263
0.989866
0.975611
0.96525
0.961096
0.961783
0.967317
0.97714
0.990604
0.998916
1.00644
1.01196
1.01503
1.00289
1.01739
1.01739
1.01739
1.01739
1.01739
1.01739
1.01739
1.01739
1.01739
1.01739
1.01739
1.01739
1.01739
1.01739
1.01739
1.01739
1.01739
1.01739
1.01739
1.01739
1.01739
1.01739
1.01739
0.945781
0.887872
0.947
1.01698
1.01676
1.01651
1.01615
1.01548
1.0137
1.0086
0.997645
0.983296
0.970285
0.962214
0.959526
0.96115
0.967037
0.977132
0.990751
0.999039
1.00652
1.01199
1.01505
1.00293
1.01739
1.01739
1.01739
1.01739
1.01739
1.01739
1.01739
1.01739
1.01739
1.01739
1.01739
1.01739
1.01739
1.01739
1.01739
1.01739
1.01739
1.01739
1.01739
1.01739
1.01739
1.01739
1.01739
1.01942
0.886798
0.945322
1.01711
1.01692
1.01672
1.01644
1.016
1.01506
1.01233
1.00511
0.992527
0.978059
0.966362
0.960134
0.958646
0.96084
0.967027
0.977367
0.990919
0.999179
1.0066
1.01204
1.01507
1.00297
1.01739
1.01739
1.01739
1.01739
1.01739
1.01739
1.01739
1.01739
1.01739
1.01739
1.01739
1.01739
1.01739
1.01739
1.01739
1.01739
1.01739
1.01739
1.01739
1.01739
1.01739
1.01739
1.01739
1.01741
0.941991
0.882069
1.01721
1.01705
1.01688
1.01666
1.01635
1.0158
1.0144
1.01035
1.00073
0.987132
0.973478
0.963473
0.958797
0.958118
0.960785
0.967242
0.977642
0.991107
0.999318
1.00669
1.01209
1.01509
1.00301
1.01739
1.01739
1.01739
1.01739
1.01739
1.01739
1.01739
1.01739
1.01739
1.01739
1.01739
1.01739
1.01739
1.01739
1.01739
1.01739
1.01739
1.01739
1.01739
1.01739
1.01739
1.01739
1.01739
1.01739
0.945584
0.887462
1.01821
1.01715
1.01702
1.01685
1.0166
1.01624
1.0155
1.01341
1.00749
0.995728
0.981548
0.969472
0.961426
0.957885
0.957857
0.960939
0.967492
0.977961
0.991293
0.999476
1.0068
1.01214
1.01511
1.00305
1.01739
1.01739
1.01739
1.01739
1.01739
1.01739
1.01739
1.01739
1.01739
1.01739
1.01739
1.01739
1.01739
1.01739
1.01739
1.01739
1.01739
1.01739
1.01739
1.01739
1.01739
1.01739
1.01739
1.01739
1.02205
0.88537
0.945443
1.01723
1.01712
1.01699
1.0168
1.01654
1.01611
1.01505
1.01185
1.00353
0.990949
0.977404
0.966419
0.959912
0.957299
0.957814
0.961129
0.967784
0.978278
0.991503
0.999653
1.0069
1.01219
1.01514
1.00309
1.01739
1.01739
1.01739
1.01739
1.01739
1.01739
1.01739
1.01739
1.01739
1.01739
1.01739
1.01739
1.01739
1.01739
1.01739
1.01739
1.01739
1.01739
1.01739
1.01739
1.01739
1.01739
1.01739
1.01739
1.01742
0.94557
0.902452
1.01729
1.0172
1.0171
1.01695
1.01675
1.01647
1.01591
1.01429
1.00933
0.998853
0.985805
0.973718
0.964046
0.958825
0.956973
0.957836
0.961357
0.968075
0.978658
0.99174
0.999833
1.00701
1.01224
1.01516
1.00313
1.01739
1.01739
1.01739
1.01739
1.01739
1.01739
1.01739
1.01739
1.01739
1.01739
1.01739
1.01739
1.01739
1.01739
1.01739
1.01739
1.01739
1.01739
1.01739
1.01739
1.01739
1.01739
1.01739
1.01739
1.01739
0.945592
0.885616
1.02601
1.01726
1.01718
1.01707
1.01692
1.01671
1.01638
1.01557
1.01293
1.00587
0.994191
0.981204
0.970274
0.962241
0.958255
0.956758
0.957918
0.961588
0.96842
0.979115
0.99198
1.00002
1.00712
1.01229
1.01518
1.00316
1.01739
1.01739
1.01739
1.01739
1.01739
1.01739
1.01739
1.01739
1.01739
1.01739
1.01739
1.01739
1.01739
1.01739
1.01739
1.01739
1.01739
1.01739
1.01739
1.01739
1.01739
1.01739
1.01739
1.01739
1.01739
1.01971
0.878918
0.945513
1.01731
1.01724
1.01717
1.01705
1.01689
1.01666
1.01624
1.01493
1.01076
1.0017
0.990061
0.977681
0.967517
0.960882
0.957819
0.956635
0.95802
0.961869
0.968804
0.979586
0.992231
1.0002
1.00723
1.01234
1.01519
1.0032
1.01739
1.01739
1.01739
1.01739
1.01739
1.01739
1.01739
1.01739
1.01739
1.01739
1.01739
1.01739
1.01739
1.01739
1.01739
1.01739
1.01739
1.01739
1.01739
1.01739
1.01739
1.01739
1.01739
1.01739
1.01739
1.0174
0.945574
0.922574
1.01734
1.01729
1.01723
1.01715
1.01702
1.01686
1.0166
1.01596
1.01375
1.00776
0.997271
0.985304
0.974644
0.965336
0.959818
0.957458
0.956559
0.958181
0.962183
0.969207
0.980091
0.992476
1.00039
1.00733
1.01239
1.01521
1.00323
1.01739
1.01739
1.01739
1.01739
1.01739
1.01739
1.01739
1.01739
1.01739
1.01739
1.01739
1.01739
1.01739
1.01739
1.01739
1.01739
1.01739
1.01739
1.01739
1.01739
1.01739
1.01739
1.01739
1.01739
1.01739
1.01739
0.946301
0.88066
1.00474
1.01732
1.01728
1.01722
1.01713
1.017
1.01682
1.01649
1.01541
1.01186
1.00412
0.993107
0.981323
0.971485
0.96359
0.959163
0.957145
0.95656
0.958385
0.962519
0.969644
0.980587
0.992724
1.00057
1.00743
1.01244
1.01523
1.00326
1.01739
1.01739
1.01739
1.01739
1.01739
1.01739
1.01739
1.01739
1.01739
1.01739
1.01739
1.01739
1.01739
1.01739
1.01739
1.01739
1.01739
1.01739
1.01739
1.01739
1.01739
1.01739
1.01739
1.01739
1.01739
1.01739
1.01778
0.921715
0.945549
1.01735
1.01731
1.01727
1.0172
1.01711
1.01698
1.01678
1.01625
1.01436
1.00931
1.0001
0.98953
0.978201
0.968865
0.96219
0.958673
0.956892
0.956624
0.958623
0.962892
0.970078
0.981096
0.992959
1.00073
1.00754
1.01248
1.01525
1.00329
1.01739
1.01739
1.01739
1.01739
1.01739
1.01739
1.01739
1.01739
1.01739
1.01739
1.01739
1.01739
1.01739
1.01739
1.01739
1.01739
1.01739
1.01739
1.01739
1.01739
1.01739
1.01739
1.01739
1.01739
1.01739
1.01739
1.01739
0.945576
0.927266
1.01738
1.01734
1.01731
1.01726
1.01719
1.0171
1.01696
1.01668
1.01575
1.01275
1.00618
0.996041
0.985129
0.975695
0.966716
0.961042
0.95827
0.956693
0.956738
0.958905
0.963265
0.970526
0.981577
0.993185
1.0009
1.00763
1.01253
1.01527
1.00333
1.01739
1.01739
1.01739
1.01739
1.01739
1.01739
1.01739
1.01739
1.01739
1.01739
1.01739
1.01739
1.01739
1.01739
1.01739
1.01739
1.01739
1.01739
1.01739
1.01739
1.01739
1.01739
1.01739
1.01739
1.01739
1.01739
1.01739
1.00346
0.902196
0.946368
1.01735
1.01733
1.0173
1.01725
1.01718
1.01708
1.01692
1.01647
1.01485
1.0106
1.00261
0.992324
0.981581
0.972666
0.964932
0.960128
0.957932
0.956537
0.956907
0.959195
0.963654
0.970951
0.982044
0.993415
1.00106
1.00772
1.01257
1.01529
1.00336
1.01739
1.01739
1.01739
1.01739
1.01739
1.01739
1.01739
1.01739
1.01739
1.01739
1.01739
1.01739
1.01739
1.01739
1.01739
1.01739
1.01739
1.01739
1.01739
1.01739
1.01739
1.01739
1.01739
1.01739
1.01739
1.01739
1.01739
1.01744
0.945575
0.945566
1.01737
1.01735
1.01733
1.01729
1.01724
1.01717
1.01706
1.01684
1.01602
1.01352
1.00793
0.998786
0.989037
0.978716
0.970088
0.963484
0.959587
0.957649
0.956422
0.957096
0.959507
0.964025
0.971366
0.982527
0.993631
1.00122
1.00782
1.01262
1.0153
1.00338
1.01739
1.01739
1.01739
1.01739
1.01739
1.01739
1.01739
1.01739
1.01739
1.01739
1.01739
1.01739
1.01739
1.01739
1.01739
1.01739
1.01739
1.01739
1.01739
1.01739
1.01739
1.01739
1.01739
1.01739
1.01739
1.01739
1.01739
1.01739
0.945597
0.930188
1.01853
1.01736
1.01735
1.01732
1.01729
1.01724
1.01716
1.01704
1.01664
1.01527
1.0117
1.00478
0.995077
0.985062
0.976337
0.967948
0.962295
0.959156
0.957421
0.956405
0.957314
0.959807
0.964389
0.971799
0.982978
0.993846
1.00138
1.0079
1.01266
1.01532
1.00341
1.01739
1.01739
1.01739
1.01739
1.01739
1.01739
1.01739
1.01739
1.01739
1.01739
1.01739
1.01739
1.01739
1.01739
1.01739
1.01739
1.01739
1.01739
1.01739
1.01739
1.01739
1.01739
1.01739
1.01739
1.01739
1.01739
1.01739
1.01739
1.01838
0.945575
0.945568
1.01737
1.01736
1.01734
1.01732
1.01728
1.01723
1.01715
1.01695
1.01625
1.01415
1.0094
1.0013
0.991729
0.981807
0.973657
0.966164
0.961322
0.958799
0.957228
0.9565
0.957532
0.960107
0.964772
0.972204
0.983433
0.994057
1.00153
1.00799
1.0127
1.01534
1.00344
1.01739
1.01739
1.01739
1.01739
1.01739
1.01739
1.01739
1.01739
1.01739
1.01739
1.01739
1.01739
1.01739
1.01739
1.01739
1.01739
1.01739
1.01739
1.01739
1.01739
1.01739
1.01739
1.01739
1.01739
1.01739
1.01739
1.01739
1.01739
1.01739
0.945576
0.945573
1.01737
1.01737
1.01736
1.01734
1.01732
1.01728
1.01723
1.01712
1.01677
1.01562
1.01262
1.00667
0.997703
0.988608
0.979126
0.971134
0.964683
0.960541
0.958496
0.957069
0.956609
0.957756
0.960429
0.965133
0.972616
0.983886
0.99426
1.00168
1.00808
1.01274
1.01535
1.00347
1.01739
1.01739
1.01739
1.01739
1.01739
1.01739
1.01739
1.01739
1.01739
1.01739
1.01739
1.01739
1.01739
1.01739
1.01739
1.01739
1.01739
1.01739
1.01739
1.01739
1.01739
1.01739
1.01739
1.01739
1.01739
1.01739
1.01739
1.01739
1.01739
1.0098
0.945575
0.963091
1.01737
1.01737
1.01736
1.01734
1.01731
1.01728
1.01722
1.01703
1.01645
1.0147
1.01068
1.00356
0.994277
0.984987
0.976835
0.969004
0.963469
0.960014
0.958241
0.956929
0.956737
0.958006
0.960733
0.965503
0.973028
0.984321
0.994464
1.00183
1.00817
1.01278
1.01537
1.00349
1.01739
1.01739
1.01739
1.01739
1.01739
1.01739
1.01739
1.01739
1.01739
1.01739
1.01739
1.01739
1.01739
1.01739
1.01739
1.01739
1.01739
1.01739
1.01739
1.01739
1.01739
1.01739
1.01739
1.01739
1.01739
1.01739
1.01739
1.01739
1.01739
1.01742
0.945576
0.945574
1.01738
1.01737
1.01736
1.01735
1.01734
1.01731
1.01728
1.01718
1.01688
1.01593
1.01342
1.00833
1.00017
0.99123
0.981962
0.974435
0.967229
0.962464
0.95964
0.958018
0.956811
0.956899
0.958247
0.96105
0.965874
0.973426
0.984766
0.994666
1.00197
1.00825
1.01282
1.01538
1.00352
1.01739
1.01739
1.01739
1.01739
1.01739
1.01739
1.01739
1.01739
1.01739
1.01739
1.01739
1.01739
1.01739
1.01739
1.01739
1.01739
1.01739
1.01739
1.01739
1.01739
1.01739
1.01739
1.01739
1.01739
1.01739
1.01739
1.01739
1.01739
1.01739
1.01739
0.946123
0.945575
1.01798
1.01737
1.01737
1.01736
1.01735
1.01734
1.01731
1.01726
1.01711
1.01662
1.01517
1.01179
1.00555
0.996749
0.988209
0.979407
0.971968
0.965744
0.961647
0.959315
0.957826
0.956765
0.957062
0.958504
0.961372
0.966235
0.973837
0.98521
0.994862
1.00211
1.00833
1.01286
1.0154
1.00354
1.01739
1.01739
1.01739
1.01739
1.01739
1.01739
1.01739
1.01739
1.01739
1.01739
1.01739
1.01739
1.01739
1.01739
1.01739
1.01739
1.01739
1.01739
1.01739
1.01739
1.01739
1.01739
1.01739
1.01739
1.01739
1.01739
1.01739
1.01739
1.01739
1.01739
1.01762
0.945576
0.945575
1.01738
1.01737
1.01737
1.01736
1.01735
1.01734
1.01731
1.01722
1.01698
1.0162
1.01412
1.00975
1.00243
0.993562
0.984854
0.977187
0.969871
0.96452
0.960975
0.959034
0.95767
0.956831
0.957247
0.958769
0.961688
0.966611
0.974249
0.985645
0.995059
1.00225
1.00841
1.0129
1.01541
1.00357
1.01739
1.01739
1.01739
1.01739
1.01739
1.01739
1.01739
1.01739
1.01739
1.01739
1.01739
1.01739
1.01739
1.01739
1.01739
1.01739
1.01739
1.01739
1.01739
1.01739
1.01739
1.01739
1.01739
1.01739
1.01739
1.01739
1.01739
1.01739
1.01739
1.01739
1.01739
0.945578
0.945576
1.01739
1.01738
1.01737
1.01737
1.01736
1.01735
1.01735
1.01729
1.01716
1.01676
1.01558
1.01274
1.0073
0.99912
0.990764
0.982012
0.975007
0.968123
0.963503
0.960423
0.9588
0.95753
0.956931
0.957449
0.959035
0.962022
0.96699
0.974655
0.986085
0.995243
1.00237
1.00848
1.01293
1.01542
1.00359
1.01739
1.01739
1.01739
1.01739
1.01739
1.01739
1.01739
1.01739
1.01739
1.01739
1.01739
1.01739
1.01739
1.01739
1.01739
1.01739
1.01739
1.01739
1.01739
1.01739
1.01739
1.01739
1.01739
1.01739
1.01739
1.01739
1.01739
1.01739
1.01739
1.01739
1.01739
1.01984
0.945576
0.946609
1.01738
1.01738
1.01737
1.01737
1.01736
1.01737
1.01734
1.01726
1.01706
1.01643
1.01472
1.01098
1.00447
0.995869
0.987788
0.979559
0.972607
0.966661
0.962657
0.960074
0.958592
0.957416
0.957055
0.957657
0.959322
0.96236
0.967365
0.975067
0.986493
0.995418
1.00251
1.00856
1.01297
1.01544
1.00361
1.01739
1.01739
1.01739
1.01739
1.01739
1.01739
1.01739
1.01739
1.01739
1.01739
1.01739
1.01739
1.01739
1.01739
1.01739
1.01739
1.01739
1.01739
1.01739
1.01739
1.01739
1.01739
1.01739
1.01739
1.01739
1.01739
1.01739
1.01739
1.01739
1.01739
1.01739
1.0174
0.945576
0.945576
1.01738
1.01738
1.01738
1.01737
1.01737
1.01738
1.01736
1.01731
1.01721
1.01689
1.01593
1.01355
1.00883
1.00135
0.992893
0.984646
0.97741
0.970578
0.965434
0.961968
0.959783
0.958416
0.957324
0.957193
0.957891
0.959613
0.962698
0.967746
0.975449
0.986887
0.995598
1.00263
1.00863
1.013
1.01545
1.00364
1.01739
1.01739
1.01739
1.01739
1.01739
1.01739
1.01739
1.01739
1.01739
1.01739
1.01739
1.01739
1.01739
1.01739
1.01739
1.01739
1.01739
1.01739
1.01739
1.01739
1.01739
1.01739
1.01739
1.01739
1.01739
1.01739
1.01739
1.01739
1.01739
1.01739
1.01739
1.01739
1.01763
0.945576
1.01899
1.01738
1.01738
1.01738
1.01737
1.01738
1.01738
1.01734
1.01729
1.01713
1.01662
1.01522
1.01204
1.0063
0.998118
0.9903
0.981961
0.975418
0.96886
0.964422
0.961395
0.959535
0.958268
0.957378
0.957361
0.958134
0.959907
0.963042
0.968101
0.97582
0.987294
0.995771
1.00275
1.00871
1.01304
1.01547
1.00366
1.01739
1.01739
1.01739
1.01739
1.01739
1.01739
1.01739
1.01739
1.01739
1.01739
1.01739
1.01739
1.01739
1.01739
1.01739
1.01739
1.01739
1.01739
1.01739
1.01739
1.01739
1.01739
1.01739
1.01739
1.01739
1.01739
1.01739
1.01739
1.01739
1.01739
1.01739
1.01739
1.01741
0.945576
0.945576
1.01738
1.01738
1.01738
1.01738
1.01738
1.01739
1.01736
1.01733
1.01725
1.01699
1.01622
1.01424
1.01017
1.00341
0.995028
0.987328
0.979595
0.973081
0.967431
0.963574
0.960931
0.959323
0.958138
0.957467
0.957545
0.958384
0.96021
0.963363
0.968446
0.976206
0.987687
0.99594
1.00288
1.00878
1.01307
1.01548
1.00368
1.01739
1.01739
1.01739
1.01739
1.01739
1.01739
1.01739
1.01739
1.01739
1.01739
1.01739
1.01739
1.01739
1.01739
1.01739
1.01739
1.01739
1.01739
1.01739
1.01739
1.01739
1.01739
1.01739
1.01739
1.01739
1.01739
1.01739
1.01739
1.01739
1.01739
1.01739
1.01739
1.01739
0.961853
0.945576
1.01935
1.01738
1.01738
1.01738
1.01738
1.01739
1.01738
1.01736
1.01731
1.01719
1.01678
1.01564
1.01296
1.00792
1.00028
0.992245
0.984376
0.977515
0.971123
0.966231
0.962876
0.960561
0.959136
0.958035
0.957579
0.95774
0.958645
0.960493
0.963678
0.968808
0.976579
0.988074
0.996112
1.003
1.00885
1.01311
1.0155
1.00371
1.01739
1.01739
1.01739
1.01739
1.01739
1.01739
1.01739
1.01739
1.01739
1.01739
1.01739
1.01739
1.01739
1.01739
1.01739
1.01739
1.01739
1.01739
1.01739
1.01739
1.01739
1.01739
1.01739
1.01739
1.01739
1.01739
1.01739
1.01739
1.01739
1.01739
1.01739
1.01739
1.01739
1.01745
0.945576
0.945577
1.01738
1.01738
1.01738
1.01738
1.01738
1.01739
1.01737
1.01735
1.01728
1.01708
1.01646
1.01483
1.01134
1.00527
0.997134
0.989835
0.981811
0.975661
0.969468
0.965232
0.962304
0.960261
0.958981
0.958041
0.957711
0.957952
0.95889
0.960772
0.964009
0.969157
0.976947
0.988471
0.996278
1.00312
1.00893
1.01315
1.01551
1.00373
1.01739
1.01739
1.01739
1.01739
1.01739
1.01739
1.01739
1.01739
1.01739
1.01739
1.01739
1.01739
1.01739
1.01739
1.01739
1.01739
1.01739
1.01739
1.01739
1.01739
1.01739
1.01739
1.01739
1.01739
1.01739
1.01739
1.01739
1.01739
1.01739
1.01739
1.01739
1.01739
1.01739
1.01739
0.946885
0.945576
1.01741
1.01738
1.01738
1.01738
1.01738
1.0174
1.01738
1.01736
1.01733
1.01723
1.01691
1.01599
1.01375
1.00934
1.00231
0.99421
0.986823
0.979527
0.973431
0.968082
0.964404
0.96183
0.960033
0.958851
0.958103
0.957867
0.958153
0.959133
0.961069
0.96433
0.969504
0.977327
0.988837
0.996449
1.00325
1.009
1.01318
1.01552
1.00375
1.01739
1.01739
1.01739
1.01739
1.01739
1.01739
1.01739
1.01739
1.01739
1.01739
1.01739
1.01739
1.01739
1.01739
1.01739
1.01739
1.01739
1.01739
1.01739
1.01739
1.01739
1.01739
1.01739
1.01739
1.01739
1.01739
1.01739
1.01739
1.01739
1.01739
1.01739
1.01739
1.01739
1.01739
1.01755
0.945576
0.945709
1.01738
1.01738
1.01738
1.01738
1.0174
1.01739
1.01737
1.01736
1.01731
1.01715
1.01665
1.01533
1.01235
1.00695
0.9992
0.991611
0.984033
0.977537
0.971547
0.966926
0.963712
0.96145
0.959863
0.958801
0.958195
0.958017
0.958356
0.959397
0.961359
0.96465
0.969862
0.977695
0.989102
0.996628
1.00337
1.00907
1.01322
1.01554
1.00378
1.01739
1.01739
1.01739
1.01739
1.01739
1.01739
1.01739
1.01739
1.01739
1.01739
1.01739
1.01739
1.01739
1.01739
1.01739
1.01739
1.01739
1.01739
1.01739
1.01739
1.01739
1.01739
1.01739
1.01739
1.01739
1.01739
1.01739
1.01739
1.01739
1.01739
1.01739
1.01739
1.01739
1.01739
1.01739
0.945703
0.945576
1.01739
1.01738
1.01738
1.01738
1.01739
1.0174
1.01738
1.01737
1.01735
1.01727
1.01702
1.01628
1.01442
1.01059
1.0042
0.996175
0.989301
0.981568
0.975783
0.969969
0.965955
0.963144
0.961148
0.959748
0.958821
0.958289
0.958174
0.958582
0.959655
0.961649
0.964981
0.97021
0.978083
0.989383
0.996801
1.0035
1.00915
1.01326
1.01555
1.0038
1.01739
1.01739
1.01739
1.01739
1.01739
1.01739
1.01739
1.01739
1.01739
1.01739
1.01739
1.01739
1.01739
1.01739
1.01739
1.01739
1.01739
1.01739
1.01739
1.01739
1.01739
1.01739
1.01739
1.01739
1.01739
1.01739
1.01739
1.01739
1.01739
1.01739
1.01739
1.01739
1.01739
1.01739
1.01739
1.01782
0.945576
0.953631
1.01738
1.01738
1.01738
1.01739
1.0174
1.01738
1.01738
1.01736
1.01733
1.0172
1.01681
1.01574
1.01322
1.00846
1.00119
0.993407
0.986279
0.979374
0.973668
0.96864
0.965151
0.96268
0.960918
0.959682
0.95885
0.958395
0.958357
0.958807
0.959917
0.961952
0.965304
0.97057
0.978496
0.989656
0.996974
1.00363
1.00923
1.0133
1.01557
1.00382
1.01739
1.01739
1.01739
1.01739
1.01739
1.01739
1.01739
1.01739
1.01739
1.01739
1.01739
1.01739
1.01739
1.01739
1.01739
1.01739
1.01739
1.01739
1.01739
1.01739
1.01739
1.01739
1.01739
1.01739
1.01739
1.01739
1.01739
1.01739
1.01739
1.01739
1.01739
1.01739
1.01739
1.01739
1.01739
1.01739
0.945595
0.945576
1.01738
1.01738
1.01738
1.01738
1.01739
1.01739
1.01738
1.01737
1.01736
1.0173
1.0171
1.01651
1.01499
1.01169
1.00593
0.998119
0.990986
0.983626
0.977481
0.971881
0.967532
0.964483
0.96231
0.960751
0.959637
0.958898
0.958532
0.958545
0.959038
0.960191
0.962247
0.965637
0.970949
0.978899
0.989931
0.997151
1.00375
1.0093
1.01333
1.01558
1.00384
1.01739
1.01739
1.01739
1.01739
1.01739
1.01739
1.01739
1.01739
1.01739
1.01739
1.01739
1.01739
1.01739
1.01739
1.01739
1.01739
1.01739
1.01739
1.01739
1.01739
1.01739
1.01739
1.01739
1.01739
1.01739
1.01739
1.01739
1.01739
1.01739
1.01739
1.01739
1.01739
1.01739
1.01739
1.01739
1.01739
1.01846
0.945576
1.00883
1.01738
1.01738
1.01738
1.01739
1.01739
1.01739
1.01738
1.01737
1.01734
1.01725
1.01694
1.01608
1.01398
1.00979
1.00307
0.99523
0.988547
0.981255
0.975823
0.970381
0.966604
0.963941
0.96202
0.960617
0.959618
0.958983
0.958679
0.958741
0.959283
0.96046
0.962553
0.965987
0.97132
0.979306
0.990214
0.997329
1.00388
1.00937
1.01337
1.01559
1.00388
1.01739
1.01739
1.01739
1.01739
1.01739
1.01739
1.01739
1.01739
1.01739
1.01739
1.01739
1.01739
1.01739
1.01739
1.01739
1.01739
1.01739
1.01739
1.01739
1.01739
1.01739
1.01739
1.01739
1.01739
1.01739
1.01739
1.01739
1.01739
1.01739
1.01739
1.01739
1.01739
1.01739
1.01739
1.01739
1.01739
1.01739
0.945583
0.945576
1.01738
1.01738
1.01738
1.01738
1.0174
1.01739
1.01738
1.01738
1.01736
1.01732
1.01717
1.0167
1.01546
1.01265
1.00749
1.00003
0.992627
0.985693
0.97917
0.973824
0.969122
0.965847
0.9635
0.961779
0.960519
0.959642
0.959083
0.958838
0.958955
0.959525
0.960739
0.962875
0.966331
0.971696
0.979727
0.9905
0.997504
1.004
1.00946
1.0134
1.01562
1.01739
1.01739
1.01739
1.01739
1.01739
1.01739
1.01739
1.01739
1.01739
1.01739
1.01739
1.01739
1.01739
1.01739
1.01739
1.01739
1.01739
1.01739
1.01739
1.01739
1.01739
1.01739
1.01739
1.01739
1.01739
1.01739
1.01739
1.01739
1.01739
1.01739
1.01739
1.01739
1.01739
1.01739
1.01739
1.01739
1.01739
1.01966
0.945576
1.02476
1.01738
1.01738
1.01738
1.01741
1.01739
1.01738
1.01738
1.01737
1.01735
1.01728
1.01704
1.01636
1.01462
1.01097
1.00482
0.997042
0.990358
0.98316
0.977371
0.972142
0.968087
0.965219
0.96313
0.961587
0.960473
0.959689
0.9592
0.959018
0.959169
0.959777
0.961035
0.963192
0.966682
0.972087
0.980152
0.990783
0.997677
1.00414
1.00951
1.01347
1.01739
1.01739
1.01739
1.01739
1.01739
1.01739
1.01739
1.01739
1.01739
1.01739
1.01739
1.01739
1.01739
1.01739
1.01739
1.01739
1.01739
1.01739
1.01739
1.01739
1.01739
1.01739
1.01739
1.01739
1.01739
1.01739
1.01739
1.01739
1.01739
1.01739
1.01739
1.01739
1.01739
1.01739
1.01739
1.01739
1.01739
1.01739
0.94558
0.945577
1.01738
1.01738
1.01738
1.0174
1.01739
1.01738
1.01738
1.01738
1.01737
1.01734
1.01722
1.01686
1.01586
1.01348
1.0089
1.00187
0.994296
0.987782
0.980888
0.975799
0.970744
0.967223
0.96469
0.962825
0.961458
0.960457
0.959759
0.959343
0.959201
0.959393
0.960047
0.961327
0.963517
0.967046
0.972481
0.980573
0.991063
0.997866
1.00424
1.00966
1.01739
1.01739
1.01739
1.01739
1.01739
1.01739
1.01739
1.01739
1.01739
1.01739
1.01739
1.01739
1.01739
1.01739
1.01739
1.01739
1.01739
1.01739
1.01739
1.01739
1.01739
1.01739
1.01739
1.01739
1.01739
1.01739
1.01739
1.01739
1.01739
1.01739
1.01739
1.01739
1.01739
1.01739
1.01739
1.01739
1.01739
1.01739
1.02132
0.945576
1.01864
1.01738
1.01738
1.01739
1.01739
1.01738
1.01738
1.01738
1.01738
1.01736
1.01731
1.01712
1.01658
1.01515
1.012
1.00643
0.99885
0.991869
0.985072
0.978918
0.973937
0.969578
0.966493
0.964247
0.962596
0.961369
0.960471
0.959858
0.959492
0.959396
0.959637
0.960315
0.961628
0.963856
0.967415
0.972872
0.980991
0.991371
0.998009
1.00447
1.01739
1.01739
1.01739
1.01739
1.01739
1.01739
1.01739
1.01739
1.01739
1.01739
1.01739
1.01739
1.01739
1.01739
1.01739
1.01739
1.01739
1.01739
1.01739
1.01739
1.01739
1.01739
1.01739
1.01739