/*--------------------------------*- C++ -*----------------------------------*\
| =========                 |                                                 |
| \\      /  F ield         | OpenFOAM: The Open Source CFD Toolbox           |
|  \\    /   O peration     | Version:  v2012                                 |
|   \\  /    A nd           | Website:  www.openfoam.com                      |
|    \\/     M anipulation  |                                                 |
\*---------------------------------------------------------------------------*/
FoamFile
{
    version     2.0;
    format      ascii;
    class       volVectorField;
    location    "1801";
    object      C;
}
// * * * * * * * * * * * * * * * * * * * * * * * * * * * * * * * * * * * * * //

dimensions      [0 1 0 0 0 0 0];


internalField   nonuniform List<vector> 
8000
(
(-0.275972 1.78411e-05 0.05)
(-0.22368 1.78411e-05 0.05)
(-0.275972 5.49472e-05 0.05)
(-0.181119 1.78411e-05 0.05)
(-0.22368 5.49472e-05 0.05)
(-0.275972 9.50145e-05 0.05)
(-0.146477 1.78411e-05 0.05)
(-0.181118 5.49472e-05 0.05)
(-0.22368 9.50145e-05 0.05)
(-0.275972 0.000138279 0.05)
(-0.118281 1.78412e-05 0.05)
(-0.146477 5.49472e-05 0.05)
(-0.181119 9.50146e-05 0.05)
(-0.22368 0.000138279 0.05)
(-0.275972 0.000184996 0.05)
(-0.0953328 1.78411e-05 0.05)
(-0.118281 5.49472e-05 0.05)
(-0.146477 9.50145e-05 0.05)
(-0.181118 0.000138279 0.05)
(-0.22368 0.000184996 0.05)
(-0.275972 0.000235441 0.05)
(-0.0766546 1.78411e-05 0.05)
(-0.0953328 5.49472e-05 0.05)
(-0.118282 9.50145e-05 0.05)
(-0.146477 0.000138279 0.05)
(-0.181119 0.000184996 0.05)
(-0.22368 0.000235441 0.05)
(-0.275972 0.000289912 0.05)
(-0.061452 1.78412e-05 0.05)
(-0.0766546 5.49472e-05 0.05)
(-0.0953329 9.50145e-05 0.05)
(-0.118281 0.000138279 0.05)
(-0.146477 0.000184996 0.05)
(-0.181118 0.000235441 0.05)
(-0.22368 0.000289912 0.05)
(-0.275972 0.00034873 0.05)
(-0.0490783 1.78411e-05 0.05)
(-0.061452 5.49472e-05 0.05)
(-0.0766546 9.50145e-05 0.05)
(-0.0953328 0.000138279 0.05)
(-0.118282 0.000184996 0.05)
(-0.146477 0.000235442 0.05)
(-0.181119 0.000289912 0.05)
(-0.22368 0.00034873 0.05)
(-0.275972 0.000412241 0.05)
(-0.0390072 1.78412e-05 0.05)
(-0.0490784 5.49472e-05 0.05)
(-0.061452 9.50146e-05 0.05)
(-0.0766546 0.000138279 0.05)
(-0.0953328 0.000184996 0.05)
(-0.118282 0.000235441 0.05)
(-0.146477 0.000289912 0.05)
(-0.181119 0.00034873 0.05)
(-0.22368 0.000412241 0.05)
(-0.275972 0.00048082 0.05)
(-0.0308101 1.78412e-05 0.05)
(-0.0390072 5.49472e-05 0.05)
(-0.0490783 9.50146e-05 0.05)
(-0.061452 0.000138279 0.05)
(-0.0766546 0.000184996 0.05)
(-0.0953328 0.000235442 0.05)
(-0.118281 0.000289912 0.05)
(-0.146477 0.00034873 0.05)
(-0.181119 0.000412241 0.05)
(-0.22368 0.000480821 0.05)
(-0.275972 0.000554873 0.05)
(-0.0241383 1.78412e-05 0.05)
(-0.0308101 5.49472e-05 0.05)
(-0.0390072 9.50145e-05 0.05)
(-0.0490783 0.000138279 0.05)
(-0.061452 0.000184996 0.05)
(-0.0766546 0.000235442 0.05)
(-0.0953328 0.000289912 0.05)
(-0.118281 0.00034873 0.05)
(-0.146477 0.000412241 0.05)
(-0.181119 0.00048082 0.05)
(-0.22368 0.000554873 0.05)
(-0.275972 0.000634835 0.05)
(-0.0187081 1.78411e-05 0.05)
(-0.0241383 5.49472e-05 0.05)
(-0.0308101 9.50145e-05 0.05)
(-0.0390072 0.000138279 0.05)
(-0.0490784 0.000184996 0.05)
(-0.061452 0.000235441 0.05)
(-0.0766546 0.000289913 0.05)
(-0.0953328 0.00034873 0.05)
(-0.118281 0.000412241 0.05)
(-0.146477 0.00048082 0.05)
(-0.181118 0.000554873 0.05)
(-0.22368 0.000634835 0.05)
(-0.275972 0.000721177 0.05)
(-0.0142883 1.78411e-05 0.05)
(-0.0187081 5.49472e-05 0.05)
(-0.0241383 9.50146e-05 0.05)
(-0.0308101 0.000138279 0.05)
(-0.0390072 0.000184996 0.05)
(-0.0490783 0.000235441 0.05)
(-0.061452 0.000289912 0.05)
(-0.0766546 0.00034873 0.05)
(-0.0953329 0.000412241 0.05)
(-0.118281 0.00048082 0.05)
(-0.146477 0.000554873 0.05)
(-0.181118 0.000634835 0.05)
(-0.22368 0.000721177 0.05)
(-0.275972 0.00081441 0.05)
(-0.0106909 1.78412e-05 0.05)
(-0.0142883 5.49472e-05 0.05)
(-0.0187081 9.50145e-05 0.05)
(-0.0241383 0.000138279 0.05)
(-0.0308101 0.000184996 0.05)
(-0.0390072 0.000235441 0.05)
(-0.0490783 0.000289913 0.05)
(-0.061452 0.00034873 0.05)
(-0.0766546 0.000412241 0.05)
(-0.0953328 0.000480821 0.05)
(-0.118281 0.000554873 0.05)
(-0.146477 0.000634835 0.05)
(-0.181118 0.000721177 0.05)
(-0.22368 0.00081441 0.05)
(-0.275972 0.000915084 0.05)
(-0.00776298 1.78412e-05 0.05)
(-0.0106909 5.49472e-05 0.05)
(-0.0142883 9.50145e-05 0.05)
(-0.0187081 0.000138279 0.05)
(-0.0241383 0.000184996 0.05)
(-0.0308101 0.000235441 0.05)
(-0.0390072 0.000289913 0.05)
(-0.0490783 0.00034873 0.05)
(-0.061452 0.000412241 0.05)
(-0.0766546 0.000480821 0.05)
(-0.0953329 0.000554873 0.05)
(-0.118282 0.000634835 0.05)
(-0.146477 0.000721177 0.05)
(-0.181119 0.00081441 0.05)
(-0.22368 0.000915084 0.05)
(-0.275972 0.00102379 0.05)
(-0.00537988 1.78412e-05 0.05)
(-0.00776298 5.49472e-05 0.05)
(-0.0106909 9.50146e-05 0.05)
(-0.0142883 0.000138279 0.05)
(-0.0187081 0.000184996 0.05)
(-0.0241383 0.000235441 0.05)
(-0.0308101 0.000289912 0.05)
(-0.0390072 0.00034873 0.05)
(-0.0490783 0.000412241 0.05)
(-0.061452 0.000480821 0.05)
(-0.0766546 0.000554873 0.05)
(-0.0953329 0.000634835 0.05)
(-0.118282 0.000721177 0.05)
(-0.146477 0.000814411 0.05)
(-0.181119 0.000915084 0.05)
(-0.22368 0.00102379 0.05)
(-0.275972 0.00114117 0.05)
(-0.00344022 1.78412e-05 0.05)
(-0.00537988 5.49472e-05 0.05)
(-0.00776298 9.50145e-05 0.05)
(-0.0106909 0.000138279 0.05)
(-0.0142883 0.000184996 0.05)
(-0.0187081 0.000235442 0.05)
(-0.0241383 0.000289912 0.05)
(-0.0308101 0.00034873 0.05)
(-0.0390072 0.000412241 0.05)
(-0.0490783 0.00048082 0.05)
(-0.061452 0.000554873 0.05)
(-0.0766546 0.000634835 0.05)
(-0.0953328 0.000721177 0.05)
(-0.118281 0.00081441 0.05)
(-0.146477 0.000915084 0.05)
(-0.181118 0.00102379 0.05)
(-0.22368 0.00114117 0.05)
(-0.275972 0.00126793 0.05)
(-0.00186151 1.78412e-05 0.05)
(-0.00344022 5.49472e-05 0.05)
(-0.00537987 9.50145e-05 0.05)
(-0.00776298 0.000138279 0.05)
(-0.0106909 0.000184996 0.05)
(-0.0142883 0.000235442 0.05)
(-0.0187081 0.000289912 0.05)
(-0.0241384 0.00034873 0.05)
(-0.0308101 0.000412241 0.05)
(-0.0390072 0.00048082 0.05)
(-0.0490783 0.000554873 0.05)
(-0.061452 0.000634835 0.05)
(-0.0766546 0.000721178 0.05)
(-0.0953329 0.000814411 0.05)
(-0.118281 0.000915084 0.05)
(-0.146477 0.00102379 0.05)
(-0.181119 0.00114118 0.05)
(-0.22368 0.00126792 0.05)
(-0.275972 0.00140478 0.05)
(-0.000576565 1.78412e-05 0.05)
(-0.00186151 5.49472e-05 0.05)
(-0.00344022 9.50145e-05 0.05)
(-0.00537987 0.000138279 0.05)
(-0.00776298 0.000184996 0.05)
(-0.0106909 0.000235441 0.05)
(-0.0142883 0.000289912 0.05)
(-0.0187081 0.00034873 0.05)
(-0.0241383 0.000412241 0.05)
(-0.0308101 0.000480821 0.05)
(-0.0390072 0.000554873 0.05)
(-0.0490783 0.000634835 0.05)
(-0.061452 0.000721177 0.05)
(-0.0766546 0.00081441 0.05)
(-0.0953328 0.000915084 0.05)
(-0.118281 0.00102379 0.05)
(-0.146477 0.00114117 0.05)
(-0.181119 0.00126792 0.05)
(-0.22368 0.00140478 0.05)
(-0.275972 0.00155257 0.05)
(-0.000576565 5.49472e-05 0.05)
(0.000597825 1.78411e-05 0.05)
(-0.00186151 9.50146e-05 0.05)
(-0.00344022 0.000138279 0.05)
(-0.00537987 0.000184996 0.05)
(-0.00776298 0.000235441 0.05)
(-0.0106909 0.000289912 0.05)
(-0.0142883 0.00034873 0.05)
(-0.0187081 0.000412241 0.05)
(-0.0241383 0.00048082 0.05)
(-0.0308101 0.000554873 0.05)
(-0.0390072 0.000634835 0.05)
(-0.0490783 0.000721178 0.05)
(-0.061452 0.000814411 0.05)
(-0.0766546 0.000915084 0.05)
(-0.0953328 0.00102379 0.05)
(-0.118281 0.00114117 0.05)
(-0.146477 0.00126792 0.05)
(-0.181118 0.00140478 0.05)
(-0.22368 0.00155257 0.05)
(-0.275972 0.00171215 0.05)
(-0.000576565 9.50145e-05 0.05)
(0.000597825 5.49472e-05 0.05)
(0.00183446 1.78411e-05 0.05)
(-0.00186151 0.000138279 0.05)
(-0.00344022 0.000184996 0.05)
(-0.00537987 0.000235441 0.05)
(-0.00776298 0.000289912 0.05)
(-0.0106909 0.00034873 0.05)
(-0.0142883 0.000412241 0.05)
(-0.0187081 0.00048082 0.05)
(-0.0241383 0.000554873 0.05)
(-0.0308101 0.000634835 0.05)
(-0.0390072 0.000721178 0.05)
(-0.0490783 0.00081441 0.05)
(-0.061452 0.000915084 0.05)
(-0.0766546 0.00102379 0.05)
(-0.0953328 0.00114117 0.05)
(-0.118282 0.00126792 0.05)
(-0.146477 0.00140478 0.05)
(-0.181119 0.00155257 0.05)
(-0.22368 0.00171215 0.05)
(-0.275972 0.00188447 0.05)
(-0.000576565 0.000138279 0.05)
(0.000597825 9.50145e-05 0.05)
(0.00183445 5.49472e-05 0.05)
(0.00315586 1.78412e-05 0.05)
(-0.00186151 0.000184996 0.05)
(-0.00344022 0.000235441 0.05)
(-0.00537987 0.000289912 0.05)
(-0.00776298 0.00034873 0.05)
(-0.0106909 0.000412241 0.05)
(-0.0142883 0.000480821 0.05)
(-0.0187081 0.000554873 0.05)
(-0.0241383 0.000634835 0.05)
(-0.0308101 0.000721177 0.05)
(-0.0390072 0.00081441 0.05)
(-0.0490784 0.000915084 0.05)
(-0.061452 0.00102379 0.05)
(-0.0766546 0.00114118 0.05)
(-0.0953328 0.00126792 0.05)
(-0.118282 0.00140479 0.05)
(-0.146477 0.00155257 0.05)
(-0.181118 0.00171215 0.05)
(-0.22368 0.00188446 0.05)
(-0.275972 0.00207053 0.05)
(-0.000576565 0.000184996 0.05)
(0.000597825 0.000138279 0.05)
(0.00183445 9.50145e-05 0.05)
(0.00315585 5.49472e-05 0.05)
(0.00456785 1.78412e-05 0.05)
(-0.00186151 0.000235442 0.05)
(-0.00344022 0.000289912 0.05)
(-0.00537987 0.00034873 0.05)
(-0.00776298 0.000412241 0.05)
(-0.0106909 0.00048082 0.05)
(-0.0142883 0.000554873 0.05)
(-0.0187081 0.000634835 0.05)
(-0.0241383 0.000721177 0.05)
(-0.0308101 0.00081441 0.05)
(-0.0390072 0.000915084 0.05)
(-0.0490784 0.00102379 0.05)
(-0.061452 0.00114117 0.05)
(-0.0766546 0.00126792 0.05)
(-0.0953329 0.00140478 0.05)
(-0.118281 0.00155257 0.05)
(-0.146477 0.00171215 0.05)
(-0.181119 0.00188446 0.05)
(-0.22368 0.00207053 0.05)
(-0.275972 0.00227144 0.05)
(-0.000576565 0.000235441 0.05)
(0.000597825 0.000184996 0.05)
(0.00183446 0.000138279 0.05)
(0.00315586 9.50145e-05 0.05)
(0.00456785 5.49472e-05 0.05)
(0.00607663 1.78412e-05 0.05)
(-0.00186151 0.000289912 0.05)
(-0.00344022 0.00034873 0.05)
(-0.00537987 0.000412241 0.05)
(-0.00776298 0.00048082 0.05)
(-0.0106909 0.000554873 0.05)
(-0.0142883 0.000634835 0.05)
(-0.0187081 0.000721177 0.05)
(-0.0241383 0.00081441 0.05)
(-0.0308101 0.000915084 0.05)
(-0.0390072 0.00102379 0.05)
(-0.0490784 0.00114118 0.05)
(-0.061452 0.00126792 0.05)
(-0.0766546 0.00140478 0.05)
(-0.0953328 0.00155257 0.05)
(-0.118281 0.00171215 0.05)
(-0.146477 0.00188447 0.05)
(-0.181119 0.00207053 0.05)
(-0.22368 0.00227144 0.05)
(-0.275972 0.00248838 0.05)
(-0.000576565 0.000289912 0.05)
(0.000597825 0.000235441 0.05)
(0.00183445 0.000184996 0.05)
(0.00315586 0.000138279 0.05)
(0.00456784 9.50145e-05 0.05)
(0.00607663 5.49472e-05 0.05)
(0.00768886 1.78412e-05 0.05)
(-0.00186151 0.00034873 0.05)
(-0.00344022 0.000412241 0.05)
(-0.00537987 0.00048082 0.05)
(-0.00776298 0.000554873 0.05)
(-0.0106909 0.000634835 0.05)
(-0.0142883 0.000721178 0.05)
(-0.0187081 0.00081441 0.05)
(-0.0241383 0.000915084 0.05)
(-0.0308101 0.00102379 0.05)
(-0.0390072 0.00114117 0.05)
(-0.0490783 0.00126792 0.05)
(-0.061452 0.00140478 0.05)
(-0.0766546 0.00155257 0.05)
(-0.0953328 0.00171215 0.05)
(-0.118281 0.00188446 0.05)
(-0.146477 0.00207053 0.05)
(-0.181118 0.00227144 0.05)
(-0.22368 0.00248838 0.05)
(-0.275972 0.00272264 0.05)
(-0.000576565 0.00034873 0.05)
(0.000597825 0.000289912 0.05)
(0.00183445 0.000235441 0.05)
(0.00315585 0.000184996 0.05)
(0.00456784 0.000138279 0.05)
(0.00607664 9.50146e-05 0.05)
(0.00768886 5.49472e-05 0.05)
(0.00941159 1.78411e-05 0.05)
(-0.00186151 0.000412241 0.05)
(-0.00344022 0.00048082 0.05)
(-0.00537987 0.000554873 0.05)
(-0.00776298 0.000634835 0.05)
(-0.0106909 0.000721177 0.05)
(-0.0142883 0.00081441 0.05)
(-0.0187081 0.000915084 0.05)
(-0.0241383 0.00102379 0.05)
(-0.0308101 0.00114117 0.05)
(-0.0390072 0.00126793 0.05)
(-0.0490784 0.00140478 0.05)
(-0.061452 0.00155257 0.05)
(-0.0766546 0.00171215 0.05)
(-0.0953328 0.00188446 0.05)
(-0.118281 0.00207053 0.05)
(-0.146477 0.00227144 0.05)
(-0.181118 0.00248838 0.05)
(-0.22368 0.00272264 0.05)
(-0.275972 0.0029756 0.05)
(-0.000576565 0.000412241 0.05)
(0.000597825 0.00034873 0.05)
(0.00183445 0.000289913 0.05)
(0.00315585 0.000235441 0.05)
(0.00456784 0.000184996 0.05)
(0.00607664 0.000138279 0.05)
(0.00768886 9.50145e-05 0.05)
(0.00941159 5.49472e-05 0.05)
(0.0112525 1.78411e-05 0.05)
(-0.00186151 0.00048082 0.05)
(-0.00344022 0.000554873 0.05)
(-0.00537987 0.000634835 0.05)
(-0.00776298 0.000721177 0.05)
(-0.0106909 0.00081441 0.05)
(-0.0142883 0.000915084 0.05)
(-0.0187081 0.00102379 0.05)
(-0.0241383 0.00114118 0.05)
(-0.0308101 0.00126793 0.05)
(-0.0390072 0.00140478 0.05)
(-0.0490783 0.00155257 0.05)
(-0.061452 0.00171215 0.05)
(-0.0766546 0.00188446 0.05)
(-0.0953328 0.00207053 0.05)
(-0.118281 0.00227144 0.05)
(-0.146477 0.00248838 0.05)
(-0.181118 0.00272264 0.05)
(-0.22368 0.0029756 0.05)
(-0.275972 0.00324873 0.05)
(-0.000576565 0.00048082 0.05)
(0.000597825 0.000412241 0.05)
(0.00183445 0.00034873 0.05)
(0.00315585 0.000289912 0.05)
(0.00456784 0.000235441 0.05)
(0.00607663 0.000184996 0.05)
(0.00768885 0.000138279 0.05)
(0.00941159 9.50145e-05 0.05)
(0.0112524 5.49472e-05 0.05)
(0.0132195 1.78412e-05 0.05)
(-0.00186151 0.000554873 0.05)
(-0.00344022 0.000634835 0.05)
(-0.00537987 0.000721177 0.05)
(-0.00776298 0.000814411 0.05)
(-0.0106909 0.000915084 0.05)
(-0.0142883 0.00102379 0.05)
(-0.0187081 0.00114117 0.05)
(-0.0241383 0.00126792 0.05)
(-0.0308101 0.00140478 0.05)
(-0.0390072 0.00155257 0.05)
(-0.0490784 0.00171215 0.05)
(-0.061452 0.00188446 0.05)
(-0.0766546 0.00207053 0.05)
(-0.0953328 0.00227144 0.05)
(-0.118281 0.00248839 0.05)
(-0.146477 0.00272264 0.05)
(-0.181119 0.0029756 0.05)
(-0.22368 0.00324873 0.05)
(-0.275972 0.00354367 0.05)
(-0.000576565 0.000554873 0.05)
(0.000597825 0.00048082 0.05)
(0.00183445 0.000412241 0.05)
(0.00315585 0.00034873 0.05)
(0.00456784 0.000289912 0.05)
(0.00607663 0.000235441 0.05)
(0.00768885 0.000184996 0.05)
(0.00941159 0.000138279 0.05)
(0.0112524 9.50145e-05 0.05)
(0.0132195 5.49472e-05 0.05)
(0.0153213 1.78411e-05 0.05)
(-0.00186151 0.000634835 0.05)
(-0.00344022 0.000721177 0.05)
(-0.00537987 0.00081441 0.05)
(-0.00776298 0.000915084 0.05)
(-0.0106909 0.00102379 0.05)
(-0.0142883 0.00114117 0.05)
(-0.0187081 0.00126793 0.05)
(-0.0241383 0.00140478 0.05)
(-0.0308101 0.00155257 0.05)
(-0.0390072 0.00171215 0.05)
(-0.0490783 0.00188446 0.05)
(-0.061452 0.00207053 0.05)
(-0.0766546 0.00227144 0.05)
(-0.0953328 0.00248838 0.05)
(-0.118281 0.00272265 0.05)
(-0.146477 0.0029756 0.05)
(-0.181119 0.00324873 0.05)
(-0.22368 0.00354367 0.05)
(-0.275972 0.00386214 0.05)
(-0.000576565 0.000634835 0.05)
(0.000597825 0.000554873 0.05)
(0.00183446 0.00048082 0.05)
(0.00315586 0.000412241 0.05)
(0.00456784 0.00034873 0.05)
(0.00607664 0.000289912 0.05)
(0.00768886 0.000235442 0.05)
(0.00941159 0.000184996 0.05)
(0.0112525 0.000138279 0.05)
(0.0132195 9.50145e-05 0.05)
(0.0153213 5.49472e-05 0.05)
(0.0175673 1.78412e-05 0.05)
(-0.00186151 0.000721177 0.05)
(-0.00344022 0.000814411 0.05)
(-0.00537987 0.000915084 0.05)
(-0.00776298 0.00102379 0.05)
(-0.0106909 0.00114117 0.05)
(-0.0142883 0.00126793 0.05)
(-0.0187081 0.00140478 0.05)
(-0.0241383 0.00155257 0.05)
(-0.0308101 0.00171215 0.05)
(-0.0390072 0.00188446 0.05)
(-0.0490783 0.00207053 0.05)
(-0.061452 0.00227144 0.05)
(-0.0766546 0.00248838 0.05)
(-0.0953329 0.00272264 0.05)
(-0.118282 0.0029756 0.05)
(-0.146477 0.00324873 0.05)
(-0.181118 0.00354367 0.05)
(-0.22368 0.00386214 0.05)
(-0.275972 0.00420603 0.05)
(-0.000576565 0.000721177 0.05)
(0.000597825 0.000634835 0.05)
(0.00183446 0.000554873 0.05)
(0.00315585 0.000480821 0.05)
(0.00456784 0.000412241 0.05)
(0.00607663 0.00034873 0.05)
(0.00768885 0.000289912 0.05)
(0.00941159 0.000235441 0.05)
(0.0112524 0.000184996 0.05)
(0.0132195 0.000138279 0.05)
(0.0153213 9.50145e-05 0.05)
(0.0175673 5.49472e-05 0.05)
(0.0199673 1.78412e-05 0.05)
(-0.00186151 0.000814411 0.05)
(-0.00344022 0.000915084 0.05)
(-0.00537987 0.00102379 0.05)
(-0.00776298 0.00114117 0.05)
(-0.0106909 0.00126792 0.05)
(-0.0142883 0.00140479 0.05)
(-0.0187081 0.00155257 0.05)
(-0.0241383 0.00171215 0.05)
(-0.0308101 0.00188446 0.05)
(-0.0390072 0.00207053 0.05)
(-0.0490783 0.00227144 0.05)
(-0.061452 0.00248838 0.05)
(-0.0766546 0.00272264 0.05)
(-0.0953328 0.0029756 0.05)
(-0.118282 0.00324873 0.05)
(-0.146477 0.00354367 0.05)
(-0.181118 0.00386214 0.05)
(-0.22368 0.00420603 0.05)
(-0.275972 0.00457736 0.05)
(-0.000576565 0.000814411 0.05)
(0.000597825 0.000721177 0.05)
(0.00183446 0.000634835 0.05)
(0.00315585 0.000554873 0.05)
(0.00456785 0.00048082 0.05)
(0.00607664 0.000412241 0.05)
(0.00768886 0.00034873 0.05)
(0.00941159 0.000289912 0.05)
(0.0112524 0.000235441 0.05)
(0.0132195 0.000184996 0.05)
(0.0153213 0.000138279 0.05)
(0.0175673 9.50145e-05 0.05)
(0.0199673 5.49472e-05 0.05)
(0.0225317 1.78412e-05 0.05)
(-0.00186151 0.000915084 0.05)
(-0.00344022 0.00102379 0.05)
(-0.00537987 0.00114118 0.05)
(-0.00776298 0.00126793 0.05)
(-0.0106909 0.00140478 0.05)
(-0.0142883 0.00155257 0.05)
(-0.0187081 0.00171215 0.05)
(-0.0241384 0.00188447 0.05)
(-0.0308101 0.00207053 0.05)
(-0.0390072 0.00227144 0.05)
(-0.0490783 0.00248838 0.05)
(-0.061452 0.00272265 0.05)
(-0.0766546 0.0029756 0.05)
(-0.0953328 0.00324873 0.05)
(-0.118281 0.00354367 0.05)
(-0.146477 0.00386214 0.05)
(-0.181119 0.00420603 0.05)
(-0.22368 0.00457735 0.05)
(-0.275972 0.00497831 0.05)
(-0.000576565 0.000915084 0.05)
(0.000597825 0.00081441 0.05)
(0.00183446 0.000721177 0.05)
(0.00315585 0.000634835 0.05)
(0.00456784 0.000554873 0.05)
(0.00607663 0.00048082 0.05)
(0.00768886 0.000412241 0.05)
(0.00941159 0.00034873 0.05)
(0.0112525 0.000289912 0.05)
(0.0132195 0.000235442 0.05)
(0.0153213 0.000184996 0.05)
(0.0175673 0.000138279 0.05)
(0.0199672 9.50146e-05 0.05)
(0.0225317 5.49472e-05 0.05)
(0.025272 1.78412e-05 0.05)
(-0.00186151 0.00102379 0.05)
(-0.00344023 0.00114117 0.05)
(-0.00537987 0.00126793 0.05)
(-0.00776298 0.00140478 0.05)
(-0.0106909 0.00155257 0.05)
(-0.0142883 0.00171215 0.05)
(-0.0187081 0.00188447 0.05)
(-0.0241383 0.00207053 0.05)
(-0.0308101 0.00227144 0.05)
(-0.0390072 0.00248838 0.05)
(-0.0490783 0.00272265 0.05)
(-0.061452 0.0029756 0.05)
(-0.0766546 0.00324873 0.05)
(-0.0953328 0.00354367 0.05)
(-0.118281 0.00386214 0.05)
(-0.146477 0.00420603 0.05)
(-0.181119 0.00457735 0.05)
(-0.22368 0.00497832 0.05)
(-0.275972 0.00541127 0.05)
(-0.000576565 0.00102379 0.05)
(0.000597825 0.000915084 0.05)
(0.00183445 0.00081441 0.05)
(0.00315586 0.000721178 0.05)
(0.00456784 0.000634835 0.05)
(0.00607664 0.000554873 0.05)
(0.00768886 0.00048082 0.05)
(0.00941159 0.000412241 0.05)
(0.0112524 0.00034873 0.05)
(0.0132195 0.000289912 0.05)
(0.0153214 0.000235442 0.05)
(0.0175673 0.000184996 0.05)
(0.0199672 0.000138279 0.05)
(0.0225317 9.50145e-05 0.05)
(0.025272 5.49472e-05 0.05)
(0.0282001 1.78412e-05 0.05)
(-0.00186151 0.00114118 0.05)
(-0.00344022 0.00126793 0.05)
(-0.00537988 0.00140479 0.05)
(-0.00776298 0.00155257 0.05)
(-0.0106909 0.00171215 0.05)
(-0.0142883 0.00188446 0.05)
(-0.0187081 0.00207053 0.05)
(-0.0241383 0.00227144 0.05)
(-0.0308101 0.00248839 0.05)
(-0.0390072 0.00272264 0.05)
(-0.0490783 0.0029756 0.05)
(-0.061452 0.00324873 0.05)
(-0.0766546 0.00354367 0.05)
(-0.0953328 0.00386214 0.05)
(-0.118281 0.00420603 0.05)
(-0.146477 0.00457735 0.05)
(-0.181118 0.00497831 0.05)
(-0.22368 0.00541127 0.05)
(-0.275972 0.00587877 0.05)
(-0.000576565 0.00114117 0.05)
(0.000597825 0.00102379 0.05)
(0.00183445 0.000915084 0.05)
(0.00315585 0.00081441 0.05)
(0.00456784 0.000721177 0.05)
(0.00607664 0.000634835 0.05)
(0.00768885 0.000554873 0.05)
(0.00941159 0.00048082 0.05)
(0.0112524 0.000412241 0.05)
(0.0132195 0.00034873 0.05)
(0.0153213 0.000289912 0.05)
(0.0175673 0.000235441 0.05)
(0.0199673 0.000184996 0.05)
(0.0225317 0.000138279 0.05)
(0.025272 9.50145e-05 0.05)
(0.0282001 5.49472e-05 0.05)
(0.0313289 1.78412e-05 0.05)
(-0.00186151 0.00126792 0.05)
(-0.00344022 0.00140478 0.05)
(-0.00537988 0.00155257 0.05)
(-0.00776298 0.00171215 0.05)
(-0.0106909 0.00188446 0.05)
(-0.0142883 0.00207053 0.05)
(-0.0187081 0.00227144 0.05)
(-0.0241384 0.00248839 0.05)
(-0.0308101 0.00272264 0.05)
(-0.0390072 0.0029756 0.05)
(-0.0490783 0.00324873 0.05)
(-0.061452 0.00354367 0.05)
(-0.0766546 0.00386214 0.05)
(-0.0953329 0.00420603 0.05)
(-0.118281 0.00457735 0.05)
(-0.146477 0.00497832 0.05)
(-0.181118 0.00541127 0.05)
(-0.22368 0.00587878 0.05)
(-0.275972 0.00638359 0.05)
(-0.000576565 0.00126793 0.05)
(0.000597825 0.00114117 0.05)
(0.00183445 0.00102379 0.05)
(0.00315586 0.000915084 0.05)
(0.00456785 0.000814411 0.05)
(0.00607663 0.000721178 0.05)
(0.00768886 0.000634835 0.05)
(0.00941159 0.000554873 0.05)
(0.0112525 0.00048082 0.05)
(0.0132195 0.000412241 0.05)
(0.0153214 0.00034873 0.05)
(0.0175673 0.000289912 0.05)
(0.0199672 0.000235441 0.05)
(0.0225317 0.000184996 0.05)
(0.025272 0.000138279 0.05)
(0.0282001 9.50145e-05 0.05)
(0.0313289 5.49472e-05 0.05)
(0.0346723 1.78412e-05 0.05)
(-0.00186151 0.00140478 0.05)
(-0.00344022 0.00155257 0.05)
(-0.00537987 0.00171215 0.05)
(-0.00776298 0.00188446 0.05)
(-0.0106909 0.00207053 0.05)
(-0.0142883 0.00227144 0.05)
(-0.0187081 0.00248839 0.05)
(-0.0241383 0.00272265 0.05)
(-0.0308101 0.0029756 0.05)
(-0.0390072 0.00324874 0.05)
(-0.0490783 0.00354367 0.05)
(-0.061452 0.00386214 0.05)
(-0.0766546 0.00420603 0.05)
(-0.0953328 0.00457735 0.05)
(-0.118281 0.00497831 0.05)
(-0.146477 0.00541127 0.05)
(-0.181118 0.00587877 0.05)
(-0.22368 0.00638359 0.05)
(-0.275972 0.00692869 0.05)
(-0.000576565 0.00140478 0.05)
(0.000597825 0.00126792 0.05)
(0.00183445 0.00114118 0.05)
(0.00315585 0.00102379 0.05)
(0.00456785 0.000915084 0.05)
(0.00607663 0.00081441 0.05)
(0.00768885 0.000721177 0.05)
(0.00941159 0.000634835 0.05)
(0.0112525 0.000554873 0.05)
(0.0132195 0.00048082 0.05)
(0.0153213 0.000412241 0.05)
(0.0175673 0.00034873 0.05)
(0.0199672 0.000289912 0.05)
(0.0225317 0.000235441 0.05)
(0.025272 0.000184996 0.05)
(0.0282001 0.000138279 0.05)
(0.0313289 9.50145e-05 0.05)
(0.0346723 5.49472e-05 0.05)
(0.0382449 1.78411e-05 0.05)
(-0.00186151 0.00155257 0.05)
(-0.00344022 0.00171215 0.05)
(-0.00537987 0.00188447 0.05)
(-0.00776298 0.00207053 0.05)
(-0.0106909 0.00227144 0.05)
(-0.0142883 0.00248838 0.05)
(-0.0187081 0.00272264 0.05)
(-0.0241383 0.0029756 0.05)
(-0.0308101 0.00324874 0.05)
(-0.0390072 0.00354367 0.05)
(-0.0490783 0.00386214 0.05)
(-0.061452 0.00420603 0.05)
(-0.0766546 0.00457735 0.05)
(-0.0953328 0.00497831 0.05)
(-0.118282 0.00541127 0.05)
(-0.146477 0.00587878 0.05)
(-0.181118 0.00638359 0.05)
(-0.22368 0.00692869 0.05)
(-0.275972 0.00751729 0.05)
(-0.000576565 0.00155257 0.05)
(0.000597825 0.00140478 0.05)
(0.00183445 0.00126792 0.05)
(0.00315586 0.00114117 0.05)
(0.00456784 0.00102379 0.05)
(0.00607664 0.000915084 0.05)
(0.00768886 0.000814411 0.05)
(0.00941159 0.000721177 0.05)
(0.0112525 0.000634835 0.05)
(0.0132195 0.000554873 0.05)
(0.0153214 0.000480821 0.05)
(0.0175673 0.000412241 0.05)
(0.0199672 0.00034873 0.05)
(0.0225317 0.000289912 0.05)
(0.025272 0.000235441 0.05)
(0.0282001 0.000184996 0.05)
(0.031329 0.000138279 0.05)
(0.0346723 9.50146e-05 0.05)
(0.0382448 5.49472e-05 0.05)
(0.0420623 1.78411e-05 0.05)
(-0.00186151 0.00171215 0.05)
(-0.00344022 0.00188446 0.05)
(-0.00537987 0.00207053 0.05)
(-0.00776298 0.00227144 0.05)
(-0.0106909 0.00248838 0.05)
(-0.0142883 0.00272264 0.05)
(-0.0187081 0.0029756 0.05)
(-0.0241383 0.00324873 0.05)
(-0.0308101 0.00354367 0.05)
(-0.0390072 0.00386214 0.05)
(-0.0490784 0.00420603 0.05)
(-0.061452 0.00457735 0.05)
(-0.0766546 0.00497831 0.05)
(-0.0953328 0.00541127 0.05)
(-0.118281 0.00587877 0.05)
(-0.146477 0.00638359 0.05)
(-0.181119 0.00692869 0.05)
(-0.22368 0.00751729 0.05)
(-0.275972 0.00815286 0.05)
(-0.000576565 0.00171215 0.05)
(0.000597825 0.00155257 0.05)
(0.00183446 0.00140478 0.05)
(0.00315585 0.00126793 0.05)
(0.00456784 0.00114118 0.05)
(0.00607664 0.00102379 0.05)
(0.00768886 0.000915084 0.05)
(0.00941159 0.000814411 0.05)
(0.0112524 0.000721177 0.05)
(0.0132195 0.000634835 0.05)
(0.0153213 0.000554873 0.05)
(0.0175673 0.000480821 0.05)
(0.0199672 0.000412241 0.05)
(0.0225317 0.00034873 0.05)
(0.025272 0.000289912 0.05)
(0.0282001 0.000235441 0.05)
(0.031329 0.000184996 0.05)
(0.0346723 0.000138279 0.05)
(0.0382449 9.50146e-05 0.05)
(0.0420623 5.49472e-05 0.05)
(0.0461415 1.78412e-05 0.05)
(-0.00186151 0.00188446 0.05)
(-0.00344023 0.00207053 0.05)
(-0.00537987 0.00227144 0.05)
(-0.00776298 0.00248838 0.05)
(-0.0106909 0.00272264 0.05)
(-0.0142883 0.0029756 0.05)
(-0.0187081 0.00324873 0.05)
(-0.0241383 0.00354367 0.05)
(-0.0308101 0.00386214 0.05)
(-0.0390072 0.00420603 0.05)
(-0.0490783 0.00457735 0.05)
(-0.061452 0.00497832 0.05)
(-0.0766546 0.00541127 0.05)
(-0.0953328 0.00587877 0.05)
(-0.118281 0.00638359 0.05)
(-0.146477 0.00692869 0.05)
(-0.181119 0.00751729 0.05)
(-0.22368 0.00815286 0.05)
(-0.275972 0.00883915 0.05)
(-0.000576565 0.00188447 0.05)
(0.000597825 0.00171215 0.05)
(0.00183446 0.00155257 0.05)
(0.00315585 0.00140478 0.05)
(0.00456785 0.00126792 0.05)
(0.00607663 0.00114117 0.05)
(0.00768885 0.00102379 0.05)
(0.00941159 0.000915084 0.05)
(0.0112524 0.00081441 0.05)
(0.0132195 0.000721177 0.05)
(0.0153214 0.000634835 0.05)
(0.0175673 0.000554873 0.05)
(0.0199672 0.00048082 0.05)
(0.0225317 0.000412241 0.05)
(0.025272 0.00034873 0.05)
(0.0282001 0.000289912 0.05)
(0.0313289 0.000235441 0.05)
(0.0346723 0.000184996 0.05)
(0.0382449 0.000138279 0.05)
(0.0420623 9.50145e-05 0.05)
(0.0461415 5.49472e-05 0.05)
(0.0505002 1.78411e-05 0.05)
(-0.00186151 0.00207053 0.05)
(-0.00344022 0.00227144 0.05)
(-0.00537987 0.00248838 0.05)
(-0.00776298 0.00272265 0.05)
(-0.0106909 0.0029756 0.05)
(-0.0142883 0.00324873 0.05)
(-0.0187081 0.00354367 0.05)
(-0.0241384 0.00386214 0.05)
(-0.0308101 0.00420603 0.05)
(-0.0390072 0.00457735 0.05)
(-0.0490784 0.00497832 0.05)
(-0.061452 0.00541127 0.05)
(-0.0766546 0.00587877 0.05)
(-0.0953328 0.00638359 0.05)
(-0.118282 0.00692869 0.05)
(-0.146477 0.00751729 0.05)
(-0.181118 0.00815286 0.05)
(-0.22368 0.00883915 0.05)
(-0.275972 0.00958021 0.05)
(-0.000576565 0.00207053 0.05)
(0.000597825 0.00188446 0.05)
(0.00183445 0.00171215 0.05)
(0.00315585 0.00155257 0.05)
(0.00456785 0.00140479 0.05)
(0.00607664 0.00126792 0.05)
(0.00768886 0.00114117 0.05)
(0.00941159 0.00102379 0.05)
(0.0112524 0.000915084 0.05)
(0.0132195 0.00081441 0.05)
(0.0153214 0.000721178 0.05)
(0.0175673 0.000634835 0.05)
(0.0199672 0.000554873 0.05)
(0.0225317 0.00048082 0.05)
(0.025272 0.000412241 0.05)
(0.0282001 0.00034873 0.05)
(0.0313289 0.000289912 0.05)
(0.0346723 0.000235441 0.05)
(0.0382449 0.000184996 0.05)
(0.0420623 0.000138279 0.05)
(0.0461415 9.50146e-05 0.05)
(0.0505002 5.49472e-05 0.05)
(0.0551578 1.78412e-05 0.05)
(-0.00186151 0.00227144 0.05)
(-0.00344022 0.00248838 0.05)
(-0.00537988 0.00272265 0.05)
(-0.00776298 0.0029756 0.05)
(-0.0106909 0.00324874 0.05)
(-0.0142883 0.00354367 0.05)
(-0.0187081 0.00386214 0.05)
(-0.0241383 0.00420603 0.05)
(-0.0308101 0.00457735 0.05)
(-0.0390072 0.00497832 0.05)
(-0.0490784 0.00541127 0.05)
(-0.061452 0.00587878 0.05)
(-0.0766546 0.00638359 0.05)
(-0.0953328 0.00692869 0.05)
(-0.118281 0.00751729 0.05)
(-0.146477 0.00815286 0.05)
(-0.181118 0.00883915 0.05)
(-0.22368 0.00958021 0.05)
(-0.275972 0.0103804 0.05)
(-0.000576565 0.00227144 0.05)
(0.000597825 0.00207053 0.05)
(0.00183445 0.00188446 0.05)
(0.00315586 0.00171215 0.05)
(0.00456784 0.00155257 0.05)
(0.00607663 0.00140478 0.05)
(0.00768885 0.00126793 0.05)
(0.00941159 0.00114117 0.05)
(0.0112524 0.00102379 0.05)
(0.0132195 0.000915084 0.05)
(0.0153214 0.00081441 0.05)
(0.0175673 0.000721177 0.05)
(0.0199672 0.000634835 0.05)
(0.0225317 0.000554873 0.05)
(0.025272 0.00048082 0.05)
(0.0282001 0.000412241 0.05)
(0.031329 0.00034873 0.05)
(0.0346723 0.000289913 0.05)
(0.0382449 0.000235441 0.05)
(0.0420623 0.000184996 0.05)
(0.0461414 0.000138279 0.05)
(0.0505002 9.50145e-05 0.05)
(0.0551578 5.49472e-05 0.05)
(0.0601347 1.78411e-05 0.05)
(-0.00186151 0.00248839 0.05)
(-0.00344022 0.00272265 0.05)
(-0.00537987 0.0029756 0.05)
(-0.00776298 0.00324873 0.05)
(-0.0106909 0.00354367 0.05)
(-0.0142883 0.00386214 0.05)
(-0.0187081 0.00420603 0.05)
(-0.0241384 0.00457735 0.05)
(-0.0308101 0.00497832 0.05)
(-0.0390072 0.00541127 0.05)
(-0.0490783 0.00587878 0.05)
(-0.061452 0.00638359 0.05)
(-0.0766546 0.00692869 0.05)
(-0.0953328 0.00751729 0.05)
(-0.118281 0.00815286 0.05)
(-0.146477 0.00883915 0.05)
(-0.181119 0.0095802 0.05)
(-0.22368 0.0103804 0.05)
(-0.275972 0.0112444 0.05)
(-0.000576565 0.00248839 0.05)
(0.000597825 0.00227144 0.05)
(0.00183446 0.00207053 0.05)
(0.00315585 0.00188446 0.05)
(0.00456785 0.00171215 0.05)
(0.00607663 0.00155257 0.05)
(0.00768885 0.00140478 0.05)
(0.00941159 0.00126792 0.05)
(0.0112524 0.00114117 0.05)
(0.0132195 0.00102379 0.05)
(0.0153213 0.000915084 0.05)
(0.0175673 0.00081441 0.05)
(0.0199672 0.000721177 0.05)
(0.0225317 0.000634835 0.05)
(0.025272 0.000554873 0.05)
(0.0282001 0.00048082 0.05)
(0.031329 0.000412241 0.05)
(0.0346723 0.00034873 0.05)
(0.0382448 0.000289913 0.05)
(0.0420623 0.000235442 0.05)
(0.0461414 0.000184996 0.05)
(0.0505002 0.000138279 0.05)
(0.0551578 9.50145e-05 0.05)
(0.0601347 5.49472e-05 0.05)
(0.0654528 1.78411e-05 0.05)
(-0.00186151 0.00272265 0.05)
(-0.00344022 0.0029756 0.05)
(-0.00537987 0.00324873 0.05)
(-0.00776298 0.00354367 0.05)
(-0.0106909 0.00386214 0.05)
(-0.0142883 0.00420603 0.05)
(-0.0187081 0.00457735 0.05)
(-0.0241383 0.00497831 0.05)
(-0.0308101 0.00541127 0.05)
(-0.0390072 0.00587877 0.05)
(-0.0490783 0.00638359 0.05)
(-0.061452 0.00692869 0.05)
(-0.0766546 0.00751729 0.05)
(-0.0953328 0.00815286 0.05)
(-0.118281 0.00883915 0.05)
(-0.146477 0.0095802 0.05)
(-0.181118 0.0103804 0.05)
(-0.22368 0.0112444 0.05)
(-0.275972 0.0121774 0.05)
(-0.000576565 0.00272265 0.05)
(0.000597825 0.00248839 0.05)
(0.00183446 0.00227144 0.05)
(0.00315586 0.00207053 0.05)
(0.00456784 0.00188446 0.05)
(0.00607664 0.00171215 0.05)
(0.00768886 0.00155257 0.05)
(0.00941159 0.00140478 0.05)
(0.0112525 0.00126792 0.05)