/*--------------------------------*- C++ -*----------------------------------*\
| =========                 |                                                 |
| \\      /  F ield         | OpenFOAM: The Open Source CFD Toolbox           |
|  \\    /   O peration     | Version:  v2012                                 |
|   \\  /    A nd           | Website:  www.openfoam.com                      |
|    \\/     M anipulation  |                                                 |
\*---------------------------------------------------------------------------*/
FoamFile
{
    version     2.0;
    format      ascii;
    class       volScalarField;
    location    "1801";
    object      Fs;
}
// * * * * * * * * * * * * * * * * * * * * * * * * * * * * * * * * * * * * * //

dimensions      [0 0 0 0 0 0 0];


internalField   nonuniform List<scalar> 
8000
(
4.53979e-05
4.53979e-05
4.53979e-05
4.53979e-05
4.53979e-05
4.53979e-05
4.53979e-05
4.53979e-05
4.53979e-05
4.53979e-05
4.53979e-05
4.53979e-05
4.53979e-05
4.53979e-05
4.53979e-05
4.53979e-05
4.53979e-05
4.53979e-05
4.53979e-05
4.53979e-05
4.53979e-05
4.53979e-05
4.53979e-05
4.53979e-05
4.53979e-05
4.53979e-05
4.53979e-05
4.53979e-05
4.53979e-05
4.53979e-05
4.53979e-05
4.53979e-05
4.53979e-05
4.53979e-05
4.53979e-05
4.53979e-05
4.53979e-05
4.53979e-05
4.53979e-05
4.53979e-05
4.53979e-05
4.53979e-05
4.53979e-05
4.53979e-05
4.53979e-05
4.53979e-05
4.53979e-05
4.53979e-05
4.53979e-05
4.53979e-05
4.53979e-05
4.53979e-05
4.53979e-05
4.53979e-05
4.53979e-05
4.53979e-05
4.53979e-05
4.53979e-05
4.53979e-05
4.53979e-05
4.53979e-05
4.53979e-05
4.53979e-05
4.53979e-05
4.53979e-05
4.53979e-05
4.53979e-05
4.53979e-05
4.53979e-05
4.53979e-05
4.53979e-05
4.53979e-05
4.53979e-05
4.53979e-05
4.53979e-05
4.53979e-05
4.53979e-05
4.53979e-05
4.53979e-05
4.53979e-05
4.53979e-05
4.53979e-05
4.53979e-05
4.53979e-05
4.53979e-05
4.53979e-05
4.53979e-05
4.53979e-05
4.53979e-05
4.53979e-05
4.53979e-05
4.53979e-05
4.53979e-05
4.53979e-05
4.53979e-05
4.53979e-05
4.53979e-05
4.53979e-05
4.53979e-05
4.53979e-05
4.53979e-05
4.53979e-05
4.53979e-05
4.53979e-05
4.53979e-05
4.53979e-05
4.53979e-05
4.53979e-05
4.53979e-05
4.53979e-05
4.53979e-05
4.53979e-05
4.53979e-05
4.53979e-05
4.53979e-05
4.53979e-05
4.53979e-05
4.53979e-05
4.53979e-05
4.53979e-05
4.53979e-05
4.53979e-05
4.53979e-05
4.53979e-05
4.53979e-05
4.53979e-05
4.53979e-05
4.53979e-05
4.53979e-05
4.53979e-05
4.53979e-05
4.53979e-05
4.53979e-05
4.53979e-05
4.53979e-05
4.53979e-05
4.53979e-05
4.53979e-05
4.53979e-05
4.53979e-05
4.53979e-05
4.53979e-05
4.53979e-05
4.53979e-05
4.53979e-05
4.53979e-05
4.53979e-05
4.53979e-05
4.53979e-05
4.53979e-05
4.53979e-05
4.53979e-05
4.53979e-05
4.54429e-05
4.53979e-05
4.53979e-05
4.53979e-05
4.53979e-05
4.53979e-05
4.53979e-05
4.53979e-05
4.53979e-05
4.53979e-05
4.53979e-05
4.53979e-05
4.53979e-05
4.53979e-05
4.53979e-05
4.53979e-05
4.53979e-05
4.53979e-05
4.75828e-05
4.54205e-05
4.53979e-05
4.53979e-05
4.53979e-05
4.53979e-05
4.53979e-05
4.53979e-05
4.53979e-05
4.53979e-05
4.53979e-05
4.53979e-05
4.53979e-05
4.53979e-05
4.53979e-05
4.53979e-05
4.53979e-05
4.53979e-05
4.53979e-05
1
4.69918e-05
4.54094e-05
4.53979e-05
4.53979e-05
4.53979e-05
4.53979e-05
4.53979e-05
4.53979e-05
4.53979e-05
4.53979e-05
4.53979e-05
4.53979e-05
4.53979e-05
4.53979e-05
4.53979e-05
4.53979e-05
4.53979e-05
4.53979e-05
4.53979e-05
1
0
4.61731e-05
4.54039e-05
4.53979e-05
4.53979e-05
4.53979e-05
4.53979e-05
4.53979e-05
4.53979e-05
4.53979e-05
4.53979e-05
4.53979e-05
4.53979e-05
4.53979e-05
4.53979e-05
4.53979e-05
4.53979e-05
4.53979e-05
4.53979e-05
4.53979e-05
1
0
1.20992e-09
4.6092e-05
4.54011e-05
4.53979e-05
4.53979e-05
4.53979e-05
4.53979e-05
4.53979e-05
4.53979e-05
4.53979e-05
4.53979e-05
4.53979e-05
4.53979e-05
4.53979e-05
4.53979e-05
4.53979e-05
4.53979e-05
4.53979e-05
4.53979e-05
4.53979e-05
0.999997
1
0
5.68281e-07
4.58322e-05
4.53997e-05
4.53979e-05
4.53979e-05
4.53979e-05
4.53979e-05
4.53979e-05
4.53979e-05
4.53979e-05
4.53979e-05
4.53979e-05
4.53979e-05
4.53979e-05
4.53979e-05
4.53979e-05
4.53979e-05
4.53979e-05
4.53979e-05
4.53979e-05
0.847645
1
0
1.28809e-06
8.4242e-06
4.57309e-05
4.5399e-05
4.53979e-05
4.53979e-05
4.53979e-05
4.53979e-05
4.53979e-05
4.53979e-05
4.53979e-05
4.53979e-05
4.53979e-05
4.53979e-05
4.53979e-05
4.53979e-05
4.53979e-05
4.53979e-05
4.53979e-05
4.53979e-05
4.53979e-05
0.0266481
1
0
2.05336e-12
2.61254e-05
6.77024e-06
4.56305e-05
4.53988e-05
4.53979e-05
4.53979e-05
4.53979e-05
4.53979e-05
4.53979e-05
4.53979e-05
4.53979e-05
4.53979e-05
4.53979e-05
4.53979e-05
4.53979e-05
4.53979e-05
4.53979e-05
4.53979e-05
4.53979e-05
4.53979e-05
4.53979e-05
0.00267194
1
0
0
1.89657e-06
8.82956e-06
1.5991e-05
4.55682e-05
4.53986e-05
4.53979e-05
4.53979e-05
4.53979e-05
4.53979e-05
4.53979e-05
4.53979e-05
4.53979e-05
4.53979e-05
4.53979e-05
4.53979e-05
4.53979e-05
4.53979e-05
4.53979e-05
4.53979e-05
4.53979e-05
4.53979e-05
4.53979e-05
0.00114608
1
0
0
2.52211e-09
3.26933e-06
2.01253e-05
2.29564e-05
4.55173e-05
4.53984e-05
4.53979e-05
4.53979e-05
4.53979e-05
4.53979e-05
4.53979e-05
4.53979e-05
4.53979e-05
4.53979e-05
4.53979e-05
4.53979e-05
4.53979e-05
4.53979e-05
4.53979e-05
4.53979e-05
4.53979e-05
4.53979e-05
4.53979e-05
0.000658761
1
1
0
2.07612e-14
3.77408e-07
1.12354e-05
2.71271e-05
2.71258e-05
4.54847e-05
4.53983e-05
4.53979e-05
4.53979e-05
4.53979e-05
4.53979e-05
4.53979e-05
4.53979e-05
4.53979e-05
4.53979e-05
4.53979e-05
4.53979e-05
4.53979e-05
4.53979e-05
4.53979e-05
4.53979e-05
4.53979e-05
4.53979e-05
4.53979e-05
0.000348428
1
1
0
0
3.41928e-09
3.92772e-06
1.87437e-05
3.00435e-05
3.19219e-05
4.54549e-05
4.53981e-05
4.53979e-05
4.53979e-05
4.53979e-05
4.53979e-05
4.53979e-05
4.53979e-05
4.53979e-05
4.53979e-05
4.53979e-05
4.53979e-05
4.53979e-05
4.53979e-05
4.53979e-05
4.53979e-05
4.53979e-05
4.53979e-05
4.53979e-05
0.000173002
1
1
0
0
1.20365e-12
5.34891e-07
9.96554e-06
2.30561e-05
3.35825e-05
3.49535e-05
4.5434e-05
4.5398e-05
4.53979e-05
4.53979e-05
4.53979e-05
4.53979e-05
4.53979e-05
4.53979e-05
4.53979e-05
4.53979e-05
4.53979e-05
4.53979e-05
4.53979e-05
4.53979e-05
4.53979e-05
4.53979e-05
4.53979e-05
4.53979e-05
4.53979e-05
0.000100825
1
1
0
0
1.66533e-16
1.29578e-08
3.31807e-06
1.50754e-05
2.72e-05
3.44342e-05
3.93179e-05
4.54194e-05
4.53979e-05
4.53979e-05
4.53979e-05
4.53979e-05
4.53979e-05
4.53979e-05
4.53979e-05
4.53979e-05
4.53979e-05
4.53979e-05
4.53979e-05
4.53979e-05
4.53979e-05
4.53979e-05
4.53979e-05
4.53979e-05
4.53979e-05
4.53979e-05
7.12391e-05
1
1
1.11022e-16
0
0
2.3159e-11
4.73014e-07
7.56696e-06
1.97617e-05
2.81802e-05
3.78629e-05
4.23611e-05
4.54098e-05
4.53979e-05
4.53979e-05
4.53979e-05
4.53979e-05
4.53979e-05
4.53979e-05
4.53979e-05
4.53979e-05
4.53979e-05
4.53979e-05
4.53979e-05
4.53979e-05
4.53979e-05
4.53979e-05
4.53979e-05
4.53979e-05
4.53979e-05
4.53979e-05
5.77012e-05
1
1
5.13317e-06
0
0
8.9373e-15
1.41945e-08
2.39679e-06
1.21605e-05
2.13915e-05
3.31249e-05
4.2722e-05
4.69343e-05
4.54044e-05
4.53979e-05
4.53979e-05
4.53979e-05
4.53979e-05
4.53979e-05
4.53979e-05
4.53979e-05
4.53979e-05
4.53979e-05
4.53979e-05
4.53979e-05
4.53979e-05
4.53979e-05
4.53979e-05
4.53979e-05
4.53979e-05
4.53979e-05
4.53979e-05
5.11127e-05
0.999974
1
0.973775
0
0
2.22045e-16
4.47469e-11
3.25963e-07
5.72575e-06
1.46963e-05
2.8235e-05
4.18014e-05
4.5172e-05
4.92331e-05
4.54012e-05
4.53979e-05
4.53979e-05
4.53979e-05
4.53979e-05
4.53979e-05
4.53979e-05
4.53979e-05
4.53979e-05
4.53979e-05
4.53979e-05
4.53979e-05
4.53979e-05
4.53979e-05
4.53979e-05
4.53979e-05
4.53979e-05
4.53979e-05
4.53979e-05
4.79423e-05
0.73891
1
1
0
0
1.44329e-14
4.11893e-14
1.00182e-08
1.6778e-06
8.82241e-06
2.25805e-05
4.00068e-05
4.37603e-05
5.18747e-05
5.04784e-05
4.53994e-05
4.53979e-05
4.53979e-05
4.53979e-05
4.53979e-05
4.53979e-05
4.53979e-05
4.53979e-05
4.53979e-05
4.53979e-05
4.53979e-05
4.53979e-05
4.53979e-05
4.53979e-05
4.53979e-05
4.53979e-05
4.53979e-05
4.53979e-05
4.53979e-05
4.64686e-05
0.0106555
1
1
5.55112e-17
0
5.67657e-13
3.05311e-15
3.40643e-11
2.00624e-07
4.10633e-06
1.6148e-05
3.73062e-05
4.24302e-05
5.81457e-05
5.46029e-05
5.38984e-05
4.53986e-05
4.53979e-05
4.53979e-05
4.53979e-05
4.53979e-05
4.53979e-05
4.53979e-05
4.53979e-05
4.53979e-05
4.53979e-05
4.53979e-05
4.53979e-05
4.53979e-05
4.53979e-05
4.53979e-05
4.53979e-05
4.53979e-05
4.53979e-05
4.53979e-05
4.5816e-05
0.000552925
1
1
3.6309e-10
0
1.13354e-13
6.14508e-13
1.35836e-13
4.50988e-09
1.05555e-06
9.88042e-06
3.33996e-05
4.08397e-05
6.81557e-05
6.35477e-05
5.75026e-05
4.73812e-05
4.53982e-05
4.53979e-05
4.53979e-05
4.53979e-05
4.53979e-05
4.53979e-05
4.53979e-05
4.53979e-05
4.53979e-05
4.53979e-05
4.53979e-05
4.53979e-05
4.53979e-05
4.53979e-05
4.53979e-05
4.53979e-05
4.53979e-05
4.53979e-05
4.53979e-05
4.55484e-05
0.000129732
1
1
8.51062e-05
0
3.33067e-15
1.66301e-10
9.86988e-14
8.40528e-12
8.84503e-08
4.1474e-06
3.20197e-05
3.97366e-05
8.11305e-05
7.76545e-05
6.3572e-05
4.92594e-05
4.67425e-05
4.5398e-05
4.53979e-05
4.53979e-05
4.53979e-05
4.53979e-05
4.53979e-05
4.53979e-05
4.53979e-05
4.53979e-05
4.53979e-05
4.53979e-05
4.53979e-05
4.53979e-05
4.53979e-05
4.53979e-05
4.53979e-05
4.53979e-05
4.53979e-05
4.53979e-05
4.54471e-05
6.79009e-05
0.999994
1
0.681274
0
0
5.09381e-10
1.51679e-11
4.90719e-14
8.29971e-10
6.91528e-07
2.44055e-05
3.5621e-05
9.2586e-05
9.78149e-05
7.22253e-05
5.22011e-05
4.95119e-05
4.56066e-05
4.53979e-05
4.53979e-05
4.53979e-05
4.53979e-05
4.53979e-05
4.53979e-05
4.53979e-05
4.53979e-05
4.53979e-05
4.53979e-05
4.53979e-05
4.53979e-05
4.53979e-05
4.53979e-05
4.53979e-05
4.53979e-05
4.53979e-05
4.53979e-05
4.53979e-05
4.54124e-05
5.2232e-05
0.596423
1
1
0
0
2.26359e-10
1.39421e-09
3.68705e-13
1.22558e-12
1.893e-08
5.94362e-06
2.70655e-05
9.77665e-05
0.000122748
8.10397e-05
5.56706e-05
5.32062e-05
4.77306e-05
4.50095e-05
4.53979e-05
4.53979e-05
4.53979e-05
4.53979e-05
4.53979e-05
4.53979e-05
4.53979e-05
4.53979e-05
4.53979e-05
4.53979e-05
4.53979e-05
4.53979e-05
4.53979e-05
4.53979e-05
4.53979e-05
4.53979e-05
4.53979e-05
4.53979e-05
4.53979e-05
4.54017e-05
4.74422e-05
0.00351233
1
1
4.62425e-11
0
5.89273e-12
7.25385e-09
1.72375e-10
3.73035e-14
2.47785e-11
2.75799e-07
1.48034e-05
8.48255e-05
0.000133054
8.49107e-05
5.9439e-05
5.74984e-05
4.98834e-05
4.6691e-05
4.50196e-05
4.53979e-05
4.53979e-05
4.53979e-05
4.53979e-05
4.53979e-05
4.53979e-05
4.53979e-05
4.53979e-05
4.53979e-05
4.53979e-05
4.53979e-05
4.53979e-05
4.53979e-05
4.53979e-05
4.53979e-05
4.53979e-05
4.53979e-05
4.53979e-05
4.53979e-05
4.53987e-05
4.59617e-05
0.000228862
1
1
3.6868e-05
0
2.76446e-14
8.19053e-09
1.1466e-08
1.55359e-12
2.25375e-14
1.29425e-09
2.00934e-06
3.26122e-05
0.000115586
8.7524e-05
6.72234e-05
6.27064e-05
5.15254e-05
4.79727e-05
4.64801e-05
4.53525e-05
4.53979e-05
4.53979e-05
4.53979e-05
4.53979e-05
4.53979e-05
4.53979e-05
4.53979e-05
4.53979e-05
4.53979e-05
4.53979e-05
4.53979e-05
4.53979e-05
4.53979e-05
4.53979e-05
4.53979e-05
4.53979e-05
4.53979e-05
4.53979e-05
4.53979e-05
4.5398e-05
4.55363e-05
7.72844e-05
0.999999
1
0.209305
0
5.55112e-17
3.72168e-09
7.37497e-08
8.98467e-10
1.28786e-14
5.0121e-13
2.94905e-08
4.88594e-06
5.64475e-05
7.54401e-05
6.96731e-05
6.26888e-05
5.19873e-05
4.88683e-05
4.72824e-05
4.59266e-05
4.56272e-05
4.53979e-05
4.53979e-05
4.53979e-05
4.53979e-05
4.53979e-05
4.53979e-05
4.53979e-05
4.53979e-05
4.53979e-05
4.53979e-05
4.53979e-05
4.53979e-05
4.53979e-05
4.53979e-05
4.53979e-05
4.53979e-05
4.53979e-05
4.53979e-05
4.53979e-05
4.53979e-05
4.54274e-05
5.29494e-05
0.571316
1
1
2.66454e-15
0
2.96586e-10
7.7957e-08
2.98601e-08
6.98835e-12
1.88738e-15
3.29148e-11
2.21721e-07
1.3381e-05
4.14295e-05
5.5016e-05
5.42132e-05
5.04825e-05
4.89891e-05
4.74804e-05
4.60951e-05
4.62082e-05
4.36756e-05
4.53979e-05
4.53979e-05
4.53979e-05
4.53979e-05
4.53979e-05
4.53979e-05
4.53979e-05
4.53979e-05
4.53979e-05
4.53979e-05
4.53979e-05
4.53979e-05
4.53979e-05
4.53979e-05
4.53979e-05
4.53979e-05
4.53979e-05
4.53979e-05
4.53979e-05
4.53979e-05
4.54032e-05
4.71911e-05
0.00193249
1
1
1.61707e-09
0
5.39685e-12
4.57646e-08
9.53838e-08
3.05927e-09
2.9754e-14
2.04281e-14
1.31063e-09
1.84968e-06
1.66193e-05
3.55591e-05
4.66929e-05
4.73351e-05
4.84279e-05
4.73609e-05
4.63821e-05
4.62188e-05
4.50615e-05
4.39273e-05
4.53979e-05
4.53979e-05
4.53979e-05
4.53979e-05
4.53979e-05
4.53979e-05
4.53979e-05
4.53979e-05
4.53979e-05
4.53979e-05
4.53979e-05
4.53979e-05
4.53979e-05
4.53979e-05
4.53979e-05
4.53979e-05
4.53979e-05
4.53979e-05
4.53979e-05
4.53979e-05
4.53987e-05
4.57792e-05
0.000146105
1
1
0.000357164
0
1.22125e-14
1.92722e-08
1.31365e-07
4.60398e-08
7.95059e-11
5.21805e-15
9.80882e-13
5.37208e-08
4.23915e-06
1.70601e-05
3.57265e-05
4.06925e-05
4.63958e-05
4.63166e-05
4.59428e-05
4.62039e-05
4.55555e-05
4.53457e-05
4.49055e-05
4.53979e-05
4.53979e-05
4.53979e-05
4.53979e-05
4.53979e-05
4.53979e-05
4.53979e-05
4.53979e-05
4.53979e-05
4.53979e-05
4.53979e-05
4.53979e-05
4.53979e-05
4.53979e-05
4.53979e-05
4.53979e-05
4.53979e-05
4.53979e-05
4.53979e-05
4.53979e-05
4.5398e-05
4.54668e-05
6.18873e-05
0.998219
1
0.984156
0
0
2.59081e-09
1.15929e-07
8.88866e-08
1.37953e-08
4.64906e-12
4.32987e-15
1.54481e-10
4.42182e-07
5.52092e-06
1.98694e-05
2.9027e-05
3.98135e-05
4.22295e-05
4.36647e-05
4.56656e-05
4.5481e-05
4.58835e-05
4.54677e-05
4.4767e-05
4.53979e-05
4.53979e-05
4.53979e-05
4.53979e-05
4.53979e-05
4.53979e-05
4.53979e-05
4.53979e-05
4.53979e-05
4.53979e-05
4.53979e-05
4.53979e-05
4.53979e-05
4.53979e-05
4.53979e-05
4.53979e-05
4.53979e-05
4.53979e-05
4.53979e-05
4.53979e-05
4.53979e-05
4.54081e-05
4.86542e-05
0.0155501
1
1
2.6076e-11
0
8.62391e-11
8.65208e-08
1.02994e-07
5.36896e-08
8.13571e-09
8.52651e-14
1.82021e-13
1.01253e-08
1.0828e-06
7.85698e-06
1.76657e-05
3.0281e-05
3.63169e-05
3.99838e-05
4.39564e-05
4.48652e-05
4.58995e-05
4.54541e-05
4.53387e-05
4.40562e-05
4.53979e-05
4.53979e-05
4.53979e-05
4.53979e-05
4.53979e-05
4.53979e-05
4.53979e-05
4.53979e-05
4.53979e-05
4.53979e-05
4.53979e-05
4.53979e-05
4.53979e-05
4.53979e-05
4.53979e-05
4.53979e-05
4.53979e-05
4.53979e-05
4.53979e-05
4.53979e-05
4.53979e-05
4.53991e-05
4.59854e-05
0.000251656
1
1
2.61938e-05
0
4.05176e-13
3.92835e-08
1.10843e-07
6.41451e-08
2.30554e-07
7.25023e-10
2.65343e-14
2.32301e-11
8.41637e-08
2.09368e-06
8.4368e-06
2.02927e-05
2.88473e-05
3.50657e-05
4.06941e-05
4.31958e-05
4.54296e-05
4.52522e-05
4.53212e-05
4.50834e-05
4.43209e-05
4.53979e-05
4.53979e-05
4.53979e-05
4.53979e-05
4.53979e-05
4.53979e-05
4.53979e-05
4.53979e-05
4.53979e-05
4.53979e-05
4.53979e-05
4.53979e-05
4.53979e-05
4.53979e-05
4.53979e-05
4.53979e-05
4.53979e-05
4.53979e-05
4.53979e-05
4.53979e-05
4.53979e-05
4.5398e-05
4.54857e-05
6.84153e-05
0.999922
1
0.234851
0
3.88578e-16
7.89427e-09
1.07067e-07
6.44785e-08
2.95679e-07
2.78124e-07
2.24181e-11
1.35225e-13
1.49492e-09
3.10859e-07
2.6754e-06
1.10271e-05
2.02479e-05
2.82967e-05
3.5982e-05
4.01634e-05
4.38751e-05
4.46766e-05
4.51275e-05
4.53261e-05
4.51015e-05
4.51991e-05
4.53979e-05
4.53979e-05
4.53979e-05
4.53979e-05
4.53979e-05
4.53979e-05
4.53979e-05
4.53979e-05
4.53979e-05
4.53979e-05
4.53979e-05
4.53979e-05
4.53979e-05
4.53979e-05
4.53979e-05
4.53979e-05
4.53979e-05
4.53979e-05
4.53979e-05
4.53979e-05
4.53979e-05
4.53979e-05
4.54082e-05
4.91638e-05
0.0355361
1
1
9.63668e-12
0
4.19531e-10
8.68862e-08
6.29321e-08
1.76665e-07
1.58179e-06
9.26924e-08
1.04605e-12
6.87578e-12
1.40698e-08
5.71091e-07
4.53989e-06
1.21001e-05
2.08083e-05
2.97504e-05
3.57574e-05
4.10475e-05
4.33631e-05
4.45439e-05
4.51722e-05
4.52222e-05
4.55639e-05
4.50169e-05
4.53979e-05
4.53979e-05
4.53979e-05
4.53979e-05
4.53979e-05
4.53979e-05
4.53979e-05
4.53979e-05
4.53979e-05
4.53979e-05
4.53979e-05
4.53979e-05
4.53979e-05
4.53979e-05
4.53979e-05
4.53979e-05
4.53979e-05
4.53979e-05
4.53979e-05
4.53979e-05
4.53979e-05
4.53979e-05
4.53988e-05
4.59615e-05
0.000274213
1
1
3.64031e-06
0
2.55468e-12
4.95161e-08
6.28635e-08
1.17043e-07
1.49594e-06
4.14602e-06
8.65254e-09
4.38205e-13
1.08872e-10
7.02847e-08
1.34266e-06
5.7486e-06
1.34494e-05
2.2805e-05
3.00589e-05
3.69985e-05
4.07811e-05
4.32994e-05
4.46827e-05
4.50556e-05
4.55039e-05
4.53168e-05
4.4743e-05
4.53979e-05
4.53979e-05
4.53979e-05
4.53979e-05
4.53979e-05
4.53979e-05
4.53979e-05
4.53979e-05
4.53979e-05
4.53979e-05
4.53979e-05
4.53979e-05
4.53979e-05
4.53979e-05
4.53979e-05
4.53979e-05
4.53979e-05
4.53979e-05
4.53979e-05
4.53979e-05
4.53979e-05
4.53979e-05
4.53979e-05
4.5465e-05
6.62681e-05
0.999856
1
0.1051
5.55112e-17
3.16414e-15
1.18669e-08
6.55833e-08
7.56649e-08
7.48625e-07
1.17162e-05
1.04654e-05
5.17024e-11
9.22651e-13
3.21845e-09
2.69101e-07
2.02567e-06
7.2601e-06
1.5799e-05
2.37036e-05
3.17375e-05
3.70341e-05
4.0999e-05
4.35358e-05
4.45972e-05
4.53477e-05
4.51829e-05
4.52468e-05
4.49393e-05
4.53979e-05
4.53979e-05
4.53979e-05
4.53979e-05
4.53979e-05
4.53979e-05
4.53979e-05
4.53979e-05
4.53979e-05
4.53979e-05
4.53979e-05
4.53979e-05
4.53979e-05
4.53979e-05
4.53979e-05
4.53979e-05
4.53979e-05
4.53979e-05
4.53979e-05
4.53979e-05
4.53979e-05
4.53979e-05
4.53979e-05
4.54038e-05
4.82871e-05
0.0177568
1
1
3.90121e-11
0
7.07504e-10
5.97908e-08
5.81392e-08
4.08683e-07
1.17839e-05
5.5084e-05
3.32329e-07
9.88487e-13
4.21962e-11
2.39278e-08
5.22618e-07
3.13043e-06
9.48217e-06
1.72244e-05
2.57802e-05
3.22349e-05
3.77297e-05
4.1399e-05
4.35743e-05
4.49047e-05
4.49965e-05
4.52788e-05
4.54045e-05
4.49455e-05
4.53979e-05
4.53979e-05
4.53979e-05
4.53979e-05
4.53979e-05
4.53979e-05
4.53979e-05
4.53979e-05
4.53979e-05
4.53979e-05
4.53979e-05
4.53979e-05
4.53979e-05
4.53979e-05
4.53979e-05
4.53979e-05
4.53979e-05
4.53979e-05
4.53979e-05
4.53979e-05
4.53979e-05
4.53979e-05
4.53979e-05
4.53982e-05
4.57456e-05
0.000187475
1
1
1.23821e-05
0
4.56113e-12
3.80402e-08
5.03738e-08
2.01719e-07
6.23412e-06
4.98342e-05
5.63308e-05
1.08441e-09
1.62925e-12
6.47799e-10
9.28513e-08
1.03907e-06
4.74854e-06
1.11832e-05
1.95795e-05
2.67459e-05
3.34422e-05
3.83804e-05
4.16404e-05
4.39922e-05
4.45764e-05
4.51758e-05
4.54561e-05
4.52653e-05
4.49573e-05
4.53979e-05
4.53979e-05
4.53979e-05
4.53979e-05
4.53979e-05
4.53979e-05
4.53979e-05
4.53979e-05
4.53979e-05
4.53979e-05
4.53979e-05
4.53979e-05
4.53979e-05
4.53979e-05
4.53979e-05
4.53979e-05
4.53979e-05
4.53979e-05
4.53979e-05
4.53979e-05
4.53979e-05
4.53979e-05
4.53979e-05
4.53979e-05
4.54292e-05
5.83607e-05
0.993749
1
0.461521
6.10623e-16
5.21805e-15
9.93492e-09
4.93532e-08
1.09445e-07
2.83259e-06
4.14912e-05
0.000129248
3.08281e-06
1.64427e-11
1.18242e-11
7.75212e-09
2.57467e-07
1.89367e-06
6.27618e-06
1.35921e-05
2.09627e-05
2.83929e-05
3.4485e-05
3.88945e-05
4.22503e-05
4.37258e-05
4.48559e-05
4.53736e-05
4.52346e-05
4.53478e-05
4.48818e-05
4.53979e-05
4.53979e-05
4.53979e-05
4.53979e-05
4.53979e-05
4.53979e-05
4.53979e-05
4.53979e-05
4.53979e-05
4.53979e-05
4.53979e-05
4.53979e-05
4.53979e-05
4.53979e-05
4.53979e-05
4.53979e-05
4.53979e-05
4.53979e-05
4.53979e-05
4.53979e-05
4.53979e-05
4.53979e-05
4.53979e-05
4.53979e-05
4.53998e-05
4.69107e-05
0.00301477
1
1
6.33517e-10
0
5.3604e-10
4.55051e-08
6.65492e-08
1.09275e-06
3.69523e-05
0.000104387
9.38821e-05
2.82137e-08
3.94035e-12
2.52428e-10
3.85955e-08
5.93808e-07
2.93987e-06
8.40407e-06
1.52583e-05
2.29845e-05
2.98696e-05
3.53538e-05
3.97713e-05
4.21409e-05
4.41133e-05
4.50923e-05
4.5118e-05
4.53829e-05
4.5271e-05
4.4983e-05
4.53979e-05
4.53979e-05
4.53979e-05
4.53979e-05
4.53979e-05
4.53979e-05
4.53979e-05
4.53979e-05
4.53979e-05
4.53979e-05
4.53979e-05
4.53979e-05
4.53979e-05
4.53979e-05
4.53979e-05
4.53979e-05
4.53979e-05
4.53979e-05
4.53979e-05
4.53979e-05
4.53979e-05
4.53979e-05
4.53979e-05
4.53979e-05
4.53979e-05
4.55369e-05
0.000104682
1
1
0.000150731
0
3.15031e-12
2.73547e-08
4.8854e-08
4.00906e-07
2.61987e-05
7.87033e-05
0.000163818
1.25347e-05
3.8627e-10
1.13113e-11
2.50996e-09
1.41544e-07
1.10918e-06
4.49252e-06
1.01088e-05
1.75144e-05
2.48521e-05
3.11413e-05
3.65648e-05
3.98829e-05
4.27004e-05
4.44517e-05
4.48349e-05
4.53129e-05
4.53019e-05
4.52763e-05
4.51693e-05
4.53979e-05
4.53979e-05
4.53979e-05
4.53979e-05
4.53979e-05
4.53979e-05
4.53979e-05
4.53979e-05
4.53979e-05
4.53979e-05
4.53979e-05
4.53979e-05
4.53979e-05
4.53979e-05
4.53979e-05
4.53979e-05
4.53979e-05
4.53979e-05
4.53979e-05
4.53979e-05
4.53979e-05
4.53979e-05
4.53979e-05
4.53979e-05
4.53979e-05
4.54067e-05
5.10973e-05
0.478594
1
0.992988
8.33222e-14
3.05311e-15
6.11876e-09
4.04521e-08
1.523e-07
1.28664e-05
5.33106e-05
0.000192688
7.91735e-05
4.4091e-07
1.96246e-11
1.06001e-10
1.83219e-08
3.3679e-07
2.01399e-06
5.92791e-06
1.2364e-05
1.96707e-05
2.65118e-05
3.27163e-05
3.69686e-05
4.06808e-05
4.31995e-05
4.42503e-05
4.50898e-05
4.52111e-05
4.52746e-05
4.54139e-05
4.51e-05
4.53979e-05
4.53979e-05
4.53979e-05
4.53979e-05
4.53979e-05
4.53979e-05
4.53979e-05
4.53979e-05
4.53979e-05
4.53979e-05
4.53979e-05
4.53979e-05
4.53979e-05
4.53979e-05
4.53979e-05
4.53979e-05
4.53979e-05
4.53979e-05
4.53979e-05
4.53979e-05
4.53979e-05
4.53979e-05
4.53979e-05
4.53979e-05
4.53979e-05
4.53982e-05
4.59292e-05
0.000448312
1
1
2.57312e-08
5.55112e-17
1.87069e-10
3.18439e-08
6.89496e-08
4.76188e-06
4.41028e-05
0.000209148
0.000116444
2.79958e-05
4.96764e-09
1.88569e-11
1.10703e-09
7.50396e-08
7.48474e-07
2.98927e-06
7.90899e-06
1.46227e-05
2.16529e-05
2.84384e-05
3.34655e-05
3.80659e-05
4.13845e-05
4.3123e-05
4.45786e-05
4.49877e-05
4.51921e-05
4.54027e-05
4.53354e-05
4.50629e-05
4.53979e-05
4.53979e-05
4.53979e-05
4.53979e-05
4.53979e-05
4.53979e-05
4.53979e-05
4.53979e-05
4.53979e-05
4.53979e-05
4.53979e-05
4.53979e-05
4.53979e-05
4.53979e-05
4.53979e-05
4.53979e-05
4.53979e-05
4.53979e-05
4.53979e-05
4.53979e-05
4.53979e-05
4.53979e-05
4.53979e-05
4.53979e-05
4.53979e-05
4.53979e-05
4.54326e-05
6.51592e-05
0.999821
1
0.00882269
4.44089e-16
8.71359e-13
1.4245e-08
4.14011e-08
1.45576e-06
3.95198e-05
0.000191807
0.000162948
5.94303e-05
1.88162e-06
2.32633e-10
7.03105e-11
9.6862e-09
2.24645e-07
1.24854e-06
4.46944e-06
1.00306e-05
1.67941e-05
2.38792e-05
2.95517e-05
3.48889e-05
3.90158e-05
4.1486e-05
4.35699e-05
4.4508e-05
4.49864e-05
4.53533e-05
4.53211e-05
4.53195e-05
4.51247e-05
4.53979e-05
4.53979e-05
4.53979e-05
4.53979e-05
4.53979e-05
4.53979e-05
4.53979e-05
4.53979e-05
4.53979e-05
4.53979e-05
4.53979e-05
4.53979e-05
4.53979e-05
4.53979e-05
4.53979e-05
4.53979e-05
4.53979e-05
4.53979e-05
4.53979e-05
4.53979e-05
4.53979e-05
4.53979e-05
4.53979e-05
4.53979e-05
4.53979e-05
4.53979e-05
4.53994e-05
4.71734e-05
0.00762669
1
0.999999
6.25267e-11
1.22125e-15
1.83702e-09
3.1642e-08
3.96363e-07
2.99359e-05
0.000154389
0.000184663
5.94617e-05
2.83581e-05
8.12662e-08
5.17003e-11
8.14351e-10
4.0606e-08
4.38926e-07
2.17871e-06
6.2044e-06
1.21926e-05
1.9214e-05
2.5347e-05
3.13018e-05
3.61173e-05
3.93448e-05
4.21056e-05
4.35855e-05
4.45567e-05
4.51937e-05
4.52612e-05
4.53326e-05
4.53676e-05
4.51056e-05
4.53979e-05
4.53979e-05
4.53979e-05
4.53979e-05
4.53979e-05
4.53979e-05
4.53979e-05
4.53979e-05
4.53979e-05
4.53979e-05
4.53979e-05
4.53979e-05
4.53979e-05
4.53979e-05
4.53979e-05
4.53979e-05
4.53979e-05
4.53979e-05
4.53979e-05
4.53979e-05
4.53979e-05
4.53979e-05
4.53979e-05
4.53979e-05
4.53979e-05
4.53979e-05
4.53979e-05
4.55183e-05
0.000114413
1
1
6.122e-06
1.11022e-16
3.22944e-11
2.16814e-08
1.2384e-07
1.86797e-05
0.000117707
0.000211734
6.96465e-05
4.95982e-05
6.89425e-06
2.75515e-09
1.12267e-10
3.87538e-09
1.28328e-07
9.08033e-07
3.37915e-06
8.13363e-06
1.46442e-05
2.09829e-05
2.7401e-05
3.2817e-05
3.67203e-05
4.01921e-05
4.22478e-05
4.37273e-05
4.48299e-05
4.51044e-05
4.52838e-05
4.53857e-05
4.5299e-05
4.51965e-05
4.53979e-05
4.53979e-05
4.53979e-05
4.53979e-05
4.53979e-05
4.53979e-05
4.53979e-05
4.53979e-05
4.53979e-05
4.53979e-05
4.53979e-05
4.53979e-05
4.53979e-05
4.53979e-05
4.53979e-05
4.53979e-05
4.53979e-05
4.53979e-05
4.53979e-05
4.53979e-05
4.53979e-05
4.53979e-05
4.53979e-05
4.53979e-05
4.53979e-05
4.53979e-05
4.53979e-05
4.54031e-05
5.05863e-05
0.378472
1
0.848881
1.15408e-13
7.14984e-14
8.11285e-09
5.25125e-08
8.08823e-06
8.47106e-05
0.000192998
7.96316e-05
5.18032e-05
3.45178e-05
6.29102e-07
3.0527e-10
3.88517e-10
2.47807e-08
3.22779e-07
1.57992e-06
4.8719e-06
1.04126e-05
1.66117e-05
2.32882e-05
2.91956e-05
3.37177e-05
3.78313e-05
4.05013e-05
4.25229e-05
4.4099e-05
4.47652e-05
4.51476e-05
4.53387e-05
4.52883e-05
4.53729e-05
4.53059e-05
4.53979e-05
4.53979e-05
4.53979e-05
4.53979e-05
4.53979e-05
4.53979e-05
4.53979e-05
4.53979e-05
4.53979e-05
4.53979e-05
4.53979e-05
4.53979e-05
4.53979e-05
4.53979e-05
4.53979e-05
4.53979e-05
4.53979e-05
4.53979e-05
4.53979e-05
4.53979e-05
4.53979e-05
4.53979e-05
4.53979e-05
4.53979e-05
4.53979e-05
4.53979e-05
4.53979e-05
4.53981e-05
4.57624e-05
0.000327245
1
1
6.78165e-08
1.60982e-15
4.85239e-10
2.83857e-08
1.83182e-06
5.27707e-05
0.000154595
9.92783e-05
5.69034e-05
4.53869e-05
1.39362e-05
3.01785e-08
1.72335e-10
3.04014e-09
8.35233e-08
6.42251e-07
2.5675e-06
6.77096e-06
1.24196e-05
1.90777e-05
2.53344e-05
3.04017e-05
3.511e-05
3.83473e-05
4.09491e-05
4.30243e-05
4.40997e-05
4.48407e-05
4.52092e-05
4.52311e-05
4.53795e-05
4.54542e-05
4.5306e-05
4.53979e-05
4.53979e-05
4.53979e-05
4.53979e-05
4.53979e-05
4.53979e-05
4.53979e-05
4.53979e-05
4.53979e-05
4.53979e-05
4.53979e-05
4.53979e-05
4.53979e-05
4.53979e-05
4.53979e-05
4.53979e-05
4.53979e-05
4.53979e-05
4.53979e-05
4.53979e-05
4.53979e-05
4.53979e-05
4.53979e-05
4.53979e-05
4.53979e-05
4.53979e-05
4.53979e-05
4.53979e-05
4.54142e-05
5.87581e-05
0.995281
1
0.00454936
6.32827e-15
3.99858e-12
1.13967e-08
3.5369e-07
3.29441e-05
0.000107496
0.000123817
6.58825e-05
4.56401e-05
3.28899e-05
2.674e-06
2.16184e-09
4.49097e-10
1.30293e-08
2.27098e-07
1.1726e-06
3.94652e-06
8.62632e-06
1.49138e-05
2.13207e-05
2.68353e-05
3.20795e-05
3.58605e-05
3.90039e-05
4.1615e-05
4.31232e-05
4.42332e-05
4.49316e-05
4.51014e-05
4.53689e-05
4.54637e-05
4.5398e-05
4.53714e-05
4.53979e-05
4.53979e-05
4.53979e-05
4.53979e-05
4.53979e-05
4.53979e-05
4.53979e-05
4.53979e-05
4.53979e-05
4.53979e-05
4.53979e-05
4.53979e-05
4.53979e-05
4.53979e-05
4.53979e-05
4.53979e-05
4.53979e-05
4.53979e-05
4.53979e-05
4.53979e-05
4.53979e-05
4.53979e-05
4.53979e-05
4.53979e-05
4.53979e-05
4.53979e-05
4.53979e-05
4.53979e-05
4.53984e-05
4.63451e-05
0.00186115
1
0.999999
2.74626e-10
8.99281e-15
1.61601e-09
8.67762e-08
1.53531e-05
6.73865e-05
0.00015896
7.95513e-05
4.55874e-05
3.83287e-05
2.05103e-05
2.6411e-07
5.00115e-10
1.78348e-09
5.61235e-08
4.73646e-07
2.02804e-06
5.44868e-06
1.09723e-05
1.72642e-05
2.30844e-05
2.87872e-05
3.30832e-05
3.67499e-05
3.9865e-05
4.18446e-05
4.33463e-05
4.43817e-05
4.48407e-05
4.529e-05
4.54537e-05
4.53663e-05
4.54397e-05
4.5495e-05
4.53979e-05
4.53979e-05
4.53979e-05
4.53979e-05
4.53979e-05
4.53979e-05
4.53979e-05
4.53979e-05
4.53979e-05
4.53979e-05
4.53979e-05
4.53979e-05
4.53979e-05
4.53979e-05
4.53979e-05
4.53979e-05
4.53979e-05
4.53979e-05
4.53979e-05
4.53979e-05
4.53979e-05
4.53979e-05
4.53979e-05
4.53979e-05
4.53979e-05
4.53979e-05
4.53979e-05
4.53979e-05
4.53978e-05
4.54421e-05
7.83082e-05
0.999989
1
0.000105432
2.27596e-15
3.79816e-11
2.45188e-08
3.78071e-06
4.51015e-05
0.000180338
0.000104751
4.6703e-05
4.10251e-05
3.11953e-05
8.29209e-06
1.53271e-08
5.4481e-10
9.00475e-09
1.60698e-07
9.25613e-07
3.07108e-06
7.46487e-06
1.32999e-05
1.92303e-05
2.52806e-05
3.0053e-05
3.42203e-05
3.78296e-05
4.02498e-05
4.22053e-05
4.35779e-05
4.43375e-05
4.50857e-05
4.53815e-05
4.53233e-05
4.54102e-05
4.54756e-05
4.55329e-05
4.53979e-05
4.53979e-05
4.53979e-05
4.53979e-05
4.53979e-05
4.53979e-05
4.53979e-05
4.53979e-05
4.53979e-05
4.53979e-05
4.53979e-05
4.53979e-05
4.53979e-05
4.53979e-05
4.53979e-05
4.53979e-05
4.53979e-05
4.53979e-05
4.53979e-05
4.53979e-05
4.53979e-05
4.53979e-05
4.53979e-05
4.53979e-05
4.53979e-05
4.53979e-05
4.53979e-05
4.53979e-05
4.53978e-05
4.53991e-05
4.76155e-05
0.0186935
1
0.99108
1.31322e-11
1.23623e-13
4.91042e-09
6.98439e-07
3.5977e-05
0.000168999
0.000142125
4.94661e-05
4.35138e-05
3.30607e-05
2.73961e-05
1.23995e-06
2.08845e-09
1.55159e-09
3.80085e-08
3.74052e-07
1.51135e-06
4.60593e-06
9.60797e-06
1.53749e-05
2.16177e-05
2.68048e-05
3.1444e-05
3.55352e-05
3.84012e-05
4.07919e-05
4.25376e-05
4.36052e-05
4.46562e-05
4.52077e-05
4.5233e-05
4.53906e-05
4.54331e-05
4.54383e-05
4.55629e-05
4.53979e-05
4.53979e-05
4.53979e-05
4.53979e-05
4.53979e-05
4.53979e-05
4.53979e-05
4.53979e-05
4.53979e-05
4.53979e-05
4.53979e-05
4.53979e-05
4.53979e-05
4.53979e-05
4.53979e-05
4.53979e-05
4.53979e-05
4.53979e-05
4.53979e-05
4.53979e-05
4.53979e-05
4.53979e-05
4.53979e-05
4.53979e-05
4.53979e-05
4.53979e-05
4.53979e-05
4.53979e-05
4.53978e-05
4.53978e-05
4.55069e-05
0.000123433
1
1
7.38706e-07
6.77236e-15
1.84354e-10
1.13599e-07
2.20342e-05
0.000130539
0.000182225
5.47086e-05
4.58575e-05
3.42155e-05
3.16144e-05
1.44877e-05
1.13062e-07
9.69423e-10
6.86722e-09
1.10902e-07
6.71583e-07
2.54239e-06
6.39239e-06
1.16553e-05
1.78702e-05
2.33794e-05
2.84458e-05
3.30007e-05
3.63215e-05
3.91469e-05
4.12425e-05
4.26536e-05
4.40123e-05
4.48275e-05
4.50594e-05
4.53191e-05
4.54325e-05
4.53601e-05
4.55118e-05
4.56582e-05
4.53979e-05
4.53979e-05
4.53979e-05
4.53979e-05
4.53979e-05
4.53979e-05
4.53979e-05
4.53979e-05
4.53979e-05
4.53979e-05
4.53979e-05
4.53979e-05
4.53979e-05
4.53979e-05
4.53979e-05
4.53979e-05
4.53979e-05
4.53979e-05
4.53979e-05
4.53979e-05
4.53979e-05
4.53979e-05
4.53979e-05
4.53979e-05
4.53979e-05
4.53979e-05
4.53979e-05
4.53979e-05
4.53978e-05
4.53978e-05
4.54015e-05
4.99747e-05
0.247079
1
0.224255
5.34128e-13
1.18167e-12
1.53959e-08
8.85127e-06
8.69103e-05
0.000199615
6.69469e-05
4.82458e-05
3.49429e-05
3.06401e-05
2.83839e-05
4.50311e-06
1.03163e-08
1.78102e-09
2.17365e-08
2.72675e-07
1.25345e-06
3.85371e-06
8.25409e-06
1.41413e-05
1.98255e-05
2.52533e-05
3.024e-05
3.40142e-05
3.72731e-05
3.9735e-05
4.147e-05
4.31696e-05
4.42519e-05
4.47001e-05
4.51675e-05
4.53589e-05
4.53557e-05
4.54323e-05
4.55505e-05
4.5716e-05
4.53979e-05
4.53979e-05
4.53979e-05
4.53979e-05
4.53979e-05
4.53979e-05
4.53979e-05
4.53979e-05
4.53979e-05
4.53979e-05
4.53979e-05
4.53979e-05
4.53979e-05
4.53979e-05
4.53979e-05
4.53979e-05
4.53979e-05
4.53979e-05