/*--------------------------------*- C++ -*----------------------------------*\
| =========                 |                                                 |
| \\      /  F ield         | OpenFOAM: The Open Source CFD Toolbox           |
|  \\    /   O peration     | Version:  v2012                                 |
|   \\  /    A nd           | Website:  www.openfoam.com                      |
|    \\/     M anipulation  |                                                 |
\*---------------------------------------------------------------------------*/
FoamFile
{
    version     2.0;
    format      ascii;
    class       volScalarField;
    location    "1801";
    object      I1;
}
// * * * * * * * * * * * * * * * * * * * * * * * * * * * * * * * * * * * * * //

dimensions      [0 0 0 0 0 0 0];


internalField   nonuniform List<scalar> 
8000
(
2.06302e-61
2.15316e-56
2.78909e-60
8.05883e-67
1.13625e-57
1.29392e-61
7.50123e-52
2.09142e-60
6.50083e-56
1.15726e-69
9.26425e-52
2.37168e-53
3.39286e-53
9.74294e-57
6.06024e-60
2.74481e-65
6.20712e-52
1.76397e-53
4.95226e-54
5.05697e-58
5.62568e-62
1.0885e-51
4.41659e-57
9.55325e-51
1.35208e-53
2.30297e-55
2.49229e-55
3.06491e-60
2.48775e-59
7.97969e-52
2.05077e-51
9.2393e-52
9.97919e-54
1.7397e-55
2.83731e-58
7.10666e-60
1.7138e-51
3.16616e-56
9.806e-51
8.4634e-53
2.18565e-51
7.57497e-54
1.49896e-55
2.07496e-58
3.33249e-61
1.88531e-55
1.37062e-50
1.54661e-52
7.14777e-52
1.01297e-51
4.53459e-51
5.68658e-54
1.5739e-55
5.22917e-63
2.07549e-62
9.40252e-51
5.85766e-57
5.40468e-52
1.57798e-52
2.05002e-49
3.96467e-51
1.94911e-64
5.88438e-54
1.30447e-54
7.58298e-64
1.76985e-61
5.45336e-57
6.84873e-51
2.36543e-56
6.39642e-51
2.16784e-50
1.98257e-50
2.92813e-51
5.8988e-53
6.83935e-54
6.09735e-56
6.66158e-57
1.30031e-61
5.59396e-51
1.96324e-50
4.57653e-58
2.05127e-50
2.99451e-52
1.01118e-51
1.80586e-52
1.6565e-58
6.81072e-53
2.16819e-52
5.37609e-56
4.74888e-64
7.02768e-63
1.77273e-49
3.29987e-51
8.99387e-52
5.29568e-51
5.07769e-56
3.63718e-51
4.64204e-53
2.34377e-51
3.24839e-52
1.80174e-52
2.06638e-54
5.36157e-55
3.60535e-57
8.63423e-69
1.50093e-49
1.34381e-50
2.41521e-51
2.98513e-54
2.78691e-51
5.97968e-50
5.7652e-56
5.71233e-52
1.64734e-51
1.26479e-51
2.70626e-53
9.01899e-62
3.83722e-55
3.2931e-59
3.22133e-63
1.08107e-42
3.32621e-49
6.62031e-51
1.80839e-51
4.75449e-54
1.68085e-49
5.84117e-59
1.95663e-51
2.91985e-61
8.15889e-53
2.04633e-52
2.08624e-53
1.13086e-54
5.80834e-61
3.21467e-59
3.81264e-62
3.32698e-32
1.44472e-42
6.85735e-54
7.17101e-50
2.21971e-50
5.95301e-51
1.03175e-56
3.92024e-52
2.57326e-51
3.23068e-52
4.94819e-51
1.50475e-52
8.0545e-53
8.25183e-55
3.27451e-56
4.54144e-57
6.07474e-70
3.15163e-20
4.24633e-32
4.55963e-43
6.52975e-50
2.68025e-49
1.18075e-51
6.90107e-50
1.19192e-51
4.6575e-56
7.04295e-53
1.4958e-53
8.40035e-52
7.15733e-54
1.27099e-54
1.61644e-61
9.72508e-57
1.30341e-59
1.5673e-63
1.97814e-08
3.06233e-20
4.53776e-33
8.78175e-44
8.2513e-51
3.30403e-51
5.75207e-50
1.138e-57
8.52471e-52
1.15725e-55
4.34657e-51
3.04275e-51
3.70063e-53
1.06801e-57
1.36585e-52
7.38204e-54
1.12869e-55
8.02667e-58
1.51418e-62
0.000625173
1.35803e-09
8.88676e-21
6.70622e-34
2.68306e-44
6.02014e-51
2.99307e-50
8.41589e-51
3.15446e-51
6.5118e-52
2.64223e-52
3.22317e-57
5.88593e-53
2.78661e-53
5.81357e-54
3.8928e-55
3.47143e-55
2.46889e-61
7.17922e-60
4.55736e-69
0.00755712
0.00335796
7.48323e-10
7.10582e-22
9.72915e-35
7.80895e-45
4.92885e-51
2.18847e-50
8.26767e-57
9.15433e-51
6.90894e-56
1.7718e-59
8.27189e-60
4.44148e-51
2.39564e-53
4.75724e-53
2.35915e-53
2.38491e-55
1.50609e-56
5.21009e-60
8.31574e-63
0.0296686
0.0100896
6.57158e-05
2.01642e-10
3.28836e-23
2.14629e-35
2.21825e-45
2.22667e-52
2.08866e-55
1.04466e-54
1.01252e-55
3.99438e-52
1.71692e-58
3.90405e-52
3.73884e-52
1.4975e-53
2.49457e-54
5.10545e-52
1.57748e-53
2.71007e-57
1.15775e-66
3.76572e-64
0.0531192
0.0135538
0.0104635
7.74147e-06
9.22696e-11
6.48479e-24
5.6494e-36
1.35785e-45
1.28278e-50
1.19454e-55
2.38709e-52
5.23103e-51
3.05364e-52
1.8497e-56
1.52561e-51
1.07784e-64
1.8111e-52
2.07728e-51
1.84666e-55
3.31482e-53
5.92424e-55
2.26957e-58
4.9113e-63
0.0695918
0.0132022
0.0429375
0.00343385
2.17313e-06
2.00923e-11
1.76501e-24
1.61978e-36
4.43517e-46
7.40024e-56
1.00786e-50
1.59154e-52
1.26905e-51
2.26991e-52
2.90048e-56
1.16228e-51
9.20024e-52
8.18425e-54
1.41902e-54
1.49098e-52
8.05646e-54
9.51409e-55
1.68733e-58
2.04143e-64
0.0546982
0.00792754
0.050981
0.0352301
0.00136231
8.85153e-07
5.02809e-12
6.53719e-25
6.07899e-37
1.9018e-46
2.1076e-51
7.02935e-63
5.48348e-56
9.55022e-57
3.10037e-51
7.18602e-52
2.68861e-51
7.6275e-58
9.87629e-54
5.3728e-52
5.33517e-53
5.69926e-54
1.88025e-56
1.52799e-60
1.70897e-64
0.0490915
0.0100242
0.0461081
0.0739291
0.0211027
0.00066201
4.38302e-07
9.57219e-13
2.60356e-25
1.96372e-37
7.3768e-47
1.08324e-51
3.65293e-58
1.18596e-60
1.00254e-52
1.49348e-57
5.41805e-52
1.9712e-51
4.12013e-52
2.84183e-51
1.03714e-53
5.40492e-56
5.29001e-56
8.35111e-58
2.88068e-58
1.09753e-64
0.0328435
0.000734853
0.0377993
0.0779317
0.0656824
0.013363
0.000371676
2.53103e-07
1.76067e-13
8.66643e-26
6.67149e-38
1.19113e-47
8.86308e-52
1.93133e-57
2.05814e-50
2.36896e-53
1.10448e-57
3.94399e-52
5.72647e-54
3.07619e-52
2.12978e-51
7.33769e-54
2.63849e-58
2.13086e-61
1.64893e-61
1.33211e-59
8.26579e-65
0.0223821
0.0114979
0.0235091
0.0729283
0.0959926
0.0483551
0.00939741
0.000232224
1.6204e-07
3.05758e-14
2.23453e-26
1.48517e-38
8.78245e-48
6.72748e-52
3.34265e-51
9.94935e-52
1.15801e-52
1.18223e-51
2.00125e-53
7.80733e-57
2.26781e-52
2.38022e-54
8.31565e-52
1.50045e-61
1.70992e-60
1.13567e-55
1.39414e-59
7.50568e-70
0.0101701
0.000550239
0.0136468
0.0595961
0.0949384
0.0882374
0.0393045
0.00675626
0.000157888
1.12886e-07
4.69139e-15
4.365e-27
3.86428e-39
4.48747e-48
2.75534e-51
9.38746e-61
5.70746e-53
1.22449e-53
9.14551e-52
1.5729e-53
3.53015e-54
6.6432e-55
1.55581e-52
6.07996e-52
6.63333e-54
3.23488e-55
7.34247e-57
1.66054e-65
4.55536e-65
0.00386667
0.0466461
0.00906492
0.0334483
0.0922936
0.108117
0.0725131
0.0344384
0.00497391
0.000115111
8.50759e-08
5.12575e-16
7.52027e-28
6.49033e-40
7.52611e-49
1.9241e-51
2.00221e-51
5.47687e-52
2.86895e-52
4.02395e-53
7.95912e-52
3.60616e-53
1.40419e-52
3.38171e-52
1.50191e-53
8.17686e-60
2.68873e-55
3.8125e-57
2.3029e-60
5.18575e-64
0.000916075
0.00271634
0.000372428
0.0139917
0.0819966
0.104111
0.103165
0.0658863
0.0288147
0.00391078
8.90882e-05
6.99355e-08
4.67326e-17
1.02699e-28
1.37903e-40
2.87116e-50
3.08902e-52
2.84151e-55
1.99193e-51
1.12885e-52
1.79506e-50
9.68253e-54
4.26445e-54
1.42204e-51
1.71284e-54
2.30048e-54
2.33231e-56
1.05365e-56
1.48055e-56
3.88335e-60
3.88852e-64
0.000149116
0.0754537
0.000333539
0.00350307
0.0459078
0.102925
0.116178
0.0884375
0.0649814
0.0234916
0.00325795
7.4281e-05
6.32608e-08
2.80492e-18
1.24229e-29
1.69953e-41
1.18927e-50
2.18702e-52
6.24939e-53
1.76472e-53
1.28789e-51
3.26483e-62
1.18087e-53
1.61239e-51
1.59642e-58
6.99025e-55
3.93088e-60
6.17945e-54
6.9299e-55
2.0982e-57
2.80209e-60
2.80175e-64
1.54231e-05
0.0686169
0.000585534
0.000506049
0.0145663
0.0844561
0.126002
0.100537
0.0928997
0.0552247
0.0214926
0.00278322
6.70796e-05
6.44757e-08
1.60729e-19
1.19181e-30
2.13515e-42
6.43406e-54
1.62917e-53
5.5188e-53
1.34471e-53
2.77829e-55
1.68036e-53
1.01901e-51
1.88318e-56
1.56962e-53
2.25194e-58
8.79318e-56
7.86239e-57
6.79696e-57
1.54897e-57
1.37865e-61
2.07764e-64
1.0675e-06
0.00446715
0.0411439
0.000131071
0.00302628
0.0547518
0.108117
0.123927
0.0977327
0.0886456
0.0512319
0.019496
0.00259726
6.08435e-05
7.11517e-08
9.41632e-21
9.14297e-32
2.29806e-43
3.09002e-52
5.2199e-54
3.22084e-53
2.33027e-56
3.25293e-54
1.10382e-53
7.09897e-53
1.71048e-52
1.11423e-53
9.17261e-65
6.01345e-56
4.3729e-55
1.07596e-55
7.33348e-59
1.65617e-61
9.49633e-66
4.94661e-08
0.00320177
0.0605023
0.000124358
6.94111e-05
0.0172257
0.0867705
0.131491
0.106389
0.105594
0.077915
0.0517909
0.0180119
0.00255369
6.71125e-05
8.32556e-08
4.14056e-22
5.57185e-33
2.01143e-44
3.19617e-53
1.03865e-55
3.19462e-53
1.45879e-56
1.24872e-53
6.83646e-52
3.93815e-53
5.33991e-55
2.60548e-53
4.56578e-54
6.40687e-55
9.86884e-55
3.44499e-57
1.05505e-62
5.61528e-60
7.31987e-66
1.54445e-09
0.00675326
0.00223992
0.0157544
1.80384e-05
0.00233007
0.052739
0.108703
0.130588
0.10363
0.103276
0.0758116
0.0506839
0.0180084
0.00279142
7.78315e-05
9.48944e-08
1.5006e-23
2.49143e-34
1.88586e-45
6.36534e-53
4.7856e-52
1.90492e-53
1.05583e-53
1.26877e-52
9.83289e-53
1.50603e-54
2.35261e-63
8.0038e-60
3.38703e-54
4.53748e-55
4.93e-57
3.83358e-56
7.29252e-59
8.57441e-61
5.69298e-66
3.30618e-11
0.000891366
0.00254162
0.0395578
1.58407e-05
0.000156801
0.0147585
0.0814085
0.133813
0.112856
0.113186
0.0925997
0.0815023
0.0479374
0.0199777
0.00310617
8.81091e-05
1.03768e-07
3.64244e-25
9.01943e-36
1.09027e-46
3.54959e-53
8.017e-56
2.29784e-52
1.07527e-51
1.05367e-54
4.47902e-54
1.27744e-54
2.88023e-55
1.40579e-53
2.85937e-54
1.13259e-58
4.91182e-57
1.57449e-68
4.47449e-58
9.81012e-60
3.64055e-66
4.87197e-13
1.71596e-05
0.059802
0.00186134
1.22954e-05
3.54495e-05
0.00101174
0.0418366
0.104861
0.134497
0.109808
0.111847
0.0922792
0.0818899
0.0497939
0.0217203
0.00341761
9.5237e-05
1.08822e-07
5.33266e-27
2.65222e-37
3.78427e-48
1.93377e-54
1.74459e-52
1.04008e-53
1.89898e-54
1.68822e-53
2.60577e-58
2.03402e-63
4.977e-53
3.33004e-54
1.86599e-54
3.09748e-59
2.59658e-56
2.49174e-56
1.40769e-61
7.42253e-60
5.52378e-70
4.75219e-15
6.53475e-07
0.0404349
0.00212459
0.000761262
6.66152e-05
0.000202717
0.00784926
0.0693544
0.131594
0.116789
0.119249
0.100873
0.101103
0.0767275
0.0555109
0.0221724
0.00367779
9.89002e-05
1.11062e-07
5.7838e-29
5.26213e-39
2.18835e-49
4.91488e-56
1.61799e-54
2.00757e-58
1.66865e-52
4.46007e-53
1.80689e-64
4.08765e-57
1.47991e-55
4.64326e-55
9.2928e-56
3.00905e-54
2.93623e-62
8.97574e-58
1.35175e-57
1.66091e-60
1.69407e-64
2.91521e-17
3.21924e-08
0.00142663
0.0659704
0.00081009
0.0029139
3.47526e-05
0.000258977
0.0254034
0.0949205
0.13431
0.11385
0.116701
0.0999894
0.101085
0.0778939
0.057251
0.0229178
0.0037854
0.000100549
1.1048e-07
5.42364e-31
6.39676e-41
6.31506e-51
3.48284e-52
1.32662e-54
8.29745e-53
1.73851e-54
2.77169e-55
2.10295e-54
4.92045e-55
2.28621e-59
3.77068e-55
8.78096e-61
1.37791e-55
1.0513e-55
6.93393e-58
1.33509e-62
3.92899e-60
8.2028e-70
1.12395e-19
1.65341e-10
0.00221664
0.00207672
0.0475054
0.00014549
0.00256365
6.10003e-06
0.00223853
0.0550107
0.109398
0.131756
0.110583
0.113585
0.099536
0.100769
0.0784067
0.0580777
0.0232845
0.00382611
9.99628e-05
1.08074e-07
1.66834e-33
7.2906e-43
1.69964e-51
5.29924e-53
1.35823e-53
7.75731e-58
9.90377e-53
4.81041e-54
2.25377e-53
6.66625e-55
4.71824e-53
1.30095e-54
4.41167e-56
1.6391e-54
4.38337e-65
1.32846e-64
2.10759e-57
1.84037e-61
1.7596e-65
2.36626e-22
2.32134e-12
1.94114e-05
0.0542067
0.00198476
1.46716e-05
0.000115976
0.000693762
1.01992e-06
0.0103208
0.0865077
0.113993
0.126903
0.107029
0.111713
0.0979552
0.0999499
0.0784068
0.0584634
0.0233861
0.00380255
9.81787e-05
1.04536e-07
4.06466e-36
5.08189e-45
4.20183e-52
3.23107e-53
1.08286e-53
4.84503e-53
3.22514e-62
2.32951e-55
4.62207e-59
5.45982e-54
4.88112e-56
9.58026e-60
3.92359e-56
1.73514e-56
5.76686e-59
5.97132e-58
8.90228e-64
2.22129e-60
4.28073e-73
2.79634e-25
4.96408e-15
2.09241e-06
0.00188478
0.0615696
8.20307e-05
0.00366553
7.62531e-05
3.73489e-05
0.000219804
0.0280813
0.108657
0.112869
0.121937
0.103581
0.109185
0.0963977
0.0992086
0.0783951
0.0584473
0.0232484
0.00373732
9.49272e-05
1.00262e-07
1.99343e-38
1.64832e-47
4.3165e-53
8.86399e-55
8.06893e-54
1.62837e-54
8.27465e-61
7.23635e-60
1.21274e-53
1.15341e-61
1.10041e-53
5.35309e-54
3.84293e-56
3.51116e-57
3.40843e-58
2.27759e-56
3.53804e-58
2.43444e-66
9.42367e-67
1.47099e-28
1.9331e-17
4.91178e-09
0.0105839
0.00183672
0.025418
0.00012921
0.00332309
1.17888e-05
1.87337e-06
0.00205066
0.0533639
0.118152
0.109876
0.116731
0.101492
0.107284
0.0953238
0.0986647
0.0780933
0.0581418
0.0229605
0.00364403
9.14137e-05
9.57527e-08
3.26361e-41
2.40027e-50
1.72229e-54
6.91718e-58
1.59359e-54
2.14008e-54
4.80105e-55
1.06775e-53
7.01576e-61
2.15704e-54
6.5617e-55
6.85865e-57
5.61349e-55
1.40933e-57
2.74843e-56
1.68416e-56
3.41195e-60
4.33205e-63
4.56275e-67
3.84384e-32
1.30301e-20
8.22241e-11
9.83828e-05
0.0554779
0.00182816
0.00160342
0.000103674
0.00129309
1.31547e-06
1.97733e-05
0.00964413
0.0756557
0.120008
0.106101
0.113928
0.0999112
0.105964
0.094554
0.0980806
0.0777316
0.0538651
0.0235483
0.0034793
8.79246e-05
9.15071e-08
3.17127e-45
3.02685e-52
5.82418e-54
7.39485e-57
2.80001e-59
7.47895e-56
4.71063e-54
1.31603e-54
3.90202e-55
8.14298e-54
2.3214e-56
1.26483e-54
1.38511e-56
6.75862e-61
8.15125e-61
2.97887e-58
8.84512e-67
3.31815e-63
5.15199e-66
3.15662e-36
1.07513e-23
6.70753e-14
2.08893e-05
0.00174374
0.0558795
5.40474e-06
0.00382577
7.60159e-05
0.000225333
6.38074e-07
0.000199629
0.0275862
0.0903099
0.118099
0.102723
0.112673
0.0987155
0.105182
0.0940028
0.0976191
0.0839474
0.0532753
0.0230696
0.00336776
8.43895e-05
8.73564e-08
3.4299e-47
8.47001e-53
1.7972e-56
1.04469e-53
9.84472e-57
7.51955e-55
5.57912e-55
8.27418e-56
2.28291e-53
5.9022e-54
4.24727e-54
4.36732e-57
1.61968e-55
4.4532e-57
1.30507e-58
1.50844e-58
2.85246e-59
2.65795e-63
2.37089e-67
9.1192e-41
2.2312e-27
8.46279e-17
1.49794e-07
0.000992194
0.0572509
0.0004278
0.00389754
9.3087e-05
0.000603909
2.47812e-06
3.43956e-06
0.00113557
0.0491752
0.109009
0.102449
0.112273
0.101015
0.107714
0.0952108
0.102679
0.0971521
0.0767597
0.0562843
0.0216297
0.00331282
8.06854e-05
8.30983e-08
3.79448e-49
1.871e-52
4.51671e-52
1.00067e-56
1.27474e-53
1.27073e-53
2.61708e-54
9.2009e-55
3.38474e-54
1.19821e-55
1.45986e-58
2.22185e-59
1.07596e-60
1.18339e-57
7.56546e-57
1.2942e-57
1.34088e-60
3.99354e-62
1.75714e-67
1.44498e-45
1.64179e-31
4.67157e-20
4.38792e-10
0.000169864
0.0540314
0.00140385
0.00273587
0.000102025
0.0012333
8.63521e-06
4.60942e-05
1.25984e-06
0.00770887
0.0768762
0.098933
0.111485
0.100461
0.110609
0.0970063
0.104153
0.0932974
0.0966545
0.0762138
0.0555184
0.0211608
0.0032024
7.71162e-05
7.9028e-08
2.54784e-50
4.56647e-52
3.57864e-55
7.55393e-54
2.89109e-53
5.2748e-55
1.12372e-53
2.36379e-56
1.30715e-53
3.72762e-56
1.07693e-56
2.79146e-56
3.62022e-61
6.91703e-66
1.95156e-56
3.17541e-63
9.07123e-61
2.41503e-67
1.38799e-67
4.65823e-48
3.67885e-36
9.96157e-24
5.63588e-13
5.35862e-06
0.0423648
0.00158091
1.56943e-05
0.000110393
0.00218066
1.03399e-05
0.000129178
9.54329e-07
8.11454e-05
0.0229062
0.0830734
0.110395
0.0987423
0.110767
0.0992221
0.106022
0.0945836
0.101973
0.0879955
0.0820665
0.0512641
0.0215439
0.00304245
7.38643e-05
7.51737e-08
1.35705e-50
1.0846e-52
6.50832e-53
4.11951e-54
1.21799e-54
4.96844e-54
1.6727e-54
1.6247e-53
1.46568e-55
1.17922e-66
1.13267e-56
1.18178e-57
2.81906e-61
1.42157e-55
9.57693e-59
4.67806e-59
7.74167e-61
7.71558e-62
1.48685e-67
9.86149e-49
1.89416e-41
7.0279e-28
3.02848e-16
3.7151e-08
0.0192784
0.00159085
0.00218304
0.000115463
0.00308818
1.75253e-05
0.000191375
3.84116e-06
1.65306e-05
0.000808523
0.0436067
0.101584
0.0974701
0.109048
0.0993866
0.108531
0.105418
0.0943901
0.101675
0.0875667
0.0814152
0.0505596
0.0210176
0.00293527
7.05882e-05
7.1583e-08
7.75146e-52
1.74822e-52
1.99557e-53
1.36003e-56
6.43222e-59
3.23789e-55
1.90672e-53
1.57965e-54
6.09692e-62
7.58869e-58
1.10332e-59
1.74129e-57
2.08319e-57
7.90137e-57
3.2e-57
5.07963e-58
8.40303e-60
6.75289e-68
6.85219e-68
1.07536e-47
2.25157e-45
2.7146e-32
1.97993e-20
4.72175e-10
0.000158442
0.0507534
0.000972764
0.00273561
0.000101737
0.00111822
7.03278e-06
0.000211776
1.34979e-06
2.453e-06
0.00528907
0.064373
0.105155
0.0961955
0.108655
0.0987828
0.107646
0.095435
0.103461
0.0924812
0.0951998
0.0744649
0.0531825
0.0196995
0.0028737
6.73575e-05
6.81084e-08
1.81542e-51
3.22971e-52
4.61346e-57
2.5842e-60
3.59697e-54
1.67468e-53
8.54723e-55
1.1135e-56
6.16428e-56
2.89281e-55
4.27001e-57
5.87135e-56
2.47525e-57
4.68202e-57
1.12522e-61
2.52308e-59
1.02124e-63
8.02611e-64
5.92359e-68
2.72857e-47
2.1033e-45
1.15566e-37
1.38941e-24
2.95412e-13
3.90169e-06
0.0387481
0.00146882
9.31422e-05
0.000107487
0.00214751
1.09761e-05
0.000230146
4.74637e-06
2.08488e-05
3.58645e-05
0.0200473
0.0879304
0.0942093
0.106555
0.0980151
0.0981209
0.106832
0.0951206
0.103286
0.092217
0.0947035
0.073878
0.0523863
0.0192214
0.00277301
6.4371e-05
6.48431e-08
3.94654e-52
8.88348e-53
1.19314e-54
7.13632e-56
7.51643e-54
1.57246e-55
3.23802e-56
8.34146e-57
6.32941e-58
1.02542e-57
4.79405e-56
1.35862e-55
1.71848e-57
3.68084e-57
9.05163e-59
1.99054e-66
2.34178e-59
3.66693e-64
6.80071e-67
2.71851e-47
3.73702e-45
9.14972e-44
2.55002e-29
6.3876e-17
1.63858e-08
0.0157565
0.00149124
0.00119355
0.000113304
0.00301667
1.89522e-05
0.000244811
5.24023e-06
4.81683e-05
1.05099e-08
0.000708005
0.0456985
0.0868549
0.104842
0.0962243
0.0976223
0.107529
0.0964534
0.104197
0.0939702
0.100716
0.0863442
0.0794151
0.0483927
0.0195044
0.00263626
6.16998e-05
6.19019e-08
3.34621e-51
8.95322e-54
5.71659e-54
5.93748e-54
1.74301e-54
6.58881e-62
3.6964e-56
1.39643e-55
7.68743e-58
4.7996e-57
2.20868e-57
3.50259e-59
1.13376e-57
1.02835e-61
1.40306e-57
2.07762e-58
3.32507e-60
2.6391e-64
4.94112e-73
2.28889e-47
2.87661e-45
2.98576e-46
2.57786e-34
1.10487e-21
1.18495e-10
8.61399e-05
0.0464095
0.0007818
0.00243472
0.000100151
0.00114423
1.02004e-05
0.000230732
2.21071e-06
2.5158e-06
8.89635e-07
0.00615711
0.0695728
0.0905934
0.104349
0.106849
0.0971211
0.106848
0.0959736
0.103909
0.0938044
0.100423
0.0859801
0.0787534
0.0476923
0.0190174
0.00254461
5.91445e-05
5.91108e-08
7.07241e-51
3.65037e-54
2.56463e-53
6.23106e-56
1.86831e-56
7.57298e-56
1.56421e-58
9.36201e-60
2.07731e-64
1.11089e-55
3.88224e-58
6.32039e-58
9.45859e-58
1.06115e-56
2.70456e-57
2.38175e-59
1.52428e-61
2.65187e-64
1.60867e-71
1.37046e-47
2.53884e-45
3.39302e-47
1.65956e-39
1.98137e-26
3.01039e-14
1.14786e-06
0.0320452
0.00134819
1.52782e-05
0.000104393
0.0020626
1.33641e-05
0.000287615
3.62937e-06
6.43996e-06
9.08136e-10
5.27119e-05
0.0233119
0.0774833
0.102278
0.10476
0.0964652
0.106636
0.096432
0.105089
0.0943847
0.102695
0.0914446
0.0934285
0.0721422
0.0500399
0.0178624
0.00249407
5.65857e-05
5.65227e-08
2.16569e-50
1.30338e-52
4.61316e-54
7.20084e-57
1.8218e-57
6.54124e-56
6.54514e-57
8.72497e-58
1.31316e-56
7.94565e-57
9.0514e-59
6.1156e-57
9.91021e-64
1.65937e-57
1.77101e-61
3.21173e-59
1.55477e-60
1.97958e-66
4.75955e-72
9.9794e-48
1.25011e-45
3.38362e-45
7.34262e-41
2.22401e-31
4.423e-19
2.06458e-08
0.000428935
0.0455166
7.3005e-05
0.00327381
8.34336e-05
0.000673687
1.01327e-05
0.00018377
5.77449e-07
1.17021e-09
6.63987e-09
0.0011665
0.0491669
0.0853373
0.0921215
0.105286
0.096256
0.105948
0.0960014
0.104624
0.0941602
0.102486
0.0912017
0.0930158
0.071559
0.0492861
0.0174502
0.00241064
5.43193e-05
5.41e-08
2.82343e-50
1.46231e-54
2.3446e-55
4.93054e-56
4.95787e-57
1.2404e-55
1.22681e-56
7.7151e-55
1.88287e-56
3.79123e-57
1.77504e-59
2.807e-59
5.9903e-58
4.67628e-59
5.58425e-58
8.34392e-70
7.63614e-68
1.28645e-64
1.69886e-67
4.7898e-48
7.67735e-46
1.27793e-44
2.75549e-41
1.82938e-36
8.11696e-24
6.96361e-12
2.46091e-05
0.0401491
0.000792555
0.00166255
9.85229e-05
0.00121973
1.17402e-05
0.000272368
1.40493e-06
2.44545e-09
4.18535e-09
2.15799e-06
0.00895332
0.0654162
0.0888898
0.102888
0.0954213
0.105898
0.0955544
0.10517
0.0947877
0.103098
0.0932842
0.0995732
0.0848922
0.0768006
0.0456483
0.017687
0.00230169
5.22882e-05
5.17928e-08
2.10573e-51
7.58551e-55
2.50961e-55
4.91683e-56
4.29105e-55
1.74599e-60
3.37909e-56
3.56935e-56
2.6244e-59
3.84606e-57
1.77074e-58
9.962e-57
2.94556e-62
5.01227e-59
8.99717e-59
2.47297e-60
4.93726e-60
6.08092e-65
3.81537e-71
1.53345e-48
4.26569e-46
2.08404e-44
2.68926e-41
6.10223e-39
1.01149e-28
9.49277e-17
1.52009e-06
0.000807954
0.0393315
2.14678e-06
0.00353074
6.20415e-05
0.000507582
9.78536e-06
0.000102521
8.84393e-09
5.77843e-07
1.06303e-08
0.000113008
0.0298371
0.0871075
0.0902153
0.10379
0.0955089
0.105285
0.0950445
0.104614
0.0944169
0.102861
0.0931176
0.0992899
0.0845346
0.076179
0.0449991
0.0172815
0.00222859
5.02476e-05
4.96635e-08
1.21898e-51
3.44181e-56
1.16376e-57
1.10522e-54
2.60481e-57
1.76325e-54
7.5516e-57
3.56917e-56
1.22599e-55
3.65004e-62
2.18488e-59
1.6842e-56
2.78447e-58
1.83276e-58
3.73524e-60
3.30064e-60
4.42537e-62
1.04864e-73
6.76536e-69
2.30021e-48
2.30689e-46
2.35667e-44
1.15312e-41
4.51916e-39
1.92919e-34
9.84194e-21
8.13536e-10
0.000155465
0.040948
0.000198486
0.00264795
8.28938e-05
0.000760541
1.12609e-05
0.000181543
1.76053e-07
9.69788e-07
1.58451e-07
3.80437e-08
0.00237292
0.0556731
0.0849828
0.101214
0.094314
0.105467
0.0948543
0.104094
0.0946909
0.103285
0.0935922
0.10187
0.0904864
0.0917803
0.0698888
0.0471714
0.0162909
0.00218621
4.82613e-05
4.765e-08
5.10627e-52
8.26754e-56
4.65106e-54
2.49585e-56
6.98058e-55
2.4202e-56
1.70653e-62
8.88022e-56
2.30261e-58
8.16415e-59
1.1588e-63
1.18386e-63
2.85798e-58
2.22074e-57
6.72471e-58
8.84569e-63
5.40702e-61
1.20502e-62
7.50695e-73
2.76614e-48
1.35113e-46
1.68886e-44
2.30879e-42
2.00667e-38
2.85261e-35
2.93187e-26
1.15777e-14
4.38705e-05
0.00100864
0.0267962
3.48707e-05
0.00325778
4.0777e-05
0.000439703
7.41726e-06
7.44208e-06
6.4405e-07
9.7939e-06
7.72265e-09
5.55556e-06
0.0146781
0.0762122
0.0879891
0.10223
0.0949532
0.104899
0.0943254
0.103568
0.094285
0.102941
0.0934353
0.101673
0.0902522
0.0913762
0.0693561
0.0465017
0.01593
0.00211911
4.64625e-05
4.57394e-08
3.6182e-52
1.18482e-53
6.91075e-56
6.61086e-55
7.04541e-56
1.60888e-55
3.22811e-58
6.91993e-58
2.24603e-61
8.89179e-58
4.99873e-58
3.84263e-57
2.44771e-57
1.70587e-59
1.39543e-58
1.23368e-60
3.04741e-62
2.27234e-66
2.30116e-72
2.36564e-48
9.1551e-47
5.08587e-45
2.00029e-42
2.76118e-38
1.20483e-35
3.8932e-33
1.72123e-18
3.86748e-09
0.0003929
0.0376892
2.74465e-06
0.0032074
6.37162e-05
0.000555313
9.78798e-06
3.79069e-05
1.10795e-07
1.07592e-05
3.22138e-07
5.90198e-09
0.000508603
0.038457
0.079573
0.099669
0.0932146
0.105097
0.094466
0.103281
0.0937767
0.103151
0.0935529
0.102294
0.092618
0.0984637
0.0834925
0.0743575
0.0431681
0.0161472
0.00202917
4.48349e-05
4.39594e-08
2.66728e-54
2.65104e-55
1.8117e-54
3.34024e-62
1.795e-58
1.53009e-56
3.90402e-61
3.39346e-60
2.50101e-57
4.07468e-62
2.3907e-57
2.35828e-57
1.75587e-57
1.70483e-59
1.41612e-65
5.09287e-63
2.76565e-65
1.96238e-63
3.89598e-69
9.08264e-49
5.55859e-47
6.58292e-46
3.61194e-42
8.52581e-39
4.85382e-36
2.7795e-33
5.75096e-24
7.70671e-13
0.000468625
0.00106837
0.0113087
6.75839e-05
0.00284582
2.51744e-05
0.000426211
2.97816e-06
3.26544e-08
5.1173e-07
1.00402e-05
1.13827e-07
5.32671e-07
0.00544942
0.0574057
0.0950268
0.0904644
0.104317
0.094758
0.103535
0.0933388
0.102649
0.0936156
0.10239
0.0931651
0.101278
0.0897892
0.090593
0.0683036
0.0452139
0.0152544
0.00199273
4.32311e-05
4.22504e-08
5.50072e-54
5.4788e-56
1.25001e-56
4.12566e-55
2.81005e-56
1.05249e-57
3.15581e-56
4.61051e-56
2.95129e-57
7.49018e-58
1.14491e-63
1.1357e-60
6.35674e-59
1.69873e-59
8.95558e-59
8.42165e-61
1.08262e-62
3.27165e-66
1.9115e-69
2.20531e-49
4.04312e-47
3.4452e-47
3.91908e-42
2.10643e-39
8.88519e-37
1.48681e-33
3.67045e-30
1.81494e-16
8.0304e-08
0.0180794
0.0311408
2.13589e-06
0.0029131
4.15044e-05
0.00049448
5.66593e-06
2.25616e-07
1.1466e-07
1.28874e-05
8.68078e-07
3.36563e-08
4.64552e-05
0.0222459
0.0803766
0.08763
0.101996
0.0946304
0.104176
0.0933604
0.102128
0.0931242
0.102438
0.0931667
0.101973
0.0922941
0.0979326
0.0828126
0.0731962
0.042026
0.0154549
0.00193433
4.16101e-05
4.06637e-08
1.42497e-54
5.75223e-55
1.51273e-56
6.19553e-56
3.06611e-58
7.89143e-60
1.65862e-56
8.33911e-58
6.29295e-58
4.06486e-58
1.7419e-63
2.00525e-59
7.82859e-59
1.29814e-58
7.95393e-61
7.07128e-61
4.81831e-68
8.9175e-70
1.21498e-69
4.70448e-50
2.86981e-47
1.29579e-47
2.00723e-42
5.48995e-40
1.48058e-37
2.68778e-34
4.89176e-32
7.12415e-22
2.60302e-11
0.00218386
0.0342087
0.00239625
6.58012e-05
0.00229762
2.00128e-05
0.000339368
1.97265e-07
2.70984e-07
9.23737e-07
2.67086e-06
3.05927e-07
5.23058e-08
0.00174276
0.0478439
0.0811489
0.0991822
0.0931693
0.104741
0.0937856
0.102148
0.0925105
0.101934
0.0931105
0.101964
0.0929218
0.100902
0.0893344
0.0898269
0.0672921
0.0439845
0.0146223
0.00187752
4.0173e-05
3.92154e-08
1.86696e-54
8.05226e-55
6.91036e-57
7.81055e-56
5.34349e-56
4.68003e-57
1.5361e-56
1.40427e-58
6.32078e-58
3.55937e-58
6.45682e-59
2.73194e-59
5.8673e-58
6.12845e-60
8.22277e-62
4.86471e-61
7.45775e-63
1.4737e-65
9.56099e-70
3.96172e-51
9.17189e-48
3.32246e-47
7.15609e-43
1.69253e-40
1.54937e-38
3.88088e-35
2.12258e-32
1.75471e-27
1.11288e-15
9.00067e-07
0.0235491
0.000586371
4.5026e-05
0.00286861
3.19506e-05
0.000413521
1.30087e-06
2.58627e-09
6.72233e-07
3.5884e-06
6.30725e-07
4.6419e-08
9.36773e-06
0.0110792
0.0632814
0.0952955
0.0904644
0.104407
0.0943568
0.102705
0.0923314
0.101214
0.0926187
0.101875
0.0928675
0.101696
0.0919778
0.0974147
0.0821529
0.0720676
0.0409335
0.0148094
0.0018031
3.8921e-05
3.78156e-08
1.00531e-54
7.41855e-57
1.24762e-57
3.10562e-57
4.17736e-56
3.29132e-57
1.02778e-62
2.07979e-56
8.83306e-58
2.94155e-57
4.5313e-62
8.63297e-60
4.28038e-59
3.78322e-60
6.79562e-60
3.27214e-61
5.82674e-63
5.59193e-66
7.76503e-70
5.80364e-53
2.35497e-48
4.01551e-47
1.56068e-43
8.25749e-41
6.87028e-40
6.31731e-36
3.61435e-33
3.84813e-30
4.85866e-20
7.58835e-09
0.000206875
0.0314133
3.5103e-06
8.72036e-05
0.0017954
1.43917e-05
0.000138238
2.48548e-10
2.38986e-06
8.34499e-07
5.6766e-07
1.86023e-07
1.0081e-07
0.000302408
0.0310251
0.084033
0.0876617
0.102242
0.0945376
0.103639
0.0926078
0.100983
0.0918737
0.101342
0.0927135
0.101646
0.0927003
0.100538
0.088894
0.0890758
0.0715212
0.0403996
0.0145071
0.00175467
3.76401e-05
3.64848e-08
1.12024e-55
4.67183e-60
7.38199e-57
2.8105e-56
2.64488e-58
4.22594e-56
6.46964e-57
2.53674e-57
4.8871e-62
7.47156e-65
3.59464e-57
1.85201e-64
1.98971e-64
4.217e-60
4.587e-66
1.60119e-67
2.63972e-63
3.8017e-66
6.49944e-70
2.08105e-54
3.18963e-49
2.87711e-47
1.4774e-44
4.73459e-41
2.10688e-40
1.00769e-36
6.46123e-34
2.34977e-31
8.5565e-26
3.22592e-14
0.000116143
0.000815239
0.00983511
3.68739e-05
0.00243039
2.2551e-05
0.000244395
2.77513e-08
3.45187e-07
5.54042e-07
6.21864e-07
1.61518e-07
1.13052e-07
8.20181e-07
0.00462539
0.0568978
0.082523
0.0991188
0.0934456
0.104551
0.0932644
0.101278
0.0915133
0.10048
0.0921959
0.101455
0.0926344
0.101439
0.0916735
0.0969093
0.0887101
0.0658218
0.0422566
0.0137615
0.00172686
3.6359e-05
3.52366e-08
3.77205e-56
6.9782e-56
5.43472e-56
1.59268e-60
1.46657e-57
4.7753e-61
2.26396e-58
5.6423e-59
5.31335e-59
1.2416e-56
2.96525e-58
5.41411e-58
4.01237e-62
3.15773e-59
1.58903e-59
2.54221e-61
1.38826e-67
8.95632e-65
5.42873e-72
4.66387e-58
1.81873e-50
1.46624e-47
6.66705e-46
1.63044e-41
2.39884e-40
1.38777e-37
1.25425e-34
1.93042e-32
5.44599e-29
2.20188e-19
1.07037e-07
0.000332258
0.0252095
1.03869e-06
0.00255614
0.00131813
1.09175e-05
1.17042e-05
4.71909e-08
4.85518e-06
1.0112e-06
6.34778e-08
9.13921e-08
3.06747e-08
8.01206e-05
0.0191696
0.0684112
0.0956801
0.0908636
0.10468
0.0940764
0.102068
0.0915709
0.100043
0.0913559
0.100878
0.0924098
0.101383
0.0924931
0.100197
0.088466
0.0883434
0.0653535
0.0417278
0.0134948
0.00168069
3.52091e-05
3.40171e-08
6.5331e-57
1.88736e-57
1.24482e-62
1.28287e-56
2.47858e-58
8.63042e-62
4.96618e-58
1.51623e-59
2.64763e-58
1.35008e-59
3.04043e-59
1.28477e-58
6.60466e-62
1.32773e-60
1.70086e-65
2.6899e-65
2.01793e-63
4.31209e-65
2.43898e-70
2.90494e-59
9.34048e-52
2.56084e-48
8.84421e-48
2.79496e-42
1.80488e-40
2.69159e-38
3.89214e-35
7.23067e-34
5.00372e-30
3.22276e-25
7.57701e-12
1.87865e-05
0.0264316
0.000107538
0.00150129
5.88325e-05
1.78216e-05
6.52206e-05
2.68189e-09
2.98178e-06
1.72335e-06
2.45574e-08
2.35925e-08
4.78289e-08
6.64892e-07
0.00124853
0.0400936
0.0871815
0.0879592
0.102746
0.0945543
0.103212
0.0920397
0.100071
0.0908537
0.0999177
0.0918557
0.101099
0.0924274
0.101223
0.0913997
0.0964219
0.0808738
0.0699428
0.0389221
0.0136727
0.0016187
3.41378e-05
3.28509e-08
2.1393e-56
1.24832e-57
1.49031e-56
5.41865e-57
1.04443e-68
8.43678e-58
5.25489e-58
1.31262e-57
1.33859e-65
1.11684e-58
4.62127e-62
4.52759e-59
7.62596e-60
2.81546e-60
7.60073e-63
1.23043e-61
1.00641e-67
1.47417e-66
2.85333e-70
6.62388e-55
2.05343e-53
3.48298e-49
8.06913e-48
3.15844e-43
7.18443e-41
1.88193e-39
2.35815e-35
1.42114e-34
7.52884e-31
7.59346e-28
5.21557e-17
4.50153e-08
0.0129229
0.000603694
8.84287e-05
6.71952e-05
0.00102901
4.86524e-06
5.03536e-08
4.29781e-08
3.03135e-06
1.57848e-08
5.80457e-09
1.58868e-08
1.12093e-07
8.65902e-06
0.00965695
0.065197
0.0837581
0.099347
0.093862
0.104366
0.0928574
0.10057
0.0907143
0.0993328
0.0909547
0.100474
0.0921114
0.101161
0.101134
0.0912652
0.096185
0.0805713
0.0694346
0.0384507
0.0134123
0.00157608
3.30583e-05
3.17372e-08
1.38075e-59
8.15748e-57
4.70981e-56
2.19271e-60
2.05825e-58
2.39323e-58
1.18072e-56
2.84877e-58
3.84922e-63
1.2293e-58
7.90476e-60
5.70373e-59
1.51049e-58
2.93712e-63
4.58635e-64
2.90985e-61
6.60277e-64
2.7525e-66
3.1647e-70
4.17362e-57
7.58706e-56
2.26442e-50
2.6343e-48
1.19583e-44
3.14926e-41
2.73585e-41
7.05909e-36
1.30889e-34
8.28762e-32
1.17895e-28
4.11794e-23
6.15588e-12
0.00118001
0.000739324
0.00080119
5.67667e-05
0.0017145
1.00378e-05
3.76802e-06
4.58249e-09
4.55507e-06
2.0652e-08
2.38876e-09
1.98529e-09
1.12527e-07
1.42618e-07
0.000372693
0.029055
0.0728432
0.0961186
0.0914007
0.104837
0.0938518
0.101521
0.0909441
0.0991447
0.0903544
0.0994834
0.0915253
0.100759
0.101076
0.0922696
0.099728
0.0878493
0.0872947
0.0640058
0.0401863
0.0127423
0.00155172
3.19718e-05
3.06438e-08
2.45903e-56
2.57061e-56
1.29925e-55
3.74672e-58
8.26991e-58
8.24776e-58
2.38617e-57
1.52822e-64
1.41687e-62
8.54881e-59
6.22686e-63
2.91407e-57
3.21694e-60
1.62669e-61
3.13959e-62
7.21445e-64
2.85533e-67
9.26263e-65
2.1558e-70
6.26125e-56
2.09685e-57
8.54563e-52
7.52454e-49
1.231e-46
4.169e-42
6.31195e-41
7.31225e-37
7.26167e-35
1.01242e-32
2.13459e-29
2.46028e-27
8.91533e-16
2.14321e-07
0.0150593
0.000386562
0.000362968
6.17656e-05
0.000771696
1.17454e-06
2.49044e-10
3.48574e-06
5.23433e-08
1.72119e-09
2.3011e-10
4.44937e-08
3.05479e-08