/*--------------------------------*- C++ -*----------------------------------*\
| =========                 |                                                 |
| \\      /  F ield         | OpenFOAM: The Open Source CFD Toolbox           |
|  \\    /   O peration     | Version:  v2012                                 |
|   \\  /    A nd           | Website:  www.openfoam.com                      |
|    \\/     M anipulation  |                                                 |
\*---------------------------------------------------------------------------*/
FoamFile
{
    version     2.0;
    format      ascii;
    class       volScalarField;
    location    "1801";
    object      I2;
}
// * * * * * * * * * * * * * * * * * * * * * * * * * * * * * * * * * * * * * //

dimensions      [0 0 0 0 0 0 0];


internalField   nonuniform List<scalar> 
8000
(
1.96035e-61
1.43213e-56
2.78154e-60
5.37339e-67
1.06214e-57
8.61391e-62
5.10361e-52
5.08929e-67
6.44169e-56
2.02395e-76
4.46025e-52
1.57771e-53
3.20315e-53
6.49379e-57
5.65859e-60
1.83265e-65
3.30093e-52
1.17262e-53
4.77941e-54
3.35014e-58
5.11666e-62
7.26372e-52
1.04703e-64
6.3646e-51
1.32149e-53
1.5507e-55
2.37423e-55
2.03689e-60
1.73667e-63
5.38197e-52
1.82185e-51
6.14041e-52
9.96981e-54
1.17887e-55
2.79414e-58
4.7474e-60
1.00058e-51
1.02658e-67
9.54306e-51
5.62394e-53
2.18783e-51
4.9992e-54
1.36161e-55
1.38247e-58
3.2757e-61
8.54955e-63
1.17739e-50
1.01887e-52
4.35253e-52
6.73455e-52
4.00608e-51
3.8135e-54
1.08076e-55
6.93581e-72
1.49984e-62
6.29684e-51
7.8007e-64
3.58325e-52
1.13116e-52
1.35961e-49
3.82116e-51
1.29941e-64
4.4266e-54
8.65756e-55
4.29986e-74
1.17938e-61
1.64006e-62
4.62934e-51
2.03525e-62
4.32088e-51
2.14872e-50
1.31226e-50
2.86525e-51
3.90131e-53
3.4391e-54
3.98841e-56
6.67446e-57
8.68965e-62
4.36077e-51
1.28692e-50
1.63888e-60
1.36609e-50
3.0001e-52
6.67405e-52
1.85039e-52
1.09515e-64
4.50597e-53
1.43616e-52
4.4434e-56
1.58194e-71
5.9645e-63
1.21058e-49
3.23581e-51
5.89071e-52
3.81297e-51
3.82123e-63
3.5722e-51
3.1179e-53
2.20919e-51
2.17871e-52
1.76195e-52
1.34186e-54
5.23768e-55
2.40485e-57
5.87534e-81
9.62989e-50
8.38821e-51
1.6116e-51
3.06365e-61
1.88665e-51
5.74035e-50
7.19526e-62
5.55244e-52
1.11469e-51
1.26674e-51
1.80231e-53
2.06263e-65
2.5803e-55
3.25824e-59
2.16521e-63
3.41955e-47
2.26675e-49
6.11579e-51
1.1798e-51
1.90709e-61
1.12589e-49
1.42988e-65
1.34162e-51
2.14356e-63
5.20569e-53
1.93189e-52
1.39113e-53
1.10223e-54
6.28949e-71
2.40774e-59
2.53879e-62
9.03835e-34
3.25991e-46
2.20755e-58
4.91166e-50
2.08128e-50
3.81309e-51
2.23951e-62
2.63214e-52
1.50753e-51
2.15214e-52
4.8938e-51
1.00095e-52
7.86775e-53
5.46538e-55
1.30289e-56
3.02138e-57
9.84034e-76
1.99239e-24
6.44462e-33
1.29474e-45
5.96016e-50
1.83968e-49
9.53762e-52
4.59333e-50
1.13328e-51
3.47591e-68
7.12509e-53
1.04818e-53
7.58296e-52
4.87595e-54
7.32964e-55
1.4796e-66
9.64165e-57
8.68972e-60
1.28304e-63
2.84148e-09
6.32443e-23
1.47939e-34
4.47421e-45
5.88509e-51
2.44606e-51
3.92207e-50
5.80147e-61
5.79985e-52
1.78228e-62
2.89239e-51
3.02248e-51
2.39733e-53
2.08559e-64
9.09051e-53
7.0837e-54
7.51112e-56
7.76553e-58
1.01302e-62
5.39507e-05
3.16459e-13
1.76787e-22
1.10639e-36
2.19043e-45
4.32301e-51
3.00178e-50
5.82218e-51
2.37019e-51
4.37373e-52
1.69642e-52
7.4199e-65
9.27045e-54
1.85876e-53
4.02996e-54
2.63653e-55
3.26696e-55
8.29928e-69
7.11789e-60
3.96666e-76
0.0155352
0.00224608
8.23006e-11
1.39377e-23
4.26936e-43
1.02775e-45
4.80759e-51
1.50226e-50
1.43963e-62
6.13919e-51
1.46079e-62
1.76182e-62
1.20057e-64
2.96733e-51
2.06484e-53
3.15834e-53
2.33178e-53
1.60943e-55
3.85686e-57
3.39349e-60
8.18234e-63
0.0398847
0.0107073
6.66926e-05
3.77772e-11
4.01225e-25
5.02994e-38
1.09771e-45
1.33479e-52
3.51473e-61
4.28528e-61
5.79865e-68
2.45627e-52
2.35099e-62
2.69371e-52
8.55909e-53
1.06531e-53
2.17026e-54
3.39682e-52
1.42593e-53
1.91329e-57
8.41728e-73
2.51113e-64
0.085918
0.00858221
0.00706716
7.76154e-06
4.6822e-11
1.54055e-25
1.86911e-37
2.12489e-46
1.352e-50
5.07514e-60
2.19069e-52
3.57396e-51
2.911e-52
8.78597e-62
1.53792e-51
7.18561e-65
1.83732e-52
1.38551e-51
1.54628e-55
2.22603e-53
5.30942e-55
1.52091e-58
4.43348e-63
0.0478447
0.0123107
0.029368
0.00356783
1.44889e-06
8.39083e-12
1.05798e-25
1.00579e-37
2.17058e-46
8.03612e-61
9.31552e-51
1.17516e-52
8.31479e-52
1.51644e-52
3.28563e-63
7.53086e-52
7.57827e-52
5.64718e-54
1.18773e-54
9.89326e-53
7.73052e-54
6.32903e-55
1.68559e-58
1.36257e-64
0.0621231
0.00536519
0.0627128
0.0235284
0.00139268
5.9011e-07
3.76358e-12
3.13419e-26
6.8689e-38
5.2498e-47
1.45845e-51
4.68622e-63
1.17609e-61
1.3111e-62
2.78605e-51
4.79346e-52
2.67467e-51
9.08092e-64
6.07544e-54
3.63227e-52
5.26564e-53
3.79239e-54
1.78464e-56
1.02069e-60
1.51181e-64
0.0305411
0.00318207
0.0568085
0.0497082
0.023023
0.000441206
4.38499e-07
5.10397e-13
1.86237e-26
1.65013e-38
2.46992e-47
7.63712e-52
3.37991e-60
7.90639e-61
2.99633e-53
2.45612e-61
5.29014e-52
1.31961e-51
4.07828e-52
1.88612e-51
1.0055e-53
4.18173e-56
5.05781e-56
5.50428e-58
2.84804e-58
7.38506e-65
0.0350868
0.00024304
0.0259865
0.0969015
0.0436782
0.0142986
0.00024775
2.53186e-07
1.36567e-13
4.66203e-27
8.44811e-39
1.16525e-47
8.40381e-52
8.2726e-62
2.06368e-50
1.52762e-53
1.0526e-63
2.62895e-52
5.6539e-54
1.9808e-52
2.09089e-51
5.03417e-54
1.09287e-66
5.64642e-66
8.76463e-71
8.65151e-60
8.12393e-65
0.01387
1.61186e-07
0.0151984
0.0932904
0.0640134
0.0551724
0.00625947
0.000234269
1.08028e-07
1.44195e-14
2.30513e-27
1.91337e-39
1.76911e-48
4.40235e-52
3.34358e-51
6.4316e-52
1.64003e-53
7.643e-52
1.8116e-53
7.49137e-66
2.24012e-52
1.64474e-54
8.26829e-52
2.40343e-66
1.21985e-65
7.62452e-56
9.66335e-60
5.4861e-75
0.0102372
1.13227e-06
0.0103847
0.0446153
0.117755
0.0586731
0.0441604
0.00450128
0.000159024
7.52582e-08
3.02371e-15
4.31749e-28
8.64658e-40
8.43779e-50
2.59234e-51
6.25831e-61
4.3899e-53
8.99699e-54
8.57299e-52
9.20723e-54
2.93696e-54
4.04732e-55
1.45227e-52
4.079e-52
6.34968e-54
2.23466e-55
5.21816e-57
5.3607e-72
4.41843e-65
0.002369
2.77915e-10
0.002472
0.0277308
0.116916
0.0720337
0.0852623
0.0229251
0.00517666
7.67385e-05
8.50913e-08
2.09216e-16
1.49513e-28
1.48223e-40
7.17593e-50
1.36088e-51
1.79218e-51
3.48263e-52
1.52078e-52
2.53575e-53
7.98169e-52
2.39474e-53
1.19641e-52
2.27993e-52
1.52523e-53
7.57511e-65
2.40081e-55
2.59809e-57
3.1757e-61
3.44063e-64
0.000867829
1.25342e-06
7.57512e-05
0.0192231
0.058548
0.129453
0.0686089
0.07668
0.0191889
0.00405093
5.93925e-05
6.99466e-08
2.71155e-17
1.88032e-29
4.91825e-41
7.21931e-50
2.87162e-52
1.70458e-60
2.06058e-51
7.30834e-53
1.84118e-50
5.0182e-54
1.53834e-54
9.34369e-52
1.01016e-54
1.4065e-54
1.38159e-56
7.5072e-57
1.43408e-56
2.54383e-60
3.80032e-64
9.13173e-05
0.00267724
9.49743e-07
0.00499024
0.0367228
0.129528
0.0774067
0.105801
0.043246
0.0256352
0.00217173
7.464e-05
4.21742e-08
1.0398e-18
4.31413e-30
6.0302e-42
1.05936e-50
1.40273e-52
6.79064e-53
1.2704e-53
1.31971e-51
2.17656e-62
5.21003e-54
1.04346e-51
2.24679e-65
4.74548e-55
8.83464e-63
4.09038e-54
6.69298e-55
1.3854e-57
2.86607e-60
1.87683e-64
1.41801e-05
0.0076953
2.06085e-05
0.000778133
0.0160515
0.106413
0.0843268
0.12225
0.0617999
0.0632764
0.0143233
0.00286614
4.47216e-05
6.44849e-08
5.65007e-20
5.16705e-31
8.87156e-43
3.48772e-50
6.36358e-54
4.76933e-53
9.12155e-54
1.78448e-62
1.01351e-53
1.01262e-51
2.12142e-62
1.50315e-53
2.06221e-65
7.12717e-56
4.7303e-57
6.00156e-57
1.01421e-57
1.27971e-61
1.36549e-64
9.74358e-07
0.00461344
1.73825e-05
5.67475e-05
0.00599929
0.0402168
0.136171
0.0826109
0.118051
0.059002
0.0583539
0.0129969
0.00267132
4.05642e-05
7.11619e-08
3.39821e-21
4.74549e-32
1.02332e-43
2.21988e-52
4.8083e-54
3.83952e-53
2.34494e-65
2.84528e-54
8.08298e-54
4.58859e-53
1.13386e-52
1.10944e-53
6.11507e-65
5.21371e-56
2.84674e-55
7.03655e-56
4.50295e-59
9.48459e-62
6.28973e-66
4.47986e-08
0.0023084
0.00160187
5.96247e-09
0.000425602
0.0166278
0.108278
0.0880639
0.130127
0.0702725
0.0916788
0.0345233
0.0194111
0.0017027
6.74108e-05
5.55039e-08
1.53408e-22
3.3147e-33
9.59386e-45
2.12191e-53
1.02413e-65
2.34208e-53
1.5311e-62
1.89254e-54
4.63525e-52
3.49121e-53
3.17672e-55
2.56984e-53
3.05821e-54
6.46878e-55
6.76797e-55
3.20211e-57
1.04181e-67
5.80379e-60
6.9884e-66
9.33964e-10
0.000968504
0.000133273
1.14514e-06
5.47937e-06
0.00486132
0.0374812
0.136967
0.0871446
0.125925
0.0687817
0.0888636
0.0337964
0.0194007
0.00186115
7.82029e-05
6.32628e-08
7.92417e-24
1.16087e-34
1.09876e-45
3.8568e-52
3.27185e-52
1.28291e-53
5.07142e-54
7.59312e-53
1.02121e-52
1.09049e-54
6.857e-68
1.17861e-71
3.42684e-54
3.26149e-55
2.87481e-57
2.55875e-56
3.67368e-59
5.35819e-61
5.14049e-66
1.99008e-11
0.000137205
0.000221766
1.14101e-05
1.74579e-06
6.12824e-05
0.0127396
0.100911
0.0897441
0.138983
0.0753937
0.110556
0.0543514
0.0542159
0.0133216
0.00320187
5.87386e-05
1.03786e-07
1.9318e-25
4.51508e-36
6.54881e-47
7.9851e-55
1.3436e-60
1.47429e-52
9.99403e-52
7.3441e-55
4.76202e-54
7.41999e-55
2.55479e-55
9.42754e-54
2.50163e-54
4.70229e-63
2.08239e-57
1.04966e-68
3.00434e-58
9.73159e-60
2.53494e-66
4.32904e-13
6.5483e-06
0.00295796
0.00156289
7.12028e-07
8.9365e-08
0.00200509
0.0296694
0.131689
0.0899407
0.134295
0.0745665
0.109869
0.0546306
0.0564079
0.0144819
0.00352832
6.34904e-05
1.08842e-07
2.1563e-27
1.90428e-37
2.01949e-48
2.01226e-53
1.22666e-52
1.11384e-53
2.19882e-54
1.27367e-53
2.89263e-64
6.40849e-64
3.30951e-53
3.25529e-54
1.18551e-54
7.17841e-65
1.59991e-56
2.08146e-56
6.37916e-70
7.1889e-60
1.12822e-75
4.18581e-15
2.48936e-07
0.00281348
0.00449376
2.81179e-08
4.59539e-07
8.97129e-06
0.00674384
0.0851191
0.088598
0.144659
0.0795397
0.121197
0.0674565
0.0896916
0.0370141
0.0240763
0.00245181
9.94361e-05
7.40413e-08
2.37696e-29
3.78588e-39
3.26995e-50
2.1235e-58
9.54532e-55
1.19079e-60
1.17697e-52
5.13648e-53
1.2046e-64
1.14294e-61
9.85383e-56
4.81269e-55
5.24896e-56
3.02243e-54
3.60708e-65
6.46187e-58
1.21377e-57
1.12107e-60
1.65077e-64
1.72065e-17
8.02132e-09
0.000661533
0.00209132
1.00378e-08
2.13745e-06
1.41154e-07
0.000525829
0.0184576
0.118761
0.0901303
0.140002
0.0778504
0.119889
0.0674288
0.0911476
0.0381673
0.0249271
0.00252351
0.000101099
7.36532e-08
2.4645e-31
3.4383e-41
3.47257e-51
1.99511e-52
1.09159e-54
6.20196e-53
1.82375e-54
2.71531e-55
1.68856e-54
2.71135e-55
9.21209e-63
2.17554e-55
3.72331e-64
9.29714e-56
6.86699e-56
4.73845e-58
9.09905e-69
2.55785e-60
2.00521e-75
9.63971e-20
6.75716e-11
0.000142928
5.55339e-09
0.000103769
4.55498e-07
3.38395e-06
7.13946e-07
0.00302324
0.0383206
0.138052
0.0883182
0.135008
0.0757823
0.119104
0.0671874
0.0918527
0.0387165
0.0253453
0.00255063
0.000100509
1.08094e-07
6.70974e-34
4.60911e-43
7.54264e-56
4.17829e-53
9.98794e-54
9.52802e-61
6.16746e-53
5.43891e-54
1.37413e-53
3.6939e-55
3.29859e-53
1.2904e-54
3.20455e-56
1.63986e-54
2.92225e-65
8.17236e-71
1.40177e-57
1.73442e-61
1.17948e-65
1.36201e-22
7.57578e-13
5.39528e-06
0.000779023
0.00112643
7.50541e-05
1.86505e-05
8.70976e-09
3.89633e-05
0.012505
0.0596088
0.143771
0.0849396
0.12981
0.0745135
0.116985
0.0666217
0.0918966
0.03897
0.0254633
0.00253492
6.54518e-05
1.04554e-07
1.50885e-36
2.42355e-45
1.0661e-53
3.7508e-53
7.35976e-54
5.03637e-53
2.15009e-62
2.72648e-55
1.84611e-61
4.28091e-54
4.38905e-56
1.19373e-62
2.31142e-56
5.00553e-57
2.51224e-64
3.58518e-58
1.13322e-71
2.13212e-60
3.77297e-77
2.27264e-25
2.1744e-15
1.95282e-07
0.000769054
0.00277818
2.10956e-06
3.7054e-06
8.30504e-07
8.18169e-07
0.00033667
0.0338592
0.0745376
0.141181
0.0815119
0.124997
0.072764
0.115038
0.0661198
0.0919046
0.038959
0.0253086
0.00249143
9.54334e-05
6.68416e-08
2.53801e-39
5.60181e-48
1.50118e-52
1.54097e-54
7.36304e-54
1.81398e-54
5.32956e-66
6.03713e-67
1.16122e-53
7.68939e-62
1.04182e-53
3.6027e-54
2.47876e-56
2.38686e-57
3.60813e-58
1.51252e-56
3.66561e-58
2.65423e-70
5.87697e-67
8.03761e-29
7.62079e-18
1.47379e-09
0.000357757
0.000331858
1.80667e-06
9.4042e-08
6.19993e-06
1.29545e-10
1.58225e-06
0.00193863
0.0659912
0.0806398
0.136076
0.0779673
0.122038
0.0714728
0.113712
0.0657563
0.0915463
0.0387546
0.0249824
0.00242925
9.18919e-05
6.38351e-08
1.27413e-42
2.42184e-50
8.71258e-54
4.61145e-58
2.85075e-55
8.05688e-55
4.67028e-55
6.63237e-54
1.54727e-62
1.40951e-54
4.51629e-55
3.11618e-57
2.73952e-55
1.74017e-57
1.98142e-56
1.09707e-56
3.18059e-60
2.75055e-63
4.25926e-67
2.71309e-32
5.95252e-21
1.24614e-11
2.11783e-05
4.45289e-06
0.000105277
3.88585e-05
5.94026e-06
6.82431e-08
1.47306e-08
3.29663e-05
0.0077865
0.0954189
0.0813634
0.130183
0.0759652
0.11994
0.070594
0.112752
0.0653647
0.0910976
0.0614048
0.0156974
0.00359391
5.86159e-05
9.15223e-08
1.28999e-46
1.34249e-52
7.86944e-55
1.22534e-60
3.07783e-60
1.08977e-60
4.16776e-54
1.70652e-54
2.66147e-55
7.88764e-54
1.45938e-56
1.15673e-54
8.46516e-57
6.82951e-64
9.97117e-66
1.47783e-58
1.50485e-69
3.73729e-63
3.41922e-66
1.50535e-36
4.73683e-24
2.33395e-14
8.88754e-07
0.000315112
0.00098488
3.76846e-05
1.77523e-06
3.0044e-08
2.92721e-09
5.64515e-08
0.000300923
0.0206441
0.114192
0.0796629
0.124893
0.0750662
0.118401
0.0700729
0.112063
0.0650555
0.0559508
0.0606888
0.0153782
0.00347687
5.62593e-05
8.73706e-08
6.03627e-51
7.28448e-54
8.36068e-58
6.59924e-54
1.10211e-60
8.07298e-55
2.65356e-55
5.72547e-56
1.59872e-53
6.00455e-54
2.84864e-54
2.73108e-57
1.00291e-55
1.21841e-57
8.81272e-59
1.05479e-58
1.84935e-59
2.31215e-63
1.58668e-67
3.62569e-41
1.00351e-27
3.11412e-17
8.94235e-09
0.000225069
0.000704156
3.44865e-07
1.03418e-07
2.29396e-08
3.70401e-10
3.84188e-13
9.49528e-07
0.00126768
0.0608129
0.0745902
0.125946
0.0748659
0.121695
0.0717548
0.113713
0.068419
0.0647459
0.0898753
0.0375168
0.0234753
0.00220847
8.1082e-05
5.53988e-08
5.98737e-51
2.79372e-57
3.42491e-52
1.93675e-62
1.00441e-53
9.48386e-54
1.94975e-54
7.17638e-55
2.34974e-54
5.08981e-56
4.15908e-62
1.61042e-69
8.89385e-66
9.40593e-58
5.45723e-57
1.37064e-57
8.41397e-61
2.89549e-62
1.2208e-67
4.44031e-46
7.27714e-32
1.79245e-20
3.61618e-11
2.78677e-05
7.17586e-07
6.31445e-06
9.54928e-06
1.94434e-06
2.59299e-08
2.29719e-09
3.19842e-10
3.68467e-06
0.00929917
0.0539376
0.123358
0.0745269
0.121367
0.0736918
0.116182
0.0693947
0.11117
0.0644159
0.089183
0.0370069
0.0229452
0.00213487
7.74867e-05
5.26853e-08
4.13338e-51
3.44343e-53
2.05833e-57
2.90666e-54
2.63249e-53
2.75167e-55
1.06965e-53
3.25407e-56
1.25098e-53
2.73204e-56
7.78021e-57
2.0877e-56
3.28914e-64
4.61136e-66
1.78038e-56
1.57341e-66
1.01293e-60
3.30009e-71
1.25394e-67
1.92037e-50
1.53373e-36
3.92524e-24
6.09611e-14
7.97748e-07
0.000153868
0.000191261
0.000111255
1.7135e-06
3.38712e-08
1.69084e-09
4.798e-09
1.62684e-08
0.000109039
0.0168695
0.104226
0.0742759
0.119738
0.0738287
0.119285
0.0706359
0.112904
0.0679545
0.104265
0.0546996
0.0582468
0.0143616
0.003136
4.92426e-05
7.5185e-08
2.40435e-51
3.6206e-54
5.97632e-53
2.9697e-54
1.28508e-54
4.05758e-54
1.71282e-54
1.18785e-53
1.44257e-55
7.86142e-67
5.73672e-57
1.05305e-57
1.4237e-64
9.16856e-56
5.44622e-59
2.9233e-59
6.88228e-61
5.07875e-62
9.49282e-68
6.93561e-49
9.00674e-42
2.78934e-28
4.08907e-17
6.33977e-09
0.000221935
0.000305855
4.49299e-07
4.30383e-07
1.28917e-11
2.03489e-07
6.11025e-14
1.33386e-09
5.71575e-12
0.000753979
0.052935
0.0692536
0.119136
0.0727619
0.119808
0.0723117
0.0702387
0.112652
0.067757
0.103711
0.0542662
0.0573938
0.0140108
0.00302388
4.70586e-05
7.15935e-08
5.64095e-53
1.27963e-54
4.61973e-54
6.75649e-60
3.27388e-60
2.16894e-55
1.27263e-53
1.77074e-54
4.06462e-62
1.56794e-61
2.91075e-63
9.44687e-58
2.2726e-57
6.72753e-57
2.09905e-57
5.38738e-58
5.43285e-60
2.29337e-71
4.5775e-68
2.95746e-51
3.73104e-46
8.01314e-33
6.50755e-21
2.44246e-11
1.97316e-05
3.55062e-06
6.01381e-07
4.00655e-06
1.87397e-06
6.03216e-07
6.87004e-08
6.29278e-09
1.7632e-13
3.09229e-06
0.00388966
0.0795588
0.0710699
0.116969
0.0724842
0.118918
0.0717258
0.114101
0.0689426
0.110103
0.06345
0.0869676
0.0354509
0.0212985
0.00191576
6.76598e-05
4.54056e-08
8.64208e-56
8.14064e-54
1.17001e-60
2.01799e-62
2.00952e-54
1.54884e-53
5.79229e-55
2.07097e-56
4.22721e-56
2.58989e-55
2.71194e-57
6.27861e-56
1.24072e-57
4.85533e-57
1.36693e-67
2.41276e-59
9.55315e-69
5.45834e-64
3.5523e-68
1.27696e-54
4.16155e-48
3.69695e-38
4.73076e-25
2.13754e-14
4.56489e-07
6.36124e-05
9.2322e-05
5.67364e-05
1.10814e-06
1.39449e-08
4.36307e-07
6.64598e-09
3.75932e-09
5.44443e-08
3.38272e-05
0.022806
0.0604527
0.115763
0.0712068
0.118263
0.117994
0.0711877
0.113671
0.0688286
0.109752
0.0631206
0.0862257
0.0349205
0.0207614
0.00184863
6.46533e-05
4.32287e-08
6.47878e-52
1.64557e-55
2.80766e-55
7.10985e-56
7.83779e-54
8.18845e-56
5.08894e-56
7.45204e-57
8.11101e-63
9.59684e-64
4.05592e-56
9.54647e-56
1.43623e-57
2.15257e-57
2.28338e-59
1.32703e-66
2.21056e-59
2.65041e-64
5.82658e-67
1.91158e-52
1.02373e-48
5.89206e-43
8.62463e-30
6.02446e-18
2.33733e-09
0.000111732
0.000156286
1.64815e-07
7.46509e-07
3.01205e-10
2.99007e-07
2.84292e-07
8.0706e-12
1.24845e-08
3.3639e-08
0.000671806
0.0321938
0.107967
0.0703124
0.116388
0.11765
0.0716642
0.115527
0.0694335
0.112074
0.067124
0.102125
0.0529352
0.0547764
0.0130022
0.00271158
4.1133e-05
6.19104e-08
2.55637e-53
5.7331e-55
3.80014e-54
3.99224e-54
1.87294e-54
4.39254e-62
2.53166e-56
7.85314e-56
7.6944e-63
7.7372e-57
1.80859e-57
2.13006e-63
1.2695e-57
2.58531e-65
1.25178e-57
1.39681e-58
3.38849e-60
1.97793e-64
2.73582e-77
1.17655e-52
1.5476e-48
2.90539e-46
4.59616e-35
3.17538e-22
4.71671e-12
7.71323e-06
2.72523e-07
6.6755e-07
1.40793e-06
2.08291e-06
2.23931e-07
2.7038e-07
7.56669e-08
3.44864e-14
1.10398e-08
3.46032e-07
0.00640512
0.0486125
0.111685
0.0698552
0.0713161
0.116892
0.0712073
0.114874
0.0692431
0.11185
0.0669298
0.101654
0.0524949
0.0539325
0.0126777
0.00261601
3.94295e-05
5.91186e-08
2.30546e-54
1.17737e-57
8.97581e-54
6.94644e-56
7.68914e-57
8.13054e-56
4.34231e-61
3.23097e-61
1.38488e-64
1.01752e-55
3.81018e-63
3.85119e-58
4.90893e-58
9.50413e-57
2.13452e-57
9.19298e-60
9.23152e-62
2.26272e-64
7.07762e-76
8.10498e-54
1.74877e-48
4.6066e-45
1.64741e-40
5.81451e-27
1.74097e-15
1.0876e-07
4.91425e-05
5.80629e-05
4.32715e-05
9.49144e-07
4.80821e-10
2.05178e-07
1.71776e-07
2.27657e-08
4.65148e-12
3.67293e-09
3.54442e-05
0.016737
0.0962683
0.0688386
0.0700455
0.116387
0.071087
0.115617
0.0700298
0.112662
0.0684409
0.108733
0.0622741
0.0840341
0.0333572
0.0192387
0.00166269
5.68183e-05
3.76818e-08
2.8497e-54
4.04056e-53
1.38106e-54
2.88116e-62
7.27482e-60
6.92523e-56
1.82392e-56
1.2561e-64
1.39144e-56
4.05914e-57
2.23553e-62
3.55082e-57
6.60681e-64
1.45785e-57
3.62407e-64
6.54205e-60
1.36837e-60
1.0459e-74
8.41498e-76
2.22965e-50
3.05724e-50
4.49819e-45
3.52296e-48
2.81966e-32
1.07869e-19
4.23093e-10
3.12705e-05
8.29343e-05
3.11687e-07
2.45482e-07
6.61945e-09
1.41459e-07
8.67672e-08
1.63231e-07
5.05949e-08
6.11524e-10
1.40275e-12
0.0010796
0.0349494
0.105638
0.112219
0.0703449
0.115962
0.070625
0.115002
0.0697217
0.112353
0.0683031
0.108412
0.0619998
0.0833001
0.0328549
0.0187781
0.00160707
5.4538e-05
3.60667e-08
1.38092e-52
2.54636e-54
9.29675e-61
1.0735e-56
1.45899e-56
2.5669e-56
1.18213e-56
5.41984e-55
1.12042e-56
2.09272e-57
4.48751e-63
4.44177e-63
3.40445e-58
4.24056e-59
4.60748e-58
5.56261e-70
1.65335e-71
6.99837e-65
1.82713e-67
2.10682e-50
2.37447e-50
2.7756e-46
3.11467e-45
6.01119e-39
2.11786e-24
2.37374e-13
1.68218e-06
3.04331e-09
3.01936e-06
1.10752e-06
1.99863e-06
3.71655e-08
7.11096e-08
1.07156e-07
4.51817e-08
9.93969e-09
1.96887e-10
4.02624e-07
0.00654174
0.0810553
0.109258
0.0689118
0.115267
0.0706242
0.114585
0.0700891
0.113242
0.0687083
0.111145
0.0663676
0.100247
0.0511948
0.0514776
0.0117909
0.00236304
3.48587e-05
5.17992e-08
9.62187e-59
6.13673e-56
1.04661e-55
5.20954e-57
7.55701e-55
1.16399e-60
5.04548e-57
3.35516e-56
5.75559e-61
9.95651e-58
5.24946e-62
6.22572e-57
2.55843e-65
2.9117e-59
5.93544e-59
2.77978e-60
4.98628e-60
6.30231e-65
4.54377e-75
2.35749e-53
2.95628e-51
2.256e-51
2.93451e-46
3.26613e-40
1.03542e-29
1.92221e-17
1.594e-08
2.27542e-05
5.20814e-05
1.02063e-05
1.20316e-06
7.25957e-12
6.49285e-08
3.12516e-08
4.23615e-08
3.02225e-07
3.40038e-09
1.81652e-10
9.49414e-05
0.0216045
0.0597348
0.110283
0.0694224
0.115211
0.0702021
0.113861
0.0697181
0.112736
0.0685525
0.110919
0.0661802
0.0997852
0.0507809
0.0507003
0.0115206
0.00228702
3.34983e-05
4.96695e-08
4.33975e-55
6.56959e-58
2.09623e-63
1.56457e-54
5.28276e-57
1.82541e-54
2.33168e-60
3.22153e-56
7.3094e-56
2.16865e-64
2.56075e-62
6.7977e-57
1.42913e-58
2.50168e-59
2.00346e-60
2.68786e-60
2.969e-62
2.87333e-79
3.48373e-69
6.12237e-55
3.05213e-52
9.83518e-48
1.0553e-45
8.46186e-40
4.48006e-36
6.61866e-22
1.6014e-11
7.58096e-06
6.85383e-06
4.93825e-07
5.10545e-13
9.28042e-08
2.68177e-08
1.91884e-08
4.99024e-08
2.34435e-07
1.09667e-07
2.53782e-09
2.52876e-11
0.00173911
0.0393949
0.104815
0.0679177
0.114084
0.0703673
0.113808
0.0693789
0.113179
0.0688333
0.111572
0.0678971
0.107472
0.0611787
0.0812005
0.0314459
0.0174861
0.00145746
4.84445e-05
3.17666e-08
2.3799e-58
2.5111e-57
1.74375e-54
1.50474e-56
7.46885e-55
1.05612e-56
1.13769e-62
1.26675e-55
9.64022e-64
8.72249e-64
7.72533e-64
2.70227e-69
7.11886e-59
2.00977e-57
3.93384e-58
2.42549e-71
3.49877e-61
1.15974e-62
3.06985e-79
1.49782e-53
8.83696e-53
1.93795e-48
1.37171e-44
1.27217e-41
5.64744e-39
2.44538e-27
1.89987e-15
2.23345e-07
1.81514e-06
1.08976e-05
2.30255e-06
8.28402e-07
2.07246e-10
2.74074e-08
7.12874e-09
4.1895e-08
8.80129e-08
1.56669e-07
6.28145e-11
4.03534e-06
0.0168463
0.0527813
0.107905
0.0684771
0.114692
0.0699728
0.113034
0.0690272
0.112619
0.0686048
0.111359
0.067767
0.107164
0.0609102
0.0805322
0.0309995
0.017085
0.00141273
4.66355e-05
3.0493e-08
1.8018e-55
3.62984e-54
8.10772e-63
4.86112e-55
3.49437e-56
1.33716e-55
1.37932e-61
5.71123e-58
1.49136e-63
8.41056e-58
1.33282e-58
2.48322e-57
2.3882e-57
1.35402e-59
1.61333e-58
1.18862e-60
2.36661e-62
1.15234e-75
7.23199e-76
3.47008e-52
2.2585e-50
1.48242e-49
1.26316e-44
1.28606e-42
7.08484e-39
1.82341e-33
8.39062e-20
3.20366e-10
1.06327e-05
2.1628e-05
7.96759e-07
7.07727e-07
3.83414e-10
1.33629e-08
3.54589e-09
1.88243e-08
3.95568e-08
2.47366e-07
4.30853e-08
6.72425e-13
0.000453401
0.0276853
0.098367
0.0670253
0.112885
0.0701629
0.113439
0.0688478
0.112055
0.0687444
0.111555
0.0681784
0.11025
0.0656325
0.0984424
0.049568
0.0485132
0.0107645
0.00207988
2.98899e-05
4.39645e-08
1.42993e-53
6.53692e-57
2.01944e-54
2.22683e-62
1.05863e-62
4.12431e-57
1.18725e-64
8.71394e-61
3.41474e-57
2.71645e-62
2.95002e-57
2.17579e-57
1.57362e-57
7.5938e-60
4.41058e-68
1.34517e-66
8.09554e-70
1.28269e-63
2.33746e-69
2.79025e-53
2.00635e-50
1.47512e-48
2.78168e-46
9.55931e-44
3.08871e-41
2.99258e-36
3.55395e-25
9.54211e-14
1.17595e-06
3.5061e-11
1.08502e-06
1.70359e-07
5.34193e-07
4.2644e-09
5.13635e-09
9.65647e-10
4.51921e-08
6.97503e-08
2.84743e-07
1.01752e-08
2.4375e-07
0.00414091
0.070777
0.0643749
0.109956
0.0697324
0.114107
0.069038
0.111612
0.0684132
0.111696
0.0682403
0.110986
0.0675061
0.106558
0.0603893
0.0792145
0.0301413
0.0163353
0.00132848
2.88207e-05
4.22552e-08
2.38063e-57
1.30574e-55
5.49354e-60
3.5372e-55
7.00404e-57
1.76088e-61
1.69006e-56
3.6434e-56
9.98384e-58
5.14809e-58
7.63276e-64
4.82872e-63
4.30079e-59
9.94127e-60
5.15931e-59
8.26843e-61
9.33313e-63
1.21775e-74
1.05886e-69
2.1754e-55
1.45275e-51
7.70805e-49
9.20113e-50
2.28686e-45
2.46752e-43
2.37951e-37
4.59541e-31
5.96306e-18
3.97939e-09
1.17476e-05
1.39643e-05
7.13721e-06
2.09463e-07
6.49053e-15
5.97922e-09
3.55185e-11
2.61937e-08
1.40517e-08
2.03367e-07
1.30553e-07
1.13068e-08
3.70333e-05
0.0262746
0.0553183
0.107243
0.0683189
0.114302
0.0695009
0.111806
0.0680725
0.111132
0.0682718
0.111022
0.0679672
0.109819
0.0652801
0.0975691
0.0487944
0.0471534
0.010303
0.00128954
4.17567e-05
2.71091e-08
1.70758e-57
4.77618e-56
5.4754e-57
5.04055e-56
1.05472e-60
6.19831e-63
1.55345e-56
3.62578e-58
1.50177e-57
4.23934e-58
1.16127e-63
2.70966e-59
2.71252e-59
1.161e-58
5.87721e-61
5.76294e-61
3.21221e-68
7.86236e-71
8.45617e-70
9.39097e-55
1.45871e-51
4.59781e-49
5.11577e-49
2.69166e-45
1.38552e-43
3.25374e-38
5.96e-35
3.00174e-23
2.14154e-12
3.76123e-06
1.86105e-06
5.17683e-07
1.13261e-09
1.53157e-08
4.06265e-09
2.96534e-11
5.02985e-09
3.33242e-09
5.60182e-08
2.11173e-07
1.34589e-07
5.31842e-08
0.00177206
0.0340309
0.100035
0.0666651
0.112831
0.0699334
0.112576
0.0680984
0.110431
0.0679366
0.110995
0.0679589
0.110654
0.0672575
0.105965
0.0598795
0.0779504
0.0293219
0.0156355
0.00125167
4.03121e-05
2.61436e-08
1.34994e-55
2.18397e-55
1.13689e-56
1.90185e-56
3.80792e-56
7.80447e-57
1.06668e-56
7.77932e-58
1.04039e-57
2.95935e-58
3.48538e-59
1.30254e-59
4.37107e-58
8.13232e-60
6.11955e-67
5.16023e-61
4.41645e-63
7.39296e-66
6.20927e-70
1.31125e-55
1.8795e-52
1.47522e-48
7.17897e-50
1.53563e-44
8.12069e-44
4.12519e-40
2.78486e-37
1.51322e-29
1.34658e-16
3.1727e-08
1.24225e-06
2.5888e-06
6.8945e-07
2.9836e-07
6.63714e-10
1.30083e-09
2.98731e-10
7.09861e-10
1.92319e-08
9.139e-08
2.32165e-07
4.32014e-08
6.98343e-06
0.00832994
0.0780093
0.0644567
0.109874
0.0697944
0.113599
0.0684917
0.110324
0.0674612
0.110414
0.0678988
0.110611
0.0677845
0.109401
0.064936
0.0967228
0.0480425
0.0458558
0.00987275
0.00184553
2.59473e-05
3.78196e-08
8.26164e-56
2.33534e-57
1.12845e-59
1.30296e-57
5.94824e-56
1.31622e-57
2.19809e-64
8.38562e-57
9.68855e-58
2.41892e-57
4.76163e-63
7.39948e-60
2.7364e-59
2.83382e-60
5.80184e-60
1.9259e-61
4.95536e-63
5.80779e-66
8.65902e-70
1.89945e-55
1.37121e-52
2.9481e-49
5.08855e-47
2.96952e-45
1.19621e-42
8.16625e-42
1.94226e-43
4.00506e-33
1.29246e-21
4.77805e-11
2.93214e-06
2.40122e-06
5.52812e-07
1.85777e-07
1.92621e-10
5.67844e-09
5.10666e-11
5.20324e-10
5.90089e-09
2.71994e-08
8.77193e-08
1.46204e-07
1.13426e-07
0.000246635
0.0371936
0.0575636
0.107058
0.0684738
0.114183
0.0691483
0.110844
0.0673145
0.10952
0.0675436
0.110446
0.0677494
0.110355
0.0670163
0.105392
0.0593797
0.0476785
0.0452228
0.00967126
0.00179539
2.50934e-05
3.64886e-08
2.88763e-58
2.50343e-62
1.58847e-57
1.73499e-56
3.96303e-58
2.7633e-56
6.29135e-57
2.47068e-57
3.25806e-62
3.3225e-70
1.53912e-57
3.84113e-65
1.32647e-64
2.14538e-60
3.058e-66
2.34489e-68
2.44405e-63
7.04208e-66
3.00508e-70
1.7323e-57
2.38082e-54
6.25036e-50
1.04443e-47
3.66724e-45
2.08134e-42
8.0806e-45
2.56445e-39
8.08959e-35
2.68372e-28
3.12547e-15
1.68536e-07
4.72107e-08
1.07242e-06
8.88286e-08
3.08464e-07
1.27023e-09
8.14403e-10
1.50102e-09
3.36949e-10
1.1431e-08
2.10171e-08
1.10828e-07
1.85925e-07
9.8353e-07
0.00499233
0.0400193
0.101458
0.066591
0.113171
0.0698095
0.111907
0.0675249
0.109147
0.0669707
0.10982
0.0676209
0.110291
0.0676152
0.108999
0.0646003
0.0591362
0.0761173
0.0281703
0.014685
0.00115124
3.64786e-05
2.34911e-08
5.67596e-59
4.39217e-56
3.37184e-56
9.38483e-64
9.28491e-69
9.47395e-62
4.30426e-58
2.59459e-63
5.03407e-67
6.94005e-57
3.87617e-58
5.43957e-58
2.67492e-62
3.95299e-59
1.22991e-59
1.97519e-61
9.25507e-68
6.85584e-65
4.30367e-76
1.57941e-59
1.36484e-54
2.97974e-52
6.8822e-49
2.15599e-45
2.4813e-42
6.53248e-41
1.48541e-38
2.09688e-36
1.36523e-32
2.80559e-20
3.43127e-10
2.77252e-06
3.98215e-06
3.08635e-06
9.50719e-08
1.37317e-11
2.40606e-10
4.18438e-09
1.65766e-10
3.63326e-09
5.17347e-09
3.41213e-08
1.6619e-07
8.03364e-08
6.91794e-05
0.0141337
0.0842993
0.0646364
0.110301
0.0699736
0.113232
0.0680734
0.109343
0.0666845
0.108787
0.0672354
0.110028
0.0675758
0.110076
0.0667903
0.104836
0.0588922
0.0755342
0.0278178
0.0143912
0.00112046
3.53231e-05
2.2678e-08
2.2802e-57
1.63828e-57
8.2988e-63
1.69721e-56
1.28449e-58
2.47087e-62
1.04676e-58
6.07399e-61
1.9301e-58
2.5581e-61
1.65166e-59
2.75681e-59
8.87969e-66
1.97977e-60
1.13391e-65
2.03187e-68
1.87673e-63
4.71196e-65
3.12327e-70
1.93663e-59
1.78133e-56
1.19682e-54
1.54123e-49
1.81931e-46
8.33606e-43
3.88369e-41
2.05954e-38
1.16759e-37
1.14707e-32
2.56003e-26
5.52118e-14
2.94659e-07
1.42457e-09
5.63499e-07
4.31693e-10
1.60447e-08
2.30542e-10
7.06218e-10
7.68771e-10
1.46459e-09
9.88133e-10
7.44668e-09
5.40736e-08
1.12132e-07
6.16479e-07
0.000979839
0.0485805
0.0594992
0.107218
0.0687976
0.114193
0.0688699
0.110107
0.0667111
0.108209
0.0665964
0.109345
0.0673856
0.110008
0.0674728
0.108639
0.0642764
0.0950856
0.0466268
0.043475
0.00911501
0.00165476
2.27585e-05
3.28541e-08
1.10048e-56
9.5633e-59
3.33543e-56
1.336e-56
6.96288e-69
1.08427e-57
4.47325e-59
8.32708e-58
8.9239e-66
3.15075e-59
3.08085e-62
1.52001e-60
6.08426e-60
1.51566e-60
2.50363e-64
1.09186e-61
6.70941e-68
1.86328e-66
1.52434e-70
1.58946e-55
6.46749e-69
8.27912e-54
4.13114e-50
1.20665e-49
8.56036e-45
9.11719e-42
1.92326e-38
2.36752e-36
1.95516e-36
6.34414e-33
7.20672e-19
1.16708e-09
1.58059e-06
1.29145e-06
8.86194e-07
5.1999e-08
3.36802e-13
2.94987e-11
2.06873e-09
8.67264e-10
8.57646e-10
1.68612e-09
1.55704e-08
5.0313e-08
1.15179e-07
7.9961e-06
0.0108741
0.0454422
0.102712
0.0667119
0.113686
0.06969
0.111369
0.0670576
0.10812
0.066209
0.108222
0.0669676
0.10962
0.0674301
0.0674142
0.108462
0.0641188
0.0946988
0.0462882
0.0429186
0.00894144
0.00161071
2.20388e-05
3.17402e-08
9.205e-60
8.92116e-58
1.39844e-56
2.15449e-60
3.13838e-62
3.65083e-62
9.17124e-57
7.74883e-60
2.56614e-63
1.83169e-59
9.08528e-60
4.01666e-59
4.0472e-59
3.66259e-64
2.74714e-66
7.80359e-62
1.17895e-63
1.44573e-66
7.41981e-71
5.68839e-58
5.2736e-55
8.79392e-56
2.85076e-51
5.18021e-48
2.13306e-46
2.89634e-43
6.29487e-39
2.6222e-36
8.53936e-36
7.75919e-33
1.14964e-24
3.02349e-13
6.55634e-07
1.6809e-08
9.04074e-07
8.89659e-09
3.29936e-09
1.503e-10
5.66168e-10
4.07246e-11
3.1134e-09
6.94686e-10
4.77147e-09
1.276e-08
9.87109e-08
2.31564e-07
0.000351995
0.021063
0.0896543
0.0648616
0.110922
0.0700786
0.112917
0.0677132
0.108535
0.0660885
0.107501
0.0663074
0.108888
0.0671608
0.0673741
0.109775
0.0664794
0.104035
0.0581938
0.07386
0.0267903
0.0135636
0.00103448
3.20704e-05
2.04292e-08
1.26349e-57
6.20035e-57
4.8156e-56
3.11999e-58
1.37427e-59
5.02901e-58
9.43212e-58
3.21415e-67
9.4458e-63
3.71126e-59
4.15124e-63
1.50518e-57
2.80393e-60
1.49054e-68
3.58787e-62
5.28541e-67
1.90355e-67
1.52437e-65
3.25978e-71
1.1525e-57
3.8611e-60
5.70948e-56
9.57447e-54
9.00733e-50
1.18074e-46
7.96666e-43
1.22855e-41
2.92458e-37
2.02232e-35
1.39611e-32
2.21818e-29
8.29245e-18
3.60897e-09