/*--------------------------------*- C++ -*----------------------------------*\
| =========                 |                                                 |
| \\      /  F ield         | OpenFOAM: The Open Source CFD Toolbox           |
|  \\    /   O peration     | Version:  v2012                                 |
|   \\  /    A nd           | Website:  www.openfoam.com                      |
|    \\/     M anipulation  |                                                 |
\*---------------------------------------------------------------------------*/
FoamFile
{
    version     2.0;
    format      ascii;
    class       volScalarField;
    location    "1801";
    object      k;
}
// * * * * * * * * * * * * * * * * * * * * * * * * * * * * * * * * * * * * * //

dimensions      [0 2 -2 0 0 0 0];


internalField   nonuniform List<scalar> 
8000
(
3.39059e-13
1.99979e-14
3.5442e-13
4.66208e-15
2.08335e-14
3.55563e-13
2.0607e-15
4.7634e-15
2.11342e-14
3.55599e-13
1.24781e-15
2.08492e-15
4.8584e-15
2.13913e-14
3.556e-13
1e-15
1.25763e-15
2.12201e-15
4.95722e-15
2.18761e-14
3.55601e-13
1e-15
1e-15
1.27608e-15
2.16763e-15
5.0817e-15
2.20557e-14
3.55601e-13
1e-15
1e-15
1e-15
1.30125e-15
2.22015e-15
5.16907e-15
2.20978e-14
3.55601e-13
1e-15
1e-15
1e-15
1e-15
1.33099e-15
2.26829e-15
5.24051e-15
2.21058e-14
3.55601e-13
1e-15
1e-15
1e-15
1e-15
1e-15
1.36164e-15
2.31255e-15
5.30368e-15
2.21073e-14
3.55601e-13
1e-15
1e-15
1e-15
1e-15
1e-15
1e-15
1.39172e-15
2.35343e-15
5.33754e-15
2.21076e-14
3.55601e-13
1e-15
1e-15
1e-15
1e-15
1e-15
1e-15
1.00214e-15
1.42046e-15
2.38673e-15
5.35091e-15
2.21076e-14
3.55601e-13
1e-15
1e-15
1e-15
1e-15
1e-15
1e-15
1e-15
1.0176e-15
1.44636e-15
2.41187e-15
5.35529e-15
2.21077e-14
3.55601e-13
1e-15
1e-15
1e-15
1e-15
1e-15
1e-15
1e-15
1e-15
1.03636e-15
1.46863e-15
2.42608e-15
5.35659e-15
2.21077e-14
3.55601e-13
1e-15
1e-15
1e-15
1e-15
1e-15
1e-15
1e-15
1e-15
1e-15
1.05466e-15
1.48585e-15
2.43241e-15
5.35697e-15
2.21077e-14
3.55601e-13
1e-15
1e-15
1e-15
1e-15
1e-15
1e-15
1e-15
1e-15
1e-15
1e-15
1.07059e-15
1.49661e-15
2.4348e-15
5.35708e-15
2.21077e-14
3.55601e-13
3.75276e-13
1e-15
1e-15
1e-15
1e-15
1e-15
1e-15
1e-15
1e-15
1e-15
1e-15
1.08276e-15
1.50192e-15
2.43562e-15
5.35711e-15
2.21077e-14
3.55601e-13
5.5656e-09
1.96399e-13
1e-15
1e-15
1e-15
1e-15
1e-15
1e-15
1e-15
1e-15
1e-15
1e-15
1.09027e-15
1.50411e-15
2.43589e-15
5.35712e-15
2.21077e-14
3.55601e-13
6.68856e-05
2.41707e-09
7.62325e-14
1e-15
1e-15
1e-15
1e-15
1e-15
1e-15
1e-15
1e-15
1e-15
1e-15
1.09397e-15
1.50492e-15
2.43598e-15
5.35713e-15
2.21077e-14
3.55601e-13
0.64648
2.30012e-05
8.19474e-10
2.75421e-14
1e-15
1e-15
1e-15
1e-15
1e-15
1e-15
1e-15
1e-15
1e-15
1e-15
1.09552e-15
1.50521e-15
2.43602e-15
5.35713e-15
2.21077e-14
3.55601e-13
0.16478
2884.07
7.07002e-06
2.83715e-10
1.11324e-14
1e-15
1e-15
1e-15
1e-15
1e-15
1e-15
1e-15
1e-15
1e-15
1e-15
1.09609e-15
1.50531e-15
2.43603e-15
5.35713e-15
2.21077e-14
3.55601e-13
0.04931
586.059
337.314
2.53915e-06
1.15445e-10
5.40396e-15
1e-15
1e-15
1e-15
1e-15
1e-15
1e-15
1e-15
1e-15
1e-15
1e-15
1.0963e-15
1.50534e-15
2.43603e-15
5.35713e-15
2.21077e-14
3.55601e-13
0.0193065
216.824
95.2628
114.991
1.11714e-06
5.36086e-11
3.04649e-15
1e-15
1e-15
1e-15
1e-15
1e-15
1e-15
1e-15
1e-15
1e-15
1e-15
1.09638e-15
1.50536e-15
2.43603e-15
5.35713e-15
2.21077e-14
3.55601e-13
0.00910609
103.265
82.3542
21.0075
64.1999
5.43659e-07
2.58647e-11
1.93542e-15
1e-15
1e-15
1e-15
1e-15
1e-15
1e-15
1e-15
1e-15
1e-15
1e-15
1.09641e-15
1.50536e-15
2.43603e-15
5.35713e-15
2.21077e-14
3.55601e-13
0.00456264
53.7897
70.0639
20.5374
10.3044
43.9809
2.67039e-07
1.21067e-11
1.3836e-15
1e-15
1e-15
1e-15
1e-15
1e-15
1e-15
1e-15
1e-15
1e-15
1e-15
1.09642e-15
1.50537e-15
2.43603e-15
5.35713e-15
2.21077e-14
3.55601e-13
0.0022629
28.4664
51.9227
33.5056
7.35623
6.86378
32.12
1.25672e-07
5.12019e-12
1.11859e-15
1e-15
1e-15
1e-15
1e-15
1e-15
1e-15
1e-15
1e-15
1e-15
1e-15
1.09642e-15
1.50537e-15
2.43603e-15
5.35713e-15
2.21077e-14
3.55601e-13
0.00106805
14.6658
36.2251
39.1858
15.6823
4.11245
4.99001
25.0567
5.2969e-08
1.73843e-12
1.01573e-15
1e-15
1e-15
1e-15
1e-15
1e-15
1e-15
1e-15
1e-15
1e-15
1e-15
1.09643e-15
1.50537e-15
2.43603e-15
5.35713e-15
2.21077e-14
3.55601e-13
0.000448636
7.13842
24.6546
34.2178
28.4234
8.92732
2.93771
3.91657
20.47
1.76047e-08
4.46958e-13
1e-15
1e-15
1e-15
1e-15
1e-15
1e-15
1e-15
1e-15
1e-15
1e-15
1e-15
1.09643e-15
1.50537e-15
2.43603e-15
5.35713e-15
2.21077e-14
3.55601e-13
0.000146261
3.08363
16.2816
25.7713
34.7954
20.0579
6.55998
2.51639
3.26315
17.3851
4.37431e-09
8.14843e-14
1e-15
1e-15
1e-15
1e-15
1e-15
1e-15
1e-15
1e-15
1e-15
1e-15
1e-15
1.09643e-15
1.50537e-15
2.43603e-15
5.35713e-15
2.21077e-14
3.55601e-13
3.53247e-05
1.04367
10.2755
18.4624
30.4154
31.8017
16.17
6.11433
2.55722
2.88066
15.3854
7.48377e-10
1.07867e-14
1e-15
1e-15
1e-15
1e-15
1e-15
1e-15
1e-15
1e-15
1e-15
1e-15
1e-15
1.09643e-15
1.50537e-15
2.43603e-15
5.35713e-15
2.21077e-14
3.55601e-13
5.75739e-06
0.253134
6.10546
12.9769
21.7544
38.1123
30.4081
15.9028
7.05473
3.01387
2.73907
14.2267
8.41196e-11
1.80654e-15
1e-15
1e-15
1e-15
1e-15
1e-15
1e-15
1e-15
1e-15
1e-15
1e-15
1e-15
1.09643e-15
1.50537e-15
2.43603e-15
5.35713e-15
2.21077e-14
3.55601e-13
6.00552e-07
0.0401822
3.36126
8.9012
14.9204
31.4483
44.0058
32.7704
19.0715
9.4
4.1186
2.88371
13.7103
6.42657e-12
1.03768e-15
1e-15
1e-15
1e-15
1e-15
1e-15
1e-15
1e-15
1e-15
1e-15
1e-15
1e-15
1.09643e-15
1.50537e-15
2.43603e-15
5.35713e-15
2.21077e-14
3.55601e-13
4.19577e-08
0.00395225
1.70499
5.87828
10.3777
20.5851
48.1068
52.6464
41.2732
26.0288
14.1734
6.48692
3.38691
13.7607
4.22394e-13
1e-15
1e-15
1e-15
1e-15
1e-15
1e-15
1e-15
1e-15
1e-15
1e-15
1e-15
1e-15
1.09643e-15
1.50537e-15
2.43603e-15
5.35713e-15
2.21077e-14
3.55601e-13
2.72878e-09
0.000256236
0.770222
3.67704
7.25524
12.9295
35.0596
71.8766
71.0275
57.6071
39.8481
23.8945
11.0027
4.15836
14.2873
3.5154e-14
1e-15
1e-15
1e-15
1e-15
1e-15
1e-15
1e-15
1e-15
1e-15
1e-15
1e-15
1e-15
1.09643e-15
1.50537e-15
2.43603e-15
5.35713e-15
2.21077e-14
3.55601e-13
2.47292e-10
1.70689e-05
0.276218
2.15737
4.96806
8.50704
20.2296
65.5835
107.738
102.895
89.2913
67.7284
42.2453
17.684
5.39645
15.1332
3.78379e-15
1e-15
1e-15
1e-15
1e-15
1e-15
1e-15
1e-15
1e-15
1e-15
1e-15
1e-15
1e-15
1.09643e-15
1.50537e-15
2.43603e-15
5.35713e-15
2.21077e-14
3.55601e-13
2.09365e-11
1.72953e-06
0.0711861
1.16588
3.27081
5.80273
11.5169
39.7356
120.867
160.291
162.86
152.363
120.101
70.0411
26.8298
6.64057
15.7217
1.14362e-15
1e-15
1e-15
1e-15
1e-15
1e-15
1e-15
1e-15
1e-15
1e-15
1e-15
1e-15
1e-15
1.09643e-15
1.50537e-15
2.43603e-15
5.35713e-15
2.21077e-14
3.55601e-13
1.1337e-12
1.48073e-07
0.0115935
0.574513
2.03706
3.97009
7.08398
19.949
88.0318
210.496
256.679
279.344
268.747
199.735
107.033
35.6809
7.54873
16.1025
1e-15
1e-15
1e-15
1e-15
1e-15
1e-15
1e-15
1e-15
1e-15
1e-15
1e-15
1e-15
1e-15
1.09643e-15
1.50537e-15
2.43603e-15
5.35713e-15
2.21077e-14
3.55601e-13
4.36795e-14
7.5538e-09
0.00104496
0.256878
1.18321
2.64541
4.65161
10.3153
43.8873
188.843
361.317
437.748
486.297
441.702
302.754
142.686
42.173
8.0687
16.2034
1e-15
1e-15
1e-15
1e-15
1e-15
1e-15
1e-15
1e-15
1e-15
1e-15
1e-15
1e-15
1e-15
1.09643e-15
1.50537e-15
2.43603e-15
5.35713e-15
2.21077e-14
3.55601e-13
2.58668e-15
2.69038e-10
5.03018e-05
0.0987938
0.638195
1.68889
3.11206
5.94298
19.3245
107.766
372.146
618.22
742.325
776.93
654.23
400.324
168.76
45.8568
8.3415
16.1269
1e-15
1e-15
1e-15
1e-15
1e-15
1e-15
1e-15
1e-15
1e-15
1e-15
1e-15
1e-15
1e-15
1.09643e-15
1.50537e-15
2.43603e-15
5.35713e-15
2.21077e-14
3.55601e-13
1.04285e-15
1.04681e-11
1.70938e-06
0.0283633
0.317491
1.01948
2.05163
3.73073
9.16719
45.3666
255.029
670.506
1009.54
1135.71
1107.84
846.262
470.518
183.601
47.8909
8.41585
15.879
1e-15
1e-15
1e-15
1e-15
1e-15
1e-15
1e-15
1e-15
1e-15
1e-15
1e-15
1e-15
1e-15
1.09643e-15
1.50537e-15
2.43603e-15
5.35713e-15
2.21077e-14
3.55601e-13
1e-15
3.83567e-13
7.18303e-08
0.00499229
0.142957
0.57624
1.30896
2.41721
4.95584
18.1488
116.303
524.64
1085.01
1461.85
1547.58
1385.21
978.929
510.238
191.75
48.5582
8.37809
15.5424
1e-15
1e-15
1e-15
1e-15
1e-15
1e-15
1e-15
1e-15
1e-15
1e-15
1e-15
1e-15
1e-15
1.09643e-15
1.50537e-15
2.43603e-15
5.35713e-15
2.21077e-14
3.55601e-13
1e-15
1.03122e-14
2.68272e-09
0.000451269
0.0571133
0.301067
0.795953
1.55858
2.9635
8.04245
43.0527
277.855
905.341
1542.57
1888.7
1864.64
1567.08
1052.41
531.663
194.418
48.5232
8.26819
15.1711
1e-15
1e-15
1e-15
1e-15
1e-15
1e-15
1e-15
1e-15
1e-15
1e-15
1e-15
1e-15
1e-15
1.09643e-15
1.50537e-15
2.43603e-15
5.35713e-15
2.21077e-14
3.55601e-13
1e-15
1.16368e-15
6.12244e-11
1.88728e-05
0.0189634
0.144047
0.457543
0.976089
1.8542
4.09277
16.1545
106.214
553.989
1339.69
1951.71
2194.29
2064.04
1665.77
1090.61
538.448
194.246
48.0169
8.10615
14.7493
1e-15
1e-15
1e-15
1e-15
1e-15
1e-15
1e-15
1e-15
1e-15
1e-15
1e-15
1e-15
1e-15
1.09643e-15
1.50537e-15
2.43603e-15
5.35713e-15
2.21077e-14
3.55601e-13
1e-15
1e-15
1.11828e-12
4.01178e-07
0.00445496
0.0626899
0.245687
0.586358
1.16147
2.32338
6.78473
36.3651
237.261
923.236
1738.37
2236.96
2384.47
2169.82
1714.15
1101.93
537.676
192.191
47.1399
7.92464
14.3281
1e-15
1e-15
1e-15
1e-15
1e-15
1e-15
1e-15
1e-15
1e-15
1e-15
1e-15
1e-15
1e-15
1.09643e-15
1.50537e-15
2.43603e-15
5.35713e-15
2.21077e-14
3.55601e-13
1e-15
1e-15
2.02142e-14
7.24999e-09
0.00058798
0.024299
0.122243
0.335384
0.708908
1.39639
3.27133
13.1468
80.2547
467.244
1306.54
2029.55
2424.41
2486.41
2220.06
1728.4
1099.8
531.97
188.664
46.1639
7.73545
13.9278
1e-15
1e-15
1e-15
1e-15
1e-15
1e-15
1e-15
1e-15
1e-15
1e-15
1e-15
1e-15
1e-15
1.09643e-15
1.50537e-15
2.43603e-15
5.35713e-15
2.21077e-14
3.55601e-13
1e-15
1e-15
1.23661e-15
1.29843e-10
3.53144e-05
0.00804777
0.0554981
0.180798
0.416061
0.846211
1.77198
5.32557
26.4676
172.182
774.832
1633.73
2240.42
2543.8
2538.24
2235.75
1725.65
1088.91
522.446
184.746
45.127
7.55192
13.5475
1e-15
1e-15
1e-15
1e-15
1e-15
1e-15
1e-15
1e-15
1e-15
1e-15
1e-15
1e-15
1e-15
1.09643e-15
1.50537e-15
2.43603e-15
5.35713e-15
2.21077e-14
3.55601e-13
1e-15
1e-15
1e-15
1.6187e-12
8.65473e-07
0.00202171
0.0228114
0.0912819
0.232658
0.501312
1.02412
2.47156
9.40813
54.8315
334.293
1100.79
1878.74
2393.71
2617.96
2559.45
2234.27
1711.69
1071.37
511.903
180.591
44.1129
7.36516
13.1564
1e-15
1e-15
1e-15
1e-15
1e-15
1e-15
1e-15
1e-15
1e-15
1e-15
1e-15
1e-15
1e-15
1.09643e-15
1.50537e-15
2.43603e-15
5.35713e-15
2.21077e-14
3.55601e-13
1e-15
1e-15
1e-15
1.74253e-14
1.03594e-08
0.000305207
0.00833968
0.0426565
0.123939
0.28521
0.599708
1.29321
3.75409
17.7615
111.52
571.828
1394.61
2074.52
2504.1
2661.47
2564.91
2220.78
1689.44
1052.05
500.758
176.525
43.0535
7.16811
12.7792
1e-15
1e-15
1e-15
1e-15
1e-15
1e-15
1e-15
1e-15
1e-15
1e-15
1e-15
1e-15
1e-15
1.09643e-15
1.50537e-15
2.43603e-15
5.35713e-15
2.21077e-14
3.55601e-13
1e-15
1e-15
1e-15
1.12566e-15
1.04461e-10
2.11482e-05
0.00262486
0.0181501
0.0621798
0.155331
0.343401
0.723494
1.72241
6.21751
34.7234
218.258
854.665
1637.24
2229.13
2582.23
2687.14
2558.2
2198.7
1664.95
1031.68
489.84
172.28
41.9249
6.97406
12.4221
1e-15
1e-15
1e-15
1e-15
1e-15
1e-15
1e-15
1e-15
1e-15
1e-15
1e-15
1e-15
1e-15
1.09643e-15
1.50537e-15
2.43603e-15
5.35713e-15
2.21077e-14
3.55601e-13
1e-15
1e-15
1e-15
1e-15
8.96665e-13
5.5113e-07
0.000638341
0.00693352
0.0292801
0.0804239
0.189448
0.409676
0.888612
2.46212
11.1019
69.6648
396.69
1130.4
1834.35
2350.78
2638.76
2699.55
2542.9
2174.19
1639.08
1011.63
478.449
167.757
40.8049
6.78257
12.0804
1e-15
1e-15
1e-15
1e-15
1e-15
1e-15
1e-15
1e-15
1e-15
1e-15
1e-15
1e-15
1e-15
1.09643e-15
1.50537e-15
2.43603e-15
5.35713e-15
2.21077e-14
3.55601e-13
1e-15
1e-15
1e-15
1e-15
6.93889e-15
5.57916e-09
9.47251e-05
0.00234619
0.012732
0.0396954
0.0997487
0.227164
0.486098
1.12985
3.8476
21.5198
141.959
632.252
1372.8
2001.51
2446.93
2678.73
2702.05
2524.83
2148.08
1613.35
990.697
466.285
163.27
39.6844
6.59878
11.7497
1e-15
1e-15
1e-15
1e-15
1e-15
1e-15
1e-15
1e-15
1e-15
1e-15
1e-15
1e-15
1e-15
1.09643e-15
1.50537e-15
2.43603e-15
5.35713e-15
2.21077e-14
3.55601e-13
1e-15
1e-15
1e-15
1e-15
1.01617e-15
3.60013e-11
6.29693e-06
0.000678762
0.0050212
0.0184876
0.0501868
0.121113
0.26774
0.579099
1.53114
6.76901
45.4873
269.326
883.037
1578
2141.13
2522.32
2705.96
2699.72
2504.77
2121.69
1586.35
968.142
454.206
158.781
38.6085
6.41866
11.4309
1e-15
1e-15
1e-15
1e-15
1e-15
1e-15
1e-15
1e-15
1e-15
1e-15
1e-15
1e-15
1e-15
1.09643e-15
1.50537e-15
2.43603e-15
5.35713e-15
2.21077e-14
3.55601e-13
1e-15
1e-15
1e-15
1e-15
1e-15
2.01565e-13
1.45399e-07
0.000149465
0.00176395
0.00806477
0.0240311
0.0617911
0.143804
0.311183
0.708297
2.32615
13.9724
94.5305
452.782
1119.07
1754.75
2257.19
2581.19
2725.32
2693.77
2483.73
2093.86
1556.77
945.635
442.113
154.471
37.5499
6.24791
11.1358
1e-15
1e-15
1e-15
1e-15
1e-15
1e-15
1e-15
1e-15
1e-15
1e-15
1e-15
1e-15
1e-15
1.09643e-15
1.50537e-15
2.43603e-15
5.35713e-15
2.21077e-14
3.55601e-13
1e-15
1e-15
1e-15
1e-15
1e-15
1.87196e-15
1.14592e-09
1.92917e-05
0.000543356
0.00324294
0.0109712
0.0300467
0.0742944
0.166813
0.361481
0.93108
4.28537
30.6572
183.092
671.078
1330.06
1910.01
2353.26
2628.17
2738.75
2685.15
2460.81
2064.38
1526.97
923.002
430.477
150.232
36.552
6.08726
10.8553
1e-15
1e-15
1e-15
1e-15
1e-15
1e-15
1e-15
1e-15
1e-15
1e-15
1e-15
1e-15
1e-15
1.09643e-15
1.50537e-15
2.43603e-15
5.35713e-15
2.21077e-14
3.55601e-13
1e-15
1e-15
1e-15
1e-15
1e-15
1e-15
5.02488e-12
1.03359e-06
0.000140502
0.00117051
0.00472471
0.0139657
0.0366582
0.0869242
0.190501
0.432283
1.44087
9.344
64.9145
320.386
893.305
1514.46
2044.25
2433.03
2666
2747.37
2673.48
2436.02
2034.13
1496.76
901.102
419.025
146.236
35.6084
5.93088
10.5858
1e-15
1e-15
1e-15
1e-15
1e-15
1e-15
1e-15
1e-15
1e-15
1e-15
1e-15
1e-15
1e-15
1.09643e-15
1.50537e-15
2.43603e-15
5.35713e-15
2.21077e-14
3.55601e-13
1e-15
1e-15
1e-15
1e-15
1e-15
1e-15
1.92245e-14
1.73215e-08
2.6353e-05
0.000372704
0.00190166
0.00617969
0.01728
0.0434675
0.0993091
0.218065
0.570404
2.81167
21.3737
126.524
499.169
1101.32
1679.41
2159.51
2499.82
2696.22
2751.34
2658.84
2409.72
2002.96
1467.25
879.482
408.211
142.456
34.6829
5.78357
10.3317
1e-15
1e-15
1e-15
1e-15
1e-15
1e-15
1e-15
1e-15
1e-15
1e-15
1e-15
1e-15
1e-15
1.09643e-15
1.50537e-15
2.43603e-15
5.35713e-15
2.21077e-14
3.55601e-13
1e-15
1e-15
1e-15
1e-15
1e-15
1e-15
1.03521e-15
9.23844e-11
2.62931e-06
0.000102536
0.000700806
0.00260989
0.00776287
0.0207878
0.0500972
0.112106
0.261299
0.921534
6.50314
45.4616
225.737
698.964
1290.74
1827.28
2258.66
2555.61
2719.65
2750.78
2641.48
2381.9
1972.1
1437.97
858.954
397.959
138.75
33.8169
5.64174
10.0873
1e-15
1e-15
1e-15
1e-15
1e-15
1e-15
1e-15
1e-15
1e-15
1e-15
1e-15
1e-15
1e-15
1.09643e-15
1.50537e-15
2.43603e-15
5.35713e-15
2.21077e-14
3.55601e-13
1e-15
1e-15
1e-15
1e-15
1e-15
1e-15
1e-15
2.79978e-13
9.54611e-08
2.27525e-05
0.000228616
0.00103706
0.00333873
0.00948016
0.0242571
0.0565694
0.128669
0.35433
1.93232
15.0399
88.5371
366.179
898.744
1460.96
1958.64
2343.56
2601.92
2736.73
2746.03
2621.61
2353.82
1941.2
1409.93
839.375
387.901
135.282
32.9775
5.50496
9.85401
1e-15
1e-15
1e-15
1e-15
1e-15
1e-15
1e-15
1e-15
1e-15
1e-15
1e-15
1e-15
1e-15
1.09643e-15
1.50537e-15
2.43603e-15
5.35713e-15
2.21077e-14
3.55601e-13
1e-15
1e-15
1e-15
1e-15
1e-15
1e-15
1e-15
1.66834e-15
9.55514e-10
3.31368e-06
6.49818e-05
0.000382535
0.00136721
0.00413431
0.0112241
0.0275704
0.0639503
0.157179
0.614171
4.55753
32.0406
159.601
537.756
1086.51
1617.36
2074.03
2416.08
2639.65
2747.95
2737.53
2600.54
2325.28
1911.28
1382.93
820.108
378.469
131.92
32.1676
5.37501
9.6308
1e-15
1e-15
1e-15
1e-15
1e-15
1e-15
1e-15
1e-15
1e-15
1e-15
1e-15
1e-15
1e-15
1.09643e-15
1.50537e-15
2.43603e-15
5.35713e-15
2.21077e-14
3.55601e-13
1e-15
1e-15
1e-15
1e-15
1e-15
1e-15
1e-15
1e-15
3.10252e-12
2.18316e-07
1.55509e-05
0.000127473
0.000533279
0.00172005
0.00496678
0.0128909
0.0310645
0.0746446
0.225169
1.33701
10.5312
62.5809
266.439
721.787
1259.9
1759.95
2174.92
2477.54
2669.6
2753.93
2726.63
2578.34
2297.26
1882.08
1356.22
801.945
369.317
128.677
31.3995
5.24828
9.41518
1e-15
1e-15
1e-15
1e-15
1e-15
1e-15
1e-15
1e-15
1e-15
1e-15
1e-15
1e-15
1e-15
1.09643e-15
1.50537e-15
2.43603e-15
5.35713e-15
2.21077e-14
3.55601e-13
1e-15
1e-15
1e-15
1e-15
1e-15
1e-15
1e-15
1e-15
7.40792e-15
4.36088e-09
2.77967e-06
3.70841e-05
0.000194615
0.000685098
0.00209829
0.00577633
0.0145538
0.0356711
0.0946893
0.411796
3.16079
22.6179
113.601
407.204
903.809
1419.71
1888.64
2262.5
2528.96
2692.57
2756.05
2713.68
2555.91
2269.45
1852.98
1330.83
784.249
360.478
125.6
30.6459
5.12551
9.21027
1e-15
1e-15
1e-15
1e-15
1e-15
1e-15
1e-15
1e-15
1e-15
1e-15
1e-15
1e-15
1e-15
1.09643e-15
1.50537e-15
2.43603e-15
5.35713e-15
2.21077e-14
3.55601e-13
1e-15
1e-15
1e-15
1e-15
1e-15
1e-15
1e-15
1e-15
1e-15
2.17359e-11
2.74625e-07
9.21724e-06
6.52759e-05
0.000259921
0.000848138
0.0024762
0.00655399
0.0166257
0.0427268
0.143096
0.912751
7.36717
44.4803
192.638
570.708
1076.75
1569.62
2003.11
2337.8
2571.34
2709.96
2754.91
2699.54
2532.97
2241.41
1825.03
1305.94
767.102
352.079
122.582
29.9153
5.00809
9.01296
1e-15
1e-15
1e-15
1e-15
1e-15
1e-15
1e-15
1e-15
1e-15
1e-15
1e-15
1e-15
1e-15
1.09643e-15
1.50537e-15
2.43603e-15
5.35713e-15
2.21077e-14
3.55601e-13
1e-15
1e-15
1e-15
1e-15
1e-15
1e-15
1e-15
1e-15
1e-15
4.36595e-14
9.72471e-09
1.83611e-06
1.92893e-05
9.3237e-05
0.000327817
0.00101606
0.00283277
0.00747355
0.0194567
0.0565344
0.27259
2.19238
15.898
80.9916
304.209
742.268
1238.37
1707.97
2103.86
2401.91
2606.12
2722.64
2751.38
2684.03
2509.28
2214.17
1797.38
1281.69
750.723
343.831
119.656
29.2155
4.8939
8.82302
1e-15
1e-15
1e-15
1e-15
1e-15
1e-15
1e-15
1e-15
1e-15
1e-15
1e-15
1e-15
1e-15
1.09643e-15
1.50537e-15
2.43603e-15
5.35713e-15
2.21077e-14
3.55601e-13
1e-15
1e-15
1e-15
1e-15
1e-15
1e-15
1e-15
1e-15
1e-15
1.03945e-15
8.4725e-11
2.3806e-07
4.8858e-06
3.10811e-05
0.000120922
0.000398931
0.00117538
0.00322883
0.00866221
0.0240429
0.0899557
0.624123
5.09829
31.4362
138.74
444.2
911.081
1391.19
1833.48
2191.62
2456.26
2634.47
2731.52
2745.43
2667.11
2485.85
2186.92
1770.25
1258.33
734.577
335.824
116.853
28.5328
4.78634
8.64444
1e-15
1e-15
1e-15
1e-15
1e-15
1e-15
1e-15
1e-15
1e-15
1e-15
1e-15
1e-15
1e-15
1.09643e-15
1.50537e-15
2.43603e-15
5.35713e-15
2.21077e-14
3.55601e-13
1e-15
1e-15
1e-15
1e-15
1e-15
1e-15
1e-15
1e-15
1e-15
1e-15
1.96621e-13
1.33264e-08
1.02952e-06
9.3206e-06
4.24925e-05
0.000149672
0.000467813
0.00134053
0.00372345
0.0103828
0.0333539
0.18066
1.49487
11.0181
57.5514
224.885
601.143
1072.93
1535.32
1945.45
2267.61
2502.23
2657.35
2736.78
2737.22
2649.75
2461.95
2159.95
1743.85
1235.17
718.839
328.143
114.12
27.8944
4.68462
8.47297
1e-15
1e-15
1e-15
1e-15
1e-15
1e-15
1e-15
1e-15
1e-15
1e-15
1e-15
1e-15
1e-15
1.09643e-15
1.50537e-15
2.43603e-15
5.35713e-15
2.21077e-14
3.55601e-13
1e-15
1e-15
1e-15
1e-15
1e-15
1e-15
1e-15
1e-15
1e-15
1e-15
1.2435e-15
2.02224e-10
1.54917e-07
2.39782e-06
1.39587e-05
5.37464e-05
0.000178317
0.000535533
0.00154083
0.00440203
0.0133376
0.0564684
0.417527
3.45949
21.9347
99.8761
340.841
763.029
1226.03
1669.02
2044.48
2333.2
2540.86
2675.23
2738.76
2727.69
2631.35
2437.93
2133.39
1717.45
1212.44
703.683
320.648
111.563
27.2896
4.58488
8.30617
1e-15
1e-15
1e-15
1e-15
1e-15
1e-15
1e-15
1e-15
1e-15
1e-15
1e-15
1e-15
1e-15
1.09643e-15
1.50537e-15
2.43603e-15
5.35713e-15
2.21077e-14
3.55601e-13
1e-15
1e-15
1e-15
1e-15
1e-15
1e-15
1e-15
1e-15
1e-15
1e-15
1e-15
6.62595e-13
1.18763e-08
5.14755e-07
4.17281e-06
1.83885e-05
6.51193e-05
0.000205833
0.000613636
0.00180766
0.00545163
0.0195486
0.116928
0.995802
7.48767
40.8288
165.051
479.962
921.969
1372.99
1790.56
2131.41
2389.42
2572.91
2688.66
2738.4
2716.42
2612.34
2413.88
2106.57
1691.34
1190.41
688.864
313.629
109.14
26.6927
4.48904
8.14634
1e-15
1e-15
1e-15
1e-15
1e-15
1e-15
1e-15
1e-15
1e-15
1e-15
1e-15
1e-15
1e-15
1.09643e-15
1.50537e-15
2.43603e-15
5.35713e-15
2.21077e-14
3.55601e-13
1e-15
1e-15
1e-15
1e-15
1e-15
1e-15
1e-15
1e-15
1e-15
1e-15
1e-15
1.80829e-15
2.83905e-10
8.5313e-08
1.08373e-06
5.91818e-06
2.2774e-05
7.60851e-05
0.000235358
0.000716456
0.00219878
0.00730704
0.0346592
0.272225
2.29379
15.1735
71.7572
258.162
631.328
1074.82
1511.7
1899.5
2207.07
2437.34
2599.16
2698.6
2735.5
2703.88
2592.74
2389.23
2079.83
1665.85
1168.8
674.926
306.967
106.75
26.1214
4.39667
7.99077
1e-15
1e-15
1e-15
1e-15
1e-15
1e-15
1e-15
1e-15
1e-15
1e-15
1e-15
1e-15
1e-15
1.09643e-15
1.50537e-15
2.43603e-15
5.35713e-15
2.21077e-14
3.55601e-13
1e-15
1e-15
1e-15
1e-15
1e-15
1e-15
1e-15
1e-15
1e-15
1e-15
1e-15
1e-15
1.41652e-12
8.1663e-09
2.35849e-07
1.75894e-06
7.57894e-06
2.70289e-05
8.70888e-05
0.000273726
0.000861458
0.00281362
0.011219
0.0737779
0.64628
5.02509
28.7465
120.559
377.606
785.095
1221.35
1640.92
1995.95
2272.67
2477.92
2620.62
2705.11
2730.57
2690.12
2572.13
2364.35
2053.52
1640.74
1148.35
661.638
300.389
104.462
25.5699
4.30563
7.83879
1e-15
1e-15
1e-15
1e-15
1e-15
1e-15
1e-15
1e-15
1e-15
1e-15
1e-15
1e-15
1e-15
1.09643e-15
1.50537e-15
2.43603e-15
5.35713e-15
2.21077e-14
3.55601e-13
1e-15
1e-15
1e-15
1e-15
1e-15
1e-15
1e-15
1e-15
1e-15
1e-15
1e-15
1e-15
2.86111e-15
2.82189e-10
4.07732e-08
4.58488e-07
2.39565e-06
9.17894e-06
3.11092e-05
0.000100867
0.000326037
0.0010762
0.00391815
0.0207893
0.172641
1.49852
10.3571
51.3747
193.311
515.401
936.395
1363.28
1757.97
2080.9
2329.25
2512.23
2637.59
2708.71
2723.79
2674.85
2551.05
2339.62
2027.49
1616.81
1128.71
648.494
294.089
102.253
25.0244
4.21767
7.69064
1e-15
1e-15
1e-15
1e-15
1e-15
1e-15
1e-15
1e-15
1e-15
1e-15
1e-15
1e-15
1e-15
1.09643e-15
1.50537e-15
2.43603e-15
5.35713e-15
2.21077e-14
3.55601e-13
1e-15
1e-15
1e-15
1e-15
1e-15
1e-15
1e-15
1e-15
1e-15
1e-15
1e-15
1e-15
1e-15
2.13888e-12
4.50362e-09
1.00362e-07
6.99767e-07
2.98459e-06
1.06905e-05
3.58826e-05
0.000119106
0.000401232
0.00141993
0.00630331
0.0453031
0.412258
3.32201
20.0317
87.6018
292.762
662.134
1082.1
1497.06
1863.19
2155.2
2377.91
2540.83
2650.7
2709.79
2714.99
2658.67
2529.72
2314.97
2002.52
1593.63
1109.22
635.864
288
100.068
24.4992
4.13019
7.54492
1e-15
1e-15
1e-15
1e-15
1e-15
1e-15
1e-15
1e-15
1e-15
1e-15
1e-15
1e-15
1e-15
1.09643e-15
1.50537e-15
2.43603e-15
5.35713e-15
2.21077e-14
3.55601e-13
1e-15
1e-15
1e-15
1e-15
1e-15
1e-15
1e-15
1e-15
1e-15
1e-15
1e-15
1e-15
1e-15
4.3217e-15
2.0445e-10
1.77496e-08
1.82273e-07
9.20849e-07
3.53471e-06
1.23137e-05
4.20346e-05
0.000144762
0.000514944
0.00205549
0.0121715
0.107339
0.96394
6.96435
36.4904
143.414
415.192
809.423
1223.99
1621.45
1956.54
2219.86
2419.48
2564.45
2660.44
2708.27
2704.73
2641.78
2508.2
2291.16
1978.11
1570.53
1090.4
623.617
281.974
97.9651
23.9737
4.04244
7.40274
1e-15
1e-15
1e-15
1e-15
1e-15
1e-15
1e-15
1e-15
1e-15
1e-15
1e-15
1e-15
1e-15
1.09643e-15
1.50537e-15
2.43603e-15
5.35713e-15
2.21077e-14
3.55601e-13
1e-15
1e-15
1e-15
1e-15
1e-15
1e-15
1e-15
1e-15
1e-15
1e-15
1e-15
1e-15
1e-15
1e-15
2.23143e-12
2.14723e-09
3.99715e-08
2.6418e-07
1.11972e-06
4.0806e-06
1.43285e-05
5.04958e-05
0.000182847
0.000699573
0.0034677
0.0272361
0.258651
2.15937
13.7551
63.2809
224.149
551.86
953.972
1360.7
1733.96
2038.8
2275.92
2454.79
2583.72
2666.89
2704.67
2693.2
2624.35
2487.2
2267.66
1953.69
1548.11
1072.05
611.479
276.168
95.8605
23.4437
3.95755
7.26457
1e-15
1e-15
1e-15
1e-15
1e-15
1e-15
1e-15
1e-15
1e-15
1e-15
1e-15
1e-15
1e-15
1.09643e-15
1.50537e-15
2.43603e-15
5.35713e-15
2.21077e-14
3.55601e-13
1e-15
1e-15
1e-15
1e-15
1e-15
1e-15
1e-15
1e-15
1e-15
1e-15
1e-15
1e-15
1e-15
1e-15
5.38185e-15
1.18687e-10
7.1064e-09
6.8435e-08
3.36899e-07
1.30486e-06
4.71857e-06
1.70367e-05
6.29972e-05
0.000240055
0.00105663
0.00698281
0.0655205
0.608667
4.60084
25.6247
105.771
329.759
693.753
1094.03
1489.76
1834.85
2110.98
2324.29
2484.6
2598.89
2670.56
2699.2
2680.71
2607.09
2466.17
2243.97
1929.85
1526.12
1053.82
599.746
270.351
93.7373
22.9322
3.87457
7.12841
1e-15
1e-15
1e-15
1e-15
1e-15
1e-15
1e-15
1e-15
1e-15
1e-15
1e-15
1e-15
1e-15
1.09643e-15
1.50537e-15
2.43603e-15
5.35713e-15
2.21077e-14
3.55601e-13
1e-15
1e-15
1e-15
1e-15
1e-15
1e-15
1e-15
1e-15
1e-15
1e-15
1e-15
1e-15
1e-15
1e-15
1e-15
1.72995e-12
9.067e-10
1.49285e-08
9.48961e-08
4.00837e-07
1.50358e-06
5.56882e-06
2.09923e-05
8.11275e-05
0.000337312
0.00187227
0.0160543
0.158916
1.37824
9.28955
45.5052
169.649
454.044
835.709
1232.04
1608.8
1924.59
2173.97
2365.86
2509.37
2610.5
2671.69
2692.26
2667.98
2589.49
2444.73
2220.71
1906.34
1504.2
1036.11
587.948
264.479
91.6889
22.4315
3.79194
6.99299
1e-15
1e-15
1e-15
1e-15
1e-15
1e-15
1e-15
1e-15
1e-15
1e-15
1e-15
1e-15
1e-15
1.09643e-15
1.50537e-15
2.43603e-15
5.35713e-15
2.21077e-14
3.55601e-13
1e-15
1e-15
1e-15
1e-15
1e-15
1e-15
1e-15
1e-15
1e-15
1e-15
1e-15
1e-15
1e-15
1e-15
1e-15
5.34103e-15
5.83621e-11
2.65235e-09
2.42869e-08
1.1744e-07
4.62938e-07
1.76223e-06
6.76837e-06
2.66722e-05
0.000109372
0.000533152
0.00392618
0.0390735
0.377063
2.98809
17.8198
77.4731
258.079
589.077
974.798
1363.98
1716.64
2003.77
2228.71
2401.26
2529.68
2618.81
2670.78
2684.59
2654.51
2571.19
2423.51
2197.61
1882.83
1482.81
1018.2
576.012
258.809
89.6831
21.9314
3.70997
6.85976
1e-15
1e-15
1e-15
1e-15
1e-15
1e-15
1e-15
1e-15
1e-15
1e-15
1e-15
1e-15
1e-15
1.09643e-15
1.50537e-15
2.43603e-15
5.35713e-15
2.21077e-14
3.55601e-13
1e-15
1e-15
1e-15
1e-15
1e-15
1e-15
1e-15
1e-15
1e-15
1e-15
1e-15
1e-15
1e-15
1e-15
1e-15
1e-15
1.08075e-12
3.52128e-10
5.27526e-09
3.24662e-08
1.37378e-07
5.39163e-07
2.11335e-06
8.4897e-06
3.51371e-05
0.0001594
0.000990697
0.00923083
0.0956755
0.865996
6.19716
32.3981
127.056
368.759
726.897
1111.19
1488.3
1813.15
2073.21
2276
2431.19
2545.84
2624.46
2668.61
2675.79
2640.04
2552.85
2402.21
2174.41
1859.78
1461.03
1000.01
564.452
253.251
87.6799
21.4357
3.62978
6.73057
1e-15
1e-15
1e-15
1e-15
1e-15
1e-15
1e-15
1e-15
1e-15
1e-15
1e-15
1e-15
1e-15
1.09643e-15
1.50537e-15
2.43603e-15
5.35713e-15
2.21077e-14
3.55601e-13
1e-15
1e-15
1e-15
1e-15
1e-15
1e-15
1e-15
1e-15
1e-15
1e-15
1e-15
1e-15
1e-15
1e-15
1e-15
1e-15
4.43051e-15
2.5118e-11
9.29288e-10
8.17588e-09
3.91109e-08
1.59248e-07
6.38661e-07
2.61388e-06
1.1023e-05
4.87202e-05
0.000263401
0.00215303
0.0228136
0.230165
1.91753
12.1959
56.3025
199.361
494.449
863.975
1244.88
1602.03
1898.76
2133.84
2316.66
2456
2558.64
2628.25
2664.88
2665.62
2625.19
2534.2
2380.68
2151.55
1836.51
1438.85
982.306
553.085
247.697
85.6947
20.9516
3.55187
6.59774
1e-15
1e-15
1e-15
1e-15
1e-15
1e-15
1e-15
1e-15
1e-15
1e-15
1e-15
1e-15
1e-15
1.09643e-15
1.50537e-15
2.43603e-15
5.35713e-15
2.21077e-14
3.55601e-13
1e-15
1e-15
1e-15
1e-15
1e-15
1e-15
1e-15
1e-15
1e-15
1e-15
1e-15
1e-15
1e-15
1e-15
1e-15
1e-15
1e-15
5.63974e-13
1.23883e-10
1.752e-09
1.05581e-08
4.5363e-08
1.86786e-07
7.78672e-07
3.35602e-06
1.48409e-05
7.35755e-05
0.000511803
0.00519747
0.0567747
0.537812
4.06131
22.7679
94.3776
295.298
627.012
998.68
1372.31
1704.68
1974.26
2186.61
2351.06
2476.66
2568.91
2630
2659.39
2654.71
2609.78
2515.14
2359.33
2128.4
1812.92
1417.15
964.808
541.705
242.19
83.7562
20.4812
3.47039
6.47408
1e-15
1e-15
1e-15
1e-15
1e-15
1e-15
1e-15
1e-15
1e-15
1e-15
1e-15
1e-15
1e-15
1.09643e-15
1.50537e-15
2.43603e-15
5.35713e-15
2.21077e-14
3.55601e-13
1e-15
1e-15
1e-15
1e-15
1e-15
1e-15
1e-15
1e-15
1e-15
1e-15
1e-15
1e-15
1e-15
1e-15
1e-15
1e-15
1e-15
3.2084e-15
9.47874e-12
3.04857e-10
2.59595e-09
1.24856e-08
5.27793e-08
2.24929e-07
9.8911e-07
4.43407e-06
2.11371e-05
0.000127093
0.0011583
0.0131315
0.138751
1.20972
8.19936
40.5936
152.161
409.922
761.538
1132.25
1491.27
1796.35
2040.82
2231.72
2380.43
2494.02
2576.6
2629.55
2652.75
2642.94
2593.74
2496.09
2337.58
2104.89
1789.74
1395.57
947.234
530.398
236.808
81.8721
19.9868
3.40169
6.28079
1e-15
1e-15
1e-15
1e-15
1e-15
1e-15
1e-15
1e-15
1e-15
1e-15
1e-15
1e-15
1e-15
1.09643e-15
1.50537e-15
2.43603e-15
5.35713e-15
2.21077e-14
3.55601e-13
1e-15
1e-15
1e-15
1e-15
1e-15
1e-15
1e-15
1e-15
1e-15
1e-15
1e-15
1e-15
1e-15
1e-15
1e-15
1e-15
1e-15
1e-15
2.44535e-13
4.07339e-11
5.52359e-10
3.26779e-09
1.44785e-08
6.30375e-08
2.82012e-07
1.28816e-06
6.09288e-06
3.31405e-05
0.00026001
0.0028867
0.0332191
0.328336
2.61419
15.7924
69.5329
233.151
536.315
894.644
1261.59
1599.43
1877.94
2097.83
2270.81
2405.62
2508.17
2581.6
2627.52
2644.92
2630.27
2577.5
2476.5
2315.37
2081.69
1766.55
1373.83
929.716
519.317
231.572
79.8923
19.5825
3.2743
1e-15
1e-15
1e-15
1e-15
1e-15
1e-15
1e-15
1e-15
1e-15
1e-15
1e-15
1e-15
1e-15
1.09643e-15
1.50537e-15
2.43603e-15
5.35713e-15
2.21077e-14
3.55601e-13
1e-15
1e-15
1e-15
1e-15
1e-15
1e-15
1e-15
1e-15
1e-15
1e-15
1e-15
1e-15
1e-15
1e-15
1e-15
1e-15
1e-15
1e-15
2.12405e-15
3.22253e-12
9.49931e-11
7.86651e-10
3.83298e-09
1.71545e-08
7.78227e-08
3.62326e-07
1.73065e-06
8.93743e-06
6.0391e-05
0.000615232
0.0074392
0.0821368
0.750582
5.43215
28.9396
114.952
335.833
666.588
1026.19
1384.28
1696.82
1948.6
2147.85
2304.7
2426.87
2519.12
2584.54
2623.93
2635.91
2617.18
2560.56
2456.33
2293.32
2058.31
1743.1
1352.09
912.475
508.509
226.072
78.2745
18.7943
1e-15
1e-15
1e-15
1e-15
1e-15
1e-15
1e-15
1e-15
1e-15
1e-15
1e-15
1e-15
1e-15
1.09643e-15
1.50537e-15
2.43603e-15
5.35713e-15
2.21077e-14
3.55601e-13
1e-15
1e-15
1e-15
1e-15
1e-15
1e-15
1e-15
1e-15
1e-15
1e-15
1e-15
1e-15
1e-15
1e-15
1e-15
1e-15
1e-15
1e-15
1e-15
9.22526e-14
1.24774e-11
1.64683e-10
9.67944e-10
4.50978e-09
2.07906e-08
9.8534e-08
4.79244e-07
2.43627e-06
1.4683e-05
0.000130518
0.00157559
0.0190609
0.19724
1.66084
10.7763
50.8489
181.834
453.557
797.483
1156.38
1497.44
1782.83
2010.95
2191.52
2333.83
2444.31
2527.44
2585.51
2618.85
2626.21
2603.22
2542.9
2436.17
2270.94
2034.58
1719.58
1330.6
895.578
497.147
221.569
75.1144
1e-15
1e-15
1e-15
1e-15
1e-15
1e-15
1e-15
1e-15
1e-15
1e-15
1e-15
1e-15
1e-15
1.09643e-15
1.50537e-15
2.43603e-15
5.35713e-15
2.21077e-14
3.55601e-13
1e-15
1e-15
1e-15
1e-15
1e-15
1e-15
1e-15
1e-15
1e-15
1e-15
1e-15
1e-15
1e-15
1e-15
1e-15
1e-15
1e-15
1e-15
1e-15
1.46215e-15
1.00164e-12
2.77768e-11
2.26596e-10
1.13709e-09
5.36581e-09
2.59138e-08
1.28778e-07
6.5795e-07
3.70723e-06
2.83167e-05
0.000320915
0.00412942
0.0478383
0.460279
3.53969
20.3957
86.1073
271.341