/*--------------------------------*- C++ -*----------------------------------*\
| =========                 |                                                 |
| \\      /  F ield         | OpenFOAM: The Open Source CFD Toolbox           |
|  \\    /   O peration     | Version:  v2012                                 |
|   \\  /    A nd           | Website:  www.openfoam.com                      |
|    \\/     M anipulation  |                                                 |
\*---------------------------------------------------------------------------*/
FoamFile
{
    version     2.0;
    format      ascii;
    class       volScalarField;
    location    "1801";
    object      lamda2;
}
// * * * * * * * * * * * * * * * * * * * * * * * * * * * * * * * * * * * * * //

dimensions      [0 0 0 0 0 0 0];


internalField   nonuniform List<scalar> 
8000
(
7.23021e-31
2.39344e-28
2.7235e-30
1.46607e-33
5.322e-29
5.86989e-31
3.68912e-26
1.42678e-33
4.14462e-28
2.84531e-38
3.44877e-26
7.94409e-27
9.24215e-27
1.61168e-28
3.88453e-30
8.56188e-33
2.9669e-26
6.8487e-27
3.57003e-27
3.66068e-29
3.69384e-31
5.39026e-26
1.67095e-32
1.59557e-25
5.93631e-27
7.87578e-28
7.95693e-28
2.85439e-30
6.80523e-32
4.63982e-26
6.97014e-26
4.95597e-26
5.15618e-27
6.86694e-28
2.72966e-29
4.35771e-30
5.16548e-26
6.40805e-34
1.59525e-25
1.49986e-26
7.6382e-26
4.47178e-27
6.02574e-28
2.35157e-29
9.34623e-31
1.84928e-31
1.77192e-25
2.01878e-26
3.40687e-26
5.1902e-26
1.03358e-25
3.90564e-27
5.36846e-28
5.26718e-36
1.99989e-31
1.58705e-25
4.56091e-32
3.78589e-26
1.73679e-26
7.37459e-25
1.00944e-25
2.27983e-32
3.43573e-27
1.86092e-27
3.38619e-37
6.86841e-31
2.09129e-31
1.36078e-25
2.32966e-31
1.31467e-25
2.39373e-25
2.29108e-25
8.74109e-26
1.24921e-26
3.02835e-27
3.9942e-28
1.33411e-28
5.89564e-31
1.07837e-25
2.26885e-25
2.09054e-30
2.33759e-25
2.82847e-26
5.16684e-26
2.22135e-26
2.09299e-32
1.09617e-26
2.3968e-26
3.44225e-28
7.95473e-36
1.26116e-31
6.95869e-25
9.28915e-26
4.85416e-26
1.00836e-25
1.23632e-31
9.76005e-26
1.11676e-26
7.6754e-26
2.95209e-26
2.16761e-26
2.31677e-27
1.18183e-27
9.80786e-29
1.2517e-40
6.20641e-25
1.49561e-25
8.02895e-26
9.03866e-31
8.68712e-26
3.91249e-25
5.36479e-31
3.84792e-26
6.67738e-26
5.81204e-26
8.49073e-27
7.41643e-33
1.01593e-27
9.32129e-30
9.30636e-32
9.54924e-24
9.52208e-25
1.27706e-25
6.86963e-26
7.13132e-31
6.71087e-25
6.17496e-33
7.32563e-26
7.56052e-32
1.44301e-26
2.26974e-26
7.45957e-27
1.71443e-27
1.58613e-35
8.01289e-30
3.18671e-31
4.90941e-17
3.61105e-23
2.42627e-29
4.43245e-25
2.35586e-25
1.23501e-25
2.44378e-31
3.24478e-26
6.34041e-26
2.93403e-26
1.14237e-25
2.00095e-26
1.44847e-26
1.47856e-27
1.86397e-28
1.09934e-28
5.12259e-38
2.82304e-12
1.31094e-16
7.19649e-23
3.9867e-25
8.57831e-25
5.04318e-26
4.28641e-25
5.49736e-26
3.72876e-34
1.37841e-26
6.47512e-27
4.4968e-26
4.41631e-27
1.39806e-27
2.43277e-33
1.60347e-28
5.89567e-30
5.84932e-32
0.000106611
1.29866e-11
2.4326e-17
1.0923e-22
1.53429e-25
8.0764e-26
3.96085e-25
1.24381e-30
4.81657e-26
2.18008e-31
1.07562e-25
8.97772e-26
9.79251e-27
2.3583e-32
1.90688e-26
4.34625e-27
5.48128e-28
4.55061e-29
2.01298e-31
0.0119826
1.12509e-06
2.17125e-11
2.1037e-18
7.64274e-23
1.31499e-25
2.82927e-25
1.52606e-25
7.95016e-26
4.18269e-26
2.12692e-26
1.72278e-32
4.97204e-27
8.62267e-27
3.27819e-27
1.02694e-27
9.33376e-28
1.82201e-34
4.35672e-30
3.9833e-38
0.200223
0.0947856
1.48144e-05
7.46664e-12
1.067e-21
6.41171e-23
1.13226e-25
2.45134e-25
1.95934e-31
1.56706e-25
1.97368e-31
2.65467e-31
1.78928e-32
1.08946e-25
7.42041e-27
1.12398e-26
7.88548e-27
8.02353e-28
1.01415e-28
3.68429e-30
1.47715e-31
0.399423
0.166676
0.0133211
1.22926e-05
1.03438e-12
4.48551e-19
5.41038e-23
2.31066e-26
9.68122e-31
1.30924e-30
3.93231e-34
3.1345e-26
2.50386e-31
3.2825e-26
1.51077e-26
6.52782e-27
2.4057e-27
3.68609e-26
6.16642e-27
8.74823e-29
1.4982e-36
3.16931e-32
0.461258
0.18528
0.168133
0.00454772
1.1174e-05
7.84996e-13
7.05996e-19
2.9154e-23
1.89877e-25
4.50561e-30
2.41699e-26
1.19565e-25
2.78616e-26
5.92823e-31
6.40401e-26
1.69536e-32
2.21349e-26
7.44448e-26
6.42137e-28
9.43617e-27
1.18989e-27
2.4665e-29
1.08732e-31
0.437469
0.178549
0.342742
0.0967637
0.00240739
5.79339e-06
5.31157e-13
6.34282e-19
2.40587e-23
1.79289e-30
1.57611e-25
2.1681e-26
4.7088e-26
2.46287e-26
9.36039e-32
5.48848e-26
4.49541e-26
4.75276e-27
1.77968e-27
1.9893e-26
4.54034e-27
1.5911e-27
2.12012e-29
2.33458e-32
0.394268
0.146495
0.396078
0.306779
0.0606354
0.00153637
3.168e-06
3.54073e-13
4.27984e-19
1.44911e-23
6.23633e-26
1.36912e-31
5.60021e-31
2.29007e-31
8.61943e-26
4.37879e-26
8.44538e-26
6.02691e-32
4.02507e-27
3.8117e-26
1.18498e-26
3.89481e-27
2.18152e-28
2.02058e-30
2.00786e-32
0.34952
0.091423
0.377521
0.445907
0.242911
0.0420098
0.00108126
1.42884e-06
2.22852e-13
2.56915e-19
8.1157e-24
5.52707e-26
3.00218e-30
1.77836e-30
8.9388e-27
9.91186e-31
3.75593e-26
7.26527e-26
3.29779e-26
8.6859e-26
5.17816e-27
4.08985e-28
3.67253e-28
4.69224e-29
2.75586e-29
1.71873e-32
0.298546
0.0311795
0.322407
0.488813
0.417987
0.192213
0.0314801
0.000821626
6.03471e-07
1.36558e-13
1.50094e-19
6.82714e-24
4.73394e-26
5.75243e-31
2.34588e-25
7.81695e-27
5.29806e-32
3.24281e-26
3.88292e-27
2.81482e-26
7.46706e-26
4.48739e-27
1.70714e-33
4.75244e-33
1.5288e-35
5.88269e-30
1.47186e-32
0.235542
0.000655578
0.246564
0.479947
0.506017
0.3722
0.158234
0.0249425
0.000657353
2.40163e-07
7.84028e-14
8.74841e-20
2.17201e-24
4.19636e-26
9.44257e-26
5.07212e-26
6.61318e-27
5.52919e-26
6.95049e-27
5.47408e-33
2.44411e-26
2.56495e-27
4.69561e-26
3.1006e-33
5.70344e-33
5.52251e-28
5.07631e-30
1.48136e-37
0.163025
0.00212817
0.164179
0.422447
0.536865
0.48445
0.333993
0.134183
0.0205576
0.000548665
8.97955e-08
4.15571e-14
4.80183e-20
5.80957e-25
8.31439e-26
1.58219e-30
1.08196e-26
5.999e-27
4.78135e-26
6.06868e-27
2.79855e-27
1.27237e-27
1.96792e-26
4.03931e-26
4.11491e-27
9.45444e-28
1.17962e-28
4.63064e-36
1.08547e-32
0.0973447
2.72232e-05
0.0806508
0.333052
0.535024
0.536782
0.459555
0.30282
0.116369
0.0175201
0.000476332
2.89286e-08
1.99675e-14
2.43493e-20
4.37445e-25
7.37803e-26
6.91314e-26
3.73236e-26
2.0138e-26
1.00712e-26
4.61351e-26
9.78721e-27
1.78618e-26
3.01989e-26
6.37752e-27
1.7407e-32
8.00136e-28
1.01943e-28
9.20246e-31
3.70979e-32
0.0479153
0.00223913
0.017407
0.222329
0.483934
0.561828
0.523866
0.436589
0.277048
0.103054
0.0154133
0.000431869
8.50341e-09
8.67252e-15
1.14522e-20
5.37375e-25
2.76725e-26
2.61119e-30
7.41275e-26
1.70978e-26
2.21581e-25
4.48027e-27
2.0254e-27
6.11349e-26
1.64127e-27
2.37192e-27
1.91944e-28
1.73288e-28
1.95556e-28
3.18988e-30
3.18342e-32
0.019112
0.0839097
0.0019491
0.114274
0.383264
0.561983
0.556441
0.509938
0.415914
0.256052
0.0932037
0.0140916
0.000410727
2.03941e-09
3.39181e-15
4.91129e-21
1.68076e-25
2.36874e-26
1.34567e-26
7.12853e-27
5.93231e-26
2.95063e-31
3.72739e-27
6.46052e-26
7.74043e-33
1.37775e-27
1.5349e-31
4.04494e-27
1.33596e-27
7.44418e-29
2.76457e-30
2.73995e-32
0.00614614
0.14159
0.00907932
0.0453811
0.253389
0.511354
0.580782
0.546609
0.497192
0.397801
0.23936
0.0867989
0.0133748
0.000414666
4.75398e-10
1.17383e-15
1.88378e-21
3.04969e-25
5.04523e-27
1.12775e-26
6.04038e-27
2.18142e-31
6.36713e-27
5.19646e-26
2.91302e-31
6.33119e-27
9.08231e-33
4.35956e-28
1.37554e-28
1.26508e-28
6.36935e-29
5.84172e-31
2.33709e-32
0.0016117
0.135845
0.00680448
0.0150662
0.125184
0.401083
0.575617
0.574842
0.537511
0.485807
0.382473
0.228008
0.0838176
0.012738
0.000435604
1.16588e-10
3.55734e-16
6.39786e-22
2.43304e-26
4.38557e-27
1.01187e-26
9.68492e-33
2.75452e-27
5.68612e-27
1.10618e-26
2.12965e-26
5.43921e-27
1.56398e-32
3.7287e-28
1.0671e-27
4.33176e-28
1.34208e-29
5.02914e-31
5.01587e-33
0.000345624
0.0960916
0.0650067
0.000154434
0.0335949
0.257898
0.515646
0.593511
0.563229
0.530179
0.47593
0.371609
0.223394
0.0825276
0.0133926
0.000471185
2.47716e-11
9.4017e-17
1.95897e-22
7.52225e-27
6.40042e-33
7.90288e-27
2.47475e-31
2.2465e-27
4.30593e-26
9.64877e-27
1.12725e-27
8.27823e-27
3.49755e-27
1.3134e-27
1.64535e-27
9.24065e-29
6.45542e-34
3.93405e-30
4.31691e-33
6.11216e-05
0.0506071
0.0230887
0.00174723
0.00468161
0.112802
0.387201
0.577227
0.590405
0.554433
0.524525
0.468823
0.367676
0.223335
0.0862821
0.0144236
0.000503042
4.59686e-12
2.15487e-17
5.41296e-23
3.92775e-26
2.9538e-26
7.16356e-27
3.67747e-27
1.74277e-26
1.65022e-26
2.08853e-27
4.27614e-34
6.86617e-36
3.02295e-27
1.14219e-27
8.75567e-29
3.19922e-28
9.89771e-30
1.46399e-30
3.70243e-33
8.92206e-06
0.0190976
0.0297836
0.00551353
0.00264257
0.01277
0.22574
0.498452
0.599147
0.581281
0.549158
0.520834
0.466268
0.369051
0.230839
0.0917049
0.0153282
0.000526059
7.17738e-13
4.24974e-18
1.32149e-23
1.78719e-27
1.89287e-30
2.42841e-26
5.16244e-26
1.71395e-27
3.56352e-27
1.72279e-27
8.25394e-28
6.14086e-27
2.58283e-27
1.37147e-31
7.45187e-29
2.04906e-34
3.46661e-29
5.0942e-30
3.1843e-33
1.07444e-06
0.00511793
0.0881684
0.0790669
0.00137779
0.000597879
0.0726836
0.344496
0.566461
0.599802
0.571804
0.546137
0.519276
0.467464
0.376225
0.240681
0.0962306
0.0159362
0.000538719
9.2872e-14
7.12606e-19
2.84217e-24
7.32532e-27
2.21509e-26
5.44999e-27
2.96568e-27
5.8279e-27
3.40155e-32
4.13392e-32
1.15057e-26
2.94631e-27
2.17763e-27
1.38356e-32
2.52975e-28
2.35596e-28
5.0514e-35
4.3784e-30
6.71781e-38
1.05651e-07
0.000997869
0.0860035
0.134071
0.00027382
0.00135579
0.00488917
0.164242
0.459182
0.595308
0.592525
0.564056
0.544343
0.519448
0.470926
0.384781
0.248299
0.0990314
0.0162618
0.000544211
9.75082e-15
1.00477e-19
3.6166e-25
2.37964e-29
1.954e-27
1.78198e-30
2.16976e-26
1.17035e-26
2.19508e-32
5.52072e-31
6.27816e-28
1.13287e-27
4.58212e-28
2.83898e-27
9.80759e-33
5.08404e-29
5.68921e-29
2.11761e-30
2.09811e-32
8.29614e-09
0.000146252
0.0514406
0.0742207
0.000200378
0.00238697
0.000751411
0.0373301
0.271718
0.539062
0.600434
0.583317
0.558034
0.541515
0.519341
0.474598
0.390729
0.252561
0.100469
0.016397
0.000542783
8.10679e-16
1.17274e-20
9.62299e-26
2.82497e-26
1.70614e-27
1.57505e-26
2.2053e-27
1.04217e-27
2.12199e-27
1.04141e-27
1.56734e-31
9.32854e-28
3.151e-32
6.09824e-28
4.27925e-28
4.3536e-29
1.55769e-34
3.19866e-30
7.31248e-38
5.0701e-10
1.64404e-05
0.0194912
0.000149042
0.0166118
0.00134981
0.00300323
0.00168991
0.089129
0.391513
0.579412
0.594368
0.573258
0.550572
0.539809
0.518411
0.476366
0.39353
0.254629
0.101007
0.0163492
0.000536866
5.18063e-17
1.10865e-21
5.49277e-28
1.05556e-26
6.32074e-27
1.59399e-30
1.57066e-26
3.80838e-27
7.41385e-27
9.92491e-28
1.14867e-26
1.85501e-27
3.58025e-28
2.09116e-27
1.08116e-32
1.47624e-35
7.48804e-29
6.80082e-31
6.86871e-33
2.33411e-11
1.42134e-06
0.00464555
0.045407
0.0671248
0.0141306
0.00863725
0.000152399
0.0124841
0.179933
0.488298
0.590781
0.582888
0.562571
0.545943
0.535176
0.516224
0.476475
0.394817
0.255209
0.100696
0.0161805
0.000528003
2.45671e-18
8.03916e-23
6.53023e-27
1.00011e-26
5.42578e-27
1.15889e-26
2.93264e-31
8.52679e-28
8.59327e-31
3.37872e-27
4.19001e-28
1.78418e-31
3.04067e-28
1.15534e-28
3.17001e-32
3.092e-29
6.73266e-36
2.38446e-30
1.22849e-38
7.78485e-13
9.32608e-08
0.000721589
0.0554637
0.085466
0.00290486
0.00314259
0.00182264
0.0014769
0.0366971
0.293397
0.546031
0.585663
0.571006
0.552469
0.539496
0.530878
0.514275
0.476495
0.394761
0.254448
0.0998285
0.0159316
0.000517075
8.2268e-20
4.73363e-24
2.00078e-26
2.48271e-27
4.43111e-27
2.69368e-27
3.7699e-33
1.55398e-33
5.56471e-27
5.54595e-31
5.27086e-27
3.79616e-27
2.571e-28
9.77109e-29
3.10188e-29
2.45969e-28
3.12649e-29
3.25836e-35
1.25188e-33
1.79305e-14
4.50801e-09
7.678e-05
0.0308082
0.0364339
0.00219454
0.000613325
0.00406472
2.27635e-05
0.00205375
0.0880597
0.405985
0.567943
0.575424
0.558452
0.546153
0.534688
0.527928
0.51286
0.475599
0.393724
0.252836
0.0985749
0.0156336
0.000505312
1.84328e-21
3.11245e-25
4.82012e-27
4.29486e-29
8.71895e-28
1.7952e-27
1.11598e-27
5.15068e-27
2.03127e-31
2.37446e-27
1.09743e-27
1.11645e-28
8.54716e-28
8.34307e-29
2.29865e-28
2.09482e-28
2.91231e-30
1.04891e-31
1.06574e-33
2.68978e-16
1.54305e-10
5.76458e-06
0.00920398
0.00344493
0.0205209
0.0101709
0.00487453
0.000426578
0.000242739
0.00936872
0.176482
0.485194
0.570485
0.563346
0.551236
0.541625
0.53139
0.525782
0.51133
0.474473
0.39205
0.250578
0.0971139
0.0153122
0.000494003
2.27156e-23
1.89208e-26
1.7742e-27
1.80764e-30
3.50875e-30
1.70472e-30
4.08302e-27
2.13324e-27
1.03179e-27
4.58625e-27
2.4161e-28
1.7563e-27
1.84013e-28
4.26755e-32
6.31543e-33
1.98516e-29
7.75849e-35
9.98303e-32
3.69822e-33
2.45385e-18
3.55409e-12
3.05546e-07
0.00153929
0.0355028
0.0510313
0.0122776
0.00217537
0.000346664
8.83504e-05
0.00047519
0.0282613
0.287361
0.528999
0.564492
0.552249
0.547964
0.538277
0.529426
0.524236
0.510119
0.473078
0.389825
0.248018
0.0955318
0.0150012
0.000482669
1.26873e-25
5.39795e-27
4.72177e-29
5.1378e-27
1.71434e-30
1.797e-27
8.41199e-28
3.90742e-28
7.9968e-27
4.00152e-27
3.37558e-27
8.53398e-29
6.33376e-28
5.70008e-29
1.87752e-29
1.67713e-29
8.6008e-30
7.85221e-32
7.96663e-34
1.20427e-20
5.17303e-14
1.11609e-08
0.00015442
0.0300046
0.0431779
0.0011745
0.000525126
0.000302917
3.14282e-05
1.23966e-06
0.00159104
0.0712091
0.390212
0.546224
0.554476
0.547233
0.545417
0.535742
0.527932
0.523141
0.508904
0.471391
0.387385
0.24524
0.0939888
0.0146864
0.000470739
1.26358e-25
1.05711e-28
3.0221e-26
2.78334e-31
5.17535e-27
5.02895e-27
2.79267e-27
1.38337e-27
3.06577e-27
3.68413e-28
4.07877e-31
6.5532e-35
5.96451e-33
5.00824e-29
1.47746e-28
6.04568e-29
1.83455e-30
2.77872e-31
6.988e-34
4.21441e-23
4.40519e-16
2.67765e-10
9.81994e-06
0.010558
0.00138316
0.00502572
0.00504414
0.0027888
0.000262951
9.5858e-05
2.92046e-05
0.0038391
0.155472
0.464489
0.54898
0.545992
0.544709
0.542925
0.533408
0.526857
0.522222
0.507606
0.469636
0.384743
0.242508
0.0924093
0.0143575
0.000459066
1.04987e-25
1.17361e-26
7.4087e-29
3.40979e-27
8.37852e-27
1.04913e-27
5.34079e-27
3.60781e-28
5.77577e-27
3.30578e-28
1.44039e-28
2.88978e-28
2.96159e-32
4.29481e-33
2.17892e-28
2.50871e-33
1.64352e-30
1.14893e-35
5.78259e-34
2.77155e-25
2.02236e-18
3.96244e-12
4.03191e-07
0.00178633
0.0202222
0.0276594
0.0171998
0.00261802
0.00030053
8.22398e-05
0.000113112
0.000255096
0.0170278
0.259765
0.506269
0.545072
0.541187
0.543429
0.540204
0.531548
0.526123
0.521362
0.506361
0.467759
0.382132
0.23968
0.0907637
0.0140346
0.000447748
8.00725e-26
3.10724e-27
1.54613e-26
3.44656e-27
1.85118e-27
4.02869e-27
2.13718e-27
6.89305e-27
6.2023e-28
1.77329e-33
1.23685e-28
6.49016e-29
1.94847e-32
6.05592e-28
1.20512e-29
1.08135e-29
1.35472e-30
4.50721e-31
5.03132e-34
1.66561e-24
4.90081e-21
3.34027e-14
1.04423e-08
0.000159245
0.0242784
0.0349774
0.00109449
0.00131207
5.86327e-06
0.000902195
4.03658e-07
7.3044e-05
3.9041e-06
0.0549173
0.364787
0.526322
0.53988
0.539488
0.54134
0.537817
0.530052
0.525558
0.520603
0.505063
0.465902
0.379404
0.236734
0.0891384
0.0137199
0.000436923
1.22648e-26
2.26241e-27
4.29871e-27
4.24468e-30
3.61877e-30
7.60515e-28
7.1348e-27
2.17301e-27
4.03218e-31
6.46619e-31
1.07903e-31
5.01913e-29
9.53436e-29
1.33941e-28
9.16307e-29
3.7903e-29
4.6617e-30
7.82027e-36
4.27902e-34
8.88063e-26
3.86318e-23
1.46179e-16
1.61339e-10
8.07045e-06
0.00888404
0.00307627
0.00155098
0.00326777
0.00273786
0.00126816
0.000524215
0.000129539
8.39811e-07
0.00287092
0.124734
0.444438
0.533179
0.53514
0.538458
0.539406
0.535634
0.528796
0.525139
0.519808
0.503786
0.463969
0.376568
0.233807
0.0875387
0.0134173
0.000426172
5.87948e-28
4.65922e-27
2.16334e-30
2.31977e-31
2.83515e-27
6.42669e-27
1.52214e-27
2.35002e-28
4.11203e-28
8.31046e-28
1.04153e-28
4.09181e-28
7.04477e-29
1.13787e-28
7.3944e-34
8.02123e-30
1.9548e-34
3.81518e-32
3.76951e-34
1.84532e-27
4.07997e-24
3.13983e-19
1.37561e-12
2.38749e-07
0.00135128
0.0130102
0.0192169
0.0122877
0.00210536
0.000192835
0.00132107
0.000133125
0.000122627
0.000381019
0.0116322
0.241785
0.491743
0.532483
0.533692
0.537975
0.537388
0.53362
0.527837
0.524704
0.519009
0.502476
0.462054
0.37374
0.230894
0.0859915
0.0131161
0.00041583
4.15653e-26
8.11313e-28
8.6528e-28
5.33286e-28
4.57174e-27
5.72309e-28
3.68382e-28
1.7265e-28
1.47069e-31
6.19575e-32
3.28873e-28
6.17947e-28
6.18865e-29
9.27917e-29
7.80321e-30
2.30394e-33
7.67778e-30
3.25601e-32
1.2465e-33
2.7652e-26
2.02359e-24
1.25348e-21
5.87355e-15
4.00815e-09
9.66919e-05
0.0172366
0.0250029
0.000662917
0.00172802
2.83409e-05
0.00109363
0.000870633
5.68176e-06
0.000182458
0.000366819
0.0421779
0.358853
0.514932
0.53033
0.533862
0.536635
0.535404
0.531961
0.527005
0.52426
0.518166
0.501332
0.460153
0.3709
0.228055
0.0844425
0.012827
0.000406304
8.25651e-27
1.51435e-27
3.18335e-27
3.99612e-27
2.23484e-27
4.19168e-31
2.59828e-28
5.60469e-28
1.43242e-31
1.75923e-28
6.94471e-29
9.23052e-32
5.81836e-29
1.01692e-32
5.7776e-29
2.36373e-29
3.00599e-30
2.81278e-32
8.54139e-39
2.16938e-26
2.03149e-24
3.40904e-23
1.10709e-17
3.56392e-11
3.54653e-06
0.00555454
0.000852423
0.00163408
0.00193734
0.00288646
0.000772705
0.00103996
0.000449181
3.7141e-07
0.000171577
0.00117649
0.129306
0.440965
0.523384
0.528603
0.534101
0.534971
0.533694
0.530514
0.526282
0.523755
0.517416
0.500216
0.458235
0.368112
0.22519
0.0829512
0.0125586
0.000397038
3.03675e-27
5.60325e-29
5.99193e-27
4.30393e-28
1.75375e-28
4.65633e-28
1.31792e-30
9.28219e-31
2.35361e-32
5.20901e-28
1.23453e-31
3.20466e-29
4.43122e-29
1.59199e-28
9.24017e-29
4.95122e-30
6.07668e-31
2.4564e-32
5.32076e-38
4.64901e-27
2.64482e-24
1.10834e-22
2.09597e-20
1.52506e-13
6.81366e-08
0.000659575
0.0114367
0.0152398
0.0107324
0.00194848
3.58076e-05
0.000905931
0.00067677
0.000301766
3.52192e-06
0.000121209
0.00971417
0.258743
0.487271
0.524742
0.529322
0.53386
0.533243
0.532161
0.529263
0.52558
0.523224
0.516686
0.499096
0.456346
0.365279
0.222417
0.0815521
0.0122966
0.000388236
3.37621e-27
1.03802e-26
2.35037e-27
2.77184e-31
5.39437e-30
4.29736e-28
2.70105e-28
1.83019e-32
2.35918e-28
1.0404e-28
2.99034e-31
9.7308e-29
5.14074e-32
6.23507e-29
3.8074e-32
4.17678e-30
2.33954e-30
1.67005e-37
5.80172e-38
2.43839e-25
3.49699e-25
1.09523e-22
3.75391e-24
2.7421e-16
6.56868e-10
3.35893e-05
0.011184
0.014853
0.00111658
0.000809031
0.00016272
0.000614154
0.000589125
0.000659724
0.000449866
4.03822e-05
2.36875e-06
0.0534184
0.373895
0.509559
0.524586
0.530452
0.532923
0.531507
0.530798
0.528097
0.524887
0.522697
0.515953
0.497995
0.454417
0.362519
0.219785
0.0801765
0.0120475
0.000379825
1.91897e-26
3.19147e-27
1.57453e-30
2.0722e-28
1.97247e-28
3.20431e-28
1.77548e-28
1.47239e-27
1.72852e-28
9.14925e-29
1.09392e-31
1.33293e-31
3.01306e-29
1.30239e-29
3.50523e-29
4.71704e-35
6.63998e-36
1.67312e-32
6.98021e-34
2.90298e-25
2.51633e-25
3.33202e-23
9.11361e-23
1.55064e-19
2.91057e-12
7.95611e-07
0.00259398
9.00853e-05
0.00347526
0.0017183
0.00282746
0.000314806
0.000533328
0.000534532
0.00042512
0.000162804
2.80633e-05
0.00103609
0.161762
0.448459
0.517885
0.525021
0.531385
0.531504
0.529872
0.529487
0.52688
0.524245
0.522166
0.515238
0.496872
0.452525
0.359869
0.217172
0.078865
0.0118083
0.000371649
1.60182e-29
4.95448e-28
5.28295e-28
1.44354e-28
1.41958e-27
2.15777e-30
1.15994e-28
3.66342e-28
1.23888e-30
6.31079e-29
3.74146e-31
1.57806e-28
8.25983e-33
1.0792e-29
1.25809e-29
3.33453e-30
3.64647e-30
1.58774e-32
1.10076e-37
9.7108e-27
8.87886e-26
9.49947e-26
2.79739e-23
3.61449e-20
5.25465e-15
8.7686e-09
0.000206168
0.00954027
0.0117733
0.00638947
0.00179094
5.38872e-06
0.00041609
0.000353563
0.000336092
0.0010995
9.52236e-05
2.69557e-05
0.0158905
0.29397
0.488814
0.520215
0.526963
0.531262
0.529914
0.528261
0.528084
0.525746
0.523651
0.521656
0.51451
0.495767
0.450692
0.357217
0.214668
0.0775941
0.0115755
0.000363929
1.31754e-27
4.18556e-29
9.15693e-32
2.04259e-27
1.45365e-28
2.2063e-27
3.05396e-30
2.931e-28
5.40718e-28
2.4048e-32
3.20047e-31
1.34637e-28
2.39093e-29
8.16772e-30
2.83087e-30
2.67724e-30
3.44615e-31
8.75341e-40
1.18046e-34
1.27774e-27
3.49407e-26
5.12124e-24
6.49708e-23
4.75026e-20
4.23323e-18
4.20116e-11
6.53483e-06
0.00550671
0.00427362
0.00140545
1.16681e-06
0.000609276
0.000267415
0.000277045
0.000364781
0.00096837
0.000540758
0.000100753
8.21179e-06
0.0834054
0.396963
0.507644
0.521221
0.528758
0.530537
0.528142
0.526797
0.526738
0.524722
0.52313
0.521141
0.513795
0.494687
0.448847
0.35466
0.212218
0.0763533
0.0113552
0.000356464
3.08539e-29
8.18308e-29
2.64102e-27
2.00316e-28
1.72845e-27
1.67819e-28
2.13325e-31
5.81206e-28
6.20974e-32
4.82286e-32
5.5589e-32
8.48885e-35
1.68747e-29
7.32079e-29
3.96678e-29
8.04236e-36
1.18301e-30
1.75859e-31
1.10813e-39
6.31995e-27
1.8801e-26
2.27329e-24
2.3424e-22
5.82447e-21
1.50299e-19
8.07528e-14
8.7175e-08
0.000771693
0.00269455
0.00538833
0.00303483
0.00148611
2.87921e-05
0.000270339
0.000168864
0.000334236
0.000593339
0.000646327
1.58511e-05
0.00327949
0.208364
0.459484
0.514792
0.523362
0.53011
0.529047
0.526413
0.52546
0.525484
0.52385
0.522649
0.520642
0.513086
0.4936
0.447058
0.352134
0.209811
0.0751725
0.0111414
0.000349245
6.93166e-28
3.81043e-27
1.47039e-31
1.39443e-27
3.05259e-28
7.31343e-28
6.06481e-31
4.77964e-29
6.30632e-32
5.80019e-29
1.88525e-29
9.96638e-29
7.98031e-29
7.3594e-30
2.07417e-29
2.18048e-30
2.51216e-31
6.78921e-38
4.39151e-38
3.72563e-26
2.45411e-25
7.70045e-25
1.83533e-22
2.26809e-21
1.37451e-19
8.54028e-17
4.73022e-10
3.57975e-05
0.00652155
0.00758958
0.00178523
0.00137362
3.91619e-05
0.000188768
0.000119095
0.000224045
0.000397778
0.000812128
0.00041514
1.33908e-06
0.0346716
0.332778
0.492361
0.517785
0.52608
0.529766
0.527319
0.524777
0.524217
0.524383
0.523093
0.52222
0.52014
0.512377
0.492543
0.445277
0.349636
0.207505
0.0740187
0.0109343
0.000342391
6.17506e-27
1.61702e-28
2.3206e-27
2.98451e-31
1.68018e-31
1.28442e-28
1.77932e-32
1.86697e-30
9.54252e-29
3.29633e-31
8.86945e-29
9.32907e-29
6.4779e-29
5.51137e-30
3.42951e-34
2.31963e-33
4.6463e-35
7.16293e-32
7.89508e-35
1.05646e-26
2.31306e-25
2.42909e-24
2.72356e-23
6.18363e-22
9.07555e-21
3.45981e-18
9.73509e-13
6.17806e-07
0.00177058
1.18425e-05
0.00170075
0.000825491
0.00119341
0.000130605
0.000117033
6.21497e-05
0.000347139
0.000528206
0.000871324
0.000201745
0.000806172
0.1287
0.41999
0.507444
0.519472
0.528138
0.52881
0.525502
0.52322
0.523118
0.523409
0.522457
0.521807
0.519639
0.511689
0.491485
0.443508
0.347225
0.205232
0.0728966
0.010737
0.00033567
9.75834e-29
5.90082e-28
4.68766e-30
9.71212e-28
1.6738e-28
6.85251e-31
2.60005e-28
3.11701e-28
6.31944e-29
3.70516e-29
5.52549e-32
1.13475e-31
1.31161e-29
5.14879e-30
1.43657e-29
1.4849e-30
1.93216e-31
1.80203e-37
6.50801e-35
7.61648e-28
7.62299e-26
1.43369e-24
6.06667e-25
7.80915e-23
9.93482e-22
7.96578e-19
1.35579e-15
3.98767e-09
0.000126165
0.00559445
0.00609921
0.00534311
0.000747328
1.61128e-07
0.000126271
1.19195e-05
0.000264286
0.000237079
0.000736373
0.000722642
0.000173639
0.012171
0.259161
0.470397
0.51327
0.522758
0.529244
0.52726
0.523658
0.521814
0.522138
0.522577
0.521889
0.52141
0.519162
0.510999
0.490433
0.441789
0.344831
0.203008
0.0718204
0.010543
0.000329297
8.26457e-29
3.56882e-28
1.47992e-28
3.66626e-28
2.054e-30
1.28564e-31
2.49275e-28
3.10946e-29
7.75054e-29
3.36228e-29
6.81548e-32
8.50045e-30
1.04164e-29
1.75954e-29
1.53326e-30
1.23967e-30
3.58453e-34
1.44797e-35
5.8159e-35
1.58249e-27
7.63861e-26
1.10729e-24
1.43049e-24
8.47216e-23
7.44451e-22
2.94562e-19
1.54402e-17
8.94686e-12
2.9268e-06
0.00316618
0.00222732
0.00117483
6.73086e-05
0.00020209
0.000127478
8.89244e-06
0.000141843
9.42672e-05
0.000473363
0.000750372
0.000599056
0.000461234
0.0683539
0.368949
0.496364
0.516392
0.525958
0.528898
0.525388
0.521913
0.520552
0.521293
0.521827
0.521379
0.521057
0.518681
0.510317
0.489406
0.440072
0.342473
0.200859
0.070758
0.0103592
0.00032338
7.34831e-28
7.63145e-28
2.13251e-28
2.25202e-28
3.90278e-28
1.44263e-28
2.0656e-28
4.55465e-29
6.45101e-29
2.8092e-29
1.18074e-29
5.8936e-30
4.18142e-29
4.65684e-30
1.56455e-33
1.17306e-30
1.32913e-31
4.44011e-33
4.98368e-35
5.91327e-28
2.7419e-26
1.98341e-24
5.35872e-25
2.02362e-22
5.69936e-22
3.3167e-20
1.05543e-18
6.35237e-15
2.32085e-08
0.000356242
0.0018198
0.00321795
0.00166066
0.000891913
5.15253e-05
5.88968e-05
3.45677e-05
4.3508e-05
0.000277358
0.000493646
0.000786782
0.000415699
0.00431383
0.182537
0.440233
0.507767
0.519286
0.528373
0.527676
0.523418
0.520307
0.519466
0.520513
0.521148
0.520958
0.520709
0.51821
0.509651
0.488378
0.438372
0.340178
0.198723
0.0697485
0.0101877
0.000317564
4.69372e-28
9.66506e-29
5.48563e-30
7.21931e-29
3.98271e-28
7.25594e-29
2.42107e-32
1.83146e-28
5.08292e-29
9.8365e-29
1.12684e-31
5.4404e-30
8.54229e-30
3.36679e-30
3.93339e-30
8.77702e-31
1.14953e-31
4.81987e-33
4.80528e-35
8.71655e-28
1.91221e-26
1.08593e-24
1.16488e-23
1.08987e-22
1.78603e-21
5.71533e-21
7.19678e-22
1.26571e-16
5.87074e-11
1.12878e-05
0.0034247
0.00252993
0.00148703
0.000862038
2.26639e-05
0.000150711
1.16695e-05
4.56212e-05
0.000125441
0.000329845
0.000483631
0.000764732
0.000549948
0.0314092
0.307169
0.479848
0.512842
0.52335
0.52898
0.525921
0.521487
0.518901
0.518483
0.519783
0.520586
0.520574
0.520379
0.51775
0.508987
0.487359
0.436708
0.337883
0.196685
0.0687999
0.0100187
0.000311926
3.39861e-29
2.58376e-31
7.97111e-29
2.15096e-28
3.98147e-29
2.71455e-28
1.58636e-28
8.11695e-29
3.61002e-31
2.97657e-35
7.84633e-29
1.01208e-32
2.30345e-32
2.39187e-30
3.49743e-33
2.50061e-34
9.88746e-32
4.33346e-33
3.46703e-35
6.79667e-29
3.08598e-27
4.0826e-25
6.46354e-24
9.88904e-23
2.88537e-21
1.46793e-22
1.01281e-19
1.46875e-17
2.67518e-14
1.11812e-07
0.000670358
0.00043456
0.00169085
0.000596082
0.000906888
7.12804e-05
4.66018e-05
7.74859e-05
2.99754e-05
0.000213832
0.000236735
0.000665817
0.000704089
0.00198346
0.114298
0.400096
0.499753
0.516105
0.526721
0.52843
0.523886
0.519711
0.517632
0.517574
0.519164
0.520081
0.520234
0.520058
0.517294
0.508332
0.486359
0.435037
0.33568
0.194753
0.0678598
0.00985479
0.000306536
1.50678e-29
3.42235e-28
3.67252e-28
5.00262e-32
1.92716e-34
5.02632e-31
4.14934e-29
8.318e-32
1.41902e-33
1.3604e-28
3.9376e-29
3.80861e-29
3.27103e-31
1.02671e-29
7.01402e-30
7.25752e-31
6.08443e-34
1.35212e-32
4.14906e-38
6.48981e-30
2.33653e-27
2.81886e-26
1.65918e-24
7.58242e-23
3.15043e-21
1.31985e-20
2.43755e-19
2.36467e-18
1.90804e-16
3.34998e-10
3.0249e-05
0.00333018
0.00325781
0.0035136
0.000503492
6.05127e-06
3.10229e-05
0.000105632
2.575e-05
9.84304e-05
0.000117455
0.000369439
0.000665676
0.000566874
0.013567
0.23777
0.457041
0.508474
0.520257
0.529051
0.526858
0.521818
0.518079
0.516467
0.516811
0.518596
0.519637
0.519907
0.519745
0.516876
0.507692
0.485354
0.433422
0.333574
0.192826
0.0669464
0.00969758
0.000301185
9.55029e-29
6.60965e-29
1.82196e-31
2.12741e-28
2.2667e-29
2.5669e-31
2.04622e-29
1.27269e-30
2.77856e-29
8.25929e-31
8.12811e-30
8.57409e-30
5.95976e-33
2.29769e-30
6.73471e-33
2.32773e-34
8.66425e-32
1.12095e-32
2.88595e-35
8.80143e-30
2.1795e-28
2.18798e-27
6.41089e-25
2.69763e-23
1.49096e-21
1.24639e-20
2.34352e-19
6.83399e-19
1.74895e-16
3.20002e-13
3.83708e-07
0.00108565
6.16345e-05
0.00150133
3.3929e-05
0.000253336
3.03672e-05
4.33962e-05
5.54534e-05
6.24943e-05
5.13322e-05
0.000172588
0.00037972
0.000669723
0.00128203
0.0626048
0.349871
0.487849
0.51321
0.524586
0.529001
0.524862
0.519817
0.51657
0.515487
0.516125
0.518084
0.519175
0.519591
0.51951
0.516471
0.507056
0.484377
0.431865
0.331458
0.190945
0.0660653
0.00954118
0.000295984
2.09807e-28
1.59694e-29
3.65263e-28
1.8875e-28
1.66888e-34
5.37716e-29
1.33765e-29
4.71228e-29
5.97458e-33
9.16625e-30
3.51047e-31
2.0133e-30
4.93326e-30
2.01041e-30
3.16458e-32
5.39596e-31
5.18051e-34
2.73004e-33
2.01616e-35
6.51043e-28
1.60841e-34
4.69869e-27
4.06504e-25
5.67251e-25
1.85044e-22
4.93077e-21
2.26466e-19
3.07735e-18
2.28337e-18
1.593e-16
1.38629e-09
6.8325e-05
0.00205267
0.00227284
0.00153707
0.000456066
9.47702e-07
1.08625e-05
7.42734e-05
5.88987e-05
4.7823e-05
8.21248e-05
0.000203764
0.000448611
0.00055418
0.00565548
0.167953
0.426344
0.502716
0.516573
0.52787
0.527977
0.522673
0.51791
0.515285
0.514622
0.515517
0.517562
0.518709
0.519346
0.519285
0.516068
0.506434
0.483426
0.430294
0.329384
0.189118
0.0651848
0.0093891
0.000290924
6.06795e-30
4.87747e-29
2.36511e-28
2.39694e-30
3.54309e-31
3.12018e-31
1.91533e-28
4.54572e-30
1.01314e-31
6.98893e-30
6.02836e-30
1.03494e-29
1.27235e-29
3.12521e-32
3.3149e-33
4.56175e-31
6.86716e-32
1.96349e-33
1.72277e-35
4.77007e-29
1.18587e-27
5.93091e-28
1.06785e-25
3.71671e-24
2.38499e-23
1.07635e-21
1.29562e-19
3.23864e-18
4.77196e-18
1.76172e-16
1.75092e-12
1.09973e-06
0.00132211
0.000259299
0.00155249
0.000188643
9.37985e-05
2.45193e-05
3.88558e-05
1.27632e-05
9.11169e-05
5.27138e-05
0.000112799
0.00022592
0.000513036
0.000962421
0.0305597
0.290262
0.470832
0.509359
0.521663
0.529447
0.526152
0.520435
0.516235
0.514154
0.513863
0.515005
0.517041
0.518308
0.519131
0.519061
0.515672
0.505824
0.482468
0.428747
0.327355
0.187282
0.0643265
0.00924065
0.000285862
5.80458e-29
1.57485e-28
3.58352e-28
3.5327e-29
6.05369e-30
4.48509e-29
6.14235e-29
9.258e-34
1.94379e-31
9.94821e-30
1.2886e-31
6.33547e-29
3.34899e-30
1.99368e-34
3.78834e-31
1.1872e-33
8.72594e-34
6.37572e-33
1.14189e-35
5.54376e-29
3.92994e-30
3.90196e-28
6.18853e-27
4.90097e-25
2.17324e-23
1.45755e-21
7.01015e-21
8.83112e-19
8.99405e-18
1.9295e-16
9.41952e-15
4.70247e-09
0.000120149
0.00118426
0.00185666
0.000813061
0.000391714
5.76194e-08
2.83129e-05
1.91947e-06
7.84181e-05
6.77492e-05
5.79091e-05
0.000112765
0.000282818
0.000577426
0.00262475
0.10591
0.386399
0.494258
0.513775
0.526165
0.529121
0.523906
0.518346
0.514742
0.513168
0.513217
0.514547
0.516582
0.517969
0.518934
0.518842
0.515277
0.505215
0.481522
0.427225
0.325305
0.185485
0.0634842
0.00909189
0.000280948
8.21607e-32
3.88291e-28
4.13055e-29
5.69596e-29
1.97247e-29
3.15731e-29
1.2306e-29
9.41742e-30
3.94116e-32
7.73181e-30
6.75415e-29
2.29132e-30
3.46921e-30
1.4398e-30
3.80426e-30
5.38349e-34
1.66989e-33
1.37077e-32
2.4499e-38
4.79071e-29
4.87439e-29
2.57893e-29
1.49464e-28
1.08656e-25
2.96286e-24
5.96075e-22
7.45165e-21
7.30257e-20
2.4229e-18
1.73091e-16
1.06325e-16
5.852e-12
2.48643e-06
0.00135154
0.000741006
0.00147549
0.000373517
1.69797e-05
8.64707e-06