/*--------------------------------*- C++ -*----------------------------------*\
| =========                 |                                                 |
| \\      /  F ield         | OpenFOAM: The Open Source CFD Toolbox           |
|  \\    /   O peration     | Version:  v2012                                 |
|   \\  /    A nd           | Website:  www.openfoam.com                      |
|    \\/     M anipulation  |                                                 |
\*---------------------------------------------------------------------------*/
FoamFile
{
    version     2.0;
    format      ascii;
    class       volScalarField;
    location    "1801";
    object      lamda1;
}
// * * * * * * * * * * * * * * * * * * * * * * * * * * * * * * * * * * * * * //

dimensions      [0 0 0 0 0 0 0];


internalField   nonuniform List<scalar> 
8000
(
7.51771e-31
4.35903e-28
2.73074e-30
8.82416e-28
5.598e-29
6.56025e-31
4.99815e-26
1.02726e-28
4.17242e-28
5.38606e-34
6.21206e-26
8.90943e-27
9.651e-27
1.61447e-28
4.09386e-30
4.25799e-26
4.94372e-26
6.85986e-27
3.66265e-27
4.73286e-29
3.96161e-31
5.44383e-26
7.04143e-27
1.73821e-25
6.04766e-27
9.56552e-28
8.25399e-28
2.863e-30
7.31144e-28
4.65688e-26
7.62361e-26
5.35611e-26
5.15997e-27
1.03392e-27
2.75296e-29
4.35331e-30
7.90915e-26
4.40948e-26
1.63198e-25
1.95016e-26
7.64182e-26
6.48962e-27
6.46725e-28
4.20785e-29
9.47631e-31
1.67654e-26
1.99038e-25
2.29133e-26
5.02453e-26
5.21512e-26
1.13738e-25
5.1663e-27
7.22643e-28
8.50806e-30
2.57175e-31
1.60131e-25
6.1433e-28
5.28828e-26
2.23084e-26
7.39745e-25
1.03706e-25
1.74691e-28
4.30706e-27
1.91323e-27
5.74686e-30
6.86998e-31
5.21532e-26
1.56442e-25
1.07879e-26
1.4638e-25
2.40466e-25
2.42406e-25
8.86716e-26
1.26688e-26
5.29301e-27
4.42526e-28
1.33301e-28
5.97982e-31
1.29795e-25
4.14125e-25
4.38355e-28
2.39455e-25
2.82901e-26
5.34653e-26
2.19472e-26
6.43304e-28
1.51848e-26
2.41869e-26
3.97519e-28
4.8973e-30
1.42842e-31
7.74374e-25
9.43924e-26
5.94315e-26
1.30895e-25
3.68477e-27
9.93191e-26
1.17085e-26
8.04349e-26
2.96061e-26
2.20519e-26
4.83806e-27
1.20148e-27
1.00573e-28
4.6444e-33
6.34776e-25
2.17923e-25
9.92099e-26
1.42765e-25
9.57751e-26
4.0403e-25
2.25323e-26
3.90636e-26
6.91287e-26
5.81374e-26
1.32407e-26
1.4401e-30
1.65047e-27
9.37117e-30
9.43532e-32
1.5946e-19
9.45328e-25
1.34145e-25
9.08478e-26
4.31622e-26
6.69629e-25
1.89189e-26
7.22812e-26
7.74285e-30
1.78254e-26
2.37683e-26
8.7914e-27
1.73903e-27
2.19016e-29
1.0023e-29
3.18861e-31
1.24631e-15
4.82663e-20
5.87244e-27
4.54403e-25
2.46964e-25
1.3915e-25
8.44393e-26
3.23488e-26
9.80267e-26
3.08118e-26
1.14977e-25
2.08014e-26
1.47069e-26
1.7919e-27
3.99568e-28
1.1012e-28
1.11218e-33
1.86087e-08
7.00016e-16
1.28028e-20
4.27889e-25
9.01165e-25
5.90122e-26
4.81402e-25
5.67273e-26
1.36027e-26
1.37797e-26
8.72312e-27
4.87933e-26
5.89909e-27
2.21251e-27
4.19142e-30
1.61476e-28
7.545e-30
6.79154e-32
0.000261704
4.47134e-09
2.07519e-16
3.50597e-21
1.49978e-25
1.01286e-25
3.918e-25
1.83017e-27
5.92675e-26
9.64592e-27
1.07946e-25
9.01232e-26
1.03146e-26
8.36903e-27
1.92832e-26
4.47217e-27
5.65794e-28
4.65968e-29
2.01248e-31
0.587567
7.73144e-05
1.13271e-09
1.0648e-16
1.08536e-21
1.30191e-25
2.84441e-25
1.76465e-25
9.78516e-26
4.16823e-26
3.06823e-26
6.35297e-28
2.5064e-26
8.62101e-27
4.40193e-27
1.59602e-27
9.79962e-28
1.71917e-29
4.40835e-30
1.38465e-32
0.690724
0.0956979
4.83386e-05
2.94301e-10
4.28851e-17
4.02561e-22
1.16134e-25
2.44852e-25
5.30094e-28
1.56276e-25
1.52324e-26
1.07726e-29
8.4453e-30
1.10431e-25
8.31065e-27
1.3164e-26
7.94015e-27
8.11364e-28
3.23171e-28
4.69272e-30
1.49253e-31
0.693709
0.169528
0.0132658
2.6083e-05
7.75771e-11
2.25781e-17
1.88387e-22
3.12432e-26
2.132e-27
1.8938e-26
3.4564e-27
3.91869e-26
8.39072e-29
3.22789e-26
5.32746e-26
6.46829e-27
2.66159e-27
3.72462e-26
6.65451e-27
9.60401e-29
1.54553e-30
3.70573e-32
0.616538
0.188551
0.167223
0.00454616
1.66972e-05
2.38983e-11
1.11999e-17
1.2493e-22
1.84968e-25
5.46874e-27
2.52468e-26
1.19732e-25
2.89685e-26
1.1889e-27
6.37878e-26
3.11363e-28
2.19836e-26
7.44278e-26
7.26497e-28
9.53367e-27
1.29393e-27
2.72842e-29
1.17345e-31
0.512194
0.189956
0.34224
0.0966316
0.00240726
7.93574e-06
9.89465e-12
6.05768e-18
7.67106e-23
2.12236e-27
1.65816e-25
2.98692e-26
6.66734e-26
2.56719e-26
2.09748e-27
5.56792e-26
5.24966e-26
5.6443e-27
2.0555e-27
2.06172e-26
4.68018e-27
1.66666e-27
2.13231e-29
2.33715e-32
0.427418
0.18827
0.397313
0.306117
0.0606204
0.00153637
3.94443e-06
5.87442e-12
3.2022e-18
4.65391e-23
8.33613e-26
1.64511e-26
1.51557e-27
4.97426e-28
9.29045e-26
4.39304e-26
8.46912e-26
6.48725e-28
5.7966e-27
3.92077e-26
1.19424e-26
3.9018e-27
2.26802e-28
2.44552e-30
2.22404e-32
0.368879
0.191755
0.380499
0.444597
0.242805
0.0420078
0.00108124
1.74599e-06
3.78121e-12
1.7669e-18
2.52515e-23
5.74176e-26
2.44102e-28
1.97132e-26
2.44229e-26
1.68555e-28
3.80822e-26
7.42511e-26
3.31917e-26
8.7056e-26
5.25943e-27
9.04644e-28
3.75815e-28
6.44149e-29
2.77443e-29
1.78454e-32
0.31465
0.239218
0.324471
0.486816
0.41772
0.192188
0.0314778
0.00082162
7.53552e-07
2.12434e-12
8.64343e-19
1.04259e-23
4.90965e-26
1.5998e-28
2.3434e-25
7.96894e-27
1.47166e-28
3.24579e-26
3.91158e-27
2.92632e-26
7.58219e-26
4.74304e-27
1.28324e-28
1.54335e-30
8.42234e-30
6.64159e-30
1.48953e-32
0.251287
0.382582
0.248399
0.477025
0.505512
0.372114
0.158212
0.0249414
0.000657349
3.21192e-07
9.35015e-13
3.97841e-19
6.62617e-24
4.29184e-26
9.46196e-26
5.4009e-26
3.61438e-26
5.6333e-26
7.58016e-27
1.20299e-27
2.48465e-26
4.52355e-27
4.7091e-26
1.16622e-30
4.71783e-29
5.63217e-28
6.72609e-30
1.95933e-33
0.176913
0.57786
0.196886
0.419361
0.536041
0.48428
0.333929
0.134171
0.020557
0.000548661
1.26194e-07
3.52784e-13
1.72202e-19
4.12909e-24
8.5981e-26
2.37508e-27
1.29421e-26
5.90248e-27
5.01655e-26
1.31823e-26
3.14006e-27
1.34697e-27
2.06376e-26
4.02661e-26
4.25742e-27
9.36625e-28
1.53237e-28
1.50952e-32
1.11602e-32
0.106534
0.719962
0.190762
0.332184
0.533657
0.536499
0.459433
0.302781
0.116361
0.0175196
0.000476329
4.27098e-08
1.22862e-13
7.0204e-20
1.65407e-24
8.03088e-26
7.32244e-26
4.00452e-26
3.42627e-26
1.15802e-26
4.60795e-26
1.00577e-26
2.01254e-26
3.0033e-26
6.32961e-27
7.65871e-29
8.65576e-28
1.16877e-28
5.11831e-30
3.72112e-32
0.0526611
0.767692
0.280149
0.223696
0.481713
0.561332
0.523666
0.436515
0.277021
0.103047
0.0154128
0.000431867
1.30348e-08
3.95168e-14
2.78652e-20
3.67206e-25
2.88487e-26
9.50566e-27
7.29413e-26
1.74011e-26
2.18835e-25
2.04266e-26
4.43823e-27
6.16562e-26
2.55487e-27
2.52193e-27
2.97257e-28
2.15817e-28
2.00467e-28
3.38547e-30
3.24159e-32
0.0211341
0.737573
0.437828
0.112316
0.380834
0.56092
0.556131
0.509818
0.41586
0.256028
0.0931976
0.0140912
0.000410725
3.32165e-09
1.16323e-14
1.01747e-20
2.19939e-25
3.0531e-26
1.29476e-26
6.93355e-27
5.86895e-26
9.82801e-28
7.43875e-27
6.55793e-26
1.00818e-28
1.96086e-27
1.26626e-29
4.15429e-27
1.38075e-27
7.7047e-29
2.73534e-30
2.97856e-32
0.00683997
0.646015
0.614596
0.0374371
0.257119
0.50864
0.580318
0.546425
0.497105
0.397752
0.239336
0.086793
0.0133745
0.000414665
8.28745e-10
3.13348e-15
3.46819e-21
1.57812e-26
9.90302e-27
1.26232e-26
5.99331e-27
5.05866e-27
7.05945e-27
5.26677e-26
6.23455e-27
6.51167e-27
3.89241e-28
4.97408e-28
2.93391e-28
1.3878e-28
6.48801e-29
6.12565e-31
2.39408e-32
0.00180244
0.505961
0.750707
0.0479701
0.156276
0.394761
0.57481
0.574569
0.53738
0.485729
0.382421
0.227983
0.083813
0.0127378
0.000435604
2.01264e-10
7.70837e-16
1.10401e-21
3.02164e-26
1.74043e-26
9.3455e-27
6.18906e-28
3.03183e-27
5.86421e-27
1.55585e-26
2.14786e-26
5.45713e-27
1.93046e-29
4.07124e-28
1.08813e-27
6.06536e-28
1.42381e-29
7.75262e-31
6.10185e-33
0.000388489
0.333719
0.804506
0.169207
0.118308
0.251705
0.513727
0.593101
0.563034
0.530062
0.475845
0.371552
0.223375
0.0825244
0.0133925
0.000471185
4.25822e-11
1.72482e-16
3.22935e-22
1.00425e-26
3.49678e-27
9.8069e-27
2.65973e-28
1.10279e-26
4.29499e-26
1.08343e-26
1.52654e-27
8.33916e-27
3.49545e-27
1.30727e-27
1.6827e-27
9.69371e-29
1.83191e-30
3.86998e-30
4.46196e-33
6.89638e-05
0.169958
0.806717
0.42164
0.107888
0.145381
0.382059
0.576525
0.590121
0.554261
0.524396
0.468727
0.367633
0.223322
0.0862807
0.0144236
0.000503042
7.81853e-12
3.49311e-17
8.56171e-23
1.31397e-26
3.91806e-26
7.24671e-27
6.5113e-27
1.83944e-26
1.61962e-26
2.01961e-27
1.10035e-29
1.00813e-29
3.01601e-27
1.22786e-27
1.35618e-28
3.19986e-28
1.71088e-29
1.52752e-30
4.0214e-33
1.01098e-05
0.0615371
0.762792
0.642865
0.0527878
0.172357
0.216698
0.496735
0.5987
0.581034
0.54897
0.520688
0.466194
0.369021
0.230833
0.0917053
0.0153283
0.00052606
1.21587e-12
6.31284e-18
2.02929e-23
1.15432e-26
3.52218e-27
2.52175e-26
5.41072e-26
1.74394e-27
3.45831e-27
2.57836e-27
8.80041e-28
6.30343e-27
2.86609e-27
1.09506e-28
1.45022e-28
3.27542e-29
4.20563e-29
5.11737e-30
3.71554e-33
1.22374e-06
0.0153834
0.664841
0.765869
0.00618895
0.249807
0.0870242
0.339742
0.565637
0.59946
0.571536
0.545923
0.519163
0.467415
0.376213
0.240684
0.0962321
0.0159363
0.000538719
1.58371e-13
1.00315e-18
4.25528e-24
2.30255e-27
2.16196e-26
5.32124e-27
6.65811e-27
7.09543e-27
5.03759e-29
1.08741e-31
1.16675e-26
2.99315e-27
2.257e-27
2.8775e-28
3.67479e-28
2.7186e-28
9.72936e-30
4.48544e-30
1.097e-34
1.21029e-07
0.00273717
0.499754
0.811696
0.118746
0.279916
0.125709
0.15585
0.457256
0.59482
0.592161
0.563748
0.544178
0.519374
0.470906
0.384788
0.248305
0.0990328
0.0162619
0.000544211
1.70355e-14
1.37875e-19
1.1039e-24
1.17328e-27
2.45767e-27
2.25766e-28
2.37822e-26
1.09105e-26
1.4959e-28
1.47521e-27
6.34244e-28
1.113e-27
7.58397e-28
2.83273e-27
5.04831e-31
8.05014e-29
6.09254e-29
2.11104e-30
2.14045e-32
9.57563e-09
0.00036521
0.286798
0.811782
0.406129
0.274611
0.227027
0.0427217
0.267015
0.538121
0.59994
0.582908
0.557794
0.54141
0.519309
0.474613
0.390743
0.252566
0.10047
0.0163971
0.000542783
1.49546e-15
1.61208e-20
1.73929e-25
3.29676e-26
1.97937e-27
1.55663e-26
2.23369e-27
2.5701e-27
2.38606e-27
1.2901e-27
2.9177e-28
1.10068e-27
5.57423e-29
6.1634e-28
6.07993e-28
4.38226e-29
1.25498e-30
3.29335e-30
1.39957e-34
5.91156e-10
3.76914e-05
0.10746
0.771813
0.639681
0.170836
0.330952
0.0682761
0.0846123
0.389064
0.578704
0.593853
0.572928
0.55042
0.539761
0.518434
0.476391
0.39354
0.254631
0.101008
0.0163492
0.000536866
1.06551e-16
1.59757e-21
7.20431e-26
1.20626e-26
6.07732e-27
5.69682e-29
1.9068e-26
3.59118e-27
7.76648e-27
1.74248e-27
1.1232e-26
1.86341e-27
3.62293e-28
2.09797e-27
2.91994e-30
1.79979e-29
7.51261e-29
7.00682e-31
6.93312e-33
2.76089e-11
3.02679e-06
0.0238756
0.675664
0.756513
0.00675597
0.419375
0.150956
0.0244472
0.17489
0.486919
0.590154
0.582469
0.562359
0.545872
0.535212
0.516264
0.476493
0.394822
0.255211
0.100696
0.0161805
0.000528003
6.23002e-18
1.33744e-22
3.38834e-26
9.48437e-27
6.36365e-27
1.16533e-26
9.77158e-28
8.45536e-28
2.02253e-29
4.285e-27
1.3805e-27
8.2019e-30
1.18068e-27
3.47942e-28
2.10908e-28
4.46563e-29
4.56001e-31
2.4783e-30
1.88516e-36
9.40781e-13
1.86523e-07
0.00325261
0.497997
0.796585
0.144996
0.429223
0.273866
0.0403457
0.0351749
0.289906
0.545113
0.585184
0.570737
0.552373
0.539548
0.530939
0.514302
0.476504
0.394765
0.254449
0.0998286
0.0159316
0.000517075
3.09995e-19
9.57687e-24
1.07812e-26
1.96869e-27
4.68313e-27
2.47821e-27
4.38986e-28
6.67195e-30
5.73489e-27
1.02886e-29
5.41827e-27
3.95891e-27
3.6583e-28
1.14441e-28
3.16837e-29
2.57113e-28
3.07293e-29
1.0301e-32
1.78274e-33
2.24215e-14
8.56462e-09
0.000298365
0.258847
0.78878
0.447746
0.357158
0.397858
0.0899584
0.0179241
0.084554
0.403945
0.567457
0.575135
0.558328
0.546221
0.534779
0.52797
0.512876
0.475606
0.393726
0.252836
0.098575
0.0156336
0.000505312
1.3905e-20
5.09784e-25
2.49001e-27
3.10571e-28
2.94771e-27
2.40204e-27
1.1454e-27
5.3395e-27
6.95853e-30
2.4052e-27
1.36165e-27
2.90079e-28
1.50315e-27
5.08179e-28
3.00226e-28
2.23021e-28
3.02735e-30
1.35176e-31
1.10412e-33
3.56923e-16
2.81646e-10
1.95382e-05
0.0754909
0.731313
0.660007
0.172382
0.482502
0.17937
0.033832
0.0177894
0.172671
0.484588
0.570267
0.563208
0.551314
0.541746
0.53145
0.525807
0.511342
0.474476
0.392051
0.250578
0.0971139
0.0153122
0.000494003
5.78828e-22
3.07136e-26
4.57668e-27
2.00471e-28
2.98538e-29
1.37339e-27
3.88501e-27
1.87601e-27
1.32374e-27
4.67669e-27
2.52212e-28
1.84585e-27
1.94722e-28
3.16851e-29
4.94854e-30
3.36556e-29
5.16988e-33
9.67393e-32
4.07743e-33
3.65704e-18
6.30997e-12
9.20981e-07
0.01116
0.596261
0.754009
0.0215049
0.501545
0.303444
0.0625187
0.022266
0.0319572
0.285823
0.528948
0.56443
0.552341
0.548116
0.538355
0.529462
0.524254
0.510125
0.47308
0.389826
0.248018
0.0955319
0.0150012
0.000482669
1.94328e-23
1.70806e-26
7.73043e-28
5.41054e-27
2.00886e-28
1.44125e-27
1.60592e-27
4.70635e-28
7.91861e-27
3.97839e-27
3.65762e-27
1.08459e-28
9.61754e-28
1.58024e-28
2.09717e-29
2.18614e-29
9.20984e-30
8.55756e-32
8.73864e-34
2.36352e-20
9.06861e-14
3.04702e-08
0.000922323
0.363205
0.774915
0.266951
0.451238
0.419651
0.115116
0.0364734
0.0218841
0.0724123
0.390188
0.546463
0.554642
0.547429
0.545517
0.53579
0.527957
0.52315
0.508907
0.471392
0.387385
0.24524
0.0939887
0.0146864
0.000470739
1.16056e-24
3.25184e-26
3.47265e-26
2.11076e-28
5.86162e-27
6.00685e-27
3.66407e-27
1.57193e-27
3.06694e-27
6.8644e-28
1.08651e-28
3.52558e-29
4.23378e-30
5.69581e-29
1.5846e-28
5.92773e-29
2.50686e-30
3.62131e-31
7.24746e-34
1.41691e-22
7.79267e-16
6.74518e-10
4.83455e-05
0.124047
0.737643
0.549846
0.262247
0.500205
0.198758
0.0562818
0.0335743
0.0230969
0.155032
0.465428
0.549408
0.546255
0.544841
0.542988
0.533443
0.526871
0.522227
0.507607
0.469636
0.384743
0.242508
0.0924093
0.0143575
0.000459066
3.03983e-25
5.46841e-26
1.18365e-27
4.55322e-27
9.30919e-27
1.25774e-27
5.47461e-27
3.20601e-28
5.91875e-27
4.36283e-28
1.69949e-28
2.78927e-28
2.44552e-29
1.08614e-28
2.2849e-28
1.60722e-31
1.56902e-30
2.27322e-33
6.19577e-34
3.68076e-24
3.72258e-18
9.38507e-12
1.6818e-06
0.018751
0.621788
0.70451
0.00751164
0.521505
0.310232
0.0847747
0.0482937
0.0342712
0.022563
0.261327
0.507463
0.545527
0.541371
0.543513
0.540251
0.531566
0.526131
0.521364
0.506362
0.467758
0.382131
0.23968
0.0907638
0.0140346
0.000447748
2.53524e-25
4.03456e-26
1.34833e-26
3.37209e-27
1.82124e-27
3.83102e-27
2.18103e-27
6.76499e-27
7.17299e-28
2.78052e-28
1.79565e-28
5.97435e-29
2.8941e-29
6.16073e-28
2.00015e-29
1.13304e-29
1.52434e-30
5.79493e-31
7.11521e-34
3.95738e-24
9.37322e-21
7.60258e-14
3.8015e-08
0.00133078
0.39448
0.750954
0.153723
0.46514
0.418432
0.130372
0.0636845
0.0506765
0.0209644
0.0568073
0.367729
0.527331
0.540171
0.539613
0.541404
0.53784
0.530063
0.525561
0.520604
0.505063
0.465902
0.379404
0.236734
0.0891383
0.0137198
0.000436923
9.73336e-26
3.64945e-26
7.72288e-27
2.39502e-28
5.16719e-29
9.96918e-28
7.60259e-27
2.06231e-27
2.08996e-28
3.54375e-28
1.37643e-29
7.07484e-29
1.04096e-28
1.61271e-28
9.24034e-29
3.68406e-29
4.7558e-30
8.56747e-34
4.47237e-34
9.31751e-24
1.387e-22
3.2978e-16
5.27538e-10
5.29833e-05
0.135008
0.723082
0.469654
0.277531
0.493235
0.201892
0.0798238
0.0682118
0.0361446
0.00956951
0.129158
0.44694
0.533767
0.53535
0.538551
0.539438
0.535649
0.5288
0.525139
0.519807
0.503785
0.463969
0.376568
0.233807
0.0875387
0.0134173
0.000426172
7.04782e-26
4.52488e-26
2.19344e-27
2.23379e-29
3.12579e-27
6.97652e-27
1.62487e-27
1.74622e-28
4.26985e-28
9.11023e-28
1.29786e-28
4.02368e-28
8.26569e-29
1.12191e-28
1.70913e-30
8.65984e-30
5.17625e-31
4.9486e-32
7.76196e-34
1.7883e-23
1.78122e-22
6.95593e-19
4.1583e-12
1.27636e-06
0.0180366
0.606466
0.664577
0.0245834
0.504025
0.302563
0.101198
0.0823532
0.0557638
0.0163735
0.0141951
0.246573
0.493271
0.532913
0.533837
0.538021
0.537411
0.533627
0.527838
0.524703
0.519008
0.502476
0.462054
0.37374
0.230894
0.0859914
0.0131161
0.00041583
6.33185e-26
3.48833e-26
3.19092e-27
8.59777e-28
4.5564e-27
7.59182e-28
2.97862e-28
2.1198e-28
2.28763e-28
1.93692e-28
3.65911e-28
6.02049e-28
6.9608e-29
1.02261e-28
2.55352e-29
4.51502e-30
7.9052e-30
3.12954e-32
1.37137e-33
2.38651e-23
2.06052e-22
6.82052e-22
1.70075e-14
1.81927e-08
0.00098713
0.367363
0.725013
0.125618
0.445967
0.400197
0.138682
0.0926518
0.0763912
0.0297569
0.00238238
0.044508
0.362918
0.515947
0.530574
0.533936
0.536671
0.535413
0.531962
0.527003
0.524259
0.518166
0.501332
0.460153
0.370899
0.228055
0.0844425
0.012827
0.000406304
2.68429e-25
2.34051e-26
5.80539e-27
4.30251e-27
2.17514e-27
1.63399e-29
3.16899e-28
6.69033e-28
9.05681e-29
1.57415e-28
7.75834e-29
1.2859e-29
5.83045e-29
7.86317e-31
6.2729e-29
2.44745e-29
3.00431e-30
2.99099e-32
1.157e-34
3.39154e-23
2.26193e-22
7.40013e-23
3.28164e-17
1.42999e-10
2.74194e-05
0.107386
0.693093
0.445471
0.246379
0.471735
0.200644
0.101986
0.0928699
0.0464747
0.00454655
0.00157929
0.135369
0.443689
0.523896
0.528746
0.534161
0.534986
0.533696
0.530511
0.526279
0.523754
0.517415
0.500215
0.458235
0.368112
0.22519
0.0829512
0.0125586
0.000397038
4.71741e-25
1.63849e-26
8.97716e-27
4.23657e-28
3.69667e-28
4.54224e-28
3.16101e-29
2.0404e-29
1.40279e-28
5.82799e-28
5.84719e-29
5.80896e-29
5.20745e-29
1.72866e-28
8.60088e-29
1.03234e-29
7.67367e-31
2.93396e-32
3.53811e-35
3.98401e-23
2.3857e-22
4.55742e-23
7.73575e-20
5.64681e-13
4.1877e-07
0.0105712
0.554975
0.644594
0.00873383
0.477855
0.293319
0.115443
0.104208
0.0671568
0.0106023
6.50032e-05
0.0118669
0.265276
0.488622
0.525059
0.529427
0.533887
0.533248
0.532159
0.529259
0.525578
0.523223
0.516685
0.499095
0.456346
0.365279
0.222417
0.0815521
0.0122966
0.000388236
8.16908e-25
2.12519e-26
4.3632e-27
2.17393e-28
1.18641e-28
4.67491e-28
1.92457e-28
7.82782e-29
2.54372e-28
1.65435e-28
5.83723e-29
1.58635e-28
4.73966e-30
6.97768e-29
5.28334e-30
1.47507e-29
2.03779e-30
1.27579e-32
1.2307e-35
3.79706e-23
2.4057e-22
1.23748e-22
6.63877e-20
9.97198e-16
3.38544e-09
0.000389863
0.289053
0.699187
0.158795
0.401295
0.387142
0.14518
0.109165
0.0864724
0.0219272
6.64188e-05
0.00195964
0.0585977
0.377761
0.510333
0.524784
0.530505
0.532936
0.531507
0.530794
0.528096
0.524885
0.522696
0.515952
0.497995
0.454416
0.362519
0.219785
0.0801765
0.0120475
0.000379825
1.16444e-24
3.05847e-27
1.24828e-27
3.63734e-28
1.15677e-28
6.22487e-28
2.08914e-28
1.61182e-27
2.33713e-28
1.01296e-28
1.34021e-29
4.53824e-29
4.0701e-29
1.96861e-29
3.87965e-29
1.41504e-31
2.30021e-32
2.0066e-32
6.73344e-34
3.07656e-23
1.94716e-22
3.25151e-22
6.67795e-20
2.85265e-18
1.32555e-11
6.78518e-06
0.0594043
0.64552
0.4736
0.186039
0.4487
0.203343
0.112008
0.10188
0.0411691
0.00017702
0.00179076
0.00265845
0.169228
0.450529
0.518316
0.525133
0.531415
0.531509
0.529868
0.529485
0.526877
0.524243
0.522165
0.515237
0.496871
0.452525
0.359869
0.217172
0.078865
0.0118083
0.000371649
1.19549e-24
2.74436e-27
1.8104e-27
3.90165e-28
1.13528e-27
2.77846e-28
4.02895e-28
3.46831e-28
4.2677e-29
1.3e-28
2.73525e-29
1.65934e-28
7.13432e-30
2.58537e-29
1.55327e-29
8.62482e-30
3.65591e-30
1.59078e-32
3.26637e-35
2.46745e-23
1.28904e-22
5.93149e-22
8.2531e-20
2.21493e-18
2.2313e-14
5.85801e-08
0.0035688
0.462838
0.639885
0.00808264
0.438657
0.291596
0.122078
0.110218
0.0637266
0.00140488
0.00169024
0.00354169
0.0181947
0.299348
0.48992
0.520464
0.527026
0.531276
0.529912
0.528259
0.52808
0.525742
0.523649
0.521655
0.514509
0.495767
0.450692
0.357217
0.214668
0.0775941
0.0115755
0.000363929
1.07211e-24
8.38944e-28
7.49175e-28
1.77413e-27
8.40043e-29
2.17343e-27
1.87821e-28
3.75242e-28
5.81093e-28
3.04164e-30
2.0818e-29
2.85389e-28
3.25878e-29
3.73129e-29
3.38596e-30
3.07032e-30
3.63192e-31
2.39596e-34
1.41404e-34
2.03269e-23
7.82977e-23
6.31754e-22
8.14559e-20
1.50025e-18
2.70581e-17
2.34842e-10
7.81364e-05
0.176735
0.664981
0.240772
0.325331
0.382719
0.151133
0.1136
0.0853894
0.00618169
0.00164099
0.00660446
0.000664744
0.090295
0.400161
0.508241
0.521364
0.528794
0.530541
0.528143
0.526793
0.526734
0.524719
0.523128
0.52114
0.513794
0.494686
0.448847
0.354659
0.212218
0.0763533
0.0113552
0.000356464
7.53054e-25
1.38394e-27
3.81016e-27
3.67994e-28
1.41181e-27
2.54794e-28
7.60363e-29
4.95671e-28
6.567e-29
1.83785e-29
3.60141e-29
2.78921e-29
3.56218e-29
8.07597e-29
4.26504e-29
5.02134e-31
1.30093e-30
1.83056e-31
3.6011e-36
1.52088e-23
5.47278e-23
6.76691e-22
5.92166e-20
1.11415e-18
1.9175e-17
3.96691e-13
7.57717e-07
0.0202599
0.564772
0.526158
0.105213
0.420894
0.21559
0.116395
0.10243
0.019076
0.00131845
0.00958495
0.00253672
0.00400388
0.216092
0.461062
0.515128
0.523446
0.530128
0.529053
0.526409
0.525455
0.52548
0.523848
0.522647
0.520641
0.513085
0.4936
0.447058
0.352134
0.209811
0.0751725
0.0111414
0.000349245
4.46009e-25
6.18267e-27
6.75568e-28
1.36044e-27
4.84682e-28
8.20997e-28
3.92507e-29
9.4429e-29
7.13887e-30
5.04383e-29
4.00098e-29
1.25436e-28
8.42414e-29
2.20118e-29
1.9764e-29
1.89007e-30
3.13467e-31
4.12132e-33
1.13911e-35
1.0303e-23
4.40434e-23
5.85044e-22
3.80805e-20
7.22781e-19
9.67004e-18
2.44865e-16
3.2335e-09
0.000637357
0.319644
0.636919
0.0613621
0.387205
0.299958
0.130215
0.111629
0.039275
0.000643491
0.00976705
0.00637932
0.000226074
0.0413259
0.33714
0.493209
0.517968
0.526128
0.529784
0.527317
0.524772
0.524212
0.52438
0.523091
0.522218
0.520139
0.512376
0.492542
0.445277
0.349635
0.207505
0.0740187
0.0109343
0.000342391
1.24041e-25
2.0863e-27
3.01212e-27
6.88829e-29
4.06088e-29
2.0655e-28
4.38865e-29
7.7041e-30
8.34861e-29
3.09555e-29
7.98615e-29
1.07071e-28
7.07636e-29
6.81024e-30
8.26698e-32
3.81748e-31
1.08634e-32
7.2526e-32
1.08847e-34
6.56715e-24
3.6301e-23
3.65556e-22
2.48712e-20
3.74822e-19
4.41836e-18
8.70516e-17
5.71081e-12
7.38451e-06
0.0688975
0.607485
0.353869
0.211376
0.380489
0.167202
0.114695
0.0642115
0.000865209
0.00742905
0.00917089
0.000795492
0.00140025
0.136779
0.422284
0.507872
0.519596
0.52818
0.528815
0.525497
0.523214
0.523114
0.523406
0.522454
0.521806
0.519638
0.511689
0.491484
0.443507
0.347225
0.205232
0.0728966
0.010737
0.00033567
3.9935e-26
9.26369e-28
2.33436e-28
1.12983e-27
5.38211e-28
8.22532e-29
3.21595e-28
3.55435e-28
1.41598e-28
4.62903e-29
3.955e-30
2.21201e-30
1.89925e-29
7.81304e-30
1.9698e-29
1.50337e-30
2.1924e-31
4.67291e-33
7.36151e-35
3.32575e-24
3.68516e-23
1.40648e-22
1.63531e-20
1.83626e-19
1.79003e-18
6.78462e-17
6.61914e-15
3.48722e-08
0.00353977
0.431061
0.567394
0.00985616
0.397935
0.236081
0.119326
0.086755
0.00332561
0.00453141
0.0111562
0.00223456
0.000307956
0.0158651
0.264953
0.471537
0.513567
0.522845
0.529262
0.52726
0.523651
0.521809
0.522134
0.522574
0.521887
0.521409
0.519161
0.510999
0.490432
0.441789
0.344831
0.203008
0.0718204
0.010543
0.000329297
1.40695e-26
1.46353e-27
2.0702e-28
4.5001e-28
4.07242e-29
1.4734e-29
2.82991e-28
6.66625e-29
8.33602e-29
3.40123e-29
5.96591e-30
9.58405e-30
1.50699e-29
1.8935e-29
1.75032e-30
1.41754e-30
3.68597e-34
1.26792e-34
6.26911e-35
1.39291e-24
2.71381e-23
2.92101e-23
1.02529e-20
9.87436e-20
6.73021e-19
3.2626e-17
8.25395e-16
6.5424e-11
5.26909e-05
0.150217
0.61098
0.171294
0.301542
0.322695
0.135469
0.101987
0.011803
0.00191967
0.0100895
0.00320332
0.000925154
0.000578735
0.0757796
0.372176
0.497059
0.516565
0.526002
0.528908
0.525384
0.521908
0.520547
0.521288
0.521824
0.521377
0.521056
0.51868
0.510317
0.489406
0.440072
0.342473
0.200859
0.070758
0.0103592
0.00032338
2.60033e-27
1.60519e-27
1.73286e-28
4.98005e-28
4.89186e-28
1.74193e-28
2.34255e-28
2.44576e-29
6.11873e-29
3.29309e-29
1.85882e-29
1.14992e-29
4.02548e-29
4.77603e-30
2.23663e-30
1.22185e-30
1.75566e-31
6.60212e-33
6.08961e-35
4.39031e-25
1.48466e-23
9.75453e-24
6.38034e-21
6.5573e-20
2.12901e-19
1.57524e-17
3.29848e-16
9.13008e-14
2.85538e-07
0.0132236
0.503428
0.469563
0.0827923
0.363226
0.184271
0.111013
0.0335176
0.000133677
0.00756382
0.00430992
0.00137256
0.000351834
0.00629703
0.189716
0.441976
0.508141
0.51939
0.528401
0.527678
0.523414
0.520302
0.519459
0.520509
0.521146
0.520957
0.520708
0.51821
0.509651
0.488378
0.438372
0.340178
0.198723
0.0697485
0.0101877
0.000317564
1.93038e-27
2.21954e-28
2.6379e-28
1.06012e-28
3.40593e-28
1.09838e-28
8.55081e-31
2.41669e-28
5.08702e-29
9.76855e-29
1.53898e-30
5.68552e-30
1.10524e-29
3.30452e-30
4.26678e-30
1.09266e-30
1.27132e-31
5.73287e-33
5.0142e-35
6.53488e-26
6.81919e-24
1.30367e-23
3.06178e-21
4.81113e-20
4.41709e-20
8.4941e-18
1.41265e-16
3.31935e-15
5.73803e-10
0.000270582
0.245331
0.580284
0.0457228
0.336784
0.259423
0.124794
0.0619549
0.000454133
0.00415495
0.00574287
0.00148697
0.000704307
0.000676754
0.0374108
0.311685
0.480771
0.513082
0.523415
0.528994
0.525921
0.521483
0.518893
0.518478
0.51978
0.520584
0.520573
0.520378
0.51775
0.508987
0.487359
0.436708
0.337883
0.196685
0.0687998
0.0100187
0.000311926
9.09336e-28
3.62276e-29
2.04885e-28
3.03526e-28
7.24019e-29
3.48676e-28
1.76793e-28
8.46604e-29
2.51578e-30
5.02025e-30
9.95913e-29
3.91285e-32
1.88074e-30
3.40675e-30
3.61879e-33
1.34316e-33
1.87387e-31
3.37507e-33
4.98783e-35
7.16412e-27
2.61985e-24
1.43942e-23
1.11554e-21
3.01856e-20
2.48324e-20
5.33328e-18
6.05969e-17
8.14892e-16
6.74857e-13
1.7433e-06
0.036228
0.533189
0.329529
0.169658
0.336304
0.157607
0.0862846
0.00457935
0.00124947
0.00754901
0.00200126
0.000656298
0.000596406
0.00307775
0.121781
0.402572
0.500293
0.516247
0.526759
0.528438
0.523884
0.519703
0.517627
0.51757
0.519161
0.520079
0.520233
0.520058
0.517294
0.508331
0.486359
0.435037
0.33568
0.194753
0.0678598
0.00985479
0.000306536
6.87257e-28
4.35896e-28
5.88998e-28
6.36864e-29
8.23729e-29
2.02578e-30
2.48997e-29
1.51363e-29
1.65247e-29
1.82784e-28
2.95885e-29
4.5353e-29
1.15328e-30
9.26632e-30
6.53923e-30
8.78649e-31
3.62259e-32
1.87106e-32
2.18445e-35
1.45352e-28
7.50133e-25
1.32212e-23
2.09725e-22
1.56064e-20
3.21685e-20
3.17701e-18
3.55801e-17
2.27583e-16
1.47852e-14
3.82516e-09
0.00107793
0.322852
0.532982
0.00401165
0.342464
0.217911
0.107735
0.0196642
0.000355606
0.00815803
0.00343037
0.00041429
0.00051191
0.000808258
0.0169731
0.243772
0.458358
0.508786
0.520343
0.529076
0.526863
0.52181
0.518073
0.516462
0.516807
0.518594
0.519635
0.519906
0.519745
0.516876
0.507692
0.485354
0.433422
0.333574
0.192826
0.0669464
0.00969758
0.000301185
5.63618e-28
1.10894e-28
1.00999e-29
2.6988e-28
2.74707e-29
7.3661e-31
4.04231e-29
9.87333e-30
4.55946e-29
9.97803e-30
2.59624e-29
1.85097e-29
7.9049e-31
1.90216e-30
8.40032e-31
2.31176e-31
7.5604e-32
1.09451e-32
2.55151e-35
9.77125e-30
1.81278e-25
6.56711e-24
1.75926e-23
6.86994e-21
3.25592e-20
1.3554e-18
2.52146e-17
4.53883e-17
5.3191e-15
3.35878e-12
8.49883e-06
0.0725549
0.53964
0.203703
0.215737
0.296729
0.134087
0.0452479
0.000312139
0.00700328
0.00556475
0.000287431
0.000254095
0.000800696
0.00171074
0.0697495
0.353294
0.48857
0.513396
0.524644
0.529019
0.524857
0.519811
0.516564
0.515482
0.516123
0.518081
0.519173
0.51959
0.51951
0.516471
0.507056
0.484377
0.431865
0.331458
0.190945
0.0660653
0.00954118
0.000295984
2.51577e-28
6.1415e-29
2.10104e-28
1.20803e-28
2.13081e-34
6.91147e-29
6.37734e-29
7.95703e-29
2.15295e-29
1.73197e-29
1.62116e-30
2.5261e-29
7.48609e-30
3.17886e-30
2.42816e-31
7.31811e-31
5.85628e-33
1.15064e-32
2.80915e-35
2.45596e-27
2.23999e-26
2.2616e-24
5.07551e-24
2.49134e-21
3.10045e-20
3.24381e-19
1.63115e-17
1.95059e-17
2.79811e-15
5.3363e-14
2.09165e-08
0.00321136
0.379992
0.456571
0.034393
0.324782
0.187306
0.0756045
0.00184317
0.00446086
0.00766903
0.000356528
0.000124553
0.000581187
0.000825878
0.00784556
0.174817
0.428179
0.503127
0.516705
0.527913
0.52798
0.52267
0.517904
0.515279
0.514619
0.515514
0.51756
0.518708
0.519346
0.519285
0.516068
0.506434
0.483426
0.430294
0.329384
0.189118
0.0651848
0.0093891
0.000290924
1.91516e-29
2.61589e-28
3.89291e-28
2.42883e-30
4.17468e-29
3.19239e-29
1.88945e-28
3.39873e-29
5.91215e-30
1.94027e-29
2.68812e-29
1.50354e-29
2.08995e-29
1.95776e-31
6.83479e-32
1.3588e-30
4.33349e-32
3.1942e-33
3.15853e-35
1.07493e-28
5.52356e-28
6.41369e-25
4.55343e-24
6.06493e-22
1.86614e-20
2.43997e-20
8.06225e-18
2.15344e-17
1.37375e-15
2.02354e-14
1.91104e-11
3.17931e-05
0.118144
0.524444
0.104773
0.25783
0.26002
0.109333
0.00883245
0.00164498
0.00846899
0.000868374
8.64256e-05
0.000395558
0.00094044
0.00142399
0.035492
0.294826
0.471813
0.509647
0.521748
0.529464
0.526155
0.520431
0.516229
0.514149
0.51386
0.515002
0.517039
0.518307
0.51913
0.519061
0.515672
0.505824
0.482468
0.428747
0.327355
0.187282
0.0643265
0.00924065
0.000285862
4.15647e-28
3.3912e-28
6.80654e-28
7.80006e-29
6.25556e-29
1.03349e-28
1.11215e-28
3.30372e-31
2.07929e-31
1.67103e-29
8.73117e-30
8.93148e-29
6.7982e-30
1.16218e-30
1.0555e-30
7.2993e-32
8.72738e-34
2.78331e-32
2.51097e-35
6.5952e-28
5.64975e-28
1.31137e-25
2.92377e-24
7.78958e-23
7.68929e-21
1.36632e-20
3.44481e-18
1.97068e-17
5.37978e-16
1.07151e-14
8.36283e-14
8.99138e-08
0.00769088
0.410991
0.379523
0.0802928
0.303986
0.158711
0.0287917
0.000223125
0.00667335
0.00209567
9.0767e-05
0.000286495
0.000862167
0.00089912
0.00334929
0.112652
0.388942
0.494874
0.513941
0.526208
0.529135
0.523906
0.518341
0.514737
0.513163
0.513214
0.514545
0.51658
0.517968
0.518933
0.518842
0.515277
0.505215
0.481522
0.427225
0.325305
0.185485
0.0634842
0.00909189
0.000280948
4.0933e-28
7.65122e-28
1.42067e-28
1.93457e-28
3.87003e-29
1.0348e-28
2.77307e-29
6.54719e-30
1.38138e-29
9.80819e-30
5.9806e-29
7.92901e-30
3.28207e-30
8.41355e-31
2.71364e-30
6.85583e-31
3.27948e-32
1.30903e-32
1.93534e-35
2.0888e-28
1.68782e-28
2.13993e-26
1.03716e-24
5.38915e-24
2.2943e-21
1.59416e-20
9.74304e-19
1.71974e-17
1.08125e-16
6.65117e-15
4.51556e-14
8.98247e-11
9.69798e-05
0.16162
0.495792
0.0554731
0.278738
0.225058
0.0669084
0.000512764
0.00316275
0.00399981
0.000194981
0.000210279
0.00083198
0.000729327
0.00074349
0.0161596
0.229906
0.449078
0.505386
0.518571
0.529498
0.527642
0.521527
0.516414
0.51343
0.512322
0.512635
0.51414
0.516185
0.517677
0.518757
0.518615
0.514885
0.504615
0.480587
0.42568
0.323287
0.183709
0.0626366
0.00894736
0.000276192
1.31111e-27
3.60088e-28
1.00475e-27
1.17185e-28
4.3283e-29
1.23482e-29
4.88748e-29
3.26035e-29
4.49799e-30
6.29044e-29
1.82898e-29
1.96629e-29
9.86176e-30
1.60806e-30
3.1871e-30
1.11307e-30
6.9662e-32
4.20571e-33
1.495e-35
1.98745e-28
6.53553e-28
1.91849e-27
2.57829e-25
1.21e-24
5.37884e-22
1.10724e-20
1.74037e-19
9.59726e-18
9.65183e-18