/*--------------------------------*- C++ -*----------------------------------*\
| =========                 |                                                 |
| \\      /  F ield         | OpenFOAM: The Open Source CFD Toolbox           |
|  \\    /   O peration     | Version:  v2012                                 |
|   \\  /    A nd           | Website:  www.openfoam.com                      |
|    \\/     M anipulation  |                                                 |
\*---------------------------------------------------------------------------*/
FoamFile
{
    version     2.0;
    format      ascii;
    class       volScalarField;
    location    "1801";
    object      Mg;
}
// * * * * * * * * * * * * * * * * * * * * * * * * * * * * * * * * * * * * * //

dimensions      [0 0 0 0 0 0 0];


internalField   nonuniform List<scalar> 
8000
(
4.09e-25
2.21969e-24
8.01712e-25
1.35046e-24
8.73503e-25
3.86978e-25
7.90178e-24
4.6246e-25
2.41896e-24
8.91874e-27
6.63492e-24
3.45158e-24
5.54451e-24
1.51501e-24
9.75278e-25
4.34467e-24
5.97893e-24
3.11114e-24
3.4613e-24
7.98322e-25
3.02778e-25
6.00626e-24
1.75849e-24
1.19777e-23
2.94208e-24
1.74287e-24
3.45831e-24
8.22603e-25
5.69333e-25
5.55586e-24
7.01804e-24
6.72396e-24
2.75967e-24
1.77457e-24
6.35768e-25
1.01459e-24
6.82623e-24
4.41236e-24
1.03706e-23
3.45956e-24
8.2201e-24
2.96426e-24
1.48503e-24
7.26504e-25
4.72147e-25
2.69069e-24
1.12909e-23
3.82951e-24
5.46365e-24
5.88548e-24
9.98823e-24
2.69929e-24
1.52555e-24
2.89985e-25
2.37367e-25
1.03005e-23
5.53384e-25
5.64088e-24
3.71772e-24
2.21771e-23
8.26937e-24
3.28306e-25
2.503e-24
2.59481e-24
2.37891e-25
4.0305e-25
4.80834e-24
9.96091e-24
2.20199e-24
9.68714e-24
1.26444e-23
1.25862e-23
7.67377e-24
3.45337e-24
2.68223e-24
1.23612e-24
1.39977e-24
3.75082e-25
9.04422e-24
1.53124e-23
4.41352e-25
1.2569e-23
4.33506e-24
5.93489e-24
3.82008e-24
5.33289e-25
3.63924e-24
6.22219e-24
1.16369e-24
2.19568e-25
1.80198e-25
2.22462e-23
7.8983e-24
6.09933e-24
8.95533e-24
1.31659e-24
8.09301e-24
2.76558e-24
7.25277e-24
4.51264e-24
4.62689e-24
2.54371e-24
2.06382e-24
1.21083e-24
2.73277e-26
2.05436e-23
1.13827e-23
7.86743e-24
7.90772e-24
7.84794e-24
1.62977e-23
3.14363e-24
5.09446e-24
6.73284e-24
6.38199e-24
3.39346e-24
4.32344e-26
2.2627e-24
3.71164e-25
1.48916e-25
8.41429e-21
2.50489e-23
9.40484e-24
7.46935e-24
4.48324e-24
2.1101e-23
2.89603e-24
6.93246e-24
5.87304e-26
3.34486e-24
4.07899e-24
2.88287e-24
1.67679e-24
2.24061e-25
3.7084e-25
2.74588e-25
1.48897e-17
4.63178e-21
1.9395e-24
1.72734e-23
1.27226e-23
9.47174e-24
6.11825e-24
4.63773e-24
7.56548e-24
4.49237e-24
8.73986e-24
3.84607e-24
3.82591e-24
1.65438e-24
1.07955e-24
1.2722e-24
1.30972e-26
6.7827e-12
8.42155e-18
2.39024e-21
1.6685e-23
2.42234e-23
6.12204e-24
1.75641e-23
6.12396e-24
2.43609e-24
3.01904e-24
2.29499e-24
5.61483e-24
1.97719e-24
1.38522e-24
7.04292e-26
7.57458e-25
3.2068e-25
1.23924e-25
1.06302e-07
2.19291e-12
2.87999e-18
1.25615e-21
9.97366e-24
7.93448e-24
1.61398e-23
9.00894e-25
6.06661e-24
2.10388e-24
8.46862e-24
7.73947e-24
2.60218e-24
2.01088e-24
4.38545e-24
2.68111e-24
1.41227e-24
8.24764e-25
2.18092e-25
0.00178391
3.27988e-08
6.46034e-13
1.19745e-18
7.09288e-22
9.25916e-24
1.3707e-23
1.05563e-23
7.84068e-24
5.26438e-24
4.2537e-24
5.06425e-25
3.49373e-24
2.39426e-24
1.70861e-24
1.18529e-24
1.24874e-24
2.04959e-25
2.53632e-25
4.6834e-26
0.00132332
0.0133435
1.48812e-08
1.93844e-13
4.78062e-19
4.40598e-22
8.73744e-24
1.27353e-23
5.24598e-25
1.01936e-23
2.62068e-24
5.40184e-26
4.97627e-26
8.54934e-24
2.30789e-24
3.02277e-24
2.81773e-24
1.14307e-24
9.43796e-25
2.53354e-25
1.87652e-25
0.000761495
0.0108669
0.00115061
6.48255e-09
6.32756e-14
2.3902e-19
3.04548e-22
4.37808e-24
8.62053e-25
2.81821e-24
1.17949e-24
4.96521e-24
1.77747e-25
4.63266e-24
5.18812e-24
2.06635e-24
1.37273e-24
6.09651e-24
3.24314e-24
5.73258e-25
1.23073e-25
9.13107e-26
0.000364548
0.00833564
0.00341623
0.000348396
3.47827e-09
2.40533e-14
1.2574e-19
2.52298e-22
1.109e-23
1.50704e-24
4.0973e-24
8.90186e-24
4.35688e-24
6.83201e-25
6.51272e-24
3.7153e-25
3.82295e-24
7.36627e-24
8.39439e-25
3.92082e-24
2.11778e-24
6.22899e-25
1.64604e-25
0.000182253
0.00630484
0.00713568
0.00094702
0.000181251
1.66544e-09
1.0806e-14
7.3749e-20
1.95769e-22
1.03027e-24
1.04441e-23
4.20889e-24
6.31083e-24
4.10293e-24
9.2438e-25
6.08479e-24
5.75374e-24
1.87995e-24
1.19364e-24
4.51748e-24
2.74037e-24
2.41858e-24
5.5844e-25
7.43233e-26
0.000100291
0.00468033
0.00909658
0.00268692
0.00046465
0.000115891
8.23202e-10
5.70053e-15
4.56303e-20
1.5394e-22
7.11281e-24
2.70055e-24
7.54002e-25
5.13649e-25
7.78018e-24
5.40093e-24
7.50368e-24
5.47568e-25
1.87116e-24
5.31469e-24
3.45544e-24
2.51368e-24
8.93249e-25
1.84099e-25
7.11333e-26
5.87503e-05
0.00335517
0.00841068
0.00599229
0.00119642
0.000291424
8.13879e-05
3.74332e-10
2.97098e-15
3.07208e-20
1.15009e-22
6.10911e-24
3.29968e-25
2.95626e-24
3.58224e-24
3.03052e-25
5.02762e-24
6.99841e-24
4.69505e-24
7.60848e-24
1.95814e-24
8.51887e-25
7.80105e-25
4.57452e-25
6.38322e-25
6.45027e-26
3.34112e-05
0.00275324
0.00646221
0.0083562
0.00343269
0.000694343
0.000204592
6.17989e-05
1.59255e-10
1.29877e-15
2.07216e-20
7.36874e-23
5.68973e-24
3.00655e-25
1.24814e-23
2.30197e-24
2.24809e-25
4.64499e-24
1.61213e-24
4.39678e-24
7.07931e-24
1.83716e-24
3.10604e-25
3.41821e-26
1.37978e-25
3.07079e-25
5.92532e-26
1.70101e-05
0.00311221
0.0043026
0.00862427
0.00667128
0.00210973
0.000486515
0.000155932
4.94423e-05
5.96449e-11
4.39004e-16
1.41031e-20
6.18546e-23
5.33054e-24
7.92505e-24
5.94643e-24
4.09034e-24
6.11667e-24
2.20571e-24
7.56619e-25
4.0442e-24
1.60002e-24
5.85946e-24
3.21974e-26
2.28705e-25
1.41104e-24
3.01877e-25
1.74515e-26
7.00248e-06
0.00391826
0.00283022
0.0069753
0.00907215
0.00484414
0.00153876
0.000388855
0.000125996
4.12923e-05
1.86e-11
1.16059e-16
9.39286e-21
5.02624e-23
7.55439e-24
1.02628e-24
2.86999e-24
1.97238e-24
5.73188e-24
2.70912e-24
1.42909e-24
9.4374e-25
3.68097e-24
5.41825e-24
2.05215e-24
1.23004e-24
7.10921e-25
1.03926e-26
5.10573e-26
2.30014e-06
0.00398303
0.00205555
0.004812
0.00952836
0.00782504
0.00383786
0.0013041
0.000347672
0.000107217
3.59255e-05
4.4553e-12
2.51793e-17
6.08181e-21
3.19578e-23
7.16731e-24
6.97556e-24
5.11331e-24
4.40653e-24
2.72365e-24
5.53489e-24
2.57344e-24
3.59255e-24
4.46878e-24
2.14807e-24
2.21815e-25
1.17186e-24
6.30316e-25
2.3365e-25
9.37939e-26
5.71785e-07
0.00245214
0.00213701
0.00280851
0.00762807
0.010329
0.00688783
0.00343384
0.00125596
0.000342097
9.65473e-05
3.26661e-05
8.21374e-13
5.91866e-18
3.87179e-21
1.46364e-23
4.37002e-24
2.10957e-24
6.96188e-24
3.40135e-24
1.20618e-23
3.20262e-24
1.56636e-24
6.40183e-24
1.21839e-24
1.35216e-24
5.10339e-25
5.67879e-25
8.41381e-25
2.21244e-25
8.72648e-26
1.05574e-07
0.00082981
0.00268223
0.00133681
0.00492829
0.0106213
0.00999387
0.0065674
0.00344532
0.0013237
0.00036915
9.35642e-05
3.10927e-05
1.13817e-13
2.47207e-18
2.36555e-21
1.12101e-23
4.33664e-24
2.93377e-24
2.14243e-24
6.24271e-24
6.60116e-25
1.99935e-24
6.60353e-24
1.97738e-25
1.08117e-24
7.30432e-26
2.03147e-24
1.48422e-24
5.21398e-25
2.00464e-25
8.27859e-26
1.47949e-08
0.000173589
0.00346862
0.000537378
0.00273934
0.00812213
0.0126418
0.0099976
0.00688088
0.00373693
0.00150743
0.000437449
9.79218e-05
3.12794e-05
1.44408e-14
1.28222e-18
1.39312e-21
2.78179e-24
2.44031e-24
2.84426e-24
1.99593e-24
1.41745e-24
2.15024e-24
5.88827e-24
1.64409e-24
2.07437e-24
4.07311e-25
5.94792e-25
4.9478e-25
4.67391e-25
4.80027e-25
9.44216e-26
7.50411e-26
1.85579e-09
2.66197e-05
0.00409694
0.000440001
0.00139874
0.00480996
0.0120319
0.0140001
0.0108452
0.00768235
0.00434255
0.00185379
0.000552797
0.000105482
3.27111e-05
2.05108e-15
6.47418e-19
7.91816e-22
4.47094e-24
2.9032e-24
2.48329e-24
4.54638e-25
1.40398e-24
1.94994e-24
3.05933e-24
3.77676e-24
1.90393e-24
9.25279e-26
5.40447e-25
1.04242e-24
9.4121e-25
2.24506e-25
1.00626e-25
3.68586e-26
2.53349e-10
3.85831e-06
0.00323398
0.000778061
0.000848823
0.00242415
0.00836011
0.0159902
0.0155916
0.0124057
0.00912346
0.0054078
0.00240378
0.000692812
0.000123727
3.5161e-05
3.08852e-16
3.11421e-19
4.29868e-22
2.565e-24
1.18629e-24
2.48119e-24
2.53721e-25
2.328e-24
5.33894e-24
2.61581e-24
9.72242e-25
2.35436e-24
1.52414e-24
9.76231e-25
1.28976e-24
3.94073e-25
6.77826e-26
2.38519e-25
3.23302e-26
3.06945e-11
6.39716e-07
0.00163077
0.00149679
0.000650394
0.00114083
0.00439733
0.0133769
0.0199343
0.0177701
0.015021
0.0115144
0.00706262
0.00309325
0.000881605
0.000143646
3.72482e-05
7.26493e-17
1.4212e-19
2.21375e-22
2.95163e-24
4.91571e-24
2.19057e-24
1.92136e-24
3.49737e-24
3.28143e-24
1.15791e-24
6.98433e-26
5.67009e-26
1.41383e-24
9.2923e-25
3.44759e-25
7.19841e-25
2.27963e-25
1.4962e-25
3.03767e-26
2.71978e-12
8.93838e-08
0.000505061
0.00227808
0.000319137
0.00100023
0.00193133
0.00806184
0.0198129
0.0241394
0.0215021
0.0191675
0.0150661
0.00915196
0.00395331
0.00106594
0.000159387
3.87246e-05
2.67219e-17
6.10685e-20
1.08159e-22
2.66969e-24
1.19948e-24
4.0852e-24
5.96784e-24
1.06799e-24
1.51646e-24
1.24878e-24
7.64397e-25
2.03882e-24
1.35708e-24
2.19213e-25
3.52465e-25
1.88075e-25
3.75361e-25
2.74211e-25
2.88048e-26
1.85251e-13
8.78153e-09
9.60413e-05
0.00260527
8.43501e-05
0.00117675
0.000689041
0.00365197
0.0141706
0.0270702
0.029442
0.0272949
0.0249751
0.0194062
0.0115798
0.00477542
0.00120647
0.000169178
3.94517e-05
9.60525e-18
2.45203e-20
4.99038e-23
1.23194e-24
3.79137e-24
1.88104e-24
1.84417e-24
2.12156e-24
1.23194e-25
7.57426e-27
2.77955e-24
1.40778e-24
1.2227e-24
3.7047e-25
5.77095e-25
6.47578e-25
1.49047e-25
2.55763e-25
3.68628e-27
1.41579e-14
6.53693e-10
1.14994e-05
0.00205502
0.000313111
0.00107599
0.000674314
0.00133116
0.00716794
0.0228451
0.0350584
0.0365326
0.0349995
0.0316201
0.0239844
0.0137901
0.00538817
0.00129004
0.0001746
3.966e-05
3.12957e-18
9.12295e-21
2.51711e-23
7.78626e-25
1.23601e-24
3.16985e-25
3.89689e-24
2.69335e-24
2.57527e-25
7.91923e-25
6.49312e-25
8.60268e-25
6.69094e-25
1.43711e-24
2.12163e-26
3.36203e-25
4.62709e-25
1.76083e-25
7.08967e-26
2.52584e-15
4.5958e-11
1.02022e-06
0.00107493
0.000739085
0.000829675
0.000924382
0.000379836
0.00267135
0.0137033
0.0333947
0.0438489
0.0450923
0.0428907
0.0379107
0.0278101
0.0153592
0.00574229
0.0013368
0.00017664
3.93809e-05
9.17485e-19
3.11861e-21
9.21073e-24
4.62277e-24
1.12309e-24
3.19018e-24
1.20157e-24
1.13519e-24
1.25546e-24
9.07325e-25
3.59694e-25
8.4334e-25
1.5722e-25
6.68502e-25
7.36524e-25
2.65601e-25
5.20298e-26
2.19405e-25
4.19103e-27
6.1381e-16
2.81253e-12
8.94117e-08
0.000350227
0.00112306
0.000402171
0.00111755
0.000380632
0.000757466
0.00566864
0.0237433
0.0443485
0.0526208
0.0526882
0.0499621
0.0425774
0.0303089
0.0162248
0.00593704
0.00135463
0.000176299
3.88034e-05
2.40835e-19
9.78112e-22
6.8141e-24
2.81485e-24
2.00908e-24
1.15599e-25
3.47626e-24
1.54377e-24
2.27165e-24
9.77042e-25
2.73243e-24
1.1129e-24
4.87013e-25
1.23465e-24
4.4184e-26
1.39414e-25
5.17172e-25
1.01484e-25
4.04089e-26
1.32428e-16
1.31041e-13
6.55131e-09
6.61856e-05
0.00116902
4.46208e-05
0.00119314
0.000557258
0.000223499
0.00169434
0.011677
0.0358064
0.0538943
0.059773
0.0590228
0.0543366
0.045271
0.0315903
0.016692
0.00600607
0.00135364
0.000174362
3.8044e-05
5.67883e-20
2.81293e-22
4.73394e-24
2.48753e-24
2.01049e-24
2.75051e-24
6.58218e-25
7.25288e-25
7.73149e-26
1.6093e-24
8.31843e-25
4.82912e-26
7.73479e-25
4.42042e-25
3.8186e-25
2.56724e-25
3.39677e-26
1.89213e-25
6.32234e-28
2.43837e-17
1.09826e-14
3.31196e-10
6.99042e-06
0.000818935
0.000174416
0.000940968
0.00077081
0.000234564
0.000374921
0.00383371
0.0212656
0.0470539
0.0614609
0.0646342
0.062442
0.0566418
0.0465609
0.0322658
0.0168313
0.00599559
0.00133991
0.000171254
3.71422e-05
1.22573e-20
7.42187e-23
2.67586e-24
1.09055e-24
1.75645e-24
1.24416e-24
4.41144e-25
4.20166e-26
1.94475e-24
6.84396e-26
1.89794e-24
1.60946e-24
4.67482e-25
2.81846e-25
1.73947e-25
6.41099e-25
3.308e-25
9.25584e-27
1.95962e-26
3.74872e-18
2.19277e-15
1.31417e-11
4.41735e-07
0.000369839
0.00037723
0.000541239
0.000934168
0.000323031
0.000158609
0.000879973
0.00836631
0.0324873
0.0563629
0.066102
0.0676553
0.0642157
0.0576615
0.0471348
0.0323913
0.0167833
0.00593249
0.00131627
0.000167631
3.62002e-05
2.52096e-21
1.64913e-23
1.19754e-24
3.83666e-25
1.28308e-24
1.26268e-24
8.67539e-25
1.884e-24
5.59448e-26
1.26381e-24
9.40807e-25
3.95764e-25
9.22831e-25
5.08586e-25
5.23609e-25
5.9605e-25
1.03661e-25
4.2845e-26
1.61516e-26
4.69479e-19
3.99407e-16
4.50388e-13
2.19008e-08
9.7659e-05
0.000497615
0.000182733
0.000946115
0.00043614
0.000183759
0.00019552
0.00211836
0.0157085
0.0436821
0.0625908
0.0692064
0.0692772
0.0648611
0.0579714
0.0471255
0.032265
0.0166115
0.00582737
0.00128925
0.000163747
3.53015e-05
5.11135e-22
4.4656e-24
1.70365e-24
3.56063e-25
1.11213e-25
8.5401e-25
1.58363e-24
1.11612e-24
9.01629e-25
1.76033e-24
4.08228e-25
1.10513e-24
3.59057e-25
1.24142e-25
5.19614e-26
2.19301e-25
3.79286e-27
3.72495e-26
3.05655e-26
4.68207e-20
5.99848e-17
2.42999e-14
9.22757e-10
1.35468e-05
0.00042792
3.15133e-05
0.000747267
0.000557276
0.000215245
0.000158916
0.000383741
0.00478603
0.025597
0.0528265
0.0662727
0.0715094
0.069974
0.0650544
0.057845
0.0468952
0.0319588
0.0163369
0.0057094
0.00126003
0.000159998
3.44166e-05
9.68891e-23
3.36753e-24
5.94277e-25
1.88521e-24
2.13446e-25
9.77581e-25
9.42132e-25
5.58889e-25
2.28744e-24
1.62522e-24
1.53865e-24
2.6789e-25
7.56327e-25
3.01276e-25
1.41972e-25
1.80968e-25
1.79424e-25
3.51894e-26
1.41574e-26
3.64246e-21
7.20519e-18
4.00164e-15
2.75905e-11
9.46125e-07
0.000233196
0.000119842
0.000451178
0.000627353
0.000254444
0.000165816
0.000183049
0.000904498
0.00975883
0.0361139
0.0590023
0.0690348
0.0727989
0.0701576
0.0648622
0.0575445
0.0464801
0.0314997
0.0160346
0.00558234
0.0012317
0.000156151
3.34942e-05
2.77661e-23
4.36467e-24
4.80541e-24
3.71345e-25
1.96907e-24
1.96924e-24
1.47904e-24
1.02183e-24
1.42425e-24
6.34593e-25
2.06913e-25
1.16361e-25
4.83388e-26
2.02525e-25
3.90928e-25
3.08509e-25
9.05477e-26
6.98505e-26
1.29922e-26
2.6972e-22
6.67763e-19
5.99281e-16
6.45987e-13
3.72706e-08
7.30593e-05
0.000193064
0.000159377
0.000606234
0.000299507
0.000168219
0.000175261
0.000231445
0.0022286
0.0173719
0.0456763
0.0631014
0.0711003
0.0733543
0.0698843
0.0645256
0.057087
0.0459048
0.0310053
0.0157104
0.00545904
0.0012022
0.000152109
3.25989e-05
1.42029e-23
5.4691e-24
8.86177e-25
1.73962e-24
2.4199e-24
9.02322e-25
1.90791e-24
4.40418e-25
1.98142e-24
5.13122e-25
3.36097e-25
4.28554e-25
1.04153e-25
2.29769e-25
4.77911e-25
1.0624e-26
7.45333e-26
4.17924e-27
1.19971e-26
4.94433e-23
4.59734e-20
7.10838e-17
3.07115e-14
1.10063e-09
1.15677e-05
0.000194116
1.11624e-05
0.000466166
0.000346287
0.000166898
0.000166426
0.000202002
0.000326036
0.00497707
0.0269281
0.0531445
0.0660213
0.0726101
0.0732817
0.0694661
0.0640804
0.0564924
0.0453047
0.0304787
0.015395
0.0053304
0.00117122
0.000148143
3.17386e-05
1.26479e-23
4.42231e-24
2.99336e-24
1.49696e-24
1.10036e-24
1.57947e-24
1.1862e-24
2.11007e-24
6.53751e-25
3.5109e-25
3.43974e-25
1.97302e-25
1.13288e-25
6.70135e-25
1.2921e-25
1.35319e-25
7.17001e-26
8.88291e-26
1.23608e-26
4.14527e-23
2.15906e-21
6.42399e-18
4.38191e-15
2.45476e-11
8.40009e-07
0.00011613
3.94998e-05
0.000266257
0.000365221
0.00016989
0.000149507
0.000188443
0.00017996
0.000838827
0.0101923
0.0371872
0.0583031
0.0683937
0.0732441
0.0729705
0.0689445
0.0635297
0.0558853
0.0446721
0.0299651
0.0150649
0.00519573
0.00114074
0.000144247
3.0917e-05
7.34583e-24
4.54828e-24
2.24549e-24
3.96932e-25
1.57659e-25
7.88755e-25
2.22778e-24
1.16904e-24
3.04532e-25
3.81987e-25
6.80519e-26
2.16622e-25
2.48991e-25
3.26614e-25
3.04114e-25
2.44191e-25
1.30039e-25
2.42984e-27
1.01928e-26
6.57543e-23
2.69637e-22
4.23559e-19
5.19752e-16
4.21924e-13
2.91384e-08
3.80883e-05
7.73974e-05
9.17925e-05
0.00033359
0.000178553
0.00012887
0.00017001
0.000170005
0.000143587
0.00211696
0.0184635
0.04613
0.061731
0.0701147
0.0734937
0.0724751
0.0683295
0.06298
0.0552451
0.0440541
0.0294273
0.0147188
0.00506331
0.00111055
0.000140517
3.01078e-05
6.83483e-24
5.20938e-24
9.99168e-25
9.977e-26
1.43841e-24
2.11003e-24
1.02711e-24
3.4053e-25
5.28352e-25
7.66046e-25
2.87098e-25
5.1324e-25
2.34078e-25
2.85429e-25
3.69382e-26
1.15532e-25
3.61274e-26
2.64378e-26
1.24479e-26
9.48349e-23
2.97049e-22
1.92232e-20
4.64124e-17
2.51145e-14
6.29208e-10
5.96172e-06
8.31801e-05
9.7834e-06
0.00023832
0.000191016
0.000111386
0.000142567
0.000161347
0.000126145
0.00027667
0.00538341
0.0285877
0.0524762
0.0644889
0.0714075
0.0734
0.0718385
0.0677388
0.0623997
0.054615
0.0434096
0.0288689
0.0143781
0.00493186
0.00108165
0.000136823
2.93306e-05
4.44049e-24
4.36523e-24
1.14399e-24
6.48301e-25
1.72756e-24
6.92884e-25
4.4458e-25
3.48786e-25
3.00707e-25
2.67714e-25
4.87849e-25
6.32703e-25
2.12404e-25
2.71408e-25
1.41933e-25
6.98364e-26
1.67806e-25
2.14492e-26
1.78549e-26
1.07593e-22
3.2501e-22
5.66577e-22
2.98097e-18
2.99463e-15
9.92354e-12
3.92928e-07
4.94818e-05
1.68155e-05
0.000130523
0.000187267
0.000101643
0.000113248
0.000145358
0.000120301
5.18772e-05
0.000823782
0.0116722
0.0383449
0.0569236
0.0668144
0.0720497
0.073066
0.0712156
0.0671377
0.0618247
0.0539554
0.0427569
0.0283173
0.0140382
0.00480602
0.00105301
0.000133315
2.8615e-05
1.00907e-23
3.29015e-24
1.78236e-24
1.67013e-24
1.19743e-24
8.56539e-26
4.59043e-25
6.57154e-25
2.28928e-25
3.04472e-25
2.27003e-25
5.55019e-26
1.915e-25
2.31893e-26
2.47594e-25
1.97934e-25
1.03001e-25
2.05702e-26
4.27082e-27
1.23581e-22
3.38902e-22
1.82095e-22
1.32355e-19
2.67275e-16
1.56502e-13
1.10679e-08
1.49971e-05
3.41473e-05
4.09919e-05
0.000162685
9.73687e-05
8.74509e-05
0.000121668
0.000112266
4.94218e-05
7.07386e-05
0.00263597
0.0206565
0.0461511
0.0601914
0.0686038
0.0722636
0.0726708
0.070584
0.0665569
0.0612136
0.0532975
0.0421115
0.027764
0.0137118
0.00468125
0.00102594
0.000130051
2.79239e-05
1.40891e-23
2.76446e-24
2.40959e-24
5.30752e-25
4.42129e-25
5.49478e-25
9.22842e-26
9.61826e-26
2.49384e-25
6.0268e-25
1.31108e-25
1.76461e-25
1.84979e-25
3.5045e-25
2.92889e-25
1.19012e-25
5.05922e-26
1.99232e-26
2.49192e-27
1.32958e-22
3.49084e-22
1.42853e-22
7.11253e-21
1.68954e-17
1.41848e-14
1.73322e-10
2.0002e-06
3.47377e-05
2.72674e-06
0.000109968
9.72681e-05
6.7645e-05
9.565e-05
0.000103128
5.14605e-05
7.70409e-06
0.000310046
0.00689669
0.0305336
0.0516947
0.0630174
0.0698181
0.072241
0.0722175
0.069978
0.0659503
0.0605838
0.0526437
0.0414618
0.0272295
0.0133873
0.00456344
0.00100065
0.000126859
2.7266e-05
1.9193e-23
3.67664e-24
1.63563e-24
2.42603e-25
1.83981e-25
5.49866e-25
3.29921e-25
2.18617e-25
3.88635e-25
3.14937e-25
1.47182e-25
2.97255e-25
4.59624e-26
2.20997e-25
5.69685e-26
1.3777e-25
8.52012e-26
1.17822e-26
1.51123e-27
1.32435e-22
3.48676e-22
1.77908e-22
5.21616e-21
7.22872e-19
1.28422e-15
1.89851e-12
1.02407e-07
1.8368e-05
9.30978e-06
5.43049e-05
9.07108e-05
5.58094e-05
7.02523e-05
8.86668e-05
5.42069e-05
4.82356e-06
5.28776e-05
0.00121131
0.0140982
0.0393849
0.055757
0.0653305
0.0705318
0.0720455
0.0717511
0.0693495
0.0653257
0.0599515
0.0519823
0.0408314
0.0266959
0.0130801
0.00445304
0.000975814
0.000123856
2.66403e-05
2.29502e-23
1.31849e-24
5.82378e-25
4.91549e-25
2.76523e-25
6.4272e-25
3.51863e-25
1.01291e-24
3.8662e-25
2.59226e-25
8.82293e-26
1.33307e-25
1.63198e-25
1.09363e-25
1.96547e-25
1.23628e-26
7.39156e-27
1.69984e-26
1.26168e-26
1.19886e-22
3.11791e-22
3.16033e-22
5.37637e-21
4.25664e-20
8.0877e-17
5.75829e-14
2.07758e-09
4.52451e-06
1.62187e-05
1.46418e-05
7.33501e-05
5.01258e-05
4.96887e-05
7.11758e-05
5.72357e-05
4.75217e-06
2.86798e-05
0.000109639
0.00382805
0.0232491
0.0461839
0.0589766
0.0671786
0.0708617
0.0717664
0.0712297
0.0686766
0.0647011
0.0593084
0.0513384
0.0402002
0.0261879
0.0127907
0.00434448
0.000952563
0.000120966
2.60343e-05
2.31808e-23
1.17662e-24
8.48481e-25
5.00191e-25
8.45959e-25
3.5164e-25
4.69855e-25
4.74418e-25
1.38542e-25
2.82981e-25
7.96002e-26
3.31489e-25
5.62544e-26
1.24001e-25
1.24666e-25
1.02706e-25
1.13698e-25
1.46437e-26
2.47072e-27
1.07069e-22
2.52021e-22
4.86963e-22
6.07484e-21
3.17805e-20
3.36015e-18
5.28732e-15
2.26797e-11
4.41401e-07
1.35895e-05
1.17878e-06
4.51345e-05
4.72721e-05
3.59611e-05
5.26921e-05
5.41175e-05
9.59992e-06
1.886e-05
5.90234e-05
0.000495565
0.00909509
0.0325082
0.0511095
0.0618213
0.0684192
0.070962
0.0713859
0.0706343
0.068002
0.0640716
0.0586814
0.0506923
0.0395964
0.0257054
0.012505
0.0042429
0.000930085
0.000118166
2.5461e-05
2.21073e-23
5.53415e-25
5.89177e-25
1.07919e-24
2.36038e-25
1.20081e-24
2.11822e-25
4.56058e-25
6.19319e-25
3.6793e-26
1.06285e-25
3.9182e-25
1.43131e-25
1.39579e-25
5.75561e-26
6.93983e-26
3.56434e-26
1.53238e-27
5.73395e-27
9.70824e-23
1.97706e-22
5.51382e-22
6.06274e-21
2.60092e-20
1.3412e-19
3.37001e-16
2.47571e-13
1.49942e-08
5.57691e-06
5.63603e-06
1.86807e-05
4.20505e-05
2.82281e-05
3.67822e-05
4.63115e-05
1.41313e-05
1.37429e-05
4.77386e-05
3.88887e-05
0.001978
0.0169029
0.0403535
0.0548767
0.0641868
0.0692357
0.0708486
0.07096
0.070015
0.0673305
0.0634647
0.0580513
0.0500719
0.0390183
0.0252267
0.0122371
0.00414452
0.000908328
0.000115525
2.49088e-05
1.84589e-23
8.09565e-25
1.564e-24
3.87983e-25
9.60849e-25
4.11016e-25
1.83726e-25
5.69034e-25
1.4962e-25
1.10226e-25
1.26403e-25
1.11198e-25
1.48023e-25
2.37305e-25
2.06305e-25
2.53737e-26
6.72876e-26
5.13561e-26
8.39157e-28
8.40149e-23
1.65941e-22
5.73141e-22
5.18886e-21
2.31892e-20
9.86594e-20
1.38717e-17
1.88718e-14
1.96111e-10
9.56614e-07
7.49442e-06
3.92462e-06
3.0184e-05
2.49124e-05
2.49833e-05
3.62649e-05
1.884e-05
8.54359e-06
3.61012e-05
4.16113e-05
0.000179828
0.00554723
0.0258666
0.0462578
0.0581334
0.0661127
0.069616
0.0706157
0.0705025
0.0693818
0.0666938
0.0628607
0.0574452
0.0494736
0.0384428
0.0247753
0.0119764
0.00404929
0.000887824
0.000112953
2.43753e-05
1.41208e-23
1.98267e-24
6.44995e-25
9.47313e-25
5.4204e-25
7.02203e-25
9.81188e-26
2.10197e-25
5.63802e-26
1.82784e-25
1.56861e-25
2.79365e-25
2.3289e-25
1.11077e-25
1.39044e-25
5.48558e-26
3.19703e-26
5.06139e-27
1.42244e-27
6.9315e-23
1.47e-22
5.225e-22
4.17499e-21
1.90795e-20
7.25636e-20
2.85679e-19
1.2408e-15
1.50436e-12
5.7485e-08
4.63058e-06
1.44657e-06
1.64321e-05
2.20801e-05
1.77615e-05
2.59648e-05
2.00328e-05
3.97815e-06
2.37145e-05
3.88615e-05
1.90923e-05
0.000975184
0.0116857
0.0343112
0.0507609
0.0610112
0.0673225
0.0697393
0.0703051
0.0700105
0.0687726
0.0660722
0.0622841
0.0568572
0.0488769
0.0378971
0.0243335
0.0117235
0.00395949
0.000867793
0.000110467
2.38691e-05
7.37254e-24
1.06751e-24
1.30359e-24
1.74936e-25
1.10061e-25
3.69849e-25
1.39497e-25
5.58095e-26
2.34346e-25
1.17456e-25
2.30422e-25
2.55037e-25
2.13531e-25
7.03065e-26
7.43531e-27
2.21193e-26
6.18684e-27
3.26387e-26
4.97445e-27
5.44632e-23
1.31233e-22
4.08469e-22
3.41592e-21
1.36317e-20
5.18248e-20
2.40421e-19
5.20655e-17
5.85755e-14
1.10966e-09
1.26649e-06
3.21597e-06
4.95903e-06
1.82122e-05
1.38772e-05
1.74105e-05
1.85662e-05
2.64268e-06
1.36107e-05
2.8301e-05
2.17902e-05
8.29513e-05
0.00316913
0.0197595
0.0412364
0.054327
0.0633838
0.0681078
0.0696839
0.0699252
0.0695218
0.0681727
0.0654887
0.0617251
0.0562693
0.0483092
0.03736
0.0239027
0.0114842
0.00387164
0.00084843
0.000108099
2.33754e-05
4.0939e-24
6.85804e-25
2.32727e-25
8.41344e-25
5.17065e-25
1.49243e-25
4.52363e-25
4.83911e-25
2.87117e-25
1.7538e-25
4.20184e-26
2.32534e-26
1.05175e-25
7.11782e-26
1.35664e-25
4.93346e-26
2.67529e-26
5.29828e-27
4.15118e-27
3.83516e-23
1.29861e-22
2.53426e-22
2.78104e-21
9.57545e-21
3.33666e-20
2.11254e-19
1.51948e-18
4.04621e-15
8.87246e-12
1.26627e-07
2.94443e-06
3.27454e-07
1.16745e-05
1.18444e-05
1.15323e-05
1.50869e-05
3.4919e-06
6.95849e-06
1.96764e-05
2.03152e-05
2.17235e-05
0.000454605
0.00765341
0.0282936
0.0464561
0.0576
0.0652266
0.0685217
0.0694871
0.0695233
0.0690252
0.0676067
0.0649296
0.0611669
0.0557097
0.0477482
0.0368342
0.0234925
0.0112492
0.00378668
0.000829961
0.000105778
2.29057e-05
2.42311e-24
9.18383e-25
3.69179e-25
5.29492e-25
1.02318e-25
7.3076e-26
4.10612e-25
1.70153e-25
2.06768e-25
1.48107e-25
5.15739e-26
6.92678e-26
9.97868e-26
1.16504e-25
4.09774e-26
4.72074e-26
1.14062e-27
1.14612e-27
3.77038e-27
2.51345e-23
1.11899e-22
1.16848e-22
2.17863e-21
6.98711e-21
2.0973e-20
1.44825e-19
6.78282e-19
1.76258e-16
1.59134e-13
3.8925e-09
1.20886e-06
1.12539e-06
4.84445e-06
1.0075e-05
8.0069e-06
1.09593e-05
4.6781e-06
2.91647e-06
1.21073e-05
1.3844e-05
2.03824e-05
4.35666e-05
0.00171784
0.0144243
0.0359595
0.0505978
0.0604774
0.0664464
0.0686593
0.0692171
0.0690977
0.0685465
0.0670609
0.0643774
0.0606379
0.0551548
0.0471981
0.0363304
0.0230875
0.0110213
0.00370556
0.000811843
0.000103598
2.24683e-05
1.28149e-24
1.00086e-24
3.23716e-25
5.58481e-25
5.4157e-25
3.20318e-25
3.81262e-25
1.17421e-25
1.85604e-25
1.43668e-25
1.0346e-25
7.51434e-26
1.63135e-25
5.5352e-26
4.1036e-26
4.3131e-26
2.41744e-26
9.62237e-27
3.68507e-27
1.41544e-23
8.22698e-23
8.02158e-23
1.69258e-21
5.54109e-21
1.1897e-20
9.79075e-20
4.59128e-19
6.67495e-18
1.14895e-14
3.85792e-11
1.90587e-07
1.57721e-06
9.0122e-07
6.96683e-06
6.35321e-06
7.38142e-06
5.57072e-06
5.03448e-07
6.81983e-06
9.47349e-06
1.32386e-05
1.94713e-05
0.000221048
0.00472549
0.0225308
0.0420467
0.0541242
0.062884
0.067189
0.0686218
0.0688906
0.0686804
0.0680727
0.0665195
0.063861
0.0601127
0.0546099
0.0466685
0.0358303
0.0226926
0.0108031
0.00362595
0.000794904
0.000101558
2.20415e-05
1.05635e-24
2.50351e-25
3.61521e-25
2.57784e-25
4.75768e-25
2.6355e-25
1.9607e-26
3.99168e-25
1.79998e-25
2.49492e-25
2.60786e-26
5.90941e-26
8.5729e-26
4.87659e-26
6.5279e-26
4.0757e-26
2.10802e-26
8.66651e-27
3.30477e-27
5.51259e-24
5.54144e-23
8.83403e-23
1.16535e-21
4.70169e-21
5.41597e-21
6.98054e-20
2.98177e-19
1.47587e-18
5.19797e-16
3.96692e-13
9.33209e-09
8.79853e-07
3.04344e-07
3.67636e-06
5.28506e-06
4.98898e-06
5.21449e-06
5.71376e-07
3.2616e-06
6.79347e-06
7.3354e-06
1.46786e-05
3.77532e-05
0.000896382
0.0100384
0.0305379
0.0467823
0.0574134
0.0645971
0.0675868
0.0684583
0.0685502
0.0682619
0.0675891
0.0660145
0.0633521
0.0595972
0.0540832
0.0461411
0.0353401
0.0223123
0.0105883
0.00355155
0.000779029
9.95459e-05
2.16276e-05
5.08816e-25
1.26954e-25
3.38252e-25
4.33826e-25
1.94893e-25
4.80679e-25
3.21489e-25
2.34043e-25
3.4573e-26
4.71757e-26
2.56616e-25
4.426e-27
2.89631e-26
4.9458e-26
1.89261e-27
1.25918e-27
2.29949e-26
6.87701e-27
3.35047e-27
1.95018e-24
3.46525e-23
8.48042e-23
7.09532e-22
3.72211e-21
4.02446e-21
5.27536e-20
1.9297e-19
7.33715e-19
1.8824e-17
2.82882e-14
1.27866e-10
2.00701e-07
6.92589e-07
1.02215e-06
4.13683e-06
3.64912e-06
4.05949e-06
1.20675e-06
1.16646e-06
4.92232e-06
4.73906e-06
7.49325e-06
2.00993e-05
0.000121735
0.00277055
0.0172416
0.0374341
0.0506717
0.0602616
0.0657685
0.0677207
0.0682313
0.0681958
0.067827
0.067132
0.0655171
0.0628556
0.059097
0.0535579
0.0456229
0.0348655
0.0219367
0.0103872
0.00348168
0.000763303
9.76092e-05
2.12319e-05
4.70387e-25
5.35641e-25
5.66149e-25
1.6806e-25
2.31287e-25
3.1772e-26
1.28392e-25
1.0018e-25
6.39861e-26
3.48541e-25
1.39104e-25
1.60486e-25
2.41613e-26
8.18024e-26
8.08455e-26
3.70133e-26
9.31422e-27
1.5299e-26
1.95213e-27
2.5666e-25
1.84257e-23
7.85667e-23
3.14116e-22
2.68546e-21
4.37134e-21
3.85973e-20
1.40897e-19
3.88919e-19
3.09704e-18
1.3335e-15
9.67559e-13
1.48561e-08
5.55965e-07
5.63122e-08
2.42268e-06
2.88374e-06
2.91064e-06
1.68224e-06
4.27687e-07
3.20962e-06
3.69944e-06
3.21942e-06
9.90635e-06
3.25978e-05
0.000462102
0.00663255
0.025191
0.0428569
0.0542318
0.0626122
0.0664365
0.0676927
0.0679615
0.0678145
0.0674153
0.0666745
0.0650322
0.0623722
0.0585968
0.0530461
0.04512
0.0343956
0.0215832
0.0101976
0.00341241
0.00074822
9.57511e-05
2.08415e-05
5.1361e-25
1.85847e-25
6.72146e-26
3.55616e-25
1.33704e-25
1.95818e-26
1.61203e-25
7.76009e-26
1.57256e-25
5.51454e-26
9.76609e-26
1.10943e-25
1.54077e-26
3.70432e-26
2.37243e-26
1.58044e-26
1.63682e-26
1.2571e-26
2.4557e-27
7.92629e-26
9.15583e-24
5.47688e-23
9.50245e-23
1.78828e-21
4.1336e-21
2.49922e-20
1.12018e-19
1.72604e-19
1.8207e-18
4.0936e-17
6.22553e-14
2.93008e-10
1.71564e-07
2.86231e-07
8.19546e-07
2.29015e-06
2.05815e-06
1.70565e-06
2.14147e-07
1.83382e-06
2.92571e-06
1.49096e-06
3.64636e-06
1.75742e-05
7.3916e-05
0.00154987
0.012652
0.0326259
0.0472502
0.0574803
0.0641545
0.0667831
0.0675616
0.0676452
0.0674508
0.067001
0.0662221
0.0645492
0.0618877
0.0581176
0.0525483
0.0446217
0.0339508
0.0212476
0.010009
0.003346
0.000733728
9.3906e-05
2.0462e-05
4.05548e-25
1.96524e-25
3.7058e-25
2.82733e-25
3.62564e-28
1.7915e-25
1.9123e-25
2.11175e-25
9.77016e-26
1.07126e-25
2.82222e-26
1.09651e-25
6.57133e-26
4.6821e-26
1.03195e-26
3.03736e-26
3.81092e-27
1.10673e-26
2.55475e-27
1.13663e-24
3.26787e-24
3.19579e-23
5.75317e-23
1.05822e-21
3.80656e-21
1.23996e-20
8.89413e-20
1.13841e-19
1.27453e-18
5.91762e-18
3.09301e-15
2.14991e-12
1.81439e-08
2.97612e-07
1.09706e-07
1.43936e-06
1.58994e-06
1.4357e-06
2.968e-07
8.82143e-07
2.15063e-06
9.24239e-07
1.35587e-06
7.55122e-06
2.65939e-05
0.000243102
0.00415924
0.0200893
0.0388107
0.0509497
0.0602533
0.0651872
0.0669098
0.0673423
0.0673343
0.0670811
0.0665887
0.0657692
0.0640594
0.0614238
0.0576504
0.0520543
0.0441485
0.0335256
0.0209127
0.00982801
0.00328211
0.000719311
9.21237e-05
2.00928e-05
9.91723e-26
2.81624e-25
5.03165e-25
4.01002e-26
1.10435e-25
8.58985e-26
3.50846e-25
1.39313e-25
5.14139e-26
1.10166e-25
1.1373e-25
9.29485e-26
1.17105e-25
1.01368e-26
7.6873e-27
4.2538e-26
1.23589e-26
6.43177e-27
2.72102e-27
2.66527e-25
5.81283e-25
1.71692e-23
4.87188e-23
5.25249e-22
2.90874e-21
3.61842e-21
6.234e-20
1.15704e-19
8.42504e-19
3.61173e-18
9.06114e-17
1.20419e-13
5.11458e-10
1.21605e-07
1.08395e-07
6.11562e-07
1.2438e-06
1.10056e-06
4.19884e-07
3.1205e-07
1.3941e-06
8.22288e-07
5.99426e-07
3.05179e-06
1.45998e-05
5.34931e-05
0.000831993
0.0088585
0.0277317
0.0436955
0.0545237
0.0623858
0.065798
0.0668655
0.0671006
0.0670105
0.0667098
0.066194
0.0653069
0.0635871
0.0609738
0.0571857
0.0515839
0.0436934
0.0331
0.0205899
0.00965335
0.00321853
0.000705423
9.03701e-05
1.97254e-05
5.01995e-25
4.56476e-25
6.42139e-25
1.9101e-25
1.9654e-25
1.92732e-25
2.58813e-25
1.21105e-26
1.16303e-26