/*--------------------------------*- C++ -*----------------------------------*\
| =========                 |                                                 |
| \\      /  F ield         | OpenFOAM: The Open Source CFD Toolbox           |
|  \\    /   O peration     | Version:  v2012                                 |
|   \\  /    A nd           | Website:  www.openfoam.com                      |
|    \\/     M anipulation  |                                                 |
\*---------------------------------------------------------------------------*/
FoamFile
{
    version     2.0;
    format      ascii;
    class       volScalarField;
    location    "1801";
    object      nk;
}
// * * * * * * * * * * * * * * * * * * * * * * * * * * * * * * * * * * * * * //

dimensions      [0 0 0 0 0 0 0];


internalField   nonuniform List<scalar> 
8000
(
1.37072e-18
8.08462e-20
1.43282e-18
1.88475e-20
8.42244e-20
1.43745e-18
8.33086e-21
1.92571e-20
8.54398e-20
1.43759e-18
5.04455e-21
8.42876e-21
1.96412e-20
8.64793e-20
1.4376e-18
4.04273e-21
5.08425e-21
8.57871e-21
2.00407e-20
8.84392e-20
1.4376e-18
4.04273e-21
4.04273e-21
5.15884e-21
8.76313e-21
2.05439e-20
8.9165e-20
1.4376e-18
4.04273e-21
4.04273e-21
4.04273e-21
5.26062e-21
8.97545e-21
2.08972e-20
8.93353e-20
1.4376e-18
4.04273e-21
4.04273e-21
4.04273e-21
4.04273e-21
5.38085e-21
9.17009e-21
2.1186e-20
8.9368e-20
1.4376e-18
4.04273e-21
4.04273e-21
4.04273e-21
4.04273e-21
4.04273e-21
5.50474e-21
9.349e-21
2.14414e-20
8.93738e-20
1.4376e-18
4.04273e-21
4.04273e-21
4.04273e-21
4.04273e-21
4.04273e-21
4.04273e-21
5.62633e-21
9.51429e-21
2.15782e-20
8.93749e-20
1.4376e-18
4.04273e-21
4.04273e-21
4.04273e-21
4.04273e-21
4.04273e-21
4.04273e-21
4.05137e-21
5.74253e-21
9.64889e-21
2.16323e-20
8.93752e-20
1.4376e-18
4.04273e-21
4.04273e-21
4.04273e-21
4.04273e-21
4.04273e-21
4.04273e-21
4.04273e-21
4.11387e-21
5.84725e-21
9.75052e-21
2.165e-20
8.93753e-20
1.4376e-18
4.04273e-21
4.04273e-21
4.04273e-21
4.04273e-21
4.04273e-21
4.04273e-21
4.04273e-21
4.04273e-21
4.18973e-21
5.93729e-21
9.808e-21
2.16553e-20
8.93753e-20
1.4376e-18
4.04273e-21
4.04273e-21
4.04273e-21
4.04273e-21
4.04273e-21
4.04273e-21
4.04273e-21
4.04273e-21
4.04273e-21
4.2637e-21
6.00688e-21
9.83356e-21
2.16568e-20
8.93753e-20
1.4376e-18
4.04273e-21
4.04273e-21
4.04273e-21
4.04273e-21
4.04273e-21
4.04273e-21
4.04273e-21
4.04273e-21
4.04273e-21
4.04273e-21
4.32812e-21
6.0504e-21
9.84324e-21
2.16572e-20
8.93753e-20
1.4376e-18
1.51714e-18
4.04273e-21
4.04273e-21
4.04273e-21
4.04273e-21
4.04273e-21
4.04273e-21
4.04273e-21
4.04273e-21
4.04273e-21
4.04273e-21
4.3773e-21
6.07186e-21
9.84656e-21
2.16573e-20
8.93753e-20
1.4376e-18
2.25002e-14
7.93989e-19
4.04273e-21
4.04273e-21
4.04273e-21
4.04273e-21
4.04273e-21
4.04273e-21
4.04273e-21
4.04273e-21
4.04273e-21
4.04273e-21
4.40767e-21
6.08072e-21
9.84766e-21
2.16574e-20
8.93753e-20
1.4376e-18
2.70402e-10
9.77156e-15
3.08188e-19
4.04273e-21
4.04273e-21
4.04273e-21
4.04273e-21
4.04273e-21
4.04273e-21
4.04273e-21
4.04273e-21
4.04273e-21
4.04273e-21
4.42264e-21
6.084e-21
9.84802e-21
2.16574e-20
8.93753e-20
1.4376e-18
2.6144e-06
9.29881e-11
3.31291e-15
1.11345e-19
4.04273e-21
4.04273e-21
4.04273e-21
4.04273e-21
4.04273e-21
4.04273e-21
4.04273e-21
4.04273e-21
4.04273e-21
4.04273e-21
4.42887e-21
6.08515e-21
9.84815e-21
2.16574e-20
8.93753e-20
1.4376e-18
6.66316e-07
0.0532707
2.85822e-11
1.14698e-15
4.50053e-20
4.04273e-21
4.04273e-21
4.04273e-21
4.04273e-21
4.04273e-21
4.04273e-21
4.04273e-21
4.04273e-21
4.04273e-21
4.04273e-21
4.43122e-21
6.08555e-21
9.8482e-21
2.16574e-20
8.93753e-20
1.4376e-18
1.99368e-07
0.00427547
0.0659868
1.02651e-11
4.66712e-16
2.18468e-20
4.04273e-21
4.04273e-21
4.04273e-21
4.04273e-21
4.04273e-21
4.04273e-21
4.04273e-21
4.04273e-21
4.04273e-21
4.04273e-21
4.43206e-21
6.0857e-21
9.84822e-21
2.16574e-20
8.93753e-20
1.4376e-18
7.80574e-08
0.00115817
0.00245989
0.0616358
4.51629e-12
2.16725e-16
1.23161e-20
4.04273e-21
4.04273e-21
4.04273e-21
4.04273e-21
4.04273e-21
4.04273e-21
4.04273e-21
4.04273e-21
4.04273e-21
4.04273e-21
4.43236e-21
6.08575e-21
9.84822e-21
2.16574e-20
8.93753e-20
1.4376e-18
3.68154e-08
0.000477324
0.000880878
0.00128921
0.0612724
2.19787e-12
1.04564e-16
7.82439e-21
4.04273e-21
4.04273e-21
4.04273e-21
4.04273e-21
4.04273e-21
4.04273e-21
4.04273e-21
4.04273e-21
4.04273e-21
4.04273e-21
4.43248e-21
6.08578e-21
9.84823e-21
2.16574e-20
8.93753e-20
1.4376e-18
1.84463e-08
0.000231694
0.000473184
0.000435771
0.00112273
0.0611996
1.07957e-12
4.89441e-17
5.59351e-21
4.04273e-21
4.04273e-21
4.04273e-21
4.04273e-21
4.04273e-21
4.04273e-21
4.04273e-21
4.04273e-21
4.04273e-21
4.04273e-21
4.43252e-21
6.08579e-21
9.84823e-21
2.16574e-20
8.93753e-20
1.4376e-18
9.14854e-09
0.000118774
0.000275662
0.000363131
0.00027079
0.00109205
0.061179
5.08058e-13
2.06996e-17
4.52215e-21
4.04273e-21
4.04273e-21
4.04273e-21
4.04273e-21
4.04273e-21
4.04273e-21
4.04273e-21
4.04273e-21
4.04273e-21
4.04273e-21
4.43254e-21
6.08579e-21
9.84823e-21
2.16574e-20
8.93753e-20
1.4376e-18
4.31794e-09
6.04387e-05
0.000169263
0.000278139
0.000276908
0.000221283
0.00107926
0.0611713
2.14139e-13
7.028e-18
4.10631e-21
4.04273e-21
4.04273e-21
4.04273e-21
4.04273e-21
4.04273e-21
4.04273e-21
4.04273e-21
4.04273e-21
4.04273e-21
4.04273e-21
4.43255e-21
6.08579e-21
9.84823e-21
2.16574e-20
8.93753e-20
1.4376e-18
1.81374e-09
2.9297e-05
0.000107742
0.000188393
0.000293161
0.000228977
0.000214019
0.00108245
0.0611764
7.11709e-14
1.80693e-18
4.04273e-21
4.04273e-21
4.04273e-21
4.04273e-21
4.04273e-21
4.04273e-21
4.04273e-21
4.04273e-21
4.04273e-21
4.04273e-21
4.04273e-21
4.43255e-21
6.08579e-21
9.84823e-21
2.16574e-20
8.93753e-20
1.4376e-18
5.91301e-10
1.26251e-05
6.87955e-05
0.000123198
0.000244489
0.00029212
0.000226688
0.00023374
0.00110214
0.0611958
1.76842e-14
3.29419e-19
4.04273e-21
4.04273e-21
4.04273e-21
4.04273e-21
4.04273e-21
4.04273e-21
4.04273e-21
4.04273e-21
4.04273e-21
4.04273e-21
4.04273e-21
4.43256e-21
6.08579e-21
9.84823e-21
2.16574e-20
8.93753e-20
1.4376e-18
1.42809e-10
4.26029e-06
4.27787e-05
8.18109e-05
0.000166539
0.000296703
0.000314163
0.000268691
0.000289967
0.00114568
0.0612388
3.02549e-15
4.36078e-20
4.04273e-21
4.04273e-21
4.04273e-21
4.04273e-21
4.04273e-21
4.04273e-21
4.04273e-21
4.04273e-21
4.04273e-21
4.04273e-21
4.04273e-21
4.43256e-21
6.08579e-21
9.84823e-21
2.16574e-20
8.93753e-20
1.4376e-18
2.32757e-11
1.02979e-06
2.52689e-05
5.53707e-05
0.000103041
0.000253978
0.000369963
0.000391246
0.000377985
0.00040241
0.00123343
0.0613286
3.40073e-16
7.30335e-21
4.04273e-21
4.04273e-21
4.04273e-21
4.04273e-21
4.04273e-21
4.04273e-21
4.04273e-21
4.04273e-21
4.04273e-21
4.04273e-21
4.04273e-21
4.43256e-21
6.08579e-21
9.84823e-21
2.16574e-20
8.93753e-20
1.4376e-18
2.42788e-12
1.63043e-07
1.38844e-05
3.73603e-05
6.54982e-05
0.000166701
0.000365415
0.00050053
0.000570893
0.000592918
0.000623333
0.00140795
0.0614939
2.59809e-17
4.19505e-21
4.04273e-21
4.04273e-21
4.04273e-21
4.04273e-21
4.04273e-21
4.04273e-21
4.04273e-21
4.04273e-21
4.04273e-21
4.04273e-21
4.04273e-21
4.43256e-21
6.08579e-21
9.84823e-21
2.16574e-20
8.93753e-20
1.4376e-18
1.69624e-13
1.60104e-08
7.03274e-06
2.45259e-05
4.39294e-05
9.53334e-05
0.000297411
0.00053843
0.000763976
0.000916532
0.00101422
0.00106522
0.00171424
0.0616992
1.70763e-18
4.04273e-21
4.04273e-21
4.04273e-21
4.04273e-21
4.04273e-21
4.04273e-21
4.04273e-21
4.04273e-21
4.04273e-21
4.04273e-21
4.04273e-21
4.04273e-21
4.43256e-21
6.08579e-21
9.84823e-21
2.16574e-20
8.93753e-20
1.4376e-18
1.10317e-14
1.03699e-09
3.16884e-06
1.53013e-05
3.02405e-05
5.58523e-05
0.00017714
0.000527353
0.000873005
0.00125198
0.00159234
0.00185611
0.0018673
0.00209621
0.0619877
1.42118e-19
4.04273e-21
4.04273e-21
4.04273e-21
4.04273e-21
4.04273e-21
4.04273e-21
4.04273e-21
4.04273e-21
4.04273e-21
4.04273e-21
4.04273e-21
4.04273e-21
4.43256e-21
6.08579e-21
9.84823e-21
2.16574e-20
8.93753e-20
1.4376e-18
9.99735e-16
6.90403e-11
1.13138e-06
8.96796e-06
2.0611e-05
3.56381e-05
9.08878e-05
0.000372625
0.000933234
0.00147911
0.00220148
0.00293899
0.00338121
0.0029765
0.00262142
0.0622167
1.52968e-20
4.04273e-21
4.04273e-21
4.04273e-21
4.04273e-21
4.04273e-21
4.04273e-21
4.04273e-21
4.04273e-21
4.04273e-21
4.04273e-21
4.04273e-21
4.04273e-21
4.43256e-21
6.08579e-21
9.84823e-21
2.16574e-20
8.93753e-20
1.4376e-18
8.46406e-17
6.99365e-12
2.90197e-07
4.84215e-06
1.35678e-05
2.39745e-05
4.89034e-05
0.000190253
0.000784596
0.00160966
0.00265231
0.00408096
0.00535485
0.00553239
0.00433141
0.00304926
0.0623691
4.62333e-21
4.04273e-21
4.04273e-21
4.04273e-21
4.04273e-21
4.04273e-21
4.04273e-21
4.04273e-21
4.04273e-21
4.04273e-21
4.04273e-21
4.04273e-21
4.04273e-21
4.43256e-21
6.08579e-21
9.84823e-21
2.16574e-20
8.93753e-20
1.4376e-18
4.58325e-18
5.98677e-13
4.70931e-08
2.38182e-06
8.45353e-06
1.63773e-05
2.93683e-05
8.69867e-05
0.000459939
0.001557
0.00290876
0.00494459
0.00738776
0.00874773
0.00806744
0.00542858
0.00333848
0.0624552
4.04273e-21
4.04273e-21
4.04273e-21
4.04273e-21
4.04273e-21
4.04273e-21
4.04273e-21
4.04273e-21
4.04273e-21
4.04273e-21
4.04273e-21
4.04273e-21
4.04273e-21
4.43256e-21
6.08579e-21
9.84823e-21
2.16574e-20
8.93753e-20
1.4376e-18
1.76584e-19
3.05391e-14
4.23492e-09
1.06124e-06
4.91108e-06
1.09171e-05
1.911e-05
4.31304e-05
0.000199852
0.00109177
0.00299286
0.00538984
0.00885239
0.0119051
0.0126061
0.0101039
0.0061686
0.00349149
0.0625167
4.04273e-21
4.04273e-21
4.04273e-21
4.04273e-21
4.04273e-21
4.04273e-21
4.04273e-21
4.04273e-21
4.04273e-21
4.04273e-21
4.04273e-21
4.04273e-21
4.04273e-21
4.43256e-21
6.08579e-21
9.84823e-21
2.16574e-20
8.93753e-20
1.4376e-18
1.04572e-20
1.08766e-15
2.03588e-10
4.06005e-07
2.64895e-06
6.98008e-06
1.27814e-05
2.44578e-05
8.21286e-05
0.000522
0.00237619
0.00556175
0.0094435
0.013914
0.0167898
0.0156448
0.0114732
0.00656576
0.00359289
0.0625434
4.04273e-21
4.04273e-21
4.04273e-21
4.04273e-21
4.04273e-21
4.04273e-21
4.04273e-21
4.04273e-21
4.04273e-21
4.04273e-21
4.04273e-21
4.04273e-21
4.04273e-21
4.43256e-21
6.08579e-21
9.84823e-21
2.16574e-20
8.93753e-20
1.4376e-18
4.21598e-21
4.23198e-17
6.91381e-12
1.15901e-07
1.31713e-06
4.21959e-06
8.42929e-06
1.52761e-05
3.78914e-05
0.000198194
0.00133
0.0046433
0.00945326
0.0143507
0.0190645
0.020485
0.0176674
0.0122275
0.00682878
0.00364518
0.0625618
4.04273e-21
4.04273e-21
4.04273e-21
4.04273e-21
4.04273e-21
4.04273e-21
4.04273e-21
4.04273e-21
4.04273e-21
4.04273e-21
4.04273e-21
4.04273e-21
4.04273e-21
4.43256e-21
6.08579e-21
9.84823e-21
2.16574e-20
8.93753e-20
1.4376e-18
4.04273e-21
1.55066e-18
2.90441e-13
2.03053e-08
5.9198e-07
2.38825e-06
5.38531e-06
9.89776e-06
2.03025e-05
7.5681e-05
0.000529235
0.0029417
0.00789929
0.0138504
0.0190823
0.0227668
0.0228948
0.0188094
0.0127266
0.00696555
0.00368751
0.0625772
4.04273e-21
4.04273e-21
4.04273e-21
4.04273e-21
4.04273e-21
4.04273e-21
4.04273e-21
4.04273e-21
4.04273e-21
4.04273e-21
4.04273e-21
4.04273e-21
4.04273e-21
4.43256e-21
6.08579e-21
9.84823e-21
2.16574e-20
8.93753e-20
1.4376e-18
4.04273e-21
4.16895e-20
1.08461e-14
1.82978e-09
2.35667e-07
1.24774e-06
3.28122e-06
6.3841e-06
1.21173e-05
3.30015e-05
0.000182364
0.00133044
0.00536788
0.0115674
0.0177626
0.0223695
0.0251674
0.0242932
0.0195625
0.0129899
0.0070752
0.00372012
0.0625821
4.04273e-21
4.04273e-21
4.04273e-21
4.04273e-21
4.04273e-21
4.04273e-21
4.04273e-21
4.04273e-21
4.04273e-21
4.04273e-21
4.04273e-21
4.04273e-21
4.04273e-21
4.43256e-21
6.08579e-21
9.84823e-21
2.16574e-20
8.93753e-20
1.4376e-18
4.04273e-21
4.70443e-21
2.47518e-16
7.63928e-11
7.78531e-08
5.96852e-07
1.88961e-06
4.00236e-06
7.58046e-06
1.67195e-05
6.65436e-05
0.000461069
0.00278986
0.00828462
0.0148096
0.0205054
0.0245704
0.0266358
0.0252063
0.0199708
0.0131983
0.00715937
0.00373819
0.0625902
4.04273e-21
4.04273e-21
4.04273e-21
4.04273e-21
4.04273e-21
4.04273e-21
4.04273e-21
4.04273e-21
4.04273e-21
4.04273e-21
4.04273e-21
4.04273e-21
4.04273e-21
4.43256e-21
6.08579e-21
9.84823e-21
2.16574e-20
8.93753e-20
1.4376e-18
4.04273e-21
4.04273e-21
4.52093e-18
1.62259e-12
1.81864e-08
2.59539e-07
1.01587e-06
2.40807e-06
4.74961e-06
9.48756e-06
2.7724e-05
0.000150921
0.00106323
0.00487002
0.0110572
0.0171357
0.0224261
0.0259739
0.0275843
0.025739
0.0202963
0.0133583
0.00720648
0.00375946
0.0626064
4.04273e-21
4.04273e-21
4.04273e-21
4.04273e-21
4.04273e-21
4.04273e-21
4.04273e-21
4.04273e-21
4.04273e-21
4.04273e-21
4.04273e-21
4.04273e-21
4.04273e-21
4.43256e-21
6.08579e-21
9.84823e-21
2.16574e-20
8.93753e-20
1.4376e-18
4.04273e-21
4.04273e-21
8.17206e-20
2.93139e-14
2.3891e-09
1.00373e-07
5.05828e-07
1.3796e-06
2.90104e-06
5.70245e-06
1.33464e-05
5.37734e-05
0.000337229
0.00217446
0.00715981
0.0131767
0.0188907
0.0237345
0.0269337
0.0282243
0.0261786
0.0205508
0.0134504
0.00726047
0.00377833
0.062621
4.04273e-21
4.04273e-21
4.04273e-21
4.04273e-21
4.04273e-21
4.04273e-21
4.04273e-21
4.04273e-21
4.04273e-21
4.04273e-21
4.04273e-21
4.04273e-21
4.04273e-21
4.43256e-21
6.08579e-21
9.84823e-21
2.16574e-20
8.93753e-20
1.4376e-18
4.04273e-21
4.04273e-21
4.99927e-21
5.24939e-16
1.43077e-10
3.31103e-08
2.29618e-07
7.45038e-07
1.7042e-06
3.4568e-06
7.22916e-06
2.1712e-05
0.000108529
0.000737763
0.0037478
0.00922678
0.0149026
0.0202562
0.0247009
0.027649
0.0287739
0.0265417
0.0207099
0.0135517
0.00730785
0.00379578
0.0626227
4.04273e-21
4.04273e-21
4.04273e-21
4.04273e-21
4.04273e-21
4.04273e-21
4.04273e-21
4.04273e-21
4.04273e-21
4.04273e-21
4.04273e-21
4.04273e-21
4.04273e-21
4.43256e-21
6.08579e-21
9.84823e-21
2.16574e-20
8.93753e-20
1.4376e-18
4.04273e-21
4.04273e-21
4.04273e-21
6.54402e-18
3.50156e-12
8.27189e-09
9.43397e-08
3.76671e-07
9.5403e-07
2.04896e-06
4.17876e-06
1.00734e-05
3.83311e-05
0.000226099
0.00147095
0.00552009
0.0109269
0.0163583
0.0213476
0.0254797
0.0282814
0.0292578
0.0268041
0.0208792
0.013641
0.00735185
0.00380672
0.0626228
4.04273e-21
4.04273e-21
4.04273e-21
4.04273e-21
4.04273e-21
4.04273e-21
4.04273e-21
4.04273e-21
4.04273e-21
4.04273e-21
4.04273e-21
4.04273e-21
4.04273e-21
4.43256e-21
6.08579e-21
9.84823e-21
2.16574e-20
8.93753e-20
1.4376e-18
4.04273e-21
4.04273e-21
4.04273e-21
7.0446e-20
4.18897e-14
1.24193e-09
3.44406e-08
1.76249e-07
5.08944e-07
1.16625e-06
2.44798e-06
5.27128e-06
1.5285e-05
7.2405e-05
0.00046475
0.00259743
0.00723668
0.0124411
0.017595
0.0222673
0.026187
0.0288558
0.0296573
0.027078
0.0210321
0.0137245
0.00738002
0.00381502
0.0626298
4.04273e-21
4.04273e-21
4.04273e-21
4.04273e-21
4.04273e-21
4.04273e-21
4.04273e-21
4.04273e-21
4.04273e-21
4.04273e-21
4.04273e-21
4.04273e-21
4.04273e-21
4.43256e-21
6.08579e-21
9.84823e-21
2.16574e-20
8.93753e-20
1.4376e-18
4.04273e-21
4.04273e-21
4.04273e-21
4.55075e-21
4.22332e-16
8.57351e-11
1.08048e-08
7.49893e-08
2.55798e-07
6.35578e-07
1.40219e-06
2.95006e-06
7.01296e-06
2.52853e-05
0.00014184
0.000925551
0.00402149
0.0087841
0.0137861
0.0186731
0.0230988
0.026835
0.0293622
0.0300688
0.0273362
0.0211764
0.0137797
0.00740075
0.00382165
0.0626345
4.04273e-21
4.04273e-21
4.04273e-21
4.04273e-21
4.04273e-21
4.04273e-21
4.04273e-21
4.04273e-21
4.04273e-21
4.04273e-21
4.04273e-21
4.04273e-21
4.04273e-21
4.43256e-21
6.08579e-21
9.84823e-21
2.16574e-20
8.93753e-20
1.4376e-18
4.04273e-21
4.04273e-21
4.04273e-21
4.04273e-21
3.62501e-18
2.23018e-12
2.61377e-09
2.86391e-08
1.20645e-07
3.29377e-07
7.73796e-07
1.67101e-06
3.619e-06
1.00149e-05
4.51511e-05
0.000286022
0.00172625
0.00551075
0.0101639
0.0150017
0.0196468
0.0238646
0.0274234
0.0298768
0.0304694
0.0275831
0.0212804
0.0138191
0.00741687
0.00382401
0.0626321
4.04273e-21
4.04273e-21
4.04273e-21
4.04273e-21
4.04273e-21
4.04273e-21
4.04273e-21
4.04273e-21
4.04273e-21
4.04273e-21
4.04273e-21
4.04273e-21
4.04273e-21
4.43256e-21
6.08579e-21
9.84823e-21
2.16574e-20
8.93753e-20
1.4376e-18
4.04273e-21
4.04273e-21
4.04273e-21
4.04273e-21
2.80521e-20
2.25608e-14
3.85623e-10
9.68196e-09
5.2533e-08
1.62802e-07
4.07546e-07
9.26807e-07
1.98045e-06
4.59651e-06
1.56353e-05
8.75758e-05
0.000589278
0.0028404
0.00692297
0.0114616
0.0161107
0.0205407
0.0245676
0.0280139
0.0303833
0.0308565
0.0277838
0.0213581
0.01385
0.00742229
0.00382583
0.0626283
4.04273e-21
4.04273e-21
4.04273e-21
4.04273e-21
4.04273e-21
4.04273e-21
4.04273e-21
4.04273e-21
4.04273e-21
4.04273e-21
4.04273e-21
4.04273e-21
4.04273e-21
4.43256e-21
6.08579e-21
9.84823e-21
2.16574e-20
8.93753e-20
1.4376e-18
4.04273e-21
4.04273e-21
4.04273e-21
4.04273e-21
4.10809e-21
1.45552e-16
2.55301e-11
2.79258e-09
2.07201e-08
7.59664e-08
2.05171e-07
4.94212e-07
1.09116e-06
2.3566e-06
6.22373e-06
2.7507e-05
0.000185563
0.00113941
0.00410419
0.00822819
0.0126672
0.017131
0.0213624
0.0252546
0.028598
0.0308756
0.0311987
0.0279481
0.0214223
0.0138616
0.00742671
0.00382616
0.0626304
4.04273e-21
4.04273e-21
4.04273e-21
4.04273e-21
4.04273e-21
4.04273e-21
4.04273e-21
4.04273e-21
4.04273e-21
4.04273e-21
4.04273e-21
4.04273e-21
4.04273e-21
4.43256e-21
6.08579e-21
9.84823e-21
2.16574e-20
8.93753e-20
1.4376e-18
4.04273e-21
4.04273e-21
4.04273e-21
4.04273e-21
4.04273e-21
8.14881e-19
5.88337e-13
6.11676e-10
7.27767e-09
3.31911e-08
9.83402e-08
2.52205e-07
5.86171e-07
1.26674e-06
2.87978e-06
9.4505e-06
5.6797e-05
0.000388046
0.00196685
0.00537924
0.009454
0.0137932
0.0180716
0.0221484
0.0259261
0.0291681
0.0313302
0.0314925
0.0280939
0.0214582
0.0138711
0.00742722
0.00382819
0.0626324
4.04273e-21
4.04273e-21
4.04273e-21
4.04273e-21
4.04273e-21
4.04273e-21
4.04273e-21
4.04273e-21
4.04273e-21
4.04273e-21
4.04273e-21
4.04273e-21
4.04273e-21
4.43256e-21
6.08579e-21
9.84823e-21
2.16574e-20
8.93753e-20
1.4376e-18
4.04273e-21
4.04273e-21
4.04273e-21
4.04273e-21
4.04273e-21
7.56784e-21
4.63363e-15
7.84903e-11
2.23983e-09
1.33678e-08
4.49589e-08
1.22683e-07
3.02899e-07
6.7919e-07
1.47004e-06
3.78315e-06
1.74114e-05
0.000124769
0.000761125
0.00300634
0.00660649
0.0106345
0.0148417
0.018959
0.0229066
0.0265768
0.0297067
0.0317565
0.0317638
0.0282046
0.0214899
0.0138733
0.00743166
0.00382893
0.0626313
4.04273e-21
4.04273e-21
4.04273e-21
4.04273e-21
4.04273e-21
4.04273e-21
4.04273e-21
4.04273e-21
4.04273e-21
4.04273e-21
4.04273e-21
4.04273e-21
4.04273e-21
4.43256e-21
6.08579e-21
9.84823e-21
2.16574e-20
8.93753e-20
1.4376e-18
4.04273e-21
4.04273e-21
4.04273e-21
4.04273e-21
4.04273e-21
4.04273e-21
2.0315e-17
4.18868e-12
5.77312e-10
4.82502e-09
1.94012e-08
5.70588e-08
1.49489e-07
3.53991e-07
7.74844e-07
1.75676e-06
5.85449e-06
3.79747e-05
0.000265049
0.00135907
0.00413255
0.00776995
0.0117551
0.0158262
0.0198051
0.0236354
0.027196
0.0302226
0.0321578
0.0319978
0.0283072
0.0215101
0.013882
0.00743302
0.00382709
0.0626309
4.04273e-21
4.04273e-21
4.04273e-21
4.04273e-21
4.04273e-21
4.04273e-21
4.04273e-21
4.04273e-21
4.04273e-21
4.04273e-21
4.04273e-21
4.04273e-21
4.04273e-21
4.43256e-21
6.08579e-21
9.84823e-21
2.16574e-20
8.93753e-20
1.4376e-18
4.04273e-21
4.04273e-21
4.04273e-21
4.04273e-21
4.04273e-21
4.04273e-21
7.77199e-20
7.00731e-14
1.07688e-10
1.53599e-09
7.82092e-09
2.52755e-08
7.04887e-08
1.77058e-07
4.03994e-07
8.86219e-07
2.31783e-06
1.14262e-05
8.69163e-05
0.000520591
0.00217387
0.00525935
0.00889572
0.0128171
0.0167588
0.0206117
0.0243295
0.0277898
0.0307123
0.032522
0.0322188
0.0283945
0.0215383
0.0138856
0.00742798
0.00382705
0.0626296
4.04273e-21
4.04273e-21
4.04273e-21
4.04273e-21
4.04273e-21
4.04273e-21
4.04273e-21
4.04273e-21
4.04273e-21
4.04273e-21
4.04273e-21
4.04273e-21
4.04273e-21
4.43256e-21
6.08579e-21
9.84823e-21
2.16574e-20
8.93753e-20
1.4376e-18
4.04273e-21
4.04273e-21
4.04273e-21
4.04273e-21
4.04273e-21
4.04273e-21
4.18508e-21
3.73536e-16
1.06836e-11
4.22028e-10
2.88647e-09
1.06907e-08
3.16807e-08
8.46997e-08
2.03834e-07
4.55617e-07
1.06177e-06
3.74504e-06
2.64337e-05
0.000185166
0.000942181
0.00313481
0.0063597
0.00999093
0.0138267
0.0176425
0.0213784
0.0249929
0.0283537
0.0311666
0.0328691
0.0324228
0.0284879
0.0215586
0.0138774
0.0074274
0.00382517
0.0626281
4.04273e-21
4.04273e-21
4.04273e-21
4.04273e-21
4.04273e-21
4.04273e-21
4.04273e-21
4.04273e-21
4.04273e-21
4.04273e-21
4.04273e-21
4.04273e-21
4.04273e-21
4.43256e-21
6.08579e-21
9.84823e-21
2.16574e-20
8.93753e-20
1.4376e-18
4.04273e-21
4.04273e-21
4.04273e-21
4.04273e-21
4.04273e-21
4.04273e-21
4.04273e-21
1.1319e-18
3.86571e-13
9.32885e-11
9.41554e-10
4.25715e-09
1.36358e-08
3.86384e-08
9.8723e-08
2.29936e-07
5.22802e-07
1.4399e-06
7.85466e-06
6.11496e-05
0.000362182
0.0015609
0.00415435
0.00742386
0.0110493
0.0147838
0.0184803
0.022109
0.0256217
0.0288814
0.0316011
0.0331985
0.0326282
0.0285689
0.0215614
0.013877
0.00742225
0.00382285
0.0626267
4.04273e-21
4.04273e-21
4.04273e-21
4.04273e-21
4.04273e-21
4.04273e-21
4.04273e-21
4.04273e-21
4.04273e-21
4.04273e-21
4.04273e-21
4.04273e-21
4.04273e-21
4.43256e-21
6.08579e-21
9.84823e-21
2.16574e-20
8.93753e-20
1.4376e-18
4.04273e-21
4.04273e-21
4.04273e-21
4.04273e-21
4.04273e-21
4.04273e-21
4.04273e-21
6.74466e-21
3.86438e-15
1.35084e-11
2.67514e-10
1.57275e-09
5.59079e-09
1.68574e-08
4.56938e-08
1.12083e-07
2.598e-07
6.3865e-07
2.49642e-06
1.85298e-05
0.000130364
0.000659077
0.0023521
0.00517485
0.00847566
0.0120629
0.0156914
0.0192764
0.0228008
0.026212
0.0293855
0.0320175
0.033524
0.0328159
0.0286271
0.021574
0.0138685
0.00741591
0.003821
0.0626248
4.04273e-21
4.04273e-21
4.04273e-21
4.04273e-21
4.04273e-21
4.04273e-21
4.04273e-21
4.04273e-21
4.04273e-21
4.04273e-21
4.04273e-21
4.04273e-21
4.04273e-21
4.43256e-21
6.08579e-21
9.84823e-21
2.16574e-20
8.93753e-20
1.4376e-18
4.04273e-21
4.04273e-21
4.04273e-21
4.04273e-21
4.04273e-21
4.04273e-21
4.04273e-21
4.04273e-21
1.25434e-17
8.85564e-13
6.38851e-11
5.24626e-10
2.18449e-09
7.01728e-09
2.02272e-08
5.24175e-08
1.26202e-07
3.03248e-07
9.15111e-07
5.43597e-06
4.2821e-05
0.000255203
0.00111786
0.00324656
0.00618187
0.00950756
0.0130312
0.0165534
0.0200299
0.0234514
0.0267741
0.0298695
0.0324262
0.033828
0.032978
0.0286936
0.0215743
0.0138575
0.00741076
0.00381741
0.0626231
4.04273e-21
4.04273e-21
4.04273e-21
4.04273e-21
4.04273e-21
4.04273e-21
4.04273e-21
4.04273e-21
4.04273e-21
4.04273e-21
4.04273e-21
4.04273e-21
4.04273e-21
4.43256e-21
6.08579e-21
9.84823e-21
2.16574e-20
8.93753e-20
1.4376e-18
4.04273e-21
4.04273e-21
4.04273e-21
4.04273e-21
4.04273e-21
4.04273e-21
4.04273e-21
4.04273e-21
2.99484e-20
1.7646e-14
1.13647e-11
1.52594e-10
7.98746e-10
2.79772e-09
8.54838e-09
2.34957e-08
5.91285e-08
1.449e-07
3.84758e-07
1.67413e-06
1.28525e-05
9.19904e-05
0.000465954
0.00174573
0.00418261
0.00717358
0.0105132
0.0139547
0.0173692
0.0207392
0.0240689
0.027313
0.0303415
0.0328116
0.0341055
0.0331434
0.0287435
0.0215702
0.0138485
0.00740124
0.00381344
0.0626209
4.04273e-21
4.04273e-21
4.04273e-21
4.04273e-21
4.04273e-21
4.04273e-21
4.04273e-21
4.04273e-21
4.04273e-21
4.04273e-21
4.04273e-21
4.04273e-21
4.04273e-21
4.43256e-21
6.08579e-21
9.84823e-21
2.16574e-20
8.93753e-20
1.4376e-18
4.04273e-21
4.04273e-21
4.04273e-21
4.04273e-21
4.04273e-21
4.04273e-21
4.04273e-21
4.04273e-21
4.04273e-21
8.78869e-17
1.11639e-12
3.79013e-11
2.68366e-10
1.06288e-09
3.45712e-09
1.00757e-08
2.66316e-08
6.75297e-08
1.73587e-07
5.81647e-07
3.71132e-06
2.99569e-05
0.0001811
0.000799093
0.00250879
0.00512611
0.0081689
0.0114835
0.014831
0.0181378
0.0214106
0.024659
0.0278353
0.0307888
0.0331705
0.0343805
0.0332888
0.0287858
0.0215681
0.0138315
0.00739069
0.00380902
0.0626178
4.04273e-21
4.04273e-21
4.04273e-21
4.04273e-21
4.04273e-21
4.04273e-21
4.04273e-21
4.04273e-21
4.04273e-21
4.04273e-21
4.04273e-21
4.04273e-21
4.04273e-21
4.43256e-21
6.08579e-21
9.84823e-21
2.16574e-20
8.93753e-20
1.4376e-18
4.04273e-21
4.04273e-21
4.04273e-21
4.04273e-21
4.04273e-21
4.04273e-21
4.04273e-21
4.04273e-21
4.04273e-21
1.76507e-19
3.93842e-14
7.52454e-12
7.93138e-11
3.8205e-10
1.33713e-09
4.13617e-09
1.15137e-08
3.03544e-08
7.90373e-08
2.29757e-07
1.10823e-06
8.91459e-06
6.46503e-05
0.000330852
0.00128371
0.0033513
0.00606493
0.00915354
0.0124125
0.0156586
0.0188634
0.02205
0.0252276
0.0283314
0.0312092
0.0335225
0.0346336
0.0334234
0.0288277
0.0215538
0.0138125
0.00737905
0.0038036
0.0626155
4.04273e-21
4.04273e-21
4.04273e-21
4.04273e-21
4.04273e-21
4.04273e-21
4.04273e-21
4.04273e-21
4.04273e-21
4.04273e-21
4.04273e-21
4.04273e-21
4.04273e-21
4.43256e-21
6.08579e-21
9.84823e-21
2.16574e-20
8.93753e-20
1.4376e-18
4.04273e-21
4.04273e-21
4.04273e-21
4.04273e-21
4.04273e-21
4.04273e-21
4.04273e-21
4.04273e-21
4.04273e-21
4.20223e-21
3.42647e-16
9.70109e-13
2.00808e-11
1.27564e-10
4.9381e-10
1.62474e-09
4.77905e-09
1.31144e-08
3.51849e-08
9.76941e-08
3.6566e-07
2.53756e-06
2.07306e-05
0.000127894
0.00057099
0.00191581
0.00422593
0.00700943
0.0101149
0.0132954
0.0164399
0.0195524
0.0226626
0.0257675
0.0287999
0.0316187
0.0338519
0.0348732
0.033553
0.028853
0.0215356
0.0137915
0.0073649
0.00379995
0.0626131
4.04273e-21
4.04273e-21
4.04273e-21
4.04273e-21
4.04273e-21
4.04273e-21
4.04273e-21
4.04273e-21
4.04273e-21
4.04273e-21
4.04273e-21
4.04273e-21
4.04273e-21
4.43256e-21
6.08579e-21
9.84823e-21
2.16574e-20
8.93753e-20
1.4376e-18
4.04273e-21
4.04273e-21
4.04273e-21
4.04273e-21
4.04273e-21
4.04273e-21
4.04273e-21
4.04273e-21
4.04273e-21
4.04273e-21
7.94925e-19
5.40388e-14
4.2238e-12
3.8299e-11
1.73817e-10
6.0997e-10
1.90292e-09
5.44545e-09
1.51235e-08
4.21823e-08
1.35559e-07
7.34427e-07
6.07813e-06
4.48013e-05
0.000234544
0.000937612
0.00265679
0.00511362
0.00795946
0.0110407
0.0141318
0.0171801
0.0202088
0.0232437
0.0262783
0.0292538
0.0320052
0.0341658
0.0351032
0.0336627
0.0288715
0.0215141
0.0137658
0.00735517
0.00379602
0.0626099
4.04273e-21
4.04273e-21
4.04273e-21
4.04273e-21
4.04273e-21
4.04273e-21
4.04273e-21
4.04273e-21
4.04273e-21
4.04273e-21
4.04273e-21
4.04273e-21
4.04273e-21
4.43256e-21
6.08579e-21
9.84823e-21
2.16574e-20
8.93753e-20
1.4376e-18
4.04273e-21
4.04273e-21
4.04273e-21
4.04273e-21
4.04273e-21
4.04273e-21
4.04273e-21
4.04273e-21
4.04273e-21
4.04273e-21
5.02716e-21
8.18132e-16
6.32533e-13
9.85223e-12
5.72168e-11
2.19242e-10
7.25688e-10
2.17595e-09
6.25826e-09
1.78817e-08
5.41997e-08
2.29528e-07
1.69747e-06
1.40659e-05
8.9203e-05
0.000408928
0.00144711
0.00345982
0.00600462
0.00890104
0.0119261
0.0149245
0.0178826
0.0208306
0.0237936
0.0267703
0.0296838
0.0323743
0.0344667
0.0353113
0.0337621
0.0288839
0.0214853
0.013748
0.00734484
0.00379034
0.0626073
4.04273e-21
4.04273e-21
4.04273e-21
4.04273e-21
4.04273e-21
4.04273e-21
4.04273e-21
4.04273e-21
4.04273e-21
4.04273e-21
4.04273e-21
4.04273e-21
4.04273e-21
4.43256e-21
6.08579e-21
9.84823e-21
2.16574e-20
8.93753e-20
1.4376e-18
4.04273e-21
4.04273e-21
4.04273e-21
4.04273e-21
4.04273e-21
4.04273e-21
4.04273e-21
4.04273e-21
4.04273e-21
4.04273e-21
4.04273e-21
2.67898e-18
4.8227e-14
2.11288e-12
1.71325e-11
7.51229e-11
2.65158e-10
8.36618e-10
2.49237e-09
7.34224e-09
2.21504e-08
7.94514e-08
4.75318e-07
4.04845e-06
3.04418e-05
0.000166179
0.000682035
0.00208292
0.00429023
0.00691206
0.00981823
0.0127693
0.0156753
0.0185469
0.0214187
0.0243208
0.0272372
0.0300949
0.0327276
0.0347449
0.0355064
0.0338519
0.0288861
0.0214671
0.0137293
0.0073301
0.00378553
0.0626043
4.04273e-21
4.04273e-21
4.04273e-21
4.04273e-21
4.04273e-21
4.04273e-21
4.04273e-21
4.04273e-21
4.04273e-21
4.04273e-21
4.04273e-21
4.04273e-21
4.04273e-21
4.43256e-21
6.08579e-21
9.84823e-21
2.16574e-20
8.93753e-20
1.4376e-18
4.04273e-21
4.04273e-21
4.04273e-21
4.04273e-21
4.04273e-21
4.04273e-21
4.04273e-21
4.04273e-21
4.04273e-21
4.04273e-21
4.04273e-21
7.31048e-21
1.14917e-15
3.48917e-13
4.44967e-12
2.42266e-11
9.28129e-11
3.0938e-10
9.55995e-10
2.90985e-09
8.9326e-09
2.96952e-08
1.40877e-07
1.10661e-06
9.32504e-06
6.16914e-05
0.000292843
0.0010824
0.00280613
0.00513418
0.0078222
0.0107025
0.0135692
0.0163848
0.0191747
0.0219799
0.024821
0.027683
0.0304873
0.0330572
0.0350079
0.0356886
0.0339292
0.028899
0.0214473
0.0137025
0.00731746
0.00378033
0.0626008
4.04273e-21
4.04273e-21
4.04273e-21
4.04273e-21
4.04273e-21
4.04273e-21
4.04273e-21
4.04273e-21
4.04273e-21
4.04273e-21
4.04273e-21
4.04273e-21
4.04273e-21
4.43256e-21
6.08579e-21
9.84823e-21
2.16574e-20
8.93753e-20
1.4376e-18
4.04273e-21
4.04273e-21
4.04273e-21
4.04273e-21
4.04273e-21
4.04273e-21
4.04273e-21
4.04273e-21
4.04273e-21
4.04273e-21
4.04273e-21
4.04273e-21
5.72777e-18
3.32125e-14
9.67995e-13
7.21305e-12
3.09259e-11
1.09973e-10
3.53794e-10
1.11165e-09
3.4993e-09
1.14333e-08
4.55976e-08
2.99885e-07
2.62709e-06
2.04268e-05
0.000116916
0.000495058
0.00161357
0.00357684
0.00598934
0.00872579
0.0115475
0.0143261
0.0170549
0.0197715
0.0225122
0.0252977
0.0281074
0.0308554
0.0333684
0.0352559
0.035857
0.0340142
0.0289079
0.0214153
0.0136793
0.00730392
0.00377404
0.0625977
4.04273e-21
4.04273e-21
4.04273e-21
4.04273e-21
4.04273e-21
4.04273e-21
4.04273e-21
4.04273e-21
4.04273e-21
4.04273e-21
4.04273e-21
4.04273e-21
4.04273e-21
4.43256e-21
6.08579e-21
9.84823e-21
2.16574e-20
8.93753e-20
1.4376e-18
4.04273e-21
4.04273e-21
4.04273e-21
4.04273e-21
4.04273e-21
4.04273e-21
4.04273e-21
4.04273e-21
4.04273e-21
4.04273e-21
4.04273e-21
4.04273e-21
1.15669e-20
1.14297e-15
1.66893e-13
1.88149e-12
9.79442e-12
3.7374e-11
1.26421e-10
4.09619e-10
1.32424e-09
4.37285e-09
1.59236e-08
8.44966e-08
7.01709e-07
6.09098e-06
4.21004e-05
0.00020925
0.000802602
0.00225106
0.00437415
0.00686653
0.00960279
0.0123515
0.0150413
0.01769
0.020337
0.0230186
0.0257514
0.0285064
0.0312043
0.0336634
0.0354896
0.036029
0.0340912
0.0289008
0.021388
0.0136545
0.00728759
0.00376849
0.0625937
4.04273e-21
4.04273e-21
4.04273e-21
4.04273e-21
4.04273e-21
4.04273e-21
4.04273e-21
4.04273e-21
4.04273e-21
4.04273e-21
4.04273e-21
4.04273e-21
4.04273e-21
4.43256e-21
6.08579e-21
9.84823e-21
2.16574e-20
8.93753e-20
1.4376e-18
4.04273e-21
4.04273e-21
4.04273e-21
4.04273e-21
4.04273e-21
4.04273e-21
4.04273e-21
4.04273e-21
4.04273e-21
4.04273e-21
4.04273e-21
4.04273e-21
4.04273e-21
8.64996e-18
1.83409e-14
4.11758e-13
2.8662e-12
1.21669e-11
4.34641e-11
1.45723e-10
4.83723e-10
1.63011e-09
5.77032e-09
2.5618e-08
1.84125e-07
1.67554e-06
1.35019e-05
8.14372e-05
0.000358199
0.00123492
0.00296044
0.00518463
0.00774466
0.0104475
0.0131132
0.0157175
0.0182908
0.0208739
0.0235003
0.026179
0.0288848
0.0315355
0.0339437
0.0357234
0.0361894
0.03415
0.0288979