/*--------------------------------*- C++ -*----------------------------------*\
| =========                 |                                                 |
| \\      /  F ield         | OpenFOAM: The Open Source CFD Toolbox           |
|  \\    /   O peration     | Version:  v2012                                 |
|   \\  /    A nd           | Website:  www.openfoam.com                      |
|    \\/     M anipulation  |                                                 |
\*---------------------------------------------------------------------------*/
FoamFile
{
    version     2.0;
    format      ascii;
    class       volScalarField;
    location    "1801";
    object      nut;
}
// * * * * * * * * * * * * * * * * * * * * * * * * * * * * * * * * * * * * * //

dimensions      [0 2 -1 0 0 0 0];


internalField   nonuniform List<scalar> 
8000
(
8.50163e-21
7.42459e-21
9.308e-21
6.73683e-21
7.87677e-21
9.36079e-21
6.29031e-21
6.92327e-21
8.02602e-21
9.36218e-21
5.99679e-21
6.37815e-21
7.09298e-21
8.20475e-21
9.36222e-21
6.47299e-21
6.0509e-21
6.51216e-21
7.28681e-21
8.63612e-21
9.36222e-21
7.9589e-21
6.4779e-21
6.15293e-21
6.68305e-21
7.5638e-21
8.76722e-21
9.36222e-21
9.23954e-21
7.96348e-21
6.4881e-21
6.29476e-21
6.89075e-21
7.75391e-21
8.79418e-21
9.36222e-21
1.03225e-20
9.24391e-21
7.97332e-21
6.50394e-21
6.46705e-21
7.08612e-21
7.97337e-21
8.7991e-21
9.36222e-21
1.12277e-20
1.03267e-20
9.25342e-21
7.98891e-21
6.52558e-21
6.64995e-21
7.28934e-21
8.20644e-21
8.8e-21
9.36222e-21
1.19788e-20
1.12318e-20
1.0336e-20
9.26869e-21
8.01054e-21
6.55263e-21
6.84132e-21
7.50062e-21
8.3172e-21
8.80018e-21
9.36222e-21
1.25989e-20
1.19829e-20
1.12409e-20
1.03509e-20
9.29019e-21
8.03845e-21
6.60086e-21
7.03937e-21
7.70797e-21
8.35633e-21
8.80023e-21
9.36222e-21
1.3109e-20
1.26029e-20
1.19917e-20
1.12556e-20
1.03723e-20
9.31841e-21
8.07377e-21
6.74613e-21
7.23896e-21
7.90361e-21
8.36841e-21
8.80024e-21
9.36222e-21
1.35277e-20
1.3113e-20
1.26116e-20
1.20063e-20
1.12768e-20
1.04006e-20
9.35436e-21
8.11804e-21
6.92553e-21
7.44189e-21
8.01159e-21
8.37195e-21
8.80025e-21
9.36222e-21
1.38706e-20
1.35316e-20
1.31216e-20
1.26261e-20
1.20273e-20
1.1305e-20
1.04368e-20
9.39955e-21
8.17332e-21
7.1184e-21
7.64104e-21
8.0565e-21
8.37299e-21
8.80025e-21
9.36222e-21
1.41511e-20
1.38745e-20
1.35402e-20
1.31359e-20
1.26469e-20
1.20555e-20
1.13415e-20
1.04826e-20
9.45615e-21
8.24297e-21
7.31746e-21
7.7769e-21
8.07277e-21
8.37331e-21
8.80025e-21
9.36222e-21
5.39659e-18
1.41549e-20
1.3883e-20
1.35544e-20
1.31567e-20
1.2675e-20
1.2092e-20
1.13876e-20
1.054e-20
9.52744e-21
8.33149e-21
7.50826e-21
7.84225e-21
8.07831e-21
8.37341e-21
8.80025e-21
9.36222e-21
8.10767e-14
2.82503e-18
1.41634e-20
1.38971e-20
1.3575e-20
1.31847e-20
1.27116e-20
1.21383e-20
1.14455e-20
1.06123e-20
9.61779e-21
8.44348e-21
7.63927e-21
7.86844e-21
8.08019e-21
8.37345e-21
8.80025e-21
9.36222e-21
9.85141e-10
3.52198e-14
1.09718e-18
1.41775e-20
1.39177e-20
1.3603e-20
1.32213e-20
1.2758e-20
1.21966e-20
1.15185e-20
1.07038e-20
9.73239e-21
8.56103e-21
7.7038e-21
7.87808e-21
8.08084e-21
8.37347e-21
8.80025e-21
9.36222e-21
8.65823e-07
3.38911e-10
1.19477e-14
3.96788e-19
1.4198e-20
1.39456e-20
1.36396e-20
1.32678e-20
1.28166e-20
1.22701e-20
1.16108e-20
1.08198e-20
9.87191e-21
8.63708e-21
7.73035e-21
7.88155e-21
8.08108e-21
8.37347e-21
8.80025e-21
9.36222e-21
4.55862e-07
1.40034e-05
1.04244e-10
4.14043e-15
1.60608e-19
1.42259e-20
1.39822e-20
1.36861e-20
1.33265e-20
1.28903e-20
1.23628e-20
1.17276e-20
1.09662e-20
9.99033e-21
8.67259e-21
7.74042e-21
7.88281e-21
8.08117e-21
8.37347e-21
8.80025e-21
9.36222e-21
2.5161e-07
1.34899e-05
1.0826e-06
3.74637e-11
1.68712e-15
7.81139e-20
1.42624e-20
1.40288e-20
1.3745e-20
1.34005e-20
1.29834e-20
1.24802e-20
1.18758e-20
1.11167e-20
1.00554e-20
8.68698e-21
7.74416e-21
7.8833e-21
8.08121e-21
8.37347e-21
8.80025e-21
9.36222e-21
1.68777e-07
1.2734e-05
1.92995e-06
3.21467e-07
1.65004e-11
7.84932e-16
4.41479e-20
1.43091e-20
1.40877e-20
1.38191e-20
1.34938e-20
1.31012e-20
1.26291e-20
1.20458e-20
1.12142e-20
1.00838e-20
8.69257e-21
7.74559e-21
7.88349e-21
8.08123e-21
8.37347e-21
8.80025e-21
9.36222e-21
1.23158e-07
1.23118e-05
4.58876e-06
3.7554e-07
1.70694e-07
8.04539e-12
3.79652e-16
2.81373e-20
1.4368e-20
1.41619e-20
1.39126e-20
1.36119e-20
1.32505e-20
1.28095e-20
1.21737e-20
1.12604e-20
1.00952e-20
8.69476e-21
7.74615e-21
7.88357e-21
8.08123e-21
8.37348e-21
8.80025e-21
9.36222e-21
6.50378e-08
1.2004e-05
7.41918e-06
1.08169e-06
1.75177e-07
1.11703e-07
3.96162e-12
1.78272e-16
2.01965e-20
1.44423e-20
1.42556e-20
1.40309e-20
1.37615e-20
1.34361e-20
1.29628e-20
1.22396e-20
1.12796e-20
1.00997e-20
8.69565e-21
7.74638e-21
7.8836e-21
8.08124e-21
8.37348e-21
8.80025e-21
9.36222e-21
3.26595e-08
1.17038e-05
9.18279e-06
3.41809e-06
3.76781e-07
1.11369e-07
7.93424e-08
1.86974e-12
7.56974e-17
1.64113e-20
1.45361e-20
1.4374e-20
1.41807e-20
1.39496e-20
1.36092e-20
1.30483e-20
1.22679e-20
1.12872e-20
1.01015e-20
8.69602e-21
7.74648e-21
7.88362e-21
8.08124e-21
8.37348e-21
8.80025e-21
9.36222e-21
1.55991e-08
1.13946e-05
9.99764e-06
6.41954e-06
1.5817e-06
2.03662e-07
7.87274e-08
6.07501e-08
7.91164e-13
2.58305e-17
1.49976e-20
1.46547e-20
1.45239e-20
1.437e-20
1.41375e-20
1.37129e-20
1.30864e-20
1.22794e-20
1.12903e-20
1.01022e-20
8.69618e-21
7.74652e-21
7.88363e-21
8.08124e-21
8.37348e-21
8.80025e-21
9.36222e-21
6.63411e-09
1.0971e-05
1.02154e-05
8.71295e-06
4.33677e-06
8.9933e-07
1.4247e-07
6.06353e-08
4.8933e-08
2.64263e-13
6.68312e-18
1.4884e-20
1.48047e-20
1.47139e-20
1.45689e-20
1.42575e-20
1.37607e-20
1.3102e-20
1.2284e-20
1.12916e-20
1.01025e-20
8.69625e-21
7.74654e-21
7.88363e-21
8.08124e-21
8.37348e-21
8.80025e-21
9.36222e-21
2.1871e-09
9.94416e-06
1.02925e-05
9.73095e-06
7.69447e-06
3.08583e-06
6.62929e-07
1.20258e-07
4.97999e-08
4.1109e-08
6.60739e-14
1.22806e-18
1.50341e-20
1.49949e-20
1.49207e-20
1.47027e-20
1.43145e-20
1.37806e-20
1.31083e-20
1.22859e-20
1.12922e-20
1.01027e-20
8.69628e-21
7.74655e-21
7.88363e-21
8.08124e-21
8.37348e-21
8.80025e-21
9.36222e-21
5.33925e-10
3.1292e-06
1.02494e-05
1.00265e-05
1.01253e-05
5.9015e-06
2.5514e-06
6.19284e-07
1.20786e-07
4.34824e-08
3.60059e-08
1.13931e-14
1.64188e-19
1.52244e-20
1.52076e-20
1.50662e-20
1.47681e-20
1.43385e-20
1.37887e-20
1.3111e-20
1.22868e-20
1.12924e-20
1.01028e-20
8.6963e-21
7.74656e-21
7.88363e-21
8.08124e-21
8.37348e-21
8.80025e-21
9.36222e-21
8.79844e-11
9.77361e-07
9.97288e-06
1.00391e-05
1.07362e-05
1.07887e-05
5.82172e-06
2.579e-06
7.14707e-07
1.41061e-07
4.09163e-08
3.29732e-08
1.29326e-15
2.78419e-20
1.54414e-20
1.53628e-20
1.51392e-20
1.4796e-20
1.43483e-20
1.37921e-20
1.31121e-20
1.22871e-20
1.12925e-20
1.01028e-20
8.6963e-21
7.74656e-21
7.88363e-21
8.08124e-21
8.37348e-21
8.80025e-21
9.36222e-21
9.28827e-12
2.2553e-07
9.28795e-06
9.91785e-06
1.05048e-05
1.32385e-05
1.05176e-05
6.78428e-06
3.16267e-06
9.51872e-07
1.91023e-07
4.26579e-08
3.15542e-08
1.00026e-16
1.62209e-20
1.56046e-20
1.54422e-20
1.51705e-20
1.48074e-20
1.43524e-20
1.37935e-20
1.31126e-20
1.22873e-20
1.12926e-20
1.01028e-20
8.69631e-21
7.74656e-21
7.88363e-21
8.08124e-21
8.37348e-21
8.80025e-21
9.36222e-21
6.57799e-13
3.61004e-08
7.99609e-06
9.67015e-06
1.01631e-05
1.28697e-05
1.7198e-05
1.18989e-05
9.0967e-06
4.39218e-06
1.43145e-06
2.98237e-07
4.94376e-08
3.17814e-08
6.6684e-18
1.58017e-20
1.56896e-20
1.54766e-20
1.51834e-20
1.48121e-20
1.43541e-20
1.37941e-20
1.31128e-20
1.22874e-20
1.12926e-20
1.01028e-20
8.69631e-21
7.74656e-21
7.88363e-21
8.08124e-21
8.37348e-21
8.80025e-21
9.36222e-21
4.34174e-14
3.96332e-09
4.89809e-06
9.20238e-06
9.85221e-06
1.16218e-05
1.85845e-05
2.31177e-05
1.65596e-05
1.31509e-05
6.80258e-06
2.4031e-06
5.00548e-07
5.87941e-08
3.32428e-08
5.61135e-19
1.58914e-20
1.57267e-20
1.54908e-20
1.51887e-20
1.48142e-20
1.43549e-20
1.37944e-20
1.31129e-20
1.22874e-20
1.12926e-20
1.01028e-20
8.69631e-21
7.74656e-21
7.88363e-21
8.08124e-21
8.37348e-21
8.80025e-21
9.36222e-21
3.97824e-15
2.70392e-10
1.48287e-06
8.35003e-06
9.49874e-06
1.0613e-05
1.60577e-05
2.95197e-05
3.29776e-05
2.53501e-05
2.09736e-05
1.16353e-05
4.21941e-06
7.89544e-07
7.68575e-08
3.56532e-08
6.07519e-20
1.59308e-20
1.5742e-20
1.54967e-20
1.5191e-20
1.4815e-20
1.43552e-20
1.37945e-20
1.3113e-20
1.22874e-20
1.12926e-20
1.01028e-20
8.69631e-21
7.74656e-21
7.88363e-21
8.08124e-21
8.37348e-21
8.80025e-21
9.36222e-21
3.38911e-16
2.78686e-11
4.66527e-07
6.88605e-06
8.98886e-06
9.91669e-06
1.32073e-05
2.67798e-05
4.84909e-05
4.58925e-05
4.23815e-05
3.65244e-05
2.06234e-05
6.91737e-06
1.20598e-06
9.57609e-08
3.7601e-08
1.8409e-20
1.59471e-20
1.57484e-20
1.54993e-20
1.5192e-20
1.48154e-20
1.43554e-20
1.37946e-20
1.3113e-20
1.22874e-20
1.12926e-20
1.01028e-20
8.69631e-21
7.74656e-21
7.88363e-21
8.08124e-21
8.37348e-21
8.80025e-21
9.36222e-21
1.84023e-17
2.40924e-12
1.27045e-07
4.8959e-06
8.16443e-06
9.34394e-06
1.12641e-05
2.03062e-05
5.02873e-05
7.973e-05
7.27058e-05
7.59126e-05
6.50312e-05
3.40996e-05
1.06235e-05
1.62289e-06
1.10502e-07
3.89751e-08
1.61144e-20
1.59539e-20
1.57511e-20
1.55004e-20
1.51924e-20
1.48156e-20
1.43554e-20
1.37946e-20
1.3113e-20
1.22874e-20
1.12926e-20
1.01028e-20
8.69631e-21
7.74656e-21
7.88363e-21
8.08124e-21
8.37348e-21
8.80025e-21
9.36222e-21
7.09814e-19
1.23483e-13
1.65267e-08
2.8658e-06
6.89724e-06
8.68651e-06
1.00616e-05
1.51519e-05
3.82344e-05
9.5209e-05
0.000134658
0.000126171
0.000135633
0.000107005
5.18264e-05
1.42946e-05
1.94596e-06
1.19529e-07
3.96063e-08
1.61215e-20
1.59568e-20
1.57523e-20
1.55008e-20
1.51926e-20
1.48157e-20
1.43555e-20
1.37946e-20
1.3113e-20
1.22874e-20
1.12926e-20
1.01028e-20
8.69631e-21
7.74656e-21
7.88363e-21
8.08124e-21
8.37348e-21
8.80025e-21
9.36222e-21
4.20546e-20
4.4071e-15
8.14154e-10
1.29931e-06
5.2042e-06
7.78349e-06
9.17671e-06
1.20328e-05
2.55379e-05
7.94973e-05
0.000175296
0.000232982
0.000219819
0.000219543
0.00015926
6.89287e-05
1.71136e-05
2.14042e-06
1.24786e-07
3.9734e-08
1.61246e-20
1.5958e-20
1.57528e-20
1.55011e-20
1.51927e-20
1.48157e-20
1.43555e-20
1.37946e-20
1.3113e-20
1.22874e-20
1.12926e-20
1.01028e-20
8.69631e-21
7.74656e-21
7.88363e-21
8.08124e-21
8.37348e-21
8.80025e-21
9.36222e-21
1.69583e-20
1.71633e-16
2.79914e-11
4.09765e-07
3.35714e-06
6.53042e-06
8.29959e-06
1.02166e-05
1.73212e-05
5.19854e-05
0.00016437
0.000310617
0.000392167
0.000349814
0.000318326
0.000207578
8.17834e-05
1.88107e-05
2.25687e-06
1.26899e-07
3.93848e-08
1.61259e-20
1.59586e-20
1.57531e-20
1.55012e-20
1.51928e-20
1.48158e-20
1.43555e-20
1.37946e-20
1.3113e-20
1.22874e-20
1.12926e-20
1.01028e-20
8.69631e-21
7.74656e-21
7.88363e-21
8.08124e-21
8.37348e-21
8.80025e-21
9.36222e-21
1.62628e-20
6.29124e-18
1.18347e-12
7.67395e-08
1.79561e-06
4.94916e-06
7.24065e-06
8.9589e-06
1.27893e-05
3.13038e-05
0.000113359
0.00031352
0.000512974
0.000594333
0.000495491
0.000407234
0.000242913
8.95291e-05
1.9824e-05
2.30618e-06
1.27168e-07
3.87571e-08
1.61265e-20
1.59589e-20
1.57532e-20
1.55012e-20
1.51928e-20
1.48158e-20
1.43555e-20
1.37946e-20
1.3113e-20
1.22874e-20
1.12926e-20
1.01028e-20
8.69631e-21
7.74656e-21
7.88363e-21
8.08124e-21
8.37348e-21
8.80025e-21
9.36222e-21
1.62634e-20
1.69165e-19
4.4329e-14
7.22887e-09
7.91808e-07
3.26282e-06
5.90456e-06
7.81923e-06
1.0278e-05
1.95269e-05
6.56962e-05
0.000234885
0.000531423
0.000760794
0.000795589
0.000629361
0.000474257
0.000264439
9.414e-05
2.0254e-05
2.31964e-06
1.26171e-07
3.79737e-08
1.61268e-20
1.5959e-20
1.57533e-20
1.55012e-20
1.51928e-20
1.48158e-20
1.43555e-20
1.37946e-20
1.3113e-20
1.22874e-20
1.12926e-20
1.01028e-20
8.69631e-21
7.74656e-21
7.88363e-21
8.08124e-21
8.37348e-21
8.80025e-21
9.36222e-21
1.62637e-20
1.90904e-20
1.01298e-15
3.09297e-10
2.77491e-07
1.82919e-06
4.36504e-06
6.55469e-06
8.62544e-06
1.34335e-05
3.64161e-05
0.00013973
0.000428712
0.000802444
0.00101634
0.000969574
0.000730877
0.000517896
0.000277298
9.61427e-05
2.03721e-05
2.30772e-06
1.2416e-07
3.70463e-08
1.61269e-20
1.5959e-20
1.57533e-20
1.55013e-20
1.51928e-20
1.48158e-20
1.43555e-20
1.37946e-20
1.3113e-20
1.22874e-20
1.12926e-20
1.01028e-20
8.69631e-21
7.74656e-21
7.88363e-21
8.08124e-21
8.37348e-21
8.80025e-21
9.36222e-21
1.62638e-20
1.64056e-20
1.85116e-17
6.64925e-12
6.79083e-08
8.72078e-07
2.8462e-06
5.11095e-06
7.20687e-06
1.01782e-05
2.11483e-05
7.43065e-05
0.00027046
0.000689868
0.00108725
0.00118099
0.00109471
0.000797975
0.000545258
0.000283378
9.67541e-05
2.02739e-05
2.27416e-06
1.21797e-07
3.60903e-08
1.6127e-20
1.59591e-20
1.57533e-20
1.55013e-20
1.51928e-20
1.48158e-20
1.43555e-20
1.37946e-20
1.3113e-20
1.22874e-20
1.12926e-20
1.01028e-20
8.69631e-21
7.74656e-21
7.88363e-21
8.08124e-21
8.37348e-21
8.80025e-21
9.36222e-21
1.62639e-20
1.64058e-20
3.34674e-19
1.20806e-13
9.34349e-09
3.55117e-07
1.61396e-06
3.61285e-06
5.74653e-06
8.11839e-06
1.36454e-05
3.86999e-05
0.000145028
0.000475083
0.000984485
0.00127045
0.00129528
0.00116906
0.000842067
0.000561725
0.000285771
9.64239e-05
1.99904e-05
2.23492e-06
1.1922e-07
3.51781e-08
1.6127e-20
1.59591e-20
1.57533e-20
1.55013e-20
1.51928e-20
1.48158e-20
1.43555e-20
1.37946e-20
1.3113e-20
1.22874e-20
1.12926e-20
1.01028e-20
8.69631e-21
7.74656e-21
7.88363e-21
8.08124e-21
8.37348e-21
8.80025e-21
9.36222e-21
1.62639e-20
1.64059e-20
2.04748e-20
2.16838e-15
5.79537e-10
1.21067e-07
7.92283e-07
2.27333e-06
4.23237e-06
6.43792e-06
9.77268e-06
2.12983e-05
7.26279e-05
0.000268306
0.000740958
0.00127153
0.00140361
0.0013911
0.00121714
0.000869476
0.000571071
0.000285728
9.52875e-05
1.96582e-05
2.19098e-06
1.16707e-07
3.42884e-08
1.6127e-20
1.59591e-20
1.57533e-20
1.55013e-20
1.51928e-20
1.48158e-20
1.43555e-20
1.37946e-20
1.3113e-20
1.22874e-20
1.12926e-20
1.01028e-20
8.69631e-21
7.74656e-21
7.88363e-21
8.08124e-21
8.37348e-21
8.80025e-21
9.36222e-21
1.62639e-20
1.64059e-20
1.65574e-20
2.70547e-17
1.44383e-11
3.11956e-08
3.39165e-07
1.26985e-06
2.81631e-06
4.838e-06
7.38175e-06
1.30823e-05
3.61745e-05
0.000135527
0.000454414
0.00103842
0.00143438
0.00152647
0.00146832
0.00125104
0.000886612
0.000576116
0.000283642
9.39294e-05
1.92862e-05
2.14778e-06
1.14054e-07
3.33605e-08
1.6127e-20
1.59591e-20
1.57533e-20
1.55013e-20
1.51928e-20
1.48158e-20
1.43555e-20
1.37946e-20
1.3113e-20
1.22874e-20
1.12926e-20
1.01028e-20
8.69631e-21
7.74656e-21
7.88363e-21
8.08124e-21
8.37348e-21
8.80025e-21
9.36222e-21
1.62639e-20
1.64059e-20
1.65575e-20
2.91318e-19
1.74221e-13
4.87056e-09
1.2686e-07
6.29884e-07
1.68847e-06
3.332e-06
5.51528e-06
8.92904e-06
1.92749e-05
6.47468e-05
0.000239575
0.000706657
0.00133321
0.00158409
0.00163711
0.00153023
0.00127524
0.000896886
0.000577836
0.000280921
9.23957e-05
1.89198e-05
2.10074e-06
1.11206e-07
3.24614e-08
1.6127e-20
1.59591e-20
1.57533e-20
1.55013e-20
1.51928e-20
1.48158e-20
1.43555e-20
1.37946e-20
1.3113e-20
1.22874e-20
1.12926e-20
1.01028e-20
8.69631e-21
7.74656e-21
7.88363e-21
8.08124e-21
8.37348e-21
8.80025e-21
9.36222e-21
1.6264e-20
1.64059e-20
1.65575e-20
1.88201e-20
1.76208e-15
3.49279e-10
4.05456e-08
2.77066e-07
9.12053e-07
2.07931e-06
3.87225e-06
6.38722e-06
1.15364e-05
3.10121e-05
0.000116264
0.000401656
0.00100741
0.00155111
0.00172189
0.00173535
0.00157947
0.00128801
0.000902191
0.000578161
0.000277731
9.08744e-05
1.85191e-05
2.04963e-06
1.08383e-07
3.16007e-08
1.6127e-20
1.59591e-20
1.57533e-20
1.55013e-20
1.51928e-20
1.48158e-20
1.43555e-20
1.37946e-20
1.3113e-20
1.22874e-20
1.12926e-20
1.01028e-20
8.69631e-21
7.74656e-21
7.88363e-21
8.08124e-21
8.37348e-21
8.80025e-21
9.36222e-21
1.6264e-20
1.64059e-20
1.65575e-20
1.67194e-20
1.51411e-17
9.28166e-12
1.00416e-08
1.07604e-07
4.48426e-07
1.17567e-06
2.48767e-06
4.4719e-06
7.6103e-06
1.61307e-05
5.31823e-05
0.000204681
0.000638729
0.00131837
0.00171945
0.00185502
0.0018201
0.00161791
0.00129387
0.000905245
0.000577698
0.00027451
8.9189e-05
1.80818e-05
1.99854e-06
1.0556e-07
3.07765e-08
1.6127e-20
1.59591e-20
1.57533e-20
1.55013e-20
1.51928e-20
1.48158e-20
1.43555e-20
1.37946e-20
1.3113e-20
1.22874e-20
1.12926e-20
1.01028e-20
8.69631e-21
7.74656e-21
7.88363e-21
8.08124e-21
8.37348e-21
8.80025e-21
9.36222e-21
1.6264e-20
1.64059e-20
1.65575e-20
1.67194e-20
1.17205e-19
9.4839e-14
1.53337e-09
3.67868e-08
1.99697e-07
6.11078e-07
1.45139e-06
2.92525e-06
5.17051e-06
9.47807e-06
2.46735e-05
9.58175e-05
0.000352011
0.000935056
0.00161711
0.00188262
0.00197711
0.00189263
0.00164788
0.00129749
0.000907158
0.000576964
0.000270805
8.73155e-05
1.7644e-05
1.9467e-06
1.02848e-07
2.99684e-08
1.6127e-20
1.59591e-20
1.57533e-20
1.55013e-20
1.51928e-20
1.48158e-20
1.43555e-20
1.37946e-20
1.3113e-20
1.22874e-20
1.12926e-20
1.01028e-20
8.69631e-21
7.74656e-21
7.88363e-21
8.08124e-21
8.37348e-21
8.80025e-21
9.36222e-21
1.6264e-20
1.64059e-20
1.65575e-20
1.67194e-20
1.71652e-20
6.13961e-16
1.05345e-10
1.07497e-08
7.97807e-08
2.93105e-07
7.77252e-07
1.75106e-06
3.39094e-06
6.04965e-06
1.2649e-05
4.19449e-05
0.000177824
0.000567621
0.00125751
0.00181724
0.00203555
0.00208884
0.00195468
0.00167195
0.00130027
0.000908688
0.000575115
0.000266448
8.54254e-05
1.71987e-05
1.89687e-06
1.00153e-07
2.91907e-08
1.6127e-20
1.59591e-20
1.57533e-20
1.55013e-20
1.51928e-20
1.48158e-20
1.43555e-20
1.37946e-20
1.3113e-20
1.22874e-20
1.12926e-20
1.01028e-20
8.69631e-21
7.74656e-21
7.88363e-21
8.08124e-21
8.37348e-21
8.80025e-21
9.36222e-21
1.6264e-20
1.64059e-20
1.65575e-20
1.67194e-20
1.68923e-20
3.44106e-18
2.47968e-12
2.40428e-09
2.82144e-08
1.29976e-07
3.85811e-07
9.61055e-07
2.06724e-06
3.89532e-06
7.31018e-06
1.88782e-05
8.05057e-05
0.00031102
0.000846936
0.00158026
0.00200134
0.00218513
0.00219017
0.00200763
0.00169224
0.00130323
0.000909119
0.000569408
0.000261968
8.34873e-05
1.67699e-05
1.84714e-06
9.76048e-08
2.84736e-08
1.6127e-20
1.59591e-20
1.57533e-20
1.55013e-20
1.51928e-20
1.48158e-20
1.43555e-20
1.37946e-20
1.3113e-20
1.22874e-20
1.12926e-20
1.01028e-20
8.69631e-21
7.74656e-21
7.88363e-21
8.08124e-21
8.37348e-21
8.80025e-21
9.36222e-21
1.6264e-20
1.64059e-20
1.65575e-20
1.67194e-20
1.68924e-20
3.19658e-20
1.97186e-14
3.18729e-10
8.74108e-09
5.27391e-08
1.79566e-07
4.87985e-07
1.16002e-06
2.3904e-06
4.49286e-06
9.50605e-06
3.35907e-05
0.00015571
0.000504146
0.00117099
0.00187951
0.00218083
0.00232736
0.00228078
0.00205374
0.0017102
0.00130554
0.000907788
0.000563278
0.000257288
8.16097e-05
1.63412e-05
1.80037e-06
9.5216e-08
2.77841e-08
1.6127e-20
1.59591e-20
1.57533e-20
1.55013e-20
1.51928e-20
1.48158e-20
1.43555e-20
1.37946e-20
1.3113e-20
1.22874e-20
1.12926e-20
1.01028e-20
8.69631e-21
7.74656e-21
7.88363e-21
8.08124e-21
8.37348e-21
8.80025e-21
9.36222e-21
1.6264e-20
1.64059e-20
1.65575e-20
1.67195e-20
1.68924e-20
1.70769e-20
8.67138e-17
1.7601e-11
2.27988e-09
1.91406e-08
7.81753e-08
2.3228e-07
6.01772e-07
1.36409e-06
2.72922e-06
5.34498e-06
1.44612e-05
6.82184e-05
0.000277983
0.000761225
0.00151219
0.00208757
0.0023564
0.00246061
0.00236228
0.00209481
0.00172575
0.00130671
0.000905539
0.000556621
0.000252693
7.97225e-05
1.59378e-05
1.75629e-06
9.28605e-08
2.71251e-08
1.6127e-20
1.59591e-20
1.57533e-20
1.55013e-20
1.51928e-20
1.48158e-20
1.43555e-20
1.37946e-20
1.3113e-20
1.22874e-20
1.12926e-20
1.01028e-20
8.69631e-21
7.74656e-21
7.88363e-21
8.08124e-21
8.37348e-21
8.80025e-21
9.36222e-21
1.6264e-20
1.64059e-20
1.65575e-20
1.67195e-20
1.68924e-20
1.7077e-20
3.32024e-19
2.99869e-13
4.34376e-10
6.11335e-09
3.16692e-08
1.04172e-07
2.91804e-07
7.2161e-07
1.56912e-06
3.12815e-06
6.99741e-06
2.72601e-05
0.000137993
0.000451037
0.0010735
0.00185138
0.00229239
0.00252897
0.00258482
0.00243609
0.00213134
0.00173848
0.00130692
0.000902319
0.000549927
0.000248018
7.79388e-05
1.55569e-05
1.71247e-06
9.0655e-08
2.65001e-08
1.6127e-20
1.59591e-20
1.57533e-20
1.55013e-20
1.51928e-20
1.48158e-20
1.43555e-20
1.37946e-20
1.3113e-20
1.22874e-20
1.12926e-20
1.01028e-20
8.69631e-21
7.74656e-21
7.88363e-21
8.08124e-21
8.37348e-21
8.80025e-21
9.36222e-21
1.6264e-20
1.64059e-20
1.65575e-20
1.67195e-20
1.68924e-20
1.7077e-20
1.7882e-20
1.6111e-15
4.45374e-11
1.68946e-09
1.17108e-08
4.43051e-08
1.33244e-07
3.5647e-07
8.42064e-07
1.78527e-06
3.74743e-06
1.11306e-05
5.88362e-05
0.000249141
0.000682176
0.00142204
0.00214687
0.00249349
0.0026966
0.00269996
0.002503
0.00216283
0.00174862
0.001306
0.000898682
0.000542955
0.000243561
7.62456e-05
1.51777e-05
1.67172e-06
8.85178e-08
2.58958e-08
1.6127e-20
1.59591e-20
1.57533e-20
1.55013e-20
1.51928e-20
1.48158e-20
1.43555e-20
1.37946e-20
1.3113e-20
1.22874e-20
1.12926e-20
1.01028e-20
8.69631e-21
7.74656e-21
7.88363e-21
8.08124e-21
8.37348e-21
8.80025e-21
9.36222e-21
1.6264e-20
1.64059e-20
1.65575e-20
1.67195e-20
1.68924e-20
1.7077e-20
1.72742e-20
4.89256e-18
1.65907e-12
3.7848e-10
3.8303e-09
1.76779e-08
5.78151e-08
1.65637e-07
4.22769e-07
9.63406e-07
2.06323e-06
5.06056e-06
2.25798e-05
0.000121415
0.000404489
0.000975375
0.0017846
0.00237521
0.00269608
0.00285694
0.00280648
0.00256241
0.00218961
0.00175627
0.0013045
0.000894476
0.000536219
0.000239286
7.4551e-05
1.48247e-05
1.63195e-06
8.64456e-08
2.53221e-08
1.6127e-20
1.59591e-20
1.57533e-20
1.55013e-20
1.51928e-20
1.48158e-20
1.43555e-20
1.37946e-20
1.3113e-20
1.22874e-20
1.12926e-20
1.01028e-20
8.69631e-21
7.74656e-21
7.88363e-21
8.08124e-21
8.37348e-21
8.80025e-21
9.36222e-21
1.6264e-20
1.64059e-20
1.65575e-20
1.67195e-20
1.68924e-20
1.7077e-20
1.72743e-20
2.91681e-20
1.68233e-14
5.61439e-11
1.0907e-09
6.53883e-09
2.37996e-08
7.29941e-08
1.99758e-07
4.88683e-07
1.10297e-06
2.53169e-06
8.66176e-06
5.00902e-05
0.000221716
0.000612065
0.00132024
0.00214599
0.00260351
0.00289622
0.00300966
0.00290352
0.00261471
0.00221209
0.00176208
0.00130222
0.000890286
0.000529655
0.000234958
7.29672e-05
1.44797e-05
1.59336e-06
8.4488e-08
2.47705e-08
1.6127e-20
1.59591e-20
1.57533e-20
1.55013e-20
1.51928e-20
1.48158e-20
1.43555e-20
1.37946e-20
1.3113e-20
1.22874e-20
1.12926e-20
1.01028e-20
8.69631e-21
7.74656e-21
7.88363e-21
8.08124e-21
8.37348e-21
8.80025e-21
9.36222e-21
1.6264e-20
1.64059e-20
1.65575e-20
1.67195e-20
1.68924e-20
1.7077e-20
1.72743e-20
1.74847e-20
5.48686e-17
3.80193e-12
2.62487e-10
2.18151e-09
9.30916e-09
3.05674e-08
8.94432e-08
2.33846e-07
5.59867e-07
1.30174e-06
3.62719e-06
1.83655e-05
0.000104682
0.00036266
0.000882179
0.00169608
0.00243603
0.00282985
0.003095
0.00315291
0.00299121
0.00266051
0.00223104
0.00176613
0.00129986
0.000886046
0.000522874
0.000230881
7.1412e-05
1.41446e-05
1.55696e-06
8.25683e-08
2.42374e-08
1.6127e-20
1.59591e-20
1.57533e-20
1.55013e-20
1.51928e-20
1.48158e-20
1.43555e-20
1.37946e-20
1.3113e-20
1.22874e-20
1.12926e-20
1.01028e-20
8.69631e-21
7.74656e-21
7.88363e-21
8.08124e-21
8.37348e-21
8.80025e-21
9.36222e-21
1.6264e-20
1.64059e-20
1.65575e-20
1.67195e-20
1.68924e-20
1.7077e-20
1.72743e-20
1.74848e-20
1.31161e-19
7.73874e-14
4.7484e-11
6.35563e-10
3.40204e-09
1.2222e-08
3.80639e-08
1.0617e-07
2.69104e-07
6.52993e-07
1.66591e-06
6.59254e-06
4.13335e-05
0.000195056
0.000550314
0.00121295
0.0020839
0.0026881
0.00306548
0.00328744
0.00328562
0.00307017
0.0027006
0.00224677
0.00176926
0.00129735
0.000881291
0.000516412
0.000226837
6.98952e-05
1.38281e-05
1.52105e-06
8.07071e-08
2.37313e-08
1.6127e-20
1.59591e-20
1.57533e-20
1.55013e-20
1.51928e-20
1.48158e-20
1.43555e-20
1.37946e-20
1.3113e-20
1.22874e-20
1.12926e-20
1.01028e-20
8.69631e-21
7.74656e-21
7.88363e-21
8.08124e-21
8.37348e-21
8.80025e-21
9.36222e-21
1.6264e-20
1.64059e-20
1.65575e-20
1.67195e-20
1.68924e-20
1.7077e-20
1.72743e-20
1.74849e-20
1.77092e-20
3.89062e-16
4.7956e-12
1.58391e-10
1.1423e-09
4.64561e-09
1.54573e-08
4.5879e-08
1.22974e-07
3.13111e-07
7.93599e-07
2.53237e-06
1.43729e-05
8.84697e-05
0.000323669
0.00079483
0.00159168
0.00247347
0.00294505
0.00330039
0.00347095
0.0034079
0.00314094
0.00273548
0.00226036
0.00177163
0.00129409
0.000876653
0.000509896
0.000222859
6.84566e-05
1.35154e-05
1.48619e-06
7.89285e-08
2.32395e-08
1.6127e-20
1.59591e-20
1.57533e-20
1.55013e-20
1.51928e-20
1.48158e-20
1.43555e-20
1.37946e-20
1.3113e-20
1.22874e-20
1.12926e-20
1.01028e-20
8.69631e-21
7.74656e-21
7.88363e-21
8.08124e-21
8.37348e-21
8.80025e-21
9.36222e-21
1.6264e-20
1.64059e-20
1.65575e-20
1.67195e-20
1.68924e-20
1.7077e-20
1.72743e-20
1.74849e-20
1.77097e-20
7.83254e-19
1.73884e-13
3.18022e-11
3.37917e-10
1.66842e-09
5.99086e-09
1.8922e-08
5.36261e-08
1.43065e-07
3.73045e-07
1.06415e-06
4.83159e-06
3.32897e-05
0.000168434
0.000493239
0.00110511
0.00199993
0.00275718
0.0032062
0.003533
0.0036444
0.00351969
0.00320408
0.00276638
0.00227222
0.00177266
0.00129077
0.000871737
0.000503393
0.000219053
6.70283e-05
1.32115e-05
1.45281e-06
7.7183e-08
2.27695e-08
1.6127e-20
1.59591e-20
1.57533e-20
1.55013e-20
1.51928e-20
1.48158e-20
1.43555e-20
1.37946e-20
1.3113e-20
1.22874e-20
1.12926e-20
1.01028e-20
8.69631e-21
7.74656e-21
7.88363e-21
8.08124e-21
8.37348e-21
8.80025e-21
9.36222e-21
1.6264e-20
1.64059e-20
1.65575e-20
1.67195e-20
1.68924e-20
1.7077e-20
1.72743e-20
1.74849e-20
1.77097e-20
1.86567e-20
1.53452e-15
4.18895e-12
8.56923e-11
5.56585e-10
2.21419e-09
7.4531e-09
2.23772e-08
6.24235e-08
1.69131e-07
4.69197e-07
1.71318e-06
1.09849e-05
7.24459e-05
0.000284582
0.000713833
0.00147768
0.00241944
0.00303834
0.00347602
0.00375974
0.00380651
0.00362129
0.00326078
0.00279401
0.00228185
0.00177307
0.00128697
0.000866605
0.000497083
0.000215235
6.56348e-05
1.29203e-05
1.41997e-06
7.55514e-08
2.23306e-08
1.6127e-20
1.59591e-20
1.57533e-20
1.55013e-20
1.51928e-20
1.48158e-20
1.43555e-20
1.37946e-20
1.3113e-20
1.22874e-20
1.12926e-20
1.01028e-20
8.69631e-21
7.74656e-21
7.88363e-21
8.08124e-21
8.37348e-21
8.80025e-21
9.36222e-21
1.6264e-20
1.64059e-20
1.65575e-20
1.67195e-20
1.68924e-20
1.7077e-20
1.72743e-20
1.74849e-20
1.77098e-20
1.79498e-20
3.57582e-18
2.40094e-13
1.8126e-11
1.66903e-10
7.78734e-10
2.80355e-09
8.93891e-09
2.60832e-08
7.34978e-08
2.06832e-07
6.62277e-07
3.46976e-06
2.57422e-05
0.000141117
0.000438393
0.00100111
0.00189649
0.00280948
0.00332512
0.00374875
0.00397744
0.00395664
0.00371359
0.00331207
0.00281808
0.00228999
0.00177254
0.00128273
0.000861447
0.000490641
0.000211476
6.42943e-05
1.26335e-05
1.38947e-06
7.40178e-08
2.19044e-08
1.6127e-20
1.59591e-20
1.57533e-20
1.55013e-20
1.51928e-20
1.48158e-20
1.43555e-20
1.37946e-20
1.3113e-20
1.22874e-20
1.12926e-20
1.01028e-20
8.69631e-21
7.74656e-21
7.88363e-21
8.08124e-21
8.37348e-21
8.80025e-21
9.36222e-21
1.6264e-20
1.64059e-20
1.65575e-20
1.67195e-20
1.68924e-20
1.7077e-20
1.72743e-20
1.74849e-20
1.77098e-20
1.79499e-20
2.2636e-20
3.70299e-15
2.75951e-12
4.29371e-11
2.55778e-10
1.00844e-09
3.41726e-09
1.04647e-08
3.06319e-08
8.87598e-08
2.71142e-07
1.1398e-06
8.04026e-06
5.68918e-05
0.0002444
0.000639919
0.00135958
0.0023426
0.0031139
0.00362671
0.00401929
0.00418372
0.00409495
0.00379779
0.00335796
0.00283929
0.00229644
0.00177114
0.00127823
0.000855871
0.000484199
0.000207832
6.29698e-05
1.2367e-05
1.36075e-06
7.24966e-08
2.14905e-08
1.6127e-20
1.59591e-20
1.57533e-20
1.55013e-20
1.51928e-20
1.48158e-20
1.43555e-20
1.37946e-20
1.3113e-20
1.22874e-20
1.12926e-20
1.01028e-20
8.69631e-21
7.74656e-21
7.88363e-21
8.08124e-21
8.37348e-21
8.80025e-21
9.36222e-21
1.6264e-20
1.64059e-20
1.65575e-20
1.67195e-20
1.68924e-20
1.7077e-20
1.72743e-20
1.74849e-20
1.77098e-20
1.79499e-20
1.8206e-20
1.22214e-17
2.15792e-13
9.24283e-12
7.64167e-11
3.45137e-10
1.25074e-09
4.03589e-09
1.22586e-08
3.67307e-08
1.12336e-07
4.05631e-07
2.39506e-06
1.90203e-05
0.000113728
0.000385985
0.000903342
0.00177993
0.00280071
0.00342899
0.00393576
0.00428365
0.00437737
0.00422243
0.0038743
0.00339905
0.00285765
0.00230132
0.00176898
0.00127296
0.00085003
0.00047788
0.000204207
6.17361e-05
1.21158e-05
1.33207e-06
7.10377e-08
2.10945e-08
1.6127e-20
1.59591e-20
1.57533e-20
1.55013e-20
1.51928e-20
1.48158e-20
1.43555e-20
1.37946e-20
1.3113e-20
1.22874e-20
1.12926e-20
1.01028e-20
8.69631e-21
7.74656e-21
7.88363e-21
8.08124e-21
8.37348e-21
8.80025e-21
9.36222e-21
1.6264e-20
1.64059e-20
1.65575e-20
1.67195e-20
1.68924e-20
1.7077e-20
1.72743e-20
1.74849e-20
1.77098e-20
1.79499e-20
1.82063e-20
3.34072e-20
5.2612e-15
1.54209e-12
1.98464e-11
1.11041e-10
4.37876e-10
1.49595e-09
4.72043e-09
1.46345e-08
4.5688e-08
1.53983e-07
7.34029e-07
5.63693e-06
4.26642e-05
0.000204814
0.000570848
0.00124179
0.00224434
0.00317641
0.00375259
0.00425104
0.00453809
0.00455832
0.00433968
0.00394354
0.00343562
0.00287337
0.00230464
0.00176542
0.00126697
0.000844128
0.000471527
0.000200814
6.05686e-05
1.18647e-05
1.30468e-06
6.96331e-08
2.07053e-08
1.6127e-20
1.59591e-20
1.57533e-20
1.55013e-20
1.51928e-20
1.48158e-20
1.43555e-20
1.37946e-20
1.3113e-20
1.22874e-20
1.12926e-20
1.01028e-20
8.69631e-21
7.74656e-21
7.88363e-21
8.08124e-21
8.37348e-21
8.80025e-21
9.36222e-21
1.6264e-20
1.64059e-20
1.65575e-20
1.67195e-20
1.68924e-20
1.7077e-20
1.72743e-20
1.74849e-20
1.77098e-20
1.79499e-20
1.82063e-20
1.84796e-20
2.65115e-17
1.50139e-13
4.31754e-12
3.29769e-11
1.45789e-10
5.32283e-10
1.75244e-09
5.61484e-09
1.80001e-08
5.98386e-08
2.41959e-07
1.59339e-06
1.34304e-05
8.84239e-05
0.000334004
0.000812479
0.0016545
0.00273339
0.00351582
0.00410108
0.00456386
0.00478034
0.00472685
0.00444678
0.00400607
0.00346808
0.00288636
0.00230586
0.0017595
0.00126076
0.000838025
0.000465542
0.000197581
5.93981e-05
1.16247e-05
1.27826e-06
6.82357e-08
2.03261e-08
1.6127e-20
1.59591e-20
1.57533e-20
1.55013e-20
1.51928e-20
1.48158e-20
1.43555e-20
1.37946e-20
1.3113e-20
1.22874e-20
1.12926e-20
1.01028e-20
8.69631e-21
7.74656e-21
7.88363e-21
8.08124e-21
8.37348e-21
8.80025e-21
9.36222e-21
1.6264e-20
1.64059e-20
1.65575e-20
1.67195e-20
1.68924e-20
1.7077e-20
1.72743e-20
1.74849e-20
1.77098e-20
1.79499e-20
1.82063e-20
1.84801e-20
5.36819e-20
5.29591e-15
7.50549e-13
8.58046e-12
4.60548e-11
1.80988e-10
6.27405e-10
2.07649e-09
6.84238e-09
2.30241e-08
8.53833e-08
4.59014e-07
3.79406e-06
3.08298e-05
0.000166128
0.000504878
0.00112715
0.00212791
0.00322946
0.00387101
0.00445769
0.00486948
0.00500953
0.00488236
0.00454451
0.00406254
0.00349641
0.00289619
0.00230521
0.00175326
0.00125417
0.000832261
0.000459783
0.000194317
5.82765e-05
1.1393e-05
1.25187e-06
6.68891e-08
1.99568e-08
1.6127e-20
1.59591e-20
1.57533e-20
1.55013e-20
1.51928e-20
1.48158e-20