/*--------------------------------*- C++ -*----------------------------------*\
| =========                 |                                                 |
| \\      /  F ield         | OpenFOAM: The Open Source CFD Toolbox           |
|  \\    /   O peration     | Version:  v2012                                 |
|   \\  /    A nd           | Website:  www.openfoam.com                      |
|    \\/     M anipulation  |                                                 |
\*---------------------------------------------------------------------------*/
FoamFile
{
    version     2.0;
    format      ascii;
    class       volScalarField;
    location    "1801";
    object      omega;
}
// * * * * * * * * * * * * * * * * * * * * * * * * * * * * * * * * * * * * * //

dimensions      [0 0 -1 0 0 0 0];


internalField   nonuniform List<scalar> 
8000
(
3.98816e+07
2.69347e+06
3.80769e+07
692029
2.64493e+06
3.79843e+07
327599
688027
2.63321e+06
3.79825e+07
208079
326885
684958
2.60719e+06
3.79825e+07
154488
207842
325853
680300
2.5331e+06
3.79825e+07
125645
154371
207393
324347
671845
2.51569e+06
3.79825e+07
108230
125573
154128
206720
322192
666641
2.51277e+06
3.79825e+07
96875.9
108179
125418
153753
205811
320104
657252
2.51229e+06
3.79825e+07
89065.2
96836.3
108068
125174
153243
204759
317251
646283
2.51219e+06
3.79825e+07
83480.6
89032.6
96749.7
107890
124836
152611
203428
313765
641747
2.51217e+06
3.79825e+07
79372
83452.6
88961
96609.6
107640
124402
151819
201788
309644
640341
2.51217e+06
3.79825e+07
76283.2
79347
83390.7
88844.4
96411
107314
123858
150842
199803
305160
639941
2.51216e+06
3.79825e+07
73922.4
76260.4
79291.8
83289.6
88677.8
96148.7
106902
123182
149644
197347
302822
639827
2.51216e+06
3.79825e+07
72094.9
73901.2
76210
79201.3
83144.3
88456
95814.6
106388
122349
148160
194456
301919
639792
2.51216e+06
3.79825e+07
70665.8
72074.9
73854.3
76127.1
79070.8
82949.7
88171.9
95396.3
105751
121316
146307
192443
301607
639780
2.51216e+06
3.79825e+07
69539.5
70646.7
72030.5
73777
76007.1
78895.2
82699.3
87815
94876.6
104960
120027
144209
191517
301501
639776
2.51216e+06
3.79825e+07
68646.2
69521.1
70604.3
71957.3
73664.8
75845.2
78668.4
82383.7
87370.3
94230.1
103974
118435
142719
191158
301465
639775
2.51216e+06
3.79825e+07
67894.4
68628.3
69480.2
70534.3
71851
73513.1
75635.6
78382.1
81989.9
86816.7
93424.6
102750
116808
142004
191027
301452
639774
2.51216e+06
3.79825e+07
553902
67868.1
68588.6
69412.6
70432.5
71706.9
73316.2
75370.4
78024
81499.2
86126.9
92423.4
101298
115780
141716
190979
301447
639774
2.51216e+06
3.79825e+07
178920
2.05954e+08
67821.9
68523
69314.2
70294.3
71519.7
73066.6
75038.4
77577.7
80887.7
85268.8
91189.6
100097
115306
141607
190961
301445
639774
2.51216e+06
3.79825e+07
95767.9
4.34441e+07
3.11579e+08
67776.3
68427.2
69180.6
70114.3
71282
72753.9
74624.2
77021.3
80126.6
84204.5
89955.1
99449.3
115115
141565
190954
301444
639774
2.51216e+06
3.79825e+07
76216.3
1.70271e+07
4.93602e+07
3.57705e+08
67703.8
68297.1
69006.4
69885.8
70984
72363.7
74107.8
76328.6
79182.2
83016.2
89172.9
99169.1
115041
141549
190951
301444
639774
2.51216e+06
3.79825e+07
71543.1
8.38745e+06
1.7947e+07
5.59394e+07
3.76112e+08
67574
68127.4
68784.9
69599
70611.9
71877.1
73464.9
75469
78066.8
82144.4
88806.6
99057.4
115012
141542
190949
301443
639774
2.51216e+06
3.79825e+07
70153.7
4.48099e+06
9.44362e+06
1.89864e+07
5.88231e+07
3.93732e+08
67406.6
67911.5
68506.8
69240.8
70147.8
71271.2
72666.7
74426.3
77144
81702
88655.7
99013.3
115000
141539
190949
301443
639774
2.51216e+06
3.79825e+07
69287.6
2.43223e+06
5.65435e+06
9.80243e+06
1.95239e+07
6.16309e+07
4.04828e+08
67213.7
67640.3
68159.5
68794.1
69569.8
70518.6
71686.7
73479.9
76638.5
81513.4
88595.6
98995.5
114995
141538
190949
301443
639774
2.51216e+06
3.79825e+07
68468.9
1.28708e+06
3.62337e+06
6.10416e+06
9.91484e+06
2.01925e+07
6.33834e+07
4.12455e+08
66950.7
67301.4
67726.2
68237.6
68851.8
69589.4
70733.7
72924
76415.4
81437.3
88571.3
98988.1
114993
141538
190949
301443
639774
2.51216e+06
3.79825e+07
67625.7
650666
2.41346e+06
3.92724e+06
6.49464e+06
9.92663e+06
2.06198e+07
6.45922e+07
4.18328e+08
66618.1
66878.6
67186.4
67546.1
67963.1
68639.5
70138.8
72670.5
76324.3
81406.6
88561.2
98984.9
114992
141537
190949
301443
639774
2.51216e+06
3.79825e+07
66874.6
310095
1.58188e+06
2.64839e+06
4.52213e+06
6.49999e+06
9.89545e+06
2.0925e+07
6.55253e+07
4.22901e+08
66203.3
66352
66515.6
66689.4
67020.9
68014.8
69859.3
72565.8
76287.3
81393.8
88556.9
98983.5
114992
141537
190949
301443
639774
2.51216e+06
3.79825e+07
66160.5
149712
1.00256e+06
1.84135e+06
3.00391e+06
4.86324e+06
6.33768e+06
9.87323e+06
2.11715e+07
6.62488e+07
4.27302e+08
65686.7
65697.3
65684
65756.6
66373.6
67713.3
69742.4
72523.1
76272
81388.4
88555
98982.9
114991
141537
190948
301443
639774
2.51216e+06
3.79825e+07
65436.5
89354.6
612207
1.29264e+06
2.02626e+06
3.53261e+06
4.86437e+06
6.16627e+06
9.8708e+06
2.13657e+07
6.69432e+07
4.31464e+08
65044.7
64885.7
64760.9
65092.2
66053.9
67585.9
69694.7
72505.5
76265.5
81386
88554.2
98982.6
114991
141537
190948
301443
639774
2.51216e+06
3.79825e+07
64657.1
71610
361895
897493
1.42033e+06
2.37552e+06
3.87355e+06
4.71256e+06
6.03021e+06
9.87527e+06
2.15607e+07
6.76007e+07
4.345e+08
64248.8
63971.6
64083.6
64757.5
65917.5
67533.8
69674.9
72498
76262.6
81384.9
88553.8
98982.5
114991
141537
190948
301443
639774
2.51216e+06
3.79825e+07
63785.1
66740.9
213228
607879
1.02112e+06
1.5995e+06
2.79723e+06
3.92552e+06
4.53716e+06
5.92617e+06
9.9014e+06
2.17509e+07
6.85089e+07
4.32981e+08
63342.7
63284.5
63736.5
64613.5
65861.5
67512.2
69666.5
72494.7
76261.3
81384.4
88553.6
98982.4
114991
141537
190948
301443
639774
2.51216e+06
3.79825e+07
62850
64651.8
132097
399574
736408
1.11252e+06
1.8865e+06
3.10915e+06
3.83405e+06
4.38047e+06
5.85779e+06
9.94321e+06
2.19812e+07
7.07275e+07
4.29786e+08
62648.1
62927.3
63586.1
64554.2
65838.3
67503
69662.8
72493.2
76260.7
81384.2
88553.5
98982.4
114991
141537
190948
301443
639774
2.51216e+06
3.79825e+07
62161.1
63126.4
91971.2
258367
523022
801564
1.2598e+06
2.22169e+06
3.24674e+06
3.69922e+06
4.25732e+06
5.82095e+06
1.00121e+07
2.23978e+07
7.02136e+07
4.24454e+08
62282.6
62771.6
63524.1
64529.7
65828.4
67499
69661.2
72492.5
76260.5
81384
88553.5
98982.4
114991
141537
190948
301443
639774
2.51216e+06
3.79825e+07
61775.8
62060.4
74074.7
169310
363874
585148
872016
1.48379e+06
2.49258e+06
3.24094e+06
3.56666e+06
4.17153e+06
5.82353e+06
1.01254e+07
2.22473e+07
6.93453e+07
4.1812e+08
62122.6
62707.3
63498.4
64519.2
65824.1
67497.2
69660.4
72492.2
76260.3
81384
88553.4
98982.3
114991
141537
190948
301443
639774
2.51216e+06
3.79825e+07
61606.5
61460.4
66462.9
117346
249504
424884
628899
982407
1.75058e+06
2.64011e+06
3.16156e+06
3.45846e+06
4.13258e+06
5.8574e+06
1.00751e+07
2.19861e+07
6.83132e+07
4.13149e+08
62056.3
62680.6
63487.5
64514.7
65822.2
67496.3
69660.1
72492
76260.3
81384
88553.4
98982.3
114991
141537
190948
301443
639774
2.51216e+06
3.79825e+07
61536.5
61173
63228.9
89635.9
171548
304542
462312
680792
1.14785e+06
1.98346e+06
2.68322e+06
3.06368e+06
3.38729e+06
4.12785e+06
5.84169e+06
9.98181e+06
2.16721e+07
6.75041e+07
4.0911e+08
62028.8
62669.3
63482.7
64512.6
65821.3
67496
69659.9
72492
76260.2
81384
88553.4
98982.3
114991
141537
190948
301443
639774
2.51216e+06
3.79825e+07
61507.6
61046.6
61784.1
76035.8
122631
216983
339126
493897
756700
1.35559e+06
2.12296e+06
2.6535e+06
2.97124e+06
3.34086e+06
4.10795e+06
5.80779e+06
9.8612e+06
2.14242e+07
6.68462e+07
4.05871e+08
62017.1
62664.3
63480.6
64511.7
65820.9
67495.8
69659.8
72491.9
76260.2
81384
88553.4
98982.3
114991
141537
190948
301443
639774
2.51216e+06
3.79825e+07
61495.3
60991
61068
69218.3
94571.8
156112
247197
365164
529247
872678
1.55155e+06
2.15863e+06
2.57426e+06
2.87428e+06
3.28626e+06
4.07684e+06
5.75322e+06
9.76045e+06
2.122e+07
6.63194e+07
4.03177e+08
62012
62662.1
63479.6
64511.3
65820.7
67495.7
69659.8
72491.9
76260.2
81383.9
88553.4
98982.3
114991
141537
190948
301443
639774
2.51216e+06
3.79825e+07
61490
60968.4
60694.7
65055
79614.6
116432
180780
269812
387498
579765
1.02597e+06
1.67339e+06
2.11513e+06
2.45753e+06
2.77578e+06
3.22168e+06
4.02996e+06
5.69913e+06
9.67259e+06
2.10557e+07
6.58819e+07
4.0102e+08
62009.8
62661.1
63479.2
64511
65820.6
67495.6
69659.8
72491.9
76260.2
81383.9
88553.4
98982.3
114991
141537
190948
301443
639774
2.51216e+06
3.79825e+07
61487.7
60959.5
60518.3
62426
72130.3
92271.9
134803
199326
288335
411866
655329
1.18294e+06
1.70362e+06
2.02758e+06
2.33513e+06
2.67148e+06
3.15307e+06
3.97979e+06
5.64758e+06
9.59899e+06
2.09184e+07
6.55318e+07
3.99516e+08
62008.7
62660.6
63478.9
64510.9
65820.6
67495.6
69659.8
72491.9
76260.2
81383.9
88553.4
98982.3
114991
141537
190948
301443
639774
2.51216e+06
3.79825e+07
61486.6
60956.1
60440
61018.4
68338.8
78749
104820
148915
214969
304669
443608
760137
1.29222e+06
1.66951e+06
1.92033e+06
2.21901e+06
2.58047e+06
3.08997e+06
3.93298e+06
5.60051e+06
9.53486e+06
2.0807e+07
6.52881e+07
3.98133e+08
62008.2
62660.4
63478.8
64510.9
65820.5
67495.6
69659.7
72491.9
76260.2
81383.9
88553.4
98982.3
114991
141537
190948
301443
639774
2.51216e+06
3.79825e+07
61486.1
60954.7
60409.9
60334.4
65602.7
71885.6
86321.3
114726
161162
228270
320817
489393
877250
1.33828e+06
1.59887e+06
1.82419e+06
2.12795e+06
2.50645e+06
3.03495e+06
3.88855e+06
5.55714e+06
9.47973e+06
2.07285e+07
6.50644e+07
3.97007e+08
62008
62660.3
63478.8
64510.9
65820.5
67495.6
69659.7
72491.9
76260.2
81383.9
88553.4
98982.3
114991
141537
190948
301443
639774
2.51216e+06
3.79825e+07
61485.9
60954.1
60399.7
60013.3
62929.4
68425.5
75741.4
92831.1
123363
172004
239738
339712
553376
983500
1.32713e+06
1.52234e+06
1.7499e+06
2.05613e+06
2.44518e+06
2.9861e+06
3.84855e+06
5.51699e+06
9.43777e+06
2.06558e+07
6.4884e+07
3.95923e+08
62007.9
62660.3
63478.8
64510.9
65820.5
67495.6
69659.7
72491.9
76260.2
81383.9
88553.4
98982.3
114991
141537
190948
301443
639774
2.51216e+06
3.79825e+07
61485.8
60953.9
60396.7
59880.1
60935.6
66473.6
70048.4
79530.4
98304.3
131442
181320
250046
364427
641739
1.04572e+06
1.28486e+06
1.46076e+06
1.68984e+06
1.99805e+06
2.39499e+06
2.9448e+06
3.81101e+06
5.48284e+06
9.39792e+06
2.05967e+07
6.47086e+07
3.95104e+08
62007.8
62660.2
63478.7
64510.9
65820.5
67495.6
69659.7
72491.9
76260.2
81383.9
88553.4
98982.3
114991
141537
190948
301443
639774
2.51216e+06
3.79825e+07
61485.7
60953.7
60395.9
59830.7
59942.8
64807.4
67257.5
71884.1
82611
103620
138736
188924
260076
404580
735656
1.06006e+06
1.23938e+06
1.40973e+06
1.64081e+06
1.95203e+06
2.35413e+06
2.90749e+06
3.7772e+06
5.44987e+06
9.36371e+06
2.05388e+07
6.4576e+07
3.94371e+08
62007.8
62660.2
63478.7
64510.9
65820.5
67495.6
69659.7
72491.9
76260.2
81383.9
88553.4
98982.3
114991
141537
190948
301443
639774
2.51216e+06
3.79825e+07
61485.7
60953.7
60395.6
59815.5
59461.2
62663.6
65739
67721.1
73403.5
85597.3
108736
144831
194766
274322
465490
809201
1.04606e+06
1.19979e+06
1.36689e+06
1.60141e+06
1.91471e+06
2.31896e+06
2.87392e+06
3.745e+06
5.41971e+06
9.3302e+06
2.04945e+07
6.44581e+07
3.93675e+08
62007.8
62660.2
63478.7
64510.9
65820.5
67495.6
69659.7
72491.9
76260.2
81383.9
88553.4
98982.3
114991
141537
190948
301443
639774
2.51216e+06
3.79825e+07
61485.7
60953.7
60395.5
59811.6
59282.9
60548.2
64738.4
65508.1
68175.6
74703.2
88682.6
113272
149303
200486
298659
543395
848374
1.02288e+06
1.16459e+06
1.33118e+06
1.56905e+06
1.88332e+06
2.28804e+06
2.84274e+06
3.71468e+06
5.3903e+06
9.30281e+06
2.04549e+07
6.43467e+07
3.93096e+08
62007.8
62660.2
63478.7
64510.9
65820.5
67495.6
69659.7
72491.9
76260.2
81383.9
88553.4
98982.3
114991
141537
190948
301443
639774
2.51216e+06
3.79825e+07
61485.7
60953.6
60395.5
59810.8
59220.5
59378.4
63569.7
64435.5
65295.3
68407
76154.9
91611.2
116764
152636
208751
340357
621062
857426
997046
1.13357e+06
1.30118e+06
1.54189e+06
1.85614e+06
2.25997e+06
2.8133e+06
3.68523e+06
5.36445e+06
9.27763e+06
2.04173e+07
6.42535e+07
3.92522e+08
62007.8
62660.2
63478.7
64510.9
65820.5
67495.6
69659.7
72491.9
76260.2
81383.9
88553.4
98982.3
114991
141537
190948
301443
639774
2.51216e+06
3.79825e+07
61485.7
60953.6
60395.5
59810.6
59203
58827.8
61775.6
63778.1
63756.7
64959.7
68726.4
77656.2
94013.6
119207
155941
224592
403282
676165
848926
973825
1.10614e+06
1.27579e+06
1.51848e+06
1.83183e+06
2.23362e+06
2.7848e+06
3.65834e+06
5.34024e+06
9.25354e+06
2.03854e+07
6.41606e+07
3.92071e+08
62007.8
62660.2
63478.7
64510.9
65820.5
67495.6
69659.7
72491.9
76260.2
81383.9
88553.4
98982.3
114991
141537
190948
301443
639774
2.51216e+06
3.79825e+07
61485.7
60953.6
60395.5
59810.6
59199.1
58637.9
59774.6
63142.2
62937.6
63074.8
64569.6
69165.8
78957.5
95724.2
121049
161379
255799
474482
702213
835415
952023
1.08177e+06
1.25392e+06
1.49779e+06
1.80926e+06
2.20809e+06
2.75832e+06
3.63351e+06
5.317e+06
9.23219e+06
2.03537e+07
6.40885e+07
3.91595e+08
62007.8
62660.2
63478.7
64510.9
65820.5
67495.6
69659.7
72491.9
76260.2
81383.9
88553.4
98982.3
114991
141537
190948
301443
639774
2.51216e+06
3.79825e+07
61485.7
60953.6
60395.5
59810.6
59198.4
58576.6
58635.9
62166.1
62519.5
62047.9
62287.3
64295.1
69563.2
79886.3
96891.8
123219
173558
303937
534612
708156
819982
931672
1.06001e+06
1.23483e+06
1.47887e+06
1.7874e+06
2.1841e+06
2.73402e+06
3.60973e+06
5.29557e+06
9.21123e+06
2.03287e+07
6.40123e+07
3.91091e+08
62007.8
62660.2
63478.7
64510.9
65820.5
67495.6
69659.7
72491.9
76260.2
81383.9
88553.4
98982.3
114991
141537
190948
301443
639774
2.51216e+06
3.79825e+07
61485.7
60953.6
60395.5
59810.6
59198.3
58561.4
58113.4
60526.9
62161.2
61490.1
61098.5
61572.9
64045.6
69784.5
80456.7
97946
127576
196887
363172
573085
703434
805337
912785
1.04059e+06
1.2178e+06
1.46068e+06
1.76671e+06
2.16185e+06
2.71087e+06
3.58743e+06
5.27483e+06
9.19343e+06
2.03025e+07
6.39311e+07
3.90703e+08
62007.8
62660.2
63478.7
64510.9
65820.5
67495.6
69659.7
72491.9
76260.2
81383.9
88553.4
98982.3
114991
141537
190948
301443
639774
2.51216e+06
3.79825e+07
61485.7
60953.6
60395.5
59810.6
59198.3
58558.6
57947.8
58723.7
61627
61153.3
60437.4
60124.4
60917.1
63723.1
69800.7
80876.6
99636.6
136972
233520
420883
590736
695089
790917
895260
1.02326e+06
1.20185e+06
1.44339e+06
1.74736e+06
2.14067e+06
2.689e+06
3.56599e+06
5.25605e+06
9.17541e+06
2.02748e+07
6.38687e+07
3.9026e+08
62007.8
62660.2
63478.7
64510.9
65820.5
67495.6
69659.7
72491.9
76260.2
81383.9
88553.4
98982.3
114991
141537
190948
301443
639774
2.51216e+06
3.79825e+07
61485.7
60953.6
60395.5
59810.6
59198.3
58558.2
57901
57763.5
60668.7
60965.6
60047.7
59321.8
59217.7
60236.9
63289.7
69710.6
81516.4
103142
154890
280519
464990
594861
685384
776609
879214
1.00734e+06
1.18694e+06
1.42733e+06
1.72894e+06
2.12061e+06
2.66808e+06
3.54603e+06
5.23758e+06
9.1571e+06
2.02531e+07
6.37976e+07
3.89874e+08
62007.8
62660.2
63478.7
64510.9
65820.5
67495.6
69659.7
72491.9
76260.2
81383.9
88553.4
98982.3
114991
141537
190948
301443
639774
2.51216e+06
3.79825e+07
61485.7
60953.6
60395.5
59810.6
59198.3
58558.1
57891.2
57342.3
59036.1
60691.4
59842.4
58907.1
58260.5
58315.7
59493.4
62795
69727.6
82792.6
110530
182474
330907
491523
592181
675456
762892
864301
992773
1.17378e+06
1.41205e+06
1.71146e+06
2.10147e+06
2.64841e+06
3.52665e+06
5.21943e+06
9.1417e+06
2.02288e+07
6.37356e+07
3.89536e+08
62007.8
62660.2
63478.7
64510.9
65820.5
67495.6
69659.7
72491.9
76260.2
81383.9
88553.4
98982.3
114991
141537
190948
301443
639774
2.51216e+06
3.79825e+07
61485.7
60953.6
60395.5
59810.6
59198.3
58558.1
57889.8
57225.2
57539.1
60115.4
59686.2
58664.5
57748.4
57234.6
57376.7
58718.2
62363.1
70018
85577.2
123872
218886
375424
503611
586574
665297
749674
850569
980164
1.16153e+06
1.3975e+06
1.6948e+06
2.08342e+06
2.6294e+06
3.50783e+06
5.20315e+06
9.12543e+06
2.02074e+07
6.36812e+07
3.89147e+08
62007.8
62660.2
63478.7
64510.9
65820.5
67495.6
69659.7
72491.9
76260.2
81383.9
88553.4
98982.3
114991
141537
190948
301443
639774
2.51216e+06
3.79825e+07
61485.7
60953.6
60395.5
59810.6
59198.3
58558.1
57889.6
57197.5
56797.1
59021.1
59578.1
58502
57447
56639
56188.8
56417.8
57979.9
62084.7
70906.1
90986.4
144512
260758
407317
506298
580024
654746
737164
837825
968684
1.14987e+06
1.38359e+06
1.67907e+06
2.066e+06
2.611e+06
3.49045e+06
5.18684e+06
9.1107e+06
2.01885e+07
6.36186e+07
3.88801e+08
62007.8
62660.2
63478.7
64510.9
65820.5
67495.6
69659.7
72491.9
76260.2
81383.9
88553.4
98982.3
114991
141537
190948
301443
639774
2.51216e+06
3.79825e+07
61485.7
60953.6
60395.5
59810.6
59198.3
58558.1
57889.6
57192.9
56544.5
57422.5
59244.3
58433.4
57285.5
56270.6
55530
55125.5
55485.5
57342.1
62077.9
72800.4
100602
172561
302024
425562
504515
572954
644201
725289
825975
957990
1.1387e+06
1.37041e+06
1.66391e+06
2.04913e+06
2.59378e+06
3.47341e+06
5.17164e+06
9.09725e+06
2.01671e+07
6.3563e+07
3.88457e+08
62007.8
62660.2
63478.7
64510.9
65820.5
67495.6
69659.7
72491.9
76260.2
81383.9
88553.4
98982.3
114991
141537
190948
301443
639774
2.51216e+06
3.79825e+07
61485.7
60953.6
60395.5
59810.6
59198.3
58558.1
57889.6
57192.4
56479.8
56351.3
58539
58348.4
57205.5
56054.6
55125.5
54406.2
54082.3
54627.1
56839.4
62464
76470.6
115956
206430
335713
433710
500501
565341
633749
714074
814927
947911
1.12806e+06
1.35765e+06
1.64917e+06
2.03325e+06
2.57708e+06
3.45732e+06
5.15742e+06
9.08296e+06
2.01479e+07
6.35075e+07
3.88106e+08
62007.8
62660.2
63478.7
64510.9
65820.5
67495.6
69659.7
72491.9
76260.2
81383.9
88553.4
98982.3
114991
141537
190948
301443
639774
2.51216e+06
3.79825e+07
61485.7
60953.6
60395.5
59810.6
59198.3
58558.1
57889.6
57192.3
56467.7
55867.4
57266
58193.1
57144.1
55949.9
54869.9
53972.4
53295.9
53098.5
53839.3
56506.8
63504.9
83273.3
137425
242364
358557
435320
495804
557088
623552
703511
804595
938448
1.11768e+06
1.34519e+06
1.63524e+06
2.01791e+06
2.56119e+06
3.4421e+06
5.1431e+06
9.06985e+06
2.01289e+07
6.3451e+07
3.87829e+08
62007.8
62660.2
63478.7
64510.9
65820.5
67495.6
69659.7
72491.9
76260.2
81383.9
88553.4
98982.3
114991
141537
190948
301443
639774
2.51216e+06
3.79825e+07
61485.7
60953.6
60395.5
59810.6
59198.3
58558.1
57889.6
57192.3
56466.2
55741.2
55926.4
57735.4
57083
55883.5
54719.6
53697.3
52824.6
52238.8
52156.4
53126.5
56418.3
65857.5
94386.9
164204
275275
371147
433954
490457
548542
613709
693566
795000
929334
1.10744e+06
1.33333e+06
1.62182e+06
2.00328e+06
2.5461e+06
3.42713e+06
5.12965e+06
9.05696e+06
2.01096e+07
6.34064e+07
3.87493e+08
62007.8
62660.2
63478.7
64510.9
65820.5
67495.6
69659.7
72491.9
76260.2
81383.9
88553.4
98982.3
114991
141537
190948
301443
639774
2.51216e+06
3.79825e+07
61485.7
60953.6
60395.5
59810.6
59198.3
58558.1
57889.6
57192.3
56466.1
55714.6
55212.6
56830.6
57015.6
55842.6
54612.3
53525.5
52525.9
51724.6
51215.9
51242.6
52508
56816.3
70373.9
110465
194358
300605
376568
431034
484364
539877
604276
684298
785931
920438
1.0976e+06
1.32189e+06
1.60897e+06
1.98937e+06
2.53143e+06
3.41292e+06
5.11655e+06
9.04413e+06
2.0094e+07
6.33521e+07
3.87112e+08
62007.8
62660.2
63478.7
64510.9
65820.5
67495.6
69659.7
72491.9
76260.2
81383.9
88553.4
98982.3
114991
141537
190948
301443
639774
2.51216e+06
3.79825e+07
61485.7
60953.6
60395.5
59810.6
59198.3
58558.1
57889.6
57192.3
56466.1
55711
54986.3
55505.1
56797.9
55844.6
54566.2
53386.7
52334.4
51394.6
50660.6
50199.1
50362.5
52067.2
58071
78077.7
131278
224636
316976
377557
427347
477520
531288
595378
675537
777272
911901
1.08801e+06
1.31089e+06
1.59675e+06
1.97594e+06
2.51746e+06
3.39916e+06
5.10376e+06
9.03311e+06
2.00755e+07
6.32905e+07
3.86815e+08
62007.8
62660.2
63478.7
64510.9
65820.5
67495.6
69659.7
72491.9
76260.2
81383.9
88553.4
98982.3
114991
141537
190948
301443
639774
2.51216e+06
3.79825e+07
61485.7
60953.6
60395.5
59810.6
59198.3
58558.1
57889.6
57192.3
56466.1
55710.7
54934.7
54611
56139.2
55845.1
54573.5
53296.6
52181.3
51175
50301.4
49594.8
49190.6
49542.5
51929.6
60808.3
89749.2
156076
250696
325719
376275
422959
470295
522977
586904
667200
769086
903621
1.07874e+06
1.30039e+06
1.58502e+06
1.96316e+06
2.50401e+06
3.38583e+06
5.0921e+06
9.02099e+06
2.00548e+07
6.32427e+07
3.86504e+08
62007.8
62660.2
63478.7
64510.9
65820.5
67495.6
69659.7
72491.9
76260.2
81383.9
88553.4
98982.3
114991
141537
190948
301443
639774
2.51216e+06
3.79825e+07
61485.7
60953.6
60395.5
59810.6
59198.3
58558.1
57889.6
57192.3
56466.1
55710.7
54926.8
54216
55035.7
55692.4
54606
53278.8
52064.5
51000.7
50057.6
49213.8
48529.6
48193.2
48820.7
52354.8
65838.6
105778
182712
269652
329191
373911
417751
462942
514917
578827
659326
761271
895615
1.06982e+06
1.29038e+06
1.57391e+06
1.95097e+06
2.49103e+06
3.37335e+06
5.08015e+06
9.00813e+06
2.00384e+07
6.31924e+07
3.86184e+08
62007.8
62660.2
63478.7
64510.9
65820.5
67495.6
69659.7
72491.9
76260.2
81383.9
88553.4
98982.3
114991
141537
190948
301443
639774
2.51216e+06
3.79825e+07
61485.7
60953.6
60395.5
59810.6
59198.3
58558.1
57889.6
57192.3
56466.1
55710.7
54926.1
54128.6
53962
55323
54606.2
53297
52010
50860.9
49859.4
48956.7
48126.1
47453.4
47217.7
48293.1
53763.9
74084.4
125703
207895
281297
329608
370749
411886
455554
507160
571181
651827
753814
887913
1.06138e+06
1.28094e+06
1.56342e+06
1.93925e+06
2.47876e+06
3.36095e+06
5.06809e+06
8.99727e+06
2.00213e+07
6.31405e+07
3.85929e+08
62007.8
62660.2
63478.7
64510.9
65820.5
67495.6
69659.7
72491.9
76260.2
81383.9
88553.4
98982.3
114991
141537
190948
301443
639774
2.51216e+06
3.79825e+07
61485.7
60953.6
60395.5
59810.6
59198.3
58558.1
57889.6
57192.3
56466.1
55710.7
54926.1
54113.9
53430.2
54391.5
54625.8
53338.7
51985.7
50779.2
49695.6
48750.5
47858.6
47020.1
46367.5
46302.3
48120.6
56829.6
86066.3
148384
228230
287224
328279
366974
405575
448289
499764
563899
644694
746705
880786
1.05347e+06
1.27207e+06
1.55335e+06
1.92813e+06
2.4667e+06
3.3487e+06
5.05722e+06
8.98622e+06
2.00037e+07
6.30994e+07
3.85652e+08
62007.8
62660.2
63478.7
64510.9
65820.5
67495.6
69659.7
72491.9
76260.2
81383.9
88553.4
98982.3
114991
141537
190948
301443
639774
2.51216e+06
3.79825e+07
61485.7
60953.6
60395.5
59810.6
59198.3
58558.1
57889.6
57192.3
56466.1
55710.7
54926.1
54112.4
53297.5
53284.3
54324.5
53434
52017.4
50715.7
49583.9
48575.5
47649.7
46742.5
45888.9
45291.2
45502.9
48606.1
62343.8
101757
171504
242210
289281
326197
362264
399104
441255
492691
556981
637900
740126
874191
1.04596e+06
1.26354e+06
1.54379e+06
1.91724e+06
2.45487e+06
3.33731e+06
5.04644e+06
8.97509e+06
1.99896e+07
6.30546e+07
3.85365e+08
62007.8
62660.2
63478.7
64510.9
65820.5
67495.6
69659.7
72491.9
76260.2
81383.9
88553.4
98982.3
114991
141537
190948
301443
639774
2.51216e+06
3.79825e+07
61485.7
60953.6
60395.5
59810.6
59198.3
58558.1
57889.6
57192.3
56466.1
55710.7
54926.1
54112.3
53272.5
52629.9
53606.3
53408.9
52119.3
50700.8
49490.8
48442.1
47471.5
46533
45596
44747.9
44246.6
44929.5
50233.3
70976.5
120507
192044
250366
289175
323325
357033
392635
434457
485959
550391
631392
734033
867861
1.03872e+06
1.25544e+06
1.53444e+06
1.90658e+06
2.44373e+06
3.32613e+06
5.03578e+06
8.96552e+06
1.99743e+07
6.30083e+07
3.85132e+08
62007.8
62660.2
63478.7
64510.9
65820.5
67495.6
69659.7
72491.9
76260.2
81383.9
88553.4
98982.3
114991
141537
190948
301443
639774
2.51216e+06
3.79825e+07
61485.7
60953.6
60395.5
59810.6
59198.3
58558.1
57889.6
57192.3
56466.1
55710.7
54926.1
54112.3
53269.8
52441.6
52547.3
53261.3
52179.6
50774.2
49434.6
48326.6
47330.6
46355.4
45387.7
44430.3
43606.2
43271.1
44783.1
53649.9
82970.6
140915
207657
254209
287915
319890
351439
386246
427946
479537
544090
625228
728203
861717
1.03183e+06
1.24753e+06
1.52527e+06
1.89649e+06
2.43286e+06
3.31518e+06
5.02603e+06
8.95557e+06
1.99586e+07
6.29706e+07
3.84878e+08
62007.8
62660.2
63478.7
64510.9
65820.5
67495.6
69659.7
72491.9
76260.2
81383.9
88553.4
98982.3
114991
141537
190948
301443
639774
2.51216e+06
3.79825e+07
61485.7
60953.6
60395.5
59810.6
59198.3
58558.1
57889.6
57192.3
56466.1
55710.7
54926.1
54112.3
53269.6
52403.2
51852.2
52723.4
52235.9
50849.8
49454.3
48232.8
47200.6
46211.2
45217
44216.1
43251.3
42480.5
42437.4
45392.6
59540.4
98075.6
160662
217796
255374
285897
315575
345687
380043
421707
473397
538114
619381
722574
855830
1.02511e+06
1.23976e+06
1.51657e+06
1.88669e+06
2.42225e+06
3.30486e+06
5.01621e+06
8.94546e+06
1.99455e+07
6.29295e+07
3.84607e+08
62007.8
62660.2
63478.7
64510.9
65820.5
67495.6
69659.7
72491.9
76260.2
81383.9
88553.4
98982.3
114991
141537
190948
301443
639774
2.51216e+06
3.79825e+07
61485.7
60953.6
60395.5
59810.6
59198.3
58558.1
57889.6
57192.3
56466.1
55710.7
54926.1
54112.3
53269.6
52398.7
51560
51796
52163.1
50958.6
49498.8
48199.6
47083.6
46077.4
45079.7
44049.2
43025.6
42069.4
41397.3
41870.3
47252.9
68369.8
115566
177111
223373
254787
283215
310801
339948
374044
415727
467566
532441
613795
717200
850083
1.01849e+06
1.23237e+06
1.50815e+06
1.87714e+06
2.41213e+06
3.29463e+06
5.00646e+06
8.93658e+06
1.99314e+07
6.28855e+07
3.84379e+08
62007.8
62660.2
63478.7
64510.9
65820.5
67495.6
69659.7
72491.9
76260.2
81383.9
88553.4
98982.3
114991
141537
190948
301443
639774
2.51216e+06
3.79825e+07
61485.7
60953.6
60395.5
59810.6
59198.3
58558.1
57889.6
57192.3
56466.1
55710.7
54926.1
54112.3
53269.6
52398.4
51506.5
51013
51747.7
51029.5
49595.4
48190.2
47014.2
45957.3
44951.9
43917.7
42857.7
41825.5
40897.1
40398.8
41787.4
50988.4
80272
133709
188823
225669
253516
279885
305774
334296
368260
410033
462033
527022
608512
711996
844415
1.01219e+06
1.22525e+06
1.49995e+06
1.86801e+06
2.40217e+06
3.28461e+06
4.99741e+06
8.92734e+06
1.99164e+07
6.28486e+07
3.84176e+08
62007.8
62660.2
63478.7
64510.9
65820.5
67495.6
69659.7
72491.9
76260.2
81383.9
88553.4
98982.3
114991
141537
190948
301443
639774
2.51216e+06
3.79825e+07
61485.7
60953.6
60395.5
59810.6
59198.3
58558.1
57889.6
57192.3
56466.1
55710.7
54926.1
54112.3
53269.6
52398.4
51499.6
50652.6
50947.6
51019.8
49724.4
48236.8
46958.1
45873.7
44834.4
43798.5
42728.2
41654.8
40623.2
39748.8
39561.8
42551.4
57228
94774.2
150158
195966
226136
251490
275916
300642
328777
362723
404633
456742
521897
603468
706903
838983
1.00612e+06
1.21832e+06
1.49213e+06
1.85905e+06
2.39262e+06
3.27514e+06
4.9883e+06
8.91778e+06
1.99037e+07
6.28157e+07
3.83955e+08
62007.8
62660.2
63478.7
64510.9
65820.5
67495.6
69659.7
72491.9
76260.2
81383.9
88553.4
98982.3
114991
141537
190948
301443
639774
2.51216e+06
3.79825e+07
61485.7
60953.6
60395.5
59810.6
59198.3
58558.1
57889.6
57192.3
56466.1
55710.7
54926.1
54112.3
53269.6
52398.4
51499.2
50582.8
50128.5
50742.9
49841.7
48346.9
46943.9
45797.6
44746
43687.2
42614.2
41526.4
40444.7
39424.6
38649.3
39031.9
44694.4
66241.5
110816
162965
199612
225354
248954
271564
295507
323445
357475
399451
451735
517024
598603
702025
833753
1.00023e+06
1.21172e+06
1.48448e+06
1.8505e+06
2.38361e+06
3.26574e+06
4.97912e+06
8.90922e+06
1.98922e+07
6.27798e+07
3.83718e+08
62007.8
62660.2
63478.7
64510.9
65820.5
67495.6
69659.7
72491.9
76260.2
81383.9
88553.4
98982.3
114991
141537
190948
301443
639774
2.51216e+06
3.79825e+07
61485.7
60953.6
60395.5
59810.6
59198.3
58558.1
57889.6
57192.3
56466.1
55710.7
54926.1
54112.3
53269.6
52398.4
51499.1
50573.2
49719.3
50007.4
49897.5
48507.9
46987.6
45744.2
44661.4
43599.2
42510.7
41417.3
40315.3
39230.9
38238.5
37649.3
39063.3
48796.3
77910.7
126555
171533
200931
223960
245729
267000
290463
318398
352398
394544
446989
512357
593976
697347
828687
994633
1.2053e+06
1.47712e+06
1.84245e+06
2.37472e+06
3.25639e+06
4.97049e+06
8.9012e+06
1.98798e+07
6.27413e+07
3.83628e+08
62007.8
62660.2
63478.7
64510.9
65820.5
67495.6
69659.7
72491.9
76260.2
81383.9
88553.4
98982.3
114991
141537
190948
301443
639774
2.51216e+06
3.79825e+07
61485.7
60953.6
60395.5
59810.6
59198.3
58558.1
57889.6
57192.3
56466.1
55710.7
54926.1
54112.3
53269.6
52398.4
51499.1
50572.5
49632.8
49204
49624.9
48652.7
47115.8
45716
44592.1
43513.6
42430.3
41320.4
40208.9
39097.6
38018.1
37083
36842.6
40042.5
55316.1
91643.1
139908
176417
200778
221949
242015
262374
285713
313431
347584
389899
442469
507928
589572
692839
823870
989212
1.19909e+06
1.47018e+06
1.83455e+06
2.36592e+06
3.24739e+06
4.96216e+06
8.89283e+06
1.98666e+07
6.27269e+07
3.83269e+08
62007.8
62660.2
63478.7
64510.9
65820.5
67495.6
69659.7
72491.9
76260.2
81383.9
88553.4
98982.3
114991
141537
190948
301443
639774
2.51216e+06
3.79825e+07
61485.7
60953.6
60395.5
59810.6
59198.3
58558.1
57889.6
57192.3
56466.1
55710.7
54926.1
54112.3
53269.6
52398.4
51499.1
50572.5
49620.3
48758
49018
48641.4
47282.1
45762.4
44523.8
43438.9
42356.3
41245
40116
38991.6
37877.4
36814.9
35990.1
36391.2
42484.9
64419.5
106106
149597
178622
199879
219449
238005
258107
280861
308713
343028
385496
438190
503725
585369
688563
819226
983957
1.1932e+06
1.46339e+06
1.82677e+06
2.35739e+06
3.23857e+06
4.95369e+06
8.88417e+06
1.98609e+07
6.26686e+07
3.83473e+08
62007.8
62660.2
63478.7
64510.9
65820.5
67495.6
69659.7
72491.9
76260.2
81383.9
88553.4
98982.3
114991
141537
190948
301443
639774
2.51216e+06
3.79825e+07
61485.7
60953.6
60395.5
59810.6
59198.3
58558.1
57889.6
57192.3
56466.1
55710.7
54926.1
54112.3
53269.6
52398.4
51499.1
50572.5
49619.3
48657.3
48234.1
48509.8
47379.1
45884.7
44506.7
43367.2
42288.8
41178.7
40042
38901.2
37770.9
36660.8
35632.8
35015.1
36569.8
46947.2
75794.9
119402
155661
179231
198347
216322
234210
253348
276257
304244
338720
381335
434138
499733
581404
684466
814721
978968
1.18749e+06
1.45675e+06
1.81921e+06
2.34898e+06
3.2297e+06
4.94516e+06
8.87863e+06
1.98416e+07
6.2702e+07
62007.8
62660.2
63478.7
64510.9
65820.5
67495.6
69659.7
72491.9
76260.2
81383.9
88553.4
98982.3
114991
141537
190948
301443
639774
2.51216e+06
3.79825e+07
61485.7
60953.6
60395.5
59810.6
59198.3
58558.1
57889.6
57192.3
56466.1
55710.7
54926.1
54112.3
53269.6
52398.4
51499.1
50572.5
49619.3
48641.8
47768.6
47960.5
47452.2
46006.7
44550
43332.1
42226
41116.9
39978.5
38828.6
37682.6
36552.3
35452.8
34489.3
34262.3
37803.8
53748.8
88613.1
129899
158848
178700
196368
213027
229782
248898
271886
300021
334655
377400
430305
495978
577635
680504
810436
974147
1.18193e+06
1.45032e+06
1.81177e+06
2.34054e+06
3.22088e+06
4.93806e+06
8.86773e+06
1.98501e+07
62007.8
62660.2
63478.7
64510.9
65820.5
67495.6
69659.7
72491.9