/*--------------------------------*- C++ -*----------------------------------*\
| =========                 |                                                 |
| \\      /  F ield         | OpenFOAM: The Open Source CFD Toolbox           |
|  \\    /   O peration     | Version:  v2012                                 |
|   \\  /    A nd           | Website:  www.openfoam.com                      |
|    \\/     M anipulation  |                                                 |
\*---------------------------------------------------------------------------*/
FoamFile
{
    version     2.0;
    format      ascii;
    class       volScalarField;
    location    "1801";
    object      p;
}
// * * * * * * * * * * * * * * * * * * * * * * * * * * * * * * * * * * * * * //

dimensions      [1 -1 -2 0 0 0 0];


internalField   nonuniform List<scalar> 
8000
(
671.719
671.719
671.719
671.719
671.719
671.719
671.719
671.719
671.719
671.719
671.719
671.719
671.719
671.719
671.719
671.719
671.719
671.719
671.719
671.719
671.719
671.719
671.719
671.719
671.719
671.719
671.719
671.719
671.719
671.719
671.719
671.719
671.719
671.719
671.719
671.719
671.719
671.719
671.719
671.719
671.719
671.719
671.719
671.719
671.719
671.719
671.719
671.719
671.719
671.719
671.719
671.719
671.719
671.719
671.719
671.719
671.719
671.719
671.719
671.719
671.719
671.719
671.719
671.719
671.719
671.719
671.719
671.719
671.719
671.719
671.719
671.719
671.719
671.719
671.719
671.719
671.719
671.719
671.719
671.719
671.719
671.719
671.719
671.719
671.719
671.719
671.719
671.719
671.719
671.719
671.719
671.719
671.719
671.719
671.719
671.719
671.719
671.719
671.719
671.719
671.719
671.719
671.719
671.719
671.719
671.719
671.719
671.719
671.719
671.719
671.719
671.719
671.719
671.719
671.719
671.719
671.719
671.719
671.719
671.719
671.719
671.719
671.719
671.719
671.719
671.719
671.719
671.719
671.719
671.719
671.719
671.719
671.719
671.719
671.719
671.719
671.719
671.719
671.719
671.719
671.719
671.719
671.719
671.719
671.719
671.719
671.719
671.719
671.719
671.719
671.719
671.719
671.719
671.719
671.719
671.719
671.719
671.719
671.719
671.719
671.719
671.719
671.719
671.719
671.719
671.719
671.719
671.719
671.719
671.719
671.719
671.72
671.719
671.719
671.719
671.719
671.719
671.719
671.719
671.719
671.719
671.719
671.719
671.719
671.719
671.719
671.719
671.719
671.719
671.719
669.953
671.72
671.719
671.719
671.719
671.719
671.719
671.719
671.719
671.719
671.719
671.719
671.719
671.719
671.719
671.719
671.719
671.719
671.719
671.719
672.747
1192.06
671.719
671.719
671.719
671.719
671.719
671.719
671.719
671.719
671.719
671.719
671.719
671.719
671.719
671.719
671.719
671.719
671.719
671.719
671.719
672.267
1118.69
1020.29
671.719
671.719
671.719
671.719
671.719
671.719
671.719
671.719
671.719
671.719
671.719
671.719
671.719
671.719
671.719
671.719
671.719
671.719
671.719
672.38
1074.23
1030.74
889.305
671.719
671.719
671.719
671.719
671.719
671.719
671.719
671.719
671.719
671.719
671.719
671.719
671.719
671.719
671.719
671.719
671.719
671.719
671.719
672.135
1004.71
1040.75
890.278
847.332
671.719
671.719
671.719
671.719
671.719
671.719
671.719
671.719
671.719
671.719
671.719
671.719
671.719
671.719
671.719
671.719
671.719
671.719
671.719
672.067
979.352
1054.36
891.288
847.751
808.059
671.719
671.719
671.719
671.719
671.719
671.719
671.719
671.719
671.719
671.719
671.719
671.719
671.719
671.719
671.719
671.719
671.719
671.719
671.719
671.95
943.921
1046.54
894.224
848.04
808.299
785.247
671.719
671.719
671.719
671.719
671.719
671.719
671.719
671.719
671.719
671.719
671.719
671.719
671.719
671.719
671.719
671.719
671.719
671.719
671.719
671.878
895.552
1037.56
901.434
848.674
808.427
785.399
770.042
671.719
671.719
671.719
671.719
671.719
671.719
671.719
671.719
671.719
671.719
671.719
671.719
671.719
671.719
671.719
671.719
671.719
671.719
671.719
671.819
847.536
1011.35
917.214
849.255
808.623
785.486
770.142
758.262
671.719
671.719
671.719
671.719
671.719
671.719
671.719
671.719
671.719
671.719
671.719
671.719
671.719
671.719
671.719
671.719
671.719
671.719
671.719
671.783
799.589
1003.82
937.55
850.312
809.013
785.611
770.199
758.332
748.767
671.719
671.719
671.719
671.719
671.719
671.719
671.719
671.719
671.719
671.719
671.719
671.719
671.719
671.719
671.719
671.719
671.719
671.719
671.719
671.756
761.081
994.436
960.197
851.959
809.558
785.794
770.281
758.372
748.816
738.939
671.719
671.719
671.719
671.719
671.719
671.719
671.719
671.719
671.719
671.719
671.719
671.719
671.719
671.719
671.719
671.719
671.719
671.719
671.719
671.74
729.407
969.618
975.162
856.633
810.429
786.113
770.384
758.428
748.844
738.973
728.332
671.719
671.719
671.719
671.719
671.719
671.719
671.719
671.719
671.719
671.719
671.719
671.719
671.719
671.719
671.719
671.719
671.719
671.719
671.719
671.73
706.483
944.134
980.849
865.447
811.268
786.69
770.547
758.498
748.885
738.993
728.352
717.559
671.719
671.719
671.719
671.719
671.719
671.719
671.719
671.719
671.719
671.719
671.719
671.719
671.719
671.719
671.719
671.719
671.719
671.719
671.719
671.724
691.135
896.673
976.031
882.243
813.062
787.659
770.821
758.596
748.937
739.021
728.361
717.56
712.101
671.719
671.719
671.719
671.719
671.719
671.719
671.719
671.719
671.719
671.719
671.719
671.719
671.719
671.719
671.719
671.719
671.719
671.719
671.719
671.722
681.804
848.224
974.896
902.105
817.815
788.832
771.355
758.759
749.007
739.058
728.375
717.562
712.102
708.173
671.719
671.719
671.719
671.719
671.719
671.719
671.719
671.719
671.719
671.719
671.719
671.719
671.719
671.719
671.719
671.719
671.719
671.719
671.719
671.72
676.58
797.329
966.006
921.188
827.581
789.572
772.223
759.044
749.122
739.111
728.395
717.564
712.095
708.164
707.806
671.719
671.719
671.719
671.719
671.719
671.719
671.719
671.719
671.719
671.719
671.719
671.719
671.719
671.719
671.719
671.719
671.719
671.719
671.719
671.72
673.891
752.398
952.159
935.057
839.22
791.621
773.48
759.581
749.31
739.196
728.438
717.568
712.09
708.152
707.797
710.887
671.719
671.719
671.719
671.719
671.719
671.719
671.719
671.719
671.719
671.719
671.719
671.719
671.719
671.719
671.719
671.719
671.719
671.719
671.719
671.719
672.615
717.999
924.61
944.029
856.696
796.65
774.155
760.699
749.648
739.345
728.517
717.592
712.086
708.138
707.785
710.889
713.126
671.719
671.719
671.719
671.719
671.719
671.719
671.719
671.719
671.719
671.719
671.719
671.719
671.719
671.719
671.719
671.719
671.719
671.719
671.719
671.719
672.058
695.428
882.755
943.599
875.503
802.129
775.596
761.496
750.375
739.63
728.659
717.645
712.078
708.118
707.77
710.877
713.122
715.016
671.719
671.719
671.719
671.719
671.719
671.719
671.719
671.719
671.719
671.719
671.719
671.719
671.719
671.719
671.719
671.719
671.719
671.719
671.719
671.719
671.837
682.582
830.036
941.11
895.3
812.61
778.905
762.755
751.669
740.161
728.944
717.709
712.085
708.104
707.75
710.869
713.119
715.012
715.779
671.719
671.719
671.719
671.719
671.719
671.719
671.719
671.719
671.719
671.719
671.719
671.719
671.719
671.719
671.719
671.719
671.719
671.719
671.719
671.719
671.756
676.178
775.798
933.331
909.233
825.576
781.791
764.186
752.278
741.335
729.516
718.106
712.204
708.103
707.727
710.856
713.114
715.01
715.777
716.36
671.719
671.719
671.719
671.719
671.719
671.719
671.719
671.719
671.719
671.719
671.719
671.719
671.719
671.719
671.719
671.719
671.719
671.719
671.719
671.719
671.729
673.358
730.647
913.759
922.589
842.088
787.7
766.818
753.286
742.517
730.406
718.503
712.417
708.101
707.71
710.834
713.107
715.007
715.777
716.36
716.579
671.719
671.719
671.719
671.719
671.719
671.719
671.719
671.719
671.719
671.719
671.719
671.719
671.719
671.719
671.719
671.719
671.719
671.719
671.719
671.719
671.722
672.255
700.3
876.082
922.361
862.11
794.321
769.053
755.025
743.623
732.06
719.248
712.762
708.34
707.726
710.838
713.104
715.002
715.777
716.36
716.58
715.961
671.719
671.719
671.719
671.719
671.719
671.719
671.719
671.719
671.719
671.719
671.719
671.719
671.719
671.719
671.719
671.719
671.719
671.719
671.719
671.719
671.72
671.874
683.628
823.136
920.681
881.711
804.693
772.468
756.797
744.806
733.159
720.385
713.218
708.623
707.796
710.695
713.025
714.979
715.779
716.361
716.581
715.964
715.477
671.719
671.719
671.719
671.719
671.719
671.719
671.719
671.719
671.719
671.719
671.719
671.719
671.719
671.719
671.719
671.719
671.719
671.719
671.719
671.719
671.719
671.758
675.997
766.43
912.842
895.969
819.467
776.44
759.365
746.843
734.422
721.977
713.845
708.891
708.096
711.002
713.192
715.048
715.782
716.363
716.583
715.964
715.481
714.793
671.719
671.719
671.719
671.719
671.719
671.719
671.719
671.719
671.719
671.719
671.719
671.719
671.719
671.719
671.719
671.719
671.719
671.719
671.719
671.719
671.719
671.728
673.045
720.687
890.382
906.524
836.775
782.447
761.755
748.685
736.06
723.126
714.984
709.34
708.126
710.855
713.161
715.049
715.793
716.369
716.587
715.966
715.482
714.793
714.311
671.719
671.719
671.719
671.719
671.719
671.719
671.719
671.719
671.719
671.719
671.719
671.719
671.719
671.719
671.719
671.719
671.719
671.719
671.719
671.719
671.719
671.721
672.071
692.537
846.73
905.8
858.678
790.711
764.815
750.994
738.093
724.459
715.843
710.009
708.387
710.868
713.202
715.063
715.801
716.372
716.588
715.968
715.484
714.796
714.312
713.522
671.719
671.719
671.719
671.719
671.719
671.719
671.719
671.719
671.719
671.719
671.719
671.719
671.719
671.719
671.719
671.719
671.719
671.719
671.719
671.719
671.719
671.719
671.798
679.033
789.012
902.653
874.751
803.832
768.47
753.274
740.397
726.301
716.35
711.048
708.67
710.813
713.235
715.113
715.844
716.402
716.606
715.977
715.487
714.797
714.314
713.525
712.756
671.719
671.719
671.719
671.719
671.719
671.719
671.719
671.719
671.719
671.719
671.719
671.719
671.719
671.719
671.719
671.719
671.719
671.719
671.719
671.719
671.719
671.719
671.734
673.848
734.782
888.942
891.836
819.723
773.745
755.834
742.733
728.575
717.402
711.587
709.195
710.891
713.295
715.164
715.863
716.421
716.62
715.986
715.493
714.801
714.315
713.525
712.758
712.097
671.719
671.719
671.719
671.719
671.719
671.719
671.719
671.719
671.719
671.719
671.719
671.719
671.719
671.719
671.719
671.719
671.719
671.719
671.719
671.719
671.719
671.719
671.721
672.231
698.519
853.146
891.739
842.076
781.096
758.758
745.218
731.035
718.619
711.724
709.68
711.105
713.335
715.252
715.922
716.458
716.644
716.004
715.503
714.805
714.318
713.527
712.759
712.097
711.377
671.719
671.719
671.719
671.719
671.719
671.719
671.719
671.719
671.719
671.719
671.719
671.719
671.719
671.719
671.719
671.719
671.719
671.719
671.719
671.719
671.719
671.719
671.719
671.82
680.736
797.057
889.751
860.368
792.9
762.29
747.847
733.632
720.594
712.597
709.578
711.583
713.501
715.319
715.987
716.512
716.676
716.026
715.519
714.815
714.323
713.53
712.76
712.099
711.378
710.779
671.719
671.719
671.719
671.719
671.719
671.719
671.719
671.719
671.719
671.719
671.719
671.719
671.719
671.719
671.719
671.719
671.719
671.719
671.719
671.719
671.719
671.719
671.719
671.735
674.129
739.247
880.184
877.137
808.64
767.222
750.626
736.449
722.555
713.338
709.194
711.523
713.725
715.429
716.079
716.586
716.726
716.057
715.541
714.83
714.332
713.534
712.763
712.1
711.379
710.781
710.025
671.719
671.719
671.719
671.719
671.719
671.719
671.719
671.719
671.719
671.719
671.719
671.719
671.719
671.719
671.719
671.719
671.719
671.719
671.719
671.719
671.719
671.719
671.719
671.721
672.229
699.367
847.277
879.717
830.651
774.257
753.753
739.386
724.997
714.725
709.469
710.855
714.207
715.703
716.123
716.681
716.792
716.103
715.571
714.849
714.345
713.541
712.767
712.103
711.38
710.781
710.026
709.407
671.719
671.719
671.719
671.719
671.719
671.719
671.719
671.719
671.719
671.719
671.719
671.719
671.719
671.719
671.719
671.719
671.719
671.719
671.719
671.719
671.719
671.719
671.719
671.719
671.803
680.319
791.702
877.491
849.296
786.024
757.387
742.478
727.683
716.115
709.647
710.378
713.911
716.036
716.23
716.793
716.873
716.165
715.614
714.876
714.364
713.553
712.773
712.106
711.382
710.783
710.027
709.408
708.936
671.719
671.719
671.719
671.719
671.719
671.719
671.719
671.719
671.719
671.719
671.719
671.719
671.719
671.719
671.719
671.719
671.719
671.719
671.719
671.719
671.719
671.719
671.719
671.719
671.73
673.754
733.554
868.822
867.404
801.573
762.49
745.672
730.731
718.012
710.209
710.198
713.486
716.226
716.48
716.916
716.976
716.245
715.672
714.913
714.389
713.569
712.783
712.112
711.385
710.784
710.028
709.409
708.937
708.305
671.719
671.719
671.719
671.719
671.719
671.719
671.719
671.719
671.719
671.719
671.719
671.719
671.719
671.719
671.719
671.719
671.719
671.719
671.719
671.719
671.719
671.719
671.719
671.719
671.72
672.083
694.995
833.636
868.641
824.677
769.628
749.193
734.016
720.255
710.917
710.233
712.262
715.747
716.902
717.185
717.055
716.341
715.746
714.962
714.424
713.591
712.798
712.121
711.39
710.787
710.03
709.41
708.938
708.306
707.835
671.719
671.719
671.719
671.719
671.719
671.719
671.719
671.719
671.719
671.719
671.719
671.719
671.719
671.719
671.719
671.719
671.719
671.719
671.719
671.719
671.719
671.719
671.719
671.719
671.719
671.767
678.112
776.388
865.643
842.516
782.053
753.205
737.538
722.984
712.03
710.267
711.923
715.234
717.078
717.443
717.156
716.448
715.835
715.025
714.47
713.622
712.818
712.134
711.398
710.792
710.033
709.412
708.939
708.306
707.836
707.303
671.719
671.719
671.719
671.719
671.719
671.719
671.719
671.719
671.719
671.719
671.719
671.719
671.719
671.719
671.719
671.719
671.719
671.719
671.719
671.719
671.719
671.719
671.719
671.719
671.719
671.724
672.995
720.653
853.716
859.137
798.322
758.845
741.219
726.129
713.559
710.332
711.392
714.425
716.974
717.848
717.425
716.554
715.944
715.102
714.529
713.661
712.845
712.152
711.41
710.799
710.036
709.414
708.94
708.307
707.837
707.304
706.72
671.719
671.719
671.719
671.719
671.719
671.719
671.719
671.719
671.719
671.719
671.719
671.719
671.719
671.719
671.719
671.719
671.719
671.719
671.719
671.719
671.719
671.719
671.719
671.719
671.719
671.719
671.902
687.781
811.637
858.937
822.128
766.917
745.242
729.667
715.651
710.549
710.935
713.961
716.221
717.871
717.669
716.74
716.047
715.191
714.602
713.711
712.881
712.176
711.426
710.809
710.043
709.418
708.942
708.308
707.837
707.304
706.721
706.277
671.719
671.719
671.719
671.719
671.719
671.719
671.719
671.719
671.719
671.719
671.719
671.719
671.719
671.719
671.719
671.719
671.719
671.719
671.719
671.719
671.719
671.719
671.719
671.719
671.719
671.719
671.737
675.412
752.747
854.759
839.457
780.674
749.957
733.473
718.348
710.927
710.615
713.323
716.273
717.773
718.004
717.007
716.16
715.294
714.687
713.772
712.926
712.208
711.448
710.824
710.052
709.423
708.945
708.31
707.838
707.305
706.721
706.278
705.787
671.719
671.719
671.719
671.719
671.719
671.719
671.719
671.719
671.719
671.719
671.719
671.719
671.719
671.719
671.719
671.719
671.719
671.719
671.719
671.719
671.719
671.719
671.719
671.719
671.719
671.719
671.72
672.307
704.023
833.165
851.533
799.221
756.402
737.558
721.626
711.634
710.334
712.665
715.853
717.218
717.913
717.281
716.436
715.385
714.788
713.845
712.981
712.248
711.476
710.843
710.065
709.432
708.95
708.313
707.84
707.306
706.722
706.278
705.788
705.324
671.719
671.719
671.719
671.719
671.719
671.719
671.719
671.719
671.719
671.719
671.719
671.719
671.719
671.719
671.719
671.719
671.719
671.719
671.719
671.719
671.719
671.719
671.719
671.719
671.719
671.719
671.719
671.782
680.448
782.267
849.616
820.99
766.532
741.939
725.439
712.924
710.23
712.112
715.683
717.273
717.64
717.536
716.644
715.527
714.89
713.927
713.048
712.297
711.511
710.868
710.082
709.443
708.958
708.318
707.842
707.307
706.723
706.279
705.788
705.325
704.904
671.719
671.719
671.719
671.719
671.719
671.719
671.719
671.719
671.719
671.719
671.719
671.719
671.719
671.719
671.719
671.719
671.719
671.719
671.719
671.719
671.719
671.719
671.719
671.719
671.719
671.719
671.719
671.723
673.299
725.163
843.133
839.823
781.504
747.467
729.627
715.112
710.305
711.624
715.175
717.045
717.497
717.436
717.054
715.751
714.997
714.026
713.126
712.356
711.555
710.899
710.103
709.459
708.968
708.324
707.846
707.309
706.724
706.28
705.788
705.325
704.904
704.364
671.719
671.719
671.719
671.719
671.719
671.719
671.719
671.719
671.719
671.719
671.719
671.719
671.719
671.719
671.719
671.719
671.719
671.719
671.719
671.719
671.719
671.719
671.719
671.719
671.719
671.719
671.719
671.719
671.907
688.717
806.805
842.704
803.502
754.997
734.218
718.193
710.539
711.339
714.652
716.858
717.379
717.426
717.114
715.985
715.235
714.105
713.216
712.425
711.608
710.938
710.131
709.478
708.981
708.333
707.852
707.313
706.726
706.281
705.789
705.325
704.904
704.365
703.964
671.719
671.719
671.719
671.719
671.719
671.719
671.719
671.719
671.719
671.719
671.719
671.719
671.719
671.719
671.719
671.719
671.719
671.719
671.719
671.719
671.719
671.719
671.719
671.719
671.719
671.719
671.719
671.719
671.733
675.245
749.016
836.972
822.321
767.423
739.492
722.141
711.338
711.23
713.936
716.476
717.333
717.415
717.03
716.36
715.406
714.203
713.312
712.504
711.67
710.986
710.165
709.504
708.999
708.345
707.86
707.318
706.729
706.283
705.79
705.326
704.905
704.365
703.965
703.677
671.719
671.719
671.719
671.719
671.719
671.719
671.719
671.719
671.719
671.719
671.719
671.719
671.719
671.719
671.719
671.719
671.719
671.719
671.719
671.719
671.719
671.719
671.719
671.719
671.719
671.719
671.719
671.719
671.72
672.185
700.814
819.264
834.293
786.106
746.264
726.83
713.027
711.341
713.181
715.984
717.23
717.445
717.069
716.339
715.68
714.416
713.407
712.597
711.743
711.042
710.206
709.535
709.021
708.36
707.871
707.325
706.734
706.285
705.792
705.327
704.905
704.365
703.965
703.678
703.248
671.719
671.719
671.719
671.719
671.719
671.719
671.719
671.719
671.719
671.719
671.719
671.719
671.719
671.719
671.719
671.719
671.719
671.719
671.719
671.719
671.719
671.719
671.719
671.719
671.719
671.719
671.719
671.719
671.719
671.757
678.66
769.204
835.188
807.429
756.936
731.976
715.718
711.455
712.384
715.317
717.144
717.444
717.151
716.35
715.85
714.593
713.573
712.68
711.825
711.107
710.254
709.572
709.048
708.379
707.884
707.335
706.74
706.29
705.794
705.328
704.906
704.366
703.965
703.678
703.248
702.875
671.719
671.719
671.719
671.719
671.719
671.719
671.719
671.719
671.719
671.719
671.719
671.719
671.719
671.719
671.719
671.719
671.719
671.719
671.719
671.719
671.719
671.719
671.719
671.719
671.719
671.719
671.719
671.719
671.719
671.721
672.747
714.664
822.888
826.898
771.878
738.446
719.548
711.887
711.757
714.523
716.964
717.435
717.245
716.438
715.744
714.94
713.76
712.77
711.917
711.182
710.31
709.617
709.081
708.403
707.902
707.347
706.749
706.295
705.798
705.331
704.908
704.366
703.966
703.678
703.248
702.875
702.55
671.719
671.719
671.719
671.719
671.719
671.719
671.719
671.719
671.719
671.719
671.719
671.719
671.719
671.719
671.719
671.719
671.719
671.719
671.719
671.719
671.719
671.719
671.719
671.719
671.719
671.719
671.719
671.719
671.719
671.719
671.81
683.496
785.926
826.696
794.679
746.909
724.445
712.853
711.361
713.639
716.701
717.401
717.322
716.614
715.762
714.998
713.947
712.971
711.998
711.266
710.376
709.67
709.12
708.432
707.923
707.362
706.759
706.303
705.803
705.334
704.91
704.368
703.966
703.679
703.249
702.876
702.551
702.119
671.719
671.719
671.719
671.719
671.719
671.719
671.719
671.719
671.719
671.719
671.719
671.719
671.719
671.719
671.719
671.719
671.719
671.719
671.719
671.719
671.719
671.719
671.719
671.719
671.719
671.719
671.719
671.719
671.719
671.719
671.724
673.68
729.609
823.387
813.191
760.835
730.452
714.811
711.126
712.873
716.28
717.367
717.392
716.778
715.832
714.937
714.212
713.122
712.116
711.35
710.447
709.731
709.166
708.466
707.949
707.381
706.773
706.312
705.809
705.338
704.913
704.369
703.967
703.679
703.249
702.876
702.55
702.12
701.761
671.719
671.719
671.719
671.719
671.719
671.719
671.719
671.719
671.719
671.719
671.719
671.719
671.719
671.719
671.719
671.719
671.719
671.719
671.719
671.719
671.719
671.719
671.719
671.719
671.719
671.719
671.719
671.719
671.719
671.719
671.719
671.91
689.838
794.818
821.852
780.934
738.496
718.371
711.302
712.243
715.697
717.267
717.457
716.942
715.985
714.983
714.185
713.418
712.299
711.438
710.533
709.802
709.22
708.507
707.98
707.403
706.79
706.324
705.818
705.344
704.916
704.372
703.969
703.68
703.25
702.876
702.551
702.12
701.762
701.451
671.719
671.719
671.719
671.719
671.719
671.719
671.719
671.719
671.719
671.719
671.719
671.719
671.719
671.719
671.719
671.719
671.719
671.719
671.719
671.719
671.719
671.719
671.719
671.719
671.719
671.719
671.719
671.719
671.719
671.719
671.719
671.729
675.098
742.927
818.461
801.223
750.8
723.302
711.821
711.949
714.91
717.078
717.518
717.091
716.107
715.078
714.179
713.562
712.468
711.606
710.599
709.881
709.282
708.554
708.017
707.431
706.811
706.339
705.828
705.352
704.921
704.375
703.971
703.682
703.251
702.877
702.551
702.12
701.762
701.452
701.058
671.719
671.719
671.719
671.719
671.719
671.719
671.719
671.719
671.719
671.719
671.719
671.719
671.719
671.719
671.719
671.719
671.719
671.719
671.719
671.719
671.719
671.719
671.719
671.719
671.719
671.719
671.719
671.719
671.719
671.719
671.719
671.719
672.081
696.906
800.175
815.603
768.746
730.464
713.923
711.974
714
716.736
717.561
717.214
716.25
715.2
714.251
713.546
712.743
711.75
710.681
709.968
709.35
708.608
708.06
707.463
706.835
706.358
705.842
705.361
704.928
704.38
703.974
703.684
703.252
702.877
702.551
702.12
701.762
701.451
701.059
700.728
671.719
671.719
671.719
671.719
671.719
671.719
671.719
671.719
671.719
671.719
671.719
671.719
671.719
671.719
671.719
671.719
671.719
671.719
671.719
671.719
671.719
671.719
671.719
671.719
671.719
671.719
671.719
671.719
671.719
671.719
671.719
671.719
671.74
676.961
753.035
814.009
790.542
741.602
717.339
712.278
713.068
716.115
717.569
717.3
716.388
715.325
714.399
713.589
712.82
711.935
710.84
710.046
709.429
708.67
708.11
707.5
706.865
706.38
705.858
705.373
704.937
704.386
703.978
703.686
703.254
702.879
702.552
702.121
701.762
701.452
701.058
700.729
700.458
671.719
671.719
671.719
671.719
671.719
671.719
671.719
671.719
671.719
671.719
671.719
671.719
671.719
671.719
671.719
671.719
671.719
671.719
671.719
671.719
671.719
671.719
671.719
671.719
671.719
671.719
671.719
671.719
671.719
671.719
671.719
671.719
671.72
672.333
704.084
804.52
808.563
757.913
723.35
712.672
712.381
715.234
717.539
717.33
716.531
715.47
714.553
713.683
712.801
712.123
710.994
710.177
709.499
708.737
708.168
707.544
706.899
706.406
705.877
705.388
704.947
704.393
703.984
703.69
703.256
702.88
702.553
702.121
701.763
701.452
701.059
700.729
700.46
700.13
671.719
671.719
671.719
671.719
671.719
671.719
671.719
671.719
671.719
671.719
671.719
671.719
671.719
671.719
671.719
671.719
671.719
671.719
671.719
671.719
671.719
671.719
671.719
671.719
671.719
671.719
671.719
671.719
671.719
671.719
671.719
671.719
671.719
671.758
679.116
761.418
808.17
780.713
732.806
714.301
711.984
714.213
717.378
717.306
716.667
715.647
714.729
713.853
712.861
712.105
711.239
710.33
709.58
708.816
708.233
707.593
706.939
706.437
705.9
705.405
704.96
704.403
703.991
703.695
703.259
702.882
702.555
702.122
701.763
701.452
701.059
700.729
700.459
700.132
699.788
671.719
671.719
671.719
671.719
671.719
671.719
671.719
671.719
671.719
671.719
671.719
671.719
671.719
671.719
671.719
671.719
671.719
671.719
671.719
671.719
671.719
671.719
671.719
671.719
671.719
671.719
671.719
671.719
671.719
671.719
671.719
671.719
671.719
671.72
672.662
710.994
799.93
800.063
748.001
718.088
711.888
713.423
717.041
717.241
716.804
715.853
714.927
713.995
712.968
712.078
711.38
710.491
709.726
708.875
708.305
707.65
706.985
706.472
705.927
705.426
704.975
704.414
703.999
703.701
703.264
702.885
702.557
702.124
701.764
701.453
701.059
700.729
700.459
700.131
699.791
699.524
671.719
671.719
671.719
671.719
671.719
671.719
671.719
671.719
671.719
671.719
671.719
671.719
671.719
671.719
671.719
671.719
671.719
671.719
671.719
671.719
671.719
671.719
671.719
671.719
671.719
671.719
671.719
671.719
671.719
671.719
671.719
671.719
671.719
671.719
671.782
681.492
767.876
801.772
771.44
725.563
712.503
712.948
716.371
717.106
716.9
716.114
715.147
714.161
713.096
712.129
711.372
710.714
709.86
708.959
708.381
707.711
707.037
706.514
705.959
705.45
704.994
704.428
704.009
703.708
703.269
702.889
702.559
702.125
701.765
701.454
701.06
700.73
700.46
700.131
699.79
699.525
699.325
671.719
671.719
671.719
671.719
671.719
671.719
671.719
671.719
671.719
671.719
671.719
671.719
671.719
671.719
671.719
671.719
671.719
671.719
671.719
671.719
671.719
671.719
671.719
671.719
671.719
671.719
671.719
671.719
671.719
671.719
671.719
671.719
671.719
671.719
671.721
673.055
717.209
799.588
791.06
740.168
714.694
712.961
715.423
716.744
717.038
716.37
715.397
714.326
713.221
712.253
711.416
710.782
710.052
709.089
708.448
707.782
707.096
706.561
705.995
705.479
705.016
704.444
704.022
703.717
703.276
702.894
702.563
702.128
701.767
701.455
701.06
700.73
700.46
700.131
699.79
699.525
699.327
698.902
671.719
671.719
671.719
671.719
671.719
671.719
671.719
671.719
671.719
671.719
671.719
671.719
671.719
671.719
671.719
671.719
671.719
671.719
671.719
671.719
671.719
671.719
671.719
671.719
671.719
671.719
671.719
671.719
671.719
671.719
671.719
671.719
671.719
671.719
671.719
671.813
683.987
769.841
798.571
761.715
720.314
713.444
713.973
716.239
717.074
716.689
715.656
714.5
713.355
712.371
711.503
710.767
710.222
709.234
708.574
707.84
707.161
706.615
706.037
705.512
705.041
704.464
704.037
703.728
703.284
702.9
702.567
702.131
701.769
701.456
701.061
700.731
700.46
700.132
699.79
699.525
699.327
698.904
698.96
671.719
671.719
671.719
671.719
671.719
671.719
671.719
671.719
671.719
671.719
671.719
671.719
671.719
671.719
671.719
671.719
671.719
671.719
671.719
671.719
671.719
671.719
671.719
671.719
671.719
671.719
671.719
671.719
671.719
671.719
671.719
671.719
671.719
671.719
671.719
671.722
673.504
722.107
793.147
782.477
731.823
713.931
713.119
715.355
717.231
716.924
715.938
714.678
713.5
712.515
711.658
710.828
710.213
709.445
708.696
707.91
707.236
706.675
706.084
705.55
705.07
704.486
704.054
703.741
703.294
702.907
702.572
702.135
701.772
701.458
701.063
700.731
700.461
700.132
699.79
699.525
699.327
698.904
698.962
698.128
671.719
671.719
671.719
671.719
671.719
671.719
671.719
671.719
671.719
671.719
671.719
671.719
671.719
671.719
671.719
671.719
671.719
671.719
671.719
671.719
671.719
671.719
671.719
671.719
671.719
671.719
671.719
671.719
671.719
671.719
671.719
671.719
671.719
671.719
671.719
671.719
671.851
686.263
772.252
791.883
751.854
716.704
711.855
714.589
717.287
717.157
716.199
714.863
713.665
712.676
711.795
710.934
710.201
709.573
708.837
708.034
707.292
706.742
706.137
705.594
705.104
704.513
704.075
703.757
703.305
702.916
702.579
702.14
701.775
701.46
701.064
700.733
700.462
700.132
699.791
699.525
699.327
698.904
698.962
698.13
671.719
671.719
671.719
671.719
671.719
671.719
671.719
671.719
671.719
671.719
671.719
671.719
671.719
671.719
671.719
671.719
671.719
671.719
671.719
671.719
671.719
671.719
671.719
671.719
671.719
671.719
671.719
671.719
671.719
671.719
671.719
671.719
671.719
671.719
671.719
671.719
671.723
673.963
725.327
791.244
774.37
725.749
711.815
713.822
717.268
717.229
716.429
715.068
713.855
712.864
711.957
711.062
710.248
709.552
709.023
708.152
707.376
706.81
706.194
705.643
705.142
704.543
704.099
703.775
703.319
702.927
702.587
702.146
701.78
701.464
701.067
700.734
700.463
700.133
699.791
699.526
699.327
698.904
698.962
698.13
671.719
671.719
671.719
671.719
671.719
671.719
671.719
671.719
671.719
671.719
671.719
671.719
671.719
671.719
671.719
671.719
671.719
671.719
671.719
671.719
671.719
671.719
671.719
671.719
671.719
671.719
671.719
671.719
671.719
671.719
671.719
671.719
671.719
671.719
671.719
671.719
671.719
671.893
688.228
771.095
788.396
743.926
714.455
713.686
717
717.127
716.596
715.291
714.091
713.078
712.126
711.192
710.365
709.583
709.062
708.334
707.499
706.871
706.261
705.699
705.185
704.577
704.127
703.796
703.335
702.94
702.596
702.153
701.785
701.468
701.069
700.736
700.464
700.134
699.792
699.526
699.327
698.904
698.962
698.13
671.719
671.719
671.719
671.719
671.719
671.719
671.719
671.719
671.719
671.719
671.719
671.719
671.719
671.719
671.719
671.719
671.719
671.719
671.719
671.719
671.719
671.719
671.719
671.719
671.719
671.719
671.719
671.719
671.719
671.719
671.719
671.719
671.719
671.719
671.719
671.719
671.719
671.725
674.387
727.936
785.05
766.731
721.249
714.423
716.12
716.739
716.652
715.588
714.375
713.32
712.31
711.332
710.467
709.658
709.014
708.489
707.625
706.981
706.314
705.758
705.235
704.616
704.158
703.82
703.354
702.954
702.608
702.161
701.792
701.472
701.073
700.739
700.466
700.135
699.793
699.527
699.328
698.905
698.962
698.129
671.719
671.719
671.719
671.719
671.719
671.719
671.719
671.719
671.719
671.719
671.719
671.719
671.719
671.719
671.719
671.719
671.719
671.719
671.719
671.719
671.719
671.719
671.719
671.719
671.719
671.719
671.719
671.719
671.719
671.719
671.719
671.719
671.719
671.719
671.719
671.719
671.719
671.719
671.934
689.612
768.38
782.612
737.143
715.542
714.529
716.09
716.646
715.926
714.738
713.585
712.505
711.484
710.592
709.776
709.047
708.477
707.809
707.1
706.383
705.828
705.29
704.661
704.195
703.848
703.376
702.971
702.621
702.171
701.799
701.478
701.077
700.742
700.468
700.137
699.794
699.528
699.328
698.905
698.962
698.132
671.719
671.719
671.719
671.719
671.719
671.719
671.719
671.719
671.719
671.719
671.719
671.719
671.719
671.719
671.719
671.719
671.719
671.719
671.719
671.719
671.719
671.719
671.719
671.719
671.719
671.719
671.719
671.719
671.719
671.719
671.719
671.719
671.719
671.719
671.719
671.719
671.719
671.719
671.727
674.725
728.543
782.085
760.651
719.458
712.82
715.136
716.532
716.386
715.144