/*--------------------------------*- C++ -*----------------------------------*\
| =========                 |                                                 |
| \\      /  F ield         | OpenFOAM: The Open Source CFD Toolbox           |
|  \\    /   O peration     | Version:  v2012                                 |
|   \\  /    A nd           | Website:  www.openfoam.com                      |
|    \\/     M anipulation  |                                                 |
\*---------------------------------------------------------------------------*/
FoamFile
{
    version     2.0;
    format      ascii;
    class       volScalarField;
    location    "1801";
    object      Prt;
}
// * * * * * * * * * * * * * * * * * * * * * * * * * * * * * * * * * * * * * //

dimensions      [0 0 0 0 0 0 0];


internalField   nonuniform List<scalar> 
8000
(
0.63026
0.63026
0.63026
0.63026
0.63026
0.63026
0.63026
0.63026
0.63026
0.63026
0.63026
0.63026
0.63026
0.63026
0.63026
0.63026
0.63026
0.63026
0.63026
0.63026
0.63026
0.63026
0.63026
0.63026
0.63026
0.63026
0.63026
0.63026
0.63026
0.63026
0.63026
0.63026
0.63026
0.63026
0.63026
0.63026
0.63026
0.63026
0.63026
0.63026
0.63026
0.63026
0.63026
0.63026
0.63026
0.63026
0.63026
0.63026
0.63026
0.63026
0.63026
0.63026
0.63026
0.63026
0.63026
0.63026
0.63026
0.63026
0.63026
0.63026
0.63026
0.63026
0.63026
0.63026
0.63026
0.63026
0.63026
0.63026
0.63026
0.63026
0.63026
0.63026
0.63026
0.63026
0.63026
0.63026
0.63026
0.63026
0.63026
0.63026
0.63026
0.63026
0.63026
0.63026
0.63026
0.63026
0.63026
0.63026
0.63026
0.63026
0.63026
0.63026
0.63026
0.63026
0.63026
0.63026
0.63026
0.63026
0.63026
0.63026
0.63026
0.63026
0.63026
0.63026
0.63026
0.63026
0.63026
0.63026
0.63026
0.63026
0.63026
0.63026
0.63026
0.63026
0.63026
0.63026
0.63026
0.63026
0.63026
0.63026
0.63026
0.63026
0.63026
0.63026
0.63026
0.63026
0.63026
0.63026
0.63026
0.63026
0.63026
0.63026
0.63026
0.63026
0.63026
0.63026
0.63026
0.63026
0.63026
0.63026
0.63026
0.63026
0.63026
0.63026
0.63026
0.63026
0.63026
0.63026
0.63026
0.63026
0.63026
0.63026
0.63026
0.63026
0.63026
0.63026
0.63026
0.63026
0.63026
0.63026
0.63026
0.63026
0.63026
0.63026
0.63026
0.63026
0.63026
0.63026
0.63026
0.63026
0.63026
0.630258
0.63026
0.63026
0.63026
0.63026
0.63026
0.63026
0.63026
0.63026
0.63026
0.63026
0.63026
0.63026
0.63026
0.63026
0.63026
0.63026
0.63026
0.63026
0.600761
0.630259
0.63026
0.63026
0.63026
0.63026
0.63026
0.63026
0.63026
0.63026
0.63026
0.63026
0.63026
0.63026
0.63026
0.63026
0.63026
0.63026
0.63026
0.63026
0.600608
0.621249
0.63026
0.63026
0.63026
0.63026
0.63026
0.63026
0.63026
0.63026
0.63026
0.63026
0.63026
0.63026
0.63026
0.63026
0.63026
0.63026
0.63026
0.63026
0.63026
0.600521
0.625417
0.62796
0.63026
0.63026
0.63026
0.63026
0.63026
0.63026
0.63026
0.63026
0.63026
0.63026
0.63026
0.63026
0.63026
0.63026
0.63026
0.63026
0.63026
0.63026
0.63026
0.600476
0.605201
0.628731
0.629208
0.63026
0.63026
0.63026
0.63026
0.63026
0.63026
0.63026
0.63026
0.63026
0.63026
0.63026
0.63026
0.63026
0.63026
0.63026
0.63026
0.63026
0.63026
0.63026
0.599874
0.604064
0.628714
0.629608
0.629622
0.63026
0.63026
0.63026
0.63026
0.63026
0.63026
0.63026
0.63026
0.63026
0.63026
0.63026
0.63026
0.63026
0.63026
0.63026
0.63026
0.63026
0.63026
0.63026
0.629291
0.603256
0.628639
0.629596
0.629818
0.629836
0.63026
0.63026
0.63026
0.63026
0.63026
0.63026
0.63026
0.63026
0.63026
0.63026
0.63026
0.63026
0.63026
0.63026
0.63026
0.63026
0.63026
0.63026
0.63026
0.630154
0.602546
0.628664
0.629363
0.629881
0.629911
0.629979
0.63026
0.63026
0.63026
0.63026
0.63026
0.63026
0.63026
0.63026
0.63026
0.63026
0.63026
0.63026
0.63026
0.63026
0.63026
0.63026
0.63026
0.63026
0.63026
0.630213
0.601955
0.628757
0.629184
0.629695
0.629985
0.629968
0.630074
0.63026
0.63026
0.63026
0.63026
0.63026
0.63026
0.63026
0.63026
0.63026
0.63026
0.63026
0.63026
0.63026
0.63026
0.63026
0.63026
0.63026
0.63026
0.63026
0.630233
0.601524
0.602379
0.629106
0.62946
0.629852
0.630032
0.630004
0.630143
0.63026
0.63026
0.63026
0.63026
0.63026
0.63026
0.63026
0.63026
0.63026
0.63026
0.63026
0.63026
0.63026
0.63026
0.63026
0.63026
0.63026
0.63026
0.63026
0.630246
0.601212
0.602053
0.629107
0.629288
0.629633
0.629918
0.630051
0.630029
0.630193
0.63026
0.63026
0.63026
0.63026
0.63026
0.63026
0.63026
0.63026
0.63026
0.63026
0.63026
0.63026
0.63026
0.63026
0.63026
0.63026
0.63026
0.63026
0.63026
0.630254
0.603365
0.601734
0.629161
0.629228
0.629424
0.629717
0.629935
0.630052
0.630046
0.630229
0.63026
0.63026
0.63026
0.63026
0.63026
0.63026
0.63026
0.63026
0.63026
0.63026
0.63026
0.63026
0.63026
0.63026
0.63026
0.63026
0.63026
0.63026
0.63026
0.630258
0.612942
0.601455
0.629263
0.629256
0.629256
0.629488
0.629733
0.629914
0.630036
0.630053
0.630252
0.63026
0.63026
0.63026
0.63026
0.63026
0.63026
0.63026
0.63026
0.63026
0.63026
0.63026
0.63026
0.63026
0.63026
0.63026
0.63026
0.63026
0.63026
0.63026
0.630259
0.60547
0.601229
0.629398
0.629321
0.629224
0.629269
0.629486
0.629691
0.629864
0.63
0.63005
0.630265
0.63026
0.63026
0.63026
0.63026
0.63026
0.63026
0.63026
0.63026
0.63026
0.63026
0.63026
0.63026
0.63026
0.63026
0.63026
0.63026
0.63026
0.63026
0.63026
0.63026
0.600442
0.601053
0.629548
0.629405
0.629293
0.629119
0.629232
0.629412
0.629603
0.629779
0.629938
0.630035
0.630266
0.63026
0.63026
0.63026
0.63026
0.63026
0.63026
0.63026
0.63026
0.63026
0.63026
0.63026
0.63026
0.63026
0.63026
0.63026
0.63026
0.63026
0.63026
0.63026
0.63026
0.600419
0.635526
0.60075
0.629507
0.629394
0.629149
0.628969
0.629108
0.629275
0.629457
0.629643
0.629846
0.630012
0.630259
0.63026
0.63026
0.63026
0.63026
0.63026
0.63026
0.63026
0.63026
0.63026
0.63026
0.63026
0.63026
0.63026
0.63026
0.63026
0.63026
0.63026
0.63026
0.63026
0.63026
0.603792
0.635764
0.601005
0.629621
0.629498
0.629284
0.62889
0.628757
0.628908
0.629052
0.629226
0.629451
0.629739
0.629979
0.630245
0.63026
0.63026
0.63026
0.63026
0.63026
0.63026
0.63026
0.63026
0.63026
0.63026
0.63026
0.63026
0.63026
0.63026
0.63026
0.63026
0.63026
0.63026
0.63026
0.63026
0.62988
0.635657
0.600887
0.629737
0.6296
0.629433
0.629033
0.628533
0.628492
0.628594
0.628705
0.628901
0.629227
0.629623
0.629948
0.630233
0.63026
0.63026
0.63026
0.63026
0.63026
0.63026
0.63026
0.63026
0.63026
0.63026
0.63026
0.63026
0.63026
0.63026
0.63026
0.63026
0.63026
0.63026
0.63026
0.63026
0.630242
0.634907
0.610365
0.629844
0.629706
0.629562
0.629258
0.6286
0.628095
0.628083
0.628115
0.628221
0.628522
0.628991
0.629526
0.629926
0.630226
0.63026
0.63026
0.63026
0.63026
0.63026
0.63026
0.63026
0.63026
0.63026
0.63026
0.63026
0.63026
0.63026
0.63026
0.63026
0.63026
0.63026
0.63026
0.63026
0.63026
0.630257
0.61857
0.636553
0.629939
0.629807
0.629673
0.629459
0.628903
0.628002
0.627525
0.627476
0.627467
0.627664
0.628131
0.628795
0.62946
0.629914
0.630223
0.63026
0.63026
0.63026
0.63026
0.63026
0.63026
0.63026
0.63026
0.63026
0.63026
0.63026
0.63026
0.63026
0.63026
0.63026
0.63026
0.63026
0.63026
0.63026
0.63026
0.63026
0.600416
0.63657
0.605625
0.629897
0.629777
0.629615
0.629231
0.628315
0.627254
0.626773
0.626685
0.626748
0.627108
0.627809
0.628663
0.629424
0.629907
0.630223
0.63026
0.63026
0.63026
0.63026
0.63026
0.63026
0.63026
0.63026
0.63026
0.63026
0.63026
0.63026
0.63026
0.63026
0.63026
0.63026
0.63026
0.63026
0.63026
0.63026
0.63026
0.608896
0.636472
0.600657
0.629977
0.629869
0.629735
0.629485
0.6288
0.62748
0.626369
0.625874
0.625853
0.626065
0.626663
0.627594
0.62859
0.629403
0.629905
0.630226
0.63026
0.63026
0.63026
0.63026
0.63026
0.63026
0.63026
0.63026
0.63026
0.63026
0.63026
0.63026
0.63026
0.63026
0.63026
0.63026
0.63026
0.63026
0.63026
0.63026
0.63026
0.630136
0.63634
0.608949
0.630044
0.629949
0.629837
0.629665
0.62922
0.628101
0.626483
0.625417
0.625005
0.62511
0.625542
0.626372
0.627475
0.628549
0.629396
0.629906
0.630231
0.63026
0.63026
0.63026
0.63026
0.63026
0.63026
0.63026
0.63026
0.63026
0.63026
0.63026
0.63026
0.63026
0.63026
0.63026
0.63026
0.63026
0.63026
0.63026
0.63026
0.63026
0.630254
0.62258
0.636248
0.630101
0.630019
0.629922
0.629794
0.629519
0.628754
0.627155
0.625466
0.624542
0.624284
0.62457
0.625211
0.626213
0.627411
0.628535
0.629396
0.629908
0.630237
0.63026
0.63026
0.63026
0.63026
0.63026
0.63026
0.63026
0.63026
0.63026
0.63026
0.63026
0.63026
0.63026
0.63026
0.63026
0.63026
0.63026
0.63026
0.63026
0.63026
0.63026
0.630259
0.600415
0.636447
0.622655
0.630077
0.629995
0.629891
0.629716
0.629243
0.628053
0.626104
0.624545
0.623846
0.623792
0.62424
0.625034
0.62613
0.627389
0.628534
0.6294
0.629911
0.630244
0.63026
0.63026
0.63026
0.63026
0.63026
0.63026
0.63026
0.63026
0.63026
0.63026
0.63026
0.63026
0.63026
0.63026
0.63026
0.63026
0.63026
0.63026
0.63026
0.63026
0.63026
0.63026
0.609796
0.636395
0.600523
0.630124
0.630057
0.629969
0.629848
0.62957
0.628803
0.627172
0.625089
0.623821
0.623395
0.623495
0.624069
0.624945
0.626104
0.627389
0.628543
0.629408
0.629916
0.630251
0.63026
0.63026
0.63026
0.63026
0.63026
0.63026
0.63026
0.63026
0.63026
0.63026
0.63026
0.63026
0.63026
0.63026
0.63026
0.63026
0.63026
0.63026
0.63026
0.63026
0.63026
0.63026
0.630193
0.634916
0.616764
0.630162
0.630108
0.630034
0.629941
0.629774
0.629319
0.628214
0.62616
0.624253
0.623342
0.623117
0.623347
0.62399
0.62492
0.626107
0.627404
0.628559
0.629417
0.62992
0.630258
0.63026
0.63026
0.63026
0.63026
0.63026
0.63026
0.63026
0.63026
0.63026
0.63026
0.63026
0.63026
0.63026
0.63026
0.63026
0.63026
0.63026
0.63026
0.63026
0.63026
0.63026
0.63026
0.630257
0.600415
0.636102
0.630181
0.630148
0.630089
0.630013
0.629902
0.629645
0.628966
0.627435
0.625195
0.623635
0.623032
0.622958
0.62328
0.623972
0.624927
0.626129
0.627431
0.628577
0.629427
0.629924
0.630265
0.63026
0.63026
0.63026
0.63026
0.63026
0.63026
0.63026
0.63026
0.63026
0.63026
0.63026
0.63026
0.63026
0.63026
0.63026
0.63026
0.63026
0.63026
0.63026
0.63026
0.63026
0.63026
0.63026
0.600385
0.636344
0.600226
0.63018
0.630134
0.630071
0.629989
0.629839
0.629452
0.628472
0.626536
0.624393
0.623236
0.622836
0.622874
0.623267
0.623984
0.624955
0.626167
0.627462
0.628598
0.629437
0.629929
0.630272
0.63026
0.63026
0.63026
0.63026
0.63026
0.63026
0.63026
0.63026
0.63026
0.63026
0.63026
0.63026
0.63026
0.63026
0.63026
0.63026
0.63026
0.63026
0.63026
0.63026
0.63026
0.63026
0.63026
0.629705
0.635378
0.600455
0.630204
0.630169
0.630118
0.630053
0.629956
0.629744
0.62917
0.627833
0.62561
0.623789
0.622962
0.622714
0.622844
0.62328
0.624018
0.625
0.62621
0.627495
0.628618
0.629448
0.629934
0.630279
0.63026
0.63026
0.63026
0.63026
0.63026
0.63026
0.63026
0.63026
0.63026
0.63026
0.63026
0.63026
0.63026
0.63026
0.63026
0.63026
0.63026
0.63026
0.63026
0.63026
0.63026
0.63026
0.63026
0.630253
0.602262
0.631006
0.630222
0.630196
0.630157
0.630104
0.630033
0.629911
0.6296
0.628776
0.627039
0.624777
0.62337
0.622777
0.62265
0.622842
0.623315
0.624069
0.62505
0.626256
0.627528
0.628639
0.629459
0.629939
0.630285
0.63026
0.63026
0.63026
0.63026
0.63026
0.63026
0.63026
0.63026
0.63026
0.63026
0.63026
0.63026
0.63026
0.63026
0.63026
0.63026
0.63026
0.63026
0.63026
0.63026
0.63026
0.63026
0.63026
0.63026
0.600412
0.635981
0.621825
0.630216
0.630187
0.630145
0.63009
0.63001
0.629844
0.629386
0.628234
0.626136
0.624129
0.623082
0.622659
0.622619
0.622862
0.623366
0.624124
0.625104
0.626301
0.627563
0.628662
0.629471
0.629943
0.630292
0.63026
0.63026
0.63026
0.63026
0.63026
0.63026
0.63026
0.63026
0.63026
0.63026
0.63026
0.63026
0.63026
0.63026
0.63026
0.63026
0.63026
0.63026
0.63026
0.63026
0.63026
0.63026
0.63026
0.63026
0.628989
0.634072
0.600434
0.630231
0.63021
0.630177
0.630134
0.630076
0.629979
0.62974
0.62906
0.627503
0.625275
0.623656
0.62288
0.622583
0.622614
0.622899
0.623421
0.624182
0.625156
0.626349
0.627601
0.628685
0.629482
0.629948
0.630298
0.63026
0.63026
0.63026
0.63026
0.63026
0.63026
0.63026
0.63026
0.63026
0.63026
0.63026
0.63026
0.63026
0.63026
0.63026
0.63026
0.63026
0.63026
0.63026
0.63026
0.63026
0.63026
0.63026
0.63026
0.630252
0.600414
0.618466
0.630242
0.630226
0.630202
0.630168
0.630124
0.63006
0.629933
0.629573
0.628557
0.626658
0.624579
0.623329
0.622736
0.62254
0.62263
0.622943
0.623479
0.624239
0.625212
0.6264
0.627638
0.628708
0.629494
0.629953
0.630304
0.63026
0.63026
0.63026
0.63026
0.63026
0.63026
0.63026
0.63026
0.63026
0.63026
0.63026
0.63026
0.63026
0.63026
0.63026
0.63026
0.63026
0.63026
0.63026
0.63026
0.63026
0.63026
0.63026
0.63026
0.63026
0.600411
0.634296
0.626485
0.630238
0.630221
0.630195
0.630161
0.630114
0.630039
0.629856
0.629278
0.627899
0.625823
0.62405
0.62309
0.622637
0.622524
0.622654
0.622991
0.623537
0.624299
0.625272
0.626452
0.627676
0.628731
0.629505
0.629957
0.63031
0.63026
0.63026
0.63026
0.63026
0.63026
0.63026
0.63026
0.63026
0.63026
0.63026
0.63026
0.63026
0.63026
0.63026
0.63026
0.63026
0.63026
0.63026
0.63026
0.63026
0.63026
0.63026
0.63026
0.63026
0.63026
0.629626
0.62815
0.600423
0.630246
0.630234
0.630216
0.630189
0.630153
0.630102
0.630005
0.62971
0.628826
0.627139
0.625084
0.623656
0.622911
0.622572
0.622522
0.622687
0.623041
0.623597
0.624361
0.625331
0.626504
0.627713
0.628753
0.629516
0.629961
0.630316
0.63026
0.63026
0.63026
0.63026
0.63026
0.63026
0.63026
0.63026
0.63026
0.63026
0.63026
0.63026
0.63026
0.63026
0.63026
0.63026
0.63026
0.63026
0.63026
0.63026
0.63026
0.63026
0.63026
0.63026
0.63026
0.630255
0.600413
0.610655
0.630252
0.630244
0.630231
0.630211
0.630184
0.630146
0.630087
0.629941
0.62945
0.628234
0.626347
0.624495
0.62337
0.622781
0.622531
0.622532
0.622723
0.623094
0.623658
0.624423
0.625392
0.626555
0.62775
0.628775
0.629526
0.629966
0.630321
0.63026
0.63026
0.63026
0.63026
0.63026
0.63026
0.63026
0.63026
0.63026
0.63026
0.63026
0.63026
0.63026
0.63026
0.63026
0.63026
0.63026
0.63026
0.63026
0.63026
0.63026
0.63026
0.63026
0.63026
0.63026
0.63026
0.600315
0.629751
0.613724
0.63025
0.630241
0.630227
0.630206
0.630178
0.630138
0.63006
0.629811
0.629045
0.627556
0.625608
0.624042
0.623153
0.622684
0.622508
0.622549
0.622764
0.623149
0.62372
0.624486
0.625451
0.626606
0.627786
0.628795
0.629536
0.62997
0.630326
0.63026
0.63026
0.63026
0.63026
0.63026
0.63026
0.63026
0.63026
0.63026
0.63026
0.63026
0.63026
0.63026
0.63026
0.63026
0.63026
0.63026
0.63026
0.63026
0.63026
0.63026
0.63026
0.63026
0.63026
0.63026
0.63026
0.630154
0.61101
0.600417
0.630255
0.630249
0.630238
0.630224
0.630203
0.630173
0.630125
0.630003
0.62958
0.628524
0.626835
0.624972
0.623699
0.622984
0.622614
0.622497
0.622574
0.622809
0.623206
0.623783
0.624547
0.625511
0.626654
0.627819
0.628816
0.629546
0.629974
0.630331
0.63026
0.63026
0.63026
0.63026
0.63026
0.63026
0.63026
0.63026
0.63026
0.63026
0.63026
0.63026
0.63026
0.63026
0.63026
0.63026
0.63026
0.63026
0.63026
0.63026
0.63026
0.63026
0.63026
0.63026
0.63026
0.63026
0.630258
0.600413
0.608838
0.630252
0.630253
0.630247
0.630236
0.630221
0.630199
0.630166
0.630101
0.629886
0.629233
0.627923
0.626116
0.624461
0.623438
0.622853
0.622564
0.622497
0.622604
0.622856
0.623265
0.623845
0.624609
0.625567
0.626701
0.627853
0.628835
0.629556
0.629977
0.630336
0.63026
0.63026
0.63026
0.63026
0.63026
0.63026
0.63026
0.63026
0.63026
0.63026
0.63026
0.63026
0.63026
0.63026
0.63026
0.63026
0.63026
0.63026
0.63026
0.63026
0.63026
0.63026
0.63026
0.63026
0.63026
0.63026
0.63026
0.613118
0.618609
0.600306
0.630257
0.630252
0.630245
0.630234
0.630218
0.630194
0.630155
0.630047
0.62969
0.62878
0.627272
0.625458
0.624061
0.62323
0.622751
0.622531
0.622507
0.622638
0.622907
0.623323
0.623907
0.624668
0.625622
0.626747
0.627885
0.628854
0.629565
0.629981
0.630341
0.63026
0.63026
0.63026
0.63026
0.63026
0.63026
0.63026
0.63026
0.63026
0.63026
0.63026
0.63026
0.63026
0.63026
0.63026
0.63026
0.63026
0.63026
0.63026
0.63026
0.63026
0.63026
0.63026
0.63026
0.63026
0.63026
0.63026
0.630246
0.600413
0.600415
0.630259
0.630256
0.630251
0.630243
0.630232
0.630215
0.630188
0.630128
0.62995
0.629397
0.628247
0.626594
0.624901
0.62375
0.623062
0.622673
0.622513
0.622524
0.622677
0.622958
0.623383
0.623967
0.624725
0.625676
0.626791
0.627916
0.628873
0.629574
0.629985
0.630346
0.63026
0.63026
0.63026
0.63026
0.63026
0.63026
0.63026
0.63026
0.63026
0.63026
0.63026
0.63026
0.63026
0.63026
0.63026
0.63026
0.63026
0.63026
0.63026
0.63026
0.63026
0.63026
0.63026
0.63026
0.63026
0.63026
0.63026
0.63026
0.60041
0.607711
0.629944
0.630258
0.630255
0.63025
0.630242
0.63023
0.63021
0.630173
0.630085
0.629785
0.629006
0.627658
0.62594
0.624447
0.623503
0.622927
0.622617
0.622505
0.622548
0.622718
0.623012
0.62344
0.624024
0.624782
0.625727
0.626834
0.627946
0.628891
0.629583
0.629988
0.63035
0.63026
0.63026
0.63026
0.63026
0.63026
0.63026
0.63026
0.63026
0.63026
0.63026
0.63026
0.63026
0.63026
0.63026
0.63026
0.63026
0.63026
0.63026
0.63026
0.63026
0.63026
0.63026
0.63026
0.63026
0.63026
0.63026
0.63026
0.63026
0.629989
0.600413
0.600414
0.63026
0.630258
0.630254
0.630249
0.630241
0.630227
0.630202
0.630155
0.630005
0.629537
0.628534
0.627036
0.625348
0.624082
0.6233
0.622821
0.622576
0.622508
0.622576
0.622763
0.623064
0.623496
0.624082
0.624837
0.625778
0.626876
0.627975
0.628908
0.629591
0.629992
0.630354
0.63026
0.63026
0.63026
0.63026
0.63026
0.63026
0.63026
0.63026
0.63026
0.63026
0.63026
0.63026
0.63026
0.63026
0.63026
0.63026
0.63026
0.63026
0.63026
0.63026
0.63026
0.63026
0.63026
0.63026
0.63026
0.63026
0.63026
0.63026
0.630258
0.600413
0.600413
0.630261
0.630259
0.630257
0.630254
0.630248
0.630238
0.630221
0.630191
0.63012
0.629865
0.629203
0.628006
0.626401
0.624847
0.623795
0.623133
0.622738
0.622551
0.622517
0.622609
0.622807
0.623115
0.623553
0.624138
0.62489
0.625828
0.626916
0.628004
0.628926
0.6296
0.629995
0.630358
0.63026
0.63026
0.63026
0.63026
0.63026
0.63026
0.63026
0.63026
0.63026
0.63026
0.63026
0.63026
0.63026
0.63026
0.63026
0.63026
0.63026
0.63026
0.63026
0.63026
0.63026
0.63026
0.63026
0.63026
0.63026
0.63026
0.63026
0.63026
0.63026
0.616704
0.600413
0.599853
0.630261
0.630259
0.630257
0.630253
0.630247
0.630234
0.630214
0.630179
0.630049
0.629658
0.628792
0.627438
0.625798
0.624436
0.623558
0.622996
0.622676
0.622536
0.622534
0.622643
0.622852
0.623168
0.623607
0.624193
0.624943
0.625876
0.626956
0.628033
0.628942
0.629608
0.629998
0.630362
0.63026
0.63026
0.63026
0.63026
0.63026
0.63026
0.63026
0.63026
0.63026
0.63026
0.63026
0.63026
0.63026
0.63026
0.63026
0.63026
0.63026
0.63026
0.63026
0.63026
0.63026
0.63026
0.63026
0.63026
0.63026
0.63026
0.63026
0.63026
0.63026
0.63025
0.600413
0.600413
0.630261
0.63026
0.630259
0.630256
0.630252
0.630244
0.630229
0.63021
0.630147
0.629934
0.629378
0.628322
0.626838
0.625257
0.624101
0.62336
0.622887
0.622629
0.622532
0.622555
0.622679
0.622898
0.623219
0.623661
0.624247
0.624994
0.625923
0.626995
0.62806
0.628959
0.629616
0.630001
0.630366
0.63026
0.63026
0.63026
0.63026
0.63026
0.63026
0.63026
0.63026
0.63026
0.63026
0.63026
0.63026
0.63026
0.63026
0.63026
0.63026
0.63026
0.63026
0.63026
0.63026
0.63026
0.63026
0.63026
0.63026
0.63026
0.63026
0.63026
0.63026
0.63026
0.63026
0.600339
0.600413
0.630099
0.630261
0.63026
0.630258
0.630256
0.63025
0.630241
0.630227
0.630196
0.630088
0.629764
0.629025
0.6278
0.626235
0.6248
0.62383
0.623194
0.6228
0.622598
0.622535
0.622579
0.622717
0.622943
0.62327
0.623714
0.624299
0.625045
0.62597
0.627033
0.628087
0.628974
0.629623
0.630004
0.63037
0.63026
0.63026
0.63026
0.63026
0.63026
0.63026
0.63026
0.63026
0.63026
0.63026
0.63026
0.63026
0.63026
0.63026
0.63026
0.63026
0.63026
0.63026
0.63026
0.63026
0.63026
0.63026
0.63026
0.63026
0.63026
0.63026
0.63026
0.63026
0.63026
0.63026
0.630195
0.600413
0.600413
0.630261
0.630261
0.63026
0.630258
0.630255
0.630248
0.630237
0.630222
0.630169
0.629994
0.629532
0.628603
0.62724
0.625671
0.624421
0.6236
0.623056
0.622734
0.622578
0.622544
0.622607
0.622756
0.62299
0.62332
0.623766
0.624351
0.625095
0.626016
0.627071
0.628113
0.628989
0.629631
0.630007
0.630374
0.63026
0.63026
0.63026
0.63026
0.63026
0.63026
0.63026
0.63026
0.63026
0.63026
0.63026
0.63026
0.63026
0.63026
0.63026
0.63026
0.63026
0.63026
0.63026
0.63026
0.63026
0.63026
0.63026
0.63026
0.63026
0.63026
0.63026
0.63026
0.63026
0.63026
0.630259
0.600413
0.600413
0.630258
0.630261
0.630261
0.63026
0.630258
0.630253
0.630243
0.630235
0.630211
0.630121
0.629857
0.629229
0.628128
0.626655
0.625174
0.624111
0.623406
0.622945
0.622684
0.622567
0.622558
0.622637
0.622796
0.623036
0.62337
0.623818
0.624403
0.625144
0.626061
0.627107
0.628137
0.629004
0.629638
0.63001
0.630377
0.63026
0.63026
0.63026
0.63026
0.63026
0.63026
0.63026
0.63026
0.63026
0.63026
0.63026
0.63026
0.63026
0.63026
0.63026
0.63026
0.63026
0.63026
0.63026
0.63026
0.63026
0.63026
0.63026
0.63026
0.63026
0.63026
0.63026
0.63026
0.63026
0.63026
0.63026
0.629592
0.600413
0.600273
0.630262
0.630261
0.630261
0.63026
0.630256
0.630248
0.630243
0.630232
0.630188
0.630046
0.629663
0.628856
0.627608
0.626082
0.624753
0.623852
0.623242
0.622857
0.622647
0.622564
0.622577
0.622669
0.622837
0.623082
0.62342
0.623869
0.624453
0.625192
0.626103
0.627141
0.628162
0.629019
0.629645
0.630013
0.630381
0.63026
0.63026
0.63026
0.63026
0.63026
0.63026
0.63026
0.63026
0.63026
0.63026
0.63026
0.63026
0.63026
0.63026
0.63026
0.63026
0.63026
0.63026
0.63026
0.63026
0.63026
0.63026
0.63026
0.63026
0.63026
0.63026
0.63026
0.63026
0.63026
0.63026
0.63026
0.630258
0.600413
0.600413
0.630262
0.630262
0.630261
0.630261
0.630259
0.630253
0.630247
0.630243
0.630222
0.63015
0.629934
0.629406
0.628424
0.627053
0.625554
0.624399
0.62363
0.623106
0.622787
0.622622
0.622568
0.622599
0.622703
0.622878
0.623128
0.623469
0.623919
0.624503
0.625238
0.626144
0.627175
0.628185
0.629033
0.629652
0.630016
0.630384
0.63026
0.63026
0.63026
0.63026
0.63026
0.63026
0.63026
0.63026
0.63026
0.63026
0.63026
0.63026
0.63026
0.63026
0.63026
0.63026
0.63026
0.63026
0.63026
0.63026
0.63026
0.63026
0.63026
0.63026
0.63026
0.63026
0.63026
0.63026
0.63026
0.63026
0.63026
0.63026
0.621411
0.600413
0.622229
0.630262
0.630262
0.630261
0.63026
0.630256
0.63025
0.63025
0.630239
0.630204
0.63009
0.629775
0.62908
0.627945
0.626482
0.625092
0.62411
0.623441
0.622995
0.622735
0.622607
0.622577
0.622624
0.622738
0.62292
0.623175
0.623518
0.623969
0.624551
0.625282
0.626185
0.627208
0.628208
0.629047
0.629659
0.630019
0.630388
0.63026
0.63026
0.63026
0.63026
0.63026
0.63026
0.63026
0.63026
0.63026
0.63026
0.63026
0.63026
0.63026
0.63026
0.63026
0.63026
0.63026
0.63026
0.63026
0.63026
0.63026
0.63026
0.63026
0.63026
0.63026
0.63026
0.63026
0.63026
0.63026
0.63026
0.63026
0.63026
0.630254
0.600413
0.600413
0.630262
0.630262
0.630262
0.630261
0.630258
0.630253
0.630253
0.630248
0.630231
0.630173
0.629999
0.629559
0.628692
0.627422
0.625936
0.624702
0.623862
0.623279
0.622906
0.622695
0.6226
0.622592
0.622651
0.622775
0.622962
0.62322
0.623566
0.624017
0.624597
0.625326
0.626225
0.62724
0.628231
0.62906
0.629666
0.630021
0.630391
0.63026
0.63026
0.63026
0.63026
0.63026
0.63026
0.63026
0.63026
0.63026
0.63026
0.63026
0.63026
0.63026
0.63026
0.63026
0.63026
0.63026
0.63026
0.63026
0.63026
0.63026
0.63026
0.63026
0.63026
0.63026
0.63026
0.63026
0.63026
0.63026
0.63026
0.63026
0.63026
0.63026
0.599469
0.600413
0.629724
0.630262
0.630262
0.630261
0.63026
0.630256
0.630254
0.630253
0.630245
0.630217
0.630125
0.629869
0.629279
0.628252
0.626868
0.625439
0.624375
0.623648
0.623146
0.622836
0.622667
0.622601
0.622609
0.622681
0.622812
0.623004
0.623266
0.623613
0.624063
0.624643
0.625369
0.626264
0.627272
0.628254
0.629074
0.629673
0.630024
0.630395
0.63026
0.63026
0.63026
0.63026
0.63026
0.63026
0.63026
0.63026
0.63026
0.63026
0.63026
0.63026
0.63026
0.63026
0.63026
0.63026
0.63026
0.63026
0.63026
0.63026
0.63026
0.63026
0.63026
0.63026
0.63026
0.63026
0.63026
0.63026
0.63026
0.63026
0.63026
0.63026
0.63026
0.630243
0.600413
0.600413
0.630262
0.630262
0.630262
0.630261
0.630259
0.630254
0.630256
0.630252
0.630239
0.630193
0.630053
0.62969
0.628934
0.627762
0.626312
0.625012
0.624102
0.623464
0.623037
0.622782
0.62265
0.622606
0.62263
0.622712
0.62285
0.623047
0.623311
0.623658
0.62411
0.624687
0.625411
0.626303
0.627304
0.628276
0.629088
0.62968
0.630027
0.630398
0.63026
0.63026
0.63026
0.63026
0.63026
0.63026
0.63026
0.63026
0.63026
0.63026
0.63026
0.63026
0.63026
0.63026
0.63026
0.63026
0.63026
0.63026
0.63026
0.63026
0.63026
0.63026
0.63026
0.63026
0.63026
0.63026
0.63026
0.63026
0.63026
0.63026
0.63026
0.63026
0.63026
0.63026
0.600236
0.600413
0.630254
0.630262
0.630262
0.630262
0.63026
0.630254
0.630257
0.630256
0.630249
0.630227
0.630154
0.629948
0.629452
0.628529
0.627232
0.625792
0.624647
0.623863
0.623307
0.622949
0.622741
0.62264
0.622617
0.622654
0.622745
0.622889
0.623089
0.623354
0.623703
0.624155
0.624731
0.625454
0.626341
0.627335
0.628299
0.629101
0.629687
0.63003
0.630401
0.63026
0.63026
0.63026
0.63026
0.63026
0.63026
0.63026
0.63026
0.63026
0.63026
0.63026
0.63026
0.63026
0.63026
0.63026
0.63026
0.63026
0.63026
0.63026
0.63026
0.63026
0.63026
0.63026
0.63026
0.63026
0.63026
0.63026
0.63026
0.63026
0.63026
0.63026
0.63026
0.63026
0.63026
0.630215
0.600413
0.600395
0.630262
0.630262
0.630262
0.630261
0.630255
0.630257
0.630258
0.630255
0.630244
0.630208
0.630097
0.6298
0.629148
0.628074
0.626682
0.625328
0.624343
0.623656
0.623177
0.622879
0.622712
0.622638
0.622631
0.62268
0.622779
0.622927
0.623129
0.623398
0.623747
0.624199
0.624775
0.625495
0.626379
0.627368
0.628322
0.629115
0.629693
0.630032
0.630405
0.63026
0.63026
0.63026
0.63026
0.63026
0.63026
0.63026
0.63026
0.63026
0.63026
0.63026
0.63026
0.63026
0.63026
0.63026
0.63026
0.63026
0.63026
0.63026
0.63026
0.63026
0.63026
0.63026
0.63026
0.63026
0.63026
0.63026
0.63026
0.63026
0.63026
0.63026
0.63026
0.63026
0.63026
0.63026
0.600396
0.600413
0.630259
0.630262
0.630262
0.630261
0.630257
0.630256
0.630259
0.630257
0.630252
0.630235
0.630178
0.630013
0.629599
0.628781
0.627573
0.626145
0.624929
0.624083
0.623477
0.623071
0.622825
0.622693
0.622641
0.62265
0.622709
0.622813
0.622965
0.623171
0.623441
0.623791
0.624244
0.624819
0.625537
0.626418
0.627399
0.628344
0.629128
0.6297
0.630035
0.630408
0.63026
0.63026
0.63026
0.63026
0.63026
0.63026
0.63026
0.63026
0.63026
0.63026
0.63026
0.63026
0.63026
0.63026
0.63026
0.63026
0.63026
0.63026
0.63026
0.63026
0.63026
0.63026
0.63026
0.63026
0.63026
0.63026
0.63026
0.63026
0.63026
0.63026
0.63026
0.63026
0.63026
0.63026
0.63026
0.630143
0.600413
0.599323
0.630262
0.630262
0.630262
0.630259
0.630257
0.630259
0.630259
0.630256
0.630248
0.630221
0.630133
0.629892
0.629336
0.628361
0.627038
0.62565
0.624592
0.623854
0.623326
0.622985
0.622785
0.622681
0.622649
0.622671
0.622738
0.622847
0.623003
0.623211
0.623483
0.623835
0.624287
0.624862
0.62558
0.626457
0.62743
0.628366
0.629142
0.629707
0.630038
0.630411
0.63026
0.63026
0.63026
0.63026
0.63026
0.63026
0.63026
0.63026
0.63026
0.63026
0.63026
0.63026
0.63026
0.63026
0.63026
0.63026
0.63026
0.63026
0.63026
0.63026
0.63026
0.63026
0.63026
0.63026
0.63026
0.63026
0.63026
0.63026
0.63026
0.63026
0.63026
0.63026
0.63026
0.63026
0.63026
0.630259
0.60041
0.600413
0.630262
0.630262
0.630262
0.630261
0.630259
0.630259
0.630259
0.630258
0.630255
0.630242
0.630197
0.630065
0.629724
0.62901
0.62789
0.626494
0.625219
0.624307
0.623655
0.623201
0.622918
0.622755
0.622678
0.622662
0.622694
0.622767
0.622882
0.623042
0.623252
0.623526
0.623878
0.624331
0.624906
0.625621
0.626495
0.627462
0.628388
0.629155
0.629714
0.63004
0.630414
0.63026
0.63026
0.63026
0.63026
0.63026
0.63026
0.63026
0.63026
0.63026
0.63026
0.63026
0.63026
0.63026
0.63026
0.63026
0.63026
0.63026
0.63026
0.63026
0.63026
0.63026
0.63026
0.63026
0.63026
0.63026
0.63026
0.63026
0.63026
0.63026
0.63026
0.63026
0.63026
0.63026
0.63026
0.63026
0.63026
0.629968
0.600413
0.61612
0.630262
0.630262
0.630262
0.63026
0.630258
0.630259
0.630259
0.630258
0.630252
0.63023
0.630161
0.629968
0.629501
0.628622
0.627376
0.625979
0.624846
0.624057
0.623482
0.6231
0.622864
0.622736
0.62268
0.622677
0.622717
0.622798
0.622918
0.62308
0.623293
0.623568
0.623921
0.624375
0.624949
0.625663
0.626533
0.627493
0.62841
0.629169
0.629721
0.630043
0.630419
0.63026
0.63026
0.63026
0.63026
0.63026
0.63026
0.63026
0.63026
0.63026
0.63026
0.63026
0.63026
0.63026
0.63026
0.63026
0.63026
0.63026
0.63026
0.63026
0.63026
0.63026
0.63026
0.63026
0.63026
0.63026
0.63026
0.63026
0.63026
0.63026
0.63026
0.63026
0.63026
0.63026
0.63026
0.63026
0.63026
0.630259
0.600412
0.600413
0.630262
0.630262
0.630262
0.630261
0.630255
0.630259
0.63026
0.630259
0.630257
0.630247
0.630212
0.630108
0.62983
0.629212
0.628183
0.626837
0.625512
0.624533
0.623837
0.623339
0.623016
0.622826
0.622725
0.622686
0.622695
0.622744
0.62283
0.622953
0.623119
0.623334
0.62361
0.623965
0.624418
0.624991
0.625705
0.626572
0.627525
0.628432
0.629183
0.629726
0.630047
0.63026
0.63026
0.63026
0.63026
0.63026
0.63026
0.63026
0.63026
0.63026
0.63026
0.63026
0.63026
0.63026
0.63026
0.63026
0.63026
0.63026
0.63026
0.63026
0.63026
0.63026
0.63026
0.63026
0.63026
0.63026
0.63026
0.63026
0.63026
0.63026
0.63026
0.63026
0.63026
0.63026
0.63026
0.63026
0.63026
0.63026
0.629642
0.600413
0.625699
0.630262
0.630262
0.630261
0.630253
0.630258
0.63026
0.63026
0.630259
0.630254
0.630238
0.630184
0.63003
0.629641
0.628861
0.627694
0.626306
0.62511
0.624264
0.623646
0.623219
0.622953
0.622798
0.622719
0.622695
0.622715
0.622772
0.622862
0.62299
0.623158
0.623374
0.623652
0.624008
0.624461
0.625035
0.625748
0.62661
0.627555
0.628455
0.629194
0.629738
0.63026
0.63026
0.63026
0.63026
0.63026
0.63026
0.63026
0.63026
0.63026
0.63026
0.63026
0.63026
0.63026
0.63026
0.63026
0.63026
0.63026
0.63026
0.63026
0.63026
0.63026
0.63026
0.63026
0.63026
0.63026
0.63026
0.63026
0.63026
0.63026
0.63026
0.63026
0.63026
0.63026
0.63026
0.63026
0.63026
0.63026
0.630258
0.600412
0.600413
0.630262
0.630262
0.630262
0.630255
0.630258
0.63026
0.630261
0.63026
0.630258
0.63025
0.630224
0.630142
0.629918
0.629392
0.628452
0.627168
0.625813
0.624766
0.624025
0.623482
0.623124
0.622904
0.622779
0.622719
0.622709
0.622738
0.6228
0.622896
0.623026
0.623197
0.623416
0.623694
0.624051
0.624505
0.625078
0.62579
0.626648