/*--------------------------------*- C++ -*----------------------------------*\
| =========                 |                                                 |
| \\      /  F ield         | OpenFOAM: The Open Source CFD Toolbox           |
|  \\    /   O peration     | Version:  v2012                                 |
|   \\  /    A nd           | Website:  www.openfoam.com                      |
|    \\/     M anipulation  |                                                 |
\*---------------------------------------------------------------------------*/
FoamFile
{
    version     2.0;
    format      ascii;
    class       volScalarField;
    location    "1801";
    object      q2;
}
// * * * * * * * * * * * * * * * * * * * * * * * * * * * * * * * * * * * * * //

dimensions      [0 0 0 0 0 0 0];


internalField   nonuniform List<scalar> 
8000
(
1
1
1
1
1
1
1
1
1
1
1
1
1
1
1
1
1
1
1
1
1
1
1
1
1
1
1
1
1
1
1
1
1
1
1
1
1
1
1
1
1
1
1
1
1
1
1
1
1
1
1
1
1
1
1
1
1
1
1
1
1
1
1
1
1
1
1
1
1
1
1
1
1
1
1
1
1
1
1
1
1
1
1
1
1
1
1
1
1
1
1
1
1
1
1
1
1
1
1
1
1
1
1
1
1
1
1
1
1
1
1
1
1
1
1
1
1
1
1
1
1
1
1
1
1
1
1
1
1
1
1
1
1
1
1
1
1
1
1
1
1
1
1
1
1
1
1
1
1
1
1
1
1
1
1
1
1
1
1
1
1
1
1
1
1
1
1
1
1
1
1
1
1
1
1
1
1
1
1
1
1
1
1
1
1
1
1
1
1
1
1
1
1
1
1
1
1
1
1
1
1
1
1
1
1
1
1
1
1
1
1
1
1
1
1
1
1
1
1
1
1
1
1
1
1
1
1
1
1
1
1
1
0.999999
1
1
1
1
1
1
1
1
1
1
1
1
1
1
1
1
1
1
1
1
1
0.573696
1
1
1
1
1
1
1
1
1
1
1
1
1
1
1
1
1
1
1
1
1
1
0.160652
0.94281
1
1
1
1
1
1
1
1
1
1
1
1
1
1
1
1
1
1
1
1
1
1
0.0876449
0.166801
1
1
1
1
1
1
1
1
1
1
1
1
1
1
1
1
1
1
1
1
1
1
1
0.105639
0.0369629
0.552496
1
1
1
1
1
1
1
1
1
1
1
1
1
1
1
1
1
1
1
1
1
1
1
0.13487
0.0163012
0.0859397
0.947067
1
1
1
1
1
1
1
1
1
1
1
1
1
1
1
1
1
1
1
1
1
1
1
0.0798765
0.0150453
0.0193574
0.210862
0.999677
1
1
1
1
1
1
1
1
1
1
1
1
1
1
1
1
1
1
1
1
1
1
1
0.0390078
0.0234517
0.00798249
0.0355845
0.483036
1
1
1
1
1
1
1
1
1
1
1
1
1
1
1
1
1
1
1
1
1
1
1
1
0.0220243
0.0447551
0.00635299
0.00872447
0.0804237
0.787841
1
1
1
1
1
1
1
1
1
1
1
1
1
1
1
1
1
1
1
1
1
1
1
1
0.0212807
0.0330204
0.0117622
0.00383532
0.0154783
0.165765
0.950525
1
1
1
1
1
1
1
1
1
1
1
1
1
1
1
1
1
1
1
1
1
1
1
1
0.0290307
0.013306
0.0540079
0.00363511
0.00410375
0.0302602
0.296241
0.993069
1
1
1
1
1
1
1
1
1
1
1
1
1
1
1
1
1
1
1
1
1
1
1
1
0.0542293
0.0048702
0.468552
0.00739123
0.00198059
0.00659606
0.0565641
0.459757
0.999337
1
1
1
1
1
1
1
1
1
1
1
1
1
1
1
1
1
1
1
1
1
1
1
1
0.126969
0.00167906
0.815826
0.0271039
0.00237334
0.0019795
0.011867
0.09713
0.626985
0.999949
1
1
1
1
1
1
1
1
1
1
1
1
1
1
1
1
1
1
1
1
1
1
1
1
0.357429
0.000965057
0.171541
0.0940562
0.00644099
0.0011705
0.00294622
0.0210839
0.151874
0.766807
0.999995
1
1
1
1
1
1
1
1
1
1
1
1
1
1
1
1
1
1
1
1
1
1
1
1
0.879913
0.000906372
0.0155749
0.184997
0.029996
0.00199154
0.00107104
0.00511579
0.0348678
0.219574
0.858854
0.999998
1
1
1
1
1
1
1
1
1
1
1
1
1
1
1
1
1
1
1
1
1
1
1
1
0.999996
0.00139119
0.00219407
0.821799
0.0435
0.00815572
0.000906677
0.00150217
0.00911396
0.0545969
0.295605
0.902738
0.999998
1
1
1
1
1
1
1
1
1
1
1
1
1
1
1
1
1
1
1
1
1
1
1
1
1
0.0032773
0.000477246
1
0.0198298
0.0823534
0.00236718
0.000720639
0.0026956
0.0163196
0.0820781
0.371047
0.915936
0.999994
1
1
1
1
1
1
1
1
1
1
1
1
1
1
1
1
1
1
1
1
1
1
1
1
1
0.0113564
0.000188333
0.413035
0.0180734
0.0943872
0.0169609
0.000971388
0.000990503
0.00544904
0.0297472
0.120354
0.43716
0.923734
0.99998
1
1
1
1
1
1
1
1
1
1
1
1
1
1
1
1
1
1
1
1
1
1
1
1
1
0.0559062
0.000137895
0.0128126
0.0249853
0.0256973
0.304482
0.00443871
0.000699325
0.00196634
0.0120577
0.0558301
0.176327
0.51396
0.926348
0.999958
1
1
1
1
1
1
1
1
1
1
1
1
1
1
1
1
1
1
1
1
1
1
1
1
1
0.371228
0.000189118
0.000942144
0.112256
0.00959556
0.341137
0.0652444
0.00160635
0.000926369
0.00486824
0.0282519
0.107259
0.251984
0.58758
0.932092
0.999945
1
1
1
1
1
1
1
1
1
1
1
1
1
1
1
1
1
1
1
1
1
1
1
1
1
0.999179
0.000469993
0.000147936
1
0.00453594
0.0752248
0.851531
0.0134952
0.00103075
0.00198039
0.0131212
0.0651459
0.185603
0.35257
0.658525
0.940325
0.999941
1
1
1
1
1
1
1
1
1
1
1
1
1
1
1
1
1
1
1
1
1
1
1
1
1
1
0.0020146
5.22365e-05
0.140754
0.0043433
0.017355
0.757624
0.356118
0.0043282
0.00123408
0.00528969
0.0343893
0.137355
0.297066
0.456965
0.716402
0.947131
0.999947
1
1
1
1
1
1
1
1
1
1
1
1
1
1
1
1
1
1
1
1
1
1
1
1
1
1
0.0141901
4.03431e-05
0.00283934
0.00824398
0.00505456
0.23974
0.997954
0.0726071
0.00231261
0.00234855
0.0146269
0.0822129
0.221634
0.412364
0.545107
0.759394
0.954391
0.999958
1
1
1
1
1
1
1
1
1
1
1
1
1
1
1
1
1
1
1
1
1
1
1
1
1
1
0.158553
6.6778e-05
0.000187242
0.0558318
0.00204448
0.0547181
0.893316
0.972364
0.0191296
0.00217453
0.00565099
0.0378477
0.142585
0.309634
0.509127
0.616571
0.795475
0.960855
0.99997
1
1
1
1
1
1
1
1
1
1
1
1
1
1
1
1
1
1
1
1
1
1
1
1
1
1
0.993787
0.000229571
3.41216e-05
0.902477
0.00136446
0.011948
0.46672
0.991512
0.530537
0.00780391
0.00312857
0.0143018
0.0847374
0.207861
0.402903
0.586666
0.672571
0.82311
0.966886
0.999981
1
1
1
1
1
1
1
1
1
1
1
1
1
1
1
1
1
1
1
1
1
1
1
1
1
1
1
0.0015459
1.62913e-05
0.00727663
0.00162435
0.00307474
0.144911
0.852768
0.989149
0.143796
0.00515373
0.00589737
0.0348919
0.134282
0.285997
0.492607
0.650478
0.715739
0.846746
0.972354
0.999988
1
1
1
1
1
1
1
1
1
1
1
1
1
1
1
1
1
1
1
1
1
1
1
1
1
1
1
0.0193413
1.97207e-05
0.000230628
0.00766323
0.0010145
0.0350368
0.528937
0.879425
0.981035
0.0405925
0.00502219
0.0128399
0.0745023
0.195182
0.374002
0.575462
0.701805
0.751035
0.867317
0.977126
0.999993
1
1
1
1
1
1
1
1
1
1
1
1
1
1
1
1
1
1
1
1
1
1
1
1
1
1
1
0.412092
5.79883e-05
2.39333e-05
0.752097
0.00053848
0.00731684
0.241084
0.622222
0.864207
0.920777
0.0180361
0.00684881
0.0288958
0.124904
0.266399
0.468117
0.646856
0.740789
0.780728
0.885204
0.981287
0.999996
1
1
1
1
1
1
1
1
1
1
1
1
1
1
1
1
1
1
1
1
1
1
1
1
1
1
1
1
0.00039154
8.21127e-06
0.0123398
0.000595211
0.00165032
0.0787017
0.393496
0.56335
0.997856
0.329448
0.011236
0.012026
0.0601151
0.181278
0.353448
0.559109
0.706427
0.77194
0.806384
0.901303
0.984755
0.999998
1
1
1
1
1
1
1
1
1
1
1
1
1
1
1
1
1
1
1
1
1
1
1
1
1
1
1
1
0.0057001
8.46629e-06
0.00019351
0.00252645
0.000491499
0.0192511
0.222694
0.333613
0.838858
1
0.101984
0.0102657
0.0236475
0.112479
0.250645
0.448236
0.642386
0.755755
0.798482
0.829776
0.915499
0.98764
0.999999
1
1
1
1
1
1
1
1
1
1
1
1
1
1
1
1
1
1
1
1
1
1
1
1
1
1
1
1
0.170143
2.44965e-05
1.45588e-05
0.183743
0.000263845
0.00380786
0.103098
0.205968
0.471396
0.999924
0.999662
0.0369637
0.0130071
0.0474195
0.166171
0.330317
0.546418
0.715303
0.796122
0.822599
0.851107
0.9277
0.989945
0.999999
1
1
1
1
1
1
1
1
1
1
1
1
1
1
1
1
1
1
1
1
1
1
1
1
1
1
1
1
1
0.000186979
4.39808e-06
0.00747966
0.000279788
0.000843177
0.0346318
0.126304
0.239362
0.933063
1
0.681729
0.0203567
0.0208482
0.0884937
0.229377
0.424831
0.641198
0.77561
0.830219
0.844916
0.870133
0.936592
0.991829
1
1
1
1
1
1
1
1
1
1
1
1
1
1
1
1
1
1
1
1
1
1
1
1
1
1
1
1
1
1
0.00353457
4.69742e-06
9.24884e-05
0.00137916
0.000242271
0.00865996
0.0723423
0.128468
0.579709
1
1
0.157847
0.017238
0.0376238
0.148491
0.304881
0.527723
0.725105
0.82498
0.859418
0.865162
0.88602
0.944254
0.993373
1
1
1
1
1
1
1
1
1
1
1
1
1
1
1
1
1
1
1
1
1
1
1
1
1
1
1
1
1
1
0.156886
1.59523e-05
7.01843e-06
0.20855
0.000131955
0.00171126
0.0357698
0.0719863
0.255069
1
1
1
0.0515405
0.0207973
0.0689161
0.206012
0.394115
0.630663
0.795604
0.865031
0.884273
0.882859
0.899815
0.950878
0.99463
1
1
1
1
1
1
1
1
1
1
1
1
1
1
1
1
1
1
1
1
1
1
1
1
1
1
1
1
1
1
1
0.000160987
2.40336e-06
0.00161193
0.000166869
0.000373828
0.0129793
0.0429772
0.112367
0.97295
1
1
0.702003
0.0279168
0.0316216
0.118976
0.275771
0.496565
0.72568
0.852177
0.897101
0.904779
0.898274
0.911783
0.95666
0.995669
1
1
1
1
1
1
1
1
1
1
1
1
1
1
1
1
1
1
1
1
1
1
1
1
1
1
1
1
1
1
1
0.00455557
3.29048e-06
2.66006e-05
0.00114504
0.000116532
0.00329857
0.0254104
0.0531385
0.473795
1
1
1
0.157221
0.0238704
0.0538812
0.182176
0.357749
0.605425
0.806358
0.895859
0.921819
0.921576
0.911588
0.922231
0.961741
0.996512
1
1
1
1
1
1
1
1
1
1
1
1
1
1
1
1
1
1
1
1
1
1
1
1
1
1
1
1
1
1
1
0.334661
1.58517e-05
2.9146e-06
0.131029
7.43421e-05
0.000670777
0.0127056
0.0282618
0.15002
1
1
1
0.999996
0.0540655
0.029008
0.0927125
0.244919
0.455957
0.710372
0.870005
0.927784
0.940626
0.935256
0.923097
0.931392
0.96623
0.997185
1
1
1
1
1
1
1
1
1
1
1
1
1
1
1
1
1
1
1
1
1
1
1
1
1
1
1
1
1
1
1
1
0.000252211
1.48823e-06
0.000201711
0.000139975
0.000148808
0.00458668
0.016154
0.0528388
1
1
1
1
0.531578
0.031903
0.0437383
0.151818
0.320482
0.565109
0.802543
0.916191
0.950425
0.954835
0.946371
0.933052
0.939501
0.970147
0.997732
1
1
1
1
1
1
1
1
1
1
1
1
1
1
1
1
1
1
1
1
1
1
1
1
1
1
1
1
1
1
1
1
0.0126329
3.26835e-06
6.13506e-06
0.00170207
5.86643e-05
0.00107793
0.0091946
0.0220055
0.73847
1
0.999997
1
1
0.123671
0.029672
0.0723605
0.215205
0.408451
0.67904
0.874674
0.947676
0.966178
0.965493
0.955433
0.941771
0.946634
0.973549
0.998171
1
1
1
1
1
1
1
1
1
1
1
1
1
1
1
1
1
1
1
1
1
1
1
1
1
1
1
1
1
1
1
1
0.960651
2.71279e-05
1.22897e-06
0.00316824
4.78989e-05
0.000233651
0.00424153
0.0109712
0.161327
1
0.999766
1
1
0.986524
0.0501345
0.0377395
0.11885
0.282923
0.51677
0.783169
0.925436
0.968166
0.976931
0.973504
0.96293
0.949399
0.952796
0.976546
0.998527
1
1
1
1
1
1
1
1
1
1
1
1
1
1
1
1
1
1
1
1
1
1
1
1
1
1
1
1
1
1
1
1
1
0.000821076
1.2083e-06
2.23855e-05
0.000203146
5.81711e-05
0.00137534
0.00617899
0.038344
1
0.999858
0.999932
1
1
0.327878
0.0342533
0.0572428
0.187372
0.365262
0.634073
0.866613
0.958144
0.980934
0.984226
0.979607
0.96918
0.955898
0.958212
0.979168
0.998814
1
1
1
1
1
1
1
1
1
1
1
1
1
1
1
1
1
1
1
1
1
1
1
1
1
1
1
1
1
1
1
1
1
0.0873195
5.25035e-06
1.62084e-06
0.0302055
2.83151e-05
0.00032038
0.00337402
0.0123984
0.999993
0.999998
0.988205
1
1
1
0.0916961
0.0351937
0.0931176
0.249391
0.463387
0.748906
0.92537
0.977542
0.988683
0.989199
0.984311
0.97427
0.961521
0.962939
0.981467
0.999044
1
1
1
1
1
1
1
1
1
1
1
1
1
1
1
1
1
1
1
1
1
1
1
1
1
1
1
1
1
1
1
1
1
1
9.2583e-05
6.95249e-07
0.000130353
4.57776e-05
7.02497e-05
0.00149777
0.00523449
0.484884
1
0.962485
1
1
1
0.77654
0.0451863
0.0471989
0.148436
0.322838
0.579391
0.846356
0.961666
0.988352
0.993324
0.992618
0.987871
0.978458
0.966359
0.967052
0.983485
0.99923
1
1
1
1
1
1
1
1
1
1
1
1
1
1
1
1
1
1
1
1
1
1
1
1
1
1
1
1
1
1
1
1
1
1
0.00651397
1.53862e-06
2.79438e-06
0.000734448
2.67858e-05
0.000415444
0.00259047
0.0519276
1
0.963749
1
1
1
1
0.193072
0.0362052
0.0729369
0.21843
0.411001
0.701926
0.916627
0.981689
0.994112
0.996095
0.994938
0.990578
0.981907
0.970492
0.970642
0.985247
0.999381
1
1
1
1
1
1
1
1
1
1
1
1
1
1
1
1
1
1
1
1
1
1
1
1
1
1
1
1
1
1
1
1
1
1
0.949304
1.5673e-05
5.9712e-07
0.00142973
2.0717e-05
9.3853e-05
0.00118744
0.00967012
1
0.996931
0.996882
1
1
1
0.997136
0.068701
0.0413704
0.116715
0.283431
0.520679
0.813373
0.959701
0.991766
0.997096
0.997722
0.996508
0.99265
0.98473
0.974033
0.973739
0.986795
0.999501
1
1
1
1
1
1
1
1
1
1
1
1
1
1
1
1
1
1
1
1
1
1
1
1
1
1
1
1
1
1
1
1
1
1
1
0.000710695
6.92551e-07
7.5744e-06
9.34304e-05
2.35919e-05
0.000406218
0.00293984
0.747918
1
0.865392
1
1
1
1
0.437329
0.0418277
0.0584877
0.181792
0.363566
0.643964
0.898579
0.982487
0.996495
0.998594
0.998667
0.997579
0.994227
0.987037
0.977009
0.976418
0.988157
0.999599
1
1
1
1
1
1
1
1
1
1
1
1
1
1
1
1
1
1
1
1
1
1
1
1
1
1
1
1
1
1
1
1
1
1
1
0.141764
4.09982e-06
6.14119e-07
0.0247847
1.2909e-05
0.00010337
0.00109016
0.0524145
1
0.61557
0.999903
1
1
1
1
0.119824
0.0390431
0.0915413
0.248393
0.45996
0.767887
0.952429
0.993097
0.998577
0.999324
0.999218
0.998309
0.995424
0.988884
0.979466
0.978759
0.989364
0.999677
1
1
1
1
1
1
1
1
1
1
1
1
1
1
1
1
1
1
1
1
1
1
1
1
1
1
1
1
1
1
1
1
1
1
1
1
0.00011859
4.00903e-07
2.14284e-05
3.28259e-05
2.40139e-05
0.000396561
0.00701895
1
0.50916
0.893162
1
1
1
1
0.838215
0.0545419
0.0488646
0.144055
0.319701
0.581776
0.870368
0.980673
0.997513
0.99944
0.999678
0.999539
0.998804
0.996321
0.990264
0.981587
0.980814
0.990445
0.999739
1
1
1
1
1
1
1
1
1
1
1
1
1
1
1
1
1
1
1
1
1
1
1
1
1
1
1
1
1
1
1
1
1
1
1
1
0.0167509
1.42089e-06
8.55898e-07
0.00103627
1.0407e-05
0.000103323
0.00153528
0.916135
0.607065
0.476843
1
1
1
1
1
0.233797
0.0403437
0.0722367
0.218789
0.40812
0.712063
0.939041
0.993164
0.999164
0.999786
0.999847
0.999724
0.999138
0.996991
0.991431
0.983419
0.982668
0.991399
0.99979
1
1
1
1
1
1
1
1
1
1
1
1
1
1
1
1
1
1
1
1
1
1
1
1
1
1
1
1
1
1
1
1
1
1
1
1
1
2.66612e-05
2.94697e-07
7.11901e-05
1.29683e-05
2.43095e-05
0.000419799
0.0807065
0.969985
0.260085
1
1
1
1
1
0.996866
0.0805519
0.04318
0.114123
0.282049
0.51825
0.830762
0.97607
0.997854
0.999736
0.99992
0.999927
0.999832
0.999368
0.997516
0.992416
0.985069
0.984319
0.992243
0.999831
1
1
1
1
1
1
1
1
1
1
1
1
1
1
1
1
1
1
1
1
1
1
1
1
1
1
1
1
1
1
1
1
1
1
1
1
1
0.00266536
6.55919e-07
1.20852e-06
0.00013631
8.7096e-06
0.000105068
0.00646035
1
0.234839
0.989359
1
1
1
1
1
0.479794
0.0462906
0.0585356
0.1773
0.360187
0.647802
0.917852
0.992089
0.999397
0.999921
0.99997
0.999965
0.999896
0.999531
0.997929
0.993289
0.98654
0.985758
0.993002
0.999864
1
1
1
1
1
1
1
1
1
1
1
1
1
1
1
1
1
1
1
1
1
1
1
1
1
1
1
1
1
1
1
1
1
1
1
1
1
0.898196
8.11411e-06
2.5192e-07
0.000173623
6.80301e-06
2.48309e-05
0.000789573
0.999751
0.452838
0.522193
1
1
1
1
1
1
0.134551
0.0409727
0.0898471
0.24774
0.456102
0.779556
0.967612
0.997784
0.999847
0.999977
0.999989
0.999983
0.999935
0.999647
0.998268
0.99406
0.9878
0.98705
0.99368
0.999891
1
1
1
1
1
1
1
1
1
1
1
1
1
1
1
1
1
1
1
1
1
1
1
1
1
1
1
1
1
1
1
1
1
1
1
1
1
1
0.000576967
3.60123e-07
1.96119e-06
4.14794e-05
7.04282e-06
0.000133056
0.0503589
0.997943
0.174648
1
1
1
1
1
1
0.846365
0.0595144
0.0493994
0.141034
0.316724
0.581011
0.886929
0.989673
0.999468
0.999964
0.999994
0.999996
0.999991
0.999958
0.999732
0.998549
0.994704
0.988916
0.988206
0.99429
0.999912
1
1
1
1
1
1
1
1
1
1
1
1
1
1
1
1
1
1
1
1
1
1
1
1
1
1
1
1
1
1
1
1
1
1
1
1
1
1
0.238158
3.14553e-06
2.48685e-07
0.00349587
4.18209e-06
2.53745e-05
0.00256054
1
0.0876763
0.942328
1
1
1
1
1
1
0.250109
0.0423759
0.0714288
0.216496
0.404306
0.719304
0.953875
0.997325
0.999889
0.999992
0.999998
0.999999
0.999996
0.999973
0.999796
0.998771
0.99526
0.989906
0.989231
0.994843
0.99993
1
1
1
1
1
1
1
1
1
1
1
1
1
1
1
1
1
1
1
1
1
1
1
1
1
1
1
1
1
1
1
1
1
1
1
1
1
1
1
0.000163668
2.27808e-07
3.43407e-06
1.80029e-05
5.75321e-06
0.000248099
0.949036
0.0792681
0.337612
1
1
1
1
1
1
0.995822
0.0861452
0.0438665
0.112176
0.280536
0.516094
0.844917
0.98526
0.999431
0.99998
0.999998
1
0.999999
0.999998
0.999982
0.999842
0.998952
0.995744
0.990767
0.990164
0.995315
0.999944
1
1
1
1
1
1
1
1
1
1
1
1
1
1
1
1
1
1
1
1
1
1
1
1
1
1
1
1
1
1
1
1
1
1
1
1
1
1
1
0.0539387
1.43046e-06
2.34367e-07
0.00797348
3.17312e-06
3.12826e-05
0.0316663
0.130989
0.120526
1
1
1
1
1
1
1
0.491135
0.0482937
0.0582443
0.174661
0.357535
0.652103
0.932632
0.996317
0.9999
0.999997
1
1
1
0.999999
0.999988
0.999876
0.9991
0.996152
0.991543
0.990858
0.995726
0.999956
1
1
1
1
1
1
1
1
1
1
1
1
1
1
1
1
1
1
1
1
1
1
1
1
1
1
1
1
1
1
1
1
1
1
1
1
1
1
1
1
5.6596e-05
1.61572e-07
5.75629e-06
9.61321e-06
5.39638e-06
0.000931466
0.617613
0.0729057
1
1
1
1
1
1
1
1
0.140157
0.0416522
0.0886847
0.24742
0.45487
0.791457
0.977675
0.999283
0.999985
1
1
1
1
0.999999
0.999992
0.999902
0.999218
0.996511
0.992179
0.991378
0.9961
0.999965
1
1
1
1
1
1
1
1
1
1
1
1
1
1
1
1
1
1
1
1
1
1
1
1
1
1
1
1
1
1
1
1
1
1
1
1
1
1
1
1
0.0150864
7.42726e-07
2.70819e-07
0.000482178
2.28277e-06
4.57531e-05
0.370921
0.1608
0.766453
1
1
1
1
1
1
1
0.845336
0.0612937
0.049369
0.139664
0.316231
0.583827
0.90191
0.994445
0.999891
0.999998
1
1
1
1
1
0.999994
0.999921
0.999316
0.996815
0.992692
0.991859
0.996439
0.999972
1
1
1
1
1
1
1
1
1
1
1
1
1
1
1
1
1
1
1
1
1
1
1
1
1
1
1
1
1
1
1
1
1
1
1
1
1
1
1
1
1
2.29257e-05
1.24252e-07
9.35792e-06
3.95015e-06
5.46173e-06
0.00233531
0.67951
0.130633
0.999884
1
0.999985
1
1
1
1
1
0.253265
0.0429402
0.0709353
0.215768
0.403953
0.729622
0.965338
0.998979
0.999987
1
1
1
1
1
1
0.999996
0.999936
0.999398
0.997063
0.993155
0.992296
0.996751
0.999978
1
1
1
1
1
1
1
1
1
1
1
1
1
1
1
1
1
1
1
1
1
1
1
1
1
1
1
1
1
1
1
1
1
1
1
1
1
1
1
1
1
0.00502513
4.45231e-07
2.69304e-07
0.000137164
1.90225e-06
8.87299e-05
0.240133
0.0236611
0.448602
1
0.992794
0.99924
1
1
1
1
0.995353
0.0873059
0.0439562
0.111673
0.281287
0.518685
0.859853
0.991153
0.999856
0.999999
1
1
1
1
1
1
0.999997
0.999947
0.999462
0.99728
0.993564
0.992694
0.997042
0.999983
1
1
1
1
1
1
1
1
1
1
1
1
1
1
1
1
1
1
1
1
1
1
1
1
1
1
1
1
1
1
1
1
1
1
1
1
1
1
1
1
1
1.09546e-05
1.04267e-07
1.09815e-05
2.45886e-06
7.28886e-06
0.0288234
0.00937975
0.100323
1
0.912671
0.973115
1
1
1
1
1
0.486405
0.0486296
0.0581687
0.175005
0.358288
0.660448
0.946012
0.998344
0.999985
1
1
1
1
1
1
1
0.999998
0.999955
0.999515
0.997466
0.993923
0.99307
0.997313
0.999987
1
1
1
1
1
1
1
1
1
1
1
1
1
1
1
1
1
1
1
1
1
1
1
1
1
1
1
1
1
1
1
1
1
1
1
1
1
1
1
1
0.00201118
2.90955e-07
2.98217e-07
2.79426e-05
1.64662e-06
0.000357569
0.0102469
0.0493045
1
0.881947
0.873334
0.999991
1
1
1
1
1
0.13941
0.0417312
0.0888215
0.249163
0.457317
0.806193
0.985103
0.999781
0.999999
1
1
1
1
1
1
1
0.999998
0.999962
0.999558
0.997621
0.994252
0.993433
0.997559
0.99999
1
1
1
1
1
1
1
1
1
1
1
1
1
1
1
1
1
1
1
1
1
1
1
1
1
1
1
1
1
1
1
1
1
1
1
1
1
1
1
0.995279
6.00437e-06
8.75841e-08
2.55273e-05
1.40962e-06
1.19618e-05
0.954983
0.0575462
0.993742
0.991126
0.830723
0.99955
1
1
1
1
1
0.837106
0.061035
0.0494586
0.140831
0.31848
0.591284
0.917236
0.997155
0.999979
1
1
1
1
1
1
1
1
0.999999
0.999967
0.999593
0.997759
0.994568
0.993771
0.997799
0.999992
1
1
1
1
1
1
1
1
1
1
1
1
1
1
1
1
1
1
1
1
1
1
1
1
1
1
1
1
1
1
1
1
1
1
1
1
1
1
1
0.00094914
2.11006e-07
2.98667e-07
1.68702e-05
1.62569e-06
0.000561864
0.104964
0.832022
1
0.925171
0.992312
0.999993
1
1
1
1
1
0.247402
0.0428051
0.0714382
0.219088
0.407139
0.744536
0.975064
0.999626
0.999999
1
1
1
1
1
1
1
1
0.999999
0.999971
0.999622
0.997889
0.994856
0.994099
0.99799
0.999995
1
1
1
1
1
1
1
1
1
1
1
1
1
1
1
1
1
1
1
1
1
1
1
1
1
1
1
1
1
1
1
1
1
1
1
1
1
1
0.858106
3.71055e-06
7.25886e-08
1.39022e-05
1.00261e-06
1.3396e-05
0.0211875
0.0609457
0.859157
0.999949
0.893652
0.992039
0.999967
1
1
1
1
0.994756
0.0854861
0.0440362
0.113332
0.284643
0.526633
0.877456
0.994876
0.999966
1
1
1
1
1
1
1
1
1
0.999999
0.999974
0.999648
0.998005
0.995126
0.994374
0.998316
1
1
1
1
1
1
1
1
1
1
1
1
1
1
1
1
1
1
1
1
1
1
1
1
1
1
1
1
1
1
1
1
1
1
1
1
1
1
1
0.000526691
1.52827e-07
3.33341e-07
6.4176e-06
1.48032e-06
0.00176235
0.00594311
0.09751
1
0.549553
0.80303
0.993659
1
1
1
1
1
0.468565
0.0479667
0.0587493
0.178805
0.362733
0.67506
0.958472
0.999302
0.999998
1
1
1
1
1
1
1
1
1
0.999999
0.999976
0.999671
0.998109
0.995342
0.994852
1
1
1
1
1
1
1
1
1
1
1
1
1
1
1
1
1
1
1
1
1
1
1
1
1
1
1
1
1
1
1
1
1
1
1
1
1
1
1
0.582993
2.47465e-06
7.32385e-08
0.000145074
7.98271e-07
4.23281e-05
0.00263445
0.037423
1
0.344702
0.416952
0.920522
0.999821
1
1
1
1
1
0.133702
0.0415931
0.0906148
0.253326
0.46483
0.825584
0.990622
0.999939
1
1
1
1
1
1
1
1
1
1
0.999999
0.999978
0.999691
0.998186
0.995733
1
1
1
1
1
1
1
1
1
1
1
1
1
1
1
1
1
1
1
1
1
1
1
1
1
1
1
1
1
1
1
1
1
1
1
1
1
1
1
1
0.0003247
1.2093e-07
3.21302e-07
6.67139e-06
2.10792e-06
0.0801726
0.0456512
0.999981
0.355628
0.219532
0.723907
0.99316
0.999999
1
1
1
1
0.813525
0.0592374
0.0499543
0.144822
0.324141
0.605929
0.933368
0.998648
0.999997
1
1
1
1
1
1
1
1
1
1
0.999999
0.99998
0.999703
0.998332
1
1
1
1
1
1
1
1
1
1
1
1
1
1
1
1
1
1
1
1
1
1
1
1
1
1
1
1
1
1
1
1
1
1
1
1
1
1
1
1
0.379585
1.76764e-06
5.17271e-08
1.88345e-05
7.17601e-07
3.71317e-05
0.0893181
0.761754
0.765512
0.172466
0.475309
0.930475
0.999451
1
1
1
1
1
0.231891
0.0422611
0.0731961
0.226868
0.415599
0.765697
0.983162
0.999877
1
1
1
1
1
1
1
1
1
1
1
1
0.999981
0.999729
1
1
1
1
1
1
1
1
1
1
1
1
1
1
1
1
1
1
1
1
1
1
1
1
1
1
1
1
1
1
1
1
1
1
1
1
1
1
1
1
1
0.000219724
9.68012e-08
3.73429e-07
3.38809e-06
1.72531e-06
0.00192868
0.0771011
1
0.227887
0.28193
0.698284
0.974403
0.999916
1
1
1
1
0.990718
0.0812132
0.0443648
0.11752
0.291608
0.541694
0.897722
0.997309
0.999993
1
1
1
1
1
1
1
1
1
1
1
1
0.999983
1
1
1
1
1
1
1
1
1
1
1
1
1
1
1
1
1
1
1
1
1
1
1
1
1
1
1
1
1
1
1
1
1
1
1
1
1
1
1
1
1
0.262261
1.3043e-06
6.07217e-08
0.000484407
6.15293e-07
9.95437e-05
0.00641502
0.240928
0.679096
0.129909
0.390256
0.810496
0.99115
0.999997
1
1
1
1
0.42869
0.0466928
0.0603074
0.186679
0.371979
0.697735
0.970281
0.999738
1
1
1
1
1
1
1
1
1
1
1
1
1
1
1
1
1
1
1
1
1
1
1
1
1
1
1
1
1
1
1
1
1
1
1
1
1
1
1
1
1
1
1
1
1
1
1
1
1
1
1
1
1
1
1
0.00015971
8.13599e-08
3.43312e-07
3.26508e-06
3.01575e-06
0.0049839
0.063643
0.996199
0.073239
0.168123
0.536061
0.898663
0.999097
1
1
1
1
0.999995
0.123428
0.0415746
0.0944927
0.260674
0.479955
0.850005
0.994634
0.999985
1
1
1
1
1
1
1
1
1
1
1
1
1
1
1
1
1
1
1
1
1
1
1
1
1
1
1
1
1
1
1
1
1
1
1
1
1
1
1
1
1
1
1
1
1
1
1
1
1
1
1
1
1
1
0.194498
1.06623e-06
4.21896e-08
1.62624e-05
6.87821e-07
9.076e-05
0.165769
0.946478
0.0674089
0.0791469
0.296525
0.665828
0.977411
1
1
1
1
1
0.748743
0.0563756
0.051185
0.152203
0.333755
0.628694
0.94989
0.999429
1
1
1
1
1
1
1
1
1
1
1
1
1
1
1
1
1
1
1
1
1
1
1
1
1
1
1
1
1
1
1
1
1
1
1
1
1
1
1
1
1
1
1
1
1
1
1
1
1
1
1
1
1
1
1
0.000125874
6.98097e-08
3.22159e-07
2.84082e-06
2.38151e-06
0.00329495
0.956729
0.172983
0.0485149
0.153533
0.40482
0.864703
0.999893
1
1
1
1
1
0.205686
0.0416079
0.0765589
0.235019
0.429239
0.793401
0.989629
0.999965
1
1
1
1
1
1
1
1
1
1
1
1
1
1
1
1
1
1
1
1
1
1
1
1
1
1
1
1
1
1
1
1
1
1
1
1
1
1
1
1
1
1
1
1
1
1
1
1
1
1
1
1
1
1
0.157757
8.87326e-07
5.32938e-08
0.00058776
6.83031e-07
0.000199697
0.0711607
0.99991
0.0430175
0.0688784
0.225267
0.64717
0.994416
0.999999
1
1
1
1
0.973783
0.0747464
0.0451362
0.124222
0.301338
0.564132
0.919786
0.998744
0.999999
1
1
1
1
1
1
1
1
1
1
1
1
1
1
1
1
1
1
1
1
1
1
1
1
1
1
1
1
1
1
1
1
1
1
1
1
1
1
1
1
1
1
1
1
1
1
1
1
1
1
1
1
1
1
0.000107508
6.2174e-08
2.98818e-07
2.27854e-06
3.80652e-06
0.00619606
0.548004
0.0463022
0.0298857
0.11475
0.439307
0.929822
0.999166
0.999997
1
1
1
1
0.366635
0.0449069
0.0630654
0.198628
0.385586
0.728274
0.98052
0.999915
1
1
1
1
1
1
1
1
1
1
1
1
1
1
1
1
1
1
1
1
1
1
1
1
1
1
1
1
1
1
1
1
1
1
1
1
1
1
1
1
1
1
1
1
1
1
1
1
1
1
1
1
1
1
0.140811
8.03347e-07
3.32935e-08
1.08701e-05
7.42148e-07
0.000152727
0.487344
0.0829174
0.0151138
0.0580985
0.280429
0.716317
0.954317
0.998393
1
1
1
1
0.999936
0.108998
0.04177
0.100706
0.27102
0.502533
0.877878
0.997255
0.999997
1
1
1
1
1
1
1
1
1
1
1
1
1
1
1
1
1
1
1
1
1
1
1
1
1
1
1
1
1
1
1
1
1
1
1
1
1
1
1
1
1
1
1
1
1
1
1
1
1
1
1
1
1
1
9.75448e-05
5.70884e-08
2.40389e-07
3.21714e-06
3.29676e-06
0.00578582
0.122636
0.0147358
0.0302896
0.1664
0.420432
0.701489
0.960816
0.999898
1
1
1
1
0.651901
0.0526145
0.0533214
0.163361
0.347423
0.659334
0.96512
0.999788
1
1
1
1
1
1
1
1
1
1
1
1
1
1
1
1
1
1
1
1
1
1
1
1
1
1
1
1
1
1
1
1
1
1
1
1
1
1
1
1
1
1
1
1
1
1
1
1
1
1
1
1
1
1
0.135773
7.35451e-07
4.48434e-08
0.000314363
8.09444e-07
0.000285564
0.266753
0.0387492
0.0199202
0.0794392
0.19341
0.380714
0.795479
0.997075
1
1
1
1
1
0.174321
0.0410173
0.0819047
0.244926
0.448457
0.825681
0.994206
0.999991
1
1
1
1
1
1
1
1
1
1
1
1
1
1
1
1
1
1
1
1
1
1
1
1
1
1
1
1
1
1
1
1
1
1
1
1
1
1
1
1
1
1
1
1
1
1
1
1
1
1
1
1
1
1
9.66858e-05
5.20197e-08
2.18561e-07
2.40447e-06
4.00825e-06
0.081346
0.88616
0.0146453
0.0302839
0.0759125
0.189167
0.564843
0.970267
0.999983
1
1
1
1
0.934008
0.0672489
0.0466388
0.134083
0.314569
0.594155
0.941257
0.999477
1
1
1
1
1
1
1
1
1
1
1
1
1
1
1
1
1
1
1
1
1
1
1
1
1
1
1
1
1
1
1
1
1
1
1
1
1
1
1
1
1
1
1
1
1
1
1
1
1
1
1
1
1
0.145865
7.33774e-07
2.62293e-08
7.38093e-06
8.10278e-07
0.000182519
0.124873
0.0175981
0.00879458
0.0289117
0.10204
0.37772
0.873457
0.998126
1
1
1
1
1
0.300171
0.0431183
0.0674421
0.215435
0.405361
0.766186
0.988395
0.999976
1
1
1
1
1
1
1
1
1
1
1
1
1
1
1
1
1
1
1
1
1
1
1
1
1
1
1
1
1
1
1
1
1
1
1
1
1
1
1
1
1
1
1
1
1
1
1
1
1
1
1
1
0.000100171
5.09744e-08
1.65382e-07
5.91518e-06
4.31896e-06
0.0314416
0.0131118
0.00331294
0.0120998
0.0616997
0.252725
0.676873
0.963875
0.999965
1
1
1
1
0.999211
0.0938523
0.042525
0.109828
0.286386
0.536305
0.908002
0.998767
0.999999
1
1
1
1
1
1
1
1
1
1
1
1
1
1
1
1
1
1
1
1
1
1
1
1
1
1
1
1
1
1
1
1
1
1
1
1
1
1
1
1
1
1
1
1
1
1
1
1
1
1
0.167843
7.29952e-07
3.50844e-08
3.17332e-05
1.08843e-06
0.000172621
0.00524734
0.00254961
0.00622715
0.0407917
0.159397
0.431602
0.799913
0.994385
0.999999
1
1
1
1
0.532524
0.0487866
0.056704
0.179018
0.370243
0.703751
0.978431
0.999935
1
1
1
1
1
1
1
1
1
1
1
1
1
1
1
1
1
1
1
1
1
1
1
1
1
1
1
1
1
1
1
1
1
1
1
1
1
1
1
1
1
1
1
1
1
1
1
1
1
1
0.000113933
4.67706e-08
1.37579e-07
2.8772e-06
3.07041e-06
0.00387008
0.00585439
0.00464069
0.0257393
0.0868836
0.225163
0.528167
0.919552
0.999363
1
1
1
1
1
0.142804
0.0407938
0.0896218
0.26014
0.481674
0.865521
0.997287
0.999998
1
1
1
1
1
1
1
1
1
1
1
1
1
1
1
1
1
1
1
1
1
1
1
1
1
1
1
1
1
1
1
1
1
1
1
1
1
1
1
1
1
1
1
1
1
1
1
1
0.214811
7.93474e-07
2.31756e-08
6.30095e-06
9.52303e-07
0.000116152
0.129825
0.00549997
0.0107458
0.0381227
0.105953
0.302411
0.699338
0.979104
0.999801
1
1
1
1
0.839738
0.0597067
0.0490846
0.147738
0.335721
0.639665
0.962632
0.999831
1
1
1
1
1
1
1
1
1
1
1
1
1
1
1
1
1
1
1
1
1
1
1
1
1
1
1
1
1
1
1
1
1
1
1
1
1
1
1
1
1
1
1
1
1
1
1
1
0.000131331
5.20117e-08
8.20913e-08
1.17511e-05
5.34573e-06
0.0306375
0.0059721
0.00314521
0.0129832
0.0521127
0.16852
0.44154
0.852353
0.990775
0.999995
1
1
1
1
0.23451
0.0415871
0.0737005
0.236942
0.434513
0.813252
0.99433
0.999995
1
1
1
1
1
1
1
1
1
1
1
1
1
1
1
1
1
1
1
1
1
1
1
1
1
1
1
1
1
1
1
1
1
1
1
1
1
1
1
1
1
1
1
1
1
1
0.281798
9.13796e-07
2.39713e-08
4.39323e-06
1.49469e-06
0.000113704
0.00243736
0.00113321
0.0045682
0.0278074
0.0990555
0.249526
0.594074
0.916289
0.998364
1
1
1
1
0.991244
0.0793331
0.0440026
0.122128
0.305139
0.576672
0.937724
0.999565
1
1
1
1
1
1
1
1
1
1
1
1
1
1
1
1
1
1
1
1
1
1
1
1
1
1
1
1
1
1
1
1
1
1
1
1
1
1
1
1
1
1
1
1
1
1
0.000180503
5.19563e-08
6.94414e-08
4.50691e-06
2.56595e-06
0.000356863
0.000881368
0.00222966
0.0157199
0.0558476
0.135102
0.345898
0.713433
0.964632
0.999927
1
1
1
1
0.407441
0.0453063
0.0615636
0.199361
0.39236
0.750141
0.988265
0.999984
1
1
1
1
1
1
1
1
1
1
1
1
1
1
1
1
1
1
1
1
1
1
1
1
1
1
1
1
1
1
1
1
1
1
1
1
1
1
1
1
1
1
1
1
0.428992
1.16088e-06
1.90819e-08
2.34859e-06
1.15795e-06
7.32041e-05
0.00318796
0.00174882
0.00782406
0.0263904
0.0670085
0.192423
0.464532
0.811539
0.995074
1
1
1
1
0.999998
0.114538
0.0411697
0.100088
0.2757
0.515405
0.900264
0.998876
1
1
1
1
1
1
1
1
1
1
1
1
1
1
1
1
1
1
1
1
1
1
1
1
1
1
1
1
1
1
1
1
1
1
1
1
1
1
1
1
1
1
1
1
0.000267138
5.77388e-08
4.20374e-08
3.45297e-05
5.45933e-06
0.00553345
0.00205453
0.00247002
0.00972648
0.0323899
0.105398
0.277567
0.55868
0.943284
0.999958
1
1
1
1
0.690178
0.052972
0.0527117
0.165722
0.354869
0.681155
0.977021
0.999954
1
1
1
1
1
1
1
1
1
1
1
1
1
1
1
1
1
1
1
1
1
1
1
1
1
1
1
1
1
1
1
1
1
1
1
1
1
1
1
1
1
1
0.685072
1.50155e-06
1.77277e-08
9.80373e-07
1.94643e-06
5.83874e-05
0.00067378
0.000669562
0.00329519
0.0166062
0.0589317
0.154631
0.341289
0.772605
0.997114
1
1
1
1
1
0.178399
0.0406277
0.0824026
0.25041
0.460078
0.852013
0.997388
0.999999
1
1
1
1
1
1
1
1
1
1
1
1
1
1
1
1
1
1
1
1
1
1
1
1
1
1
1
1
1
1
1
1
1
1
1
1
1
1
1
1
1
0.000434677
6.18063e-08
3.65948e-08
9.6827e-06
2.14669e-06
9.57787e-05
0.000280922
0.00136546
0.00974885
0.0325916
0.0804979
0.195958
0.543175
0.958634
0.999862
1
1
1
1
0.944159
0.0667794
0.0464872
0.137549
0.322244
0.615684
0.959236
0.999829
1
1
1
1
1
1
1
1
1
1
1
1
1
1
1
1
1
1
1
1
1
1
1
1
1
1
1
1
1
1
1
1
1
1
1
1
1
1
1
1
0.936503
2.07292e-06
1.5968e-08
7.04368e-07
1.80498e-06
3.06102e-05
0.000449814
0.00084663
0.00575733
0.0167996
0.038579
0.111008
0.349007
0.797551
0.991053
0.999834
1
1
1
1
0.296149
0.0425336
0.0685439
0.224644
0.416513
0.795936
0.99336
0.999999
1
1
1
1
1
1
1
1
1
1
1
1
1
1
1
1
1
1
1
1
1
1
1
1
1
1
1
1
1
1
1
1
1
1
1
1
1
1
1
0.000755925
7.0054e-08
2.22099e-08
0.000143617
5.13375e-06
0.000784165
0.000870732
0.00205723
0.00668836
0.0186775
0.0635171
0.214947
0.531454
0.883509
0.995252
0.999991
1
1
1
0.999214
0.0908461
0.0424935
0.114147
0.294314
0.554696
0.927262
0.999794
1
1
1
1
1
1
1
1
1
1
1
1
1
1
1
1
1
1
1
1
1
1
1
1
1
1
1
1
1
1
1
1
1
1
1
1
1
1
0.999187
2.90474e-06
1.46962e-08
2.94643e-07
3.32591e-06
3.24382e-05
0.000288781
0.000458675
0.00221385
0.00965556
0.0397086
0.125417
0.294005
0.604521
0.946455
0.999708
1
1
1
1
0.506492
0.0474593
0.0579966
0.189014
0.377396
0.725723
0.991367
1
1
1
1
1
1
1
1
1
1
1
1
1
1
1
1
1
1
1
1
1
1
1
1
1
1
1
1
1
1
1
1
1
1
1
1
1
1
0.00137873
8.0329e-08
2.28104e-08
3.5252e-05
1.9296e-06
3.9867e-05
0.000146775
0.000819891
0.00600801
0.025642
0.0702291
0.143531
0.343377
0.78741
0.99398
1
1
1
1
1
0.133108
0.0405211
0.0942662
0.266293
0.494717
0.907323
1
1
1
1
1
1
1
1
1
1
1
1
1
1
1
1
1
1
1
1
1
1
1
1
1
1
1
1
1
1
1
1
1
1
1
1
1
1
4.27951e-06
1.42589e-08
1.90377e-07
2.73891e-06
9.49852e-06
0.000127952
0.000489284
0.00416603
0.0156872
0.0332818
0.0676445
0.186044
0.579443
0.953096
0.999883
1
1
1
1
0.797484
0.0565043
0.0504456
0.157159
0.345475
0.674176
1
1
1
1
1
1
1
1
1
1
1
1
1
1
1
1
1
1
1
1
1
1
1
1
1
1
1
1
1
1
1
1
1
1
1
1
1
0.00265656
9.63966e-08
1.25111e-08
6.53645e-06
3.77795e-06
0.000143209
0.000509776
0.00203852
0.00673923
0.0134125
0.0319577
0.105196
0.396964
0.835197
0.991306
0.999884
0.999999
1
1
1
0.208007
0.0408988
0.0776905
0.247809
0.434377
1
1
1
1
1
1
1
1
1
1
1
1
1
1
1
1
1
1
1
1
1
1
1
1
1
1
1
1
1
1
1
1
1
1
1
1
6.46947e-06
1.41972e-08
1.05154e-07
1.74047e-05
1.30239e-05
0.000252301
0.000500854
0.00182938
0.00520861
0.0168068
0.0632681
0.255927
0.640952
0.904543
0.989771
0.999811
1
1
1
0.980169
0.0727737
0.0445297
0.132622
0.287532
1
1
1
1
1
1
1
1
1
1
1
1
1
1
1
1
1
1
1
1
1
1
1
1
1
1
1
1
1
1
1
1
1
1
1
0.0052997
1.17817e-07
1.47376e-08
2.08945e-05
2.32033e-06
2.2518e-05
0.000111386
0.000491123
0.00248642
0.0102401
0.040705
0.15333
0.409427
0.683758
0.892052
0.992001
1
1
1
1
0.347969
0.0425729
0.0667219
0.194285
1
1
1
1
1
1
1
1
1
1
1
1
1
1
1
1
1
1
1
1
1
1
1
1
1
1
1
1
1
1
1
1
1
1
1
1.03208e-05
1.33004e-08
6.68968e-08
4.26377e-06
3.13202e-06
4.23963e-05
0.00021892
0.00160016
0.00722711
0.0252025
0.0828668
0.223224
0.413013
0.685846
0.930175
0.999953
1
1
1
0.999973
0.0965825
0.0434239
0.0992076
1
1
1
1
1
1
1
1
1
1
1
1
1
1
1
1
1
1
1
1
1
1
1
1
1
1
1
1
1
1
1
1
1
1
0.0113046
1.51055e-07
9.11832e-09
2.13122e-06