/*--------------------------------*- C++ -*----------------------------------*\
| =========                 |                                                 |
| \\      /  F ield         | OpenFOAM: The Open Source CFD Toolbox           |
|  \\    /   O peration     | Version:  v2012                                 |
|   \\  /    A nd           | Website:  www.openfoam.com                      |
|    \\/     M anipulation  |                                                 |
\*---------------------------------------------------------------------------*/
FoamFile
{
    version     2.0;
    format      ascii;
    class       volScalarField;
    location    "1801";
    object      q3;
}
// * * * * * * * * * * * * * * * * * * * * * * * * * * * * * * * * * * * * * //

dimensions      [0 0 0 0 0 0 0];


internalField   nonuniform List<scalar> 
8000
(
1.99825e-09
4.85293e-10
6.29206e-09
2.34316e-10
1.52551e-09
1.08978e-08
1.55783e-10
7.29445e-10
2.65688e-09
1.58608e-08
1.21223e-10
4.8259e-10
1.27387e-09
3.89012e-09
2.12193e-08
1.0852e-10
3.74809e-10
8.41884e-10
1.87268e-09
5.26303e-09
2.70055e-08
1.0852e-10
3.34221e-10
6.52855e-10
1.23833e-09
2.53662e-09
6.72561e-09
3.32534e-08
1.0852e-10
3.34221e-10
5.77934e-10
9.59457e-10
1.67665e-09
3.25595e-09
8.28953e-09
3.99999e-08
1.0852e-10
3.34221e-10
5.77934e-10
8.41094e-10
1.29819e-09
2.15685e-09
4.03685e-09
9.97313e-09
4.72847e-08
1.0852e-10
3.34221e-10
5.77934e-10
8.41094e-10
1.12525e-09
1.6711e-09
2.68164e-09
4.88502e-09
1.17898e-08
5.51509e-08
1.0852e-10
3.34221e-10
5.77934e-10
8.41094e-10
1.12525e-09
1.43209e-09
2.08032e-09
3.25408e-09
5.79309e-09
1.37512e-08
6.36448e-08
1.0852e-10
3.34221e-10
5.77934e-10
8.41094e-10
1.12525e-09
1.43209e-09
1.7653e-09
2.52809e-09
3.87383e-09
6.76527e-09
1.58691e-08
7.28166e-08
1.0852e-10
3.34221e-10
5.77934e-10
8.41094e-10
1.12525e-09
1.43209e-09
1.76342e-09
2.13976e-09
3.01563e-09
4.54201e-09
7.81041e-09
1.8156e-08
8.27202e-08
1.0852e-10
3.34221e-10
5.77934e-10
8.41094e-10
1.12525e-09
1.43209e-09
1.76342e-09
2.12118e-09
2.55267e-09
3.54428e-09
5.25696e-09
8.93704e-09
2.06254e-08
9.34142e-08
1.0852e-10
3.34221e-10
5.77934e-10
8.41094e-10
1.12525e-09
1.43209e-09
1.76342e-09
2.12118e-09
2.50749e-09
3.0035e-09
4.11405e-09
6.02237e-09
1.01529e-08
2.32918e-08
1.04962e-07
1.0852e-10
3.34221e-10
5.77934e-10
8.41094e-10
1.12525e-09
1.43209e-09
1.76342e-09
2.12118e-09
2.50749e-09
2.92463e-09
3.49216e-09
4.72394e-09
6.84482e-09
1.14656e-08
2.6171e-08
1.17431e-07
2.10226e-09
3.34221e-10
5.77934e-10
8.41094e-10
1.12525e-09
1.43209e-09
1.76342e-09
2.12118e-09
2.50749e-09
2.92463e-09
3.37506e-09
4.01805e-09
5.37593e-09
7.73102e-09
1.28829e-08
2.928e-08
1.30895e-07
2.56016e-07
4.68386e-09
5.77934e-10
8.41094e-10
1.12525e-09
1.43209e-09
1.76342e-09
2.12118e-09
2.50749e-09
2.92463e-09
3.37506e-09
3.86144e-09
4.58034e-09
6.07536e-09
8.68717e-09
1.44134e-08
3.26371e-08
1.45433e-07
2.80658e-05
5.19611e-07
5.04602e-09
8.41094e-10
1.12525e-09
1.43209e-09
1.76342e-09
2.12118e-09
2.50749e-09
2.92463e-09
3.37506e-09
3.86144e-09
4.38663e-09
5.18126e-09
6.82821e-09
9.71934e-09
1.6066e-08
3.62621e-08
1.61131e-07
0.0027502
5.06885e-05
5.23174e-07
4.41411e-09
1.12525e-09
1.43209e-09
1.76342e-09
2.12118e-09
2.50749e-09
2.92463e-09
3.37506e-09
3.86144e-09
4.38663e-09
4.95372e-09
5.82584e-09
7.64008e-09
1.08338e-08
1.78504e-08
4.01763e-08
1.78082e-07
0.00429055
0.0228448
4.85948e-05
4.48008e-07
3.75444e-09
1.43209e-09
1.76342e-09
2.12118e-09
2.50749e-09
2.92463e-09
3.37506e-09
3.86144e-09
4.38663e-09
4.95372e-09
5.56608e-09
6.51964e-09
8.51635e-09
1.20371e-08
1.97772e-08
4.44029e-08
1.96386e-07
0.00405819
0.0575067
0.00527972
4.23829e-05
3.8233e-07
3.32911e-09
1.76342e-09
2.12118e-09
2.50749e-09
2.92463e-09
3.37506e-09
3.86144e-09
4.38663e-09
4.95372e-09
5.56608e-09
6.2273e-09
7.26785e-09
9.46237e-09
1.33364e-08
2.18578e-08
4.89668e-08
2.16151e-07
0.00369661
0.108071
0.010267
0.0026878
3.76101e-05
3.3158e-07
3.0779e-09
2.12118e-09
2.50749e-09
2.92463e-09
3.37506e-09
3.86144e-09
4.38663e-09
4.95372e-09
5.56608e-09
6.2273e-09
6.9413e-09
8.07537e-09
1.04838e-08
1.47394e-08
2.41044e-08
5.38949e-08
2.37493e-07
0.00339618
0.17174
0.0234955
0.00378726
0.00191034
3.33914e-05
2.83602e-07
2.95098e-09
2.50749e-09
2.92463e-09
3.37506e-09
3.86144e-09
4.38663e-09
4.95372e-09
5.56608e-09
6.2273e-09
6.9413e-09
7.71227e-09
8.94714e-09
1.15867e-08
1.62544e-08
2.65303e-08
5.92163e-08
2.60538e-07
0.00305956
0.235735
0.0518653
0.00759109
0.00244861
0.00151043
2.88166e-05
2.33394e-07
2.94947e-09
2.92463e-09
3.37506e-09
3.86144e-09
4.38663e-09
4.95372e-09
5.56608e-09
6.2273e-09
6.9413e-09
7.71227e-09
8.54473e-09
9.88844e-09
1.27777e-08
1.78903e-08
2.91498e-08
6.49623e-08
2.85422e-07
0.00265304
0.262025
0.0998537
0.0187295
0.00390561
0.00188602
0.00125544
2.37792e-05
1.79425e-07
3.09319e-09
3.37506e-09
3.86144e-09
4.38663e-09
4.95372e-09
5.56608e-09
6.2273e-09
6.9413e-09
7.71227e-09
8.54473e-09
9.44364e-09
1.09048e-08
1.40636e-08
1.96567e-08
3.19783e-08
7.11668e-08
3.12292e-07
0.00219237
0.242039
0.167091
0.0409859
0.00972195
0.00267776
0.00155334
0.00108836
1.82495e-05
1.21941e-07
3.4015e-09
3.86144e-09
4.38663e-09
4.95372e-09
5.56608e-09
6.2273e-09
6.9413e-09
7.71227e-09
8.54473e-09
9.44364e-09
1.04143e-08
1.20023e-08
1.54522e-08
2.15641e-08
3.50326e-08
7.78665e-08
3.41306e-07
0.00167963
0.199059
0.235266
0.0805187
0.0226403
0.0063708
0.00215204
0.00134514
0.000969912
1.22711e-05
7.13535e-08
3.86144e-09
4.38663e-09
4.95372e-09
5.56608e-09
6.2273e-09
6.9413e-09
7.71227e-09
8.54473e-09
9.44364e-09
1.04143e-08
1.14624e-08
1.31874e-08
1.69516e-08
2.36237e-08
3.83306e-08
8.51009e-08
3.72635e-07
0.00111854
0.148927
0.284424
0.140137
0.046604
0.0151067
0.00504766
0.00192853
0.00120731
0.000884182
7.0589e-06
3.48567e-08
4.38663e-09
4.95372e-09
5.56608e-09
6.2273e-09
6.9413e-09
7.71227e-09
8.54473e-09
9.44364e-09
1.04143e-08
1.14624e-08
1.25942e-08
1.4467e-08
1.85707e-08
2.58477e-08
4.18918e-08
9.29125e-08
4.06465e-07
0.000634357
0.0985973
0.295589
0.212377
0.0869898
0.0313454
0.0119574
0.00463967
0.0018999
0.00112004
0.000823215
3.34049e-06
1.44071e-08
4.95372e-09
5.56608e-09
6.2273e-09
6.9413e-09
7.71227e-09
8.54473e-09
9.44364e-09
1.04143e-08
1.14624e-08
1.25942e-08
1.38162e-08
1.58488e-08
2.03189e-08
2.82491e-08
4.57371e-08
1.01348e-07
4.42994e-07
0.000293002
0.055253
0.271637
0.271189
0.145112
0.0616123
0.0250858
0.0109816
0.00481752
0.00202807
0.00107963
0.000783978
1.27227e-06
6.65818e-09
5.56608e-09
6.2273e-09
6.9413e-09
7.71227e-09
8.54473e-09
9.44364e-09
1.04143e-08
1.14624e-08
1.25942e-08
1.38162e-08
1.51358e-08
1.73408e-08
2.22067e-08
3.08421e-08
4.98893e-08
1.10456e-07
4.82439e-07
0.000107501
0.0249393
0.23016
0.297175
0.212107
0.109719
0.0489472
0.0230765
0.011421
0.00542778
0.0023372
0.00109635
0.000764242
3.9712e-07
5.66997e-09
6.2273e-09
6.9413e-09
7.71227e-09
8.54473e-09
9.44364e-09
1.04143e-08
1.14624e-08
1.25942e-08
1.38162e-08
1.51358e-08
1.65607e-08
1.89519e-08
2.42451e-08
3.36421e-08
5.4373e-08
1.20291e-07
5.2503e-07
3.20878e-05
0.00881568
0.180189
0.290898
0.268388
0.173815
0.0914642
0.0443389
0.0239187
0.0128694
0.00653877
0.00289846
0.00117955
0.000768335
1.14395e-07
6.2273e-09
6.9413e-09
7.71227e-09
8.54473e-09
9.44364e-09
1.04143e-08
1.14624e-08
1.25942e-08
1.38162e-08
1.51358e-08
1.65607e-08
1.80993e-08
2.06915e-08
2.64462e-08
3.66656e-08
5.92143e-08
1.3091e-07
5.71021e-07
9.19463e-06
0.00252187
0.132847
0.26865
0.298948
0.238189
0.152837
0.0845043
0.045551
0.0267574
0.0155011
0.00836679
0.00374571
0.00131172
0.000788718
3.69222e-08
6.9413e-09
7.71227e-09
8.54473e-09
9.44364e-09
1.04143e-08
1.14624e-08
1.25942e-08
1.38162e-08
1.51358e-08
1.65607e-08
1.80993e-08
1.97607e-08
2.257e-08
2.88229e-08
3.99303e-08
6.4442e-08
1.42378e-07
6.20682e-07
3.09674e-06
0.000729201
0.0875191
0.233672
0.301092
0.282502
0.224855
0.14648
0.085753
0.0504551
0.0320415
0.0198295
0.0110319
0.00476746
0.00150595
0.000821926
1.35022e-08
7.71227e-09
8.54473e-09
9.44364e-09
1.04143e-08
1.14624e-08
1.25942e-08
1.38162e-08
1.51358e-08
1.65607e-08
1.80993e-08
1.97607e-08
2.15547e-08
2.45984e-08
3.13893e-08
4.34555e-08
7.00869e-08
1.5476e-07
6.74305e-07
1.00437e-06
0.000259298
0.0489826
0.192523
0.282725
0.304147
0.280393
0.224771
0.151389
0.0921802
0.0599337
0.0407926
0.0261618
0.0142725
0.00592389
0.00169249
0.000850449
8.2475e-09
8.54473e-09
9.44364e-09
1.04143e-08
1.14624e-08
1.25942e-08
1.38162e-08
1.51358e-08
1.65607e-08
1.80993e-08
1.97607e-08
2.15547e-08
2.34918e-08
2.67886e-08
3.41605e-08
4.7262e-08
7.61822e-08
1.68131e-07
7.32208e-07
2.59676e-07
8.45086e-05
0.0217509
0.149483
0.253809
0.29727
0.3074
0.296502
0.241236
0.165161
0.107067
0.0756947
0.0535968
0.0339522
0.0178326
0.00693063
0.00183261
0.000871042
8.54473e-09
9.44364e-09
1.04143e-08
1.14624e-08
1.25942e-08
1.38162e-08
1.51358e-08
1.65607e-08
1.80993e-08
1.97607e-08
2.15547e-08
2.34918e-08
2.55835e-08
2.91536e-08
3.71528e-08
5.13723e-08
8.2764e-08
1.82568e-07
7.94732e-07
5.64725e-08
2.12006e-05
0.00719069
0.109698
0.216978
0.279856
0.309819
0.33245
0.33537
0.269404
0.190133
0.132601
0.098474
0.069295
0.0423825
0.0209406
0.00765943
0.00191795
0.000882391
9.44364e-09
1.04143e-08
1.14624e-08
1.25942e-08
1.38162e-08
1.51358e-08
1.65607e-08
1.80993e-08
1.97607e-08
2.15547e-08
2.34918e-08
2.55835e-08
2.78422e-08
3.17074e-08
4.0384e-08
5.58106e-08
8.9871e-08
1.98158e-07
8.62245e-07
1.51884e-08
4.43235e-06
0.00174035
0.0743228
0.177804
0.254145
0.292278
0.332636
0.388398
0.389226
0.311038
0.229359
0.168983
0.1257
0.0858397
0.0497581
0.0231897
0.00808965
0.00196953
0.000887331
1.04143e-08
1.14624e-08
1.25942e-08
1.38162e-08
1.51358e-08
1.65607e-08
1.80993e-08
1.97607e-08
2.15547e-08
2.34918e-08
2.55835e-08
2.78422e-08
3.0281e-08
3.44649e-08
4.38729e-08
6.06031e-08
9.75451e-08
2.14991e-07
9.35146e-07
1.06351e-08
9.66234e-07
0.000354172
0.0433096
0.139175
0.221865
0.270549
0.314585
0.385672
0.479721
0.459069
0.367217
0.282238
0.210693
0.153179
0.100111
0.0550626
0.0245208
0.00835091
0.00199406
0.00088637
1.14624e-08
1.25942e-08
1.38162e-08
1.51358e-08
1.65607e-08
1.80993e-08
1.97607e-08
2.15547e-08
2.34918e-08
2.55835e-08
2.78422e-08
3.0281e-08
3.29145e-08
3.74425e-08
4.76403e-08
6.57781e-08
1.05832e-07
2.33168e-07
1.01386e-06
1.14624e-08
2.03964e-07
8.0112e-05
0.0197108
0.103023
0.186731
0.244034
0.287775
0.35229
0.487946
0.595821
0.538784
0.435015
0.337676
0.25053
0.17608
0.110146
0.0581917
0.0253187
0.00847544
0.00200262
0.00088164
1.25942e-08
1.38162e-08
1.51358e-08
1.65607e-08
1.80993e-08
1.97607e-08
2.15547e-08
2.34918e-08
2.55835e-08
2.78422e-08
3.0281e-08
3.29145e-08
3.57582e-08
4.06577e-08
5.17084e-08
7.1366e-08
1.1478e-07
2.52796e-07
1.09887e-06
1.25942e-08
3.68089e-08
1.70628e-05
0.00644589
0.0711054
0.149965
0.213798
0.260193
0.314318
0.431426
0.641981
0.714025
0.623243
0.50155
0.387811
0.281949
0.191556
0.115953
0.0600225
0.0256902
0.00852511
0.00199977
0.000874323
1.38162e-08
1.51358e-08
1.65607e-08
1.80993e-08
1.97607e-08
2.15547e-08
2.34918e-08
2.55835e-08
2.78422e-08
3.0281e-08
3.29145e-08
3.57582e-08
3.88288e-08
4.41295e-08
5.6101e-08
7.73999e-08
1.24441e-07
2.7399e-07
1.19065e-06
1.38162e-08
1.35858e-08
2.83646e-06
0.00144035
0.0442923
0.114915
0.181583
0.230614
0.280272
0.36514
0.573459
0.822311
0.825832
0.700863
0.558371
0.423746
0.301793
0.200136
0.11921
0.0608279
0.0258223
0.00852068
0.0019871
0.000865079
1.51358e-08
1.65607e-08
1.80993e-08
1.97607e-08
2.15547e-08
2.34918e-08
2.55835e-08
2.78422e-08
3.0281e-08
3.29145e-08
3.57582e-08
3.88288e-08
4.21444e-08
4.78784e-08
6.08443e-08
8.39152e-08
1.34874e-07
2.96874e-07
1.28975e-06
1.51358e-08
1.38162e-08
4.21168e-07
0.000230143
0.0230857
0.0835983
0.148424
0.199721
0.24813
0.311202
0.460042
0.775841
0.986398
0.923043
0.76282
0.596157
0.445082
0.31213
0.204666
0.12049
0.061055
0.0257854
0.00846812
0.00197107
0.000855056
1.65607e-08
1.80993e-08
1.97607e-08
2.15547e-08
2.34918e-08
2.55835e-08
2.78422e-08
3.0281e-08
3.29145e-08
3.57582e-08
3.88288e-08
4.21444e-08
4.57246e-08
5.19264e-08
6.5966e-08
9.09505e-08
1.46139e-07
3.21585e-07
1.39677e-06
1.65607e-08
1.51358e-08
6.21184e-08
3.39364e-05
0.00902748
0.0569687
0.116402
0.168682
0.215802
0.269927
0.366348
0.618192
0.995327
1.1265
0.996528
0.803801
0.616427
0.454378
0.316667
0.20604
0.120683
0.0608814
0.0256013
0.00840227
0.00195245
0.000845335
1.80993e-08
1.97607e-08
2.15547e-08
2.34918e-08
2.55835e-08
2.78422e-08
3.0281e-08
3.29145e-08
3.57582e-08
3.88288e-08
4.21444e-08
4.57246e-08
4.95905e-08
5.62974e-08
7.14965e-08
9.8547e-08
1.58304e-07
3.48269e-07
1.51233e-06
1.80993e-08
1.65607e-08
1.68315e-08
4.9795e-06
0.00239453
0.0354161
0.0864988
0.138489
0.183712
0.233826
0.302139
0.462189
0.826762
1.21612
1.23268
1.04737
0.82408
0.62436
0.457264
0.317103
0.205791
0.120127
0.0603689
0.0253754
0.00832418
0.00193398
0.000835441
1.97607e-08
2.15547e-08
2.34918e-08
2.55835e-08
2.78422e-08
3.0281e-08
3.29145e-08
3.57582e-08
3.88288e-08
4.21444e-08
4.57246e-08
4.95905e-08
5.37649e-08
6.10173e-08
7.74681e-08
1.0675e-07
1.71439e-07
3.77083e-07
1.63711e-06
1.97607e-08
1.80993e-08
1.65607e-08
6.08988e-07
0.000408145
0.0190035
0.0610249
0.109364
0.152972
0.199487
0.255757
0.354512
0.604044
1.08468
1.39377
1.30341
1.06924
0.829569
0.625185
0.455466
0.315521
0.204407
0.118962
0.0597571
0.0251135
0.00824618
0.00191343
0.000824824
2.15547e-08
2.34918e-08
2.55835e-08
2.78422e-08
3.0281e-08
3.29145e-08
3.57582e-08
3.88288e-08
4.21444e-08
4.57246e-08
4.95905e-08
5.37649e-08
5.82724e-08
6.61137e-08
8.39162e-08
1.15607e-07
1.85623e-07
4.08195e-07
1.77184e-06
2.15547e-08
1.97607e-08
1.80994e-08
6.91311e-08
4.87751e-05
0.00789557
0.0403729
0.0830459
0.124126
0.166799
0.216889
0.285803
0.433192
0.805537
1.35068
1.52513
1.34185
1.07292
0.82688
0.620358
0.451369
0.312425
0.202132
0.117615
0.0590667
0.0248532
0.00815718
0.00189073
0.000814353
2.34918e-08
2.55835e-08
2.78422e-08
3.0281e-08
3.29145e-08
3.57582e-08
3.88288e-08
4.21444e-08
4.57246e-08
4.95905e-08
5.37649e-08
5.82724e-08
6.31395e-08
7.16167e-08
9.08791e-08
1.25172e-07
2.00938e-07
4.41789e-07
1.91734e-06
2.34918e-08
2.15547e-08
1.97607e-08
1.92029e-08
5.35407e-06
0.00223428
0.0244644
0.0595349
0.0979762
0.136303
0.18162
0.237011
0.327638
0.553973
1.07091
1.59486
1.60608
1.35016
1.06595
0.817384
0.61288
0.445532
0.308229
0.199603
0.116137
0.0583849
0.0245611
0.00805827
0.00186783
0.000804076
2.55835e-08
2.78422e-08
3.0281e-08
3.29145e-08
3.57582e-08
3.88288e-08
4.21444e-08
4.57246e-08
4.95905e-08
5.37649e-08
5.82724e-08
6.31395e-08
6.83951e-08
7.75591e-08
9.83981e-08
1.355e-07
2.17475e-07
4.78066e-07
2.07443e-06
2.55835e-08
2.34918e-08
2.15547e-08
1.97607e-08
5.42004e-07
0.00039077
0.0128844
0.0403601
0.0745314
0.108764
0.149074
0.19727
0.261179
0.389216
0.729644
1.39066
1.77911
1.64109
1.34151
1.0501
0.804904
0.603497
0.438483
0.303763
0.196905
0.114687
0.0576364
0.0242395
0.00795802
0.00184433
0.000794101
2.78422e-08
3.0281e-08
3.29145e-08
3.57582e-08
3.88288e-08
4.21444e-08
4.57246e-08
4.95905e-08
5.37649e-08
5.82724e-08
6.31395e-08
6.83951e-08
7.40701e-08
8.3976e-08
1.06517e-07
1.46651e-07
2.35333e-07
5.17236e-07
2.24406e-06
2.78422e-08
2.55835e-08
2.34918e-08
2.15547e-08
5.20537e-08
4.28097e-05
0.00528436
0.0256301
0.054377
0.0846481
0.119525
0.162242
0.213646
0.292696
0.485276
0.992125
1.72469
1.89744
1.64371
1.31973
1.0309
0.790336
0.592849
0.431231
0.299135
0.194281
0.113133
0.0568212
0.0239155
0.00785393
0.00182145
0.000784056
3.0281e-08
3.29145e-08
3.57582e-08
3.88288e-08
4.21444e-08
4.57246e-08
4.95905e-08
5.37649e-08
5.82724e-08
6.31395e-08
6.83951e-08
7.40701e-08
8.01983e-08
9.09046e-08
1.15283e-07
1.58693e-07
2.54615e-07
5.59532e-07
2.42724e-06
3.0281e-08
2.78422e-08
2.55835e-08
2.34918e-08
2.17282e-08
3.75049e-06
0.00145855
0.0148696
0.0374857
0.0641155
0.0935503
0.130753
0.175096
0.23182
0.33946
0.638871
1.37267
1.99376
1.9367
1.6216
1.29339
1.00932
0.774541
0.582065
0.423877
0.294681
0.191537
0.111458
0.0560054
0.0235814
0.00775269
0.00179812
0.000774287
3.29145e-08
3.57582e-08
3.88288e-08
4.21444e-08
4.57246e-08
4.95905e-08
5.37649e-08
5.82724e-08
6.31395e-08
6.83951e-08
7.40701e-08
8.01983e-08
8.68153e-08
9.83861e-08
1.24749e-07
1.71696e-07
2.75435e-07
6.05205e-07
2.62502e-06
3.29145e-08
3.0281e-08
2.78422e-08
2.55835e-08
2.34918e-08
3.06034e-07
0.00023944
0.00743751
0.0242827
0.0468359
0.0715113
0.102897
0.141605
0.187598
0.255166
0.417118
0.91083
1.79055
2
1.93727
1.59102
1.26351
0.986619
0.758844
0.571244
0.416853
0.290155
0.18864
0.109794
0.0551721
0.0232573
0.00764939
0.00177586
0.000765209
3.57582e-08
3.88288e-08
4.21444e-08
4.57246e-08
4.95905e-08
5.37649e-08
5.82724e-08
6.31395e-08
6.83951e-08
7.40701e-08
8.01983e-08
8.68153e-08
9.39602e-08
1.06465e-07
1.34971e-07
1.85736e-07
2.97918e-07
6.5452e-07
2.8386e-06
3.57582e-08
3.29145e-08
3.0281e-08
2.78422e-08
2.55835e-08
3.21416e-08
2.31005e-05
0.00283748
0.0146827
0.0327738
0.053371
0.0790022
0.112125
0.151538
0.201166
0.291709
0.565894
1.31626
2
2
1.91456
1.55371
1.23243
0.964387
0.74332
0.56093
0.409853
0.285615
0.185784
0.10811
0.0543656
0.0229284
0.00755144
0.00175482
0.000756262
3.88288e-08
4.21444e-08
4.57246e-08
4.95905e-08
5.37649e-08
5.82724e-08
6.31395e-08
6.83951e-08
7.40701e-08
8.01983e-08
8.68153e-08
9.39602e-08
1.01676e-07
1.15188e-07
1.46007e-07
2.00897e-07
3.22194e-07
7.07773e-07
3.06922e-06
3.88288e-08
3.57582e-08
3.29145e-08
3.0281e-08
2.78422e-08
2.55836e-08
1.6656e-06
0.000702059
0.00802517
0.0215488
0.0387776
0.0592509
0.0866508
0.120519
0.161006
0.219089
0.362879
0.83393
1.79202
2
2
1.87545
1.51413
1.20205
0.942677
0.728621
0.550759
0.402961
0.281179
0.182924
0.106484
0.0535525
0.0226169
0.00745849
0.00173356
0.000747664
4.21444e-08
4.57246e-08
4.95905e-08
5.37649e-08
5.82724e-08
6.31395e-08
6.83951e-08
7.40701e-08
8.01983e-08
8.68153e-08
9.39602e-08
1.01676e-07
1.10006e-07
1.24607e-07
1.57925e-07
2.17267e-07
3.48408e-07
7.65275e-07
3.31823e-06
4.21444e-08
3.88288e-08
3.57582e-08
3.29145e-08
3.0281e-08
2.78422e-08
1.12176e-07
9.81258e-05
0.00369228
0.0132537
0.0271308
0.0434305
0.0653482
0.093765
0.128034
0.171495
0.251664
0.507319
1.24708
2
2
2
1.83033
1.47474
1.17255
0.922268
0.714281
0.540824
0.396283
0.276786
0.180169
0.104855
0.0527831
0.0223218
0.00736405
0.00171355
0.000739366
4.57246e-08
4.95905e-08
5.37649e-08
5.82724e-08
6.31395e-08
6.83951e-08
7.40701e-08
8.01983e-08
8.68153e-08
9.39602e-08
1.01676e-07
1.10006e-07
1.19002e-07
1.34778e-07
1.70794e-07
2.34944e-07
3.76714e-07
8.27365e-07
3.58712e-06
4.57246e-08
4.21444e-08
3.88288e-08
3.57582e-08
3.29145e-08
3.0281e-08
2.83282e-08
7.78172e-06
0.00123708
0.00755486
0.0181214
0.0311047
0.0481019
0.071221
0.100043
0.135346
0.187507
0.320096
0.771893
1.74765
2
2
2
1.78331
1.43623
1.14493
0.902552
0.700386
0.531244
0.389744
0.272572
0.17743
0.103313
0.0520556
0.0220236
0.00727581
0.00169383
0.000731204
4.95905e-08
5.37649e-08
5.82724e-08
6.31395e-08
6.83951e-08
7.40701e-08
8.01983e-08
8.68153e-08
9.39602e-08
1.01676e-07
1.10006e-07
1.19002e-07
1.28715e-07
1.45761e-07
1.8469e-07
2.54032e-07
4.07279e-07
8.94409e-07
3.87747e-06
4.95905e-08
4.57246e-08
4.21444e-08
3.88288e-08
3.57582e-08
3.29145e-08
3.0281e-08
4.65918e-07
0.000252232
0.00380264
0.0112935
0.0216671
0.034627
0.0527774
0.0764618
0.105668
0.144701
0.218417
0.464204
1.16809
2
2
2
2
1.73599
1.40008
1.11842
0.883618
0.687066
0.521939
0.383505
0.268416
0.174837
0.101857
0.0513248
0.021745
0.00718838
0.00167437
0.00072342
5.37649e-08
5.82724e-08
6.31395e-08
6.83951e-08
7.40701e-08
8.01983e-08
8.68153e-08
9.39602e-08
1.01676e-07
1.10006e-07
1.19002e-07
1.28715e-07
1.39204e-07
1.5762e-07
1.99695e-07
2.74642e-07
4.40282e-07
9.66805e-07
4.19099e-06
5.37649e-08
4.95905e-08
4.57246e-08
4.21444e-08
3.88288e-08
3.57582e-08
3.29145e-08
3.91127e-08
2.7273e-05
0.00153692
0.0065521
0.0144752
0.0243771
0.0381965
0.0570667
0.0810099
0.112115
0.159929
0.287927
0.713635
1.66882
2
2
2
2
1.69087
1.36539
1.09316
0.865597
0.674228
0.513098
0.377403
0.264485
0.17239
0.100404
0.0506417
0.0214699
0.00710222
0.0016559
0.000715816
5.82724e-08
6.31395e-08
6.83951e-08
7.40701e-08
8.01983e-08
8.68153e-08
9.39602e-08
1.01676e-07
1.10006e-07
1.19002e-07
1.28715e-07
1.39204e-07
1.5053e-07
1.70426e-07
2.15897e-07
2.96898e-07
4.75919e-07
1.04498e-06
4.52953e-06
5.82724e-08
5.37649e-08
4.95905e-08
4.57246e-08
4.21444e-08
3.88288e-08
3.57582e-08
3.29146e-08
1.68723e-06
0.000418802
0.00345988
0.00916313
0.0167604
0.0270047
0.041594
0.0607669
0.0856787
0.121016
0.191602
0.425375
1.08279
2
2
2
2
2
1.64701
1.33245
1.06928
0.848363
0.662088
0.50451
0.371641
0.26078
0.169964
0.0990424
0.04997
0.0211995
0.0070206
0.0016375
0.000708386
6.31395e-08
6.83951e-08
7.40701e-08
8.01983e-08
8.68153e-08
9.39602e-08
1.01676e-07
1.10006e-07
1.19002e-07
1.28715e-07
1.39204e-07
1.5053e-07
1.62759e-07
1.84253e-07
2.33392e-07
3.20929e-07
5.14401e-07
1.12939e-06
4.89508e-06
6.31395e-08
5.82724e-08
5.37649e-08
4.95905e-08
4.57246e-08
4.21444e-08
3.88288e-08
3.57582e-08
8.95883e-08
6.35483e-05
0.00155391
0.00537818
0.0111595
0.0186878
0.0296008
0.0445677
0.0642569
0.0917209
0.136407
0.259498
0.654574
1.56867
2
2
2
2
1.96535
1.6052
1.30144
1.0466
0.832144
0.65037
0.496413
0.366223
0.257135
0.167688
0.0977088
0.0493119
0.0209435
0.0069389
0.00161946
0.000701267
6.83951e-08
7.40701e-08
8.01983e-08
8.68153e-08
9.39602e-08
1.01676e-07
1.10006e-07
1.19002e-07
1.28715e-07
1.39204e-07
1.5053e-07
1.62759e-07
1.75965e-07
1.99184e-07
2.52283e-07
3.46878e-07
5.55953e-07
1.22053e-06
5.28981e-06
6.83951e-08
6.31395e-08
5.82724e-08
5.37649e-08
4.95905e-08
4.57246e-08
4.21444e-08
3.88288e-08
3.57583e-08
4.85698e-06
0.000516559
0.00291155
0.00710194
0.0126471
0.0205903
0.0319464
0.0472074
0.0685699
0.10045
0.167932
0.386553
0.998468
2
2
2
2
2
1.9144
1.56577
1.27212
1.02536
0.816576
0.639341
0.488808
0.360935
0.253713
0.165467
0.0964054
0.0486889
0.0206881
0.00685878
0.00160204
0.000694211
7.40701e-08
8.01983e-08
8.68153e-08
9.39602e-08
1.01676e-07
1.10006e-07
1.19002e-07
1.28715e-07
1.39204e-07
1.5053e-07
1.62759e-07
1.75965e-07
1.90224e-07
2.15307e-07
2.72682e-07
3.74898e-07
6.00821e-07
1.31896e-06
5.71604e-06
7.40701e-08
6.83951e-08
6.31395e-08
5.82724e-08
5.37649e-08
4.95905e-08
4.57246e-08
4.21444e-08
3.88288e-08
2.36299e-07
0.000103627
0.00138982
0.00421129
0.00834107
0.0140117
0.022381
0.0339579
0.0502809
0.0742149
0.115724
0.231932
0.599183
1.45819
2
2
2
2
2
1.8658
1.52854
1.24474
1.00507
0.801949
0.629003
0.48144
0.355973
0.250388
0.163302
0.0951707
0.0480694
0.0204381
0.00678138
0.00158461
0.000687453
8.01983e-08
8.68153e-08
9.39602e-08
1.01676e-07
1.10006e-07
1.19002e-07
1.28715e-07
1.39204e-07
1.5053e-07
1.62759e-07
1.75965e-07
1.90224e-07
2.05621e-07
2.32716e-07
2.94709e-07
4.05154e-07
6.49269e-07
1.42523e-06
6.17627e-06
8.01983e-08
7.40701e-08
6.83951e-08
6.31395e-08
5.82724e-08
5.37649e-08
4.95905e-08
4.57246e-08
4.21444e-08
3.95876e-08
1.04292e-05
0.000529036
0.00229738
0.00529417
0.00932953
0.0153317
0.0239156
0.0361172
0.0541493
0.082609
0.146085
0.350977
0.913307
2
2
2
2
2
2
1.8196
1.49382
1.21871
0.986049
0.788258
0.619043
0.474528
0.351175
0.24716
0.161249
0.0939468
0.0474643
0.0201969
0.00670381
0.00156828
0.00068113
8.68153e-08
9.39602e-08
1.01676e-07
1.10006e-07
1.19002e-07
1.28715e-07
1.39204e-07
1.5053e-07
1.62759e-07
1.75965e-07
1.90224e-07
2.05621e-07
2.22247e-07
2.51514e-07
3.18493e-07
4.37825e-07
7.01584e-07
1.53999e-06
6.67324e-06
8.68153e-08
8.01983e-08
7.40701e-08
6.83951e-08
6.31395e-08
5.82724e-08
5.37649e-08
4.95905e-08
4.57246e-08
4.21444e-08
5.44608e-07
0.000132659
0.00113813
0.00316888
0.00608027
0.0102668
0.0164907
0.0254186
0.0387824
0.0593433
0.0973878
0.20708
0.543066
1.33874
2
2
2
2
2
2
1.77641
1.46088
1.19433
0.968269
0.775129
0.609711
0.467874
0.34654
0.244098
0.15922
0.0927525
0.0468814
0.0199559
0.0066316
0.00155289
0.000674858
9.39602e-08
1.01676e-07
1.10006e-07
1.19002e-07
1.28715e-07
1.39204e-07
1.5053e-07
1.62759e-07
1.75965e-07
1.90224e-07
2.05621e-07
2.22247e-07
2.40199e-07
2.71812e-07
3.44176e-07
4.73103e-07
7.58073e-07
1.6639e-06
7.20986e-06
9.39602e-08
8.68153e-08
8.01983e-08
7.40701e-08
6.83951e-08
6.31395e-08
5.82724e-08
5.37649e-08
4.95905e-08
4.57246e-08
4.69972e-08
1.75298e-05
0.000468361
0.00174969
0.00382844
0.00673702
0.011122
0.0175393
0.0272232
0.0421906
0.0673275
0.126795
0.314711
0.825824
1.86709
2
2
2
2
2
2
1.73537
1.43005
1.17157
0.951289
0.762839
0.600762
0.461473
0.342145
0.241085
0.157243
0.0916031
0.0463008
0.0197315
0.0065634
0.00153728
0.00066872
1.01676e-07
1.10006e-07
1.19002e-07
1.28715e-07
1.39204e-07
1.5053e-07
1.62759e-07
1.75965e-07
1.90224e-07
2.05621e-07
2.22247e-07
2.40199e-07
2.59584e-07
2.9373e-07
3.71908e-07
5.11195e-07
8.19071e-07
1.7977e-06
7.78931e-06
1.01676e-07
9.39602e-08
8.68153e-08
8.01983e-08
7.40701e-08
6.83951e-08
6.31395e-08
5.82724e-08
5.37649e-08
4.95905e-08
4.57246e-08
1.08547e-06
0.000136998
0.000875201
0.00229904
0.00431737
0.00734382
0.0118704
0.0187342
0.0294908
0.0470016
0.0815855
0.182415
0.485911
1.21312
2
2
2
2
2
2
2
1.69691
1.40131
1.14992
0.935411
0.751089
0.592184
0.45541
0.337844
0.238155
0.155341
0.0904619
0.0457598
0.0195197
0.00649395
0.0015222
0.000662805
1.10006e-07
1.19002e-07
1.28715e-07
1.39204e-07
1.5053e-07
1.62759e-07
1.75965e-07
1.90224e-07
2.05621e-07
2.22247e-07
2.40199e-07
2.59584e-07
2.80517e-07
3.17397e-07
4.01852e-07
5.52328e-07
8.84936e-07
1.94218e-06
8.41499e-06
1.10006e-07
1.01676e-07
9.39602e-08
8.68153e-08
8.01983e-08
7.40701e-08
6.83951e-08
6.31395e-08
5.82724e-08
5.37649e-08
4.95905e-08
6.14902e-08
2.26054e-05
0.000380397
0.00127257
0.00269509
0.00474392
0.00787923
0.0126461
0.0202359
0.0325572
0.0544818
0.10863
0.278282
0.737044
1.71636
2
2
2
2
2
2
1.99878
1.66107
1.37405
1.12971
0.920274
0.739858
0.58407
0.449507
0.333679
0.235342
0.15346
0.0893963
0.0452493
0.0193048
0.0064271
0.00150757
0.000656879
1.19002e-07
1.28715e-07
1.39204e-07
1.5053e-07
1.62759e-07
1.75965e-07
1.90224e-07
2.05621e-07
2.22247e-07
2.40199e-07
2.59584e-07
2.80517e-07
3.03119e-07
3.42953e-07
4.34187e-07
5.96743e-07
9.56057e-07
2.09819e-06
9.09062e-06
1.19002e-07
1.10006e-07
1.01676e-07
9.39602e-08
8.68153e-08
8.01983e-08
7.40701e-08
6.83951e-08
6.31395e-08
5.82724e-08
5.37649e-08
4.95906e-08
1.72284e-06
0.000124252
0.000643855
0.00161068
0.00299798
0.00512399
0.00838444
0.0136248
0.0222069
0.036882
0.0675205
0.158469
0.42855
1.09003
2
2
2
2
2
2
2
1.9547
1.62711
1.34862
1.11049
0.905841
0.729252
0.576211
0.443822
0.32969
0.23257
0.151699
0.0883902
0.0447332
0.019098
0.00636213
0.00149272
0.00065107
1.28715e-07
1.39204e-07
1.5053e-07
1.62759e-07
1.75965e-07
1.90224e-07
2.05621e-07
2.22247e-07
2.40199e-07
2.59584e-07
2.80517e-07
3.03119e-07
3.27525e-07
3.70549e-07
4.69102e-07
6.44703e-07
1.03285e-06
2.26664e-06
9.82015e-06
1.28715e-07
1.19002e-07
1.10006e-07
1.01676e-07
9.39602e-08
8.68153e-08
8.01983e-08
7.40701e-08
6.83951e-08
6.31395e-08
5.82724e-08
5.37649e-08
8.38906e-08
2.45374e-05
0.00028671
0.000896912
0.0018501
0.00326089
0.00546187
0.00900595
0.014878
0.0248586
0.0435429
0.0919025
0.242321
0.652159
1.5596
2
2
2
2
2
2
2
1.9129
1.59547
1.32451
1.0922
0.892247
0.719022
0.568696
0.438389
0.325778
0.22997
0.150034
0.0873769
0.0442369
0.0188972
0.00629608
0.00147831
0.000645367
1.39204e-07
1.5053e-07
1.62759e-07
1.75965e-07
1.90224e-07
2.05621e-07
2.22247e-07
2.40199e-07
2.59584e-07
2.80517e-07
3.03119e-07
3.27525e-07
3.5388e-07
4.00346e-07
5.06803e-07
6.96489e-07
1.11578e-06
2.44855e-06
1.06079e-05
1.39204e-07
1.28715e-07
1.19002e-07
1.10006e-07
1.01676e-07
9.39602e-08
8.68153e-08
8.01983e-08
7.40701e-08
6.83951e-08
6.31395e-08
5.82724e-08
5.37652e-08
2.29787e-06
0.000100797
0.000454771
0.00109704
0.00203361
0.00349054
0.00584524
0.00978959
0.0165276
0.0285761
0.0552281
0.13563
0.374216
0.970177
2
2
2
2
2
2
2
2
1.87393
1.56551
1.30162
1.07503
0.879193
0.709271
0.561524
0.433086
0.322106
0.227511
0.148364
0.0864021
0.0437557
0.0186936
0.00623223
0.00146386
0.000639611
1.5053e-07
1.62759e-07
1.75965e-07
1.90224e-07
2.05621e-07
2.22247e-07
2.40199e-07
2.59584e-07
2.80517e-07
3.03119e-07
3.27525e-07
3.5388e-07
3.82337e-07
4.32521e-07
5.47512e-07
7.52409e-07
1.20532e-06
2.64496e-06
1.14585e-05
1.5053e-07
1.39204e-07
1.28715e-07
1.19002e-07
1.10006e-07
1.01676e-07
9.39602e-08
8.68153e-08
8.01983e-08
7.40701e-08
6.83951e-08
6.31395e-08
5.82725e-08
1.11793e-07
2.27395e-05
0.000205823
0.000612039
0.00123818
0.00218958
0.0037273
0.0063268
0.0108041
0.0187426
0.0343862
0.0767276
0.208652
0.571833
1.40242
2
2
2
2
2
2
2
2
1.83707
1.53713
1.28015
1.0586
0.866781
0.699984
0.554551
0.428103
0.318631
0.225056
0.146756
0.0854571
0.043269
0.0184969
0.00616779
0.00144898
0.000633974
1.62759e-07
1.75965e-07
1.90224e-07
2.05621e-07
2.22247e-07
2.40199e-07
2.59584e-07
2.80517e-07
3.03119e-07
3.27525e-07
3.5388e-07
3.82337e-07
4.13064e-07
4.67264e-07
5.91471e-07
8.12791e-07
1.30201e-06
2.85706e-06
1.23771e-05
1.62759e-07
1.5053e-07
1.39204e-07
1.28715e-07
1.19002e-07
1.10006e-07
1.01676e-07
9.39602e-08
8.68153e-08
8.01983e-08
7.40701e-08
6.83951e-08
6.31396e-08
5.82731e-08
2.54733e-06
7.58477e-05
0.000310685
0.000727896
0.00134616
0.00233616
0.00401678
0.00693849
0.0121556
0.0218529
0.044654
0.114716
0.323687
0.855261
1.95968
2
2
2
2
2
2
2
2
1.80217
1.51054
1.25969
1.04302
0.854971
0.690985
0.547994
0.423386
0.315181
0.222692
0.145198
0.0845042
0.0427989
0.0182988
0.00610115
0.00143451
0.000628473
1.75965e-07
1.90224e-07
2.05621e-07
2.22247e-07
2.40199e-07
2.59584e-07
2.80517e-07
3.03119e-07
3.27525e-07
3.5388e-07
3.82337e-07
4.13064e-07
4.46244e-07
5.0478e-07
6.38937e-07
8.77991e-07
1.40642e-06
3.08608e-06
1.33688e-05
1.75965e-07
1.62759e-07
1.5053e-07
1.39204e-07
1.28715e-07
1.19002e-07
1.10006e-07
1.01676e-07
9.39602e-08
8.68153e-08
8.01983e-08
7.40701e-08
6.83951e-08
6.31396e-08
1.35233e-07
1.88564e-05
0.00014167
0.000405455
0.000808545
0.00143929
0.0025056
0.00438033
0.00775864
0.0139371
0.0268522
0.063335
0.177818
0.496239
1.24746
2
2
2
2
2
2
2
2
2
1.7695
1.48526
1.24031
1.0282
0.843563
0.682524
0.541785
0.418728
0.311862
0.220403
0.143631
0.0835831
0.0423261
0.0180943
0.00603651
0.00142028
0.000622924
1.90224e-07
2.05621e-07
2.22247e-07
2.40199e-07
2.59584e-07
2.80517e-07