/*--------------------------------*- C++ -*----------------------------------*\
| =========                 |                                                 |
| \\      /  F ield         | OpenFOAM: The Open Source CFD Toolbox           |
|  \\    /   O peration     | Version:  v2012                                 |
|   \\  /    A nd           | Website:  www.openfoam.com                      |
|    \\/     M anipulation  |                                                 |
\*---------------------------------------------------------------------------*/
FoamFile
{
    version     2.0;
    format      ascii;
    class       volScalarField;
    location    "1801";
    object      Res;
}
// * * * * * * * * * * * * * * * * * * * * * * * * * * * * * * * * * * * * * //

dimensions      [0 0 0 0 0 0 0];


internalField   nonuniform List<scalar> 
8000
(
9.52714e-15
1.54937e-14
1.64435e-13
5.6638e-15
5.17158e-14
2.40406e-13
2.01787e-14
1.82237e-14
4.20301e-13
1.45893e-14
1.42887e-14
8.06327e-14
5.25813e-13
5.48279e-13
2.27654e-12
8.78302e-15
1.20768e-13
2.10893e-13
6.81414e-13
5.16225e-13
1.14706e-12
8.07692e-15
3.38523e-14
6.75658e-13
4.17462e-13
6.1553e-13
3.46782e-12
4.67551e-12
8.06302e-16
7.08169e-14
3.3254e-13
7.91811e-13
6.8559e-13
1.0285e-12
9.59154e-13
8.34204e-12
7.50632e-15
5.9365e-14
3.95913e-13
3.55363e-13
1.68536e-12
1.23728e-12
1.21598e-12
1.71545e-12
5.43884e-12
3.17733e-15
1.12901e-13
1.27827e-13
4.6438e-13
1.03667e-12
3.31333e-12
1.65893e-12
1.82879e-12
1.07788e-12
3.85447e-12
9.20386e-15
5.76689e-15
1.73855e-13
2.66704e-13
3.18057e-12
2.35805e-12
1.95605e-13
2.16758e-12
4.12906e-12
1.20512e-12
8.38975e-12
4.99406e-15
8.62598e-14
7.2202e-14
6.1175e-13
1.56361e-12
2.93878e-12
3.28893e-12
2.39079e-12
3.31373e-12
2.69555e-12
7.72954e-12
1.02459e-11
7.57189e-15
1.33441e-13
1.36431e-14
7.1954e-13
4.80363e-13
1.19059e-12
1.3349e-12
4.02726e-13
3.62167e-12
9.49697e-12
3.40022e-12
1.93932e-12
6.46244e-12
1.79225e-14
6.12293e-14
1.51049e-13
4.9873e-13
1.59458e-13
1.45387e-12
8.41532e-13
3.67748e-12
3.7875e-12
5.86435e-12
5.61321e-12
7.73649e-12
1.13416e-11
1.48606e-12
1.58256e-14
9.01561e-14
1.87573e-13
4.95287e-13
7.62227e-13
2.69775e-12
1.04633e-12
2.21339e-12
4.73189e-12
7.14865e-12
5.96302e-12
1.26389e-13
1.17011e-11
4.41502e-12
8.45638e-12
7.77466e-12
1.83133e-13
2.11371e-13
3.79761e-13
4.86624e-13
3.25686e-12
8.82294e-13
2.69975e-12
4.32852e-14
3.24118e-12
6.01106e-12
6.29441e-12
5.66213e-12
1.71892e-12
5.7646e-12
1.94584e-11
6.76382e-10
4.05607e-11
4.31327e-14
8.23104e-13
1.11891e-12
1.41208e-12
1.74827e-12
1.66256e-12
4.36953e-12
3.6868e-12
1.0846e-11
7.2554e-12
1.04557e-11
7.32714e-12
9.26928e-12
2.39169e-11
1.42783e-12
2.58036e-06
4.80687e-09
6.24258e-11
7.79029e-13
2.07151e-12
8.84028e-13
3.9709e-12
2.06546e-12
1.49892e-12
2.21348e-12
2.58791e-12
9.12602e-12
4.9347e-12
5.16204e-12
4.47343e-13
7.37572e-12
7.77827e-12
1.37739e-11
0.000307585
1.19934e-05
7.82116e-09
6.91222e-11
8.24275e-13
1.12255e-12
3.44424e-12
3.52973e-13
2.93611e-12
1.70625e-12
8.17999e-12
1.07602e-11
5.34054e-12
7.45808e-12
1.92268e-11
1.82894e-11
1.71538e-11
2.38624e-11
2.91051e-11
0.495293
0.00157334
1.80388e-05
1.18546e-08
6.87362e-11
1.24142e-12
2.84466e-12
3.33281e-12
3.59018e-12
3.32963e-12
4.02042e-12
8.12631e-13
7.21953e-12
6.17163e-12
6.81497e-12
6.92194e-12
1.0637e-11
3.69125e-12
9.00962e-12
9.32515e-12
2.29084
3.09881
0.00371047
1.9456e-05
1.34463e-08
6.7671e-11
1.77313e-12
3.80584e-12
2.54134e-13
6.13692e-12
2.66045e-12
9.76276e-14
1.19299e-13
1.90965e-11
7.61888e-12
1.47401e-11
1.91807e-11
1.19482e-11
1.96455e-11
1.13544e-11
3.72331e-11
3.72073
17.3542
0.935254
0.00575832
1.78536e-05
1.57723e-08
7.00111e-11
1.32629e-12
4.94144e-13
2.05501e-12
1.20673e-12
5.53312e-12
3.47232e-13
9.2784e-12
1.66374e-11
8.39942e-12
8.23251e-12
5.1281e-11
4.20035e-11
1.30815e-11
7.92448e-12
2.24749e-11
4.60479
39.0859
8.86592
0.520316
0.00822885
1.60197e-05
1.68008e-08
8.22248e-11
4.49068e-12
1.07086e-12
3.13802e-12
9.21331e-12
6.06703e-12
1.64332e-12
1.63239e-11
1.58757e-12
1.92268e-11
5.37356e-11
8.79141e-12
6.141e-11
5.83937e-11
4.03349e-11
4.82813e-11
5.32916
63.3743
27.833
5.15397
0.371413
0.00915937
1.55904e-05
1.78207e-08
8.96672e-11
6.5096e-13
7.79997e-12
4.42909e-12
8.77263e-12
7.18097e-12
2.72678e-12
1.90114e-11
2.55834e-11
1.20236e-11
1.09614e-11
5.72053e-11
5.23265e-11
8.02837e-11
4.30464e-11
2.59316e-11
6.35316
83.2231
61.0698
16.8256
3.62344
0.293688
0.00975872
1.73263e-05
1.80327e-08
9.45231e-11
5.3974e-12
3.18885e-12
1.27353e-12
9.52968e-13
1.70429e-11
1.5536e-11
2.90825e-11
3.50923e-12
1.49556e-11
5.84745e-11
5.29478e-11
5.78782e-11
3.57531e-11
1.75443e-11
3.03592e-11
7.79559
87.8655
101.522
39.336
11.6739
2.8279
0.24478
0.00936122
1.93475e-05
1.81301e-08
9.21261e-11
5.81522e-12
4.95992e-13
5.77835e-12
8.32319e-12
9.02695e-13
1.79306e-11
3.35932e-11
3.08071e-11
7.07917e-11
2.60452e-11
1.76536e-11
2.16849e-11
2.2931e-11
7.09204e-11
3.25559e-11
9.20732
90.3722
133.206
75.9345
27.6387
8.89782
2.35046
0.212457
0.00855642
1.96292e-05
1.67798e-08
7.68606e-11
6.86793e-12
5.05317e-13
2.48183e-11
5.90601e-12
1.04494e-12
2.0416e-11
9.46215e-12
3.53303e-11
8.0344e-11
2.99625e-11
8.02665e-12
1.67241e-12
9.95128e-12
4.154e-11
3.5527e-11
9.99878
110.412
136.813
124.704
56.2053
20.5868
7.3104
2.03585
0.189448
0.0075594
1.7234e-05
1.47829e-08
7.82739e-11
8.08319e-12
1.53034e-11
1.47882e-11
1.55733e-11
2.52076e-11
1.21065e-11
6.40883e-12
3.959e-11
2.3773e-11
1.13974e-10
9.20894e-13
1.10972e-11
9.74198e-11
4.99321e-11
1.53591e-11
9.71495
140.286
126.424
167.499
102.149
41.6513
16.6041
6.28656
1.81235
0.172688
0.00626961
1.37477e-05
1.24259e-08
7.77986e-11
1.42441e-11
3.00723e-12
8.95843e-12
7.75777e-12
2.91861e-11
1.9498e-11
1.25915e-11
1.11665e-11
6.13e-11
1.26837e-10
6.67768e-11
5.91931e-11
6.06958e-11
2.81966e-12
4.36142e-11
8.54351
169.771
119.311
181.416
163.076
77.8667
32.9386
14.098
5.56755
1.64905
0.160641
0.00473646
1.03667e-05
9.99145e-09
6.12969e-11
1.70648e-11
2.06542e-11
1.94205e-11
2.29302e-11
1.71248e-11
4.43303e-11
2.72986e-11
5.2107e-11
8.89955e-11
6.03525e-11
1.0722e-11
6.79686e-11
6.3186e-11
6.17759e-11
9.45971e-11
6.79848
171.723
146.986
148.398
214.172
134.908
61.0498
27.4727
12.3731
5.04495
1.53052
0.152798
0.00334348
7.40505e-06
7.83551e-09
3.57855e-11
1.26464e-11
9.16928e-12
3.21519e-11
1.99555e-11
9.05256e-11
3.5754e-11
2.18916e-11
1.09762e-10
3.1152e-11
4.56058e-11
2.52309e-11
4.04556e-11
9.84589e-11
5.96782e-11
1.04715e-10
4.95134
154.486
200.775
88.4164
217.947
209.793
107.92
49.961
23.7868
11.1358
4.66479
1.45353
0.148933
0.00212596
5.00084e-06
5.86451e-09
3.42331e-11
1.60273e-11
1.31261e-11
1.21048e-11
4.45647e-11
7.34889e-12
2.6047e-11
1.01273e-10
5.32677e-12
3.26717e-11
3.85996e-12
1.12433e-10
1.2175e-10
7.2504e-11
6.36208e-11
1.18882e-10
3.30162
124.349
280.644
39.5543
174.026
266.713
179.286
87.6057
42.4773
21.1876
10.2401
4.41938
1.41977
0.149661
0.00132173
3.21391e-06
4.23102e-09
1.12949e-11
1.11953e-11
1.5826e-11
1.36849e-11
1.5849e-11
2.37768e-11
8.34098e-11
3.74753e-11
5.12492e-11
1.7387e-11
2.88374e-11
3.55506e-11
4.58486e-11
7.89092e-11
3.56578e-11
1.26072e-10
2.01976
91.9706
400.367
40.7149
121.451
249.554
267.623
147.46
73.1139
37.2597
19.3187
9.66281
4.32321
1.43109
0.153473
0.000806344
1.96936e-06
2.93993e-09
1.91675e-11
1.81222e-11
1.6558e-11
5.3271e-12
1.4812e-11
2.60801e-11
5.44077e-11
8.32707e-11
5.6039e-11
4.61556e-12
3.10414e-11
8.13234e-11
1.13679e-10
4.37807e-11
4.74502e-11
7.51993e-11
1.13391
62.7597
481.211
85.3541
96.109
178.633
318.258
234.562
121.764
62.8975
33.5075
18.091
9.45214
4.37387
1.47286
0.159754
0.000458131
1.14716e-06
1.94992e-09
1.34922e-11
9.87717e-12
2.05466e-11
4.21574e-12
3.39972e-11
8.47065e-11
5.43529e-11
2.65161e-11
8.2575e-11
7.38965e-11
6.6071e-11
1.1994e-10
5.38246e-11
1.85756e-11
1.25257e-10
7.58963e-11
0.583117
39.5421
491.659
190.509
82.2778
118.393
265.107
328.49
195.198
102.962
55.4635
30.9165
17.5908
9.58639
4.52119
1.53701
0.165188
0.000241714
6.3306e-07
1.22588e-09
1.87658e-11
4.00496e-11
2.13216e-11
2.51029e-11
5.2695e-11
6.22713e-11
2.803e-11
2.6835e-12
3.41605e-12
8.15341e-11
7.59435e-11
4.03278e-11
1.15674e-10
6.70711e-11
9.28788e-11
8.49577e-11
0.273444
22.8671
426.117
366.173
44.5342
133.163
163.924
346.669
293.591
161.03
88.6468
49.9968
29.4804
17.7364
9.92732
4.73295
1.5919
0.169012
0.000116883
3.28586e-07
7.2568e-10
2.13059e-11
1.44958e-11
4.78668e-11
8.68455e-11
1.9424e-11
3.43701e-11
3.7752e-11
2.85538e-11
1.01462e-10
9.42661e-11
2.68608e-11
4.93287e-11
4.37259e-11
1.24113e-10
2.00448e-10
9.6205e-11
0.116407
12.0551
318.938
608.041
11.1907
175.763
81.9693
250.379
374.797
241.646
132.602
77.3467
46.0649
28.9935
18.1718
10.3925
4.90912
1.62814
0.171082
5.15032e-05
1.59266e-07
4.02528e-10
1.14872e-11
4.32209e-11
2.63888e-11
3.64705e-11
4.67982e-11
4.94469e-12
2.91705e-13
1.23496e-10
8.29217e-11
9.90744e-11
5.15044e-11
9.27752e-11
1.4868e-10
7.03881e-11
2.21082e-10
1.94586e-11
0.044661
5.75704
208.659
828.589
62.5736
181.235
103.456
128.079
338.682
337.287
191.107
108.537
68.0286
43.3161
28.688
18.7742
10.7606
5.01831
1.6473
0.171972
2.05388e-05
7.15221e-08
2.47497e-10
9.86829e-12
1.74888e-11
6.50711e-12
8.233e-11
6.91738e-11
1.01381e-11
4.03574e-11
3.41491e-11
5.98874e-11
6.79327e-11
1.90929e-10
4.05848e-12
9.53977e-11
2.07505e-10
1.78534e-10
3.1971e-10
0.0152705
2.4793
120.578
920.39
203.37
162.602
161.183
51.5258
202.898
378.501
268.364
146.641
87.9798
59.7906
40.6296
28.5831
19.1942
10.9691
5.07355
1.65518
0.171741
7.37123e-06
2.95232e-08
1.18229e-10
6.27791e-11
1.87892e-11
6.45385e-11
3.00762e-11
3.99459e-11
4.80947e-11
4.47605e-11
2.74319e-11
7.04458e-11
2.17599e-11
1.05113e-10
1.66072e-10
8.29198e-11
3.50564e-11
2.62294e-10
3.0388e-11
0.00459561
0.955625
61.8146
829.107
485.123
98.3723
223.75
66.6999
81.9975
286.135
344.765
198.368
110.415
70.7166
52.8886
38.3837
28.3421
19.367
11.0647
5.09377
1.65226
0.17078
2.37521e-06
1.11849e-08
9.13195e-11
4.54608e-11
3.93249e-11
4.65395e-12
1.04554e-10
5.60875e-11
1.0291e-10
6.16102e-11
2.01326e-10
1.08296e-10
6.54741e-11
2.28666e-10
1.35583e-11
6.25518e-11
3.19038e-10
1.4221e-10
2.51246e-10
0.00119889
0.326563
28.0722
611.054
898.607
12.4485
287.05
112.645
36.4418
139.596
332.355
267.665
142.564
83.5622
58.7585
46.9465
36.4019
27.9747
19.4064
11.0861
5.08045
1.64222
0.169331
6.91196e-07
3.8839e-09
7.49732e-11
4.81491e-11
4.79672e-11
7.91969e-11
2.8114e-11
3.22776e-11
6.21979e-12
1.14283e-10
8.33918e-11
8.47988e-12
1.39368e-10
1.09705e-10
1.3564e-10
1.15896e-10
2.92167e-11
3.14177e-10
4.8639e-12
0.000266335
0.0977315
11.2372
373.741
1271.53
90.8968
291.543
183.657
47.1482
46.1574
205.145
313.227
192.967
103.419
65.0731
49.9266
42.5893
34.8534
27.6484
19.3417
11.0385
5.04529
1.62741
0.167529
1.85039e-07
1.24419e-09
5.05142e-11
2.61488e-11
4.89595e-11
4.33813e-11
2.23487e-11
3.39583e-12
1.23887e-10
6.61631e-12
1.94989e-10
2.19673e-10
9.13919e-11
7.40601e-11
6.1838e-11
3.26881e-10
2.81743e-10
2.37801e-11
1.7551e-10
4.93453e-05
0.0251944
3.94024
192.545
1386.99
335.986
235.546
277.086
76.1032
30.1312
79.4495
253.589
252.947
137.527
77.3162
55.3042
44.3031
39.652
33.7114
27.2718
19.196
10.9472
4.99528
1.6096
0.165568
4.69155e-08
3.42875e-10
2.89373e-11
1.23572e-11
4.61383e-11
5.06537e-11
4.27553e-11
1.13633e-10
5.09866e-12
1.19396e-10
1.15257e-10
7.00518e-11
2.18067e-10
1.83569e-10
2.2375e-10
3.57626e-10
1.03821e-10
1.01081e-10
1.61995e-10
7.45325e-06
0.00548275
1.19758
84.431
1172.97
831.249
122.949
374.765
125.263
42.0588
30.3357
124.636
259.481
188.855
100.189
64.2766
49.2023
40.7933
37.5571
32.7379
26.9041
18.9971
10.8255
4.93716
1.59033
0.163663
1.14333e-08
1.0032e-10
4.66779e-11
1.17928e-11
5.5069e-12
4.53631e-11
9.31416e-11
7.95804e-11
8.29992e-11
1.96308e-10
5.84374e-11
2.08008e-10
9.23195e-11
5.38791e-11
3.37447e-11
1.63103e-10
5.03431e-12
1.0029e-10
3.64948e-10
9.01135e-07
0.000982424
0.310951
31.5932
775.414
1465.84
33.7667
428.99
208.145
59.7036
33.7838
41.5638
169.164
230.066
138.618
76.5665
56.5467
44.6909
38.411
36.0213
31.9691
26.5245
18.7611
10.6893
4.87473
1.57151
0.161732
2.49715e-09
8.90126e-11
2.27871e-11
7.26606e-11
1.69187e-11
5.49681e-11
7.07528e-11
4.70442e-11
2.39361e-10
2.13302e-10
2.61956e-10
5.93078e-11
2.41168e-10
1.41346e-10
8.15568e-11
1.54248e-10
2.49208e-10
1.1058e-10
1.9798e-10
8.63543e-08
0.000140676
0.0676556
10.0442
407.716
1876.12
245.454
404.825
327.265
90.3871
43.9895
33.6353
64.45
194.812
186.338
102.999
65.6055
50.606
41.341
36.6198
34.8699
31.2853
26.1393
18.5103
10.5449
4.81369
1.55232
0.159676
7.26087e-10
1.45886e-10
1.81136e-10
1.69974e-11
1.08103e-10
1.32586e-10
1.26136e-10
1.01376e-10
1.75491e-10
1.04295e-10
5.31059e-11
3.97461e-11
1.87966e-11
9.96267e-11
2.63057e-10
2.97893e-10
1.52421e-10
2.66561e-10
2.11197e-10
7.95522e-09
1.55443e-05
0.0120216
2.68725
173.48
1761.46
775.767
240.75
473.503
145.389
56.7561
42.8037
33.7101
97.7847
196.817
143.816
79.9618
57.7774
45.9444
38.7385
35.24
33.9334
30.6607
25.7588
18.2505
10.404
4.75139
1.53215
0.157641
4.41397e-10
2.24372e-10
3.96069e-11
9.33808e-11
1.60959e-10
7.16055e-11
1.81798e-10
5.39355e-11
2.8697e-10
9.78011e-11
7.80704e-11
1.31327e-10
5.30368e-11
1.61431e-10
3.70476e-10
1.81843e-11
1.41305e-10
2.47389e-11
2.28659e-10
1.523e-09
1.27829e-06
0.00169026
0.595232
60.3681
1228.33
1650.21
25.5199
584.843
245.115
75.9417
52.8492
43.3867
31.0561
128.707
177.563
109.741
67.2249
51.8831
42.1877
36.7182
34.2058
33.1381
30.0863
25.3796
17.9982
10.2609
4.68673
1.51221
0.155643
4.78081e-10
2.28255e-10
1.58122e-10
9.49471e-11
8.40272e-11
1.47355e-10
1.35181e-10
2.9164e-10
1.17508e-10
9.17749e-11
9.42686e-11
7.13559e-11
6.7701e-11
4.50917e-10
1.285e-10
1.78914e-10
1.63147e-10
4.62519e-10
2.86838e-10
1.87294e-09
7.61907e-08
0.000181006
0.106554
17.1846
646.673
2357.47
205.653
565.673
402.716
110.809
63.7551
55.2653
31.5894
48.6408
151.006
147.136
85.913
59.2531
46.9064
39.2247
35.1171
33.3748
32.437
29.5352
25.0151
17.7463
10.1145
4.623
1.49261
0.15371
3.50839e-10
2.56786e-10
1.4139e-10
2.98649e-11
1.66886e-11
8.85541e-11
2.97089e-10
1.89403e-10
7.45571e-11
1.21708e-10
3.06414e-11
9.1115e-11
1.50589e-10
2.7046e-10
3.23651e-10
3.77903e-10
3.3744e-10
2.08178e-11
2.66124e-10
3.40372e-09
1.09922e-08
1.41604e-05
0.0149322
3.96569
262.241
2334.9
822.642
348.906
602.878
177.381
77.9362
67.6959
44.571
19.2373
72.9107
155.488
117.353
69.6404
52.9998
42.9077
36.8404
33.8077
32.6548
31.7789
29.0126
24.6636
17.4943
9.97096
4.56029
1.4736
0.151767
3.53134e-10
3.37827e-10
8.89336e-11
1.07544e-11
1.52913e-10
2.75752e-10
1.61552e-10
6.47829e-11
1.25186e-10
2.29103e-10
1.10406e-10
2.54847e-10
1.57311e-10
2.64342e-10
5.15603e-11
2.14545e-10
1.30315e-10
1.85149e-10
4.10161e-10
5.57776e-09
1.47533e-08
7.71308e-07
0.00157469
0.727781
83.1274
1637.56
1947.71
69.2659
741.861
304.742
101.044
80.1655
59.4547
27.4172
21.7479
101.98
143.46
93.0188
61.0356
48.0691
39.6104
34.8813
32.7195
31.9832
31.1553
28.5265
24.3366
17.2497
9.82995
4.49961
1.45457
0.149876
3.95468e-10
3.50087e-10
1.26479e-10
7.86011e-11
2.17318e-10
1.06996e-10
8.13039e-11
8.3847e-11
1.07577e-10
1.23956e-10
2.17422e-10
3.6545e-10
1.69165e-10
2.95623e-10
2.33369e-10
1.81341e-10
5.95956e-10
1.72256e-10
6.37658e-10
7.61299e-09
1.87696e-08
2.86051e-08
0.000119438
0.103104
20.654
828.273
2903.14
243.065
727.464
503.749
145.742
94.4558
76.1481
39.9347
9.23433
36.3766
124.106
122.477
75.4816
54.6531
43.8011
36.8726
33.276
31.7661
31.3391
30.5723
28.1436
24.0249
17.0109
9.69387
4.43906
1.43615
0.148113
9.61026e-10
3.38125e-10
2.00977e-10
2.06975e-10
1.76614e-10
1.84511e-11
9.85129e-11
1.7488e-10
7.94253e-11
1.31061e-10
1.17367e-10
6.2586e-11
1.81354e-10
3.03548e-11
4.28164e-10
4.94077e-10
4.29818e-10
1.96962e-10
2.16581e-10
1.07114e-08
2.32348e-08
1.11453e-08
6.21375e-06
0.0108399
3.97998
308.244
2841.59
1052.12
427.082
763.149
231.603
113.862
94.0285
54.6047
13.6906
6.87634
63.2011
130.863
100.501
63.4075
49.4688
40.1924
34.6213
31.9156
30.9042
30.7276
30.0592
27.7886
23.7263
16.7811
9.55875
4.38078
1.41891
0.14638
1.5022e-09
3.33286e-10
2.94186e-10
7.63943e-11
8.55832e-11
1.14278e-10
3.65277e-11
3.58361e-11
1.15932e-10
2.95633e-10
1.19398e-10
1.55818e-10
2.00694e-10
5.26847e-10
5.86705e-10
3.75407e-10
2.54071e-10
2.2811e-10
1.40018e-10
1.36888e-08
2.81632e-08
1.03339e-08
3.56857e-07
0.000806754
0.580638
85.7561
1888.93
2484.18
53.1578
934.59
397.873
144.156
114.158
74.3905
22.656
1.49938
17.3724
91.5457
122.644
82.0808
56.7155
45.0575
37.1629
32.7336
30.7315
30.117
30.1635
29.5877
27.4578
23.4408
16.5545
9.42918
4.32606
1.40196
0.144716
2.32882e-09
4.46802e-10
2.41241e-10
6.43246e-11
5.69548e-11
1.3611e-10
1.0576e-10
8.23227e-11
1.83015e-10
1.84573e-10
1.3974e-10
3.01519e-10
7.08758e-11
3.91704e-10
1.7012e-10
5.24856e-10
4.84144e-10
1.75855e-10
9.6524e-11
1.57435e-08
3.33466e-08
2.00978e-08
3.9059e-07
4.0102e-05
0.0617946
17.8591
870.343
3551.59
405.337
864.308
660.62
202.33
135.665
98.2868
36.6193
1.60998
7.97927
36.2847
111.656
106.547
68.336
51.2548
41.2055
34.6059
31.1231
29.6827
29.4107
29.6418
29.1533
27.1463
23.163
16.3372
9.30725
4.27231
1.38573
0.143108
3.27286e-09
1.99372e-10
1.51673e-10
9.77407e-11
6.60256e-11
1.84295e-10
1.29234e-10
4.37927e-10
2.05568e-10
1.69179e-10
7.84062e-11
1.88782e-10
2.43052e-10
2.43409e-10
5.39187e-10
6.01116e-11
6.01349e-11
2.57782e-10
8.34365e-10
1.66813e-08
3.5343e-08
3.8413e-08
4.62354e-07
2.53415e-06
0.00457355
2.74194
283.184
3199.64
1593.62
454.162
973.96
319.626
161.687
126.385
59.1725
2.82179
8.47973
8.07555
63.3479
117.275
89.134
59.1519
46.6969
37.8704
32.4375
29.7257
28.7657
28.7754
29.1606
28.7493
26.8506
22.8962
16.1322
9.18773
4.22105
1.37003
0.141529
3.90067e-09
2.2199e-10
2.14569e-10
1.18846e-10
2.42709e-10
1.44407e-10
2.10394e-10
2.38048e-10
1.02898e-10
2.24423e-10
1.31118e-10
4.22432e-10
1.19049e-10
3.26257e-10
3.98941e-10
5.48652e-10
8.86134e-10
2.6823e-10
2.14721e-10
1.75719e-08
3.38499e-08
6.11209e-08
6.06063e-07
2.6355e-06
0.0002217
0.300641
65.944
1892.06
3330.13
70.2239
1131.53
543.662
203.793
156.109
89.203
8.94799
8.90256
11.4184
18.6629
89.8476
109.718
74.313
53.4246
42.6225
35.0116
30.5763
28.5228
27.9598
28.2029
28.7146
28.3709
26.5678
22.6438
15.9321
9.07407
4.17141
1.35465
0.140023
4.34199e-09
1.44181e-10
1.62049e-10
2.97371e-10
7.74323e-11
4.73481e-10
1.68333e-10
2.90039e-10
4.4461e-10
4.01839e-11
1.33862e-10
6.48129e-10
2.97591e-10
4.5832e-10
2.17758e-10
3.82625e-10
3.26399e-10
3.84633e-11
5.21926e-10
1.8747e-08
3.10309e-08
7.42509e-08
7.0932e-07
2.55754e-06
9.11193e-06
0.0224851
10.9428
748.684
4167.85
810.819
916.583
897.967
286.334
188.152
126.645
22.182
9.6148
18.0197
4.16502
41.1803
106.667
95.5882
62.9336
48.5931
39.0434
32.5432
28.9859
27.4811
27.2472
27.6855
28.2994
28.0119
26.3003
22.4005
15.7417
8.96402
4.12292
1.33998
0.138552
4.27474e-09
2.17409e-10
4.28818e-10
1.58841e-10
3.72137e-10
1.89971e-10
1.2546e-10
3.90341e-10
1.74961e-10
1.15591e-10
2.05981e-10
2.36988e-10
3.63824e-10
7.88287e-10
9.03344e-10
1.80829e-10
7.21794e-10
1.24204e-09
9.729e-11
1.9049e-08
3.04948e-08
9.039e-08
7.11907e-07
2.59647e-06
9.04453e-06
0.00109069
1.26291
201.374
3206.33
2598.49
395.686
1224.51
464.142
227.046
169.754
48.1367
9.65938
24.4807
10.2142
8.64867
68.5565
108.977
80.7553
55.8691
44.4571
35.8469
30.4283
27.6206
26.571
26.6157
27.2144
27.9065
27.6726
26.0484
22.1679
15.5576
8.85684
4.07673
1.32564
0.137115
3.86229e-09
5.39204e-10
2.11774e-10
3.58037e-10
2.55509e-10
3.99446e-10
1.05551e-10
1.99435e-10
6.75063e-11
2.24029e-10
2.53931e-10
5.87675e-10
6.541e-10
4.81031e-10
7.18633e-10
4.09925e-10
4.13921e-10
2.17687e-10
2.02092e-10
1.8407e-08
3.21359e-08
9.87918e-08
6.71507e-07
2.46171e-06
7.56666e-06
3.19518e-05
0.0972913
37.077
1580.26
4441.7
321.158
1310.07
772.67
293.91
214.121
87.0022
7.68281
27.7921
19.1937
2.5964
26.1179
91.9399
100.454
68.3583
50.7945
40.5423
33.0719
28.6196
26.438
25.7751
26.0517
26.7778
27.5338
27.3572
25.8077
21.9442
15.3787
8.75485
4.03162
1.31167
0.135737
2.39002e-09
3.67359e-10
5.24226e-10
9.44071e-11
8.6633e-11
2.3461e-10
1.30649e-10
6.66626e-11
2.70079e-10
2.05275e-10
4.19511e-10
6.34762e-10
7.00721e-10
3.12684e-10
5.43061e-11
2.15223e-10
9.00071e-11
1.06654e-09
7.29513e-10
1.72439e-08
3.4252e-08
9.17344e-08
6.37893e-07
2.08518e-06
6.02062e-06
2.24436e-05
0.0048208
4.60276
504.404
4468.17
1687.9
809.079
1227.95
427.883
259.288
141.069
10.4527
27.4213
26.4998
6.09276
5.41894
49.3333
104.007
87.3495
58.5882
46.344
37.0685
30.6823
27.0621
25.4137
25.0742
25.539
26.3683
27.1888
27.0584
25.5793
21.7281
15.2083
8.65531
3.98772
1.29826
0.134373
1.5905e-09
2.86971e-10
1.71013e-10
4.47868e-10
3.69314e-10
1.73305e-10
4.13874e-10
5.29731e-10
4.1139e-10
2.9353e-10
1.09143e-10
1.06642e-10
4.24238e-10
3.91327e-10
9.79314e-10
4.98891e-10
4.72246e-10
3.16143e-10
7.00517e-10
1.43922e-08
4.0495e-08
6.68033e-08
6.07615e-07
1.71553e-06
4.50752e-06
2.33231e-05
0.000193349
0.371998
105.493
2735.72
4049.88
124.266
1561.2
695.505
317.228
205.61
24.8625
24.4495
33.8414
12.1372
3.34659
16.0116
75.3952
102.872
74.2105
53.0917
42.3542
33.9898
28.6222
25.7229
24.5216
24.4478
25.0649
25.9922
26.8639
26.7773
25.3618
21.5217
15.0423
8.55861
3.94557
1.28499
0.133068
1.10673e-09
4.22677e-10
1.88645e-10
3.3098e-10
1.18918e-10
8.58356e-11
4.54207e-10
2.68323e-10
3.69102e-10
2.94153e-10
1.56682e-10
2.5941e-10
4.41549e-10
7.11702e-10
3.40991e-10
5.65789e-10
2.26123e-11
6.08059e-11
7.54746e-10
1.09192e-08
4.07567e-08
3.57227e-08
5.64844e-07
1.47779e-06
3.2488e-06
1.90241e-05
8.03697e-05
0.0189785
14.3693
1047.35
5371.56
937.419
1330.34
1153.32
415.869
274.086
58.5456
18.2526
37.1781
16.8978
7.30849
3.82833
34.4008
94.9823
93.2043
63.4187
48.4663
38.6214
31.2964
26.8549
24.5675
23.7363
23.878
24.6329
25.643
26.5593
26.5134
25.1549
21.3222
14.8813
8.46581
3.90396
1.27234
0.131845
5.57541e-10
5.18521e-10
2.02101e-10
4.07576e-10
4.82314e-10
3.45284e-10
4.83341e-10
1.90049e-10
3.69696e-10
3.38311e-10
3.23205e-10
3.3201e-10
8.4308e-10
4.17515e-10
4.50189e-10
6.13418e-10
5.76233e-10
5.12276e-10
8.68387e-10
7.18352e-09
3.53401e-08
2.42113e-08
5.22846e-07
1.41384e-06
2.14648e-06
1.5538e-05
5.97607e-05
0.000834542
1.23768
252.075
4121.67
3377.49
524.582
1590.25
637.771
346.479
127.48
5.50206
37.2139
22.9699
10.5694
4.0263
10.6511
58.9541
102.006
80.5464
55.5857
44.3537
35.2361
28.9691
25.3397
23.564
23.0337
23.3632
24.2371
25.3181
26.2756
26.2648
24.9589
21.1293
14.7267
8.37438
3.86437
1.26045
0.130633
5.62703e-10
2.25778e-10
2.91889e-10
2.2006e-10
4.70831e-10
3.20686e-10
3.41471e-11
6.98419e-10
3.94008e-10
6.80938e-10
1.08663e-10
2.72733e-10
5.16014e-10
4.05608e-10
7.2612e-10
6.77329e-10
5.7249e-10
5.57274e-10
9.19814e-10
3.24642e-09
2.80661e-08
3.28128e-08
4.24791e-07
1.42104e-06
1.14784e-06
1.34032e-05
4.59703e-05
0.000187169
0.065276
38.1779
1897.88
5650.79
417.926
1732.38
1047.21
449.303
223.366
12.1095
31.7391
31.4022
12.8465
7.15776
4.7371
23.8445
82.7942
97.433
68.7833
50.7639
40.4164
32.2427
26.972
24.036
22.6796
22.4049
22.8975
23.8721
25.018
26.0108
26.0337
24.7722
20.9442
14.5747
8.28753
3.82713
1.24866
0.129447
4.52237e-10
1.06775e-10
3.01034e-10
4.35629e-10
2.53901e-10
6.68121e-10
5.74025e-10
4.83176e-10
1.02397e-10
1.80368e-10
1.0212e-09
2.64285e-11
2.48606e-10
4.80931e-10
2.46916e-11
2.77257e-11
8.11392e-10
4.9912e-10
1.07078e-09
1.25867e-09
2.03774e-08
4.04031e-08
3.0059e-07
1.32014e-06
1.00988e-06
1.24688e-05
3.53683e-05
0.000109008
0.00263309
3.55196
529.911
5378.88
2422.07
1048.13
1658.92
642.539
332.166
47.7498
19.9396
42.9264
17.5643
8.197
6.02497
8.30616
44.348
97.3318
86.7403
59.1976
46.4228
36.7967
29.6311
25.259
22.902
21.8966
21.8432
22.4726
23.5373
24.7416
25.7687
25.8185
24.5944
20.7634
14.43
8.20568
3.79022
1.23717
0.128304
4.6022e-10
4.33426e-10
5.97133e-10
2.33391e-10
3.16681e-10
5.95371e-11
2.51799e-10
2.38755e-10
3.06636e-10
1.27146e-09
6.50181e-10
1.05085e-09
2.27339e-10
9.26139e-10
1.22544e-09
8.27843e-10
4.16439e-10
1.37167e-09
8.27034e-10
2.09867e-10
1.27681e-08
4.53577e-08
1.52728e-07
1.1128e-06
1.34807e-06
1.12923e-05
3.18177e-05
6.76719e-05
0.000458114
0.195457
89.8808
2970.28
5597.52
119.41
2028.47
1014.04
462.377
126.87
12.3615
52.8826
27.4664
7.61029
6.92326
6.04959
16.7355
68.9781
99.399
74.6382
53.1657
42.4781
33.4837
27.3763
23.7829
21.9089
21.2054
21.3363
22.0856
23.2329
24.4933
25.552
25.6161
24.4238
20.5898
14.2932
8.12466
3.75432
1.22607
0.127159
4.8772e-10
2.55759e-10
9.14565e-11
5.61806e-10
2.13802e-10
4.19633e-11
3.7493e-10
2.2531e-10
5.95045e-10
3.46999e-10
7.11311e-10
7.83969e-10
2.19768e-10
4.89901e-10
5.12742e-10
4.9567e-10
7.02196e-10
1.22441e-09
1.04311e-09
6.36767e-11
7.34737e-09
3.74326e-08
5.1815e-08
8.65171e-07
1.58993e-06
8.65057e-06
3.14295e-05
3.54802e-05
0.000322781
0.00680756
9.10287
964.552
6454.17
1711.35
1486.3
1649.41
647.737
248.484
13.6655
57.4647
42.0019
7.43467
5.76925
8.08883
7.16254
32.6602
89.2349
92.1351
64.0657
48.6374
38.5522
30.5648
25.4387
22.503
21.0422
20.5888
20.8782
21.7369
22.9608
24.287
25.35
25.4255
24.2584
20.4247
14.1582
8.04603
3.71964
1.21496
0.126037
3.81213e-10
2.22616e-10
4.87769e-10
4.39429e-10
6.95999e-13
4.75023e-10
5.50251e-10
7.4724e-10
4.7762e-10
5.33938e-10
2.07568e-10
1.06939e-09
7.89599e-10
7.39335e-10
3.21789e-10
1.02935e-09
2.2809e-10
1.46509e-09
1.27723e-09
1.18106e-09
3.02242e-09
2.57142e-08
3.25893e-08
6.10292e-07
1.81809e-06
4.96116e-06
2.9648e-05
2.72925e-05
0.000274851
0.00100797
0.529329
184.228
4231.35
5010.98
462.913
2179.49
1014.2
412.519
40.2468
53.181
59.0687
9.78843
4.74187
8.46347
7.21181
12.5598
55.206
98.4039
80.8116
55.5569
44.4726
34.9671
28.0328
23.7693
21.3978
20.2781
20.0361
20.4669
21.4261
22.7211
24.095
25.1619
25.2408
24.1004
20.2632
14.0271
7.97006
3.68498
1.2041
0.124936
1.2302e-10
5.37243e-10
7.76215e-10
7.28294e-11
3.6002e-10
3.77218e-10
1.10648e-09
5.70447e-10
2.92316e-10
6.59951e-10
9.86918e-10
9.6323e-10
1.54017e-09
2.14174e-10
1.99268e-10
1.63701e-09
7.24092e-10
9.00798e-10
1.58032e-09
2.88995e-10
5.55258e-10
1.60247e-08
3.61332e-08
3.52598e-07
1.65223e-06
1.59444e-06
2.44355e-05
3.36329e-05
0.000225978
0.000728721
0.0187925
20.4291
1588.93
7151.36
1144.09
2025.45
1642.77
635.555
109.844
37.0774
73.6487
18.241
4.65149
8.28115
10.1783
7.80275
23.7838
78.5222
96.0602
69.3105
50.8532
40.4946
31.7508
25.8471
22.3393
20.4345
19.5998
19.5415
20.0998
21.1463
22.5017
23.9168
24.9794
25.0641
23.9493
20.1061
13.9003
7.89423
3.65114
1.19343
0.123826
6.70158e-10
7.1513e-10
1.19968e-09
4.82321e-10
5.14936e-10
7.92912e-10
9.91586e-10
6.5686e-11
6.40174e-11
7.15126e-10
6.56683e-10
2.74066e-09
1.02536e-09
6.09068e-10
9.13933e-10
4.42787e-10
1.19913e-10
3.10277e-09
1.64408e-09
8.3706e-10
6.56813e-10
8.4772e-09
3.3883e-08
1.4792e-07
1.2419e-06
1.39762e-06
1.8717e-05
3.77181e-05
0.000165856
0.00062223
0.00145949
1.26933
340.986
5476.28
4466.15
922.189
2312.76
1008.55
255.438
15.6901
76.271
34.0359
5.6308
8.3038
11.898
8.9177
9.46602
42.7264
94.1062
86.7275
59.7068
46.5823
36.6921
28.9219
23.9776
21.1053
19.5888
18.9965
19.0994
19.7692
20.8918
22.3011
23.7437
24.804
24.8988
23.8024
19.9538
13.7741
7.82033
3.6179
1.18267
0.122739
7.77498e-10
1.25555e-09
6.40514e-10
8.87532e-10
4.73166e-10
9.2677e-10
5.78287e-10
3.41475e-10
6.09265e-10
6.39657e-10
2.00638e-09
9.53198e-10
8.31569e-10
6.04825e-10
1.71017e-09
1.58356e-09
8.57727e-10
2.48281e-09
1.68406e-09
5.5073e-10
4.19789e-10
4.00526e-09
2.36095e-08
4.55304e-08
7.94093e-07
1.76777e-06
1.166e-05
4.1289e-05
8.71679e-05
0.00057496
0.00125842
0.0470878
41.405
2364.52
7534.79
845.992
2511.24
1631.25
514.884
28.258
60.2345
56.5246
9.79027
8.38069
13.898
10.3422
6.76793
17.3168
66.3396
97.8328
75.1105
53.2155
42.6187
33.1701
26.4757
22.3749
20.0342
18.8436
18.4585
18.7025
19.4692
20.6608
22.1106
23.5761
24.6424
24.7399
23.6606
19.803
13.6509
7.74774
3.58443
1.17216
0.121678
1.62645e-09
1.00658e-09
1.99029e-09
8.06981e-10
5.84504e-10
3.73903e-10
8.96533e-10
8.8976e-10
4.05902e-10
1.8911e-09
1.29517e-09
1.75203e-09
1.68233e-09
9.75819e-10
2.16278e-09
2.35443e-09
1.45863e-09
1.64197e-09
1.72684e-09
6.2791e-10
9.65731e-10
1.40234e-09
1.3768e-08
2.52399e-08
4.49949e-07
1.72457e-06
5.77054e-06
3.61304e-05
3.05182e-05
0.000464704
0.0007056
0.00326013
2.75198
569.055
6688.47
3799.73
1373.49
2482.36
932.196
128.535
31.4189
84.4281
20.0109
9.76601
15.5385
11.5529
7.94599
7.58952
32.348
86.7004
91.8083
64.5295
48.8016
38.5749
30.0291
24.3778
20.9977
19.1013
18.1832
17.9781
18.3438
19.1979
20.4452
21.9284
23.4226
24.4887
24.5878
23.5227
19.6555
13.5302
7.67478
3.55177
1.1619
0.120608
1.65843e-09
1.0408e-09
1.25303e-09
1.07995e-09
1.01032e-09
1.45527e-09
9.31646e-10
7.67651e-10
2.40831e-09
5.21067e-10
1.26049e-09
1.83838e-09
4.48115e-10
1.61217e-09
1.17939e-09
2.4075e-09
1.41777e-09
8.45863e-10
1.54127e-09
1.05802e-09
5.78814e-10
1.52598e-09
7.50766e-09
2.07727e-08
2.09173e-07
1.27498e-06
1.5779e-06
2.57759e-05
3.8384e-05
0.000335145
0.000678799
0.00331866
0.10611
75.598
3244.47
7567.21
287.348
2953.45
1619.48
347.743
16.6288
106.77
38.8169
11.841
16.1132
13.019
8.54439
6.38866
13.1522
53.937
96.8191
81.1234
55.7603
44.6305
34.7756
27.2995
22.5853
19.812
18.2819
17.5978
17.5459
18.0201
18.9481
20.2413
21.7628
23.2779
24.3425
24.4432
23.3876
19.5122
13.4093
7.60369
3.51987
1.15154
0.119525
1.141e-09
1.46164e-09
8.50864e-10
1.19094e-09
9.49047e-11
1.30858e-09
6.09402e-10
1.63803e-09
1.98937e-09
1.62983e-09
5.53936e-10
6.68392e-10
1.09473e-09
1.36395e-09
1.89e-09
2.66607e-09
1.6761e-09
1.20232e-09
2.05009e-09
1.92172e-09
1.89153e-09
1.168e-09
3.69886e-09
1.36751e-08
7.99344e-08
7.92658e-07
1.43053e-06
1.58666e-05
4.33386e-05
0.000189583
0.00067308
0.00163488
0.00725841
5.36952
867.018
7791.91
3152.32
1814.9
2655.41
757.343
38.3095
110.6
67.3054
11.4795
14.6864
14.5588
9.6521
8.75238
8.11621
24.1003
76.8008
95.568
69.7143
50.9507
40.5649
31.3397
24.9572
21.0559
18.7819
17.5626
17.0743
17.1572
17.7252
18.7145
20.056
21.6093
23.141
24.2065
24.3026
23.2631
19.3703
13.2914
7.53425
3.48772
1.14108
0.118454
1.79438e-09
1.58025e-09
1.4989e-09
1.2936e-09
6.66542e-10
1.12216e-09
1.24112e-09
1.20052e-09
1.90163e-09
1.02538e-09
1.01853e-09
2.03627e-09
1.28744e-09
2.13695e-09
1.75498e-09
2.81001e-09
6.46516e-10