/*--------------------------------*- C++ -*----------------------------------*\
| =========                 |                                                 |
| \\      /  F ield         | OpenFOAM: The Open Source CFD Toolbox           |
|  \\    /   O peration     | Version:  v2012                                 |
|   \\  /    A nd           | Website:  www.openfoam.com                      |
|    \\/     M anipulation  |                                                 |
\*---------------------------------------------------------------------------*/
FoamFile
{
    version     2.0;
    format      ascii;
    class       volScalarField;
    location    "1801";
    object      Rew;
}
// * * * * * * * * * * * * * * * * * * * * * * * * * * * * * * * * * * * * * //

dimensions      [0 0 0 0 0 0 0];


internalField   nonuniform List<scalar> 
8000
(
9.34319e-15
1.14807e-14
1.64217e-13
7.30043e-18
5.04248e-14
2.27405e-13
1.73361e-14
6.79168e-17
4.18898e-13
1.06038e-16
1.06465e-14
7.61393e-14
5.14555e-13
5.47804e-13
2.21757e-12
3.93846e-18
9.35569e-14
2.10721e-13
6.72744e-13
4.54002e-13
1.10762e-12
8.03708e-15
5.21483e-17
6.47342e-13
4.13601e-13
5.58524e-13
3.40485e-12
4.66848e-12
7.77889e-18
7.0687e-14
3.17968e-13
7.61659e-13
6.85338e-13
8.38186e-13
9.55086e-13
8.34626e-12
6.06621e-15
7.15647e-18
3.91432e-13
3.11646e-13
1.68496e-12
1.02706e-12
1.17374e-12
1.28241e-12
5.40138e-12
1.05525e-17
1.06525e-13
1.19984e-13
3.82387e-13
1.03419e-12
3.15852e-12
1.44239e-12
1.57626e-12
8.48097e-16
3.39902e-12
9.1628e-15
4.96898e-17
1.47101e-13
2.35325e-13
3.17565e-12
2.32644e-12
2.23458e-15
1.93595e-12
4.07222e-12
2.92531e-16
8.3888e-12
1.00005e-17
8.04501e-14
3.35527e-16
5.79751e-13
1.56005e-12
2.85703e-12
3.26546e-12
2.37406e-12
2.50651e-12
2.56091e-12
7.73273e-12
1.01735e-11
6.90174e-15
9.87701e-14
9.42167e-16
7.10932e-13
4.80318e-13
1.17041e-12
1.34297e-12
2.29712e-15
3.07711e-12
9.45389e-12
3.16409e-12
2.47163e-15
6.07232e-12
1.69897e-14
6.07406e-14
1.36511e-13
4.37736e-13
9.23648e-16
1.44124e-12
8.21867e-13
3.59235e-12
3.78205e-12
5.81417e-12
3.88434e-12
7.67294e-12
1.12001e-11
2.43962e-16
1.56485e-14
7.46884e-14
1.68742e-13
1.24623e-15
7.25932e-13
2.65474e-12
5.10555e-15
2.19677e-12
4.65059e-12
7.14761e-12
4.7751e-12
9.07005e-15
9.18029e-12
4.40325e-12
8.39839e-12
6.01645e-14
1.83798e-13
2.06235e-13
3.30232e-13
1.978e-15
3.2604e-12
5.0406e-16
2.7179e-12
4.27725e-15
2.9162e-12
5.87408e-12
5.79806e-12
5.62194e-12
1.46281e-15
5.15425e-12
1.94526e-11
1.34243e-10
1.10943e-12
2.77247e-15
8.12935e-13
1.09284e-12
1.33031e-12
2.97418e-15
1.6651e-12
3.51416e-12
3.59769e-12
1.08111e-11
7.11595e-12
1.03764e-11
6.65575e-12
6.33097e-12
2.38967e-11
9.69022e-15
3.17777e-08
2.08018e-09
4.68029e-12
7.51961e-13
2.02109e-12
8.17236e-13
3.74699e-12
2.03328e-12
2.4817e-16
2.21384e-12
2.22965e-12
8.76098e-12
4.26971e-12
4.10338e-12
1.07773e-14
7.34989e-12
6.87575e-12
1.27827e-11
0.000195158
6.46315e-07
2.6778e-09
1.22007e-11
8.33704e-13
1.0024e-12
3.46302e-12
9.2018e-15
2.64687e-12
8.1116e-15
8.16542e-12
1.07396e-11
5.20363e-12
1.25196e-14
1.91196e-11
1.80301e-11
1.68839e-11
2.35815e-11
2.91088e-11
0.0185434
0.000188327
2.49741e-06
1.66626e-09
1.82399e-11
1.24764e-12
2.83708e-12
3.09932e-12
3.23608e-12
3.3354e-12
3.34736e-12
4.23174e-15
3.21552e-12
6.17222e-12
5.88112e-12
5.55241e-12
1.03811e-11
1.20168e-14
8.95671e-12
1.58164e-14
0.377027
3.07742
0.00204771
3.09894e-06
6.70704e-11
2.70068e-11
1.75079e-12
3.80803e-12
4.88587e-15
6.14535e-12
9.57656e-15
1.53256e-14
5.49122e-15
1.89677e-11
7.19926e-12
1.36203e-11
1.91145e-11
1.18817e-11
1.10052e-11
1.00607e-11
3.70407e-11
1.28205
17.1065
0.937455
0.00394676
2.06155e-06
2.22309e-09
3.75194e-11
1.14058e-12
1.05299e-14
1.70866e-14
4.07027e-16
4.94861e-12
1.89682e-14
9.35656e-12
8.85979e-12
8.43798e-12
7.82676e-12
5.10151e-11
4.04337e-11
1.2485e-11
7.80221e-15
2.07846e-11
2.66654
38.4882
8.90673
0.520412
0.00672663
2.90338e-06
4.21818e-09
3.97208e-11
4.54988e-12
3.07372e-14
3.07036e-12
9.20688e-12
5.94998e-12
3.66955e-14
1.63562e-11
1.17147e-14
1.92928e-11
5.37417e-11
8.26525e-12
6.10952e-11
5.5997e-11
3.835e-11
4.64757e-11
4.13579
60.028
27.8822
5.15908
0.371424
0.00782275
3.61217e-06
5.76652e-09
5.0216e-11
1.892e-14
7.60454e-12
3.77348e-12
7.3724e-12
7.03356e-12
1.82158e-14
1.88753e-11
2.36743e-11
1.10332e-11
1.01995e-11
5.61916e-11
5.15388e-11
7.84427e-11
4.29232e-11
2.59174e-11
5.67767
67.3275
60.8136
16.8663
3.62403
0.293688
0.00874386
4.25373e-06
6.59252e-09
5.27448e-11
4.66839e-12
9.19935e-15
2.44807e-14
2.04474e-14
1.64159e-11
1.55108e-11
2.90417e-11
3.38243e-14
1.24625e-11
5.76554e-11
5.2742e-11
5.78264e-11
3.50647e-11
1.59474e-11
2.8846e-11
7.28848
48.883
100.49
39.5102
11.6789
2.82798
0.244782
0.00846738
4.69696e-06
6.91334e-09
5.22279e-11
5.70547e-12
5.50057e-14
5.48827e-14
5.03537e-12
6.92226e-14
1.78071e-11
3.32297e-11
3.07077e-11
7.07115e-11
2.58432e-11
1.18699e-11
2.14364e-11
1.95713e-11
7.06827e-11
3.19499e-11
8.6811
20.2435
132.223
76.4518
27.6636
8.89884
2.35056
0.212458
0.00765639
4.97679e-06
6.99241e-09
6.21965e-11
6.74391e-12
3.0301e-14
2.48315e-11
5.84942e-12
1.98264e-14
2.04067e-11
9.42742e-12
3.46507e-11
7.97317e-11
2.91438e-11
2.92762e-14
9.28042e-14
1.34072e-14
3.90948e-11
3.53156e-11
9.38027
1.78932
135.807
125.945
56.3026
20.5929
7.31124
2.03591
0.189449
0.00653619
4.99047e-06
6.93216e-09
4.48143e-11
7.99277e-12
1.52877e-11
1.4331e-11
6.66145e-12
2.49736e-11
1.15928e-11
1.36711e-14
3.92657e-11
1.79013e-11
1.1381e-10
4.74835e-14
1.22014e-13
9.64667e-11
4.33783e-11
1.3355e-13
9.06235
2.14052
107.969
169.257
102.443
41.6754
16.6078
6.28701
1.81239
0.172689
0.00528841
4.71845e-06
6.56164e-09
2.91821e-11
1.40071e-11
7.76168e-14
8.19097e-12
7.82094e-12
2.84937e-11
1.32295e-11
1.1887e-11
1.08529e-11
5.98596e-11
1.27036e-10
6.56497e-11
5.94712e-11
5.32535e-11
4.93853e-14
4.3013e-11
7.99587
0.158981
61.0257
181.976
163.853
77.9436
32.9521
14.1
5.56783
1.64908
0.160642
0.00389797
4.17922e-06
5.88425e-09
3.15228e-11
1.63564e-11
2.00686e-11
1.87489e-11
1.75795e-11
1.59702e-11
4.43571e-11
2.6929e-11
4.90893e-11
8.9241e-11
6.05805e-11
1.61645e-13
6.53488e-11
5.90112e-11
2.61943e-11
9.44531e-11
6.39704
1.20536
19.8676
147.539
215.792
135.146
61.092
27.4796
12.3744
5.04519
1.53055
0.152799
0.00270044
3.46904e-06
5.0232e-09
4.32904e-11
1.23859e-11
1.51972e-13
3.24123e-11
1.97808e-11
9.10917e-11
1.67447e-11
1.47886e-11
1.09297e-10
2.49684e-11
4.42287e-11
2.02746e-11
3.6251e-11
9.72454e-11
5.79286e-11
1.03771e-10
4.66956
10.3563
4.74138
89.5759
219.77
210.587
108.038
49.9816
23.7911
11.1369
4.66501
1.45356
0.148934
0.00166581
2.70039e-06
4.07445e-09
2.9926e-11
1.41172e-11
1.33817e-11
1.22738e-11
4.48046e-11
1.27335e-13
1.84378e-11
1.00518e-10
4.66742e-14
2.73863e-11
4.24972e-13
1.10943e-10
1.1976e-10
7.12677e-11
6.39599e-11
1.14021e-10
3.11506
18.3171
8.14529
44.6306
171.476
269.208
179.587
87.6622
42.4898
21.191
10.2411
4.4196
1.41979
0.149662
0.00100105
1.96709e-06
3.11823e-09
4.96522e-11
7.99085e-12
1.49586e-11
1.37385e-11
1.04077e-13
2.25808e-11
8.28511e-11
2.56162e-13
5.0534e-11
8.39872e-14
2.69974e-11
2.43423e-11
4.37746e-11
7.81843e-11
3.48216e-11
1.24562e-10
1.90531
21.7881
5.5489
20.3134
101.718
254.982
268.402
147.605
73.1473
37.2695
19.3221
9.66383
4.32337
1.4311
0.153473
0.000613711
1.33785e-06
2.23804e-09
1.71997e-11
9.09693e-12
1.72294e-11
2.1073e-14
1.41184e-11
2.5681e-11
4.58763e-11
8.29169e-11
5.59469e-11
1.31374e-13
2.97069e-11
8.05334e-11
9.6069e-11
4.25056e-11
3.82173e-11
6.81798e-11
1.0683
20.6117
18.9213
1.53701
41.1393
183.07
320.364
234.915
121.848
62.923
33.5172
18.0945
9.45292
4.37399
1.47287
0.159754
0.000349423
8.46944e-07
1.5187e-09
1.16771e-11
1.33629e-14
1.84445e-11
1.28594e-13
1.53444e-11
8.48143e-11
5.1293e-11
2.27858e-11
8.22727e-11
7.39187e-11
6.62257e-11
1.18602e-10
5.25517e-11
3.48702e-13
1.2629e-10
7.46526e-11
0.548693
16.3627
9.98709
4.488
12.3551
97.1537
269.815
329.322
195.401
103.024
55.4882
30.9265
17.5935
9.58693
4.52124
1.53701
0.165188
0.00018534
4.97221e-07
9.74729e-10
3.24448e-11
3.47738e-11
2.11989e-11
1.88653e-11
5.12917e-11
6.28569e-11
2.85042e-11
1.67286e-14
2.81918e-15
8.16279e-11
7.32462e-11
3.24034e-11
1.15663e-10
5.10144e-11
9.09269e-11
8.15188e-11
0.25683
11.1148
12.8852
7.26068
8.09075
23.8991
170.373
348.704
294.075
161.174
88.7057
50.0219
29.4877
17.7382
9.92756
4.73294
1.59189
0.169012
8.98028e-05
2.69599e-07
5.85606e-10
8.38341e-12
3.36044e-13
4.69726e-11
8.48296e-11
1.92563e-11
3.4889e-11
3.08592e-11
2.76531e-11
1.00145e-10
8.94867e-11
9.5059e-13
3.53602e-11
1.09366e-13
1.12682e-10
1.99994e-10
8.90622e-11
0.109067
6.56019
30.4993
33.9362
5.05224
4.40881
72.3066
254.605
375.899
241.952
132.729
77.405
46.0827
28.9983
18.1725
10.3924
4.90907
1.62814
0.171082
3.94402e-05
1.34235e-07
3.28971e-10
2.04891e-11
4.37488e-11
2.67062e-11
2.43404e-11
4.24127e-11
1.28489e-13
1.79857e-13
1.22636e-10
8.22703e-11
9.73166e-11
3.57138e-13
7.69758e-11
1.38409e-10
1.60385e-13
2.18428e-10
4.81527e-13
0.0417263
3.40164
35.8943
52.6282
2.00248
6.16698
14.1589
133.801
340.893
337.892
191.362
108.656
68.068
43.3271
28.69
18.7737
10.7604
5.01826
1.6473
0.171972
1.55388e-05
6.10564e-08
1.41663e-10
1.40539e-12
1.55942e-11
5.7811e-13
7.86391e-11
7.16436e-11
1.22809e-13
7.80719e-13
3.39756e-11
6.04195e-11
5.28037e-11
1.9114e-10
5.65681e-13
7.58125e-11
2.00519e-10
1.78811e-10
3.16532e-10
0.0142136
1.55781
30.6757
37.8724
1.66204
7.58613
4.99148
47.36
206.614
379.746
268.855
146.859
88.0544
59.8127
40.6341
28.5817
19.1933
10.9689
5.07352
1.65518
0.171741
5.42722e-06
2.51808e-08
8.79413e-11
5.81137e-11
1.74443e-11
6.49192e-11
2.98845e-11
2.54371e-11
4.53552e-11
4.02157e-11
6.35795e-13
6.4853e-11
5.17355e-13
1.04556e-10
1.39326e-10
8.26481e-11
3.90563e-13
2.58495e-10
6.94605e-13
0.00425598
0.629815
20.5676
1.41683
17.9666
5.32568
9.57746
8.08394
85.077
288.537
345.648
198.743
110.546
70.7544
52.8974
38.3806
28.3397
19.3663
11.0646
5.09375
1.65226
0.17078
1.65621e-06
9.31747e-09
7.97376e-12
4.25264e-11
4.01048e-11
7.78481e-13
9.48923e-11
5.77587e-11
1.00546e-10
4.64978e-11
2.03595e-10
1.08051e-10
6.50873e-11
2.28295e-10
8.25018e-13
5.66511e-14
3.18516e-10
1.40104e-10
2.50076e-10
0.00110234
0.223659
11.2352
35.8343
47.0457
18.7528
16.0049
2.21588
24.7331
143.067
333.917
268.279
142.781
83.625
58.7732
46.9408
36.3969
27.9731
19.4061
11.086
5.08044
1.64222
0.169331
4.34043e-07
3.01118e-09
3.29137e-11
4.94432e-11
4.42917e-11
7.89778e-11
4.87045e-13
3.24136e-11
1.28206e-12
1.0148e-10
4.59423e-11
1.25069e-12
7.07262e-11
6.32162e-11
1.66292e-12
9.64376e-11
1.12264e-13
3.08172e-10
3.92642e-13
0.000242275
0.0690976
5.12874
48.0169
63.2603
8.42049
9.1136
7.4604
7.49694
47.3797
207.831
314.237
193.304
103.519
65.095
49.9175
42.5802
34.8502
27.6475
19.3414
11.0385
5.04528
1.62741
0.167529
9.53237e-08
8.74728e-10
6.88144e-11
2.93647e-11
4.76239e-11
4.52279e-11
6.54927e-14
5.18253e-14
1.22035e-10
1.53612e-12
1.92318e-10
2.1511e-10
7.66159e-11
6.8433e-11
6.11857e-11
3.19718e-10
2.84188e-10
1.33744e-12
1.47075e-10
4.41276e-05
0.0182781
1.98166
39.5776
41.2134
8.16508
4.02728
11.0455
0.851569
9.25317
81.7676
255.351
253.386
137.67
77.3504
55.291
44.289
39.6463
33.7095
27.2711
19.1958
10.9472
4.99528
1.6096
0.165568
1.70815e-08
2.67913e-10
4.02612e-11
4.59531e-12
2.50929e-11
4.37903e-11
4.22027e-11
1.11606e-10
8.71127e-13
1.1863e-10
1.03472e-10
4.34592e-11
1.64437e-10
7.43797e-11
1.95783e-10
3.46601e-10
1.01829e-10
8.90413e-11
1.59155e-10
6.47019e-06
0.00405821
0.649185
23.6498
12.3868
32.0934
19.4242
12.3664
3.59578
2.9533
21.123
126.995
260.015
189.002
100.238
64.2589
49.1816
40.7849
37.5538
32.7365
26.9038
18.997
10.8255
4.93716
1.59032
0.163663
2.26495e-09
7.87393e-11
2.90628e-11
1.11982e-12
1.88792e-12
1.5982e-12
9.54857e-11
8.48611e-11
7.32771e-11
1.94401e-10
5.7196e-11
2.029e-10
8.97449e-11
1.97734e-12
1.2055e-12
1.25265e-10
6.1672e-13
1.0188e-10
3.47564e-10
7.38158e-07
0.000737308
0.179031
10.9223
53.1139
64.8612
24.4854
8.64749
3.21979
1.69918
4.29252
38.5858
170.144
230.107
138.648
76.5415
56.5165
44.6788
38.4062
36.0191
31.9685
26.5243
18.761
10.6893
4.87473
1.57151
0.161732
2.01772e-10
5.00396e-11
5.63169e-12
7.08055e-11
1.56293e-12
6.13783e-11
5.12072e-11
4.28656e-11
2.4054e-10
2.13921e-10
2.51654e-10
5.26083e-11
1.95712e-10
8.4891e-11
7.71677e-11
1.35102e-10
2.40827e-10
1.05925e-10
1.89033e-10
6.16405e-08
0.000106249
0.0409435
4.03518
56.3172
66.9187
8.14833
4.63958
3.15155
0.992319
0.207709
8.04864
63.7166
194.827
186.182
102.939
65.5603
50.5883
41.334
36.6165
34.8688
31.2849
26.1392
18.5103
10.5449
4.81369
1.55232
0.159676
2.39582e-10
8.31784e-12
1.68977e-10
6.17229e-13
1.01577e-10
1.21315e-10
1.1012e-10
9.51018e-11
1.75457e-10
7.64064e-11
3.2538e-12
5.41884e-14
7.0551e-13
9.34201e-11
2.54008e-10
3.00842e-10
1.30391e-10
2.335e-10
2.07382e-10
4.3386e-09
1.16872e-05
0.00757425
1.20647
36.5403
11.1812
20.6337
17.536
10.9273
2.9789
1.80428
1.0367
12.4247
98.0135
196.194
143.599
79.8881
57.7508
45.9343
38.7338
35.2384
33.9328
30.6605
25.7588
18.2505
10.404
4.75139
1.53215
0.157641
2.59402e-10
1.03944e-10
9.90899e-12
8.08094e-11
1.52702e-10
6.5398e-11
1.79562e-10
5.72156e-11
2.83483e-10
8.51327e-11
7.18732e-11
1.33672e-10
1.84567e-12
1.01512e-12
3.61782e-10
2.27188e-12
1.44621e-10
1.75876e-12
2.20903e-10
4.1792e-10
9.42187e-07
0.00109829
0.291251
16.7909
54.6086
63.0072
40.5933
12.1342
3.43941
1.69197
2.01707
3.09975
26.3673
127.922
176.839
109.566
67.1817
51.8677
42.1808
36.7159
34.2049
33.1379
30.0863
25.3796
17.9982
10.2609
4.68673
1.51221
0.155643
2.68679e-10
6.33445e-11
1.69324e-10
9.59898e-11
8.47151e-11
1.51108e-10
1.33815e-10
2.94387e-10
1.09269e-10
2.31767e-13
7.82373e-11
7.43725e-11
1.75665e-12
4.47065e-10
9.9744e-11
1.74785e-10
1.53803e-10
4.07906e-10
2.41204e-10
1.21508e-09
5.50924e-08
0.000119978
0.0558408
5.8009
70.6804
83.5004
10.9102
9.91259
0.533645
6.072
0.120081
1.63986
0.369395
47.5751
149.478
146.622
85.8256
59.2274
46.8959
39.2214
35.1158
33.3745
32.437
29.5352
25.0152
17.7463
10.1145
4.623
1.49261
0.15371
1.24539e-10
6.39357e-11
1.05486e-10
3.97585e-12
4.41645e-12
7.73451e-11
2.87804e-10
1.9442e-10
3.27484e-12
5.19892e-12
2.71299e-12
7.67442e-11
1.44119e-10
2.4648e-10
3.22295e-10
3.83313e-10
3.34084e-10
1.98893e-12
2.60308e-10
3.32297e-10
5.8012e-09
9.4277e-06
0.00825773
1.54085
46.9814
24.1306
15.4865
19.001
14.1097
8.0275
4.63757
2.20469
0.174157
10.0443
70.9633
154.181
117.114
69.5897
52.9825
42.9029
36.8384
33.8072
32.6548
31.779
29.0127
24.6636
17.4943
9.97096
4.56029
1.4736
0.151767
3.22538e-11
1.08405e-10
2.79296e-12
1.09594e-12
1.45631e-10
2.64663e-10
1.56362e-10
7.51531e-11
1.2285e-10
2.18816e-10
9.8904e-11
2.56996e-10
1.45229e-10
2.66216e-10
1.07246e-12
2.06483e-10
2.53243e-12
1.62569e-10
2.85832e-10
5.66599e-11
2.23284e-09
5.18207e-07
0.0009057
0.314562
20.449
59.8961
71.0501
46.4403
14.5759
3.51033
8.1691
2.325
2.15352
3.71984
19.4379
100.023
142.716
92.8798
61.0048
48.0614
39.6073
34.8806
32.7195
31.9834
31.1554
28.5265
24.3366
17.2497
9.82996
4.49961
1.45457
0.149876
3.20414e-10
5.33901e-11
6.58624e-11
6.19036e-11
2.17683e-10
9.28992e-11
9.04176e-11
7.567e-11
2.72763e-12
2.21697e-12
2.06125e-10
3.70244e-10
1.59507e-10
2.81603e-10
1.29006e-10
4.09638e-12
5.87322e-10
1.75702e-10
6.07934e-10
2.59141e-10
1.86006e-09
3.87787e-08
7.01898e-05
0.0483913
6.32323
81.3498
95.1118
11.7004
15.695
1.56577
8.40037
6.56287
0.476344
2.62308
3.51392
35.1622
122.368
122.05
75.4177
54.639
43.7957
36.8714
33.2759
31.7664
31.3393
30.5724
28.1437
24.025
17.0109
9.69387
4.43906
1.43615
0.148113
1.68546e-10
8.60073e-11
1.48824e-10
1.99469e-10
1.79022e-10
2.95523e-12
8.92022e-11
1.60063e-10
3.15869e-12
1.38551e-10
1.11042e-10
5.30258e-12
1.81166e-10
3.45201e-12
4.10913e-10
4.85553e-10
4.29938e-10
1.91004e-10
1.86087e-12
2.70905e-10
2.20194e-09
7.5646e-09
3.6091e-06
0.00541155
1.42657
50.9269
17.1917
22.0844
19.9515
19.7564
8.16157
8.08677
4.64494
0.121161
2.51315
5.90156
60.9657
129.665
100.323
63.3761
49.4586
40.1902
34.621
31.9159
30.9045
30.7277
30.0593
27.7886
23.7264
16.7811
9.55875
4.38078
1.41891
0.14638
1.20526e-10
1.94901e-11
2.40345e-10
7.69992e-11
5.89478e-11
1.15704e-10
7.45855e-12
7.64343e-12
1.50167e-12
2.79493e-10
5.48622e-12
1.15734e-10
1.85133e-10
5.05592e-10
6.08118e-10
2.59984e-10
2.26093e-10
2.08721e-10
5.42983e-12
1.47872e-10
2.96532e-09
1.61154e-08
1.85753e-07
0.000419259
0.234121
19.725
77.4369
85.9039
59.5936
19.2755
2.02732
8.69289
6.3964
3.75968
0.371104
2.05354
15.537
89.2372
122.082
81.9909
56.6949
45.0531
37.1622
32.7338
30.7319
30.1171
30.1637
29.5878
27.4579
23.4408
16.5545
9.42918
4.32606
1.40196
0.144716
1.49715e-10
3.12261e-10
1.77059e-10
2.29688e-12
1.21446e-11
1.30498e-10
1.25292e-10
1.25877e-12
1.76252e-10
1.46371e-10
1.00018e-11
2.36151e-10
7.38138e-12
3.70274e-10
1.44416e-11
2.79289e-10
5.18753e-10
6.36252e-13
6.6273e-12
1.26162e-09
1.27139e-09
1.89074e-08
2.9371e-09
2.10289e-05
0.0272187
5.16854
88.5172
96.5735
21.1517
14.6403
5.18282
8.3525
6.8394
6.22021
4.56531
1.2531
0.265546
34.1509
110.182
106.264
68.2892
51.2454
41.2036
34.6059
31.1235
29.6829
29.4109
29.6419
29.1534
27.1464
23.163
16.3372
9.30725
4.27231
1.38573
0.143108
4.20149e-10
2.03661e-10
5.38673e-12
7.37733e-11
8.62172e-11
1.32226e-10
1.19138e-10
4.18558e-10
1.76788e-10
1.60784e-10
7.08365e-12
1.02311e-11
2.09122e-10
1.97983e-10
5.12509e-10
1.09751e-12
1.02171e-12
2.3539e-10
8.49516e-10
1.62039e-09
1.27053e-09
1.22967e-08
1.70804e-08
5.90832e-07
0.0021431
0.937307
47.1543
7.50074
45.233
25.8947
26.9589
7.02985
7.59852
6.38007
4.89384
2.70462
1.02202
4.94054
60.9841
116.458
89.0017
59.1291
46.6922
37.8699
32.438
29.7259
28.766
28.7756
29.1608
28.7494
26.8506
22.8963
16.1322
9.18773
4.22105
1.37003
0.141529
1.42782e-11
9.4322e-11
1.15909e-10
7.22894e-11
2.71403e-10
1.27259e-11
1.1289e-10
2.44652e-10
1.75317e-11
1.56365e-10
1.53351e-11
4.11957e-10
4.05076e-12
2.1079e-10
3.59038e-10
3.41145e-10
8.84989e-10
2.67973e-10
1.24649e-11
3.48596e-10
8.88386e-10
7.73495e-10
1.1158e-08
3.36672e-07
0.000107587
0.116298
15.1201
96.2389
101.374
61.7603
25.4941
1.07758
7.90188
6.0195
4.9332
7.88057
2.04616
0.941755
17.265
88.0764
109.306
74.2491
53.4129
42.6204
35.0118
30.5765
28.5232
27.9601
28.2031
28.7147
28.3709
26.5678
22.6438
15.9321
9.07407
4.17141
1.35465
0.140023
1.52212e-10
3.22047e-11
1.79155e-12
3.19078e-10
1.01859e-10
4.77048e-10
2.1465e-11
2.56335e-10
4.28885e-10
3.57304e-12
1.65975e-11
4.4517e-10
2.54903e-10
2.14432e-10
1.9911e-10
3.57293e-10
3.17942e-10
7.35183e-14
4.76875e-10
1.48634e-10
6.5552e-10
6.68522e-09
2.00327e-08
4.55092e-07
3.60411e-06
0.00951015
3.14468
82.737
65.9703
32.7801
0.746561
14.0092
7.48448
6.26421
5.9728
8.34899
5.42186
2.06552
0.452283
38.9275
105.513
95.393
62.9025
48.587
39.0428
32.5431
28.9863
27.4815
27.2475
27.6856
28.2995
28.0119
26.3003
22.4005
15.7417
8.96402
4.12292
1.33998
0.138552
2.73622e-11
5.28661e-11
3.57016e-10
1.17193e-10
4.1176e-10
1.54174e-10
6.64529e-12
4.22681e-10
5.38015e-12
5.92138e-12
8.09255e-12
4.13437e-13
2.5041e-10
7.50526e-10
8.71185e-10
7.23688e-13
6.88302e-10
1.21738e-09
1.70665e-12
3.88312e-10
5.65213e-10
5.23906e-09
4.47746e-08
1.87733e-07
8.00748e-07
0.000492101
0.42812
34.6704
58.0454
77.9384
48.051
26.5812
2.88881
7.32955
4.74825
5.59399
6.40054
5.88426
0.769815
7.7774
66.2806
108.398
80.662
55.853
44.4543
35.8462
30.4287
27.6211
26.5714
26.616
27.2146
27.9066
27.6726
26.0484
22.1679
15.5576
8.85684
4.07673
1.32564
0.137115
1.52262e-10
4.23304e-10
3.12432e-12
3.62482e-10
2.02774e-10
3.77006e-10
1.31204e-11
1.41888e-10
6.3448e-12
2.4024e-10
1.74308e-10
5.23836e-10
6.36636e-10
2.78142e-10
7.36195e-10
4.40292e-10
3.70549e-10
8.83538e-13
1.25479e-11
1.10688e-09
2.39882e-09
3.58414e-09
4.66183e-08
1.379e-07
9.02122e-07
1.88698e-05
0.0372103
8.61669
106.723
107.25
43.0277
30.6095
4.01851
7.25201
4.70855
5.34893
6.00702
7.43388
4.59893
0.197048
23.4207
90.5298
100.164
68.3153
50.7861
40.5398
33.0721
28.6201
26.4385
25.7754
26.0519
26.7779
27.5339
27.3572
25.8077
21.9443
15.3787
8.75485
4.03162
1.31167
0.135737
5.33262e-10
1.02273e-10
4.60132e-10
6.21421e-12
5.57252e-12
1.85006e-10
2.63069e-12
3.28163e-11
2.88745e-10
2.11827e-11
4.42102e-10
5.92507e-10
6.70436e-10
2.8129e-10
3.49777e-12
1.67768e-11
5.88637e-12
1.05992e-09
6.21303e-10
6.91629e-10
2.73414e-09
7.47785e-09
2.11091e-08
8.46938e-08
2.72865e-07
4.47435e-06
0.0019904
1.32875
62.2552
4.36677
49.4461
28.1235
27.2932
7.15044
5.53744
3.30272
6.5482
6.83872
7.61063
3.02472
4.07354
47.0265
103.203
87.2214
58.5634
46.3372
37.0679
30.6828
27.0627
25.4141
25.0745
25.5392
26.3684
27.1889
27.0585
25.5793
21.7281
15.2083
8.65531
3.98772
1.29826
0.134373
7.8622e-11
2.29035e-10
2.42339e-11
4.15242e-10
2.05954e-10
1.58183e-11
3.72138e-10
4.96071e-10
2.7483e-10
2.6261e-10
1.29005e-11
2.41537e-11
3.5255e-10
3.17674e-10
8.36324e-10
4.95817e-10
4.43333e-10
1.96323e-12
6.58657e-10
2.17802e-10
1.84177e-09
6.74466e-09
3.70087e-09
3.5378e-08
1.06191e-07
2.52719e-06
8.75059e-05
0.125778
18.944
115.692
112.382
88.9102
25.6793
0.295524
6.83149
1.70608
6.7138
5.29753
7.99295
6.75754
2.50181
13.7777
73.7074
102.475
74.1346
53.0758
42.3516
33.9898
28.6228
25.7234
24.5219
24.4481
25.0651
25.9923
26.864
26.7773
25.3619
21.5217
15.0423
8.55861
3.94557
1.28499
0.133068
8.48225e-11
2.08723e-10
1.59499e-10
2.98746e-10
2.67067e-11
8.01803e-12
4.26291e-10
1.83257e-10
3.55904e-10
2.92464e-10
1.67467e-11
2.44305e-10
3.67098e-10
6.86066e-10
3.19148e-10
5.29103e-10
2.22989e-11
2.05485e-11
7.26952e-10
3.68043e-10
2.1623e-09
6.95517e-09
6.67187e-09
4.32869e-08
1.08051e-07
1.80763e-06
1.09923e-05
0.00701823
3.36778
98.6739
74.323
47.1179
9.03551
12.6463
8.1538
1.7472
5.78972
3.90545
7.40509
7.93281
5.84522
3.40865
32.0599
93.9313
92.9838
63.3808
48.4589
38.6201
31.2969
26.8554
24.5679
23.7368
23.8783
24.633
25.6431
26.5593
26.5134
25.1549
21.3222
14.8813
8.46581
3.90396
1.27234
0.131845
2.96385e-10
3.57526e-10
2.24198e-10
2.74081e-10
4.30804e-10
3.14224e-10
4.53871e-10
2.5935e-10
3.79602e-10
3.12468e-10
2.57595e-10
2.37688e-10
8.59255e-10
4.12272e-10
1.19067e-11
6.01045e-10
5.01373e-10
4.20106e-10
7.85585e-10
2.63636e-10
1.51873e-09
1.09174e-08
4.79162e-09
7.85417e-08
1.11058e-07
7.12977e-07
3.38045e-06
0.00022013
0.352723
37.3206
75.1893
93.2976
55.1657
32.2733
6.13066
5.36273
3.3642
3.12324
6.61659
7.42849
7.92818
4.38379
8.68669
56.9877
101.408
80.4431
55.5657
44.3493
35.2359
28.9695
25.3402
23.5645
23.034
23.3634
24.2372
25.3182
26.2757
26.2649
24.9589
21.1293
14.7267
8.37438
3.86437
1.26045
0.130633
2.7747e-10
1.48988e-10
4.20921e-11
1.81599e-10
5.09139e-10
2.60645e-10
5.74585e-12
6.08001e-10
3.93849e-10
6.83302e-10
2.94033e-11
2.66789e-10
4.53649e-10
4.09412e-10
6.97175e-10
6.07059e-10
5.44379e-10
5.10976e-10
9.00448e-10
3.74937e-10
1.48622e-09
9.47021e-09
2.62017e-08
6.76346e-08
2.30812e-07
3.47674e-07
1.0376e-07
3.6549e-05
0.0208791
7.69529
120.204
93.5975
61.6294
37.8948
4.82564
10.2237
2.31039
3.78186
5.21778
7.08411
7.20226
7.46704
4.25909
21.4183
81.4437
97.1287
68.7266
50.7525
40.4145
32.2427
26.9724
24.0366
22.68
22.4051
22.8977
23.8722
25.0181
26.0109
26.0337
24.7722
20.9442
14.5747
8.28753
3.82713
1.24866
0.129447
8.74288e-11
9.01732e-12
1.87767e-10
3.6672e-10
1.88283e-10
5.89513e-10
5.4375e-10
4.73109e-10
3.87888e-11
4.39194e-13
9.06429e-10
1.3441e-11
2.75129e-11
4.02978e-10
2.4274e-11
1.19631e-11
5.89391e-10
5.65563e-10
8.92733e-10
1.22597e-10
6.99371e-10
6.80439e-09
2.28806e-08
7.55608e-08
3.4424e-07
6.54155e-08
1.44595e-06
1.46347e-05
0.000524247
0.898664
59.9144
42.3127
77.071
37.4516
37.3122
8.30994
5.48943
5.84238
2.99565
6.69482
5.86095
8.2578
6.56054
6.59163
42.257
96.5161
86.5803
59.1685
46.4167
36.7956
29.6312
25.2597
22.9024
21.8969
21.8434
22.4727
23.5374
24.7416
25.7687
25.8185
24.5944
20.7634
14.43
8.20568
3.79022
1.23717
0.128304
6.81445e-11
3.84048e-10
4.71515e-10
6.54122e-12
4.84384e-13
2.96563e-11
3.25047e-10
1.76992e-11
2.84153e-12
1.0969e-09
7.50047e-10
9.62992e-10
1.21074e-10
9.74868e-10
1.26915e-09
7.52376e-10
5.397e-11
1.16604e-09
3.60435e-11
4.43455e-11
7.12595e-10
2.09437e-09
1.35844e-08
7.75654e-08
4.21873e-07
7.2784e-07
2.63355e-06
6.89801e-06
5.2042e-05
0.05784
14.6428
138.237
125.285
111.27
33.0024
2.85622
5.30037
8.07774
3.28032
5.33707
4.83712
7.17824
7.9206
5.04236
14.7286
67.3106
98.9581
74.5584
53.15
42.4744
33.4831
27.377
23.7834
21.9092
21.2057
21.3365
22.0857
23.233
24.4933
25.552
25.6162
24.4238
20.5898
14.2932
8.12466
3.75432
1.22607
0.127159
2.00764e-10
1.97454e-10
1.22836e-11
4.98801e-10
1.94212e-10
2.47717e-11
2.66755e-10
8.08927e-11
4.64518e-10
9.98338e-11
3.97999e-10
5.33573e-10
1.90823e-11
5.38432e-10
4.59103e-11
1.57285e-11
7.51712e-10
1.23911e-09
1.10937e-09
6.04341e-11
2.54764e-10
6.83257e-10
9.8912e-09
5.42147e-08
3.40231e-07
8.29539e-07
3.03002e-06
4.35363e-06
5.85299e-05
0.00210125
1.92974
89.1439
18.4511
83.8585
10.0403
22.2965
6.21262
6.09856
5.70062
5.01374
3.76006
5.73876
7.07816
7.37939
6.16473
30.369
88.1741
91.9096
64.0249
48.6277
38.5498
30.5652
25.4392
22.5034
21.0426
20.589
20.8783
21.737
22.9608
24.2871
25.35
25.4255
24.2584
20.4247
14.1582
8.04603
3.71964
1.21496
0.126037
3.48131e-10
1.13518e-10
6.43132e-10
5.49279e-10
6.15955e-13
4.18992e-10
2.52006e-10
5.75043e-10
7.95645e-12
3.88433e-10
9.65895e-11
3.019e-10
6.40982e-10
5.87961e-10
1.16169e-10
8.83892e-10
6.78394e-11
7.13643e-10
1.08204e-09
6.08085e-10
2.56112e-13
1.17207e-09
9.22292e-09
9.20892e-09
1.40456e-07
6.11664e-07
3.49341e-06
1.08405e-05
7.85151e-06
5.50728e-05
0.136258
25.5606
124.947
120.397
82.9654
35.8939
1.29524
3.59691
7.79951
5.7468
4.28566
4.65134
6.08422
7.41353
5.87616
10.5094
53.3511
97.7957
80.6981
55.5317
44.466
34.9667
28.0331
23.7698
21.3982
20.2783
20.0363
20.467
21.4261
22.7212
24.095
25.1619
25.2408
24.1004
20.2632
14.0271
7.97006
3.68498
1.2041
0.124936
6.9246e-11
2.31984e-10
6.05021e-10
7.23497e-11
3.3167e-11
3.72928e-11
1.11404e-09
2.08621e-10
3.82662e-11
3.96083e-10
4.67365e-10
7.99154e-10
1.20172e-09
8.55708e-11
4.38845e-11
9.48507e-10
9.11514e-10
7.06253e-10
1.16712e-09
1.92515e-10
8.13587e-10
4.87301e-10
5.53341e-09
2.76024e-08
5.90666e-08
3.34884e-07
3.09764e-06
1.3043e-05
1.33187e-05
6.79946e-05
0.00568826
3.78204
114.474
44.5766
98.0523
27.3433
15.4406
6.40234
6.6423
3.14471
7.00305
4.39371
5.32114
6.22753
7.456
6.37027
21.7063
77.1994
95.7416
69.242
50.8382
40.4922
31.7505
25.8475
22.3397
20.4348
19.6001
19.5417
20.0999
21.1464
22.5017
23.9169
24.9794
25.0641
23.9493
20.1061
13.9003
7.89423
3.65114
1.19343
0.123826
2.50438e-10
4.87335e-10
8.70479e-10
3.24594e-10
1.60188e-10
5.22344e-10
7.36914e-10
3.4772e-12
6.18963e-11
5.51776e-10
7.97773e-11
2.30825e-09
7.19677e-10
7.97734e-12
5.47532e-10
5.64697e-11
1.19903e-10
1.48502e-09
1.1087e-09
2.42686e-10
5.47797e-11
4.62414e-10
1.55885e-09
1.1733e-08
6.60236e-08
4.56482e-07
8.44341e-07
7.98454e-06
2.1445e-05
8.34976e-05
0.000489821
0.290218
39.3128
109.268
125.337
68.4554
37.9995
0.365681
6.68661
1.43551
7.66033
5.88799
4.4889
5.17641
6.72752
7.10287
8.32119
40.8018
93.292
86.5457
59.6728
46.5753
36.6903
28.9219
23.9781
21.1057
19.5891
18.9968
19.0995
19.7693
20.8918
22.3011
23.7438
24.804
24.8988
23.8024
19.9538
13.7741
7.82033
3.6179
1.18267
0.122739
1.10153e-11
8.94429e-10
3.45371e-10
4.81587e-10
3.37802e-10
5.11919e-10
3.85231e-10
4.09541e-10
3.25433e-11
5.67928e-10
2.13219e-09
5.12408e-10
8.54947e-10
7.91208e-10
2.02488e-09
4.43747e-11
1.93549e-10
2.54068e-09
5.99175e-11
2.63749e-10
2.25595e-10
1.39044e-10
2.83421e-10
6.46498e-09
2.85366e-08
3.41829e-07
1.01971e-06
2.69055e-06
1.30485e-05
9.27525e-05
6.10642e-05
0.0120188
6.57488
134.235
88.5985
109.69
44.2489
7.47798
4.35207
5.74557
4.94491
7.99747
4.85778
4.54173
5.29818
7.00083
6.0332
15.6931
64.728
97.3569
75.0232
53.1975
42.6137
33.1692
26.476
22.3752
20.0346
18.8439
18.4587
18.7026
19.4693
20.6608
22.1107
23.5761
24.6425
24.7399
23.6606
19.803
13.6509
7.74774
3.58443
1.17216
0.121678
6.54429e-10
5.58479e-10
1.4014e-09
7.03566e-10
3.47443e-10
2.42115e-11
3.06932e-10
9.69593e-12
1.94572e-10
1.95862e-09
1.29756e-09
1.34425e-09
1.77421e-09
5.95076e-10
1.92508e-09
2.34548e-09
1.9191e-10
1.81576e-10
1.5382e-09
5.8749e-10
1.43022e-10
5.75726e-10
3.71743e-10
3.99026e-09
1.74265e-08
1.10131e-07
5.33567e-07
2.9883e-06
9.21089e-06
7.29493e-05
0.000216919
0.000214322
0.550176
54.5203
96.6281
132.24
60.4702
46.1611
3.88452
8.81758
2.61959
8.43409
6.86229
5.79864
4.40396
5.80584
6.88553
7.1016
30.2082
85.6121
91.5689
64.4818
48.7898
38.5718
30.0289
24.378
20.9981
19.1016
18.1834
17.9783
18.3439
19.198
20.4452
21.9285
23.4227
24.4887
24.5878
23.5227
19.6555
13.5302
7.67478
3.55177
1.1619
0.120608
5.12096e-10
6.1653e-10
1.24806e-09
4.68783e-10
2.05776e-10
1.05476e-09
4.67206e-10
1.21528e-10
2.28747e-09
4.90944e-11
1.18012e-09
1.48442e-09
4.52898e-11
1.70117e-09
8.99417e-10
1.27776e-09
1.02414e-09
9.28123e-11
1.27486e-11
2.21606e-11
5.93606e-10
2.26768e-10
2.96638e-10
2.22865e-09
1.14516e-08
3.04807e-08
2.19364e-07
2.14155e-06
1.49827e-05
1.65975e-05
0.000181997
0.00073971
0.0210503
10.1994
152.775
98.5991
125.533
49.4682
13.5246
9.25815
2.89252
7.51199
6.91958
7.25507
5.47711
4.7939
6.32036
5.38511
11.2533
52.1086
96.1889
80.9952
55.7321
44.6227
34.7741
27.2993
22.5857
19.8124
18.2822
17.5981
17.5461
18.0202
18.9482
20.2413
21.7629
23.278
24.3425
24.4432
23.3876
19.5122
13.4093
7.60369
3.51987
1.15154
0.119525
3.64531e-10
3.7697e-10
3.84786e-10
3.85849e-10
4.18094e-11
1.26266e-09
5.47058e-10
1.46766e-09
1.4744e-09
1.43286e-09
1.81417e-10
5.0495e-11
1.08992e-09
9.61739e-10
1.48265e-09
2.81977e-09
1.21759e-09
9.93783e-10
1.67878e-09
1.6371e-09
2.8621e-10
7.82342e-10
3.71153e-10
3.57567e-10
4.46959e-09
1.59521e-08
2.57012e-07
8.27776e-07
7.12338e-06
1.86575e-05
6.52221e-05
9.33079e-05
7.86663e-05
0.931972
72.3418
78.3973
115.167
58.0823
53.442
7.56087
7.11704
4.92207
4.27471
6.04497
6.73174
5.08593
5.09602
6.4095
6.30981
22.0919
75.4586
95.2266
69.6419
50.9337
40.5607
31.3386
24.9575
21.0563
18.7822
17.5628
17.0744
17.1573
17.7253
18.7145
20.056
21.6094
23.141
24.2065
24.3026
23.2631
19.3703
13.2914
7.53425
3.48772
1.14108
0.118454
1.72893e-10
3.9445e-11
3.90643e-10
4.43159e-10
2.65801e-10
7.99892e-10
1.2787e-09
3.03173e-10
1.81811e-09