/*--------------------------------*- C++ -*----------------------------------*\
| =========                 |                                                 |
| \\      /  F ield         | OpenFOAM: The Open Source CFD Toolbox           |
|  \\    /   O peration     | Version:  v2012                                 |
|   \\  /    A nd           | Website:  www.openfoam.com                      |
|    \\/     M anipulation  |                                                 |
\*---------------------------------------------------------------------------*/
FoamFile
{
    version     2.0;
    format      ascii;
    class       volScalarField;
    location    "1801";
    object      rho;
}
// * * * * * * * * * * * * * * * * * * * * * * * * * * * * * * * * * * * * * //

dimensions      [1 -3 0 0 0 0 0];


internalField   nonuniform List<scalar> 
8000
(
0.0386129
0.0386129
0.0386129
0.0386129
0.0386129
0.0386129
0.0386129
0.0386129
0.0386129
0.0386129
0.0386129
0.0386129
0.0386129
0.0386129
0.0386129
0.0386129
0.0386129
0.0386129
0.0386129
0.0386129
0.0386129
0.0386129
0.0386129
0.0386129
0.0386129
0.0386129
0.0386129
0.0386129
0.0386129
0.0386129
0.0386129
0.0386129
0.0386129
0.0386129
0.0386129
0.0386129
0.0386129
0.0386129
0.0386129
0.0386129
0.0386129
0.0386129
0.0386129
0.0386129
0.0386129
0.0386129
0.0386129
0.0386129
0.0386129
0.0386129
0.0386129
0.0386129
0.0386129
0.0386129
0.0386129
0.0386129
0.0386129
0.0386129
0.0386129
0.0386129
0.0386129
0.0386129
0.0386129
0.0386129
0.0386129
0.0386129
0.0386129
0.0386129
0.0386129
0.0386129
0.0386129
0.0386129
0.0386129
0.0386129
0.0386129
0.0386129
0.0386129
0.0386129
0.0386129
0.0386129
0.0386129
0.0386129
0.0386129
0.0386129
0.0386129
0.0386129
0.0386129
0.0386129
0.0386129
0.0386129
0.0386129
0.0386129
0.0386129
0.0386129
0.0386129
0.0386129
0.0386129
0.0386129
0.0386129
0.0386129
0.0386129
0.0386129
0.0386129
0.0386129
0.0386129
0.0386129
0.0386129
0.0386129
0.0386129
0.0386129
0.0386129
0.0386129
0.0386129
0.0386129
0.0386129
0.0386129
0.0386129
0.0386129
0.0386129
0.0386129
0.0386129
0.0386129
0.0386129
0.0386129
0.0386129
0.0386129
0.0386129
0.0386129
0.0386129
0.0386129
0.0386129
0.0386129
0.0386129
0.0386129
0.0386129
0.0386129
0.0386129
0.0386129
0.0386129
0.0386129
0.0386129
0.0386129
0.0386129
0.0386129
0.0386129
0.0386129
0.0386129
0.0386129
0.0386129
0.0386129
0.0386129
0.0386129
0.0386129
0.0386129
0.0386129
0.0386129
0.0386129
0.0386129
0.0386129
0.0386129
0.0386129
0.0386129
0.0386129
0.0386129
0.0386129
0.0386129
0.0386129
0.0386129
0.0386129
0.0386129
0.0386129
0.0386129
0.0386129
0.0386129
0.0386129
0.0386129
0.0386129
0.0386129
0.0386129
0.0386129
0.0386129
0.0386129
0.0386129
0.0386129
0.0386129
0.0386129
0.0386129
0.0386129
0.0386129
0.0386129
0.0384998
0.0386129
0.0386129
0.0386129
0.0386129
0.0386129
0.0386129
0.0386129
0.0386129
0.0386129
0.0386129
0.0386129
0.0386129
0.0386129
0.0386129
0.0386129
0.0386129
0.0386129
0.0386129
0.0386129
0.0386456
0.0179076
0.038613
0.0386129
0.0386129
0.0386129
0.0386129
0.0386129
0.0386129
0.0386129
0.0386129
0.0386129
0.0386129
0.0386129
0.0386129
0.0386129
0.0386129
0.0386129
0.0386129
0.0386129
0.0386129
0.0386291
0.0239321
0.0134503
0.038613
0.0386129
0.0386129
0.0386129
0.0386129
0.0386129
0.0386129
0.0386129
0.0386129
0.0386129
0.0386129
0.0386129
0.0386129
0.0386129
0.0386129
0.0386129
0.0386129
0.0386129
0.0386129
0.0386377
0.0316318
0.014866
0.0117257
0.0386129
0.0386129
0.0386129
0.0386129
0.0386129
0.0386129
0.0386129
0.0386129
0.0386129
0.0386129
0.0386129
0.0386129
0.0386129
0.0386129
0.0386129
0.0386129
0.0386129
0.0386129
0.0386129
0.0386287
0.038401
0.0180996
0.0121836
0.0111619
0.0386129
0.0386129
0.0386129
0.0386129
0.0386129
0.0386129
0.0386129
0.0386129
0.0386129
0.0386129
0.0386129
0.0386129
0.0386129
0.0386129
0.0386129
0.0386129
0.0386129
0.0386129
0.0386129
0.0386269
0.0449146
0.0237069
0.0133076
0.0114035
0.0106546
0.0386129
0.0386129
0.0386129
0.0386129
0.0386129
0.0386129
0.0386129
0.0386129
0.0386129
0.0386129
0.0386129
0.0386129
0.0386129
0.0386129
0.0386129
0.0386129
0.0386129
0.0386129
0.0386129
0.0386223
0.0480498
0.0307449
0.0155468
0.0119736
0.0108111
0.0103589
0.0386129
0.0386129
0.0386129
0.0386129
0.0386129
0.0386129
0.0386129
0.0386129
0.0386129
0.0386129
0.0386129
0.0386129
0.0386129
0.0386129
0.0386129
0.0386129
0.0386129
0.0386129
0.0386129
0.0386195
0.047713
0.0383585
0.0194454
0.0130664
0.0111717
0.0104703
0.0101634
0.0386129
0.0386129
0.0386129
0.0386129
0.0386129
0.0386129
0.0386129
0.0386129
0.0386129
0.0386129
0.0386129
0.0386129
0.0386129
0.0386129
0.0386129
0.0386129
0.0386129
0.0386129
0.0386129
0.0386171
0.0459008
0.044354
0.0254096
0.0150249
0.011833
0.0107255
0.0102488
0.0100151
0.0386129
0.0386129
0.0386129
0.0386129
0.0386129
0.0386129
0.0386129
0.0386129
0.0386129
0.0386129
0.0386129
0.0386129
0.0386129
0.0386129
0.0386129
0.0386129
0.0386129
0.0386129
0.0386129
0.0386154
0.0437216
0.0488982
0.0327964
0.018392
0.0129725
0.0111846
0.0104435
0.0100838
0.00989922
0.0386129
0.0386129
0.0386129
0.0386129
0.0386129
0.0386129
0.0386129
0.0386129
0.0386129
0.0386129
0.0386129
0.0386129
0.0386129
0.0386129
0.0386129
0.0386129
0.0386129
0.0386129
0.0386129
0.0386145
0.0421009
0.0510465
0.0403137
0.0236244
0.0149179
0.0119507
0.0107896
0.0102402
0.00995691
0.00978488
0.0386129
0.0386129
0.0386129
0.0386129
0.0386129
0.0386129
0.0386129
0.0386129
0.0386129
0.0386129
0.0386129
0.0386129
0.0386129
0.0386129
0.0386129
0.0386129
0.0386129
0.0386129
0.0386129
0.0386139
0.0408887
0.0508913
0.0458912
0.0303398
0.0182171
0.0132127
0.0113555
0.0105159
0.0100879
0.00983529
0.00967007
0.0386129
0.0386129
0.0386129
0.0386129
0.0386129
0.0386129
0.0386129
0.0386129
0.0386129
0.0386129
0.0386129
0.0386129
0.0386129
0.0386129
0.0386129
0.0386129
0.0386129
0.0386129
0.0386129
0.0386134
0.0400141
0.0499313
0.0488726
0.0370757
0.0234228
0.0153215
0.0122606
0.0109605
0.0103172
0.00994944
0.00971612
0.00956898
0.0386129
0.0386129
0.0386129
0.0386129
0.0386129
0.0386129
0.0386129
0.0386129
0.0386129
0.0386129
0.0386129
0.0386129
0.0386129
0.0386129
0.0386129
0.0386129
0.0386129
0.0386129
0.0386129
0.0386132
0.0394031
0.0476796
0.0497438
0.04247
0.0301432
0.0188684
0.0137225
0.0116569
0.0106834
0.0101483
0.00982036
0.00961299
0.00955522
0.0386129
0.0386129
0.0386129
0.0386129
0.0386129
0.0386129
0.0386129
0.0386129
0.0386129
0.0386129
0.0386129
0.0386129
0.0386129
0.0386129
0.0386129
0.0386129
0.0386129
0.0386129
0.0386129
0.038613
0.0390247
0.0455406
0.0501938
0.0459941
0.0365886
0.0244111
0.0161409
0.0127505
0.0112487
0.0104637
0.0100015
0.00971351
0.00959968
0.00957109
0.0386129
0.0386129
0.0386129
0.0386129
0.0386129
0.0386129
0.0386129
0.0386129
0.0386129
0.0386129
0.0386129
0.0386129
0.0386129
0.0386129
0.0386129
0.0386129
0.0386129
0.0386129
0.0386129
0.038613
0.0388116
0.0435309
0.0499419
0.0478826
0.0412098
0.0313667
0.0201745
0.0145034
0.0121176
0.0109451
0.0102875
0.00988891
0.00970171
0.00961749
0.00963543
0.0386129
0.0386129
0.0386129
0.0386129
0.0386129
0.0386129
0.0386129
0.0386129
0.0386129
0.0386129
0.0386129
0.0386129
0.0386129
0.0386129
0.0386129
0.0386129
0.0386129
0.0386129
0.0386129
0.0386129
0.0387018
0.0418348
0.0493855
0.0486858
0.0441516
0.0373327
0.0262976
0.0173855
0.0134747
0.0116734
0.010721
0.0101665
0.00988117
0.00972487
0.00968514
0.00973495
0.0386129
0.0386129
0.0386129
0.0386129
0.0386129
0.0386129
0.0386129
0.0386129
0.0386129
0.0386129
0.0386129
0.0386129
0.0386129
0.0386129
0.0386129
0.0386129
0.0386129
0.0386129
0.0386129
0.0386129
0.0386496
0.0404888
0.0482655
0.0491007
0.0454707
0.041187
0.03323
0.0221449
0.015638
0.0127882
0.011369
0.010586
0.0101671
0.00991502
0.00980055
0.00978746
0.00981346
0.0386129
0.0386129
0.0386129
0.0386129
0.0386129
0.0386129
0.0386129
0.0386129
0.0386129
0.0386129
0.0386129
0.0386129
0.0386129
0.0386129
0.0386129
0.0386129
0.0386129
0.0386129
0.0386129
0.0386129
0.0386268
0.0395793
0.0466717
0.0490497
0.0464541
0.043137
0.0385607
0.0288898
0.0191599
0.0145119
0.0123443
0.0112051
0.0105984
0.0102192
0.0100058
0.00990924
0.00986769
0.00987868
0.0386129
0.0386129
0.0386129
0.0386129
0.0386129
0.0386129
0.0386129
0.0386129
0.0386129
0.0386129
0.0386129
0.0386129
0.0386129
0.0386129
0.0386129
0.0386129
0.0386129
0.0386129
0.0386129
0.0386129
0.0386177
0.0390565
0.0447483
0.048919
0.0472615
0.0438675
0.0414564
0.0354536
0.024752
0.0172055
0.0138056
0.0121163
0.0112257
0.0106748
0.0103344
0.0101261
0.00999358
0.00993374
0.009927
0.0386129
0.0386129
0.0386129
0.0386129
0.0386129
0.0386129
0.0386129
0.0386129
0.0386129
0.0386129
0.0386129
0.0386129
0.0386129
0.0386129
0.0386129
0.0386129
0.0386129
0.0386129
0.0386129
0.0386129
0.0386144
0.0387952
0.0427393
0.048604
0.0477461
0.04454
0.0426325
0.0397331
0.0317415
0.0215172
0.0159804
0.0134362
0.0121258
0.0113216
0.0108201
0.0104723
0.0102172
0.0100614
0.00998227
0.00996727
0.0386129
0.0386129
0.0386129
0.0386129
0.0386129
0.0386129
0.0386129
0.0386129
0.0386129
0.0386129
0.0386129
0.0386129
0.0386129
0.0386129
0.0386129
0.0386129
0.0386129
0.0386129
0.0386129
0.0386129
0.0386133
0.0386799
0.04099
0.0479004
0.0482139
0.0452075
0.043032
0.0416313
0.0375029
0.0278688
0.0192908
0.0152835
0.0133453
0.0122147
0.01149
0.0109772
0.0105726
0.0102877
0.0101102
0.010022
0.00999828
0.0386129
0.0386129
0.0386129
0.0386129
0.0386129
0.0386129
0.0386129
0.0386129
0.0386129
0.0386129
0.0386129
0.0386129
0.0386129
0.0386129
0.0386129
0.0386129
0.0386129
0.0386129
0.0386129
0.0386129
0.038613
0.0386349
0.0397759
0.0465246
0.0482078
0.0459448
0.043354
0.0422166
0.0405331
0.0345624
0.0244076
0.0179372
0.0149587
0.0133832
0.0123772
0.0116551
0.0110847
0.0106459
0.0103362
0.0101486
0.0100522
0.0100152
0.0386129
0.0386129
0.0386129
0.0386129
0.0386129
0.0386129
0.0386129
0.0386129
0.0386129
0.0386129
0.0386129
0.0386129
0.0386129
0.0386129
0.0386129
0.0386129
0.0386129
0.0386129
0.0386129
0.0386129
0.0386129
0.0386193
0.0390992
0.0445463
0.0481586
0.0466748
0.0437513
0.0424663
0.0416318
0.0390463
0.0311113
0.0219157
0.0171544
0.0148368
0.013476
0.0125165
0.0117559
0.0111579
0.0106921
0.0103718
0.0101765
0.010068
0.0100314
0.0386129
0.0386129
0.0386129
0.0386129
0.0386129
0.0386129
0.0386129
0.0386129
0.0386129
0.0386129
0.0386129
0.0386129
0.0386129
0.0386129
0.0386129
0.0386129
0.0386129
0.0386129
0.0386129
0.0386129
0.0386129
0.0386145
0.0387878
0.0423848
0.047891
0.0472231
0.0442936
0.0426527
0.0419223
0.040922
0.0369117
0.0277433
0.0202877
0.0167053
0.0148103
0.013559
0.0125956
0.0118228
0.0111973
0.0107222
0.0103955
0.0101896
0.0100829
0.0100428
0.0386129
0.0386129
0.0386129
0.0386129
0.0386129
0.0386129
0.0386129
0.0386129
0.0386129
0.0386129
0.0386129
0.0386129
0.0386129
0.0386129
0.0386129
0.0386129
0.0386129
0.0386129
0.0386129
0.0386129
0.0386129
0.0386133
0.0386672
0.040593
0.0470973
0.0476506
0.0449544
0.0428668
0.0420658
0.0414532
0.0399412
0.0341506
0.0249511
0.019252
0.0164805
0.0147845
0.0135764
0.012631
0.0118448
0.0112172
0.0107383
0.0104035
0.0102014
0.010093
0.010055
0.0386129
0.0386129
0.0386129
0.0386129
0.0386129
0.0386129
0.0386129
0.0386129
0.0386129
0.0386129
0.0386129
0.0386129
0.0386129
0.0386129
0.0386129
0.0386129
0.0386129
0.0386129
0.0386129
0.0386129
0.0386129
0.038613
0.0386273
0.0394615
0.0454574
0.0476321
0.0458257
0.0431666
0.0421861
0.0416244
0.0409237
0.0385213
0.0311478
0.0229342
0.0186401
0.016302
0.01472
0.0135645
0.0126226
0.0118465
0.0112209
0.0107376
0.0104097
0.0102085
0.0101039
0.0100616
0.0386129
0.0386129
0.0386129
0.0386129
0.0386129
0.0386129
0.0386129
0.0386129
0.0386129
0.0386129
0.0386129
0.0386129
0.0386129
0.0386129
0.0386129
0.0386129
0.0386129
0.0386129
0.0386129
0.0386129
0.0386129
0.0386129
0.0386162
0.0389118
0.0432544
0.0475399
0.0464478
0.0436988
0.0423019
0.0417335
0.0411849
0.0402558
0.0366577
0.0282426
0.02158
0.0182064
0.0161045
0.0146375
0.0135129
0.0125958
0.0118311
0.0112066
0.0107343
0.0104109
0.0102164
0.0101092
0.010067
0.0386129
0.0386129
0.0386129
0.0386129
0.0386129
0.0386129
0.0386129
0.0386129
0.0386129
0.0386129
0.0386129
0.0386129
0.0386129
0.0386129
0.0386129
0.0386129
0.0386129
0.0386129
0.0386129
0.0386129
0.0386129
0.0386129
0.0386135
0.0387
0.0411506
0.0470637
0.0471298
0.0443233
0.042516
0.0418134
0.0413139
0.0406704
0.0394375
0.0342566
0.0258516
0.0206638
0.0178099
0.0159097
0.0145215
0.0134453
0.0125513
0.0117966
0.0111892
0.0107261
0.0104133
0.0102186
0.0101134
0.0100727
0.0386129
0.0386129
0.0386129
0.0386129
0.0386129
0.0386129
0.0386129
0.0386129
0.0386129
0.0386129
0.0386129
0.0386129
0.0386129
0.0386129
0.0386129
0.0386129
0.0386129
0.0386129
0.0386129
0.0386129
0.0386129
0.0386129
0.038613
0.0386339
0.0397035
0.0457141
0.0471328
0.0452235
0.0428122
0.0419243
0.0414009
0.0408381
0.0402542
0.0383538
0.0315489
0.0240497
0.0199374
0.0174473
0.0156952
0.0143977
0.0133634
0.0124888
0.0117591
0.0111668
0.0107193
0.0104101
0.0102198
0.0101178
0.0100763
0.0386129
0.0386129
0.0386129
0.0386129
0.0386129
0.0386129
0.0386129
0.0386129
0.0386129
0.0386129
0.0386129
0.0386129
0.0386129
0.0386129
0.0386129
0.0386129
0.0386129
0.0386129
0.0386129
0.0386129
0.0386129
0.0386129
0.0386129
0.038617
0.0389813
0.0435693
0.0470732
0.0459334
0.0433073
0.0420691
0.0414941
0.0409479
0.0404049
0.0398048
0.0367597
0.0288351
0.0227142
0.0193323
0.0170849
0.0154872
0.0142652
0.0132659
0.0124246
0.0117171
0.0111466
0.0107073
0.0104058
0.0102213
0.0101203
0.0100807
0.0386129
0.0386129
0.0386129
0.0386129
0.0386129
0.0386129
0.0386129
0.0386129
0.0386129
0.0386129
0.0386129
0.0386129
0.0386129
0.0386129
0.0386129
0.0386129
0.0386129
0.0386129
0.0386129
0.0386129
0.0386129
0.0386129
0.0386129
0.0386135
0.0387115
0.0413273
0.0467272
0.0465917
0.0439304
0.0422911
0.0416058
0.0410453
0.0405006
0.0401382
0.039267
0.0344429
0.026601
0.0216819
0.0187589
0.016754
0.0152812
0.014122
0.0131691
0.0123569
0.0116786
0.0111216
0.0106941
0.010402
0.010221
0.0101234
0.0100823
0.0386129
0.0386129
0.0386129
0.0386129
0.0386129
0.0386129
0.0386129
0.0386129
0.0386129
0.0386129
0.0386129
0.0386129
0.0386129
0.0386129
0.0386129
0.0386129
0.0386129
0.0386129
0.0386129
0.0386129
0.0386129
0.0386129
0.0386129
0.038613
0.0386338
0.0397377
0.0454865
0.0467087
0.0448054
0.0425818
0.0417526
0.0411587
0.0405922
0.0401959
0.0398827
0.0384134
0.0317425
0.0247854
0.020802
0.0182552
0.0164428
0.0150735
0.0139838
0.0130704
0.0122944
0.0116361
0.0110956
0.0106818
0.0103966
0.0102214
0.0101239
0.0100851
0.0386129
0.0386129
0.0386129
0.0386129
0.0386129
0.0386129
0.0386129
0.0386129
0.0386129
0.0386129
0.0386129
0.0386129
0.0386129
0.0386129
0.0386129
0.0386129
0.0386129
0.0386129
0.0386129
0.0386129
0.0386129
0.0386129
0.0386129
0.0386129
0.0386163
0.0389643
0.043365
0.0466217
0.0455398
0.0430646
0.0419132
0.0413004
0.0406921
0.0402372
0.0399857
0.0397664
0.0367321
0.0290573
0.0233835
0.0200653
0.0177962
0.0161449
0.0148791
0.0138469
0.0129791
0.0122294
0.0115936
0.0110711
0.0106681
0.0103922
0.0102193
0.0101257
0.0100893
0.0386129
0.0386129
0.0386129
0.0386129
0.0386129
0.0386129
0.0386129
0.0386129
0.0386129
0.0386129
0.0386129
0.0386129
0.0386129
0.0386129
0.0386129
0.0386129
0.0386129
0.0386129
0.0386129
0.0386129
0.0386129
0.0386129
0.0386129
0.0386129
0.0386133
0.0386962
0.0411028
0.0463081
0.0462369
0.0436834
0.042135
0.0414455
0.0408285
0.0403072
0.0400058
0.0399937
0.0394012
0.0341856
0.0268615
0.0222757
0.0194043
0.0173736
0.0158738
0.0146919
0.0137206
0.0128871
0.0121662
0.0115535
0.0110458
0.0106559
0.0103853
0.0102186
0.0101289
0.0100908
0.0386129
0.0386129
0.0386129
0.0386129
0.0386129
0.0386129
0.0386129
0.0386129
0.0386129
0.0386129
0.0386129
0.0386129
0.0386129
0.0386129
0.0386129
0.0386129
0.0386129
0.0386129
0.0386129
0.0386129
0.0386129
0.0386129
0.0386129
0.0386129
0.0386129
0.0386278
0.0395609
0.0449722
0.0463015
0.0445945
0.0424269
0.0416053
0.0409783
0.0404062
0.0400179
0.0400062
0.0400178
0.038255
0.0314178
0.0251059
0.0213409
0.0188129
0.0169977
0.0156199
0.014521
0.0135962
0.0127987
0.0121067
0.0115135
0.0110226
0.0106416
0.0103801
0.0102194
0.0101294
0.0100941
0.0386129
0.0386129
0.0386129
0.0386129
0.0386129
0.0386129
0.0386129
0.0386129
0.0386129
0.0386129
0.0386129
0.0386129
0.0386129
0.0386129
0.0386129
0.0386129
0.0386129
0.0386129
0.0386129
0.0386129
0.0386129
0.0386129
0.0386129
0.0386129
0.0386129
0.0386149
0.0388743
0.0427711
0.0461809
0.0452954
0.0429319
0.0417758
0.0411384
0.0405332
0.0400762
0.0399982
0.040072
0.0398953
0.0361681
0.0288932
0.0237297
0.0205287
0.0182951
0.0166544
0.0153911
0.0143561
0.0134778
0.0127159
0.0120487
0.0114765
0.0109976
0.0106292
0.0103768
0.0102177
0.0101318
0.0100962
0.0386129
0.0386129
0.0386129
0.0386129
0.0386129
0.0386129
0.0386129
0.0386129
0.0386129
0.0386129
0.0386129
0.0386129
0.0386129
0.0386129
0.0386129
0.0386129
0.0386129
0.0386129
0.0386129
0.0386129
0.0386129
0.0386129
0.0386129
0.0386129
0.0386129
0.0386131
0.0386651
0.0405899
0.0457627
0.0459337
0.0435741
0.0420151
0.0412978
0.0406808
0.0401556
0.0400032
0.0400446
0.0401554
0.0392081
0.0335156
0.0268385
0.0225958
0.0198237
0.0178319
0.0163496
0.0151747
0.014201
0.0133674
0.0126362
0.0119948
0.0114383
0.0109752
0.0106193
0.0103711
0.010218
0.0101331
0.0100973
0.0386129
0.0386129
0.0386129
0.0386129
0.0386129
0.0386129
0.0386129
0.0386129
0.0386129
0.0386129
0.0386129
0.0386129
0.0386129
0.0386129
0.0386129
0.0386129
0.0386129
0.0386129
0.0386129
0.0386129
0.0386129
0.0386129
0.0386129
0.0386129
0.0386129
0.0386129
0.0386204
0.0392682
0.0441395
0.045935
0.0445108
0.0423384
0.0414733
0.0408358
0.040253
0.0400267
0.0400271
0.0401495
0.0401167
0.037663
0.0308736
0.025178
0.021648
0.0192017
0.0174264
0.016067
0.014974
0.0140574
0.0132623
0.0125621
0.0119406
0.0114035
0.0109559
0.0106072
0.0103676
0.0102173
0.0101334
0.0101001
0.0386129
0.0386129
0.0386129
0.0386129
0.0386129
0.0386129
0.0386129
0.0386129
0.0386129
0.0386129
0.0386129
0.0386129
0.0386129
0.0386129
0.0386129
0.0386129
0.0386129
0.0386129
0.0386129
0.0386129
0.0386129
0.0386129
0.0386129
0.0386129
0.0386129
0.0386129
0.0386137
0.038764
0.041856
0.0457835
0.0451843
0.0428929
0.0416665
0.0410024
0.0403793
0.0400719
0.0400284
0.0401226
0.0402378
0.0397631
0.0353252
0.0285551
0.0238565
0.0208222
0.0186634
0.0170572
0.0158086
0.0147898
0.0139222
0.0131649
0.0124889
0.0118907
0.0113726
0.010935
0.0105977
0.0103632
0.0102156
0.0101353
0.0101019
0.0386129
0.0386129
0.0386129
0.0386129
0.0386129
0.0386129
0.0386129
0.0386129
0.0386129
0.0386129
0.0386129
0.0386129
0.0386129
0.0386129
0.0386129
0.0386129
0.0386129
0.0386129
0.0386129
0.0386129
0.0386129
0.0386129
0.0386129
0.0386129
0.0386129
0.0386129
0.038613
0.038637
0.0399245
0.0449787
0.0456596
0.0436196
0.0419338
0.0411727
0.0405269
0.0401097
0.040037
0.0401079
0.0402229
0.0402311
0.03869
0.0327078
0.0266497
0.0227555
0.0201131
0.0181802
0.0167244
0.0155738
0.0146183
0.0137976
0.0130701
0.0124214
0.0118459
0.0113406
0.010917
0.0105876
0.0103581
0.0102157
0.0101363
0.0101039
0.0386129
0.0386129
0.0386129
0.0386129
0.0386129
0.0386129
0.0386129
0.0386129
0.0386129
0.0386129
0.0386129
0.0386129
0.0386129
0.0386129
0.0386129
0.0386129
0.0386129
0.0386129
0.0386129
0.0386129
0.0386129
0.0386129
0.0386129
0.0386129
0.0386129
0.0386129
0.0386129
0.0386155
0.0389696
0.0430074
0.0455885
0.0444802
0.0423353
0.0413579
0.0406883
0.0401751
0.0400489
0.0401051
0.0402263
0.0402809
0.0400278
0.0368098
0.0302316
0.0251235
0.0218324
0.019481
0.0177505
0.0164255
0.0153577
0.0144613
0.0136776
0.0129824
0.0123602
0.0118009
0.0113123
0.010899
0.010577
0.0103549
0.010215
0.0101376
0.0101062
0.0386129
0.0386129
0.0386129
0.0386129
0.0386129
0.0386129
0.0386129
0.0386129
0.0386129
0.0386129
0.0386129
0.0386129
0.0386129
0.0386129
0.0386129
0.0386129
0.0386129
0.0386129
0.0386129
0.0386129
0.0386129
0.0386129
0.0386129
0.0386129
0.0386129
0.0386129
0.0386129
0.0386131
0.0386776
0.0407697
0.0453565
0.0452091
0.0429353
0.0415806
0.0408658
0.0402729
0.0400666
0.0401032
0.0402244
0.0402775
0.0402713
0.0393504
0.034368
0.0281603
0.0238821
0.0210114
0.018925
0.0173688
0.0161537
0.0151615
0.0143119
0.0135669
0.0129026
0.0122998
0.0117603
0.0112845
0.0108808
0.0105686
0.010351
0.0102145
0.0101392
0.0101067
0.0386129
0.0386129
0.0386129
0.0386129
0.0386129
0.0386129
0.0386129
0.0386129
0.0386129
0.0386129
0.0386129
0.0386129
0.0386129
0.0386129
0.0386129
0.0386129
0.0386129
0.0386129
0.0386129
0.0386129
0.0386129
0.0386129
0.0386129
0.0386129
0.0386129
0.0386129
0.0386129
0.0386129
0.0386206
0.039306
0.043961
0.045341
0.0438004
0.0418875
0.0410533
0.0404059
0.0400872
0.040107
0.0402229
0.0402871
0.0402904
0.0401592
0.0379454
0.0319034
0.0264168
0.0228227
0.0202951
0.0184357
0.0170257
0.0159089
0.014977
0.0141745
0.013466
0.0128249
0.0122449
0.0117208
0.0112569
0.0108652
0.0105598
0.0103475
0.0102145
0.010139
0.010109
0.0386129
0.0386129
0.0386129
0.0386129
0.0386129
0.0386129
0.0386129
0.0386129
0.0386129
0.0386129
0.0386129
0.0386129
0.0386129
0.0386129
0.0386129
0.0386129
0.0386129
0.0386129
0.0386129
0.0386129
0.0386129
0.0386129
0.0386129
0.0386129
0.0386129
0.0386129
0.0386129
0.0386129
0.0386135
0.0387572
0.0417102
0.0451058
0.0445525
0.0423845
0.0412699
0.0405686
0.040129
0.0401139
0.0402099
0.0402917
0.040303
0.040283
0.039754
0.03587
0.0296408
0.0250024
0.0219109
0.0196673
0.0180008
0.0167199
0.0156816
0.0148082
0.0140494
0.0133688
0.0127539
0.012192
0.0116823
0.0112325
0.0108495
0.0105515
0.0103446
0.0102128
0.0101407
0.0101126
0.0386129
0.0386129
0.0386129
0.0386129
0.0386129
0.0386129
0.0386129
0.0386129
0.0386129
0.0386129
0.0386129
0.0386129
0.0386129
0.0386129
0.0386129
0.0386129
0.0386129
0.0386129
0.0386129
0.0386129
0.0386129
0.0386129
0.0386129
0.0386129
0.0386129
0.0386129
0.0386129
0.0386129
0.0386129
0.038632
0.0397948
0.0444471
0.0450009
0.0431351
0.0415457
0.0407629
0.0402049
0.0401278
0.0401914
0.0402885
0.0403193
0.0403023
0.0402181
0.0387826
0.0334634
0.0277404
0.0238216
0.021111
0.0191139
0.0176167
0.0164393
0.015475
0.0146547
0.0139299
0.0132799
0.0126861
0.0121409
0.0116476
0.0112084
0.0108346
0.0105441
0.0103401
0.0102129
0.0101437
0.0101141
0.0386129
0.0386129
0.0386129
0.0386129
0.0386129
0.0386129
0.0386129
0.0386129
0.0386129
0.0386129
0.0386129
0.0386129
0.0386129
0.0386129
0.0386129
0.0386129
0.0386129
0.0386129
0.0386129
0.0386129
0.0386129
0.0386129
0.0386129
0.0386129
0.0386129
0.0386129
0.0386129
0.0386129
0.0386129
0.0386145
0.0388966
0.0425059
0.0450582
0.0439596
0.0419822
0.0409753
0.0403174
0.0401382
0.0401689
0.0402745
0.0403349
0.0403197
0.0402862
0.039979
0.0371169
0.0311418
0.0261445
0.0228129
0.0204076
0.0186289
0.0172687
0.0161863
0.0152879
0.0145095
0.0138207
0.0131953
0.0126209
0.0120944
0.0116137
0.0111855
0.0108209
0.0105352
0.0103376
0.0102145
0.0101446
0.0101162
0.0386129
0.0386129
0.0386129
0.0386129
0.0386129
0.0386129
0.0386129
0.0386129
0.0386129
0.0386129
0.0386129
0.0386129
0.0386129
0.0386129
0.0386129
0.0386129
0.0386129
0.0386129
0.0386129
0.0386129
0.0386129
0.0386129
0.0386129
0.0386129
0.0386129
0.0386129
0.0386129
0.0386129
0.0386129
0.038613
0.038655
0.0403516
0.0445729
0.044737
0.042567
0.041245
0.0404777
0.0401616
0.0401501
0.0402531
0.0403413
0.0403393
0.0403095
0.0402366
0.0393552
0.0349237
0.02907
0.0248325
0.021928
0.0197942
0.0181944
0.0169575
0.0159584
0.0151125
0.014377
0.0137173
0.0131146
0.0125613
0.0120493
0.0115815
0.0111642
0.0108059
0.0105286
0.0103367
0.0102141
0.0101461
0.0101187
0.0386129
0.0386129
0.0386129
0.0386129
0.0386129
0.0386129
0.0386129
0.0386129
0.0386129
0.0386129
0.0386129
0.0386129
0.0386129
0.0386129
0.0386129
0.0386129
0.0386129
0.0386129
0.0386129
0.0386129
0.0386129
0.0386129
0.0386129
0.0386129
0.0386129
0.0386129
0.0386129
0.0386129
0.0386129
0.0386129
0.0386166
0.0390938
0.0431537
0.0447265
0.0434796
0.0415802
0.0406848
0.0402067
0.0401392
0.0402251
0.0403415
0.0403538
0.0403325
0.0402796
0.0401014
0.0381005
0.0325919
0.0273174
0.0237176
0.0211566
0.0192485
0.0178093
0.0166792
0.0157468
0.0149529
0.0142524
0.0136193
0.0130406
0.012504
0.0120066
0.0115514
0.0111419
0.0107935
0.0105239
0.0103339
0.0102143
0.0101481
0.0101196
0.0386129
0.0386129
0.0386129
0.0386129
0.0386129
0.0386129
0.0386129
0.0386129
0.0386129
0.0386129
0.0386129
0.0386129
0.0386129
0.0386129
0.0386129
0.0386129
0.0386129
0.0386129
0.0386129
0.0386129
0.0386129
0.0386129
0.0386129
0.0386129
0.0386129
0.0386129
0.0386129
0.0386129
0.0386129
0.0386129
0.0386131
0.0386932
0.0409456
0.0446058
0.0442012
0.0421447
0.0409254
0.040294
0.0401365
0.0401995
0.0403316
0.0403648
0.040351
0.0403063
0.040241
0.039713
0.0362229
0.0304165
0.0258623
0.0227593
0.0204702
0.0187684
0.0174675
0.0164234
0.0155552
0.0148037
0.0141348
0.0135294
0.0129699
0.0124499
0.0119666
0.0115207
0.0111225
0.0107834
0.0105173
0.0103318
0.010215
0.0101485
0.0101213
0.0386129
0.0386129
0.0386129
0.0386129
0.0386129
0.0386129
0.0386129
0.0386129
0.0386129
0.0386129
0.0386129
0.0386129
0.0386129
0.0386129
0.0386129
0.0386129
0.0386129
0.0386129
0.0386129
0.0386129
0.0386129
0.0386129
0.0386129
0.0386129
0.0386129
0.0386129
0.0386129
0.0386129
0.0386129
0.0386129
0.0386129
0.0386207
0.0393512
0.0435035
0.0445431
0.0429398
0.0412548
0.0404415
0.0401522
0.0401804
0.0403129
0.0403697
0.0403653
0.0403304
0.0402709
0.040152
0.0388368
0.0339841
0.0285332
0.0246404
0.0219023
0.0198692
0.0183456
0.0171566
0.0161931
0.0153772
0.0146639
0.0140271
0.013444
0.0129035
0.0123992
0.0119265
0.0114933
0.0111058
0.0107716
0.0105115
0.0103303
0.0102142
0.0101497
0.0101234
0.0386129
0.0386129
0.0386129
0.0386129
0.0386129
0.0386129
0.0386129
0.0386129
0.0386129
0.0386129
0.0386129
0.0386129
0.0386129
0.0386129
0.0386129
0.0386129
0.0386129
0.0386129
0.0386129
0.0386129
0.0386129
0.0386129
0.0386129
0.0386129
0.0386129
0.0386129
0.0386129
0.0386129
0.0386129
0.0386129
0.0386129
0.0386133
0.0387512
0.0414741
0.0444135
0.0437403
0.0417495
0.0406451
0.0401781
0.0401778
0.0402866
0.0403691
0.0403771
0.0403494
0.0402932
0.0402276
0.039925
0.0373227
0.0317761
0.0269139
0.0235819
0.0211522
0.0193428
0.0179651
0.0168786
0.0159808
0.0152115
0.0145359
0.0139252
0.0133639
0.0128414
0.0123491
0.0118903
0.0114692
0.0110877
0.0107609
0.0105066
0.0103273
0.0102141
0.0101513
0.0101243
0.0386129
0.0386129
0.0386129
0.0386129
0.0386129
0.0386129
0.0386129
0.0386129
0.0386129
0.0386129
0.0386129
0.0386129
0.0386129
0.0386129
0.0386129
0.0386129
0.0386129
0.0386129
0.0386129
0.0386129
0.0386129
0.0386129
0.0386129
0.0386129
0.0386129
0.0386129
0.0386129
0.0386129
0.0386129
0.0386129
0.0386129
0.0386129
0.0386277
0.0396373
0.0437172
0.0443029
0.0424642
0.0409383
0.0402683
0.0401836
0.0402596
0.0403604
0.040386
0.0403638
0.0403134
0.0402533
0.040172
0.0393558
0.0353097
0.0297412
0.0255674
0.0226577
0.0204955
0.0188734
0.0176275
0.0166246
0.0157844
0.0150602
0.0144155
0.0138302
0.0132892
0.0127803
0.0123033
0.0118578
0.0114439
0.0110709
0.0107511
0.0105001
0.0103251
0.0102146
0.0101517
0.0101258
0.0386129
0.0386129
0.0386129
0.0386129
0.0386129
0.0386129
0.0386129
0.0386129
0.0386129
0.0386129
0.0386129
0.0386129
0.0386129
0.0386129
0.0386129
0.0386129
0.0386129
0.0386129
0.0386129
0.0386129
0.0386129
0.0386129
0.0386129
0.0386129
0.0386129
0.0386129
0.0386129
0.0386129
0.0386129
0.0386129
0.0386129
0.0386129
0.0386138
0.0388274
0.0418676
0.0442386
0.0433258
0.0413845
0.0404122
0.0402005
0.0402276
0.0403435
0.0403916
0.0403744
0.0403292
0.0402737
0.0402159
0.0400449
0.03822
0.033091
0.0280028
0.0244199
0.0218449
0.019913
0.0184599
0.0173216
0.0163913
0.0156057
0.0149186
0.0143036
0.0137415
0.0132163
0.0127244
0.0122618
0.0118245
0.0114202
0.0110554
0.01074
0.0104947
0.0103236
0.0102138
0.0101527
0.010128
0.0386129
0.0386129
0.0386129
0.0386129
0.0386129
0.0386129
0.0386129
0.0386129
0.0386129
0.0386129
0.0386129
0.0386129
0.0386129
0.0386129
0.0386129
0.0386129
0.0386129
0.0386129
0.0386129
0.0386129
0.0386129
0.0386129
0.0386129
0.0386129
0.0386129
0.0386129
0.0386129
0.0386129
0.0386129
0.0386129
0.0386129
0.0386129
0.0386129
0.0386381
0.0399261
0.043905
0.0440268
0.0420393
0.0406555
0.0402228
0.0402051
0.0403138
0.0403986
0.0403812
0.0403422
0.0402902
0.0402389
0.0401802
0.0396916
0.0364842
0.0309889
0.0265221
0.0234275
0.0211218
0.0194027
0.0180889
0.0170433
0.0161801
0.0154396
0.0147874
0.0141993
0.0136556
0.0131493
0.0126733
0.01222
0.0117932
0.0113981
0.0110386
0.01073
0.01049
0.0103208
0.0102138
0.0101545
0.0101292
0.0386129
0.0386129
0.0386129
0.0386129
0.0386129
0.0386129
0.0386129
0.0386129
0.0386129
0.0386129
0.0386129
0.0386129
0.0386129
0.0386129
0.0386129
0.0386129
0.0386129
0.0386129
0.0386129
0.0386129
0.0386129
0.0386129
0.0386129
0.0386129
0.0386129
0.0386129
0.0386129
0.0386129
0.0386129
0.0386129
0.0386129
0.0386129
0.0386129
0.0386145
0.0389153
0.0422028
0.0440259
0.0429371
0.0410404
0.0402892
0.0401937
0.040278
0.0404016
0.0403893
0.0403537
0.0403056
0.0402582
0.0402078
0.0400966
0.0388929
0.034377
0.0291158
0.0252765
0.0225388
0.0204893
0.0189486
0.0177543
0.0167926
0.0159849
0.0152862
0.0146656
0.0140991
0.0135766
0.0130878
0.0126224
0.0121806
0.0117638
0.0113749
0.0110231
0.0107208
0.010484
0.0103188
0.0102145
0.0101552
0.0101299
0.0386129
0.0386129
0.0386129
0.0386129
0.0386129
0.0386129
0.0386129
0.0386129
0.0386129
0.0386129
0.0386129
0.0386129
0.0386129
0.0386129
0.0386129
0.0386129
0.0386129
0.0386129
0.0386129
0.0386129
0.0386129
0.0386129
0.0386129
0.0386129
0.0386129
0.0386129
0.0386129
0.0386129
0.0386129
0.0386129
0.0386129
0.0386129
0.0386129
0.038613
0.0386515
0.0402045
0.0436984
0.0437082
0.0416413
0.0404482
0.0401924
0.0402506
0.0403953
0.0403942
0.0403682
0.0403202
0.0402756
0.0402262
0.0401662
0.0398889
0.0374914
0.0322366
0.0275028
0.0241944
0.0217582
0.0199296
0.018543
0.0174551
0.0165626
0.0158056
0.0151442
0.0145492
0.0140068
0.0135038
0.0130271
0.0125743
0.0121434
0.0117336
0.0113533
0.0110087
0.0107105
0.0104789
0.0103175
0.0102141
0.0101555
0.0101314
0.0386129
0.0386129
0.0386129
0.0386129
0.0386129
0.0386129
0.0386129
0.0386129
0.0386129
0.0386129
0.0386129
0.0386129
0.0386129
0.0386129
0.0386129
0.0386129
0.0386129
0.0386129
0.0386129