/*--------------------------------*- C++ -*----------------------------------*\
| =========                 |                                                 |
| \\      /  F ield         | OpenFOAM: The Open Source CFD Toolbox           |
|  \\    /   O peration     | Version:  v2012                                 |
|   \\  /    A nd           | Website:  www.openfoam.com                      |
|    \\/     M anipulation  |                                                 |
\*---------------------------------------------------------------------------*/
FoamFile
{
    version     2.0;
    format      ascii;
    class       volScalarField;
    location    "1801";
    object      T;
}
// * * * * * * * * * * * * * * * * * * * * * * * * * * * * * * * * * * * * * //

dimensions      [0 0 0 1 0 0 0];


internalField   nonuniform List<scalar> 
8000
(
60.467
60.467
60.467
60.467
60.467
60.467
60.467
60.467
60.467
60.467
60.467
60.467
60.467
60.467
60.467
60.467
60.467
60.467
60.467
60.467
60.467
60.467
60.467
60.467
60.467
60.467
60.467
60.467
60.467
60.467
60.467
60.467
60.467
60.467
60.467
60.467
60.467
60.467
60.467
60.467
60.467
60.467
60.467
60.467
60.467
60.467
60.467
60.467
60.467
60.467
60.467
60.467
60.467
60.467
60.467
60.467
60.467
60.467
60.467
60.467
60.467
60.467
60.467
60.467
60.467
60.467
60.467
60.467
60.467
60.467
60.467
60.467
60.467
60.467
60.467
60.467
60.467
60.467
60.467
60.467
60.467
60.467
60.467
60.467
60.467
60.467
60.467
60.467
60.467
60.467
60.467
60.467
60.467
60.467
60.467
60.467
60.467
60.467
60.467
60.467
60.467
60.467
60.467
60.467
60.467
60.467
60.467
60.467
60.467
60.467
60.467
60.467
60.467
60.467
60.467
60.467
60.467
60.467
60.467
60.467
60.467
60.467
60.467
60.467
60.467
60.467
60.467
60.467
60.467
60.467
60.467
60.467
60.467
60.467
60.467
60.467
60.467
60.467
60.467
60.467
60.467
60.467
60.467
60.467
60.467
60.467
60.467
60.467
60.467
60.467
60.467
60.467
60.467
60.467
60.467
60.467
60.467
60.467
60.467
60.467
60.467
60.467
60.467
60.467
60.467
60.467
60.467
60.467
60.467
60.467
60.467
60.467
60.467
60.467
60.467
60.467
60.467
60.467
60.467
60.467
60.467
60.467
60.467
60.467
60.467
60.467
60.467
60.467
60.467
60.467
60.4853
60.467
60.467
60.467
60.467
60.467
60.467
60.467
60.467
60.467
60.467
60.467
60.467
60.467
60.467
60.467
60.467
60.467
60.467
60.467
60.5084
231.379
60.467
60.467
60.467
60.467
60.467
60.467
60.467
60.467
60.467
60.467
60.467
60.467
60.467
60.467
60.467
60.467
60.467
60.467
60.467
60.4909
162.477
263.667
60.4669
60.467
60.467
60.467
60.467
60.467
60.467
60.467
60.467
60.467
60.467
60.467
60.467
60.467
60.467
60.467
60.467
60.467
60.467
60.4877
118.042
241
263.617
60.467
60.467
60.467
60.467
60.467
60.467
60.467
60.467
60.467
60.467
60.467
60.467
60.467
60.467
60.467
60.467
60.467
60.467
60.467
60.4796
90.9409
199.866
253.987
263.862
60.467
60.467
60.467
60.467
60.467
60.467
60.467
60.467
60.467
60.467
60.467
60.467
60.467
60.467
60.467
60.467
60.467
60.467
60.467
60.4764
75.7905
154.589
232.799
258.4
263.614
60.467
60.467
60.467
60.467
60.467
60.467
60.467
60.467
60.467
60.467
60.467
60.467
60.467
60.467
60.467
60.467
60.467
60.467
60.467
60.4731
68.2822
118.316
199.926
246.18
259.875
263.486
60.467
60.467
60.467
60.467
60.467
60.467
60.467
60.467
60.467
60.467
60.467
60.467
60.467
60.467
60.467
60.467
60.467
60.467
60.467
60.4711
65.2405
94.0191
161.132
225.761
251.527
260.731
263.354
60.467
60.467
60.467
60.467
60.467
60.467
60.467
60.467
60.467
60.467
60.467
60.467
60.467
60.467
60.467
60.467
60.467
60.467
60.467
60.4695
64.1803
79.2561
125.469
196.467
237.528
254.555
261.193
263.165
60.467
60.467
60.467
60.467
60.467
60.467
60.467
60.467
60.467
60.467
60.467
60.467
60.467
60.467
60.467
60.467
60.467
60.467
60.467
60.4688
63.5673
71.3551
99.3646
160.699
216.767
244.147
256.342
261.395
262.911
60.467
60.467
60.467
60.467
60.467
60.467
60.467
60.467
60.467
60.467
60.467
60.467
60.467
60.467
60.467
60.467
60.467
60.467
60.467
60.4677
62.8352
67.7133
82.7887
125.349
188.627
228.549
248.146
257.417
261.405
262.492
60.467
60.467
60.467
60.467
60.467
60.467
60.467
60.467
60.467
60.467
60.467
60.467
60.467
60.467
60.467
60.467
60.467
60.467
60.467
60.4673
62.0054
66.2247
73.8602
98.1398
154.632
206.803
235.811
250.688
258.022
261.159
261.796
60.467
60.467
60.467
60.467
60.467
60.467
60.467
60.467
60.467
60.467
60.467
60.467
60.467
60.467
60.467
60.467
60.467
60.467
60.467
60.4672
61.3694
65.724
69.759
81.1362
120.389
178.47
218.449
240.54
252.3
258.169
260.562
260.649
60.467
60.467
60.467
60.467
60.467
60.467
60.467
60.467
60.467
60.467
60.467
60.467
60.467
60.467
60.467
60.467
60.467
60.467
60.467
60.4671
60.967
65.3679
68.2006
72.2053
93.7557
145.1
195.246
226.2
243.667
253.12
257.8
259.456
259.039
60.467
60.467
60.467
60.467
60.467
60.467
60.467
60.467
60.467
60.467
60.467
60.467
60.467
60.467
60.467
60.467
60.467
60.467
60.467
60.4671
60.7272
64.7404
67.5105
68.1739
77.6913
112.321
166.107
206.842
231.445
245.504
253.135
256.771
257.839
257.183
60.467
60.467
60.467
60.467
60.467
60.467
60.467
60.467
60.467
60.467
60.467
60.467
60.467
60.467
60.467
60.467
60.467
60.467
60.467
60.467
60.5928
63.6654
67.2323
66.8704
69.8028
87.4956
133.047
181.911
214.881
234.722
246.105
252.218
255.125
255.938
255.333
60.467
60.467
60.467
60.467
60.467
60.467
60.467
60.467
60.467
60.467
60.467
60.467
60.467
60.467
60.467
60.467
60.467
60.467
60.467
60.467
60.5232
62.5134
67.0152
66.7573
66.0682
73.704
102.234
151.862
193.288
220.103
236.167
245.332
250.49
253.108
254.019
253.822
60.467
60.467
60.467
60.467
60.467
60.467
60.467
60.467
60.467
60.467
60.467
60.467
60.467
60.467
60.467
60.467
60.467
60.467
60.467
60.467
60.4902
61.6385
66.5863
66.8284
65.4875
67.2312
80.9769
119.4
166.625
200.956
222.731
235.618
243.443
248.249
251.023
252.461
252.585
60.467
60.467
60.467
60.467
60.467
60.467
60.467
60.467
60.467
60.467
60.467
60.467
60.467
60.467
60.467
60.467
60.467
60.467
60.467
60.467
60.4758
61.0728
65.7431
66.8675
65.5085
64.6335
69.9123
91.6191
136.128
177.155
205.173
222.617
233.534
240.852
245.869
249.355
251.195
251.582
60.467
60.467
60.467
60.467
60.467
60.467
60.467
60.467
60.467
60.467
60.467
60.467
60.467
60.467
60.467
60.467
60.467
60.467
60.467
60.467
60.4701
60.7469
64.4739
66.8692
65.8452
64.3878
65.3065
74.7805
105.555
149.528
183.528
205.892
220.487
230.568
238.045
244.011
248.03
250.186
250.625
60.467
60.467
60.467
60.467
60.467
60.467
60.467
60.467
60.467
60.467
60.467
60.467
60.467
60.467
60.467
60.467
60.467
60.467
60.467
60.467
60.468
60.5824
63.0935
66.7463
66.1912
64.4273
63.7402
66.8513
82.3786
119.754
158.675
185.77
204.153
217.397
227.351
235.941
242.598
247.012
249.237
249.815
60.467
60.467
60.467
60.467
60.467
60.467
60.467
60.467
60.467
60.467
60.467
60.467
60.467
60.467
60.467
60.467
60.467
60.467
60.467
60.467
60.4673
60.5094
61.9574
66.3064
66.5119
64.7455
63.6257
64.023
69.8166
92.6085
131.606
163.406
185.554
201.5
214.091
225.082
234.443
241.577
246.084
248.45
249.116
60.467
60.467
60.467
60.467
60.467
60.467
60.467
60.467
60.467
60.467
60.467
60.467
60.467
60.467
60.467
60.467
60.467
60.467
60.467
60.467
60.4671
60.4809
61.1966
65.4523
66.5039
65.2214
63.6841
63.3193
64.7463
74.7846
104.252
139.375
165.62
183.969
198.75
211.991
223.611
233.446
240.702
245.352
247.781
248.48
60.467
60.467
60.467
60.467
60.467
60.467
60.467
60.467
60.467
60.467
60.467
60.467
60.467
60.467
60.467
60.467
60.467
60.467
60.467
60.467
60.467
60.471
60.7736
64.2278
66.4506
65.6609
63.9296
63.2265
63.1856
66.302
81.9112
114.254
144.514
166.012
182.562
197.361
210.82
222.727
232.691
240.071
244.754
247.179
247.911
60.467
60.467
60.467
60.467
60.467
60.467
60.467
60.467
60.467
60.467
60.467
60.467
60.467
60.467
60.467
60.467
60.467
60.467
60.467
60.467
60.467
60.468
60.5777
62.853
66.253
65.9481
64.3063
63.2739
62.9606
63.4361
69.1583
90.4543
122.302
147.499
166.185
182.266
196.812
210.222
222.194
232.228
239.599
244.229
246.647
247.392
60.467
60.467
60.467
60.467
60.467
60.467
60.467
60.467
60.467
60.467
60.467
60.467
60.467
60.467
60.467
60.467
60.467
60.467
60.467
60.467
60.467
60.4672
60.5013
61.7104
65.7118
66.1263
64.6993
63.4449
62.9433
62.7776
64.0553
73.6001
99.6023
128.069
149.35
167.123
182.586
196.771
210.05
221.982
231.951
239.209
243.781
246.163
246.927
60.467
60.467
60.467
60.467
60.467
60.467
60.467
60.467
60.467
60.467
60.467
60.467
60.467
60.467
60.467
60.467
60.467
60.467
60.467
60.467
60.467
60.467
60.4761
61.0003
64.7446
66.0992
65.1304
63.6697
63.0159
62.7122
62.6902
65.3695
79.883
107.608
132.095
151.569
168.41
183.234
197.11
210.189
221.976
231.767
238.906
243.38
245.732
246.494
60.467
60.467
60.467
60.467
60.467
60.467
60.467
60.467
60.467
60.467
60.467
60.467
60.467
60.467
60.467
60.467
60.467
60.467
60.467
60.467
60.467
60.467
60.4691
60.6558
63.404
65.9972
65.461
63.9381
63.1437
62.738
62.4871
62.7122
67.9239
87.51
114.145
135.704
153.939
169.813
184.134
197.695
210.533
222.069
231.681
238.648
243.028
245.333
246.094
60.467
60.467
60.467
60.467
60.467
60.467
60.467
60.467
60.467
60.467
60.467
60.467
60.467
60.467
60.467
60.467
60.467
60.467
60.467
60.467
60.467
60.467
60.4674
60.5221
62.0649
65.6524
65.7738
64.2833
63.257
62.831
62.4885
62.2672
63.2291
72.2016
95.3545
119.579
139.21
156.246
171.349
185.209
198.456
210.966
222.264
231.637
238.433
242.705
244.967
245.729
60.467
60.467
60.467
60.467
60.467
60.467
60.467
60.467
60.467
60.467
60.467
60.467
60.467
60.467
60.467
60.467
60.467
60.467
60.467
60.467
60.467
60.467
60.4671
60.4802
61.1522
64.8688
65.7624
64.7218
63.4162
62.9071
62.5658
62.2208
62.0513
64.501
78.1884
102.775
124.362
142.493
158.548
172.966
186.401
199.277
211.494
222.497
231.626
238.242
242.417
244.633
245.392
60.467
60.467
60.467
60.467
60.467
60.467
60.467
60.467
60.467
60.467
60.467
60.467
60.467
60.467
60.467
60.467
60.467
60.467
60.467
60.467
60.467
60.467
60.467
60.4696
60.6995
63.5875
65.6989
65.1057
63.6386
62.9825
62.6455
62.2744
61.9897
62.226
67.0952
85.7762
109.184
128.611
145.665
160.81
174.626
187.609
200.171
212.048
222.748
231.63
238.085
242.156
244.327
245.08
60.467
60.467
60.467
60.467
60.467
60.467
60.467
60.467
60.467
60.467
60.467
60.467
60.467
60.467
60.467
60.467
60.467
60.467
60.467
60.467
60.467
60.467
60.467
60.4674
60.5294
62.175
65.4737
65.4369
63.9813
63.0573
62.7094
62.3653
62.0115
61.7732
62.777
71.8046
93.2603
114.692
132.684
148.666
163.027
176.244
188.861
201.074
212.605
223.003
231.667
237.951
241.921
244.045
244.781
60.467
60.467
60.467
60.467
60.467
60.467
60.467
60.467
60.467
60.467
60.467
60.467
60.467
60.467
60.467
60.467
60.467
60.467
60.467
60.467
60.467
60.467
60.467
60.4671
60.4802
61.1738
64.745
65.4649
64.4394
63.201
62.7494
62.4414
62.0808
61.8047
61.8318
64.3222
78.2071
100.369
119.659
136.459
151.524
165.129
177.865
190.103
201.959
213.146
223.286
231.72
237.835
241.706
243.775
244.499
60.467
60.467
60.467
60.467
60.467
60.467
60.467
60.467
60.467
60.467
60.467
60.467
60.467
60.467
60.467
60.467
60.467
60.467
60.467
60.467
60.467
60.467
60.467
60.467
60.4692
60.6888
63.4579
65.4211
64.8233
63.4423
62.8102
62.4875
62.1578
61.8613
61.6881
62.0922
67.5556
85.6531
106.465
124.168
140.016
154.184
167.173
179.45
191.31
202.808
213.697
223.573
231.781
237.736
241.5
243.52
244.236
60.467
60.467
60.467
60.467
60.467
60.467
60.467
60.467
60.467
60.467
60.467
60.467
60.467
60.467
60.467
60.467
60.467
60.467
60.467
60.467
60.467
60.467
60.467
60.467
60.4673
60.5197
62.0331
65.2135
65.2073
63.7808
62.9005
62.5365
62.2096
61.9173
61.7059
61.7236
62.9419
72.8232
92.7122
111.866
128.431
143.296
156.71
169.137
180.977
192.461
203.642
214.239
223.858
231.851
237.64
241.307
243.282
243.982
60.467
60.467
60.467
60.467
60.467
60.467
60.467
60.467
60.467
60.467
60.467
60.467
60.467
60.467
60.467
60.467
60.467
60.467
60.467
60.467
60.467
60.467
60.467
60.467
60.467
60.4764
61.063
64.4312
65.2091
64.2785
63.0526
62.5905
62.2608
61.9587
61.7486
61.7073
61.8658
65.0331
79.3135
99.2929
116.789
132.351
146.364
159.1
171.01
182.429
193.581
204.451
214.765
224.14
231.918
237.552
241.126
243.052
243.74
60.467
60.467
60.467
60.467
60.467
60.467
60.467
60.467
60.467
60.467
60.467
60.467
60.467
60.467
60.467
60.467
60.467
60.467
60.467
60.467
60.467
60.467
60.467
60.467
60.467
60.4683
60.632
63.0946
65.1539
64.6528
63.3169
62.6688
62.3161
61.9985
61.7554
61.7227
61.7527
62.3145
68.9134
86.3087
105.047
121.307
136.001
149.23
161.353
172.78
183.832
194.66
205.227
215.276
224.411
231.985
237.47
240.951
242.833
243.506
60.467
60.467
60.467
60.467
60.467
60.467
60.467
60.467
60.467
60.467
60.467
60.467
60.467
60.467
60.467
60.467
60.467
60.467
60.467
60.467
60.467
60.467
60.467
60.467
60.467
60.4671
60.5001
61.7124
64.8433
65.0121
63.6814
62.7785
62.3855
62.0422
61.7657
61.7205
61.7488
61.8408
63.5609
74.4473
92.914
110.226
125.533
139.391
151.907
163.468
174.477
185.177
195.69
205.976
215.766
224.673
232.048
237.389
240.785
242.621
243.278
60.467
60.467
60.467
60.467
60.467
60.467
60.467
60.467
60.467
60.467
60.467
60.467
60.467
60.467
60.467
60.467
60.467
60.467
60.467
60.467
60.467
60.467
60.467
60.467
60.467
60.467
60.4717
60.8797
63.9142
64.9951
64.2003
62.9618
62.4586
62.1079
61.7969
61.7032
61.7361
61.8099
62.0563
66.2513
80.798
98.9471
114.97
129.463
142.534
154.401
165.478
176.094
186.455
196.677
206.691
216.236
224.919
232.105
237.312
240.622
242.414
243.06
60.467
60.467
60.467
60.467
60.467
60.467
60.467
60.467
60.467
60.467
60.467
60.467
60.467
60.467
60.467
60.467
60.467
60.467
60.467
60.467
60.467
60.467
60.467
60.467
60.467
60.467
60.4675
60.5625
62.5108
64.8931
64.5765
63.2626
62.5623
62.1782
61.8358
61.6663
61.7063
61.7959
61.8739
62.7437
70.6489
87.2777
104.344
119.405
133.103
145.45
156.753
167.381
177.623
187.675
197.619
207.377
216.679
225.149
232.16
237.233
240.463
242.216
242.848
60.467
60.467
60.467
60.467
60.467
60.467
60.467
60.467
60.467
60.467
60.467
60.467
60.467
60.467
60.467
60.467
60.467
60.467
60.467
60.467
60.467
60.467
60.467
60.467
60.467
60.467
60.467
60.4822
61.293
64.3853
64.8235
63.6866
62.6977
62.2658
61.8917
61.6696
61.6686
61.7617
61.8606
61.9659
64.4965
76.2256
93.4434
109.274
123.527
136.48
148.18
158.964
169.171
179.075
188.836
198.519
208.022
217.096
225.369
232.206
237.155
240.31
242.023
242.641
60.467
60.467
60.467
60.467
60.467
60.467
60.467
60.467
60.467
60.467
60.467
60.467
60.467
60.467
60.467
60.467
60.467
60.467
60.467
60.467
60.467
60.467
60.467
60.467
60.467
60.467
60.467
60.4686
60.692
63.223
64.7785
64.1555
62.9348
62.3553
61.972
61.6807
61.6413
61.7179
61.8407
61.8941
62.3172
67.7553
82.3958
98.9942
113.816
127.382
139.628
150.732
161.034
170.862
180.452
189.944
199.369
208.63
217.495
225.572
232.247
237.08
240.16
241.835
242.441
60.467
60.467
60.467
60.467
60.467
60.467
60.467
60.467
60.467
60.467
60.467
60.467
60.467
60.467
60.467
60.467
60.467
60.467
60.467
60.467
60.467
60.467
60.467
60.467
60.467
60.467
60.467
60.4671
60.5079
61.8246
64.613
64.5692
63.2673
62.4833
62.059
61.7199
61.6205
61.6786
61.7997
61.8796
61.9282
63.3719
72.5205
88.3464
104.063
118.12
130.976
142.558
153.109
162.978
172.46
181.765
190.991
200.169
209.211
217.867
225.764
232.285
237.004
240.014
241.652
242.243
60.467
60.467
60.467
60.467
60.467
60.467
60.467
60.467
60.467
60.467
60.467
60.467
60.467
60.467
60.467
60.467
60.467
60.467
60.467
60.467
60.467
60.467
60.467
60.467
60.467
60.467
60.467
60.467
60.4719
60.9039
63.7917
64.6023
63.7635
62.6505
62.1641
61.7816
61.6092
61.6482
61.7567
61.8486
61.8885
62.0948
65.689
78.0065
94.1091
108.757
122.15
134.321
145.277
155.33
164.808
173.978
183.003
191.976
200.933
209.757
218.22
225.945
232.318
236.928
239.87
241.47
242.051
60.467
60.467
60.467
60.467
60.467
60.467
60.467
60.467
60.467
60.467
60.467
60.467
60.467
60.467
60.467
60.467
60.467
60.467
60.467
60.467
60.467
60.467
60.467
60.467
60.467
60.467
60.467
60.467
60.4674
60.5581
62.4182
64.4974
64.1553
62.9348
62.2821
61.8722
61.6142
61.628
61.7149
61.8086
61.8652
61.9031
62.6932
69.4165
83.893
99.2893
113.157
125.923
137.42
147.805
157.41
166.539
175.409
184.168
192.915
201.652
210.275
218.557
226.116
232.347
236.853
239.728
241.295
241.866
60.467
60.467
60.467
60.467
60.467
60.467
60.467
60.467
60.467
60.467
60.467
60.467
60.467
60.467
60.467
60.467
60.467
60.467
60.467
60.467
60.467
60.467
60.467
60.467
60.467
60.467
60.467
60.467
60.467
60.4791
61.2124
64.0683
64.4408
63.3451
62.4353
61.977
61.6439
61.6164
61.6779
61.7711
61.8313
61.8759
61.973
64.2014
74.3382
89.5164
104.095
117.327
129.431
140.292
150.163
159.37
168.169
176.754
185.278
193.801
202.334
210.769
218.875
226.278
232.371
236.775
239.589
241.124
241.682
60.467
60.467
60.467
60.467
60.467
60.467
60.467
60.467
60.467
60.467
60.467
60.467
60.467
60.467
60.467
60.467
60.467
60.467
60.467
60.467
60.467
60.467
60.467
60.467
60.467
60.467
60.467
60.467
60.467
60.468
60.6461
62.9007
64.4278
63.8431
62.6696
62.0923
61.704
61.6103
61.6435
61.735
61.8001
61.8491
61.8754
62.2812
67.0369
79.7588
94.8682
108.587
121.239
132.681
142.961
152.375
161.21
169.698
178.031
186.324
194.64
202.984
211.238
219.18
226.429
232.39
236.698
239.453
240.955
241.504
60.467
60.467
60.467
60.467
60.467
60.467
60.467
60.467
60.467
60.467
60.467
60.467
60.467
60.467
60.467
60.467
60.467
60.467
60.467
60.467
60.467
60.467
60.467
60.467
60.467
60.467
60.467
60.467
60.467
60.467
60.4936
61.5609
64.1701
64.2464
63.0288
62.2316
61.7884
61.6117
61.6181
61.6993
61.7747
61.8183
61.8477
61.89
63.2148
71.1562
85.3434
99.7682
112.848
124.884
135.698
145.454
154.444
162.932
171.146
179.236
187.315
195.441
203.602
211.686
219.467
226.568
232.405
236.621
239.317
240.791
241.332
60.467
60.467
60.467
60.467
60.467
60.467
60.467
60.467
60.467
60.467
60.467
60.467
60.467
60.467
60.467
60.467
60.467
60.467
60.467
60.467
60.467
60.467
60.467
60.467
60.467
60.467
60.467
60.467
60.467
60.467
60.4694
60.7703
63.3033
64.2458
63.5286
62.4373
61.8923
61.6262
61.6005
61.6658
61.7518
61.7932
61.819
61.8391
62.0402
65.2286
76.1412
90.7183
104.345
116.856
128.279
138.508
147.777
156.375
164.56
172.511
180.376
188.259
196.2
204.192
212.111
219.738
226.7
232.414
236.542
239.185
240.633
241.163
60.467
60.467
60.467
60.467
60.467
60.467
60.467
60.467
60.467
60.467
60.467
60.467
60.467
60.467
60.467
60.467
60.467
60.467
60.467
60.467
60.467
60.467
60.467
60.467
60.467
60.467
60.467
60.467
60.467
60.467
60.4671
60.5177
61.9365
64.1617
63.9473
62.7496
62.0386
61.6616
61.5844
61.6389
61.7306
61.7734
61.7967
61.8124
61.8309
62.5747
68.5342
81.4925
95.7078
108.64
120.635
131.441
141.118
149.941
158.194
166.091
173.801
181.46
189.153
196.923
204.752
212.513
219.995
226.82
232.418
236.465
239.057
240.477
241
60.467
60.467
60.467
60.467
60.467
60.467
60.467
60.467
60.467
60.467
60.467
60.467
60.467
60.467
60.467
60.467
60.467
60.467
60.467
60.467
60.467
60.467
60.467
60.467
60.467
60.467
60.467
60.467
60.467
60.467
60.467
60.4719
60.933
63.5048
64.1322
63.2147
62.221
61.7426
61.5754
61.6136
61.709
61.7574
61.7804
61.7894
61.7983
61.8945
63.9191
72.9678
86.7711
100.358
112.761
124.171
134.373
143.541
151.969
159.901
167.535
175.025
182.486
190.001
197.608
205.283
212.897
220.235
226.93
232.422
236.389
238.93
240.326
240.842
60.467
60.467
60.467
60.467
60.467
60.467
60.467
60.467
60.467
60.467
60.467
60.467
60.467
60.467
60.467
60.467
60.467
60.467
60.467
60.467
60.467
60.467
60.467
60.467
60.467
60.467
60.467
60.467
60.467
60.467
60.467
60.4673
60.5543
62.2634
64.054
63.67
62.5081
61.855
61.5807
61.5922
61.6813
61.742
61.7676
61.7732
61.7745
61.7864
62.1765
66.4541
77.9343
91.9024
104.739
116.653
127.456
137.09
145.804
153.868
161.508
168.902
176.181
183.457
190.806
198.259
205.791
213.259
220.46
227.036
232.424
236.314
238.809
240.181
240.687
60.467
60.467
60.467
60.467
60.467
60.467
60.467
60.467
60.467
60.467
60.467
60.467
60.467
60.467
60.467
60.467
60.467
60.467
60.467
60.467
60.467
60.467
60.467
60.467
60.467
60.467
60.467
60.467
60.467
60.467
60.467
60.467
60.4764
61.113
63.6203
63.9896
62.9251
62.0201
61.6243
61.5855
61.6442
61.7258
61.7577
61.7618
61.7559
61.7575
61.8003
63.0196
70.162
83.1826
96.6168
108.915
120.3
130.503
139.619
147.917
155.652
163.027
170.192
177.275
184.378
191.57
198.883
206.271
213.599
220.678
227.137
232.423
236.242
238.692
240.038
240.538
60.467
60.467
60.467
60.467
60.467
60.467
60.467
60.467
60.467
60.467
60.467
60.467
60.467
60.467
60.467
60.467
60.467
60.467
60.467
60.467
60.467
60.467
60.467
60.467
60.467
60.467
60.467
60.467
60.467
60.467
60.467
60.467
60.4676
60.6022
62.5173
63.9575
63.4222
62.2869
61.6985
61.5859
61.6127
61.6981
61.7498
61.753
61.7436
61.737
61.7457
61.939
64.8265
74.7815
88.2336
101.066
112.882
123.7
133.332
141.972
149.894
157.332
164.457
171.411
178.312
185.252
192.303
199.475
206.725
213.929
220.886
227.233
232.425
236.173
238.577
239.9
240.393
60.467
60.467
60.467
60.467
60.467
60.467
60.467
60.467
60.467
60.467
60.467
60.467
60.467
60.467
60.467
60.467
60.467
60.467
60.467
60.467
60.467
60.467
60.467
60.467
60.467
60.467
60.467
60.467
60.467
60.467
60.467
60.467
60.467
60.4829
61.2958
63.6922
63.8351
62.6652
61.8433
61.5859
61.5877
61.6677
61.7366
61.7451
61.736
61.7242
61.7236
61.7385
62.4214
67.8442
79.7486
93.0726
105.266
116.632
126.864
135.958
144.168
151.752
158.912
165.806
172.565
179.294
186.09
193
200.034
207.164
214.245
221.087
227.328
232.428
236.105
238.466
239.767
240.252
60.467
60.467
60.467
60.467
60.467
60.467
60.467
60.467
60.467
60.467
60.467
60.467
60.467
60.467
60.467
60.467
60.467
60.467
60.467
60.467
60.467
60.467
60.467
60.467
60.467
60.467
60.467
60.467
60.467
60.467
60.467
60.467
60.467
60.468
60.6578
62.7112
63.8055
63.2008
62.0642
61.6248
61.5709
61.6343
61.7181
61.7308
61.7301
61.7158
61.7092
61.7109
61.796
63.641
71.9135
84.7998
97.577
109.312
120.147
129.798
138.402
146.224
153.496
160.4
167.082
173.657
180.235
186.888
193.659
200.575
207.585
214.55
221.283
227.422
232.43
236.04
238.358
239.637
240.118
60.467
60.467
60.467
60.467
60.467
60.467
60.467
60.467
60.467
60.467
60.467
60.467
60.467
60.467
60.467
60.467
60.467
60.467
60.467
60.467
60.467
60.467
60.467
60.467
60.467
60.467
60.467
60.467
60.467
60.467
60.467
60.467
60.467
60.467
60.4913
61.4688
63.6282
63.6245
62.4369
61.708
61.5645
61.608
61.6988
61.7176
61.7197
61.7112
61.6996
61.695
61.6982
62.0495
65.9529
76.6078
89.6968
101.84
113.152
123.419
132.523
140.681
148.148
155.133
161.804
168.287
174.701
181.132
187.643
194.296
201.096
207.991
214.849
221.476
227.514
232.433
235.977
238.255
239.513
239.991
60.467
60.467
60.467
60.467
60.467
60.467
60.467
60.467
60.467
60.467
60.467
60.467
60.467
60.467
60.467
60.467
60.467
60.467
60.467
60.467
60.467
60.467
60.467
60.467
60.467
60.467
60.467
60.467
60.467
60.467
60.467
60.467
60.467
60.467
60.4686
60.7189
62.8667
63.6653
62.9725
61.8842
61.5708
61.5914
61.679
61.7063
61.7121
61.705
61.6955
61.6831
61.6764
61.7055
62.8124
69.4015
81.5772
94.2541
105.923
116.765
126.46
135.057
142.808
149.949
156.676
163.13
169.438
175.697
181.981
188.372
194.909
201.596
208.389
215.139
221.665
227.603
232.436
235.918
238.156
239.398
239.872
60.467
60.467
60.467
60.467
60.467
60.467
60.467
60.467
60.467
60.467
60.467
60.467
60.467
60.467
60.467
60.467
60.467
60.467
60.467
60.467
60.467
60.467
60.467
60.467
60.467
60.467
60.467
60.467
60.467
60.467
60.467
60.467
60.467
60.467
60.4671
60.5015
61.6271
63.598
63.425
62.2335
61.6372
61.5836
61.6526
61.6907
61.705
61.7007
61.6898
61.677
61.6627
61.6614
61.8277
64.4753
73.762
86.3964
98.5831
109.828
120.145
129.284
137.415
144.793
151.644
158.13
164.391
170.533
176.639
182.798
189.072
195.498
202.086
208.772
215.42
221.849
227.692
232.441
235.863
238.065
239.288
239.761
60.467
60.467
60.467
60.467
60.467
60.467
60.467
60.467
60.467
60.467
60.467
60.467
60.467
60.467
60.467
60.467
60.467
60.467
60.467
60.467
60.467
60.467
60.467
60.467
60.467
60.467
60.467
60.467
60.467
60.467
60.467
60.467
60.467
60.467
60.467
60.4694
60.783
62.9097
63.5786
62.7471
61.7573
61.5878
61.6095
61.6725
61.7014
61.6973
61.6849
61.67
61.6548
61.6455
61.65
62.2652
67.2968
78.4699
91.0936
102.689
113.537
123.291
131.905
139.609
146.657
153.238
159.51
165.591
171.57
177.544
183.583
189.745
196.072
202.558
209.142
215.694
222.029
227.78
232.451
235.814
237.98
239.188
239.649
60.467
60.467
60.467
60.467
60.467
60.467
60.467
60.467
60.467
60.467
60.467
60.467
60.467
60.467
60.467
60.467
60.467
60.467
60.467
60.467
60.467
60.467
60.467
60.467
60.467
60.467
60.467
60.467
60.467
60.467
60.467
60.467
60.467
60.467
60.467
60.4671
60.5131
61.7468
63.4726
63.2093
62.0375
61.5989
61.5837
61.6437
61.6983
61.6985
61.6802
61.6627
61.6474
61.6361
61.6303
61.7008
63.3913
71.1271
83.3354
95.4654
106.663
117.021
126.21
134.337
141.661
148.404
154.746
160.821
166.727
172.564
178.412
184.336
190.4
196.627
203.012
209.502
215.963
222.208
227.873
232.466
235.77
237.904
239.085
239.561
60.467
60.467
60.467
60.467
60.467
60.467
60.467
60.467
60.467
60.467
60.467
60.467
60.467
60.467
60.467
60.467
60.467
60.467
60.467
60.467
60.467
60.467
60.467
60.467
60.467
60.467
60.467
60.467
60.467
60.467
60.467
60.467
60.467
60.467
60.467
60.467
60.4704
60.8412
62.9651
63.4352
62.4988
61.669
61.5502
61.6182
61.6946
61.6971
61.6814
61.6551
61.6396
61.629
61.6209
61.6193
61.9288
65.5507
75.6344
88.034
99.6322
110.452
120.266
128.917
136.604
143.58
150.052
156.175
162.06
167.812
173.517
179.244
185.068
191.032
197.16
203.455
209.855
216.229
222.391
227.969
232.483
235.735
237.824
239.012
60.467
60.467
60.467
60.467
60.467
60.467
60.467
60.467
60.467
60.467
60.467
60.467
60.467
60.467
60.467
60.467
60.467
60.467
60.467
60.467
60.467
60.467
60.467
60.467
60.467
60.467
60.467
60.467
60.467
60.467
60.467
60.467
60.467
60.467
60.467
60.467
60.4671
60.5249
61.8303
63.4029
63.0343
61.8705
61.5461
61.5994
61.6847
61.6932
61.6796
61.6542
61.6318
61.6218
61.6134
61.6055
61.6239
62.6282
68.8357
80.3745
92.4847
103.64
114.022
123.28
131.429
138.717
145.383
151.61
157.524
163.242
168.852
174.429
180.052
185.775
191.64
197.679
203.887
210.203
216.497
222.576
228.065
232.511
235.696
237.786
60.467
60.467
60.467
60.467
60.467
60.467
60.467
60.467
60.467
60.467
60.467
60.467
60.467
60.467
60.467
60.467
60.467
60.467
60.467
60.467
60.467
60.467
60.467
60.467
60.467
60.467
60.467
60.467
60.467
60.467
60.467
60.467
60.467
60.467
60.467
60.467
60.467
60.4715
60.8915
62.9322
63.3493
62.3136
61.608
61.5937
61.6793
61.6814
61.6786
61.6525
61.6311
61.6147
61.6057
61.5969
61.5918
61.7303
64.1935
72.9982
85.077
96.7106
107.48
117.365
126.073
133.763
140.695
147.083
153.079
158.809
164.371
169.845
175.311
180.831
186.453
192.23
198.186
204.313
210.552
216.767
222.758
228.174
232.529
235.718
60.467
60.467
60.467
60.467
60.467
60.467
60.467
60.467
60.467
60.467
60.467
60.467
60.467
60.467
60.467
60.467
60.467
60.467
60.467
60.467
60.467
60.467
60.467
60.467
60.467
60.467
60.467
60.467
60.467
60.467
60.467
60.467
60.467
60.467
60.467
60.467
60.467
60.4671
60.5359
61.8923
63.2629
62.8491
61.7673
61.6041
61.6526
61.6722
61.6704
61.6548
61.6312
61.6133
61.5981
61.5883
61.5818
61.5824
62.1302
66.8819
77.5672
89.6275
100.727
111.138
120.474
128.663
135.94
142.554
148.683
154.474
160.034
165.449
170.804
176.162
181.577
187.111
192.805
198.683
204.739
210.903
217.033
222.956
228.266
232.638
60.467
60.467
60.467
60.467
60.467
60.467
60.467
60.467
60.467
60.467
60.467
60.467
60.467
60.467
60.467
60.467
60.467
60.467
60.467
60.467
60.467
60.467
60.467
60.467
60.467
60.467
60.467
60.467
60.467
60.467
60.467
60.467
60.467
60.467
60.467
60.467
60.467
60.467
60.4726
60.9266
62.868
63.2056
62.1523
61.6243
61.6074
61.6504
61.67
61.6535
61.6343
61.6129
61.5945
61.5802
61.5726
61.5667
61.621
63.1899
70.5797
82.2869
93.8847
104.631
114.577
123.354
131.068
137.978
144.298
150.198
155.801
161.201
166.487
171.726
176.976
182.3
187.751
193.369
199.179
205.165
211.247
217.315
223.128
228.49
60.467
60.467
60.467
60.467
60.467
60.467
60.467
60.467
60.467
60.467
60.467
60.467
60.467
60.467
60.467
60.467
60.467
60.467
60.467
60.467
60.467
60.467
60.467
60.467
60.467
60.467
60.467
60.467
60.467
60.467
60.467
60.467
60.467
60.467
60.467
60.467
60.467
60.467
60.4672
60.5446
61.9123
63.2063
62.6968
61.7276
61.5573
61.6227
61.6634
61.6634
61.6357
61.6134
61.5922
61.5747
61.564
61.5579
61.5562
61.8274
65.2643
74.9653
86.8325
97.9621
108.366
117.775
126.022
133.312
139.886
145.946
151.637
157.063
162.321
167.484
172.609
177.764
183.003
188.377
193.93
199.675
205.583
211.609
217.563
223.486
60.467
60.467
60.467
60.467
60.467
60.467
60.467
60.467
60.467
60.467
60.467
60.467
60.467
60.467
60.467
60.467
60.467
60.467
60.467
60.467
60.467
60.467
60.467
60.467
60.467
60.467
60.467
60.467
60.467
60.467
60.467
60.467
60.467
60.467
60.467
60.467
60.467
60.467
60.467
60.4734
60.9549
62.9152
63.0867
61.991
61.5434
61.5967
61.6665
61.6655
61.6444
61.6133
61.5906
61.5712
61.5573
61.549
61.5442
61.5565
62.4873
68.4596
79.5596
91.179
101.901
111.881
120.742
128.503
135.404
141.681
147.506
153.001
158.272
163.396
168.437
173.461
178.527
183.688
188.998
194.489
200.161
206.02
211.929
218.05
60.467
60.467
60.467
60.467
60.467
60.467
60.467
60.467
60.467
60.467
60.467
60.467
60.467
60.467
60.467
60.467
60.467
60.467
60.467
60.467
60.467
60.467
60.467
60.467
60.467
60.467
60.467
60.467
60.467
60.467
60.467
60.467
60.467
60.467
60.467
60.467
60.467
60.467
60.467
60.4672
60.551
61.9245
63.0217
62.5223
61.6279
61.6024
61.6591
61.6683
61.6504
61.6165
61.5898
61.5693
61.5525
61.5413
61.5344
61.5313
61.6526
64.0013
72.5081
84.1447
95.3121
105.674
115.168
123.495
130.808
137.365
143.375
148.982
154.304
159.429
164.423
169.355
174.287
179.272
184.367
189.617
195.037
200.665
206.406
212.537
60.467
60.467
60.467
60.467
60.467
60.467
60.467
60.467
60.467
60.467
60.467
60.467
60.467
60.467
60.467
60.467
60.467
60.467
60.467
60.467
60.467
60.467
60.467
60.467
60.467
60.467
60.467
60.467
60.467
60.467
60.467
60.467
60.467
60.467
60.467
60.467
60.467
60.467
60.467
60.467
60.474
60.9716
62.6757
62.943
61.9178
61.6143
61.6582
61.6557
61.6548
61.6216
61.5911
61.5689
61.5503
61.5351
61.5256
61.5211
61.5212
62.0305
66.6252
76.9754
88.5701