/*--------------------------------*- C++ -*----------------------------------*\
| =========                 |                                                 |
| \\      /  F ield         | OpenFOAM: The Open Source CFD Toolbox           |
|  \\    /   O peration     | Version:  v2012                                 |
|   \\  /    A nd           | Website:  www.openfoam.com                      |
|    \\/     M anipulation  |                                                 |
\*---------------------------------------------------------------------------*/
FoamFile
{
    version     2.0;
    format      ascii;
    class       volScalarField;
    location    "1801";
    object      TuM;
}
// * * * * * * * * * * * * * * * * * * * * * * * * * * * * * * * * * * * * * //

dimensions      [0 0 0 0 0 0 0];


internalField   nonuniform List<scalar> 
8000
(
5.27668e-09
1.28149e-09
5.39489e-09
6.18747e-10
1.30799e-09
5.40358e-09
4.11368e-10
6.25435e-10
1.3174e-09
5.40386e-09
3.20108e-10
4.13778e-10
6.3164e-10
1.32539e-09
5.40387e-09
2.86565e-10
3.21366e-10
4.17443e-10
6.38032e-10
1.34032e-09
5.40387e-09
2.86565e-10
2.86565e-10
3.23714e-10
4.21906e-10
6.45993e-10
1.34581e-09
5.40387e-09
2.86565e-10
2.86565e-10
2.86565e-10
3.26892e-10
4.26987e-10
6.51523e-10
1.34709e-09
5.40387e-09
2.86565e-10
2.86565e-10
2.86565e-10
2.86565e-10
3.30606e-10
4.31592e-10
6.5601e-10
1.34734e-09
5.40387e-09
2.86565e-10
2.86565e-10
2.86565e-10
2.86565e-10
2.86565e-10
3.34391e-10
4.35781e-10
6.59952e-10
1.34738e-09
5.40387e-09
2.86565e-10
2.86565e-10
2.86565e-10
2.86565e-10
2.86565e-10
2.86565e-10
3.38064e-10
4.39617e-10
6.62055e-10
1.34739e-09
5.40387e-09
2.86565e-10
2.86565e-10
2.86565e-10
2.86565e-10
2.86565e-10
2.86565e-10
2.86871e-10
3.41537e-10
4.42716e-10
6.62883e-10
1.34739e-09
5.40387e-09
2.86565e-10
2.86565e-10
2.86565e-10
2.86565e-10
2.86565e-10
2.86565e-10
2.86565e-10
2.89076e-10
3.44637e-10
4.45041e-10
6.63155e-10
1.34739e-09
5.40387e-09
2.86565e-10
2.86565e-10
2.86565e-10
2.86565e-10
2.86565e-10
2.86565e-10
2.86565e-10
2.86565e-10
2.91729e-10
3.4728e-10
4.46351e-10
6.63236e-10
1.34739e-09
5.40387e-09
2.86565e-10
2.86565e-10
2.86565e-10
2.86565e-10
2.86565e-10
2.86565e-10
2.86565e-10
2.86565e-10
2.86565e-10
2.94293e-10
3.4931e-10
4.46932e-10
6.63259e-10
1.34739e-09
5.40387e-09
2.86565e-10
2.86565e-10
2.86565e-10
2.86565e-10
2.86565e-10
2.86565e-10
2.86565e-10
2.86565e-10
2.86565e-10
2.86565e-10
2.96507e-10
3.50573e-10
4.47152e-10
6.63265e-10
1.34739e-09
5.40387e-09
5.55135e-09
2.86565e-10
2.86565e-10
2.86565e-10
2.86565e-10
2.86565e-10
2.86565e-10
2.86565e-10
2.86565e-10
2.86565e-10
2.86565e-10
2.98187e-10
3.51194e-10
4.47227e-10
6.63267e-10
1.34739e-09
5.40387e-09
6.76051e-07
4.016e-09
2.86565e-10
2.86565e-10
2.86565e-10
2.86565e-10
2.86565e-10
2.86565e-10
2.86565e-10
2.86565e-10
2.86565e-10
2.86565e-10
2.9922e-10
3.5145e-10
4.47252e-10
6.63268e-10
1.34739e-09
5.40387e-09
7.41122e-05
4.45521e-07
2.50204e-09
2.86565e-10
2.86565e-10
2.86565e-10
2.86565e-10
2.86565e-10
2.86565e-10
2.86565e-10
2.86565e-10
2.86565e-10
2.86565e-10
2.99728e-10
3.51545e-10
4.47261e-10
6.63268e-10
1.34739e-09
5.40387e-09
0.00727552
4.34609e-05
2.59413e-07
1.50391e-09
2.86565e-10
2.86565e-10
2.86565e-10
2.86565e-10
2.86565e-10
2.86565e-10
2.86565e-10
2.86565e-10
2.86565e-10
2.86565e-10
2.99939e-10
3.51578e-10
4.47263e-10
6.63269e-10
1.34739e-09
5.40387e-09
0.0036801
0.33142
2.40954e-05
1.52639e-07
9.56132e-10
2.86565e-10
2.86565e-10
2.86565e-10
2.86565e-10
2.86565e-10
2.86565e-10
2.86565e-10
2.86565e-10
2.86565e-10
2.86565e-10
3.00018e-10
3.5159e-10
4.47265e-10
6.63269e-10
1.34739e-09
5.40387e-09
0.00201271
0.17271
0.0982292
1.444e-05
9.73667e-08
6.66162e-10
2.86565e-10
2.86565e-10
2.86565e-10
2.86565e-10
2.86565e-10
2.86565e-10
2.86565e-10
2.86565e-10
2.86565e-10
2.86565e-10
3.00047e-10
3.51594e-10
4.47265e-10
6.63269e-10
1.34739e-09
5.40387e-09
0.00125955
0.120774
0.0548802
0.0535499
9.57805e-06
6.635e-08
5.00176e-10
2.86565e-10
2.86565e-10
2.86565e-10
2.86565e-10
2.86565e-10
2.86565e-10
2.86565e-10
2.86565e-10
2.86565e-10
2.86565e-10
3.00057e-10
3.51595e-10
4.47265e-10
6.63269e-10
1.34739e-09
5.40387e-09
0.000864925
0.0918342
0.0563035
0.023331
0.0390386
6.6817e-06
4.60869e-08
3.98668e-10
2.86565e-10
2.86565e-10
2.86565e-10
2.86565e-10
2.86565e-10
2.86565e-10
2.86565e-10
2.86565e-10
2.86565e-10
2.86565e-10
3.00061e-10
3.51596e-10
4.47265e-10
6.63269e-10
1.34739e-09
5.40387e-09
0.000612224
0.0716804
0.0594349
0.0241091
0.0158084
0.0315688
4.68286e-06
3.15309e-08
3.37076e-10
2.86565e-10
2.86565e-10
2.86565e-10
2.86565e-10
2.86565e-10
2.86565e-10
2.86565e-10
2.86565e-10
2.86565e-10
2.86565e-10
3.00062e-10
3.51596e-10
4.47265e-10
6.63269e-10
1.34739e-09
5.40387e-09
0.00043113
0.0539348
0.058267
0.033284
0.0136867
0.0125624
0.0266012
3.2125e-06
2.05053e-08
3.03081e-10
2.86565e-10
2.86565e-10
2.86565e-10
2.86565e-10
2.86565e-10
2.86565e-10
2.86565e-10
2.86565e-10
2.86565e-10
2.86565e-10
3.00063e-10
3.51596e-10
4.47265e-10
6.63269e-10
1.34739e-09
5.40387e-09
0.000296181
0.0385769
0.0543617
0.0402559
0.0208756
0.00988477
0.0105412
0.0232722
2.08562e-06
1.19482e-08
2.8881e-10
2.86565e-10
2.86565e-10
2.86565e-10
2.86565e-10
2.86565e-10
2.86565e-10
2.86565e-10
2.86565e-10
2.86565e-10
2.86565e-10
3.00063e-10
3.51597e-10
4.47265e-10
6.63269e-10
1.34739e-09
5.40387e-09
0.000191953
0.0263978
0.048225
0.0430013
0.0301371
0.0149887
0.00818599
0.00923945
0.0208806
1.20237e-06
6.05838e-09
2.86565e-10
2.86565e-10
2.86565e-10
2.86565e-10
2.86565e-10
2.86565e-10
2.86565e-10
2.86565e-10
2.86565e-10
2.86565e-10
2.86565e-10
3.00063e-10
3.51597e-10
4.47265e-10
6.63269e-10
1.34739e-09
5.40387e-09
0.000109598
0.0169331
0.0411483
0.0423973
0.036892
0.023524
0.0124916
0.007476
0.00836543
0.0191314
5.99347e-07
2.58679e-09
2.86565e-10
2.86565e-10
2.86565e-10
2.86565e-10
2.86565e-10
2.86565e-10
2.86565e-10
2.86565e-10
2.86565e-10
2.86565e-10
2.86565e-10
3.00063e-10
3.51597e-10
4.47265e-10
6.63269e-10
1.34739e-09
5.40387e-09
5.38607e-05
0.00966684
0.0333997
0.0397857
0.0390917
0.0317641
0.0202725
0.011845
0.0074627
0.00781026
0.0178933
2.47904e-07
9.4117e-10
2.86565e-10
2.86565e-10
2.86565e-10
2.86565e-10
2.86565e-10
2.86565e-10
2.86565e-10
2.86565e-10
2.86565e-10
2.86565e-10
2.86565e-10
3.00064e-10
3.51597e-10
4.47265e-10
6.63269e-10
1.34739e-09
5.40387e-09
2.17441e-05
0.00469174
0.0257062
0.0355884
0.037466
0.0384264
0.0292313
0.0195974
0.0125609
0.00804115
0.00756924
0.0171051
8.31136e-08
3.85165e-10
2.86565e-10
2.86565e-10
2.86565e-10
2.86565e-10
2.86565e-10
2.86565e-10
2.86565e-10
2.86565e-10
2.86565e-10
2.86565e-10
2.86565e-10
3.00064e-10
3.51597e-10
4.47265e-10
6.63269e-10
1.34739e-09
5.40387e-09
7.02266e-06
0.00184919
0.0188927
0.0304168
0.0342998
0.03958
0.0378672
0.0292317
0.0210846
0.0143616
0.00933536
0.00771932
0.0167037
2.29728e-08
2.91914e-10
2.86565e-10
2.86565e-10
2.86565e-10
2.86565e-10
2.86565e-10
2.86565e-10
2.86565e-10
2.86565e-10
2.86565e-10
2.86565e-10
2.86565e-10
3.00064e-10
3.51597e-10
4.47265e-10
6.63269e-10
1.34739e-09
5.40387e-09
1.85623e-06
0.000575499
0.0131487
0.0249374
0.030616
0.0363269
0.0439367
0.0391975
0.0319876
0.0243187
0.01749
0.0116397
0.00832124
0.0167224
5.88955e-09
2.86565e-10
2.86565e-10
2.86565e-10
2.86565e-10
2.86565e-10
2.86565e-10
2.86565e-10
2.86565e-10
2.86565e-10
2.86565e-10
2.86565e-10
2.86565e-10
3.00064e-10
3.51597e-10
4.47265e-10
6.63269e-10
1.34739e-09
5.40387e-09
4.73378e-07
0.00014583
0.00863703
0.0198121
0.02664
0.0317191
0.0426633
0.0496724
0.0438869
0.0371232
0.0297785
0.0225444
0.0150763
0.00921396
0.0170535
1.69907e-09
2.86565e-10
2.86565e-10
2.86565e-10
2.86565e-10
2.86565e-10
2.86565e-10
2.86565e-10
2.86565e-10
2.86565e-10
2.86565e-10
2.86565e-10
2.86565e-10
3.00064e-10
3.51597e-10
4.47265e-10
6.63269e-10
1.34739e-09
5.40387e-09
1.42505e-07
3.75354e-05
0.00505687
0.0151374
0.0224926
0.0273053
0.0367354
0.0530464
0.0576469
0.0514949
0.0455901
0.0384944
0.0298072
0.0191017
0.0105061
0.0176099
5.57426e-10
2.86565e-10
2.86565e-10
2.86565e-10
2.86565e-10
2.86565e-10
2.86565e-10
2.86565e-10
2.86565e-10
2.86565e-10
2.86565e-10
2.86565e-10
2.86565e-10
3.00064e-10
3.51597e-10
4.47265e-10
6.63269e-10
1.34739e-09
5.40387e-09
4.14644e-08
1.19313e-05
0.00251665
0.0110658
0.0184029
0.0233425
0.0302392
0.0471418
0.0668507
0.0677754
0.0635863
0.0589406
0.0509585
0.0383652
0.0235563
0.0116953
0.0180416
3.06453e-10
2.86565e-10
2.86565e-10
2.86565e-10
2.86565e-10
2.86565e-10
2.86565e-10
2.86565e-10
2.86565e-10
2.86565e-10
2.86565e-10
2.86565e-10
2.86565e-10
3.00064e-10
3.51597e-10
4.47265e-10
6.63269e-10
1.34739e-09
5.40387e-09
9.64879e-09
3.48873e-06
0.000999152
0.00767937
0.0145849
0.019594
0.0249101
0.0375477
0.0643892
0.0836701
0.083552
0.0821842
0.0777848
0.0657178
0.0475075
0.0272709
0.0125351
0.0183322
2.86565e-10
2.86565e-10
2.86565e-10
2.86565e-10
2.86565e-10
2.86565e-10
2.86565e-10
2.86565e-10
2.86565e-10
2.86565e-10
2.86565e-10
2.86565e-10
2.86565e-10
3.00064e-10
3.51597e-10
4.47265e-10
6.63269e-10
1.34739e-09
5.40387e-09
1.89392e-09
7.87743e-07
0.00029658
0.00504949
0.0111098
0.0161665
0.0206578
0.0290851
0.0519277
0.0877213
0.1056
0.107202
0.10765
0.0997796
0.0811169
0.0551028
0.0298122
0.0130127
0.0184505
2.86565e-10
2.86565e-10
2.86565e-10
2.86565e-10
2.86565e-10
2.86565e-10
2.86565e-10
2.86565e-10
2.86565e-10
2.86565e-10
2.86565e-10
2.86565e-10
2.86565e-10
3.00064e-10
3.51597e-10
4.47265e-10
6.63269e-10
1.34739e-09
5.40387e-09
4.60887e-10
1.48647e-07
6.46391e-05
0.00306627
0.0081484
0.013029
0.0170393
0.0228905
0.0381717
0.0753187
0.116694
0.134728
0.138306
0.136193
0.121872
0.0938004
0.0602856
0.0312191
0.013275
0.0184519
2.86565e-10
2.86565e-10
2.86565e-10
2.86565e-10
2.86565e-10
2.86565e-10
2.86565e-10
2.86565e-10
2.86565e-10
2.86565e-10
2.86565e-10
2.86565e-10
2.86565e-10
3.00064e-10
3.51597e-10
4.47265e-10
6.63269e-10
1.34739e-09
5.40387e-09
2.92641e-10
2.93201e-08
1.18759e-05
0.00160564
0.00572873
0.0101745
0.0139406
0.0183918
0.0278325
0.0553399
0.10803
0.150957
0.169846
0.171138
0.163324
0.139549
0.102368
0.0631628
0.0320119
0.0133666
0.0183467
2.86565e-10
2.86565e-10
2.86565e-10
2.86565e-10
2.86565e-10
2.86565e-10
2.86565e-10
2.86565e-10
2.86565e-10
2.86565e-10
2.86565e-10
2.86565e-10
2.86565e-10
3.00064e-10
3.51597e-10
4.47265e-10
6.63269e-10
1.34739e-09
5.40387e-09
2.86565e-10
5.61237e-09
2.43083e-06
0.000659699
0.00381619
0.00768679
0.0112183
0.0148734
0.0209472
0.0380464
0.0830255
0.146711
0.187795
0.203691
0.200505
0.183982
0.151174
0.107111
0.0647715
0.0323123
0.0133631
0.0181794
2.86565e-10
2.86565e-10
2.86565e-10
2.86565e-10
2.86565e-10
2.86565e-10
2.86565e-10
2.86565e-10
2.86565e-10
2.86565e-10
2.86565e-10
2.86565e-10
2.86565e-10
3.00064e-10
3.51597e-10
4.47265e-10
6.63269e-10
1.34739e-09
5.40387e-09
2.86565e-10
9.20237e-10
4.69499e-07
0.000195382
0.00237721
0.00555581
0.00881899
0.0119877
0.0163118
0.0263303
0.0562548
0.120096
0.185841
0.221527
0.231856
0.221547
0.197089
0.157511
0.109715
0.0653742
0.0323619
0.0132951
0.0179761
2.86565e-10
2.86565e-10
2.86565e-10
2.86565e-10
2.86565e-10
2.86565e-10
2.86565e-10
2.86565e-10
2.86565e-10
2.86565e-10
2.86565e-10
2.86565e-10
2.86565e-10
3.00064e-10
3.51597e-10
4.47265e-10
6.63269e-10
1.34739e-09
5.40387e-09
2.86565e-10
3.09129e-10
7.09123e-08
3.9615e-05
0.00134036
0.00384102
0.00673929
0.0095301
0.0129407
0.0190361
0.0366264
0.0838315
0.160689
0.221079
0.248162
0.250775
0.234401
0.204077
0.160873
0.110652
0.0654576
0.0322369
0.0131746
0.0177388
2.86565e-10
2.86565e-10
2.86565e-10
2.86565e-10
2.86565e-10
2.86565e-10
2.86565e-10
2.86565e-10
2.86565e-10
2.86565e-10
2.86565e-10
2.86565e-10
2.86565e-10
3.00064e-10
3.51597e-10
4.47265e-10
6.63269e-10
1.34739e-09
5.40387e-09
2.86565e-10
2.86565e-10
9.58314e-09
5.75273e-06
0.000633701
0.00252687
0.00496736
0.00743206
0.0102644
0.0143926
0.0242997
0.0534296
0.118318
0.199586
0.248517
0.265441
0.262221
0.241089
0.207607
0.161991
0.110728
0.0651848
0.0319617
0.0130359
0.0174937
2.86565e-10
2.86565e-10
2.86565e-10
2.86565e-10
2.86565e-10
2.86565e-10
2.86565e-10
2.86565e-10
2.86565e-10
2.86565e-10
2.86565e-10
2.86565e-10
2.86565e-10
3.00064e-10
3.51597e-10
4.47265e-10
6.63269e-10
1.34739e-09
5.40387e-09
2.86565e-10
2.86565e-10
1.28841e-09
7.72142e-07
0.000225301
0.00156009
0.00351969
0.00566259
0.0080392
0.011177
0.0169824
0.0334178
0.076347
0.157461
0.231289
0.266711
0.276099
0.267939
0.244207
0.208662
0.161978
0.110222
0.0646088
0.0316475
0.0128858
0.017258
2.86565e-10
2.86565e-10
2.86565e-10
2.86565e-10
2.86565e-10
2.86565e-10
2.86565e-10
2.86565e-10
2.86565e-10
2.86565e-10
2.86565e-10
2.86565e-10
2.86565e-10
3.00064e-10
3.51597e-10
4.47265e-10
6.63269e-10
1.34739e-09
5.40387e-09
2.86565e-10
2.86565e-10
3.18669e-10
1.03279e-07
5.44403e-05
0.000882058
0.00237108
0.00419768
0.0061803
0.00871327
0.0125245
0.0215292
0.0465656
0.106798
0.194403
0.254491
0.278703
0.282197
0.270598
0.244987
0.208511
0.161201
0.109227
0.0639533
0.0313008
0.0127389
0.0170263
2.86565e-10
2.86565e-10
2.86565e-10
2.86565e-10
2.86565e-10
2.86565e-10
2.86565e-10
2.86565e-10
2.86565e-10
2.86565e-10
2.86565e-10
2.86565e-10
2.86565e-10
3.00064e-10
3.51597e-10
4.47265e-10
6.63269e-10
1.34739e-09
5.40387e-09
2.86565e-10
2.86565e-10
2.86565e-10
1.15299e-08
8.463e-06
0.000431252
0.00151867
0.00300284
0.00464997
0.0067157
0.00953399
0.0147134
0.0283807
0.0653815
0.141701
0.224768
0.269714
0.28633
0.285478
0.271209
0.244646
0.20753
0.159796
0.108103
0.0632337
0.0309591
0.0125837
0.0167833
2.86565e-10
2.86565e-10
2.86565e-10
2.86565e-10
2.86565e-10
2.86565e-10
2.86565e-10
2.86565e-10
2.86565e-10
2.86565e-10
2.86565e-10
2.86565e-10
2.86565e-10
3.00064e-10
3.51597e-10
4.47265e-10
6.63269e-10
1.34739e-09
5.40387e-09
2.86565e-10
2.86565e-10
2.86565e-10
1.19624e-09
9.23379e-07
0.000163434
0.00091364
0.00206775
0.00341804
0.00507827
0.00730272
0.0106595
0.0180197
0.0385968
0.0901375
0.17731
0.247565
0.280315
0.291081
0.286698
0.270818
0.243475
0.205877
0.158225
0.106879
0.0625251
0.0305885
0.0124168
0.0165456
2.86565e-10
2.86565e-10
2.86565e-10
2.86565e-10
2.86565e-10
2.86565e-10
2.86565e-10
2.86565e-10
2.86565e-10
2.86565e-10
2.86565e-10
2.86565e-10
2.86565e-10
3.00064e-10
3.51597e-10
4.47265e-10
6.63269e-10
1.34739e-09
5.40387e-09
2.86565e-10
2.86565e-10
2.86565e-10
3.04038e-10
9.26444e-08
4.2258e-05
0.000505167
0.00134883
0.00244548
0.00376071
0.00553339
0.00798141
0.0122309
0.0230712
0.0532197
0.121014
0.209079
0.26348
0.2876
0.293588
0.286847
0.269639
0.241658
0.204054
0.156529
0.105674
0.0617593
0.0301866
0.0122502
0.0163157
2.86565e-10
2.86565e-10
2.86565e-10
2.86565e-10
2.86565e-10
2.86565e-10
2.86565e-10
2.86565e-10
2.86565e-10
2.86565e-10
2.86565e-10
2.86565e-10
2.86565e-10
3.00064e-10
3.51597e-10
4.47265e-10
6.63269e-10
1.34739e-09
5.40387e-09
2.86565e-10
2.86565e-10
2.86565e-10
2.86565e-10
8.58147e-09
6.75947e-06
0.000243206
0.000833146
0.00169125
0.00272164
0.00411703
0.00601271
0.00879689
0.0145455
0.0306565
0.0737989
0.155971
0.233681
0.274625
0.29226
0.294811
0.286182
0.267849
0.239689
0.202101
0.15486
0.10438
0.0609305
0.0297829
0.0120823
0.0160932
2.86565e-10
2.86565e-10
2.86565e-10
2.86565e-10
2.86565e-10
2.86565e-10
2.86565e-10
2.86565e-10
2.86565e-10
2.86565e-10
2.86565e-10
2.86565e-10
2.86565e-10
3.00064e-10
3.51597e-10
4.47265e-10
6.63269e-10
1.34739e-09
5.40387e-09
2.86565e-10
2.86565e-10
2.86565e-10
2.86565e-10
7.5487e-10
6.77738e-07
9.12448e-05
0.000482863
0.00112321
0.0019258
0.00299527
0.00448336
0.00651404
0.00986505
0.0181231
0.0423926
0.101974
0.189126
0.2516
0.282579
0.295276
0.295053
0.284873
0.26592
0.237595
0.200178
0.153078
0.10298
0.0600992
0.0293706
0.0119194
0.0158727
2.86565e-10
2.86565e-10
2.86565e-10
2.86565e-10
2.86565e-10
2.86565e-10
2.86565e-10
2.86565e-10
2.86565e-10
2.86565e-10
2.86565e-10
2.86565e-10
2.86565e-10
3.00064e-10
3.51597e-10
4.47265e-10
6.63269e-10
1.34739e-09
5.40387e-09
2.86565e-10
2.86565e-10
2.86565e-10
2.86565e-10
2.88873e-10
5.43876e-08
2.30687e-05
0.000256246
0.000706252
0.00132728
0.00213189
0.0032794
0.00484111
0.00707057
0.0114408
0.0239614
0.0609598
0.134839
0.215747
0.264218
0.288319
0.296992
0.294527
0.283354
0.263867
0.235533
0.198134
0.151148
0.101579
0.0592518
0.0289704
0.0117559
0.0156581
2.86565e-10
2.86565e-10
2.86565e-10
2.86565e-10
2.86565e-10
2.86565e-10
2.86565e-10
2.86565e-10
2.86565e-10
2.86565e-10
2.86565e-10
2.86565e-10
2.86565e-10
3.00064e-10
3.51597e-10
4.47265e-10
6.63269e-10
1.34739e-09
5.40387e-09
2.86565e-10
2.86565e-10
2.86565e-10
2.86565e-10
2.86565e-10
4.06865e-09
3.47113e-06
0.000117408
0.00041821
0.000883789
0.00148356
0.00234691
0.00355402
0.00518943
0.00778536
0.0140646
0.0343757
0.0859342
0.167274
0.235907
0.273645
0.292284
0.297704
0.293667
0.281652
0.261837
0.233364
0.19592
0.149215
0.100154
0.0584297
0.0285675
0.0115994
0.0154578
2.86565e-10
2.86565e-10
2.86565e-10
2.86565e-10
2.86565e-10
2.86565e-10
2.86565e-10
2.86565e-10
2.86565e-10
2.86565e-10
2.86565e-10
2.86565e-10
2.86565e-10
3.00064e-10
3.51597e-10
4.47265e-10
6.63269e-10
1.34739e-09
5.40387e-09
2.86565e-10
2.86565e-10
2.86565e-10
2.86565e-10
2.86565e-10
3.9208e-10
3.07092e-07
4.10656e-05
0.000231328
0.000564704
0.00100958
0.00164088
0.00255902
0.00380587
0.00556661
0.00890045
0.0190918
0.0506848
0.115375
0.195798
0.25102
0.280752
0.294874
0.297868
0.292532
0.279916
0.259702
0.231115
0.1937
0.14725
0.0987706
0.0576034
0.0281844
0.0114511
0.015263
2.86565e-10
2.86565e-10
2.86565e-10
2.86565e-10
2.86565e-10
2.86565e-10
2.86565e-10
2.86565e-10
2.86565e-10
2.86565e-10
2.86565e-10
2.86565e-10
2.86565e-10
3.00064e-10
3.51597e-10
4.47265e-10
6.63269e-10
1.34739e-09
5.40387e-09
2.86565e-10
2.86565e-10
2.86565e-10
2.86565e-10
2.86565e-10
2.86565e-10
2.03175e-08
9.32535e-06
0.000115923
0.000339502
0.0006694
0.00112256
0.00180101
0.00275236
0.00404604
0.00606553
0.0110722
0.0282001
0.0726728
0.146313
0.218396
0.262176
0.285991
0.296569
0.297595
0.291282
0.278038
0.257502
0.228855
0.191442
0.14534
0.0973822
0.0568179
0.0278193
0.0113034
0.0150749
2.86565e-10
2.86565e-10
2.86565e-10
2.86565e-10
2.86565e-10
2.86565e-10
2.86565e-10
2.86565e-10
2.86565e-10
2.86565e-10
2.86565e-10
2.86565e-10
2.86565e-10
3.00064e-10
3.51597e-10
4.47265e-10
6.63269e-10
1.34739e-09
5.40387e-09
2.86565e-10
2.86565e-10
2.86565e-10
2.86565e-10
2.86565e-10
2.86565e-10
1.2565e-09
1.19669e-06
4.89607e-05
0.000191324
0.000428007
0.000751157
0.00123906
0.00195013
0.00292588
0.00431116
0.00696576
0.0154796
0.0425852
0.0986523
0.175137
0.235754
0.270779
0.289869
0.29756
0.297077
0.289833
0.276066
0.255279
0.22655
0.189241
0.143423
0.0960616
0.0560698
0.0274532
0.0111635
0.0148944
2.86565e-10
2.86565e-10
2.86565e-10
2.86565e-10
2.86565e-10
2.86565e-10
2.86565e-10
2.86565e-10
2.86565e-10
2.86565e-10
2.86565e-10
2.86565e-10
2.86565e-10
3.00064e-10
3.51597e-10
4.47265e-10
6.63269e-10
1.34739e-09
5.40387e-09
2.86565e-10
2.86565e-10
2.86565e-10
2.86565e-10
2.86565e-10
2.86565e-10
2.91567e-10
8.71598e-08
1.50656e-05
9.98967e-05
0.000261651
0.000491793
0.000832858
0.00135122
0.0020819
0.00309417
0.00471491
0.008859
0.0235663
0.0615698
0.126847
0.199739
0.249052
0.277557
0.292672
0.298097
0.296261
0.288234
0.274034
0.253004
0.224294
0.18703
0.141595
0.0948033
0.0553204
0.0271086
0.0110264
0.014718
2.86565e-10
2.86565e-10
2.86565e-10
2.86565e-10
2.86565e-10
2.86565e-10
2.86565e-10
2.86565e-10
2.86565e-10
2.86565e-10
2.86565e-10
2.86565e-10
2.86565e-10
3.00064e-10
3.51597e-10
4.47265e-10
6.63269e-10
1.34739e-09
5.40387e-09
2.86565e-10
2.86565e-10
2.86565e-10
2.86565e-10
2.86565e-10
2.86565e-10
2.86565e-10
4.79543e-09
2.82352e-06
4.62152e-05
0.000149445
0.000313323
0.000548296
0.000914427
0.00145143
0.00220063
0.00330955
0.0054921
0.0128451
0.0358214
0.0842127
0.155059
0.219374
0.25935
0.282816
0.294713
0.298175
0.295218
0.286525
0.271926
0.250769
0.222026
0.184916
0.139849
0.0935444
0.0546154
0.0267691
0.0108921
0.0145488
2.86565e-10
2.86565e-10
2.86565e-10
2.86565e-10
2.86565e-10
2.86565e-10
2.86565e-10
2.86565e-10
2.86565e-10
2.86565e-10
2.86565e-10
2.86565e-10
2.86565e-10
3.00064e-10
3.51597e-10
4.47265e-10
6.63269e-10
1.34739e-09
5.40387e-09
2.86565e-10
2.86565e-10
2.86565e-10
2.86565e-10
2.86565e-10
2.86565e-10
2.86565e-10
3.70143e-10
2.80666e-07
1.71748e-05
7.9544e-05
0.000191728
0.000353157
0.000605274
0.000989323
0.00153871
0.00233452
0.00365796
0.0072393
0.0197487
0.0520532
0.109501
0.180714
0.234789
0.267623
0.286919
0.296051
0.297904
0.293997
0.284702
0.269835
0.248518
0.219849
0.182888
0.138102
0.0923587
0.0539212
0.0264361
0.0107638
0.0143843
2.86565e-10
2.86565e-10
2.86565e-10
2.86565e-10
2.86565e-10
2.86565e-10
2.86565e-10
2.86565e-10
2.86565e-10
2.86565e-10
2.86565e-10
2.86565e-10
2.86565e-10
3.00064e-10
3.51597e-10
4.47265e-10
6.63269e-10
1.34739e-09
5.40387e-09
2.86565e-10
2.86565e-10
2.86565e-10
2.86565e-10
2.86565e-10
2.86565e-10
2.86565e-10
2.86565e-10
1.59667e-08
4.30546e-06
3.8569e-05
0.000111258
0.000222421
0.00039166
0.000659477
0.00105407
0.00162785
0.00252108
0.00438254
0.0106945
0.0300177
0.0717592
0.136139
0.202259
0.246927
0.274377
0.289987
0.296854
0.297357
0.292605
0.28286
0.267711
0.246348
0.217752
0.180859
0.136452
0.0911918
0.053241
0.0261187
0.0106367
0.0142238
2.86565e-10
2.86565e-10
2.86565e-10
2.86565e-10
2.86565e-10
2.86565e-10
2.86565e-10
2.86565e-10
2.86565e-10
2.86565e-10
2.86565e-10
2.86565e-10
2.86565e-10
3.00064e-10
3.51597e-10
4.47265e-10
6.63269e-10
1.34739e-09
5.40387e-09
2.86565e-10
2.86565e-10
2.86565e-10
2.86565e-10
2.86565e-10
2.86565e-10
2.86565e-10
2.86565e-10
7.79985e-10
6.01184e-07
1.5945e-05
5.99623e-05
0.000135684
0.000248362
0.000429605
0.000706997
0.00111512
0.00174305
0.00284189
0.00593545
0.0164553
0.0438798
0.0943042
0.161806
0.219753
0.256748
0.279729
0.292252
0.297227
0.296554
0.291141
0.280958
0.265648
0.244248
0.21565
0.178935
0.134827
0.0900488
0.0525926
0.0258025
0.0105122
0.0140698
2.86565e-10
2.86565e-10
2.86565e-10
2.86565e-10
2.86565e-10
2.86565e-10
2.86565e-10
2.86565e-10
2.86565e-10
2.86565e-10
2.86565e-10
2.86565e-10
2.86565e-10
3.00064e-10
3.51597e-10
4.47265e-10
6.63269e-10
1.34739e-09
5.40387e-09
2.86565e-10
2.86565e-10
2.86565e-10
2.86565e-10
2.86565e-10
2.86565e-10
2.86565e-10
2.86565e-10
2.86566e-10
4.22839e-08
4.87973e-06
2.98179e-05
7.92221e-05
0.000154059
0.000273865
0.000463906
0.000749232
0.00119025
0.00190896
0.00349877
0.00884228
0.0251192
0.061012
0.11866
0.184877
0.233857
0.264839
0.283941
0.293864
0.297216
0.295603
0.289574
0.279089
0.26364
0.24214
0.213649
0.177035
0.133233
0.0889584
0.0519473
0.0254925
0.0103919
0.0139186
2.86565e-10
2.86565e-10
2.86565e-10
2.86565e-10
2.86565e-10
2.86565e-10
2.86565e-10
2.86565e-10
2.86565e-10
2.86565e-10
2.86565e-10
2.86565e-10
2.86565e-10
3.00064e-10
3.51597e-10
4.47265e-10
6.63269e-10
1.34739e-09
5.40387e-09
2.86565e-10
2.86565e-10
2.86565e-10
2.86565e-10
2.86565e-10
2.86565e-10
2.86565e-10
2.86565e-10
2.86565e-10
1.89368e-09
9.01624e-07
1.31021e-05
4.31281e-05
9.31945e-05
0.000170889
0.000297845
0.000493385
0.000798221
0.00128825
0.00219913
0.00483276
0.0137062
0.0368486
0.0808456
0.143668
0.20421
0.245169
0.271514
0.287208
0.294909
0.296944
0.294486
0.287996
0.277249
0.261613
0.240127
0.211668
0.17517
0.131709
0.0878735
0.0513148
0.0251925
0.0102727
0.0137727
2.86565e-10
2.86565e-10
2.86565e-10
2.86565e-10
2.86565e-10
2.86565e-10
2.86565e-10
2.86565e-10
2.86565e-10
2.86565e-10
2.86565e-10
2.86565e-10
2.86565e-10
3.00064e-10
3.51597e-10
4.47265e-10
6.63269e-10
1.34739e-09
5.40387e-09
2.86565e-10
2.86565e-10
2.86565e-10
2.86565e-10
2.86565e-10
2.86565e-10
2.86565e-10
2.86565e-10
2.86565e-10
2.92165e-10
8.35679e-08
4.59539e-06
2.16492e-05
5.42677e-05
0.000104403
0.000187121
0.00031845
0.000524939
0.000859645
0.00143389
0.00277638
0.0073141
0.0208992
0.051554
0.102878
0.167337
0.220103
0.254613
0.276928
0.289658
0.295537
0.296414
0.293299
0.286412
0.275375
0.259667
0.238129
0.20972
0.173378
0.130191
0.0868102
0.0507032
0.0248944
0.01016
0.0136351
2.86565e-10
2.86565e-10
2.86565e-10
2.86565e-10
2.86565e-10
2.86565e-10
2.86565e-10
2.86565e-10
2.86565e-10
2.86565e-10
2.86565e-10
2.86565e-10
2.86565e-10
3.00063e-10
3.51597e-10
4.47265e-10
6.63269e-10
1.34739e-09
5.40387e-09
2.86565e-10
2.86565e-10
2.86565e-10
2.86565e-10
2.86565e-10
2.86565e-10
2.86565e-10
2.86565e-10
2.86565e-10
2.86565e-10
4.01926e-09
1.06201e-06
9.86498e-06
2.98669e-05
6.24351e-05
0.000114998
0.000201384
0.00033856
0.000563705
0.000942063
0.00169052
0.00393591
0.0113194
0.0306987
0.0688975
0.126509
0.188323
0.233147
0.262549
0.281217
0.291476
0.295776
0.295731
0.292055
0.284765
0.273562
0.257727
0.236159
0.207841
0.17159
0.1287
0.0857816
0.0500956
0.0246144
0.0100529
0.0135002
2.86565e-10
2.86565e-10
2.86565e-10
2.86565e-10
2.86565e-10
2.86565e-10
2.86565e-10
2.86565e-10
2.86565e-10
2.86565e-10
2.86565e-10
2.86565e-10
2.86565e-10
3.00063e-10
3.51597e-10
4.47265e-10
6.63269e-10
1.34739e-09
5.40387e-09
2.86565e-10
2.86565e-10
2.86565e-10
2.86565e-10
2.86565e-10
2.86565e-10
2.86565e-10
2.86565e-10
2.86565e-10
2.86565e-10
3.19562e-10
1.29339e-07
3.74224e-06
1.51584e-05
3.61249e-05
6.92731e-05
0.000124657
0.000214287
0.000362671
0.000613238
0.00106884
0.0022009
0.00598354
0.0172164
0.0431856
0.088792
0.150247
0.205977
0.243892
0.269144
0.284605
0.292727
0.295747
0.294925
0.29071
0.283152
0.271742
0.255807
0.234253
0.205961
0.16983
0.127256
0.0847606
0.0495252
0.0243481
0.00994578
0.013368
2.86565e-10
2.86565e-10
2.86565e-10
2.86565e-10
2.86565e-10
2.86565e-10
2.86565e-10
2.86565e-10
2.86565e-10
2.86565e-10
2.86565e-10
2.86565e-10
2.86565e-10
3.00063e-10
3.51597e-10
4.47265e-10
6.63269e-10
1.34739e-09
5.40387e-09
2.86565e-10
2.86565e-10
2.86565e-10
2.86565e-10
2.86565e-10
2.86565e-10
2.86565e-10
2.86565e-10
2.86565e-10
2.86565e-10
2.86565e-10
7.38047e-09
1.00955e-06
6.98543e-06
1.99253e-05
4.08006e-05
7.55784e-05
0.000133114
0.000228938
0.000392879
0.000683157
0.00129506
0.00316724
0.00923948
0.0253129
0.0584577
0.11072
0.17226
0.220661
0.253041
0.274549
0.287184
0.293552
0.295504
0.293963
0.289361
0.281508
0.269929
0.253941
0.232341
0.204105
0.16812
0.125822
0.0838011
0.0489826
0.0240798
0.00984202
0.0132404
2.86565e-10
2.86565e-10
2.86565e-10
2.86565e-10
2.86565e-10
2.86565e-10
2.86565e-10
2.86565e-10
2.86565e-10
2.86565e-10
2.86565e-10
2.86565e-10
2.86565e-10
3.00063e-10
3.51597e-10
4.47265e-10
6.63269e-10
1.34739e-09
5.40387e-09
2.86565e-10
2.86565e-10
2.86565e-10
2.86565e-10
2.86565e-10
2.86565e-10
2.86565e-10
2.86565e-10
2.86565e-10
2.86565e-10
2.86565e-10
3.8537e-10
1.53638e-07
2.79817e-06
1.01531e-05
2.33934e-05
4.48766e-05
8.11377e-05
0.000141863
0.000247307
0.000433708
0.000791779
0.00172468
0.00483224
0.0140177
0.0359732
0.0762527
0.13377
0.191516
0.232841
0.260803
0.278853
0.289127
0.294037
0.295033
0.292948
0.287951
0.279852
0.268155
0.252063
0.230452
0.202298
0.16642
0.124471
0.0828877
0.0484365
0.023821
0.00974119
0.0131139
2.86565e-10
2.86565e-10
2.86565e-10
2.86565e-10
2.86565e-10
2.86565e-10
2.86565e-10
2.86565e-10
2.86565e-10
2.86565e-10
2.86565e-10
2.86565e-10
2.86565e-10
3.00063e-10
3.51597e-10
4.47265e-10
6.63269e-10
1.34739e-09
5.40387e-09
2.86565e-10
2.86565e-10
2.86565e-10
2.86565e-10
2.86565e-10
2.86565e-10
2.86565e-10
2.86565e-10
2.86565e-10
2.86565e-10
2.86565e-10
2.86566e-10
1.07966e-08
8.43283e-07
4.7301e-06
1.28588e-05
2.60635e-05
4.85029e-05
8.6389e-05
0.000152857
0.000271384
0.000491261
0.000981379
0.00251621
0.0074431
0.0207378
0.0492738
0.0963713
0.15629
0.207803
0.243139
0.267277
0.282258
0.290563
0.294193
0.29444
0.291833
0.286503
0.278216
0.266362
0.250205
0.228608
0.200501
0.164815
0.123182
0.0819692
0.0479097
0.023569
0.00963999
0.0129897
2.86565e-10
2.86565e-10
2.86565e-10
2.86565e-10
2.86565e-10
2.86565e-10
2.86565e-10
2.86565e-10
2.86565e-10
2.86565e-10
2.86565e-10
2.86565e-10
2.86565e-10
3.00063e-10
3.51597e-10
4.47265e-10
6.63269e-10
1.34739e-09
5.40387e-09
2.86565e-10
2.86565e-10
2.86565e-10
2.86565e-10
2.86565e-10
2.86565e-10
2.86565e-10
2.86565e-10
2.86565e-10
2.86565e-10
2.86565e-10
2.86565e-10
4.84769e-10
1.53676e-07
1.94226e-06
6.5904e-06
1.47911e-05
2.83786e-05
5.17267e-05
9.28081e-05
0.000166916
0.000303757
0.000579996
0.00133592
0.00384809
0.0113288
0.0297392
0.0651409
0.118202
0.17685
0.221519
0.251996
0.272555
0.284937
0.291528
0.294138
0.293698
0.290645
0.285054
0.276548
0.264588
0.248386
0.226774
0.198797
0.163276
0.121885
0.0810829
0.0473972
0.0233153
0.00954156
0.0128677
2.86565e-10
2.86565e-10
2.86565e-10
2.86565e-10
2.86565e-10
2.86565e-10
2.86565e-10
2.86565e-10
2.86565e-10
2.86565e-10
2.86565e-10
2.86565e-10
2.86565e-10
3.00063e-10
3.51597e-10
4.47265e-10
6.63269e-10
1.34739e-09
5.40387e-09
2.86565e-10
2.86565e-10
2.86565e-10
2.86565e-10
2.86565e-10
2.86565e-10
2.86565e-10
2.86565e-10
2.86565e-10
2.86565e-10
2.86565e-10
2.86565e-10
2.86567e-10
1.32768e-08
6.3027e-07
3.07893e-06
8.06816e-06
1.62789e-05
3.03991e-05
5.53724e-05
0.000100883
0.000185411
0.000349153
0.000735714
0.00197169
0.00594371
0.0168585
0.0412419
0.0833874
0.140658
0.194679
0.232959
0.25951
0.276851
0.286956
0.292162
0.293862
0.292835
0.289431
0.283559
0.274889
0.262845
0.246574
0.225031
0.197159
0.161729
0.120632
0.0802202
0.0468812
0.0230693
0.00944286
0.0127458
2.86565e-10
2.86565e-10
2.86565e-10
2.86565e-10
2.86565e-10
2.86565e-10
2.86565e-10
2.86565e-10
2.86565e-10
2.86565e-10
2.86565e-10
2.86565e-10
2.86565e-10
3.00063e-10
3.51597e-10
4.47265e-10
6.63269e-10
1.34739e-09
5.40387e-09
2.86565e-10
2.86565e-10
2.86565e-10
2.86565e-10
2.86565e-10
2.86565e-10
2.86565e-10
2.86565e-10
2.86565e-10
2.86565e-10
2.86565e-10
2.86565e-10
2.86565e-10
5.95846e-10
1.31281e-07
1.28463e-06
4.14414e-06
9.11932e-06
1.75428e-05
3.24737e-05
5.99356e-05
0.000111332
0.00021024
0.000420175
0.00102218
0.00303362
0.00908412
0.0243927
0.0552651
0.103777
0.162054
0.209791
0.242859
0.265851
0.280238
0.288479
0.292478
0.293405
0.291909
0.28815
0.282054
0.273246
0.261101
0.244848
0.223349
0.195509
0.160229
0.119411
0.0793523
0.0463811
0.0228211
0.00934217
0.0126261
2.86565e-10
2.86565e-10
2.86565e-10
2.86565e-10
2.86565e-10
2.86565e-10
2.86565e-10
2.86565e-10
2.86565e-10
2.86565e-10
2.86565e-10
2.86565e-10
2.86565e-10
3.00063e-10
3.51597e-10
4.47265e-10
6.63269e-10
1.34739e-09