/*--------------------------------*- C++ -*----------------------------------*\
| =========                 |                                                 |
| \\      /  F ield         | OpenFOAM: The Open Source CFD Toolbox           |
|  \\    /   O peration     | Version:  v2012                                 |
|   \\  /    A nd           | Website:  www.openfoam.com                      |
|    \\/     M anipulation  |                                                 |
\*---------------------------------------------------------------------------*/
FoamFile
{
    version     2.0;
    format      ascii;
    class       volVectorField;
    location    "1801";
    object      U;
}
// * * * * * * * * * * * * * * * * * * * * * * * * * * * * * * * * * * * * * //

dimensions      [0 1 -1 0 0 0 0];


internalField   nonuniform List<vector> 
8000
(
(703.36 -3.5665e-15 0)
(703.36 -9.77152e-14 0)
(703.36 -4.07919e-14 0)
(703.36 -5.70485e-14 0)
(703.36 -1.46656e-13 0)
(703.36 -2.74379e-14 0)
(703.36 1.43513e-13 0)
(703.36 -7.57013e-14 0)
(703.36 -1.25411e-13 0)
(703.36 3.63591e-14 0)
(703.36 -1.31702e-13 0)
(703.36 9.57233e-14 0)
(703.36 -5.27213e-15 0)
(703.36 -1.14879e-13 0)
(703.36 -3.99264e-14 0)
(703.36 7.80312e-14 0)
(703.36 -8.87697e-14 0)
(703.36 7.38252e-14 0)
(703.36 2.50331e-14 0)
(703.36 -1.15315e-13 0)
(703.36 -1.1621e-13 0)
(703.36 -2.47058e-14 0)
(703.36 1.28661e-13 0)
(703.36 7.58263e-14 0)
(703.36 9.41516e-14 0)
(703.36 -6.05323e-14 0)
(703.36 -1.90136e-13 0)
(703.36 -9.31995e-14 0)
(703.36 4.52239e-14 0)
(703.36 4.65702e-14 0)
(703.36 1.67411e-13 0)
(703.36 9.01546e-14 0)
(703.36 1.01841e-13 0)
(703.36 -4.83519e-14 0)
(703.36 -2.4301e-13 0)
(703.36 -9.1563e-14 0)
(703.36 7.72386e-14 0)
(703.36 -2.92872e-14 0)
(703.36 -4.90189e-14 0)
(703.36 2.21057e-13 0)
(703.36 -3.39756e-14 0)
(703.36 9.88506e-14 0)
(703.36 6.11095e-14 0)
(703.36 -1.93947e-13 0)
(703.36 -9.09193e-14 0)
(703.36 5.92778e-14 0)
(703.36 2.38287e-14 0)
(703.36 -1.12661e-13 0)
(703.36 -1.10404e-14 0)
(703.36 2.4907e-13 0)
(703.36 1.26078e-13 0)
(703.36 -3.83046e-14 0)
(703.36 -1.21849e-14 0)
(703.36 -1.22952e-13 0)
(703.36 -3.51286e-14 0)
(703.36 -6.02381e-15 0)
(703.36 1.29906e-14 0)
(703.36 -2.12003e-14 0)
(703.36 -6.60284e-14 0)
(703.36 8.0271e-14 0)
(703.36 2.00572e-13 0)
(703.36 1.58809e-13 0)
(703.36 -8.84315e-15 0)
(703.36 -3.44135e-14 0)
(703.36 -1.0916e-13 0)
(703.36 2.51815e-14 0)
(703.36 9.06885e-14 0)
(703.36 -1.78635e-14 0)
(703.36 4.71828e-14 0)
(703.36 -6.35231e-14 0)
(703.36 -5.30684e-14 0)
(703.36 3.17327e-15 0)
(703.36 1.7781e-13 0)
(703.36 9.50027e-14 0)
(703.36 6.58822e-14 0)
(703.36 -6.47428e-14 0)
(703.36 -4.37791e-14 0)
(703.36 -4.09873e-14 0)
(703.36 -3.82016e-14 0)
(703.36 2.31408e-14 0)
(703.36 8.11215e-14 0)
(703.36 8.22114e-14 0)
(703.36 -1.19864e-13 0)
(703.36 -7.58176e-14 0)
(703.36 -4.90917e-14 0)
(703.36 1.53794e-13 0)
(703.36 1.38401e-13 0)
(703.36 1.67704e-13 0)
(703.36 -8.54975e-14 0)
(703.36 -1.05832e-13 0)
(703.36 -2.63484e-14 0)
(703.36 1.02019e-13 0)
(703.36 -3.32909e-14 0)
(703.36 -1.51275e-13 0)
(703.36 -1.21976e-14 0)
(703.36 -1.07197e-14 0)
(703.36 -6.96236e-14 0)
(703.36 -9.38248e-14 0)
(703.36 2.1832e-15 0)
(703.36 1.35999e-13 0)
(703.36 2.52205e-13 0)
(703.36 9.37662e-15 0)
(703.36 -1.29819e-13 0)
(703.36 -1.25229e-13 0)
(703.36 3.92555e-14 0)
(703.36 1.8649e-14 0)
(703.36 2.92102e-14 0)
(703.36 -1.56764e-14 0)
(703.36 -2.60906e-14 0)
(703.36 -3.44922e-14 0)
(703.36 4.08426e-14 0)
(703.36 -7.86595e-14 0)
(703.36 -4.88543e-14 0)
(703.36 3.68252e-14 0)
(703.36 1.30255e-13 0)
(703.36 7.652e-14 0)
(703.36 -3.79559e-14 0)
(703.36 -3.99082e-14 0)
(703.36 -3.76079e-14 0)
(703.36 1.53135e-14 0)
(703.36 9.05555e-14 0)
(703.36 1.63867e-14 0)
(703.36 -3.24066e-14 0)
(703.36 -1.18869e-13 0)
(703.36 9.03625e-14 0)
(703.36 6.42429e-14 0)
(703.36 8.89152e-14 0)
(703.36 -2.21162e-13 0)
(703.36 -8.64778e-14 0)
(703.36 7.93234e-14 0)
(703.36 1.07127e-13 0)
(703.36 7.38932e-14 0)
(703.36 1.86487e-14 0)
(703.36 1.34084e-13 0)
(703.36 -1.33491e-13 0)
(703.36 7.06956e-14 0)
(703.36 1.74833e-10 0)
(703.36 1.80109e-13 0)
(703.36 1.46678e-14 0)
(703.36 -8.45444e-15 0)
(703.36 -1.0356e-13 0)
(703.36 1.13587e-13 0)
(703.36 -3.30194e-14 0)
(703.36 1.65404e-13 0)
(703.36 -7.77091e-14 0)
(703.36 -4.22371e-14 0)
(703.36 1.25251e-13 0)
(703.36 6.20491e-14 0)
(703.36 1.86863e-13 0)
(703.36 -2.81278e-14 0)
(703.36 4.30447e-16 0)
(703.36 -9.95564e-14 0)
(703.36 9.88675e-15 0)
(703.36 4.45106e-08 0)
(703.36 3.62118e-10 0)
(703.36 2.408e-13 0)
(703.36 5.31381e-14 0)
(703.36 4.6827e-14 0)
(703.36 -4.7046e-14 0)
(703.36 -3.20685e-15 0)
(703.36 -1.82417e-13 0)
(703.36 8.80712e-14 0)
(703.36 -1.24558e-14 0)
(703.36 -3.39311e-14 0)
(703.36 4.48119e-14 0)
(703.36 1.72906e-13 0)
(703.36 1.0663e-13 0)
(703.36 -7.43542e-14 0)
(703.36 -3.78756e-14 0)
(703.36 -1.2248e-13 0)
(703.36 4.66553e-14 0)
(703.357 5.84976e-05 0)
(703.36 4.90695e-08 0)
(703.36 4.36011e-10 0)
(703.36 2.45733e-13 0)
(703.36 1.31892e-13 0)
(703.36 1.43544e-13 0)
(703.36 -4.17712e-14 0)
(703.36 -6.77771e-14 0)
(703.36 -4.33401e-14 0)
(703.36 4.58029e-14 0)
(703.36 -6.75976e-14 0)
(703.36 -1.16327e-13 0)
(703.36 1.31083e-14 0)
(703.36 1.47481e-13 0)
(703.36 9.32369e-14 0)
(703.36 -1.24217e-14 0)
(703.36 -1.44639e-14 0)
(703.36 -1.71337e-13 0)
(703.36 9.65316e-14 0)
(703.243 0.278829 0)
(703.359 0.000121731 0)
(703.36 6.1428e-08 0)
(703.36 4.36082e-10 0)
(703.36 2.82362e-13 0)
(703.36 8.02243e-14 0)
(703.36 1.38343e-13 0)
(703.36 -4.0247e-14 0)
(703.36 4.02666e-14 0)
(703.36 -8.61988e-14 0)
(703.36 -2.21388e-14 0)
(703.36 -3.07637e-14 0)
(703.36 -4.84413e-14 0)
(703.36 1.05446e-14 0)
(703.36 -6.04745e-14 0)
(703.36 5.40968e-14 0)
(703.36 -1.09983e-14 0)
(703.36 1.88421e-14 0)
(703.36 -1.82765e-13 0)
(703.36 6.07276e-14 0)
(703.278 0.0916672 0)
(319.452 21.4892 0)
(703.359 0.000140876 0)
(703.36 5.77908e-08 0)
(703.36 3.94449e-10 0)
(703.36 2.89612e-13 0)
(703.36 9.82951e-14 0)
(703.36 8.99241e-14 0)
(703.36 9.87876e-14 0)
(703.36 4.92215e-14 0)
(703.36 -3.94562e-14 0)
(703.36 -6.93052e-14 0)
(703.36 -3.44784e-14 0)
(703.36 1.1941e-13 0)
(703.36 1.42838e-14 0)
(703.36 7.04304e-14 0)
(703.36 -5.81365e-16 0)
(703.36 -5.97951e-14 0)
(703.36 -8.24411e-14 0)
(703.36 -1.50336e-13 0)
(703.36 -2.8991e-14 0)
(703.323 0.116147 0)
(520.465 45.758 0)
(97.7097 1.36456 0)
(703.36 8.01724e-05 0)
(703.36 5.05001e-08 0)
(703.36 3.51189e-10 0)
(703.36 2.65514e-13 0)
(703.36 1.37745e-13 0)
(703.36 8.85266e-14 0)
(703.36 -3.03435e-14 0)
(703.36 3.56694e-14 0)
(703.36 5.37379e-14 0)
(703.36 -1.45715e-14 0)
(703.36 -2.63323e-14 0)
(703.36 -1.37042e-13 0)
(703.36 7.47821e-14 0)
(703.36 6.06897e-14 0)
(703.36 8.31084e-14 0)
(703.36 -3.39966e-14 0)
(703.36 -2.2703e-13 0)
(703.36 -1.15482e-13 0)
(703.36 1.07183e-13 0)
(703.33 0.091851 0)
(609.443 50.6848 0)
(277.859 7.5088 0)
(59.1713 0.277641 0)
(703.36 3.18342e-05 0)
(703.36 4.50108e-08 0)
(703.36 2.95188e-10 0)
(703.36 2.6623e-13 0)
(703.36 3.1325e-14 0)
(703.36 1.30484e-13 0)
(703.36 -2.75879e-14 0)
(703.36 1.15198e-13 0)
(703.36 5.71459e-14 0)
(703.36 -8.6443e-14 0)
(703.36 -4.10421e-14 0)
(703.36 -2.40078e-13 0)
(703.36 4.05632e-14 0)
(703.36 2.04551e-14 0)
(703.36 8.05311e-14 0)
(703.36 1.11159e-13 0)
(703.36 -1.17704e-14 0)
(703.36 -5.62497e-14 0)
(703.36 5.29306e-14 0)
(703.341 0.0806136 0)
(655.823 48.7024 0)
(431.829 18.467 0)
(180.401 1.71493 0)
(44.3525 0.0997478 0)
(703.36 2.64053e-05 0)
(703.36 3.8039e-08 0)
(703.36 2.45561e-10 0)
(703.36 2.29298e-13 0)
(703.36 1.40243e-13 0)
(703.36 1.56334e-13 0)
(703.36 -3.64925e-14 0)
(703.36 -1.64629e-14 0)
(703.36 9.58567e-14 0)
(703.36 -6.03466e-14 0)
(703.36 -2.44799e-14 0)
(703.36 -9.18456e-14 0)
(703.36 6.06807e-14 0)
(703.36 6.23194e-14 0)
(703.36 3.86805e-14 0)
(703.36 5.45976e-14 0)
(703.36 -3.82733e-14 0)
(703.36 1.81189e-14 0)
(703.36 -1.47718e-14 0)
(703.345 0.0560897 0)
(680.024 42.1567 0)
(543.131 31.7288 0)
(306.909 4.85087 0)
(135.407 0.678461 0)
(36.7332 0.0775357 0)
(703.36 2.14039e-05 0)
(703.36 3.1579e-08 0)
(703.36 1.99529e-10 0)
(703.36 2.02771e-13 0)
(703.36 6.56138e-14 0)
(703.36 4.37312e-14 0)
(703.36 -1.31853e-13 0)
(703.36 -5.79481e-14 0)
(703.36 7.80688e-15 0)
(703.36 -1.51576e-14 0)
(703.36 -5.0562e-14 0)
(703.36 -5.33663e-14 0)
(703.36 1.25881e-13 0)
(703.36 -4.67622e-14 0)
(703.36 -5.60194e-14 0)
(703.36 7.93542e-15 0)
(703.36 -1.93778e-13 0)
(703.36 -1.39081e-14 0)
(703.36 4.74194e-14 0)
(703.35 0.0404195 0)
(691.384 35.5882 0)
(612.226 42.2791 0)
(429.383 9.99806 0)
(233.051 2.02198 0)
(112.056 0.463269 0)
(31.3973 0.0457063 0)
(703.36 1.71721e-05 0)
(703.36 2.54183e-08 0)
(703.36 1.6005e-10 0)
(703.36 1.77797e-13 0)
(703.36 2.58493e-15 0)
(703.36 2.32481e-14 0)
(703.36 1.8003e-14 0)
(703.36 1.63111e-14 0)
(703.36 -1.52556e-14 0)
(703.36 -4.8107e-14 0)
(703.36 -3.71058e-14 0)
(703.36 -3.28481e-14 0)
(703.36 1.81916e-13 0)
(703.36 -7.39834e-14 0)
(703.36 4.26216e-15 0)
(703.36 4.06588e-14 0)
(703.36 -9.12819e-14 0)
(703.36 8.57972e-14 0)
(703.36 5.69998e-14 0)
(703.353 0.0267959 0)
(695.97 30.1195 0)
(652.355 48.9319 0)
(530.481 16.8067 0)
(336.476 4.41161 0)
(192.767 1.27606 0)
(96.1096 0.281189 0)
(27.7329 0.029559 0)
(703.36 1.34692e-05 0)
(703.36 2.00434e-08 0)
(703.36 1.25524e-10 0)
(703.36 9.93085e-14 0)
(703.36 8.89894e-15 0)
(703.36 6.37415e-14 0)
(703.36 3.85708e-14 0)
(703.36 1.14408e-13 0)
(703.36 3.00271e-14 0)
(703.36 -3.54715e-14 0)
(703.36 3.74664e-14 0)
(703.36 -7.66306e-14 0)
(703.36 1.28515e-13 0)
(703.36 -4.16796e-14 0)
(703.36 8.1943e-14 0)
(703.36 4.26189e-15 0)
(703.36 -9.70139e-14 0)
(703.36 5.70666e-15 0)
(703.36 5.21501e-16 0)
(703.355 0.0173822 0)
(697.63 24.7579 0)
(674.577 50.5621 0)
(602.19 23.6565 0)
(440.215 7.99119 0)
(279.197 2.63492 0)
(165.669 0.786232 0)
(85.0213 0.183902 0)
(25.0654 0.0211605 0)
(703.36 1.04362e-05 0)
(703.36 1.53883e-08 0)
(703.36 9.60551e-11 0)
(703.36 8.6163e-14 0)
(703.36 -2.18186e-14 0)
(703.36 4.75854e-15 0)
(703.36 7.96739e-16 0)
(703.36 -3.69529e-15 0)
(703.36 -3.94381e-14 0)
(703.36 -4.14319e-14 0)
(703.36 -4.7096e-14 0)
(703.36 -1.05464e-13 0)
(703.36 5.65556e-14 0)
(703.36 2.25251e-15 0)
(703.36 7.56494e-14 0)
(703.36 2.972e-14 0)
(703.36 -1.69024e-13 0)
(703.36 -2.23705e-15 0)
(703.36 3.66865e-14 0)
(703.357 0.0110211 0)
(698.656 19.1321 0)
(686.277 48.2071 0)
(646.084 29.9346 0)
(533.302 12.5094 0)
(370.491 4.72069 0)
(240.543 1.63167 0)
(146.718 0.517498 0)
(76.9089 0.129936 0)
(23.0956 0.0140109 0)
(703.36 7.85066e-06 0)
(703.36 1.14429e-08 0)
(703.36 7.1644e-11 0)
(703.36 7.19976e-14 0)
(703.36 -1.78689e-14 0)
(703.36 2.45391e-14 0)
(703.36 1.15687e-13 0)
(703.36 -1.5905e-13 0)
(703.36 1.33734e-14 0)
(703.36 -8.79331e-14 0)
(703.36 -4.37768e-14 0)
(703.36 4.54459e-15 0)
(703.36 -3.67235e-14 0)
(703.36 -4.45669e-14 0)
(703.36 8.99644e-14 0)
(703.36 8.95005e-14 0)
(703.36 1.33674e-14 0)
(703.36 1.64737e-13 0)
(703.36 8.68785e-14 0)
(703.358 0.00676783 0)
(699.833 13.5838 0)
(691.64 44.9293 0)
(670.875 35.1066 0)
(604.071 17.402 0)
(462.866 7.66901 0)
(320.779 2.9165 0)
(213.304 1.07844 0)
(132.789 0.364015 0)
(70.8728 0.0879559 0)
(21.7187 0.00932035 0)
(703.36 5.6476e-06 0)
(703.36 8.22097e-09 0)
(703.36 5.16336e-11 0)
(703.36 4.52131e-14 0)
(703.36 -7.3129e-14 0)
(703.36 -6.68335e-14 0)
(703.36 5.6684e-14 0)
(703.36 -1.96913e-14 0)
(703.36 5.31201e-14 0)
(703.36 -2.37254e-13 0)
(703.36 -8.68206e-14 0)
(703.36 -1.1948e-13 0)
(703.36 -5.46147e-14 0)
(703.36 3.19225e-15 0)
(703.36 1.73508e-13 0)
(703.36 6.33897e-14 0)
(703.36 1.9445e-15 0)
(703.36 1.56427e-16 0)
(703.36 7.41379e-14 0)
(703.359 0.00383623 0)
(701.101 9.0025 0)
(693.909 41.4454 0)
(683.513 38.9046 0)
(649.4 22.0202 0)
(547.648 11.3416 0)
(405.341 4.75701 0)
(285.057 1.93162 0)
(193.167 0.75708 0)
(122.364 0.249852 0)
(66.6025 0.0586878 0)
(20.8686 0.00479878 0)
(703.36 3.8643e-06 0)
(703.36 5.68407e-09 0)
(703.36 3.60097e-11 0)
(703.36 6.31282e-14 0)
(703.36 -1.36571e-13 0)
(703.36 2.35139e-14 0)
(703.36 6.24159e-14 0)
(703.36 6.15414e-14 0)
(703.36 -6.30693e-14 0)
(703.36 -6.24576e-14 0)
(703.36 -7.83197e-14 0)
(703.36 -1.54147e-13 0)
(703.36 -3.0417e-14 0)
(703.36 -4.20381e-14 0)
(703.36 1.59322e-13 0)
(703.36 -2.14597e-14 0)
(703.36 -1.21779e-13 0)
(703.36 -1.16228e-13 0)
(703.36 1.00286e-13 0)
(703.359 0.00206741 0)
(702.05 5.50277 0)
(694.852 36.7727 0)
(689.066 40.9271 0)
(674.451 26.1083 0)
(614.012 15.0855 0)
(490.626 7.24355 0)
(361.756 3.15697 0)
(258.405 1.35427 0)
(178.013 0.52399 0)
(114.92 0.167711 0)
(63.9574 0.0316768 0)
(20.4569 0.002441 0)
(703.36 2.50669e-06 0)
(703.36 3.77541e-09 0)
(703.36 2.44387e-11 0)
(703.36 -8.70174e-15 0)
(703.36 -4.94993e-14 0)
(703.36 8.80119e-14 0)
(703.36 7.23832e-14 0)
(703.36 -1.93196e-15 0)
(703.36 2.98158e-14 0)
(703.36 9.46791e-14 0)
(703.36 6.42645e-14 0)
(703.36 -1.52171e-13 0)
(703.36 -2.07363e-13 0)
(703.36 -3.87885e-14 0)
(703.36 7.56298e-14 0)
(703.36 -3.62724e-14 0)
(703.36 -6.82322e-14 0)
(703.36 -5.41904e-14 0)
(703.36 1.31093e-14 0)
(703.36 0.00100714 0)
(702.639 3.11341 0)
(695.588 32.0216 0)
(691.087 41.7214 0)
(686.713 29.6062 0)
(656.877 18.0822 0)
(568.596 10.2959 0)
(442.071 4.84809 0)
(328.574 2.21006 0)
(238.213 0.942802 0)
(167.095 0.353083 0)
(110.302 0.0908479 0)
(62.8071 0.0114991 0)
(20.4582 -0.00110677 0)
(703.36 1.5407e-06 0)
(703.36 2.40493e-09 0)
(703.36 1.59927e-11 0)
(703.36 -7.9335e-14 0)
(703.36 -2.12986e-14 0)
(703.36 6.45697e-15 0)
(703.36 4.97418e-14 0)
(703.36 2.50682e-14 0)
(703.36 9.57906e-15 0)
(703.36 1.01631e-13 0)
(703.36 -8.05034e-14 0)
(703.36 -1.12733e-13 0)
(703.36 -1.41197e-13 0)
(703.36 -6.66579e-14 0)
(703.36 6.72419e-14 0)
(703.36 -1.49931e-13 0)
(703.36 -6.54489e-14 0)
(703.36 -1.31874e-13 0)
(703.36 -3.09871e-14 0)
(703.36 0.000482007 0)
(702.986 1.62898 0)
(696.755 25.5591 0)
(692.031 41.2627 0)
(691.929 32.4934 0)
(680.113 20.2274 0)
(628.96 13.435 0)
(521.92 7.07292 0)
(403.195 3.39447 0)
(303.164 1.54447 0)
(223.539 0.636892 0)
(160.309 0.188834 0)
(108.455 0.0263023 0)
(62.9221 -0.00703682 0)
(20.7941 -0.00181639 0)
(703.36 8.95521e-07 0)
(703.36 1.46386e-09 0)
(703.36 1.01149e-11 0)
(703.36 1.16839e-14 0)
(703.36 6.40114e-14 0)
(703.36 2.26779e-14 0)
(703.36 7.57364e-14 0)
(703.36 1.67649e-13 0)
(703.36 -2.76517e-14 0)
(703.36 -1.63045e-14 0)
(703.36 -2.18938e-13 0)
(703.36 -1.00255e-13 0)
(703.36 -1.01187e-13 0)
(703.36 -8.54781e-14 0)
(703.36 -5.90422e-14 0)
(703.36 3.67953e-14 0)
(703.36 -1.03112e-13 0)
(703.36 -7.25349e-14 0)
(703.36 7.9328e-14 0)
(703.36 0.000235989 0)
(703.179 0.789353 0)
(698.522 18.7682 0)
(692.45 40.4718 0)
(693.438 34.8131 0)
(690.58 22.2328 0)
(666.981 15.8096 0)
(593.112 9.7428 0)
(480.261 4.98333 0)
(372.72 2.37864 0)
(284.499 1.04421 0)
(214.369 0.335128 0)
(157.809 0.0472596 0)
(108.844 -0.0188013 0)
(64.0812 -0.0184719 0)
(21.3588 -0.00216706 0)
(703.36 4.89558e-07 0)
(703.36 8.49502e-10 0)
(703.36 6.09328e-12 0)
(703.36 -1.38693e-14 0)
(703.36 1.85977e-13 0)
(703.36 2.67832e-14 0)
(703.36 -8.45473e-15 0)
(703.36 -3.56802e-14 0)
(703.36 -4.98301e-14 0)
(703.36 -1.17889e-13 0)
(703.36 -1.25942e-13 0)
(703.36 -1.28736e-13 0)
(703.36 -1.17579e-13 0)
(703.36 -3.28027e-14 0)
(703.36 4.14509e-14 0)
(703.36 9.77534e-14 0)
(703.36 -8.44307e-14 0)
(703.36 -3.53496e-14 0)
(703.36 6.47427e-14 0)
(703.36 0.000108125 0)
(703.279 0.353824 0)
(700.323 12.3926 0)
(692.868 38.5439 0)
(693.397 36.5448 0)
(695.32 24.3772 0)
(686.068 17.2043 0)
(646.127 12.4269 0)
(554.806 7.01667 0)
(445.902 3.50473 0)
(349.968 1.60688 0)
(272.699 0.544233 0)
(211.227 0.0736911 0)
(158.683 -0.0432328 0)
(111.062 -0.0573335 0)
(65.8957 -0.0204869 0)
(21.7418 -0.00339463 0)
(703.36 2.50934e-07 0)
(703.36 4.68484e-10 0)
(703.36 3.44471e-12 0)
(703.36 5.69904e-14 0)
(703.36 -6.59412e-14 0)
(703.36 9.58901e-14 0)
(703.36 4.79123e-14 0)
(703.36 -7.91515e-14 0)
(703.36 -7.69979e-14 0)
(703.36 -1.49965e-13 0)
(703.36 -1.42575e-13 0)
(703.36 -7.59774e-14 0)
(703.36 -8.35657e-14 0)
(703.36 -9.14145e-14 0)
(703.36 2.83295e-14 0)
(703.36 6.85934e-14 0)
(703.36 -1.71968e-13 0)
(703.36 -8.45279e-14 0)
(703.36 3.69075e-14 0)
(703.36 4.64656e-05 0)
(703.326 0.146352 0)
(701.648 7.28694 0)
(693.663 35.2857 0)
(693.201 37.5483 0)
(695.784 26.5947 0)
(694.316 18.3139 0)
(677.068 14.3509 0)
(618.493 9.4132 0)
(519.559 4.98216 0)
(419.486 2.3677 0)
(335.306 0.839721 0)
(268.732 0.107362 0)
(212.758 -0.0847975 0)
(162.236 -0.128128 0)
(114.342 -0.0617434 0)
(67.1354 -0.0211246 0)
(21.9874 -0.000767442 0)
(703.36 1.20038e-07 0)
(703.36 2.44423e-10 0)
(703.36 1.84214e-12 0)
(703.36 2.54238e-16 0)
(703.36 -8.64674e-15 0)
(703.36 5.36762e-14 0)
(703.36 1.25605e-13 0)
(703.36 -3.02783e-14 0)
(703.36 -3.67533e-14 0)
(703.36 -1.36006e-13 0)
(703.36 -1.09021e-13 0)
(703.36 -1.50169e-13 0)
(703.36 -1.67878e-13 0)
(703.36 7.65001e-14 0)
(703.36 -5.27209e-14 0)
(703.36 1.08605e-13 0)
(703.36 -2.17939e-13 0)
(703.36 -1.07939e-15 0)
(703.36 -9.86152e-16 0)
(703.36 1.8369e-05 0)
(703.347 0.0555394 0)
(702.484 3.79803 0)
(695.129 30.0694 0)
(693.133 37.6378 0)
(695.541 29.2266 0)
(697.449 19.4676 0)
(691.428 15.3594 0)
(662.553 11.6054 0)
(587.806 6.8647 0)
(490.631 3.38786 0)
(401.942 1.25357 0)
(329.993 0.160009 0)
(270.777 -0.148599 0)
(217.778 -0.241669 0)
(167.207 -0.135252 0)
(116.572 -0.0519405 0)
(67.866 -0.00674319 0)
(22.0445 -0.000195121 0)
(703.36 5.334e-08 0)
(703.36 1.20421e-10 0)
(703.36 1.10559e-12 0)
(703.36 8.9406e-15 0)
(703.36 7.02776e-14 0)
(703.36 3.10081e-14 0)
(703.36 -7.73795e-14 0)
(703.36 -6.44923e-14 0)
(703.36 -8.91576e-14 0)
(703.36 -2.88187e-14 0)
(703.36 -1.68454e-13 0)
(703.36 -1.62682e-13 0)
(703.36 -2.11929e-13 0)
(703.36 1.49527e-15 0)
(703.36 -8.87889e-14 0)
(703.36 -7.97762e-14 0)
(703.36 -8.94781e-15 0)
(703.36 -6.63741e-14 0)
(703.36 -5.5265e-14 0)
(703.36 6.62947e-06 0)
(703.356 0.0192334 0)
(702.958 1.759 0)
(697.225 23.2223 0)
(693.144 37.3773 0)
(694.915 31.7126 0)
(697.519 20.7627 0)
(696.928 16.0526 0)
(685.844 13.044 0)
(642.338 9.08997 0)
(558.983 4.75187 0)
(470.182 1.84311 0)
(394.625 0.240202 0)
(331.847 -0.225046 0)
(276.809 -0.400553 0)
(224.446 -0.24926 0)
(170.531 -0.103126 0)
(117.8 -0.0192904 0)
(68.0195 -0.00265835 0)
(21.9875 0.000370576 0)
(703.36 2.18935e-08 0)
(703.36 5.58632e-11 0)
(703.36 7.38278e-13 0)
(703.36 -4.88115e-15 0)
(703.36 1.49001e-14 0)
(703.36 8.95839e-14 0)
(703.36 -5.92301e-14 0)
(703.36 -1.51175e-13 0)
(703.36 -5.9569e-14 0)
(703.36 -1.45772e-13 0)
(703.36 -1.70758e-13 0)
(703.36 -1.02917e-13 0)
(703.36 -1.2179e-13 0)
(703.36 -1.04586e-13 0)
(703.36 -2.13977e-13 0)
(703.36 -4.2641e-14 0)
(703.36 -3.89614e-14 0)
(703.36 -8.6063e-14 0)
(703.36 4.77278e-14 0)
(703.36 2.16251e-06 0)
(703.359 0.00603175 0)
(703.194 0.726516 0)
(699.421 15.7806 0)
(693.377 36.3551 0)
(694.325 33.5025 0)
(697.33 22.6765 0)
(698.68 16.6783 0)
(695.455 13.8363 0)
(676.453 10.9775 0)
(618.829 6.56357 0)
(536.15 2.72627 0)
(459.963 0.427272 0)
(394.978 -0.275985 0)
(337.645 -0.585429 0)
(284.482 -0.40572 0)
(228.742 -0.175431 0)
(172.231 -0.0396258 0)
(118.027 -0.00854317 0)
(67.8284 0.00129486 0)
(21.8144 0.000646966 0)
(703.36 8.25278e-09 0)
(703.36 2.42061e-11 0)
(703.36 2.472e-13 0)
(703.36 9.43433e-14 0)
(703.36 3.61977e-14 0)
(703.36 -1.96604e-14 0)
(703.36 8.87512e-14 0)
(703.36 -5.37298e-14 0)
(703.36 -3.80546e-14 0)
(703.36 -2.12773e-13 0)
(703.36 -1.43976e-13 0)
(703.36 -1.69429e-13 0)
(703.36 -7.15864e-14 0)
(703.36 5.71999e-15 0)
(703.36 -7.44492e-14 0)
(703.36 8.03746e-14 0)
(703.36 -1.28251e-13 0)
(703.36 -3.9621e-14 0)
(703.36 3.29306e-14 0)
(703.36 6.30921e-07 0)
(703.36 0.00169228 0)
(703.299 0.267972 0)
(701.169 9.21751 0)
(694.136 33.9742 0)
(693.79 34.8714 0)
(696.781 24.8383 0)
(698.664 17.355 0)
(698.558 14.3578 0)
(692.41 12.0743 0)
(662.727 8.5818 0)
(596.344 4.05821 0)
(522.053 0.907157 0)
(456.254 -0.247826 0)
(398.881 -0.758039 0)
(344.843 -0.586475 0)
(289.063 -0.26651 0)
(230.723 -0.0678925 0)
(172.482 -0.0177426 0)
(117.666 0.00266387 0)
(67.2851 0.00367228 0)
(21.5791 0.000632303 0)
(703.36 2.83642e-09 0)
(703.36 9.76502e-12 0)
(703.36 1.56793e-13 0)
(703.36 1.22996e-13 0)
(703.36 3.80049e-14 0)
(703.36 2.3565e-14 0)
(703.36 -5.59994e-15 0)
(703.36 -2.07948e-15 0)
(703.36 -1.90116e-14 0)
(703.36 -2.00435e-13 0)
(703.36 -2.82035e-13 0)
(703.36 -1.7744e-13 0)
(703.36 -1.98022e-13 0)
(703.36 -7.23772e-14 0)
(703.36 2.72702e-14 0)
(703.36 -2.35007e-14 0)
(703.36 -1.13476e-13 0)
(703.36 -1.63525e-13 0)
(703.36 -9.69237e-15 0)
(703.36 1.62733e-07 0)
(703.36 0.000419216 0)
(703.34 0.0879522 0)
(702.303 4.57588 0)
(695.585 29.2934 0)
(693.797 35.0159 0)
(695.993 27.3706 0)
(698.516 18.4306 0)
(699.221 14.8311 0)
(698.013 12.6747 0)
(687.003 10.1467 0)
(645.831 5.93949 0)
(579.227 1.79258 0)
(513.444 -0.0413913 0)
(457.037 -0.852085 0)
(403.711 -0.743623 0)
(348.423 -0.353221 0)
(290.754 -0.100743 0)
(230.85 -0.0299803 0)
(171.887 0.00571745 0)
(116.702 0.0097989 0)
(66.5476 0.00414825 0)
(21.3189 0.000290815 0)
(703.36 8.83924e-10 0)
(703.36 3.84125e-12 0)
(703.36 1.71073e-13 0)
(703.36 5.78035e-14 0)
(703.36 -1.41384e-15 0)
(703.36 -3.61674e-15 0)
(703.36 -1.25454e-13 0)
(703.36 -4.90458e-14 0)
(703.36 -2.75888e-14 0)
(703.36 -4.35147e-14 0)
(703.36 -1.01973e-13 0)
(703.36 -1.55646e-13 0)
(703.36 -1.1298e-13 0)
(703.36 -4.54934e-14 0)
(703.36 -1.17072e-13 0)
(703.36 -5.76387e-14 0)
(703.36 -1.6567e-13 0)
(703.36 -2.06462e-14 0)
(703.36 -1.35406e-14 0)
(703.36 3.66837e-08 0)
(703.36 9.02215e-05 0)
(703.354 0.0255192 0)
(702.919 1.93326 0)
(697.609 22.3363 0)
(693.886 34.7962 0)
(695.252 29.9355 0)
(698.114 19.8021 0)
(699.262 15.3002 0)
(699.573 13.0587 0)
(696.69 11.0124 0)
(678.568 7.86086 0)
(629.307 3.24326 0)
(566.336 0.52368 0)
(509.577 -0.743961 0)
(457.855 -0.825086 0)
(404.824 -0.418921 0)
(348.921 -0.135417 0)
(290.436 -0.0428212 0)
(229.884 0.0127038 0)
(170.43 0.0207144 0)
(115.402 0.0119146 0)
(65.7322 0.00408269 0)
(21.019 0.000194785 0)
(703.36 2.4674e-10 0)
(703.36 1.73859e-12 0)
(703.36 1.21815e-13 0)
(703.36 8.21706e-14 0)
(703.36 -8.33852e-14 0)
(703.36 -6.74793e-14 0)
(703.36 -1.30805e-13 0)
(703.36 -4.82098e-14 0)
(703.36 -4.04728e-14 0)
(703.36 4.0655e-15 0)
(703.36 -5.84437e-14 0)
(703.36 -1.56002e-13 0)
(703.36 1.31378e-13 0)
(703.36 1.57692e-13 0)
(703.36 -2.7823e-13 0)
(703.36 -1.49285e-13 0)
(703.36 -1.66814e-13 0)
(703.36 -4.50181e-14 0)
(703.36 -1.23793e-14 0)
(703.36 7.14269e-09 0)
(703.36 1.65512e-05 0)
(703.359 0.00647546 0)
(703.201 0.699793 0)
(699.794 14.4846 0)
(694.22 33.8447 0)
(694.758 31.7663 0)
(697.509 21.8028 0)
(699.16 15.9023 0)
(699.707 13.386 0)
(699.502 11.484 0)
(694.083 9.15029 0)
(667.683 5.16959 0)
(614.249 1.57557 0)
(557.634 -0.374787 0)
(506.571 -0.743442 0)
(455.941 -0.409081 0)
(403.407 -0.13863 0)
(347.644 -0.0391463 0)
(288.824 0.028145 0)
(227.832 0.0385744 0)
(168.495 0.0257379 0)
(113.967 0.0133768 0)
(64.8073 0.00372027 0)
(20.7139 0.00122308 0)
(703.36 6.24943e-11 0)
(703.36 6.69571e-13 0)
(703.36 1.88912e-13 0)
(703.36 3.69618e-15 0)
(703.36 4.83049e-14 0)
(703.36 -6.90715e-14 0)
(703.36 -2.74758e-14 0)
(703.36 -5.52233e-14 0)
(703.36 4.42252e-14 0)
(703.36 -2.59447e-14 0)
(703.36 -1.20869e-13 0)
(703.36 -3.2203e-14 0)
(703.36 -3.80569e-15 0)
(703.36 1.09938e-14 0)
(703.36 -1.42121e-13 0)
(703.36 -1.87776e-13 0)
(703.36 -1.74763e-13 0)
(703.36 -5.78117e-14 0)
(703.36 1.30585e-13 0)
(703.36 1.20258e-09 0)
(703.36 2.52949e-06 0)
(703.36 0.00141363 0)
(703.311 0.217794 0)
(701.54 7.73887 0)
(695.132 31.0715 0)
(694.445 32.9497 0)
(696.866 24.1746 0)
(698.889 16.7223 0)
(699.686 13.7747 0)
(700.051 11.847 0)
(699.177 9.84324 0)
(689.752 6.8987 0)
(654.836 3.20988 0)
(601.956 0.375206 0)
(551.354 -0.47941 0)
(501.826 -0.2905 0)
(452.268 -0.080988 0)
(400.516 -0.00260287 0)
(344.991 0.0593241 0)
(286.048 0.0670029 0)
(225.183 0.0483259 0)
(166.361 0.0291902 0)
(112.357 0.0128338 0)
(63.8684 0.00598543 0)
(20.4199 0.00107694 0)
(703.36 1.42724e-11 0)
(703.36 5.02884e-13 0)
(703.36 1.8929e-13 0)
(703.36 2.79358e-14 0)
(703.36 8.17641e-14 0)
(703.36 -5.10019e-14 0)
(703.36 -1.06966e-13 0)
(703.36 -4.68341e-14 0)
(703.36 -3.05523e-14 0)
(703.36 1.36414e-14 0)
(703.36 -1.6268e-13 0)
(703.36 -4.23216e-14 0)
(703.36 -1.80469e-13 0)
(703.36 -1.91676e-13 0)
(703.36 -7.9788e-14 0)
(703.36 -1.57172e-15 0)
(703.36 -1.84167e-13 0)
(703.36 1.78885e-14 0)
(703.36 -4.00107e-14 0)
(703.36 1.74623e-10 0)
(703.36 3.13457e-07 0)
(703.36 0.000260167 0)
(703.347 0.0580538 0)
(702.59 3.36616 0)
(696.755 25.5216 0)
(694.48 33.0513 0)
(696.143 26.9185 0)
(698.538 17.8973 0)
(699.563 14.1959 0)
(700.057 12.1723 0)
(700.321 10.257 0)
(698.309 7.93018 0)
(682.934 5.06522 0)
(641.821 1.62908 0)
(592.335 0.0171587 0)
(544.238 -0.0465458 0)
(496.059 0.0507859 0)
(447.706 0.0718491 0)
(396.551 0.114657 0)
(341.312 0.108929 0)
(282.622 0.0814996 0)
(222.281 0.0535214 0)
(164 0.0285655 0)
(110.725 0.0149766 0)
(62.9604 0.00518507 0)
(20.1389 0.000456168 0)
(703.36 3.71114e-12 0)
(703.36 3.61939e-13 0)
(703.36 9.71308e-14 0)
(703.36 5.0891e-14 0)
(703.36 4.88464e-14 0)
(703.36 1.06196e-13 0)
(703.36 -1.21346e-13 0)
(703.36 -3.86516e-14 0)
(703.36 -7.05624e-14 0)
(703.36 -8.55851e-14 0)
(703.36 -1.25078e-13 0)
(703.36 -9.0954e-14 0)
(703.36 -1.23205e-14 0)
(703.36 -7.90344e-14 0)
(703.36 -8.70262e-14 0)
(703.36 -3.1631e-14 0)
(703.36 -1.75308e-13 0)
(703.36 -1.94084e-14 0)
(703.36 4.31311e-15 0)
(703.36 2.43011e-11 0)
(703.36 3.05944e-08 0)
(703.36 3.93535e-05 0)
(703.357 0.0131229 0)
(703.089 1.19704 0)
(698.928 17.6989 0)
(694.651 32.5711 0)
(695.575 29.1912 0)
(698.105 19.6351 0)
(699.368 14.7271 0)
(699.996 12.5253 0)
(700.424 10.6101 0)
(700.569 8.46121 0)
(696.327 6.38421 0)
(673.682 3.369 0)
(629.784 0.90945 0)
(583.196 0.36814 0)
(536.537 0.289196 0)
(489.933 0.202908 0)
(442.472 0.207446 0)
(391.835 0.172094 0)
(337.022 0.129549 0)
(278.923 0.0895328 0)
(219.114 0.0530417 0)
(161.606 0.0302698 0)
(109.143 0.0130119 0)
(62.0872 0.00377714 0)
(19.8461 0.000509278 0)
(703.36 2.07153e-12 0)
(703.36 2.56185e-13 0)
(703.36 9.07838e-14 0)
(703.36 3.18117e-14 0)
(703.36 1.34354e-13 0)
(703.36 -2.73928e-14 0)
(703.36 6.13546e-14 0)
(703.36 -5.83264e-14 0)
(703.36 -7.97604e-14 0)
(703.36 -4.77854e-14 0)
(703.36 7.49405e-15 0)
(703.36 -5.39483e-14 0)
(703.36 7.3795e-14 0)
(703.36 -3.21379e-15 0)
(703.36 -3.78749e-14 0)
(703.36 -1.02325e-13 0)
(703.36 -1.0891e-13 0)
(703.36 -1.03635e-14 0)
(703.36 2.77112e-14 0)
(703.36 2.51183e-12 0)
(703.36 2.24987e-09 0)
(703.36 4.7436e-06 0)
(703.359 0.00247396 0)
(703.281 0.350766 0)
(701.005 9.88808 0)
(695.225 30.9048 0)
(695.044 31.0124 0)
(697.543 21.8798 0)
(699.19 15.4605 0)
(699.853 12.8946 0)
(700.384 10.972 0)
(700.805 8.84152 0)
(700.379 7.04506 0)
(692.578 5.02061 0)
(662.687 2.29435 0)
(618.578 1.02007 0)
(573.887 0.662021 0)
(528.8 0.41845 0)
(483.451 0.351878 0)
(436.764 0.26861 0)
(386.628 0.2009 0)
(332.494 0.141512 0)
(274.956 0.0885094 0)
(215.91 0.0537041 0)
(159.283 0.0265126 0)
(107.617 0.0113995 0)
(61.1842 0.00376627 0)
(19.5584 0.000875988 0)
(703.36 1.39028e-12 0)
(703.36 2.49386e-13 0)
(703.36 6.6323e-14 0)
(703.36 1.3006e-14 0)
(703.36 -7.39622e-15 0)
(703.36 -1.33394e-14 0)
(703.36 4.65864e-14 0)
(703.36 -2.90609e-14 0)
(703.36 -1.462e-13 0)
(703.36 7.23547e-14 0)
(703.36 -2.25907e-14 0)
(703.36 -1.62276e-14 0)
(703.36 1.37584e-14 0)
(703.36 -1.2401e-13 0)
(703.36 3.13162e-14 0)
(703.36 -9.43449e-14 0)
(703.36 -8.22875e-14 0)
(703.36 -1.80114e-13 0)
(703.36 -6.21676e-14 0)
(703.36 -1.47551e-14 0)
(703.36 1.44512e-10 0)
(703.36 4.38976e-07 0)
(703.36 0.00037923 0)
(703.341 0.0846945 0)
(702.367 4.32654 0)
(696.542 26.4006 0)
(695.052 31.2072 0)
(696.817 24.6588 0)
(698.938 16.5258 0)
(699.736 13.3199 0)
(700.261 11.3383 0)
(700.8 9.22395 0)
(701.228 7.37907 0)
(699.648 5.95449 0)
(686.422 3.97331 0)
(650.642 2.03771 0)
(607.864 1.20526 0)
(564.738 0.746523 0)
(520.968 0.56033 0)
(476.75 0.403489 0)
(430.749 0.298502 0)
(381.269 0.212791 0)
(327.739 0.137992 0)
(270.957 0.0875965 0)
(212.798 0.0472779 0)
(157.036 0.0243997 0)
(106.047 0.0110566 0)
(60.2977 0.00428559 0)
(19.2824 0.000694063 0)
(703.36 9.17149e-13 0)
(703.36 3.08014e-13 0)
(703.36 -2.14721e-14 0)
(703.36 -3.45961e-14 0)
(703.36 -2.47709e-14 0)
(703.36 -3.55439e-15 0)
(703.36 5.40592e-14 0)
(703.36 -1.0808e-13 0)
(703.36 -1.65739e-14 0)
(703.36 5.32162e-14 0)
(703.36 -8.6903e-15 0)
(703.36 -7.66387e-14 0)
(703.36 -9.80047e-15 0)
(703.36 -2.4129e-13 0)
(703.36 2.16797e-15 0)
(703.36 -1.24526e-13 0)
(703.36 -1.03218e-13 0)
(703.36 -2.3384e-14 0)
(703.36 -1.36602e-14 0)
(703.36 2.7412e-13 0)
(703.36 -1.86651e-11 0)
(703.36 2.9975e-08 0)
(703.36 4.57952e-05 0)
(703.356 0.016694 0)
(703.026 1.47953 0)
(698.633 18.8574 0)
(695.154 30.9914 0)
(696.167 27.268 0)
(698.578 18.1291 0)
(699.619 13.8381 0)
(700.14 11.7241 0)
(700.705 9.62099 0)
(701.161 7.64087 0)
(701.215 6.32984 0)
(697.827 5.22801 0)
(677.343 3.51501 0)
(638.74 1.99309 0)
(597.731 1.21404 0)
(555.608 0.863439 0)
(513.168 0.593331 0)
(469.936 0.43011 0)
(424.698 0.308377 0)
(375.76 0.205311 0)
(322.972 0.13432 0)
(267.073 0.0774497 0)
(209.784 0.0445022 0)
(154.736 0.0234129 0)
(104.507 0.0108964 0)
(59.4458 0.0036901 0)
(19.0157 0.000241637 0)
(703.36 6.66254e-13 0)
(703.36 2.76186e-13 0)
(703.36 -7.01599e-14 0)
(703.36 -5.20153e-14 0)
(703.36 -4.39268e-14 0)
(703.36 5.16797e-14 0)
(703.36 -5.70935e-14 0)
(703.36 -1.18259e-13 0)
(703.36 -1.56356e-14 0)
(703.36 -1.07137e-13 0)
(703.36 -9.09317e-14 0)
(703.36 -4.06398e-14 0)
(703.36 -8.82164e-14 0)
(703.36 -9.89328e-14 0)
(703.36 -7.30114e-14 0)
(703.36 -1.28415e-13 0)
(703.36 -1.30044e-13 0)
(703.36 2.30264e-14 0)
(703.36 8.05728e-14 0)
(703.36 -1.87152e-12 0)
(703.36 -2.12774e-11 0)
(703.36 1.40153e-09 0)
(703.36 4.18943e-06 0)
(703.359 0.00263451 0)
(703.271 0.398789 0)
(700.837 10.578 0)
(695.535 29.7245 0)
(695.609 29.2136 0)
(698.024 20.3711 0)
(699.498 14.5414 0)
(700.042 12.1339 0)
(700.568 10.0377 0)
(701.105 7.96485 0)
(701.511 6.54494 0)
(700.984 5.77411 0)
(693.902 4.97965 0)
(666.266 3.12801 0)
(627.571 1.85998 0)
(587.581 1.28997 0)
(546.69 0.858039 0)
(505.434 0.607335 0)
(463.211 0.433147 0)
(418.576 0.2942 0)