/*--------------------------------*- C++ -*----------------------------------*\
| =========                 |                                                 |
| \\      /  F ield         | OpenFOAM: The Open Source CFD Toolbox           |
|  \\    /   O peration     | Version:  v2012                                 |
|   \\  /    A nd           | Website:  www.openfoam.com                      |
|    \\/     M anipulation  |                                                 |
\*---------------------------------------------------------------------------*/
FoamFile
{
    version     2.0;
    format      ascii;
    class       volVectorField;
    location    "1801";
    object      wallShearStress;
}
// * * * * * * * * * * * * * * * * * * * * * * * * * * * * * * * * * * * * * //

dimensions      [1 -1 -2 0 0 0 0];


internalField   uniform (0 0 0);

boundaryField
{
    freestream
    {
        type            calculated;
        value           uniform (0 0 0);
    }
    inlet
    {
        type            calculated;
        value           uniform (0 0 0);
    }
    outlet
    {
        type            calculated;
        value           uniform (0 0 0);
    }
    inviscidWall
    {
        type            calculated;
        value           nonuniform List<vector> 
20
(
(3.86265e-18 1.07012e-15 0)
(1.69621e-18 2.93192e-14 0)
(-1.35405e-17 1.71173e-14 0)
(7.97222e-18 -4.30607e-14 0)
(1.24806e-18 3.95168e-14 0)
(-7.30487e-18 -2.34131e-14 0)
(1.80771e-18 7.41291e-15 0)
(-1.44279e-17 -1.35693e-14 0)
(-1.61386e-18 -2.31752e-14 0)
(1.95722e-17 -1.77862e-14 0)
(-1.31074e-17 1.80743e-15 0)
(1.85484e-17 -2.72109e-14 0)
(-1.60395e-17 1.14623e-14 0)
(-1.71642e-17 -3.06105e-14 0)
(-2.77693e-18 -5.59558e-15 0)
(-1.47246e-13 -2.71709e-14 0)
(-4.60326e-11 -5.24582e-11 0)
(-7.43731e-08 -2.5565e-06 0)
(-0.000435597 -0.00013883 0)
(-0.0370089 -0.525644 0)
)
;
    }
    viscousWall
    {
        type            calculated;
        value           nonuniform List<vector> 
60
(
(-262.209 -25.9872 0)
(-91.1686 -2.8589 0)
(-55.3395 -0.566881 0)
(-41.523 -0.211067 0)
(-34.3655 -0.143229 0)
(-29.3631 -0.0872318 0)
(-25.9262 -0.0567267 0)
(-23.4194 -0.0399773 0)
(-21.5625 -0.0266385 0)
(-20.2514 -0.0173192 0)
(-19.4177 -0.00899729 0)
(-18.9682 -0.00396098 0)
(-18.8759 0.00203695 0)
(-19.0759 0.00394264 0)
(-19.4809 0.00434543 0)
(-19.7361 0.00516602 0)
(-19.8808 0.00140617 0)
(-19.8688 0.000240121 0)
(-19.7566 -0.000750518 0)
(-19.55 -0.00128697 0)
(-19.2955 -0.001338 0)
(-19.0235 -0.000962245 0)
(-18.7212 -0.000854394 0)
(-18.4183 -0.00202699 0)
(-18.1292 -0.00179234 0)
(-17.8543 -0.00102114 0)
(-17.5717 -0.00105733 0)
(-17.2962 -0.00144705 0)
(-17.0331 -0.00119016 0)
(-16.7802 -0.000623338 0)
(-16.5331 -0.000657704 0)
(-16.2918 -0.00077102 0)
(-16.0658 -0.000624204 0)
(-15.8489 -0.000554841 0)
(-15.6385 -0.000528723 0)
(-15.4377 -0.000526656 0)
(-15.2427 -0.000439041 0)
(-15.0546 -0.000333694 0)
(-14.8728 -0.000336807 0)
(-14.6954 -0.000332338 0)
(-14.5251 -0.000287811 0)
(-14.3595 -0.000270935 0)
(-14.1985 -0.000220286 0)
(-14.0456 -0.000162531 0)
(-13.8974 -0.000143203 0)
(-13.752 -0.000109441 0)
(-13.6115 -4.83373e-05 0)
(-13.4736 -2.05556e-05 0)
(-13.3379 -1.32757e-05 0)
(-13.2046 3.09088e-05 0)
(-13.0727 6.14155e-05 0)
(-12.9428 0.000110174 0)
(-12.8158 0.000167804 0)
(-12.6897 0.000222134 0)
(-12.5635 0.000267328 0)
(-12.4385 0.000281879 0)
(-12.3164 0.000325383 0)
(-12.1904 0.000357129 0)
(-12.0712 0.000418038 0)
(-11.8878 0.000485883 0)
)
;
    }
    frontAndBack
    {
        type            empty;
    }
}


// ************************************************************************* //
