/*--------------------------------*- C++ -*----------------------------------*\
| =========                 |                                                 |
| \\      /  F ield         | OpenFOAM: The Open Source CFD Toolbox           |
|  \\    /   O peration     | Version:  v2012                                 |
|   \\  /    A nd           | Website:  www.openfoam.com                      |
|    \\/     M anipulation  |                                                 |
\*---------------------------------------------------------------------------*/
FoamFile
{
    version     2.0;
    format      ascii;
    class       volScalarField;
    location    "1801";
    object      xx;
}
// * * * * * * * * * * * * * * * * * * * * * * * * * * * * * * * * * * * * * //

dimensions      [0 0 0 0 0 0 0];


internalField   nonuniform List<scalar> 
8000
(
8.17638e-17
7.14054e-17
8.95189e-17
6.47909e-17
7.57542e-17
9.00266e-17
6.04965e-17
6.6584e-17
7.71896e-17
9.004e-17
5.76736e-17
6.13413e-17
6.82161e-17
7.89085e-17
9.00404e-17
6.22535e-17
5.8194e-17
6.26302e-17
7.00803e-17
8.30571e-17
9.00404e-17
7.65441e-17
6.23007e-17
5.91753e-17
6.42737e-17
7.27442e-17
8.4318e-17
9.00404e-17
8.88605e-17
7.65881e-17
6.23988e-17
6.05393e-17
6.62712e-17
7.45726e-17
8.45773e-17
9.00404e-17
9.92757e-17
8.89025e-17
7.66828e-17
6.25511e-17
6.21963e-17
6.81502e-17
7.66832e-17
8.46246e-17
9.00404e-17
1.07982e-16
9.93162e-17
8.8994e-17
7.68326e-17
6.27592e-17
6.39553e-17
7.01046e-17
7.89248e-17
8.46333e-17
9.00404e-17
1.15205e-16
1.08021e-16
9.94052e-17
8.91408e-17
7.70407e-17
6.30194e-17
6.57959e-17
7.21366e-17
7.999e-17
8.4635e-17
9.00404e-17
1.21169e-16
1.15244e-16
1.08108e-16
9.95493e-17
8.93476e-17
7.73091e-17
6.34832e-17
6.77006e-17
7.41308e-17
8.03663e-17
8.46355e-17
9.00404e-17
1.26075e-16
1.21207e-16
1.1533e-16
1.0825e-16
9.97543e-17
8.9619e-17
7.76488e-17
6.48803e-17
6.96201e-17
7.60123e-17
8.04825e-17
8.46356e-17
9.00404e-17
1.30101e-16
1.26113e-16
1.21291e-16
1.1547e-16
1.08453e-16
1.00026e-16
8.99648e-17
7.80746e-17
6.66057e-17
7.15717e-17
7.70508e-17
8.05165e-17
8.46356e-17
9.00404e-17
1.33399e-16
1.30139e-16
1.26196e-16
1.2143e-16
1.15671e-16
1.08725e-16
1.00375e-16
9.03994e-17
7.86062e-17
6.84607e-17
7.3487e-17
7.74827e-17
8.05265e-17
8.46356e-17
9.00404e-17
1.36097e-16
1.33436e-16
1.30222e-16
1.26334e-16
1.2163e-16
1.15943e-16
1.09076e-16
1.00815e-16
9.09438e-17
7.9276e-17
7.03751e-17
7.47936e-17
7.76392e-17
8.05296e-17
8.46356e-17
9.00404e-17
5.19013e-14
1.36134e-16
1.33519e-16
1.30358e-16
1.26533e-16
1.21901e-16
1.16294e-16
1.09519e-16
1.01368e-16
9.16293e-17
8.01274e-17
7.221e-17
7.54222e-17
7.76925e-17
8.05306e-17
8.46356e-17
9.00404e-17
7.79748e-10
2.71695e-14
1.36216e-16
1.33654e-16
1.30556e-16
1.26803e-16
1.22253e-16
1.16739e-16
1.10076e-16
1.02063e-16
9.24983e-17
8.12045e-17
7.34701e-17
7.56741e-17
7.77105e-17
8.0531e-17
8.46356e-17
9.00404e-17
9.47452e-06
3.38723e-10
1.05521e-14
1.36351e-16
1.33852e-16
1.30826e-16
1.27155e-16
1.22699e-16
1.173e-16
1.10778e-16
1.02943e-16
9.36004e-17
8.2335e-17
7.40906e-17
7.57668e-17
7.77168e-17
8.05311e-17
8.46356e-17
9.00404e-17
0.00829971
3.25945e-06
1.14906e-10
3.81608e-15
1.36548e-16
1.34121e-16
1.31177e-16
1.27602e-16
1.23262e-16
1.18006e-16
1.11666e-16
1.04058e-16
9.49422e-17
8.30664e-17
7.4346e-17
7.58001e-17
7.77191e-17
8.05312e-17
8.46356e-17
9.00404e-17
0.00438448
0.0166942
1.00256e-06
3.98202e-11
1.54463e-15
1.36817e-16
1.34472e-16
1.31625e-16
1.28167e-16
1.23971e-16
1.18898e-16
1.12789e-16
1.05466e-16
9.60812e-17
8.3408e-17
7.44428e-17
7.58123e-17
7.772e-17
8.05312e-17
8.46356e-17
9.00404e-17
0.00241976
0.0291596
0.000872183
3.60306e-07
1.62257e-11
7.51254e-16
1.37168e-16
1.34921e-16
1.32191e-16
1.28878e-16
1.24867e-16
1.20028e-16
1.14215e-16
1.06913e-16
9.67068e-17
8.35463e-17
7.44788e-17
7.5817e-17
7.77204e-17
8.05312e-17
8.46356e-17
9.00404e-17
0.0016236
0.0491815
0.00184736
0.000225814
1.58691e-07
7.54902e-12
4.24589e-16
1.37616e-16
1.35487e-16
1.32904e-16
1.29776e-16
1.26e-16
1.21459e-16
1.1585e-16
1.07851e-16
9.698e-17
8.36001e-17
7.44925e-17
7.58188e-17
7.77205e-17
8.05312e-17
8.46356e-17
9.00404e-17
0.00118467
0.0752368
0.00625198
0.00028237
0.000114054
7.73758e-08
3.65127e-12
2.70608e-16
1.38183e-16
1.36201e-16
1.33804e-16
1.30912e-16
1.27435e-16
1.23195e-16
1.17079e-16
1.08296e-16
9.70894e-17
8.36212e-17
7.4498e-17
7.58196e-17
7.77206e-17
8.05312e-17
8.46356e-17
9.00404e-17
0.000625611
0.104282
0.0166226
0.000953486
0.000121593
7.1298e-05
3.81006e-08
1.71451e-12
1.94238e-16
1.38898e-16
1.37102e-16
1.34941e-16
1.3235e-16
1.29221e-16
1.24668e-16
1.17713e-16
1.0848e-16
9.71326e-17
8.36297e-17
7.45002e-17
7.58199e-17
7.77206e-17
8.05312e-17
8.46356e-17
9.00404e-17
0.00031414
0.122065
0.0343928
0.00399911
0.000285516
7.29548e-05
4.92563e-05
1.7982e-08
7.28014e-13
1.57835e-16
1.398e-16
1.38241e-16
1.36381e-16
1.34159e-16
1.30885e-16
1.25491e-16
1.17986e-16
1.08554e-16
9.715e-17
8.36333e-17
7.45011e-17
7.582e-17
7.77206e-17
8.05312e-17
8.46356e-17
9.00404e-17
0.000150037
0.124203
0.0589429
0.0113601
0.00140406
0.000141518
4.98158e-05
3.70173e-05
7.60895e-09
2.48423e-13
1.44238e-16
1.4094e-16
1.39683e-16
1.38202e-16
1.35966e-16
1.31883e-16
1.25857e-16
1.18096e-16
1.08584e-16
9.71573e-17
8.36348e-17
7.45015e-17
7.58201e-17
7.77206e-17
8.05312e-17
8.46356e-17
9.00404e-17
6.38068e-05
0.117194
0.0834777
0.0254696
0.00497758
0.000693372
9.41347e-05
3.75028e-05
2.93983e-05
2.54152e-09
6.42744e-14
1.43145e-16
1.42383e-16
1.41509e-16
1.40115e-16
1.3712e-16
1.32343e-16
1.26007e-16
1.18141e-16
1.08596e-16
9.71604e-17
8.36355e-17
7.45017e-17
7.58201e-17
7.77206e-17
8.05312e-17
8.46356e-17
9.00404e-17
2.10349e-05
0.102289
0.104021
0.046328
0.0129101
0.00281324
0.000472411
7.69359e-05
3.02867e-05
2.44308e-05
6.3546e-10
1.18108e-14
1.44589e-16
1.44212e-16
1.43499e-16
1.41402e-16
1.37668e-16
1.32534e-16
1.26068e-16
1.18159e-16
1.08602e-16
9.71618e-17
8.36358e-17
7.45018e-17
7.58202e-17
7.77206e-17
8.05312e-17
8.46356e-17
9.00404e-17
5.13513e-06
0.0314053
0.114631
0.071055
0.0275443
0.00696624
0.00205054
0.000420161
7.55166e-05
2.61111e-05
2.11777e-05
1.09572e-10
1.57906e-15
1.46419e-16
1.46258e-16
1.44898e-16
1.42031e-16
1.37899e-16
1.32612e-16
1.26094e-16
1.18167e-16
1.08604e-16
9.71624e-17
8.36359e-17
7.45019e-17
7.58202e-17
7.77206e-17
8.05312e-17
8.46356e-17
9.00404e-17
8.46198e-07
0.00967191
0.114008
0.0916637
0.047892
0.0185698
0.00562434
0.0019195
0.000468733
8.67176e-05
2.42882e-05
1.9207e-05
1.24378e-11
2.67767e-16
1.48506e-16
1.47751e-16
1.456e-16
1.42299e-16
1.37994e-16
1.32644e-16
1.26104e-16
1.1817e-16
1.08605e-16
9.71627e-17
8.3636e-17
7.45019e-17
7.58202e-17
7.77206e-17
8.05312e-17
8.46356e-17
9.00404e-17
8.93301e-08
0.00220995
0.105069
0.102729
0.0699636
0.0371366
0.0133842
0.00580791
0.00223548
0.000609328
0.000115768
2.50609e-05
1.82521e-05
9.61994e-13
1.56003e-16
1.50076e-16
1.48514e-16
1.45901e-16
1.42409e-16
1.38033e-16
1.32658e-16
1.26109e-16
1.18172e-16
1.08605e-16
9.71628e-17
8.3636e-17
7.45019e-17
7.58202e-17
7.77206e-17
8.05312e-17
8.46356e-17
9.00404e-17
6.32636e-09
0.000350973
0.0869067
0.10455
0.0880492
0.0597996
0.0325168
0.0125403
0.00719241
0.00299447
0.000898978
0.000178603
2.88333e-05
1.84479e-05
6.41327e-14
1.51971e-16
1.50893e-16
1.48845e-16
1.46025e-16
1.42455e-16
1.38049e-16
1.32664e-16
1.26111e-16
1.18173e-16
1.08606e-16
9.71629e-17
8.3636e-17
7.45019e-17
7.58202e-17
7.77206e-17
8.05312e-17
8.46356e-17
9.00404e-17
4.17563e-10
3.83344e-05
0.0514042
0.101542
0.0985324
0.0800553
0.0581829
0.0330377
0.0154361
0.00984573
0.00451482
0.00148729
0.000297448
3.44142e-05
1.94401e-05
5.39667e-15
1.52834e-16
1.5125e-16
1.48982e-16
1.46076e-16
1.42474e-16
1.38057e-16
1.32667e-16
1.26112e-16
1.18173e-16
1.08606e-16
9.71629e-17
8.3636e-17
7.45019e-17
7.58202e-17
7.77206e-17
8.05312e-17
8.46356e-17
9.00404e-17
3.82604e-11
2.60764e-06
0.0151602
0.0921001
0.10106
0.0926292
0.0834793
0.0647605
0.039063
0.0217465
0.0151032
0.00757725
0.00258955
0.000471035
4.53391e-05
2.11111e-05
5.84277e-16
1.53213e-16
1.51398e-16
1.49039e-16
1.46098e-16
1.42482e-16
1.3806e-16
1.32668e-16
1.26113e-16
1.18173e-16
1.08606e-16
9.71629e-17
8.3636e-17
7.45019e-17
7.58202e-17
7.77206e-17
8.05312e-17
8.46356e-17
9.00404e-17
3.25945e-12
2.68354e-07
0.00467983
0.0753794
0.0974247
0.0986149
0.0983303
0.0992989
0.0809874
0.0479077
0.0343276
0.0256338
0.0133065
0.00426559
0.000725806
5.7231e-05
2.26008e-05
1.77047e-16
1.5337e-16
1.51459e-16
1.49063e-16
1.46108e-16
1.42486e-16
1.38061e-16
1.32668e-16
1.26113e-16
1.18173e-16
1.08606e-16
9.71629e-17
8.3636e-17
7.45019e-17
7.58202e-17
7.77206e-17
8.05312e-17
8.46356e-17
9.00404e-17
1.76983e-13
2.31825e-08
0.00125339
0.0527573
0.0891368
0.0966516
0.102464
0.121471
0.134452
0.110085
0.0696641
0.0592943
0.0451519
0.0221411
0.00662124
0.000990874
6.70682e-05
2.37095e-05
1.54979e-16
1.53435e-16
1.51485e-16
1.49073e-16
1.46112e-16
1.42488e-16
1.38062e-16
1.32669e-16
1.26113e-16
1.18173e-16
1.08606e-16
9.71629e-17
8.3636e-17
7.45019e-17
7.58202e-17
7.77206e-17
8.05312e-17
8.46356e-17
9.00404e-17
6.82658e-15
1.18781e-09
0.000161073
0.0302929
0.0751744
0.0917614
0.100208
0.123527
0.174416
0.194097
0.163367
0.11465
0.104457
0.0749256
0.0341195
0.00906108
0.00120777
7.34405e-05
2.43325e-05
1.55048e-16
1.53463e-16
1.51497e-16
1.49078e-16
1.46114e-16
1.42489e-16
1.38062e-16
1.32669e-16
1.26113e-16
1.18173e-16
1.08606e-16
9.7163e-17
8.3636e-17
7.45019e-17
7.58202e-17
7.77206e-17
8.05312e-17
8.46356e-17
9.00404e-17
4.04457e-16
4.23877e-11
7.87824e-06
0.0134613
0.0565688
0.0831695
0.0933437
0.113832
0.177712
0.26859
0.29391
0.260667
0.195475
0.170753
0.113506
0.0463299
0.0110461
0.00134558
7.7436e-05
2.46056e-05
1.55077e-16
1.53475e-16
1.51502e-16
1.4908e-16
1.46115e-16
1.42489e-16
1.38063e-16
1.32669e-16
1.26113e-16
1.18173e-16
1.08606e-16
9.7163e-17
8.3636e-17
7.45019e-17
7.58202e-17
7.77206e-17
8.05312e-17
8.46356e-17
9.00404e-17
1.63095e-16
1.6507e-12
2.69886e-07
0.00415545
0.0363316
0.0700808
0.0856566
0.102158
0.15297
0.291616
0.425776
0.458071
0.422516
0.313572
0.252659
0.151703
0.0561095
0.0123089
0.00143318
7.93737e-05
2.45518e-05
1.5509e-16
1.53481e-16
1.51504e-16
1.49081e-16
1.46115e-16
1.42489e-16
1.38063e-16
1.32669e-16
1.26113e-16
1.18173e-16
1.08606e-16
9.7163e-17
8.3636e-17
7.45019e-17
7.58202e-17
7.77206e-17
8.05312e-17
8.46356e-17
9.00404e-17
1.56406e-16
6.05058e-14
1.13925e-08
0.000761965
0.019294
0.0533413
0.0754263
0.0906064
0.124256
0.248583
0.493271
0.664546
0.704483
0.636645
0.452428
0.332275
0.181605
0.0623378
0.0131064
0.00147607
8.00629e-05
2.42903e-05
1.55095e-16
1.53483e-16
1.51505e-16
1.49082e-16
1.46116e-16
1.42489e-16
1.38063e-16
1.32669e-16
1.26113e-16
1.18173e-16
1.08606e-16
9.7163e-17
8.3636e-17
7.45019e-17
7.58202e-17
7.77206e-17
8.05312e-17
8.46356e-17
9.00404e-17
1.56412e-16
1.62693e-15
4.26461e-10
7.06407e-05
0.00838519
0.0351665
0.0619963
0.0795893
0.102538
0.182377
0.445646
0.792444
0.9919
1.01029
0.86109
0.589186
0.395791
0.200727
0.0662342
0.0134935
0.00149392
7.98471e-05
2.38881e-05
1.55098e-16
1.53484e-16
1.51506e-16
1.49082e-16
1.46116e-16
1.42489e-16
1.38063e-16
1.32669e-16
1.26113e-16
1.18173e-16
1.08606e-16
9.7163e-17
8.3636e-17
7.45019e-17
7.58202e-17
7.77206e-17
8.05312e-17
8.46356e-17
9.00404e-17
1.56415e-16
1.83601e-16
9.74309e-12
2.9947e-06
0.00287433
0.0197125
0.0462087
0.0670365
0.0867043
0.13248
0.318989
0.77297
1.18472
1.3846
1.3358
1.06379
0.696099
0.437993
0.212578
0.068117
0.0136481
0.00149329
7.88512e-05
2.33853e-05
1.55099e-16
1.53485e-16
1.51506e-16
1.49082e-16
1.46116e-16
1.42489e-16
1.38063e-16
1.32669e-16
1.26113e-16
1.18173e-16
1.08606e-16
9.7163e-17
8.3636e-17
7.45019e-17
7.58202e-17
7.77206e-17
8.05312e-17
8.46356e-17
9.00404e-17
1.56416e-16
1.5778e-16
1.78037e-13
6.41038e-08
0.000685917
0.0093772
0.0303346
0.0525678
0.0727008
0.101487
0.204087
0.586928
1.2008
1.6506
1.79248
1.54798
1.2102
0.766648
0.464865
0.218437
0.0688556
0.0136352
0.001476
7.76001e-05
2.28475e-05
1.551e-16
1.53485e-16
1.51506e-16
1.49082e-16
1.46116e-16
1.4249e-16
1.38063e-16
1.32669e-16
1.26113e-16
1.18173e-16
1.08606e-16
9.7163e-17
8.3636e-17
7.45019e-17
7.58202e-17
7.77206e-17
8.05312e-17
8.46356e-17
9.00404e-17
1.56417e-16
1.57781e-16
3.21871e-15
1.16272e-09
9.22942e-05
0.00379002
0.0173045
0.0374547
0.0580821
0.0812511
0.134983
0.360522
0.989258
1.71656
2.1377
2.04259
1.68628
1.29207
0.811424
0.480126
0.220849
0.0687917
0.0134723
0.00145438
7.61576e-05
2.23317e-05
1.551e-16
1.53485e-16
1.51506e-16
1.49082e-16
1.46116e-16
1.4249e-16
1.38063e-16
1.32669e-16
1.26113e-16
1.18173e-16
1.08606e-16
9.7163e-17
8.3636e-17
7.45019e-17
7.58202e-17
7.77206e-17
8.05312e-17
8.46356e-17
9.00404e-17
1.56417e-16
1.57782e-16
1.96915e-16
2.08583e-11
5.63914e-06
0.00126816
0.00849532
0.023845
0.0429046
0.0645321
0.0971871
0.208325
0.637733
1.52665
2.27491
2.59505
2.20205
1.79076
1.33986
0.836039
0.487915
0.220895
0.0680188
0.0132702
0.00142872
7.47394e-05
2.18114e-05
1.551e-16
1.53485e-16
1.51506e-16
1.49082e-16
1.46116e-16
1.4249e-16
1.38063e-16
1.32669e-16
1.26113e-16
1.18173e-16
1.08606e-16
9.7163e-17
8.3636e-17
7.45019e-17
7.58202e-17
7.77206e-17
8.05312e-17
8.46356e-17
9.00404e-17
1.56417e-16
1.57782e-16
1.5924e-16
2.60207e-13
1.39435e-07
0.000318389
0.00363599
0.0134234
0.0287641
0.0485163
0.0735679
0.129255
0.347922
1.08473
2.12668
2.82835
2.78687
2.33228
1.86567
1.36607
0.848543
0.490907
0.218923
0.0670501
0.0130325
0.00140328
7.31736e-05
2.12601e-05
1.551e-16
1.53485e-16
1.51506e-16
1.49082e-16
1.46116e-16
1.4249e-16
1.38063e-16
1.32669e-16
1.26113e-16
1.18173e-16
1.08606e-16
9.7163e-17
8.3636e-17
7.45019e-17
7.58202e-17
7.77206e-17
8.05312e-17
8.46356e-17
9.00404e-17
1.56417e-16
1.57782e-16
1.5924e-16
2.80175e-15
1.67758e-09
4.84547e-05
0.00135434
0.00671997
0.0173851
0.0335146
0.0549788
0.0884941
0.188817
0.604398
1.67424
2.76703
3.32129
2.93896
2.43765
1.91349
1.37849
0.852535
0.490081
0.216328
0.0659165
0.0127972
0.00137431
7.1462e-05
2.07242e-05
1.551e-16
1.53485e-16
1.51506e-16
1.49082e-16
1.46116e-16
1.4249e-16
1.38063e-16
1.32669e-16
1.26113e-16
1.18173e-16
1.08606e-16
9.7163e-17
8.3636e-17
7.45019e-17
7.58202e-17
7.77206e-17
8.05312e-17
8.46356e-17
9.00404e-17
1.56417e-16
1.57782e-16
1.59241e-16
1.81001e-16
1.69517e-11
3.4098e-06
0.00042618
0.00295668
0.00950821
0.0210003
0.0386495
0.0633466
0.113573
0.301877
1.03189
2.36926
3.39789
3.58836
3.06183
2.51532
1.9419
1.3761
0.850291
0.487773
0.213262
0.0647928
0.0125303
0.00134233
6.97564e-05
2.02048e-05
1.551e-16
1.53485e-16
1.51506e-16
1.49082e-16
1.46116e-16
1.4249e-16
1.38063e-16
1.32669e-16
1.26113e-16
1.18173e-16
1.08606e-16
9.7163e-17
8.3636e-17
7.45019e-17
7.58202e-17
7.77206e-17
8.05312e-17
8.46356e-17
9.00404e-17
1.56417e-16
1.57782e-16
1.59241e-16
1.60797e-16
1.45627e-13
8.97225e-08
0.000102894
0.00114808
0.00471664
0.0119636
0.0248816
0.0443865
0.0750493
0.157785
0.510248
1.6656
3.11754
3.95074
3.73394
3.16434
2.56989
1.95421
1.36458
0.845535
0.484576
0.210209
0.0635176
0.012236
0.00131023
6.80248e-05
1.97062e-05
1.551e-16
1.53485e-16
1.51506e-16
1.49082e-16
1.46116e-16
1.4249e-16
1.38063e-16
1.32669e-16
1.26113e-16
1.18173e-16
1.08606e-16
9.7163e-17
8.3636e-17
7.45019e-17
7.58202e-17
7.77206e-17
8.05312e-17
8.46356e-17
9.00404e-17
1.56417e-16
1.57783e-16
1.59241e-16
1.60798e-16
1.12722e-15
9.13359e-10
1.52891e-05
0.000391123
0.0021184
0.00626949
0.0145737
0.0290794
0.0510255
0.0928934
0.240705
0.897926
2.4886
3.85537
4.40438
3.85034
3.24525
2.6043
1.95438
1.35056
0.839476
0.481302
0.206708
0.0620988
0.0119411
0.0012772
6.63594e-05
1.92104e-05
1.551e-16
1.53485e-16
1.51506e-16
1.49082e-16
1.46116e-16
1.4249e-16
1.38063e-16
1.32669e-16
1.26113e-16
1.18173e-16
1.08606e-16
9.7163e-17
8.3636e-17
7.45019e-17
7.58202e-17
7.77206e-17
8.05312e-17
8.46356e-17
9.00404e-17
1.56417e-16
1.57783e-16
1.59241e-16
1.60798e-16
1.65085e-16
5.90643e-12
1.02887e-06
0.000112673
0.000848035
0.00304239
0.0078379
0.0174558
0.0335097
0.0593504
0.123505
0.406206
1.58579
3.36774
4.47802
4.55441
3.94475
3.3063
2.62262
1.9477
1.33571
0.833503
0.476988
0.202694
0.0606741
0.0116381
0.00124545
6.46818e-05
1.87348e-05
1.551e-16
1.53485e-16
1.51506e-16
1.49082e-16
1.46116e-16
1.4249e-16
1.38063e-16
1.32669e-16
1.26113e-16
1.18173e-16
1.08606e-16
9.7163e-17
8.3636e-17
7.45019e-17
7.58202e-17
7.77206e-17
8.05312e-17
8.46356e-17
9.00404e-17
1.56417e-16
1.57783e-16
1.59241e-16
1.60798e-16
1.62461e-16
3.30955e-14
2.39643e-08
2.45777e-05
0.000299575
0.00136207
0.00391769
0.00960676
0.0204818
0.0382552
0.0713762
0.183782
0.773599
2.50948
4.17179
5.00033
4.66678
4.02905
3.34985
2.62968
1.93683
1.32212
0.826525
0.469513
0.198635
0.0592082
0.0113468
0.00121338
6.31011e-05
1.82983e-05
1.551e-16
1.53485e-16
1.51506e-16
1.49082e-16
1.46116e-16
1.4249e-16
1.38063e-16
1.32669e-16
1.26113e-16
1.18173e-16
1.08606e-16
9.7163e-17
8.3636e-17
7.45019e-17
7.58202e-17
7.77206e-17
8.05312e-17
8.46356e-17
9.00404e-17
1.56417e-16
1.57783e-16
1.59241e-16
1.60798e-16
1.62461e-16
3.07429e-16
1.8986e-10
3.16906e-06
9.25169e-05
0.000557399
0.00183846
0.00489575
0.0115234
0.023532
0.0438994
0.0925575
0.326834
1.45959
3.48271
4.90555
5.39129
4.75993
4.09939
3.37922
2.62858
1.92513
1.30826
0.818186
0.461872
0.194434
0.0577956
0.0110532
0.00118336
6.1625e-05
1.78729e-05
1.551e-16
1.53485e-16
1.51506e-16
1.49082e-16
1.46116e-16
1.4249e-16
1.38063e-16
1.32669e-16
1.26113e-16
1.18173e-16
1.08606e-16
9.7163e-17
8.3636e-17
7.45019e-17
7.58202e-17
7.77206e-17
8.05312e-17
8.46356e-17
9.00404e-17
1.56417e-16
1.57783e-16
1.59241e-16
1.60798e-16
1.62461e-16
1.64236e-16
8.34132e-13
1.71497e-07
2.3756e-05
0.000202573
0.00080992
0.00234009
0.00599497
0.0134652
0.0267122
0.0520162
0.140788
0.662326
2.43807
4.40282
5.51528
5.49699
4.84476
4.15738
3.39683
2.624
1.91155
1.29396
0.809441
0.453897
0.19036
0.0563698
0.0107783
0.00115518
6.01497e-05
1.74688e-05
1.551e-16
1.53485e-16
1.51506e-16
1.49082e-16
1.46116e-16
1.4249e-16
1.38063e-16
1.32669e-16
1.26113e-16
1.18173e-16
1.08606e-16
9.7163e-17
8.3636e-17
7.45019e-17
7.58202e-17
7.77206e-17
8.05312e-17
8.46356e-17
9.00404e-17
1.56417e-16
1.57783e-16
1.59241e-16
1.60798e-16
1.62461e-16
1.64237e-16
3.19329e-15
2.89445e-09
4.40809e-06
6.45937e-05
0.00033108
0.00105693
0.00291476
0.00714374
0.0153948
0.0304825
0.0680899
0.265572
1.32481
3.50474
5.21568
6.02606
5.59436
4.92728
4.20276
3.40786
2.61533
1.89612
1.27966
0.800109
0.446102
0.186228
0.0550319
0.0105202
0.00112684
5.87781e-05
1.70831e-05
1.551e-16
1.53485e-16
1.51506e-16
1.49082e-16
1.46116e-16
1.4249e-16
1.38063e-16
1.32669e-16
1.26113e-16
1.18173e-16
1.08606e-16
9.7163e-17
8.3636e-17
7.45019e-17
7.58202e-17
7.77206e-17
8.05312e-17
8.46356e-17
9.00404e-17
1.56417e-16
1.57783e-16
1.59241e-16
1.60798e-16
1.62461e-16
1.64237e-16
1.71979e-16
1.55059e-11
4.39875e-07
1.77855e-05
0.000123381
0.000453281
0.00133589
0.00353814
0.00828506
0.0174277
0.0364711
0.108372
0.573515
2.2985
4.50965
5.93864
6.33943
5.68382
5.00311
4.23951
3.41181
2.6026
1.87956
1.26497
0.790864
0.438146
0.182334
0.0537738
0.010261
0.00110067
5.74404e-05
1.67081e-05
1.551e-16
1.53485e-16
1.51506e-16
1.49082e-16
1.46116e-16
1.4249e-16
1.38063e-16
1.32669e-16
1.26113e-16
1.18173e-16
1.08606e-16
9.7163e-17
8.3636e-17
7.45019e-17
7.58202e-17
7.77206e-17
8.05312e-17
8.46356e-17
9.00404e-17
1.56417e-16
1.57783e-16
1.59241e-16
1.60798e-16
1.62461e-16
1.64237e-16
1.66133e-16
4.70582e-14
1.61002e-08
3.90638e-06
4.03669e-05
0.000183056
0.000582174
0.00164882
0.00417047
0.00942207
0.0200982
0.049263
0.220199
1.17777
3.42057
5.4338
6.55098
6.44358
5.77846
5.07271
4.26627
3.40884
2.58697
1.86172
1.25067
0.781309
0.430607
0.178656
0.0525082
0.0100216
0.001075
5.6136e-05
1.63542e-05
1.551e-16
1.53485e-16
1.51506e-16
1.49082e-16
1.46116e-16
1.4249e-16
1.38063e-16
1.32669e-16
1.26113e-16
1.18173e-16
1.08606e-16
9.7163e-17
8.3636e-17
7.45019e-17
7.58202e-17
7.77206e-17
8.05312e-17
8.46356e-17
9.00404e-17
1.56417e-16
1.57783e-16
1.59241e-16
1.60798e-16
1.62461e-16
1.64237e-16
1.66134e-16
2.80523e-16
1.6213e-10
5.63541e-07
1.14769e-05
6.82809e-05
0.000241479
0.000728626
0.00197605
0.00479084
0.0107638
0.0246606
0.084437
0.489007
2.1051
4.51829
6.26491
7.07031
6.54486
5.87547
5.13268
4.28315
3.40052
2.56866
1.84365
1.23615
0.772236
0.423456
0.17494
0.0513368
0.00978694
0.00104997
5.49116e-05
1.60122e-05
1.551e-16
1.53485e-16
1.51506e-16
1.49082e-16
1.46116e-16
1.4249e-16
1.38063e-16
1.32669e-16
1.26113e-16
1.18173e-16
1.08606e-16
9.7163e-17
8.3636e-17
7.45019e-17
7.58202e-17
7.77206e-17
8.05312e-17
8.46356e-17
9.00404e-17
1.56417e-16
1.57783e-16
1.59241e-16
1.60798e-16
1.62461e-16
1.64237e-16
1.66134e-16
1.68158e-16
5.27856e-13
3.72273e-08
2.73762e-06
2.29203e-05
9.53294e-05
0.00030633
0.000887055
0.00229852
0.00546847
0.0126916
0.0353684
0.179273
1.01997
3.24731
5.54628
6.99181
7.30723
6.64774
5.97234
5.18179
4.29186
3.38751
2.54908
1.82477
1.22246
0.763647
0.416189
0.171484
0.0501868
0.00955826
0.00102653
5.37045e-05
1.56815e-05
1.551e-16
1.53485e-16
1.51506e-16
1.49082e-16
1.46116e-16
1.4249e-16
1.38063e-16
1.32669e-16
1.26113e-16
1.18173e-16
1.08606e-16
9.7163e-17
8.3636e-17
7.45019e-17
7.58202e-17
7.77206e-17
8.05312e-17
8.46356e-17
9.00404e-17
1.56417e-16
1.57783e-16
1.59241e-16
1.60798e-16
1.62461e-16
1.64237e-16
1.66134e-16
1.68159e-16
1.26148e-15
7.48026e-10
4.83393e-07
6.6725e-06
3.52321e-05
0.000123127
0.00037858
0.00104617
0.00263219
0.0063717
0.0162561
0.0643805
0.40375
1.87888
4.43537
6.47912
7.62926
7.42844
6.77056
6.06178
5.22033
4.2933
3.3715
2.52764
1.80655
1.20965
0.75479
0.409392
0.168077
0.0490644
0.00934396
0.00100329
5.25336e-05
1.5368e-05
1.551e-16
1.53485e-16
1.51506e-16
1.49082e-16
1.46116e-16
1.4249e-16
1.38063e-16
1.32669e-16
1.26113e-16
1.18173e-16
1.08606e-16
9.7163e-17
8.3636e-17
7.45019e-17
7.58202e-17
7.77206e-17
8.05312e-17
8.46356e-17
9.00404e-17
1.56417e-16
1.57783e-16
1.59241e-16
1.60798e-16
1.62461e-16
1.64237e-16
1.66134e-16
1.68159e-16
1.70318e-16
3.74553e-12
4.74715e-08
1.65925e-06
1.19368e-05
4.71823e-05
0.000154204
0.00045332
0.00120489
0.0030578
0.00774919
0.0247472
0.140417
0.863551
3.00721
5.54578
7.35317
8.18028
7.55059
6.89452
6.14162
5.24883
4.28925
3.35185
2.50635
1.7893
1.1966
0.746477
0.402656
0.164737
0.04801
0.00913163
0.000980741
5.14158e-05
1.50602e-05
1.551e-16
1.53485e-16
1.51506e-16
1.49082e-16
1.46116e-16
1.4249e-16
1.38063e-16
1.32669e-16
1.26113e-16
1.18173e-16
1.08606e-16
9.7163e-17
8.3636e-17
7.45019e-17
7.58202e-17
7.77206e-17
8.05312e-17
8.46356e-17
9.00404e-17
1.56417e-16
1.57783e-16
1.59241e-16
1.60798e-16
1.62461e-16
1.64237e-16
1.66134e-16
1.68159e-16
1.70322e-16
7.53425e-15
1.68814e-09
3.27629e-07
3.53953e-06
1.71337e-05
6.0024e-05
0.000187456
0.000526556
0.00139817
0.003645
0.0104068
0.047241
0.325353
1.63456
4.24292
6.60837
8.11209
8.33468
7.68332
7.01873
6.21061
5.26881
4.2789
3.33113
2.48591
1.77165
1.18435
0.738177
0.396013
0.161584
0.0469637
0.00892566
0.000959183
5.03085e-05
1.47685e-05
1.551e-16
1.53485e-16
1.51506e-16
1.49082e-16
1.46116e-16
1.4249e-16
1.38063e-16
1.32669e-16
1.26113e-16
1.18173e-16
1.08606e-16
9.7163e-17
8.3636e-17
7.45019e-17
7.58202e-17
7.77206e-17
8.05312e-17
8.46356e-17
9.00404e-17
1.56417e-16
1.57783e-16
1.59241e-16
1.60798e-16
1.62461e-16
1.64237e-16
1.66134e-16
1.68159e-16
1.70322e-16
1.79431e-16
1.47859e-11
4.19699e-08
8.94593e-07
5.77394e-06
2.23318e-05
7.40645e-05
0.000220235
0.000610649
0.00165345
0.0045905
0.0167655
0.107449
0.70772
2.70388
5.45636
7.59109
8.78818
8.47516
7.8373
7.13696
6.26896
5.27886
4.26526
3.31056
2.46469
1.75484
1.17218
0.729899
0.389699
0.158439
0.0459466
0.00872876
0.00093779
4.9282e-05
1.4498e-05
1.551e-16
1.53485e-16
1.51506e-16
1.49082e-16
1.46116e-16
1.4249e-16
1.38063e-16
1.32669e-16
1.26113e-16
1.18173e-16
1.08606e-16
9.7163e-17
8.3636e-17
7.45019e-17
7.58202e-17
7.77206e-17
8.05312e-17
8.46356e-17
9.00404e-17
1.56417e-16
1.57783e-16
1.59241e-16
1.60798e-16
1.62461e-16
1.64237e-16
1.66134e-16
1.68159e-16
1.70322e-16
1.72631e-16
3.43959e-14
2.3466e-09
1.87904e-07
1.73999e-06
7.93441e-06
2.79667e-05
8.82266e-05
0.000255502
0.000718919
0.00202402
0.00648542
0.0339758
0.251726
1.37437
3.95509
6.61829
8.51201
9.26507
8.62219
7.99983
7.24638
6.31368
5.28224
4.25015
3.28838
2.44417
1.7381
1.16008
0.721969
0.383355
0.155367
0.0449727
0.00853351
0.000918096
4.83239e-05
1.42322e-05
1.551e-16
1.53485e-16
1.51506e-16
1.49082e-16
1.46116e-16
1.4249e-16
1.38063e-16
1.32669e-16
1.26113e-16
1.18173e-16
1.08606e-16
9.7163e-17
8.3636e-17
7.45019e-17
7.58202e-17
7.77206e-17
8.05312e-17
8.46356e-17
9.00404e-17
1.56417e-16
1.57783e-16
1.59241e-16
1.60798e-16
1.62461e-16
1.64237e-16
1.66134e-16
1.68159e-16
1.70322e-16
1.72631e-16
2.177e-16
3.57514e-11
2.79416e-08
4.48297e-07
2.63216e-06
1.01221e-05
3.38319e-05
0.000102682
0.000299735
0.000868647
0.00265612
0.0111716
0.0786954
0.555992
2.35264
5.26282
7.74756
9.32599
9.42357
8.8033
8.16346
7.34067
6.34771
5.2814
4.23193
3.26629
2.42351
1.72137
1.14843
0.713866
0.37711
0.152413
0.0440061
0.00835369
0.000899678
4.73621e-05
1.39745e-05
1.551e-16
1.53485e-16
1.51506e-16
1.49082e-16
1.46116e-16
1.4249e-16
1.38063e-16
1.32669e-16
1.26113e-16
1.18173e-16
1.08606e-16
9.7163e-17
8.3636e-17
7.45019e-17
7.58202e-17
7.77206e-17
8.05312e-17
8.46356e-17
9.00404e-17
1.56417e-16
1.57783e-16
1.59241e-16
1.60798e-16
1.62461e-16
1.64237e-16
1.66134e-16
1.68159e-16
1.70322e-16
1.72632e-16
1.75095e-16
1.17596e-13
2.12574e-09
9.58743e-08
7.94547e-07
3.48958e-06
1.24328e-05
3.9696e-05
0.000120014
0.000359463
0.00110063
0.00397814
0.0234655
0.18607
1.10974
3.59648
6.54076
8.80539
10.0541
9.59844
9.00318
8.31757
7.42134
6.37378
5.275
4.2125
3.24347
2.40268
1.70511
1.13648
0.705764
0.371074
0.149471
0.0431143
0.00818548
0.000881088
4.64415e-05
1.37284e-05
1.551e-16
1.53485e-16
1.51506e-16
1.49082e-16
1.46116e-16
1.4249e-16
1.38063e-16
1.32669e-16
1.26113e-16
1.18173e-16
1.08606e-16
9.7163e-17
8.3636e-17
7.45019e-17
7.58202e-17
7.77206e-17
8.05312e-17
8.46356e-17
9.00404e-17
1.56417e-16
1.57783e-16
1.59241e-16
1.60798e-16
1.62461e-16
1.64237e-16
1.66134e-16
1.68159e-16
1.70322e-16
1.72632e-16
1.75097e-16
3.21301e-16
5.09575e-11
1.57226e-08
2.06308e-07
1.13658e-06
4.37155e-06
1.4761e-05
4.62547e-05
0.000143232
0.000447612
0.00151073
0.00719704
0.0552014
0.417138
1.98654
4.96995
7.78865
9.78152
10.4041
9.79066
9.21443
8.45951
7.4902
6.39079
5.26513
4.19113
3.22
2.38213
1.68827
1.12435
0.697863
0.365034
0.146748
0.0422785
0.00801584
0.000863373
4.55567e-05
1.3484e-05
1.551e-16
1.53485e-16
1.51506e-16
1.49082e-16
1.46116e-16
1.4249e-16
1.38063e-16
1.32669e-16
1.26113e-16
1.18173e-16
1.08606e-16
9.7163e-17
8.3636e-17
7.45019e-17
7.58202e-17
7.77206e-17
8.05312e-17
8.46356e-17
9.00404e-17
1.56417e-16
1.57783e-16
1.59241e-16
1.60798e-16
1.62461e-16
1.64237e-16
1.66134e-16
1.68159e-16
1.70322e-16
1.72632e-16
1.75098e-16
1.77726e-16
2.55342e-13
1.48903e-09
4.48316e-08
3.40612e-07
1.46701e-06
5.26896e-06
1.71982e-05
5.49684e-05
0.000176331
0.000587139
0.00237374
0.015617
0.131464
0.863979
3.17712
6.36174
8.99737
10.6664
10.61
10.0341
9.42301
8.58794
7.54582
6.40092
5.25128
4.16815
3.19634
2.36072
1.67005
1.11251
0.689874
0.359423
0.144186
0.0414349
0.00785418
0.000846318
4.46676e-05
1.32465e-05
1.551e-16
1.53485e-16
1.51506e-16
1.49082e-16
1.46116e-16
1.4249e-16
1.38063e-16
1.32669e-16
1.26113e-16
1.18173e-16
1.08606e-16
9.7163e-17
8.3636e-17
7.45019e-17
7.58202e-17
7.77206e-17
8.05312e-17
8.46356e-17
9.00404e-17
1.56417e-16
1.57783e-16
1.59241e-16
1.60798e-16
1.62461e-16
1.64237e-16
1.66134e-16
1.68159e-16
1.70322e-16
1.72632e-16
1.75098e-16
1.7773e-16
5.16411e-16
5.14276e-11
7.69148e-09
8.90397e-08
4.68223e-07
1.79999e-06
6.1705e-06
2.03407e-05
6.70289e-05
0.000225893
0.000837982
0.00450197
0.0371775
0.30165
1.61775
4.58425
7.72382
10.152
11.4346
10.8314
10.2926
9.623
8.69966
7.59009
6.40391
5.23414
4.14428
3.17123
2.33887
1.65242
1.10057
0.682467
0.354123
0.141592
0.0406299
0.00769855
0.000829134
4.38134e-05
1.30155e-05
1.551e-16
1.53485e-16
1.51506e-16
1.49082e-16
1.46116e-16
1.4249e-16
1.38063e-16
1.32669e-16
1.26113e-16
1.18173e-16
1.08606e-16
9.7163e-17
8.3636e-17
7.45019e-17
7.58202e-17
7.77206e-17
8.05312e-17
8.46356e-17
9.00404e-17
1.56417e-16
1.57783e-16
1.59241e-16
1.60798e-16
1.62461e-16
1.64237e-16
1.66134e-16
1.68159e-16
1.70322e-16
1.72632e-16
1.75098e-16
1.77731e-16
1.80533e-16
3.91434e-13
8.39353e-10
1.94704e-08
1.37922e-07
5.89334e-07
2.13072e-06
7.25995e-06
2.45867e-05
8.45818e-05
0.000305714
0.00138237
0.010041
0.08987
0.646484
2.71846
6.07077
9.08893
11.203
11.6612
11.0919
10.5613
9.80684
8.79549
7.62286
6.40093
5.21505
4.1182
3.14576
2.31734
1.63483
1.08948
0.675466
0.348727
0.139108
0.0398537
0.00754185
0.000812687
4.29644e-05
1.27843e-05
1.551e-16
1.53485e-16
1.51506e-16
1.49082e-16
1.46116e-16
1.4249e-16
1.38063e-16
1.32669e-16
1.26113e-16
1.18173e-16
1.08606e-16
9.7163e-17
8.3636e-17
7.45019e-17
7.58202e-17
7.77206e-17
8.05312e-17
8.46356e-17
9.00404e-17
1.56417e-16
1.57783e-16
1.59241e-16
1.60798e-16
1.62461e-16
1.64237e-16
1.66134e-16
1.68159e-16
1.70322e-16
1.72632e-16
1.75098e-16
1.77731e-16
1.80542e-16
7.92521e-16
3.79529e-11
3.42342e-09
3.61255e-08
1.83286e-07
7.08241e-07
2.50104e-06
8.70467e-06
3.0633e-05
0.000111387
0.000454225
0.00273901
0.0243169
0.210663
1.26679
4.11223
7.56761
10.4004
12.164
11.9089
11.3982
10.8241
9.9729
8.87475
7.64576
6.39405
5.19262
4.0912
3.12032
2.2955
1.61851
1.07902
0.668238
0.343537
0.136705
0.0390717
0.00739184
0.00079624
4.20985e-05
1.25599e-05
1.551e-16
1.53485e-16
1.51506e-16
1.49082e-16
1.46116e-16
1.4249e-16
1.38063e-16
1.32669e-16
1.26113e-16
1.18173e-16
1.08606e-16
9.7163e-17
8.3636e-17
7.45019e-17
7.58202e-17
7.77206e-17
8.05312e-17
8.46356e-17
9.00404e-17
1.56417e-16
1.57783e-16
1.59241e-16
1.60798e-16
1.62461e-16
1.64237e-16
1.66134e-16
1.68159e-16
1.70322e-16
1.72632e-16
1.75098e-16
1.77731e-16
1.80542e-16
1.83529e-16
4.15241e-13
4.08658e-10
7.90935e-09
5.30901e-08
2.2562e-07
8.32273e-07
2.97658e-06
1.07159e-05
3.97049e-05
0.000155394
0.000787119
0.00628879
0.0597023
0.465192
2.24161
5.67451
9.06166
11.6561
12.7482
12.1832
11.7266
11.0752
10.1182
8.93899
7.66148
6.38202
5.16817
4.0637
3.09417
2.27494