# p  FACE_DATA 317
# x  y  z  p
-2.24217 0 0.27 23912.6
-2.12942 0 0.27 23876.9
-2.02231 0 0.27 23850.5
-1.92055 0 0.27 23840.7
-1.82389 0 0.27 23837.8
-1.73207 0 0.27 23832.7
-1.64485 0 0.27 23825.7
-1.562 0 0.27 23821.3
-1.48331 0 0.27 23820.8
-1.40856 0 0.27 23818.4
-1.33756 0 0.27 23810.5
-1.27013 0 0.27 23796.8
-1.20608 0 0.27 23778.4
-1.14539 0 0.27 23757.5
-1.08787 0 0.27 23738.2
-1.03323 0 0.27 23721.4
-0.981322 0 0.27 23706.7
-0.932014 0 0.27 23694.8
-0.885173 0 0.27 23685.8
-0.84068 0 0.27 23679
-0.798416 0 0.27 23674.5
-0.758473 0 0.27 23671.6
-0.720912 0 0.27 23669.9
-0.685558 0 0.27 23669.3
-0.652245 0 0.27 23669.3
-0.620811 0 0.27 23669.3
-0.591171 0 0.27 23669.4
-0.563165 0 0.27 23669.5
-0.536572 0 0.27 23670.4
-0.51125 0 0.27 23672
-0.487059 0 0.27 23674.5
-0.463863 0 0.27 23678
-0.441526 0 0.27 23682.6
-0.419915 0 0.27 23687.8
-0.398896 0 0.27 23693.4
-0.378338 0 0.27 23699.1
-0.358104 0 0.27 23704.8
-0.33806 0 0.27 23708
-0.318069 0 0.27 23735.9
-0.296809 0 0.27 23752
-0.275112 0 0.27 23735.7
-0.255001 0 0.27 23731.6
-0.23636 0 0.27 23757.8
-0.219081 0 0.27 23748.5
-0.203066 0 0.27 23727.8
-0.188221 0 0.27 23725.3
-0.174462 0 0.27 23723
-0.161708 0 0.27 23723.3
-0.149886 0 0.27 23724.1
-0.138929 0 0.27 23723.6
-0.128773 0 0.27 23724
-0.119359 0 0.27 23723.3
-0.110632 0 0.27 23723.4
-0.102544 0 0.27 23723.4
-0.0950472 0 0.27 23724.1
-0.0880983 0 0.27 23724.2
-0.0816572 0 0.27 23724.3
-0.0756869 0 0.27 23724.9
-0.070153 0 0.27 23722.9
-0.0650234 0 0.27 23743.5
-0.0602687 0 0.27 24648.5
-0.0558616 0 0.27 30979.8
-0.0517765 0 0.27 40138.9
-0.0479899 0 0.27 44404.4
-0.04448 0 0.27 46898
-0.0412265 0 0.27 48425.2
-0.0382106 0 0.27 49717.1
-0.0354151 0 0.27 50654.5
-0.0328237 0 0.27 51448.2
-0.0304215 0 0.27 52146
-0.0281948 0 0.27 52754.6
-0.0261306 0 0.27 53290.6
-0.0242171 0 0.27 53769.3
-0.0224431 0 0.27 54201.5
-0.0207985 0 0.27 54593.8
-0.0192738 0 0.27 54949.7
-0.0178602 0 0.27 55273.5
-0.0165496 0 0.27 55567.8
-0.0153345 0 0.27 55835.5
-0.0142077 0 0.27 56078.7
-0.0131629 0 0.27 56300.3
-0.0121939 0 0.27 56503
-0.0112952 0 0.27 56689
-0.0104616 0 0.27 56860.3
-0.0096884 0 0.27 57018.7
-0.00897103 0 0.27 57165.8
-0.00830536 0 0.27 57303.1
-0.00768758 0 0.27 57431.6
-0.0071141 0 0.27 57552.4
-0.00658165 0 0.27 57665.9
-0.00608714 0 0.27 57773.1
-0.00562772 0 0.27 57874.5
-0.00520074 0 0.27 57970.5
-0.00480375 0 0.27 58061.4
-0.00443446 0 0.27 58147.5
-0.00409073 0 0.27 58228.9
-0.00377059 0 0.27 58306
-0.00347218 0 0.27 58377.7
-0.00319379 0 0.27 58451.4
-0.00293381 0 0.27 58516.5
-0.00269075 0 0.27 58578.4
-0.00246319 0 0.27 58637
-0.00224984 0 0.27 58692.7
-0.00204945 0 0.27 58745.2
-0.00186089 0 0.27 58795
-0.00168306 0 0.27 58841.7
-0.00151492 0 0.27 58886.1
-0.00135552 0 0.27 58927.4
-0.00120394 0 0.27 58966.8
-0.00105929 0 0.27 59002.7
-0.000920752 0 0.27 59037.1
-0.000787523 0 0.27 59067.6
-0.000658834 0 0.27 59095.6
-0.000533942 0 0.27 59119.4
-0.000412129 0 0.27 59136.7
-0.000292693 0 0.27 59153
-0.000174943 0 0.27 59132.6
-5.82025e-05 0 0.27 59331.1
6.0278e-05 2.68374e-05 0.27 58613.6
0.000182584 8.12915e-05 0.27 58835.4
0.000308438 0.000137325 0.27 58793.7
0.000437939 0.000194983 0.27 58781.2
0.00057119 0.00025431 0.27 58770
0.000708293 0.000315353 0.27 58772.6
0.000849358 0.000378158 0.27 58784.6
0.000994492 0.000442776 0.27 58801.3
0.00114381 0.000509256 0.27 58825.3
0.00129743 0.000577649 0.27 58852.7
0.00145545 0.000648007 0.27 58885.4
0.00161801 0.000720386 0.27 58921.2
0.00178523 0.000794839 0.27 58961.5
0.00195724 0.000871423 0.27 59004.7
0.00213417 0.000950195 0.27 59051.7
0.00231614 0.00103122 0.27 59101.7
0.0025033 0.00111455 0.27 59155.2
0.00269579 0.00120024 0.27 59211.6
0.00289374 0.00128838 0.27 59271.2
0.00309731 0.00137901 0.27 59334.1
0.00330663 0.00147221 0.27 59401
0.00352187 0.00156804 0.27 59470.7
0.00374317 0.00166657 0.27 59543
0.0039707 0.00176788 0.27 59618.6
0.00420463 0.00187202 0.27 59697.6
0.00444512 0.0019791 0.27 59780
0.00469233 0.00208916 0.27 59865.9
0.00494645 0.0022023 0.27 59955.2
0.00520763 0.00231859 0.27 60048.1
0.00547608 0.00243811 0.27 60144.6
0.00575197 0.00256094 0.27 60244.8
0.00603549 0.00268717 0.27 60348.7
0.00632683 0.00281688 0.27 60456.5
0.00662618 0.00295016 0.27 60568.3
0.00693375 0.0030871 0.27 60684.1
0.00724974 0.0032278 0.27 60804.1
0.00757435 0.00337232 0.27 60928.4
0.0079078 0.00352077 0.27 61057.1
0.00825029 0.00367327 0.27 61190.4
0.00860204 0.00382988 0.27 61328.3
0.00896328 0.00399071 0.27 61471.1
0.00933422 0.00415586 0.27 61618.9
0.0097151 0.00432544 0.27 61771.9
0.0101061 0.00449954 0.27 61930.4
0.0105076 0.00467828 0.27 62094.6
0.0109197 0.00486175 0.27 62264.5
0.0113426 0.00505007 0.27 62440.7
0.0117768 0.00524333 0.27 62622.8
0.0122222 0.00544166 0.27 62811.7
0.0126792 0.00564515 0.27 63007.2
0.0131482 0.00585394 0.27 63210.1
0.0136292 0.00606812 0.27 63420.1
0.0141227 0.00628781 0.27 63637.8
0.0146288 0.00651313 0.27 63863.5
0.0151477 0.00674419 0.27 64097.1
0.0156799 0.00698113 0.27 64339.3
0.0162254 0.00722403 0.27 64590.2
0.0167847 0.00747303 0.27 64850.2
0.017358 0.00772826 0.27 65119.3
0.0179454 0.00798982 0.27 65398
0.0185474 0.00825783 0.27 65686.2
0.0191641 0.00853242 0.27 65984.3
0.0197959 0.00881371 0.27 66292.3
0.0204431 0.00910183 0.27 66610.5
0.0211057 0.00939688 0.27 66938.8
0.0217843 0.00969898 0.27 67277.7
0.0224789 0.0100083 0.27 67627.1
0.02319 0.0103248 0.27 67987.2
0.0239176 0.0106488 0.27 68358.4
0.0246623 0.0109804 0.27 68740.3
0.025424 0.0113195 0.27 69133.3
0.0262032 0.0116664 0.27 69537.2
0.0270001 0.0120212 0.27 69951.7
0.0278149 0.012384 0.27 70376.6
0.0286479 0.0127549 0.27 70812.3
0.0294992 0.0131339 0.27 71257.9
0.0303692 0.0135212 0.27 71714.2
0.0312581 0.013917 0.27 72180.8
0.0321659 0.0143213 0.27 72657.4
0.0330931 0.014734 0.27 73144.4
0.0340398 0.0151555 0.27 73641.6
0.0350062 0.0155858 0.27 74148.7
0.0359924 0.0160249 0.27 74665.7
0.0369987 0.0164729 0.27 75193.1
0.0380251 0.0169299 0.27 75728.9
0.0390719 0.0173959 0.27 76273.3
0.0401391 0.0178711 0.27 76825.1
0.041227 0.0183554 0.27 77382.1
0.0423356 0.018849 0.27 77945.7
0.043465 0.0193519 0.27 78514.7
0.0446154 0.0198641 0.27 79086.2
0.0457867 0.0203856 0.27 79660.4
0.046979 0.0209164 0.27 80234.6
0.0481924 0.0214567 0.27 80808.6
0.0494267 0.0220063 0.27 81380.1
0.0506823 0.0225652 0.27 81947.8
0.0519588 0.0231335 0.27 82510.2
0.0532563 0.0237113 0.27 83065.2
0.0545749 0.0242983 0.27 83612.8
0.0559142 0.0248946 0.27 84151
0.0572744 0.0255002 0.27 84680.2
0.0586552 0.0261149 0.27 85199.1
0.0600565 0.0267388 0.27 85708.6
0.0614781 0.0273718 0.27 86209.4
0.0629198 0.0280137 0.27 86701.5
0.0643815 0.0286645 0.27 87188.2
0.0658629 0.029324 0.27 87668.7
0.0673636 0.0299922 0.27 88145.5
0.0688836 0.030669 0.27 88618
0.0704223 0.0313541 0.27 89086.3
0.0719795 0.0320474 0.27 89552.1
0.0735549 0.0327488 0.27 90013.3
0.075148 0.0334581 0.27 90469.1
0.0767585 0.0341751 0.27 90918.5
0.0783859 0.0348996 0.27 91359
0.0800297 0.0356315 0.27 91791.9
0.0816895 0.0363706 0.27 92218
0.0833647 0.0371164 0.27 92631.3
0.085055 0.0378689 0.27 93034.3
0.0867595 0.0386278 0.27 93420.8
0.0884779 0.0393929 0.27 93790.1
0.0902095 0.0401639 0.27 94141.6
0.0919538 0.0409405 0.27 94473.6
0.09371 0.0417224 0.27 94784.9
0.0954776 0.0425094 0.27 95077.6
0.0972558 0.0433011 0.27 95354.1
0.0990439 0.0440972 0.27 95615.1
0.100841 0.0448975 0.27 95854
0.102647 0.0457015 0.27 96070.1
0.104461 0.046509 0.27 96284.2
0.106282 0.0473197 0.27 96475.4
0.108109 0.0481331 0.27 96671.2
0.109941 0.048949 0.27 96850.2
0.111779 0.0497671 0.27 97014.7
0.11362 0.0505868 0.27 97178.9
0.115464 0.051408 0.27 97374.8
0.117311 0.0522302 0.27 97555.2
0.11916 0.0530531 0.27 97729.4
0.121009 0.0538763 0.27 97959.4
0.122857 0.0546995 0.27 98179.1
0.124705 0.0555223 0.27 98396.9
0.126552 0.0563444 0.27 98633
0.128395 0.0571653 0.27 98880.2
0.130236 0.0579847 0.27 99133
0.132072 0.0588023 0.27 99389.1
0.133904 0.0596177 0.27 99643.3
0.13573 0.0604306 0.27 99874.2
0.137549 0.0612407 0.27 100069
0.139361 0.0620475 0.27 100247
0.141165 0.0628508 0.27 100372
0.14296 0.0636503 0.27 100529
0.144747 0.0644455 0.27 100653
0.146523 0.0652363 0.27 100733
0.148288 0.0660222 0.27 100791
0.150042 0.0668031 0.27 100812
0.151784 0.0675785 0.27 100847
0.153513 0.0683483 0.27 100823
0.155228 0.0691121 0.27 100789
0.15693 0.0698698 0.27 100782
0.158617 0.070621 0.27 100760
0.160289 0.0713654 0.27 100746
0.161946 0.072103 0.27 100715
0.163586 0.0728334 0.27 100677
0.165211 0.0735564 0.27 100659
0.166817 0.0742718 0.27 100643
0.168406 0.0749795 0.27 100647
0.169978 0.0756793 0.27 100670
0.171532 0.0763709 0.27 100690
0.173067 0.0770543 0.27 100733
0.174583 0.0777293 0.27 100784
0.17608 0.0783958 0.27 100893
0.177557 0.0790535 0.27 101035
0.179014 0.0797025 0.27 101113
0.180452 0.0803425 0.27 101233
0.18187 0.0809736 0.27 101414
0.183266 0.0815956 0.27 101616
0.184643 0.0822085 0.27 101858
0.185999 0.0828122 0.27 102093
0.187334 0.0834066 0.27 102326
0.188648 0.0839917 0.27 102596
0.189942 0.0845675 0.27 102838
0.191214 0.0851339 0.27 103170
0.192465 0.085691 0.27 103449
0.193695 0.0862387 0.27 103765
0.194904 0.086777 0.27 104101
0.196093 0.0873059 0.27 104429
0.197259 0.0878254 0.27 104742
0.198405 0.0883357 0.27 105059
0.19953 0.0888366 0.27 105393
0.200635 0.0893284 0.27 105743
0.201718 0.0898108 0.27 106048
0.202782 0.0902841 0.27 106332
0.203824 0.0907483 0.27 106603
0.204846 0.0912035 0.27 106827
0.205848 0.0916496 0.27 107055
0.206831 0.0920869 0.27 107288
0.207793 0.0925153 0.27 107484
0.208735 0.092935 0.27 107711
0.209658 0.093346 0.27 107593
