# y+ ()       
# Time        	patch         	min           	max           	average       
9900          	base	7.158010e-03	2.411260e+01	5.487935e+00
