# y+ ()       
# Time        	patch         	min           	max           	average       
0             	base	3.053022e-03	3.515551e+01	5.632665e+00
