# y+ ()       
# Time        	patch         	min           	max           	average       
6800          	base	3.112895e-03	2.359533e+01	5.472873e+00
