# y+ ()       
# Time        	patch         	min           	max           	average       
5100          	base	1.805639e-02	6.439988e-01	2.599102e-01
