# p  FACE_DATA 235
# x  y  z  p
-0.57565 0 0.0205 3674.2
-0.556783 0 0.0205 3042.25
-0.538647 0 0.0205 2864.32
-0.521213 0 0.0205 2795.53
-0.504453 0 0.0205 2780.9
-0.48834 0 0.0205 2777.06
-0.472849 0 0.0205 2776
-0.457957 0 0.0205 2776.75
-0.443638 0 0.0205 2777.87
-0.429872 0 0.0205 2778.22
-0.416636 0 0.0205 2778
-0.40391 0 0.0205 2777.67
-0.391674 0 0.0205 2777.24
-0.379908 0 0.0205 2776.59
-0.368594 0 0.0205 2775.67
-0.357715 0 0.0205 2774.58
-0.347254 0 0.0205 2773.45
-0.337194 0 0.0205 2772.35
-0.327521 0 0.0205 2771.26
-0.318219 0 0.0205 2770.16
-0.309273 0 0.0205 2769.02
-0.300671 0 0.0205 2767.82
-0.292398 0 0.0205 2766.58
-0.284442 0 0.0205 2765.36
-0.27679 0 0.0205 2764.16
-0.269431 0 0.0205 2762.98
-0.262355 0 0.0205 2761.79
-0.255549 0 0.0205 2760.61
-0.249003 0 0.0205 2759.45
-0.242707 0 0.0205 2758.3
-0.236652 0 0.0205 2757.17
-0.230829 0 0.0205 2756.06
-0.225228 0 0.0205 2754.96
-0.219841 0 0.0205 2753.93
-0.21466 0 0.0205 2752.91
-0.209676 0 0.0205 2752
-0.204883 0 0.0205 2750.97
-0.200177 0 0.0205 2749.76
-0.1955 0 0.0205 2749.2
-0.190906 0 0.0205 2748.45
-0.186428 0 0.0205 2747.66
-0.182051 0 0.0205 2746.86
-0.177762 0 0.0205 2746.1
-0.17358 0 0.0205 2745.31
-0.169482 0 0.0205 2744.47
-0.165477 0 0.0205 2743.58
-0.161572 0 0.0205 2742.69
-0.157735 0 0.0205 2741.86
-0.153994 0 0.0205 2741.03
-0.150346 0 0.0205 2740.23
-0.146761 0 0.0205 2739.47
-0.143265 0 0.0205 2738.71
-0.139847 0 0.0205 2737.99
-0.136496 0 0.0205 2737.32
-0.133229 0 0.0205 2736.65
-0.130025 0 0.0205 2736.03
-0.126893 0 0.0205 2735.41
-0.123837 0 0.0205 2734.79
-0.120834 0 0.0205 2734.21
-0.117903 0 0.0205 2733.62
-0.115044 0 0.0205 2733.03
-0.112234 0 0.0205 2732.5
-0.109492 0 0.0205 2731.96
-0.106804 0 0.0205 2731.44
-0.104153 0 0.0205 2730.95
-0.101546 0 0.0205 2730.46
-0.0989719 0 0.0205 2729.99
-0.0964343 0 0.0205 2729.52
-0.0939374 0 0.0205 2729.03
-0.0914684 0 0.0205 2728.57
-0.0890386 0 0.0205 2728.09
-0.0866475 0 0.0205 2727.61
-0.0842832 0 0.0205 2727.15
-0.0819566 0 0.0205 2726.68
-0.0796635 0 0.0205 2726.23
-0.0774002 0 0.0205 2725.79
-0.0751735 0 0.0205 2725.34
-0.0729758 0 0.0205 2724.92
-0.0708106 0 0.0205 2724.51
-0.0686812 0 0.0205 2724.09
-0.0665768 0 0.0205 2723.71
-0.0645079 0 0.0205 2723.32
-0.0624742 0 0.0205 2722.93
-0.0604652 0 0.0205 2722.56
-0.0584911 0 0.0205 2722.18
-0.0565486 0 0.0205 2721.81
-0.054634 0 0.0205 2721.46
-0.0527543 0 0.0205 2721.08
-0.050906 0 0.0205 2720.74
-0.0490962 0 0.0205 2720.4
-0.0473279 0 0.0205 2720.02
-0.04559 0 0.0205 2719.76
-0.0438927 0 0.0205 2720.25
-0.0422356 0 0.0205 2850.85
-0.0406076 0 0.0205 7045.32
-0.039019 0 0.0205 10243.4
-0.0374658 0 0.0205 13244.4
-0.0359442 0 0.0205 13656.6
-0.0344609 0 0.0205 14222.9
-0.0330083 0 0.0205 14849.9
-0.0315898 0 0.0205 15193
-0.0302086 0 0.0205 15276.2
-0.0288534 0 0.0205 15299.2
-0.0275349 0 0.0205 15391.4
-0.0262527 0 0.0205 15606.2
-0.0249956 0 0.0205 15920.5
-0.023774 0 0.0205 16270.7
-0.0225842 0 0.0205 16600.7
-0.021422 0 0.0205 16878.3
-0.0202944 0 0.0205 17093.4
-0.0191938 0 0.0205 17256.3
-0.0181234 0 0.0205 17381.4
-0.0170867 0 0.0205 17481.5
-0.016072 0 0.0205 17565.1
-0.0150901 0 0.0205 17636.6
-0.0141406 0 0.0205 17698.9
-0.013212 0 0.0205 17753.9
-0.012315 0 0.0205 17800.6
-0.0114453 0 0.0205 17841.2
-0.010599 0 0.0205 17877.4
-0.00978278 0 0.0205 17909.4
-0.0089888 0 0.0205 17942.4
-0.0082203 0 0.0205 17978.2
-0.00748044 0 0.0205 18020.2
-0.00675745 0 0.0205 18074.7
-0.00606198 0 0.0205 18147.7
-0.0053934 0 0.0205 18246.6
-0.00473991 0 0.0205 18383.1
-0.004112 0 0.0205 18596.2
-0.00350529 0 0.0205 18855
-0.00291537 0 0.0205 19163.6
-0.00234888 0 0.0205 19525
-0.0017977 0 0.0205 19937.8
-0.00126472 0 0.0205 20402.2
-0.0007527 0 0.0205 21069.5
-0.00025 0 0.0205 22691.1
0.00020726 0.000139798 0.0205 20410.1
0.00062196 0.000419517 0.0205 20310.3
0.00103721 0.000699604 0.0205 19811.9
0.00145336 0.000980299 0.0205 19391.6
0.00187079 0.00126186 0.0205 19135.8
0.00228985 0.00154452 0.0205 19098.4
0.00271091 0.00182854 0.0205 19170.5
0.00313435 0.00211415 0.0205 19330.7
0.00356054 0.00240162 0.0205 19572.9
0.00398984 0.00269118 0.0205 19860.8
0.00442264 0.0029831 0.0205 20189.5
0.00485931 0.00327765 0.0205 20570.3
0.00530023 0.00357505 0.0205 20995.5
0.00574579 0.00387559 0.0205 21464
0.00619639 0.00417951 0.0205 21976.3
0.00665241 0.0044871 0.0205 22534.7
0.00711424 0.00479861 0.0205 23142.2
0.00758231 0.00511434 0.0205 23802.3
0.00805703 0.00543453 0.0205 24520.6
0.00853879 0.00575948 0.0205 25300.7
0.00902802 0.00608948 0.0205 26147.6
0.00952516 0.0064248 0.0205 27065.7
0.0100306 0.00676576 0.0205 28063.7
0.0105449 0.00711263 0.0205 29154.2
0.0110684 0.00746574 0.0205 30339.3
0.0116016 0.00782537 0.0205 31638.5
0.0121449 0.00819186 0.0205 33046.5
0.0126989 0.00856552 0.0205 34602.6
0.013264 0.00894669 0.0205 36298
0.0138407 0.00933568 0.0205 38149.9
0.0144295 0.00973285 0.0205 40177.8
0.015031 0.0101386 0.0205 42392.2
0.0156456 0.0105531 0.0205 44803
0.016274 0.0109769 0.0205 47422.6
0.0169165 0.0114103 0.0205 50263.2
0.0175739 0.0118537 0.0205 53307
0.0182466 0.0123075 0.0205 56563.4
0.0189354 0.0127721 0.0205 60023.1
0.0196407 0.0132478 0.0205 63651
0.0203631 0.0137352 0.0205 67432.3
0.0211035 0.0142345 0.0205 71298.5
0.0218623 0.0147463 0.0205 75044.8
0.0226403 0.0152711 0.0205 78590.3
0.023438 0.0158092 0.0205 82339.1
0.0242564 0.0163611 0.0205 86922.5
0.0250958 0.0169274 0.0205 93052.9
0.0259573 0.0175084 0.0205 101391
0.0268416 0.0181049 0.0205 112113
0.0277493 0.0187172 0.0205 124732
0.0286813 0.0193458 0.0205 138090
0.0296385 0.0199914 0.0205 150918
0.0306216 0.0206545 0.0205 162084
0.0316314 0.0213357 0.0205 170280
0.032669 0.0220355 0.0205 174145
0.0337352 0.0227547 0.0205 174051
0.034831 0.0234938 0.0205 173032
0.0359572 0.0242533 0.0205 172132
0.0371148 0.0250343 0.0205 169013
0.038305 0.0258371 0.0205 164508
0.0395287 0.0266625 0.0205 159809
0.040787 0.0275112 0.0205 154916
0.0420811 0.0283841 0.0205 149232
0.043412 0.0292818 0.0205 142831
0.0447809 0.0302051 0.0205 137153
0.046189 0.0311548 0.0205 133447
0.0476375 0.0321318 0.0205 130930
0.0491277 0.0331371 0.0205 128830
0.0506609 0.0341713 0.0205 126799
0.0522386 0.0352353 0.0205 125017
0.0538619 0.0363303 0.0205 123565
0.0555324 0.0374571 0.0205 121720
0.0572515 0.0386166 0.0205 120827
0.0590207 0.03981 0.0205 121399
0.0608417 0.0410383 0.0205 123112
0.0627159 0.0423024 0.0205 125134
0.064645 0.0436036 0.0205 126103
0.0666306 0.044943 0.0205 126460
0.0686746 0.0463217 0.0205 126381
0.0707788 0.0477409 0.0205 126189
0.0729449 0.0492019 0.0205 126721
0.0751749 0.0507061 0.0205 127749
0.0774706 0.0522546 0.0205 128877
0.0798342 0.0538489 0.0205 129458
0.0822678 0.0554903 0.0205 129430
0.0847732 0.0571803 0.0205 129238
0.087353 0.0589204 0.0205 129284
0.0900092 0.060712 0.0205 129913
0.0927443 0.0625568 0.0205 129978
0.0955605 0.0644564 0.0205 129272
0.0984604 0.0664124 0.0205 128430
0.101446 0.0684266 0.0205 128102
0.104521 0.0705006 0.0205 127473
0.107688 0.0726364 0.0205 127575
0.110949 0.0748358 0.0205 127764
0.114306 0.0771006 0.0205 127682
0.117764 0.079433 0.0205 127954
0.121326 0.081835 0.0205 128042
0.124992 0.0843085 0.0205 128043
0.128769 0.0868559 0.0205 127175
