# wallHeatFlux  FACE_DATA 235
# x  y  z  wallHeatFlux
-0.57565 0 0.0205 -356798
-0.556783 0 0.0205 -82803.4
-0.538647 0 0.0205 -77760.9
-0.521213 0 0.0205 -76805.4
-0.504453 0 0.0205 -76699.3
-0.48834 0 0.0205 -76646.2
-0.472849 0 0.0205 -76487
-0.457957 0 0.0205 -76221.6
-0.443638 0 0.0205 -75850
-0.429872 0 0.0205 -75372.3
-0.416636 0 0.0205 -74894.6
-0.40391 0 0.0205 -74310.7
-0.391674 0 0.0205 -73779.9
-0.379908 0 0.0205 -73196.1
-0.368594 0 0.0205 -72665.3
-0.357715 0 0.0205 -72081.4
-0.347254 0 0.0205 -71550.6
-0.337194 0 0.0205 -71072.9
-0.327521 0 0.0205 -70595.2
-0.318219 0 0.0205 -70170.5
-0.309273 0 0.0205 -69745.9
-0.300671 0 0.0205 -69321.3
-0.292398 0 0.0205 -68896.7
-0.284442 0 0.0205 -68578.2
-0.27679 0 0.0205 -68206.6
-0.269431 0 0.0205 -67888.1
-0.262355 0 0.0205 -67569.7
-0.255549 0 0.0205 -67304.3
-0.249003 0 0.0205 -67038.9
-0.242707 0 0.0205 -66773.5
-0.236652 0 0.0205 -66508.1
-0.230829 0 0.0205 -66295.8
-0.225228 0 0.0205 -66083.5
-0.219841 0 0.0205 -65871.1
-0.21466 0 0.0205 -65658.8
-0.209676 0 0.0205 -65499.6
-0.204883 0 0.0205 -65393.4
-0.200177 0 0.0205 -65128
-0.1955 0 0.0205 -64968.8
-0.190906 0 0.0205 -64809.6
-0.186428 0 0.0205 -64703.4
-0.182051 0 0.0205 -64544.2
-0.177762 0 0.0205 -64384.9
-0.17358 0 0.0205 -64278.8
-0.169482 0 0.0205 -64172.6
-0.165477 0 0.0205 -64013.4
-0.161572 0 0.0205 -63907.2
-0.157735 0 0.0205 -63801.1
-0.153994 0 0.0205 -63641.8
-0.150346 0 0.0205 -63535.7
-0.146761 0 0.0205 -63429.5
-0.143265 0 0.0205 -63323.3
-0.139847 0 0.0205 -63270.3
-0.136496 0 0.0205 -63164.1
-0.133229 0 0.0205 -63058
-0.130025 0 0.0205 -63004.9
-0.126893 0 0.0205 -62898.7
-0.123837 0 0.0205 -62792.6
-0.120834 0 0.0205 -62739.5
-0.117903 0 0.0205 -62633.3
-0.115044 0 0.0205 -62580.2
-0.112234 0 0.0205 -62527.2
-0.109492 0 0.0205 -62421
-0.106804 0 0.0205 -62367.9
-0.104153 0 0.0205 -62314.8
-0.101546 0 0.0205 -62261.8
-0.0989719 0 0.0205 -62208.7
-0.0964343 0 0.0205 -62155.6
-0.0939374 0 0.0205 -62102.5
-0.0914684 0 0.0205 -62049.4
-0.0890386 0 0.0205 -61943.3
-0.0866475 0 0.0205 -61943.3
-0.0842832 0 0.0205 -61890.2
-0.0819566 0 0.0205 -61837.1
-0.0796635 0 0.0205 -61784.1
-0.0774002 0 0.0205 -61731
-0.0751735 0 0.0205 -61677.9
-0.0729758 0 0.0205 -61624.8
-0.0708106 0 0.0205 -61571.7
-0.0686812 0 0.0205 -61518.7
-0.0665768 0 0.0205 -61465.6
-0.0645079 0 0.0205 -61465.6
-0.0624742 0 0.0205 -61412.5
-0.0604652 0 0.0205 -61359.4
-0.0584911 0 0.0205 -61306.3
-0.0565486 0 0.0205 -61306.3
-0.054634 0 0.0205 -61253.3
-0.0527543 0 0.0205 -61200.2
-0.050906 0 0.0205 -61200.2
-0.0490962 0 0.0205 -61147.1
-0.0473279 0 0.0205 -61147.1
-0.04559 0 0.0205 -61094
-0.0438927 0 0.0205 -61147.1
-0.0422356 0 0.0205 -72134.5
-0.0406076 0 0.0205 -397244
-0.039019 0 0.0205 -258761
-0.0374658 0 0.0205 -287529
-0.0359442 0 0.0205 -236680
-0.0344609 0 0.0205 -195490
-0.0330083 0 0.0205 -191881
-0.0315898 0 0.0205 -195915
-0.0302086 0 0.0205 -189598
-0.0288534 0 0.0205 -179567
-0.0275349 0 0.0205 -171021
-0.0262527 0 0.0205 -170278
-0.0249956 0 0.0205 -178558
-0.023774 0 0.0205 -193632
-0.0225842 0 0.0205 -212369
-0.021422 0 0.0205 -231584
-0.0202944 0 0.0205 -248039
-0.0191938 0 0.0205 -260512
-0.0181234 0 0.0205 -268368
-0.0170867 0 0.0205 -272030
-0.016072 0 0.0205 -272083
-0.0150901 0 0.0205 -269376
-0.0141406 0 0.0205 -264652
-0.013212 0 0.0205 -258389
-0.012315 0 0.0205 -251011
-0.0114453 0 0.0205 -243474
-0.010599 0 0.0205 -236149
-0.00978278 0 0.0205 -229355
-0.0089888 0 0.0205 -223675
-0.0082203 0 0.0205 -219270
-0.00748044 0 0.0205 -216563
-0.00675745 0 0.0205 -215661
-0.00606198 0 0.0205 -216456
-0.0053934 0 0.0205 -219801
-0.00473991 0 0.0205 -225693
-0.004112 0 0.0205 -234025
-0.00350529 0 0.0205 -243421
-0.00291537 0 0.0205 -252763
-0.00234888 0 0.0205 -261734
-0.0017977 0 0.0205 -269907
-0.00126472 0 0.0205 -275055
-0.0007527 0 0.0205 -278356
-0.00025 0 0.0205 -262299
0.00020726 0.000139798 0.0205 -162567
0.00062196 0.000419517 0.0205 -189387
0.00103721 0.000699604 0.0205 -224652
0.00145336 0.000980299 0.0205 -236747
0.00187079 0.00126186 0.0205 -244124
0.00228985 0.00154452 0.0205 -248153
0.00271091 0.00182854 0.0205 -252249
0.00313435 0.00211415 0.0205 -255944
0.00356054 0.00240162 0.0205 -260969
0.00398984 0.00269118 0.0205 -265382
0.00442264 0.0029831 0.0205 -270525
0.00485931 0.00327765 0.0205 -276568
0.00530023 0.00357505 0.0205 -283301
0.00574579 0.00387559 0.0205 -290829
0.00619639 0.00417951 0.0205 -299099
0.00665241 0.0044871 0.0205 -308429
0.00711424 0.00479861 0.0205 -318713
0.00758231 0.00511434 0.0205 -330535
0.00805703 0.00543453 0.0205 -343417
0.00853879 0.00575948 0.0205 -357837
0.00902802 0.00608948 0.0205 -373297
0.00952516 0.0064248 0.0205 -390363
0.0100306 0.00676576 0.0205 -408910
0.0105449 0.00711263 0.0205 -431339
0.0110684 0.00746574 0.0205 -456635
0.0116016 0.00782537 0.0205 -485436
0.0121449 0.00819186 0.0205 -523003
0.0126989 0.00856552 0.0205 -554060
0.013264 0.00894669 0.0205 -596934
0.0138407 0.00933568 0.0205 -644556
0.0144295 0.00973285 0.0205 -699349
0.015031 0.0101386 0.0205 -759590
0.0156456 0.0105531 0.0205 -830044
0.016274 0.0109769 0.0205 -907570
0.0169165 0.0114103 0.0205 -987979
0.0175739 0.0118537 0.0205 -1.08042e+06
0.0182466 0.0123075 0.0205 -1.17495e+06
0.0189354 0.0127721 0.0205 -1.26664e+06
0.0196407 0.0132478 0.0205 -1.36684e+06
0.0203631 0.0137352 0.0205 -1.45593e+06
0.0211035 0.0142345 0.0205 -1.52512e+06
0.0218623 0.0147463 0.0205 -1.56892e+06
0.0226403 0.0152711 0.0205 -1.55889e+06
0.023438 0.0158092 0.0205 -1.52092e+06
0.0242564 0.0163611 0.0205 -1.46693e+06
0.0250958 0.0169274 0.0205 -1.45177e+06
0.0259573 0.0175084 0.0205 -1.50007e+06
0.0268416 0.0181049 0.0205 -1.64098e+06
0.0277493 0.0187172 0.0205 -1.839e+06
0.0286813 0.0193458 0.0205 -2.0694e+06
0.0296385 0.0199914 0.0205 -2.27793e+06
0.0306216 0.0206545 0.0205 -2.38189e+06
0.0316314 0.0213357 0.0205 -2.42684e+06
0.032669 0.0220355 0.0205 -2.40469e+06
0.0337352 0.0227547 0.0205 -2.25917e+06
0.034831 0.0234938 0.0205 -2.16385e+06
0.0359572 0.0242533 0.0205 -2.18657e+06
0.0371148 0.0250343 0.0205 -2.22284e+06
0.038305 0.0258371 0.0205 -2.20217e+06
0.0395287 0.0266625 0.0205 -2.20456e+06
0.040787 0.0275112 0.0205 -2.18338e+06
0.0420811 0.0283841 0.0205 -2.12509e+06
0.043412 0.0292818 0.0205 -2.00131e+06
0.0447809 0.0302051 0.0205 -1.86081e+06
0.046189 0.0311548 0.0205 -1.7721e+06
0.0476375 0.0321318 0.0205 -1.74566e+06
0.0491277 0.0331371 0.0205 -1.71447e+06
0.0506609 0.0341713 0.0205 -1.68491e+06
0.0522386 0.0352353 0.0205 -1.6645e+06
0.0538619 0.0363303 0.0205 -1.65003e+06
0.0555324 0.0374571 0.0205 -1.57282e+06
0.0572515 0.0386166 0.0205 -1.5176e+06
0.0590207 0.03981 0.0205 -1.50875e+06
0.0608417 0.0410383 0.0205 -1.53801e+06
0.0627159 0.0423024 0.0205 -1.57035e+06
0.064645 0.0436036 0.0205 -1.60304e+06
0.0666306 0.044943 0.0205 -1.60516e+06
0.0686746 0.0463217 0.0205 -1.59379e+06
0.0707788 0.0477409 0.0205 -1.55988e+06
0.0729449 0.0492019 0.0205 -1.54516e+06
0.0751749 0.0507061 0.0205 -1.58271e+06
0.0774706 0.0522546 0.0205 -1.61172e+06
0.0798342 0.0538489 0.0205 -1.61126e+06
0.0822678 0.0554903 0.0205 -1.61521e+06
0.0847732 0.0571803 0.0205 -1.61447e+06
0.087353 0.0589204 0.0205 -1.61987e+06
0.0900092 0.060712 0.0205 -1.68668e+06
0.0927443 0.0625568 0.0205 -1.70238e+06
0.0955605 0.0644564 0.0205 -1.64941e+06
0.0984604 0.0664124 0.0205 -1.60721e+06
0.101446 0.0684266 0.0205 -1.74207e+06
0.104521 0.0705006 0.0205 -1.53498e+06
0.107688 0.0726364 0.0205 -1.54042e+06
0.110949 0.0748358 0.0205 -1.58379e+06
0.114306 0.0771006 0.0205 -1.52352e+06
0.117764 0.079433 0.0205 -1.63539e+06
0.121326 0.081835 0.0205 -1.68384e+06
0.124992 0.0843085 0.0205 -1.62318e+06
0.128769 0.0868559 0.0205 -1.45118e+06
