# wallHeatFlux  FACE_DATA 398
# x  y  z  wallHeatFlux
-0.7975 0 0.025 -653677
-0.79239 0 0.025 -120071
-0.787056 0 0.025 -71302.7
-0.781492 0 0.025 -64259.2
-0.775691 0 0.025 -65677.1
-0.769649 0 0.025 -66334.7
-0.763362 0 0.025 -66744.4
-0.756822 0 0.025 -66526.3
-0.750025 0 0.025 -65956.6
-0.742968 0 0.025 -65132.1
-0.735648 0 0.025 -64151.7
-0.72806 0 0.025 -63143.7
-0.720203 0 0.025 -62157.6
-0.712076 0 0.025 -61246.9
-0.703677 0 0.025 -60425.7
-0.695006 0 0.025 -59630.3
-0.686065 0 0.025 -58887.5
-0.676855 0 0.025 -58224.1
-0.667379 0 0.025 -57495.4
-0.65764 0 0.025 -56793.1
-0.647644 0 0.025 -56226.4
-0.637397 0 0.025 -55658.4
-0.626906 0 0.025 -55064.5
-0.616179 0 0.025 -54583.3
-0.605224 0 0.025 -54054.3
-0.594054 0 0.025 -53587.5
-0.582678 0 0.025 -53074
-0.57111 0 0.025 -52606.8
-0.559364 0 0.025 -52170.9
-0.547454 0 0.025 -51823
-0.535396 0 0.025 -51398.4
-0.523205 0 0.025 -50969.2
-0.510901 0 0.025 -50577.9
-0.4985 0 0.025 -50219.6
-0.486021 0 0.025 -49940.5
-0.473483 0 0.025 -49648.4
-0.460905 0 0.025 -49304.9
-0.448308 0 0.025 -48976.6
-0.435709 0 0.025 -48667.9
-0.42313 0 0.025 -48366.9
-0.41059 0 0.025 -48107.8
-0.39811 0 0.025 -47911.5
-0.385706 0 0.025 -47697.1
-0.373398 0 0.025 -47455.8
-0.361205 0 0.025 -47213.5
-0.349141 0 0.025 -46979.7
-0.337226 0 0.025 -46767.3
-0.325475 0 0.025 -46549
-0.313901 0 0.025 -46341.2
-0.30252 0 0.025 -46159.5
-0.291343 0 0.025 -46005.8
-0.280382 0 0.025 -45873.5
-0.269646 0 0.025 -45761.8
-0.259148 0 0.025 -45650.5
-0.248893 0 0.025 -45535.7
-0.23889 0 0.025 -45399.9
-0.229143 0 0.025 -45253
-0.219659 0 0.025 -45081
-0.210441 0 0.025 -44908.8
-0.201491 0 0.025 -44729.2
-0.192812 0 0.025 -44568.8
-0.184405 0 0.025 -44434.3
-0.176269 0 0.025 -44330.2
-0.168404 0 0.025 -44254.6
-0.160808 0 0.025 -44205.8
-0.15348 0 0.025 -44181.5
-0.146415 0 0.025 -44168.7
-0.13961 0 0.025 -44143.8
-0.133063 0 0.025 -44110.3
-0.126767 0 0.025 -44061.5
-0.120718 0 0.025 -44013.4
-0.11491 0 0.025 -43949.9
-0.109339 0 0.025 -43876.4
-0.103997 0 0.025 -43802.1
-0.0988805 0 0.025 -43726.6
-0.0939808 0 0.025 -43643
-0.0892928 0 0.025 -43560.9
-0.0848096 0 0.025 -43484.2
-0.0805248 0 0.025 -43418.7
-0.0764316 0 0.025 -43358.8
-0.0725237 0 0.025 -43315
-0.0687943 0 0.025 -43271.9
-0.065237 0 0.025 -43239
-0.0618454 0 0.025 -43207.1
-0.058613 0 0.025 -43179.7
-0.0555337 0 0.025 -43153.3
-0.0526013 0 0.025 -43131.6
-0.0498099 0 0.025 -43115.6
-0.0471536 0 0.025 -43099.7
-0.0446266 0 0.025 -43089
-0.0422235 0 0.025 -43078.5
-0.039939 0 0.025 -43067.9
-0.0377676 0 0.025 -43062.3
-0.0357044 0 0.025 -43052.4
-0.0337445 0 0.025 -43052.1
-0.0318832 0 0.025 -43014.7
-0.0301159 0 0.025 -41931.9
-0.0284383 0 0.025 -35176.4
-0.0268461 0 0.025 -32585.6
-0.0253353 0 0.025 -49836.5
-0.023902 0 0.025 -62275.4
-0.0225426 0 0.025 -70012.2
-0.0212532 0 0.025 -75672.3
-0.0200306 0 0.025 -80719.3
-0.0188715 0 0.025 -85124.8
-0.0177728 0 0.025 -88823.3
-0.0167313 0 0.025 -92136.4
-0.0157444 0 0.025 -95214.5
-0.0148092 0 0.025 -98093.3
-0.0139232 0 0.025 -100807
-0.0130838 0 0.025 -103283
-0.0122887 0 0.025 -105495
-0.0115356 0 0.025 -107444
-0.0108223 0 0.025 -109150
-0.0101469 0 0.025 -110636
-0.00950727 0 0.025 -111926
-0.00890168 0 0.025 -113061
-0.00832835 0 0.025 -114090
-0.00778557 0 0.025 -115100
-0.00727176 0 0.025 -116140
-0.0067854 0 0.025 -117256
-0.00632507 0 0.025 -118491
-0.00588937 0 0.025 -119862
-0.00547703 0 0.025 -121373
-0.0050868 0 0.025 -123029
-0.00471753 0 0.025 -124822
-0.0043681 0 0.025 -126750
-0.00403746 0 0.025 -128855
-0.00372461 0 0.025 -131080
-0.0034286 0 0.025 -133442
-0.00314855 0 0.025 -135971
-0.0028836 0 0.025 -138719
-0.00263294 0 0.025 -141571
-0.00239581 0 0.025 -144285
-0.0021715 0 0.025 -147148
-0.00195929 0 0.025 -150136
-0.00175856 0 0.025 -153203
-0.00156869 0 0.025 -156369
-0.00138908 0 0.025 -159634
-0.0012192 0 0.025 -162963
-0.00105853 0 0.025 -166359
-0.000906546 0 0.025 -169796
-0.000762803 0 0.025 -173146
-0.000626848 0 0.025 -176114
-0.000498265 0 0.025 -177853
-0.000376656 0 0.025 -176500
-0.000261642 0 0.025 -168367
-0.00015287 0 0.025 -146248
-5e-05 0 0.025 -94828.1
4.14519e-05 2.79596e-05 0.025 -67258.2
0.000125371 8.45641e-05 0.025 -80799.7
0.000211347 0.000142556 0.025 -96181.4
0.000299429 0.000201968 0.025 -107421
0.000389669 0.000262835 0.025 -116838
0.000482118 0.000325193 0.025 -125785
0.000576831 0.000389077 0.025 -134211
0.000673861 0.000454524 0.025 -141856
0.000773265 0.000521574 0.025 -148628
0.0008751 0.000590262 0.025 -154599
0.000979426 0.000660632 0.025 -159877
0.0010863 0.000732721 0.025 -164580
0.00119579 0.000806572 0.025 -168933
0.00130795 0.000882227 0.025 -172964
0.00142285 0.00095973 0.025 -176733
0.00154056 0.00103912 0.025 -180374
0.00166115 0.00112046 0.025 -183891
0.00178467 0.00120378 0.025 -187373
0.00191121 0.00128913 0.025 -190851
0.00204083 0.00137656 0.025 -194276
0.00217362 0.00146612 0.025 -197753
0.00230964 0.00155787 0.025 -201294
0.00244897 0.00165185 0.025 -204849
0.00259169 0.00174812 0.025 -208498
0.00273789 0.00184673 0.025 -212259
0.00288765 0.00194774 0.025 -216158
0.00304105 0.00205122 0.025 -220163
0.00319818 0.00215719 0.025 -224299
0.00335912 0.00226575 0.025 -228648
0.00352397 0.00237695 0.025 -233131
0.00369283 0.00249085 0.025 -237823
0.00386579 0.00260751 0.025 -242692
0.00404294 0.00272699 0.025 -247799
0.00422438 0.00284938 0.025 -253170
0.00441022 0.00297474 0.025 -258814
0.00460056 0.00310312 0.025 -264743
0.00479552 0.00323462 0.025 -270969
0.00499519 0.0033693 0.025 -277603
0.00519968 0.00350723 0.025 -284543
0.00540911 0.00364849 0.025 -291934
0.00562361 0.00379318 0.025 -299719
0.00584329 0.00394134 0.025 -307933
0.00606826 0.00409309 0.025 -316743
0.00629865 0.00424849 0.025 -326020
0.0065346 0.00440764 0.025 -335902
0.00677623 0.00457063 0.025 -346467
0.00702368 0.00473753 0.025 -357689
0.00727707 0.00490844 0.025 -369797
0.00753655 0.00508347 0.025 -382660
0.00780227 0.00526269 0.025 -396518
0.00807436 0.00544622 0.025 -411365
0.00835298 0.00563415 0.025 -427176
0.00863826 0.00582659 0.025 -444360
0.00893038 0.00602362 0.025 -463325
0.00922949 0.00622537 0.025 -483188
0.00953574 0.00643195 0.025 -505217
0.00984929 0.00664345 0.025 -529301
0.0101703 0.00686 0.025 -556608
0.0104991 0.00708171 0.025 -586860
0.0108356 0.00730871 0.025 -621419
0.0111801 0.0075411 0.025 -658998
0.0115329 0.00777902 0.025 -697804
0.011894 0.00802259 0.025 -743855
0.0122637 0.00827194 0.025 -786986
0.0126421 0.00852719 0.025 -832215
0.0130295 0.0087885 0.025 -875250
0.013426 0.00905597 0.025 -918975
0.013832 0.00932978 0.025 -962224
0.0142475 0.00961003 0.025 -1.00501e+06
0.0146727 0.0098969 0.025 -1.04649e+06
0.0151081 0.0101905 0.025 -1.09124e+06
0.0155536 0.010491 0.025 -1.13741e+06
0.0160097 0.0107986 0.025 -1.18374e+06
0.0164764 0.0111134 0.025 -1.23398e+06
0.016954 0.0114356 0.025 -1.28688e+06
0.0174427 0.0117653 0.025 -1.3378e+06
0.0179429 0.0121026 0.025 -1.39271e+06
0.0184548 0.0124479 0.025 -1.45724e+06
0.0189786 0.0128013 0.025 -1.50169e+06
0.0195146 0.0131628 0.025 -1.54893e+06
0.020063 0.0135327 0.025 -1.60567e+06
0.0206242 0.0139112 0.025 -1.64135e+06
0.0211983 0.0142984 0.025 -1.66705e+06
0.0217857 0.0146947 0.025 -1.69916e+06
0.0223867 0.0151 0.025 -1.72708e+06
0.0230015 0.0155147 0.025 -1.75075e+06
0.0236304 0.0159389 0.025 -1.78105e+06
0.0242738 0.0163729 0.025 -1.78298e+06
0.0249318 0.0168167 0.025 -1.79748e+06
0.025605 0.0172708 0.025 -1.80403e+06
0.0262935 0.0177352 0.025 -1.77695e+06
0.0269977 0.0182102 0.025 -1.74687e+06
0.0277178 0.0186959 0.025 -1.70773e+06
0.0284544 0.0191927 0.025 -1.72166e+06
0.0292075 0.0197008 0.025 -1.66746e+06
0.0299777 0.0202203 0.025 -1.61978e+06
0.0307653 0.0207514 0.025 -1.58802e+06
0.0315704 0.0212945 0.025 -1.55804e+06
0.0323937 0.0218499 0.025 -1.53174e+06
0.0332354 0.0224176 0.025 -1.50498e+06
0.0340959 0.022998 0.025 -1.48184e+06
0.0349755 0.0235913 0.025 -1.45034e+06
0.0358747 0.0241978 0.025 -1.44933e+06
0.0367938 0.0248178 0.025 -1.41635e+06
0.0377331 0.0254513 0.025 -1.3937e+06
0.0386932 0.0260989 0.025 -1.3735e+06
0.0396743 0.0267606 0.025 -1.35712e+06
0.0406769 0.0274369 0.025 -1.34708e+06
0.0417013 0.0281279 0.025 -1.33199e+06
0.042748 0.0288339 0.025 -1.33403e+06
0.0438175 0.0295552 0.025 -1.32189e+06
0.04491 0.0302922 0.025 -1.31017e+06
0.0460262 0.031045 0.025 -1.31224e+06
0.0471662 0.031814 0.025 -1.32085e+06
0.0483306 0.0325995 0.025 -1.31175e+06
0.0495199 0.0334016 0.025 -1.31302e+06
0.0507344 0.0342208 0.025 -1.30733e+06
0.0519746 0.0350573 0.025 -1.30307e+06
0.0532409 0.0359114 0.025 -1.30506e+06
0.0545339 0.0367835 0.025 -1.29433e+06
0.0558538 0.0376739 0.025 -1.29492e+06
0.0572012 0.0385827 0.025 -1.29458e+06
0.0585766 0.0395104 0.025 -1.29368e+06
0.0599804 0.0404573 0.025 -1.30162e+06
0.061413 0.0414236 0.025 -1.2829e+06
0.0628748 0.0424096 0.025 -1.3063e+06
0.0643665 0.0434157 0.025 -1.30855e+06
0.0658883 0.0444422 0.025 -1.28245e+06
0.0674408 0.0454894 0.025 -1.27292e+06
0.0690245 0.0465576 0.025 -1.2722e+06
0.0706398 0.0476471 0.025 -1.27066e+06
0.0722871 0.0487582 0.025 -1.26795e+06
0.0739669 0.0498912 0.025 -1.26607e+06
0.0756797 0.0510466 0.025 -1.27461e+06
0.0774258 0.0522244 0.025 -1.28444e+06
0.0792059 0.053425 0.025 -1.27668e+06
0.0810203 0.0546489 0.025 -1.29681e+06
0.0828694 0.0558961 0.025 -1.26828e+06
0.0847537 0.0571671 0.025 -1.31209e+06
0.0866737 0.0584622 0.025 -1.27274e+06
0.0886298 0.0597816 0.025 -1.27237e+06
0.0906224 0.0611256 0.025 -1.28295e+06
0.0926518 0.0624944 0.025 -1.24778e+06
0.0947185 0.0638884 0.025 -1.29018e+06
0.096823 0.065308 0.025 -1.24971e+06
0.0989659 0.0667532 0.025 -1.33861e+06
0.101147 0.0682245 0.025 -1.68744e+06
0.103367 0.0697219 0.025 -1.59383e+06
0.105626 0.0712458 0.025 -1.2014e+06
0.107926 0.0727965 0.025 -1.19583e+06
0.110265 0.074374 0.025 -1.23271e+06
0.112644 0.0759789 0.025 -1.8332e+06
0.115063 0.0776111 0.025 -1.23592e+06
0.117524 0.0792709 0.025 -1.70669e+06
0.120026 0.0809585 0.025 -1.87683e+06
0.122569 0.0826741 0.025 -1.66699e+06
0.125155 0.0844179 0.025 -1.48878e+06
0.127782 0.0861901 0.025 -1.29243e+06
0.130451 0.0879908 0.025 -1.24691e+06
0.133163 0.08982 0.025 -1.22514e+06
0.135918 0.0916781 0.025 -1.19484e+06
0.138716 0.0935651 0.025 -1.19613e+06
0.141556 0.095481 0.025 -1.2054e+06
0.14444 0.097426 0.025 -1.58687e+06
0.147367 0.0994004 0.025 -2.34593e+06
0.150337 0.101404 0.025 -1.66583e+06
0.153351 0.103437 0.025 -1.61496e+06
0.156408 0.105498 0.025 -2.25696e+06
0.159508 0.107589 0.025 -1.02421e+06
0.162651 0.10971 0.025 -1.51311e+06
0.165838 0.111859 0.025 -3.65435e+06
0.169069 0.114039 0.025 -1.60539e+06
0.172343 0.116247 0.025 -1.9798e+06
0.175659 0.118483 0.025 -1.88046e+06
0.179018 0.120749 0.025 -1.87612e+06
0.182421 0.123045 0.025 -1.94791e+06
0.185866 0.125368 0.025 -1.70539e+06
0.189353 0.12772 0.025 -1.74062e+06
0.192882 0.1301 0.025 -1.8442e+06
0.196453 0.132509 0.025 -1.74224e+06
0.200065 0.134946 0.025 -2.16014e+06
0.203718 0.13741 0.025 -1.93728e+06
0.207412 0.139901 0.025 -924535
0.211146 0.14242 0.025 -986285
0.214919 0.144965 0.025 -1.618e+06
0.218732 0.147537 0.025 -988689
0.222583 0.150134 0.025 -1.94372e+06
0.226472 0.152757 0.025 -977461
0.230399 0.155406 0.025 -1.8316e+06
0.234362 0.15808 0.025 -1.72503e+06
0.238362 0.160777 0.025 -2.3568e+06
0.242396 0.163498 0.025 -1.94852e+06
0.246466 0.166244 0.025 -2.11164e+06
0.250569 0.169012 0.025 -930446
0.254706 0.171801 0.025 -1.53273e+06
0.258874 0.174613 0.025 -1.53726e+06
0.263074 0.177446 0.025 -1.96008e+06
0.267304 0.180299 0.025 -1.58337e+06
0.271564 0.183172 0.025 -948432
0.275852 0.186064 0.025 -1.62626e+06
0.280168 0.188975 0.025 -923272
0.28451 0.191904 0.025 -1.65142e+06
0.288876 0.19485 0.025 -2.28034e+06
0.293268 0.197812 0.025 -1.60968e+06
0.297683 0.20079 0.025 -1.91834e+06
0.302119 0.203782 0.025 -2.26073e+06
0.306577 0.206788 0.025 -1.40521e+06
0.311054 0.209808 0.025 -1.5817e+06
0.315549 0.212841 0.025 -1.16619e+06
0.320063 0.215885 0.025 -2.02137e+06
0.324591 0.218939 0.025 -1.42376e+06
0.329134 0.222003 0.025 -1.40882e+06
0.333691 0.225077 0.025 -2.21881e+06
0.33826 0.228159 0.025 -1.78456e+06
0.342839 0.231248 0.025 -1.82995e+06
0.347428 0.234343 0.025 -874148
0.352025 0.237444 0.025 -1.93457e+06
0.356628 0.240548 0.025 -1.41404e+06
0.361237 0.243658 0.025 -1.15479e+06
0.36585 0.246769 0.025 -2.58182e+06
0.370465 0.249882 0.025 -1.02115e+06
0.375082 0.252996 0.025 -1.44065e+06
0.379698 0.25611 0.025 -2.6332e+06
0.384313 0.259223 0.025 -1.37218e+06
0.388926 0.262333 0.025 -1.70843e+06
0.393534 0.265442 0.025 -1.40792e+06
0.398136 0.268546 0.025 -879626
0.40273 0.271645 0.025 -1.62953e+06
0.407317 0.274739 0.025 -1.68462e+06
0.411894 0.277826 0.025 -2.12815e+06
0.41646 0.280906 0.025 -835247
0.421014 0.283977 0.025 -1.59353e+06
0.425554 0.28704 0.025 -1.86754e+06
0.430079 0.290092 0.025 -1.48249e+06
0.434588 0.293133 0.025 -1.82307e+06
0.439079 0.296162 0.025 -1.27845e+06
0.443551 0.299179 0.025 -1.66441e+06
0.448004 0.302183 0.025 -1.69474e+06
0.452437 0.305172 0.025 -1.65255e+06
0.456846 0.308146 0.025 -1.53595e+06
0.461232 0.311105 0.025 -1.56132e+06
0.465593 0.314047 0.025 -1.44641e+06
0.469929 0.316971 0.025 -1.91253e+06
0.474238 0.319878 0.025 -992189
0.47852 0.322766 0.025 -1.11187e+06
0.482773 0.325635 0.025 -882392
0.486996 0.328483 0.025 -1.32803e+06
0.491189 0.331311 0.025 -2.02051e+06
0.49535 0.334118 0.025 -1.2867e+06
