# Wall heat-flux
# Time        	patch         	min           	max           	integral      
12000         	base	-3.280013e+06	-4.464263e+04	-3.391223e+03
