# wallShearStress  FACE_DATA 276
# x  y  z  wallShearStress_x  wallShearStress_y  wallShearStress_z
-1.89807 0 0.0105 -142.995 -0.542656 7.08867e-17
-1.81671 0 0.0105 -93.998 0.000739169 -1.55393e-17
-1.74016 0 0.0105 -166.156 0.00136533 -8.01096e-21
-1.66815 0 0.0105 -179.41 0.000729698 4.00548e-21
-1.6004 0 0.0105 -179.483 0.00098676 4.00548e-21
-1.53666 0 0.0105 -177.353 0.000774233 1.60219e-20
-1.47668 0 0.0105 -174.851 0.000930282 0
-1.42024 0 0.0105 -172.499 0.000746704 -4.00548e-21
-1.36711 0 0.0105 -170.371 0.000578449 -1.20164e-20
-1.31712 0 0.0105 -168.481 0.000758291 -2.00274e-20
-1.27005 0 0.0105 -166.808 0.000731001 -1.20164e-20
-1.22575 0 0.0105 -165.328 0.000910224 -8.01096e-21
-1.18403 0 0.0105 -164.007 0.000897148 -8.01096e-21
-1.14475 0 0.0105 -162.815 0.00093429 -4.00548e-20
-1.10775 0 0.0105 -161.749 0.00086321 -1.60219e-20
-1.07289 0 0.0105 -160.787 0.000873505 -8.01096e-21
-1.04005 0 0.0105 -159.913 0.000833783 -8.01096e-21
-1.0091 0 0.0105 -159.112 0.000815268 -1.60219e-20
-0.979914 0 0.0105 -158.373 0.000848518 8.01096e-21
-0.952392 0 0.0105 -157.685 0.000782007 4.00548e-20
-0.926429 0 0.0105 -157.051 0.00080304 4.00548e-20
-0.901924 0 0.0105 -156.474 0.000816454 -8.01096e-21
-0.878785 0 0.0105 -155.942 0.000834108 4.80658e-20
-0.856927 0 0.0105 -155.459 0.000893995 3.20439e-20
-0.836265 0 0.0105 -155.016 0.000891021 4.80658e-20
-0.816722 0 0.0105 -154.611 0.000870042 1.60219e-20
-0.798224 0 0.0105 -154.24 0.000868472 6.40877e-20
-0.780701 0 0.0105 -153.902 0.000879246 3.20439e-20
-0.764088 0 0.0105 -153.594 0.000895435 3.20439e-20
-0.74832 0 0.0105 -153.313 0.000905594 0
-0.733339 0 0.0105 -153.059 0.000934256 8.01096e-20
-0.719089 0 0.0105 -152.829 0.00093649 -4.80658e-20
-0.705515 0 0.0105 -152.621 0.00098103 -3.20439e-20
-0.692565 0 0.0105 -152.432 0.00102076 0
-0.680192 0 0.0105 -152.261 0.00103015 -3.20439e-20
-0.668349 0 0.0105 -152.107 0.00110921 6.40877e-20
-0.65699 0 0.0105 -151.967 0.00113899 6.40877e-20
-0.646073 0 0.0105 -151.84 0.00114691 6.40877e-20
-0.635557 0 0.0105 -151.723 0.00117493 9.61316e-20
-0.6254 0 0.0105 -151.615 0.00124421 -1.28175e-19
-0.615568 0 0.0105 -151.516 0.00132023 2.24307e-19
-0.60602 0 0.0105 -151.425 0.0013325 -1.60219e-19
-0.596721 0 0.0105 -151.339 0.0012942 -2.24307e-19
-0.587638 0 0.0105 -151.257 0.00126769 0
-0.578734 0 0.0105 -151.177 0.00127303 1.28175e-19
-0.569975 0 0.0105 -151.102 0.00132334 -6.40877e-20
-0.56133 0 0.0105 -151.03 0.00141104 1.92263e-19
-0.552766 0 0.0105 -150.96 0.00148854 6.40877e-20
-0.54425 0 0.0105 -150.892 0.00152998 -6.40877e-20
-0.535841 0 0.0105 -150.824 0.00152143 -5.76789e-19
-0.527746 0 0.0105 -150.759 0.00143888 -2.56351e-19
-0.52008 0 0.0105 -150.697 0.00141892 -6.40877e-20
-0.512816 0 0.0105 -150.636 0.00136655 -1.28175e-19
-0.50593 0 0.0105 -150.579 0.00142666 0
-0.499397 0 0.0105 -150.524 0.00146721 -6.40877e-20
-0.493195 0 0.0105 -150.473 0.00150632 -3.20439e-19
-0.487302 0 0.0105 -150.423 0.0015388 3.20439e-19
-0.481698 0 0.0105 -150.375 0.00157076 -6.40877e-20
-0.476362 0 0.0105 -150.329 0.00154305 0
-0.471278 0 0.0105 -150.285 0.00153996 0
-0.466428 0 0.0105 -150.242 0.00152356 3.84526e-19
-0.461793 0 0.0105 -150.2 0.00153787 -1.28175e-19
-0.457359 0 0.0105 -150.161 0.00154246 -2.56351e-19
-0.45311 0 0.0105 -150.122 0.0015429 0
-0.449029 0 0.0105 -150.085 0.00155594 1.28175e-19
-0.445105 0 0.0105 -150.049 0.00153535 0
-0.441325 0 0.0105 -150.014 0.0015907 7.69052e-19
-0.437672 0 0.0105 -149.98 0.00158495 3.84526e-19
-0.434136 0 0.0105 -149.947 0.00158102 -2.56351e-19
-0.430704 0 0.0105 -149.914 0.00158421 -1.28175e-19
-0.427365 0 0.0105 -149.882 0.0016095 -5.12702e-19
-0.424106 0 0.0105 -149.852 0.00166114 0
-0.420917 0 0.0105 -149.821 0.00170968 1.28175e-19
-0.417786 0 0.0105 -149.792 0.00174114 -5.12702e-19
-0.414702 0 0.0105 -149.763 0.00173877 -3.84526e-19
-0.411656 0 0.0105 -149.736 0.00174829 0
-0.408635 0 0.0105 -149.706 0.00174156 -7.69052e-19
-0.405629 0 0.0105 -149.678 0.00176378 0
-0.402629 0 0.0105 -149.631 0.00173516 -6.40877e-19
-0.399629 0 0.0105 -149.597 0.00174523 0
-0.396628 0 0.0105 -149.569 0.00174252 0
-0.393628 0 0.0105 -149.542 0.00171876 1.0254e-18
-0.390626 0 0.0105 -149.514 0.00169095 -2.56351e-19
-0.387625 0 0.0105 -149.485 0.00166421 7.69052e-19
-0.384621 0 0.0105 -149.455 0.00164385 1.28175e-19
-0.381618 0 0.0105 -149.425 0.00163993 1.28175e-19
-0.378613 0 0.0105 -149.394 0.00163994 3.84526e-19
-0.375606 0 0.0105 -149.361 0.00164108 -5.12702e-19
-0.372597 0 0.0105 -149.33 0.00164933 0
-0.369588 0 0.0105 -149.299 0.00168271 -1.28175e-19
-0.366577 0 0.0105 -149.268 0.00174397 -3.84526e-19
-0.363563 0 0.0105 -149.238 0.00186028 1.28175e-18
-0.360546 0 0.0105 -149.21 0.00190589 2.56351e-19
-0.357529 0 0.0105 -149.179 0.00193655 0
-0.354508 0 0.0105 -149.149 0.00193036 0
-0.351485 0 0.0105 -149.118 0.00189152 -2.56351e-19
-0.348458 0 0.0105 -149.088 0.00184394 1.0254e-18
-0.345429 0 0.0105 -149.057 0.00178601 -5.12702e-19
-0.342397 0 0.0105 -149.022 0.00176141 2.56351e-19
-0.339361 0 0.0105 -148.99 0.00174997 0
-0.336321 0 0.0105 -148.958 0.00175616 -3.84526e-19
-0.333279 0 0.0105 -148.923 0.00177886 -3.84526e-19
-0.330233 0 0.0105 -148.887 0.00179946 0
-0.327182 0 0.0105 -148.854 0.00181537 -5.12702e-19
-0.324126 0 0.0105 -148.821 0.00183466 -7.69052e-19
-0.321068 0 0.0105 -148.786 0.00186074 -2.56351e-19
-0.318004 0 0.0105 -148.751 0.0018582 5.12702e-19
-0.314936 0 0.0105 -148.715 0.00188888 2.56351e-19
-0.311863 0 0.0105 -148.68 0.00192247 7.69052e-19
-0.308785 0 0.0105 -148.645 0.00196791 -7.69052e-19
-0.305702 0 0.0105 -148.609 0.00199583 2.56351e-19
-0.302614 0 0.0105 -148.574 0.00200014 -5.12702e-19
-0.299519 0 0.0105 -148.539 0.00198392 2.56351e-19
-0.29642 0 0.0105 -148.502 0.00195468 0
-0.293315 0 0.0105 -148.463 0.00192574 0
-0.290203 0 0.0105 -148.426 0.00193385 0
-0.287086 0 0.0105 -148.389 0.00194839 5.12702e-19
-0.283963 0 0.0105 -148.351 0.00197285 0
-0.280832 0 0.0105 -148.311 0.0020083 5.12702e-19
-0.277695 0 0.0105 -148.273 0.00204305 -7.69052e-19
-0.274551 0 0.0105 -148.239 0.0020359 2.56351e-19
-0.271401 0 0.0105 -148.2 0.00202081 -2.56351e-19
-0.268244 0 0.0105 -148.159 0.00201304 5.12702e-19
-0.265079 0 0.0105 -148.119 0.00199065 2.56351e-19
-0.261906 0 0.0105 -148.078 0.00197912 0
-0.258725 0 0.0105 -148.037 0.00196423 2.56351e-19
-0.255537 0 0.0105 -147.995 0.00195812 2.56351e-19
-0.252341 0 0.0105 -147.953 0.00196464 0
-0.249137 0 0.0105 -147.913 0.00198051 -2.56351e-19
-0.245924 0 0.0105 -147.872 0.00198067 2.56351e-19
-0.242703 0 0.0105 -147.831 0.00200693 0
-0.239474 0 0.0105 -147.79 0.00201064 2.56351e-19
-0.236236 0 0.0105 -147.747 0.00202085 0
-0.232987 0 0.0105 -147.702 0.00202343 0
-0.22973 0 0.0105 -147.66 0.002029 2.56351e-19
-0.226464 0 0.0105 -147.62 0.0020434 -5.12702e-19
-0.223189 0 0.0105 -147.577 0.0020613 -2.56351e-19
-0.219903 0 0.0105 -147.531 0.0021172 -2.56351e-19
-0.216607 0 0.0105 -147.488 0.00215033 -2.56351e-19
-0.213302 0 0.0105 -147.443 0.00216408 -7.69052e-19
-0.209985 0 0.0105 -147.397 0.0021304 2.56351e-19
-0.20666 0 0.0105 -147.354 0.00209508 0
-0.203323 0 0.0105 -147.309 0.00206674 0
-0.199974 0 0.0105 -147.265 0.00206359 0
-0.196616 0 0.0105 -147.219 0.0020617 0
-0.193246 0 0.0105 -147.171 0.00206723 -5.12702e-19
-0.189864 0 0.0105 -147.121 0.00207701 0
-0.186472 0 0.0105 -147.077 0.00208083 2.56351e-19
-0.183068 0 0.0105 -147.034 0.00206441 7.69052e-19
-0.179651 0 0.0105 -146.987 0.00203409 2.56351e-19
-0.176222 0 0.0105 -146.939 0.00202374 2.56351e-19
-0.172781 0 0.0105 -146.893 0.0020228 7.69052e-19
-0.169328 0 0.0105 -146.842 0.00201707 -7.69052e-19
-0.165862 0 0.0105 -146.791 0.00206665 0
-0.162383 0 0.0105 -146.748 0.00243835 1.0254e-18
-0.158892 0 0.0105 -146.692 0.00172807 -8.97228e-19
-0.155387 0 0.0105 -146.658 0.00202266 -2.56351e-18
-0.151868 0 0.0105 -146.451 0.00327702 -8.25962e-16
-0.148337 0 0.0105 -128.392 0.310779 -3.28129e-15
-0.14479 0 0.0105 -15.7498 1.88235 1.31252e-15
-0.141231 0 0.0105 33.0011 0.775171 7.8751e-16
-0.137658 0 0.0105 33.3195 0.421917 -9.18761e-16
-0.134069 0 0.0105 31.6727 0.300996 4.26568e-16
-0.130466 0 0.0105 29.6801 0.193827 -1.80471e-16
-0.126849 0 0.0105 28.6899 0.155049 4.92194e-17
-0.123216 0 0.0105 28.3515 0.143062 -1.64065e-17
-0.119568 0 0.0105 28.3926 0.148541 -1.64065e-17
-0.115906 0 0.0105 28.7401 0.128028 -2.46097e-17
-0.112228 0 0.0105 29.2839 0.111278 1.64065e-17
-0.108534 0 0.0105 29.8265 0.0954677 -3.28129e-17
-0.104824 0 0.0105 30.3376 0.0918893 -1.64065e-17
-0.101098 0 0.0105 30.7757 0.0909156 -8.20323e-18
-0.097355 0 0.0105 31.1102 0.09091 8.20323e-18
-0.0935961 0 0.0105 31.3419 0.091817 8.20323e-18
-0.0898204 0 0.0105 31.496 0.0899914 -8.20323e-18
-0.0860278 0 0.0105 31.6036 0.0898918 -2.46097e-17
-0.0822181 0 0.0105 31.6729 0.0959231 0
-0.0783911 0 0.0105 31.711 0.106076 -4.10161e-17
-0.0745465 0 0.0105 31.7318 0.124195 -3.28129e-17
-0.0706841 0 0.0105 31.7905 0.145105 -8.20323e-18
-0.0668039 0 0.0105 32.0015 0.162303 0
-0.0629054 0 0.0105 32.6315 0.171793 3.28129e-17
-0.0589886 0 0.0105 33.9995 0.173282 1.64065e-17
-0.0550531 0 0.0105 36.7674 0.17221 1.64065e-17
-0.0510989 0 0.0105 40.8485 0.170757 3.28129e-17
-0.0471257 0 0.0105 46.7406 0.185064 3.28129e-17
-0.0431332 0 0.0105 53.5261 0.215285 8.20323e-17
-0.0391214 0 0.0105 60.3264 0.225912 -6.56258e-17
-0.0350898 0 0.0105 64.8695 0.219621 -4.92194e-17
-0.0310384 0 0.0105 67.7306 0.209323 6.56258e-17
-0.0269669 0 0.0105 70.2902 0.207244 0
-0.0228751 0 0.0105 72.1904 0.204781 4.92194e-17
-0.0187628 0 0.0105 73.2831 0.200762 6.56258e-17
-0.0146297 0 0.0105 73.619 0.191849 1.64065e-17
-0.0104756 0 0.0105 73.2068 0.180851 1.64065e-17
-0.00630039 0 0.0105 71.9466 0.163563 0
-0.00210372 0 0.0105 70.1665 0.141875 -1.64065e-17
0.00158228 0 0.0105 68.1397 0.129271 -8.20323e-18
0.00474683 0 0.0105 65.7447 0.120123 0
0.00791139 0 0.0105 62.9636 0.115612 -1.64065e-17
0.0110759 0 0.0105 59.672 0.115211 -3.28129e-17
0.0142405 0 0.0105 55.9064 0.121119 -1.64065e-17
0.017405 0 0.0105 51.6767 0.133344 0
0.0205696 0 0.0105 47.0086 0.151569 -4.92194e-17
0.0237342 0 0.0105 41.9228 0.174403 -1.64065e-17
0.0268988 0 0.0105 36.4366 0.197996 -4.92194e-17
0.0300633 0 0.0105 30.5629 0.218686 1.64065e-17
0.0332279 0 0.0105 24.3071 0.233387 -1.14845e-16
0.0363924 0 0.0105 17.686 0.239184 0
0.039557 0 0.0105 10.7406 0.22945 -8.20323e-17
0.0427215 0 0.0105 3.51166 0.196281 -6.56258e-17
0.0458861 0 0.0105 -3.97612 0.134615 1.64065e-17
0.0490507 0 0.0105 -11.6775 0.0442817 1.35353e-16
0.0522152 0 0.0105 -19.5553 -0.0587081 -1.31252e-16
0.0553798 0 0.0105 -27.5805 -0.157329 1.96877e-16
0.0585443 0 0.0105 -35.7204 -0.242173 6.56258e-17
0.0617089 0 0.0105 -43.9285 -0.303232 -6.56258e-17
0.0648734 0 0.0105 -52.1408 -0.341509 -9.84387e-17
0.068038 0 0.0105 -60.2882 -0.356392 6.56258e-17
0.0712026 0 0.0105 -68.3014 -0.356905 9.84387e-17
0.0743671 0 0.0105 -76.1124 -0.345168 -3.28129e-17
0.0775317 0 0.0105 -83.6684 -0.328028 -3.28129e-17
0.0806962 0 0.0105 -90.9392 -0.30987 -3.28129e-17
0.0838607 0 0.0105 -97.9134 -0.291873 -3.28129e-17
0.0870253 0 0.0105 -104.597 -0.269847 -3.28129e-17
0.0901899 0 0.0105 -111.01 -0.240443 6.56258e-17
0.0933545 0 0.0105 -117.178 -0.201442 -8.20323e-17
0.096519 0 0.0105 -123.131 -0.151861 -1.64065e-17
0.0996836 0 0.0105 -128.889 -0.0897003 4.67584e-16
0.102848 0 0.0105 -134.461 -0.0121636 -5.07575e-16
0.106012 0 0.0105 -139.855 0.0677952 -2.95316e-16
0.109177 0 0.0105 -145.076 0.153239 -2.62503e-16
0.112341 0 0.0105 -150.137 0.231338 -1.64065e-17
0.115506 0 0.0105 -155.07 0.292011 -3.28129e-17
0.118671 0 0.0105 -159.895 0.326418 9.84387e-17
0.121835 0 0.0105 -164.624 0.330222 3.28129e-17
0.125 0 0.0105 -169.254 0.303161 0
0.128164 0 0.0105 -173.765 0.248087 3.93755e-16
0.131329 0 0.0105 -178.126 0.174247 0
0.134493 0 0.0105 -182.315 0.089282 -3.28129e-17
0.137658 0 0.0105 -186.342 0.000426956 5.5967e-16
0.140823 0 0.0105 -190.251 -0.0844364 -8.20323e-18
0.143987 0 0.0105 -194.1 -0.164669 1.64065e-17
0.147152 0 0.0105 -198.002 -0.250479 3.28129e-17
0.150316 0 0.0105 -202.154 -0.318654 9.84387e-17
0.153481 0 0.0105 -206.738 -0.409195 5.90632e-16
0.156645 0 0.0105 -212.044 -0.514701 3.28129e-16
0.15981 0 0.0105 -218.057 -0.371515 3.28129e-17
0.162975 0 0.0105 -223.046 -0.313703 2.2969e-16
0.166139 0 0.0105 -228.553 -0.319774 -3.28129e-17
0.169304 0 0.0105 -234.086 -0.307436 -1.96877e-16
0.172468 0 0.0105 -240.118 -0.268465 -2.95316e-16
0.175633 0 0.0105 -246.324 -0.202342 -3.28129e-17
0.178797 0 0.0105 -252.424 -0.127086 -8.36729e-16
0.181962 0 0.0105 -258.318 -0.0627555 0
0.185126 0 0.0105 -263.919 -0.0109354 2.05081e-18
0.188291 0 0.0105 -269.103 0.027976 -6.82919e-16
0.191455 0 0.0105 -273.822 0.0597869 1.59963e-16
0.19462 0 0.0105 -278.095 0.0805991 -1.06642e-16
0.197785 0 0.0105 -281.945 0.0920826 8.20323e-18
0.20095 0 0.0105 -285.378 0.0961812 -3.28129e-17
0.204114 0 0.0105 -288.403 0.0950309 -8.20323e-18
0.207278 0 0.0105 -291.036 0.0915089 4.10161e-17
0.210443 0 0.0105 -293.268 0.0864272 3.28129e-17
0.213607 0 0.0105 -295.137 0.0811426 4.10161e-17
0.216772 0 0.0105 -296.665 0.0751932 8.20323e-17
0.219936 0 0.0105 -297.87 0.0680698 0
0.223101 0 0.0105 -298.772 0.0605654 -6.56258e-17
0.226266 0 0.0105 -299.395 0.0531069 4.10161e-18
0.22943 0 0.0105 -299.754 0.0444882 0
0.232595 0 0.0105 -299.867 0.0350029 -8.20323e-18
0.235759 0 0.0105 -299.742 0.0259989 -4.10161e-18
0.238924 0 0.0105 -299.425 0.0150616 1.31252e-16
0.242088 0 0.0105 -298.856 0.00454658 0
0.245253 0 0.0105 -299.473 0.00385864 -2.15335e-16
0.248417 0 0.0105 -295.386 -0.0290977 1.66155e-16
