# y+ ()       
# Time        	patch         	min           	max           	average       
7000          	base	2.359217e-02	6.366272e-01	2.599286e-01
