# Wall heat-flux
# Time        	patch         	min           	max           	integral      
3800          	base	-3.200666e+06	-6.581806e+04	-2.968987e+02
