# Wall heat-flux
# Time        	patch         	min           	max           	integral      
0             	base	9.676738e+06	1.844700e+07	9.147830e+03
