# Wall heat-flux
# Time        	patch         	min           	max           	integral      
8500          	base	-2.218859e+05	-7.004931e+03	-1.275469e+02
