# wallHeatFlux  FACE_DATA 448
# x  y  z  wallHeatFlux
-0.778 -3.80769e-06 0 -198877
-0.773968 -3.80769e-06 0 -40154.3
-0.769872 -3.80769e-06 0 -24476.2
-0.76571 -3.80769e-06 0 -19627.1
-0.761486 -3.80769e-06 0 -16560.4
-0.757196 -3.80769e-06 0 -14607.2
-0.752841 -3.80769e-06 0 -13270.9
-0.748422 -3.80769e-06 0 -12258.3
-0.743939 -3.80769e-06 0 -11454.3
-0.739391 -3.80769e-06 0 -10797
-0.73478 -3.80769e-06 0 -10249.8
-0.730104 -3.80769e-06 0 -9792.31
-0.725364 -3.80769e-06 0 -9414.09
-0.720562 -3.80769e-06 0 -9152.57
-0.715696 -3.80769e-06 0 -8922.57
-0.710769 -3.80769e-06 0 -9007.63
-0.705778 -3.80769e-06 0 -9301.37
-0.700727 -3.80769e-06 0 -9793.24
-0.695615 -3.80769e-06 0 -10333.7
-0.690443 -3.80769e-06 0 -10842.6
-0.685211 -3.80769e-06 0 -11196.6
-0.67992 -3.80769e-06 0 -11465.1
-0.674571 -3.80769e-06 0 -11669.5
-0.669166 -3.80769e-06 0 -11809.6
-0.663704 -3.80769e-06 0 -11923
-0.658187 -3.80769e-06 0 -11998.9
-0.652616 -3.80769e-06 0 -12053.1
-0.646993 -3.80769e-06 0 -12075.1
-0.641317 -3.80769e-06 0 -12081.1
-0.635592 -3.80769e-06 0 -12069.8
-0.629817 -3.80769e-06 0 -12054.4
-0.623994 -3.80769e-06 0 -12026.6
-0.618125 -3.80769e-06 0 -11988.8
-0.61221 -3.80769e-06 0 -11950.5
-0.606252 -3.80769e-06 0 -11906.7
-0.600253 -3.80769e-06 0 -11868
-0.594213 -3.80769e-06 0 -11812.9
-0.588134 -3.80769e-06 0 -11762.9
-0.582018 -3.80769e-06 0 -11718.2
-0.575867 -3.80769e-06 0 -11673.2
-0.569683 -3.80769e-06 0 -11622.5
-0.563467 -3.80769e-06 0 -11571.6
-0.557221 -3.80769e-06 0 -11520.7
-0.550946 -3.80769e-06 0 -11474.2
-0.544647 -3.80769e-06 0 -11433.7
-0.538323 -3.80769e-06 0 -11387.3
-0.531979 -3.80769e-06 0 -11340.8
-0.525613 -3.80769e-06 0 -11293.9
-0.51923 -3.80769e-06 0 -11252.2
-0.512832 -3.80769e-06 0 -11215.7
-0.50642 -3.80769e-06 0 -11179
-0.499995 -3.80769e-06 0 -11137
-0.493562 -3.80769e-06 0 -11088.8
-0.487123 -3.80769e-06 0 -11046.1
-0.480677 -3.80769e-06 0 -11008.7
-0.47423 -3.80769e-06 0 -10981.5
-0.467782 -3.80769e-06 0 -10954.7
-0.461335 -3.80769e-06 0 -10922.3
-0.454892 -3.80769e-06 0 -10883.5
-0.448455 -3.80769e-06 0 -10840.2
-0.442026 -3.80769e-06 0 -10801.1
-0.435607 -3.80769e-06 0 -10768.1
-0.429202 -3.80769e-06 0 -10745.5
-0.42281 -3.80769e-06 0 -10722.7
-0.416434 -3.80769e-06 0 -10705.4
-0.410078 -3.80769e-06 0 -10676.4
-0.403743 -3.80769e-06 0 -10642.6
-0.39743 -3.80769e-06 0 -10603.4
-0.391141 -3.80769e-06 0 -10563.2
-0.38488 -3.80769e-06 0 -10529.2
-0.378648 -3.80769e-06 0 -10505.6
-0.372446 -3.80769e-06 0 -10498.1
-0.366277 -3.80769e-06 0 -10480
-0.360142 -3.80769e-06 0 -10466.3
-0.354042 -3.80769e-06 0 -10442.7
-0.347981 -3.80769e-06 0 -10413.2
-0.341959 -3.80769e-06 0 -10373.3
-0.335978 -3.80769e-06 0 -10338.1
-0.33004 -3.80769e-06 0 -10302.8
-0.324146 -3.80769e-06 0 -10268.4
-0.318298 -3.80769e-06 0 -10243.9
-0.312497 -3.80769e-06 0 -10235.9
-0.306744 -3.80769e-06 0 -10233.1
-0.301041 -3.80769e-06 0 -10230.4
-0.29539 -3.80769e-06 0 -10227.4
-0.28979 -3.80769e-06 0 -10214.5
-0.284243 -3.80769e-06 0 -10206
-0.278752 -3.80769e-06 0 -10181.8
-0.273316 -3.80769e-06 0 -10152.2
-0.267937 -3.80769e-06 0 -10117.2
-0.262614 -3.80769e-06 0 -10081.9
-0.25735 -3.80769e-06 0 -10047.6
-0.252146 -3.80769e-06 0 -10017.8
-0.247001 -3.80769e-06 0 -9993.7
-0.241916 -3.80769e-06 0 -9974.95
-0.236893 -3.80769e-06 0 -9972.45
-0.231931 -3.80769e-06 0 -9964.37
-0.227031 -3.80769e-06 0 -9968.03
-0.222195 -3.80769e-06 0 -9970.65
-0.217421 -3.80769e-06 0 -9968.32
-0.212711 -3.80769e-06 0 -9965.7
-0.208064 -3.80769e-06 0 -9964.16
-0.203482 -3.80769e-06 0 -9955.82
-0.198964 -3.80769e-06 0 -9943.39
-0.19451 -3.80769e-06 0 -9925.41
-0.19012 -3.80769e-06 0 -9907.43
-0.185796 -3.80769e-06 0 -9884.48
-0.181535 -3.80769e-06 0 -9860.87
-0.17734 -3.80769e-06 0 -9837.32
-0.173208 -3.80769e-06 0 -9809.63
-0.169141 -3.80769e-06 0 -9785.72
-0.165138 -3.80769e-06 0 -9763.59
-0.161199 -3.80769e-06 0 -9740.4
-0.157325 -3.80769e-06 0 -9723
-0.153513 -3.80769e-06 0 -9710.96
-0.149765 -3.80769e-06 0 -9703.93
-0.14608 -3.80769e-06 0 -9692.51
-0.142457 -3.80769e-06 0 -9691.83
-0.138897 -3.80769e-06 0 -9695.17
-0.135398 -3.80769e-06 0 -9695.17
-0.131961 -3.80769e-06 0 -9699.29
-0.128584 -3.80769e-06 0 -9703.41
-0.125268 -3.80769e-06 0 -9708.52
-0.122011 -3.80769e-06 0 -9713.72
-0.118815 -3.80769e-06 0 -9712.15
-0.115677 -3.80769e-06 0 -9717.46
-0.112597 -3.80769e-06 0 -9716.95
-0.109574 -3.80769e-06 0 -9717.1
-0.106609 -3.80769e-06 0 -9716.3
-0.1037 -3.80769e-06 0 -9710.72
-0.100846 -3.80769e-06 0 -9710.28
-0.098048 -3.80769e-06 0 -9705.02
-0.0953042 -3.80769e-06 0 -9699.61
-0.0926143 -3.80769e-06 0 -9688.88
-0.0899773 -3.80769e-06 0 -9683.59
-0.0873927 -3.80769e-06 0 -9672.89
-0.0848599 -3.80769e-06 0 -9662.55
-0.082378 -3.80769e-06 0 -9651.98
-0.0799465 -3.80769e-06 0 -9641.63
-0.0775645 -3.80769e-06 0 -9631.36
-0.0752312 -3.80769e-06 0 -9620.94
-0.0729462 -3.80769e-06 0 -9605.41
-0.0707085 -3.80769e-06 0 -9595.19
-0.0685175 -3.80769e-06 0 -9585.13
-0.0663725 -3.80769e-06 0 -9574.92
-0.0642727 -3.80769e-06 0 -9564.96
-0.0622173 -3.80769e-06 0 -9555.03
-0.0602058 -3.80769e-06 0 -9544.94
-0.0582373 -3.80769e-06 0 -9535.14
-0.0563111 -3.80769e-06 0 -9525.3
-0.0544265 -3.80769e-06 0 -9515.5
-0.0525827 -3.80769e-06 0 -9505.77
-0.0507792 -3.80769e-06 0 -9501.45
-0.0490152 -3.80769e-06 0 -9491.81
-0.0472898 -3.80769e-06 0 -9482.31
-0.0456025 -3.80769e-06 0 -9478.05
-0.0439526 -3.80769e-06 0 -9473.94
-0.0423394 -3.80769e-06 0 -9464.43
-0.0407622 -3.80769e-06 0 -9460.52
-0.0392203 -3.80769e-06 0 -9456.59
-0.0377131 -3.80769e-06 0 -9447.37
-0.0362398 -3.80769e-06 0 -9443.57
-0.0347999 -3.80769e-06 0 -9439.82
-0.0333926 -3.80769e-06 0 -9436.18
-0.0320175 -3.80769e-06 0 -9432.63
-0.0306737 -3.80769e-06 0 -9429.18
-0.0293607 -3.80769e-06 0 -9415.21
-0.0280779 -3.80769e-06 0 -9374.18
-0.0268246 -3.80769e-06 0 -9258.59
-0.0256004 -3.80769e-06 0 -8960.03
-0.0244045 -3.80769e-06 0 -8377.2
-0.0232363 -3.80769e-06 0 -7520.28
-0.0220954 -3.80769e-06 0 -6587.49
-0.0209812 -3.80769e-06 0 -5762.03
-0.019893 -3.80769e-06 0 -5538.28
-0.0188303 -3.80769e-06 0 -6245.19
-0.0177927 -3.80769e-06 0 -7405.03
-0.0167794 -3.80769e-06 0 -8609.44
-0.0157901 -3.80769e-06 0 -9728.99
-0.0148243 -3.80769e-06 0 -10753.8
-0.0138814 -3.80769e-06 0 -11689.3
-0.0129608 -3.80769e-06 0 -12562.8
-0.0120623 -3.80769e-06 0 -13390
-0.0111851 -3.80769e-06 0 -14174.4
-0.0103289 -3.80769e-06 0 -14919.9
-0.00949328 -3.80769e-06 0 -15639
-0.00867767 -3.80769e-06 0 -16321.9
-0.00788168 -3.80769e-06 0 -16974
-0.00710485 -3.80769e-06 0 -17563.9
-0.00634675 -3.80769e-06 0 -18087.6
-0.00560698 -3.80769e-06 0 -18542.4
-0.0048851 -3.80769e-06 0 -18968.3
-0.00418071 -3.80769e-06 0 -19427.9
-0.00349342 -3.80769e-06 0 -20021.5
-0.00282284 -3.80769e-06 0 -20863.4
-0.00216857 -3.80769e-06 0 -21938
-0.00153026 -3.80769e-06 0 -23054.9
-0.00090752 -3.80769e-06 0 -22930.8
-0.0003 -3.80769e-06 0 -20300.2
0.000259937 0.000146262 2.25537e-21 -19438.8
0.000779437 0.000446185 0 -23284.6
0.00129893 0.000746101 0 -26906.2
0.00181858 0.00104611 2.2554e-21 -29921
0.00233835 0.00134618 -2.25541e-21 -32503.9
0.00285828 0.00164636 2.25542e-21 -34871.4
0.00337841 0.00194664 0 -37310.7
0.00389877 0.00224706 0 -39821.8
0.00441941 0.00254764 -2.25544e-21 -42480.2
0.00494034 0.00284839 2.25545e-21 -45299.2
0.00546162 0.00314934 -2.25546e-21 -48365.3
0.00598328 0.0034505 2.25547e-21 -51693.7
0.00650535 0.00375191 2.25547e-21 -55315.6
0.00702786 0.00405357 2.25548e-21 -59224.5
0.00755087 0.00435552 0 -63442.7
0.00807439 0.00465776 -2.25549e-21 -68044.5
0.00859847 0.00496033 2.2555e-21 -72910.4
0.00912315 0.00526324 0 -78076.4
0.00964845 0.00556651 2.25551e-21 -83623.5
0.0101744 0.00587017 0 -89378.6
0.0107011 0.00617424 0 -94754.1
0.0112285 0.00647873 -2.25552e-21 -99375.3
0.0117567 0.00678367 0 -102711
0.0122857 0.00708907 0 -104986
0.0128156 0.00739497 0 -107117
0.0133463 0.00770137 -2.25554e-21 -109307
0.0138779 0.00800831 0 -111788
0.0144106 0.0083158 0 -114264
0.0149442 0.00862387 0 -117121
0.0154788 0.00893253 0 -120085
0.0160145 0.00924181 0 -123412
0.0165513 0.00955172 2.25556e-21 -126822
0.0170893 0.00986231 -2.25556e-21 -130259
0.0176284 0.0101736 0 -134045
0.0181687 0.0104855 0 -137984
0.0187103 0.0107982 2.25556e-21 -141919
0.0192532 0.0111117 2.25557e-21 -146052
0.0197975 0.0114259 2.25557e-21 -150216
0.0203431 0.0117408 0 -154417
0.0208901 0.0120566 4.51114e-21 -158657
0.0214385 0.0123732 -4.51114e-21 -162853
0.0219884 0.0126907 0 -167031
0.0225398 0.0130091 4.51114e-21 -171063
0.0230928 0.0133283 0 -174986
0.0236474 0.0136485 0 -178697
0.0242037 0.0139697 0 -182400
0.0247616 0.0142918 -4.51113e-21 -186085
0.0253212 0.0146148 -4.51113e-21 -189962
0.0258825 0.0149389 -4.51114e-21 -193632
0.0264456 0.015264 0 -197666
0.0270106 0.0155902 0 -201468
0.0275774 0.0159174 -4.51112e-21 -204910
0.0281462 0.0162457 0 -207949
0.0287168 0.0165752 4.51111e-21 -210684
0.0292895 0.0169059 -4.51111e-21 -213172
0.0298642 0.0172376 0 -215321
0.0304409 0.0175706 0 -217155
0.0310198 0.0179048 4.5111e-21 -218992
0.0316007 0.0182402 4.5111e-21 -220676
0.0321839 0.0185768 -4.51107e-21 -221986
0.0327693 0.0189148 0 -223040
0.0333569 0.0192541 0 -223725
0.0339469 0.0195947 4.51106e-21 -224096
0.0345392 0.0199366 0 -223681
0.0351339 0.02028 0 -223510
0.035731 0.0206247 4.51105e-21 -222907
0.0363305 0.0209708 -4.51103e-21 -222121
0.0369326 0.0213184 4.51102e-21 -221349
0.0375373 0.0216675 0 -220322
0.0381445 0.0220181 0 -219030
0.0387543 0.0223702 0 -218215
0.0393668 0.0227238 4.51099e-21 -216610
0.0399821 0.023079 -4.51097e-21 -215216
0.0406001 0.0234358 4.51097e-21 -213341
0.041221 0.0237942 0 -211561
0.0418446 0.0241542 0 -209660
0.0424712 0.024516 4.51092e-21 -207753
0.0431006 0.0248794 -4.51094e-21 -206128
0.0437331 0.0252445 0 -204357
0.0443686 0.0256114 4.51089e-21 -202663
0.0450071 0.02598 4.51089e-21 -200542
0.0456487 0.0263505 0 -198585
0.0462935 0.0267227 0 -196013
0.0469415 0.0270968 -4.51085e-21 -193650
0.0475927 0.0274728 0 -191836
0.0482473 0.0278507 -4.51081e-21 -189924
0.0489051 0.0282305 4.51081e-21 -187732
0.0495663 0.0286122 -4.51079e-21 -186142
0.050231 0.0289959 0 -184717
0.0508991 0.0293816 -4.51077e-21 -182892
0.0515707 0.0297694 4.51073e-21 -181662
0.0522459 0.0301592 -4.51073e-21 -180324
0.0529247 0.0305511 0 -178839
0.0536071 0.0309451 0 -177673
0.0542933 0.0313412 -4.51067e-21 -176089
0.0549832 0.0317395 0 -174908
0.0556769 0.03214 0 -173568
0.0563744 0.0325427 0 -172501
0.0570758 0.0329477 -4.5106e-21 -171697
0.0577812 0.0333549 0 -170707
0.0584905 0.0337645 0 -169592
0.0592039 0.0341763 -4.51056e-21 -168960
0.0599214 0.0345905 4.51053e-21 -167885
0.060643 0.0350071 0 -167132
0.0613688 0.0354262 4.51049e-21 -166132
0.0620989 0.0358477 -4.51048e-21 -165453
0.0628332 0.0362716 4.51046e-21 -164537
0.0635719 0.0366981 0 -163653
0.0643149 0.037127 4.51041e-21 -163287
0.0650624 0.0375586 0 -162308
0.0658144 0.0379927 0 -162057
0.0665709 0.0384295 4.51035e-21 -161210
0.0673321 0.0388689 -4.51035e-21 -160887
0.0680979 0.039311 0 -160535
0.0688683 0.0397558 -4.51029e-21 -159684
0.0696435 0.0402034 4.51029e-21 -159746
0.0704236 0.0406537 0 -159073
0.0712085 0.0411069 0 -159121
0.0719983 0.0415628 0 -158783
0.0727931 0.0420217 0 -158367
0.0735929 0.0424834 0 -158063
0.0743978 0.0429481 0 -157445
0.0752078 0.0434158 0 -156984
0.076023 0.0438864 4.5101e-21 -155967
0.0768435 0.0443601 -4.51009e-21 -155690
0.0776693 0.0448369 -4.51004e-21 -154984
0.0785004 0.0453167 4.51003e-21 -154352
0.079337 0.0457997 0 -154320
0.080179 0.0462858 0 -153960
0.0810266 0.0467751 0 -153432
0.0818797 0.0472677 0 -153641
0.0827385 0.0477635 0 -153052
0.083603 0.0482626 0 -152996
0.0844733 0.0487651 4.50985e-21 -152672
0.0853495 0.0492709 -4.50983e-21 -152228
0.0862316 0.0497801 0 -151979
0.0871195 0.0502927 -4.50978e-21 -150971
0.0880135 0.0508089 0 -150654
0.0889136 0.0513285 0 -150398
0.0898198 0.0518517 0 -149722
0.0907322 0.0523785 0 -149462
0.0916509 0.0529089 0 -148960
0.0925758 0.0534429 4.50963e-21 -148784
0.0935072 0.0539806 4.50959e-21 -148424
0.094445 0.054522 0 -148293
0.0953894 0.0550672 4.50953e-21 -147884
0.0963404 0.0556162 0 -147710
0.0972979 0.0561691 0 -147275
0.0982622 0.0567258 0 -147216
0.0992333 0.0572865 0 -147012
0.100211 0.057851 0 -146692
0.101196 0.0584196 0 -145936
0.102188 0.0589922 4.50935e-21 -146068
0.103187 0.0595689 4.50932e-21 -145824
0.104193 0.0601497 -4.50928e-21 -144914
0.105206 0.0607347 0 -145092
0.106226 0.0613239 0 -144519
0.107254 0.0619172 0 -144458
0.10829 0.0625149 4.50918e-21 -143927
0.109332 0.0631169 4.50915e-21 -143898
0.110382 0.0637232 -4.50911e-21 -143970
0.11144 0.064334 -4.50908e-21 -143637
0.112506 0.0649492 4.50905e-21 -143853
0.11358 0.0655688 4.50902e-21 -142941
0.114661 0.066193 0 -142892
0.11575 0.0668218 0 -142600
0.116847 0.0674552 0 -142328
0.117952 0.0680932 0 -142250
0.119065 0.068736 0 -141916
0.120187 0.0693834 4.50884e-21 -140888
0.121316 0.0700357 0 -140801
0.122455 0.0706928 0 -140854
0.123601 0.0713548 -4.50875e-21 -139449
0.124756 0.0720217 0 -140333
0.12592 0.0726935 -4.5087e-21 -139768
0.127093 0.0733704 0 -139857
0.128274 0.0740524 0 -139238
0.129464 0.0747395 4.50859e-21 -139555
0.130663 0.0754317 0 -139438
0.131871 0.0761292 4.50853e-21 -138625
0.133088 0.0768319 4.50851e-21 -138866
0.134315 0.0775399 0 -138431
0.13555 0.0782532 4.50845e-21 -137707
0.136795 0.078972 0 -137969
0.13805 0.0796962 0 -137025
0.139314 0.080426 -4.50834e-21 -137410
0.140587 0.0811613 -4.50831e-21 -136554
0.14187 0.0819021 4.50827e-21 -136076
0.143163 0.0826487 0 -135761
0.144466 0.0834009 0 -135701
0.145779 0.0841589 0 -135811
0.147102 0.0849227 4.50815e-21 -134929
0.148435 0.0856924 4.50811e-21 -134941
0.149779 0.0864679 0 -135023
0.151133 0.0872495 4.50805e-21 -134354
0.152497 0.0880371 4.50801e-21 -134246
0.153871 0.0888307 4.50798e-21 -134622
0.155257 0.0896305 0 -133947
0.156653 0.0904364 4.50791e-21 -133507
0.15806 0.0912487 4.50787e-21 -134175
0.159478 0.0920672 0 -132909
0.160907 0.092892 0 -132774
0.162347 0.0937233 0 -133019
0.163798 0.0945611 4.50774e-21 -131797
0.16526 0.0954054 0 -131753
0.166734 0.0962563 0 -131961
0.168219 0.0971138 0 -131005
0.169716 0.097978 4.50761e-21 -131184
0.171225 0.098849 4.50758e-21 -131184
0.172745 0.0997268 4.50754e-21 -131356
0.174278 0.100611 0 -130214
0.175822 0.101503 0 -130600
0.177379 0.102402 0 -129431
0.178947 0.103308 4.50741e-21 -130164
0.180529 0.10422 4.50737e-21 -129826
0.182122 0.10514 4.50734e-21 -129127
0.183728 0.106068 0 -129889
0.185347 0.107002 -4.50727e-21 -129595
0.186979 0.107944 0 -128456
0.188623 0.108894 0 -128997
0.190281 0.109851 4.50716e-21 -128169
0.191952 0.110815 0 -128222
0.193636 0.111787 -4.5071e-21 -127086
0.195333 0.112767 -4.50707e-21 -127246
0.197044 0.113755 -4.50702e-21 -126951
0.198768 0.114751 -4.507e-21 -126787
0.200506 0.115754 -4.50696e-21 -126225
0.202258 0.116766 0 -126511
0.204024 0.117785 4.50688e-21 -125905
0.205805 0.118813 4.50686e-21 -126215
0.207599 0.119849 0 -125690
0.209408 0.120893 -4.50679e-21 -125378
0.211231 0.121946 -4.50676e-21 -125036
0.213068 0.123007 0 -125691
0.214921 0.124076 0 -124856
0.216788 0.125154 0 -123809
0.21867 0.126241 0 -124469
0.220567 0.127336 0 -123641
0.22248 0.12844 0 -122805
0.224408 0.129553 0 -123732
0.226351 0.130675 0 -122884
0.22831 0.131806 0 -123049
0.230284 0.132946 9.01282e-21 -123006
0.232275 0.134095 0 -123035
0.234282 0.135254 9.01268e-21 -122328
0.236304 0.136421 0 -122716
0.238344 0.137598 9.01253e-21 -122046
0.2404 0.138785 0 -121193
0.242472 0.139982 0 -120691
