/*--------------------------------*- C++ -*----------------------------------*\
| =========                 |                                                 |
| \\      /  F ield         | OpenFOAM: The Open Source CFD Toolbox           |
|  \\    /   O peration     | Version:  v2012                                 |
|   \\  /    A nd           | Website:  www.openfoam.com                      |
|    \\/     M anipulation  |                                                 |
\*---------------------------------------------------------------------------*/
FoamFile
{
    version     2.0;
    format      ascii;
    class       volScalarField;
    location    "13600";
    object      alphat;
}
// * * * * * * * * * * * * * * * * * * * * * * * * * * * * * * * * * * * * * //

dimensions      [1 -1 -1 0 0 0 0];


internalField   nonuniform List<scalar> 
39402
(
2.34962e-07
8.38556e-09
1.86021e-07
2.0144e-09
7.91129e-09
1.22399e-07
1.82404e-09
1.82796e-09
8.8996e-09
7.71312e-08
2.04937e-09
3.85019e-09
1.94997e-09
1.14986e-08
5.52089e-08
2.30824e-09
6.3273e-09
3.97528e-08
3.17787e-09
1.58015e-08
4.80089e-08
2.50288e-09
8.05112e-09
7.75177e-08
2.38181e-07
7.1275e-09
2.09707e-08
4.68579e-08
2.63561e-09
9.27732e-09
1.0252e-07
4.6883e-07
8.67663e-07
1.55891e-08
2.59763e-08
4.85631e-08
2.69024e-09
1.00532e-08
1.20085e-07
6.21203e-07
1.70289e-06
2.27726e-06
2.96273e-08
3.01252e-08
5.17246e-08
2.69689e-09
1.04075e-08
1.31206e-07
7.27296e-07
2.25044e-06
4.44206e-06
4.73807e-06
4.89428e-08
3.3189e-08
5.56932e-08
2.67503e-09
1.05055e-08
1.36421e-07
7.94953e-07
2.62608e-06
5.83972e-06
9.17787e-06
8.29915e-06
6.89854e-08
3.53142e-08
6.08747e-08
2.63646e-09
1.04521e-08
1.38094e-07
8.27016e-07
2.86564e-06
6.77781e-06
1.1993e-05
1.59915e-05
1.26031e-05
8.81961e-08
3.6913e-08
6.96821e-08
2.58953e-09
1.03195e-08
1.37664e-07
8.38017e-07
2.97997e-06
7.37184e-06
1.38355e-05
2.08042e-05
2.45676e-05
1.6719e-05
1.08629e-07
3.84982e-08
7.64472e-08
2.53478e-09
1.01402e-08
1.36116e-07
8.36425e-07
3.02133e-06
7.6566e-06
1.4988e-05
2.38821e-05
3.19358e-05
3.29251e-05
2.11505e-05
1.30667e-07
3.9891e-08
8.2035e-08
2.48215e-09
9.91566e-09
1.33886e-07
8.27982e-07
3.01898e-06
7.76439e-06
1.55426e-05
2.57821e-05
3.65676e-05
4.35009e-05
4.20152e-05
2.5868e-05
1.56604e-07
4.09424e-08
8.81192e-08
2.43203e-09
9.70123e-09
1.30962e-07
8.15146e-07
2.99218e-06
7.76614e-06
1.57619e-05
2.67027e-05
3.93965e-05
5.00542e-05
5.62626e-05
5.18414e-05
3.09823e-05
1.95194e-07
4.1983e-08
9.47272e-08
2.38157e-09
9.4929e-09
1.2815e-07
7.98043e-07
2.94951e-06
7.70834e-06
1.57791e-05
2.70802e-05
4.07821e-05
5.39961e-05
6.51646e-05
7.03248e-05
6.24956e-05
3.73226e-05
2.45354e-07
4.34735e-08
1.01809e-07
2.33171e-09
9.2805e-09
1.25377e-07
7.81409e-07
2.89178e-06
7.61031e-06
1.56852e-05
2.71345e-05
4.1373e-05
5.59693e-05
7.05607e-05
8.20855e-05
8.56173e-05
7.44889e-05
4.67258e-05
2.73634e-07
4.57589e-08
1.09428e-07
2.2839e-09
9.06799e-09
1.22524e-07
7.64826e-07
2.83482e-06
7.47579e-06
1.55131e-05
2.70114e-05
4.14972e-05
5.68494e-05
7.3277e-05
8.93143e-05
0.00010076
0.000102185
8.83711e-05
5.83146e-05
2.84823e-07
4.90737e-08
1.17764e-07
2.22973e-09
8.8604e-09
1.19649e-07
7.47652e-07
2.77764e-06
7.34172e-06
1.5272e-05
2.6761e-05
4.13649e-05
5.71382e-05
7.45796e-05
9.29828e-05
0.000110227
0.000120975
0.000118933
9.99667e-05
6.54859e-05
2.6816e-07
5.35632e-08
1.26858e-07
2.18156e-09
8.62126e-09
1.16806e-07
7.30275e-07
2.71795e-06
7.2056e-06
1.50291e-05
2.64021e-05
4.10492e-05
5.70841e-05
7.50635e-05
9.48724e-05
0.000115163
0.00013304
0.000142088
0.000135579
0.000110348
7.08084e-05
2.25902e-07
5.93651e-08
1.3672e-07
2.14499e-09
8.41833e-09
1.13554e-07
7.13034e-07
2.65728e-06
7.06251e-06
1.47804e-05
2.60358e-05
4.05782e-05
5.67962e-05
7.50865e-05
9.56344e-05
0.000117818
0.000139671
0.000157436
0.00016382
0.000151623
0.000119485
7.30205e-05
1.72702e-07
6.60762e-08
1.46537e-07
2.09744e-09
8.26435e-09
1.10798e-07
6.93361e-07
2.59682e-06
6.91625e-06
1.45167e-05
2.56577e-05
4.0092e-05
5.63102e-05
7.4797e-05
9.57805e-05
0.00011898
0.000143293
0.000166302
0.000183158
0.000185601
0.000166495
0.000127439
7.12251e-05
1.24753e-07
7.35143e-08
1.54435e-07
2.05674e-09
8.05047e-09
1.08681e-07
6.76579e-07
2.52796e-06
6.76978e-06
1.42457e-05
2.52527e-05
3.95846e-05
5.57985e-05
7.42491e-05
9.55151e-05
0.000119332
0.000145031
0.00017123
0.000194781
0.000209671
0.000206675
0.000179549
0.000134705
6.49998e-05
9.23016e-08
8.19403e-08
1.59666e-07
2.01694e-09
7.87582e-09
1.05741e-07
6.63508e-07
2.46886e-06
6.60291e-06
1.39725e-05
2.48346e-05
3.90362e-05
5.52551e-05
7.36566e-05
9.49192e-05
0.000119139
0.000145718
0.000173783
0.000201464
0.000224703
0.000236238
0.000226196
0.000190371
0.000142216
5.45601e-05
7.52468e-08
9.11538e-08
1.61188e-07
1.97958e-09
7.70451e-09
1.03353e-07
6.45683e-07
2.42224e-06
6.45889e-06
1.36608e-05
2.441e-05
3.8466e-05
5.46554e-05
7.30175e-05
9.42493e-05
0.000118527
0.000145689
0.00017497
0.00020515
0.000233686
0.000255455
0.000261995
0.000243218
0.000198563
0.000150052
4.10572e-05
6.98706e-08
1.00529e-07
1.6079e-07
1.94321e-09
7.54396e-09
1.01009e-07
6.31069e-07
2.35947e-06
6.344e-06
1.33907e-05
2.39243e-05
3.78829e-05
5.40238e-05
7.23021e-05
9.35094e-05
0.000117804
0.000145134
0.000175225
0.000207069
0.000238922
0.000267428
0.000286313
0.00028593
0.000256969
0.000204065
0.000146618
2.68531e-05
7.13748e-08
1.09052e-07
1.59247e-07
1.91039e-09
7.38642e-09
9.88231e-08
6.16762e-07
2.30764e-06
6.19041e-06
1.3173e-05
2.35024e-05
3.72134e-05
5.33698e-05
7.15363e-05
9.26682e-05
0.000116977
0.000144412
0.000174816
0.000207782
0.000241877
0.000274756
0.000302099
0.000316342
0.000307046
0.000266797
0.000207501
0.000130697
1.49429e-05
7.68259e-08
1.16797e-07
1.56741e-07
1.87634e-09
7.24485e-09
9.66758e-08
6.03433e-07
2.25691e-06
6.06296e-06
1.28831e-05
2.31601e-05
3.6632e-05
5.26064e-05
7.07368e-05
9.17605e-05
0.000116016
0.000143542
0.000174156
0.000207649
0.000243285
0.000279161
0.000312184
0.000336919
0.000344496
0.000324269
0.000272714
0.000210873
0.000107884
7.1557e-06
8.40708e-08
1.24482e-07
1.53626e-07
1.84532e-09
7.09727e-09
9.47458e-08
5.90356e-07
2.20959e-06
5.93788e-06
1.26411e-05
2.27033e-05
3.61575e-05
5.19528e-05
6.98015e-05
9.08007e-05
0.000114969
0.000142491
0.000173297
0.000207157
0.000243626
0.000281581
0.00031858
0.000350602
0.000370964
0.0003696
0.000336692
0.000275122
0.000214694
8.00124e-05
3.07742e-06
9.19287e-08
1.42013e-07
1.49622e-07
1.81428e-09
6.96467e-09
9.2746e-08
5.78591e-07
2.1632e-06
5.82103e-06
1.24034e-05
2.23214e-05
3.55214e-05
5.14215e-05
6.89997e-05
8.96712e-05
0.000113851
0.000141324
0.000172198
0.000206392
0.000243441
0.000282628
0.000322439
0.000359654
0.000389219
0.000403094
0.000390373
0.000343885
0.000275031
0.000199114
5.14431e-05
1.2494e-06
9.8564e-08
1.46172e-07
1.45178e-07
1.78973e-09
6.83152e-09
9.0961e-08
5.6648e-07
2.12139e-06
5.70637e-06
1.21807e-05
2.1945e-05
3.49887e-05
5.06867e-05
6.83474e-05
8.86983e-05
0.000112515
0.000140058
0.000170945
0.000205311
0.000242873
0.00028295
0.000324501
0.000365451
0.000401748
0.000427059
0.000432008
0.00040569
0.000345945
0.000274232
0.000167441
2.82885e-05
5.04736e-07
1.04886e-07
1.49766e-07
1.40646e-07
1.76335e-09
6.72709e-09
8.91726e-08
5.55671e-07
2.07851e-06
5.60293e-06
1.19618e-05
2.15912e-05
3.44627e-05
5.00781e-05
6.74392e-05
8.7913e-05
0.000111367
0.000138524
0.000169552
0.000204014
0.000241904
0.000282741
0.000325592
0.000368975
0.000410176
0.000444057
0.000462946
0.000456281
0.000414737
0.00034391
0.000274078
0.000127803
1.36759e-05
2.28356e-07
1.10909e-07
1.51941e-07
1.36544e-07
1.73571e-09
6.61291e-09
8.77761e-08
5.44906e-07
2.04021e-06
5.49684e-06
1.17638e-05
2.12432e-05
3.39677e-05
4.94756e-05
6.66837e-05
8.68044e-05
0.000110439
0.000137207
0.000167834
0.000202525
0.000240642
0.000282024
0.00032597
0.000371193
0.000415679
0.000455898
0.000485519
0.000495413
0.000474572
0.000417328
0.000339601
0.000256055
8.5225e-05
6.04239e-06
1.36793e-07
1.1636e-07
1.52824e-07
1.33169e-07
1.71088e-09
6.49459e-09
8.62552e-08
5.36451e-07
2.00221e-06
5.40193e-06
1.15605e-05
2.09272e-05
3.34793e-05
4.89082e-05
6.59343e-05
8.58797e-05
0.000109121
0.000136146
0.000166363
0.000200654
0.00023912
0.00028091
0.000325669
0.000372422
0.000419443
0.000464058
0.000501775
0.000524876
0.00052294
0.000485596
0.000414289
0.000336479
0.000213362
4.85624e-05
2.40751e-06
1.09734e-07
1.20194e-07
1.52389e-07
1.30467e-07
1.68815e-09
6.39073e-09
8.46958e-08
5.27376e-07
1.97229e-06
5.30792e-06
1.13783e-05
2.06026e-05
3.30356e-05
4.83464e-05
6.52285e-05
8.49642e-05
0.000108016
0.000134615
0.00016518
0.000199046
0.000237134
0.000279443
0.000324852
0.000372757
0.000421892
0.000469902
0.000513387
0.000546677
0.000560606
0.000543811
0.000488929
0.000407704
0.00033431
0.000161182
2.44879e-05
8.96597e-07
1.03917e-07
1.23037e-07
1.51329e-07
1.28124e-07
1.66924e-09
6.295e-09
8.33425e-08
5.18122e-07
1.94039e-06
5.23378e-06
1.11979e-05
2.03108e-05
3.25777e-05
4.78386e-05
6.45283e-05
8.40997e-05
0.000106924
0.000133325
0.000163431
0.000197752
0.000235425
0.000277416
0.000323567
0.000372415
0.000423173
0.000474
0.000521982
0.000562743
0.000589308
0.000590978
0.000556564
0.000484954
0.000400413
0.000297026
0.000105921
1.10403e-05
3.49684e-07
1.04813e-07
1.24805e-07
1.4871e-07
1.26142e-07
1.65129e-09
6.21624e-09
8.20957e-08
5.10133e-07
1.90801e-06
5.15494e-06
1.10555e-05
2.0022e-05
3.2165e-05
4.72673e-05
6.38934e-05
8.32432e-05
0.000105888
0.000132051
0.000161954
0.000195811
0.000234075
0.000275664
0.000321591
0.000371477
0.000423559
0.000476618
0.000528312
0.000574938
0.00061099
0.000627997
0.000614093
0.000560353
0.000475619
0.000394963
0.000239846
6.11717e-05
4.52962e-06
1.71575e-07
1.07865e-07
1.26006e-07
1.46444e-07
1.184e-07
1.63019e-09
6.14125e-09
8.10788e-08
5.02798e-07
1.8802e-06
5.07527e-06
1.09041e-05
1.9794e-05
3.17566e-05
4.67306e-05
6.3232e-05
8.2463e-05
0.000104861
0.000130848
0.000160503
0.000194163
0.000231962
0.000274296
0.000319882
0.0003697
0.000423169
0.000478066
0.000532714
0.000584195
0.000627738
0.000656615
0.000660887
0.000628278
0.000555472
0.000464354
0.000376787
0.000173708
3.10495e-05
1.68709e-06
1.18447e-07
1.11368e-07
1.27798e-07
1.44912e-07
1.16535e-07
1.60823e-09
6.05185e-09
8.01274e-08
4.96848e-07
1.85478e-06
5.007e-06
1.07515e-05
1.95513e-05
3.1435e-05
4.62004e-05
6.26363e-05
8.16629e-05
0.00010393
0.000129642
0.000159124
0.000192533
0.000230155
0.000272058
0.000318577
0.000368138
0.000421758
0.000478508
0.000535648
0.000590991
0.000640743
0.000679156
0.00069797
0.000685808
0.000632343
0.000543922
0.000456513
0.000316745
0.000109509
1.39247e-05
6.06962e-07
1.04788e-07
1.14362e-07
1.31666e-07
1.39798e-07
1.16155e-07
1.59068e-09
5.96151e-09
7.89995e-08
4.91355e-07
1.83418e-06
4.945e-06
1.0621e-05
1.93067e-05
3.10913e-05
4.57835e-05
6.20428e-05
8.09438e-05
0.000102969
0.000128542
0.000157742
0.000190982
0.000228363
0.000270127
0.000316269
0.000367003
0.000420499
0.000477714
0.000537258
0.000595855
0.000650656
0.000696953
0.000727577
0.000732858
0.000700896
0.000626405
0.000529756
0.000450078
0.000244311
6.17316e-05
5.65691e-06
2.49171e-07
1.03297e-07
1.18836e-07
1.35942e-07
1.35158e-07
1.15972e-07
1.57703e-09
5.89334e-09
7.78697e-08
4.84914e-07
1.81537e-06
4.89474e-06
1.05031e-05
1.90983e-05
3.07452e-05
4.5336e-05
6.15824e-05
8.02297e-05
0.000102109
0.000127408
0.000156474
0.000189429
0.000226663
0.000268221
0.00031428
0.000364754
0.00041966
0.000476971
0.000537361
0.000599084
0.000658109
0.000710826
0.000751353
0.000771192
0.000759086
0.000704683
0.000612472
0.00051862
0.00038921
0.000166744
3.0776e-05
2.09222e-06
1.40013e-07
1.05962e-07
1.22504e-07
1.45267e-07
1.31336e-07
1.15844e-07
1.5638e-09
5.84041e-09
7.70482e-08
4.78483e-07
1.79347e-06
4.84916e-06
1.04079e-05
1.89111e-05
3.04514e-05
4.48857e-05
6.10827e-05
7.96864e-05
0.000101264
0.000126405
0.000155171
0.000187999
0.000224942
0.000266388
0.000312299
0.000362778
0.000417595
0.000476588
0.000537412
0.000600485
0.000663479
0.000721584
0.000770288
0.000802352
0.00080766
0.000774378
0.000697154
0.000594828
0.000508986
0.000310491
0.000101259
1.34236e-05
7.41609e-07
1.10463e-07
1.09062e-07
1.23404e-07
1.42596e-07
1.27967e-07
1.15748e-07
1.54965e-09
5.78568e-09
7.643e-08
4.7391e-07
1.77167e-06
4.79622e-06
1.03217e-05
1.87604e-05
3.01883e-05
4.4505e-05
6.05816e-05
7.90845e-05
0.000100613
0.000125418
0.000154023
0.000186532
0.000223363
0.000264516
0.000310378
0.000360772
0.000415745
0.000474849
0.00053772
0.000601604
0.000666668
0.000729746
0.000785296
0.000827531
0.000847849
0.000834479
0.000777206
0.000680345
0.00057991
0.000456604
0.000223084
5.48673e-05
5.28904e-06
2.91547e-07
1.0439e-07
1.10824e-07
1.23451e-07
1.39703e-07
1.25285e-07
1.15672e-07
1.53725e-09
5.7267e-09
7.57756e-08
4.70575e-07
1.75649e-06
4.74374e-06
1.02215e-05
1.86239e-05
2.99776e-05
4.41655e-05
6.01627e-05
7.84792e-05
9.98969e-05
0.000124658
0.000152882
0.000185234
0.000221741
0.00026282
0.000308412
0.000358836
0.000413813
0.000473252
0.00053644
0.000602872
0.00066928
0.000735279
0.000797026
0.000847861
0.000880744
0.000885322
0.000849276
0.000767431
0.000659075
0.000567807
0.000371614
0.000142898
2.59909e-05
1.92916e-06
1.53901e-07
1.03553e-07
1.12582e-07
1.23437e-07
1.35843e-07
1.23145e-07
1.15615e-07
1.52487e-09
5.67555e-09
7.50611e-08
4.67015e-07
1.74574e-06
4.70794e-06
1.01226e-05
1.84649e-05
2.97873e-05
4.38956e-05
5.97884e-05
7.79791e-05
9.91714e-05
0.000123822
0.000152023
0.000183947
0.000220299
0.000261053
0.000306615
0.000356835
0.000411922
0.000471494
0.000535144
0.000602122
0.000671765
0.00073991
0.000805576
0.000864135
0.000907693
0.000927646
0.000912008
0.000850277
0.000747354
0.000640727
0.000519145
0.000275748
8.17674e-05
1.08286e-05
6.86569e-07
1.14936e-07
1.03595e-07
1.14619e-07
1.2341e-07
1.31845e-07
1.13995e-07
1.15581e-07
1.51086e-09
5.6243e-09
7.44597e-08
4.63138e-07
1.73421e-06
4.68326e-06
1.00563e-05
1.83084e-05
2.95642e-05
4.36518e-05
5.94991e-05
7.75362e-05
9.85786e-05
0.000122971
0.000151071
0.000182981
0.000218877
0.000259481
0.000304732
0.000354967
0.000409935
0.000469729
0.000533602
0.000600993
0.000671105
0.000743866
0.000812816
0.000876591
0.000929688
0.000962737
0.000965418
0.000925446
0.000837437
0.000722377
0.000626315
0.000426871
0.000182997
4.12127e-05
4.11523e-06
2.74314e-07
1.04317e-07
1.04355e-07
1.16262e-07
1.26299e-07
1.31413e-07
1.11489e-07
1.15561e-07
1.49775e-09
5.56793e-09
7.38583e-08
4.59913e-07
1.72166e-06
4.6568e-06
1.00119e-05
1.82057e-05
2.93456e-05
4.33645e-05
5.92352e-05
7.71904e-05
9.80619e-05
0.000122275
0.000150094
0.000181899
0.000217805
0.000257921
0.000303043
0.000352995
0.000408049
0.000467799
0.000531983
0.00059951
0.000670633
0.000744224
0.000819241
0.000887225
0.000947057
0.0009918
0.00101047
0.000991302
0.000923583
0.000813466
0.000701119
0.000576815
0.000322466
0.000108485
1.80924e-05
1.47672e-06
1.47829e-07
1.01574e-07
1.05974e-07
1.18555e-07
1.38768e-07
1.26537e-07
1.11029e-07
1.15549e-07
1.48722e-09
5.51828e-09
7.32049e-08
4.56725e-07
1.71137e-06
4.62791e-06
9.96424e-06
1.81388e-05
2.92055e-05
4.30841e-05
5.89192e-05
7.68813e-05
9.76575e-05
0.000121675
0.000149301
0.000180801
0.000216608
0.000256754
0.000301376
0.000351233
0.000406036
0.0004659
0.000530109
0.000597934
0.000669727
0.000744769
0.000821208
0.000896754
0.00096191
0.0010153
0.00104822
0.00104793
0.0010022
0.000906838
0.000784649
0.000684464
0.00047644
0.000218352
5.72258e-05
7.11099e-06
5.32808e-07
1.12121e-07
1.01137e-07
1.08306e-07
1.20398e-07
1.36835e-07
1.22788e-07
1.10774e-07
1.15542e-07
1.47973e-09
5.4828e-09
7.26534e-08
4.53286e-07
1.70128e-06
4.60461e-06
9.91211e-06
1.80666e-05
2.91161e-05
4.29085e-05
5.86142e-05
7.65054e-05
9.72935e-05
0.000121215
0.000148609
0.00017991
0.00021538
0.000255463
0.000300155
0.00034951
0.000404256
0.000463865
0.000528113
0.000596029
0.000668619
0.000744703
0.000823165
0.000901554
0.000975166
0.00103543
0.0010793
0.00109616
0.00107186
0.00099656
0.000878326
0.000760657
0.000629248
0.000363399
0.000132394
2.61009e-05
2.59885e-06
2.25947e-07
1.02791e-07
1.01592e-07
1.1181e-07
1.21124e-07
1.32437e-07
1.1993e-07
1.10618e-07
1.15538e-07
1.47243e-09
5.4588e-09
7.23027e-08
4.5049e-07
1.6905e-06
4.58187e-06
9.8709e-06
1.79877e-05
2.90192e-05
4.28e-05
5.84363e-05
7.61506e-05
9.6851e-05
0.000120798
0.000148088
0.000179131
0.000214384
0.000254113
0.000298772
0.000348258
0.00040249
0.000462062
0.000525907
0.000594209
0.00066708
0.000744294
0.000824278
0.00090542
0.000984526
0.00105327
0.00110606
0.00113652
0.00113237
0.00107929
0.00097468
0.000845492
0.000741551
0.000519448
0.000249093
7.1813e-05
1.05232e-05
9.18407e-07
1.33406e-07
1.0082e-07
1.03293e-07
1.14467e-07
1.21637e-07
1.27779e-07
1.08851e-07
1.10539e-07
1.15537e-07
1.4641e-09
5.43192e-09
7.20993e-08
4.48905e-07
1.68202e-06
4.55762e-06
9.83082e-06
1.79267e-05
2.89135e-05
4.26808e-05
5.83369e-05
7.5948e-05
9.6426e-05
0.000120284
0.00014762
0.000178546
0.000213534
0.000253028
0.000297317
0.000346819
0.000401231
0.000460231
0.000523997
0.000592124
0.000665569
0.000743315
0.000824863
0.000908142
0.000990923
0.00106737
0.00112957
0.00117137
0.00118387
0.00115324
0.00106843
0.0009409
0.00081926
0.000675286
0.000396752
0.000153045
3.35664e-05
3.90134e-06
3.47814e-07
1.07996e-07
1.00733e-07
1.05566e-07
1.16751e-07
1.33516e-07
1.24916e-07
1.07573e-07
1.10503e-07
1.15536e-07
1.45389e-09
5.39628e-09
7.18389e-08
4.48183e-07
1.67787e-06
4.53937e-06
9.78802e-06
1.78676e-05
2.88343e-05
4.25509e-05
5.82171e-05
7.58413e-05
9.61996e-05
0.000119786
0.000147038
0.000178026
0.00021291
0.000252107
0.000296163
0.000345282
0.000399787
0.000458979
0.000522053
0.000590335
0.00066373
0.000742298
0.000824705
0.000910092
0.000995793
0.00107881
0.00114881
0.00120198
0.0012286
0.00121765
0.00115568
0.00104045
0.000904725
0.000797536
0.000554366
0.000273568
8.41885e-05
1.37674e-05
1.37754e-06
1.69156e-07
1.01777e-07
1.01334e-07
1.07977e-07
1.1753e-07
1.33863e-07
1.20593e-07
1.07179e-07
1.10486e-07
1.15535e-07
1.44312e-09
5.34918e-09
7.14436e-08
4.47092e-07
1.67669e-06
4.53197e-06
9.75713e-06
1.78045e-05
2.87579e-05
4.24565e-05
5.80788e-05
7.57044e-05
9.60839e-05
0.000119535
0.000146472
0.000177378
0.000212338
0.00025146
0.000295193
0.000344062
0.000398186
0.000457499
0.000520797
0.000588473
0.000662169
0.00074086
0.00082441
0.000911087
0.000999578
0.00108649
0.00116572
0.00122743
0.0012679
0.00127433
0.00123418
0.00113843
0.00100113
0.000877607
0.00071411
0.000420917
0.000168569
3.98635e-05
5.15247e-06
4.97612e-07
1.17743e-07
1.00833e-07
1.024e-07
1.10804e-07
1.19034e-07
1.29667e-07
1.16092e-07
1.06986e-07
1.10478e-07
1.15535e-07
1.43285e-09
5.30221e-09
7.08762e-08
4.4517e-07
1.67419e-06
4.53182e-06
9.74754e-06
1.77608e-05
2.86753e-05
4.23661e-05
5.7985e-05
7.55572e-05
9.59378e-05
0.000119419
0.000146207
0.000176757
0.000211623
0.000250879
0.000294532
0.000343078
0.000396937
0.000455873
0.000519149
0.000587345
0.000660483
0.000739673
0.000823584
0.000911815
0.00100215
0.0010927
0.00117921
0.00125017
0.00130099
0.00132428
0.00130448
0.00123051
0.0011038
0.000962364
0.000853308
0.00058085
0.00028946
9.28545e-05
1.64491e-05
1.8216e-06
2.14314e-07
1.0437e-07
1.01015e-07
1.03486e-07
1.13707e-07
1.2019e-07
1.24676e-07
1.05449e-07
1.06905e-07
1.10475e-07
1.15535e-07
1.42384e-09
5.25964e-09
7.03077e-08
4.42167e-07
1.66872e-06
4.52825e-06
9.75155e-06
1.77515e-05
2.86212e-05
4.22677e-05
5.78982e-05
7.5453e-05
9.57725e-05
0.000119266
0.000146107
0.00017647
0.000210946
0.000250109
0.000293952
0.000342436
0.000395948
0.000454625
0.000517359
0.00058576
0.000659568
0.000738283
0.000822953
0.000911865
0.00100428
0.00109738
0.00118858
0.00126972
0.0013306
0.00136677
0.00136702
0.00131529
0.0012061
0.00105967
0.00093528
0.000745602
0.000436354
0.000178252
4.39492e-05
6.17396e-06
6.42691e-07
1.30276e-07
1.01152e-07
1.00999e-07
1.05987e-07
1.16407e-07
1.32123e-07
1.20463e-07
1.04661e-07
1.06874e-07
1.10474e-07
1.15535e-07
1.41671e-09
5.22431e-09
6.98013e-08
4.39099e-07
1.6593e-06
4.51726e-06
9.74892e-06
1.77643e-05
2.86165e-05
4.22074e-05
5.78055e-05
7.5355e-05
9.56592e-05
0.00011907
0.000145942
0.000176381
0.000210658
0.00024936
0.000293145
0.000341846
0.000395327
0.000453607
0.000516033
0.000583999
0.000658124
0.000737695
0.000822021
0.000912027
0.00100554
0.00110139
0.00119603
0.00128595
0.00135655
0.00140456
0.00142103
0.00139203
0.00130399
0.0011648
0.00102027
0.000905799
0.000598818
0.000297432
9.7578e-05
1.80907e-05
2.17889e-06
2.58303e-07
1.07391e-07
1.00473e-07
1.01853e-07
1.09368e-07
1.16831e-07
1.29581e-07
1.16476e-07
1.04363e-07
1.06862e-07
1.10474e-07
1.15535e-07
1.41144e-09
5.19874e-09
6.94029e-08
4.36389e-07
1.6495e-06
4.49641e-06
9.73185e-06
1.77657e-05
2.86426e-05
4.22124e-05
5.77589e-05
7.52585e-05
9.55557e-05
0.00011896
0.000145725
0.00017622
0.000210595
0.000249088
0.00029234
0.000340999
0.000394745
0.000452988
0.000514937
0.000582742
0.00065646
0.000736491
0.000821904
0.000911757
0.0010068
0.00110429
0.00120251
0.00129702
0.00137937
0.00143789
0.001469
0.00145956
0.00139522
0.00127097
0.00111645
0.000991393
0.000767981
0.000442824
0.000181963
4.5658e-05
6.76699e-06
7.59132e-07
1.42658e-07
1.01684e-07
1.00897e-07
1.03759e-07
1.11797e-07
1.18085e-07
1.23729e-07
1.03797e-07
1.0425e-07
1.06858e-07
1.10474e-07
1.15535e-07
1.40904e-09
5.18352e-09
6.91367e-08
4.34363e-07
1.64095e-06
4.47441e-06
9.69579e-06
1.7744e-05
2.86522e-05
4.22576e-05
5.77961e-05
7.52183e-05
9.5451e-05
0.00011886
0.000145621
0.000176021
0.000210458
0.000249083
0.000292071
0.000340176
0.000393874
0.000452432
0.000514319
0.000581725
0.000655339
0.000735016
0.000821072
0.000912295
0.00100745
0.00110701
0.00120757
0.00130669
0.0013983
0.00146778
0.00151128
0.00151977
0.00147769
0.00137439
0.00122207
0.00107611
0.000933254
0.000606669
0.000297553
9.80873e-05
1.85792e-05
2.37676e-06
2.93436e-07
1.10638e-07
1.00814e-07
1.01841e-07
1.05332e-07
1.14999e-07
1.30781e-07
1.19235e-07
1.02623e-07
1.04214e-07
1.06857e-07
1.10474e-07
1.15535e-07
1.4067e-09
5.18151e-09
6.90289e-08
4.33114e-07
1.63481e-06
4.45537e-06
9.65755e-06
1.76916e-05
2.86282e-05
4.22798e-05
5.78744e-05
7.52801e-05
9.54251e-05
0.000118749
0.000145534
0.000175922
0.000210268
0.000248984
0.000292131
0.000339922
0.000393046
0.000451507
0.000513731
0.000581228
0.000654462
0.000734116
0.000819901
0.000912003
0.00100888
0.00110892
0.00121223
0.00131457
0.00141266
0.00149411
0.00154927
0.00157294
0.00155216
0.00147151
0.00133149
0.00116984
0.00104407
0.000778896
0.000439568
0.000179624
4.48872e-05
6.88421e-06
8.19035e-07
1.52234e-07
1.02708e-07
1.01076e-07
1.02555e-07
1.08831e-07
1.1544e-07
1.27639e-07
1.14651e-07
1.02303e-07
1.04203e-07
1.06857e-07
1.10474e-07
1.15535e-07
1.40392e-09
5.1787e-09
6.9101e-08
4.3288e-07
1.63147e-06
4.4423e-06
9.62443e-06
1.76361e-05
2.85611e-05
4.22565e-05
5.79188e-05
7.53945e-05
9.5519e-05
0.000118742
0.000145421
0.000175833
0.000210177
0.000248786
0.0002921
0.000340063
0.000392838
0.000450627
0.000512821
0.000580737
0.000654147
0.000733462
0.000819337
0.000911293
0.00100935
0.00111155
0.00121582
0.00132175
0.00142416
0.00151662
0.00158336
0.0016207
0.00161841
0.00156127
0.00143993
0.00127494
0.00113018
0.000950402
0.000604171
0.000289519
9.44827e-05
1.79684e-05
2.39469e-06
3.09677e-07
1.1297e-07
1.01142e-07
1.01334e-07
1.03634e-07
1.10963e-07
1.1632e-07
1.21791e-07
1.01762e-07
1.022e-07
1.042e-07
1.06857e-07
1.10474e-07
1.15535e-07
1.39975e-09
5.17105e-09
6.91479e-08
4.33721e-07
1.63181e-06
4.4363e-06
9.60333e-06
1.75887e-05
2.84901e-05
4.21769e-05
5.79041e-05
7.54622e-05
9.56792e-05
0.000118885
0.000145431
0.000175731
0.000210091
0.000248691
0.000291922
0.000340102
0.00039305
0.000450468
0.000511959
0.000579876
0.000653806
0.000733406
0.000819008
0.000911207
0.0010093
0.00111305
0.00122001
0.00132753
0.00143455
0.00153476
0.00161383
0.00166363
0.00167806
0.00164241
0.00154381
0.00138736
0.00122159
0.00109481
0.000778557
0.000428137
0.000171444
4.20984e-05
6.56998e-06
8.17939e-07
1.56216e-07
1.03282e-07
1.01024e-07
1.01754e-07
1.05411e-07
1.13861e-07
1.2857e-07
1.16622e-07
1.00864e-07
1.02173e-07
1.042e-07
1.06857e-07
1.10474e-07
1.15535e-07
1.39516e-09
5.15636e-09
6.91137e-08
4.34391e-07
1.63594e-06
4.4395e-06
9.59537e-06
1.75603e-05
2.84307e-05
4.20932e-05
5.78143e-05
7.54556e-05
9.57742e-05
0.000119096
0.000145633
0.000175765
0.000210015
0.000248637
0.000291839
0.000339974
0.000393127
0.000450674
0.000511909
0.000579066
0.000653037
0.000733285
0.000819309
0.000911338
0.00100987
0.00111391
0.0012229
0.00133378
0.00144319
0.00154925
0.00164022
0.00170258
0.00173172
0.00171621
0.00164028
0.00150018
0.00132557
0.00118272
0.000953952
0.000591454
0.000274674
8.72959e-05
1.65093e-05
2.25968e-06
3.07576e-07
1.13956e-07
1.01391e-07
1.01474e-07
1.02564e-07
1.08661e-07
1.14496e-07
1.24668e-07
1.08163e-07
1.00622e-07
1.02166e-07
1.042e-07
1.06858e-07
1.10474e-07
1.15535e-07
1.38942e-09
5.13767e-09
6.89713e-08
4.34477e-07
1.63938e-06
4.45221e-06
9.60587e-06
1.75538e-05
2.8399e-05
4.20261e-05
5.77224e-05
7.53572e-05
9.5772e-05
0.000119227
0.000145909
0.000176026
0.0002101
0.000248603
0.000291835
0.000339965
0.000393045
0.000450697
0.000512264
0.000579164
0.000652322
0.000732664
0.000819491
0.000912122
0.00101063
0.00111538
0.00122498
0.00133848
0.00145207
0.00156153
0.00166327
0.00173738
0.00178043
0.00178278
0.00172955
0.00160949
0.00143769
0.00127381
0.00112529
0.000762083
0.000409176
0.000157744
3.76637e-05
5.93452e-06
7.66456e-07
1.55265e-07
1.03663e-07
1.01522e-07
1.01865e-07
1.04418e-07
1.11269e-07
1.17682e-07
1.18707e-07
9.98823e-08
1.0056e-07
1.02165e-07
1.042e-07
1.06858e-07
1.10474e-07
1.15535e-07
1.38257e-09
5.11184e-09
6.87607e-08
4.33889e-07
1.6405e-06
4.46271e-06
9.63405e-06
1.75764e-05
2.83978e-05
4.19951e-05
5.76585e-05
7.52551e-05
9.56681e-05
0.000119238
0.000146093
0.000176399
0.000210423
0.000248759
0.000291838
0.000340012
0.000393119
0.000450598
0.000512398
0.000579712
0.000652619
0.000732097
0.000819096
0.000912716
0.00101206
0.00111698
0.00122764
0.00134219
0.00145913
0.00157378
0.00168085
0.0017688
0.00182433
0.00184319
0.00181109
0.00171381
0.00155315
0.00137264
0.00123261
0.000941161
0.000561689
0.000254583
7.70181e-05
1.43964e-05
2.00978e-06
2.89615e-07
1.13581e-07
1.01595e-07
1.01478e-07
1.02713e-07
1.06173e-07
1.13537e-07
1.25825e-07
1.13292e-07
9.93604e-08
1.00546e-07
1.02166e-07
1.04201e-07
1.06858e-07
1.10474e-07
1.15535e-07
1.37466e-09
5.08012e-09
6.84434e-08
4.32833e-07
1.63916e-06
4.4671e-06
9.65747e-06
1.76276e-05
2.84383e-05
4.20045e-05
5.76378e-05
7.51879e-05
9.55621e-05
0.000119126
0.000146124
0.000176643
0.000210902
0.000249175
0.000292055
0.000340033
0.000393208
0.00045071
0.000512378
0.000579993
0.00065341
0.000732654
0.000818748
0.000912643
0.0010132
0.00111924
0.00123034
0.00134639
0.00146496
0.00158386
0.00169736
0.00179596
0.00186447
0.00189776
0.00188539
0.00181116
0.0016686
0.00148273
0.001324
0.00112026
0.000731277
0.000377593
0.000139751
3.20089e-05
5.0631e-06
6.76638e-07
1.49436e-07
1.03319e-07
1.01238e-07
1.0188e-07
1.0298e-07
1.09104e-07
1.1379e-07
1.20452e-07
9.94942e-08
9.9236e-08
1.00544e-07
1.02166e-07
1.04201e-07
1.06858e-07
1.10474e-07
1.15535e-07
1.36617e-09
5.0432e-09
6.80345e-08
4.31106e-07
1.63603e-06
4.46523e-06
9.66825e-06
1.76691e-05
2.85185e-05
4.20683e-05
5.76693e-05
7.51822e-05
9.54832e-05
0.000119014
0.000145999
0.000176711
0.000211224
0.000249778
0.000292628
0.000340338
0.000393283
0.000450866
0.000512579
0.000580081
0.000653886
0.000733756
0.000819642
0.000912608
0.00101358
0.00112111
0.00123368
0.00135053
0.00147115
0.00159241
0.00171127
0.00182076
0.00190072
0.00194775
0.00195278
0.00190105
0.00177966
0.00160055
0.00141966
0.0012791
0.000913958
0.000521227
0.000227993
6.47108e-05
1.1902e-05
1.6862e-06
2.6026e-07
1.11761e-07
1.01161e-07
1.01443e-07
1.01893e-07
1.04907e-07
1.11726e-07
1.25138e-07
1.14277e-07
9.83398e-08
9.92123e-08
1.00545e-07
1.02167e-07
1.04202e-07
1.06859e-07
1.10475e-07
1.15536e-07
1.35776e-09
5.00421e-09
6.75501e-08
4.28776e-07
1.63044e-06
4.45856e-06
9.66651e-06
1.76892e-05
2.85824e-05
4.21835e-05
5.77703e-05
7.52378e-05
9.54888e-05
0.000118942
0.000145873
0.000176586
0.000211345
0.000250218
0.000293401
0.000341069
0.00039369
0.000451004
0.000512828
0.000580397
0.00065412
0.000734481
0.000821133
0.000913933
0.00101397
0.0011221
0.00123651
0.00135525
0.00147712
0.00160114
0.00172329
0.00183947
0.0019342
0.0019935
0.0020145
0.00198331
0.00188492
0.00171882
0.00152536
0.00137175
0.00109794
0.000691016
0.000338051
0.000118825
2.58402e-05
4.09418e-06
5.67739e-07
1.4077e-07
1.02701e-07
1.01205e-07
1.01755e-07
1.02981e-07
1.0741e-07
1.12427e-07
1.21306e-07
1.01994e-07
9.81228e-08
9.92087e-08
1.00546e-07
1.02168e-07
1.04202e-07
1.06859e-07
1.10475e-07
1.15536e-07
1.34955e-09
4.96607e-09
6.703e-08
4.25963e-07
1.62258e-06
4.4457e-06
9.6555e-06
1.76894e-05
2.86148e-05
4.22744e-05
5.79341e-05
7.53794e-05
9.55743e-05
0.000118957
0.000145814
0.000176444
0.000211226
0.000250377
0.000293959
0.000342011
0.000394534
0.000451463
0.000513066
0.000580767
0.000654584
0.000734909
0.000822178
0.000915915
0.00101584
0.00112306
0.0012383
0.00135931
0.0014836
0.00160944
0.00173521
0.00185587
0.0019633
0.00203591
0.00207109
0.00205896
0.00198316
0.00183587
0.00163969
0.00146569
0.00127797
0.000867255
0.000476756
0.000196071
5.20352e-05
9.33943e-06
1.34501e-06
2.2682e-07
1.094e-07
1.01238e-07
1.01765e-07
1.02446e-07
1.04521e-07
1.0992e-07
1.19232e-07
1.15664e-07
9.75113e-08
9.80834e-08
9.9209e-08
1.00547e-07
1.02169e-07
1.04203e-07
1.06859e-07
1.10475e-07
1.15536e-07
1.34199e-09
4.93074e-09
6.65171e-08
4.22917e-07
1.61292e-06
4.4269e-06
9.63229e-06
1.76737e-05
2.86179e-05
4.23215e-05
5.80644e-05
7.55973e-05
9.57666e-05
0.000119083
0.00014586
0.000176384
0.000211072
0.000250242
0.000294165
0.000342698
0.000395618
0.000452368
0.000513673
0.00058113
0.000655105
0.000735565
0.000822864
0.000917369
0.00101844
0.00112563
0.00124003
0.00136216
0.00148924
0.00161814
0.00174647
0.0018718
0.00198786
0.00207451
0.00212354
0.0021284
0.00207449
0.00194836
0.00176037
0.00156508
0.00141427
0.00105386
0.000631011
0.000296286
9.63593e-05
1.9929e-05
3.13803e-06
4.57208e-07
1.31273e-07
1.02252e-07
1.01398e-07
1.02168e-07
1.03136e-07