/*--------------------------------*- C++ -*----------------------------------*\
| =========                 |                                                 |
| \\      /  F ield         | OpenFOAM: The Open Source CFD Toolbox           |
|  \\    /   O peration     | Version:  v2012                                 |
|   \\  /    A nd           | Website:  www.openfoam.com                      |
|    \\/     M anipulation  |                                                 |
\*---------------------------------------------------------------------------*/
FoamFile
{
    version     2.0;
    format      ascii;
    class       volVectorField;
    location    "13600";
    object      C;
}
// * * * * * * * * * * * * * * * * * * * * * * * * * * * * * * * * * * * * * //

dimensions      [0 1 0 0 0 0 0];


internalField   nonuniform List<vector> 
39402
(
(-0.797497 5.01517e-06 0.025)
(-0.792391 5.0225e-06 0.025)
(-0.797495 1.50961e-05 0.025)
(-0.787056 5.0118e-06 0.025)
(-0.792393 1.51197e-05 0.025)
(-0.797493 2.53095e-05 0.025)
(-0.781492 5.00648e-06 0.025)
(-0.787057 1.50683e-05 0.025)
(-0.792395 2.53523e-05 0.025)
(-0.797492 3.57196e-05 0.025)
(-0.775691 5.00265e-06 0.025)
(-0.781493 1.50414e-05 0.025)
(-0.787057 2.52267e-05 0.025)
(-0.792396 3.57837e-05 0.025)
(-0.797492 4.63946e-05 0.025)
(-0.76965 5.00027e-06 0.025)
(-0.775692 1.50228e-05 0.025)
(-0.781493 2.51607e-05 0.025)
(-0.787058 3.55604e-05 0.025)
(-0.792396 4.64816e-05 0.025)
(-0.797491 5.74061e-05 0.025)
(-0.763362 4.9982e-06 0.025)
(-0.76965 1.50111e-05 0.025)
(-0.775692 2.51144e-05 0.025)
(-0.781493 3.54423e-05 0.025)
(-0.787058 4.61433e-05 0.025)
(-0.792397 5.75174e-05 0.025)
(-0.797491 6.88292e-05 0.025)
(-0.756822 4.99624e-06 0.025)
(-0.763362 1.50012e-05 0.025)
(-0.76965 2.50859e-05 0.025)
(-0.775693 3.53595e-05 0.025)
(-0.781494 4.59638e-05 0.025)
(-0.787058 5.70506e-05 0.025)
(-0.792397 6.89654e-05 0.025)
(-0.79749 8.07419e-05 0.025)
(-0.750025 4.99392e-06 0.025)
(-0.756822 1.4992e-05 0.025)
(-0.763362 2.50619e-05 0.025)
(-0.769651 3.5309e-05 0.025)
(-0.775693 4.58382e-05 0.025)
(-0.781494 5.68025e-05 0.025)
(-0.787058 6.83596e-05 0.025)
(-0.792396 8.09048e-05 0.025)
(-0.79749 9.32269e-05 0.025)
(-0.742968 4.99113e-06 0.025)
(-0.750026 1.49813e-05 0.025)
(-0.756822 2.50399e-05 0.025)
(-0.763363 3.52664e-05 0.025)
(-0.769651 4.57612e-05 0.025)
(-0.775693 5.6629e-05 0.025)
(-0.781494 6.80372e-05 0.025)
(-0.787058 8.01502e-05 0.025)
(-0.792396 9.34165e-05 0.025)
(-0.79749 0.000106371 0.025)
(-0.735648 4.98839e-06 0.025)
(-0.742969 1.49686e-05 0.025)
(-0.750026 2.50145e-05 0.025)
(-0.756822 3.52278e-05 0.025)
(-0.763363 4.5697e-05 0.025)
(-0.769651 5.65229e-05 0.025)
(-0.775693 6.78118e-05 0.025)
(-0.781494 7.97489e-05 0.025)
(-0.787058 9.25062e-05 0.025)
(-0.792396 0.000106588 0.025)
(-0.797491 0.000120266 0.025)
(-0.72806 4.98564e-06 0.025)
(-0.735648 1.49561e-05 0.025)
(-0.742969 2.49843e-05 0.025)
(-0.750027 3.51831e-05 0.025)
(-0.756822 4.56389e-05 0.025)
(-0.763363 5.64344e-05 0.025)
(-0.769651 6.76742e-05 0.025)
(-0.775693 7.94683e-05 0.025)
(-0.781494 9.20215e-05 0.025)
(-0.787058 0.000105514 0.025)
(-0.792396 0.000120511 0.025)
(-0.797491 0.000135008 0.025)
(-0.720203 4.98276e-06 0.025)
(-0.728061 1.49436e-05 0.025)
(-0.735649 2.49548e-05 0.025)
(-0.74297 3.51302e-05 0.025)
(-0.750027 4.5572e-05 0.025)
(-0.756823 5.63547e-05 0.025)
(-0.763363 6.75596e-05 0.025)
(-0.769651 7.92967e-05 0.025)
(-0.775693 9.16825e-05 0.025)
(-0.781494 0.000104942 0.025)
(-0.787058 0.000119266 0.025)
(-0.792396 0.00013528 0.025)
(-0.797491 0.000150701 0.025)
(-0.712076 4.97972e-06 0.025)
(-0.720204 1.49304e-05 0.025)
(-0.728061 2.49254e-05 0.025)
(-0.735649 3.50788e-05 0.025)
(-0.742971 4.54924e-05 0.025)
(-0.750027 5.62631e-05 0.025)
(-0.756824 6.74563e-05 0.025)
(-0.763364 7.91545e-05 0.025)
(-0.769652 9.14755e-05 0.025)
(-0.775693 0.000104542 0.025)
(-0.781494 0.000118604 0.025)
(-0.787058 0.000133858 0.025)
(-0.792395 0.000151001 0.025)
(-0.797491 0.000167452 0.025)
(-0.703677 4.97668e-06 0.025)
(-0.712077 1.49168e-05 0.025)
(-0.720205 2.4895e-05 0.025)
(-0.728062 3.50278e-05 0.025)
(-0.73565 4.54153e-05 0.025)
(-0.742971 5.61537e-05 0.025)
(-0.750028 6.73375e-05 0.025)
(-0.756824 7.90261e-05 0.025)
(-0.763364 9.13034e-05 0.025)
(-0.769652 0.000104298 0.025)
(-0.775693 0.000118139 0.025)
(-0.781494 0.000133102 0.025)
(-0.787057 0.000149395 0.025)
(-0.792394 0.00016778 0.025)
(-0.797491 0.000185381 0.025)
(-0.695006 4.97364e-06 0.025)
(-0.703678 1.49031e-05 0.025)
(-0.712078 2.48626e-05 0.025)
(-0.720206 3.49743e-05 0.025)
(-0.728063 4.53388e-05 0.025)
(-0.73565 5.60484e-05 0.025)
(-0.742971 6.71968e-05 0.025)
(-0.750028 7.88787e-05 0.025)
(-0.756824 9.11484e-05 0.025)
(-0.763364 0.000104094 0.025)
(-0.769652 0.000117856 0.025)
(-0.775693 0.000132571 0.025)
(-0.781494 0.000148541 0.025)
(-0.787057 0.000165984 0.025)
(-0.792394 0.000185736 0.025)
(-0.797492 0.000204612 0.025)
(-0.686065 4.97057e-06 0.025)
(-0.695008 1.48894e-05 0.025)
(-0.703679 2.48305e-05 0.025)
(-0.712079 3.49181e-05 0.025)
(-0.720206 4.52589e-05 0.025)
(-0.728063 5.59436e-05 0.025)
(-0.735651 6.70602e-05 0.025)
(-0.742972 7.87037e-05 0.025)
(-0.750029 9.09709e-05 0.025)
(-0.756824 0.000103912 0.025)
(-0.763364 0.00011762 0.025)
(-0.769652 0.000132246 0.025)
(-0.775693 0.00014794 0.025)
(-0.781493 0.000165029 0.025)
(-0.787056 0.000183743 0.025)
(-0.792394 0.000204993 0.025)
(-0.797492 0.000225279 0.025)
(-0.676855 4.96749e-06 0.025)
(-0.686067 1.48756e-05 0.025)
(-0.695009 2.47984e-05 0.025)
(-0.70368 3.48623e-05 0.025)
(-0.712079 4.51751e-05 0.025)
(-0.720207 5.58342e-05 0.025)
(-0.728064 6.69252e-05 0.025)
(-0.735652 7.85346e-05 0.025)
(-0.742972 9.07603e-05 0.025)
(-0.750029 0.000103702 0.025)
(-0.756825 0.000117407 0.025)
(-0.763365 0.000131976 0.025)
(-0.769652 0.000147572 0.025)
(-0.775693 0.000164356 0.025)
(-0.781493 0.000182684 0.025)
(-0.787056 0.000202797 0.025)
(-0.792393 0.000225684 0.025)
(-0.797492 0.000247525 0.025)
(-0.667379 4.96445e-06 0.025)
(-0.676857 1.48617e-05 0.025)
(-0.686068 2.47661e-05 0.025)
(-0.695009 3.48064e-05 0.025)
(-0.703681 4.50912e-05 0.025)
(-0.71208 5.57194e-05 0.025)
(-0.720208 6.67842e-05 0.025)
(-0.728065 7.83672e-05 0.025)
(-0.735652 9.05563e-05 0.025)
(-0.742973 0.000103453 0.025)
(-0.75003 0.000117164 0.025)
(-0.756825 0.000131733 0.025)
(-0.763365 0.000147265 0.025)
(-0.769652 0.000163943 0.025)
(-0.775694 0.000181935 0.025)
(-0.781493 0.00020163 0.025)
(-0.787056 0.00022328 0.025)
(-0.792392 0.000247955 0.025)
(-0.797492 0.000271508 0.025)
(-0.657641 4.96135e-06 0.025)
(-0.66738 1.48481e-05 0.025)
(-0.676858 2.47337e-05 0.025)
(-0.686068 3.47502e-05 0.025)
(-0.695011 4.50078e-05 0.025)
(-0.703681 5.56052e-05 0.025)
(-0.712081 6.66358e-05 0.025)
(-0.720208 7.8192e-05 0.025)
(-0.728065 9.03543e-05 0.025)
(-0.735653 0.000103213 0.025)
(-0.742973 0.000116876 0.025)
(-0.75003 0.000131454 0.025)
(-0.756825 0.00014699 0.025)
(-0.763365 0.000163598 0.025)
(-0.769653 0.000181474 0.025)
(-0.775694 0.000200802 0.025)
(-0.781493 0.000222002 0.025)
(-0.787055 0.000245337 0.025)
(-0.792392 0.00027196 0.025)
(-0.797493 0.000297394 0.025)
(-0.647645 4.95849e-06 0.025)
(-0.657642 1.48345e-05 0.025)
(-0.667381 2.47016e-05 0.025)
(-0.676859 3.46939e-05 0.025)
(-0.68607 4.49239e-05 0.025)
(-0.695011 5.5491e-05 0.025)
(-0.703682 6.64884e-05 0.025)
(-0.712081 7.80086e-05 0.025)
(-0.720209 9.01438e-05 0.025)
(-0.728066 0.000102975 0.025)
(-0.735654 0.000116597 0.025)
(-0.742974 0.000131124 0.025)
(-0.75003 0.000146674 0.025)
(-0.756826 0.000163288 0.025)
(-0.763365 0.00018109 0.025)
(-0.769653 0.000200291 0.025)
(-0.775693 0.000221092 0.025)
(-0.781493 0.000243944 0.025)
(-0.787055 0.000269121 0.025)
(-0.792391 0.000297865 0.025)
(-0.797493 0.000325363 0.025)
(-0.637398 4.95569e-06 0.025)
(-0.647647 1.48212e-05 0.025)
(-0.657643 2.46701e-05 0.025)
(-0.667383 3.46383e-05 0.025)
(-0.67686 4.48398e-05 0.025)
(-0.68607 5.53764e-05 0.025)
(-0.695012 6.63412e-05 0.025)
(-0.703683 7.78256e-05 0.025)
(-0.712082 8.99226e-05 0.025)
(-0.72021 0.000102727 0.025)
(-0.728067 0.000116322 0.025)
(-0.735654 0.000130806 0.025)
(-0.742975 0.000146301 0.025)
(-0.750031 0.000162934 0.025)
(-0.756826 0.000180743 0.025)
(-0.763366 0.000199866 0.025)
(-0.769653 0.000220529 0.025)
(-0.775693 0.000242948 0.025)
(-0.781493 0.000267611 0.025)
(-0.787054 0.000294803 0.025)
(-0.79239 0.000325853 0.025)
(-0.797493 0.000355612 0.025)
(-0.626907 4.95274e-06 0.025)
(-0.637399 1.48082e-05 0.025)
(-0.647648 2.46392e-05 0.025)
(-0.657645 3.45834e-05 0.025)
(-0.667384 4.47567e-05 0.025)
(-0.676861 5.52614e-05 0.025)
(-0.686071 6.61935e-05 0.025)
(-0.695013 7.76434e-05 0.025)
(-0.703684 8.97027e-05 0.025)
(-0.712083 0.000102467 0.025)
(-0.720211 0.000116034 0.025)
(-0.728067 0.00013049 0.025)
(-0.735655 0.000145941 0.025)
(-0.742975 0.000162515 0.025)
(-0.750032 0.000180348 0.025)
(-0.756827 0.000199481 0.025)
(-0.763366 0.000220059 0.025)
(-0.769653 0.00024233 0.025)
(-0.775693 0.000266526 0.025)
(-0.781492 0.00029317 0.025)
(-0.787054 0.000322561 0.025)
(-0.79239 0.000356116 0.025)
(-0.797493 0.000388351 0.025)
(-0.616179 4.95022e-06 0.025)
(-0.626908 1.47959e-05 0.025)
(-0.637401 2.4609e-05 0.025)
(-0.647649 3.45298e-05 0.025)
(-0.657646 4.46749e-05 0.025)
(-0.667385 5.51481e-05 0.025)
(-0.676861 6.60455e-05 0.025)
(-0.686072 7.74604e-05 0.025)
(-0.695014 8.94834e-05 0.025)
(-0.703685 0.000102207 0.025)
(-0.712084 0.000115733 0.025)
(-0.720212 0.000130161 0.025)
(-0.728068 0.000145583 0.025)
(-0.735655 0.000162109 0.025)
(-0.742976 0.000179881 0.025)
(-0.750032 0.000199042 0.025)
(-0.756827 0.000219633 0.025)
(-0.763366 0.000241813 0.025)
(-0.769653 0.00026585 0.025)
(-0.775694 0.000291993 0.025)
(-0.781492 0.000320804 0.025)
(-0.787054 0.000352592 0.025)
(-0.792389 0.000388866 0.025)
(-0.797493 0.000423811 0.025)
(-0.605225 4.9476e-06 0.025)
(-0.61618 1.47837e-05 0.025)
(-0.626909 2.45799e-05 0.025)
(-0.637402 3.44775e-05 0.025)
(-0.64765 4.45949e-05 0.025)
(-0.657647 5.50365e-05 0.025)
(-0.667386 6.58995e-05 0.025)
(-0.676863 7.72774e-05 0.025)
(-0.686073 8.92634e-05 0.025)
(-0.695015 0.000101949 0.025)
(-0.703686 0.000115432 0.025)
(-0.712085 0.000129816 0.025)
(-0.720213 0.00014521 0.025)
(-0.728069 0.000161708 0.025)
(-0.735656 0.000179429 0.025)
(-0.742977 0.000198525 0.025)
(-0.750033 0.000219149 0.025)
(-0.756828 0.000241345 0.025)
(-0.763367 0.000265284 0.025)
(-0.769654 0.000291257 0.025)
(-0.775694 0.000319531 0.025)
(-0.781492 0.000350708 0.025)
(-0.787053 0.000385108 0.025)
(-0.792388 0.000424332 0.025)
(-0.797494 0.000462237 0.025)
(-0.594054 4.94514e-06 0.025)
(-0.605226 1.47725e-05 0.025)
(-0.616182 2.45519e-05 0.025)
(-0.626911 3.4427e-05 0.025)
(-0.637403 4.4517e-05 0.025)
(-0.647651 5.49274e-05 0.025)
(-0.657648 6.57558e-05 0.025)
(-0.667387 7.70966e-05 0.025)
(-0.676864 8.90431e-05 0.025)
(-0.686074 0.000101691 0.025)
(-0.695016 0.000115133 0.025)
(-0.703687 0.000129473 0.025)
(-0.712086 0.00014482 0.025)
(-0.720214 0.00016129 0.025)
(-0.72807 0.000178982 0.025)
(-0.735657 0.000198024 0.025)
(-0.742978 0.000218578 0.025)
(-0.750034 0.000240813 0.025)
(-0.756828 0.00026477 0.025)
(-0.763368 0.000290638 0.025)
(-0.769654 0.00031873 0.025)
(-0.775694 0.000349334 0.025)
(-0.781492 0.000383092 0.025)
(-0.787053 0.000420337 0.025)
(-0.792387 0.00046276 0.025)
(-0.797494 0.000503901 0.025)
(-0.582678 4.94297e-06 0.025)
(-0.594055 1.47617e-05 0.025)
(-0.605227 2.45254e-05 0.025)
(-0.616183 3.43785e-05 0.025)
(-0.626912 4.44418e-05 0.025)
(-0.637404 5.48213e-05 0.025)
(-0.647652 6.56154e-05 0.025)
(-0.657649 7.69189e-05 0.025)
(-0.667388 8.88258e-05 0.025)
(-0.676865 0.000101431 0.025)
(-0.686076 0.000114834 0.025)
(-0.695017 0.000129131 0.025)
(-0.703688 0.000144432 0.025)
(-0.712087 0.000160852 0.025)
(-0.720214 0.000178516 0.025)
(-0.728071 0.000197527 0.025)
(-0.735658 0.000218026 0.025)
(-0.742978 0.000240185 0.025)
(-0.750034 0.000264187 0.025)
(-0.756829 0.000290075 0.025)
(-0.763368 0.000318056 0.025)
(-0.769654 0.000348467 0.025)
(-0.775694 0.000381615 0.025)
(-0.781491 0.000418187 0.025)
(-0.787052 0.000458529 0.025)
(-0.792386 0.00050442 0.025)
(-0.797494 0.000549092 0.025)
(-0.571111 4.94096e-06 0.025)
(-0.58268 1.47517e-05 0.025)
(-0.594056 2.45005e-05 0.025)
(-0.605229 3.43326e-05 0.025)
(-0.616184 4.43696e-05 0.025)
(-0.626913 5.47188e-05 0.025)
(-0.637405 6.5479e-05 0.025)
(-0.647654 7.67453e-05 0.025)
(-0.65765 8.86124e-05 0.025)
(-0.66739 0.000101176 0.025)
(-0.676866 0.000114534 0.025)
(-0.686077 0.000128789 0.025)
(-0.695018 0.000144046 0.025)
(-0.703689 0.000160417 0.025)
(-0.712089 0.000178028 0.025)
(-0.720216 0.000197012 0.025)
(-0.728072 0.000217479 0.025)
(-0.735659 0.000239579 0.025)
(-0.742979 0.000263501 0.025)
(-0.750035 0.000289438 0.025)
(-0.75683 0.000317442 0.025)
(-0.763369 0.000347732 0.025)
(-0.769655 0.000380676 0.025)
(-0.775694 0.000416601 0.025)
(-0.781491 0.000456242 0.025)
(-0.787052 0.000499952 0.025)
(-0.792385 0.000549601 0.025)
(-0.797494 0.000598128 0.025)
(-0.559364 4.93901e-06 0.025)
(-0.571112 1.47423e-05 0.025)
(-0.58268 2.44772e-05 0.025)
(-0.594058 3.42896e-05 0.025)
(-0.60523 4.43014e-05 0.025)
(-0.616186 5.46206e-05 0.025)
(-0.626914 6.53473e-05 0.025)
(-0.637407 7.65768e-05 0.025)
(-0.647655 8.84042e-05 0.025)
(-0.657652 0.000100925 0.025)
(-0.667391 0.000114238 0.025)
(-0.676868 0.000128446 0.025)
(-0.686078 0.000143658 0.025)
(-0.69502 0.000159983 0.025)
(-0.703691 0.000177543 0.025)
(-0.712089 0.00019647 0.025)
(-0.720217 0.000216909 0.025)
(-0.728073 0.000238977 0.025)
(-0.73566 0.000262836 0.025)
(-0.74298 0.00028869 0.025)
(-0.750036 0.000316747 0.025)
(-0.756831 0.000347064 0.025)
(-0.763369 0.000379881 0.025)
(-0.769655 0.000415589 0.025)
(-0.775694 0.000454544 0.025)
(-0.781491 0.000497525 0.025)
(-0.787051 0.000544898 0.025)
(-0.792384 0.00059862 0.025)
(-0.797494 0.000651351 0.025)
(-0.547454 4.93734e-06 0.025)
(-0.559365 1.4734e-05 0.025)
(-0.571113 2.44556e-05 0.025)
(-0.582682 3.42493e-05 0.025)
(-0.59406 4.42374e-05 0.025)
(-0.605231 5.45277e-05 0.025)
(-0.616187 6.52209e-05 0.025)
(-0.626916 7.64143e-05 0.025)
(-0.637409 8.82017e-05 0.025)
(-0.647657 0.00010068 0.025)
(-0.657653 0.000113948 0.025)
(-0.667392 0.000128109 0.025)
(-0.676869 0.000143271 0.025)
(-0.68608 0.000159549 0.025)
(-0.695021 0.00017706 0.025)
(-0.703692 0.000195933 0.025)
(-0.712091 0.000216313 0.025)
(-0.720218 0.000238352 0.025)
(-0.728074 0.000262177 0.025)
(-0.735661 0.000287965 0.025)
(-0.742981 0.000315933 0.025)
(-0.750037 0.000346308 0.025)
(-0.756832 0.000379152 0.025)
(-0.76337 0.000414726 0.025)
(-0.769656 0.000453451 0.025)
(-0.775694 0.000495711 0.025)
(-0.781491 0.00054233 0.025)
(-0.787051 0.000593688 0.025)
(-0.792383 0.000651823 0.025)
(-0.797494 0.000709137 0.025)
(-0.535396 4.93579e-06 0.025)
(-0.547455 1.47265e-05 0.025)
(-0.559367 2.44361e-05 0.025)
(-0.571114 3.42121e-05 0.025)
(-0.582684 4.41776e-05 0.025)
(-0.594061 5.44408e-05 0.025)
(-0.605233 6.51019e-05 0.025)
(-0.616189 7.62585e-05 0.025)
(-0.626918 8.80069e-05 0.025)
(-0.63741 0.000100443 0.025)
(-0.647658 0.000113665 0.025)
(-0.657655 0.000127778 0.025)
(-0.667394 0.00014289 0.025)
(-0.676871 0.000159115 0.025)
(-0.686081 0.000176577 0.025)
(-0.695023 0.000195399 0.025)
(-0.703693 0.000215721 0.025)
(-0.712093 0.000237697 0.025)
(-0.72022 0.000261493 0.025)
(-0.728076 0.000287245 0.025)
(-0.735663 0.000315144 0.025)
(-0.742983 0.000345425 0.025)
(-0.750038 0.000378332 0.025)
(-0.756832 0.000413936 0.025)
(-0.763371 0.00045252 0.025)
(-0.769656 0.000494534 0.025)
(-0.775694 0.000540394 0.025)
(-0.781491 0.000590973 0.025)
(-0.78705 0.000646661 0.025)
(-0.792382 0.000709577 0.025)
(-0.797494 0.00077189 0.025)
(-0.523206 4.93465e-06 0.025)
(-0.535397 1.47199e-05 0.025)
(-0.547457 2.44187e-05 0.025)
(-0.559368 3.41784e-05 0.025)
(-0.571116 4.41221e-05 0.025)
(-0.582685 5.43595e-05 0.025)
(-0.594062 6.49905e-05 0.025)
(-0.605235 7.61117e-05 0.025)
(-0.61619 8.78202e-05 0.025)
(-0.626919 0.000100214 0.025)
(-0.637412 0.000113391 0.025)
(-0.64766 0.000127456 0.025)
(-0.657656 0.000142516 0.025)
(-0.667396 0.000158689 0.025)
(-0.676872 0.000176094 0.025)
(-0.686083 0.000194864 0.025)
(-0.695025 0.000215132 0.025)
(-0.703695 0.000237047 0.025)
(-0.712094 0.000260777 0.025)
(-0.720221 0.000286498 0.025)
(-0.728077 0.00031436 0.025)
(-0.735664 0.000344567 0.025)
(-0.742984 0.000377375 0.025)
(-0.750039 0.000413048 0.025)
(-0.756833 0.000451663 0.025)
(-0.763372 0.000493529 0.025)
(-0.769657 0.000539132 0.025)
(-0.775695 0.000588913 0.025)
(-0.78149 0.0006438 0.025)
(-0.787049 0.000704196 0.025)
(-0.792381 0.000772291 0.025)
(-0.797493 0.000840051 0.025)
(-0.510901 4.93348e-06 0.025)
(-0.523207 1.47141e-05 0.025)
(-0.535398 2.44034e-05 0.025)
(-0.547458 3.41485e-05 0.025)
(-0.55937 4.40724e-05 0.025)
(-0.571118 5.42845e-05 0.025)
(-0.582687 6.48865e-05 0.025)
(-0.594064 7.59745e-05 0.025)
(-0.605236 8.76444e-05 0.025)
(-0.616192 9.99951e-05 0.025)
(-0.626921 0.000113127 0.025)
(-0.637413 0.000127143 0.025)
(-0.647661 0.000142153 0.025)
(-0.657658 0.00015827 0.025)
(-0.667398 0.000175619 0.025)
(-0.676874 0.00019433 0.025)
(-0.686085 0.000214543 0.025)
(-0.695026 0.0002364 0.025)
(-0.703697 0.000260065 0.025)
(-0.712096 0.000285716 0.025)
(-0.720223 0.000313546 0.025)
(-0.728079 0.000343716 0.025)
(-0.735666 0.000376446 0.025)
(-0.742985 0.000412013 0.025)
(-0.750041 0.000450701 0.025)
(-0.756835 0.000492601 0.025)
(-0.763372 0.000538045 0.025)
(-0.769657 0.000587556 0.025)
(-0.775695 0.000641609 0.025)
(-0.78149 0.000701183 0.025)
(-0.787048 0.000766696 0.025)
(-0.79238 0.000840404 0.025)
(-0.797493 0.000914099 0.025)
(-0.4985 4.93274e-06 0.025)
(-0.510902 1.47095e-05 0.025)
(-0.523208 2.43903e-05 0.025)
(-0.5354 3.41222e-05 0.025)
(-0.547459 4.40282e-05 0.025)
(-0.559372 5.4217e-05 0.025)
(-0.57112 6.47906e-05 0.025)
(-0.582689 7.58467e-05 0.025)
(-0.594066 8.74804e-05 0.025)
(-0.605238 9.97893e-05 0.025)
(-0.616194 0.000112875 0.025)
(-0.626923 0.000126843 0.025)
(-0.637415 0.0001418 0.025)
(-0.647663 0.000157863 0.025)
(-0.65766 0.000175154 0.025)
(-0.6674 0.000193805 0.025)
(-0.676876 0.000213955 0.025)
(-0.686086 0.000235755 0.025)
(-0.695028 0.000259359 0.025)
(-0.703698 0.000284942 0.025)
(-0.712097 0.000312697 0.025)
(-0.720225 0.000342832 0.025)
(-0.728081 0.000375522 0.025)
(-0.735668 0.000411007 0.025)
(-0.742987 0.000449584 0.025)
(-0.750042 0.000491562 0.025)
(-0.756836 0.000537042 0.025)
(-0.763373 0.000586387 0.025)
(-0.769658 0.000640156 0.025)
(-0.775695 0.00069886 0.025)
(-0.78149 0.000763534 0.025)
(-0.787048 0.000834605 0.025)
(-0.792378 0.000914395 0.025)
(-0.797493 0.000994556 0.025)
(-0.486021 4.93214e-06 0.025)
(-0.498501 1.4706e-05 0.025)
(-0.510904 2.43796e-05 0.025)
(-0.52321 3.40995e-05 0.025)
(-0.535401 4.39894e-05 0.025)
(-0.547461 5.41574e-05 0.025)
(-0.559373 6.47042e-05 0.025)
(-0.571121 7.57286e-05 0.025)
(-0.58269 8.73277e-05 0.025)
(-0.594068 9.95974e-05 0.025)
(-0.60524 0.000112638 0.025)
(-0.616196 0.000126556 0.025)
(-0.626925 0.000141462 0.025)
(-0.637417 0.000157469 0.025)
(-0.647665 0.000174702 0.025)
(-0.657662 0.000193291 0.025)
(-0.667402 0.000213378 0.025)
(-0.676878 0.000235111 0.025)
(-0.686089 0.000258653 0.025)
(-0.69503 0.000284171 0.025)
(-0.703701 0.000311854 0.025)
(-0.712099 0.00034191 0.025)
(-0.720227 0.000374564 0.025)
(-0.728083 0.000410007 0.025)
(-0.735669 0.000448498 0.025)
(-0.742988 0.000490358 0.025)
(-0.750043 0.00053592 0.025)
(-0.756837 0.000585303 0.025)
(-0.763374 0.000638898 0.025)
(-0.769659 0.000697303 0.025)
(-0.775695 0.000761069 0.025)
(-0.78149 0.000831289 0.025)
(-0.787047 0.000908404 0.025)
(-0.792377 0.00099478 0.025)
(-0.797492 0.00108199 0.025)
(-0.473483 4.93176e-06 0.025)
(-0.486022 1.47033e-05 0.025)
(-0.498503 2.43713e-05 0.025)
(-0.510905 3.40813e-05 0.025)
(-0.523212 4.39561e-05 0.025)
(-0.535403 5.4105e-05 0.025)
(-0.547463 6.46283e-05 0.025)
(-0.559375 7.5623e-05 0.025)
(-0.571123 8.7187e-05 0.025)
(-0.582693 9.94189e-05 0.025)
(-0.59407 0.000112417 0.025)
(-0.605242 0.000126287 0.025)
(-0.616198 0.000141139 0.025)
(-0.626927 0.000157091 0.025)
(-0.63742 0.000174266 0.025)
(-0.647668 0.000192793 0.025)
(-0.657665 0.000212813 0.025)
(-0.667404 0.000234478 0.025)
(-0.67688 0.00025795 0.025)
(-0.686091 0.000283402 0.025)
(-0.695032 0.000311017 0.025)
(-0.703703 0.000340996 0.025)
(-0.712102 0.000373567 0.025)
(-0.720229 0.000408971 0.025)
(-0.728085 0.000447416 0.025)
(-0.735671 0.000489186 0.025)
(-0.74299 0.000534625 0.025)
(-0.750045 0.000584094 0.025)
(-0.756839 0.000637727 0.025)
(-0.763375 0.000695951 0.025)
(-0.769659 0.000759406 0.025)
(-0.775696 0.000828682 0.025)
(-0.781489 0.000904931 0.025)
(-0.787046 0.00098861 0.025)
(-0.792375 0.00108214 0.025)
(-0.797492 0.00117701 0.025)
(-0.460905 4.93167e-06 0.025)
(-0.473484 1.47016e-05 0.025)
(-0.486023 2.43652e-05 0.025)
(-0.498504 3.40673e-05 0.025)
(-0.510907 4.39293e-05 0.025)
(-0.523214 5.40603e-05 0.025)
(-0.535405 6.45618e-05 0.025)
(-0.547465 7.55301e-05 0.025)
(-0.559377 8.70613e-05 0.025)
(-0.571125 9.92549e-05 0.025)
(-0.582695 0.000112213 0.025)
(-0.594072 0.000126036 0.025)
(-0.605244 0.000140837 0.025)
(-0.6162 0.000156732 0.025)
(-0.626929 0.000173847 0.025)
(-0.637422 0.000192311 0.025)
(-0.64767 0.000212265 0.025)
(-0.657667 0.00023386 0.025)
(-0.667406 0.000257259 0.025)
(-0.676883 0.000282636 0.025)
(-0.686093 0.000310181 0.025)
(-0.695035 0.000340087 0.025)
(-0.703705 0.000372576 0.025)
(-0.712104 0.000407892 0.025)
(-0.720231 0.000446297 0.025)
(-0.728087 0.000488018 0.025)
(-0.735673 0.000533362 0.025)
(-0.742992 0.000582701 0.025)
(-0.750047 0.000636424 0.025)
(-0.75684 0.000694687 0.025)
(-0.763377 0.000757952 0.025)
(-0.76966 0.000826904 0.025)
(-0.775696 0.000902178 0.025)
(-0.781489 0.000984983 0.025)
(-0.787045 0.0010758 0.025)
(-0.792374 0.00117707 0.025)
(-0.797492 0.0012803 0.025)
(-0.448307 4.93167e-06 0.025)
(-0.460906 1.47009e-05 0.025)
(-0.473485 2.43614e-05 0.025)
(-0.486025 3.4057e-05 0.025)
(-0.498506 4.39088e-05 0.025)
(-0.510909 5.40244e-05 0.025)
(-0.523216 6.45052e-05 0.025)
(-0.535407 7.5449e-05 0.025)
(-0.547467 8.69511e-05 0.025)
(-0.559379 9.91088e-05 0.025)
(-0.571128 0.000112025 0.025)
(-0.582697 0.000125804 0.025)
(-0.594074 0.000140556 0.025)
(-0.605247 0.000156394 0.025)
(-0.616203 0.000173448 0.025)
(-0.626932 0.000191849 0.025)
(-0.637425 0.000211736 0.025)
(-0.647673 0.000233261 0.025)
(-0.657669 0.000256585 0.025)
(-0.667409 0.000281885 0.025)
(-0.676885 0.000309349 0.025)
(-0.686096 0.000339182 0.025)
(-0.695037 0.000371593 0.025)
(-0.703708 0.000406822 0.025)
(-0.712107 0.000445133 0.025)
(-0.720234 0.000486812 0.025)
(-0.72809 0.000532103 0.025)
(-0.735676 0.000581342 0.025)
(-0.742994 0.000634929 0.025)
(-0.750049 0.000693286 0.025)
(-0.756842 0.000756591 0.025)
(-0.763378 0.000825343 0.025)
(-0.769661 0.000900276 0.025)
(-0.775696 0.000982077 0.025)
(-0.781489 0.00107201 0.025)
(-0.787044 0.00117058 0.025)
(-0.792373 0.00128026 0.025)
(-0.797491 0.00139258 0.025)
(-0.435709 4.93186e-06 0.025)
(-0.448308 1.47012e-05 0.025)
(-0.460907 2.43598e-05 0.025)
(-0.473487 3.40506e-05 0.025)
(-0.486027 4.38941e-05 0.025)
(-0.498508 5.39973e-05 0.025)
(-0.510911 6.44599e-05 0.025)
(-0.523218 7.53803e-05 0.025)
(-0.535409 8.68552e-05 0.025)
(-0.54747 9.89809e-05 0.025)
(-0.559382 0.000111857 0.025)
(-0.57113 0.000125592 0.025)
(-0.582699 0.000140296 0.025)
(-0.594077 0.000156082 0.025)
(-0.605249 0.000173075 0.025)
(-0.616205 0.00019141 0.025)
(-0.626934 0.00021123 0.025)
(-0.637427 0.000232682 0.025)
(-0.647676 0.000255931 0.025)
(-0.657672 0.000281152 0.025)
(-0.667411 0.000308535 0.025)
(-0.676888 0.000338281 0.025)
(-0.686099 0.000370613 0.025)
(-0.69504 0.000405759 0.025)
(-0.703711 0.000443979 0.025)
(-0.71211 0.000485557 0.025)
(-0.720237 0.000530804 0.025)
(-0.728092 0.000579987 0.025)
(-0.735678 0.000633469 0.025)
(-0.742997 0.000691683 0.025)
(-0.750051 0.000755085 0.025)
(-0.756844 0.000823877 0.025)
(-0.76338 0.000898606 0.025)
(-0.769662 0.000980048 0.025)
(-0.775697 0.00106895 0.025)
(-0.781489 0.00116664 0.025)
(-0.787044 0.00127363 0.025)
(-0.792372 0.00139242 0.025)
(-0.79749 0.00151464 0.025)
(-0.42313 4.93238e-06 0.025)
(-0.43571 1.47024e-05 0.025)
(-0.448309 2.43608e-05 0.025)
(-0.460909 3.40483e-05 0.025)
(-0.473489 4.38851e-05 0.025)
(-0.486029 5.3978e-05 0.025)
(-0.49851 6.44263e-05 0.025)
(-0.510913 7.53258e-05 0.025)
(-0.52322 8.67744e-05 0.025)
(-0.535412 9.88704e-05 0.025)
(-0.547472 0.000111712 0.025)
(-0.559384 0.000125404 0.025)
(-0.571133 0.000140059 0.025)
(-0.582702 0.000155794 0.025)
(-0.59408 0.000172731 0.025)
(-0.605252 0.000191001 0.025)
(-0.616208 0.00021075 0.025)
(-0.626937 0.00023213 0.025)
(-0.63743 0.000255303 0.025)
(-0.647679 0.000280443 0.025)
(-0.657675 0.00030774 0.025)
(-0.667415 0.000337399 0.025)
(-0.676892 0.000369639 0.025)
(-0.686102 0.000404703 0.025)
(-0.695044 0.000442833 0.025)
(-0.703714 0.000484314 0.025)
(-0.712113 0.000529455 0.025)
(-0.72024 0.000578589 0.025)
(-0.728095 0.000632011 0.025)
(-0.735681 0.000690114 0.025)
(-0.743 0.000753365 0.025)
(-0.750054 0.00082226 0.025)
(-0.756846 0.000897025 0.025)
(-0.763381 0.000978254 0.025)
(-0.769663 0.00106678 0.025)
(-0.775698 0.00116341 0.025)
(-0.781489 0.00126952 0.025)
(-0.787043 0.00138568 0.025)
(-0.79237 0.00151436 0.025)
(-0.79749 0.00164735 0.025)
(-0.410591 4.93302e-06 0.025)
(-0.423131 1.47044e-05 0.025)
(-0.435711 2.43636e-05 0.025)
(-0.448311 3.40501e-05 0.025)
(-0.460911 4.38822e-05 0.025)
(-0.473491 5.39665e-05 0.025)
(-0.486031 6.44025e-05 0.025)
(-0.498512 7.52855e-05 0.025)
(-0.510916 8.67107e-05 0.025)
(-0.523222 9.87774e-05 0.025)
(-0.535415 0.000111587 0.025)
(-0.547475 0.00012524 0.025)
(-0.559387 0.000139849 0.025)
(-0.571135 0.000155532 0.025)
(-0.582705 0.000172414 0.025)
(-0.594083 0.000190623 0.025)
(-0.605255 0.000210303 0.025)
(-0.616211 0.000231607 0.025)
(-0.62694 0.000254702 0.025)
(-0.637434 0.00027976 0.025)
(-0.647682 0.000306971 0.025)
(-0.657679 0.00033654 0.025)
(-0.667418 0.000368688 0.025)
(-0.676895 0.000403652 0.025)
(-0.686105 0.000441693 0.025)
(-0.695047 0.00048308 0.025)
(-0.703717 0.000528117 0.025)
(-0.712116 0.000577138 0.025)
(-0.720243 0.000630508 0.025)
(-0.728098 0.000688548 0.025)
(-0.735684 0.000751683 0.025)
(-0.743003 0.00082042 0.025)
(-0.750056 0.000895289 0.025)
(-0.756848 0.000976558 0.025)
(-0.763383 0.00106486 0.025)
(-0.769665 0.00116111 0.025)
(-0.775698 0.00126613 0.025)
(-0.781488 0.00138141 0.025)
(-0.787042 0.00150752 0.025)
(-0.792369 0.00164694 0.025)
(-0.797489 0.00179164 0.025)
(-0.39811 4.93384e-06 0.025)
(-0.410592 1.47073e-05 0.025)
(-0.423133 2.43684e-05 0.025)
(-0.435713 3.40554e-05 0.025)
(-0.448313 4.38855e-05 0.025)
(-0.460913 5.39635e-05 0.025)
(-0.473493 6.4389e-05 0.025)
(-0.486033 7.52579e-05 0.025)
(-0.498515 8.66644e-05 0.025)
(-0.510918 9.87047e-05 0.025)
(-0.523225 0.000111482 0.025)
(-0.535417 0.0001251 0.025)
(-0.547478 0.000139668 0.025)
(-0.55939 0.000155301 0.025)
(-0.571138 0.000172125 0.025)
(-0.582708 0.000190276 0.025)
(-0.594086 0.00020989 0.025)
(-0.605258 0.000231121 0.025)
(-0.616214 0.000254134 0.025)
(-0.626944 0.00027911 0.025)
(-0.637437 0.000306233 0.025)
(-0.647685 0.00033571 0.025)
(-0.657682 0.00036776 0.025)
(-0.667422 0.000402626 0.025)
(-0.676899 0.000440563 0.025)
(-0.686109 0.000481854 0.025)
(-0.695051 0.00052679 0.025)
(-0.703721 0.000575702 0.025)
(-0.71212 0.000628952 0.025)
(-0.720247 0.000686935 0.025)
(-0.728101 0.000750001 0.025)
(-0.735687 0.000818614 0.025)
(-0.743006 0.000893322 0.025)
(-0.750059 0.000974698 0.025)
(-0.756851 0.00106304 0.025)
(-0.763385 0.00115905 0.025)
(-0.769666 0.00126368 0.025)
(-0.775699 0.00137785 0.025)
(-0.781488 0.00150308 0.025)
(-0.787041 0.00164 0.025)
(-0.792367 0.00179108 0.025)
(-0.797488 0.00194855 0.025)
(-0.385706 4.93487e-06 0.025)
(-0.398111 1.4711e-05 0.025)
(-0.410593 2.43752e-05 0.025)
(-0.423134 3.40641e-05 0.025)
(-0.435715 4.38939e-05 0.025)
(-0.448315 5.39689e-05 0.025)
(-0.460915 6.43865e-05 0.025)
(-0.473496 7.5243e-05 0.025)
(-0.486036 8.66334e-05 0.025)
(-0.498518 9.8653e-05 0.025)
(-0.510921 0.000111401 0.025)
(-0.523228 0.000124984 0.025)
(-0.53542 0.000139513 0.025)
(-0.547481 0.000155102 0.025)
(-0.559393 0.000171873 0.025)
(-0.571142 0.000189962 0.025)
(-0.582712 0.000209513 0.025)
(-0.594089 0.000230674 0.025)
(-0.605262 0.000253608 0.025)
(-0.616218 0.000278496 0.025)
(-0.626948 0.000305531 0.025)
(-0.637441 0.000334913 0.025)
(-0.647689 0.000366866 0.025)
(-0.657686 0.000401627 0.025)
(-0.667426 0.000439458 0.025)
(-0.676903 0.000480638 0.025)
(-0.686113 0.000525472 0.025)
(-0.695054 0.000574277 0.025)
(-0.703725 0.000627409 0.025)
(-0.712124 0.000685266 0.025)
(-0.72025 0.000748272 0.025)
(-0.728105 0.000816812 0.025)
(-0.735691 0.000891388 0.025)
(-0.743009 0.000972593 0.025)
(-0.750062 0.00106105 0.025)
(-0.756853 0.00115709 0.025)
(-0.763387 0.00126148 0.025)
(-0.769667 0.00137523 0.025)
(-0.775699 0.00149934 0.025)
(-0.781488 0.00163541 0.025)
(-0.78704 0.00178409 0.025)
(-0.792365 0.00194783 0.025)
(-0.797488 0.00211918 0.025)
(-0.373398 4.93592e-06 0.025)
(-0.385707 1.47153e-05 0.025)
(-0.398112 2.4384e-05 0.025)
(-0.410595 3.40762e-05 0.025)
(-0.423136 4.39075e-05 0.025)
(-0.435717 5.39814e-05 0.025)
(-0.448318 6.43948e-05 0.025)
(-0.460918 7.52417e-05 0.025)
(-0.473498 8.66178e-05 0.025)
(-0.486039 9.86193e-05 0.025)
(-0.49852 0.000111344 0.025)
(-0.510924 0.000124896 0.025)
(-0.523231 0.000139386 0.025)
(-0.535423 0.000154933 0.025)
(-0.547484 0.000171657 0.025)
(-0.559396 0.000189687 0.025)
(-0.571145 0.000209173 0.025)
(-0.582715 0.000230265 0.025)
(-0.594093 0.000253125 0.025)
(-0.605266 0.000277928 0.025)
(-0.616222 0.000304869 0.025)
(-0.626952 0.000334157 0.025)
(-0.637445 0.000366009 0.025)
(-0.647694 0.000400665 0.025)
(-0.657691 0.000438385 0.025)
(-0.66743 0.000479452 0.025)
(-0.676907 0.000524167 0.025)
(-0.686118 0.000572862 0.025)
(-0.695059 0.000625881 0.025)
(-0.70373 0.000683612 0.025)
(-0.712128 0.000746483 0.025)
(-0.720254 0.000814958 0.025)
(-0.728109 0.000889455 0.025)