/*--------------------------------*- C++ -*----------------------------------*\
| =========                 |                                                 |
| \\      /  F ield         | OpenFOAM: The Open Source CFD Toolbox           |
|  \\    /   O peration     | Version:  v2012                                 |
|   \\  /    A nd           | Website:  www.openfoam.com                      |
|    \\/     M anipulation  |                                                 |
\*---------------------------------------------------------------------------*/
FoamFile
{
    version     2.0;
    format      ascii;
    class       volScalarField;
    location    "13600";
    object      Cx;
}
// * * * * * * * * * * * * * * * * * * * * * * * * * * * * * * * * * * * * * //

dimensions      [0 1 0 0 0 0 0];


internalField   nonuniform List<scalar> 
39402
(
-0.797497
-0.792391
-0.797495
-0.787056
-0.792393
-0.797493
-0.781492
-0.787057
-0.792395
-0.797492
-0.775691
-0.781493
-0.787057
-0.792396
-0.797492
-0.76965
-0.775692
-0.781493
-0.787058
-0.792396
-0.797491
-0.763362
-0.76965
-0.775692
-0.781493
-0.787058
-0.792397
-0.797491
-0.756822
-0.763362
-0.76965
-0.775693
-0.781494
-0.787058
-0.792397
-0.79749
-0.750025
-0.756822
-0.763362
-0.769651
-0.775693
-0.781494
-0.787058
-0.792396
-0.79749
-0.742968
-0.750026
-0.756822
-0.763363
-0.769651
-0.775693
-0.781494
-0.787058
-0.792396
-0.79749
-0.735648
-0.742969
-0.750026
-0.756822
-0.763363
-0.769651
-0.775693
-0.781494
-0.787058
-0.792396
-0.797491
-0.72806
-0.735648
-0.742969
-0.750027
-0.756822
-0.763363
-0.769651
-0.775693
-0.781494
-0.787058
-0.792396
-0.797491
-0.720203
-0.728061
-0.735649
-0.74297
-0.750027
-0.756823
-0.763363
-0.769651
-0.775693
-0.781494
-0.787058
-0.792396
-0.797491
-0.712076
-0.720204
-0.728061
-0.735649
-0.742971
-0.750027
-0.756824
-0.763364
-0.769652
-0.775693
-0.781494
-0.787058
-0.792395
-0.797491
-0.703677
-0.712077
-0.720205
-0.728062
-0.73565
-0.742971
-0.750028
-0.756824
-0.763364
-0.769652
-0.775693
-0.781494
-0.787057
-0.792394
-0.797491
-0.695006
-0.703678
-0.712078
-0.720206
-0.728063
-0.73565
-0.742971
-0.750028
-0.756824
-0.763364
-0.769652
-0.775693
-0.781494
-0.787057
-0.792394
-0.797492
-0.686065
-0.695008
-0.703679
-0.712079
-0.720206
-0.728063
-0.735651
-0.742972
-0.750029
-0.756824
-0.763364
-0.769652
-0.775693
-0.781493
-0.787056
-0.792394
-0.797492
-0.676855
-0.686067
-0.695009
-0.70368
-0.712079
-0.720207
-0.728064
-0.735652
-0.742972
-0.750029
-0.756825
-0.763365
-0.769652
-0.775693
-0.781493
-0.787056
-0.792393
-0.797492
-0.667379
-0.676857
-0.686068
-0.695009
-0.703681
-0.71208
-0.720208
-0.728065
-0.735652
-0.742973
-0.75003
-0.756825
-0.763365
-0.769652
-0.775694
-0.781493
-0.787056
-0.792392
-0.797492
-0.657641
-0.66738
-0.676858
-0.686068
-0.695011
-0.703681
-0.712081
-0.720208
-0.728065
-0.735653
-0.742973
-0.75003
-0.756825
-0.763365
-0.769653
-0.775694
-0.781493
-0.787055
-0.792392
-0.797493
-0.647645
-0.657642
-0.667381
-0.676859
-0.68607
-0.695011
-0.703682
-0.712081
-0.720209
-0.728066
-0.735654
-0.742974
-0.75003
-0.756826
-0.763365
-0.769653
-0.775693
-0.781493
-0.787055
-0.792391
-0.797493
-0.637398
-0.647647
-0.657643
-0.667383
-0.67686
-0.68607
-0.695012
-0.703683
-0.712082
-0.72021
-0.728067
-0.735654
-0.742975
-0.750031
-0.756826
-0.763366
-0.769653
-0.775693
-0.781493
-0.787054
-0.79239
-0.797493
-0.626907
-0.637399
-0.647648
-0.657645
-0.667384
-0.676861
-0.686071
-0.695013
-0.703684
-0.712083
-0.720211
-0.728067
-0.735655
-0.742975
-0.750032
-0.756827
-0.763366
-0.769653
-0.775693
-0.781492
-0.787054
-0.79239
-0.797493
-0.616179
-0.626908
-0.637401
-0.647649
-0.657646
-0.667385
-0.676861
-0.686072
-0.695014
-0.703685
-0.712084
-0.720212
-0.728068
-0.735655
-0.742976
-0.750032
-0.756827
-0.763366
-0.769653
-0.775694
-0.781492
-0.787054
-0.792389
-0.797493
-0.605225
-0.61618
-0.626909
-0.637402
-0.64765
-0.657647
-0.667386
-0.676863
-0.686073
-0.695015
-0.703686
-0.712085
-0.720213
-0.728069
-0.735656
-0.742977
-0.750033
-0.756828
-0.763367
-0.769654
-0.775694
-0.781492
-0.787053
-0.792388
-0.797494
-0.594054
-0.605226
-0.616182
-0.626911
-0.637403
-0.647651
-0.657648
-0.667387
-0.676864
-0.686074
-0.695016
-0.703687
-0.712086
-0.720214
-0.72807
-0.735657
-0.742978
-0.750034
-0.756828
-0.763368
-0.769654
-0.775694
-0.781492
-0.787053
-0.792387
-0.797494
-0.582678
-0.594055
-0.605227
-0.616183
-0.626912
-0.637404
-0.647652
-0.657649
-0.667388
-0.676865
-0.686076
-0.695017
-0.703688
-0.712087
-0.720214
-0.728071
-0.735658
-0.742978
-0.750034
-0.756829
-0.763368
-0.769654
-0.775694
-0.781491
-0.787052
-0.792386
-0.797494
-0.571111
-0.58268
-0.594056
-0.605229
-0.616184
-0.626913
-0.637405
-0.647654
-0.65765
-0.66739
-0.676866
-0.686077
-0.695018
-0.703689
-0.712089
-0.720216
-0.728072
-0.735659
-0.742979
-0.750035
-0.75683
-0.763369
-0.769655
-0.775694
-0.781491
-0.787052
-0.792385
-0.797494
-0.559364
-0.571112
-0.58268
-0.594058
-0.60523
-0.616186
-0.626914
-0.637407
-0.647655
-0.657652
-0.667391
-0.676868
-0.686078
-0.69502
-0.703691
-0.712089
-0.720217
-0.728073
-0.73566
-0.74298
-0.750036
-0.756831
-0.763369
-0.769655
-0.775694
-0.781491
-0.787051
-0.792384
-0.797494
-0.547454
-0.559365
-0.571113
-0.582682
-0.59406
-0.605231
-0.616187
-0.626916
-0.637409
-0.647657
-0.657653
-0.667392
-0.676869
-0.68608
-0.695021
-0.703692
-0.712091
-0.720218
-0.728074
-0.735661
-0.742981
-0.750037
-0.756832
-0.76337
-0.769656
-0.775694
-0.781491
-0.787051
-0.792383
-0.797494
-0.535396
-0.547455
-0.559367
-0.571114
-0.582684
-0.594061
-0.605233
-0.616189
-0.626918
-0.63741
-0.647658
-0.657655
-0.667394
-0.676871
-0.686081
-0.695023
-0.703693
-0.712093
-0.72022
-0.728076
-0.735663
-0.742983
-0.750038
-0.756832
-0.763371
-0.769656
-0.775694
-0.781491
-0.78705
-0.792382
-0.797494
-0.523206
-0.535397
-0.547457
-0.559368
-0.571116
-0.582685
-0.594062
-0.605235
-0.61619
-0.626919
-0.637412
-0.64766
-0.657656
-0.667396
-0.676872
-0.686083
-0.695025
-0.703695
-0.712094
-0.720221
-0.728077
-0.735664
-0.742984
-0.750039
-0.756833
-0.763372
-0.769657
-0.775695
-0.78149
-0.787049
-0.792381
-0.797493
-0.510901
-0.523207
-0.535398
-0.547458
-0.55937
-0.571118
-0.582687
-0.594064
-0.605236
-0.616192
-0.626921
-0.637413
-0.647661
-0.657658
-0.667398
-0.676874
-0.686085
-0.695026
-0.703697
-0.712096
-0.720223
-0.728079
-0.735666
-0.742985
-0.750041
-0.756835
-0.763372
-0.769657
-0.775695
-0.78149
-0.787048
-0.79238
-0.797493
-0.4985
-0.510902
-0.523208
-0.5354
-0.547459
-0.559372
-0.57112
-0.582689
-0.594066
-0.605238
-0.616194
-0.626923
-0.637415
-0.647663
-0.65766
-0.6674
-0.676876
-0.686086
-0.695028
-0.703698
-0.712097
-0.720225
-0.728081
-0.735668
-0.742987
-0.750042
-0.756836
-0.763373
-0.769658
-0.775695
-0.78149
-0.787048
-0.792378
-0.797493
-0.486021
-0.498501
-0.510904
-0.52321
-0.535401
-0.547461
-0.559373
-0.571121
-0.58269
-0.594068
-0.60524
-0.616196
-0.626925
-0.637417
-0.647665
-0.657662
-0.667402
-0.676878
-0.686089
-0.69503
-0.703701
-0.712099
-0.720227
-0.728083
-0.735669
-0.742988
-0.750043
-0.756837
-0.763374
-0.769659
-0.775695
-0.78149
-0.787047
-0.792377
-0.797492
-0.473483
-0.486022
-0.498503
-0.510905
-0.523212
-0.535403
-0.547463
-0.559375
-0.571123
-0.582693
-0.59407
-0.605242
-0.616198
-0.626927
-0.63742
-0.647668
-0.657665
-0.667404
-0.67688
-0.686091
-0.695032
-0.703703
-0.712102
-0.720229
-0.728085
-0.735671
-0.74299
-0.750045
-0.756839
-0.763375
-0.769659
-0.775696
-0.781489
-0.787046
-0.792375
-0.797492
-0.460905
-0.473484
-0.486023
-0.498504
-0.510907
-0.523214
-0.535405
-0.547465
-0.559377
-0.571125
-0.582695
-0.594072
-0.605244
-0.6162
-0.626929
-0.637422
-0.64767
-0.657667
-0.667406
-0.676883
-0.686093
-0.695035
-0.703705
-0.712104
-0.720231
-0.728087
-0.735673
-0.742992
-0.750047
-0.75684
-0.763377
-0.76966
-0.775696
-0.781489
-0.787045
-0.792374
-0.797492
-0.448307
-0.460906
-0.473485
-0.486025
-0.498506
-0.510909
-0.523216
-0.535407
-0.547467
-0.559379
-0.571128
-0.582697
-0.594074
-0.605247
-0.616203
-0.626932
-0.637425
-0.647673
-0.657669
-0.667409
-0.676885
-0.686096
-0.695037
-0.703708
-0.712107
-0.720234
-0.72809
-0.735676
-0.742994
-0.750049
-0.756842
-0.763378
-0.769661
-0.775696
-0.781489
-0.787044
-0.792373
-0.797491
-0.435709
-0.448308
-0.460907
-0.473487
-0.486027
-0.498508
-0.510911
-0.523218
-0.535409
-0.54747
-0.559382
-0.57113
-0.582699
-0.594077
-0.605249
-0.616205
-0.626934
-0.637427
-0.647676
-0.657672
-0.667411
-0.676888
-0.686099
-0.69504
-0.703711
-0.71211
-0.720237
-0.728092
-0.735678
-0.742997
-0.750051
-0.756844
-0.76338
-0.769662
-0.775697
-0.781489
-0.787044
-0.792372
-0.79749
-0.42313
-0.43571
-0.448309
-0.460909
-0.473489
-0.486029
-0.49851
-0.510913
-0.52322
-0.535412
-0.547472
-0.559384
-0.571133
-0.582702
-0.59408
-0.605252
-0.616208
-0.626937
-0.63743
-0.647679
-0.657675
-0.667415
-0.676892
-0.686102
-0.695044
-0.703714
-0.712113
-0.72024
-0.728095
-0.735681
-0.743
-0.750054
-0.756846
-0.763381
-0.769663
-0.775698
-0.781489
-0.787043
-0.79237
-0.79749
-0.410591
-0.423131
-0.435711
-0.448311
-0.460911
-0.473491
-0.486031
-0.498512
-0.510916
-0.523222
-0.535415
-0.547475
-0.559387
-0.571135
-0.582705
-0.594083
-0.605255
-0.616211
-0.62694
-0.637434
-0.647682
-0.657679
-0.667418
-0.676895
-0.686105
-0.695047
-0.703717
-0.712116
-0.720243
-0.728098
-0.735684
-0.743003
-0.750056
-0.756848
-0.763383
-0.769665
-0.775698
-0.781488
-0.787042
-0.792369
-0.797489
-0.39811
-0.410592
-0.423133
-0.435713
-0.448313
-0.460913
-0.473493
-0.486033
-0.498515
-0.510918
-0.523225
-0.535417
-0.547478
-0.55939
-0.571138
-0.582708
-0.594086
-0.605258
-0.616214
-0.626944
-0.637437
-0.647685
-0.657682
-0.667422
-0.676899
-0.686109
-0.695051
-0.703721
-0.71212
-0.720247
-0.728101
-0.735687
-0.743006
-0.750059
-0.756851
-0.763385
-0.769666
-0.775699
-0.781488
-0.787041
-0.792367
-0.797488
-0.385706
-0.398111
-0.410593
-0.423134
-0.435715
-0.448315
-0.460915
-0.473496
-0.486036
-0.498518
-0.510921
-0.523228
-0.53542
-0.547481
-0.559393
-0.571142
-0.582712
-0.594089
-0.605262
-0.616218
-0.626948
-0.637441
-0.647689
-0.657686
-0.667426
-0.676903
-0.686113
-0.695054
-0.703725
-0.712124
-0.72025
-0.728105
-0.735691
-0.743009
-0.750062
-0.756853
-0.763387
-0.769667
-0.775699
-0.781488
-0.78704
-0.792365
-0.797488
-0.373398
-0.385707
-0.398112
-0.410595
-0.423136
-0.435717
-0.448318
-0.460918
-0.473498
-0.486039
-0.49852
-0.510924
-0.523231
-0.535423
-0.547484
-0.559396
-0.571145
-0.582715
-0.594093
-0.605266
-0.616222
-0.626952
-0.637445
-0.647694
-0.657691
-0.66743
-0.676907
-0.686118
-0.695059
-0.70373
-0.712128
-0.720254
-0.728109
-0.735695
-0.743012
-0.750065
-0.756856
-0.763389
-0.769669
-0.7757
-0.781488
-0.787039
-0.792364
-0.797487
-0.361204
-0.373399
-0.385708
-0.398114
-0.410597
-0.423138
-0.435719
-0.44832
-0.46092
-0.473501
-0.486042
-0.498524
-0.510927
-0.523234
-0.535427
-0.547487
-0.5594
-0.571149
-0.582719
-0.594097
-0.60527
-0.616226
-0.626956
-0.637449
-0.647698
-0.657696
-0.667435
-0.676912
-0.686122
-0.695064
-0.703734
-0.712133
-0.720259
-0.728114
-0.735699
-0.743016
-0.750068
-0.756859
-0.763392
-0.769671
-0.775701
-0.781488
-0.787038
-0.792362
-0.797486
-0.349142
-0.361205
-0.3734
-0.38571
-0.398115
-0.410599
-0.423141
-0.435722
-0.448323
-0.460923
-0.473504
-0.486045
-0.498526
-0.51093
-0.523238
-0.53543
-0.547491
-0.559404
-0.571153
-0.582723
-0.594101
-0.605274
-0.616231
-0.626961
-0.637454
-0.647703
-0.6577
-0.66744
-0.676917
-0.686128
-0.695069
-0.70374
-0.712138
-0.720264
-0.728119
-0.735704
-0.74302
-0.750073
-0.756863
-0.763395
-0.769673
-0.775702
-0.781488
-0.787037
-0.79236
-0.797485
-0.337227
-0.349142
-0.361206
-0.373401
-0.385712
-0.398118
-0.410601
-0.423144
-0.435725
-0.448326
-0.460927
-0.473507
-0.486048
-0.49853
-0.510934
-0.523241
-0.535434
-0.547495
-0.559408
-0.571157
-0.582728
-0.594106
-0.605279
-0.616236
-0.626966
-0.637459
-0.647708
-0.657706
-0.667445
-0.676923
-0.686134
-0.695075
-0.703745
-0.712143
-0.720269
-0.728124
-0.735708
-0.743025
-0.750077
-0.756866
-0.763398
-0.769675
-0.775703
-0.781488
-0.787036
-0.792359
-0.797484
-0.325475
-0.337227
-0.349143
-0.361208
-0.373404
-0.385714
-0.39812
-0.410604
-0.423147
-0.435728
-0.448329
-0.46093
-0.473511
-0.486052
-0.498534
-0.510938
-0.523246
-0.535439
-0.5475
-0.559413
-0.571162
-0.582733
-0.594111
-0.605284
-0.616241
-0.626971
-0.637465
-0.647714
-0.657712
-0.667452
-0.676929
-0.68614
-0.695081
-0.703751
-0.712149
-0.720275
-0.72813
-0.735714
-0.743031
-0.750082
-0.75687
-0.763401
-0.769677
-0.775705
-0.781488
-0.787035
-0.792358
-0.797483
-0.313902
-0.325476
-0.337228
-0.349145
-0.36121
-0.373407
-0.385717
-0.398123
-0.410607
-0.42315
-0.435732
-0.448333
-0.460933
-0.473514
-0.486056
-0.498538
-0.510942
-0.52325
-0.535443
-0.547505
-0.559418
-0.571167
-0.582738
-0.594116
-0.60529
-0.616247
-0.626977
-0.637471
-0.647721
-0.657718
-0.667458
-0.676936
-0.686147
-0.695088
-0.703758
-0.712156
-0.720282
-0.728136
-0.73572
-0.743036
-0.750087
-0.756875
-0.763404
-0.76968
-0.775706
-0.781489
-0.787035
-0.792356
-0.797483
-0.30252
-0.313902
-0.325477
-0.33723
-0.349148
-0.361213
-0.373409
-0.38572
-0.398127
-0.410611
-0.423153
-0.435735
-0.448336
-0.460937
-0.473519
-0.48606
-0.498543
-0.510947
-0.523255
-0.535448
-0.54751
-0.559423
-0.571173
-0.582744
-0.594123
-0.605296
-0.616254
-0.626984
-0.637478
-0.647728
-0.657726
-0.667465
-0.676943
-0.686154
-0.695095
-0.703765
-0.712163
-0.720289
-0.728143
-0.735727
-0.743042
-0.750092
-0.756879
-0.763408
-0.769683
-0.775708
-0.781489
-0.787034
-0.792355
-0.797482
-0.291343
-0.30252
-0.313903
-0.325479
-0.337233
-0.34915
-0.361216
-0.373412
-0.385723
-0.39813
-0.410614
-0.423157
-0.435739
-0.44834
-0.460942
-0.473523
-0.486065
-0.498548
-0.510952
-0.52326
-0.535454
-0.547516
-0.559429
-0.571179
-0.58275
-0.594129
-0.605304
-0.616261
-0.626992
-0.637486
-0.647735
-0.657733
-0.667473
-0.676951
-0.686162
-0.695103
-0.703773
-0.712171
-0.720297
-0.72815
-0.735734
-0.743049
-0.750098
-0.756885
-0.763413
-0.769686
-0.77571
-0.78149
-0.787033
-0.792353
-0.797481
-0.280381
-0.291343
-0.302522
-0.313906
-0.325481
-0.337235
-0.349153
-0.361219
-0.373415
-0.385726
-0.398133
-0.410618
-0.423161
-0.435743
-0.448345
-0.460946
-0.473528
-0.48607
-0.498553
-0.510957
-0.523266
-0.53546
-0.547522
-0.559436
-0.571186
-0.582757
-0.594137
-0.605311
-0.616269
-0.627
-0.637494
-0.647744
-0.657742
-0.667482
-0.67696
-0.68617
-0.695112
-0.703782
-0.71218
-0.720305
-0.728158
-0.735741
-0.743055
-0.750104
-0.75689
-0.763418
-0.76969
-0.775712
-0.781491
-0.787032
-0.792352
-0.79748
-0.269647
-0.280382
-0.291345
-0.302524
-0.313908
-0.325484
-0.337238
-0.349156
-0.361222
-0.373419
-0.38573
-0.398137
-0.410622
-0.423165
-0.435748
-0.44835
-0.460951
-0.473533
-0.486075
-0.498558
-0.510964
-0.523272
-0.535466
-0.547529
-0.559443
-0.571193
-0.582765
-0.594145
-0.605319
-0.616277
-0.627008
-0.637503
-0.647753
-0.657751
-0.667491
-0.676969
-0.68618
-0.695121
-0.703791
-0.712189
-0.720314
-0.728167
-0.73575
-0.743063
-0.750111
-0.756897
-0.763423
-0.769694
-0.775715
-0.781491
-0.787032
-0.792352
-0.79748
-0.259148
-0.269647
-0.280383
-0.291347
-0.302526
-0.313911
-0.325487
-0.337242
-0.34916
-0.361226
-0.373422
-0.385734
-0.398141
-0.410626
-0.42317
-0.435753
-0.448355
-0.460956
-0.473538
-0.486081
-0.498564
-0.51097
-0.523279
-0.535473
-0.547536
-0.55945
-0.571201
-0.582773
-0.594153
-0.605328
-0.616287
-0.627017
-0.637512
-0.647762
-0.657761
-0.667501
-0.676979
-0.68619
-0.695131
-0.703801
-0.712199
-0.720324
-0.728177
-0.735758
-0.743072
-0.750119
-0.756903
-0.763428
-0.769698
-0.775717
-0.781492
-0.787032
-0.792351
-0.79748
-0.248893
-0.259149
-0.269649
-0.280385
-0.291349
-0.302529
-0.313914
-0.32549
-0.337245
-0.349163
-0.361229
-0.373427
-0.385738
-0.398146
-0.410631
-0.423175
-0.435758
-0.44836
-0.460962
-0.473545
-0.486087
-0.498571
-0.510977
-0.523286
-0.535481
-0.547544
-0.559459
-0.57121
-0.582782
-0.594162
-0.605338
-0.616296
-0.627028
-0.637523
-0.647773
-0.657772
-0.667512
-0.67699
-0.686201
-0.695143
-0.703813
-0.71221
-0.720334
-0.728187
-0.735768
-0.743081
-0.750127
-0.756911
-0.763434
-0.769703
-0.77572
-0.781494
-0.787032
-0.79235
-0.797479
-0.23889
-0.248894
-0.25915
-0.269651
-0.280388
-0.291352
-0.302532
-0.313917
-0.325494
-0.337249
-0.349168
-0.361234
-0.373431
-0.385743
-0.398151
-0.410636
-0.42318
-0.435763
-0.448366
-0.460968
-0.473551
-0.486094
-0.498579
-0.510984
-0.523294
-0.535489
-0.547553
-0.559468
-0.571219
-0.582792
-0.594172
-0.605348
-0.616307
-0.627039
-0.637534
-0.647785
-0.657784
-0.667524
-0.677002
-0.686213
-0.695155
-0.703825
-0.712222
-0.720346
-0.728198
-0.735779
-0.743091
-0.750137
-0.756919
-0.763441
-0.769708
-0.775724
-0.781496
-0.787032
-0.79235
-0.797479
-0.229143
-0.23889
-0.248896
-0.259152
-0.269654
-0.280391
-0.291355
-0.302536
-0.313921
-0.325498
-0.337253
-0.349172
-0.361238
-0.373436
-0.385748
-0.398156
-0.410642
-0.423186
-0.43577
-0.448373
-0.460976
-0.473559
-0.486102
-0.498586
-0.510993
-0.523303
-0.535499
-0.547562
-0.559478
-0.571229
-0.582802
-0.594183
-0.605359
-0.616319
-0.627051
-0.637546
-0.647798
-0.657796
-0.667537
-0.677016
-0.686227
-0.695168
-0.703838
-0.712235
-0.720359
-0.72821
-0.735791
-0.743102
-0.750147
-0.756928
-0.763448
-0.769714
-0.775728
-0.781498
-0.787033
-0.79235
-0.797479
-0.219659
-0.229144
-0.238892
-0.248898
-0.259155
-0.269657
-0.280394
-0.291359
-0.302539
-0.313925
-0.325502
-0.337257
-0.349176
-0.361243
-0.373441
-0.385753
-0.398162
-0.410648
-0.423192
-0.435776
-0.44838
-0.460983
-0.473567
-0.48611
-0.498595
-0.511002
-0.523312
-0.535508
-0.547573
-0.559488
-0.571241
-0.582814
-0.594196
-0.605372
-0.616331
-0.627064
-0.63756
-0.647811
-0.65781
-0.667552
-0.67703
-0.686241
-0.695182
-0.703852
-0.712249
-0.720373
-0.728224
-0.735803
-0.743114
-0.750158
-0.756937
-0.763456
-0.76972
-0.775732
-0.7815
-0.787034
-0.792351
-0.797479
-0.210441
-0.21966
-0.229146
-0.238894
-0.2489
-0.259158
-0.26966
-0.280398
-0.291363
-0.302543
-0.313929
-0.325506
-0.337262
-0.349181
-0.361248
-0.373446
-0.385759
-0.398168
-0.410655
-0.423199
-0.435784
-0.448388
-0.460991
-0.473575
-0.486119
-0.498604
-0.511011
-0.523322
-0.535519
-0.547584
-0.5595
-0.571253
-0.582827
-0.594208
-0.605385
-0.616345
-0.627078
-0.637575
-0.647826
-0.657825
-0.667567
-0.677045
-0.686257
-0.695198
-0.703868
-0.712264
-0.720388
-0.728238
-0.735817
-0.743127
-0.750169
-0.756948
-0.763466
-0.769727
-0.775737
-0.781503
-0.787036
-0.792352
-0.797479
-0.201492
-0.210442
-0.219661
-0.229148
-0.238897
-0.248903
-0.259161
-0.269664
-0.280402
-0.291367
-0.302548
-0.313933
-0.325511
-0.337267
-0.349186
-0.361254
-0.373453
-0.385765
-0.398175
-0.410662
-0.423207
-0.435792
-0.448396
-0.461
-0.473584
-0.486129
-0.498614
-0.511022
-0.523334
-0.535531
-0.547596
-0.559513
-0.571266
-0.582841
-0.594223
-0.6054
-0.61636
-0.627094
-0.637591
-0.647842
-0.657842
-0.667584
-0.677062
-0.686274
-0.695215
-0.703885
-0.712281
-0.720404
-0.728254
-0.735833
-0.743141
-0.750182
-0.756959
-0.763475
-0.769735
-0.775743
-0.781507
-0.787038
-0.792353
-0.79748
-0.192813
-0.201492
-0.210443
-0.219664
-0.22915
-0.2389
-0.248907
-0.259165
-0.269667
-0.280406
-0.291371
-0.302552
-0.313938
-0.325516
-0.337272
-0.349192
-0.36126
-0.373459
-0.385773
-0.398182
-0.410669
-0.423215
-0.4358
-0.448405
-0.461009
-0.473594
-0.486139
-0.498626
-0.511034
-0.523346
-0.535543
-0.547609
-0.559527
-0.571281
-0.582856
-0.594239
-0.605416
-0.616377
-0.627111
-0.637608
-0.64786
-0.65786
-0.667602
-0.677081
-0.686292
-0.695234
-0.703903
-0.7123
-0.720422
-0.728272
-0.735849
-0.743157
-0.750196
-0.756972
-0.763486
-0.769743
-0.775749
-0.781511
-0.78704
-0.792354
-0.797481
-0.184405
-0.192813
-0.201494
-0.210446
-0.219666
-0.229154
-0.238903
-0.24891
-0.259169
-0.269671
-0.28041
-0.291376
-0.302557
-0.313943
-0.325522
-0.337278
-0.349199
-0.361267
-0.373466
-0.38578
-0.39819
-0.410677
-0.423224
-0.43581
-0.448415
-0.46102
-0.473605
-0.486151
-0.498638
-0.511047
-0.523359
-0.535557
-0.547624
-0.559542
-0.571296
-0.582872
-0.594255
-0.605434
-0.616395
-0.627129
-0.637627
-0.647879
-0.65788
-0.667622
-0.677101
-0.686313
-0.695254
-0.703924
-0.712319
-0.720441
-0.72829
-0.735867
-0.743173
-0.750212
-0.756985
-0.763497
-0.769752
-0.775756
-0.781516
-0.787043
-0.792356
-0.797482
-0.176269
-0.184406
-0.192815
-0.201496
-0.210449
-0.21967
-0.229157
-0.238907
-0.248914
-0.259173
-0.269676
-0.280415
-0.291381
-0.302563
-0.313949
-0.325528
-0.337285
-0.349206
-0.361274
-0.373474
-0.385788
-0.398198
-0.410687
-0.423234
-0.43582
-0.448426
-0.461031
-0.473617
-0.486163
-0.498651
-0.511061
-0.523374
-0.535573
-0.54764
-0.559558
-0.571313
-0.58289
-0.594274
-0.605453
-0.616415
-0.627149
-0.637647
-0.6479
-0.657901
-0.667644
-0.677123
-0.686335
-0.695276
-0.703945
-0.712341
-0.720462
-0.72831
-0.735886
-0.743191
-0.750228
-0.757
-0.76351
-0.769763
-0.775764
-0.781521
-0.787047
-0.792359
-0.797483
-0.168404
-0.176271
-0.184408
-0.192817
-0.201499
-0.210452
-0.219673
-0.229161
-0.238911
-0.248919
-0.259178
-0.269681
-0.28042
-0.291386
-0.302568
-0.313956
-0.325534
-0.337292
-0.349213
-0.361282
-0.373482
-0.385797
-0.398208
-0.410697
-0.423244
-0.435831
-0.448437
-0.461043
-0.47363
-0.486177
-0.498665
-0.511076
-0.523389
-0.535589
-0.547657
-0.559576
-0.571332
-0.582909
-0.594294
-0.605473
-0.616436
-0.627171
-0.63767
-0.647923
-0.657925
-0.667668
-0.677147
-0.686359
-0.6953
-0.703969
-0.712364
-0.720485
-0.728333
-0.735907
-0.743211
-0.750246
-0.757016
-0.763524
-0.769774
-0.775772
-0.781528
-0.787052
-0.792362
-0.797484
-0.160809
-0.168406
-0.176273
-0.18441
-0.19282
-0.201502
-0.210455
-0.219677
-0.229165
-0.238915
-0.248923
-0.259182
-0.269686
-0.280426
-0.291392
-0.302575
-0.313962
-0.325542
-0.3373
-0.349221
-0.36129
-0.373491
-0.385807
-0.398218
-0.410708
-0.423255
-0.435843
-0.44845
-0.461057
-0.473644
-0.486192
-0.498681
-0.511092
-0.523407
-0.535607
-0.547675
-0.559595
-0.571352
-0.58293
-0.594316
-0.605496
-0.616459
-0.627195
-0.637694
-0.647948
-0.65795
-0.667693
-0.677173
-0.686385
-0.695326
-0.703995
-0.71239
-0.72051
-0.728357
-0.73593
-0.743233
-0.750266
-0.757034
-0.763539
-0.769787
-0.775782
-0.781535
-0.787057
-0.792366
-0.797485
-0.15348
-0.16081
-0.168408
-0.176275
-0.184413
-0.192824
-0.201506
-0.210459
-0.219681
-0.22917
-0.23892
-0.248928
-0.259188
-0.269692
-0.280432
-0.291398
-0.302582
-0.313969
-0.325549
-0.337308
-0.34923
-0.3613
-0.373501
-0.385817
-0.398229
-0.410719
-0.423268
-0.435856
-0.448464
-0.461072
-0.473659
-0.486208
-0.498698
-0.51111
-0.523426
-0.535626
-0.547696
-0.559617
-0.571374
-0.582953
-0.594339
-0.60552
-0.616484
-0.627221
-0.637721
-0.647976
-0.657978
-0.667721
-0.677201
-0.686413
-0.695355
-0.704023
-0.712417
-0.720537
-0.728383
-0.735955
-0.743256
-0.750288
-0.757053
-0.763556
-0.769801
-0.775793
-0.781543
-0.787063
-0.79237
-0.797487
-0.146415
-0.153481
-0.160812
-0.16841
-0.176278
-0.184417
-0.192827
-0.20151
-0.210463
-0.219686
-0.229174
-0.238925
-0.248934
-0.259194
-0.269698
-0.280438
-0.291405
-0.302589
-0.313977
-0.325558
-0.337317
-0.349239
-0.36131
-0.373512
-0.385828
-0.398241
-0.410732
-0.423282
-0.43587
-0.448479
-0.461087
-0.473677
-0.486226
-0.498717
-0.51113
-0.523446
-0.535648
-0.547718
-0.55964
-0.571399
-0.582978
-0.594365
-0.605547
-0.616512
-0.627249
-0.63775
-0.648005
-0.658008
-0.667752
-0.677232
-0.686444
-0.695385
-0.704054
-0.712448
-0.720567
-0.728411
-0.735982
-0.743282
-0.750311
-0.757074
-0.763575
-0.769816
-0.775806
-0.781553
-0.78707
-0.792375
-0.797489
-0.139611
-0.146416
-0.153483
-0.160814
-0.168413
-0.176281
-0.18442
-0.192831
-0.201514
-0.210468
-0.21969
-0.229179
-0.238931
-0.248939
-0.2592
-0.269704
-0.280445
-0.291413
-0.302597
-0.313986
-0.325567
-0.337326
-0.349249
-0.361321
-0.373524
-0.385841
-0.398254
-0.410746
-0.423296
-0.435886
-0.448495
-0.461105
-0.473695
-0.486245
-0.498737
-0.511151
-0.523468
-0.535671
-0.547743
-0.559666
-0.571425
-0.583005
-0.594393
-0.605576
-0.616541
-0.62728
-0.637781
-0.648037
-0.65804
-0.667785
-0.677265
-0.686478
-0.695419
-0.704087
-0.71248
-0.720599
-0.728442
-0.736012
-0.74331
-0.750337
-0.757098
-0.763595
-0.769833
-0.775819
-0.781563
-0.787078
-0.792381
-0.797491
-0.133063
-0.139612
-0.146418
-0.153485
-0.160817
-0.168416
-0.176284
-0.184424
-0.192836
-0.201518
-0.210472
-0.219695
-0.229185
-0.238936
-0.248946
-0.259206
-0.269712
-0.280453
-0.291421
-0.302606
-0.313995
-0.325577
-0.337337
-0.349261
-0.361333
-0.373536
-0.385854
-0.398269
-0.410761
-0.423313
-0.435903
-0.448514
-0.461124
-0.473715
-0.486266
-0.498759
-0.511174
-0.523493
-0.535697
-0.547769
-0.559693
-0.571453
-0.583035
-0.594424
-0.605607
-0.616574
-0.627313
-0.637815
-0.648072
-0.658076
-0.667821
-0.677302
-0.686514
-0.695456
-0.704123
-0.712516
-0.720634
-0.728476
-0.736044
-0.74334
-0.750365
-0.757123
-0.763616
-0.769852
-0.775835
-0.781576
-0.787088
-0.792387
-0.797494
-0.126767
-0.133064
-0.139614
-0.146421
-0.153488
-0.16082
-0.168419
-0.176288
-0.184428
-0.19284
-0.201523
-0.210478
-0.219701
-0.229191
-0.238943
-0.248952
-0.259214
-0.269719
-0.280461
-0.29143
-0.302615
-0.314005
-0.325587
-0.337348
-0.349273
-0.361346
-0.37355
-0.385869
-0.398284
-0.410778
-0.42333
-0.435922
-0.448533
-0.461145
-0.473737
-0.486289
-0.498783
-0.511199
-0.523519
-0.535724
-0.547798
-0.559723
-0.571485
-0.583067
-0.594457
-0.605642
-0.61661
-0.62735
-0.637853
-0.64811
-0.658115
-0.66786
-0.677341
-0.686554
-0.695495
-0.704162
-0.712555
-0.720672
-0.728513
-0.73608
-0.743373
-0.750396
-0.75715
-0.76364
-0.769872
-0.775852
-0.781589
-0.787098
-0.792394
-0.797496
-0.120718
-0.126768
-0.133066
-0.139616
-0.146424
-0.153492
-0.160824
-0.168424
-0.176293
-0.184433
-0.192845
-0.201529
-0.210484
-0.219707
-0.229197
-0.23895
-0.24896
-0.259222
-0.269728
-0.28047
-0.29144
-0.302626
-0.314016
-0.325599
-0.337361
-0.349286
-0.36136
-0.373565
-0.385885
-0.398301
-0.410796
-0.423349
-0.435942
-0.448554
-0.461167
-0.473761
-0.486314
-0.498809
-0.511227
-0.523548
-0.535754
-0.547829
-0.559756
-0.571519
-0.583102
-0.594493
-0.605679
-0.616648
-0.627389
-0.637893
-0.648152
-0.658157
-0.667903
-0.677384
-0.686597
-0.695538
-0.704205
-0.712597
-0.720713
-0.728553
-0.736118
-0.743409
-0.750428
-0.75718
-0.763667
-0.769895
-0.775871
-0.781605
-0.78711
-0.792402
-0.7975
-0.114911
-0.120719
-0.12677
-0.133069
-0.139619
-0.146427
-0.153496
-0.160828
-0.168428
-0.176298
-0.184438
-0.19285
-0.201535
-0.21049
-0.219714
-0.229204
-0.238957
-0.248968
-0.25923
-0.269737
-0.28048
-0.29145
-0.302637
-0.314028
-0.325612
-0.337374
-0.349301
-0.361375
-0.373582
-0.385903
-0.39832
-0.410815
-0.42337
-0.435964
-0.448577
-0.461192
-0.473786
-0.486342
-0.498838
-0.511257
-0.523579
-0.535787
-0.547863
-0.559791
-0.571555
-0.583141
-0.594533
-0.605721
-0.61669
-0.627433
-0.637938
-0.648196
-0.658203
-0.667949
-0.677431
-0.686644
-0.695585
-0.704252
-0.712643
-0.720758
-0.728596
-0.736159
-0.743448
-0.750465
-0.757213
-0.763696
-0.76992
-0.775892
-0.781622
-0.787123
-0.792411
-0.797503
-0.109339
-0.114912
-0.120721
-0.126772
-0.133072
-0.139623
-0.146431
-0.1535
-0.160833
-0.168433
-0.176303
-0.184443
-0.192856
-0.201541
-0.210496
-0.219721
-0.229212
-0.238965
-0.248976
-0.259239
-0.269747
-0.280491
-0.291462
-0.302649
-0.314041
-0.325626
-0.337389
-0.349317
-0.361392
-0.3736
-0.385922
-0.39834
-0.410837
-0.423393
-0.435988
-0.448603
-0.461219
-0.473815
-0.486371
-0.498869
-0.511289
-0.523613
-0.535823
-0.5479
-0.55983
-0.571595
-0.583182
-0.594577
-0.605765
-0.616736
-0.62748
-0.637986
-0.648245
-0.658253
-0.668
-0.677482
-0.686695
-0.695636
-0.704303
-0.712693
-0.720807
-0.728644
-0.736204
-0.74349
-0.750504
-0.757248
-0.763728
-0.769947
-0.775915
-0.781642
-0.787139
-0.792421
-0.797506
-0.103998
-0.10934
-0.114914
-0.120723
-0.126776
-0.133075
-0.139626
-0.146435
-0.153504
-0.160837
-0.168438
-0.176308
-0.184449
-0.192862
-0.201547
-0.210503
-0.219729
-0.22922
-0.238974
-0.248986
-0.25925
-0.269758
-0.280502
-0.291474
-0.302662
-0.314055
-0.325641
-0.337405
-0.349334
-0.361411
-0.373619
-0.385942
-0.398362
-0.410861
-0.423417
-0.436014
-0.448631
-0.461248
-0.473845
-0.486404
-0.498903
-0.511325
-0.52365
-0.535862
-0.547941
-0.559872
-0.571639
-0.583228
-0.594623
-0.605813
-0.616786
-0.627531
-0.638038
-0.648299
-0.658307
-0.668055
-0.677538
-0.686751
-0.695692
-0.704358
-0.712748
-0.72086
-0.728695
-0.736253
-0.743537
-0.750547
-0.757288
-0.763763
-0.769978
-0.775942
-0.781663
-0.787155
-0.792432
-0.797511
-0.0988806
-0.103999
-0.109342
-0.114916
-0.120726
-0.126779
-0.133078
-0.139631
-0.146439
-0.153509
-0.160842
-0.168443
-0.176314
-0.184455
-0.192869
-0.201555
-0.210511
-0.219737
-0.229229
-0.238984
-0.248996
-0.25926
-0.269769
-0.280515
-0.291487
-0.302676
-0.314071
-0.325658
-0.337423
-0.349353
-0.361431
-0.373641
-0.385965
-0.398387
-0.410886
-0.423445
-0.436043
-0.448661
-0.46128
-0.473879
-0.486439
-0.49894
-0.511364
-0.523691
-0.535904
-0.547985
-0.559918
-0.571687
-0.583277
-0.594674
-0.605866
-0.61684
-0.627586
-0.638095
-0.648357
-0.658366
-0.668115
-0.677598
-0.686812
-0.695753
-0.704418
-0.712807
-0.720918
-0.728751
-0.736307
-0.743587
-0.750594
-0.75733
-0.763801
-0.770012
-0.77597
-0.781687
-0.787173
-0.792444
-0.797515
-0.0939812
-0.0988817
-0.104001
-0.109345
-0.114919
-0.12073
-0.126782
-0.133083
-0.139635
-0.146444
-0.153514
-0.160848
-0.168449
-0.17632
-0.184462
-0.192876
-0.201562
-0.21052
-0.219746
-0.229238
-0.238994
-0.249007
-0.259272
-0.269782
-0.280528
-0.291502
-0.302692
-0.314088
-0.325676
-0.337443
-0.349373
-0.361453
-0.373664
-0.38599
-0.398413
-0.410914
-0.423474
-0.436074
-0.448694
-0.461314
-0.473915
-0.486477
-0.49898
-0.511406
-0.523735
-0.53595
-0.548033
-0.559968
-0.571739
-0.583331
-0.59473
-0.605923
-0.616899
-0.627647
-0.638157
-0.648421
-0.65843
-0.66818
-0.677663
-0.686878
-0.695818
-0.704483
-0.712871
-0.72098
-0.728811
-0.736365
-0.743642
-0.750645
-0.757377
-0.763843
-0.770049
-0.776002
-0.781713
-0.787194
-0.792458
-0.79752
-0.0892932
-0.0939824
-0.0988838
-0.104004
-0.109348
-0.114923
-0.120733
-0.126787
-0.133087
-0.13964
-0.146449
-0.153519
-0.160854
-0.168456
-0.176327
-0.184469
-0.192884
-0.201571
-0.210529
-0.219755
-0.229249