/*--------------------------------*- C++ -*----------------------------------*\
| =========                 |                                                 |
| \\      /  F ield         | OpenFOAM: The Open Source CFD Toolbox           |
|  \\    /   O peration     | Version:  v2012                                 |
|   \\  /    A nd           | Website:  www.openfoam.com                      |
|    \\/     M anipulation  |                                                 |
\*---------------------------------------------------------------------------*/
FoamFile
{
    version     2.0;
    format      ascii;
    class       volScalarField;
    location    "13600";
    object      Cy;
}
// * * * * * * * * * * * * * * * * * * * * * * * * * * * * * * * * * * * * * //

dimensions      [0 1 0 0 0 0 0];


internalField   nonuniform List<scalar> 
39402
(
5.01517e-06
5.0225e-06
1.50961e-05
5.0118e-06
1.51197e-05
2.53095e-05
5.00648e-06
1.50683e-05
2.53523e-05
3.57196e-05
5.00265e-06
1.50414e-05
2.52267e-05
3.57837e-05
4.63946e-05
5.00027e-06
1.50228e-05
2.51607e-05
3.55604e-05
4.64816e-05
5.74061e-05
4.9982e-06
1.50111e-05
2.51144e-05
3.54423e-05
4.61433e-05
5.75174e-05
6.88292e-05
4.99624e-06
1.50012e-05
2.50859e-05
3.53595e-05
4.59638e-05
5.70506e-05
6.89654e-05
8.07419e-05
4.99392e-06
1.4992e-05
2.50619e-05
3.5309e-05
4.58382e-05
5.68025e-05
6.83596e-05
8.09048e-05
9.32269e-05
4.99113e-06
1.49813e-05
2.50399e-05
3.52664e-05
4.57612e-05
5.6629e-05
6.80372e-05
8.01502e-05
9.34165e-05
0.000106371
4.98839e-06
1.49686e-05
2.50145e-05
3.52278e-05
4.5697e-05
5.65229e-05
6.78118e-05
7.97489e-05
9.25062e-05
0.000106588
0.000120266
4.98564e-06
1.49561e-05
2.49843e-05
3.51831e-05
4.56389e-05
5.64344e-05
6.76742e-05
7.94683e-05
9.20215e-05
0.000105514
0.000120511
0.000135008
4.98276e-06
1.49436e-05
2.49548e-05
3.51302e-05
4.5572e-05
5.63547e-05
6.75596e-05
7.92967e-05
9.16825e-05
0.000104942
0.000119266
0.00013528
0.000150701
4.97972e-06
1.49304e-05
2.49254e-05
3.50788e-05
4.54924e-05
5.62631e-05
6.74563e-05
7.91545e-05
9.14755e-05
0.000104542
0.000118604
0.000133858
0.000151001
0.000167452
4.97668e-06
1.49168e-05
2.4895e-05
3.50278e-05
4.54153e-05
5.61537e-05
6.73375e-05
7.90261e-05
9.13034e-05
0.000104298
0.000118139
0.000133102
0.000149395
0.00016778
0.000185381
4.97364e-06
1.49031e-05
2.48626e-05
3.49743e-05
4.53388e-05
5.60484e-05
6.71968e-05
7.88787e-05
9.11484e-05
0.000104094
0.000117856
0.000132571
0.000148541
0.000165984
0.000185736
0.000204612
4.97057e-06
1.48894e-05
2.48305e-05
3.49181e-05
4.52589e-05
5.59436e-05
6.70602e-05
7.87037e-05
9.09709e-05
0.000103912
0.00011762
0.000132246
0.00014794
0.000165029
0.000183743
0.000204993
0.000225279
4.96749e-06
1.48756e-05
2.47984e-05
3.48623e-05
4.51751e-05
5.58342e-05
6.69252e-05
7.85346e-05
9.07603e-05
0.000103702
0.000117407
0.000131976
0.000147572
0.000164356
0.000182684
0.000202797
0.000225684
0.000247525
4.96445e-06
1.48617e-05
2.47661e-05
3.48064e-05
4.50912e-05
5.57194e-05
6.67842e-05
7.83672e-05
9.05563e-05
0.000103453
0.000117164
0.000131733
0.000147265
0.000163943
0.000181935
0.00020163
0.00022328
0.000247955
0.000271508
4.96135e-06
1.48481e-05
2.47337e-05
3.47502e-05
4.50078e-05
5.56052e-05
6.66358e-05
7.8192e-05
9.03543e-05
0.000103213
0.000116876
0.000131454
0.00014699
0.000163598
0.000181474
0.000200802
0.000222002
0.000245337
0.00027196
0.000297394
4.95849e-06
1.48345e-05
2.47016e-05
3.46939e-05
4.49239e-05
5.5491e-05
6.64884e-05
7.80086e-05
9.01438e-05
0.000102975
0.000116597
0.000131124
0.000146674
0.000163288
0.00018109
0.000200291
0.000221092
0.000243944
0.000269121
0.000297865
0.000325363
4.95569e-06
1.48212e-05
2.46701e-05
3.46383e-05
4.48398e-05
5.53764e-05
6.63412e-05
7.78256e-05
8.99226e-05
0.000102727
0.000116322
0.000130806
0.000146301
0.000162934
0.000180743
0.000199866
0.000220529
0.000242948
0.000267611
0.000294803
0.000325853
0.000355612
4.95274e-06
1.48082e-05
2.46392e-05
3.45834e-05
4.47567e-05
5.52614e-05
6.61935e-05
7.76434e-05
8.97027e-05
0.000102467
0.000116034
0.00013049
0.000145941
0.000162515
0.000180348
0.000199481
0.000220059
0.00024233
0.000266526
0.00029317
0.000322561
0.000356116
0.000388351
4.95022e-06
1.47959e-05
2.4609e-05
3.45298e-05
4.46749e-05
5.51481e-05
6.60455e-05
7.74604e-05
8.94834e-05
0.000102207
0.000115733
0.000130161
0.000145583
0.000162109
0.000179881
0.000199042
0.000219633
0.000241813
0.00026585
0.000291993
0.000320804
0.000352592
0.000388866
0.000423811
4.9476e-06
1.47837e-05
2.45799e-05
3.44775e-05
4.45949e-05
5.50365e-05
6.58995e-05
7.72774e-05
8.92634e-05
0.000101949
0.000115432
0.000129816
0.00014521
0.000161708
0.000179429
0.000198525
0.000219149
0.000241345
0.000265284
0.000291257
0.000319531
0.000350708
0.000385108
0.000424332
0.000462237
4.94514e-06
1.47725e-05
2.45519e-05
3.4427e-05
4.4517e-05
5.49274e-05
6.57558e-05
7.70966e-05
8.90431e-05
0.000101691
0.000115133
0.000129473
0.00014482
0.00016129
0.000178982
0.000198024
0.000218578
0.000240813
0.00026477
0.000290638
0.00031873
0.000349334
0.000383092
0.000420337
0.00046276
0.000503901
4.94297e-06
1.47617e-05
2.45254e-05
3.43785e-05
4.44418e-05
5.48213e-05
6.56154e-05
7.69189e-05
8.88258e-05
0.000101431
0.000114834
0.000129131
0.000144432
0.000160852
0.000178516
0.000197527
0.000218026
0.000240185
0.000264187
0.000290075
0.000318056
0.000348467
0.000381615
0.000418187
0.000458529
0.00050442
0.000549092
4.94096e-06
1.47517e-05
2.45005e-05
3.43326e-05
4.43696e-05
5.47188e-05
6.5479e-05
7.67453e-05
8.86124e-05
0.000101176
0.000114534
0.000128789
0.000144046
0.000160417
0.000178028
0.000197012
0.000217479
0.000239579
0.000263501
0.000289438
0.000317442
0.000347732
0.000380676
0.000416601
0.000456242
0.000499952
0.000549601
0.000598128
4.93901e-06
1.47423e-05
2.44772e-05
3.42896e-05
4.43014e-05
5.46206e-05
6.53473e-05
7.65768e-05
8.84042e-05
0.000100925
0.000114238
0.000128446
0.000143658
0.000159983
0.000177543
0.00019647
0.000216909
0.000238977
0.000262836
0.00028869
0.000316747
0.000347064
0.000379881
0.000415589
0.000454544
0.000497525
0.000544898
0.00059862
0.000651351
4.93734e-06
1.4734e-05
2.44556e-05
3.42493e-05
4.42374e-05
5.45277e-05
6.52209e-05
7.64143e-05
8.82017e-05
0.00010068
0.000113948
0.000128109
0.000143271
0.000159549
0.00017706
0.000195933
0.000216313
0.000238352
0.000262177
0.000287965
0.000315933
0.000346308
0.000379152
0.000414726
0.000453451
0.000495711
0.00054233
0.000593688
0.000651823
0.000709137
4.93579e-06
1.47265e-05
2.44361e-05
3.42121e-05
4.41776e-05
5.44408e-05
6.51019e-05
7.62585e-05
8.80069e-05
0.000100443
0.000113665
0.000127778
0.00014289
0.000159115
0.000176577
0.000195399
0.000215721
0.000237697
0.000261493
0.000287245
0.000315144
0.000345425
0.000378332
0.000413936
0.00045252
0.000494534
0.000540394
0.000590973
0.000646661
0.000709577
0.00077189
4.93465e-06
1.47199e-05
2.44187e-05
3.41784e-05
4.41221e-05
5.43595e-05
6.49905e-05
7.61117e-05
8.78202e-05
0.000100214
0.000113391
0.000127456
0.000142516
0.000158689
0.000176094
0.000194864
0.000215132
0.000237047
0.000260777
0.000286498
0.00031436
0.000344567
0.000377375
0.000413048
0.000451663
0.000493529
0.000539132
0.000588913
0.0006438
0.000704196
0.000772291
0.000840051
4.93348e-06
1.47141e-05
2.44034e-05
3.41485e-05
4.40724e-05
5.42845e-05
6.48865e-05
7.59745e-05
8.76444e-05
9.99951e-05
0.000113127
0.000127143
0.000142153
0.00015827
0.000175619
0.00019433
0.000214543
0.0002364
0.000260065
0.000285716
0.000313546
0.000343716
0.000376446
0.000412013
0.000450701
0.000492601
0.000538045
0.000587556
0.000641609
0.000701183
0.000766696
0.000840404
0.000914099
4.93274e-06
1.47095e-05
2.43903e-05
3.41222e-05
4.40282e-05
5.4217e-05
6.47906e-05
7.58467e-05
8.74804e-05
9.97893e-05
0.000112875
0.000126843
0.0001418
0.000157863
0.000175154
0.000193805
0.000213955
0.000235755
0.000259359
0.000284942
0.000312697
0.000342832
0.000375522
0.000411007
0.000449584
0.000491562
0.000537042
0.000586387
0.000640156
0.00069886
0.000763534
0.000834605
0.000914395
0.000994556
4.93214e-06
1.4706e-05
2.43796e-05
3.40995e-05
4.39894e-05
5.41574e-05
6.47042e-05
7.57286e-05
8.73277e-05
9.95974e-05
0.000112638
0.000126556
0.000141462
0.000157469
0.000174702
0.000193291
0.000213378
0.000235111
0.000258653
0.000284171
0.000311854
0.00034191
0.000374564
0.000410007
0.000448498
0.000490358
0.00053592
0.000585303
0.000638898
0.000697303
0.000761069
0.000831289
0.000908404
0.00099478
0.00108199
4.93176e-06
1.47033e-05
2.43713e-05
3.40813e-05
4.39561e-05
5.4105e-05
6.46283e-05
7.5623e-05
8.7187e-05
9.94189e-05
0.000112417
0.000126287
0.000141139
0.000157091
0.000174266
0.000192793
0.000212813
0.000234478
0.00025795
0.000283402
0.000311017
0.000340996
0.000373567
0.000408971
0.000447416
0.000489186
0.000534625
0.000584094
0.000637727
0.000695951
0.000759406
0.000828682
0.000904931
0.00098861
0.00108214
0.00117701
4.93167e-06
1.47016e-05
2.43652e-05
3.40673e-05
4.39293e-05
5.40603e-05
6.45618e-05
7.55301e-05
8.70613e-05
9.92549e-05
0.000112213
0.000126036
0.000140837
0.000156732
0.000173847
0.000192311
0.000212265
0.00023386
0.000257259
0.000282636
0.000310181
0.000340087
0.000372576
0.000407892
0.000446297
0.000488018
0.000533362
0.000582701
0.000636424
0.000694687
0.000757952
0.000826904
0.000902178
0.000984983
0.0010758
0.00117707
0.0012803
4.93167e-06
1.47009e-05
2.43614e-05
3.4057e-05
4.39088e-05
5.40244e-05
6.45052e-05
7.5449e-05
8.69511e-05
9.91088e-05
0.000112025
0.000125804
0.000140556
0.000156394
0.000173448
0.000191849
0.000211736
0.000233261
0.000256585
0.000281885
0.000309349
0.000339182
0.000371593
0.000406822
0.000445133
0.000486812
0.000532103
0.000581342
0.000634929
0.000693286
0.000756591
0.000825343
0.000900276
0.000982077
0.00107201
0.00117058
0.00128026
0.00139258
4.93186e-06
1.47012e-05
2.43598e-05
3.40506e-05
4.38941e-05
5.39973e-05
6.44599e-05
7.53803e-05
8.68552e-05
9.89809e-05
0.000111857
0.000125592
0.000140296
0.000156082
0.000173075
0.00019141
0.00021123
0.000232682
0.000255931
0.000281152
0.000308535
0.000338281
0.000370613
0.000405759
0.000443979
0.000485557
0.000530804
0.000579987
0.000633469
0.000691683
0.000755085
0.000823877
0.000898606
0.000980048
0.00106895
0.00116664
0.00127363
0.00139242
0.00151464
4.93238e-06
1.47024e-05
2.43608e-05
3.40483e-05
4.38851e-05
5.3978e-05
6.44263e-05
7.53258e-05
8.67744e-05
9.88704e-05
0.000111712
0.000125404
0.000140059
0.000155794
0.000172731
0.000191001
0.00021075
0.00023213
0.000255303
0.000280443
0.00030774
0.000337399
0.000369639
0.000404703
0.000442833
0.000484314
0.000529455
0.000578589
0.000632011
0.000690114
0.000753365
0.00082226
0.000897025
0.000978254
0.00106678
0.00116341
0.00126952
0.00138568
0.00151436
0.00164735
4.93302e-06
1.47044e-05
2.43636e-05
3.40501e-05
4.38822e-05
5.39665e-05
6.44025e-05
7.52855e-05
8.67107e-05
9.87774e-05
0.000111587
0.00012524
0.000139849
0.000155532
0.000172414
0.000190623
0.000210303
0.000231607
0.000254702
0.00027976
0.000306971
0.00033654
0.000368688
0.000403652
0.000441693
0.00048308
0.000528117
0.000577138
0.000630508
0.000688548
0.000751683
0.00082042
0.000895289
0.000976558
0.00106486
0.00116111
0.00126613
0.00138141
0.00150752
0.00164694
0.00179164
4.93384e-06
1.47073e-05
2.43684e-05
3.40554e-05
4.38855e-05
5.39635e-05
6.4389e-05
7.52579e-05
8.66644e-05
9.87047e-05
0.000111482
0.0001251
0.000139668
0.000155301
0.000172125
0.000190276
0.00020989
0.000231121
0.000254134
0.00027911
0.000306233
0.00033571
0.00036776
0.000402626
0.000440563
0.000481854
0.00052679
0.000575702
0.000628952
0.000686935
0.000750001
0.000818614
0.000893322
0.000974698
0.00106304
0.00115905
0.00126368
0.00137785
0.00150308
0.00164
0.00179108
0.00194855
4.93487e-06
1.4711e-05
2.43752e-05
3.40641e-05
4.38939e-05
5.39689e-05
6.43865e-05
7.5243e-05
8.66334e-05
9.8653e-05
0.000111401
0.000124984
0.000139513
0.000155102
0.000171873
0.000189962
0.000209513
0.000230674
0.000253608
0.000278496
0.000305531
0.000334913
0.000366866
0.000401627
0.000439458
0.000480638
0.000525472
0.000574277
0.000627409
0.000685266
0.000748272
0.000816812
0.000891388
0.000972593
0.00106105
0.00115709
0.00126148
0.00137523
0.00149934
0.00163541
0.00178409
0.00194783
0.00211918
4.93592e-06
1.47153e-05
2.4384e-05
3.40762e-05
4.39075e-05
5.39814e-05
6.43948e-05
7.52417e-05
8.66178e-05
9.86193e-05
0.000111344
0.000124896
0.000139386
0.000154933
0.000171657
0.000189687
0.000209173
0.000230265
0.000253125
0.000277928
0.000304869
0.000334157
0.000366009
0.000400665
0.000438385
0.000479452
0.000524167
0.000572862
0.000625881
0.000683612
0.000746483
0.000814958
0.000889455
0.000970523
0.0010588
0.00115495
0.00125937
0.00137288
0.00149656
0.00163148
0.00177933
0.00194079
0.00211829
0.00230473
4.93708e-06
1.47204e-05
2.43943e-05
3.40916e-05
4.39262e-05
5.40009e-05
6.44123e-05
7.52538e-05
8.66185e-05
9.86039e-05
0.000111309
0.000124836
0.000139291
0.000154796
0.000171474
0.000189454
0.000208877
0.000229899
0.000252685
0.000277408
0.000304258
0.000333446
0.000365196
0.000399745
0.000437353
0.000478301
0.000522895
0.000571463
0.000624366
0.000681974
0.000744714
0.000813045
0.000887473
0.000968455
0.00105659
0.00115255
0.00125709
0.00137062
0.00149405
0.00162853
0.00177522
0.00193587
0.00211122
0.00230367
0.00250653
4.93849e-06
1.47259e-05
2.44059e-05
3.41098e-05
4.39499e-05
5.40275e-05
6.44391e-05
7.52776e-05
8.66359e-05
9.86082e-05
0.000111295
0.000124799
0.000139228
0.000154695
0.000171328
0.000189259
0.000208627
0.000229581
0.000252292
0.000276937
0.000303701
0.00033279
0.000364433
0.000398874
0.000436367
0.000477194
0.000521662
0.000570101
0.000622867
0.000680353
0.000742961
0.000811151
0.000885427
0.000966335
0.00105437
0.00115019
0.00125453
0.00136817
0.00149163
0.00162585
0.00177208
0.00193156
0.00210613
0.00229659
0.0025053
0.00272602
4.93992e-06
1.47319e-05
2.4419e-05
3.41306e-05
4.39775e-05
5.40608e-05
6.44748e-05
7.53127e-05
8.66672e-05
9.8632e-05
0.000111304
0.000124788
0.000139193
0.00015463
0.000171222
0.000189105
0.00020842
0.000229315
0.000251953
0.000276517
0.000303197
0.000332194
0.000363733
0.000398058
0.000435435
0.00047614
0.000520479
0.000568782
0.000621411
0.000678751
0.000741226
0.000809277
0.000883404
0.00096415
0.00105211
0.00114782
0.001252
0.00136545
0.00148901
0.00162325
0.00176921
0.00192823
0.00210163
0.00229132
0.00249821
0.00272458
0.00296474
4.94143e-06
1.47383e-05
2.44331e-05
3.41534e-05
4.40092e-05
5.40998e-05
6.45192e-05
7.53591e-05
8.67122e-05
9.86724e-05
0.000111336
0.000124803
0.000139186
0.000154597
0.000171157
0.000188995
0.000208258
0.000229097
0.000251672
0.000276157
0.00030275
0.000331659
0.000363098
0.000397311
0.000434564
0.000475146
0.000519352
0.000567518
0.000620002
0.000677195
0.000739516
0.000807426
0.000881403
0.00096199
0.00104978
0.0011454
0.00124947
0.00136276
0.00148611
0.00162045
0.00176643
0.00192517
0.00209808
0.00228662
0.00249276
0.00271751
0.0029631
0.00322438
4.94296e-06
1.47451e-05
2.44482e-05
3.41783e-05
4.4044e-05
5.41441e-05
6.45711e-05
7.54165e-05
8.6771e-05
9.87291e-05
0.000111387
0.000124845
0.000139209
0.000154596
0.000171128
0.000188931
0.000208147
0.000228929
0.000251444
0.000275861
0.000302371
0.000331185
0.000362529
0.000396637
0.00043377
0.000474218
0.000518293
0.000566318
0.000618655
0.000675692
0.000737857
0.000805601
0.000879426
0.000959853
0.00104747
0.00114292
0.0012469
0.00136005
0.00148323
0.00161737
0.00176344
0.00192219
0.00209482
0.00228285
0.00248784
0.00271189
0.00295605
0.00322254
0.0035068
4.9446e-06
1.4752e-05
2.4464e-05
3.42047e-05
4.40818e-05
5.41927e-05
6.46298e-05
7.54828e-05
8.68429e-05
9.8802e-05
0.000111457
0.000124909
0.000139263
0.00015463
0.000171136
0.000188909
0.000208087
0.000228818
0.000251272
0.000275625
0.000302061
0.000330787
0.00036203
0.000396035
0.000433056
0.000473376
0.000517309
0.000565192
0.000617377
0.000674258
0.000736255
0.000803832
0.000877482
0.000957746
0.00104519
0.00114046
0.00124424
0.0013573
0.00148036
0.00161431
0.00176016
0.001919
0.00209164
0.00227938
0.00248385
0.00270675
0.00295025
0.00321552
0.00350475
0.003814
4.94612e-06
1.47589e-05
2.44803e-05
3.42327e-05
4.41222e-05
5.42454e-05
6.46941e-05
7.55579e-05
8.69259e-05
9.88906e-05
0.000111547
0.000124995
0.000139342
0.000154698
0.000171182
0.000188927
0.000208072
0.000228764
0.000251163
0.000275451
0.000301819
0.000330466
0.000361614
0.000395512
0.000432423
0.000472621
0.000516416
0.000564149
0.000616183
0.000672901
0.00073473
0.00080213
0.0008756
0.000955677
0.00104295
0.00113804
0.00124163
0.00135448
0.00147743
0.00161124
0.00175691
0.00191551
0.00208823
0.00227597
0.00248015
0.00270252
0.00294488
0.00320954
0.00349775
0.00381173
0.00414814
4.94765e-06
1.47662e-05
2.44968e-05
3.42612e-05
4.41644e-05
5.43015e-05
6.47637e-05
7.56399e-05
8.70192e-05
9.89923e-05
0.000111654
0.000125103
0.000139446
0.000154795
0.000171267
0.000188989
0.000208104
0.000228761
0.000251117
0.000275347
0.000301645
0.000330218
0.000361283
0.000395078
0.000431873
0.000471955
0.000515621
0.000563205
0.000615078
0.000671634
0.000733292
0.000800511
0.000873791
0.000953677
0.00104075
0.00113565
0.00123905
0.0013517
0.00147443
0.00160812
0.00175364
0.00191204
0.00208453
0.00227235
0.00247651
0.00269857
0.0029404
0.00320394
0.0034916
0.00380478
0.00414567
0.00451161
4.94929e-06
1.47735e-05
2.45136e-05
3.42903e-05
4.42076e-05
5.43604e-05
6.48377e-05
7.57284e-05
8.71211e-05
9.91064e-05
0.000111777
0.000125232
0.000139576
0.000154921
0.000171385
0.000189094
0.000208184
0.000228809
0.000251129
0.000275313
0.000301548
0.000330047
0.000361033
0.000394739
0.000431426
0.000471384
0.000514924
0.00056237
0.000614085
0.000670469
0.000731952
0.000798986
0.000872075
0.000951757
0.00103863
0.00113331
0.00123652
0.00134896
0.00147147
0.00160493
0.00175032
0.00190857
0.00208084
0.00226841
0.00247264
0.00269468
0.00293619
0.00319919
0.00348575
0.00379842
0.00413875
0.00450894
0.00490699
4.95089e-06
1.47804e-05
2.45306e-05
3.43197e-05
4.42516e-05
5.44206e-05
6.49153e-05
7.58225e-05
8.7231e-05
9.92304e-05
0.000111914
0.000125379
0.000139729
0.000155075
0.000171534
0.000189235
0.000208313
0.000228911
0.000251197
0.000275342
0.000301529
0.000329961
0.000360867
0.000394489
0.000431081
0.000470922
0.000514331
0.000561643
0.000613209
0.000669425
0.000730723
0.000797573
0.000870463
0.00094994
0.00103659
0.00113106
0.00123404
0.00134627
0.00146856
0.00160179
0.00174694
0.00190505
0.00207715
0.0022645
0.00246848
0.00269057
0.00293205
0.00319471
0.00348072
0.00379234
0.0041322
0.00450203
0.00490411
0.00533706
4.9523e-06
1.47872e-05
2.45472e-05
3.43495e-05
4.42964e-05
5.44817e-05
6.49947e-05
7.59212e-05
8.73472e-05
9.9364e-05
0.000112063
0.000125542
0.000139903
0.000155256
0.000171716
0.000189414
0.000208482
0.000229067
0.000251325
0.000275434
0.000301579
0.000329961
0.000360796
0.000394333
0.000430835
0.000470575
0.00051386
0.000561031
0.000612454
0.000668511
0.00072963
0.000796282
0.000868973
0.000948239
0.00103467
0.00112891
0.00123165
0.00134365
0.00146571
0.00159871
0.00174361
0.00190146
0.0020734
0.00226057
0.00246432
0.00268615
0.00292767
0.00319029
0.00347596
0.003787
0.00412584
0.00449529
0.00489722
0.00533399
0.00580489
4.95366e-06
1.4794e-05
2.45632e-05
3.43787e-05
4.43416e-05
5.4544e-05
6.5075e-05
7.60216e-05
8.74692e-05
9.95051e-05
0.000112223
0.000125719
0.000140096
0.00015546
0.00017193
0.000189628
0.000208693
0.000229269
0.000251513
0.000275592
0.0003017
0.000330038
0.000360819
0.000394281
0.000430692
0.000470336
0.000513513
0.000560552
0.000611825
0.000667729
0.000728677
0.000795136
0.000867618
0.000946673
0.00103288
0.00112688
0.00122938
0.00134112
0.00146293
0.00159569
0.00174033
0.00189793
0.0020696
0.0022566
0.00246015
0.00268174
0.002923
0.00318564
0.00347124
0.00378194
0.00412022
0.00448867
0.00489027
0.0053271
0.00580162
0.00631377
4.95509e-06
1.48005e-05
2.45789e-05
3.44069e-05
4.43857e-05
5.46069e-05
6.51571e-05
7.61239e-05
8.75936e-05
9.9653e-05
0.000112392
0.000125909
0.000140304
0.000155686
0.000172168
0.000189877
0.000208944
0.000229517
0.000251752
0.000275817
0.000301894
0.000330192
0.000360927
0.000394332
0.000430663
0.000470212
0.000513286
0.00056021
0.000611342
0.000667085
0.000727871
0.000794149
0.000866426
0.000945255
0.00103123
0.001125
0.00122724
0.00133872
0.00146027
0.00159274
0.00173714
0.00189446
0.00206587
0.00225258
0.00245595
0.00267733
0.00291832
0.00318069
0.00346631
0.00377693
0.00411483
0.00448271
0.00488338
0.00531994
0.00579472
0.00631033
0.00686731
4.95634e-06
1.48066e-05
2.45943e-05
3.44345e-05
4.44284e-05
5.46682e-05
6.52399e-05
7.62277e-05
8.77197e-05
9.98035e-05
0.000112569
0.000126109
0.000140527
0.00015593
0.000172431
0.000190154
0.000209233
0.000229809
0.000252042
0.000276099
0.000302162
0.000330428
0.000361121
0.000394477
0.000430749
0.000470212
0.000513185
0.00056
0.000611009
0.000666602
0.000727218
0.000793321
0.000865403
0.000944013
0.00102975
0.00112327
0.00122526
0.00133647
0.00145773
0.00158993
0.00173403
0.00189108
0.0020622
0.00224862
0.00245169
0.00267287
0.00291364
0.00317574
0.00346107
0.00377168
0.00410949
0.00447701
0.00487708
0.00531277
0.00578735
0.00630341
0.00686372
0.00746945
4.95761e-06
1.48121e-05
2.46085e-05
3.44616e-05
4.44705e-05
5.47276e-05
6.53206e-05
7.63328e-05
8.78481e-05
9.99566e-05
0.000112749
0.000126318
0.000140761
0.000156189
0.000172714
0.000190459
0.000209554
0.000230144
0.000252381
0.000276437
0.000302492
0.000330744
0.000361404
0.000394717
0.000430938
0.000470338
0.000513221
0.000559928
0.000610822
0.000666284
0.000726739
0.000792661
0.000864557
0.000942961
0.00102847
0.00112173
0.00122346
0.0013344
0.00145537
0.00158727
0.00173107
0.00188781
0.00205863
0.00224475
0.00244752
0.00266838
0.00290893
0.00317078
0.00345583
0.00376615
0.00410394
0.00447133
0.00487103
0.00530613
0.00577988
0.00629581
0.00685675
0.00746568
0.00812441
4.95853e-06
1.48174e-05
2.46217e-05
3.44865e-05
4.45114e-05
5.47862e-05
6.5399e-05
7.64349e-05
8.79776e-05
0.000100112
0.000112932
0.00012653
0.000141006
0.000156462
0.000173016
0.000190787
0.000209906
0.000230515
0.000252768
0.000276829
0.000302885
0.000331129
0.000361776
0.000395055
0.000431231
0.000470579
0.000513394
0.000560007
0.000610786
0.000666127
0.000726443
0.000792194
0.000863897
0.000942102
0.00102739
0.0011204
0.00122186
0.00133252
0.0014532
0.0015848
0.00172828
0.0018847
0.00205519
0.00224099
0.00244343
0.00266397
0.00290418
0.0031658
0.0034506
0.00376061
0.0040981
0.00446544
0.004865
0.00529971
0.00577288
0.00628806
0.00684893
0.00745866
0.00812051
0.00883685
4.9597e-06
1.48225e-05
2.46342e-05
3.45098e-05
4.45494e-05
5.4843e-05
6.54758e-05
7.65343e-05
8.81039e-05
0.000100269
0.000113117
0.000126746
0.000141255
0.000156747
0.000173332
0.000191135
0.000210283
0.00023092
0.000253194
0.000277275
0.000303338
0.000331584
0.000362226
0.000395492
0.000431632
0.000470933
0.000513694
0.000560236
0.000610917
0.000666135
0.000726321
0.000791926
0.000863448
0.000941446
0.00102652
0.0011193
0.00122049
0.00133086
0.00145125
0.00158253
0.00172569
0.00188176
0.00205192
0.00223737
0.00243947
0.00265967
0.00289954
0.0031608
0.00344535
0.00375508
0.00409226
0.00445929
0.00485878
0.00529332
0.00576609
0.00628068
0.00684087
0.00745062
0.00811341
0.00883282
0.00961177
4.96037e-06
1.48268e-05
2.4646e-05
3.45318e-05
4.45846e-05
5.48961e-05
6.55509e-05
7.66321e-05
8.82265e-05
0.000100422
0.000113304
0.000126965
0.000141508
0.000157037
0.000173661
0.000191499
0.000210683
0.000231353
0.000253659
0.000277764
0.000303849
0.000332105
0.00036275
0.000396013
0.000432141
0.000471407
0.00051412
0.000560605
0.000611211
0.000666325
0.000726384
0.00079185
0.000863215
0.000941022
0.00102588
0.00111843
0.00121937
0.00132946
0.00144954
0.0015805
0.00172333
0.00187906
0.00204885
0.00223393
0.00243567
0.0026555
0.00289501
0.00315591
0.00344008
0.00374954
0.00408642
0.00445312
0.00485229
0.00528674
0.00575933
0.0062735
0.00683311
0.00744225
0.00810516
0.00882563
0.00960764
0.0104547
4.96125e-06
1.48307e-05
2.46564e-05
3.45525e-05
4.46182e-05
5.4945e-05
6.56206e-05
7.67269e-05
8.8347e-05
0.00010057
0.000113486
0.000127185
0.000141763
0.00015733
0.000173996
0.000191878
0.000211102
0.000231811
0.000254154
0.000278296
0.000304409
0.000332691
0.000363349
0.000396617
0.000432743
0.000471999
0.000514676
0.000561112
0.000611659
0.000666697
0.000726644
0.000791977
0.000863196
0.000940837
0.00102549
0.00111781
0.00121851
0.00132833
0.00144811
0.00157874
0.00172123
0.00187661
0.00204602
0.00223073
0.00243207
0.00265151
0.00289064
0.00315115
0.00343493
0.00374401
0.00408059
0.00444697
0.00484579
0.00527991
0.00575238
0.00626635
0.00682554
0.00743411
0.00809646
0.00881714
0.00960036
0.0104504
0.0113716
4.96193e-06
1.48343e-05
2.46656e-05
3.4571e-05
4.46497e-05
5.4992e-05
6.56855e-05
7.68157e-05
8.84645e-05
0.000100716
0.000113663
0.0001274
0.000142021
0.000157627
0.000174335
0.000192262
0.000211536
0.00023229
0.000254677
0.000278861
0.000305015
0.000333331
0.000364018
0.000397302
0.000433437
0.000472693
0.000515362
0.000561762
0.000612259
0.000667236
0.000727104
0.000792319
0.000863398
0.000940884
0.00102536
0.00111747
0.00121792
0.00132748
0.00144697
0.00157729
0.00171942
0.00187444
0.00204348
0.0022278
0.00242873
0.00264776
0.00288647
0.00314657
0.00342994
0.00373861
0.00407477
0.00444084
0.00483932
0.00527308
0.0057452
0.00625901
0.00681797
0.00742613
0.00808794
0.00880816
0.00959167
0.0104431
0.0113672
0.0123688
4.9626e-06
1.48374e-05
2.46739e-05
3.45872e-05
4.46778e-05
5.50357e-05
6.5747e-05
7.68979e-05
8.85741e-05
0.000100858
0.000113838
0.00012761
0.000142272
0.000157926
0.000174677
0.000192652
0.000211977
0.000232786
0.000255224
0.000279457
0.000305659
0.000334021
0.000364747
0.000398066
0.000434221
0.000473488
0.000516161
0.000562554
0.000613016
0.000667942
0.000727747
0.00079288
0.000863836
0.000941174
0.00102549
0.0011174
0.00121763
0.00132693
0.00144615
0.00157616
0.00171796
0.00187261
0.00204126
0.00222517
0.00242569
0.00264428
0.00288254
0.00314221
0.00342514
0.00373337
0.00406911
0.00443475
0.00483289
0.00526628
0.00573802
0.00625148
0.00681026
0.00741815
0.00807952
0.00879922
0.00958234
0.0104342
0.0113598
0.0123644
0.0134536
4.96293e-06
1.48399e-05
2.46812e-05
3.46019e-05
4.47026e-05
5.50752e-05
6.58051e-05
7.69763e-05
8.86759e-05
0.000100991
0.000114008
0.000127815
0.000142517
0.000158218
0.000175022
0.000193046
0.000212423
0.00023329
0.00025579
0.000280079
0.000306337
0.000334752
0.000365531
0.000398894
0.00043509
0.000474382
0.00051707
0.000563471
0.000613929
0.000668821
0.000728574
0.000793643
0.000864514
0.000941724
0.00102588
0.00111762
0.00121765
0.00132671
0.00144565
0.00157538
0.00171685
0.00187113
0.00203939
0.0022229
0.00242299
0.00264113
0.00287893
0.00313813
0.00342059
0.00372836
0.00406363
0.00442881
0.00482651
0.00525953
0.00573089
0.00624394
0.00680237
0.00741004
0.00807113
0.00879041
0.00957304
0.0104246
0.0113507
0.0123569
0.0134491
0.0146335
4.96317e-06
1.48418e-05
2.46872e-05
3.46149e-05
4.4725e-05
5.51099e-05
6.58572e-05
7.70501e-05
8.8773e-05
0.000101115
0.000114166
0.000128015
0.000142758
0.000158502
0.000175359
0.000193442
0.000212874
0.000233799
0.000256363
0.000280722
0.000307043
0.000335522
0.000366361
0.000399784
0.000436031
0.00047537
0.000518088
0.00056451
0.000614978
0.000669869
0.00072959
0.000794608
0.000865413
0.000942534
0.00102656
0.00111814
0.00121798
0.00132684
0.00144552
0.00157495
0.00171612
0.00187006
0.00203793
0.00222101
0.00242067
0.00263835
0.00287568
0.00313439
0.00341636
0.00372363
0.00405841
0.0044231
0.00482031
0.00525286
0.00572383
0.00623647
0.00679447
0.00740176
0.00806263
0.0087816
0.00956379
0.0104149
0.0113407
0.0123475
0.0134415
0.014629
0.0159169
4.96356e-06
1.48436e-05
2.46919e-05
3.46255e-05
4.47447e-05
5.51413e-05
6.59029e-05
7.71163e-05
8.88643e-05
0.000101233
0.000114314
0.000128203
0.000142991
0.000158781
0.000175687
0.00019383
0.000213327
0.000234313
0.000256943
0.000281374
0.000307772
0.000336322
0.000367233
0.000400724
0.000437039
0.000476436
0.000519208
0.000565666
0.000616161
0.000671068
0.000730792
0.000795779
0.000866533
0.000943589
0.00102752
0.00111897
0.00121864
0.0013273
0.00144576
0.00157492
0.00171577
0.00186939
0.0020369
0.00221957
0.00241877
0.002636
0.00287285
0.00313106
0.0034125
0.00371924
0.0040535
0.00441766
0.00481434
0.00524639
0.00571686
0.00622909
0.00678666
0.00739353
0.00805398
0.00877268
0.00955455
0.0104052
0.0113307
0.0123374
0.0134319
0.0146212
0.0159123
0.0173128
4.96373e-06
1.48447e-05
2.46956e-05
3.46339e-05
4.4761e-05
5.5169e-05
6.59448e-05
7.71751e-05
8.89466e-05
0.000101344
0.000114455
0.000128377
0.000143211
0.000159052
0.000176009
0.000194206
0.000213771
0.00023483
0.000257528
0.000282032
0.000308511
0.000337147
0.000368138
0.00040171
0.000438101
0.000477576
0.000520414
0.000566935
0.000617474
0.000672413
0.000732159
0.000797154
0.00086788
0.000944885
0.00102875
0.00112011
0.00121963
0.00132812
0.00144638
0.00157531
0.00171587
0.00186915
0.00203632
0.0022186
0.00241737
0.00263413
0.00287048
0.00312817
0.00340908
0.00371527
0.00404896
0.00441257
0.00480871
0.0052402
0.00571013
0.00622184
0.00677896
0.00738537
0.00804538
0.00876366
0.00954524
0.0103955
0.0113206
0.0123269
0.0134215
0.0146116
0.0159045
0.0173082
0.0188311
4.9638e-06
1.48455e-05
2.46987e-05
3.46409e-05
4.4774e-05
5.51918e-05
6.59816e-05
7.72284e-05
8.90193e-05
0.000101444
0.000114588
0.000128544
0.000143415
0.000159307
0.000176323
0.000194577
0.000214202
0.000235336
0.000258116
0.000282696
0.000309257
0.000337983
0.000369071
0.000402732
0.000439215
0.000478776
0.000521703
0.000568299
0.000618909
0.0006739
0.000733687
0.000798709
0.000869449
0.00094643
0.00103025
0.00112153
0.00122096
0.0013293
0.00144738
0.00157609
0.00171641
0.00186939
0.00203621
0.00221813
0.00241649
0.00263278
0.00286863
0.0031258
0.00340617
0.00371179
0.00404489
0.00440791
0.00480344
0.00523436
0.0057037
0.00621484
0.00677141
0.00737736
0.00803689
0.0087547
0.00953585
0.0103858
0.0113105
0.0123165
0.0134108
0.0146009
0.0158947
0.0173003
0.0188265
0.0204826
4.9638e-06
1.48458e-05
2.47006e-05
3.4646e-05
4.47845e-05
5.52103e-05
6.60123e-05
7.72755e-05
8.90859e-05
0.000101533
0.000114708
0.000128701
0.000143611
0.000159546
0.000176618
0.000194937
0.000214626
0.000235828
0.000258691
0.000283362
0.000310009
0.000338827
0.000370015