/*--------------------------------*- C++ -*----------------------------------*\
| =========                 |                                                 |
| \\      /  F ield         | OpenFOAM: The Open Source CFD Toolbox           |
|  \\    /   O peration     | Version:  v2012                                 |
|   \\  /    A nd           | Website:  www.openfoam.com                      |
|    \\/     M anipulation  |                                                 |
\*---------------------------------------------------------------------------*/
FoamFile
{
    version     2.0;
    format      ascii;
    class       volScalarField;
    location    "13600";
    object      Fs;
}
// * * * * * * * * * * * * * * * * * * * * * * * * * * * * * * * * * * * * * //

dimensions      [0 0 0 0 0 0 0];


internalField   nonuniform List<scalar> 
39402
(
0
0.00435962
0
2.719e-05
0.0893395
0
4.74834e-05
3.67249e-05
0.0828914
0
4.66218e-05
4.3741e-05
5.35543e-05
0.028084
0
4.46313e-05
4.72195e-05
4.18207e-05
8.16282e-05
0.00695309
0
4.80299e-05
4.43548e-05
5.00978e-05
3.9757e-05
0.00010508
0.00117563
4.38538e-15
4.98294e-05
4.88679e-05
4.59044e-05
5.38519e-05
3.69501e-05
0.000106916
0.000119256
9.40495e-10
4.91346e-05
4.95121e-05
5.06774e-05
4.86348e-05
5.92065e-05
3.44465e-05
9.33051e-05
8.33848e-06
1.93754e-06
4.8286e-05
4.83373e-05
5.0362e-05
5.23815e-05
5.33602e-05
6.66403e-05
3.52164e-05
7.04948e-05
3.73117e-07
0.000750334
4.40173e-05
4.69316e-05
4.84744e-05
5.19249e-05
5.42377e-05
5.98343e-05
7.60248e-05
4.2141e-05
4.74251e-05
1.03012e-08
0.0722216
4.27263e-05
4.47525e-05
4.64032e-05
4.95473e-05
5.37489e-05
5.63656e-05
6.66789e-05
8.52618e-05
5.66021e-05
2.78117e-05
1.56486e-10
0.693808
4.41575e-05
4.3835e-05
4.52238e-05
4.7028e-05
5.12151e-05
5.58042e-05
5.93203e-05
7.30066e-05
9.28638e-05
8.07978e-05
1.44314e-05
3.65563e-12
0.96818
4.64744e-05
4.5982e-05
4.42122e-05
4.55276e-05
4.83474e-05
5.31548e-05
5.80275e-05
6.29023e-05
7.95443e-05
9.69396e-05
0.000115636
7.1773e-06
1.74694e-13
0.995676
4.47371e-05
4.62449e-05
4.60672e-05
4.41978e-05
4.58388e-05
5.01606e-05
5.505e-05
6.0342e-05
6.67868e-05
8.66436e-05
9.56917e-05
0.000157191
3.1865e-06
6.93889e-15
0.999202
4.50601e-05
4.51022e-05
4.63154e-05
4.58114e-05
4.42833e-05
4.62092e-05
5.21116e-05
5.6931e-05
6.25562e-05
7.09229e-05
9.34629e-05
8.9258e-05
0.000181959
1.33731e-06
1.66533e-16
0.999856
4.73907e-05
4.53091e-05
4.5273e-05
4.6509e-05
4.59225e-05
4.45017e-05
4.67207e-05
5.30291e-05
5.85788e-05
6.45072e-05
7.52152e-05
0.000100081
7.85747e-05
0.000136758
4.45754e-07
0
0.999989
4.5751e-05
4.68354e-05
4.5405e-05
4.53694e-05
4.67328e-05
4.61375e-05
4.48924e-05
4.73876e-05
5.26554e-05
6.02825e-05
6.64818e-05
7.95391e-05
0.000106442
8.18804e-05
9.54971e-05
8.63998e-08
0
1
4.27215e-05
4.5624e-05
4.67348e-05
4.55284e-05
4.54559e-05
4.69182e-05
4.64037e-05
4.54164e-05
4.81178e-05
5.23839e-05
6.14459e-05
6.92151e-05
8.33564e-05
0.000109074
7.76408e-05
8.14135e-05
1.25138e-08
0
1
4.43481e-05
4.34053e-05
4.59194e-05
4.6883e-05
4.56586e-05
4.55148e-05
4.70168e-05
4.6675e-05
4.59848e-05
4.88493e-05
5.29626e-05
6.09753e-05
7.26098e-05
8.66246e-05
0.000107251
7.79793e-05
5.23285e-05
1.57411e-09
0
1
4.77599e-05
4.45629e-05
4.35997e-05
4.58213e-05
4.70597e-05
4.57459e-05
4.55432e-05
4.70393e-05
4.68415e-05
4.65863e-05
4.96261e-05
5.39881e-05
5.94461e-05
7.45815e-05
8.83541e-05
0.000109916
5.75487e-05
1.75863e-05
1.65568e-10
0
1
4.60286e-05
4.63982e-05
4.45423e-05
4.35416e-05
4.56284e-05
4.71865e-05
4.57927e-05
4.55844e-05
4.69273e-05
4.68881e-05
4.72661e-05
5.04115e-05
5.47548e-05
5.84392e-05
7.44244e-05
8.83702e-05
9.94407e-05
4.67363e-05
2.48164e-06
1.59209e-11
0
1
4.36272e-05
4.60664e-05
4.6206e-05
4.45255e-05
4.35303e-05
4.56392e-05
4.72213e-05
4.58451e-05
4.55867e-05
4.66749e-05
4.68534e-05
4.79909e-05
5.1184e-05
5.52709e-05
5.84557e-05
7.37353e-05
8.73706e-05
7.45117e-05
3.36898e-05
2.09774e-07
2.35867e-12
0
1
4.39869e-05
4.40679e-05
4.61179e-05
4.66319e-05
4.45225e-05
4.35401e-05
4.55763e-05
4.71549e-05
4.58614e-05
4.55344e-05
4.63094e-05
4.67082e-05
4.87307e-05
5.18951e-05
5.55604e-05
5.84602e-05
7.31642e-05
8.40014e-05
4.78668e-05
1.74658e-05
1.02667e-08
5.63771e-13
0
1
4.69746e-05
4.43397e-05
4.41417e-05
4.57269e-05
4.68742e-05
4.44683e-05
4.35816e-05
4.5549e-05
4.6988e-05
4.5877e-05
4.54902e-05
4.58844e-05
4.65116e-05
4.94104e-05
5.24678e-05
5.52765e-05
5.72173e-05
7.14788e-05
7.37949e-05
3.71579e-05
5.95382e-06
3.60181e-10
1.84686e-13
0
1
4.71941e-05
4.61617e-05
4.44348e-05
4.40333e-05
4.56667e-05
4.68943e-05
4.43417e-05
4.36352e-05
4.54786e-05
4.67035e-05
4.58811e-05
4.5396e-05
4.53783e-05
4.64021e-05
4.99127e-05
5.28232e-05
5.46365e-05
5.51659e-05
6.715e-05
5.62589e-05
2.52319e-05
1.13971e-06
1.84492e-11
4.2244e-14
4.66294e-15
1
4.4107e-05
4.65427e-05
4.5681e-05
4.44543e-05
4.39052e-05
4.59214e-05
4.68862e-05
4.42298e-05
4.36579e-05
4.52875e-05
4.62791e-05
4.57992e-05
4.5197e-05
4.45912e-05
4.63359e-05
5.04018e-05
5.29069e-05
5.37317e-05
5.30042e-05
6.30503e-05
4.18548e-05
1.44977e-05
8.24291e-08
2.94798e-12
7.10543e-15
3.88749e-11
1
4.32147e-05
4.5691e-05
4.67812e-05
4.59326e-05
4.44792e-05
4.37493e-05
4.60018e-05
4.67915e-05
4.41825e-05
4.3731e-05
4.50405e-05
4.57589e-05
4.57054e-05
4.50011e-05
4.36315e-05
4.62177e-05
5.08789e-05
5.25152e-05
5.20696e-05
4.99697e-05
5.36261e-05
3.04041e-05
6.85361e-06
1.70257e-09
3.06105e-12
9.4369e-16
1.89639e-07
1
4.46251e-05
4.38201e-05
4.59091e-05
4.68269e-05
4.62332e-05
4.44656e-05
4.35561e-05
4.60195e-05
4.6608e-05
4.41358e-05
4.38794e-05
4.47458e-05
4.51723e-05
4.55968e-05
4.48044e-05
4.26478e-05
4.57822e-05
5.1392e-05
5.18278e-05
4.98153e-05
4.57144e-05
4.07839e-05
1.80868e-05
2.22203e-06
8.95872e-12
1.50406e-11
5.55112e-17
0.0723323
1
4.80614e-05
4.48119e-05
4.39895e-05
4.51288e-05
4.65594e-05
4.63213e-05
4.44558e-05
4.33758e-05
4.59424e-05
4.63158e-05
4.40931e-05
4.40538e-05
4.43817e-05
4.45104e-05
4.54223e-05
4.45359e-05
4.17428e-05
4.4678e-05
5.14605e-05
5.10134e-05
4.70455e-05
4.04414e-05
3.0359e-05
9.37956e-06
2.94901e-07
4.80727e-14
2.02897e-10
0
0.99993
1
4.7326e-05
4.65053e-05
4.48305e-05
4.3911e-05
4.47894e-05
4.65322e-05
4.62525e-05
4.4473e-05
4.32435e-05
4.57996e-05
4.58992e-05
4.40562e-05
4.42512e-05
4.39591e-05
4.38098e-05
4.51819e-05
4.42087e-05
4.09923e-05
4.34034e-05
5.00325e-05
4.89207e-05
4.31624e-05
3.37912e-05
2.01852e-05
4.49242e-06
1.09493e-08
2.77556e-15
1.8105e-09
0
0.999999
1
4.40299e-05
4.66046e-05
4.63066e-05
4.48163e-05
4.38118e-05
4.47596e-05
4.66659e-05
4.6063e-05
4.45132e-05
4.31646e-05
4.55934e-05
4.5409e-05
4.4004e-05
4.44403e-05
4.34858e-05
4.30784e-05
4.48542e-05
4.37905e-05
4.02335e-05
4.23843e-05
4.80183e-05
4.54685e-05
3.8021e-05
2.61587e-05
1.14042e-05
1.64751e-06
4.8764e-11
1.97065e-14
2.08873e-09
0
0.999995
1
4.26797e-05
4.52115e-05
4.61057e-05
4.64142e-05
4.48128e-05
4.37357e-05
4.46781e-05
4.64911e-05
4.58058e-05
4.456e-05
4.32025e-05
4.53467e-05
4.48919e-05
4.39292e-05
4.46045e-05
4.29762e-05
4.2333e-05
4.44139e-05
4.32669e-05
3.941e-05
4.11933e-05
4.58989e-05
4.14419e-05
3.18761e-05
1.82195e-05
5.65492e-06
2.88617e-07
9.76441e-14
2.65944e-11
1.44852e-11
0
0.999995
1
4.21106e-05
4.32248e-05
4.52552e-05
4.62976e-05
4.7622e-05
4.47861e-05
4.36877e-05
4.46344e-05
4.61913e-05
4.55124e-05
4.46236e-05
4.32926e-05
4.50662e-05
4.43359e-05
4.38106e-05
4.47116e-05
4.24086e-05
4.15744e-05
4.38314e-05
4.26127e-05
3.85253e-05
3.96405e-05
4.29033e-05
3.6509e-05
2.50319e-05
1.11175e-05
2.48054e-06
1.09549e-08
5.55112e-16
3.32408e-07
8.37108e-14
1.11022e-16
1
1
4.37296e-05
4.26936e-05
4.33213e-05
4.49756e-05
4.70425e-05
4.77428e-05
4.47385e-05
4.36808e-05
4.45684e-05
4.58281e-05
4.51824e-05
4.46996e-05
4.33705e-05
4.47511e-05
4.37529e-05
4.36351e-05
4.4714e-05
4.1819e-05
4.08099e-05
4.3073e-05
4.17994e-05
3.75425e-05
3.76945e-05
3.89674e-05
3.06403e-05
1.79922e-05
5.71662e-06
8.66183e-07
5.22045e-11
7.21645e-16
0.000211557
8.38218e-15
2.9976e-15
1
1
4.61276e-05
4.4032e-05
4.28008e-05
4.32331e-05
4.48325e-05
4.70452e-05
4.72537e-05
4.47081e-05
4.37725e-05
4.44704e-05
4.53556e-05
4.48181e-05
4.47805e-05
4.34129e-05
4.43975e-05
4.31461e-05
4.33761e-05
4.45805e-05
4.12566e-05
4.00328e-05
4.2115e-05
4.07912e-05
3.64249e-05
3.53275e-05
3.41675e-05
2.41459e-05
1.15205e-05
2.6263e-06
1.16685e-07
4.56857e-14
2.3575e-12
7.31938e-05
7.77156e-16
6.17228e-13
1
0.999928
4.72113e-05
4.55862e-05
4.40685e-05
4.26929e-05
4.31683e-05
4.46679e-05
4.68856e-05
4.71258e-05
4.47196e-05
4.39008e-05
4.43266e-05
4.48076e-05
4.44232e-05
4.48529e-05
4.34218e-05
4.40335e-05
4.25216e-05
4.30148e-05
4.42888e-05
4.06713e-05
3.92309e-05
4.0938e-05
3.95567e-05
3.50779e-05
3.24742e-05
2.86066e-05
1.75021e-05
6.35024e-06
1.07298e-06
3.37821e-09
1.66533e-16
3.88791e-08
1.11396e-05
1.11022e-16
1.16803e-09
1
0.835557
4.57143e-05
4.6978e-05
4.54256e-05
4.40196e-05
4.26275e-05
4.30642e-05
4.45349e-05
4.68206e-05
4.68528e-05
4.47279e-05
4.40462e-05
4.41554e-05
4.42045e-05
4.40009e-05
4.4901e-05
4.34171e-05
4.35997e-05
4.18835e-05
4.25309e-05
4.38219e-05
4.00571e-05
3.83872e-05
3.9517e-05
3.8021e-05
3.34271e-05
2.91376e-05
2.25792e-05
1.13721e-05
3.0231e-06
3.12169e-07
9.5422e-12
3.27516e-15
0.000310049
5.49847e-06
1.66533e-16
7.70174e-07
1
0.0594629
4.36329e-05
4.55721e-05
4.69319e-05
4.56717e-05
4.40276e-05
4.2572e-05
4.29337e-05
4.44332e-05
4.6311e-05
4.64928e-05
4.47424e-05
4.4219e-05
4.39627e-05
4.35634e-05
4.35545e-05
4.49085e-05
4.33515e-05
4.31884e-05
4.12315e-05
4.18996e-05
4.31553e-05
3.94097e-05
3.74797e-05
3.78497e-05
3.61313e-05
3.13335e-05
2.53248e-05
1.65318e-05
6.42121e-06
1.26783e-06
2.29762e-08
4.4964e-15
2.98114e-11
0.000933109
2.13166e-07
2.22045e-16
0.000486238
1
0.00549074
4.31733e-05
4.39652e-05
4.63026e-05
4.69559e-05
4.58443e-05
4.40339e-05
4.25305e-05
4.28065e-05
4.43376e-05
4.58801e-05
4.61771e-05
4.47628e-05
4.4404e-05
4.37473e-05
4.29121e-05
4.30893e-05
4.48511e-05
4.31991e-05
4.28258e-05
4.05688e-05
4.11003e-05
4.22726e-05
3.87099e-05
3.64821e-05
3.59064e-05
3.3815e-05
2.86817e-05
2.10208e-05
1.09987e-05
3.09245e-06
4.57032e-07
3.39378e-10
5.55112e-17
6.79109e-08
0.000124362
1.27531e-09
2.22045e-16
0.00946162
1
0.00120842
4.52006e-05
4.34604e-05
4.40257e-05
4.66461e-05
4.6951e-05
4.58155e-05
4.40336e-05
4.24897e-05
4.275e-05
4.42146e-05
4.55287e-05
4.58385e-05
4.47723e-05
4.45914e-05
4.35123e-05
4.22671e-05
4.26063e-05
4.47055e-05
4.29518e-05
4.24257e-05
3.9897e-05
4.01296e-05
4.11548e-05
3.79248e-05
3.53679e-05
3.37011e-05
3.10179e-05
2.54059e-05
1.63857e-05
6.4922e-06
1.30431e-06
6.83931e-08
5.42122e-13
5.15143e-14
0.000148334
0.000224032
2.57187e-11
1.7597e-14
0.218018
1
0.000485789
4.9363e-05
4.51002e-05
4.34403e-05
4.39378e-05
4.62767e-05
4.69012e-05
4.5742e-05
4.40308e-05
4.25127e-05
4.27022e-05
4.40503e-05
4.51133e-05
4.54733e-05
4.4767e-05
4.4763e-05
4.32531e-05
4.16352e-05
4.21065e-05
4.44444e-05
4.26212e-05
4.20404e-05
3.92169e-05
3.89887e-05
3.97945e-05
3.70295e-05
3.40934e-05
3.12294e-05
2.76669e-05
2.14129e-05
1.16855e-05
3.3232e-06
5.12967e-07
2.41515e-09
7.21645e-16
2.63307e-09
0.00202878
4.89433e-05
6.00797e-13
6.95399e-12
0.988517
1
0.000257113
5.15194e-05
4.8398e-05
4.49518e-05
4.33124e-05
4.38246e-05
4.5539e-05
4.67507e-05
4.56375e-05
4.40569e-05
4.25505e-05
4.26528e-05
4.38673e-05
4.464e-05
4.50784e-05
4.47397e-05
4.49183e-05
4.29919e-05
4.10625e-05
4.15887e-05
4.40454e-05
4.21755e-05
4.16538e-05
3.85243e-05
3.76868e-05
3.81839e-05
3.59288e-05
3.25884e-05
2.84883e-05
2.37862e-05
1.68132e-05
7.41084e-06
1.49389e-06
1.20184e-07
1.29892e-11
1.55431e-15
1.26747e-06
0.000157504
5.93007e-06
1.49325e-14
4.52058e-09
0.999846
1
0.000158926
4.80946e-05
5.03344e-05
4.80497e-05
4.49029e-05
4.32336e-05
4.36596e-05
4.46483e-05
4.66202e-05
4.55402e-05
4.40845e-05
4.26017e-05
4.26347e-05
4.36569e-05
4.41366e-05
4.46493e-05
4.4679e-05
4.50399e-05
4.2689e-05
4.05607e-05
4.10581e-05
4.3494e-05
4.16123e-05
4.12578e-05
3.78098e-05
3.6235e-05
3.63313e-05
3.456e-05
3.0807e-05
2.54461e-05
1.94809e-05
1.19605e-05
4.02337e-06
6.18968e-07
8.61186e-09
1.53211e-14
2.90634e-11
0.000335204
0.000164315
2.72807e-06
1.16573e-15
8.1268e-06
1
0.99999
0.000107702
4.18048e-05
4.76399e-05
4.99756e-05
4.80346e-05
4.48926e-05
4.31398e-05
4.34718e-05
4.43977e-05
4.65137e-05
4.54638e-05
4.41222e-05
4.26967e-05
4.2626e-05
4.34269e-05
4.36224e-05
4.41911e-05
4.457e-05
4.50923e-05
4.23991e-05
4.01156e-05
4.05114e-05
4.27908e-05
4.0932e-05
4.08316e-05
3.70669e-05
3.4661e-05
3.42595e-05
3.28369e-05
2.86598e-05
2.21035e-05
1.49472e-05
7.48044e-06
1.88398e-06
1.79484e-07
1.08291e-10
1.11022e-15
3.12349e-07
0.000912046
0.000110613
3.7962e-07
1.38778e-15
7.53397e-05
1
0.978534
7.83723e-05
3.68378e-05
4.27313e-05
4.75122e-05
5.00075e-05
4.81055e-05
4.49058e-05
4.30253e-05
4.32842e-05
4.44448e-05
4.64674e-05
4.54029e-05
4.41804e-05
4.28118e-05
4.26325e-05
4.31902e-05
4.31071e-05
4.37107e-05
4.43973e-05
4.50479e-05
4.21485e-05
3.97431e-05
3.99476e-05
4.19375e-05
4.01318e-05
4.03425e-05
3.62852e-05
3.29748e-05
3.19706e-05
3.06803e-05
2.60357e-05
1.84463e-05
1.05178e-05
3.96664e-06
7.73647e-07
1.99477e-08
2.67841e-13
9.43967e-13
3.17594e-05
0.000261496
5.4626e-05
1.74805e-09
1.26399e-13
0.00160765
1
0.083608
6.28688e-05
3.69436e-05
3.84584e-05
4.31123e-05
4.75152e-05
5.00349e-05
4.82805e-05
4.49132e-05
4.28815e-05
4.30982e-05
4.43087e-05
4.65024e-05
4.53394e-05
4.42445e-05
4.29472e-05
4.26522e-05
4.29583e-05
4.26024e-05
4.32048e-05
4.41429e-05
4.49024e-05
4.18765e-05
3.94503e-05
3.93685e-05
4.0932e-05
3.92012e-05
3.97659e-05
3.54335e-05
3.12018e-05
2.94874e-05
2.80263e-05
2.28632e-05
1.45576e-05
6.63383e-06
1.81059e-06
2.36541e-07
4.37679e-10
3.9968e-15
2.50297e-08
0.000207964
0.000323362
1.89083e-05
6.7954e-12
3.3626e-11
0.153262
1
0.00312856
5.4765e-05
4.08854e-05
3.84533e-05
3.89789e-05
4.31408e-05
4.74785e-05
5.01133e-05
4.84786e-05
4.49019e-05
4.27372e-05
4.29025e-05
4.41735e-05
4.63797e-05
4.52603e-05
4.43086e-05
4.30843e-05
4.26832e-05
4.27498e-05
4.21151e-05
4.26758e-05
4.37957e-05
4.46572e-05
4.16291e-05
3.92371e-05
3.87815e-05
3.97916e-05
3.81267e-05
3.90118e-05
3.44892e-05
2.93555e-05
2.68348e-05
2.48302e-05
1.91158e-05
1.06072e-05
3.66602e-06
7.27044e-07
2.93787e-08
2.36083e-12
2.17548e-13
1.02255e-05
0.000258284
0.000179849
2.51129e-05
1.87628e-13
1.18433e-08
0.986626
1
0.000564234
5.05789e-05
5.12103e-05
4.16763e-05
3.88948e-05
3.88939e-05
4.30468e-05
4.74484e-05
5.02135e-05
4.86457e-05
4.4873e-05
4.25728e-05
4.27082e-05
4.40309e-05
4.60614e-05
4.51588e-05
4.43607e-05
4.32146e-05
4.26808e-05
4.25832e-05
4.16559e-05
4.21239e-05
4.33492e-05
4.42979e-05
4.14032e-05
3.90933e-05
3.81855e-05
3.85287e-05
3.68946e-05
3.80306e-05
3.34156e-05
2.74253e-05
2.40328e-05
2.11388e-05
1.49109e-05
6.93852e-06
1.79506e-06
2.31849e-07
8.56251e-10
2.33702e-14
6.04006e-09
6.45381e-05
0.000250387
0.000142165
1.167e-05
2.27596e-14
1.24004e-05
1
0.999994
0.00019559
4.79184e-05
6.26534e-05
4.96793e-05
4.18839e-05
3.87736e-05
3.87995e-05
4.28693e-05
4.74248e-05
5.03349e-05
4.87465e-05
4.48055e-05
4.23932e-05
4.25315e-05
4.38901e-05
4.57361e-05
4.50284e-05
4.43875e-05
4.33245e-05
4.27134e-05
4.2438e-05
4.12252e-05
4.15499e-05
4.27963e-05
4.38025e-05
4.11793e-05
3.89873e-05
3.75727e-05
3.71967e-05
3.54814e-05
3.67304e-05
3.21544e-05
2.5392e-05
2.10982e-05
1.70683e-05
1.05617e-05
3.95247e-06
7.98774e-07
3.43471e-08
9.59416e-12
1.32727e-13
5.37191e-06
0.000136588
0.000322303
4.42495e-05
1.14943e-07
1.7697e-13
0.000139034
1
0.953729
9.82476e-05
4.66216e-05
6.7976e-05
5.86205e-05
4.90536e-05
4.17963e-05
3.86755e-05
3.86453e-05
4.26748e-05
4.74206e-05
5.0434e-05
4.88056e-05
4.46892e-05
4.22179e-05
4.23634e-05
4.3771e-05
4.54344e-05
4.48608e-05
4.43817e-05
4.34039e-05
4.27965e-05
4.23345e-05
4.08261e-05
4.09589e-05
4.21324e-05
4.31702e-05
4.09233e-05
3.8887e-05
3.69282e-05
3.57974e-05
3.38634e-05
3.50846e-05
3.06186e-05
2.32155e-05
1.80191e-05
1.28775e-05
6.62193e-06
1.96965e-06
2.86034e-07
1.33514e-09
9.9698e-14
1.32327e-09
3.82861e-05
0.000116768
0.000186714
1.90304e-05
2.40044e-10
2.69493e-11
0.00528581
1
0.0283758
6.58735e-05
4.59815e-05
6.01175e-05
6.25885e-05
5.73163e-05
4.89704e-05
4.17272e-05
3.85189e-05
3.84748e-05
4.2515e-05
4.74542e-05
5.04788e-05
4.88262e-05
4.45323e-05
4.2044e-05
4.22144e-05
4.36538e-05
4.51094e-05
4.46525e-05
4.4324e-05
4.34425e-05
4.28529e-05
4.23258e-05
4.04673e-05
4.03625e-05
4.13688e-05
4.24028e-05
4.05994e-05
3.87597e-05
3.62552e-05
3.43794e-05
3.20311e-05
3.30555e-05
2.87012e-05
2.08249e-05
1.48134e-05
8.90706e-06
3.58638e-06
8.66237e-07
4.78307e-08
3.13351e-11
2.0528e-13
2.2303e-06
5.10827e-05
0.00016066
0.000215675
3.50639e-05
5.95968e-12
1.36675e-08
0.933886
1
0.00090098
5.41091e-05
4.56379e-05
4.7736e-05
5.67532e-05
6.0867e-05
5.73583e-05
4.90155e-05
4.16223e-05
3.83447e-05
3.83367e-05
4.24183e-05
4.75346e-05
5.0481e-05
4.88128e-05
4.43543e-05
4.18853e-05
4.20812e-05
4.35332e-05
4.47634e-05
4.43963e-05
4.42033e-05
4.34292e-05
4.29069e-05
4.2375e-05
4.01562e-05
3.97687e-05
4.0522e-05
4.14978e-05
4.01686e-05
3.85509e-05
3.55299e-05
3.29116e-05
2.99943e-05
3.05743e-05
2.63095e-05
1.81625e-05
1.15366e-05
5.55314e-06
1.70818e-06
2.89302e-07
1.90483e-09
6.1734e-13
1.24347e-09
2.43288e-05
6.11668e-05
0.000229568
0.000170524
2.424e-05
2.98872e-13
1.11211e-05
0.999999
0.99999
0.00019109
4.89885e-05
4.54944e-05
3.85581e-05
4.71998e-05
5.56412e-05
6.0899e-05
5.75308e-05
4.92383e-05
4.14929e-05
3.81805e-05
3.82884e-05
4.23811e-05
4.76314e-05
5.04406e-05
4.87418e-05
4.41552e-05
4.17368e-05
4.19657e-05
4.34101e-05
4.44015e-05
4.40887e-05
4.40121e-05
4.33598e-05
4.2964e-05
4.24537e-05
3.98872e-05
3.91853e-05
3.96094e-05
4.04559e-05
3.95841e-05
3.82103e-05
3.47349e-05
3.13854e-05
2.77937e-05
2.76787e-05
2.33674e-05
1.51522e-05
8.3278e-06
3.08162e-06
7.31831e-07
4.31762e-08
4.38388e-11
7.80931e-13
3.10498e-06
5.27259e-05
9.59844e-05
0.00028718
6.4074e-05
1.60024e-07
2.18153e-12
0.000154162
1
0.834098
8.63524e-05
4.68289e-05
4.54341e-05
3.22639e-05
4.01885e-05
4.69394e-05
5.56276e-05
6.10622e-05
5.77571e-05
4.94629e-05
4.13406e-05
3.8066e-05
3.83232e-05
4.24064e-05
4.77085e-05
5.03367e-05
4.85773e-05
4.39483e-05
4.16039e-05
4.18712e-05
4.32819e-05
4.40286e-05
4.37238e-05
4.37396e-05
4.32336e-05
4.30036e-05
4.25759e-05
3.96505e-05
3.86154e-05
3.86473e-05
3.93004e-05
3.88133e-05
3.76906e-05
3.38092e-05
2.98249e-05
2.54311e-05
2.43624e-05
1.98517e-05
1.18339e-05
5.45082e-06
1.56703e-06
2.32747e-07
1.69333e-09
1.34187e-12
1.95166e-09
3.75388e-05
7.9912e-05
0.000130598
0.000233679
1.24091e-05
5.38276e-10
5.26498e-10
0.0110109
1
0.00693553
5.89075e-05
4.59279e-05
4.54102e-05
2.96629e-05
3.49604e-05
4.08157e-05
4.68426e-05
5.57192e-05
6.13242e-05
5.79048e-05
4.95668e-05
4.11855e-05
3.80127e-05
3.84443e-05
4.25018e-05
4.77333e-05
5.01438e-05
4.8364e-05
4.37321e-05
4.14924e-05
4.17892e-05
4.31575e-05
4.36446e-05
4.33204e-05
4.33796e-05
4.30292e-05
4.30067e-05
4.27003e-05
3.94313e-05
3.80687e-05
3.76558e-05
3.80432e-05
3.78106e-05
3.68876e-05
3.26816e-05
2.81893e-05
2.29308e-05
2.07304e-05
1.58742e-05
8.42641e-06
3.16292e-06
7.38991e-07
3.46812e-08
3.91118e-11
2.21712e-12
2.38419e-06
4.67122e-05
6.81297e-05
0.00016298
0.000150644
1.81302e-05
2.38045e-11
2.95008e-07
0.99931
1
0.000325094
5.01458e-05
4.55809e-05
4.54017e-05
3.04676e-05
3.27483e-05
3.59874e-05
4.06465e-05
4.67086e-05
5.59044e-05
6.14951e-05
5.79394e-05
4.95417e-05
4.10226e-05
3.8024e-05
3.86632e-05
4.26648e-05
4.7716e-05
4.9887e-05
4.80896e-05
4.35137e-05
4.13999e-05
4.17277e-05
4.30394e-05
4.32541e-05
4.28617e-05
4.29286e-05
4.27425e-05
4.29407e-05
4.27921e-05
3.92223e-05
3.75535e-05
3.66414e-05
3.66779e-05
3.65551e-05
3.5713e-05
3.1297e-05
2.64484e-05
2.02798e-05
1.6887e-05
1.16824e-05
5.29629e-06
1.66556e-06
2.48274e-07
1.61266e-09
1.89104e-12
3.38866e-09
2.13595e-05
3.55709e-05
5.41281e-05
0.000253223
0.000200846
8.05527e-06
6.02784e-12
7.19046e-05
1
0.986394
9.94392e-05
4.69986e-05
4.54566e-05
4.53989e-05
3.54516e-05
3.34606e-05
3.39196e-05
3.58679e-05
4.02858e-05
4.66477e-05
5.60708e-05
6.15143e-05
5.7787e-05
4.93727e-05
4.08681e-05
3.81157e-05
3.89625e-05
4.28966e-05
4.76727e-05
4.95644e-05
4.77065e-05
4.32987e-05
4.13363e-05
4.16804e-05
4.29349e-05
4.28588e-05
4.23449e-05
4.23942e-05
4.23614e-05
4.27817e-05
4.28211e-05
3.9008e-05
3.70722e-05
3.56329e-05
3.52496e-05
3.50251e-05
3.40984e-05
2.95945e-05
2.4514e-05
1.74862e-05
1.30287e-05
7.78698e-06
2.93204e-06
7.90984e-07
3.66691e-08
4.52668e-11
9.5311e-12
3.01311e-06
3.36626e-05
3.08718e-05
6.19513e-05
0.000291596
6.73038e-05
6.26238e-09
1.89638e-10
0.00149762
1
0.0201025
5.95356e-05
4.59012e-05
4.54149e-05
4.53981e-05
4.27917e-05
3.76711e-05
3.46174e-05
3.38198e-05
3.56407e-05
3.97761e-05
4.66553e-05
5.61828e-05
6.13611e-05
5.74052e-05
4.90678e-05
4.07443e-05
3.82936e-05
3.93288e-05
4.31964e-05
4.75914e-05
4.91138e-05
4.72099e-05
4.309e-05
4.12951e-05
4.166e-05
4.28463e-05
4.2466e-05
4.18017e-05
4.17834e-05
4.18764e-05
4.24991e-05
4.27462e-05
3.87772e-05
3.66324e-05
3.46379e-05
3.37444e-05
3.31785e-05
3.20084e-05
2.75054e-05
2.23067e-05
1.45474e-05
9.37347e-06
4.57361e-06
1.42299e-06
2.45846e-07
1.90499e-09
3.90366e-12
1.91678e-08
2.91744e-05
4.23659e-05
4.40835e-05
9.0057e-05
0.000146051
4.55341e-06
6.72343e-11
8.79176e-08
0.990417
1
0.000334806
4.95717e-05
4.5544e-05
4.54024e-05
4.53979e-05
5.09461e-05
4.35153e-05
3.85796e-05
3.45394e-05
3.36149e-05
3.52091e-05
3.93706e-05
4.66873e-05
5.61809e-05
6.09611e-05
5.67804e-05
4.86148e-05
4.06685e-05
3.85466e-05
3.97498e-05
4.35577e-05
4.74318e-05
4.86036e-05
4.6647e-05
4.28963e-05
4.1283e-05
4.16745e-05
4.27687e-05
4.20798e-05
4.12266e-05
4.11077e-05
4.12809e-05
4.20658e-05
4.25154e-05
3.84933e-05
3.61932e-05
3.36524e-05
3.21928e-05
3.103e-05
2.94517e-05
2.49448e-05
1.96958e-05
1.15097e-05
6.20322e-06
2.42676e-06
5.93952e-07
2.89081e-08
4.65279e-11
5.95307e-11
7.45008e-06
4.95454e-05
5.53678e-05
6.87321e-05
0.000154156
7.9477e-05
1.67896e-06
9.77212e-11
0.000100916
1
0.975542
8.94323e-05
4.65717e-05
4.54372e-05
4.5399e-05
4.53979e-05
5.55072e-05
4.88237e-05
4.38556e-05
3.86076e-05
3.43421e-05
3.32021e-05
3.48117e-05
3.91481e-05
4.67532e-05
5.6027e-05
6.02574e-05
5.59441e-05
4.79863e-05
4.0632e-05
3.88558e-05
4.02e-05
4.39496e-05
4.7209e-05
4.80975e-05
4.6052e-05
4.27262e-05
4.13069e-05
4.17273e-05
4.27001e-05
4.17071e-05
4.06366e-05
4.03824e-05
4.05709e-05
4.14763e-05
4.20831e-05
3.81383e-05
3.57545e-05
3.26713e-05
3.05496e-05
2.86146e-05
2.644e-05
2.18657e-05
1.6639e-05
8.5025e-06
3.72595e-06
1.15923e-06
1.43324e-07
1.66627e-09
5.55889e-12
9.67912e-08
3.60124e-05
4.918e-05
5.72686e-05
0.000107524
0.000302588
0.000151237
1.50178e-07
1.75628e-09
0.00829818
1
0.00850909
5.52795e-05
4.57164e-05
4.54074e-05
4.53981e-05
4.53979e-05
5.74553e-05
5.20565e-05
4.74535e-05
4.39491e-05
3.84921e-05
3.39259e-05
3.28378e-05
3.45794e-05
3.91373e-05
4.68191e-05
5.5688e-05
5.93079e-05
5.4918e-05
4.72931e-05
4.06397e-05
3.92042e-05
4.06875e-05
4.43401e-05
4.69339e-05
4.7517e-05
4.5452e-05
4.25827e-05
4.13573e-05
4.18066e-05
4.26351e-05
4.13564e-05
4.00276e-05
3.96281e-05
3.97467e-05
4.06958e-05
4.14087e-05
3.76395e-05
3.52664e-05
3.16517e-05
2.87927e-05
2.59725e-05
2.30778e-05
1.82749e-05
1.31045e-05
5.73431e-06
2.07666e-06
4.48831e-07
1.45311e-08
4.00191e-11
2.36436e-10
9.35189e-06
3.65963e-05
3.82392e-05
4.9441e-05
0.000122164
0.000371111
5.3059e-05
5.17502e-10
2.54535e-07
0.984891
0.999993
0.0002005
4.79906e-05
4.54757e-05
4.53999e-05
4.53979e-05
4.53979e-05
5.66667e-05
5.32536e-05
5.00985e-05
4.70406e-05
4.39947e-05
3.81732e-05
3.35359e-05
3.26185e-05
3.45981e-05
3.93183e-05
4.68164e-05
5.51676e-05
5.81237e-05
5.37423e-05
4.65717e-05
4.06914e-05
3.95808e-05
4.16563e-05
4.46856e-05
4.65934e-05
4.68537e-05
4.48639e-05
4.24628e-05
4.14157e-05
4.19034e-05
4.25712e-05
4.10352e-05
3.94435e-05
3.88529e-05
3.88097e-05
3.97083e-05
4.0443e-05
3.69615e-05
3.4672e-05
3.05254e-05
2.69341e-05
2.31507e-05
1.94346e-05
1.43699e-05
9.455e-06
3.4974e-06
1.06264e-06
9.17628e-08
1.06333e-09
8.62682e-12
2.97305e-07
2.59066e-05
2.74438e-05
2.73038e-05
3.64126e-05
9.06249e-05
9.76492e-05
4.62851e-07
7.78598e-11
5.40258e-05
1
0.596721
6.96851e-05
4.60182e-05
4.54149e-05
4.53983e-05
4.53979e-05
4.53979e-05
5.27039e-05
5.23499e-05
5.08483e-05
4.96615e-05
4.73083e-05
4.39468e-05
3.78415e-05
3.32822e-05
3.26409e-05
3.48565e-05
3.96595e-05
4.67749e-05
5.44966e-05
5.6725e-05
5.24522e-05
4.57879e-05
4.07832e-05
3.99816e-05
4.21475e-05
4.49531e-05
4.61946e-05
4.61356e-05
4.42909e-05
4.23534e-05
4.14718e-05
4.19962e-05
4.24987e-05
4.07412e-05
3.88999e-05
3.80931e-05
3.78046e-05
3.85289e-05
3.91749e-05
3.60343e-05
3.38562e-05
2.92155e-05
2.4954e-05
2.02111e-05
1.56998e-05
1.03795e-05
6.02599e-06
1.92911e-06
4.13538e-07
6.90028e-09
6.97342e-11
1.46741e-09
1.42258e-05
3.10668e-05
2.76391e-05
2.86886e-05
3.30764e-05
9.30035e-05
1.53754e-05
2.39242e-08
1.79169e-08
0.164236
1
0.00123107
5.04627e-05
4.55344e-05
4.54012e-05
4.53979e-05
4.53979e-05
4.53979e-05
4.90145e-05
4.92372e-05
4.99021e-05
5.03503e-05
4.99684e-05
4.82064e-05
4.38405e-05
3.75788e-05
3.32559e-05
3.29241e-05
3.52996e-05
4.01554e-05
4.67096e-05
5.37173e-05
5.51294e-05
5.11873e-05
4.4986e-05
4.0904e-05
4.04152e-05
4.23934e-05
4.51215e-05
4.57229e-05
4.53691e-05
4.37333e-05
4.2241e-05
4.15107e-05
4.20595e-05
4.24094e-05
4.04905e-05
3.8378e-05
3.73356e-05
3.6733e-05
3.71425e-05
3.75785e-05
3.47887e-05
3.26935e-05
2.76799e-05
2.27933e-05
1.71455e-05
1.20028e-05
6.82367e-06
3.47894e-06
9.4421e-07
7.37341e-08
4.38471e-10
6.6566e-11
1.5372e-06
4.04245e-05
4.39694e-05
4.13933e-05
5.22154e-05
5.90173e-05
0.000158326
3.51514e-05
6.54192e-09
2.49128e-05
0.999942
0.997644
0.000102559
4.64775e-05
4.54249e-05
4.53984e-05
4.53979e-05
4.53979e-05
4.53979e-05
4.54234e-05
4.67261e-05
4.7481e-05
4.95279e-05
5.0738e-05
5.10534e-05
4.92935e-05
4.37628e-05
3.74899e-05
3.34666e-05
3.34087e-05
3.5938e-05
4.07742e-05
4.66029e-05
5.28306e-05
5.34421e-05
4.97891e-05
4.42451e-05
4.10559e-05
4.08643e-05
4.29291e-05
4.51698e-05
4.5191e-05
4.45674e-05
4.3185e-05
4.21156e-05
4.15164e-05
4.20756e-05
4.22888e-05
4.01504e-05
3.7892e-05
3.66079e-05
3.56006e-05
3.55854e-05
3.56944e-05
3.3144e-05
3.10811e-05
2.57986e-05
2.03779e-05
1.40181e-05
8.60324e-06
3.98048e-06
1.73214e-06
2.99499e-07
5.88094e-09
6.49685e-11
1.85205e-08
3.25082e-05
5.87815e-05
6.1649e-05
6.76473e-05
8.97326e-05
0.000265273
0.000401955
5.44869e-06
2.3305e-09
0.00116243
1
0.018925
5.43966e-05
4.56141e-05
4.54026e-05
4.5398e-05
4.53979e-05
4.53979e-05
4.53979e-05
4.39651e-05
4.49593e-05
4.57496e-05
4.75048e-05
5.00317e-05
5.19601e-05
5.23014e-05
4.99174e-05
4.37256e-05
3.76045e-05
3.38769e-05
3.41092e-05
3.67763e-05
4.14581e-05
4.64289e-05
5.18424e-05
5.18344e-05
4.82496e-05
4.36098e-05
4.12296e-05
4.13259e-05
4.34345e-05
4.51066e-05
4.46015e-05
4.37359e-05
4.26431e-05
4.19611e-05
4.14681e-05
4.20253e-05
4.2037e-05
3.99156e-05
3.74513e-05
3.59226e-05
3.44508e-05
3.3864e-05
3.35016e-05
3.10348e-05
2.89367e-05
2.34943e-05
1.76394e-05
1.08852e-05
5.72574e-06
2.15577e-06
6.82427e-07
4.19838e-08
2.48165e-10
4.68234e-10
5.54801e-06
4.95447e-05
5.63032e-05
5.57547e-05
6.05329e-05
8.93457e-05
0.000302964
8.36237e-05
1.12983e-08
9.35071e-08
0.872708
0.999972
0.000180849
4.7165e-05
4.54368e-05
4.53986e-05
4.53979e-05
4.53979e-05
4.53979e-05
4.53979e-05
4.30679e-05
4.40888e-05
4.45197e-05
4.60766e-05
4.80657e-05
5.12245e-05
5.33153e-05
5.29983e-05
4.9744e-05
4.37237e-05
3.78793e-05
3.44888e-05
3.5029e-05
3.77685e-05
4.21383e-05
4.6211e-05
5.08031e-05
5.01205e-05
4.69464e-05
4.30769e-05
4.14305e-05
4.18112e-05
4.38594e-05
4.49303e-05
4.39523e-05
4.28847e-05
4.20986e-05
4.17687e-05
4.135e-05
4.18759e-05
4.17923e-05
3.97295e-05
3.70439e-05
3.52505e-05
3.32609e-05
3.20221e-05
3.10435e-05
2.84901e-05
2.62052e-05
2.06122e-05
1.45444e-05
7.94078e-06
3.56136e-06
1.06938e-06
1.34596e-07
4.1152e-09
5.40021e-11
1.94422e-07
2.60423e-05
3.87159e-05
3.85897e-05
3.53329e-05
3.15124e-05
4.9279e-05
7.969e-05
1.21979e-06
8.55942e-10
4.44706e-05
0.999999
0.260982
6.11399e-05
4.5711e-05
4.54041e-05
4.5398e-05
4.53979e-05
4.53979e-05
4.53979e-05
4.53979e-05
4.56823e-05
4.43083e-05
4.40195e-05
4.443e-05
4.63e-05
4.87974e-05
5.24101e-05
5.40616e-05
5.28055e-05
4.91167e-05
4.37691e-05
3.82952e-05
3.53128e-05
3.61408e-05
3.88678e-05
4.27542e-05
4.59556e-05
4.95973e-05
4.82977e-05
4.57952e-05
4.2658e-05
4.16699e-05
4.22946e-05
4.4172e-05
4.46601e-05
4.32641e-05
4.20278e-05
4.1551e-05
4.15169e-05
4.11395e-05
4.15897e-05
4.1474e-05
3.93455e-05
3.66346e-05
3.4608e-05
3.20554e-05
3.00572e-05
2.83841e-05
2.55183e-05
2.28859e-05
1.72308e-05
1.11877e-05
5.28491e-06
2.09711e-06
4.17117e-07
1.10071e-08
3.13825e-10
2.64268e-09
9.72539e-06
2.56704e-05
2.88371e-05
2.65893e-05
2.40344e-05
2.25576e-05
5.09529e-05
2.0456e-05
1.98513e-07
7.93579e-08
0.538331
0.999995
0.000448916
4.79638e-05
4.54486e-05
4.53987e-05
4.53979e-05
4.53979e-05
4.53979e-05
4.53979e-05
4.53979e-05
4.7997e-05
4.60063e-05
4.51225e-05
4.38758e-05
4.44553e-05
4.6504e-05
4.92961e-05
5.29949e-05
5.3842e-05
5.20591e-05
4.84555e-05
4.38458e-05
3.88628e-05
3.63349e-05
3.73949e-05
3.99925e-05
4.32931e-05
4.56607e-05
4.82889e-05
4.67813e-05
4.46737e-05
4.23466e-05
4.1948e-05
4.27399e-05
4.43658e-05
4.42917e-05
4.25613e-05
4.11809e-05
4.09981e-05
4.11908e-05
4.08157e-05
4.11193e-05
4.08669e-05
3.89157e-05
3.61912e-05
3.39744e-05
3.0809e-05
2.79685e-05
2.55789e-05
2.2276e-05
1.90908e-05
1.3349e-05
7.85518e-06
3.32822e-06
1.06921e-06
8.81427e-08
8.85995e-10
2.3987e-10
1.21293e-06
2.32912e-05
2.67053e-05
2.82574e-05
2.74575e-05
2.90758e-05
4.89782e-05
0.000118725
5.61443e-05
4.18704e-08
7.77022e-05
0.99997
0.849469
6.99338e-05
4.58064e-05
4.54051e-05
4.5398e-05
4.53979e-05
4.53979e-05
4.53979e-05
4.53979e-05
4.53979e-05
5.08329e-05
4.80724e-05
4.62573e-05
4.52395e-05
4.37806e-05
4.45216e-05
4.67596e-05
4.9526e-05
5.28366e-05
5.30605e-05
5.12127e-05
4.79639e-05
4.39542e-05
3.95676e-05
3.75185e-05
3.87217e-05
4.10922e-05
4.37401e-05
4.53236e-05
4.71358e-05
4.54515e-05
4.37039e-05
4.21481e-05
4.22347e-05
4.31189e-05
4.44353e-05
4.38476e-05
4.18174e-05
4.03562e-05
4.04254e-05
4.07887e-05
4.03499e-05
4.04647e-05
4.01214e-05
3.83373e-05