/*--------------------------------*- C++ -*----------------------------------*\
| =========                 |                                                 |
| \\      /  F ield         | OpenFOAM: The Open Source CFD Toolbox           |
|  \\    /   O peration     | Version:  v2012                                 |
|   \\  /    A nd           | Website:  www.openfoam.com                      |
|    \\/     M anipulation  |                                                 |
\*---------------------------------------------------------------------------*/
FoamFile
{
    version     2.0;
    format      ascii;
    class       volScalarField;
    location    "13600";
    object      k;
}
// * * * * * * * * * * * * * * * * * * * * * * * * * * * * * * * * * * * * * //

dimensions      [0 2 -2 0 0 0 0];


internalField   nonuniform List<scalar> 
39402
(
2288.99
91.9228
494.191
34.1921
17.2806
175.966
32.9599
5.83368
7.8832
81.624
38.2051
13.4832
2.36266
6.03191
48.0237
43.0782
22.9025
52.8838
2.09216
5.99665
35.0946
45.8947
29.1806
106.66
167.571
3.08108
6.50691
29.5322
47.5922
33.0454
141.172
341.055
391.197
5.02871
7.06646
26.735
48.1154
35.2369
162.507
452.022
792.086
746.425
7.8097
7.44325
25.034
48.0429
36.0946
174.602
520.233
1046.07
1492.23
1231.34
11.2299
7.55492
23.8042
47.5561
36.2418
179.497
559.034
1200.26
1954.1
2412.44
1814.55
14.9378
7.41879
22.8175
46.8544
35.9313
180.558
574.762
1287.61
2227.94
3117.11
3465.41
2444.3
18.6127
7.10536
21.8271
46.0368
35.4143
179.178
578.291
1322.85
2380.74
3521.07
4405.11
4543.24
3069.94
22.1063
6.69218
20.86
45.1671
34.7668
176.693
574.063
1330.81
2441.47
3740.34
4923.23
5680.88
5556.97
3669.11
25.2834
6.22573
20.0043
44.2987
34.0352
173.491
566.279
1321.49
2454.77
3825.22
5194.42
6283.98
6849.08
6475.44
4219.6
28.0964
5.7481
19.2434
43.461
33.3177
169.767
556.107
1304.13
2438.22
3842.28
5295.8
6587.11
7509.64
7879.88
7269.03
4702.3
30.4981
5.30571
18.546
42.6295
32.6178
166.116
544.238
1281.35
2407.82
3816.82
5312.62
6695.98
7828.07
8575.87
8753.23
7916.74
5097.97
31.8253
4.93702
17.8925
41.8159
31.9143
162.52
532.54
1254.74
2367.83
3772.3
5277.75
6708.66
7937.78
8898.13
9470.06
9460.22
8406.13
5378.75
30.7867
4.65783
17.2689
41.0299
31.2199
158.89
520.963
1228.34
2321.35
3714.1
5220.3
6664.67
7943.64
9004.48
9789.59
10191.3
9999.56
8730.02
5489.57
27.2217
4.4724
16.6607
40.2134
30.5404
155.289
509.246
1202.14
2275.06
3647
5146.27
6596.71
7891.86
9002.31
9890.29
10506.9
10746.7
10372.2
8869.54
5364.79
21.5362
4.37078
16.0602
39.4515
29.8113
151.735
497.604
1175.55
2228.89
3579.97
5062.11
6510.99
7816.23
8943.82
9880.34
10601.6
11061.7
11146.3
10583.6
8826.16
5023.08
15.1548
4.31188
15.4762
38.7989
29.1713
147.93
486.099
1149.1
2181.95
3512.93
4977.82
6414.83
7722.8
8862.57
9817.22
10585.9
11152.2
11468.5
11400.6
10634.5
8589.29
4472.74
9.63811
4.17157
14.9322
38.0878
28.6326
144.611
473.816
1122.9
2135.15
3444.62
4893.41
6318.63
7619.46
8764.17
9732.77
10520.5
11134.3
11559.2
11740.6
11515.8
10519.8
8149.15
3745.66
5.75028
4.02177
14.5064
37.4254
27.9845
141.807
463.061
1095.02
2088.72
3376.46
4807.32
6222.21
7516.22
8656.68
9632.28
10435.3
11069.1
11543.3
11839.1
11888.7
11493.7
10234.4
7502.6
2900.72
3.51207
3.8761
14.2288
36.7883
27.4228
138.395
453.906
1070.5
2039.46
3308.63
4721.42
6123.96
7412.82
8549.59
9523.77
10335.4
10985.6
11481.5
11830.1
12005.1
11919.5
11333.3
9772.38
6662.52
2028.88
2.37383
3.72804
14.1336
36.1802
26.8765
135.473
442.885
1049.44
1995.88
3236.96
4635.71
6025.91
7307.61
8442.4
9416.02
10228.5
10888.8
11402.2
11775.1
12009.3
12067.3
11837
11031.5
9126.15
5677.42
1242.12
1.8385
3.57985
14.149
35.5951
26.3578
132.625
433.4
1024.36
1958.07
3173.21
4545.61
5927.96
7202.71
8333.53
9308.28
10122.7
10785.7
11310.5
11702.7
11965.3
12092.5
12032.5
11642
10580.4
8297
4582.89
644.106
1.57889
3.44448
14.2239
35.0466
25.8541
129.936
424.178
1002.65
1913.49
3117.16
4465.07
5825.6
7097.8
8225.15
9198.94
10017
10684
11213.2
11618.3
11902.7
12064.6
12088.7
11904.8
11330.7
9971.17
7296.99
3428.86
278.741
1.44799
3.32537
14.3435
34.5012
25.3884
127.319
415.479
981.565
1874.68
3051.78
4393.26
5733.81
6988.81
8116.61
9090.25
9909.88
10582.4
11117.4
11528.5
11827.9
12015.3
12083
12003.9
11684.3
10895.8
9195.59
6162.06
2306.39
103.978
1.37606
3.23223
14.4938
33.9864
24.9169
124.906
407.027
961.659
1836.91
2994.44
4310.39
5650.73
6890.82
8004.51
8981.28
9803.38
10479.5
11021.5
11440.1
11747.4
11952.6
12051
12027.9
11840.9
11367.2
10326.7
8254.28
4960.27
1339.17
35.6739
1.335
3.13443
14.6887
33.4843
24.4806
122.468
399.226
942.339
1801.2
2938.56
4237.23
5555.91
6801.01
7903.64
8869.37
9696.48
10377.2
10924.3
11351.3
11667.8
11883.3
12003.2
12018
11903.7
11599.2
10946
9611.89
7162.23
3733.08
647.432
11.9889
1.30368
3.08818
14.9135
33.0449
24.0512
120.228
391.386
924.477
1766.53
2885.54
4165.74
5471.69
6699.37
7809.95
8768.62
9587.21
10274.2
10827.6
11261.1
11587.4
11814.1
11947.3
11988.6
11921.8
11712.1
11274.9
10410
8742.82
5955.89
2541.02
263.452
4.22383
1.27829
3.06935
15.1507
32.6047
23.6857
118.025
384.192
906.601
1734.42
2834.05
4097.64
5389.18
6608.7
7704.83
8673.99
9488.94
10169.3
10729.9
11171.1
11505.2
11743.3
11890.1
11948.5
11914.7
11765.5
11451.9
10860.8
9745.92
7719.79
4708.01
1494.37
97.0547
1.76776
1.25374
3.05085
15.3728
32.1586
23.3061
116.165
377.145
890.176
1702.31
2786.14
4031.45
5310.31
6519.74
7610.69
8568.43
9395.64
10075.2
10630.7
11079.8
11422.9
11670.2
11830.3
11905
11893.3
11785.8
11549.9
11119.3
10346.2
8941.36
6562.18
3473.28
728.381
34.5928
1.00105
1.22958
3.0274
15.5585
31.7463
22.9241
114.23
371.176
874.136
1672.75
2738.26
3969.54
5233.58
6434.4
7518.21
8473.63
9291.98
9984.95
10541.9
10987.1
11338.8
11596.3
11767.3
11857.4
11865.6
11786.4
11603.6
11273.3
10707.2
9718.41
7989.65
5324.22
2300.22
296.975
11.9907
0.758611
1.20799
3.0042
15.7076
31.361
22.5805
112.297
365.025
860.519
1643.94
2694.03
3907.76
5161.49
6351.25
7429.18
8380.36
9198.67
9884.81
10455.9
10904.4
11253.3
11520.1
11702.8
11805.7
11832.1
11777.1
11630.5
11368.1
10931.6
10205.8
8963.57
6898.92
4090.28
1300.97
110.786
4.11226
0.677751
1.18927
2.98178
15.8383
31.018
22.2587
110.577
358.908
846.558
1619.36
2650.95
3850.36
5089.56
6272.82
7342.41
8290.32
9106.71
9794.57
10360.4
10823.6
11177.3
11442.4
11635.2
11751.5
11793
11759.5
11642.6
11426.7
11077.2
10518.1
9602.21
8071.52
5707.11
2892.64
605.325
40.5404
1.5256
0.647148
1.17441
2.96578
16.0406
30.6881
21.9775
108.969
353.482
832.725
1594.26
2613.97
3794.5
5022.37
6194.63
7260.24
8202.48
9017.75
9705.44
10274.3
10733.5
11102.5
11373.8
11565.8
11693.3
11750.1
11734.5
11643.4
11464
11174.1
10726.7
10023.1
8882.51
7042.57
4485.05
1799.52
243.374
14.5761
0.72128
0.632583
1.16179
2.99557
16.3117
30.3404
21.7048
107.573
348.418
820.483
1569.48
2576.28
3746.14
4957.02
6121.24
7178.64
8119
8930.84
9619
10189
10652.2
11018.3
11305.3
11504.8
11632.8
11702.1
11704.1
11634.3
11485.9
11241.5
10870.3
10309.8
9434.34
8034.39
5898.14
3298.9
935.32
92.0707
5.05012
0.481309
0.623902
1.16491
3.09031
16.2754
29.9897
21.4069
106.234
344.037
809.079
1547.52
2539.17
3696.95
4899.97
6050
7102.03
8036.16
8847.95
9534.5
10106.2
10571.6
10942.3
11227.5
11443.3
11580
11651.2
11667.3
11617.8
11495
11288
10973.6
10510.7
9817.23
8738.05
7054.02
4703.84
2183.47
405.057
34.3447
1.76173
0.412715
0.623007
1.18938
3.13697
16.2773
29.6849
21.1156
104.774
339.869
799.209
1527.12
2506.22
3648.58
4841.94
5987.2
7027.74
7958.13
8765.73
9453.64
10025.1
10493
10866.9
11157.3
11372.2
11525.9
11607
11626.8
11593.5
11494.2
11317.9
11049.2
10657.6
10088.9
9237.22
7921.45
5956.94
3543.23
1238.22
159.865
12.6737
0.705917
0.395011
0.630519
1.20476
3.1804
16.2765
29.4238
20.8779
103.358
335.368
789.882
1509.4
2475.61
3605.56
4785.04
5923.31
6961.64
7882.52
8688
9373.39
9947.21
10416
10793.1
11087.3
11308.1
11461.9
11560.8
11591.9
11564.2
11483.7
11334.9
11103.2
10767.7
10288.8
9595.66
8556.15
6978.76
4802.12
2436.76
581.345
62.0316
4.46966
0.388064
0.394106
0.636861
1.20503
3.2173
16.275
29.1711
20.6749
102.234
331.014
779.884
1492.71
2448.91
3565.53
4734.25
5860.83
6894.44
7814.68
8612.67
9297.21
9869.85
10341.8
10720.5
11018.7
11244
11404.2
11504.4
11554.1
11539.4
11466.9
11340
11140.6
10849.9
10440.2
9860.58
9019.44
7761.19
5921.3
3665.01
1458.69
238.443
23.7423
1.55391
0.301344
0.397382
0.636057
1.20519
3.24909
16.2731
28.9175
20.4675
101.288
327.596
770.24
1474.94
2423.75
3530.38
4686.86
5804.85
6828.78
7745.75
8544.64
9223.41
9796.13
10267.9
10650.4
10951
11180.8
11346.4
11453.5
11506
11510.7
11452.9
11337.1
11163.4
10910.8
10555.6
10061.8
9363.8
8346.94
6845.62
4801.12
2576.95
727.726
95.2848
8.83142
0.601599
0.281205
0.398375
0.633737
1.20669
3.27176
16.2703
28.6818
20.2551
100.306
324.748
762.716
1457.83
2397.13
3497.16
4644.92
5752.45
6769.78
7678.51
8475.39
9156.34
9724.75
10197.3
10580.4
10885.2
11118.2
11288.9
11402.2
11462.4
11471.5
11434.2
11335.1
11176.1
10953.9
10644.1
10216.9
9625.86
8787.05
7565.42
5818.4
3689.6
1595.69
309.996
37.9298
3.13187
0.313617
0.276721
0.398088
0.634912
1.21174
3.28972
16.2687
28.4538
20.0612
99.2924
321.781
756.491
1444.53
2371.58
3462.24
4605.17
5705.71
6714.42
7617.8
8407.97
9087.87
9659.49
10128.9
10513.4
10819.5
11057.2
11231.6
11350.9
11418.1
11435.9
11404.9
11327.2
11187.4
10984.2
10710.6
10337.8
9828.69
9123.12
8117.26
6667.96
4728.1
2625.25
829.793
125.579
14.6572
1.10191
0.232694
0.275327
0.397396
0.637809
1.22146
3.35009
16.2668
28.2165
19.8717
98.3846
318.74
750.004
1433.55
2351.65
3428.83
4563.63
5661.21
6664.56
7560.69
8346.85
9021.33
9592.61
10066.1
10448.4
10756.3
10995.9
11175.5
11299.2
11373.2
11399.1
11377.7
11308.5
11191.4
11010.4
10760.9
10431.4
9988.04
9383.85
8542.17
7341.94
5662.87
3643.83
1655.61
364.346
51.2078
5.40905
0.43698
0.211109
0.274854
0.397813
0.64245
1.25768
3.33984
16.2646
27.9937
19.6775
97.4983
316.025
743.39
1422.13
2335.16
3402.6
4524
5614.98
6616.88
7508.91
8289.16
8960.82
9527.66
10001.4
10388.4
10695
10936.9
11119
11248.4
11327.5
11361.1
11348.9
11290.6
11184.2
11027.6
10804.1
10505
10113.6
9589.46
8873.14
7870.12
6454.57
4597.94
2605.6
881.687
149.219
20.4444
1.91125
0.235221
0.205419
0.274994
0.399673
0.653895
1.26839
3.33733
16.2622
27.7965
19.505
96.6003
313.396
737.508
1410.53
2318.04
3380.72
4492.65
5571.07
6567.6
7459.08
8236.56
8903.51
9468.5
9938.52
10326.3
10638.3
10879.5
11064.4
11196.9
11282.3
11321.8
11318.3
11270.4
11176.2
11032.7
10836.1
10567.4
10214
9752.91
9134.77
8285.18
7095
5464.24
3541.01
1656.3
395.349
61.6085
7.75834
0.688017
0.178478
0.203974
0.27624
0.404968
0.657065
1.27514
3.33588
16.2594
27.6315
19.3674
95.8275
310.753
731.844
1400.24
2300.74
3358.01
4466.06
5535.92
6520.95
7407.84
8185.61
8850.93
9412.32
9881.21
10265.9
10579
10826.2
11011
11146.8
11236.1
11282.5
11285.8
11247.6
11165.1
11035.5
10854.6
10616.3
10298.7
9884.78
9343.57
8614.54
7607.14
6211.47
4420.57
2529.97
892.768
162.739
25.1276
2.79879
0.291362
0.163587
0.204223
0.279314
0.409003
0.659946
1.27899
3.33491
16.2564
27.4719
19.2545
95.2465
308.521
726.202
1390.37
2285.4
3335.24
4438.56
5505.63
6483.24
7359.45
8133.46
8799.72
9360.44
9826.66
10210.9
10521.4
10770
10961.4
11097.8
11190.9
11241.8
11252.8
11222.4
11150.7
11034.1
10869
10649.9
10366.8
9995.25
9512.7
8878
8017.13
6827.7
5230.68
3390.49
1606.42
404.582
67.6355
9.74894
0.986227
0.172294
0.160299
0.206039
0.281684
0.412479
0.665214
1.28846
3.33442
16.2533
27.3093
19.133
94.7863
306.896
721.493
1380.6
2270.74
3315
4411.16
5474.32
6450.18
7319.95
8084.37
8747.45
9309.59
9775.96
10158.3
10468.8
10715.3
10908.5
11052
11146.4
11201.8
11218
11195.9
11133.1
11028.6
10878.3
10677
10417.7
10085.5
9653.5
9091.71
8346.41
7329.89
5942.66
4205.61
2406.99
865.184
167.138
27.9575
3.5718
0.373689
0.139552
0.160348
0.207664
0.283714
0.414491
0.67687
1.2854
3.33434
16.251
27.1322
18.9923
94.2614
305.643
718.15
1372.55
2256.32
3295.69
4386.73
5443.35
6416.03
7284.77
8043.85
8698.43
9257.79
9725.98
10109.1
10418.5
10665.5
10857
11002.6
11104.6
11162
11183.3
11167.3
11113.6
11019.3
10882.4
10697.7
10459.2
10156.4
9769.49
9268.5
8613.81
7736.94
6542.06
4969.47
3202.93
1513.49
391.938
69.7043
11.0109
1.25749
0.181774
0.131813
0.161114
0.209149
0.285254
0.420163
0.678804
1.28355
3.33425
16.2487
26.9551
18.8277
93.6174
304.175
715.627
1366.91
2244.49
3276.82
4363.44
5415.61
6382.34
7248.47
8007.25
8657.58
9209.36
9675.06
10060.3
10371
10617.5
10810
10954.4
11059.1
11124.6
11148.6
11138.3
11091.6
11007.3
10881.8
10712.2
10492.4
10214.4
9863.51
9414.7
8833.78
8068.76
7036.97
5651.46
3963.86
2248.43
804.677
161.845
29.0339
4.07651
0.454068
0.126688
0.130587
0.162014
0.21027
0.28969
0.422912
0.678822
1.28268
3.33402
16.247
26.7833
18.6716
92.8325
302.323
712.619
1362.68
2236.21
3261.35
4340.78
5389.14
6352.14
7212.68
7969.41
8620.11
9168.7
9627.62
10010.7
10323.8
10572.1
10764.6
10910.4
11014.3
11083
11115.7
11108.9
11068.7
10992.3
10877.9
10721.2
10518.2
10261.8
9940.77
9535.53
9015.84
8340.86
7444.51
6236.96
4684.03
2988.65
1389.09
361.134
67.5788
11.5155
1.43706
0.195698
0.112434
0.130771
0.162483
0.212879
0.293377
0.425903
0.678742
1.28247
3.33391
16.2456
26.629
18.5275
92.0905
300.005
708.745
1357.59
2229.91
3250.31
4322.15
5363.53
6323.29
7180.62
7932.23
8581.31
9130.88
9587.6
9964.48
10275.6
10526.6
10721.5
10867.9
10973.5
11042
11078.4
11080.7
11044.8
10975.8
10870.5
10726
10537.6
10300
10004.6
9635.3
9168.05
8565.99
7779.14
6729.03
5338.36
3697.89
2064
722.527
148.973
28.2369
4.27891
0.507096
0.119126
0.109269
0.13081
0.164243
0.215565
0.295197
0.428488
0.676722
1.28244
3.33393
16.2441
26.494
18.4046
91.4144
297.801
703.793
1350.98
2222.36
3241.75
4308.54
5342.36
6295.46
7149.97
7898.82
8543.32
9091.61
9549.86
9925.43
10230.9
10480.1
10677.9
10827.2
10934
11004.5
11041.3
11047.9
11021.6
10957.8
10860.8
10726.7
10551.9
10330.8
10057
9718.4
9294.14
8755.31
8056.11
7136.49
5914.99
4377.26
2750.49
1243.25
318.72
62.4047
11.2028
1.50661
0.204026
0.0984064
0.108662
0.131695
0.166095
0.217618
0.297907
0.426876
0.675696
1.28253
3.33411
16.2443
26.3823
18.3061
90.8585
295.798
699.059
1342.46
2212.6
3231.49
4297.54
5326.42
6272.34
7120.41
7866.89
8509.03
9053.22
9510.49
9888.14
10193.1
10437.1
10633.3
10785.8
10896.1
10968.2
11007.4
11014.9
10993.6
10939.9
10849
10724.3
10561.3
10355.4
10100.2
9787.37
9399.81
8912.35
8289.76
7475.15
6401.73
5009.09
3414.73
1857.99
626.943
131.282
26.0503
4.15323
0.524777
0.112775
0.09332
0.109116
0.132906
0.167778
0.221052
0.298897
0.425843
0.675406
1.28269
3.33432
16.2444
26.2951
18.2356
90.4302
294.192
694.781
1334.28
2200.1
3218.57
4284.61
5313.08
6254.45
7095.75
7836.14
8476.21
9018.41
9471.95
9848.97
10156.6
10400.7
10592
10743.2
10857.1
10933.2
10974.5
10984.7
10964.9
10916.9
10836.8
10719.3
10566.9
10374.3
10136.2
9844.94
9488.28
9044.58
8483.61
7761.84
6810.97
5570.04
4056.61
2492.51
1081.95
270.51
55.1948
10.2688
1.45528
0.202861
0.0874575
0.0925732
0.109853
0.133999
0.170188
0.222542
0.299772
0.423928
0.67544
1.28282
3.33453
16.2447
26.2167
18.1924
90.1651
292.982
691.392
1326.91
2188.15
3202.29
4268.7
5297.61
6238.92
7076.13
7810.3
8444.72
8985.06
9436.99
9810.56
10117.9
10365.2
10557.3
10703.9
10816.6
10896.7
10942.5
10955.4
10938.7
10892.9
10819.2
10713.2
10569.1
10388.4
10165.3
9893.4
9562.71
9156.02
8647.27
7999.75
7160.04
6053.54
4657.34
3118.51
1634.29
524.958
111.406
22.9125
3.77569
0.501395
0.105279
0.0812381
0.0928767
0.110529
0.135667
0.171897
0.224178
0.297653
0.423112
0.67556
1.283
3.33488
16.2459
26.1324
18.1504
90.0444
292.313
688.912
1321.13
2177.3
3186.81
4249.25
5279.03
6221.1
7058.61
7789.3
8418.04
8953.19
9403.45
9775.75
10079.9
10327.3
10523.2
10670.9
10779.3
10858.5
10908.8
10926.7
10913.1
10870.9
10800.2
10701.4
10569.5
10398.5
10188.8
9933.8
9625.68
9250.35
8785.8
8200.93
7450.51
6472.58
5201.8
3715.49
2222.58
913.013
221.271
47.0192
8.93475
1.31111
0.189698
0.0781615
0.0801281
0.0933223
0.111334
0.137014
0.174267
0.224207
0.29593
0.422938
0.675727
1.28326
3.33533
16.248
26.0408
18.0961
89.9105
292.098
687.67
1316.99
2168.93
3172.78
4230.89
5257.01
6200.2
7038.7
7770.02
8396
8926.05
9371.44
9742.3
10045.5
10289.9
10486.2
10638.3
10748.2
10823.4
10873.1
10895.9
10887.8
10849.3
10782.6
10687.7
10564
10406
10207.5
9967.47
9678.77
9330.36
8903.62
8371.61
7696.7
6824.18
5691.67
4285.22
2802.55
1402.97
424.156
91.4589
19.3494
3.2461
0.447823
0.0957385
0.0714816
0.0802412
0.0938672
0.112311
0.138979
0.175644
0.223582
0.294529
0.423001
0.675911
1.28354
3.33584
16.2505
25.9437
18.0284
89.6995
291.827
687.443
1315.06
2162.88
3161.9
4214.22
5236.45
6176.18
7015.83
7748.36
8375.32
8903.31
9344.14
9710.36
10012.3
10256.1
10449.7
10602.7
10717.4
10794.4
10840.3
10862.8
10860.1
10827.6
10765.2
10674.9
10556
10407.3
10222.6
9995.46
9723.55
9398.23
9003.77
8517.16
7905.83
7123.71
6109.75
4822.48
3360.49
1935.79
745.267
175.109
38.6349
7.43184
1.1146
0.168401
0.0697937
0.0702322
0.0807021
0.0944973
0.113811
0.140713
0.176295
0.221478
0.29408
0.423134
0.676125
1.28389
3.33666
16.254
25.8431
17.9502
89.4047
291.271
687.061
1314.93
2160.23
3154.05
4201.27
5217.82
6154.01
6990.26
7723.88
8352.2
8881.55
9321.06
9683.11
9980.64
10223.4
10416.6
10567.2
10683.3
10765.4
10813.4
10832.5
10829.9
10803.2
10747.5
10662
10548.3
10405.5
10231.2
10019
9761.79
9455.85
9089.09
8641.15
8084.32
7378.78
6470.2
5302.73
3907.76
2473.32
1162.63
330.971
72.7149
15.6737
2.65654
0.377803
0.0849313
0.0634161
0.0703579
0.0811228
0.0954185
0.115121
0.142342
0.175703
0.219754
0.294057
0.423293
0.676363
1.28428
3.33754
16.2571
25.732
17.859
89.0425
290.44
685.963
1314.43
2160.09
3150.49
4191.77
5203.22
6133.93
6966.86
7697.1
8326.39
8857.22
9298.51
9660.02
9953.62
10192.2
10384.5
10534.9
10649
10733.1
10786.5
10807.8
10802.1
10776.1
10726.6
10648.3
10540.3
10403.4
10236.2
10035.6
9794.52
9505.44
9161.81
8747.16
8236.58
7596.57
6779
5726.78
4420.44
3006.52
1641.41
581.154
134.716
30.5441
5.89894
0.898295
0.142663
0.0620871
0.0622111
0.0706123
0.0817301
0.096229
0.116685
0.143064
0.173944
0.218978
0.294157
0.423478
0.676618
1.28474
3.33854
16.2621
25.6177
17.7553
88.6016
289.373
684.238
1312.58
2159.34
3150.07
4187.19
5192.32
6117.99
6945.69
7672.79
8298.73
8830.35
9273.28
9637
9930.75
10165.6
10354.1
10503.6
10617.7
10700.2
10756.1
10783.2
10779.9
10751
10702.7
10631.3
10531
10400.4
10240.1
10047.9
9819.92
9548.27
9224.64
8837.78
8367.12
7782.6
7043.46
6095.22
4894.05
3514.18
2144.96
928.705
247.383
56.0907
12.1434
2.06605
0.302293
0.0735849
0.056522
0.0621752
0.0710645
0.0820763
0.0974524
0.118132
0.14281
0.172074
0.218848
0.294299
0.42367
0.676909
1.28525
3.33976
16.2676
25.4991
17.6442
88.0846
288.046
681.945
1309.62
2156.45
3148.65
4186.02
5186.6
6105.9
6928.65
7650.91
8273.77
8802.06
9245.54
9611.14
9907.55
10143.1
10328.1
10474
10587.3
10670
10724.6
10754.7
10757.6
10731.4
10680.6
10610.9
10518.1
10396
10242.7
10058.3
9840.17
9583.26
9279.07
8916.3
8479.03
7942.39
7269.86
6413.28
5321.28
4005.77
2638.5
1353.64
434.754
100.663
23.2196
4.46515
0.687417
0.116249
0.0550493
0.0554506
0.0625078
0.0713634
0.0829872
0.0987488
0.119009
0.141366
0.171026
0.218923
0.294452
0.423894
0.677225
1.28579
3.34124
16.2736
25.384
17.5303
87.5238
286.459
679.059
1305.6
2151.93
3144.38
4183.46
5184.31
6099.02
6915.52
7633.03
8251.38
8776.69
9216.79
9582.73
9881.3
10120
10306.1
10448.8
10558.7
10640.7
10695.7
10725
10731.3
10711.5
10663.7
10592
10501.5
10387.5
10243.3
10067
9857.68
9612.22
9324.59
8984.37
8576.23
8079.65
7464.68
6687.27
5696.13
4466.93
3118.41
1807.08
715.481
178.737
42.0265
8.99306
1.53105
0.231311
0.0628545
0.0506294
0.0555424
0.062848
0.072
0.083935
0.0999061
0.118914
0.139569
0.170776
0.21904
0.294615
0.424141
0.677601
1.28646
3.34298
16.2807
25.2696
17.4233
86.9421
284.723
675.556
1300.53
2145.88
3138.18
4177.59
5180.29
6095.47
6907.5
7619.06
8232.93
8753.93
9191.21
9553.69
9852.51
10093.7
10283.4
10427.6
10534.3
10613.1
10667.6
10697.4
10703.4
10687.6
10646.5
10578
10486.1
10375
10239.7
10073.1
9872.84
9637.49
9363.06
9042.13
8660.47
8199.1
7632.3
6923.8
6023.52
4890.37
3579.72
2267.1
1067.9
314.329
73.2273
17.0285
3.22265
0.502288
0.0923404
0.0488488
0.0499048
0.0558525
0.0633237
0.0726191
0.0848751
0.100708
0.117991
0.138274
0.170818
0.219174
0.294806
0.424395
0.678006
1.28723
3.34488
16.2886
25.1647
17.3236
86.3939
282.916
671.706
1294.33
2138.31
3129.97
4169.59
5172.7
6089.89
6902.64
7610.01
8218.31
8735.09
9168.27
9527.98
9823.34
10064.7
10257.2
10405.6
10514.2
10589.8
10641.2
10670.6
10677.3
10661.7
10625
10563.6
10475.1
10363.3
10231.7
10074.7
9884.99
9659.76
9396.84
9091.41
8732.71
8302.57
7778.29
7127.8
6308.23
5271.77
4024.11
2716.39
1472.63
521.244
126.258
30.4628
6.38965
1.07954
0.17055
0.0534163
0.045656
0.0499967
0.0562237
0.0637543
0.0731376
0.0858264
0.101077
0.116021
0.13793
0.170922
0.219325
0.29501
0.424684
0.678451
1.28805
3.34708
16.2971
25.067
17.2336
85.8834
281.175
667.664
1287.53
2129.07
3119.95
4159.37
5163.02
6080.62
6895.52
7603.95
8208.43
8720.05
9149.17
9505.05
9797.58
10035.5
10228.3
10379.8
10492.9
10570.7
10619
10645.5
10652
10637.3
10601.4
10544.9
10463.8
10355.6
10224
10071.6
9892.3
9678.46
9426.86
9134.53
8794.72
8392
7904.65
7305.51
6555.16
5607.89
4438.84
3151.37
1892.48
805.618
217.049
51.9042
11.9843
2.21903
0.349859
0.0722211
0.0435242
0.0451449
0.0502973
0.0565728
0.0639543
0.0739782
0.0867744
0.100105
0.114745
0.137945
0.171042
0.219488
0.295228
0.425001
0.678958
1.28902
3.34948
16.3068
24.9787
17.1517
85.4229
279.546
663.759
1280.39
2118.95
3107.86
4147.25
5151.01
6069.41
6884.66
7595.38
8201.3
8709.51
9133.93
9485.87
9774.73
10009.8
10199.2
10351
10467.7
10550.5
10601.1
10624.5
10628.2
10613.5
10578.9
10523.6
10448
10347.5
10219.8
10068.3
9894.49
9691.97
9452.72
9173.04
8848.75
8469.18
8014.48
7459.25
6770.58
5903.17
4820.48
3569.46
2312.51
1146.46
362.609
87.1203
21.1679
4.3412
0.724419
0.121791
0.0455361
0.0413454
0.0452928
0.0505993
0.0567431
0.0645672
0.0749065
0.0870018
0.098391
0.114338
0.138039
0.171178
0.219665
0.295471
0.425351
0.679531
1.29012
3.35228
16.3171
24.8975
17.079
85.002
278.074
660.075
1273.42
2108.36
3094.73
4132.8
5137.15
6055.9
6872.05
7583.08
8191.44
8701.49
9122.92
9470.58
9755.64
9987.14
10173.6
10322.2
10439.3
10526.2
10582
10607.8
10608.6
10591.3
10556.8
10503.1
10429.3
10334.9
10215.2
10068
9895.95
9700
9473.02
9206.77
8896.98
8536.21
8109.76
7593.39
6957.05
6162.01
5164.86
3971.94
2720.36
1523.42
572.516
144.965
35.8557
8.02596
1.45832
0.233658
0.0564042
0.0390078
0.0411078
0.0455708
0.0508257
0.0571397
0.0653368
0.0756818
0.0862543
0.0971491
0.114338
0.138152
0.17132
0.219859
0.295738
0.425742
0.68017
1.29136
3.35548
16.3289
24.8276
17.0134
84.6314
276.739
656.708
1266.78
2098.03
3081.07
4117.39
5121.03
6040.63
6857.29
7569.23
8177.92
8690.51
9114.2
9459.3
9740.44
9968.23
10151.2
10296.7
10410.8
10498.3
10558.6
10590
10593.2
10573
10536.2
10482.9
10411
10319.1
10206
10067.1
9899.83
9706.69
9487.44
9234.51
8939.38
8595.9
8192.42
7710.22
7120.27
6387.06
5469.91
4346.72
3114.94
1907.9
846.717
239.959
58.5855
14.1663
2.80258
0.465471
0.0857023
0.0392856
0.03772
0.041303
0.045835
0.0511223
0.0576368
0.0660499
0.0757919
0.0847667
0.096715
0.114422
0.138273
0.17148
0.220068
0.296022
0.42618
0.680861
1.29269
3.35881
16.3424
24.7619
16.9594
84.3016
275.539
653.654
1260.74
2088.08
3067.79
4101.5
5104.07
6023.31
6840.9
7553.4
8163.03
8675.97
9102.33
9450.1
9729.05
9953.27
10132.5
10274.6
10385.6
10470.2
10531.4
10567.7
10576.7
10559.1
10519.5
10464.1
10392.9
10303.2
10193.3
10061.5
9902.93
9715.11
9499.86
9255.94
8975.26
8648.44
8265.84
7811.66
7262.88
6584.83
5738.18
4692.26
3492.81
2290.11
1165.67
384.682
94.7986
23.8096
5.15001
0.912119
0.151707
0.0447572
0.0353192
0.0376774
0.0415451
0.046065
0.0514516
0.0581093
0.0665527
0.0752188
0.0835444
0.0967099
0.114525
0.138405
0.171654
0.220299
0.296347
0.42665
0.68165
1.2942
3.36254
16.3568
24.7084
16.91
84.0184
274.474
650.933
1255.2
2079
3054.87
4086.06
5086.71
6005.42
6822.76
7536.15
8146.33
8660.23
9086.99
9437.58
9719.61
9941.94
10117.8
10256.2
10363.8
10445.2
10503.7
10541.3
10555.7
10544.1
10507
10449
10376
10287.3
10180.2
10052.2
9901.32
9722.51
9513.24
9274.64
9004.36
8693.71
8330.42
7901.54
7386.87
6758.23
5975.64
5004.06
3856.48
2658.99
1511.3
584.934
152.553
38.5204
9.0268
1.72775
0.28653
0.0606728
0.0344804
0.0346354
0.0378396
0.0417511
0.0463241
0.0516644
0.0586535
0.0668406
0.0739024
0.0831393
0.0967914
0.114638
0.13855
0.171841
0.22055
0.296702
0.427172
0.682538
1.29586
3.36681
16.3721
24.6623
16.8712
83.7677
273.558
648.471
1250.24
2070.65
3043.07
4070.97
5069.93
5987.24
6804.31
7517.47
8128.44
8642.92
9070.57
9421.65
9706.67
9932.42
10106.8
10241.9
10345.8
10423.8
10479.1
10514.2
10530.2
10524.4
10493.6
10438.2
10362.7
10272.6
10166.7
10042
9895.75
9725.19
9525.3
9293.45
9029.94
8731.34
8386.74
7980.56
7496.52
6909.3
6185.18
5283.4
4193.73
3015.15
1859.8
838.797
243.88
60.5944
15.1444
3.13787
0.54447
0.0968245
0.036546
0.0322556
0.0346475
0.0380219
0.0419868
0.0464523
0.0520886
0.059266
0.0664076
0.0727552
0.0831402
0.0968881
0.114761
0.138708
0.172044
0.220824
0.297088
0.427759
0.683488
1.29774
3.37159
16.3888
24.6259
16.8416
83.5698
272.747
646.349
1245.78
2063.17
3032.18
4057.19
5053.54
5969.8
6785.75
7498.76
8109.44
8624.61
9052.82
9404.7
9690.33
9919.29
10097.4
10231.3
10332
10406.2
10458.2
10490
10503.8
10500.1
10475.4
10426.4
10353.5
10261.1
10154.2
10031.2
9888.75
9723.67
9532.63
9310.56
9054.72
8764.45
8434.43
8050.01
7592.87
7042.72
6368.4
5532.96
4507.93
3352.69
2204.48
1128.37
377.984
94.771
24.3504
5.4651
1.01019
0.170505
0.044195
0.0308083
0.0319162
0.0347926
0.038243
0.0421289
0.0467465
0.0527054
0.0595533
0.0650001
0.0724184
0.0832192
0.0969939
0.114895
0.138878
0.172268
0.221125
0.297514
0.428401
0.684557
1.29987
3.37671
16.4074
24.5957
16.8189
83.4188
272.091
644.464
1241.89
2056.37
3022.41
4044.43
5038.62
5952.83
6768.04
7480.12
8090.66
8605.45
9034.23
9386.56
9672.98
9902.73
10084.2
10222.2
10321.9
10392.9
10441.1
10469.6
10480.2
10474.5
10452.3
10409.8
10343.5
10253.7
10144.8
10021.2
9880.88
9720.21
9535.53
9322.96
9077.36
8795.78
8476.36
8109.71
7677.95
7159.9
6530.23
5752.91
4796.46
3681.08
2534.95
1439.32
558.211
147.598
37.9075
9.13252
1.81181
0.31022
0.0624277
0.0309394
0.0296579
0.0319884
0.0349986
0.0384242
0.0423238
0.0471671
0.053198
0.0588505
0.0640489
0.0724329
0.0833116
0.0971087
0.115041
0.139065
0.172513
0.221456
0.297978
0.429103
0.685754
1.30216
3.38236
16.4286
24.5714
16.802
83.3019
271.584
642.925
1238.43
2050.43
3013.45
4032.96
5024.76
5937.26
6750.83
7462.46
8072.17
8586.73
9015.08
9367.83
9654.58
9885.13
10067.7
10209.4
10313.3
10383.6
10428.4
10453
10460.3
10451.4
10427.7
10388.1
10328.7
10245.6
10139.3
10014
9873.61
9715.58
9535.97
9330.68
9095.29
8824.55
8515.18
8162.24
7752
7263.69
6672.43
5947.73
5054.6
3990.75
2856.42
1750.96
783.354
228.28
57.6798
14.7004
3.13097
0.561234
0.0998748
0.0339366
0.0279822
0.0295618
0.0321764
0.0351903
0.0385622
0.0425457
0.0476018
0.0532385
0.057742
0.0637779
0.0725091
0.0834117
0.0972349
0.115199
0.139269
0.17278
0.221818
0.298491
0.42988
0.687058
1.30467
3.38859
16.4511
24.5521
16.7893
83.2114
271.18
641.714
1235.56
2045.12
3005.59
4022.42
5012.28
5922.9
6735.09
7445.4
8054.74
8568.46
8996.46
9348.78
9635.77
9866.59
10050
10193.1
10300.9
10375.5
10419.7
10440.9
10444.3
10432.1
10405.3
10364.6
10308.6
10232.7
10133.2
10010.5
9868.89
9711.28
9534.9
9335.41
9108.25
8848.49
8550.72
8209.97
7817.29
7354.86
6798.68
6119.51
5285.05
4276.39
3163.12
2061.28
1037.92
343.591
87.2344
22.812
5.2207
0.991407
0.170931
0.0421416
0.0271535
0.0274818
0.029707
0.0323587
0.035316
0.0387092
0.0428443
0.0480029
0.0527692
0.0568699
0.0638081
0.0725971
0.0835206
0.0973718
0.115371
0.139489
0.173071
0.222212
0.299057
0.430747
0.688496
1.30748
3.39548
16.4755
24.5356
16.7799
83.1419
270.861
640.732
1233.28
2040.68
2998.58
4013.14
5000.74
5909.96
6720.46
7429.81
8038.01
8551.45
8978.49
9330.33
9616.88
9847.82
10031.4
10175.5
10285
10363.8
10412.3
10433
10432.9
10416.8
10386.7
10343.1
10286.3
10214.3
10122.3
10006.6
9867.53
9709.2
9533.86
9338.27
9117.71
8867.16
8581.23
8253.4
7875.8
7435.45
6910.33
6272.55
5490.2
4539.42
3456.56
2363.22
1314.08
495.934
131.141
34.3644
8.39131
1.69919
0.298022
0.0596407
0.0277254
0.0257694
0.027529
0.0298602
0.0324745
0.035448
0.03888
0.0433093
0.0481705
0.0515559
0.0566979
0.0638832
0.0726939
0.0836403
0.0975198
0.11556
0.139731
0.17339
0.222646
0.299678
0.431693
0.690083
1.31054
3.40303
16.5027
24.5212
16.7735
83.0865
270.602
639.935
1231.39
2037.1
2992.63
4004.74
4990.5
5897.91
6707.33
7415.22
8022.77
8535.17
8961.92
9312.69
9598.66
9829.07
10012.8
10156.9
10267.6
10348.5
10401.3
10426.3
10425.8
10406
10372
10325.2
10265.8
10193.5
10105.9
9997.88
9865.78
9710.14
9534.65
9340.8
9124.9
8881.84
8606.1
8291.48
7928.67
7506.99
7009.25
6408.59
5674.02
4778.34
3735.52
2649.91
1596.54
687.999
196.018
50.5062
13.0288
2.81199
0.514745
0.0930851
0.0307345
0.0245228
0.0256165
0.0276509
0.0299602
0.0325891
0.0355658
0.0392532
0.0437364
0.0474351
0.0509112
0.0567423
0.0639685
0.0727987
0.08377
0.097681
0.115765
0.139996
0.17374
0.223123
0.300358
0.432727
0.691832
1.31392
3.41122
16.5323
24.5058
16.7675
83.0441
270.385
639.269
1229.83
2034.09
2987.77
3997.65
4981.28
5887.14
6695.05
7402.08
8008.43
8520.32
8946.13
9296.55
9581.36
9811.07
9994.16
10138.4
10249.3
10331.5
10386.8
10416.2
10419.9
10399.8
10362
10311.3
10248.8
10174.1
10086.7
9983.56
9859.45
9710.77
9538.09
9344.74
9131.38
8893.81
8626.51
8323.5
7975.67
7571.28
7096.55
6529.47
5838.47
4994.45
3994.07
2924.06
1871.73
909.025
288.415
73.6465
19.5323
4.49809
0.866904
0.152713
0.0379371
0.0239643
0.0239658
0.0256922
0.0277413
0.0300727
0.0326882
0.0357922
0.0396801
0.0435867
0.0463845
0.0508139
0.0568164
0.0640614
0.0729125
0.0839106
0.0978568
0.115987
0.140283
0.174121
0.223648
0.301104
0.433876
0.693754
1.31764
3.42018
16.5646
24.4915
16.7593
82.9982
270.203
638.692
1228.5
2031.56
2983.66
3991.77
4973.43
5877.5
6684.08
7389.84
7995.46
8506.38
8931.72
9281.24
9565.59
9794.16
9976.35
10119.9
10230.8
10313.4
10370.2
10402.4
10410.7
10394.8
10356.6
10302.1
10235.6
10158
10068.6