/*--------------------------------*- C++ -*----------------------------------*\
| =========                 |                                                 |
| \\      /  F ield         | OpenFOAM: The Open Source CFD Toolbox           |
|  \\    /   O peration     | Version:  v2012                                 |
|   \\  /    A nd           | Website:  www.openfoam.com                      |
|    \\/     M anipulation  |                                                 |
\*---------------------------------------------------------------------------*/
FoamFile
{
    version     2.0;
    format      ascii;
    class       volScalarField;
    location    "13600";
    object      Mg;
}
// * * * * * * * * * * * * * * * * * * * * * * * * * * * * * * * * * * * * * //

dimensions      [0 0 0 0 0 0 0];


internalField   nonuniform List<scalar> 
39402
(
0.00335365
0.000217923
0.00438136
6.6494e-05
0.00044939
0.00323862
6.18044e-05
0.000142484
0.00071923
0.00208273
7.00484e-05
0.00019981
0.00023384
0.00102247
0.0013856
7.87526e-05
0.000273852
0.00102416
0.000396656
0.00134263
0.00102287
8.45851e-05
0.000327174
0.00152944
0.00339036
0.000719476
0.00161289
0.000804402
8.83124e-05
0.000362246
0.00186177
0.00507789
0.0079171
0.00121086
0.00178993
0.000656565
8.96573e-05
0.000383791
0.00207748
0.0061705
0.0117658
0.0146093
0.00181488
0.00186526
0.000548899
8.969e-05
0.000392633
0.00221022
0.00687088
0.0141863
0.0213754
0.0227309
0.00245364
0.00185773
0.000465773
8.89221e-05
0.000394531
0.00226689
0.00730401
0.015701
0.0254249
0.0325407
0.0311837
0.00305055
0.00179135
0.000400627
8.76603e-05
0.000392114
0.00228258
0.00749148
0.0166318
0.0278636
0.0380306
0.0435419
0.0391299
0.00356813
0.00169114
0.000342326
8.61265e-05
0.000387227
0.00227222
0.00754941
0.0170352
0.0293341
0.0411822
0.0499558
0.0533638
0.0462491
0.00400467
0.00157779
0.000293964
8.444e-05
0.000380847
0.00224696
0.00752306
0.0171689
0.0299653
0.0430277
0.0534592
0.0601758
0.0619055
0.0525415
0.00436894
0.00144576
0.000255025
8.27659e-05
0.00037348
0.00221244
0.00744852
0.0171229
0.0301824
0.0438052
0.0554417
0.0637365
0.0687587
0.0692577
0.0580575
0.004679
0.00128964
0.00022327
8.11403e-05
0.000366194
0.00217118
0.00734231
0.0169752
0.0301193
0.0440778
0.0562554
0.0656856
0.072209
0.0759178
0.0753221
0.0629159
0.00494781
0.00112655
0.000196481
7.95549e-05
0.000359007
0.00213014
0.00721352
0.0167583
0.0298999
0.0439974
0.0565396
0.0664639
0.0740327
0.0791467
0.0816609
0.0800809
0.0668526
0.00515498
0.000970229
0.000173991
7.80105e-05
0.000351865
0.00208915
0.00708405
0.0164929
0.0295697
0.0437306
0.056441
0.0667257
0.0747473
0.0807854
0.0846069
0.0861656
0.0834697
0.0693601
0.00520332
0.000829538
0.000154833
7.64566e-05
0.000344862
0.00204792
0.00695361
0.0162218
0.0291653
0.0433246
0.0561523
0.0666036
0.0749627
0.0814392
0.0860154
0.0888204
0.0896786
0.0859648
0.0709036
0.00497425
0.000708182
0.000139492
7.47851e-05
0.000337777
0.0020072
0.00682143
0.0159473
0.0287474
0.0428299
0.055715
0.0663014
0.0748066
0.0815768
0.0866042
0.0900115
0.0920935
0.0925429
0.0884383
0.0720718
0.00439257
0.000608033
0.000124503
7.33086e-05
0.000330029
0.00196582
0.00668998
0.0156668
0.0283201
0.0423134
0.0551895
0.0658537
0.0744873
0.0813914
0.0866446
0.0904915
0.0931006
0.0947457
0.0951129
0.0911544
0.0721838
0.00354277
0.000513476
0.000105986
7.21223e-05
0.000323316
0.00192067
0.00655601
0.0153864
0.027881
0.0417814
0.0546368
0.065325
0.074028
0.0810591
0.0864418
0.0904572
0.0934017
0.0955354
0.097017
0.0976059
0.0934914
0.0701211
0.0026161
0.000425177
8.45276e-05
7.06755e-05
0.000317891
0.00188146
0.00641033
0.0150996
0.0274394
0.0412317
0.0540641
0.0647671
0.0734966
0.0805948
0.0861108
0.0902336
0.0933207
0.0956164
0.0975012
0.0990916
0.0999263
0.094575
0.0656138
0.00180743
0.000356987
5.80023e-05
6.93862e-05
0.0003111
0.0018493
0.00628303
0.0147883
0.0269867
0.0406769
0.0534705
0.0641884
0.0729341
0.0800676
0.0856557
0.0898999
0.0930729
0.0954778
0.0973588
0.0991812
0.100983
0.101544
0.0934924
0.058507
0.00122654
0.000302028
4.10784e-05
6.81488e-05
0.000305212
0.00180929
0.006177
0.0145142
0.0264962
0.0401058
0.0528702
0.0635878
0.0723512
0.079511
0.0851493
0.0894604
0.0927336
0.0951984
0.0971263
0.0987777
0.100619
0.102425
0.102066
0.0895269
0.04896
0.000855903
0.000248013
3.44248e-05
6.69916e-05
0.000299477
0.0017748
0.00604682
0.0142826
0.0260608
0.0394913
0.0522512
0.062979
0.0717474
0.0789314
0.0846154
0.0889785
0.0923058
0.094851
0.0967962
0.0984137
0.0999276
0.101743
0.103407
0.101536
0.08326
0.0375657
0.000627705
0.000192968
3.20057e-05
6.58536e-05
0.00029412
0.00174093
0.00593408
0.0140019
0.0256864
0.0389397
0.0515903
0.0623527
0.0711356
0.0783326
0.0840613
0.0884674
0.09184
0.0944301
0.0964304
0.0980147
0.0994063
0.100803
0.102666
0.104071
0.0997159
0.0760171
0.025689
0.00047252
0.000144404
2.8264e-05
6.47932e-05
0.000288852
0.00170934
0.00582344
0.0137567
0.0252387
0.0384563
0.0509921
0.0616907
0.0705084
0.077733
0.0834878
0.0879423
0.0913517
0.0939795
0.0960106
0.0976227
0.0989297
0.10014
0.101554
0.103489
0.104229
0.096096
0.0675842
0.0152552
0.000357496
0.000105386
2.54654e-05
6.37111e-05
0.000283978
0.00167838
0.00572
0.0135157
0.0248444
0.037887
0.0504562
0.0610882
0.0698549
0.0771172
0.0829145
0.0873994
0.0908499
0.0935117
0.0955688
0.097191
0.0985043
0.0995915
0.100737
0.102241
0.104175
0.103477
0.0898612
0.0565425
0.00786219
0.000267673
7.63892e-05
2.34814e-05
6.27234e-05
0.000278961
0.00164979
0.00561858
0.01329
0.0244543
0.0373804
0.0498379
0.0605366
0.0692509
0.0764779
0.0823274
0.0868514
0.0903323
0.0930267
0.0951136
0.0967468
0.0980629
0.0991329
0.100102
0.10129
0.102911
0.104593
0.101317
0.0814911
0.0426832
0.0036375
0.000198546
5.79889e-05
2.46605e-05
6.17535e-05
0.000274412
0.00162042
0.00552496
0.0130683
0.024088
0.0368787
0.0492813
0.059914
0.0686919
0.0758874
0.0817251
0.086294
0.089811
0.0925315
0.0946439
0.0963032
0.0976188
0.0986817
0.0996005
0.100554
0.101822
0.103566
0.104477
0.0971963
0.0722379
0.0278615
0.00158862
0.000147337
4.61764e-05
2.63132e-05
6.09494e-05
0.000269937
0.00159385
0.0054293
0.0128635
0.0237284
0.0364039
0.048729
0.0593485
0.0680708
0.0753321
0.0811688
0.085733
0.0892833
0.092032
0.0941652
0.0958491
0.097185
0.0982469
0.0991429
0.0999931
0.100957
0.102331
0.104043
0.103404
0.0905358
0.0613185
0.0153277
0.000682248
0.000110842
3.54251e-05
2.56843e-05
6.0096e-05
0.000266262
0.00156777
0.00534267
0.0126549
0.0233946
0.0359372
0.0482029
0.0587835
0.0675021
0.0747246
0.0806335
0.0852108
0.0887565
0.0915287
0.0936871
0.0953812
0.0967435
0.0978228
0.0987051
0.0994901
0.100314
0.101314
0.102855
0.104212
0.100699
0.0815678
0.0472783
0.00725071
0.000310832
8.2357e-05
2.91874e-05
2.31873e-05
5.92042e-05
0.000262328
0.00154644
0.00525788
0.0124655
0.0230548
0.0355001
0.0476857
0.058244
0.0669365
0.0741652
0.0800597
0.0847008
0.0882641
0.091028
0.0932069
0.094918
0.0962831
0.0973875
0.0982814
0.0990409
0.0997735
0.100588
0.101715
0.1033
0.103707
0.095647
0.0713837
0.031308
0.00313258
0.000167763
5.89503e-05
2.85698e-05
1.93567e-05
5.84125e-05
0.000258227
0.00152368
0.00518822
0.0122802
0.0227451
0.0350565
0.0471975
0.0577128
0.0663926
0.0736127
0.0795306
0.0841614
0.0877769
0.0905602
0.0927282
0.0944559
0.0958312
0.0969377
0.097855
0.0986242
0.0993101
0.0999888
0.100867
0.102121
0.103555
0.101875
0.087531
0.0596816
0.0171232
0.00127871
0.000107524
4.32319e-05
2.95585e-05
1.46999e-05
5.7707e-05
0.000254642
0.00150016
0.00511465
0.0121268
0.0224419
0.0346506
0.0467028
0.05721
0.0658583
0.0730768
0.0790044
0.0836635
0.0872683
0.0900929
0.0922842
0.0939993
0.0953842
0.0964956
0.0974164
0.098201
0.0988769
0.0995157
0.10018
0.101129
0.102481
0.103309
0.0979341
0.0773898
0.0449917
0.00790606
0.000518063
7.81579e-05
3.09331e-05
3.21071e-05
9.11858e-06
5.70919e-05
0.000251428
0.00147972
0.00503907
0.0119661
0.0221885
0.0342529
0.0462464
0.0567099
0.065348
0.0725532
0.0784944
0.0831644
0.0868001
0.0896151
0.0918402
0.0935742
0.0949412
0.0960599
0.096986
0.0977687
0.0984596
0.099077
0.0996703
0.100383
0.101432
0.102738
0.102067
0.0912054
0.0665706
0.0284824
0.00331026
0.000206273
6.38906e-05
1.81034e-05
3.33574e-05
5.31502e-06
5.64714e-05
0.000248629
0.00146141
0.00497358
0.0118017
0.0219247
0.0339163
0.0458002
0.0562449
0.0648581
0.0720519
0.0779937
0.082685
0.0863291
0.0891714
0.091378
0.0931399
0.0945338
0.0956303
0.0965555
0.0973432
0.0980315
0.0986538
0.099228
0.0997983
0.100562
0.101735
0.102651
0.0990503
0.0816916
0.0537845
0.0148449
0.00132101
8.25355e-05
5.4819e-05
8.83341e-06
4.01005e-05
3.30059e-06
5.57829e-05
0.000245849
0.00144547
0.00491489
0.01166
0.0216565
0.0335689
0.0454166
0.0557885
0.0643977
0.0715616
0.0775159
0.0822117
0.085869
0.0887222
0.0909536
0.0926934
0.0941114
0.0952361
0.0961333
0.0969219
0.0976129
0.0982232
0.098796
0.099333
0.0999081
0.100759
0.101931
0.10172
0.0933417
0.0709436
0.0379086
0.00651078
0.000468543
4.32534e-05
5.03727e-05
5.47404e-06
4.30129e-05
2.16171e-06
5.5074e-05
0.000242739
0.00142998
0.00486385
0.0115324
0.0214239
0.0332166
0.0450226
0.0553915
0.0639487
0.0711016
0.0770362
0.0817545
0.0854242
0.0882836
0.0905242
0.0922859
0.0936746
0.0948246
0.0957532
0.0965101
0.0971937
0.0978215
0.0983739
0.0989092
0.0994057
0.100013
0.100978
0.101868
0.0991928
0.0842877
0.0591728
0.0219615
0.00249061
0.000160723
3.46914e-05
4.94334e-05
8.14079e-06
4.28881e-05
1.49559e-06
5.45085e-05
0.00023956
0.00141275
0.00481501
0.0114213
0.0212151
0.0329085
0.0446263
0.0549854
0.0635545
0.0706595
0.0765887
0.0813035
0.0849927
0.0878603
0.0901071
0.0918748
0.0932813
0.0943941
0.0953464
0.0961397
0.0967874
0.0974077
0.0979653
0.098484
0.0989528
0.0994675
0.100141
0.101114
0.101092
0.0940862
0.0734651
0.0447865
0.0102736
0.000873858
6.17478e-05
3.53571e-05
4.03555e-05
1.24666e-05
3.87866e-05
1.07082e-06
5.40915e-05
0.000237101
0.00139518
0.0047611
0.011316
0.0210329
0.0326318
0.0442773
0.0545801
0.0631491
0.070261
0.0761555
0.0808774
0.0845696
0.0874538
0.0896979
0.0914686
0.0928745
0.0940093
0.0949115
0.0957366
0.0964233
0.0969932
0.0975426
0.0980552
0.0985183
0.0989725
0.099508
0.100292
0.101039
0.0988618
0.0856434
0.0623217
0.0282923
0.00395584
0.00030291
2.62989e-05
4.11521e-05
2.88797e-05
1.97128e-05
3.26344e-05
7.62407e-07
5.36727e-05
0.000235283
0.00138187
0.0047063
0.0112008
0.0208603
0.0323897
0.0439618
0.0542216
0.0627469
0.0698587
0.0757557
0.0804602
0.0841617
0.0870503
0.0893094
0.091076
0.0924799
0.0936078
0.0945314
0.0952912
0.0960249
0.0966327
0.0971403
0.0976448
0.0981219
0.0985294
0.0990129
0.0995769
0.100392
0.100328
0.0941838
0.075135
0.0490341
0.0142536
0.0013552
0.00010196
1.37424e-05
4.86846e-05
1.65339e-05
2.47908e-05
2.4857e-05
5.29881e-07
5.3189e-05
0.000233417
0.00137208
0.00466519
0.0110843
0.0206722
0.0321591
0.0436842
0.0538927
0.0623909
0.0694555
0.0753598
0.0800799
0.0837634
0.0866617
0.0889193
0.0906977
0.0921007
0.0932207
0.0941394
0.0949127
0.095571
0.0962391
0.0967802
0.0972533
0.0977255
0.0981326
0.0985295
0.0990043
0.0996558
0.100262
0.0982606
0.086205
0.0641225
0.0328324
0.00566068
0.000447458
3.65706e-05
9.41923e-06
5.31163e-05
3.18839e-06
3.67491e-05
1.73211e-05
3.47607e-07
5.27107e-05
0.000231261
0.00136205
0.00463515
0.0109975
0.0204839
0.0319104
0.0434172
0.053603
0.0620603
0.0690984
0.0749701
0.0796987
0.0833975
0.0862846
0.0885464
0.0903209
0.0917251
0.0928423
0.093752
0.0945198
0.0951934
0.0957989
0.0964132
0.0968887
0.0973186
0.0977379
0.0981139
0.0985161
0.0989907
0.0996754
0.0995279
0.0938204
0.0758306
0.0514008
0.0175411
0.00189152
0.000151557
1.44483e-05
1.19772e-05
5.13526e-05
1.25346e-06
4.56605e-05
1.08037e-05
2.10879e-07
5.22467e-05
0.000229187
0.00135049
0.00460455
0.0109345
0.0203435
0.0316628
0.0431343
0.0533219
0.0617629
0.0687691
0.0746161
0.0793279
0.0830335
0.0859294
0.0881863
0.0899571
0.0913575
0.0924724
0.0933691
0.0941312
0.0948002
0.0954397
0.0960187
0.0965562
0.0969817
0.0973446
0.0977361
0.0980864
0.0984783
0.0990316
0.0995123
0.0974792
0.0860391
0.0648155
0.0356795
0.00722653
0.000589249
5.11535e-05
4.43634e-06
2.49201e-05
4.0577e-05
5.88223e-06
4.96105e-05
5.97177e-06
1.22751e-07
5.17848e-05
0.000227168
0.00133965
0.00456969
0.01087
0.0202422
0.0314762
0.0428538
0.0530273
0.0614793
0.0684664
0.0742874
0.0789882
0.0826797
0.0855745
0.0878436
0.0896078
0.0910043
0.0921097
0.0930087
0.0937508
0.0944147
0.0950657
0.095692
0.0962151
0.0966549
0.0970348
0.097361
0.0977023
0.0980287
0.098442
0.0990057
0.0987163
0.0930684
0.0757143
0.052402
0.0198193
0.00237177
0.000191097
1.76849e-05
2.53979e-06
3.75075e-05
2.84023e-05
1.34079e-05
4.71756e-05
3.24583e-06
6.84556e-08
5.13831e-05
0.000225141
0.00132904
0.00453736
0.0107976
0.0201379
0.0313413
0.0426392
0.0527368
0.0611822
0.068174
0.0739903
0.0786656
0.0823576
0.0852366
0.0875039
0.0892777
0.090664
0.0917686
0.0926512
0.0933964
0.0940534
0.0947047
0.0953576
0.0959372
0.0963794
0.0967102
0.0970311
0.0973374
0.0976393
0.0979617
0.0983955
0.0987616
0.0965565
0.0852522
0.0646995
0.0370666
0.00838274
0.000701444
6.01729e-05
6.19992e-06
1.62061e-06
4.48888e-05
1.61787e-05
2.25948e-05
3.69772e-05
1.8758e-06
3.89963e-08
5.10842e-05
0.000223422
0.00131843
0.00450577
0.010731
0.0200218
0.0312014
0.042481
0.0525125
0.0608948
0.0678738
0.0736944
0.0783738
0.0820455
0.0849257
0.0871726
0.0889484
0.0903462
0.0914336
0.0923144
0.0930431
0.0937161
0.0943706
0.0950297
0.0956307
0.0961109
0.0964493
0.096707
0.0970002
0.0972621
0.0975377
0.0978841
0.0983188
0.0978478
0.0919733
0.074899
0.0524402
0.0209479
0.00272154
0.000203893
1.83259e-05
3.69471e-06
3.72431e-06
4.85619e-05
2.48726e-06
3.98328e-05
2.46384e-05
1.05774e-06
2.01525e-08
5.08672e-05
0.000222201
0.00130964
0.00447428
0.0106659
0.0199151
0.0310476
0.0423159
0.0523404
0.060666
0.0675837
0.0733953
0.078086
0.0817588
0.0846299
0.0868714
0.0886285
0.0900194
0.091118
0.091976
0.0927039
0.0933729
0.0940504
0.0947156
0.0953226
0.0958244
0.0962019
0.0964128
0.096679
0.0969534
0.0971466
0.0974172
0.0978128
0.0979911
0.0954984
0.0839471
0.0638836
0.0373395
0.0090029
0.000752519
5.40909e-05
9.98214e-06
2.29064e-07
1.53171e-05
4.28957e-05
2.16839e-06
5.09608e-05
1.41251e-05
5.42113e-07
8.88247e-09
5.06257e-05
0.000221352
0.00130368
0.00444867
0.0106013
0.0198117
0.0309064
0.0421384
0.0521603
0.060483
0.0673503
0.073102
0.0777944
0.0814754
0.0843536
0.0865879
0.0883404
0.0897088
0.0907946
0.0916624
0.092368
0.0930447
0.0937328
0.094414
0.0950228
0.0955358
0.0959281
0.0962074
0.0963503
0.0966416
0.0968369
0.0970015
0.0973271
0.0976832
0.096948
0.0906039
0.0734807
0.0516726
0.0212087
0.00291118
0.000190154
1.43686e-05
5.21921e-06
2.45255e-06
3.01938e-05
3.09854e-05
8.69925e-06
5.33302e-05
6.94031e-06
2.49766e-07
3.96576e-09
5.03229e-05
0.000220352
0.00129982
0.00443216
0.0105495
0.0197093
0.0307709
0.0419747
0.0519721
0.060291
0.0671562
0.0728673
0.0775176
0.0811941
0.0840747
0.0863227
0.0880591
0.0894274
0.0904909
0.0913384
0.0920573
0.0927247
0.0934249
0.0941123
0.0947322
0.0952344
0.095654
0.0959463
0.0961058
0.0962268
0.0965724
0.096715
0.0968615
0.0972124
0.0972248
0.0943318
0.0821818
0.0624723
0.036636
0.0090932
0.000726173
4.01615e-05
8.12682e-06
4.91405e-06
9.6486e-07
3.84292e-05
1.70688e-05
2.22679e-05
4.45821e-05
3.12752e-06
1.16117e-07
1.72391e-09
4.99524e-05
0.000219032
0.00129508
0.00442212
0.0105179
0.0196293
0.0306385
0.0418187
0.0517964
0.0601003
0.0669585
0.0726666
0.0772823
0.0809327
0.0838016
0.0860507
0.0877954
0.089154
0.0902117
0.0910367
0.0917279
0.0924218
0.093125
0.0938153
0.0944353
0.0949698
0.0953884
0.0956937
0.0959045
0.0959682
0.0961479
0.0964486
0.0965686
0.0967603
0.0970155
0.0959844
0.0889292
0.0715703
0.0501839
0.020579
0.00284522
0.000155289
7.23509e-06
6.90078e-06
3.92876e-06
1.77773e-06
4.45558e-05
2.84287e-06
4.11256e-05
2.93749e-05
1.46339e-06
5.01896e-08
6.75163e-10
4.95775e-05
0.000217332
0.00128847
0.0044093
0.0104999
0.0195813
0.0305352
0.0416675
0.051631
0.0599195
0.0667596
0.072465
0.0770815
0.0807028
0.0835479
0.0857826
0.0875317
0.0888882
0.0899408
0.0907652
0.0914283
0.0921048
0.0928371
0.0935279
0.0941507
0.0946827
0.0951249
0.0954706
0.0956721
0.0957831
0.0958285
0.0960719
0.0962971
0.096397
0.0966215
0.0964528
0.0929898
0.0799519
0.0605716
0.0350456
0.00859615
0.000622337
2.4916e-05
5.8057e-06
6.38122e-06
1.00591e-06
1.46482e-05
3.87025e-05
2.50654e-06
5.4656e-05
1.54543e-05
6.32356e-07
1.90881e-08
2.4589e-10
4.92252e-05
0.000215639
0.00127956
0.0043908
0.0104757
0.019555
0.0304732
0.0415486
0.0514707
0.0597462
0.0665744
0.072255
0.0768739
0.0804982
0.0833194
0.0855299
0.0872684
0.0886201
0.0896756
0.090491
0.0911633
0.0918074
0.0925451
0.0932565
0.0938653
0.0944029
0.094856
0.0952007
0.0954482
0.0955839
0.0955601
0.0957172
0.0959416
0.0961111
0.0962637
0.09632
0.0948798
0.0868931
0.0691618
0.0480647
0.0191631
0.00256611
0.000103598
9.07905e-06
5.24964e-06
5.2517e-06
3.71829e-06
2.86405e-05
2.55552e-05
1.07803e-05
5.40449e-05
6.58153e-06
2.52879e-07
7.17823e-09
8.15379e-11
4.89206e-05
0.000214086
0.00127065
0.00436469
0.0104398
0.0195191
0.0304369
0.0414757
0.051343
0.0595822
0.0663965
0.0720684
0.0766635
0.0802875
0.0831096
0.0853094
0.0870201
0.0883571
0.0894052
0.0902256
0.0908935
0.091547
0.0922616
0.0929756
0.0936046
0.0941273
0.0945708
0.0949361
0.0952156
0.095383
0.0954041
0.095386
0.0956086
0.0957782
0.0959295
0.0960641
0.0955559
0.0912612
0.0772733
0.0582107
0.0326833
0.00768919
0.000504319
9.32589e-06
3.7803e-06
4.86013e-06
3.7681e-06
2.47983e-06
3.58534e-05
1.11484e-05
3.26857e-05
4.00337e-05
2.50267e-06
9.40345e-08
2.4188e-09
2.45593e-11
4.86779e-05
0.000212777
0.00126249
0.00433835
0.0103867
0.0194634
0.0303894
0.0414289
0.0512603
0.0594488
0.0662243
0.0718931
0.0764799
0.0800886
0.0829019
0.0851022
0.0868028
0.0881196
0.08914
0.0899601
0.0906383
0.0912932
0.0920101
0.0927031
0.0933246
0.0938748
0.0943248
0.0946946
0.0949732
0.0951792
0.0952191
0.0951481
0.0952702
0.0954657
0.0955816
0.0957449
0.0956562
0.0935792
0.0842708
0.0663416
0.0453873
0.0171278
0.00217227
6.29376e-05
4.40569e-06
1.00576e-06
5.83253e-06
4.41898e-06
4.68124e-06
3.83528e-05
1.12644e-06
5.13755e-05
2.19257e-05
9.64717e-07
3.09016e-08
7.54621e-10
6.70931e-12
4.84913e-05
0.000211776
0.00125578
0.00431413
0.0103333
0.0193801
0.0303168
0.0413681
0.0511997
0.0593527
0.0660857
0.0717161
0.076304
0.0799009
0.0827087
0.0848922
0.0865961
0.0879006
0.0889084
0.0896999
0.090379
0.0910502
0.0917644
0.0924575
0.0930612
0.0936031
0.0940693
0.0944412
0.0947525
0.0949548
0.0950369
0.0949616
0.0949505
0.0951563
0.0952836
0.0953706
0.0954835
0.0946381
0.0891976
0.074238
0.0553473
0.0296599
0.00645218
0.000369683
1.01318e-05
4.05362e-06
1.51167e-06
6.03082e-06
1.27223e-06
2.32968e-05
2.91495e-05
7.39633e-06
5.68089e-05
9.22835e-06
3.26234e-07
9.86557e-09
2.12807e-10
1.6535e-12
4.83656e-05
0.000211075
0.00125083
0.00429475
0.010284
0.0192964
0.0302093
0.0412831
0.0511268
0.0592784
0.0659797
0.0715721
0.0761307
0.0797222
0.082517
0.084686
0.0863797
0.0876906
0.0886994
0.0894652
0.0901262
0.0908027
0.0915287
0.0922172
0.0928202
0.0933422
0.0938186
0.0942071
0.094494
0.0947327
0.0948397
0.094822
0.0947085
0.0948301
0.0949947
0.0950534
0.0951418
0.0949453
0.0921264
0.0813436
0.0634223
0.0420864
0.0146161
0.00162563
2.70787e-05
2.33781e-06
1.94414e-07
2.68257e-06
3.93522e-06
6.47465e-06
3.42824e-05
1.43497e-05
2.95618e-05
4.33653e-05
2.93937e-06
1.04697e-07
2.79709e-09
5.49406e-11
3.67864e-13
4.82298e-05
0.000210689
0.00124776
0.00428077
0.010245
0.0192192
0.0301003
0.0411605
0.051031
0.0591931
0.0658918
0.0714585
0.0759795
0.0795517
0.0823349
0.0844966
0.0861681
0.0874703
0.0884891
0.0892652
0.089888
0.0905557
0.0912852
0.091984
0.0925851
0.0931077
0.0935641
0.0939562
0.0942927
0.0945184
0.0946361
0.0946532
0.0945447
0.0945101
0.0946992
0.0947823
0.0948337
0.0948028
0.0935551
0.0868381
0.0710012
0.0521338
0.026082
0.00503631
0.000207016
4.88428e-06
2.23338e-06
1.8161e-06
4.26169e-06
1.96839e-06
9.07251e-06
3.26513e-05
1.90083e-06
5.25353e-05
2.31918e-05
9.69921e-07
2.93932e-08
7.31554e-10
1.28009e-11
7.31845e-14
4.80687e-05
0.000210239
0.00124657
0.00427322
0.0102178
0.0191588
0.0299996
0.0410368
0.0509018
0.0590888
0.065793
0.0713558
0.0758585
0.0793972
0.0821691
0.0843217
0.0859827
0.0872638
0.0882584
0.0890561
0.0896942
0.0903243
0.0910434
0.0917446
0.0923543
0.0928735
0.0933299
0.0937029
0.0940278
0.0943016
0.0944537
0.0944826
0.0943763
0.0942427
0.0943763
0.0945136
0.0945493
0.0945825
0.0940359
0.0903205
0.0779547
0.0602452
0.0381489
0.0118404
0.00111354
1.36066e-05
2.6782e-06
1.52333e-06
3.23465e-06
6.09533e-06
3.49506e-06
1.54645e-05
2.47346e-05
1.14499e-05
5.49616e-05
8.69721e-06
2.74232e-07
7.82023e-09
1.72115e-10
2.66159e-12
1.2958e-14
4.78807e-05
0.000209617
0.00124493
0.00427161
0.010205
0.0191175
0.0299227
0.0409234
0.0507747
0.0589564
0.0656778
0.0712459
0.0757404
0.0792649
0.0820167
0.0841559
0.0858117
0.0870844
0.0880522
0.0888234
0.0894923
0.0901343
0.0908224
0.0915032
0.0921203
0.0926523
0.0931004
0.0934807
0.0937923
0.0940637
0.0942538
0.0942948
0.0942595
0.0940719
0.0940559
0.09423
0.0943054
0.0943127
0.0941322
0.0921333
0.0838348
0.0672563
0.0484057
0.0220177
0.00372705
0.000153045
7.47082e-06
1.90143e-06
7.74492e-07
3.44587e-06
6.51906e-06
4.79175e-07
2.96884e-05
1.22133e-05
3.00909e-05
4.08627e-05
2.4013e-06
7.42399e-08
1.86072e-09
3.62638e-11
4.78674e-13
2.07857e-15
4.76864e-05
0.000208855
0.00124215
0.00426846
0.010205
0.0190997
0.0298694
0.0408358
0.0506553
0.0588293
0.0655442
0.0711219
0.0756231
0.0791378
0.0818756
0.0840059
0.0856424
0.0869117
0.0878769
0.0886121
0.089271
0.0899412
0.0906318
0.0912877
0.0918813
0.0924187
0.0928817
0.0932751
0.0936023
0.0938493
0.0940566
0.0941567
0.0940811
0.0939102
0.0938141
0.0939387
0.094028
0.0940544
0.094013
0.0930575
0.0879124
0.0740381
0.0564626
0.0335927
0.00903482
0.000770339
3.11421e-05
9.62937e-06
3.47735e-06
1.33837e-06
2.39215e-06
2.41245e-06
1.2699e-05
3.37199e-05
5.1902e-07
5.49276e-05
1.89084e-05
6.7243e-07
1.80028e-08
3.95831e-10
6.785e-12
7.27478e-14
2.95018e-16
4.74958e-05
0.000208021
0.00123846
0.00426138
0.0102015
0.0191028
0.0298479
0.0407736
0.0505631
0.0587098
0.0654178
0.0709866
0.0754971
0.0790128
0.0817406
0.0838628
0.0854905
0.0867383
0.0876983
0.0884261
0.089057
0.0897332
0.0904472
0.0911005
0.0916648
0.0921863
0.0926552
0.0930422
0.0933671
0.0936571
0.0938243
0.0939581
0.0939686
0.0938196
0.0935835
0.0936214
0.093754
0.0937813
0.0937701
0.0933809
0.0904744
0.0801565
0.0632417
0.0439049
0.0176275
0.00258004
0.000101482
1.241e-05
5.45035e-06
2.36523e-06
1.44313e-06
2.5278e-06
3.26936e-06
2.04272e-05
1.94537e-05
1.88543e-05
5.23056e-05
5.85415e-06
1.63371e-07
3.87186e-09
7.49532e-11
1.11819e-12
9.17325e-15
4.87799e-17
4.72976e-05
0.000207144
0.00123418
0.00425122
0.0101891
0.0191007
0.0298516
0.0407476
0.0504947
0.0586169
0.0652965
0.0708646
0.0753595
0.0788826
0.081603
0.0837146
0.0853535
0.0865827
0.0875262
0.0882459
0.0888675
0.0895312
0.0902479
0.0909199
0.0914861
0.0919725
0.0924247
0.092841
0.0931662
0.0934322
0.0936268
0.0937633
0.0938041
0.0936969
0.0934806
0.0933382
0.0934444
0.0935143
0.0935283
0.0933764
0.0918386
0.0850445
0.0698577
0.0521953
0.0282842
0.0063504
0.00046
6.2119e-06
5.47492e-07
1.183e-06
9.56974e-07
1.01086e-06
3.91403e-06
9.05457e-07
2.3543e-05
2.17128e-06
4.31814e-05
3.12712e-05
1.40383e-06
3.52603e-08
7.44744e-10
1.26814e-11
1.56474e-13
8.87074e-16
9.57251e-18
4.7098e-05
0.000206187
0.00122947
0.00423871
0.0101692
0.0190821
0.0298498
0.0407482
0.0504628
0.0585455
0.0652001
0.070744
0.0752364
0.0787454
0.0814692
0.0835666
0.085196
0.086446
0.0873761
0.0880811
0.0886936
0.0893503
0.0900507
0.0907202
0.0913042
0.0917953
0.0922135
0.0926068
0.0929602
0.0932539
0.0934477
0.0935733
0.0936173
0.093565
0.09337
0.0931186
0.0931648
0.0932306
0.0932735
0.0932177
0.0924355
0.0882778
0.075992
0.0592072
0.0386495
0.0131833
0.00161257
2.69739e-05
7.95255e-06
3.32405e-06
1.91648e-06
2.40905e-06
5.70137e-06
6.53071e-06
6.20123e-06
2.55539e-05
7.63914e-06
5.50544e-05
1.15077e-05
3.04132e-07
6.92636e-09
1.2808e-10
1.88999e-12
1.9176e-14
1.05815e-16
4.59813e-18
4.69037e-05
0.000205194
0.00122408
0.00422449
0.0101435
0.0190513
0.0298237
0.0407404
0.0504537
0.0585045
0.0651224
0.0706401
0.075128
0.0786254
0.0813357
0.0834222
0.0850381
0.0862832
0.0872265
0.0879325
0.0885325
0.0891767
0.089872
0.0905197
0.0911032
0.0916191
0.0920444
0.0924004
0.0927235
0.0930312
0.0932546
0.0933676
0.0934435
0.0933896
0.0932349
0.0929991
0.0928764
0.0929916
0.0930057
0.0929745
0.0926032
0.0901446
0.0813105
0.0653002
0.0475543
0.0225607
0.00419746
0.000251713
5.05302e-06
3.6917e-06
1.47477e-06
1.11908e-06
2.28726e-06
6.0098e-06
1.82183e-06
2.25463e-05
1.53867e-05
2.73085e-05
4.23252e-05
2.55615e-06
6.08334e-08
1.21327e-09
1.95878e-11
2.33326e-13
1.23615e-15
2.94351e-17
7.26163e-18
4.67257e-05
0.000204208
0.00121833
0.00420765
0.010114
0.0190104
0.0297833
0.0407065
0.0504369
0.0584807
0.0650716
0.0705552
0.0750259
0.0785158
0.0812226
0.0832881
0.0848798
0.0861074
0.0870538
0.0877827
0.088381
0.0890171
0.0896997
0.0903379
0.0909063
0.0914192
0.0918733
0.0922366
0.0925349
0.0928129
0.0930403
0.0931956
0.0932732
0.0932489
0.0931214
0.0928634
0.092667
0.0927179
0.0927753
0.0927513
0.0925589
0.0912067
0.0853196
0.071333
0.0545993
0.0328174
0.00919356
0.000969931
4.02516e-05
4.3618e-06
2.36713e-06
1.25766e-06
1.318e-06
6.76975e-07
2.05027e-06
1.03096e-05
2.87602e-05
2.16657e-07
5.23245e-05
1.80798e-05
5.30674e-07
1.09843e-08
1.88525e-10
2.58194e-12
2.30081e-14
8.37513e-18
1.3058e-17
1.00824e-18
4.65533e-05
0.00020328
0.00121248
0.00418944
0.0100783
0.0189634
0.0297301
0.0406583
0.0503938
0.0584503
0.0650326
0.0704949
0.0749356
0.078421
0.0811101
0.0831816
0.0847403
0.0859469
0.0868715
0.0876083
0.0882423
0.0888738
0.0895353
0.0901656
0.0907225
0.0912232
0.091674
0.0920671
0.0923657
0.0926165
0.0928562
0.0930211
0.0931018
0.0931261
0.0929983
0.0927286
0.0924991
0.0924941
0.09253
0.092547
0.0923999
0.0916984
0.0879783
0.0768589
0.0606744
0.0419581
0.0168703
0.00264174
0.000163903
2.42243e-05
7.37387e-06
3.28742e-06
2.45342e-06
2.43843e-06
1.12282e-06
2.45107e-06
1.51378e-05
1.64486e-05
2.40468e-05
4.79552e-05
4.48382e-06
9.68403e-08
1.73477e-09
2.56204e-11
2.55744e-13
1.53947e-15
1.63132e-17
1.37989e-17
4.01617e-18
4.63937e-05
0.000202421
0.00120688
0.00417065
0.0100393
0.0189056
0.029668
0.0405957
0.0503376
0.0583967
0.0649878
0.0704402
0.0748658
0.0783236
0.0810117
0.0830778
0.0846413
0.0858086
0.0867076
0.087424
0.0880813
0.0887431
0.0893952
0.0900032
0.0905515
0.0910407
0.0914783
0.0918726
0.0922236
0.0924564
0.0926501
0.0928253
0.0929547
0.0929659
0.0928847
0.0926445
0.0923194
0.092244
0.092328
0.0922938
0.0922432
0.0918352
0.0895763
0.0815283
0.0663304
0.0495074
0.0262348
0.0059074
0.000558442
4.2588e-05
1.29787e-05
4.40209e-06
2.21706e-06
1.59881e-06
3.40999e-07
3.00145e-06
7.25556e-07
1.91381e-05
1.74442e-06
4.70439e-05
2.46342e-05
8.22624e-07
1.53582e-08
2.39702e-10
2.69367e-12
2.11553e-14
4.20577e-17
3.22653e-17
9.12645e-18
6.45801e-19
4.62436e-05
0.000201638
0.0012017
0.00415204
0.00999832
0.018843
0.029591
0.0405236
0.0502672
0.0583338
0.0649225
0.0703835
0.0747993
0.0782491
0.0809177
0.0829798
0.0845459
0.0857117
0.0865653
0.0872485
0.0879015
0.0886003
0.0892713
0.0898649
0.090392
0.09087
0.091298
0.0916775
0.0920231
0.0923047
0.0925233
0.0926522
0.0927472
0.0927981
0.0927504
0.0925533
0.0922182
0.0920089
0.0920438
0.0920695
0.0920223
0.0918036
0.0905006
0.0850178
0.0718527
0.0557415
0.0355143
0.0115512
0.00154566
5.82081e-05
9.92021e-06
3.1403e-06
5.11931e-07
1.55792e-07
1.29742e-06
4.48583e-06
5.82713e-06
4.85426e-06
1.75376e-05
1.24934e-05
4.86403e-05
6.67985e-06
1.32351e-07
2.15772e-09
2.61315e-11
2.44839e-13
1.38874e-15
3.68274e-17
6.25625e-18
1.73654e-18
1.7566e-19
4.61052e-05
0.000200913
0.00119696
0.00413471
0.00995725
0.0187753
0.0295076
0.0404343
0.0501908
0.0582577
0.0648549
0.0703073
0.0747306
0.078179
0.0808359
0.0828881
0.0844557
0.0856207
0.0864669
0.0870955
0.0877204
0.0884321
0.0891381
0.089745
0.0902574
0.0907117
0.0911241
0.0914982
0.0918299
0.0921109
0.0923444
0.0925309
0.0925904
0.0926455
0.0925981
0.0924555
0.0921219
0.0918386
0.0917813
0.0918367
0.0917956
0.0916814
0.0909179
0.0874009
0.0768495
0.061225
0.0436105
0.019443
0.00345783
0.000246712
5.00677e-06
3.46175e-06
1.48363e-06
1.27903e-06
1.27374e-06
2.68511e-06
4.8968e-06
1.59522e-06
2.03291e-05
8.73133e-06
3.89049e-05
2.94536e-05
1.1106e-06
1.8855e-08
2.4879e-10
2.52866e-12
1.64916e-14
4.23885e-17
7.3031e-18
6.22474e-18
6.51131e-18
1.94218e-18
4.59716e-05
0.000200253
0.00119255
0.00411891
0.00991822
0.0187071
0.0294181
0.040339
0.0500973
0.0581798
0.0647753
0.0702315
0.0746435
0.0780979
0.0807539
0.0828048
0.0843674
0.0855395
0.0863773
0.0869936
0.0875673
0.0882618
0.0889776
0.0896094
0.0901383
0.090577
0.0909665
0.091327
0.09165
0.0919175
0.0921779
0.0923787
0.0924523
0.0924579
0.0924569
0.0923347
0.0920797
0.0917046
0.0915371
0.0915737
0.0916001
0.0914925
0.0910605
0.0888229
0.0811091
0.0664468
0.0503102
0.0282975
0.00718948
0.000771273
1.62736e-05
4.749e-06
1.05061e-06
5.26719e-07
1.94615e-07
7.09928e-08
6.31554e-07
1.78691e-06
1.05347e-05
2.07953e-05
6.839e-06
5.18988e-05
8.69063e-06
1.61677e-07
2.29184e-09
2.52173e-11
2.04018e-13
1.02271e-15
2.49002e-17
1.02123e-18
8.02222e-19
1.06589e-18
1.43435e-19
4.58449e-05
0.000199625
0.00118859
0.00410423
0.00988243
0.018641
0.029329
0.0402395
0.0499987
0.058086
0.0646934
0.0701489
0.074559
0.0780012
0.0806609
0.0827067
0.0842833
0.0854568
0.0863055
0.0869094
0.087461
0.0881123
0.088815
0.0894517
0.090003
0.0904605
0.0908336
0.0911686
0.0914827
0.091748
0.0919887
0.0921851
0.0923307
0.0923342
0.092297
0.0921891
0.0919807
0.0916162
0.0913663
0.091332
0.0913505
0.0913065
0.0910335
0.0896488
0.0842652
0.0715091
0.0559336
0.0367517
0.0130992
0.00198161
9.63845e-05
9.69593e-06
3.7708e-06
1.62688e-06
1.15381e-06
1.83402e-06
2.62668e-06
8.86555e-07
3.02772e-06
1.53825e-05
6.726e-06
3.70419e-05
3.09065e-05
1.35683e-06
1.99567e-08
2.43329e-10
2.20685e-12
1.16326e-14
7.45733e-17
1.02689e-17
4.77164e-18
1.8437e-18
3.22653e-18
3.42302e-19
4.57125e-05
0.000199044
0.00118486
0.00409074