/*--------------------------------*- C++ -*----------------------------------*\
| =========                 |                                                 |
| \\      /  F ield         | OpenFOAM: The Open Source CFD Toolbox           |
|  \\    /   O peration     | Version:  v2012                                 |
|   \\  /    A nd           | Website:  www.openfoam.com                      |
|    \\/     M anipulation  |                                                 |
\*---------------------------------------------------------------------------*/
FoamFile
{
    version     2.0;
    format      ascii;
    class       volScalarField;
    location    "13600";
    object      nk;
}
// * * * * * * * * * * * * * * * * * * * * * * * * * * * * * * * * * * * * * //

dimensions      [0 0 0 0 0 0 0];


internalField   nonuniform List<scalar> 
39402
(
0.0482626
0.053388
0.00288961
0.0534306
0.00134497
0.000587752
0.0543108
0.00116034
0.000239252
0.000197241
0.05499
0.00279181
0.000177674
9.92855e-05
9.38363e-05
0.0552719
0.00414231
0.00410547
8.28161e-05
6.28402e-05
5.90152e-05
0.0554265
0.00470712
0.00722346
0.00682223
7.54371e-05
4.77366e-05
4.44282e-05
0.0555012
0.0050189
0.00852449
0.0120845
0.00981542
8.37416e-05
3.86611e-05
3.69129e-05
0.0555411
0.00516836
0.00923686
0.0142735
0.0172725
0.0127035
9.39946e-05
3.17736e-05
3.2292e-05
0.0555629
0.00523894
0.00958384
0.0154585
0.0203405
0.0221077
0.0151671
0.000101861
2.60444e-05
2.90593e-05
0.0555744
0.00526819
0.0097504
0.0160408
0.0219705
0.0258872
0.0260274
0.0169642
0.000105274
2.12279e-05
2.66147e-05
0.0555815
0.00527532
0.00982328
0.0163225
0.0227691
0.0278355
0.0302464
0.0286968
0.0179814
0.00010431
1.72651e-05
2.4506e-05
0.0555827
0.0052752
0.00984542
0.0164489
0.0231585
0.028772
0.0323381
0.0330978
0.0300775
0.0182512
0.000100368
1.40823e-05
2.26721e-05
0.0555805
0.00526894
0.00985036
0.0164912
0.0233364
0.0292324
0.0333088
0.0351916
0.0345049
0.0303081
0.017982
9.44567e-05
1.15442e-05
2.11421e-05
0.0555807
0.00525518
0.00984054
0.0165049
0.0234036
0.0294473
0.0337909
0.0361207
0.0365367
0.0347201
0.0297403
0.0173166
8.75634e-05
9.53823e-06
1.98497e-05
0.0555788
0.00524383
0.00981254
0.0164926
0.0234327
0.0295408
0.0340218
0.0365899
0.0373991
0.0366927
0.0341282
0.0286037
0.0163656
8.02978e-05
7.99077e-06
1.87275e-05
0.0555743
0.00523109
0.00978885
0.0164502
0.0234266
0.0295947
0.0341387
0.0368193
0.0378451
0.0375019
0.0360664
0.0329862
0.0270709
0.0152171
7.16534e-05
6.83644e-06
1.77321e-05
0.0555714
0.00521666
0.0097615
0.0164131
0.0233805
0.0296094
0.0342241
0.0369567
0.0380671
0.0379317
0.0368503
0.0349258
0.0314735
0.0252866
0.0139394
6.00279e-05
5.99994e-06
1.68313e-05
0.0555682
0.00520175
0.00972952
0.0163696
0.0233393
0.0295799
0.0342746
0.0370747
0.0382226
0.0381492
0.0372751
0.035715
0.0334526
0.0297177
0.0233569
0.0125203
4.65778e-05
5.41428e-06
1.59982e-05
0.05556
0.00518499
0.00969577
0.0163176
0.0232887
0.0295559
0.0342829
0.037167
0.0383705
0.0383237
0.0374954
0.0361454
0.0342778
0.0317715
0.0277985
0.0212915
0.0108879
3.27952e-05
5.01621e-06
1.5215e-05
0.0555543
0.00516302
0.00965724
0.0162621
0.023226
0.029519
0.0342971
0.0372245
0.0385032
0.0384991
0.0376891
0.0363796
0.0347259
0.032659
0.0299608
0.0257729
0.0191305
0.0091443
2.08475e-05
4.72528e-06
1.44937e-05
0.0555523
0.00514907
0.00960797
0.0161986
0.0231577
0.0294675
0.0342974
0.0372885
0.038609
0.0386686
0.0378878
0.0365937
0.0349848
0.0331391
0.0309354
0.0280716
0.0236699
0.0168955
0.00735673
1.21632e-05
4.40157e-06
1.38511e-05
0.0555448
0.00513832
0.00957556
0.0161177
0.0230781
0.0294081
0.0342815
0.0373387
0.0387228
0.0388182
0.0380868
0.0368138
0.0352217
0.0334325
0.0314662
0.0291556
0.0261301
0.0215018
0.0146106
0.00560426
6.76086e-06
4.11366e-06
1.33589e-05
0.0555406
0.00511537
0.00954946
0.0160631
0.0229756
0.0293345
0.0342567
0.0373734
0.0388237
0.0389766
0.0382707
0.0370382
0.0354625
0.0336957
0.0318016
0.0297553
0.0273473
0.0241462
0.0192812
0.0123127
0.00397478
3.90304e-06
3.86162e-06
1.30424e-05
0.0555332
0.00510208
0.00949711
0.0160184
0.0229074
0.0292364
0.034216
0.0373988
0.0389108
0.0391236
0.0384639
0.0372505
0.0357097
0.0339579
0.0320951
0.030142
0.0280344
0.0255211
0.0221243
0.0170205
0.0100568
0.00256502
2.52301e-06
3.63326e-06
1.29192e-05
0.0555279
0.00508539
0.0094659
0.0159319
0.0228498
0.0291755
0.0341529
0.0374084
0.0389887
0.0392582
0.0386467
0.0374716
0.0359455
0.0342255
0.0323801
0.03047
0.0284816
0.0263147
0.0236808
0.0200664
0.0147322
0.0079296
0.0014611
1.88544e-06
3.42821e-06
1.29114e-05
0.0555236
0.00507021
0.00942706
0.0158788
0.0227382
0.029123
0.0341254
0.0374001
0.0390517
0.0393844
0.0388181
0.0376832
0.0361896
0.0344822
0.0326679
0.0307805
0.0288504
0.0268342
0.0246015
0.0218248
0.0179693
0.0124439
0.00595538
0.000711912
1.57323e-06
3.25462e-06
1.29655e-05
0.0555201
0.00505479
0.00939203
0.0158142
0.02267
0.0290093
0.0340996
0.0374233
0.0391026
0.039497
0.0389818
0.0378842
0.0364242
0.0347457
0.0329438
0.0310886
0.0291892
0.0272509
0.0252057
0.0228929
0.0199466
0.0158345
0.0101937
0.0041625
0.000292692
1.41031e-06
3.11047e-06
1.30645e-05
0.0555132
0.00504135
0.00935599
0.0157553
0.022586
0.0289447
0.0340137
0.0374397
0.0391795
0.0396019
0.0391325
0.0380769
0.0366487
0.0349995
0.0332241
0.0313829
0.0295193
0.0276224
0.0256785
0.0235965
0.0211826
0.0180385
0.0136702
0.00804364
0.002627
0.000104928
1.31675e-06
3.00059e-06
1.31944e-05
0.0555067
0.00502445
0.00932493
0.0156951
0.0225096
0.0288613
0.0339761
0.0374024
0.039242
0.0397282
0.0392786
0.0382577
0.0368647
0.0352426
0.0334939
0.0316789
0.0298324
0.0279771
0.0260883
0.0241347
0.0220016
0.019462
0.0160932
0.0115018
0.0060781
0.00144041
3.49565e-05
1.26042e-06
2.8936e-06
1.33676e-05
0.0555018
0.00501025
0.00928679
0.0156431
0.0224314
0.0287854
0.0339181
0.037409
0.0392588
0.039834
0.0394429
0.0384362
0.0370689
0.0354769
0.0337525
0.031963
0.0301433
0.02831
0.0264708
0.0245888
0.0226162
0.0204123
0.0177186
0.0141089
0.00937039
0.00431307
0.000663602
1.15e-05
1.2185e-06
2.83897e-06
1.35702e-05
0.0555
0.00499496
0.00925454
0.0155801
0.0223637
0.0287063
0.0338657
0.0373937
0.0393139
0.0399019
0.0395823
0.0386296
0.0372719
0.0356992
0.0340016
0.0322349
0.030441
0.0286368
0.0268257
0.025003
0.0231222
0.0211159
0.0188189
0.0159422
0.0120931
0.00733442
0.00277819
0.000260159
3.98945e-06
1.18583e-06
2.81302e-06
1.37845e-05
0.0554954
0.0049844
0.00922023
0.0155269
0.0222818
0.0286382
0.0338088
0.0373817
0.0393468
0.040002
0.0396897
0.0387956
0.0374874
0.0359211
0.0342385
0.0324964
0.0307249
0.028948
0.0271694
0.0253825
0.0235728
0.0216824
0.0196258
0.0172092
0.0141247
0.0100689
0.00547777
0.00155407
9.33357e-05
1.65104e-06
1.15671e-06
2.79018e-06
1.39832e-05
0.0554904
0.00496931
0.00919643
0.0154705
0.0222129
0.0285533
0.0337614
0.0373642
0.0393805
0.0400811
0.0398248
0.0389342
0.0376744
0.0361527
0.0344742
0.0327448
0.0309972
0.0292438
0.0274944
0.0257447
0.0239802
0.0221757
0.020263
0.0181352
0.0155707
0.0122642
0.00808186
0.003834
0.000726354
3.2668e-05
9.27373e-07
1.1299e-06
2.7649e-06
1.41464e-05
0.0554857
0.00495394
0.00916336
0.0154311
0.0221398
0.0284832
0.0336956
0.0373533
0.0394077
0.0401584
0.0399391
0.0390962
0.0378366
0.0363559
0.0347186
0.0329914
0.0312557
0.0295262
0.0278023
0.0260854
0.0243634
0.0226153
0.0208058
0.0188547
0.0166317
0.013893
0.010373
0.00620714
0.0024182
0.000286921
1.11831e-05
6.98567e-07
1.10743e-06
2.7412e-06
1.4275e-05
0.055481
0.00494165
0.00912986
0.0153778
0.0220888
0.0284081
0.0336434
0.0373236
0.0394386
0.0402288
0.04005
0.0392378
0.0380189
0.0365361
0.0349337
0.0332452
0.0315108
0.0297933
0.0280948
0.0264058
0.0247208
0.0230224
0.0212822
0.0194559
0.0174475
0.0151036
0.0121702
0.00848357
0.00453232
0.00130924
0.000104751
3.80184e-06
6.2143e-07
1.08859e-06
2.71894e-06
1.43896e-05
0.0554779
0.00492999
0.00910375
0.0153238
0.0220198
0.0283573
0.0335857
0.0373042
0.0394509
0.0403
0.0401535
0.0393751
0.0381814
0.0367333
0.0351273
0.03347
0.0317719
0.0300559
0.0283705
0.0267088
0.0250554
0.023399
0.0217172
0.0199749
0.0181166
0.0160299
0.0135387
0.0104066
0.00665811
0.00305849
0.000588013
3.77969e-05
1.40143e-06
5.91645e-07
1.0739e-06
2.70335e-06
1.45724e-05
0.0554752
0.00492019
0.00907922
0.0152827
0.0219507
0.0282856
0.03355
0.0372784
0.0394696
0.0403509
0.0402565
0.0395046
0.0383385
0.0369116
0.0353353
0.0336733
0.0320045
0.0303232
0.0286401
0.0269932
0.0253698
0.0237491
0.0221155
0.0204417
0.0186855
0.0167783
0.0145896
0.0119287
0.00862326
0.00497892
0.00182245
0.00023054
1.34573e-05
6.59934e-07
5.77228e-07
1.06148e-06
2.73036e-06
1.48161e-05
0.0554718
0.00490948
0.00905884
0.0152443
0.0218985
0.0282142
0.0334917
0.03727
0.0394816
0.040405
0.0403406
0.0396316
0.0384878
0.0370832
0.0355248
0.0338892
0.0322156
0.0305624
0.0289126
0.0272699
0.0256638
0.0240763
0.0224835
0.0208653
0.0191895
0.0174059
0.0154308
0.0131148
0.0102729
0.00686513
0.00349845
0.000912943
8.58098e-05
4.63195e-06
4.39366e-07
5.6873e-07
1.06372e-06
2.816e-06
1.47819e-05
0.0554683
0.00489565
0.00903756
0.0152122
0.0218506
0.0281617
0.0334349
0.0372382
0.0395049
0.0404527
0.0404256
0.0397415
0.0386334
0.0372471
0.0357075
0.0340872
0.032437
0.0307794
0.0291576
0.0275476
0.0259477
0.0243808
0.0228251
0.0212535
0.0196421
0.0179533
0.0161269
0.0140619
0.0115962
0.00858578
0.00521642
0.00222025
0.00038456
3.16906e-05
1.60969e-06
3.76049e-07
5.67884e-07
1.08563e-06
2.85728e-06
1.47821e-05
0.0554657
0.00488265
0.00900993
0.0151801
0.0218106
0.0281144
0.0333969
0.0372088
0.0395049
0.040506
0.0405038
0.0398497
0.0387627
0.0374067
0.0358819
0.0342775
0.0326412
0.0310053
0.0293804
0.0277982
0.0262309
0.0246729
0.0231415
0.0216115
0.0200535
0.0184394
0.0167251
0.0148383
0.0126606
0.0100309
0.00690554
0.00375832
0.00121299
0.000149036
1.16233e-05
6.43512e-07
3.59513e-07
5.74723e-07
1.09945e-06
2.89468e-06
1.47799e-05
0.0554633
0.00487452
0.00898404
0.0151382
0.0217717
0.028075
0.0333622
0.0371962
0.039508
0.0405361
0.0405818
0.0399505
0.0388884
0.0375503
0.0360512
0.0344592
0.0328372
0.0312141
0.0296096
0.0280263
0.0264873
0.0249619
0.0234428
0.0219415
0.0204308
0.0188779
0.0172506
0.0154961
0.0135289
0.0112167
0.00842943
0.00531171
0.00248123
0.00055289
5.72146e-05
4.08423e-06
3.53306e-07
3.58417e-07
5.80537e-07
1.0995e-06
2.92578e-06
1.47773e-05
0.0554605
0.00486858
0.00896939
0.0150992
0.02172
0.0280373
0.0333337
0.0371841
0.0395247
0.0405698
0.0406386
0.0400484
0.0390064
0.0376889
0.0362052
0.0346356
0.0330245
0.0314144
0.0298225
0.0282588
0.0267212
0.0252251
0.023739
0.0222539
0.0207769
0.0192772
0.0177203
0.0160673
0.0142567
0.0121874
0.00972629
0.00682389
0.00388112
0.00143121
0.000222323
2.176e-05
1.41597e-06
2.74106e-07
3.61417e-07
5.79899e-07
1.09934e-06
2.95252e-06
1.47745e-05
0.0554588
0.00486048
0.00895922
0.0150789
0.0216724
0.0279844
0.0333065
0.0371751
0.0395385
0.0406134
0.0406991
0.0401247
0.0391192
0.0378199
0.0363533
0.034797
0.0332055
0.0316057
0.0300262
0.0284756
0.0269573
0.0254654
0.0240092
0.0225581
0.0211015
0.0196412
0.0181447
0.0165733
0.0148813
0.0129959
0.0108043
0.0081972
0.00528678
0.00262171
0.000692662
8.78228e-05
8.06422e-06
5.47308e-07
2.55618e-07
3.62437e-07
5.77801e-07
1.10028e-06
2.97155e-06
1.47714e-05
0.0554596
0.00484944
0.00894451
0.0150659
0.0216501
0.0279369
0.0332642
0.0371656
0.0395513
0.040652
0.0407659
0.0402053
0.039211
0.0379438
0.0364938
0.0349518
0.0333723
0.0317902
0.0302204
0.0286826
0.0271779
0.0257055
0.024257
0.0228366
0.0214154
0.0199806
0.0185296
0.0170272
0.01543
0.0136837
0.0117034
0.00937498
0.00665777
0.00389359
0.00156523
0.000288917
3.47511e-05
2.85284e-06
2.85082e-07
2.51495e-07
3.62347e-07
5.78894e-07
1.10416e-06
2.98682e-06
1.47695e-05
0.0554607
0.00484006
0.00892411
0.0150455
0.0216374
0.0279187
0.0332283
0.0371418
0.0395627
0.0406854
0.0408257
0.0402894
0.0393062
0.0380467
0.0366261
0.0350988
0.033532
0.0319607
0.0304081
0.0288796
0.0273882
0.0259305
0.0245022
0.0230926
0.0217031
0.0203058
0.0188863
0.0174362
0.0159179
0.0142817
0.0124642
0.0103693
0.00790613
0.00517623
0.00266423
0.000789441
0.000115656
1.33821e-05
1.0025e-06
2.11446e-07
2.50176e-07
3.61842e-07
5.81504e-07
1.11187e-06
3.04101e-06
1.47676e-05
0.0554582
0.00483105
0.00890781
0.0150168
0.0216141
0.0279108
0.0332214
0.0371257
0.0395607
0.0407157
0.0408776
0.040365
0.0394035
0.0381529
0.0367373
0.0352374
0.0336838
0.0321243
0.0305816
0.0290696
0.0275881
0.0261444
0.0247318
0.0233429
0.0219672
0.0206036
0.0192245
0.0178124
0.0163547
0.0148094
0.0131201
0.0112119
0.00898933
0.0064243
0.00382717
0.00162137
0.00033924
4.68622e-05
4.92926e-06
3.97272e-07
1.91801e-07
2.49807e-07
3.62354e-07
5.85622e-07
1.14362e-06
3.03127e-06
1.47655e-05
0.055455
0.00482135
0.0088918
0.0149952
0.0215809
0.0278898
0.0332226
0.0371353
0.0395672
0.040734
0.0409238
0.0404305
0.039491
0.0382597
0.0368509
0.0353548
0.0338267
0.0322793
0.0307478
0.029246
0.0277805
0.0263477
0.0249498
0.0235775
0.0222234
0.0208769
0.0195338
0.0181661
0.0167537
0.0152785
0.013694
0.011935
0.00991813
0.00757021
0.00499636
0.00263425
0.000837707
0.000137251
1.8651e-05
1.73813e-06
2.13777e-07
1.86633e-07
2.49999e-07
3.64082e-07
5.95971e-07
1.1523e-06
3.02871e-06
1.47633e-05
0.0554502
0.00481408
0.00887499
0.0149736
0.0215577
0.0278576
0.0332082
0.0371482
0.0395947
0.0407618
0.0409599
0.0404893
0.0395669
0.0383565
0.0369645
0.0354738
0.0339482
0.0324253
0.0309051
0.0294142
0.0279593
0.0265426
0.025156
0.0237994
0.0224631
0.0211392
0.0198165
0.0184892
0.0171258
0.0157041
0.0142007
0.0125629
0.0107164
0.00857879
0.00613877
0.00369541
0.00161712
0.000367587
5.63245e-05
7.06434e-06
6.25105e-07
1.62186e-07
1.85355e-07
2.51239e-07
3.68963e-07
5.98528e-07
1.15767e-06
3.02723e-06
1.47605e-05
0.0554467
0.004811
0.00886367
0.0149511
0.0215342
0.0278376
0.0331838
0.0371443
0.0396192
0.0408046
0.0410048
0.0405385
0.039635
0.0384402
0.0370681
0.0355922
0.0340708
0.0325501
0.0310535
0.0295737
0.0281297
0.0267238
0.0253533
0.0240092
0.0226896
0.0213848
0.0200864
0.0187832
0.0174648
0.0160974
0.0146575
0.0131139
0.0114068
0.00945549
0.00720183
0.0047625
0.00254396
0.000845976
0.000149449
2.29065e-05
2.54612e-06
2.64712e-07
1.48606e-07
1.85645e-07
2.54144e-07
3.72638e-07
6.00662e-07
1.16069e-06
3.02623e-06
1.47578e-05
0.055444
0.00480964
0.00886157
0.0149378
0.0215101
0.0278173
0.0331724
0.0371319
0.0396262
0.0408394
0.0410609
0.0405967
0.0396942
0.0385154
0.0371577
0.0357003
0.0341928
0.0326753
0.0311809
0.029724
0.028291
0.0268963
0.0255371
0.0242091
0.0229033
0.0216165
0.0203388
0.0190611
0.0177719
0.0164548
0.0150755
0.0136069
0.0120093
0.0102154
0.00814931
0.00581537
0.00351235
0.00156144
0.0003752
6.1738e-05
8.87205e-06
8.96527e-07
1.56532e-07
1.45574e-07
1.87174e-07
2.56393e-07
3.75612e-07
6.04677e-07
1.16897e-06
3.02575e-06
1.4755e-05
0.055445
0.00480492
0.00886277
0.0149395
0.0214986
0.0277971
0.0331599
0.0371319
0.0396267
0.0408568
0.0411044
0.0406617
0.0397623
0.0385819
0.0372382
0.0357939
0.0343039
0.032799
0.0313078
0.0298536
0.0284431
0.0270597
0.0257116
0.0243955
0.0231063
0.0218343
0.0205761
0.0193213
0.0180597
0.0167784
0.015454
0.014054
0.012545
0.0108773
0.00898107
0.00680686
0.00448893
0.00240528
0.000817026
0.000153138
2.5448e-05
3.24686e-06
3.39586e-07
1.2678e-07
1.45635e-07
1.88724e-07
2.5827e-07
3.77669e-07
6.1479e-07
1.16607e-06
3.02567e-06
1.47528e-05
0.0554468
0.0047963
0.00885685
0.0149457
0.0215064
0.027792
0.0331484
0.0371299
0.0396387
0.0408687
0.0411308
0.0407118
0.0398342
0.0386567
0.0373098
0.0358784
0.0344005
0.0329128
0.0314332
0.0299816
0.0285751
0.0272135
0.0258768
0.0245721
0.0232954
0.022041
0.0207992
0.0195653
0.0183284
0.0170781
0.0157972
0.0144566
0.0130255
0.0114628
0.00970873
0.00770184
0.00546276
0.00329109
0.00146355
0.00036263
6.35209e-05
1.00057e-05
1.14199e-06
1.65133e-07
1.19743e-07
1.46406e-07
1.90174e-07
2.59759e-07
3.82456e-07
6.16017e-07
1.16431e-06
3.02555e-06
1.47508e-05
0.0554493
0.00478401
0.00884232
0.0149406
0.0215197
0.0278081
0.0331519
0.0371296
0.0396478
0.0408914
0.0411512
0.0407445
0.039889
0.0387335
0.0373892
0.0359537
0.0344875
0.0330114
0.0315481
0.0301079
0.0287041
0.0273477
0.0260324
0.0247391
0.0234743
0.0222334
0.0210097
0.0197938
0.0185801
0.0173565
0.0161118
0.0148222
0.0134566
0.0119832
0.0103509
0.00849585
0.00638903
0.00418729
0.00223071
0.000756799
0.000148088
2.64064e-05
3.70322e-06
4.12224e-07
1.15079e-07
1.18596e-07
1.47258e-07
1.91217e-07
2.63735e-07
3.84594e-07
6.15819e-07
1.16349e-06
3.02534e-06
1.47493e-05
0.0554518
0.00477339
0.00881925
0.0149223
0.0215184
0.0278282
0.0331772
0.0371434
0.0396588
0.0409097
0.0411824
0.0407717
0.0399264
0.0387918
0.0374696
0.0360359
0.0345655
0.0331003
0.0316487
0.0302245
0.0288312
0.0274781
0.0261686
0.0248966
0.0236436
0.022415
0.021206
0.0200092
0.018815
0.0176169
0.0164022
0.0151551
0.0138477
0.012447
0.0109179
0.00920016
0.00723918
0.00508604
0.0030427
0.00133469
0.000333084
6.15441e-05
1.04611e-05
1.3058e-06
1.77781e-07
1.02104e-07
1.18725e-07
1.47578e-07
1.93631e-07
2.66912e-07
3.8677e-07
6.15546e-07
1.16329e-06
3.02524e-06
1.4748e-05
0.0554527
0.00476476
0.0087996
0.01489
0.0214991
0.027832
0.0332031
0.0371763
0.0396819
0.0409305
0.0412095
0.0408089
0.0399591
0.0388329
0.0375308
0.0361191
0.0346498
0.0331801
0.0317396
0.0303268
0.0289492
0.027606
0.0263003
0.0250348
0.0238031
0.0225868
0.0213907
0.0202096
0.0190361
0.0178595
0.016672
0.0154608
0.0142019
0.0128675
0.0114205
0.00982037
0.00800487
0.00595419
0.00386302
0.00203103
0.00067586
0.000135979
2.56551e-05
3.88506e-06
4.6085e-07
1.08284e-07
9.9256e-08
1.18744e-07
1.49257e-07
1.96184e-07
2.68997e-07
3.88853e-07
6.13665e-07
1.16324e-06
3.02527e-06
1.47467e-05
0.0554524
0.00475832
0.00878396
0.0148625
0.0214611
0.0278149
0.0332111
0.0372057
0.03972
0.0409611
0.0412377
0.0408413
0.0400003
0.0388697
0.0375748
0.0361828
0.0347346
0.0332656
0.0318209
0.0304192
0.0290531
0.0277249
0.0264287
0.0251678
0.0239434
0.0227483
0.0215654
0.0203986
0.0192418
0.0180866
0.016923
0.0157424
0.0145261
0.0132466
0.011875
0.0103681
0.00868215
0.00676786
0.00469389
0.00277286
0.0011861
0.000292793
5.67079e-05
1.01639e-05
1.36679e-06
1.85378e-07
8.94641e-08
9.86933e-08
1.1966e-07
1.5115e-07
1.98269e-07
2.70965e-07
3.87145e-07
6.12705e-07
1.16332e-06
3.02542e-06
1.47468e-05
0.0554496
0.00475512
0.00877346
0.0148412
0.0214296
0.0277771
0.0331986
0.0372167
0.0397505
0.0410026
0.0412742
0.0408755
0.0400367
0.0389135
0.0376137
0.0362286
0.0348002
0.0333519
0.031907
0.0305018
0.0291468
0.0278303
0.0265487
0.0252972
0.0240778
0.0228914
0.0217297
0.0205762
0.0194345
0.0182978
0.0171576
0.0160031
0.0148231
0.0135924
0.0122827
0.0108623
0.00928095
0.00749911
0.0055108
0.00352759
0.00181275
0.000583373
0.000119535
2.36286e-05
3.76436e-06
4.75693e-07
1.02458e-07
8.48182e-08
9.91021e-08
1.20858e-07
1.52653e-07
2.0101e-07
2.71402e-07
3.86101e-07
6.12435e-07
1.16347e-06
3.02562e-06
1.47469e-05
0.0554472
0.00475447
0.00876976
0.0148284
0.021406
0.0277456
0.0331659
0.0372087
0.0397632
0.0410329
0.041318
0.0409153
0.0400747
0.0389525
0.0376595
0.0362691
0.0348477
0.0334192
0.0319944
0.0305879
0.0292306
0.0279253
0.0266554
0.0254182
0.0242081
0.0230274
0.0218754
0.0207438
0.0196165
0.018496
0.0173758
0.0162459
0.0150958
0.0139078
0.0126534
0.0113035
0.00982093
0.00815121
0.00627767
0.00429437
0.00248772
0.00102493
0.000247751
5.0106e-05
9.30841e-06
1.31845e-06
1.83952e-07
7.94485e-08
8.40715e-08
9.97697e-08
1.21775e-07
1.54796e-07
2.02272e-07
2.72095e-07
3.84318e-07
6.12458e-07
1.16358e-06
3.02581e-06
1.47472e-05
0.0554441
0.00475704
0.00877269
0.0148264
0.0213937
0.027724
0.0331403
0.037184
0.039759
0.041046
0.0413477
0.0409601
0.0401169
0.0389933
0.0377006
0.0363164
0.0348897
0.0334683
0.032063
0.030676
0.0293172
0.0280097
0.0267516
0.0255261
0.0243304
0.023159
0.0220135
0.0208925
0.0197873
0.0186825
0.0175795
0.0164716
0.0153481
0.0141959
0.0129904
0.0117031
0.0103011
0.00874197
0.00697724
0.00504935
0.00318367
0.00157996
0.000485944
0.000101334
2.07863e-05
3.42199e-06
4.54406e-07
9.56085e-08
7.37898e-08
8.43742e-08
1.00225e-07
1.23323e-07
1.56321e-07
2.03838e-07
2.6984e-07
3.83559e-07
6.12567e-07
1.16375e-06
3.02613e-06
1.47483e-05
0.0554421
0.00475732
0.00878264
0.0148356
0.0213962
0.0277159
0.0331248
0.0371673
0.0397428
0.0410446
0.0413605
0.0409887
0.0401621
0.0390374
0.0377432
0.036359
0.034938
0.0335114
0.0321136
0.0307464
0.0294054
0.0280967
0.0268372
0.0256238
0.0244398
0.0232826
0.0221468
0.0210331
0.0199399
0.0188574
0.0177713
0.0166823
0.0155825
0.0144606
0.0132972
0.0120649
0.010734
0.00926635
0.00761911
0.00577046
0.00387928
0.00219394
0.000857978
0.000202
4.26676e-05
8.09996e-06
1.18829e-06
1.72127e-07
7.10498e-08
7.28414e-08
8.47742e-08
1.01188e-07
1.24612e-07
1.58794e-07
2.03636e-07
2.68264e-07
3.83397e-07
6.12719e-07
1.16399e-06
3.02653e-06
1.47502e-05
0.0554406
0.00475644
0.00878733
0.014856
0.0214133
0.0277246
0.0331233
0.0371609
0.0397355
0.0410354
0.0413606
0.0410012
0.0401898
0.0390827
0.0377885
0.0364026
0.0349815
0.0335602
0.0321577
0.0307988
0.0294774
0.0281852
0.0269245
0.0257103
0.0245387
0.0233936
0.0222719
0.0211682
0.0200837
0.0190144
0.017951
0.01688
0.0158007
0.0147052
0.0135775
0.0123933
0.0111246
0.0097381
0.00819136
0.00645405
0.00457606
0.00282522
0.00134233
0.000390135
8.30035e-05
1.75323e-05
2.94019e-06
4.05705e-07
8.69529e-08
6.50168e-08
7.29606e-08
8.53577e-08
1.02062e-07
1.26497e-07
1.59424e-07
2.02763e-07
2.66941e-07
3.83454e-07
6.12886e-07
1.16424e-06
3.027e-06
1.47524e-05
0.05544
0.00475299
0.00878843
0.0148673
0.0214457
0.0277506
0.0331392
0.0371669
0.039738
0.0410358
0.0413569
0.0410028
0.0402018
0.0391102
0.0378345
0.0364487
0.0350258
0.0336043
0.0322069
0.0308438
0.0295318
0.0282585
0.0270133
0.0257978
0.0246267
0.0234942
0.0223847
0.0212954
0.0202208
0.0191613
0.0181127
0.0170648
0.0160055
0.0149319
0.0138351
0.0126925
0.0114783
0.0101621
0.00870648
0.00707149
0.00526545
0.00346032
0.00188907
0.000694086
0.000159166
3.49779e-05
6.72385e-06
1.00818e-06
1.5251e-07
6.34242e-08
6.38505e-08
7.33226e-08
8.58338e-08
1.03359e-07
1.27807e-07
1.60154e-07
2.00784e-07
2.66529e-07
3.83575e-07
6.13079e-07
1.16455e-06
3.02774e-06
1.47556e-05
0.0554402
0.00474895
0.00878392
0.0148722
0.0214652
0.0277937
0.0331728
0.0371896
0.0397512
0.0410463
0.0413635
0.0410028
0.0402042
0.0391215
0.0378617
0.0364955
0.0350724
0.0336493
0.0322515
0.0308931
0.0295778
0.0283147
0.027088
0.0258871
0.0247147
0.0235834
0.0224871
0.0214103
0.0203499
0.019301
0.0182636
0.0172317
0.0161962
0.0151445
0.014073
0.0129664
0.0117993
0.0105451
0.0091691
0.00763202
0.00591314
0.00411083
0.00246253
0.00110122
0.000302601
6.58266e-05
1.41719e-05
2.40038e-06
3.41513e-07
7.70173e-08
5.76029e-08
6.38693e-08
7.36152e-08
8.64789e-08
1.0462e-07
1.294e-07
1.59556e-07
1.99136e-07
2.66505e-07
3.83718e-07
6.13294e-07
1.16491e-06
3.02854e-06
1.47584e-05
0.0554398
0.00474265
0.00877712
0.0148679
0.0214746
0.0278204
0.033223
0.0372281
0.0397795
0.0410653
0.0413799
0.0410135
0.0402069
0.0391243
0.0378726
0.0365228
0.0351199
0.0336963
0.0322969
0.0309379
0.0296272
0.0283618
0.0271455
0.025963
0.0248045
0.0236723
0.022578
0.0215147
0.0204676
0.0194333
0.0184068
0.0173877
0.0163693
0.0153419
0.014294
0.0132181
0.0120929
0.0108919
0.00958612
0.00813702
0.00651337
0.00474801
0.00305365
0.00158402
0.000537253
0.000122158
2.76173e-05
5.33123e-06
8.1179e-07
1.29187e-07
5.6401e-08
5.64927e-08
6.40995e-08
7.40881e-08
8.74092e-08
1.0605e-07
1.30105e-07
1.57605e-07
1.98425e-07
2.66596e-07
3.83886e-07
6.13526e-07
1.16533e-06
3.02945e-06
1.4763e-05
0.0554385
0.00473537
0.0087651
0.0148591
0.0214717
0.0278338
0.0332531
0.0372806
0.0398201
0.0410974
0.0414026
0.0410346
0.0402201
0.0391289
0.0378753
0.0365339
0.035148
0.0337442
0.0323443
0.0309841
0.0296726
0.0284113
0.0271934
0.026022
0.0248816
0.0237626
0.0226678
0.0216075
0.0205741
0.0195533
0.0185418
0.0175344
0.01653
0.0155214
0.0144991
0.0134503
0.0123614
0.0112081
0.00996279
0.00859252
0.00706041
0.0053633
0.00363957
0.00210862
0.000871445
0.000225327
5.07572e-05
1.0976e-05
1.86792e-06
2.73562e-07
6.68254e-08
5.13866e-08
5.64936e-08
6.4526e-08
7.4635e-08
8.86007e-08
1.0754e-07
1.29653e-07
1.55936e-07
1.98304e-07
2.66725e-07
3.84061e-07
6.1379e-07
1.16578e-06
3.03056e-06
1.4768e-05
0.0554366
0.00472657
0.00875014
0.0148416
0.0214626
0.0278338
0.0332698
0.037311
0.0398713
0.041138
0.0414365
0.0410599
0.0402443
0.0391442
0.0378812
0.0365364
0.0351592
0.0337734
0.032393
0.031032
0.0297191
0.0284571
0.0272433
0.0260713
0.0249423
0.023841
0.022759
0.0216987
0.0206692
0.0196628
0.018665
0.017673
0.0166814
0.0156886
0.0146863
0.0136646
0.0126079
0.0114962
0.0103055
0.00900378
0.00755705
0.00594313
0.00423065
0.00264141
0.00129069
0.000399261
9.11601e-05
2.09921e-05
4.03528e-06
6.21732e-07
1.05422e-07
5.00612e-08
5.04293e-08
5.68261e-08
6.48734e-08
7.53737e-08
8.98021e-08
1.07906e-07
1.28221e-07
1.54942e-07
1.98372e-07
2.66863e-07
3.84264e-07
6.14077e-07
1.16628e-06
3.0319e-06
1.47735e-05
0.0554343
0.00471772
0.0087318
0.014819
0.0214417
0.0278267
0.0332727
0.0373284
0.0398991
0.0411862
0.0414769
0.0410952
0.0402718
0.0391695
0.0378975
0.0365426
0.035162
0.0337854
0.0324238
0.0310813
0.0297674
0.0285038
0.0272896
0.0261213
0.0249927
0.0239034
0.0228387
0.0217907
0.0207619
0.0197604
0.0187774
0.0177998
0.0168243
0.0158451
0.01486
0.0138602
0.0128338
0.01176
0.0106164
0.00937691
0.00800678
0.00647706
0.00480852
0.00317955
0.00175261
0.000664249
0.000162188
3.79862e-05
8.11896e-06
1.38231e-06
2.09113e-07
5.70709e-08
4.60361e-08
5.04796e-08
5.70594e-08
6.53395e-08
7.61923e-08
9.06402e-08
1.07943e-07
1.26455e-07
1.54721e-07
1.98478e-07
2.67011e-07
3.84487e-07
6.14418e-07
1.16688e-06
3.03348e-06
1.47799e-05
0.0554309
0.00471035
0.0087127
0.0147906
0.0214133
0.0278047
0.0332683
0.0373335
0.039916
0.0412106
0.0415223
0.0411344
0.0403076
0.0391982
0.0379241
0.0365594
0.0351685
0.0337887
0.032437
0.0311138
0.0298177
0.0285524
0.0273364
0.026168
0.0250434
0.0239552
0.0229032
0.021872
0.0208551
0.019855
0.0188781
0.0179159
0.0169552
0.0159926
0.0150223
0.0140415
0.0130401
0.0120006
0.0109003
0.00971454
0.00841454
0.00696559
0.00536223
0.00371706
0.00223708
0.00100565
0.000286492
6.61668e-05
1.536e-05
2.90429e-06
4.52844e-07
8.35307e-08
4.43732e-08
4.5316e-08
5.0659e-08
5.74286e-08
6.57657e-08
7.70573e-08
9.1581e-08
1.0704e-07
1.25259e-07
1.54757e-07
1.98599e-07
2.67184e-07
3.84718e-07
6.14785e-07
1.16759e-06
3.03521e-06
1.4787e-05
0.055428
0.00470458
0.00869618
0.0147608
0.0213771
0.0277739
0.0332484
0.0373321
0.0399219
0.0412256
0.0415436
0.0411769
0.0403461
0.0392349
0.0379534
0.0365866
0.0351851
0.0337953
0.0324407
0.0311286
0.0298524
0.0286035
0.0273857
0.0262155
0.0250904
0.0240066
0.0229563
0.0219385
0.0209383
0.0199497
0.018975
0.0180196
0.0170749
0.0161279
0.015175
0.0142104
0.0132304
0.0122198
0.011158
0.010022
0.0087828
0.00741041
0.00588252
0.00425511
0.00272704
0.00140931
0.000479275
0.000114162
2.74724e-05
5.7553e-06
9.71748e-07
1.53799e-07
4.84314e-08
4.14536e-08
4.53492e-08
5.09941e-08
5.7766e-08
6.64071e-08
7.80802e-08
9.18218e-08
1.05083e-07
1.24944e-07
1.54851e-07
1.98737e-07
2.67368e-07
3.8498e-07
6.15189e-07
1.16833e-06
3.03719e-06
1.47947e-05
0.0554249
0.00469981
0.00868317
0.0147341
0.0213388
0.027734
0.0332194
0.0373157
0.0399229
0.0412323
0.041557
0.0411955
0.0403866
0.0392727
0.0379908
0.0366168
0.0352124
0.0338114
0.0324473
0.0311333
0.0298691
0.0286398
0.0274375
0.0262651
0.0251382
0.0240542
0.0230085
0.0219935
0.0210067
0.0200343
0.0190712
0.0181192
0.0171824
0.016252
0.0153155
0.014369
0.0134067
0.0124218
0.0113935
0.0103001
0.00911763
0.00781295
0.0063613
0.00477707
0.00321824
0.0018411
0.000750191
0.000196827
4.68401e-05
1.07977e-05
1.99762e-06
3.15148e-07
6.53518e-08
3.95204e-08
4.09786e-08
4.56478e-08
5.13262e-08
5.81562e-08
6.72718e-08
7.89375e-08
9.06597e-08
1.03945e-07
1.24956e-07
1.5496e-07
1.98884e-07
2.67566e-07
3.85268e-07
6.15648e-07
1.16921e-06
3.03937e-06
1.48035e-05
0.0554221
0.00469602
0.00867228
0.0147126
0.021304
0.0276922
0.0331805
0.0372921
0.039911
0.0412355
0.0415634
0.0412069
0.0404029
0.0393114
0.0380282
0.0366544
0.035243
0.0338383
0.0324626
0.03114
0.0298748
0.0286582
0.0274752
0.0263175
0.0251884
0.0241028
0.0230571
0.0220467
0.0210638
0.0201053
0.0191582
0.0182173
0.0172848
0.0163637
0.0154445
0.0145153
0.0135719
0.0126076
0.0116097
0.0105544
0.00941966
0.00817883
0.00679888
0.0052757
0.00370704
0.0022862
0.00108305
0.000331014
7.8658e-05
1.90867e-05
3.90958e-06
6.52509e-07
1.10018e-07
4.13426e-08
3.75627e-08
4.11409e-08
4.59711e-08
5.15833e-08
5.86543e-08
6.80968e-08
7.88579e-08
8.91936e-08
1.0356e-07
1.25042e-07
1.55083e-07
1.99045e-07
2.67787e-07
3.85584e-07
6.16168e-07
1.17021e-06
3.04192e-06
1.4813e-05
0.0554188
0.00469292
0.00866366
0.0146947
0.0212755
0.0276537
0.033142
0.0372597
0.039894
0.0412267
0.041568
0.0412122
0.0404127
0.0393262
0.0380655
0.036692
0.035281
0.0338691
0.0324889
0.0311542
0.0298814
0.0286652
0.0274956
0.0263567
0.0252414
0.0241533
0.023106
0.0220961
0.0211181
0.0201645
0.0192318
0.0183065
0.0173851
0.0164696
0.0155606
0.0146497
0.0137245
0.012781
0.0118075
0.0107875
0.00969586
0.00850866
0.00719812
0.00574246
0.00419361
0.00273199
0.0014608
0.000527667
0.000131096
3.23411e-05
7.22978e-06
1.31324e-06
2.10703e-07
5.11303e-08
3.54499e-08
3.73437e-08
4.14021e-08
4.6145e-08
5.18554e-08
5.9284e-08
6.8622e-08
7.82752e-08
8.79799e-08
1.03558e-07
1.25143e-07
1.55213e-07
1.9922e-07
2.68029e-07
3.8594e-07
6.16747e-07
1.17133e-06
3.04481e-06
1.48236e-05
0.0554162
0.00469049
0.00865655
0.0146805
0.0212512
0.0276225
0.0331068
0.0372286
0.0398696
0.0412159
0.0415618
0.0412174
0.0404171
0.0393347
0.0380792
0.0367285
0.0353188
0.0339073
0.0325195
0.0311797
0.0298949
0.028672
0.0275034
0.0263789
0.0252825
0.024207
0.0231573
0.022146
0.0211687
0.0202205
0.0192938
0.0183828
0.0174769
0.0165726
0.0156707
0.0147711
0.0138647
0.0129403
0.011991
0.0110002
0.00994878
0.00881012
0.007559
0.00617248
0.00466262
0.00317684
0.0018566
0.000789563
0.000217717
5.28291e-05
1.27557e-05
2.52115e-06
4.18768e-07
7.7402e-08
3.56729e-08
3.42639e-08
3.74986e-08
4.15621e-08
4.63534e-08
5.22401e-08
5.9901e-08
6.89193e-08
7.67801e-08
8.75897e-08
1.03635e-07