/*--------------------------------*- C++ -*----------------------------------*\
| =========                 |                                                 |
| \\      /  F ield         | OpenFOAM: The Open Source CFD Toolbox           |
|  \\    /   O peration     | Version:  v2012                                 |
|   \\  /    A nd           | Website:  www.openfoam.com                      |
|    \\/     M anipulation  |                                                 |
\*---------------------------------------------------------------------------*/
FoamFile
{
    version     2.0;
    format      ascii;
    class       volScalarField;
    location    "13600";
    object      nut;
}
// * * * * * * * * * * * * * * * * * * * * * * * * * * * * * * * * * * * * * //

dimensions      [0 2 -1 0 0 0 0];


internalField   nonuniform List<scalar> 
39402
(
2.08347e-06
6.92138e-08
1.76449e-06
2.03613e-08
7.1564e-08
1.12578e-06
1.89663e-08
1.98169e-08
8.63581e-08
6.64361e-07
2.16353e-08
4.2666e-08
2.23512e-08
1.17712e-07
4.39051e-07
2.43732e-08
7.1178e-08
4.62854e-07
3.80888e-08
1.67266e-07
3.5009e-07
2.61876e-08
9.05278e-08
9.14637e-07
2.88185e-06
8.85518e-08
2.26016e-07
3.12985e-07
2.73519e-08
1.03323e-07
1.20681e-06
5.73168e-06
1.08114e-05
1.99301e-07
2.81453e-07
2.97304e-07
2.77669e-08
1.10966e-07
1.39856e-06
7.55535e-06
2.13512e-05
2.89896e-05
3.8724e-07
3.24412e-07
2.90654e-07
2.77568e-08
1.1416e-07
1.51281e-06
8.73703e-06
2.79666e-05
5.6598e-05
6.11763e-05
6.49994e-07
3.51411e-07
2.8792e-07
2.74798e-08
1.14801e-07
1.5618e-06
9.44144e-06
3.21629e-05
7.34221e-05
0.000117879
0.000107981
9.25196e-07
3.63732e-07
2.87858e-07
2.70558e-08
1.13895e-07
1.57368e-06
9.74378e-06
3.46414e-05
8.37681e-05
0.000151291
0.000205671
0.000164308
1.18678e-06
3.65973e-07
2.83863e-07
2.65557e-08
1.12233e-07
1.56319e-06
9.82046e-06
3.57018e-05
8.97647e-05
0.00017112
0.000261668
0.000314791
0.000217317
1.45634e-06
3.63485e-07
2.79031e-07
2.60006e-08
1.10113e-07
1.54169e-06
9.76108e-06
3.5977e-05
9.23108e-05
0.00018232
0.000293827
0.000398746
0.000418632
0.000272806
1.73168e-06
3.54919e-07
2.76615e-07
2.54586e-08
1.07616e-07
1.51327e-06
9.63395e-06
3.57826e-05
9.29782e-05
0.000187033
0.000311513
0.000445795
0.000537537
0.000528272
0.000329517
2.03337e-06
3.39699e-07
2.75606e-07
2.49396e-08
1.05205e-07
1.47868e-06
9.46192e-06
3.53506e-05
9.25385e-05
0.000188282
0.000318933
0.000471129
0.000603099
0.000686414
0.000642583
0.000387824
2.45774e-06
3.21634e-07
2.75194e-07
2.44216e-08
1.02861e-07
1.44518e-06
9.25128e-06
3.47593e-05
9.1539e-05
0.000187513
0.000320929
0.000481831
0.000637685
0.000774558
0.000845436
0.000761509
0.000456598
2.96071e-06
3.0469e-07
2.75019e-07
2.39129e-08
1.00494e-07
1.41221e-06
9.04566e-06
3.40318e-05
9.01503e-05
0.000185754
0.000319868
0.000484863
0.000652772
0.000821655
0.000961132
0.00101251
0.000889977
0.000555835
3.12259e-06
2.91036e-07
2.74945e-07
2.34239e-08
9.81477e-08
1.37872e-06
8.84173e-06
3.3314e-05
8.84408e-05
0.000183279
0.000317322
0.000483711
0.000657556
0.000842476
0.00102435
0.00116087
0.00118686
0.00103293
0.000671789
3.02892e-06
2.81086e-07
2.74893e-07
2.28939e-08
9.58588e-08
1.34533e-06
8.63366e-06
3.25986e-05
8.67429e-05
0.000180221
0.000313675
0.00048054
0.000657357
0.000850302
0.00105281
0.00124409
0.00137004
0.00135465
0.00113995
0.000727189
2.61624e-06
2.74443e-07
2.74814e-07
2.24125e-08
9.33246e-08
1.31243e-06
8.42554e-06
3.18649e-05
8.50358e-05
0.000177167
0.000309171
0.000475878
0.000654582
0.000851297
0.00106531
0.00128329
0.00147666
0.00158017
0.00151181
0.00122405
0.000753284
1.99107e-06
2.70098e-07
2.74758e-07
2.20233e-08
9.11341e-08
1.27625e-06
8.21996e-06
3.11284e-05
8.32771e-05
0.000174076
0.000304632
0.000470063
0.000650048
0.000848892
0.00106833
0.00130223
0.00153092
0.00171724
0.00178714
0.00165214
0.00128443
0.000738577
1.35559e-06
2.67528e-07
2.74571e-07
2.15606e-08
8.9375e-08
1.24504e-06
7.99481e-06
3.03983e-05
8.15039e-05
0.000170874
0.000300016
0.000464168
0.000644139
0.000844208
0.00106681
0.00130855
0.00155835
0.0017922
0.00196191
0.00198374
0.00176833
0.00132153
0.000678353
8.61981e-07
2.66045e-07
2.7431e-07
2.11497e-08
8.71249e-08
1.21973e-06
7.79947e-06
2.96013e-05
7.97389e-05
0.000167633
0.000295202
0.000458126
0.000638089
0.00083777
0.00106234
0.00130884
0.00156983
0.00183158
0.00206283
0.00220374
0.00216114
0.00185401
0.00134015
0.00057573
5.57103e-07
2.65283e-07
2.74085e-07
2.07509e-08
8.52305e-08
1.1873e-06
7.63892e-06
2.89056e-05
7.78163e-05
0.000164388
0.000290314
0.000451789
0.000631819
0.000831054
0.00105566
0.00130523
0.00157338
0.00185078
0.00211885
0.0023373
0.00243401
0.00230976
0.00190458
0.00134916
0.000442365
3.94415e-07
2.64835e-07
2.73994e-07
2.0374e-08
8.33831e-08
1.16019e-06
7.43664e-06
2.83261e-05
7.61279e-05
0.00016086
0.000285391
0.00044532
0.00062515
0.000824004
0.00104846
0.0012988
0.00157174
0.00185942
0.00214911
0.00241555
0.00260801
0.00264288
0.00242001
0.00191669
0.00134832
0.000298678
3.17348e-07
2.64422e-07
2.74049e-07
2.00105e-08
8.16437e-08
1.13373e-06
7.26615e-06
2.76055e-05
7.47014e-05
0.000157746
0.000280048
0.00043877
0.000618285
0.000816407
0.00104073
0.00129155
0.00156654
0.00186119
0.00216536
0.00246122
0.00271552
0.00286653
0.00281976
0.00248434
0.00189066
0.00123711
0.000171213
2.81399e-07
2.64046e-07
2.74147e-07
1.96767e-08
7.99518e-08
1.10896e-06
7.10028e-06
2.69939e-05
7.29443e-05
0.000155077
0.000275314
0.000431664
0.000611259
0.000808458
0.00103227
0.00128349
0.00156003
0.00185834
0.00217253
0.00248835
0.00278222
0.00301153
0.00310263
0.00295447
0.00249751
0.00183361
0.00102103
8.15638e-05
2.65574e-07
2.63691e-07
2.7423e-07
1.9338e-08
7.84118e-08
1.08484e-06
6.94506e-06
2.6399e-05
7.14449e-05
0.000151815
0.000271201
0.000425365
0.0006036
0.000800261
0.00102332
0.00127441
0.00155229
0.00185344
0.00217362
0.00250355
0.00282456
0.00310597
0.00329467
0.0033054
0.00303705
0.0024607
0.00176373
0.0007641
3.30045e-05
2.58613e-07
2.64451e-07
2.74295e-07
1.90251e-08
7.68358e-08
1.06291e-06
6.79415e-06
2.58413e-05
6.99823e-05
0.000149012
0.000266197
0.000419814
0.000596895
0.000791328
0.00101397
0.0012647
0.00154314
0.00184684
0.00217167
0.00251087
0.00285121
0.00316909
0.00342518
0.00355494
0.00346335
0.00305991
0.00237961
0.00168531
0.000499588
1.20237e-05
2.56212e-07
2.59361e-07
2.74341e-07
1.87164e-08
7.54017e-08
1.04058e-06
6.65678e-06
2.52997e-05
6.86084e-05
0.000146274
0.000261882
0.000413083
0.000590895
0.000783495
0.00100373
0.00125443
0.00153309
0.00183829
0.00216734
0.00251356
0.00286736
0.00321165
0.00351575
0.00373093
0.00378072
0.00356468
0.00302064
0.00226478
0.00144938
0.000274301
4.21027e-06
2.52269e-07
2.57171e-07
2.74384e-07
1.84608e-08
7.39813e-08
1.02041e-06
6.5179e-06
2.48053e-05
6.72727e-05
0.000143693
0.000257653
0.00040726
0.000583529
0.000776431
0.000994698
0.00124297
0.00152225
0.0018285
0.00216034
0.00251284
0.00287703
0.00324001
0.00357933
0.00385695
0.00401281
0.00395943
0.00359999
0.00292232
0.00213247
0.0011079
0.000125719
1.51594e-06
2.49382e-07
2.56306e-07
2.74401e-07
1.81955e-08
7.28223e-08
1.00048e-06
6.39257e-06
2.43082e-05
6.60515e-05
0.00014118
0.000253652
0.000401539
0.000577209
0.000767729
0.000986579
0.00123291
0.00150994
0.00181757
0.00215153
0.00250866
0.00288185
0.00325957
0.00362456
0.00394844
0.00418372
0.00425901
0.00407821
0.00356368
0.00277631
0.00199353
0.000745051
5.06366e-05
6.39887e-07
2.47631e-07
2.55967e-07
2.74385e-07
1.79237e-08
7.1593e-08
9.84318e-07
6.2694e-06
2.38588e-05
6.48237e-05
0.000138875
0.000249754
0.000396112
0.00057098
0.000760232
0.00097643
0.00122379
0.00149915
0.00180484
0.00214112
0.00250192
0.0028822
0.00327254
0.00365785
0.00401579
0.00431062
0.00448493
0.00445561
0.00412591
0.00345655
0.00259998
0.00171978
0.000421846
1.91056e-05
3.63821e-07
2.46554e-07
2.55808e-07
2.74332e-07
1.76767e-08
7.03447e-08
9.67224e-07
6.1689e-06
2.34188e-05
6.3712e-05
0.000136555
0.000246163
0.000390818
0.000565058
0.000752817
0.00096768
0.00121231
0.00148931
0.00179373
0.0021286
0.00249299
0.00287902
0.0032794
0.00368189
0.00406719
0.00440679
0.00465659
0.00474812
0.00458908
0.00409304
0.00328858
0.00242106
0.00129433
0.000198275
6.82195e-06
2.77196e-07
2.45901e-07
2.55754e-07
2.74261e-07
1.74491e-08
6.92385e-08
9.50049e-07
6.06415e-06
2.30586e-05
6.2626e-05
0.00013445
0.000242551
0.000385931
0.000559274
0.00074576
0.000959023
0.00120238
0.00147671
0.00178349
0.00211762
0.00248141
0.00287281
0.00328162
0.0036978
0.00410622
0.00448168
0.00478916
0.00497468
0.00495904
0.00464517
0.00397868
0.00307943
0.0022378
0.000852301
8.21274e-05
2.37191e-06
2.4989e-07
2.4564e-07
2.55692e-07
2.74167e-07
1.72543e-08
6.82153e-08
9.35008e-07
5.95955e-06
2.26858e-05
6.17333e-05
0.000132397
0.000239256
0.000380996
0.000553951
0.000738856
0.000950754
0.00119256
0.00146576
0.00176998
0.00210733
0.00247123
0.00286328
0.00327975
0.00370752
0.00413454
0.00454012
0.00489411
0.0051529
0.00525224
0.00510251
0.00461323
0.00378947
0.0028534
0.00182083
0.000470199
3.19681e-05
8.87073e-07
2.41156e-07
2.45639e-07
2.55581e-07
2.78427e-07
1.70684e-08
6.73517e-08
9.21121e-07
5.86842e-06
2.23156e-05
6.08131e-05
0.000130701
0.000236048
0.000376478
0.000548055
0.000732484
0.000942684
0.00118311
0.00145491
0.00175823
0.00209345
0.0024617
0.00285482
0.00327359
0.00371203
0.00415465
0.00458496
0.00497771
0.00529589
0.00548639
0.00547387
0.00516299
0.00448909
0.00354461
0.00262915
0.00130962
0.000220342
1.18819e-05
4.22274e-07
2.38471e-07
2.45885e-07
2.58688e-07
2.86844e-07
1.68618e-08
6.65254e-08
9.09498e-07
5.78456e-06
2.19946e-05
5.99047e-05
0.000128957
0.000233388
0.000372086
0.000542394
0.00072601
0.000935197
0.00117388
0.00144451
0.00174663
0.00208133
0.00244799
0.00284673
0.00326807
0.00371111
0.00416788
0.00461906
0.00504365
0.00541134
0.00567608
0.00577516
0.00562351
0.00512832
0.00427901
0.00327344
0.0023143
0.000811288
9.25945e-05
4.18475e-06
2.83825e-07
2.37747e-07
2.48339e-07
2.66038e-07
2.84884e-07
1.66509e-08
6.55851e-08
8.98566e-07
5.71475e-06
2.17002e-05
5.91181e-05
0.000127244
0.000230654
0.000368436
0.000536907
0.00072006
0.000927729
0.00116538
0.00143423
0.00173539
0.0020692
0.00243591
0.00283398
0.00326252
0.00370992
0.00417426
0.00464419
0.00509617
0.00550435
0.00583097
0.00602234
0.00600423
0.00568371
0.00499188
0.00400299
0.00301506
0.00175737
0.000422711
3.65974e-05
1.47251e-06
2.44888e-07
2.39168e-07
2.54536e-07
2.66217e-07
2.84637e-07
1.64763e-08
6.46536e-08
8.86196e-07
5.64992e-06
2.14555e-05
5.84002e-05
0.000125763
0.000227979
0.000364681
0.000532334
0.000714259
0.000920877
0.00115684
0.0014247
0.00172429
0.0020574
0.0024237
0.0028226
0.00325167
0.00370833
0.00417934
0.0046607
0.00513678
0.00557983
0.00595794
0.00622596
0.00631941
0.00615487
0.00564109
0.00475893
0.00369516
0.00275581
0.00118134
0.0001932
1.39016e-05
5.93285e-07
2.35644e-07
2.43716e-07
2.58468e-07
2.6621e-07
2.8453e-07
1.63347e-08
6.39287e-08
8.74069e-07
5.57749e-06
2.12306e-05
5.78033e-05
0.000124416
0.000225676
0.000361025
0.00052762
0.000709447
0.000914223
0.00114903
0.00141513
0.00171394
0.00204577
0.00241182
0.00281111
0.00324202
0.00370107
0.00418329
0.00467454
0.00516654
0.00564054
0.00606277
0.00639463
0.00658192
0.00655113
0.00620977
0.00548726
0.00444991
0.00339709
0.00217172
0.000676058
8.1925e-05
4.9669e-06
3.27819e-07
2.36315e-07
2.47893e-07
2.54832e-07
2.66142e-07
2.8445e-07
1.61986e-08
6.33439e-08
8.64966e-07
5.50686e-06
2.09818e-05
5.72583e-05
0.000123297
0.000223589
0.000357889
0.000523058
0.000704463
0.000908816
0.00114155
0.0014065
0.00170358
0.00203488
0.00239994
0.0027996
0.00323193
0.00369418
0.00418128
0.00468599
0.00519221
0.00568774
0.00614874
0.00653555
0.00680202
0.006884
0.00669787
0.00615261
0.0052269
0.00410095
0.0030989
0.00153096
0.000332426
3.27603e-05
1.73791e-06
2.55688e-07
2.39345e-07
2.47149e-07
2.53672e-07
2.6599e-07
2.84389e-07
1.60574e-08
6.27456e-08
8.57821e-07
5.45492e-06
2.07406e-05
5.66599e-05
0.000122279
0.000221857
0.000355059
0.000519165
0.000699708
0.000903089
0.00113538
0.00139823
0.0016943
0.00202399
0.00238888
0.00278791
0.00322155
0.00368637
0.00417867
0.00469103
0.00521383
0.00572824
0.00621832
0.006653
0.00698755
0.00716549
0.00711379
0.00674017
0.00597504
0.00488109
0.00375944
0.00254478
0.000933802
0.000149723
1.24253e-05
6.75652e-07
2.39447e-07
2.39642e-07
2.46408e-07
2.53419e-07
2.65732e-07
2.84344e-07
1.59307e-08
6.21182e-08
8.50369e-07
5.41517e-06
2.05664e-05
5.60833e-05
0.000121167
0.000220281
0.000352712
0.000515668
0.000695708
0.000897633
0.00112889
0.00139141
0.00168529
0.0020142
0.00237781
0.00277728
0.00321093
0.00367818
0.00417446
0.00469433
0.00522766
0.00576304
0.00627803
0.00675037
0.00714357
0.00740489
0.00746851
0.00725057
0.00666147
0.00568128
0.00449003
0.00342633
0.00184638
0.000487709
6.34392e-05
4.44543e-06
3.5347e-07
2.35556e-07
2.39341e-07
2.46493e-07
2.53394e-07
2.65944e-07
2.84314e-07
1.58069e-08
6.15636e-08
8.42474e-07
5.37352e-06
2.04361e-05
5.56746e-05
0.000120105
0.000218569
0.000350585
0.000512781
0.000692106
0.000893125
0.00112269
0.00138425
0.00167806
0.00200472
0.0023678
0.0027664
0.00320118
0.00366957
0.00416939
0.00469509
0.00523771
0.00578677
0.00632886
0.00683452
0.00727505
0.00760808
0.00777248
0.0076915
0.00727331
0.00645217
0.00529482
0.0041076
0.0028756
0.00117341
0.000228969
2.52094e-05
1.57126e-06
2.62539e-07
2.34105e-07
2.39403e-07
2.47126e-07
2.53877e-07
2.75404e-07
2.84299e-07
1.56719e-08
6.10176e-08
8.35703e-07
5.32971e-06
2.02993e-05
5.5375e-05
0.000119364
0.00021695
0.000348277
0.000510166
0.000689208
0.000889116
0.00111765
0.00137737
0.00167041
0.00199718
0.00235818
0.00275653
0.00319107
0.00366132
0.00416365
0.00469435
0.00524426
0.00580267
0.00635875
0.00690414
0.00738931
0.0077817
0.00803276
0.00807191
0.00781175
0.00716549
0.00611788
0.00486023
0.00374052
0.00211868
0.000640498
0.000101176
9.4128e-06
6.24285e-07
2.38179e-07
2.33603e-07
2.40041e-07
2.49657e-07
2.62047e-07
2.73045e-07
2.84292e-07
1.55458e-08
6.0436e-08
8.29057e-07
5.29255e-06
2.01562e-05
5.50604e-05
0.000118831
0.000215843
0.00034612
0.000507333
0.000686555
0.000885849
0.00111328
0.00137183
0.00166303
0.00198905
0.00235049
0.00274698
0.00318175
0.00365255
0.00415776
0.00469226
0.00524841
0.00581384
0.0063856
0.00694944
0.00748733
0.00793332
0.00825725
0.00840008
0.00828193
0.00780886
0.0069161
0.00568565
0.00443938
0.0031669
0.00137859
0.000310797
4.18828e-05
3.34197e-06
3.36261e-07
2.31773e-07
2.3387e-07
2.42178e-07
2.52232e-07
2.61141e-07
2.72674e-07
2.84287e-07
1.54402e-08
5.99256e-08
8.22081e-07
5.2566e-06
2.00366e-05
5.47327e-05
0.000118272
0.000215062
0.000344683
0.000504726
0.000683676
0.000882933
0.00110971
0.00136711
0.00165718
0.00198138
0.00234223
0.00273945
0.00317284
0.0036445
0.00415113
0.0046891
0.00525034
0.00582226
0.0064068
0.00699101
0.00755392
0.00806572
0.00845357
0.00868556
0.00869034
0.00837917
0.00766199
0.00653504
0.00520636
0.00403796
0.00234966
0.000775011
0.000141142
1.61299e-05
1.20509e-06
2.55141e-07
2.30244e-07
2.35476e-07
2.45034e-07
2.5249e-07
2.60346e-07
2.7248e-07
2.84284e-07
1.53598e-08
5.95456e-08
8.1622e-07
5.21928e-06
1.99223e-05
5.44639e-05
0.000117693
0.000214237
0.000343685
0.00050304
0.000681125
0.000879721
0.0011065
0.00136336
0.00165216
0.00197538
0.00233438
0.00273148
0.00316612
0.00363703
0.0041452
0.00468515
0.00524944
0.00582774
0.00642407
0.00702519
0.00761427
0.00816507
0.00862606
0.00893562
0.00904822
0.00888049
0.00833988
0.00736493
0.00605267
0.00474821
0.00341384
0.0015486
0.000384011
6.01455e-05
5.85142e-06
5.10662e-07
2.33929e-07
2.3085e-07
2.38093e-07
2.46613e-07
2.52356e-07
2.60384e-07
2.7237e-07
2.84283e-07
1.52815e-08
5.92669e-08
8.12295e-07
5.18915e-06
1.98054e-05
5.42094e-05
0.00011723
0.000213395
0.00034263
0.000501903
0.000679631
0.000877012
0.00110297
0.00135998
0.00164827
0.00197024
0.0023283
0.00272374
0.00315869
0.00363159
0.0041396
0.0046816
0.00524699
0.00583216
0.00643739
0.00705395
0.00766503
0.00824911
0.00877379
0.00915568
0.00936313
0.00932354
0.00894554
0.00814525
0.00692734
0.00552774
0.00431161
0.00253266
0.000885257
0.000177523
2.37487e-05
2.06623e-06
3.02116e-07
2.2949e-07
2.32708e-07
2.40056e-07
2.47868e-07
2.52812e-07
2.65264e-07
2.7232e-07
2.84282e-07
1.51973e-08
5.89597e-08
8.09719e-07
5.17091e-06
1.97147e-05
5.39522e-05
0.000116795
0.00021274
0.000341564
0.000500687
0.000678723
0.000875505
0.00109997
0.00135618
0.00164484
0.00196631
0.00232338
0.00271796
0.00315145
0.0036253
0.00413594
0.00467795
0.00524527
0.00583445
0.00644882
0.00707744
0.00770852
0.00832085
0.00888739
0.0093532
0.0096398
0.00971452
0.0094866
0.00885999
0.00778827
0.00638885
0.00503541
0.003609
0.00167287
0.00044473
7.70686e-05
8.75897e-06
7.83633e-07
2.44913e-07
2.29668e-07
2.34388e-07
2.41702e-07
2.4702e-07
2.57222e-07
2.64202e-07
2.72299e-07
2.84281e-07
1.50995e-08
5.85761e-08
8.06552e-07
5.16069e-06
1.96665e-05
5.37633e-05
0.000116361
0.000212132
0.000340769
0.000499475
0.000677645
0.000874678
0.00109853
0.00135295
0.00164092
0.00196293
0.00231982
0.00271344
0.00314638
0.00361907
0.0041316
0.0046765
0.0052434
0.00583715
0.00645745
0.00709806
0.00774511
0.00838299
0.00898542
0.00951878
0.00989029
0.0100592
0.0099667
0.0095097
0.00860539
0.00728603
0.0058215
0.0045625
0.00265999
0.00096114
0.000207722
3.09563e-05
3.09149e-06
3.8148e-07
2.31391e-07
2.3072e-07
2.35897e-07
2.41973e-07
2.50403e-07
2.56227e-07
2.63811e-07
2.72289e-07
2.84281e-07
1.49988e-08
5.8093e-08
8.02137e-07
5.14659e-06
1.96458e-05
5.36796e-05
0.000116061
0.000211534
0.000340044
0.000498618
0.000676519
0.000873591
0.00109781
0.00135165
0.00163765
0.00195905
0.00231661
0.00271055
0.00314267
0.00361495
0.00412682
0.00467405
0.00524431
0.00583934
0.00646598
0.00711493
0.0077775
0.00843622
0.00907095
0.00964938
0.0101113
0.0103713
0.0103913
0.0100927
0.00936784
0.00817983
0.00668873
0.00530188
0.00374989
0.0017445
0.00048523
9.11451e-05
1.15479e-05
1.11759e-06
2.65935e-07
2.29204e-07
2.31845e-07
2.36571e-07
2.45252e-07
2.51032e-07
2.56559e-07
2.6362e-07
2.72284e-07
2.84281e-07
1.49015e-08
5.7622e-08
7.96146e-07
5.12463e-06
1.96111e-05
5.36607e-05
0.000115963
0.000211155
0.000339339
0.00049786
0.000675828
0.000872596
0.00109686
0.0013512
0.00163669
0.00195599
0.0023129
0.00270814
0.00314073
0.00361263
0.00412426
0.00467137
0.00524268
0.00584425
0.00647355
0.00713108
0.00780502
0.00848361
0.00914511
0.00976404
0.010301
0.0106504
0.0107761
0.0106111
0.0100626
0.00904465
0.00760971
0.00608311
0.00479168
0.00273078
0.000997995
0.000227362
3.69211e-05
4.08294e-06
4.81917e-07
2.35998e-07
2.29485e-07
2.32055e-07
2.39413e-07
2.47653e-07
2.5187e-07
2.58295e-07
2.63548e-07
2.72283e-07
2.84281e-07
1.48154e-08
5.71922e-08
7.9029e-07
5.09256e-06
1.95482e-05
5.3606e-05
0.000115979
0.000211088
0.000338948
0.000497138
0.000675284
0.000871989
0.00109596
0.00135048
0.00163675
0.00195538
0.0023102
0.00270485
0.00313936
0.00361215
0.00412363
0.00467093
0.00524095
0.00584608
0.00648365
0.00714561
0.00783092
0.00852468
0.00921139
0.0098643
0.0104515
0.0109009
0.0111214
0.0110815
0.0106871
0.00985214
0.0085449
0.00695935
0.00554123
0.00383414
0.00176643
0.00050334
0.000100097
1.38318e-05
1.44244e-06
2.93401e-07
2.2936e-07
2.29381e-07
2.34299e-07
2.4223e-07
2.47278e-07
2.53264e-07
2.57542e-07
2.6352e-07
2.72282e-07
2.84281e-07
1.47445e-08
5.68331e-08
7.85041e-07
5.06072e-06
1.94481e-05
5.34815e-05
0.000115926
0.000211195
0.000338986
0.000496826
0.00067484
0.00087153
0.00109551
0.00134958
0.00163627
0.00195599
0.00231026
0.00270249
0.00313689
0.00361188
0.00412483
0.00467197
0.00524203
0.00584755
0.00649004
0.00716239
0.00785439
0.00856299
0.00926954
0.00995414
0.010584
0.0111195
0.0114352
0.0115028
0.0112577
0.0105905
0.0094477
0.00790625
0.00632855
0.00497945
0.00274451
0.000997764
0.000235895
4.0565e-05
4.88528e-06
5.80571e-07
2.42371e-07
2.279e-07
2.30833e-07
2.36845e-07
2.43165e-07
2.493e-07
2.51799e-07
2.57193e-07
2.6351e-07
2.72282e-07
2.84281e-07
1.46891e-08
5.65639e-08
7.80896e-07
5.03243e-06
1.93473e-05
5.3265e-05
0.000115742
0.000211182
0.00033924
0.000497051
0.000674875
0.000871297
0.00109525
0.0013495
0.00163559
0.00195599
0.00231163
0.00270354
0.0031352
0.00361038
0.00412605
0.00467484
0.00524444
0.0058519
0.00649574
0.00717469
0.00787964
0.00859778
0.00932346
0.0100337
0.010703
0.011292
0.0117189
0.0118874
0.0117694
0.0112733
0.0102961
0.00886193
0.00720551
0.00575396
0.00385401
0.00173948
0.000499889
0.000103527
1.51634e-05
1.70331e-06
3.20889e-07
2.29673e-07
2.28757e-07
2.32815e-07
2.38343e-07
2.46104e-07
2.49054e-07
2.53706e-07
2.57065e-07
2.63507e-07
2.72282e-07
2.84281e-07
1.46555e-08
5.63912e-08
7.78012e-07
5.01131e-06
1.92591e-05
5.30453e-05
0.000115385
0.000210969
0.000339324
0.000497529
0.000675572
0.000871628
0.00109524
0.00134962
0.00163597
0.00195604
0.00231245
0.00270611
0.00313721
0.00360994
0.00412588
0.00467794
0.00524916
0.00585751
0.0065043
0.00718584
0.00789951
0.00863366
0.00937249
0.010107
0.010809
0.0114467
0.0119675
0.0122393
0.0122363
0.0118892
0.0110969
0.00979654
0.00814715
0.00654522
0.00501212
0.00269675
0.00096363
0.000233422
4.16511e-05
5.32896e-06
6.58522e-07
2.48681e-07
2.27704e-07
2.30297e-07
2.34058e-07
2.41338e-07
2.45719e-07
2.50513e-07
2.52606e-07
2.57028e-07
2.63506e-07
2.72283e-07
2.84281e-07
1.46236e-08
5.63324e-08
7.76678e-07
4.99768e-06
1.91962e-05
5.28558e-05
0.000115025
0.00021049
0.000339131
0.000497772
0.000676448
0.000872731
0.001096
0.00134991
0.00163666
0.00195699
0.00231324
0.00270796
0.00314114
0.00361317
0.00412702
0.00467898
0.00525372
0.00586553
0.00651401
0.00719979
0.00791762
0.00866311
0.00942168
0.0101738
0.0109065
0.0115853
0.012171
0.0125592
0.0126639
0.0124518
0.0118283
0.0107062
0.00911695
0.00739683
0.00592701
0.00379837
0.0016647
0.000477632
0.00010146
1.54347e-05
1.83765e-06
3.41616e-07
2.30879e-07
2.28461e-07
2.3132e-07
2.36557e-07
2.42116e-07
2.47736e-07
2.48637e-07
2.52196e-07
2.57016e-07
2.63507e-07
2.72283e-07
2.84281e-07
1.45885e-08
5.62666e-08
7.7696e-07
4.99419e-06
1.91607e-05
5.27287e-05
0.000114716
0.000210015
0.000338591
0.00049766
0.000676977
0.000874048
0.00109762
0.00135123
0.00163737
0.00195813
0.00231486
0.00270942
0.00314447
0.00361874
0.00413195
0.00468142
0.00525688
0.00587313
0.00652617
0.00721469
0.00793836
0.00869006
0.00946318
0.0102395
0.0109953
0.0117125
0.0123493
0.0128404
0.013057
0.0129666
0.0125003
0.0115549
0.0101037
0.00832793
0.0067158
0.00497226
0.00258652
0.000899737
0.000221491
4.03073e-05
5.37443e-06
6.95246e-07
2.53525e-07
2.27742e-07
2.29309e-07
2.32871e-07
2.37788e-07
2.45002e-07
2.47118e-07
2.49436e-07
2.52068e-07
2.57014e-07
2.63507e-07
2.72283e-07
2.84281e-07
1.45427e-08
5.6155e-08
7.76962e-07
5.00053e-06
1.91619e-05
5.26699e-05
0.000114532
0.000209624
0.000338067
0.000497128
0.000677064
0.000874891
0.0010995
0.00135358
0.00163925
0.0019595
0.00231663
0.00271172
0.00314703
0.00362367
0.00413914
0.00468822
0.00526154
0.00587901
0.00653759
0.007232
0.00795977
0.00871931
0.00950121
0.010296
0.0110814
0.0118284
0.0125126
0.0130845
0.0134134
0.0134402
0.0131164
0.0123451
0.0110535
0.00933319
0.00754808
0.00605348
0.00367069
0.00154776
0.00044032
9.4912e-05
1.47474e-05
1.83693e-06
3.5076e-07
2.3182e-07
2.27857e-07
2.30589e-07
2.33976e-07
2.40844e-07
2.44833e-07
2.47336e-07
2.48479e-07
2.52036e-07
2.57014e-07
2.63508e-07
2.72283e-07
2.84281e-07
1.44938e-08
5.59815e-08
7.76157e-07
5.00483e-06
1.9198e-05
5.27019e-05
0.00011447
0.00020942
0.00033766
0.000496637
0.00067661
0.000875197
0.00110072
0.0013561
0.00164249
0.00196209
0.00231889
0.00271453
0.00315028
0.00362777
0.00414546
0.00469633
0.00527095
0.00588647
0.00654691
0.00724821
0.00798348
0.00874882
0.00954104
0.0103479
0.0111565
0.0119394
0.0126616
0.0132916
0.0137359
0.0138749
0.0136834
0.0130757
0.0119583
0.010339
0.00848615
0.00684938
0.00483841
0.00241909
0.000813125
0.00020174
3.70501e-05
5.07515e-06
6.90655e-07
2.55614e-07
2.27559e-07
2.29014e-07
2.31481e-07
2.3665e-07
2.41956e-07
2.45969e-07
2.46665e-07
2.4815e-07
2.52029e-07
2.57015e-07
2.63509e-07
2.72283e-07
2.84281e-07
1.44376e-08
5.57704e-08
7.74335e-07
5.0031e-06
1.92256e-05
5.28201e-05
0.000114586
0.000209411
0.000337516
0.000496312
0.000676247
0.00087488
0.00110124
0.00135781
0.0016458
0.00196623
0.00232257
0.00271796
0.00315444
0.00363279
0.00415121
0.00470319
0.0052817
0.00589907
0.00655784
0.00726183
0.00800561
0.00878043
0.00958062
0.0104009
0.0112255
0.0120374
0.0128031
0.0134808
0.0140246
0.0142763
0.014205
0.01375
0.0128073
0.0113321
0.00947553
0.00769282
0.00604427
0.00345351
0.00139761
0.000391426
8.4698e-05
1.33223e-05
1.72093e-06
3.48195e-07
2.32031e-07
2.27763e-07
2.29777e-07
2.33444e-07
2.38173e-07
2.44861e-07
2.45799e-07
2.45645e-07
2.48068e-07
2.52029e-07
2.57017e-07
2.63509e-07
2.72284e-07
2.84281e-07
1.43726e-08
5.5499e-08
7.71839e-07
4.99485e-06
1.92286e-05
5.29113e-05
0.000114855
0.000209672
0.000337631
0.000496315
0.000676173
0.000874666
0.00110115
0.00135868
0.00164822
0.00197072
0.00232769
0.00272301
0.00315912
0.00363846
0.00415824
0.00471007
0.00529093
0.00591302
0.00657435
0.00727706
0.00802459
0.00880985
0.00962192
0.0104528
0.0112946
0.0121275
0.0129291
0.0136593
0.014268
0.0146437
0.0146895
0.0143714
0.0135999
0.0122889
0.0105019
0.00858184
0.00695621
0.0046096
0.00218656
0.000712502
0.000175904
3.2312e-05
4.513e-06
6.4976e-07
2.54363e-07
2.27462e-07
2.2831e-07
2.31309e-07
2.34564e-07
2.41234e-07
2.44477e-07
2.43878e-07
2.44979e-07
2.48052e-07
2.5203e-07
2.57018e-07
2.6351e-07
2.72284e-07
2.84281e-07
1.43002e-08
5.51752e-08
7.68381e-07
4.98185e-06
1.92075e-05
5.29368e-05
0.000115066
0.000210166
0.000338107
0.000496638
0.000676465
0.000874808
0.00110121
0.00135884
0.00164956
0.00197396
0.00233346
0.00272947
0.0031655
0.00364427
0.00416546
0.00471879
0.00530008
0.00592514
0.00659215
0.00729828
0.00804513
0.00883548
0.00966032
0.010506
0.0113618
0.0122164
0.0130451
0.0138193
0.0144911
0.0149766
0.0151372
0.0149494
0.0143344
0.0131996
0.0115302
0.0095601
0.00778092
0.00583567
0.00316374
0.00121492
0.000335786
7.19292e-05
1.13721e-05
1.51932e-06
3.34989e-07
2.3143e-07
2.27091e-07
2.29607e-07
2.31915e-07
2.37332e-07
2.42515e-07
2.43794e-07
2.43547e-07
2.44804e-07
2.48051e-07
2.52032e-07
2.57019e-07
2.63511e-07
2.72284e-07
2.84281e-07
1.42234e-08
5.48088e-08
7.64054e-07
4.96262e-06
1.91679e-05
5.29012e-05
0.00011514
0.000210544
0.000338888
0.000497403
0.000677158
0.000875479
0.00110153
0.00135923
0.00165
0.001976
0.00233773
0.00273673
0.00317403
0.00365237
0.0041729
0.00472794
0.00531116
0.00593703
0.00660778
0.00732074
0.00807205
0.00886255
0.00969416
0.0105554
0.0114294
0.0123021
0.0131581
0.0139668
0.0146922
0.0152778
0.0155538
0.0154847
0.0150194
0.0140544
0.012536
0.0105925
0.00865392
0.00699631
0.00429928
0.00191511
0.00060308
0.00014674
2.67394e-05
3.78945e-06
5.84147e-07
2.50464e-07
2.26795e-07
2.28138e-07
2.30261e-07
2.34199e-07
2.39243e-07
2.42628e-07
2.42813e-07
2.42368e-07
2.44773e-07
2.48052e-07
2.52034e-07
2.5702e-07
2.63511e-07
2.72284e-07
2.84282e-07
1.41485e-08
5.4426e-08
7.59073e-07
4.93749e-06
1.91051e-05
5.28162e-05
0.000115094
0.000210692
0.00033947
0.000498528
0.00067838
0.000876584
0.00110258
0.00135999
0.0016507
0.00197694
0.00234073
0.00274251
0.00318329
0.00366302
0.00418297
0.00473724
0.00532266
0.00595093
0.00662299
0.00734061
0.00810009
0.00889632
0.0097292
0.0105993
0.0114922
0.0123873
0.0132664
0.014109
0.0148779
0.0155283
0.0159351
0.0159866
0.0156544
0.0148573
0.0135022
0.0116397
0.00959375
0.00783322
0.00550832
0.00282539
0.00101952
0.000277982
5.81075e-05
9.20309e-06
1.27529e-06
3.15665e-07
2.30109e-07
2.26938e-07
2.29003e-07
2.32134e-07
2.35888e-07
2.40241e-07
2.4263e-07
2.42189e-07
2.42051e-07
2.44769e-07
2.48054e-07
2.52036e-07
2.57021e-07
2.63512e-07
2.72285e-07
2.84282e-07
1.4074e-08
5.4057e-08
7.53777e-07
4.90804e-06
1.90199e-05
5.26729e-05
0.000114955
0.000210656
0.000339718
0.000499355
0.000680006
0.000878311
0.00110419
0.00136144
0.00165206
0.00197801
0.00234231
0.00274635
0.0031906
0.00367428
0.00419528
0.00474882
0.00533433
0.00596523
0.00664023
0.00735981
0.00812508
0.00893111
0.00977123
0.0106441
0.0115485
0.0124664
0.0133728
0.0142446
0.0150553
0.0157598
0.0162809
0.0164483
0.0162498
0.0156047
0.0144244
0.0126833
0.0106024
0.00868342
0.00676046
0.00388353
0.00163023
0.000492653
0.000117452
2.09966e-05
3.02204e-06
5.08881e-07
2.45071e-07
2.26541e-07
2.27799e-07
2.30614e-07
2.33468e-07
2.3717e-07
2.41518e-07
2.42279e-07
2.40164e-07
2.41995e-07
2.4477e-07
2.48057e-07
2.52038e-07
2.57023e-07
2.63513e-07
2.72285e-07
2.84282e-07
1.40053e-08
5.37119e-08
7.48634e-07
4.87648e-06
1.89183e-05
5.24706e-05
0.000114702
0.000210462
0.000339703
0.000499728
0.000681215
0.000880498
0.00110655
0.00136373
0.00165422
0.00197988
0.00234389
0.00274845
0.00319546
0.00368328
0.00420827
0.00476227
0.00534851
0.00597968
0.00665786
0.00738105
0.0081491
0.00896228
0.00981409
0.010696
0.011605
0.0125377
0.0134716
0.0143767
0.0152238
0.0159795
0.0165897
0.0168804
0.0167987
0.0163057
0.0152914
0.0137039
0.011659
0.00958244
0.00781761
0.00506978
0.00242398
0.000829743
0.000221039
4.48193e-05
7.05214e-06
1.02597e-06
2.94106e-07
2.28803e-07
2.26617e-07
2.29222e-07
2.31736e-07
2.34187e-07
2.38947e-07
2.41964e-07
2.39287e-07
2.39677e-07
2.41989e-07
2.44773e-07
2.48059e-07
2.5204e-07
2.57024e-07
2.63513e-07
2.72286e-07
2.84282e-07
1.39421e-08
5.33975e-08
7.43805e-07
4.84487e-06
1.88079e-05
5.22274e-05
0.000114335
0.000210092
0.000339475
0.000499764
0.000681813
0.0008821
0.00110939
0.00136678
0.00165716
0.00198282
0.00234632
0.00275075
0.00319836
0.00368969
0.00421906
0.00477574
0.00536476
0.00599693
0.00667562
0.00740261
0.00817509
0.00899208
0.00985269
0.0107486
0.0116689
0.0126086
0.0135612
0.0144993
0.0153866
0.0161874
0.0168598
0.0172811
0.0173161
0.0169534
0.0161092
0.0146825
0.0127261
0.0105548
0.00866904
0.00631245
0.00340187
0.00132965
0.000388261
8.97491e-05
1.56595e-05
2.28663e-06
4.34156e-07
2.39414e-07
2.25962e-07
2.27851e-07
2.30308e-07
2.31981e-07
2.36017e-07
2.40635e-07
2.39944e-07
2.38229e-07
2.39591e-07
2.41991e-07
2.44776e-07
2.48062e-07
2.52042e-07
2.57025e-07
2.63514e-07
2.72286e-07
2.84282e-07
1.3885e-08
5.31134e-08
7.39407e-07
4.81502e-06
1.8697e-05
5.1962e-05
0.000113888