/*--------------------------------*- C++ -*----------------------------------*\
| =========                 |                                                 |
| \\      /  F ield         | OpenFOAM: The Open Source CFD Toolbox           |
|  \\    /   O peration     | Version:  v2012                                 |
|   \\  /    A nd           | Website:  www.openfoam.com                      |
|    \\/     M anipulation  |                                                 |
\*---------------------------------------------------------------------------*/
FoamFile
{
    version     2.0;
    format      ascii;
    class       volScalarField;
    location    "13600";
    object      omega;
}
// * * * * * * * * * * * * * * * * * * * * * * * * * * * * * * * * * * * * * //

dimensions      [0 0 -1 0 0 0 0];


internalField   nonuniform List<scalar> 
39402
(
1.09864e+09
1.3281e+09
2.80076e+08
1.67927e+09
2.41471e+08
1.56305e+08
1.73781e+09
2.94379e+08
9.1285e+07
1.22861e+08
1.76587e+09
3.16017e+08
1.05706e+08
5.1243e+07
1.09381e+08
1.76744e+09
3.21764e+08
1.14256e+08
5.49283e+07
3.5851e+07
1.00245e+08
1.75253e+09
3.22338e+08
1.16614e+08
5.8147e+07
3.47941e+07
2.87897e+07
9.43567e+07
1.74e+09
3.19827e+08
1.16979e+08
5.95035e+07
3.61837e+07
2.52317e+07
2.51071e+07
8.99249e+07
1.73284e+09
3.17547e+08
1.16196e+08
5.98281e+07
3.7098e+07
2.5748e+07
2.01676e+07
2.29438e+07
8.61297e+07
1.73085e+09
3.16176e+08
1.15416e+08
5.95434e+07
3.74044e+07
2.63655e+07
2.01277e+07
1.72769e+07
2.14988e+07
8.26766e+07
1.73058e+09
3.15692e+08
1.1493e+08
5.92107e+07
3.73181e+07
2.66146e+07
2.04655e+07
1.68043e+07
1.55146e+07
2.03963e+07
7.92664e+07
1.73177e+09
3.15478e+08
1.14736e+08
5.89875e+07
3.71698e+07
2.65965e+07
2.06034e+07
1.68493e+07
1.46829e+07
1.43571e+07
1.9415e+07
7.6893e+07
1.7336e+09
3.15542e+08
1.14623e+08
5.88864e+07
3.70529e+07
2.6522e+07
2.05766e+07
1.68348e+07
1.44326e+07
1.32309e+07
1.35169e+07
1.84112e+07
7.47589e+07
1.73715e+09
3.15739e+08
1.1461e+08
5.88114e+07
3.69907e+07
2.64484e+07
2.05153e+07
1.67556e+07
1.42469e+07
1.26976e+07
1.21609e+07
1.28265e+07
1.75413e+07
7.23183e+07
1.74003e+09
3.16266e+08
1.14646e+08
5.87795e+07
3.69312e+07
2.64016e+07
2.04522e+07
1.66748e+07
1.40961e+07
1.23426e+07
1.13679e+07
1.13026e+07
1.2185e+07
1.69211e+07
6.98219e+07
1.74265e+09
3.16693e+08
1.1481e+08
5.87732e+07
3.68914e+07
2.63482e+07
2.0407e+07
1.66048e+07
1.39815e+07
1.21162e+07
1.08621e+07
1.02874e+07
1.05418e+07
1.15184e+07
1.64961e+07
6.73926e+07
1.74557e+09
3.17105e+08
1.14945e+08
5.88284e+07
3.68635e+07
2.63038e+07
2.0355e+07
1.65539e+07
1.38969e+07
1.19634e+07
1.05652e+07
9.66292e+06
9.36344e+06
9.79049e+06
1.07492e+07
1.62034e+07
6.50591e+07
1.74868e+09
3.17573e+08
1.15082e+08
5.88724e+07
3.68697e+07
2.62653e+07
2.0308e+07
1.64998e+07
1.38362e+07
1.18618e+07
1.03747e+07
9.30528e+06
8.66156e+06
8.54263e+06
8.99644e+06
9.85935e+06
1.60043e+07
6.28087e+07
1.75163e+09
3.18091e+08
1.15244e+08
5.8921e+07
3.68716e+07
2.62475e+07
2.02648e+07
1.64511e+07
1.37782e+07
1.17894e+07
1.02556e+07
9.08159e+06
8.25765e+06
7.80804e+06
7.80071e+06
8.17157e+06
8.98727e+06
1.59111e+07
6.06078e+07
1.75651e+09
3.18598e+08
1.15428e+08
5.89838e+07
3.68771e+07
2.62276e+07
2.02362e+07
1.64064e+07
1.37277e+07
1.17267e+07
1.01709e+07
8.94566e+06
8.00696e+06
7.37312e+06
7.06839e+06
7.11963e+06
7.37743e+06
8.23176e+06
1.5926e+07
5.84401e+07
1.76024e+09
3.19436e+08
1.15614e+08
5.90591e+07
3.68918e+07
2.62112e+07
2.02068e+07
1.63732e+07
1.36821e+07
1.16741e+07
1.01037e+07
8.84956e+06
7.85503e+06
7.10224e+06
6.61759e+06
6.41502e+06
6.48117e+06
6.66824e+06
7.61139e+06
1.59641e+07
5.63268e+07
1.76172e+09
3.20092e+08
1.1591e+08
5.91364e+07
3.69147e+07
2.62011e+07
2.01804e+07
1.63404e+07
1.36468e+07
1.16279e+07
1.00492e+07
8.77771e+06
7.74911e+06
6.9359e+06
6.33335e+06
5.96461e+06
5.82672e+06
5.89144e+06
6.05589e+06
7.1099e+06
1.5593e+07
5.43839e+07
1.76655e+09
3.20365e+08
1.16149e+08
5.92655e+07
3.69396e+07
2.61969e+07
2.01589e+07
1.63105e+07
1.36128e+07
1.15915e+07
1.00028e+07
8.72143e+06
7.67284e+06
6.82188e+06
6.15559e+06
5.67475e+06
5.39381e+06
5.29918e+06
5.3655e+06
5.5217e+06
6.671e+06
1.51169e+07
5.28831e+07
1.76954e+09
3.212e+08
1.16261e+08
5.93707e+07
3.69924e+07
2.61945e+07
2.0142e+07
1.62849e+07
1.35819e+07
1.15575e+07
9.96602e+06
8.67484e+06
7.61455e+06
6.74138e+06
6.03482e+06
5.48954e+06
5.1071e+06
4.89697e+06
4.84471e+06
4.89763e+06
5.03833e+06
6.30417e+06
1.46112e+07
5.19139e+07
1.77285e+09
3.21749e+08
1.16562e+08
5.94202e+07
3.70341e+07
2.62086e+07
2.0127e+07
1.62631e+07
1.35549e+07
1.15266e+07
9.93265e+06
8.63801e+06
7.56759e+06
6.6809e+06
5.95034e+06
5.36348e+06
4.91865e+06
4.62037e+06
4.47551e+06
4.45735e+06
4.47006e+06
4.58643e+06
6.01861e+06
1.40768e+07
5.15835e+07
1.77581e+09
3.22325e+08
1.16768e+08
5.95545e+07
3.70485e+07
2.62175e+07
2.01228e+07
1.62434e+07
1.35316e+07
1.14997e+07
9.90275e+06
8.60538e+06
7.53056e+06
6.63323e+06
5.88758e+06
5.27535e+06
4.78886e+06
4.43137e+06
4.20834e+06
4.11704e+06
4.10705e+06
4.07173e+06
4.15873e+06
5.79333e+06
1.35384e+07
5.16294e+07
1.77882e+09
3.2284e+08
1.1698e+08
5.96465e+07
3.71071e+07
2.6212e+07
2.01159e+07
1.62316e+07
1.35104e+07
1.14764e+07
9.87684e+06
8.57659e+06
7.49852e+06
6.59575e+06
5.83887e+06
5.21027e+06
4.69749e+06
4.2983e+06
4.01791e+06
3.856e+06
3.80027e+06
3.78026e+06
3.70453e+06
3.76201e+06
5.61085e+06
1.3045e+07
5.18844e+07
1.78112e+09
3.23371e+08
1.17169e+08
5.9741e+07
3.71437e+07
2.62321e+07
2.01007e+07
1.62181e+07
1.34957e+07
1.14552e+07
9.85456e+06
8.55196e+06
7.47065e+06
6.56398e+06
5.80068e+06
5.16023e+06
4.63005e+06
4.20337e+06
3.88059e+06
3.66361e+06
3.5493e+06
3.51467e+06
3.46675e+06
3.35824e+06
3.41746e+06
5.4523e+06
1.26109e+07
5.23045e+07
1.78411e+09
3.23783e+08
1.17362e+08
5.98237e+07
3.71819e+07
2.62395e+07
2.0102e+07
1.61993e+07
1.34797e+07
1.144e+07
9.8346e+06
8.53086e+06
7.4471e+06
6.53671e+06
5.76887e+06
5.12109e+06
4.5785e+06
4.13302e+06
3.78128e+06
3.52214e+06
3.35736e+06
3.27956e+06
3.25007e+06
3.15986e+06
3.01844e+06
3.15041e+06
5.32092e+06
1.22224e+07
5.28401e+07
1.7864e+09
3.24288e+08
1.17514e+08
5.99085e+07
3.7214e+07
2.62482e+07
2.00953e+07
1.61925e+07
1.34601e+07
1.14237e+07
9.81988e+06
8.51222e+06
7.42711e+06
6.51389e+06
5.74184e+06
5.08891e+06
4.53819e+06
4.07936e+06
3.70729e+06
3.41845e+06
3.21296e+06
3.09116e+06
3.03834e+06
2.99794e+06
2.86165e+06
2.68054e+06
2.96696e+06
5.2105e+06
1.20852e+07
5.35416e+07
1.78904e+09
3.24669e+08
1.17692e+08
5.99729e+07
3.72471e+07
2.62533e+07
2.00894e+07
1.61799e+07
1.34499e+07
1.14045e+07
9.8044e+06
8.49846e+06
7.40961e+06
6.49467e+06
5.7194e+06
5.06181e+06
4.50535e+06
4.03747e+06
3.6509e+06
3.34075e+06
3.10541e+06
2.94542e+06
2.8578e+06
2.81782e+06
2.75073e+06
2.57563e+06
2.3603e+06
2.84754e+06
5.16783e+06
1.20083e+07
5.43525e+07
1.79e+09
3.25098e+08
1.17823e+08
6.00479e+07
3.72693e+07
2.62593e+07
2.00813e+07
1.6168e+07
1.34354e+07
1.13934e+07
9.7865e+06
8.48422e+06
7.39681e+06
6.47804e+06
5.7006e+06
5.0394e+06
4.47792e+06
4.00353e+06
3.60692e+06
3.28157e+06
3.02421e+06
2.83481e+06
2.71282e+06
2.65043e+06
2.61021e+06
2.50311e+06
2.29354e+06
2.09556e+06
2.78629e+06
5.12584e+06
1.19753e+07
5.52139e+07
1.79191e+09
3.25254e+08
1.17968e+08
6.00997e+07
3.72961e+07
2.62587e+07
2.0074e+07
1.61546e+07
1.34213e+07
1.13788e+07
9.77579e+06
8.46778e+06
7.3837e+06
6.46588e+06
5.68448e+06
5.02071e+06
4.45528e+06
3.97541e+06
3.57148e+06
3.2354e+06
2.96219e+06
2.75041e+06
2.60024e+06
2.5091e+06
2.46242e+06
2.40778e+06
2.25849e+06
2.00572e+06
1.91669e+06
2.76261e+06
5.06295e+06
1.19189e+07
5.60263e+07
1.79419e+09
3.25535e+08
1.18016e+08
6.01565e+07
3.73102e+07
2.62606e+07
2.00623e+07
1.61417e+07
1.34061e+07
1.13646e+07
9.76216e+06
8.45793e+06
7.36871e+06
6.45362e+06
5.67263e+06
5.00483e+06
4.43644e+06
3.95223e+06
3.5423e+06
3.1983e+06
2.91375e+06
2.68563e+06
2.51317e+06
2.39608e+06
2.32861e+06
2.28709e+06
2.20376e+06
2.01961e+06
1.72665e+06
1.81061e+06
2.75149e+06
4.98704e+06
1.18346e+07
5.67142e+07
1.79594e+09
3.25882e+08
1.181e+08
6.01689e+07
3.73263e+07
2.62549e+07
2.00524e+07
1.61257e+07
1.33914e+07
1.13495e+07
9.74898e+06
8.44567e+06
7.3597e+06
6.43978e+06
5.66088e+06
4.99298e+06
4.42048e+06
3.93294e+06
3.51831e+06
3.16793e+06
2.87492e+06
2.63491e+06
2.44581e+06
2.30709e+06
2.21728e+06
2.16586e+06
2.11769e+06
1.99714e+06
1.77715e+06
1.4978e+06
1.75767e+06
2.73673e+06
4.91249e+06
1.17465e+07
5.72725e+07
1.79729e+09
3.26126e+08
1.18202e+08
6.01938e+07
3.73188e+07
2.62501e+07
2.00374e+07
1.61111e+07
1.33741e+07
1.13349e+07
9.73511e+06
8.4338e+06
7.34874e+06
6.43142e+06
5.6479e+06
4.98147e+06
4.4084e+06
3.91666e+06
3.49835e+06
3.143e+06
2.84325e+06
2.59427e+06
2.39282e+06
2.23746e+06
2.12743e+06
2.05904e+06
2.01528e+06
1.94791e+06
1.79326e+06
1.52643e+06
1.34896e+06
1.73374e+06
2.7122e+06
4.84152e+06
1.16616e+07
5.77691e+07
1.7977e+09
3.26301e+08
1.18264e+08
6.02241e+07
3.73166e+07
2.62316e+07
2.00228e+07
1.60931e+07
1.33586e+07
1.13182e+07
9.72158e+06
8.42145e+06
7.33813e+06
6.42147e+06
5.63987e+06
4.96906e+06
4.39692e+06
3.90415e+06
3.48153e+06
3.12226e+06
2.81728e+06
2.56123e+06
2.35034e+06
2.18233e+06
2.05605e+06
1.9699e+06
1.91673e+06
1.87121e+06
1.77468e+06
1.58864e+06
1.28738e+06
1.26815e+06
1.71981e+06
2.68352e+06
4.78102e+06
1.16041e+07
5.76117e+07
1.79794e+09
3.26309e+08
1.183e+08
6.02347e+07
3.73158e+07
2.62157e+07
1.99996e+07
1.60751e+07
1.33404e+07
1.13029e+07
9.7063e+06
8.40939e+06
7.32713e+06
6.4119e+06
5.63065e+06
4.96111e+06
4.3848e+06
3.89246e+06
3.46842e+06
3.10478e+06
2.79566e+06
2.53413e+06
2.31583e+06
2.13801e+06
1.99901e+06
1.89758e+06
1.83042e+06
1.78565e+06
1.72797e+06
1.60052e+06
1.37408e+06
1.10453e+06
1.22674e+06
1.70808e+06
2.65266e+06
4.72493e+06
1.15798e+07
5.68662e+07
1.79935e+09
3.26263e+08
1.18277e+08
6.02324e+07
3.73039e+07
2.61996e+07
1.99779e+07
1.60511e+07
1.33223e+07
1.12856e+07
9.69205e+06
8.39584e+06
7.31648e+06
6.40201e+06
5.62179e+06
4.95227e+06
4.37671e+06
3.88046e+06
3.45637e+06
3.09097e+06
2.77745e+06
2.51155e+06
2.28755e+06
2.10201e+06
1.95293e+06
1.83903e+06
1.75838e+06
1.70504e+06
1.66088e+06
1.58027e+06
1.42544e+06
1.15288e+06
994342
1.20679e+06
1.6958e+06
2.62423e+06
4.6908e+06
1.1616e+07
5.71299e+07
1.80109e+09
3.264e+08
1.18226e+08
6.02016e+07
3.72844e+07
2.61768e+07
1.99552e+07
1.60281e+07
1.32994e+07
1.12683e+07
9.67597e+06
8.383e+06
7.30451e+06
6.39248e+06
5.61274e+06
4.94387e+06
4.36806e+06
3.87207e+06
3.44427e+06
3.07843e+06
2.76288e+06
2.49255e+06
2.26397e+06
2.07247e+06
1.91544e+06
1.79137e+06
1.69895e+06
1.63497e+06
1.58978e+06
1.53722e+06
1.42965e+06
1.24246e+06
958236
938446
1.19641e+06
1.68533e+06
2.60489e+06
4.67272e+06
1.17835e+07
5.71862e+07
1.80168e+09
3.26595e+08
1.18228e+08
6.01547e+07
3.72497e+07
2.61492e+07
1.99282e+07
1.6004e+07
1.32772e+07
1.12471e+07
9.65994e+06
8.36855e+06
7.29308e+06
6.38187e+06
5.60405e+06
4.9354e+06
4.35991e+06
3.86343e+06
3.43548e+06
3.06614e+06
2.74979e+06
2.47718e+06
2.24412e+06
2.04785e+06
1.88462e+06
1.75243e+06
1.65006e+06
1.57567e+06
1.52397e+06
1.48037e+06
1.40982e+06
1.27878e+06
1.04815e+06
827457
911672
1.18984e+06
1.6763e+06
2.58711e+06
4.66115e+06
1.1947e+07
5.72049e+07
1.8013e+09
3.26581e+08
1.18249e+08
6.01288e+07
3.72049e+07
2.61127e+07
1.98978e+07
1.59767e+07
1.32541e+07
1.12265e+07
9.64052e+06
8.3541e+06
7.28016e+06
6.37166e+06
5.59449e+06
4.9273e+06
4.35179e+06
3.85537e+06
3.42666e+06
3.05689e+06
2.73722e+06
2.46347e+06
2.22793e+06
2.02711e+06
1.85891e+06
1.72033e+06
1.60982e+06
1.52605e+06
1.46617e+06
1.42194e+06
1.37233e+06
1.27991e+06
1.12204e+06
859905
757176
899890
1.18378e+06
1.66771e+06
2.5691e+06
4.72872e+06
1.20887e+07
5.72158e+07
1.80084e+09
3.2639e+08
1.18195e+08
6.01094e+07
3.71696e+07
2.60698e+07
1.98618e+07
1.59468e+07
1.32283e+07
1.12049e+07
9.62168e+06
8.3365e+06
7.26716e+06
6.36006e+06
5.58523e+06
4.91848e+06
4.34405e+06
3.84743e+06
3.41854e+06
3.04781e+06
2.72756e+06
2.45058e+06
2.21356e+06
2.01007e+06
1.83726e+06
1.69351e+06
1.57649e+06
1.48478e+06
1.41666e+06
1.36754e+06
1.32521e+06
1.26133e+06
1.14916e+06
952798
717283
724726
894125
1.17856e+06
1.66029e+06
2.57358e+06
4.75097e+06
1.22151e+07
5.7221e+07
1.80088e+09
3.26199e+08
1.18076e+08
6.00552e+07
3.71368e+07
2.60315e+07
1.98215e+07
1.59129e+07
1.32002e+07
1.11811e+07
9.60209e+06
8.3195e+06
7.25137e+06
6.34838e+06
5.57471e+06
4.90992e+06
4.33577e+06
3.83992e+06
3.41065e+06
3.03957e+06
2.71826e+06
2.44055e+06
2.20029e+06
1.99503e+06
1.81935e+06
1.67093e+06
1.54857e+06
1.45035e+06
1.3748e+06
1.31929e+06
1.27677e+06
1.22982e+06
1.14802e+06
1.01264e+06
779315
636406
710759
890397
1.1744e+06
1.66237e+06
2.5719e+06
4.76164e+06
1.23122e+07
5.72206e+07
1.80042e+09
3.26074e+08
1.17956e+08
5.997e+07
3.70856e+07
2.59941e+07
1.97837e+07
1.58759e+07
1.31692e+07
1.11553e+07
9.58034e+06
8.30193e+06
7.23613e+06
6.33419e+06
5.56416e+06
4.90028e+06
4.3277e+06
3.83198e+06
3.4032e+06
3.03164e+06
2.70991e+06
2.43104e+06
2.18995e+06
1.98134e+06
1.8036e+06
1.65214e+06
1.52503e+06
1.42139e+06
1.33952e+06
1.27755e+06
1.23137e+06
1.19063e+06
1.13187e+06
1.03325e+06
864228
635618
597892
704514
887254
1.17476e+06
1.66327e+06
2.57578e+06
4.78205e+06
1.237e+07
5.72208e+07
1.80009e+09
3.25861e+08
1.17858e+08
5.98827e+07
3.70174e+07
2.5946e+07
1.97458e+07
1.58405e+07
1.31357e+07
1.1127e+07
9.55693e+06
8.28236e+06
7.22047e+06
6.32048e+06
5.55133e+06
4.89059e+06
4.31875e+06
3.82428e+06
3.39551e+06
3.02419e+06
2.70197e+06
2.4226e+06
2.18027e+06
1.97071e+06
1.78945e+06
1.63567e+06
1.50535e+06
1.39691e+06
1.30965e+06
1.24181e+06
1.19075e+06
1.15026e+06
1.10561e+06
1.03176e+06
912937
707163
548453
581416
701296
886324
1.17608e+06
1.65995e+06
2.58091e+06
4.81121e+06
1.21642e+07
5.72171e+07
1.80045e+09
3.25672e+08
1.17727e+08
5.98044e+07
3.69473e+07
2.58881e+07
1.97014e+07
1.58047e+07
1.31034e+07
1.10968e+07
9.53124e+06
8.2612e+06
7.20294e+06
6.3065e+06
5.53891e+06
4.87891e+06
4.30975e+06
3.81587e+06
3.38807e+06
3.0167e+06
2.69456e+06
2.41465e+06
2.17172e+06
1.96078e+06
1.77842e+06
1.62097e+06
1.48813e+06
1.37635e+06
1.28428e+06
1.21124e+06
1.15517e+06
1.11212e+06
1.07305e+06
1.01816e+06
929956
781431
568848
506125
574648
699968
886346
1.17659e+06
1.65727e+06
2.57333e+06
4.79944e+06
1.22318e+07
5.7211e+07
1.80073e+09
3.25592e+08
1.17601e+08
5.97114e+07
3.68814e+07
2.58286e+07
1.96511e+07
1.57643e+07
1.30706e+07
1.10676e+07
9.504e+06
8.23809e+06
7.1839e+06
6.2908e+06
5.52632e+06
4.86758e+06
4.29902e+06
3.8074e+06
3.38007e+06
3.00947e+06
2.68724e+06
2.40728e+06
2.16375e+06
1.95205e+06
1.76814e+06
1.60936e+06
1.47284e+06
1.35838e+06
1.26286e+06
1.18512e+06
1.1243e+06
1.07761e+06
1.0393e+06
996585
928735
822761
639559
480119
488133
571894
699519
886294
1.17584e+06
1.65033e+06
2.59244e+06
4.85711e+06
1.22393e+07
5.72034e+07
1.80028e+09
3.25487e+08
1.17507e+08
5.96194e+07
3.6808e+07
2.57712e+07
1.95993e+07
1.57198e+07
1.30341e+07
1.10378e+07
9.47775e+06
8.21362e+06
7.16312e+06
6.27371e+06
5.51219e+06
4.85614e+06
4.28855e+06
3.79746e+06
3.37203e+06
3.00179e+06
2.6802e+06
2.40009e+06
2.1564e+06
1.94398e+06
1.75912e+06
1.59865e+06
1.46053e+06
1.34249e+06
1.24415e+06
1.1629e+06
1.09763e+06
1.04699e+06
1.00709e+06
969655
917682
837581
704911
510120
436500
480990
570925
699526
885904
1.17311e+06
1.6527e+06
2.60234e+06
4.89789e+06
1.22426e+07
5.71941e+07
1.79895e+09
3.25254e+08
1.17404e+08
5.95395e+07
3.67349e+07
2.57095e+07
1.95485e+07
1.56743e+07
1.29946e+07
1.10049e+07
9.45079e+06
8.1901e+06
7.14118e+06
6.25499e+06
5.49682e+06
4.84335e+06
4.27806e+06
3.78771e+06
3.36271e+06
2.9941e+06
2.67282e+06
2.39324e+06
2.14928e+06
1.93657e+06
1.75086e+06
1.58929e+06
1.44931e+06
1.3294e+06
1.22766e+06
1.14347e+06
1.07474e+06
1.02014e+06
977554
941414
900342
837045
741090
576501
423789
417781
478310
570558
699303
884659
1.17313e+06
1.65848e+06
2.61514e+06
4.91195e+06
1.22441e+07
5.71839e+07
1.79772e+09
3.24877e+08
1.17256e+08
5.94551e+07
3.66669e+07
2.56482e+07
1.9495e+07
1.56294e+07
1.29544e+07
1.09695e+07
9.42112e+06
8.1659e+06
7.12011e+06
6.23526e+06
5.47994e+06
4.82945e+06
4.26643e+06
3.77801e+06
3.35357e+06
2.98531e+06
2.66546e+06
2.38611e+06
2.14253e+06
1.92943e+06
1.74331e+06
1.58077e+06
1.43954e+06
1.3176e+06
1.21383e+06
1.1264e+06
1.05466e+06
996794
951044
914115
878202
828508
754702
634281
457021
380995
410504
477307
570293
698501
885397
1.17341e+06
1.66411e+06
2.63126e+06
4.85726e+06
1.22445e+07
5.71733e+07
1.79699e+09
3.2451e+08
1.17061e+08
5.93504e+07
3.65967e+07
2.55894e+07
1.94421e+07
1.55824e+07
1.29146e+07
1.09336e+07
9.38927e+06
8.13917e+06
7.09851e+06
6.21634e+06
5.46217e+06
4.81416e+06
4.25377e+06
3.76732e+06
3.34453e+06
2.97671e+06
2.65717e+06
2.37906e+06
2.13559e+06
1.92271e+06
1.73612e+06
1.57304e+06
1.43071e+06
1.30735e+06
1.20136e+06
1.11193e+06
1.03701e+06
976182
927593
888729
854672
814735
755169
666941
517186
375818
362760
407788
476867
569802
698172
885986
1.17382e+06
1.67797e+06
2.63147e+06
4.86522e+06
1.22451e+07
5.71651e+07
1.79689e+09
3.24233e+08
1.1687e+08
5.92252e+07
3.65165e+07
2.55295e+07
1.93907e+07
1.5536e+07
1.2873e+07
1.08982e+07
9.35717e+06
8.1105e+06
7.07445e+06
6.19704e+06
5.44512e+06
4.79809e+06
4.23981e+06
3.75573e+06
3.33464e+06
2.96823e+06
2.64905e+06
2.3712e+06
2.12877e+06
1.91589e+06
1.72937e+06
1.56573e+06
1.42274e+06
1.29815e+06
1.19056e+06
1.09879e+06
1.02196e+06
958021
906658
865688
831474
796959
749136
680179
568985
407784
335566
355691
406757
476496
569653
698310
886609
1.17886e+06
1.67795e+06
2.64923e+06
4.86543e+06
1.22453e+07
5.71571e+07
1.79715e+09
3.24096e+08
1.1671e+08
5.91023e+07
3.64264e+07
2.54643e+07
1.93389e+07
1.54907e+07
1.2832e+07
1.08613e+07
9.32539e+06
8.08173e+06
7.04863e+06
6.17537e+06
5.4278e+06
4.78268e+06
4.22521e+06
3.74294e+06
3.32397e+06
2.95905e+06
2.64108e+06
2.36356e+06
2.12126e+06
1.90922e+06
1.72261e+06
1.55892e+06
1.41528e+06
1.28989e+06
1.18094e+06
1.08736e+06
1.00825e+06
942446
888103
844765
809581
777387
738427
682165
599598
461265
333544
318546
353010
406291
476386
569739
698803
888826
1.18119e+06
1.68469e+06
2.64587e+06
4.86563e+06
1.22446e+07
5.71512e+07
1.79736e+09
3.24035e+08
1.16602e+08
5.89941e+07
3.63375e+07
2.53944e+07
1.92838e+07
1.54453e+07
1.27919e+07
1.08246e+07
9.29243e+06
8.05312e+06
7.02277e+06
6.15207e+06
5.40828e+06
4.76702e+06
4.2112e+06
3.7296e+06
3.31221e+06
2.94919e+06
2.63251e+06
2.35604e+06
2.114e+06
1.90199e+06
1.71604e+06
1.55218e+06
1.40837e+06
1.28223e+06
1.17234e+06
1.07724e+06
996200
928237
872078
826023
789176
757668
724326
678189
613145
508681
361859
297229
311894
351968
406083
476419
569847
700191
889167
1.18463e+06
1.69097e+06
2.62777e+06
4.86619e+06
1.22443e+07
5.71462e+07
1.79739e+09
3.23952e+08
1.16528e+08
5.89104e+07
3.62563e+07
2.53254e+07
1.92268e+07
1.53979e+07
1.27516e+07
1.07888e+07
9.25968e+06
8.02364e+06
6.99709e+06
6.12877e+06
5.3872e+06
4.74942e+06
4.19703e+06
3.71681e+06
3.3e+06
2.93836e+06
2.62339e+06
2.34799e+06
2.10687e+06
1.89502e+06
1.70903e+06
1.54567e+06
1.4016e+06
1.27517e+06
1.16443e+06
1.06825e+06
985509
915662
857443
809678
770587
738500
708168
669954
616543
538321
409033
295969
282097
309352
351554
406018
476409
570276
700999
889921
1.19379e+06
1.69186e+06
2.62762e+06
4.86658e+06
1.22444e+07
5.7141e+07
1.79687e+09
3.23836e+08
1.16445e+08
5.88454e+07
3.61883e+07
2.52606e+07
1.91704e+07
1.53495e+07
1.27101e+07
1.0753e+07
9.22757e+06
7.99435e+06
6.97063e+06
6.10573e+06
5.3662e+06
4.73038e+06
4.18112e+06
3.70394e+06
3.28829e+06
2.92718e+06
2.61341e+06
2.33955e+06
2.09928e+06
1.88819e+06
1.70229e+06
1.53882e+06
1.39511e+06
1.26834e+06
1.15719e+06
1.06005e+06
976070
904420
844424
794708
754140
720560
691226
659089
614252
552368
452995
319434
264544
276168
308397
351422
406016
476794
570523
701284
894937
1.19497e+06
1.6953e+06
2.62719e+06
4.8671e+06
1.2245e+07
5.71416e+07
1.79605e+09
3.23636e+08
1.16352e+08
5.87783e+07
3.61321e+07
2.52033e+07
1.91167e+07
1.53019e+07
1.26681e+07
1.0716e+07
9.19546e+06
7.96551e+06
6.94432e+06
6.08189e+06
5.34542e+06
4.71139e+06
4.1639e+06
3.68954e+06
3.27653e+06
2.91643e+06
2.60315e+06
2.33034e+06
2.0914e+06
1.88099e+06
1.69571e+06
1.53227e+06
1.38838e+06
1.26184e+06
1.15025e+06
1.05258e+06
967520
894461
832732
781327
738974
704358
674639
645657
608388
557352
482092
360420
262622
251628
273899
308092
351447
406316
476996
570866
703937
898207
1.20013e+06
1.67849e+06
2.62737e+06
4.86776e+06
1.22458e+07
5.71422e+07
1.79421e+09
3.23377e+08
1.16232e+08
5.87057e+07
3.60755e+07
2.51537e+07
1.90675e+07
1.52561e+07
1.26269e+07
1.06789e+07
9.16232e+06
7.93658e+06
6.91845e+06
6.05816e+06
5.32393e+06
4.69256e+06
4.14666e+06
3.67394e+06
3.26348e+06
2.90563e+06
2.59326e+06
2.32089e+06
2.08284e+06
1.87357e+06
1.68884e+06
1.5259e+06
1.38198e+06
1.25518e+06
1.1437e+06
1.0455e+06
959777
885506
822278
769265
725336
689229
659185
631375
599869
556682
497297
401204
280720
236459
246544
273089
308055
351685
406551
477004
572505
705184
905677
1.19663e+06
1.67822e+06
2.62789e+06
4.86825e+06
1.22466e+07
5.71431e+07
1.79277e+09
3.22947e+08
1.16091e+08
5.86235e+07
3.6017e+07
2.51044e+07
1.90232e+07
1.52135e+07
1.25872e+07
1.06426e+07
9.12915e+06
7.90681e+06
6.89236e+06
6.03492e+06
5.30251e+06
4.67318e+06
4.12961e+06
3.65828e+06
3.24935e+06
2.89375e+06
2.58332e+06
2.31174e+06
2.07409e+06
1.86556e+06
1.68182e+06
1.51931e+06
1.37578e+06
1.24889e+06
1.13708e+06
1.03885e+06
952498
877431
812867
758416
712992
675493
644444
617375
589118
552600
503798
430261
315347
233246
225829
244624
272845
308180
351865
406532
477820
573507
709979
904909
1.19714e+06
1.67771e+06
2.62847e+06
4.86894e+06
1.22479e+07
5.71473e+07
1.7913e+09
3.22579e+08
1.15893e+08
5.85306e+07
3.59544e+07
2.50553e+07
1.89799e+07
1.51742e+07
1.25498e+07
1.06077e+07
9.09693e+06
7.87694e+06
6.86552e+06
6.01141e+06
5.28159e+06
4.65388e+06
4.11214e+06
3.64283e+06
3.23515e+06
2.88097e+06
2.57247e+06
2.30256e+06
2.06558e+06
1.8574e+06
1.67429e+06
1.51262e+06
1.36941e+06
1.24282e+06
1.13085e+06
1.03223e+06
945722
869913
804403
748586
701834
662979
630857
603523
577531
546016
504388
446997
352989
245928
212285
221666
243953
272851
308299
351837
406972
478094
576203
711288
907290
1.1864e+06
1.67787e+06
2.62915e+06
4.86991e+06
1.22495e+07
5.71549e+07
1.79065e+09
3.22252e+08
1.15721e+08
5.84133e+07
3.58872e+07
2.50045e+07
1.89373e+07
1.51356e+07
1.25149e+07
1.05748e+07
9.06586e+06
7.84813e+06
6.83857e+06
5.98718e+06
5.26041e+06
4.63499e+06
4.0947e+06
3.62706e+06
3.2211e+06
2.86811e+06
2.56089e+06
2.29261e+06
2.05708e+06
1.84948e+06
1.66665e+06
1.50551e+06
1.36302e+06
1.23664e+06
1.12487e+06
1.02602e+06
939051
862967
796594
739714
691667
651604
618345
590456
565260
538065
501858
454566
382209
274046
207710
203866
220114
243789
272946
308350
352156
407075
480011
577050
717402
903962
1.18533e+06
1.67833e+06
2.62986e+06
4.87097e+06
1.22514e+07
5.71633e+07
1.78998e+09
3.22042e+08
1.15569e+08
5.83091e+07
3.5808e+07
2.49527e+07
1.88947e+07
1.50983e+07
1.24807e+07
1.05438e+07
9.03665e+06
7.82039e+06
6.81268e+06
5.96281e+06
5.23858e+06
4.61586e+06
4.07761e+06
3.61125e+06
3.2068e+06
2.85533e+06
2.54926e+06
2.28207e+06
2.0479e+06
1.84156e+06
1.65923e+06
1.49832e+06
1.35625e+06
1.23048e+06
1.11884e+06
1.02011e+06
932843
856209
789431
731554
682443
641186
606877
578210
553231
528282
497334
456725
400089
308078
215353
191508
200589
219618
243828
273043
308633
352389
408229
480927
581566
716737
897891
1.18509e+06
1.67891e+06
2.63068e+06
4.87227e+06
1.22544e+07
5.71757e+07
1.78999e+09
3.21858e+08
1.1546e+08
5.82181e+07
3.57368e+07
2.48945e+07
1.88525e+07
1.50615e+07
1.24476e+07
1.05132e+07
9.00904e+06
7.79435e+06
6.78787e+06
5.93947e+06
5.21655e+06
4.59627e+06
4.06031e+06
3.59579e+06
3.19247e+06
2.84232e+06
2.53764e+06
2.2715e+06
2.03826e+06
1.83307e+06
1.65184e+06
1.49135e+06
1.34946e+06
1.22403e+06
1.11287e+06
1.01418e+06
926946
849956
782544
724126
673944
631688
596308
566835
541636
518000
491021
455799
409201
336653
236813
185769
185054
199405
219534
243918
273308
308908
353050
408743
483349
581316
714822
894599
1.18539e+06
1.67954e+06
2.63159e+06
4.87376e+06
1.22576e+07
5.71866e+07
1.79035e+09
3.21789e+08
1.15364e+08
5.81479e+07
3.56742e+07
2.48422e+07
1.88071e+07
1.50258e+07
1.24153e+07
1.04837e+07
8.98167e+06
7.76965e+06
6.76459e+06
5.91719e+06
5.19545e+06
4.57631e+06
4.0427e+06
3.58014e+06
3.17849e+06
2.82932e+06
2.52579e+06
2.2609e+06
2.02859e+06
1.8242e+06
1.64394e+06
1.48441e+06
1.34288e+06
1.21757e+06
1.10668e+06
1.00836e+06
921089
844045
776205
717061
666205
622917
586618
556252
530630
507584
483406
452636
413304
356085
265784
189075
173641
182562
199046
219563
244089
273501
309283
353337
410247
483700
585183
713244
893862
1.18587e+06
1.68027e+06
2.63257e+06
4.87549e+06
1.22613e+07
5.72044e+07
1.79142e+09
3.21799e+08
1.15309e+08
5.80854e+07
3.56235e+07
2.47953e+07
1.87661e+07
1.49885e+07
1.23842e+07
1.04549e+07
8.95519e+06
7.74524e+06
6.7424e+06
5.89634e+06
5.17534e+06
4.55723e+06
4.02467e+06
3.56426e+06
3.16433e+06
2.81667e+06
2.51397e+06
2.25008e+06
2.01887e+06
1.81533e+06
1.63576e+06
1.47705e+06
1.33634e+06
1.21133e+06
1.10051e+06
1.00238e+06
915387
838223
770242
710594
658908
614891
577646
546478
520241
497345
474885
447947
413480
367560
293547
203621
167043
168825
181676
198966
219664
244229
273790
309505
353907
410616
487113
585780
706531
893975
1.18645e+06
1.68102e+06
2.63369e+06
4.8774e+06
1.22657e+07
5.72236e+07
1.79276e+09
3.21923e+08
1.15286e+08
5.80433e+07
3.55775e+07
2.47559e+07
1.87289e+07
1.49548e+07
1.23522e+07
1.04274e+07
8.92941e+06
7.72139e+06
6.7206e+06
5.87644e+06
5.15662e+06
4.53904e+06
4.00739e+06
3.54799e+06
3.15e+06
2.80385e+06
2.5025e+06
2.23931e+06
2.00897e+06
1.8064e+06
1.62758e+06
1.46946e+06
1.32945e+06
1.20514e+06
1.09457e+06
996470
909577
832595
764420
704540
652267
607357
569404
537388
510536
487453
465955
442216
411711
372852
314852
227012
166914
158236
166988
181403
199006
219789
244496
273992
309924
354345
412755
490498
582200
705644
894392
1.18706e+06
1.68189e+06
2.63491e+06
4.87944e+06
1.22712e+07
5.72446e+07
1.79412e+09
3.22094e+08
1.15304e+08
5.80171e+07
3.55433e+07
2.47196e+07
1.86971e+07
1.49241e+07
1.23235e+07
1.03992e+07
8.90457e+06
7.69814e+06
6.69914e+06
5.85684e+06
5.13876e+06
4.52218e+06
3.99094e+06
3.53235e+06
3.13533e+06
2.79094e+06
2.49088e+06
2.22886e+06
1.99913e+06
1.79731e+06
1.61935e+06
1.4619e+06
1.3224e+06
1.19866e+06
1.08869e+06
990771
903874
826920
758831
698679
646076
600492
561679
529003
501444
478046
456985
435282
408391
374705
328063
253233
175314
151185
154766
166362
181378
199118
220024
244747
274442
310165
355826
415857
490106
576283
705538
894885
1.18771e+06
1.68286e+06
2.63636e+06
4.88197e+06
1.22775e+07
5.72696e+07
1.79548e+09
3.22313e+08
1.15342e+08
5.80117e+07
3.55183e+07
2.46907e+07
1.86671e+07
1.48972e+07
1.22972e+07
1.0374e+07
8.87943e+06
7.67565e+06
6.67814e+06
5.83753e+06
5.12115e+06
4.50612e+06
3.97573e+06
3.51748e+06
3.1212e+06
2.77776e+06
2.47927e+06
2.2183e+06
1.98959e+06
1.78829e+06
1.611e+06
1.4543e+06
1.31538e+06
1.19207e+06
1.08256e+06
985157
898387
821384
753252
693093
640139
594112
554598
521140
493009
469123
448199
427814
403982
373944
335347
274981
192813
148639
144983
153484
166208
181458
199325
220291
245183
274587
311044
357867
416979
487005
575750
705873
895425
1.18846e+06
1.68386e+06
2.63792e+06
4.88491e+06
1.22845e+07
5.72973e+07
1.7968e+09
3.22529e+08
1.15402e+08
5.80164e+07
3.55056e+07
2.46677e+07
1.86422e+07
1.48719e+07
1.22742e+07
1.0351e+07
8.85686e+06
7.65299e+06
6.65772e+06
5.81858e+06
5.10371e+06
4.4903e+06
3.96123e+06
3.50375e+06
3.10777e+06
2.76502e+06
2.46743e+06
2.2078e+06
1.97995e+06
1.77955e+06
1.60271e+06
1.44658e+06
1.30832e+06
1.18553e+06
1.07637e+06
979343
892998
816073
747847
687571
634517
588056
548015
513905
485074
460767
439695
420086
398785
371951
338548
290471
215036
152165
137817
142565
153079
166233
181623
199543
220623
245281
275116
312305
359187
417734
484864
575484
706320
896033
1.18927e+06
1.68499e+06
2.63964e+06
4.88799e+06
1.22925e+07
5.73271e+07
1.79794e+09
3.22742e+08
1.15465e+08
5.80355e+07
3.54992e+07
2.46524e+07
1.86213e+07
1.48504e+07
1.22524e+07
1.03309e+07
8.83652e+06
7.63265e+06
6.63722e+06
5.80006e+06
5.08665e+06
4.4746e+06
3.94702e+06
3.49063e+06
3.09533e+06
2.75286e+06
2.45595e+06
2.19713e+06
1.9704e+06
1.77073e+06
1.59468e+06
1.43895e+06
1.30119e+06
1.17897e+06
1.07025e+06
973504
887453
810874
742675
682261
629018
582357
541793
507155
477744
452855
431604
412350
392665
368731
339275
299802
236816
163238
133684
133531
141705
153002
166348
181794
199790
220747
245640
275688
313445
360606
417202
481658
575752
706812
896687
1.19014e+06
1.68623e+06
2.6416e+06
4.89163e+06
1.23013e+07
5.73613e+07
1.79896e+09
3.22926e+08
1.15529e+08
5.80572e+07
3.55009e+07
2.46409e+07
1.86056e+07
1.48315e+07
1.22335e+07
1.03119e+07
8.81876e+06
7.61447e+06
6.61878e+06
5.78154e+06
5.06987e+06
4.45922e+06
3.93287e+06
3.47782e+06
3.08342e+06
2.74159e+06
2.44495e+06
2.18675e+06
1.96071e+06
1.76202e+06
1.58659e+06
1.43156e+06
1.29412e+06
1.17234e+06
1.06413e+06
967754
881917
805558
737632
677195
623763
576843
535971
500770
470886
445505
423857
404791
386175
364734
338131
304753
253908
180565
133730
126428
131895
141447
153055
166471
181977
199927
220998
246074
276617
314572
362908
414177
481245
576165
707363
897400
1.19111e+06
1.68761e+06
2.64381e+06
4.89582e+06
1.23116e+07
5.73975e+07
1.79981e+09
3.23094e+08
1.15587e+08
5.80803e+07
3.55051e+07
2.46351e+07
1.85925e+07
1.48166e+07
1.22168e+07
1.02953e+07
8.80199e+06
7.59859e+06
6.60241e+06
5.76475e+06
5.05307e+06
4.44406e+06
3.91905e+06
3.46509e+06
3.07186e+06
2.73073e+06
2.43469e+06
2.17678e+06
1.95129e+06
1.7532e+06
1.57861e+06
1.42412e+06
1.2873e+06
1.16579e+06
1.05794e+06
962007
876488
800281
732508
672275
618769
571606
530403
494810
464386
438602
416596
397416
379507
360136
336135
306789
265631
200191
139148
121509
123567
131337
141426
153152
166631
182134
200168
221463
246676
277534
317176
361878
410786
481475
576629
707943
898180
1.19217e+06
1.68915e+06
2.64628e+06
4.90047e+06
1.23233e+07
5.74388e+07
1.8004e+09
3.23236e+08
1.15638e+08
5.81008e+07
3.55122e+07
2.46313e+07
1.85834e+07
1.48037e+07
1.22031e+07
1.02805e+07
8.78728e+06
7.5837e+06
6.58814e+06
5.74994e+06
5.03779e+06
4.42884e+06
3.90536e+06
3.45267e+06
3.06038e+06
2.72026e+06
2.42478e+06
2.16745e+06