/*--------------------------------*- C++ -*----------------------------------*\
| =========                 |                                                 |
| \\      /  F ield         | OpenFOAM: The Open Source CFD Toolbox           |
|  \\    /   O peration     | Version:  v2012                                 |
|   \\  /    A nd           | Website:  www.openfoam.com                      |
|    \\/     M anipulation  |                                                 |
\*---------------------------------------------------------------------------*/
FoamFile
{
    version     2.0;
    format      ascii;
    class       volScalarField;
    location    "13600";
    object      p;
}
// * * * * * * * * * * * * * * * * * * * * * * * * * * * * * * * * * * * * * //

dimensions      [1 -1 -2 0 0 0 0];


internalField   nonuniform List<scalar> 
39402
(
4472.56
3686.35
4475.54
2927.88
3688.17
4446.35
2835.27
2927.96
3690.89
4418.55
2794.49
2835.27
2927.95
3693.87
4388.85
2794.66
2794.46
2835.27
2927.93
3695.77
4361.99
2820.77
2794.65
2794.44
2835.27
2927.96
3697.67
4330.93
2843.33
2820.77
2794.63
2794.4
2835.27
2928.02
3699.78
4296.64
2857.72
2843.31
2820.76
2794.61
2794.36
2835.28
2928.14
3702.54
4260.08
2864.2
2857.73
2843.32
2820.76
2794.58
2794.32
2835.29
2928.2
3705.75
4219.19
2867.8
2864.2
2857.71
2843.31
2820.76
2794.54
2794.26
2835.27
2928.31
3709.97
4177.01
2868.99
2867.8
2864.2
2857.71
2843.31
2820.75
2794.5
2794.21
2835.28
2928.53
3714.94
4132.6
2869.28
2868.99
2867.79
2864.2
2857.71
2843.31
2820.75
2794.47
2794.17
2835.3
2928.75
3721.6
4086.22
2866.91
2869.29
2868.99
2867.78
2864.19
2857.7
2843.31
2820.75
2794.43
2794.16
2835.35
2929.03
3729.68
4037.59
2865.66
2866.91
2869.29
2868.99
2867.79
2864.18
2857.69
2843.31
2820.75
2794.4
2794.18
2835.45
2929.31
3739.59
3988.23
2864.86
2865.67
2866.91
2869.29
2868.99
2867.8
2864.18
2857.69
2843.31
2820.76
2794.37
2794.23
2835.57
2929.65
3751.08
3937.43
2863.6
2864.85
2865.67
2866.92
2869.29
2868.96
2867.79
2864.16
2857.68
2843.31
2820.78
2794.36
2794.32
2835.96
2930.2
3764.68
3885.22
2862.05
2863.6
2864.86
2865.67
2866.92
2869.29
2868.99
2867.78
2864.14
2857.67
2843.32
2820.81
2794.36
2794.43
2836.52
2931.02
3779.65
3832.21
2860.74
2862.05
2863.6
2864.86
2865.67
2866.93
2869.29
2868.99
2867.77
2864.11
2857.66
2843.33
2820.84
2794.41
2794.39
2836.88
2932.09
3797.09
3782.56
2856.34
2860.74
2862.06
2863.6
2864.85
2865.68
2866.94
2869.3
2868.99
2867.76
2864.08
2857.65
2843.34
2820.89
2794.45
2795.07
2837.62
2933.83
3814.19
3733.34
2853.58
2856.34
2860.74
2862.06
2863.6
2864.85
2865.68
2866.95
2869.3
2869
2867.76
2864.03
2857.63
2843.34
2820.95
2794.56
2795.19
2838.4
2936.16
3831.96
3701.49
2854.41
2853.58
2856.33
2860.74
2862.07
2863.61
2864.85
2865.69
2866.96
2869.31
2869.02
2867.76
2863.99
2857.62
2843.39
2821.02
2794.5
2795.34
2839.27
2940.09
3840.67
3674.23
2849.99
2854.42
2853.58
2856.33
2860.74
2862.08
2863.61
2864.84
2865.7
2866.98
2869.32
2869.05
2867.75
2863.95
2857.6
2843.42
2821.13
2795.22
2795.58
2840.37
2947.09
3839.21
3640.11
2848.08
2850
2854.42
2853.58
2856.32
2860.74
2862.09
2863.61
2864.83
2865.71
2867
2869.33
2869.07
2867.76
2863.92
2857.59
2843.49
2821.2
2795.35
2796.14
2841.62
2958.27
3826.53
3617.2
2845.76
2848.07
2850
2854.43
2853.57
2856.32
2860.74
2862.11
2863.62
2864.82
2865.72
2867.02
2869.34
2869.1
2867.76
2863.9
2857.6
2843.53
2821.49
2795.65
2796.7
2842.86
2977.6
3807.27
3565.04
2843.86
2845.76
2848.07
2850
2854.43
2853.57
2856.31
2860.74
2862.13
2863.63
2864.81
2865.73
2867.05
2869.36
2869.14
2867.78
2863.89
2857.65
2843.7
2821.66
2795.98
2797.61
2844.3
3003.42
3793.14
3496.61
2841.53
2843.86
2845.76
2848.08
2850
2854.44
2853.57
2856.29
2860.73
2862.15
2863.64
2864.81
2865.75
2867.08
2869.38
2869.17
2867.8
2863.91
2857.72
2843.81
2821.99
2796.43
2798.63
2845.48
3038.05
3773.74
3416.49
2840.17
2841.53
2843.87
2845.76
2848.07
2850.01
2854.45
2853.56
2856.28
2860.73
2862.18
2863.65
2864.8
2865.77
2867.12
2869.41
2869.21
2867.82
2863.95
2857.81
2844.03
2822.2
2796.84
2799.95
2847.47
3080.04
3763.09
3326
2837.65
2840.17
2841.54
2843.87
2845.76
2848.06
2850.02
2854.47
2853.55
2856.26
2860.73
2862.21
2863.66
2864.79
2865.79
2867.16
2869.45
2869.24
2867.86
2864.02
2857.95
2844.3
2822.63
2797.52
2801.28
2849.18
3132.51
3738.18
3233.06
2835.94
2837.65
2840.17
2841.54
2843.88
2845.76
2848.06
2850.02
2854.49
2853.55
2856.23
2860.72
2862.25
2863.68
2864.79
2865.82
2867.21
2869.5
2869.26
2867.91
2864.13
2858.12
2844.58
2822.98
2798.35
2802.57
2853.68
3191.56
3728.36
3131.7
2833.53
2835.93
2837.65
2840.18
2841.55
2843.88
2845.75
2848.05
2850.03
2854.51
2853.54
2856.21
2860.72
2862.29
2863.7
2864.79
2865.85
2867.27
2869.57
2869.31
2867.97
2864.27
2858.34
2844.95
2823.37
2799.91
2802.95
2856.71
3259.46
3720.61
3031.3
2833.31
2833.53
2835.93
2837.65
2840.17
2841.56
2843.89
2845.75
2848.03
2850.04
2854.54
2853.53
2856.19
2860.72
2862.34
2863.73
2864.8
2865.88
2867.33
2869.64
2869.37
2868.07
2864.47
2858.61
2845.33
2823.75
2801.29
2802.87
2867.9
3326.86
3706.38
2930.62
2831.64
2833.31
2833.53
2835.93
2837.65
2840.18
2841.57
2843.9
2845.74
2848.02
2850.06
2854.56
2853.52
2856.16
2860.72
2862.38
2863.77
2864.81
2865.91
2867.39
2869.73
2869.42
2868.17
2864.72
2858.96
2845.78
2824.43
2804.91
2801.14
2876.27
3390.95
3679.25
2834.27
2828.89
2831.64
2833.31
2833.53
2835.93
2837.64
2840.18
2841.58
2843.92
2845.74
2848.01
2850.07
2854.6
2853.52
2856.14
2860.72
2862.43
2863.81
2864.84
2865.95
2867.47
2869.83
2869.49
2868.32
2865.03
2859.38
2846.17
2825.5
2806.07
2801.78
2890.77
3449.62
3643.41
2746.13
2826.82
2828.89
2831.64
2833.32
2833.53
2835.93
2837.64
2840.18
2841.6
2843.94
2845.73
2847.99
2850.09
2854.63
2853.51
2856.12
2860.73
2862.48
2863.85
2864.88
2866
2867.56
2869.95
2869.59
2868.49
2865.4
2859.81
2846.67
2827.23
2811.21
2801.17
2915.37
3500.8
3591.73
2669.62
2825.14
2826.82
2828.89
2831.64
2833.32
2833.53
2835.92
2837.63
2840.18
2841.62
2843.95
2845.72
2847.97
2850.11
2854.67
2853.51
2856.11
2860.74
2862.53
2863.91
2864.93
2866.05
2867.65
2870.09
2869.72
2868.72
2865.82
2860.34
2847.2
2829.5
2806.01
2805.49
2949.46
3538.32
3535.48
2609.31
2824.6
2825.14
2826.82
2828.89
2831.65
2833.33
2833.53
2835.92
2837.63
2840.19
2841.65
2843.98
2845.72
2847.96
2850.14
2854.71
2853.51
2856.1
2860.75
2862.58
2863.98
2865
2866.11
2867.76
2870.26
2869.89
2869
2866.3
2860.7
2848.76
2832.98
2808.07
2808.42
2995.27
3554.96
3457.63
2573.35
2824.21
2824.6
2825.14
2826.82
2828.9
2831.65
2833.33
2833.54
2835.91
2837.62
2840.2
2841.67
2844
2845.71
2847.94
2850.16
2854.75
2853.53
2856.1
2860.76
2862.63
2864.06
2865.09
2866.19
2867.87
2870.45
2870.12
2869.36
2866.87
2861.31
2849.53
2836.14
2799.68
2813.98
3056.57
3551.64
3355.82
2555.65
2821.77
2824.21
2824.6
2825.14
2826.82
2828.9
2831.66
2833.34
2833.54
2835.9
2837.61
2840.2
2841.7
2844.03
2845.7
2847.93
2850.19
2854.79
2853.55
2856.12
2860.78
2862.68
2864.15
2865.2
2866.28
2867.99
2870.66
2870.43
2869.8
2867.41
2861.79
2854.03
2833
2801.3
2827.35
3134.18
3536.93
3220.18
2543.88
2818.46
2821.77
2824.2
2824.59
2825.14
2826.81
2828.9
2831.67
2833.35
2833.54
2835.89
2837.6
2840.21
2841.74
2844.05
2845.7
2847.92
2850.21
2854.83
2853.58
2856.15
2860.81
2862.73
2864.25
2865.33
2866.4
2868.13
2870.89
2870.81
2870.35
2868.05
2863.74
2855.74
2837.31
2804.34
2841.79
3207.28
3533.94
3084.3
2534.51
2816.81
2818.46
2821.77
2824.2
2824.59
2825.15
2826.81
2828.91
2831.68
2833.36
2833.54
2835.88
2837.59
2840.22
2841.77
2844.08
2845.7
2847.91
2850.23
2854.86
2853.62
2856.19
2860.84
2862.77
2864.37
2865.5
2866.54
2868.28
2871.15
2871.29
2870.98
2868.61
2863.92
2858.72
2823.9
2803.11
2870.23
3274.96
3503.91
2947.01
2527.2
2816.47
2816.81
2818.46
2821.77
2824.19
2824.58
2825.14
2826.81
2828.91
2831.69
2833.38
2833.55
2835.87
2837.58
2840.24
2841.81
2844.12
2845.71
2847.91
2850.26
2854.9
2853.68
2856.26
2860.89
2862.82
2864.49
2865.69
2866.73
2868.46
2871.43
2871.85
2871.66
2870.48
2870.46
2851.38
2825.54
2806.28
2909.19
3326.39
3469.14
2825.23
2521.47
2816
2816.47
2816.82
2818.46
2821.76
2824.18
2824.57
2825.14
2826.81
2828.92
2831.7
2833.39
2833.55
2835.86
2837.58
2840.25
2841.84
2844.15
2845.72
2847.92
2850.28
2854.93
2853.76
2856.34
2860.95
2862.87
2864.62
2865.91
2866.97
2868.68
2871.75
2872.5
2872.26
2871.08
2870.86
2856.28
2820.8
2807.36
2965.43
3371.46
3401.74
2721.47
2517.26
2814.74
2816.01
2816.48
2816.82
2818.47
2821.76
2824.17
2824.56
2825.13
2826.81
2828.92
2831.71
2833.41
2833.56
2835.85
2837.57
2840.26
2841.88
2844.19
2845.74
2847.94
2850.3
2854.96
2853.85
2856.45
2861.03
2862.93
2864.76
2866.16
2867.26
2868.95
2872.08
2873.12
2873.84
2875.76
2872.49
2844.41
2818.09
2814.47
3028.39
3387.01
3315.71
2643.39
2514.23
2814.15
2814.75
2816.01
2816.48
2816.83
2818.47
2821.76
2824.16
2824.55
2825.13
2826.81
2828.93
2831.73
2833.43
2833.57
2835.85
2837.57
2840.27
2841.91
2844.23
2845.77
2847.97
2850.33
2854.99
2853.95
2856.57
2861.13
2862.99
2864.9
2866.44
2867.63
2869.32
2872.49
2873.68
2874.68
2877.92
2865.09
2847.25
2817.27
2825.53
3107.23
3387.22
3190.9
2587.15
2512.23
2813.05
2814.15
2814.75
2816.02
2816.5
2816.84
2818.47
2821.76
2824.15
2824.54
2825.12
2826.81
2828.94
2831.74
2833.45
2833.58
2835.85
2837.57
2840.29
2841.94
2844.26
2845.81
2848.01
2850.35
2855.01
2854.07
2856.72
2861.26
2863.08
2865.06
2866.74
2868.09
2869.77
2872.88
2874.72
2877.95
2880.03
2870.48
2842.07
2816.62
2851.04
3183.35
3378.7
3042.98
2552.09
2510.9
2810.86
2813.05
2814.14
2814.75
2816.02
2816.51
2816.85
2818.47
2821.76
2824.13
2824.52
2825.11
2826.81
2828.95
2831.75
2833.47
2833.59
2835.85
2837.58
2840.3
2841.97
2844.3
2845.86
2848.06
2850.37
2855.04
2854.21
2856.9
2861.42
2863.19
2865.22
2867.07
2868.62
2870.38
2873.38
2875.71
2880.21
2876.49
2859.09
2837.12
2815.83
2889.64
3238.42
3362.66
2888.48
2533.51
2510.07
2808.72
2810.85
2813.04
2814.13
2814.75
2816.03
2816.53
2816.87
2818.48
2821.75
2824.11
2824.5
2825.1
2826.81
2828.96
2831.77
2833.49
2833.6
2835.87
2837.59
2840.31
2841.99
2844.34
2845.92
2848.13
2850.4
2855.06
2854.35
2857.09
2861.62
2863.34
2865.4
2867.41
2869.23
2871.04
2874.16
2878.08
2883.98
2876.32
2863.8
2831.62
2815.82
2950.75
3287.82
3309.62
2749.28
2523.17
2509.57
2807.68
2808.71
2810.84
2813.03
2814.12
2814.76
2816.05
2816.55
2816.89
2818.48
2821.75
2824.08
2824.49
2825.09
2826.81
2828.97
2831.78
2833.51
2833.62
2835.89
2837.61
2840.32
2842.01
2844.38
2846
2848.22
2850.43
2855.09
2854.5
2857.31
2861.87
2863.54
2865.6
2867.76
2869.91
2871.91
2875.62
2880.12
2883.57
2874.79
2855.64
2826.89
2825.21
3016.05
3301.38
3227.19
2645.72
2516.7
2509.29
2807.88
2807.67
2808.71
2810.83
2813.01
2814.11
2814.76
2816.06
2816.58
2816.91
2818.48
2821.74
2824.05
2824.47
2825.08
2826.82
2828.97
2831.79
2833.53
2833.65
2835.92
2837.63
2840.33
2842.02
2844.42
2846.08
2848.32
2850.48
2855.14
2854.66
2857.54
2862.17
2863.82
2865.85
2868.12
2870.55
2872.83
2877.47
2885.47
2882.04
2873.9
2854
2827.36
2836.95
3103.22
3299.06
3082.75
2578.78
2512.86
2509.14
2808.08
2807.89
2807.68
2808.7
2810.82
2812.98
2814.09
2814.76
2816.08
2816.62
2816.93
2818.49
2821.73
2824.02
2824.46
2825.07
2826.82
2828.98
2831.8
2833.55
2833.68
2835.96
2837.67
2840.35
2842.03
2844.46
2846.17
2848.44
2850.54
2855.19
2854.82
2857.78
2862.51
2864.18
2866.17
2868.51
2871.22
2874.64
2879.58
2885.36
2881.37
2871.27
2846.02
2827
2872.89
3167.47
3290.87
2919.71
2541.66
2510.82
2509.06
2807.48
2808.09
2807.9
2807.69
2808.7
2810.81
2812.95
2814.07
2814.77
2816.1
2816.66
2816.96
2818.49
2821.71
2824
2824.45
2825.06
2826.83
2828.99
2831.81
2833.56
2833.72
2836.02
2837.71
2840.36
2842.03
2844.49
2846.27
2848.59
2850.63
2855.27
2854.98
2858.02
2862.89
2864.63
2866.59
2868.89
2871.88
2876.03
2885.55
2883.76
2879.43
2866.34
2841.77
2822.91
2927.89
3223.42
3250.03
2758.27
2524.16
2509.82
2509.03
2805.77
2807.49
2808.1
2807.92
2807.7
2808.69
2810.79
2812.91
2814.04
2814.78
2816.13
2816.7
2816.99
2818.49
2821.69
2823.96
2824.43
2825.07
2826.84
2828.99
2831.81
2833.57
2833.76
2836.08
2837.76
2840.38
2842.04
2844.52
2846.37
2848.75
2850.74
2855.37
2855.15
2858.26
2863.3
2865.19
2867.15
2869.39
2873.3
2877.16
2885.3
2884.29
2878.72
2863.25
2834.19
2828.35
2993.68
3240.99
3163.44
2638.79
2515.97
2509.34
2509.01
2803.56
2805.77
2807.5
2808.12
2807.94
2807.71
2808.68
2810.77
2812.87
2814.01
2814.78
2816.16
2816.76
2817.03
2818.49
2821.66
2823.93
2824.42
2825.07
2826.86
2828.99
2831.81
2833.57
2833.81
2836.16
2837.82
2840.41
2842.05
2844.55
2846.48
2848.94
2850.89
2855.52
2855.34
2858.48
2863.71
2865.83
2867.82
2870.19
2874.62
2883.72
2884.64
2883.53
2878.86
2859.46
2835.43
2848.11
3085.16
3238.36
3013.11
2566.88
2511.93
2509.13
2509
2801.63
2803.57
2805.78
2807.52
2808.15
2807.97
2807.72
2808.67
2810.73
2812.81
2813.97
2814.79
2816.21
2816.82
2817.06
2818.49
2821.63
2823.9
2824.42
2825.09
2826.88
2828.99
2831.8
2833.57
2833.86
2836.25
2837.89
2840.45
2842.06
2844.58
2846.59
2849.16
2851.07
2855.72
2855.55
2858.69
2864.12
2866.57
2868.71
2871.84
2875.51
2882.66
2884.33
2883.91
2877.16
2855.95
2837.05
2882.16
3143.39
3231.33
2834.56
2531.83
2510.15
2509.05
2509
2800.04
2801.64
2803.56
2805.78
2807.54
2808.19
2808.01
2807.74
2808.66
2810.69
2812.75
2813.93
2814.8
2816.26
2816.88
2817.1
2818.49
2821.6
2823.87
2824.42
2825.11
2826.9
2828.99
2831.79
2833.57
2833.92
2836.36
2837.98
2840.5
2842.09
2844.62
2846.69
2849.39
2851.29
2855.98
2855.82
2858.91
2864.47
2867.24
2869.94
2873.97
2881.42
2882.53
2884.07
2881.85
2871.94
2845.19
2833.73
2939.28
3192.58
3160.5
2678.77
2517.85
2509.41
2509.02
2509
2799.23
2800.05
2801.63
2803.56
2805.79
2807.58
2808.24
2808.07
2807.77
2808.64
2810.63
2812.67
2813.88
2814.81
2816.32
2816.95
2817.13
2818.49
2821.57
2823.84
2824.43
2825.15
2826.92
2828.99
2831.77
2833.57
2833.99
2836.47
2838.07
2840.57
2842.12
2844.66
2846.8
2849.63
2851.55
2856.32
2856.18
2859.14
2864.81
2867.96
2871.66
2875.33
2881.31
2883.74
2884.01
2879.55
2864.08
2840.05
2837.88
3021.05
3191.2
3037.47
2581.65
2512.24
2509.14
2509
2509
2799.11
2799.24
2800.03
2801.62
2803.55
2805.8
2807.61
2808.31
2808.13
2807.79
2808.62
2810.56
2812.59
2813.83
2814.83
2816.39
2817.03
2817.17
2818.49
2821.54
2823.82
2824.44
2825.19
2826.95
2828.99
2831.75
2833.56
2834.06
2836.59
2838.19
2840.67
2842.19
2844.71
2846.9
2849.89
2851.83
2856.74
2856.66
2859.45
2865
2868.86
2873.62
2880.98
2882.03
2884.19
2884.47
2877.53
2858.33
2839.06
2874.18
3087.45
3185.41
2849.68
2534.29
2510.08
2509.04
2509
2509
2800.55
2799.12
2799.22
2800.02
2801.6
2803.55
2805.82
2807.66
2808.38
2808.2
2807.83
2808.6
2810.48
2812.5
2813.78
2814.85
2816.47
2817.11
2817.2
2818.48
2821.5
2823.8
2824.47
2825.23
2826.98
2828.99
2831.73
2833.56
2834.13
2836.71
2838.31
2840.79
2842.28
2844.8
2847.01
2850.15
2852.15
2857.23
2857.29
2859.83
2865.23
2869.83
2875.32
2880.24
2882.47
2885.17
2886.08
2879.16
2855.55
2845.61
2916.06
3154.98
3143.52
2681.47
2517.12
2509.33
2509.01
2509
2509
2801.75
2800.55
2799.1
2799.21
2799.99
2801.58
2803.54
2805.83
2807.72
2808.47
2808.29
2807.86
2808.57
2810.4
2812.4
2813.72
2814.87
2816.55
2817.19
2817.24
2818.46
2821.47
2823.78
2824.51
2825.29
2827.02
2828.99
2831.7
2833.56
2834.2
2836.83
2838.45
2840.94
2842.41
2844.91
2847.12
2850.42
2852.45
2857.8
2858.15
2860.4
2865.98
2871.37
2878.63
2879.31
2882.81
2885.62
2886.07
2875.62
2848.38
2852.66
3005.26
3157.53
3000.17
2575.24
2511.55
2509.09
2509
2509
2509
2802.72
2801.74
2800.54
2799.09
2799.18
2799.96
2801.55
2803.53
2805.86
2807.79
2808.58
2808.39
2807.9
2808.54
2810.31
2812.29
2813.67
2814.9
2816.64
2817.28
2817.27
2818.44
2821.43
2823.77
2824.55
2825.35
2827.06
2828.99
2831.68
2833.56
2834.28
2836.96
2838.6
2841.12
2842.59
2845.07
2847.25
2850.7
2852.76
2858.36
2859.07
2861.1
2867.13
2873.69
2876.98
2879.43
2882.47
2884.08
2882.83
2864.59
2843.22
2865.82
3064.36
3133.54
2817.05
2529.01
2509.72
2509.02
2509
2509
2509
2802.99
2802.7
2801.74
2800.53
2799.07
2799.15
2799.93
2801.52
2803.52
2805.88
2807.88
2808.7
2808.5
2807.95
2808.5
2810.21
2812.17
2813.62
2814.94
2816.74
2817.36
2817.29
2818.42
2821.4
2823.77
2824.61
2825.42
2827.11
2829
2831.67
2833.57
2834.35
2837.07
2838.75
2841.34
2842.82
2845.29
2847.42
2850.99
2853
2858.97
2860.39
2862.83
2868.19
2876.32
2877.5
2879.42
2881.9
2882.68
2877.58
2855.87
2835.74
2917.79
3118.31
3090.1
2646.52
2514.42
2509.19
2509.01
2509
2509
2509
2803.04
2802.96
2802.71
2801.74
2800.52
2799.05
2799.11
2799.88
2801.48
2803.51
2805.91
2807.98
2808.84
2808.62
2808
2808.45
2810.1
2812.06
2813.56
2814.98
2816.84
2817.44
2817.31
2818.4
2821.37
2823.78
2824.68
2825.5
2827.16
2829.01
2831.66
2833.59
2834.42
2837.18
2838.91
2841.59
2843.11
2845.59
2847.64
2851.35
2853.24
2859.35
2861.45
2864.2
2874.91
2876.84
2878.23
2880.48
2882.51
2882.45
2876.52
2852.34
2851.21
2994.63
3124.68
2932.11
2554
2510.44
2509.04
2509
2509
2509
2509
2802.26
2803.01
2802.98
2802.71
2801.74
2800.51
2799.02
2799.06
2799.82
2801.42
2803.49
2805.96
2808.09
2809
2808.75
2808.05
2808.39
2809.99
2811.94
2813.52
2815.03
2816.94
2817.53
2817.33
2818.37
2821.35
2823.8
2824.76
2825.59
2827.22
2829.04
2831.68
2833.63
2834.49
2837.28
2839.07
2841.86
2843.46
2845.99
2847.96
2851.8
2853.38
2859.82
2863.71
2865.54
2875.64
2878.46
2880.1
2882.46
2885.03
2887.53
2876.12
2853.7
2885.62
3068.1
3110.01
2737.57
2520.27
2509.33
2509.01
2509
2509
2509
2509
2800.94
2802.23
2803.02
2802.98
2802.71
2801.73
2800.5
2798.99
2799
2799.75
2801.37
2803.47
2806
2808.21
2809.17
2808.9
2808.1
2808.34
2809.87
2811.82
2813.47
2815.09
2817.04
2817.6
2817.34
2818.35
2821.33
2823.83
2824.85
2825.67
2827.29
2829.08
2831.71
2833.69
2834.57
2837.37
2839.23
2842.14
2843.86
2846.49
2848.4
2852.5
2853.47
2860.05
2864.77
2871.25
2877.05
2878.9
2881.3
2884.06
2886.94
2885.2
2864.27
2858.51
2935.76
3097.08
2997.42
2592.91
2511.53
2509.07
2509
2509
2509
2509
2509
2798.9
2800.91
2802.25
2803.02
2802.98
2802.71
2801.73
2800.47
2798.94
2798.92
2799.67
2801.3
2803.45
2806.06
2808.34
2809.35
2809.05
2808.16
2808.28
2809.75
2811.71
2813.44
2815.15
2817.15
2817.68
2817.35
2818.33
2821.32
2823.86
2824.94
2825.77
2827.37
2829.15
2831.78
2833.79
2834.66
2837.47
2839.38
2842.43
2844.3
2847.11
2848.95
2853.28
2853.52
2861.22
2865.57
2871.56
2876.17
2878.74
2881.04
2883.64
2883.56
2875.75
2856.14
2854.86
2997.74
3085.75
2827.95
2529.9
2509.54
2509.01
2509
2509
2509
2509
2509
2796.54
2798.88
2800.93
2802.25
2803.03
2802.98
2802.71
2801.72
2800.45
2798.89
2798.84
2799.57
2801.22
2803.43
2806.12
2808.49
2809.55
2809.21
2808.22
2808.22
2809.64
2811.6
2813.41
2815.22
2817.25
2817.76
2817.35
2818.3
2821.31
2823.9
2825.03
2825.86
2827.46
2829.23
2831.87
2833.92
2834.77
2837.56
2839.52
2842.71
2844.73
2847.8
2849.73
2854.68
2854.49
2861.62
2868.5
2871.11
2875.84
2877.43
2879.62
2881.2
2879.33
2864.32
2844.18
2890.27
3064.56
3065.25
2639.85
2513.19
2509.1
2509
2509
2509
2509
2509
2509
2793.98
2796.54
2798.89
2800.93
2802.25
2803.03
2802.99
2802.71
2801.72
2800.42
2798.83
2798.74
2799.47
2801.14
2803.41
2806.18
2808.65
2809.75
2809.38
2808.28
2808.15
2809.52
2811.49
2813.38
2815.29
2817.36
2817.83
2817.35
2818.29
2821.31
2823.95
2825.12
2825.95
2827.56
2829.33
2832
2834.1
2834.9
2837.67
2839.65
2842.96
2845.21
2848.57
2850.3
2855.88
2855.35
2866.2
2867.74
2871.67
2875.5
2877.27
2879.78
2881.34
2878.51
2861.65
2854.82
2958.13
3074.85
2877.02
2544.59
2509.81
2509.02
2509
2509
2509
2509
2509
2509
2791.67
2793.99
2796.54
2798.89
2800.93
2802.25
2803.03
2802.99
2802.72
2801.71
2800.39
2798.76
2798.63
2799.35
2801.04
2803.39
2806.25
2808.81
2809.97
2809.55
2808.34
2808.09
2809.41
2811.4
2813.37
2815.37
2817.46
2817.9
2817.35
2818.28
2821.31
2824.01
2825.21
2826.05
2827.66
2829.46
2832.17
2834.34
2835.08
2837.81
2839.79
2843.22
2845.52
2849.27
2851.23
2858.68
2856.82
2867.21
2868.91
2873.47
2876.75
2878.81
2882.2
2885.52
2883.31
2860.7
2885.98
3033.09
3045.99
2693.77
2515.59
2509.14
2509
2509
2509
2509
2509
2509
2509
2789.55
2791.69
2793.99
2796.54
2798.89
2800.93
2802.26
2803.03
2803
2802.72
2801.7
2800.35
2798.68
2798.5
2799.22
2800.94
2803.35
2806.33
2808.98
2810.18
2809.72
2808.41
2808.02
2809.3
2811.31
2813.37
2815.45
2817.57
2817.96
2817.35
2818.28
2821.33
2824.07
2825.3
2826.14
2827.78
2829.61
2832.38
2834.63
2835.3
2838.01
2839.94
2843.45
2845.97
2849.99
2851.54
2859.96
2863.23
2868.53
2870.88
2875.69
2878.9
2882.06
2886.07
2889.13
2874.74
2866.91
2924.92
3046.14
2935.95
2560.24
2510.09
2509.02
2509
2509
2509
2509
2509
2509
2509
2787.78
2789.58
2791.69
2794
2796.55
2798.9
2800.93
2802.26
2803.04
2803.01
2802.73
2801.69
2800.3
2798.59
2798.35
2799.06
2800.84
2803.32
2806.4
2809.16
2810.41
2809.89
2808.47
2807.96
2809.2
2811.24
2813.38
2815.53
2817.67
2818.03
2817.36
2818.28
2821.36
2824.14
2825.38
2826.23
2827.9
2829.79
2832.63
2834.99
2835.6
2838.3
2840.19
2843.76
2846.03
2850.6
2853.41
2861.32
2864.11
2868.69
2872.76
2877.21
2880.61
2883.88
2886.74
2882.58
2867.16
2859.33
2991.01
3030.59
2729.15
2518.33
2509.16
2509
2509
2509
2509
2509
2509
2509
2509
2786.27
2787.81
2789.58
2791.7
2794
2796.55
2798.9
2800.93
2802.27
2803.05
2803.02
2802.74
2801.68
2800.26
2798.49
2798.2
2798.91
2800.72
2803.28
2806.48
2809.34
2810.63
2810.06
2808.53
2807.9
2809.11
2811.17
2813.4
2815.62
2817.77
2818.09
2817.38
2818.3
2821.39
2824.21
2825.47
2826.31
2828.02
2829.99
2832.9
2835.41
2835.98
2838.73
2840.47
2844.13
2846.59
2851.47
2852.94
2863.2
2864.77
2869.63
2872.83
2876.94
2879.22
2881.24
2880.94
2871.48
2851.97
2904.07
3022.41
2960.21
2576.19
2510.29
2509.02
2509
2509
2509
2509
2509
2509
2509
2509
2785.12
2786.3
2787.81
2789.59
2791.71
2794.01
2796.56
2798.9
2800.94
2802.28
2803.06
2803.04
2802.74
2801.67
2800.2
2798.38
2798.04
2798.76
2800.59
2803.23
2806.55
2809.52
2810.86
2810.23
2808.58
2807.85
2809.03
2811.12
2813.43
2815.71
2817.87
2818.16
2817.41
2818.33
2821.44
2824.29
2825.55
2826.4
2828.15
2830.2
2833.2
2835.88
2836.43
2839.29
2841.09
2844.64
2846.27
2852.61
2858.47
2861.82
2864.91
2868.54
2872.11
2875.12
2877.29
2879.54
2877.21
2865.12
2863.58
2963.83
3039
2750.58
2520.53
2509.17
2509
2509
2509
2509
2509
2509
2509
2509
2509
2784.29
2785.16
2786.3
2787.82
2789.6
2791.73
2794.02
2796.56
2798.91
2800.95
2802.29
2803.07
2803.06
2802.76
2801.66
2800.15
2798.26
2797.88
2798.58
2800.45
2803.18
2806.62
2809.7
2811.08
2810.39
2808.64
2807.8
2808.96
2811.08
2813.47
2815.8
2817.96
2818.23
2817.45
2818.38
2821.51
2824.38
2825.64
2826.49
2828.29
2830.42
2833.49
2836.38
2837.03
2840.05
2841.46
2845.56
2848.65
2852.55
2858.09
2861.47
2864.86
2868.88
2872.83
2875.97
2878.6
2881.1
2881.77
2866.49
2903.65
3020.17
2943.51
2587.8
2510.35
2509.02
2509
2509
2509
2509
2509
2509
2509
2509
2509
2783.84
2784.33
2785.16
2786.32
2787.84
2789.62
2791.75
2794.04
2796.57
2798.91
2800.95
2802.3
2803.08
2803.08
2802.77
2801.65
2800.09
2798.14
2797.71
2798.39
2800.31
2803.13
2806.69
2809.88
2811.29
2810.54
2808.69
2807.75
2808.91
2811.06
2813.52
2815.9
2818.06
2818.3
2817.51
2818.45
2821.59
2824.48
2825.74
2826.6
2828.45
2830.64
2833.79
2836.92
2837.54
2840.95
2842.83
2846.6
2847.98
2856.78
2859.25
2862.58
2866.6
2871.07
2875.4
2879.44
2883.57
2888.25
2876.61
2877.04
2945.71
3006.89
2772.19
2521.6
2509.16
2509
2509
2509
2509
2509
2509
2509
2509
2509
2509
2783.73
2783.88
2784.33
2785.18
2786.34
2787.87
2789.65
2791.77
2794.05
2796.58
2798.92
2800.96
2802.31
2803.1
2803.11
2802.8
2801.65
2800.03
2798.01
2797.51
2798.19
2800.16
2803.08
2806.76
2810.06
2811.5
2810.69
2808.74
2807.71
2808.86
2811.05
2813.58
2816
2818.16
2818.38
2817.59
2818.53
2821.69
2824.6
2825.87
2826.72
2828.63
2830.89
2834.03
2837.41
2838.32
2841.83
2843.04
2849.42
2855.23
2857.9
2860.69
2864.95
2869.15
2874.05
2878.64
2883.28
2886.87
2883.17
2871.2
2876.07
2995.63
2939.93
2589.16
2510.35
2509.02
2509
2509
2509
2509
2509
2509
2509
2509
2509
2509
2784.16
2783.77
2783.88
2784.35
2785.2
2786.37
2787.9
2789.68
2791.8
2794.07
2796.59
2798.93
2800.97
2802.33
2803.13
2803.15
2802.83
2801.65
2799.97
2797.87
2797.3
2797.98
2800
2803.02
2806.82
2810.23
2811.7
2810.82
2808.78
2807.68
2808.82
2811.05
2813.65
2816.1
2818.25
2818.47
2817.7
2818.63
2821.81
2824.74
2826.02
2826.89
2828.85
2831.12
2834.28
2837.93
2838.53
2842.89
2846.25
2849.36
2855.67
2859.48
2862.84
2866.88
2871.62
2876.51
2880.92
2883.74
2882.15
2873.57
2854.7
2936.31
2994.48
2763
2521.62
2509.16
2509
2509
2509
2509
2509
2509
2509
2509
2509
2509
2509
2784.89
2784.19
2783.77
2783.89
2784.37
2785.23
2786.41
2787.94
2789.72
2791.83
2794.1
2796.61
2798.94
2800.99
2802.36
2803.16
2803.19
2802.86
2801.65
2799.91
2797.73
2797.09
2797.77
2799.84
2802.95
2806.88
2810.4
2811.88
2810.95
2808.82
2807.65
2808.8
2811.06
2813.72
2816.2
2818.36
2818.56
2817.83
2818.76
2821.96
2824.92
2826.23
2827.1
2829.13
2831.43
2834.4
2838.33
2839.38
2843.51
2844.99
2854.11
2857
2860.03
2863.8
2867.74
2871.93
2876.28
2878.93
2878.94
2878.02
2865.44
2882.54
2982.52
2951.08
2585.31
2510.28
2509.02
2509
2509
2509
2509
2509
2509
2509
2509
2509
2509
2509
2785.9
2784.91
2784.19
2783.78
2783.92
2784.4
2785.27
2786.46
2787.99
2789.76
2791.86
2794.12
2796.62
2798.95
2801.01
2802.39
2803.21
2803.25
2802.91
2801.66
2799.85
2797.58
2796.87
2797.54
2799.67
2802.89
2806.93
2810.56
2812.05
2811.07
2808.86
2807.64
2808.79
2811.09
2813.8
2816.31
2818.46
2818.67
2818
2818.92
2822.13
2825.12
2826.49
2827.39
2829.49
2831.73
2834.63
2838.73
2839.06
2845.8
2850.6
2853.55
2856.22
2859.92
2863.58
2867.21
2870.97
2873.93
2875.6
2878.99
2878.24
2873.28
2934.2
2996.78
2741.04
2520.08
2509.15
2509
2509
2509
2509
2509
2509
2509
2509
2509
2509
2509
2509
2787.13
2785.91
2784.91
2784.2
2783.81
2783.95
2784.44
2785.33
2786.51
2788.04
2789.82
2791.91
2794.15
2796.64
2798.97
2801.04
2802.43
2803.26
2803.32
2802.98
2801.69
2799.79
2797.43
2796.64
2797.32
2799.51
2802.83
2806.98
2810.71
2812.21
2811.17
2808.89
2807.63
2808.79
2811.13
2813.89
2816.42
2818.56
2818.79
2818.19
2819.12
2822.32
2825.35
2826.83
2827.75
2829.96
2832.27
2834.51
2839.17
2841.22
2844.25
2850.38
2852.57
2855.87
2859.24
2863.09
2867.39
2871.85
2875.12
2879.32
2883.88
2873.98
2897.44
2975.31
2890.33
2577.56
2510.1
2509.02
2509
2509
2509
2509
2509
2509
2509
2509
2509
2509
2509
2509
2788.52
2787.13
2785.91
2784.92
2784.22
2783.84
2783.99
2784.5
2785.38
2786.58
2788.11
2789.88
2791.95
2794.18
2796.66
2798.99
2801.07
2802.48
2803.34
2803.41
2803.05
2801.72
2799.74
2797.27
2796.41
2797.09
2799.34
2802.77
2807.03
2810.86
2812.36
2811.27
2808.93
2807.64
2808.81
2811.18
2813.98
2816.53
2818.67
2818.92
2818.42
2819.34
2822.54
2825.61
2827.23
2828.26
2830.54
2832.73
2834.78
2839.72
2839.66
2848.77
2849.81
2852.35
2855.52
2860.02
2864.97
2870.33
2875.08
2881
2885.89
2882.04
2876.35
2916.12
2959.03
2730.49
2517.78
2509.12
2509
2509
2509
2509
2509
2509
2509
2509
2509
2509
2509
2509
2509
2790.01
2788.52
2787.13
2785.92
2784.93
2784.24
2783.88
2784.04
2784.56
2785.46
2786.65
2788.18
2789.94
2792.01
2794.22
2796.68
2799.02
2801.11
2802.55
2803.43
2803.52
2803.15
2801.76
2799.68
2797.12
2796.17
2796.86
2799.18
2802.72
2807.07
2811
2812.49
2811.36
2808.96
2807.66
2808.83
2811.24
2814.09
2816.64
2818.78
2819.06
2818.68
2819.61
2822.77
2825.9
2827.73
2828.75
2831.36
2833.87
2834.57
2841.75
2845.97
2848.75
2850.65
2853.79
2857.51
2862.42
2868.08
2873.81
2879.96
2885.14
2887.37
2877.89
2868.2
2954.82
2902.85
2561.23
2509.87
2509.01
2509
2509
2509
2509
2509
2509
2509
2509
2509
2509
2509
2509
2509
2791.5
2790
2788.52
2787.14
2785.93
2784.95
2784.28
2783.93
2784.1
2784.63
2785.54
2786.74
2788.27
2790.02
2792.06
2794.25
2796.71
2799.05
2801.16
2802.63
2803.54
2803.65
2803.26
2801.81
2799.64
2796.96
2795.94
2796.64
2799.02
2802.67
2807.12
2811.14
2812.62
2811.44
2809
2807.69
2808.88
2811.31
2814.2
2816.76
2818.89
2819.21
2818.97
2819.89
2823.02
2826.18
2828.25
2829.6
2832.02
2834.69
2836.36
2842.17
2847.14
2850.05
2852.86
2856.12
2860.24
2865.21
2870.76
2876.61
2881.87
2883.86
2879.64
2867.29
2931.66
2976
2683.48
2515.25
2509.09
2509
2509
2509
2509
2509
2509
2509
2509
2509
2509
2509
2509
2509
2509
2792.92
2791.48
2790
2788.52
2787.14
2785.94
2784.98
2784.32
2783.98
2784.17
2784.71
2785.64
2786.84
2788.36
2790.09
2792.12
2794.29
2796.74
2799.09
2801.23
2802.73
2803.69
2803.81
2803.39
2801.88
2799.6
2796.81
2795.71
2796.42
2798.88
2802.64
2807.17
2811.26
2812.73
2811.52
2809.05
2807.74
2808.93
2811.4
2814.32
2816.89
2819
2819.38
2819.31
2820.23
2823.24
2826.5
2828.92
2830.01
2833.14
2837.1
2836.63
2846.28
2848.58
2851.58
2855.41
2858.85
2862.62
2866.23
2871.16
2876.55
2877.94
2879.35
2869.8
2895.53
2964.38
2848.39
2548.1
2509.61
2509.01
2509
2509
2509
2509
2509
2509
2509
2509
2509
2509
2509
2509
2509
2509
2794.22
2792.91
2791.48
2790
2788.52
2787.15
2785.96
2785.01
2784.36
2784.05
2784.25
2784.81
2785.74
2786.94
2788.46
2790.17
2792.18
2794.32
2796.77
2799.14
2801.31
2802.85
2803.86
2803.98
2803.54
2801.96
2799.56
2796.67
2795.48
2796.22
2798.75
2802.62
2807.23
2811.38
2812.83
2811.59
2809.1
2807.81
2809.01
2811.5
2814.45
2817.04
2819.11
2819.56
2819.68
2820.58
2823.52
2826.72
2829.44
2831.32
2833.69
2838.14
2842.51
2846.16
2848.81
2853.57
2857.39
2860.55
2862.77
2865.96
2871.11
2873.46
2877.74
2872.47
2871.02
2930.93
2924.58
2653.05
2512.8
2509.06
2509
2509
2509
2509
2509
2509
2509
2509
2509
2509
2509
2509
2509
2509
2509
2795.36
2794.19
2792.9
2791.47
2789.99
2788.52
2787.16
2785.98
2785.05
2784.42
2784.13
2784.35
2784.92
2785.86
2787.06
2788.56
2790.26
2792.23
2794.36
2796.81
2799.19
2801.41
2803
2804.05
2804.18
2803.71
2802.05
2799.52
2796.53
2795.27
2796.04
2798.64
2802.61
2807.3
2811.5
2812.93
2811.66
2809.17
2807.91
2809.1
2811.61
2814.6
2817.19
2819.24
2819.74
2820.1
2821.02
2823.66
2827.05
2830.19
2831.43
2836.33
2840.06
2842.53
2845.44
2849.71
2853.91
2857.63
2860.23
2862.83
2868.1
2872.63
2877.32
2877.22
2876.66
2896.38
2936.85
2812.57
2532.73
2509.37
2509
2509
2509
2509
2509
2509
2509
2509
2509
2509
2509
2509
2509
2509
2509
2509
2796.31
2795.33
2794.19
2792.89
2791.46
2789.98
2788.52
2787.17
2786.01
2785.09
2784.49
2784.22
2784.46
2785.05
2785.99
2787.18
2788.66
2790.33
2792.28
2794.39
2796.85
2799.26
2801.53
2803.17
2804.26
2804.41
2803.91
2802.15
2799.5
2796.4
2795.07
2795.87
2798.55
2802.62
2807.38
2811.61
2813.02
2811.74
2809.26
2808.02
2809.22
2811.75
2814.77
2817.35
2819.36
2819.96
2820.59