/*--------------------------------*- C++ -*----------------------------------*\
| =========                 |                                                 |
| \\      /  F ield         | OpenFOAM: The Open Source CFD Toolbox           |
|  \\    /   O peration     | Version:  v2012                                 |
|   \\  /    A nd           | Website:  www.openfoam.com                      |
|    \\/     M anipulation  |                                                 |
\*---------------------------------------------------------------------------*/
FoamFile
{
    version     2.0;
    format      ascii;
    class       volScalarField;
    location    "13600";
    object      q2;
}
// * * * * * * * * * * * * * * * * * * * * * * * * * * * * * * * * * * * * * //

dimensions      [0 0 0 0 0 0 0];


internalField   nonuniform List<scalar> 
39402
(
1
1
1
1
1
1
1
1
1
0.999994
1
1
1
1
0.976604
1
1
1
1
1
0.727354
1
1
1
1
1
0.994859
0.404632
1
1
1
1
1
1
0.860501
0.213861
1
1
1
1
1
1
0.999921
0.548252
0.115951
1
1
1
1
1
1
0.999994
0.980167
0.300158
0.0650934
1
1
1
1
1
1
0.999998
0.998179
0.805931
0.160611
0.0375549
1
1
1
1
1
1
0.999996
0.999735
0.970578
0.51035
0.0872477
0.0221988
1
1
1
1
1
1
0.999995
0.999859
0.997177
0.858271
0.2847
0.0483222
0.0132604
1
1
1
1
1
1
0.999992
0.999893
0.999269
0.98444
0.669089
0.153847
0.0271539
0.00805523
1
1
1
1
1
1
0.99999
0.999898
0.999662
0.997545
0.950726
0.477582
0.0827942
0.0155284
0.00491474
1
1
1
1
1
1
0.999989
0.999899
0.999767
0.999253
0.994219
0.893051
0.329623
0.0447145
0.00898774
0.00301392
1
1
1
1
1
1
0.999989
0.999898
0.999807
0.999616
0.998804
0.98943
0.820529
0.237523
0.024174
0.00526295
0.00183972
1
1
1
1
1
1
0.999989
0.9999
0.999823
0.999732
0.999556
0.998514
0.983292
0.751759
0.195499
0.0130626
0.00309841
0.00111635
1
1
1
1
1
1
0.99999
0.999905
0.999837
0.999782
0.999745
0.999623
0.998379
0.975551
0.692695
0.172624
0.00708589
0.00180396
0.000654994
1
1
1
1
1
1
0.999991
0.999908
0.999849
0.999815
0.999821
0.999828
0.99973
0.998256
0.96228
0.595957
0.131368
0.00386471
0.00101627
0.000397582
1
1
1
1
1
1
0.999992
0.999913
0.999856
0.999837
0.99986
0.999902
0.999911
0.999811
0.997872
0.938311
0.480415
0.0926717
0.00213534
0.000591402
0.000281883
1
1
1
1
1
1
0.999993
0.999919
0.999864
0.999851
0.999884
0.999932
0.99996
0.999959
0.999853
0.996934
0.895258
0.365664
0.0603233
0.00121336
0.000384331
0.000248148
1
1
1
1
1
1
0.999994
0.999925
0.999872
0.999865
0.999899
0.999948
0.999977
0.999987
0.999981
0.999863
0.994672
0.822216
0.266717
0.0354817
0.00072021
0.000246265
0.000373862
1
1
1
1
1
1
0.999995
0.999931
0.999879
0.999877
0.999911
0.999957
0.999984
0.999994
0.999996
0.99999
0.99983
0.988884
0.712314
0.192379
0.018622
0.00044221
0.000154447
0.000625046
1
1
1
1
1
1
0.999995
0.999935
0.999884
0.999888
0.999922
0.999964
0.999988
0.999996
0.999999
0.999999
0.999993
0.999702
0.973593
0.572976
0.143185
0.00859585
0.000274113
0.000107034
0.000676351
1
1
1
1
1
1
0.999996
0.999941
0.99989
0.999897
0.999929
0.999969
0.999991
0.999998
0.999999
1
0.999999
0.999992
0.999255
0.934454
0.427317
0.1091
0.00346023
0.00017235
9.05091e-05
0.000509793
1
1
1
1
1
1
0.999997
0.999945
0.999896
0.999903
0.999936
0.999973
0.999993
0.999998
1
1
1
1
0.999985
0.99754
0.84793
0.299109
0.0675319
0.00123631
0.000114927
9.20213e-05
0.000444283
1
1
1
1
1
1
0.999997
0.999948
0.999899
0.999909
0.999941
0.999976
0.999994
0.999999
1
1
1
1
1
0.999956
0.990591
0.700624
0.202742
0.0324209
0.000427688
8.56674e-05
0.000106527
0.000369572
1
1
1
1
1
1
0.999998
0.999952
0.999902
0.999912
0.999945
0.999978
0.999995
0.999999
1
1
1
1
1
0.999999
0.999804
0.964549
0.520151
0.141204
0.0132376
0.00016841
7.32304e-05
0.000135925
0.000289579
1
1
1
1
1
1
0.999998
0.999955
0.999906
0.999917
0.999947
0.99998
0.999995
0.999999
1
1
1
1
1
1
0.999997
0.998879
0.887903
0.355329
0.101196
0.00463153
8.53182e-05
7.1642e-05
0.000155646
0.000156448
1
1
1
1
1
1
0.999998
0.999958
0.999908
0.999922
0.999949
0.99998
0.999996
0.999999
1
1
1
1
1
1
1
0.999983
0.993244
0.733215
0.233641
0.0555047
0.00140786
5.71059e-05
7.39152e-05
0.000168207
8.24899e-05
1
1
1
1
1
1
0.999999
0.999963
0.999913
0.999925
0.999953
0.999981
0.999996
0.999999
1
1
1
1
1
1
1
1
0.999863
0.965901
0.5305
0.156054
0.0233715
0.00041474
5.16448e-05
7.90242e-05
0.000213415
5.74293e-05
1
1
1
1
1
1
0.999999
0.999965
0.999919
0.999931
0.999954
0.999982
0.999996
0.999999
1
1
1
1
1
1
1
1
0.999998
0.998749
0.874747
0.349496
0.107888
0.00833173
0.000146286
6.30617e-05
9.24949e-05
0.000236882
5.02909e-05
1
1
1
1
1
1
0.999999
0.999966
0.999919
0.999934
0.999956
0.999982
0.999996
0.999999
1
1
1
1
1
1
1
1
1
0.999981
0.990218
0.69238
0.224357
0.0617869
0.00255853
7.25529e-05
8.06516e-05
0.000129428
0.000158359
5.48541e-05
1
1
1
1
1
1
0.999999
0.99997
0.999922
0.999935
0.999958
0.999983
0.999996
1
1
1
1
1
1
1
1
1
1
1
0.999743
0.945628
0.477071
0.151449
0.0259285
0.000729294
5.53468e-05
9.95092e-05
0.000190571
8.78304e-05
7.80702e-05
1
1
1
1
1
1
0.999999
0.999973
0.999929
0.999936
0.999958
0.999984
0.999996
1
1
1
1
1
1
1
1
1
1
1
0.999997
0.997014
0.811524
0.306011
0.105905
0.00922414
0.000236082
5.98914e-05
0.000116077
0.00030052
4.20158e-05
0.000201128
1
1
1
1
1
1
0.999999
0.999975
0.999931
0.99994
0.999959
0.999984
0.999996
1
1
1
1
1
1
1
1
1
1
1
1
0.999937
0.975849
0.592828
0.197908
0.0533071
0.00291968
0.000105638
9.67626e-05
0.000113795
0.000825071
2.36302e-05
0.000633027
1
1
1
1
1
1
0.999999
0.999976
0.999932
0.999943
0.99996
0.999983
0.999996
1
1
1
1
1
1
1
1
1
1
1
1
0.999999
0.998938
0.883958
0.383258
0.13514
0.0212425
0.000899359
7.27642e-05
0.000248015
0.000102736
0.0033566
9.06577e-06
0.00167565
1
1
1
1
1
1
1
0.999977
0.999932
0.999943
0.999962
0.999984
0.999996
1
1
1
1
1
1
1
1
1
1
1
1
1
0.999981
0.988158
0.683756
0.241867
0.0848573
0.0074908
0.000318484
0.000103961
0.000499789
7.88031e-05
0.00783493
5.1622e-06
0.00359235
1
1
1
1
1
1
1
0.999979
0.999932
0.999941
0.999962
0.999984
0.999996
1
1
1
1
1
1
1
1
1
1
1
1
1
1
0.999549
0.925058
0.453783
0.163674
0.037435
0.00249644
0.000170592
0.000240722
0.000467737
5.03906e-05
0.00247434
3.41357e-06
0.0068325
1
1
1
1
1
1
1
0.999979
0.999934
0.99994
0.999961
0.999984
0.999996
1
1
1
1
1
1
1
1
1
1
1
1
1
1
0.999993
0.993344
0.748975
0.285697
0.115229
0.0144405
0.000928506
0.000167102
0.000548942
0.000273067
5.4862e-05
0.00044729
2.9662e-06
0.0114906
1
1
1
1
1
1
1
0.999981
0.999931
0.999939
0.999963
0.999984
0.999996
1
1
1
1
1
1
1
1
1
1
1
1
1
1
1
0.999762
0.947085
0.510186
0.189698
0.0548912
0.00533
0.000472191
0.000259484
0.00155392
0.000115696
9.08164e-05
6.6386e-05
3.14121e-06
0.0193977
1
1
1
1
1
1
1
0.999981
0.999932
0.999936
0.999961
0.999984
0.999996
1
1
1
1
1
1
1
1
1
1
1
1
1
1
1
0.999996
0.995524
0.790477
0.320639
0.131518
0.0223614
0.00213367
0.00036228
0.000626383
0.00415042
4.2259e-05
0.000283412
2.06336e-05
4.45528e-06
0.034866
1
1
1
1
1
1
1
0.999983
0.999935
0.999937
0.999959
0.999984
0.999996
0.999999
1
1
1
1
1
1
1
1
1
1
1
1
1
1
1
0.99984
0.957938
0.548535
0.208945
0.0700252
0.00887138
0.00115068
0.000452903
0.00174058
0.0072984
1.90413e-05
0.0236235
3.99129e-06
8.17828e-06
0.0732897
1
1
1
1
1
1
1
0.999984
0.99994
0.999937
0.999959
0.999982
0.999996
0.999999
1
1
1
1
1
1
1
1
1
1
1
1
1
1
1
0.999997
0.996411
0.81299
0.344179
0.143908
0.0298867
0.00383646
0.000875621
0.0008247
0.00612273
0.00296766
1.22358e-05
0.27089
1.33232e-06
2.08667e-05
0.192913
1
1
1
1
1
1
1
0.999984
0.999942
0.999942
0.999959
0.999982
0.999996
0.999999
1
1
1
1
1
1
1
1
1
1
1
1
1
1
1
1
0.999862
0.961831
0.569765
0.222329
0.0816991
0.0124504
0.00219391
0.000960971
0.00213113
0.0765892
0.000200968
1.43906e-05
0.00138406
6.65724e-07
8.24842e-05
0.538402
1
1
1
1
1
1
1
0.999984
0.999939
0.999943
0.999961
0.999983
0.999996
0.999999
1
1
1
1
1
1
1
1
1
1
1
1
1
1
1
1
0.999997
0.9965
0.819262
0.35716
0.152759
0.0358703
0.00576354
0.00184584
0.00147296
0.00786452
0.263417
3.47112e-05
2.49154e-05
7.26494e-05
5.29265e-07
0.000308657
0.967722
1
1
1
1
1
1
1
0.999985
0.999937
0.99994
0.999963
0.999983
0.999996
0.999999
1
1
1
1
1
1
1
1
1
1
1
1
1
1
1
1
1
0.999852
0.960763
0.573899
0.230304
0.0892291
0.0154455
0.00353872
0.00203971
0.00388487
0.0504596
0.569323
1.18737e-05
8.04573e-05
9.45007e-06
6.97799e-07
0.000967178
0.999999
1
1
1
1
1
1
1
0.999985
0.999937
0.999935
0.99996
0.999983
0.999996
0.999999
1
1
1
1
1
1
1
1
1
1
1
1
1
1
1
1
1
0.999997
0.995977
0.812502
0.359132
0.158146
0.0398169
0.00765362
0.00329859
0.00325922
0.0177403
0.0964245
0.0346083
5.54614e-06
0.0119026
1.07231e-06
1.48451e-06
0.00328502
1
1
1
1
1
1
1
1
0.999985
0.999939
0.999936
0.999959
0.999982
0.999996
0.999999
1
1
1
1
1
1
1
1
1
1
1
1
1
1
1
1
1
1
0.999796
0.954995
0.562786
0.232061
0.0923811
0.0176556
0.00496671
0.00419996
0.0117792
0.0190865
1
0.000291175
4.69983e-06
0.0112238
3.28192e-07
4.91921e-06
0.0147587
1
1
1
1
1
1
1
1
0.999986
0.999942
0.999937
0.999959
0.999981
0.999995
0.999999
1
1
1
1
1
1
1
1
1
1
1
1
1
1
1
1
1
1
0.999995
0.994525
0.792573
0.350757
0.159737
0.0414408
0.00923656
0.00503512
0.00854146
0.0713296
0.0363028
0.099593
2.27382e-05
7.3395e-06
0.000116244
1.86234e-07
2.67144e-05
0.0877152
1
1
1
1
1
1
1
1
0.999986
0.999942
0.999939
0.99996
0.999981
0.999995
0.999999
1
1
1
1
1
1
1
1
1
1
1
1
1
1
1
1
1
1
1
0.999662
0.943003
0.537632
0.228487
0.0910019
0.0188161
0.00645956
0.00858227
0.0489572
0.0545171
0.0186051
0.859296
6.48611e-06
2.5853e-05
4.15115e-06
2.15543e-07
0.000176793
0.497818
1
1
1
1
1
1
1
1
0.999985
0.999939
0.999939
0.99996
0.999982
0.999995
0.999999
1
1
1
1
1
1
1
1
1
1
1
1
1
1
1
1
1
1
1
0.999989
0.991579
0.759327
0.334293
0.157696
0.0407183
0.0104571
0.00754503
0.0254762
0.708707
0.0172216
0.0201223
0.102495
2.43551e-06
0.00293453
4.22941e-07
4.79053e-07
0.00104424
0.99955
1
1
1
1
1
1
1
1
0.999985
0.999935
0.999934
0.999962
0.999982
0.999995
0.999999
1
1
1
1
1
1
1
1
1
1
1
1
1
1
1
1
1
1
1
1
0.99934
0.921996
0.500969
0.221179
0.0857997
0.0189249
0.00810389
0.0185811
0.267692
0.19142
0.00761438
0.611151
0.000103161
2.12066e-06
0.00284948
1.16838e-07
2.07884e-06
0.00778951
1
1
1
1
1
1
1
1
1
0.999985
0.999932
0.999929
0.999958
0.999982
0.999995
0.999999
1
1
1
1
1
1
1
1
1
1
1
1
1
1
1
1
1
1
1
1
0.999971
0.985862
0.713055
0.312115
0.153534
0.0381724
0.0112769
0.0111036
0.102825
0.53225
0.042567
0.00698823
0.0087209
8.15023e-06
4.3818e-06
2.31741e-05
7.99922e-08
1.69038e-05
0.0751396
1
1
1
1
1
1
1
1
1
0.999984
0.999932
0.999926
0.999954
0.99998
0.999995
0.999999
1
1
1
1
1
1
1
1
1
1
1
1
1
1
1
1
1
1
1
1
0.999999
0.998528
0.890251
0.459548
0.210968
0.0778072
0.0183583
0.0098552
0.0380375
0.999966
0.642186
0.0154517
0.0110702
0.0153414
2.46292e-06
3.16429e-05
5.03276e-07
1.30555e-07
0.000185647
0.704566
1
1
1
1
1
1
1
1
1
0.999984
0.999931
0.999925
0.999953
0.999979
0.999995
0.999999
1
1
1
1
1
1
1
1
1
1
1
1
1
1
1
1
1
1
1
1
1
0.999911
0.974374
0.655782
0.290418
0.145739
0.0344161
0.0119074
0.0160609
0.492927
0.999952
0.999966
0.00406236
0.0039902
0.0015559
1.17251e-06
0.0157291
8.45659e-08
5.01712e-07
0.00195787
1
1
1
1
1
1
1
1
1
1
0.999984
0.999933
0.999924
0.999952
0.999977
0.999994
0.999999
1
1
1
1
1
1
1
1
1
1
1
1
1
1
1
1
1
1
1
1
1
0.999997
0.996433
0.841266
0.414619
0.198211
0.0681576
0.0174365
0.0122183
0.0846835
0.999988
0.549159
0.460151
0.00204421
0.0971561
7.54442e-06
1.56012e-06
4.01089e-05
4.10653e-08
4.28695e-06
0.0308573
1
1
1
1
1
1
1
1
1
1
0.999983
0.999931
0.999925
0.999951
0.999977
0.999994
0.999999
1
1
1
1
1
1
1
1
1
1
1
1
1
1
1
1
1
1
1
1
1
1
0.999713
0.952184
0.585527
0.265617
0.125476
0.0301385
0.0126712
0.0274269
0.999992
1
1
0.0340192
0.00454338
0.000465412
1.41117e-06
7.71072e-06
3.8214e-07
6.21035e-08
8.04268e-05
0.514668
1
1
1
1
1
1
1
1
1
1
0.999981
0.999927
0.999923
0.999952
0.999977
0.999994
0.999999
1
1
1
1
1
1
1
1
1
1
1
1
1
1
1
1
1
1
1
1
1
1
0.999985
0.991309
0.772755
0.364084
0.181626
0.0569298
0.0163823
0.016179
0.331312
1
0.997216
0.20426
0.0044148
0.0231856
0.000102653
9.48352e-07
0.00196861
4.38205e-08
2.57696e-07
0.00135518
1
1
1
1
1
1
1
1
1
1
1
0.999982
0.999919
0.999919
0.99995
0.999978
0.999994
0.999999
1
1
1
1
1
1
1
1
1
1
1
1
1
1
1
1
1
1
1
1
1
1
1
0.99899
0.914526
0.508852
0.239091
0.103745
0.0258702
0.0138535
0.0523451
1
1
0.849938
0.0135845
0.00087135
0.00224647
1.25428e-05
1.27247e-06
5.60015e-06
2.55512e-08
3.0835e-06
0.0356047
1
1
1
1
1
1
1
1
1
1
1
0.999983
0.999921
0.999911
0.999947
0.999977
0.999994
0.999999
1
1
1
1
1
1
1
1
1
1
1
1
1
1
1
1
1
1
1
1
1
1
1
0.999925
0.978484
0.6906
0.31739
0.164713
0.0460301
0.0156763
0.0219795
0.479999
0.999999
0.998753
0.883349
0.00596748
0.000428476
0.390837
1.02771e-06
6.20065e-06
1.90376e-07
4.13311e-08
8.88599e-05
0.785158
1
1
1
1
1
1
1
1
1
1
1
0.999982
0.999924
0.999913
0.999942
0.999975
0.999994
0.999999
1
1
1
1
1
1
1
1
1
1
1
1
1
1
1
1
1
1
1
1
1
1
1
0.999996
0.99645
0.851229
0.437809
0.214078
0.0827616
0.0221175
0.0160115
0.0828665
0.914276
0.200234
0.0732469
0.134444
0.0109725
0.00535861
1.6967e-05
4.10491e-07
0.0212618
2.04223e-08
2.68152e-07
0.00244134
1
1
1
1
1
1
1
1
1
1
1
1
0.99998
0.999916
0.999912
0.999943
0.999972
0.999993
0.999999
1
1
1
1
1
1
1
1
1
1
1
1
1
1
1
1
1
1
1
1
1
1
1
1
0.999615
0.949681
0.592931
0.278899
0.140153
0.0361423
0.0157879
0.0315135
0.696304
0.702618
0.0977168
0.0466666
0.0631147
0.0058733
0.00128275
2.48298e-06
1.24235e-06
6.35487e-07
1.59868e-08
5.55747e-06
0.10274
1
1
1
1
1
1
1
1
1
1
1
1
0.999981
0.999908
0.999905
0.999943
0.999973
0.999992
0.999999
1
1
1
1
1
1
1
1
1
1
1
1
1
1
1
1
1
1
1
1
1
1
1
1
0.999971
0.988292
0.76091
0.367288
0.189974
0.0635731
0.0190702
0.0209426
0.162269
1
1
0.575142
0.194747
0.0997253
0.000886196
0.0414462
9.47413e-07
0.000609598
3.28469e-08
4.86804e-08
0.000243093
0.999989
1
1
1
1
1
1
1
1
1
1
1
1
0.99998
0.999909
0.999895
0.99994
0.999972
0.999992
0.999999
1
1
1
1
1
1
1
1
1
1
1
1
1
1
1
1
1
1
1
1
1
1
1
1
0.999998
0.998123
0.893829
0.495011
0.241523
0.107854
0.0283252
0.0168638
0.0529139
1
0.923856
0.206962
0.0531864
0.00887446
0.000335201
0.000113774
6.93621e-05
4.37074e-07
7.38052e-06
1.05534e-08
6.187e-07
0.014306
1
1
1
1
1
1
1
1
1
1
1
1
1
0.999978
0.999913
0.9999
0.999937
0.99997
0.999992
0.999999
1
1
1
1
1
1
1
1
1
1
1
1
1
1
1
1
1
1
1
1
1
1
1
1
1
0.999791
0.965852
0.652007
0.310246
0.165573
0.0471076
0.0173398
0.0287872
0.336172
1
0.735615
0.255417
0.105129
0.0061157
0.000173645
0.0031779
8.25532e-07
1.15161e-06
1.00267e-07
1.5537e-08
3.4167e-05
0.778064
1
1
1
1
1
1
1
1
1
1
1
1
1
0.999976
0.99991
0.999904
0.999939
0.999968
0.999991
0.999999
1
1
1
1
1
1
1
1
1
1
1
1
1
1
1
1
1
1
1
1
1
1
1
1
1
0.999983
0.992056
0.803312
0.406452
0.209268
0.0795238
0.0226637
0.0194511
0.0826079
0.930162
0.998335
0.246957
0.118913
0.0388023
0.2173
0.00305729
1.05689e-05
2.32704e-07
0.0434615
9.26836e-09
1.29114e-07
0.0022832
1
1
1
1
1
1
1
1
1
1
1
1
1
1
0.999976
0.999899
0.999901
0.999941
0.99997
0.999991
0.999999
1
1
1
1
1
1
1
1
1
1
1
1
1
1
1
1
1
1
1
1
1
1
1
1
1
0.999999
0.99866
0.913571
0.534947
0.261968
0.128172
0.0341878
0.0172449
0.0401861
0.351991
0.196704
0.0543155
0.0180973
0.00762091
0.00363262
0.0302977
0.000966213
2.02876e-06
7.20085e-07
1.12664e-07
8.18491e-09
5.13081e-06
0.22643
1
1
1
1
1
1
1
1
1
1
1
1
1
1
0.999974
0.999895
0.999893
0.999939
0.999971
0.999991
0.999998
1
1
1
1
1
1
1
1
1
1
1
1
1
1
1
1
1
1
1
1
1
1
1
1
1
1
0.999827
0.971438
0.682146
0.331961
0.178576
0.056219
0.0187656
0.025393
0.119644
0.38097
0.0577066
0.025093
0.0155924
0.0148514
0.689415
0.000603503
0.0225681
5.84424e-07
0.000396952
9.5231e-09
3.88875e-08
0.000502673
1
1
1
1
1
1
1
1
1
1
1
1
1
1
1
0.999973
0.999889
0.999884
0.999933
0.99997
0.999991
0.999999
1
1
1
1
1
1
1
1
1
1
1
1
1
1
1
1
1
1
1
1
1
1
1
1
1
1
0.999983
0.992791
0.818712
0.427332
0.220915
0.0908688
0.0254308
0.0188997
0.0577408
0.961849
0.657605
0.209765
0.846109
0.999909
0.0165827
0.000207054
4.94279e-05
4.53605e-05
4.45938e-07
5.97604e-07
5.80384e-09
1.20996e-06
0.0725354
1
1
1
1
1
1
1
1
1
1
1
1
1
1
1
0.999972
0.999884
0.999873
0.999928
0.999968
0.999991
0.999999
1
1
1
1
1
1
1
1
1
1
1
1
1
1
1
1
1
1
1
1
1
1
1
1
1
1
0.999999
0.998599
0.91719
0.548635
0.272527
0.140058
0.0384916
0.017396
0.0374328
0.30127
1
0.464628
0.211755
0.0485397
0.0202854
0.00111923
9.66051e-05
0.00142316
3.54809e-07
2.08802e-06
1.25155e-08
1.70315e-08
0.000159138
1
1
1
1
1
1
1
1
1
1
1
1
1
1
1
1
0.999974
0.999881
0.999873
0.999922
0.999966
0.999991
0.999999
1
1
1
1
1
1
1
1
1
1
1
1
1
1
1
1
1
1
1
1
1
1
1
1
1
1
1
0.999789
0.970057
0.685318
0.33872
0.184439
0.061346
0.019681
0.0237412
0.107041
1
0.81613
0.694386
0.798567
0.990962
1
0.060139
0.00134418
3.00849e-06
1.93787e-07
2.65796e-06
3.45006e-09
4.16973e-07
0.0309987
1
1
1
1
1
1
1
1
1
1
1
1
1
1
1
1
0.999973
0.999886
0.999869
0.999921
0.999963
0.99999
0.999999
1
1
1
1
1
1
1
1
1
1
1
1
1
1
1
1
1
1
1
1
1
1
1
1
1
1
1
0.999974
0.991386
0.812361
0.427869
0.224315
0.0954723
0.026678
0.0181497
0.050422
0.746319
0.896409
0.204034
0.0989412
0.0420067
0.00456395
0.000830261
0.018571
0.000151549
5.90682e-07
3.43978e-06
1.0252e-08
1.09426e-08
6.60178e-05
1
1
1
1
1
1
1
1
1
1
1
1
1
1
1
1
1
0.999972
0.99988
0.999869
0.999919
0.999963
0.999989
0.999998
1
1
1
1
1
1
1
1
1
1
1
1
1
1
1
1
1
1
1
1
1
1
1
1
1
1
1
0.999997
0.998028
0.90636
0.540593
0.272664
0.142528
0.0397961
0.0171286
0.0321466
0.13046
0.5658
0.0345703
0.0116016
0.00778497
0.00468425
0.00162979
0.025595
0.00249053
0.000152191
3.79242e-07
5.74016e-07
3.39872e-09
1.85239e-07
0.019285
1
1
1
1
1
1
1
1
1
1
1
1
1
1
1
1
1
0.999972
0.999875
0.999866
0.999918
0.999962
0.999989
0.999998
1
1
1
1
1
1
1
1
1
1
1
1
1
1
1
1
1
1
1
1
1
1
1
1
1
1
1
1
0.999621
0.961759
0.664266
0.333928
0.184129
0.0616674
0.0195399
0.0219166
0.0650091
0.46974
0.0513356
0.00908875
0.00571901
0.00751901
0.020373
0.211546
0.000192082
3.39185e-05
1.70688e-06
1.44397e-06
1.14455e-08
6.26685e-09
4.16425e-05
1
1
1
1
1
1
1
1
1
1
1
1
1
1
1
1
1
1
0.999972
0.999874
0.999866
0.999915
0.999961
0.999989
0.999998
1
1
1
1
1
1
1
1
1
1
1
1
1
1
1
1
1
1
1
1
1
1
1
1
1
1
1
1
0.999938
0.986852
0.783775
0.411556
0.220707
0.0930781
0.0261384
0.0173465
0.0430606
0.300917
0.417063
0.044841
0.0277387
0.0736164
1
0.0103168
0.000379992
2.51515e-05
0.0044401
1.88301e-07
1.06125e-05
2.37854e-09
1.41748e-07
0.015079
1
1
1
1
1
1
1
1
1
1
1
1
1
1
1
1
1
1
0.999972
0.999875
0.999861
0.999911
0.999959
0.999988
0.999998
1
1
1
1
1
1
1
1
1
1
1
1
1
1
1
1
1
1
1
1
1
1
1
1
1
1
1
1
0.999991
0.996166
0.879008
0.510558
0.263273
0.135139
0.0379833
0.0164827
0.0306989
0.133252
0.999816
0.425201
0.968543
0.999863
0.106354
0.0213986
0.00817044
0.000576695
0.000485193
4.87211e-07
7.78733e-07
8.27577e-09
5.42473e-09
3.34034e-05
0.999999
1
1
1
1
1
1
1
1
1
1
1
1
1
1
1
1
1
1
0.999971
0.99987
0.99986
0.999905
0.999957
0.999988
0.999998
1
1
1
1
1
1
1
1
1
1
1
1
1
1
1
1
1
1
1
1
1
1
1
1
1
1
1
1
0.999999
0.999046
0.941265
0.6196
0.317029
0.176874
0.056963
0.0184623
0.0215131
0.0698081
0.9997
0.914566
0.736313
0.285144
0.486362
0.999999
0.0534782
0.00134245
0.00862483
5.11852e-06
1.82316e-07
1.84746e-06
1.75348e-09
1.31619e-07
0.01445
1
1
1
1
1
1
1
1
1
1
1
1
1
1
1
1
1
1
1
0.99997
0.999866
0.999854
0.999907
0.999955
0.999987
0.999998
1
1
1
1
1
1
1
1
1
1
1
1
1
1
1
1
1
1
1
1
1
1
1
1
1
1
1
1
1
0.999792
0.975394
0.729422
0.379531
0.209301
0.0838602
0.0238637
0.016804
0.0442748
0.558957
0.914983
0.527682
0.997732
0.401635
0.0191084
0.00256653
0.000437247
0.00200568
0.000219157
1.02265e-06
2.83088e-06
5.25411e-09
5.11865e-09
3.5156e-05
1
1
1
1
1
1
1
1
1
1
1
1
1
1
1
1
1
1
1
1
0.999972
0.999866
0.999844
0.999907
0.999953
0.999986
0.999998
1
1
1
1
1
1
1
1
1
1
1
1
1
1
1
1
1
1
1
1
1
1
1
1
1
1
1
1
1
0.99996
0.991004
0.827177
0.4598
0.245608
0.119038
0.0332821
0.0154237
0.0313514
0.138537
0.808291
0.0654078
0.0247574
0.00750994
0.00217963
0.00106394
0.00074565
0.013178
0.000708107
0.00374664
4.81499e-07
2.50758e-07
1.72437e-09
1.57846e-07
0.0180101
1
1
1
1
1
1
1
1
1
1
1
1
1
1
1
1
1
1
1
1
0.999973
0.999873
0.999844
0.999903
0.999953
0.999986
0.999998
1
1
1
1
1
1
1
1
1
1
1
1
1
1
1
1
1
1
1
1
1
1
1
1
1
1
1
1
1
0.999993
0.997106
0.901861
0.554104
0.288882
0.163633
0.0482758
0.0164482
0.0212346
0.0641277
0.710431
0.0628036
0.0133665
0.00420561
0.00130247
0.000779417
0.00151545
0.924916
0.000143035
1.01279e-05
1.70815e-06
2.78765e-06
3.48489e-09
4.63752e-09
4.90257e-05
1
1
1
1
1
1
1
1
1
1
1
1
1
1
1
1
1
1
1
1
1
0.999973
0.999876
0.999856
0.999903
0.999953
0.999986
0.999998
1
1
1
1
1
1
1
1
1
1
1
1
1
1
1
1
1
1
1
1
1
1
1
1
1
1
1
1
1
0.999999
0.999164
0.949954
0.652881
0.341297
0.19275
0.0699406
0.0203249
0.0159656
0.0409795
0.322371
0.198307
0.0335626
0.00971318
0.00243722
0.0012553
0.00397202
0.118647
0.000725387
5.92674e-05
0.0012557
2.46212e-07
1.81496e-07
1.14304e-09
2.70272e-07
0.0303706
1
1
1
1
1
1
1
1
1
1
1
1
1
1
1
1
1
1
1
1
1
0.999973
0.999873
0.99986
0.999908
0.999953
0.999986
0.999998
1
1
1
1
1
1
1
1
1
1
1
1
1
1
1
1
1
1
1
1
1
1
1
1
1
1
1
1
1
1
0.999785
0.977118
0.748562
0.401147
0.222669
0.0976838
0.0270076
0.0141782
0.0309033
0.0991257
0.433875
0.176656
0.217888
0.0528005
0.0149478
0.0608922
0.0723722
0.0700231
0.00584294
0.000489751
2.8059e-07
1.81357e-06
2.00199e-09
6.55824e-09
0.000106615
1
1
1
1
1
1
1
1
1
1
1
1
1
1
1
1
1
1
1
1
1
1
0.999973
0.999873
0.999852
0.999908
0.999954
0.999985
0.999998
1
1
1
1
1
1
1
1
1
1
1
1
1
1
1
1
1
1
1
1
1
1
1
1
1
1
1
1
1
1
0.999946
0.990516
0.832424
0.475414
0.25661
0.132213
0.0376569
0.0142906
0.0211345
0.0544582
0.288352
0.305336
0.999992
0.987686
0.628909
0.0437597
0.0157093
0.0977535
0.000186596
0.000402267
2.71031e-06
2.23047e-07
1.56596e-07
1.19856e-09
6.08666e-07
0.0842728
1
1
1
1
1
1
1
1
1
1
1
1
1
1
1
1
1
1
1
1
1
1
0.999973
0.999872
0.999852
0.999905
0.999953
0.999986
0.999997
1
1
1
1
1
1
1
1
1
1
1
1
1
1
1
1
1
1
1
1
1
1
1
1
1
1
1
1
1
1
0.999987
0.996306
0.896848
0.558777
0.296739
0.169777
0.0530099
0.0164173
0.015956
0.0383183
0.24149
0.231995
0.379851
0.944503
0.884792
0.0809566
0.0993624
0.0151655
0.00028988
0.00285883
0.887661
1.0794e-06
7.52676e-07
9.71905e-10
9.36498e-09
0.000341848
1
1
1
1
1
1
1
1
1
1
1
1
1
1
1
1
1
1
1
1
1
1
1
0.999974
0.999873
0.999851
0.999905
0.999953
0.999986
0.999997
1
1
1
1
1
1
1
1
1
1
1
1
1
1
1
1
1
1
1
1
1
1
1
1
1
1
1
1
1
1
0.999997
0.998641
0.940708
0.643677
0.343463
0.195761
0.073427
0.0205416
0.0133563
0.0338588
0.13795
0.682704
0.122294
0.0216856
0.0140701
0.0224814
0.0178396
0.00202724
0.000395419
0.00298386
1.27959e-05
0.000245747
4.8095e-06
6.99547e-09
1.28815e-09
2.10505e-06
0.371649
1
1
1
1
1
1
1
1
1
1
1
1
1
1
1
1
1
1
1
1
1
1
1
0.999974
0.999874
0.999851
0.999905
0.999952
0.999985
0.999998
1
1
1
1
1
1
1
1
1
1
1
1
1
1
1
1
1
1
1
1
1
1
1
1
1
1
1
1
1
1
0.999999
0.99953
0.96805
0.724545
0.39337
0.22232
0.0986002
0.0270598
0.0124837
0.0252488
0.0887098
0.981356
0.575417
0.0189111
0.00345105
0.00154808
0.000767502
0.000293676
0.000165529
0.000581072
6.28587e-05
0.000176508
1.04592e-06
1.92968e-05
1.02435e-09
2.27078e-08
0.00156587
1
1
1
1
1
1
1
1
1
1
1
1
1
1
1
1
1
1
1
1
1
1
1
1
0.999974
0.999875
0.999851
0.999905
0.999953
0.999985
0.999997
1
1
1
1
1
1
1
1
1
1
1
1
1
1
1
1
1
1
1
1
1
1
1
1
1
1
1
1
1
1
1
0.999847
0.983973
0.798513
0.453506
0.250706
0.128614
0.0366678
0.0129339
0.0173236
0.0487045
0.999927
0.99998
0.128019
0.00804897
0.00198817
0.000646421
0.000218127
9.95108e-05
0.00014569
0.0465436
0.0003937
6.93767e-07
2.02715e-07
2.53326e-09
1.3731e-09
8.29922e-06
0.990398
1
1
1
1
1
1
1
1
1
1
1
1
1
1
1
1
1
1
1
1
1
1
1
1
0.999974
0.999875
0.999852
0.999906
0.999953
0.999985
0.999997
1
1
1
1
1
1
1
1
1
1
1
1
1
1
1
1
1
1
1
1
1
1
1
1
1
1
1
1
1
1
1
0.999952
0.992371
0.860845
0.520697
0.283601
0.163771
0.0498143
0.0148899
0.0131712
0.0346451
0.550826
1
0.998558
0.165146
0.0225125
0.00465317
0.000951268
0.000344083
0.000275739
0.00778164
0.0064943
1.89278e-06
1.55345e-07
1.41222e-07
5.29698e-10
8.38444e-08
0.0086839
1
1
1
1
1
1
1
1
1
1
1
1
1
1
1
1
1
1
1
1
1
1
1
1
1
0.999975
0.999876
0.999852
0.999906
0.999953
0.999985
0.999997
1
1
1
1
1
1
1
1
1
1
1
1
1
1
1
1
1
1
1
1
1
1
1
1
1
1
1
1
1
1
1
0.999986
0.996551
0.90864
0.592384
0.320729
0.185894
0.0667873
0.0183351
0.0112473
0.0277749
0.0898472
0.95037
0.161281
0.497642
0.560004
0.473983
0.115328
0.0361333
0.0152172
0.0140057
0.104223
7.66191e-05
1.17677e-06
1.04968e-06
7.63615e-10
3.3587e-09
5.06869e-05
1
1
1
1
1
1
1
1
1
1
1
1
1
1
1
1
1
1
1
1
1
1
1
1
1
1
0.999975
0.999876
0.999852
0.999907
0.999954
0.999985
0.999997
1
1
1
1
1
1
1
1
1
1
1
1
1
1
1
1
1
1
1
1
1
1
1
1
1
1
1
1
1
1
1
0.999996
0.998497
0.942848
0.662502
0.361776
0.207716
0.0867511
0.0233882
0.0106094
0.0198221
0.0373987
0.192352
0.0252559
0.014682
0.0549236
0.511719
0.114228
0.0222458
0.00674937
0.000595315
0.00347385
0.000284063
0.000160821
2.42595e-05
4.87499e-09
7.67845e-10
4.27435e-07
0.090656
1
1
1
1
1
1
1
1
1
1
1
1
1
1
1
1
1
1
1
1
1
1
1
1
1
1
0.999975
0.999877
0.999852
0.999907
0.999954
0.999985
0.999997
1
1
1
1
1
1
1
1
1
1
1
1
1
1
1
1
1
1
1
1
1
1
1
1
1
1
1
1
1
1
1
0.999999
0.999374
0.965784
0.729113
0.406107
0.230886
0.110067
0.0304304
0.010857
0.0140022
0.0265644
0.0846976
0.0176595
0.00357084
0.00250847
0.00311629
0.0059649
0.0207701
0.060567
0.0136537
0.0658466
0.0107181
0.000984238
9.63831e-06
4.4397e-07
6.31255e-10
8.57747e-09
0.000437802
1
1
1
1
1
1
1
1
1
1
1
1
1
1
1
1
1
1
1
1
1
1
1
1
1
1
1
0.999975
0.999877
0.999853
0.999907
0.999954
0.999986
0.999997
1
1
1
1
1
1
1
1
1
1
1
1
1
1
1
1
1
1
1
1
1
1
1
1
1
1
1
1
1
1
1
1
0.999742
0.980288
0.790271
0.456578
0.256521
0.136752
0.0398512
0.0120135
0.011074
0.0242142
0.0649341
0.0376374
0.00559221
0.00189827
0.00102199
0.00048248
0.00035875
0.000267382
0.000100405
8.26227e-05
1.43922e-05
0.000504306
3.71879e-06
1.74115e-07
1.54087e-09
8.52827e-10
3.78594e-06
0.875373
1
1
1
1
1
1
1
1
1
1
1
1
1
1
1
1
1
1
1
1
1
1
1
1
1
1
1
0.999976
0.999877
0.999852
0.999907
0.999954
0.999986
0.999997
1
1
1
1
1
1
1
1
1
1
1
1
1
1
1
1
1
1
1
1
1
1
1
1
1
1
1
1
1
1
1
1
0.99989
0.989003
0.84326
0.511575
0.28489
0.165897
0.0517746
0.0141779
0.00943412
0.0234324
0.0635366
0.202861
0.0679478
0.0100414
0.00293121
0.00077094
0.000264554
0.000105683
3.9185e-05
1.82724e-05
6.469e-06
1.01223e-05
1.88899e-06
1.68677e-07
6.70065e-08
3.72608e-10
5.92312e-08
0.0059857
1
1
1
1
1
1
1
1
1
1
1
1
1
1
1
1
1
1
1
1
1
1
1
1
1
1
1
1
0.999976
0.999877
0.999851
0.999907
0.999954
0.999986
0.999997
1
1
1
1
1
1
1
1
1
1
1
1
1
1
1
1
1
1
1
1
1
1
1
1
1
1
1
1
1
1
1
1
0.999953
0.993818
0.886598
0.569673
0.315759
0.185352
0.0663728
0.0173528
0.00870003
0.0195143
0.0650521
0.992676
0.998881
0.938606
0.126094
0.011518
0.00156007
0.000373833
9.30326e-05
3.12733e-05
1.66053e-05
0.000185203
6.58769e-05
1.93501e-06
1.33208e-07
3.85084e-10
2.48079e-09
5.13739e-05
1
1
1
1
1
1
1
1
1
1
1
1
1
1
1
1
1
1
1
1
1
1
1
1
1
1
1
1
1
0.999976
0.999878
0.999851
0.999907
0.999954
0.999986
0.999997
1
1
1
1
1
1
1
1
1
1
1
1
1
1
1
1
1
1
1
1
1
1
1
1
1
1
1
1
1
1
1
1
0.99998
0.996548
0.919221
0.626843
0.34852
0.203832
0.083022
0.0217315
0.0085785
0.0137885
0.0427586
1
0.081158
0.0203506
0.0850184
0.094702
0.176219
0.0352507
0.00426556
0.000861306
0.00119152
0.000926329
1.7235e-05
6.3332e-06
7.56089e-07
1.35925e-09
5.357e-10
6.7246e-07
0.169191
1
1
1
1
1
1
1
1
1
1
1
1
1
1
1
1
1
1
1
1
1
1
1
1
1
1
1
1
1
0.999976
0.999877
0.999851
0.999907
0.999953
0.999985
0.999997
1
1
1
1
1
1
1
1
1
1
1
1
1
1
1
1
1
1
1
1
1
1
1
1
1
1
1
1
1
1
1
1
0.999992
0.998102
0.942908
0.679959
0.381875
0.221638
0.101604
0.0274233
0.00900025
0.0104557
0.0274938
1
0.0971071
0.0713328
0.236698
0.0313895
0.0115653
0.00578209
0.00273097
0.000883099
0.000153204
8.07135e-05
3.65039e-06
1.81077e-06
1.76868e-05
3.22795e-08
3.7687e-10
1.50951e-08
0.00107014
1
1
1
1
1
1
1
1
1
1
1
1
1
1
1
1
1
1
1
1
1
1
1
1
1
1
1
1
1
1
0.999977
0.999878
0.999851
0.999907
0.999954
0.999985
0.999997
1
1
1
1
1
1
1
1
1
1
1
1
1
1
1
1
1
1
1
1
1
1
1
1
1
1
1
1
1
1
1
1
0.999997
0.998962
0.960279
0.729603
0.416727
0.240311
0.121799
0.0345886
0.00995186
0.0085798
0.0226553
0.377572
0.498406
0.525061
0.0303847
0.0215956
0.0836992
0.140422
0.0114407
0.00120004
0.000605172
0.000300535
5.47949e-05
6.10927e-05
5.13417e-06
2.65928e-07
5.72322e-10
9.91376e-10
1.22898e-05
0.999999
1
1
1
1
1
1
1
1
1
1
1
1
1
1
1
1
1
1
1
1
1
1
1
1
1
1
1
1
1
1
0.999977
0.999878
0.99985
0.999906
0.999954
0.999985
0.999997
1
1
1
1
1
1
1
1
1
1
1
1
1
1
1
1
1
1
1
1
1
1
1
1
1
1
1
1
1
1
1
1
0.999999
0.999462
0.972989
0.774123
0.455313
0.260198
0.143556
0.0431773
0.0114871
0.00745203
0.0211281
0.0843704
0.97233
0.0124864
0.00172336
0.000737506
0.000733997
0.000701698
0.000539887
0.000602013
0.00157591
0.000664423
1.34338e-05
4.92555e-06
1.83336e-07
2.78135e-08
1.69664e-09
2.74296e-10
2.314e-07
0.0414739
1
1
1
1
1
1
1
1
1
1
1
1
1
1
1
1
1
1
1
1
1
1
1
1
1
1
1
1
1
1
0.999977
0.999879
0.99985
0.999906
0.999953
0.999985
0.999997
1
1
1
1
1
1
1
1
1
1
1
1
1
1
1
1
1
1
1
1
1
1
1
1
1
1
1
1
1
1
1
1
1
0.999734
0.981954
0.815109
0.495929
0.282425
0.165546
0.0530097
0.013503
0.00683282
0.0173969
0.0338162
0.0951494
0.00292294
0.000664632
0.000353709
0.000211346
0.000154821
5.65515e-05
3.17919e-05
1.11266e-05
5.56914e-06
1.49668e-06
7.21671e-07
2.20839e-07
5.73631e-08
2.35426e-08
1.73416e-10
7.88626e-09
0.000379384
1
1
1
1
1
1
1
1
1
1
1
1
1
1
1
1
1
1
1
1
1
1
1
1
1
1
1
1
1
1
0.999977
0.999879
0.99985
0.999905
0.999952
0.999985
0.999997
1
1
1
1
1
1
1
1
1
1
1
1
1
1
1
1
1
1
1
1
1
1
1
1
1
1
1
1
1
1
1
1
1
0.999873
0.988477
0.851637
0.538839
0.306092
0.180693
0.0642986
0.0160757
0.00654075
0.0123842
0.0226038
0.0568925
0.00185663
0.000568689
0.000389096
0.000317756
0.000235373
7.79197e-05
2.98923e-05
1.20003e-05
5.21629e-06
2.04556e-06
1.09285e-06
3.67322e-06
4.59096e-06
1.73396e-08
2.31789e-10
9.50288e-10
5.82698e-06
0.998052
1
1
1
1
1
1
1
1
1
1
1
1
1
1
1
1
1
1
1
1
1
1
1
1
1
1
1
1
1
0.999978
0.99988
0.99985
0.999906
0.999952
0.999985
0.999997
1
1
1
1
1
1
1
1
1
1
1
1
1
1
1
1
1
1
1
1
1
1
1
1
1
1
1
1
1
1
1
1
1
0.99994
0.992894
0.883672
0.581726
0.331308
0.195706
0.0766503
0.0193041
0.00657639
0.00880026
0.0159403
0.0455644
0.00289351
0.000689133
0.00171824
0.00284607
0.00171346
0.000933382
0.000190904
0.000113532
3.19229e-05
4.20978e-05
3.43138e-05
2.54873e-05
3.79182e-07
5.32835e-08
8.08155e-10
3.80329e-10
1.18131e-07
0.0257202
1
1
1
1
1
1
1
1
1
1
1
1
1
1
1
1
1
1
1
1
1
1
1
1
1
1
1
1
1
0.999969
0.999879
0.999849
0.999905
0.999952
0.999985
0.999997
1
1
1
1
1
1
1
1
1
1
1
1
1
1
1
1
1
1
1
1
1
1
1
1
1
1