/*--------------------------------*- C++ -*----------------------------------*\
| =========                 |                                                 |
| \\      /  F ield         | OpenFOAM: The Open Source CFD Toolbox           |
|  \\    /   O peration     | Version:  v2012                                 |
|   \\  /    A nd           | Website:  www.openfoam.com                      |
|    \\/     M anipulation  |                                                 |
\*---------------------------------------------------------------------------*/
FoamFile
{
    version     2.0;
    format      ascii;
    class       volScalarField;
    location    "13600";
    object      q3;
}
// * * * * * * * * * * * * * * * * * * * * * * * * * * * * * * * * * * * * * //

dimensions      [0 0 0 0 0 0 0];


internalField   nonuniform List<scalar> 
39402
(
0.00754187
0.00201736
0.0100224
0.00102724
0.00227313
0.0104727
0.000981899
0.0011322
0.00226465
0.0112226
0.0010394
0.00168813
0.0010924
0.00255959
0.0128235
0.00110272
0.00215943
0.00510949
0.00133688
0.00312751
0.0157813
0.00114842
0.00243575
0.00713469
0.0119099
0.00197326
0.00389965
0.0203119
0.00117851
0.00261664
0.00822066
0.0167189
0.022138
0.00296232
0.00481505
0.0265765
0.00119091
0.00272517
0.00891301
0.0193156
0.0308936
0.0355496
0.00425411
0.00584327
0.0348018
0.00119305
0.00277803
0.00933104
0.0209531
0.0356136
0.0487454
0.0513863
0.00581418
0.00698475
0.0453316
0.00118938
0.00279459
0.0095366
0.0219628
0.0385375
0.0556735
0.0683476
0.0685912
0.00760499
0.00826883
0.0586936
0.00118179
0.00279256
0.00961323
0.0224685
0.0403573
0.0598332
0.0767402
0.0875832
0.0864319
0.00962198
0.00975579
0.0753057
0.00117199
0.00277876
0.00961875
0.0226791
0.0412748
0.0624109
0.0815406
0.0961431
0.105166
0.105363
0.0119209
0.0115461
0.095917
0.00116051
0.0027629
0.00958603
0.0227115
0.0416842
0.0636931
0.0844737
0.100733
0.112576
0.122649
0.124968
0.0145855
0.0137542
0.121768
0.00114909
0.00274044
0.00953998
0.0226477
0.0417687
0.0642848
0.0859174
0.103474
0.116228
0.127666
0.139122
0.145336
0.0177613
0.0165548
0.154239
0.00113787
0.00271433
0.00945885
0.0225259
0.0416763
0.0644311
0.0865986
0.104812
0.118367
0.129805
0.140815
0.154549
0.166398
0.0216558
0.0202139
0.195022
0.00112678
0.00268779
0.00937033
0.0223355
0.0414705
0.0643254
0.0867793
0.105459
0.11939
0.131073
0.140949
0.152104
0.168819
0.186728
0.0263224
0.0251353
0.246204
0.00111581
0.00266105
0.00927853
0.0221464
0.0411461
0.0640952
0.0866788
0.105638
0.119868
0.131618
0.141018
0.149824
0.161847
0.181274
0.20234
0.0314544
0.0318917
0.310748
0.0011045
0.00263402
0.00918503
0.0219326
0.0408314
0.0636629
0.0864301
0.105534
0.119961
0.131818
0.140951
0.148451
0.156907
0.170238
0.191223
0.213569
0.0368135
0.0413635
0.392782
0.00109167
0.00260084
0.00908803
0.0217111
0.0404808
0.0632076
0.0859851
0.105271
0.119821
0.131714
0.14076
0.147681
0.153954
0.162758
0.178556
0.203957
0.230737
0.0418712
0.0548301
0.49757
0.00108056
0.00257228
0.00897734
0.0214825
0.0400921
0.0627219
0.0854798
0.104843
0.119575
0.131462
0.14045
0.146979
0.152319
0.158228
0.168212
0.187142
0.21804
0.249501
0.0461853
0.0741088
0.62809
0.00107209
0.00255541
0.00886853
0.0212416
0.0396859
0.0621838
0.084909
0.104377
0.119176
0.131123
0.140076
0.146407
0.151086
0.155566
0.16186
0.173632
0.196421
0.233421
0.27184
0.0497483
0.0991828
0.784578
0.00106058
0.00252763
0.00878984
0.0209961
0.0392588
0.0616469
0.0843004
0.103846
0.11874
0.130653
0.139672
0.145882
0.150201
0.153752
0.158
0.165236
0.179461
0.20686
0.249771
0.299758
0.0530835
0.131976
0.952611
0.00105063
0.00249642
0.00871112
0.0207952
0.0388143
0.061078
0.0837224
0.103283
0.118274
0.130146
0.139163
0.145388
0.149459
0.152499
0.155495
0.160075
0.168801
0.186168
0.218831
0.265931
0.335409
0.0582175
0.176162
1.11284
0.00104092
0.00247072
0.00859893
0.0206039
0.0384402
0.0604553
0.0831062
0.102718
0.117787
0.129612
0.138638
0.144849
0.148857
0.15152
0.153809
0.156784
0.162188
0.172987
0.194204
0.232621
0.279662
0.381307
0.0679454
0.234409
1.25441
0.00103185
0.0024346
0.00850662
0.0203397
0.038094
0.0599197
0.0824009
0.102087
0.117275
0.129073
0.138134
0.144304
0.148268
0.150756
0.152546
0.154567
0.157976
0.164711
0.178199
0.20405
0.248331
0.289906
0.439636
0.0853332
0.306558
1.3898
0.00102276
0.00241452
0.00839163
0.0201209
0.0376256
0.0594245
0.0817847
0.101404
0.116704
0.128547
0.1376
0.143812
0.147675
0.150065
0.151568
0.152952
0.155131
0.1594
0.167966
0.184822
0.216135
0.26583
0.31273
0.508786
0.11251
0.389319
1.52542
0.00101434
0.00239942
0.00830474
0.0198752
0.0372306
0.0588005
0.0812053
0.100836
0.116137
0.127979
0.137096
0.143325
0.147163
0.149417
0.150749
0.151724
0.153101
0.155817
0.161353
0.172301
0.193245
0.230755
0.284045
0.353408
0.5765
0.150388
0.481914
1.66148
0.00100547
0.00237117
0.00823378
0.019685
0.0368273
0.0582401
0.0805291
0.100293
0.115625
0.127399
0.136571
0.142812
0.14668
0.148844
0.150005
0.150693
0.151564
0.153261
0.156877
0.164092
0.177983
0.203883
0.247835
0.299857
0.410708
0.616386
0.198496
0.580928
1.79838
0.00099747
0.00234193
0.00815382
0.0195114
0.0365055
0.0576305
0.0799185
0.0996389
0.115164
0.126848
0.136025
0.142321
0.146213
0.148338
0.149356
0.149825
0.150291
0.151346
0.153686
0.158527
0.167898
0.185413
0.217102
0.26693
0.311315
0.493797
0.606428
0.255196
0.686211
1.93099
0.000989456
0.00231994
0.00806435
0.0192992
0.0361817
0.0571655
0.0792097
0.099072
0.114589
0.126354
0.135575
0.141888
0.145769
0.147864
0.148782
0.149071
0.149256
0.149806
0.151311
0.154572
0.161015
0.173033
0.195015
0.233175
0.286888
0.342181
0.614373
0.548642
0.319765
0.802858
2
0.000983108
0.0023012
0.00798688
0.0190733
0.0358082
0.0567278
0.0786652
0.0984047
0.114038
0.125772
0.135098
0.141454
0.14538
0.147452
0.14829
0.148415
0.148383
0.148549
0.149424
0.151643
0.156117
0.164519
0.179778
0.207071
0.252101
0.305137
0.396174
0.774519
0.461616
0.392559
0.926494
2
0.000976029
0.00228347
0.00791599
0.0188923
0.0354077
0.0562677
0.0781953
0.0978649
0.113469
0.125196
0.134621
0.14105
0.144996
0.147086
0.14788
0.147878
0.147607
0.147492
0.147888
0.149325
0.152477
0.158469
0.169256
0.188571
0.22207
0.273088
0.319056
0.477071
0.939514
0.379496
0.472217
1.04701
2
0.000968416
0.00226646
0.00785398
0.0187367
0.0350814
0.0557324
0.0776551
0.0973603
0.113028
0.124664
0.134136
0.140682
0.14464
0.146709
0.147504
0.147432
0.146968
0.14658
0.146619
0.147462
0.149647
0.154006
0.161821
0.175618
0.199776
0.240195
0.294316
0.346544
0.603662
1.02912
0.346449
0.556986
1.16248
2
0.000961738
0.00225348
0.00779052
0.0186078
0.0347987
0.0552649
0.0770248
0.0967686
0.112534
0.124247
0.133656
0.140268
0.144322
0.146358
0.147139
0.14705
0.146459
0.145824
0.145552
0.145936
0.147411
0.150562
0.156336
0.166432
0.183906
0.213885
0.260963
0.311956
0.403121
0.798082
0.954899
0.362789
0.636079
1.27272
2
0.000955878
0.0022342
0.00773521
0.0184555
0.0345878
0.0548568
0.0765131
0.0961826
0.111989
0.123796
0.133301
0.139843
0.143993
0.146117
0.146815
0.14669
0.146038
0.145208
0.144655
0.144664
0.145574
0.147836
0.152162
0.159669
0.172524
0.194514
0.231177
0.283003
0.324457
0.489611
1.05857
0.75841
0.408649
0.714357
1.38383
2
0.000950878
0.00221729
0.00766993
0.0183199
0.0343158
0.0545472
0.0760344
0.0957127
0.111503
0.123279
0.132912
0.139571
0.143622
0.145831
0.146574
0.146326
0.145646
0.144726
0.143916
0.143601
0.144041
0.145631
0.148861
0.154578
0.164252
0.180526
0.20799
0.251645
0.303713
0.363934
0.629047
1.27139
0.567006
0.468762
0.791724
1.48466
2
0.000945762
0.00219566
0.00761269
0.0181707
0.0340684
0.0541219
0.0756686
0.0952338
0.111085
0.122818
0.132511
0.139275
0.143387
0.145517
0.146321
0.146082
0.145236
0.144276
0.143336
0.142715
0.142756
0.143799
0.146192
0.150595
0.157989
0.170275
0.190831
0.224758
0.274356
0.319823
0.429277
0.855353
1.29544
0.456643
0.536283
0.873172
1.5835
2
0.000939755
0.00217853
0.007555
0.0180418
0.0338336
0.0537641
0.075202
0.0948626
0.110701
0.122459
0.13206
0.138897
0.143179
0.145304
0.146029
0.145826
0.144968
0.143823
0.142814
0.142016
0.1417
0.14226
0.14399
0.147376
0.153155
0.162591
0.178133
0.203883
0.244856
0.296807
0.340393
0.53152
1.17087
1.08001
0.428914
0.606704
0.963891
1.68821
2
0.000933412
0.00216562
0.00750183
0.017924
0.033603
0.0534647
0.0747879
0.0944399
0.110411
0.122184
0.131717
0.138574
0.1429
0.145142
0.145867
0.145586
0.144729
0.143519
0.142281
0.141399
0.140858
0.140993
0.142183
0.144744
0.149301
0.156707
0.168646
0.188273
0.220246
0.267566
0.314538
0.394179
0.699397
1.45827
0.777953
0.453513
0.671466
1.0697
1.79678
2
0.000928579
0.00215359
0.0074604
0.0178194
0.0333999
0.0531372
0.074387
0.0940786
0.110035
0.121957
0.131466
0.138305
0.142655
0.14495
0.145735
0.145418
0.144454
0.143227
0.141898
0.140777
0.140104
0.13997
0.140669
0.142578
0.146143
0.152024
0.161453
0.176522
0.201126
0.240065
0.290591
0.326726
0.474408
0.971233
1.51216
0.571656
0.502533
0.748197
1.16734
1.92785
2
0.000925314
0.00214073
0.00741832
0.0177252
0.0332144
0.0528467
0.0740426
0.0936688
0.109776
0.121674
0.131123
0.138056
0.142401
0.144772
0.145557
0.145291
0.144281
0.142936
0.141561
0.140292
0.139388
0.139056
0.13942
0.140752
0.143522
0.148224
0.155752
0.167628
0.186666
0.217309
0.262773
0.309858
0.372819
0.602802
1.33566
1.26848
0.481268
0.564384
0.826978
1.26332
2
2
0.000921976
0.00213201
0.00737703
0.0176309
0.0330517
0.0525865
0.0737427
0.0933735
0.109454
0.121476
0.13092
0.13783
0.142193
0.144552
0.145375
0.145117
0.144181
0.142757
0.141253
0.139885
0.138803
0.138212
0.138335
0.139254
0.141365
0.145133
0.151182
0.160734
0.175648
0.199569
0.237045
0.286329
0.324212
0.441356
0.819111
1.63524
0.914358
0.473688
0.624366
0.905389
1.36003
2
2
0.000917804
0.00212089
0.0073485
0.0175388
0.0328841
0.0523519
0.0734279
0.0930651
0.109131
0.121185
0.130765
0.137623
0.142032
0.144438
0.145237
0.144962
0.14399
0.142608
0.141007
0.139523
0.138304
0.137517
0.137333
0.137963
0.139579
0.142578
0.147471
0.155177
0.167132
0.185924
0.215751
0.259893
0.306868
0.359991
0.547098
1.15118
1.64106
0.654751
0.506336
0.685586
0.98522
1.46182
2
2
0.000913678
0.002108
0.00731339
0.0174785
0.0327293
0.0521552
0.0731592
0.0927368
0.108787
0.120983
0.130492
0.137579
0.141892
0.144287
0.145162
0.14484
0.143837
0.142409
0.140813
0.139237
0.137857
0.136922
0.136515
0.136814
0.138017
0.140421
0.144409
0.150692
0.160402
0.175346
0.198969
0.235565
0.283908
0.322307
0.422029
0.723553
1.55181
1.33588
0.529782
0.554151
0.75108
1.07182
1.56801
2
2
0.000909616
0.00209849
0.0072681
0.0173875
0.0326274
0.0519728
0.0729354
0.0925253
0.108532
0.120645
0.130289
0.137323
0.141843
0.144156
0.145055
0.14476
0.143739
0.142267
0.140621
0.138984
0.137499
0.136377
0.13584
0.135914
0.136718
0.138596
0.14184
0.147027
0.154974
0.16711
0.185925
0.215437
0.258622
0.305087
0.352629
0.514941
1.01242
1.8029
0.952293
0.503952
0.603641
0.82496
1.16468
1.68842
2
2
0.000905465
0.00209099
0.00724151
0.0172889
0.0325017
0.0518354
0.0727249
0.0922628
0.108409
0.120423
0.130031
0.137106
0.141685
0.14417
0.144986
0.144693
0.143687
0.142173
0.140458
0.138765
0.137215
0.13595
0.135229
0.135196
0.135791
0.137096
0.139695
0.143973
0.150547
0.160498
0.175681
0.199334
0.235556
0.282943
0.321033
0.411317
0.666395
1.41503
1.69315
0.681519
0.523412
0.659482
0.902818
1.26872
1.83414
2
2
0.000901905
0.00208067
0.00722032
0.0172472
0.0323532
0.0516949
0.0726104
0.092046
0.108239
0.120335
0.129772
0.136911
0.141526
0.144051
0.144983
0.144651
0.143634
0.142121
0.14036
0.138584
0.13696
0.135626
0.134761
0.134571
0.134936
0.135972
0.137869
0.141378
0.146892
0.155146
0.167569
0.186591
0.216204
0.258898
0.304315
0.349086
0.497278
0.920233
1.80492
1.31079
0.550953
0.562819
0.722596
0.989899
1.38437
1.96927
2
2
0.000899503
0.00207191
0.00718871
0.0172052
0.0322921
0.0515207
0.0724934
0.0919886
0.108099
0.120278
0.129725
0.136741
0.141336
0.143967
0.144888
0.144699
0.14358
0.142038
0.140264
0.138434
0.13672
0.135319
0.134432
0.134072
0.134202
0.134969
0.136527
0.139162
0.143789
0.15072
0.161016
0.176559
0.200502
0.236785
0.283395
0.320414
0.406279
0.633788
1.30478
1.90589
0.917133
0.524223
0.611151
0.793399
1.08768
1.49859
2
2
2
0.000898002
0.00206698
0.00716287
0.0171555
0.0322312
0.0514498
0.0722916
0.0918666
0.107983
0.120141
0.129607
0.136722
0.141201
0.143837
0.14486
0.144646
0.143644
0.141997
0.140154
0.138314
0.136535
0.135049
0.134104
0.133681
0.133614
0.13411
0.135342
0.137498
0.141152
0.147033
0.155641
0.168479
0.18802
0.217961
0.260561
0.304673
0.348702
0.488603
0.866235
1.75085
1.61496
0.665594
0.546156
0.665819
0.878582
1.18942
1.60754
2
2
2
0.000896183
0.00206249
0.00715074
0.017117
0.0321514
0.0513725
0.0722169
0.0916659
0.10782
0.120045
0.129504
0.136734
0.14124
0.143749
0.144783
0.14459
0.143618
0.142071
0.140109
0.138179
0.136406
0.134846
0.13385
0.133307
0.133131
0.133403
0.134332
0.136083
0.138953
0.143897
0.151195
0.1619
0.178028
0.202591
0.239247
0.285192
0.320556
0.4058
0.617236
1.23345
2
1.16773
0.560122
0.58776
0.729526
0.968918
1.29747
1.72255
2
2
2
0.000893624
0.00205772
0.00714447
0.0170981
0.0320947
0.0512383
0.0721447
0.0916045
0.107687
0.119937
0.129404
0.136586
0.141331
0.143818
0.144719
0.144515
0.143571
0.142023
0.140159
0.138084
0.136247
0.134701
0.133634
0.132997
0.132681
0.132816
0.133481
0.134885
0.137263
0.141133
0.147496
0.156559
0.169878
0.190137
0.220771
0.263575
0.305993
0.351227
0.487148
0.837489
1.70033
1.84126
0.813877
0.548915
0.63875
0.804327
1.06595
1.41205
1.85117
2
2
2
0.000890243
0.00205213
0.00713599
0.0170763
0.0321003
0.0511303
0.07199
0.0915987
0.107703
0.119825
0.12937
0.136516
0.141243
0.143913
0.144803
0.144509
0.143466
0.141979
0.140123
0.138137
0.136128
0.134517
0.133462
0.132728
0.132306
0.132271
0.132769
0.133876
0.135832
0.138955
0.14418
0.152087
0.163341
0.180074
0.205504
0.242883
0.288129
0.321454
0.409479
0.613288
1.19449
2
1.39104
0.625134
0.579469
0.697958
0.886872
1.16952
1.53119
1.98349
2
2
2
0.000886724
0.002045
0.00711713
0.0170515
0.0320696
0.0511888
0.0719182
0.0915072
0.107723
0.119914
0.129179
0.136448
0.141168
0.14383
0.144887
0.144607
0.143435
0.141892
0.140054
0.138088
0.136123
0.134406
0.133287
0.13252
0.131989
0.131815
0.132118
0.133016
0.134619
0.137244
0.141425
0.148178
0.157908
0.171904
0.192982
0.224682
0.267823
0.307972
0.356413
0.49206
0.83001
1.67229
1.99778
0.965159
0.568892
0.627377
0.765296
0.981261
1.28185
1.64184
2
2
2
2
0.00088345
0.0020342
0.00709198
0.0170303
0.0320126
0.0511944
0.0720131
0.0914451
0.107709
0.119965
0.129272
0.136336
0.141095
0.143727
0.144846
0.144669
0.143555
0.141835
0.139961
0.138004
0.136043
0.134372
0.133186
0.132296
0.131739
0.131428
0.131568
0.132247
0.1336
0.135789
0.139184
0.144826
0.15323
0.165242
0.182842
0.20925
0.247601
0.292003
0.322622
0.416909
0.619863
1.18657
2
1.57041
0.702878
0.582662
0.682901
0.83881
1.08325
1.39794
1.75317
2
2
2
2
0.000880645
0.00202522
0.00706342
0.0169965
0.0320117
0.0511203
0.0720244
0.0915596
0.107656
0.119971
0.129425
0.13645
0.141102
0.143701
0.144763
0.144678
0.14366
0.141926
0.139938
0.13791
0.135979
0.13428
0.133178
0.132147
0.131474
0.131127
0.131106
0.131594
0.132689
0.134567
0.137444
0.141965
0.149238
0.159597
0.174538
0.196664
0.22945
0.272764
0.31046
0.364191
0.502472
0.84085
1.67521
2
1.09821
0.600097
0.624816
0.744261
0.925624
1.19468
1.51912
1.87316
2
2
2
2
0.000878516
0.00202141
0.00704068
0.0169235
0.0319952
0.0511384
0.0719875
0.0915701
0.107714
0.119971
0.129411
0.136574
0.141169
0.143771
0.144753
0.144636
0.143634
0.142047
0.140028
0.137891
0.135912
0.134229
0.133092
0.1321
0.131279
0.130814
0.130738
0.131043
0.131913
0.133483
0.135978
0.139664
0.145802
0.154804
0.167587
0.186319
0.214073
0.253254
0.295923
0.32505
0.427905
0.635864
1.20576
2
1.70707
0.777686
0.59414
0.678707
0.815721
1.02676
1.30765
1.63255
2
2
2
2
2
0.000876963
0.00202035
0.00703483
0.0168785
0.0318478
0.0511312
0.0720299
0.0915913
0.107713
0.120034
0.129423
0.136639
0.141294
0.14384
0.144746
0.144578
0.143564
0.142062
0.140114
0.137973
0.135869
0.134179
0.133024
0.132005
0.131189
0.130586
0.130358
0.130584
0.131251
0.132558
0.134686
0.1379
0.142873
0.150709
0.161776
0.177664
0.201252
0.235495
0.278432
0.313435
0.374706
0.518163
0.868254
1.70909
2
1.20252
0.634214
0.630113
0.741433
0.900039
1.13134
1.43192
1.74063
2
2
2
2
2
0.000876155
0.0020148
0.00702675
0.0168722
0.03178
0.0509659
0.0720524
0.0916589
0.107798
0.12006
0.129495
0.136625
0.141386
0.143908
0.144846
0.144556
0.143524
0.142004
0.140153
0.13803
0.13592
0.134122
0.132928
0.131909
0.131059
0.130445
0.130069
0.130123
0.130684
0.131762
0.133578
0.136363
0.140449
0.147177
0.156844
0.17049
0.190439
0.220027
0.260229
0.300573
0.335062
0.442752
0.661235
1.24995
2
1.79897
0.840053
0.609395
0.683142
0.81113
0.985761
1.25076
1.54723
1.85304
2
2
2
2
2
0.000875148
0.00201279
0.00700733
0.0168608
0.0317758
0.0508847
0.0718613
0.0917129
0.107879
0.120145
0.129519
0.136688
0.141356
0.144019
0.14496
0.144685
0.143572
0.141947
0.140105
0.138048
0.135969
0.134192
0.132866
0.131796
0.130933
0.130271
0.129884
0.129774
0.130153
0.13108
0.132626
0.135045
0.138582
0.144129
0.152633
0.164497
0.181541
0.206631
0.24276
0.285365
0.31733
0.388592
0.539805
0.912196
1.77327
2
1.27175
0.665777
0.640271
0.745718
0.884581
1.0941
1.36755
1.67204
1.97797
2
2
2
2
2
0.000873864
0.0020116
0.00701227
0.0168388
0.0317688
0.0508935
0.0717721
0.0915194
0.107967
0.120245
0.129604
0.136682
0.141405
0.144045
0.145047
0.144833
0.143723
0.142004
0.14005
0.137994
0.13595
0.134267
0.132935
0.131732
0.130809
0.130122
0.12967
0.12953
0.129728
0.130456
0.131803
0.133893
0.136998
0.141544
0.148953
0.159409
0.174108
0.195563
0.226798
0.268269
0.305829
0.347637
0.462113
0.697614
1.31919
2
1.85328
0.883103
0.62742
0.693284
0.813271
0.971751
1.20623
1.50065
1.77225
2
2
2
2
2
2
0.000872204
0.00201002
0.00701258
0.01686
0.0317689
0.0508964
0.0718078
0.0913801
0.107847
0.120353
0.129717
0.136774
0.141394
0.144058
0.145098
0.144891
0.143834
0.142172
0.140071
0.137971
0.135915
0.134234
0.133028
0.131783
0.130737
0.129964
0.129492
0.129259
0.129406
0.129943
0.131057
0.132903
0.135614
0.139529
0.145745
0.155018
0.167894
0.186283
0.213244
0.250762
0.292526
0.321183
0.406034
0.568639
0.97509
1.86807
2
1.30659
0.691363
0.655179
0.755322
0.889356
1.0694
1.33322
1.62098
1.88341
2
2
2
2
2
2
0.00087049
0.00200893
0.0070119
0.0168679
0.0318167
0.0509067
0.07182
0.0914309
0.107721
0.120245
0.129847
0.13698
0.141479
0.144073
0.145167
0.144935
0.143886
0.142263
0.14018
0.137978
0.135903
0.134206
0.132977
0.131847
0.130761
0.129863
0.129293
0.129025
0.129077
0.129528
0.130444
0.132009
0.134431
0.137877
0.143078
0.151194
0.162529
0.178523
0.201739
0.235028
0.276449
0.31103
0.363349
0.486461
0.747454
1.41693
2
1.87141
0.904217
0.645927
0.707314
0.82359
0.974074
1.18249
1.45848
1.73798
2
2
2
2
2
2
2
0.000868766
0.00201241
0.00701934
0.0168746
0.0318388
0.050987
0.0718442
0.0915256
0.107863
0.120199
0.129755
0.137111
0.141687
0.144117
0.145124
0.145019
0.143886
0.142312
0.14027
0.138031
0.135903
0.134228
0.132948
0.131809
0.130785
0.12985
0.129152
0.128793
0.12878
0.129128
0.129933
0.131267
0.133359
0.136457
0.140771
0.147828
0.157911
0.171909
0.191975
0.221091
0.260205
0.299061
0.329813
0.427954
0.605973
1.0606
1.99373
2
1.30804
0.708099
0.671279
0.768947
0.897481
1.06382
1.30852
1.58929
1.83829
2
2
2
2
2
2
2
0.000866935
0.00200799
0.00702982
0.0168956
0.0318628
0.0510297
0.0719425
0.0915463
0.108036
0.120342
0.129711
0.137036
0.141859
0.144288
0.145123
0.144958
0.14399
0.142342
0.140371
0.138146
0.135986
0.13426
0.132957
0.131744
0.130723
0.129846
0.129105
0.12862
0.128503
0.128771
0.129436
0.130646
0.132467
0.13518
0.139061
0.144953
0.153855
0.166259
0.183766
0.20907
0.244497
0.285673
0.316184
0.382644
0.517331
0.813727
1.54698
2
1.85512
0.906655
0.662957
0.723984
0.83821
0.979431
1.17634
1.43815
1.71877
1.94841
2
2
2
2
2
2
2
0.000865004
0.00199677
0.0070161
0.016922
0.0319078
0.0511207
0.0720646
0.0916563
0.108052
0.120545
0.129808
0.137078
0.141791
0.144511
0.145284
0.144977
0.143969
0.142364
0.140409
0.138241
0.13611
0.134348
0.132964
0.131726
0.130645
0.129784
0.129081
0.128544
0.128292
0.128438
0.129012
0.130059
0.131716
0.134107
0.137534
0.142525
0.150377
0.161357
0.176774
0.198794
0.230199
0.270399
0.306066
0.346795
0.454713
0.655572
1.17285
2
2
1.28213
0.71866
0.690318
0.787978
0.915142
1.07294
1.29804
1.58012
1.82088
2
2
2
2
2
2
2
2
0.000863119
0.00198606
0.00698304
0.0168932
0.0319571
0.0511482
0.0721849
0.0918531
0.108075
0.120512
0.129933
0.137181
0.141827
0.144536
0.145513
0.145073
0.143918
0.142311
0.140397
0.138248
0.136167
0.134448
0.133019
0.131743
0.13061
0.129698
0.129
0.128494
0.128176
0.128177
0.128615
0.129553
0.131014
0.133188
0.136235
0.140523
0.147323
0.157188
0.170758
0.190004
0.217617
0.254938
0.294323
0.321504
0.406044
0.556019
0.90212
1.71355
2
1.80471
0.894322
0.680266
0.745322
0.860632
0.999657
1.17858
1.43569
1.70531
1.92415
2
2
2
2
2
2
2
2
0.000861376
0.00198293
0.00694609
0.0168251
0.0319124
0.0511767
0.0721729
0.0920012
0.108204
0.12053
0.129924
0.137331
0.142027
0.14449
0.145564
0.145266
0.14404
0.142262
0.14034
0.138274
0.136186
0.134516
0.133115
0.131788
0.130637
0.129647
0.128893
0.128378
0.128093
0.128015
0.128292
0.129074
0.130399
0.132337
0.13512
0.138947
0.14473
0.153506
0.165646
0.182574
0.206777
0.240614
0.280901
0.312587
0.367643
0.486997
0.721832
1.31825
2
2
1.23091
0.723952
0.711294
0.811604
0.938086
1.09403
1.30008
1.57059
1.82545
2
2
2
2
2
2
2
2
2
0.000859707
0.00198045
0.00693634
0.0167442
0.0317993
0.051122
0.0722205
0.091992
0.108428
0.120644
0.129946
0.137262
0.142116
0.144661
0.145587
0.145346
0.144266
0.142406
0.140309
0.138229
0.136223
0.13455
0.133173
0.131868
0.130685
0.12965
0.128834
0.128239
0.127936
0.127887
0.128073
0.128679
0.129823
0.131598
0.13411
0.137597
0.142546
0.150327
0.161183
0.176255
0.197446
0.227705
0.266519
0.30266
0.336656
0.435064
0.604962
1.01966
1.91757
2
1.71589
0.869381
0.697175
0.767998
0.884654
1.02282
1.19329
1.43997
1.70769
1.92396
2
2
2
2
2
2
2
2
2
0.000858148
0.00197616
0.00692539
0.0167211
0.0316614
0.0510148
0.07216
0.092057
0.108498
0.120851
0.130081
0.137258
0.142101
0.144802
0.14573
0.1454
0.14431
0.142631
0.140416
0.138181
0.136174
0.134585
0.133205
0.131944
0.130752
0.129702
0.128821
0.128169
0.127773
0.127696
0.127882
0.12839
0.129349
0.130916
0.133215
0.136381
0.140733
0.147524
0.157341
0.170718
0.18956
0.216264
0.252393
0.291308
0.319059
0.393095
0.527519
0.810269
1.50462
2
2
1.15899
0.726365
0.734052
0.836417
0.964365
1.11614
1.31922
1.57674
1.83912
2
2
2
2
2
2
2
2
2
2
0.000856686
0.00197182
0.00691025
0.0166947
0.0316211
0.0508647
0.0720976
0.0920725
0.108582
0.121013
0.1303
0.137393
0.142125
0.144761
0.145879
0.14558
0.144392
0.142688
0.140604
0.138243
0.136115
0.134578
0.133234
0.131975
0.130815
0.129748
0.128842
0.128125
0.12767
0.127503
0.127657
0.128139
0.128988
0.130335
0.132404
0.135308
0.139259
0.145105
0.153867
0.165945
0.182686
0.206383
0.239279
0.278626
0.310569
0.359297
0.470027
0.670341
1.17396
2
2
1.59428
0.839333
0.716071
0.79507
0.913038
1.05371
1.22288
1.45499
1.7329
1.93427
2
2
2
2
2
2
2
2
2
2
0.000855328
0.00196815
0.00688515
0.0166793
0.0315746
0.0508167
0.0719843
0.0920269
0.108617
0.121175
0.130438
0.137571
0.142213
0.144752
0.14583
0.145717
0.144576
0.142736
0.140644
0.138427
0.136184
0.134612
0.133235
0.13199
0.130835
0.12978
0.128885
0.128119
0.127609
0.127374
0.127438
0.127858
0.128672
0.129886
0.131693
0.134332
0.137967
0.143027
0.150862
0.161785
0.176748
0.197835
0.227391
0.265403
0.301103
0.331605
0.424539
0.578331
0.929432
1.74055
2
2
1.07596
0.731303
0.76107
0.867921
0.998969
1.14914
1.34263
1.60338
1.84914
2
2
2
2
2
2
2
2
2
2
2
0.000854019
0.00196456
0.00687155
0.0166208
0.0315455
0.0507501
0.0718734
0.0918423
0.10858
0.121141
0.130608
0.137684
0.142373
0.144802
0.145723
0.14568
0.1447
0.142927
0.140727
0.138483
0.136375
0.134728
0.13329
0.131969
0.130823
0.129781
0.128897
0.128152
0.127586
0.127289
0.127274
0.127592
0.128326
0.12949
0.131139
0.13349
0.136799
0.1413
0.148202
0.158107
0.171663
0.190412
0.216877
0.25235
0.290613
0.31815
0.387065
0.513466
0.760033
1.3736
2
2
1.44923
0.810638
0.738918
0.826838
0.948544
1.08726
1.25865
1.48006
1.74461
1.96438
2
2
2
2
2
2
2
2
2
2
2
0.000852764
0.00196514
0.00686839
0.0165709
0.0314784
0.050662
0.0717464
0.0918089
0.108409
0.121132
0.130589
0.137861
0.142497
0.144917
0.145736
0.145588
0.144642
0.143049
0.140887
0.138587
0.136431
0.134871
0.133387
0.131996
0.130793
0.129761
0.12887
0.128159
0.127587
0.127229
0.127158
0.127385
0.128002
0.129075
0.130644
0.132806
0.135789
0.139899
0.145955
0.154873
0.167152
0.184032
0.207677
0.240162
0.278844
0.310218
0.356434
0.462895
0.645613
1.09142
2
2
1.93007
0.989734
0.740549
0.791753
0.901975
1.03359
1.18658
1.37564
1.62881
1.89502
2
2
2
2
2
2
2
2
2
2
2
2
0.000851426
0.00195841
0.00686773
0.0165794
0.031386
0.0505636
0.0716435
0.0917607
0.108406
0.121055
0.130579
0.137835
0.142632
0.145021
0.145837
0.145581
0.144567
0.142969
0.140997
0.138722
0.13651
0.134892
0.1335
0.13209
0.13082
0.12974
0.128847
0.128129
0.127583
0.127208
0.127069
0.12723
0.127743
0.12869
0.130146
0.132195
0.134942
0.138673
0.143974
0.152044
0.163237
0.178434
0.199597
0.229169
0.266466
0.301369
0.330999
0.421634
0.567886
0.884344
1.63369
2
2
1.29119
0.787595
0.765482
0.860731
0.983823
1.12629
1.29164
1.51772
1.78485
1.99566
2
2
2
2
2
2
2
2
2
2
2
2
0.00085027
0.001952
0.00684587
0.0165755
0.0313671
0.050485
0.0715279
0.0916603
0.108373
0.120999
0.130531
0.13785
0.142633
0.145223
0.145911
0.145633
0.144518
0.142888
0.140948
0.138774
0.136608
0.13494
0.133532
0.132204
0.130901
0.129778
0.128818
0.128101
0.127543
0.127186
0.127006
0.127113
0.12754
0.128376
0.129679
0.131582
0.134188
0.137636
0.142276
0.14961
0.15979
0.173597
0.192655
0.219271
0.254534
0.291573
0.318459
0.387091
0.51047
0.739635
1.30733
2
2
1.70878
0.910751
0.755504
0.825267
0.939198
1.07326
1.22835
1.42569
1.671
1.92495
2
2
2
2
2
2
2
2
2
2
2
2
2
0.000849134
0.00195203
0.00682521
0.0165061
0.0313542
0.0504508
0.0714314
0.0915478
0.108293
0.120913
0.130543
0.13782
0.142643
0.145276
0.146156
0.14569
0.144554
0.142849
0.14083
0.138749
0.136663
0.135022
0.133589
0.13226
0.131015
0.129855
0.12882
0.128057
0.127495
0.127119
0.12695
0.127019
0.127379
0.128123
0.129305
0.131027
0.133446
0.136704
0.140988
0.147395
0.156735
0.169361
0.186654
0.210654
0.243234
0.281073
0.311142
0.358559
0.464145
0.63991
1.05799
1.95918
2
2
1.13698
0.776436
0.796581
0.899165
1.02537
1.17364
1.34395
1.56093
1.82898
2
2
2
2
2
2
2
2
2
2
2
2
2
2
0.000848132
0.00195012
0.00682436
0.0164634
0.0312349
0.0504351
0.0714616
0.0914512
0.10819
0.120913
0.130555
0.137875
0.142628
0.145299
0.146259
0.145852
0.144581
0.142832
0.140758
0.138658
0.136636
0.135072
0.133672
0.132324
0.131072
0.12996
0.128907
0.128031
0.127428
0.127044
0.126864
0.126931
0.127252
0.127912
0.128991
0.130564
0.132788
0.135821
0.139853
0.145512
0.154062
0.165593
0.181353
0.203122
0.232939
0.269794
0.303236
0.334674
0.425652
0.57009
0.873389
1.59457
2
2
1.47635
0.85107
0.778738
0.863628
0.982315
1.12292
1.27907
1.46671
1.72027
1.97021
2
2
2
2
2
2
2
2
2
2
2
2
2
2
0.000847222
0.00194864
0.00681706
0.016463
0.0311664
0.0502607
0.0715109
0.0914306
0.108189
0.120841
0.130609
0.137907
0.142698
0.145297
0.146296
0.145963
0.144699
0.142826
0.14076
0.138557
0.136579
0.135033
0.133697
0.132378
0.131135
0.129995
0.129017
0.128097
0.127402
0.126955
0.126768
0.126821
0.12714
0.127737
0.128722
0.130183
0.132232
0.135037
0.138792
0.143796
0.151586
0.162293
0.176656
0.196486
0.223777
0.258942
0.294347
0.320163
0.393037
0.517133
0.742203
1.29569
2
2
1.90988
1.00523
0.780307
0.833044
0.942472
1.0737
1.22133
1.39744
1.61314
1.87632
2
2
2
2
2
2
2
2
2
2
2
2
2
2
2
0.000846411
0.0019469
0.00681206
0.0164476
0.0311685
0.0501615
0.0712928
0.0914204
0.108178
0.120852
0.13051
0.137927
0.142727
0.145373
0.146296
0.146048
0.144787
0.142971
0.140774
0.138588
0.136522
0.134998
0.133664
0.132385
0.131189
0.13003
0.129048
0.128214
0.127451
0.12692
0.126679
0.1267
0.126996
0.127574
0.128494
0.129839
0.131754
0.134355
0.137841
0.142465
0.149421
0.159308
0.172561
0.190671
0.215579
0.248651
0.285418
0.313619
0.365832
0.473573
0.650035
1.06542
1.96404
2
2
1.25558
0.816048
0.809618
0.906276
1.02892
1.16949
1.33226
1.52213
1.77598
2
2
2
2
2
2
2
2
2
2
2
2
2
2
2
2
0.000845703
0.00194485
0.00680548
0.0164339
0.0311401
0.0501628
0.0711558
0.091257
0.108107
0.12094
0.130439
0.13795
0.142787
0.145488
0.146378
0.146057
0.14488
0.143074
0.140876
0.138634
0.136565
0.13503
0.133614
0.132361
0.131192
0.130079
0.129062
0.128236
0.127547
0.126962
0.126631
0.12659
0.126846
0.127396
0.128284
0.129551
0.131335
0.133767
0.137014
0.141311
0.147608
0.156642
0.168934
0.185525
0.208295
0.23902
0.27558
0.306665
0.342844
0.436987
0.584348
0.892398
1.61958
2
2
1.60352
0.905777
0.797655
0.874136
0.988697
1.12249
1.2752
1.4484
1.67765
1.94563
2
2
2
2
2
2
2
2
2
2
2
2
2
2
2
2
0.000845076
0.00194312
0.00679908
0.016419
0.0311141
0.0501197
0.0711512
0.0911407
0.107945
0.120873
0.130467
0.137907
0.142819
0.145554
0.1465
0.14619
0.144943
0.143106
0.141017
0.138727
0.136684
0.135129
0.133625
0.132316
0.131151
0.130103
0.129084
0.128243
0.12756
0.12704
0.126649
0.126513
0.126697
0.127205
0.128047
0.129277
0.130959
0.133248
0.136295
0.140319
0.146011
0.154311
0.165658
0.180937
0.201818
0.230172
0.265552
0.299104
0.32326
0.40542
0.534114
0.767185
1.336
2
2
2
1.06963
0.805529
0.846893
0.952631
1.07969
1.22452
1.38967
1.59368
1.84552
2
2
2
2
2
2
2
2
2
2
2
2
2
2
2
2
2
0.000844514
0.00194234
0.00679389
0.0164044
0.0310848
0.0500814
0.0710929
0.0911043
0.10784
0.120646
0.130406
0.137832
0.142777
0.14552
0.146575
0.146332
0.145083
0.143186
0.141034
0.138817
0.136813
0.135236
0.133736
0.132307
0.13111
0.130062
0.129102
0.128259
0.127558
0.127036
0.126702
0.126501
0.126597
0.127033
0.127827
0.129002
0.130634
0.132788
0.135649
0.139428
0.144624
0.152312
0.162731
0.17688
0.196087
0.222271
0.256024
0.290964
0.317142
0.378482
0.492069
0.677528
1.11493
2
2
2
1.31961
0.84667
0.826623
0.919701
1.04036
1.17801
1.33797
1.52237
1.74906
2
2
2
2
2
2
2
2
2
2
2
2
2
2
2
2
2
2