/*--------------------------------*- C++ -*----------------------------------*\
| =========                 |                                                 |
| \\      /  F ield         | OpenFOAM: The Open Source CFD Toolbox           |
|  \\    /   O peration     | Version:  v2012                                 |
|   \\  /    A nd           | Website:  www.openfoam.com                      |
|    \\/     M anipulation  |                                                 |
\*---------------------------------------------------------------------------*/
FoamFile
{
    version     2.0;
    format      ascii;
    class       volScalarField;
    location    "13600";
    object      Res;
}
// * * * * * * * * * * * * * * * * * * * * * * * * * * * * * * * * * * * * * //

dimensions      [0 0 0 0 0 0 0];


internalField   nonuniform List<scalar> 
39402
(
0.707998
0.382573
0.999986
0.206293
0.994558
1
0.196609
0.919956
0.999997
1
0.206501
0.911253
0.999079
1
1
0.218113
0.923176
0.99893
0.999997
1
1
0.226538
0.935723
0.999277
0.999997
1
1
1
0.232128
0.943786
0.999549
0.999999
1
1
1
1
0.23445
0.948649
0.999682
0.999999
1
1
1
1
1
0.234895
0.951128
0.999751
1
1
1
1
1
1
1
0.234263
0.95176
0.999781
1
1
1
1
1
1
1
1
0.232895
0.951642
0.999791
1
1
1
1
1
1
1
1
1
0.23111
0.950877
0.999791
1
1
1
1
1
1
1
1
1
1
0.229009
0.950396
0.999787
1
1
1
1
1
1
1
1
1
1
1
0.226906
0.949573
0.999784
1
1
1
1
1
1
1
1
1
1
1
1
0.224839
0.948169
0.999773
1
1
1
1
1
1
1
1
1
1
1
1
1
0.222788
0.946702
0.999757
1
1
1
1
1
1
1
1
1
1
1
1
1
1
0.220755
0.945219
0.99974
1
1
1
1
1
1
1
1
1
1
1
1
1
1
1
0.218654
0.943655
0.999721
1
1
1
1
1
1
1
1
1
1
1
1
1
1
1
1
0.216267
0.941226
0.9997
1
1
1
1
1
1
1
1
1
1
1
1
1
1
1
1
1
0.214192
0.939897
0.999671
1
1
1
1
1
1
1
1
1
1
1
1
1
1
1
1
1
1
0.212608
0.939803
0.999647
1
1
1
1
1
1
1
1
1
1
1
1
1
1
1
1
1
1
1
0.210455
0.937341
0.999634
1
1
1
1
1
1
1
1
1
1
1
1
1
1
1
1
1
1
1
1
0.208592
0.935226
0.99961
1
1
1
1
1
1
1
1
1
1
1
1
1
1
1
1
1
1
1
1
1
0.20677
0.933328
0.999576
1
1
1
1
1
1
1
1
1
1
1
1
1
1
1
1
1
1
1
1
1
1
0.205067
0.929537
0.999543
0.999999
1
1
1
1
1
1
1
1
1
1
1
1
1
1
1
1
1
1
1
1
1
1
0.203353
0.928394
0.999487
0.999999
1
1
1
1
1
1
1
1
1
1
1
1
1
1
1
1
1
1
1
1
1
1
1
0.201767
0.928201
0.99945
0.999999
1
1
1
1
1
1
1
1
1
1
1
1
1
1
1
1
1
1
1
1
1
1
1
1
0.200096
0.925211
0.999429
0.999999
1
1
1
1
1
1
1
1
1
1
1
1
1
1
1
1
1
1
1
1
1
1
1
1
1
0.198587
0.922126
0.99939
0.999999
1
1
1
1
1
1
1
1
1
1
1
1
1
1
1
1
1
1
1
1
1
1
1
1
1
1
0.197073
0.920121
0.999342
0.999999
1
1
1
1
1
1
1
1
1
1
1
1
1
1
1
1
1
1
1
1
1
1
1
1
1
1
1
0.195871
0.918794
0.999298
0.999999
1
1
1
1
1
1
1
1
1
1
1
1
1
1
1
1
1
1
1
1
1
1
1
1
1
1
1
1
0.194531
0.917037
0.999262
0.999999
1
1
1
1
1
1
1
1
1
1
1
1
1
1
1
1
1
1
1
1
1
1
1
1
1
1
1
1
1
0.193087
0.915761
0.999221
0.999999
1
1
1
1
1
1
1
1
1
1
1
1
1
1
1
1
1
1
1
1
1
1
1
1
1
1
1
1
1
1
0.191821
0.915528
0.999184
0.999999
1
1
1
1
1
1
1
1
1
1
1
1
1
1
1
1
1
1
1
1
1
1
1
1
1
1
1
1
1
1
1
0.190709
0.913454
0.999163
0.999998
1
1
1
1
1
1
1
1
1
1
1
1
1
1
1
1
1
1
1
1
1
1
1
1
1
1
1
1
1
1
1
1
0.189759
0.911635
0.999112
0.999998
1
1
1
1
1
1
1
1
1
1
1
1
1
1
1
1
1
1
1
1
1
1
1
1
1
1
1
1
1
1
1
1
1
0.188788
0.90831
0.999065
0.999998
1
1
1
1
1
1
1
1
1
1
1
1
1
1
1
1
1
1
1
1
1
1
1
1
1
1
1
1
1
1
1
1
1
1
0.187646
0.906027
0.999005
0.999998
1
1
1
1
1
1
1
1
1
1
1
1
1
1
1
1
1
1
1
1
1
1
1
1
1
1
1
1
1
1
1
1
1
1
1
0.186438
0.905146
0.998951
0.999998
1
1
1
1
1
1
1
1
1
1
1
1
1
1
1
1
1
1
1
1
1
1
1
1
1
1
1
1
1
1
1
1
1
1
1
1
0.185518
0.904544
0.99893
0.999998
1
1
1
1
1
1
1
1
1
1
1
1
1
1
1
1
1
1
1
1
1
1
1
1
1
1
1
1
1
1
1
1
1
1
1
1
1
0.184894
0.903015
0.998909
0.999998
1
1
1
1
1
1
1
1
1
1
1
1
1
1
1
1
1
1
1
1
1
1
1
1
1
1
1
1
1
1
1
1
1
1
1
1
1
1
0.184256
0.90197
0.998866
0.999997
1
1
1
1
1
1
1
1
1
1
1
1
1
1
1
1
1
1
1
1
1
1
1
1
1
1
1
1
1
1
1
1
1
1
1
1
1
1
1
0.183461
0.900421
0.998834
0.999997
1
1
1
1
1
1
1
1
1
1
1
1
1
1
1
1
1
1
1
1
1
1
1
1
1
1
1
1
1
1
1
1
1
1
1
1
1
1
1
1
0.182673
0.898747
0.998789
0.999997
1
1
1
1
1
1
1
1
1
1
1
1
1
1
1
1
1
1
1
1
1
1
1
1
1
1
1
1
1
1
1
1
1
1
1
1
1
1
1
1
1
0.181896
0.89785
0.998728
0.999997
1
1
1
1
1
1
1
1
1
1
1
1
1
1
1
1
1
1
1
1
1
1
1
1
1
1
1
1
1
1
1
1
1
1
1
1
1
1
1
1
1
1
0.181103
0.89746
0.998708
0.999997
1
1
1
1
1
1
1
1
1
1
1
1
1
1
1
1
1
1
1
1
1
1
1
1
1
1
1
1
1
1
1
1
1
1
1
1
1
1
1
1
1
1
1
0.180422
0.896354
0.998702
0.999997
1
1
1
1
1
1
1
1
1
1
1
1
1
1
1
1
1
1
1
1
1
1
1
1
1
1
1
1
1
1
1
1
1
1
1
1
1
1
1
1
1
1
1
1
0.179963
0.895338
0.99867
0.999997
1
1
1
1
1
1
1
1
1
1
1
1
1
1
1
1
1
1
1
1
1
1
1
1
1
1
1
1
1
1
1
1
1
1
1
1
1
1
1
1
1
1
1
1
1
0.179677
0.894787
0.99864
0.999997
1
1
1
1
1
1
1
1
1
1
1
1
1
1
1
1
1
1
1
1
1
1
1
1
1
1
1
1
1
1
1
1
1
1
1
1
1
1
0.999997
1
1
1
1
1
1
1
0.17933
0.893971
0.998626
0.999997
1
1
1
1
1
1
1
1
1
1
1
1
1
1
1
1
1
1
1
1
1
1
1
1
1
1
1
1
1
1
1
1
1
1
1
1
1
1
1
1
1
1
1
1
1
1
0.999559
0.17884
0.893348
0.998615
0.999996
1
1
1
1
1
1
1
1
1
1
1
1
1
1
1
1
1
1
1
1
1
1
1
1
1
1
1
1
1
1
1
1
1
1
1
1
1
1
1
1
1
1
1
1
1
1
1
0.97103
0.178191
0.892958
0.998609
0.999996
1
1
1
1
1
1
1
1
1
1
1
1
1
1
1
1
1
1
1
1
1
1
1
1
1
1
1
1
1
1
1
1
1
1
1
1
1
1
1
1
1
1
1
1
1
1
1
1
0.751969
0.177514
0.892647
0.99859
0.999996
1
1
1
1
1
1
1
1
1
1
1
1
1
1
1
1
1
1
1
1
1
1
1
1
1
1
1
1
1
1
1
1
1
1
1
1
1
1
1
1
1
1
1
1
1
1
1
1
1
0.398121
0.176882
0.89121
0.998572
0.999996
1
1
1
1
1
1
1
1
1
1
1
1
1
1
1
1
1
1
1
1
1
1
1
1
1
1
1
1
1
1
1
1
1
1
1
1
1
1
1
1
1
1
1
1
1
1
1
1
1
0.999985
0.163858
0.17634
0.890081
0.998542
0.999996
1
1
1
1
1
1
1
1
1
1
1
1
1
1
1
1
1
1
1
1
1
1
1
1
1
1
1
1
1
1
1
1
1
1
1
1
1
1
1
1
1
1
1
1
1
1
1
1
1
1
0.981927
0.0588554
0.17593
0.890168
0.998522
0.999996
1
1
1
1
1
1
1
1
1
1
1
1
1
1
1
1
1
1
1
1
1
1
1
1
1
1
1
1
1
1
1
1
1
1
1
1
1
1
1
1
1
1
1
1
1
1
1
1
1
1
1
0.699976
0.0190407
0.175634
0.890663
0.998541
0.999996
1
1
1
1
1
1
1
1
1
1
1
1
1
1
1
1
1
1
1
1
1
1
1
1
1
1
1
1
1
1
1
1
1
1
1
1
1
1
1
1
1
1
1
1
1
1
1
1
1
1
1
0.999999
0.281566
0.00555099
0.175482
0.889487
0.998539
0.999996
1
1
1
1
1
1
1
1
1
1
1
1
1
1
1
1
1
1
1
1
1
1
1
1
1
1
1
1
1
1
1
1
1
1
1
1
1
1
1
1
1
1
0.999923
1
1
1
1
1
1
1
1
1
0.984853
0.0881905
0.00146118
0.175294
0.888915
0.998487
0.999996
1
1
1
1
1
1
1
1
1
1
1
1
1
1
1
1
1
1
1
1
1
1
1
1
1
1
1
1
1
1
1
1
1
1
1
1
1
1
1
1
1
1
1
1
1
1
1
1
1
1
1
1
1
0.637947
0.0243799
0.000344117
0.175051
0.888748
0.998492
0.999996
1
1
1
1
1
1
1
1
1
1
1
1
1
1
1
1
1
1
1
1
1
1
1
1
1
1
1
1
1
1
1
1
1
1
1
1
1
1
1
1
1
1
1
1
1
1
1
1
1
1
1
1
1
0.999988
0.20715
0.00600186
7.22015e-05
0.174735
0.88869
0.998491
0.999996
1
1
1
1
1
1
1
1
1
1
1
1
1
1
1
1
1
1
1
1
1
1
1
1
1
1
1
1
1
1
1
1
1
1
1
1
1
1
1
1
1
1
1
1
1
1
1
1
1
1
1
1
1
1
0.934052
0.0523794
0.00127759
1.37422e-05
0.174407
0.889019
0.998497
0.999996
1
1
1
1
1
1
1
1
1
1
1
1
1
1
1
1
1
1
1
1
1
1
1
1
1
1
1
1
1
1
1
1
1
1
1
1
1
1
1
1
1
1
1
1
1
1
1
1
1
1
1
1
1
1
1
0.401503
0.011611
0.000229794
2.32234e-06
0.174076
0.890795
0.998537
0.999996
1
1
1
1
1
1
1
1
1
1
1
1
1
1
1
1
1
1
1
1
1
1
1
1
1
1
1
1
1
1
1
1
1
1
1
1
1
1
1
1
1
1
1
1
1
1
1
1
1
1
1
1
1
1
1
0.99756
0.0950827
0.00226527
3.43031e-05
4.56564e-07
0.173724
0.890398
0.998591
0.999996
1
1
1
1
1
1
1
1
1
1
1
1
1
1
1
1
1
1
1
1
1
1
1
1
1
1
1
1
1
1
1
1
1
1
1
1
1
1
1
1
1
1
1
1
0.999978
1
1
1
1
1
1
1
1
1
1
1
0.643286
0.0191008
0.000375288
3.92226e-06
1.06558e-07
0.173353
0.888097
0.99858
0.999997
1
1
1
1
1
1
1
1
1
1
1
1
1
1
1
1
1
1
1
1
1
1
1
1
1
1
1
1
1
1
1
1
1
1
1
1
1
1
1
1
1
1
1
1
1
1
1
1
1
1
1
1
1
1
1
1
0.999988
0.154282
0.00337112
5.44641e-05
5.57124e-07
5.99623e-08
0.172987
0.886026
0.998517
0.999996
1
1
1
1
1
1
1
1
1
1
1
1
1
1
1
1
1
1
1
1
1
1
1
1
1
1
1
1
1
1
1
1
1
1
1
1
1
1
1
1
1
1
1
1
1
1
1
1
1
1
1
1
1
1
1
1
1
0.8473
0.028159
0.000492897
4.15726e-06
1.83545e-07
1.13219e-07
0.172648
0.886236
0.998444
0.999996
1
1
1
1
1
1
1
1
1
1
1
1
1
1
1
1
1
1
1
1
1
1
1
1
1
1
1
1
1
1
1
1
1
1
1
1
1
1
1
1
1
1
1
1
1
1
1
1
1
1
1
1
1
1
1
1
1
1
0.225447
0.00439752
5.75564e-05
3.04837e-08
9.59071e-08
1.78065e-08
0.172324
0.88656
0.998458
0.999996
1
1
1
1
1
1
1
1
1
1
1
1
1
1
1
1
1
1
1
1
1
1
1
1
1
1
1
1
1
1
1
1
1
1
1
1
1
1
1
1
1
1
1
1
1
1
1
1
1
1
1
1
1
1
1
1
1
1
0.951088
0.0369093
0.000515844
4.56301e-06
7.71026e-08
1.19499e-07
8.75575e-08
0.172022
0.886183
0.998466
0.999996
1
1
1
1
1
1
1
1
1
1
1
1
1
1
1
1
1
1
1
1
1
1
1
1
1
1
1
1
1
1
1
1
1
1
1
1
1
1
1
1
1
1
1
1
1
1
1
1
1
1
1
1
1
1
1
1
1
1
1
0.292836
0.00459764
5.05217e-05
1.47913e-07
1.80383e-07
9.37528e-08
1.56505e-08
0.171738
0.88569
0.998454
0.999996
1
1
1
1
1
1
1
1
1
1
1
1
1
1
1
1
1
1
1
1
1
1
1
1
1
1
1
1
1
1
1
1
1
1
1
1
1
1
1
1
1
1
1
1
1
1
1
1
1
1
1
1
1
1
1
1
1
1
1
0.984408
0.0389204
0.00049486
3.93123e-06
1.53318e-07
4.14571e-08
2.05852e-08
4.58778e-09
0.171476
0.885305
0.998406
0.999996
1
1
1
1
1
1
1
1
1
1
1
1
1
1
1
1
1
1
1
1
1
1
1
1
1
1
1
1
1
1
1
1
1
1
1
1
1
1
1
1
1
1
1
1
1
1
1
1
1
1
1
1
1
1
1
1
1
1
1
1
0.319223
0.00446225
3.94816e-05
1.41399e-07
3.60026e-08
4.86804e-08
9.42659e-08
6.9499e-08
0.171223
0.884862
0.998391
0.999996
1
1
1
1
1
1
1
1
1
1
1
1
1
1
1
1
1
1
1
1
1
1
1
1
1
1
1
1
1
1
1
1
1
1
1
1
1
1
1
1
1
1
1
1
1
1
1
1
1
1
1
1
1
1
1
1
1
1
1
1
0.992062
0.0396896
0.000426424
2.90007e-06
9.82935e-08
5.95998e-09
6.77975e-09
1.65118e-08
5.01864e-09
0.170981
0.885652
0.998407
0.999996
1
1
1
1
1
1
1
1
1
1
1
1
1
1
1
1
1
1
1
1
1
1
1
1
1
1
1
1
1
1
1
1
1
1
1
1
1
1
1
1
1
1
1
1
1
1
1
1
1
1
1
1
1
1
1
1
1
1
1
1
1
0.334108
0.0041159
2.88043e-05
2.48167e-07
4.82671e-08
3.27401e-08
2.02509e-08
6.47861e-08
1.73521e-08
0.170725
0.884117
0.998429
0.999996
1
1
1
1
1
1
1
1
1
1
1
1
1
1
1
1
1
1
1
1
1
1
1
1
1
1
1
1
1
1
1
1
1
1
1
1
1
1
1
1
1
1
1
1
1
1
1
1
1
1
1
1
1
1
1
1
1
1
1
1
1
0.993954
0.0384146
0.000345895
1.79268e-06
1.08412e-07
1.16047e-07
2.73767e-08
6.20812e-08
2.00491e-08
2.9684e-09
0.170504
0.882677
0.998379
0.999996
1
1
1
1
1
1
1
1
1
1
1
1
1
1
1
1
1
1
1
1
1
1
1
1
1
1
1
1
1
1
1
1
1
1
1
1
1
1
1
1
1
1
1
1
1
1
1
1
1
1
1
1
1
1
1
1
1
1
1
1
1
1
0.32967
0.00353746
2.02627e-05
2.70898e-07
4.85008e-08
3.44863e-08
5.47635e-08
1.23693e-08
5.43209e-09
2.06988e-09
0.170286
0.883143
0.998331
0.999996
1
1
1
1
1
1
1
1
1
1
1
1
1
1
1
1
1
1
1
1
1
1
1
1
1
1
1
1
1
1
1
1
1
1
1
1
1
1
1
1
1
1
1
1
1
1
1
1
1
1
1
1
1
1
1
1
1
1
1
1
1
1
0.993656
0.0346627
0.000250684
1.56703e-06
4.56078e-08
4.45154e-08
1.59582e-07
1.29231e-08
7.72478e-09
5.78706e-09
6.23189e-10
0.170095
0.882947
0.998346
0.999995
1
1
1
1
1
1
1
1
1
1
1
1
1
1
1
1
1
1
1
1
1
1
1
1
1
1
1
1
1
1
1
1
1
1
1
1
1
1
1
1
1
1
1
1
1
1
1
1
1
1
1
1
1
1
1
1
1
1
1
1
1
1
1
0.305579
0.00276236
1.26782e-05
1.13176e-07
1.30445e-08
2.05088e-08
3.88955e-08
1.41231e-08
8.69378e-09
1.84766e-08
3.42414e-09
0.169921
0.882829
0.998337
0.999996
1
1
1
1
1
1
1
1
1
1
1
1
1
1
1
1
1
1
1
1
1
1
1
1
1
1
1
1
1
1
1
1
1
1
1
1
1
1
1
1
1
1
1
1
1
1
1
1
1
1
1
1
1
1
1
1
1
1
1
1
1
1
1
0.99269
0.0282325
0.000167514
6.63282e-07
1.10251e-07
1.56254e-08
2.89926e-08
9.53628e-08
4.93151e-09
2.0958e-08
2.65818e-09
4.20853e-10
0.169766
0.882577
0.998333
0.999996
1
1
1
1
1
1
1
1
1
1
1
1
1
1
1
1
1
1
1
1
1
1
1
1
1
1
1
1
1
1
1
1
1
1
1
1
1
1
1
1
1
1
1
1
1
1
1
1
1
1
1
1
1
1
1
1
1
1
1
1
1
1
1
1
0.266326
0.00191746
6.82132e-06
1.46851e-08
4.1773e-08
3.45678e-08
6.19288e-08
1.73505e-07
5.39664e-08
7.00372e-09
2.20113e-09
1.72001e-08
0.169631
0.882193
0.998322
0.999995
1
1
1
1
1
1
1
1
1
1
1
1
1
1
1
1
1
1
1
1
1
1
1
1
1
1
1
1
1
1
1
1
1
1
1
1
1
1
1
1
1
1
1
1
1
1
1
1
1
1
1
1
1
1
1
1
1
1
1
1
1
1
1
1
0.984388
0.0207411
9.45969e-05
1.92934e-07
3.46387e-08
6.18613e-08
6.5423e-08
4.54699e-08
1.97359e-08
3.27653e-09
1.29601e-08
1.87393e-09
5.23596e-09
0.169511
0.881869
0.99831
0.999995
1
1
1
1
1
1
1
1
1
1
1
1
1
1
1
1
1
1
1
1
1
1
1
1
1
1
1
1
1
1
1
1
1
1
1
1
1
1
1
1
1
1
1
1
1
1
1
1
1
1
1
1
1
1
1
1
1
1
1
1
1
1
1
1
1
0.202439
0.00116555
3.11708e-06
8.59954e-09
1.74696e-08
1.96134e-08
2.61867e-08
3.00809e-08
1.81341e-07
3.51398e-08
8.72287e-09
1.34065e-08
3.26087e-08
0.169403
0.881794
0.9983
0.999995
1
1
1
1
1
1
1
1
1
1
1
1
1
1
1
1
1
1
1
1
1
1
1
1
1
1
1
1
1
1
1
1
1
1
1
1
1
1
1
1
1
1
1
1
1
1
1
1
1
1
1
1
1
1
1
1
1
1
1
1
1
1
1
1
1
0.947385
0.0130837
4.58428e-05
1.14186e-07
1.22957e-08
1.84219e-08
9.35541e-08
5.39983e-08
4.33447e-08
2.38003e-08
4.86133e-08
2.98154e-08
4.33001e-09
6.69761e-09
0.169298
0.881607
0.998297
0.999995
1
1
1
1
1
1
1
1
1
1
1
1
1
1
1
1
1
1
1
1
1
1
1
1
1
1
1
1
1
1
1
1
1
1
1
1
1
1
1
1
1
1
1
1
1
1
1
1
1
1
1
1
1
1
1
1
1
1
1
1
1
1
1
1
1
1
0.128975
0.000597039
1.39237e-06
7.76229e-09
9.38901e-08
6.76212e-08
3.37476e-08
3.21056e-08
7.7613e-08
2.35022e-08
5.23065e-08
2.78943e-08
7.65854e-09
8.19749e-09
0.169206
0.881423
0.998289
0.999995
1
1
1
1
1
1
1
1
1
1
1
1
1
1
1
1
1
1
1
1
1
1
1
1
1
1
1
1
1
1
1
1
1
1
1
1
1
1
1
1
1
1
1
1
1
1
1
1
1
1
1
1
1
1
1
1
1
1
1
1
1
1
1
1
1
1
0.826005
0.00682486
1.8234e-05
4.08699e-08
5.43034e-08
1.10886e-08
4.06831e-08
3.49062e-08
5.55029e-08
7.33254e-08
1.55462e-08
4.17962e-08
2.59869e-08
4.41941e-09
2.19404e-09
0.169107
0.881252
0.998283
0.999995
1
1
1
1
1
1
1
1
1
1
1
1
1
1
1
1
1
1
1
1
1
1
1
1
1
1
1
1
1
1
1
1
1
1
1
1
1
1
1
1
1
1
1
1
1
1
1
1
1
1
1
1
1
1
1
1
1
1
1
1
1
1
1
1
1
1
1
0.0696321
0.000245814
5.09481e-07
8.1457e-08
4.29952e-08
5.43697e-08
1.81661e-08
2.10504e-08
4.37246e-08
2.13235e-07
1.30569e-07
4.82136e-08
1.54416e-08
1.41505e-08
7.71887e-09
0.16901
0.881069
0.998275
0.999995
1
1
1
1
1
1
1
1
1
1
1
1
1
1
1
1
1
1
1
1
1
1
1
1
1
1
1
1
1
1
1
1
1
1
1
1
1
1
1
1
1
1
1
1
1
1
1
1
1
1
1
1
1
1
1
1
1
1
1
1
1
1
1
1
1
1
1
0.567641
0.00294331
6.96965e-06
1.87934e-08
2.98675e-08
2.25697e-08
1.2202e-08
1.09146e-07
5.80091e-08
1.24939e-07
6.35626e-08
1.69925e-08
2.0669e-08
1.65166e-08
8.83664e-09
6.14839e-09
0.168907
0.881088
0.998271
0.999995
1
1
1
1
1
1
1
1
1
1
1
1
1
1
1
1
1
1
1
1
1
1
1
1
1
1
1
1
1
1
1
1
1
1
1
1
1
1
1
1
1
1
1
1
1
1
1
1
1
1
1
1
1
1
1
1
1
1
1
1
1
1
1
1
1
1
1
0.999902
0.0311414
8.28433e-05
5.5883e-07
2.13714e-08
5.8763e-08
4.85327e-09
9.30175e-08
4.07828e-08
5.00855e-08
6.28116e-08
8.94726e-08
5.26917e-08
7.75614e-08
5.799e-08
4.69012e-08
1.54108e-08
0.168803
0.880789
0.998266
0.999995
1
1
1
1
1
1
1
1
1
1
1
1
1
1
1
1
1
1
1
1
1
1
1
1
1
1
1
1
1
1
1
1
1
1
1
1
1
1
1
1
1
1
1
1
1
1
1
1
1
1
1
1
1
1
1
1
1
1
1
1
1
1
1
1
1
1
1
1
0.273041
0.0010369
1.89813e-06
1.62875e-07
2.28536e-08
1.70531e-08
8.60614e-08
2.58213e-08
1.46065e-07
7.55029e-08
2.80072e-08
5.85202e-08
2.7572e-08
3.17394e-08
1.92987e-08
1.64531e-08
2.67646e-08
0.168697
0.880465
0.99825
0.999995
1
1
1
1
1
1
1
1
1
1
1
1
1
1
1
1
1
1
1
1
1
1
1
1
1
1
1
1
1
1
1
1
1
1
1
1
1
1
1
1
1
1
1
1
1
1
1
1
1
1
1
1
1
1
1
1
1
1
1
1
1
1
1
1
1
1
1
1
0.976928
0.0109483
2.33835e-05
1.20203e-07
5.00179e-09
1.90664e-08
2.76287e-08
5.20478e-08
1.64636e-07
5.82861e-08
3.05175e-08
8.97794e-08
1.30542e-07
2.33504e-07
4.29448e-08
2.605e-08
9.96662e-09
5.90282e-09
0.168588
0.880351
0.998237
0.999995
1
1
1
1
1
1
1
1
1
1
1
1
1
1
1
1
1
1
1
1
1
1
1
1
1
1
1
1
1
1
1
1
1
1
1
1
1
1
1
1
1
1
1
1
1
1
1
1
1
1
1
1
1
1
1
1
1
1
1
1
1
1
1
1
1
1
1
1
1
0.0999497
0.000282805
4.19694e-07
2.25437e-08
1.01429e-07
2.57696e-08
3.34948e-08
1.3092e-07
1.46304e-08
1.52494e-07
1.07521e-07
7.6696e-08
1.6827e-08
2.59699e-08
3.51839e-09
2.03398e-08
4.43592e-08
3.09071e-08
0.168481
0.880233
0.998235
0.999995
1
1
1
1
1
1
1
1
1
1
1
1
1
1
1
1
1
1
1
1
1
1
1
1
1
1
1
1
1
1
1
1
1
1
1
1
1
1
1
1
1
1
1
1
1
1
1
1
1
1
1
1
1
1
1
1
1
1
1
1
1
1
1
1
1
1
1
1
1
0.694647
0.00305164
4.44784e-06
1.04395e-08
8.23416e-08
4.90965e-08
1.50766e-08
1.03042e-07
7.33259e-08
1.82091e-07
4.70018e-08
1.05249e-08
9.48283e-08
1.34932e-07
7.86664e-08
8.0335e-09
2.60774e-08
1.92879e-08
7.15455e-09
0.168379
0.880019
0.998228
0.999995
1
1
1
1
1
1
1
1
1
1
1
1
1
1
1
1
1
1
1
1
1
1
1
1
1
1
1
1
1
1
1
1
1
1
1
1
1
1
1
1
1
1
1
1
1
1
1
1
1
1
1
1
1
1
1
1
1
1
1
1
1
1
1
1
1
1
1
1
1
0.999994
0.0296114
5.88675e-05
4.03674e-08
4.34085e-08
3.77076e-08
3.30508e-08
1.18808e-07
5.53754e-08
2.17923e-07
6.51879e-08
1.11919e-07
1.36372e-07
6.35626e-08
2.30693e-08
1.90735e-08
1.18175e-08
2.77918e-08
1.45845e-08
1.44137e-08
0.168271
0.879559
0.998214
0.999995
1
1
1
1
1
1
1
1
1
1
1
1
1
1
1
1
1
1
1
1
1
1
1
1
1
1
1
1
1
1
1
1
1
1
1
1
1
1
1
1
1
1
1
1
1
1
1
1
1
1
1
1
1
1
1
1
1
1
1
1
1
1
1
1
1
1
1
1
1
1
0.254281
0.00066364
7.27416e-07
2.69473e-08
3.10327e-08
4.44963e-08
1.27726e-07
1.86822e-08
1.01765e-08
5.03074e-08
9.3408e-08
9.25118e-08
1.73865e-08
6.86689e-08
2.46762e-08
1.0024e-08
1.69644e-08
2.51916e-08
1.31225e-08
2.80846e-08
0.168189
0.879348
0.9982
0.999995
1
1
1
1
1
1
1
1
1
1
1
1
1
1
1
1
1
1
1
1
1
1
1
1
1
1
1
1
1
1
1
1
1
1
1
1
1
1
1
1
1
1
1
1
1
1
1
1
1
1
1
1
1
1
1
1
1
1
1
1
1
1
1
1
1
1
1
1
1
1
0.969804
0.00684115
9.85629e-06
2.79432e-08
6.7903e-08
1.84104e-08
1.05097e-07
2.46911e-08
7.99143e-08
1.04457e-07
2.87746e-07
1.01423e-07
6.84781e-08
7.26232e-08
1.99808e-08
3.00421e-08
9.35783e-09
1.96397e-08
2.74664e-08
8.84514e-08
4.59231e-08
0.167982
0.879256
0.998193
0.999995
1
1
1
1
1
1
1
1
1
1
1
1
1
1
1
1
1
1
1
1
1
1
1
1
1
1
1
1
1
1
1
1
1
1
1
1
1
1
1
1
1
1
1
1
1
1
1
1
1
1
1
1
1
1
1
1
1
1
1
1
1
1
1
1
1
1
1
1
1
1
1
0.0655212
0.000103844
1.51681e-07
6.25269e-08
1.34521e-07
2.92663e-08
5.00809e-08
9.47169e-08
4.1606e-08
1.60402e-07
3.78646e-08
8.88272e-08
6.44821e-08
8.93693e-09
2.32062e-08
2.20094e-08
2.8741e-08
1.49511e-08
1.6873e-08
9.43226e-09
1.84612e-08
0.162287
0.878863
0.998184
0.999995
1
1
1
1
1
1
1
1
1
1
1
1
1
1
1
1
1
1
1
1
1
1
1
1
1
1
1
1
1
1
1
1
1
1
1
1
1
1
1
1
1
1
1
1
1
1
1
1
1
1
1
1
1
1
1
1
1
1
1
1
1
1
1
1
1
1
1
1
1
1
1
0.507291
0.00126147
1.20755e-06
2.50061e-08
3.16983e-08
1.1481e-08
1.63009e-08
3.21915e-08
3.09487e-08
1.62426e-08
9.00835e-08
1.68122e-07
5.01974e-08
9.92466e-10
2.91697e-08
7.03336e-08
5.59001e-08
8.86657e-09
5.41496e-08
5.33719e-08
1.21883e-07
9.52297e-09
0.0986066
0.869837
0.998165
0.999995
1
1
1
1
1
1
1
1
1
1
1
1
1
1
1
1
1
1
1
1
1
1
1
1
1
1
1
1
1
1
1
1
1
1
1
1
1
1
1
1
1
1
1
1
1
1
1
1
1
1
1
1
1
1
1
1
1
1
1
1
1
1
1
1
1
1
1
1
1
1
1
0.999211
0.0132275
1.20066e-05
7.08156e-08
8.31484e-08
7.91211e-08
5.81402e-08
5.64319e-08
6.10352e-08
4.49099e-08
8.8463e-08
1.09237e-07
7.51931e-09
8.73807e-09
4.39349e-08
5.04754e-08
2.75584e-08
1.34145e-08
3.75456e-08
3.91553e-08
4.42173e-08
5.51275e-09
1.05324e-08
0.0686496
0.706513
0.997875
0.999995
1
1
1
1
1
1
1
1
1
1
1
1
1
1
1
1
1
1
1
1
1
1
1
1
1
1
1
1
1
1
1
1
1
1
1
1
1
1
1
1
1
1
1
1
1
1
1
1
1
1
1
1
1
1
1
1
1
1
1
1
1
1
1
1
1
1
1
1
1
1
1
1
0.111316
0.000187224
2.64871e-08
1.50988e-07
3.22089e-08
4.18005e-08
2.95399e-08
7.05957e-09
4.09316e-08
1.00631e-08
1.62652e-08
3.8984e-09
1.23959e-08
4.39432e-08
3.47312e-08
3.73796e-08
2.30727e-08
2.04389e-08
9.56682e-09
8.17656e-08
4.7501e-08
1.71809e-08
9.4187e-10
0.170853
0.344754
0.985057
0.999994
1
1
1
1
1
1
1
1
1
1
1
1
1
1
1
1
1
1
1
1
1
1
1
1
1
1
1
1
1
1
1
1
1
1
1
1
1
1
1
1
1
1
1
1
1
1
1
1
1
1
1
1
1
1
1
1
1
1
1
1
1
1
1
1
1
1
1
1
1
1
1
1
0.692311
0.00197575
1.82238e-06
4.3537e-08
2.65134e-08
5.73932e-08
9.98273e-08
5.3177e-08
5.10633e-08
2.44244e-08
5.94301e-08
3.07532e-08
1.16211e-08
2.0547e-08
2.67251e-08
3.9844e-08
2.41995e-08
3.09731e-08
1.14585e-08
7.37381e-08
4.08767e-08
4.57517e-08
3.53251e-09
0.195857
0.820158
0.404476
0.999875
1
1
1
1
1
1
1
1
1
1
1
1
1
1
1
1
1
1
1
1
1
1
1
1
1
1
1
1
1
1
1
1
1
1
1
1
1
1
1
1
1
1
1
1
1
1
1
1
1
1
1
1
1
1
1
1
1
1
1
1
1
1
1
1
1
1
1
1
1
1
1
1
0.999969
0.0178516
1.95479e-05
5.9486e-08
1.24049e-07
8.8896e-08
9.90151e-08
3.05199e-08
3.25747e-08
8.52272e-08
3.40295e-08
5.20334e-08
2.87846e-08
1.08135e-08
4.27269e-08
8.05047e-08
3.42556e-08
2.4888e-08
4.53894e-08
5.60329e-08
4.21627e-08
7.90006e-08
1.2733e-08
0.204938
0.874463
0.982884
0.274252
1
1
1
1
1
1
1
1
1
1
1
1
1
1
1
1
1
1
1
1
1
1
1
1
1
1
1
1
1
1
1
1
1
1
1
1
1
1
1
1
1
1
1
1
1
1
1
1
1
1
1
1
1
1
1
1
1
1
1
1
1
1
1
1
1
1
1
1
1
1
1
1
1
0.13543
0.00024349
1.06475e-07
2.53556e-08
6.98087e-09
3.40746e-08
5.96032e-08
1.10336e-07
9.63156e-08
7.01661e-09
4.55893e-08
2.14473e-08
1.04828e-08
2.51057e-08
5.75492e-08
1.36299e-08
3.60471e-08
2.8283e-08
1.67257e-08
3.93422e-08
1.13742e-07
6.23044e-08
0.211004
0.888459
0.993579
0.997559
0.923
1
1
1
1
1
1
1
1
1
1
1
1
1
1
1
1
1
1
1
1
1
1
1
1
1
1
1
1
1
1
1
1
1
1
1
1
1
1
1
1
1
1
1
1
1
1
1
1
1
1
1
1
1
1
1
1
1
1
1
1
1
1
1
1
1
1
1
1
1
1
1
1
0.737774
0.00215091
3.04674e-06
8.34522e-08
1.3013e-07
4.22103e-08
8.6884e-08
5.36694e-08
4.02772e-08
2.1815e-08
1.29646e-07
4.01562e-08
7.32173e-08
2.83818e-08
2.32678e-08
3.24361e-08
4.89997e-08
2.46284e-08
3.26863e-08
4.40155e-08
1.17905e-07
1.32368e-07
0.219272
0.89713
0.995248
0.999612
0.998343
0.999442
1
1
1
1
1
1
1
1
1
1
1
1
1
1
1
1
1
1
1
1
1
1
1
1
1
1
1
1
1
1
1
1
1
1
1
1
1
1
1
1
1
1
1
1
1
1
1
1
1
1
1
1
1
1
1
1
1
1
1
1
1
1
1
1
1
1
1
1
1
1
1
0.999978
0.0163404
2.71494e-05
1.33456e-07
1.18458e-07
3.4641e-08
7.10175e-08
6.31009e-08
9.23396e-08
3.32562e-08
1.12592e-07
3.50149e-08
1.23492e-08
3.76332e-08
1.94641e-08
2.60579e-08
3.05103e-08
2.35656e-08
1.29122e-08
2.95616e-08
1.02262e-07
1.05546e-07
0.226416
0.90672
0.996148
0.999775
0.999936
0.995785
0.999999
1
1
1
1
1
1
1
1
1
1
1
1
1
1
1
1
1
1
1
1
1
1
1
1
1
1
1
1
1
1
1
1
1
1
1
1
1
1
1
1
1
1
1
1
1
1
1
1
1
1
1
1
1
1
1
1
1
1
1
1
1
1
1
1
1
1
1
1
1
1
1
0.115127
0.000219558
1.67883e-07
4.76326e-08
8.92116e-08
6.28782e-08
7.31313e-08
6.06837e-08
2.51633e-08
1.15006e-07
4.85952e-08
6.1658e-08
9.52189e-08
8.14933e-08
1.84808e-08
5.2405e-09
2.33299e-08
2.85895e-08
3.70951e-08
3.74264e-08
1.73149e-07
0.232315
0.914065
0.996863
0.999846
0.999972
0.999943
0.94806
1
1
1
1
1
1
1
1
1
1
1
1
1
1
1
1
1
1
1
1
1
1
1
1
1
1
1
1
1
1
1
1
1
1
1
1
1
1
1
1
1
1
1
1
1
1
1
1
1
1
1
1
1
1
1
1
1
1
1
1
1
1
1
1
1
1
1
1
1
1
1
0.652714
0.00148228
3.50824e-06
1.36965e-07
5.03171e-08
6.33588e-08
6.39258e-08
2.19606e-08
3.188e-08
9.50888e-08
3.20098e-08
2.97946e-08
8.62752e-08
4.83469e-08
1.85754e-08
3.17081e-08
3.28055e-08
1.03405e-08
3.53212e-08
1.31865e-07
3.82068e-08
0.238378
0.919836
0.997347
0.999886
0.999984
0.999982
0.999684
0.626505
1
1
1
1
1
1
1
1
1
1
1
1
1
1
1
1
1
1
1
1
1
1
1
1
1
1
1
1
1
1
1
1
1
1
1
1
1
1
1
1
1
1
1
1
1
1
1
1
1
1
1
1
1
1
1
1
1
1
1
1
1
1
1
1
1
1
1
1
1
1
0.999849
0.0100591
2.28308e-05
4.74331e-08
2.91498e-08
1.34907e-07
9.0159e-08
2.94157e-08
3.36815e-08
3.34469e-08
4.51011e-08
4.61357e-08
1.09359e-07
1.39044e-08
9.85857e-08
8.04891e-08
2.70545e-08
1.80765e-08
3.96319e-08
5.80296e-08
1.52995e-07
0.24466
0.92529
0.997697
0.99991
0.999989
0.999991
0.999927
0.993819
0.991033
1
1
1
1
1
1
1
1
1
1
1
1
1
1
1
1
1
1
1
1
1
1
1
1
1
1
1
1
1
1
1
1
1
1
1
1
1
1
1
1
1
1
1
1
1
1
1
1
1
1
1
1
1
1
1
1
1
1
1
1
1
1
1
1
1
1
1
1
1
1
0.0724698
0.000117302
5.71746e-07
1.79628e-07
5.63894e-08
5.47019e-08
1.18477e-08
2.89222e-08
5.20987e-08
9.5171e-08
3.00415e-08
6.57467e-08
4.47071e-08
1.41896e-07
8.56074e-08
2.57007e-08
1.57795e-08
3.56323e-08
4.29684e-08
1.12326e-07
0.251327
0.930642
0.998001
0.999926
0.999991
0.999993
0.999966
0.99901
0.847985
0.999783
1
1
1
1
1
1
1
1
1
1
1
1
1
1
1
1
1
1
1
1
1
1
1
1
1
1
1
1
1
1
1
1
1
1
1
1
1
1
1
1
1
1
1
1
1
1
1
1
1
1
1
1
1
1
1
1
1
1
1
1
1
1
1
1
1
1
1
1
1
0.459645
0.000599538
2.80845e-06
5.52158e-08
1.46745e-08
8.14727e-08
2.64007e-08
1.85349e-08
4.89412e-08
1.07812e-07
4.37761e-08
1.31287e-08
9.09697e-08
1.35461e-07
4.1631e-08
4.51642e-08
6.04685e-09
6.57475e-08
2.12738e-08
2.85296e-08
0.258137
0.935764
0.998284
0.999939
0.999993
0.999995
0.999976
0.999581
0.983099
0.204472
0.99999
1
1
1
1
1
1
1
1
1
1
1
1
1
1
1
1
1
1
1
1
1
1
1
1
1
1
1
1
1
1
1
1
1
1
1
1
1
1
1
1
1
1
1
1
1
1
1
1
1
1
1
1
1
1
1
1
1
1
1
1
1
1
1
1
1
1
1
1
0.992571
0.00403637
1.29198e-05
1.22817e-07
6.92868e-08
1.60641e-07
1.015e-07
2.95559e-08
3.97598e-08
6.9737e-08
2.80693e-08
1.61319e-08
9.49515e-08
9.75157e-08
7.08039e-09
7.70047e-08
3.00924e-08
7.14915e-08
2.63756e-08
4.69871e-08
0.264905
0.94076
0.998526
0.99995
0.999994
0.999996
0.999979
0.999713
0.993528
0.832816
0.758694
0.999999
1
1
1
1
1
1
1
1
1
1
1
1
1
1
1
1
1
1
1
1
1
1
1
1
1
1
1
1
1
1
1
1
1
1
1
1
1
1
1
1
1
1
1
1
1
1
1
1
1
1
1
1
1
1
1
1
1
1
1
1
1
1
1
1
1
1
1
1
0.0293749
3.95634e-05
2.86234e-07
6.60185e-08
1.02435e-07
9.39496e-08
2.79578e-08
4.08098e-08
4.14496e-08
6.24875e-08
6.39258e-08
2.74071e-08
2.45544e-08
6.44792e-08
8.60333e-08
5.11276e-08
5.61852e-08
3.6313e-08
4.05057e-08
0.271338
0.945332
0.998742
0.999959
0.999995
0.999996
0.999982
0.999753
0.995814
0.937089
0.33393
0.931108
1
1
1
1
1
1
1
1
1
1
1
1
1
1
1
1
1
1
1
1
1
1
1
1
1
1
1
1
1
1
1
1
1
1
1
1
1
1
1
1
1
1
1
1
1
1
1
1
1
1
1
1
1
1
1
1
1
1
1
1
1
1
1
1
1
1
1
1
0.200799
0.00012703
1.84511e-06
6.90466e-09
3.89204e-08
1.9021e-08
1.86031e-08
6.11597e-08
1.7763e-08
5.86834e-08
6.56894e-08
6.31049e-08
1.14644e-07
1.46805e-07
8.87667e-08
3.9715e-08
2.69245e-08
4.79465e-08
4.38557e-08
0.277401
0.949403
0.998924
0.999967
0.999996
0.999997
0.999984
0.999786
0.99655
0.961035
0.703042
0.264451
0.975454
1
1
1
1
1
1
1
1
1
1
1
1
1
1
1
1
1
1
1
1
1
1
1
1
1
1
1
1
1
1
1
1
1
1
1
1
1
1
1
1
1
1
1
1
1
1
1
1
1
1
1
1
1
1
1
1
1
1
1
1
1
1
1
1
1
1
1
0.843498
0.000930715
5.77814e-06
2.38491e-07
1.17947e-08
8.24721e-08
4.13143e-08
5.68588e-08
4.27426e-08
9.72427e-08
9.27151e-08
8.81128e-08
1.23139e-07
1.18799e-07
4.33233e-08
3.70064e-08
4.03629e-08
9.31454e-08
3.7351e-08
0.283033
0.953107
0.999071
0.999973
0.999997
0.999997
0.999986
0.99981
0.997107
0.969436
0.812496
0.29031
0.586753
0.990354
1
1
1
1
1
1
1
1
1
1
1
1
1
1
1
1
1
1
1
1
1
1
1
1
1
1
1
1
1
1
1
1
1
1
1
1
1
1
1
1
1
1
1
1
1
1
1
1
1
1
1
1
1
1
1
1
1
1
1
1
1
1
1
1
1
1
0.999994
0.00810065
1.07218e-05
6.58046e-07
6.01753e-08
2.63404e-09
1.77935e-08
5.51702e-08
1.34685e-07
1.27074e-07
1.03356e-07
6.64065e-08
1.21946e-07
3.9068e-08
1.19302e-07
4.2394e-08
4.5006e-08
4.75801e-08
5.77348e-08
0.28829
0.956201
0.999199
0.999978
0.999997
0.999998
0.999987
0.999827
0.997484
0.975131
0.855783
0.511159
0.128409
0.753011
0.996296
1
1
1
1
1
1
1
1
1
1
1
1
1
1
1
1
1
1
1
1
1
1
1
1
1
1
1
1
1
1
1
1
1
1
1
1
1
1
1
1
1
1
1
1
1
1
1
1
1
1
1
1
1
1
1
1
1
1
1
1
1
1
1
1
1
1
0.0646028
3.70047e-05
8.98563e-07
3.89827e-08
1.32437e-07
1.96299e-08
2.72134e-08
1.41991e-07
1.44848e-07
6.75322e-08
5.20914e-08
7.18997e-08
1.80544e-08
1.57286e-07
7.85181e-08
2.20871e-08
5.92906e-08
9.53283e-08
0.293251
0.958986
0.9993
0.999982
0.999998
0.999998
0.999988
0.999839
0.997741
0.978843
0.88351
0.615456
0.176003
0.378209
0.844624
0.998752
1
1
1
1
1
1
1
1
1
1
1
1
1
1
1
1
1
1
1
1
1
1
1
1
1
1
1
1
1
1
1
1
1
1
1
1
1
1
1
1
1
1
1
1
1
1
1
1
1
1
1
1
1
1
1
1
1
1
1
1
1
1
1
1
1
0.368676
5.46037e-05
2.40303e-06
4.12877e-08
2.3484e-07
7.14062e-08
3.36848e-08
1.38581e-07
1.41239e-07
2.78004e-08
3.94274e-08
3.26514e-09
5.97877e-08
1.55596e-07
3.79487e-09
1.10364e-07
1.36128e-07
2.6305e-08
0.29807
0.961573
0.999386
0.999985
0.999998
0.999998
0.999989
0.999847
0.997905
0.981325
0.901537
0.68314
0.320553
0.121398
0.546074
0.901147
0.999663
1
1
1
1
1
1
1
1
1
1
1
1
1
1
1
1
1
1
1
1
1
1
1
1
1
1
1
1
1
1
1
1
1
1
1
1
1
1
1
1
1
1
1
1
1
1
1
1
1
1
1
1
1
1
1
1
1
1
1
1
1
1
1
1
0.946535
0.00144618
1.00328e-05
1.0018e-07
2.29984e-07
4.91294e-08
6.49551e-08
1.1424e-07
1.84162e-07
4.09895e-08
4.65199e-08
2.84617e-08
4.28763e-08
6.99525e-08
4.41837e-08
1.35283e-07
1.34994e-07
1.5024e-07
0.302957
0.963962
0.999463
0.999987
0.999998
0.999998
0.99999
0.999855
0.998026
0.982926
0.913602
0.729007
0.421579
0.0709665
0.308122
0.659848
0.938704
0.999934
1
1
1
1
1
1
1
1
1
1
1
1
1
1
1
1
1
1
1
1
1
1
1
1
1
1
1
1
1
1
1
1
1
1
1
1
1
1
1
1
1
1
1
1
1
1
1
1
1
1
1
1
1
1
1
1
1
1
1
1
1
1
1
0.999999
0.0106724
3.94299e-05
6.74301e-07
1.18901e-07
1.66434e-08
8.99283e-08
1.08502e-07
1.66177e-07
5.91623e-08
6.54928e-08
4.52196e-08
2.31241e-08
8.85875e-08
1.43173e-08
1.26251e-07
6.61388e-08
1.55125e-07
0.308142
0.966273
0.99953
0.999989
0.999999
0.999999
0.999991
0.999863
0.998123
0.984098
0.921649
0.760339
0.493495
0.177791
0.147958
0.445561
0.74247
0.964423
0.999992
1
1
1
1
1
1
1
1
1
1
1
1
1
1
1
1
1
1
1
1
1
1
1
1
1
1
1
1
1
1
1
1
1
1
1
1
1
1
1
1
1
1
1
1
1
1
1
1
1
1
1
1
1
1
1
1
1
1
1
1
1
1
1
0.0637975
0.000115931
2.85897e-06
4.40493e-08
4.4243e-08
7.01066e-08
6.90455e-08
1.59805e-07
3.97999e-08
1.09654e-07
2.45822e-08
2.74053e-08
1.01033e-07
6.80573e-08
7.43332e-08
8.79847e-08
7.80086e-08
0.31382
0.968592
0.999592
0.999991
0.999999
0.999999
0.999992
0.999874
0.998224
0.985001
0.927548
0.782102
0.54489
0.262244
0.0481442
0.291828
0.548656
0.806928
0.981387
0.999999
1
1
1
1
1
1
1
1
1
1
1
1
1
1
1
1
1
1
1
1
1
1
1
1
1
1
1
1
1
1
1
1
1
1
1
1
1
1
1
1
1
1
1
0.999038
1
1
1
1
1
1
1
1
1
1
1
1
1
1
1
1
1
1
0.312937
0.000139569
1.19456e-05
6.63903e-08
3.52883e-08
6.84594e-08
1.60744e-08
1.07983e-07
3.93784e-08
1.16646e-07
9.88285e-09
3.97809e-08
1.37569e-07
7.79792e-08
8.40699e-08
9.94155e-08
3.15272e-08
0.320167
0.970965
0.999649
0.999993
0.999999
0.999999
0.999993
0.999887
0.998355
0.985887
0.932087
0.798029
0.581812
0.325154
0.077954
0.180147
0.403059
0.630824
0.859293
0.991577
1
1
1
1
1
1
1
1
1
1
1
1
1
1
1
1
1
1
1
1
1
1
1
1
1
1
1
1
1
1
1
1
1
1
1
1
1
1
1
1
1
1
1
1
1
1
1
1
1
1
1
1
1
1
1
1
1
1
1
1
1
1
0.882778
0.000967049
2.55647e-05
3.07426e-07
1.41897e-08
5.91262e-08
2.07878e-08
3.09572e-08
4.8923e-08
1.10783e-07
9.79099e-09
7.78603e-08
1.73217e-07
3.70847e-08
1.09417e-07
8.77294e-08
1.95751e-08
0.327271
0.973389
0.999702
0.999994
0.999999
0.999999
0.999994
0.999901
0.998509
0.986896
0.936195
0.810572
0.609488
0.372138
0.139838
0.0980713
0.294879
0.492067
0.699779
0.902229
0.996899
1
1
1
1
1
1
1
1
1
1
1
1
1
1
1
1
1
1
1
1
1
1
1
1
1
1
1
1
1
1
1
1
1
1
1
1
1
1
1
1
1
1
1
1
1
1
1
1
1
1
1
1
1
1
1
1
1
1
1
1
1
0.999938
0.00720363
5.30992e-05
1.47054e-06
9.67733e-09
3.00237e-08
1.76017e-08
2.50107e-08
4.72836e-08
9.36238e-08
2.54652e-08
4.98411e-08
1.54326e-07
4.27434e-08
1.2096e-07
6.53408e-08
7.27467e-08
0.335187
0.975842
0.999752
0.999995
0.999999
0.999999
0.999995
0.999916
0.998679
0.988029
0.940523
0.821565
0.631561
0.408689
0.189902
0.0502636
0.211366
0.387427
0.567026
0.760168
0.936685
0.999138
1
1
1
1
1
1
1
1
1
1
1
1
1
1
1
1
1
1
1
1
1
1
1
1
1
1
1
1
1
1
1
1
1
1
1
1
1
1
1
1
1
1
1
1
1
1
1
1
1
1
1
1
1
1
1
1
1
1
1
1
1
0.0378084
0.000105522
4.15123e-06
2.18404e-08
2.45759e-08
1.28729e-08
2.38712e-08
1.05943e-08
4.72151e-08
1.82599e-08
6.87706e-08
1.14754e-07
4.09948e-08
5.25566e-08
5.70932e-08
1.09061e-07
0.34388
0.978288
0.999796
0.999996
1
1
0.999996
0.999931
0.998861
0.989255
0.945156
0.832513
0.650867
0.437792
0.230091
0.058163
0.147648
0.305756
0.465244
0.633292
0.814104
0.962709
0.999839
1
1
1
1
1
1
1
1
1
1
1
1
1
1
1
1
1
1
1
1
1
1
1
1
1
1
1
1
1
1
1
1
1
1
1
1
1
1
1
1
1
1
1
1
1
1
1
1
1
1
1
1
1
1
1
1
1
1
1
1
0.161749
0.000192231
1.06427e-05
1.46194e-07
3.20822e-08
1.628e-08
8.7317e-09
1.28283e-08
1.40136e-08
2.0774e-08
7.91372e-08
5.23595e-08