/*--------------------------------*- C++ -*----------------------------------*\
| =========                 |                                                 |
| \\      /  F ield         | OpenFOAM: The Open Source CFD Toolbox           |
|  \\    /   O peration     | Version:  v2012                                 |
|   \\  /    A nd           | Website:  www.openfoam.com                      |
|    \\/     M anipulation  |                                                 |
\*---------------------------------------------------------------------------*/
FoamFile
{
    version     2.0;
    format      ascii;
    class       volScalarField;
    location    "13600";
    object      Rew;
}
// * * * * * * * * * * * * * * * * * * * * * * * * * * * * * * * * * * * * * //

dimensions      [0 0 0 0 0 0 0];


internalField   nonuniform List<scalar> 
39402
(
0.707423
0.382588
0.999985
0.206294
0.994562
1
0.19661
0.919957
0.999997
1
0.206501
0.911253
0.99908
1
1
0.218113
0.923176
0.99893
0.999997
1
1
0.226538
0.935723
0.999277
0.999997
1
1
1
0.232128
0.943786
0.999549
0.999999
1
1
1
1
0.23445
0.948649
0.999682
0.999999
1
1
1
1
1
0.234895
0.951128
0.999751
1
1
1
1
1
1
1
0.234263
0.95176
0.999781
1
1
1
1
1
1
1
1
0.232895
0.951642
0.999791
1
1
1
1
1
1
1
1
1
0.23111
0.950877
0.999791
1
1
1
1
1
1
1
1
1
1
0.229009
0.950396
0.999787
1
1
1
1
1
1
1
1
1
1
1
0.226906
0.949573
0.999784
1
1
1
1
1
1
1
1
1
1
1
1
0.224839
0.948169
0.999773
1
1
1
1
1
1
1
1
1
1
1
1
1
0.222788
0.946702
0.999757
1
1
1
1
1
1
1
1
1
1
1
1
1
1
0.220755
0.945219
0.99974
1
1
1
1
1
1
1
1
1
1
1
1
1
1
1
0.218654
0.943654
0.999721
1
1
1
1
1
1
1
1
1
1
1
1
1
1
1
1
0.216267
0.941226
0.9997
1
1
1
1
1
1
1
1
1
1
1
1
1
1
1
1
1
0.214192
0.939897
0.999671
1
1
1
1
1
1
1
1
1
1
1
1
1
1
1
1
1
1
0.212608
0.939803
0.999647
1
1
1
1
1
1
1
1
1
1
1
1
1
1
1
1
1
1
1
0.210455
0.937341
0.999634
1
1
1
1
1
1
1
1
1
1
1
1
1
1
1
1
1
1
1
1
0.208592
0.935226
0.99961
1
1
1
1
1
1
1
1
1
1
1
1
1
1
1
1
1
1
1
1
1
0.20677
0.933328
0.999576
1
1
1
1
1
1
1
1
1
1
1
1
1
1
1
1
1
1
1
1
1
1
0.205067
0.929537
0.999543
0.999999
1
1
1
1
1
1
1
1
1
1
1
1
1
1
1
1
1
1
1
1
1
1
0.203353
0.928394
0.999487
0.999999
1
1
1
1
1
1
1
1
1
1
1
1
1
1
1
1
1
1
1
1
1
1
1
0.201767
0.928201
0.99945
0.999999
1
1
1
1
1
1
1
1
1
1
1
1
1
1
1
1
1
1
1
1
1
1
1
1
0.200096
0.925211
0.999429
0.999999
1
1
1
1
1
1
1
1
1
1
1
1
1
1
1
1
1
1
1
1
1
1
1
1
1
0.198587
0.922126
0.99939
0.999999
1
1
1
1
1
1
1
1
1
1
1
1
1
1
1
1
1
1
1
1
1
1
1
1
1
1
0.197073
0.920121
0.999342
0.999999
1
1
1
1
1
1
1
1
1
1
1
1
1
1
1
1
1
1
1
1
1
1
1
1
1
1
1
0.195871
0.918794
0.999298
0.999999
1
1
1
1
1
1
1
1
1
1
1
1
1
1
1
1
1
1
1
1
1
1
1
1
1
1
1
1
0.194531
0.917037
0.999262
0.999999
1
1
1
1
1
1
1
1
1
1
1
1
1
1
1
1
1
1
1
1
1
1
1
1
1
1
1
1
1
0.193087
0.915761
0.999221
0.999999
1
1
1
1
1
1
1
1
1
1
1
1
1
1
1
1
1
1
1
1
1
1
1
1
1
1
1
1
1
1
0.191821
0.915528
0.999184
0.999999
1
1
1
1
1
1
1
1
1
1
1
1
1
1
1
1
1
1
1
1
1
1
1
1
1
1
1
1
1
1
1
0.190709
0.913454
0.999163
0.999998
1
1
1
1
1
1
1
1
1
1
1
1
1
1
1
1
1
1
1
1
1
1
1
1
1
1
1
1
1
1
1
1
0.189759
0.911635
0.999112
0.999998
1
1
1
1
1
1
1
1
1
1
1
1
1
1
1
1
1
1
1
1
1
1
1
1
1
1
1
1
1
1
1
0.999872
1
0.188788
0.90831
0.999065
0.999998
1
1
1
1
1
1
1
1
1
1
1
1
1
1
1
1
1
1
1
1
1
1
1
1
1
1
1
1
1
1
1
1
1
1
0.187646
0.906027
0.999005
0.999998
1
1
1
1
1
1
1
1
1
1
1
1
1
1
1
1
1
1
1
1
1
1
1
1
1
1
1
1
1
1
1
1
1
1
1
0.186438
0.905146
0.998951
0.999998
1
1
1
1
1
1
1
1
1
1
1
1
1
1
1
1
1
1
1
1
1
1
1
1
1
1
1
1
1
1
1
1
1
1
1
1
0.185518
0.904544
0.99893
0.999998
1
1
1
1
1
1
1
1
1
1
1
1
1
1
1
1
1
1
1
1
1
1
1
1
1
1
1
1
1
1
1
1
1
1
1
1
1
0.184894
0.903015
0.998909
0.999998
1
1
1
1
1
1
1
1
1
1
1
1
1
1
1
1
1
1
1
1
1
1
1
1
1
1
1
1
1
1
1
1
1
1
1
1
1
1
0.184256
0.90197
0.998866
0.999997
1
1
1
1
1
1
1
1
1
1
1
1
1
1
1
1
1
1
1
1
1
1
1
1
1
1
1
1
1
1
1
1
1
1
0.999998
1
0.200164
0.999999
1
0.183461
0.900421
0.998834
0.999997
1
1
1
1
1
1
1
1
1
1
1
1
1
1
1
1
1
1
1
1
1
1
1
1
1
1
1
1
1
1
1
1
1
1
1
1
1
1
1
1
0.182673
0.898747
0.998789
0.999997
1
1
1
1
1
1
1
1
1
1
1
1
1
1
1
1
1
1
1
1
1
1
1
1
1
1
1
1
1
1
1
1
1
1
1
1
1
1
1
1
1
0.181896
0.89785
0.998728
0.999997
1
1
1
1
1
1
1
1
1
1
1
1
1
1
1
1
1
1
1
1
1
1
1
1
1
1
1
1
1
1
1
1
1
1
1
1
1
1
0.85073
1
1
1
0.181103
0.89746
0.998708
0.999997
1
1
1
1
1
1
1
1
1
1
1
1
1
1
1
1
1
1
1
1
1
1
1
1
1
1
1
1
1
1
1
1
1
1
1
1
1
1
1
0.999997
1
1
1
0.180422
0.896354
0.998702
0.999997
1
1
1
1
1
1
1
1
1
1
1
1
1
1
1
1
1
1
1
1
1
1
1
1
1
1
1
1
1
1
1
1
1
1
1
1
1
1
1
1
1
1
1
0.996659
0.179963
0.895338
0.99867
0.999997
1
1
1
1
1
1
1
1
1
1
1
1
1
1
1
1
1
1
1
1
1
1
1
1
1
1
1
1
1
1
1
1
1
1
1
1
1
1
1
1
1
1
1
1
0.971907
0.179677
0.894787
0.99864
0.999997
1
1
1
1
1
1
1
1
1
1
1
1
1
1
1
1
1
1
1
1
1
1
1
1
1
1
1
1
1
1
1
1
1
1
1
1
1
1
1
1
1
1
1
1
1
0.984718
0.17933
0.893971
0.998626
0.999997
1
1
1
1
1
1
1
1
1
1
1
1
1
1
1
1
1
1
1
1
1
1
1
1
1
1
1
1
1
1
1
1
1
1
1
1
1
1
0.999843
1
1
0.999999
1
1
1
1
0.860878
0.17884
0.893348
0.998615
0.999996
1
1
1
1
1
1
1
1
1
1
1
1
1
1
1
1
1
1
1
1
1
1
1
1
1
1
1
1
1
1
1
1
1
1
1
1
1
1
1
1
0.987314
1
1
1
1
1
0.999989
0.565579
0.178191
0.892958
0.998609
0.999996
1
1
1
1
1
1
1
1
1
1
1
1
1
1
1
1
1
1
1
1
1
1
1
1
1
1
1
1
1
1
1
1
1
1
1
1
1
1
1
1
1
0.196658
1
1
1
1
1
0.992607
0.28866
0.177513
0.892647
0.99859
0.999996
1
1
1
1
1
1
1
1
1
1
1
1
1
1
1
1
1
1
1
1
1
1
1
1
1
1
1
1
1
1
1
1
1
1
1
1
1
1
1
1
1
0.999997
1
1
1
1
1
1
0.989607
0.125257
0.176882
0.89121
0.998572
0.999996
1
1
1
1
1
1
1
1
1
1
1
1
1
1
1
1
1
1
1
1
1
1
1
1
1
1
1
1
1
1
1
1
1
1
1
1
1
1
1
0.999769
1
0.999189
1
1
1
1
1
1
0.999996
0.808138
0.0490721
0.17634
0.890081
0.998542
0.999996
1
1
1
1
1
1
1
1
1
1
1
1
1
1
1
1
1
1
1
1
1
1
1
1
1
1
1
1
1
1
1
1
1
1
1
1
1
1
1
1
1
0.990555
1
1
1
1
1
1
1
0.999908
0.419189
0.0174411
0.17593
0.890168
0.998522
0.999996
1
1
1
1
1
1
1
1
1
1
1
1
1
1
1
1
1
1
1
1
1
1
1
1
1
1
1
1
1
1
1
1
1
1
1
1
1
1
1
1
0.996125
1
1
1
1
1
1
1
1
1
0.997538
0.159752
0.00564106
0.175634
0.890663
0.998541
0.999996
1
1
1
1
1
1
1
1
1
1
1
1
1
1
1
1
1
1
1
1
1
1
1
1
1
1
1
1
1
1
1
1
1
1
1
1
1
1
1
1
0.999946
1
1
1
1
1
1
1
1
1
1
0.83834
0.0534079
0.00165267
0.175482
0.889487
0.998539
0.999996
1
1
1
1
1
1
1
1
1
1
1
1
1
1
1
1
1
1
1
1
1
1
1
1
1
1
1
1
1
1
1
1
1
1
1
1
1
1
1
1
1
1
0.994334
1
1
1
1
1
1
0.99995
1
0.999936
0.387751
0.016011
0.000434132
0.175294
0.888915
0.998487
0.999996
1
1
1
1
1
1
1
1
1
1
1
1
1
1
1
1
1
1
1
1
1
1
1
1
1
1
1
1
1
1
1
1
1
1
1
1
1
1
1
1
1
0.999979
0.801274
0.999825
1
1
1
1
1
1
1
1
0.995381
0.123175
0.00430667
0.000100877
0.175051
0.888748
0.998492
0.999996
1
1
1
1
1
1
1
1
1
1
1
1
1
1
1
1
1
1
1
1
1
1
1
1
1
1
1
1
1
1
1
1
1
1
1
1
1
1
1
1
1
0.999739
1
0.999549
1
1
1
1
1
1
1
1
1
0.730298
0.0336271
0.00102532
2.03456e-05
0.174735
0.88869
0.998491
0.999996
1
1
1
1
1
1
1
1
1
1
1
1
1
1
1
1
1
1
1
1
1
1
1
1
1
1
1
1
1
1
1
1
1
1
1
1
1
1
1
1
1
1
0.999774
0.82359
1
1
1
1
1
1
1
1
1
0.999998
0.250218
0.00814729
0.000213511
3.57356e-06
0.174407
0.889019
0.998497
0.999996
1
1
1
1
1
1
1
1
1
1
1
1
1
1
1
1
1
1
1
1
1
1
1
1
1
1
1
1
1
1
1
1
1
1
1
1
1
1
1
1
1
1
0.848974
0.997031
1
1
1
0.749643
1
1
1
1
1
1
0.956247
0.0627505
0.00176423
3.78928e-05
4.75278e-07
0.174076
0.890795
0.998537
0.999996
1
1
1
1
1
1
1
1
1
1
1
1
1
1
1
1
1
1
1
1
1
1
1
1
1
1
1
1
1
1
1
1
1
1
1
1
1
1
1
1
1
1
0.999984
0.999954
1
1
1
1
0.999957
1
1
1
1
1
1
0.442994
0.0138126
0.000335921
5.46461e-06
6.77092e-08
0.173724
0.890398
0.998591
0.999996
1
1
1
1
1
1
1
1
1
1
1
1
1
1
1
1
1
1
1
1
1
1
1
1
1
1
1
1
1
1
1
1
1
1
1
1
1
1
1
1
1
1
1
0.183356
0.999992
1
1
1
1
1
1
1
1
1
1
0.998349
0.1061
0.00270358
5.3729e-05
6.62235e-07
4.09573e-09
0.173353
0.888097
0.99858
0.999997
1
1
1
1
1
1
1
1
1
1
1
1
1
1
1
1
1
1
1
1
1
1
1
1
1
1
1
1
1
1
1
1
1
1
1
1
1
1
1
1
1
1
1
0.99968
0.994997
1
1
1
1
1
1
1
1
1
1
1
0.669287
0.0211799
0.000458862
7.3121e-06
3.23203e-08
1.22912e-08
0.172987
0.886026
0.998517
0.999996
1
1
1
1
1
1
1
1
1
1
1
1
1
1
1
1
1
1
1
1
1
1
1
1
1
1
1
1
1
1
1
1
1
1
1
1
1
1
1
1
1
1
1
1
0.262269
1
1
1
1
1
1
1
1
1
1
1
0.999989
0.162299
0.00368862
6.26143e-05
5.25938e-07
2.86852e-09
1.73282e-09
0.172648
0.886236
0.998444
0.999996
1
1
1
1
1
1
1
1
1
1
1
1
1
1
1
1
1
1
1
1
1
1
1
1
1
1
1
1
1
1
1
1
1
1
1
1
1
1
1
1
1
1
1
1
0.999838
1
1
1
1
1
1
1
1
1
1
1
1
0.847295
0.0289629
0.000539153
6.91838e-06
1.95417e-08
1.33021e-08
7.61626e-09
0.172324
0.88656
0.998458
0.999996
1
1
1
1
1
1
1
1
1
1
1
1
1
1
1
1
1
1
1
1
1
1
1
1
1
1
1
1
1
1
1
1
1
1
1
1
1
1
1
1
1
1
1
1
0.999927
1
1
1
1
1
1
1
1
1
1
1
1
0.997422
0.220872
0.00436442
6.0096e-05
4.68812e-07
4.22826e-09
2.21354e-08
6.85968e-09
0.172022
0.886183
0.998466
0.999996
1
1
1
1
1
1
1
1
1
1
1
1
1
1
1
1
1
1
1
1
1
1
1
1
1
1
1
1
1
1
1
1
1
1
1
1
1
1
1
1
1
1
1
1
1
0.996151
1
1
1
1
1
0.999997
1
1
1
1
1
1
0.937546
0.0346837
0.000525098
5.78964e-06
4.77836e-09
1.34585e-08
1.48554e-08
8.18705e-09
0.171738
0.88569
0.998454
0.999996
1
1
1
1
1
1
1
1
1
1
1
1
1
1
1
1
1
1
1
1
1
1
1
1
1
1
1
1
1
1
1
1
1
1
1
1
1
1
1
1
1
1
1
1
1
0.999618
1
1
1
1
1
1
1
0.999984
1
1
1
1
0.999995
0.264835
0.0044912
5.53876e-05
3.55405e-07
5.12203e-09
2.98876e-10
7.43193e-09
3.95109e-09
0.171476
0.885305
0.998406
0.999996
1
1
1
1
1
1
1
1
1
1
1
1
1
1
1
1
1
1
1
1
1
1
1
1
1
1
1
1
1
1
1
1
1
1
1
1
1
1
1
1
1
1
1
1
1
1
1
1
1
1
1
1
1
1
1
1
1
1
1
0.96994
0.0385119
0.000509134
4.14054e-06
2.32667e-08
2.02729e-10
5.3569e-09
2.95172e-09
1.48283e-08
0.171223
0.884862
0.998391
0.999996
1
1
1
1
1
1
1
1
1
1
1
1
1
1
1
1
1
1
1
1
1
1
1
1
1
1
1
1
1
1
1
1
1
1
1
1
1
1
1
1
1
1
1
1
1
1
1
1
1
1
1
1
1
1
1
1
1
1
1
1
0.303415
0.00453631
4.70225e-05
2.85175e-07
1.67746e-08
7.51693e-11
4.36464e-09
1.106e-08
5.01068e-09
0.170981
0.885652
0.998407
0.999996
1
1
1
1
1
1
1
1
1
1
1
1
1
1
1
1
1
1
1
1
1
1
1
1
1
1
1
1
1
1
1
1
1
1
1
1
1
1
1
1
1
1
1
1
1
1
1
1
1
1
1
1
1
1
1
1
1
1
1
1
0.983334
0.0383904
0.000465593
2.94843e-06
5.32102e-08
3.86392e-09
5.49894e-09
1.14201e-09
1.33125e-08
4.84495e-11
0.170725
0.884117
0.998429
0.999996
1
1
1
1
1
1
1
1
1
1
1
1
1
1
1
1
1
1
1
1
1
1
1
1
1
1
1
1
1
1
1
1
1
1
1
1
1
1
1
1
1
1
1
1
1
1
1
1
1
1
1
1
0.995839
1
0.999607
1
1
1
1
1
1
0.301494
0.00436135
3.60575e-05
1.58449e-07
1.46953e-09
3.29494e-10
2.55437e-08
8.1561e-09
7.43738e-10
1.60261e-09
0.170504
0.882677
0.998379
0.999996
1
1
1
1
1
1
1
1
1
1
1
1
1
1
1
1
1
1
1
1
1
1
1
1
1
1
1
1
1
1
1
1
1
1
1
1
1
1
1
1
1
1
1
1
1
1
1
1
1
1
1
1
1
1
0.977921
1
1
1
1
1
1
0.988172
0.037853
0.000381091
1.86399e-06
2.04228e-08
8.5717e-09
1.2755e-08
2.64001e-09
9.74545e-10
8.86893e-11
1.94432e-09
0.170286
0.883143
0.998331
0.999996
1
1
1
1
1
1
1
1
1
1
1
1
1
1
1
1
1
1
1
1
1
1
1
1
1
1
1
1
1
1
1
1
1
1
1
1
1
1
1
1
1
1
1
1
1
1
1
1
1
1
1
1
1
1
1
1
1
1
1
0.999887
1
1
0.313244
0.00375834
2.45995e-05
1.17958e-07
2.34912e-08
2.0234e-08
6.31023e-09
1.1575e-08
2.29149e-10
4.29469e-09
2.17718e-10
0.170095
0.882947
0.998346
0.999995
1
1
1
1
1
1
1
1
1
1
1
1
1
1
1
1
1
1
1
1
1
1
1
1
1
1
1
1
1
1
1
1
1
1
1
1
1
1
1
1
1
1
1
1
1
1
1
1
1
1
1
1
1
1
1
1
1
1
1
1
1
0.99999
0.987579
0.0351747
0.00027569
1.15398e-06
4.79601e-10
7.8275e-09
1.55973e-10
8.56007e-09
9.5103e-09
1.66899e-09
4.33143e-09
3.10737e-09
0.169921
0.882829
0.998337
0.999996
1
1
1
1
1
1
1
1
1
1
1
1
1
1
1
1
1
1
1
1
1
1
1
1
1
1
1
1
1
1
1
1
1
1
1
1
1
1
1
1
1
1
1
1
1
1
1
1
1
1
1
1
1
1
1
0.232964
1
1
1
1
1
1
1
0.289239
0.00290512
1.51698e-05
4.63161e-08
9.81273e-09
8.40318e-09
1.69081e-08
2.63376e-09
2.17385e-09
1.23551e-09
2.12807e-09
3.12941e-10
0.169766
0.882577
0.998333
0.999996
1
1
1
1
1
1
1
1
1
1
1
1
1
1
1
1
1
1
1
1
1
1
1
1
1
1
1
1
1
1
1
1
1
1
1
1
1
1
1
1
1
1
1
1
1
1
1
1
1
1
1
1
1
1
1
0.915802
0.942564
1
1
1
1
1
0.999992
0.980208
0.027797
0.000177604
4.94748e-07
1.1249e-08
1.22792e-09
9.54092e-09
2.72713e-08
1.33059e-08
4.6449e-08
4.97667e-10
8.25736e-10
5.34315e-09
0.169631
0.882193
0.998322
0.999995
1
1
1
1
1
1
1
1
1
1
1
1
1
1
1
1
1
1
1
1
1
1
1
1
1
1
1
1
1
1
1
1
1
1
1
1
1
1
1
1
1
1
1
1
1
1
1
1
1
1
1
1
1
1
1
0.999993
1
1
1
1
1
1
1
0.999999
0.232093
0.0019262
7.55925e-06
2.18552e-08
2.37168e-09
7.93288e-09
1.51711e-08
1.0357e-08
1.97236e-08
3.02875e-09
1.44235e-09
1.82813e-09
5.1069e-09
0.169511
0.881869
0.99831
0.999995
1
1
1
1
1
1
1
1
1
1
1
1
1
1
1
1
1
1
1
1
1
1
1
1
1
1
1
1
1
1
1
1
1
1
1
1
1
1
1
1
1
1
1
1
1
1
1
1
1
1
1
1
1
1
1
1
1
1
1
1
1
1
1
0.996498
0.951121
0.0184654
9.53757e-05
2.11324e-07
7.98992e-09
6.4365e-09
1.67705e-09
1.0548e-09
3.00672e-08
1.06712e-08
1.8269e-08
7.09808e-09
2.71283e-09
2.55566e-09
0.169403
0.881794
0.9983
0.999995
1
1
1
1
1
1
1
1
1
1
1
1
1
1
1
1
1
1
1
1
1
1
1
1
1
1
1
1
1
1
1
1
1
1
1
1
1
1
1
1
1
1
1
1
1
1
1
1
1
1
1
1
1
1
1
1
1
0.940648
1
1
0.999994
1
1
1
0.961956
0.161397
0.00105559
3.14477e-06
1.28531e-08
7.18036e-10
1.24953e-08
1.47773e-08
4.07939e-09
1.19133e-09
1.44129e-08
1.22597e-08
2.75793e-08
4.75792e-10
6.6431e-09
0.169298
0.881607
0.998297
0.999995
1
1
1
1
1
1
1
1
1
1
1
1
1
1
1
1
1
1
1
1
1
1
1
1
1
1
1
1
1
1
1
1
1
1
1
1
1
1
1
1
1
1
1
1
1
1
1
1
1
1
1
1
1
1
1
1
0.99997
0.999997
1
1
1
1
1
1
1
0.850235
0.0104904
4.14228e-05
7.256e-08
2.6025e-09
1.49598e-08
2.84704e-08
1.92506e-09
3.20901e-08
4.95467e-09
2.22621e-08
3.00334e-08
2.01469e-08
6.42127e-09
4.16073e-10
0.169206
0.881423
0.998289
0.999995
1
1
1
1
1
1
1
1
1
1
1
1
1
1
1
1
1
1
1
1
1
1
1
1
1
1
1
1
1
1
1
1
1
1
1
1
1
1
1
1
1
1
1
1
1
1
1
1
1
1
1
1
1
1
1
1
0.750248
1
1
1
1
1
1
1
1
1
0.0935779
0.000479454
1.01607e-06
7.99797e-09
1.1436e-08
8.97343e-09
1.50565e-08
1.2157e-08
1.7954e-08
2.02369e-08
3.41259e-09
1.84798e-09
2.55312e-08
2.88858e-09
1.1111e-09
0.169107
0.881252
0.998283
0.999995
1
1
1
1
1
1
1
1
1
1
1
1
1
1
1
1
1
1
1
1
1
1
1
1
1
1
1
1
1
1
1
1
1
1
1
1
1
1
1
1
1
1
1
1
1
1
1
1
1
1
1
1
1
1
1
1
1
1
1
0.999736
0.999998
1
1
1
1
1
0.606399
0.0049368
1.43545e-05
7.60746e-08
5.62798e-09
8.01168e-10
1.53322e-08
5.03087e-09
3.47493e-09
4.05324e-08
3.22552e-08
3.71684e-08
3.37154e-08
4.84333e-09
1.26628e-08
6.84953e-09
0.16901
0.881069
0.998275
0.999995
1
1
1
1
1
1
1
1
1
1
1
1
1
1
1
1
1
1
1
1
1
1
1
1
1
1
1
1
1
1
1
1
1
1
1
1
1
1
1
1
1
1
1
1
1
1
1
1
1
1
1
1
1
1
1
1
1
1
1
1
1
1
1
1
1
1
0.99981
0.0429607
0.000176512
3.53317e-07
9.84563e-09
6.25162e-09
3.42029e-10
6.23638e-09
1.56631e-09
5.57319e-08
2.68487e-08
1.89234e-08
1.12972e-08
9.32764e-09
4.46201e-09
8.19814e-09
1.46177e-09
0.168907
0.881088
0.998271
0.999995
1
1
1
1
1
1
1
1
1
1
1
1
1
1
1
1
1
1
1
1
1
1
1
1
1
1
1
1
1
1
1
1
1
1
1
1
1
1
1
1
1
1
1
1
1
1
1
1
1
1
1
1
1
1
1
1
1
1
0.999942
1
1
1
1
1
1
1
0.999912
0.323788
0.00182421
4.13833e-06
3.15442e-08
1.45101e-08
1.2721e-08
3.46464e-09
1.18944e-08
2.97996e-08
1.29314e-08
4.13559e-08
6.61367e-09
1.49807e-08
7.67559e-08
1.18084e-08
3.75178e-08
1.04044e-08
0.168803
0.880789
0.998266
0.999995
1
1
1
1
1
1
1
1
1
1
1
1
1
1
1
1
1
1
1
1
1
1
1
1
1
1
1
1
1
1
1
1
1
1
1
1
1
1
1
1
1
1
1
1
1
1
1
1
1
1
1
1
1
1
1
1
1
1
1
1
1
1
1
1
1
1
1
0.983556
0.0163581
5.07727e-05
8.13826e-08
1.93035e-09
1.472e-08
1.41481e-10
1.05329e-08
3.13988e-09
2.20505e-10
7.41838e-08
7.40936e-09
1.41016e-08
4.19209e-09
3.08957e-08
5.41725e-09
1.34026e-08
2.674e-08
0.168696
0.880465
0.99825
0.999995
1
1
1
1
1
1
1
1
1
1
1
1
1
1
1
1
1
1
1
1
1
1
1
1
1
1
1
1
1
1
1
1
1
1
1
1
1
1
1
1
1
1
1
1
1
1
1
1
1
1
1
1
1
1
1
1
1
1
1
1
1
1
1
1
1
1
1
0.597359
0.136631
0.000538644
9.17639e-07
3.28919e-09
3.93823e-09
9.57871e-10
3.23052e-09
4.52649e-08
1.22522e-08
4.82926e-08
2.80739e-08
4.12736e-09
1.30495e-07
2.05531e-08
4.28097e-08
1.06822e-08
4.83247e-09
5.05956e-09
0.168588
0.88035
0.998236
0.999995
1
1
1
1
1
1
1
1
1
1
1
1
1
1
1
1
1
1
1
1
1
1
1
1
1
1
1
1
1
1
1
1
1
1
1
1
1
1
1
1
1
1
1
1
1
1
1
1
1
1
1
1
1
1
1
0.982119
1
1
1
1
1
1
1
1
1
1
1
1
0.76172
0.00515516
1.11958e-05
7.07444e-10
9.32151e-09
1.18852e-08
1.93677e-08
2.70629e-08
6.05067e-09
4.59113e-09
1.47764e-08
1.47721e-08
5.17986e-08
1.17897e-08
2.35573e-08
8.0615e-10
1.86406e-08
5.54445e-09
3.06783e-08
0.168481
0.880233
0.998235
0.999995
1
1
1
1
1
1
1
1
1
1
1
1
1
1
1
1
1
1
1
1
1
1
1
1
1
1
1
1
1
1
1
1
1
1
1
1
1
1
1
1
1
1
1
1
1
1
1
1
1
1
1
1
1
1
1
1
1
1
1
1
1
1
0.697616
1
1
1
1
1
0.999996
0.0441084
0.000124601
1.45946e-07
3.31271e-09
3.76465e-09
7.2236e-09
4.04774e-09
4.25458e-09
6.70447e-08
1.81661e-08
4.33609e-08
7.47678e-09
1.62322e-08
1.29064e-07
7.11638e-09
7.82465e-09
1.21801e-08
1.90444e-08
6.8426e-09
0.168379
0.880019
0.998228
0.999995
1
1
1
1
1
1
1
1
1
1
1
1
1
1
1
1
1
1
1
1
1
1
1
1
1
1
1
1
1
1
1
1
1
1
1
1
1
1
1
1
1
1
1
1
1
1
1
1
1
1
1
1
1
1
1
1
1
1
1
1
0.999644
1
1
1
1
1
1
1
1
0.33641
0.00126983
1.88665e-06
1.44566e-08
2.07476e-08
7.82091e-09
1.6028e-09
3.60467e-09
4.72108e-08
1.17472e-08
4.78026e-08
1.93394e-08
2.39545e-08
6.19425e-08
3.76066e-09
2.11258e-09
9.66104e-09
2.77801e-08
6.71365e-10
2.91031e-09
0.168271
0.879559
0.998214
0.999995
1
1
1
1
1
1
1
1
1
1
1
1
1
1
1
1
1
1
1
1
1
1
1
1
1
1
1
1
1
1
1
1
1
1
1
1
1
1
1
1
1
1
1
1
1
1
1
1
1
1
1
1
1
1
1
1
1
1
0.999621
1
0.997653
1
1
1
1
1
1
1
1
0.982894
0.0119424
2.15017e-05
2.89233e-08
6.0794e-09
3.09969e-08
2.57648e-08
7.86604e-10
5.93568e-09
4.26251e-09
4.22845e-09
9.53223e-10
4.90405e-08
3.73256e-09
3.2857e-08
9.35856e-09
9.2931e-09
9.32208e-09
1.49462e-08
9.37189e-09
2.80049e-08
0.168189
0.879348
0.9982
0.999995
1
1
1
1
1
1
1
1
1
1
1
1
1
1
1
1
1
1
1
1
1
1
1
1
1
1
1
1
1
1
1
1
1
1
1
1
1
1
1
1
1
1
1
1
1
1
1
1
1
1
1
1
1
1
1
1
1
1
1
1
1
1
1
1
1
1
1
1
1
0.996613
0.0999302
0.000251873
1.57627e-07
2.44446e-08
5.21409e-09
1.50307e-08
6.84233e-13
3.00204e-09
2.635e-08
8.4172e-08
1.33563e-08
6.54385e-08
1.36607e-08
2.19042e-08
5.69415e-09
2.96593e-08
5.82241e-09
6.53355e-09
2.15256e-08
8.82745e-08
1.62018e-08
0.167982
0.879256
0.998193
0.999995
1
1
1
1
1
1
1
1
1
1
1
1
1
1
1
1
1
1
1
1
1
1
1
1
1
1
1
1
1
1
1
1
1
1
1
1
1
1
1
1
1
1
1
1
1
1
1
1
1
1
1
1
1
1
1
1
1
1
1
1
1
1
0.411929
1
0.999893
1
1
1
1
1
0.605642
0.00258568
2.66977e-06
4.22962e-09
1.46706e-08
1.15253e-08
2.09266e-08
3.02129e-08
2.70264e-08
4.15892e-08
3.72099e-08
2.25551e-08
3.28547e-08
6.66465e-09
6.67514e-10
9.06096e-09
1.24312e-08
2.11613e-08
1.4513e-08
1.15828e-08
7.07899e-09
1.84175e-08
0.162286
0.878861
0.998184
0.999995
1
1
1
1
1
1
1
1
1
1
1
1
1
1
1
1
1
1
1
1
1
1
1
1
1
1
1
1
1
1
1
1
1
1
1
1
1
1
1
1
1
1
1
1
1
1
1
1
1
1
1
1
1
1
1
1
1
1
1
0.991518
1
1
1
1
1
0.999997
1
1
1
1
0.999612
0.0216769
4.02435e-05
1.32837e-09
2.355e-08
2.92681e-10
1.01957e-08
1.14631e-08
6.24766e-09
1.72536e-08
1.43964e-08
8.52103e-08
2.75273e-08
7.57165e-09
9.45787e-10
1.24913e-08
1.53001e-08
5.26001e-08
2.27893e-10
4.98956e-08
5.6507e-09
1.21798e-07
6.0006e-10
0.0986
0.869824
0.998164
0.999995
1
1
1
1
1
1
1
1
1
1
1
1
1
1
1
1
1
1
1
1
1
1
1
1
1
1
1
1
1
1
1
1
1
1
1
1
1
1
1
1
1
1
1
1
1
1
1
1
1
1
1
1
1
1
1
1
1
1
1
1
1
1
1
1
0.999999
1
1
1
1
1
0.999953
0.162858
0.000423136
2.86699e-07
1.74998e-08
1.15519e-08
3.25468e-09
7.80499e-09
2.48965e-08
2.46824e-08
6.83793e-09
7.24249e-08
2.08709e-08
1.52414e-09
8.1319e-09
3.16926e-09
2.16246e-08
1.47583e-08
1.19511e-08
3.13658e-08
3.40132e-09
4.3539e-08
1.66546e-09
1.05291e-08
0.068635
0.706381
0.997874
0.999995
1
1
1
1
1
1
1
1
1
1
1
1
1
1
1
1
1
1
1
1
1
1
1
1
1
1
1
1
1
1
1
1
1
1
1
1
1
1
1
1
1
1
1
1
1
1
1
1
1
1
1
1
1
1
1
1
1
1
1
1
0.834956
1
1
1
1
1
1
1
1
1
1
0.789416
0.00377375
4.87468e-06
2.55531e-08
1.56376e-08
1.95374e-08
9.52234e-09
5.59901e-09
7.11561e-11
1.47603e-08
3.34607e-09
1.08354e-08
3.36433e-09
9.78228e-09
4.58776e-09
1.514e-08
6.83938e-09
7.68955e-09
1.37674e-08
6.89181e-09
8.13858e-08
2.52549e-09
1.71771e-08
8.82056e-10
0.17085
0.343966
0.985011
0.999993
1
1
1
1
1
1
1
1
1
1
1
1
1
1
1
1
1
1
1
1
1
1
1
1
1
1
1
1
1
1
1
1
1
1
1
1
1
1
1
1
1
1
1
1
1
1
1
1
1
1
1
1
1
1
1
1
1
1
1
1
0.999771
1
1
1
1
1
1
1
1
1
1
1
0.0291412
5.72267e-05
5.46374e-09
5.84027e-09
1.90915e-08
7.40704e-09
5.25928e-09
1.35035e-08
2.98134e-08
9.45768e-09
5.28034e-08
1.92756e-08
2.67173e-09
1.05382e-08
6.75411e-09
4.33971e-09
1.41467e-08
1.56645e-08
5.36595e-09
7.34874e-08
6.70819e-09
4.57457e-08
2.16061e-09
0.195857
0.820125
0.394041
0.999874
1
1
1
1
1
1
1
1
1
1
1
1
1
1
1
1
1
1
1
1
1
1
1
1
1
1
1
1
1
1
1
1
1
1
1
1
1
1
1
1
1
1
1
1
1
1
1
1
1
1
1
1
1
1
1
1
1
1
1
1
1
1
0.999999
1
1
1
1
1
1
1
1
1
0.20101
0.00050837
5.90164e-07
7.26835e-09
3.62271e-08
6.81e-09
9.84401e-09
1.51447e-08
2.98143e-09
1.10354e-08
3.36979e-08
9.39897e-09
2.877e-08
9.37642e-09
2.89816e-08
2.32219e-08
2.93609e-08
6.81522e-09
6.51545e-09
5.60295e-08
5.36888e-09
7.89684e-08
9.16233e-09
0.204938
0.874458
0.982861
0.118173
1
1
1
1
1
1
1
1
1
1
1
1
1
1
1
1
1
1
1
1
1
1
1
1
1
1
1
1
1
1
1
1
1
1
1
1
1
1
1
1
1
1
1
1
1
1
1
1
1
1
1
1
1
1
1
1
1
1
0.999999
1
1
1
1
0.62981
1
1
1
1
1
1
1
1
0.846097
0.0038963
7.29555e-06
3.82484e-08
1.26879e-08
3.85485e-09
1.69296e-08
9.75553e-09
5.88641e-09
2.36815e-08
4.98155e-09
1.37319e-09
7.57108e-09
5.78111e-09
2.1344e-08
2.37474e-08
5.09668e-09
1.23473e-09
6.47844e-09
1.64492e-08
3.04727e-09
1.09749e-07
6.22123e-08
0.211004
0.888458
0.993577
0.997546
0.91035
1
1
1
1
1
1
1
1
1
1
1
1
1
1
1
1
1
1
1
1
1
1
1
1
1
1
1
1
1
1
1
1
1
1
1
1
1
1
1
1
1
1
1
1
1
1
1
1
1
1
1
1
1
1
1
1
1
0.986544
1
1
1
1
0.401294
1
1
1
1
1
1
1
1
1
0.0279324
5.66362e-05
7.21843e-08
1.38238e-08
2.6624e-08
4.16615e-08
4.69766e-08
1.80318e-09
2.06472e-09
6.5853e-09
1.26017e-09
1.70309e-08
2.02578e-08
2.38291e-08
3.80307e-09
3.21875e-08
6.3171e-09
1.53025e-09
3.26232e-08
1.2802e-08
1.0989e-07
1.30408e-07
0.219272
0.897131
0.995247
0.999612
0.998316
0.999338
1
1
1
1
1
1
1
1
1
1
1
1
1
1
1
1
1
1
1
1
1
1
1
1
1
1
1
1
1
1
1
1
1
1
1
1
1
1
1
1
1
1
1
1
1
1
1
1
1
1
1
1
1
1
1
1
1
1
1
1
1
1
1
1
1
1
1
1
1
1
1
0.187136
0.000397888
9.69645e-07
7.95858e-09
1.18742e-08
6.01704e-09
4.98547e-08
3.64901e-08
9.28482e-09
1.29924e-08
6.03077e-09
2.59754e-08
1.06269e-08
2.57309e-08
1.25211e-08
2.30737e-08
8.82298e-09
1.66014e-09
6.87317e-09
2.8298e-08
1.02247e-07
1.05425e-07
0.226416
0.90672
0.996148
0.999775
0.999936
0.995598
0.999999
1
1
1
1
1
1
1
1
1
1
1
1
1
1
1
1
1
1
1
1
1
1
1
1
1
1
1
1
1
1
1
1
1
1
1
1
1
1
1
1
1
1
1
1
1
1
1
1
1
1
1
1
1
1
1
1
1
1
1
1
0.996497
0.999913
1
1
1
1
1
1
1
1
0.81847
0.00282732
6.70646e-06
4.48028e-09
3.34049e-09
6.40995e-10
7.59381e-09
4.09588e-08
1.27793e-08
2.43496e-08
2.15078e-08
6.76975e-09
7.47304e-09
3.80066e-08
4.26616e-08
1.73977e-08
2.67244e-09
2.1099e-08
2.85249e-08
1.42925e-08
3.27547e-08
1.72806e-07
0.232315
0.914065
0.996863
0.999846
0.999972
0.999943
0.940255
1
1
1
1
1
1
1
1
1
1
1
1
1
1
1
1
1
1
1
1
1
1
1
1
1
1
1
1
1
1
1
1
1
1
1
1
1
1
1
1
1
1
1
1
1
1
1
1
1
1
1
1
0.999993
1
1
1
1
1
0.999651
1
1
0.00284579
1
0.84087
1
1
1
1
1
1
1
0.0208434
3.51848e-05
1.20752e-07
2.03227e-08
3.67681e-09
3.4222e-09
3.53632e-09
2.09925e-08
8.82537e-09
2.55181e-08
3.67099e-10
6.08037e-11
8.37989e-10
4.82221e-08
1.10008e-08
3.10781e-08
9.37825e-09
3.22798e-09
6.00231e-10
1.31426e-07
3.62701e-08
0.238378
0.919836
0.997347
0.999886
0.999984
0.999982
0.999681
0.394394
1
1
1
1
1
1
1
1
1
1
1
1
1
1
1
1
1
1
1
1
1
1
1
1
1
1
1
1
1
1
1
1
1
1
1
1
1
1
1
1
1
1
1
1
1
1
1
1
1
1
1
1
1
1
1
1
1
0.820899
1
1
1
1
1
1
1
1
1
1
1
1
0.141623
0.000199038
8.29189e-07
8.93513e-09
2.209e-08
2.49173e-08
2.61492e-09
1.65602e-08
9.04389e-09
4.46375e-11
1.30106e-08
3.017e-08
1.02745e-08
1.3901e-08
3.17454e-08
6.95365e-08
1.16832e-08
1.38818e-08
9.78415e-09
5.57417e-08
1.50127e-07
0.24466
0.92529
0.997697
0.99991
0.999989
0.999991
0.999927
0.993711
0.989359
1
1
1
1
1
1
1
1
1
1
1
1
1
1
1
1
1
1
1
1
1
1
1
1
1
1
1
1
1
1
1
1
1
1
1
1
1
1
1
1
1
1
1
1
1
1
1
1
1
1
1
1
1
1
1
0.997305
0.999983
1
1
1
1
0.999667
1
1
1
1
1
1
0.999982
0.66734
0.00148621
4.01337e-06
5.12327e-08
1.91099e-08
8.73528e-09
9.39319e-09
1.18262e-08
1.42745e-08
3.30471e-08
1.80722e-08
2.34335e-09
5.08201e-09
1.73744e-08
4.79743e-08
7.36214e-08
2.41314e-08
1.93656e-09
3.50458e-09
2.95194e-08
1.09515e-07
0.251327
0.930643
0.998001
0.999926
0.999991
0.999993
0.999966
0.999007
0.842552
0.999755
1
1
1
1
1
1
1
1
1
1
1
1
1
1
1
1
1
1
1
1
1
1
1
1
1
1
1
1
1
1
1
1
1
1
1
1
1
1
1
1
1
1
1
1
1
1
1
1
1
1
1
1
1
1
0.999995
1
1
1
1
1
1
1
1
1
1
1
1
1
0.999482
0.0111822
1.36488e-05
1.26056e-07
1.36761e-08
1.41798e-09
2.03715e-08
2.04896e-08
1.84425e-08
4.30881e-08
1.76173e-08
3.99913e-08
1.24305e-09
7.98926e-08
1.77731e-08
2.99497e-08
2.99176e-08
2.64235e-09
1.94477e-08
1.55561e-09
2.67376e-08
0.258137
0.935764
0.998284
0.999939
0.999993
0.999995
0.999976
0.999581
0.983025
0.0127822
0.999988
1
1
1
1
1
1
1
1
1
1
1
1
1
1
1
1
1
1
1
1
1
1
1
1
1
1
1
1
1
1
1
1
1
1
1
1
1
1
1
1
1
1
1
1
1
1
1
1
1
1
1
0.999999
1
1
1
1
1
1
1
1
1
1
1
1
1
1
1
0.999996
0.0741434
6.28682e-05
5.11062e-07
1.09798e-08
3.29048e-08
2.29693e-08
3.58413e-09
2.7463e-08
2.43847e-08
2.37057e-08
2.55711e-08
1.61317e-08
7.54876e-08
5.89273e-09
6.80033e-09
1.81551e-08
2.59669e-08
1.75251e-08
1.41219e-08
4.08515e-08
0.264905
0.94076
0.998526
0.99995
0.999994
0.999996
0.999979
0.999713
0.993525
0.831545
0.751286
0.999999
1
1
1
1
1
1
1
1
1
1
1
1
1
1
1
1
1
1
1
1
1
1
1
1
1
1
1
1
1
1
1
1
1
1
1
1
1
1
1
1
1
1
1
1
1
1
1
1
1
1
1
1
1
1
1
1
1
1
1
1
1
1
1
1
1
1
1
0.411141
0.000496004
1.7204e-06
2.4418e-08
1.84099e-08
3.61918e-08
2.89258e-09
1.33151e-08
1.07893e-08
1.76763e-08
9.35027e-09
4.02399e-08
7.99526e-09
1.47251e-08
6.44502e-08
2.24869e-09
3.61568e-08
2.0011e-08
2.75154e-08
3.20849e-08
0.271338
0.945332
0.998742
0.999959
0.999995
0.999996
0.999982
0.999753
0.995809
0.937
0.322089
0.930075
1
1
1
1
1
1
1
1
1
1
1
1
1
1
1
1
1
1
1
1
1
1
1
1
1
1
1
1
1
1
1
1
1
1
1
1
1
1
1
1
1
1
1
1
1
1
1
1
1
0.998935
1
1
1
1
0.992688
1
1
1
1
1
1
1
1
1
1
1
1
0.976683
0.00433286
2.62386e-06
1.31916e-07
6.68568e-09
8.17934e-09
5.67313e-09
7.33754e-09
2.29884e-08
1.41531e-08
4.3446e-09
1.1852e-08
2.11615e-08
8.41792e-09
1.42151e-07
2.20206e-08
2.10922e-08
1.47262e-10
4.12835e-08
3.29574e-08
0.277401
0.949403
0.998924
0.999967
0.999996
0.999997
0.999984
0.999786
0.996547
0.96097
0.701988
0.24968
0.97524
1
1
1
1
1
1
1
1
1
1
1
1
1
1
1
1
1
1
1
1
1
1
1
1
1
1
1
1
1
1
1
1
1
1
1
1
1
1
1
1
1
1
1
1
1
1
1
1
1
1
1
1
1
0.999866
1
1
1
1
1
1
1
1
1
1
1
1
1
0.0315869
5.44886e-06
2.04411e-07
1.60069e-08
3.98565e-09
7.09002e-09
3.79888e-08
1.61922e-08
1.19805e-08
4.35038e-08
1.74253e-08
3.49878e-08
6.95012e-09
1.17287e-07
1.9306e-08
2.16385e-08
1.26946e-08
8.90703e-08
3.00696e-08
0.283033
0.953107
0.999071
0.999973
0.999997
0.999997
0.999986
0.99981
0.997107
0.9694
0.812005
0.283303
0.582873
0.990301
1
1
1
1
1
1
1
1
1
1
1
1
1
1
1
1
1
1
1
1
1
1
1
1
1
1
1
1
1
1
1
1
1
1
1
1
1
1
1
1
1
1
1
1
1
1
1
1
1
0.984689
1
0.607304
1
1
1
1
1
1
1
0.999995
1
1
1
1
1
1
0.179803
0.000104387
1.62514e-06
1.73732e-08
4.40389e-08
2.61929e-09
1.50269e-08
1.37166e-09
3.32271e-09
6.47377e-08
8.88808e-09
5.19852e-08
2.62103e-08
3.53932e-08
4.87527e-09
4.16766e-08
2.65481e-08
4.75079e-08
5.66734e-08
0.28829
0.956202
0.999199
0.999978
0.999997
0.999998
0.999987
0.999827
0.997485
0.975129
0.85555
0.50906
0.106201
0.751287
0.996282
1
1
1
1
1
1
1
1
1
1
1
1
1
1
1
1
1
1
1
1
1
1
1
1
1
1
1
1
1
1
1
1
1
1
1
1
1
1
1
1
1
1
1
1
1
1
1
1
1
0.997135
1
1
1
1
1
1
1
1
1
1
1
1
1
1
1
0.675919
0.00125116
4.06514e-06
3.48213e-08
1.27749e-08
1.05465e-08
1.91619e-08
3.10225e-09
1.51996e-08
4.88923e-08
1.24671e-08
4.38303e-08
2.02841e-08
1.76569e-08
3.50735e-09
7.72179e-08
9.34265e-09
5.2658e-08
9.15821e-08
0.293251
0.958987
0.9993
0.999982
0.999998
0.999998
0.999988
0.999839
0.997742
0.978849
0.883469
0.614579
0.167146
0.371517
0.843702
0.998748
1
1
1
1
1
1
1
1
1
1
1
1
1
1
1
1
1
1
1
1
1
1
1
1
1
1
1
1
1
1
1
1
1
1
1
1
1
1
1
1
1
1
1
1
1
1
1
1
1
1
1
1
1
1
1
1
1
1
1
1
1
1
1
1
0.997197
0.00887274
1.15228e-05
2.39099e-07
3.8294e-08
2.50851e-08
4.99131e-08
2.99749e-08
1.34468e-08
2.76205e-08
2.13052e-08
2.05716e-08
2.88323e-09
4.93785e-08
3.56697e-09
6.94721e-10
1.15056e-08
1.32823e-07
2.35299e-08
0.298071
0.961573
0.999386
0.999985
0.999998
0.999998
0.999989
0.999848
0.997905
0.98133
0.901541
0.682881
0.317994
0.107659
0.541971
0.900615
0.999661
1
1
1
1
1
1
1
1
1
1
1
1
1
1
1
1
1
1
1
1
1
1
1
1
1
1
1
1
1
1
1
1
1
1
1
1
1
1
1
1
1
1
1
1
1
1
1
1
1
1
1
1
1
1
1
1
1
1
1
1
1
1
1
1
0.0469561
8.11183e-06
2.00567e-06
8.85493e-08
6.29991e-09
2.79955e-08
3.54738e-08
1.12432e-08
1.03454e-08
4.0593e-08
8.70315e-09
7.68388e-09
4.25539e-08
2.36135e-08
3.97184e-08
1.59772e-08
1.34209e-07
1.4897e-07
0.302958
0.963963
0.999463
0.999987
0.999998
0.999998
0.99999
0.999855
0.998026
0.982928
0.913605
0.728904
0.420567
0.0567512
0.303369
0.65688
0.938393
0.999933
1
1
1
1
1
1
1
1
1
1
1
1
1
1
1
1
1
1
1
1
1
1
1
1
1
1
1
1
1
1
1
1
1
1
1
1
1
1
1
1
1
1
1
1
1
1
1
1
1
1
1
1
1
1
1
1
1
1
1
1
1
1
1
0.214392
0.000182255
7.24683e-06
4.0838e-09
3.03286e-09
5.17664e-10
3.18419e-08
2.78527e-08
1.12905e-08
3.38923e-08
1.63179e-08
1.26482e-08
2.23342e-08
3.23871e-08
1.18325e-08
4.05027e-09
3.49185e-08
1.49481e-07
0.308142
0.966274
0.99953
0.999989
0.999999
0.999999
0.999991
0.999863
0.998123
0.984097
0.921639
0.760245
0.4929
0.173932
0.141824
0.442619
0.740169
0.964248
0.999992
1
1
1
1
1
1
1
1
1
1
1
1
1
1
1
1
1
1
1
1
1
1
1
1
1
1
1
1
1
1
1
1
1
1
1
1
1
1
1
1
1
1
1
1
1
1
1
1
1
1
1
1
1
1
1
1
1
1
1
1
1
1
0.712761
0.00145637
1.12991e-05
1.60434e-07
8.01208e-09
1.03888e-08
2.57224e-08
3.43264e-08
2.86569e-08
6.16872e-10
1.49093e-08
4.41874e-09
2.00765e-08
1.12938e-08
5.78896e-08
1.05689e-08
2.88113e-08
7.24714e-08
0.313821
0.968592
0.999592
0.999991
0.999999
0.999999
0.999992
0.999874
0.998224
0.984998
0.927525
0.781986
0.544382
0.26001
0.0235198
0.288926
0.54651
0.805108
0.981297
0.999999
1
1
1
1
1
1
1
1
1
1
1
1
1
1
1
1
1
1
1
1
1
1
1
1
1
1
1
1
1
1
1
1
1
1
1
1
1
1
1
1
1
1
1
1
1
1
1
1
1
1
1
1
1
1
1
1
1
1
1
1
1
0.996784
0.00856661
1.3839e-05
8.44944e-07
9.521e-09
3.52325e-08
9.44522e-09
1.29161e-08
2.47773e-08
1.94139e-08
1.29194e-08
2.7431e-09
8.41473e-09
5.23339e-08
7.12499e-08
1.31664e-08
5.42292e-08
2.78573e-08
0.320167
0.970966
0.999649
0.999993
0.999999
0.999999
0.999993
0.999887
0.998355
0.985884
0.932054
0.797884
0.581312
0.323419
0.0660161
0.174257
0.401074
0.629158
0.857871
0.991538
1
1
1
1
1
1
1
1
1
1
1
1
1
1
1
1
1
1
1
1
1
1
1
1
1
1
1
1
1
1
1
1
1
1
1
1
1
1
1
1
1
1
1
1
1
1
1
1
1
1
1
1
1
1
1
1
1
1
1
1
1
1
0.0405916
8.52175e-06
2.6835e-06
1.80856e-08
1.34682e-08
1.05772e-08
2.8585e-09
1.66717e-08
4.35246e-08
1.07447e-08
5.1792e-09
7.44685e-09
5.17507e-08
3.57872e-08
1.59106e-08
4.19575e-08
7.13462e-09
0.327271
0.973389
0.999702
0.999994
0.999999
0.999999
0.999994
0.999901
0.998509
0.986895
0.936165
0.810408
0.608963
0.370616
0.133657
0.0861419
0.290843
0.490526
0.698447
0.901157
0.996886
1
1
1
1
1
1
1
1
1
1
1
1
1
1
1
1
1
1
1
1
1
1
1
1
1
1
1
1
1
1
1
1
1
1
1
1
1
1
1
1
1
1
1
0.999998
0.999858
1
1
1
1
1
1
1
1
1
1
1
1
1
1
1
1
0.161593
0.000147647
7.22356e-06
6.7408e-08
5.36862e-09
1.64456e-08