/*--------------------------------*- C++ -*----------------------------------*\
| =========                 |                                                 |
| \\      /  F ield         | OpenFOAM: The Open Source CFD Toolbox           |
|  \\    /   O peration     | Version:  v2012                                 |
|   \\  /    A nd           | Website:  www.openfoam.com                      |
|    \\/     M anipulation  |                                                 |
\*---------------------------------------------------------------------------*/
FoamFile
{
    version     2.0;
    format      ascii;
    class       volScalarField;
    location    "13600";
    object      rho;
}
// * * * * * * * * * * * * * * * * * * * * * * * * * * * * * * * * * * * * * //

dimensions      [1 -3 0 0 0 0 0];


internalField   nonuniform List<scalar> 
39402
(
0.0372297
0.0404225
0.0350424
0.0330649
0.0365733
0.0362269
0.0321441
0.0308284
0.0341334
0.0387271
0.0316556
0.0301477
0.0291656
0.0325508
0.0419674
0.031645
0.0296878
0.0286617
0.0278933
0.0315517
0.0457778
0.0319338
0.0296958
0.0282574
0.0275359
0.0269071
0.0310077
0.0499806
0.0321946
0.0299779
0.0283103
0.0272079
0.0266874
0.0261446
0.0308465
0.0545316
0.0323703
0.0302455
0.0286067
0.0273262
0.0264582
0.0260691
0.0255695
0.0310358
0.0594087
0.0324622
0.0304348
0.0288911
0.0276531
0.0266615
0.0259623
0.0256495
0.0251611
0.0315648
0.0645663
0.032524
0.0305496
0.0290956
0.0279633
0.0270342
0.026267
0.0256826
0.0254026
0.0249126
0.0324482
0.0700435
0.0325581
0.0306365
0.0292294
0.0281855
0.0273792
0.0266973
0.026096
0.0255792
0.0253051
0.0248271
0.0337094
0.0758359
0.0325813
0.0306959
0.0293343
0.0283366
0.0276216
0.0270839
0.026588
0.026096
0.0256136
0.0253386
0.0249163
0.0353979
0.081942
0.032574
0.030744
0.0294098
0.0284553
0.0277894
0.0273486
0.0270178
0.0266462
0.0262193
0.0257584
0.0254965
0.0252033
0.0375637
0.0884024
0.0325775
0.0307614
0.0294723
0.028541
0.0279192
0.0275327
0.0273048
0.0271154
0.0268192
0.0264336
0.0260007
0.0257817
0.0257222
0.0402812
0.0952602
0.0325846
0.0307864
0.0295042
0.0286111
0.0280111
0.0276705
0.0275041
0.027423
0.0273217
0.0270734
0.026722
0.0263333
0.026205
0.0265225
0.0436247
0.102543
0.0325861
0.0308124
0.0295412
0.0286505
0.0280837
0.0277664
0.0276477
0.0276352
0.0276469
0.0276026
0.027391
0.0270743
0.0267519
0.0267844
0.0276727
0.0476852
0.11027
0.0325833
0.0308329
0.0295778
0.0286931
0.0281254
0.0278385
0.0277458
0.0277833
0.0278696
0.0279422
0.0279399
0.0277602
0.0274851
0.0272527
0.027521
0.0292617
0.0525459
0.118546
0.0325821
0.0308479
0.0296081
0.028734
0.0281684
0.0278785
0.0278154
0.0278817
0.0280207
0.0281727
0.0282907
0.0283216
0.028174
0.0279531
0.0278326
0.0284007
0.0314015
0.0583455
0.127591
0.0325464
0.030862
0.0296324
0.0287678
0.0282089
0.0279181
0.0278516
0.0279481
0.0281183
0.0283254
0.0285263
0.0286801
0.0287401
0.0286296
0.0284791
0.0285116
0.0294585
0.0342315
0.0652219
0.137475
0.032528
0.0308451
0.0296548
0.0287954
0.0282414
0.0279543
0.0278856
0.0279794
0.0281809
0.0284212
0.0286789
0.0289174
0.0291024
0.0291921
0.0291276
0.0290703
0.0293006
0.030757
0.037898
0.073446
0.148183
0.0325484
0.0308435
0.0296479
0.028821
0.0282673
0.0279817
0.0279154
0.028007
0.0282068
0.0284791
0.0287717
0.0290684
0.0293382
0.0295531
0.0296777
0.0296716
0.029735
0.0302336
0.0323716
0.0425633
0.082531
0.158921
0.0325106
0.0308759
0.0296545
0.0288174
0.0282907
0.0280023
0.0279356
0.0280296
0.0282276
0.0284991
0.0288239
0.0291572
0.0294857
0.029784
0.0300303
0.0301983
0.0302686
0.0304992
0.0313485
0.0344191
0.0483617
0.0923294
0.167636
0.0324996
0.0308542
0.0296926
0.0288262
0.0282854
0.02802
0.0279488
0.0280421
0.0282429
0.0285128
0.0288373
0.0292028
0.0295692
0.029926
0.0302533
0.0305354
0.0307582
0.0309276
0.0313698
0.0326939
0.0370725
0.0553715
0.103203
0.173451
0.0324839
0.0308562
0.0296799
0.0288653
0.0282919
0.0280088
0.0279587
0.0280471
0.0282476
0.0285204
0.0288434
0.029209
0.0296072
0.0300028
0.0303872
0.030746
0.031071
0.0313635
0.031665
0.0323846
0.0343177
0.0405904
0.0637655
0.114997
0.175157
0.0324725
0.0308543
0.0296885
0.0288561
0.0283282
0.0280094
0.0279394
0.0280483
0.0282445
0.0285172
0.0288429
0.029207
0.0296056
0.0300322
0.0304554
0.0308688
0.0312639
0.0316421
0.0320251
0.0324967
0.0335816
0.0362786
0.0453624
0.0735912
0.127018
0.174685
0.0324556
0.0308555
0.0296934
0.0288666
0.0283176
0.0280399
0.0279319
0.0280202
0.0282371
0.028506
0.0288315
0.0291981
0.029595
0.0300218
0.0304749
0.0309264
0.031372
0.0318104
0.0322552
0.0327541
0.0334521
0.035016
0.0387048
0.0519126
0.0847795
0.137979
0.172943
0.032449
0.0308509
0.0297008
0.0288731
0.0283257
0.0280241
0.027955
0.0280042
0.0282003
0.0284901
0.0288121
0.0291782
0.0295773
0.0300021
0.0304549
0.0309345
0.0314163
0.0318991
0.0323906
0.0329193
0.0335702
0.0345641
0.0367568
0.0419026
0.0608174
0.0966906
0.147974
0.170164
0.0324294
0.0308544
0.0297025
0.0288823
0.0283301
0.0280267
0.0279319
0.0280194
0.028176
0.0284446
0.0287875
0.0291504
0.0295488
0.0299751
0.0304252
0.0309036
0.0314111
0.0319268
0.032454
0.0330109
0.0336471
0.0344965
0.0358853
0.0388946
0.0463537
0.07215
0.108654
0.156034
0.166738
0.0324183
0.0308464
0.0297112
0.0288858
0.0283372
0.0280257
0.027927
0.0279882
0.0281835
0.028412
0.0287332
0.0291171
0.0295124
0.0299376
0.0303882
0.0308629
0.0313678
0.0319062
0.0324609
0.0330415
0.0336805
0.0344545
0.0355651
0.0374748
0.0415238
0.0527593
0.0853277
0.119921
0.163306
0.162361
0.0323993
0.0308462
0.0297091
0.028896
0.0283388
0.0280277
0.0279188
0.0279753
0.0281442
0.0284119
0.0286924
0.0290541
0.0294702
0.0298924
0.0303413
0.0308153
0.031315
0.0318484
0.032422
0.0330226
0.0336683
0.0344108
0.035364
0.0368213
0.0394168
0.0448911
0.0620055
0.0990507
0.130585
0.169515
0.157509
0.0324037
0.0308378
0.0297141
0.0288956
0.0283473
0.0280244
0.0279139
0.0279595
0.0281232
0.0283648
0.0286847
0.029005
0.0293985
0.0298411
0.0302871
0.0307584
0.0312558
0.0317821
0.0323475
0.0329615
0.0336169
0.0343433
0.0352173
0.0364051
0.0383239
0.0418157
0.0495381
0.0746448
0.111219
0.140567
0.174267
0.152578
0.032392
0.0308501
0.029711
0.0289016
0.0283448
0.0280282
0.0279042
0.0279471
0.0280999
0.0283359
0.0286298
0.0289899
0.0293412
0.0297605
0.0302264
0.0306945
0.0311881
0.0317102
0.0322658
0.0328675
0.033529
0.0342504
0.0350772
0.0361206
0.0376187
0.0401529
0.0448034
0.0564288
0.0898337
0.119258
0.149689
0.17703
0.148133
0.0323682
0.0308475
0.0297268
0.0289
0.0283488
0.0280215
0.0279014
0.02793
0.0280803
0.0283053
0.0285931
0.0289272
0.0293186
0.029695
0.0301367
0.030624
0.031114
0.0316308
0.0321797
0.0327681
0.0334118
0.0341297
0.0349316
0.0358849
0.0371483
0.0390605
0.0424084
0.0486506
0.0667184
0.105398
0.125674
0.157731
0.178168
0.144494
0.0323514
0.0308337
0.0297289
0.0289164
0.0283456
0.0280211
0.0278885
0.02792
0.028056
0.0282787
0.0285553
0.0288828
0.0292482
0.0296649
0.0300627
0.030525
0.0310333
0.0315456
0.0320873
0.0326661
0.0332918
0.0339847
0.0347703
0.0356715
0.0367858
0.0383383
0.0408041
0.0452156
0.0540417
0.0811794
0.117766
0.132329
0.163361
0.177698
0.141595
0.0323384
0.0308256
0.02972
0.0289196
0.0283602
0.0280137
0.0278822
0.0279005
0.0280391
0.0282475
0.0285217
0.0288378
0.0291962
0.0295869
0.0300251
0.0304424
0.0309244
0.031454
0.0319901
0.0325593
0.0331717
0.0338405
0.0345915
0.0354592
0.0364843
0.0378063
0.039743
0.0429478
0.0487217
0.0622342
0.0991093
0.126256
0.139009
0.167403
0.176504
0.139098
0.0323375
0.0308196
0.0297163
0.0289123
0.0283619
0.0280243
0.0278692
0.0278879
0.0280128
0.0282238
0.0284838
0.0287975
0.0291441
0.0295272
0.0299393
0.0303971
0.0308329
0.0313348
0.0318867
0.0324487
0.0330488
0.0336997
0.0344187
0.035239
0.0362071
0.0373889
0.0389827
0.0414333
0.0456074
0.0533608
0.0744295
0.115037
0.131735
0.145287
0.169808
0.173525
0.137516
0.0323384
0.0308246
0.0297137
0.0289098
0.0283533
0.0280224
0.0278746
0.0278686
0.0279939
0.0281911
0.0284533
0.0287529
0.0290971
0.0294681
0.0298719
0.0303033
0.0307795
0.0312339
0.0317565
0.0323325
0.0329232
0.0335583
0.0342539
0.0350319
0.0359355
0.0370282
0.0384113
0.0403649
0.0435049
0.0489357
0.0601229
0.0920458
0.12717
0.135817
0.151201
0.171271
0.168827
0.13676
0.0323168
0.0308313
0.0297213
0.0289083
0.0283495
0.0280101
0.0278679
0.0278685
0.0279686
0.0281661
0.0284143
0.0287159
0.029046
0.0294145
0.0298057
0.0302281
0.0306776
0.0311721
0.0316458
0.0321906
0.0327931
0.0334158
0.0340912
0.0348388
0.035687
0.0366919
0.037941
0.0395865
0.0420219
0.0460764
0.0531807
0.0705717
0.111483
0.134615
0.139513
0.156587
0.171981
0.162441
0.136322
0.0322856
0.0308184
0.0297304
0.0289162
0.0283472
0.0280033
0.0278507
0.0278564
0.0279631
0.0281351
0.0283834
0.0286706
0.0290025
0.029357
0.0297456
0.0301547
0.0305943
0.0310616
0.031575
0.0320693
0.0326384
0.0332702
0.0339294
0.0346513
0.03546
0.0363925
0.0375223
0.0389707
0.0409632
0.0440457
0.0492878
0.0590718
0.0857201
0.126756
0.137734
0.143054
0.159842
0.172704
0.156601
0.136058
0.0322721
0.030796
0.0297218
0.0289256
0.0283536
0.0279986
0.0278392
0.027834
0.0279457
0.0281243
0.0283468
0.0286338
0.0289511
0.029307
0.0296816
0.030088
0.0305137
0.0309701
0.0314555
0.0319888
0.0325057
0.0331016
0.0337664
0.0344672
0.0352434
0.0361248
0.0371595
0.0384452
0.040152
0.0426087
0.0465534
0.0533016
0.0680396
0.106054
0.135759
0.140384
0.146551
0.162995
0.17167
0.151404
0.135905
0.0322724
0.0307893
0.0297038
0.0289182
0.0283615
0.028002
0.0278307
0.0278174
0.0279179
0.0281018
0.0283309
0.0285918
0.0289085
0.0292495
0.0296253
0.0300176
0.0304402
0.030882
0.0313554
0.0318597
0.0324146
0.0329564
0.0335824
0.0342847
0.0350334
0.0358732
0.0368418
0.0380025
0.039486
0.0415328
0.0446139
0.049678
0.0586752
0.0814704
0.124987
0.140644
0.142788
0.149905
0.165194
0.170329
0.147158
0.135796
0.032271
0.0307947
0.0297003
0.0289016
0.028353
0.0280071
0.0278308
0.0278045
0.0278965
0.028069
0.0283035
0.0285708
0.0288611
0.0292012
0.0295617
0.0299549
0.0303632
0.0308015
0.0312594
0.0317506
0.0322751
0.0328537
0.0334234
0.0340834
0.0348285
0.0356329
0.0365481
0.0376226
0.0389404
0.0406797
0.0431801
0.0470956
0.0535794
0.066645
0.100962
0.136579
0.142595
0.144441
0.152338
0.166909
0.167733
0.143462
0.135713
0.0322606
0.0307972
0.0297078
0.0288989
0.0283356
0.0279957
0.0278322
0.0278008
0.0278788
0.0280428
0.0282657
0.0285385
0.0288351
0.0291485
0.0295077
0.0298851
0.030294
0.0307177
0.0311717
0.0316464
0.0321565
0.032703
0.0333079
0.033909
0.0346077
0.0354024
0.0362719
0.0372772
0.0384816
0.0399993
0.0420748
0.0451844
0.0501883
0.0587087
0.0788182
0.121787
0.142062
0.144241
0.14576
0.154607
0.167474
0.164491
0.14059
0.135647
0.0322572
0.0307914
0.0297119
0.0289068
0.0283319
0.0279759
0.027817
0.0277982
0.0278711
0.0280206
0.0282349
0.0284959
0.0287981
0.0291176
0.0294498
0.0298254
0.0302181
0.0306418
0.0310809
0.031551
0.0320436
0.0325742
0.0331448
0.0337791
0.034416
0.035159
0.0360114
0.0369579
0.0380722
0.0394385
0.0412148
0.0437393
0.0476642
0.0540494
0.0660912
0.097017
0.136439
0.144946
0.145567
0.146981
0.157257
0.167396
0.15996
0.138434
0.135595
0.0322484
0.0307915
0.0297081
0.0289111
0.0283389
0.02797
0.0277936
0.0277791
0.0278646
0.0280089
0.0282083
0.0284605
0.0287506
0.0290758
0.0294139
0.0297622
0.0301526
0.0305596
0.0309981
0.0314528
0.0319401
0.0324521
0.0330052
0.0336026
0.0342699
0.0349477
0.035742
0.0366621
0.0377006
0.0389482
0.0405199
0.0426367
0.0457652
0.0507546
0.0590547
0.0774711
0.118583
0.143272
0.146032
0.146374
0.147951
0.160062
0.166904
0.154955
0.137013
0.135562
0.0322275
0.0307868
0.0297093
0.0289075
0.0283424
0.0279751
0.0277847
0.0277517
0.0278418
0.0279986
0.0281926
0.0284295
0.0287107
0.0290237
0.0293674
0.0297215
0.030084
0.0304883
0.0309094
0.0313628
0.031834
0.0323398
0.0328731
0.0334515
0.034079
0.0347834
0.035508
0.0363622
0.0373626
0.0385124
0.0399257
0.0417627
0.0443345
0.0482727
0.0546125
0.066138
0.0945401
0.135562
0.145976
0.146891
0.146441
0.149357
0.161925
0.16633
0.149629
0.136336
0.135542
0.0322073
0.0307717
0.029706
0.0289085
0.0283381
0.0279771
0.0277874
0.0277395
0.0278106
0.0279724
0.0281787
0.0284099
0.0286754
0.0289793
0.0293107
0.0296702
0.0300383
0.0304142
0.0308321
0.0312675
0.0317365
0.0322253
0.0327514
0.0333087
0.0339155
0.0345766
0.0353229
0.0361016
0.0370261
0.0381228
0.0394094
0.0410327
0.0432182
0.0464027
0.051398
0.0595784
0.0770823
0.115845
0.14401
0.147638
0.146986
0.146532
0.151501
0.16366
0.164461
0.144576
0.135996
0.135531
0.0321996
0.0307572
0.0296935
0.0289051
0.0283377
0.0279712
0.0277874
0.0277394
0.0277953
0.0279376
0.0281491
0.0283923
0.028652
0.0289397
0.0292619
0.0296087
0.0299822
0.0303635
0.0307524
0.031184
0.0316343
0.03212
0.0326279
0.0331769
0.0337612
0.0343995
0.0350985
0.0358925
0.0367343
0.0377424
0.038956
0.0404133
0.0423078
0.0449585
0.0489632
0.0552972
0.0665573
0.0931933
0.134871
0.147151
0.147785
0.146935
0.14687
0.15378
0.164267
0.161743
0.14072
0.135785
0.135524
0.0322053
0.0307546
0.0296817
0.0288932
0.0283333
0.0279689
0.0277793
0.0277368
0.0277922
0.0279191
0.0281109
0.0283594
0.0286308
0.0289125
0.029218
0.0295556
0.0299161
0.0303025
0.0306964
0.0310985
0.0315444
0.0320105
0.0325145
0.0330439
0.0336184
0.0342326
0.0349063
0.0356479
0.0364973
0.0374132
0.0385216
0.0398793
0.041554
0.0438058
0.0470814
0.0521529
0.0603037
0.0773213
0.11439
0.14462
0.148366
0.147926
0.146926
0.147144
0.157008
0.164196
0.156628
0.138187
0.13565
0.13552
0.0322106
0.030764
0.0296814
0.0288823
0.0283207
0.0279627
0.0277745
0.0277262
0.0277868
0.0279133
0.0280893
0.0283177
0.0285945
0.0288876
0.0291871
0.0295075
0.0298586
0.0302316
0.0306304
0.0310371
0.0314528
0.031914
0.0323975
0.0329218
0.0334752
0.0340777
0.0347251
0.0354387
0.0362289
0.0371437
0.0381473
0.0393775
0.0409158
0.042873
0.0456028
0.0497125
0.0561261
0.0673336
0.0930627
0.134531
0.147866
0.148556
0.147645
0.146896
0.148413
0.159426
0.163967
0.150845
0.136715
0.135578
0.135519
0.0322062
0.0307722
0.0296922
0.0288825
0.0283092
0.0279483
0.0277661
0.0277189
0.0277737
0.027905
0.0280808
0.0282931
0.0285495
0.028848
0.0291585
0.0294728
0.0298062
0.0301697
0.0305547
0.0309659
0.0313856
0.0318159
0.0322941
0.032797
0.0333437
0.0339233
0.0345569
0.0352416
0.0360004
0.036847
0.0378395
0.0389481
0.0403284
0.0420973
0.0444289
0.0478026
0.0529904
0.0612389
0.078158
0.114168
0.145115
0.148768
0.148385
0.147444
0.146656
0.150592
0.161499
0.162618
0.144936
0.136054
0.135545
0.135518
0.0321888
0.0307707
0.0297014
0.0288935
0.0283089
0.0279351
0.0277496
0.0277082
0.0277639
0.0278894
0.0280696
0.028282
0.0285219
0.0287998
0.0291156
0.0294405
0.0297677
0.0301131
0.0304884
0.0308852
0.031309
0.0317427
0.0321893
0.0326863
0.0332107
0.0337819
0.0343902
0.0350583
0.035785
0.0365956
0.0375093
0.0385944
0.0398305
0.0413991
0.0434686
0.0463037
0.0505356
0.0570711
0.0684465
0.0941467
0.134774
0.148388
0.148913
0.148261
0.147075
0.146859
0.153045
0.162395
0.15957
0.140462
0.135767
0.135529
0.135518
0.0321652
0.030756
0.0297009
0.0289025
0.0283192
0.0279336
0.0277345
0.0276896
0.0277508
0.027877
0.0280514
0.028268
0.0285081
0.0287693
0.0290642
0.0293942
0.0297317
0.0300706
0.0304274
0.0308143
0.0312232
0.0316603
0.0321096
0.0325744
0.0330923
0.0336398
0.0342379
0.0348781
0.0355848
0.0363592
0.0372303
0.0382243
0.0394211
0.0408146
0.0426244
0.0450925
0.0486068
0.0539399
0.0623591
0.0795443
0.115261
0.145711
0.149012
0.148849
0.148044
0.147103
0.147683
0.156606
0.162271
0.154181
0.137733
0.135622
0.135522
0.135517
0.032145
0.0307353
0.0296871
0.028902
0.0283274
0.0279429
0.0277313
0.0276724
0.0277301
0.0278616
0.0280365
0.0282472
0.0284915
0.0287529
0.0290308
0.0293397
0.029682
0.0300308
0.0303809
0.0307489
0.0311476
0.0315693
0.0320214
0.032488
0.0329727
0.0335132
0.0340862
0.034714
0.0353897
0.0361399
0.0369689
0.0379121
0.0390027
0.0403358
0.0419278
0.0440527
0.0470568
0.0514724
0.0581754
0.0698969
0.0959677
0.135814
0.14864
0.149091
0.148693
0.14788
0.147189
0.149114
0.158801
0.162069
0.147752
0.136361
0.135558
0.135519
0.135517
0.0321288
0.0307179
0.0296676
0.0288883
0.0283263
0.0279499
0.0277392
0.0276674
0.0277109
0.0278388
0.0280188
0.0282296
0.0284679
0.0287335
0.0290118
0.0293035
0.0296243
0.0299777
0.0303372
0.0306983
0.0310777
0.0314889
0.0319248
0.0323936
0.032879
0.0333854
0.0339505
0.0345516
0.0352124
0.0359279
0.0367276
0.0376202
0.0386504
0.039858
0.0413609
0.0432087
0.0457533
0.0494766
0.0550355
0.0637204
0.0814844
0.117525
0.146285
0.149065
0.148947
0.148472
0.147469
0.147231
0.151257
0.160681
0.159514
0.141972
0.135835
0.135532
0.135518
0.135517
0.0321217
0.0307045
0.0296512
0.028869
0.0283122
0.0279478
0.0277451
0.027674
0.0277041
0.0278178
0.0279939
0.0282096
0.0284478
0.0287073
0.0289898
0.0292818
0.0295852
0.0299168
0.0302805
0.0306505
0.0310228
0.0314143
0.0318395
0.0322912
0.0327779
0.0332838
0.0338138
0.0344061
0.0350382
0.035736
0.0364967
0.0373531
0.0383219
0.0394567
0.0408082
0.0425268
0.0447117
0.0478209
0.0524865
0.0594665
0.0717504
0.0986816
0.137585
0.148795
0.149042
0.14876
0.148161
0.147417
0.147542
0.154403
0.160643
0.155163
0.138297
0.135635
0.135522
0.135517
0.135517
0.032123
0.0306997
0.0296387
0.0288526
0.0282924
0.0279328
0.0277416
0.0276786
0.0277092
0.0278094
0.0279712
0.0281826
0.0284253
0.0286844
0.0289608
0.0292571
0.0295611
0.0298748
0.0302164
0.0305901
0.0309708
0.031355
0.0317602
0.0322008
0.0326696
0.0331756
0.0337037
0.0342596
0.0348818
0.0355486
0.0362883
0.0371005
0.0380234
0.0390841
0.0403461
0.0418776
0.0438765
0.0465136
0.0503787
0.0562202
0.0653465
0.0840339
0.120843
0.146958
0.14904
0.148987
0.148659
0.148044
0.147487
0.149025
0.15684
0.160405
0.148301
0.136477
0.135556
0.135519
0.135517
0.135517
0.032142
0.0307036
0.0296347
0.0288402
0.0282753
0.0279122
0.0277253
0.0276736
0.0277125
0.0278132
0.0279613
0.0281582
0.0283962
0.0286595
0.0289351
0.0292254
0.0295337
0.029848
0.0301714
0.0305226
0.0309066
0.0312986
0.0316963
0.0321166
0.0325737
0.0330609
0.0335879
0.0341402
0.0347245
0.03538
0.0360859
0.0368733
0.0377449
0.0387482
0.0399196
0.0413383
0.0431002
0.0454704
0.0487187
0.0535641
0.0609193
0.0740421
0.10228
0.139807
0.148843
0.149044
0.148989
0.148773
0.148048
0.147872
0.150479
0.15933
0.159074
0.142082
0.135809
0.135529
0.135518
0.135517
0.135517
0.0321587
0.0307238
0.0296395
0.028836
0.0282623
0.0278939
0.0277035
0.0276558
0.027706
0.0278151
0.0279638
0.0281467
0.02837
0.0286283
0.0289077
0.0291968
0.029499
0.029818
0.0301421
0.0304748
0.0308357
0.0312305
0.0316354
0.0320481
0.0324845
0.0329593
0.0334663
0.0340161
0.034595
0.0352108
0.0359035
0.0366537
0.0374959
0.0384381
0.0395388
0.0408452
0.0424607
0.0445234
0.0473935
0.051459
0.0575242
0.0673088
0.087237
0.124904
0.147454
0.148967
0.148994
0.149013
0.148759
0.147943
0.14825
0.153835
0.159425
0.153811
0.138053
0.135609
0.135521
0.135517
0.135517
0.135517
0.0321725
0.030743
0.0296597
0.0288407
0.0282573
0.0278798
0.0276836
0.0276325
0.0276865
0.0278071
0.0279643
0.028148
0.0283572
0.0286004
0.0288744
0.0291668
0.0294675
0.0297803
0.0301092
0.0304428
0.0307849
0.031156
0.0315631
0.0319824
0.0324111
0.0328647
0.0333586
0.0338871
0.034462
0.0350702
0.0357211
0.0364555
0.0372563
0.0381627
0.0391907
0.0404098
0.0418835
0.0437519
0.0462153
0.0497583
0.0548708
0.0625939
0.0769558
0.10666
0.141975
0.148773
0.148904
0.148931
0.149007
0.148505
0.147771
0.148812
0.156038
0.158608
0.14713
0.136274
0.135543
0.135518
0.135517
0.135517
0.135517
0.032178
0.0307587
0.0296798
0.0288602
0.0282615
0.0278737
0.0276682
0.0276108
0.0276617
0.0277857
0.0279548
0.0281471
0.0283572
0.0285862
0.0288447
0.0291314
0.0294348
0.0297458
0.0300686
0.0304071
0.0307502
0.0311021
0.0314848
0.0319058
0.0323404
0.0327861
0.0332582
0.0337729
0.034325
0.0349275
0.0355683
0.0362582
0.03704
0.0378992
0.0388826
0.0400155
0.0413803
0.0430658
0.0452664
0.0482692
0.0527011
0.0591136
0.0696934
0.091473
0.129385
0.147875
0.148809
0.148857
0.148927
0.148985
0.148256
0.147561
0.150649
0.158081
0.157061
0.140762
0.135711
0.135524
0.135518
0.135517
0.135517
0.135517
0.0321806
0.0307665
0.029696
0.0288801
0.02828
0.0278771
0.0276608
0.0275939
0.0276384
0.0277593
0.0279315
0.028136
0.028355
0.028585
0.0288291
0.0291
0.0293972
0.0297105
0.0300311
0.0303635
0.0307117
0.0310648
0.0314278
0.0318234
0.032259
0.0327101
0.0331742
0.0336664
0.0342037
0.0347817
0.0354147
0.036092
0.0368259
0.0376618
0.0385897
0.0396673
0.0409287
0.0424761
0.0444365
0.0470823
0.0508081
0.0563525
0.0646359
0.0806384
0.112054
0.144079
0.148738
0.148805
0.148908
0.149082
0.148996
0.148169
0.148163
0.153539
0.158231
0.151316
0.137241
0.135568
0.135519
0.135517
0.135517
0.135517
0.135517
0.0321734
0.0307711
0.0297047
0.028896
0.0282989
0.0278945
0.0276633
0.0275853
0.0276201
0.0277343
0.0279034
0.028111
0.0283424
0.0285815
0.0288268
0.0290831
0.0293641
0.0296706
0.0299929
0.0303228
0.0306649
0.0310234
0.0313877
0.0317631
0.0321725
0.0326238
0.0330925
0.0335766
0.0340906
0.0346527
0.0352594
0.0359264
0.0366448
0.0374286
0.0383268
0.0393383
0.0405308
0.0419517
0.0437334
0.0460587
0.0493054
0.053966
0.0609154
0.0725989
0.0969079
0.133995
0.148299
0.148813
0.148897
0.149112
0.149401
0.149055
0.148247
0.149573
0.156218
0.157877
0.14418
0.135934
0.135529
0.135518
0.135517
0.135517
0.135517
0.135517
0.0321596
0.0307662
0.02971
0.0289047
0.0283141
0.0279121
0.0276796
0.0275869
0.0276103
0.0277146
0.0278767
0.028081
0.0283154
0.0285672
0.028822
0.0290796
0.029346
0.0296357
0.0299507
0.0302817
0.0306209
0.0309735
0.0313435
0.0317203
0.0321086
0.0325328
0.033001
0.0334888
0.0339944
0.0345322
0.0351218
0.0357604
0.0364658
0.0372306
0.0380715
0.039044
0.0401576
0.0414916
0.0431143
0.0452037
0.0480215
0.0520701
0.0578833
0.067017
0.0848316
0.118615
0.145855
0.148753
0.148846
0.149041
0.149324
0.149362
0.148632
0.148491
0.151361
0.157379
0.153659
0.138726
0.135608
0.13552
0.135517
0.135517
0.135517
0.135517
0.135517
0.0321375
0.0307549
0.0297062
0.0289099
0.0283224
0.0279264
0.0276961
0.0276023
0.027611
0.0277035
0.0278556
0.0280526
0.0282836
0.0285384
0.0288061
0.0290735
0.0293414
0.0296165
0.0299141
0.0302371
0.0305767
0.030926
0.0312904
0.0316731
0.0320629
0.0324651
0.0329052
0.0333916
0.0339002
0.0344293
0.0349933
0.0356133
0.0362878
0.0370364
0.0378545
0.038762
0.0398252
0.0410635
0.0425741
0.0444583
0.04696
0.0504412
0.0555111
0.0628833
0.0761478
0.102985
0.138466
0.148458
0.148755
0.148897
0.149174
0.149293
0.149076
0.148374
0.148488
0.153725
0.156878
0.147508
0.136319
0.135536
0.135518
0.135517
0.135517
0.135517
0.135517
0.135517
0.0321116
0.0307356
0.0296962
0.0289065
0.028327
0.0279339
0.0277095
0.0276178
0.0276253
0.0277033
0.0278431
0.02803
0.0282534
0.0285046
0.0287753
0.0290559
0.0293339
0.0296108
0.0298936
0.0301987
0.0305298
0.0308788
0.0312395
0.0316166
0.0320126
0.0324163
0.0328334
0.0332907
0.0337968
0.0343281
0.0348828
0.0354758
0.0361299
0.0368448
0.037643
0.0385225
0.0395105
0.0406847
0.0420773
0.043813
0.0460427
0.0491015
0.0534551
0.0597892
0.0698712
0.0899968
0.125599
0.146977
0.148644
0.148738
0.148982
0.149219
0.149162
0.148692
0.147977
0.149791
0.156161
0.15634
0.140512
0.135665
0.135521
0.135517
0.135517
0.135517
0.135517
0.135517
0.135517
0.0320832
0.0307126
0.0296785
0.0288969
0.0283234
0.0279375
0.0277159
0.0276302
0.0276399
0.0277166
0.027842
0.0280161
0.0282292
0.0284726
0.0287396
0.0290232
0.0293146
0.0296019
0.0298868
0.030177
0.0304895
0.0308295
0.0311891
0.0315621
0.0319527
0.0323627
0.0327813
0.0332146
0.0336905
0.0342181
0.0347741
0.0353571
0.0359823
0.0366748
0.0374357
0.0382909
0.0392437
0.0403303
0.041641
0.0432277
0.0452571
0.0479528
0.0517563
0.0571891
0.0653804
0.0806857
0.109989
0.142305
0.148409
0.14866
0.148847
0.149129
0.149254
0.149134
0.14859
0.148352
0.152268
0.156487
0.149271
0.136881
0.135545
0.135518
0.135517
0.135517
0.135517
0.135517
0.135517
0.135517
0.0320579
0.0306867
0.0296571
0.02888
0.0283136
0.0279333
0.0277185
0.0276358
0.0276514
0.0277306
0.0278545
0.0280141
0.028214
0.0284469
0.0287056
0.0289855
0.0292798
0.0295808
0.0298765
0.0301691
0.0304667
0.0307872
0.0311371
0.0315084
0.0318945
0.0322994
0.0327243
0.033159
0.0336097
0.0341059
0.034657
0.0352402
0.0358543
0.0365158
0.0372517
0.0380656
0.0389876
0.0400303
0.0412377
0.0427189
0.0445559
0.0469772
0.0502986
0.0550577
0.0618977
0.0735121
0.096826
0.132332
0.147732
0.148578
0.148784
0.149048
0.149283
0.149445
0.149392
0.148555
0.149709
0.154983
0.155562
0.142534
0.135757
0.135522
0.135517
0.135517
0.135517
0.135517
0.135517
0.135517
0.135517
0.0320347
0.0306643
0.0296326
0.0288595
0.0282969
0.027923
0.0277134
0.0276372
0.0276563
0.0277413
0.0278679
0.0280257
0.0282111
0.0284301
0.0286783
0.0289495
0.0292401
0.0295439
0.0298536
0.0301574
0.0304575
0.0307632
0.0310929
0.0314538
0.0318373
0.0322373
0.0326573
0.0330983
0.0335503
0.03402
0.0345384
0.0351153
0.0357285
0.0363773
0.0370796
0.0378652
0.0387405
0.0397436
0.0408971
0.0422543
0.043953
0.0461205
0.0490701
0.0532197
0.0591496
0.0682854
0.0860163
0.118567
0.145224
0.148446
0.148717
0.149006
0.149264
0.149452
0.149631
0.149052
0.148831
0.151028
0.15559
0.151498
0.137478
0.135555
0.135518
0.135517
0.135517
0.135517
0.135517
0.135517
0.135517
0.135517
0.0320156
0.030644
0.0296119
0.028836
0.0282766
0.0279059
0.0277022
0.0276314
0.0276566
0.0277454
0.0278777
0.0280385
0.0282217
0.0284263
0.0286601
0.0289204
0.0292021
0.029502
0.0298145
0.0301325
0.0304445
0.030753
0.0310678
0.0314075
0.0317799
0.0321765
0.0325912
0.0330274
0.0334857
0.0339565
0.034447
0.0349898
0.0355952
0.0362417
0.0369294
0.0376781
0.038521
0.0394695
0.0405727
0.041863
0.0434095
0.045393
0.0480057
0.0516627
0.0568401
0.0644404
0.0780389
0.104496
0.13854
0.14816
0.148582
0.148901
0.149191
0.14937
0.149528
0.149441
0.148822
0.148666
0.153525
0.154892
0.14385
0.135866
0.135523
0.135517
0.135517
0.135517
0.135517
0.135517
0.135517
0.135517
0.135517
0.0319996
0.0306275
0.0295932
0.0288162
0.0282535
0.0278851
0.0276845
0.027619
0.0276498
0.0277447
0.027881
0.0280475
0.0282339
0.028436
0.0286554
0.0289008
0.0291713
0.0294621
0.0297704
0.0300912
0.0304176
0.0307385
0.0310565
0.0313811
0.0317314
0.0321162
0.0325267
0.0329573
0.0334107
0.0338876
0.0343789
0.0348923
0.035462
0.036099
0.0367829
0.0375145
0.0383164
0.0392265
0.040265
0.0414916
0.0429533
0.0447452
0.0471098
0.0503223
0.0548901
0.0613815
0.0719858
0.0930419
0.127335
0.146904
0.14845
0.148698
0.149025
0.14919
0.149321
0.149357
0.149018
0.148394
0.150388
0.154695
0.152375
0.138085
0.135562
0.135518
0.135517
0.135517
0.135517
0.135517
0.135517
0.135517
0.135517
0.135517
0.0319878
0.0306139
0.0295782
0.0287984
0.0282339
0.0278622
0.0276626
0.0276001
0.0276363
0.0277369
0.0278793
0.02805
0.028242
0.0284475
0.0286642
0.0288951
0.0291501
0.0294296
0.0297284
0.0300448
0.030374
0.0307096
0.0310406
0.0313687
0.0317037
0.0320654
0.0324633
0.0328888
0.0333362
0.0338082
0.0343054
0.0348192
0.0353579
0.0359574
0.0366297
0.0373557
0.0381376
0.0390011
0.0399928
0.0411425
0.0425224
0.0442033
0.0463204
0.0492012
0.0532097
0.0588902
0.067465
0.0837037
0.11382
0.143221
0.148203
0.148503
0.148812
0.149029
0.149159
0.149285
0.149223
0.148851
0.14867
0.152532
0.155377
0.144667
0.135955
0.135523
0.135517
0.135517
0.135517
0.135517
0.135517
0.135517
0.135517
0.135517
0.135517
0.0319796
0.0306043
0.0295661
0.0287841
0.0282164
0.027842
0.0276392
0.0275772
0.0276163
0.0277223
0.0278706
0.0280473
0.0282437
0.0284549
0.028675
0.028903
0.0291435
0.0294069
0.0296942
0.0300006
0.0303252
0.0306636
0.0310096
0.0313513
0.0316901
0.0320362
0.03241
0.0328221
0.0332637
0.0337293
0.0342214
0.0347406
0.0352791
0.035846
0.0364788
0.0371909
0.0379647
0.0388045
0.0397416
0.0408342
0.0421217
0.0436952
0.045663
0.0482207
0.0517936
0.0567911
0.0640494
0.0766732
0.101183
0.135388
0.147691
0.148341
0.148655
0.148931
0.149106
0.14924
0.149379
0.149415
0.148783
0.150302
0.154618
0.151696
0.138532
0.135564
0.135518
0.135517
0.135517
0.135517
0.135517
0.135517
0.135517
0.135517
0.135517
0.135517
0.0319757
0.030598
0.0295577
0.0287727
0.0282021
0.027824
0.027618
0.0275533
0.0275923
0.0277013
0.027855
0.0280378
0.0282401
0.0284558
0.0286815
0.0289131
0.0291504
0.0293992
0.0296702
0.0299646
0.0302789
0.0306123
0.030961
0.0313181
0.0316712
0.0320212
0.0323792
0.0327661
0.0331934
0.0336523
0.0341377
0.0346516
0.035195
0.0357609
0.0363594
0.0370294
0.0377868
0.0386155
0.0395234
0.0405515
0.0417687
0.0432288
0.0450531
0.0474048
0.0505556
0.0550215
0.0612893
0.0713602
0.0911014
0.124005
0.146051
0.148219
0.148532
0.148844
0.149076
0.149266
0.14947
0.149644
0.149191
0.149413
0.151844
0.154149
0.145446
0.135998
0.135522
0.135517
0.135517
0.135517
0.135517
0.135517
0.135517
0.135517
0.135517
0.135517
0.135517
0.0319757
0.0305957
0.0295525
0.0287648
0.0281906
0.0278093
0.0275992
0.027531
0.0275675
0.0276762
0.027833
0.0280211
0.0282297
0.0284512
0.0286817
0.0289188
0.0291598
0.0294052
0.0296613
0.0299391
0.0302411
0.0305637
0.0309072
0.0312669
0.0316357
0.0320006
0.0323628
0.0327335
0.0331345
0.0335784
0.034056
0.0345627
0.0351005
0.0356706
0.0362671
0.0369011
0.0376134
0.0384225
0.0393151
0.0403065
0.041447
0.0428197
0.0445011
0.0466568
0.0495275
0.0534651
0.0590172
0.0673
0.0827989
0.111374
0.141795
0.148039
0.148432
0.148746
0.149012
0.149234
0.149433
0.149592
0.149533
0.149054
0.149216
0.153772
0.151666
0.138581
0.135562
0.135518
0.135517
0.135517
0.135517
0.135517
0.135517
0.135517
0.135517
0.135517
0.135517
0.135517
0.0319816
0.030597
0.029551
0.02876
0.0281827
0.0277973
0.0275835
0.0275112
0.027544
0.0276503
0.0278069
0.0279982
0.0282121
0.02844
0.0286761
0.0289182
0.0291647
0.0294138
0.0296664
0.0299293
0.0302139
0.030524
0.0308562
0.0312104
0.0315817
0.0319628
0.0323404
0.0327154
0.0331
0.0335164
0.0339781
0.0344762
0.0350061
0.03557
0.0361697
0.0368005
0.0374749
0.0382354
0.0391044
0.0400741
0.0411691
0.0424494
0.0440197
0.0459914
0.0485947
0.0521596
0.0570657
0.0641747
0.0764036
0.0999256
0.133736
0.147471
0.148325
0.148636
0.148907
0.14915
0.14935
0.149491
0.149485
0.149129
0.148433
0.1516
0.153552
0.145157
0.135994
0.135522
0.135517
0.135517
0.135517
0.135517
0.135517
0.135517
0.135517
0.135517
0.135517
0.135517
0.135517
0.0319909
0.0306036
0.0295529
0.0287587
0.0281778
0.0277889
0.0275709
0.0274944
0.0275231
0.0276258
0.0277799
0.0279711