/*--------------------------------*- C++ -*----------------------------------*\
| =========                 |                                                 |
| \\      /  F ield         | OpenFOAM: The Open Source CFD Toolbox           |
|  \\    /   O peration     | Version:  v2012                                 |
|   \\  /    A nd           | Website:  www.openfoam.com                      |
|    \\/     M anipulation  |                                                 |
\*---------------------------------------------------------------------------*/
FoamFile
{
    version     2.0;
    format      ascii;
    class       volScalarField;
    location    "13600";
    object      T;
}
// * * * * * * * * * * * * * * * * * * * * * * * * * * * * * * * * * * * * * //

dimensions      [0 0 0 1 0 0 0];


internalField   nonuniform List<scalar> 
39402
(
418.524
317.708
444.944
308.489
351.318
427.589
307.289
330.878
376.709
397.484
307.543
327.638
349.741
395.343
364.328
307.665
327.925
344.624
365.691
408.072
331.958
307.731
327.858
344.521
358.714
379.098
415.444
301.879
307.679
327.808
343.902
357.806
370.12
390.163
417.854
274.495
307.558
327.505
343.521
356.284
367.939
378.9
398.954
415.615
249.817
307.383
327.118
342.86
355.365
365.163
374.961
385.1
405.438
409.004
227.655
307.184
326.627
342.173
354.234
363.502
370.641
379.037
388.839
409.498
398.322
207.755
306.99
326.109
341.379
353.221
361.79
368.088
373.066
380.563
390.339
410.939
383.932
189.846
306.802
325.614
340.585
352.135
360.431
365.735
369.601
373.06
380.047
389.826
409.5
366.275
173.728
306.617
325.138
339.853
351.105
359.068
364.029
366.63
368.794
371.301
377.909
387.418
404.875
345.905
159.115
306.451
324.684
339.167
350.199
357.848
362.415
364.611
365.31
366.415
368.287
374.389
383.145
396.746
323.427
145.855
306.298
324.28
338.52
349.377
356.823
361.066
362.791
363.04
362.552
362.975
364.308
369.667
376.973
384.818
299.555
133.771
306.15
323.914
337.949
348.608
355.937
359.964
361.361
361.068
360.099
358.863
358.769
359.567
363.895
368.869
368.893
275.041
122.747
306.011
323.558
337.436
347.939
355.117
359.073
360.236
359.596
358.029
356.292
354.531
354.001
354.192
357.221
359.067
348.959
250.591
112.62
305.881
323.226
336.943
347.345
354.42
358.262
359.371
358.478
356.549
354.173
351.901
349.755
348.806
348.269
349.774
347.99
325.298
226.724
103.281
305.746
322.93
336.485
346.784
353.81
357.598
358.609
357.665
355.463
352.712
349.779
347.121
344.662
343.261
341.841
341.527
335.58
298.581
203.733
94.6081
305.624
322.61
336.076
346.266
353.249
357.032
358.015
356.973
354.712
351.676
348.365
345.042
342.083
339.327
337.4
334.902
332.345
321.502
269.909
181.763
87.0229
305.521
322.314
335.636
345.799
352.736
356.528
357.529
356.465
354.097
350.999
347.394
343.696
340.088
336.864
333.779
331.221
327.408
322.105
305.56
240.647
162.123
80.5452
305.403
322.071
335.237
345.309
352.28
356.075
357.116
356.071
353.68
350.467
346.801
342.804
338.832
334.993
331.509
328.029
324.701
319.287
310.678
287.495
212.298
144.862
75.6485
305.301
321.799
334.907
344.87
351.803
355.684
356.758
355.761
353.381
350.144
346.359
342.303
338.03
333.847
329.793
326.025
322.066
317.792
310.441
297.952
267.035
186.125
129.171
72.6522
305.2
321.56
334.531
344.506
351.383
355.276
356.464
355.51
353.173
349.942
346.132
341.955
337.628
333.149
328.781
324.507
320.406
315.855
310.422
300.746
283.911
243.998
162.68
115.34
70.9072
305.103
321.319
334.208
344.082
351.039
354.927
356.158
355.325
353.028
349.836
346.028
341.824
337.377
332.853
328.201
323.653
319.13
314.628
309.348
302.496
290.059
268.652
218.44
142.182
104.037
69.7341
305.012
321.092
333.881
343.724
350.626
354.649
355.911
355.129
352.948
349.793
346.023
341.817
337.344
332.703
328.019
323.207
318.464
313.649
308.656
302.474
293.891
278.222
251.904
190.958
124.841
95.2828
68.8225
304.928
320.877
333.576
343.367
350.287
354.297
355.728
354.991
352.858
349.814
346.08
341.912
337.434
332.77
327.977
323.15
318.171
313.204
308.036
302.438
295.144
284.456
265.085
232.789
163.112
110.975
88.5959
68.0939
304.841
320.687
333.283
343.03
349.948
354.023
355.469
354.911
352.826
349.826
346.2
342.067
337.626
332.956
328.145
323.22
318.251
313.086
307.854
302.254
295.911
287.246
274.026
250.575
210.536
137.574
100.438
83.4632
67.5512
304.762
320.486
333.026
342.708
349.629
353.749
355.286
354.754
352.848
349.895
346.309
342.28
337.876
333.244
328.428
323.494
318.442
313.318
307.939
302.385
296.257
288.993
278.643
262.436
234.779
185.059
116.512
92.7175
79.5372
67.1975
304.682
320.294
332.754
342.423
349.323
353.492
355.102
354.672
352.789
350.014
346.475
342.481
338.179
333.585
328.812
323.877
318.826
313.642
308.341
302.706
296.761
289.984
281.583
269.172
249.54
217.289
157.485
100.476
86.9576
76.4644
67.0469
304.616
320.11
332.497
342.121
349.049
353.243
354.933
354.585
352.805
350.047
346.688
342.739
338.467
333.975
329.244
324.357
319.314
314.144
308.809
303.301
297.359
290.939
283.363
273.556
258.653
235.256
197.003
130.815
89.8339
82.4526
74.0949
66.9146
304.546
319.958
332.25
341.845
348.769
353.023
354.767
354.512
352.813
350.154
346.809
343.042
338.811
334.346
329.719
324.878
319.891
314.74
309.439
303.931
298.177
291.865
284.862
276.301
264.763
246.91
219.621
173.17
108.63
84.0225
78.9199
72.4048
66.6566
304.475
319.795
332.047
341.574
348.509
352.794
354.629
354.44
352.833
350.252
347.003
343.245
339.2
334.774
330.17
325.437
320.504
315.419
310.15
304.7
298.988
292.939
286.18
278.464
268.686
255.028
233.81
202.33
146.524
92.6098
80.1353
76.1921
71.2414
66.2099
304.409
319.628
331.829
341.354
348.254
352.585
354.476
354.392
352.85
350.36
347.185
343.52
339.479
335.244
330.678
325.969
321.146
316.124
310.936
305.536
299.911
293.956
287.554
280.254
271.661
260.379
244.167
219.332
182.258
120.643
82.8655
76.7528
74.6576
70.4165
65.6835
304.351
319.477
331.606
341.114
348.05
352.381
354.34
354.323
352.888
350.461
347.377
343.783
339.831
335.596
331.226
326.554
321.757
316.852
311.737
306.435
300.884
295.053
288.809
281.982
274.023
264.349
251.213
232.023
203.587
158.393
98.6343
77.4124
73.9184
73.6358
69.7826
65.3517
304.302
319.35
331.404
340.87
347.822
352.222
354.208
354.268
352.9
350.579
347.558
344.053
340.169
336.02
331.648
327.178
322.419
317.542
312.553
307.337
301.904
296.177
290.103
283.513
276.173
267.409
256.397
241.005
218.52
185.989
132.602
85.0405
74.2704
71.8228
72.9339
69.4176
65.1929
304.251
319.238
331.236
340.649
347.591
352.038
354.114
354.215
352.926
350.668
347.752
344.308
340.513
336.429
332.141
327.667
323.117
318.28
313.325
308.245
302.913
297.328
291.395
285.033
278.029
270.066
260.313
247.648
229.575
203.701
165.115
107.344
76.6971
72.1805
70.4263
72.2436
69.2487
65.1026
304.192
319.124
331.088
340.465
347.38
351.849
353.99
354.193
352.949
350.767
347.912
344.573
340.837
336.842
332.616
328.226
323.673
319.052
314.14
309.101
303.918
298.452
292.69
286.514
279.81
272.309
263.589
252.612
237.92
216.803
187.473
140.89
88.5305
72.4972
70.6023
69.7304
71.6474
69.062
65.0105
304.129
318.982
330.939
340.306
347.203
351.676
353.863
354.137
352.996
350.861
348.08
344.801
341.169
337.23
333.096
328.767
324.295
319.674
314.986
309.995
304.864
299.563
293.94
287.969
281.508
274.397
266.295
256.645
244.155
227.03
202.722
168.892
116.062
77.9815
70.9319
69.2064
69.9038
71.2872
68.6146
64.897
304.078
318.839
330.75
340.147
347.057
351.527
353.748
354.077
353.007
350.974
348.24
345.035
341.46
337.625
333.546
329.309
324.899
320.36
315.674
310.915
305.838
300.603
295.164
289.358
283.143
276.343
268.746
259.916
249.117
234.765
214.849
187.493
146.64
93.9071
72.4659
69.5625
68.2312
69.9979
71.1072
67.8106
64.7825
304.037
318.722
330.562
339.941
346.912
351.414
353.646
354.025
353.012
351.047
348.415
345.257
341.755
337.975
333.999
329.817
325.502
321.025
316.423
311.671
306.835
301.662
296.306
290.707
284.686
278.183
270.982
262.802
253.081
240.858
224.257
201.383
170.433
122.746
79.4775
69.9896
68.4687
67.61
70.1508
70.9558
66.8844
64.6877
304
318.628
330.409
339.738
346.717
351.301
353.575
353.98
353.021
351.114
348.546
345.492
342.036
338.328
334.404
330.326
326.067
321.688
317.151
312.486
307.662
302.737
297.454
291.959
286.173
279.901
273.059
265.38
256.493
245.673
231.695
212.487
186.758
150.083
99.062
72.8566
68.9163
67.7113
67.8164
70.3709
70.6539
66.0876
64.6191
303.963
318.549
330.286
339.573
346.524
351.142
353.507
353.955
353.036
351.18
348.67
345.678
342.327
338.665
334.813
330.785
326.63
322.307
317.872
313.275
308.543
303.639
298.612
293.204
287.546
281.542
274.975
267.731
259.478
249.729
237.55
221.443
199.437
170.535
127.11
82.1699
69.7541
68.0642
67.2686
68.2397
70.4566
70.2245
65.5028
64.5726
303.93
318.467
330.185
339.439
346.369
350.981
353.398
353.938
353.061
351.249
348.79
345.855
342.564
339.008
335.201
331.246
327.14
322.923
318.545
314.054
309.394
304.59
299.594
294.449
288.895
283.049
276.79
269.877
262.154
253.207
242.396
228.539
209.952
185.226
151.53
103.344
73.1565
68.434
67.4248
66.9719
68.8364
70.4941
69.4953
65.108
64.546
303.895
318.398
330.08
339.332
346.242
350.851
353.283
353.879
353.092
351.322
348.91
346.025
342.792
339.293
335.595
331.683
327.652
323.484
319.214
314.782
310.233
305.505
300.616
295.514
290.234
284.512
278.447
271.89
264.568
256.271
246.476
234.349
218.457
197.195
169.588
129.419
84.6115
69.7987
67.8018
67.0377
67.1335
69.2867
70.5241
68.4142
64.8917
64.5278
303.855
318.322
329.995
339.221
346.142
350.747
353.193
353.817
353.082
351.4
349.031
346.194
343.009
339.568
335.926
332.125
328.137
324.045
319.824
315.502
311.015
306.403
301.597
296.611
291.386
285.953
280.036
273.715
266.808
259.002
250.011
239.169
225.416
207.154
183.297
151.477
106.136
73.9231
68.2337
67.2877
66.9884
67.4019
69.6745
70.4315
67.2522
64.7392
64.5158
303.814
318.229
329.903
339.136
346.038
350.663
353.119
353.771
353.067
351.434
349.152
346.359
343.224
339.83
336.244
332.5
328.625
324.576
320.433
316.163
311.789
307.241
302.556
297.659
292.561
287.195
281.588
275.445
268.825
261.506
253.12
243.281
231.141
215.415
194.602
168.065
130.078
86.73
69.5823
67.5767
67.1137
66.9462
67.8532
69.9873
70.1084
66.2484
64.6361
64.5082
303.774
318.137
329.784
339.042
345.965
350.577
353.058
353.732
353.063
351.463
349.226
346.522
343.43
340.088
336.548
332.86
329.041
325.108
321.009
316.819
312.499
308.068
303.452
298.68
293.678
288.453
282.928
277.122
270.716
263.743
255.935
246.85
235.966
222.221
204.199
180.934
150.519
107.666
74.4844
68.0608
67.3173
67.0253
67.0148
68.3271
70.0162
69.5107
65.4999
64.5707
64.5042
303.742
318.046
329.664
338.916
345.882
350.525
353
353.704
353.063
351.5
349.297
346.636
343.632
340.334
336.848
333.205
329.441
325.565
321.584
317.439
313.203
308.828
304.331
299.633
294.761
289.642
284.275
278.572
272.534
265.817
258.429
250.035
240.097
227.917
212.228
191.752
165.966
129.648
87.8784
69.4266
67.4823
67.2146
67.0406
67.1682
68.8563
69.9974
68.5683
65.0133
64.5362
64.5021
303.714
317.973
329.547
338.789
345.766
350.463
352.976
353.676
353.07
351.537
349.373
346.746
343.784
340.574
337.131
333.542
329.825
326.003
322.08
318.056
313.867
309.58
305.143
300.568
295.774
290.792
285.543
280.016
274.111
267.796
260.716
252.833
243.731
232.739
218.96
201.023
178.219
148.733
107.797
74.7191
67.887
67.3346
67.1541
67.0454
67.4373
69.2162
69.9211
67.4315
64.767
64.5178
64.5009
303.691
317.912
329.452
338.663
345.646
350.372
352.941
353.681
353.072
351.577
349.444
346.86
343.931
340.761
337.406
333.861
330.199
326.424
322.557
318.592
314.526
310.289
305.943
301.431
296.765
291.867
286.763
281.368
275.662
269.521
262.878
255.371
246.893
236.921
224.624
208.914
188.613
163.378
128.196
88.0519
69.2309
67.4296
67.2965
67.1453
67.0582
67.7341
69.5344
69.6264
66.3004
64.6338
64.508
64.5004
303.669
317.86
329.375
338.562
345.526
350.274
352.879
353.673
353.105
351.608
349.519
346.965
344.081
340.943
337.627
334.17
330.552
326.834
323.014
319.106
315.101
310.988
306.694
302.278
297.681
292.918
287.905
282.665
277.105
271.194
264.773
257.746
249.728
240.527
229.48
215.572
197.655
175.157
146.246
106.467
74.5828
67.7166
67.3474
67.28
67.1343
67.0945
68.1459
69.528
69.0655
65.4485
64.5603
64.5034
64.5002
303.652
317.817
329.31
338.482
345.431
350.17
352.807
353.64
353.124
351.668
349.578
347.07
344.219
341.126
337.841
334.423
330.894
327.221
323.459
319.599
315.652
311.604
307.435
303.073
298.579
293.89
289.02
283.878
278.486
272.739
266.589
259.833
252.355
243.723
233.632
221.248
205.403
185.223
160.348
125.9
87.1612
68.9689
67.415
67.3798
67.2897
67.151
67.186
68.6316
69.5244
68.0831
64.9264
64.5257
64.5014
64.5001
303.635
317.78
329.26
338.415
345.357
350.087
352.727
353.597
353.12
351.713
349.662
347.156
344.353
341.295
338.058
334.669
331.177
327.594
323.878
320.079
316.181
312.192
308.089
303.854
299.418
294.838
290.049
285.06
279.776
274.211
268.252
261.814
254.664
246.649
237.269
226.073
212.043
194.018
171.791
143.139
104.386
73.9438
67.6026
67.3885
67.4106
67.2813
67.15
67.3369
68.9603
69.4599
66.8355
64.6841
64.5104
64.5005
64.5
303.615
317.743
329.216
338.365
345.295
350.026
352.662
353.543
353.104
351.735
349.732
347.265
344.465
341.458
338.258
334.917
331.454
327.907
324.282
320.53
316.695
312.757
308.715
304.548
300.241
295.723
291.05
286.151
281.03
275.587
269.827
263.617
256.833
249.218
240.558
230.257
217.687
201.697
181.499
156.909
122.875
85.4144
68.6478
67.4037
67.4054
67.3884
67.2145
67.0523
67.6988
69.2198
69.0255
65.7334
64.576
64.5038
64.5002
64.5
303.595
317.701
329.172
338.323
345.251
349.976
352.616
353.5
353.078
351.745
349.779
347.358
344.597
341.595
338.448
335.147
331.731
328.213
324.625
320.965
317.179
313.305
309.316
305.212
300.975
296.589
291.983
287.208
282.187
276.919
271.296
265.312
258.8
251.606
243.437
233.99
222.545
208.292
190.153
168.017
139.432
101.509
72.958
67.5184
67.4128
67.4361
67.3448
67.1168
67.0087
68.1643
69.2063
68.199
65.0337
64.5274
64.5013
64.5001
64.5
303.569
317.658
329.122
338.281
345.217
349.942
352.582
353.472
353.059
351.745
349.813
347.429
344.711
341.748
338.606
335.363
331.99
328.52
324.958
321.335
317.643
313.82
309.897
305.848
301.677
297.365
292.894
288.191
283.303
278.146
272.714
266.887
260.641
253.762
246.082
237.245
226.826
213.96
197.738
177.536
152.947
119.132
83.0567
68.3215
67.4179
67.4484
67.4348
67.2631
67.0617
67.1907
68.5801
69.1835
66.9431
64.6918
64.5097
64.5004
64.5
64.5
303.546
317.604
329.072
338.233
345.186
349.919
352.563
353.455
353.049
351.748
349.838
347.488
344.806
341.883
338.78
335.543
332.232
328.808
325.294
321.696
318.041
314.313
310.443
306.463
302.35
298.106
293.712
289.148
284.34
279.326
274.016
268.399
262.339
255.773
248.46
240.198
230.54
218.912
204.321
186.004
163.854
135.03
97.9374
71.7715
67.4669
67.439
67.485
67.4213
67.1955
67.0413
67.5109
68.9848
68.8446
65.7489
64.5697
64.503
64.5001
64.5
64.5
303.518
317.557
329.005
338.185
345.147
349.903
352.555
353.452
353.049
351.758
349.865
347.538
344.889
342
338.935
335.737
332.434
329.074
325.61
322.06
318.429
314.739
310.965
307.039
302.999
298.816
294.495
290.012
285.346
280.42
275.265
269.785
263.956
257.619
250.668
242.839
233.871
223.195
210.071
193.499
173.233
148.339
114.668
80.2905
68.0276
67.4188
67.4722
67.4739
67.3446
67.0747
67.0359
68.058
68.9995
67.9538
64.987
64.5218
64.5009
64.5
64.5
64.5
303.493
317.494
328.95
338.115
345.107
349.879
352.557
353.46
353.063
351.774
349.895
347.587
344.964
342.107
339.075
335.911
332.647
329.297
325.901
322.403
318.819
315.154
311.418
307.59
303.606
299.5
295.244
290.838
286.258
281.48
276.421
271.109
265.435
259.361
252.688
245.278
236.83
226.991
215.047
200.126
181.525
159.241
129.795
93.8624
70.5957
67.4276
67.4391
67.4644
67.401
67.201
67.031
67.091
68.4171
68.8279
66.7032
64.6534
64.5065
64.5002
64.5
64.5
64.5
303.47
317.44
328.868
338.061
345.042
349.853
352.549
353.483
353.085
351.805
349.926
347.637
345.036
342.206
339.204
336.071
332.839
329.529
326.144
322.719
319.189
315.57
311.86
308.07
304.186
300.14
295.964
291.627
287.128
282.442
277.539
272.333
266.841
260.946
254.579
247.5
239.545
230.342
219.419
205.914
188.992
168.574
143.106
109.237
77.4476
67.7914
67.411
67.4469
67.4339
67.288
67.1089
66.95
67.4749
68.7215
68.5425
65.5004
64.547
64.5017
64.5001
64.5
64.5
64.5
303.451
317.39
328.801
337.975
344.996
349.798
352.541
353.492
353.125
351.842
349.972
347.684
345.105
342.302
339.328
336.223
333.019
329.738
326.392
322.982
319.53
315.967
312.303
308.538
304.694
300.749
296.635
292.383
287.959
283.359
278.556
273.514
268.142
262.446
256.291
249.564
242.003
233.39
223.254
210.983
195.641
176.769
154.229
123.742
89.382
69.5613
67.4153
67.4377
67.4383
67.3583
67.2585
67.0653
67.0413
67.9484
68.7969
67.5071
64.8324
64.5127
64.5004
64.5
64.5
64.5
64.5
303.435
317.348
328.737
337.905
344.915
349.763
352.497
353.499
353.149
351.897
350.023
347.744
345.166
342.39
339.446
336.371
333.192
329.938
326.619
323.247
319.812
316.331
312.724
309.008
305.188
301.284
297.275
293.089
288.754
284.234
279.524
274.589
269.392
263.831
257.901
251.429
244.27
236.13
226.712
215.415
201.502
184.201
163.555
137.421
103.015
74.7655
67.6201
67.425
67.4423
67.4048
67.333
67.2223
67.062
67.2108
68.4213
68.6272
66.1477
64.5912
64.503
64.5001
64.5
64.5
64.5
64.5
303.421
317.31
328.684
337.835
344.85
349.695
352.475
353.469
353.172
351.936
350.092
347.806
345.239
342.464
339.553
336.512
333.364
330.132
326.839
323.491
320.095
316.633
313.112
309.455
305.683
301.805
297.839
293.76
289.495
285.07
280.445
275.611
270.532
265.159
259.383
253.172
246.313
238.638
229.795
219.376
206.643
190.849
171.741
148.677
117.649
84.3305
68.7193
67.4238
67.4381
67.4146
67.3536
67.296
67.1359
67.0646
67.5708
68.5582
67.9584
65.1155
64.5219
64.5007
64.5
64.5
64.5
64.5
64.5
303.409
317.277
328.634
337.78
344.782
349.637
352.421
353.461
353.155
351.974
350.145
347.889
345.312
342.548
339.641
336.638
333.529
330.326
327.054
323.729
320.356
316.933
313.433
309.866
306.157
302.328
298.387
294.353
290.198
285.848
281.323
276.582
271.612
266.369
260.798
254.77
248.214
240.891
232.594
222.883
211.218
196.768
179.068
158.088
130.902
96.9372
72.2482
67.4939
67.4197
67.4087
67.3443
67.289
67.2043
67.0618
66.9803
67.9364
68.5253
66.7896
64.6549
64.505
64.5001
64.5
64.5
64.5
64.5
64.5
303.398
317.246
328.59
337.727
344.731
349.577
352.374
353.419
353.163
351.972
350.199
347.955
345.407
342.632
339.735
336.738
333.672
330.513
327.27
323.964
320.612
317.21
313.749
310.206
306.591
302.827
298.936
294.93
290.823
286.585
282.14
277.506
272.636
267.513
262.086
256.287
249.953
242.978
235.099
226.039
215.246
202.054
185.724
166.337
142.326
110.774
79.5651
68.0541
67.4019
67.3964
67.3373
67.267
67.2494
67.1098
66.9604
67.2214
68.3673
68.3048
65.4513
64.5371
64.501
64.5
64.5
64.5
64.5
64.5
64.5
303.389
317.218
328.548
337.679
344.68
349.537
352.327
353.385
353.136
351.995
350.211
348.024
345.486
342.737
339.828
336.841
333.785
330.675
327.48
324.204
320.866
317.483
314.042
310.54
306.951
303.285
299.462
295.506
291.428
287.242
282.914
278.365
273.609
268.595
263.3
257.663
251.594
244.884
237.408
228.853
218.846
206.706
191.742
173.633
152.176
123.287
90.7843
70.2059
67.4107
67.3864
67.3432
67.2747
67.2546
67.2426
67.0935
67.041
67.6804
68.4541
67.1463
64.7631
64.5075
64.5002
64.5
64.5
64.5
64.5
64.5
64.5
303.378
317.197
328.509
337.631
344.636
349.493
352.3
353.349
353.114
351.979
350.249
348.05
345.569
342.828
339.943
336.942
333.897
330.801
327.661
324.436
321.129
317.756
314.333
310.849
307.302
303.665
299.945
296.058
292.032
287.878
283.605
279.178
274.513
269.621
264.445
258.955
253.074
246.67
239.511
231.429
222.042
210.852
197.088
180.289
160.477
135.475
102.789
75.483
67.6542
67.3763
67.3594
67.2884
67.2615
67.266
67.2384
67.0872
67.1581
68.1799
68.215
65.8408
64.555
64.5013
64.5
64.5
64.5
64.5
64.5
64.5
64.5
303.366
317.168
328.48
337.588
344.589
349.457
352.267
353.336
353.088
351.971
350.245
348.105
345.611
342.925
340.045
337.067
334.005
330.921
327.799
324.635
321.382
318.04
314.625
311.157
307.628
304.034
300.345
296.566
292.612
288.51
284.273
279.905
275.368
270.575
265.529
260.171
254.458
248.278
241.467
233.767
224.947
214.521
201.875
186.3
167.86
145.481
115.833
84.129
68.8138
67.3754
67.3649
67.3095
67.2671
67.276
67.2664
67.1916
67.1082
67.4701
68.2059
67.5144
64.8785
64.5101
64.5002
64.5
64.5
64.5
64.5
64.5
64.5
64.5
303.354
317.137
328.439
337.555
344.548
349.418
352.242
353.314
353.089
351.956
350.25
348.112
345.682
342.982
340.157
337.18
334.139
331.036
327.926
324.784
321.599
318.314
314.929
311.467
307.953
304.377
300.733
296.989
293.146
289.119
284.935
280.606
276.135
271.476
266.538
261.32
255.753
249.774
243.226
235.926
227.569
217.833
206.115
191.765
174.437
154.11
127.382
95.3938
72.0228
67.4541
67.3577
67.3177
67.2663
67.2618
67.2571
67.1994
67.1181
67.0049
67.8724
68.1635
66.0955
64.5738
64.5016
64.5
64.5
64.5
64.5
64.5
64.5
64.5
64.5
303.342
317.107
328.397
337.51
344.515
349.385
352.212
353.304
353.079
351.969
350.246
348.131
345.702
343.07
340.229
337.305
334.262
331.177
328.046
324.92
321.761
318.548
315.222
311.791
308.281
304.719
301.093
297.395
293.591
289.68
285.573
281.3
276.872
272.284
267.489
262.388
256.974
251.164
244.856
237.862
229.971
220.806
209.926
196.645
180.513
161.563
137.999
106.824
78.3354
67.9378
67.3439
67.3069
67.2553
67.234
67.2221
67.1993
67.1305
66.9549
67.2743
68.0661
67.6802
64.9956
64.512
64.5002
64.5
64.5
64.5
64.5
64.5
64.5
64.5
64.5
303.329
317.076
328.356
337.462
344.472
349.355
352.197
353.29
353.084
351.971
350.271
348.137
345.734
343.104
340.333
337.393
334.401
331.31
328.195
325.045
321.903
318.722
315.474
312.104
308.625
305.064
301.452
297.773
294.018
290.148
286.162
281.969
277.599
273.06
268.344
263.394
258.11
252.471
246.363
239.651
232.12
223.505
213.331
201.043
186.015
168.282
146.978
118.728
87.4923
69.6129
67.3454
67.2944
67.2384
67.2108
67.2028
67.1985
67.1721
67.0569
67.1026
67.6934
68.1396
66.2381
64.5879
64.5017
64.5
64.5
64.5
64.5
64.5
64.5
64.5
64.5
64.5
303.316
317.045
328.313
337.417
344.425
349.323
352.175
353.287
353.083
351.989
350.284
348.174
345.751
343.149
340.381
337.515
334.503
331.462
328.337
325.201
322.034
318.871
315.659
312.371
308.956
305.428
301.815
298.15
294.414
290.596
286.654
282.587
278.299
273.822
269.162
264.301
259.177
253.682
247.774
241.298
234.099
225.913
216.399
204.967
191.031
174.307
154.777
129.434
98.2154
73.5444
67.4978
67.2815
67.2336
67.2016
67.1959
67.1973
67.1926
67.1922
67.1196
67.3028
68.0497
67.5996
65.0778
64.5128
64.5002
64.5
64.5
64.5
64.5
64.5
64.5
64.5
64.5
64.5
303.304
317.016
328.272
337.369
344.382
349.285
352.158
353.274
353.095
352
350.314
348.197
345.799
343.177
340.439
337.578
334.642
331.579
328.501
325.352
322.196
319.007
315.816
312.569
309.24
305.778
302.197
298.53
294.808
291.011
287.125
283.106
278.948
274.557
269.962
265.165
260.141
254.819
249.076
242.835
235.913
228.121
219.128
208.487
195.536
179.881
161.592
138.971
108.909
80.2586
68.2027
67.283
67.2361
67.1995
67.196
67.2049
67.2096
67.24
67.1728
67.0829
67.5844
67.9562
66.4012
64.5948
64.5017
64.5
64.5
64.5
64.5
64.5
64.5
64.5
64.5
64.5
64.5
303.293
316.989
328.231
337.322
344.337
349.25
352.134
353.273
353.095
352.026
350.335
348.238
345.831
343.236
340.478
337.648
334.721
331.736
328.634
325.526
322.355
319.176
315.958
312.733
309.451
306.079
302.567
298.932
295.206
291.423
287.56
283.599
279.495
275.238
270.733
266.007
261.056
255.846
250.295
244.247
237.599
230.137
221.618
211.613
199.586
184.946
167.754
147.171
119.891
89.3125
70.2164
67.3208
67.2422
67.1989
67.1934
67.2007
67.2191
67.2315
67.1719
67.1078
67.1489
67.8682
67.531
65.089
64.5133
64.5002
64.5
64.5
64.5
64.5
64.5
64.5
64.5
64.5
64.5
64.5
303.283
316.963
328.195
337.278
344.292
349.212
352.112
353.264
353.11
352.04
350.373
348.269
345.882
343.277
340.547
337.697
334.805
331.83
328.808
325.676
322.542
319.343
316.133
312.882
309.623
306.303
302.884
299.319
295.627
291.839
287.991
284.056
280.014
275.815
271.449
266.817
261.944
256.819
251.395
245.567
239.143
232.002
223.881
214.455
203.193
189.549
173.289
154.33
129.782
99.3401
74.39
67.5512
67.2416
67.1955
67.1839
67.189
67.2018
67.204
67.1697
67.1296
67.0014
67.4769
67.9389
66.3129
64.5973
64.5018
64.5
64.5
64.5
64.5
64.5
64.5
64.5
64.5
64.5
64.5
64.5
303.274
316.941
328.16
337.238
344.25
349.176
352.085
353.259
353.116
352.069
350.401
348.317
345.922
343.336
340.596
337.775
334.864
331.928
328.919
325.868
322.706
319.541
316.309
313.064
309.778
306.483
303.122
299.654
296.033
292.279
288.425
284.507
280.493
276.361
272.058
267.571
262.796
257.757
252.433
246.756
240.581
233.703
225.963
217.024
206.463
193.694
178.382
160.585
138.548
109.217
80.9661
68.3397
67.2428
67.1874
67.1635
67.1606
67.1728
67.1722
67.1574
67.1667
67.0554
67.1132
67.8442
67.6452
65.0634
64.5135
64.5002
64.5
64.5
64.5
64.5
64.5
64.5
64.5
64.5
64.5
64.5
64.5
303.266
316.923
328.133
337.2
344.212
349.141
352.058
353.248
353.124
352.088
350.443
348.357
345.98
343.384
340.664
337.833
334.951
331.998
329.031
325.996
322.916
319.72
316.518
313.248
309.967
306.645
303.311
299.906
296.385
292.704
288.884
284.96
280.965
276.865
272.633
268.215
263.59
258.656
253.428
247.873
241.88
235.281
227.853
219.374
209.411
197.459
183.049
166.257
146.087
119.416
89.4442
70.3597
67.2771
67.1762
67.1426
67.1358
67.14
67.1431
67.1451
67.1597
67.1168
67.1193
67.5101
67.831
66.1846
64.5889
64.5018
64.5
64.5
64.5
64.5
64.5
64.5
64.5
64.5
64.5
64.5
64.5
64.5
303.259
316.906
328.108
337.171
344.175
349.109
352.035
353.238
353.127
352.11
350.475
348.411
346.029
343.45
340.719
337.908
335.015
332.094
329.112
326.123
323.062
319.947
316.711
313.467
310.159
306.84
303.48
300.104
296.652
293.073
289.328
285.438
281.438
277.36
273.163
268.822
264.273
259.495
254.379
248.935
243.096
236.711
229.598
221.496
212.092
200.86
187.31
171.374
152.76
128.508
98.7392
74.3017
67.4967
67.1633
67.1219
67.1139
67.1201
67.1327
67.1439
67.1573
67.1756
67.1161
67.2554
67.7134
67.2304
65.0045
64.512
64.5002
64.5
64.5
64.5
64.5
64.5
64.5
64.5
64.5
64.5
64.5
64.5
64.5
303.254
316.893
328.087
337.144
344.148
349.079
352.014
353.225
353.132
352.125
350.509
348.455
346.094
343.509
340.792
337.969
335.097
332.165
329.217
326.215
323.204
320.109
316.953
313.674
310.389
307.041
303.683
300.282
296.86
293.356
289.716
285.901
281.936
277.853
273.683
269.38
264.915
260.22
255.268
249.944
244.24
238.045
231.184
223.446
214.502
203.944
191.207
176.052
158.573
136.745
107.816
80.3278
68.2239
67.1615
67.1071
67.0976
67.1074
67.1259
67.1456
67.1666
67.196
67.1941
67.0689
67.3166
67.6749
66.105
64.5758
64.5015
64.5
64.5
64.5
64.5
64.5
64.5
64.5
64.5
64.5
64.5
64.5
64.5
64.5
303.248
316.882
328.07
337.122
344.124
349.059
351.994
353.216
353.132
352.144
350.536
348.501
346.148
343.584
340.859
338.049
335.164
332.253
329.295
326.329
323.307
320.265
317.131
313.933
310.609
307.281
303.892
300.492
297.046
293.575
290.014
286.308
282.419
278.372
274.198
269.926
265.505
260.901
256.04
250.889
245.319
239.289
232.658
225.219
216.705
206.708
194.751
180.423
163.858
143.776
117.339
87.946
69.9952
67.2067
67.1041
67.0854
67.094
67.114
67.1386
67.1679
67.2068
67.1874
67.1122
67.0814
67.6199
67.2856
64.8899
64.5098
64.5002
64.5
64.5
64.5
64.5
64.5
64.5
64.5
64.5
64.5
64.5
64.5
64.5
64.5
303.244
316.865
328.056
337.104
344.105
349.041
351.984
353.208
353.135
352.156
350.566
348.538
346.205
343.646
340.942
338.122
335.249
332.324
329.388
326.412
323.429
320.379
317.3
314.126
310.884
307.515
304.142
300.709
297.264
293.771
290.246
286.624
282.844
278.874
274.738
270.465
266.08
261.526
256.764
251.714
246.33
240.454
234.023
226.862
218.71
209.225
197.929
184.42
168.662
150.126
125.66
96.4556
73.3274
67.3939
67.1123
67.0801
67.0835
67.0979
67.1192
67.1467
67.1782
67.1604
67.1422
67.055
67.4729
67.7309
65.7635
64.5563
64.5012
64.5
64.5
64.5
64.5
64.5
64.5
64.5
64.5
64.5
64.5
64.5
64.5
64.5
64.5
303.24
316.856
328.032
337.09
344.089
349.027
351.974
353.208
353.138
352.17
350.589
348.579
346.252
343.713
341.013
338.213
335.328
332.415
329.462
326.509
323.518
320.51
317.425
314.309
311.093
307.805
304.389
300.969
297.491
293.997
290.453
286.869
283.179
279.32
275.262
271.028
266.645
262.132
257.429
252.486
247.219
241.545
235.291
228.372
220.558
211.515
200.824
188.024
173.03
155.645
133.536
104.833
78.4303
67.9415
67.1207
67.0833
67.0756
67.0826
67.0873
67.1105
67.1425
67.1221
67.1476
67.0749
67.2173
67.6829
66.9501
64.7911
64.507
64.5001
64.5
64.5
64.5
64.5
64.5
64.5
64.5
64.5
64.5
64.5
64.5
64.5
64.5
64.5
303.236
316.849
328.021
337.065
344.077
349.017
351.968
353.208
353.149
352.183
350.613
348.613
346.304
343.77
341.09
338.292
335.426
332.499
329.557
326.587
323.62
320.605
317.564
314.445
311.29
308.031
304.694
301.23
297.761
294.233
290.688
287.087
283.439
279.674
275.729
271.573
267.231
262.725
258.07
253.195
248.046
242.513
236.479
229.766
222.246
213.619
203.463
191.336
177.005
160.577
140.294
113.333
84.9784
69.232
67.1415
67.0794
67.0699
67.0712
67.069
67.0775
67.1025
67.1023
67.1315
67.0685
67.0636
67.4535
67.4502
65.5645
64.5381
64.5008
64.5
64.5
64.5
64.5
64.5
64.5
64.5
64.5
64.5
64.5
64.5
64.5
64.5
64.5
64.5
303.233
316.842
328.011
337.053
344.057
349.01
351.966
353.212
353.159
352.204
350.636
348.647
346.347
343.831
341.156
338.377
335.513
332.603
329.646
326.685
323.702
320.711
317.665
314.593
311.437
308.242
304.937
301.55
298.034
294.513
290.933
287.332
283.67
279.951
276.103
272.063
267.8
263.338
258.694
253.876
248.804
243.409
237.541
231.069
223.794
215.528
205.879
194.377
180.721
165.039
146.268
121.386
92.509
71.6953
67.2311
67.0624
67.0494
67.054
67.055
67.0563
67.0792
67.1051
67.1329
67.1016
67.1128
67.2214
67.4497
66.6503
64.6787
64.5044
64.5001
64.5
64.5
64.5
64.5
64.5
64.5
64.5
64.5
64.5
64.5
64.5
64.5
64.5
64.5
64.5
303.23
316.834
328.001
337.044
344.048
349
351.966
353.217
353.171
352.222
350.666
348.678
346.39
343.883
341.225
338.452
335.606
332.696
329.755
326.777
323.801
320.796
317.776
314.699
311.594
308.4
305.162
301.808
298.369
294.799
291.223
287.587
283.925
280.195
276.398
272.459
268.314
263.932
259.336
254.535
249.53