/*--------------------------------*- C++ -*----------------------------------*\
| =========                 |                                                 |
| \\      /  F ield         | OpenFOAM: The Open Source CFD Toolbox           |
|  \\    /   O peration     | Version:  v2012                                 |
|   \\  /    A nd           | Website:  www.openfoam.com                      |
|    \\/     M anipulation  |                                                 |
\*---------------------------------------------------------------------------*/
FoamFile
{
    version     2.0;
    format      ascii;
    class       volScalarField;
    location    "13600";
    object      TuM;
}
// * * * * * * * * * * * * * * * * * * * * * * * * * * * * * * * * * * * * * //

dimensions      [0 0 0 0 0 0 0];


internalField   nonuniform List<scalar> 
39402
(
0.164982
0.0379476
0.0743391
0.0234874
0.0156441
0.045245
0.0230957
0.00936589
0.0102014
0.0319587
0.0248527
0.0142898
0.00579151
0.00870802
0.0256048
0.0263891
0.0186147
0.0275807
0.00531572
0.00854388
0.0229316
0.027242
0.0210186
0.0391843
0.0481252
0.00632338
0.00881935
0.02206
0.0277412
0.022376
0.0451334
0.0687643
0.0723963
0.00795675
0.0091636
0.0220119
0.0278943
0.0231154
0.0484655
0.0793541
0.103354
0.0988475
0.00980305
0.00943001
0.0223278
0.0278786
0.0234046
0.050283
0.085264
0.119255
0.140543
0.125948
0.0116598
0.0095773
0.0228078
0.0277481
0.023469
0.0510268
0.0885247
0.128063
0.161803
0.177759
0.152178
0.0133808
0.00961767
0.0233752
0.0275517
0.0233892
0.0512377
0.0898796
0.132953
0.173404
0.203719
0.212653
0.176306
0.01491
0.00958793
0.0239169
0.027316
0.0232376
0.0511051
0.0902972
0.135002
0.179828
0.217573
0.242211
0.243688
0.197734
0.0162775
0.0095276
0.0244416
0.0270648
0.0230384
0.0508027
0.0901037
0.135668
0.182523
0.225155
0.257583
0.275741
0.270302
0.216857
0.0175069
0.00945716
0.0250097
0.0268085
0.0228096
0.0503845
0.0896043
0.135426
0.183427
0.228317
0.265846
0.291984
0.304035
0.293181
0.233866
0.018643
0.0093984
0.02562
0.0265565
0.0225808
0.0498861
0.0888887
0.134725
0.183153
0.229395
0.269261
0.30054
0.320729
0.327911
0.312629
0.248909
0.0197218
0.00938312
0.0262629
0.0263078
0.0223515
0.0493855
0.0880274
0.133694
0.182281
0.229091
0.270418
0.30404
0.329339
0.344765
0.347895
0.32886
0.26202
0.0205748
0.00944659
0.0269294
0.0260634
0.0221201
0.0488789
0.0871544
0.132446
0.18097
0.228101
0.270086
0.3052
0.332828
0.353287
0.364742
0.364423
0.342043
0.272807
0.0208058
0.00961331
0.0276199
0.025818
0.0218909
0.0483612
0.086265
0.131164
0.17938
0.226591
0.269024
0.304836
0.33394
0.356713
0.373101
0.381198
0.377856
0.35228
0.279972
0.0202644
0.00990381
0.0283291
0.025562
0.021658
0.0478452
0.0853517
0.129855
0.177735
0.224764
0.267398
0.303734
0.333546
0.357746
0.376431
0.389387
0.394611
0.388447
0.359361
0.28186
0.0188164
0.0103286
0.0290607
0.0253254
0.0214065
0.0473176
0.084437
0.128504
0.176042
0.222858
0.26545
0.30206
0.332428
0.357311
0.37737
0.392608
0.402679
0.405365
0.396445
0.363413
0.278656
0.0166073
0.0108613
0.0297448
0.0251216
0.0211858
0.0467477
0.0835012
0.127145
0.174291
0.22089
0.263402
0.300071
0.330742
0.356178
0.376903
0.393464
0.405796
0.41342
0.413781
0.401933
0.364172
0.269728
0.0140349
0.0113118
0.0303696
0.0248944
0.0209967
0.0462482
0.0824932
0.125754
0.172525
0.218846
0.261279
0.297971
0.32876
0.354487
0.375763
0.392974
0.406597
0.416472
0.421956
0.420034
0.404826
0.361195
0.254473
0.0115525
0.01175
0.0308871
0.0246802
0.0207682
0.0458168
0.0816048
0.12426
0.170712
0.216781
0.259072
0.295789
0.326659
0.352522
0.374084
0.391839
0.406101
0.417258
0.425023
0.428533
0.424176
0.404962
0.353906
0.232359
0.00965424
0.0122158
0.0312146
0.0244743
0.0205676
0.0452929
0.0808296
0.122937
0.168776
0.214657
0.256837
0.293519
0.324474
0.350433
0.372153
0.390189
0.404987
0.416781
0.425849
0.431744
0.433298
0.426189
0.402059
0.341664
0.203291
0.00850058
0.0126781
0.0314906
0.0242774
0.0203682
0.0448385
0.0799004
0.121771
0.167048
0.212401
0.254536
0.291218
0.3222
0.348258
0.370096
0.388303
0.403375
0.415702
0.425415
0.432673
0.436825
0.436324
0.425959
0.395645
0.324243
0.168108
0.00800972
0.0130811
0.0317716
0.0240844
0.020179
0.0443824
0.0790898
0.12039
0.16551
0.210375
0.25211
0.288849
0.319895
0.345997
0.367953
0.386294
0.401548
0.414144
0.424393
0.432327
0.437957
0.440408
0.437616
0.423237
0.385202
0.300847
0.129474
0.00792569
0.0134079
0.0320659
0.0239003
0.0199926
0.0439511
0.0782782
0.119177
0.163711
0.208548
0.249918
0.286372
0.317523
0.343706
0.365725
0.384198
0.399596
0.412384
0.422902
0.431387
0.437754
0.441869
0.442555
0.437064
0.417644
0.370103
0.270698
0.0921594
0.00805225
0.0136621
0.0323722
0.023715
0.0198176
0.0435268
0.0775099
0.117966
0.162119
0.206441
0.247913
0.28412
0.315063
0.341348
0.363469
0.382021
0.397561
0.410499
0.421221
0.429982
0.436933
0.441886
0.44452
0.443257
0.43446
0.408648
0.349831
0.233444
0.061292
0.00825208
0.0138775
0.0326719
0.0235406
0.0196367
0.0431305
0.0767556
0.116818
0.16053
0.20456
0.245635
0.282032
0.312814
0.338922
0.361148
0.379815
0.395443
0.40853
0.419411
0.428391
0.43564
0.44123
0.444853
0.445949
0.442414
0.429455
0.395644
0.324275
0.189724
0.0390123
0.00846008
0.0139991
0.0329771
0.0233699
0.0194694
0.0427201
0.0760509
0.115691
0.159021
0.202684
0.243584
0.279695
0.310703
0.336696
0.35878
0.377547
0.393297
0.406479
0.417515
0.426666
0.434156
0.440081
0.444423
0.446733
0.446134
0.439826
0.421568
0.377967
0.292426
0.142993
0.0243542
0.00863288
0.0141719
0.0332658
0.0232197
0.019304
0.0423423
0.0753253
0.114636
0.15754
0.200897
0.241538
0.277575
0.308375
0.33458
0.356597
0.375248
0.391091
0.4044
0.41554
0.424852
0.432531
0.438727
0.443456
0.44661
0.447545
0.444973
0.435181
0.410168
0.355
0.253383
0.100077
0.0152876
0.00877886
0.0143527
0.0335625
0.0230662
0.0191629
0.0419692
0.0746576
0.113558
0.156153
0.199144
0.239582
0.275459
0.306246
0.33228
0.354501
0.373123
0.38887
0.402263
0.413532
0.422955
0.430811
0.437218
0.442261
0.445877
0.447837
0.447251
0.442281
0.428021
0.394502
0.326691
0.207254
0.0666502
0.0102258
0.00888666
0.0144754
0.0338729
0.0229081
0.0190129
0.0416537
0.0740004
0.112564
0.154737
0.197494
0.237664
0.27343
0.304124
0.33016
0.35225
0.371062
0.38681
0.400121
0.411465
0.421025
0.429001
0.435601
0.440887
0.444878
0.447408
0.448107
0.445754
0.437764
0.417738
0.373794
0.292358
0.157305
0.0430915
0.00787939
0.00895671
0.0145369
0.0341918
0.0227632
0.0188588
0.0413178
0.0734427
0.111588
0.15343
0.195814
0.23585
0.271441
0.302081
0.328051
0.350163
0.368874
0.384795
0.398132
0.409404
0.419035
0.427154
0.433889
0.439393
0.443664
0.446652
0.448077
0.447374
0.442871
0.431001
0.403583
0.347652
0.250686
0.11069
0.0268173
0.00700877
0.00896848
0.0145656
0.0344926
0.0226302
0.0187215
0.0409748
0.0728554
0.110756
0.15215
0.194261
0.234011
0.269551
0.30008
0.326013
0.348085
0.366832
0.382675
0.396166
0.407486
0.417052
0.425239
0.43213
0.437789
0.44231
0.445637
0.447628
0.447872
0.445534
0.438329
0.421423
0.384732
0.316301
0.202235
0.0747621
0.0162461
0.00675054
0.00896022
0.0145769
0.0347237
0.02251
0.0185947
0.0406726
0.0722585
0.109888
0.151053
0.192741
0.232301
0.267642
0.298171
0.324019
0.346075
0.364802
0.380688
0.394117
0.405577
0.415207
0.423341
0.4303
0.436129
0.440833
0.44445
0.446856
0.447814
0.446733
0.442407
0.431728
0.408299
0.360594
0.278309
0.150767
0.0486995
0.010102
0.00669185
0.00894677
0.0145759
0.0349889
0.0223897
0.0184814
0.0403937
0.0717343
0.109009
0.149913
0.191428
0.23063
0.265857
0.29625
0.322111
0.344109
0.362832
0.378711
0.392185
0.403596
0.413357
0.421571
0.428487
0.434388
0.439284
0.443115
0.445869
0.447345
0.447182
0.444551
0.437732
0.422522
0.390782
0.331109
0.232987
0.106238
0.0307412
0.007046
0.00668129
0.00894091
0.0146676
0.0353061
0.0222627
0.0183681
0.0401449
0.0712518
0.108238
0.148766
0.190072
0.229174
0.264116
0.294447
0.320209
0.342221
0.360908
0.376789
0.390265
0.401724
0.411445
0.419781
0.426792
0.432665
0.437645
0.441694
0.444708
0.446605
0.447096
0.445667
0.441153
0.431119
0.409994
0.368025
0.296022
0.18185
0.0719455
0.0186058
0.00582012
0.00666824
0.00899041
0.0149172
0.0352916
0.0221335
0.0182449
0.039901
0.0708212
0.10753
0.147759
0.188713
0.227677
0.262584
0.292692
0.318417
0.340347
0.359053
0.374912
0.388396
0.399862
0.409629
0.417934
0.425065
0.431052
0.436016
0.440168
0.443434
0.445647
0.446662
0.446075
0.443156
0.436274
0.422044
0.393287
0.339899
0.253746
0.131852
0.0468137
0.0111082
0.00544368
0.00665525
0.0091071
0.0150781
0.0353246
0.0220236
0.0181212
0.039636
0.0704052
0.106898
0.146835
0.187516
0.226183
0.261016
0.29113
0.316678
0.338574
0.357218
0.373098
0.38657
0.398043
0.407826
0.416178
0.423288
0.429392
0.434489
0.438645
0.44204
0.444551
0.445955
0.446023
0.444203
0.439468
0.429544
0.409811
0.371532
0.306764
0.205081
0.0920793
0.0294952
0.0071005
0.00536369
0.0066907
0.00917731
0.0152718
0.035355
0.0219346
0.0180217
0.0393713
0.0699563
0.106293
0.146011
0.186417
0.224864
0.259457
0.289538
0.315113
0.336856
0.355475
0.371309
0.384801
0.396268
0.40606
0.414431
0.42159
0.427683
0.432899
0.437209
0.440633
0.443308
0.445067
0.445623
0.444636
0.44136
0.43434
0.420442
0.393576
0.344566
0.266836
0.153595
0.0623365
0.0178202
0.00530695
0.00538192
0.0067169
0.00918802
0.0154662
0.0353793
0.0218462
0.017942
0.0391637
0.0695093
0.105645
0.145224
0.185438
0.223649
0.258076
0.287963
0.313525
0.335295
0.353788
0.369603
0.38306
0.394546
0.404337
0.412717
0.419902
0.426045
0.431266
0.435704
0.439301
0.442037
0.444007
0.44499
0.444621
0.442418
0.437358
0.427401
0.408287
0.372453
0.312593
0.220007
0.109493
0.0402678
0.0105856
0.00470256
0.00539594
0.00670197
0.00920822
0.0156358
0.0353959
0.0217508
0.017859
0.0389981
0.069162
0.105001
0.144384
0.184499
0.222562
0.256797
0.286561
0.311958
0.333719
0.352243
0.367954
0.381394
0.392852
0.402658
0.411045
0.418239
0.424418
0.429694
0.43415
0.437884
0.44082
0.442891
0.444147
0.444301
0.442886
0.439237
0.431934
0.418135
0.392239
0.346189
0.274303
0.168858
0.0759839
0.0250927
0.00662659
0.00455742
0.00538565
0.00668553
0.00924201
0.0157602
0.0354057
0.0216561
0.017767
0.0388252
0.0688864
0.104504
0.143556
0.183504
0.221515
0.255647
0.285256
0.310559
0.332169
0.350686
0.366432
0.379784
0.391226
0.401013
0.409411
0.416617
0.422811
0.42813
0.432648
0.436425
0.439507
0.441807
0.443217
0.44372
0.44296
0.440329
0.4349
0.424704
0.405859
0.371396
0.314919
0.228982
0.122221
0.0508006
0.0150824
0.00480748
0.00453075
0.00536025
0.00669001
0.00930974
0.0158512
0.0354112
0.0215649
0.0176789
0.0386331
0.0685995
0.104112
0.142918
0.182531
0.220418
0.254536
0.284074
0.30925
0.330776
0.34916
0.3649
0.378288
0.389658
0.399427
0.407811
0.41503
0.421239
0.42658
0.431154
0.435004
0.438154
0.440617
0.442287
0.443014
0.442699
0.440894
0.436804
0.429131
0.415148
0.38973
0.34547
0.277624
0.17867
0.0859613
0.0323233
0.00898742
0.00415289
0.00451375
0.00533802
0.0067037
0.0094205
0.0160226
0.0354141
0.0214751
0.0175939
0.0384542
0.0682843
0.103703
0.142415
0.181776
0.219349
0.253382
0.282931
0.308055
0.329469
0.347784
0.363403
0.376784
0.388192
0.3979
0.406269
0.413476
0.419698
0.425061
0.429665
0.433585
0.436824
0.439385
0.441237
0.442268
0.44226
0.441034
0.437998
0.43211
0.421538
0.402572
0.368837
0.314583
0.233276
0.130733
0.0587112
0.0198553
0.00568134
0.00395693
0.00450078
0.005326
0.00673233
0.00964144
0.016017
0.0354151
0.0213947
0.0175091
0.0382808
0.0679938
0.103259
0.141891
0.181182
0.218514
0.252264
0.281752
0.306896
0.328269
0.346486
0.362049
0.37532
0.386718
0.396464
0.40478
0.411975
0.418192
0.423569
0.428206
0.432166
0.43549
0.438157
0.440144
0.441378
0.441735
0.440923
0.438639
0.434122
0.425955
0.411582
0.386126
0.342911
0.277815
0.183697
0.092541
0.0382278
0.0118545
0.00417342
0.00390409
0.00448677
0.00532595
0.00680777
0.00975542
0.0160237
0.0354145
0.0213283
0.017436
0.0381084
0.0677127
0.102853
0.141328
0.18056
0.21785
0.251383
0.280618
0.305711
0.327099
0.345288
0.360765
0.37399
0.385283
0.395018
0.403376
0.410525
0.416732
0.422113
0.42677
0.430769
0.434146
0.436918
0.43903
0.440438
0.441037
0.440666
0.438936
0.435403
0.429046
0.417931
0.398558
0.364901
0.312092
0.234043
0.135196
0.0641512
0.0238067
0.00712464
0.00363749
0.0038881
0.00448111
0.00536022
0.00685346
0.00983719
0.0160283
0.0354124
0.0212743
0.0173807
0.0379636
0.0674343
0.102461
0.140812
0.179899
0.217152
0.250666
0.279711
0.304576
0.325913
0.344115
0.359574
0.372724
0.383978
0.393614
0.401959
0.409151
0.415322
0.420697
0.425364
0.42939
0.432822
0.435658
0.437896
0.439451
0.440272
0.440197
0.439009
0.436213
0.431159
0.422463
0.407476
0.3816
0.338693
0.275434
0.185117
0.0959957
0.0424273
0.0143574
0.00464011
0.00348175
0.00388599
0.00448845
0.00538754
0.00691559
0.00988901
0.0160303
0.0354098
0.0212177
0.017338
0.0378591
0.0672045
0.102075
0.140317
0.179293
0.216421
0.249913
0.278956
0.303656
0.32478
0.342934
0.358405
0.371544
0.382734
0.392336
0.400585
0.407764
0.413981
0.419326
0.423993
0.428042
0.431508
0.434414
0.43673
0.438435
0.439429
0.43963
0.438819
0.436696
0.432624
0.42567
0.413937
0.393856
0.359811
0.307676
0.231828
0.136633
0.0670926
0.0267152
0.00852994
0.0035701
0.00344565
0.00389535
0.00449604
0.00541366
0.00700098
0.00994421
0.0160314
0.0354069
0.0211537
0.0172882
0.0377821
0.067043
0.10176
0.139834
0.178714
0.215749
0.249138
0.278165
0.302872
0.32385
0.341811
0.357233
0.370381
0.381567
0.391112
0.399332
0.40642
0.412624
0.418019
0.422668
0.426721
0.43022
0.433171
0.43557
0.437374
0.438545
0.438955
0.438494
0.436849
0.433626
0.42799
0.418607
0.402876
0.376179
0.333083
0.27075
0.183234
0.0971467
0.0447976
0.0162204
0.00525163
0.00321325
0.00344573
0.00390187
0.00450173
0.00543859
0.00712272
0.00994268
0.0160324
0.0354043
0.0210808
0.0172261
0.0376879
0.0669276
0.101545
0.139443
0.178153
0.21511
0.248422
0.277363
0.302055
0.323041
0.340876
0.356124
0.369221
0.380411
0.389959
0.398131
0.405195
0.411308
0.416694
0.421395
0.425441
0.428954
0.431948
0.434405
0.436311
0.437601
0.438218
0.438012
0.436818
0.434205
0.429657
0.422055
0.409502
0.388511
0.353662
0.301635
0.226905
0.135309
0.0681509
0.0284143
0.00962641
0.00366259
0.00312273
0.00345283
0.0039043
0.00451383
0.00549732
0.00717884
0.00994117
0.0160328
0.0354021
0.0210083
0.0171498
0.0375648
0.0667835
0.101393
0.139181
0.177702
0.214495
0.247744
0.27662
0.301232
0.322201
0.34005
0.355188
0.368126
0.379264
0.388813
0.396991
0.404011
0.410108
0.415408
0.420104
0.424207
0.427723
0.430738
0.433255
0.43523
0.436646
0.437411
0.43745
0.436573
0.434538
0.43077
0.424588
0.414455
0.397724
0.369921
0.32628
0.264119
0.178289
0.0960792
0.0457336
0.017328
0.00578287
0.00305751
0.0031078
0.00346044
0.0039
0.00454875
0.0055551
0.00720823
0.00994048
0.0160325
0.0354002
0.020939
0.0170769
0.0374078
0.0665918
0.101203
0.138997
0.177402
0.214001
0.247093
0.275916
0.300474
0.321362
0.33919
0.354346
0.367193
0.378184
0.38768
0.395856
0.402888
0.40895
0.414234
0.418851
0.422954
0.426534
0.429562
0.432107
0.43416
0.435661
0.436577
0.436794
0.436213
0.434585
0.431558
0.426388
0.418137
0.404687
0.382462
0.346504
0.294169
0.219688
0.131135
0.0673882
0.0290814
0.010291
0.00379675
0.00288062
0.00310938
0.00346158
0.00391548
0.0045818
0.00562565
0.00722097
0.00994084
0.0160323
0.0353986
0.0208779
0.0170102
0.0372582
0.066341
0.100945
0.138764
0.177184
0.213665
0.246569
0.275244
0.299753
0.32059
0.338339
0.353472
0.366341
0.377256
0.386614
0.394735
0.401766
0.407844
0.413101
0.417706
0.421737
0.425323
0.42842
0.430989
0.433081
0.434679
0.435702
0.436101
0.435733
0.434475
0.431972
0.427748
0.420834
0.409906
0.392077
0.362788
0.318306
0.255766
0.170952
0.093075
0.0451853
0.0177486
0.00611199
0.00296335
0.0028415
0.00311222
0.00347086
0.00393245
0.00460982
0.00569058
0.00721624
0.00994123
0.0160324
0.035397
0.0208262
0.0169538
0.037122
0.0661013
0.100601
0.138447
0.176912
0.213414
0.246201
0.274698
0.299066
0.319857
0.337558
0.352615
0.365455
0.376397
0.385693
0.393684
0.400659
0.406735
0.412014
0.416598
0.42062
0.424143
0.427254
0.429897
0.432028
0.433679
0.434817
0.435347
0.4352
0.434204
0.43217
0.428626
0.42293
0.413795
0.399346
0.375782
0.338325
0.285301
0.210532
0.124877
0.065151
0.0286826
0.0105266
0.00387537
0.00269414
0.00283523
0.0031233
0.00347899
0.00395255
0.00465792
0.0057102
0.00721349
0.00994175
0.0160328
0.0353971
0.0207838
0.0169095
0.0370101
0.0658824
0.10027
0.13802
0.176545
0.213102
0.24591
0.274299
0.298503
0.319157
0.336814
0.351824
0.364593
0.375502
0.384831
0.392771
0.399623
0.405643
0.410921
0.415534
0.419542
0.42306
0.426114
0.428782
0.430995
0.432696
0.433904
0.434573
0.434587
0.433851
0.43216
0.429215
0.4244
0.416854
0.40483
0.38573
0.354904
0.309246
0.245739
0.161696
0.0885759
0.0434779
0.0174703
0.0062091
0.00288147
0.00262479
0.00284225
0.00313512
0.00348521
0.00398256
0.00470825
0.00571848
0.00721295
0.00994246
0.0160334
0.0353973
0.0207498
0.0168777
0.0369256
0.0657063
0.099969
0.137608
0.176054
0.212695
0.245562
0.273968
0.298075
0.318577
0.336106
0.351075
0.363795
0.374634
0.383927
0.391908
0.398721
0.404618
0.409845
0.41446
0.418503
0.422011
0.425065
0.427686
0.429932
0.431726
0.433003
0.433761
0.433941
0.433399
0.432027
0.429529
0.425484
0.41909
0.409168
0.393334
0.368174
0.329285
0.274993
0.199539
0.11711
0.061767
0.0274615
0.0103379
0.00386042
0.00253834
0.00261541
0.00285247
0.00314049
0.00350047
0.00400566
0.0047596
0.00571102
0.00721349
0.00994295
0.0160338
0.0353977
0.0207165
0.0168574
0.0368719
0.0655757
0.099729
0.137234
0.17558
0.21216
0.24512
0.273583
0.297706
0.318121
0.335511
0.35036
0.36304
0.373832
0.383055
0.391001
0.397859
0.403729
0.408836
0.413398
0.417449
0.421
0.424052
0.426676
0.428885
0.430725
0.432104
0.43295
0.43324
0.432902
0.431763
0.429666
0.426208
0.420807
0.412414
0.39938
0.378523
0.345922
0.299138
0.233984
0.150775
0.0829882
0.040864
0.0166557
0.00606734
0.00278322
0.00244805
0.00262272
0.00286123
0.0031474
0.00351749
0.00404556
0.00476907
0.00570764
0.00721426
0.00994367
0.0160347
0.035399
0.0206789
0.0168351
0.0368456
0.0655002
0.0995557
0.136938
0.175147
0.211644
0.244556
0.27311
0.297284
0.317714
0.33503
0.349753
0.362322
0.373074
0.382251
0.390126
0.396948
0.402874
0.407959
0.412405
0.416408
0.419969
0.423068
0.425698
0.427919
0.429733
0.431173
0.432133
0.432535
0.43233
0.43143
0.42963
0.426687
0.422056
0.414956
0.403973
0.386827
0.359475
0.318964
0.263347
0.186899
0.108148
0.0574691
0.0256212
0.00981201
0.00373405
0.00240014
0.00243437
0.00262985
0.00287011
0.00315346
0.00354541
0.0040869
0.0047681
0.00570716
0.00721518
0.00994468
0.0160358
0.0354013
0.0206388
0.0168058
0.0368118
0.065471
0.0994633
0.136728
0.17481
0.211174
0.244019
0.272529
0.296784
0.317258
0.334586
0.349248
0.361705
0.372352
0.381492
0.389319
0.396072
0.401964
0.407112
0.411542
0.415432
0.418947
0.422063
0.424746
0.426979
0.428813
0.430243
0.43128
0.431809
0.431742
0.431007
0.429494
0.426934
0.42297
0.416877
0.407603
0.393214
0.370673
0.335719
0.287418
0.220626
0.138781
0.0765062
0.0375951
0.0154377
0.00573237
0.00265435
0.00229713
0.00243718
0.0026387
0.0028744
0.00316889
0.00356575
0.00411623
0.00476056
0.00570779
0.00721617
0.00994576
0.016037
0.0354039
0.0205971
0.0167713
0.0367608
0.0654289
0.0994375
0.136622
0.174568
0.210806
0.243525
0.27198
0.296191
0.316733
0.334098
0.348771
0.361181
0.371728
0.380768
0.38856
0.395268
0.401089
0.406209
0.410707
0.414583
0.417989
0.421064
0.423771
0.426064
0.427918
0.429373
0.430417
0.431044
0.431123
0.430557
0.429243
0.427041
0.423577
0.41835
0.410406
0.398295
0.379405
0.350014
0.307376
0.249667
0.17282
0.098515
0.0524274
0.0233475
0.0090386
0.00351525
0.00226825
0.00227767
0.00244487
0.00264548
0.00288291
0.0031869
0.00360019
0.00411911
0.00475822
0.00570875
0.0072173
0.00994708
0.016039
0.0354077
0.0205571
0.0167331
0.0366953
0.065354
0.0993923
0.136601
0.174453
0.210542
0.24314
0.271476
0.295638
0.31613
0.333551
0.348254
0.360676
0.371189
0.380139
0.387836
0.394509
0.400285
0.405334
0.409813
0.413762
0.417158
0.420127
0.422795
0.425118
0.427042
0.428526
0.429607
0.43026
0.430457
0.43006
0.42895
0.426999
0.42399
0.419418
0.412603
0.402267
0.38641
0.361653
0.324681
0.274102
0.204892
0.126154
0.0693754
0.0338501
0.0139508
0.0052611
0.00249935
0.00216309
0.00227957
0.00245019
0.00265414
0.00289078
0.0032092
0.00363288
0.00411025
0.00475839
0.00570983
0.00721857
0.00994863
0.0160411
0.0354111
0.0205156
0.0166922
0.036619
0.0652539
0.0992958
0.136555
0.174428
0.210414
0.242858
0.271079
0.295128
0.315574
0.332941
0.347687
0.36013
0.370659
0.379589
0.387203
0.393784
0.399523
0.40453
0.408944
0.41288
0.416353
0.419315
0.421882
0.424174
0.426133
0.427695
0.428814
0.429517
0.429764
0.429508
0.428591
0.426889
0.424204
0.420222
0.41427
0.405418
0.391939
0.371141
0.339254
0.294906
0.234139
0.156475
0.0889313
0.0468775
0.0207912
0.00811263
0.00323687
0.00214011
0.0021432
0.00228539
0.00245967
0.00265858
0.00290717
0.00323149
0.00364084
0.00410524
0.00475929
0.00571107
0.00721993
0.00995042
0.0160435
0.0354166
0.0204753
0.0166476
0.0365331
0.065132
0.0991622
0.136439
0.174378
0.210377
0.242712
0.270779
0.29472
0.315062
0.332384
0.347071
0.359544
0.370088
0.379036
0.386646
0.393148
0.398803
0.403772
0.40814
0.412018
0.415484
0.418527
0.42109
0.423285
0.42522
0.426828
0.428033
0.428786
0.429094
0.428915
0.428171
0.42669
0.424319
0.420766
0.415576
0.40787
0.39636
0.378722
0.351564
0.312231
0.259563
0.187619
0.112415
0.0619757
0.0298155
0.0123065
0.00470999
0.00232906
0.0020434
0.00214336
0.00229335
0.00246508
0.00266753
0.00292564
0.00325946
0.00363527
0.00410455
0.00476046
0.00571237
0.00722149
0.00995236
0.0160464
0.0354226
0.0204359
0.0166018
0.0364358
0.0649917
0.0989941
0.136274
0.17424
0.21031
0.24265
0.270613
0.294405
0.314644
0.331871
0.346513
0.358923
0.369483
0.378444
0.386076
0.392587
0.398168
0.403054
0.407385
0.41122
0.414635
0.417675
0.420323
0.422517
0.424362
0.425952
0.427214
0.428061
0.428432
0.428333
0.427694
0.426419
0.424312
0.42116
0.416544
0.409831
0.399855
0.384831
0.361753
0.327335
0.280649
0.217215
0.139472
0.0791214
0.0410597
0.0180889
0.00709992
0.00292472
0.00201638
0.00202402
0.00214975
0.00229942
0.0024736
0.00267811
0.00293877
0.00327432
0.0036272
0.00410539
0.00476168
0.00571388
0.00722317
0.00995445
0.01605
0.0354291
0.0203996
0.0165561
0.0363334
0.0648291
0.0987985
0.136063
0.174047
0.210147
0.24256
0.27052
0.294217
0.314314
0.331446
0.346
0.358366
0.368857
0.37782
0.385464
0.392005
0.397604
0.402421
0.406672
0.410469
0.413838
0.416835
0.419489
0.421772
0.423618
0.425126
0.42638
0.427294
0.427774
0.427751
0.427213
0.426077
0.424214
0.421389
0.417295
0.411345
0.40268
0.389722
0.370052
0.340192
0.298648
0.242728
0.169541
0.0987056
0.0543862
0.0256554
0.0105869
0.00411891
0.00215273
0.0019338
0.00202558
0.00215645
0.0023089
0.00248064
0.00269189
0.00296268
0.00327086
0.00362545
0.00410651
0.004763
0.00571554
0.00722518
0.00995705
0.0160542
0.0354369
0.0203641
0.016514
0.0362288
0.0646557
0.0985662
0.135815
0.173799
0.209931
0.24237
0.270399
0.294092
0.314102
0.331101
0.345571
0.357853
0.368301
0.377188
0.384824
0.391376
0.397014
0.401858
0.406042
0.40976
0.413093
0.416047
0.418663
0.420961
0.422899
0.424412
0.425593
0.426511
0.427069
0.427167
0.426724
0.42571
0.424025
0.421503
0.417824
0.412559
0.40491
0.393695
0.376787
0.351101
0.314014
0.264792
0.197626
0.122977
0.0692346
0.0352291
0.0153489
0.00606151
0.00260471
0.0018989
0.00191913
0.00203081
0.00216426
0.00231527
0.0024864
0.00270797
0.00298389
0.00326081
0.00362608
0.00410776
0.00476455
0.00571726
0.00722733
0.00996007
0.0160587
0.0354454
0.0203313
0.0164757
0.0361315
0.0644771
0.0983174
0.135519
0.17351
0.209653
0.242131
0.270181
0.293938
0.313943
0.330868
0.345214
0.357421
0.367791
0.376634
0.384187
0.390722
0.396373
0.401267
0.405484
0.409138
0.412392
0.415306
0.417884
0.420149
0.422112
0.423723
0.424913
0.425765
0.426342
0.426533
0.426223
0.425327
0.423793
0.421496
0.4182
0.413472
0.406725
0.396876
0.382288
0.360204
0.327531
0.283426
0.22403
0.149193
0.0861156
0.0467242
0.0216097
0.00888051
0.00353456
0.0019842
0.00183586
0.0019206
0.00203849
0.00217176
0.00231869
0.002499
0.00272523
0.00297865
0.0032579
0.00362722
0.00410919
0.00476619
0.0057192
0.00722971
0.0099632
0.016064
0.0354546
0.0203003
0.0164415
0.036043
0.0643065
0.0980582
0.135201
0.173163
0.209333
0.241829
0.269921
0.293692
0.313755
0.330676
0.344961
0.357055
0.367356
0.376126
0.383633
0.39008
0.395709
0.40062
0.404895
0.408585
0.411775
0.414612
0.41715
0.41938
0.421321
0.422963
0.424253
0.425121
0.425646
0.425868
0.425669
0.424924
0.423532
0.421421
0.418419
0.414185
0.408137
0.399483
0.386736
0.367683
0.339079
0.299487
0.246809
0.176958
0.106024
0.0596436
0.0295839
0.0127341
0.0050596
0.00230494
0.00179264
0.00182548
0.00192684
0.00204553
0.00217618
0.0023257
0.00251388
0.00274044
0.00296997
0.0032583
0.00362849
0.00411071
0.00476796
0.00572134
0.00723241
0.00996696
0.0160698
0.0354652
0.0202717
0.0164102
0.0359641
0.0641501
0.0978093
0.134869
0.17279
0.208951
0.241489
0.269601
0.293413
0.31348
0.330457
0.34474
0.356784
0.366985
0.375692
0.383127
0.389524
0.39506
0.399947
0.404243
0.408
0.411229
0.414004
0.416468
0.418659
0.420566
0.422195
0.423524
0.424499
0.425045
0.425228
0.425079
0.424463
0.423243
0.421302
0.418537
0.414692
0.409283
0.401551
0.390397
0.37381
0.348956
0.313342
0.266498
0.202879
0.12954
0.0741044
0.0391911
0.0178153
0.00728011
0.00299052
0.00183345
0.00174762
0.00182867
0.00193383
0.0020497
0.00218134
0.00233652
0.00252696
0.00274163
0.00296599
0.00325945
0.00362993
0.00411237
0.00476992
0.00572369
0.00723546
0.00997122
0.0160765
0.0354765
0.0202443
0.0163822
0.0358917
0.0640105
0.0975786
0.134547
0.172401
0.208545
0.241086
0.269248
0.293077
0.313181
0.330153
0.34449
0.356536
0.3667
0.375317
0.382695
0.38902
0.3945
0.39929
0.403564
0.407353
0.410653
0.413468
0.415867
0.417984
0.419854
0.421455
0.422784
0.423807
0.42446
0.424674
0.424503
0.423957
0.422887
0.421144
0.418588
0.415053
0.410164
0.403262
0.393339
0.378872
0.357244
0.325627
0.283243
0.226666
0.154434
0.0904591
0.0503999
0.0242228
0.0103272
0.00413851
0.0020389
0.00169774
0.00174242
0.00183467
0.00193853
0.00205655
0.00218815
0.00234713
0.00254081
0.00273211
0.00296622
0.00326077
0.00363145
0.00411418
0.00477207
0.00572633
0.00723886
0.00997601
0.0160841
0.0354892
0.0202185
0.016356
0.0358277
0.0638833
0.0973698
0.134244
0.172026
0.208123
0.240665
0.268835
0.292712
0.312831
0.329833
0.344161
0.356259
0.366427
0.375022
0.382319
0.388591
0.393998
0.398727
0.402905
0.406668
0.410009
0.412902
0.41534
0.417395
0.419194
0.420758
0.422064
0.423099
0.42381
0.424136
0.424004
0.423456
0.422478
0.420908
0.418583
0.415316
0.410839
0.404628
0.395797
0.382983
0.364123
0.336144
0.297829
0.247224
0.179932
0.109836
0.0626794
0.0321376
0.0143092
0.00583413
0.00250871
0.00170317
0.00166928
0.0017462
0.00183939
0.00194473
0.0020629
0.00219414
0.00235888
0.00254237
0.0027277
0.00296735
0.0032622
0.00363314
0.00411615
0.00477436
0.00572927
0.00724254
0.00998116
0.0160921
0.035504
0.0201922
0.0163327
0.0357689
0.0637683
0.0971796
0.133971
0.171668
0.207719
0.240229
0.268411
0.292297
0.312457
0.329469
0.343821
0.355904
0.366124
0.374728
0.382016
0.388215
0.393572
0.398225
0.402336
0.406002
0.409322
0.412262
0.414785
0.416881
0.418617
0.420111
0.421385
0.422403
0.423138
0.423532
0.423518
0.423019
0.422064
0.420613
0.418486
0.415497
0.411373
0.405715
0.397803
0.386437
0.369787
0.345224
0.310448
0.265123
0.203772
0.132071
0.0763248
0.0414428
0.019388
0.0081589
0.00333115
0.0018157
0.00161515
0.00166763
0.00175073
0.00184506
0.00194977
0.00206515
0.00220403
0.0023735
0.00253341
0.00272783
0.00296869
0.00326377
0.00363499
0.0041183
0.00477699
0.00573243
0.00724673
0.00998695
0.0161011
0.0355196
0.0201686
0.0163096
0.0357145
0.0636629
0.0970095
0.13372
0.171344
0.207326
0.239814
0.267973
0.291876
0.312041
0.329089
0.343443
0.355546
0.365747
0.374404
0.381707
0.38791
0.393197
0.3978
0.401833
0.405431
0.408652
0.411575
0.414153
0.41634
0.418115
0.419549
0.420756
0.421744
0.422472
0.422903
0.422966
0.42259
0.421698
0.420296
0.41832
0.415568
0.411789
0.406599
0.39943
0.389294
0.374563
0.352885
0.321736
0.280403
0.225529
0.155233
0.0917746
0.0519636
0.025659
0.011224
0.00457293
0.00211019
0.00159547
0.00159916
0.00167097
0.00175601
0.00185057
0.00195509
0.00207056
0.00221466
0.00237292
0.00252885
0.00272902
0.00297016
0.00326548
0.00363696
0.00412065
0.00477984
0.00573593
0.00725145
0.0099934
0.0161113
0.0355361
0.0201453
0.0162897
0.0356629
0.063566
0.0968504
0.133494
0.171044
0.206971
0.239407
0.267558
0.291443
0.311627
0.328674
0.343057
0.355156
0.365371
0.374006
0.381364
0.387589
0.392893
0.397429
0.401409
0.404925
0.408077
0.410904
0.41347
0.415717
0.417588
0.419061
0.42021
0.421134
0.421838
0.422272
0.422386
0.422098
0.421335
0.420013
0.418117
0.415553
0.412068
0.407317
0.400773
0.391637
0.378555
0.359373
0.331437
0.293824
0.244364
0.178737
0.110007
0.0633398
0.0331879
0.0151283
0.0063026
0.00266218
0.00164161
0.00154344
0.0015992
0.0016755
0.00176173
0.00185454
0.00195751
0.00208104
0.00222648
0.00236417
0.00252909
0.00273038
0.00297174
0.00326733
0.0036391
0.00412321
0.00478295
0.00573987
0.0072565
0.0100007
0.0161227
0.0355543
0.0201245
0.0162715
0.0356185
0.0634747
0.0967044
0.133284
0.170775
0.206641
0.239039
0.26715
0.291036
0.311205
0.328269
0.342644
0.354765
0.36497
0.373613
0.380948
0.387232
0.392564
0.397128
0.40104
0.404503
0.40757
0.410323
0.412796
0.415039
0.41698
0.418554
0.419737
0.420606
0.42125
0.421667
0.421795
0.421576
0.420911
0.419727
0.41793
0.415482
0.412239
0.407862
0.401884
0.393587
0.381855
0.364859
0.339935
0.305416
0.260881
0.200716
0.130643
0.0759351
0.0418541
0.0199728
0.00858746
0.0035314
0.00180368
0.00150867
0.00153529
0.00160313
0.00168121
0.00176546
0.00185736
0.00196301
0.00209178
0.00222727
0.00236004
0.00253032
0.00273187
0.00297348
0.00326934
0.00364148
0.00412602
0.00478639
0.00574418
0.00726217
0.0100088
0.0161349
0.0355744
0.0201051
0.0162555
0.0355787
0.0633948
0.0965677
0.133091
0.170524
0.206345
0.238697
0.266784
0.290637
0.310808
0.327857
0.342247
0.354353
0.364574
0.373198
0.380539
0.386801