/*--------------------------------*- C++ -*----------------------------------*\
| =========                 |                                                 |
| \\      /  F ield         | OpenFOAM: The Open Source CFD Toolbox           |
|  \\    /   O peration     | Version:  v2012                                 |
|   \\  /    A nd           | Website:  www.openfoam.com                      |
|    \\/     M anipulation  |                                                 |
\*---------------------------------------------------------------------------*/
FoamFile
{
    version     2.0;
    format      ascii;
    class       volVectorField;
    location    "13600";
    object      U;
}
// * * * * * * * * * * * * * * * * * * * * * * * * * * * * * * * * * * * * * //

dimensions      [0 1 -1 0 0 0 0];


internalField   nonuniform List<vector> 
39402
(
(300.405 5.81178 0)
(57.0939 0.0523902 0)
(583.694 16.502 0)
(34.8065 0.0150767 0)
(160.17 0.189815 0)
(772.912 27.0562 0)
(33.8778 0.000403769 0)
(100.198 0.0714253 0)
(256.573 0.553197 0)
(908.701 35.0421 0)
(36.236 -0.00243202 0)
(98.0307 -0.000643371 0)
(162.868 0.150022 0)
(348.31 1.16025 0)
(1010.5 41.3373 0)
(38.3737 -0.00149445 0)
(104.819 -0.0126318 0)
(159.917 -0.00279594 0)
(223.906 0.238881 0)
(436.431 1.93757 0)
(1089.25 46.3061 0)
(39.5495 -0.00194399 0)
(110.969 -0.00763435 0)
(170.995 -0.0324211 0)
(220.541 -0.0058925 0)
(284.144 0.339667 0)
(521.529 2.85801 0)
(1151.61 50.3643 0)
(40.2437 0.00112005 0)
(114.357 -0.0083643 0)
(180.999 -0.0194945 0)
(235.851 -0.062547 0)
(280.535 -0.00974722 0)
(344.263 0.463285 0)
(603.883 3.91598 0)
(1202.08 53.6278 0)
(40.4486 0.0018805 0)
(116.361 -5.75002e-06 0)
(186.514 -0.0189627 0)
(249.595 -0.0386323 0)
(299.886 -0.104629 0)
(340.162 -0.0134514 0)
(404.827 0.621391 0)
(683.649 5.12086 0)
(1243.64 56.2956 0)
(40.4105 0.00198684 0)
(116.962 0.00353984 0)
(189.77 -0.00318178 0)
(257.172 -0.0342301 0)
(317.124 -0.0666521 0)
(362.975 -0.159765 0)
(399.395 -0.0170107 0)
(466.28 0.819694 0)
(760.775 6.47233 0)
(1278.37 58.5152 0)
(40.2026 -0.00102294 0)
(116.873 0.00328206 0)
(190.739 0.0035502 0)
(261.637 -0.00861681 0)
(326.608 -0.0544273 0)
(383.158 -0.105405 0)
(424.546 -0.229042 0)
(458.08 -0.0265883 0)
(528.983 1.07131 0)
(835.096 7.97032 0)
(1307.8 60.257 0)
(39.9031 -0.00214493 0)
(116.299 -0.00198804 0)
(190.589 0.00278109 0)
(262.951 0.00216175 0)
(332.175 -0.0173834 0)
(394.185 -0.0796645 0)
(446.748 -0.154963 0)
(483.982 -0.310749 0)
(516.203 -0.0475772 0)
(593.193 1.38307 0)
(906.289 9.62343 0)
(1333.03 61.5966 0)
(39.5512 0.00042207 0)
(115.46 -0.00445501 0)
(189.652 -0.00231242 0)
(262.735 0.00128936 0)
(333.783 -0.000167552 0)
(400.615 -0.0294157 0)
(458.738 -0.109829 0)
(507.003 -0.213211 0)
(540.967 -0.40154 0)
(574.186 -0.0811234 0)
(659.041 1.76923 0)
(973.968 11.4357 0)
(1354.84 62.5582 0)
(39.1757 0.00142332 0)
(114.467 0.00162018 0)
(188.282 -0.00531263 0)
(261.44 -0.00265411 0)
(333.487 -0.00111388 0)
(402.399 -0.00345424 0)
(465.656 -0.0445512 0)
(519.267 -0.145066 0)
(563.537 -0.278298 0)
(595.993 -0.495871 0)
(632.535 -0.12654 0)
(726.52 2.23495 0)
(1037.64 13.421 0)
(1373.93 63.1426 0)
(38.7982 0.000133531 0)
(113.401 0.00431063 0)
(186.659 0.00326015 0)
(259.55 -0.00541587 0)
(331.837 -0.00376779 0)
(401.983 -0.00297947 0)
(467.436 -0.00742297 0)
(526.25 -0.0627266 0)
(575.402 -0.184466 0)
(616.834 -0.348664 0)
(649.715 -0.588075 0)
(691.516 -0.178684 0)
(795.44 2.78342 0)
(1096.96 15.6048 0)
(1390.74 63.3664 0)
(38.4301 0.00117266 0)
(112.323 0.000831404 0)
(184.906 0.00735864 0)
(257.3 0.00539081 0)
(329.441 -0.00482232 0)
(399.98 -0.00512521 0)
(466.839 -0.00372082 0)
(527.833 -0.0122496 0)
(582.058 -0.0836055 0)
(627.678 -0.227508 0)
(667.583 -0.42255 0)
(702.374 -0.670966 0)
(751.317 -0.229337 0)
(865.408 3.42471 0)
(1151.49 17.992 0)
(1405.66 63.1436 0)
(38.0615 0.00112577 0)
(111.269 0.00169251 0)
(183.131 0.00212766 0)
(254.867 0.011096 0)
(326.587 0.00796121 0)
(397.107 -0.00589062 0)
(464.472 -0.00621833 0)
(526.969 -0.00406045 0)
(583.268 -0.0186724 0)
(633.668 -0.106865 0)
(676.815 -0.273107 0)
(716.139 -0.496931 0)
(754.094 -0.735417 0)
(811.799 -0.257729 0)
(935.768 4.15619 0)
(1200.94 20.5955 0)
(1418.95 62.4997 0)
(37.6982 0.000426335 0)
(110.211 0.00345161 0)
(181.389 0.0022898 0)
(252.402 0.00394023 0)
(323.5 0.0153635 0)
(393.69 0.010962 0)
(461.159 -0.00818961 0)
(524.23 -0.00784312 0)
(582.062 -0.00509058 0)
(634.35 -0.027046 0)
(681.81 -0.131974 0)
(723.21 -0.320441 0)
(762.807 -0.569714 0)
(804.77 -0.774161 0)
(871.847 -0.207678 0)
(1005.54 5.00859 0)
(1245.17 23.4265 0)
(1430.9 61.2043 0)
(37.3444 -0.000889814 0)
(109.165 0.00159001 0)
(179.641 0.00600876 0)
(249.974 0.00407006 0)
(320.364 0.0062584 0)
(390.002 0.0201642 0)
(457.24 0.0144471 0)
(520.509 -0.0103382 0)
(578.931 -0.00912578 0)
(632.721 -0.00790576 0)
(681.83 -0.0382076 0)
(726.892 -0.159188 0)
(767.203 -0.367905 0)
(807.847 -0.637332 0)
(854.209 -0.804225 0)
(930.054 -0.0994966 0)
(1073.48 6.02296 0)
(1284.44 26.5804 0)
(1441.71 59.1767 0)
(36.9734 -8.56661e-05 0)
(108.144 -0.00153018 0)
(177.909 0.00321991 0)
(247.537 0.00917158 0)
(317.275 0.00653855 0)
(386.255 0.00908105 0)
(453.029 0.0255205 0)
(516.143 0.0184297 0)
(574.821 -0.0123621 0)
(629.167 -0.0101394 0)
(679.686 -0.011458 0)
(726.126 -0.0516579 0)
(769.284 -0.188792 0)
(809.145 -0.413949 0)
(851.562 -0.694255 0)
(902.789 -0.795805 0)
(986.774 0.0721504 0)
(1138.1 7.19632 0)
(1319.16 30.1351 0)
(1451.62 55.8954 0)
(36.6223 0.00103973 0)
(107.075 0.000586976 0)
(176.209 -0.00137082 0)
(245.119 0.00538997 0)
(314.169 0.0128873 0)
(382.555 0.00969681 0)
(448.75 0.0124577 0)
(511.492 0.031381 0)
(570.058 0.0229114 0)
(624.666 -0.0117372 0)
(675.669 -0.010264 0)
(723.36 -0.0152013 0)
(767.597 -0.0654656 0)
(809.372 -0.220226 0)
(849.41 -0.455995 0)
(894.322 -0.737089 0)
(951.158 -0.722759 0)
(1042.81 0.361182 0)
(1197.84 8.52987 0)
(1349.92 34.3495 0)
(1460.17 51.6852 0)
(36.3195 4.86428e-06 0)
(106.062 0.00298121 0)
(174.442 0.0015887 0)
(242.743 -0.000742169 0)
(311.085 0.00802803 0)
(378.834 0.017173 0)
(444.522 0.0134461 0)
(506.764 0.0164103 0)
(565.026 0.0376138 0)
(619.517 0.028094 0)
(670.765 -0.00946198 0)
(718.854 -0.0094024 0)
(764.113 -0.0186581 0)
(806.605 -0.0783941 0)
(847.555 -0.25165 0)
(888.379 -0.492304 0)
(936.487 -0.771045 0)
(999.61 -0.616849 0)
(1098.06 0.798387 0)
(1251.41 10.0173 0)
(1375.65 38.8974 0)
(1467.32 47.7038 0)
(35.9885 -0.000957089 0)
(105.181 0.000289479 0)
(172.767 0.0050697 0)
(240.276 0.00306753 0)
(308.051 0.000314871 0)
(375.141 0.0111846 0)
(440.274 0.0220493 0)
(502.097 0.0177532 0)
(559.919 0.0209582 0)
(614.126 0.044362 0)
(665.233 0.0341025 0)
(713.539 -0.00551404 0)
(759.085 -0.00737737 0)
(802.321 -0.0217487 0)
(843.506 -0.0908477 0)
(884.18 -0.279362 0)
(926.393 -0.517579 0)
(978.37 -0.774747 0)
(1048.26 -0.469778 0)
(1152.28 1.43933 0)
(1297.7 11.6511 0)
(1397.1 42.8071 0)
(1472.78 43.545 0)
(35.6755 -0.000367651 0)
(104.227 -0.00128232 0)
(171.3 0.00103441 0)
(237.941 0.00775366 0)
(304.907 0.00575821 0)
(371.507 0.00191937 0)
(436.06 0.0148912 0)
(497.412 0.0274911 0)
(554.881 0.0226536 0)
(608.666 0.0262518 0)
(659.492 0.0516091 0)
(707.63 0.0411237 0)
(753.348 0.000681893 0)
(796.727 -0.00363007 0)
(838.347 -0.0235121 0)
(878.662 -0.102419 0)
(919.578 -0.302003 0)
(963.785 -0.53087 0)
(1020.25 -0.708025 0)
(1096.96 -0.250652 0)
(1204.99 2.34304 0)
(1336.41 13.3272 0)
(1415.51 46.55 0)
(1476.31 40.165 0)
(35.372 0.000764838 0)
(103.318 -0.000506766 0)
(169.715 -0.000853739 0)
(235.885 0.00216712 0)
(301.932 0.0110168 0)
(367.747 0.00887488 0)
(431.91 0.0039657 0)
(492.772 0.0191711 0)
(549.835 0.0334182 0)
(603.289 0.028324 0)
(653.695 0.0324416 0)
(701.557 0.0594263 0)
(747.067 0.0493679 0)
(790.549 0.00947628 0)
(832.14 0.00218576 0)
(872.531 -0.0234657 0)
(912.404 -0.11127 0)
(954.075 -0.318025 0)
(1000.88 -0.52439 0)
(1062.36 -0.595849 0)
(1145.14 0.0816851 0)
(1255.32 3.53113 0)
(1368.29 15.0395 0)
(1431.1 49.3636 0)
(1478.43 37.5456 0)
(35.08 0.000932515 0)
(102.445 0.00220188 0)
(168.209 -0.000439354 0)
(233.669 -3.33984e-05 0)
(299.301 0.00363551 0)
(364.187 0.0149685 0)
(427.633 0.0127242 0)
(488.201 0.00654312 0)
(544.844 0.0239864 0)
(597.918 0.0398883 0)
(647.994 0.0347607 0)
(695.446 0.0396087 0)
(740.67 0.0677466 0)
(783.892 0.0588611 0)
(825.491 0.0209381 0)
(865.648 0.0107053 0)
(905.186 -0.0208997 0)
(945.045 -0.115669 0)
(987.989 -0.323135 0)
(1038 -0.480322 0)
(1104.81 -0.425327 0)
(1191.81 0.559301 0)
(1302.04 5.00756 0)
(1394.28 16.7341 0)
(1443.65 51.4294 0)
(1479.75 34.9307 0)
(34.7974 6.38581e-06 0)
(101.602 0.00275633 0)
(166.762 0.00378894 0)
(231.567 0.000232928 0)
(296.472 0.00109208 0)
(361.022 0.0054204 0)
(423.575 0.0195222 0)
(483.511 0.017243 0)
(539.933 0.00980645 0)
(592.613 0.0294705 0)
(642.319 0.0470349 0)
(689.449 0.0422418 0)
(734.261 0.0479988 0)
(777.172 0.0768683 0)
(818.445 0.0696428 0)
(858.492 0.0355734 0)
(897.555 0.0225947 0)
(936.608 -0.0144691 0)
(976.883 -0.11124 0)
(1021.64 -0.310385 0)
(1075.43 -0.389153 0)
(1147.57 -0.179459 0)
(1236.79 1.25406 0)
(1343.7 6.65689 0)
(1415.26 18.4959 0)
(1453.33 52.7354 0)
(1480.62 32.4296 0)
(34.5302 -0.000944626 0)
(100.783 0.000259976 0)
(165.369 0.00462272 0)
(229.546 0.00590611 0)
(293.79 0.00181298 0)
(357.636 0.00262591 0)
(419.946 0.00752803 0)
(479.051 0.0244988 0)
(534.917 0.0224434 0)
(587.401 0.0139736 0)
(636.726 0.0356881 0)
(683.494 0.0549464 0)
(727.988 0.0510036 0)
(770.474 0.0579077 0)
(811.397 0.0873021 0)
(851.038 0.0819086 0)
(889.846 0.0538643 0)
(928.141 0.0387321 0)
(967.076 -0.00278313 0)
(1008.21 -0.0962588 0)
(1055.32 -0.276138 0)
(1113.4 -0.245418 0)
(1190.46 0.155668 0)
(1280.69 2.25897 0)
(1378.89 8.34071 0)
(1431.8 20.2968 0)
(1460.67 53.5926 0)
(1481.24 29.9004 0)
(34.2622 -0.000457772 0)
(100.007 -0.0019278 0)
(164.014 0.000966954 0)
(227.604 0.00694585 0)
(291.213 0.0085241 0)
(354.423 0.00361954 0)
(416.091 0.00460436 0)
(475.04 0.0100431 0)
(530.138 0.0298247 0)
(582.101 0.0283613 0)
(631.237 0.0191964 0)
(677.644 0.0426848 0)
(721.779 0.0635663 0)
(763.936 0.0611285 0)
(804.409 0.0694604 0)
(843.649 0.0993726 0)
(881.953 0.0960953 0)
(919.821 0.076016 0)
(957.667 0.0604187 0)
(996.853 0.017113 0)
(1039.3 -0.0650749 0)
(1089.32 -0.201318 0)
(1152.06 -0.036486 0)
(1232.91 0.602801 0)
(1323.07 3.68837 0)
(1406.78 9.83241 0)
(1444.63 22.2201 0)
(1466.2 53.7337 0)
(1481.68 27.4531 0)
(34.0068 0.000547161 0)
(99.2367 -0.00072469 0)
(162.732 -0.00214102 0)
(225.717 0.00199181 0)
(288.738 0.00963003 0)
(351.33 0.0116825 0)
(412.423 0.00579656 0)
(470.812 0.00720002 0)
(525.812 0.0129842 0)
(577.042 0.0354817 0)
(625.683 0.0351987 0)
(671.912 0.0256938 0)
(715.693 0.0505703 0)
(757.487 0.0730499 0)
(797.611 0.072854 0)
(836.366 0.08304 0)
(874.202 0.113493 0)
(911.45 0.113437 0)
(948.664 0.101975 0)
(986.377 0.0887253 0)
(1026.19 0.0478104 0)
(1070.44 -0.0115201 0)
(1123.9 -0.0785773 0)
(1191.32 0.267232 0)
(1273.85 1.2123 0)
(1362.18 5.62396 0)
(1427.75 11.0866 0)
(1454.38 24.2995 0)
(1470.34 52.7991 0)
(1481.96 24.8422 0)
(33.7562 0.00082824 0)
(98.5027 0.00153889 0)
(161.461 -0.000541161 0)
(223.929 -0.00135251 0)
(286.333 0.00333526 0)
(348.363 0.0127322 0)
(408.893 0.015317 0)
(466.777 0.00849642 0)
(521.295 0.0104994 0)
(572.441 0.0163979 0)
(620.371 0.0416136 0)
(666.137 0.0430604 0)
(709.742 0.033655 0)
(751.184 0.059476 0)
(790.931 0.0835 0)
(829.305 0.0865575 0)
(866.613 0.0990058 0)
(903.309 0.129894 0)
(939.764 0.135233 0)
(976.603 0.133489 0)
(1014.5 0.124657 0)
(1055.34 0.0932053 0)
(1101.89 0.0725977 0)
(1159.26 0.10465 0)
(1230.86 0.669141 0)
(1313.04 2.10211 0)
(1395.83 7.89805 0)
(1443.08 12.0109 0)
(1461.71 26.6387 0)
(1473.49 51.1841 0)
(1482.12 21.573 0)
(33.5353 0.000569585 0)
(97.7857 0.00242109 0)
(160.256 0.00268962 0)
(222.163 8.98142e-05 0)
(284.053 -0.00122447 0)
(345.482 0.00503117 0)
(405.503 0.0162161 0)
(462.894 0.019388 0)
(516.97 0.0116724 0)
(567.674 0.0146758 0)
(615.517 0.0203729 0)
(660.608 0.0482996 0)
(703.774 0.0520977 0)
(745.03 0.0433046 0)
(784.418 0.0695632 0)
(822.396 0.0951256 0)
(859.282 0.10234 0)
(895.396 0.117819 0)
(931.2 0.149266 0)
(967.115 0.16181 0)
(1003.85 0.173496 0)
(1042.26 0.172438 0)
(1084.54 0.159021 0)
(1133.9 0.199005 0)
(1195.48 0.368113 0)
(1270.06 1.18086 0)
(1350.76 3.38414 0)
(1422.24 10.1312 0)
(1454.23 12.8979 0)
(1467.15 29.317 0)
(1475.81 49.5557 0)
(1482.25 17.9666 0)
(33.3129 0.000419982 0)
(97.1468 0.00162155 0)
(159.079 0.0041016 0)
(220.491 0.0043439 0)
(281.808 0.00100636 0)
(342.755 -0.00160705 0)
(402.217 0.00707961 0)
(459.162 0.020097 0)
(512.806 0.0238585 0)
(563.1 0.0154384 0)
(610.528 0.019814 0)
(655.532 0.0249795 0)
(698.054 0.0555567 0)
(738.889 0.0624568 0)
(778.074 0.0548738 0)
(815.678 0.0810498 0)
(852.139 0.108168 0)
(887.783 0.120666 0)
(922.936 0.140023 0)
(958.082 0.172605 0)
(993.701 0.193693 0)
(1030.61 0.222551 0)
(1069.88 0.236171 0)
(1114.05 0.253221 0)
(1166.71 0.381447 0)
(1232.42 0.73341 0)
(1307.93 1.83778 0)
(1385.77 5.31389 0)
(1441.23 11.807 0)
(1462.32 14.2764 0)
(1471.13 31.9121 0)
(1477.42 47.9974 0)
(1482.47 14.2507 0)
(33.0858 0.000500021 0)
(96.512 0.00128467 0)
(158.034 0.00259328 0)
(218.864 0.00610705 0)
(279.684 0.00638845 0)
(340.071 0.00228054 0)
(399.1 -0.00115466 0)
(455.547 0.00952622 0)
(508.803 0.0243065 0)
(558.695 0.02872 0)
(605.729 0.0199181 0)
(650.355 0.025955 0)
(692.783 0.0303015 0)
(732.999 0.063452 0)
(771.77 0.074319 0)
(809.149 0.0686012 0)
(845.217 0.0941952 0)
(880.397 0.122967 0)
(915.024 0.141916 0)
(949.435 0.1663 0)
(984.147 0.201149 0)
(1019.71 0.232522 0)
(1057.08 0.282203 0)
(1097.56 0.319496 0)
(1144.09 0.385373 0)
(1200.46 0.639197 0)
(1269.63 1.21095 0)
(1343.92 2.74645 0)
(1415.69 7.67499 0)
(1454.28 12.6665 0)
(1468.22 15.7454 0)
(1474.01 34.1998 0)
(1478.5 46.1838 0)
(1482.8 10.7958 0)
(32.8743 0.000320586 0)
(95.8628 0.00156266 0)
(156.997 0.00220208 0)
(217.415 0.00379218 0)
(277.62 0.00845636 0)
(337.53 0.00886548 0)
(396.037 0.00392565 0)
(452.111 -0.000299385 0)
(504.93 0.0123858 0)
(554.457 0.028815 0)
(601.111 0.034025 0)
(645.365 0.025245 0)
(687.445 0.033278 0)
(727.551 0.0364352 0)
(765.722 0.0720759 0)
(802.688 0.0878942 0)
(838.504 0.0847209 0)
(873.263 0.10934 0)
(907.38 0.139961 0)
(941.199 0.166572 0)
(975.076 0.197471 0)
(1009.57 0.236437 0)
(1045.32 0.280425 0)
(1083.45 0.355927 0)
(1125.54 0.429449 0)
(1174.9 0.5684 0)
(1235.11 0.991462 0)
(1306.24 1.81375 0)
(1378.06 4.09095 0)
(1438.48 10.3425 0)
(1463.27 12.7512 0)
(1472.61 17.3999 0)
(1475.71 36.2206 0)
(1479.25 43.8433 0)
(1483.18 7.79076 0)
(32.6756 -0.000426057 0)
(95.2613 0.00109359 0)
(155.943 0.00276947 0)
(215.986 0.00339201 0)
(275.785 0.00519918 0)
(335.066 0.0111691 0)
(393.139 0.0117102 0)
(448.746 0.0059813 0)
(501.242 0.00117305 0)
(550.359 0.015676 0)
(596.665 0.0336538 0)
(640.565 0.0397868 0)
(682.291 0.0315441 0)
(722.07 0.041912 0)
(760.112 0.0435016 0)
(796.49 0.0816221 0)
(831.887 0.103397 0)
(866.363 0.103463 0)
(900.024 0.126922 0)
(933.279 0.159711 0)
(966.485 0.195215 0)
(1000.03 0.234522 0)
(1034.52 0.280404 0)
(1070.72 0.340249 0)
(1109.92 0.447823 0)
(1154.05 0.57441 0)
(1206.65 0.819431 0)
(1270.36 1.46459 0)
(1341.07 2.57006 0)
(1409.17 6.05798 0)
(1454.07 12.2942 0)
(1469.58 12.5933 0)
(1475.74 19.301 0)
(1476.8 38.1018 0)
(1479.82 40.8898 0)
(1483.41 5.49635 0)
(32.4978 -0.0017551 0)
(94.6958 -0.000764314 0)
(154.97 0.00208507 0)
(214.539 0.00429811 0)
(273.975 0.00482603 0)
(332.869 0.006917 0)
(390.331 0.0142069 0)
(445.557 0.0149268 0)
(497.637 0.00844984 0)
(546.451 0.00324269 0)
(592.371 0.0194664 0)
(635.943 0.0387964 0)
(677.336 0.0460389 0)
(716.774 0.0389641 0)
(754.502 0.0520285 0)
(790.728 0.051653 0)
(825.543 0.0923011 0)
(859.587 0.121066 0)
(892.927 0.125076 0)
(925.685 0.147481 0)
(958.266 0.182911 0)
(991.044 0.22857 0)
(1024.45 0.27865 0)
(1059.16 0.335452 0)
(1096.06 0.415609 0)
(1136.69 0.563814 0)
(1183.29 0.765783 0)
(1239.39 1.15773 0)
(1305.52 2.05853 0)
(1373.93 3.6436 0)
(1434.71 8.66336 0)
(1464.15 13.3181 0)
(1474.25 12.8415 0)
(1477.86 21.4331 0)
(1477.51 39.3605 0)
(1480.19 37.2707 0)
(1483.53 3.89797 0)
(32.3252 -0.00102951 0)
(94.19 -0.00437587 0)
(154.055 -0.000741044 0)
(213.205 0.00337585 0)
(272.152 0.00611459 0)
(330.708 0.00659417 0)
(387.82 0.00895257 0)
(442.472 0.0175512 0)
(494.218 0.018497 0)
(542.655 0.0114039 0)
(588.268 0.00600426 0)
(631.482 0.0238052 0)
(672.566 0.0442402 0)
(711.681 0.0528364 0)
(749.076 0.0476558 0)
(784.994 0.0637805 0)
(819.632 0.0610705 0)
(853.097 0.104121 0)
(885.987 0.141299 0)
(918.38 0.149821 0)
(950.416 0.171702 0)
(982.497 0.210451 0)
(1015.03 0.267542 0)
(1048.48 0.331351 0)
(1083.64 0.404605 0)
(1121.54 0.511369 0)
(1163.97 0.711735 0)
(1213.47 1.01839 0)
(1272.97 1.60713 0)
(1339.55 2.79227 0)
(1404.72 5.1718 0)
(1452.92 11.4522 0)
(1471.03 13.5648 0)
(1477.16 13.0331 0)
(1479.22 23.7957 0)
(1478.09 40.4711 0)
(1480.4 33.3347 0)
(1483.59 2.83347 0)
(32.1425 0.000293899 0)
(93.7048 -0.00257677 0)
(153.239 -0.00635502 0)
(211.954 -0.000460173 0)
(270.476 0.00495981 0)
(328.54 0.00829928 0)
(385.359 0.00873918 0)
(439.702 0.0113024 0)
(490.915 0.021202 0)
(539.054 0.0223853 0)
(584.299 0.0149224 0)
(627.217 0.00957173 0)
(667.961 0.0287446 0)
(706.78 0.0500155 0)
(743.861 0.0602672 0)
(779.449 0.0577782 0)
(813.78 0.0773808 0)
(847.039 0.0719979 0)
(879.347 0.117545 0)
(911.265 0.164065 0)
(942.887 0.178018 0)
(974.366 0.200355 0)
(1006.12 0.243459 0)
(1038.57 0.313285 0)
(1072.28 0.394502 0)
(1108.12 0.491534 0)
(1147.33 0.634031 0)
(1191.99 0.90249 0)
(1244.68 1.35141 0)
(1306.84 2.18114 0)
(1371.61 3.71105 0)
(1431.48 7.44 0)
(1464.7 13.0718 0)
(1475.45 13.0559 0)
(1478.95 13.5705 0)
(1479.93 26.0537 0)
(1478.56 40.5709 0)
(1480.62 28.9299 0)
(1483.65 2.05465 0)
(31.9566 0.0020212 0)
(93.194 0.000738386 0)
(152.461 -0.00373626 0)
(210.841 -0.00827572 0)
(268.903 -0.000376527 0)
(326.551 0.00685256 0)
(382.898 0.0108564 0)
(436.996 0.0113156 0)
(487.936 0.0138966 0)
(535.578 0.025126 0)
(580.536 0.026652 0)
(623.096 0.0191309 0)
(663.555 0.0140783 0)
(702.055 0.0343659 0)
(738.842 0.056174 0)
(774.12 0.0684469 0)
(808.118 0.0694831 0)
(841.066 0.0930138 0)
(873.141 0.0847055 0)
(904.47 0.132915 0)
(935.584 0.189837 0)
(966.593 0.210059 0)
(997.676 0.23438 0)
(1029.26 0.283318 0)
(1061.82 0.367316 0)
(1095.98 0.470476 0)
(1132.77 0.600859 0)
(1173.64 0.792194 0)
(1220.91 1.15068 0)
(1276.82 1.78718 0)
(1340.01 2.89229 0)
(1401.65 5.06214 0)
(1451.77 10.342 0)
(1471.94 14.0414 0)
(1478.08 12.9802 0)
(1480.28 14.5016 0)
(1479.93 28.614 0)
(1478.85 39.9724 0)
(1481.02 23.7513 0)
(1483.73 1.50349 0)
(31.7941 0.00221466 0)
(92.675 0.00536514 0)
(151.649 0.00108462 0)
(209.785 -0.00484107 0)
(267.506 -0.0100412 0)
(324.684 -0.000235777 0)
(380.633 0.00907096 0)
(434.296 0.0138473 0)
(485.038 0.0142731 0)
(532.429 0.0166568 0)
(576.91 0.0293793 0)
(619.185 0.0313181 0)
(659.306 0.0241517 0)
(697.527 0.0196743 0)
(734.009 0.0407594 0)
(768.994 0.0628084 0)
(802.682 0.0776021 0)
(835.292 0.0829291 0)
(867.044 0.110916 0)
(898.11 0.0995572 0)
(928.623 0.150586 0)
(959.085 0.218908 0)
(989.635 0.246398 0)
(1020.47 0.274882 0)
(1052.05 0.331709 0)
(1084.9 0.431638 0)
(1119.74 0.562344 0)
(1157.76 0.738371 0)
(1200.67 0.997184 0)
(1250.87 1.47556 0)
(1309.44 2.34701 0)
(1371.23 3.74937 0)
(1428.76 6.90208 0)
(1465.01 13.0478 0)
(1476.21 14.2735 0)
(1479.83 12.9205 0)
(1481.16 15.6642 0)
(1479.89 31.1351 0)
(1478.99 39.4472 0)
(1481.64 18.5773 0)
(1483.81 1.08572 0)
(31.6551 0.000189347 0)
(92.2241 0.00602149 0)
(150.829 0.00837832 0)
(208.689 0.00162095 0)
(266.186 -0.00578402 0)
(323.025 -0.011728 0)
(378.515 0.000256062 0)
(431.81 0.0116639 0)
(482.151 0.0172934 0)
(529.375 0.0175391 0)
(573.615 0.0195881 0)
(615.424 0.0339406 0)
(655.271 0.036443 0)
(693.167 0.0301227 0)
(729.374 0.0264907 0)
(764.061 0.0480421 0)
(797.454 0.0700476 0)
(829.749 0.087731 0)
(861.154 0.0983632 0)
(891.881 0.131339 0)
(922.102 0.116968 0)
(951.946 0.171108 0)
(981.902 0.251701 0)
(1012.14 0.287587 0)
(1042.88 0.32316 0)
(1074.61 0.390691 0)
(1107.94 0.50891 0)
(1143.69 0.674152 0)
(1183.27 0.911631 0)
(1228.6 1.26346 0)
(1281.81 1.9001 0)
(1341.6 3.04176 0)
(1400.45 4.93708 0)
(1450.45 9.55018 0)
(1472.7 14.3118 0)
(1478.76 13.739 0)
(1480.93 12.7617 0)
(1481.69 17.2843 0)
(1479.78 33.0479 0)
(1479.14 37.8876 0)
(1482.32 13.6284 0)
(1483.87 0.760168 0)
(31.5203 -0.00194379 0)
(91.8374 0.000706739 0)
(150.12 0.00944157 0)
(207.587 0.0116789 0)
(264.824 0.00262124 0)
(321.463 -0.00663423 0)
(376.631 -0.0133404 0)
(429.486 0.00136251 0)
(479.487 0.0146505 0)
(526.341 0.0211763 0)
(570.423 0.0211498 0)
(611.991 0.0226932 0)
(651.395 0.0388346 0)
(689.024 0.0420809 0)
(724.918 0.0371718 0)
(759.33 0.0346616 0)
(792.427 0.0563635 0)
(824.422 0.0780724 0)
(855.504 0.099117 0)
(885.872 0.115756 0)
(915.73 0.154548 0)
(945.254 0.137445 0)
(974.568 0.195096 0)
(1004.15 0.288781 0)
(1034.22 0.334322 0)
(1065.01 0.380716 0)
(1097.07 0.462767 0)
(1131.08 0.602694 0)
(1168.02 0.811361 0)
(1209.51 1.13049 0)
(1257.56 1.60994 0)
(1313.35 2.44903 0)
(1372.15 3.866 0)
(1427.38 6.5792 0)
(1465 12.4707 0)
(1476.93 14.9003 0)
(1480.33 13.6626 0)
(1481.61 12.9905 0)
(1481.59 19.3439 0)
(1479.61 34.5226 0)
(1479.39 35.8235 0)
(1482.9 9.36576 0)
(1483.92 0.510104 0)
(31.384 -0.00245985 0)
(91.4602 -0.00452778 0)
(149.514 0.00156261 0)
(206.64 0.0132599 0)
(263.459 0.0152794 0)
(319.857 0.00425026 0)
(374.856 -0.00741309 0)
(427.413 -0.0149264 0)
(476.998 0.00328236 0)
(523.536 0.0180751 0)
(567.259 0.0255848 0)
(608.679 0.0250835 0)
(647.841 0.0260245 0)
(685.045 0.0440781 0)
(720.677 0.0483279 0)
(754.784 0.045426 0)
(787.604 0.0443112 0)
(819.304 0.0658938 0)
(850.079 0.0871125 0)
(880.112 0.11204 0)
(909.595 0.135381 0)
(938.727 0.180896 0)
(967.693 0.16157 0)
(996.606 0.223307 0)
(1025.96 0.330862 0)
(1055.98 0.387509 0)
(1086.98 0.449335 0)
(1119.55 0.551001 0)
(1154.46 0.717756 0)
(1192.89 0.981432 0)
(1236.64 1.40782 0)
(1287.53 2.05764 0)
(1344.63 3.1369 0)
(1400.77 4.94874 0)
(1449.69 8.90054 0)
(1473.27 14.5122 0)
(1479.32 14.9947 0)
(1481.29 13.4668 0)
(1482 13.3017 0)
(1481.29 21.9407 0)
(1479.54 35.1187 0)
(1479.76 32.4663 0)
(1483.31 6.02524 0)
(1483.95 0.324196 0)
(31.2562 -0.00175802 0)
(91.0857 -0.00594983 0)
(148.925 -0.00610828 0)
(205.834 0.00262342 0)
(262.29 0.0172955 0)
(318.257 0.0192761 0)
(373.041 0.0065246 0)
(425.46 -0.00814432 0)
(474.771 -0.0164961 0)
(520.91 0.00502674 0)
(564.329 0.0220146 0)
(605.397 0.0305471 0)
(644.422 0.0293768 0)
(681.388 0.029632 0)
(716.609 0.0496997 0)
(750.454 0.0552536 0)
(782.974 0.0550737 0)
(814.392 0.0555731 0)
(844.87 0.0768487 0)
(874.585 0.0974759 0)
(903.72 0.126749 0)
(932.457 0.157408 0)
(960.998 0.210738 0)
(989.532 0.190019 0)
(1018.17 0.256655 0)
(1047.41 0.378908 0)
(1077.54 0.448359 0)
(1108.91 0.531138 0)
(1142.17 0.65917 0)
(1178.25 0.860552 0)
(1218.5 1.19468 0)
(1264.82 1.7607 0)
(1318.17 2.63049 0)
(1374.52 3.96592 0)
(1427.25 6.43733 0)
(1465.15 11.8464 0)
(1477.56 15.2759 0)
(1480.68 14.4846 0)
(1481.88 13.3705 0)
(1482.24 13.9219 0)
(1480.85 24.8258 0)
(1479.52 35.0566 0)
(1480.35 28.026 0)
(1483.58 3.63162 0)
(1483.97 0.196809 0)
(31.1319 -0.000398467 0)
(90.7343 -0.00450061 0)
(148.34 -0.00856172 0)
(205.049 -0.00747982 0)
(261.298 0.00381918 0)
(316.89 0.021648 0)
(371.238 0.0237052 0)
(423.475 0.00936311 0)
(472.674 -0.00883356 0)
(518.558 -0.017988 0)
(561.583 0.00698131 0)
(602.353 0.026539 0)
(641.045 0.0361158 0)
(677.878 0.0340879 0)
(712.857 0.0335789 0)
(746.306 0.0557538 0)
(778.561 0.0630756 0)
(809.68 0.0661398 0)
(839.868 0.0685841 0)
(869.283 0.0894936 0)
(898.087 0.109553 0)
(926.461 0.1436 0)
(954.583 0.182042 0)
(982.658 0.244498 0)
(1010.88 0.223545 0)
(1039.36 0.296257 0)
(1068.62 0.434121 0)
(1099 0.51848 0)
(1130.9 0.628647 0)
(1165.07 0.791999 0)
(1202.6 1.03969 0)
(1245.01 1.46516 0)
(1294 2.20929 0)
(1348.66 3.33883 0)
(1402.49 5.01839 0)
(1449.68 8.55236 0)
(1473.87 14.2907 0)
(1479.78 15.5379 0)
(1481.51 14.387 0)
(1482.19 13.2606 0)
(1482.13 14.8201 0)
(1480.5 27.6968 0)
(1479.5 34.912 0)
(1481.18 22.3707 0)
(1483.73 2.1708 0)
(1483.98 0.115968 0)
(31.0018 0.00177467 0)
(90.3926 -0.000955601 0)
(147.796 -0.00656869 0)
(204.275 -0.0110101 0)
(260.335 -0.00883059 0)
(315.73 0.00517401 0)
(369.697 0.0263208 0)
(421.507 0.0285928 0)
(470.551 0.0126293 0)
(516.341 -0.00949442 0)
(559.113 -0.0193801 0)
(599.501 0.00930751 0)
(637.9 0.0317192 0)
(674.415 0.0423351 0)
(709.264 0.0392996 0)
(742.468 0.0379232 0)
(774.337 0.0623235 0)
(805.187 0.0717628 0)
(835.075 0.0787801 0)
(864.19 0.0834759 0)
(892.685 0.104121 0)
(920.716 0.123819 0)
(948.459 0.162991 0)
(976.097 0.209512 0)
(1003.83 0.28257 0)
(1031.84 0.262992 0)
(1060.27 0.343495 0)
(1089.69 0.498098 0)
(1120.47 0.600032 0)
(1153.09 0.745088 0)
(1188.41 0.955492 0)
(1227.71 1.26681 0)
(1272.56 1.81182 0)
(1323.87 2.77707 0)
(1377.85 4.1872 0)
(1428.38 6.44128 0)
(1465.58 11.3008 0)
(1478.18 15.504 0)
(1480.98 15.5154 0)
(1482 14.1216 0)
(1482.24 13.3204 0)
(1481.94 16.4762 0)
(1480.19 29.7475 0)
(1479.59 33.9914 0)
(1482.05 16.179 0)
(1483.84 1.29986 0)
(1483.99 0.065727 0)
(30.8794 0.00167138 0)
(90.0388 0.00410897 0)
(147.27 -0.00149648 0)
(203.558 -0.00864493 0)
(259.39 -0.0132878 0)
(314.608 -0.0104314 0)
(368.391 0.00670432 0)
(419.82 0.0313709 0)
(468.452 0.033876 0)
(514.111 0.0161567 0)
(556.791 -0.0100995 0)
(596.925 -0.0205795 0)
(634.95 0.0120192 0)
(671.185 0.0376339 0)
(705.728 0.0492466 0)
(738.799 0.045119 0)
(770.42 0.0427253 0)
(800.892 0.0695401 0)
(830.505 0.0815397 0)
(859.314 0.0930962 0)
(887.501 0.100388 0)
(915.212 0.121101 0)
(942.598 0.140811 0)
(969.844 0.185372 0)
(997.112 0.240076 0)
(1024.6 0.325429 0)
(1052.49 0.309291 0)
(1081.01 0.400064 0)
(1110.71 0.573075 0)
(1142.05 0.695891 0)
(1175.6 0.884678 0)
(1212.35 1.15752 0)
(1253.74 1.55696 0)
(1301.13 2.2576 0)
(1353.63 3.47563 0)
(1405.15 5.22592 0)
(1450.57 8.43908 0)
(1474.55 13.9896 0)
(1480.21 15.825 0)
(1481.68 15.2082 0)
(1482.15 13.993 0)
(1482.27 13.5183 0)
(1481.61 18.7169 0)
(1479.95 31.4437 0)
(1479.84 32.4254 0)
(1482.78 10.4659 0)
(1483.91 0.746198 0)
(1483.99 0.0352992 0)
(30.7699 0.00243996 0)
(89.7081 0.0042399 0)
(146.728 0.00520706 0)
(202.868 -0.0018964 0)
(258.515 -0.0105195 0)
(313.51 -0.0155506 0)
(367.13 -0.0123957 0)
(418.389 0.00846311 0)
(466.646 0.0367991 0)
(511.906 0.0394787 0)
(554.462 0.0198485 0)
(594.502 -0.0106159 0)
(632.285 -0.0215214 0)
(668.149 0.0152188 0)
(702.422 0.0443585 0)
(735.195 0.0569139 0)
(766.682 0.0516513 0)
(796.9 0.0480571 0)
(826.139 0.0775449 0)
(854.668 0.0925434 0)
(882.542 0.109185 0)
(909.934 0.119469 0)
(936.989 0.140813 0)
(963.867 0.161169 0)
(990.727 0.211294 0)
(1017.72 0.274147 0)
(1045.05 0.373622 0)
(1072.93 0.363565 0)
(1101.66 0.467994 0)
(1131.79 0.66196 0)
(1163.88 0.809976 0)
(1198.57 1.05305 0)
(1237.06 1.40838 0)
(1280.8 1.9296 0)
(1330.37 2.82877 0)
(1382.12 4.31634 0)
(1430.41 6.61179 0)
(1466.47 10.9811 0)
(1478.76 15.5155 0)
(1481.29 15.8686 0)
(1481.99 15.1149 0)
(1482.22 13.7398 0)
(1482.23 13.7271 0)
(1481.25 21.4945 0)
(1479.91 32.0469 0)
(1480.32 29.0425 0)
(1483.31 6.06498 0)
(1483.95 0.399473 0)
(1484 0.0177738 0)
(30.6782 0.0021694 0)
(89.4158 0.00651114 0)
(146.226 0.00622837 0)
(202.161 0.00580937 0)
(257.676 -0.00199941 0)
(312.493 -0.0122813 0)
(365.899 -0.0178287 0)
(417.008 -0.0145982 0)
(465.105 0.0104924 0)
(509.999 0.0426021 0)
(552.169 0.045393 0)
(592.085 0.0235791 0)
(629.773 -0.0109386 0)
(665.4 -0.0220793 0)
(699.31 0.019036 0)
(731.818 0.0519679 0)
(763.014 0.0654119 0)
(793.094 0.0589938 0)
(822.075 0.0540461 0)
(850.23 0.0865243 0)
(877.816 0.104942 0)
(904.888 0.127147 0)
(931.617 0.140867 0)
(958.152 0.163695 0)
(984.631 0.185604 0)
(1011.19 0.241426 0)
(1038 0.312349 0)
(1065.26 0.427992 0)
(1093.25 0.427164 0)
(1122.31 0.549632 0)
(1153.04 0.768544 0)
(1186.06 0.947653 0)
(1222.18 1.2579 0)
(1262.71 1.72157 0)
(1308.86 2.40673 0)
(1359.45 3.54038 0)
(1408.74 5.33946 0)
(1452.14 8.52231 0)
(1475.36 13.7468 0)
(1480.67 15.9447 0)
(1481.78 15.7725 0)
(1482.09 14.7224 0)
(1482.22 13.6909 0)
(1482.11 14.4873 0)
(1480.84 24.6648 0)
(1479.93 32.0257 0)
(1481.04 24.0816 0)
(1483.65 3.17886 0)
(1483.98 0.199257 0)
(1484 0.00848388 0)
(30.5897 0.00187848 0)
(89.1707 0.00596453 0)
(145.788 0.0100203 0)
(201.512 0.00837257 0)
(256.822 0.00650274 0)
(311.522 -0.00184362 0)
(364.759 -0.0139298 0)
(415.666 -0.020128 0)
(463.625 -0.0168841 0)
(508.364 0.0128468 0)
(550.168 0.0488067 0)
(589.703 0.051586 0)
(627.28 0.0272988 0)
(662.809 -0.01112 0)
(696.486 -0.0218668 0)
(728.64 0.0236361 0)
(759.573 0.060526 0)
(789.367 0.0748253 0)
(818.202 0.0672634 0)
(846.095 0.0608866 0)
(873.305 0.0967249 0)
(900.082 0.118907 0)
(926.487 0.147085 0)
(952.686 0.164731 0)
(978.808 0.190212 0)
(1004.97 0.214884 0)
(1031.31 0.276585 0)
(1058.01 0.35547 0)
(1085.3 0.489613 0)
(1113.54 0.501645 0)
(1143.07 0.647813 0)
(1174.56 0.897728 0)
(1208.76 1.11636 0)
(1246.6 1.50996 0)
(1289.4 2.11443 0)
(1337.55 3.01168 0)
(1387.22 4.40391 0)
(1433.34 6.72386 0)
(1467.72 10.8733 0)
(1479.4 15.4787 0)
(1481.52 16.0232 0)
(1481.97 15.6831 0)
(1482.14 14.5486 0)
(1482.21 13.7271 0)
(1481.93 15.5758 0)
(1480.55 27.1119 0)
(1480 31.4898 0)
(1481.91 17.4175 0)
(1483.82 1.56998 0)
(1483.99 0.0959326 0)
(1484 0.0038084 0)
(30.5003 0.000373869 0)
(88.9361 0.005235 0)
(145.425 0.00953923 0)
(200.951 0.0138503 0)
(256.043 0.0108328 0)
(310.535 0.00800139 0)
(363.674 -0.00144045 0)
(414.422 -0.0154819 0)
(462.19 -0.0224089 0)
(506.796 -0.0191197 0)
(548.444 0.0155866 0)
(587.619 0.0553837 0)
(624.823 0.0580592 0)
(660.25 0.0309687 0)
(693.823 -0.0108854 0)
(725.748 -0.0209777 0)
(756.33 0.0293209 0)
(785.866 0.0700971 0)
(814.417 0.0852567 0)
(842.154 0.0765802 0)
(869.096 0.0688285 0)
(895.496 0.108429 0)
(921.602 0.134613 0)
(947.471 0.169072 0)
(973.242 0.191259 0)
(999.028 0.220876 0)
(1024.94 0.249844 0)
(1051.15 0.317746 0)
(1077.82 0.404567 0)
(1105.25 0.560035 0)
(1133.88 0.588868 0)
(1164.04 0.765941 0)