/*--------------------------------*- C++ -*----------------------------------*\
| =========                 |                                                 |
| \\      /  F ield         | OpenFOAM: The Open Source CFD Toolbox           |
|  \\    /   O peration     | Version:  v2012                                 |
|   \\  /    A nd           | Website:  www.openfoam.com                      |
|    \\/     M anipulation  |                                                 |
\*---------------------------------------------------------------------------*/
FoamFile
{
    version     2.0;
    format      ascii;
    class       volScalarField;
    location    "13600";
    object      xx;
}
// * * * * * * * * * * * * * * * * * * * * * * * * * * * * * * * * * * * * * //

dimensions      [0 0 0 0 0 0 0];


internalField   nonuniform List<scalar> 
39402
(
0.00328513
0.000145003
0.0025069
3.56899e-05
0.000125738
0.00169978
3.23851e-05
3.0692e-05
0.000134468
0.00112931
3.63411e-05
6.49183e-05
3.13617e-05
0.000168684
0.000861492
4.09332e-05
0.000106546
0.000644016
4.91959e-05
0.000227013
0.000802849
4.44158e-05
0.000135648
0.00125536
0.00374026
0.000107046
0.000297562
0.000842252
4.67596e-05
0.000156463
0.00166279
0.00736737
0.0132937
0.00022891
0.000367072
0.000939896
4.77142e-05
0.000169606
0.00195053
0.00979023
0.0261538
0.0342383
0.000427825
0.000427325
0.00107909
4.78359e-05
0.000175631
0.00213336
0.0114877
0.0347315
0.067116
0.0702792
0.000698426
0.000476215
0.00125328
4.74896e-05
0.000177459
0.00222031
0.0125802
0.0406642
0.0888819
0.137235
0.122039
0.000977784
0.000516454
0.00146743
4.68337e-05
0.000176836
0.00225142
0.0131088
0.0445049
0.103652
0.181137
0.237855
0.184618
0.00124679
0.000554437
0.00169284
4.60105e-05
0.0001748
0.00224901
0.0133137
0.0463871
0.113202
0.210285
0.313374
0.365001
0.24477
0.0015393
0.000598527
0.00194351
4.50658e-05
0.000171897
0.00222733
0.0133205
0.0471602
0.117926
0.229007
0.362522
0.481568
0.490489
0.310603
0.00186647
0.000646989
0.0022493
4.41406e-05
0.000168279
0.00219341
0.0132119
0.0472491
0.119961
0.238344
0.393831
0.556337
0.658834
0.629138
0.38246
0.00226957
0.000698368
0.00261619
4.32434e-05
0.000164777
0.00214869
0.013026
0.0469336
0.120336
0.242547
0.409596
0.603643
0.765526
0.857426
0.78235
0.462983
0.00289186
0.000759292
0.00305044
4.23687e-05
0.0001613
0.00210501
0.0127746
0.0463397
0.119719
0.243558
0.416959
0.62775
0.832219
1.00343
1.08044
0.95287
0.566077
0.00374513
0.000840321
0.00356118
4.15153e-05
0.000157817
0.002061
0.012525
0.0455152
0.118399
0.242681
0.419126
0.639421
0.866859
1.0954
1.27459
1.32838
1.15019
0.7222
0.00435066
0.000952606
0.00416587
4.06462e-05
0.000154389
0.00201618
0.0122708
0.0446802
0.116515
0.240431
0.418209
0.643411
0.884239
1.1434
1.39844
1.57975
1.60368
1.3852
0.921486
0.0047729
0.00110866
0.0048906
3.9676e-05
0.000150868
0.00197164
0.0120095
0.0438233
0.114579
0.237099
0.415017
0.642842
0.891588
1.1688
1.46351
1.7426
1.91743
1.89103
1.59417
1.06307
0.00479847
0.00132371
0.00576464
3.88452e-05
0.000146849
0.00192562
0.0117478
0.0429337
0.112563
0.233616
0.410102
0.638934
0.892736
1.18007
1.49977
1.83026
2.12566
2.27915
2.18759
1.79541
1.18747
0.00437694
0.00161915
0.00678145
3.82165e-05
0.000143526
0.00187329
0.0114767
0.042036
0.110452
0.229946
0.40485
0.632515
0.889509
1.18295
1.51637
1.88036
2.24315
2.54451
2.66253
2.48733
1.99044
1.2738
0.00367394
0.0019955
0.00789415
3.73746e-05
0.000140989
0.00182985
0.0111696
0.0411022
0.108306
0.22606
0.399252
0.625516
0.883023
1.17991
1.5217
1.90432
2.31059
2.70088
2.99703
3.06041
2.78305
2.18257
1.30385
0.00295003
0.00246191
0.00890551
3.66545e-05
0.000137444
0.00179608
0.0109125
0.0400468
0.106062
0.222083
0.393257
0.617938
0.875654
1.17255
1.51919
1.91342
2.34476
2.79134
3.20109
3.4768
3.46238
3.06609
2.3839
1.26304
0.00244944
0.00305846
0.00962484
3.59588e-05
0.000134551
0.00174937
0.0107092
0.0391572
0.103527
0.217896
0.38708
0.609727
0.86747
1.16382
1.51107
1.91214
2.35965
2.83964
3.32213
3.73972
3.97391
3.85703
3.33149
2.61599
1.14228
0.00225631
0.00379928
0.00998125
3.53162e-05
0.000131685
0.00171149
0.0104334
0.0384435
0.101375
0.213165
0.380523
0.601194
0.858368
1.15396
1.50093
1.9036
2.36088
2.86286
3.38973
3.90037
4.30873
4.47627
4.23046
3.57573
2.88667
0.94414
0.00237618
0.00464601
0.0101426
3.46787e-05
0.000129049
0.00167364
0.0102079
0.0374891
0.0996286
0.209124
0.373111
0.592083
0.848777
1.14283
1.48915
1.89227
2.35298
2.86844
3.42502
3.99407
4.52066
4.89862
4.96913
4.57024
3.79989
2.97164
0.694447
0.00275054
0.00551521
0.0101934
3.40927e-05
0.00012643
0.00163887
0.0099833
0.0367023
0.0973122
0.20581
0.366756
0.58176
0.838365
1.13088
1.47565
1.87857
2.34104
2.86236
3.4375
4.04616
4.64929
5.17568
5.4958
5.43745
4.86865
4.01895
2.83114
0.445594
0.00332572
0.00637371
0.0101526
3.34819e-05
0.000124056
0.0016045
0.00977649
0.0359196
0.0953914
0.201441
0.361495
0.572892
0.826427
1.11785
1.46105
1.86258
2.32595
2.85056
3.43514
4.06929
4.72499
5.35038
5.85546
6.08639
5.86508
5.12858
4.27975
2.54821
0.250372
0.00402636
0.00718133
0.0100401
3.29361e-05
0.000121544
0.00157346
0.00957252
0.0351986
0.0934767
0.197792
0.354576
0.565479
0.816286
1.10293
1.44499
1.84519
2.30772
2.8347
3.42495
4.07355
4.76374
5.45855
6.09033
6.54566
6.65059
6.23895
5.36052
4.60397
2.11831
0.126643
0.00478256
0.00776325
0.0098358
3.23944e-05
0.000119321
0.00154069
0.00938816
0.0344856
0.0917095
0.194152
0.34877
0.555751
0.807793
1.0902
1.42655
1.8259
2.28756
2.81455
3.40925
4.0668
4.77815
5.5197
6.24211
6.85724
7.2302
7.16724
6.55274
5.588
4.56056
1.57849
0.0597388
0.00548564
0.00833963
0.00956738
3.19681e-05
0.000117108
0.0015118
0.00919511
0.0338403
0.0899611
0.190782
0.342968
0.547556
0.796418
1.07946
1.41067
1.80348
2.26491
2.79184
3.38798
4.05258
4.77775
5.54901
6.33328
7.06627
7.63856
7.89063
7.6235
6.81011
5.8566
4.18047
1.0357
0.027126
0.00617813
0.00884394
0.00928899
3.14961e-05
0.000115392
0.00148311
0.009025
0.0331693
0.0883771
0.187446
0.33758
0.539347
0.786906
1.06513
1.39734
1.7842
2.23846
2.76594
3.36306
4.03133
4.76733
5.55895
6.38452
7.20028
7.92204
8.41867
8.50087
8.00208
7.03674
6.20937
3.58465
0.602234
0.0131775
0.00684862
0.00920308
0.00905707
3.09933e-05
0.000113459
0.00146101
0.00885663
0.0325776
0.0867304
0.184412
0.332238
0.531712
0.777334
1.05308
1.37951
1.76794
2.21563
2.73542
3.33403
4.00513
4.74791
5.55564
6.41034
7.28224
8.11102
8.79498
9.16992
9.04147
8.30174
7.27659
6.23089
2.79378
0.313821
0.00830678
0.00746528
0.00942377
0.00889996
3.05559e-05
0.000111415
0.00143624
0.00872621
0.0319934
0.0852765
0.181256
0.327364
0.524127
0.768418
1.04091
1.36438
1.74624
2.19632
2.70899
3.29954
3.97364
4.72178
5.54034
6.41815
7.32995
8.23425
9.05627
9.66378
9.86987
9.4904
8.5465
7.61779
5.70239
1.92303
0.140794
0.0069835
0.00788475
0.00951903
0.00879781
3.01746e-05
0.000109677
0.00141027
0.00858229
0.0315387
0.0838439
0.17847
0.322296
0.517201
0.759554
1.02957
1.34917
1.7277
2.17048
2.68648
3.26946
3.9353
4.68869
5.51611
6.40996
7.35443
8.31429
9.23326
10.0185
10.5079
10.4934
9.84174
8.78325
8.07997
4.90248
1.18987
0.0564599
0.00689131
0.00819418
0.00954817
0.00868923
2.98518e-05
0.000108146
0.00138845
0.0084324
0.0310418
0.082725
0.175723
0.317804
0.509967
0.751462
1.01828
1.33494
1.70913
2.14827
2.65615
3.24359
3.90181
4.64746
5.4831
6.39008
7.35803
8.36206
9.35533
10.2671
10.9747
11.2939
11.0106
10.1061
9.08283
7.78068
3.81788
0.627604
0.0230527
0.0071745
0.00839991
0.00943786
0.00874945
2.95221e-05
0.000106854
0.00136925
0.00830698
0.0305268
0.0815075
0.17357
0.313382
0.503545
0.741928
1.00799
1.32083
1.69161
2.126
2.62999
3.20894
3.87319
4.61104
5.44002
6.35943
7.34639
8.38303
9.43629
10.4444
11.3183
11.9048
11.9925
11.407
10.3288
9.52717
7.00819
2.72118
0.288063
0.0116761
0.00754568
0.00857003
0.00932057
0.00897663
2.91376e-05
0.000105555
0.00135308
0.00819711
0.0300979
0.0802536
0.171237
0.309907
0.497223
0.733454
0.997162
1.30787
1.67429
2.10509
2.60385
3.17883
3.83417
4.57987
5.40154
6.31638
7.32079
8.3842
9.48276
10.57
11.5687
12.365
12.7739
12.5766
11.6943
10.5962
9.78524
5.89818
1.68899
0.114144
0.00826288
0.00787701
0.00877221
0.00924947
0.00890097
2.87354e-05
0.000104023
0.00133729
0.00810459
0.0297234
0.0792115
0.16884
0.306147
0.492259
0.725125
0.987547
1.29459
1.65846
2.08417
2.57917
3.14857
3.79998
4.53679
5.36851
6.27705
7.27965
8.36798
9.50179
10.6501
11.7508
12.7097
13.3797
13.5446
13.0193
11.9181
11.0502
9.05134
4.49979
0.869155
0.042084
0.00747389
0.00806672
0.00907895
0.00898761
0.00889356
2.84308e-05
0.000102443
0.00131873
0.00801647
0.0294088
0.0783039
0.166852
0.302293
0.486882
0.718572
0.978024
1.28271
1.64216
2.06501
2.5545
3.11977
3.76549
4.49875
5.32219
6.24363
7.24154
8.33234
9.49986
10.6972
11.8775
12.9695
13.8422
14.3255
14.1872
13.3287
12.1754
11.6829
7.97365
3.15392
0.383018
0.0176604
0.00748509
0.00836966
0.00918972
0.00880439
0.00889801
2.82259e-05
0.000101301
0.00129964
0.00791331
0.0291136
0.0775466
0.165127
0.299107
0.481375
0.711462
0.970627
1.27102
1.62763
2.04534
2.53175
3.09121
3.73276
4.46051
5.2808
6.19536
7.20925
8.29819
9.47504
10.7177
11.9647
13.1582
14.2015
14.9387
15.1614
14.6682
13.5523
12.6188
11.0181
6.47256
1.88093
0.147305
0.010106
0.00775764
0.00860676
0.00901013
0.0086882
0.00890307
2.80171e-05
0.000100531
0.00128632
0.00780744
0.0287691
0.0768392
0.1637
0.296351
0.476841
0.70421
0.962525
1.26203
1.61345
2.02792
2.50864
3.06475
3.70002
4.4237
5.23907
6.15153
7.16088
8.26938
9.44876
10.7076
12.014
13.2916
14.47
15.415
15.9551
15.8502
14.993
13.7948
13.251
9.90279
4.88795
0.903123
0.0531243
0.00807348
0.0079562
0.00863984
0.00887403
0.00858002
0.0089064
2.77572e-05
9.97091e-05
0.00127753
0.00773522
0.0284168
0.0760125
0.16236
0.294087
0.472932
0.698255
0.954299
1.25209
1.60235
2.01091
2.48809
3.03802
3.66977
4.3867
5.19845
6.10659
7.11564
8.2224
9.42621
10.6941
12.0255
13.3801
14.6691
15.7887
16.5878
16.8494
16.3628
15.2103
14.2225
12.9099
8.35768
3.2305
0.373689
0.0211741
0.00768474
0.00802904
0.00863081
0.00875276
0.00848467
0.0089079
2.75008e-05
9.8683e-05
0.00126814
0.00768899
0.0281812
0.0751738
0.160797
0.291943
0.469734
0.693139
0.947611
1.2419
1.59024
1.9976
2.46794
3.0141
3.63924
4.35292
5.15784
6.06301
7.06876
8.17723
9.38114
10.6795
12.0319
13.4261
14.8116
16.0754
17.0865
17.6731
17.579
16.6963
15.4358
14.882
11.737
6.59643
1.74004
0.139222
0.011297
0.00766421
0.00807669
0.00862502
0.00861063
0.00841839
0.00890767
2.72497e-05
9.77108e-05
0.00125627
0.00763952
0.0280363
0.0746249
0.159224
0.289453
0.466698
0.688979
0.941853
1.23374
1.57778
1.98304
2.45231
2.9906
3.6119
4.31849
5.12046
6.01937
7.02278
8.12948
9.33635
10.6346
12.0276
13.4559
14.9001
16.286
17.4822
18.3288
18.6107
18.102
16.9026
15.8649
14.7473
10.1424
4.66196
0.764441
0.0500849
0.00849149
0.00764383
0.00816289
0.00861698
0.00850494
0.00866075
0.00890788
2.69951e-05
9.67557e-05
0.00124545
0.00757722
0.0278796
0.0743014
0.158211
0.286956
0.463167
0.68501
0.937269
1.22678
1.56785
1.96809
2.4353
2.9724
3.58501
4.28762
5.0823
5.97816
6.976
8.08166
9.28741
10.5875
11.9797
13.4689
14.9631
16.43
17.7846
18.8611
19.4664
19.3621
18.4278
17.1136
16.5644
13.4829
8.21433
2.72438
0.298254
0.0201885
0.00771306
0.00766464
0.00822831
0.00868257
0.00864054
0.00856693
0.00890825
2.67782e-05
9.57804e-05
0.00123472
0.00752154
0.0276823
0.073947
0.157644
0.285378
0.459646
0.680382
0.932888
1.22115
1.5595
1.95613
2.41768
2.95253
3.56403
4.25715
5.0476
5.93637
6.93145
8.03112
9.23577
10.5326
11.9381
13.4334
15.0114
16.5461
18.0029
19.278
20.1675
20.4464
19.8861
18.6177
17.5587
16.5208
11.8001
6.01968
1.28055
0.108116
0.0109102
0.00751697
0.00772549
0.00834574
0.00872347
0.00846155
0.00854935
0.00890857
2.66325e-05
9.49808e-05
0.00122379
0.00746627
0.0275088
0.0734975
0.157011
0.284548
0.457475
0.675804
0.927711
1.21585
1.55274
1.94618
2.40367
2.93219
3.54119
4.2332
5.01366
5.89829
6.88626
7.98289
9.17876
10.4768
11.8866
13.4017
14.9951
16.6426
18.1863
19.5967
20.7331
21.3519
21.2056
20.1929
18.8208
18.3034
15.1383
9.65866
3.74891
0.51634
0.0391678
0.00828743
0.00747768
0.00783123
0.00847382
0.00866789
0.00831656
0.00853977
0.00890861
2.65413e-05
9.44932e-05
0.00121518
0.00741006
0.0273372
0.0731054
0.1562
0.283588
0.456377
0.673038
0.922622
1.20956
1.54629
1.93823
2.39183
2.91595
3.5178
4.20761
4.98715
5.86141
6.84544
7.93405
9.12579
10.4185
11.8327
13.3572
14.9792
16.6621
18.3396
19.8593
21.1776
22.1003
22.348
21.7114
20.3573
19.2964
18.2188
13.3366
7.24276
1.85141
0.190622
0.0166417
0.00759272
0.00750159
0.00801619
0.00853058
0.0085228
0.00823751
0.00853301
0.00890866
2.64306e-05
9.42197e-05
0.00121055
0.00736758
0.0271639
0.0727213
0.155496
0.282348
0.45508
0.671704
0.91971
1.20348
1.53869
1.93061
2.38248
2.90216
3.49905
4.18103
4.95872
5.83247
6.80528
7.88977
9.07067
10.3641
11.7752
13.3082
14.9466
16.6694
18.4273
20.0852
21.5489
22.7039
23.3114
23.0951
21.977
20.5577
20.1016
16.677
10.9981
4.68546
0.765809
0.0675341
0.00983528
0.00743964
0.00758119
0.00815876
0.00856107
0.00837544
0.00833782
0.0085297
0.00890875
2.62752e-05
9.38311e-05
0.00120862
0.00734798
0.0270379
0.0723353
0.154812
0.281275
0.453393
0.670099
0.918467
1.20003
1.53122
1.92153
2.37361
2.89125
3.48346
4.15983
4.92889
5.80142
6.77393
7.84565
9.02089
10.3066
11.7208
13.2541
14.907
16.6552
18.4677
20.255
21.8589
23.2047
24.1153
24.3095
23.568
22.1048
21.0922
19.8322
14.711
8.34545
2.38551
0.286215
0.0255986
0.00796313
0.00743443
0.00770818
0.00827856
0.00851071
0.00834473
0.00828356
0.00852839
0.0089087
2.6071e-05
9.32224e-05
0.00120514
0.00734367
0.0269916
0.0720692
0.154133
0.280246
0.451945
0.667976
0.91682
1.19865
1.52719
1.91251
2.36297
2.88097
3.47128
4.14221
4.90549
5.76847
6.7408
7.81172
8.97083
10.2546
11.6623
13.2022
14.8599
16.6307
18.4803
20.3652
22.1134
23.6338
24.7842
25.3389
25.0246
23.777
22.3241
21.9668
18.0849
12.2267
5.49961
1.00306
0.101145
0.012448
0.00750607
0.00748269
0.00783554
0.00833393
0.00854287
0.0081742
0.00826448
0.00852777
0.00890878
2.58601e-05
9.23647e-05
0.00119878
0.00733062
0.0269966
0.0720027
0.15369
0.279235
0.450568
0.666167
0.914521
1.19672
1.52563
1.9078
2.35244
2.86872
3.45942
4.1288
4.88586
5.74239
6.70481
7.77526
8.93252
10.2019
11.6091
13.1444
14.8134
16.5955
18.4785
20.4158
22.3151
23.9814
25.3612
26.2296
26.3157
25.4307
23.8628
22.9588
21.3483
15.8904
9.29309
2.84418
0.377672
0.036513
0.00866038
0.00743113
0.00755721
0.00796922
0.00844536
0.00841215
0.0080995
0.00825471
0.00852746
0.00890871
2.56647e-05
9.15144e-05
0.00118905
0.00730121
0.0269724
0.0720579
0.153645
0.278619
0.449224
0.664465
0.91265
1.19416
1.52348
1.90614
2.34714
2.85678
3.44548
4.11589
4.87122
5.7213
6.67619
7.73635
8.89024
10.162
11.5547
13.0917
14.7591
16.5585
18.4617
20.4462
22.4501
24.2827
25.834
26.9902
27.4512
26.9858
25.5873
24.1322
23.9187
19.3452
13.2032
6.12559
1.20117
0.133682
0.0157312
0.00767091
0.00743753
0.0076075
0.00813368
0.00850746
0.00825434
0.00810652
0.00825071
0.0085274
0.00890874
2.54981e-05
9.07554e-05
0.00117936
0.00725169
0.0268922
0.0720393
0.153818
0.278656
0.448464
0.662817
0.910918
1.19197
1.52049
1.90376
2.34555
2.85066
3.43191
4.10036
4.85721
5.70556
6.65315
7.70543
8.84624
10.1175
11.5142
13.037
14.709
16.5112
18.4398
20.4562
22.525
24.5257
26.2449
27.6177
28.4428
28.3895
27.3232
25.6709
24.91
22.734
16.8691
10.0392
3.1506
0.452614
0.0471872
0.00957443
0.00745101
0.00744405
0.00774945
0.0083021
0.00844794
0.008125
0.00806686
0.00824922
0.00852739
0.00890873
2.53721e-05
9.01337e-05
0.00117076
0.0072018
0.0267407
0.0718842
0.15385
0.279041
0.448664
0.661975
0.909292
1.1899
1.51793
1.90009
2.34282
2.84895
3.42514
4.08479
4.84023
5.69007
6.63556
7.67867
8.81236
10.0708
11.4682
12.9972
14.6562
16.4673
18.4044
20.4566
22.5727
24.7006
26.5933
28.1669
29.272
29.6386
28.98
27.4208
26.0529
25.8858
20.4379
13.9555
6.52627
1.32125
0.159682
0.0189549
0.00790416
0.00741062
0.00752078
0.00795107
0.00833826
0.00837145
0.00796396
0.0080509
0.00824868
0.00852729
0.0089087
2.52802e-05
8.96996e-05
0.00116402
0.00715755
0.0265854
0.0715508
0.153616
0.279179
0.449335
0.662403
0.908615
1.1881
1.51558
1.89729
2.33854
2.84604
3.42349
4.07759
4.82279
5.67123
6.61848
7.65844
8.78379
10.0352
11.4194
12.9509
14.6191
16.4189
18.3705
20.4391
22.6045
24.7991
26.8872
28.6364
29.9941
30.7157
30.4994
29.2212
27.5291
26.9423
23.9754
17.6447
10.5534
3.28552
0.495065
0.0555592
0.010472
0.00749233
0.00745194
0.00766396
0.00805991
0.00842588
0.00818025
0.00796562
0.00804475
0.00824854
0.00852732
0.00890872
2.52319e-05
8.94352e-05
0.00115964
0.00712436
0.0264492
0.0712032
0.153035
0.278886
0.44965
0.663456
0.909513
1.18748
1.51348
1.89477
2.33557
2.84175
3.42063
4.07626
4.8147
5.65228
6.59767
7.63853
8.76253
10.005
11.3826
12.901
14.5741
16.3872
18.3307
20.4212
22.6134
24.874
27.1115
29.0483
30.6174
31.6607
31.8557
30.9684
29.2543
28.0331
27.3073
21.3572
14.4844
6.67695
1.35675
0.173815
0.0214645
0.00811881
0.00742894
0.00752176
0.00772193
0.0082311
0.00832013
0.00803878
0.00790932
0.00804292
0.00824847
0.00852734
0.00890874
2.51712e-05
8.93726e-05
0.00115771
0.00710443
0.0263508
0.0709031
0.152422
0.278023
0.449326
0.664006
0.911096
1.18876
1.513
1.89239
2.33295
2.83847
3.41613
4.07354
4.81367
5.6434
6.57754
7.61456
8.74147
9.98303
11.3516
12.8639
14.5243
16.3456
18.3076
20.3948
22.6184
24.9201
27.2503
29.3987
31.1638
32.4741
33.0604
32.6087
31.0956
29.4004
29.0192
25.0441
18.2026
10.811
3.24699
0.503566
0.0598965
0.0111508
0.00754647
0.00746798
0.00754733
0.00791071
0.00825539
0.0083065
0.00785377
0.00789138
0.00804237
0.00824848
0.00852736
0.00890873
2.50945e-05
8.92444e-05
0.00115846
0.00709941
0.0262987
0.0706955
0.151895
0.277105
0.448187
0.663681
0.911994
1.19096
1.5148
1.89207
2.33027
2.83543
3.41251
4.06846
4.81144
5.64283
6.56801
7.59143
8.71604
9.96132
11.3293
12.8327
14.4883
16.298
18.2725
20.385
22.6123
24.9579
27.3468
29.6854
31.6435
33.1881
34.1161
34.1007
32.9484
31.0742
30.0953
28.5619
22.1152
14.7391
6.55392
1.31366
0.175215
0.0226911
0.00829567
0.00745976
0.00749473
0.00764205
0.00801723
0.00836938
0.00806754
0.00782337
0.00788569
0.00804224
0.00824849
0.00852737
0.00890872
2.49959e-05
8.90125e-05
0.00115819
0.00710994
0.0262992
0.0706024
0.151557
0.276335
0.446973
0.662277
0.911782
1.19223
1.51775
1.89459
2.33003
2.8326
3.4092
4.06435
4.80609
5.64087
6.56765
7.58162
8.69136
9.93455
11.3074
12.811
14.4579
16.2646
18.2297
20.3604
22.6215
24.9802
27.4296
29.8738
32.0633
33.8127
35.0356
35.4369
34.7112
32.972
31.347
31.2054
25.8963
18.6241
10.726
3.0556
0.480531
0.0598416
0.0114689
0.00760783
0.00746736
0.00755084
0.0077314
0.00819034
0.00826922
0.00789745
0.00777562
0.00788426
0.00804224
0.0082485
0.00852735
0.00890871
2.48946e-05
8.86772e-05
0.00115643
0.00711441
0.0263536
0.0706413
0.151432
0.275868
0.445969
0.660796
0.910173
1.19213
1.51943
1.89835
2.3334
2.83253
3.40642
4.0611
4.80174
5.63561
6.56522
7.58075
8.68166
9.90853
11.2798
12.7897
14.438
16.2367
18.2012
20.3256
22.6127
25.0164
27.4914
30.0173
32.3991
34.3654
35.8517
36.6204
36.3352
34.8969
32.971
32.2613
29.5253
22.6662
14.7104
6.14526
1.20506
0.165042
0.022504
0.00838164
0.00747271
0.00749661
0.00760249
0.00789288
0.00822168
0.00816986
0.00776703
0.00776188
0.00788391
0.00804223
0.00824849
0.00852736
0.0089087
2.47931e-05
8.82996e-05
0.00115314
0.00710921
0.0263863
0.0708134
0.151576
0.275758
0.445423
0.659613
0.908536
1.19028
1.51937
1.90057
2.33814
2.83673
3.40678
4.05852
4.79889
5.63192
6.55993
7.57668
8.6818
9.89941
11.2529
12.7618
14.4182
16.22
18.178
20.3054
22.5905
25.0296
27.5641
30.1318
32.6957
34.8591
36.5737
37.6704
37.8242
36.7666
34.8264
33.4555
32.9536
26.3462
18.8738
10.2418
2.73554
0.432766
0.0559344
0.0113798
0.00761766
0.00746246
0.00750967
0.0076544
0.00803245
0.00828423
0.00795117
0.00769216
0.00775834
0.00788389
0.00804227
0.00824856
0.00852732
0.0089087
2.46864e-05
8.78751e-05
0.00114904
0.0070947
0.0263821
0.0709275
0.151963
0.276085
0.445389
0.659042
0.90734
1.18837
1.5173
1.90065
2.34114
2.84284
3.41169
4.05953
4.79631
5.6293
6.55664
7.56959
8.67815
9.90107
11.2449
12.7347
14.3912
16.2032
18.1665
20.2897
22.5827
25.0264
27.6082
30.2529
32.8799
35.2954
37.227
38.6049
39.1459
38.5354
36.7886
34.9108
34.5244
30.1691
22.6375
14.5011
5.48897
1.04942
0.146597
0.021186
0.0083472
0.00746947
0.0074768
0.00755138
0.00778425
0.00816528
0.00820475
0.00771981
0.00766209
0.00775764
0.00788392
0.00804232
0.00824857
0.00852737
0.00890872
2.45746e-05
8.74007e-05
0.00114408
0.00707447
0.0263448
0.0709456
0.152242
0.276799
0.445981
0.65914
0.906884
1.18704
1.5152
1.89832
2.34142
2.84678
3.41929
4.06559
4.79763
5.62658
6.55399
7.56541
8.67105
9.8981
11.2486
12.7284
14.3646
16.1781
18.1547
20.286
22.5784
25.0361
27.6312
30.3387
33.0647
35.6595
37.8108
39.4463
40.3359
40.1658
38.7671
36.6778
35.6845
33.8777
26.5307
18.5589
9.42403
2.3298
0.36956
0.0494724
0.0109795
0.00761072
0.00745776
0.00751883
0.0076062
0.00793886
0.00823949
0.00796717
0.00763865
0.0076548
0.00775757
0.00788399
0.00804233
0.00824856
0.00852736
0.00890875
2.44662e-05
8.68841e-05
0.00113818
0.00704844
0.0262849
0.0708782
0.152318
0.277322
0.447109
0.660094
0.9073
1.18675
1.51355
1.89595
2.33874
2.84758
3.42442
4.07487
4.80582
5.62869
6.55137
7.56258
8.66731
9.89137
11.2468
12.735
14.3613
16.1536
18.1333
20.2817
22.5862
25.0482
27.6658
30.398
33.2057
35.9696
38.337
40.1952
41.4116
41.6665
40.6745
38.671
36.9956
36.8987
30.5508
22.3565
13.8343
4.66579
0.868522
0.123289
0.0191036
0.00823547
0.00746693
0.00749763
0.00755243
0.00771253
0.00808104
0.00813746
0.00774541
0.00758014
0.00765354
0.00775755
0.00788404
0.0080424
0.0082486
0.00852739
0.00890877
2.4367e-05
8.63717e-05
0.00113155
0.00701586
0.0262033
0.0707497
0.152221
0.277493
0.447945
0.661719
0.908814
1.1875
1.51334
1.89425
2.33597
2.84464
3.42599
4.08177
4.81732
5.63852
6.55468
7.56012
8.66511
9.88822
11.2407
12.735
14.3716
16.1541
18.112
20.2662
22.5924
25.072
27.7006
30.4667
33.3139
36.1839
38.8048
40.88
42.3768
43.0124
42.4694
40.6951
38.6111
38.02
34.4051
26.5749
17.8128
8.27189
1.88254
0.298793
0.0415443
0.010357
0.00757263
0.00746662
0.00751542
0.00762327
0.00782973
0.00810719
0.00801281
0.00760929
0.00756756
0.00765335
0.00775761
0.00788408
0.00804241
0.00824861
0.00852739
0.00890876
2.42718e-05
8.58907e-05
0.00112475
0.00697837
0.0260957
0.0705651
0.152003
0.277384
0.448249
0.662932
0.911175
1.18961
1.51449
1.89405
2.33429
2.84146
3.423
4.08382
4.82577
5.65209
6.56575
7.5636
8.6632
9.88682
11.2386
12.7301
14.3742
16.1695
18.1183
20.2505
22.5859
25.0932
27.7466
30.5328
33.4279
36.3571
39.1887
41.5035
43.2489
44.231
44.1355
42.7102
40.5039
39.232
38.071
30.3803
22.036
12.5925
3.76961
0.680088
0.0980936
0.016623
0.00805362
0.00744523
0.00748287
0.00755282
0.00764999
0.00796564
0.00812542
0.00777869
0.00751281
0.00756536
0.00765337
0.00775775
0.00788413
0.00804245
0.00824865
0.00852745
0.00890873
2.41831e-05
8.54625e-05
0.00111826
0.00693936
0.0259695
0.0703115
0.151673
0.277067
0.448145
0.663405
0.912964
1.19275
1.51734
1.89577
2.33445
2.83949
3.41933
4.08051
4.82847
5.66209
6.58073
7.57563
8.66818
9.88597
11.2384
12.7295
14.3711
16.1758
18.1405
20.2646
22.5782
25.0995
27.7883
30.608
33.5359
36.531
39.4952
42.0613
44.0433
45.3478
45.6497
44.658
42.5631
40.6804
40.4454
34.4528
25.804
16.9067
6.84354
1.44934
0.228357
0.0333783
0.00964076
0.00751845
0.00744289
0.00751579
0.00758443
0.00776659
0.00804434
0.00803361
0.00753503
0.00749237
0.00756512
0.00765349
0.00775782
0.0078842
0.0080425
0.00824863
0.00852742
0.00890875
2.41e-05
8.50735e-05
0.00111247
0.0069006
0.0258357
0.070011
0.151204
0.276564
0.447727
0.663329
0.913789
1.19512
1.52137
1.89942
2.33657
2.83992
3.41701
4.07654
4.82516
5.66613
6.59208
7.59054
8.68278
9.89274
11.2388
12.731
14.3726
16.1756
18.1517
20.2954
22.6028
25.1034
27.8117
30.677
33.6502
36.694
39.7473
42.5471
44.7872
46.3727
47.0409
46.4941
44.6422
42.4099
41.648
38.3876
29.9541
20.919
10.919
2.8942
0.506665
0.0742398
0.0141957
0.00786515
0.0074277
0.00748218
0.0075587
0.00762993
0.00790058
0.00813127
0.00773011
0.00745488
0.00748909
0.00756514
0.00765357
0.0077579
0.00788425
0.00804254
0.00824871
0.00852744
0.00890874
2.40229e-05
8.47211e-05
0.00110722
0.00686571
0.0257016
0.0696894
0.15064
0.275834
0.447046
0.662813
0.913847
1.19625
1.52445
1.90435
2.34128
2.84263
3.41755
4.07404
4.8211
5.6633
6.59718
7.60061
8.70055
9.91041
11.248
12.7334
14.3765
16.1801
18.1554
20.3134
22.6449
25.142
27.8316
30.7242
33.755
36.8596
39.9819
42.9869
45.4441
47.2975
48.332
48.1842
46.7166
44.3593
42.9532
42.116
33.9871
25.0721
15.3783
5.31683
1.0648
0.166091
0.0259569
0.00898128
0.00747363
0.00745532
0.00753572
0.00757004
0.00771849
0.00801471
0.00792495
0.00750388
0.00742626
0.00748873
0.00756523
0.00765367
0.00775798
0.00788433
0.0080426
0.0082487
0.00852751
0.00890879
2.39485e-05
8.4402e-05
0.00110242
0.00683402
0.0255788
0.0693613
0.150031
0.274942
0.446022
0.661954
0.913324
1.19644
1.52597
1.90833
2.3475
2.84842
3.42086
4.07466
4.81855
5.65927
6.5941
7.60392
8.71279
9.9316
11.2694
12.7454
14.3812
16.187
18.1639
20.3227
22.6721
25.1983
27.8883
30.7658
33.8339
37.011
40.2135
43.3621
46.0671
48.1476
49.4857
49.7739
48.6903
46.4768
44.4536
44.1707
38.1497
28.9272
19.5529
8.90318
2.09886
0.359716
0.0537625
0.012069
0.00769975
0.00742885
0.00749869
0.00753416
0.0076339
0.00783348
0.00798568
0.00772778
0.00740247
0.00742189
0.00748877
0.00756536
0.00765376
0.00775808
0.00788441
0.00804266
0.00824879
0.00852753
0.00890877
2.3877e-05
8.41019e-05
0.00109814
0.0068053
0.0254652
0.0690547
0.149412
0.273979
0.444782
0.66063
0.912298
1.19583
1.52633
1.91033
2.35258
2.85637
3.42797
4.07859
4.81924
5.65649
6.59034
7.59993
8.71694
9.94639
11.2948
12.7714
14.397
16.1952
18.1752
20.3367
22.6891
25.2375
27.9633
30.8463
33.9044
37.1312
40.4248
43.6781
46.6138
48.9492
50.5625
51.2215
50.5781
48.6016
46.2342
45.4252
42.1493
33.0705
23.5569
13.2009
3.89803
0.73973
0.115075
0.0197663
0.00841928
0.00744134
0.00745102
0.00750821
0.00756642
0.00767786
0.00790775
0.00794253
0.00746581
0.00736677
0.0074215
0.00748889
0.00756548
0.00765387
0.0077581
0.00788449
0.00804272
0.0082488
0.00852752
0.0089088
2.38007e-05
8.38262e-05
0.00109418
0.00677892
0.0253626
0.0687729
0.148822
0.273012
0.443439
0.659033
0.910687
1.19462
1.52574
1.9109
2.35521
2.86287
3.43772
4.08737
4.82382
5.65762
6.58802
7.59764
8.71278
9.95187
11.3126
12.8016
14.4285
16.2156
18.1879
20.3535
22.7105
25.2651
28.0185
30.9449
34.0151
37.24
40.5989
43.9659
47.1289
49.6813
51.5602
52.5671
52.3621
50.7104
48.2392
46.7792
45.9343
37.2358
27.693
17.6028
6.70658
1.44678
0.241364
0.0375389
0.0103482
0.00756549
0.00741427
0.0074687
0.00752754
0.00757852
0.00777268
0.0079433
0.00768318
0.00735278
0.00736178
0.00742155
0.00748899
0.00756559
0.00765397
0.00775819
0.00788456
0.00804279
0.00824886
0.00852757
0.00890881
2.37348e-05
8.35474e-05
0.00109038
0.0067547
0.0252697
0.0685152
0.148278
0.272065
0.44209
0.657281
0.908708
1.19265
1.52435
1.91037
2.35609
2.86625
3.4459
4.09902
4.83432
5.6632
6.59035
7.59746
8.71077
9.94764
11.3196
12.8231
14.4646
16.2537
18.2141
20.3721
22.7347
25.2961
28.0596
31.0205
34.1437
37.3894
40.7571
44.209
47.5847
50.3512
52.4838
53.8147
54.0018
52.7727
50.3679
48.3231
48.0402
41.4766
31.5702
21.6492
10.5362
2.68124
0.487929
0.0759125
0.0150564
0.00798365
0.00740719
0.00743194
0.00749609
0.00755418
0.00767574
0.00785253
0.00785646
0.00742739
0.00731221
0.00736151
0.00742168
0.00748916
0.00756568
0.00765409
0.00775833
0.00788462
0.00804284
0.00824894
0.00852762
0.0089088
2.36696e-05
8.33084e-05
0.00108672
0.0067316
0.0251821
0.0682804
0.147777
0.271194
0.440759
0.65554
0.906573
1.19023
1.52198
1.90885
2.35539
2.86765
3.45042
4.10929
4.84844
5.67535
6.59783
7.60252
8.71102
9.94586
11.3156
12.8322
14.4908
16.2967
18.2599
20.4056
22.7606
25.33
28.1037
31.0799
34.246
37.5559
40.9562
44.431
47.9204
50.9909
53.357
54.9632
55.5269
54.7181
52.5483
50.0914
49.3288
45.5274
35.7348
25.6236
14.865
4.69559
0.943118
0.154208
0.0257243
0.00910743
0.00746656
0.00740082
0.00746405
0.00754323
0.0075844
0.0077099
0.00788933
0.00763832
0.00730071
0.00730753
0.00736157
0.0074218
0.00748926
0.00756579
0.0076542
0.00775843
0.00788472
0.00804293
0.008249
0.00852767
0.00890878
2.3612e-05
8.30899e-05
0.00108358
0.00670957
0.0250989
0.0680611
0.147323
0.270389
0.439528
0.653819
0.904491
1.18758
1.51909
1.90609
2.3536
2.86696
3.45261
4.11541
4.86107
5.69198
6.61142
7.61195
8.71729
9.94661
11.314
12.8284
14.5023
16.3285
18.3116
20.461
22.8033
25.3656
28.1501
31.1407
34.3289
37.692
41.1702
44.6925
48.2247
51.5441
54.1514
56.0572
56.9519
56.5605
54.722
52.1214
50.7145
49.3756
39.956
29.7571
19.1826
7.67189
1.74105
0.305243
0.0484499
0.011807
0.00769024
0.00738389
0.00743461
0.00752188
0.00754567
0.00759195
0.00780361
0.00779115
0.00737756
0.00726204
0.00730731
0.0073617
0.00742196
0.00748939
0.00756592
0.00765429
0.00775851
0.00788481
0.008043
0.00824909
0.00852769
0.00890882
2.35594e-05
8.28989e-05
0.00108075
0.00669019
0.02502
0.0678512
0.146895
0.269654
0.438391
0.652242
0.902464
1.18494
1.5158
1.90262
2.35046
2.86484
3.45237
4.11878
4.86891
5.70735
6.63
7.62829
8.72857
9.95432
11.3155
12.8274
14.4991
16.3434
18.3497
20.5225
22.87
25.4195
28.1983
31.2032
34.4116
37.8055
41.3498
44.9662
48.5646
52.068
54.9188
57.0551
58.3062
58.2838
56.82
54.2591
52.303
52.028
44.2741
33.5957
23.1701
11.5498
3.06112
0.582116
0.0940362
0.0178173
0.00829444
0.00740081
0.00740086
0.00747657
0.00751131
0.0075607
0.00766528
0.00781326
0.00758931
0.00724855
0.00725809
0.00730739
0.00736184
0.00742211
0.00748954
0.00756608
0.00765442
0.00775862
0.00788494
0.00804313
0.00824918
0.00852775
0.00890884
2.35122e-05
8.27321e-05
0.00107831
0.00667297
0.0249504
0.0676524
0.146483
0.268953
0.437346
0.650761
0.900626
1.18242
1.51273
1.89873
2.34637
2.86116
3.45038
4.11914
4.87353
5.71633
6.64699
7.64735
8.74804
9.96787
11.3249
12.8298
14.4989
16.3412
18.3691
20.5692
22.9438
25.5003
28.2663
31.2675
34.4952
37.9166
41.5023
45.2006
48.9124
52.5221
55.6142
57.9979
59.5453
59.909
58.8203
56.4385
54.0097
53.3775
48.4136
37.8002
27.0682
15.8342
5.11946
1.0646
0.180864
0.0303436
0.00972528
0.00750186
0.00737214