# p  FACE_DATA 448
# x  y  z  p
-0.778 -3.80769e-06 0 1196.57
-0.773968 -3.80769e-06 0 934.753
-0.769872 -3.80769e-06 0 761.609
-0.76571 -3.80769e-06 0 735.171
-0.761486 -3.80769e-06 0 699.295
-0.757196 -3.80769e-06 0 676.478
-0.752841 -3.80769e-06 0 663.962
-0.748422 -3.80769e-06 0 654.514
-0.743939 -3.80769e-06 0 648.083
-0.739391 -3.80769e-06 0 642.807
-0.73478 -3.80769e-06 0 638.103
-0.730104 -3.80769e-06 0 633.781
-0.725364 -3.80769e-06 0 629.44
-0.720562 -3.80769e-06 0 624.509
-0.715696 -3.80769e-06 0 618.101
-0.710769 -3.80769e-06 0 611.102
-0.705778 -3.80769e-06 0 605.349
-0.700727 -3.80769e-06 0 602.381
-0.695615 -3.80769e-06 0 602.84
-0.690443 -3.80769e-06 0 605.514
-0.685211 -3.80769e-06 0 608.401
-0.67992 -3.80769e-06 0 611.63
-0.674571 -3.80769e-06 0 614.435
-0.669166 -3.80769e-06 0 616.889
-0.663704 -3.80769e-06 0 619.165
-0.658187 -3.80769e-06 0 621.108
-0.652616 -3.80769e-06 0 622.811
-0.646993 -3.80769e-06 0 624.138
-0.641317 -3.80769e-06 0 625.122
-0.635592 -3.80769e-06 0 625.852
-0.629817 -3.80769e-06 0 626.52
-0.623994 -3.80769e-06 0 626.989
-0.618125 -3.80769e-06 0 627.269
-0.61221 -3.80769e-06 0 627.376
-0.606252 -3.80769e-06 0 627.435
-0.600253 -3.80769e-06 0 627.352
-0.594213 -3.80769e-06 0 627.218
-0.588134 -3.80769e-06 0 627.063
-0.582018 -3.80769e-06 0 626.944
-0.575867 -3.80769e-06 0 626.742
-0.569683 -3.80769e-06 0 626.357
-0.563467 -3.80769e-06 0 625.838
-0.557221 -3.80769e-06 0 625.418
-0.550946 -3.80769e-06 0 625.185
-0.544647 -3.80769e-06 0 625.001
-0.538323 -3.80769e-06 0 624.639
-0.531979 -3.80769e-06 0 624.097
-0.525613 -3.80769e-06 0 623.531
-0.51923 -3.80769e-06 0 623.189
-0.512832 -3.80769e-06 0 623.046
-0.50642 -3.80769e-06 0 622.749
-0.499995 -3.80769e-06 0 622.171
-0.493562 -3.80769e-06 0 621.49
-0.487123 -3.80769e-06 0 620.888
-0.480677 -3.80769e-06 0 620.592
-0.47423 -3.80769e-06 0 620.642
-0.467782 -3.80769e-06 0 620.687
-0.461335 -3.80769e-06 0 620.366
-0.454892 -3.80769e-06 0 619.721
-0.448455 -3.80769e-06 0 618.931
-0.442026 -3.80769e-06 0 618.259
-0.435607 -3.80769e-06 0 617.944
-0.429202 -3.80769e-06 0 618.077
-0.42281 -3.80769e-06 0 618.319
-0.416434 -3.80769e-06 0 618.394
-0.410078 -3.80769e-06 0 617.954
-0.403743 -3.80769e-06 0 617.113
-0.39743 -3.80769e-06 0 616.208
-0.391141 -3.80769e-06 0 615.399
-0.38488 -3.80769e-06 0 614.905
-0.378648 -3.80769e-06 0 614.759
-0.372446 -3.80769e-06 0 615.383
-0.366277 -3.80769e-06 0 615.753
-0.360142 -3.80769e-06 0 615.906
-0.354042 -3.80769e-06 0 615.697
-0.347981 -3.80769e-06 0 615.006
-0.341959 -3.80769e-06 0 613.915
-0.335978 -3.80769e-06 0 612.834
-0.33004 -3.80769e-06 0 611.909
-0.324146 -3.80769e-06 0 611.314
-0.318298 -3.80769e-06 0 611.093
-0.312497 -3.80769e-06 0 611.56
-0.306744 -3.80769e-06 0 612.277
-0.301041 -3.80769e-06 0 612.99
-0.29539 -3.80769e-06 0 613.513
-0.28979 -3.80769e-06 0 613.757
-0.284243 -3.80769e-06 0 613.742
-0.278752 -3.80769e-06 0 613.255
-0.273316 -3.80769e-06 0 612.417
-0.267937 -3.80769e-06 0 611.279
-0.262614 -3.80769e-06 0 610.119
-0.25735 -3.80769e-06 0 609.092
-0.252146 -3.80769e-06 0 608.255
-0.247001 -3.80769e-06 0 607.719
-0.241916 -3.80769e-06 0 607.513
-0.236893 -3.80769e-06 0 607.749
-0.231931 -3.80769e-06 0 608.195
-0.227031 -3.80769e-06 0 608.87
-0.222195 -3.80769e-06 0 609.532
-0.217421 -3.80769e-06 0 610.119
-0.212711 -3.80769e-06 0 610.549
-0.208064 -3.80769e-06 0 610.774
-0.203482 -3.80769e-06 0 610.809
-0.198964 -3.80769e-06 0 610.678
-0.19451 -3.80769e-06 0 610.307
-0.19012 -3.80769e-06 0 609.791
-0.185796 -3.80769e-06 0 609.12
-0.181535 -3.80769e-06 0 608.387
-0.17734 -3.80769e-06 0 607.585
-0.173208 -3.80769e-06 0 606.792
-0.169141 -3.80769e-06 0 606.049
-0.165138 -3.80769e-06 0 605.387
-0.161199 -3.80769e-06 0 604.821
-0.157325 -3.80769e-06 0 604.399
-0.153513 -3.80769e-06 0 604.131
-0.149765 -3.80769e-06 0 604.025
-0.14608 -3.80769e-06 0 603.997
-0.142457 -3.80769e-06 0 604.277
-0.138897 -3.80769e-06 0 604.575
-0.135398 -3.80769e-06 0 605.012
-0.131961 -3.80769e-06 0 605.492
-0.128584 -3.80769e-06 0 606.015
-0.125268 -3.80769e-06 0 606.532
-0.122011 -3.80769e-06 0 607.018
-0.118815 -3.80769e-06 0 607.442
-0.115677 -3.80769e-06 0 607.811
-0.112597 -3.80769e-06 0 608.114
-0.109574 -3.80769e-06 0 608.346
-0.106609 -3.80769e-06 0 608.5
-0.1037 -3.80769e-06 0 608.601
-0.100846 -3.80769e-06 0 608.634
-0.098048 -3.80769e-06 0 608.625
-0.0953042 -3.80769e-06 0 608.525
-0.0926143 -3.80769e-06 0 608.39
-0.0899773 -3.80769e-06 0 608.202
-0.0873927 -3.80769e-06 0 607.973
-0.0848599 -3.80769e-06 0 607.702
-0.082378 -3.80769e-06 0 607.409
-0.0799465 -3.80769e-06 0 607.091
-0.0775645 -3.80769e-06 0 606.755
-0.0752312 -3.80769e-06 0 606.401
-0.0729462 -3.80769e-06 0 606.039
-0.0707085 -3.80769e-06 0 605.674
-0.0685175 -3.80769e-06 0 605.307
-0.0663725 -3.80769e-06 0 604.941
-0.0642727 -3.80769e-06 0 604.584
-0.0622173 -3.80769e-06 0 604.235
-0.0602058 -3.80769e-06 0 603.893
-0.0582373 -3.80769e-06 0 603.561
-0.0563111 -3.80769e-06 0 603.247
-0.0544265 -3.80769e-06 0 602.95
-0.0525827 -3.80769e-06 0 602.666
-0.0507792 -3.80769e-06 0 602.401
-0.0490152 -3.80769e-06 0 602.153
-0.0472898 -3.80769e-06 0 601.925
-0.0456025 -3.80769e-06 0 601.71
-0.0439526 -3.80769e-06 0 601.512
-0.0423394 -3.80769e-06 0 601.328
-0.0407622 -3.80769e-06 0 601.158
-0.0392203 -3.80769e-06 0 600.993
-0.0377131 -3.80769e-06 0 600.845
-0.0362398 -3.80769e-06 0 600.703
-0.0347999 -3.80769e-06 0 600.577
-0.0333926 -3.80769e-06 0 600.453
-0.0320175 -3.80769e-06 0 600.337
-0.0306737 -3.80769e-06 0 600.219
-0.0293607 -3.80769e-06 0 600.144
-0.0280779 -3.80769e-06 0 600.695
-0.0268246 -3.80769e-06 0 608.818
-0.0256004 -3.80769e-06 0 654.913
-0.0244045 -3.80769e-06 0 773.578
-0.0232363 -3.80769e-06 0 914.236
-0.0220954 -3.80769e-06 0 1019.57
-0.0209812 -3.80769e-06 0 1095.65
-0.019893 -3.80769e-06 0 1158.33
-0.0188303 -3.80769e-06 0 1212.35
-0.0177927 -3.80769e-06 0 1261.03
-0.0167794 -3.80769e-06 0 1305.97
-0.0157901 -3.80769e-06 0 1346.51
-0.0148243 -3.80769e-06 0 1384.05
-0.0138814 -3.80769e-06 0 1418.91
-0.0129608 -3.80769e-06 0 1451.38
-0.0120623 -3.80769e-06 0 1481.92
-0.0111851 -3.80769e-06 0 1510.64
-0.0103289 -3.80769e-06 0 1537.82
-0.00949328 -3.80769e-06 0 1563.67
-0.00867767 -3.80769e-06 0 1588.15
-0.00788168 -3.80769e-06 0 1611.5
-0.00710485 -3.80769e-06 0 1633.33
-0.00634675 -3.80769e-06 0 1653.56
-0.00560698 -3.80769e-06 0 1671.7
-0.0048851 -3.80769e-06 0 1688.43
-0.00418071 -3.80769e-06 0 1703.84
-0.00349342 -3.80769e-06 0 1719.34
-0.00282284 -3.80769e-06 0 1735.3
-0.00216857 -3.80769e-06 0 1755.02
-0.00153026 -3.80769e-06 0 1788.49
-0.00090752 -3.80769e-06 0 1836.04
-0.0003 -3.80769e-06 0 1926.74
0.000259937 0.000146262 2.25537e-21 1793.67
0.000779437 0.000446185 0 1846.24
0.00129893 0.000746101 0 1858.66
0.00181858 0.00104611 2.2554e-21 1884.82
0.00233835 0.00134618 -2.25541e-21 1923.19
0.00285828 0.00164636 2.25542e-21 1973.94
0.00337841 0.00194664 0 2031.22
0.00389877 0.00224706 0 2094.76
0.00441941 0.00254764 -2.25544e-21 2164.01
0.00494034 0.00284839 2.25545e-21 2238.71
0.00546162 0.00314934 -2.25546e-21 2318.94
0.00598328 0.0034505 2.25547e-21 2404.99
0.00650535 0.00375191 2.25547e-21 2497.04
0.00702786 0.00405357 2.25548e-21 2595.41
0.00755087 0.00435552 0 2700.22
0.00807439 0.00465776 -2.25549e-21 2811.66
0.00859847 0.00496033 2.2555e-21 2929.86
0.00912315 0.00526324 0 3055.1
0.00964845 0.00556651 2.25551e-21 3187.35
0.0101744 0.00587017 0 3326.99
0.0107011 0.00617424 0 3473.89
0.0112285 0.00647873 -2.25552e-21 3628.18
0.0117567 0.00678367 0 3789.8
0.0122857 0.00708907 0 3958.84
0.0128156 0.00739497 0 4135.35
0.0133463 0.00770137 -2.25554e-21 4319.31
0.0138779 0.00800831 0 4510.89
0.0144106 0.0083158 0 4710.6
0.0149442 0.00862387 0 4918.31
0.0154788 0.00893253 0 5134.77
0.0160145 0.00924181 0 5359.1
0.0165513 0.00955172 2.25556e-21 5591.9
0.0170893 0.00986231 -2.25556e-21 5833.58
0.0176284 0.0101736 0 6084.12
0.0181687 0.0104855 0 6343.56
0.0187103 0.0107982 2.25556e-21 6611.42
0.0192532 0.0111117 2.25557e-21 6889.29
0.0197975 0.0114259 2.25557e-21 7177.18
0.0203431 0.0117408 0 7478.22
0.0208901 0.0120566 4.51114e-21 7794.59
0.0214385 0.0123732 -4.51114e-21 8128.91
0.0219884 0.0126907 0 8481.97
0.0225398 0.0130091 4.51114e-21 8853.36
0.0230928 0.0133283 0 9238.31
0.0236474 0.0136485 0 9630.41
0.0242037 0.0139697 0 10020
0.0247616 0.0142918 -4.51113e-21 10400.8
0.0253212 0.0146148 -4.51113e-21 10769.8
0.0258825 0.0149389 -4.51114e-21 11123
0.0264456 0.015264 0 11462.6
0.0270106 0.0155902 0 11791.9
0.0275774 0.0159174 -4.51112e-21 12113.3
0.0281462 0.0162457 0 12427.1
0.0287168 0.0165752 4.51111e-21 12725
0.0292895 0.0169059 -4.51111e-21 12995.8
0.0298642 0.0172376 0 13235.4
0.0304409 0.0175706 0 13444.7
0.0310198 0.0179048 4.5111e-21 13606.1
0.0316007 0.0182402 4.5111e-21 13732.3
0.0321839 0.0185768 -4.51107e-21 13835.3
0.0327693 0.0189148 0 13919.1
0.0333569 0.0192541 0 13993
0.0339469 0.0195947 4.51106e-21 14051.9
0.0345392 0.0199366 0 14125.7
0.0351339 0.02028 0 14170.8
0.035731 0.0206247 4.51105e-21 14216.4
0.0363305 0.0209708 -4.51103e-21 14251.4
0.0369326 0.0213184 4.51102e-21 14256.6
0.0375373 0.0216675 0 14266.5
0.0381445 0.0220181 0 14275
0.0387543 0.0223702 0 14290.6
0.0393668 0.0227238 4.51099e-21 14310
0.0399821 0.023079 -4.51097e-21 14320.1
0.0406001 0.0234358 4.51097e-21 14297.3
0.041221 0.0237942 0 14237.6
0.0418446 0.0241542 0 14152.7
0.0424712 0.024516 4.51092e-21 14057.2
0.0431006 0.0248794 -4.51094e-21 13958.2
0.0437331 0.0252445 0 13880.7
0.0443686 0.0256114 4.51089e-21 13812.9
0.0450071 0.02598 4.51089e-21 13745.8
0.0456487 0.0263505 0 13691.8
0.0462935 0.0267227 0 13627.3
0.0469415 0.0270968 -4.51085e-21 13581.7
0.0475927 0.0274728 0 13532.1
0.0482473 0.0278507 -4.51081e-21 13489.4
0.0489051 0.0282305 4.51081e-21 13456.1
0.0495663 0.0286122 -4.51079e-21 13411.7
0.050231 0.0289959 0 13369.6
0.0508991 0.0293816 -4.51077e-21 13323.6
0.0515707 0.0297694 4.51073e-21 13283.3
0.0522459 0.0301592 -4.51073e-21 13245.3
0.0529247 0.0305511 0 13218.2
0.0536071 0.0309451 0 13185.2
0.0542933 0.0313412 -4.51067e-21 13161.6
0.0549832 0.0317395 0 13132.2
0.0556769 0.03214 0 13101.4
0.0563744 0.0325427 0 13067.5
0.0570758 0.0329477 -4.5106e-21 13038.5
0.0577812 0.0333549 0 13015.1
0.0584905 0.0337645 0 12992.2
0.0592039 0.0341763 -4.51056e-21 12971.9
0.0599214 0.0345905 4.51053e-21 12956.9
0.060643 0.0350071 0 12938.5
0.0613688 0.0354262 4.51049e-21 12927.6
0.0620989 0.0358477 -4.51048e-21 12910.3
0.0628332 0.0362716 4.51046e-21 12899.2
0.0635719 0.0366981 0 12888.7
0.0643149 0.037127 4.51041e-21 12873.1
0.0650624 0.0375586 0 12865.9
0.0658144 0.0379927 0 12844.3
0.0665709 0.0384295 4.51035e-21 12832.4
0.0673321 0.0388689 -4.51035e-21 12811.5
0.0680979 0.039311 0 12796.7
0.0688683 0.0397558 -4.51029e-21 12780.7
0.0696435 0.0402034 4.51029e-21 12764.4
0.0704236 0.0406537 0 12753.7
0.0712085 0.0411069 0 12737.2
0.0719983 0.0415628 0 12726.1
0.0727931 0.0420217 0 12714.8
0.0735929 0.0424834 0 12704.4
0.0743978 0.0429481 0 12701.3
0.0752078 0.0434158 0 12692.2
0.076023 0.0438864 4.5101e-21 12690.4
0.0768435 0.0443601 -4.51009e-21 12681.7
0.0776693 0.0448369 -4.51004e-21 12672.3
0.0785004 0.0453167 4.51003e-21 12657.6
0.079337 0.0457997 0 12640.5
0.080179 0.0462858 0 12623.3
0.0810266 0.0467751 0 12606.8
0.0818797 0.0472677 0 12588.9
0.0827385 0.0477635 0 12579.5
0.083603 0.0482626 0 12567.2
0.0844733 0.0487651 4.50985e-21 12563.3
0.0853495 0.0492709 -4.50983e-21 12556.8
0.0862316 0.0497801 0 12553.7
0.0871195 0.0502927 -4.50978e-21 12549.6
0.0880135 0.0508089 0 12537.9
0.0889136 0.0513285 0 12527.5
0.0898198 0.0518517 0 12515.2
0.0907322 0.0523785 0 12502.4
0.0916509 0.0529089 0 12491.8
0.0925758 0.0534429 4.50963e-21 12481.1
0.0935072 0.0539806 4.50959e-21 12471.8
0.094445 0.054522 0 12465.1
0.0953894 0.0550672 4.50953e-21 12456.6
0.0963404 0.0556162 0 12453
0.0972979 0.0561691 0 12445.7
0.0982622 0.0567258 0 12435.9
0.0992333 0.0572865 0 12424
0.100211 0.057851 0 12416
0.101196 0.0584196 0 12409.5
0.102188 0.0589922 4.50935e-21 12397.8
0.103187 0.0595689 4.50932e-21 12388.4
0.104193 0.0601497 -4.50928e-21 12383.7
0.105206 0.0607347 0 12367.8
0.106226 0.0613239 0 12358.8
0.107254 0.0619172 0 12343.8
0.10829 0.0625149 4.50918e-21 12337.9
0.109332 0.0631169 4.50915e-21 12333.8
0.110382 0.0637232 -4.50911e-21 12324.5
0.11144 0.064334 -4.50908e-21 12311.3
0.112506 0.0649492 4.50905e-21 12299.9
0.11358 0.0655688 4.50902e-21 12299
0.114661 0.066193 0 12280.7
0.11575 0.0668218 0 12274.5
0.116847 0.0674552 0 12267.4
0.117952 0.0680932 0 12258.8
0.119065 0.068736 0 12252.1
0.120187 0.0693834 4.50884e-21 12259.3
0.121316 0.0700357 0 12252.3
0.122455 0.0706928 0 12248.4
0.123601 0.0713548 -4.50875e-21 12251.7
0.124756 0.0720217 0 12239.2
0.12592 0.0726935 -4.5087e-21 12235.4
0.127093 0.0733704 0 12228.8
0.128274 0.0740524 0 12219.3
0.129464 0.0747395 4.50859e-21 12202.8
0.130663 0.0754317 0 12188.2
0.131871 0.0761292 4.50853e-21 12188.9
0.133088 0.0768319 4.50851e-21 12173
0.134315 0.0775399 0 12174.6
0.13555 0.0782532 4.50845e-21 12166.1
0.136795 0.078972 0 12161.6
0.13805 0.0796962 0 12152.5
0.139314 0.080426 -4.50834e-21 12143.1
0.140587 0.0811613 -4.50831e-21 12136.2
0.14187 0.0819021 4.50827e-21 12127.8
0.143163 0.0826487 0 12117.1
0.144466 0.0834009 0 12110.3
0.145779 0.0841589 0 12109.7
0.147102 0.0849227 4.50815e-21 12110.6
0.148435 0.0856924 4.50811e-21 12099.5
0.149779 0.0864679 0 12095.9
0.151133 0.0872495 4.50805e-21 12088
0.152497 0.0880371 4.50801e-21 12085.9
0.153871 0.0888307 4.50798e-21 12080.2
0.155257 0.0896305 0 12072.3
0.156653 0.0904364 4.50791e-21 12070.1
0.15806 0.0912487 4.50787e-21 12055.3
0.159478 0.0920672 0 12052.9
0.160907 0.092892 0 12036.8
0.162347 0.0937233 0 12025.6
0.163798 0.0945611 4.50774e-21 12028.9
0.16526 0.0954054 0 12016.3
0.166734 0.0962563 0 12020.6
0.168219 0.0971138 0 12020.6
0.169716 0.097978 4.50761e-21 12014.7
0.171225 0.098849 4.50758e-21 12011.4
0.172745 0.0997268 4.50754e-21 11995.1
0.174278 0.100611 0 11984.1
0.175822 0.101503 0 11976.1
0.177379 0.102402 0 11982.9
0.178947 0.103308 4.50741e-21 11975.5
0.180529 0.10422 4.50737e-21 11970.9
0.182122 0.10514 4.50734e-21 11976.4
0.183728 0.106068 0 11968.6
0.185347 0.107002 -4.50727e-21 11957.6
0.186979 0.107944 0 11942.3
0.188623 0.108894 0 11938.5
0.190281 0.109851 4.50716e-21 11925.4
0.191952 0.110815 0 11931.8
0.193636 0.111787 -4.5071e-21 11935.7
0.195333 0.112767 -4.50707e-21 11943
0.197044 0.113755 -4.50702e-21 11942.1
0.198768 0.114751 -4.507e-21 11944.9
0.200506 0.115754 -4.50696e-21 11922.2
0.202258 0.116766 0 11921.4
0.204024 0.117785 4.50688e-21 11910.4
0.205805 0.118813 4.50686e-21 11913.6
0.207599 0.119849 0 11915.1
0.209408 0.120893 -4.50679e-21 11917.3
0.211231 0.121946 -4.50676e-21 11919
0.213068 0.123007 0 11895.3
0.214921 0.124076 0 11883.7
0.216788 0.125154 0 11867.9
0.21867 0.126241 0 11852
0.220567 0.127336 0 11842.2
0.22248 0.12844 0 11850.1
0.224408 0.129553 0 11856.3
0.226351 0.130675 0 11865.8
0.22831 0.131806 0 11870.3
0.230284 0.132946 9.01282e-21 11854.2
0.232275 0.134095 0 11835
0.234282 0.135254 9.01268e-21 11826.2
0.236304 0.136421 0 11803.2
0.238344 0.137598 9.01253e-21 11799.3
0.2404 0.138785 0 11800.5
0.242472 0.139982 0 11823.1
