# wallHeatFlux  FACE_DATA 448
# x  y  z  wallHeatFlux
-0.778 -3.80769e-06 0 -198877
-0.773968 -3.80769e-06 0 -40154.3
-0.769872 -3.80769e-06 0 -24476.2
-0.76571 -3.80769e-06 0 -19627.1
-0.761486 -3.80769e-06 0 -16560.4
-0.757196 -3.80769e-06 0 -14601.9
-0.752841 -3.80769e-06 0 -13265.6
-0.748422 -3.80769e-06 0 -12253
-0.743939 -3.80769e-06 0 -11459.6
-0.739391 -3.80769e-06 0 -10818.3
-0.73478 -3.80769e-06 0 -10271.1
-0.730104 -3.80769e-06 0 -9792.31
-0.725364 -3.80769e-06 0 -9398.09
-0.720562 -3.80769e-06 0 -9115.21
-0.715696 -3.80769e-06 0 -8954.6
-0.710769 -3.80769e-06 0 -9098.45
-0.705778 -3.80769e-06 0 -9515.19
-0.700727 -3.80769e-06 0 -10162.3
-0.695615 -3.80769e-06 0 -10933.1
-0.690443 -3.80769e-06 0 -11651.1
-0.685211 -3.80769e-06 0 -12241.3
-0.67992 -3.80769e-06 0 -12714
-0.674571 -3.80769e-06 0 -13074.6
-0.669166 -3.80769e-06 0 -13360.3
-0.663704 -3.80769e-06 0 -13581.9
-0.658187 -3.80769e-06 0 -13749.8
-0.652616 -3.80769e-06 0 -13880.2
-0.646993 -3.80769e-06 0 -13962.1
-0.641317 -3.80769e-06 0 -14006.8
-0.635592 -3.80769e-06 0 -14033.9
-0.629817 -3.80769e-06 0 -14046.4
-0.623994 -3.80769e-06 0 -14035.5
-0.618125 -3.80769e-06 0 -14014.8
-0.61221 -3.80769e-06 0 -13977.3
-0.606252 -3.80769e-06 0 -13934.2
-0.600253 -3.80769e-06 0 -13890.9
-0.594213 -3.80769e-06 0 -13841.9
-0.588134 -3.80769e-06 0 -13787.3
-0.582018 -3.80769e-06 0 -13732.4
-0.575867 -3.80769e-06 0 -13677.2
-0.569683 -3.80769e-06 0 -13621.7
-0.563467 -3.80769e-06 0 -13565.9
-0.557221 -3.80769e-06 0 -13504.8
-0.550946 -3.80769e-06 0 -13453.2
-0.544647 -3.80769e-06 0 -13402.4
-0.538323 -3.80769e-06 0 -13351
-0.531979 -3.80769e-06 0 -13294
-0.525613 -3.80769e-06 0 -13236.7
-0.51923 -3.80769e-06 0 -13189.8
-0.512832 -3.80769e-06 0 -13148.1
-0.50642 -3.80769e-06 0 -13100.8
-0.499995 -3.80769e-06 0 -13048.2
-0.493562 -3.80769e-06 0 -13000.1
-0.487123 -3.80769e-06 0 -12952.1
-0.480677 -3.80769e-06 0 -12909.3
-0.47423 -3.80769e-06 0 -12876.8
-0.467782 -3.80769e-06 0 -12844.6
-0.461335 -3.80769e-06 0 -12806.8
-0.454892 -3.80769e-06 0 -12762.4
-0.448455 -3.80769e-06 0 -12713.7
-0.442026 -3.80769e-06 0 -12663.5
-0.435607 -3.80769e-06 0 -12630.4
-0.429202 -3.80769e-06 0 -12607.6
-0.42281 -3.80769e-06 0 -12584.7
-0.416434 -3.80769e-06 0 -12561.8
-0.410078 -3.80769e-06 0 -12527
-0.403743 -3.80769e-06 0 -12482.3
-0.39743 -3.80769e-06 0 -12437.4
-0.391141 -3.80769e-06 0 -12396.8
-0.38488 -3.80769e-06 0 -12362.5
-0.378648 -3.80769e-06 0 -12327.7
-0.372446 -3.80769e-06 0 -12325.3
-0.366277 -3.80769e-06 0 -12312.2
-0.360142 -3.80769e-06 0 -12298.1
-0.354042 -3.80769e-06 0 -12274
-0.347981 -3.80769e-06 0 -12238.8
-0.341959 -3.80769e-06 0 -12198.4
-0.335978 -3.80769e-06 0 -12151.9
-0.33004 -3.80769e-06 0 -12110.8
-0.324146 -3.80769e-06 0 -12076
-0.318298 -3.80769e-06 0 -12051
-0.312497 -3.80769e-06 0 -12047.9
-0.306744 -3.80769e-06 0 -12044.7
-0.301041 -3.80769e-06 0 -12046.9
-0.29539 -3.80769e-06 0 -12043.4
-0.28979 -3.80769e-06 0 -12035.4
-0.284243 -3.80769e-06 0 -12021
-0.278752 -3.80769e-06 0 -11996.3
-0.273316 -3.80769e-06 0 -11966.2
-0.267937 -3.80769e-06 0 -11925.4
-0.262614 -3.80769e-06 0 -11884.2
-0.25735 -3.80769e-06 0 -11849.5
-0.252146 -3.80769e-06 0 -11813.8
-0.247001 -3.80769e-06 0 -11789.2
-0.241916 -3.80769e-06 0 -11770
-0.236893 -3.80769e-06 0 -11761.7
-0.231931 -3.80769e-06 0 -11758.5
-0.227031 -3.80769e-06 0 -11756.5
-0.222195 -3.80769e-06 0 -11758.6
-0.217421 -3.80769e-06 0 -11766.6
-0.212711 -3.80769e-06 0 -11768.9
-0.208064 -3.80769e-06 0 -11761.7
-0.203482 -3.80769e-06 0 -11758.2
-0.198964 -3.80769e-06 0 -11745.4
-0.19451 -3.80769e-06 0 -11727.1
-0.19012 -3.80769e-06 0 -11703.4
-0.185796 -3.80769e-06 0 -11680.2
-0.181535 -3.80769e-06 0 -11656.2
-0.17734 -3.80769e-06 0 -11632.3
-0.173208 -3.80769e-06 0 -11604.4
-0.169141 -3.80769e-06 0 -11580
-0.165138 -3.80769e-06 0 -11552.4
-0.161199 -3.80769e-06 0 -11534.3
-0.157325 -3.80769e-06 0 -11516.6
-0.153513 -3.80769e-06 0 -11499
-0.149765 -3.80769e-06 0 -11491.6
-0.14608 -3.80769e-06 0 -11480.1
-0.142457 -3.80769e-06 0 -11479.3
-0.138897 -3.80769e-06 0 -11476.9
-0.135398 -3.80769e-06 0 -11476.9
-0.131961 -3.80769e-06 0 -11480.8
-0.128584 -3.80769e-06 0 -11484.7
-0.125268 -3.80769e-06 0 -11489.8
-0.122011 -3.80769e-06 0 -11494.9
-0.118815 -3.80769e-06 0 -11498.4
-0.115677 -3.80769e-06 0 -11503.7
-0.112597 -3.80769e-06 0 -11503.1
-0.109574 -3.80769e-06 0 -11508.6
-0.106609 -3.80769e-06 0 -11507.7
-0.1037 -3.80769e-06 0 -11502.1
-0.100846 -3.80769e-06 0 -11501.5
-0.098048 -3.80769e-06 0 -11496.3
-0.0953042 -3.80769e-06 0 -11490.9
-0.0926143 -3.80769e-06 0 -11480.1
-0.0899773 -3.80769e-06 0 -11474.9
-0.0873927 -3.80769e-06 0 -11464.2
-0.0848599 -3.80769e-06 0 -11453.9
-0.082378 -3.80769e-06 0 -11443.3
-0.0799465 -3.80769e-06 0 -11433.1
-0.0775645 -3.80769e-06 0 -11417.5
-0.0752312 -3.80769e-06 0 -11407.1
-0.0729462 -3.80769e-06 0 -11397.1
-0.0707085 -3.80769e-06 0 -11386.9
-0.0685175 -3.80769e-06 0 -11371.6
-0.0663725 -3.80769e-06 0 -11361.5
-0.0642727 -3.80769e-06 0 -11351.7
-0.0622173 -3.80769e-06 0 -11341.9
-0.0602058 -3.80769e-06 0 -11326.6
-0.0582373 -3.80769e-06 0 -11317
-0.0563111 -3.80769e-06 0 -11307.3
-0.0544265 -3.80769e-06 0 -11297.7
-0.0525827 -3.80769e-06 0 -11288.1
-0.0507792 -3.80769e-06 0 -11284
-0.0490152 -3.80769e-06 0 -11274.5
-0.0472898 -3.80769e-06 0 -11265.3
-0.0456025 -3.80769e-06 0 -11261.2
-0.0439526 -3.80769e-06 0 -11252
-0.0423394 -3.80769e-06 0 -11242.7
-0.0407622 -3.80769e-06 0 -11239.1
-0.0392203 -3.80769e-06 0 -11230
-0.0377131 -3.80769e-06 0 -11226.5
-0.0362398 -3.80769e-06 0 -11222.9
-0.0347999 -3.80769e-06 0 -11214.1
-0.0333926 -3.80769e-06 0 -11210.8
-0.0320175 -3.80769e-06 0 -11202.3
-0.0306737 -3.80769e-06 0 -11199.2
-0.0293607 -3.80769e-06 0 -11196.3
-0.0280779 -3.80769e-06 0 -11198.6
-0.0268246 -3.80769e-06 0 -11266
-0.0256004 -3.80769e-06 0 -11451
-0.0244045 -3.80769e-06 0 -11352.2
-0.0232363 -3.80769e-06 0 -10206.1
-0.0220954 -3.80769e-06 0 -9112.87
-0.0209812 -3.80769e-06 0 -8981.67
-0.019893 -3.80769e-06 0 -9823.72
-0.0188303 -3.80769e-06 0 -10828.2
-0.0177927 -3.80769e-06 0 -11699.5
-0.0167794 -3.80769e-06 0 -12416.1
-0.0157901 -3.80769e-06 0 -12966.6
-0.0148243 -3.80769e-06 0 -13427.5
-0.0138814 -3.80769e-06 0 -13830.9
-0.0129608 -3.80769e-06 0 -14182.4
-0.0120623 -3.80769e-06 0 -14508.6
-0.0111851 -3.80769e-06 0 -14807.4
-0.0103289 -3.80769e-06 0 -15066.2
-0.00949328 -3.80769e-06 0 -15280.8
-0.00867767 -3.80769e-06 0 -15452
-0.00788168 -3.80769e-06 0 -15594.9
-0.00710485 -3.80769e-06 0 -15682.8
-0.00634675 -3.80769e-06 0 -15815
-0.00560698 -3.80769e-06 0 -16049.5
-0.0048851 -3.80769e-06 0 -16448.8
-0.00418071 -3.80769e-06 0 -17050.4
-0.00349342 -3.80769e-06 0 -18021.6
-0.00282284 -3.80769e-06 0 -19279.6
-0.00216857 -3.80769e-06 0 -20740.1
-0.00153026 -3.80769e-06 0 -21976.6
-0.00090752 -3.80769e-06 0 -21849.5
-0.0003 -3.80769e-06 0 -19200.2
0.000259937 0.000146262 2.25537e-21 -16826.3
0.000779437 0.000446185 0 -20462.7
0.00129893 0.000746101 0 -24352.1
0.00181858 0.00104611 2.2554e-21 -27373.7
0.00233835 0.00134618 -2.25541e-21 -29881.1
0.00285828 0.00164636 2.25542e-21 -32048.7
0.00337841 0.00194664 0 -34051
0.00389877 0.00224706 0 -36017.4
0.00441941 0.00254764 -2.25544e-21 -38017.6
0.00494034 0.00284839 2.25545e-21 -40051.9
0.00546162 0.00314934 -2.25546e-21 -42163.7
0.00598328 0.0034505 2.25547e-21 -44350.9
0.00650535 0.00375191 2.25547e-21 -46636.7
0.00702786 0.00405357 2.25548e-21 -48989.1
0.00755087 0.00435552 0 -51434.8
0.00807439 0.00465776 -2.25549e-21 -54006.9
0.00859847 0.00496033 2.2555e-21 -56750.7
0.00912315 0.00526324 0 -59716.1
0.00964845 0.00556651 2.25551e-21 -62929.3
0.0101744 0.00587017 0 -66391.1
0.0107011 0.00617424 0 -70139.3
0.0112285 0.00647873 -2.25552e-21 -74174.6
0.0117567 0.00678367 0 -78481.6
0.0122857 0.00708907 0 -83112.2
0.0128156 0.00739497 0 -88079.8
0.0133463 0.00770137 -2.25554e-21 -93275.5
0.0138779 0.00800831 0 -98613.3
0.0144106 0.0083158 0 -103799
0.0149442 0.00862387 0 -108024
0.0154788 0.00893253 0 -109908
0.0160145 0.00924181 0 -111055
0.0165513 0.00955172 2.25556e-21 -113410
0.0170893 0.00986231 -2.25556e-21 -116660
0.0176284 0.0101736 0 -120646
0.0181687 0.0104855 0 -125096
0.0187103 0.0107982 2.25556e-21 -129900
0.0192532 0.0111117 2.25557e-21 -135022
0.0197975 0.0114259 2.25557e-21 -140373
0.0203431 0.0117408 0 -145964
0.0208901 0.0120566 4.51114e-21 -151936
0.0214385 0.0123732 -4.51114e-21 -158223
0.0219884 0.0126907 0 -164828
0.0225398 0.0130091 4.51114e-21 -171478
0.0230928 0.0133283 0 -178111
0.0236474 0.0136485 0 -184590
0.0242037 0.0139697 0 -191098
0.0247616 0.0142918 -4.51113e-21 -197575
0.0253212 0.0146148 -4.51113e-21 -204229
0.0258825 0.0149389 -4.51114e-21 -210507
0.0264456 0.015264 0 -216939
0.0270106 0.0155902 0 -222899
0.0275774 0.0159174 -4.51112e-21 -228359
0.0281462 0.0162457 0 -233278
0.0287168 0.0165752 4.51111e-21 -237727
0.0292895 0.0169059 -4.51111e-21 -241677
0.0298642 0.0172376 0 -244835
0.0304409 0.0175706 0 -246975
0.0310198 0.0179048 4.5111e-21 -248479
0.0316007 0.0182402 4.5111e-21 -249280
0.0321839 0.0185768 -4.51107e-21 -249423
0.0327693 0.0189148 0 -249225
0.0333569 0.0192541 0 -249046
0.0339469 0.0195947 4.51106e-21 -248797
0.0345392 0.0199366 0 -247943
0.0351339 0.02028 0 -247785
0.035731 0.0206247 4.51105e-21 -247091
0.0363305 0.0209708 -4.51103e-21 -246419
0.0369326 0.0213184 4.51102e-21 -245892
0.0375373 0.0216675 0 -244771
0.0381445 0.0220181 0 -243783
0.0387543 0.0223702 0 -243653
0.0393668 0.0227238 4.51099e-21 -242766
0.0399821 0.023079 -4.51097e-21 -242244
0.0406001 0.0234358 4.51097e-21 -240524
0.041221 0.0237942 0 -238272
0.0418446 0.0241542 0 -235264
0.0424712 0.024516 4.51092e-21 -231869
0.0431006 0.0248794 -4.51094e-21 -228806
0.0437331 0.0252445 0 -225719
0.0443686 0.0256114 4.51089e-21 -222753
0.0450071 0.02598 4.51089e-21 -220375
0.0456487 0.0263505 0 -217637
0.0462935 0.0267227 0 -215448
0.0469415 0.0270968 -4.51085e-21 -213048
0.0475927 0.0274728 0 -211175
0.0482473 0.0278507 -4.51081e-21 -209501
0.0489051 0.0282305 4.51081e-21 -207515
0.0495663 0.0286122 -4.51079e-21 -205825
0.050231 0.0289959 0 -203912
0.0508991 0.0293816 -4.51077e-21 -201727
0.0515707 0.0297694 4.51073e-21 -199767
0.0522459 0.0301592 -4.51073e-21 -198388
0.0529247 0.0305511 0 -196620
0.0536071 0.0309451 0 -195899
0.0542933 0.0313412 -4.51067e-21 -194564
0.0549832 0.0317395 0 -193304
0.0556769 0.03214 0 -191656
0.0563744 0.0325427 0 -190019
0.0570758 0.0329477 -4.5106e-21 -188582
0.0577812 0.0333549 0 -187354
0.0584905 0.0337645 0 -186206
0.0592039 0.0341763 -4.51056e-21 -185591
0.0599214 0.0345905 4.51053e-21 -184612
0.060643 0.0350071 0 -184209
0.0613688 0.0354262 4.51049e-21 -183282
0.0620989 0.0358477 -4.51048e-21 -182572
0.0628332 0.0362716 4.51046e-21 -181587
0.0635719 0.0366981 0 -180581
0.0643149 0.037127 4.51041e-21 -179903
0.0650624 0.0375586 0 -178558
0.0658144 0.0379927 0 -177981
0.0665709 0.0384295 4.51035e-21 -176866
0.0673321 0.0388689 -4.51035e-21 -176156
0.0680979 0.039311 0 -175557
0.0688683 0.0397558 -4.51029e-21 -174483
0.0696435 0.0402034 4.51029e-21 -173996
0.0704236 0.0406537 0 -172996
0.0712085 0.0411069 0 -172634
0.0719983 0.0415628 0 -171521
0.0727931 0.0420217 0 -170696
0.0735929 0.0424834 0 -170138
0.0743978 0.0429481 0 -169283
0.0752078 0.0434158 0 -168949
0.076023 0.0438864 4.5101e-21 -168260
0.0768435 0.0443601 -4.51009e-21 -167939
0.0776693 0.0448369 -4.51004e-21 -167399
0.0785004 0.0453167 4.51003e-21 -166820
0.079337 0.0457997 0 -166492
0.080179 0.0462858 0 -165565
0.0810266 0.0467751 0 -164726
0.0818797 0.0472677 0 -164514
0.0827385 0.0477635 0 -163465
0.083603 0.0482626 0 -163165
0.0844733 0.0487651 4.50985e-21 -162718
0.0853495 0.0492709 -4.50983e-21 -162264
0.0862316 0.0497801 0 -162053
0.0871195 0.0502927 -4.50978e-21 -161203
0.0880135 0.0508089 0 -160930
0.0889136 0.0513285 0 -160511
0.0898198 0.0518517 0 -159764
0.0907322 0.0523785 0 -159366
0.0916509 0.0529089 0 -158684
0.0925758 0.0534429 4.50963e-21 -158244
0.0935072 0.0539806 4.50959e-21 -157724
0.094445 0.054522 0 -157399
0.0953894 0.0550672 4.50953e-21 -156931
0.0963404 0.0556162 0 -156518
0.0972979 0.0561691 0 -155936
0.0982622 0.0567258 0 -155669
0.0992333 0.0572865 0 -155352
0.100211 0.057851 0 -154943
0.101196 0.0584196 0 -154128
0.102188 0.0589922 4.50935e-21 -154180
0.103187 0.0595689 4.50932e-21 -153840
0.104193 0.0601497 -4.50928e-21 -152783
0.105206 0.0607347 0 -152967
0.106226 0.0613239 0 -152200
0.107254 0.0619172 0 -151872
0.10829 0.0625149 4.50918e-21 -151274
0.109332 0.0631169 4.50915e-21 -150918
0.110382 0.0637232 -4.50911e-21 -150789
0.11144 0.064334 -4.50908e-21 -150247
0.112506 0.0649492 4.50905e-21 -150294
0.11358 0.0655688 4.50902e-21 -149124
0.114661 0.066193 0 -149018
0.11575 0.0668218 0 -148788
0.116847 0.0674552 0 -148521
0.117952 0.0680932 0 -148480
0.119065 0.068736 0 -148285
0.120187 0.0693834 4.50884e-21 -147387
0.121316 0.0700357 0 -147551
0.122455 0.0706928 0 -147614
0.123601 0.0713548 -4.50875e-21 -146176
0.124756 0.0720217 0 -146807
0.12592 0.0726935 -4.5087e-21 -146135
0.127093 0.0733704 0 -145930
0.128274 0.0740524 0 -145096
0.129464 0.0747395 4.50859e-21 -145106
0.130663 0.0754317 0 -144855
0.131871 0.0761292 4.50853e-21 -144032
0.133088 0.0768319 4.50851e-21 -144404
0.134315 0.0775399 0 -143859
0.13555 0.0782532 4.50845e-21 -143177
0.136795 0.078972 0 -143445
0.13805 0.0796962 0 -142497
0.139314 0.080426 -4.50834e-21 -142842
0.140587 0.0811613 -4.50831e-21 -141963
0.14187 0.0819021 4.50827e-21 -141730
0.143163 0.0826487 0 -141449
0.144466 0.0834009 0 -141382
0.145779 0.0841589 0 -141447
0.147102 0.0849227 4.50815e-21 -140512
0.148435 0.0856924 4.50811e-21 -140451
0.149779 0.0864679 0 -140358
0.151133 0.0872495 4.50805e-21 -139716
0.152497 0.0880371 4.50801e-21 -139414
0.153871 0.0888307 4.50798e-21 -139859
0.155257 0.0896305 0 -139082
0.156653 0.0904364 4.50791e-21 -138620
0.15806 0.0912487 4.50787e-21 -139174
0.159478 0.0920672 0 -138039
0.160907 0.092892 0 -137831
0.162347 0.0937233 0 -138044
0.163798 0.0945611 4.50774e-21 -136912
0.16526 0.0954054 0 -136997
0.166734 0.0962563 0 -137171
0.168219 0.0971138 0 -136330
0.169716 0.097978 4.50761e-21 -136505
0.171225 0.098849 4.50758e-21 -136177
0.172745 0.0997268 4.50754e-21 -136269
0.174278 0.100611 0 -135055
0.175822 0.101503 0 -135400
0.177379 0.102402 0 -134316
0.178947 0.103308 4.50741e-21 -135021
0.180529 0.10422 4.50737e-21 -134704
0.182122 0.10514 4.50734e-21 -133966
0.183728 0.106068 0 -134655
0.185347 0.107002 -4.50727e-21 -134318
0.186979 0.107944 0 -133194
0.188623 0.108894 0 -133658
0.190281 0.109851 4.50716e-21 -132945
0.191952 0.110815 0 -133004
0.193636 0.111787 -4.5071e-21 -132147
0.195333 0.112767 -4.50707e-21 -132202
0.197044 0.113755 -4.50702e-21 -131857
0.198768 0.114751 -4.507e-21 -131563
0.200506 0.115754 -4.50696e-21 -131044
0.202258 0.116766 0 -131332
0.204024 0.117785 4.50688e-21 -130776
0.205805 0.118813 4.50686e-21 -131186
0.207599 0.119849 0 -130673
0.209408 0.120893 -4.50679e-21 -130176
0.211231 0.121946 -4.50676e-21 -129759
0.213068 0.123007 0 -130392
0.214921 0.124076 0 -129471
0.216788 0.125154 0 -128425
0.21867 0.126241 0 -129255
0.220567 0.127336 0 -128428
0.22248 0.12844 0 -127621
0.224408 0.129553 0 -128594
0.226351 0.130675 0 -127677
0.22831 0.131806 0 -127788
0.230284 0.132946 9.01282e-21 -127636
0.232275 0.134095 0 -127484
0.234282 0.135254 9.01268e-21 -126734
0.236304 0.136421 0 -127192
0.238344 0.137598 9.01253e-21 -126697
0.2404 0.138785 0 -125965
0.242472 0.139982 0 -125497
