# y+ ()       
# Time        	patch         	min           	max           	average       
5500          	base	2.298047e-02	6.436530e-01	2.603815e-01
