# y+ ()       
# Time        	patch         	min           	max           	average       
9100          	base	7.231840e-03	2.417061e+01	5.484227e+00
