# p  FACE_DATA 240
# x  y  z  p
-0.771783 0 0.026 3538.76
-0.74637 0 0.026 2987.64
-0.719597 0 0.026 2839.98
-0.693782 0 0.026 2787.49
-0.66889 0 0.026 2771.68
-0.644887 0 0.026 2766.6
-0.621743 0 0.026 2765.62
-0.599426 0 0.026 2764.37
-0.577906 0 0.026 2763.68
-0.557155 0 0.026 2763.93
-0.537145 0 0.026 2764.23
-0.517849 0 0.026 2763.03
-0.499243 0 0.026 2761.24
-0.481301 0 0.026 2759.42
-0.463999 0 0.026 2758.33
-0.447315 0 0.026 2757.85
-0.431226 0 0.026 2757.66
-0.41571 0 0.026 2756.72
-0.400747 0 0.026 2755.2
-0.386317 0 0.026 2753.54
-0.372401 0 0.026 2752.15
-0.358982 0 0.026 2751.31
-0.346039 0 0.026 2751.31
-0.333557 0 0.026 2751.99
-0.321518 0 0.026 2752.4
-0.309908 0 0.026 2751.74
-0.298709 0 0.026 2750.38
-0.287908 0 0.026 2748.58
-0.27749 0 0.026 2746.78
-0.267441 0 0.026 2745.21
-0.257748 0 0.026 2744.12
-0.248397 0 0.026 2743.54
-0.239378 0 0.026 2743.52
-0.230676 0 0.026 2744.14
-0.222282 0 0.026 2745.11
-0.214183 0 0.026 2746.15
-0.20637 0 0.026 2747.04
-0.19883 0 0.026 2747.61
-0.191555 0 0.026 2747.73
-0.184536 0 0.026 2747.4
-0.177762 0 0.026 2746.75
-0.171224 0 0.026 2745.84
-0.165013 0 0.026 2744.75
-0.159119 0 0.026 2743.58
-0.153435 0 0.026 2742.4
-0.14795 0 0.026 2741.3
-0.14266 0 0.026 2740.35
-0.137557 0 0.026 2739.58
-0.132633 0 0.026 2738.97
-0.127882 0 0.026 2738.49
-0.123298 0 0.026 2738.1
-0.118874 0 0.026 2737.8
-0.114605 0 0.026 2737.57
-0.110484 0 0.026 2737.41
-0.106508 0 0.026 2737.32
-0.10267 0 0.026 2737.31
-0.0989664 0 0.026 2737.37
-0.0953906 0 0.026 2737.46
-0.0919392 0 0.026 2737.58
-0.0886074 0 0.026 2737.71
-0.085391 0 0.026 2737.83
-0.0822859 0 0.026 2737.93
-0.079288 0 0.026 2738.02
-0.0763938 0 0.026 2738.09
-0.0735993 0 0.026 2738.15
-0.0709011 0 0.026 2738.18
-0.0682959 0 0.026 2738.18
-0.0657802 0 0.026 2738.17
-0.063351 0 0.026 2738.16
-0.0610052 0 0.026 2738.16
-0.05874 0 0.026 2738.17
-0.0565524 0 0.026 2738.19
-0.0544398 0 0.026 2738.22
-0.0523995 0 0.026 2738.24
-0.0504291 0 0.026 2738.26
-0.048526 0 0.026 2738.27
-0.046688 0 0.026 2738.25
-0.0449127 0 0.026 2738.22
-0.043198 0 0.026 2738.18
-0.0415419 0 0.026 2738.12
-0.0399422 0 0.026 2738.04
-0.0383971 0 0.026 2737.96
-0.0369046 0 0.026 2737.87
-0.0354628 0 0.026 2737.8
-0.0340701 0 0.026 2737.77
-0.0327248 0 0.026 2737.84
-0.0314253 0 0.026 2738.07
-0.0301698 0 0.026 2738.56
-0.0289571 0 0.026 2739.45
-0.0277855 0 0.026 2740.96
-0.0266537 0 0.026 2743.56
-0.0255603 0 0.026 2748.12
-0.0245039 0 0.026 2756.52
-0.0234834 0 0.026 2772.86
-0.0224975 0 0.026 2805.99
-0.0215449 0 0.026 2874.51
-0.0206246 0 0.026 3009.2
-0.0197355 0 0.026 3241.86
-0.0188765 0 0.026 3575.03
-0.0180466 0 0.026 3972.66
-0.0172447 0 0.026 4390.99
-0.0164699 0 0.026 4790.44
-0.0157213 0 0.026 5154.49
-0.0149981 0 0.026 5479.47
-0.0142993 0 0.026 5770.86
-0.0136241 0 0.026 6033.46
-0.0129717 0 0.026 6270.65
-0.0123413 0 0.026 6488.03
-0.0117322 0 0.026 6686.72
-0.0111437 0 0.026 6870.79
-0.010575 0 0.026 7041.37
-0.0100256 0 0.026 7198.84
-0.00949468 0 0.026 7346.65
-0.00898166 0 0.026 7484.7
-0.00848594 0 0.026 7613.9
-0.00800694 0 0.026 7734.92
-0.00754409 0 0.026 7848.47
-0.00709684 0 0.026 7955.1
-0.00666467 0 0.026 8055.21
-0.00624706 0 0.026 8149.31
-0.00584352 0 0.026 8237.27
-0.00545358 0 0.026 8319.05
-0.00507677 0 0.026 8394.79
-0.00471265 0 0.026 8464.47
-0.0043608 0 0.026 8528.18
-0.0040208 0 0.026 8586.23
-0.00369224 0 0.026 8639.27
-0.00337474 0 0.026 8687.48
-0.00306793 0 0.026 8733.38
-0.00277146 0 0.026 8777.19
-0.00248495 0 0.026 8820.54
-0.00220809 0 0.026 8866.12
-0.00194054 0 0.026 8915.55
-0.001682 0 0.026 8970.43
-0.00143216 0 0.026 9032.59
-0.00119071 0 0.026 9121.73
-0.000957397 0 0.026 9211.09
-0.000731928 0 0.026 9311.92
-0.00051404 0 0.026 9422.8
-0.00030348 0 0.026 9585.32
-0.0001 0 0.026 10189
8.66025e-05 5e-05 0.026 9256.82
0.000259964 0.00015009 0.026 9469.01
0.000433795 0.000250451 0.026 9439.05
0.000608407 0.000351264 0.026 9414.18
0.000784117 0.000452711 0.026 9424.09
0.000961243 0.000554974 0.026 9465.49
0.0011401 0.000658238 0.026 9533.52
0.00132102 0.000762689 0.026 9623.55
0.00150431 0.000868516 0.026 9732.18
0.00169033 0.000975909 0.026 9857.54
0.00187939 0.00108506 0.026 9997.53
0.00207184 0.00119618 0.026 10152.1
0.00226802 0.00130945 0.026 10321.3
0.00246831 0.00142508 0.026 10505.2
0.00267303 0.00154328 0.026 10704.4
0.00288259 0.00166427 0.026 10920
0.00309735 0.00178825 0.026 11153.3
0.00331769 0.00191547 0.026 11405.9
0.00354401 0.00204614 0.026 11679.7
0.00377673 0.0021805 0.026 11977.1
0.00401626 0.00231879 0.026 12300.4
0.00426304 0.00246127 0.026 12652.5
0.0045175 0.00260818 0.026 13035.9
0.00478012 0.0027598 0.026 13453.8
0.00505136 0.0029164 0.026 13909.4
0.0053317 0.00307826 0.026 14406
0.00562167 0.00324567 0.026 14946.9
0.00592177 0.00341894 0.026 15536.3
0.00623257 0.00359837 0.026 16178.5
0.0065546 0.0037843 0.026 16878
0.00688845 0.00397706 0.026 17639.1
0.00723473 0.00417698 0.026 18467.6
0.00759407 0.00438444 0.026 19369.9
0.0079671 0.00459981 0.026 20354
0.0083545 0.00482347 0.026 21426.4
0.00875697 0.00505584 0.026 22593.5
0.00917525 0.00529733 0.026 23862.4
0.00961007 0.00554838 0.026 25245.5
0.0100622 0.00580943 0.026 26758.2
0.0105325 0.00608095 0.026 28417.4
0.0110218 0.00636345 0.026 30253.2
0.011531 0.00665743 0.026 32296.8
0.012061 0.00696343 0.026 34586.6
0.0126127 0.00728197 0.026 37176.9
0.0131872 0.00761366 0.026 40129.5
0.0137855 0.00795908 0.026 43535.2
0.0144087 0.00831886 0.026 47438.5
0.0150578 0.00869364 0.026 51893.9
0.0157341 0.0090841 0.026 56951.8
0.0164388 0.00949095 0.026 62592
0.0171732 0.00991493 0.026 68803
0.0179385 0.0103568 0.026 75475.9
0.0187362 0.0108173 0.026 82376.4
0.0195677 0.0112974 0.026 89029.9
0.0204344 0.0117978 0.026 95196
0.0213381 0.0123195 0.026 100544
0.0222801 0.0128635 0.026 105059
0.0232625 0.0134306 0.026 108873
0.0242867 0.014022 0.026 111186
0.0253548 0.0146386 0.026 111430
0.0264686 0.0152817 0.026 110864
0.0276302 0.0159524 0.026 110901
0.0288416 0.0166517 0.026 111289
0.0301051 0.0173812 0.026 109205
0.0314228 0.018142 0.026 106207
0.0327972 0.0189355 0.026 104270
0.0342308 0.0197632 0.026 103366
0.0357262 0.0206265 0.026 102879
0.0372859 0.021527 0.026 102522
0.038913 0.0224664 0.026 102334
0.0406102 0.0234463 0.026 102026
0.0423807 0.0244685 0.026 101564
0.0442276 0.0255348 0.026 101199
0.0461543 0.0266472 0.026 101197
0.0481643 0.0278077 0.026 101293
0.0502611 0.0290183 0.026 101159
0.0524487 0.0302813 0.026 101055
0.0547308 0.0315988 0.026 100943
0.0571116 0.0329735 0.026 100935
0.0595956 0.0344075 0.026 101258
0.0621869 0.0359036 0.026 101779
0.0648905 0.0374645 0.026 102185
0.0677111 0.039093 0.026 102372
0.0706539 0.040792 0.026 102313
0.073724 0.0425646 0.026 102092
0.0769272 0.044414 0.026 101771
0.0802692 0.0463434 0.026 101458
0.0837559 0.0483565 0.026 101350
0.0873938 0.0504568 0.026 101391
0.0911892 0.0526481 0.026 101603
0.0951492 0.0549344 0.026 101854
0.0992806 0.0573198 0.026 102126
0.103592 0.0598086 0.026 102399
0.10809 0.0624052 0.026 102473
0.112782 0.0651144 0.026 102440
0.117678 0.0679412 0.026 102522
0.122786 0.0708904 0.026 102570
0.128115 0.0739676 0.026 102651
0.133677 0.0771782 0.026 102334
