# wallHeatFlux  FACE_DATA 240
# x  y  z  wallHeatFlux
-0.771783 0 0.026 -320173
-0.74637 0 0.026 -80467.9
-0.719597 0 0.026 -77548.5
-0.693782 0 0.026 -76168.5
-0.66889 0 0.026 -75266.1
-0.644887 0 0.026 -75000.7
-0.621743 0 0.026 -74841.5
-0.599426 0 0.026 -74151.5
-0.577906 0 0.026 -73461.5
-0.557155 0 0.026 -73089.9
-0.537145 0 0.026 -72824.5
-0.517849 0 0.026 -72506
-0.499243 0 0.026 -72081.4
-0.481301 0 0.026 -71603.7
-0.463999 0 0.026 -71179.1
-0.447315 0 0.026 -70807.5
-0.431226 0 0.026 -70542.1
-0.41571 0 0.026 -70223.6
-0.400747 0 0.026 -69905.2
-0.386317 0 0.026 -69586.7
-0.372401 0 0.026 -69268.2
-0.358982 0 0.026 -69002.8
-0.346039 0 0.026 -68843.6
-0.333557 0 0.026 -68737.4
-0.321518 0 0.026 -68578.2
-0.309908 0 0.026 -68418.9
-0.298709 0 0.026 -68153.5
-0.287908 0 0.026 -67782
-0.27749 0 0.026 -67463.5
-0.267441 0 0.026 -67092
-0.257748 0 0.026 -66879.6
-0.248397 0 0.026 -66720.4
-0.239378 0 0.026 -66667.3
-0.230676 0 0.026 -66773.5
-0.222282 0 0.026 -66879.6
-0.214183 0 0.026 -67038.9
-0.20637 0 0.026 -67145
-0.19883 0 0.026 -67251.2
-0.191555 0 0.026 -67251.2
-0.184536 0 0.026 -67198.1
-0.177762 0 0.026 -67038.9
-0.171224 0 0.026 -66826.6
-0.165013 0 0.026 -66561.2
-0.159119 0 0.026 -66242.7
-0.153435 0 0.026 -65924.2
-0.14795 0 0.026 -65605.7
-0.14266 0 0.026 -65340.4
-0.137557 0 0.026 -65075
-0.132633 0 0.026 -64809.6
-0.127882 0 0.026 -64650.3
-0.123298 0 0.026 -64491.1
-0.118874 0 0.026 -64384.9
-0.114605 0 0.026 -64331.8
-0.110484 0 0.026 -64278.8
-0.106508 0 0.026 -64278.8
-0.10267 0 0.026 -64278.8
-0.0989664 0 0.026 -64278.8
-0.0953906 0 0.026 -64331.8
-0.0919392 0 0.026 -64384.9
-0.0886074 0 0.026 -64438
-0.085391 0 0.026 -64544.2
-0.0822859 0 0.026 -64597.2
-0.079288 0 0.026 -64703.4
-0.0763938 0 0.026 -64756.5
-0.0735993 0 0.026 -64862.6
-0.0709011 0 0.026 -64915.7
-0.0682959 0 0.026 -65021.9
-0.0657802 0 0.026 -65075
-0.063351 0 0.026 -65128
-0.0610052 0 0.026 -65181.1
-0.05874 0 0.026 -65181.1
-0.0565524 0 0.026 -65234.2
-0.0544398 0 0.026 -65287.3
-0.0523995 0 0.026 -65287.3
-0.0504291 0 0.026 -65287.3
-0.048526 0 0.026 -65340.4
-0.046688 0 0.026 -65340.4
-0.0449127 0 0.026 -65340.4
-0.043198 0 0.026 -65340.4
-0.0415419 0 0.026 -65340.4
-0.0399422 0 0.026 -65340.4
-0.0383971 0 0.026 -65340.4
-0.0369046 0 0.026 -65287.3
-0.0354628 0 0.026 -65287.3
-0.0340701 0 0.026 -65234.2
-0.0327248 0 0.026 -65234.2
-0.0314253 0 0.026 -65128
-0.0301698 0 0.026 -65021.9
-0.0289571 0 0.026 -64862.6
-0.0277855 0 0.026 -64597.2
-0.0266537 0 0.026 -64172.6
-0.0255603 0 0.026 -63482.6
-0.0245039 0 0.026 -62314.8
-0.0234834 0 0.026 -60244.8
-0.0224975 0 0.026 -56476.1
-0.0215449 0 0.026 -50053.6
-0.0206246 0 0.026 -40499.3
-0.0197355 0 0.026 -29830.4
-0.0188765 0 0.026 -22399.4
-0.0180466 0 0.026 -21337.8
-0.0172447 0 0.026 -25531
-0.0164699 0 0.026 -31582.1
-0.0157213 0 0.026 -37633.1
-0.0149981 0 0.026 -43259.5
-0.0142993 0 0.026 -48408.1
-0.0136241 0 0.026 -53026
-0.0129717 0 0.026 -57113.1
-0.0123413 0 0.026 -60828.6
-0.0117322 0 0.026 -64119.5
-0.0111437 0 0.026 -67198.1
-0.010575 0 0.026 -70011.3
-0.0100256 0 0.026 -72559.1
-0.00949468 0 0.026 -75000.7
-0.00898166 0 0.026 -77230.1
-0.00848594 0 0.026 -79247.1
-0.00800694 0 0.026 -81051.8
-0.00754409 0 0.026 -82697.2
-0.00709684 0 0.026 -84130.3
-0.00666467 0 0.026 -85351.2
-0.00624706 0 0.026 -86465.8
-0.00584352 0 0.026 -87315.1
-0.00545358 0 0.026 -88111.3
-0.00507677 0 0.026 -88748.2
-0.00471265 0 0.026 -89438.3
-0.0043608 0 0.026 -90234.4
-0.0040208 0 0.026 -91136.8
-0.00369224 0 0.026 -92304.5
-0.00337474 0 0.026 -93737.7
-0.00306793 0 0.026 -95542.4
-0.00277146 0 0.026 -97665.5
-0.00248495 0 0.026 -100213
-0.00220809 0 0.026 -103133
-0.00194054 0 0.026 -106477
-0.001682 0 0.026 -110192
-0.00143216 0 0.026 -114279
-0.00119071 0 0.026 -118526
-0.000957397 0 0.026 -121763
-0.000731928 0 0.026 -124789
-0.00051404 0 0.026 -126434
-0.00030348 0 0.026 -125373
-0.0001 0 0.026 -118207
8.66025e-05 5e-05 0.026 -69668.4
0.000259964 0.00015009 0.026 -103044
0.000433795 0.000250451 0.026 -117602
0.000608407 0.000351264 0.026 -129420
0.000784117 0.000452711 0.026 -138948
0.000961243 0.000554974 0.026 -147048
0.0011401 0.000658238 0.026 -154139
0.00132102 0.000762689 0.026 -160571
0.00150431 0.000868516 0.026 -166749
0.00169033 0.000975909 0.026 -172764
0.00187939 0.00108506 0.026 -178873
0.00207184 0.00119618 0.026 -185084
0.00226802 0.00130945 0.026 -191477
0.00246831 0.00142508 0.026 -198163
0.00267303 0.00154328 0.026 -205121
0.00288259 0.00166427 0.026 -212507
0.00309735 0.00178825 0.026 -220330
0.00331769 0.00191547 0.026 -228728
0.00354401 0.00204614 0.026 -237729
0.00377673 0.0021805 0.026 -247456
0.00401626 0.00231879 0.026 -257917
0.00426304 0.00246127 0.026 -269197
0.0045175 0.00260818 0.026 -281453
0.00478012 0.0027598 0.026 -294573
0.00505136 0.0029164 0.026 -308799
0.0053317 0.00307826 0.026 -324127
0.00562167 0.00324567 0.026 -340616
0.00592177 0.00341894 0.026 -358346
0.00623257 0.00359837 0.026 -377566
0.0065546 0.0037843 0.026 -398158
0.00688845 0.00397706 0.026 -420397
0.00723473 0.00417698 0.026 -444154
0.00759407 0.00438444 0.026 -469705
0.0079671 0.00459981 0.026 -497250
0.0083545 0.00482347 0.026 -526789
0.00875697 0.00505584 0.026 -558520
0.00917525 0.00529733 0.026 -592479
0.00961007 0.00554838 0.026 -628818
0.0100622 0.00580943 0.026 -667816
0.0105325 0.00608095 0.026 -709380
0.0110218 0.00636345 0.026 -754574
0.011531 0.00665743 0.026 -803738
0.012061 0.00696343 0.026 -858167
0.0126127 0.00728197 0.026 -917943
0.0131872 0.00761366 0.026 -985915
0.0137855 0.00795908 0.026 -1.06312e+06
0.0144087 0.00831886 0.026 -1.15003e+06
0.0150578 0.00869364 0.026 -1.24874e+06
0.0157341 0.0090841 0.026 -1.36152e+06
0.0164388 0.00949095 0.026 -1.48656e+06
0.0171732 0.00991493 0.026 -1.62716e+06
0.0179385 0.0103568 0.026 -1.76953e+06
0.0187362 0.0108173 0.026 -1.91698e+06
0.0195677 0.0112974 0.026 -2.05752e+06
0.0204344 0.0117978 0.026 -2.15252e+06
0.0213381 0.0123195 0.026 -2.25212e+06
0.0222801 0.0128635 0.026 -2.30928e+06
0.0232625 0.0134306 0.026 -2.3524e+06
0.0242867 0.014022 0.026 -2.35512e+06
0.0253548 0.0146386 0.026 -2.29461e+06
0.0264686 0.0152817 0.026 -2.18555e+06
0.0276302 0.0159524 0.026 -2.13435e+06
0.0288416 0.0166517 0.026 -2.07363e+06
0.0301051 0.0173812 0.026 -1.95566e+06
0.0314228 0.018142 0.026 -1.83413e+06
0.0327972 0.0189355 0.026 -1.73468e+06
0.0342308 0.0197632 0.026 -1.71392e+06
0.0357262 0.0206265 0.026 -1.67575e+06
0.0372859 0.021527 0.026 -1.64872e+06
0.038913 0.0224664 0.026 -1.62846e+06
0.0406102 0.0234463 0.026 -1.59752e+06
0.0423807 0.0244685 0.026 -1.58596e+06
0.0442276 0.0255348 0.026 -1.49355e+06
0.0461543 0.0266472 0.026 -1.52441e+06
0.0481643 0.0278077 0.026 -1.4928e+06
0.0502611 0.0290183 0.026 -1.44284e+06
0.0524487 0.0302813 0.026 -1.48107e+06
0.0547308 0.0315988 0.026 -1.43874e+06
0.0571116 0.0329735 0.026 -1.36665e+06
0.0595956 0.0344075 0.026 -1.40134e+06
0.0621869 0.0359036 0.026 -1.39728e+06
0.0648905 0.0374645 0.026 -1.37369e+06
0.0677111 0.039093 0.026 -1.35575e+06
0.0706539 0.040792 0.026 -1.33251e+06
0.073724 0.0425646 0.026 -1.31919e+06
0.0769272 0.044414 0.026 -1.28344e+06
0.0802692 0.0463434 0.026 -1.26117e+06
0.0837559 0.0483565 0.026 -1.27191e+06
0.0873938 0.0504568 0.026 -1.24147e+06
0.0911892 0.0526481 0.026 -1.22577e+06
0.0951492 0.0549344 0.026 -1.23913e+06
0.0992806 0.0573198 0.026 -1.30068e+06
0.103592 0.0598086 0.026 -1.45521e+06
0.10809 0.0624052 0.026 -1.41063e+06
0.112782 0.0651144 0.026 -1.30501e+06
0.117678 0.0679412 0.026 -1.35471e+06
0.122786 0.0708904 0.026 -1.34602e+06
0.128115 0.0739676 0.026 -1.31834e+06
0.133677 0.0771782 0.026 -1.21991e+06
