# wallShearStress  FACE_DATA 317
# x  y  z  wallShearStress_x  wallShearStress_y  wallShearStress_z
-2.24217 0 0.27 -173.044 -0.322014 0
-2.12942 0 0.27 -181.526 0.000431762 0
-2.02231 0 0.27 -174.957 0.000409928 0
-1.92055 0 0.27 -169.993 0.000546636 0
-1.82389 0 0.27 -166.284 0.000486205 0
-1.73207 0 0.27 -163.257 0.000424056 0
-1.64485 0 0.27 -160.676 0.000376442 0
-1.562 0 0.27 -158.491 0.00048785 0
-1.48331 0 0.27 -156.621 0.000524584 0
-1.40856 0 0.27 -154.97 0.000537294 0
-1.33756 0 0.27 -153.51 0.000536519 0
-1.27013 0 0.27 -152.175 0.000516542 0
-1.20608 0 0.27 -150.968 0.00039186 0
-1.14539 0 0.27 -149.865 0.000495714 0
-1.08787 0 0.27 -148.866 0.000473364 0
-1.03323 0 0.27 -147.956 0.000411416 0
-0.981322 0 0.27 -147.14 0.000398325 0
-0.932014 0 0.27 -146.396 0.00036121 0
-0.885173 0 0.27 -145.725 0.000344527 0
-0.84068 0 0.27 -145.111 0.000283297 0
-0.798416 0 0.27 -144.554 0.000277757 0
-0.758473 0 0.27 -144.048 0.000272623 0
-0.720912 0 0.27 -143.59 0.000268543 0
-0.685558 0 0.27 -143.173 0.000258313 0
-0.652245 0 0.27 -142.791 0.000261396 0
-0.620811 0 0.27 -142.44 0.000378416 0
-0.591171 0 0.27 -142.116 0.000524946 0
-0.563165 0 0.27 -141.817 0.000672132 0
-0.536572 0 0.27 -141.54 0.000762644 0
-0.51125 0 0.27 -141.281 0.000768579 0
-0.487059 0 0.27 -141.04 0.000732204 0
-0.463863 0 0.27 -140.816 0.000787753 0
-0.441526 0 0.27 -140.605 0.000949342 0
-0.419915 0 0.27 -140.408 0.00119627 0
-0.398896 0 0.27 -140.22 0.00159411 0
-0.378338 0 0.27 -140.043 0.00219614 0
-0.358104 0 0.27 -139.865 0.00281434 0
-0.33806 0 0.27 -139.725 0.00321508 0
-0.318069 0 0.27 -139.862 0.00411345 0
-0.296809 0 0.27 -171.916 0.00337835 0
-0.275112 0 0.27 -139.325 0.00313137 0
-0.255001 0 0.27 -139.874 0.00315049 0
-0.23636 0 0.27 -152.294 0.00258608 -3.04143e-26
-0.219081 0 0.27 -146.956 0.00259937 1.23483e-26
-0.203066 0 0.27 -139.308 0.00232373 1.21364e-26
-0.188221 0 0.27 -138.502 0.00251951 0
-0.174462 0 0.27 -137.647 0.00227426 0
-0.161708 0 0.27 -137.564 0.00245757 0
-0.149886 0 0.27 -137.57 0.00172533 0
-0.138929 0 0.27 -137.544 0.00151431 0
-0.128773 0 0.27 -137.485 0.00157187 0
-0.119359 0 0.27 -137.45 0.00136148 0
-0.110632 0 0.27 -137.418 0.00111603 -2.10733e-28
-0.102544 0 0.27 -137.379 0.000534317 0
-0.0950472 0 0.27 -137.334 -0.000444903 0
-0.0880983 0 0.27 -137.296 -0.00147539 0
-0.0816572 0 0.27 -137.262 -0.00172377 0
-0.0756869 0 0.27 -137.219 -0.00214571 0
-0.070153 0 0.27 -135.678 -0.00512788 0
-0.0650234 0 0.27 -101.711 -0.0242634 0
-0.0602687 0 0.27 -5.52574 -0.0317444 0
-0.0558616 0 0.27 19.966 0.0432207 0
-0.0517765 0 0.27 24.608 0.0201609 1.9083e-27
-0.0479899 0 0.27 25.8279 0.0270438 -7.12931e-28
-0.04448 0 0.27 26.098 0.0274983 0
-0.0412265 0 0.27 26.2269 0.0286155 0
-0.0382106 0 0.27 26.0189 0.0240131 -7.74493e-28
-0.0354151 0 0.27 26.2901 0.0237997 0
-0.0328237 0 0.27 26.7511 0.0252475 0
-0.0304215 0 0.27 27.1956 0.0249221 0
-0.0281948 0 0.27 27.6008 0.0229009 0
-0.0261306 0 0.27 28.0208 0.0226172 0
-0.0242171 0 0.27 28.4239 0.0223666 0
-0.0224431 0 0.27 28.7935 0.022071 0
-0.0207985 0 0.27 29.1311 0.0216952 -1.27211e-27
-0.0192738 0 0.27 29.4338 0.0213189 -1.34818e-27
-0.0178602 0 0.27 29.7079 0.0209421 0
-0.0165496 0 0.27 29.9658 0.0219922 0
-0.0153345 0 0.27 30.2195 0.0215976 0
-0.0142077 0 0.27 30.4846 0.0198464 0
-0.0131629 0 0.27 30.7744 0.0208945 -1.81303e-27
-0.0121939 0 0.27 31.098 0.0206654 0
-0.0112952 0 0.27 31.464 0.0191657 0
-0.0104616 0 0.27 31.8568 0.0204499 -2.19547e-27
-0.0096884 0 0.27 32.2642 0.0208605 0
-0.00897103 0 0.27 32.679 0.0198033 -4.23379e-27
-0.00830536 0 0.27 33.095 0.0198254 1.84878e-27
-0.00768758 0 0.27 33.5062 0.0199416 2.01391e-27
-0.0071141 0 0.27 33.9165 0.0200734 -2.16947e-27
-0.00658165 0 0.27 34.3079 0.0201129 0
-0.00608714 0 0.27 34.6619 0.0201532 -7.37675e-27
-0.00562772 0 0.27 34.9783 0.0201745 2.72574e-27
-0.00520074 0 0.27 35.2526 0.0201805 5.68006e-27
-0.00480375 0 0.27 35.4839 0.020179 0
-0.00443446 0 0.27 35.6748 0.0201647 -9.99796e-27
-0.00409073 0 0.27 35.8472 0.0199994 -1.06262e-26
-0.00377059 0 0.27 35.9871 0.0199516 0
-0.00347218 0 0.27 36.0255 0.02014 1.25993e-26
-0.00319379 0 0.27 36.0182 0.01966 -4.31443e-27
-0.00293381 0 0.27 35.9996 0.0196309 4.61875e-27
-0.00269075 0 0.27 35.9245 0.0194915 0
-0.00246319 0 0.27 35.799 0.0193035 1.62025e-26
-0.00224984 0 0.27 35.6189 0.0191953 0
-0.00204945 0 0.27 35.3861 0.019034 -3.71221e-26
-0.00186089 0 0.27 35.0949 0.0190354 -5.91793e-27
-0.00168306 0 0.27 34.7517 0.0188842 1.25155e-26
-0.00151492 0 0.27 34.3499 0.0191759 -4.43032e-29
-0.00135552 0 0.27 33.8872 0.0190635 4.19537e-26
-0.00120394 0 0.27 33.3364 0.0195542 7.22807e-27
-0.00105929 0 0.27 32.6993 0.0195875 -1.52065e-26
-0.000920752 0 0.27 31.9479 0.0205195 7.97132e-27
-0.000787523 0 0.27 31.0654 0.0210066 -1.37571e-25
-0.000658834 0 0.27 29.9918 0.0226672 0
-0.000533942 0 0.27 28.582 0.0253936 1.02133e-26
-0.000412129 0 0.27 26.7737 0.0278415 -4.31389e-25
-0.000292693 0 0.27 23.8416 0.0403755 0
-0.000174943 0 0.27 20.308 0.0356273 -7.95704e-25
-5.82025e-05 0 0.27 8.25529 0.0777909 0
6.0278e-05 2.68374e-05 0.27 6.19789 2.72981 6.83429e-21
0.000182584 8.12915e-05 0.27 15.7512 7.03115 -3.28327e-21
0.000308438 0.000137325 0.27 18.6438 8.29554 1.59856e-21
0.000437939 0.000194983 0.27 21.5841 9.61164 9.9382e-27
0.00057119 0.00025431 0.27 23.9373 10.6608 -2.5122e-26
0.000708293 0.000315353 0.27 25.9175 11.5432 0
0.000849358 0.000378158 0.27 27.4624 12.2324 -2.1902e-22
0.000994492 0.000442776 0.27 28.7576 12.8103 4.76156e-22
0.00114381 0.000509256 0.27 29.8909 13.3154 0
0.00129743 0.000577649 0.27 30.8511 13.7428 0
0.00145545 0.000648007 0.27 31.7263 14.1336 0
0.00161801 0.000720386 0.27 32.5086 14.4812 6.56941e-22
0.00178523 0.000794839 0.27 33.2143 14.7943 6.54798e-28
0.00195724 0.000871423 0.27 33.8527 15.0792 -1.3274e-22
0.00213417 0.000950195 0.27 34.4433 15.3408 1.7003e-26
0.00231614 0.00103122 0.27 35.0068 15.5943 -1.05474e-21
0.0025033 0.00111455 0.27 35.5041 15.8102 -9.12699e-22
0.00269579 0.00120024 0.27 35.9484 16.01 0
0.00289374 0.00128838 0.27 36.4066 16.2133 6.25333e-22
0.00309731 0.00137901 0.27 36.8284 16.401 -7.46427e-22
0.00330663 0.00147221 0.27 37.1812 16.5569 1.05374e-27
0.00352187 0.00156804 0.27 37.5419 16.7192 3.8838e-22
0.00374317 0.00166657 0.27 37.894 16.875 -5.73e-27
0.0039707 0.00176788 0.27 38.1823 17.0018 -5.86026e-22
0.00420463 0.00187202 0.27 38.436 17.1125 -1.44427e-22
0.00444512 0.0019791 0.27 38.6917 17.2279 2.30308e-22
0.00469233 0.00208916 0.27 38.9253 17.3314 -3.55576e-28
0.00494645 0.0022023 0.27 39.1471 17.4299 -1.61491e-23
0.00520763 0.00231859 0.27 39.3434 17.5168 -2.3927e-22
0.00547608 0.00243811 0.27 39.5139 17.5936 2.47863e-22
0.00575197 0.00256094 0.27 39.6865 17.6675 1.99204e-23
0.00603549 0.00268717 0.27 39.8235 17.7286 0
0.00632683 0.00281688 0.27 39.9388 17.7785 -5.51743e-22
0.00662618 0.00295016 0.27 40.0325 17.8223 -3.8689e-27
0.00693375 0.0030871 0.27 40.0995 17.8497 -7.38811e-22
0.00724974 0.0032278 0.27 40.1561 17.8797 -6.32245e-22
0.00757435 0.00337232 0.27 40.2149 17.8996 0
0.0079078 0.00352077 0.27 40.2176 17.9019 7.67897e-22
0.00825029 0.00367327 0.27 40.2255 17.9078 -4.60114e-22
0.00860204 0.00382988 0.27 40.2408 17.914 -8.6159e-22
0.00896328 0.00399071 0.27 40.1683 17.8785 5.74845e-22
0.00933422 0.00415586 0.27 40.1089 17.8547 0
0.0097151 0.00432544 0.27 40.0316 17.8151 0
0.0101061 0.00449954 0.27 39.881 17.7658 -8.23989e-27
0.0105076 0.00467828 0.27 39.8602 17.7232 2.08275e-21
0.0109197 0.00486175 0.27 39.6222 17.6345 1.80384e-26
0.0113426 0.00505007 0.27 39.4163 17.5392 -1.35108e-27
0.0117768 0.00524333 0.27 39.3052 17.4953 -1.14559e-21
0.0122222 0.00544166 0.27 39.051 17.3773 -1.14116e-27
0.0126792 0.00564515 0.27 38.7671 17.2583 2.23163e-21
0.0131482 0.00585394 0.27 38.4786 17.127 -1.2124e-21
0.0136292 0.00606812 0.27 38.0992 16.9538 1.14964e-26
0.0141227 0.00628781 0.27 37.7912 16.8197 -1.83621e-21
0.0146288 0.00651313 0.27 37.2798 16.5911 -1.22003e-21
0.0151477 0.00674419 0.27 36.8564 16.4005 4.10733e-21
0.0156799 0.00698113 0.27 36.2678 16.1427 -2.29475e-21
0.0162254 0.00722403 0.27 35.6343 15.8561 0
0.0167847 0.00747303 0.27 34.9039 15.5471 0
0.017358 0.00772826 0.27 34.1272 15.1884 2.84001e-21
0.0179454 0.00798982 0.27 33.2473 14.804 2.21355e-21
0.0185474 0.00825783 0.27 32.2461 14.3649 0
0.0191641 0.00853242 0.27 31.0841 13.8383 -1.39127e-21
0.0197959 0.00881371 0.27 29.8289 13.2685 -1.25631e-21
0.0204431 0.00910183 0.27 28.5156 12.6896 0
0.0211057 0.00939688 0.27 27.014 12.0233 0
0.0217843 0.00969898 0.27 25.2849 11.2539 0
0.0224789 0.0100083 0.27 23.3807 10.3908 -1.58388e-26
0.02319 0.0103248 0.27 21.3118 9.56622 1.42221e-26
0.0239176 0.0106488 0.27 19.0913 8.43631 1.78019e-26
0.0246623 0.0109804 0.27 16.5291 7.35797 -1.65876e-22
0.025424 0.0113195 0.27 13.826 6.16457 -4.69308e-21
0.0262032 0.0116664 0.27 11.0469 4.91528 8.63891e-28
0.0270001 0.0120212 0.27 8.00243 3.56436 1.50842e-21
0.0278149 0.012384 0.27 4.72012 2.13148 6.22784e-27
0.0286479 0.0127549 0.27 1.37743 0.588257 3.08398e-20
0.0294992 0.0131339 0.27 -2.17596 -0.940988 -4.26218e-27
0.0303692 0.0135212 0.27 -5.82493 -2.60125 9.24479e-27
0.0312581 0.013917 0.27 -9.67237 -4.31886 -4.88668e-27
0.0321659 0.0143213 0.27 -13.5356 -6.02231 0
0.0330931 0.014734 0.27 -17.6379 -7.7425 1.89855e-20
0.0340398 0.0151555 0.27 -21.5973 -9.72884 3.30685e-20
0.0350062 0.0155858 0.27 -25.6818 -11.3665 0
0.0359924 0.0160249 0.27 -29.4378 -13.1107 -1.34494e-20
0.0369987 0.0164729 0.27 -33.0861 -14.7244 2.34041e-28
0.0380251 0.0169299 0.27 -36.8054 -16.3743 0
0.0390719 0.0173959 0.27 -40.4274 -18.0238 -1.60225e-20
0.0401391 0.0178711 0.27 -44.6467 -19.7753 4.14791e-20
0.041227 0.0183554 0.27 -48.0579 -21.388 1.48457e-26
0.0423356 0.018849 0.27 -50.7364 -22.6137 3.01882e-27
0.043465 0.0193519 0.27 -54.1551 -24.0989 -3.36103e-27
0.0446154 0.0198641 0.27 -57.4947 -25.585 -1.26913e-26
0.0457867 0.0203856 0.27 -60.9057 -27.0266 1.62806e-20
0.046979 0.0209164 0.27 -64.1095 -28.5542 -1.36517e-20
0.0481924 0.0214567 0.27 -67.6536 -30.101 -9.01629e-27
0.0494267 0.0220063 0.27 -71.0153 -31.5718 1.09143e-26
0.0506823 0.0225652 0.27 -74.7046 -33.3365 3.68878e-20
0.0519588 0.0231335 0.27 -77.7046 -34.4768 0
0.0532563 0.0237113 0.27 -80.8656 -36.1059 4.54805e-20
0.0545749 0.0242983 0.27 -84.3597 -37.538 0
0.0559142 0.0248946 0.27 -87.6232 -38.993 -1.07831e-20
0.0572744 0.0255002 0.27 -91.0678 -40.5291 0
0.0586552 0.0261149 0.27 -94.7727 -42.181 0
0.0600565 0.0267388 0.27 -98.1885 -43.6069 -5.80058e-27
0.0614781 0.0273718 0.27 -101.877 -45.437 3.38066e-27
0.0629198 0.0280137 0.27 -104.632 -46.5389 2.47187e-20
0.0643815 0.0286645 0.27 -108.381 -48.2237 -1.01684e-26
0.0658629 0.029324 0.27 -111.072 -49.4315 0
0.0673636 0.0299922 0.27 -114.864 -51.1436 -3.04861e-21
0.0688836 0.030669 0.27 -118.03 -52.5244 -2.8836e-20
0.0704223 0.0313541 0.27 -120.69 -53.7241 -3.48784e-20
0.0719795 0.0320474 0.27 -123.471 -54.9557 -1.31598e-20
0.0735549 0.0327488 0.27 -126.378 -56.29 1.61936e-20
0.075148 0.0334581 0.27 -129.328 -57.5616 -4.15926e-20
0.0767585 0.0341751 0.27 -132.428 -58.9454 -3.47359e-27
0.0783859 0.0348996 0.27 -135.256 -60.1383 2.96406e-27
0.0800297 0.0356315 0.27 -135.865 -60.5559 4.79559e-20
0.0816895 0.0363706 0.27 -139.001 -61.8813 0
0.0833647 0.0371164 0.27 -141.808 -63.1222 0
0.085055 0.0378689 0.27 -143.728 -63.9827 5.04502e-22
0.0867595 0.0386278 0.27 -147.826 -65.8243 -1.22933e-27
0.0884779 0.0393929 0.27 -149.519 -66.571 3.98499e-21
0.0902095 0.0401639 0.27 -152.64 -67.9466 1.30984e-28
0.0919538 0.0409405 0.27 -155.211 -69.1436 1.73144e-20
0.09371 0.0417224 0.27 -157.421 -70.0848 -2.77301e-21
0.0954776 0.0425094 0.27 -159.501 -71.0124 -1.7897e-27
0.0972558 0.0433011 0.27 -162.425 -72.3397 -5.19524e-21
0.0990439 0.0440972 0.27 -164.606 -73.2752 -2.14775e-20
0.100841 0.0448975 0.27 -173.612 -77.3105 -1.80085e-21
0.102647 0.0457015 0.27 -170.546 -75.9123 0
0.104461 0.046509 0.27 -180.35 -80.2776 -2.18088e-21
0.106282 0.0473197 0.27 -178.871 -79.6945 -3.25273e-20
0.108109 0.0481331 0.27 -178.374 -79.3854 0
0.109941 0.048949 0.27 -186.517 -83.0201 0
0.111779 0.0497671 0.27 -192.377 -85.8072 0
0.11362 0.0505868 0.27 -185.226 -82.4356 0
0.115464 0.051408 0.27 -191.099 -84.9484 -4.78589e-20
0.117311 0.0522302 0.27 -200.946 -89.5021 -5.45126e-20
0.11916 0.0530531 0.27 -190.376 -84.696 1.82719e-20
0.121009 0.0538763 0.27 -192.465 -85.7024 8.71345e-21
0.122857 0.0546995 0.27 -202.513 -90.1912 7.38146e-20
0.124705 0.0555223 0.27 -205.303 -91.4211 -7.56769e-20
0.126552 0.0563444 0.27 -203.436 -90.5511 3.30831e-20
0.128395 0.0571653 0.27 -200.13 -89.1447 1.33234e-21
0.130236 0.0579847 0.27 -203.784 -90.6559 -4.19754e-20
0.132072 0.0588023 0.27 -200.567 -89.3132 0
0.133904 0.0596177 0.27 -207.057 -92.1744 0
0.13573 0.0604306 0.27 -214.153 -95.3747 2.75653e-26
0.137549 0.0612407 0.27 -207.575 -92.4142 1.79946e-20
0.139361 0.0620475 0.27 -220.321 -98.0687 -5.71006e-21
0.141165 0.0628508 0.27 -205.545 -91.6368 0
0.14296 0.0636503 0.27 -206.534 -91.9385 2.83608e-20
0.144747 0.0644455 0.27 -211.093 -93.9752 0
0.146523 0.0652363 0.27 -213.838 -95.204 2.43504e-20
0.148288 0.0660222 0.27 -227.181 -101.044 -3.40509e-20
0.150042 0.0668031 0.27 -213.013 -94.8107 1.72499e-20
0.151784 0.0675785 0.27 -228.793 -101.868 0
0.153513 0.0683483 0.27 -232.033 -103.125 -8.98159e-20
0.155228 0.0691121 0.27 -220.793 -98.3374 2.97962e-26
0.15693 0.0698698 0.27 -228.494 -101.721 3.31559e-26
0.158617 0.070621 0.27 -226.928 -100.991 0
0.160289 0.0713654 0.27 -231.773 -103.214 0
0.161946 0.072103 0.27 -236.777 -105.384 0
0.163586 0.0728334 0.27 -235.17 -104.721 5.04162e-26
0.165211 0.0735564 0.27 -233.757 -104.032 1.00946e-19
0.166817 0.0742718 0.27 -234.366 -104.539 0
0.168406 0.0749795 0.27 -235.453 -104.763 -4.36162e-20
0.169978 0.0756793 0.27 -237.937 -105.99 -6.60224e-21
0.171532 0.0763709 0.27 -241.476 -107.455 8.59302e-20
0.173067 0.0770543 0.27 -239.018 -106.46 0
0.174583 0.0777293 0.27 -236.095 -105.092 0
0.17608 0.0783958 0.27 -222.098 -98.8885 0
0.177557 0.0790535 0.27 -239.593 -106.705 8.5552e-21
0.179014 0.0797025 0.27 -245.291 -109.232 3.17212e-20
0.180452 0.0803425 0.27 -228.264 -101.66 0
0.18187 0.0809736 0.27 -224.441 -100.131 0
0.183266 0.0815956 0.27 -220.88 -98.2999 2.18642e-20
0.184643 0.0822085 0.27 -224.724 -100.073 0
0.185999 0.0828122 0.27 -243.161 -108.057 0
0.187334 0.0834066 0.27 -229.391 -102.181 -5.23664e-21
0.188648 0.0839917 0.27 -248.358 -110.595 0
0.189942 0.0845675 0.27 -234.548 -104.4 1.1107e-20
0.191214 0.0851339 0.27 -247.84 -110.397 -6.10387e-20
0.192465 0.085691 0.27 -246.19 -109.639 1.12303e-21
0.193695 0.0862387 0.27 -246.798 -109.708 -6.47792e-20
0.194904 0.086777 0.27 -245.599 -109.571 0
0.196093 0.0873059 0.27 -246.269 -109.541 -4.91464e-20
0.197259 0.0878254 0.27 -246.795 -110.039 4.51924e-20
0.198405 0.0883357 0.27 -244.609 -108.763 -2.83253e-20
0.19953 0.0888366 0.27 -229.276 -102.129 0
0.200635 0.0893284 0.27 -232.585 -103.554 0
0.201718 0.0898108 0.27 -235.919 -104.831 0
0.202782 0.0902841 0.27 -231.253 -103.063 0
0.203824 0.0907483 0.27 -236.188 -105.095 0
0.204846 0.0912035 0.27 -231.963 -103.365 0
0.205848 0.0916496 0.27 -228.482 -101.739 0
0.206831 0.0920869 0.27 -227.957 -101.452 -3.46514e-20
0.207793 0.0925153 0.27 -236.746 -105.228 -2.93799e-20
0.208735 0.092935 0.27 -233.229 -103.936 6.39576e-20
0.209658 0.093346 0.27 -237.93 -105.912 0
