# p  FACE_DATA 398
# x  y  z  p
-0.7975 0 0.025 4472.59
-0.79239 0 0.025 3678.97
-0.787056 0 0.025 2937.71
-0.781492 0 0.025 2838.46
-0.775691 0 0.025 2788.31
-0.769649 0 0.025 2786.44
-0.763362 0 0.025 2812.57
-0.756822 0 0.025 2836.25
-0.750025 0 0.025 2850.26
-0.742968 0 0.025 2857.18
-0.735648 0 0.025 2860.94
-0.72806 0 0.025 2861.62
-0.720203 0 0.025 2861.62
-0.712076 0 0.025 2860.78
-0.703677 0 0.025 2860.31
-0.695006 0 0.025 2859.1
-0.686065 0 0.025 2857.65
-0.676855 0 0.025 2857.92
-0.667379 0 0.025 2853.15
-0.65764 0 0.025 2849.07
-0.647644 0 0.025 2849.46
-0.637397 0 0.025 2846.96
-0.626906 0 0.025 2842.83
-0.616179 0 0.025 2843.75
-0.605224 0 0.025 2840.31
-0.594054 0 0.025 2838.62
-0.582678 0 0.025 2835.61
-0.57111 0 0.025 2833.99
-0.559364 0 0.025 2831.43
-0.547454 0 0.025 2830.9
-0.535396 0 0.025 2828.44
-0.523205 0 0.025 2826.22
-0.510901 0 0.025 2824.18
-0.4985 0 0.025 2821.69
-0.486021 0 0.025 2821.21
-0.473483 0 0.025 2820.51
-0.460905 0 0.025 2817.9
-0.448308 0 0.025 2816.65
-0.435709 0 0.025 2815.21
-0.42313 0 0.025 2812.63
-0.41059 0 0.025 2810.72
-0.39811 0 0.025 2810.47
-0.385706 0 0.025 2810.04
-0.373398 0 0.025 2808.81
-0.361205 0 0.025 2807.28
-0.349141 0 0.025 2806.35
-0.337226 0 0.025 2805.33
-0.325475 0 0.025 2803.49
-0.313901 0 0.025 2801.72
-0.30252 0 0.025 2800.39
-0.291343 0 0.025 2799.77
-0.280382 0 0.025 2799.5
-0.269646 0 0.025 2799.51
-0.259148 0 0.025 2798.96
-0.248893 0 0.025 2798.25
-0.23889 0 0.025 2797.1
-0.229143 0 0.025 2796.03
-0.219659 0 0.025 2794.82
-0.210441 0 0.025 2793.98
-0.201491 0 0.025 2793.43
-0.192812 0 0.025 2793.26
-0.184405 0 0.025 2792.93
-0.176269 0 0.025 2792.56
-0.168404 0 0.025 2791.88
-0.160808 0 0.025 2791.34
-0.15348 0 0.025 2790.67
-0.146415 0 0.025 2789.92
-0.13961 0 0.025 2788.88
-0.133063 0 0.025 2787.7
-0.126767 0 0.025 2786.37
-0.120718 0 0.025 2785.22
-0.11491 0 0.025 2784.21
-0.109339 0 0.025 2783.45
-0.103997 0 0.025 2782.81
-0.0988805 0 0.025 2782.32
-0.0939808 0 0.025 2781.93
-0.0892928 0 0.025 2781.74
-0.0848096 0 0.025 2781.74
-0.0805248 0 0.025 2781.97
-0.0764316 0 0.025 2782.36
-0.0725237 0 0.025 2782.91
-0.0687943 0 0.025 2783.53
-0.065237 0 0.025 2784.14
-0.0618454 0 0.025 2784.74
-0.058613 0 0.025 2785.3
-0.0555337 0 0.025 2785.82
-0.0526013 0 0.025 2786.3
-0.0498099 0 0.025 2786.74
-0.0471536 0 0.025 2787.13
-0.0446266 0 0.025 2787.47
-0.0422235 0 0.025 2787.73
-0.039939 0 0.025 2787.95
-0.0377676 0 0.025 2788.09
-0.0357044 0 0.025 2788.15
-0.0337445 0 0.025 2788.37
-0.0318832 0 0.025 2787.96
-0.0301159 0 0.025 2818.15
-0.0284383 0 0.025 3300.78
-0.0268461 0 0.025 4699.16
-0.0253353 0 0.025 5975.9
-0.023902 0 0.025 6850.03
-0.0225426 0 0.025 7475.65
-0.0212532 0 0.025 7963.01
-0.0200306 0 0.025 8376.1
-0.0188715 0 0.025 8740.28
-0.0177728 0 0.025 9056.77
-0.0167313 0 0.025 9335.44
-0.0157444 0 0.025 9586.08
-0.0148092 0 0.025 9812.2
-0.0139232 0 0.025 10020.6
-0.0130838 0 0.025 10213.7
-0.0122887 0 0.025 10393.1
-0.0115356 0 0.025 10559.9
-0.0108223 0 0.025 10714.9
-0.0101469 0 0.025 10858.7
-0.00950727 0 0.025 10991.3
-0.00890168 0 0.025 11112.8
-0.00832835 0 0.025 11223.2
-0.00778557 0 0.025 11323.2
-0.00727176 0 0.025 11413.8
-0.0067854 0 0.025 11495.8
-0.00632507 0 0.025 11570.8
-0.00588937 0 0.025 11640.3
-0.00547703 0 0.025 11705.8
-0.0050868 0 0.025 11769
-0.00471753 0 0.025 11831.3
-0.0043681 0 0.025 11893.8
-0.00403746 0 0.025 11958.6
-0.00372461 0 0.025 12026.6
-0.0034286 0 0.025 12098.2
-0.00314855 0 0.025 12173.8
-0.0028836 0 0.025 12255.3
-0.00263294 0 0.025 12346.9
-0.00239581 0 0.025 12438.5
-0.0021715 0 0.025 12535.3
-0.00195929 0 0.025 12637.1
-0.00175856 0 0.025 12743.4
-0.00156869 0 0.025 12853
-0.00138908 0 0.025 12965.2
-0.0012192 0 0.025 13079.4
-0.00105853 0 0.025 13193.8
-0.000906546 0 0.025 13307
-0.000762803 0 0.025 13416
-0.000626848 0 0.025 13516.9
-0.000498265 0 0.025 13603.1
-0.000376656 0 0.025 13666.1
-0.000261642 0 0.025 13699
-0.00015287 0 0.025 13708.1
-5e-05 0 0.025 13794.4
4.14519e-05 2.79596e-05 0.025 13382.4
0.000125371 8.45641e-05 0.025 13476.6
0.000211347 0.000142556 0.025 13443.8
0.000299429 0.000201968 0.025 13377.3
0.000389669 0.000262835 0.025 13299.3
0.000482118 0.000325193 0.025 13220.1
0.000576831 0.000389077 0.025 13145.6
0.000673861 0.000454524 0.025 13079.5
0.000773265 0.000521574 0.025 13024.2
0.0008751 0.000590262 0.025 12981.4
0.000979426 0.000660632 0.025 12952.6
0.0010863 0.000732721 0.025 12933.9
0.00119579 0.000806572 0.025 12930.8
0.00130795 0.000882227 0.025 12941
0.00142285 0.00095973 0.025 12963
0.00154056 0.00103912 0.025 12996.8
0.00166115 0.00112046 0.025 13041.8
0.00178467 0.00120378 0.025 13097.8
0.00191121 0.00128913 0.025 13163.4
0.00204083 0.00137656 0.025 13239.2
0.00217362 0.00146612 0.025 13324.2
0.00230964 0.00155787 0.025 13418.7
0.00244897 0.00165185 0.025 13521.5
0.00259169 0.00174812 0.025 13633.5
0.00273789 0.00184673 0.025 13754
0.00288765 0.00194774 0.025 13883.2
0.00304105 0.00205122 0.025 14021.2
0.00319818 0.00215719 0.025 14168.1
0.00335912 0.00226575 0.025 14323.8
0.00352397 0.00237695 0.025 14488.8
0.00369283 0.00249085 0.025 14663.3
0.00386579 0.00260751 0.025 14847.6
0.00404294 0.00272699 0.025 15042.2
0.00422438 0.00284938 0.025 15247.5
0.00441022 0.00297474 0.025 15464.2
0.00460056 0.00310312 0.025 15693
0.00479552 0.00323462 0.025 15934.8
0.00499519 0.0033693 0.025 16189.9
0.00519968 0.00350723 0.025 16459.9
0.00540911 0.00364849 0.025 16745.4
0.00562361 0.00379318 0.025 17047.6
0.00584329 0.00394134 0.025 17367.8
0.00606826 0.00409309 0.025 17707.1
0.00629865 0.00424849 0.025 18067.2
0.0065346 0.00440764 0.025 18449.9
0.00677623 0.00457063 0.025 18856
0.00702368 0.00473753 0.025 19288.6
0.00727707 0.00490844 0.025 19748.9
0.00753655 0.00508347 0.025 20239.6
0.00780227 0.00526269 0.025 20763.3
0.00807436 0.00544622 0.025 21322.1
0.00835298 0.00563415 0.025 21919.6
0.00863826 0.00582659 0.025 22558.4
0.00893038 0.00602362 0.025 23241.9
0.00922949 0.00622537 0.025 23973.3
0.00953574 0.00643195 0.025 24756.8
0.00984929 0.00664345 0.025 25595.1
0.0101703 0.00686 0.025 26494.6
0.0104991 0.00708171 0.025 27457.2
0.0108356 0.00730871 0.025 28489.9
0.0111801 0.0075411 0.025 29599.2
0.0115329 0.00777902 0.025 30788.7
0.011894 0.00802259 0.025 32069.3
0.0122637 0.00827194 0.025 33453.4
0.0126421 0.00852719 0.025 34936.4
0.0130295 0.0087885 0.025 36540.4
0.013426 0.00905597 0.025 38271.3
0.013832 0.00932978 0.025 40139.5
0.0142475 0.00961003 0.025 42154.8
0.0146727 0.0098969 0.025 44324.8
0.0151081 0.0101905 0.025 46666.2
0.0155536 0.010491 0.025 49194.2
0.0160097 0.0107986 0.025 51923.2
0.0164764 0.0111134 0.025 54858.8
0.016954 0.0114356 0.025 58027.6
0.0174427 0.0117653 0.025 61435.6
0.0179429 0.0121026 0.025 65107.8
0.0184548 0.0124479 0.025 69060.3
0.0189786 0.0128013 0.025 73336.3
0.0195146 0.0131628 0.025 77984.9
0.020063 0.0135327 0.025 83047.1
0.0206242 0.0139112 0.025 88613.8
0.0211983 0.0142984 0.025 94796.5
0.0217857 0.0146947 0.025 101670
0.0223867 0.0151 0.025 109292
0.0230015 0.0155147 0.025 117624
0.0236304 0.0159389 0.025 126732
0.0242738 0.0163729 0.025 136448
0.0249318 0.0168167 0.025 146347
0.025605 0.0172708 0.025 155597
0.0262935 0.0177352 0.025 163084
0.0269977 0.0182102 0.025 167869
0.0277178 0.0186959 0.025 169630
0.0284544 0.0191927 0.025 169309
0.0292075 0.0197008 0.025 168500
0.0299777 0.0202203 0.025 165056
0.0307653 0.0207514 0.025 161760
0.0315704 0.0212945 0.025 158344
0.0323937 0.0218499 0.025 154799
0.0332354 0.0224176 0.025 151066
0.0340959 0.022998 0.025 147244
0.0349755 0.0235913 0.025 143460
0.0358747 0.0241978 0.025 140022
0.0367938 0.0248178 0.025 136981
0.0377331 0.0254513 0.025 134395
0.0386932 0.0260989 0.025 132196
0.0396743 0.0267606 0.025 130383
0.0406769 0.0274369 0.025 128910
0.0417013 0.0281279 0.025 127811
0.042748 0.0288339 0.025 127119
0.0438175 0.0295552 0.025 126709
0.04491 0.0302922 0.025 126441
0.0460262 0.031045 0.025 126167
0.0471662 0.031814 0.025 126350
0.0483306 0.0325995 0.025 126694
0.0495199 0.0334016 0.025 126933
0.0507344 0.0342208 0.025 126823
0.0519746 0.0350573 0.025 126466
0.0532409 0.0359114 0.025 126184
0.0545339 0.0367835 0.025 126765
0.0558538 0.0376739 0.025 127576
0.0572012 0.0385827 0.025 127803
0.0585766 0.0395104 0.025 127617
0.0599804 0.0404573 0.025 127174
0.061413 0.0414236 0.025 126777
0.0628748 0.0424096 0.025 127141
0.0643665 0.0434157 0.025 127613
0.0658883 0.0444422 0.025 127756
0.0674408 0.0454894 0.025 127661
0.0690245 0.0465576 0.025 127487
0.0706398 0.0476471 0.025 127802
0.0722871 0.0487582 0.025 128376
0.0739669 0.0498912 0.025 128825
0.0756797 0.0510466 0.025 128918
0.0774258 0.0522244 0.025 128850
0.0792059 0.053425 0.025 128690
0.0810203 0.0546489 0.025 128693
0.0828694 0.0558961 0.025 128808
0.0847537 0.0571671 0.025 129034
0.0866737 0.0584622 0.025 129151
0.0886298 0.0597816 0.025 129218
0.0906224 0.0611256 0.025 129212
0.0926518 0.0624944 0.025 129206
0.0947185 0.0638884 0.025 129354
0.096823 0.065308 0.025 129482
0.0989659 0.0667532 0.025 129693
0.101147 0.0682245 0.025 129693
0.103367 0.0697219 0.025 129725
0.105626 0.0712458 0.025 129633
0.107926 0.0727965 0.025 129141
0.110265 0.074374 0.025 128529
0.112644 0.0759789 0.025 127637
0.115063 0.0776111 0.025 127714
0.117524 0.0792709 0.025 127777
0.120026 0.0809585 0.025 128487
0.122569 0.0826741 0.025 129549
0.125155 0.0844179 0.025 130188
0.127782 0.0861901 0.025 130219
0.130451 0.0879908 0.025 129583
0.133163 0.08982 0.025 129229
0.135918 0.0916781 0.025 128847
0.138716 0.0935651 0.025 129093
0.141556 0.095481 0.025 129510
0.14444 0.097426 0.025 129740
0.147367 0.0994004 0.025 129077
0.150337 0.101404 0.025 129494
0.153351 0.103437 0.025 128631
0.156408 0.105498 0.025 127080
0.159508 0.107589 0.025 127647
0.162651 0.10971 0.025 126600
0.165838 0.111859 0.025 124208
0.169069 0.114039 0.025 127340
0.172343 0.116247 0.025 125355
0.175659 0.118483 0.025 124936
0.179018 0.120749 0.025 124258
0.182421 0.123045 0.025 123236
0.185866 0.125368 0.025 122788
0.189353 0.12772 0.025 122281
0.192882 0.1301 0.025 122074
0.196453 0.132509 0.025 122185
0.200065 0.134946 0.025 121560
0.203718 0.13741 0.025 121631
0.207412 0.139901 0.025 121903
0.211146 0.14242 0.025 121169
0.214919 0.144965 0.025 120520
0.218732 0.147537 0.025 121426
0.222583 0.150134 0.025 121257
0.226472 0.152757 0.025 122590
0.230399 0.155406 0.025 122073
0.234362 0.15808 0.025 121952
0.238362 0.160777 0.025 120667
0.242396 0.163498 0.025 120638
0.246466 0.166244 0.025 119936
0.250569 0.169012 0.025 120994
0.254706 0.171801 0.025 120269
0.258874 0.174613 0.025 120521
0.263074 0.177446 0.025 120178
0.267304 0.180299 0.025 120904
0.271564 0.183172 0.025 121383
0.275852 0.186064 0.025 120796
0.280168 0.188975 0.025 121311
0.28451 0.191904 0.025 120876
0.288876 0.19485 0.025 120219
0.293268 0.197812 0.025 120971
0.297683 0.20079 0.025 119842
0.302119 0.203782 0.025 119437
0.306577 0.206788 0.025 120404
0.311054 0.209808 0.025 119459
0.315549 0.212841 0.025 120111
0.320063 0.215885 0.025 119447
0.324591 0.218939 0.025 121003
0.329134 0.222003 0.025 121514
0.333691 0.225077 0.025 120959
0.33826 0.228159 0.025 121907
0.342839 0.231248 0.025 121472
0.347428 0.234343 0.025 122401
0.352025 0.237444 0.025 120963
0.356628 0.240548 0.025 121264
0.361237 0.243658 0.025 121280
0.36585 0.246769 0.025 119639
0.370465 0.249882 0.025 122052
0.375082 0.252996 0.025 120901
0.379698 0.25611 0.025 119973
0.384313 0.259223 0.025 121384
0.388926 0.262333 0.025 120514
0.393534 0.265442 0.025 120924
0.398136 0.268546 0.025 121237
0.40273 0.271645 0.025 120513
0.407317 0.274739 0.025 120378
0.411894 0.277826 0.025 119907
0.41646 0.280906 0.025 121435
0.421014 0.283977 0.025 120568
0.425554 0.28704 0.025 120323
0.430079 0.290092 0.025 120876
0.434588 0.293133 0.025 120612
0.439079 0.296162 0.025 121394
0.443551 0.299179 0.025 121032
0.448004 0.302183 0.025 120941
0.452437 0.305172 0.025 121059
0.456846 0.308146 0.025 121370
0.461232 0.311105 0.025 121250
0.465593 0.314047 0.025 121411
0.469929 0.316971 0.025 120968
0.474238 0.319878 0.025 122159
0.47852 0.322766 0.025 121820
0.482773 0.325635 0.025 121922
0.486996 0.328483 0.025 121472
0.491189 0.331311 0.025 120695
0.49535 0.334118 0.025 122013
