# wallHeatFlux  FACE_DATA 398
# x  y  z  wallHeatFlux
-0.7975 0 0.025 -653671
-0.79239 0 0.025 -120087
-0.787056 0 0.025 -71255
-0.781492 0 0.025 -63851.1
-0.775691 0 0.025 -65258
-0.769649 0 0.025 -65904.8
-0.763362 0 0.025 -66314.3
-0.756822 0 0.025 -66138.5
-0.750025 0 0.025 -65584.6
-0.742968 0 0.025 -64781.2
-0.735648 0 0.025 -63816.5
-0.72806 0 0.025 -62797.7
-0.720203 0 0.025 -61827.4
-0.712076 0 0.025 -60943.1
-0.703677 0 0.025 -60143.1
-0.695006 0 0.025 -59352.8
-0.686065 0 0.025 -58609.9
-0.676855 0 0.025 -57951.7
-0.667379 0 0.025 -57222.8
-0.65764 0 0.025 -56530.9
-0.647644 0 0.025 -55974.9
-0.637397 0 0.025 -55396
-0.626906 0 0.025 -54791.2
-0.616179 0 0.025 -54315.2
-0.605224 0 0.025 -53786.1
-0.594054 0 0.025 -53303
-0.582678 0 0.025 -52789.5
-0.57111 0 0.025 -52322.1
-0.559364 0 0.025 -51886.1
-0.547454 0 0.025 -51538.1
-0.535396 0 0.025 -51113.4
-0.523205 0 0.025 -50673.4
-0.510901 0 0.025 -50282
-0.4985 0 0.025 -49929.1
-0.486021 0 0.025 -49649.9
-0.473483 0 0.025 -49357.8
-0.460905 0 0.025 -49014.3
-0.448308 0 0.025 -48691.4
-0.435709 0 0.025 -48377.3
-0.42313 0 0.025 -48071
-0.41059 0 0.025 -47806.5
-0.39811 0 0.025 -47599.5
-0.385706 0 0.025 -47385.2
-0.373398 0 0.025 -47154.7
-0.361205 0 0.025 -46917.8
-0.349141 0 0.025 -46689.5
-0.337226 0 0.025 -46471.8
-0.325475 0 0.025 -46253.6
-0.313901 0 0.025 -46040.5
-0.30252 0 0.025 -45848.2
-0.291343 0 0.025 -45689.2
-0.280382 0 0.025 -45557
-0.269646 0 0.025 -45445.4
-0.259148 0 0.025 -45339.6
-0.248893 0 0.025 -45224.9
-0.23889 0 0.025 -45083.9
-0.229143 0 0.025 -44937
-0.219659 0 0.025 -44770.4
-0.210441 0 0.025 -44603.7
-0.201491 0 0.025 -44434.8
-0.192812 0 0.025 -44285.2
-0.184405 0 0.025 -44156.1
-0.176269 0 0.025 -44062.7
-0.168404 0 0.025 -43987.1
-0.160808 0 0.025 -43933.1
-0.15348 0 0.025 -43892.7
-0.146415 0 0.025 -43863.9
-0.13961 0 0.025 -43817.7
-0.133063 0 0.025 -43762.7
-0.126767 0 0.025 -43698
-0.120718 0 0.025 -43623.1
-0.11491 0 0.025 -43548.9
-0.109339 0 0.025 -43470
-0.103997 0 0.025 -43395.7
-0.0988805 0 0.025 -43320.1
-0.0939808 0 0.025 -43241.9
-0.0892928 0 0.025 -43175.8
-0.0848096 0 0.025 -43109.8
-0.0805248 0 0.025 -43060.3
-0.0764316 0 0.025 -43016.4
-0.0725237 0 0.025 -42988.6
-0.0687943 0 0.025 -42961.6
-0.065237 0 0.025 -42939.3
-0.0618454 0 0.025 -42923.4
-0.058613 0 0.025 -42912
-0.0555337 0 0.025 -42896.3
-0.0526013 0 0.025 -42890.7
-0.0498099 0 0.025 -42880
-0.0471536 0 0.025 -42874.7
-0.0446266 0 0.025 -42869.4
-0.0422235 0 0.025 -42864.2
-0.039939 0 0.025 -42858.9
-0.0377676 0 0.025 -42853.3
-0.0357044 0 0.025 -42848.7
-0.0337445 0 0.025 -42848.5
-0.0318832 0 0.025 -42805.7
-0.0301159 0 0.025 -41653.1
-0.0284383 0 0.025 -34758.2
-0.0268461 0 0.025 -32596.3
-0.0253353 0 0.025 -49890.1
-0.023902 0 0.025 -62071.5
-0.0225426 0 0.025 -69663.5
-0.0212532 0 0.025 -75248.4
-0.0200306 0 0.025 -80241.8
-0.0188715 0 0.025 -84674.1
-0.0177728 0 0.025 -88420.7
-0.0167313 0 0.025 -91755.3
-0.0157444 0 0.025 -94828
-0.0148092 0 0.025 -97690.7
-0.0139232 0 0.025 -100383
-0.0130838 0 0.025 -102838
-0.0122887 0 0.025 -105039
-0.0115356 0 0.025 -106982
-0.0108223 0 0.025 -108699
-0.0101469 0 0.025 -110206
-0.00950727 0 0.025 -111528
-0.00890168 0 0.025 -112701
-0.00832835 0 0.025 -113762
-0.00778557 0 0.025 -114783
-0.00727176 0 0.025 -115817
-0.0067854 0 0.025 -116901
-0.00632507 0 0.025 -118076
-0.00588937 0 0.025 -119367
-0.00547703 0 0.025 -120786
-0.0050868 0 0.025 -122339
-0.00471753 0 0.025 -124035
-0.0043681 0 0.025 -125876
-0.00403746 0 0.025 -127884
-0.00372461 0 0.025 -130038
-0.0034286 0 0.025 -132345
-0.00314855 0 0.025 -134841
-0.0028836 0 0.025 -137572
-0.00263294 0 0.025 -140428
-0.00239581 0 0.025 -143157
-0.0021715 0 0.025 -146046
-0.00195929 0 0.025 -149064
-0.00175856 0 0.025 -152172
-0.00156869 0 0.025 -155390
-0.00138908 0 0.025 -158707
-0.0012192 0 0.025 -162098
-0.00105853 0 0.025 -165562
-0.000906546 0 0.025 -169071
-0.000762803 0 0.025 -172494
-0.000626848 0 0.025 -175547
-0.000498265 0 0.025 -177382
-0.000376656 0 0.025 -176109
-0.000261642 0 0.025 -167999
-0.00015287 0 0.025 -145834
-5e-05 0 0.025 -94527.4
4.14519e-05 2.79596e-05 0.025 -67077
0.000125371 8.45641e-05 0.025 -80755.1
0.000211347 0.000142556 0.025 -96070.4
0.000299429 0.000201968 0.025 -107167
0.000389669 0.000262835 0.025 -116488
0.000482118 0.000325193 0.025 -125382
0.000576831 0.000389077 0.025 -133778
0.000673861 0.000454524 0.025 -141408
0.000773265 0.000521574 0.025 -148176
0.0008751 0.000590262 0.025 -154147
0.000979426 0.000660632 0.025 -159432
0.0010863 0.000732721 0.025 -164141
0.00119579 0.000806572 0.025 -168500
0.00130795 0.000882227 0.025 -172537
0.00142285 0.00095973 0.025 -176322
0.00154056 0.00103912 0.025 -179974
0.00166115 0.00112046 0.025 -183507
0.00178467 0.00120378 0.025 -187005
0.00191121 0.00128913 0.025 -190505
0.00204083 0.00137656 0.025 -193951
0.00217362 0.00146612 0.025 -197460
0.00230964 0.00155787 0.025 -201033
0.00244897 0.00165185 0.025 -204620
0.00259169 0.00174812 0.025 -208301
0.00273789 0.00184673 0.025 -212088
0.00288765 0.00194774 0.025 -216009
0.00304105 0.00205122 0.025 -220036
0.00319818 0.00215719 0.025 -224198
0.00335912 0.00226575 0.025 -228563
0.00352397 0.00237695 0.025 -233072
0.00369283 0.00249085 0.025 -237796
0.00386579 0.00260751 0.025 -242708
0.00404294 0.00272699 0.025 -247868
0.00422438 0.00284938 0.025 -253302
0.00441022 0.00297474 0.025 -259011
0.00460056 0.00310312 0.025 -264998
0.00479552 0.00323462 0.025 -271271
0.00499519 0.0033693 0.025 -277927
0.00519968 0.00350723 0.025 -284904
0.00540911 0.00364849 0.025 -292338
0.00562361 0.00379318 0.025 -300198
0.00584329 0.00394134 0.025 -308507
0.00606826 0.00409309 0.025 -317423
0.00629865 0.00424849 0.025 -326811
0.0065346 0.00440764 0.025 -336757
0.00677623 0.00457063 0.025 -347402
0.00702368 0.00473753 0.025 -358687
0.00727707 0.00490844 0.025 -370726
0.00753655 0.00508347 0.025 -383664
0.00780227 0.00526269 0.025 -397776
0.00807436 0.00544622 0.025 -412799
0.00835298 0.00563415 0.025 -428520
0.00863826 0.00582659 0.025 -445689
0.00893038 0.00602362 0.025 -464955
0.00922949 0.00622537 0.025 -484977
0.00953574 0.00643195 0.025 -506842
0.00984929 0.00664345 0.025 -530938
0.0101703 0.00686 0.025 -558443
0.0104991 0.00708171 0.025 -588679
0.0108356 0.00730871 0.025 -623313
0.0111801 0.0075411 0.025 -661577
0.0115329 0.00777902 0.025 -700676
0.011894 0.00802259 0.025 -747566
0.0122637 0.00827194 0.025 -791719
0.0126421 0.00852719 0.025 -837199
0.0130295 0.0087885 0.025 -880461
0.013426 0.00905597 0.025 -924553
0.013832 0.00932978 0.025 -968185
0.0142475 0.00961003 0.025 -1.01044e+06
0.0146727 0.0098969 0.025 -1.05029e+06
0.0151081 0.0101905 0.025 -1.09482e+06
0.0155536 0.010491 0.025 -1.14086e+06
0.0160097 0.0107986 0.025 -1.18735e+06
0.0164764 0.0111134 0.025 -1.23773e+06
0.016954 0.0114356 0.025 -1.29087e+06
0.0174427 0.0117653 0.025 -1.34341e+06
0.0179429 0.0121026 0.025 -1.39897e+06
0.0184548 0.0124479 0.025 -1.46456e+06
0.0189786 0.0128013 0.025 -1.50954e+06
0.0195146 0.0131628 0.025 -1.55807e+06
0.020063 0.0135327 0.025 -1.61563e+06
0.0206242 0.0139112 0.025 -1.65143e+06
0.0211983 0.0142984 0.025 -1.67689e+06
0.0217857 0.0146947 0.025 -1.70891e+06
0.0223867 0.0151 0.025 -1.7365e+06
0.0230015 0.0155147 0.025 -1.75968e+06
0.0236304 0.0159389 0.025 -1.78947e+06
0.0242738 0.0163729 0.025 -1.79073e+06
0.0249318 0.0168167 0.025 -1.80456e+06
0.025605 0.0172708 0.025 -1.81056e+06
0.0262935 0.0177352 0.025 -1.78227e+06
0.0269977 0.0182102 0.025 -1.75045e+06
0.0277178 0.0186959 0.025 -1.70986e+06
0.0284544 0.0191927 0.025 -1.72333e+06
0.0292075 0.0197008 0.025 -1.66939e+06
0.0299777 0.0202203 0.025 -1.62183e+06
0.0307653 0.0207514 0.025 -1.59228e+06
0.0315704 0.0212945 0.025 -1.56209e+06
0.0323937 0.0218499 0.025 -1.53664e+06
0.0332354 0.0224176 0.025 -1.51015e+06
0.0340959 0.022998 0.025 -1.48693e+06
0.0349755 0.0235913 0.025 -1.45377e+06
0.0358747 0.0241978 0.025 -1.45371e+06
0.0367938 0.0248178 0.025 -1.41805e+06
0.0377331 0.0254513 0.025 -1.39371e+06
0.0386932 0.0260989 0.025 -1.37476e+06
0.0396743 0.0267606 0.025 -1.35835e+06
0.0406769 0.0274369 0.025 -1.34496e+06
0.0417013 0.0281279 0.025 -1.33128e+06
0.042748 0.0288339 0.025 -1.3316e+06
0.0438175 0.0295552 0.025 -1.31928e+06
0.04491 0.0302922 0.025 -1.30772e+06
0.0460262 0.031045 0.025 -1.3094e+06
0.0471662 0.031814 0.025 -1.31834e+06
0.0483306 0.0325995 0.025 -1.30899e+06
0.0495199 0.0334016 0.025 -1.30974e+06
0.0507344 0.0342208 0.025 -1.30319e+06
0.0519746 0.0350573 0.025 -1.29885e+06
0.0532409 0.0359114 0.025 -1.30094e+06
0.0545339 0.0367835 0.025 -1.29114e+06
0.0558538 0.0376739 0.025 -1.29235e+06
0.0572012 0.0385827 0.025 -1.29232e+06
0.0585766 0.0395104 0.025 -1.29156e+06
0.0599804 0.0404573 0.025 -1.29946e+06
0.061413 0.0414236 0.025 -1.2808e+06
0.0628748 0.0424096 0.025 -1.30384e+06
0.0643665 0.0434157 0.025 -1.30519e+06
0.0658883 0.0444422 0.025 -1.27899e+06
0.0674408 0.0454894 0.025 -1.26895e+06
0.0690245 0.0465576 0.025 -1.26818e+06
0.0706398 0.0476471 0.025 -1.26385e+06
0.0722871 0.0487582 0.025 -1.26198e+06
0.0739669 0.0498912 0.025 -1.26344e+06
0.0756797 0.0510466 0.025 -1.2728e+06
0.0774258 0.0522244 0.025 -1.28312e+06
0.0792059 0.053425 0.025 -1.27484e+06
0.0810203 0.0546489 0.025 -1.29369e+06
0.0828694 0.0558961 0.025 -1.2631e+06
0.0847537 0.0571671 0.025 -1.30508e+06
0.0866737 0.0584622 0.025 -1.26586e+06
0.0886298 0.0597816 0.025 -1.26567e+06
0.0906224 0.0611256 0.025 -1.27623e+06
0.0926518 0.0624944 0.025 -1.24125e+06
0.0947185 0.0638884 0.025 -1.28262e+06
0.096823 0.065308 0.025 -1.24212e+06
0.0989659 0.0667532 0.025 -1.33042e+06
0.101147 0.0682245 0.025 -1.67642e+06
0.103367 0.0697219 0.025 -1.58612e+06
0.105626 0.0712458 0.025 -1.19789e+06
0.107926 0.0727965 0.025 -1.19326e+06
0.110265 0.074374 0.025 -1.23004e+06
0.112644 0.0759789 0.025 -1.82543e+06
0.115063 0.0776111 0.025 -1.23218e+06
0.117524 0.0792709 0.025 -1.69863e+06
0.120026 0.0809585 0.025 -1.8668e+06
0.122569 0.0826741 0.025 -1.65872e+06
0.125155 0.0844179 0.025 -1.48197e+06
0.127782 0.0861901 0.025 -1.2852e+06
0.130451 0.0879908 0.025 -1.24241e+06
0.133163 0.08982 0.025 -1.22061e+06
0.135918 0.0916781 0.025 -1.19048e+06
0.138716 0.0935651 0.025 -1.19178e+06
0.141556 0.095481 0.025 -1.2011e+06
0.14444 0.097426 0.025 -1.57815e+06
0.147367 0.0994004 0.025 -2.33708e+06
0.150337 0.101404 0.025 -1.65716e+06
0.153351 0.103437 0.025 -1.60744e+06
0.156408 0.105498 0.025 -2.24678e+06
0.159508 0.107589 0.025 -1.0199e+06
0.162651 0.10971 0.025 -1.50432e+06
0.165838 0.111859 0.025 -3.62894e+06
0.169069 0.114039 0.025 -1.60592e+06
0.172343 0.116247 0.025 -1.96834e+06
0.175659 0.118483 0.025 -1.87244e+06
0.179018 0.120749 0.025 -1.86739e+06
0.182421 0.123045 0.025 -1.93877e+06
0.185866 0.125368 0.025 -1.69821e+06
0.189353 0.12772 0.025 -1.73294e+06
0.192882 0.1301 0.025 -1.83727e+06
0.196453 0.132509 0.025 -1.73338e+06
0.200065 0.134946 0.025 -2.15186e+06
0.203718 0.13741 0.025 -1.93052e+06
0.207412 0.139901 0.025 -921240
0.211146 0.14242 0.025 -982969
0.214919 0.144965 0.025 -1.61173e+06
0.218732 0.147537 0.025 -985707
0.222583 0.150134 0.025 -1.94199e+06
0.226472 0.152757 0.025 -974610
0.230399 0.155406 0.025 -1.82069e+06
0.234362 0.15808 0.025 -1.71463e+06
0.238362 0.160777 0.025 -2.35286e+06
0.242396 0.163498 0.025 -1.93973e+06
0.246466 0.166244 0.025 -2.10181e+06
0.250569 0.169012 0.025 -926420
0.254706 0.171801 0.025 -1.52508e+06
0.258874 0.174613 0.025 -1.52883e+06
0.263074 0.177446 0.025 -1.9501e+06
0.267304 0.180299 0.025 -1.5746e+06
0.271564 0.183172 0.025 -945350
0.275852 0.186064 0.025 -1.61757e+06
0.280168 0.188975 0.025 -920489
0.28451 0.191904 0.025 -1.64245e+06
0.288876 0.19485 0.025 -2.27559e+06
0.293268 0.197812 0.025 -1.59959e+06
0.297683 0.20079 0.025 -1.91366e+06
0.302119 0.203782 0.025 -2.24438e+06
0.306577 0.206788 0.025 -1.39965e+06
0.311054 0.209808 0.025 -1.57096e+06
0.315549 0.212841 0.025 -1.16199e+06
0.320063 0.215885 0.025 -2.02021e+06
0.324591 0.218939 0.025 -1.41919e+06
0.329134 0.222003 0.025 -1.40572e+06
0.333691 0.225077 0.025 -2.21837e+06
0.33826 0.228159 0.025 -1.77516e+06
0.342839 0.231248 0.025 -1.82233e+06
0.347428 0.234343 0.025 -870815
0.352025 0.237444 0.025 -1.92521e+06
0.356628 0.240548 0.025 -1.40631e+06
0.361237 0.243658 0.025 -1.15112e+06
0.36585 0.246769 0.025 -2.57588e+06
0.370465 0.249882 0.025 -1.01661e+06
0.375082 0.252996 0.025 -1.43295e+06
0.379698 0.25611 0.025 -2.64017e+06
0.384313 0.259223 0.025 -1.37968e+06
0.388926 0.262333 0.025 -1.69948e+06
0.393534 0.265442 0.025 -1.40091e+06
0.398136 0.268546 0.025 -876863
0.40273 0.271645 0.025 -1.62337e+06
0.407317 0.274739 0.025 -1.67349e+06
0.411894 0.277826 0.025 -2.11388e+06
0.41646 0.280906 0.025 -831801
0.421014 0.283977 0.025 -1.5828e+06
0.425554 0.28704 0.025 -1.85985e+06
0.430079 0.290092 0.025 -1.47409e+06
0.434588 0.293133 0.025 -1.81753e+06
0.439079 0.296162 0.025 -1.27252e+06
0.443551 0.299179 0.025 -1.6537e+06
0.448004 0.302183 0.025 -1.68623e+06
0.452437 0.305172 0.025 -1.6453e+06
0.456846 0.308146 0.025 -1.52908e+06
0.461232 0.311105 0.025 -1.55413e+06
0.465593 0.314047 0.025 -1.44016e+06
0.469929 0.316971 0.025 -1.93868e+06
0.474238 0.319878 0.025 -987488
0.47852 0.322766 0.025 -1.10797e+06
0.482773 0.325635 0.025 -879410
0.486996 0.328483 0.025 -1.3221e+06
0.491189 0.331311 0.025 -2.01554e+06
0.49535 0.334118 0.025 -1.27988e+06
