# Wall heat-flux
# Time        	patch         	min           	max           	integral      
4000          	base	-2.211554e+05	-4.881077e+03	-1.210250e+02
