# Wall heat-flux
# Time        	patch         	min           	max           	integral      
0             	base	-1.353070e+04	3.051333e+04	3.668823e+02
