# nu  FACE_DATA 80
# x  y  z  nu
-0.275972 0 0.05 0.000103978
-0.22368 0 0.05 0.000103978
-0.181118 0 0.05 0.000103978
-0.146477 0 0.05 0.000103978
-0.118282 0 0.05 0.000103978
-0.095333 0 0.05 0.000103978
-0.0766546 0 0.05 0.000103978
-0.061452 0 0.05 0.000103978
-0.0490783 0 0.05 0.000103978
-0.0390072 0 0.05 0.000103978
-0.0308101 0 0.05 0.000103978
-0.0241383 0 0.05 0.000103978
-0.0187081 0 0.05 0.000103978
-0.0142883 0 0.05 0.000103978
-0.0106909 0 0.05 0.000103978
-0.00776298 0 0.05 0.000103978
-0.00537988 0 0.05 0.000103978
-0.00344023 0 0.05 0.000103978
-0.00186151 0 0.05 0.000103978
-0.000576564 0 0.05 0.000104313
0.000597823 0 0.05 0.000820595
0.00183445 0 0.05 0.0012417
0.00315586 0 0.05 0.0014251
0.00456785 0 0.05 0.00149842
0.00607663 0 0.05 0.00156864
0.00768885 0 0.05 0.00161264
0.00941159 0 0.05 0.00164279
0.0112524 0 0.05 0.00166633
0.0132195 0 0.05 0.00168634
0.0153213 0 0.05 0.00170735
0.0175673 0 0.05 0.00173558
0.0199673 0 0.05 0.00177145
0.0225317 0 0.05 0.00178714
0.025272 0 0.05 0.00180515
0.0282001 0 0.05 0.00181423
0.031329 0 0.05 0.00181446
0.0346723 0 0.05 0.0018131
0.0382448 0 0.05 0.00181669
0.0420623 0 0.05 0.00182074
0.0461414 0 0.05 0.00182551
0.0505002 0 0.05 0.00183218
0.0551578 0 0.05 0.00184058
0.0601347 0 0.05 0.00185061
0.0654528 0 0.05 0.00186024
0.0711354 0 0.05 0.00186951
0.0772076 0 0.05 0.00187848
0.0836961 0 0.05 0.00188759
0.0906293 0 0.05 0.00189662
0.0980379 0 0.05 0.00190509
0.105954 0 0.05 0.00191313
0.114413 0 0.05 0.00192095
0.123453 0 0.05 0.00192832
0.133111 0 0.05 0.0019351
0.143432 0 0.05 0.00194163
0.15446 0 0.05 0.00194815
0.166245 0 0.05 0.00195452
0.178837 0 0.05 0.00196061
0.192293 0 0.05 0.0019664
0.20667 0 0.05 0.00197188
0.222034 0 0.05 0.00197711
0.238451 0 0.05 0.00198211
0.255993 0 0.05 0.00198677
0.274738 0 0.05 0.00199113
0.294767 0 0.05 0.00199528
0.31617 0 0.05 0.00199918
0.33904 0 0.05 0.0020028
0.363478 0 0.05 0.00200626
0.389591 0 0.05 0.0020095
0.417495 0 0.05 0.00201243
0.447311 0 0.05 0.00201504
0.479171 0 0.05 0.0020174
0.513216 0 0.05 0.00201951
0.549594 0 0.05 0.00202139
0.588466 0 0.05 0.00202307
0.630002 0 0.05 0.00202449
0.674387 0 0.05 0.00202564
0.721814 0 0.05 0.00202649
0.772492 0 0.05 0.00202729
0.826644 0 0.05 0.00202728
0.884509 0 0.05 0.00202758
