# p  FACE_DATA 398
# x  y  z  p
-0.7975 -7.61524e-06 0 1136.76
-0.79239 -7.61524e-06 0 893.87
-0.787056 -7.61524e-06 0 734.944
-0.781492 -7.61524e-06 0 707.19
-0.775691 -7.61524e-06 0 674.34
-0.769649 -7.61524e-06 0 653.869
-0.763361 -7.61524e-06 0 643.133
-0.756822 -7.61524e-06 0 635.682
-0.750025 -7.61524e-06 0 629.382
-0.742968 -7.61524e-06 0 618.537
-0.735648 -7.61524e-06 0 612.931
-0.72806 -7.61524e-06 0 603.08
-0.720203 -7.61524e-06 0 601.66
-0.712075 -7.61524e-06 0 604.221
-0.703676 -7.61524e-06 0 607.111
-0.695006 -7.61524e-06 0 610.093
-0.686065 -7.61524e-06 0 612.638
-0.676855 -7.61524e-06 0 614.11
-0.667379 -7.61524e-06 0 614.597
-0.657641 -7.61524e-06 0 614.89
-0.647644 -7.61524e-06 0 615.186
-0.637398 -7.61524e-06 0 614.923
-0.626906 -7.61524e-06 0 614.357
-0.616179 -7.61524e-06 0 613.833
-0.605225 -7.61524e-06 0 613.064
-0.594054 -7.61524e-06 0 612.176
-0.582677 -7.61524e-06 0 611.423
-0.57111 -7.61524e-06 0 610.846
-0.559364 -7.61524e-06 0 609.998
-0.547454 -7.61524e-06 0 608.977
-0.535396 -7.61524e-06 0 607.984
-0.523205 -7.61524e-06 0 607.114
-0.510901 -7.61524e-06 0 606.134
-0.498499 -7.61524e-06 0 605.178
-0.486021 -7.61524e-06 0 604.556
-0.473482 -7.61524e-06 0 604.267
-0.460905 -7.61524e-06 0 603.65
-0.448307 -7.61524e-06 0 602.69
-0.435709 -7.61524e-06 0 601.68
-0.42313 -7.61524e-06 0 601.124
-0.41059 -7.61524e-06 0 601.181
-0.39811 -7.61524e-06 0 601.181
-0.385706 -7.61524e-06 0 600.534
-0.373398 -7.61524e-06 0 599.509
-0.361205 -7.61524e-06 0 598.433
-0.349142 -7.61524e-06 0 597.802
-0.337226 -7.61524e-06 0 597.785
-0.325475 -7.61524e-06 0 598.275
-0.313901 -7.61524e-06 0 598.417
-0.30252 -7.61524e-06 0 597.822
-0.291343 -7.61524e-06 0 596.534
-0.280381 -7.61524e-06 0 595.123
-0.269647 -7.61524e-06 0 593.862
-0.259148 -7.61524e-06 0 593.023
-0.248893 -7.61524e-06 0 592.719
-0.23889 -7.61524e-06 0 593.288
-0.229143 -7.61524e-06 0 593.986
-0.219659 -7.61524e-06 0 594.644
-0.210441 -7.61524e-06 0 595.159
-0.201491 -7.61524e-06 0 595.409
-0.192812 -7.61524e-06 0 595.45
-0.184405 -7.61524e-06 0 595.085
-0.176269 -7.61524e-06 0 594.496
-0.168404 -7.61524e-06 0 593.716
-0.160809 -7.61524e-06 0 592.794
-0.15348 -7.61524e-06 0 591.85
-0.146415 -7.61524e-06 0 590.979
-0.13961 -7.61524e-06 0 590.194
-0.133063 -7.61524e-06 0 589.539
-0.126767 -7.61524e-06 0 589.038
-0.120717 -7.61524e-06 0 588.708
-0.11491 -7.61524e-06 0 588.552
-0.109339 -7.61524e-06 0 588.51
-0.103997 -7.61524e-06 0 588.68
-0.0988804 -7.61524e-06 0 588.94
-0.0939809 -7.61524e-06 0 589.266
-0.0892928 -7.61524e-06 0 589.617
-0.0848096 -7.61524e-06 0 589.949
-0.0805248 -7.61524e-06 0 590.262
-0.0764317 -7.61524e-06 0 590.531
-0.0725237 -7.61524e-06 0 590.772
-0.0687943 -7.61524e-06 0 590.969
-0.065237 -7.61524e-06 0 591.207
-0.0618454 -7.61524e-06 0 592.969
-0.058613 -7.61524e-06 0 615.761
-0.0555337 -7.61524e-06 0 722.92
-0.0526013 -7.61524e-06 0 904.499
-0.0498099 -7.61524e-06 0 1059.07
-0.0471536 -7.61524e-06 0 1181.36
-0.0446266 -7.61524e-06 0 1276.43
-0.0422235 -7.61524e-06 0 1354.98
-0.0399389 -7.61524e-06 0 1423.55
-0.0377676 -7.61524e-06 0 1482.36
-0.0357044 -7.61524e-06 0 1534.68
-0.0337445 -7.61524e-06 0 1581.45
-0.0318832 -7.61524e-06 0 1623.25
-0.0301159 -7.61524e-06 0 1661.06
-0.0284383 -7.61524e-06 0 1695.66
-0.0268462 -7.61524e-06 0 1727.28
-0.0253353 -7.61524e-06 0 1756.41
-0.023902 -7.61524e-06 0 1783.24
-0.0225425 -7.61524e-06 0 1808.08
-0.0212532 -7.61524e-06 0 1831.03
-0.0200306 -7.61524e-06 0 1852.25
-0.0188715 -7.61524e-06 0 1871.78
-0.0177727 -7.61524e-06 0 1889.69
-0.0167313 -7.61524e-06 0 1905.99
-0.0157444 -7.61524e-06 0 1920.69
-0.0148093 -7.61524e-06 0 1933.87
-0.0139232 -7.61524e-06 0 1945.61
-0.0130838 -7.61524e-06 0 1955.99
-0.0122887 -7.61524e-06 0 1965.12
-0.0115355 -7.61524e-06 0 1973.15
-0.0108223 -7.61524e-06 0 1980.26
-0.0101469 -7.61524e-06 0 1986.6
-0.00950727 -7.61524e-06 0 1992.43
-0.00890169 -7.61524e-06 0 1997.87
-0.00832834 -7.61524e-06 0 2003.16
-0.00778557 -7.61524e-06 0 2008.47
-0.00727176 -7.61524e-06 0 2013.97
-0.00678541 -7.61524e-06 0 2019.86
-0.00632507 -7.61524e-06 0 2026.28
-0.00588937 -7.61524e-06 0 2033.33
-0.00547703 -7.61524e-06 0 2041.12
-0.00508681 -7.61524e-06 0 2049.73
-0.00471753 -7.61524e-06 0 2059.23
-0.0043681 -7.61524e-06 0 2069.74
-0.00403746 -7.61524e-06 0 2081.44
-0.00372461 -7.61524e-06 0 2093.59
-0.0034286 -7.61524e-06 0 2106.76
-0.00314855 -7.61524e-06 0 2120.71
-0.00288361 -7.61524e-06 0 2135.43
-0.00263295 -7.61524e-06 0 2150.74
-0.00239582 -7.61524e-06 0 2166.39
-0.00217149 -7.61524e-06 0 2182.25
-0.00195929 -7.61524e-06 0 2198.19
-0.00175856 -7.61524e-06 0 2214
-0.00156869 -7.61524e-06 0 2229.32
-0.00138908 -7.61524e-06 0 2243.86
-0.00121921 -7.61524e-06 0 2257.21
-0.00105853 -7.61524e-06 0 2268.96
-0.000906546 -7.61524e-06 0 2278.64
-0.000762803 -7.61524e-06 0 2285.82
-0.000626849 -7.61524e-06 0 2290.14
-0.000498266 -7.61524e-06 0 2291.61
-0.000376656 -7.61524e-06 0 2290.47
-0.000261642 -7.61524e-06 0 2287.25
-0.00015287 -7.61524e-06 0 2283.83
-5e-05 -7.61524e-06 0 2279.88
4.14596e-05 2.03453e-05 0 2266.83
0.000125379 7.69412e-05 0 2265.92
0.000211356 0.000134924 0 2261.76
0.000299438 0.000194328 0 2257.06
0.000389678 0.000255186 0 2251.5
0.000482128 0.000317535 0 2245.51
0.000576841 0.000381409 0 2239.17
0.000673871 0.000446848 0 2232.58
0.000773276 0.000513887 0 2225.84
0.000875112 0.000582565 0 2219.03
0.000979439 0.000652924 0 2212.27
0.00108632 0.000725003 0 2205.66
0.00119581 0.000798843 0 2199.32
0.00130797 0.000874487 0 2193.36
0.00142287 0.000951979 0 2187.89
0.00154058 0.00103136 0 2182.96
0.00166117 0.00111268 0 2178.76
0.00178469 0.00119599 0 2175.26
0.00191123 0.00128133 0 2172.57
0.00204085 0.00136875 0 2170.79
0.00217364 0.0014583 0 2169.73
0.00230966 0.00155003 0 2169.75
0.00244899 0.001644 0 2170.78
0.00259171 0.00174025 0 2172.75
0.00273791 0.00183885 0 2175.68
0.00288767 0.00193985 0 2179.64
0.00304108 0.0020433 0 2184.59
0.0031982 0.00214927 0 2190.56
0.00335915 0.00225781 0 2197.49
0.003524 0.002369 0 2205.38
0.00369286 0.00248287 0 2214.31
0.00386582 0.00259951 0 2224.22
0.00404297 0.00271899 0 2235.16
0.00422442 0.00284136 0 2247.1
0.00441026 0.00296669 0 2260.07
0.0046006 0.00309506 0 2274.06
0.00479556 0.00322653 0 2289.1
0.00499523 0.00336119 0 2305.18
0.00519972 0.00349911 0 2322.35
0.00540916 0.00364036 0 2340.64
0.00562366 0.00378501 0 2360.07
0.00584334 0.00393316 0 2380.66
0.00606831 0.00408489 0 2402.49
0.00629871 0.00424027 0 2425.56
0.00653466 0.0043994 0 2449.96
0.00677629 0.00456236 0 2475.73
0.00702374 0.00472923 0 2502.95
0.00727714 0.00490013 0 2531.65
0.00753663 0.00507513 0 2561.99
0.00780234 0.00525433 0 2593.98
0.00807444 0.00543783 0 2627.76
0.00835306 0.00562573 0 2663.46
0.00863835 0.00581814 0 2701.16
0.00893047 0.00601514 0 2741.01
0.00922958 0.00621687 0 2783.15
0.00953584 0.00642341 0 2827.78
0.00984939 0.00663489 0 2874.96
0.0101705 0.00685141 0 2925.08
0.0104992 0.00707309 0 2978.16
0.0108357 0.00730005 0 3034.45
0.0111802 0.00753241 0 3094.33
0.011533 0.0077703 0 3157.93
0.0118941 0.00801384 0 3225.64
0.0122638 0.00826316 0 3297.76
0.0126422 0.00851837 0 3374.5
0.0130296 0.00877964 0 3456.46
0.0134262 0.00904708 0 3543.81
0.0138321 0.00932084 0 3637.25
0.0142476 0.00960107 0 3737
0.0146729 0.00988792 0 3843.81
0.0151082 0.0101815 0 3958.18
0.0155538 0.0104819 0 4080.82
0.0160098 0.0107895 0 4212.36
0.0164766 0.0111042 0 4353.71
0.0169542 0.0114263 0 4505.76
0.0174429 0.011756 0 4669.44
0.0179431 0.0120934 0 4846.11
0.018455 0.0124386 0 5036.69
0.0189789 0.0127918 0 5242.87
0.0195149 0.0131533 0 5465.96
0.0200633 0.0135232 0 5707.83
0.0206245 0.0139016 0 5970.01
0.0211986 0.0142888 0 6253.98
0.0217861 0.014685 0 6561.97
0.022387 0.0150903 0 6895.02
0.0230018 0.0155049 0 7256.47
0.0236307 0.0159291 0 7648.36
0.0242741 0.0163629 0 8074.07
0.0249322 0.0168068 0 8537.02
0.0256053 0.0172608 0 9040.93
0.0262939 0.0177251 0 9590.17
0.0269981 0.0182 0 10188.2
0.0277183 0.0186857 0 10839
0.0284548 0.0191825 0 11545
0.029208 0.0196904 0 12306.3
0.0299782 0.0202098 0 13126.7
0.0307658 0.0207409 0 14004.1
0.031571 0.021284 0 14929.9
0.0323942 0.0218393 0 15886.8
0.033236 0.0224069 0 16861.3
0.0340965 0.0229872 0 17840.6
0.0349762 0.0235805 0 18813.5
0.0358753 0.0241869 0 19768.7
0.0367944 0.0248067 0 20697.6
0.0377338 0.0254403 0 21573.8
0.0386938 0.0260877 0 22345.7
0.039675 0.0267494 0 22966.3
0.0406776 0.0274256 0 23279.9
0.0417021 0.0281165 0 23705.6
0.0427488 0.0288225 0 22769.4
0.0438183 0.0295437 0 21823.1
0.0449109 0.0302805 0 20834.2
0.046027 0.0310332 0 19822.1
0.0471671 0.0318021 0 18843.6
0.0483315 0.0325874 0 17978.1
0.0495209 0.0333895 0 17275.1
0.0507354 0.0342086 0 16717.4
0.0519756 0.035045 0 16268.8
0.053242 0.0358991 0 15886.3
0.054535 0.036771 0 15550.2
0.0558549 0.0376613 0 15278.4
0.0572024 0.03857 0 15092.1
0.0585778 0.0394976 0 14965.9
0.0599816 0.0404443 0 14865.6
0.0614142 0.0414105 0 14779
0.0628761 0.0423964 0 14731.3
0.0643678 0.0434024 0 14742.8
0.0658897 0.0444287 0 14792.8
0.0674422 0.0454758 0 14836.3
0.069026 0.0465439 0 14829
0.0706413 0.0476333 0 14783.6
0.0722886 0.0487443 0 14728.4
0.0739685 0.0498771 0 14679.1
0.0756813 0.0510323 0 14657.1
0.0774275 0.05221 0 14680.2
0.0792077 0.0534105 0 14712
0.0810221 0.0546342 0 14734.1
0.0828712 0.0558812 0 14742.1
0.0847556 0.0571521 0 14724.6
0.0866757 0.058447 0 14680
0.0886318 0.0597661 0 14617.2
0.0906244 0.06111 0 14553.2
0.0926539 0.0624787 0 14510.8
0.0947207 0.0638726 0 14490.9
0.0968252 0.0652919 0 14532.7
0.0989682 0.066737 0 14576
0.101149 0.068208 0 14601.5
0.103369 0.0697052 0 14613.9
0.105629 0.0712289 0 14608.5
0.107928 0.0727794 0 14616.9
0.110267 0.0743568 0 14610
0.112646 0.0759614 0 14583.2
0.115066 0.0775934 0 14534.4
0.117527 0.079253 0 14496.2
0.120029 0.0809404 0 14478.2
0.122572 0.0826558 0 14471.5
0.125158 0.0843994 0 14453.5
0.127785 0.0861713 0 14440.4
0.130454 0.0879717 0 14422
0.133167 0.0898008 0 14420.5
0.135921 0.0916586 0 14400.3
0.138719 0.0935453 0 14376.3
0.141559 0.095461 0 14343.1
0.144443 0.0974057 0 14331.2
0.14737 0.0993798 0 14336
0.15034 0.101383 0 14326.1
0.153354 0.103415 0 14391.7
0.156411 0.105477 0 14438.7
0.159511 0.107568 0 14450.6
0.162655 0.109688 0 14435.4
0.165842 0.111837 0 14366.2
0.169073 0.114016 0 14295.8
0.172346 0.116223 0 14278
0.175663 0.118461 0 14281.1
0.179022 0.120727 0 14270.6
0.182425 0.123021 0 14346.6
0.18587 0.125344 0 14384.4
0.189357 0.127696 0 14399.2
0.192886 0.130076 0 14377.5
0.196457 0.132484 0 14307
0.200069 0.13492 0 14252.8
0.203722 0.137384 0 14240.2
0.207416 0.139875 0 14273
0.21115 0.142393 0 14291.5
0.214924 0.144938 0 14294.2
0.218736 0.147509 0 14248.5
0.222587 0.150107 0 14231.9
0.226476 0.152729 0 14237.8
0.230403 0.155377 0 14247.5
0.234366 0.15805 0 14215.6
0.238366 0.160748 0 14156.6
0.242401 0.163469 0 14102.3
0.24647 0.166214 0 14081.9
0.250573 0.168981 0 14094.5
0.25471 0.17177 0 14095.7
0.258878 0.174582 0 14037.1
0.263078 0.177414 0 14007.2
0.267309 0.180266 0 13982.7
0.271568 0.183139 0 14055.2
0.275856 0.186031 0 14081.6
0.280172 0.188942 0 14094.9
0.284514 0.19187 0 14017.7
0.288881 0.194815 0 13951.8
0.293272 0.197777 0 13897.4
0.297687 0.200754 0 13869.3
0.302124 0.203746 0 13905.7
0.306581 0.206752 0 13916.1
0.311058 0.209772 0 13900.5
0.315554 0.212804 0 13889
0.320067 0.215847 0 13875.3
0.324595 0.218901 0 13948
0.329138 0.221965 0 13991.5
0.333695 0.225038 0 14007.8
0.338264 0.228119 0 13977.9
0.342843 0.231208 0 13902.9
0.347432 0.234302 0 13843.7
0.352029 0.237402 0 13816.2
0.356632 0.240507 0 13873.9
0.361241 0.243616 0 13924.9
0.365854 0.246727 0 13937
0.370469 0.249839 0 13917.7
0.375085 0.252953 0 13862.9
0.379702 0.256066 0 13808.5
0.384317 0.259178 0 13817.7
0.388929 0.262289 0 13874.6
0.393537 0.265396 0 13962.3
0.398139 0.2685 0 14024.2
0.402734 0.271598 0 14039.6
0.407321 0.274692 0 13972.8
0.411898 0.277779 0 13879.6
0.416464 0.280858 0 13788.9
0.421017 0.283929 0 13729.5
0.425557 0.286991 0 13766.6
0.430082 0.290042 0 13876.8
0.434591 0.293083 0 13968.8
0.439082 0.296112 0 14028.7
0.443555 0.299128 0 14028.5
0.448008 0.302131 0 13955.4
0.45244 0.30512 0 13844.1
0.456849 0.308094 0 13727.4
0.461235 0.311052 0 13675.2
0.465596 0.313993 0 13698
0.469932 0.316917 0 13812.4
0.474241 0.319823 0 13949.2
0.478523 0.322711 0 14064.6
0.482776 0.325579 0 14131.6
0.486999 0.328427 0 14123.3
0.491191 0.331254 0 14029
0.495353 0.334061 0 13880.3
