# wallHeatFlux  FACE_DATA 398
# x  y  z  wallHeatFlux
-0.7975 -7.61524e-06 0 -177986
-0.79239 -7.61524e-06 0 -35259.9
-0.787056 -7.61524e-06 0 -21454.3
-0.781492 -7.61524e-06 0 -17060.8
-0.775691 -7.61524e-06 0 -14341.4
-0.769649 -7.61524e-06 0 -12591.2
-0.763361 -7.61524e-06 0 -11390.9
-0.756822 -7.61524e-06 0 -10471
-0.750025 -7.61524e-06 0 -9774.29
-0.742968 -7.61524e-06 0 -9221.37
-0.735648 -7.61524e-06 0 -9364.78
-0.72806 -7.61524e-06 0 -9982.18
-0.720203 -7.61524e-06 0 -11101.3
-0.712075 -7.61524e-06 0 -12168.8
-0.703676 -7.61524e-06 0 -12933.5
-0.695006 -7.61524e-06 0 -13448.4
-0.686065 -7.61524e-06 0 -13798.5
-0.676855 -7.61524e-06 0 -14004.7
-0.667379 -7.61524e-06 0 -14109.6
-0.657641 -7.61524e-06 0 -14155.8
-0.647644 -7.61524e-06 0 -14158.7
-0.637398 -7.61524e-06 0 -14118.4
-0.626906 -7.61524e-06 0 -14051.8
-0.616179 -7.61524e-06 0 -13973.2
-0.605225 -7.61524e-06 0 -13878.6
-0.594054 -7.61524e-06 0 -13783.6
-0.582677 -7.61524e-06 0 -13687.6
-0.57111 -7.61524e-06 0 -13591.1
-0.559364 -7.61524e-06 0 -13494.4
-0.547454 -7.61524e-06 0 -13396.8
-0.535396 -7.61524e-06 0 -13298.8
-0.523205 -7.61524e-06 0 -13205.1
-0.510901 -7.61524e-06 0 -13116.7
-0.498499 -7.61524e-06 0 -13027.2
-0.486021 -7.61524e-06 0 -12953.5
-0.473482 -7.61524e-06 0 -12889.9
-0.460905 -7.61524e-06 0 -12820.2
-0.448307 -7.61524e-06 0 -12744.8
-0.435709 -7.61524e-06 0 -12669
-0.42313 -7.61524e-06 0 -12608.4
-0.41059 -7.61524e-06 0 -12563.8
-0.39811 -7.61524e-06 0 -12518.6
-0.385706 -7.61524e-06 0 -12467.6
-0.373398 -7.61524e-06 0 -12400.4
-0.361205 -7.61524e-06 0 -12338.4
-0.349142 -7.61524e-06 0 -12291.8
-0.337226 -7.61524e-06 0 -12256.1
-0.325475 -7.61524e-06 0 -12230.8
-0.313901 -7.61524e-06 0 -12205.6
-0.30252 -7.61524e-06 0 -12163.9
-0.291343 -7.61524e-06 0 -12106.5
-0.280381 -7.61524e-06 0 -12049.1
-0.269647 -7.61524e-06 0 -11991.5
-0.259148 -7.61524e-06 0 -11950.1
-0.248893 -7.61524e-06 0 -11919.9
-0.23889 -7.61524e-06 0 -11911.3
-0.229143 -7.61524e-06 0 -11902.5
-0.219659 -7.61524e-06 0 -11894.1
-0.210441 -7.61524e-06 0 -11885.7
-0.201491 -7.61524e-06 0 -11872.8
-0.192812 -7.61524e-06 0 -11859.3
-0.184405 -7.61524e-06 0 -11836.3
-0.176269 -7.61524e-06 0 -11807.5
-0.168404 -7.61524e-06 0 -11773.7
-0.160809 -7.61524e-06 0 -11740.1
-0.15348 -7.61524e-06 0 -11701.8
-0.146415 -7.61524e-06 0 -11674.5
-0.13961 -7.61524e-06 0 -11641.6
-0.133063 -7.61524e-06 0 -11614.4
-0.126767 -7.61524e-06 0 -11592.9
-0.120717 -7.61524e-06 0 -11576.8
-0.11491 -7.61524e-06 0 -11560.9
-0.109339 -7.61524e-06 0 -11550.6
-0.103997 -7.61524e-06 0 -11540.1
-0.0988804 -7.61524e-06 0 -11535.9
-0.0939809 -7.61524e-06 0 -11536.5
-0.0892928 -7.61524e-06 0 -11537.4
-0.0848096 -7.61524e-06 0 -11538.3
-0.0805248 -7.61524e-06 0 -11539.4
-0.0764317 -7.61524e-06 0 -11535.2
-0.0725237 -7.61524e-06 0 -11536.3
-0.0687943 -7.61524e-06 0 -11537.7
-0.065237 -7.61524e-06 0 -11538.9
-0.0618454 -7.61524e-06 0 -11492.2
-0.058613 -7.61524e-06 0 -11043.8
-0.0555337 -7.61524e-06 0 -9530.09
-0.0526013 -7.61524e-06 0 -7405.44
-0.0498099 -7.61524e-06 0 -7427.78
-0.0471536 -7.61524e-06 0 -9180.12
-0.0446266 -7.61524e-06 0 -10536.5
-0.0422235 -7.61524e-06 0 -11657.5
-0.0399389 -7.61524e-06 0 -12602
-0.0377676 -7.61524e-06 0 -13369.8
-0.0357044 -7.61524e-06 0 -14063.1
-0.0337445 -7.61524e-06 0 -14681.2
-0.0318832 -7.61524e-06 0 -15235.2
-0.0301159 -7.61524e-06 0 -15746.4
-0.0284383 -7.61524e-06 0 -16214.9
-0.0268462 -7.61524e-06 0 -16646
-0.0253353 -7.61524e-06 0 -17028.9
-0.023902 -7.61524e-06 0 -17369
-0.0225425 -7.61524e-06 0 -17671.4
-0.0212532 -7.61524e-06 0 -17921
-0.0200306 -7.61524e-06 0 -18132.4
-0.0188715 -7.61524e-06 0 -18306.5
-0.0177727 -7.61524e-06 0 -18453.8
-0.0167313 -7.61524e-06 0 -18574.4
-0.0157444 -7.61524e-06 0 -18689.7
-0.0148093 -7.61524e-06 0 -18804.8
-0.0139232 -7.61524e-06 0 -18931.8
-0.0130838 -7.61524e-06 0 -19073.5
-0.0122887 -7.61524e-06 0 -19238.5
-0.0115355 -7.61524e-06 0 -19434.6
-0.0108223 -7.61524e-06 0 -19663.6
-0.0101469 -7.61524e-06 0 -19925.1
-0.00950727 -7.61524e-06 0 -20224.5
-0.00890169 -7.61524e-06 0 -20561.9
-0.00832834 -7.61524e-06 0 -20931.9
-0.00778557 -7.61524e-06 0 -21340.1
-0.00727176 -7.61524e-06 0 -21781.2
-0.00678541 -7.61524e-06 0 -22254.9
-0.00632507 -7.61524e-06 0 -22756.7
-0.00588937 -7.61524e-06 0 -23280.6
-0.00547703 -7.61524e-06 0 -23832.5
-0.00508681 -7.61524e-06 0 -24401.8
-0.00471753 -7.61524e-06 0 -24983.5
-0.0043681 -7.61524e-06 0 -25577.4
-0.00403746 -7.61524e-06 0 -26168
-0.00372461 -7.61524e-06 0 -26745
-0.0034286 -7.61524e-06 0 -27324.9
-0.00314855 -7.61524e-06 0 -27891.8
-0.00288361 -7.61524e-06 0 -28436.6
-0.00263295 -7.61524e-06 0 -28953.7
-0.00239582 -7.61524e-06 0 -29434.5
-0.00217149 -7.61524e-06 0 -29852.6
-0.00195929 -7.61524e-06 0 -30226.7
-0.00175856 -7.61524e-06 0 -30531.9
-0.00156869 -7.61524e-06 0 -30678.1
-0.00138908 -7.61524e-06 0 -30690.7
-0.00121921 -7.61524e-06 0 -30523
-0.00105853 -7.61524e-06 0 -30119.9
-0.000906546 -7.61524e-06 0 -29427.3
-0.000762803 -7.61524e-06 0 -28379.8
-0.000626849 -7.61524e-06 0 -26911
-0.000498266 -7.61524e-06 0 -24972.3
-0.000376656 -7.61524e-06 0 -22532
-0.000261642 -7.61524e-06 0 -19530.7
-0.00015287 -7.61524e-06 0 -15793.7
-5e-05 -7.61524e-06 0 -10785.4
4.14596e-05 2.03453e-05 0 -10108.2
0.000125379 7.69412e-05 0 -12701.7
0.000211356 0.000134924 0 -14108.7
0.000299438 0.000194328 0 -15213.2
0.000389678 0.000255186 0 -16223.9
0.000482128 0.000317535 0 -17192.9
0.000576841 0.000381409 0 -18137.9
0.000673871 0.000446848 0 -19069.7
0.000773276 0.000513887 0 -19987.6
0.000875112 0.000582565 0 -20886.4
0.000979439 0.000652924 0 -21759.9
0.00108632 0.000725003 0 -22601.9
0.00119581 0.000798843 0 -23413.5
0.00130797 0.000874487 0 -24197.8
0.00142287 0.000951979 0 -24947.2
0.00154058 0.00103136 0 -25659.9
0.00166117 0.00111268 0 -26340.1
0.00178469 0.00119599 0 -26994.5
0.00191123 0.00128133 0 -27613.9
0.00204085 0.00136875 0 -28210.4
0.00217364 0.0014583 0 -28778.4
0.00230966 0.00155003 0 -29328.1
0.00244899 0.001644 0 -29856.8
0.00259171 0.00174025 0 -30371.2
0.00273791 0.00183885 0 -30875.9
0.00288767 0.00193985 0 -31368.5
0.00304108 0.0020433 0 -31850.6
0.0031982 0.00214927 0 -32328.1
0.00335915 0.00225781 0 -32799
0.003524 0.002369 0 -33264.6
0.00369286 0.00248287 0 -33739.9
0.00386582 0.00259951 0 -34211
0.00404297 0.00271899 0 -34693.9
0.00422442 0.00284136 0 -35176
0.00441026 0.00296669 0 -35670.5
0.0046006 0.00309506 0 -36171
0.00479556 0.00322653 0 -36687.4
0.00499523 0.00336119 0 -37212.8
0.00519972 0.00349911 0 -37760.1
0.00540916 0.00364036 0 -38318.1
0.00562366 0.00378501 0 -38897.2
0.00584334 0.00393316 0 -39497.8
0.00606831 0.00408489 0 -40119.5
0.00629871 0.00424027 0 -40767.7
0.00653466 0.0043994 0 -41437.3
0.00677629 0.00456236 0 -42142.3
0.00702374 0.00472923 0 -42873.6
0.00727714 0.00490013 0 -43638.2
0.00753663 0.00507513 0 -44441
0.00780234 0.00525433 0 -45284.6
0.00807444 0.00543783 0 -46166.8
0.00835306 0.00562573 0 -47093.8
0.00863835 0.00581814 0 -48071.7
0.00893047 0.00601514 0 -49099.7
0.00922958 0.00621687 0 -50188.3
0.00953584 0.00642341 0 -51327.8
0.00984939 0.00663489 0 -52555.8
0.0101705 0.00685141 0 -53823.4
0.0104992 0.00707309 0 -55175
0.0108357 0.00730005 0 -56618.6
0.0111802 0.00753241 0 -58150.2
0.011533 0.0077703 0 -59759.1
0.0118941 0.00801384 0 -61481
0.0122638 0.00826316 0 -63305.3
0.0126422 0.00851837 0 -65232.3
0.0130296 0.00877964 0 -67315.6
0.0134262 0.00904708 0 -69511.3
0.0138321 0.00932084 0 -71842.6
0.0142476 0.00960107 0 -74340.2
0.0146729 0.00988792 0 -77021.4
0.0151082 0.0101815 0 -79871.8
0.0155538 0.0104819 0 -82913.7
0.0160098 0.0107895 0 -86198.6
0.0164766 0.0111042 0 -89720.8
0.0169542 0.0114263 0 -93463.3
0.0174429 0.011756 0 -97560.5
0.0179431 0.0120934 0 -101908
0.018455 0.0124386 0 -106659
0.0189789 0.0127918 0 -111775
0.0195149 0.0131533 0 -117316
0.0200633 0.0135232 0 -123348
0.0206245 0.0139016 0 -129885
0.0211986 0.0142888 0 -136908
0.0217861 0.014685 0 -144474
0.022387 0.0150903 0 -152582
0.0230018 0.0155049 0 -161274
0.0236307 0.0159291 0 -170568
0.0242741 0.0163629 0 -180584
0.0249322 0.0168068 0 -191384
0.0256053 0.0172608 0 -203086
0.0262939 0.0177251 0 -215722
0.0269981 0.0182 0 -229280
0.0277183 0.0186857 0 -244040
0.0284548 0.0191825 0 -259974
0.029208 0.0196904 0 -277087
0.0299782 0.0202098 0 -295004
0.0307658 0.0207409 0 -314113
0.031571 0.021284 0 -333855
0.0323942 0.0218393 0 -354155
0.033236 0.0224069 0 -374128
0.0340965 0.0229872 0 -393487
0.0349762 0.0235805 0 -411755
0.0358753 0.0241869 0 -429451
0.0367944 0.0248067 0 -445104
0.0377338 0.0254403 0 -459150
0.0386938 0.0260877 0 -469590
0.039675 0.0267494 0 -475807
0.0406776 0.0274256 0 -476287
0.0417021 0.0281165 0 -473216
0.0427488 0.0288225 0 -444801
0.0438183 0.0295437 0 -415827
0.0449109 0.0302805 0 -386619
0.046027 0.0310332 0 -358639
0.0471671 0.0318021 0 -333249
0.0483315 0.0325874 0 -311696
0.0495209 0.0333895 0 -293835
0.0507354 0.0342086 0 -279653
0.0519756 0.035045 0 -267899
0.053242 0.0358991 0 -257406
0.054535 0.036771 0 -248339
0.0558549 0.0376613 0 -240630
0.0572024 0.03857 0 -234746
0.0585778 0.0394976 0 -229927
0.0599816 0.0404443 0 -225983
0.0614142 0.0414105 0 -221786
0.0628761 0.0423964 0 -219385
0.0643678 0.0434024 0 -217167
0.0658897 0.0444287 0 -215405
0.0674422 0.0454758 0 -213931
0.069026 0.0465439 0 -211483
0.0706413 0.0476333 0 -208722
0.0722886 0.0487443 0 -206078
0.0739685 0.0498771 0 -203313
0.0756813 0.0510323 0 -200648
0.0774275 0.05221 0 -199412
0.0792077 0.0534105 0 -198319
0.0810221 0.0546342 0 -196417
0.0828712 0.0558812 0 -194961
0.0847556 0.0571521 0 -193142
0.0866757 0.058447 0 -190808
0.0886318 0.0597661 0 -188170
0.0906244 0.06111 0 -185577
0.0926539 0.0624787 0 -183491
0.0947207 0.0638726 0 -182124
0.0968252 0.0652919 0 -181252
0.0989682 0.066737 0 -179341
0.101149 0.068208 0 -178046
0.103369 0.0697052 0 -176576
0.105629 0.0712289 0 -177351
0.107928 0.0727794 0 -174936
0.110267 0.0743568 0 -174002
0.112646 0.0759614 0 -170822
0.115066 0.0775934 0 -171316
0.117527 0.079253 0 -167324
0.120029 0.0809404 0 -166019
0.122572 0.0826558 0 -164944
0.125158 0.0843994 0 -163751
0.127785 0.0861713 0 -163601
0.130454 0.0879717 0 -162957
0.133167 0.0898008 0 -161529
0.135921 0.0916586 0 -159929
0.138719 0.0935453 0 -158256
0.141559 0.095461 0 -157813
0.144443 0.0974057 0 -154188
0.14737 0.0993798 0 -151156
0.15034 0.101383 0 -151499
0.153354 0.103415 0 -151205
0.156411 0.105477 0 -150368
0.159511 0.107568 0 -151875
0.162655 0.109688 0 -148211
0.165842 0.111837 0 -147549
0.169073 0.114016 0 -149880
0.172346 0.116223 0 -143940
0.175663 0.118461 0 -142628
0.179022 0.120727 0 -147797
0.182425 0.123021 0 -142130
0.18587 0.125344 0 -140384
0.189357 0.127696 0 -141247
0.192886 0.130076 0 -140961
0.196457 0.132484 0 -142218
0.200069 0.13492 0 -140056
0.203722 0.137384 0 -136009
0.207416 0.139875 0 -135703
0.21115 0.142393 0 -136926
0.214924 0.144938 0 -135565
0.218736 0.147509 0 -135808
0.222587 0.150107 0 -132415
0.226476 0.152729 0 -132161
0.230403 0.155377 0 -131954
0.234366 0.15805 0 -131148
0.238366 0.160748 0 -129249
0.242401 0.163469 0 -131838
0.24647 0.166214 0 -129857
0.250573 0.168981 0 -127367
0.25471 0.17177 0 -126652
0.258878 0.174582 0 -127260
0.263078 0.177414 0 -125404
0.267309 0.180266 0 -132421
0.271568 0.183139 0 -123475
0.275856 0.186031 0 -124026
0.280172 0.188942 0 -124433
0.284514 0.19187 0 -130621
0.288881 0.194815 0 -124343
0.293272 0.197777 0 -120664
0.297687 0.200754 0 -127114
0.302124 0.203746 0 -119968
0.306581 0.206752 0 -119813
0.311058 0.209772 0 -119115
0.315554 0.212804 0 -119742
0.320067 0.215847 0 -128214
0.324595 0.218901 0 -119387
0.329138 0.221965 0 -119246
0.333695 0.225038 0 -118703
0.338264 0.228119 0 -117835
0.342843 0.231208 0 -117350
0.347432 0.234302 0 -115986
0.352029 0.237402 0 -117229
0.356632 0.240507 0 -116163
0.361241 0.243616 0 -115102
0.365854 0.246727 0 -115540
0.370469 0.249839 0 -117341
0.375085 0.252953 0 -118146
0.379702 0.256066 0 -114774
0.384317 0.259178 0 -114763
0.388929 0.262289 0 -114565
0.393537 0.265396 0 -113656
0.398139 0.2685 0 -114511
0.402734 0.271598 0 -114702
0.407321 0.274692 0 -112531
0.411898 0.277779 0 -111784
0.416464 0.280858 0 -111644
0.421017 0.283929 0 -112132
0.425557 0.286991 0 -114741
0.430082 0.290042 0 -113605
0.434591 0.293083 0 -118357
0.439082 0.296112 0 -110184
0.443555 0.299128 0 -115557
0.448008 0.302131 0 -111873
0.45244 0.30512 0 -110873
0.456849 0.308094 0 -120742
0.461235 0.311052 0 -114412
0.465596 0.313993 0 -113312
0.469932 0.316917 0 -107610
0.474241 0.319823 0 -109662
0.478523 0.322711 0 -110425
0.482776 0.325579 0 -109614
0.486999 0.328427 0 -111105
0.491191 0.331254 0 -120053
0.495353 0.334061 0 -102247
