# wallHeatFlux  FACE_DATA 398
# x  y  z  wallHeatFlux
-0.7975 -7.61524e-06 0 -177986
-0.79239 -7.61524e-06 0 -35259.9
-0.787056 -7.61524e-06 0 -21449
-0.781492 -7.61524e-06 0 -17060.8
-0.775691 -7.61524e-06 0 -14341.4
-0.769649 -7.61524e-06 0 -12607.1
-0.763361 -7.61524e-06 0 -11428.1
-0.756822 -7.61524e-06 0 -10556
-0.750025 -7.61524e-06 0 -9885.9
-0.742968 -7.61524e-06 0 -9380.91
-0.735648 -7.61524e-06 0 -9040.2
-0.72806 -7.61524e-06 0 -9178.28
-0.720203 -7.61524e-06 0 -9694.97
-0.712075 -7.61524e-06 0 -10516.4
-0.703676 -7.61524e-06 0 -11333.5
-0.695006 -7.61524e-06 0 -11948.8
-0.686065 -7.61524e-06 0 -12394.1
-0.676855 -7.61524e-06 0 -12690.3
-0.667379 -7.61524e-06 0 -12879.9
-0.657641 -7.61524e-06 0 -13000.2
-0.647644 -7.61524e-06 0 -13055.9
-0.637398 -7.61524e-06 0 -13074
-0.626906 -7.61524e-06 0 -13055
-0.616179 -7.61524e-06 0 -13013.4
-0.605225 -7.61524e-06 0 -12955.9
-0.594054 -7.61524e-06 0 -12881.9
-0.582677 -7.61524e-06 0 -12806.9
-0.57111 -7.61524e-06 0 -12736.9
-0.559364 -7.61524e-06 0 -12656
-0.547454 -7.61524e-06 0 -12568.9
-0.535396 -7.61524e-06 0 -12486.8
-0.523205 -7.61524e-06 0 -12414.4
-0.510901 -7.61524e-06 0 -12336.6
-0.498499 -7.61524e-06 0 -12263.1
-0.486021 -7.61524e-06 0 -12194.7
-0.473482 -7.61524e-06 0 -12136.4
-0.460905 -7.61524e-06 0 -12082.8
-0.448307 -7.61524e-06 0 -12018.2
-0.435709 -7.61524e-06 0 -11953.2
-0.42313 -7.61524e-06 0 -11903.5
-0.41059 -7.61524e-06 0 -11869.7
-0.39811 -7.61524e-06 0 -11840.8
-0.385706 -7.61524e-06 0 -11800.6
-0.373398 -7.61524e-06 0 -11744.4
-0.361205 -7.61524e-06 0 -11687.8
-0.349142 -7.61524e-06 0 -11641.5
-0.337226 -7.61524e-06 0 -11622
-0.325475 -7.61524e-06 0 -11613.1
-0.313901 -7.61524e-06 0 -11604.1
-0.30252 -7.61524e-06 0 -11584.2
-0.291343 -7.61524e-06 0 -11543.1
-0.280381 -7.61524e-06 0 -11501.9
-0.269647 -7.61524e-06 0 -11460.6
-0.259148 -7.61524e-06 0 -11424.7
-0.248893 -7.61524e-06 0 -11410.7
-0.23889 -7.61524e-06 0 -11396.9
-0.229143 -7.61524e-06 0 -11404.3
-0.219659 -7.61524e-06 0 -11417.5
-0.210441 -7.61524e-06 0 -11425.3
-0.201491 -7.61524e-06 0 -11423.2
-0.192812 -7.61524e-06 0 -11425.8
-0.184405 -7.61524e-06 0 -11408.2
-0.176269 -7.61524e-06 0 -11390.2
-0.168404 -7.61524e-06 0 -11367.2
-0.160809 -7.61524e-06 0 -11338.9
-0.15348 -7.61524e-06 0 -11311.4
-0.146415 -7.61524e-06 0 -11284.1
-0.13961 -7.61524e-06 0 -11261.9
-0.133063 -7.61524e-06 0 -11240.1
-0.126767 -7.61524e-06 0 -11223.9
-0.120717 -7.61524e-06 0 -11213.2
-0.11491 -7.61524e-06 0 -11208
-0.109339 -7.61524e-06 0 -11197.7
-0.103997 -7.61524e-06 0 -11203.2
-0.0988804 -7.61524e-06 0 -11204.4
-0.0939809 -7.61524e-06 0 -11204.9
-0.0892928 -7.61524e-06 0 -11211.1
-0.0848096 -7.61524e-06 0 -11217.4
-0.0805248 -7.61524e-06 0 -11229.1
-0.0764317 -7.61524e-06 0 -11235.6
-0.0725237 -7.61524e-06 0 -11242.1
-0.0687943 -7.61524e-06 0 -11248.7
-0.065237 -7.61524e-06 0 -11255.3
-0.0618454 -7.61524e-06 0 -11256.7
-0.058613 -7.61524e-06 0 -11263.3
-0.0555337 -7.61524e-06 0 -11264.8
-0.0526013 -7.61524e-06 0 -11271.5
-0.0498099 -7.61524e-06 0 -11267.5
-0.0471536 -7.61524e-06 0 -11274.3
-0.0446266 -7.61524e-06 0 -11275.7
-0.0422235 -7.61524e-06 0 -11277.2
-0.0399389 -7.61524e-06 0 -11278.6
-0.0377676 -7.61524e-06 0 -11274.6
-0.0357044 -7.61524e-06 0 -11276.2
-0.0337445 -7.61524e-06 0 -11277.5
-0.0318832 -7.61524e-06 0 -11273.6
-0.0301159 -7.61524e-06 0 -11275
-0.0284383 -7.61524e-06 0 -11276.5
-0.0268462 -7.61524e-06 0 -11272.5
-0.0253353 -7.61524e-06 0 -11273.9
-0.023902 -7.61524e-06 0 -11270
-0.0225425 -7.61524e-06 0 -11271.3
-0.0212532 -7.61524e-06 0 -11267.7
-0.0200306 -7.61524e-06 0 -11269
-0.0188715 -7.61524e-06 0 -11329.5
-0.0177727 -7.61524e-06 0 -11760.4
-0.0167313 -7.61524e-06 0 -12857.2
-0.0157444 -7.61524e-06 0 -12633.4
-0.0148093 -7.61524e-06 0 -10771.7
-0.0139232 -7.61524e-06 0 -9167.82
-0.0130838 -7.61524e-06 0 -8792.84
-0.0122887 -7.61524e-06 0 -9342.56
-0.0115355 -7.61524e-06 0 -9977.91
-0.0108223 -7.61524e-06 0 -10420.3
-0.0101469 -7.61524e-06 0 -10739.2
-0.00950727 -7.61524e-06 0 -10977.8
-0.00890169 -7.61524e-06 0 -11152
-0.00832834 -7.61524e-06 0 -11305
-0.00778557 -7.61524e-06 0 -11431.2
-0.00727176 -7.61524e-06 0 -11530.9
-0.00678541 -7.61524e-06 0 -11603.8
-0.00632507 -7.61524e-06 0 -11655.6
-0.00588937 -7.61524e-06 0 -11686.1
-0.00547703 -7.61524e-06 0 -11695.4
-0.00508681 -7.61524e-06 0 -11699.7
-0.00471753 -7.61524e-06 0 -11710
-0.0043681 -7.61524e-06 0 -11758.5
-0.00403746 -7.61524e-06 0 -11872.5
-0.00372461 -7.61524e-06 0 -12052.3
-0.0034286 -7.61524e-06 0 -12308.9
-0.00314855 -7.61524e-06 0 -12664.3
-0.00288361 -7.61524e-06 0 -13087.1
-0.00263295 -7.61524e-06 0 -13582.9
-0.00239582 -7.61524e-06 0 -14131.4
-0.00217149 -7.61524e-06 0 -14722.6
-0.00195929 -7.61524e-06 0 -15347.4
-0.00175856 -7.61524e-06 0 -15985.9
-0.00156869 -7.61524e-06 0 -16613.2
-0.00138908 -7.61524e-06 0 -17221.7
-0.00121921 -7.61524e-06 0 -17776.2
-0.00105853 -7.61524e-06 0 -18204.8
-0.000906546 -7.61524e-06 0 -18600.4
-0.000762803 -7.61524e-06 0 -18740.1
-0.000626849 -7.61524e-06 0 -18642.5
-0.000498266 -7.61524e-06 0 -18207.6
-0.000376656 -7.61524e-06 0 -17332.3
-0.000261642 -7.61524e-06 0 -15875
-0.00015287 -7.61524e-06 0 -13510
-5e-05 -7.61524e-06 0 -9535.28
4.14596e-05 2.03453e-05 0 -9212.76
0.000125379 7.69412e-05 0 -11792.8
0.000211356 0.000134924 0 -13431.3
0.000299438 0.000194328 0 -14755.5
0.000389678 0.000255186 0 -15922.7
0.000482128 0.000317535 0 -16985.9
0.000576841 0.000381409 0 -17975.3
0.000673871 0.000446848 0 -18896.9
0.000773276 0.000513887 0 -19750.7
0.000875112 0.000582565 0 -20547.9
0.000979439 0.000652924 0 -21298.7
0.00108632 0.000725003 0 -22002.3
0.00119581 0.000798843 0 -22664.9
0.00130797 0.000874487 0 -23300.2
0.00142287 0.000951979 0 -23911.3
0.00154058 0.00103136 0 -24502.3
0.00166117 0.00111268 0 -25066.3
0.00178469 0.00119599 0 -25620
0.00191123 0.00128133 0 -26149.1
0.00204085 0.00136875 0 -26649.7
0.00217364 0.0014583 0 -27117.2
0.00230966 0.00155003 0 -27539.3
0.00244899 0.001644 0 -27893
0.00259171 0.00174025 0 -28163.5
0.00273791 0.00183885 0 -28353.9
0.00288767 0.00193985 0 -28462.7
0.00304108 0.0020433 0 -28478.3
0.0031982 0.00214927 0 -28315
0.00335915 0.00225781 0 -28140.8
0.003524 0.002369 0 -28029.9
0.00369286 0.00248287 0 -28044.8
0.00386582 0.00259951 0 -28227.5
0.00404297 0.00271899 0 -28752.1
0.00422442 0.00284136 0 -29678.4
0.00441026 0.00296669 0 -30986.4
0.0046006 0.00309506 0 -32589
0.00479556 0.00322653 0 -34328.4
0.00499523 0.00336119 0 -36043.8
0.00519972 0.00349911 0 -37621.9
0.00540916 0.00364036 0 -39014.2
0.00562366 0.00378501 0 -40395.7
0.00584334 0.00393316 0 -41979.3
0.00606831 0.00408489 0 -43802
0.00629871 0.00424027 0 -45789.3
0.00653466 0.0043994 0 -47925.5
0.00677629 0.00456236 0 -50263.8
0.00702374 0.00472923 0 -52802.3
0.00727714 0.00490013 0 -55722.5
0.00753663 0.00507513 0 -59038.7
0.00780234 0.00525433 0 -62648.7
0.00807444 0.00543783 0 -66499.5
0.00835306 0.00562573 0 -70680.5
0.00863835 0.00581814 0 -75122.3
0.00893047 0.00601514 0 -79873.9
0.00922958 0.00621687 0 -84854
0.00953584 0.00642341 0 -90044.1
0.00984939 0.00663489 0 -95555.9
0.0101705 0.00685141 0 -101603
0.0104992 0.00707309 0 -108436
0.0108357 0.00730005 0 -116523
0.0111802 0.00753241 0 -125810
0.011533 0.0077703 0 -136130
0.0118941 0.00801384 0 -147401
0.0122638 0.00826316 0 -159364
0.0126422 0.00851837 0 -171061
0.0130296 0.00877964 0 -182064
0.0134262 0.00904708 0 -192342
0.0138321 0.00932084 0 -202154
0.0142476 0.00960107 0 -211567
0.0146729 0.00988792 0 -220984
0.0151082 0.0101815 0 -230011
0.0155538 0.0104819 0 -238139
0.0160098 0.0107895 0 -245045
0.0164766 0.0111042 0 -249021
0.0169542 0.0114263 0 -249951
0.0174429 0.011756 0 -246436
0.0179431 0.0120934 0 -241859
0.018455 0.0124386 0 -238015
0.0189789 0.0127918 0 -238482
0.0195149 0.0131533 0 -241031
0.0200633 0.0135232 0 -242778
0.0206245 0.0139016 0 -241810
0.0211986 0.0142888 0 -238231
0.0217861 0.014685 0 -234553
0.022387 0.0150903 0 -231990
0.0230018 0.0155049 0 -229908
0.0236307 0.0159291 0 -229261
0.0242741 0.0163629 0 -227563
0.0249322 0.0168068 0 -225416
0.0256053 0.0172608 0 -224611
0.0262939 0.0177251 0 -224161
0.0269981 0.0182 0 -222274
0.0277183 0.0186857 0 -219118
0.0284548 0.0191825 0 -214260
0.029208 0.0196904 0 -210656
0.0299782 0.0202098 0 -207507
0.0307658 0.0207409 0 -206207
0.031571 0.021284 0 -205028
0.0323942 0.0218393 0 -203764
0.033236 0.0224069 0 -201770
0.0340965 0.0229872 0 -199092
0.0349762 0.0235805 0 -196163
0.0358753 0.0241869 0 -194012
0.0367944 0.0248067 0 -192269
0.0377338 0.0254403 0 -190699
0.0386938 0.0260877 0 -189119
0.039675 0.0267494 0 -187208
0.0406776 0.0274256 0 -186131
0.0417021 0.0281165 0 -184930
0.0427488 0.0288225 0 -183630
0.0438183 0.0295437 0 -182299
0.0449109 0.0302805 0 -180334
0.046027 0.0310332 0 -177985
0.0471671 0.0318021 0 -176256
0.0483315 0.0325874 0 -175041
0.0495209 0.0333895 0 -174117
0.0507354 0.0342086 0 -173536
0.0519756 0.035045 0 -172959
0.053242 0.0358991 0 -172388
0.054535 0.036771 0 -171561
0.0558549 0.0376613 0 -170551
0.0572024 0.03857 0 -169333
0.0585778 0.0394976 0 -168051
0.0599816 0.0404443 0 -166954
0.0614142 0.0414105 0 -166002
0.0628761 0.0423964 0 -165257
0.0643678 0.0434024 0 -164466
0.0658897 0.0444287 0 -163625
0.0674422 0.0454758 0 -163573
0.069026 0.0465439 0 -163461
0.0706413 0.0476333 0 -163486
0.0722886 0.0487443 0 -162983
0.0739685 0.0498771 0 -162402
0.0756813 0.0510323 0 -161759
0.0774275 0.05221 0 -161389
0.0792077 0.0534105 0 -161253
0.0810221 0.0546342 0 -160568
0.0828712 0.0558812 0 -160082
0.0847556 0.0571521 0 -159809
0.0866757 0.058447 0 -159804
0.0886318 0.0597661 0 -159918
0.0906244 0.06111 0 -159797
0.0926539 0.0624787 0 -159795
0.0947207 0.0638726 0 -160046
0.0968252 0.0652919 0 -160139
0.0989682 0.066737 0 -158266
0.101149 0.068208 0 -157921
0.103369 0.0697052 0 -157153
0.105629 0.0712289 0 -160241
0.107928 0.0727794 0 -158988
0.110267 0.0743568 0 -161097
0.112646 0.0759614 0 -159453
0.115066 0.0775934 0 -162005
0.117527 0.079253 0 -159089
0.120029 0.0809404 0 -158692
0.122572 0.0826558 0 -158295
0.125158 0.0843994 0 -158660
0.127785 0.0861713 0 -160455
0.130454 0.0879717 0 -161374
0.133167 0.0898008 0 -161761
0.135921 0.0916586 0 -161940
0.138719 0.0935453 0 -161473
0.141559 0.095461 0 -162313
0.144443 0.0974057 0 -159316
0.14737 0.0993798 0 -157544
0.15034 0.101383 0 -159216
0.153354 0.103415 0 -159691
0.156411 0.105477 0 -159524
0.159511 0.107568 0 -162073
0.162655 0.109688 0 -159718
0.165842 0.111837 0 -160599
0.169073 0.114016 0 -165401
0.172346 0.116223 0 -160382
0.175663 0.118461 0 -159666
0.179022 0.120727 0 -165925
0.182425 0.123021 0 -159966
0.18587 0.125344 0 -158793
0.189357 0.127696 0 -160244
0.192886 0.130076 0 -160722
0.196457 0.132484 0 -163032
0.200069 0.13492 0 -162065
0.203722 0.137384 0 -159013
0.207416 0.139875 0 -159936
0.21115 0.142393 0 -161684
0.214924 0.144938 0 -160079
0.218736 0.147509 0 -159700
0.222587 0.150107 0 -156128
0.226476 0.152729 0 -156324
0.230403 0.155377 0 -156743
0.234366 0.15805 0 -156206
0.238366 0.160748 0 -154156
0.242401 0.163469 0 -157500
0.24647 0.166214 0 -156696
0.250573 0.168981 0 -155290
0.25471 0.17177 0 -155218
0.258878 0.174582 0 -156439
0.263078 0.177414 0 -154039
0.267309 0.180266 0 -160731
0.271568 0.183139 0 -150227
0.275856 0.186031 0 -151003
0.280172 0.188942 0 -151395
0.284514 0.19187 0 -159123
0.288881 0.194815 0 -152996
0.293272 0.197777 0 -149489
0.297687 0.200754 0 -158241
0.302124 0.203746 0 -150306
0.306581 0.206752 0 -151100
0.311058 0.209772 0 -150541
0.315554 0.212804 0 -150756
0.320067 0.215847 0 -159192
0.324595 0.218901 0 -148877
0.329138 0.221965 0 -149699
0.333695 0.225038 0 -149312
0.338264 0.228119 0 -149281
0.342843 0.231208 0 -149874
0.347432 0.234302 0 -147738
0.352029 0.237402 0 -149735
0.356632 0.240507 0 -148059
0.361241 0.243616 0 -146603
0.365854 0.246727 0 -147632
0.370469 0.249839 0 -150978
0.375085 0.252953 0 -151840
0.379702 0.256066 0 -147325
0.384317 0.259178 0 -147733
0.388929 0.262289 0 -146253
0.393537 0.265396 0 -145233
0.398139 0.2685 0 -147169
0.402734 0.271598 0 -148683
0.407321 0.274692 0 -146935
0.411898 0.277779 0 -147088
0.416464 0.280858 0 -146161
0.421017 0.283929 0 -146090
0.425557 0.286991 0 -147309
0.430082 0.290042 0 -147077
0.434591 0.293083 0 -152614
0.439082 0.296112 0 -143570
0.443555 0.299128 0 -151857
0.448008 0.302131 0 -150350
0.45244 0.30512 0 -149535
0.456849 0.308094 0 -160346
0.461235 0.311052 0 -151688
0.465596 0.313993 0 -148239
0.469932 0.316917 0 -140140
0.474241 0.319823 0 -139939
0.478523 0.322711 0 -140910
0.482776 0.325579 0 -141645
0.486999 0.328427 0 -144782
0.491191 0.331254 0 -158434
0.495353 0.334061 0 -138571
