# Wall heat-flux
# Time        	patch         	min           	max           	integral      
4500          	base	-1.314272e+04	3.264670e+04	3.912059e+02
