# Wall heat-flux
# Time        	patch         	min           	max           	integral      
1320          	base	-3.300263e+06	-4.532954e+04	-3.352217e+03
