# Wall heat-flux
# Time        	patch         	min           	max           	integral      
4700          	base	-1.328821e+04	3.280021e+04	3.922688e+02
