# p  FACE_DATA 191
# x  y  z  p
-0.557391 0 0.025 3507.37
-0.532305 0 0.025 2985.3
-0.509124 0 0.025 2852.67
-0.487686 0 0.025 2800.76
-0.467842 0 0.025 2782.96
-0.449454 0 0.025 2775.06
-0.432393 0 0.025 2771.41
-0.41654 0 0.025 2769.85
-0.401786 0 0.025 2769.97
-0.388026 0 0.025 2771.23
-0.375167 0 0.025 2771.28
-0.363116 0 0.025 2769.59
-0.351791 0 0.025 2767.06
-0.341113 0 0.025 2764.82
-0.331006 0 0.025 2763.49
-0.321402 0 0.025 2763.18
-0.312233 0 0.025 2763.7
-0.303433 0 0.025 2764.11
-0.294945 0 0.025 2763.67
-0.286706 0 0.025 2762.75
-0.27866 0 0.025 2761.62
-0.270751 0 0.025 2760.37
-0.262924 0 0.025 2759
-0.25508 0 0.025 2757.84
-0.247306 0 0.025 2757.2
-0.239754 0 0.025 2757.3
-0.232416 0 0.025 2757.82
-0.225285 0 0.025 2758.35
-0.218356 0 0.025 2758.46
-0.211622 0 0.025 2757.89
-0.205079 0 0.025 2756.9
-0.198717 0 0.025 2755.56
-0.192534 0 0.025 2753.97
-0.186524 0 0.025 2752.41
-0.18068 0 0.025 2751.12
-0.174998 0 0.025 2750.23
-0.169472 0 0.025 2749.81
-0.164098 0 0.025 2749.89
-0.15887 0 0.025 2750.53
-0.153785 0 0.025 2751.51
-0.148838 0 0.025 2752.55
-0.144023 0 0.025 2753.48
-0.139338 0 0.025 2754.19
-0.134777 0 0.025 2754.62
-0.130336 0 0.025 2754.74
-0.126013 0 0.025 2754.43
-0.121802 0 0.025 2753.84
-0.1177 0 0.025 2753
-0.113704 0 0.025 2751.98
-0.109809 0 0.025 2750.87
-0.106012 0 0.025 2749.68
-0.10231 0 0.025 2748.57
-0.0986994 0 0.025 2747.54
-0.0951774 0 0.025 2746.61
-0.0917405 0 0.025 2745.82
-0.0883856 0 0.025 2745.19
-0.0851099 0 0.025 2744.73
-0.0819102 0 0.025 2744.43
-0.0787839 0 0.025 2744.26
-0.075728 0 0.025 2744.18
-0.0727398 0 0.025 2744.18
-0.0698168 0 0.025 2744.24
-0.0669562 0 0.025 2744.38
-0.0641556 0 0.025 2744.57
-0.0614123 0 0.025 2744.79
-0.0587239 0 0.025 2745.03
-0.056088 0 0.025 2745.29
-0.0535024 0 0.025 2745.54
-0.0509647 0 0.025 2745.79
-0.0484725 0 0.025 2746.02
-0.0460237 0 0.025 2746.24
-0.043616 0 0.025 2746.49
-0.0412474 0 0.025 2746.11
-0.0389157 0 0.025 2756.42
-0.0366188 0 0.025 3001.76
-0.0343547 0 0.025 4539.69
-0.0321212 0 0.025 6342.56
-0.0299165 0 0.025 7483.04
-0.0277386 0 0.025 8232.15
-0.0255855 0 0.025 8804.01
-0.0234553 0 0.025 9274.01
-0.0213461 0 0.025 9681.04
-0.019256 0 0.025 10053.1
-0.0171831 0 0.025 10395.2
-0.0151255 0 0.025 10714.9
-0.0130816 0 0.025 11023.6
-0.0110493 0 0.025 11306.7
-0.00902685 0 0.025 11542.3
-0.00701253 0 0.025 11727.1
-0.00500447 0 0.025 11830.7
-0.00300089 0 0.025 11969.5
-0.001 0 0.025 13107.6
0.000866025 0.0005 0.025 13097.5
0.0025844 0.00149211 0.025 13762.9
0.0042763 0.00246893 0.025 14981.8
0.00594322 0.00343132 0.025 16427.3
0.00758635 0.00437998 0.025 18324.5
0.00920736 0.00531588 0.025 20658
0.0108073 0.00623961 0.025 23507.7
0.0123876 0.00715197 0.025 26993.9
0.0139495 0.00805372 0.025 31276.5
0.0154937 0.00894529 0.025 36539.2
0.017022 0.00982767 0.025 42780.6
0.0185348 0.0107011 0.025 50307.6
0.0200339 0.0115666 0.025 59090.8
0.0215202 0.0124247 0.025 69200.8
0.0229941 0.0132757 0.025 80945.6
0.0244573 0.0141204 0.025 93945.5
0.0259099 0.0149591 0.025 108191
0.0273538 0.0157927 0.025 124492
0.0287896 0.0166217 0.025 140568
0.0302178 0.0174463 0.025 152021
0.0316401 0.0182674 0.025 157512
0.0330561 0.019085 0.025 154684
0.034468 0.0199001 0.025 143722
0.0358755 0.0207127 0.025 134470
0.0372803 0.0215238 0.025 125722
0.0386833 0.0223338 0.025 118067
0.0400841 0.0231425 0.025 112015
0.0414849 0.0239513 0.025 107171
0.0428849 0.0247597 0.025 103713
0.0442867 0.025569 0.025 100996
0.0456908 0.0263796 0.025 100500
0.0470965 0.0271912 0.025 100411
0.0485064 0.0280052 0.025 99960.4
0.0499192 0.0288209 0.025 98833.4
0.0513378 0.0296399 0.025 97547.7
0.0527619 0.0304621 0.025 96765.4
0.0541922 0.031288 0.025 97325.6
0.0556308 0.0321185 0.025 98543.7
0.0570761 0.0329529 0.025 99395.9
0.0585312 0.0337931 0.025 99694.2
0.0599948 0.034638 0.025 99920.4
0.0614698 0.0354896 0.025 100068
0.062957 0.0363482 0.025 100147
0.064455 0.0372131 0.025 100163
0.0659672 0.0380861 0.025 100125
0.0674915 0.0389662 0.025 100441
0.0690319 0.0398556 0.025 100861
0.0705882 0.0407541 0.025 101380
0.0721604 0.0416618 0.025 101843
0.0737453 0.0425769 0.025 102032
0.0753344 0.0434943 0.025 102132
0.0769309 0.0444161 0.025 102123
0.0785326 0.0453408 0.025 102024
0.0801411 0.0462695 0.025 101941
0.0817575 0.0472027 0.025 101870
0.0833785 0.0481386 0.025 101917
0.0850076 0.0490792 0.025 102014
0.0866416 0.0500226 0.025 102067
0.0882842 0.0509709 0.025 102075
0.0899348 0.0519239 0.025 102045
0.0915911 0.0528801 0.025 101999
0.0932563 0.0538415 0.025 102069
0.0949268 0.0548061 0.025 102205
0.0966067 0.0557759 0.025 102329
0.0982939 0.05675 0.025 102419
0.0999887 0.0577286 0.025 102440
0.101693 0.0587127 0.025 102604
0.103404 0.0597003 0.025 102664
0.105125 0.0606937 0.025 102688
0.106852 0.0616907 0.025 102615
0.108588 0.0626936 0.025 102762
0.110336 0.0637025 0.025 102824
0.11209 0.0647152 0.025 102875
0.113855 0.0657342 0.025 103070
0.115627 0.0667569 0.025 103111
0.117409 0.0677862 0.025 103139
0.119201 0.0688211 0.025 103198
0.121003 0.069861 0.025 103109
0.122816 0.0709077 0.025 103032
0.124635 0.0719583 0.025 103205
0.126468 0.0730161 0.025 103166
0.128308 0.0740787 0.025 103198
0.13016 0.0751478 0.025 103231
0.132024 0.0762243 0.025 103150
0.133897 0.0773051 0.025 103078
0.135782 0.0783936 0.025 102956
0.137675 0.0794865 0.025 103082
0.139581 0.0805871 0.025 103064
0.1415 0.081695 0.025 102825
0.143428 0.0828082 0.025 102822
0.145371 0.0839296 0.025 102576
0.147321 0.0850557 0.025 102381
0.149286 0.08619 0.025 102255
0.151261 0.0873308 0.025 101776
0.153249 0.0884787 0.025 101611
0.155252 0.0896351 0.025 101474
0.157265 0.0907968 0.025 101196
0.159292 0.0919672 0.025 100874
0.161329 0.093143 0.025 100245
