# wallHeatFlux  FACE_DATA 191
# x  y  z  wallHeatFlux
-0.557391 0 0.025 -304755
-0.532305 0 0.025 -85207.6
-0.509124 0 0.025 -79606.8
-0.487686 0 0.025 -78015.3
-0.467842 0 0.025 -77230.7
-0.449454 0 0.025 -76363.9
-0.432393 0 0.025 -75360
-0.41654 0 0.025 -74729.6
-0.401786 0 0.025 -74478
-0.388026 0 0.025 -74382.2
-0.375167 0 0.025 -74159.5
-0.363116 0 0.025 -73810.3
-0.351791 0 0.025 -73392.3
-0.341113 0 0.025 -72962.6
-0.331006 0 0.025 -72527.1
-0.321402 0 0.025 -72194.9
-0.312233 0 0.025 -71856.8
-0.303433 0 0.025 -71686
-0.294945 0 0.025 -71568.4
-0.286706 0 0.025 -71505
-0.27866 0 0.025 -71438.9
-0.270751 0 0.025 -71370.8
-0.262924 0 0.025 -71184.8
-0.25508 0 0.025 -70940.2
-0.247306 0 0.025 -70635.5
-0.239754 0 0.025 -70327
-0.232416 0 0.025 -70131.9
-0.225285 0 0.025 -69992.2
-0.218356 0 0.025 -69966.8
-0.211622 0 0.025 -69938.9
-0.205079 0 0.025 -69849.4
-0.198717 0 0.025 -69698.3
-0.192534 0 0.025 -69485.5
-0.186524 0 0.025 -69210.7
-0.18068 0 0.025 -68933.1
-0.174998 0 0.025 -68712
-0.169472 0 0.025 -68488.4
-0.164098 0 0.025 -68381.1
-0.15887 0 0.025 -68390.3
-0.153785 0 0.025 -68457.3
-0.148838 0 0.025 -68641.6
-0.144023 0 0.025 -68764.9
-0.139338 0 0.025 -68946.4
-0.134777 0 0.025 -69069.4
-0.130336 0 0.025 -69126.1
-0.126013 0 0.025 -69121.5
-0.121802 0 0.025 -69063.6
-0.1177 0 0.025 -68933.2
-0.113704 0 0.025 -68749.7
-0.109809 0 0.025 -68501.8
-0.106012 0 0.025 -68192.2
-0.10231 0 0.025 -67883.9
-0.0986994 0 0.025 -67565.6
-0.0951774 0 0.025 -67253.2
-0.0917405 0 0.025 -66937.4
-0.0883856 0 0.025 -66739.6
-0.0851099 0 0.025 -66481.2
-0.0819102 0 0.025 -66341.7
-0.0787839 0 0.025 -66140.8
-0.075728 0 0.025 -66059.9
-0.0727398 0 0.025 -65977.3
-0.0698168 0 0.025 -65954.6
-0.0669562 0 0.025 -65991.5
-0.0641556 0 0.025 -66027.3
-0.0614123 0 0.025 -66124.2
-0.0587239 0 0.025 -66219.2
-0.056088 0 0.025 -66374.7
-0.0535024 0 0.025 -66529.7
-0.0509647 0 0.025 -66684.6
-0.0484725 0 0.025 -66837.8
-0.0460237 0 0.025 -66991.9
-0.043616 0 0.025 -67145.1
-0.0412474 0 0.025 -67298
-0.0389157 0 0.025 -66781.5
-0.0366188 0 0.025 -58353.7
-0.0343547 0 0.025 -46326.4
-0.0321212 0 0.025 -58527.7
-0.0299165 0 0.025 -74942.6
-0.0277386 0 0.025 -84483.8
-0.0255855 0 0.025 -91166.6
-0.0234553 0 0.025 -96512.5
-0.0213461 0 0.025 -101496
-0.019256 0 0.025 -106239
-0.0171831 0 0.025 -110499
-0.0151255 0 0.025 -114393
-0.0130816 0 0.025 -117679
-0.0110493 0 0.025 -120356
-0.00902685 0 0.025 -122912
-0.00701253 0 0.025 -127368
-0.00500447 0 0.025 -135562
-0.00300089 0 0.025 -152155
-0.001 0 0.025 -183345
0.000866025 0.0005 0.025 -179682
0.0025844 0.00149211 0.025 -200179
0.0042763 0.00246893 0.025 -245335
0.00594322 0.00343132 0.025 -285446
0.00758635 0.00437998 0.025 -333737
0.00920736 0.00531588 0.025 -392919
0.0108073 0.00623961 0.025 -466286
0.0123876 0.00715197 0.025 -558513
0.0139495 0.00805372 0.025 -672533
0.0154937 0.00894529 0.025 -814633
0.017022 0.00982767 0.025 -980207
0.0185348 0.0107011 0.025 -1.17437e+06
0.0200339 0.0115666 0.025 -1.38645e+06
0.0215202 0.0124247 0.025 -1.62978e+06
0.0229941 0.0132757 0.025 -1.89803e+06
0.0244573 0.0141204 0.025 -2.19025e+06
0.0259099 0.0149591 0.025 -2.5007e+06
0.0273538 0.0157927 0.025 -2.88912e+06
0.0287896 0.0166217 0.025 -3.26317e+06
0.0302178 0.0174463 0.025 -3.52182e+06
0.0316401 0.0182674 0.025 -3.50327e+06
0.0330561 0.019085 0.025 -3.37974e+06
0.034468 0.0199001 0.025 -3.03625e+06
0.0358755 0.0207127 0.025 -2.71855e+06
0.0372803 0.0215238 0.025 -2.48611e+06
0.0386833 0.0223338 0.025 -2.29673e+06
0.0400841 0.0231425 0.025 -2.13797e+06
0.0414849 0.0239513 0.025 -1.99933e+06
0.0428849 0.0247597 0.025 -1.90668e+06
0.0442867 0.025569 0.025 -1.83704e+06
0.0456908 0.0263796 0.025 -1.79926e+06
0.0470965 0.0271912 0.025 -1.77023e+06
0.0485064 0.0280052 0.025 -1.74533e+06
0.0499192 0.0288209 0.025 -1.68855e+06
0.0513378 0.0296399 0.025 -1.65446e+06
0.0527619 0.0304621 0.025 -1.62473e+06
0.0541922 0.031288 0.025 -1.61705e+06
0.0556308 0.0321185 0.025 -1.62719e+06
0.0570761 0.0329529 0.025 -1.62188e+06
0.0585312 0.0337931 0.025 -1.5978e+06
0.0599948 0.034638 0.025 -1.587e+06
0.0614698 0.0354896 0.025 -1.5718e+06
0.062957 0.0363482 0.025 -1.5643e+06
0.064455 0.0372131 0.025 -1.54779e+06
0.0659672 0.0380861 0.025 -1.53129e+06
0.0674915 0.0389662 0.025 -1.51987e+06
0.0690319 0.0398556 0.025 -1.50458e+06
0.0705882 0.0407541 0.025 -1.50448e+06
0.0721604 0.0416618 0.025 -1.50918e+06
0.0737453 0.0425769 0.025 -1.48819e+06
0.0753344 0.0434943 0.025 -1.49018e+06
0.0769309 0.0444161 0.025 -1.46931e+06
0.0785326 0.0453408 0.025 -1.45596e+06
0.0801411 0.0462695 0.025 -1.44358e+06
0.0817575 0.0472027 0.025 -1.43188e+06
0.0833785 0.0481386 0.025 -1.41661e+06
0.0850076 0.0490792 0.025 -1.41838e+06
0.0866416 0.0500226 0.025 -1.39608e+06
0.0882842 0.0509709 0.025 -1.39473e+06
0.0899348 0.0519239 0.025 -1.37976e+06
0.0915911 0.0528801 0.025 -1.38222e+06
0.0932563 0.0538415 0.025 -1.36614e+06
0.0949268 0.0548061 0.025 -1.36636e+06
0.0966067 0.0557759 0.025 -1.35043e+06
0.0982939 0.05675 0.025 -1.33633e+06
0.0999887 0.0577286 0.025 -1.3507e+06
0.101693 0.0587127 0.025 -1.4526e+06
0.103404 0.0597003 0.025 -1.42521e+06
0.105125 0.0606937 0.025 -1.40452e+06
0.106852 0.0616907 0.025 -1.33273e+06
0.108588 0.0626936 0.025 -1.38384e+06
0.110336 0.0637025 0.025 -1.36395e+06
0.11209 0.0647152 0.025 -1.33499e+06
0.113855 0.0657342 0.025 -1.37427e+06
0.115627 0.0667569 0.025 -1.28844e+06
0.117409 0.0677862 0.025 -1.37106e+06
0.119201 0.0688211 0.025 -1.34265e+06
0.121003 0.069861 0.025 -1.29762e+06
0.122816 0.0709077 0.025 -1.26113e+06
0.124635 0.0719583 0.025 -1.37577e+06
0.126468 0.0730161 0.025 -1.35339e+06
0.128308 0.0740787 0.025 -1.32188e+06
0.13016 0.0751478 0.025 -1.35526e+06
0.132024 0.0762243 0.025 -1.32675e+06
0.133897 0.0773051 0.025 -1.33134e+06
0.135782 0.0783936 0.025 -1.25847e+06
0.137675 0.0794865 0.025 -1.33468e+06
0.139581 0.0805871 0.025 -1.2447e+06
0.1415 0.081695 0.025 -1.18282e+06
0.143428 0.0828082 0.025 -1.28492e+06
0.145371 0.0839296 0.025 -1.20368e+06
0.147321 0.0850557 0.025 -1.25316e+06
0.149286 0.08619 0.025 -1.3035e+06
0.151261 0.0873308 0.025 -1.17995e+06
0.153249 0.0884787 0.025 -1.21787e+06
0.155252 0.0896351 0.025 -1.22424e+06
0.157265 0.0907968 0.025 -1.22873e+06
0.159292 0.0919672 0.025 -1.22114e+06
0.161329 0.093143 0.025 -1.22787e+06
