# p  FACE_DATA 398
# x  y  z  p
-0.7975 0 0.025 4472.64
-0.79239 0 0.025 3628.85
-0.787056 0 0.025 3023.79
-0.781492 0 0.025 2851.93
-0.775691 0 0.025 2755.44
-0.769649 0 0.025 2742.8
-0.763362 0 0.025 2765.63
-0.756822 0 0.025 2784.44
-0.750025 0 0.025 2802.1
-0.742968 0 0.025 2808.75
-0.735648 0 0.025 2813.35
-0.72806 0 0.025 2814.36
-0.720203 0 0.025 2812.83
-0.712076 0 0.025 2811.3
-0.703677 0 0.025 2810.23
-0.695006 0 0.025 2806.52
-0.686065 0 0.025 2798.46
-0.676855 0 0.025 2795.68
-0.667379 0 0.025 2798.38
-0.65764 0 0.025 2792.99
-0.647644 0 0.025 2788.28
-0.637397 0 0.025 2785.54
-0.626906 0 0.025 2783.15
-0.616179 0 0.025 2782.83
-0.605224 0 0.025 2777.92
-0.594054 0 0.025 2776.12
-0.582678 0 0.025 2773.54
-0.57111 0 0.025 2771.48
-0.559364 0 0.025 2769.49
-0.547454 0 0.025 2766.97
-0.535396 0 0.025 2766.24
-0.523205 0 0.025 2763.64
-0.510901 0 0.025 2761.19
-0.4985 0 0.025 2760.46
-0.486021 0 0.025 2759.52
-0.473483 0 0.025 2759.11
-0.460905 0 0.025 2756.57
-0.448308 0 0.025 2753.55
-0.435709 0 0.025 2752.04
-0.42313 0 0.025 2753.37
-0.41059 0 0.025 2753.06
-0.39811 0 0.025 2750.52
-0.385706 0 0.025 2747.94
-0.373398 0 0.025 2747.32
-0.361205 0 0.025 2748.1
-0.349141 0 0.025 2748.69
-0.337226 0 0.025 2748.71
-0.325475 0 0.025 2746.32
-0.313901 0 0.025 2743.51
-0.30252 0 0.025 2740.32
-0.291343 0 0.025 2737.8
-0.280382 0 0.025 2736.66
-0.269646 0 0.025 2738.76
-0.259148 0 0.025 2742.19
-0.248893 0 0.025 2744.89
-0.23889 0 0.025 2745.85
-0.229143 0 0.025 2745.91
-0.219659 0 0.025 2743.27
-0.210441 0 0.025 2739.32
-0.201491 0 0.025 2735.15
-0.192812 0 0.025 2731.64
-0.184405 0 0.025 2728.69
-0.176269 0 0.025 2726.94
-0.168404 0 0.025 2726.29
-0.160808 0 0.025 2726.94
-0.15348 0 0.025 2728.7
-0.146415 0 0.025 2731.17
-0.13961 0 0.025 2733.85
-0.133063 0 0.025 2736.73
-0.126767 0 0.025 2739.07
-0.120718 0 0.025 2740.87
-0.11491 0 0.025 2741.91
-0.109339 0 0.025 2742.4
-0.103997 0 0.025 2742.48
-0.0988805 0 0.025 2741.98
-0.0939808 0 0.025 2741.03
-0.0892928 0 0.025 2739.74
-0.0848096 0 0.025 2738.14
-0.0805248 0 0.025 2736.33
-0.0764316 0 0.025 2734.37
-0.0725237 0 0.025 2732.31
-0.0687943 0 0.025 2730.25
-0.065237 0 0.025 2728.35
-0.0618454 0 0.025 2726.67
-0.058613 0 0.025 2725.2
-0.0555337 0 0.025 2723.97
-0.0526013 0 0.025 2722.89
-0.0498099 0 0.025 2721.93
-0.0471536 0 0.025 2721.03
-0.0446266 0 0.025 2720.17
-0.0422235 0 0.025 2719.48
-0.039939 0 0.025 2718.47
-0.0377676 0 0.025 2728.8
-0.0357044 0 0.025 2820.44
-0.0337445 0 0.025 3158.42
-0.0318832 0 0.025 3768.41
-0.0301159 0 0.025 4453.47
-0.0284383 0 0.025 5084.12
-0.0268461 0 0.025 5646.54
-0.0253353 0 0.025 6128.56
-0.023902 0 0.025 6554.5
-0.0225426 0 0.025 6941.3
-0.0212532 0 0.025 7308.98
-0.0200306 0 0.025 7642.48
-0.0188715 0 0.025 7945.15
-0.0177728 0 0.025 8220.95
-0.0167313 0 0.025 8473.01
-0.0157444 0 0.025 8705.01
-0.0148092 0 0.025 8919.92
-0.0139232 0 0.025 9121.29
-0.0130838 0 0.025 9310
-0.0122887 0 0.025 9486.95
-0.0115356 0 0.025 9652.64
-0.0108223 0 0.025 9807.9
-0.0101469 0 0.025 9953.37
-0.00950727 0 0.025 10089.3
-0.00890168 0 0.025 10215.6
-0.00832835 0 0.025 10332.3
-0.00778557 0 0.025 10439.6
-0.00727176 0 0.025 10537.9
-0.0067854 0 0.025 10627.8
-0.00632507 0 0.025 10710
-0.00588937 0 0.025 10785.6
-0.00547703 0 0.025 10855.9
-0.0050868 0 0.025 10922.4
-0.00471753 0 0.025 10986.5
-0.0043681 0 0.025 11049.3
-0.00403746 0 0.025 11112.3
-0.00372461 0 0.025 11177.9
-0.0034286 0 0.025 11246
-0.00314855 0 0.025 11317.9
-0.0028836 0 0.025 11394
-0.00263294 0 0.025 11477.2
-0.00239581 0 0.025 11568.9
-0.0021715 0 0.025 11662.2
-0.00195929 0 0.025 11761.5
-0.00175856 0 0.025 11866.6
-0.00156869 0 0.025 11976.6
-0.00138908 0 0.025 12090.6
-0.0012192 0 0.025 12207.9
-0.00105853 0 0.025 12327.1
-0.000906546 0 0.025 12446.4
-0.000762803 0 0.025 12563.1
-0.000626848 0 0.025 12672.6
-0.000498265 0 0.025 12768
-0.000376656 0 0.025 12839.9
-0.000261642 0 0.025 12879.7
-0.00015287 0 0.025 12892
-5e-05 0 0.025 12981.8
4.14519e-05 2.79596e-05 0.025 12555.6
0.000125371 8.45641e-05 0.025 12651.9
0.000211347 0.000142556 0.025 12622
0.000299429 0.000201968 0.025 12555.4
0.000389669 0.000262835 0.025 12477.4
0.000482118 0.000325193 0.025 12399
0.000576831 0.000389077 0.025 12326.7
0.000673861 0.000454524 0.025 12264.7
0.000773265 0.000521574 0.025 12216
0.0008751 0.000590262 0.025 12184
0.000979426 0.000660632 0.025 12163.9
0.0010863 0.000732721 0.025 12163.6
0.00119579 0.000806572 0.025 12179.2
0.00130795 0.000882227 0.025 12208.1
0.00142285 0.00095973 0.025 12250.9
0.00154056 0.00103912 0.025 12306.6
0.00166115 0.00112046 0.025 12374
0.00178467 0.00120378 0.025 12453
0.00191121 0.00128913 0.025 12542.7
0.00204083 0.00137656 0.025 12643.4
0.00217362 0.00146612 0.025 12753.6
0.00230964 0.00155787 0.025 12873.4
0.00244897 0.00165185 0.025 13003
0.00259169 0.00174812 0.025 13142.9
0.00273789 0.00184673 0.025 13292
0.00288765 0.00194774 0.025 13451
0.00304105 0.00205122 0.025 13619.9
0.00319818 0.00215719 0.025 13799.2
0.00335912 0.00226575 0.025 13988.9
0.00352397 0.00237695 0.025 14189.8
0.00369283 0.00249085 0.025 14402.3
0.00386579 0.00260751 0.025 14626.8
0.00404294 0.00272699 0.025 14864.4
0.00422438 0.00284938 0.025 15115.8
0.00441022 0.00297474 0.025 15382
0.00460056 0.00310312 0.025 15664
0.00479552 0.00323462 0.025 15963.3
0.00499519 0.0033693 0.025 16280.6
0.00519968 0.00350723 0.025 16618
0.00540911 0.00364849 0.025 16976.6
0.00562361 0.00379318 0.025 17358.5
0.00584329 0.00394134 0.025 17765.3
0.00606826 0.00409309 0.025 18199.2
0.00629865 0.00424849 0.025 18662.7
0.0065346 0.00440764 0.025 19158.5
0.00677623 0.00457063 0.025 19689
0.00702368 0.00473753 0.025 20258
0.00727707 0.00490844 0.025 20868.1
0.00753655 0.00508347 0.025 21523.5
0.00780227 0.00526269 0.025 22227.8
0.00807436 0.00544622 0.025 22985.3
0.00835298 0.00563415 0.025 23800.8
0.00863826 0.00582659 0.025 24679
0.00893038 0.00602362 0.025 25626.3
0.00922949 0.00622537 0.025 26648.1
0.00953574 0.00643195 0.025 27752.8
0.00984929 0.00664345 0.025 28948.5
0.0101703 0.00686 0.025 30248.5
0.0104991 0.00708171 0.025 31660.1
0.0108356 0.00730871 0.025 33191.3
0.0111801 0.0075411 0.025 34867.6
0.0115329 0.00777902 0.025 36702.4
0.011894 0.00802259 0.025 38711.4
0.0122637 0.00827194 0.025 40912.7
0.0126421 0.00852719 0.025 43329
0.0130295 0.0087885 0.025 45975.3
0.013426 0.00905597 0.025 48874
0.013832 0.00932978 0.025 52043.3
0.0142475 0.00961003 0.025 55505.1
0.0146727 0.0098969 0.025 59282.2
0.0151081 0.0101905 0.025 63412.4
0.0155536 0.010491 0.025 67917
0.0160097 0.0107986 0.025 72853.6
0.0164764 0.0111134 0.025 78223.9
0.016954 0.0114356 0.025 84125
0.0174427 0.0117653 0.025 90587.1
0.0179429 0.0121026 0.025 97674.6
0.0184548 0.0124479 0.025 105317
0.0189786 0.0128013 0.025 113462
0.0195146 0.0131628 0.025 122182
0.020063 0.0135327 0.025 131435
0.0206242 0.0139112 0.025 141178
0.0211983 0.0142984 0.025 151622
0.0217857 0.0146947 0.025 162776
0.0223867 0.0151 0.025 174352
0.0230015 0.0155147 0.025 184930
0.0236304 0.0159389 0.025 191841
0.0242738 0.0163729 0.025 194152
0.0249318 0.0168167 0.025 189755
0.025605 0.0172708 0.025 183499
0.0262935 0.0177352 0.025 175514
0.0269977 0.0182102 0.025 167350
0.0277178 0.0186959 0.025 159597
0.0284544 0.0191927 0.025 152722
0.0292075 0.0197008 0.025 146526
0.0299777 0.0202203 0.025 141166
0.0307653 0.0207514 0.025 136678
0.0315704 0.0212945 0.025 133128
0.0323937 0.0218499 0.025 130297
0.0332354 0.0224176 0.025 127774
0.0340959 0.022998 0.025 125580
0.0349755 0.0235913 0.025 123985
0.0358747 0.0241978 0.025 123509
0.0367938 0.0248178 0.025 123428
0.0377331 0.0254513 0.025 123225
0.0386932 0.0260989 0.025 122842
0.0396743 0.0267606 0.025 122398
0.0406769 0.0274369 0.025 122517
0.0417013 0.0281279 0.025 122799
0.042748 0.0288339 0.025 123235
0.0438175 0.0295552 0.025 123943
0.04491 0.0302922 0.025 124871
0.0460262 0.031045 0.025 125553
0.0471662 0.031814 0.025 125597
0.0483306 0.0325995 0.025 125359
0.0495199 0.0334016 0.025 125185
0.0507344 0.0342208 0.025 125282
0.0519746 0.0350573 0.025 125710
0.0532409 0.0359114 0.025 125967
0.0545339 0.0367835 0.025 125935
0.0558538 0.0376739 0.025 125903
0.0572012 0.0385827 0.025 126056
0.0585766 0.0395104 0.025 126521
0.0599804 0.0404573 0.025 127084
0.061413 0.0414236 0.025 127524
0.0628748 0.0424096 0.025 127660
0.0643665 0.0434157 0.025 127571
0.0658883 0.0444422 0.025 127354
0.0674408 0.0454894 0.025 127060
0.0690245 0.0465576 0.025 126929
0.0706398 0.0476471 0.025 126884
0.0722871 0.0487582 0.025 126848
0.0739669 0.0498912 0.025 126831
0.0756797 0.0510466 0.025 126827
0.0774258 0.0522244 0.025 126834
0.0792059 0.053425 0.025 126920
0.0810203 0.0546489 0.025 127101
0.0828694 0.0558961 0.025 127251
0.0847537 0.0571671 0.025 127419
0.0866737 0.0584622 0.025 127532
0.0886298 0.0597816 0.025 127636
0.0906224 0.0611256 0.025 127657
0.0926518 0.0624944 0.025 127674
0.0947185 0.0638884 0.025 127480
0.096823 0.065308 0.025 127012
0.0989659 0.0667532 0.025 126498
0.101147 0.0682245 0.025 125852
0.103367 0.0697219 0.025 125640
0.105626 0.0712458 0.025 126013
0.107926 0.0727965 0.025 126833
0.110265 0.074374 0.025 127605
0.112644 0.0759789 0.025 127835
0.115063 0.0776111 0.025 127799
0.117524 0.0792709 0.025 127136
0.120026 0.0809585 0.025 126589
0.122569 0.0826741 0.025 126442
0.125155 0.0844179 0.025 126875
0.127782 0.0861901 0.025 127556
0.130451 0.0879908 0.025 127840
0.133163 0.08982 0.025 127963
0.135918 0.0916781 0.025 127657
0.138716 0.0935651 0.025 127306
0.141556 0.095481 0.025 127083
0.14444 0.097426 0.025 127076
0.147367 0.0994004 0.025 127049
0.150337 0.101404 0.025 128139
0.153351 0.103437 0.025 127844
0.156408 0.105498 0.025 126932
0.159508 0.107589 0.025 127243
0.162651 0.10971 0.025 126111
0.165838 0.111859 0.025 123780
0.169069 0.114039 0.025 124173
0.172343 0.116247 0.025 123798
0.175659 0.118483 0.025 123363
0.179018 0.120749 0.025 122975
0.182421 0.123045 0.025 122779
0.185866 0.125368 0.025 123015
0.189353 0.12772 0.025 123174
0.192882 0.1301 0.025 122991
0.196453 0.132509 0.025 122813
0.200065 0.134946 0.025 121793
0.203718 0.13741 0.025 121340
0.207412 0.139901 0.025 121355
0.211146 0.14242 0.025 120712
0.214919 0.144965 0.025 120229
0.218732 0.147537 0.025 120617
0.222583 0.150134 0.025 119864
0.226472 0.152757 0.025 120454
0.230399 0.155406 0.025 119904
0.234362 0.15808 0.025 119842
0.238362 0.160777 0.025 119442
0.242396 0.163498 0.025 119919
0.246466 0.166244 0.025 120290
0.250569 0.169012 0.025 121767
0.254706 0.171801 0.025 121434
0.258874 0.174613 0.025 121788
0.263074 0.177446 0.025 121459
0.267304 0.180299 0.025 121871
0.271564 0.183172 0.025 121923
0.275852 0.186064 0.025 121112
0.280168 0.188975 0.025 121173
0.28451 0.191904 0.025 120567
0.288876 0.19485 0.025 120110
0.293268 0.197812 0.025 121000
0.297683 0.20079 0.025 120512
0.302119 0.203782 0.025 120589
0.306577 0.206788 0.025 121501
0.311054 0.209808 0.025 120947
0.315549 0.212841 0.025 121305
0.320063 0.215885 0.025 120365
0.324591 0.218939 0.025 120755
0.329134 0.222003 0.025 120654
0.333691 0.225077 0.025 120152
0.33826 0.228159 0.025 120761
0.342839 0.231248 0.025 120828
0.347428 0.234343 0.025 121769
0.352025 0.237444 0.025 120779
0.356628 0.240548 0.025 121182
0.361237 0.243658 0.025 121348
0.36585 0.246769 0.025 120297
0.370465 0.249882 0.025 121592
0.375082 0.252996 0.025 120714
0.379698 0.25611 0.025 120264
0.384313 0.259223 0.025 121138
0.388926 0.262333 0.025 120491
0.393534 0.265442 0.025 120872
0.398136 0.268546 0.025 121105
0.40273 0.271645 0.025 120524
0.407317 0.274739 0.025 120427
0.411894 0.277826 0.025 120093
0.41646 0.280906 0.025 121293
0.421014 0.283977 0.025 120571
0.425554 0.28704 0.025 120361
0.430079 0.290092 0.025 120770
0.434588 0.293133 0.025 120633
0.439079 0.296162 0.025 121277
0.443551 0.299179 0.025 120983
0.448004 0.302183 0.025 120866
0.452437 0.305172 0.025 120957
0.456846 0.308146 0.025 121196
0.461232 0.311105 0.025 121106
0.465593 0.314047 0.025 121261
0.469929 0.316971 0.025 120964
0.474238 0.319878 0.025 121953
0.47852 0.322766 0.025 121657
0.482773 0.325635 0.025 121776
0.486996 0.328483 0.025 121351
0.491189 0.331311 0.025 120802
0.49535 0.334118 0.025 121900
