# Wall heat-flux
# Time        	patch         	min           	max           	integral      
800           	base	-2.363408e+06	-3.675877e+04	-7.840195e+03
