/*--------------------------------*- C++ -*----------------------------------*\
| =========                 |                                                 |
| \\      /  F ield         | OpenFOAM: The Open Source CFD Toolbox           |
|  \\    /   O peration     | Version:  v2012                                 |
|   \\  /    A nd           | Website:  www.openfoam.com                      |
|    \\/     M anipulation  |                                                 |
\*---------------------------------------------------------------------------*/
FoamFile
{
    version     2.0;
    format      ascii;
    class       volScalarField;
    location    "3800";
    object      alphat;
}
// * * * * * * * * * * * * * * * * * * * * * * * * * * * * * * * * * * * * * //

dimensions      [1 -1 -1 0 0 0 0];


internalField   nonuniform List<scalar> 
29502
(
4.08206e-08
1.30692e-09
3.41972e-08
1.29168e-09
1.19484e-09
3.07554e-08
1.55093e-09
3.8428e-09
1.19859e-09
2.78511e-08
1.72143e-09
5.54699e-09
4.91721e-08
1.50375e-09
2.64642e-08
1.82113e-09
6.43205e-09
7.50642e-08
3.13418e-07
2.56787e-09
2.64498e-08
1.86978e-09
6.90416e-09
8.7399e-08
4.7794e-07
1.19451e-06
4.93014e-09
2.7421e-08
1.88295e-09
7.11655e-09
9.34607e-08
5.52808e-07
1.80913e-06
3.26372e-06
9.001e-09
2.87996e-08
1.87997e-09
7.16019e-09
9.56671e-08
5.87288e-07
2.07789e-06
4.89219e-06
7.05059e-06
1.47734e-08
3.0301e-08
1.86065e-09
7.12775e-09
9.56355e-08
5.97097e-07
2.19473e-06
5.57659e-06
1.04439e-05
1.28057e-05
2.21662e-08
3.18953e-08
1.83522e-09
7.02428e-09
9.46576e-08
5.93928e-07
2.22025e-06
5.85907e-06
1.18152e-05
1.87764e-05
2.04303e-05
3.05044e-08
3.36132e-08
1.81268e-09
6.90586e-09
9.28744e-08
5.8545e-07
2.20137e-06
5.90627e-06
1.2355e-05
2.11054e-05
2.97879e-05
2.92691e-05
3.89912e-08
3.54912e-08
1.79657e-09
6.8025e-09
9.10691e-08
5.73026e-07
2.16469e-06
5.84645e-06
1.24257e-05
2.19842e-05
3.33408e-05
4.31483e-05
3.81604e-05
4.72578e-08
3.75515e-08
1.778e-09
6.72928e-09
8.9504e-08
5.61163e-07
2.11657e-06
5.74355e-06
1.22936e-05
2.20798e-05
3.46333e-05
4.8212e-05
5.71627e-05
4.7854e-05
5.44834e-08
3.98105e-08
1.74892e-09
6.63823e-09
8.83753e-08
5.50939e-07
2.07221e-06
5.61717e-06
1.20791e-05
2.18494e-05
3.47621e-05
4.99191e-05
6.41351e-05
7.27907e-05
5.83034e-05
6.14189e-08
4.22768e-08
1.72874e-09
6.50666e-09
8.70254e-08
5.43417e-07
2.03401e-06
5.50307e-06
1.18266e-05
2.14855e-05
3.44191e-05
5.00947e-05
6.6487e-05
8.22853e-05
9.0161e-05
6.93606e-05
6.75136e-08
4.49593e-08
1.70865e-09
6.42002e-09
8.51943e-08
5.34763e-07
2.00557e-06
5.40515e-06
1.16017e-05
2.10687e-05
3.38818e-05
4.96424e-05
6.67699e-05
8.55006e-05
0.000102892
0.000109254
8.10715e-05
7.2933e-08
4.78609e-08
1.69029e-09
6.33099e-09
8.39983e-08
5.23531e-07
1.97356e-06
5.33114e-06
1.14092e-05
2.0701e-05
3.32779e-05
4.89575e-05
6.62099e-05
8.59644e-05
0.000107255
0.000126004
0.000129975
9.37946e-05
7.91367e-08
5.09849e-08
1.67557e-09
6.25112e-09
8.27776e-08
5.16126e-07
1.9333e-06
5.24904e-06
1.12617e-05
2.03868e-05
3.27478e-05
4.81953e-05
6.53394e-05
8.5314e-05
0.000108005
0.000131905
0.00015149
0.000152033
0.000105773
8.33455e-08
5.43448e-08
1.65755e-09
6.18788e-09
8.16926e-08
5.08658e-07
1.90655e-06
5.14812e-06
1.10994e-05
2.01438e-05
3.2296e-05
4.75136e-05
6.43726e-05
8.42507e-05
0.000107304
0.000133076
0.000159433
0.000179191
0.000175177
0.000116715
8.36943e-08
5.7939e-08
1.64123e-09
6.10849e-09
8.08476e-08
5.0207e-07
1.87984e-06
5.08068e-06
1.09034e-05
1.98771e-05
3.19444e-05
4.6917e-05
6.35449e-05
8.30634e-05
0.000106053
0.0001324
0.000161232
0.000189913
0.000208934
0.000198743
0.000126802
7.94916e-08
6.17775e-08
1.62779e-09
6.03877e-09
7.98003e-08
4.96989e-07
1.85636e-06
5.01366e-06
1.07717e-05
1.9559e-05
3.15578e-05
4.64501e-05
6.28476e-05
8.20447e-05
0.000104638
0.000130992
0.000160703
0.000192628
0.000223298
0.000240546
0.000221986
0.000136046
7.23245e-08
6.58665e-08
1.61488e-09
5.98436e-09
7.88937e-08
4.90801e-07
1.8384e-06
4.95514e-06
1.06416e-05
1.9345e-05
3.11021e-05
4.59364e-05
6.23091e-05
8.11965e-05
0.00010341
0.000129342
0.000159179
0.000192431
0.000227339
0.000259415
0.00027369
0.000244266
0.000144807
6.33412e-08
7.02059e-08
1.60248e-09
5.93024e-09
7.81992e-08
4.85485e-07
1.81679e-06
4.91035e-06
1.0528e-05
1.91341e-05
3.07957e-05
4.53355e-05
6.17038e-05
8.05397e-05
0.00010239
0.000127892
0.000157329
0.000190856
0.000227738
0.000265405
0.000297976
0.000307678
0.000264966
0.000153998
5.55829e-08
7.4801e-08
1.59386e-09
5.87806e-09
7.75041e-08
4.81435e-07
1.79834e-06
4.85711e-06
1.04414e-05
1.8951e-05
3.04948e-05
4.49328e-05
6.10089e-05
7.97968e-05
0.0001016
0.000126693
0.000155654
0.00018884
0.000226225
0.000266718
0.000306793
0.000338635
0.00034161
0.000283349
0.000164482
4.98444e-08
7.96465e-08
1.58431e-09
5.84171e-09
7.68429e-08
4.77395e-07
1.78436e-06
4.81185e-06
1.03391e-05
1.88114e-05
3.02341e-05
4.45385e-05
6.05542e-05
7.89548e-05
0.000100707
0.00012577
0.00015429
0.000186964
0.000224097
0.000265439
0.000309384
0.000351312
0.000380948
0.000374571
0.000298552
0.000172454
4.76532e-08
8.47551e-08
1.5711e-09
5.80033e-09
7.63852e-08
4.73559e-07
1.77038e-06
4.77775e-06
1.02526e-05
1.86467e-05
3.00356e-05
4.4198e-05
6.01079e-05
7.83988e-05
9.96872e-05
0.00012471
0.000153226
0.000185431
0.000222047
0.000263308
0.000308609
0.000355704
0.000398619
0.000424236
0.00040556
0.000309731
0.000164513
4.78753e-08
9.01662e-08
1.55764e-09
5.74294e-09
7.5866e-08
4.70974e-07
1.75727e-06
4.74356e-06
1.01875e-05
1.85085e-05
2.98017e-05
4.39393e-05
5.97253e-05
7.78577e-05
9.9018e-05
0.000123494
0.000152001
0.000184214
0.000220354
0.00026112
0.000306654
0.000355812
0.000405536
0.000448235
0.00046763
0.000433467
0.000316319
0.000150239
5.03646e-08
9.60622e-08
1.54658e-09
5.68785e-09
7.51409e-08
4.68029e-07
1.74849e-06
4.7117e-06
1.01226e-05
1.84049e-05
2.96063e-05
4.36335e-05
5.94368e-05
7.73971e-05
9.8377e-05
0.000122711
0.00015059
0.00018283
0.000219006
0.000259307
0.000304412
0.000354247
0.000407031
0.000458657
0.00049956
0.000510072
0.000457221
0.000318429
0.000129833
5.4641e-08
1.03326e-07
1.54042e-09
5.64456e-09
7.44619e-08
4.63917e-07
1.73862e-06
4.69074e-06
1.00621e-05
1.83013e-05
2.94612e-05
4.33801e-05
5.90896e-05
7.70573e-05
9.78232e-05
0.000121955
0.00014968
0.000181217
0.000217463
0.000257863
0.000302521
0.000352076
0.000406139
0.00046208
0.000514686
0.000551787
0.000550345
0.000475839
0.000317678
0.000104375
6.03431e-08
1.10817e-07
1.53565e-09
5.62347e-09
7.39488e-08
4.60108e-07
1.72469e-06
4.66705e-06
1.00229e-05
1.82055e-05
2.93156e-05
4.31938e-05
5.88082e-05
7.66419e-05
9.74176e-05
0.000121307
0.0001488
0.000180184
0.000215638
0.000256186
0.000301019
0.000350212
0.000404229
0.000462145
0.000520483
0.000573049
0.00060389
0.000587044
0.000488575
0.000317374
7.62186e-05
6.6214e-08
1.19974e-07
1.5304e-09
5.60649e-09
7.37282e-08
4.57313e-07
1.71198e-06
4.63377e-06
9.97867e-06
1.81443e-05
2.91816e-05
4.30068e-05
5.86093e-05
7.63019e-05
9.69242e-05
0.000120822
0.000148054
0.000179175
0.000214491
0.000254147
0.000299262
0.000348723
0.000402518
0.000460707
0.000521609
0.000581184
0.000632961
0.000654637
0.000618675
0.000495216
0.000322501
4.90495e-05
7.17133e-08
1.26079e-07
1.52326e-09
5.58576e-09
7.35547e-08
4.56237e-07
1.70289e-06
4.60351e-06
9.91596e-06
1.80746e-05
2.90973e-05
4.28346e-05
5.84094e-05
7.60684e-05
9.65229e-05
0.00012024
0.000147503
0.000178318
0.000213364
0.000252881
0.000297022
0.000346906
0.000401099
0.000459309
0.000520824
0.000584171
0.000645069
0.000693412
0.000702532
0.000643676
0.000495878
0.000331963
2.72069e-05
7.75547e-08
1.31529e-07
1.51484e-09
5.55505e-09
7.33271e-08
4.55422e-07
1.69975e-06
4.58247e-06
9.85973e-06
1.79761e-05
2.90009e-05
4.27284e-05
5.82219e-05
7.58299e-05
9.62498e-05
0.000119777
0.000146833
0.000177703
0.000212399
0.00025165
0.000295638
0.000344499
0.000399279
0.000458078
0.000519927
0.000584473
0.000650634
0.000711648
0.000753167
0.00074593
0.000660531
0.000490539
0.00030206
1.31413e-05
8.38779e-08
1.36592e-07
1.50529e-09
5.5192e-09
7.29642e-08
4.54294e-07
1.69752e-06
4.57597e-06
9.82144e-06
1.78882e-05
2.88637e-05
4.26064e-05
5.81137e-05
7.5608e-05
9.59699e-05
0.000119464
0.000146297
0.000176953
0.000211715
0.000250592
0.000294301
0.000343029
0.00039676
0.000456317
0.000518999
0.000584339
0.000652519
0.000720672
0.000780192
0.000810732
0.000782879
0.000668465
0.000480409
0.000257694
5.80732e-06
9.04667e-08
1.40771e-07
1.49567e-09
5.47795e-09
7.25282e-08
4.52376e-07
1.69419e-06
4.57172e-06
9.81104e-06
1.78302e-05
2.87425e-05
4.24306e-05
5.79865e-05
7.54859e-05
9.57115e-05
0.000119143
0.000145941
0.000176344
0.00021088
0.00024984
0.000293172
0.00034161
0.000395263
0.000453707
0.000517308
0.000583951
0.000653512
0.000724778
0.000793776
0.000849734
0.000864242
0.000811511
0.00066776
0.000470577
0.00020357
2.43469e-06
9.70156e-08
1.42729e-07
1.48647e-09
5.43798e-09
7.20291e-08
4.50013e-07
1.68814e-06
4.56473e-06
9.80501e-06
1.78165e-05
2.86646e-05
4.22766e-05
5.77939e-05
7.53375e-05
9.55684e-05
0.00011885
0.000145582
0.000175939
0.000210209
0.000248908
0.000292373
0.000340408
0.000393799
0.000452241
0.000514537
0.000582573
0.000653935
0.000727365
0.000800905
0.000869202
0.000916565
0.000911681
0.000830067
0.000659299
0.000469211
0.000145103
1.01172e-06
1.03689e-07
1.42867e-07
1.4779e-09
5.4001e-09
7.15422e-08
4.47248e-07
1.68048e-06
4.55114e-06
9.7937e-06
1.781e-05
2.86496e-05
4.21807e-05
5.76256e-05
7.51032e-05
9.53923e-05
0.000118686
0.000145258
0.000175548
0.000209774
0.000248184
0.00029135
0.00033957
0.000392518
0.000450755
0.000513173
0.000579877
0.000653078
0.000728959
0.000805689
0.000880354
0.000945939
0.000978882
0.000950715
0.000837082
0.000645025
0.000469407
9.11743e-05
4.35153e-07
1.10631e-07
1.42348e-07
1.47126e-09
5.36663e-09
7.10878e-08
4.44588e-07
1.67141e-06
4.5334e-06
9.76931e-06
1.77943e-05
2.86446e-05
4.21675e-05
5.75262e-05
7.4908e-05
9.51202e-05
0.000118485
0.000145081
0.000175184
0.000209341
0.000247731
0.000290574
0.000338498
0.000391659
0.000449456
0.000511624
0.000578687
0.0006506
0.000728891
0.000808913
0.000888095
0.000962336
0.00102255
0.00103486
0.000978969
0.000832192
0.000627302
0.000407171
5.11619e-05
2.1696e-07
1.17175e-07
1.40943e-07
1.46654e-09
5.34156e-09
7.06973e-08
4.42142e-07
1.66273e-06
4.51221e-06
9.73721e-06
1.77582e-05
2.86264e-05
4.21673e-05
5.75315e-05
7.47991e-05
9.48948e-05
0.000118186
0.00014486
0.000174998
0.000208932
0.000247265
0.000290094
0.000337686
0.000390574
0.000448591
0.000510386
0.000577231
0.000649715
0.000726839
0.000809994
0.000893539
0.000973977
0.00104578
0.00109314
0.00108226
0.000994212
0.000816711
0.000611383
0.000329049
2.65036e-05
1.41216e-07
1.21763e-07
1.42356e-07
1.46285e-09
5.3241e-09
7.04038e-08
4.40019e-07
1.6548e-06
4.49206e-06
9.69838e-06
1.77091e-05
2.85787e-05
4.21492e-05
5.75513e-05
7.48198e-05
9.47756e-05
0.000117924
0.000144523
0.00017477
0.000208756
0.000246839
0.000289616
0.000337189
0.000389752
0.000447468
0.00050956
0.000576084
0.000648452
0.000726428
0.000808637
0.000896226
0.000982379
0.00106247
0.00112927
0.0011564
0.0011184
0.000994984
0.000793507
0.00060425
0.000241088
1.30556e-05
1.17359e-07
1.25252e-07
1.44051e-07
1.46196e-09
5.3127e-09
7.02241e-08
4.38484e-07
1.64806e-06
4.47393e-06
9.66165e-06
1.76493e-05
2.85122e-05
4.20914e-05
5.75401e-05
7.48537e-05
9.48019e-05
0.000117788
0.00014422
0.000174379
0.000208521
0.000246661
0.00028919
0.000336703
0.000389251
0.00044663
0.000508299
0.000575362
0.000647484
0.000725496
0.000808927
0.000895924
0.000987264
0.00107475
0.0011524
0.00120822
0.00121028
0.00114041
0.000981212
0.000767064
0.000572997
0.000155746
6.09672e-06
1.12153e-07
1.25778e-07
1.44699e-07
1.46197e-09
5.31236e-09
7.01196e-08
4.37597e-07
1.64318e-06
4.45839e-06
9.62903e-06
1.75931e-05
2.84306e-05
4.20083e-05
5.74798e-05
7.48521e-05
9.48581e-05
0.000117835
0.000144074
0.000174037
0.000208083
0.000246414
0.000289023
0.000336261
0.000388764
0.000446141
0.000507439
0.000574131
0.000646937
0.000724824
0.000808507
0.000897209
0.000988483
0.00108257
0.00116966
0.0012422
0.00127799
0.0012521
0.00114592
0.000955007
0.000744686
0.000479199
8.98121e-05
2.65572e-06
1.11874e-07
1.24496e-07
1.42471e-07
1.46206e-09
5.31517e-09
7.01694e-08
4.37226e-07
1.64064e-06
4.44761e-06
9.60135e-06
1.75439e-05
2.83545e-05
4.19054e-05
5.73925e-05
7.47867e-05
9.48751e-05
0.000117913
0.000144162
0.000173888
0.000207711
0.000245946
0.000288789
0.000336138
0.000388328
0.000445673
0.000506963
0.000573331
0.000645799
0.000724554
0.000808287
0.000897546
0.000991147
0.00108591
0.00118134
0.00126579
0.00132697
0.00133687
0.00127873
0.00113386
0.000921257
0.000732451
0.000367205
4.78401e-05
1.09593e-06
1.12201e-07
1.23879e-07
1.40071e-07
1.46147e-09
5.31719e-09
7.02476e-08
4.37695e-07
1.63995e-06
4.44247e-06
9.58229e-06
1.75022e-05
2.82887e-05
4.18108e-05
5.72837e-05
7.46846e-05
9.48061e-05
0.000117941
0.000144257
0.000174004
0.000207552
0.000245549
0.000288306
0.000335945
0.000388246
0.000445257
0.000506442
0.000572938
0.000645113
0.000723588
0.000808427
0.000897984
0.000992558
0.00109044
0.00118756
0.00128244
0.00136138
0.00140125
0.00138238
0.00128729
0.00110582
0.000887141
0.000691455
0.00024959
2.36651e-05
4.6061e-07
1.1268e-07
1.2392e-07
1.37558e-07
1.45996e-09
5.31571e-09
7.03157e-08
4.38383e-07
1.64227e-06
4.44227e-06
9.57476e-06
1.74748e-05
2.82337e-05
4.17302e-05
5.71855e-05
7.45577e-05
9.46876e-05
0.000117868
0.000144299
0.000174138
0.000207688
0.000245375
0.000287875
0.000335471
0.000388093
0.000445209
0.000505982
0.000572484
0.000644853
0.000723089
0.000807747
0.000898711
0.000993922
0.00109333
0.00119457
0.00129247
0.00138433
0.00145007
0.00146347
0.00141147
0.00127605
0.00106675
0.000864132
0.00057418
0.00015184
1.10456e-05
2.25613e-07
1.13697e-07
1.2401e-07
1.35475e-07
1.45697e-09
5.30896e-09
7.03306e-08
4.38994e-07
1.64523e-06
4.44908e-06
9.5766e-06
1.74658e-05
2.81993e-05
4.1664e-05
5.71005e-05
7.44398e-05
9.45352e-05
0.000117736
0.000144235
0.000174214
0.000207894
0.000245551
0.000287693
0.000334998
0.0003876
0.000445041
0.000505933
0.000572087
0.000644509
0.00072303
0.000807533
0.000898467
0.000995474
0.00109597
0.00119946
0.00130272
0.00139932
0.00148504
0.00152718
0.00151087
0.00142076
0.00124616
0.0010253
0.000850432
0.000436105
8.39486e-05
4.75206e-06
1.44747e-07
1.14838e-07
1.23802e-07
1.3373e-07
1.4526e-09
5.2969e-09
7.02784e-08
4.39295e-07
1.64798e-06
4.4578e-06
9.59206e-06
1.74724e-05
2.81912e-05
4.16248e-05
5.70351e-05
7.43441e-05
9.44013e-05
0.000117562
0.000144082
0.000174155
0.000208023
0.000245838
0.000287929
0.000334838
0.000387123
0.00044449
0.000505645
0.000572138
0.000644216
0.000722854
0.000807761
0.000898668
0.000995858
0.00109864
0.00120381
0.00131026
0.00141375
0.00150636
0.0015762
0.00159067
0.00154009
0.00140834
0.00120218
0.000991854
0.000748559
0.00029338
4.22595e-05
1.88229e-06
1.18314e-07
1.15377e-07
1.23454e-07
1.32192e-07
1.44694e-09
5.27785e-09
7.0143e-08
4.3913e-07
1.64964e-06
4.46576e-06
9.61086e-06
1.75006e-05
2.82053e-05
4.16203e-05
5.70032e-05
7.42756e-05
9.42931e-05
0.000117412
0.000143886
0.000173995
0.000207963
0.000246006
0.000288293
0.000335152
0.000386999
0.000444066
0.000505025
0.000571905
0.000644404
0.000722717
0.000807831
0.0008993
0.000996647
0.00109991
0.00120798
0.00131687
0.00142474
0.00152609
0.0016113
0.00165415
0.00163775
0.0015475
0.00137437
0.00115185
0.000967916
0.000597864
0.000177638
1.94153e-05
7.38343e-07
1.10822e-07
1.15731e-07
1.23111e-07
1.30564e-07
1.43957e-09
5.25181e-09
6.99123e-08
4.38478e-07
1.64955e-06
4.47121e-06
9.6285e-06
1.75342e-05
2.82507e-05
4.1646e-05
5.7013e-05
7.42483e-05
9.42143e-05
0.00011729
0.000143718
0.000173779
0.000207793
0.000245979
0.000288517
0.000335595
0.000387419
0.000444001
0.000504618
0.000571296
0.000644258
0.000723093
0.000807921
0.000899718
0.000997829
0.00110151
0.00121045
0.00132302
0.0014343
0.00154151
0.00163767
0.00170335
0.00171678
0.00166431
0.00153034
0.00132248
0.00110817
0.000895182
0.000429631
9.79553e-05
8.17186e-06
3.19415e-07
1.08969e-07
1.16219e-07
1.22742e-07
1.28991e-07
1.43107e-09
5.22044e-09
6.9592e-08
4.3725e-07
1.64767e-06
4.47186e-06
9.64069e-06
1.75655e-05
2.83027e-05
4.17115e-05
5.70554e-05
7.42672e-05
9.41866e-05
0.000117209
0.000143589
0.000173595
0.000207567
0.000245792
0.000288523
0.000335894
0.000387937
0.000444514
0.000504685
0.000570924
0.000643685
0.000723076
0.000808554
0.000900127
0.000998729
0.00110344
0.00121315
0.00132711
0.00144302
0.00155486
0.00165869
0.00174287
0.00178017
0.00176048
0.00166602
0.00148815
0.00126284
0.0010783
0.000731385
0.000275118
4.84356e-05
3.18358e-06
1.73774e-07
1.08687e-07
1.16676e-07
1.23617e-07
1.25247e-07
1.42244e-09
5.18408e-09
6.91967e-08
4.35473e-07
1.64377e-06
4.46809e-06
9.64386e-06
1.75885e-05
2.8352e-05
4.17868e-05
5.71486e-05
7.43331e-05
9.42251e-05
0.000117191
0.000143504
0.000173462
0.000207367
0.000245547
0.000288341
0.000335922
0.00038829
0.000445048
0.000505281
0.000571087
0.000643371
0.000722573
0.000808722
0.000901104
0.000999581
0.00110499
0.00121607
0.00133128
0.00144924
0.00156687
0.00167684
0.00177385
0.00183298
0.00183924
0.00178046
0.00163975
0.00142676
0.00121307
0.00101146
0.000544323
0.0001586
2.14069e-05
1.18951e-06
1.25808e-07
1.08893e-07
1.17815e-07
1.30815e-07
1.17876e-07
1.41413e-09
5.14691e-09
6.87311e-08
4.33247e-07
1.63791e-06
4.45925e-06
9.63791e-06
1.75955e-05
2.8388e-05
4.18566e-05
5.7248e-05
7.44538e-05
9.43175e-05
0.000117252
0.000143496
0.000173367
0.000207232
0.000245347
0.000288069
0.000335758
0.000388351
0.000445385
0.000505928
0.000571836
0.000643657
0.000722351
0.000808337
0.000901534
0.00100101
0.00110644
0.0012185
0.0013355
0.00145534
0.00157586
0.00169303
0.00179802
0.00187635
0.00190604
0.00187632
0.00177245
0.00158694
0.00136023
0.00117863
0.000830904
0.000359622
8.23489e-05
8.65234e-06
4.64027e-07
1.10877e-07
1.09923e-07
1.19384e-07
1.35014e-07
1.16436e-07
1.40595e-09
5.11192e-09
6.82608e-08
4.30602e-07
1.63046e-06
4.44551e-06
9.62213e-06
1.75878e-05
2.84012e-05
4.19091e-05
5.73437e-05
7.45819e-05
9.44732e-05
0.000117368
0.000143573
0.000173365
0.000207128
0.000245196
0.000287867
0.000335483
0.000388182
0.000445423
0.000506361
0.000572641
0.000644598
0.000722798
0.000808252
0.000901329
0.0010018
0.00110846
0.00122074
0.00133908
0.00146126
0.00158447
0.00170558
0.00181944
0.00191241
0.00196216
0.00195857
0.00188667
0.00173446
0.00151661
0.00130752
0.00109866
0.000624703
0.000213314
3.75842e-05
3.26674e-06
2.15667e-07
1.0676e-07
1.119e-07
1.18801e-07
1.32316e-07
1.16053e-07
1.3992e-09
5.07945e-09
6.78219e-08
4.27899e-07
1.6215e-06
4.42777e-06
9.59677e-06
1.75641e-05
2.83927e-05
4.19299e-05
5.74116e-05
7.47058e-05
9.46466e-05
0.000117568
0.00014373
0.000173472
0.000207153
0.000245097
0.000287729
0.000335262
0.000387915
0.000445246
0.000506456
0.000573195
0.000645591
0.000723975
0.000808908
0.000901441
0.00100186
0.00110974
0.00122355
0.00134237
0.00146634
0.00159258
0.00171739
0.0018365
0.00194337
0.00201018
0.00202858
0.00198593
0.0018661
0.00167017
0.00144462
0.00126885
0.000898225
0.000416415
0.000113958
1.53066e-05
1.18768e-06
1.3635e-07
1.0658e-07
1.1255e-07
1.18081e-07
1.30256e-07
1.15862e-07
1.39332e-09
5.05134e-09
6.74063e-08
4.2536e-07
1.61225e-06
4.40627e-06
9.56359e-06
1.75247e-05
2.83611e-05
4.19215e-05
5.74417e-05
7.47967e-05
9.47989e-05
0.000117792
0.000143988
0.000173672
0.000207308
0.000245149
0.000287639
0.000335144
0.000387671
0.000444966
0.000506298
0.000573363
0.000646295
0.0007252
0.000810372
0.000902366
0.00100225
0.00111018
0.00122547
0.00134619
0.00147101
0.00159961
0.00172831
0.00185236
0.0019661
0.00205131
0.00208932
0.00207147
0.00198306
0.00181422
0.00159097
0.00139153
0.00115341
0.000672013
0.00024831
5.29783e-05
5.7676e-06
4.50352e-07
1.13254e-07
1.0663e-07
1.12813e-07
1.1773e-07
1.28066e-07
1.15724e-07
1.38841e-09
5.02801e-09
6.70477e-08
4.22995e-07
1.60373e-06
4.38396e-06
9.52295e-06
1.74725e-05
2.83067e-05
4.18825e-05
5.74396e-05
7.48396e-05
9.49169e-05
0.000117988
0.000144259
0.000173996
0.000207546
0.000245369
0.00028771
0.000335078
0.000387553
0.000444733
0.000506026
0.000573239
0.00064656
0.000726088
0.000811881
0.00090418
0.00100352
0.00111094
0.00122643
0.00134896
0.00147612
0.00160604
0.00173784
0.00186681
0.00198703
0.00208588
0.00214172
0.00214641
0.00208555
0.00194673
0.0017377
0.00151741
0.00134852
0.00092721
0.000446507
0.00013322
2.1673e-05
2.05579e-06
2.06845e-07
1.06842e-07
1.06815e-07
1.1302e-07
1.17413e-07
1.25949e-07
1.15624e-07
1.3845e-09
5.00903e-09
6.67572e-08
4.20931e-07
1.59561e-06
4.36326e-06
9.48085e-06
1.74082e-05
2.82335e-05
4.18128e-05
5.7397e-05
7.48402e-05
9.49741e-05
0.000118148
0.000144514
0.000174338
0.000207921
0.000245666
0.00028797
0.000335156
0.000387515
0.000444607
0.0005058
0.000572984
0.000646486
0.000726479
0.000812997
0.000906036
0.00100576
0.00111265
0.00122769
0.00135063
0.00148
0.00161281
0.00174653
0.00187952
0.0020059
0.00211665
0.00218751
0.00221148
0.0021762
0.00206567
0.00187933
0.00165283
0.00146685
0.00117477
0.00067734
0.000263041
6.17118e-05
8.08076e-06
7.29062e-07
1.32286e-07
1.04967e-07
1.07092e-07
1.13562e-07
1.18252e-07
1.22707e-07
1.15551e-07
1.38156e-09
4.99404e-09
6.65214e-08
4.19224e-07
1.58844e-06
4.3437e-06
9.442e-06
1.73415e-05
2.81432e-05
4.17189e-05
5.73181e-05
7.47933e-05
9.49771e-05
0.000118217
0.000144713
0.000174642
0.000208339
0.000246105
0.000288363
0.000335462
0.00038763
0.000444553
0.000505698
0.000572776
0.000646266
0.000726481
0.000813553
0.000907438
0.00100804
0.00111542
0.00122996
0.00135257
0.00148262
0.00161813
0.0017554
0.00189109
0.00202259
0.00214264
0.00222832
0.0022689
0.00225565
0.00217272
0.00201061
0.00179144
0.00158441
0.00140506
0.000919529
0.000440235
0.000138455
2.49137e-05
2.82522e-06
2.89716e-07
1.10825e-07
1.04308e-07
1.07922e-07
1.14211e-07
1.26345e-07
1.16521e-07
1.15497e-07
1.37942e-09
4.98392e-09
6.63435e-08
4.17902e-07
1.58274e-06
4.32641e-06
9.40495e-06
1.72801e-05
2.80498e-05
4.16022e-05
5.72105e-05
7.47002e-05
9.49286e-05
0.000118226
0.000144809
0.000174871
0.000208714
0.0002466
0.000288917
0.000335947
0.000388
0.000444742
0.000505674
0.000572706
0.000646088
0.00072631
0.00081366
0.000908205
0.0010098
0.00111821
0.00123339
0.00135555
0.00148544
0.00162199
0.00176257
0.0019026
0.00203779
0.0021643
0.00226426
0.00232036
0.00232595
0.00226774
0.00213228
0.00192658
0.00170358
0.00153264
0.00116134
0.000648091
0.000253478
6.23903e-05
9.11275e-06
9.6481e-07
1.5442e-07
1.04903e-07
1.04214e-07
1.09216e-07
1.14305e-07
1.29552e-07
1.12336e-07
1.1546e-07
1.37834e-09
4.97605e-09
6.62154e-08
4.16903e-07
1.57823e-06
4.3124e-06
9.372e-06
1.72215e-05
2.79641e-05
4.14812e-05
5.70763e-05
7.45699e-05
9.4816e-05
0.00011818
0.00014483
0.000175014
0.000209012
0.000247071
0.000289512
0.000336608
0.000388561
0.000445159
0.000505928
0.00057272
0.000646065
0.000726185
0.00081357
0.000908458
0.00101083
0.00112041
0.00123681
0.00135977
0.00148933
0.00162598
0.00176804
0.00191211
0.00205262
0.00218403
0.00229579
0.00236636
0.00238918
0.00235247
0.00224234
0.00205731
0.00183087
0.00164056
0.00138782
0.000877142
0.000406736
0.000128361
2.43592e-05
3.12024e-06
3.55625e-07
1.15806e-07
1.03358e-07
1.047e-07
1.10144e-07
1.15882e-07
1.26118e-07
1.11299e-07
1.15433e-07
1.3782e-09
4.97377e-09
6.61319e-08
4.1622e-07
1.5749e-06
4.30174e-06
9.34587e-06
1.71694e-05
2.78817e-05
4.13704e-05
5.69346e-05
7.44076e-05
9.46608e-05
0.00011804
0.000144768
0.00017505
0.000209184
0.000247449
0.000290064
0.000337332
0.000389308
0.000445786
0.000506436
0.000573054
0.000646134
0.000726227
0.000813518
0.000908483
0.00101129
0.0011218
0.00123955
0.00136396
0.00149453
0.00163099
0.00177355
0.00191968
0.00206508
0.00220296
0.00232431
0.00240766
0.00244595
0.00242895
0.00234205
0.00217838
0.00195953
0.00175125
0.00158446
0.00110877
0.000590642
0.000226494
5.48621e-05
8.63244e-06
1.0376e-06
1.70986e-07
1.05397e-07
1.03181e-07
1.05569e-07
1.12112e-07
1.15337e-07
1.23188e-07
1.10768e-07
1.15415e-07
1.37892e-09
4.97515e-09
6.61206e-08
4.1576e-07
1.5726e-06
4.29397e-06
9.32596e-06
1.71284e-05
2.78094e-05
4.1265e-05
5.68082e-05
7.4243e-05
9.44654e-05
0.000117855
0.000144623
0.000174971
0.00020924
0.000247659
0.000290518
0.000337986
0.000390158
0.000446614
0.000507187
0.00057367
0.000646559
0.000726364
0.000813649
0.000908536
0.00101147
0.00112251
0.00124138
0.00136738
0.00149966
0.0016374
0.00177998
0.00192714
0.00207531
0.00221911
0.00235044
0.00244509
0.00249746
0.00249776
0.00243293
0.00229114
0.00208347
0.0018619
0.00169034
0.00132863
0.000801718
0.000353586
0.000108214
2.04347e-05
2.86381e-06
3.70103e-07
1.19141e-07
1.02968e-07
1.03301e-07
1.07257e-07
1.12706e-07
1.15525e-07
1.18085e-07
1.10471e-07
1.15405e-07
1.37946e-09
4.97915e-09
6.61511e-08
4.15732e-07
1.57123e-06
4.28868e-06
9.31153e-06
1.70975e-05
2.77527e-05
4.11719e-05
5.669e-05
7.40909e-05
9.4265e-05
0.000117627
0.000144408
0.000174822
0.000209171
0.00024775
0.000290796
0.000338543
0.000390927
0.000447509
0.000508157
0.000574565
0.000647307
0.000726906
0.00081388
0.000908788
0.00101167
0.00112292
0.00124245
0.00136978
0.00150391
0.00164369
0.00178787
0.00193531
0.00208527
0.00223269
0.00237112
0.00247929
0.00254428
0.00256055
0.00251502
0.00239582
0.00220397
0.00197791
0.00179135
0.00153395
0.00101025
0.000513769
0.000187197
4.33135e-05
6.95137e-06
9.27042e-07
1.72545e-07
1.05814e-07
1.02412e-07
1.04315e-07
1.08673e-07
1.1315e-07
1.2424e-07
1.10555e-07
1.10311e-07
1.154e-07
1.38089e-09
4.98407e-09
6.62168e-08
4.15982e-07
1.57138e-06
4.28564e-06
9.30217e-06
1.70754e-05
2.77107e-05
4.11004e-05
5.6588e-05
7.39456e-05
9.40873e-05
0.000117379
0.000144144
0.000174581
0.000209001
0.00024771
0.000290917
0.000338906
0.00039157
0.000448299
0.000509205
0.000575699
0.000648367
0.000727806
0.000814562
0.000909141
0.00101208
0.00112332
0.00124315
0.0013713
0.00150703
0.00164897
0.00179557
0.00194505
0.00209554
0.00224563
0.00238888
0.00250925
0.00258706
0.00261784
0.00259025
0.00249123
0.00231836
0.00209623
0.00189327
0.0017259
0.00122249
0.000685595
0.000290282
8.27522e-05
1.53103e-05
2.22425e-06
3.28777e-07
1.18757e-07
1.02613e-07
1.03012e-07
1.0498e-07
1.09754e-07
1.13287e-07
1.24273e-07
1.0803e-07
1.1022e-07
1.15397e-07
1.38236e-09
4.99094e-09
6.62961e-08
4.16404e-07
1.57234e-06
4.2863e-06
9.29715e-06
1.7062e-05
2.76816e-05
4.10483e-05
5.65115e-05
7.3825e-05
9.39183e-05
0.000117173
0.000143867
0.000174272
0.000208727
0.000247515
0.000290897
0.000339041
0.000391977
0.000448946
0.00051013
0.000576923
0.00064969
0.000729061
0.000815643
0.000909994
0.0010126
0.00112395
0.00124382
0.0013724
0.00150915
0.001653
0.00180213
0.00195447
0.00210756
0.00225886
0.00240559
0.00253614
0.0026256
0.00267024
0.00265933
0.00257943
0.0024242
0.00221131
0.00199557
0.00182583
0.00142679
0.000878116
0.000413482
0.000141514
3.08675e-05
4.97597e-06
7.07141e-07
1.58777e-07
1.0535e-07
1.02502e-07
1.03373e-07
1.05965e-07
1.10664e-07
1.13358e-07
1.2085e-07
1.07185e-07
1.1017e-07
1.15395e-07
1.38301e-09
4.99797e-09
6.63943e-08
4.16934e-07
1.57393e-06
4.28916e-06
9.29941e-06
1.70551e-05
2.76637e-05
4.10121e-05
5.64582e-05
7.374e-05
9.37718e-05
0.000116987
0.000143618
0.00017397
0.000208372
0.000247204
0.000290686
0.000339009
0.000392142
0.000449325
0.000510895
0.000578006
0.000651118
0.000730606
0.000817124
0.000911292
0.00101366
0.00112466
0.00124473
0.00137343
0.00151077
0.00165589
0.00180729
0.0019626
0.00211907
0.00227352
0.00242245
0.00256089
0.00266094
0.0027176
0.00272261
0.00266122
0.002524
0.00232114
0.00209842
0.001919
0.00161655
0.00107026
0.000557775
0.000219251
5.68301e-05
1.03098e-05
1.53533e-06
2.59899e-07
1.14455e-07
1.02801e-07
1.02773e-07
1.03934e-07
1.06962e-07
1.11506e-07
1.15028e-07
1.13119e-07
1.06741e-07
1.10144e-07
1.15395e-07
1.38504e-09
5.00271e-09
6.64929e-08
4.17553e-07
1.57595e-06
4.29343e-06
9.3056e-06
1.70601e-05
2.76567e-05
4.0993e-05
5.64251e-05
7.36797e-05
9.36693e-05
0.00011681
0.000143393
0.000173677
0.00020802
0.000246804
0.000290344
0.000338793
0.000392126
0.00044953
0.00051135
0.000578904
0.000652384
0.000732262
0.000818923
0.000913041
0.00101522
0.00112599
0.00124571
0.00137471
0.00151227
0.00165819
0.00181117
0.00196917
0.00212915
0.00228757
0.00244037
0.00258278
0.00269352
0.00276142
0.00278001
0.0027365
0.0026179
0.00242815
0.00220323
0.002012
0.00179536
0.00126344
0.000714053
0.000311768
9.61796e-05
1.96994e-05
3.1904e-06
4.88137e-07
1.38853e-07
1.0431e-07
1.02533e-07
1.0318e-07
1.04419e-07
1.08567e-07
1.12366e-07
1.21467e-07
1.06431e-07
1.06511e-07
1.10132e-07
1.15395e-07
1.38542e-09
5.01181e-09
6.65627e-08
4.18166e-07
1.57824e-06
4.29885e-06
9.31459e-06
1.70714e-05
2.76663e-05
4.09871e-05
5.64105e-05
7.36419e-05
9.36037e-05
0.000116682
0.000143203
0.000173403
0.000207698
0.000246388
0.000289896
0.000338427
0.000391912
0.000449507
0.000511607
0.000579453
0.000653438
0.000733742
0.000820848
0.00091513
0.00101727
0.00112785
0.00124736
0.00137603
0.00151404
0.00166032
0.00181434
0.00197431
0.00213748
0.00230001
0.00245749
0.00260467
0.00272393
0.00280188
0.00283317
0.00280515
0.00270494
0.00253043
0.00230907
0.00210444
0.00193501
0.00145312
0.000881493
0.000420499
0.00014898
3.50044e-05
6.19806e-06
9.55939e-07
1.96118e-07
1.09213e-07
1.02405e-07
1.02692e-07
1.03415e-07
1.05453e-07
1.10096e-07
1.12491e-07
1.2023e-07
1.04825e-07
1.06403e-07
1.10127e-07
1.15395e-07
1.38551e-09
5.01117e-09
6.67018e-08
4.18651e-07
1.58048e-06
4.30472e-06
9.32532e-06
1.70868e-05
2.76847e-05
4.10031e-05
5.64118e-05
7.36298e-05
9.357e-05
0.00011661
0.000143063
0.000173197
0.000207387
0.000246016
0.000289421
0.000337941
0.000391517
0.000449266
0.000511611
0.000579777
0.000654097
0.00073498
0.000822573
0.000917366
0.00101971
0.00113028
0.0012496
0.00137808
0.00151579
0.00166271
0.00181727
0.00197861
0.00214422
0.00231054
0.0024728
0.00262548
0.00275234
0.00284038
0.00288217
0.00286874
0.00278507
0.00262608
0.00241125
0.00219652
0.00202406
0.00163301
0.00105646
0.000543981
0.000215738
5.78887e-05
1.12804e-05
1.8285e-06
3.16541e-07
1.21979e-07
1.02877e-07
1.02261e-07
1.02686e-07
1.03877e-07
1.07051e-07
1.10869e-07
1.12356e-07
1.1234e-07
1.04129e-07
1.06356e-07
1.10125e-07
1.15395e-07
1.38537e-09
5.01145e-09
6.66814e-08
4.19446e-07
1.58225e-06