/*--------------------------------*- C++ -*----------------------------------*\
| =========                 |                                                 |
| \\      /  F ield         | OpenFOAM: The Open Source CFD Toolbox           |
|  \\    /   O peration     | Version:  v2012                                 |
|   \\  /    A nd           | Website:  www.openfoam.com                      |
|    \\/     M anipulation  |                                                 |
\*---------------------------------------------------------------------------*/
FoamFile
{
    version     2.0;
    format      ascii;
    class       volScalarField;
    location    "3800";
    object      betann;
}
// * * * * * * * * * * * * * * * * * * * * * * * * * * * * * * * * * * * * * //

dimensions      [0 0 0 0 0 0 0];


internalField   nonuniform List<scalar> 
29502
(
1.0104
1.01892
1.02626
1.01847
1.0302
1.0282
1.01814
1.02872
1.03081
1.02889
1.01795
1.02818
1.02607
1.03094
1.02916
1.01786
1.02795
1.02474
1.02203
1.03091
1.02927
1.01783
1.02784
1.02421
1.01966
1.01724
1.0308
1.02931
1.01781
1.0278
1.02398
1.01874
1.01368
1.01202
1.03068
1.02931
1.01782
1.02778
1.02389
1.01834
1.0123
1.00727
1.00678
1.03055
1.0293
1.01783
1.02779
1.02388
1.01822
1.01173
1.00544
1.00097
1.00188
1.03043
1.02928
1.01785
1.0278
1.0239
1.01821
1.01157
1.00471
0.998778
0.995266
0.997578
1.03031
1.02926
1.01786
1.02783
1.02395
1.01827
1.01157
1.00451
0.997909
0.992813
0.990417
0.993984
1.03021
1.02924
1.01788
1.02784
1.02401
1.01837
1.01169
1.00453
0.997686
0.991856
0.987801
0.986454
0.991053
1.03013
1.02921
1.01789
1.02786
1.02405
1.01847
1.01184
1.00469
0.997706
0.99161
0.986794
0.983743
0.983274
0.988666
1.03005
1.02918
1.01792
1.02788
1.02409
1.01856
1.012
1.00489
0.997904
0.991622
0.986528
0.982708
0.980505
0.980709
0.98675
1.03
1.02915
1.01793
1.0279
1.02414
1.01863
1.01213
1.0051
0.998136
0.991835
0.986524
0.982426
0.978891
0.976496
0.97765
0.985236
1.02996
1.02912
1.01795
1.02792
1.02419
1.01871
1.01224
1.00528
0.998377
0.992078
0.986737
0.982403
0.978429
0.974858
0.973073
0.975132
0.984072
1.02993
1.02909
1.01796
1.02794
1.02423
1.01882
1.01237
1.00543
0.998586
0.992333
0.986975
0.982608
0.978366
0.97427
0.970842
0.969936
0.973164
0.983211
1.02989
1.02905
1.01798
1.02795
1.02427
1.01889
1.01253
1.0056
0.998769
0.992555
0.98723
0.982833
0.978667
0.974165
0.970163
0.967703
0.967546
0.971658
0.98263
1.02989
1.02903
1.01799
1.02797
1.02431
1.01896
1.01263
1.0058
0.998966
0.992754
0.987452
0.98308
0.978993
0.974556
0.970028
0.966999
0.965309
0.965752
0.970539
0.982308
1.02993
1.02904
1.018
1.02798
1.02434
1.01903
1.01274
1.00594
0.999201
0.992967
0.987655
0.983294
0.979358
0.974876
0.970395
0.966841
0.964581
0.963504
0.964441
0.969738
0.982256
1.03
1.02908
1.01802
1.028
1.02438
1.01909
1.01285
1.00609
0.999362
0.993218
0.987872
0.983496
0.979674
0.975225
0.970783
0.967188
0.964406
0.962752
0.962165
0.963531
0.969217
0.982524
1.0301
1.02918
1.01803
1.02801
1.02441
1.01915
1.01293
1.00622
0.999534
0.993391
0.988125
0.98371
0.979979
0.975526
0.971219
0.967549
0.964736
0.962566
0.961391
0.9612
0.962963
0.96897
0.983179
1.0302
1.02939
1.01804
1.02802
1.02444
1.01921
1.01302
1.00633
0.999696
0.993577
0.9883
0.983957
0.980301
0.975824
0.971592
0.967964
0.965077
0.962882
0.961196
0.960405
0.960538
0.962691
0.969005
0.984295
1.0303
1.02972
1.01805
1.02803
1.02447
1.01925
1.01311
1.00646
0.999825
0.993752
0.98849
0.984129
0.980605
0.976138
0.971969
0.968318
0.965474
0.963207
0.961501
0.960199
0.959721
0.96013
0.962681
0.969333
0.985904
1.03037
1.03019
1.01806
1.02804
1.02449
1.0193
1.01317
1.00656
0.99997
0.993894
0.98867
0.984317
0.980772
0.976495
0.972375
0.968683
0.965812
0.963591
0.961814
0.960495
0.959501
0.959282
0.959941
0.962918
0.969979
0.987971
1.03041
1.03102
1.01807
1.02805
1.02451
1.01934
1.01324
1.00664
1.00009
0.994051
0.988817
0.984497
0.980956
0.976745
0.972827
0.969075
0.966167
0.963916
0.962188
0.9608
0.959788
0.959042
0.959047
0.959946
0.963405
0.970982
0.990554
1.03043
1.03252
1.01808
1.02807
1.02453
1.01937
1.0133
1.00673
1.00019
0.994183
0.988979
0.984645
0.981134
0.977024
0.973134
0.969511
0.966549
0.964262
0.962502
0.961166
0.960088
0.959322
0.958779
0.958982
0.960135
0.963706
0.972413
0.993706
1.03042
1.03611
1.01809
1.02808
1.02456
1.01941
1.01335
1.00681
1.00029
0.994289
0.989114
0.984806
0.981281
0.977294
0.973488
0.969806
0.966971
0.964636
0.962841
0.961472
0.960449
0.959616
0.95905
0.95868
0.959069
0.960506
0.964218
0.974378
0.997525
1.0304
1.04578
1.01809
1.02809
1.02458
1.01946
1.0134
1.00687
1.00039
0.994397
0.989224
0.984941
0.98144
0.977521
0.973832
0.970148
0.967255
0.965048
0.963211
0.961807
0.960748
0.959973
0.959338
0.958936
0.958722
0.9593
0.961071
0.965006
0.977032
1.00204
1.03037
1.03139
1.0181
1.02809
1.0246
1.0195
1.01347
1.00694
1.00046
0.994504
0.989335
0.985051
0.981572
0.977764
0.974123
0.970485
0.967588
0.965324
0.963615
0.962173
0.961079
0.960267
0.959691
0.959214
0.958952
0.95889
0.959671
0.961728
0.966148
0.980557
1.00717
1.03034
1.00384
1.01811
1.0281
1.02461
1.01953
1.01353
1.00702
1.00054
0.994584
0.989447
0.985163
0.981681
0.977966
0.974387
0.97077
0.967917
0.965648
0.963885
0.962571
0.961444
0.960596
0.959981
0.959562
0.959214
0.959082
0.959178
0.960193
0.962254
0.967729
0.983574
1.01265
1.0303
0.990674
1.01811
1.0281
1.02462
1.01955
1.01357
1.0071
1.00064
0.99467
0.98953
0.985276
0.981793
0.978134
0.974586
0.971078
0.968198
0.965971
0.964203
0.962837
0.961839
0.96096
0.960308
0.959847
0.959556
0.959323
0.959322
0.959584
0.960883
0.963012
0.969857
0.987027
1.01793
1.03027
0.990541
1.01812
1.02811
1.02464
1.01956
1.01359
1.00716
1.00072
0.994775
0.989621
0.985362
0.981906
0.978305
0.974752
0.971331
0.968502
0.96625
0.964521
0.963151
0.9621
0.961353
0.96067
0.960171
0.959835
0.959655
0.959536
0.959673
0.960117
0.961361
0.964069
0.972654
0.991062
1.02234
1.03024
0.995312
1.01813
1.02812
1.02465
1.01958
1.01361
1.00719
1.00079
0.99487
0.989728
0.985454
0.981993
0.97848
0.974922
0.971537
0.968749
0.966549
0.964797
0.963466
0.962412
0.961612
0.961062
0.960531
0.960155
0.959926
0.959854
0.959852
0.960139
0.960728
0.961976
0.96551
0.976283
0.995778
1.02555
1.03022
1.00152
1.01814
1.02813
1.02467
1.01961
1.01364
1.00721
1.00082
0.994941
0.989826
0.985561
0.982085
0.978616
0.975096
0.971753
0.968952
0.966793
0.965094
0.963739
0.962724
0.961921
0.961321
0.960923
0.960513
0.960243
0.960116
0.960151
0.960271
0.960721
0.961149
0.962814
0.967463
0.980905
1.00125
1.02768
1.0302
1.0142
1.01815
1.02814
1.02469
1.01964
1.01368
1.00724
1.00085
0.994979
0.989899
0.985659
0.982192
0.97876
0.975232
0.971977
0.969166
0.966994
0.965335
0.964033
0.962995
0.962231
0.961629
0.961182
0.960903
0.960597
0.960426
0.960399
0.960543
0.960795
0.961064
0.961717
0.963943
0.970077
0.984684
1.00729
1.02902
1.03017
1.03104
1.01815
1.02815
1.02471
1.01967
1.01372
1.00729
1.00089
0.995012
0.989941
0.985733
0.982289
0.978922
0.975377
0.972155
0.969389
0.967206
0.965534
0.964273
0.963287
0.962501
0.961936
0.961488
0.961162
0.960985
0.960774
0.9607
0.960772
0.961019
0.961108
0.961502
0.96247
0.965453
0.97352
0.989042
1.01335
1.02983
1.03015
1.04519
1.01816
1.02816
1.02473
1.0197
1.01376
1.00734
1.00094
0.995055
0.989977
0.985778
0.982363
0.979072
0.975538
0.972343
0.969567
0.967428
0.965745
0.964471
0.963526
0.962791
0.962204
0.961793
0.961467
0.961243
0.96116
0.961041
0.961061
0.961194
0.961278
0.961488
0.962068
0.963461
0.967471
0.977953
0.994048
1.01859
1.03027
1.03013
1.03981
1.01816
1.02816
1.02474
1.01973
1.01381
1.0074
1.00101
0.995113
0.990024
0.985818
0.982411
0.979189
0.975687
0.972553
0.969756
0.967607
0.965966
0.964681
0.963724
0.96303
0.962494
0.962059
0.961769
0.961546
0.961417
0.961423
0.961393
0.961416
0.961432
0.96162
0.961963
0.962796
0.964765
0.970159
0.982591
0.999773
1.02256
1.03048
1.03012
1.04124
1.01816
1.02817
1.02475
1.01975
1.01384
1.00745
1.00107
0.99518
0.990086
0.985867
0.982453
0.979267
0.975804
0.972742
0.969964
0.967797
0.966146
0.964902
0.963933
0.963227
0.962733
0.962348
0.962034
0.961846
0.961718
0.961679
0.961769
0.961667
0.96164
0.961747
0.962051
0.962553
0.963734
0.96649
0.973714
0.986924
1.00611
1.02538
1.03056
1.03011
1.01835
1.01817
1.02817
1.02476
1.01977
1.01388
1.0075
1.00113
0.99525
0.990155
0.985931
0.982505
0.979336
0.975885
0.972891
0.97015
0.968002
0.966338
0.965083
0.964154
0.963437
0.96293
0.962586
0.962319
0.962109
0.962016
0.961977
0.962018
0.961955
0.961879
0.961934
0.962143
0.962574
0.963292
0.964948
0.968779
0.978331
0.99187
1.01248
1.02736
1.03058
1.03011
0.997792
1.01817
1.02817
1.02477
1.01978
1.0139
1.00754
1.00119
0.995316
0.990228
0.986003
0.98257
0.97942
0.975957
0.972995
0.970299
0.968186
0.966541
0.965276
0.964336
0.963657
0.963138
0.962783
0.962557
0.962391
0.962275
0.962271
0.96225
0.962155
0.962158
0.962157
0.962304
0.962626
0.963207
0.964225
0.966531
0.971818
0.982978
0.997507
1.01794
1.02879
1.03058
1.03013
0.989093
1.01817
1.02817
1.02477
1.01979
1.01392
1.00757
1.00123
0.995373
0.990295
0.986075
0.982644
0.979524
0.976046
0.973089
0.970407
0.968335
0.966724
0.965479
0.964531
0.96384
0.963358
0.962991
0.962754
0.962628
0.962556
0.962527
0.962479
0.962384
0.962354
0.962426
0.962506
0.962754
0.963202
0.963981
0.965416
0.968614
0.975824
0.987454
1.00386
1.02204
1.02967
1.03058
1.03014
0.988485
1.01817
1.02817
1.02477
1.01979
1.01393
1.00759
1.00127
0.995424
0.990353
0.986143
0.982717
0.979639
0.976152
0.97321
0.970504
0.968445
0.966872
0.965661
0.964734
0.964037
0.963542
0.96321
0.962961
0.962825
0.962791
0.962804
0.962678
0.962608
0.962578
0.962614
0.962759
0.962929
0.963292
0.963887
0.964942
0.966953
0.971372
0.980955
0.992568
1.01051
1.025
1.03024
1.03059
1.03014
0.988447
1.01818
1.02817
1.02477
1.01979
1.01393
1.00761
1.00129
0.995462
0.990405
0.986201
0.982783
0.979751
0.976268
0.973354
0.970628
0.968546
0.966984
0.965809
0.964916
0.964241
0.96374
0.963394
0.963179
0.963031
0.962988
0.963012
0.96289
0.962803
0.962797
0.962831
0.962938
0.963162
0.963435
0.963924
0.964715
0.966155
0.968959
0.975024
0.985103
0.998399
1.01635
1.0271
1.03055
1.03059
1.03016
0.988415
1.01818
1.02818
1.02477
1.01979
1.01393
1.00761
1.00131
0.995488
0.990444
0.986253
0.982841
0.979854
0.97638
0.97351
0.970775
0.968674
0.967089
0.965921
0.965063
0.964423
0.963945
0.963592
0.963362
0.963248
0.963194
0.963168
0.963072
0.963012
0.962987
0.963043
0.963145
0.963327
0.963641
0.964029
0.96467
0.965732
0.967705
0.971601
0.979789
0.989887
1.00493
1.02086
1.02878
1.0307
1.03059
1.0302
0.988386
1.01818
1.02818
1.02478
1.0198
1.01393
1.0076
1.00131
0.995504
0.990472
0.986292
0.982893
0.979942
0.976482
0.973657
0.970931
0.968823
0.96722
0.96603
0.965177
0.96457
0.964127
0.963797
0.963559
0.96343
0.963408
0.963329
0.963228
0.963191
0.963191
0.963227
0.963349
0.963523
0.963787
0.964204
0.96472
0.965563
0.967004
0.969713
0.975087
0.984046
0.995392
1.01164
1.02419
1.02961
1.03076
1.03059
1.0303
0.988376
1.01819
1.02819
1.02479
1.01981
1.01394
1.0076
1.00131
0.995506
0.99049
0.986322
0.982933
0.980024
0.976571
0.973786
0.971078
0.968981
0.967371
0.966163
0.965288
0.964685
0.964274
0.963979
0.963765
0.963627
0.96359
0.963496
0.963388
0.963346
0.963367
0.963425
0.963525
0.963715
0.963967
0.964326
0.964859
0.96553
0.966657
0.968619
0.97234
0.979669
0.98864
1.00167
1.0173
1.02659
1.03023
1.03077
1.03059
1.03061
0.988564
1.0182
1.02819
1.0248
1.01982
1.01395
1.00761
1.00131
0.995505
0.990495
0.986341
0.982963
0.980086
0.976652
0.973874
0.97121
0.969129
0.967531
0.966317
0.965423
0.964797
0.96439
0.964127
0.963948
0.963832
0.963787
0.963637
0.963553
0.963505
0.963521
0.963597
0.963715
0.96388
0.964145
0.964485
0.964951
0.965614
0.9665
0.968017
0.970698
0.975815
0.983862
0.993913
1.00852
1.02156
1.02833
1.03059
1.03078
1.03059
1.03166
0.9912
1.0182
1.0282
1.02481
1.01984
1.01396
1.00762
1.00131
0.995509
0.990498
0.986351
0.982985
0.980136
0.976714
0.973955
0.971324
0.969261
0.967679
0.966477
0.965579
0.964934
0.964502
0.964243
0.964096
0.964017
0.963953
0.963788
0.963693
0.963668
0.963678
0.963749
0.963881
0.964062
0.964298
0.964645
0.965084
0.965668
0.966498
0.967683
0.969735
0.973421
0.980393
0.988359
0.999998
1.01491
1.02471
1.02946
1.03078
1.03078
1.03059
1.03861
1.01791
1.01821
1.02821
1.02483
1.01986
1.01399
1.00764
1.00133
0.995519
0.990505
0.986357
0.982998
0.980173
0.976766
0.974018
0.971427
0.969375
0.967812
0.966627
0.96574
0.96509
0.96464
0.964355
0.964211
0.964164
0.964097
0.963946
0.963843
0.963806
0.963838
0.963903
0.96403
0.964221
0.964467
0.964781
0.96522
0.965771
0.966495
0.967554
0.969154
0.971949
0.977018
0.984317
0.993539
1.00682
1.01989
1.027
1.03016
1.03085
1.03079
1.03059
1.02442
1.03197
1.01821
1.02821
1.02484
1.01988
1.01402
1.00768
1.00136
0.99554
0.990518
0.986368
0.983008
0.980198
0.976807
0.974072
0.971505
0.969477
0.967927
0.96676
0.96589
0.965253
0.964797
0.964493
0.964323
0.964279
0.964214
0.96409
0.964001
0.963956
0.963974
0.964061
0.964182
0.964365
0.964617
0.964936
0.965337
0.96588
0.966556
0.967464
0.968844
0.971015
0.974843
0.981429
0.988799
0.999565
1.01356
1.02351
1.0286
1.03059
1.03088
1.03079
1.0306
0.993203
1.0284
1.01822
1.02822
1.02486
1.01991
1.01405
1.00771
1.00139
0.995567
0.990542
0.986385
0.983023
0.980218
0.976837
0.974115
0.971573
0.969555
0.968028
0.966876
0.966025
0.965404
0.964961
0.964651
0.964461
0.964391
0.964306
0.964206
0.964145
0.964113
0.964122
0.964194
0.964335
0.964513
0.964756
0.965075
0.965474
0.965974
0.966631
0.967462
0.968628
0.970451
0.973411
0.978648
0.985275
0.993979
1.00638
1.01896
1.02617
1.02965
1.03081
1.03088
1.03078
1.0306
0.99243
1.02817
1.01822
1.02823
1.02487
1.01994
1.01409
1.00776
1.00143
0.995606
0.990572
0.986412
0.983044
0.980248
0.976863
0.974149
0.971629
0.969625
0.968107
0.966977
0.966141
0.96554
0.965113
0.964815
0.964619
0.964529
0.964394
0.964298
0.964261
0.964256
0.964279
0.96434
0.964464
0.964661
0.964898
0.965205
0.965598
0.966088
0.966697
0.967489
0.968532
0.970054
0.97249
0.976543
0.982654
0.989827
1.00004
1.01328
1.02285
1.02806
1.0303
1.03091
1.03089
1.03079
1.03062
0.992349
1.02813
1.01823
1.02823
1.02489
1.01996
1.01413
1.0078
1.00148
0.995651
0.990613
0.986444
0.983074
0.980285
0.976897
0.97418
0.971676
0.969683
0.968179
0.967057
0.966243
0.965657
0.965249
0.964967
0.964783
0.964687
0.9645
0.964386
0.964352
0.964372
0.964421
0.964494
0.964607
0.964786
0.96504
0.96534
0.965718
0.966194
0.966787
0.967517
0.968488
0.969825
0.971836
0.975123
0.980661
0.986667
0.995119
1.0069
1.01887
1.02571
1.02932
1.03069
1.03094
1.03089
1.03079
1.03069
0.992501
1.02811
1.01823
1.02824
1.0249
1.01998
1.01416
1.00785
1.00154
0.995703
0.990659
0.986487
0.983109
0.980337
0.97694
0.97422
0.97172
0.969735
0.968239
0.96713
0.966323
0.96576
0.965367
0.965104
0.964936
0.964819
0.964618
0.964491
0.96444
0.964462
0.964536
0.964636
0.964759
0.964924
0.965159
0.965475
0.965844
0.966301
0.966871
0.967577
0.96846
0.969678
0.971419
0.974109
0.978572
0.984185
0.99135
1.00135
1.01382
1.02281
1.02777
1.03012
1.03088
1.03095
1.03089
1.03079
1.03117
0.994112
1.0281
1.01823
1.02824
1.02491
1.02
1.01419
1.00789
1.00159
0.99576
0.990712
0.986534
0.983153
0.980393
0.976996
0.974268
0.97178
0.969784
0.968292
0.967192
0.966397
0.965839
0.965471
0.965223
0.965074
0.964934
0.964743
0.96461
0.964544
0.96455
0.964625
0.96475
0.964899
0.965073
0.965292
0.965587
0.965969
0.966415
0.966963
0.967636
0.968477
0.969572
0.971126
0.973425
0.977059
0.98232
0.988398
0.996836
1.00838
1.01937
1.02571
1.02915
1.03059
1.03097
1.03095
1.03089
1.03079
1.0396
1.01023
1.0281
1.01824
1.02824
1.02492
1.02002
1.01422
1.00793
1.00164
0.995816
0.990769
0.986586
0.9832
0.980463
0.977054
0.974327
0.971851
0.969849
0.968346
0.967248
0.96646
0.965913
0.96555
0.965327
0.965193
0.96504
0.964858
0.964734
0.964662
0.964653
0.964712
0.964838
0.965012
0.965211
0.965436
0.965713
0.966072
0.966528
0.967061
0.967708
0.968502
0.969524
0.970909
0.972925
0.975999
0.980913
0.986036
0.993275
1.00333
1.01518
1.02323
1.02779
1.03003
1.03086
1.03099
1.03095
1.03089
1.03079
1.01082
1.04701
1.02809
1.01824
1.02825
1.02492
1.02003
1.01424
1.00797
1.00168
0.995865
0.990825
0.986642
0.983251
0.980515
0.977126
0.974388
0.971937
0.969925
0.968416
0.967304
0.966519
0.965979
0.965624
0.965407
0.965298
0.965132
0.964964
0.964849
0.964785
0.96477
0.964814
0.964924
0.965099
0.965322
0.965572
0.965851
0.966189
0.96662
0.967159
0.967789
0.968548
0.969498
0.970771
0.972551
0.975206
0.979355
0.984172
0.990451
0.999046
1.01052
1.02041
1.02605
1.02919
1.03055
1.03097
1.031
1.03095
1.03089
1.0308
0.995959
1.0318
1.02809
1.01824
1.02825
1.02493
1.02004
1.01426
1.00799
1.00172
0.995911
0.990872
0.986695
0.983305
0.980566
0.977199
0.974462
0.972022
0.970015
0.968496
0.967378
0.966578
0.966039
0.96569
0.965481
0.965379
0.965215
0.965056
0.964955
0.9649
0.964893
0.96493
0.965025
0.965183
0.965408
0.96568
0.965983
0.966321
0.966727
0.967237
0.96787
0.968607
0.969506
0.970672
0.972287
0.974611
0.978155
0.982747
0.988209
0.995605
1.00586
1.01703
1.02403
1.02806
1.03006
1.03084
1.03102
1.031
1.03095
1.03089
1.03082
0.994573
1.03026
1.02809
1.01824
1.02825
1.02493
1.02005
1.01428
1.00802
1.00175
0.995951
0.990918
0.986741
0.983355
0.980617
0.977276
0.974533
0.972122
0.970103
0.96859
0.967463
0.966655
0.9661
0.96575
0.965547
0.965453
0.96528
0.965139
0.965048
0.965007
0.965007
0.965051
0.965139
0.965283
0.96549
0.965764
0.966088
0.966447
0.966849
0.967332
0.967933
0.968668
0.969533
0.970623
0.972085
0.974168
0.977246
0.981617
0.986369
0.992892
1.00177
1.0131
1.02173
1.02666
1.02937
1.03058
1.03098
1.03103
1.031
1.03095
1.03089
1.03109
0.997476
1.03008
1.02808
1.01824
1.02825
1.02493
1.02005
1.01429
1.00804
1.00178
0.995984
0.990957
0.986784
0.983399
0.980666
0.977353
0.97461
0.972221
0.970204
0.968681
0.96756
0.966743
0.966179
0.965813
0.965608
0.96552
0.96534
0.965205
0.965131
0.965099
0.965113
0.965164
0.965258
0.965394
0.965587
0.965845
0.96617
0.966549
0.966969
0.967443
0.968012
0.968712
0.969567
0.970604
0.971956
0.973823
0.976553
0.980675
0.984857
0.99069
0.998456
1.00889
1.01909
1.02501
1.02849
1.03019
1.03087
1.03104
1.03103
1.03099
1.03095
1.03089
1.0416
1.01834
1.03005
1.02808
1.01824
1.02825
1.02493
1.02006
1.0143
1.00805
1.0018
0.99601
0.990989
0.98682
0.98344
0.980708
0.977426
0.974685
0.972322
0.970304
0.968784
0.967653
0.966843
0.966269
0.965893
0.96567
0.96558
0.965394
0.965266
0.965198
0.965183
0.965205
0.96527
0.965369
0.965511
0.965696
0.965939
0.966248
0.966628
0.967066
0.967554
0.968108
0.968774
0.969586
0.970596
0.971868
0.973579
0.976004
0.979634
0.983657
0.988865
0.995742
1.00516
1.01589
1.02317
1.0274
1.02966
1.03066
1.031
1.03105
1.03103
1.03099
1.03095
1.0309
1.00667
1.04006
1.03004
1.02808
1.01824
1.02825
1.02493
1.02006
1.0143
1.00806
1.00181
0.996032
0.991014
0.986851
0.983473
0.980746
0.977487
0.974755
0.97242
0.970405
0.968885
0.96776
0.966938
0.966372
0.965985
0.965751
0.965642
0.965444
0.96532
0.965258
0.96525
0.965289
0.965362
0.965474
0.965621
0.96581
0.966045
0.966339
0.966703
0.967141
0.967645
0.968208
0.968855
0.969628
0.970581
0.971802
0.973394
0.975598
0.9788
0.982687
0.98733
0.99351
1.00184
1.01251
1.02114
1.02609
1.02899
1.03037
1.03092
1.03105
1.03106
1.03102
1.03099
1.03095
1.03091
0.997993
1.03113
1.03004
1.02808
1.01824
1.02825
1.02493
1.02006
1.0143
1.00806
1.00183
0.996049
0.991036
0.986875
0.983501
0.980777
0.977544
0.974813
0.972508
0.970501
0.968986
0.967861
0.967046
0.966469
0.96609
0.965844
0.965704
0.965492
0.965369
0.965312
0.96531
0.965357
0.965446
0.965566
0.965724
0.965917
0.966155
0.96644
0.96679
0.967213
0.967715
0.968291
0.968943
0.96969
0.970593
0.971739
0.973247
0.975276
0.978164
0.981897
0.986037
0.991677
0.999071
1.009
1.01883
1.02466
1.02816
1.02998
1.03077
1.03103
1.03107
1.03106
1.03102
1.03099
1.03095
1.03101
0.999677
1.03063
1.03004
1.02807
1.01824
1.02825
1.02493
1.02005
1.0143
1.00806
1.00183
0.996062
0.991053
0.986896
0.983524
0.980803
0.977588
0.974868
0.97258
0.970588
0.96908
0.967961
0.967148
0.966578
0.966187
0.965948
0.965773
0.965554
0.965418
0.965362
0.965365
0.965417
0.965514
0.96565
0.965816
0.966019
0.966259
0.966547
0.966886
0.967294
0.967782
0.968356
0.969015
0.969764
0.97063
0.971709
0.973117
0.975014
0.97765
0.981282
0.984958
0.990115
0.996792
1.00584
1.01614
1.02311
1.02719
1.02949
1.03056
1.03097
1.03107
1.03108
1.03106
1.03102
1.03099
1.03095
1.04907
1.03121
1.03057
1.03004
1.02807
1.01824
1.02825
1.02493
1.02005
1.01429
1.00806
1.00183
0.996068
0.991067
0.986913
0.983545
0.980826
0.977626
0.974909
0.972644
0.970657
0.969166
0.968056
0.96725
0.966681
0.966297
0.966047
0.965851
0.965624
0.965479
0.96541
0.965414
0.965472
0.965575
0.965718
0.965899
0.966109
0.966359
0.966647
0.966987
0.967385
0.967857
0.968417
0.969073
0.969824
0.970682
0.971708
0.973029
0.97479
0.977225
0.980701
0.984084
0.988779
0.994865
1.00304
1.01328
1.02146
1.0261
1.0289
1.03029
1.03088
1.03106
1.03108
1.03108
1.03105
1.03102
1.03099
1.03096
1.00932
1.03395
1.03056
1.03004
1.02807
1.01824
1.02825
1.02493
1.02005
1.01429
1.00806
1.00183
0.99607
0.991074
0.986927
0.983562
0.980846
0.977659
0.974943
0.972691
0.970717
0.969233
0.96814
0.967344
0.966783
0.966401
0.966158
0.965925
0.965702
0.965549
0.965471
0.965462
0.965521
0.965629
0.965779
0.965968
0.966193
0.966447
0.966744
0.967083
0.96748
0.96794
0.968484
0.969126
0.969872
0.970727
0.971729
0.972975
0.974622
0.976868
0.980048
0.983347
0.98764
0.993248
1.00062
1.01039
1.01958
1.02494
1.0282
1.02995
1.03074
1.03103
1.03108
1.03108
1.03107
1.03105
1.03102
1.03099
1.03101
1.00001
1.03095
1.03056
1.03003
1.02807
1.01825
1.02825
1.02492
1.02005
1.01429
1.00806
1.00183
0.99607
0.991078
0.986935
0.983575
0.980862
0.977689
0.974975
0.972729
0.970761
0.96929
0.968205
0.967428
0.966878
0.966505
0.966264
0.966007
0.965776
0.965628
0.965541
0.965523
0.965569
0.965679
0.965833
0.966028
0.966261
0.966529
0.96683
0.967176
0.96757
0.968028
0.968559
0.969184
0.969915
0.970762
0.971748
0.97295
0.974496
0.976586
0.979505
0.982724
0.986649
0.991873
0.998585
1.00764
1.01743
1.02372
1.02743
1.02955
1.03056
1.03097
1.03108
1.03109
1.03108
1.03107
1.03104
1.03102
1.03099
1.03989
1.02675
1.03079
1.03056
1.03003
1.02807
1.01825
1.02825
1.02493
1.02004
1.01429
1.00805
1.00182
0.996067
0.991078
0.986941
0.983584
0.980876
0.977715
0.975005
0.972764
0.970798
0.969331
0.96826
0.967492
0.966962
0.966601
0.966368
0.966085
0.96586
0.965703
0.96562
0.965593
0.965629
0.965726
0.965883
0.966083
0.966321
0.966598
0.966911
0.967259
0.967658
0.968111
0.968638
0.969248
0.969963
0.970793
0.971765
0.972933
0.974408
0.976361
0.979064
0.982208
0.985795
0.99067
0.99686
1.00519
1.01508
1.02241
1.02658
1.02908
1.03034
1.03089
1.03107
1.0311
1.0311
1.03109
1.03106
1.03104
1.03102
1.031
1.00857
1.03454
1.03077
1.03056
1.03003
1.02806
1.01825
1.02825
1.02493
1.02005
1.01428
1.00805
1.00182
0.996066
0.991078
0.986943
0.983591
0.980886
0.977736
0.97503
0.972797
0.970831
0.969366
0.9683
0.967545
0.967026
0.966685
0.966464
0.966163
0.965938
0.965787
0.965695
0.965671
0.965698
0.965785
0.965929
0.966132
0.966376
0.966658
0.966979
0.967338
0.967738
0.968194
0.968713
0.969317
0.970016
0.970829
0.97178
0.972921
0.974338
0.976186
0.978699
0.981782
0.985076
0.989617
0.995365
1.003
1.01276
1.02098
1.02567
1.02856
1.03008
1.03078
1.03105
1.0311
1.0311
1.0311
1.03109
1.03106
1.03104
1.03102
1.03132
1.00624
1.03103
1.03077
1.03055
1.03003
1.02806
1.01825
1.02825
1.02493
1.02005
1.01429
1.00804
1.00182
0.996064
0.991078
0.986945
0.983596
0.980894
0.977753
0.975052
0.972826
0.970862
0.969398
0.968333
0.967584
0.967079
0.966749
0.966529
0.966236
0.966016
0.965865
0.965779
0.965746
0.965776
0.965853
0.965988
0.966178
0.966425
0.966712
0.967038
0.967405
0.967814
0.968269
0.968789
0.969383
0.970074
0.970869
0.971799
0.97291
0.974283
0.976042
0.978402
0.981422
0.984464
0.988695
0.994078
1.00111
1.01041
1.0194
1.02473
1.02797
1.02978
1.03065
1.031
1.0311
1.03111
1.03111
1.0311
1.03109
1.03106
1.03104
1.03102
1.04606
1.04105
1.03089
1.03077
1.03055
1.03003
1.02806
1.01825
1.02825
1.02494
1.02006
1.0143
1.00806
1.00181
0.996066
0.991079
0.986947
0.983599
0.9809
0.977767
0.975069
0.972852
0.97089
0.969429
0.968363
0.967616
0.967116
0.966802
0.966579
0.9663
0.966089
0.965944
0.965858
0.96583
0.965851
0.96593
0.966055
0.966235
0.96647
0.966761
0.967092
0.967464
0.967879
0.968342
0.968859
0.969451
0.970129
0.970915
0.971822
0.972905
0.974235
0.975925
0.978155
0.981121
0.983933
0.987884
0.992969
0.99946
1.00822
1.01765
1.02376
1.02734
1.02944
1.03049
1.03094
1.03109
1.03111
1.03111
1.0311
1.0311
1.03108
1.03106
1.03104
1.03103
1.01121
1.03181
1.03088
1.03077
1.03055
1.03003
1.02806
1.01825
1.02826
1.02494
1.02006
1.0143
1.00806
1.00183
0.996054
0.991083
0.986951
0.983603
0.980905
0.977778
0.975084
0.972871
0.970916
0.969456
0.968393
0.967645
0.967147
0.966838
0.966622
0.966351
0.966154
0.966017
0.965937
0.965909
0.965935
0.966005
0.966131
0.966301
0.966526
0.966805
0.96714
0.967517
0.967937
0.968405
0.968927
0.969514
0.970187
0.970959
0.971852
0.972904
0.974197
0.975823
0.97795
0.980832
0.983481
0.987164
0.991983
0.998053
1.00621
1.01579
1.02274
1.02667
1.02907
1.03031
1.03087
1.03107
1.03112
1.03112
1.03111
1.0311
1.03109
1.03108
1.03106
1.03104
1.03745
1.02194
1.03099
1.03088
1.03077
1.03055
1.03003
1.02806
1.01825
1.02826
1.02494
1.02007
1.01431
1.00807
1.00184
0.996078
0.991072
0.986956
0.98361
0.980911
0.977789
0.975098
0.972889
0.970937
0.969482
0.96842
0.967674
0.967175
0.966869
0.966652
0.966394
0.966206
0.966083
0.966011
0.965989
0.966014
0.966088
0.966204
0.966375
0.96659
0.96686
0.967184
0.967565
0.967989
0.968461
0.968987
0.969576
0.970242
0.971006
0.971882
0.972911
0.974162
0.975736
0.977769
0.980503
0.983098
0.986534
0.991104
0.996813
1.00442
1.01391
1.02164
1.02597
1.02867
1.0301
1.03078
1.03105
1.03112
1.03112
1.03112
1.03111
1.0311
1.03109
1.03107
1.03106
1.03111
1.01319
1.0343
1.03095
1.03088
1.03077
1.03055
1.03003
1.02806
1.01826
1.02826
1.02495
1.02007
1.01432
1.00808
1.00185
0.996091
0.9911
0.986947
0.983617
0.980919
0.977802
0.975111
0.972904
0.970956
0.969504
0.968445
0.967699
0.967203
0.966896
0.966678
0.966425
0.966249
0.966135
0.966077
0.966062
0.966093
0.966166
0.966287
0.966448
0.966662
0.966922
0.967237
0.967608
0.968036
0.968512
0.969041
0.969633
0.970297
0.971052
0.971917
0.972922
0.974139
0.975657
0.977613
0.980213
0.982776
0.985994
0.990322
0.995715
1.00281
1.01207
1.02044
1.02527
1.02823
1.02988
1.03068
1.03101
1.03111
1.03113
1.03112
1.03112
1.03111
1.03111
1.03109
1.03107
1.03106
1.0314
1.02507
1.03107
1.03094
1.03088
1.03076
1.03055
1.03003
1.02805
1.01826
1.02826
1.02495
1.02008
1.01433
1.00809
1.00186
0.996105
0.991115
0.986977
0.983609
0.980929
0.977817
0.975126
0.972922
0.970972
0.969523
0.968466
0.967724
0.967228
0.966924
0.966702
0.96645
0.966279
0.966178
0.966129
0.966129
0.966167
0.966245
0.966364
0.966529
0.966733
0.966992
0.967297
0.967659
0.968078
0.968558
0.969091
0.969683
0.970348
0.971099
0.971952
0.97294
0.974121
0.975592
0.977471
0.979958
0.982491
0.985531
0.989629
0.994747
1.00138
1.01026
1.01914
1.02455
1.02776
1.02964
1.03057
1.03097
1.03111
1.03113
1.03113
1.03113
1.03112
1.03112
1.03111
1.03109
1.03107
1.03106
1.04693
1.03979
1.03099
1.03094
1.03088
1.03076
1.03055
1.03003
1.02805
1.01826
1.02826
1.02495
1.02009
1.01434
1.00811
1.00188
0.99612
0.991131
0.986995
0.983642
0.980923
0.977834
0.975144
0.972942
0.970991
0.96954
0.968487
0.967745
0.967252
0.966949
0.966726
0.966474
0.966305
0.966208
0.966172
0.966181
0.966233
0.966319
0.966443
0.966605
0.966814
0.967061
0.967364
0.967716
0.968128
0.968599
0.969136
0.96973
0.970395
0.971144
0.97199
0.97296
0.974114
0.975536
0.977351
0.979727
0.982238
0.985115
0.989018
0.993902
1.00013
1.00855
1.01774
1.0238
1.02728
1.02937
1.03044
1.03092
1.0311
1.03113
1.03114
1.03113
1.03113
1.03112
1.03112
1.0311
1.03108
1.03107
1.03112
1.01291
1.03113
1.03099
1.03094
1.03087
1.03076
1.03055
1.03002
1.02805
1.01826
1.02826
1.02496
1.0201
1.01435
1.00812
1.00189
0.996136
0.991147
0.987012
0.983662
0.980958
0.977828
0.975162
0.972967
0.971013
0.96956
0.968505
0.967767
0.967274
0.966973
0.966748
0.966497
0.966328
0.966234
0.966203
0.966225
0.966286
0.966386
0.966517
0.966683
0.966888
0.967139
0.967431
0.967781
0.968182
0.968646
0.969174
0.969773
0.970439
0.971185
0.972027
0.972985
0.974111
0.975494
0.977243
0.979527
0.982009
0.984741
0.988461
0.993156
0.999036
1.00698
1.01628
1.02302
1.02677
1.02909
1.0303
1.03086
1.03108
1.03113
1.03114
1.03114
1.03113
1.03113
1.03112
1.03111
1.0311
1.03108
1.03111
1.02761
1.03672
1.03103
1.03099
1.03094
1.03087
1.03076
1.03055
1.03002
1.02805
1.01826
1.02827
1.02496
1.02011
1.01436
1.00814
1.00191
0.996154
0.991166
0.98703
0.983681
0.980979
0.977885
0.975159
0.972995
0.971041
0.969584
0.968526
0.967786
0.967296
0.966994
0.966768
0.966519
0.966351
0.966257
0.966229
0.966256
0.96633
0.966439
0.966583
0.966756
0.966965
0.967212
0.967507
0.967845
0.968243
0.968697
0.969219
0.96981
0.970479
0.971224
0.972062
0.973011
0.974117
0.97546
0.977153
0.979347
0.981807
0.984401
0.987952
0.992477
0.998078
1.00556
1.01483
1.02219
1.02626
1.02879
1.03015
1.03079
1.03106
1.03113
1.03114
1.03114
1.03113
1.03113
1.03112
1.03112
1.03111
1.03109
1.03109
1.03146
1.02872
1.03115
1.03102
1.03099
1.03094
1.03087
1.03076
1.03055
1.03002
1.02804
1.01827
1.02827
1.02497
1.02012
1.01437
1.00815
1.00193
0.996173
0.991185
0.987049
0.9837
0.980999
0.97792
0.975218
0.972987
0.971072
0.969613
0.968551
0.967807
0.967315
0.967015
0.966787
0.966539
0.966373
0.96628
0.966252
0.966282
0.966362
0.966484
0.966637
0.966822
0.967037
0.967287
0.967578
0.967918
0.968304
0.968755
0.969267
0.969852
0.970513
0.97126
0.972094
0.973036
0.974127
0.975438
0.977075
0.979191
0.981626
0.984098
0.987485
0.991855
0.99722
1.0043
1.01342
1.0213
1.02574
1.02847
1.02999
1.03072
1.03103
1.03113
1.03114
1.03114
1.03114
1.03113
1.03113
1.03112
1.03111
1.0311
1.03109
1.03109
1.04917
1.03612
1.03105
1.03102
1.03099
1.03094
1.03087
1.03076
1.03055
1.03002
1.02804
1.01827
1.02827
1.02498
1.02013
1.01439
1.00817
1.00195
0.996193
0.991205
0.98707
0.983719
0.981019