/*--------------------------------*- C++ -*----------------------------------*\
| =========                 |                                                 |
| \\      /  F ield         | OpenFOAM: The Open Source CFD Toolbox           |
|  \\    /   O peration     | Version:  v2012                                 |
|   \\  /    A nd           | Website:  www.openfoam.com                      |
|    \\/     M anipulation  |                                                 |
\*---------------------------------------------------------------------------*/
FoamFile
{
    version     2.0;
    format      ascii;
    class       volScalarField;
    location    "3800";
    object      Fs;
}
// * * * * * * * * * * * * * * * * * * * * * * * * * * * * * * * * * * * * * //

dimensions      [0 0 0 0 0 0 0];


internalField   nonuniform List<scalar> 
29502
(
0
0.000104466
0
4.39251e-05
0.000502413
0
4.60569e-05
4.07325e-05
0.000855368
0
4.63044e-05
4.61955e-05
3.96581e-05
0.000872534
0
4.44666e-05
4.52126e-05
4.72975e-05
4.06763e-05
0.000729854
0
4.46981e-05
4.63369e-05
4.57296e-05
4.8685e-05
4.3626e-05
0.000511411
0
4.61445e-05
4.69713e-05
4.67796e-05
4.68031e-05
5.08516e-05
4.55647e-05
0.000412507
0
4.69525e-05
4.60287e-05
4.70471e-05
4.68266e-05
4.78238e-05
5.38065e-05
4.5288e-05
0.000287521
0
4.70957e-05
4.66008e-05
4.6388e-05
4.667e-05
4.74954e-05
4.89786e-05
5.78025e-05
4.50616e-05
0.000240592
3.33067e-16
4.75797e-05
4.64969e-05
4.67107e-05
4.73481e-05
4.75824e-05
4.83235e-05
5.04731e-05
6.27376e-05
4.39948e-05
0.000195069
1.8191e-13
4.83332e-05
4.65277e-05
4.631e-05
4.74373e-05
4.83721e-05
4.87029e-05
4.9338e-05
5.2193e-05
6.89078e-05
4.39719e-05
0.000137583
2.47187e-11
4.84695e-05
4.72097e-05
4.64209e-05
4.60768e-05
4.78735e-05
4.83967e-05
4.86296e-05
5.04513e-05
5.42046e-05
7.58653e-05
4.42605e-05
0.000127359
1.29793e-09
4.87341e-05
4.77912e-05
4.72796e-05
4.68593e-05
4.64949e-05
4.73975e-05
4.80229e-05
4.86411e-05
5.16615e-05
5.64644e-05
8.26887e-05
4.69874e-05
7.62689e-05
3.14664e-08
4.72439e-05
4.7946e-05
4.78698e-05
4.7679e-05
4.78762e-05
4.78518e-05
4.74284e-05
4.85909e-05
4.97363e-05
5.29532e-05
5.90054e-05
8.68958e-05
5.35475e-05
5.50385e-05
4.08763e-07
4.72626e-05
4.70223e-05
4.79713e-05
4.83163e-05
4.79616e-05
4.83662e-05
4.79606e-05
4.81609e-05
4.95382e-05
5.09434e-05
5.43328e-05
6.18312e-05
8.65607e-05
6.44481e-05
3.08922e-05
3.05793e-06
4.79756e-05
4.68898e-05
4.72038e-05
4.83685e-05
4.87194e-05
4.8048e-05
4.82028e-05
4.77036e-05
4.85801e-05
5.01643e-05
5.19557e-05
5.57911e-05
6.50263e-05
8.47224e-05
7.62487e-05
1.71e-05
1.46926e-05
4.87131e-05
4.74314e-05
4.72716e-05
4.75526e-05
4.87244e-05
4.90726e-05
4.81772e-05
4.82043e-05
4.78152e-05
4.88374e-05
5.07329e-05
5.30798e-05
5.7363e-05
6.85713e-05
8.20511e-05
7.79123e-05
1.21626e-05
5.90395e-05
4.67664e-05
4.80271e-05
4.76178e-05
4.78242e-05
4.78772e-05
4.9076e-05
4.93476e-05
4.89289e-05
4.83025e-05
4.79693e-05
4.91604e-05
5.13638e-05
5.42565e-05
5.90239e-05
7.31633e-05
8.32033e-05
7.30485e-05
4.68549e-06
0.000192667
4.52257e-05
4.71081e-05
4.81337e-05
4.81066e-05
4.82803e-05
4.81344e-05
4.93728e-05
4.95566e-05
4.96674e-05
4.83267e-05
4.81e-05
4.94288e-05
5.19457e-05
5.5487e-05
6.08877e-05
7.8483e-05
9.23655e-05
7.26852e-05
1.45402e-06
0.000498403
4.62541e-05
4.66062e-05
4.75821e-05
4.86223e-05
4.85458e-05
4.8707e-05
4.83066e-05
4.96009e-05
4.96767e-05
4.97813e-05
4.83317e-05
4.80595e-05
4.96913e-05
5.24984e-05
5.66907e-05
6.30869e-05
8.16917e-05
9.86565e-05
6.9296e-05
3.854e-07
0.00112421
4.87857e-05
4.68259e-05
4.71979e-05
4.80777e-05
4.90414e-05
4.89038e-05
4.90266e-05
4.83707e-05
4.97469e-05
4.97261e-05
4.96944e-05
4.83056e-05
4.8013e-05
4.99504e-05
5.30213e-05
5.77495e-05
6.54635e-05
8.30532e-05
9.58998e-05
5.89432e-05
8.7322e-08
0.0022582
4.95398e-05
4.72725e-05
4.73836e-05
4.73024e-05
4.84896e-05
4.94137e-05
4.91568e-05
4.9221e-05
4.83446e-05
4.98419e-05
4.97295e-05
4.95219e-05
4.82454e-05
4.80057e-05
5.02069e-05
5.34832e-05
5.86811e-05
6.80527e-05
8.61366e-05
8.3076e-05
4.31072e-05
2.25439e-08
0.00415868
5.0519e-05
4.7772e-05
4.73865e-05
4.78873e-05
4.76436e-05
4.88597e-05
4.96785e-05
4.9308e-05
4.93116e-05
4.82933e-05
4.98818e-05
4.96738e-05
4.93083e-05
4.81463e-05
4.80315e-05
5.04669e-05
5.39568e-05
5.92863e-05
7.03788e-05
9.36354e-05
7.33176e-05
2.48704e-05
7.61429e-09
0.00699779
5.07836e-05
4.8649e-05
4.77515e-05
4.85558e-05
4.83445e-05
4.79297e-05
4.9131e-05
4.98246e-05
4.93546e-05
4.93225e-05
4.82535e-05
4.98998e-05
4.95903e-05
4.91692e-05
4.80657e-05
4.81016e-05
5.07382e-05
5.45958e-05
5.98403e-05
7.19901e-05
0.000104075
6.58399e-05
1.00727e-05
2.67627e-09
0.0108991
4.91946e-05
4.91729e-05
4.85203e-05
4.8495e-05
4.92881e-05
4.87161e-05
4.81303e-05
4.93068e-05
4.98593e-05
4.93178e-05
4.92776e-05
4.79916e-05
4.99368e-05
4.95025e-05
4.90081e-05
4.80647e-05
4.82557e-05
5.10067e-05
5.53539e-05
6.09721e-05
7.33398e-05
0.00011132
7.04216e-05
2.78262e-06
9.42476e-10
0.0175378
4.67743e-05
4.83847e-05
4.90446e-05
4.92005e-05
4.93248e-05
4.96589e-05
4.89913e-05
4.82718e-05
4.93787e-05
4.98149e-05
4.92172e-05
4.91674e-05
4.75508e-05
4.97894e-05
4.94053e-05
4.8849e-05
4.79289e-05
4.8427e-05
5.12679e-05
5.60665e-05
6.22694e-05
7.47087e-05
0.000108051
6.34342e-05
5.08089e-07
3.16225e-10
0.0293111
4.53229e-05
4.70491e-05
4.84834e-05
4.9629e-05
4.98808e-05
5.0073e-05
4.99981e-05
4.91672e-05
4.83437e-05
4.93775e-05
4.9709e-05
4.90485e-05
4.9033e-05
4.73152e-05
4.95891e-05
4.92861e-05
4.86592e-05
4.77599e-05
4.85099e-05
5.15099e-05
5.66904e-05
6.32926e-05
7.5882e-05
9.71338e-05
5.56568e-05
6.09233e-08
9.60049e-11
0.0570024
4.39986e-05
4.6345e-05
4.74593e-05
4.90273e-05
5.01037e-05
5.03914e-05
5.0463e-05
5.02061e-05
4.92436e-05
4.83567e-05
4.93291e-05
4.95393e-05
4.88511e-05
4.88481e-05
4.71584e-05
4.94113e-05
4.91504e-05
4.84091e-05
4.76023e-05
4.84815e-05
5.17056e-05
5.72466e-05
6.40767e-05
7.65546e-05
7.73541e-05
4.74463e-05
5.29578e-09
2.54806e-11
0.146286
4.5075e-05
4.60173e-05
4.70963e-05
4.79033e-05
4.94069e-05
5.05242e-05
5.06883e-05
5.06397e-05
5.02927e-05
4.92624e-05
4.8328e-05
4.92446e-05
4.93331e-05
4.8595e-05
4.85705e-05
4.69101e-05
4.91804e-05
4.89524e-05
4.81926e-05
4.74312e-05
4.84509e-05
5.18739e-05
5.76386e-05
6.46004e-05
7.7287e-05
5.77391e-05
3.3527e-05
4.34805e-10
5.08932e-12
0.386929
4.52742e-05
4.60083e-05
4.71702e-05
4.74669e-05
4.81931e-05
4.9738e-05
5.08192e-05
5.08572e-05
5.0708e-05
5.03069e-05
4.92458e-05
4.82601e-05
4.91287e-05
4.91173e-05
4.82542e-05
4.8407e-05
4.66136e-05
4.8891e-05
4.87352e-05
4.79786e-05
4.72502e-05
4.83657e-05
5.19423e-05
5.78894e-05
6.46229e-05
7.78448e-05
4.95882e-05
1.72886e-05
5.31761e-11
6.81122e-13
0.843215
4.77105e-05
4.65334e-05
4.70843e-05
4.73757e-05
4.77734e-05
4.84768e-05
4.99691e-05
5.09958e-05
5.08948e-05
5.06579e-05
5.02658e-05
4.9181e-05
4.81708e-05
4.89774e-05
4.88403e-05
4.79403e-05
4.83413e-05
4.63059e-05
4.86198e-05
4.85364e-05
4.7725e-05
4.70942e-05
4.82075e-05
5.19932e-05
5.79258e-05
6.44481e-05
6.95968e-05
4.33022e-05
5.78627e-06
1.78514e-11
4.30767e-14
0.98485
4.99122e-05
4.6985e-05
4.71662e-05
4.72452e-05
4.76301e-05
4.8047e-05
4.8654e-05
5.0094e-05
5.10531e-05
5.08444e-05
5.05333e-05
5.01682e-05
4.908e-05
4.80038e-05
4.88019e-05
4.84337e-05
4.75467e-05
4.79376e-05
4.59787e-05
4.82916e-05
4.8338e-05
4.74268e-05
4.69934e-05
4.80657e-05
5.20523e-05
5.77636e-05
6.40713e-05
5.73443e-05
3.26407e-05
1.03139e-06
2.51053e-11
4.66294e-15
0.985355
5.11157e-05
4.7951e-05
4.70294e-05
4.78859e-05
4.77105e-05
4.79597e-05
4.82375e-05
4.875e-05
5.01164e-05
5.10097e-05
5.07169e-05
5.03512e-05
5.00209e-05
4.89336e-05
4.77653e-05
4.85533e-05
4.80059e-05
4.71364e-05
4.74509e-05
4.56239e-05
4.7831e-05
4.8101e-05
4.705e-05
4.68652e-05
4.79828e-05
5.17207e-05
5.72192e-05
6.09214e-05
4.99353e-05
2.22164e-05
7.48426e-08
1.2498e-10
1.36002e-14
0.943523
5.21206e-05
4.90353e-05
4.7811e-05
4.79292e-05
4.8428e-05
4.82105e-05
4.82277e-05
4.83464e-05
4.87883e-05
5.00633e-05
5.08806e-05
5.05195e-05
5.01174e-05
4.98279e-05
4.87708e-05
4.75594e-05
4.81893e-05
4.7642e-05
4.6693e-05
4.71198e-05
4.5249e-05
4.73363e-05
4.78261e-05
4.66179e-05
4.6511e-05
4.79504e-05
5.13181e-05
5.58206e-05
5.59566e-05
4.10139e-05
1.36307e-05
1.89092e-09
1.00376e-09
8.60423e-14
0.871017
5.24871e-05
4.96479e-05
4.8836e-05
4.87106e-05
4.92475e-05
4.87463e-05
4.84946e-05
4.84285e-05
4.83921e-05
4.87469e-05
4.99311e-05
5.06737e-05
5.02628e-05
4.98374e-05
4.95878e-05
4.85745e-05
4.7342e-05
4.78372e-05
4.72438e-05
4.62491e-05
4.67019e-05
4.48557e-05
4.68989e-05
4.74524e-05
4.61968e-05
4.58953e-05
4.78812e-05
5.05195e-05
5.38668e-05
5.02778e-05
2.96013e-05
6.4474e-06
3.06846e-11
1.01221e-08
5.73375e-13
0.6706
5.19481e-05
4.9909e-05
4.92377e-05
4.94582e-05
4.95145e-05
4.97669e-05
4.9076e-05
4.86926e-05
4.85502e-05
4.83886e-05
4.86491e-05
4.97376e-05
5.04028e-05
4.99465e-05
4.95143e-05
4.93299e-05
4.83159e-05
4.70712e-05
4.75582e-05
4.67893e-05
4.58106e-05
4.6283e-05
4.4435e-05
4.6468e-05
4.69968e-05
4.58046e-05
4.5119e-05
4.78381e-05
4.93568e-05
5.08146e-05
4.31724e-05
1.92957e-05
1.85104e-06
1.28209e-12
1.7308e-07
6.14681e-12
0.387372
5.05658e-05
4.96175e-05
4.94089e-05
4.97291e-05
4.99328e-05
5.00102e-05
4.97862e-05
4.9314e-05
4.88463e-05
4.86069e-05
4.83352e-05
4.84941e-05
4.9477e-05
5.00799e-05
4.95657e-05
4.91471e-05
4.90397e-05
4.8073e-05
4.67851e-05
4.72739e-05
4.6318e-05
4.53291e-05
4.58579e-05
4.39875e-05
4.60633e-05
4.6511e-05
4.53557e-05
4.41414e-05
4.72602e-05
4.79663e-05
4.67887e-05
3.47318e-05
1.15924e-05
2.14043e-07
3.85525e-13
7.67355e-07
1.09975e-10
0.149165
4.85328e-05
4.89755e-05
4.92076e-05
4.98655e-05
5.01601e-05
5.03269e-05
5.02799e-05
4.99935e-05
4.94733e-05
4.89796e-05
4.86234e-05
4.82389e-05
4.82951e-05
4.9184e-05
4.97208e-05
4.91734e-05
4.87106e-05
4.86881e-05
4.78041e-05
4.64847e-05
4.69231e-05
4.58333e-05
4.48302e-05
4.54159e-05
4.35112e-05
4.55978e-05
4.59752e-05
4.4803e-05
4.30966e-05
4.55929e-05
4.52828e-05
4.15875e-05
2.52899e-05
6.54925e-06
8.43217e-09
3.21265e-12
5.30913e-07
3.3749e-09
0.0879163
4.719e-05
4.79399e-05
4.8794e-05
4.96703e-05
5.02913e-05
5.05293e-05
5.06249e-05
5.04344e-05
5.00942e-05
4.95865e-05
4.90709e-05
4.8606e-05
4.81027e-05
4.80761e-05
4.88625e-05
4.9332e-05
4.87386e-05
4.82436e-05
4.83284e-05
4.7485e-05
4.61438e-05
4.65208e-05
4.53456e-05
4.43281e-05
4.495e-05
4.29946e-05
4.50609e-05
4.53743e-05
4.41388e-05
4.22446e-05
4.37165e-05
4.1769e-05
3.49105e-05
1.63665e-05
2.89316e-06
9.12692e-11
3.95225e-10
7.03982e-08
2.4568e-07
0.215076
4.57496e-05
4.72503e-05
4.8069e-05
4.92699e-05
5.00515e-05
5.06225e-05
5.07664e-05
5.07634e-05
5.05177e-05
5.0121e-05
4.96601e-05
4.91293e-05
4.85598e-05
4.79538e-05
4.78486e-05
4.85199e-05
4.89322e-05
4.82046e-05
4.77908e-05
4.8129e-05
4.71592e-05
4.57808e-05
4.61062e-05
4.48495e-05
4.38099e-05
4.44583e-05
4.24332e-05
4.44486e-05
4.46843e-05
4.33416e-05
4.1296e-05
4.15175e-05
3.74511e-05
2.72046e-05
9.38636e-06
6.95534e-07
1.17906e-12
1.56276e-07
8.84631e-09
9.19186e-07
0.599316
4.48713e-05
4.64853e-05
4.75994e-05
4.8553e-05
4.96404e-05
5.03765e-05
5.08295e-05
5.08735e-05
5.07978e-05
5.05034e-05
5.01222e-05
4.96873e-05
4.91599e-05
4.84836e-05
4.78066e-05
4.75521e-05
4.81266e-05
4.83651e-05
4.76896e-05
4.73177e-05
4.78326e-05
4.68026e-05
4.54017e-05
4.56803e-05
4.43427e-05
4.32739e-05
4.39352e-05
4.18146e-05
4.37506e-05
4.3879e-05
4.23756e-05
3.98206e-05
3.85275e-05
3.2061e-05
1.91728e-05
5.0759e-06
5.14512e-08
8.65974e-14
6.52753e-05
9.4734e-09
6.00962e-06
0.917889
4.51221e-05
4.65228e-05
4.71423e-05
4.8087e-05
4.89107e-05
4.9953e-05
5.05834e-05
5.09081e-05
5.0874e-05
5.0758e-05
5.04399e-05
5.00869e-05
4.96787e-05
4.91682e-05
4.83882e-05
4.75927e-05
4.71693e-05
4.76326e-05
4.79843e-05
4.71832e-05
4.68132e-05
4.71624e-05
4.64177e-05
4.49948e-05
4.52276e-05
4.38229e-05
4.27177e-05
4.33702e-05
4.11311e-05
4.29422e-05
4.29288e-05
4.11539e-05
3.77537e-05
3.48323e-05
2.58065e-05
1.19297e-05
2.34827e-06
1.28677e-09
5.49838e-13
0.00044838
9.35648e-09
4.84191e-05
0.994668
4.50564e-05
4.61442e-05
4.72838e-05
4.75902e-05
4.84581e-05
4.92251e-05
5.01443e-05
5.06694e-05
5.0892e-05
5.07905e-05
5.0636e-05
5.03202e-05
5.00125e-05
4.96416e-05
4.91554e-05
4.82752e-05
4.73085e-05
4.68345e-05
4.71549e-05
4.73235e-05
4.66365e-05
4.62948e-05
4.66841e-05
4.59973e-05
4.45609e-05
4.47625e-05
4.32875e-05
4.21339e-05
4.27536e-05
4.03623e-05
4.20047e-05
4.17971e-05
3.95526e-05
3.50782e-05
3.02447e-05
1.90257e-05
6.59476e-06
6.427e-07
6.33832e-12
1.67241e-10
0.000127147
3.80091e-09
0.000165037
0.999746
4.4851e-05
4.62125e-05
4.70101e-05
4.75782e-05
4.79724e-05
4.87915e-05
4.94254e-05
5.02208e-05
5.06606e-05
5.07933e-05
5.06326e-05
5.04545e-05
5.01537e-05
4.98911e-05
4.95744e-05
4.91136e-05
4.81445e-05
4.70629e-05
4.65144e-05
4.67383e-05
4.68333e-05
4.60871e-05
4.57618e-05
4.6197e-05
4.55447e-05
4.40813e-05
4.42724e-05
4.27312e-05
4.1517e-05
4.20724e-05
3.94992e-05
4.09084e-05
4.03994e-05
3.74608e-05
3.17329e-05
2.48818e-05
1.25087e-05
3.35922e-06
6.2261e-08
1.16906e-13
6.74899e-08
1.79158e-05
2.15406e-09
0.000185162
0.999886
4.62196e-05
4.6618e-05
4.70056e-05
4.73696e-05
4.80096e-05
4.83067e-05
4.90265e-05
4.95321e-05
5.02195e-05
5.05681e-05
5.06066e-05
5.03983e-05
5.02161e-05
4.99396e-05
4.97326e-05
4.94856e-05
4.90579e-05
4.79739e-05
4.68227e-05
4.61367e-05
4.62666e-05
4.63199e-05
4.55253e-05
4.5217e-05
4.56917e-05
4.50575e-05
4.35487e-05
4.37359e-05
4.21482e-05
4.08546e-05
4.13108e-05
3.85085e-05
3.96173e-05
3.86261e-05
3.48055e-05
2.76525e-05
1.8959e-05
7.24053e-06
1.46439e-06
1.92094e-09
4.37039e-13
0.00010289
9.07911e-06
4.86409e-09
0.000326675
0.999908
4.69736e-05
4.67382e-05
4.71495e-05
4.73588e-05
4.7743e-05
4.83642e-05
4.85362e-05
4.91579e-05
4.95692e-05
5.01468e-05
5.03865e-05
5.03441e-05
5.00984e-05
4.99249e-05
4.96808e-05
4.95417e-05
4.93707e-05
4.89766e-05
4.7782e-05
4.6533e-05
4.57415e-05
4.5772e-05
4.58035e-05
4.49607e-05
4.46642e-05
4.51588e-05
4.45335e-05
4.29855e-05
4.31495e-05
4.15294e-05
4.01351e-05
4.04508e-05
3.73782e-05
3.80419e-05
3.63833e-05
3.15276e-05
2.28889e-05
1.30549e-05
3.74926e-06
3.15554e-07
8.66557e-12
1.19067e-10
0.00164591
1.19425e-05
1.27114e-08
0.000627988
0.999844
4.77744e-05
4.712e-05
4.72682e-05
4.74281e-05
4.77127e-05
4.80924e-05
4.86505e-05
4.86859e-05
4.92147e-05
4.95313e-05
4.99861e-05
5.01399e-05
5.00299e-05
4.97563e-05
4.95862e-05
4.93817e-05
4.93223e-05
4.92224e-05
4.88766e-05
4.76105e-05
4.62263e-05
4.53536e-05
4.52919e-05
4.52772e-05
4.43951e-05
4.41012e-05
4.45955e-05
4.3969e-05
4.2392e-05
4.25201e-05
4.08622e-05
3.93399e-05
3.94641e-05
3.60657e-05
3.60942e-05
3.35994e-05
2.75683e-05
1.76334e-05
7.95029e-06
1.8783e-06
2.53727e-08
1.18294e-13
5.16051e-08
0.000193794
3.18152e-06
2.49805e-08
0.00142502
0.999592
4.83118e-05
4.75027e-05
4.74862e-05
4.77301e-05
4.78552e-05
4.80325e-05
4.83602e-05
4.88584e-05
4.88001e-05
4.92097e-05
4.94239e-05
4.97679e-05
4.98346e-05
4.96606e-05
4.93606e-05
4.92014e-05
4.90452e-05
4.90715e-05
4.90532e-05
4.87757e-05
4.74014e-05
4.5909e-05
4.49561e-05
4.48067e-05
4.47563e-05
4.38287e-05
4.35251e-05
4.3998e-05
4.33585e-05
4.1742e-05
4.1844e-05
4.01317e-05
3.84458e-05
3.83284e-05
3.44877e-05
3.3718e-05
3.0222e-05
2.29403e-05
1.23597e-05
4.30784e-06
6.80372e-07
5.6758e-10
5.83977e-13
7.14757e-06
6.12162e-05
1.29428e-06
7.25087e-08
0.00377342
0.997652
4.87236e-05
4.76934e-05
4.77003e-05
4.79497e-05
4.81464e-05
4.81902e-05
4.82964e-05
4.85498e-05
4.89827e-05
4.88581e-05
4.91434e-05
4.92666e-05
4.94908e-05
4.94797e-05
4.92485e-05
4.89266e-05
4.88104e-05
4.87142e-05
4.88068e-05
4.88753e-05
4.86268e-05
4.71627e-05
4.55759e-05
4.45471e-05
4.43255e-05
4.42468e-05
4.3262e-05
4.29348e-05
4.3363e-05
4.26954e-05
4.10284e-05
4.10892e-05
3.93211e-05
3.74262e-05
3.7005e-05
3.2554e-05
3.08545e-05
2.62107e-05
1.78155e-05
7.67064e-06
2.17233e-06
1.05362e-07
3.43769e-12
5.66144e-10
0.000411614
6.12562e-05
2.9404e-07
3.64783e-07
0.0117843
0.974589
4.88344e-05
4.78792e-05
4.77756e-05
4.81224e-05
4.83622e-05
4.84906e-05
4.8446e-05
4.84832e-05
4.8702e-05
4.90548e-05
4.887e-05
4.90284e-05
4.90589e-05
4.91674e-05
4.90925e-05
4.87918e-05
4.84905e-05
4.83021e-05
4.834e-05
4.85394e-05
4.868e-05
4.84216e-05
4.69173e-05
4.52272e-05
4.41331e-05
4.3845e-05
4.37415e-05
4.26917e-05
4.2326e-05
4.26882e-05
4.19768e-05
4.02448e-05
4.02435e-05
3.84034e-05
3.62445e-05
3.54166e-05
3.02183e-05
2.74823e-05
2.16132e-05
1.26148e-05
4.24729e-06
9.07898e-07
4.84297e-09
2.88713e-13
4.56385e-07
0.000367012
4.49634e-05
9.50039e-08
2.28758e-06
0.0646928
0.60365
4.86265e-05
4.78758e-05
4.78913e-05
4.81688e-05
4.84963e-05
4.87062e-05
4.87424e-05
4.86313e-05
4.8626e-05
4.88187e-05
4.90782e-05
4.88411e-05
4.88754e-05
4.88118e-05
4.88112e-05
4.86572e-05
4.83421e-05
4.79985e-05
4.79043e-05
4.78987e-05
4.82192e-05
4.84353e-05
4.82248e-05
4.66486e-05
4.48607e-05
4.371e-05
4.33679e-05
4.3239e-05
4.21166e-05
4.16946e-05
4.19658e-05
4.11953e-05
3.93765e-05
3.92871e-05
3.7354e-05
3.48399e-05
3.34772e-05
2.74501e-05
2.35607e-05
1.66118e-05
7.96034e-06
2.15711e-06
1.90667e-07
4.76886e-11
1.81335e-11
2.13981e-05
0.000105287
3.058e-05
3.16573e-08
1.70293e-05
0.539949
0.0293947
4.83724e-05
4.7757e-05
4.78299e-05
4.82558e-05
4.85066e-05
4.87913e-05
4.89583e-05
4.89102e-05
4.87581e-05
4.87234e-05
4.88895e-05
4.90579e-05
4.87797e-05
4.86826e-05
4.85339e-05
4.84218e-05
4.82082e-05
4.78287e-05
4.74401e-05
4.73941e-05
4.74905e-05
4.79845e-05
4.81645e-05
4.80141e-05
4.63375e-05
4.44794e-05
4.32771e-05
4.28979e-05
4.27415e-05
4.15347e-05
4.10347e-05
4.11894e-05
4.03381e-05
3.84096e-05
3.81931e-05
3.61335e-05
3.31409e-05
3.11196e-05
2.42237e-05
1.91508e-05
1.16229e-05
4.47867e-06
9.628e-07
1.33417e-08
8.20233e-13
4.96074e-08
0.000126625
0.000121308
2.37177e-05
1.41337e-08
4.85965e-05
0.992246
0.00229163
4.81175e-05
4.76138e-05
4.77309e-05
4.81682e-05
4.8568e-05
4.87844e-05
4.89896e-05
4.9099e-05
4.90267e-05
4.88389e-05
4.87759e-05
4.89275e-05
4.90021e-05
4.86918e-05
4.84587e-05
4.82183e-05
4.80662e-05
4.77299e-05
4.72464e-05
4.69211e-05
4.69157e-05
4.70748e-05
4.75272e-05
4.78825e-05
4.77477e-05
4.59935e-05
4.40633e-05
4.28131e-05
4.2393e-05
4.22417e-05
4.09401e-05
4.03406e-05
4.03483e-05
3.93921e-05
3.73203e-05
3.69268e-05
3.46639e-05
3.10775e-05
2.8289e-05
2.05463e-05
1.44692e-05
7.25198e-06
2.29701e-06
2.35418e-07
3.12766e-10
5.21816e-12
8.95712e-06
0.000159691
8.36485e-05
1.51934e-05
2.33353e-08
7.33466e-05
0.998845
0.000562405
4.7735e-05
4.75158e-05
4.76159e-05
4.80572e-05
4.84487e-05
4.88199e-05
4.89669e-05
4.9095e-05
4.91655e-05
4.9097e-05
4.88791e-05
4.87979e-05
4.89399e-05
4.89157e-05
4.85812e-05
4.82174e-05
4.79282e-05
4.76242e-05
4.71881e-05
4.673e-05
4.64015e-05
4.63997e-05
4.66118e-05
4.71424e-05
4.75793e-05
4.74444e-05
4.56527e-05
4.3622e-05
4.23396e-05
4.19018e-05
4.17343e-05
4.03234e-05
3.9604e-05
3.94328e-05
3.83423e-05
3.60946e-05
3.54285e-05
3.28634e-05
2.85832e-05
2.49411e-05
1.64876e-05
9.97382e-06
4.0555e-06
1.00628e-06
1.99282e-08
4.83807e-12
1.09294e-08
3.47447e-05
0.000118533
6.7806e-05
7.82267e-06
6.86617e-08
0.000196208
0.999396
0.000269148
4.73e-05
4.73202e-05
4.75617e-05
4.79352e-05
4.82997e-05
4.86767e-05
4.89739e-05
4.90494e-05
4.91457e-05
4.91818e-05
4.91193e-05
4.88794e-05
4.87969e-05
4.89216e-05
4.87944e-05
4.84503e-05
4.79493e-05
4.758e-05
4.70638e-05
4.66938e-05
4.62063e-05
4.58394e-05
4.58715e-05
4.61387e-05
4.67259e-05
4.71984e-05
4.71049e-05
4.52718e-05
4.31879e-05
4.18735e-05
4.14215e-05
4.12112e-05
3.96772e-05
3.88079e-05
3.84326e-05
3.71761e-05
3.47011e-05
3.36459e-05
3.06699e-05
2.56174e-05
2.10836e-05
1.22844e-05
6.14409e-06
2.07227e-06
2.38198e-07
9.27192e-10
7.41873e-12
4.89085e-06
6.87873e-05
0.000146856
4.49689e-05
1.8002e-06
2.73983e-07
0.000729628
0.997918
0.000162699
4.68025e-05
4.71206e-05
4.74181e-05
4.78913e-05
4.8211e-05
4.85085e-05
4.88019e-05
4.90195e-05
4.90681e-05
4.91416e-05
4.91419e-05
4.91104e-05
4.88455e-05
4.87692e-05
4.88889e-05
4.86514e-05
4.8311e-05
4.76795e-05
4.71332e-05
4.66218e-05
4.61858e-05
4.56331e-05
4.5279e-05
4.53349e-05
4.56485e-05
4.62914e-05
4.67899e-05
4.67261e-05
4.48289e-05
4.27108e-05
4.13622e-05
4.08826e-05
4.06612e-05
3.89896e-05
3.79406e-05
3.73392e-05
3.5867e-05
3.30756e-05
3.15188e-05
2.80486e-05
2.21548e-05
1.67984e-05
8.32943e-06
3.46823e-06
8.52946e-07
1.68295e-08
2.50301e-11
8.78914e-09
4.23277e-05
7.85372e-05
0.000119888
4.29369e-05
3.7645e-07
1.41275e-06
0.0044406
0.983864
0.0001133
4.63545e-05
4.68546e-05
4.72908e-05
4.77585e-05
4.81734e-05
4.8427e-05
4.8623e-05
4.88262e-05
4.90077e-05
4.90267e-05
4.90844e-05
4.90616e-05
4.90752e-05
4.87875e-05
4.87197e-05
4.88375e-05
4.84775e-05
4.81288e-05
4.73694e-05
4.67647e-05
4.6198e-05
4.5643e-05
4.50762e-05
4.47146e-05
4.47924e-05
4.51389e-05
4.58265e-05
4.6341e-05
4.6303e-05
4.43534e-05
4.21779e-05
4.08075e-05
4.03191e-05
4.0068e-05
3.82508e-05
3.70102e-05
3.61294e-05
3.43709e-05
3.11399e-05
2.89858e-05
2.49242e-05
1.82302e-05
1.24349e-05
5.08423e-06
1.79842e-06
1.85557e-07
7.12726e-10
2.71505e-11
3.92901e-06
5.43855e-05
8.4024e-05
0.000119146
3.65347e-05
1.2497e-07
8.12793e-06
0.0686188
0.777209
8.67123e-05
4.60354e-05
4.66334e-05
4.71174e-05
4.76346e-05
4.80448e-05
4.83923e-05
4.85479e-05
4.8646e-05
4.87967e-05
4.89491e-05
4.8942e-05
4.89864e-05
4.8945e-05
4.9005e-05
4.87191e-05
4.86495e-05
4.87715e-05
4.83063e-05
4.79531e-05
4.70171e-05
4.64257e-05
4.57119e-05
4.51192e-05
4.45161e-05
4.41554e-05
4.42446e-05
4.4611e-05
4.5329e-05
4.58462e-05
4.58317e-05
4.38349e-05
4.16143e-05
4.02183e-05
3.97062e-05
3.94203e-05
3.74522e-05
3.59907e-05
3.474e-05
3.26239e-05
2.88435e-05
2.59848e-05
2.13232e-05
1.40091e-05
8.34585e-06
2.84687e-06
6.91195e-07
1.26832e-08
5.15442e-11
1.8857e-08
3.59255e-05
5.50371e-05
0.00010186
8.77298e-05
2.52357e-05
8.06597e-08
4.3185e-05
0.779417
0.159665
7.0991e-05
4.58231e-05
4.64623e-05
4.6992e-05
4.74754e-05
4.79416e-05
4.82772e-05
4.85202e-05
4.85888e-05
4.85996e-05
4.87209e-05
4.88285e-05
4.8809e-05
4.885e-05
4.88103e-05
4.88782e-05
4.86456e-05
4.85609e-05
4.86853e-05
4.8169e-05
4.77097e-05
4.67194e-05
4.60321e-05
4.52421e-05
4.45911e-05
4.39617e-05
4.36034e-05
4.36933e-05
4.40687e-05
4.47997e-05
4.53046e-05
4.53057e-05
4.32537e-05
4.09953e-05
3.95697e-05
3.90292e-05
3.87036e-05
3.65719e-05
3.48183e-05
3.3117e-05
3.05647e-05
2.61856e-05
2.25004e-05
1.72169e-05
9.87549e-06
5.18179e-06
1.46681e-06
1.27537e-07
4.6337e-10
1.71275e-10
5.66717e-06
4.90158e-05
6.10748e-05
0.000102983
6.86674e-05
1.26155e-05
1.37711e-07
7.91396e-05
0.977057
0.0134369
6.1149e-05
4.58456e-05
4.63403e-05
4.6885e-05
4.73557e-05
4.77807e-05
4.81728e-05
4.84085e-05
4.85352e-05
4.85518e-05
4.85021e-05
4.85823e-05
4.86646e-05
4.86387e-05
4.8679e-05
4.86629e-05
4.87129e-05
4.85603e-05
4.8457e-05
4.85728e-05
4.80536e-05
4.74163e-05
4.64162e-05
4.56429e-05
4.47742e-05
4.40699e-05
4.34109e-05
4.30526e-05
4.31351e-05
4.35095e-05
4.42342e-05
4.47137e-05
4.47204e-05
4.26117e-05
4.03109e-05
3.88519e-05
3.82713e-05
3.7888e-05
3.55532e-05
3.34453e-05
3.12138e-05
2.81677e-05
2.30942e-05
1.85674e-05
1.30254e-05
6.26315e-06
2.88987e-06
5.17587e-07
9.98038e-09
6.83213e-11
8.88958e-08
3.47225e-05
5.09456e-05
6.76616e-05
0.000122817
4.59491e-05
2.93435e-06
6.30957e-07
0.000265127
0.988958
0.00169831
5.4714e-05
4.58364e-05
4.64053e-05
4.67982e-05
4.72578e-05
4.76815e-05
4.80357e-05
4.8317e-05
4.84492e-05
4.8503e-05
4.84583e-05
4.83415e-05
4.83912e-05
4.84629e-05
4.84447e-05
4.8476e-05
4.84925e-05
4.85195e-05
4.84534e-05
4.83401e-05
4.84101e-05
4.79497e-05
4.71905e-05
4.60923e-05
4.52585e-05
4.43113e-05
4.35592e-05
4.2866e-05
4.25043e-05
4.25674e-05
4.29317e-05
4.36302e-05
4.40697e-05
4.40685e-05
4.19015e-05
3.95552e-05
3.80501e-05
3.74061e-05
3.69281e-05
3.43544e-05
3.18223e-05
2.89606e-05
2.53691e-05
1.96377e-05
1.43543e-05
8.95038e-06
3.63791e-06
1.28278e-06
8.06105e-08
3.40191e-10
1.22051e-09
1.01297e-05
4.65703e-05
5.33625e-05
7.88392e-05
0.000103817
4.22769e-05
7.61476e-07
3.93096e-06
0.00236772
0.963091
0.000367242
5.06044e-05
4.57742e-05
4.64125e-05
4.69046e-05
4.71784e-05
4.75944e-05
4.79341e-05
4.82044e-05
4.83836e-05
4.84388e-05
4.84242e-05
4.83123e-05
4.81393e-05
4.81601e-05
4.82169e-05
4.82151e-05
4.82602e-05
4.83051e-05
4.83165e-05
4.83469e-05
4.81982e-05
4.8251e-05
4.77982e-05
4.69706e-05
4.57783e-05
4.48738e-05
4.385e-05
4.30556e-05
4.23295e-05
4.19574e-05
4.19924e-05
4.23334e-05
4.29862e-05
4.33685e-05
4.33417e-05
4.11122e-05
3.87143e-05
3.71481e-05
3.64031e-05
3.57782e-05
3.29238e-05
2.98785e-05
2.63254e-05
2.21549e-05
1.57833e-05
1.02289e-05
5.81815e-06
1.94045e-06
2.87408e-07
7.72716e-09
1.26585e-10
6.39114e-07
3.26343e-05
4.74218e-05
5.695e-05
9.08299e-05
8.36413e-05
3.34838e-05
2.06733e-07
2.37768e-05
0.0823372
0.652748
0.000141369
4.82121e-05
4.55972e-05
4.63577e-05
4.69384e-05
4.73091e-05
4.75203e-05
4.78576e-05
4.81021e-05
4.82759e-05
4.83833e-05
4.83731e-05
4.82861e-05
4.81155e-05
4.7916e-05
4.79239e-05
4.79576e-05
4.79522e-05
4.80164e-05
4.80948e-05
4.81e-05
4.82071e-05
4.80533e-05
4.80847e-05
4.76213e-05
4.67092e-05
4.54551e-05
4.44943e-05
4.33996e-05
4.25615e-05
4.18002e-05
4.14077e-05
4.14061e-05
4.17096e-05
4.22961e-05
4.26129e-05
4.25341e-05
4.02403e-05
3.77749e-05
3.61284e-05
3.52287e-05
3.43815e-05
3.11979e-05
2.75857e-05
2.32494e-05
1.8535e-05
1.19329e-05
6.6174e-06
3.36407e-06
7.79219e-07
2.40426e-08
5.70048e-10
1.57826e-08
1.92595e-05
3.85531e-05
4.80642e-05
6.23281e-05
0.000106426
5.75261e-05
1.154e-05
2.86871e-07
7.28795e-05
0.846731
0.0723265
8.51145e-05
4.68617e-05
4.53598e-05
4.64203e-05
4.6895e-05
4.73635e-05
4.76799e-05
4.78083e-05
4.80483e-05
4.81871e-05
4.83002e-05
4.8335e-05
4.82501e-05
4.81037e-05
4.79011e-05
4.7656e-05
4.76436e-05
4.76819e-05
4.76839e-05
4.77643e-05
4.78656e-05
4.78734e-05
4.80271e-05
4.79502e-05
4.78786e-05
4.74485e-05
4.64609e-05
4.51377e-05
4.41012e-05
4.29599e-05
4.2072e-05
4.12749e-05
4.08535e-05
4.08053e-05
4.10556e-05
4.15623e-05
4.18014e-05
4.16366e-05
3.92762e-05
3.67232e-05
3.49481e-05
3.38163e-05
3.26783e-05
2.91338e-05
2.48629e-05
1.97628e-05
1.46795e-05
8.22691e-06
3.93157e-06
1.60704e-06
1.58882e-07
1.35121e-09
8.7913e-10
5.14323e-06
3.61327e-05
3.89443e-05
4.97315e-05
7.8385e-05
0.00011949
3.87024e-05
2.98274e-06
8.56959e-07
0.00016346
0.960025
0.00437674
6.36785e-05
4.61259e-05
4.52083e-05
4.62678e-05
4.6934e-05
4.73278e-05
4.77591e-05
4.79622e-05
4.8013e-05
4.81522e-05
4.82293e-05
4.82702e-05
4.82323e-05
4.80947e-05
4.78837e-05
4.76485e-05
4.73338e-05
4.72974e-05
4.73503e-05
4.73815e-05
4.74985e-05
4.76435e-05
4.76689e-05
4.78468e-05
4.78032e-05
4.76966e-05
4.72435e-05
4.61809e-05
4.48083e-05
4.37191e-05
4.25177e-05
4.15859e-05
4.07506e-05
4.02878e-05
4.01846e-05
4.03746e-05
4.07841e-05
4.09434e-05
4.06411e-05
3.81927e-05
3.55261e-05
3.35553e-05
3.21009e-05
3.05984e-05
2.66385e-05
2.17169e-05
1.59081e-05
1.08388e-05
5.40808e-06
2.10396e-06
3.90481e-07
1.9279e-08
4.24576e-10
2.20342e-07
3.78086e-05
4.05555e-05
3.88012e-05
5.42157e-05
0.000102277
0.000125875
3.89925e-05
8.38899e-07
4.57811e-06
0.000989708
0.937966
0.000567701
5.39307e-05
4.57383e-05
4.52954e-05
4.62138e-05
4.67986e-05
4.73335e-05
4.77324e-05
4.8089e-05
4.81786e-05
4.81452e-05
4.82006e-05
4.82187e-05
4.81911e-05
4.80893e-05
4.78878e-05
4.7643e-05
4.73275e-05
4.70009e-05
4.69636e-05
4.70075e-05
4.70469e-05
4.71861e-05
4.7401e-05
4.74342e-05
4.76005e-05
4.76046e-05
4.75237e-05
4.70108e-05
4.59106e-05
4.4486e-05
4.33517e-05
4.20793e-05
4.11025e-05
4.02257e-05
3.97084e-05
3.95439e-05
3.9669e-05
3.99646e-05
4.00126e-05
3.95253e-05
3.69738e-05
3.41418e-05
3.19046e-05
3.0024e-05
2.80709e-05
2.36793e-05
1.80858e-05
1.20012e-05
7.44816e-06
3.20834e-06
8.41877e-07
4.29383e-08
1.5885e-09
1.49164e-08
1.5574e-05
4.55611e-05
4.01949e-05
3.77876e-05
5.49536e-05
0.000125162
0.000122268
2.94183e-05
4.76842e-07
4.31974e-05
0.144495
0.441415
0.000161874
4.92049e-05
4.55466e-05
4.52511e-05
4.61775e-05
4.674e-05
4.72211e-05
4.77485e-05
4.80602e-05
4.8321e-05
4.83211e-05
4.8231e-05
4.82089e-05
4.81627e-05
4.80748e-05
4.79166e-05
4.76783e-05
4.73395e-05
4.70149e-05
4.66629e-05
4.6626e-05
4.66682e-05
4.67228e-05
4.68768e-05
4.71146e-05
4.71814e-05
4.73653e-05
4.74133e-05
4.73495e-05
4.67767e-05
4.56525e-05
4.41734e-05
4.29676e-05
4.16386e-05
4.0611e-05
3.96924e-05
3.91141e-05
3.88885e-05
3.89368e-05
3.90796e-05
3.89776e-05
3.82842e-05
3.55997e-05
3.25355e-05
2.99439e-05
2.75602e-05
2.50121e-05
2.01649e-05
1.4269e-05
8.29425e-06
4.74124e-06
1.60626e-06
1.56087e-07
3.47249e-09
1.77053e-09
3.33354e-06
4.1668e-05
4.59477e-05
3.95986e-05
3.56664e-05
5.19552e-05
0.000115716
8.25297e-05
9.54648e-06
1.24431e-06
0.000112899
0.811382
0.0242911
8.11272e-05
4.70147e-05
4.54583e-05
4.53082e-05
4.62027e-05
4.66998e-05
4.71483e-05
4.76219e-05
4.8055e-05
4.83087e-05
4.84719e-05
4.83986e-05
4.82766e-05
4.81708e-05
4.80715e-05
4.79245e-05
4.77075e-05
4.74402e-05
4.70273e-05
4.66987e-05
4.62928e-05
4.6253e-05
4.63061e-05
4.63912e-05
4.65669e-05
4.68324e-05
4.69475e-05
4.71624e-05
4.72108e-05
4.71513e-05
4.65444e-05
4.53578e-05
4.38375e-05
4.25775e-05
4.11889e-05
4.01068e-05
3.91449e-05
3.8508e-05
3.82123e-05
3.8155e-05
3.81151e-05
3.78382e-05
3.69021e-05
3.4019e-05
3.06575e-05
2.76607e-05
2.46146e-05
2.14419e-05
1.63165e-05
1.03608e-05
5.36578e-06
2.49383e-06
4.21109e-07
1.59829e-08
1.23237e-09
2.49562e-07
3.11315e-05
4.57794e-05
4.61432e-05
4.0181e-05
3.50542e-05
5.04269e-05
7.66706e-05
3.70294e-05
1.88446e-06
6.20825e-06
0.000503523
0.935504
0.00141599
5.84263e-05
4.60428e-05
4.54202e-05
4.56117e-05
4.62405e-05
4.67188e-05
4.7106e-05
4.75507e-05
4.79494e-05
4.82893e-05
4.84579e-05
4.85885e-05
4.84253e-05
4.82727e-05
4.80991e-05
4.79396e-05
4.77414e-05
4.74944e-05
4.71307e-05
4.67058e-05
4.63421e-05
4.59134e-05
4.58674e-05
4.59324e-05
4.60346e-05
4.62314e-05
4.65493e-05
4.66973e-05
4.69289e-05
4.69845e-05
4.69205e-05
4.628e-05
4.50516e-05
4.34895e-05
4.21737e-05
4.07291e-05
3.95867e-05
3.85871e-05
3.78835e-05
3.74889e-05
3.7304e-05
3.70771e-05
3.65727e-05
3.53401e-05
3.21718e-05
2.8487e-05
2.4972e-05
2.12524e-05
1.73641e-05
1.22617e-05
7.2046e-06
3.13484e-06
9.225e-07
6.38306e-08
2.6259e-09
3.78112e-08
1.41224e-05
4.23943e-05
4.54436e-05
4.82225e-05
4.28077e-05
4.38435e-05