/*--------------------------------*- C++ -*----------------------------------*\
| =========                 |                                                 |
| \\      /  F ield         | OpenFOAM: The Open Source CFD Toolbox           |
|  \\    /   O peration     | Version:  v2012                                 |
|   \\  /    A nd           | Website:  www.openfoam.com                      |
|    \\/     M anipulation  |                                                 |
\*---------------------------------------------------------------------------*/
FoamFile
{
    version     2.0;
    format      ascii;
    class       volScalarField;
    location    "3800";
    object      I1;
}
// * * * * * * * * * * * * * * * * * * * * * * * * * * * * * * * * * * * * * //

dimensions      [0 0 0 0 0 0 0];


internalField   nonuniform List<scalar> 
29502
(
5.53491e-06
1.39926e-07
0.00239598
1.30809e-07
8.47534e-05
0.0122197
1.83716e-07
7.23216e-05
0.00216067
0.0187947
2.24329e-07
9.73385e-05
0.00187597
0.0103169
0.0176224
2.49845e-07
0.000115036
0.00241181
0.010662
0.0247439
0.0146734
2.62953e-07
0.000125718
0.00274467
0.0127146
0.0289972
0.0400268
0.0118672
2.66825e-07
0.000131101
0.00288628
0.014396
0.0312523
0.0502026
0.055385
0.00881066
2.66137e-07
0.000132293
0.00295487
0.0150561
0.0332475
0.0544647
0.0637196
0.0732043
0.00613959
2.6124e-07
0.000131156
0.00300331
0.0147451
0.0360888
0.0531103
0.0719023
0.0755005
0.0831081
0.00430156
2.54489e-07
0.000128825
0.00297715
0.0147135
0.0363535
0.0541022
0.0737826
0.0770574
0.0904164
0.082034
0.00301398
2.48526e-07
0.000126247
0.00288204
0.0150867
0.0343707
0.0581222
0.0691205
0.08483
0.0831874
0.09589
0.0852078
0.00202744
2.44323e-07
0.000123614
0.00282554
0.0148659
0.0341146
0.0579811
0.0692625
0.0854214
0.0837039
0.0946128
0.0911322
0.0948296
0.001327
2.39549e-07
0.000121345
0.00281613
0.0141535
0.035574
0.0538866
0.0747092
0.0787168
0.0915331
0.0868255
0.0973335
0.0933338
0.0952349
0.000869467
2.32092e-07
0.000119216
0.00277826
0.0139586
0.0351718
0.0534915
0.0744276
0.0786474
0.0915853
0.0869902
0.097038
0.0907738
0.103722
0.0864485
0.000568
2.26961e-07
0.000116362
0.00269795
0.0142756
0.0330449
0.0567717
0.0685819
0.0852459
0.0840119
0.0949598
0.0888818
0.0984854
0.091738
0.104613
0.0851706
0.000361706
2.21916e-07
0.000114152
0.00263993
0.0141095
0.0327897
0.0563762
0.0682524
0.0850036
0.0839008
0.0949496
0.088872
0.0984123
0.0906862
0.100868
0.0957702
0.0909721
0.000226406
2.17371e-07
0.000111633
0.0026365
0.0134348
0.0342416
0.05245
0.0733652
0.0780315
0.0912749
0.0869163
0.0971086
0.0899986
0.0989481
0.0908221
0.10105
0.0959177
0.0970263
0.000141317
2.13722e-07
0.000109656
0.00259578
0.0132818
0.0338445
0.0521516
0.0730943
0.0778256
0.0911117
0.0868316
0.0970607
0.0900199
0.0989035
0.0905261
0.0991809
0.0923294
0.105773
0.0860973
8.76009e-05
2.09292e-07
0.000108404
0.00252385
0.0135598
0.0318912
0.055295
0.0674672
0.084316
0.0835005
0.094667
0.0887862
0.0983981
0.0904808
0.0989223
0.0902989
0.0989889
0.092273
0.107019
0.0827607
5.35572e-05
2.05351e-07
0.000106524
0.00249568
0.0134166
0.0316348
0.0549815
0.067138
0.0841171
0.0833901
0.094579
0.0887243
0.098386
0.0904783
0.0989588
0.0902415
0.0982952
0.0904045
0.101125
0.0989967
0.0849975
3.23097e-05
2.02157e-07
0.00010455
0.00249624
0.0128873
0.0330371
0.0511929
0.072175
0.077244
0.0907168
0.0865931
0.0968785
0.0899539
0.0989584
0.0904969
0.0986774
0.0898783
0.0978238
0.0902444
0.101714
0.100662
0.0774283
1.93445e-05
1.99092e-07
0.000103193
0.00246587
0.0127625
0.0328423
0.0509394
0.0719081
0.0770727
0.0905469
0.0865236
0.0968145
0.0899207
0.0989503
0.0905227
0.0986849
0.0898593
0.0977431
0.0891479
0.098462
0.0936453
0.112078
0.0627555
1.15188e-05
1.96141e-07
0.000102158
0.00240852
0.0130578
0.031013
0.0541717
0.0664466
0.0834637
0.0830225
0.0943137
0.0885703
0.0982634
0.0904683
0.099014
0.0902846
0.0982359
0.0893845
0.0972207
0.0888278
0.0984071
0.0944458
0.111473
0.0530725
6.74221e-06
1.94094e-07
0.000100903
0.00238504
0.0129641
0.030829
0.0539206
0.0662778
0.0832895
0.0829131
0.0942302
0.0884989
0.0982336
0.0904463
0.0990212
0.0903102
0.0982801
0.0893834
0.0971048
0.0885403
0.0967222
0.0901845
0.104691
0.0984507
0.0454899
3.89694e-06
1.91861e-07
9.97602e-05
0.00239483
0.0124749
0.0322556
0.0503159
0.0712649
0.0766256
0.0901849
0.0862851
0.0966131
0.0897951
0.0989019
0.0905261
0.0987702
0.0899203
0.0977338
0.0888728
0.0965466
0.088118
0.0965393
0.0905357
0.106155
0.0953058
0.0339011
2.22427e-06
1.88772e-07
9.88081e-05
0.00237928
0.0123921
0.0320965
0.0501534
0.0710787
0.0764882
0.0900913
0.0862219
0.0965485
0.0897578
0.0988663
0.0905317
0.0987641
0.0899364
0.097764
0.0888982
0.096519
0.0879445
0.0958171
0.0883874
0.0996558
0.0981554
0.102826
0.0222263
1.25241e-06
1.85636e-07
9.77636e-05
0.00233107
0.0127267
0.0303932
0.053345
0.065784
0.0828597
0.0826422
0.0940122
0.088332
0.0980773
0.0903857
0.0989992
0.0903293
0.0983389
0.089464
0.0971725
0.0883679
0.0959564
0.0875549
0.0955468
0.0885117
0.100695
0.0999349
0.100602
0.0142385
6.96676e-07
1.83098e-07
9.64493e-05
0.00230811
0.0126624
0.0303
0.0531822
0.0656475
0.0827456
0.0825675
0.0939474
0.0882899
0.0980317
0.090355
0.098988
0.0903221
0.0983545
0.0894767
0.0971996
0.0883891
0.095944
0.0874223
0.0952233
0.0874189
0.0970203
0.0931672
0.112287
0.0877319
0.00867484
3.8707e-07
1.81711e-07
9.51403e-05
0.00231564
0.0121906
0.0317385
0.0497463
0.0706323
0.0761696
0.089825
0.0860613
0.0963909
0.0896375
0.0987862
0.0904916
0.0987777
0.0899501
0.0978206
0.0889577
0.096593
0.0878642
0.0953982
0.0870492
0.0949615
0.0874349
0.0976392
0.094619
0.114009
0.0826972
0.00468954
2.04829e-07
1.80634e-07
9.45792e-05
0.00229737
0.012108
0.0315885
0.0496384
0.0705404
0.0760787
0.0897493
0.0860128
0.0963437
0.0896003
0.098755
0.0904816
0.0987718
0.0899592
0.097818
0.0889676
0.0966
0.0878859
0.0953987
0.086984
0.0947412
0.0868773
0.0956402
0.0901292
0.105897
0.103211
0.083027
0.00230823
1.0295e-07
1.79432e-07
9.44084e-05
0.00225838
0.0124208
0.0299253
0.0527894
0.0653499
0.0824618
0.0823707
0.0937785
0.0881669
0.0979125
0.0902809
0.0989442
0.0903171
0.0983605
0.0894938
0.0972209
0.0884196
0.095986
0.0873826
0.0949425
0.0867455
0.0946363
0.0868585
0.096045
0.091181
0.108166
0.100514
0.0715011
0.00107972
4.95517e-08
1.77832e-07
9.39372e-05
0.00225181
0.0123891
0.0298223
0.0526277
0.065225
0.0823862
0.0823321
0.0937304
0.0881271
0.0978747
0.0902646
0.0989276
0.0903107
0.0983673
0.0894941
0.0972319
0.088411
0.0959748
0.0873814
0.0949469
0.0867223
0.0945804
0.0866875
0.0949329
0.088492
0.101439
0.100141
0.106323
0.0518306
0.000466315
2.28718e-08
1.75969e-07
9.30272e-05
0.00227387
0.0119923
0.0312816
0.0492339
0.0701619
0.0758629
0.0895844
0.0858949
0.0962175
0.089513
0.0986771
0.0904458
0.0987501
0.089961
0.0978406
0.0889694
0.0966104
0.087858
0.0953918
0.0869694
0.0946631
0.0866194
0.094541
0.0866838
0.0952349
0.0892641
0.103522
0.101871
0.102752
0.0359425
0.000206162
8.81435e-09
1.73838e-07
9.22333e-05
0.00226262
0.0119675
0.0312472
0.0491878
0.0700633
0.0757784
0.0895221
0.0858624
0.0961861
0.0894897
0.0986536
0.0904283
0.0987472
0.0899486
0.0978358
0.0889815
0.0966055
0.0878793
0.0953639
0.0869476
0.0946578
0.0866113
0.0944974
0.0865917
0.0946396
0.0876364
0.0988454
0.0963864
0.114127
0.0892794
0.0226071
9.88363e-05
2.53634e-09
1.71675e-07
9.15615e-05
0.00221965
0.0123005
0.0297081
0.0524229
0.0649786
0.0821201
0.0821774
0.0936205
0.0880382
0.0977844
0.0902047
0.0988748
0.0902892
0.0983509
0.0894898
0.0972393
0.0884301
0.095973
0.0873491
0.0948872
0.0866966
0.094533
0.0865539
0.0944633
0.0865878
0.0947436
0.0882455
0.100476
0.0985818
0.114059
0.0826955
0.0116966
4.51068e-05
6.23853e-10
1.69642e-07
9.0651e-05
0.00220394
0.0122494
0.0296484
0.0523841
0.0649532
0.0820859
0.0821363
0.0935812
0.0880062
0.0977568
0.090189
0.0988576
0.090276
0.0983458
0.089495
0.0972304
0.0884284
0.0959775
0.0873323
0.094895
0.0866675
0.0945098
0.0865442
0.0944407
0.0865107
0.0945566
0.0870395
0.0974453
0.0934157
0.11115
0.0998766
0.0796096
0.00551561
1.77045e-05
1.52419e-10
1.67766e-07
8.95516e-05
0.00221659
0.0118236
0.0310586
0.0490611
0.0699586
0.0756678
0.0893859
0.0857657
0.0960885
0.0894224
0.0985999
0.0903914
0.0987014
0.0899357
0.0978191
0.0889747
0.0966024
0.0878728
0.0953723
0.0869034
0.0946163
0.086554
0.094442
0.086497
0.0944197
0.0865036
0.094609
0.0875459
0.0987756
0.0955029
0.113079
0.0949167
0.0625492
0.00257997
6.74617e-06
2.08613e-11
1.66299e-07
8.87612e-05
0.00220133
0.0117668
0.0309592
0.0489785
0.0699053
0.075647
0.0893701
0.0857476
0.096068
0.0894015
0.0985888
0.0903811
0.0986942
0.0899264
0.0978062
0.0889653
0.0966025
0.0878583
0.0953685
0.0869129
0.0945982
0.0865635
0.0944106
0.0864643
0.0943914
0.0864749
0.0944797
0.0867644
0.0965484
0.0916648
0.107832
0.102791
0.100531
0.0395271
0.0011387
2.36493e-06
4.85215e-13
1.65244e-07
8.83751e-05
0.00215969
0.0120747
0.0293855
0.0521199
0.0648119
0.0820041
0.0820846
0.0935134
0.0879425
0.0976951
0.0901469
0.0988194
0.0902462
0.0983105
0.0894764
0.0972073
0.0884165
0.0959565
0.087314
0.094883
0.0866614
0.0944742
0.0864909
0.0943455
0.0864255
0.094381
0.0864807
0.0945268
0.0871478
0.0977265
0.0935044
0.110643
0.101633
0.0941226
0.0230147
0.00043006
5.65119e-07
7.24248e-15
1.64431e-07
8.79448e-05
0.00214912
0.0120233
0.0293015
0.0520147
0.0647343
0.0819543
0.0820631
0.0934977
0.0879257
0.0976653
0.0901338
0.0988126
0.0902312
0.0982934
0.0894645
0.0971992
0.0884006
0.0959469
0.0873086
0.0948524
0.0866642
0.0944726
0.0864688
0.0943472
0.0863744
0.0943314
0.086446
0.0944705
0.0866364
0.0960422
0.0905701
0.105345
0.101973
0.108695
0.0740551
0.0119907
0.000138468
9.84564e-08
1.49294e-14
1.64243e-07
8.74262e-05
0.0021697
0.0116272
0.0306872
0.0487007
0.0696598
0.0755173
0.0892993
0.0857059
0.0960152
0.0893434
0.0985385
0.0903531
0.0986723
0.0898993
0.0977677
0.0889378
0.0965584
0.087833
0.0953214
0.0868823
0.0945839
0.0865473
0.0943908
0.0864011
0.0943021
0.0863405
0.0943321
0.0864599
0.094525
0.0869257
0.0971568
0.0922284
0.108287
0.102672
0.103145
0.0579236
0.00523934
3.59239e-05
8.06037e-09
4.07165e-14
1.64213e-07
8.75945e-05
0.00213781
0.0119594
0.0291628
0.0518311
0.0645865
0.0818344
0.0820054
0.0934661
0.0879111
0.0976352
0.0901012
0.0987913
0.0902341
0.0982982
0.0894432
0.0971675
0.0883779
0.0959121
0.0872828
0.0948375
0.0866463
0.0944576
0.0864707
0.0943193
0.0863487
0.0942706
0.0863244
0.0943525
0.086488
0.0946473
0.0875229
0.0986092
0.0942897
0.111135
0.101286
0.0972677
0.0384017
0.0019464
6.69373e-06
4.86457e-10
5.55415e-14
1.64247e-07
8.74146e-05
0.00216549
0.011591
0.030582
0.0485559
0.0695042
0.075416
0.0892235
0.0856701
0.0959843
0.0893266
0.0984943
0.090324
0.0986426
0.0899073
0.097777
0.0889148
0.096521
0.0878042
0.0952833
0.0868561
0.0945713
0.0865334
0.0943691
0.0864035
0.0942623
0.0863094
0.09426
0.0863231
0.0943947
0.0865261
0.0949964
0.0884259
0.10047
0.0966936
0.113156
0.0972899
0.0871213
0.0213942
0.000559493
4.30413e-07
5.67564e-11
2.10843e-14
1.64104e-07
8.76907e-05
0.00214
0.0119509
0.0291122
0.0517221
0.0644669
0.0817233
0.0819415
0.0934113
0.0878728
0.0976123
0.0900766
0.098755
0.0902042
0.0982738
0.0894569
0.097171
0.0883418
0.0958544
0.0872504
0.0947963
0.0866254
0.0944465
0.0864521
0.0942942
0.0863459
0.094225
0.0862873
0.0942679
0.0863384
0.0944525
0.0866294
0.0957162
0.0896174
0.102801
0.0991685
0.113355
0.0922235
0.0629676
0.00900784
9.49444e-05
2.37483e-08
7.73895e-12
1.46484e-14
1.63802e-07
8.74589e-05
0.0021696
0.0116071
0.0305806
0.0485107
0.0694177
0.0753287
0.0891521
0.0856236
0.0959383
0.0892986
0.0984792
0.0903052
0.098622
0.0898805
0.0977699
0.0889363
0.0965201
0.0877459
0.0952154
0.0868261
0.0945434
0.0865158
0.0943581
0.0863786
0.0942312
0.0863051
0.094205
0.0862793
0.094295
0.0863675
0.0945239
0.086951
0.0967893
0.0911251
0.105581
0.101143
0.110287
0.0867425
0.0452285
0.00289079
7.49457e-06
2.37331e-08
9.59886e-14
1.25173e-12
1.63139e-07
8.75597e-05
0.00214293
0.0119757
0.0291489
0.05173
0.0644322
0.0816593
0.0818842
0.09337
0.0878389
0.0975844
0.0900653
0.0987442
0.0901848
0.0982461
0.0894282
0.0971785
0.0883728
0.0958474
0.0871839
0.0947434
0.0866088
0.094425
0.0864308
0.0942805
0.0863158
0.0941886
0.0862787
0.094205
0.0862871
0.0943425
0.0864072
0.0946913
0.0875824
0.0982021
0.093005
0.108547
0.101695
0.104863
0.0768729
0.0229227
0.000562415
4.1567e-07
1.42142e-10
2.96391e-15
1.61308e-12
1.62218e-07
8.70842e-05
0.00216905
0.0116263
0.0306339
0.0485579
0.0694267
0.0753036
0.0891078
0.0855919
0.0959033
0.0892786
0.0984677
0.0902993
0.0986139
0.0898556
0.0977183
0.0889029
0.0965353
0.0877832
0.0952043
0.0867727
0.0945154
0.0865021
0.0943313
0.0863557
0.0942136
0.0862704
0.094164
0.0862682
0.0942216
0.0863084
0.0944028
0.0864518
0.095153
0.0885098
0.0999883
0.0952235
0.11111
0.110932
0.0896841
0.0646282
0.00782639
5.08194e-05
8.14733e-08
9.01221e-11
2.2305e-12
1.01106e-14
1.60989e-07
8.6919e-05
0.00213749
0.0119805
0.0291928
0.0517966
0.0644769
0.0816654
0.0818651
0.0933376
0.0878064
0.0975503
0.090053
0.0987397
0.090188
0.0982337
0.089399
0.0971176
0.0883383
0.0958603
0.0872185
0.0947286
0.0865737
0.0944008
0.086414
0.0942486
0.0862909
0.094165
0.0862391
0.0941556
0.0862695
0.0942571
0.0863437
0.0944741
0.0865965
0.0959967
0.0897045
0.102208
0.0976118
0.101229
0.106309
0.0832009
0.0379602
0.00153128
3.22653e-06
2.55502e-08
9.50984e-11
7.05021e-12
4.78907e-15
1.59431e-07
8.61569e-05
0.0021582
0.0116106
0.0306527
0.0486133
0.0694893
0.075335
0.0891095
0.085573
0.0958721
0.0892427
0.0984483
0.0902942
0.0986155
0.0898568
0.0977104
0.088866
0.0964707
0.0877493
0.0952113
0.0867994
0.0944988
0.0864705
0.0942994
0.0863347
0.094179
0.0862398
0.0941354
0.0862206
0.0941649
0.0862875
0.0943109
0.0863867
0.0945942
0.0870362
0.0971739
0.091217
0.104871
0.0998092
0.111018
0.0910686
0.0765522
0.0148344
0.000152661
2.20408e-07
1.17836e-11
1.28219e-09
1.08526e-13
2.75562e-13
1.57604e-07
8.56915e-05
0.00212143
0.0119425
0.0291749
0.0518287
0.0645279
0.0817117
0.0818798
0.0933317
0.0877904
0.0975219
0.0900324
0.0987243
0.0901851
0.0982378
0.0893954
0.0971052
0.0882953
0.0957927
0.0871873
0.0947383
0.0865909
0.0943853
0.0863746
0.0942111
0.0862668
0.094127
0.0862023
0.0941244
0.086216
0.094194
0.0863172
0.0943782
0.0864354
0.0949203
0.0878193
0.0986938
0.093115
0.107901
0.100935
0.106541
0.0858071
0.0490796
0.00311346
9.21009e-06
8.84866e-09
2.23869e-10
1.56356e-10
1.62672e-13
8.75557e-14
1.55793e-07
8.46874e-05
0.00213603
0.0115527
0.0305949
0.0486045
0.0695232
0.0753739
0.0891335
0.0855727
0.0958604
0.0892242
0.0984218
0.0902718
0.0986028
0.0898533
0.0977111
0.0888663
0.0964488
0.0877031
0.0951556
0.0867829
0.0945148
0.0864886
0.094282
0.0862913
0.0941394
0.0862151
0.0940922
0.0861815
0.0941281
0.0862274
0.0942417
0.0863586
0.0944567
0.0865649
0.0956236
0.0888943
0.100663
0.0954554
0.110696
0.0994792
0.101512
0.0744777
0.0202416
0.000294654
5.12329e-07
1.34955e-11
5.86507e-10
3.86699e-12
2.72049e-13
1.66566e-14
1.54043e-07
8.38683e-05
0.00212133
0.0115073
0.0305346
0.048568
0.0695118
0.0753782
0.0891464
0.0855783
0.0958631
0.08922
0.0984074
0.0902572
0.098592
0.0898492
0.0977063
0.088863
0.0964533
0.0876939
0.0951374
0.0867663
0.0945072
0.0865031
0.0942953
0.0862957
0.0941149
0.086189
0.0940795
0.0861622
0.0940991
0.0862106
0.0942176
0.0863027
0.0944398
0.0864944
0.0951689
0.0882649
0.0991664
0.0936502
0.108413
0.100731
0.106038
0.0864258
0.0555474
0.00449117
1.57841e-05
2.94476e-08
1.76127e-13
3.68332e-08
1.16664e-14
2.28441e-10
5.91432e-17
1.52323e-07
8.30822e-05
0.00210605
0.0114533
0.0304542
0.04851
0.06948
0.0753704
0.0891494
0.0855847
0.0958585
0.0892225
0.0983998
0.0902509
0.0985823
0.0898453
0.0977064
0.0888635
0.0964458
0.0876937
0.0951311
0.0867504
0.094491
0.0864938
0.0943059
0.086312
0.094113
0.0861623
0.0940461
0.0861539
0.0940745
0.0861785
0.0941927
0.0862877
0.0943764
0.0864531
0.0949015
0.0877065
0.0894742
0.101318
0.096093
0.110955
0.0987476
0.10113
0.0761505
0.0230793
0.000370985
5.74284e-07
2.97496e-10
1.42739e-11
1.98479e-08
1.02493e-13
5.86802e-10
2.37086e-17
1.50912e-07
8.23364e-05
0.00209139
0.0113963
0.0303557
0.0484312
0.0694283
0.0753516
0.0891474
0.085587
0.0958636
0.0892165
0.0983899
0.0902416
0.0985691
0.0898377
0.0976972
0.0888631
0.0964424
0.0876903
0.0951275
0.0867454
0.094476
0.0864762
0.0942941
0.0863289
0.0941255
0.0861629
0.0940131
0.0861203
0.094061
0.0861564
0.0941575
0.0862656
0.0943499
0.0863946
0.0947221
0.087324
0.0887504
0.100025
0.0942935
0.109136
0.10035
0.104919
0.0862041
0.0573508
0.00510895
1.50954e-05
2.04378e-08
1.80006e-13
1.36412e-09
1.06619e-10
2.35178e-14
4.74253e-12
2.17895e-16
1.49689e-07
8.16913e-05
0.00207722
0.0113412
0.0302524
0.0483315
0.0693567
0.0753213
0.089135
0.0855859
0.0958632
0.0892177
0.0983878
0.0902277
0.0985512
0.0898278
0.097682
0.088854
0.0964405
0.0876824
0.0951292
0.0867403
0.0944712
0.0864578
0.0942735
0.0863206
0.0941397
0.0861832
0.0940091
0.0860887
0.0940244
0.0861505
0.0941293
0.0862305
0.0943187
0.0863827
0.0945994
0.0870499
0.0966865
0.0900977
0.102373
0.0967854
0.111255
0.0975373
0.100294
0.0758109
0.0222369
0.000348811
2.39944e-07
7.11834e-10
9.48458e-15
6.80098e-09
9.30982e-11
3.77004e-11
2.89967e-12
5.73965e-17
1.48668e-07
8.11436e-05
0.00206489
0.0112881
0.0301552
0.048227
0.0692667
0.0752783
0.0891158
0.0855808
0.0958557
0.0892155
0.0983853
0.0902194
0.0985382
0.0898077
0.0976778
0.0888342
0.0964346
0.0876772
0.0951232
0.0867392
0.0944696
0.0864484
0.0942542
0.0862983
0.0941309
0.0862046
0.094023
0.0860878
0.0939839
0.0861145
0.0941151
0.0862075
0.0942792
0.0863581
0.0945347
0.0867976
0.0962188
0.0894097
0.10099
0.0953185
0.109819
0.099614
0.103236
0.0850347
0.05542
0.00439806
7.83432e-06
2.03124e-09
1.84974e-12
3.50286e-13
2.39171e-10
1.69379e-09
4.07729e-12
2.19022e-10
6.99117e-19
1.47853e-07
8.06915e-05
0.00205457
0.0112416
0.0300578
0.0481316
0.0691695
0.0752239
0.0890869
0.0855691
0.0958513
0.0892106
0.0983829
0.0902086
0.0985187
0.0897924
0.0976632
0.0888326
0.0964166
0.0876817
0.0951134
0.0867383
0.0944657
0.0864444
0.0942428
0.0862718
0.0941068
0.0861953
0.0940404
0.0861087
0.0939755
0.0860769
0.0940728
0.0862029
0.0942482
0.0863206
0.0944836
0.0866488
0.0874272
0.0974786
0.0909163
0.103548
0.0977721
0.111143
0.0957946
0.0990653
0.0727595
0.0185673
0.000207147
3.16401e-08
7.69304e-11
2.43142e-12
1.17724e-11
2.96238e-10
9.09091e-11
1.96606e-11
8.88398e-11
1.50321e-19
1.47242e-07
8.03267e-05
0.00204599
0.0112019
0.0299717
0.0480354
0.0690806
0.0751647
0.0890464
0.0855506
0.0958429
0.0892063
0.0983819
0.0902109
0.0985056
0.0897794
0.0976427
0.0888262
0.0964029
0.0876727
0.0951198
0.0867356
0.0944641
0.086442
0.0942395
0.0862567
0.0940786
0.0861692
0.094032
0.0861361
0.0939881
0.0860724
0.0940269
0.0861623
0.0942347
0.0862984
0.0944449
0.0865377
0.0954232
0.0883538
0.099081
0.092823
0.106493
0.099621
0.109093
0.0909685
0.0926355
0.0460841
0.00211263
1.66984e-06
1.19629e-12
1.87326e-10
1.30619e-12
3.13479e-10
2.18432e-10
2.78119e-16
3.74344e-11
2.93977e-11
2.60575e-20
1.46785e-07
8.02592e-05
0.0020142
0.0115057
0.0284931
0.0510893
0.0640596
0.0814324
0.0817758
0.0932835
0.0877555
0.0974821
0.089979
0.0986403
0.090091
0.0981418
0.0893238
0.0970389
0.0882394
0.0957242
0.08712
0.0946767
0.0865448
0.094347
0.0863388
0.0941415
0.0861792
0.0940171
0.0861263
0.0940084
0.0861223
0.0939966
0.086084
0.0940741
0.0862051
0.0943144
0.086355
0.0864719
0.0951581
0.0879797
0.0983219
0.0919004
0.104989
0.09861
0.110724
0.0935825
0.0973719
0.0672401
0.0123297
6.54667e-05
5.47059e-10
7.85273e-13
4.07043e-12
5.67168e-12
3.3495e-11
2.67855e-08
1.06253e-13
9.7245e-09
6.42848e-14
9.12848e-20
1.46576e-07
7.98696e-05
0.00203421
0.0111449
0.0298409
0.0478733
0.0689069
0.0750497
0.0889653
0.0855081
0.0958138
0.0891933
0.0983752
0.0901996
0.0985013
0.0897613
0.0976111
0.0887878
0.0963667
0.0876445
0.0951011
0.0867339
0.0944617
0.0864378
0.0942335
0.0862454
0.0940564
0.0861145
0.0939715
0.0860956
0.0940023
0.0861225
0.0940213
0.0861113
0.094139
0.0862545
0.0944048
0.0945304
0.0867637
0.0960336
0.0890721
0.100165
0.0940075
0.107932
0.0996667
0.107041
0.0895853
0.0887567
0.0363805
0.000736727
5.47294e-08
5.14856e-14
8.52619e-13
5.96336e-12
4.95514e-13
3.22197e-11
9.22067e-09
1.49286e-12
1.03161e-08
1.34814e-14
1.12896e-20
1.46528e-07
7.9975e-05
0.00200586
0.0114606
0.0283946
0.0509448
0.0639229
0.0813069
0.081709
0.093238
0.0877319
0.0974659
0.0899756
0.0986408
0.0900884
0.098123
0.0893004
0.0969885
0.0882032
0.0956805
0.0871064
0.094668
0.0865455
0.0943464
0.0863357
0.0941342
0.0861656
0.0939872
0.0860641
0.0939415
0.0860802
0.0940117
0.0861355
0.0940652
0.0861494
0.0942141
0.0863123
0.0944992
0.0866383
0.095701
0.0886484
0.0994191
0.09301
0.10659
0.0993022
0.108896
0.0913228
0.0953304
0.0583571
0.00565919
6.73216e-06
2.2079e-13
2.57395e-11
2.04005e-12
6.43165e-11
9.20777e-15
2.17504e-08
1.00301e-11
1.35318e-09
4.1094e-11
1.36263e-13
3.70129e-23
1.46689e-07
7.97768e-05
0.00202941
0.0111138
0.0297608
0.0477662
0.0687842
0.074954
0.0888847
0.0854683
0.0957859
0.0891714
0.0983717
0.0902107
0.0985036
0.0897671
0.0975936
0.0887574
0.0963189
0.0876023
0.0950663
0.0867323
0.0944561
0.0864407
0.0942353
0.0862429
0.0940507
0.0860982
0.0939368
0.0860281
0.0939297
0.0860781
0.0940387
0.0861619
0.094123
0.0861958
0.0943057
0.086371
0.0947008
0.0871486
0.0967942
0.0899262
0.101553
0.0953056
0.109288
0.09918
0.103979
0.0878074
0.0819498
0.0234899
0.000113776
6.18728e-10
2.23259e-12
8.68133e-11
5.52692e-12
1.26603e-10
1.82791e-13
5.14597e-08
2.17524e-13
1.2173e-08
1.79215e-11
1.22375e-14
3.24017e-24
1.46778e-07
8.00322e-05
0.00200462
0.0114422
0.0283444
0.0508516
0.0638347
0.0812158
0.081643
0.0931885
0.0876998
0.0974417
0.0899693
0.0986445
0.0900938
0.0981274
0.0892988
0.096966
0.0881642
0.0956254
0.0870635
0.0946528
0.0865486
0.0943382
0.0863388
0.0941341
0.0861644
0.0939805
0.0860451
0.0939019
0.0860047
0.0939354
0.086088
0.0940828
0.0861992
0.0941964
0.0862569
0.0863281
0.094617
0.0869973
0.0964302
0.0894558
0.100736
0.0944042
0.108137
0.0993769
0.10642
0.0894832
0.0909524
0.0454043
0.0013829
2.36212e-07
1.28829e-13
2.3353e-11
8.8923e-12
2.75757e-10
6.27462e-12
1.67772e-10
2.05917e-10
2.97804e-13
2.74675e-10
7.18192e-10
1.90485e-17
6.75852e-24
1.47077e-07
7.99182e-05
0.00203087
0.0111104
0.0297334
0.0477111
0.0687052
0.0748897
0.0888257
0.0854254
0.0957483
0.0891555
0.0983591
0.0902201
0.0985127
0.0897634
0.0975948
0.0887398
0.096286
0.0875488
0.0950132
0.0867075
0.0944502
0.0864427
0.0942275
0.0862486
0.0940527
0.0860972
0.0939268
0.0860041
0.0938839
0.0859948
0.0939579
0.0861121
0.0941388
0.0862467
0.0942822
0.086317
0.0945358
0.0868314
0.0961559
0.0890725
0.100029
0.093575
0.107058
0.0990809
0.108068
0.0907919
0.0957067
0.0628037
0.00811364
1.22977e-05
2.86283e-13
6.05719e-11
3.19767e-11
4.72791e-13
8.22858e-12
1.27895e-11
2.69302e-11
1.70425e-08
1.3893e-12
7.38589e-08
9.76351e-13
7.91865e-17
1.21724e-26
1.47379e-07
8.0047e-05
0.00203278
0.0111164
0.029736
0.0477065
0.0686834
0.0748695
0.0888059
0.0854114
0.0957322
0.0891432
0.0983524
0.0902146
0.0985182
0.0897684
0.0975993
0.0887395
0.0962729
0.087544
0.0949872
0.0866947
0.0944361
0.0864397
0.0942254
0.0862529
0.0940501
0.0861066
0.0939231
0.0860019
0.0938733
0.0859754
0.0939189
0.0860602
0.0941009
0.0862323
0.0863031
0.0943778
0.0863751
0.0948641
0.0874996
0.0973824
0.0904696
0.102321
0.0959042
0.109471
0.0982376
0.102864
0.0874895
0.0833094
0.0269653
8.41325e-05
5.61865e-10
7.16611e-12
1.547e-10
8.53788e-12
6.41641e-10
1.49595e-11
2.07317e-12
2.32259e-10
2.15197e-09
2.61397e-11
5.36056e-08
1.13078e-13
4.4717e-18
4.8014e-28
1.47512e-07
8.01806e-05
0.00203551
0.0111249
0.0297477
0.0477116
0.06868
0.0748552
0.0887884
0.0854007
0.0957165
0.0891288
0.0983501
0.0902027
0.0985237
0.0897647
0.0976096
0.0887434
0.0962748
0.0875371
0.0949852
0.0866836
0.0944254
0.0864302
0.09422
0.0862574
0.0940496
0.0861094
0.0939315
0.0860027
0.0938715
0.0859656
0.0938978
0.0860172
0.0940507
0.0861912
0.0862866
0.094399
0.0863776
0.0947175
0.0872377
0.0970123
0.0900702
0.101566
0.0951211
0.108713
0.0989498
0.10494
0.0887761
0.0906981
0.0462325
0.00127904
1.96633e-07
1.39372e-13
1.79149e-10
1.9321e-11
1.12865e-12
2.10407e-11
1.06125e-09
7.76248e-13
8.01994e-08
1.16609e-14
7.14929e-08
1.36076e-10
6.76444e-13
2.8457e-21
4.85536e-28
1.47927e-07
8.02739e-05
0.00203817
0.0111361
0.0297634
0.0477221
0.0686849
0.0748511
0.0887745
0.0853884
0.0957026
0.0891188
0.0983418
0.0902106
0.09852
0.0897751
0.0976102
0.0887509
0.096279
0.0875339
0.0949784
0.0866774
0.0944192
0.0864171
0.0942089
0.0862557
0.0940493
0.0861173
0.0939317
0.0860172
0.0938681
0.0859641
0.0938867
0.0859908
0.0940058
0.0861359
0.0942573
0.0863416
0.0944868
0.086509
0.0953216
0.0881189
0.098472
0.0917136
0.104176
0.0974061
0.109997
0.0959549
0.100075
0.084866
0.0669016
0.00976863
9.43881e-07
5.22569e-14
9.86822e-11
2.04408e-10
7.26897e-14
9.31289e-11
8.52543e-11
1.34709e-10
7.67954e-11
3.85464e-08
2.41866e-13
2.179e-07
2.70763e-11
2.79338e-14
8.58166e-23
1.11117e-29
1.47995e-07
8.06352e-05
0.00201498
0.0114815
0.028385
0.0508574
0.0637946
0.081141
0.0815738
0.0931105
0.0876368
0.0973793
0.0899381
0.0986486
0.0901034
0.0981552
0.0893113
0.0969845
0.08815
0.0955821
0.0869991
0.0945921
0.0865093
0.0942936
0.0863161
0.0941101
0.0861824
0.093984
0.086069
0.0938995
0.0859939
0.0938647
0.0859652
0.0939157
0.086018
0.0940732
0.0942057
0.0863001
0.0944724
0.086521
0.0951633
0.0878559
0.0980149
0.0911822
0.103398
0.0967225
0.109702
0.097023
0.10134
0.0867292
0.0799416
0.023403
2.76515e-05
2.39104e-09
7.5089e-11
2.17813e-10
5.84191e-12
8.95903e-11
2.49305e-10
1.70906e-09
1.34651e-15
4.61222e-08
4.64365e-11
2.98603e-09
1.54162e-09
3.31892e-10
1.12809e-17
1.291e-22
4.32109e-33
1.48028e-07
8.04975e-05
0.00201841
0.0114897
0.0284051
0.0508798
0.0638072
0.0811475
0.0815758
0.0931055
0.0876311
0.0973695
0.0899261
0.0986391
0.0901076
0.0981529
0.0893206
0.096996
0.0881592
0.0955879
0.0869948
0.0945855
0.086499
0.0942872
0.0862996
0.0940926
0.0861686
0.0939786
0.0860762
0.0939027
0.0860048
0.093878
0.0859662
0.0939127
0.0860042
0.0940423
0.0861424
0.0942964
0.0863526
0.0946247
0.0868724
0.0960722
0.08894
0.0997608
0.0931063
0.106215
0.0985323
0.108903
0.0925191
0.0979585
0.0791625
0.0407094
0.00122683
2.93074e-10
5.43948e-11
2.79766e-10
6.71246e-11
1.33394e-14
4.08307e-11
2.82859e-10
1.53988e-10
3.10817e-12
7.95534e-08
6.24244e-13
1.41761e-07
6.72178e-10
1.61654e-11
2.43121e-19
1.97596e-24
3.85707e-35
1.48e-07
8.05025e-05
0.00204472
0.0111676
0.0298214
0.047781
0.0687285
0.0748671
0.0887776
0.0853724
0.0956785
0.0890946
0.0983128
0.0901941
0.0985232
0.0897827
0.0976395
0.0887792
0.0963195
0.0875435
0.0949718
0.0866552
0.0943995
0.0863867
0.094169
0.0862084
0.0940105
0.0861077
0.0939318
0.086046
0.0938881
0.085997
0.0938922
0.0859777
0.0939568
0.0860439
0.0861087
0.0942468
0.0863067
0.0945728
0.0868086
0.0959242
0.0886886
0.0992881
0.0925255
0.105403
0.0981193
0.109591
0.0940864
0.0988856
0.0829309
0.0591701
0.00563486
8.34497e-08
6.09285e-10
2.56832e-10
1.02258e-10
1.55531e-13
1.15677e-11
1.5225e-11
2.57124e-09
5.78178e-12
9.38633e-09
2.62847e-10
2.48016e-11
3.27664e-09
1.8086e-08
4.63474e-15
3.10131e-19
2.36226e-28
1.03657e-35
1.47927e-07
8.06819e-05
0.0020196
0.0115093
0.0298454
0.0478009
0.0687495
0.0748797
0.0887795
0.0853744
0.095669
0.0890889
0.0983106
0.0901886
0.0985178
0.0897824
0.0976412
0.0887918
0.0963346
0.0875576
0.094979
0.0866566
0.0943959
0.0863782
0.0941573
0.0861983
0.09399
0.0860885
0.0939148
0.0860476
0.0938927
0.0860111
0.0938996
0.0860012
0.0939502
0.0860458
0.0941028
0.0861641
0.0943453
0.0863818
0.0949223
0.0874332
0.0970943
0.0899959
0.101378
0.094713
0.108097
0.0987596
0.106053
0.0897628
0.0952228
0.0656301
0.0119335
3.84082e-05
4.87684e-12
9.27249e-10
1.10392e-10
2.62692e-13
1.57623e-13
7.4862e-11
2.1499e-11
1.38715e-09
4.98237e-16
5.87204e-08
3.56881e-11
3.15653e-08
3.65426e-09
1.19338e-09
7.22221e-17
3.03571e-21
1.25088e-30
3.46726e-38
1.47769e-07
8.065e-05
0.00201913
0.0115092
0.0284512
0.0509536
0.0638599
0.0811848
0.081587
0.0931059
0.0876151
0.0973479
0.0899165
0.0986163
0.0900935
0.0981548
0.0893345
0.097026
0.0881978
0.0956308
0.0870102
0.0945915
0.0864865
0.0942664
0.0862676
0.0940523
0.0861181
0.0939211
0.08604
0.0938857
0.0860308
0.0938957
0.0860192
0.0939325
0.0860313
0.0940104
0.086092
0.0941878
0.0862233
0.0944436
0.0865994
0.0956251
0.0883422
0.0985959
0.0916434
0.103925
0.0969366
0.109543
0.0962701
0.10066
0.0865845
0.0818124
0.0278204
4.62994e-05
2.21483e-09
2.83999e-10
5.80106e-10
2.28433e-14
6.52065e-12
1.27592e-11
4.67518e-11
5.13843e-11
3.15104e-10
1.97012e-11
8.86623e-08
3.12084e-13
4.86152e-07
1.34311e-09
3.5438e-11
6.46735e-19
1.80947e-23
3.57909e-33
5.52902e-41
1.47706e-07
8.03941e-05
0.00204353
0.0111709
0.0298556
0.0478301
0.0687893
0.074899
0.0887938
0.0853762
0.0956687
0.0890809
0.0982938
0.0901867
0.0984957
0.0897806
0.0976353
0.0887976
0.0963468
0.087587
0.0950058
0.0866619
0.0943991
0.0863669
0.0941442
0.0861687
0.0939627
0.0860511
0.0938688
0.0860072
0.0938729
0.0860289
0.0939166
0.0860393
0.0939827
0.094035
0.086094
0.094182
0.0862052
0.0944022
0.0864751
0.095442
0.0881474
0.0983138
0.0913266
0.103339
0.0963801
0.109179
0.096945
0.101802
0.0874482
0.0877986
0.0417127
0.000468554
1.17276e-07
2.79532e-10
1.61095e-09
1.39117e-12
7.22405e-11
4.31897e-11
5.09001e-11
6.19347e-13
2.09773e-09
1.28668e-12
2.9621e-08
2.07729e-10
3.9124e-10
1.14498e-08
2.00359e-08
3.91493e-15
3.73881e-19
4.72147e-28
5.21066e-34
3.67186e-44
1.47507e-07
8.03289e-05
0.00204215
0.0111674
0.0298503
0.0478308
0.0687955
0.0749144
0.0887986
0.0853769
0.0956685
0.0890776
0.0982821
0.0901823
0.0984933
0.0897699
0.0976255
0.0887918
0.096349
0.0875926
0.095023
0.0866688
0.0944012
0.0863653
0.0941418
0.0861575
0.0939494
0.0860287
0.0938538
0.0859808
0.0938476
0.086012
0.093919
0.0860576
0.0939938
0.0940495
0.0861222
0.0941756
0.0862043
0.0943795
0.0864088
0.0952374
0.0879481
0.0980235
0.091017
0.102859
0.095913
0.108832
0.0975221
0.10305
0.0881533
0.0917046
0.053958
0.00275794
2.44825e-06
3.30054e-11
2.33857e-09
3.52291e-11
3.10579e-11
5.38517e-11
7.2589e-10
2.94637e-12
9.46147e-11
3.38681e-11