/*--------------------------------*- C++ -*----------------------------------*\
| =========                 |                                                 |
| \\      /  F ield         | OpenFOAM: The Open Source CFD Toolbox           |
|  \\    /   O peration     | Version:  v2012                                 |
|   \\  /    A nd           | Website:  www.openfoam.com                      |
|    \\/     M anipulation  |                                                 |
\*---------------------------------------------------------------------------*/
FoamFile
{
    version     2.0;
    format      ascii;
    class       volScalarField;
    location    "3800";
    object      I2;
}
// * * * * * * * * * * * * * * * * * * * * * * * * * * * * * * * * * * * * * //

dimensions      [0 0 0 0 0 0 0];


internalField   nonuniform List<scalar> 
29502
(
5.53968e-06
9.32854e-08
0.00247249
8.72058e-08
8.51795e-05
0.00817889
1.83759e-07
4.82147e-05
0.00221617
0.0125963
2.24387e-07
6.48925e-05
0.00192101
0.00687309
0.0192174
1.66563e-07
0.00011571
0.00160789
0.0112878
0.0164799
0.0158876
1.75302e-07
0.000126489
0.00182979
0.0135323
0.0193325
0.0447769
0.00794857
2.669e-07
8.74003e-05
0.00297256
0.00959747
0.0344937
0.0334708
0.0632525
0.00589165
2.66211e-07
8.81956e-05
0.00304427
0.0100375
0.0368148
0.0363113
0.0734949
0.0487381
0.00645513
1.7416e-07
0.000131977
0.00200221
0.0157708
0.0240594
0.0604733
0.047937
0.0882431
0.0553297
0.00448246
1.69659e-07
0.000129625
0.00198476
0.0157359
0.0242357
0.0616816
0.0491899
0.0901966
0.0602856
0.0966248
0.00200755
2.48593e-07
8.41645e-05
0.00296815
0.0100578
0.0381265
0.0387481
0.0802225
0.0565552
0.0979935
0.0639353
0.100726
0.00134904
2.44389e-07
8.2409e-05
0.00290911
0.00991055
0.0378276
0.0386538
0.080402
0.0569482
0.098676
0.0630755
0.108259
0.063138
0.00135493
1.59699e-07
0.000122075
0.00187741
0.0151172
0.0237158
0.0614211
0.0498059
0.0923258
0.0610226
0.102678
0.0648874
0.111116
0.0634178
0.000883357
1.54728e-07
0.000119927
0.00185216
0.014902
0.0234476
0.0609403
0.0496181
0.0922389
0.0610568
0.1029
0.0646931
0.107722
0.0691477
0.102415
0.000376927
2.2702e-07
7.75744e-05
0.00277587
0.009517
0.0365801
0.0378473
0.079553
0.05683
0.0990845
0.063306
0.105335
0.065657
0.108966
0.0697329
0.100822
0.000239826
2.21973e-07
7.61014e-05
0.00271534
0.00940622
0.0362827
0.0375836
0.0791411
0.0566681
0.0989438
0.0632985
0.10533
0.0656074
0.107637
0.0672393
0.114268
0.0606128
0.000227483
1.44914e-07
0.000112277
0.00175766
0.0143248
0.0228274
0.0596741
0.0489093
0.0914583
0.0608487
0.102817
0.0647374
0.106782
0.0659638
0.107803
0.0673588
0.114472
0.0646485
0.000141595
1.42482e-07
0.000110284
0.00173051
0.0141564
0.0225627
0.059312
0.0487284
0.0911963
0.0607397
0.10271
0.0647055
0.106815
0.0659333
0.107444
0.0661137
0.109728
0.0704794
0.102196
5.79302e-05
2.09344e-07
7.22692e-05
0.0025943
0.00903979
0.0352379
0.0368627
0.0781602
0.0562091
0.0984309
0.0631095
0.10523
0.0655968
0.107409
0.0659448
0.107142
0.0659817
0.109642
0.0712993
0.0980082
3.53842e-05
2.05401e-07
7.1016e-05
0.00256495
0.0089443
0.0349401
0.0366537
0.0777504
0.0560764
0.0982895
0.0630503
0.10515
0.0655885
0.107412
0.065969
0.107082
0.0655236
0.107224
0.067388
0.118582
0.0567205
3.21559e-05
1.34771e-07
0.000105134
0.00166415
0.0137226
0.0220244
0.05815
0.0481155
0.0904591
0.0604757
0.102401
0.0645829
0.106739
0.0659698
0.107434
0.0657805
0.106606
0.0652067
0.10701
0.067774
0.120823
0.0517132
1.92153e-05
1.32728e-07
0.000103766
0.00164391
0.0135855
0.0218946
0.0578427
0.0479376
0.0902409
0.0603628
0.102311
0.0645401
0.106694
0.065964
0.107475
0.0657863
0.106596
0.0651546
0.105626
0.0656176
0.111461
0.0746509
0.0730342
7.58716e-06
1.96188e-07
6.81051e-05
0.00247417
0.00870515
0.034219
0.0361138
0.0768876
0.0556408
0.0978195
0.0628737
0.104949
0.0655056
0.107402
0.0660062
0.107166
0.0654863
0.105979
0.0648047
0.105203
0.0655727
0.112539
0.0742558
0.0611366
4.43583e-06
1.9414e-07
6.72683e-05
0.00244972
0.00864262
0.0340056
0.0359465
0.0766777
0.0555246
0.0976794
0.0628176
0.104859
0.0654854
0.107373
0.0660102
0.1072
0.0655162
0.105989
0.0647286
0.104863
0.0644615
0.106887
0.0697427
0.118296
0.0304802
3.84896e-06
1.27907e-07
0.000100304
0.00159654
0.0132696
0.0215034
0.0570888
0.047509
0.0896741
0.060121
0.102005
0.0644059
0.106535
0.0659303
0.107476
0.0658424
0.106695
0.0651513
0.105327
0.0643547
0.104312
0.0643352
0.10733
0.0707035
0.114415
0.0227525
2.19135e-06
1.25848e-07
9.93445e-05
0.00158618
0.0131787
0.0213973
0.0568919
0.0473847
0.0895011
0.0600588
0.101923
0.0643628
0.106484
0.0659079
0.107483
0.065838
0.106714
0.0651714
0.105372
0.0643387
0.104108
0.0638612
0.104615
0.0663774
0.117479
0.0686371
0.0245766
8.19463e-07
1.8568e-07
6.51756e-05
0.00239355
0.00848435
0.0335005
0.0355625
0.0760625
0.0552382
0.0973338
0.0626722
0.104641
0.0653816
0.107296
0.0659962
0.107221
0.065554
0.106104
0.0647766
0.104687
0.0639623
0.103602
0.0636774
0.104773
0.067066
0.119868
0.0672548
0.015518
4.54424e-07
1.83141e-07
6.42995e-05
0.00236967
0.00844151
0.0333925
0.0354539
0.0758923
0.0551618
0.0972371
0.0626294
0.104587
0.0653509
0.107257
0.0659878
0.107218
0.0655638
0.106118
0.0647938
0.104719
0.0639556
0.103451
0.0634654
0.103395
0.0646378
0.110852
0.0747783
0.105582
0.00587321
3.75656e-07
1.21141e-07
9.56474e-05
0.00154375
0.012958
0.0211586
0.0563994
0.0470867
0.089095
0.059881
0.101717
0.0642581
0.106328
0.0658535
0.107434
0.0658473
0.106738
0.0652074
0.105448
0.0643889
0.104043
0.0635906
0.102969
0.063288
0.103413
0.0650424
0.11283
0.0759343
0.0994245
0.00319021
1.96811e-07
1.20423e-07
9.50818e-05
0.00153157
0.0128675
0.0210587
0.0562696
0.0470254
0.0889796
0.0598303
0.101653
0.0642262
0.106282
0.0658328
0.107419
0.0658435
0.106745
0.0652077
0.105462
0.0643929
0.104069
0.0635922
0.102904
0.0631469
0.102721
0.0637261
0.106874
0.0705352
0.124541
0.0558942
0.00242885
6.62671e-08
1.79473e-07
6.29388e-05
0.00231795
0.00828045
0.0329597
0.0351923
0.0755225
0.0549724
0.0969829
0.062516
0.104427
0.0652716
0.107162
0.0659584
0.107207
0.065569
0.106143
0.0648093
0.104755
0.0639829
0.103422
0.0632872
0.102599
0.0630747
0.102697
0.0639903
0.108279
0.0720407
0.121272
0.0482438
0.00112268
3.16437e-08
1.77873e-07
6.26247e-05
0.00231112
0.00825931
0.0328407
0.0350845
0.0753684
0.0549222
0.0969333
0.0624838
0.104375
0.0652459
0.107139
0.0659481
0.107198
0.0655731
0.106146
0.0648153
0.104754
0.063975
0.103417
0.0632894
0.102576
0.0630416
0.102504
0.0632581
0.104792
0.0675651
0.120295
0.071008
0.0606168
0.000324352
2.01649e-08
1.17312e-07
9.35172e-05
0.00151591
0.0127407
0.0208541
0.0557823
0.0467736
0.0887088
0.0597205
0.1015
0.0641414
0.106164
0.0657804
0.107373
0.0658293
0.106746
0.0652217
0.10547
0.0644007
0.104044
0.0635858
0.102888
0.0630996
0.102446
0.0630135
0.102502
0.0634551
0.105813
0.0689499
0.12271
0.0688152
0.0410913
0.000144168
7.51033e-09
1.15892e-07
9.27169e-05
0.00150841
0.0127136
0.0208312
0.0557264
0.0467079
0.0886023
0.0596794
0.10146
0.0641204
0.106133
0.0657647
0.107348
0.0658268
0.106734
0.0652183
0.105484
0.0643982
0.104065
0.0635704
0.102864
0.0630949
0.102438
0.0629872
0.102408
0.0630687
0.103723
0.0658428
0.115275
0.0760532
0.108467
0.0153114
9.83498e-05
1.53591e-09
1.71714e-07
6.10408e-05
0.00227766
0.00820021
0.0327083
0.034948
0.0750621
0.0547453
0.0967391
0.0624112
0.104261
0.0651854
0.107058
0.0659117
0.107168
0.0655621
0.106141
0.0648202
0.104774
0.0639763
0.103384
0.0632523
0.102544
0.0630109
0.102369
0.0629636
0.102406
0.0631349
0.104529
0.0669268
0.118282
0.0760567
0.100813
0.00793448
4.43395e-05
3.63293e-10
1.6968e-07
6.04337e-05
0.00226133
0.00816618
0.0326392
0.0349219
0.07503
0.0547225
0.0966862
0.0623852
0.104222
0.0651675
0.107037
0.0659002
0.107151
0.0655582
0.106144
0.0648151
0.10477
0.0639787
0.103366
0.063256
0.102521
0.062996
0.102351
0.0629489
0.102327
0.0630157
0.10299
0.0649166
0.111365
0.0740596
0.120906
0.0543581
0.00588978
1.25628e-05
8.74923e-11
1.11844e-07
9.0014e-05
0.00147771
0.0125559
0.0207053
0.0555727
0.0466378
0.0884609
0.0595887
0.101338
0.0640564
0.106051
0.0657291
0.107299
0.0657957
0.106711
0.0652066
0.105473
0.0643961
0.104054
0.0635751
0.102818
0.0630699
0.10238
0.06295
0.102295
0.0629339
0.10233
0.0630477
0.103662
0.0658007
0.114188
0.0753721
0.115066
0.0430374
0.00272714
4.82027e-06
7.36706e-12
1.10866e-07
8.92176e-05
0.00146754
0.0124937
0.020639
0.0554729
0.0466021
0.0884337
0.059578
0.101313
0.0640426
0.106024
0.0657224
0.107288
0.0657908
0.106699
0.0651982
0.105458
0.0643952
0.104039
0.0635716
0.102827
0.0630593
0.102384
0.0629339
0.102259
0.062914
0.102288
0.0629726
0.102668
0.064329
0.109096
0.0718447
0.124429
0.0676931
0.0464235
0.000785175
2.33338e-06
1.7253e-13
1.6528e-07
5.89166e-05
0.00221536
0.00804965
0.0323354
0.0347456
0.0748532
0.0546674
0.0966175
0.0623397
0.104138
0.065127
0.106988
0.0658757
0.107113
0.0655346
0.106118
0.0647987
0.10475
0.0639642
0.10334
0.0632476
0.102508
0.0629765
0.102296
0.0628903
0.102216
0.0629062
0.102306
0.0630027
0.103188
0.0651132
0.111579
0.073742
0.123221
0.0640083
0.0260326
0.000301951
5.69031e-07
1.12638e-16
1.64468e-07
5.86297e-05
0.00220438
0.00801545
0.0322384
0.0346755
0.0747568
0.054634
0.0965896
0.0623289
0.104115
0.0651069
0.10697
0.0658713
0.107097
0.0655237
0.106101
0.0647935
0.104732
0.0639571
0.103328
0.0632285
0.102506
0.0629748
0.102275
0.0628895
0.102172
0.0628738
0.102255
0.0629645
0.102549
0.0639985
0.107715
0.0701905
0.123266
0.0727172
0.0915604
0.00812815
0.000144035
9.94311e-08
1.46313e-15
1.09495e-07
8.78727e-05
0.00144646
0.0123411
0.0204577
0.0551379
0.0464382
0.0882687
0.0595301
0.101257
0.0640068
0.105945
0.0656886
0.107253
0.0657774
0.106669
0.0651729
0.105422
0.0643661
0.104002
0.0635395
0.102782
0.0630493
0.10236
0.0629202
0.102195
0.0628591
0.102138
0.0628735
0.102286
0.0629999
0.102948
0.0647412
0.109955
0.0721704
0.124468
0.0693496
0.0713971
0.00351733
3.68373e-05
6.15918e-09
8.9398e-15
1.64249e-07
5.83963e-05
0.00219264
0.00797286
0.0320786
0.0345531
0.0745732
0.0545539
0.0965152
0.0623074
0.104095
0.0650862
0.106924
0.0658566
0.107099
0.0655277
0.10608
0.0647727
0.104701
0.0639351
0.103296
0.063217
0.102481
0.0629648
0.102266
0.0628725
0.102136
0.0628379
0.10213
0.0628865
0.102338
0.0630808
0.103755
0.0657107
0.112759
0.0741027
0.122987
0.0660086
0.0460909
0.00130475
6.44008e-06
4.15299e-10
1.66535e-14
1.09498e-07
8.78611e-05
0.00144365
0.0123016
0.0203877
0.054964
0.0463346
0.0881407
0.0594794
0.10121
0.0639857
0.105922
0.0656585
0.107212
0.0657569
0.106676
0.0651799
0.105399
0.0643415
0.103964
0.0635159
0.10275
0.0630392
0.10234
0.0629056
0.102186
0.0628346
0.102095
0.0628306
0.102143
0.062914
0.102408
0.0633132
0.104971
0.066956
0.116068
0.0755022
0.118292
0.0602796
0.0149847
0.000571275
4.40624e-07
5.60392e-11
1.03592e-14
1.6414e-07
5.84604e-05
0.00219492
0.00796719
0.0320204
0.0344807
0.0744256
0.0544801
0.0964337
0.0622708
0.104045
0.0650705
0.106891
0.0658318
0.107056
0.0655105
0.106094
0.0647756
0.104661
0.0638969
0.103253
0.0631912
0.102457
0.0629559
0.102241
0.0628556
0.102119
0.0628098
0.102079
0.0628358
0.102181
0.0629522
0.102567
0.0637937
0.10658
0.0685193
0.119542
0.0757087
0.112665
0.079179
0.0061564
9.79204e-05
3.68955e-08
3.35621e-12
1.90366e-15
1.09201e-07
8.79057e-05
0.0014464
0.0123192
0.0203868
0.05491
0.0462773
0.0880314
0.0594321
0.101151
0.0639549
0.105885
0.065648
0.107186
0.0657427
0.106637
0.065174
0.105422
0.0643414
0.103895
0.0634708
0.10271
0.0630227
0.102322
0.0628968
0.102152
0.0628137
0.102075
0.0627966
0.102082
0.0628539
0.102239
0.0629998
0.103016
0.0645111
0.108626
0.0703908
0.122438
0.0737758
0.107083
0.0328226
0.00296474
5.4692e-06
5.158e-09
1.62504e-14
1.96012e-17
1.63175e-07
5.83731e-05
0.00219796
0.00798376
0.0320628
0.0344861
0.0743833
0.0544378
0.0963617
0.0622435
0.104002
0.0650519
0.106876
0.0658243
0.10703
0.0654915
0.106051
0.064779
0.104695
0.0638927
0.103173
0.063156
0.102435
0.062944
0.102218
0.0628449
0.102079
0.0627854
0.102051
0.0627969
0.102107
0.0628858
0.102316
0.0631121
0.103876
0.0654572
0.111194
0.0723995
0.123527
0.0704063
0.096688
0.0164455
0.00054435
3.30134e-07
1.91547e-11
4.09634e-17
1.49159e-18
1.08145e-07
8.7528e-05
0.00144603
0.0123402
0.0204224
0.0549669
0.0462834
0.0880006
0.059403
0.101111
0.063932
0.10586
0.0656404
0.107179
0.065737
0.106605
0.0651392
0.105372
0.0643496
0.103936
0.0634637
0.102647
0.063004
0.102302
0.0628818
0.102129
0.0628004
0.102029
0.0627693
0.102049
0.0628083
0.102153
0.0629265
0.102404
0.0634213
0.105134
0.0666558
0.114256
0.0741598
0.07421
0.110147
0.0471673
0.0084817
3.29547e-05
6.16736e-08
1.75433e-12
3.01411e-17
1.74922e-18
1.61024e-07
5.79459e-05
0.00219231
0.00798694
0.0321134
0.0345305
0.0744387
0.0544421
0.0963383
0.0622225
0.103961
0.0650295
0.106861
0.0658214
0.107036
0.0654833
0.106015
0.0647382
0.104643
0.0638989
0.103209
0.0631464
0.102395
0.0629277
0.102195
0.062827
0.102053
0.0627682
0.101999
0.0627641
0.102065
0.0628324
0.10222
0.062975
0.102629
0.0639866
0.106759
0.0681493
0.117611
0.122946
0.0713057
0.103707
0.0285886
0.00156586
2.08797e-06
1.05697e-08
2.77357e-12
4.10834e-23
2.43058e-22
1.06287e-07
8.65936e-05
0.00143879
0.012323
0.0204349
0.0550336
0.0463253
0.0880401
0.0594044
0.101088
0.0639117
0.105815
0.0656277
0.107173
0.0657383
0.106608
0.0651341
0.105327
0.0643065
0.103884
0.0634656
0.102671
0.062993
0.102267
0.0628601
0.102099
0.062781
0.101997
0.0627487
0.101987
0.062771
0.102104
0.062869
0.102302
0.0630566
0.103246
0.0647763
0.108826
0.0699476
0.120804
0.0742834
0.111546
0.0547537
0.0169787
9.93256e-05
2.16817e-07
1.72427e-11
2.05494e-13
1.5411e-18
1.14752e-18
1.57638e-07
5.71275e-05
0.00217562
0.00796158
0.0320927
0.0345518
0.074502
0.0544731
0.0963568
0.0622187
0.103941
0.0650112
0.106836
0.0658114
0.107032
0.0654862
0.106012
0.0647305
0.104591
0.063854
0.10316
0.0631496
0.102405
0.0629173
0.102149
0.0628014
0.10202
0.0627468
0.10196
0.0627418
0.101996
0.0627912
0.102162
0.062915
0.102396
0.0632762
0.10432
0.0657975
0.111436
0.0720057
0.122672
0.0714634
0.106474
0.0373967
0.00326502
5.74585e-06
9.91331e-09
4.84428e-12
1.76181e-15
5.51968e-19
2.17769e-17
1.03862e-07
8.51129e-05
0.00142401
0.0122597
0.0203962
0.0550226
0.0463477
0.0880892
0.0594205
0.101088
0.0639041
0.105792
0.0656107
0.107145
0.0657301
0.106604
0.0651349
0.10533
0.0642927
0.103829
0.0634288
0.102641
0.0629999
0.102276
0.0628484
0.102048
0.0627538
0.101962
0.0627242
0.101946
0.0627449
0.102028
0.0628242
0.102239
0.0629689
0.102601
0.0637487
0.105791
0.0671235
0.114682
0.0739298
0.121192
0.0684571
0.094543
0.0158977
0.00029404
2.80728e-07
8.0469e-12
3.46701e-11
9.66179e-14
3.13595e-16
2.16372e-17
1.02695e-07
8.42876e-05
0.00141421
0.0122101
0.020356
0.0549786
0.04634
0.0880942
0.059429
0.101095
0.063906
0.105785
0.0656013
0.107127
0.0657233
0.106599
0.0651317
0.105327
0.0642962
0.10382
0.0634176
0.102621
0.0629948
0.102284
0.0628548
0.102049
0.062738
0.10193
0.0627139
0.101923
0.0627284
0.102003
0.0628072
0.102181
0.0629538
0.102492
0.0634502
0.104906
0.0661382
0.112239
0.0723679
0.122485
0.07118
0.107112
0.0422652
0.00477404
9.96288e-06
9.58215e-09
1.02148e-17
9.46094e-12
2.97075e-16
2.34479e-17
5.86114e-18
1.01549e-07
8.34956e-05
0.00140402
0.012151
0.0203024
0.0549088
0.0463187
0.0880842
0.0594309
0.101103
0.063903
0.105789
0.0655962
0.107118
0.065717
0.106594
0.065132
0.105328
0.0642913
0.103822
0.0634141
0.102607
0.0629849
0.102272
0.0628594
0.102057
0.062736
0.101898
0.062692
0.101903
0.062714
0.101973
0.0627899
0.102149
0.0629177
0.102423
0.0632706
0.104183
0.106557
0.0675902
0.115646
0.074132
0.120335
0.0682542
0.0963045
0.0189981
0.000371208
3.22164e-07
2.85487e-12
4.91754e-13
3.18817e-13
1.47195e-15
4.16465e-14
2.0269e-18
1.00608e-07
8.27443e-05
0.00139425
0.0120888
0.0202367
0.0548138
0.0462842
0.0880604
0.0594294
0.101105
0.0639063
0.105781
0.0655896
0.107105
0.0657082
0.106584
0.0651261
0.105327
0.064289
0.103819
0.0634124
0.102605
0.0629763
0.102254
0.0628515
0.102065
0.0627412
0.101892
0.0626709
0.101862
0.0627023
0.101946
0.0627693
0.102117
0.0628993
0.102363
0.0631473
0.103659
0.105611
0.0667103
0.113232
0.0728793
0.122143
0.0704897
0.106977
0.0434834
0.00544427
9.54308e-06
2.75845e-09
3.71491e-13
9.52992e-13
7.90556e-13
1.23302e-14
8.79908e-14
1.00357e-18
9.97925e-08
8.20944e-05
0.00138481
0.0120285
0.0201679
0.0546939
0.0462364
0.0880223
0.059421
0.101104
0.0639058
0.105782
0.0655884
0.107087
0.0656962
0.10657
0.0651162
0.105315
0.064288
0.103809
0.0634138
0.102602
0.0629744
0.102238
0.0628393
0.102055
0.0627475
0.101903
0.0626674
0.101824
0.0626782
0.101925
0.0627526
0.102081
0.0628773
0.102333
0.0630729
0.103286
0.0644716
0.107457
0.0682957
0.116736
0.0743733
0.11893
0.0677986
0.0958067
0.0189857
0.0003404
1.33334e-07
6.79069e-19
7.34629e-14
3.53976e-13
6.78126e-13
1.49571e-20
2.18642e-14
2.85007e-19
9.91118e-08
8.15426e-05
0.00137659
0.0119706
0.0201031
0.0545681
0.0461764
0.0879681
0.0594082
0.101097
0.0639007
0.105779
0.0655865
0.107076
0.0656875
0.106543
0.0651131
0.105289
0.0642841
0.103802
0.0634097
0.102602
0.0629743
0.102232
0.0628285
0.102033
0.0627419
0.101914
0.0626731
0.101816
0.0626525
0.101881
0.0627394
0.102051
0.0628536
0.102294
0.063029
0.102975
0.0641557
0.106513
0.0673736
0.114622
0.0733928
0.121382
0.0694634
0.105974
0.0421009
0.00460462
5.14431e-06
7.18741e-11
1.01159e-15
1.17805e-13
2.76496e-12
6.03941e-16
1.57167e-14
1.51795e-15
4.35218e-20
9.85686e-08
8.10873e-05
0.00136971
0.0119198
0.0200382
0.0544534
0.0461117
0.0878996
0.0593888
0.101083
0.0638977
0.105773
0.0655847
0.107062
0.0656747
0.106522
0.0651033
0.105284
0.064272
0.103807
0.0634033
0.102601
0.0629722
0.102232
0.0628227
0.10201
0.0627278
0.101904
0.0626807
0.101825
0.0626465
0.101837
0.0627115
0.102027
0.062835
0.102252
0.0629927
0.102763
0.103852
0.0650047
0.108582
0.0691061
0.118101
0.0743728
0.116864
0.0671514
0.09265
0.016373
0.000191395
1.6666e-08
2.21212e-13
4.97657e-14
6.12034e-13
3.99156e-12
8.40657e-14
1.60816e-13
3.80454e-18
8.31653e-21
9.81611e-08
8.07198e-05
0.00136399
0.0118765
0.0199808
0.0543376
0.0460524
0.087825
0.0593619
0.101059
0.063892
0.105768
0.065584
0.107065
0.0656658
0.106506
0.0650894
0.105275
0.0642622
0.103793
0.0634073
0.102596
0.0629708
0.10223
0.0628219
0.101998
0.0627118
0.10188
0.0626755
0.101841
0.0626509
0.101824
0.0626831
0.101977
0.0628208
0.10222
0.0629688
0.102607
0.0636321
0.105129
0.0660865
0.111212
0.0711117
0.120882
0.0731443
0.11129
0.0639639
0.0600373
0.00185661
1.64215e-06
3.66463e-15
2.81051e-13
7.36074e-13
8.39237e-12
6.73724e-13
5.39612e-14
8.98791e-14
9.50328e-18
1.35593e-21
1.46816e-07
5.35061e-05
0.00206431
0.00767038
0.0313067
0.0340587
0.0739209
0.0542864
0.0962245
0.0621862
0.103896
0.0649844
0.106766
0.0657558
0.106909
0.0654228
0.105916
0.0646862
0.104517
0.0638094
0.103083
0.0631119
0.102355
0.0628932
0.102105
0.0627572
0.101907
0.0626711
0.101833
0.0626597
0.101833
0.0626575
0.101856
0.0627158
0.102054
0.0628751
0.102325
0.102522
0.063452
0.104613
0.0655885
0.109968
0.0700857
0.119441
0.0741204
0.114291
0.0662643
0.0864872
0.0113262
5.4501e-05
3.40029e-10
9.40697e-13
6.4949e-13
3.88582e-12
1.03705e-12
5.84414e-14
6.00623e-14
1.31005e-13
7.14811e-17
2.8877e-22
9.77171e-08
8.02594e-05
0.00135613
0.0118142
0.0198936
0.0541425
0.0459367
0.0876796
0.0593079
0.101005
0.0638726
0.105752
0.0655794
0.107051
0.0656627
0.106482
0.0650685
0.105223
0.0642375
0.10375
0.0633938
0.102588
0.0629686
0.102223
0.0628181
0.101992
0.0627012
0.101833
0.0626412
0.101803
0.0626558
0.101845
0.0626753
0.101911
0.0627608
0.102143
0.0629371
0.063031
0.102948
0.064043
0.106116
0.0668358
0.112902
0.0720978
0.121249
0.0718217
0.109957
0.0617923
0.0476672
0.00066741
5.08014e-08
1.90251e-13
2.32105e-12
1.50442e-12
1.40721e-12
5.23567e-15
2.42133e-17
6.14599e-15
9.5063e-14
9.49603e-17
3.63583e-23
1.46559e-07
5.33166e-05
0.00205566
0.00764031
0.0311934
0.0339625
0.0737515
0.0542028
0.0961392
0.0621559
0.103867
0.0649736
0.106763
0.0657561
0.106907
0.0654102
0.105886
0.0646529
0.104469
0.0637795
0.103057
0.0631046
0.102349
0.0628919
0.102098
0.0627525
0.101899
0.0626559
0.101779
0.0626217
0.101794
0.0626624
0.101876
0.0627064
0.101985
0.0628131
0.102248
0.0630024
0.102774
0.0638204
0.105541
0.0663314
0.111574
0.0711889
0.120529
0.0730163
0.111614
0.0652828
0.0758967
0.0055525
3.92672e-06
8.48592e-13
6.10218e-12
4.64754e-12
1.50909e-12
1.26162e-15
5.32542e-17
2.3875e-13
2.28729e-18
6.07513e-15
6.4339e-17
2.63046e-24
9.77925e-08
8.01659e-05
0.00135294
0.0117803
0.0198403
0.0540138
0.045855
0.0875587
0.0592542
0.100954
0.0638541
0.105725
0.0655772
0.107067
0.0656643
0.106492
0.0650568
0.105185
0.0642059
0.103694
0.0633694
0.102576
0.062963
0.102218
0.062818
0.101985
0.0626977
0.101822
0.0626233
0.101745
0.0626146
0.101805
0.0626811
0.101927
0.0627474
0.102073
0.0628769
0.102359
0.0631402
0.103488
0.0645578
0.107304
0.0677767
0.114797
0.0730571
0.120787
0.0699338
0.10837
0.0578485
0.0305079
0.000102147
5.60983e-11
5.38793e-13
2.24062e-11
4.76949e-12
6.67278e-15
1.57829e-13
3.64275e-14
2.07691e-13
4.89253e-14
2.30404e-19
9.91836e-18
2.09563e-25
1.46808e-07
5.33547e-05
0.00205438
0.00762806
0.0311355
0.0339005
0.0736421
0.0541422
0.0960548
0.0621231
0.103826
0.0649577
0.106757
0.0657588
0.106917
0.0654132
0.105887
0.064638
0.10442
0.063743
0.103
0.0630931
0.102341
0.0628842
0.102091
0.0627508
0.101892
0.0626517
0.101766
0.0626012
0.101729
0.0626193
0.101834
0.0627114
0.101996
0.0627994
0.102184
0.102317
0.0630854
0.103255
0.0643152
0.106661
0.0672237
0.113508
0.0722766
0.120958
0.0714373
0.109799
0.0631773
0.0592763
0.00145788
6.05887e-08
8.83064e-14
1.17085e-11
2.59039e-11
3.12747e-13
4.20684e-14
1.04722e-12
1.95759e-14
1.01339e-14
3.64703e-13
9.94114e-16
5.33571e-19
2.02905e-26
9.80514e-08
8.03083e-05
0.00135391
0.0117766
0.019822
0.0539474
0.0458024
0.0874776
0.0592151
0.100899
0.0638292
0.105704
0.0655689
0.107082
0.0656706
0.10649
0.0650579
0.105165
0.0641843
0.103627
0.0633344
0.102542
0.0629575
0.102206
0.0628101
0.10198
0.0626969
0.101815
0.0626169
0.101726
0.0625905
0.101731
0.0626354
0.101884
0.06275
0.102083
0.0628605
0.102301
0.0630385
0.103048
0.0641217
0.106133
0.0667438
0.11237
0.0715269
0.120432
0.0724976
0.11099
0.0654728
0.0815262
0.00830814
4.38122e-06
2.07946e-13
6.68226e-12
2.30938e-11
6.85172e-13
2.42721e-14
1.78199e-13
1.02479e-12
2.32472e-17
1.56203e-15
5.7345e-13
1.61104e-15
4.78725e-20
6.71958e-28
9.82526e-08
8.04381e-05
0.00135518
0.0117831
0.0198237
0.0539418
0.0457879
0.087452
0.059202
0.100881
0.0638185
0.105688
0.0655646
0.107075
0.0656746
0.106498
0.0650611
0.105167
0.0641759
0.103622
0.0633176
0.102526
0.0629483
0.102199
0.0628071
0.101975
0.062694
0.101818
0.0626136
0.10172
0.0625847
0.101717
0.062614
0.101838
0.0627282
0.102069
0.102186
0.0629291
0.102422
0.0632633
0.103977
0.0649491
0.108056
0.0682974
0.115657
0.0732069
0.119765
0.0692425
0.108067
0.0586632
0.0354402
9.65653e-05
1.42765e-10
5.15289e-12
4.02389e-11
1.08506e-11
9.02889e-15
1.38034e-12
1.62276e-12
1.43496e-13
7.02369e-15
1.64023e-14
5.05057e-14
7.12672e-16
2.12311e-21
2.59097e-29
9.83412e-08
8.05727e-05
0.001357
0.0117924
0.0198315
0.0539478
0.0457857
0.0874338
0.0591903
0.100867
0.0638081
0.10567
0.065563
0.107059
0.0656782
0.106495
0.0650683
0.105174
0.0641775
0.103616
0.0633164
0.102514
0.0629415
0.102187
0.0628027
0.101972
0.0626911
0.101813
0.062617
0.101715
0.0625825
0.101707
0.062603
0.101798
0.0627
0.102032
0.102168
0.0629328
0.1024
0.0631724
0.103657
0.064704
0.107486
0.0677876
0.114534
0.0726826
0.120468
0.0705366
0.109092
0.0630507
0.0604857
0.00150996
2.14391e-08
6.51477e-15
5.37534e-11
2.09081e-11
1.1123e-13
1.30324e-12
1.68668e-12
2.3276e-13
8.17106e-13
9.26787e-15
1.34887e-13
4.31927e-18
1.58452e-16
5.41512e-23
1.06303e-30
9.86178e-08
8.06667e-05
0.00135878
0.0118046
0.019842
0.0539604
0.0457889
0.0874283
0.0591811
0.100851
0.0637989
0.105656
0.0655575
0.107069
0.0656758
0.106508
0.065069
0.105186
0.0641807
0.103615
0.0633125
0.102509
0.0629381
0.102172
0.0627956
0.101965
0.0626887
0.10181
0.0626156
0.101722
0.0625791
0.101701
0.062597
0.101775
0.0626755
0.101982
0.0628362
0.102272
0.0629964
0.102623
0.0635842
0.10488
0.0656913
0.109762
0.0695604
0.117808
0.0736397
0.117012
0.0675665
0.105852
0.0495907
0.0116818
1.06756e-06
4.84281e-14
3.56474e-11
4.70981e-11
2.90463e-13
9.50915e-13
3.43711e-12
2.69155e-13
4.09348e-19
1.30674e-13
1.68605e-17
1.20583e-12
4.13125e-15
9.65258e-18
1.40039e-24
1.9388e-32
1.48026e-07
5.37568e-05
0.00206512
0.00765426
0.0311821
0.0339043
0.0735918
0.0540925
0.0959657
0.0620714
0.103744
0.0649164
0.106716
0.0657618
0.106931
0.0654325
0.10591
0.0646519
0.104413
0.0637161
0.102928
0.0630548
0.102294
0.062854
0.102044
0.0627291
0.101873
0.0626448
0.101754
0.0625946
0.101703
0.0625782
0.101719
0.0626184
0.101833
0.0627225
0.0628073
0.102234
0.0629827
0.102596
0.0634758
0.10454
0.065397
0.109079
0.0690257
0.11681
0.0733984
0.118332
0.0682816
0.10742
0.0570267
0.0305955
3.83335e-05
2.35181e-10
2.5593e-11
1.18594e-10
1.29265e-12
4.74856e-13
6.74956e-12
4.58992e-12
1.59391e-15
1.80258e-13
1.01201e-15
2.15833e-21
7.96495e-14
6.88956e-15
1.67549e-19
3.47422e-26
1.50737e-34
9.86851e-08
8.0892e-05
0.00206869
0.00765977
0.0312053
0.0339193
0.0736073
0.0540968
0.0959676
0.062068
0.103736
0.0649099
0.1067
0.0657555
0.106936
0.0654308
0.105922
0.0646595
0.104427
0.0637205
0.102926
0.0630511
0.102286
0.0628501
0.102026
0.062718
0.101856
0.0626397
0.101751
0.0625932
0.101705
0.062584
0.101711
0.0626152
0.101817
0.0627057
0.102037
0.0628703
0.102341
0.0630889
0.10311
0.0640936
0.106044
0.0665816
0.111766
0.0709522
0.119531
0.0729817
0.113005
0.0664675
0.0999519
0.0331156
0.00086817
6.56259e-10
8.63271e-12
1.22894e-10
1.25645e-11
2.32695e-14
1.5677e-11
4.05556e-12
2.1956e-13
4.05231e-17
3.22948e-14
1.16894e-14
1.00568e-13
7.16237e-18
1.05391e-15
2.4402e-21
3.62337e-28
1.04339e-36
9.86668e-08
8.0897e-05
0.00136314
0.011839
0.0198807
0.0540313
0.045818
0.0874479
0.0591831
0.100829
0.0637829
0.105624
0.0655384
0.107046
0.0656779
0.106516
0.0650885
0.105224
0.0642086
0.103636
0.0633099
0.102493
0.0629272
0.102145
0.0627711
0.101912
0.0626627
0.101781
0.0626078
0.101718
0.0625837
0.101706
0.0625948
0.101745
0.0626469
0.101894
0.102005
0.0628437
0.102301
0.0630567
0.103017
0.063979
0.105684
0.0662764
0.111007
0.0704108
0.118911
0.0734025
0.114788
0.0669182
0.104068
0.044587
0.00612304
1.04726e-07
4.05244e-12
1.31428e-10
3.77919e-11
3.18172e-16
6.11422e-12
7.22438e-12
1.98245e-13
1.92522e-15
4.2217e-15
3.72911e-14
4.62529e-16
7.64394e-13
8.74314e-15
3.36941e-17
3.43907e-23
1.43743e-30
5.61933e-39
1.47958e-07
5.37879e-05
0.00206991
0.00767279
0.0198967
0.0540553
0.045832
0.0874638
0.0591844
0.100831
0.0637765
0.105616
0.0655369
0.107039
0.0656744
0.106515
0.0650895
0.105239
0.0642187
0.103654
0.0633154
0.102499
0.0629257
0.10214
0.0627648
0.101904
0.0626504
0.10176
0.0625969
0.101712
0.0625832
0.101706
0.0625972
0.101758
0.0626407
0.10189
0.062751
0.102109
0.0629128
0.102441
0.063295
0.103892
0.0647725
0.107502
0.0676977
0.114088
0.0722739
0.120197
0.071205
0.10987
0.0652414
0.0850433
0.0121108
6.59102e-06
3.26211e-13
1.78717e-10
6.16073e-11
4.82775e-15
3.71369e-12
1.29835e-11
9.6444e-14
1.61333e-17
1.06547e-17
4.28746e-15
8.31492e-16
1.76419e-17
4.40325e-14
6.36959e-15
5.90634e-19
1.89431e-25
3.89047e-33
8.29625e-42
1.478e-07
5.37666e-05
0.00206943
0.00767271
0.0312584
0.0339685
0.0736728
0.0541218
0.0959816
0.0620682
0.103713
0.0648953
0.106685
0.0657403
0.106916
0.0654321
0.105937
0.0646793
0.104475
0.0637496
0.102953
0.0630575
0.102285
0.0628396
0.102003
0.0626947
0.101806
0.0626041
0.101702
0.062577
0.101697
0.0625853
0.101728
0.0626204
0.101816
0.0626834
0.101978
0.0628112
0.102224
0.0629825
0.102773
0.0637704
0.105151
0.0657917
0.109798
0.0694358
0.117293
0.0733396
0.117428
0.0678749
0.107273
0.0579968
0.0368009
7.39233e-05
9.73145e-11
7.52098e-11
1.70971e-10
6.78215e-14
4.50335e-12
1.33214e-11
1.10708e-12
2.48725e-20
1.60489e-16
7.03196e-17
1.1996e-14
9.42056e-14
2.64031e-13
5.23077e-16
5.12491e-16
3.58675e-21
4.36131e-28
3.93476e-36
3.05485e-45
9.84707e-08
8.07877e-05
0.00136235
0.0118426
0.0199035
0.0540904
0.0458585
0.0874884
0.059194
0.100834
0.0637763
0.105604
0.0655255
0.107034
0.0656596
0.106511
0.0650855
0.105245
0.0642265
0.10369
0.0633332
0.102509
0.0629297
0.102137
0.0627586
0.101881
0.0626351
0.101725
0.062569
0.101666
0.0625679
0.101702
0.0625994
0.101768
0.0626556
0.0626957
0.101966
0.0628065
0.102201
0.0629602
0.102631
0.0636521
0.104901
0.0655877
0.10931
0.0690398
0.11651
0.0730841
0.118246
0.0685715
0.107914
0.0614206
0.0550135
0.000691029
4.29995e-09
4.14173e-11
2.72316e-10
6.39493e-13
4.18114e-12
1.83679e-11
5.19189e-12
3.65784e-15
3.91993e-15
7.16465e-19
4.48251e-14
1.14927e-17
2.63612e-12
5.94958e-14
1.16053e-14
4.9916e-18
1.1962e-23
2.31721e-31
7.46752e-40
2.7834e-49
9.83377e-08
8.0722e-05
0.00136143
0.0118388
0.0198999
0.0540912
0.0458627
0.0875077
0.0591973
0.100835
0.0637762
0.105599
0.0655177
0.107027
0.0656579
0.106496
0.0650789
0.105236
0.0642277
0.103696
0.0633443
0.102517
0.0629309
0.102139
0.0627581
0.101874
0.062628
0.101706
0.0625604
0.10164
0.0625522
0.101682
0.0625976
0.101772
0.0626578
0.0627023
0.101981
0.0628003
0.102192
0.0629484
0.102556
0.0635238
0.104652
0.0653917
0.108858
0.0686942
0.115834
0.0728416
0.118888
0.0693464
0.108429
0.0635733
0.0703744
0.00358244
1.46224e-07
2.20429e-12
3.51458e-10
5.53503e-12
1.76673e-12
2.59874e-11
1.17583e-11
5.50726e-14
2.43752e-17
6.63081e-19
4.52923e-17
2.19975e-14
6.49553e-15
5.18978e-19
1.59393e-16
1.46336e-15
2.61388e-20
6.27291e-27
3.20262e-35
1.07315e-46
3.18906e-52
1.47341e-07
5.36239e-05
0.00206607
0.00766505
0.0312457
0.0339692
0.0737041
0.0541424
0.0960054
0.0620688
0.103709
0.064888
0.106655
0.0657235
0.106896
0.0654116
0.105911
0.0646696
0.104482
0.0637657
0.102999
0.0630732
0.102294
0.0628444
0.101999
0.0626853
0.101769
0.0625774
0.101643
0.0625363
0.101622
0.0625545
0.101705
0.0626224
0.101834
0.0627045
0.101994
0.062809
0.102185
0.0629444
0.102509
0.0634212
0.104391
0.0652093
0.108433
0.0683663
0.115221
0.0726083
0.119429
0.0701237
0.108964
0.064738
0.0819501
0.0105105
2.65641e-06