/*--------------------------------*- C++ -*----------------------------------*\
| =========                 |                                                 |
| \\      /  F ield         | OpenFOAM: The Open Source CFD Toolbox           |
|  \\    /   O peration     | Version:  v2012                                 |
|   \\  /    A nd           | Website:  www.openfoam.com                      |
|    \\/     M anipulation  |                                                 |
\*---------------------------------------------------------------------------*/
FoamFile
{
    version     2.0;
    format      ascii;
    class       volScalarField;
    location    "3800";
    object      k;
}
// * * * * * * * * * * * * * * * * * * * * * * * * * * * * * * * * * * * * * //

dimensions      [0 2 -2 0 0 0 0];


internalField   nonuniform List<scalar> 
29502
(
545.485
20.9658
109.345
24.1545
3.50338
44.7512
28.9323
13.5536
1.29439
27.3128
32.0217
19.564
64.2297
0.86263
21.1469
33.6413
22.6715
98.2039
211.595
0.941681
18.5962
34.3512
24.2075
114.534
323.681
505.135
1.30898
17.3882
34.6188
24.8575
122.096
375.761
768.439
978.865
1.89518
16.6682
34.5531
25.0549
124.794
398.686
887.197
1472.3
1630.42
2.64066
16.1099
34.3319
24.9522
125.184
405.501
937.204
1687.6
2409.45
2413.94
3.53491
15.6024
33.9599
24.6934
124.119
405.207
949.617
1774.56
2736.26
3490.28
3257.4
4.49312
15.1148
33.6129
24.3444
122.378
400.493
946.428
1792.78
2862.93
3922.3
4604.33
4090.83
5.42542
14.6418
33.2943
24.0291
120.364
394.056
933.55
1784.04
2885.8
4082.97
5120.69
5664.48
4868.62
6.29365
14.1823
32.9695
23.7568
118.567
387.103
917.555
1758.23
2869.95
4108.52
5305.02
6240.99
6622.79
5573.5
7.0073
13.7367
32.551
23.4475
117.037
380.946
900.946
1728.05
2828.79
4085.78
5331.27
6438.68
7239.05
7470.17
6191.27
7.58287
13.3046
32.208
23.0604
115.326
375.691
886.26
1697.31
2782.56
4030.26
5302.96
6464.13
7442.78
8110.46
8200.36
6714.24
7.99299
12.8862
31.8798
22.7717
113.265
369.964
873.698
1670.18
2735.93
3969.77
5236.15
6431.6
7466.51
8313.98
8853.97
8813.42
7138.86
8.21451
12.4802
31.5709
22.4829
111.759
363.274
860.236
1646.74
2694.71
3908.92
5165.19
6356.87
7430.63
8335.25
9052.8
9475.38
9313.96
7463.27
8.4062
12.0868
31.2987
22.2174
110.254
358.365
844.856
1621.95
2658.62
3855.02
5093.81
6279.09
7350.32
8296.53
9071.11
9666.9
9984.8
9708.97
7682.23
8.11752
11.7058
31.0093
21.9893
108.884
353.501
833.51
1594.16
2620.84
3807.09
5030.43
6200.93
7268.13
8212.55
9029.72
9682.09
10168.1
10393.9
10007.1
7793.2
7.37514
11.3373
30.7401
21.7325
107.724
349.098
822.352
1573.5
2579.16
3757.28
4973.2
6131.45
7185.96
8127.93
8943.44
9637.94
10180.3
10569.8
10713.4
10215.9
7788.38
6.29159
10.9814
30.4982
21.5026
106.423
345.4
812.278
1553.26
2547.9
3703.21
4914
6067.78
7113.02
8043.65
8857.63
9550.23
10133.3
10579.2
10884.8
10952.5
10340.2
7654.78
5.10866
10.6381
30.273
21.3089
105.275
341.3
803.849
1535.05
2517.36
3662.23
4850.87
6002.21
7045.3
7968.81
8772.7
9464.03
10044.7
10529.3
10891.9
11124.4
11118.7
10380.3
7380.49
3.96481
10.3085
30.0549
21.1225
104.325
337.707
794.604
1519.77
2489.86
3622.27
4802.48
5933.46
6975.81
7898.56
8697.32
9379.38
9958.43
10440.3
10839.4
11130.1
11298.2
11218
10334.7
6959.98
3.06049
9.99262
29.8783
20.9405
103.404
334.739
786.536
1503.19
2466.69
3586.27
4755.4
5880.21
6904.13
7826.68
8625.91
9304.38
9874.62
10354.1
10750.2
11075.6
11303.9
11413.5
11254.6
10200.3
6402.7
2.40039
9.69105
29.6987
20.7956
102.513
331.865
779.879
1488.76
2441.79
3555.65
4712.84
5828.49
6848.13
7753.59
8552.92
9232.8
9800.53
10271.4
10664.2
10986.6
11248.7
11421.8
11476.2
11230.3
9971
5730.06
1.99923
9.40521
29.4945
20.6421
101.805
329.092
773.423
1476.84
2420.15
3523.04
4676.28
5781.61
6793.81
7696.18
8479.82
9159.62
9729.49
10198.5
10582.6
10900.9
11160.3
11367.4
11490.9
11489.8
11144
9638.35
4942.89
1.74821
9.13641
29.2837
20.4605
101.057
326.915
767.241
1465.27
2402.15
3494.75
4637.68
5740.87
6744.39
7640.48
8422.12
9087.42
9656.68
10128.5
10511.2
10820.5
11074.9
11280.3
11439.2
11516.3
11456.4
10991.5
9190.3
4070.36
1.60275
8.89065
29.0978
20.2852
100.166
324.614
762.376
1454.22
2384.77
3471.05
4604.2
5698.21
6701
7589.65
8366.15
9030.26
9585.91
10056.4
10442.4
10750.6
10995.7
11195.6
11354.3
11469.7
11501.6
11375.8
10765.8
8612.69
3149.2
1.52023
8.67886
28.9561
20.1388
99.3263
321.891
757.297
1445.55
2368.12
3448.17
4575.99
5661.22
6655.81
7544.52
8314.97
8974.82
9529.79
9987.28
10371.2
10683.2
10927.4
11117.7
11270.8
11388.4
11463.1
11448.6
11246.1
10456.4
7891.5
2239.12
1.47515
8.41995
28.8392
20.0403
98.6447
319.345
751.288
1436.49
2355.01
3426.28
4548.72
5629.86
6616.69
7497.78
8269.01
8924.03
9475.49
9932.51
10303.9
10613
10861.6
11051.1
11194.5
11307.1
11387.4
11422.3
11357.6
11062.9
10050.3
7024.19
1420.18
1.43869
8.11975
28.721
19.9558
98.2102
317.309
745.716
1425.93
2341.41
3408.85
4522.62
5599.56
6583.38
7457.36
8221.59
8878
9425.59
9879.64
10250.7
10547.5
10792.5
10986.9
11129.7
11232.7
11309.2
11354.3
11348.9
11227.5
10819.2
9532.8
6039.68
775.639
1.40471
7.86594
28.5906
19.863
97.8373
316.04
741.31
1416.13
2325.69
3390.87
4501.57
5570.48
6551.2
7422.82
8180.67
8830.57
9379.95
9830.99
10199.4
10495.9
10728.8
10919.1
11067.3
11169.9
11237.3
11280.6
11291.2
11243.2
11055.2
10505.2
8891.18
5007.8
356.357
1.37615
7.67739
28.4477
19.7504
97.4154
314.957
738.591
1408.45
2311.21
3370.47
4480
5546.67
6520.23
7389.48
8145.6
8789.7
9332.97
9786.05
10152.2
10446.3
10678.9
10857.2
11000.9
11109.6
11176.8
11212
11223.7
11199.1
11104.3
10835.6
10108.2
8116.5
3939.61
140.31
1.33476
7.53941
28.3007
19.6271
96.8856
313.723
736.289
1403.7
2299.85
3351.66
4455.95
5522.44
6494.42
7357.26
8111.7
8754.64
9292.56
9739.78
10108.2
10400.6
10630.9
10808.9
10940.9
11044.9
11118.8
11154.4
11159.3
11139.6
11077.9
10929.8
10561.3
9612.36
7204.42
2877.15
50.3277
1.30153
7.43559
28.1534
19.4964
96.2969
312.155
733.656
1399.69
2292.69
3336.91
4433.82
5495.9
6468.34
7329.99
8078.83
8720.68
9257.91
9700.1
10062.8
10357.7
10586.7
10762.6
10894.1
10986.6
11056.1
11099
11105.1
11080.6
11028.9
10927.3
10715.6
10222.4
9000.53
6164.81
1894.07
17.4365
1.27657
7.381
28.0138
19.3703
95.6775
310.398
730.285
1395.1
2286.66
3327.28
4416.33
5471.5
6440.3
7302.65
8050.69
8687.6
9224.25
9666.14
10024
10313.4
10545.1
10720.1
10849.6
10941.4
10999.8
11038.6
11052.9
11030.8
10977
10891.7
10745.5
10455.9
9805.79
8258.2
5044.59
1088.8
6.07294
1.26022
7.37264
27.8763
19.2523
95.0774
308.533
726.478
1389.25
2279.78
3319.15
4404.45
5452.07
6414.53
7273.71
8022.58
8659
9191.32
9633.03
9990.86
10275.5
10502.1
10679.8
10808.7
10898.7
10956.3
10984.5
10995.2
10982.3
10932.6
10848.9
10727.5
10529.2
10142.5
9295.72
7379.37
3933.27
534.835
2.25662
1.24963
7.38857
27.7626
19.1428
94.5227
306.748
722.442
1382.6
2271.05
3309.88
4394.34
5438.31
6393.78
7247.09
7993.25
8630.52
9162.55
9600.53
9958.5
10243.3
10465.1
10638
10769.9
10859.6
10915.3
10942.8
10943.5
10927.9
10888.6
10811.1
10696.2
10535
10273.4
9764.61
8675.04
6373.48
2854.59
231.099
1.00244
1.24048
7.37634
27.6684
19.0566
94.02
305.115
718.591
1375.58
2261.21
3298.41
4382.9
5426.45
6378.49
7225.39
7966.27
8601.12
9133.93
9571.78
9926.65
10211.9
10433.9
10602
10729.4
10822.3
10878.1
10903.7
10903.7
10878.8
10838
10772.7
10666.7
10518.1
10311.4
9970.77
9308.41
7928.15
5270.47
1864.82
93.6677
0.602034
1.22169
7.39733
27.5864
18.9871
93.6221
303.619
715.09
1368.9
2250.86
3285.53
4369.04
5413.17
6365.25
7208.89
7944.09
8574.25
9104.79
9543.19
9898.08
10180.7
10403.4
10571.9
10694.5
10783.2
10842.4
10868.3
10866.7
10841.2
10792.2
10726.7
10634.9
10499
10313.7
10052.1
9611.89
8757.46
7047.08
4143.93
1058.2
37.3498
0.477376
1.20541
7.36404
27.5263
18.9325
93.3232
302.458
711.907
1362.88
2241.05
3272.1
4353.63
5397.42
6350.48
7194.47
7926.72
8551.92
9078.32
9514.56
9869.66
10152.5
10373.2
10542.5
10665.5
10749.4
10804.8
10834.3
10833.3
10806.5
10757
10684.6
10594.6
10475.3
10307.2
10080.3
9750.55
9184.43
8094.57
6040.44
3062.77
512.481
14.8064
0.439487
1.17956
7.33742
27.4817
18.8993
93.0942
301.593
709.414
1357.35
2232.27
3259.42
4337.76
5380.08
6333.25
7178.4
7911.36
8533.97
9056.12
9488.66
9841.63
10124.4
10345.4
10513.2
10637.2
10721.6
10772.2
10798.4
10801.2
10775.3
10724.7
10652.2
10556.9
10441.8
10293.5
10090.2
9813.71
9397.79
8673.19
7305.61
4949.3
2059.16
219.868
5.77129
0.423843
1.15568
7.36076
27.4401
18.8757
92.9855
300.98
707.604
1353.08
2224.18
3248.13
4322.81
5362.42
6314.4
7160
7894.2
8517.94
9037.76
9466.77
9816.41
10097
10317.7
10486
10608.9
10694.5
10745.5
10767.1
10767
10745.1
10695.9
10622.8
10527.9
10409.5
10268.1
10088.5
9845.35
9507.59
8982.34
8061.09
6386.99
3848.25
1208.89
89.9488
2.23248
0.413318
1.14659
7.41888
27.3957
18.8502
92.9087
300.706
706.365
1349.99
2217.88
3237.67
4309.6
5345.89
6295.58
7140.07
7874.9
8499.99
9021.35
9448.3
9795.02
10072.5
10290.9
10458.8
10582.4
10667.3
10719.7
10741.7
10737.1
10712.8
10667.9
10596.6
10501.7
10384.6
10242.3
10073
9858.94
9568.45
9153.39
8490
7332.08
5356.19
2799.94
602.254
36.7226
0.912245
0.406572
1.14704
7.48612
27.3416
18.8189
92.822
300.555
705.899
1347.97
2213.38
3229.54
4297.29
5331.34
6278.08
7120.42
7854.25
8480
9002.82
9431.62
9776.69
10051.8
10267.2
10432.6
10555.8
10641.6
10693.7
10717.1
10712.9
10684.4
10637.6
10571.1
10478.5
10362
10222.2
10055
9855.21
9602.07
9253.2
8740.03
7904.38
6477.39
4275.59
1839.53
263.437
15.0414
0.442828
0.402983
1.14922
7.54409
27.2764
18.775
92.6974
300.365
705.671
1347.21
2210.42
3223.62
4287.7
5317.8
6262.67
7102.32
7834.14
8458.89
8982.37
9412.72
9759.82
10033.7
10247.2
10409.7
10530.3
10615.7
10669
10692.4
10689.7
10661.6
10610.9
10543.1
10455.7
10342.2
10204.1
10040.8
9846.63
9613.29
9313.38
8891.17
8253.97
7209.6
5506.79
3228.27
1043.26
108.612
6.0126
0.281378
0.400923
1.15067
7.59384
27.2019
18.7223
92.5124
300.06
705.368
1346.93
2209.29
3219.71
4280.54
5307.14
6248.26
7086.33
7815.71
8438.56
8961
9391.95
9740.69
10016.8
10229.5
10390.4
10508.2
10590.9
10643.8
10668.7
10666.3
10639.8
10589.5
10518.3
10430.3
10322.5
10188.2
10027.8
9839.54
9615.97
9344.1
8986.43
8471.55
7679.7
6395.98
4466.82
2240.74
499.297
44.2366
2.32647
0.228009
0.39994
1.15147
7.63865
27.1178
18.6555
92.269
299.533
704.813
1346.48
2208.84
3218.01
4275.68
5298.95
6236.86
7071.34
7799.4
8419.99
8940.59
9370.46
9719.79
9997.65
10212.8
10373.2
10489.6
10569.6
10619.8
10644.4
10643.7
10617.8
10569.2
10498.4
10407.5
10300
10172
10016.4
9832.76
9617.55
9361.3
9042.76
8612.67
7981.15
7002.15
5464.27
3429.53
1369.53
211.657
18.0826
0.90882
0.210932
0.399472
1.1517
7.68777
27.0162
18.5754
91.9489
298.831
703.733
1345.63
2208.17
3217.15
4273.22
5293.24
6227.91
7059.41
7784.16
8403.57
8922.01
9350.06
9698.28
9976.73
10193.7
10356.8
10473
10551.7
10599.2
10621.1
10620.3
10596.3
10548.8
10479.7
10389.4
10279.6
10152.8
10004.3
9826.64
9618.11
9373.42
9079.05
8702.49
8181.34
7405.03
6206.68
4454.79
2445.63
704.161
87.3093
7.23616
0.390981
0.20551
0.398879
1.15157
7.74627
26.9073
18.4842
91.5643
297.883
702.242
1343.78
2206.85
3215.98
4271.65
5289.82
6221.43
7049.84
7771.93
8388.25
8905.59
9331.56
9677.95
9955.31
10172.9
10338
10457.1
10535.9
10582.1
10601.3
10597.8
10573.8
10528.5
10460.8
10372.4
10263.5
10135.2
9988.9
9819.22
9618.25
9382.72
9104.84
8763.85
8314.42
7679.29
6725.03
5295.39
3441.7
1552.89
306.838
36.0982
2.76686
0.211411
0.203817
0.398192
1.15454
7.89362
26.7964
18.3844
91.1181
296.726
700.205
1341.2
2204.09
3214.09
4269.76
5287.42
6217.08
7042.65
7761.86
8375.93
8890.4
9315.22
9659.59
9935.11
10151.6
10317.4
10438.7
10520.6
10567.1
10585.1
10578.9
10552.3
10507.1
10441.9
10355.3
10248.3
10121.2
9974.39
9808.2
9616.29
9390.25
9125.02
8807.61
8408.34
7866.89
7089.49
5930.32
4312.95
2476.98
832.271
125.098
14.7352
1.03128
0.152479
0.203375
0.39851
1.16768
7.9868
26.6889
18.2835
90.6242
295.377
697.698
1337.66
2200.23
3210.24
4266.98
5284.53
6213.77
7037.43
7754.12
8365.55
8878.12
9300.28
9643.39
9916.91
10131.6
10296.4
10418.4
10502.7
10552.5
10571
10563.5
10534.2
10486.5
10421.8
10337.9
10233.2
10108.2
9962.97
9797.32
9610.33
9394.67
9141.31
8841.85
8475.74
8002.84
7345.96
6396.93
5028.46
3327.76
1590.8
371.228
51.5618
5.78863
0.401087
0.134137
0.203871
0.402728
1.16644
7.99987
26.5795
18.1886
90.1312
293.88
694.759
1333.3
2194.97
3205.05
4262.04
5280.8
6209.81
7033.19
7748.08
8357.4
8867.59
9288.18
9628.78
9900.9
10113.6
10276.6
10397.6
10482.7
10535.2
10557.1
10550.3
10519.7
10469.3
10402.2
10319.1
10217.5
10095.1
9952.33
9788.84
9603.64
9394.57
9153.19
8869.24
8528.29
8101.12
7535.34
6736.59
5594.78
4064.95
2387.97
862.17
150.336
21.0915
2.16133
0.186199
0.129029
0.205491
0.40267
1.16665
8.01377
26.4875
18.0982
89.6725
292.371
691.48
1328.16
2188.53
3198.13
4255.61
5274.75
6205.03
7028.18
7742.91
8350.65
8859.14
9277.63
9616.92
9886.64
10097.8
10258.8
10378.1
10462.4
10515.7
10540.4
10537.2
10507.5
10455.7
10386
10300.6
10200.2
10081.4
9941.62
9780.92
9598.59
9392.78
9159.91
8890.33
8570
8177.51
7673.39
6991.68
6025.04
4692.83
3108.91
1522.99
384.914
61.2737
8.27775
0.785335
0.117743
0.128449
0.205426
0.401965
1.17205
8.02385
26.4037
18.0197
89.2279
290.962
688.155
1322.44
2180.96
3189.77
4247.27
5267.18
6197.92
7022.4
7736.95
8344.64
8851.85
9269.04
9606.43
9875.1
10083.9
10243.2
10360.6
10443.1
10495.8
10521.5
10521.2
10495.2
10444.6
10373.4
10285.5
10183
10065.7
9929.98
9772.85
9593.8
9391.73
9163.8
8904.98
8602.75
8237.82
7780.58
7179.84
6356.82
5206.47
3744.89
2196.8
814.528
153.395
25.0553
3.08165
0.297826
0.0977225
0.12834
0.204747
0.402205
1.18014
8.03297
26.3303
17.9521
88.8441
289.614
685.105
1316.62
2172.54
3179.99
4237.38
5257.69
6189.37
7014.34
7730.14
8337.76
8845.13
9261.34
9597.84
9864.76
10072.8
10229.7
10345.3
10425.9
10476.9
10502.1
10503
10480
10433.1
10363.2
10273.9
10169
10050
9916.31
9763.59
9588.72
9390.55
9167.46
8915.49
8627.36
8285.54
7864.99
7326.29
6605.88
5619.23
4303.26
2820.42
1363.23
355.915
61.775
9.80964
1.09636
0.13692
0.092221
0.12802
0.204448
0.402847
1.18905
8.04176
26.2666
17.8951
88.5204
288.439
682.122
1311.25
2164.01
3169.19
4225.87
5246.63
6178.97
7004.96
7721.27
8330.03
8837.43
9254.08
9589.98
9856.25
10062.7
10219
10332.1
10410.9
10460
10483.6
10484
10462.4
10418.8
10352.8
10264.9
10158.5
10037.2
9902.26
9752.15
9582.17
9388.88
9170.5
8924.69
8646.05
8322.87
7931.98
7441.65
6801.2
5937.62
4780.39
3375.94
1939.92
698.317
138.974
25.0201
3.61563
0.389103
0.0876385
0.09059
0.127823
0.204397
0.40416
1.2038
8.05036
26.2136
17.8466
88.2481
287.43
679.502
1306.04
2156.16
3158.29
4213.31
5234
6167.15
6993.81
7711.22
8320.43
8828.92
9245.74
9582.31
9848.37
10054.3
10209.3
10321.8
10398.1
10445.2
10467
10466
10444.1
10402.1
10339.4
10255.4
10150.6
10027.9
9890.89
9740.03
9573.27
9385.41
9172.71
8932.64
8662.04
8352.02
7985.61
7533.39
6955.65
6190.79
5167.98
3879.37
2484
1148.74
292.01
55.158
9.68601
1.26199
0.154684
0.0734986
0.0900529
0.127801
0.205059
0.405703
1.22639
8.05927
26.1702
17.8101
88.0249
286.609
677.314
1301.45
2148.46
3148.26
4200.72
5220.38
6153.76
6981.39
7699.5
8309.82
8818.64
9236.58
9573.46
9840.48
10046.5
10201.1
10312.6
10388.2
10432.8
10452.5
10449.7
10426.6
10384.4
10323.5
10243.1
10142.3
10021.3
9882.85
9730.25
9563.38
9379.44
9172.79
8939.33
8675.74
8376.51
8028.13
7607.81
7078.91
6393.01
5483.33
4308.61
2981.2
1640.06
550.731
111.528
21.9823
3.51109
0.431033
0.0825698
0.0696683
0.0899051
0.128075
0.205855
0.412912
1.22447
8.06845
26.1348
17.7788
87.8472
285.933
675.497
1297.54
2141.65
3138.39
4189.18
5206.79
6139.62
6967.61
7686.71
8297.67
8807.59
9225.69
9563.74
9831.26
10038.5
10193.5
10304.7
10379.4
10423.3
10440.5
10435.6
10410.7
10367.4
10306.6
10228.2
10131.1
10014.2
9877.52
9723.61
9555.43
9372.12
9170.15
8943.46
8687.57
8397.46
8063.58
7667.44
7179.73
6555.48
5740.32
4678.22
3413.68
2117.63
906.825
217.715
43.7891
8.30376
1.19968
0.158999
0.0620022
0.068682
0.090076
0.128392
0.209043
0.412795
1.22652
8.07782
26.1088
17.7596
87.7111
285.407
674.015
1294.38
2135.92
3129.67
4177.75
5194.34
6125.58
6953.16
7672.7
8284.67
8795.18
9214.28
9552.4
9821.08
10029.1
10185.6
10297.4
10371.8
10415
10431.4
10424
10396.9
10352
10290.2
10212.2
10117.2
10004.2
9871.66
9719.68
9550.35
9366.27
9165.81
8944.67
8696.37
8415.64
8093.79
7717.02
7261.13
6689.34
5949.16
4990.8
3809.7
2547.65
1315.18
398.803
82.04
17.0367
2.92119
0.39899
0.0765216
0.0565451
0.0685502
0.0902537
0.1299
0.209056
0.414551
1.22846
8.08745
26.0938
17.7481
87.6358
284.992
672.845
1291.79
2131.25
3122.3
4167.7
5182.08
6112.69
6938.95
7658.25
8270.59
8781.97
9201.7
9540.69
9809.4
10018.6
10176.1
10289.7
10365
10407.8
10423.5
10415.3
10385.7
10338.5
10275.3
10196.5
10102.2
9991.52
9863.07
9715.21
9547.93
9362.97
9162.41
8943.77
8701.99
8430.05
8119.98
7759.18
7328.83
6798.18
6122.97
5249.21
4156.2
2940.09
1717.82
663.005
149.354
31.9847
6.20454
0.967422
0.142391
0.0534085
0.0552901
0.0685739
0.091193
0.130225
0.209474
0.418536
1.22983
8.09748
26.0776
17.7436
87.5934
284.768
671.968
1289.75
2127.4
3116.28
4159.16
5171.25
6099.99
6925.9
7644.07
8256.25
8767.91
9188.31
9527.94
9797.47
10006.7
10165.4
10280.3
10357.5
10401.4
10416.8
10407.8
10377.4
10327.7
10262.3
10182.1
10087.3
9977.57
9851.72
9708.1
9544.98
9362.21
9161.14
8943.21
8705.08
8440.79
8141.35
7795.6
7386.34
6888.92
6265.59
5468.09
4456.59
3288.94
2100.5
974.154
264.982
56.3177
12.0381
2.09993
0.313149
0.0664517
0.047496
0.0550452
0.0691411
0.0915012
0.130744
0.210511
0.422203
1.23102
8.10747
26.0712
17.7412
87.587
284.661
671.519
1288.2
2124.38
3111.3
4152.17
5162.05
6088.97
6913.12
7631.08
8242.31
8753.75
9174.32
9514.46
9784.55
9994.64
10153.4
10269.6
10348.4
10394.4
10410.9
10401.6
10370.4
10319.9
10251.9
10169.5
10073.6
9963.58
9838.99
9698.23
9539.51
9360.93
9162.23
8944.36
8707.86
8448.45
8158.47
7825.75
7435.8
6965.99
6385.05
5650.2
4719.99
3608.52
2449.93
1311.74
434.403
95.8718
21.6164
4.19699
0.671211
0.111126
0.0457793
0.0461298
0.0553662
0.0693805
0.0918568
0.131433
0.212466
0.422167
1.23215
8.11749
26.0651
17.7437
87.5916
284.648
671.276
1287.39
2122.08
3107.41
4146.38
5154.48
6079.51
6902.05
7618.44
8229.54
8740.08
9160.37
9500.53
9771.04
9981.61
10141.3
10257.6
10337.8
10385.6
10404.4
10396.2
10364.7
10313.4
10244.4
10159.6
10061.5
9950.6
9826.04
9686.89
9531.28
9357.26
9162.8
8947.52
8711.72
8455.08
8171.8
7850.88
7477.1
7032.08
6486.69
5803.95
4943.61
3898.26
2766.66
1642.12
659.112
159.546
36.2133
7.78215
1.35981
0.213464
0.0537048
0.0406361
0.0461114
0.0555469
0.0696704
0.0922534
0.132491
0.213037
0.42236
1.23338
8.12739
26.0534
17.7466
87.6141
284.683
671.256
1286.99
2120.88
3104.36
4141.68
5148.08
6071.61
6892.6
7607.64
8217.2
8727.69
9146.96
9486.81
9757.18
9968.1
10128.2
10245.5
10325.9
10375.2
10396
10390.2
10359.9
10308.2
10238.5
10152.6
10052.1
9939.2
9813.93
9675.12
9521.5
9350.87
9161.15
8950.17
8717.28
8462.1
8183.24
7871.4
7512.33
7087.56
6573.79
5935.4
5134.74
4152.02
3057.28
1951.79
915.311
257.571
57.9904
13.3908
2.57906
0.419465
0.0785169
0.0387348
0.0396654
0.0462365
0.0557561
0.0699112
0.0930276
0.13309
0.214436
0.422537
1.23468
8.13751
26.0607
17.7454
87.637
284.763
671.353
1286.94
2120.21
3102.71
4138.08
5142.97
6064.92
6884.61
7598.36
8206.8
8715.79
9134.99
9473.7
9743.66
9954.3
10114.7
10232.4
10313.9
10363.6
10385.8
10382.3
10354.4
10303.9
10233.8
10147.1
10045.5
9930.28
9803.23
9664
9511.07
9342.83
9156.8
8950.75
8722.3
8470.43
8194.12
7888.98
7541.96
7135.51
6647.23
6048.39
5300.11
4376.8
3319.42
2241.54
1186.85
393.972
90.1042
21.6505
4.55809
0.796826
0.133449
0.041982
0.0353135
0.0395892
0.0463886
0.0559075
0.0704939
0.0937402
0.13381
0.214762
0.422742
1.23608
8.14743
26.0446
17.759
87.64
284.839
671.537
1287.13
2120.1
3101.71
4136.01
5138.94
6059.5
6877.68
7590.39
8197.85
8705.79
9123.62
9462.08
9730.86
9940.94
10101
10218.9
10300.9
10351.7
10374.4
10372.5
10347
10299
10230
10142.9
10040.6
9924.17
9794.91
9654.12
9501.09
9333.94
9150.72
8948.69
8725.39
8478.17
8205.72
7904.91
7567.43
7176.6
6711.18
6144.17
5443.38
4576.18
3561.48
2504.49
1458.17
567.61
138.84
33.0703
7.56919
1.42801
0.238832
0.0536543
0.0330361
0.0346877
0.0396815
0.046486
0.056289
0.0710206
0.0944118
0.134251
0.21456
0.423036
1.23755
8.15654
26.0264
17.7396
87.7305
284.874
671.709
1287.42
2120.25
3101.38
4134.64
5136.48
6055.24
6872.13
7583.48
8190.09
8697.24
9114.07
9451.28
9719.6
9928.42
10087.7
10205.3
10287.4
10338.8
10362.7
10361.4
10337.6
10292.2
10225.7
10139.8
10036.9
9919.79
9789.31
9646.49
9492.16
9325.27
9143.56
8944.8
8725.87
8484.08
8216.6
7920.64
7589.98
7212.11
6766.67
6228.07
5565.71
4751.19
3781.42
2746.22
1713.68
769.142
210.094
49.0908
11.8416
2.41799
0.42113
0.0791346
0.033378
0.0311256
0.03467
0.0397499
0.0467139
0.0566764
0.0716022
0.09485
0.134584
0.214448
0.423421
1.23914
8.16588
26.0087
17.7272
87.6198
285.137
671.784
1287.69
2120.65
3101.52
4134.03
5134.67
6052.46
6867.69
7577.89
8183.24
8689.77
9105.9
9442.22
9709.3
9917.47
10075.4
10192.1
10273.8
10325.4
10350
10349.9
10326.9
10283.3
10219.6
10136.2
10034.4
9916.69
9785.49
9641.45
9485.32
9317.42
9136.4
8939.6
8724.43
8487.41
8225.68
7935.34
7611.1
7243.21
6814.81
6301.44
5673.5
4902.05
3978.92
2967.44
1953.16
981.86
307.24
71.5682
17.7485
3.87364
0.715441
0.125942
0.037485
0.0287596
0.0308428
0.034732
0.0399283
0.0469816
0.0571158
0.072094
0.0952801
0.134487
0.214467
0.423872
1.24077
8.17454
25.9902
17.7148
87.5576
284.797
672.416
1287.82
2120.97
3101.8
4133.86
5133.7
6050.25
6864.66
7573.37
8177.72
8683.17
9098.78
9434.45
9700.73
9907.61
10064.7
10180
10260.8
10311.9
10336.7
10337.4
10315.7
10273
10211.3
10130.7
10031.4
9914.76
9782.95
9638.22
9480.91
9311.53
9129.82
8934.17
8721.46
8488.7
8232.16
7948.21
7630.62
7271.43
6856.75
6365.33
5768.5
5036.44
4154.35
3170.13
2175.22
1198.8
427.838
103.143
25.6317
5.939
1.16147
0.204463
0.0471911
0.0276745
0.0278905
0.0308702
0.0348959
0.0401472
0.0473011
0.0575411
0.0726751
0.0954356
0.134164
0.214623
0.424383
1.24254
8.18306
25.9684
17.7014
87.4936
284.596
671.608
1288.97
2121.05
3102
4133.94
5133.25
6048.93
6862.19
7570.15
8173.18
8677.74
9092.51
9427.7
9693.36
9899.48
10055.2
10169.4
10248.8
10298.9
10323.3
10324.3
10303.4
10262.1
10201.5
10123
10026.7
9912.46
9781.63
9636.26
9478.32
9307.85
9125.08
8929.1
8718
8488.23
8236.47
7958.46
7648.14
7297.17
6894.26
6420.83
5851.68
5156.21
4314.41
3357.23
2380.4
1409.33
572.005
146.895
35.9228
8.75101
1.80924
0.327282
0.0651947
0.028175
0.0256504
0.0278029
0.0310129
0.0350915
0.0403974
0.0476587
0.0580402
0.0729324
0.0953257
0.134001
0.214861
0.424968
1.24441
8.19124
25.9508
17.6856
87.4239
284.382
671.138
1287.42
2122.74
3101.91
4133.88
5132.97
6048.12
6860.45
7567.42
8169.87
8673.22
9087.27
9421.74
9686.99
9892.5
10047.5
10160.2
10238.3
10287
10310.5
10311
10290.5
10250.1
10191
10113.9
10019.7
9908.51
9780.04
9635.57
9476.97
9305.93
9122.22
8925.6
8714.66
8487.04
8238.85
7966.38
7662.97
7320.54
6928.1
6470.29
5923.98
5261.89
4459.7
3532.2
2567.46
1610.17
730.236
205.422
49.3687
12.4313
2.70818
0.509684
0.0949256
0.0308311
0.0240819
0.0253285
0.0279058
0.0311847
0.0352796
0.040635
0.0480427
0.0584671
0.0731224
0.0948858
0.13402
0.215166
0.425602
1.24641
8.19962
25.9285
17.6673
87.3364
284.151
670.629
1286.51
2120.23
3104.06
4133.45
5132.48
6047.45
6859.28
7565.41
8167.01
8669.89
9082.84
9416.76
9681.37
9886.51
10040.9
10152.9
10229.4
10276.7
10298.6
10298.2
10277.4
10237.5
10179.4
10103.9
10011.2
9902.33
9776.89
9634.69
9476.92
9305.24
9121.07
8923.74
8712.59
8485.68
8240.23
7971.98
7675.32
7341.01
6958.91
6514.6
5988.19
5354.12
4588.98
3693.58
2743.17
1796.26
896.379
279.926
66.7768
17.128
3.90932
0.766887
0.140522
0.0364184
0.0232248
0.0233355
0.0253741
0.0280535
0.0313325
0.035454
0.0408967
0.0484998
0.0589226
0.0729252
0.0945896
0.13416
0.215514
0.426315
1.24852
8.20803
25.9072
17.6503
87.2514
283.881
670.079
1285.58
2118.8
3100.4
4135.87
5131.68
6046.46
6858.22
7563.85
8164.74
8666.96
9079.49
9412.52
9676.69
9881.27
10035.3
10146.7
10222.3
10267.9
10288.4
10286.5
10264.7
10224.6
10167.1
10092.6
10001.8
9894.59
9771.55
9632.37
9476.77
9305.86
9121.08
8923.46
8711.89
8485.3
8241.14
7976.29
7684.94
7358.77
6986.36
6554.93
6045.8
5435.75
4702.45
3840.2
2906.45
1972.6
1063.05
369.563
89.5756
22.9275
5.47321
1.11563
0.206054
0.0459072
0.0231851
0.0217542
0.0232955
0.0255034
0.0281965
0.0314697
0.0356014
0.0412838
0.0489805
0.0590057
0.0724588
0.0945272
0.134367
0.215901
0.427096
1.25079
8.21698
25.8777
17.628
87.1415
283.564
669.42
1284.5
2117.19
3098.28
4131.02
5134.17
6045.28
6856.83
7562.42
8162.88
8664.62
9076.55
9409.25
9672.7
9876.94
10030.4
10141.4
10216.5
10261.1
10279.8
10276.3
10253.1
10212.1
10154.4
10080.7
9991.06
9885.73
9764.64
9627.93
9475.32
9306.45
9122.41
8924.26
8712.61
8485.96
8242.75
7979.78
7692.86
7373.43
7010.76
6591.11
6098.09
5509.22
4803.25
3971.54
3057.46
2137.92
1228.83
472.998
119.513
30.0134
7.45176
1.57664
0.296241
0.0602484
0.0241299
0.0205424
0.0215761
0.0234086
0.0256513
0.0283272
0.0315879
0.035886
0.041694
0.0492363
0.0586977
0.0721213
0.0946136
0.134611
0.216326
0.427964
1.25321
8.22633
25.8467
17.6034
87.0349
283.229
668.725
1283.33
2115.55
3096.11
4128.31
5128.21
6047.7
6855.18
7560.65
8161.14
8662.53
9074.23
9406.34
9669.6
9873.22
10026.4
10136.9
10211.5
10255.6
10273.2
10267.9
10243
10200.6
10142.1
10068.3
9979.53
9875.61
9756.49
9621.92
9471.82
9305.9
9123.77
8926.36
8714.31
8487.87
8245.02
7983.68
7699.56
7385.92
7031.67
6623.66
6145.21
5576.17
4894.51
4090.12
3196.67
2291.77
1388.74
589.612
157.829
38.8019
9.8783
2.17513
0.417213
0.0806003
0.0262332
0.0196836
0.0201414
0.0216606
0.0235542
0.0257901
0.0284552
0.0318027
0.0362508
0.0419969
0.0492045
0.058294
0.0720121
0.0947726
0.134886
0.216797
0.428912
1.2558
8.23696
25.8176
17.5758
86.8981
282.841
667.877
1281.94
2113.63
3093.8
4125.48
5124.84
6040.77
6857.49
7558.65
8159
8660.52
9072.05
9404.07
9666.76
9870.32
10023
10133.2
10207.3
10250.9
10267.9
10261.6
10234.8
10190.6
10130.7
10056.2
9967.48
9864.59
9747.03
9614.57
9466.8
9303.41
9124.16
8928.54
8717.25
8490.61
8248.33
7987.88
7706.29
7396.7
7049.91
6652.28
6187.92
5636.86
4978.32
4198.96
3324.96
2432
1540.76
713.459
205.732
49.6803
12.8396
2.92461
0.577315
0.108509
0.0297312
0.0191766
0.0189399
0.0201834
0.021799
0.0236952
0.0259253
0.028627
0.0320903
0.0365373
0.0422057
0.049096
0.0578906
0.0720758
0.0949654
0.13519
0.217311
0.429951
1.2586
8.24856
25.7857
17.5473
86.7477
282.411
667.019
1280.42
2111.48
3091.12
4122.51
5121.49
6036.79
6849.67
7560.75
8156.68
8658.09
9069.86
9401.87
9664.53
9867.59
10020.3
10130
10204
10247
10263.6
10256.5
10228.6
10182.5
10120.8
10045
9955.7
9852.99
9736.62
9605.89
9460.35
9299.46
9122.74
8929.89
8720.3
8494.51
8252.29
7992.85
7712.89
7407.05
7065.9
6677.72
6226.1
5692.3
5054.84
4300.17
3444.34
2560.87
1681.21
840.19
263.323
63.1123
16.389
3.85065
0.781303
0.146161
0.0349431
0.0190445
0.0179333
0.0189156
0.0203026
0.0219291
0.0238241
0.0260614
0.0288476
0.0322946
0.0368674
0.0424521
0.0485517
0.0577889
0.0722104
0.095182
0.135521
0.217876
0.431093
1.26163
8.2616
25.7515
17.517
86.5919
281.921
665.989
1278.76
2109.1
3088.17
4119.17
5117.99
6032.95
6845.19
7552.18
8158.59
8655.44
9067.19
9399.59
9662.39
9865.45
10017.8
10127.6
10201.1
10244
10260
10252.4
10223.7
10176.4
10112.9
10035.3
9944.78
9841.57
9725.54
9596.17
9452.53
9294.01
9119.93
8929.61
8722.71
8498.53
8257.32
7998.28
7719.95
7416.76
7080.9
6700.31
6260.43
5742.24
5125.22
4393.25
3556.55
2681.02
1811.12
965.012
329.366
79.6861
20.5618
4.97331
1.03577
0.19494
0.0423343
0.0193297
0.0171043
0.0178187
0.0190146
0.0204182
0.0220383
0.0239387
0.0262322
0.0289511
0.0326274
0.0371678
0.0420127
0.0482033
0.0578503
0.0723732
0.0954182
0.135884
0.218488
0.432323
1.26492
8.2762
25.7161
17.4846
86.4265
281.396
664.835
1276.89
2106.51
3084.94
4115.55
5114.17
6029.04
6840.96
7547.24
8149.4
8657.23
9064.25
9396.78
9660.08
9863.42
10015.8
10125.4
10199
10241.5
10257.3
10249.2
10220
10171.8
10107
10027.5
9935.17
9830.92
9714.56
9585.72
9443.61
9287.15
9115.57
8928.03
8723.63
8502.07
8262.44
8004.64
7727.18
7426.5
7094.65
6721.23
6291.33
5787.52
5189.11
4479.39
3661.39
2794.35
1932.74
1086.13
402.221
99.9905
25.3965
6.30839
1.34572
0.256268
0.0522052
0.0201039
0.0164396
0.0168653
0.0178962
0.019117
0.0205128
0.022149
0.0240799
0.0262787
0.0292318
0.0328994
0.0370089
0.0415347
0.0481265
0.0579731
0.0725543
0.095678
0.136281
0.219158
0.433671
1.26849
8.29244
25.6797
17.4513
86.2496
280.848
663.612
1274.75
2103.62
3081.44
4111.59
5109.99
6024.87
6836.71
7542.72
8144.08
8647.58
9065.93
9393.61
9657.21
9861.17
10014
10123.7
10197.1
10239.7
10255.2
10246.8
10217
10168.3
10102.5
10021.7
9927.51
9821.51
9704.28
9575.28
9433.92
9279.15
9109.81
8924.88
8723.36
8504.26
8267.22
8011.07
7735.16
7436.04
7107.91
6740.23
6319.74
5828.42
5247.36
4558.2
3760.01
2901.8
2048.02
1203.08
481.288
124.232
31.0025
7.85253
1.71806
0.331222
0.064849
0.0214114
0.015938
0.0160368
0.0169209
0.0179926
0.0192063
0.0206285
0.0222845
0.0241215
0.0264969
0.029503
0.0329948
0.0367509
0.0412301
0.0481984
0.0581175
0.0727529
0.095962
0.136714
0.219889
0.435134
1.27239
8.3104
25.6426
17.4164
86.0659
280.263
662.318
1272.48
2100.35
3077.57
4107.35
5105.5
6020.34
6832.29
7538.23
8139.34
8641.93
9055.98
9395.24
9653.97
9858.31
10011.9
10122.1
10195.7
10238.2
10253.6
10245
10214.9
10165.6
10099.2
10017.4
9921.82
9814.03
9695.1
9565.42
9424.1
9270.38
9102.86
8920.31
8721.52
8505.41
8270.79
8017.24
7743.12
7446.03
7120.46
6758.06
6345.46
5866.13
5300.18
4630.55
3851.64
3004.45
2157.65
1316
565.257
152.789
37.4326
9.62374
2.15199
0.42145
0.0804171
0.0232921
0.0155913
0.0153164
0.0160668
0.0170154
0.018083
0.019329
0.0207692
0.0223476
0.0243008
0.0267531
0.029752
0.033036
0.0362185
0.0412039
0.0483148
0.0582763
0.0729694
0.0962705
0.137186
0.220684
0.436723
1.27664
8.33032
25.6045
17.381
85.876
279.655
660.953
1270.09
2096.83
3073.19
4102.68
5100.69
6015.48
6827.45
7533.56
8134.69
8637.04
9050.03
9385.05
9655.57
9855.11
10009.1
10120.1
10194.3
10237
10252.5
10243.8
10213.4
10163.8
10096.9
10014.3
9917.71
9808.45
9687.82
9556.55
9414.77
9261.3
9095.07
8914.54
8718.3
8504.99
8273.45
8022.31
7750.91
7455.88
7133.05
6774.56
6369.21