/*--------------------------------*- C++ -*----------------------------------*\
| =========                 |                                                 |
| \\      /  F ield         | OpenFOAM: The Open Source CFD Toolbox           |
|  \\    /   O peration     | Version:  v2012                                 |
|   \\  /    A nd           | Website:  www.openfoam.com                      |
|    \\/     M anipulation  |                                                 |
\*---------------------------------------------------------------------------*/
FoamFile
{
    version     2.0;
    format      ascii;
    class       volScalarField;
    location    "3800";
    object      lamda1;
}
// * * * * * * * * * * * * * * * * * * * * * * * * * * * * * * * * * * * * * //

dimensions      [0 0 0 0 0 0 0];


internalField   nonuniform List<scalar> 
29502
(
0.0038474
0.000610846
0.0807157
0.000590612
0.015052
0.181026
0.000699977
0.0138874
0.0763867
0.224701
0.00077349
0.0161112
0.0711524
0.165798
0.22258
0.000816243
0.0175402
0.080197
0.171074
0.256729
0.202748
0.000837382
0.0183378
0.0855522
0.18707
0.278083
0.336229
0.17862
0.000843583
0.0186976
0.0883841
0.195933
0.296071
0.3659
0.397691
0.153773
0.000842495
0.0187825
0.0894362
0.200374
0.305638
0.381111
0.42772
0.441491
0.13002
0.00083465
0.0187308
0.089492
0.201712
0.310222
0.389153
0.437891
0.46724
0.470393
0.108537
0.000823795
0.0185634
0.0891013
0.201492
0.311357
0.392906
0.443576
0.472204
0.491061
0.48808
0.0897635
0.000814141
0.0183482
0.088319
0.200577
0.310905
0.393691
0.446226
0.475627
0.491459
0.505706
0.497943
0.073589
0.000807228
0.0181559
0.0874425
0.199103
0.309713
0.393211
0.446709
0.477277
0.493106
0.502297
0.515598
0.502468
0.0599248
0.000799248
0.0180155
0.0866582
0.197554
0.307999
0.3921
0.446345
0.477547
0.494055
0.502638
0.509461
0.522096
0.503571
0.0484391
0.00078671
0.0178566
0.0860735
0.196165
0.306252
0.390608
0.445502
0.47733
0.494193
0.50316
0.508698
0.514371
0.525911
0.501919
0.0389164
0.000778016
0.0176153
0.0854306
0.19511
0.304685
0.389088
0.444423
0.476781
0.494087
0.503214
0.508856
0.512474
0.517218
0.52813
0.498132
0.0310503
0.00076932
0.0174472
0.0845006
0.193971
0.303473
0.38773
0.443309
0.476101
0.493749
0.503184
0.508842
0.51228
0.514178
0.518611
0.529154
0.492268
0.0246489
0.000761351
0.0172785
0.0838489
0.192387
0.302175
0.386649
0.442309
0.475378
0.493351
0.502963
0.508871
0.512206
0.513669
0.514558
0.519071
0.529605
0.508391
0.0194618
0.000754935
0.0171246
0.0831989
0.19127
0.300418
0.385508
0.44149
0.474721
0.492909
0.502712
0.508746
0.512283
0.51355
0.513731
0.514254
0.518955
0.530938
0.501349
0.0152768
0.000747115
0.0170023
0.0826086
0.190156
0.299173
0.383993
0.440644
0.474169
0.492515
0.502432
0.50861
0.512237
0.513652
0.513595
0.513038
0.513741
0.518758
0.534013
0.491322
0.0119448
0.000740047
0.0168542
0.082143
0.189149
0.297936
0.382903
0.439526
0.473609
0.492174
0.502196
0.508424
0.512205
0.513658
0.513689
0.512898
0.511953
0.513229
0.519182
0.53864
0.476121
0.00929479
0.000734224
0.0167206
0.081588
0.18836
0.296812
0.381823
0.438705
0.472866
0.491836
0.501983
0.508263
0.512107
0.513692
0.51371
0.512955
0.511802
0.510714
0.512736
0.520666
0.543496
0.454576
0.00719038
0.000728637
0.0166116
0.0810903
0.187431
0.295936
0.380842
0.437893
0.472315
0.491377
0.501772
0.508095
0.512002
0.513669
0.513802
0.512977
0.511779
0.510509
0.509533
0.512324
0.522875
0.546398
0.426152
0.00554042
0.000723259
0.0165052
0.0806861
0.186603
0.294916
0.380073
0.43716
0.471766
0.491039
0.501493
0.507957
0.511881
0.513635
0.513833
0.513092
0.511806
0.510351
0.509137
0.508551
0.512149
0.525299
0.544942
0.390918
0.00423944
0.000719475
0.0164035
0.080289
0.185931
0.294016
0.379191
0.436583
0.471273
0.4907
0.501269
0.507748
0.511802
0.513568
0.513849
0.513169
0.511923
0.510373
0.508837
0.507758
0.50779
0.512454
0.52817
0.537983
0.348842
0.00322626
0.000715282
0.0163325
0.0799135
0.185272
0.293281
0.378424
0.435931
0.470882
0.490392
0.501048
0.507566
0.511635
0.513538
0.513806
0.513195
0.512006
0.510495
0.508838
0.507366
0.506473
0.507293
0.513474
0.531793
0.529427
0.301327
0.00243751
0.000709501
0.0162543
0.0796536
0.184646
0.292556
0.37779
0.43536
0.470443
0.490138
0.500854
0.507396
0.511518
0.513451
0.513822
0.513178
0.512049
0.510574
0.508941
0.507303
0.505995
0.505419
0.507185
0.51528
0.536243
0.523912
0.25046
0.00182941
0.000703625
0.0161463
0.0793692
0.184221
0.291874
0.37716
0.434885
0.470056
0.489863
0.500688
0.507239
0.511396
0.513391
0.513794
0.513219
0.51207
0.510638
0.509025
0.507346
0.505817
0.50481
0.504692
0.507553
0.517944
0.541443
0.518625
0.199791
0.00136591
0.000698798
0.0160374
0.0789748
0.183755
0.291414
0.376584
0.434414
0.469731
0.489628
0.500517
0.507114
0.511276
0.513301
0.513762
0.513212
0.512109
0.510672
0.509092
0.50742
0.50579
0.504457
0.50385
0.504327
0.508488
0.521504
0.546876
0.509416
0.153028
0.00101802
0.000696106
0.0159494
0.0785813
0.183116
0.29092
0.376198
0.43399
0.469412
0.489412
0.500366
0.506984
0.511157
0.513239
0.513708
0.513214
0.512105
0.510715
0.509118
0.507499
0.505841
0.504345
0.503325
0.503146
0.504372
0.510077
0.525955
0.551076
0.49494
0.112857
0.000741585
0.00069404
0.0159022
0.0782706
0.182484
0.290232
0.375777
0.433707
0.469119
0.489205
0.500214
0.506858
0.51105
0.513158
0.513675
0.5132
0.512121
0.510716
0.509149
0.507515
0.505902
0.50435
0.503171
0.502584
0.502743
0.504888
0.512428
0.531165
0.551437
0.472936
0.0800475
0.000533334
0.000691766
0.0158668
0.0781137
0.181994
0.289562
0.375192
0.433389
0.468924
0.489011
0.500064
0.506739
0.510966
0.513082
0.513648
0.513186
0.512129
0.51073
0.509154
0.507505
0.505897
0.504385
0.503139
0.502452
0.502298
0.502688
0.505934
0.515655
0.536802
0.544425
0.439434
0.0548576
0.000377233
0.000688675
0.0158272
0.0779993
0.181762
0.28905
0.374617
0.432961
0.46871
0.48889
0.499935
0.506617
0.510866
0.513029
0.513607
0.513167
0.512145
0.510737
0.509177
0.507504
0.505866
0.504375
0.503147
0.502397
0.502164
0.50223
0.50303
0.507599
0.519873
0.542385
0.532859
0.389746
0.0366766
0.000251792
0.000685018
0.015771
0.0778694
0.181596
0.288819
0.374193
0.432544
0.468429
0.488756
0.499852
0.506523
0.510778
0.512954
0.513569
0.513145
0.512124
0.510771
0.509169
0.507546
0.505844
0.504325
0.503131
0.502392
0.50209
0.502053
0.502228
0.503813
0.509975
0.525172
0.547582
0.524599
0.322537
0.0246637
0.000157122
0.000680858
0.0157035
0.0776764
0.181405
0.28866
0.374011
0.43224
0.468158
0.488587
0.499756
0.50644
0.510707
0.512892
0.513511
0.513134
0.512094
0.510758
0.5092
0.507536
0.505892
0.504264
0.503076
0.502374
0.50207
0.501945
0.502003
0.502276
0.5051
0.513206
0.531408
0.551535
0.516139
0.247397
0.0167343
9.09906e-05
0.000676647
0.0156257
0.0774363
0.18111
0.28848
0.373887
0.432109
0.467954
0.488418
0.499645
0.506351
0.510629
0.512842
0.513465
0.513096
0.512102
0.510725
0.509197
0.507548
0.505871
0.504296
0.503001
0.502322
0.502039
0.501907
0.501851
0.502
0.502541
0.506987
0.517413
0.538021
0.551537
0.498527
0.177869
0.011329
4.76396e-05
0.000672629
0.0155478
0.0771599
0.180734
0.288182
0.373748
0.43202
0.467857
0.488289
0.499541
0.506261
0.510559
0.512794
0.513421
0.513057
0.512086
0.510732
0.509176
0.507539
0.50588
0.504255
0.503014
0.502267
0.501982
0.501864
0.501792
0.501808
0.502064
0.50338
0.509585
0.52267
0.544282
0.543677
0.466988
0.123494
0.00743256
2.22071e-05
0.000668862
0.0154732
0.0768821
0.180293
0.287787
0.373509
0.431916
0.467797
0.488216
0.499466
0.506187
0.510515
0.512754
0.513397
0.513014
0.512043
0.510711
0.509175
0.507528
0.505869
0.504282
0.502965
0.502274
0.501935
0.501799
0.501734
0.501732
0.501816
0.502193
0.504959
0.513043
0.528997
0.549085
0.530925
0.416076
0.0840308
0.00460525
9.07702e-06
0.000665931
0.0154047
0.0766171
0.179852
0.287326
0.373183
0.43175
0.467728
0.488172
0.499409
0.506133
0.510454
0.512728
0.513372
0.512994
0.512014
0.510679
0.50914
0.507524
0.505833
0.504269
0.502987
0.502232
0.501942
0.501733
0.501651
0.501653
0.501715
0.501889
0.502621
0.507274
0.517526
0.536083
0.551267
0.520461
0.343586
0.0554632
0.00258778
4.22614e-06
0.000663852
0.0153514
0.0763765
0.17944
0.286868
0.372803
0.431527
0.467621
0.488122
0.499358
0.506065
0.5104
0.512682
0.513326
0.512971
0.511995
0.510671
0.509111
0.507494
0.505822
0.504195
0.502982
0.502235
0.501902
0.501734
0.50156
0.50155
0.501622
0.501759
0.502009
0.503846
0.510358
0.523156
0.543117
0.548692
0.506464
0.258887
0.0344944
0.00124926
3.82149e-06
0.000662218
0.015314
0.0761882
0.179058
0.286447
0.372427
0.431258
0.467478
0.488054
0.499315
0.506011
0.510321
0.512639
0.513308
0.512934
0.511953
0.510633
0.509091
0.507451
0.505794
0.504165
0.502906
0.502232
0.501895
0.501685
0.501555
0.501443
0.501497
0.501639
0.501853
0.502334
0.505969
0.514367
0.529881
0.548795
0.539344
0.47689
0.180286
0.0197536
0.000523442
4.86957e-06
0.000661801
0.0152883
0.0760647
0.178766
0.286061
0.372087
0.43099
0.467306
0.487976
0.499275
0.505991
0.51027
0.512596
0.513292
0.512942
0.511945
0.51058
0.509058
0.507409
0.505746
0.504141
0.50288
0.502192
0.501887
0.501678
0.501497
0.501434
0.501365
0.501497
0.501712
0.501994
0.503275
0.508897
0.519485
0.537304
0.551364
0.526801
0.424385
0.118079
0.0102131
0.00015445
6.4137e-06
0.000661777
0.0152835
0.0759862
0.178582
0.285752
0.371769
0.430746
0.467136
0.487873
0.499229
0.505964
0.51024
0.512534
0.513251
0.512937
0.511968
0.510585
0.50901
0.507379
0.505707
0.50409
0.502859
0.502172
0.501856
0.501666
0.501487
0.501358
0.501349
0.501345
0.50155
0.501836
0.502316
0.505171
0.512694
0.525814
0.544453
0.548215
0.514254
0.344607
0.071988
0.00460941
3.60213e-05
8.99936e-06
0.000661809
0.0152873
0.0759908
0.178484
0.285571
0.371516
0.43051
0.466979
0.487768
0.499165
0.505908
0.510217
0.512478
0.513196
0.512862
0.511962
0.510607
0.509004
0.507313
0.505657
0.504047
0.502806
0.502152
0.501838
0.50162
0.501476
0.501336
0.501262
0.50132
0.501377
0.501661
0.502
0.50324
0.508013
0.517531
0.533174
0.549579
0.538098
0.492412
0.247663
0.0387027
0.00212147
1.328e-05
1.21332e-05
0.000661557
0.0152919
0.0760255
0.178518
0.285498
0.371379
0.430333
0.466819
0.487674
0.499082
0.505847
0.510178
0.512458
0.513154
0.512838
0.5119
0.510616
0.509021
0.507286
0.505558
0.50399
0.502757
0.502116
0.50182
0.501603
0.50142
0.501318
0.501236
0.501222
0.50134
0.501466
0.501815
0.502376
0.505146
0.511746
0.523539
0.540784
0.550345
0.525773
0.446833
0.158218
0.0159781
0.00136989
5.88722e-06
1.23679e-05
0.000660912
0.0152911
0.076063
0.17861
0.285565
0.371339
0.430243
0.4667
0.487574
0.499023
0.505786
0.510132
0.512437
0.513139
0.512806
0.51187
0.510583
0.509056
0.507312
0.505495
0.50387
0.502713
0.502086
0.501796
0.501584
0.501393
0.501253
0.501213
0.501184
0.501229
0.501412
0.501605
0.502007
0.503433
0.507978
0.516449
0.530643
0.547044
0.5433
0.513445
0.367484
0.0883401
0.00458402
0.00094528
5.96689e-06
1.18859e-05
0.000659611
0.0152805
0.0760778
0.178704
0.285683
0.371409
0.430214
0.466638
0.487499
0.498973
0.505745
0.510105
0.512424
0.513125
0.512779
0.511826
0.510517
0.509034
0.507365
0.50554
0.503803
0.502619
0.502063
0.501772
0.501552
0.501377
0.501219
0.50114
0.501157
0.501184
0.501291
0.50154
0.501787
0.502456
0.505453
0.511689
0.522284
0.538166
0.54939
0.53083
0.490206
0.260994
0.0387848
0.0011264
0.000684704
9.12898e-06
1.05638e-05
0.000657709
0.0152583
0.0760534
0.17876
0.285814
0.371526
0.430272
0.466621
0.487455
0.49893
0.505696
0.510073
0.512408
0.513122
0.512785
0.511797
0.510447
0.508941
0.507344
0.505589
0.50384
0.502565
0.502014
0.501751
0.501524
0.50134
0.5012
0.501101
0.501076
0.501153
0.501229
0.501399
0.501702
0.501996
0.503688
0.50839
0.516353
0.529152
0.544678
0.544906
0.520286
0.439585
0.150994
0.0117784
0.000592588
0.000565401
1.48233e-05
8.85402e-06
0.000655248
0.0152244
0.0759805
0.178739
0.285904
0.371648
0.43037
0.466657
0.487442
0.498889
0.505651
0.510018
0.512388
0.513113
0.512791
0.511794
0.510432
0.508874
0.507244
0.505564
0.503885
0.502579
0.50197
0.50171
0.501497
0.501305
0.501163
0.501071
0.50103
0.501055
0.50119
0.501325
0.501558
0.501895
0.502528
0.50593
0.512158
0.522106
0.536565
0.548149
0.534194
0.506117
0.346629
0.0648608
0.00293855
0.000548676
0.000404177
2.31118e-05
6.67275e-06
0.000652034
0.0151767
0.0758629
0.178637
0.285901
0.371745
0.430466
0.466722
0.48746
0.498874
0.505615
0.509969
0.512358
0.513108
0.512789
0.511804
0.510428
0.508836
0.507174
0.505469
0.503846
0.502619
0.501968
0.501668
0.501441
0.501272
0.501122
0.50103
0.500993
0.501002
0.501082
0.501284
0.501471
0.501751
0.50222
0.503979
0.509045
0.516906
0.528952
0.54352
0.54518
0.523372
0.471498
0.216003
0.0207473
0.000768715
0.000849567
0.000217193
3.4592e-05
4.48528e-06
0.000648323
0.0151166
0.0756926
0.178455
0.285813
0.371762
0.430546
0.46679
0.487487
0.498874
0.505604
0.509946
0.51233
0.513075
0.512784
0.511805
0.510426
0.508844
0.507123
0.505387
0.503771
0.50259
0.501991
0.501665
0.50139
0.501207
0.501083
0.500985
0.500942
0.500966
0.501022
0.501163
0.501421
0.501653
0.501974
0.503094
0.506497
0.513046
0.522833
0.536682
0.547555
0.534792
0.512307
0.395749
0.0949746
0.00561083
0.000153631
0.00122095
7.91948e-05
5.65757e-05
2.49424e-06
0.000644553
0.0150466
0.0754721
0.178184
0.285631
0.371709
0.43057
0.466847
0.487527
0.498873
0.505585
0.509915
0.512292
0.513045
0.512758
0.511795
0.510431
0.508844
0.50712
0.505341
0.503701
0.502547
0.501994
0.501686
0.50139
0.501151
0.501017
0.500946
0.500895
0.500908
0.500979
0.501096
0.501295
0.501603
0.501868
0.502459
0.504968
0.509923
0.518195
0.530104
0.543815
0.544408
0.523586
0.485705
0.264914
0.0282574
0.00127919
1.48637e-05
0.00160862
8.43588e-06
0.000102401
9.19822e-07
0.000640922
0.0149736
0.075212
0.177828
0.285349
0.371564
0.430535
0.46686
0.487561
0.49889
0.505593
0.509901
0.512255
0.513001
0.512731
0.511784
0.510418
0.508835
0.507134
0.50532
0.503657
0.502503
0.501975
0.501705
0.501414
0.501149
0.500953
0.500874
0.500856
0.500853
0.500915
0.501044
0.501221
0.501463
0.501815
0.502194
0.503791
0.507855
0.514359
0.524667
0.538049
0.547145
0.53373
0.513737
0.419792
0.118158
0.00672414
0.000346944
3.35759e-05
0.00186123
2.22574e-07
0.000201656
3.16327e-07
0.000637334
0.0149031
0.0749405
0.177404
0.284973
0.371335
0.430436
0.466835
0.487569
0.498909
0.505581
0.509908
0.512235
0.512982
0.512707
0.511774
0.51042
0.508838
0.507115
0.505325
0.503643
0.502468
0.501936
0.501677
0.501433
0.501167
0.500941
0.500796
0.500772
0.500808
0.500854
0.500974
0.501159
0.501383
0.501669
0.502039
0.503067
0.506175
0.511684
0.519977
0.532271
0.544583
0.542548
0.522813
0.489649
0.292689
0.0321443
0.00164181
6.57107e-05
9.40792e-05
0.00156453
2.32365e-06
0.000239978
1.25272e-07
0.000634376
0.014836
0.0746793
0.176955
0.284512
0.371023
0.430275
0.466774
0.487563
0.498915
0.505594
0.509891
0.512209
0.512951
0.512672
0.51175
0.510397
0.508837
0.507106
0.505317
0.503636
0.502463
0.501902
0.501636
0.501403
0.501187
0.500959
0.500779
0.500685
0.500715
0.50081
0.500907
0.501079
0.501313
0.501588
0.501896
0.502588
0.504937
0.509503
0.516565
0.526876
0.539983
0.546446
0.53114
0.513453
0.425256
0.131313
0.00637988
0.000357732
2.30657e-05
0.000222015
0.00111254
1.52034e-05
0.000241225
6.00536e-08
0.000631799
0.0147777
0.074426
0.17652
0.284028
0.370628
0.430053
0.466676
0.487528
0.498911
0.505592
0.509894
0.512204
0.512909
0.512625
0.511718
0.510358
0.508809
0.507102
0.505294
0.503642
0.502457
0.501894
0.501598
0.501356
0.501165
0.500986
0.500801
0.500666
0.500622
0.500718
0.50086
0.501007
0.501231
0.501509
0.501816
0.502289
0.504075
0.507819
0.513772
0.522669
0.534654
0.545512
0.539549
0.521101
0.488381
0.295951
0.0318339
0.000864726
0.000339769
1.73947e-07
0.00068304
0.000669031
5.18951e-05
0.000192966
2.94321e-08
0.000629641
0.014728
0.0742047
0.1761
0.283571
0.370214
0.429774
0.466538
0.487476
0.498896
0.505572
0.509886
0.512197
0.512885
0.512592
0.511655
0.510345
0.508747
0.507087
0.505278
0.503626
0.502457
0.501894
0.501584
0.501313
0.501115
0.500966
0.500829
0.500685
0.500595
0.500612
0.500761
0.500958
0.501154
0.501417
0.501735
0.502103
0.50334
0.506589
0.51158
0.519141
0.529958
0.54186
0.544862
0.527344
0.511332
0.418655
0.126668
0.00457504
0.000143651
0.000221653
1.1379e-06
0.00140202
0.000296845
0.000133355
0.000136619
1.43437e-08
0.000627913
0.0146869
0.0740191
0.175732
0.283113
0.369835
0.429473
0.466362
0.487397
0.498861
0.50556
0.509872
0.51219
0.512853
0.512541
0.511606
0.510307
0.508737
0.507039
0.505289
0.503601
0.502454
0.501885
0.501584
0.50129
0.50106
0.500911
0.500809
0.500717
0.500613
0.50058
0.500651
0.500853
0.501101
0.501335
0.501638
0.501971
0.502829
0.505399
0.509933
0.516337
0.525779
0.537632
0.545488
0.535103
0.518765
0.481404
0.279423
0.0253436
0.000307717
0.00013775
0.000205947
8.61401e-06
0.00198345
6.91851e-05
0.000323111
8.22616e-05
6.7769e-09
0.000626614
0.0146536
0.0738644
0.175417
0.282707
0.369453
0.429197
0.466171
0.487286
0.498805
0.505537
0.509859
0.512187
0.512858
0.512507
0.511568
0.510252
0.508715
0.507
0.505257
0.503616
0.502444
0.50188
0.501581
0.501286
0.501033
0.500848
0.500753
0.500701
0.500653
0.500593
0.500611
0.500734
0.500992
0.501283
0.501552
0.501878
0.502476
0.504499
0.508383
0.514163
0.522316
0.533362
0.543688
0.541007
0.522839
0.507182
0.398363
0.106285
0.00212844
2.1582e-05
0.000223786
9.07994e-05
5.19981e-05
0.00216159
4.19923e-08
0.000680544
4.37819e-05
3.03943e-09
0.000625674
0.0146296
0.0737428
0.175161
0.282369
0.3691
0.428918
0.465989
0.487164
0.498743
0.505499
0.509841
0.51217
0.512858
0.512499
0.511557
0.510204
0.50867
0.50695
0.50521
0.50359
0.502442
0.501875
0.501571
0.501284
0.501028
0.500817
0.500686
0.500642
0.500639
0.500633
0.500617
0.500686
0.500865
0.501175
0.501499
0.501799
0.502277
0.503801
0.507163
0.512214
0.519524
0.529478
0.540585
0.544548
0.529397
0.515565
0.467285
0.240588
0.0148569
4.2401e-05
4.39103e-05
0.000216631
3.42829e-05
0.000189894
0.00174143
7.09069e-06
0.000942618
1.90374e-05
1.26375e-09
0.000625195
0.0146118
0.0736514
0.174962
0.28209
0.368808
0.428657
0.465799
0.487064
0.498678
0.505461
0.509823
0.512169
0.512827
0.512495
0.511514
0.51017
0.508596
0.506902
0.505156
0.503562
0.502425
0.501871
0.501563
0.501271
0.501019
0.500805
0.500643
0.500568
0.500573
0.500623
0.500661
0.500686
0.500816
0.501045
0.501387
0.501747
0.502113
0.503281
0.506143
0.510658
0.517066
0.52615
0.537033
0.544522
0.536089
0.519833
0.49905
0.362712
0.0719155
0.000408531
9.64686e-06
7.47533e-05
0.000301379
1.15908e-06
0.000773005
0.000916765
6.30047e-05
0.000965287
7.24619e-06
4.64905e-10
0.000625126
0.0146036
0.0735891
0.174818
0.281869
0.368579
0.428442
0.46563
0.486956
0.498622
0.50543
0.509799
0.512163
0.512859
0.512495
0.511508
0.510134
0.508538
0.506837
0.505092
0.503528
0.502412
0.50186
0.501565
0.501267
0.50101
0.500798
0.500625
0.500516
0.500491
0.500554
0.500651
0.500734
0.500808
0.500987
0.501254
0.501636
0.502007
0.502856
0.505264
0.509344
0.515089
0.523152
0.53367
0.542929
0.540548
0.523444
0.511898
0.441654
0.183125
0.00540376
1.36714e-06
1.9801e-05
0.00013474
0.000197844
1.07675e-06
0.00159832
0.000291626
0.00028907
0.000756125
2.28311e-06
1.48137e-10
0.000625436
0.0146033
0.0735646
0.174715
0.281711
0.368381
0.428275
0.465489
0.486844
0.498556
0.505388
0.509761
0.512161
0.512865
0.512501
0.511536
0.510125
0.508506
0.506777
0.505024
0.503465
0.502395
0.501848
0.50155
0.50127
0.501001
0.500791
0.500617
0.500495
0.500436
0.500464
0.500581
0.500726
0.500854
0.500968
0.501193
0.501509
0.501901
0.502556
0.504534
0.508176
0.513422
0.520672
0.53037
0.540648
0.543513
0.529103
0.516419
0.483638
0.305067
0.0355962
0.000134982
4.12878e-06
3.66231e-05
0.000199767
0.000104683
1.53062e-05
0.00258968
1.9573e-05
0.000972545
0.000463866
6.38771e-07
4.29872e-11
0.000625658
0.0146089
0.0735661
0.174678
0.281613
0.368242
0.428135
0.46537
0.48675
0.49849
0.505333
0.509736
0.512149
0.51287
0.512517
0.51152
0.510135
0.50848
0.506722
0.504947
0.503394
0.502367
0.50184
0.501533
0.50125
0.501002
0.500781
0.500607
0.500482
0.500407
0.500398
0.500484
0.500651
0.500849
0.501016
0.501172
0.501455
0.50179
0.502356
0.503997
0.507199
0.511941
0.518568
0.527472
0.537725
0.543929
0.534668
0.519506
0.504376
0.396363
0.112557
0.00137187
2.99994e-05
9.02401e-06
6.38298e-05
0.000285317
1.88122e-05
0.000299755
0.00218772
1.04642e-05
0.002086
0.00021928
1.85267e-07
1.13196e-11
0.000626263
0.0146163
0.073591
0.174688
0.281581
0.368162
0.42803
0.46528
0.486683
0.498425
0.505289
0.509713
0.512129
0.512898
0.512526
0.511532
0.510129
0.50846
0.506693
0.504867
0.503326
0.502315
0.501826
0.501521
0.501237
0.500987
0.500786
0.500597
0.500468
0.500388
0.500365
0.500407
0.500551
0.500771
0.501004
0.501219
0.501411
0.501728
0.502155
0.503532
0.506449
0.510694
0.516711
0.524949
0.534895
0.54275
0.538677
0.522059
0.512619
0.455829
0.220838
0.00966082
7.18187e-05
2.85438e-05
1.58462e-05
0.000163631
0.000352009
9.72263e-06
0.00109021
0.00130421
6.95447e-05
0.00244947
7.80226e-05
5.0767e-08
2.68516e-12
0.000626905
0.0146281
0.0736256
0.174735
0.281594
0.368143
0.427962
0.465215
0.486629
0.498382
0.505247
0.509676
0.512112
0.512882
0.512541
0.511551
0.510142
0.508465
0.50666
0.504856
0.50326
0.502278
0.50179
0.501506
0.501225
0.500975
0.500773
0.500605
0.500454
0.500373
0.50034
0.500369
0.500464
0.500663
0.500925
0.501207
0.501461
0.50168
0.502011
0.503052
0.505717
0.509708
0.515124
0.522692
0.53228
0.541153
0.541336
0.526561
0.515777
0.486862
0.323948
0.0499262
7.20074e-05
2.08647e-05
3.37859e-05
2.82276e-05
0.000338467
0.000372109
6.41084e-06
0.0021804
0.000422868
0.000367058
0.00212212
2.26319e-05
1.24173e-08
5.57803e-13
0.000627188
0.0146403
0.0736751
0.174803
0.281649
0.368163
0.427952
0.465168
0.486581
0.498349
0.505205
0.509632
0.512106
0.512846
0.512555
0.511543
0.51017
0.508482
0.506666
0.504842
0.503255
0.502251
0.501763
0.501477
0.501209
0.500968
0.500761
0.500591
0.500466
0.50036
0.50033
0.500343
0.500417
0.500569
0.500814
0.501127
0.501442
0.501713
0.501942
0.502658
0.504948
0.508775
0.513838
0.52071
0.529782
0.539242
0.54281
0.531327
0.518026
0.503946
0.400162
0.123662
0.0022369
6.31078e-07
3.08878e-05
3.85327e-05
2.55202e-05
0.000500591
0.00033043
4.38938e-05
0.00268095
3.4106e-07
0.00232231
0.00121454
5.4392e-06
2.56237e-09
1.00855e-13
0.00062807
0.0146488
0.0737232
0.174892
0.281723
0.368205
0.427967
0.465154
0.486543
0.498311
0.505169
0.509602
0.512084
0.512868
0.512546
0.511574
0.510173
0.50851
0.506679
0.50484
0.50324
0.502238
0.50175
0.501442
0.501181
0.500953
0.500752
0.500583
0.500458
0.500375
0.500314
0.500327
0.50039
0.50051
0.500713
0.501011
0.501363
0.501692
0.501965
0.502464
0.504291
0.507809
0.51265
0.519048
0.527479
0.53701
0.542808
0.535325
0.520153
0.5112
0.451847
0.218492
0.0136758
1.38841e-05
1.64568e-05
3.45384e-05
5.11278e-05
2.14909e-05
0.000413471
0.000115004
0.000514957
0.00162816
6.18787e-05
0.00403974
0.000487275
1.07459e-06
4.57049e-10
1.56899e-14
0.000628247
0.0146638
0.0737572
0.174977
0.281819
0.368263
0.427993
0.465156
0.486532
0.498283
0.505141
0.509574
0.512053
0.512881
0.51255
0.511595
0.51019
0.508535
0.506707
0.504842
0.503227
0.502215
0.501733
0.501414
0.501139
0.500916
0.500736
0.500575
0.500449
0.500373
0.50033
0.50031
0.500371
0.500475
0.500649
0.500904
0.501249
0.501614
0.501943
0.502425
0.503839
0.506974
0.511476
0.517532
0.52548
0.534791
0.541888
0.538256
0.522819
0.514367
0.481109
0.307348
0.050935
0.000317162
1.42866e-05
2.42243e-05
2.03997e-05
5.89592e-05
3.24552e-05
0.000142675
1.29499e-05
0.00193178
0.000491807
0.0003933
0.00453492
0.000139027
1.91926e-07
7.01321e-11
2.02043e-15
0.000628284
0.0146692
0.0738204
0.17504
0.281921
0.368344
0.428037
0.465175
0.486537
0.498269
0.505123
0.509548
0.512016
0.512857
0.512561
0.511589
0.510217
0.508564
0.50674
0.504859
0.503223
0.502201
0.501713
0.5014
0.501099
0.500871
0.500696
0.500558
0.500442
0.500366
0.50033
0.50033
0.500349
0.500459
0.500605
0.500831
0.50114
0.501505
0.501871
0.50237
0.503634
0.50628
0.510471
0.516093
0.523634
0.532777
0.540754
0.540374
0.526573
0.516103
0.498043
0.378697
0.102768
0.00310766
1.67344e-05
2.73208e-05
1.54137e-05
3.85301e-06
1.07946e-05
6.38213e-05
2.41339e-05
0.000256402
0.00284396
2.5187e-05
0.00321718
0.00277696
2.92799e-05
3.00637e-08
8.97416e-12
2.10028e-16
0.000628225
0.0146697
0.0738415
0.175143
0.281998
0.36844
0.428103
0.465204
0.486552
0.498258
0.505106
0.509526
0.512009
0.512816
0.512554
0.511593
0.510249
0.508598
0.506788
0.50489
0.50323
0.502201
0.501707
0.50138
0.501085
0.500829
0.500651
0.500519
0.50043
0.500363
0.500326
0.500332
0.500372
0.500426
0.500585
0.500786
0.501058
0.501394
0.501778
0.502257
0.50346
0.50586
0.509606
0.514853
0.521886
0.530787
0.539455
0.541901
0.530454
0.51779
0.507272
0.429882
0.177977
0.0113726
0.000178494
2.79835e-05
1.85565e-05
9.27332e-06
3.03144e-05
0.000110984
0.000344962
4.85767e-06
0.00107009
0.00211042
6.97924e-05
0.00688215
0.00111328
4.68023e-06
3.87715e-09
9.21407e-13
1.73762e-17
0.000628102
0.014668
0.0738421
0.175189
0.282111
0.368519
0.428168
0.465245
0.486557
0.498263
0.50508
0.509508
0.512003
0.512798
0.51254
0.51159
0.510253
0.508633
0.506828
0.504932
0.503252
0.502215
0.501702
0.501369
0.50106
0.500811
0.500603
0.500469
0.500388
0.500354
0.500326
0.500328
0.500377
0.500453
0.500555
0.500772
0.501005
0.501307
0.501674
0.502115
0.503211
0.505516
0.508987
0.5138
0.520346
0.52881
0.537788
0.54229
0.533797
0.519541
0.511811
0.464391
0.257956
0.0338521
0.000372595
7.25014e-05
1.79701e-05
1.632e-06
3.27154e-05
0.000104379
0.000537216
0.00058315
2.96437e-07
0.00260084
0.000576186
0.00159001
0.00667215
0.000276965
5.81559e-07
3.98357e-10
7.33698e-14
1.09042e-18
0.000627768
0.0146651
0.0738335
0.175188
0.282156
0.368611
0.428221
0.465282
0.486571
0.49827
0.50507
0.509491
0.511983
0.512797
0.512514
0.511594
0.510253
0.508642
0.506851
0.504974
0.503283
0.502226
0.501711
0.501359
0.501045
0.500782
0.500579
0.500418
0.500333
0.500309
0.500317
0.500333
0.500379
0.500467
0.500588
0.500724
0.500979
0.501246
0.501579
0.501956
0.502904
0.505104
0.508461
0.512976
0.519047
0.526988
0.53591
0.541778
0.536339
0.52131
0.514053
0.484599
0.32997
0.0699981
0.00107216
7.51493e-05
5.12174e-05
6.5728e-06
5.25803e-06
8.16587e-06
0.000124229
0.000821547
0.000496804
0.000127142
0.00275872
3.39451e-05
0.00547391
0.00389306
4.64836e-05
5.76344e-08
3.23613e-11
4.27867e-15
4.80094e-20
0.000627601
0.0146598
0.07382
0.175169
0.28216
0.368635
0.428292
0.465308
0.486596
0.498269
0.505079
0.50948
0.511959
0.512788
0.512482
0.511581
0.510237
0.508645
0.506859
0.505015
0.503321
0.502237
0.501717
0.501361
0.501036
0.500759
0.500544
0.500389
0.500279
0.500247
0.500273
0.500329
0.500387
0.50047
0.500604
0.500767
0.500943
0.501219
0.501514
0.501854
0.502562
0.504638
0.507901
0.512243
0.517981
0.525441
0.534111
0.540764
0.538156
0.524053
0.515428
0.497745
0.385509
0.11378
0.00438344
5.98298e-05
9.17663e-05
3.39177e-05
3.57099e-05
5.36896e-05
2.4408e-05
6.28214e-05
0.000543598
9.66807e-05
0.00122191
0.00140269
5.78328e-05
0.00970602
0.00117011
5.33978e-06
4.62876e-09
1.9614e-12
1.68416e-16
1.36979e-21
0.000627177
0.0146538
0.0737951
0.175142
0.282134
0.368638
0.428311
0.465358
0.48661
0.498271
0.505079
0.509469
0.511928
0.512771
0.512476
0.511545
0.510211
0.508625
0.506864
0.505028
0.503366
0.502256
0.501721
0.501365
0.501034
0.500742
0.500516
0.500345
0.500246
0.500187
0.500211
0.500285
0.500388
0.500483
0.50061
0.500787
0.500973
0.501185
0.501483
0.501793
0.502369
0.50412
0.507324
0.5115
0.51702
0.524173
0.532574
0.539778
0.539455
0.527
0.516591
0.505843
0.427356
0.179423
0.0139514
0.000106999
0.000104448
7.69927e-05
4.06721e-05
0.00010133
0.000165502
0.00015681
2.03358e-05
0.000112814
9.73731e-05
0.00281234
5.81928e-05
0.00614179
0.00777825
0.000210218
4.3497e-07
2.76769e-10
8.58531e-14
3.89148e-18
2.34732e-23
0.000626792
0.0146457
0.0737739
0.175101
0.2821
0.368615
0.428309
0.465371
0.486629
0.498272
0.50506
0.509462
0.511914
0.512732
0.51247
0.511513
0.510192
0.508604
0.506868
0.505037
0.503392
0.502287
0.501731
0.501375
0.501036
0.500744
0.500493
0.500315
0.500196
0.500151
0.500146
0.500222
0.500341
0.500487
0.500628
0.500792
0.500996
0.501211
0.501454
0.501765
0.50224
0.503695
0.506704
0.51079
0.516073
0.522996
0.531271
0.538864
0.540529
0.5298
0.517744
0.510264
0.457122
0.249709
0.0397558
0.000421016
0.000119812
0.000101115
4.55296e-05
5.29448e-05
7.09229e-05
0.000150088
0.000125452
6.33833e-05
2.83954e-05
0.00123504
0.0021389
0.00119922
0.0130094
0.00294236
2.20188e-05
2.54742e-08
1.18687e-11
2.58169e-15
6.06499e-20
2.27573e-25
0.000626014
0.014635
0.0737324
0.175049
0.282052
0.368585
0.42829
0.46537
0.48663
0.498294
0.505052
0.509458
0.511897
0.512695
0.512443
0.511492
0.510157
0.508598
0.506872
0.505047
0.503403
0.502303
0.501751
0.501382
0.501042
0.50074
0.500486
0.500284
0.500157
0.500098
0.500103
0.50015
0.500274
0.500442
0.500632
0.500816
0.501003
0.501234
0.501476
0.501744
0.502151
0.503363
0.506085
0.510072
0.515172
0.521851
0.530017
0.537932
0.541025
0.532232
0.518964
0.512631
0.47677
0.309919
0.0695805
0.00245471
0.000112234
0.000117244
5.81761e-05
1.40012e-05
9.13769e-06
8.02003e-06
3.45465e-06
1.35979e-05
0.000259875
6.28581e-05
0.00285994
0.000424975
0.00306086
0.0106927
0.000550271
1.45875e-06
1.05764e-09
3.20834e-13
5.3757e-17
7.36846e-22
1.64597e-27
0.000625153
0.0146207
0.073691
0.17498
0.281991
0.368548
0.428269
0.465357
0.48664
0.498281
0.50508
0.509446
0.511894
0.512677
0.512406
0.511493
0.510143
0.508588
0.506867
0.505059
0.503403
0.50231
0.501769
0.501407
0.501056
0.500742
0.500485
0.500274
0.500122
0.500051
0.500044
0.5001
0.500196
0.500371
0.50059
0.500825
0.501032
0.501247
0.501501
0.501757
0.50209
0.503103
0.505549
0.50935
0.514301
0.52072
0.528739
0.536896
0.541066
0.534194
0.520126
0.51394
0.489497
0.359446
0.099102
0.00620457
0.000313359
9.96828e-05
8.10626e-05
8.96398e-06
9.81146e-06
3.93295e-05
6.49384e-05
0.00017175
0.000789053
0.000568341
0.000350744
0.00289407
8.31256e-05
0.0109138
0.00551639
5.15587e-05
6.14584e-08
2.77434e-11
6.08343e-15
8.79754e-19
3.69273e-24
2.42062e-29
0.000624324
0.0146037
0.0736299
0.174892
0.2819
0.368477
0.428229
0.465337
0.486636
0.498298
0.505053
0.50945