/*--------------------------------*- C++ -*----------------------------------*\
| =========                 |                                                 |
| \\      /  F ield         | OpenFOAM: The Open Source CFD Toolbox           |
|  \\    /   O peration     | Version:  v2012                                 |
|   \\  /    A nd           | Website:  www.openfoam.com                      |
|    \\/     M anipulation  |                                                 |
\*---------------------------------------------------------------------------*/
FoamFile
{
    version     2.0;
    format      ascii;
    class       volScalarField;
    location    "3800";
    object      lamda2;
}
// * * * * * * * * * * * * * * * * * * * * * * * * * * * * * * * * * * * * * //

dimensions      [0 0 0 0 0 0 0];


internalField   nonuniform List<scalar> 
29502
(
0.00384227
0.000610853
0.0806589
0.000590612
0.0150525
0.180874
0.000699977
0.0138874
0.0763904
0.224467
0.00077349
0.0161112
0.0711524
0.165808
0.222296
0.000816243
0.0175402
0.080197
0.171074
0.256748
0.202445
0.000837382
0.0183378
0.0855522
0.18707
0.278083
0.336256
0.178309
0.000843583
0.0186976
0.0883841
0.195933
0.296071
0.365901
0.397728
0.153514
0.000842495
0.0187825
0.0894362
0.200374
0.305638
0.381111
0.427721
0.441534
0.129804
0.00083465
0.0187308
0.089492
0.201712
0.310222
0.389153
0.43789
0.467241
0.470445
0.108357
0.000823795
0.0185634
0.0891013
0.201492
0.311357
0.392906
0.443576
0.472203
0.491063
0.48814
0.0896113
0.000814141
0.0183482
0.088319
0.200577
0.310905
0.393691
0.446226
0.475627
0.491459
0.505709
0.498012
0.0734587
0.000807228
0.0181559
0.0874425
0.199103
0.309713
0.393211
0.446709
0.477277
0.493105
0.502297
0.515602
0.502546
0.059812
0.000799248
0.0180155
0.0866582
0.197554
0.307999
0.3921
0.446345
0.477547
0.494055
0.502638
0.50946
0.522101
0.503658
0.0483404
0.00078671
0.0178566
0.0860736
0.196165
0.306252
0.390608
0.445502
0.47733
0.494193
0.50316
0.508697
0.514371
0.525919
0.502017
0.0388292
0.000778016
0.0176153
0.0854306
0.19511
0.304685
0.389088
0.444423
0.476781
0.494087
0.503214
0.508855
0.512472
0.517218
0.52814
0.498242
0.0309726
0.00076932
0.0174472
0.0845005
0.193971
0.303473
0.38773
0.443309
0.476101
0.493749
0.503184
0.508842
0.512279
0.514176
0.518611
0.529167
0.492393
0.0245794
0.000761351
0.0172785
0.0838489
0.192387
0.302175
0.386649
0.442309
0.475378
0.493351
0.502963
0.508871
0.512206
0.513668
0.514556
0.519071
0.529621
0.508521
0.0194002
0.000754935
0.0171246
0.0831989
0.19127
0.300418
0.385508
0.44149
0.474721
0.492909
0.502712
0.508746
0.512283
0.51355
0.51373
0.514252
0.518955
0.530959
0.501498
0.0152224
0.000747115
0.0170023
0.0826086
0.190156
0.299173
0.383993
0.440644
0.474169
0.492515
0.502432
0.50861
0.512237
0.513652
0.513594
0.513036
0.513738
0.518759
0.534038
0.491495
0.0118969
0.000740047
0.0168542
0.082143
0.189149
0.297936
0.382903
0.439526
0.473609
0.492174
0.502196
0.508424
0.512205
0.513658
0.513689
0.512897
0.511952
0.513225
0.519184
0.538672
0.476321
0.00925295
0.000734225
0.0167206
0.081588
0.18836
0.296812
0.381823
0.438705
0.472866
0.491836
0.501983
0.508263
0.512107
0.513692
0.51371
0.512954
0.511801
0.510712
0.512732
0.520669
0.543536
0.454811
0.00715401
0.000728637
0.0166116
0.0810903
0.187431
0.295936
0.380842
0.437893
0.472315
0.491377
0.501772
0.508095
0.512003
0.513669
0.513802
0.512977
0.511778
0.510508
0.50953
0.512319
0.522879
0.546446
0.426421
0.00550896
0.000723259
0.0165052
0.0806861
0.186603
0.294916
0.380073
0.43716
0.471766
0.491039
0.501493
0.507956
0.511881
0.513636
0.513833
0.513092
0.511806
0.51035
0.509135
0.508547
0.512143
0.525304
0.544998
0.391218
0.00421228
0.000719475
0.0164035
0.080289
0.185931
0.294016
0.379191
0.436583
0.471273
0.4907
0.501269
0.507748
0.511802
0.513568
0.513849
0.513169
0.511923
0.510373
0.508836
0.507756
0.507785
0.512448
0.528177
0.538047
0.349171
0.00320288
0.000715282
0.0163325
0.0799135
0.185272
0.293281
0.378424
0.435931
0.470882
0.490392
0.501048
0.507566
0.511635
0.513538
0.513806
0.513196
0.512006
0.510495
0.508838
0.507365
0.50647
0.507288
0.513469
0.531803
0.529494
0.301679
0.00241687
0.0007095
0.0162543
0.0796536
0.184646
0.292556
0.37779
0.43536
0.470443
0.490138
0.500854
0.507396
0.511518
0.513451
0.513822
0.513178
0.512049
0.510574
0.508941
0.507301
0.505993
0.505416
0.507179
0.515276
0.53626
0.523974
0.250815
0.00181048
0.000703625
0.0161463
0.0793692
0.184221
0.291874
0.37716
0.434885
0.470056
0.489862
0.500688
0.507239
0.511396
0.513391
0.513794
0.513219
0.51207
0.510638
0.509025
0.507346
0.505815
0.504808
0.504688
0.507546
0.517942
0.54147
0.51867
0.200114
0.00134822
0.000698798
0.0160374
0.0789748
0.183755
0.291414
0.376584
0.434414
0.469731
0.489628
0.500517
0.507114
0.511276
0.513301
0.513762
0.513212
0.512109
0.510672
0.509093
0.50742
0.505789
0.504454
0.503847
0.504322
0.508479
0.521504
0.546912
0.509429
0.153274
0.00100079
0.000696106
0.0159494
0.0785813
0.183116
0.29092
0.376198
0.43399
0.469412
0.489412
0.500366
0.506984
0.511157
0.513239
0.513708
0.513214
0.512105
0.510715
0.509118
0.507499
0.505841
0.504344
0.503322
0.503142
0.504366
0.510068
0.525956
0.551124
0.494903
0.112964
0.000724408
0.00069404
0.0159022
0.0782706
0.182484
0.290232
0.375777
0.433707
0.469119
0.489205
0.500215
0.506858
0.51105
0.513158
0.513675
0.5132
0.512121
0.510716
0.509149
0.507515
0.505903
0.50435
0.503169
0.502581
0.502738
0.504881
0.512419
0.531169
0.5515
0.472839
0.0799486
0.000514848
0.000691766
0.0158668
0.0781137
0.181994
0.289562
0.375192
0.433389
0.468924
0.489011
0.500064
0.506739
0.510966
0.513082
0.513647
0.513186
0.512129
0.510731
0.509154
0.507504
0.505897
0.504386
0.503139
0.50245
0.502294
0.502682
0.505926
0.515647
0.536808
0.544505
0.439289
0.0544692
0.000355774
0.000688675
0.0158272
0.0779993
0.181762
0.28905
0.374617
0.432961
0.46871
0.48889
0.499935
0.506618
0.510866
0.513029
0.513607
0.513166
0.512145
0.510737
0.509177
0.507504
0.505866
0.504375
0.503148
0.502397
0.502162
0.502225
0.503023
0.50759
0.519866
0.542394
0.532946
0.389601
0.0360195
0.000231886
0.000685018
0.015771
0.0778694
0.181596
0.288819
0.374193
0.432544
0.468429
0.488756
0.499852
0.506523
0.510778
0.512954
0.513569
0.513145
0.512124
0.510771
0.509169
0.507546
0.505844
0.504324
0.503131
0.502393
0.50209
0.50205
0.502222
0.503806
0.509966
0.525166
0.547595
0.524653
0.322472
0.024014
0.000141517
0.000680858
0.0157035
0.0776764
0.181405
0.28866
0.374011
0.43224
0.468158
0.488587
0.499756
0.50644
0.510707
0.512892
0.513511
0.513135
0.512094
0.510757
0.5092
0.507536
0.505892
0.504264
0.503074
0.502374
0.502071
0.501945
0.501999
0.50227
0.505092
0.513197
0.531404
0.551555
0.516078
0.247478
0.0161728
7.83814e-05
0.000676647
0.0156257
0.0774363
0.18111
0.28848
0.373887
0.432109
0.467954
0.488418
0.499645
0.506351
0.510629
0.512842
0.513466
0.513096
0.512102
0.510725
0.509196
0.507548
0.505871
0.504297
0.503
0.502321
0.502039
0.501907
0.501851
0.501996
0.502533
0.506978
0.517404
0.538018
0.551568
0.498219
0.178151
0.0108639
3.81205e-05
0.000672629
0.0155478
0.0771599
0.180734
0.288182
0.373748
0.43202
0.467857
0.488289
0.499541
0.50626
0.510558
0.512794
0.513421
0.513057
0.512087
0.510732
0.509176
0.507539
0.50588
0.504255
0.503015
0.502267
0.50198
0.501864
0.501792
0.501808
0.502058
0.503371
0.509575
0.522662
0.544278
0.543715
0.466297
0.124048
0.00708881
1.52746e-05
0.000668862
0.0154732
0.0768821
0.180293
0.287787
0.373509
0.431916
0.467797
0.488216
0.499466
0.506187
0.510515
0.512754
0.513397
0.513014
0.512043
0.510712
0.509175
0.507528
0.505869
0.504282
0.502966
0.502274
0.501935
0.501797
0.501734
0.501732
0.501815
0.502186
0.504949
0.513033
0.52899
0.54908
0.53094
0.414909
0.0846828
0.00439102
4.43232e-06
0.00066593
0.0154047
0.0766171
0.179852
0.287326
0.373183
0.43175
0.467728
0.488172
0.499409
0.506133
0.510454
0.512727
0.513372
0.512994
0.512014
0.510679
0.50914
0.507524
0.505833
0.504268
0.502987
0.502232
0.501942
0.501733
0.501648
0.501653
0.501716
0.501887
0.502614
0.507263
0.517516
0.536077
0.551262
0.520358
0.342222
0.056042
0.00249394
8.30736e-07
0.000663852
0.0153514
0.0763764
0.17944
0.286868
0.372803
0.431527
0.467621
0.488122
0.499358
0.506065
0.5104
0.512682
0.513325
0.51297
0.511995
0.510671
0.509112
0.507494
0.505823
0.504195
0.502981
0.502235
0.501903
0.501734
0.501559
0.501546
0.501622
0.50176
0.502007
0.503837
0.510346
0.523145
0.543109
0.548687
0.505997
0.257989
0.0347535
0.00123171
2.12262e-08
0.000662218
0.015314
0.0761882
0.179058
0.286447
0.372427
0.431258
0.467478
0.488054
0.499315
0.506011
0.510321
0.512639
0.513308
0.512933
0.511952
0.510633
0.509091
0.507451
0.505795
0.504166
0.502906
0.502231
0.501896
0.501685
0.501556
0.501441
0.501493
0.501639
0.501855
0.502331
0.505959
0.514354
0.52987
0.548783
0.539322
0.475634
0.180312
0.0195664
0.000514905
7.65018e-08
0.000661801
0.0152883
0.0760647
0.178766
0.286061
0.372087
0.43099
0.467306
0.487976
0.499276
0.505991
0.510271
0.512596
0.513293
0.512942
0.511945
0.51058
0.509058
0.50741
0.505746
0.504141
0.502881
0.502192
0.501886
0.501678
0.501497
0.501434
0.501363
0.501492
0.501712
0.501996
0.503272
0.508886
0.519471
0.537291
0.551345
0.526686
0.421767
0.118614
0.00990307
0.000156961
1.544e-07
0.000661777
0.0152835
0.0759862
0.178582
0.285752
0.371769
0.430746
0.467136
0.487873
0.499229
0.505964
0.51024
0.512534
0.513251
0.512938
0.511968
0.510584
0.50901
0.507379
0.505708
0.504091
0.50286
0.502173
0.501856
0.501665
0.501488
0.501358
0.50135
0.501343
0.501543
0.501835
0.502318
0.505168
0.512682
0.525799
0.544436
0.548187
0.513843
0.341026
0.0722427
0.00414267
4.07578e-05
2.10735e-07
0.000661809
0.0152873
0.0759908
0.178484
0.285571
0.371516
0.430509
0.466979
0.487768
0.499165
0.505908
0.510217
0.512478
0.513196
0.512862
0.511963
0.510607
0.509004
0.507312
0.505657
0.504047
0.502806
0.502152
0.50184
0.50162
0.501475
0.501337
0.501262
0.501321
0.501374
0.501653
0.501999
0.503242
0.508009
0.517517
0.533156
0.549553
0.53804
0.491038
0.244824
0.0389048
0.00132759
1.22245e-05
2.0356e-07
0.000661557
0.0152919
0.0760255
0.178518
0.285498
0.371379
0.430333
0.466819
0.487674
0.499082
0.505847
0.510179
0.512458
0.513154
0.512838
0.5119
0.510616
0.509021
0.507286
0.505557
0.50399
0.502757
0.502116
0.50182
0.501605
0.50142
0.501317
0.501238
0.501222
0.501341
0.501463
0.501806
0.502375
0.505148
0.511741
0.523524
0.540762
0.550304
0.525588
0.443412
0.156925
0.0161376
0.000384164
2.99164e-06
8.72619e-08
0.000660912
0.0152911
0.076063
0.17861
0.285565
0.371339
0.430243
0.4667
0.487574
0.499023
0.505786
0.510133
0.512437
0.513139
0.512807
0.51187
0.510584
0.509057
0.507312
0.505495
0.503868
0.502712
0.502087
0.501796
0.501585
0.501395
0.501253
0.501212
0.501185
0.501229
0.501414
0.501601
0.501995
0.503431
0.507981
0.516443
0.530625
0.547012
0.543234
0.512901
0.36234
0.0882687
0.00467726
0.000117279
2.54954e-07
7.22978e-09
0.000659611
0.0152805
0.0760778
0.178704
0.285683
0.371409
0.430214
0.466638
0.487499
0.498973
0.505745
0.510105
0.512424
0.513125
0.512779
0.511826
0.510517
0.509035
0.507365
0.50554
0.503802
0.502617
0.502063
0.501773
0.501552
0.501378
0.501222
0.50114
0.501156
0.501186
0.50129
0.501541
0.501783
0.502442
0.50545
0.511692
0.522277
0.538143
0.54934
0.530684
0.488294
0.25648
0.0379798
0.00114914
7.14696e-06
1.28005e-08
1.99439e-09
0.000657709
0.0152583
0.0760534
0.17876
0.285814
0.371526
0.430272
0.466621
0.487455
0.49893
0.505695
0.510073
0.512408
0.513122
0.512785
0.511797
0.510448
0.508942
0.507345
0.50559
0.50384
0.502564
0.502012
0.50175
0.501525
0.50134
0.5012
0.501104
0.501076
0.501152
0.501232
0.501398
0.501703
0.501991
0.503672
0.508387
0.516356
0.529141
0.544646
0.54483
0.519907
0.434361
0.148564
0.0114812
0.000405527
2.64902e-06
8.96528e-09
2.64517e-09
0.000655248
0.0152244
0.0759805
0.178739
0.285904
0.371648
0.43037
0.466657
0.487442
0.498889
0.505651
0.510018
0.512388
0.513113
0.512791
0.511794
0.510432
0.508874
0.507245
0.505565
0.503886
0.502579
0.501969
0.501708
0.501496
0.501306
0.501162
0.501071
0.501033
0.501055
0.501188
0.501328
0.501557
0.501896
0.502522
0.505911
0.512153
0.522108
0.536549
0.5481
0.534063
0.505055
0.338163
0.0642758
0.00288996
0.000167884
3.33081e-06
1.04669e-11
3.11806e-11
0.000652034
0.0151767
0.0758629
0.178637
0.285901
0.371745
0.430466
0.466722
0.48746
0.498874
0.505615
0.509969
0.512358
0.513108
0.512789
0.511804
0.510428
0.508836
0.507174
0.50547
0.503847
0.50262
0.501968
0.501667
0.501439
0.501271
0.501123
0.501029
0.500994
0.501006
0.501083
0.501282
0.501474
0.501749
0.502221
0.503972
0.509024
0.516899
0.528952
0.543495
0.5451
0.523072
0.46799
0.209168
0.0199324
0.000760332
8.30487e-06
7.40259e-07
2.48282e-09
1.7493e-09
0.000648323
0.0151166
0.0756926
0.178455
0.285813
0.371762
0.430546
0.46679
0.487487
0.498874
0.505604
0.509946
0.51233
0.513075
0.512784
0.511805
0.510426
0.508844
0.507123
0.505387
0.503771
0.502592
0.501992
0.501666
0.501388
0.501204
0.501082
0.500986
0.500941
0.500966
0.501026
0.501164
0.501419
0.501657
0.501971
0.503095
0.506489
0.513021
0.522823
0.536678
0.547512
0.534653
0.511496
0.386765
0.092598
0.0047941
0.000162588
4.40195e-06
6.85431e-08
1.48589e-09
7.62048e-09
0.000644553
0.0150466
0.0754721
0.178184
0.285631
0.371709
0.43057
0.466847
0.487527
0.498873
0.505585
0.509915
0.512292
0.513044
0.512758
0.511795
0.510431
0.508844
0.50712
0.505341
0.503702
0.502548
0.501996
0.501688
0.501392
0.50115
0.501014
0.500945
0.500896
0.500907
0.500978
0.501102
0.501295
0.5016
0.501872
0.502455
0.50497
0.509913
0.518164
0.530089
0.543801
0.544332
0.523286
0.483042
0.252172
0.0279369
0.00105968
4.63232e-06
1.17763e-05
5.0759e-07
3.54172e-08
7.596e-09
0.000640922
0.0149736
0.075212
0.177828
0.285349
0.371564
0.430535
0.46686
0.487561
0.49889
0.505593
0.509901
0.512255
0.513001
0.512731
0.511784
0.510418
0.508835
0.507134
0.50532
0.503657
0.502503
0.501975
0.501707
0.501417
0.501151
0.500951
0.500871
0.500855
0.500855
0.500913
0.501044
0.501227
0.501463
0.501812
0.502199
0.503786
0.507857
0.514347
0.52463
0.538025
0.547113
0.533592
0.512967
0.41117
0.111794
0.00631281
0.000159849
6.39212e-09
5.02286e-06
3.44717e-08
7.90744e-09
4.84196e-09
0.000637334
0.0149031
0.0749405
0.177404
0.284973
0.371335
0.430436
0.466835
0.487569
0.498909
0.505581
0.509908
0.512235
0.512982
0.512706
0.511773
0.510419
0.508838
0.507115
0.505325
0.503643
0.502468
0.501936
0.501678
0.501435
0.501171
0.500943
0.500795
0.500768
0.500807
0.500855
0.500971
0.501158
0.501389
0.501668
0.502034
0.503073
0.506169
0.511686
0.519962
0.532225
0.544544
0.54248
0.52251
0.487359
0.275667
0.0313805
0.00113519
2.75916e-06
1.4025e-06
9.22051e-07
7.6732e-08
3.33253e-07
2.84738e-09
0.000634376
0.014836
0.0746793
0.176955
0.284512
0.371023
0.430275
0.466774
0.487563
0.498915
0.505594
0.509891
0.512209
0.512951
0.512672
0.51175
0.510396
0.508837
0.507105
0.505317
0.503636
0.502463
0.501902
0.501636
0.501404
0.50119
0.500964
0.500782
0.500683
0.50071
0.500808
0.500908
0.501076
0.501312
0.501595
0.501894
0.502582
0.504943
0.509496
0.516567
0.526857
0.539923
0.546379
0.530998
0.512655
0.417053
0.11931
0.00617837
8.57658e-05
1.219e-06
1.59415e-06
1.77826e-06
1.8133e-07
5.93265e-07
1.63591e-09
0.000631799
0.0147777
0.074426
0.17652
0.284028
0.370628
0.430053
0.466676
0.487529
0.498911
0.505592
0.509894
0.512204
0.512909
0.512625
0.511718
0.510357
0.508809
0.507102
0.505294
0.503642
0.502457
0.501894
0.501598
0.501356
0.501166
0.500989
0.500806
0.500669
0.50062
0.500712
0.500859
0.50101
0.501227
0.501507
0.501824
0.502286
0.504067
0.507825
0.513762
0.522669
0.534628
0.54543
0.539431
0.520763
0.486144
0.275578
0.0300534
0.0007303
1.34568e-09
5.42081e-07
9.71564e-07
1.64697e-06
1.99714e-10
2.95731e-07
8.7179e-10
0.00062964
0.014728
0.0742047
0.1761
0.283571
0.370214
0.429774
0.466538
0.487476
0.498896
0.505572
0.509886
0.512197
0.512885
0.512591
0.511655
0.510345
0.508747
0.507086
0.505278
0.503626
0.502456
0.501894
0.501584
0.501312
0.501115
0.500967
0.500833
0.500692
0.5006
0.50061
0.500755
0.500957
0.501157
0.501412
0.501731
0.502112
0.503337
0.506579
0.511585
0.519128
0.529955
0.541822
0.544741
0.527118
0.510337
0.41037
0.10981
0.00453622
1.38443e-05
6.3611e-08
5.60487e-07
3.32563e-06
4.01312e-08
2.50733e-07
6.36229e-08
4.17238e-10
0.000627913
0.0146869
0.0740191
0.175732
0.283113
0.369835
0.429473
0.466362
0.487397
0.498861
0.50556
0.509872
0.51219
0.512853
0.512541
0.511606
0.510307
0.508737
0.507039
0.505289
0.5036
0.502454
0.501885
0.501584
0.501289
0.501058
0.50091
0.500809
0.500722
0.500621
0.500586
0.500649
0.500845
0.501099
0.501338
0.501632
0.501967
0.502838
0.505394
0.50992
0.516341
0.525761
0.537622
0.545428
0.53491
0.518272
0.478355
0.255914
0.0225494
0.000258194
7.68049e-07
4.46165e-07
1.27753e-06
3.99578e-06
4.73471e-07
8.02038e-07
3.18519e-09
1.8239e-10
0.000626613
0.0146536
0.0738644
0.175417
0.282707
0.369453
0.429197
0.466171
0.487286
0.498805
0.505537
0.509859
0.512187
0.512858
0.512507
0.511568
0.510252
0.508715
0.507
0.505257
0.503616
0.502444
0.50188
0.50158
0.501286
0.501032
0.500846
0.500751
0.500701
0.500659
0.500603
0.500618
0.500732
0.500983
0.501281
0.501556
0.501872
0.50247
0.504508
0.508377
0.514146
0.522318
0.533336
0.543664
0.540904
0.522494
0.505822
0.387789
0.0861768
0.00209226
1.21072e-07
8.6572e-07
1.7159e-06
4.73071e-06
1.64161e-06
3.79337e-07
5.99597e-07
5.03409e-09
7.3646e-11
0.000625674
0.0146296
0.0737428
0.175161
0.282369
0.3691
0.428918
0.465989
0.487164
0.498743
0.505499
0.509841
0.51217
0.512858
0.512499
0.511558
0.510204
0.50867
0.50695
0.505211
0.50359
0.502442
0.501875
0.50157
0.501283
0.501028
0.500815
0.500684
0.50064
0.500638
0.50064
0.500629
0.500695
0.500863
0.501164
0.501498
0.501804
0.502269
0.503794
0.507173
0.512205
0.519501
0.529474
0.540544
0.544501
0.529218
0.514837
0.46273
0.212849
0.0120435
3.68797e-05
1.58383e-06
1.61182e-06
3.21903e-06
2.03671e-06
3.9477e-07
4.90152e-07
5.91055e-07
1.69093e-08
2.77498e-11
0.000625195
0.0146118
0.0736514
0.174962
0.28209
0.368808
0.428657
0.465799
0.487064
0.498678
0.505461
0.509823
0.512169
0.512827
0.512495
0.511514
0.51017
0.508596
0.506902
0.505156
0.503562
0.502425
0.501871
0.501562
0.501271
0.501018
0.500804
0.500641
0.500564
0.500569
0.500623
0.500669
0.500701
0.500826
0.501042
0.501375
0.501745
0.50212
0.503272
0.506134
0.510667
0.517053
0.526117
0.537021
0.544455
0.535992
0.519475
0.497161
0.346655
0.0516686
0.000368052
8.72355e-07
2.48787e-06
2.4531e-06
1.93715e-06
1.44716e-07
8.03547e-09
1.56793e-07
5.03489e-07
1.94895e-08
9.84659e-12
0.000625126
0.0146036
0.0735891
0.174818
0.281869
0.368579
0.428442
0.46563
0.486956
0.498622
0.50543
0.509798
0.512163
0.512859
0.512495
0.511508
0.510134
0.508539
0.506837
0.505092
0.503529
0.502413
0.50186
0.501565
0.501267
0.501009
0.500797
0.500623
0.500513
0.500487
0.500549
0.500649
0.500742
0.500825
0.500999
0.501251
0.501621
0.502006
0.502863
0.505254
0.509333
0.515098
0.523133
0.533625
0.5429
0.54043
0.523224
0.51101
0.434427
0.14903
0.00323506
1.84238e-06
4.03391e-06
4.31163e-06
2.00605e-06
7.10385e-08
1.19168e-08
9.7724e-07
2.4697e-09
1.55886e-07
1.30985e-08
3.24374e-12
0.000625436
0.0146033
0.0735646
0.174715
0.281711
0.368381
0.428275
0.465488
0.486844
0.498556
0.505388
0.509761
0.512161
0.512865
0.512501
0.511536
0.510125
0.508506
0.506778
0.505024
0.503465
0.502396
0.501849
0.501551
0.50127
0.501001
0.50079
0.500616
0.500493
0.500432
0.500458
0.500575
0.500724
0.500864
0.500989
0.501207
0.501505
0.501884
0.502554
0.504542
0.508165
0.513409
0.520679
0.530343
0.540582
0.543458
0.5289
0.515857
0.481034
0.278822
0.0202136
1.22309e-05
1.46805e-06
7.7298e-06
4.36783e-06
1.33394e-07
7.94554e-07
3.11673e-07
9.11463e-07
3.61203e-07
9.60009e-10
5.14286e-09
9.15562e-13
0.000625658
0.0146089
0.0735661
0.174678
0.281613
0.368242
0.428135
0.46537
0.48675
0.49849
0.505333
0.509736
0.512149
0.512869
0.512517
0.51152
0.510135
0.50848
0.506722
0.504947
0.503394
0.502367
0.501841
0.501534
0.501251
0.501002
0.500781
0.500606
0.500481
0.500405
0.500393
0.500477
0.500643
0.500845
0.501027
0.501196
0.501472
0.501785
0.502336
0.503994
0.507209
0.511928
0.518551
0.527474
0.537686
0.543829
0.534555
0.519117
0.502702
0.385396
0.0763643
0.000401944
5.94328e-07
5.58771e-06
1.01792e-05
9.13231e-07
4.10212e-07
1.6711e-06
2.79828e-07
1.64389e-07
1.20781e-06
5.14876e-08
1.46092e-09
2.32611e-13
0.000626263
0.0146163
0.073591
0.174688
0.281581
0.368162
0.42803
0.46528
0.486683
0.498425
0.505289
0.509713
0.512129
0.512898
0.512526
0.511532
0.510129
0.50846
0.506692
0.504867
0.503326
0.502315
0.501827
0.501522
0.501239
0.500988
0.500787
0.500597
0.500467
0.500387
0.500362
0.5004
0.500541
0.50076
0.500999
0.501232
0.50144
0.501747
0.502149
0.503508
0.506445
0.510705
0.516696
0.524925
0.53489
0.542691
0.538508
0.521816
0.511753
0.449716
0.182298
0.00341711
9.12021e-07
4.2213e-06
9.6112e-06
1.35171e-06
3.1159e-07
6.89346e-07
2.02463e-06
7.87353e-09
7.9045e-08
1.23661e-06
8.02756e-08
3.57295e-10
5.18443e-14
0.000626905
0.0146281
0.0736256
0.174735
0.281594
0.368143
0.427962
0.465215
0.486629
0.498382
0.505247
0.509676
0.512112
0.512882
0.512541
0.511551
0.510142
0.508464
0.506659
0.504855
0.50326
0.502278
0.50179
0.501506
0.501227
0.500977
0.500775
0.500606
0.500454
0.500373
0.500339
0.500365
0.500456
0.500651
0.500912
0.501199
0.501475
0.501713
0.502033
0.503044
0.505688
0.509702
0.515136
0.522676
0.532248
0.541135
0.541246
0.526279
0.515162
0.48441
0.300011
0.0196535
1.95117e-05
4.54e-06
1.03587e-05
6.58804e-06
1.55168e-07
2.34976e-06
2.08023e-06
7.57617e-07
1.36857e-07
2.56143e-07
3.6699e-07
5.33918e-08
7.52438e-11
1.01803e-14
0.000627188
0.0146403
0.0736751
0.174803
0.281649
0.368163
0.427952
0.465168
0.486581
0.498349
0.505205
0.509632
0.512106
0.512846
0.512555
0.511543
0.51017
0.508481
0.506666
0.504841
0.503255
0.502251
0.501763
0.501477
0.501209
0.50097
0.500764
0.500594
0.500468
0.500361
0.50033
0.500342
0.500412
0.500559
0.5008
0.501111
0.501432
0.501728
0.50198
0.502682
0.504938
0.50874
0.513829
0.520721
0.52976
0.539194
0.54277
0.531175
0.517507
0.502198
0.389192
0.0777163
0.0002391
1.61428e-07
1.19726e-05
9.14507e-06
5.44623e-07
2.28319e-06
2.1208e-06
9.64904e-07
1.47613e-06
1.9254e-07
5.9975e-07
4.15657e-09
2.05557e-08
1.47175e-11
1.68367e-15
0.00062807
0.0146488
0.0737232
0.174892
0.281723
0.368205
0.427967
0.465154
0.486543
0.498311
0.505169
0.509602
0.512084
0.512868
0.512546
0.511574
0.510173
0.508509
0.506678
0.504839
0.503239
0.502237
0.501749
0.501442
0.501181
0.500954
0.500754
0.500587
0.500462
0.500378
0.500316
0.500327
0.500388
0.500504
0.500701
0.500993
0.501343
0.50168
0.501982
0.502507
0.504318
0.507795
0.512606
0.519033
0.527486
0.536981
0.542733
0.535234
0.519871
0.510054
0.445379
0.173993
0.00206646
3.59363e-07
1.19411e-05
1.12069e-05
1.07789e-06
1.59241e-06
3.70789e-06
8.47199e-07
1.27961e-09
5.90309e-07
8.21232e-09
1.7932e-06
1.2855e-07
5.07348e-09
2.36676e-12
2.27379e-16
0.000628247
0.0146638
0.0737572
0.174977
0.281819
0.368263
0.427993
0.465156
0.486532
0.498283
0.505141
0.509574
0.512053
0.512881
0.51255
0.511595
0.51019
0.508535
0.506707
0.504841
0.503226
0.502214
0.501732
0.501414
0.501139
0.500915
0.500736
0.500579
0.500454
0.500378
0.500334
0.500313
0.500372
0.500473
0.500641
0.500889
0.501228
0.50159
0.501927
0.502443
0.503888
0.507003
0.511457
0.517477
0.525455
0.534792
0.541843
0.538127
0.522615
0.513677
0.477605
0.279213
0.0123828
2.50429e-05
1.01179e-05
1.77834e-05
2.27389e-06
1.12529e-06
5.19598e-06
3.49854e-06
7.98476e-08
6.93316e-07
6.36242e-08
7.58654e-11
5.64445e-07
1.35544e-07
8.18656e-10
3.04378e-13
2.4555e-17
0.000628284
0.0146692
0.0738204
0.17504
0.281921
0.368344
0.428037
0.465175
0.486537
0.498269
0.505123
0.509548
0.512016
0.512857
0.512561
0.511589
0.510217
0.508564
0.50674
0.504858
0.503222
0.5022
0.501712
0.501399
0.501098
0.500871
0.500696
0.500558
0.500446
0.500373
0.500337
0.500336
0.500353
0.500461
0.500603
0.500822
0.501123
0.501479
0.501841
0.50235
0.503654
0.506334
0.510501
0.516068
0.523566
0.532737
0.540737
0.540303
0.526349
0.515626
0.496166
0.363954
0.0479247
5.12351e-05
4.79797e-06
2.21715e-05
5.78838e-06
3.05087e-07
6.4657e-06
4.02769e-06
7.65174e-07
1.27316e-08
2.93461e-07
2.16235e-07
5.17862e-07
5.35252e-09
5.30134e-08
9.87969e-11
3.10843e-14
2.04293e-18
0.000628225
0.0146697
0.0738415
0.175143
0.281998
0.36844
0.428103
0.465204
0.486552
0.498258
0.505106
0.509526
0.512009
0.512816
0.512554
0.511593
0.510249
0.508598
0.506788
0.504889
0.503229
0.5022
0.501706
0.501379
0.501083
0.500828
0.50065
0.500518
0.500431
0.500369
0.500335
0.500341
0.500379
0.500432
0.500587
0.500784
0.501047
0.501373
0.501747
0.502222
0.503436
0.505881
0.509665
0.514884
0.521854
0.530701
0.539389
0.541858
0.530324
0.517371
0.5059
0.422313
0.126456
0.000647229
3.28732e-06
2.29284e-05
1.00388e-05
3.56748e-08
4.03789e-06
5.37564e-06
7.27085e-07
8.77548e-08
1.06103e-07
3.86218e-07
3.512e-08
1.74859e-06
1.52693e-07
1.16093e-08
9.57646e-12
2.39786e-15
1.22413e-19
0.000628102
0.014668
0.0738421
0.175189
0.282111
0.368519
0.428168
0.465245
0.486557
0.498263
0.50508
0.509508
0.512004
0.512798
0.51254
0.51159
0.510253
0.508633
0.506828
0.504932
0.503251
0.502214
0.5017
0.501367
0.501058
0.500809
0.500601
0.500468
0.500388
0.500355
0.500333
0.500339
0.500389
0.500462
0.500563
0.500775
0.501003
0.501295
0.501648
0.502078
0.50317
0.505487
0.509009
0.513864
0.520375
0.528767
0.537676
0.542182
0.533685
0.519278
0.510848
0.458984
0.220098
0.00419092
1.1423e-06
2.18306e-05
1.56981e-05
1.13464e-07
3.85419e-06
5.88409e-06
6.21109e-07
6.55912e-09
6.52832e-09
1.06926e-07
5.76712e-08
6.85893e-09
4.19679e-07
1.30329e-07
1.53705e-09
7.10738e-13
1.24747e-16
4.70354e-21
0.000627768
0.0146651
0.0738335
0.175188
0.282156
0.368611
0.428221
0.465282
0.486571
0.49827
0.50507
0.509491
0.511983
0.512797
0.512515
0.511594
0.510253
0.508642
0.506852
0.504974
0.503283
0.502225
0.501709
0.501357
0.501042
0.500778
0.500576
0.500416
0.500332
0.500308
0.500318
0.500341
0.500392
0.500481
0.500599
0.500733
0.500983
0.501243
0.501565
0.501926
0.50286
0.505056
0.508426
0.512998
0.519114
0.527013
0.535852
0.541626
0.536149
0.521056
0.513338
0.481651
0.305581
0.0171957
1.61091e-05
1.73447e-05
2.13523e-05
5.20851e-07
3.46539e-06
7.29969e-06
1.7182e-06
3.15421e-10
2.06874e-08
1.67714e-08
1.78856e-07
6.13858e-07
8.39097e-07
4.57418e-08
3.69681e-08
1.19779e-10
3.4103e-14
3.96725e-18
9.02566e-23
0.000627601
0.0146598
0.07382
0.175169
0.28216
0.368635
0.428292
0.465308
0.486596
0.498269
0.505079
0.50948
0.511959
0.512789
0.512482
0.511581
0.510237
0.508645
0.506859
0.505015
0.503322
0.502237
0.501716
0.501359
0.501033
0.500755
0.50054
0.500385
0.500276
0.500245
0.500272
0.500331
0.500398
0.500487
0.500622
0.500782
0.500955
0.501225
0.501512
0.501837
0.502526
0.504587
0.507845
0.512202
0.518003
0.525509
0.53413
0.540681
0.53794
0.523723
0.514812
0.495663
0.371679
0.0525748
0.000107081
1.28713e-05
2.69476e-05
1.59937e-06
3.33912e-06
8.57155e-06
3.72089e-06
1.2096e-07
1.02241e-07
1.69288e-09
3.45736e-07
6.78019e-09
2.65135e-06
4.87835e-07
1.75919e-07
4.46838e-09
5.64788e-12
9.62747e-16
4.46244e-20
8.61534e-25
0.000627177
0.0146538
0.0737951
0.175142
0.282134
0.368638
0.428311
0.465358
0.48661
0.498271
0.505079
0.509469
0.511928
0.512771
0.512476
0.511545
0.510211
0.508625
0.506864
0.505028
0.503366
0.502257
0.501721
0.501364
0.501031
0.500739
0.500512
0.50034
0.500241
0.500184
0.500209
0.500283
0.50039
0.500495
0.500631
0.500809
0.500991
0.5012
0.501491
0.50179
0.502349
0.504079
0.507265
0.511436
0.516972
0.524191
0.532639
0.539784
0.539339
0.526674
0.515992
0.504275
0.418831
0.119707
0.000624412
2.96937e-06
3.0614e-05
4.70533e-06
2.17055e-06
1.01956e-05
5.59959e-06
4.69351e-07
8.06228e-09
1.6286e-09
1.099e-08
2.96631e-07
1.31611e-07
1.4408e-09
2.06167e-08
7.65079e-08
2.64014e-10
1.58403e-13
9.24138e-18
2.07186e-23
2.91619e-26
0.000626792
0.0146457
0.0737739
0.175101
0.2821
0.368615
0.428309
0.465371
0.486629
0.498272
0.50506
0.509462
0.511914
0.512732
0.51247
0.511514
0.510193
0.508604
0.506868
0.505037
0.503393
0.502288
0.501731
0.501376
0.501034
0.50074
0.500489
0.50031
0.50019
0.500145
0.500141
0.500218
0.500338
0.500489
0.500643
0.500817
0.501022
0.501235
0.501473
0.501774
0.502237
0.503671
0.506656
0.510722
0.516
0.522939
0.531285
0.538918
0.540516
0.529617
0.517214
0.508873
0.450844
0.205042
0.00266094
5.99071e-08
3.19409e-05
8.11889e-06
1.0683e-06
9.37906e-06
5.26982e-06
6.46116e-07
5.39459e-09
1.10845e-07
2.8527e-08
1.07841e-10
1.78939e-08
7.66192e-07
8.53996e-07
3.23222e-07
7.34918e-09
6.43538e-12
1.71066e-15
9.85451e-20
1.16122e-25
7.07514e-28
0.000626014
0.014635
0.0737324
0.175049
0.282052
0.368585
0.42829
0.46537
0.48663
0.498294
0.505052
0.509458
0.511897
0.512695
0.512444
0.511492
0.510158
0.508598
0.506872
0.505047
0.503403
0.502303
0.501752
0.501383
0.501042
0.500738
0.500482
0.500278
0.50015
0.500089
0.500095
0.500144
0.500269
0.500439
0.500636
0.500834
0.501034
0.501266
0.501504
0.501767
0.502163
0.503359
0.506058
0.510017
0.515095
0.521767
0.529949
0.537934
0.541062
0.53217
0.518642
0.511557
0.472092
0.278111
0.0102345
1.22219e-05
2.73023e-05
1.286e-05
6.61866e-07
7.82723e-06
6.77484e-06
9.9454e-07
8.74662e-09
4.05562e-07
2.51131e-07
1.32861e-07
3.44616e-07
3.29708e-07
1.69452e-06
1.00193e-07
9.15553e-08
2.37278e-10
1.94499e-14
8.88121e-18
1.77944e-21
1.11458e-25
8.85684e-30
0.000625153
0.0146207
0.073691
0.17498
0.281991
0.368548
0.428269
0.465357
0.48664
0.498281
0.50508
0.509446
0.511894
0.512677
0.512406
0.511493
0.510143
0.508589
0.506867
0.50506
0.503404
0.502311
0.50177
0.501408
0.501057
0.500743
0.500483
0.500268
0.500115
0.500043
0.500033
0.50009
0.500188
0.500364
0.500586
0.500829
0.501053
0.501283
0.501539
0.501791
0.502118
0.503117
0.505544
0.509318
0.514236
0.52063
0.528641
0.536812
0.541045
0.534182
0.519951
0.513209
0.48658
0.338806
0.0298895
0.000100094
2.3167e-05
1.70997e-05
2.54894e-07
8.57136e-06
7.9428e-06
8.11084e-07
9.65881e-08
3.11693e-07
3.08346e-07
3.16298e-09
1.22074e-07
1.63399e-09
1.65478e-09
6.10944e-07
1.91943e-07
7.895e-09
1.61824e-13
5.38857e-17
1.21058e-20
6.00506e-23
1.16106e-26
4.8933e-31
0.000624324
0.0146037
0.0736299
0.174892