/*--------------------------------*- C++ -*----------------------------------*\
| =========                 |                                                 |
| \\      /  F ield         | OpenFOAM: The Open Source CFD Toolbox           |
|  \\    /   O peration     | Version:  v2012                                 |
|   \\  /    A nd           | Website:  www.openfoam.com                      |
|    \\/     M anipulation  |                                                 |
\*---------------------------------------------------------------------------*/
FoamFile
{
    version     2.0;
    format      ascii;
    class       volScalarField;
    location    "3800";
    object      Mg;
}
// * * * * * * * * * * * * * * * * * * * * * * * * * * * * * * * * * * * * * //

dimensions      [0 0 0 0 0 0 0];


internalField   nonuniform List<scalar> 
29502
(
0.000520713
4.17934e-05
0.00131147
4.43919e-05
9.14864e-05
0.00154404
5.32896e-05
0.000173482
0.000148113
0.00146679
5.93066e-05
0.000227997
0.00100533
0.000212867
0.00129029
6.26566e-05
0.00025908
0.00135747
0.00347275
0.000326582
0.0011262
6.4225e-05
0.000275501
0.00154331
0.00467094
0.00836069
0.000509399
0.00099195
6.47576e-05
0.000282753
0.00163656
0.00528123
0.011119
0.0157876
0.000748283
0.00087516
6.46282e-05
0.000284888
0.00167182
0.00557501
0.0124792
0.0206036
0.0249476
0.00101322
0.000770825
6.40978e-05
0.000283835
0.00167747
0.00567038
0.0131097
0.0228981
0.0317678
0.0345025
0.00128101
0.000678636
6.33047e-05
0.000280919
0.00166557
0.00567286
0.0132901
0.0239271
0.0349051
0.0428005
0.0433213
0.00152304
0.000598054
6.25983e-05
0.00027705
0.00164411
0.00561966
0.0132748
0.0241971
0.0362742
0.0464971
0.0524321
0.0509799
0.00172262
0.000527439
6.20361e-05
0.000273629
0.00161931
0.00554061
0.0131374
0.0241591
0.0366195
0.0480747
0.0564028
0.0603871
0.0575581
0.00187961
0.000465902
6.14372e-05
0.000270932
0.00159749
0.00545477
0.0129533
0.0239157
0.0365759
0.048474
0.0580812
0.0644452
0.0670382
0.0630807
0.0019909
0.000411813
6.05363e-05
0.000267908
0.00158017
0.00537946
0.0127592
0.0236098
0.0362478
0.0484509
0.0585181
0.0661688
0.0710605
0.0726023
0.0675478
0.0020651
0.000364367
5.98928e-05
0.000263586
0.00156111
0.00531887
0.0125888
0.023288
0.0358535
0.0480856
0.0585312
0.0666331
0.0727839
0.0764634
0.077076
0.0711419
0.00210518
0.000322411
5.92349e-05
0.000260602
0.00153521
0.00525364
0.0124498
0.0230065
0.0354338
0.0476611
0.0581638
0.0666866
0.0732679
0.0781426
0.080683
0.0806068
0.0739513
0.00211126
0.000285507
5.86136e-05
0.000257488
0.00151743
0.00516823
0.0123019
0.0227706
0.0350659
0.0471979
0.0577495
0.0663304
0.0733617
0.0786381
0.0822912
0.0839439
0.0833645
0.0761419
0.0022861
0.000252858
5.81056e-05
0.000254589
0.00149897
0.00510931
0.0121134
0.0225229
0.0347484
0.0467905
0.0572845
0.0659369
0.0730265
0.07877
0.0827932
0.0854566
0.0864879
0.0854971
0.0781042
0.0022315
0.000223854
5.75185e-05
0.000252247
0.00148191
0.0050484
0.0119827
0.0222135
0.034419
0.0464283
0.0568771
0.0654856
0.0726626
0.0784612
0.0829536
0.0859668
0.0878698
0.0885271
0.087201
0.0801017
0.00210127
0.000198243
5.69908e-05
0.000249493
0.00146828
0.00499239
0.011848
0.0219966
0.0340129
0.0460556
0.0565036
0.0650929
0.0722281
0.0781345
0.0826691
0.0861415
0.0883888
0.0897172
0.0901934
0.0887424
0.0820839
0.00189353
0.000175488
5.65424e-05
0.000247062
0.00145242
0.00494794
0.0117239
0.0217729
0.033725
0.0456004
0.0561216
0.064722
0.0718489
0.0777253
0.0823751
0.085872
0.0885634
0.0902394
0.0911431
0.091546
0.0902982
0.0836054
0.00163824
0.000155149
5.61102e-05
0.000245067
0.00143857
0.00489694
0.0116257
0.0215665
0.0334265
0.0452761
0.055659
0.0643437
0.0714777
0.0773627
0.0819959
0.0856103
0.088304
0.0903958
0.091653
0.0922756
0.0926458
0.0917865
0.0839066
0.00136116
0.000137107
5.56881e-05
0.000243097
0.00142734
0.00485267
0.0115144
0.0214021
0.0331499
0.0449358
0.0553285
0.0638925
0.0711069
0.0769985
0.0816597
0.0852579
0.088063
0.090146
0.0917699
0.0927281
0.0932105
0.0935749
0.0930507
0.082164
0.00110723
0.000120892
5.53818e-05
0.000241171
0.00141619
0.00481688
0.0114185
0.0212187
0.0329287
0.0446187
0.054978
0.0635652
0.0706625
0.07664
0.0813109
0.0849459
0.0877362
0.0899172
0.0915249
0.092801
0.0935393
0.0939948
0.0944377
0.0941461
0.0780979
0.000888909
0.000106414
5.50501e-05
0.000239775
0.00140538
0.00478138
0.0113408
0.0210618
0.0326846
0.0443628
0.0546475
0.0632153
0.0703363
0.0762029
0.0809676
0.0846075
0.0874374
0.0896028
0.0913068
0.0925543
0.0935842
0.094161
0.0946722
0.0953267
0.0951384
0.0729588
0.000719956
9.34152e-05
5.4621e-05
0.000238243
0.00139757
0.00474688
0.0112634
0.0209338
0.032476
0.0440831
0.0543766
0.0628839
0.0699871
0.0758899
0.0805551
0.0842825
0.0871123
0.089319
0.0909999
0.0923368
0.0933206
0.094182
0.0946718
0.0953045
0.0962694
0.0959992
0.0678128
0.000584645
8.17968e-05
5.41826e-05
0.000236252
0.00138903
0.00472229
0.0111887
0.0208058
0.0323046
0.0438444
0.054085
0.0626094
0.0696515
0.0755472
0.0802599
0.0838938
0.0868001
0.0890111
0.0907312
0.092039
0.093089
0.0938845
0.0946574
0.0951287
0.0959327
0.0972792
0.0966175
0.0618774
0.000477
7.14943e-05
5.38154e-05
0.000234293
0.00137792
0.00469542
0.0111353
0.0206832
0.0321332
0.0436464
0.0538383
0.0623177
0.0693742
0.0752136
0.0799248
0.0836107
0.0864254
0.0887036
0.090433
0.091779
0.092794
0.0936338
0.0943068
0.0950504
0.0955622
0.0965918
0.0983425
0.0966795
0.0542727
0.000390037
6.25166e-05
5.35864e-05
0.000232702
0.00136719
0.00466079
0.0110779
0.0205955
0.0319687
0.0434487
0.0536289
0.0620702
0.0690805
0.0749296
0.0796046
0.0832889
0.0861584
0.0883374
0.0901312
0.0914827
0.0925439
0.0933363
0.0940323
0.0946496
0.0953915
0.0959989
0.0973082
0.0994121
0.0954939
0.0451222
0.00031909
5.38182e-05
5.34038e-05
0.000231781
0.00135871
0.0046277
0.0110038
0.0205007
0.0318506
0.0432565
0.0534199
0.0618569
0.0688295
0.0746352
0.079327
0.0829781
0.0858526
0.0880806
0.0897735
0.0911813
0.0922488
0.0930862
0.0937238
0.0943655
0.0949882
0.0957096
0.0964643
0.0981029
0.100362
0.0919995
0.0348429
0.000258696
4.58326e-05
5.32072e-05
0.000231034
0.00135407
0.00460192
0.0109337
0.0203801
0.0317221
0.0431173
0.053215
0.0616422
0.0686144
0.074389
0.0790382
0.0827151
0.0855507
0.0877867
0.0895216
0.0908303
0.0919368
0.0927873
0.0934699
0.0940489
0.0947167
0.0953585
0.0960296
0.0969769
0.0989909
0.100968
0.085173
0.0242819
0.000207924
3.86907e-05
5.29607e-05
0.000230182
0.00135034
0.00458834
0.0108798
0.0202657
0.031562
0.0429668
0.0530658
0.0614331
0.0683965
0.0741723
0.0787983
0.0824361
0.0852911
0.0874978
0.0892325
0.0905859
0.091589
0.0924712
0.0931725
0.0937903
0.0943964
0.0950956
0.0956956
0.0963716
0.0975554
0.099967
0.10092
0.0764812
0.0148605
0.000166552
3.18052e-05
5.26775e-05
0.000229053
0.00134596
0.0045775
0.0108519
0.0201792
0.0314113
0.0427842
0.0529051
0.0612773
0.068185
0.0739564
0.0785854
0.0822011
0.0850196
0.0872398
0.0889533
0.0902971
0.091355
0.0921207
0.0928521
0.0934938
0.0941372
0.0947735
0.0954305
0.0959538
0.0967479
0.0982149
0.100993
0.0999183
0.068008
0.00795567
0.000134218
2.53117e-05
5.237e-05
0.000227756
0.00133994
0.00456461
0.0108299
0.0201344
0.0312973
0.0426126
0.0527149
0.0611101
0.0680202
0.0737438
0.0783731
0.0819921
0.0847944
0.0869682
0.0886996
0.0900212
0.0910693
0.091892
0.0924926
0.0931731
0.0938424
0.0945138
0.0951042
0.0956897
0.0961284
0.0971731
0.0989704
0.101923
0.0974409
0.0586915
0.00387666
0.00010941
1.93401e-05
5.2061e-05
0.000226329
0.00133288
0.00454654
0.0108036
0.0200991
0.0312367
0.0424816
0.0525352
0.0609169
0.0678453
0.073573
0.0781622
0.0817832
0.0845918
0.0867508
0.0884298
0.0897729
0.0907912
0.0916065
0.0922613
0.0928116
0.0935244
0.0942173
0.0948436
0.0953586
0.095871
0.0962726
0.0976617
0.0998179
0.102407
0.0923753
0.0470996
0.00180724
8.95116e-05
1.40059e-05
5.17683e-05
0.000224933
0.00132518
0.0045251
0.0107661
0.0200566
0.0311882
0.0424072
0.0523968
0.060736
0.0676488
0.0733963
0.0779949
0.0815718
0.0843846
0.0865564
0.0882148
0.0895097
0.0905439
0.0913311
0.0919727
0.0925763
0.0931709
0.093899
0.0945463
0.095098
0.0955402
0.0959808
0.0964978
0.0982282
0.100711
0.101985
0.0836747
0.0341303
0.000848291
7.22944e-05
9.48378e-06
5.14897e-05
0.000223618
0.00131762
0.00450149
0.0107209
0.0199964
0.0311296
0.042348
0.0523122
0.0605967
0.0674672
0.0732066
0.0778219
0.0814089
0.0841731
0.0863488
0.0880205
0.089294
0.0902862
0.0910855
0.0917062
0.0922876
0.0929345
0.0935499
0.094228
0.0948004
0.0952838
0.0956508
0.096016
0.0968465
0.0988836
0.101552
0.100029
0.0730836
0.0217138
0.000412186
5.69104e-05
5.8944e-06
5.12684e-05
0.000222412
0.00131057
0.00447853
0.0106714
0.0199233
0.0310489
0.0422765
0.052244
0.0605049
0.0673253
0.0730228
0.0776346
0.081238
0.08401
0.0861416
0.0878173
0.0890972
0.0900718
0.0908228
0.0914624
0.0920227
0.0926499
0.0933142
0.0938744
0.0944796
0.0949862
0.0953998
0.0956942
0.0960489
0.0972971
0.0996282
0.10208
0.0959339
0.0625329
0.0121204
0.000216533
4.26845e-05
3.77018e-06
5.11004e-05
0.000221475
0.00130422
0.00445744
0.0106235
0.0198438
0.0309529
0.0421819
0.0521628
0.0604263
0.0672229
0.0728754
0.0774522
0.0810443
0.0838382
0.0859775
0.0876174
0.0888967
0.0898779
0.0906079
0.09119
0.0917838
0.0923815
0.0930321
0.0936375
0.0941201
0.0946634
0.0951064
0.0954513
0.0956612
0.0962291
0.0978264
0.10042
0.101793
0.0889335
0.0507656
0.00615411
0.000127727
2.96546e-05
3.38181e-06
5.09613e-05
0.000220771
0.00129926
0.00443818
0.0105801
0.0197673
0.0308486
0.0420705
0.052059
0.0603366
0.0671363
0.0727632
0.0773044
0.0808694
0.0836476
0.0857994
0.087447
0.088694
0.0896745
0.0904161
0.0909711
0.0915127
0.0921454
0.0927626
0.093354
0.0938825
0.0943023
0.0947839
0.0951618
0.0954339
0.095597
0.0965729
0.0984377
0.101117
0.0999618
0.0789156
0.0369878
0.00299531
8.24783e-05
1.9054e-05
3.78073e-06
5.08946e-05
0.00022025
0.00129578
0.00442347
0.0105407
0.0196988
0.0307485
0.0419515
0.0519411
0.0602285
0.0670442
0.0726707
0.0771958
0.0807272
0.0834808
0.0856186
0.0872651
0.0885246
0.0894661
0.0902122
0.0907817
0.0912961
0.0918878
0.0925267
0.093087
0.0935981
0.0940649
0.0944192
0.0948436
0.0951545
0.0953416
0.0956249
0.097018
0.0991196
0.101402
0.0957309
0.0675749
0.0233649
0.00142415
5.47324e-05
1.02442e-05
4.34338e-06
5.08577e-05
0.00022004
0.00129331
0.00441332
0.01051
0.0196359
0.0306589
0.0418377
0.051816
0.0601059
0.0669317
0.0725697
0.0770948
0.080615
0.0833411
0.0854573
0.0870891
0.0883436
0.0892977
0.0900064
0.0905787
0.0911091
0.0916738
0.092274
0.0928522
0.0933333
0.093777
0.0941821
0.0944796
0.0948431
0.0950797
0.0952113
0.0958362
0.097539
0.0997996
0.100684
0.0882657
0.0557987
0.0127601
0.00065015
3.46123e-05
4.92746e-06
5.15982e-06
5.08225e-05
0.000219957
0.00129273
0.00440684
0.0104895
0.0195873
0.0305757
0.0417367
0.0516967
0.0599785
0.0667996
0.0724527
0.0769813
0.0805117
0.083216
0.0853176
0.0869294
0.0881659
0.0891109
0.0898316
0.0903726
0.0909066
0.0914878
0.0920616
0.0925966
0.0931009
0.0935115
0.0938943
0.0942436
0.0944821
0.0947821
0.0949286
0.0951681
0.0961976
0.0981229
0.100257
0.0980587
0.0777876
0.0423278
0.00623524
0.000277355
2.16179e-05
2.88172e-06
6.02192e-06
5.07705e-05
0.000219854
0.00129272
0.00440588
0.0104775
0.0195553
0.0305124
0.0416411
0.0515918
0.0598541
0.0666672
0.0723192
0.0768607
0.0803971
0.0831182
0.0851937
0.0867946
0.088006
0.0889277
0.0896343
0.0901962
0.0907
0.0912917
0.0918764
0.0923856
0.0928447
0.0932801
0.0936316
0.0939566
0.0942483
0.0944273
0.0946513
0.0947491
0.0953146
0.0966449
0.0987135
0.0999967
0.0925153
0.0662509
0.0277195
0.00285315
0.000105972
1.60116e-05
1.81405e-06
6.10798e-06
5.06918e-05
0.000219661
0.0012926
0.00440708
0.0104772
0.0195378
0.030471
0.0415682
0.0514918
0.0597483
0.0665423
0.0721861
0.0767282
0.0802745
0.0830031
0.0850917
0.0866782
0.0878803
0.0887721
0.0894411
0.0899922
0.090528
0.0910922
0.0916848
0.0922007
0.0926318
0.093024
0.0934024
0.0936947
0.0939633
0.0941966
0.0943101
0.0944429
0.0946787
0.0956011
0.0971353
0.0991361
0.098169
0.0832736
0.0542431
0.0153907
0.00123054
3.70677e-05
1.27954e-05
1.67078e-06
6.03252e-06
5.05779e-05
0.000219304
0.00129187
0.00440776
0.0104808
0.0195375
0.0304467
0.041519
0.0514153
0.0596504
0.0664362
0.0720661
0.0766014
0.0801416
0.0828748
0.0849701
0.0865626
0.0877661
0.0886528
0.0892928
0.0897984
0.0903323
0.090927
0.0914886
0.0920074
0.0924483
0.0928105
0.093147
0.0934692
0.0937056
0.0939164
0.0940873
0.0941223
0.0942186
0.0947859
0.0959637
0.0976231
0.0989472
0.0936421
0.0719291
0.0404011
0.00738448
0.000462286
1.4084e-05
1.06813e-05
2.02733e-06
5.734e-06
5.0427e-05
0.000218808
0.00129021
0.00440656
0.0104837
0.0195443
0.0304451
0.0414893
0.0513603
0.0595736
0.0663336
0.0719591
0.0764826
0.0800168
0.0827458
0.084839
0.0864311
0.0876404
0.0885387
0.0891736
0.0896491
0.0901427
0.0907453
0.0913244
0.0918113
0.0922544
0.0926266
0.092934
0.0932156
0.0934843
0.0936615
0.0938121
0.09391
0.0938518
0.094131
0.0950214
0.0963558
0.0979291
0.0973798
0.0855917
0.0604638
0.0255799
0.00309631
0.000144255
8.50008e-06
9.7277e-06
2.58771e-06
5.28282e-06
5.02473e-05
0.000218114
0.00128761
0.00440193
0.0104826
0.019549
0.0304529
0.0414828
0.0513252
0.0595128
0.0662523
0.0718516
0.0763773
0.0798993
0.0826232
0.0847069
0.0863028
0.0875077
0.0884092
0.0890577
0.0895295
0.0899872
0.0905592
0.0911455
0.0916456
0.0920574
0.0924339
0.0927477
0.0930035
0.093231
0.0934449
0.0935633
0.0936481
0.0936566
0.0935824
0.0942271
0.0953046
0.0967195
0.0976843
0.0934316
0.0748769
0.0477803
0.0133878
0.00111316
4.25943e-05
7.27799e-06
8.18799e-06
3.24069e-06
4.60697e-06
5.00219e-05
0.00021724
0.00128385
0.0043944
0.0104736
0.0195481
0.0304572
0.0414869
0.051312
0.0594724
0.066188
0.0717659
0.0762743
0.0797973
0.0825076
0.0845853
0.0861694
0.0873714
0.0882745
0.0889289
0.0894097
0.0898668
0.0903989
0.0909602
0.0914622
0.0918904
0.0922367
0.092555
0.0928166
0.0930205
0.0931954
0.0933554
0.0934083
0.093414
0.0933512
0.0934853
0.0944239
0.0956082
0.0969069
0.0962408
0.0860212
0.0635576
0.0328604
0.00572813
0.000351303
1.39107e-05
8.61494e-06
5.95477e-06
3.97416e-06
3.79352e-06
4.97698e-05
0.000216201
0.0012791
0.00438304
0.0104585
0.0195338
0.0304541
0.0414868
0.0513069
0.0594498
0.0661436
0.0717006
0.0761913
0.0796923
0.0824053
0.0844708
0.0860446
0.0872414
0.0881331
0.0887895
0.0892864
0.0897503
0.0902737
0.0907998
0.091274
0.0917049
0.0920691
0.0923587
0.0926222
0.0928357
0.0929877
0.0931105
0.0932092
0.0931875
0.0931004
0.0931127
0.0935778
0.0946675
0.0958875
0.0966139
0.0924577
0.0755244
0.0514784
0.0184455
0.0020161
0.0001036
4.51864e-06
1.03834e-05
3.55242e-06
5.09864e-06
2.85402e-06
4.95159e-05
0.000215033
0.00127335
0.00436851
0.0104348
0.0195102
0.030434
0.0414791
0.0512993
0.0594348
0.0661113
0.0716471
0.0761188
0.0796074
0.0823022
0.0843672
0.0859311
0.087117
0.088
0.0886498
0.0891504
0.0896368
0.0901672
0.0906742
0.0911151
0.0915156
0.0918841
0.0921925
0.0924277
0.0926417
0.0928032
0.0929072
0.0929734
0.0930031
0.0928932
0.0927718
0.0930613
0.0937639
0.094956
0.0960241
0.0950422
0.0850306
0.0642394
0.0369904
0.00810988
0.000602798
2.91557e-05
9.95684e-07
1.19513e-05
1.16037e-06
6.92566e-06
1.74165e-06
4.92744e-05
0.000213843
0.00126681
0.00435079
0.0104044
0.0194719
0.0304012
0.0414507
0.0512835
0.0594174
0.0660928
0.0716101
0.0760596
0.0795307
0.0822175
0.0842686
0.085827
0.0869999
0.0878801
0.0885108
0.0890107
0.0895082
0.0900608
0.090573
0.0909908
0.0913559
0.0916925
0.0920068
0.0922637
0.0924474
0.0926101
0.0927238
0.0927765
0.092776
0.0927263
0.092542
0.0925944
0.0931652
0.0940097
0.0952217
0.095559
0.0908507
0.0745264
0.052433
0.0215905
0.0027776
0.000167528
8.72339e-06
1.3672e-06
1.28442e-05
2.23188e-07
9.78109e-06
1.02422e-06
4.90353e-05
0.000212727
0.00126022
0.0043306
0.0103671
0.0194232
0.0303499
0.0414095
0.0512476
0.0593936
0.066063
0.0715864
0.076016
0.0794732
0.0821441
0.0841884
0.0857326
0.0869005
0.0877597
0.0883886
0.0888742
0.0893715
0.0899339
0.090464
0.09089
0.0912304
0.0915303
0.0918117
0.0920754
0.0922842
0.0924178
0.0925324
0.0925952
0.0925876
0.0925141
0.0923655
0.0922575
0.0926048
0.0933489
0.0942735
0.0952217
0.0935006
0.0828656
0.0633544
0.0381466
0.00967332
0.000775329
4.67911e-05
2.33027e-06
2.27291e-06
1.17433e-05
6.42836e-07
1.07354e-05
6.48629e-07
4.88383e-05
0.000211673
0.00125407
0.00431004
0.0103241
0.0193634
0.030286
0.041349
0.051202
0.0593512
0.0660321
0.0715488
0.0759784
0.0794221
0.0820798
0.0841138
0.0856487
0.086806
0.0876572
0.0882718
0.0887487
0.0892378
0.0897972
0.0903363
0.0907804
0.0911307
0.0914054
0.0916481
0.0918786
0.0920954
0.0922583
0.0923428
0.0924058
0.0924113
0.0923388
0.0921751
0.0920093
0.0921574
0.0927253
0.0935699
0.0944456
0.0943576
0.0885224
0.0721703
0.0516138
0.0223248
0.00323259
0.000195812
1.18498e-05
1.05341e-06
3.47107e-06
9.84115e-06
1.54995e-06
1.08473e-05
4.51357e-07
4.8664e-05
0.000210767
0.00124818
0.00429083
0.0102804
0.0192941
0.0302079
0.0412765
0.051136
0.0593001
0.0659821
0.0715101
0.0759384
0.0793746
0.08202
0.084048
0.0855687
0.0867208
0.0875624
0.0881652
0.0886365
0.0891124
0.0896628
0.0901982
0.0906509
0.0910235
0.0913081
0.0915251
0.0917154
0.091898
0.092073
0.0921867
0.0922204
0.0922278
0.092169
0.0920172
0.0917954
0.0918297
0.0922116
0.0928912
0.0937686
0.0941873
0.0915583
0.0796628
0.0611179
0.0372085
0.00982839
0.000833508
4.13145e-05
6.5773e-06
1.0128e-07
6.11534e-06
7.56476e-06
2.88501e-06
9.7589e-06
3.17036e-07
4.85152e-05
0.000209994
0.00124311
0.00427256
0.0102406
0.0192236
0.0301183
0.041189
0.0510604
0.0592313
0.0659226
0.0714534
0.0758914
0.0793239
0.0819699
0.0839799
0.0855073
0.0866331
0.0874812
0.0880672
0.088532
0.0889984
0.0895393
0.090062
0.0905113
0.0908934
0.091202
0.0914291
0.0915924
0.0917337
0.091874
0.0920031
0.0920688
0.092048
0.091991
0.0918585
0.0916253
0.0915137
0.0918256
0.0923246
0.0930602
0.093767
0.0927385
0.085409
0.0687329
0.049135
0.0212065
0.00312531
0.000178469
8.5358e-06
3.58447e-06
2.38689e-07
8.8398e-06
4.97794e-06
4.66301e-06
8.24748e-06
2.21826e-07
4.83911e-05
0.000209348
0.00123887
0.00425676
0.0102016
0.0191603
0.0300271
0.04109
0.0509703
0.0591532
0.0658499
0.0713909
0.0758303
0.0792653
0.0819071
0.0839218
0.0854438
0.0865714
0.0873972
0.0879944
0.0884315
0.0888984
0.0894226
0.0899387
0.0903724
0.0907501
0.091071
0.0913233
0.0914985
0.0916112
0.0917093
0.0918061
0.0918881
0.0919018
0.0918184
0.0916903
0.0914665
0.0912697
0.0914136
0.0918898
0.0924564
0.09315
0.093066
0.0888234
0.0755637
0.0578257
0.0341638
0.00884271
0.000719397
2.64743e-05
4.73915e-06
2.75686e-06
6.09699e-07
1.05419e-05
2.37144e-06
7.33743e-06
6.43984e-06
1.52586e-07
4.82927e-05
0.000208809
0.00123532
0.00424329
0.0101677
0.0190985
0.0299456
0.0409899
0.0508687
0.0590616
0.0657714
0.0713144
0.0757673
0.0792035
0.081843
0.0838583
0.0853806
0.0865107
0.0873259
0.0879153
0.0883607
0.0888027
0.0893218
0.0898234
0.0902484
0.0906107
0.0909258
0.0911926
0.0913946
0.0915207
0.0915867
0.0916409
0.0916924
0.0917259
0.0916811
0.0915278
0.0913137
0.0910633
0.0910865
0.0914313
0.0919743
0.0925668
0.0928584
0.0907113
0.0811399
0.064541
0.0452968
0.0182633
0.00257279
0.000117993
3.43109e-06
3.82503e-06
1.66296e-06
1.46472e-06
1.09947e-05
5.27406e-08
1.07758e-05
4.74076e-06
1.02149e-07
4.82166e-05
0.000208411
0.00123245
0.00423238
0.0101396
0.0190438
0.0298658
0.0409
0.0507672
0.0589636
0.0656801
0.0712342
0.0756866
0.0791384
0.081774
0.0837972
0.0853103
0.0864477
0.0872557
0.0878407
0.0882833
0.0887265
0.0892278
0.0897207
0.0901332
0.0904866
0.0907856
0.0910473
0.091264
0.0914181
0.0914973
0.0915175
0.0915276
0.0915333
0.0915134
0.0914005
0.0911672
0.0908959
0.0908015
0.0910578
0.0914857
0.0920615
0.0924765
0.0914884
0.0853451
0.0707135
0.0536085
0.029579
0.00690026
0.000488174
9.49885e-06
2.79982e-06
2.74512e-06
9.91426e-07
2.69531e-06
9.80447e-06
7.73225e-07
1.29008e-05
3.12232e-06
6.57899e-08
4.81659e-05
0.00020809
0.00123022
0.00422356
0.0101163
0.0189979
0.0297947
0.040811
0.0506797
0.0588675
0.0655856
0.0711467
0.0756098
0.0790519
0.0817056
0.0837143
0.0852392
0.0863666
0.0871899
0.0877679
0.088214
0.0886522
0.0891508
0.0896259
0.0900296
0.0903694
0.09066
0.0909041
0.0911173
0.0912866
0.0913972
0.0914307
0.0914044
0.0913718
0.0913265
0.0912409
0.0910527
0.0907402
0.0905595
0.0907135
0.0910838
0.0915495
0.092054
0.0916984
0.0878019
0.0761335
0.060069
0.0401462
0.0142959
0.00173136
4.54149e-05
2.20897e-06
2.22209e-06
2.81454e-06
2.20829e-07
5.44814e-06
7.03263e-06
2.30512e-06
1.31122e-05
1.92777e-06
3.98515e-08
4.81409e-05
0.000207916
0.00122859
0.00421686
0.0100974
0.0189613
0.0297358
0.0407338
0.0505926
0.0587843
0.065496
0.0710547
0.0755245
0.0789834
0.0816262
0.0836436
0.0851558
0.0862854
0.0871089
0.0876959
0.088147
0.0885871
0.0890782
0.0895508
0.0899359
0.0902668
0.0905435
0.0907774
0.0909728
0.0911393
0.0912662
0.0913318
0.0913203
0.0912486
0.0911669
0.0910618
0.0909055
0.0906247
0.0903456
0.0903948
0.0907068
0.0911263
0.0915715
0.0916317
0.0892754
0.0804407
0.0653079
0.0485413
0.0238082
0.00466529
0.000237061
1.45269e-06
1.86806e-06
2.0768e-06
2.16789e-06
1.79585e-07
7.92943e-06
3.92789e-06
4.9757e-06
1.1636e-05
1.08302e-06
2.24937e-08
4.81404e-05
0.000207852
0.0012278
0.00421177
0.0100829
0.0189304
0.0296885
0.040669
0.0505149
0.0587013
0.0654147
0.0709635
0.0754391
0.0789016
0.0815502
0.0835713
0.0850819
0.0862008
0.0870247
0.0876123
0.0880741
0.0885248
0.089013
0.0894769
0.0898609
0.0901717
0.0904417
0.0906611
0.0908462
0.0909956
0.0911185
0.0912029
0.0912239
0.0911663
0.091044
0.0909075
0.0907391
0.0904934
0.0901906
0.0901174
0.0903483
0.0907255
0.0911504
0.0913441
0.0900585
0.0838625
0.0702425
0.0547295
0.033657
0.00990594
0.000928186
1.91295e-05
1.46403e-06
1.51906e-06
2.11579e-06
1.55907e-06
6.49046e-07
1.02316e-05
1.0047e-06
9.28422e-06
9.13048e-06
5.73395e-07
1.21282e-08
4.81339e-05
0.000207874
0.00122755
0.00420936
0.0100728
0.0189067
0.0296484
0.0406154
0.0504494
0.0586287
0.0653332
0.0708868
0.0753551
0.0788196
0.081472
0.0834885
0.0850038
0.0861207
0.0869311
0.0875208
0.0879883
0.0884616
0.0889531
0.0894099
0.0897851
0.0900955
0.0903461
0.0905585
0.0907292
0.0908681
0.0909737
0.0910556
0.0910958
0.0910726
0.0909646
0.0907884
0.0905948
0.0903449
0.0900481
0.0899158
0.0900381
0.0903419
0.0907383
0.0910245
0.0903067
0.0860526
0.0746577
0.0597788
0.0419726
0.0173399
0.00262022
9.14155e-05
5.13687e-06
1.25731e-06
1.35608e-06
2.39368e-06
6.87607e-07
2.95191e-06
9.35885e-06
7.44454e-07
1.38935e-05
6.2792e-06
3.09086e-07
6.22918e-09
4.81505e-05
0.000207919
0.0012278
0.00420886
0.0100682
0.0188902
0.029617
0.0405713
0.0503971
0.0585652
0.0652653
0.0708131
0.0752811
0.0787485
0.0813925
0.0834098
0.0849234
0.0860325
0.0868487
0.0874183
0.0878978
0.0883806
0.0888943
0.0893486
0.0897193
0.0900214
0.0902712
0.0904629
0.0906253
0.0907499
0.0908466
0.0909096
0.0909505
0.0909469
0.0908716
0.0907119
0.090475
0.0902084
0.0898883
0.0897155
0.0898072
0.0900099
0.0903428
0.0906654
0.0903456
0.0873832
0.078292
0.0639893
0.0485461
0.0257473
0.00584943
0.000347446
1.12706e-05
2.91651e-06
9.72581e-07
1.77551e-06
2.63326e-06
5.10108e-07
5.72181e-06
7.14753e-06
1.92328e-06
1.52689e-05
3.73006e-06
1.61864e-07
3.03517e-09
4.81681e-05
0.000208022
0.00122822
0.00420976
0.0100669
0.0188828
0.029594
0.0405364
0.0503527
0.0585146
0.0652061
0.0707477
0.0752105
0.0786771
0.0813201
0.0833347
0.0848456
0.0859551
0.0867557
0.0873405
0.0877983
0.0882984
0.0888174
0.0892889
0.089658
0.0899557
0.0901978
0.0903885
0.0905284
0.0906464
0.0907279
0.0907836
0.0908051
0.0908032
0.0907492
0.0906221
0.0904033
0.0900953
0.0897394
0.0894913
0.0895563
0.0897572
0.0899942
0.0902989
0.0902257
0.0882664
0.0812192
0.0680097
0.0536047
0.0338478
0.010847
0.00116559
1.62053e-05
3.60373e-06
1.8484e-06
8.28138e-07
2.42012e-06
2.71277e-06
3.95893e-07
8.20851e-06
4.00484e-06
4.47791e-06
1.42408e-05
2.00414e-06
8.00647e-08
1.38335e-09
4.8166e-05
0.000208128
0.00122889
0.00421133
0.0100688
0.0188811
0.0295839
0.0405094
0.0503147
0.0584708
0.0651546
0.0706887
0.0751549
0.0786033
0.0812596
0.0832573
0.0847746
0.085879
0.0866789
0.0872525
0.0877218
0.0882099
0.0887373
0.089214
0.089598
0.0898959
0.0901315
0.0903148
0.0904554
0.09055
0.0906266
0.0906663
0.0906791
0.0906593
0.0906092
0.0905046
0.090316
0.0900238
0.0896291
0.089283
0.0892721
0.0894886
0.0897216
0.0899559
0.0900069
0.0887413
0.0834835
0.0717263
0.0577618
0.0408257
0.0172697
0.00279777
0.000118857
9.98106e-07
2.54776e-06
1.17214e-06
6.41382e-07
2.92976e-06
2.55084e-06
1.01421e-06
9.14071e-06
1.23494e-07
1.16602e-05
1.07286e-05
9.81236e-07
3.63765e-08
5.88284e-10
4.8204e-05
0.000208177
0.00122953
0.00421356
0.010072
0.0188832
0.0295804
0.0404952
0.0502847
0.0584319
0.0651087
0.0706395
0.0751026
0.0785582
0.0811953
0.0832041
0.0847017
0.0858092
0.0866018
0.087173
0.0876331
0.0881302
0.0886527
0.089131
0.0895233
0.0898365
0.0900712
0.0902499
0.0903837
0.0904776
0.0905299
0.0905641
0.0905637
0.0905334
0.0904683
0.0903684
0.0902043
0.0899416
0.089562
0.089148
0.089007
0.0891831
0.0894364
0.0896714
0.089751
0.0889256
0.0849879
0.0749606
0.0613541
0.0463681
0.0243791
0.0055661
0.000403472
5.1254e-06
2.851e-06
1.50731e-06
9.44495e-07
6.2079e-07
2.67032e-06
1.49389e-06
3.5216e-06
7.06023e-06
1.53017e-06
1.57629e-05
6.73032e-06
4.35904e-07
1.53694e-08
2.32036e-10
4.81934e-05
0.000208363
0.00122987
0.00421562
0.0100765
0.0188875
0.0295814
0.0404879
0.0502678
0.0584009
0.0650701
0.0705941
0.0750534
0.0785171
0.0811474
0.0831512
0.0846466
0.0857446
0.086533
0.0870929
0.08755
0.0880384
0.0885708
0.0890415
0.0894376
0.0897587
0.0900114
0.09019
0.0903184
0.0904077
0.0904574
0.0904676
0.0904623
0.0904183
0.0903449
0.0902314
0.0900758
0.0898374
0.0894868
0.0890717
0.0888124
0.0888968
0.0891221
0.0893733
0.0895142
0.0889654
0.0859933
0.0776434
0.0645791
0.0508216
0.0311433
0.0095745
0.00109565
3.23281e-05
3.55722e-06
1.89375e-06
7.05415e-07
9.14101e-07
8.09543e-07
1.60406e-06
4.99646e-07
6.94247e-06
3.81441e-06
3.93271e-06
1.68775e-05
3.5625e-06
1.84198e-07
6.02348e-09
8.32504e-11
4.81732e-05
0.000208281
0.00123112
0.00421689
0.010081
0.0188938
0.0295852
0.0404868
0.0502583
0.0583807
0.0650396
0.0705551
0.0750056
0.0784705
0.081108
0.0831026
0.0845982
0.0856947
0.0864718
0.0870215
0.0874679
0.0879545
0.0884795
0.0889597
0.0893439
0.0896723
0.0899333
0.09013
0.0902586
0.090343
0.0903883
0.0903968
0.0903652
0.0903199
0.0902308
0.0901108
0.0899451
0.0897183
0.0893929
0.088996
0.0886994
0.0886558
0.0888315
0.0890568
0.0892429
0.0889426
0.0867312
0.0798978
0.0676788
0.0544624
0.0372313
0.0146704
0.00218579
0.000130346
4.49766e-06
2.67808e-06
8.23035e-07
2.33791e-07
4.50409e-07
1.06046e-06
7.22752e-07
2.24441e-06
8.48893e-06
8.53587e-07
1.16938e-05
1.30847e-05
1.62572e-06
7.29104e-08
2.15541e-09
2.68355e-11
4.81494e-05
0.000208191
0.00123051
0.00422059
0.0100837
0.0189005
0.0295925
0.0404892
0.0502548
0.058365
0.0650163
0.0705222
0.0749706
0.0784214
0.0810676
0.0830628
0.0845627
0.0856504
0.0864291
0.0869606
0.0873939
0.087874
0.088398
0.0888679
0.0892619
0.0895776
0.0898467
0.0900526
0.0902008
0.0902846
0.0903247
0.0903283
0.0902952
0.0902207
0.0901335
0.0900007
0.0898278
0.0895951
0.0892888
0.0889001
0.0886008
0.0884983
0.0885774
0.0887617
0.0889433
0.0888118
0.0872297
0.0817776
0.0705795
0.0576049
0.0423205
0.0204206
0.00411893
0.000323985
1.71665e-05
3.49169e-06
1.14983e-06
3.85334e-07
6.00758e-07
1.21421e-06
2.27901e-06
3.36398e-07
4.66979e-06
7.26255e-06
1.41773e-06
1.77286e-05
8.1445e-06
6.48245e-07
2.61859e-08
6.90906e-10
7.71559e-12
4.8122e-05
0.000208082
0.00122996
0.00421876
0.0100918
0.0189051
0.0295989
0.0404934
0.0502512
0.0583575
0.0649945
0.0704966
0.0749411
0.0783835
0.0810263
0.0830249
0.0845246
0.0856181
0.0863885
0.0869171
0.0873311
0.0878021
0.0883152
0.0887844
0.0891682
0.0894941
0.0897506
0.089965
0.090123
0.090228
0.0902672
0.0902647
0.0902283
0.0901525
0.0900373
0.0899084
0.0897205
0.0894838
0.0891772
0.0887924
0.0884774
0.0883667
0.0883905
0.088507
0.0886532
0.0886038
0.08746
0.0831226
0.0731522
0.0604055
0.0465232
0.0261377
0.00692429
0.000736333
3.06652e-05
6.45675e-06
1.49875e-06
1.89095e-07
6.15958e-07
1.10185e-06
2.66764e-06
2.96091e-06
6.73661e-08
7.42424e-06
3.71331e-06
7.05304e-06
1.7539e-05
3.99577e-06
2.28311e-07
8.3965e-09
1.95053e-10
1.9314e-12
4.80835e-05
0.000207957
0.00122927
0.00421678
0.0100868
0.0189177
0.0296022
0.0404962
0.0502497
0.0583517
0.0649809
0.0704746
0.0749132
0.0783547
0.0809861
0.08299
0.0844889
0.085583
0.0863545
0.0868788
0.0872851
0.0877362
0.0882418
0.0887001
0.0890831
0.0893987
0.0896649
0.0898684
0.0900341
0.09015
0.0902112
0.0902087
0.0901664
0.0900887
0.0899718
0.0898097
0.0896291
0.0893806
0.0890725
0.0886756
0.0883342
0.088212
0.0882309
0.0883038
0.0884044
0.0883674
0.087514
0.084032
0.0753438
0.0628871
0.0499763
0.0314809
0.0105667
0.00139322
6.42288e-05
8.18653e-06
2.94562e-06
4.20534e-07
2.78345e-07
3.42737e-07
1.20173e-06
3.32505e-06
2.73017e-06
1.48365e-06
7.6726e-06
8.83074e-07
1.36763e-05
1.31899e-05
1.62158e-06
7.18735e-08
2.39438e-09
4.71294e-11
4.04955e-13
4.8056e-05
0.000207798
0.00122849
0.00421435
0.0100822
0.0189064
0.0296179
0.0404955
0.0502487
0.0583443
0.0649731
0.0704576
0.0748869
0.0783287
0.0809483
0.0829534
0.084449
0.0855494
0.0863202
0.0868515
0.0872466
0.0876845
0.0881746
0.0886244
0.0889991
0.0893113
0.0895681
0.0897811
0.0899372
0.0900603
0.0901342
0.090155
0.0901118
0.0900274
0.0899093
0.0897487
0.0895374
0.0892942
0.088976
0.0885793
0.0881759
0.0880395
0.0880568
0.0881217
0.0881965
0.0881606
0.087487
0.0846568
0.0771883
0.0652978
0.0529042
0.0362913
0.0147758
0.00233829
0.000160469
9.10591e-06
4.85875e-06
1.16882e-06
6.93049e-07
7.69756e-07
5.27937e-07
8.5882e-07
2.70346e-06
1.19082e-06
4.68488e-06
5.39436e-06
1.228e-06
1.88259e-05
7.02565e-06
5.4729e-07
2.03766e-08
5.89845e-10
9.35869e-12
6.83553e-14
4.80147e-05
0.000207624
0.00122747
0.00421159
0.0100763
0.0188977
0.0295997
0.0405117
0.0502433
0.0583357
0.0649627
0.0704424
0.0748629
0.0783026
0.0809223
0.0829141
0.0844095
0.0855092
0.0862884
0.0868201
0.0872215
0.0876409
0.0881204
0.0885563
0.088922
0.0892249
0.089479
0.0896816
0.0898497
0.0899625
0.0900456
0.090079
0.09006
0.0899745
0.0898495
0.0896882
0.0894742
0.0892072
0.0888947
0.0884931