/*--------------------------------*- C++ -*----------------------------------*\
| =========                 |                                                 |
| \\      /  F ield         | OpenFOAM: The Open Source CFD Toolbox           |
|  \\    /   O peration     | Version:  v2012                                 |
|   \\  /    A nd           | Website:  www.openfoam.com                      |
|    \\/     M anipulation  |                                                 |
\*---------------------------------------------------------------------------*/
FoamFile
{
    version     2.0;
    format      ascii;
    class       volScalarField;
    location    "3800";
    object      nk;
}
// * * * * * * * * * * * * * * * * * * * * * * * * * * * * * * * * * * * * * //

dimensions      [0 0 0 0 0 0 0];


internalField   nonuniform List<scalar> 
29502
(
0.0514801
0.0535647
0.00141571
0.0549428
0.00111691
0.000311862
0.0553467
0.00380299
0.000154201
0.000129382
0.055458
0.00462928
0.00663579
5.38423e-05
7.61718e-05
0.0555009
0.00486931
0.00855181
0.0112848
3.62487e-05
5.44418e-05
0.0555162
0.00496808
0.00908189
0.0145386
0.0163992
3.41803e-05
4.32219e-05
0.0555174
0.00501002
0.00927901
0.0154057
0.0210149
0.0213794
3.57193e-05
3.62746e-05
0.0555138
0.0050178
0.009346
0.0157031
0.0221963
0.0271626
0.0256913
3.75145e-05
3.13958e-05
0.0555072
0.00501414
0.00934273
0.0157826
0.0225711
0.0285631
0.0322802
0.0289441
3.90785e-05
2.77012e-05
0.0555014
0.00499561
0.00931574
0.0157531
0.0226484
0.0289707
0.0337606
0.0359524
0.0309946
3.96068e-05
2.47792e-05
0.055496
0.0049804
0.00926341
0.0156869
0.0225853
0.0290345
0.0341461
0.0373907
0.0381465
0.0319194
3.88733e-05
2.24048e-05
0.055493
0.00496813
0.00922225
0.0155882
0.0224765
0.0289439
0.034192
0.0377141
0.0394821
0.0390966
0.0319265
3.72297e-05
2.04364e-05
0.055487
0.00496027
0.00918838
0.0155124
0.0223332
0.0288051
0.0340887
0.0377431
0.0397302
0.0403275
0.0390938
0.0312942
3.46669e-05
1.8778e-05
0.0554802
0.00494467
0.00916556
0.0154499
0.0222254
0.028635
0.0339435
0.037642
0.0397472
0.0405064
0.0402548
0.0384578
0.0302141
3.17254e-05
1.73612e-05
0.055477
0.00492478
0.00912656
0.0154063
0.0221365
0.0285116
0.0337739
0.0375123
0.0396566
0.040517
0.0403872
0.0395936
0.0373914
0.0288251
2.85632e-05
1.6136e-05
0.0554714
0.00491442
0.00908007
0.0153379
0.0220733
0.0284104
0.0336591
0.0373662
0.0395536
0.0404391
0.0403974
0.039699
0.0385506
0.036038
0.027227
2.53041e-05
1.50648e-05
0.0554672
0.00490163
0.00905569
0.01526
0.0219779
0.0283374
0.0335661
0.0372793
0.0394412
0.0403653
0.0403306
0.039713
0.038648
0.0372686
0.0344989
0.0254956
2.25217e-05
1.41201e-05
0.0554674
0.00489055
0.00902635
0.0152182
0.0218732
0.0282277
0.0334998
0.0372117
0.0393902
0.040287
0.0402807
0.0396553
0.03867
0.0373762
0.035844
0.0328455
0.023662
1.90757e-05
1.32797e-05
0.0554647
0.00488183
0.0090011
0.0151692
0.0218167
0.0281118
0.0333936
0.0371656
0.0393552
0.0402708
0.0402294
0.0396245
0.0386194
0.0374098
0.0359797
0.0343406
0.0311297
0.02175
1.53378e-05
1.25275e-05
0.0554606
0.0048686
0.00898173
0.0151274
0.0217514
0.0280503
0.0332876
0.0370788
0.0393356
0.0402669
0.0402412
0.0395936
0.0386035
0.0373657
0.0360284
0.0345229
0.0327973
0.0293801
0.0197715
1.16873e-05
1.18504e-05
0.0554562
0.00485787
0.00895317
0.0150958
0.0216961
0.0279786
0.0332356
0.0370001
0.0392752
0.040273
0.0402638
0.0396264
0.0385878
0.037361
0.0359912
0.0345904
0.0330467
0.0312385
0.0276077
0.0177332
8.55868e-06
1.12377e-05
0.055452
0.00485086
0.00893049
0.0150503
0.0216547
0.0279192
0.0331725
0.0369692
0.0392312
0.0402393
0.0402922
0.0396682
0.0386351
0.037356
0.0359958
0.0345615
0.0331372
0.0315759
0.0296791
0.0258113
0.0156508
6.05061e-06
1.06822e-05
0.0554477
0.00484315
0.00891633
0.0150146
0.0215957
0.0278753
0.0331216
0.0369267
0.039226
0.0402288
0.0402823
0.0397136
0.0386909
0.0374132
0.0359981
0.0345742
0.0331196
0.0316945
0.0301238
0.0281261
0.0239891
0.0135568
4.29837e-06
1.01769e-05
0.055446
0.0048349
0.00890046
0.014993
0.02155
0.0278116
0.0330849
0.0368946
0.0392094
0.0402479
0.0402997
0.0397212
0.0387487
0.0374785
0.0360612
0.0345818
0.0331401
0.0316926
0.0302778
0.0286956
0.0265801
0.0221387
0.0115062
3.13461e-06
9.71671e-06
0.0554459
0.00482897
0.00888402
0.0149684
0.0215233
0.027763
0.033028
0.0368726
0.0392005
0.0402559
0.0403403
0.0397596
0.0387695
0.0375451
0.0361327
0.0346481
0.0331518
0.0317212
0.0302962
0.0288953
0.0272925
0.0250369
0.0202559
0.0095488
2.45203e-06
9.29818e-06
0.0554454
0.00482135
0.0088721
0.0149431
0.0214926
0.0277369
0.032986
0.0368315
0.0391966
0.040269
0.04037
0.039816
0.0388231
0.0375752
0.0362056
0.0347235
0.0332198
0.0317368
0.0303344
0.0289389
0.0275496
0.0259121
0.0234881
0.0183357
0.00766495
2.033e-06
8.91861e-06
0.0554452
0.00481059
0.0088568
0.0149254
0.0214616
0.0277058
0.0329671
0.0368042
0.0391756
0.0402828
0.040402
0.0398615
0.0388906
0.0376392
0.0362419
0.0348005
0.0332975
0.0318057
0.0303545
0.0289888
0.0276237
0.0262397
0.0245488
0.021923
0.0163719
0.00588453
1.78257e-06
8.58036e-06
0.0554455
0.00480203
0.00883497
0.0149025
0.0214398
0.0276741
0.0329431
0.0367984
0.039166
0.0402809
0.0404307
0.0399078
0.0389479
0.0377145
0.0363124
0.0348408
0.0333767
0.0318848
0.0304242
0.029015
0.0276889
0.0263504
0.0249615
0.0231953
0.020329
0.0143624
0.00425407
1.62941e-06
8.2907e-06
0.0554468
0.0047961
0.00881841
0.0148694
0.0214117
0.0276525
0.0329168
0.0367867
0.0391752
0.0402877
0.0404448
0.0399476
0.0390048
0.0377804
0.0363927
0.0349151
0.0334197
0.0319652
0.0305041
0.0290859
0.0277233
0.026435
0.0251161
0.0237091
0.021842
0.0186932
0.0123143
0.00283445
1.53353e-06
7.96996e-06
0.0554445
0.00479467
0.00880797
0.0148451
0.0213702
0.027623
0.0328996
0.0367718
0.0391778
0.0403115
0.0404662
0.0399737
0.0390535
0.0378446
0.0364644
0.0349982
0.0334958
0.0320098
0.0305853
0.0291666
0.0277964
0.0264802
0.0252248
0.0239164
0.0224753
0.020478
0.0170042
0.0102599
0.00169133
1.45843e-06
7.62285e-06
0.0554413
0.00479255
0.00880726
0.014831
0.021341
0.0275798
0.0328747
0.0367626
0.0391764
0.040328
0.0405022
0.0400056
0.0390884
0.0378993
0.0365337
0.0350734
0.0335802
0.0320864
0.0306312
0.0292486
0.0278784
0.026557
0.0252833
0.0240528
0.0227456
0.0212516
0.0190908
0.0152546
0.00827364
0.000873699
1.39462e-06
7.33036e-06
0.0554361
0.00478855
0.00880503
0.0148325
0.0213258
0.0275511
0.032837
0.0367464
0.0391766
0.0403398
0.040531
0.0400505
0.0391278
0.0379408
0.0365923
0.0351458
0.0336572
0.0321711
0.0307075
0.029296
0.0279614
0.0266412
0.0253654
0.0241276
0.0229141
0.0215968
0.0200281
0.0176671
0.0134474
0.00646076
0.000382403
1.3428e-06
7.10924e-06
0.0554315
0.00478157
0.00879859
0.0148315
0.021331
0.0275387
0.0328158
0.0367201
0.0391707
0.0403485
0.0405537
0.040088
0.0391792
0.0379856
0.036638
0.035207
0.0337312
0.0322489
0.0307918
0.0293715
0.0280105
0.0267256
0.0254529
0.0242172
0.0230084
0.0218035
0.0204624
0.0187942
0.0161928
0.0115953
0.00480408
0.000144695
1.28404e-06
6.9442e-06
0.0554271
0.00477399
0.00878568
0.0148235
0.0213326
0.0275488
0.0328103
0.0367102
0.0391577
0.0403523
0.0405701
0.0401186
0.0392229
0.0380415
0.0366865
0.0352555
0.0337941
0.0323235
0.0308697
0.0294548
0.0280852
0.026777
0.0255395
0.0243092
0.0231079
0.0219212
0.0207157
0.0193339
0.0175376
0.0146553
0.00971821
0.00332344
5.03291e-05
1.23737e-06
6.81898e-06
0.0554244
0.00476538
0.00877129
0.0148053
0.021325
0.0275543
0.0328256
0.036714
0.0391607
0.0403514
0.0405823
0.0401407
0.0392588
0.0380895
0.0367455
0.035306
0.0338444
0.0323872
0.0309443
0.0295324
0.0281674
0.0268513
0.0255934
0.0243989
0.0232062
0.0220335
0.0208612
0.0196454
0.0182019
0.0162452
0.0130464
0.00785459
0.00207964
1.70386e-05
1.20163e-06
6.74649e-06
0.0554231
0.00475781
0.00875494
0.0147846
0.0213036
0.0275482
0.0328355
0.0367345
0.0391744
0.0403659
0.0405923
0.0401595
0.0392856
0.0381294
0.0367962
0.0353667
0.0338959
0.0324386
0.0310084
0.0296069
0.0282446
0.0269325
0.0256677
0.0244561
0.0233001
0.0221399
0.0209894
0.0198235
0.0185852
0.0170558
0.0149031
0.011369
0.00608322
0.00114244
5.83073e-06
1.17631e-06
6.72296e-06
0.0554237
0.00475092
0.00874044
0.0147605
0.0212788
0.0275268
0.0328326
0.0367489
0.0391997
0.0403881
0.0406161
0.0401774
0.039309
0.038159
0.0368388
0.0354192
0.0339572
0.0324904
0.0310603
0.0296711
0.0283187
0.0270093
0.0257482
0.0245308
0.0233616
0.0222394
0.0211062
0.0199714
0.0188031
0.017526
0.015884
0.0134984
0.009642
0.00450835
0.000540131
2.13701e-06
1.15838e-06
6.72747e-06
0.0554261
0.00474552
0.0087277
0.0147397
0.0212496
0.0275021
0.0328141
0.0367498
0.0392173
0.0404172
0.0406445
0.0402076
0.0393317
0.0381855
0.0368705
0.0354638
0.0340108
0.0325519
0.031112
0.0297231
0.0283831
0.0270831
0.0258248
0.0246111
0.0234373
0.0223061
0.0212129
0.0201009
0.0189748
0.017795
0.0164579
0.0146735
0.0120218
0.0079037
0.00312207
0.000226514
9.38929e-07
1.14351e-06
6.71121e-06
0.0554283
0.00474249
0.00871852
0.0147219
0.0212251
0.0274722
0.0327932
0.0367362
0.0392218
0.0404376
0.0406765
0.0402401
0.0393669
0.0382122
0.0368988
0.0354966
0.0340564
0.032606
0.0311733
0.0297744
0.0284352
0.0271474
0.0258982
0.0246876
0.0235178
0.0223838
0.0212861
0.0202167
0.01912
0.0179949
0.0167909
0.0153701
0.0134109
0.0104723
0.00620949
0.00195232
8.98076e-05
5.59005e-07
1.12144e-06
6.72802e-06
0.0554311
0.00474052
0.00871339
0.0147096
0.0212045
0.0274478
0.0327673
0.0367215
0.0392136
0.0404455
0.0406995
0.0402743
0.0394026
0.0382505
0.0369283
0.035526
0.03409
0.032652
0.0312275
0.0298352
0.0284862
0.0271999
0.0259627
0.0247611
0.0235946
0.0224652
0.0213669
0.0202979
0.0192469
0.0181591
0.0170272
0.0157812
0.0142507
0.0120833
0.00886445
0.00465095
0.0010659
3.52432e-05
4.40279e-07
1.10315e-06
6.69805e-06
0.0554339
0.00473938
0.00871129
0.0147037
0.0211917
0.027428
0.0327476
0.0367028
0.0392059
0.0404422
0.0407101
0.0402991
0.0394384
0.0382884
0.0369688
0.0355574
0.0341202
0.0326862
0.0312738
0.0298895
0.0285463
0.0272506
0.0260155
0.0248257
0.0236685
0.0225428
0.02145
0.020383
0.0193377
0.0182996
0.0172138
0.0160649
0.0147554
0.0130868
0.0106827
0.00723421
0.00328786
0.000500154
1.38081e-05
4.03315e-07
1.07745e-06
6.67459e-06
0.0554362
0.00474105
0.00871111
0.0147024
0.0211865
0.0274167
0.0327325
0.0366905
0.0391954
0.0404399
0.0407105
0.0403105
0.0394643
0.0383246
0.0370078
0.0355987
0.0341523
0.0327167
0.0313083
0.029936
0.0286003
0.02731
0.0260659
0.0248789
0.0237336
0.0226174
0.021529
0.0204687
0.0194287
0.0184019
0.0173706
0.0162796
0.015099
0.0137022
0.0118651
0.00921054
0.00564919
0.00212231
0.000209557
5.33544e-06
3.87578e-07
1.05461e-06
6.69697e-06
0.0554369
0.00474212
0.00871684
0.014705
0.0211877
0.0274154
0.0327268
0.0366828
0.0391913
0.0404368
0.0407129
0.0403135
0.0394771
0.0383517
0.0370446
0.0356384
0.0341939
0.032749
0.0313388
0.0299706
0.0286468
0.0273638
0.0261244
0.0249292
0.0237873
0.0226834
0.0216047
0.0205499
0.019518
0.0185003
0.0174865
0.0164558
0.0153506
0.0141191
0.0126092
0.0105745
0.00768597
0.00419762
0.00120135
8.43156e-05
2.05071e-06
3.77149e-07
1.0457e-06
6.75113e-06
0.055436
0.00474216
0.00872089
0.0147162
0.021194
0.0274204
0.0327305
0.0366847
0.0391912
0.0404401
0.0407158
0.0403196
0.0394817
0.0383655
0.0370722
0.035676
0.034234
0.0327904
0.0313709
0.0300013
0.0286819
0.0274105
0.026178
0.024987
0.0238377
0.022738
0.0216719
0.0206274
0.0196022
0.0185946
0.0175943
0.0165877
0.0155509
0.0144178
0.0131143
0.0114636
0.00921077
0.00615268
0.00293008
0.000580774
3.40347e-05
8.34285e-07
3.70552e-07
1.04577e-06
6.81322e-06
0.0554339
0.0047409
0.00872294
0.0147251
0.0212117
0.0274307
0.0327399
0.0366949
0.0392011
0.0404468
0.0407261
0.0403273
0.0394901
0.0383714
0.0370868
0.0357035
0.0342719
0.0328305
0.0314119
0.0300331
0.0287129
0.0274459
0.0262247
0.0250404
0.0238951
0.0227887
0.0217278
0.0206963
0.0196822
0.0186828
0.0176948
0.0167067
0.0157013
0.0146497
0.0134715
0.0120725
0.0102537
0.00778373
0.00469577
0.00185369
0.000248459
1.38306e-05
4.03984e-07
3.67043e-07
1.04757e-06
6.86547e-06
0.0554319
0.00473873
0.00872205
0.0147306
0.0212257
0.0274535
0.032754
0.0367084
0.0392176
0.0404635
0.040738
0.0403418
0.0395008
0.0383816
0.0370934
0.0357185
0.0342994
0.0328685
0.0314515
0.0300733
0.0287445
0.0274772
0.0262605
0.0250872
0.0239482
0.0228457
0.0217792
0.0207538
0.0197534
0.0187659
0.0177882
0.0168152
0.0158339
0.0148232
0.0137436
0.012501
0.0109814
0.00897329
0.00632761
0.00340156
0.0010168
0.000100912
5.50067e-06
2.56373e-07
3.65031e-07
1.04888e-06
6.90869e-06
0.0554289
0.00473558
0.00871912
0.0147313
0.0212354
0.0274728
0.0327805
0.0367256
0.0392345
0.0404848
0.0407589
0.0403571
0.0395181
0.0383941
0.0371045
0.035726
0.034315
0.0328962
0.0314895
0.0301124
0.0287837
0.0275085
0.0262919
0.0251232
0.0239952
0.0228988
0.021836
0.0208064
0.0198131
0.01884
0.0178754
0.0169151
0.0159522
0.0149719
0.013947
0.0128229
0.0114948
0.00982985
0.00762898
0.00491271
0.00227338
0.000473845
4.07062e-05
2.12236e-06
2.07609e-07
3.6419e-07
1.04958e-06
6.94676e-06
0.0554255
0.00473034
0.00871377
0.0147282
0.0212386
0.0274857
0.0328019
0.0367532
0.0392536
0.0405046
0.0407836
0.0403818
0.0395357
0.038413
0.037118
0.0357374
0.0343229
0.0329126
0.0315177
0.0301502
0.0288221
0.0275467
0.0263228
0.0251546
0.0240316
0.022946
0.0218893
0.0208634
0.0198673
0.0189026
0.0179532
0.0170075
0.01606
0.0151022
0.0141166
0.0130639
0.0118774
0.0104412
0.00861159
0.00624235
0.00361987
0.00134257
0.000197151
1.65456e-05
8.27929e-07
1.91957e-07
3.63851e-07
1.04972e-06
6.98908e-06
0.0554224
0.00472424
0.00870374
0.0147214
0.0212365
0.0274913
0.032817
0.0367745
0.0392806
0.0405247
0.0408058
0.0404089
0.0395624
0.0384317
0.0371376
0.0357512
0.0343347
0.0329208
0.0315347
0.0301789
0.0288599
0.0275845
0.0263601
0.0251851
0.0240631
0.022983
0.021937
0.0209171
0.0199249
0.0189589
0.0180193
0.0170898
0.0161588
0.0152195
0.0142613
0.0132612
0.0121645
0.0108962
0.00932942
0.00732546
0.00487702
0.00248593
0.000670646
8.03949e-05
6.60114e-06
3.55902e-07
1.86979e-07
3.6338e-07
1.04949e-06
7.04029e-06
0.0554191
0.00471725
0.00869165
0.014707
0.0212292
0.0274905
0.0328234
0.0367889
0.0393
0.0405501
0.0408264
0.0404323
0.0395912
0.0384599
0.0371569
0.0357709
0.0343484
0.0329325
0.0315435
0.0301967
0.0288892
0.0276224
0.0263973
0.0252217
0.0240932
0.0230147
0.0219747
0.0209655
0.0199792
0.0190175
0.0180783
0.0171601
0.0162465
0.015326
0.01439
0.0134248
0.0123967
0.0112386
0.00986775
0.00814901
0.00599359
0.00361911
0.00152516
0.000286138
3.30296e-05
2.52035e-06
1.92368e-07
1.85457e-07
3.62797e-07
1.05203e-06
7.17287e-06
0.0554166
0.00470925
0.00867786
0.0146889
0.0212119
0.0274834
0.0328236
0.0367949
0.0393126
0.0405678
0.0408504
0.0404526
0.0396151
0.0384894
0.0371859
0.0357902
0.0343678
0.0329461
0.031555
0.030206
0.0289077
0.0276521
0.0264353
0.0252585
0.0241292
0.0230446
0.0220068
0.021004
0.0200285
0.0190729
0.0181385
0.0172225
0.0163221
0.0154203
0.0145057
0.0135678
0.0125849
0.0115134
0.0102748
0.00877899
0.00690307
0.00468363
0.00251024
0.000793428
0.000115171
1.34406e-05
9.38701e-07
1.3872e-07
1.85097e-07
3.6309e-07
1.06388e-06
7.2567e-06
0.0554148
0.00470192
0.0086617
0.0146682
0.0211894
0.0274652
0.0328171
0.0367954
0.0393168
0.0405776
0.0408665
0.0404754
0.0396358
0.0385141
0.0372162
0.0358196
0.0343869
0.0329648
0.0315682
0.0302175
0.0289176
0.0276712
0.0264653
0.0252965
0.0241656
0.0230801
0.0220368
0.0210368
0.0200682
0.0191234
0.0181952
0.0172849
0.0163885
0.0155019
0.0146078
0.0136945
0.0127468
0.0117329
0.0106009
0.00926104
0.00762367
0.00561902
0.0034749
0.00155861
0.000346119
4.71559e-05
5.2723e-06
3.6495e-07
1.22033e-07
1.85592e-07
3.66938e-07
1.06259e-06
7.26789e-06
0.0554135
0.00469559
0.00864685
0.0146438
0.0211637
0.0274412
0.0328003
0.0367906
0.0393173
0.0405798
0.040874
0.0404894
0.0396574
0.0385347
0.0372412
0.0358499
0.034416
0.0329836
0.0315864
0.0302301
0.028929
0.0276815
0.0264849
0.0253266
0.0242035
0.0231162
0.0220718
0.0210669
0.0201019
0.0191645
0.0182473
0.0173435
0.0164537
0.0155733
0.0146965
0.0138056
0.0128877
0.0119189
0.0108589
0.00964778
0.00818763
0.00640961
0.0043633
0.0024055
0.000820109
0.000138295
1.9231e-05
1.96724e-06
1.69406e-07
1.17391e-07
1.87094e-07
3.66893e-07
1.06244e-06
7.27988e-06
0.0554125
0.00468976
0.00863418
0.014621
0.0211329
0.0274139
0.0327779
0.0367764
0.039314
0.04058
0.0408741
0.0404956
0.0396697
0.0385556
0.0372619
0.0358751
0.0344464
0.0330122
0.0316045
0.0302477
0.0289412
0.0276929
0.0264957
0.0253468
0.024234
0.0231541
0.0221077
0.0211017
0.0201325
0.0191994
0.0182902
0.0173975
0.0165148
0.0156421
0.0147738
0.0139026
0.0130104
0.0120783
0.0110749
0.00995225
0.00864284
0.0070505
0.00516569
0.00321321
0.00148439
0.000358119
5.59959e-05
7.53772e-06
7.1461e-07
1.07126e-07
1.16874e-07
1.8706e-07
3.6628e-07
1.06681e-06
7.2885e-06
0.0554123
0.00468524
0.0086226
0.0146017
0.0211041
0.0273814
0.0327529
0.0367579
0.039303
0.0405771
0.0408736
0.0404939
0.0396746
0.038567
0.037282
0.035896
0.0344714
0.0330423
0.0316323
0.0302653
0.0289581
0.0277048
0.0265071
0.0253581
0.0242547
0.0231849
0.0221457
0.0211376
0.0201672
0.0192307
0.0183266
0.0174425
0.0165713
0.0157063
0.0148469
0.0139868
0.013117
0.0122158
0.0112577
0.0102049
0.0090018
0.00757731
0.00585994
0.00396455
0.00219292
0.000771358
0.000140872
2.2834e-05
2.80463e-06
2.71001e-07
8.89113e-08
1.16783e-07
1.86481e-07
3.66487e-07
1.07359e-06
7.29634e-06
0.0554126
0.00468175
0.00861338
0.0145846
0.0210806
0.027351
0.0327236
0.0367382
0.0392889
0.0405688
0.0408715
0.0404929
0.0396716
0.0385707
0.037293
0.0359163
0.0344924
0.0330676
0.0316622
0.0302922
0.0289752
0.0277209
0.0265187
0.0253695
0.0242666
0.0232062
0.0221768
0.0211757
0.0202031
0.0192657
0.0183591
0.0174808
0.0166187
0.0157657
0.0149149
0.0140653
0.0132091
0.0123348
0.0114139
0.0104167
0.00929828
0.00799688
0.0064507
0.00465767
0.0028794
0.00131805
0.000330004
5.63953e-05
8.93025e-06
9.97695e-07
1.24585e-07
8.39072e-08
1.16506e-07
1.86235e-07
3.67024e-07
1.08122e-06
7.30397e-06
0.055413
0.00467922
0.00860662
0.0145707
0.0210596
0.0273258
0.032697
0.0367153
0.0392751
0.0405586
0.040865
0.0404915
0.03967
0.0385667
0.0372963
0.035927
0.0345131
0.0330884
0.0316878
0.0303216
0.0290013
0.0277374
0.0265342
0.0253809
0.0242782
0.0232188
0.0221989
0.0212072
0.0202414
0.0193018
0.0183945
0.0175148
0.0166593
0.015816
0.0149779
0.0141379
0.013294
0.0124371
0.0115489
0.0105962
0.0095453
0.00834402
0.00693144
0.00528077
0.00351902
0.00191532
0.000656965
0.000127352
2.27892e-05
3.29045e-06
3.54086e-07
7.97435e-08
8.24251e-08
1.16348e-07
1.86202e-07
3.68126e-07
1.09422e-06
7.31151e-06
0.0554139
0.0046775
0.00860189
0.0145604
0.0210421
0.0273047
0.032675
0.0366958
0.03926
0.0405505
0.0408583
0.0404866
0.039669
0.0385648
0.0372923
0.0359303
0.0345241
0.0331092
0.0317086
0.0303473
0.0290299
0.0277627
0.02655
0.0253959
0.0242894
0.0232306
0.0222123
0.0212301
0.0202735
0.0193404
0.0184309
0.0175509
0.0166952
0.0158594
0.0150316
0.014205
0.0133722
0.0125301
0.0116645
0.0107511
0.00975323
0.0086327
0.00733293
0.00581119
0.00412536
0.00250102
0.00109991
0.000269535
5.02981e-05
8.81586e-06
1.14846e-06
1.40763e-07
6.68772e-08
8.19409e-08
1.16347e-07
1.86802e-07
3.69409e-07
1.11442e-06
7.3194e-06
0.0554143
0.00467672
0.00859916
0.0145539
0.0210303
0.0272871
0.0326573
0.0366807
0.039249
0.040543
0.0408552
0.0404819
0.039665
0.0385639
0.0372896
0.0359261
0.0345274
0.0331207
0.0317296
0.0303683
0.0290557
0.0277906
0.0265744
0.0254111
0.0243039
0.0232419
0.0222245
0.0212444
0.0202972
0.019373
0.0184699
0.0175879
0.0167324
0.0158976
0.0150783
0.0142627
0.0134441
0.0126147
0.0117678
0.0108832
0.0099325
0.0088749
0.00766855
0.00626296
0.00466477
0.00305826
0.00159919
0.000514183
0.000101958
2.00128e-05
3.19527e-06
3.92259e-07
7.51386e-08
6.33936e-08
8.18159e-08
1.16616e-07
1.87521e-07
3.75824e-07
1.11243e-06
7.32759e-06
0.0554154
0.00467591
0.00859776
0.0145504
0.0210229
0.0272755
0.0326437
0.0366702
0.0392418
0.0405403
0.0408535
0.040482
0.0396622
0.0385609
0.0372887
0.0359233
0.0345231
0.0331246
0.0317416
0.0303899
0.0290769
0.0278161
0.0266016
0.0254347
0.0243186
0.0232559
0.0222358
0.0212572
0.0203126
0.0193978
0.0185033
0.0176275
0.0167702
0.0159363
0.0151193
0.0143132
0.0135064
0.0126923
0.011861
0.0109999
0.0100848
0.00908339
0.00795053
0.00664665
0.00514802
0.0035621
0.00210137
0.00085892
0.000200027
3.98903e-05
7.55713e-06
1.09177e-06
1.44698e-07
5.64228e-08
6.24979e-08
8.19746e-08
1.16918e-07
1.90409e-07
3.75544e-07
1.11412e-06
7.33601e-06
0.0554164
0.0046769
0.00859708
0.0145491
0.0210194
0.0272696
0.0326361
0.0366634
0.0392398
0.0405397
0.0408566
0.0404845
0.0396644
0.0385586
0.0372866
0.0359223
0.0345205
0.0331207
0.0317463
0.0304026
0.0290989
0.0278374
0.0266269
0.0254611
0.0243413
0.0232702
0.0222495
0.0212687
0.0203261
0.0194144
0.0185293
0.0176617
0.0168105
0.0159752
0.01516
0.0143576
0.0135614
0.0127599
0.0119459
0.0111043
0.0102183
0.00926023
0.00819335
0.00697142
0.00557206
0.00403985
0.00256908
0.00126541
0.000369421
7.48425e-05
1.55063e-05
2.65846e-06
3.63109e-07
6.96398e-08
5.1457e-08
6.23799e-08
8.21423e-08
1.18303e-07
1.90401e-07
3.76954e-07
1.11578e-06
7.34471e-06
0.0554175
0.00467837
0.00859983
0.0145487
0.0210186
0.0272683
0.032633
0.0366615
0.0392407
0.0405449
0.0408617
0.0404916
0.0396695
0.0385621
0.0372843
0.0359203
0.0345194
0.0331182
0.031743
0.0304081
0.0291126
0.0278597
0.0266483
0.0254862
0.0243671
0.0232922
0.0222635
0.0212823
0.020338
0.0194288
0.0185472
0.017689
0.0168458
0.0160164
0.0152003
0.0144007
0.0136097
0.0128199
0.01202
0.0111988
0.0103369
0.00941432
0.00839934
0.00725253
0.00593623
0.00447236
0.00301005
0.00167821
0.000621088
0.000136655
2.91184e-05
5.64648e-06
8.80425e-07
1.2959e-07
4.86064e-08
5.03155e-08
6.24006e-08
8.30066e-08
1.18599e-07
1.90743e-07
3.80414e-07
1.11697e-06
7.35379e-06
0.0554188
0.0046803
0.00860357
0.0145538
0.0210195
0.0272693
0.0326355
0.0366635
0.0392453
0.0405534
0.0408729
0.0405004
0.0396798
0.0385687
0.0372882
0.0359182
0.0345173
0.0331172
0.0317408
0.0304057
0.029119
0.0278744
0.0266709
0.0255076
0.0243919
0.0233172
0.0222848
0.021296
0.0203516
0.0194413
0.0185627
0.0177085
0.0168745
0.0160529
0.0152426
0.0144429
0.0136559
0.0128728
0.012086
0.0112812
0.0104434
0.00955045
0.00857825
0.00749195
0.00625579
0.00485982
0.00341443
0.00208157
0.000924281
0.000243728
5.13028e-05
1.09555e-05
1.91107e-06
2.84995e-07
6.04798e-08
4.3226e-08
5.00908e-08
6.29158e-08
8.33006e-08
1.19073e-07
1.9162e-07
3.83621e-07
1.11801e-06
7.36284e-06
0.0554203
0.00468174
0.00860821
0.0145606
0.0210276
0.0272714
0.03264
0.0366702
0.0392528
0.0405644
0.0408872
0.0405159
0.039691
0.0385803
0.0372955
0.035922
0.0345152
0.0331149
0.0317401
0.030404
0.0291177
0.0278818
0.0266863
0.0255305
0.0244134
0.0233418
0.0223092
0.0213167
0.0203653
0.0194551
0.018576
0.0177252
0.0168957
0.0160833
0.0152805
0.0144866
0.0137004
0.0129226
0.0121441
0.0113547
0.0105363
0.00967188
0.00873571
0.0076999
0.00653069
0.00521035
0.00379566
0.00246015
0.00126094
0.000402679
8.74581e-05
1.9674e-05
3.81945e-06
6.10852e-07
1.01139e-07
4.1667e-08
4.19819e-08
5.03815e-08
6.31332e-08
8.36347e-08
1.19698e-07
1.93298e-07
3.83501e-07
1.11902e-06
7.37193e-06
0.0554217
0.00468406
0.00861242
0.0145684
0.0210375
0.027282
0.0326446
0.0366784
0.0392641
0.0405762
0.0409033
0.0405343
0.0397088
0.0385934
0.0373074
0.0359295
0.0345188
0.0331127
0.0317379
0.0304036
0.029117
0.0278814
0.0266948
0.0255466
0.0244365
0.0233633
0.0223335
0.0213404
0.0203855
0.0194689
0.0185902
0.0177395
0.016914
0.0161064
0.0153128
0.0145262
0.0137458
0.0129699
0.0121981
0.0114195
0.0106193
0.00977757
0.00887531
0.0078826
0.00677047
0.0055171
0.00415132
0.00281276
0.00159862
0.000616885
0.000145949
3.29657e-05
7.08212e-06
1.23751e-06
1.94274e-07
4.88802e-08
3.69856e-08
4.19632e-08
5.0544e-08
6.34026e-08
8.40054e-08
1.20649e-07
1.9371e-07
3.83624e-07
1.12012e-06
7.38092e-06
0.0554226
0.0046863
0.00861733
0.0145761
0.0210485
0.0272952
0.0326572
0.0366859
0.0392755
0.0405906
0.0409188
0.0405538
0.0397301
0.0386132
0.0373216
0.0359415
0.0345259
0.0331157
0.0317354
0.0304015
0.0291166
0.0278813
0.0266952
0.025556
0.0244532
0.0233866
0.0223551
0.0213645
0.0204087
0.0194886
0.0186041
0.0177543
0.0169295
0.0161265
0.0153381
0.0145606
0.0137874
0.0130175
0.0122486
0.0114791
0.0106929
0.00987234
0.00899671
0.00804403
0.00698158
0.00578728
0.0044713
0.00314478
0.00192252
0.000865835
0.000236677
5.28157e-05
1.21865e-05
2.34708e-06
3.8175e-07
7.14615e-08
3.52558e-08
3.61009e-08
4.20749e-08
5.07331e-08
6.36334e-08
8.4712e-08
1.21166e-07
1.94888e-07
3.83756e-07
1.12129e-06
7.39011e-06
0.0554239
0.00468709
0.0086222
0.0145843
0.0210595
0.0273088
0.0326717
0.0367001
0.0392857
0.0406055
0.0409361
0.0405719
0.0397524
0.0386358
0.0373427
0.0359557
0.0345377
0.0331222
0.0317378
0.0303988
0.0291145
0.0278812
0.0266958
0.0255575
0.0244636
0.023404
0.0223785
0.0213862
0.0204325
0.0195113
0.0186236
0.0177687
0.0169451
0.0161434
0.0153601
0.0145883
0.0138241
0.0130614
0.0122989
0.0115339
0.0107598
0.00995674
0.00910571
0.0081844
0.00716819
0.00602739
0.00476213
0.00345158
0.0022325
0.00113481
0.000364315
8.21494e-05
1.97042e-05
4.14809e-06
7.2517e-07
1.21455e-07
3.82106e-08
3.21412e-08
3.60295e-08
4.22118e-08
5.08732e-08
6.41752e-08
8.53595e-08
1.21763e-07
1.95116e-07
3.83929e-07
1.12256e-06
7.39911e-06
0.0554225
0.00469061
0.00862493
0.0145924
0.0210708
0.027323
0.0326876
0.036716
0.0393011
0.0406185
0.0409534
0.040591
0.0397722
0.0386594
0.0373658
0.0359774
0.0345516
0.0331334
0.0317434
0.0304005
0.0291116
0.0278792
0.026696
0.0255586
0.0244661
0.0234153
0.0223965
0.0214097
0.0204542
0.0195349
0.0186459
0.0177881
0.0169601
0.0161601
0.0153788
0.0146126
0.0138545
0.0131008
0.0123456
0.0115875
0.0108205
0.010033
0.00920315
0.00831047
0.00733078
0.00624084
0.00502637
0.00374137
0.00252016
0.00140899
0.000528946
0.000126837
3.01006e-05
6.88833e-06
1.29959e-06
2.17365e-07
4.88339e-08
3.00681e-08
3.15699e-08
3.6111e-08
4.22993e-08
5.12257e-08
6.46647e-08
8.59663e-08
1.2209e-07
1.94891e-07
3.84189e-07
1.12389e-06
7.40739e-06
0.055422
0.00468771
0.00863278
0.0145978
0.0210822
0.0273371
0.0327036
0.0367324
0.0393175
0.0406346
0.0409683
0.0406101
0.0397925
0.0386805
0.0373897
0.0360008
0.034573
0.0331469
0.0317538
0.0304051
0.0291127
0.0278762
0.0266941
0.0255591
0.0244679
0.0234189
0.0224088
0.0214284
0.0204778
0.0195567
0.0186694
0.0178101
0.0169796
0.0161759
0.0153968
0.0146332
0.0138813
0.0131341
0.012388
0.0116374
0.0108785
0.0101015
0.00929087
0.00842352
0.00747696
0.00642769
0.00526388
0.0040106
0.00279032
0.00167235
0.000722928
0.00019255
4.4695e-05
1.07762e-05
2.20051e-06
3.83275e-07
7.2025e-08
3.03795e-08
2.83283e-08
3.15514e-08
3.61703e-08
4.25066e-08
5.15873e-08
6.5196e-08
8.63446e-08
1.22324e-07
1.94768e-07
3.84536e-07
1.12534e-06
7.41586e-06
0.0554214
0.00468773
0.00862635
0.0146102
0.0210903
0.0273502
0.0327189
0.036749
0.039334
0.0406505
0.040985
0.0406262
0.0398126
0.0387021
0.0374116
0.0360247
0.0345964
0.0331676
0.0317662
0.0304145
0.0291166
0.0278767
0.026691
0.0255575
0.0244687
0.0234214
0.0224134
0.0214415
0.0204971
0.0195804
0.0186912
0.0178334
0.0170014
0.0161957
0.0154137
0.0146528
0.0139042
0.0131638
0.0124246
0.0116832
0.0109325
0.0101655
0.00936919
0.00852499
0.00760834
0.00659622
0.00547345
0.00425747
0.00304264
0.00192372
0.000930974
0.000282871
6.51979e-05
1.61518e-05
3.52517e-06
6.51118e-07
1.14627e-07
3.41179e-08
2.61757e-08
2.80693e-08
3.16058e-08
3.63315e-08
4.27521e-08
5.19942e-08
6.56457e-08
8.66938e-08
1.22185e-07
1.94776e-07
3.84944e-07
1.12682e-06
7.42373e-06
0.0554207
0.00468771
0.00862642
0.0145999
0.0211078
0.0273598
0.0327325
0.0367637
0.0393499
0.0406661
0.0410015
0.0406433
0.0398297
0.0387225
0.037434
0.0360469
0.03462
0.0331902
0.0317861
0.0304259
0.0291248
0.0278798
0.0266911
0.0255544
0.0244674
0.0234227
0.0224168
0.0214473
0.0205112
0.0196002
0.018715
0.0178553
0.0170247
0.0162175
0.015434
0.014671
0.0139257
0.0131892
0.0124573
0.0117232
0.0109824
0.0102249
0.0094412
0.00861522
0.00772606
0.00674824
0.00566413
0.0044812
0.00327818
0.00216102
0.00114651
0.000396157
9.40684e-05
2.3327e-05
5.4046e-06
1.05701e-06
1.8609e-07
4.29521e-08
2.51884e-08
2.53839e-08
2.80933e-08
3.1754e-08
3.65297e-08
4.30472e-08
5.23903e-08
6.61675e-08
8.6779e-08
1.21863e-07
1.94914e-07
3.85408e-07
1.12843e-06
7.43147e-06
0.0554201
0.00468752
0.00862624
0.0146001
0.0210927
0.0273817
0.0327422
0.0367768
0.0393635
0.0406818
0.0410165
0.0406599
0.039847
0.0387397
0.0374551
0.0360694
0.0346421
0.0332134
0.0318079
0.0304445
0.029135
0.027887
0.0266934
0.025554
0.0244644
0.0234217
0.0224185
0.0214515
0.0205181
0.0196152
0.0187353
0.0178792
0.0170467
0.0162408
0.015456
0.0146922
0.0139456
0.0132129
0.0124857
0.0117593
0.0110268
0.01028
0.00950742
0.00869738
0.00783047
0.00688468
0.00583759
0.0046892
0.00349948
0.00238412
0.00135906
0.000533063
0.000134223
3.26969e-05
7.96349e-06
1.64649e-06
2.97865e-07
5.93378e-08
2.56439e-08
2.33454e-08
2.53035e-08
2.8223e-08
3.19314e-08
3.67583e-08
4.33791e-08
5.28441e-08
6.63845e-08
8.66285e-08
1.21702e-07
1.95129e-07
3.85938e-07
1.13012e-06
7.4389e-06
0.055419
0.00468666
0.00862574
0.0145998
0.0210933
0.0273629
0.0327665
0.0367863
0.0393754
0.0406944
0.0410309
0.0406745
0.0398638
0.0387572
0.0374725
0.0360907
0.0346646
0.0332353
0.0318304
0.0304655
0.0291523
0.0278961
0.0266996
0.0255557
0.0244637
0.0234188
0.022418
0.0214539
0.0205233
0.0196234
0.0187513
0.0179
0.0170707
0.0162629
0.0154794
0.0147145
0.0139677
0.0132347
0.0125119
0.0117909
0.011067
0.0103297
0.00956909
0.00877243
0.00792515
0.00700562
0.00599402
0.00488147
0.00371003
0.00259107
0.00156504
0.000685203
0.00018821
4.49472e-05
1.13126e-05
2.46452e-06
4.6386e-07
8.63964e-08
2.80611e-08
2.19177e-08
2.30515e-08
2.53969e-08
2.83788e-08
3.21024e-08
3.6977e-08
4.37366e-08
5.32306e-08
6.65101e-08
8.61953e-08
1.21713e-07
1.95405e-07
3.86514e-07
1.13194e-06
7.44651e-06
0.0554187
0.00468588
0.00862387
0.0145989
0.0210928
0.0273632
0.0327449
0.0368109
0.039384
0.0407045
0.0410426
0.040688
0.0398779
0.0387743
0.0374897
0.0361086
0.0346859
0.0332577
0.0318519
0.0304873
0.0291722
0.0279121
0.0267076
0.0255609
0.0244647
0.0234179
0.0224154
0.0214539
0.0205264
0.0196296
0.0187606
0.0179168