/*--------------------------------*- C++ -*----------------------------------*\
| =========                 |                                                 |
| \\      /  F ield         | OpenFOAM: The Open Source CFD Toolbox           |
|  \\    /   O peration     | Version:  v2012                                 |
|   \\  /    A nd           | Website:  www.openfoam.com                      |
|    \\/     M anipulation  |                                                 |
\*---------------------------------------------------------------------------*/
FoamFile
{
    version     2.0;
    format      ascii;
    class       volScalarField;
    location    "3800";
    object      nut;
}
// * * * * * * * * * * * * * * * * * * * * * * * * * * * * * * * * * * * * * //

dimensions      [0 2 -1 0 0 0 0];


internalField   nonuniform List<scalar> 
29502
(
3.92574e-07
1.28588e-08
3.75217e-07
1.37234e-08
1.24795e-08
3.47562e-07
1.64504e-08
4.31164e-08
1.3166e-08
3.15447e-07
1.81715e-08
6.21507e-08
5.76585e-07
1.72361e-08
2.95007e-07
1.90956e-08
7.1671e-08
8.77979e-07
3.8073e-06
3.05207e-08
2.86509e-07
1.94919e-08
7.63563e-08
1.01498e-06
5.77815e-06
1.4919e-05
6.04407e-08
2.86311e-07
1.95846e-08
7.81901e-08
1.0759e-06
6.62075e-06
2.24115e-05
4.16166e-05
1.13282e-07
2.87926e-07
1.95087e-08
7.84336e-08
1.09304e-06
6.9616e-06
2.54288e-05
6.16025e-05
9.11901e-05
1.90043e-07
2.88764e-07
1.93135e-08
7.78472e-08
1.08847e-06
7.01764e-06
2.65374e-05
6.9147e-05
0.000132723
0.000167035
2.9023e-07
2.88695e-07
1.90533e-08
7.6693e-08
1.07346e-06
6.94771e-06
2.65901e-05
7.16482e-05
0.000147361
0.000239435
0.000267513
4.04834e-07
2.8814e-07
1.88201e-08
7.53766e-08
1.05233e-06
6.82014e-06
2.62205e-05
7.14675e-05
0.000151694
0.000263303
0.000379581
0.000383353
5.22268e-07
2.87445e-07
1.86322e-08
7.42211e-08
1.03116e-06
6.66664e-06
2.56656e-05
7.03117e-05
0.000150829
0.000269543
0.000414483
0.000547895
0.000498585
6.3597e-07
2.86796e-07
1.84333e-08
7.33188e-08
1.01276e-06
6.52244e-06
2.50541e-05
6.87368e-05
0.00014823
0.000267439
0.000422524
0.000595812
0.000721898
0.000622303
7.32987e-07
2.86261e-07
1.81563e-08
7.22826e-08
9.98376e-07
6.39809e-06
2.45027e-05
6.71025e-05
0.000144904
0.000262754
0.000418688
0.000604654
0.000786681
0.000912923
0.000753196
8.21536e-07
2.85851e-07
1.7949e-08
7.09233e-08
9.82363e-07
6.29983e-06
2.40279e-05
6.56663e-05
0.000141599
0.000257027
0.000411413
0.000598705
0.000798473
0.00100068
0.00112167
0.000888621
8.92382e-07
2.85545e-07
1.77481e-08
6.99724e-08
9.62517e-07
6.19423e-06
2.36505e-05
6.4435e-05
0.000138758
0.00025153
0.000402824
0.000588577
0.000790806
0.0010171
0.0012396
0.00134697
0.00102836
9.46136e-07
2.85323e-07
1.7563e-08
6.90176e-08
9.48812e-07
6.06893e-06
2.32536e-05
6.3445e-05
0.000136326
0.000246891
0.000394813
0.000577292
0.000777668
0.00100807
0.00126301
0.00150301
0.00158672
0.00117603
9.99994e-07
2.85167e-07
1.74083e-08
6.81574e-08
9.35145e-07
5.98173e-06
2.27981e-05
6.24213e-05
0.000134352
0.000242932
0.000388159
0.000567075
0.000763194
0.000991839
0.00125327
0.00153692
0.00178829
0.00183644
0.00130864
1.01677e-06
2.85057e-07
1.72326e-08
6.74522e-08
9.22961e-07
5.89587e-06
2.24788e-05
6.12795e-05
0.000132333
0.000239685
0.0003825
0.000558562
0.00075023
0.00097398
0.00123408
0.00152745
0.00183753
0.00209252
0.00209228
0.00142214
9.76616e-07
2.84985e-07
1.70724e-08
6.662e-08
9.13156e-07
5.82002e-06
2.21679e-05
6.04736e-05
0.000130141
0.000236401
0.00037783
0.000551155
0.000739971
0.000958065
0.00121278
0.00150583
0.00183008
0.00216456
0.00241257
0.00234536
0.00151813
8.78418e-07
2.84944e-07
1.69348e-08
6.58874e-08
9.01713e-07
5.75957e-06
2.18945e-05
5.9694e-05
0.000128585
0.00023292
0.000373135
0.000545006
0.000731385
0.000945579
0.0011938
0.00148128
0.00180706
0.00216175
0.00251627
0.00274533
0.00258609
0.00159621
7.48959e-07
2.84932e-07
1.68054e-08
6.52945e-08
8.91808e-07
5.69031e-06
2.16783e-05
5.90141e-05
0.00012709
0.000230438
0.000368288
0.000538871
0.000724318
0.000935274
0.00117892
0.00145913
0.0017796
0.00213903
0.00252203
0.00288949
0.00308588
0.00280632
0.00165989
6.08115e-07
2.84954e-07
1.66807e-08
6.47159e-08
8.83942e-07
5.63092e-06
2.14341e-05
5.8476e-05
0.00012579
0.000228071
0.000364822
0.000532682
0.000717222
0.000926784
0.00116672
0.00144178
0.00175463
0.00210922
0.00250216
0.00291008
0.00327974
0.00342537
0.00299808
0.00171879
4.8963e-07
2.85014e-07
1.65882e-08
6.41571e-08
8.7621e-07
5.58401e-06
2.12265e-05
5.78773e-05
0.000124764
0.000226025
0.000361545
0.000528262
0.000710386
0.00091826
0.00115668
0.00142763
0.00173483
0.0020818
0.00247113
0.00289615
0.00332416
0.00368192
0.00375275
0.00315287
0.00178125
3.99082e-07
2.85116e-07
1.64902e-08
6.37462e-08
8.68861e-07
5.53803e-06
2.10632e-05
5.73714e-05
0.000123634
0.000224409
0.000358727
0.000524118
0.000705602
0.000910273
0.00114666
0.0014161
0.00171897
0.00205984
0.00244178
0.00286559
0.00331971
0.00376077
0.00408992
0.00405706
0.00326093
0.00180574
3.44118e-07
2.85305e-07
1.63662e-08
6.32957e-08
8.6349e-07
5.49445e-06
2.09028e-05
5.69757e-05
0.000122687
0.000222643
0.0003565
0.00052058
0.000701151
0.000904631
0.00113731
0.00140449
0.00170593
0.0020423
0.00241806
0.00283548
0.00329238
0.003771
0.00421478
0.00449517
0.00432662
0.00331324
0.00165731
3.10093e-07
2.85661e-07
1.62396e-08
6.2715e-08
8.5763e-07
5.46342e-06
2.07529e-05
5.65864e-05
0.000121948
0.00022118
0.000354086
0.000517788
0.000697407
0.000899462
0.00113076
0.00139371
0.00169282
0.00202769
0.00239901
0.00281044
0.00326338
0.00375079
0.00424696
0.00467962
0.00488724
0.00454911
0.00330395
0.0014453
2.91744e-07
2.86508e-07
1.61328e-08
6.2159e-08
8.50025e-07
5.4295e-06
2.06466e-05
5.62251e-05
0.000121224
0.000220043
0.000352109
0.000514776
0.000694466
0.000895175
0.00112492
0.00138636
0.00168079
0.00201327
0.00238313
0.00279039
0.00323802
0.00372512
0.004239
0.00474361
0.00514755
0.00525397
0.00471298
0.00323526
0.00118114
2.82964e-07
2.8875e-07
1.60639e-08
6.17136e-08
8.42939e-07
5.38564e-06
2.05324e-05
5.5973e-05
0.000120553
0.00021893
0.000350589
0.000512347
0.000691282
0.0008919
0.00112001
0.00137978
0.0016726
0.00200009
0.0023675
0.00277375
0.0032175
0.00370083
0.0042196
0.00475341
0.00525536
0.00560879
0.00558185
0.00480805
0.00312425
0.000886603
2.79839e-07
2.86022e-07
1.60089e-08
6.14619e-08
8.3749e-07
5.3453e-06
2.03835e-05
5.57013e-05
0.000120091
0.000217906
0.000349097
0.000510504
0.000688817
0.000888306
0.00111631
0.00137435
0.0016653
0.00199121
0.00235324
0.00275728
0.00320057
0.00368106
0.00419845
0.00474317
0.00528736
0.00577463
0.00605149
0.00585599
0.00482793
0.00300366
0.000594575
2.7588e-07
2.79338e-07
1.59513e-08
6.12536e-08
8.34709e-07
5.31525e-06
2.02492e-05
5.53513e-05
0.000119597
0.000217208
0.000347736
0.000508698
0.000687042
0.000885516
0.00111229
0.00137016
0.00165942
0.00198329
0.00234392
0.00274213
0.003184
0.00366471
0.00418086
0.00472744
0.00528736
0.00582845
0.00629181
0.00646205
0.00606091
0.0047711
0.00291799
0.000344073
2.69663e-07
2.75175e-07
1.58807e-08
6.10135e-08
8.32435e-07
5.30117e-06
2.0152e-05
5.50378e-05
0.000118959
0.000216464
0.000346823
0.000507057
0.000685312
0.000883611
0.00110923
0.00136569
0.001655
0.00197694
0.00233564
0.00273245
0.00316831
0.0036484
0.00416581
0.0047138
0.005279
0.00584678
0.00638383
0.00679523
0.00682472
0.0061815
0.00464002
0.00285288
0.000167601
2.64863e-07
2.74476e-07
1.57998e-08
6.06894e-08
8.29676e-07
5.28988e-06
2.01101e-05
5.48187e-05
0.000118401
0.000215512
0.000345852
0.00050598
0.000683711
0.000881712
0.0011072
0.00136244
0.0016502
0.0019724
0.00232898
0.00272412
0.00315845
0.00363275
0.00415049
0.00470138
0.00527133
0.00585031
0.00642763
0.00694655
0.00727128
0.00712249
0.00620448
0.00443665
0.00244298
6.97293e-05
2.62898e-07
2.75489e-07
1.57117e-08
6.03208e-08
8.2572e-07
5.27576e-06
2.00776e-05
5.4732e-05
0.000118022
0.00021469
0.000344613
0.000504841
0.000682746
0.000879987
0.00110517
0.00136038
0.00164675
0.00196749
0.0023244
0.00271748
0.00315021
0.00362322
0.00413572
0.00468788
0.00526289
0.00585138
0.00644809
0.0070245
0.00750751
0.00770398
0.00733686
0.00612365
0.0041742
0.00193156
2.64155e-05
2.62968e-07
2.77101e-07
1.56233e-08
5.99098e-08
8.21093e-07
5.25452e-06
2.00354e-05
5.46679e-05
0.000117887
0.000214158
0.000343569
0.000503382
0.000681724
0.000879034
0.00110337
0.0013583
0.00164469
0.00196394
0.00231947
0.002713
0.003144
0.0036155
0.00412731
0.00467444
0.00525148
0.00584944
0.00646163
0.00706825
0.00763022
0.00805531
0.00807489
0.00745036
0.00594411
0.00389835
0.00138548
9.59044e-06
2.64123e-07
2.80354e-07
1.55396e-08
5.95143e-08
8.15973e-07
5.22913e-06
1.99685e-05
5.45794e-05
0.000117793
0.000213992
0.000342928
0.000502188
0.000680356
0.000877987
0.0011024
0.00135652
0.00164269
0.00196192
0.00231605
0.00270804
0.00313997
0.00360987
0.00412071
0.00466795
0.00523892
0.0058428
0.00646908
0.00709904
0.00770514
0.00823538
0.00855305
0.0083642
0.0074482
0.00567646
0.00367413
0.00087472
3.47477e-06
2.66734e-07
2.8482e-07
1.54585e-08
5.91433e-08
8.11014e-07
5.20047e-06
1.98866e-05
5.4433e-05
0.000117654
0.00021389
0.000342773
0.000501513
0.000679285
0.000876476
0.00110131
0.00135559
0.00164104
0.00196015
0.00231437
0.00270499
0.00313521
0.00360655
0.00411578
0.00466292
0.00523524
0.00583376
0.00646946
0.00711956
0.00775915
0.00835109
0.00882815
0.00898294
0.00855082
0.00731927
0.00534066
0.00344304
0.000473961
1.33262e-06
2.70588e-07
2.88747e-07
1.53948e-08
5.8806e-08
8.06445e-07
5.1732e-06
1.97933e-05
5.42481e-05
0.000117404
0.000213712
0.0003427
0.000501427
0.000678789
0.000875436
0.00109977
0.00135455
0.00164031
0.00195864
0.00231284
0.0027039
0.00313268
0.00360261
0.00411352
0.00465952
0.00523155
0.00583383
0.00646569
0.00712984
0.00779736
0.00843571
0.00899616
0.00939279
0.00932736
0.008614
0.00706386
0.00495921
0.00275903
0.000224569
6.06617e-07
2.74389e-07
2.87725e-07
1.53467e-08
5.85504e-08
8.0241e-07
5.14855e-06
1.97053e-05
5.40361e-05
0.000117085
0.000213368
0.00034252
0.000501436
0.000678996
0.000875093
0.0010988
0.0013532
0.00163946
0.00195823
0.00231152
0.00270281
0.0031322
0.00360091
0.00411096
0.00465864
0.00523069
0.00583329
0.00647103
0.00713368
0.00782125
0.00849743
0.00912037
0.00962794
0.00987394
0.00956629
0.00853627
0.0066973
0.00457499
0.00201126
9.80713e-05
3.70585e-07
2.7472e-07
2.88015e-07
1.53065e-08
5.83622e-08
7.99335e-07
5.12647e-06
1.96268e-05
5.38386e-05
0.000116716
0.000212916
0.000342113
0.000501304
0.000679284
0.000875581
0.00109865
0.0013523
0.00163825
0.00195779
0.00231171
0.00270209
0.00313191
0.00360128
0.00411053
0.00465739
0.00523183
0.00583547
0.0064749
0.00714622
0.00783567
0.00853954
0.00921274
0.00980246
0.0102311
0.010259
0.00967635
0.00830843
0.00624803
0.00423682
0.00128978
4.13937e-05
2.96163e-07
2.74893e-07
2.82175e-07
1.52881e-08
5.82298e-08
7.97342e-07
5.11032e-06
1.95577e-05
5.36662e-05
0.000116377
0.000212389
0.000341559
0.000500886
0.000679303
0.000876098
0.00109934
0.00135234
0.00163746
0.00195663
0.00231176
0.00270286
0.00313211
0.00360197
0.00411203
0.00465834
0.00523102
0.00583947
0.00648124
0.00715613
0.00785786
0.00856831
0.00927888
0.0099341
0.0104685
0.0107622
0.01053
0.0096349
0.00793485
0.00575566
0.00371843
0.00070961
1.70916e-05
2.73905e-07
2.70764e-07
2.76563e-07
1.52782e-08
5.81915e-08
7.96055e-07
5.10041e-06
1.95072e-05
5.35128e-05
0.000116088
0.000211915
0.000340913
0.000500285
0.000678993
0.000876322
0.0011002
0.00135343
0.00163784
0.00195607
0.00231085
0.00270343
0.00313367
0.00360303
0.0041139
0.00466127
0.00523342
0.00584105
0.00648904
0.00716804
0.00787586
0.00860323
0.00932673
0.0100313
0.0106497
0.0111018
0.011179
0.0106643
0.0094252
0.00743867
0.00527679
0.00281764
0.000340792
6.8266e-06
2.64624e-07
2.65666e-07
2.74057e-07
1.52696e-08
5.8184e-08
7.96169e-07
5.09556e-06
1.94795e-05
5.34065e-05
0.000115834
0.000211526
0.000340348
0.000499575
0.000678527
0.000876117
0.00110076
0.00135466
0.00163961
0.00195694
0.00231071
0.00270307
0.00313515
0.00360585
0.00411621
0.00466468
0.00523794
0.00584593
0.00649386
0.00718086
0.00789512
0.00863197
0.00937829
0.0101042
0.0107866
0.0113446
0.0116567
0.0114671
0.0106371
0.00904388
0.00686438
0.00485018
0.0018987
0.000151552
2.67044e-06
2.58381e-07
2.62669e-07
2.73808e-07
1.52566e-08
5.81697e-08
7.96546e-07
5.09831e-06
1.94698e-05
5.33538e-05
0.000115661
0.000211184
0.000339906
0.000498985
0.000677976
0.000875701
0.00110072
0.0013555
0.00164118
0.00195926
0.00231208
0.00270353
0.00313563
0.00360867
0.00412039
0.00466854
0.00524229
0.00585291
0.00650197
0.00718998
0.00791451
0.00866085
0.00942106
0.0101772
0.0108916
0.0115313
0.0120006
0.0120844
0.0116063
0.0104282
0.00851055
0.00627067
0.00422401
0.00110019
6.53039e-05
1.09493e-06
2.54409e-07
2.61887e-07
2.73789e-07
1.52362e-08
5.81279e-08
7.96835e-07
5.10321e-06
1.94878e-05
5.33496e-05
0.000115595
0.000210969
0.000339524
0.000498558
0.000677579
0.000875206
0.00110038
0.00135566
0.00164237
0.00196146
0.00231493
0.00270541
0.00313671
0.00361038
0.00412466
0.00467413
0.00524716
0.0058596
0.00651209
0.00720226
0.0079293
0.00868878
0.00946239
0.0102381
0.010992
0.0116773
0.012249
0.0125597
0.012372
0.0115729
0.010029
0.00787103
0.00573837
0.00316306
0.000553275
2.76657e-05
5.3111e-07
2.52715e-07
2.61808e-07
2.73777e-07
1.52038e-08
5.80358e-08
7.96664e-07
5.10736e-06
1.95117e-05
5.34073e-05
0.000115618
0.000210916
0.000339314
0.000498206
0.000677332
0.000874856
0.00109991
0.00135549
0.00164292
0.00196327
0.00231815
0.00270906
0.00313929
0.00361211
0.00412743
0.00467938
0.00525388
0.00586675
0.00652176
0.00721639
0.00794694
0.00871098
0.00950137
0.0102954
0.0110761
0.011812
0.0124461
0.0129193
0.0129811
0.0124975
0.0113435
0.00945649
0.00719595
0.00524965
0.00209547
0.000253001
1.12527e-05
3.37301e-07
2.52123e-07
2.61852e-07
2.73762e-07
1.51615e-08
5.78984e-08
7.95832e-07
5.10878e-06
1.95335e-05
5.3483e-05
0.000115757
0.000211005
0.000339322
0.00049806
0.000677189
0.000874751
0.0010997
0.00135515
0.00164288
0.00196423
0.00232081
0.00271345
0.003144
0.00361581
0.00413036
0.00468295
0.00525914
0.00587581
0.00653178
0.00722979
0.00796614
0.00873547
0.00953309
0.0103485
0.0111536
0.0119255
0.0126237
0.0131796
0.013468
0.0132482
0.0124358
0.0109089
0.00875419
0.00656056
0.00422807
0.00119017
0.000109907
4.38005e-06
2.73371e-07
2.52002e-07
2.61932e-07
2.73749e-07
1.51111e-08
5.77006e-08
7.94221e-07
5.10542e-06
1.95457e-05
5.35504e-05
0.000115925
0.000211269
0.000339522
0.000498185
0.000677282
0.000874807
0.00109977
0.00135514
0.00164274
0.00196455
0.00232217
0.00271688
0.00314956
0.00362185
0.00413544
0.0046878
0.00526353
0.00588305
0.00654372
0.00724341
0.00798427
0.0087611
0.00956634
0.0103924
0.0112246
0.0120285
0.0127739
0.0134099
0.0138552
0.0138639
0.0133394
0.0121621
0.0102789
0.007987
0.00597231
0.00300194
0.000587863
4.65659e-05
1.71336e-06
2.53312e-07
2.52114e-07
2.62058e-07
2.73787e-07
1.50454e-08
5.74455e-08
7.91749e-07
5.09743e-06
1.95396e-05
5.35967e-05
0.000116081
0.000211573
0.000339957
0.000498555
0.000677672
0.000875136
0.00109999
0.00135543
0.00164298
0.00196468
0.0023229
0.00271907
0.00315398
0.00362864
0.00414317
0.00469461
0.00527005
0.00588926
0.00655343
0.00725891
0.00800239
0.00878517
0.00960006
0.0104368
0.0112841
0.012122
0.0129088
0.0136055
0.0141496
0.0143786
0.0140906
0.0132248
0.0116621
0.00949159
0.00725036
0.00508196
0.00184893
0.000269416
1.89507e-05
7.37786e-07
2.47264e-07
2.52308e-07
2.62361e-07
2.74512e-07
1.49714e-08
5.71416e-08
7.88514e-07
5.0841e-06
1.95163e-05
5.35926e-05
0.00011619
0.000211853
0.000340431
0.000499197
0.000678285
0.000875747
0.00110053
0.00135596
0.00164362
0.00196527
0.00232351
0.00272019
0.00315706
0.00363432
0.00415119
0.00470395
0.00527943
0.00589777
0.00656188
0.00727169
0.0080223
0.00880891
0.0096316
0.0104807
0.0113425
0.012201
0.0130302
0.0137797
0.0144007
0.0147918
0.0147313
0.0141207
0.0128755
0.0109425
0.00863061
0.00658934
0.00373077
0.000971617
0.000118271
7.29549e-06
3.99537e-07
2.45554e-07
2.52654e-07
2.64352e-07
2.81683e-07
1.48971e-08
5.67963e-08
7.84555e-07
5.06597e-06
1.94741e-05
5.35461e-05
0.000116205
0.000212066
0.000340877
0.00049989
0.000679226
0.000876696
0.00110152
0.00135687
0.00164449
0.00196637
0.00232451
0.00272127
0.00315891
0.00363825
0.00415797
0.00471265
0.00529032
0.00590947
0.00657281
0.00728293
0.00803891
0.00883427
0.00966237
0.0105215
0.0113991
0.0122771
0.0131338
0.0139358
0.0146231
0.0151355
0.0152623
0.0148941
0.0139203
0.0122762
0.010059
0.00782221
0.00570098
0.00240111
0.000457504
4.97154e-05
2.72531e-06
2.88524e-07
2.45299e-07
2.54294e-07
2.68008e-07
2.85408e-07
1.48254e-08
5.64454e-08
7.79975e-07
5.04345e-06
1.94148e-05
5.34529e-05
0.000116134
0.000212117
0.000341214
0.000500524
0.000680147
0.00087794
0.00110285
0.00135829
0.00164583
0.00196759
0.00232616
0.00272295
0.00316045
0.00364107
0.00416295
0.00471983
0.00530077
0.00592273
0.00658722
0.00729679
0.0080536
0.00885564
0.00969443
0.0105611
0.0114516
0.0123496
0.013232
0.0140698
0.0148214
0.0154161
0.0157174
0.0155462
0.014836
0.0134632
0.0114501
0.00912212
0.00709898
0.00422667
0.00131746
0.000205082
1.97636e-05
1.06113e-06
2.54066e-07
2.46396e-07
2.57623e-07
2.65374e-07
2.84423e-07
1.47521e-08
5.61158e-08
7.7539e-07
5.01713e-06
1.93399e-05
5.33175e-05
0.000115976
0.000212032
0.000341329
0.000501023
0.000681029
0.00087914
0.00110449
0.00135999
0.00164765
0.00196935
0.00232781
0.00272508
0.0031629
0.00364344
0.00416657
0.00472536
0.00530962
0.00593546
0.00660333
0.00731443
0.00807103
0.00887463
0.0097217
0.0106014
0.0115019
0.0124166
0.0133241
0.0141953
0.0149928
0.0156658
0.0161052
0.0161135
0.0156176
0.0145254
0.012745
0.0104759
0.00826372
0.00610523
0.0027596
0.000634687
8.7314e-05
7.41548e-06
4.93125e-07
2.44655e-07
2.49085e-07
2.56532e-07
2.64123e-07
2.84334e-07
1.46923e-08
5.58036e-08
7.71128e-07
4.99048e-06
1.92511e-05
5.31434e-05
0.000115738
0.000211812
0.000341252
0.000501223
0.000681678
0.0008803
0.00110616
0.00136214
0.00164995
0.00197176
0.00233029
0.00272738
0.00316591
0.00364656
0.00416999
0.00472984
0.00531659
0.00594631
0.00661872
0.00733391
0.00809255
0.00889641
0.00974605
0.010636
0.0115524
0.0124803
0.013409
0.0143117
0.015152
0.0158828
0.0164422
0.0166069
0.0163037
0.0154441
0.0139387
0.0118065
0.00947454
0.00748249
0.00450438
0.00153639
0.000286708
3.48436e-05
2.69996e-06
3.12097e-07
2.43864e-07
2.49027e-07
2.55565e-07
2.63963e-07
2.84297e-07
1.4639e-08
5.55336e-08
7.66996e-07
4.96552e-06
1.91603e-05
5.29357e-05
0.000115427
0.000211469
0.000340989
0.000501176
0.000681991
0.00088119
0.0011076
0.00136434
0.00165276
0.00197469
0.00233354
0.00273065
0.00316898
0.00365062
0.00417384
0.0047342
0.00532233
0.005955
0.00663195
0.00735249
0.008116
0.00892254
0.00977314
0.010667
0.0115961
0.0125432
0.0134892
0.0144188
0.0152983
0.0160828
0.0167146
0.0170352
0.0169065
0.0162584
0.0149936
0.0130857
0.010743
0.00858415
0.00626417
0.00292256
0.000742179
0.000123076
1.30555e-05
1.0251e-06
2.59265e-07
2.43529e-07
2.48366e-07
2.55451e-07
2.63983e-07
2.84268e-07
1.45936e-08
5.5306e-08
7.63432e-07
4.94176e-06
1.90774e-05
5.27219e-05
0.000115052
0.000211011
0.000340561
0.0005009
0.000682059
0.000881664
0.00110878
0.00136624
0.00165545
0.00197827
0.00233707
0.00273496
0.00317301
0.00365473
0.00417884
0.00473924
0.00532793
0.00596223
0.00664271
0.00736853
0.00813836
0.0089507
0.00980477
0.0107005
0.0116353
0.0125982
0.0135675
0.0145192
0.0154325
0.0162655
0.0169641
0.0174138
0.0174331
0.016979
0.015942
0.0142528
0.0120301
0.00970308
0.00774712
0.00452796
0.00161288
0.00033453
4.91561e-05
4.65724e-06
4.71696e-07
2.44669e-07
2.42878e-07
2.4818e-07
2.55716e-07
2.64322e-07
2.84244e-07
1.45561e-08
5.51188e-08
7.60514e-07
4.921e-06
1.8996e-05
5.25251e-05
0.000114667
0.000210455
0.000339972
0.000500412
0.000681829
0.000881815
0.00110944
0.00136787
0.00165797
0.00198172
0.00234126
0.00273935
0.00317817
0.00365946
0.00418412
0.00474518
0.00533421
0.00596931
0.00665175
0.00738177
0.00815776
0.00897756
0.00983855
0.0107388
0.0116769
0.0126476
0.0136362
0.0146162
0.0155577
0.0164327
0.0171905
0.0177521
0.0179107
0.0176129
0.016788
0.0153247
0.013254
0.0108988
0.00879832
0.00619402
0.00285358
0.000770089
0.000142621
1.82589e-05
1.65512e-06
3.01956e-07
2.40349e-07
2.42552e-07
2.48475e-07
2.57306e-07
2.67802e-07
2.84225e-07
1.45266e-08
5.49658e-08
7.58116e-07
4.90358e-06
1.8924e-05
5.23339e-05
0.000114315
0.000209886
0.000339253
0.000499736
0.000681383
0.000881645
0.00110968
0.0013687
0.00166003
0.00198475
0.00234553
0.0027443
0.00318388
0.00366557
0.00418995
0.00475124
0.00534152
0.00597708
0.0066606
0.00739301
0.008174
0.009001
0.00987074
0.0107792
0.011723
0.0126989
0.0136982
0.0147019
0.0156774
0.0165882
0.0173977
0.0180449
0.0183378
0.0181904
0.0175389
0.0162952
0.0144114
0.0120886
0.0098623
0.00782337
0.0043271
0.00152632
0.000341911
5.63666e-05
6.39312e-06
6.5826e-07
2.53235e-07
2.38951e-07
2.42675e-07
2.49876e-07
2.56575e-07
2.75859e-07
2.84212e-07
1.4504e-08
5.48589e-08
7.56249e-07
4.89002e-06
1.88663e-05
5.21641e-05
0.000113968
0.000209368
0.000338523
0.000498894
0.000680734
0.000881203
0.00110963
0.00136909
0.00166121
0.00198714
0.00234932
0.00274941
0.00319017
0.00367257
0.00419726
0.00475864
0.00534893
0.00598595
0.00667011
0.00740394
0.00818788
0.00902082
0.00989899
0.0108178
0.0117714
0.0127545
0.0137614
0.0147794
0.0157838
0.0167354
0.0175898
0.0183002
0.0187193
0.0187091
0.0182233
0.0171678
0.0154857
0.0132635
0.010908
0.00891971
0.0058986
0.00260503
0.000710159
0.000143027
2.05974e-05
2.18594e-06
3.5142e-07
2.40029e-07
2.38585e-07
2.43759e-07
2.49988e-07
2.61178e-07
2.72562e-07
2.84202e-07
1.44892e-08
5.47711e-08
7.54846e-07
4.87942e-06
1.88201e-05
5.2025e-05
0.000113658
0.000208853
0.000337867
0.000498042
0.000679916
0.000880506
0.00110916
0.00136923
0.00166185
0.00198892
0.00235248
0.00275423
0.00319636
0.00368012
0.0042054
0.00476703
0.00535786
0.00599491
0.00668082
0.00741557
0.00820135
0.00903789
0.00992313
0.0108518
0.0118175
0.0128123
0.0138285
0.0148572
0.0158804
0.0168671
0.0177702
0.0185362
0.0190628
0.0191783
0.0188398
0.0179668
0.0164694
0.0143932
0.012017
0.00987491
0.00745791
0.00392606
0.00132859
0.00030822
5.5076e-05
7.05808e-06
8.06627e-07
2.63875e-07
2.36635e-07
2.39236e-07
2.44209e-07
2.53918e-07
2.58831e-07
2.72021e-07
2.84196e-07
1.44819e-08
5.47331e-08
7.5388e-07
4.87184e-06
1.8785e-05
5.19193e-05
0.000113411
0.000208395
0.000337203
0.000497288
0.000679067
0.000879621
0.00110843
0.00136868
0.00166199
0.00198986
0.00235466
0.00275832
0.00320205
0.00368772
0.00421403
0.00477624
0.00536785
0.00600562
0.00669162
0.00742844
0.00821545
0.00905442
0.00994408
0.0108811
0.0118584
0.0128674
0.0138976
0.014938
0.0159761
0.0169869
0.0179324
0.0187563
0.0193778
0.0196074
0.0194003
0.0186888
0.0173813
0.0154515
0.0131187
0.0108627
0.00887693
0.0053753
0.00222314
0.000598612
0.000124903
1.95154e-05
2.34952e-06
3.88214e-07
2.40654e-07
2.36345e-07
2.39612e-07
2.4738e-07
2.53258e-07
2.58589e-07
2.71843e-07
2.84193e-07
1.44825e-08
5.47262e-08
7.53584e-07
4.86642e-06
1.87596e-05
5.18399e-05
0.000113223
0.000208034
0.00033662
0.00049653
0.000678364
0.000878785
0.00110747
0.00136791
0.00166166
0.00199001
0.00235597
0.002761
0.00320699
0.00369453
0.004223
0.00478589
0.00537879
0.00601746
0.00670432
0.00744133
0.00823086
0.00907147
0.00996427
0.0109068
0.011894
0.0129166
0.0139634
0.0150205
0.0160733
0.0171046
0.0180806
0.0189553
0.0196631
0.0200005
0.0199162
0.0193477
0.0182125
0.0164549
0.0141871
0.0118297
0.00981652
0.00682152
0.00335996
0.00106946
0.000252933
4.62095e-05
6.47885e-06
8.38664e-07
2.70952e-07
2.35394e-07
2.3642e-07
2.42171e-07
2.47799e-07
2.54064e-07
2.6167e-07
2.71731e-07
2.84191e-07
1.448e-08
5.47442e-08
7.53637e-07
4.86508e-06
1.87434e-05
5.17829e-05
0.000113084
0.000207764
0.000336169
0.000495856
0.000677671
0.00087805
0.00110655
0.00136693
0.00166089
0.00198996
0.00235649
0.00276288
0.00321055
0.00370064
0.00423108
0.00479539
0.00539012
0.00603037
0.00671832
0.00745638
0.00824624
0.00908988
0.00998485
0.0109314
0.0119253
0.0129598
0.0140225
0.0150991
0.0161719
0.0172211
0.018225
0.0191375
0.0199058
0.020357
0.0203894
0.0199561
0.018975
0.0173841
0.0152361
0.0128325
0.0107027
0.0082405
0.00460846
0.00176797
0.00046627
9.82257e-05
1.57283e-05
2.09866e-06
3.91384e-07
2.40999e-07
2.34344e-07
2.38409e-07
2.42961e-07
2.4889e-07
2.5375e-07
2.65005e-07
2.71657e-07
2.8419e-07
1.44867e-08
5.47677e-08
7.54036e-07
4.8662e-06
1.87418e-05
5.17477e-05
0.000112989
0.000207568
0.000335843
0.000495356
0.000677083
0.000877287
0.00110583
0.00136584
0.00165991
0.00198929
0.00235656
0.002764
0.00321297
0.00370526
0.00423817
0.00480372
0.00540131
0.00604364
0.00673347
0.00747283
0.00826399
0.00910817
0.0100068
0.0109562
0.0119553
0.012998
0.0140748
0.01517
0.0162657
0.017339
0.0183639
0.0193126
0.0201287
0.0206818
0.0208195
0.0205153
0.0196811
0.0182448
0.0162265
0.0138538
0.0116011
0.00960029
0.00594177
0.00264931
0.000800048
0.000189802
3.46498e-05
5.03642e-06
7.44827e-07
2.69643e-07
2.3407e-07
2.35736e-07
2.39159e-07
2.44138e-07
2.4925e-07
2.55648e-07
2.63326e-07
2.71613e-07
2.84189e-07
1.44937e-08
5.48123e-08
7.54528e-07
4.86895e-06
1.87466e-05
5.17473e-05
0.000112934
0.000207447
0.000335617
0.000495013
0.000676681
0.000876698
0.00110508
0.00136516
0.00165893
0.00198827
0.00235597
0.00276421
0.00321465
0.00370808
0.00424345
0.00481094
0.00541115
0.00605675
0.00674897
0.00749057
0.00828326
0.00912903
0.0100285
0.0109824
0.0119852
0.0130344
0.0141213
0.0152334
0.0163508
0.0174509
0.0185051
0.0194815
0.020341
0.020986
0.021219
0.0210252
0.0203332
0.0190475
0.0171579
0.014836
0.0125032
0.0104695
0.00727368
0.00370022
0.00128419
0.000335517
6.98789e-05
1.12714e-05
1.60246e-06
3.59962e-07
2.39341e-07
2.33955e-07
2.36498e-07
2.40247e-07
2.44742e-07
2.51086e-07
2.54773e-07
2.62853e-07
2.71589e-07
2.84189e-07
1.44927e-08
5.48581e-08
7.55232e-07
4.87259e-06
1.87576e-05
5.1765e-05
0.000112946
0.000207381
0.000335478
0.000494781
0.00067645
0.000876378
0.00110444
0.00136456
0.00165817
0.0019875
0.00235496
0.00276373
0.00321514
0.00371
0.00424687
0.00481611
0.00541972
0.00606835
0.00676432
0.00750865
0.00830395
0.00915157
0.010053
0.0110081
0.0120164
0.0130704
0.0141655
0.01529
0.0164273
0.017553
0.0186385
0.0196491
0.0205451
0.0212705
0.0215971
0.0214994
0.0209298
0.0197946
0.0180407
0.0157859
0.0133899
0.011296
0.00856515
0.00484016
0.00193131
0.00055355
0.000129082
2.33444e-05
3.48092e-06
5.89472e-07
2.596e-07
2.33591e-07
2.34564e-07
2.3745e-07
2.40771e-07
2.4662e-07
2.52569e-07
2.57689e-07
2.62591e-07
2.71577e-07
2.84189e-07
1.4507e-08
5.48817e-08
7.55931e-07
4.87722e-06
1.87721e-05
5.17951e-05
0.000112986
0.000207418
0.00033543
0.000494677
0.000676352
0.000876212
0.00110414
0.00136387
0.00165752
0.00198674
0.00235421
0.00276281
0.00321488
0.00371095
0.00424936
0.00482025
0.00542592
0.00607845
0.00677793
0.0075265
0.00832497
0.00917568
0.0100793
0.0110368
0.0120469
0.0131077
0.0142088
0.0153436
0.0164961
0.0176454
0.0187608
0.0198077
0.0207442
0.0215212
0.0219503
0.0219495
0.021486
0.0204829
0.0188726
0.0167106
0.0142939
0.0121017
0.00982163
0.00603882
0.0027197
0.000860834
0.000221093
4.45901e-05
7.23043e-06
1.10772e-06
3.15147e-07
2.36628e-07
2.33106e-07
2.35395e-07
2.37865e-07
2.42591e-07
2.48461e-07
2.52403e-07
2.57539e-07
2.62435e-07
2.71571e-07
2.84189e-07
1.45039e-08
5.49552e-08
7.56339e-07
4.88172e-06
1.87896e-05
5.18353e-05
0.000113051
0.000207497
0.000335515
0.000494672
0.000676368
0.000876172
0.00110408
0.00136352
0.00165703
0.00198597
0.00235366
0.00276198
0.00321411
0.00371108
0.00425092
0.00482316
0.00543097
0.00608589
0.00678981
0.00754245
0.00834573
0.00920004
0.0101073
0.0110675
0.0120806
0.0131438
0.0142535
0.0153958
0.0165611
0.0177289
0.0188721
0.019954
0.0209327
0.0217576
0.0222751
0.0223701
0.0220124
0.0211267
0.0196455
0.0175939
0.015198
0.0129128
0.0108679
0.00725615
0.00363305
0.00128329
0.000352762
7.92631e-05
1.40383e-05
2.16861e-06
4.45343e-07
2.47942e-07
2.32391e-07
2.3369e-07
2.3574e-07
2.39309e-07
2.44497e-07
2.49214e-07
2.5191e-07
2.56548e-07
2.62355e-07
2.71568e-07
2.84189e-07
1.44992e-08
5.49219e-08
7.57568e-07
4.88496e-06
1.88063e-05
5.18801e-05
0.000113129
0.000207607
0.000335653
0.00049483
0.000676488
0.000876297
0.00110423
0.0013636
0.00165683
0.0019857
0.00235298
0.00276148
0.00321335
0.00371064
0.00425144
0.00482504
0.00543467
0.00609205
0.00679871
0.00755644
0.00836438
0.00922414
0.0101356
0.0111
0.0121163
0.0131833
0.0142962
0.0154493
0.016624
0.0178076
0.0189734
0.0200879
0.0211072
0.0219809
0.0225692
0.0227637
0.0225031
0.0217347
0.020374
0.0184232
0.0160686
0.0137129
0.0116408
0.00844027
0.00464077
0.00182705
0.000537584
0.000131507
2.5545e-05
4.14582e-06
7.18587e-07
2.76978e-07
2.3353e-07
2.3227e-07
2.33996e-07
2.36856e-07
2.41021e-07
2.45721e-07
2.49891e-07
2.53027e-07
2.56054e-07
2.62318e-07
2.71567e-07
2.84189e-07
1.44934e-08
5.4904e-08
7.56977e-07
4.89201e-06
1.88183e-05
5.19221e-05
0.000113222
0.000207751
0.000335825
0.000495042
0.000676791
0.00087655
0.00110443
0.00136393
0.00165702
0.00198573
0.00235259
0.00276088
0.00321285
0.00371011
0.00425142
0.0048259
0.00543717
0.00609664
0.00680618
0.00756706
0.00838081
0.0092459
0.0101635
0.0111327
0.0121539
0.0132248
0.0143425
0.0154997
0.0166883
0.0178834
0.0190686
0.0202105
0.021268
0.0221887
0.0228457
0.0231211
0.0229638
0.0223023
0.0210649
0.0192176
0.0169034
0.0144894
0.0123709
0.00958882
0.00568999
0.00248164
0.000787667
0.000207046
4.36547e-05
7.57837e-06
1.24017e-06
3.40318e-07
2.38574e-07
2.31348e-07
2.32575e-07
2.3499e-07
2.38283e-07
2.42334e-07
2.46829e-07
2.49771e-07
2.52778e-07
2.55788e-07
2.62303e-07
2.71567e-07
2.84189e-07
1.44865e-08
5.48803e-08
7.56724e-07
4.88869e-06
1.88456e-05
5.19546e-05
0.000113307
0.0002079
0.000336034
0.000495296
0.00067716
0.000876998
0.00110478
0.00136438
0.00165743
0.00198613
0.00235285
0.00276068
0.00321236
0.00370993
0.00425127
0.00482633
0.00543848
0.00609991
0.00681186
0.00757606
0.00839344
0.00926515
0.0101888
0.011165
0.0121917
0.0132684
0.0143909
0.0155542
0.0167476
0.017961
0.0191599
0.0203255
0.0214159
0.0223813
0.023111
0.0234549
0.0233868
0.022833
0.0217132
0.0199804
0.0177269
0.0152745
0.013084
0.0106955
0.00676989
0.00321904