/*--------------------------------*- C++ -*----------------------------------*\
| =========                 |                                                 |
| \\      /  F ield         | OpenFOAM: The Open Source CFD Toolbox           |
|  \\    /   O peration     | Version:  v2012                                 |
|   \\  /    A nd           | Website:  www.openfoam.com                      |
|    \\/     M anipulation  |                                                 |
\*---------------------------------------------------------------------------*/
FoamFile
{
    version     2.0;
    format      ascii;
    class       volScalarField;
    location    "3800";
    object      omega;
}
// * * * * * * * * * * * * * * * * * * * * * * * * * * * * * * * * * * * * * //

dimensions      [0 0 -1 0 0 0 0];


internalField   nonuniform List<scalar> 
29502
(
1.38951e+09
1.63046e+09
2.91417e+08
1.76009e+09
2.8073e+08
1.28757e+08
1.75876e+09
3.14348e+08
9.83132e+07
8.65845e+07
1.7622e+09
3.14783e+08
1.11397e+08
5.0048e+07
7.16826e+07
1.76173e+09
3.16327e+08
1.11852e+08
5.55761e+07
3.08539e+07
6.49061e+07
1.76234e+09
3.17034e+08
1.12843e+08
5.60182e+07
3.38585e+07
2.16572e+07
6.07319e+07
1.76765e+09
3.17911e+08
1.13483e+08
5.6755e+07
3.42877e+07
2.3521e+07
1.67298e+07
5.78904e+07
1.77116e+09
3.19441e+08
1.14172e+08
5.72693e+07
3.48895e+07
2.39e+07
1.78793e+07
1.38951e+07
5.5789e+07
1.77761e+09
3.20527e+08
1.15009e+08
5.77831e+07
3.53164e+07
2.4406e+07
1.81539e+07
1.44516e+07
1.21797e+07
5.40447e+07
1.78236e+09
3.21977e+08
1.15625e+08
5.83224e+07
3.57132e+07
2.47677e+07
1.85683e+07
1.45772e+07
1.21766e+07
1.10987e+07
5.24562e+07
1.78601e+09
3.22971e+08
1.16293e+08
5.87221e+07
3.60949e+07
2.50852e+07
1.88731e+07
1.48965e+07
1.213e+07
1.05577e+07
1.03882e+07
5.09379e+07
1.78692e+09
3.2375e+08
1.16727e+08
5.91086e+07
3.63735e+07
2.53733e+07
1.9133e+07
1.51477e+07
1.23544e+07
1.03386e+07
9.33866e+06
9.89615e+06
4.9451e+07
1.78858e+09
3.2402e+08
1.17074e+08
5.93494e+07
3.66229e+07
2.55792e+07
1.93615e+07
1.53625e+07
1.25555e+07
1.04727e+07
8.96059e+06
8.37572e+06
9.53012e+06
4.79866e+07
1.79282e+09
3.24386e+08
1.17228e+08
5.95406e+07
3.67693e+07
2.57524e+07
1.95218e+07
1.55498e+07
1.27333e+07
1.06275e+07
9.01136e+06
7.85864e+06
7.58667e+06
9.23012e+06
4.65439e+07
1.79442e+09
3.25145e+08
1.17396e+08
5.96351e+07
3.68846e+07
2.58475e+07
1.9651e+07
1.56803e+07
1.28896e+07
1.07735e+07
9.12321e+06
7.8349e+06
6.95312e+06
6.92242e+06
8.95692e+06
4.51283e+07
1.79624e+09
3.25439e+08
1.17676e+08
5.97272e+07
3.69421e+07
2.59204e+07
1.97173e+07
1.57825e+07
1.29986e+07
1.09049e+07
9.24144e+06
7.90715e+06
6.86453e+06
6.1946e+06
6.35137e+06
8.68216e+06
4.37406e+07
1.79758e+09
3.25756e+08
1.17789e+08
5.98579e+07
3.69937e+07
2.59553e+07
1.97666e+07
1.58326e+07
1.30826e+07
1.09971e+07
9.35148e+06
8.00038e+06
6.90077e+06
6.05209e+06
5.55102e+06
5.85316e+06
8.40625e+06
4.2385e+07
1.79792e+09
3.25972e+08
1.17901e+08
5.99099e+07
3.70582e+07
2.5984e+07
1.97886e+07
1.58687e+07
1.3123e+07
1.10678e+07
9.4299e+06
8.09138e+06
6.97133e+06
6.05558e+06
5.36535e+06
5.00024e+06
5.41077e+06
7.98361e+06
4.10648e+07
1.79945e+09
3.25998e+08
1.17972e+08
5.99574e+07
3.70799e+07
2.60145e+07
1.98048e+07
1.58837e+07
1.31514e+07
1.11016e+07
9.48999e+06
8.15763e+06
7.04484e+06
6.10538e+06
5.33936e+06
4.78114e+06
4.52604e+06
5.00453e+06
7.55173e+06
3.97821e+07
1.80057e+09
3.26215e+08
1.17969e+08
5.99823e+07
3.70966e+07
2.60196e+07
1.98182e+07
1.58937e+07
1.31625e+07
1.11247e+07
9.51886e+06
8.20858e+06
7.09996e+06
6.16266e+06
5.37e+06
4.72902e+06
4.28172e+06
4.11563e+06
4.621e+06
7.16242e+06
3.85387e+07
1.80092e+09
3.26354e+08
1.18023e+08
5.99697e+07
3.70997e+07
2.60203e+07
1.98149e+07
1.58991e+07
1.31695e+07
1.11334e+07
9.5381e+06
8.23352e+06
7.14269e+06
6.20741e+06
5.41216e+06
4.74182e+06
4.207e+06
3.85318e+06
3.75856e+06
4.26313e+06
6.82101e+06
3.73356e+07
1.80138e+09
3.26351e+08
1.18047e+08
5.99792e+07
3.70809e+07
2.60116e+07
1.98077e+07
1.58925e+07
1.31714e+07
1.11385e+07
9.54497e+06
8.24973e+06
7.16403e+06
6.2425e+06
5.44724e+06
4.76995e+06
4.20309e+06
3.75943e+06
3.48488e+06
3.45067e+06
3.9397e+06
6.51983e+06
3.61759e+07
1.80177e+09
3.26388e+08
1.18022e+08
5.99736e+07
3.70719e+07
2.59896e+07
1.97938e+07
1.58822e+07
1.31639e+07
1.11388e+07
9.54886e+06
8.25534e+06
7.1776e+06
6.26041e+06
5.47514e+06
4.79598e+06
4.21832e+06
3.73981e+06
3.37517e+06
3.16941e+06
3.18915e+06
3.65149e+06
6.25062e+06
3.50601e+07
1.80118e+09
3.26393e+08
1.18012e+08
5.9946e+07
3.70545e+07
2.59721e+07
1.97708e+07
1.58667e+07
1.3153e+07
1.11312e+07
9.54848e+06
8.25839e+06
7.18206e+06
6.27146e+06
5.48962e+06
4.81713e+06
4.23582e+06
3.74325e+06
3.34082e+06
3.04513e+06
2.89932e+06
2.96391e+06
3.39637e+06
6.01479e+06
3.39898e+07
1.80099e+09
3.26225e+08
1.17985e+08
5.99248e+07
3.70257e+07
2.59496e+07
1.97501e+07
1.58445e+07
1.31377e+07
1.11206e+07
9.5412e+06
8.25779e+06
7.18428e+06
6.27481e+06
5.49822e+06
4.82819e+06
4.25067e+06
3.75276e+06
3.33343e+06
2.99693e+06
2.76109e+06
2.66671e+06
2.76707e+06
3.17326e+06
5.80971e+06
3.29654e+07
1.80215e+09
3.26122e+08
1.179e+08
5.98953e+07
3.70009e+07
2.59205e+07
1.97261e+07
1.58237e+07
1.31172e+07
1.11061e+07
9.53116e+06
8.25108e+06
7.1836e+06
6.27614e+06
5.50045e+06
4.83441e+06
4.25836e+06
3.76168e+06
3.33541e+06
2.97943e+06
2.7e+06
2.51608e+06
2.466e+06
2.59361e+06
2.98247e+06
5.6377e+06
3.19835e+07
1.80323e+09
3.26245e+08
1.17833e+08
5.98371e+07
3.69702e+07
2.58944e+07
1.96982e+07
1.58004e+07
1.30976e+07
1.10873e+07
9.51774e+06
8.24188e+06
7.17747e+06
6.27535e+06
5.50081e+06
4.83548e+06
4.26229e+06
3.76611e+06
3.33881e+06
2.97435e+06
2.67305e+06
2.44325e+06
2.30459e+06
2.29222e+06
2.43847e+06
2.81627e+06
5.49368e+06
3.1031e+07
1.80364e+09
3.26344e+08
1.17839e+08
5.97871e+07
3.6925e+07
2.58643e+07
1.96724e+07
1.57744e+07
1.3076e+07
1.10693e+07
9.50063e+06
8.22964e+06
7.16904e+06
6.26961e+06
5.49973e+06
4.83479e+06
4.26211e+06
3.7678e+06
3.34005e+06
2.97262e+06
2.6614e+06
2.40745e+06
2.22108e+06
2.12186e+06
2.14071e+06
2.29606e+06
2.66623e+06
5.37254e+06
3.00567e+07
1.80256e+09
3.26327e+08
1.17833e+08
5.97685e+07
3.6883e+07
2.58258e+07
1.96438e+07
1.57502e+07
1.30523e+07
1.10496e+07
9.48426e+06
8.21411e+06
7.15793e+06
6.26195e+06
5.49428e+06
4.8333e+06
4.26036e+06
3.76634e+06
3.33957e+06
2.97081e+06
2.655e+06
2.38976e+06
2.17701e+06
2.02872e+06
1.96372e+06
2.0071e+06
2.15948e+06
2.52551e+06
5.27143e+06
2.94381e+07
1.80145e+09
3.2606e+08
1.17786e+08
5.97431e+07
3.68576e+07
2.57892e+07
1.96102e+07
1.57237e+07
1.303e+07
1.1028e+07
9.46634e+06
8.19924e+06
7.14392e+06
6.25184e+06
5.48722e+06
4.82796e+06
4.25835e+06
3.76351e+06
3.33683e+06
2.96824e+06
2.65027e+06
2.37906e+06
2.15368e+06
1.97692e+06
1.86209e+06
1.82651e+06
1.88711e+06
2.02187e+06
2.38856e+06
5.21491e+06
2.90679e+07
1.80054e+09
3.2579e+08
1.17658e+08
5.96978e+07
3.6827e+07
2.57614e+07
1.95775e+07
1.56939e+07
1.30059e+07
1.10076e+07
9.44687e+06
8.1831e+06
7.13047e+06
6.23917e+06
5.47796e+06
4.82132e+06
4.25299e+06
3.76092e+06
3.33296e+06
2.96422e+06
2.64568e+06
2.37154e+06
2.13891e+06
1.94808e+06
1.8031e+06
1.71764e+06
1.70684e+06
1.77677e+06
1.88021e+06
2.25429e+06
5.20913e+06
2.85852e+07
1.80034e+09
3.25551e+08
1.17531e+08
5.96171e+07
3.67859e+07
2.57302e+07
1.95503e+07
1.56648e+07
1.29795e+07
1.09859e+07
9.42834e+06
8.16558e+06
7.11589e+06
6.22698e+06
5.46639e+06
4.81275e+06
4.24662e+06
3.75546e+06
3.32974e+06
2.9594e+06
2.64046e+06
2.36502e+06
2.12868e+06
1.92937e+06
1.76873e+06
1.65204e+06
1.5923e+06
1.60158e+06
1.67269e+06
1.74171e+06
2.12622e+06
5.19571e+06
2.79711e+07
1.80051e+09
3.25433e+08
1.17414e+08
5.95396e+07
3.67274e+07
2.56929e+07
1.95202e+07
1.56394e+07
1.29535e+07
1.09622e+07
9.40877e+06
8.14885e+06
7.10016e+06
6.21377e+06
5.45525e+06
4.8021e+06
4.23855e+06
3.74923e+06
3.32409e+06
2.95553e+06
2.63475e+06
2.3586e+06
2.1203e+06
1.91648e+06
1.74616e+06
1.61218e+06
1.52073e+06
1.48329e+06
1.50757e+06
1.57184e+06
1.61263e+06
2.01222e+06
5.07708e+06
2.73673e+07
1.80125e+09
3.25379e+08
1.17335e+08
5.9465e+07
3.66721e+07
2.56468e+07
1.94867e+07
1.56116e+07
1.29303e+07
1.0939e+07
9.38745e+06
8.13121e+06
7.08508e+06
6.19961e+06
5.44324e+06
4.79183e+06
4.22869e+06
3.74155e+06
3.31793e+06
2.94963e+06
2.63027e+06
2.35206e+06
2.11269e+06
1.90628e+06
1.73063e+06
1.58582e+06
1.47558e+06
1.40655e+06
1.38804e+06
1.42166e+06
1.47091e+06
1.48955e+06
1.90524e+06
4.94937e+06
2.68335e+07
1.80201e+09
3.25429e+08
1.17279e+08
5.94069e+07
3.6618e+07
2.56035e+07
1.94483e+07
1.55815e+07
1.29052e+07
1.0918e+07
9.36662e+06
8.11204e+06
7.06914e+06
6.18596e+06
5.43048e+06
4.78081e+06
4.21917e+06
3.73233e+06
3.31054e+06
2.94348e+06
2.62408e+06
2.34698e+06
2.10533e+06
1.89745e+06
1.71862e+06
1.56766e+06
1.44542e+06
1.35654e+06
1.30717e+06
1.30403e+06
1.34065e+06
1.36574e+06
1.36709e+06
1.81811e+06
4.83326e+06
2.63274e+07
1.80273e+09
3.25474e+08
1.17256e+08
5.93593e+07
3.65719e+07
2.55609e+07
1.94126e+07
1.55486e+07
1.28783e+07
1.08953e+07
9.34766e+06
8.09337e+06
7.05188e+06
6.17151e+06
5.41806e+06
4.76926e+06
4.20898e+06
3.72346e+06
3.30186e+06
2.93633e+06
2.6179e+06
2.34048e+06
2.09963e+06
1.88926e+06
1.70858e+06
1.55384e+06
1.42464e+06
1.32255e+06
1.25291e+06
1.22046e+06
1.2288e+06
1.26141e+06
1.25416e+06
1.24474e+06
1.74773e+06
4.72463e+06
2.58853e+07
1.80329e+09
3.25519e+08
1.17233e+08
5.9328e+07
3.6531e+07
2.55222e+07
1.93769e+07
1.5518e+07
1.28495e+07
1.08712e+07
9.32728e+06
8.07638e+06
7.03519e+06
6.15592e+06
5.40495e+06
4.75792e+06
4.19842e+06
3.71397e+06
3.2935e+06
2.9281e+06
2.61094e+06
2.33424e+06
2.0928e+06
1.88292e+06
1.69956e+06
1.54256e+06
1.40899e+06
1.2991e+06
1.21515e+06
1.16264e+06
1.14438e+06
1.15982e+06
1.18105e+06
1.14238e+06
1.12844e+06
1.69337e+06
4.61819e+06
2.55884e+07
1.80338e+09
3.25525e+08
1.17209e+08
5.92955e+07
3.64993e+07
2.54866e+07
1.9344e+07
1.54876e+07
1.28227e+07
1.08457e+07
9.30563e+06
8.05808e+06
7.01989e+06
6.1409e+06
5.39079e+06
4.74599e+06
4.18805e+06
3.70426e+06
3.28461e+06
2.92018e+06
2.6031e+06
2.32739e+06
2.08645e+06
1.87574e+06
1.69255e+06
1.53269e+06
1.39645e+06
1.28159e+06
1.18897e+06
1.12145e+06
1.08388e+06
1.07694e+06
1.0945e+06
1.09729e+06
1.03463e+06
1.02907e+06
1.65251e+06
4.5209e+06
2.56367e+07
1.80289e+09
3.25473e+08
1.17172e+08
5.92623e+07
3.64669e+07
2.54566e+07
1.93126e+07
1.54588e+07
1.27961e+07
1.08218e+07
9.28271e+06
8.0386e+06
7.00351e+06
6.12706e+06
5.3772e+06
4.7331e+06
4.17716e+06
3.69473e+06
3.27566e+06
2.91181e+06
2.59558e+06
2.31987e+06
2.07966e+06
1.86923e+06
1.685e+06
1.525e+06
1.38571e+06
1.26776e+06
1.16954e+06
1.09246e+06
1.0398e+06
1.0149e+06
1.01608e+06
1.03016e+06
1.00815e+06
927189
955098
1.62455e+06
4.44703e+06
2.56838e+07
1.80227e+09
3.25332e+08
1.17125e+08
5.92258e+07
3.64344e+07
2.5426e+07
1.92849e+07
1.54311e+07
1.27707e+07
1.07982e+07
9.26122e+06
8.01794e+06
6.98594e+06
6.11239e+06
5.36471e+06
4.72072e+06
4.16535e+06
3.68471e+06
3.26686e+06
2.90352e+06
2.58767e+06
2.31271e+06
2.07238e+06
1.86246e+06
1.67828e+06
1.51705e+06
1.37731e+06
1.25612e+06
1.15437e+06
1.07106e+06
1.00807e+06
968542
954018
959637
964150
915768
820448
902307
1.61187e+06
4.385e+06
2.60975e+07
1.80051e+09
3.25134e+08
1.17043e+08
5.91858e+07
3.64003e+07
2.53956e+07
1.92568e+07
1.54061e+07
1.27463e+07
1.07757e+07
9.2401e+06
7.99857e+06
6.96737e+06
6.0966e+06
5.35158e+06
4.70945e+06
4.15405e+06
3.67387e+06
3.25762e+06
2.89536e+06
2.57994e+06
2.3052e+06
2.06552e+06
1.85537e+06
1.67149e+06
1.5101e+06
1.36894e+06
1.24699e+06
1.14179e+06
1.05448e+06
984598
934422
906171
899535
905343
894007
823671
722202
866297
1.60452e+06
4.35641e+06
2.65307e+07
1.79876e+09
3.24779e+08
1.16944e+08
5.91312e+07
3.63668e+07
2.5365e+07
1.9229e+07
1.53807e+07
1.27239e+07
1.0754e+07
9.22011e+06
7.9795e+06
6.94988e+06
6.07979e+06
5.33735e+06
4.69764e+06
4.14381e+06
3.66353e+06
3.24763e+06
2.88683e+06
2.57236e+06
2.29795e+06
2.05835e+06
1.84871e+06
1.66453e+06
1.50324e+06
1.36172e+06
1.23817e+06
1.1319e+06
1.04091e+06
966556
908878
870128
851229
849625
850845
819236
730810
645168
845411
1.60168e+06
4.35011e+06
2.68585e+07
1.79704e+09
3.24414e+08
1.16791e+08
5.90671e+07
3.63257e+07
2.53356e+07
1.92014e+07
1.53557e+07
1.27012e+07
1.0734e+07
9.20073e+06
7.96153e+06
6.9326e+06
6.06401e+06
5.32217e+06
4.68481e+06
4.13313e+06
3.65417e+06
3.23812e+06
2.87762e+06
2.56446e+06
2.29088e+06
2.05148e+06
1.84182e+06
1.65802e+06
1.49635e+06
1.35474e+06
1.23063e+06
1.12259e+06
1.03021e+06
951933
889280
842709
813847
802231
802338
793793
741820
636692
593519
835996
1.59965e+06
4.36514e+06
2.70952e+07
1.79566e+09
3.24055e+08
1.16639e+08
5.89816e+07
3.628e+07
2.53026e+07
1.91757e+07
1.5331e+07
1.26788e+07
1.07135e+07
9.18267e+06
7.9442e+06
6.9164e+06
6.04837e+06
5.30786e+06
4.67112e+06
4.12157e+06
3.64448e+06
3.22952e+06
2.86887e+06
2.55596e+06
2.28355e+06
2.04484e+06
1.83527e+06
1.65136e+06
1.48996e+06
1.34789e+06
1.22351e+06
1.1147e+06
1.02038e+06
940384
873530
821540
784887
764288
757609
755585
731996
662862
547410
562334
833151
1.59811e+06
4.3799e+06
2.73426e+07
1.79451e+09
3.23749e+08
1.16488e+08
5.88954e+07
3.62226e+07
2.52667e+07
1.91477e+07
1.53081e+07
1.26568e+07
1.06935e+07
9.16441e+06
7.92806e+06
6.90087e+06
6.03373e+06
5.2937e+06
4.65812e+06
4.10924e+06
3.63401e+06
3.22069e+06
2.86095e+06
2.54794e+06
2.27568e+06
2.038e+06
1.82898e+06
1.64508e+06
1.48348e+06
1.34156e+06
1.21664e+06
1.10738e+06
1.0121e+06
929974
861073
804573
762288
734226
720145
715677
707209
666592
581567
476140
543684
833777
1.59461e+06
4.38957e+06
2.75556e+07
1.79405e+09
3.23506e+08
1.16357e+08
5.88103e+07
3.61665e+07
2.52251e+07
1.91183e+07
1.52839e+07
1.26364e+07
1.06739e+07
9.14654e+06
7.9118e+06
6.88646e+06
6.01978e+06
5.2804e+06
4.64521e+06
4.09738e+06
3.62288e+06
3.21118e+06
2.85287e+06
2.54065e+06
2.26831e+06
2.03068e+06
1.82255e+06
1.63908e+06
1.47741e+06
1.33522e+06
1.21032e+06
1.10044e+06
1.00455e+06
921274
850048
791142
744102
710445
689583
680052
674644
655296
599665
497865
429292
534325
834207
1.59019e+06
4.39435e+06
2.77389e+07
1.79414e+09
3.23365e+08
1.16246e+08
5.87341e+07
3.61107e+07
2.51844e+07
1.90856e+07
1.52589e+07
1.2615e+07
1.06556e+07
9.12898e+06
7.89581e+06
6.87195e+06
6.00686e+06
5.26787e+06
4.63317e+06
4.08563e+06
3.61207e+06
3.20108e+06
2.84418e+06
2.5332e+06
2.26159e+06
2.02386e+06
1.81569e+06
1.63299e+06
1.47166e+06
1.32932e+06
1.20409e+06
1.09411e+06
997491
913442
840875
779449
729612
691177
664961
649805
642553
632732
599820
529968
419516
402490
531151
834065
1.58705e+06
4.39605e+06
2.79038e+07
1.79456e+09
3.23315e+08
1.16175e+08
5.86697e+07
3.60597e+07
2.51442e+07
1.9054e+07
1.52318e+07
1.25933e+07
1.06365e+07
9.11246e+06
7.88009e+06
6.85763e+06
5.99386e+06
5.25623e+06
4.62185e+06
4.0747e+06
3.60143e+06
3.19129e+06
2.835e+06
2.52522e+06
2.2547e+06
2.01761e+06
1.80933e+06
1.62655e+06
1.46586e+06
1.32375e+06
1.1983e+06
1.08793e+06
991108
906224
832721
769755
717197
675652
644822
624817
613688
606150
587492
541884
456213
360045
388322
530432
832698
1.58449e+06
4.39483e+06
2.80794e+07
1.79565e+09
3.23357e+08
1.16134e+08
5.86238e+07
3.60157e+07
2.51066e+07
1.90227e+07
1.52059e+07
1.25699e+07
1.06172e+07
9.09526e+06
7.86515e+06
6.84357e+06
5.98101e+06
5.24457e+06
4.61132e+06
4.06447e+06
3.59148e+06
3.18163e+06
2.82613e+06
2.51687e+06
2.24733e+06
2.01121e+06
1.80347e+06
1.62056e+06
1.45976e+06
1.3182e+06
1.19288e+06
1.08222e+06
984941
899748
825304
761239
706928
662453
628414
604095
588985
579960
568519
538776
481238
380847
324068
381842
529938
831138
1.58092e+06
4.38926e+06
2.82183e+07
1.79725e+09
3.2348e+08
1.16123e+08
5.85911e+07
3.59824e+07
2.50739e+07
1.89935e+07
1.51803e+07
1.25477e+07
1.05967e+07
9.07793e+06
7.84964e+06
6.83011e+06
5.96845e+06
5.23299e+06
4.60082e+06
4.0549e+06
3.58219e+06
3.17259e+06
2.81739e+06
2.50883e+06
2.23973e+06
2.0044e+06
1.79752e+06
1.61506e+06
1.45411e+06
1.3124e+06
1.18753e+06
1.07691e+06
979274
893557
818694
753574
697999
651547
614453
586995
568071
556369
546645
527781
487987
416239
315802
305216
379257
529139
830028
1.57604e+06
4.36742e+06
2.80231e+07
1.79877e+09
3.23691e+08
1.1614e+08
5.85724e+07
3.59557e+07
2.50476e+07
1.89673e+07
1.51561e+07
1.25258e+07
1.05772e+07
9.05959e+06
7.83397e+06
6.81607e+06
5.95629e+06
5.22176e+06
4.59035e+06
4.0454e+06
3.5735e+06
3.16413e+06
2.80917e+06
2.50092e+06
2.23241e+06
1.99745e+06
1.79121e+06
1.60949e+06
1.44891e+06
1.30703e+06
1.18198e+06
1.07172e+06
974033
887895
812438
746793
690045
642153
602889
572391
550528
535668
525381
512093
484473
434483
346619
273436
296392
378408
528479
829091
1.56712e+06
4.3569e+06
2.79838e+07
1.80021e+09
3.23914e+08
1.16189e+08
5.85666e+07
3.59364e+07
2.50251e+07
1.89456e+07
1.51343e+07
1.25053e+07
1.0558e+07
9.04228e+06
7.81746e+06
6.80187e+06
5.94357e+06
5.2108e+06
4.58032e+06
4.03593e+06
3.56486e+06
3.15621e+06
2.80147e+06
2.49345e+06
2.22522e+06
1.99075e+06
1.78482e+06
1.60363e+06
1.44368e+06
1.30209e+06
1.17685e+06
1.06638e+06
968954
882686
806745
740429
683049
633857
592973
560230
535448
518081
505778
494616
475079
439183
376371
281776
251421
292893
377983
527962
827412
1.56324e+06
4.39547e+06
2.81267e+07
1.80174e+09
3.24126e+08
1.1624e+08
5.85752e+07
3.59237e+07
2.50067e+07
1.89261e+07
1.51159e+07
1.24866e+07
1.054e+07
9.02518e+06
7.80189e+06
6.78698e+06
5.93074e+06
5.19931e+06
4.57044e+06
4.02694e+06
3.55629e+06
3.14836e+06
2.79422e+06
2.48644e+06
2.2184e+06
1.98416e+06
1.77865e+06
1.59773e+06
1.43821e+06
1.29715e+06
1.17213e+06
1.06145e+06
963792
877689
801536
734673
676537
626604
584280
549793
522797
502794
488712
477291
462836
435759
391134
312425
236866
241559
291462
377589
527392
824986
1.56967e+06
4.41706e+06
2.81843e+07
1.80281e+09
3.24319e+08
1.16287e+08
5.85858e+07
3.59189e+07
2.4992e+07
1.89093e+07
1.50989e+07
1.24706e+07
1.05238e+07
9.00925e+06
7.78653e+06
6.7728e+06
5.91726e+06
5.18771e+06
4.56003e+06
4.01801e+06
3.54819e+06
3.14055e+06
2.78708e+06
2.47979e+06
2.21199e+06
1.97791e+06
1.7726e+06
1.59202e+06
1.43273e+06
1.29202e+06
1.16743e+06
1.0569e+06
959025
872661
796586
729430
670679
619904
576720
540687
511909
489827
473589
461437
448860
428519
394705
338113
250532
213715
237569
290870
377264
526724
824915
1.57285e+06
4.44022e+06
2.82235e+07
1.80366e+09
3.24484e+08
1.16334e+08
5.85964e+07
3.59158e+07
2.4982e+07
1.88947e+07
1.50838e+07
1.24557e+07
1.05096e+07
8.99486e+06
7.77217e+06
6.75893e+06
5.90432e+06
5.17547e+06
4.54957e+06
4.00858e+06
3.54014e+06
3.13322e+06
2.77997e+06
2.47328e+06
2.20589e+06
1.97203e+06
1.76684e+06
1.58644e+06
1.42743e+06
1.28691e+06
1.1626e+06
1.05242e+06
954627
868027
791659
724493
665368
613906
569787
532767
502426
478601
460554
446949
435089
418982
392175
350693
278703
206683
203576
236043
290532
376921
527001
824378
1.57449e+06
4.47049e+06
2.82585e+07
1.80423e+09
3.24596e+08
1.16375e+08
5.86054e+07
3.59118e+07
2.4973e+07
1.88831e+07
1.50702e+07
1.24423e+07
1.04965e+07
8.98218e+06
7.75931e+06
6.74596e+06
5.89175e+06
5.16372e+06
4.53855e+06
3.99912e+06
3.5316e+06
3.12595e+06
2.77332e+06
2.46681e+06
2.19992e+06
1.96642e+06
1.76143e+06
1.58113e+06
1.42227e+06
1.28197e+06
1.15781e+06
1.04785e+06
950321
863749
787123
719632
660414
608491
563613
525551
494148
468805
449159
434179
421863
408345
386862
354338
301069
220671
184662
199561
235410
290271
376922
527097
823788
1.57537e+06
4.4985e+06
2.82918e+07
1.80451e+09
3.24663e+08
1.16395e+08
5.86139e+07
3.59088e+07
2.49643e+07
1.88721e+07
1.50588e+07
1.243e+07
1.04846e+07
8.97048e+06
7.74797e+06
6.73437e+06
5.87992e+06
5.15228e+06
4.52783e+06
3.98923e+06
3.52302e+06
3.11827e+06
2.76674e+06
2.46077e+06
2.19399e+06
1.96093e+06
1.75625e+06
1.57613e+06
1.41734e+06
1.27717e+06
1.15318e+06
1.04333e+06
945960
859582
782936
715166
655587
603486
558063
519165
486631
460231
439157
422853
409816
397191
379808
353044
313193
244717
180465
175430
198020
235091
290236
376911
526990
822608
1.57074e+06
4.49511e+06
2.83239e+07
1.80452e+09
3.24685e+08
1.16404e+08
5.86163e+07
3.5907e+07
2.49559e+07
1.88615e+07
1.50477e+07
1.24194e+07
1.04735e+07
8.95987e+06
7.73746e+06
6.72418e+06
5.86945e+06
5.14152e+06
4.51744e+06
3.97951e+06
3.51413e+06
3.11051e+06
2.75981e+06
2.45477e+06
2.1885e+06
1.95548e+06
1.75119e+06
1.57133e+06
1.4127e+06
1.27258e+06
1.1487e+06
1.03897e+06
941684
855405
778880
711043
651160
598660
552965
513437
480028
452477
430370
412810
398891
386457
371679
349451
317511
265476
191317
161323
171840
197398
234989
290239
376868
526633
820642
1.58123e+06
4.44571e+06
2.83566e+07
1.80434e+09
3.24652e+08
1.16397e+08
5.86112e+07
3.59008e+07
2.49491e+07
1.88515e+07
1.50369e+07
1.2409e+07
1.04639e+07
8.95011e+06
7.72808e+06
6.71472e+06
5.86028e+06
5.13201e+06
4.50768e+06
3.97008e+06
3.50533e+06
3.10249e+06
2.75278e+06
2.44851e+06
2.18301e+06
1.95045e+06
1.74618e+06
1.56665e+06
1.40824e+06
1.26827e+06
1.14441e+06
1.03476e+06
937558
851326
774851
707067
647074
594243
548108
508210
474079
445618
422429
403926
389050
376387
362957
344164
317843
278042
211410
157047
153694
170463
197184
234960
290249
376826
525416
823462
1.58096e+06
4.49243e+06
2.83898e+07
1.80374e+09
3.24601e+08
1.16378e+08
5.85998e+07
3.58923e+07
2.49407e+07
1.8843e+07
1.50267e+07
1.23989e+07
1.04545e+07
8.94146e+06
7.7194e+06
6.70637e+06
5.85176e+06
5.12367e+06
4.49902e+06
3.96118e+06
3.4968e+06
3.09453e+06
2.7456e+06
2.44214e+06
2.17732e+06
1.94543e+06
1.74156e+06
1.56202e+06
1.4039e+06
1.26411e+06
1.14038e+06
1.03074e+06
933590
847402
770940
703157
643150
590170
543671
503285
468681
439462
415360
395880
380247
367084
354332
338048
315157
283943
230976
163869
142071
150769
169973
197116
234968
290245
376515
525745
823269
1.59485e+06
4.5089e+06
2.84234e+07
1.80286e+09
3.24476e+08
1.16346e+08
5.85829e+07
3.58804e+07
2.49307e+07
1.88335e+07
1.5018e+07
1.23894e+07
1.04453e+07
8.93309e+06
7.71179e+06
6.69871e+06
5.84427e+06
5.11604e+06
4.49142e+06
3.95331e+06
3.48869e+06
3.08682e+06
2.7384e+06
2.4357e+06
2.17155e+06
1.94025e+06
1.73695e+06
1.55777e+06
1.39961e+06
1.26006e+06
1.13648e+06
1.02696e+06
929794
843639
767183
699380
639334
586267
539580
498798
463650
433886
409022
388674
372223
358615
346011
331611
311592
285067
244672
179387
137050
136399
149686
169817
197112
234964
290043
376666
525101
825468
1.60313e+06
4.51901e+06
2.84577e+07
1.80175e+09
3.24307e+08
1.16292e+08
5.8563e+07
3.58667e+07
2.49189e+07
1.88235e+07
1.50086e+07
1.2381e+07
1.04366e+07
8.92484e+06
7.70434e+06
6.69195e+06
5.83749e+06
5.10924e+06
4.48454e+06
3.9464e+06
3.48154e+06
3.07947e+06
2.73145e+06
2.42921e+06
2.16574e+06
1.93498e+06
1.73221e+06
1.55352e+06
1.39568e+06
1.25607e+06
1.1327e+06
1.0233e+06
926232
840046
763597
695764
635660
582518
535670
494662
459079
428724
403287
382202
364984
350801
338217
324798
307218
284161
251823
197325
139655
126455
134270
149320
169783
197114
234883
290051
376564
525528
824496
1.59948e+06
4.52592e+06
2.84931e+07
1.80094e+09
3.24118e+08
1.16228e+08
5.85331e+07
3.58509e+07
2.49068e+07
1.88127e+07
1.49991e+07
1.23722e+07
1.04289e+07
8.91705e+06
7.69696e+06
6.68542e+06
5.83146e+06
5.10317e+06
4.47836e+06
3.94011e+06
3.47525e+06
3.07298e+06
2.7248e+06
2.42295e+06
2.1599e+06
1.92972e+06
1.7274e+06
1.54917e+06
1.39175e+06
1.25242e+06
1.12898e+06
1.01975e+06
922782
836669
760176
692325
632156
578920
531973
490712
454870
424037
397998
376341
358452
343679
330880
318123
302315
281616
254900
211384
149879
120784
122555
133513
149214
169786
197080
234891
290011
376609
525309
829598
1.59319e+06
4.53152e+06
2.85284e+07
1.79967e+09
3.23935e+08
1.16158e+08
5.84976e+07
3.583e+07
2.48938e+07
1.88016e+07
1.49893e+07
1.23634e+07
1.04209e+07
8.91003e+06
7.69004e+06
6.67885e+06
5.8257e+06
5.09779e+06
4.47287e+06
3.9345e+06
3.4695e+06
3.06727e+06
2.71893e+06
2.41695e+06
2.15424e+06
1.92443e+06
1.72262e+06
1.54476e+06
1.38775e+06
1.24878e+06
1.12557e+06
1.01626e+06
919441
833406
756963
689050
628839
575503
528416
487062
450889
419722
393194
370944
352520
337204
324088
311628
297296
278561
255148
220765
163968
119833
113889
121126
133271
149197
169778
197076
234865
290102
376249
527311
831091
1.60321e+06
4.53643e+06
2.85637e+07
1.79838e+09
3.23717e+08
1.16088e+08
5.84619e+07
3.58078e+07
2.48784e+07
1.87904e+07
1.49793e+07
1.23545e+07
1.04128e+07
8.90277e+06
7.68386e+06
6.67269e+06
5.81989e+06
5.0926e+06
4.46806e+06
3.92955e+06
3.46439e+06
3.06202e+06
2.71372e+06
2.41167e+06
2.1488e+06
1.9193e+06
1.71781e+06
1.54042e+06
1.3837e+06
1.24509e+06
1.12218e+06
1.01307e+06
916153
830242
753857
685978
625685
572281
525060
483515
447180
415667
388767
366045
347054
331289
317834
305449
292106
275144
254090
225762
178128
124239
107933
111366
120642
133210
149196
169783
197095
234873
289995
376941
527673
836182
1.60683e+06
4.54135e+06
2.85986e+07
1.79769e+09
3.235e+08
1.1601e+08
5.84254e+07
3.57859e+07
2.48622e+07
1.87779e+07
1.49694e+07
1.23456e+07
1.04048e+07
8.89547e+06
7.6773e+06
6.66719e+06
5.81442e+06
5.08745e+06
4.46337e+06
3.92519e+06
3.45988e+06
3.05734e+06
2.70896e+06
2.40692e+06
2.14403e+06
1.91435e+06
1.71315e+06
1.53603e+06
1.37972e+06
1.24136e+06
1.11877e+06
1.0099e+06
913151
827135
750854
683006
622728
569226
521913
480198
443648
411880
384621
361527
342089
325820
312068
299643
286889
271362
252171
227876
189108
133366
104761
103739
110479
120504
133199
149210
169807
197117
234812
290364
377209
526947
832149
1.60911e+06
4.54636e+06
2.86342e+07
1.79642e+09
3.23339e+08
1.15932e+08
5.83863e+07
3.57634e+07
2.48468e+07
1.87653e+07
1.49587e+07
1.23367e+07
1.03966e+07
8.88808e+06
7.67065e+06
6.66142e+06
5.80951e+06
5.08269e+06
4.45877e+06
3.92098e+06
3.4559e+06
3.05322e+06
2.70467e+06
2.40257e+06
2.1397e+06
1.91001e+06
1.70863e+06
1.53178e+06
1.37572e+06
1.23771e+06
1.11531e+06
1.00673e+06
910178
824302
747900
680141
619873
566365
518934
477098
440348
408327
380747
357305
337511
320840
306701
294212
281830
267433
249647
228225
196537
144859
104671
97924.8
102222
110204
120471
133214
149236
169833
197067
235039
290588
377283
530146
833900
1.61084e+06
4.55159e+06
2.86691e+07
1.7957e+09
3.23154e+08
1.15874e+08
5.83481e+07
3.57399e+07
2.48311e+07
1.87534e+07
1.49482e+07
1.23273e+07
1.03886e+07
8.88077e+06
7.66402e+06
6.65544e+06
5.80443e+06
5.07828e+06
4.45462e+06
3.91685e+06
3.4521e+06
3.04956e+06
2.70088e+06
2.39863e+06
2.13571e+06
1.90604e+06
1.70467e+06
1.52766e+06
1.37183e+06
1.23404e+06
1.11196e+06
1.00353e+06
907215
821498
745213
677317
617121
563606
516147
474175
437275
405021
377143
353353
333237
316243
301786
289097
276990
263503
246953
227372
200957
156235
108191
93746.7
95494.5
101722
110131
120479
133241
149264
169804
197191
235215
290476
378838
532931
836335
1.61246e+06
4.55706e+06
2.87012e+07
1.79502e+09
3.22998e+08
1.15805e+08
5.83166e+07
3.57173e+07
2.48154e+07
1.87418e+07
1.49387e+07
1.23182e+07
1.03803e+07
8.8735e+06
7.6574e+06
6.64935e+06
5.79905e+06
5.07371e+06
4.45067e+06
3.91315e+06
3.44838e+06
3.04609e+06
2.6975e+06
2.39516e+06
2.13209e+06
1.90237e+06
1.70102e+06
1.52402e+06
1.36806e+06
1.23048e+06
1.10858e+06
1.00042e+06
904233
818717
742556
674761
614408
560951
513465
471439
434384
401952
373806
349687
329231
311951
297237
284369
272331
259584
244104
225959
203037
165736
114991
91317.4
90045.5
94655.8
101580
110125
120508
133283
149266
169874
197225
235151
291397
379566
531897
837511
1.61415e+06
4.56293e+06
2.8734e+07
1.79453e+09
3.22876e+08
1.1575e+08
5.82863e+07
3.56984e+07
2.48004e+07
1.873e+07
1.4929e+07
1.23101e+07
1.03722e+07
8.866e+06
7.65082e+06
6.64339e+06
5.79361e+06
5.0689e+06
4.44655e+06
3.90963e+06
3.44508e+06
3.0427e+06
2.69431e+06
2.39203e+06
2.12889e+06
1.89904e+06
1.69765e+06
1.52066e+06
1.36472e+06
1.22701e+06
1.10531e+06
997312
901348
815927
739935
672231
611970
558320
510887
468812
431679
399069
370715
346303
325512
307925
292979
279963
267954
255627
241161
224101
203692
172559
123805
90861
85722.6
88733.8
94405.8
101552
110147
120548
133318
149336
169915
197167
235691
292081
381470
532036
838458
1.61596e+06
4.56893e+06
2.87645e+07
1.79411e+09
3.2279e+08
1.15706e+08
5.82563e+07
3.56802e+07
2.47874e+07
1.87188e+07
1.49197e+07
1.23019e+07
1.03649e+07
8.8587e+06
7.64403e+06
6.63743e+06
5.78815e+06
5.06404e+06
4.44223e+06
3.90591e+06
3.44188e+06
3.03973e+06
2.69119e+06
2.38908e+06
2.126e+06
1.8961e+06
1.69457e+06
1.51755e+06
1.36161e+06
1.22394e+06
1.10212e+06
994296
898473
813238
737312
669743
609541
555993
508314
466295
429089
396373
367814
343175
322081
304177
288974
275819
263828
251811
238108
221988
203377
177078
132908
92605.3
82433.7
83769.1
88324.9
94345.8
101564
110185
120593
133401
149410
169878
197532
236147
293464
382575
533221
839463
1.61794e+06
4.57544e+06
2.87945e+07
1.79398e+09
3.22717e+08
1.15677e+08
5.82342e+07
3.56623e+07
2.47751e+07
1.87091e+07
1.49108e+07
1.22939e+07
1.03577e+07
8.85204e+06
7.63738e+06
6.6313e+06
5.78271e+06
5.05913e+06
4.43786e+06
3.90201e+06
3.4385e+06
3.03679e+06
2.68845e+06
2.38617e+06
2.12327e+06
1.89341e+06
1.69184e+06
1.5147e+06
1.35874e+06
1.22106e+06
1.09928e+06
991351
895686
810566
734791
667266
607172
553647
506107
463814
426612
393798
365100
340245
318916
300713
285239
271898
259912
248152
235105
219782
202430
179692
141337
96564.6
80161.6
79624.6
83132.1
88218
94349.6
101596
110220
120670
133484
149402
170123
197932
237097
293230
380710
533803
840545
1.62018e+06
4.58229e+06
2.88232e+07
1.79357e+09
3.22672e+08
1.15651e+08
5.82197e+07
3.56486e+07
2.47632e+07
1.87e+07
1.49028e+07
1.22863e+07
1.03507e+07
8.8456e+06
7.63134e+06
6.62531e+06
5.77717e+06
5.05411e+06
4.43342e+06
3.89809e+06
3.43499e+06
3.03372e+06
2.68576e+06
2.38365e+06
2.12057e+06
1.89089e+06
1.68935e+06
1.51217e+06
1.35609e+06
1.2184e+06
1.09662e+06
988723
892962
807980
732298
664892
604817
551371
503815
461611
424196
391344
362521
337503
315960
297518
281775
268237
256176
244624
232175
217566
201139
180961
148159
102319
78979.2
76192.9
78675
82956.4
88208.1
94374
101627
110282
120742
133490
149547
170367
198527
237364
294250
381947
534439
841784
1.6226e+06
4.58965e+06
2.88527e+07
1.79347e+09
3.22629e+08
1.15638e+08
5.82071e+07
3.56396e+07
2.47537e+07
1.86916e+07
1.48953e+07
1.22796e+07
1.0344e+07
8.8393e+06
7.62538e+06
6.61966e+06
5.77173e+06
5.04904e+06
4.42888e+06
3.89407e+06
3.43146e+06
3.03053e+06
2.68295e+06
2.38115e+06
2.11822e+06
1.88837e+06
1.687e+06
1.50984e+06
1.35373e+06
1.21593e+06
1.09414e+06
986246
890521
805454
729890
662554