/*--------------------------------*- C++ -*----------------------------------*\
| =========                 |                                                 |
| \\      /  F ield         | OpenFOAM: The Open Source CFD Toolbox           |
|  \\    /   O peration     | Version:  v2012                                 |
|   \\  /    A nd           | Website:  www.openfoam.com                      |
|    \\/     M anipulation  |                                                 |
\*---------------------------------------------------------------------------*/
FoamFile
{
    version     2.0;
    format      ascii;
    class       volScalarField;
    location    "3800";
    object      p;
}
// * * * * * * * * * * * * * * * * * * * * * * * * * * * * * * * * * * * * * //

dimensions      [1 -1 -2 0 0 0 0];


internalField   nonuniform List<scalar> 
29502
(
3530.2
2983.91
3533.33
2756.34
2984.01
3531.02
2763.33
2756.35
2984.08
3529.95
2776.72
2763.32
2756.33
2984.26
3524.98
2794.85
2776.73
2763.32
2756.34
2984.5
3521.75
2810.38
2794.82
2776.72
2763.31
2756.32
2984.85
3516.88
2815.69
2810.36
2794.83
2776.71
2763.3
2756.3
2985.17
3513.62
2821.16
2815.69
2810.37
2794.83
2776.71
2763.29
2756.28
2985.5
3509.44
2819.33
2821.16
2815.69
2810.37
2794.82
2776.7
2763.27
2756.26
2985.79
3504.76
2817.86
2819.34
2821.16
2815.69
2810.37
2794.82
2776.69
2763.25
2756.26
2986.18
3499.45
2816.97
2817.87
2819.34
2821.15
2815.68
2810.35
2794.81
2776.69
2763.23
2756.3
2986.58
3493.62
2819.52
2816.97
2817.87
2819.34
2821.14
2815.67
2810.36
2794.8
2776.67
2763.21
2756.33
2987
3487.22
2819.96
2819.52
2816.97
2817.87
2819.34
2821.16
2815.68
2810.35
2794.79
2776.66
2763.19
2756.39
2987.6
3480.3
2815.49
2819.96
2819.52
2816.97
2817.86
2819.32
2821.15
2815.67
2810.34
2794.78
2776.65
2763.17
2756.42
2988.21
3472.83
2814.67
2815.49
2819.96
2819.52
2816.97
2817.87
2819.33
2821.14
2815.66
2810.33
2794.77
2776.63
2763.17
2756.45
2988.99
3464.75
2813.03
2814.67
2815.49
2819.96
2819.52
2816.97
2817.87
2819.33
2821.14
2815.66
2810.32
2794.76
2776.61
2763.19
2756.51
2989.91
3456.05
2811.75
2813.04
2814.67
2815.49
2819.96
2819.52
2816.98
2817.87
2819.33
2821.13
2815.65
2810.31
2794.74
2776.6
2763.2
2756.62
2990.96
3446.45
2811.7
2811.76
2813.03
2814.67
2815.49
2819.96
2819.51
2816.98
2817.87
2819.32
2821.12
2815.64
2810.3
2794.73
2776.58
2763.25
2756.83
2992.25
3436.29
2809.45
2811.69
2811.75
2813.03
2814.67
2815.49
2819.95
2819.51
2816.97
2817.87
2819.32
2821.11
2815.63
2810.28
2794.71
2776.55
2763.23
2756.94
2993.79
3425.29
2807.57
2809.43
2811.69
2811.75
2813.03
2814.67
2815.49
2819.95
2819.51
2816.98
2817.87
2819.32
2821.11
2815.62
2810.27
2794.69
2776.54
2763.27
2757.13
2995.61
3413.52
2806.94
2807.57
2809.44
2811.69
2811.75
2813.03
2814.67
2815.49
2819.95
2819.51
2816.98
2817.88
2819.32
2821.1
2815.61
2810.25
2794.67
2776.54
2763.34
2757.33
2997.77
3400.86
2805.84
2806.95
2807.57
2809.44
2811.69
2811.75
2813.04
2814.67
2815.49
2819.95
2819.51
2816.98
2817.88
2819.31
2821.08
2815.59
2810.23
2794.65
2776.55
2763.4
2757.56
3000.52
3387.29
2804.89
2805.85
2806.95
2807.57
2809.43
2811.68
2811.75
2813.04
2814.67
2815.49
2819.94
2819.51
2816.99
2817.88
2819.31
2821.07
2815.58
2810.22
2794.63
2776.53
2763.69
2757.85
3003.86
3372.74
2805.2
2804.9
2805.85
2806.95
2807.57
2809.43
2811.68
2811.74
2813.04
2814.68
2815.49
2819.94
2819.51
2816.99
2817.89
2819.31
2821.06
2815.57
2810.21
2794.62
2776.53
2763.96
2758.28
3007.96
3357.48
2804.79
2805.21
2804.9
2805.86
2806.95
2807.57
2809.43
2811.67
2811.74
2813.04
2814.68
2815.5
2819.94
2819.5
2817
2817.89
2819.31
2821.05
2815.55
2810.19
2794.61
2776.54
2764.15
2758.75
3012.8
3341.19
2802.2
2804.79
2805.21
2804.9
2805.86
2806.95
2807.58
2809.43
2811.67
2811.74
2813.04
2814.68
2815.5
2819.93
2819.5
2817
2817.9
2819.3
2821.04
2815.54
2810.18
2794.61
2776.63
2764.2
2759.24
3018.62
3324.29
2799.61
2802.2
2804.79
2805.2
2804.9
2805.87
2806.96
2807.58
2809.43
2811.66
2811.74
2813.04
2814.69
2815.5
2819.93
2819.5
2817.01
2817.9
2819.3
2821.03
2815.53
2810.17
2794.62
2776.75
2764.36
2759.72
3025.48
3306.05
2797.92
2799.61
2802.19
2804.78
2805.2
2804.91
2805.87
2806.97
2807.58
2809.42
2811.65
2811.73
2813.05
2814.7
2815.51
2819.93
2819.5
2817.02
2817.91
2819.3
2821.02
2815.52
2810.16
2794.63
2776.95
2764.53
2760.18
3033.49
3287.45
2798.61
2797.9
2799.6
2802.19
2804.77
2805.2
2804.91
2805.88
2806.97
2807.58
2809.42
2811.64
2811.73
2813.05
2814.7
2815.51
2819.93
2819.5
2817.03
2817.92
2819.3
2821.01
2815.52
2810.17
2794.67
2777.29
2764.93
2760.58
3042.7
3267.8
2799.41
2798.59
2797.9
2799.6
2802.18
2804.77
2805.19
2804.91
2805.89
2806.98
2807.59
2809.42
2811.63
2811.73
2813.06
2814.71
2815.52
2819.93
2819.5
2817.04
2817.93
2819.31
2821.01
2815.52
2810.19
2794.7
2777.44
2765.35
2760.9
3053.2
3248.25
2799.79
2799.4
2798.6
2797.9
2799.59
2802.17
2804.76
2805.19
2804.92
2805.9
2806.99
2807.59
2809.42
2811.62
2811.73
2813.06
2814.72
2815.53
2819.93
2819.5
2817.05
2817.94
2819.31
2821.01
2815.53
2810.23
2794.84
2777.64
2765.96
2761.23
3064.69
3227.49
2798.98
2799.8
2799.41
2798.6
2797.89
2799.58
2802.16
2804.75
2805.18
2804.93
2805.91
2807.01
2807.6
2809.41
2811.61
2811.73
2813.07
2814.74
2815.54
2819.94
2819.51
2817.06
2817.95
2819.32
2821.01
2815.55
2810.25
2795.09
2777.92
2766.82
2761.59
3077.48
3210.74
2797.62
2799
2799.8
2799.4
2798.6
2797.89
2799.57
2802.15
2804.73
2805.17
2804.93
2805.93
2807.02
2807.6
2809.41
2811.6
2811.73
2813.08
2814.75
2815.55
2819.94
2819.51
2817.07
2817.95
2819.33
2821.04
2815.57
2810.39
2795.22
2778.18
2767.91
2762.39
3089.33
3192.06
2795.4
2797.63
2799
2799.8
2799.41
2798.6
2797.88
2799.56
2802.14
2804.72
2805.17
2804.94
2805.94
2807.04
2807.61
2809.41
2811.6
2811.72
2813.09
2814.76
2815.56
2819.95
2819.51
2817.09
2817.97
2819.34
2821.05
2815.67
2810.49
2795.46
2778.47
2769.11
2763.57
3100.35
3172.92
2793.09
2795.41
2797.63
2799
2799.8
2799.41
2798.6
2797.88
2799.55
2802.12
2804.7
2805.16
2804.95
2805.96
2807.06
2807.62
2809.41
2811.58
2811.72
2813.1
2814.78
2815.58
2819.96
2819.52
2817.1
2817.99
2819.36
2821.1
2815.72
2810.66
2795.73
2778.84
2770.36
2766.47
3111.74
3152.81
2790.68
2793.1
2795.41
2797.63
2799.01
2799.81
2799.41
2798.6
2797.87
2799.54
2802.1
2804.68
2805.15
2804.97
2805.98
2807.09
2807.63
2809.4
2811.57
2811.72
2813.11
2814.8
2815.59
2819.97
2819.53
2817.12
2818.01
2819.38
2821.16
2815.85
2810.84
2796.05
2779.49
2771.14
2769.38
3119.15
3131.25
2788.99
2790.7
2793.1
2795.41
2797.64
2799.01
2799.82
2799.42
2798.6
2797.86
2799.52
2802.08
2804.66
2805.14
2804.98
2806.01
2807.11
2807.64
2809.4
2811.56
2811.73
2813.13
2814.82
2815.61
2819.98
2819.54
2817.13
2818.04
2819.41
2821.22
2815.97
2811.1
2796.38
2780.39
2771.55
2775.66
3127.31
3109.14
2787.82
2789
2790.69
2793.1
2795.41
2797.64
2799.02
2799.83
2799.43
2798.6
2797.85
2799.5
2802.05
2804.64
2805.13
2805
2806.03
2807.14
2807.66
2809.4
2811.55
2811.73
2813.14
2814.84
2815.64
2819.99
2819.55
2817.15
2818.08
2819.49
2821.35
2816.16
2811.38
2796.67
2781.82
2771.81
2782.62
3129.51
3084.29
2787.48
2787.82
2788.99
2790.69
2793.1
2795.41
2797.65
2799.03
2799.84
2799.44
2798.6
2797.83
2799.48
2802.03
2804.61
2805.13
2805.01
2806.06
2807.17
2807.67
2809.4
2811.55
2811.74
2813.16
2814.87
2815.66
2820.02
2819.57
2817.18
2818.12
2819.56
2821.48
2816.39
2811.74
2796.97
2783.14
2770.48
2794.44
3132.42
3057.6
2787.69
2787.48
2787.81
2788.99
2790.69
2793.1
2795.42
2797.65
2799.04
2799.85
2799.45
2798.6
2797.82
2799.46
2802
2804.59
2805.12
2805.03
2806.09
2807.2
2807.68
2809.4
2811.54
2811.74
2813.18
2814.9
2815.69
2820.04
2819.6
2817.21
2818.17
2819.67
2821.66
2816.68
2812.1
2797.7
2785.73
2772.36
2807.84
3127.61
3029
2789.33
2787.69
2787.47
2787.81
2788.99
2790.68
2793.1
2795.42
2797.66
2799.06
2799.87
2799.46
2798.6
2797.81
2799.43
2801.97
2804.56
2805.1
2805.05
2806.12
2807.23
2807.7
2809.41
2811.54
2811.76
2813.2
2814.94
2815.73
2820.07
2819.63
2817.25
2818.23
2819.79
2821.88
2817.01
2812.48
2798.45
2786.39
2770.33
2826.09
3126.57
2997.04
2791.13
2789.31
2787.68
2787.47
2787.81
2788.98
2790.68
2793.1
2795.42
2797.67
2799.08
2799.88
2799.47
2798.61
2797.79
2799.41
2801.94
2804.54
2805.1
2805.08
2806.16
2807.26
2807.72
2809.41
2811.54
2811.77
2813.23
2814.98
2815.77
2820.11
2819.67
2817.3
2818.32
2819.96
2822.16
2817.4
2812.78
2800.19
2789.07
2773.83
2845.22
3122.68
2959.07
2792.86
2791.12
2789.31
2787.68
2787.47
2787.8
2788.98
2790.68
2793.1
2795.43
2797.69
2799.1
2799.91
2799.49
2798.61
2797.78
2799.38
2801.9
2804.51
2805.09
2805.1
2806.19
2807.3
2807.74
2809.42
2811.54
2811.79
2813.26
2815.02
2815.82
2820.16
2819.72
2817.37
2818.44
2820.16
2822.48
2817.83
2813.43
2800.99
2783.45
2773.12
2869.05
3121.77
2919.11
2794.06
2792.85
2791.12
2789.31
2787.67
2787.46
2787.8
2788.97
2790.68
2793.1
2795.44
2797.7
2799.12
2799.93
2799.51
2798.62
2797.76
2799.35
2801.87
2804.47
2805.08
2805.12
2806.23
2807.33
2807.77
2809.43
2811.55
2811.81
2813.29
2815.07
2815.87
2820.22
2819.78
2817.46
2818.58
2820.41
2822.86
2818.22
2814.22
2806.07
2786.86
2779.72
2891.55
3119.17
2873.16
2794.88
2794.05
2792.85
2791.11
2789.3
2787.67
2787.45
2787.79
2788.97
2790.67
2793.1
2795.44
2797.72
2799.14
2799.96
2799.53
2798.62
2797.75
2799.32
2801.83
2804.45
2805.07
2805.15
2806.27
2807.37
2807.79
2809.44
2811.56
2811.84
2813.33
2815.13
2815.93
2820.29
2819.87
2817.59
2818.76
2820.71
2823.29
2818.63
2815.69
2805.64
2777.03
2780.11
2915.82
3115.22
2826.25
2795.04
2794.88
2794.05
2792.85
2791.11
2789.3
2787.66
2787.45
2787.78
2788.96
2790.67
2793.1
2795.45
2797.74
2799.17
2799.99
2799.55
2798.63
2797.73
2799.29
2801.8
2804.42
2805.06
2805.18
2806.31
2807.41
2807.82
2809.46
2811.58
2811.88
2813.37
2815.2
2816
2820.37
2819.97
2817.75
2818.98
2821.06
2823.73
2819.16
2816.93
2809.24
2779.72
2786.49
2938.46
3109.12
2776.41
2794.34
2795.04
2794.88
2794.05
2792.85
2791.11
2789.3
2787.66
2787.44
2787.77
2788.95
2790.67
2793.11
2795.46
2797.76
2799.2
2800.02
2799.57
2798.64
2797.71
2799.26
2801.76
2804.39
2805.06
2805.21
2806.34
2807.45
2807.85
2809.48
2811.6
2811.92
2813.43
2815.27
2816.08
2820.47
2820.11
2817.95
2819.26
2821.47
2824.17
2820.38
2821.32
2803.92
2778.07
2791.93
2962.39
3098.42
2727.14
2792.63
2794.34
2795.04
2794.88
2794.05
2792.84
2791.1
2789.29
2787.65
2787.43
2787.76
2788.94
2790.67
2793.11
2795.47
2797.78
2799.24
2800.06
2799.6
2798.65
2797.7
2799.23
2801.73
2804.36
2805.06
2805.24
2806.38
2807.48
2807.89
2809.51
2811.64
2811.98
2813.48
2815.37
2816.17
2820.6
2820.28
2818.2
2819.59
2821.93
2824.45
2820.92
2821.45
2807.34
2778.76
2801.4
2982.51
3084.29
2678.75
2790.41
2792.64
2794.34
2795.04
2794.88
2794.05
2792.84
2791.1
2789.28
2787.64
2787.42
2787.75
2788.94
2790.66
2793.11
2795.48
2797.81
2799.27
2800.09
2799.63
2798.66
2797.69
2799.21
2801.7
2804.34
2805.06
2805.27
2806.42
2807.52
2807.93
2809.54
2811.68
2812.04
2813.55
2815.47
2816.28
2820.75
2820.48
2818.51
2819.97
2822.38
2825.58
2824.72
2823.19
2796.85
2778.28
2812.26
3002.13
3063.03
2634.45
2787.47
2790.42
2792.64
2794.34
2795.04
2794.88
2794.05
2792.84
2791.1
2789.28
2787.63
2787.4
2787.74
2788.93
2790.66
2793.11
2795.5
2797.83
2799.31
2800.14
2799.66
2798.67
2797.68
2799.19
2801.67
2804.32
2805.06
2805.3
2806.45
2807.56
2807.97
2809.57
2811.73
2812.12
2813.63
2815.6
2816.4
2820.93
2820.72
2818.88
2820.42
2822.8
2826.11
2826.66
2818.18
2798.83
2779.31
2829.89
3015.64
3037.08
2595.43
2784.32
2787.48
2790.42
2792.64
2794.34
2795.04
2794.88
2794.04
2792.83
2791.09
2789.27
2787.62
2787.39
2787.72
2788.92
2790.65
2793.12
2795.51
2797.87
2799.36
2800.18
2799.69
2798.69
2797.67
2799.17
2801.65
2804.31
2805.06
2805.33
2806.49
2807.6
2808.02
2809.62
2811.79
2812.22
2813.73
2815.76
2816.55
2821.14
2821.01
2819.32
2820.85
2823.51
2828.58
2828.73
2821.58
2794.1
2779.64
2848.71
3025.83
3001.53
2564.65
2781.3
2784.33
2787.48
2790.42
2792.64
2794.34
2795.04
2794.87
2794.04
2792.83
2791.08
2789.26
2787.61
2787.38
2787.71
2788.9
2790.65
2793.12
2795.53
2797.9
2799.4
2800.23
2799.73
2798.71
2797.67
2799.16
2801.64
2804.29
2805.08
2805.37
2806.52
2807.64
2808.08
2809.67
2811.87
2812.33
2813.84
2815.95
2816.71
2821.39
2821.35
2819.84
2821.34
2824.58
2830.61
2827.85
2813.43
2792.59
2782.42
2873.95
3027.21
2960.45
2545.45
2778.79
2781.3
2784.33
2787.48
2790.42
2792.64
2794.35
2795.04
2794.87
2794.04
2792.83
2791.08
2789.25
2787.6
2787.36
2787.69
2788.89
2790.65
2793.13
2795.55
2797.93
2799.45
2800.27
2799.77
2798.73
2797.67
2799.15
2801.63
2804.29
2805.09
2805.4
2806.56
2807.67
2808.14
2809.72
2811.96
2812.47
2813.98
2816.18
2816.9
2821.65
2821.74
2820.41
2821.79
2825.78
2833.78
2826.36
2815.9
2790.44
2784.66
2900.93
3026.21
2897.86
2534.63
2776.57
2778.8
2781.3
2784.33
2787.48
2790.42
2792.64
2794.35
2795.04
2794.87
2794.04
2792.82
2791.07
2789.24
2787.59
2787.34
2787.68
2788.88
2790.65
2793.14
2795.57
2797.97
2799.5
2800.32
2799.81
2798.75
2797.68
2799.15
2801.63
2804.29
2805.12
2805.44
2806.59
2807.72
2808.22
2809.79
2812.07
2812.64
2814.14
2816.46
2817.11
2821.95
2822.19
2821.03
2823.23
2828.51
2832.24
2826.42
2809.9
2788.65
2793.01
2925
3023.15
2830.51
2527.69
2774.88
2776.57
2778.79
2781.3
2784.33
2787.48
2790.43
2792.65
2794.35
2795.04
2794.87
2794.04
2792.82
2791.07
2789.23
2787.57
2787.32
2787.66
2788.87
2790.64
2793.15
2795.59
2798
2799.54
2800.37
2799.85
2798.78
2797.69
2799.16
2801.64
2804.3
2805.15
2805.48
2806.63
2807.76
2808.3
2809.87
2812.2
2812.84
2814.34
2816.8
2817.36
2822.24
2822.63
2821.73
2824.03
2832.35
2831.25
2823.42
2808.89
2788.89
2801.44
2949.49
3013.74
2758.75
2522.4
2773.61
2774.89
2776.57
2778.79
2781.3
2784.34
2787.49
2790.43
2792.65
2794.35
2795.04
2794.87
2794.04
2792.81
2791.06
2789.22
2787.56
2787.31
2787.65
2788.86
2790.64
2793.15
2795.61
2798.04
2799.59
2800.42
2799.89
2798.81
2797.71
2799.18
2801.66
2804.32
2805.19
2805.53
2806.66
2807.81
2808.4
2809.96
2812.35
2813.09
2814.57
2817.22
2817.64
2822.6
2823.09
2823.23
2825.94
2832.8
2830.37
2823.16
2803.46
2788.79
2819.35
2964.01
2994.94
2694.28
2518.34
2772.85
2773.61
2774.89
2776.57
2778.8
2781.31
2784.34
2787.49
2790.44
2792.66
2794.36
2795.04
2794.87
2794.03
2792.81
2791.05
2789.21
2787.55
2787.29
2787.63
2788.85
2790.64
2793.16
2795.63
2798.08
2799.64
2800.47
2799.94
2798.85
2797.75
2799.21
2801.69
2804.35
2805.24
2805.58
2806.7
2807.86
2808.51
2810.06
2812.52
2813.38
2814.84
2817.74
2817.96
2822.85
2823.68
2824.57
2830.98
2831.65
2829.94
2819.76
2800.91
2790.3
2838.95
2977.97
2965.03
2638.47
2515.3
2772.52
2772.85
2773.61
2774.89
2776.57
2778.8
2781.31
2784.34
2787.5
2790.44
2792.66
2794.36
2795.05
2794.88
2794.03
2792.81
2791.05
2789.2
2787.53
2787.27
2787.61
2788.84
2790.64
2793.17
2795.65
2798.12
2799.69
2800.52
2799.98
2798.89
2797.79
2799.25
2801.74
2804.39
2805.31
2805.64
2806.74
2807.93
2808.65
2810.18
2812.72
2813.74
2815.15
2818.32
2818.3
2823.23
2824.77
2825.47
2831.07
2831.91
2828.74
2818.31
2798.01
2791.5
2867.38
2977.59
2917.43
2594.89
2513.07
2772.5
2772.52
2772.85
2773.61
2774.89
2776.58
2778.8
2781.31
2784.35
2787.51
2790.45
2792.67
2794.37
2795.05
2794.88
2794.03
2792.8
2791.04
2789.19
2787.52
2787.25
2787.6
2788.83
2790.64
2793.18
2795.68
2798.16
2799.74
2800.57
2800.03
2798.93
2797.84
2799.31
2801.8
2804.44
2805.39
2805.71
2806.8
2808.01
2808.82
2810.32
2812.95
2814.14
2815.5
2819.07
2818.61
2823.71
2826.35
2830.52
2831.51
2831.21
2827.8
2813.68
2795.39
2798.69
2896.3
2976.78
2852.52
2562.73
2511.53
2773.13
2772.49
2772.52
2772.85
2773.61
2774.89
2776.58
2778.8
2781.32
2784.35
2787.51
2790.46
2792.68
2794.38
2795.05
2794.88
2794.03
2792.8
2791.03
2789.18
2787.51
2787.24
2787.58
2788.82
2790.64
2793.2
2795.7
2798.2
2799.79
2800.62
2800.07
2798.99
2797.91
2799.38
2801.87
2804.51
2805.48
2805.8
2806.86
2808.1
2809.02
2810.48
2813.2
2814.64
2815.89
2819.79
2818.84
2824.65
2827.47
2829.9
2832.03
2831.69
2825.68
2810.94
2795.24
2805.82
2921.34
2967.19
2776.86
2540.78
2510.49
2774.27
2773.13
2772.49
2772.52
2772.85
2773.61
2774.89
2776.58
2778.81
2781.32
2784.36
2787.52
2790.47
2792.69
2794.38
2795.06
2794.88
2794.03
2792.79
2791.03
2789.17
2787.49
2787.22
2787.57
2788.81
2790.65
2793.21
2795.73
2798.24
2799.83
2800.66
2800.12
2799.05
2797.99
2799.47
2801.96
2804.59
2805.6
2805.91
2806.94
2808.22
2809.27
2810.66
2813.48
2815.13
2816.31
2820.91
2819.92
2825.45
2830.4
2830.12
2832.49
2831.11
2823.81
2805.22
2795.34
2828.18
2939.65
2955.35
2701.05
2526.64
2509.84
2775.61
2774.26
2773.13
2772.49
2772.52
2772.85
2773.61
2774.89
2776.58
2778.81
2781.33
2784.37
2787.53
2790.48
2792.7
2794.39
2795.06
2794.89
2794.03
2792.79
2791.02
2789.16
2787.49
2787.21
2787.56
2788.81
2790.65
2793.23
2795.76
2798.27
2799.87
2800.7
2800.16
2799.11
2798.08
2799.57
2802.06
2804.68
2805.74
2806.04
2807.05
2808.37
2809.57
2810.84
2813.76
2815.87
2816.61
2821.79
2820.6
2829.31
2828.31
2830.51
2832.93
2830.96
2820.01
2802.5
2797.28
2848.18
2950.32
2915.5
2634.53
2518.62
2509.45
2777.18
2775.61
2774.26
2773.12
2772.49
2772.52
2772.85
2773.61
2774.89
2776.58
2778.81
2781.33
2784.38
2787.54
2790.49
2792.71
2794.4
2795.07
2794.89
2794.03
2792.79
2791.02
2789.15
2787.48
2787.19
2787.55
2788.81
2790.66
2793.25
2795.79
2798.31
2799.91
2800.74
2800.21
2799.18
2798.19
2799.69
2802.18
2804.79
2805.91
2806.2
2807.18
2808.54
2809.92
2811.1
2814.08
2816.34
2816.89
2823.97
2821.67
2829.28
2828.19
2830.73
2833.24
2829.95
2816.47
2798.23
2800.49
2884.07
2949.06
2864.38
2584
2514.2
2509.23
2778.78
2777.18
2775.61
2774.26
2773.12
2772.49
2772.52
2772.85
2773.61
2774.89
2776.59
2778.82
2781.34
2784.39
2787.56
2790.5
2792.72
2794.41
2795.08
2794.9
2794.03
2792.79
2791.02
2789.15
2787.47
2787.19
2787.54
2788.81
2790.67
2793.27
2795.81
2798.35
2799.95
2800.78
2800.25
2799.26
2798.31
2799.83
2802.31
2804.92
2806.11
2806.41
2807.34
2808.76
2810.38
2811.28
2814.41
2817.54
2817.47
2825.14
2827.34
2828.27
2828.2
2830.91
2833.4
2829.15
2810.93
2796.72
2809.09
2904.41
2947.96
2781.45
2550
2511.68
2509.11
2780.43
2778.78
2777.18
2775.6
2774.26
2773.12
2772.49
2772.52
2772.85
2773.62
2774.9
2776.59
2778.83
2781.35
2784.4
2787.57
2790.52
2792.74
2794.42
2795.09
2794.9
2794.03
2792.79
2791.02
2789.15
2787.47
2787.18
2787.54
2788.82
2790.69
2793.29
2795.84
2798.38
2799.98
2800.81
2800.29
2799.35
2798.46
2799.99
2802.47
2805.07
2806.34
2806.66
2807.56
2809.03
2810.9
2811.7
2814.65
2817.89
2818.44
2827.3
2826.97
2827.92
2828.13
2831.02
2833.59
2826.97
2807.43
2795.52
2827.24
2926.76
2921.61
2696.7
2529.81
2510.28
2509.05
2781.92
2780.42
2778.78
2777.18
2775.6
2774.25
2773.12
2772.49
2772.52
2772.85
2773.62
2774.9
2776.6
2778.83
2781.36
2784.41
2787.59
2790.53
2792.75
2794.44
2795.09
2794.91
2794.04
2792.79
2791.02
2789.15
2787.47
2787.18
2787.55
2788.83
2790.71
2793.31
2795.88
2798.41
2800.01
2800.83
2800.34
2799.45
2798.63
2800.18
2802.64
2805.24
2806.61
2806.97
2807.81
2809.39
2811.57
2811.78
2814.85
2820.21
2819.33
2828.68
2827.93
2827.93
2828.19
2831.02
2833.36
2825.24
2805.05
2798.94
2855.32
2926.38
2892.74
2621.73
2518.76
2509.57
2509.02
2783.31
2781.91
2780.42
2778.77
2777.17
2775.6
2774.25
2773.12
2772.49
2772.52
2772.85
2773.62
2774.9
2776.6
2778.84
2781.37
2784.43
2787.6
2790.55
2792.77
2794.45
2795.11
2794.92
2794.05
2792.8
2791.03
2789.15
2787.48
2787.19
2787.56
2788.85
2790.73
2793.35
2795.91
2798.44
2800.03
2800.85
2800.38
2799.56
2798.82
2800.39
2802.83
2805.42
2806.92
2807.33
2808.18
2809.76
2812.32
2812.66
2815.15
2820.16
2825.1
2828.27
2828.26
2827.99
2828.3
2830.57
2832.34
2820.93
2804.59
2809.08
2885.57
2927.63
2811.8
2568.85
2513.27
2509.23
2509.01
2784.65
2783.3
2781.91
2780.42
2778.77
2777.17
2775.6
2774.25
2773.11
2772.49
2772.52
2772.85
2773.62
2774.91
2776.61
2778.85
2781.39
2784.44
2787.62
2790.57
2792.78
2794.47
2795.12
2794.93
2794.06
2792.8
2791.03
2789.16
2787.49
2787.2
2787.58
2788.88
2790.76
2793.38
2795.95
2798.47
2800.05
2800.87
2800.43
2799.68
2799.03
2800.62
2803.03
2805.61
2807.27
2807.8
2808.54
2810.32
2813.25
2812.5
2816.55
2822.98
2824.74
2828.23
2828.87
2828.3
2828.29
2829.4
2828.3
2814.94
2806.16
2824.9
2909.91
2918.74
2721.35
2537.01
2510.76
2509.09
2509
2785.72
2784.64
2783.3
2781.91
2780.42
2778.77
2777.17
2775.59
2774.25
2773.11
2772.49
2772.52
2772.85
2773.63
2774.91
2776.62
2778.86
2781.4
2784.46
2787.64
2790.59
2792.8
2794.48
2795.13
2794.94
2794.06
2792.81
2791.05
2789.17
2787.51
2787.22
2787.61
2788.91
2790.8
2793.42
2795.99
2798.51
2800.07
2800.88
2800.48
2799.81
2799.28
2800.88
2803.23
2805.81
2807.64
2808.27
2809.2
2810.66
2814.43
2815.45
2816.87
2823.07
2825.2
2828.38
2829.15
2828.81
2828.73
2828.07
2822.14
2807.42
2804.74
2854.99
2917.87
2874.57
2631.93
2520.68
2509.67
2509.03
2509
2786.57
2785.71
2784.64
2783.3
2781.91
2780.41
2778.77
2777.17
2775.59
2774.24
2773.11
2772.49
2772.52
2772.85
2773.63
2774.92
2776.63
2778.87
2781.41
2784.48
2787.66
2790.61
2792.82
2794.5
2795.14
2794.95
2794.08
2792.82
2791.06
2789.19
2787.54
2787.25
2787.64
2788.95
2790.85
2793.47
2796.03
2798.54
2800.09
2800.89
2800.54
2799.96
2799.56
2801.16
2803.45
2805.99
2808.05
2808.95
2809.53
2811.31
2815.48
2814.1
2821.56
2822.81
2825.93
2828.52
2829.56
2829.84
2829.5
2825.95
2815.17
2800.81
2811.95
2879.44
2915.09
2804.92
2569.65
2513.35
2509.23
2509.01
2509
2787.31
2786.56
2785.71
2784.64
2783.3
2781.9
2780.41
2778.77
2777.17
2775.59
2774.24
2773.11
2772.49
2772.52
2772.86
2773.64
2774.93
2776.64
2778.89
2781.43
2784.5
2787.68
2790.63
2792.84
2794.51
2795.15
2794.97
2794.09
2792.84
2791.08
2789.21
2787.58
2787.29
2787.69
2789
2790.9
2793.53
2796.09
2798.58
2800.11
2800.91
2800.6
2800.12
2799.88
2801.49
2803.65
2806.22
2808.38
2809.44
2810.77
2811.63
2818.69
2820.78
2821.01
2823.05
2826.62
2828.91
2830.01
2831.47
2831.9
2826.15
2810.06
2799.25
2825.42
2902.84
2910.14
2698.48
2534.19
2510.45
2509.07
2509
2509
2787.9
2787.31
2786.56
2785.71
2784.64
2783.3
2781.9
2780.41
2778.76
2777.16
2775.59
2774.24
2773.11
2772.49
2772.52
2772.86
2773.64
2774.94
2776.65
2778.9
2781.45
2784.52
2787.71
2790.65
2792.86
2794.53
2795.17
2794.98
2794.1
2792.85
2791.1
2789.24
2787.62
2787.34
2787.74
2789.07
2790.97
2793.6
2796.15
2798.63
2800.13
2800.92
2800.67
2800.32
2800.24
2801.83
2803.88
2806.31
2808.82
2810.35
2810.95
2813.37
2819.15
2820.54
2821.36
2824.07
2827.21
2829.09
2830.7
2832.56
2835.04
2825.38
2809.2
2804.85
2858.23
2906.77
2855.29
2609.36
2517.92
2509.43
2509.02
2509
2509
2788.38
2787.9
2787.31
2786.56
2785.71
2784.64
2783.29
2781.9
2780.41
2778.76
2777.16
2775.59
2774.24
2773.11
2772.49
2772.52
2772.86
2773.65
2774.95
2776.66
2778.92
2781.47
2784.54
2787.73
2790.67
2792.88
2794.55
2795.18
2795
2794.12
2792.87
2791.13
2789.28
2787.68
2787.4
2787.82
2789.15
2791.06
2793.69
2796.23
2798.68
2800.16
2800.94
2800.76
2800.55
2800.65
2802.27
2804.02
2806.54
2808.89
2810.79
2814.16
2813.97
2822.14
2820.96
2822.39
2824.87
2827.51
2829.03
2830.96
2833.74
2834.88
2823.89
2808.33
2817.62
2882.59
2898.12
2752.48
2550.55
2511.69
2509.11
2509
2509
2509
2788.67
2788.38
2787.9
2787.31
2786.56
2785.71
2784.64
2783.29
2781.9
2780.4
2778.76
2777.16
2775.58
2774.24
2773.11
2772.49
2772.53
2772.87
2773.66
2774.96
2776.68
2778.94
2781.49
2784.57
2787.76
2790.7
2792.91
2794.56
2795.2
2795.02
2794.14
2792.9
2791.16
2789.33
2787.74
2787.48
2787.91
2789.25
2791.16
2793.79
2796.31
2798.75
2800.19
2800.96
2800.87
2800.82
2801.15
2802.68
2804.4
2806.38
2809.24
2811.93
2812.4
2820.08
2821.65
2821.64
2823.23
2825.6
2827.41
2828.32
2830.1
2832.32
2831.78
2813.75
2811.49
2841.68
2899.33
2852.7
2644.84
2523.02
2509.7
2509.03
2509
2509
2509
2788.81
2788.67
2788.38
2787.9
2787.31
2786.56
2785.71
2784.63
2783.29
2781.9
2780.4
2778.76
2777.16
2775.58
2774.24
2773.11
2772.5
2772.53
2772.88
2773.67
2774.97
2776.69
2778.96
2781.51
2784.59
2787.78
2790.72
2792.93
2794.58
2795.21
2795.04
2794.17
2792.93
2791.2
2789.38
2787.83
2787.57
2788.02
2789.37
2791.28
2793.9
2796.42
2798.83
2800.24
2800.99
2801.02
2801.14
2801.7
2803.31
2804.48
2806.49
2808.93
2812.76
2817.86
2819.26
2821.41
2822.26
2824.01
2826.12
2826.87
2827.35
2827.97
2828.4
2820.41
2809.55
2813.1
2875.31
2904.84
2797.43
2565.5
2512.79
2509.15
2509
2509
2509
2509
2788.83
2788.81
2788.67
2788.37
2787.9
2787.31
2786.56
2785.7
2784.63
2783.29
2781.89
2780.4
2778.76
2777.16
2775.58
2774.24
2773.11
2772.5
2772.54
2772.89
2773.68
2774.98
2776.71
2778.98
2781.54
2784.62
2787.81
2790.75
2792.95
2794.6
2795.23
2795.06
2794.19
2792.96
2791.24
2789.45
2787.92
2787.69
2788.14
2789.51
2791.42
2794.03
2796.55
2798.92
2800.29
2801.05
2801.17
2801.58
2802.38
2803.77
2805.2
2805.98
2811.03
2813.95
2816.1
2819.16
2821.29
2822.49
2824.9
2826.4
2826.6
2826.57
2827.31
2823.99
2813.3
2799.6
2833.69
2895
2895.23
2664.21
2526.72
2509.84
2509.03
2509
2509
2509
2509
2788.69
2788.83
2788.81
2788.67
2788.37
2787.9
2787.3
2786.56
2785.7
2784.63
2783.29
2781.89
2780.4
2778.76
2777.16
2775.58
2774.24
2773.11
2772.5
2772.55
2772.9
2773.69
2775
2776.73
2779
2781.57
2784.65
2787.84
2790.77
2792.97
2794.62
2795.25
2795.08
2794.22
2792.99
2791.29
2789.53
2788.04
2787.82
2788.3
2789.68
2791.59
2794.2
2796.71
2799.03
2800.37
2801.11
2801.39
2802.04
2803.18
2804.83
2805.17
2806.92
2809.84
2814.09
2815.26
2819.22
2820.82
2823.19
2825.84
2827.35
2827.26
2827.84
2827.09
2821.99
2807.22
2806.1
2862.08
2896.46
2784.05
2576.36
2513.2
2509.15
2509
2509
2509
2509
2509
2788.37
2788.7
2788.83
2788.81
2788.67
2788.37
2787.9
2787.3
2786.56
2785.7
2784.63
2783.28
2781.89
2780.4
2778.76
2777.16
2775.58
2774.24
2773.11
2772.51
2772.56
2772.91
2773.71
2775.02
2776.75
2779.03
2781.6
2784.68
2787.87
2790.8
2792.99
2794.63
2795.26
2795.1
2794.25
2793.03
2791.35
2789.62
2788.18
2787.97
2788.47
2789.88
2791.79
2794.39
2796.88
2799.16
2800.45
2801.25
2801.58
2802.8
2804.05
2805.48
2807.52
2806.66
2813.21
2812.28
2815.96
2818.91
2821.32
2824.47
2827.44
2829.07
2830.57
2831.19
2830.15
2821.19
2809.16
2829.57
2885.53
2847.43
2684.01
2527.59
2509.75
2509.02
2509
2509
2509
2509
2509
2787.94
2788.37
2788.69
2788.83
2788.81
2788.67
2788.37
2787.9
2787.3
2786.55
2785.7
2784.63
2783.28
2781.89
2780.4
2778.76
2777.15
2775.58
2774.24
2773.12
2772.52
2772.57
2772.92
2773.72
2775.04
2776.78
2779.06
2781.63
2784.72
2787.9
2790.83
2793.01
2794.65
2795.28
2795.12
2794.28
2793.08
2791.42
2789.73
2788.34
2788.15
2788.68
2790.11
2792.03
2794.61
2797.09
2799.29
2800.59
2801.36
2801.97
2803.34
2805.16
2807.46
2806.36
2812.03
2811.75
2813
2816.48
2819.39
2822.39
2826.25
2829.02
2831.88
2833.12
2836.35
2832.26
2816.76
2819
2858.04
2885.35
2810.74
2572.69
2512.73
2509.11
2509
2509
2509
2509
2509
2509
2787.38
2787.94
2788.37
2788.69
2788.82
2788.81
2788.67
2788.37
2787.9
2787.3
2786.55
2785.7
2784.63
2783.28
2781.89
2780.4
2778.75
2777.15
2775.58
2774.24
2773.12
2772.53
2772.58
2772.94
2773.74
2775.06
2776.81
2779.09
2781.66
2784.76
2787.93
2790.85
2793.03
2794.66
2795.29
2795.15
2794.31
2793.13
2791.5
2789.86
2788.52
2788.36
2788.92
2790.38
2792.31
2794.87
2797.32
2799.48
2800.68
2801.68
2802.14
2804.5
2806.49
2808.64
2812.21
2811.56
2812.35
2814.14
2817.8
2820.23
2824.01
2827.55
2830.95
2832.44
2835.14
2835.12
2822.79
2816.06
2827.27
2884.74
2892.6
2666.01
2525.27
2509.52
2509.01
2509
2509
2509
2509
2509
2509
2786.75
2787.39
2787.94
2788.37
2788.69
2788.82
2788.81
2788.67
2788.37
2787.9
2787.3
2786.55
2785.7
2784.62
2783.28
2781.89
2780.4
2778.76
2777.16
2775.58
2774.25
2773.13
2772.54
2772.59
2772.96
2773.77
2775.09
2776.84
2779.13
2781.7
2784.8
2787.96
2790.88
2793.05
2794.67
2795.31
2795.17
2794.35
2793.19
2791.58
2790
2788.73
2788.61
2789.2
2790.7
2792.64
2795.18
2797.58
2799.62
2800.91
2801.73
2802.81
2805.16
2809.31
2812.7
2812.15
2812.84
2813.71
2816.29
2818.61
2821.47
2824.79
2828.12
2829.68
2831.55
2830.9
2825.34
2814.54
2809.12
2857.04
2893.47
2779.69
2564.65
2511.48
2509.06
2509
2509
2509
2509
2509
2509
2509
2786.02
2786.76
2787.38
2787.94
2788.36
2788.69
2788.82
2788.81
2788.67
2788.37
2787.9
2787.3
2786.55
2785.7
2784.62
2783.28
2781.89
2780.4
2778.76
2777.16
2775.58
2774.25
2773.14
2772.56
2772.61
2772.98
2773.79
2775.12
2776.88
2779.17
2781.74
2784.84
2788
2790.9
2793.07
2794.68
2795.32
2795.2
2794.39
2793.24
2791.67
2790.17
2788.97
2788.89
2789.53
2791.06
2793.02
2795.52
2797.84
2799.87
2800.89
2802.22
2802.99
2808.04
2811.57
2813.16
2813.92
2813.93
2816.09
2817.63
2820.11
2821.76
2825.11
2826.47
2827.62
2825.72
2825.08
2815.68
2801.74
2819.96
2879.82
2834.84
2648.76
2519.78
2509.27
2509.01
2509
2509
2509
2509
2509
2509
2509
2785.22
2786.02
2786.75
2787.38
2787.93
2788.36
2788.69
2788.82
2788.8
2788.67
2788.37
2787.9
2787.3
2786.55
2785.7
2784.62
2783.28
2781.89
2780.4
2778.76
2777.16
2775.59
2774.26
2773.15
2772.58
2772.63
2773.01
2773.82
2775.16
2776.92
2779.21
2781.79
2784.88
2788.03
2790.93
2793.09
2794.69
2795.34
2795.23
2794.43
2793.31
2791.78
2790.35
2789.25
2789.22
2789.91
2791.49
2793.45
2795.95
2798.12
2799.92
2801.36
2802.02
2804.82
2808.86
2813.55
2815.29
2814.6
2816.46
2817.34
2819.75
2820.63
2822.49
2824.51
2825.8
2823.93
2825.83
2819.95
2808.44
2804.4
2862.26
2858.02
2766.1
2547.14
2510.23
2509.03
2509
2509
2509
2509
2509
2509
2509
2509
2784.36
2785.23
2786.02
2786.75
2787.38
2787.93
2788.36
2788.69
2788.82
2788.8
2788.67
2788.37
2787.9
2787.3
2786.56
2785.7
2784.62
2783.28
2781.89
2780.4
2778.76
2777.16
2775.59
2774.27
2773.16
2772.6
2772.66
2773.04
2773.86
2775.2
2776.96
2779.26
2781.84
2784.93
2788.06
2790.95
2793.1
2794.7
2795.35
2795.25
2794.48
2793.37
2791.89
2790.57
2789.58
2789.61
2790.35
2791.96
2793.98
2796.36
2798.42
2800.23
2800.93
2803.8
2804.99
2813.2
2815.05
2814.64
2816.47
2817.17
2819.42
2820.66
2821.78
2823.83
2826.03
2825.01
2828.38
2826.16
2822.65
2808.93
2844.35
2878.29
2854.34
2610.59
2514.41
2509.13
2509
2509
2509
2509
2509
2509
2509
2509
2509
2783.47
2784.36
2785.22
2786.02
2786.75
2787.38
2787.93
2788.36
2788.69
2788.82
2788.8
2788.67
2788.37
2787.9
2787.31
2786.56
2785.7
2784.62
2783.28
2781.89
2780.4
2778.76
2777.16
2775.6
2774.28
2773.18
2772.62
2772.69
2773.07
2773.89
2775.24
2777.01
2779.31
2781.89
2784.98
2788.1
2790.98
2793.11
2794.7
2795.36
2795.28
2794.52
2793.45
2792.02
2790.82
2789.96
2790.07
2790.86
2792.54
2794.5
2796.96
2798.62
2800.13
2802.1
2802.31
2810.12
2811.97
2814.06
2815.72
2816.7
2818.43
2820.39
2821.76
2824.16
2827.04
2828.51
2832.94
2832.98
2835.49
2814.19
2837.17
2873.03