/*--------------------------------*- C++ -*----------------------------------*\
| =========                 |                                                 |
| \\      /  F ield         | OpenFOAM: The Open Source CFD Toolbox           |
|  \\    /   O peration     | Version:  v2012                                 |
|   \\  /    A nd           | Website:  www.openfoam.com                      |
|    \\/     M anipulation  |                                                 |
\*---------------------------------------------------------------------------*/
FoamFile
{
    version     2.0;
    format      ascii;
    class       volScalarField;
    location    "3800";
    object      Prt;
}
// * * * * * * * * * * * * * * * * * * * * * * * * * * * * * * * * * * * * * //

dimensions      [0 0 0 0 0 0 0];


internalField   nonuniform List<scalar> 
29502
(
0.332358
0.334363
0.333436
0.334334
0.334254
0.33382
0.334279
0.334085
0.334319
0.333965
0.334244
0.334006
0.333646
0.334344
0.334021
0.334226
0.333967
0.333449
0.333014
0.334347
0.334042
0.334219
0.333948
0.33336
0.332665
0.332278
0.33434
0.334047
0.334216
0.33394
0.333319
0.332511
0.331757
0.331486
0.334324
0.334045
0.334216
0.333937
0.333303
0.332442
0.33153
0.330789
0.330683
0.334307
0.334041
0.334219
0.333938
0.3333
0.332419
0.331432
0.33049
0.329826
0.329912
0.334288
0.334035
0.334223
0.333941
0.333305
0.332416
0.331402
0.330363
0.329463
0.328921
0.329204
0.334269
0.334029
0.334226
0.333945
0.333312
0.332427
0.3314
0.330327
0.329311
0.328508
0.32811
0.328577
0.334253
0.334023
0.334229
0.333948
0.333322
0.332442
0.331418
0.330326
0.329269
0.328337
0.32766
0.327406
0.328034
0.334238
0.334015
0.334232
0.333951
0.33333
0.332459
0.331442
0.330352
0.329268
0.32829
0.327476
0.326931
0.326808
0.327563
0.334227
0.334008
0.334237
0.333955
0.333337
0.332474
0.331468
0.330383
0.329299
0.328287
0.327424
0.326738
0.326316
0.326298
0.327157
0.334217
0.334
0.33424
0.333959
0.333345
0.332488
0.331491
0.330417
0.329336
0.328322
0.327419
0.326684
0.326117
0.325794
0.325862
0.32681
0.33421
0.333991
0.334243
0.333962
0.333355
0.332502
0.331511
0.330447
0.329377
0.328362
0.327456
0.326676
0.326059
0.325591
0.325349
0.325492
0.326517
0.334204
0.333982
0.334247
0.333966
0.333362
0.33252
0.331532
0.330474
0.329413
0.328407
0.327496
0.326712
0.326048
0.32553
0.325144
0.324972
0.325179
0.326276
0.334199
0.333972
0.33425
0.333969
0.33337
0.332532
0.331558
0.330502
0.329445
0.328446
0.327543
0.326752
0.326084
0.325517
0.325081
0.324766
0.324652
0.324917
0.326088
0.334198
0.333958
0.334253
0.333972
0.333377
0.332545
0.331576
0.330536
0.329478
0.328482
0.327584
0.326798
0.326123
0.325551
0.325066
0.324701
0.324446
0.324382
0.324701
0.325956
0.334205
0.333938
0.334256
0.333975
0.333383
0.332558
0.331596
0.33056
0.329519
0.328519
0.327622
0.326839
0.326169
0.325589
0.325099
0.324684
0.32438
0.324175
0.324155
0.324526
0.32588
0.334217
0.333906
0.334258
0.333977
0.33339
0.332568
0.331614
0.330585
0.329547
0.328563
0.327661
0.326878
0.326209
0.325634
0.325135
0.324717
0.324362
0.324108
0.323946
0.323964
0.324391
0.325866
0.334234
0.333855
0.33426
0.33398
0.333396
0.33258
0.331629
0.330609
0.329578
0.328595
0.327707
0.326918
0.326248
0.325673
0.325179
0.324751
0.324393
0.324089
0.323878
0.323752
0.323806
0.324294
0.325916
0.334253
0.333777
0.334263
0.333982
0.333401
0.332589
0.331646
0.330629
0.329606
0.328629
0.327741
0.326965
0.326288
0.325712
0.325218
0.324794
0.324426
0.32412
0.323858
0.323683
0.323589
0.323677
0.324232
0.326032
0.33427
0.333665
0.334265
0.333984
0.333405
0.332598
0.33166
0.33065
0.32963
0.328661
0.327776
0.326999
0.326335
0.325752
0.325256
0.324831
0.324468
0.324151
0.323888
0.323663
0.323518
0.323452
0.323575
0.324208
0.326221
0.334283
0.333516
0.334267
0.333986
0.33341
0.332606
0.331672
0.330669
0.329655
0.328687
0.327811
0.327036
0.326368
0.325798
0.325296
0.32487
0.324504
0.324192
0.323919
0.323692
0.323497
0.323379
0.323339
0.323501
0.324226
0.326498
0.334289
0.333267
0.334269
0.333987
0.333414
0.332614
0.331683
0.330684
0.329677
0.328716
0.327839
0.327071
0.326405
0.325832
0.325341
0.324908
0.324542
0.324228
0.323959
0.323723
0.323527
0.323357
0.323263
0.323248
0.323454
0.324293
0.326894
0.33429
0.332835
0.334271
0.33399
0.333418
0.33262
0.331695
0.330699
0.329695
0.32874
0.327869
0.3271
0.326441
0.325868
0.325374
0.324954
0.324581
0.324265
0.323994
0.323762
0.323556
0.323386
0.32324
0.323166
0.323178
0.323436
0.324415
0.327408
0.334287
0.331833
0.334274
0.333992
0.333423
0.332626
0.331704
0.330714
0.329713
0.32876
0.327894
0.327131
0.32647
0.325904
0.325411
0.324986
0.324625
0.324303
0.324031
0.323796
0.323595
0.323416
0.323268
0.323141
0.323088
0.323128
0.323452
0.324602
0.328052
0.334281
0.328623
0.334275
0.333994
0.333427
0.332635
0.331713
0.330725
0.329731
0.32878
0.327916
0.327157
0.326502
0.325934
0.325447
0.325022
0.324657
0.324347
0.324069
0.323833
0.323629
0.323454
0.323297
0.323168
0.32306
0.323027
0.3231
0.323505
0.324867
0.328834
0.334272
0.319994
0.334276
0.333995
0.333431
0.332642
0.331724
0.330737
0.329744
0.3288
0.327937
0.327179
0.326528
0.325966
0.325477
0.325058
0.324693
0.324379
0.324112
0.323871
0.323666
0.323488
0.323335
0.323197
0.323086
0.322994
0.322983
0.323096
0.323604
0.32522
0.329748
0.334264
0.303642
0.334277
0.333996
0.333433
0.332648
0.331735
0.330752
0.329758
0.328815
0.327959
0.327202
0.326551
0.325992
0.325508
0.325088
0.324728
0.324414
0.324143
0.323913
0.323703
0.323524
0.323368
0.323235
0.323114
0.323019
0.322944
0.322957
0.32312
0.323758
0.325661
0.330753
0.334255
0.298562
0.334279
0.333997
0.333435
0.332652
0.331744
0.330766
0.329776
0.328831
0.327975
0.327224
0.326573
0.326015
0.325535
0.32512
0.324758
0.324449
0.324178
0.323944
0.323745
0.323561
0.323404
0.323267
0.323151
0.323046
0.322966
0.322908
0.32295
0.323177
0.323977
0.326193
0.33175
0.334247
0.298535
0.33428
0.333999
0.333437
0.332655
0.331749
0.330776
0.329792
0.32885
0.327992
0.327241
0.326596
0.326038
0.325558
0.325146
0.32479
0.324479
0.324213
0.323979
0.323776
0.323603
0.323441
0.323303
0.323184
0.323083
0.322992
0.322926
0.322887
0.322964
0.323276
0.324275
0.326868
0.332608
0.33424
0.300025
0.334282
0.334
0.33344
0.332658
0.331753
0.330782
0.329804
0.328868
0.328012
0.327259
0.326613
0.326061
0.325581
0.325169
0.324816
0.324511
0.324243
0.324013
0.32381
0.323633
0.323483
0.32334
0.323219
0.323115
0.323028
0.322949
0.322898
0.322882
0.323005
0.323425
0.324667
0.32769
0.333253
0.334235
0.302615
0.334284
0.334002
0.333444
0.332663
0.331758
0.330788
0.329812
0.328882
0.328031
0.32728
0.326632
0.326079
0.325604
0.325192
0.324839
0.324537
0.324274
0.324043
0.323845
0.323667
0.323513
0.323382
0.323257
0.32315
0.323059
0.322984
0.322919
0.322883
0.322897
0.323078
0.323637
0.325166
0.328655
0.333694
0.334229
0.309786
0.334285
0.334003
0.333447
0.332668
0.331764
0.330794
0.329818
0.32889
0.328046
0.327299
0.326653
0.326098
0.325623
0.325216
0.324862
0.324559
0.3243
0.324074
0.323874
0.323702
0.323547
0.323412
0.323298
0.323187
0.323094
0.323014
0.322952
0.3229
0.322884
0.322933
0.323191
0.323927
0.325774
0.329736
0.333978
0.334224
0.319924
0.334287
0.334005
0.33345
0.332674
0.331772
0.330802
0.329825
0.328897
0.328055
0.327314
0.326673
0.326119
0.325642
0.325234
0.324886
0.324583
0.324323
0.3241
0.323905
0.323731
0.323581
0.323445
0.323328
0.323229
0.323131
0.323049
0.322981
0.322931
0.322893
0.322902
0.322996
0.323355
0.324308
0.326489
0.330849
0.334152
0.334218
0.328451
0.334288
0.334006
0.333454
0.33268
0.331779
0.330811
0.329835
0.328905
0.328063
0.327324
0.326688
0.326139
0.325663
0.325254
0.324904
0.324606
0.324346
0.324123
0.323931
0.323762
0.32361
0.323479
0.323361
0.323258
0.323172
0.323085
0.323015
0.322958
0.322921
0.3229
0.322939
0.323092
0.323584
0.324796
0.327359
0.331842
0.334248
0.334214
0.330643
0.334289
0.334007
0.333456
0.332685
0.331787
0.330821
0.329846
0.328916
0.328072
0.327333
0.326699
0.326155
0.325683
0.325275
0.324924
0.324625
0.32437
0.324146
0.323953
0.323788
0.323641
0.323509
0.323395
0.323292
0.323202
0.323126
0.323051
0.322991
0.322946
0.322922
0.322923
0.323001
0.323233
0.323892
0.325403
0.32838
0.332624
0.334293
0.334211
0.326085
0.33429
0.334008
0.333459
0.332689
0.331794
0.330831
0.329857
0.328928
0.328084
0.327343
0.326708
0.326166
0.325699
0.325295
0.324945
0.324645
0.324389
0.32417
0.323977
0.32381
0.323666
0.323539
0.323424
0.323325
0.323235
0.323156
0.323091
0.323026
0.322977
0.322945
0.322936
0.322965
0.323092
0.323429
0.324297
0.326122
0.329517
0.333198
0.33431
0.334208
0.312323
0.334291
0.334009
0.33346
0.332693
0.3318
0.330839
0.329868
0.328941
0.328097
0.327355
0.326718
0.326175
0.325711
0.325311
0.324966
0.324666
0.324409
0.324189
0.324
0.323833
0.323689
0.323565
0.323454
0.323354
0.323268
0.323189
0.32312
0.323066
0.323011
0.322974
0.322955
0.322966
0.323029
0.323222
0.323697
0.324815
0.326966
0.330682
0.333611
0.334314
0.334208
0.300912
0.334291
0.334009
0.333462
0.332695
0.331805
0.330847
0.329878
0.328953
0.32811
0.327369
0.326731
0.326186
0.325721
0.325323
0.324982
0.324686
0.32443
0.324209
0.324019
0.323857
0.323712
0.323587
0.32348
0.323384
0.323296
0.323221
0.323153
0.323094
0.32305
0.323006
0.322981
0.322977
0.323014
0.323122
0.323403
0.324052
0.32545
0.327968
0.331706
0.333893
0.334315
0.334208
0.298162
0.334292
0.33401
0.333462
0.332697
0.331808
0.330853
0.329887
0.328964
0.328123
0.327383
0.326745
0.3262
0.325732
0.325334
0.324994
0.324703
0.32445
0.32423
0.32404
0.323876
0.323735
0.32361
0.323502
0.32341
0.323326
0.32325
0.323185
0.323127
0.323078
0.323043
0.323011
0.322999
0.323014
0.323084
0.32325
0.323649
0.324513
0.326199
0.329113
0.332507
0.334107
0.334315
0.334204
0.297978
0.334292
0.33401
0.333463
0.332698
0.331811
0.330857
0.329894
0.328974
0.328134
0.327396
0.32676
0.326214
0.325746
0.325346
0.325005
0.324715
0.324467
0.32425
0.324061
0.323896
0.323755
0.323633
0.323525
0.323432
0.323352
0.323279
0.323213
0.323158
0.32311
0.323071
0.323047
0.323026
0.32303
0.323071
0.323182
0.323427
0.323977
0.325095
0.327082
0.330319
0.333111
0.334237
0.334315
0.334203
0.297971
0.334293
0.33401
0.333463
0.332698
0.331812
0.33086
0.329899
0.328982
0.328145
0.327408
0.326773
0.326229
0.325761
0.32536
0.325018
0.324727
0.324479
0.324267
0.324081
0.323917
0.323775
0.323653
0.323549
0.323455
0.323374
0.323305
0.323242
0.323186
0.323141
0.323102
0.323074
0.32306
0.323053
0.323077
0.323149
0.323315
0.323665
0.324404
0.325792
0.328127
0.331398
0.333547
0.334307
0.334315
0.334197
0.297967
0.334294
0.334011
0.333464
0.332699
0.331812
0.330862
0.329903
0.328987
0.328153
0.327418
0.326785
0.326242
0.325775
0.325375
0.325032
0.324739
0.324491
0.32428
0.324097
0.323937
0.323796
0.323673
0.323568
0.323478
0.323397
0.323327
0.323267
0.323215
0.323168
0.323132
0.323103
0.323085
0.323084
0.323093
0.323142
0.323255
0.323494
0.323981
0.324947
0.326603
0.329311
0.332263
0.33381
0.33434
0.334315
0.334186
0.297965
0.334294
0.334012
0.333465
0.3327
0.331813
0.330862
0.329904
0.328991
0.328159
0.327427
0.326796
0.326254
0.325789
0.32539
0.325047
0.324754
0.324504
0.324291
0.32411
0.323954
0.323816
0.323694
0.323589
0.323498
0.32342
0.323349
0.32329
0.32324
0.323196
0.323159
0.323133
0.323114
0.323107
0.323119
0.323149
0.323231
0.323397
0.323733
0.324393
0.325606
0.327582
0.33053
0.332933
0.334085
0.334353
0.334316
0.334157
0.29797
0.334295
0.334013
0.333466
0.332702
0.331814
0.330863
0.329905
0.328993
0.328164
0.327433
0.326804
0.326265
0.325801
0.325403
0.325062
0.324769
0.324518
0.324305
0.324122
0.323967
0.323833
0.323714
0.32361
0.323518
0.323439
0.323373
0.323312
0.323262
0.323221
0.323186
0.323158
0.323142
0.323134
0.32314
0.323168
0.323224
0.323347
0.323585
0.324049
0.324922
0.326386
0.328723
0.331575
0.333437
0.334231
0.334357
0.334316
0.334073
0.298035
0.334297
0.334014
0.333468
0.332704
0.331817
0.330864
0.329906
0.328994
0.328166
0.327438
0.326811
0.326274
0.325812
0.325415
0.325076
0.324784
0.324534
0.324319
0.324136
0.323979
0.323846
0.323731
0.32363
0.32354
0.32346
0.323392
0.323335
0.323284
0.323243
0.32321
0.323185
0.323166
0.32316
0.323164
0.323184
0.323234
0.323324
0.323501
0.323834
0.324465
0.325571
0.327315
0.329968
0.332391
0.333787
0.334313
0.334359
0.334316
0.333786
0.298857
0.334298
0.334015
0.33347
0.332707
0.33182
0.330868
0.329908
0.328996
0.328167
0.327441
0.326816
0.326281
0.325821
0.325426
0.325087
0.324798
0.324549
0.324335
0.324151
0.323993
0.323858
0.323744
0.323646
0.323559
0.323481
0.323412
0.323354
0.323307
0.323265
0.323232
0.323208
0.323192
0.323183
0.323189
0.323205
0.323243
0.323321
0.323454
0.323704
0.324165
0.324998
0.326334
0.328422
0.33113
0.333031
0.33404
0.334355
0.334359
0.334317
0.33189
0.312138
0.334299
0.334016
0.333473
0.332711
0.331824
0.330871
0.329911
0.328998
0.32817
0.327443
0.32682
0.326287
0.325829
0.325436
0.325099
0.32481
0.324563
0.32435
0.324167
0.324008
0.323872
0.323756
0.32366
0.323576
0.323501
0.323433
0.323374
0.323326
0.323287
0.323254
0.32323
0.323214
0.323208
0.32321
0.323227
0.323259
0.323321
0.323434
0.323625
0.323973
0.324598
0.325646
0.327244
0.329663
0.332058
0.333519
0.334212
0.334372
0.33436
0.334316
0.314863
0.332704
0.3343
0.334017
0.333476
0.332715
0.331829
0.330877
0.329916
0.329002
0.328172
0.327446
0.326823
0.326291
0.325835
0.325443
0.325108
0.324821
0.324575
0.324364
0.324182
0.324024
0.323887
0.32377
0.323672
0.323589
0.323517
0.323453
0.323395
0.323346
0.323306
0.323276
0.323251
0.323235
0.323229
0.323232
0.323246
0.323277
0.32333
0.323422
0.32358
0.323849
0.324327
0.325146
0.326408
0.328343
0.330885
0.332775
0.333863
0.334308
0.334379
0.33436
0.334314
0.29866
0.333675
0.334302
0.334019
0.333478
0.332719
0.331835
0.330883
0.329922
0.329007
0.328177
0.327449
0.326826
0.326294
0.325839
0.32545
0.325116
0.324831
0.324586
0.324376
0.324196
0.324039
0.323903
0.323786
0.323686
0.323602
0.323531
0.323469
0.323415
0.323367
0.323326
0.323294
0.323272
0.323256
0.323249
0.323253
0.323267
0.323293
0.323342
0.323421
0.32355
0.32377
0.324142
0.324783
0.325807
0.327322
0.329586
0.331879
0.333336
0.334095
0.33436
0.334381
0.33436
0.334313
0.298423
0.333736
0.334303
0.33402
0.333481
0.332724
0.331841
0.33089
0.329929
0.329014
0.328183
0.327455
0.32683
0.326298
0.325843
0.325455
0.325123
0.324839
0.324596
0.324388
0.324208
0.324053
0.323918
0.323802
0.323702
0.323616
0.323543
0.323483
0.323431
0.323386
0.323346
0.323314
0.323291
0.323277
0.32327
0.323272
0.323285
0.323311
0.323353
0.323425
0.323537
0.323716
0.324019
0.324525
0.325358
0.326584
0.328432
0.330836
0.332635
0.333748
0.334244
0.334383
0.334382
0.33436
0.334309
0.298401
0.333745
0.334303
0.334021
0.333483
0.332728
0.331847
0.330898
0.329938
0.329022
0.328191
0.327461
0.326836
0.326303
0.325848
0.325459
0.325128
0.324845
0.324604
0.324397
0.324219
0.324065
0.323932
0.323817
0.323718
0.323631
0.323557
0.323495
0.323445
0.323403
0.323366
0.323334
0.32331
0.323295
0.32329
0.323291
0.323303
0.323328
0.323368
0.32343
0.32353
0.323684
0.32393
0.324343
0.325015
0.326044
0.327528
0.329684
0.33186
0.333235
0.334026
0.334329
0.334391
0.334382
0.33436
0.334289
0.298452
0.333748
0.334304
0.334021
0.333485
0.332732
0.331853
0.330906
0.329947
0.329031
0.328199
0.327469
0.326842
0.326309
0.325853
0.325464
0.325133
0.324851
0.324611
0.324405
0.324229
0.324077
0.323945
0.323831
0.323733
0.323647
0.323573
0.323509
0.323457
0.323416
0.323382
0.323354
0.32333
0.323313
0.323307
0.323311
0.323322
0.323345
0.323382
0.323439
0.323528
0.323663
0.323873
0.32421
0.324762
0.325622
0.326849
0.328674
0.330935
0.332625
0.333683
0.334205
0.334374
0.334394
0.334383
0.33436
0.334156
0.298954
0.333749
0.334305
0.334022
0.333487
0.332735
0.331859
0.330913
0.329956
0.329041
0.328209
0.327478
0.326851
0.326316
0.32586
0.32547
0.325138
0.324856
0.324617
0.324412
0.324237
0.324086
0.323956
0.323843
0.323747
0.323663
0.323589
0.323525
0.323471
0.323428
0.323395
0.32337
0.323349
0.323333
0.323325
0.323327
0.32334
0.323362
0.323396
0.323449
0.32353
0.323649
0.323832
0.324118
0.324572
0.325293
0.326338
0.327842
0.329957
0.331954
0.333232
0.33399
0.334311
0.334393
0.334395
0.334383
0.33436
0.331857
0.306354
0.33375
0.334306
0.334023
0.333489
0.332738
0.331863
0.33092
0.329964
0.329051
0.328219
0.327487
0.32686
0.326325
0.325867
0.325477
0.325145
0.324863
0.324623
0.324419
0.324244
0.324095
0.323965
0.323855
0.323759
0.323677
0.323604
0.323541
0.323487
0.323442
0.323408
0.323383
0.323365
0.323352
0.323344
0.323344
0.323355
0.323379
0.323412
0.32346
0.323533
0.323643
0.323803
0.32405
0.324435
0.325037
0.325936
0.327189
0.329041
0.331187
0.332709
0.333687
0.334186
0.334369
0.3344
0.334395
0.334383
0.334359
0.306393
0.328473
0.33375
0.334306
0.334023
0.33349
0.33274
0.331867
0.330926
0.329972
0.32906
0.328229
0.327498
0.326869
0.326334
0.325876
0.325485
0.325153
0.324869
0.324629
0.324425
0.324251
0.324102
0.323974
0.323864
0.323771
0.323689
0.323618
0.323556
0.323503
0.323457
0.323421
0.323395
0.323378
0.323368
0.323363
0.323363
0.323372
0.323393
0.323427
0.323473
0.32354
0.323639
0.323784
0.323999
0.324331
0.324845
0.325618
0.326691
0.328249
0.33035
0.332154
0.333304
0.333997
0.334304
0.334395
0.334403
0.334396
0.334383
0.334357
0.299311
0.333711
0.33375
0.334306
0.334024
0.333491
0.332742
0.331871
0.330931
0.329979
0.329068
0.328238
0.327508
0.32688
0.326343
0.325885
0.325494
0.32516
0.324878
0.324636
0.324432
0.324257
0.324109
0.323981
0.323873
0.32378
0.323701
0.32363
0.32357
0.323518
0.323473
0.323437
0.323409
0.32339
0.323381
0.323378
0.323381
0.32339
0.323408
0.323439
0.323486
0.323549
0.32364
0.32377
0.323963
0.324251
0.324694
0.325365
0.326308
0.327614
0.329507
0.331528
0.332873
0.333745
0.334193
0.334369
0.334404
0.334404
0.334397
0.334383
0.334349
0.298884
0.334131
0.333749
0.334307
0.334024
0.333491
0.332744
0.331873
0.330935
0.329984
0.329075
0.328246
0.327517
0.32689
0.326354
0.325895
0.325503
0.32517
0.324886
0.324645
0.324439
0.324264
0.324115
0.323988
0.323881
0.323789
0.32371
0.323642
0.323582
0.323532
0.323488
0.323452
0.323424
0.323404
0.323393
0.323391
0.323396
0.323407
0.323425
0.323453
0.323496
0.323559
0.323644
0.323763
0.323935
0.324191
0.324577
0.325158
0.325994
0.32712
0.328756
0.330821
0.33241
0.333438
0.334039
0.33431
0.334399
0.334408
0.334404
0.334397
0.334383
0.334274
0.29981
0.334178
0.333749
0.334307
0.334024
0.333492
0.332745
0.331876
0.330938
0.329989
0.329082
0.328254
0.327525
0.326898
0.326363
0.325905
0.325513
0.325179
0.324895
0.324653
0.324448
0.324272
0.324122
0.323995
0.323888
0.323797
0.323719
0.323651
0.323594
0.323544
0.323502
0.323467
0.323439
0.323418
0.323406
0.323403
0.323408
0.323422
0.323441
0.323469
0.323509
0.323566
0.323648
0.32376
0.323917
0.324144
0.324486
0.324996
0.325736
0.326734
0.32814
0.330062
0.331913
0.33308
0.333843
0.334222
0.334374
0.33441
0.334409
0.334405
0.334397
0.334382
0.331409
0.310926
0.334186
0.333749
0.334307
0.334024
0.333492
0.332746
0.331877
0.330941
0.329993
0.329087
0.32826
0.327533
0.326907
0.326372
0.325914
0.325523
0.325189
0.324904
0.324663
0.324456
0.324281
0.32413
0.324003
0.323894
0.323804
0.323726
0.32366
0.323603
0.323556
0.323515
0.323481
0.323454
0.323433
0.32342
0.323415
0.32342
0.323434
0.323455
0.323485
0.323523
0.323576
0.323652
0.323759
0.323905
0.324111
0.324413
0.324865
0.325524
0.326422
0.327639
0.329384
0.331329
0.332697
0.333599
0.334105
0.334329
0.334404
0.334413
0.33441
0.334405
0.334397
0.33438
0.304026
0.331717
0.334187
0.333748
0.334307
0.334024
0.333492
0.332746
0.331878
0.330943
0.329996
0.329091
0.328265
0.327539
0.326914
0.32638
0.325923
0.325532
0.325198
0.324914
0.324672
0.324466
0.32429
0.32414
0.324011
0.323902
0.32381
0.323733
0.323668
0.323612
0.323565
0.323526
0.323493
0.323468
0.323448
0.323435
0.323429
0.323432
0.323445
0.323467
0.323498
0.323537
0.323588
0.323658
0.323758
0.323895
0.324085
0.324359
0.324759
0.325347
0.32616
0.32723
0.328771
0.330725
0.332299
0.333312
0.333954
0.334264
0.334386
0.334415
0.334413
0.334411
0.334406
0.334397
0.334376
0.299966
0.334151
0.334188
0.333748
0.334307
0.334024
0.333492
0.332746
0.331879
0.330944
0.329999
0.329095
0.32827
0.327544
0.32692
0.326387
0.32593
0.32554
0.325208
0.324924
0.324682
0.324476
0.3243
0.324149
0.32402
0.323911
0.323818
0.32374
0.323675
0.32362
0.323574
0.323536
0.323505
0.32348
0.323461
0.323449
0.323444
0.323446
0.323457
0.323478
0.323509
0.323549
0.3236
0.323667
0.323759
0.323887
0.324065
0.324315
0.324677
0.3252
0.325938
0.326907
0.328255
0.33009
0.33187
0.333004
0.333768
0.334176
0.334354
0.334411
0.334417
0.334413
0.334411
0.334406
0.334396
0.334346
0.300756
0.334287
0.334188
0.333747
0.334308
0.334024
0.333492
0.332746
0.331879
0.330945
0.330001
0.329097
0.328274
0.327549
0.326925
0.326392
0.325937
0.325548
0.325215
0.324933
0.324691
0.324485
0.324309
0.324159
0.324029
0.32392
0.323827
0.323748
0.323682
0.323627
0.323582
0.323544
0.323514
0.323491
0.323474
0.323463
0.323458
0.32346
0.32347
0.323489
0.323519
0.32356
0.323611
0.323677
0.323763
0.323883
0.324048
0.324279
0.324609
0.325083
0.325752
0.326638
0.327832
0.329514
0.331384
0.332686
0.333552
0.334065
0.334307
0.3344
0.33442
0.334417
0.334413
0.334411
0.334406
0.334395
0.329205
0.318543
0.334301
0.334188
0.333747
0.334308
0.334024
0.333492
0.332746
0.331879
0.330945
0.330001
0.329099
0.328277
0.327553
0.32693
0.326398
0.325943
0.325554
0.325223
0.32494
0.3247
0.324495
0.324319
0.324168
0.32404
0.32393
0.323837
0.323757
0.32369
0.323634
0.323589
0.323552
0.323523
0.323501
0.323485
0.323475
0.323471
0.323473
0.323483
0.323502
0.32353
0.323569
0.323621
0.323686
0.32377
0.323882
0.324035
0.324249
0.324552
0.324985
0.325596
0.32641
0.327477
0.328996
0.330872
0.332365
0.333313
0.333932
0.334245
0.334378
0.334419
0.334422
0.334417
0.334414
0.334412
0.334406
0.334392
0.305315
0.333484
0.334304
0.334188
0.333746
0.334308
0.334024
0.333492
0.332746
0.331879
0.330945
0.330002
0.3291
0.328279
0.327556
0.326933
0.326402
0.325948
0.325559
0.325229
0.324947
0.324708
0.324504
0.324328
0.324178
0.324049
0.32394
0.323846
0.323767
0.323699
0.323642
0.323596
0.323559
0.323531
0.32351
0.323495
0.323486
0.323483
0.323486
0.323496
0.323514
0.323541
0.323579
0.32363
0.323694
0.323776
0.323884
0.324027
0.324226
0.324505
0.324902
0.325461
0.326215
0.327185
0.328545
0.33035
0.332015
0.333067
0.333778
0.334169
0.334347
0.334412
0.334425
0.334423
0.334419
0.334416
0.334412
0.334406
0.334377
0.300868
0.334304
0.334305
0.334188
0.333746
0.334308
0.334024
0.333492
0.332746
0.331879
0.330945
0.330002
0.329101
0.32828
0.327558
0.326937
0.326406
0.325952
0.325564
0.325234
0.324953
0.324714
0.324511
0.324337
0.324187
0.324059
0.32395
0.323857
0.323776
0.323709
0.323651
0.323604
0.323566
0.323538
0.323517
0.323503
0.323496
0.323494
0.323497
0.323508
0.323526
0.323553
0.32359
0.323639
0.323701
0.323782
0.323886
0.324023
0.324208
0.324467
0.324832
0.325346
0.326046
0.326944
0.328164
0.329849
0.331626
0.332812
0.333607
0.334078
0.334307
0.334399
0.334424
0.334426
0.334423
0.334419
0.334417
0.334412
0.334404
0.331957
0.315795
0.334346
0.334305
0.334188
0.333746
0.334308
0.334025
0.333493
0.332746
0.331879
0.330946
0.330002
0.329101
0.328281
0.32756
0.326939
0.32641
0.325956
0.325569
0.325239
0.324958
0.32472
0.324517
0.324344
0.324196
0.324068
0.32396
0.323867
0.323787
0.323718
0.323661
0.323612
0.323574
0.323545
0.323525
0.323511
0.323504
0.323503
0.323508
0.323519
0.323538
0.323564
0.323601
0.323648
0.323709
0.323787
0.323889
0.32402
0.324195
0.324436
0.324775
0.325249
0.325899
0.326737
0.327844
0.329398
0.331203
0.332553
0.33342
0.333975
0.334257
0.334381
0.334421
0.334427
0.334425
0.334421
0.33442
0.334417
0.334412
0.334402
0.304845
0.333379
0.334351
0.334305
0.334188
0.333745
0.334309
0.334025
0.333493
0.332747
0.331878
0.330946
0.330002
0.329102
0.328282
0.327561
0.326941
0.326412
0.32596
0.325573
0.325243
0.324963
0.324725
0.324523
0.324351
0.324203
0.324077
0.323969
0.323876
0.323797
0.323729
0.32367
0.323622
0.323583
0.323553
0.323531
0.323518
0.323512
0.323512
0.323518
0.32353
0.323549
0.323576
0.323611
0.323658
0.323717
0.323793
0.323891
0.324019
0.324185
0.324411
0.324726
0.325167
0.325772
0.326557
0.327569
0.328991
0.330787
0.332283
0.333224
0.333857
0.334199
0.334356
0.334415
0.334428
0.334427
0.334423
0.33442
0.33442
0.334417
0.334412
0.334315
0.303756
0.334336
0.334352
0.334305
0.334187
0.333745
0.334309
0.334025
0.333494
0.332748
0.33188
0.330945
0.330003
0.329102
0.328283
0.327562
0.326943
0.326414
0.325962
0.325576
0.325247
0.324967
0.324729
0.324528
0.324356
0.324209
0.324084
0.323977
0.323886
0.323807
0.323738
0.323681
0.323632
0.323593
0.323562
0.323539
0.323525
0.323519
0.32352
0.323527
0.32354
0.323559
0.323586
0.323621
0.323667
0.323725
0.323798
0.323894
0.324018
0.324178
0.324391
0.324686
0.325096
0.325661
0.3264
0.327335
0.328636
0.33036
0.331992
0.333024
0.333727
0.334132
0.334326
0.334406
0.334428
0.33443
0.334427
0.334422
0.33442
0.33442
0.334417
0.334411
0.330297
0.324348
0.334373
0.334352
0.334305
0.334187
0.333745
0.334309
0.334025
0.333494
0.332749
0.331881
0.330947
0.330002
0.329103
0.328283
0.327563
0.326944
0.326416
0.325965
0.325579
0.32525
0.324971
0.324734
0.324532
0.32436
0.324215
0.32409
0.323984
0.323894
0.323816
0.323748
0.323691
0.323642
0.323602
0.323571
0.323548
0.323533
0.323526
0.323527
0.323534
0.323548
0.323569
0.323596
0.323631
0.323676
0.323733
0.323804
0.323897
0.324017
0.324171
0.324376
0.324652
0.325035
0.325562
0.32626
0.327138
0.328328
0.32996
0.331677
0.332823
0.333587
0.334056
0.334291
0.334393
0.334426
0.334431
0.33443
0.334427
0.334423
0.334422
0.334421
0.334417
0.334409
0.306384
0.334156
0.334376
0.334352
0.334305
0.334187
0.333744
0.334309
0.334026
0.333495
0.33275
0.331882
0.330949
0.330005
0.329102
0.328284
0.327564
0.326945
0.326418
0.325967
0.325582
0.325253
0.324975
0.324737
0.324536
0.324365
0.324219
0.324095
0.323991
0.323901
0.323825
0.323758
0.323701
0.323652
0.323613
0.323581
0.323557
0.323541
0.323534
0.323534
0.323542
0.323556
0.323577
0.323605
0.32364
0.323685
0.323741
0.323811
0.323901
0.324017
0.324166
0.324362
0.324625
0.324985
0.325478
0.326136
0.326967
0.328066
0.329591
0.331342
0.332623
0.33344
0.333972
0.33425
0.334376
0.334422
0.334432
0.334432
0.33443
0.334428
0.334425
0.334423
0.334421
0.334416
0.332657
0.312839
0.33438
0.334377
0.334352
0.334305
0.334187
0.333744
0.33431
0.334026
0.333495
0.332751
0.331884
0.330951
0.330007
0.329106
0.328284
0.327566
0.326947
0.326419
0.325969
0.325584
0.325256
0.324978
0.324741
0.32454
0.324369
0.324223
0.3241
0.323995
0.323907
0.323831
0.323766
0.32371
0.323662
0.323623
0.323591
0.323567
0.323551
0.323542
0.323541
0.323548
0.323563
0.323585
0.323613
0.323649
0.323694
0.323749
0.323817
0.323904
0.324017
0.324161
0.32435
0.324601
0.324943
0.325406
0.326028
0.326816
0.327836
0.329258
0.331004
0.332418
0.333292
0.333882
0.334204
0.334356
0.334416
0.334432
0.334433
0.334432
0.33443
0.334427
0.334426
0.334424
0.334421
0.334398
0.307555
0.3335
0.33439
0.334377
0.334352
0.334304
0.334187
0.333743
0.33431
0.334026
0.333496
0.332752
0.331886
0.330953
0.330009
0.329108
0.328288
0.327565
0.326949
0.326421
0.325971
0.325586
0.325258
0.32498
0.324744
0.324543
0.324373
0.324227
0.324104
0.324
0.323912
0.323838
0.323773
0.323719
0.323672
0.323633
0.323601
0.323577
0.32356
0.323551
0.323549
0.323555
0.32357
0.323592
0.323621
0.323657
0.323702
0.323757
0.323824
0.323909
0.324017
0.324157
0.324339
0.32458
0.324905
0.325346
0.325933
0.326682
0.327634
0.328957
0.330672
0.332197
0.333143
0.333785
0.334154
0.334333
0.334408
0.334431
0.334434
0.334433
0.334432
0.334429
0.334426
0.334426
0.334424
0.334421
0.334317
0.314701
0.334378
0.334392
0.334377
0.334352
0.334304
0.334186
0.333743
0.33431
0.334027
0.333497
0.332753
0.331887
0.330955
0.330012
0.329111
0.328291
0.32757
0.326948
0.326423
0.325973
0.325588
0.325261
0.324983
0.324747
0.324547
0.324376
0.324231
0.324108
0.324003
0.323916
0.323842
0.323779
0.323725
0.32368
0.323642
0.323611
0.323587
0.32357
0.32356
0.323558
0.323563
0.323577
0.323598
0.323628
0.323665
0.32371
0.323765
0.323831
0.323913
0.324019
0.324154
0.324329
0.32456
0.324872
0.325291
0.325851
0.326563
0.327457
0.328689
0.33034
0.33196
0.332991
0.333683
0.334099
0.334308
0.334399
0.334429
0.334435
0.334434
0.334433
0.334431
0.334427
0.334425
0.334426
0.334424
0.33442
0.327824
0.332019
0.3344
0.334392
0.334377
0.334352
0.334304
0.334186
0.333743
0.334311
0.334027
0.333497
0.332754
0.331889
0.330957
0.330014
0.329114
0.328294
0.327573
0.326953
0.326423
0.325975
0.325591
0.325263
0.324985
0.32475
0.324549
0.324379
0.324234
0.324111
0.324007
0.32392
0.323846
0.323784
0.323732
0.323687
0.323651
0.32362
0.323597
0.32358
0.32357
0.323567
0.323572
0.323584
0.323605
0.323634
0.323671
0.323717
0.323772
0.323838
0.323918
0.324021
0.324152
0.324321
0.324543
0.324841
0.325242
0.325775
0.326459
0.327305
0.328454
0.330026
0.331707
0.332839
0.333576
0.33404
0.334279
0.334387
0.334427
0.334435
0.334435
0.334434
0.334432
0.334429
0.334425
0.334426
0.334427
0.334424
0.334405
0.307379
0.334379
0.334402
0.334392
0.334377
0.334352
0.334304
0.334186
0.333742
0.334311
0.334027
0.333498
0.332756
0.331891
0.330959
0.330017
0.329117
0.328297
0.327577
0.326957
0.326429
0.325975
0.325593
0.325266
0.324988
0.324752
0.324552
0.324382
0.324237
0.324115
0.324011
0.323924
0.32385
0.323788
0.323736
0.323693
0.323657
0.323629
0.323606
0.323589
0.32358
0.323577
0.323581
0.323593
0.323612
0.323641
0.323677
0.323724
0.323778
0.323844
0.323924
0.324024
0.324151
0.324314
0.324528
0.324813
0.325196
0.325706
0.326363
0.327174
0.328249
0.329736
0.331443
0.332686
0.333465
0.333977
0.334248
0.334374
0.334423
0.334435
0.334436
0.334435
0.334434
0.334432
0.334429
0.334428
0.334428
0.334427
0.334414
0.316203
0.332866
0.334407
0.334402
0.334392
0.334377
0.334352
0.334304
0.334185
0.333741
0.334311
0.334028
0.333499
0.332757
0.331893
0.330962
0.33002
0.32912
0.328301
0.32758
0.326961
0.326433
0.325981
0.325594
0.325269
0.324991
0.324755
0.324555
0.324385
0.32424
0.324118
0.324014
0.323927
0.323854
0.323792
0.32374
0.323698
0.323664
0.323636
0.323614
0.323599
0.323589
0.323586
0.32359
0.323601
0.32362
0.323648