/*--------------------------------*- C++ -*----------------------------------*\
| =========                 |                                                 |
| \\      /  F ield         | OpenFOAM: The Open Source CFD Toolbox           |
|  \\    /   O peration     | Version:  v2012                                 |
|   \\  /    A nd           | Website:  www.openfoam.com                      |
|    \\/     M anipulation  |                                                 |
\*---------------------------------------------------------------------------*/
FoamFile
{
    version     2.0;
    format      ascii;
    class       volScalarField;
    location    "3800";
    object      q2;
}
// * * * * * * * * * * * * * * * * * * * * * * * * * * * * * * * * * * * * * //

dimensions      [0 0 0 0 0 0 0];


internalField   nonuniform List<scalar> 
29502
(
1
1
1
1
1
0.999903
1
1
1
0.978353
1
1
1
1
0.865684
1
1
1
1
1
0.680726
1
1
1
1
1
1
0.499214
1
1
1
1
1
1
1
0.350939
1
1
1
1
1
0.999999
1
0.999965
0.239539
1
1
1
1
1
1
0.999915
0.999966
0.992747
0.161414
1
1
1
1
1
0.999997
0.999946
0.999482
0.999539
0.906821
0.108203
1
1
1
1
1
0.999999
0.999796
0.999685
0.999168
0.997893
0.684295
0.0731283
1
1
1
1
1
1
0.999851
0.999236
0.9996
0.999296
0.992575
0.441297
0.0491345
1
1
1
1
1
1
0.999968
0.999383
0.999244
0.999756
0.999358
0.981565
0.264682
0.0330155
1
1
1
1
1
1
0.999972
0.999774
0.999341
0.99963
0.999859
0.999449
0.963406
0.155264
0.0221787
1
1
1
1
1
1
0.999996
0.999778
0.999686
0.999672
0.999833
0.999934
0.999578
0.935934
0.0907115
0.0149951
1
1
1
1
1
1
0.999997
0.999931
0.999679
0.999814
0.999847
0.999942
0.999978
0.999686
0.898372
0.0532195
0.0101236
1
1
1
1
1
1
0.999998
0.999939
0.999867
0.999797
0.999905
0.999951
0.999987
0.999994
0.999765
0.852101
0.0243783
0.00683619
1
1
1
1
1
1
0.999998
0.999948
0.999869
0.999903
0.999893
0.999967
0.99999
0.999998
0.999999
0.999808
0.780021
0.0144874
0.00463604
1
1
1
1
1
1
0.999999
0.999947
0.999878
0.999899
0.99994
0.999962
0.999994
0.999999
1
1
0.999808
0.678468
0.00863858
0.00314329
1
1
1
1
1
1
0.999999
0.999954
0.999869
0.999901
0.999937
0.999977
0.999992
0.999999
1
1
1
0.999733
0.559153
0.00514723
0.00213527
1
1
1
1
1
1
0.999999
0.99996
0.999881
0.999893
0.999936
0.999974
0.999995
0.999999
1
1
1
1
0.999464
0.440208
0.00307143
0.00145782
1
1
1
1
1
1
0.999999
0.999963
0.999889
0.999896
0.99993
0.999973
0.999994
0.999999
1
1
1
1
1
0.998551
0.338917
0.0018423
0.000998194
1
1
1
1
1
1
0.999999
0.999964
0.999895
0.999897
0.999929
0.99997
0.999994
0.999999
1
1
1
1
1
1
0.995269
0.265672
0.00111441
0.000689147
1
1
1
1
1
1
0.999999
0.999965
0.999891
0.999901
0.999931
0.999969
0.999993
0.999999
1
1
1
1
1
1
1
0.983607
0.217759
0.000684411
0.000479228
1
1
1
1
1
1
0.999999
0.999966
0.999886
0.999896
0.999931
0.999969
0.999992
0.999999
1
1
1
1
1
1
1
1
0.946151
0.170646
0.000428827
0.000337227
1
1
1
1
1
1
0.999999
0.999968
0.999888
0.999892
0.999926
0.999967
0.999991
0.999999
1
1
1
1
1
1
1
1
0.999997
0.851349
0.101549
0.000275621
0.000240431
1
1
1
1
1
1
0.999999
0.999968
0.999888
0.999889
0.999923
0.999965
0.999991
0.999999
1
1
1
1
1
1
1
1
1
0.999963
0.68174
0.05244
0.000182106
0.00017394
1
1
1
1
1
1
0.999999
0.999964
0.999883
0.999886
0.999922
0.999963
0.99999
0.999999
1
1
1
1
1
1
1
1
1
1
0.99952
0.478375
0.0239892
0.00012356
0.000127895
1
1
1
1
1
1
1
0.999967
0.999875
0.999883
0.999922
0.999963
0.99999
0.999998
1
1
1
1
1
1
1
1
1
1
1
0.995094
0.308812
0.00954866
8.58834e-05
9.53644e-05
1
1
1
1
1
1
1
0.999969
0.999882
0.99987
0.999918
0.999962
0.999989
0.999998
1
1
1
1
1
1
1
1
1
1
1
1
0.967066
0.200786
0.00326464
6.08239e-05
7.17732e-05
1
1
1
1
1
1
1
0.999969
0.999884
0.999873
0.99991
0.999959
0.999988
0.999998
1
1
1
1
1
1
1
1
1
1
1
1
0.999996
0.867275
0.145591
0.000972161
4.36725e-05
5.72925e-05
1
1
1
1
1
1
1
0.999969
0.999881
0.999869
0.999909
0.999955
0.999987
0.999998
1
1
1
1
1
1
1
1
1
1
1
1
1
0.999853
0.674353
0.113115
0.000275249
3.27789e-05
5.17164e-05
1
1
1
1
1
1
1
0.999968
0.999884
0.999868
0.999907
0.999955
0.999986
0.999998
1
1
1
1
1
1
1
1
1
1
1
1
1
1
0.996936
0.452853
0.0598678
8.80381e-05
2.63766e-05
5.32584e-05
1
1
1
1
1
1
1
0.999969
0.999879
0.999869
0.999905
0.999954
0.999986
0.999997
1
1
1
1
1
1
1
1
1
1
1
1
1
1
1
0.968979
0.277778
0.0257148
3.71596e-05
2.17234e-05
6.41796e-05
1
1
1
1
1
1
1
0.999969
0.999874
0.999864
0.999905
0.999952
0.999986
0.999997
1
1
1
1
1
1
1
1
1
1
1
1
1
1
1
0.99998
0.851953
0.172114
0.00952718
2.04892e-05
1.85713e-05
9.55729e-05
1
1
1
1
1
1
1
0.999965
0.999869
0.999858
0.999899
0.99995
0.999985
0.999997
1
1
1
1
1
1
1
1
1
1
1
1
1
1
1
1
0.999156
0.630058
0.120931
0.0029983
1.27079e-05
1.71938e-05
0.000185113
1
1
1
1
1
1
1
0.999968
0.999857
0.999853
0.999895
0.999946
0.999984
0.999997
1
1
1
1
1
1
1
1
1
1
1
1
1
1
1
1
1
0.985288
0.404983
0.0895858
0.000810017
9.083e-06
1.78138e-05
0.000495402
1
1
1
1
1
1
1
0.999969
0.999872
0.999841
0.999895
0.999945
0.999983
0.999997
1
1
1
1
1
1
1
1
1
1
1
1
1
1
1
1
1
0.999981
0.897545
0.246599
0.0426469
0.000210027
7.59724e-06
2.17505e-05
0.00126346
1
1
1
1
1
1
1
0.999968
0.999875
0.999852
0.999889
0.999945
0.999982
0.999997
1
1
1
1
1
1
1
1
1
1
1
1
1
1
1
1
1
1
0.998928
0.681394
0.155822
0.0166094
6.03135e-05
8.03987e-06
3.3696e-05
0.0011459
1
1
1
1
1
1
1
0.999968
0.999867
0.999851
0.999894
0.999941
0.999982
0.999997
1
1
1
1
1
1
1
1
1
1
1
1
1
1
1
1
1
1
0.999999
0.98002
0.435119
0.109291
0.00551528
2.12127e-05
1.08407e-05
6.81088e-05
0.000467387
1
1
1
1
1
1
1
0.999969
0.999867
0.999842
0.999893
0.999943
0.99998
0.999996
1
1
1
1
1
1
1
1
1
1
1
1
1
1
1
1
1
1
1
0.99989
0.867277
0.261252
0.0697759
0.00156337
9.9597e-06
1.72796e-05
0.000232942
0.000183045
1
1
1
1
1
1
1
0.99997
0.99987
0.999848
0.999887
0.999946
0.999981
0.999996
1
1
1
1
1
1
1
1
1
1
1
1
1
1
1
1
1
1
1
1
0.995507
0.623399
0.164583
0.0304728
0.000408246
6.99334e-06
3.42149e-05
0.00110748
6.76729e-05
1
1
1
1
1
1
1
0.999971
0.999872
0.999849
0.999891
0.999944
0.999981
0.999996
1
1
1
1
1
1
1
1
1
1
1
1
1
1
1
1
1
1
1
1
0.999977
0.94386
0.381925
0.114994
0.0110537
0.0001135
8.02387e-06
7.86474e-05
0.00334337
2.72023e-05
1
1
1
1
1
1
1
0.99997
0.999875
0.999847
0.999891
0.999943
0.99998
0.999996
1
1
1
1
1
1
1
1
1
1
1
1
1
1
1
1
1
1
1
1
1
0.998418
0.752548
0.228721
0.0729562
0.00348719
3.85821e-05
1.80162e-05
0.000122703
0.00954311
1.67353e-05
1
1
1
1
1
1
1
0.999971
0.999867
0.999849
0.999884
0.99994
0.99998
0.999996
1
1
1
1
1
1
1
1
1
1
1
1
1
1
1
1
1
1
1
1
1
0.99999
0.969985
0.48573
0.151144
0.0315886
0.00102282
1.9335e-05
7.64817e-05
0.000149896
0.00965599
1.10224e-05
1
1
1
1
1
1
1
0.999972
0.999865
0.99984
0.999886
0.999937
0.999979
0.999996
1
1
1
1
1
1
1
1
1
1
1
1
1
1
1
1
1
1
1
1
1
1
0.999036
0.820689
0.28963
0.108592
0.0115675
0.000309126
2.04468e-05
0.00039324
0.000166809
0.00327658
7.96905e-06
1
1
1
1
1
1
1
0.999972
0.999873
0.99984
0.999885
0.999939
0.999978
0.999996
1
1
1
1
1
1
1
1
1
1
1
1
1
1
1
1
1
1
1
1
1
1
0.999989
0.97762
0.553674
0.18285
0.0556729
0.00381021
0.000116108
5.59719e-05
0.000805849
0.000136866
0.000963225
6.24355e-06
1
1
1
1
1
1
1
0.999969
0.999875
0.999847
0.999887
0.999936
0.999979
0.999995
1
1
1
1
1
1
1
1
1
1
1
1
1
1
1
1
1
1
1
1
1
1
1
0.998974
0.844526
0.329192
0.125841
0.0221792
0.0012522
7.68465e-05
0.000251974
0.000765264
0.000139627
0.000300885
5.76695e-06
1
1
1
1
1
1
1
0.999969
0.999864
0.99985
0.999891
0.999936
0.999978
0.999996
0.999999
1
1
1
1
1
1
1
1
1
1
1
1
1
1
1
1
1
1
1
1
1
1
0.999978
0.975792
0.576502
0.20202
0.0746875
0.00795
0.00051728
0.000103206
0.00109574
0.000336357
0.000221535
0.000100293
6.3598e-06
1
1
1
1
1
1
1
0.999971
0.999866
0.999842
0.999894
0.999939
0.999978
0.999995
1
1
1
1
1
1
1
1
1
1
1
1
1
1
1
1
1
1
1
1
1
1
1
1
0.998221
0.833117
0.340484
0.137001
0.0312329
0.00283245
0.000316192
0.000266903
0.00698405
0.000117076
0.000628617
2.96171e-05
9.67718e-06
1
1
1
1
1
1
1
0.999971
0.999867
0.999838
0.999887
0.999942
0.99998
0.999995
0.999999
1
1
1
1
1
1
1
1
1
1
1
1
1
1
1
1
1
1
1
1
1
1
1
0.999928
0.964188
0.557325
0.208047
0.0849769
0.0117167
0.00125771
0.00032896
0.00116094
0.270624
4.63304e-05
0.010332
7.52318e-06
2.66865e-05
1
1
1
1
1
1
1
0.999972
0.999868
0.999841
0.999883
0.999939
0.999979
0.999996
0.999999
1
1
1
1
1
1
1
1
1
1
1
1
1
1
1
1
1
1
1
1
1
1
1
0.999998
0.995688
0.790007
0.327087
0.14055
0.0358909
0.00451037
0.000866105
0.000586198
0.00622449
0.0734879
2.26298e-05
0.863356
1.62702e-06
7.89939e-05
1
1
1
1
1
1
1
0.999972
0.999871
0.999842
0.999885
0.999939
0.999979
0.999996
0.999999
1
1
1
1
1
1
1
1
1
1
1
1
1
1
1
1
1
1
1
1
1
1
1
1
0.999692
0.936533
0.507563
0.202406
0.0853026
0.0137502
0.00217214
0.000932207
0.00175018
0.0734602
0.00924374
1.80164e-05
0.0274364
7.6709e-07
0.000189157
1
1
1
1
1
1
1
0.999972
0.999872
0.999846
0.999887
0.999939
0.99998
0.999996
0.999999
1
1
1
1
1
1
1
1
1
1
1
1
1
1
1
1
1
1
1
1
1
1
1
1
0.999984
0.988066
0.716655
0.296686
0.137023
0.0355058
0.00563764
0.00168523
0.00156279
0.0118859
0.207195
0.0015435
1.83871e-05
0.00102479
4.61052e-07
0.000341113
1
1
1
1
1
1
1
0.999973
0.999873
0.999853
0.999891
0.99994
0.99998
0.999996
0.999999
1
1
1
1
1
1
1
1
1
1
1
1
1
1
1
1
1
1
1
1
1
1
1
1
0.999999
0.998423
0.883166
0.438765
0.188319
0.0766587
0.0137381
0.00297809
0.00216856
0.00719967
0.00918602
1
0.000168219
2.44328e-05
9.97303e-05
3.93188e-07
0.000597101
1
1
1
1
1
1
1
0.999973
0.999878
0.999853
0.999894
0.999941
0.99998
0.999996
1
1
1
1
1
1
1
1
1
1
1
1
1
1
1
1
1
1
1
1
1
1
1
1
1
1
0.999845
0.965228
0.619225
0.259066
0.12803
0.0307643
0.00599554
0.00269153
0.00480323
0.0777677
0.0101385
0.999541
3.31616e-05
5.18476e-05
1.45274e-05
4.05544e-07
0.00105873
1
1
1
1
1
1
1
0.999973
0.999883
0.999859
0.999896
0.999942
0.999981
0.999996
1
1
1
1
1
1
1
1
1
1
1
1
1
1
1
1
1
1
1
1
1
1
1
1
1
1
0.999988
0.992342
0.789739
0.366745
0.170233
0.0625655
0.011987
0.00359383
0.00455615
0.0504705
0.043846
0.00672357
0.177324
1.16654e-05
0.000283994
2.32379e-06
5.44778e-07
0.00197224
1
1
1
1
1
1
1
0.999974
0.999879
0.999863
0.999898
0.999942
0.999981
0.999996
1
1
1
1
1
1
1
1
1
1
1
1
1
1
1
1
1
1
1
1
1
1
1
1
1
1
0.999999
0.998663
0.908646
0.504712
0.225027
0.112194
0.0240106
0.00570571
0.0039703
0.0197005
0.950284
0.0115544
0.013681
0.00781974
6.11782e-06
0.360772
4.49044e-07
9.03456e-07
0.00397675
1
1
1
1
1
1
1
0.999974
0.999875
0.999852
0.999898
0.999945
0.999981
0.999996
1
1
1
1
1
1
1
1
1
1
1
1
1
1
1
1
1
1
1
1
1
1
1
1
1
1
1
0.999803
0.968341
0.65913
0.29514
0.150362
0.046756
0.0096598
0.00412175
0.0108941
0.790986
0.247493
0.00708416
0.0324414
0.000746901
5.16941e-06
0.00294897
1.69726e-07
1.88935e-06
0.00898151
1
1
1
1
1
1
1
0.999974
0.999881
0.999842
0.999892
0.999944
0.999981
0.999996
1
1
1
1
1
1
1
1
1
1
1
1
1
1
1
1
1
1
1
1
1
1
1
1
1
1
1
0.999975
0.990886
0.798676
0.394503
0.189156
0.081951
0.017375
0.00523318
0.00635742
0.223178
0.999958
0.0601031
0.00256285
0.684543
5.33568e-05
8.36738e-06
7.34676e-05
9.9999e-08
4.89057e-06
0.0243282
1
1
1
1
1
1
1
0.999975
0.99988
0.999853
0.999887
0.99994
0.999981
0.999996
1
1
1
1
1
1
1
1
1
1
1
1
1
1
1
1
1
1
1
1
1
1
1
1
1
1
1
0.999997
0.997779
0.898198
0.513252
0.239841
0.127069
0.0315258
0.00757542
0.00504222
0.0422839
1
0.561853
0.0142949
0.00293049
0.978012
1.02604e-05
2.91001e-05
4.40452e-06
9.00389e-08
1.67869e-05
0.0814416
1
1
1
1
1
1
1
0.999976
0.999877
0.999857
0.999894
0.999938
0.99998
0.999996
1
1
1
1
1
1
1
1
1
1
1
1
1
1
1
1
1
1
1
1
1
1
1
1
1
1
1
1
0.999516
0.956203
0.640312
0.300444
0.15847
0.0543563
0.0119977
0.00509268
0.0136094
0.934657
1
0.129569
0.0047625
0.00471601
0.0254993
2.87728e-06
0.000975699
4.2417e-07
1.20304e-07
6.88167e-05
0.305598
1
1
1
1
1
1
1
0.999976
0.999879
0.999847
0.999897
0.999942
0.999978
0.999996
1
1
1
1
1
1
1
1
1
1
1
1
1
1
1
1
1
1
1
1
1
1
1
1
1
1
1
1
0.999903
0.983375
0.761496
0.380887
0.192365
0.0862935
0.0195048
0.00618258
0.00767928
0.227158
0.984276
0.812151
0.0346814
0.00171179
0.0367787
0.000181296
2.21972e-06
0.00158971
7.83558e-08
2.37765e-07
0.000267784
0.888156
1
1
1
1
1
1
1
0.999975
0.99988
0.999843
0.999891
0.999943
0.999979
0.999996
1
1
1
1
1
1
1
1
1
1
1
1
1
1
1
1
1
1
1
1
1
1
1
1
1
1
1
1
0.999982
0.994319
0.857081
0.478196
0.234048
0.127653
0.0323208
0.00810504
0.00593981
0.0595187
0.983696
0.535669
0.254607
0.00611171
0.000750352
0.0556219
1.49202e-05
2.99344e-06
5.58772e-05
3.79547e-08
6.90246e-07
0.00113545
0.999999
1
1
1
1
1
1
1
0.999975
0.999876
0.99985
0.999888
0.999939
0.99998
0.999996
1
1
1
1
1
1
1
1
1
1
1
1
1
1
1
1
1
1
1
1
1
1
1
1
1
1
1
1
0.999997
0.998232
0.922334
0.580942
0.283871
0.154741
0.0516528
0.0118135
0.00559767
0.01731
1
0.954468
0.167796
0.093793
0.00122297
0.000410416
0.0453832
3.02797e-06
1.00947e-05
2.72998e-06
2.93698e-08
2.72045e-06
0.00570804
1
1
1
1
1
1
1
1
0.999977
0.999877
0.999851
0.999893
0.999938
0.999979
0.999996
1
1
1
1
1
1
1
1
1
1
1
1
1
1
1
1
1
1
1
1
1
1
1
1
1
1
1
1
0.999999
0.999483
0.961677
0.682956
0.341983
0.182661
0.0772277
0.0177658
0.00615797
0.00929424
0.237389
1
0.270384
0.0821935
0.0861172
0.000399831
0.0002945
0.00221186
1.29488e-06
0.1432
9.6211e-08
4.47019e-08
1.41204e-05
0.0369694
1
1
1
1
1
1
1
1
0.999977
0.999883
0.999848
0.999894
0.999941
0.999978
0.999996
1
1
1
1
1
1
1
1
1
1
1
1
1
1
1
1
1
1
1
1
1
1
1
1
1
1
1
1
1
0.999854
0.982509
0.776511
0.412553
0.21404
0.109171
0.027363
0.00741916
0.00662006
0.0558897
1
0.715361
0.121025
0.0418489
0.0619172
0.000318745
0.000877685
3.22537e-05
1.68552e-06
6.80956e-05
2.45074e-08
1.12905e-07
9.79186e-05
0.289704
1
1
1
1
1
1
1
1
0.999977
0.999885
0.999849
0.999892
0.999941
0.999979
0.999996
1
1
1
1
1
1
1
1
1
1
1
1
1
1
1
1
1
1
1
1
1
1
1
1
1
1
1
1
1
0.99996
0.992427
0.852375
0.492521
0.250858
0.140272
0.0412955
0.00989002
0.00580019
0.019309
0.844263
0.979808
0.192062
0.194486
0.0201314
0.0177281
0.000945468
0.014203
2.47907e-06
6.40864e-06
2.44764e-06
1.25628e-08
4.65795e-07
0.000788858
0.995195
1
1
1
1
1
1
1
1
0.999978
0.999889
0.999851
0.999894
0.99994
0.999979
0.999996
1
1
1
1
1
1
1
1
1
1
1
1
1
1
1
1
1
1
1
1
1
1
1
1
1
1
1
1
1
0.99999
0.996891
0.907609
0.574412
0.292415
0.1632
0.0595828
0.0138347
0.00578591
0.0128911
0.144995
0.999997
0.220343
0.277676
0.902603
0.0788442
0.00435264
0.00822539
9.40458e-05
7.99385e-07
0.000341979
5.70205e-08
1.73765e-08
2.98499e-06
0.00772762
1
1
1
1
1
1
1
1
1
0.999978
0.999895
0.999862
0.999895
0.999941
0.999979
0.999996
1
1
1
1
1
1
1
1
1
1
1
1
1
1
1
1
1
1
1
1
1
1
1
1
1
1
1
1
1
0.999997
0.998782
0.945467
0.654834
0.337621
0.186246
0.0819584
0.0197092
0.00634545
0.00826031
0.0598866
0.615147
0.331094
0.232143
0.512415
0.0368142
0.00263214
0.00021915
0.0562701
6.28464e-06
7.56578e-07
4.44447e-05
1.01998e-08
4.51343e-08
2.85575e-05
0.10084
1
1
1
1
1
1
1
1
1
0.999977
0.999891
0.999873
0.9999
0.999942
0.999979
0.999996
0.999999
1
1
1
1
1
1
1
1
1
1
1
1
1
1
1
1
1
1
1
1
1
1
1
1
1
1
1
1
0.999999
0.999535
0.969529
0.732159
0.39095
0.211375
0.108186
0.0281586
0.0074851
0.006355
0.0271766
0.606473
0.236498
0.238927
1
0.0426394
0.00375146
0.000151604
5.89798e-05
0.977619
9.31695e-07
3.35906e-06
2.21113e-07
6.71516e-09
2.33429e-07
0.000395652
0.952753
1
1
1
1
1
1
1
1
1
0.999977
0.999887
0.999865
0.999908
0.999945
0.99998
0.999996
0.999999
1
1
1
1
1
1
1
1
1
1
1
1
1
1
1
1
1
1
1
1
1
1
1
1
1
1
1
1
1
0.999825
0.983636
0.801287
0.452094
0.239911
0.136654
0.039427
0.00954579
0.00555537
0.0175775
0.386336
0.457649
0.103534
0.866636
0.429169
0.092552
0.00181833
4.72146e-05
4.52001e-05
0.0001504
4.9826e-07
0.000143837
1.91187e-08
1.01984e-08
2.12068e-06
0.00767163
1
1
1
1
1
1
1
1
1
1
0.999977
0.999892
0.999857
0.999906
0.99995
0.999981
0.999996
1
1
1
1
1
1
1
1
1
1
1
1
1
1
1
1
1
1
1
1
1
1
1
1
1
1
1
1
1
1
0.999934
0.991397
0.857783
0.517688
0.272253
0.155599
0.0535947
0.0125325
0.00542123
0.0133571
0.126753
0.914628
0.0703706
0.142361
0.0581702
0.0140582
0.022345
0.0031017
5.33874e-05
0.00032711
2.78572e-06
8.4955e-07
3.69492e-05
4.63628e-09
4.14312e-08
3.3316e-05
0.200748
1
1
1
1
1
1
1
1
1
1
0.99998
0.999893
0.999867
0.9999
0.999949
0.999982
0.999996
1
1
1
1
1
1
1
1
1
1
1
1
1
1
1
1
1
1
1
1
1
1
1
1
1
1
1
1
1
1
0.999975
0.995526
0.900616
0.58221
0.307463
0.174427
0.0702358
0.0167223
0.00567867
0.00857666
0.0508309
0.958332
0.087904
0.0502038
0.0603546
0.0070386
0.00180113
0.000984665
0.0102123
0.000352705
0.000192736
4.45196e-07
6.49713e-05
1.75687e-08
4.17704e-09
3.51696e-07
0.000866816
1
1
1
1
1
1
1
1
1
1
1
0.999982
0.999898
0.999869
0.999906
0.999947
0.999982
0.999996
1
1
1
1
1
1
1
1
1
1
1
1
1
1
1
1
1
1
1
1
1
1
1
1
1
1
1
1
1
1
0.999991
0.997722
0.931933
0.643589
0.343792
0.193771
0.0894524
0.0224254
0.00633742
0.0060477
0.0198415
0.534531
0.119407
0.0404207
0.0626579
0.0201554
0.00742542
0.00129958
0.000829909
0.00110076
0.00169344
2.35506e-06
4.02575e-07
3.80575e-07
3.05118e-09
1.25544e-08
6.44863e-06
0.0367982
1
1
1
1
1
1
1
1
1
1
1
0.99998
0.999905
0.999871
0.999907
0.999949
0.999982
0.999996
1
1
1
1
1
1
1
1
1
1
1
1
1
1
1
1
1
1
1
1
1
1
1
1
1
1
1
1
1
1
0.999997
0.998859
0.954587
0.701382
0.383744
0.214273
0.110876
0.0298768
0.00749715
0.00517675
0.0146134
0.0919096
0.232034
0.039574
0.0515599
0.114039
0.0932326
0.109979
0.225849
0.0136211
7.73553e-05
0.000305161
3.72924e-07
2.89996e-06
5.10558e-08
2.70831e-09
1.04341e-07
0.000229537
0.989316
1
1
1
1
1
1
1
1
1
1
1
0.99998
0.999901
0.999879
0.999912
0.99995
0.999983
0.999996
1
1
1
1
1
1
1
1
1
1
1
1
1
1
1
1
1
1
1
1
1
1
1
1
1
1
1
1
1
1
0.999999
0.99944
0.970451
0.755144
0.427214
0.2365
0.13447
0.0390743
0.00926373
0.00482018
0.0132199
0.0480095
0.113162
0.0612361
0.0368629
0.181255
0.0919256
0.0137249
0.00333748
0.000378223
1.7791e-05
1.39883e-05
1.33732e-05
2.14847e-07
2.04477e-05
4.11679e-09
5.05091e-09
2.30826e-06
0.0159523
1
1
1
1
1
1
1
1
1
1
1
1
0.999978
0.999897
0.999878
0.999917
0.999953
0.999983
0.999997
1
1
1
1
1
1
1
1
1
1
1
1
1
1
1
1
1
1
1
1
1
1
1
1
1
1
1
1
1
1
1
0.999729
0.981274
0.80377
0.473182
0.259982
0.151478
0.0499751
0.0116171
0.00478722
0.0111103
0.0444681
0.0877093
0.0911011
0.094265
0.0720711
0.0927802
0.00650234
0.0011074
0.000386573
3.75212e-05
5.33094e-06
3.19807e-05
5.04953e-07
1.13156e-06
1.96869e-07
1.30973e-09
5.04564e-08
0.000125427
0.984628
1
1
1
1
1
1
1
1
1
1
1
1
0.999977
0.999898
0.999879
0.999916
0.999956
0.999984
0.999997
1
1
1
1
1
1
1
1
1
1
1
1
1
1
1
1
1
1
1
1
1
1
1
1
1
1
1
1
1
1
1
0.999871
0.988396
0.846169
0.520656
0.28459
0.165971
0.0622258
0.0146514
0.0049737
0.00809846
0.038567
0.335512
0.100664
0.585155
0.0706262
0.0829759
0.275057
0.015278
0.0243154
0.000820464
3.25907e-05
1.93376e-05
3.43555e-05
2.2522e-07
3.47548e-07
1.57773e-09
3.78201e-09
1.36955e-06
0.0188535
1
1
1
1
1
1
1
1
1
1
1
1
1
0.999978
0.999894
0.999879
0.999917
0.999956
0.999985
0.999997
1
1
1
1
1
1
1
1
1
1
1
1
1
1
1
1
1
1
1
1
1
1
1
1
1
1
1
1
1
1
1
0.999938
0.992918
0.881794
0.568136
0.31019
0.180066
0.0756541
0.0184667
0.00536844
0.00573067
0.0223198
0.845027
0.228246
0.930408
0.166221
0.0196845
0.0113442
0.0315602
0.0396655
0.00145297
0.0544403
0.000178501
3.02589e-05
2.3058e-07
3.01466e-06
1.92673e-08
1.13226e-09
3.36589e-08
0.000157358
0.999856
1
1
1
1
1
1
1
1
1
1
1
1
1
0.999978
0.99989
0.99987
0.999917
0.999956
0.999985
0.999997
1
1
1
1
1
1
1
1
1
1
1
1
1
1
1
1
1
1
1
1
1
1
1
1
1
1
1
1
1
1
1
0.999971
0.995704
0.910533
0.614569
0.336816
0.194206
0.0902839
0.023128
0.0060033
0.00465653
0.0162285
0.604179
0.325733
0.889583
0.515224
0.0205302
0.00260708
0.00134044
0.000401484
0.000177277
5.24956e-05
0.000379374
0.000414493
1.5524e-06
1.05938e-07
6.53832e-05
1.76853e-09
2.49979e-09
1.78968e-06
0.0414791
1
1
1
1
1
1
1
1
1
1
1
1
1
1
0.99998
0.99989
0.999861
0.999911
0.999956
0.999985
0.999997
1
1
1
1
1
1
1
1
1
1
1
1
1
1
1
1
1
1
1
1
1
1
1
1
1
1
1
1
1
1
1
0.999986
0.997407
0.933093
0.659628
0.36436
0.209101
0.106034
0.0287243
0.00691553
0.0041886
0.0144136
0.198148
0.285532
0.583203
0.727935
0.0596664
0.00477714
0.00111295
0.000536213
0.000240592
8.51356e-05
0.00333844
0.000120677
0.000204509
1.88471e-07
2.58816e-07
8.06251e-09
6.50396e-10
4.46841e-08
0.000433128
1
1
1
1
1
1
1
1
1
1
1
1
1
1
1
0.999982
0.999899
0.999861
0.999905
0.999955
0.999985
0.999997
1
1
1
1
1
1
1
1
1
1
1
1
1
1
1
1
1
1
1
1
1
1
1
1
1
1
1
1
1
1
1
0.999993
0.998434
0.950523
0.702823
0.394939
0.225092
0.122931
0.035262
0.00814033
0.00395069
0.012004
0.0573161
0.802387
0.936976
0.971433
0.07791
0.0301461
0.00336253
0.00217778
0.00758675
0.010824
0.00324642
1.00912e-05
4.45637e-06
5.79784e-06
1.63809e-07
2.51378e-07
5.62382e-10
3.05487e-09
5.24741e-06
0.171233
1
1
1
1
1
1
1
1
1
1
1
1
1
1
1
0.999981
0.999907
0.999871
0.999905
0.999951
0.999985
0.999997
1
1
1
1
1
1
1
1
1
1
1
1
1
1
1
1
1
1
1
1
1
1
1
1
1
1
1
1
1
1
1
0.999997
0.999053
0.963662
0.743537
0.427995
0.242492
0.141102
0.0427512
0.00967674
0.00388512
0.00889272
0.0236408
0.962596
0.604364
0.589563
0.0287464
0.14166
0.031811
0.0421229
0.026164
0.000968426
7.46066e-05
1.02119e-05
1.18548e-06
4.82467e-06
3.69323e-07
6.17812e-07
1.91916e-09
6.69478e-10
1.02666e-07
0.0020504
1
1
1
1
1
1
1
1
1
1
1
1
1
1
1
1
0.999979
0.999902
0.99988
0.999912
0.999951
0.999984
0.999997
1
1
1
1
1
1
1
1
1
1
1
1
1
1
1
1
1
1
1
1
1
1
1
1
1
1
1
1
1
1
1
0.999998
0.999423
0.973512
0.780638
0.462567
0.260792
0.15352
0.0512227
0.0115874
0.00395716
0.00677582
0.0125573
0.138816
0.0297531
0.0275261
0.00775822
0.021324
0.136582
0.178076
0.00379051
0.000249986
3.58381e-05
3.06449e-05
2.26912e-06
3.71287e-05
5.32602e-06
3.94442e-07
4.7829e-08
5.68506e-10
4.67041e-09
3.21341e-05
0.836534
1
1
1
1
1
1
1
1
1
1
1
1
1
1
1
1
0.99998
0.999898
0.999877
0.999918
0.999955
0.999984
0.999997
1
1
1
1
1
1
1
1
1
1
1
1
1
1
1
1
1
1
1
1
1
1
1
1
1
1
1
1
1
1
1
0.999999
0.999646
0.980763
0.814111
0.497348
0.279762
0.164971
0.0604255
0.0138985
0.00416588
0.00533159
0.00966864
0.0296143
0.0130227
0.00246719
0.00183898
0.00161712
0.00793441
0.0175272
0.230773
0.00620831
0.000396396
0.00727034
7.47639e-05
1.80017e-05
1.78704e-06
2.62802e-08
1.93596e-07
9.85888e-10
6.66229e-10
6.24435e-07
0.0189521
1
1
1
1
1
1
1
1
1
1
1
1
1
1
1
1
1
0.99998
0.999898
0.999874
0.999916
0.999956
0.999985
0.999997
1
1
1
1
1
1
1
1
1
1
1
1
1
1
1
1
1
1
1
1
1
1
1
1
1
1
1
1
1
1
1
0.999999
0.99978
0.98602
0.843541
0.532104
0.298848
0.175989
0.0702305
0.0166557
0.00448706
0.0041821
0.00899911
0.0145707
0.0055139
0.00147744
0.00136572
0.000646427
0.00112479
0.00120954
0.00151005
0.00344953
0.00102056
4.73141e-05
2.61429e-05
0.000282273
1.26066e-06
3.71086e-08
4.26922e-08
5.24189e-09
2.54707e-10
1.92218e-08
0.000341977
1
1
1
1
1
1
1
1
1
1
1
1
1
1
1
1
1
1
0.99998
0.999899
0.999875
0.999913
0.999955
0.999985
0.999997
1
1
1
1
1
1
1
1
1
1
1
1
1
1
1
1
1
1
1
1
1
1
1
1
1
1
1
1
1
1
1
1
0.999862
0.9898
0.868777
0.565686
0.318077
0.1867
0.0805818
0.0198702
0.00493838
0.00354484
0.00896899
0.0170131
0.00484644
0.00210079
0.00150212
0.000635282
0.000679144
0.000566801
0.000312273
9.49982e-05
4.22735e-05
8.53119e-06
4.06247e-06
1.09301e-05
7.20991e-06
2.21656e-07
4.4391e-08
3.17882e-08
2.02215e-10
1.9833e-09
7.35099e-06
0.328836
1
1
1
1
1
1
1
1
1
1
1
1
1
1
1
1
1
1
0.999981
0.9999
0.999875
0.999914
0.999954
0.999985
0.999997
1
1
1
1
1
1
1
1
1
1
1
1
1
1
1
1
1
1
1
1
1
1
1
1
1
1
1
1
1
1
1
1
0.999913
0.992546
0.890051
0.597845
0.337101
0.197239
0.0914064
0.0235379
0.00552032
0.00333941
0.0100943
0.0293695
0.00955026
0.0100596
0.00365334
0.00187598
0.000704428
0.00079142
0.000233551
8.6535e-05
2.85396e-05
1.25784e-05
9.36529e-05
0.000461058
0.000197465
0.000166766
2.48485e-07
1.48224e-08
4.63828e-10
6.2194e-10
2.00307e-07
0.00779645
1
1
1
1
1
1
1
1
1
1
1
1
1
1
1
1
1
1
1
0.999981
0.999901
0.999876
0.999914
0.999954
0.999985
0.999997
1
1
1
1
1
1
1
1
1
1
1
1
1
1
1
1
1
1
1
1
1
1
1
1
1
1
1
1
1
1
1
1
0.999945
0.994562
0.908066
0.628039
0.355943
0.207749
0.10259
0.0276404
0.00624264
0.00319867
0.0103095
0.116544
0.0631911
0.0216331
0.0375345
0.0592419
0.00419772
0.00366338
0.000581883
0.0002455
7.28787e-05
8.88882e-05
0.000274382
7.56516e-05
9.1782e-07
1.55013e-07
2.84492e-06
3.63538e-07
2.39999e-09
4.0808e-10
8.78921e-09
0.000193786
1
1
1
1
1
1
1
1
1
1
1
1
1
1
1
1
1
1
1
1
0.999981
0.999902
0.999877
0.999914
0.999954
0.999985
0.999997
1
1
1
1
1
1
1
1
1
1
1
1
1
1
1
1
1
1
1
1
1
1
1
1
1
1
1
1
1
1
1
1
0.999966
0.996042
0.923376
0.656727
0.374593
0.218364
0.11411
0.0321322
0.0070917
0.00312243
0.00944194
0.106397
0.942877
0.276752
0.148815
0.023594
0.120426
0.249553
0.0285897
0.00312054
0.0022084
0.0200781
6.44761e-05
4.38792e-06
5.58558e-07
1.68924e-07
0.000102494
2.94376e-07
9.46649e-08
4.36506e-10
8.67271e-10
5.52193e-06
0.424409
1
1
1
1
1
1
1
1
1
1
1
1
1
1
1
1
1
1
1
1
0.999981
0.999902
0.999877
0.999915
0.999954
0.999984
0.999997
1
1
1
1
1
1
1
1
1
1
1
1
1
1
1
1
1
1
1
1
1
1
1
1
1
1
1
1
1
1
1
1
0.999979
0.99714
0.936386
0.684162
0.393855
0.229102
0.125919
0.0369746
0.00806533
0.00309792
0.00808616
0.0541823
0.117371
0.0906764
0.0114023
0.00254761
0.0011666
0.00527853
0.00214324
0.00564676
0.000766677
0.0001262
7.90045e-06
2.69758e-06
8.40684e-07
5.9455e-07
0.000215901
1.49853e-08
1.32948e-07
5.92887e-10
2.63402e-10
2.35403e-07
0.0120163
1
1
1
1
1
1
1
1
1
1
1
1
1
1
1
1
1
1
1
1
1
0.999981
0.999902
0.999876
0.999914
0.999954
0.999984
0.999997
1
1
1
1
1
1
1
1
1
1
1
1
1
1
1
1
1
1
1
1
1
1
1
1
1
1
1
1
1
1
1
1
0.999987
0.997937
0.947629
0.710715
0.413919
0.240516
0.138071
0.0421514
0.00916754
0.00311625
0.00679631
0.0252267
0.0368042
0.00870726
0.00334124
0.00242389
0.00046877
0.00124493
0.000549491
0.000745526
0.000121073
6.6304e-05
9.42696e-06
9.213e-06
9.54933e-06
7.15763e-05
6.64799e-06
1.50199e-08
1.44712e-08
9.17293e-10
1.40346e-10
1.42952e-08
0.000356969
1
1
1
1
1
1
1
1
1
1
1
1
1
1
1
1
1
1
1
1
1
1
0.999982
0.999902
0.999876
0.999914
0.999954
0.999984
0.999997
1
1
1
1
1
1
1
1
1
1
1
1
1
1
1
1
1
1
1
1
1
1
1
1
1
1
1
1
1
1
1
1
0.999992
0.998525
0.957143
0.736848
0.435097
0.252128
0.148392
0.0476585
0.0104064
0.00317595
0.00560031
0.0127667
0.0406904
0.003388
0.00385698
0.00533872
0.00102436
0.00103581
0.000733728
0.000946848
0.000237855
0.000133692
9.72539e-05
0.000867484
9.72963e-05
3.26646e-06
2.69273e-06
2.64656e-08
2.15715e-08
8.88461e-09
1.2005e-10
2.09409e-09
1.3023e-05
0.992253
1
1
1
1
1
1
1
1
1
1
1
1
1
1
1
1
1
1
1
1
1
1
0.999982
0.999903
0.999876
0.999913
0.999953
0.999984
0.999997
1
1
1
1
1
1
1
1
1
1
1
1
1
1
1
1
1
1
1
1
1
1
1
1
1
1
1
1
1
1
1
1
0.999995
0.998953
0.965174
0.762036
0.457011
0.264069
0.156329
0.0534731
0.0117923
0.00328119
0.00439776
0.00954844
0.784893
0.00772131
0.00718668
0.0209765
0.0124742
0.00153815
0.0160031
0.00450498
0.0161349
0.138941
0.00553758
3.01365e-05
2.5311e-06
6.09834e-07
2.83725e-06
1.55053e-07
4.34538e-08
6.81045e-09
1.4692e-10
7.166e-10
5.49679e-07
0.0894802
1
1
1
1
1
1
1
1
1
1
1
1
1
1
1
1
1
1
1
1
1
1
1
0.999983
0.999904
0.999876
0.999914
0.999953
0.999984
0.999997
1
1
1
1
1
1
1
1
1
1
1
1
1
1
1
1
1
1
1
1
1
1
1
1
1
1
1
1
1
1
1
1
0.999997
0.999257
0.971878
0.785807
0.47973
0.276126
0.163869
0.0595059
0.0133365
0.00342754
0.00352464
0.00758663
0.39377
0.21537
0.0887653
0.124509
0.00990122
0.220703
0.00701166
0.013275
0.000249161
0.000209509
1.03267e-05
2.48598e-06
1.09209e-06
3.93932e-07
1.60409e-05
4.07068e-05
1.06789e-07
6.43996e-09
2.94717e-10
3.98524e-10
3.58284e-08
0.00239936
1
1
1
1
1
1
1
1
1
1
1
1
1
1
1
1
1
1
1
1
1
1
1
1
0.999983
0.999905
0.999876
0.999914
0.999953
0.999984
0.999997
1
1
1
1
1
1
1
1
1
1
1
1
1
1
1
1
1
1
1
1
1
1
1
1
1
1
1
1
1
1
1
1
0.999998
0.999478
0.977406
0.808367
0.502596
0.288768
0.171219
0.0658112
0.0150528
0.00361732
0.00290263
0.0069377
0.0291214
1
0.151278
0.0202805
0.000696568
0.0021023
0.000268513
0.000110877
3.31761e-05
1.01019e-05
4.72818e-06
1.15746e-06
1.09741e-06
1.12063e-06
0.000254274
4.94112e-07
1.37044e-06
1.90013e-08
8.07086e-10
2.91399e-10
3.92315e-09
8.83146e-05
1
1
1
1
1
1
1
1
1
1
1
1
1
1
1
1
1
1
1
1
1
1
1
1
1
0.999983
0.999906
0.999877
0.999914
0.999953
0.999984
0.999997
1
1
1
1
1
1
1
1
1
1
1
1
1
1
1
1
1
1
1
1
1
1
1
1
1
1
1
1
1
1
1
1
0.999999
0.999632
0.98197
0.8294
0.525939
0.30145
0.178593
0.072396
0.0169734
0.0038578
0.00243751
0.00615056
0.0100556
0.0161513
0.0156619
0.00143075
0.000206253
8.44723e-05
7.37396e-05
2.31767e-05
1.60962e-05
4.16116e-06
3.90777e-06
1.87813e-06
3.73776e-05
0.000355669
3.42652e-06
7.83625e-08
4.29933e-06
2.79213e-07
4.386e-09
2.62666e-10
6.9624e-10
4.89959e-06
0.961134
1
1
1
1
1
1
1
1
1
1
1
1
1
1
1
1
1
1
1
1
1
1
1
1
1
0.999983
0.999907
0.999878
0.999914
0.999953
0.999984
0.999997
1
1
1
1
1
1
1
1
1
1
1
1
1
1
1
1
1
1
1
1
1
1
1
1
1
1
1
1
1
1
1
1
0.999999
0.99974
0.985613
0.848954
0.549345
0.314647
0.185735
0.0792602
0.0191018
0.00416055
0.00231283
0.0055494
0.00532959
0.00153234
0.00128582
0.000333354
0.000118218
3.17112e-05
3.52141e-05
1.37163e-05
1.59568e-05
6.44745e-06
6.42889e-06
6.85983e-06
4.11826e-05
3.14984e-05
9.09763e-07
4.75844e-08
9.09599e-07
1.17136e-06
1.03681e-07
2.74167e-10
2.38696e-10
3.95978e-07
0.0532346
1
1
1
1
1
1
1
1
1
1
1
1
1
1
1
1
1
1
1
1
1
1
1
1
1
0.999984
0.999907
0.999878
0.999914
0.999953
0.999984
0.999997
1
1
1
1
1
1
1
1
1
1
1
1
1
1
1
1
1
1
1
1
1
1
1
1
1
1
1
1
1
1
1
1
1
0.999816
0.988541
0.866466
0.572646
0.32822
0.193241
0.0863505
0.0214441
0.00452326
0.00223744
0.00522739
0.00394282
0.000673563
0.000353046
0.000164396
0.000124069
2.72492e-05
3.42855e-05
2.28553e-05
2.51239e-05
2.08829e-05
1.48071e-05
0.000280935
0.00041457
2.00976e-06
5.46468e-07
7.70304e-08
2.09381e-06
6.27031e-08
2.71793e-07
3.221e-10
1.26798e-10
4.57454e-08
0.00194884
1
1
1
1
1
1
1
1
1
1
1
1
1
1
1
1
1
1
1
1
1
1
1
1
1
0.999984
0.999908
0.999877
0.999914
0.999953
0.999984
0.999997
1
1
1
1
1
1
1
1
1
1
1
1
1
1
1
1
1
1
1
1
1
1
1
1
1
1
1
1
1
1
1
1
1
0.99987
0.990864
0.882194
0.594996
0.341913
0.200942
0.0937549
0.0239976
0.00494541
0.00219876
0.00516872
0.00376151
0.000677882
0.000238734
0.000159645
0.000233445
6.07549e-05
3.71968e-05
7.47691e-05
8.82071e-05
0.000296401
5.01164e-05
0.000427368
5.01685e-05
6.10995e-07
4.85591e-07
2.73043e-07
4.721e-06
1.80531e-08
2.31316e-08
4.71582e-10
8.55393e-11
6.9112e-09
0.000122456
1
1
1
1
1
1
1
1
1
1
1
1
1
1
1
1
1
1
1
1
1
1
1
1
1
0.999984
0.999909
0.999878
0.999914
0.999952
0.999984
0.999997
1
1
1
1
1
1
1
1
1
1
1
1
1
1
1
1
1
1
1
1
1
1
1
1
1
1
1
1
1
1
1
1
1
0.999908
0.992704
0.896225
0.616729
0.355317
0.208653
0.101374
0.0267822
0.00544256
0.00218643
0.0051995
0.00431386
0.00112384
0.000201933
0.000251585
0.000517437
0.000270513
6.08231e-05
0.000569956
0.000145552