/*--------------------------------*- C++ -*----------------------------------*\
| =========                 |                                                 |
| \\      /  F ield         | OpenFOAM: The Open Source CFD Toolbox           |
|  \\    /   O peration     | Version:  v2012                                 |
|   \\  /    A nd           | Website:  www.openfoam.com                      |
|    \\/     M anipulation  |                                                 |
\*---------------------------------------------------------------------------*/
FoamFile
{
    version     2.0;
    format      ascii;
    class       volScalarField;
    location    "3800";
    object      q3;
}
// * * * * * * * * * * * * * * * * * * * * * * * * * * * * * * * * * * * * * //

dimensions      [0 0 0 0 0 0 0];


internalField   nonuniform List<scalar> 
29502
(
0.00385717
0.000836423
0.00818736
0.000834063
0.000960209
0.00718922
0.000912678
0.00192553
0.000890286
0.0070712
0.000961319
0.00284579
0.0063239
0.000946488
0.00762427
0.000988908
0.00284555
0.00919416
0.0148021
0.00120234
0.00868589
0.00100235
0.00302704
0.0094028
0.0210285
0.0277818
0.00165969
0.0101649
0.00100634
0.00296723
0.0100651
0.0217248
0.0384854
0.0455292
0.00228425
0.0120598
0.001006
0.00273019
0.00989527
0.0230572
0.0401548
0.0619106
0.06797
0.00304215
0.0144142
0.00100131
0.00269584
0.00917784
0.0227477
0.0424311
0.0651986
0.0907035
0.0947405
0.00394165
0.0172888
0.000994873
0.00244953
0.00907361
0.0214679
0.0420902
0.0685047
0.0961775
0.124402
0.125366
0.00495243
0.0207828
0.0009891
0.0024025
0.00842854
0.0212498
0.0403088
0.0682525
0.100824
0.132468
0.162388
0.159259
0.00605414
0.0249999
0.000984969
0.00237209
0.0082766
0.0200218
0.0398453
0.0659259
0.100759
0.13855
0.17326
0.20388
0.196438
0.0072595
0.0301533
0.000980115
0.00234371
0.00815569
0.0197222
0.0378786
0.0651922
0.097926
0.138643
0.180738
0.217889
0.248767
0.236948
0.00855247
0.0364443
0.000972378
0.00231135
0.00808086
0.0194315
0.0373773
0.0624346
0.0969887
0.135454
0.181244
0.226585
0.266146
0.297547
0.281098
0.00998362
0.0441224
0.000966973
0.0022802
0.00796489
0.019279
0.0368496
0.0616462
0.0935447
0.134338
0.17793
0.227534
0.276251
0.318685
0.35034
0.329208
0.0115806
0.0534622
0.000961544
0.00225145
0.0078562
0.0190102
0.0365925
0.0608758
0.0924114
0.13037
0.17656
0.224399
0.277916
0.330381
0.375348
0.407711
0.381672
0.013379
0.0648732
0.000956542
0.00223674
0.00776679
0.0187589
0.0361429
0.0604908
0.0913964
0.128989
0.172036
0.222979
0.274872
0.332518
0.388725
0.436863
0.469831
0.438831
0.0155887
0.0788143
0.000952522
0.00222405
0.00772132
0.0185802
0.0356795
0.0597717
0.090797
0.127654
0.170428
0.218007
0.273304
0.32972
0.391661
0.451692
0.503426
0.537046
0.501194
0.0178826
0.0958189
0.000947565
0.0022094
0.00768308
0.0184577
0.0353814
0.0590327
0.0898504
0.126916
0.168876
0.216202
0.26812
0.328064
0.388918
0.455402
0.520124
0.575574
0.610269
0.569204
0.0201908
0.116579
0.000943037
0.00219299
0.0076305
0.0183523
0.0351369
0.0585976
0.0888564
0.125739
0.168009
0.214422
0.266046
0.32253
0.387221
0.453085
0.524521
0.594221
0.654221
0.690195
0.643367
0.022453
0.141928
0.000939291
0.0021783
0.00757392
0.0182333
0.0349247
0.0582397
0.0882025
0.124411
0.166526
0.21335
0.264063
0.320307
0.381702
0.451191
0.522608
0.599691
0.674964
0.740144
0.777451
0.723778
0.0247957
0.172856
0.000935682
0.00217559
0.00752259
0.0180997
0.0347372
0.0578829
0.087669
0.123541
0.164882
0.211669
0.262803
0.318041
0.379106
0.445656
0.520842
0.598093
0.681429
0.763114
0.834097
0.872827
0.81022
0.027275
0.210532
0.000932192
0.00215924
0.00749732
0.0179834
0.0344923
0.0575723
0.0871246
0.122787
0.163754
0.209812
0.26101
0.316671
0.376657
0.442909
0.515065
0.59612
0.680086
0.770337
0.859508
0.936823
0.977253
0.90183
0.0304835
0.256404
0.000929756
0.00214456
0.00744651
0.0179453
0.0342764
0.0571788
0.0866747
0.122149
0.1629
0.208427
0.258724
0.314523
0.375034
0.440093
0.511964
0.590415
0.678027
0.769709
0.867885
0.964943
1.04942
1.09155
0.99721
0.0349536
0.312107
0.000927053
0.00214093
0.00741184
0.0178543
0.0342337
0.0568825
0.0861119
0.121617
0.162162
0.207359
0.25725
0.312062
0.372693
0.438327
0.508901
0.58686
0.672196
0.767314
0.867464
0.974355
1.08075
1.17334
1.21699
1.09433
0.0419314
0.379561
0.000923299
0.00213383
0.0073956
0.0177717
0.0340652
0.0568
0.0857461
0.120946
0.16148
0.206447
0.256095
0.310465
0.370004
0.435739
0.507114
0.583792
0.668609
0.76124
0.864935
0.974485
1.0912
1.20817
1.30981
1.35434
1.18973
0.0521512
0.460968
0.000919456
0.00212261
0.00737201
0.0177127
0.0338806
0.056532
0.0856705
0.12045
0.160731
0.205717
0.255003
0.309006
0.368019
0.432668
0.504163
0.581787
0.665178
0.757388
0.858627
0.97164
1.09192
1.21967
1.34855
1.46041
1.50465
1.28131
0.0669038
0.558798
0.000916281
0.00211225
0.00733412
0.0176584
0.0337682
0.0562378
0.0852812
0.120329
0.160203
0.204827
0.254081
0.307843
0.366444
0.430587
0.50067
0.578509
0.662724
0.753824
0.854495
0.965237
1.08879
1.22065
1.36106
1.50335
1.62655
1.66841
1.36212
0.0875477
0.676387
0.000914517
0.00210384
0.00730042
0.017594
0.0336724
0.0560652
0.0849387
0.119808
0.159909
0.204106
0.25297
0.306751
0.365124
0.428954
0.498355
0.574708
0.659289
0.751107
0.850537
0.960617
1.08207
1.2174
1.36254
1.51719
1.67461
1.80998
1.84548
1.42196
0.11575
0.812917
0.000913151
0.00210178
0.00727326
0.0175171
0.0335862
0.0559581
0.0847544
0.119346
0.159263
0.203889
0.252234
0.305493
0.364175
0.42741
0.496555
0.572107
0.655185
0.747115
0.847475
0.956217
1.07685
1.21038
1.35884
1.51901
1.68962
1.86407
2
2
1.44726
0.15278
0.970212
0.000911644
0.00209829
0.00726976
0.0174588
0.0334837
0.0558203
0.0845996
0.119186
0.158781
0.203215
0.251957
0.304667
0.362776
0.426233
0.494958
0.570003
0.652345
0.742658
0.843242
0.952908
1.07209
1.20452
1.35157
1.51464
1.69189
1.88038
2
2
2
1.42386
0.200404
1.15512
0.000909579
0.00209427
0.0072591
0.0174534
0.0333805
0.0556532
0.0843898
0.118888
0.158568
0.202765
0.251292
0.304328
0.361804
0.424818
0.493568
0.568215
0.649898
0.739717
0.838342
0.948495
1.06856
1.19942
1.345
1.5069
1.68688
1.88293
2
2
2
2
1.34651
0.260489
1.37087
0.000907129
0.00208837
0.00724753
0.0174331
0.033374
0.0554905
0.0840835
0.118605
0.158185
0.202439
0.250732
0.303542
0.361431
0.423837
0.491883
0.566714
0.647808
0.737019
0.835065
0.942949
1.06355
1.19524
1.33933
1.49978
1.67861
1.8772
2
2
2
2
2
1.22701
0.330613
1.61445
0.000904342
0.00207894
0.00722853
0.017409
0.033342
0.0554866
0.083859
0.118293
0.157835
0.202018
0.250413
0.302872
0.360467
0.423411
0.490888
0.564987
0.646293
0.734585
0.832188
0.939281
1.05748
1.18967
1.33461
1.49337
1.67054
1.86823
2
2
2
2
2
2
1.0815
0.412599
1.88199
0.000901525
0.00207119
0.0072006
0.0173695
0.0333003
0.0554367
0.0839196
0.118084
0.157541
0.201577
0.249988
0.302585
0.359596
0.422338
0.490481
0.56376
0.644494
0.732846
0.829479
0.935929
1.05327
1.18304
1.32829
1.488
1.66334
1.85919
2
2
2
2
2
2
2
0.921794
0.506603
2
0.000898823
0.00206743
0.0071757
0.0173312
0.0332325
0.0554306
0.0838534
0.118252
0.157392
0.201232
0.249576
0.302223
0.359476
0.421408
0.489242
0.563225
0.643123
0.731085
0.82761
0.933239
1.04966
1.17863
1.32113
1.48135
1.6575
1.8513
2
2
2
2
2
2
2
2
0.780125
0.614108
2
0.000896298
0.00205395
0.0071616
0.0172755
0.0331666
0.0553284
0.0838444
0.118074
0.157585
0.201024
0.249162
0.301805
0.359026
0.4211
0.488254
0.561946
0.642359
0.729502
0.825447
0.931172
1.04659
1.17454
1.31627
1.47319
1.65011
1.84461
2
2
2
2
2
2
2
2
2
0.6529
0.736752
2
0.000894343
0.00204894
0.00712925
0.0172246
0.0330704
0.0551771
0.0837035
0.117971
0.157261
0.201252
0.248816
0.301272
0.358285
0.420554
0.487976
0.561057
0.641072
0.72879
0.823855
0.928665
1.04438
1.17093
1.31189
1.46773
1.64074
1.83618
2
2
2
2
2
2
2
2
2
2
0.57009
0.873887
2
0.000892952
0.00204731
0.00711623
0.0171553
0.0329786
0.0550261
0.0834923
0.117877
0.157127
0.200981
0.249012
0.300824
0.357855
0.419944
0.487274
0.560559
0.639971
0.727291
0.823099
0.926688
1.04151
1.16837
1.30785
1.46294
1.63448
1.82574
2
2
2
2
2
2
2
2
2
2
2
0.546038
1.01897
2
0.000891869
0.00203845
0.00710151
0.0171293
0.032861
0.0548906
0.0832872
0.117701
0.157124
0.200931
0.248835
0.301162
0.357466
0.419527
0.486841
0.559765
0.639545
0.725955
0.821494
0.925829
1.03948
1.16554
1.30483
1.45863
1.62919
1.81883
2
2
2
2
2
2
2
2
2
2
2
2
0.571049
1.16896
2
0.000891609
0.00203639
0.00707454
0.017119
0.0328188
0.0547624
0.0830956
0.117434
0.156904
0.20095
0.248819
0.301024
0.357902
0.419141
0.486405
0.559446
0.638868
0.725633
0.820146
0.92421
1.03847
1.16323
1.30159
1.45518
1.62457
1.81281
2
2
2
2
2
2
2
2
2
2
2
2
2
0.633823
1.31073
2
0.000891622
0.00204252
0.00706955
0.0170611
0.0327998
0.0547515
0.0829217
0.117187
0.156575
0.20053
0.248804
0.300768
0.357791
0.419278
0.485945
0.558868
0.638327
0.724894
0.81968
0.92289
1.03662
1.16194
1.29903
1.45136
1.62084
1.80741
2
2
2
2
2
2
2
2
2
2
2
2
2
2
0.718663
1.43965
2
0.000891662
0.00204685
0.00709206
0.0170347
0.0327027
0.0546708
0.0829076
0.116965
0.156275
0.200183
0.248356
0.300702
0.357731
0.419425
0.486223
0.558446
0.637694
0.724347
0.818828
0.922373
1.03491
1.15992
1.29763
1.44879
1.6166
1.80317
2
2
2
2
2
2
2
2
2
2
2
2
2
2
1.58638
0.809085
1.58142
2
0.000891493
0.00204729
0.00710577
0.0170862
0.032659
0.0545267
0.0827953
0.116854
0.156001
0.19992
0.247986
0.300371
0.357643
0.419445
0.48629
0.55899
0.637393
0.723649
0.818013
0.921533
1.03453
1.15818
1.29564
1.44737
1.61362
1.7986
2
2
2
2
2
2
2
2
2
2
2
2
2
2
2
1.15944
0.901824
1.73412
2
0.000891055
0.00204324
0.00710955
0.0171198
0.0327579
0.05452
0.0826714
0.116707
0.155977
0.199605
0.247898
0.300163
0.357214
0.419357
0.486347
0.558796
0.637859
0.723332
0.81748
0.92078
1.03386
1.1577
1.2938
1.44523
1.61218
1.79522
1.99968
2
2
2
2
2
2
2
2
2
2
2
2
2
2
2
0.896671
0.999682
1.89457
2
0.000890169
0.0020369
0.00710029
0.0171318
0.0328205
0.054674
0.0826654
0.116647
0.155912
0.19959
0.247551
0.300014
0.356964
0.419039
0.486192
0.558789
0.637657
0.723744
0.816995
0.920051
1.03311
1.1571
1.29314
1.44322
1.60986
1.79349
1.99611
2
2
2
2
2
2
2
2
2
2
2
2
2
2
2
2
0.791964
1.10311
2
2
0.000888873
0.00203242
0.00708259
0.0171373
0.0328468
0.0547251
0.0828883
0.116643
0.155722
0.199471
0.247314
0.299557
0.356747
0.418739
0.485803
0.558848
0.637819
0.723714
0.817351
0.919454
1.03216
1.15608
1.29221
1.44229
1.6077
1.79109
1.99368
2
2
2
2
2
2
2
2
2
2
2
2
2
2
2
2
2
0.787316
1.19991
2
2
0.000887191
0.00203123
0.00706815
0.0171032
0.0328626
0.054772
0.0829607
0.116931
0.155724
0.199283
0.247117
0.299514
0.356324
0.418505
0.485473
0.558382
0.637803
0.724077
0.817521
0.919797
1.03172
1.15494
1.29112
1.44105
1.60662
1.78869
1.99103
2
2
2
2
2
2
2
2
2
2
2
2
2
2
2
2
2
1.54458
0.838958
1.30091
2
2
0.00088499
0.00202629
0.0070567
0.0170519
0.0328091
0.0548054
0.0829668
0.117034
0.156075
0.199293
0.246963
0.299355
0.356155
0.417932
0.485151
0.557918
0.637453
0.723917
0.817762
0.920097
1.03214
1.15451
1.29
1.43993
1.6053
1.78754
1.98855
2
2
2
2
2
2
2
2
2
2
2
2
2
2
2
2
2
2
1.11317
0.910105
1.41288
2
2
0.000882442
0.00201856
0.00704138
0.0170291
0.032723
0.05473
0.0830144
0.117042
0.156204
0.199666
0.246981
0.299133
0.356053
0.417831
0.484573
0.557561
0.636942
0.723568
0.817903
0.920342
1.03246
1.15544
1.28968
1.43899
1.60411
1.78632
1.98746
2
2
2
2
2
2
2
2
2
2
2
2
2
2
2
2
2
2
2
0.898579
0.98721
1.53493
2
2
0.000879847
0.00201401
0.00702321
0.0169951
0.0326836
0.0546518
0.0829931
0.117118
0.156337
0.199989
0.247475
0.299071
0.355683
0.417614
0.484524
0.556884
0.636504
0.72315
0.817339
0.920336
1.03267
1.1559
1.29076
1.43876
1.6031
1.78497
1.98613
2
2
2
2
2
2
2
2
2
2
2
2
2
2
2
2
2
2
2
1.96803
0.834145
1.07039
1.67407
2
2
0.000877342
0.00200989
0.00700889
0.0169558
0.032624
0.0545943
0.0829578
0.117092
0.156428
0.200116
0.247906
0.299639
0.35593
0.417476
0.484552
0.556891
0.635964
0.72263
0.81688
0.919963
1.03256
1.156
1.29118
1.43974
1.60265
1.78361
1.98429
2
2
2
2
2
2
2
2
2
2
2
2
2
2
2
2
2
2
2
2
1.34193
0.85122
1.16536
1.82888
2
2
0.000874862
0.00200048
0.0069948
0.016943
0.0325547
0.0545045
0.0828796
0.117048
0.156402
0.200249
0.248111
0.299961
0.356432
0.417628
0.484331
0.556776
0.635853
0.722036
0.816479
0.919341
1.0323
1.15588
1.2915
1.44012
1.60356
1.78321
1.9828
2
2
2
2
2
2
2
2
2
2
2
2
2
2
2
2
2
2
2
2
2
0.995903
0.906677
1.2769
1.98538
2
2
0.000872812
0.00199497
0.0069642
0.0169116
0.0325317
0.0543982
0.0827557
0.116947
0.156348
0.200217
0.24825
0.30035
0.356694
0.418245
0.484572
0.556583
0.63581
0.721852
0.81575
0.919097
1.0318
1.15546
1.29147
1.44061
1.60441
1.78427
1.9827
2
2
2
2
2
2
2
2
2
2
2
2
2
2
2
2
2
2
2
2
2
2
0.860156
0.983427
1.39223
2
2
2
0.000871025
0.00199249
0.00693743
0.0168227
0.0324714
0.0543069
0.0826064
0.116789
0.156229
0.200018
0.248175
0.300487
0.357096
0.418692
0.485174
0.556988
0.635506
0.721936
0.815532
0.91853
1.03143
1.15511
1.29095
1.44074
1.60506
1.78531
1.98389
2
2
2
2
2
2
2
2
2
2
2
2
2
2
2
2
2
2
2
2
2
2
1.36652
0.852032
1.0693
1.51227
2
2
2
0.000869529
0.00198806
0.00692811
0.0167648
0.0323174
0.0542141
0.0824088
0.116599
0.155927
0.199883
0.248005
0.30047
0.357247
0.418939
0.485652
0.557874
0.63596
0.721876
0.815812
0.91819
1.03101
1.15455
1.29066
1.44007
1.60511
1.78618
1.98487
2
2
2
2
2
2
2
2
2
2
2
2
2
2
2
2
2
2
2
2
2
2
2
1.00667
0.899667
1.16368
1.64204
2
2
2
0.000868336
0.00198446
0.00691383
0.0167429
0.0322129
0.0540258
0.0822021
0.116341
0.15558
0.199506
0.247797
0.300364
0.357197
0.419112
0.486094
0.558365
0.63713
0.72213
0.816002
0.918459
1.03085
1.15406
1.29027
1.4396
1.60447
1.78632
1.98589
2
2
2
2
2
2
2
2
2
2
2
2
2
2
2
2
2
2
2
2
2
2
2
1.69801
0.875539
0.969492
1.26488
1.7883
2
2
2
0.000867438
0.00198528
0.00689353
0.0167094
0.032172
0.0538649
0.0820132
0.116076
0.155374
0.199121
0.247436
0.300196
0.357101
0.419095
0.486559
0.558916
0.637874
0.723097
0.816214
0.918557
1.03079
1.15402
1.28961
1.43935
1.60387
1.78581
1.98647
2
2
2
2
2
2
2
2
2
2
2
2
2
2
2
2
2
2
2
2
2
2
2
2
1.16429
0.871534
1.04983
1.38079
1.94691
2
2
2
0.000866784
0.00198333
0.00690289
0.0166655
0.0321122
0.053798
0.0818568
0.115827
0.155157
0.199013
0.247099
0.299716
0.356885
0.418957
0.486253
0.559312
0.638189
0.723911
0.817228
0.919092
1.0309
1.1539
1.28947
1.43879
1.60337
1.78493
1.98568
2
2
2
2
2
2
2
2
2
2
2
2
2
2
2
2
2
2
2
2
2
2
2
2
1.94726
0.924571
0.921574
1.13918
1.50972
2
2
2
2
0.000866452
0.00197844
0.00690629
0.0166848
0.0320324
0.0537041
0.0816897
0.115623
0.154745
0.198867
0.246923
0.299333
0.356569
0.418921
0.486124
0.559254
0.638445
0.724477
0.818093
0.920412
1.03142
1.15402
1.28956
1.43877
1.60295
1.78452
1.98462
2
2
2
2
2
2
2
2
2
2
2
2
2
2
2
2
2
2
2
2
2
2
2
2
2
1.28614
0.870716
0.994444
1.24181
1.6507
2
2
2
2
0.000866411
0.00197802
0.00689237
0.0166921
0.0320668
0.0535802
0.0815554
0.115404
0.154492
0.198254
0.246656
0.299203
0.35613
0.418314
0.486266
0.559108
0.638587
0.725005
0.818721
0.92131
1.03279
1.15453
1.2896
1.43879
1.60283
1.78424
1.98425
2
2
2
2
2
2
2
2
2
2
2
2
2
2
2
2
2
2
2
2
2
2
2
2
2
2
0.97023
0.903147
1.07987
1.35928
1.81098
2
2
2
2
0.000866636
0.00197855
0.0068827
0.0166627
0.032077
0.0535805
0.0814541
0.115229
0.154331
0.197824
0.245951
0.29883
0.355926
0.417878
0.485444
0.558985
0.638394
0.725112
0.819233
0.921712
1.03404
1.15601
1.29021
1.4388
1.60271
1.7839
1.98375
2
2
2
2
2
2
2
2
2
2
2
2
2
2
2
2
2
2
2
2
2
2
2
2
2
2
1.32713
0.880742
0.970617
1.17642
1.49101
1.97852
2
2
2
2
0.000866801
0.00197632
0.00687703
0.0166427
0.0320272
0.053593
0.0813805
0.115093
0.154113
0.197773
0.245464
0.298033
0.355711
0.417612
0.484904
0.558341
0.638089
0.724915
0.819368
0.922318
1.0345
1.15754
1.2917
1.43968
1.60296
1.78399
1.98353
2
2
2
2
2
2
2
2
2
2
2
2
2
2
2
2
2
2
2
2
2
2
2
2
2
2
1.9744
0.985696
0.902687
1.05381
1.28754
1.6358
2
2
2
2
2
0.000867243
0.00198044
0.00688017
0.0166312
0.0319944
0.0535711
0.0813261
0.11509
0.153948
0.197635
0.245345
0.297472
0.35482
0.417142
0.484587
0.557693
0.637519
0.724506
0.81938
0.922646
1.03532
1.15829
1.29334
1.44127
1.60418
1.7845
1.98379
2
2
2
2
2
2
2
2
2
2
2
2
2
2
2
2
2
2
2
2
2
2
2
2
2
2
2
1.27937
0.889354
0.96748
1.15085
1.40822
1.78795
2
2
2
2
2
0.000867698
0.00198941
0.00690218
0.0166394
0.0319758
0.0535217
0.0812977
0.11502
0.15394
0.197302
0.245204
0.297361
0.35397
0.416365
0.483894
0.557396
0.636873
0.723958
0.8192
0.922643
1.03596
1.15922
1.29473
1.44305
1.60611
1.78572
1.98422
2
2
2
2
2
2
2
2
2
2
2
2
2
2
2
2
2
2
2
2
2
2
2
2
2
2
2
1.77937
0.967226
0.912076
1.05324
1.25604
1.54011
1.95633
2
2
2
2
2
0.0008679
0.00198315
0.00692775
0.0166883
0.0319913
0.0534948
0.081299
0.114889
0.153853
0.197163
0.244842
0.297176
0.353869
0.415642
0.483196
0.556748
0.636433
0.723189
0.818532
0.922417
1.03567
1.15986
1.29569
1.44473
1.60797
1.78777
1.9858
2
2
2
2
2
2
2
2
2
2
2
2
2
2
2
2
2
2
2
2
2
2
2
2
2
2
2
2
1.17364
0.893858
0.981526
1.14942
1.37191
1.6858
2
2
2
2
2
2
0.000868527
0.00198113
0.00691248
0.0167424
0.0320779
0.0535191
0.0813331
0.114894
0.153694
0.197178
0.244678
0.296748
0.353823
0.415288
0.482619
0.555809
0.635977
0.722694
0.817706
0.921696
1.03516
1.15955
1.29607
1.44582
1.60955
1.78976
1.98796
2
2
2
2
2
2
2
2
2
2
2
2
2
2
2
2
2
2
2
2
2
2
2
2
2
2
2
2
1.53614
0.933687
0.929569
1.0684
1.25479
1.49848
1.84915
2
2
2
2
2
2
0.000868647
0.00198281
0.00690698
0.0167129
0.032171
0.0536037
0.0813008
0.114938
0.153698
0.197138
0.244696
0.29655
0.353339
0.41503
0.481977
0.555131
0.634942
0.722174
0.817124
0.920767
1.03435
1.1592
1.29601
1.4459
1.61091
1.79141
1.99006
2
2
2
2
2
2
2
2
2
2
2
2
2
2
2
2
2
2
2
2
2
2
2
2
2
2
2
2
2
1.05983
0.902097
1.0042
1.16519
1.36901
1.63953
2
2
2
2
2
2
2
0.000868677
0.00198028
0.00691387
0.0167032
0.0321243
0.0536888
0.0813424
0.114892
0.153644
0.197131
0.244611
0.296581
0.353115
0.414682
0.48152
0.554681
0.634169
0.721251
0.816493
0.920085
1.03355
1.15862
1.29588
1.44611
1.61135
1.79319
1.99212
2
2
2
2
2
2
2
2
2
2
2
2
2
2
2
2
2
2
2
2
2
2
2
2
2
2
2
2
2
1.29351
0.91061
0.954524
1.09402
1.27001
1.49415
1.79958
2
2
2
2
2
2
2
0.000868641
0.00198048
0.00690435
0.0167188
0.0320757
0.0536764
0.0814662
0.114953
0.153588
0.196944
0.244628
0.296501
0.353121
0.414623
0.48113
0.554113
0.633651
0.720382
0.81524
0.919349
1.03301
1.1577
1.29519
1.44593
1.61149
1.79389
1.99402
2
2
2
2
2
2
2
2
2
2
2
2
2
2
2
2
2
2
2
2
2
2
2
2
2
2
2
2
2
1.64027
0.969687
0.92145
1.03633
1.19249
1.38454
1.63253
1.97312
2
2
2
2
2
2
2
0.000868557
0.00198034
0.00690523
0.016698
0.0321052
0.0536554
0.0815183
0.115108
0.153768
0.196746
0.244545
0.2965
0.353044
0.414436
0.481229
0.553679
0.633039
0.719571
0.814299
0.917977
1.03217
1.15703
1.29416
1.44513
1.61128
1.79403
1.99504
2
2
2
2
2
2
2
2
2
2
2
2
2
2
2
2
2
2
2
2
2
2
2
2
2
2
2
2
2
2
1.09348
0.90836
0.990267
1.13068
1.30072
1.51185
1.78585
2
2
2
2
2
2
2
2
0.000868325
0.00198012
0.0069046
0.0167004
0.0321027
0.0536545
0.0815624
0.115179
0.153956
0.197084
0.244327
0.296406
0.35304
0.414144
0.481225
0.553591
0.632575
0.718909
0.813624
0.916949
1.03068
1.15606
1.29311
1.44425
1.61039
1.79374
1.99515
2
2
2
2
2
2
2
2
2
2
2
2
2
2
2
2
2
2
2
2
2
2
2
2
2
2
2
2
2
2
1.29193
0.921072
0.95416
1.07907
1.23424
1.42075
1.65249
1.96258
2
2
2
2
2
2
2
2
0.000868212
0.0019822
0.00690366
0.0166988
0.0321056
0.0535991
0.0814929
0.115232
0.153933
0.197423
0.244563
0.296159
0.352931
0.414153
0.480892
0.553539
0.63242
0.718378
0.812889
0.916411
1.02952
1.15443
1.29197
1.44304
1.60933
1.79274
1.99478
2
2
2
2
2
2
2
2
2
2
2
2
2
2
2
2
2
2
2
2
2
2
2
2
2
2
2
2
2
2
1.56727
0.968472
0.929072
1.03477
1.1779
1.34808
1.55104
1.80853
2
2
2
2
2
2
2
2
2
0.000867922
0.0019882
0.00691031
0.0166959
0.0321026
0.0536527
0.0813476
0.115148
0.153999
0.197279
0.244982
0.296436
0.352678
0.414203
0.480705
0.553433
0.632386
0.718435
0.812305
0.915861
1.02893
1.15313
1.29045
1.44174
1.60825
1.79155
1.99396
2
2
2
2
2
2
2
2
2
2
2
2
2
2
2
2
2
2
2
2
2
2
2
2
2
2
2
2
2
2
1.91742
1.05817
0.916918
0.997831
1.12859
1.28619
1.46939
1.69506
1.98171
2
2
2
2
2
2
2
2
2
0.000867647
0.00198754
0.00692782
0.0167104
0.0320961
0.0536461
0.0814212
0.114958
0.154005
0.197355
0.244922
0.296858
0.352948
0.414125
0.480589
0.553197
0.632233
0.718589
0.812348
0.915231
1.02827
1.15243
1.28901
1.44005
1.60672
1.79023
1.99257
2
2
2
2
2
2
2
2
2
2
2
2
2
2
2
2
2
2
2
2
2
2
2
2
2
2
2
2
2
2
2
1.19466
0.920916
0.968335
1.08664
1.23246
1.40211
1.60387
1.85046
2
2
2
2
2
2
2
2
2
2
0.000867103
0.0019796
0.00692397
0.0167442
0.0321194
0.0536348
0.0814074
0.115048
0.153769
0.197491
0.245009
0.296835
0.353439
0.41442
0.480661
0.553073
0.632219
0.71845
0.812493
0.914974
1.02757
1.15171
1.2882
1.43871
1.60489
1.78882
1.99108
2
2
2
2
2
2
2
2
2
2
2
2
2
2
2
2
2
2
2
2
2
2
2
2
2
2
2
2
2
2
2
1.37631
0.944756
0.946142
1.05123
1.18694
1.34534
1.53054
1.74788
2
2
2
2
2
2
2
2
2
2
2
0.000866503
0.00197573
0.00690071
0.0167363
0.0321768
0.0537199
0.0814595
0.115118
0.153879
0.197204
0.245021
0.296914
0.353213
0.41495
0.481228
0.553184
0.632113
0.718435
0.812075
0.914871
1.0273
1.15095
1.28739
1.43778
1.60364
1.78705
1.98972
2
2
2
2
2
2
2
2
2
2
2
2
2
2
2
2
2
2
2
2
2
2
2
2
2
2
2
2
2
2
2
1.6009
0.990749
0.931548
1.02184
1.14851
1.29706
1.47012
1.66912
1.91147
2
2
2
2
2
2
2
2
2
2
2
0.000865923
0.00197615
0.00688672
0.0166847
0.0321586
0.0537491
0.0815723
0.115184
0.153962
0.197205
0.244703
0.296959
0.353342
0.414721
0.481753
0.55373
0.631974
0.718048
0.811838
0.91444
1.02716
1.15062
1.28655
1.43659
1.60258
1.78536
1.98801
2
2
2
2
2
2
2
2
2
2
2
2
2
2
2
2
2
2
2
2
2
2
2
2
2
2
2
2
2
2
2
1.86813
1.06076
0.924937
0.997133
1.11552
1.2558
1.41877
1.60503
1.82429
2
2
2
2
2
2
2
2
2
2
2
2
0.000865252
0.00197699
0.00688585
0.0166531
0.0320702
0.0537195
0.081538
0.115236
0.153927
0.197162
0.244698
0.296573
0.353513
0.414649
0.48151
0.554345
0.632596
0.717729
0.811694
0.9142
1.02696
1.15045
1.28615
1.43568
1.60126
1.78411
1.9858
2
2
2
2
2
2
2
2
2
2
2
2
2
2
2
2
2
2
2
2
2
2
2
2
2
2
2
2
2
2
2
2
1.15654
0.927103
0.97611
1.0869
1.2197
1.37411
1.55009
1.75262
1.99911
2
2
2
2
2
2
2
2
2
2
2
2
0.000864487
0.00197499
0.00688424
0.0166481
0.0320119
0.0535833
0.0814946
0.115187
0.153985
0.197132
0.244654
0.296549
0.353123
0.414878
0.48125
0.55409
0.633206
0.718371
0.811603
0.914283
1.02695
1.15024
1.28598
1.4355
1.60053
1.78297
1.98441
2
2
2
2
2
2
2
2
2
2
2
2
2
2
2
2
2
2
2
2
2
2
2
2
2
2
2
2
2
2
2
2
1.28023
0.939321
0.958933
1.06121
1.18753
1.33377
1.50019
1.69151
1.91564
2
2
2
2
2
2
2
2
2
2
2
2
2
0.000863682
0.00197246
0.00687658
0.016642
0.0319963
0.0534437
0.0813047
0.115127
0.154034
0.197322
0.244599
0.296517
0.353099
0.414595
0.481493
0.55379
0.632957
0.719031
0.812257
0.914426
1.02706
1.15024
1.28573
1.43555
1.60032
1.78213
1.98339
2
2
2
2
2
2
2
2
2
2
2
2
2
2
2
2
2
2
2
2
2
2
2
2
2
2
2
2
2
2
2
2
1.42984
0.963405
0.945504
1.03851
1.15891
1.29799
1.45591
1.63757
1.84507
2
2
2
2
2
2
2
2
2
2
2
2
2
2
0.000862827
0.00196986
0.00686834
0.0166231
0.0319789
0.0534491
0.0811097
0.114879
0.153956
0.197496
0.24481
0.296449
0.353033
0.414571
0.481402
0.554083
0.632884
0.718777
0.812969
0.915157
1.02699
1.15037
1.28577
1.43531
1.60005
1.78186
1.98219
2
2
2
2
2
2
2
2
2
2
2
2
2
2
2
2
2
2
2
2
2
2
2
2
2
2
2
2
2
2
2
2
1.60291
0.999954
0.936429
1.0186
1.13348
1.26671
1.41699
1.59036
1.78623
2
2
2
2
2
2
2
2
2
2
2
2
2
2
2
0.000861939
0.00196706
0.00685861
0.0166005
0.031942
0.0534473
0.0811382
0.114623
0.153649
0.197409
0.245012
0.296511
0.35294
0.414491
0.481351
0.553964
0.633182
0.71892
0.812713
0.915909
1.02748
1.15029
1.28588
1.43533
1.59979
1.78155
1.98183
2
2
2
2
2
2
2
2
2
2
2
2
2
2
2
2
2
2
2
2
2
2
2
2
2
2
2
2
2
2
2
2
1.7954
1.04915
0.93157
1.00142
1.11137
1.23916
1.38331
1.54959
1.73687
1.94997
2
2
2
2
2
2
2
2
2
2
2
2
2
2
2
0.000861007
0.00196481
0.00684751
0.0165789
0.0318985
0.0533863
0.0811574
0.114656
0.15333
0.197034
0.244885
0.296734
0.353032
0.414397
0.481258
0.553896
0.632829
0.719246
0.81287
0.915633
1.02829
1.15086
1.28613
1.4355
1.59983
1.78127
1.98176
2
2
2
2
2
2
2
2
2
2
2
2
2
2
2
2
2
2
2
2
2
2
2
2
2
2
2
2
2
2
2
2
2
1.10964
0.931375
0.986692
1.09182
1.21546
1.35436
1.51383
1.69458
1.89992
2
2
2
2
2
2
2
2
2
2
2
2
2
2
2
2
0.000860081
0.00196283
0.00683879
0.0165538
0.0318535
0.05332
0.0810589
0.114673
0.153335
0.196652
0.244472
0.296588
0.353239
0.414479
0.481173
0.55379
0.632754
0.718662
0.813253
0.915589
1.02829
1.15169
1.28698
1.43575
1.60002
1.78134
1.98148
2
2
2
2
2
2
2
2
2
2
2
2
2
2
2
2
2
2
2
2
2
2
2
2
2
2
2
2
2
2
2
2
2
1.18121
0.935285
0.97417
1.07441
1.19441
1.3293
1.48305
1.65623
1.85576
2
2
2
2
2
2
2
2
2
2
2
2
2
2
2
2
2
0.000859087
0.00196017
0.00683057
0.01653
0.0318051
0.0532396
0.0809537
0.11454
0.153316
0.19658
0.244042
0.296121
0.353097
0.414513
0.481017
0.553677
0.632654
0.718554
0.812582
0.915983
1.02824
1.15174
1.28789
1.43668
1.60032
1.78155
1.98156
2
2
2
2
2
2
2
2
2
2
2
2
2
2
2
2
2
2
2
2
2
2
2
2
2
2
2
2
2
2
2
2
2
1.26276
0.943251
0.963323
1.05862
1.17512
1.3063
1.4551
1.62301
1.81399
2
2
2
2
2
2
2
2
2
2
2
2
2
2
2
2
2
2
0.000858134
0.00195742
0.00682059
0.0165072
0.0317585
0.0531557
0.0808443
0.114401
0.15315
0.196477
0.243952
0.295781
0.35256
0.41434
0.481062
0.553524
0.632491
0.718406
0.812486
0.915545
1.02844
1.15195
1.28768
1.43765
1.60131
1.7819
1.9818
2
2
2
2
2
2
2
2
2
2
2
2
2
2
2
2
2
2
2
2
2
2
2
2
2
2
2
2
2
2
2
2
2
1.35535
0.955445
0.954008
1.04412
1.15739
1.28492
1.42938
1.59172
1.77417
1.97269
2
2
2
2
2
2
2
2
2
2
2
2
2
2
2
2
2
2
0.000857121
0.00195466
0.00680999
0.0164822
0.0317141
0.0530784
0.0807199
0.114251
0.15297
0.196276
0.243849
0.295681
0.352176
0.413939
0.480856
0.553557
0.632551
0.718269
0.812342
0.915409
1.02798
1.15218
1.28769
1.43748
1.60235
1.78296
1.98221
2
2
2
2
2
2
2
2
2
2
2
2
2
2
2
2
2
2
2
2
2
2
2
2
2
2
2
2
2
2
2
2
2
1.45889
0.972293
0.946258
1.03076
1.14097
1.2652
1.40554
1.56233
1.73716
1.93125
2
2
2
2
2
2
2
2
2
2
2
2
2
2
2
2
2
2
2
0.000856154
0.00195186
0.00679951
0.0164559
0.0316655
0.0530092
0.0806068
0.114085
0.152772
0.196046
0.243599
0.295527
0.352028
0.413335
0.480425
0.553296
0.632536
0.718532
0.812164
0.915246
1.02781
1.15144
1.2882
1.43724
1.6025
1.78408
1.98334
2
2
2
2
2
2
2
2
2
2
2
2
2
2
2
2
2
2
2
2
2
2
2
2
2
2
2
2
2
2
2
2
2
1.57468
0.994473
0.940195
1.01869
1.126
1.24724
1.38367
1.53594
1.70468
1.8947
2
2
2
2
2
2
2
2
2
2
2
2
2
2
2
2
2
2
2
2
0.000855141
0.0019491
0.00678885
0.0164296
0.0316141
0.0529274
0.0805026
0.113931
0.152562
0.195805
0.243337
0.29524
0.351795
0.413091
0.479954
0.552634
0.632085
0.718741
0.812171
0.915046
1.02762
1.15129
1.28774
1.43779
1.60257
1.78429
1.98455
2
2
2
2
2
2
2
2
2
2
2
2
2
2
2
2
2
2
2
2
2
2
2
2
2
2
2
2
2
2
2
2
2
1.70074
1.02254
0.935922
1.00786
1.1125
1.23105
1.36394
1.51266
1.67691
1.85322
2
2
2
2
2
2
2
2
2
2
2
2
2
2
2
2
2
2
2
2
2
0.000854142
0.00194567
0.00677827
0.016403
0.0315629
0.0528378
0.0803824
0.113781
0.152367
0.195558
0.243052
0.294919
0.351448
0.412952
0.479622
0.552117
0.631322
0.718201
0.812379
0.914819
1.02766
1.15109
1.28756
1.43762
1.60287
1.78467
1.9848
2
2
2
2
2
2
2
2
2
2
2
2
2
2
2
2
2
2
2
2
2
2
2
2
2
2
2
2
2
2
2
2
2
1.83508
1.05572
0.93368
0.998479
1.10067
1.21675
1.34724
1.49267
1.63869
1.81165
2
2
2
2
2
2
2
2
2
2
2
2
2
2
2
2
2
2
2
2
2
2
0.000853142
0.00194287
0.00676577
0.0163766
0.0315076
0.0527512
0.0802482
0.113618
0.152167
0.195314
0.242753
0.294598
0.351111
0.412589
0.479412
0.551901
0.630782
0.717428
0.812045
0.91474
1.02765
1.1511
1.28733
1.43744
1.60246
1.78501
1.98528
2
2
2
2
2
2
2
2
2
2
2
2
2
2
2
2
2
2
2
2
2
2
2
2
2
2
2
2
2
2
2
2
2
1.97467
1.0935
0.933366
0.990324
1.09025
1.2042
1.32427
1.45729
1.60671
1.77545
1.96691
2
2
2
2
2
2
2
2
2
2
2
2
2
2
2
2
2
2
2
2
2
2
0.00085214
0.00194039
0.00675495
0.0163457
0.0314556
0.0526602
0.0801155
0.113447
0.151959
0.19509
0.242481
0.294253
0.350734
0.412177
0.478984
0.551648
0.630553
0.716804
0.811184
0.914374
1.02731
1.15129
1.28707
1.43719
1.60255
1.78436
1.98591
2
2
2
2
2
2
2
2
2
2
2
2
2
2
2
2
2
2
2
2
2
2
2
2
2
2
2
2
2
2
2
2
2
2
1.13448
0.93462
0.983067
1.08098
1.18426
1.30101
1.43142
1.5782
1.74275
1.9291
2
2
2
2
2
2
2
2
2
2
2
2
2
2
2
2
2
2
2
2
2
2
2
0.000851142
0.00193761
0.00674605
0.0163188
0.0313993
0.052573
0.079979
0.113265
0.151743
0.19482
0.2422
0.293913
0.350341
0.41176
0.478541
0.551179
0.630268
0.71643
0.810529
0.913701
1.02689
1.15118
1.28699
1.43688
1.60228
1.78446
1.98561
2
2
2
2
2
2
2
2
2
2
2
2
2
2
2
2
2
2
2
2
2
2
2
2
2
2
2
2
2
2
2
2
2
2
1.17792
0.936957
0.976545
1.06425
1.16491
1.28025
1.40797
1.55307
1.7127
1.89374
2
2
2
2
2
2
2
2
2
2
2
2
2
2
2
2
2
2
2
2
2
2
2
2
0.000850153
0.00193455
0.00673546
0.0162957
0.0313465
0.0524796
0.0798501
0.113083
0.151524
0.194545
0.241898
0.293604
0.349944
0.411316
0.478064
0.550666
0.629736
0.716007
0.810106
0.912991
1.02617
1.15072
1.2871
1.43679
1.60194
1.78416
1.98543
2
2
2
2
2
2
2
2
2
2
2
2
2
2
2
2
2
2
2
2
2
2
2
2
2
2
2
2
2
2
2
2
2
2
1.22279
0.940155
0.963784
1.0482
1.14743
1.26065
1.38684
1.52847
1.68452
1.86126
2
2
2
2
2
2
2
2
2
2
2
2
2
2
2
2
2
2
2
2
2
2
2
2
2
0.000849182
0.00193148
0.00672284
0.0162686
0.0312966
0.0523907
0.0797047
0.112898
0.151292
0.194281
0.241559
0.29326
0.349579
0.410858
0.477554
0.550142
0.629171
0.715408
0.809578
0.91241
1.02514
1.14969
1.2866
1.43687
1.60209
1.78407
1.9851
2
2
2
2
2
2
2
2
2
2
2
2
2
2
2
2
2
2
2
2
2
2
2
2
2
2
2
2
2
2
2
2
2
2
1.26953
0.938352
0.951143
1.03325
1.1314
1.24265
1.36721
1.50536
1.658
1.83018
2
2
2
2
2
2
2
2
2
2
2
2
2
2
2
2
2
2
2
2
2
2
2
2
2
2
0.000848235
0.00192878
0.00671037
0.0162374
0.0312434
0.0523067
0.0795726
0.112702
0.151048
0.194001
0.241231
0.29286
0.349169
0.410425
0.477041
0.549546
0.628578
0.714735
0.808939
0.911973
1.0246
1.14858
1.28548
1.43629
1.60185
1.7842
1.98501
2
2
2
2
2
2
2
2
2
2
2
2
2
2
2
2
2
2
2
2
2
2
2
2
2
2
2
2
2
2
2
2
2
2
1.31815
0.935216
0.93938
1.01944
1.11645
1.22597
1.34861
1.48374
1.63306
1.80185
1.98618
2
2
2
2
2
2
2
2
2
2
2
2
2
2
2
2
2
2
2
2
2
2
2
2
2
2
0.000847299
0.00192616
0.00669985
0.0162066
0.0311829
0.0522124
0.0794544
0.112523
0.1508
0.193709
0.240915
0.292479
0.348762
0.409968
0.476555
0.548981
0.62794
0.714079
0.808231
0.911259
1.02422
1.14807
1.28457
1.43511
1.60123
1.78363
1.98508
2
2
2
2
2
2
2
2
2
2
2
2
2
2
2
2
2
2
2
2
2
2
2
2
2
2
2
2
2
2
2
2
2
2
1.35464
0.93351
0.928357
1.0066
1.10236
1.21055
1.33104
1.46423
1.61103
1.77815
1.95985
2
2
2
2
2
2
2
2
2
2
2
2
2
2
2
2
2
2
2
2
2
2
2
2
2
2
2
0.000846441
0.00192417
0.00668957
0.0161798
0.0311228
0.0521116
0.0793067
0.112351
0.150572
0.193407