/*--------------------------------*- C++ -*----------------------------------*\
| =========                 |                                                 |
| \\      /  F ield         | OpenFOAM: The Open Source CFD Toolbox           |
|  \\    /   O peration     | Version:  v2012                                 |
|   \\  /    A nd           | Website:  www.openfoam.com                      |
|    \\/     M anipulation  |                                                 |
\*---------------------------------------------------------------------------*/
FoamFile
{
    version     2.0;
    format      ascii;
    class       volScalarField;
    location    "3800";
    object      Res;
}
// * * * * * * * * * * * * * * * * * * * * * * * * * * * * * * * * * * * * * //

dimensions      [0 0 0 0 0 0 0];


internalField   nonuniform List<scalar> 
29502
(
0.342442
0.17112
12.1033
0.168916
1.42523
19.7273
0.183963
1.69382
3.46304
25.665
0.193603
2.79285
4.02519
5.78942
30.73
0.199084
2.52784
6.0566
6.88081
8.40183
35.8257
0.201814
2.73243
5.68492
9.81584
10.1685
11.4604
41.1471
0.202716
2.57407
6.22391
9.40272
13.6348
13.565
14.9925
47.0556
0.20271
2.16985
5.91817
10.1423
13.274
17.1546
16.6345
19.09
53.867
0.201872
2.12019
5.08766
9.74602
14.1915
16.8766
19.6336
19.0745
23.8509
61.6629
0.200635
1.76573
5.0022
8.70032
13.8153
17.7979
19.354
20.9752
20.8772
29.3338
70.5704
0.199521
1.71498
4.36656
8.59861
12.7275
17.4947
20.2397
20.5696
21.3927
22.3195
35.7017
80.4731
0.198723
1.68602
4.25974
7.73679
12.5729
16.4211
20.0176
21.3161
20.7616
21.2428
23.8863
43.1591
91.9107
0.197778
1.65574
4.17854
7.60426
11.5354
16.267
19.0423
21.1257
21.3065
20.3731
21.1608
25.352
51.9852
104.954
0.196262
1.6235
4.13245
7.46522
11.3918
15.1733
18.956
20.3182
21.1836
20.6976
19.9775
21.0287
26.748
62.4313
119.851
0.195205
1.59868
4.05345
7.41005
11.2102
15.0234
17.9608
20.3048
20.5672
20.6036
20.0966
19.4741
20.8046
28.1725
74.8123
136.566
0.194136
1.57047
3.99506
7.27991
11.1579
14.85
17.8254
19.4986
20.5861
20.1734
20.0328
19.3953
18.8179
20.5679
29.6377
89.4172
155.688
0.193148
1.5626
3.93716
7.18434
11.0078
14.8158
17.6929
19.4303
19.9356
20.2387
19.7071
19.2933
18.5393
18.1378
20.3478
31.1247
116.024
177.473
0.192352
1.55625
3.92563
7.1099
10.8791
14.6431
17.6624
19.3262
19.9248
19.721
19.7901
19.0503
18.415
17.6267
17.49
20.1963
33.1559
138.004
202.022
0.191374
1.5448
3.91765
7.0806
10.7982
14.4992
17.5266
19.3389
19.8761
19.7483
19.4104
19.1469
18.199
17.4575
16.7655
16.9318
20.1976
35.8603
163.957
229.986
0.190482
1.53361
3.88819
7.05687
10.7516
14.4303
17.418
19.2512
19.9248
19.734
19.45
18.8529
18.2996
17.2739
16.5281
15.9667
16.5049
20.4441
39.2195
194.835
261.656
0.189744
1.52332
3.86148
7.00953
10.7123
14.4007
17.3493
19.1673
19.863
19.7901
19.4536
18.9213
18.1033
17.3522
16.3463
15.6676
15.2785
16.2152
21.0041
43.2029
231.413
297.194
0.189035
1.52735
3.83576
6.96217
10.6669
14.3529
17.3276
19.1187
19.8132
19.7683
19.5074
18.9344
18.1691
17.2213
16.4184
15.4596
14.8907
14.72
16.0751
21.9273
47.6175
274.382
337.237
0.188346
1.51237
3.82972
6.92004
10.602
14.2977
17.2783
19.1041
19.7768
19.7636
19.5202
19.0027
18.2014
17.3008
16.3128
15.4977
14.6359
14.2057
14.304
16.1193
23.2754
51.9199
324.417
381.635
0.18786
1.49958
3.79802
6.9258
10.5425
14.2217
17.2268
19.0976
19.8036
19.7373
19.5027
19.0161
18.2663
17.33
16.3849
15.4208
14.6413
13.9102
13.6437
14.0312
16.3963
25.1415
55.6285
381.638
430.853
0.18732
1.49994
3.78212
6.89113
10.5703
14.1768
17.1547
19.0789
19.8288
19.7674
19.5012
19.0304
18.2982
17.3985
16.4154
15.476
14.5702
13.8676
13.2799
13.1905
13.915
16.9531
27.6959
60.4646
445.963
484.546
0.186573
1.49634
3.77916
6.86172
10.521
14.2112
17.1384
19.0436
19.8195
19.7978
19.5451
19.0512
18.3356
17.4396
16.4931
15.5189
14.6269
13.787
13.19
12.7563
12.8674
13.971
17.8379
31.1472
72.0393
516.728
542.65
0.185811
1.4895
3.77094
6.83945
10.4589
14.1535
17.2045
19.036
19.8214
19.815
19.5701
19.0842
18.3471
17.4816
16.5311
15.5915
14.6599
13.8311
13.0905
12.605
12.3441
12.6817
14.22
19.1265
35.7726
89.871
593.263
604.883
0.185182
1.48329
3.75457
6.82471
10.4248
14.0787
17.1448
19.1094
19.8496
19.8291
19.577
19.1254
18.3919
17.5099
16.5714
15.6266
14.7142
13.861
13.118
12.484
12.1234
12.0369
12.6386
14.6906
20.9111
41.8217
116.672
675.194
670.855
0.184832
1.47793
3.74038
6.8134
10.4061
14.0406
17.0987
19.0556
19.8947
19.8466
19.5805
19.1305
18.4382
17.5691
16.603
15.6709
14.7538
13.905
13.1339
12.4862
11.9688
11.745
11.8492
12.7557
15.4312
23.3224
49.2344
158.629
762.458
740.988
0.184564
1.47795
3.72756
6.78851
10.4101
14.0421
17.0848
19.0131
19.8519
19.9209
19.6125
19.141
18.4785
17.612
16.6647
15.7007
14.8009
13.9296
13.1647
12.484
11.9405
11.5554
11.481
11.7847
13.0489
16.4998
26.5123
57.2007
226.881
856.058
817.029
0.184268
1.47553
3.72963
6.76799
10.3978
14.05
17.0906
19.0303
19.8414
19.9051
19.6772
19.1791
18.497
17.647
16.7163
15.755
14.8297
13.9757
13.1841
12.5035
11.9211
11.4953
11.2584
11.3442
11.8546
13.547
17.9852
30.6616
63.807
339.782
957.802
885.852
0.183862
1.47312
3.72343
6.77202
10.3693
14.0347
17.102
19.0131
19.8602
19.9257
19.68
19.2392
18.5331
17.6829
16.7454
15.8054
14.8747
14.0091
13.2248
12.5198
11.9302
11.4571
11.1657
11.0691
11.3061
12.0715
14.2938
20.0082
35.9718
69.4727
517.456
1057.35
921.915
0.183379
1.46983
3.71854
6.76265
10.3758
13.9997
17.0631
19.0313
19.8458
19.9319
19.6937
19.2426
18.5933
17.7283
16.7745
15.8354
14.9176
14.0489
13.2536
12.5486
11.9324
11.4461
11.1036
10.9406
10.965
11.3638
12.4584
15.3508
22.7424
42.734
85.9797
756.545
1139.4
917.779
0.182827
1.46232
3.71074
6.75423
10.3634
14.0107
17.0295
19.0276
19.8717
19.9286
19.7063
19.2546
18.5925
17.7855
16.8266
15.8706
14.9529
14.0828
13.2919
12.5704
11.9525
11.4365
11.0751
10.8494
10.7884
10.941
11.5269
13.05
16.8027
26.3825
51.1178
114.014
1008.28
1217.79
871.511
0.182267
1.45807
3.69596
6.74214
10.3511
13.9935
17.0687
19.0237
19.8978
19.9527
19.7116
19.2768
18.5948
17.788
16.8863
15.9136
14.9907
14.1132
13.3196
12.5978
11.9627
11.449
11.0525
10.7989
10.664
10.7088
11.0043
11.8199
13.8942
18.7649
31.1302
60.2926
158.822
1228.95
1285.54
776.057
0.181731
1.45913
3.6863
6.73513
10.3347
14.0067
17.0495
19.0926
19.9249
19.9826
19.7484
19.2995
18.6393
17.7953
16.8864
15.966
15.0295
14.1578
13.3477
12.6292
11.9853
11.4556
11.0616
10.7665
10.5918
10.5472
10.7022
11.1688
12.311
15.0552
21.4063
37.1796
67.9343
233.644
1439.57
1320.58
642.968
0.181228
1.44614
3.68718
6.71843
10.3258
13.9876
17.0631
19.0421
19.9874
20.0042
19.7737
19.3458
18.6597
17.8238
16.8972
15.9713
15.069
14.1895
13.3816
12.6532
12.0105
11.4697
11.0595
10.7608
10.5415
10.4454
10.4948
10.7815
11.4445
13.0419
16.63
24.9544
44.599
75.1383
361.714
1608.47
1304.85
493.159
0.180836
1.44428
3.66811
6.70407
10.3041
13.9531
17.0445
19.0272
19.9107
20.0613
19.7754
19.3626
18.6762
17.8408
16.9278
15.9946
15.0808
14.2294
13.4146
12.678
12.0321
11.4848
11.0714
10.7483
10.5175
10.3712
10.3591
10.5151
10.9549
11.8678
14.0605
18.7569
29.6676
53.2925
96.3164
567.486
1705.98
1217.21
402.514
0.180559
1.44577
3.66658
6.67323
10.2832
13.927
17.0093
19.038
19.8936
20.0093
19.8125
19.3561
18.7116
17.8732
16.9374
16.0115
15.0983
14.2369
13.452
12.7003
12.0482
11.5001
11.0784
10.7531
10.491
10.3298
10.2587
10.3368
10.6187
11.2367
12.5338
15.438
21.6306
35.784
62.3663
131.995
859.61
1675.94
1045.69
453.532
0.180341
1.43591
3.66009
6.67239
10.243
13.9059
16.9865
19.0371
19.9342
20.0135
19.7811
19.402
18.7178
17.9141
16.9853
16.0176
15.1173
14.2466
13.4586
12.7335
12.0692
11.5193
11.086
10.7557
10.4868
10.2907
10.1975
10.2067
10.3877
10.8127
11.6541
13.4807
17.2964
25.5013
43.4005
70.2935
190.871
1215.57
1524.71
827.483
608.496
0.180286
1.43464
3.63737
6.67784
10.244
13.8835
16.9656
19.0183
19.9361
20.0566
19.7908
19.3788
18.7672
17.9258
17.0273
16.0737
15.1315
14.2695
13.469
12.7421
12.0974
11.5356
11.1032
10.7563
10.4837
10.2739
10.1425
10.1204
10.2202
10.5206
11.1141
12.2786
14.7707
19.8076
30.6625
52.2324
81.7126
291.228
1561.38
1312.76
544.684
828.31
0.180286
1.44311
3.63492
6.64008
10.2507
13.9139
16.9449
19.0016
19.9217
20.0285
19.8236
19.3543
18.7474
17.9389
17.036
16.108
15.1748
14.2829
13.4856
12.7556
12.1023
11.5569
11.1162
10.7651
10.4793
10.2587
10.1117
10.046
10.106
10.3073
10.7454
11.5483
13.193
16.5067
23.21
37.3655
61.2225
107.803
456.477
1757.6
1065.76
315.001
1154.47
0.180293
1.44865
3.65568
6.62185
10.1992
13.8962
16.981
18.9846
19.9098
20.0259
19.8018
19.3778
18.7447
17.9428
17.0522
16.1202
15.2063
14.3234
13.4947
12.768
12.107
11.56
11.1352
10.7778
10.4818
10.2461
10.0868
10.0011
10.0078
10.1561
10.4749
11.0771
12.1906
14.4547
18.8488
27.8084
45.5868
69.1064
151.419
699.004
1678.19
874.507
229.676
1569.38
0.180261
1.44898
3.66691
6.6561
10.1735
13.8337
16.9633
18.9944
19.8955
20.0339
19.8018
19.3821
18.7642
17.9475
17.0495
16.1483
15.2258
14.3515
13.5227
12.7759
12.1215
11.5656
11.1425
10.7946
10.4877
10.2434
10.0636
9.96359
9.94347
10.0292
10.2796
10.7347
11.5463
13.1242
16.1526
22.0173
33.8942
54.704
80.5133
223.19
999.271
1280.01
849.648
182.74
1854.08
0.180177
1.44359
3.66852
6.67492
10.2236
13.8293
16.9232
18.9764
19.9357
20.0232
19.8421
19.4111
18.7642
17.9661
17.056
16.1279
15.2464
14.3711
13.5565
12.8025
12.1326
11.5774
11.1495
10.8
10.5018
10.2423
10.0538
9.93069
9.88997
9.94086
10.1187
10.4847
11.1059
12.2365
14.4062
18.4374
26.3126
41.5733
63.0202
106.542
336.955
1254.15
788.49
846.876
218.878
2137.79
0.180002
1.43588
3.65869
6.67804
10.2488
13.8896
16.9163
18.9663
19.9478
20.065
19.8337
19.4445
18.7922
17.9806
17.0667
16.1268
15.223
14.3855
13.5703
12.8305
12.1585
11.592
11.1587
10.8047
10.5038
10.25
10.0478
9.91247
9.84499
9.86884
10.0003
10.2816
10.7864
11.622
13.2257
16.1315
21.5299
32.0386
50.3764
70.4605
149.278
502.091
1238.64
456.944
860.265
320.193
2382.39
0.179746
1.43159
3.64233
6.67967
10.2532
13.8932
16.9822
18.9568
19.9065
20.0677
19.8343
19.4284
18.8184
18.0054
17.0793
16.149
15.2263
14.3677
13.5788
12.8397
12.1794
11.6129
11.1718
10.8081
10.506
10.2498
10.0447
9.89868
9.81374
9.80799
9.90452
10.1292
10.5302
11.2064
12.3852
14.5756
18.4485
25.7168
39.3896
59.074
88.1576
217.347
694.343
886.009
394.743
921.411
481.744
2584.13
0.179415
1.43318
3.63197
6.65492
10.2562
13.8975
16.9818
19.0189
19.8958
20.0339
19.8233
19.4568
18.8138
18.0308
17.103
16.1576
15.2431
14.3771
13.5673
12.8444
12.1912
11.627
11.1928
10.816
10.5056
10.2477
10.0396
9.88789
9.79134
9.76389
9.82657
10.0066
10.3372
10.8841
11.7841
13.4631
16.3837
21.589
31.3515
48.1285
67.0496
119.984
316.828
793.927
535.132
456.415
913.724
710.213
2653.83
0.17898
1.43062
3.62805
6.62156
10.2235
13.9017
16.9564
19.0151
19.9496
20.0212
19.7986
19.4526
18.8285
18.0186
17.1223
16.1738
15.2587
14.3838
13.5692
12.836
12.194
11.6371
11.2064
10.8356
10.5111
10.2444
10.0349
9.87303
9.77462
9.72996
9.76806
9.90681
10.1807
10.6383
11.3684
12.6375
14.9195
18.8198
25.8701
38.7072
57.095
79.8999
169.607
425.416
725.749
327.335
681.165
785.218
1024.27
2568.17
0.178476
1.42489
3.62298
6.61623
10.1783
13.8627
16.9574
18.9835
19.9398
20.0578
19.7842
19.4221
18.833
18.0387
17.1146
16.1913
15.2722
14.4003
13.584
12.8352
12.1861
11.6485
11.2148
10.8515
10.5282
10.2494
10.0297
9.86509
9.75199
9.7038
9.72051
9.83013
10.0536
10.4396
11.0506
12.0492
13.8262
16.8752
22.1392
31.6832
47.5457
65.1565
106.994
241.458
498.448
544.314
173.507
971.186
555.319
1538.16
2229.87
0.177962
1.4245
3.61725
6.60761
10.1711
13.8331
16.9448
18.9836
19.9344
20.0768
19.8225
19.3927
18.7884
18.0318
17.1373
16.1809
15.2862
14.4184
13.5918
12.8441
12.1842
11.6456
11.2271
10.8592
10.542
10.263
10.0315
9.85746
9.73706
9.67395
9.68091
9.76585
9.95286
10.2781
10.7988
11.6116
13.0328
15.4367
19.5271
26.7
39.2778
56.5217
76.5213
148.829
319.469
489.15
335.38
63.7307
1320.58
212.237
2428.37
1586.02
0.177465
1.42483
3.61783
6.59887
10.1594
13.8258
16.9406
18.9686
19.9296
20.0607
19.8461
19.4256
18.791
18.012
17.149
16.2064
15.2858
14.4282
13.6091
12.8564
12.1893
11.6435
11.2222
10.8666
10.5447
10.2711
10.0379
9.85125
9.72283
9.65058
9.6416
9.71178
9.86778
10.1473
10.5935
11.2852
12.4284
14.3815
17.6057
23.1588
32.8878
48.2383
64.5962
102.139
206.625
360.347
408.934
214.468
113.54
1680.44
40.5118
4046.22
1100.77
0.176972
1.41722
3.61865
6.61508
10.1483
13.8137
16.9342
18.9639
19.914
20.057
19.8349
19.4221
18.803
18.0024
17.126
16.2086
15.304
14.4286
13.6227
12.8678
12.2046
11.6492
11.2228
10.8584
10.5474
10.2723
10.0428
9.85345
9.7114
9.63076
9.61015
9.66099
9.79772
10.0381
10.4284
11.0211
11.9668
13.5746
16.2003
20.5533
28.1485
40.8431
57.0564
76.4237
141.009
268.037
346.995
304.524
111.282
225.118
1814.88
155.241
5195.35
819.792
0.176565
1.41467
3.60118
6.61702
10.1722
13.8025
16.9238
18.9587
19.9093
20.0404
19.8265
19.4284
18.7825
18.0143
17.1184
16.1886
15.3077
14.442
13.6188
12.8865
12.2179
11.661
11.2288
10.8592
10.5431
10.2731
10.0448
9.85733
9.71018
9.61666
9.58328
9.61927
9.73348
9.9474
10.2884
10.8095
11.6001
12.9469
15.1282
18.6571
24.6076
34.8487
49.9505
65.1532
102.512
191.682
293.065
292.499
187.638
78.0157
410.369
1801.74
469.267
6153.01
672.03
0.17621
1.41572
3.58682
6.57217
10.1742
13.8072
16.9152
18.952
19.9067
20.0084
19.8032
19.4141
18.7827
18.0037
17.1187
16.1877
15.2819
14.4493
13.6299
12.8877
12.2337
11.6773
11.238
10.8662
10.5435
10.2682
10.0432
9.85575
9.70965
9.60941
9.56331
9.58198
9.67934
9.86597
10.1728
10.6325
11.3242
12.4529
14.2903
17.2131
22.0139
30.1549
43.2668
58.4872
79.2116
141.037
242.676
264.484
181.673
227.235
7.98328
861.531
1638.16
1026.23
6491.3
556.976
0.175912
1.41316
3.58863
6.54958
10.114
13.8131
16.898
18.9495
19.8757
20.0078
19.7803
19.3996
18.7661
17.9821
17.1057
16.1971
15.2809
14.4331
13.6428
12.8936
12.2394
11.6877
11.2546
10.8722
10.547
10.2682
10.0343
9.85183
9.70433
9.60312
9.55049
9.55244
9.63109
9.79562
10.0674
10.4842
11.0938
12.0527
13.6326
16.0923
20.042
26.6331
37.4836
52.3953
66.672
107.569
187.818
254.691
199.903
106.488
219.853
24.1668
1479.67
1276.2
1948.62
6428.03
460.294
0.175673
1.41106
3.58295
6.55214
10.0827
13.7671
16.8789
18.9379
19.8492
19.9769
19.771
19.3895
18.7482
17.9622
17.0928
16.1787
15.299
14.4202
13.6364
12.9055
12.249
11.693
11.2674
10.8848
10.5527
10.2704
10.0326
9.84072
9.69913
9.5933
9.53797
9.53267
9.59203
9.73511
9.97841
10.3528
10.9023
11.7255
13.0878
15.214
18.5208
23.9315
32.8943
46.2767
60.5417
84.8025
147.796
229.45
209.874
94.9989
134.567
251.881
78.7891
2096.47
721.596
3588.7
5826.94
374.487
0.175493
1.41458
3.56921
6.54208
10.0872
13.7315
16.8622
18.9261
19.8714
19.9593
19.7545
19.3893
18.7416
17.9492
17.0915
16.1693
15.2891
14.4235
13.6183
12.8966
12.2506
11.7055
11.2695
10.8991
10.5624
10.2766
10.0367
9.83729
9.68565
9.58411
9.52258
9.51254
9.56184
9.68545
9.90251
10.2401
10.7372
11.4651
12.6419
14.49
17.3345
21.8462
29.2712
40.9357
55.0184
69.7159
116.911
191.686
227.975
125.152
38.7671
210.112
197.155
229.648
2601.2
20.7758
6212.19
4922.61
296.811
0.175363
1.41329
3.58427
6.51988
10.0732
13.7379
16.8559
18.9135
19.8929
20.0111
19.7567
19.3661
18.7375
17.9402
17.0569
16.1615
15.2633
14.4129
13.6156
12.8861
12.2418
11.704
11.2791
10.9025
10.5722
10.282
10.0386
9.83935
9.67739
9.56747
9.50809
9.49227
9.53561
9.64482
9.83786
10.1431
10.5956
11.2499
12.2762
13.8987
16.3661
20.2184
26.4265
36.3856
50.0413
63.1434
93.5043
159.22
221.757
160.517
33.9917
73.9634
246.901
142.704
521.805
2752.09
321.001
8592.99
3847.93
226.474
0.175297
1.40756
3.59156
6.54399
10.0414
13.7227
16.838
18.912
19.8593
20.0585
19.7972
19.3707
18.7421
17.9524
17.049
16.1418
15.2435
14.3941
13.6026
12.8877
12.2303
11.6956
11.2804
10.913
10.5769
10.2917
10.041
9.83987
9.67658
9.55583
9.48763
9.47366
9.50914
9.60906
9.7835
10.0598
10.4738
11.0689
11.9706
13.4079
15.5806
18.9005
24.1884
32.6502
45.0441
58.3965
77.4638
130.34
199.174
200.33
56.6129
25.9972
119.501
346.398
30.8837
1264.02
2344.18
1134.9
10250.6
2799.98
162.52
0.175287
1.40714
3.57945
6.55569
10.0759
13.6841
16.823
18.8987
19.8638
20.0057
19.8275
19.4199
18.7476
17.9381
17.0757
16.1332
15.2349
14.382
13.5847
12.8713
12.2304
11.6839
11.2699
10.9121
10.585
10.2973
10.05
9.84117
9.6777
9.55182
9.47416
9.4482
9.4834
9.57413
9.73534
9.9901
10.3679
10.911
11.7107
12.9887
14.9278
17.8395
22.3778
29.6468
40.6569
53.8197
66.8408
106.675
173.421
212.448
108.733
6.48166
50.4729
193.081
330.932
35.18
2190.11
1544.74
2903.27
10617
1853.36
108.53
0.175331
1.40749
3.56921
6.53648
10.0912
13.7011
16.8118
18.8871
19.8824
19.9866
19.7796
19.4389
18.7896
17.9501
17.0499
16.1435
15.2244
14.3714
13.5697
12.8451
12.2201
11.6839
11.2581
10.9004
10.5812
10.3015
10.0521
9.84642
9.67724
9.55032
9.46615
9.4299
9.45358
9.54033
9.69148
9.92944
10.2792
10.7768
11.4929
12.6348
14.3699
16.9634
20.919
27.1732
36.9007
49.7269
62.0325
88.893
147.642
204.909
162.319
38.2538
18.0437
85.35
279.892
283.612
157.661
3345.83
469.102
6332.86
9640.41
1156.7
69.1612
0.175362
1.40351
3.56179
6.52011
10.0651
13.7188
16.803
18.8765
19.8732
20.0356
19.7638
19.3979
18.8327
17.9868
17.0586
16.1334
15.2236
14.3603
13.5577
12.8299
12.1949
11.6798
11.255
10.8905
10.5717
10.2991
10.0566
9.8454
9.67869
9.54763
9.45918
9.41914
9.42963
9.50271
9.64808
9.87215
10.1983
10.6613
11.318
12.3385
13.8994
16.218
19.722
25.1665
33.6566
45.6388
58.0634
76.1398
125.366
186.749
192.388
68.4593
35.1098
35.8807
135.599
397.222
141.56
838.604
3648.08
404.623
11118.6
7681.1
735.456
41.9802
0.175447
1.40838
3.56238
6.50768
10.0425
13.7141
16.794
18.9
19.8663
20.0532
19.7988
19.3861
18.797
18.0114
17.0918
16.1385
15.2218
14.3534
13.5541
12.8211
12.184
11.6632
11.2493
10.8855
10.5644
10.2916
10.0548
9.84642
9.67638
9.54695
9.45583
9.40809
9.41315
9.47353
9.60277
9.81687
10.1269
10.5591
11.1665
12.0874
13.5064
15.5919
18.7131
23.517
30.9757
41.8349
54.2824
66.74
105.789
169.247
201.171
105.874
35.3221
52.7442
58.8229
259.251
523.498
120.452
1931.46
3302.16
1244.14
14158
5382.3
454.581
24.1835
0.175537
1.41988
3.58213
6.50914
10.0255
13.6863
16.789
18.8917
19.8891
20.0196
19.8176
19.4227
18.7643
17.9989
17.1015
16.1738
15.2304
14.3557
13.5552
12.8181
12.1833
11.6562
11.2428
10.8781
10.5605
10.2817
10.045
9.84446
9.67672
9.54543
9.45431
9.40088
9.3988
9.45012
9.56615
9.7626
10.0576
10.4671
11.0329
11.8627
13.1642
15.0691
17.868
22.1333
28.7469
38.5766
50.7384
62.5436
90.4287
148.369
197.573
160.056
21.2674
34.9619
75.2916
94.2718
444.926
638.453
115.936
3289.04
2201.69
3404
15423.7
3405.14
265.489
13.0362
0.175577
1.40967
3.60511
6.54146
10.0273
13.6647
16.7854
18.856
19.8818
20.0158
19.7887
19.4359
18.8035
17.9875
17.1053
16.1881
15.2585
14.3619
13.5549
12.8195
12.1733
11.6572
11.2342
10.8732
10.5507
10.2759
10.0362
9.83551
9.67424
9.54432
9.44884
9.39803
9.38572
9.43151
9.53577
9.71739
9.98997
10.3806
10.9134
11.6646
12.8561
14.6138
17.1613
20.9732
26.8555
35.7447
47.4698
59.1025
79.0404
129.347
186.993
184.331
72.8116
4.34029
61.9923
98.3872
106.558
644.589
713.1
361.354
4365.2
72.5615
10384.8
13409.5
1965.28
142.429
6.55589
0.1757
1.40595
3.5856
6.57722
10.0717
13.6653
16.789
18.8516
19.8461
20.0315
19.782
19.4072
18.835
18.0052
17.1145
16.1838
15.2857
14.3874
13.5612
12.8186
12.168
11.6473
11.2292
10.864
10.5411
10.2646
10.0281
9.82455
9.66526
9.5387
9.44563
9.38781
9.37857
9.4144
9.50982
9.67756
9.93277
10.2989
10.8059
11.5044
12.5839
14.2058
16.5484
20.0007
25.2567
33.2534
44.2942
55.9743
70.3512
111.884
174.411
196.434
117.09
13.667
37.5599
83.5155
135.644
116.05
693.702
495.275
1495.07
3998.27
1165.34
16380.9
9845.32
1030.1
71.0467
3.05816
0.175727
1.40662
3.57734
6.54735
10.1193
13.6937
16.7602
18.8528
19.8397
20.0274
19.7954
19.4001
18.808
18.0195
17.1113
16.1936
15.2812
14.4141
13.5836
12.8229
12.1654
11.6463
11.2238
10.8527
10.5329
10.2525
10.0146
9.81641
9.65184
9.52708
9.43846
9.38213
9.36637
9.4008
9.48857
9.64329
9.88413
10.2277
10.7046
11.3654
12.3536
13.848
16.0075
19.1653
23.9159
31.1174
41.3437
52.9874
64.6465
97.4552
157.701
196.819
162.983
42.734
27.6212
62.396
77.6045
173.311
169.529
479.164
195.912
3515.78
2561.97
3531.34
20470.9
6136.45
513.964
32.8736
1.29781
0.175732
1.4035
3.57921
6.5343
10.0797
13.722
16.7595
18.8204
19.8116
20.0172
19.7836
19.4125
18.7989
18.0115
17.1116
16.2052
15.2897
14.4201
13.607
12.8416
12.1743
11.65
11.2266
10.8508
10.5252
10.2464
10.0039
9.80396
9.64382
9.51341
9.42401
9.373
9.35616
9.38446
9.47032
9.61438
9.83954
10.1655
10.6156
11.2383
12.1625
13.535
15.5362
18.4333
22.7619
29.31
38.7682
50.2081
61.4189
86.1955
140.624
192.149
174.499
89.7084
22.3321
58.2337
61.6742
40.1487
87.7335
282.793
232.136
1046.48
5127.63
677.667
12363.7
18373.9
3302.32
240.321
13.8926
0.494883
0.175726
1.40373
3.57117
6.53755
10.041
13.7017
16.7908
18.8185
19.7784
19.9634
19.7753
19.4017
18.808
18.0191
17.1053
16.2009
15.3029
14.4282
13.6061
12.862
12.1958
11.6576
11.2292
10.8524
10.5213
10.2403
9.99595
9.79156
9.63155
9.50472
9.40765
9.35716
9.34414
9.37131
9.44737
9.58982
9.80137
10.1099
10.5378
11.1249
11.9884
13.2729
15.1222
17.7997
21.7555
27.734
36.5038
47.6911
58.7097
77.4695
124.868
184.078
187.777
118.785
52.696
50.3639
62.0223
57.4233
134.424
336.754
788.559
123.047
2578.75
5222.38
1343.2
21942.1
13365.7
1555.06
102.004
5.25978
0.168352
0.175709
1.40362
3.57195
6.52423
10.0447
13.6794
16.7934
18.8463
19.8005
19.9034
19.744
19.3896
18.7997
18.0079
17.1257
16.1949
15.2996
14.4306
13.615
12.8607
12.2134
11.6764
11.2358
10.8534
10.5216
10.2352
9.99112
9.78117
9.61697
9.49027
9.39775
9.33942
9.32794
9.35627
9.4329
9.56167
9.76774
10.0597
10.4684
11.0241
11.8297
13.038
14.7689
17.2467
20.8842
26.346
34.4409
45.1995
56.218
70.5634
110.785
173.595
195.158
151.309
53.4355
67.0982
55.6755
22.3063
128.87
298.122
892.028
1222.6
35.975
4872.55
3177.57
7870.15
25224.7
7727.49
647.409
38.6576
1.75416
0.0498839
0.175663
1.4035
3.57163
6.52588
10.0474
13.6575
16.7961
18.8471
19.8232
19.9471
19.6869
19.3595
18.7865
17.9814
17.1286
16.2027
15.2944
14.4282
13.6231
12.869
12.2114
11.6905
11.2474
10.8628
10.5215
10.2337
9.98436
9.7772
9.60483
9.47575
9.3827
9.32804
9.30838
9.33737
9.41291
9.54217
9.73309
10.0166
10.4045
10.9333
11.6831
12.8235
14.4532
16.7688
20.1293
25.1376
32.581
42.7742
53.821
65.225
98.9768
159.427
198.168
168.779
63.7425
54.2987
85.1069
41.7729
47.9107
76.3829
387.293
1316.73
1335.98
894.84
6002.85
900.284
17796.8
21945.4
3702.77
241.049
13.0318
0.500786
0.012382
0.175641
1.40689
3.57127
6.52534
10.0492
13.6349
16.7405
18.8459
19.7933
19.9887
19.7008
19.3054
18.7562
17.9701
17.0991
16.2027
15.2965
14.4224
13.6201
12.8835
12.2181
11.6869
11.2596
10.8727
10.5292
10.2324
9.98143
9.77146
9.59846
9.46328
9.36781
9.31191
9.29326
9.31476
9.38849
9.51608
9.70601
9.9729
10.3487
10.8527
11.5466
12.6254
14.1669
16.3435
19.4768
24.098
30.9531
40.5173
51.5011
62.4317
89.3212
145.386
196.053
173.166
93.5585
37.2914
101.394
88.8838
117.454
183.219
157.447
326.02
1263.78
690.697
3381.84
5024.87
1397.55
28540.2
13752.5
1478.39
80.8588
3.79575
0.117495
0.00247453
0.175583
1.4161
3.57964
6.52437
10.0486
13.6624
16.6886
18.7862
19.7904
19.9344
19.7418
19.3152
18.705
17.9564
17.0732
16.1898
15.2954
14.4324
13.6144
12.888
12.2312
11.6902
11.2602
10.8832
10.5413
10.2385
9.98165
9.76692
9.5933
9.45458
9.35503
9.29439
9.27557
9.29612
9.36326
9.48753
9.67418
9.93513
10.2938
10.7806
11.4399
12.4383
13.9065
15.9584
18.8974
23.2033
29.5562
38.5379
49.3255
60.0564
81.6012
131.944
191.319
188.686
126.148
37.7455
94.1438
125.248
118.194
236.853
384.825
477.667
219.31
673.569
823.842
6232.34
1182.49
18306.7
29550.5
6740.98
498.978
23.4145
0.939885
0.0211282
0.000383324
0.17553
1.41575
3.5993
6.53815
10.0467
13.6606
16.7181
18.7345
19.7548
19.9284
19.7058
19.3432
18.7074
17.9251
17.0483
16.1609
15.2822
14.4389
13.6245
12.8828
12.2346
11.6991
11.2628
10.8837
10.5498
10.2484
9.98603
9.76557
9.58928
9.4475
9.34398
9.27883
9.25656
9.27557
9.34039
9.45757
9.64016
9.89602
10.2441
10.7114
11.3449
12.274
13.663
15.6124
18.3765
22.4072
28.347
36.803
47.3769
57.9259
75.2463
119.61
183.762
201.144
171.736
56.5324
85.8331
133.466
118.403
161.275
235.451
435.187
506.411
460.522
399.071
3577.02
6445.23
6565.17
32811.2
20475.5
2556.39
143.041
5.7441
0.192967
0.00312158
4.46737e-05
0.175423
1.40553
3.59788
6.56831
10.066
13.659
16.7161
18.7639
19.7069
19.9179
19.6973
19.3157
18.7318
17.9223
17.0304
16.1354
15.2662
14.4282
13.6309
12.8833
12.229
11.7002
11.2694
10.8893
10.5499
10.2591
9.99416
9.7708
9.58636
9.44371
9.33436
9.26514
9.23813
9.25533
9.31806
9.43224
9.60645
9.85638
10.1945
10.6481
11.2545
12.1297
13.4387
15.2949
17.9071
21.6939
27.2641
35.2503
45.5016
55.9506
69.9903
108.639
173.295
205.659
185.706
105.118
69.1068
132.644
127.116
78.5101
79.4703
93.5842
77.5981
196.381
1116.41
706.146
6611.38
3336.03
12825.3
34141.9
10108.1
777.206
34.5502
1.11918
0.0329807
0.000407354
4.49783e-06
0.175304
1.40127
3.57626
6.56636
10.107
13.7083
16.7421
18.7901
19.7351
19.8742
19.6617
19.3039
18.684
17.9409
17.0433
16.1218
15.2437
14.4145
13.6111
12.8818
12.2286
11.6941
11.2699
10.8948
10.5583
10.2615
10.0061
9.77976
9.58962
9.44084
9.32839
9.25486
9.22309
9.23453
9.29414
9.4056
9.57593
9.81618
10.1453
10.586
11.1714
11.9973
13.2371
14.9994
17.4786
21.0458
26.283
33.8287
43.7067
54.0719
65.5718
99.2769
161.021
206.274
183.198
130.004
94.8922
111.6
142.755
59.9043
78.3269
196.77
318.223
657.49
1822.67
1975.15
2004.65
7945.95
1740.35
29693.4
27737
3600.76
189.046
6.63607
0.182696
0.00499917
3.41552e-05
6.45931e-07
0.175189
1.40335
3.56551
6.53156
10.1033
13.7311
16.7962
18.8168
19.761
19.8754
19.6249
19.2686
18.6766
17.8961
17.0535
16.1285
15.2183
14.3809
13.5904
12.8617
12.2248
11.6924
11.2635
10.8904
10.5628
10.2658
10.0106
9.78717
9.59664
9.44215
9.32531
9.24813
9.21165
9.21954
9.27188
9.3789
9.54461
9.7795
10.0976
10.5253
11.0933
11.8786
13.0533
14.7314
17.086
20.4557
25.3855
32.5158
42.0137
52.3257
62.9775
91.411
149.076
203.906
182.836
133.686
105.376
95.7768
104.459
98.6895
74.9617
251.357
459.794
653.278
1421.24
2724.26
1499.09
5976.36
4566.99
8150.24
43497.2
12878.7
950.729
35.3969
1.0853
0.0270584
0.000676114
1.89394e-06
1.25437e-07
0.175056
1.40616
3.56892
6.51343
10.0561
13.7266
16.7929
18.8436
19.7585
19.871
19.6259
19.2323
18.6536
17.8705
17.0116
16.1379
15.2235
14.3466
13.5657
12.8402
12.2117
11.6878
11.2606
10.8837
10.5577
10.2688
10.0105
9.78783
9.60201
9.44685
9.32646
9.24247
9.20389
9.20493
9.25382
9.35292
9.51351
9.74213
10.0534
10.4668
11.0185
11.7704
12.8896
14.4869
16.7294
19.9191
24.5655
31.309
40.4264
50.6991
61.0618
84.9334
137.831
199.799
191.855
139.016
66.2297
93.2237
54.1169
102.226
76.3138
56.0766
191.536
163.953
508.355
1489.89
1772.92
1457.8
7821.71
6761.45
40878.6
30545.1
4285.43
178.802
5.6832
0.161361
0.00368379
8.15322e-05
6.72895e-07
8.49389e-08
0.174905
1.40509
3.57194
6.51745
10.0303
13.6698
16.789
18.8409
19.7837
19.8713
19.6219
19.2314
18.6238
17.851
16.9728
16.0988
15.2273
14.3482
13.5392
12.8235
12.1972
11.6768
11.2556
10.8843
10.5545
10.2669
10.0126
9.78955
9.60148
9.45277
9.33103
9.24132
9.1968
9.19375
9.23715
9.33126
9.48386
9.70602
10.0089
10.4123
10.9451
11.6709
12.7414
14.2675
16.4034
19.434
23.8216
30.2043
38.9636
49.1769
59.4011
79.5646
127.535
194.1
204.956
165.353
44.2533
66.0065
39.2332
70.3055
156.927
205.399
150.076
139.033
420.095
120.407
844.375
1520.2
7760.36
3293.73
17750.2
45659.4
14739.6
881.487
28.2724
0.82322
0.0221839
0.000432811
8.75229e-06
1.10305e-07
1.12187e-08
0.174747
1.40345
3.56911
6.5218
10.0336
13.6138
16.7275
18.8379
19.8098
19.9196
19.6189
19.2307
18.6237
17.8352
16.9513
16.0583
15.1916
14.3492
13.5374
12.8065
12.1829
11.664
11.2442
10.8828
10.5544
10.263
10.0129
9.7929
9.60442
9.45311
9.33474
9.24522
9.19335
9.18484
9.22306
9.31123
9.45666
9.67095
9.96562
10.3593
10.8778
11.5774
12.6072
14.0675
16.1099
18.992
23.1534
29.2038
37.621
47.7458
57.8912
75.0007
118.312
186.636
213.794
180.918
53.4879
57.8395
40.0414
35.4067
150.958
341.145
431.404
644.923
847.036
1270.93
655.292
631.676
4108.22
10057.8
1175.38
39353
35065.7
3919.74
137.447
4.02109
0.10979
0.00275911
4.05436e-05
1.034e-06
5.41303e-08
4.2457e-08
0.174578
1.40179
3.56621
6.51666
10.0373
13.6355
16.6675
18.7767
19.8078
19.9686
19.6635
19.2275
18.6204
17.8359
16.953
16.0377
15.1641
14.3159
13.5364
12.8048
12.1622
11.6518
11.2322
10.8717
10.5482
10.262
10.0057
9.7924
9.60906
9.45466
9.33356
9.24849
9.19448
9.18108
9.20943
9.29415
9.43337
9.63914
9.92462
10.3086
10.8141
11.4959
12.484
13.8886
15.8421
18.5939
22.5492
28.2991
36.3758
46.3976
56.4453
71.065
110.056
177.757
217.686
182.764
80.4226
64.3144
52.6368
18.944
92.1896
280.376
458.854
585.725
764.978
1081.6
299.802
963.036
798.136
8299.74
7465.49
23733.1
54928.1
13411.3
628.965
18.9457
0.528541
0.0135462
0.000298961
1.9778e-06
1.81912e-07
2.60232e-08
1.04766e-07
0.174403
1.4
3.56205
6.50968
10.03
13.6558
16.7034
18.7171
19.7504
19.9696
19.7097
19.2451
18.6159
17.8325
16.9523
16.0394
15.1424
14.2995
13.5049
12.8019
12.1529
11.6318
11.2196
10.8591
10.537
10.2552
10.0035
9.78474
9.60745
9.45552
9.33552
9.24565
9.19693
9.17885
9.20526
9.27906
9.4141
9.61127
9.88789
10.2595
10.7531
11.4192
12.3794
13.7255
15.6024
18.2334
22.0045
27.4756
35.2151
45.031
55.0293
67.6201
102.774
168.112
219.468
187.193
122.555
38.3286
39.5732
12.8937
78.6125
148.499
317.082
367.114
241.55
214.558
319.922
2202.04
2891.49
2649.11
8697.19
7525.09
57656
32798.2
2738.44
85.4072
2.41179
0.0639234
0.00146644
2.77012e-05
8.79029e-08
4.92687e-08
6.749e-08
4.74045e-08
0.174218
1.39906
3.5568
6.50396
10.0198
13.6475
16.7391
18.7564
19.6946
19.9158
19.707
19.2881
18.6339
17.8291
16.949
16.0379
15.1318
14.2791
13.4904
12.771
12.1496
11.6228
11.2055
10.8469
10.5243
10.2437
9.99918
9.78169
9.5994
9.45292
9.33478
9.24587
9.19213
9.17697
9.19967
9.27095
9.39504
9.58775
9.85408
10.2154
10.6946
11.3429
12.282
13.5849
15.3849
17.9096
21.5103
26.7299
34.1322
43.6807
53.6242
64.5445
96.3728
158.582
218.982
198.552
164.378
31.2777
51.7373
46.9573
133.797
76.7112
148.169
136.71
160.241
480.178
1130.3
2193.05
4496.64
2814.14
6631.9
5585.25
38292.6
54399.1
10163
374.537
10.5627
0.282482
0.00680051
0.000133132
2.26494e-06
3.62498e-08
9.86118e-08
4.25574e-08
1.68424e-07
0.174036
1.39854
3.5542
6.49624