/*--------------------------------*- C++ -*----------------------------------*\
| =========                 |                                                 |
| \\      /  F ield         | OpenFOAM: The Open Source CFD Toolbox           |
|  \\    /   O peration     | Version:  v2012                                 |
|   \\  /    A nd           | Website:  www.openfoam.com                      |
|    \\/     M anipulation  |                                                 |
\*---------------------------------------------------------------------------*/
FoamFile
{
    version     2.0;
    format      ascii;
    class       volScalarField;
    location    "3800";
    object      Rew;
}
// * * * * * * * * * * * * * * * * * * * * * * * * * * * * * * * * * * * * * //

dimensions      [0 0 0 0 0 0 0];


internalField   nonuniform List<scalar> 
29502
(
0.342198
0.171121
12.0973
0.168916
1.42525
19.7128
0.183963
1.69382
3.46316
25.6396
0.193603
2.79285
4.02519
5.78972
30.6929
0.199084
2.52784
6.0566
6.88081
8.40246
35.7771
0.201814
2.73243
5.68492
9.81584
10.1685
11.4616
41.0852
0.202716
2.57407
6.22391
9.40271
13.6348
13.565
14.9943
46.9904
0.20271
2.16985
5.91817
10.1423
13.274
17.1546
16.6346
19.0929
53.7972
0.201872
2.12019
5.08766
9.74602
14.1915
16.8766
19.6336
19.0746
23.8551
61.5865
0.200635
1.76573
5.0022
8.70032
13.8153
17.7979
19.354
20.9752
20.8774
29.3397
70.485
0.199521
1.71498
4.36656
8.59861
12.7275
17.4947
20.2397
20.5696
21.3926
22.3197
35.7101
80.3753
0.198723
1.68602
4.25974
7.73679
12.5729
16.4211
20.0176
21.3161
20.7616
21.2427
23.8867
43.1705
91.7961
0.197778
1.65574
4.17854
7.60426
11.5354
16.267
19.0423
21.1257
21.3065
20.3731
21.1608
25.3525
52.0007
104.817
0.196262
1.6235
4.13245
7.46522
11.3918
15.1733
18.956
20.3182
21.1836
20.6975
19.9774
21.0287
26.7487
62.4522
119.684
0.195205
1.59868
4.05345
7.41005
11.2102
15.0234
17.9608
20.3048
20.5671
20.6036
20.0965
19.474
20.8046
28.1735
74.8405
136.359
0.194136
1.57047
3.99506
7.27991
11.1579
14.85
17.8254
19.4986
20.5861
20.1734
20.0328
19.3953
18.8178
20.5679
29.6391
89.4553
155.427
0.193148
1.5626
3.93716
7.18434
11.0078
14.8158
17.6929
19.4303
19.9356
20.2387
19.7071
19.2933
18.5392
18.1376
20.3478
31.1265
116.076
177.147
0.192352
1.55625
3.92563
7.1099
10.8791
14.6431
17.6624
19.3262
19.9248
19.721
19.7901
19.0502
18.4149
17.6267
17.4898
20.1963
33.1583
138.074
201.611
0.191374
1.5448
3.91765
7.0806
10.7982
14.4992
17.5266
19.3389
19.8761
19.7483
19.4104
19.1469
18.199
17.4574
16.7654
16.9316
20.1977
35.8635
164.053
229.468
0.190482
1.53361
3.88819
7.05687
10.7516
14.4303
17.418
19.2512
19.9248
19.734
19.45
18.8529
18.2996
17.2739
16.528
15.9666
16.5046
20.4442
39.2239
194.967
261.004
0.189744
1.52332
3.86148
7.00952
10.7123
14.4007
17.3493
19.1673
19.863
19.7901
19.4536
18.9213
18.1033
17.3522
16.3463
15.6675
15.2783
16.215
21.0043
43.2089
231.596
296.372
0.189035
1.52735
3.83576
6.96217
10.6669
14.3529
17.3276
19.1187
19.8132
19.7683
19.5075
18.9344
18.1691
17.2213
16.4184
15.4596
14.8906
14.7199
16.0748
21.9276
47.6255
274.632
336.202
0.188346
1.51237
3.82972
6.92004
10.602
14.2977
17.2783
19.1041
19.7768
19.7636
19.5202
19.0027
18.2014
17.3008
16.3128
15.4977
14.6359
14.2056
14.3038
16.119
23.2757
51.9303
324.749
380.326
0.18786
1.49958
3.79802
6.9258
10.5425
14.2217
17.2268
19.0976
19.8036
19.7373
19.5027
19.0161
18.2663
17.33
16.3849
15.4208
14.6412
13.9101
13.6436
14.0309
16.3959
25.1421
55.6409
382.078
429.195
0.18732
1.49994
3.78212
6.89113
10.5703
14.1768
17.1547
19.0789
19.8288
19.7674
19.5012
19.0304
18.2982
17.3985
16.4154
15.476
14.5702
13.8676
13.2798
13.1904
13.9147
16.9528
27.6968
60.4787
446.54
482.384
0.186573
1.49634
3.77916
6.86172
10.521
14.2112
17.1384
19.0436
19.8195
19.7978
19.5451
19.0512
18.3356
17.4396
16.4931
15.5189
14.6269
13.787
13.1899
12.7562
12.8672
13.9707
17.8377
31.149
72.0548
517.461
539.711
0.185811
1.4895
3.77094
6.83945
10.4589
14.1535
17.2045
19.036
19.8214
19.815
19.5701
19.0842
18.3471
17.4816
16.5311
15.5915
14.6599
13.8311
13.0905
12.6049
12.344
12.6815
14.2196
19.1264
35.7759
89.8851
594.133
600.805
0.185182
1.48329
3.75457
6.82471
10.4248
14.0787
17.1448
19.1094
19.8496
19.8291
19.577
19.1254
18.3919
17.5099
16.5713
15.6266
14.7142
13.861
13.118
12.484
12.1233
12.0368
12.6384
14.6901
20.9111
41.827
116.677
676.085
664.967
0.184832
1.47793
3.74038
6.8134
10.4061
14.0406
17.0987
19.0556
19.8947
19.8466
19.5805
19.1305
18.4382
17.5691
16.603
15.6709
14.7538
13.905
13.1339
12.4862
11.9688
11.7449
11.8491
12.7555
15.4307
23.3225
49.2427
158.609
763.003
732.118
0.184564
1.47795
3.72756
6.78851
10.4101
14.0421
17.0848
19.0131
19.8519
19.921
19.6126
19.141
18.4785
17.612
16.6647
15.7007
14.8009
13.9296
13.1647
12.484
11.9405
11.5554
11.4808
11.7845
13.0486
16.4993
26.5126
57.2133
226.807
855.32
802.413
0.184268
1.47553
3.72963
6.76799
10.3977
14.05
17.0906
19.0303
19.8414
19.9051
19.6772
19.1791
18.497
17.647
16.7163
15.755
14.8297
13.9757
13.1841
12.5035
11.9211
11.4953
11.2583
11.3441
11.8544
13.5466
17.9848
30.6622
63.8251
339.616
953.371
859.795
0.183862
1.47312
3.72343
6.77202
10.3693
14.0347
17.102
19.0131
19.8601
19.9257
19.68
19.2392
18.5331
17.6829
16.7454
15.8054
14.8747
14.0091
13.2248
12.5198
11.9302
11.4572
11.1657
11.069
11.306
12.0712
14.2934
20.0077
35.9729
69.4937
517.198
1045.61
884.148
0.183379
1.46983
3.71854
6.76265
10.3758
13.9997
17.0631
19.0313
19.8458
19.9319
19.6937
19.2426
18.5933
17.7283
16.7745
15.8354
14.9176
14.0489
13.2536
12.5486
11.9324
11.4461
11.1037
10.9406
10.9648
11.3636
12.458
15.3503
22.7419
42.7359
85.9958
756.367
1121.52
870.448
0.182827
1.46232
3.71074
6.75423
10.3634
14.0107
17.0295
19.0276
19.8717
19.9286
19.7063
19.2546
18.5925
17.7855
16.8266
15.8706
14.9529
14.0828
13.2919
12.5704
11.9525
11.4364
11.0751
10.8494
10.7884
10.9409
11.5267
13.0496
16.8022
26.3822
51.1214
113.991
1008.61
1194.19
808.315
0.182267
1.45807
3.69596
6.74214
10.3511
13.9935
17.0687
19.0237
19.8978
19.9527
19.7116
19.2768
18.5948
17.788
16.8863
15.9136
14.9907
14.1131
13.3196
12.5978
11.9627
11.449
11.0524
10.7989
10.664
10.7087
11.0041
11.8196
13.8938
18.7643
31.1298
60.299
158.655
1230.64
1255.78
693.698
0.181731
1.45913
3.6863
6.73513
10.3347
14.0067
17.0495
19.0926
19.9249
19.9826
19.7484
19.2995
18.6393
17.7953
16.8864
15.966
15.0296
14.1578
13.3476
12.6292
11.9853
11.4556
11.0616
10.7664
10.5918
10.5473
10.7022
11.1686
12.3106
15.0547
21.4058
37.179
67.9433
233.099
1444.55
1286.84
532.815
0.181228
1.44614
3.68718
6.71843
10.3258
13.9876
17.0631
19.0421
19.9874
20.0042
19.7737
19.3458
18.6597
17.8238
16.8972
15.9713
15.069
14.1895
13.3816
12.6532
12.0106
11.4697
11.0595
10.7608
10.5414
10.4454
10.4949
10.7815
11.4443
13.0415
16.6294
24.9539
44.5981
75.1421
360.288
1617.25
1271.96
344.299
0.180836
1.44428
3.66811
6.70407
10.3041
13.9531
17.0445
19.0272
19.9107
20.0613
19.7754
19.3626
18.6762
17.8408
16.9278
15.9946
15.0808
14.2294
13.4146
12.678
12.0321
11.4848
11.0714
10.7483
10.5175
10.371
10.3591
10.5152
10.9548
11.8675
14.06
18.7562
29.667
53.2915
96.2823
564.769
1717.61
1193.77
178.255
0.180559
1.44577
3.66658
6.67323
10.2832
13.927
17.0093
19.038
19.8936
20.0093
19.8125
19.3561
18.7116
17.8732
16.9374
16.0114
15.0983
14.2369
13.4521
12.7004
12.0482
11.5001
11.0784
10.7531
10.491
10.3297
10.2586
10.3368
10.6188
11.2366
12.5334
15.4374
21.6298
35.783
62.3653
131.784
856.579
1683.66
1038.05
33.7397
0.180341
1.43591
3.66009
6.67239
10.243
13.9059
16.9865
19.0371
19.9342
20.0135
19.7811
19.402
18.7178
17.9141
16.9852
16.0176
15.1173
14.2466
13.4587
12.7335
12.0692
11.5193
11.086
10.7558
10.4868
10.2908
10.1975
10.2065
10.3876
10.8128
11.654
13.4802
17.2957
25.5003
43.3986
70.2883
190.06
1215.73
1516.29
820.55
76.1218
0.180286
1.43464
3.63737
6.67784
10.244
13.8835
16.9656
19.0183
19.9361
20.0566
19.7908
19.3788
18.7672
17.9258
17.0273
16.0737
15.1315
14.2695
13.469
12.7421
12.0974
11.5356
11.1032
10.7562
10.4837
10.2739
10.1425
10.1204
10.22
10.5206
11.1141
12.2785
14.7702
19.8066
30.6612
52.229
81.6803
288.662
1566.77
1290.46
549.149
128.243
0.180286
1.44311
3.63492
6.64007
10.2507
13.9139
16.9449
19.0016
19.9217
20.0285
19.8236
19.3543
18.7474
17.939
17.036
16.108
15.1748
14.2829
13.4855
12.7556
12.1023
11.5569
11.1163
10.7651
10.4792
10.2587
10.1117
10.046
10.1059
10.3071
10.7453
11.5484
13.1928
16.5061
23.2088
37.3633
61.2165
107.651
450.761
1761.85
1006.55
335.201
176.214
0.180293
1.44865
3.65568
6.62185
10.1992
13.8962
16.981
18.9846
19.9098
20.0259
19.8018
19.3778
18.7447
17.9428
17.0522
16.1202
15.2063
14.3234
13.4946
12.768
12.107
11.56
11.1352
10.7779
10.4818
10.2461
10.0868
10.0011
10.0079
10.156
10.4746
11.0771
12.1907
14.4545
18.8479
27.8067
45.5827
69.0923
150.712
691.051
1683.64
684.885
220.327
202.66
0.180261
1.44898
3.66691
6.6561
10.1735
13.8337
16.9633
18.9944
19.8955
20.0339
19.8018
19.3821
18.7642
17.9476
17.0495
16.1483
15.2258
14.3515
13.5226
12.7759
12.1215
11.5656
11.1426
10.7947
10.4877
10.2434
10.0635
9.96363
9.94345
10.0293
10.2795
10.7344
11.5462
13.1243
16.1523
22.0161
33.8916
54.6963
80.4619
220.627
992.499
1287.31
441.949
130.176
155.235
0.180177
1.44359
3.66852
6.67492
10.2236
13.8293
16.9232
18.9764
19.9357
20.0232
19.8421
19.4111
18.7642
17.9661
17.056
16.1279
15.2464
14.3711
13.5565
12.8024
12.1326
11.5773
11.1495
10.8
10.5019
10.2424
10.0538
9.93065
9.89002
9.94084
10.1188
10.4846
11.1055
12.2364
14.4063
18.437
26.3109
41.5687
63.0057
106.343
331.009
1253.43
797.054
292.292
45.156
52.5471
0.180002
1.43588
3.65869
6.67804
10.2488
13.8896
16.9163
18.9663
19.9478
20.0649
19.8337
19.4445
18.7922
17.9806
17.0667
16.1268
15.223
14.3855
13.5703
12.8305
12.1584
11.5919
11.1587
10.8048
10.5038
10.2501
10.0479
9.91248
9.84495
9.8689
10.0003
10.2816
10.7862
11.6215
13.2256
16.1316
21.5294
32.036
50.3677
70.4248
148.31
493.256
1222.59
461.696
85.8201
11.955
32.6297
0.179746
1.43159
3.64233
6.67967
10.2532
13.8932
16.9822
18.9568
19.9065
20.0676
19.8343
19.4284
18.8184
18.0054
17.0793
16.149
15.2264
14.3677
13.5789
12.8398
12.1794
11.6129
11.1717
10.8081
10.506
10.2498
10.0447
9.89879
9.81375
9.80794
9.9046
10.1291
10.5302
11.2062
12.3846
14.5754
18.4487
25.7159
39.3852
59.0582
88.0424
213.547
685.215
873.411
325.147
61.67
11.803
44.5347
0.179415
1.43318
3.63197
6.65492
10.2562
13.8975
16.9818
19.0189
19.8958
20.0339
19.8233
19.4568
18.8138
18.0308
17.103
16.1576
15.2431
14.3772
13.5673
12.8444
12.1913
11.627
11.1927
10.8159
10.5056
10.2477
10.0396
9.88791
9.79146
9.7639
9.82651
10.0067
10.3372
10.8842
11.7839
13.4623
16.3834
21.5892
31.3498
48.1202
67.019
119.548
307.526
789.12
530.437
249.791
81.4286
0.475652
5.72192
0.17898
1.43062
3.62805
6.62156
10.2235
13.9017
16.9564
19.0151
19.9496
20.0212
19.7986
19.4526
18.8285
18.0186
17.1223
16.1738
15.2587
14.3839
13.5692
12.836
12.1941
11.6371
11.2064
10.8355
10.511
10.2444
10.0349
9.87301
9.77463
9.7301
9.76807
9.90674
10.1808
10.6382
11.3685
12.6372
14.9183
18.8194
25.8701
38.7038
57.079
79.8172
167.606
412.912
708.989
325.494
65.5732
45.2048
8.62703
50.6126
0.178476
1.42489
3.62298
6.61623
10.1783
13.8627
16.9574
18.9835
19.9398
20.0578
19.7842
19.4221
18.833
18.0387
17.1145
16.1913
15.2722
14.4003
13.584
12.8352
12.1861
11.6485
11.2149
10.8515
10.5282
10.2493
10.0296
9.86513
9.75196
9.70381
9.72067
9.83013
10.0535
10.4397
11.0505
12.0492
13.8258
16.8738
22.1385
31.6827
47.5385
65.125
106.697
234.167
489.427
500.078
178.557
56.395
16.196
7.82381
123.07
0.177962
1.4245
3.61725
6.60761
10.1711
13.8331
16.9448
18.9836
19.9344
20.0768
19.8225
19.3927
18.7884
18.0318
17.1373
16.1809
15.2862
14.4184
13.5918
12.8441
12.1842
11.6456
11.2272
10.8593
10.542
10.2629
10.0313
9.85743
9.7371
9.67391
9.6809
9.76603
9.95285
10.278
10.799
11.6114
13.0329
15.4362
19.5251
26.6986
39.2759
56.5067
76.442
147.489
303.846
485.81
304.236
35.5175
108.832
51.9468
44.7131
144.003
0.177465
1.42483
3.61783
6.59887
10.1594
13.8258
16.9406
18.9686
19.9296
20.0607
19.8461
19.4256
18.791
18.012
17.149
16.2064
15.2858
14.4282
13.6091
12.8564
12.1893
11.6435
11.2222
10.8667
10.5448
10.2711
10.0378
9.85112
9.72279
9.65062
9.64153
9.71176
9.86798
10.1473
10.5934
11.2854
12.4283
14.3816
17.605
23.1558
32.885
48.2328
64.565
101.869
200.68
345.567
395.132
144.693
1.55764
83.7184
15.9386
24.9798
136.121
0.176972
1.41722
3.61865
6.61508
10.1483
13.8137
16.9342
18.9639
19.914
20.057
19.8349
19.4221
18.803
18.0024
17.126
16.2086
15.304
14.4285
13.6227
12.8678
12.2046
11.6492
11.2228
10.8584
10.5474
10.2724
10.0428
9.85339
9.71125
9.63073
9.6102
9.66091
9.79769
10.0383
10.4284
11.0209
11.967
13.5743
16.2004
20.5522
28.144
40.8375
57.0429
76.3438
139.915
251.382
341.955
251.429
22.656
27.2519
42.3569
28.1752
190.716
123.558
0.176565
1.41467
3.60118
6.61702
10.1722
13.8025
16.9238
18.9587
19.9093
20.0404
19.8265
19.4284
18.7825
18.0143
17.1184
16.1886
15.3077
14.442
13.6187
12.8865
12.2179
11.661
11.2288
10.8592
10.5432
10.2732
10.0449
9.85743
9.71012
9.6165
9.58324
9.61932
9.73338
9.94734
10.2886
10.8094
11.5998
12.9471
15.1278
18.6572
24.606
34.8415
49.9388
65.1212
102.231
186.437
272.113
287.446
90.9801
17.8686
34.2987
69.7236
51.0708
300.633
110.894
0.17621
1.41572
3.58682
6.57217
10.1742
13.8072
16.9152
18.952
19.9067
20.0084
19.8032
19.4141
18.7827
18.0037
17.1187
16.1877
15.2819
14.4493
13.6299
12.8876
12.2337
11.6773
11.238
10.8661
10.5435
10.2682
10.0433
9.85594
9.70977
9.60934
9.56312
9.58194
9.6794
9.86584
10.1727
10.6328
11.3241
12.4525
14.2906
17.2126
22.0138
30.1521
43.2543
58.463
79.1193
139.969
224.779
255.408
166.547
0.443904
14.0976
31.6745
79.278
1.99872
250.727
95.8451
0.175912
1.41316
3.58863
6.54958
10.114
13.8131
16.898
18.9495
19.8757
20.0078
19.7803
19.3996
18.7661
17.9821
17.1057
16.1971
15.2809
14.4331
13.6428
12.8936
12.2394
11.6877
11.2546
10.8722
10.547
10.2682
10.0343
9.85197
9.70456
9.60327
9.55042
9.55222
9.63104
9.79571
10.0672
10.4841
11.0942
12.0525
13.6321
16.0926
20.0411
26.6328
37.4785
52.3731
66.6198
107.202
182.621
228.439
198.991
32.784
3.66993
16.9555
69.4935
14.5859
83.5607
137.13
78.4969
0.175673
1.41106
3.58295
6.55214
10.0827
13.7671
16.8789
18.9379
19.8492
19.9769
19.771
19.3895
18.7482
17.9623
17.0928
16.1787
15.299
14.4202
13.6364
12.9055
12.2489
11.693
11.2674
10.8847
10.5526
10.2704
10.0326
9.84074
9.69928
9.59357
9.53816
9.5326
9.59178
9.73506
9.97851
10.3526
10.9022
11.7259
13.0876
15.2133
18.521
23.9301
32.8931
46.2669
60.5012
84.6585
146.276
209.487
195.863
86.8891
9.93893
11.5632
30.2875
90.0869
59.2388
175.74
35.9317
61.4315
0.175493
1.41458
3.56921
6.54208
10.0872
13.7315
16.8622
18.9261
19.8714
19.9593
19.7545
19.3893
18.7416
17.9492
17.0915
16.1693
15.289
14.4235
13.6183
12.8966
12.2506
11.7055
11.2694
10.8991
10.5623
10.2765
10.0366
9.83724
9.68566
9.58429
9.52291
9.51277
9.56176
9.68516
9.90246
10.2402
10.7369
11.4649
12.6423
14.4896
17.3335
21.8464
29.2685
40.9323
54.9987
69.6328
116.368
184.898
195.848
124.033
2.89113
12.8849
26.8796
68.9184
68.4388
62.469
179.723
52.4392
46.1997
0.175363
1.41329
3.58427
6.51988
10.0732
13.7379
16.8559
18.9135
19.8929
20.0111
19.7567
19.3661
18.7375
17.9402
17.0569
16.1616
15.2633
14.4129
13.6156
12.8861
12.2418
11.704
11.2791
10.9025
10.5722
10.282
10.0385
9.83927
9.6773
9.56747
9.5083
9.49266
9.53589
9.64474
9.83751
10.1431
10.5958
11.2496
12.2759
13.8991
16.3656
20.2168
26.4261
36.3804
50.0331
63.1042
93.2707
156.787
197.297
142.55
31.6874
13.9717
21.0103
43.55
53.3718
39.7323
84.2312
208.728
114.194
33.5587
0.175297
1.40756
3.59156
6.54399
10.0414
13.7227
16.838
18.912
19.8593
20.0585
19.7972
19.3707
18.7421
17.9524
17.049
16.1418
15.2435
14.3941
13.6026
12.8877
12.2303
11.6956
11.2804
10.9129
10.5769
10.2917
10.041
9.83979
9.67647
9.55572
9.48761
9.4739
9.50962
9.6094
9.78341
10.0594
10.4737
11.0691
11.9702
13.4075
15.5811
18.8996
24.1857
32.6488
45.0335
58.3766
77.3682
129.503
188.331
160.824
53.6787
7.80073
21.6463
30.7576
39.9384
16.8206
6.73059
56.1884
226.996
144.841
23.6515
0.175287
1.40714
3.57945
6.55569
10.0759
13.6841
16.823
18.8987
19.8638
20.0057
19.8275
19.4199
18.7476
17.9381
17.0757
16.1332
15.2349
14.382
13.5847
12.8713
12.2304
11.6839
11.27
10.9121
10.5849
10.2973
10.05
9.84112
9.6776
9.55168
9.47401
9.44815
9.48368
9.5747
9.73574
9.98999
10.3674
10.911
11.711
12.9882
14.9272
17.84
22.3764
29.6422
40.6527
53.7976
66.7899
106.351
169.242
178.578
82.6468
7.52578
22.7256
34.2093
32.9012
9.0292
5.74172
87.9814
8.34225
148.311
140.185
16.0596
0.175331
1.40749
3.56921
6.53648
10.0912
13.7011
16.8118
18.8871
19.8824
19.9866
19.7796
19.4389
18.7896
17.9501
17.0499
16.1435
15.2244
14.3714
13.5697
12.8451
12.2201
11.6839
11.2581
10.9004
10.5812
10.3015
10.0521
9.84639
9.67718
9.55019
9.46596
9.4297
9.4535
9.54065
9.69217
9.92992
10.279
10.7762
11.4928
12.6351
14.3693
16.9626
20.9195
27.1706
36.8921
49.7174
61.9889
88.7212
146.344
185.814
115.688
11.4212
10.7505
39.0826
40.8874
10.0242
35.8127
34.857
100.878
118.31
13.5705
103.713
10.0933
0.175362
1.40351
3.56179
6.52011
10.0651
13.7188
16.803
18.8765
19.8732
20.0356
19.7638
19.3979
18.8327
17.9868
17.0586
16.1334
15.2236
14.3603
13.5577
12.8299
12.1949
11.6798
11.255
10.8906
10.5718
10.2991
10.0566
9.84539
9.67866
9.54755
9.45902
9.4189
9.42936
9.5026
9.64844
9.87298
10.1989
10.6612
11.3172
12.3384
13.8999
16.2173
19.7208
25.1668
33.6521
45.6227
58.0406
76.0378
124.651
179.888
145.513
36.4136
4.91853
28.2162
53.8895
22.1144
20.8265
61.6101
39.3496
50.5712
255.604
115.983
65.2831
6.01787
0.175447
1.40838
3.56238
6.50768
10.0425
13.7141
16.794
18.9
19.8663
20.0532
19.7988
19.3861
18.797
18.0114
17.0917
16.1385
15.2218
14.3534
13.5541
12.8211
12.184
11.6632
11.2493
10.8855
10.5644
10.2917
10.0549
9.84643
9.67637
9.54691
9.45572
9.40789
9.41285
9.47319
9.6026
9.81728
10.1278
10.5598
11.1663
12.0864
13.5063
15.5925
18.7122
23.5151
30.9752
41.8263
54.2504
66.6842
105.475
165.79
169.07
60.3027
3.95047
20.2166
45.7709
23.2887
15.2914
31.9997
80.6013
7.82119
41.6062
302.705
171.167
38.128
3.36034
0.175537
1.41988
3.58213
6.50914
10.0255
13.6863
16.789
18.8917
19.8891
20.0196
19.8176
19.4227
18.7643
17.9989
17.1015
16.1738
15.2304
14.3557
13.5552
12.818
12.1833
11.6562
11.2428
10.8781
10.5606
10.2817
10.0451
9.8445
9.67674
9.54542
9.45426
9.40074
9.39854
9.44974
9.56572
9.76236
10.0581
10.4683
11.0337
11.8624
13.1629
15.0689
17.8687
22.132
28.7437
38.5742
50.7225
62.4826
90.2375
147.138
181.123
90.6985
11.0254
16.2688
41.5815
45.4177
9.35486
49.8324
65.9692
58.4974
38.8083
88.2434
193.603
164.642
20.6644
1.76112
0.175577
1.40967
3.60511
6.54146
10.0273
13.6647
16.7854
18.8561
19.8818
20.0158
19.7887
19.4359
18.8035
17.9875
17.1053
16.1881
15.2584
14.3619
13.5549
12.8195
12.1733
11.6572
11.2342
10.8732
10.5507
10.276
10.0363
9.83561
9.6743
9.54436
9.44884
9.39798
9.38555
9.43119
9.5353
9.71686
9.98964
10.3811
10.9148
11.6656
12.8557
14.612
17.1608
20.974
26.8535
35.7387
47.4632
59.0713
78.8992
128.577
180.132
131.363
23.0352
2.1943
38.5144
47.7781
15.4994
42.6228
56.1729
53.2738
97.2434
54.5115
158.967
23.9441
120.551
10.7938
0.847056
0.1757
1.40595
3.5856
6.57722
10.0717
13.6653
16.789
18.8516
19.8461
20.0315
19.782
19.4072
18.835
18.0052
17.1145
16.1838
15.2857
14.3874
13.5612
12.8186
12.168
11.6472
11.2292
10.864
10.5411
10.2646
10.0282
9.82469
9.66539
9.53879
9.44569
9.38782
9.37851
9.4142
9.50942
9.67697
9.93209
10.2984
10.8065
11.5061
12.5851
14.2052
16.5459
19.9996
25.2574
33.2501
44.2826
55.9566
70.2827
111.445
170.645
160.164
42.1066
2.19189
31.9751
47.4521
19.5747
31.483
64.4806
42.092
2.30336
73.1154
13.3207
323.622
156.437
70.7117
5.11248
0.368151
0.175727
1.40662
3.57734
6.54735
10.1193
13.6937
16.7602
18.8528
19.8397
20.0275
19.7954
19.4001
18.808
18.0195
17.1113
16.1936
15.2812
14.4141
13.5835
12.8229
12.1654
11.6463
11.2237
10.8527
10.5329
10.2524
10.0146
9.81653
9.65202
9.52725
9.43858
9.38222
9.3664
9.40074
9.48832
9.64281
9.8834
10.2268
10.704
11.3662
12.3557
13.8494
16.0064
19.1617
23.9138
31.1174
41.3372
52.9636
64.601
97.2244
155.839
177.259
70.0153
11.8536
23.2307
53.4234
25.8315
23.7846
67.5999
74.2758
15.3326
63.7308
28.5008
1.52021
213.163
189.416
33.5536
2.16567
0.143073
0.175732
1.4035
3.57921
6.5343
10.0797
13.722
16.7595
18.8204
19.8116
20.0172
19.7836
19.4125
18.7989
18.0115
17.1116
16.2052
15.2897
14.4201
13.607
12.8415
12.1743
11.65
11.2266
10.8507
10.5252
10.2464
10.0039
9.80399
9.64396
9.51364
9.42423
9.37317
9.35629
9.38451
9.47026
9.61409
9.83894
10.1645
10.6145
11.2376
12.1633
13.5375
15.5379
18.4318
22.7565
29.3059
38.766
50.1956
61.3714
86.0542
139.727
182.627
103.655
10.9549
11.9351
52.4323
37.7369
11.2816
67.8494
70.616
41.1671
7.25689
49.3362
62.5041
148.071
24.1666
139.788
13.7744
0.817628
0.048808
0.175726
1.40373
3.57117
6.53755
10.041
13.7017
16.7908
18.8185
19.7784
19.9634
19.7753
19.4017
18.808
18.0191
17.1053
16.2009
15.3029
14.4282
13.6061
12.8619
12.1958
11.6575
11.2291
10.8523
10.5212
10.2402
9.99593
9.79154
9.63158
9.50489
9.40794
9.35744
9.34437
9.37148
9.44744
9.58975
9.80101
10.1091
10.5367
11.1236
11.9874
13.2738
15.1253
17.8015
21.7531
27.7257
36.4954
47.684
58.6833
77.3578
124.282
179.429
142.004
25.9763
7.06861
45.5655
45.5665
3.55147
48.8883
73.5032
35.5606
16.5068
24.8462
67.4445
29.8849
321.162
151.367
77.2899
5.06916
0.26832
0.0141304
0.175709
1.40362
3.57195
6.52423
10.0447
13.6794
16.7934
18.8463
19.8005
19.9034
19.744
19.3896
18.7997
18.0079
17.1257
16.1949
15.2996
14.4306
13.615
12.8607
12.2134
11.6763
11.2357
10.8533
10.5215
10.2351
9.99107
9.78114
9.61695
9.49031
9.39797
9.33978
9.3283
9.35657
9.43313
9.56177
9.76766
10.0592
10.4675
11.0227
11.8281
13.0367
14.77
17.2505
20.8864
26.342
34.4275
45.1824
56.1961
70.4994
110.42
170.452
167.112
46.4503
2.9047
36.6768
52.0224
5.87609
44.0661
70.2299
29.6514
4.00163
5.33622
29.6586
31.0346
15.6955
183.834
164.898
33.2592
1.63285
0.0723314
0.00327624
0.175663
1.4035
3.57163
6.52588
10.0474
13.6575
16.7961
18.8471
19.8232
19.9471
19.6869
19.3595
18.7865
17.9814
17.1286
16.2027
15.2944
14.4282
13.6231
12.869
12.2114
11.6905
11.2474
10.8627
10.5214
10.2336
9.98427
9.77714
9.60479
9.47572
9.38275
9.32831
9.30882
9.33781
9.41329
9.54247
9.73323
10.0165
10.404
10.9321
11.6814
12.8214
14.4515
16.7701
20.1339
25.1398
32.5744
42.7514
53.7854
65.168
98.734
157.839
181.478
70.8064
7.58794
25.9682
54.8114
11.7375
38.8785
72.207
45.099
0.792507
8.43013
10.1629
45.8149
120.456
204.227
70.5452
103.73
10.9864
0.423045
0.015249
0.000536867
0.175641
1.40689
3.57127
6.52534
10.0492
13.6349
16.7405
18.8459
19.7933
19.9887
19.7008
19.3054
18.7562
17.9701
17.0991
16.2027
15.2965
14.4224
13.6201
12.8836
12.2181
11.6869
11.2596
10.8726
10.5291
10.2323
9.98129
9.77133
9.59838
9.46321
9.36776
9.31197
9.29358
9.3153
9.38905
9.51657
9.70641
9.97309
10.3486
10.8521
11.5452
12.6233
14.1642
16.3412
19.4782
24.1036
30.9551
40.5057
51.4623
62.3605
89.132
144.358
186.961
101.213
13.7975
17.2246
54.7028
19.2131
35.7669
72.8842
61.2885
14.1973
16.9331
2.86192
54.9298
10.6347
297.445
182.529
162.927
42.6705
2.82429
0.0840949
0.00191256
6.20587e-05
0.175583
1.4161
3.57965
6.52437
10.0486
13.6624
16.6886
18.7862
19.7904
19.9344
19.7418
19.3152
18.705
17.9564
17.0733
16.1898
15.2954
14.4325
13.6144
12.888
12.2312
11.6902
11.2602
10.8831
10.5412
10.2384
9.9815
9.76675
9.59314
9.45447
9.35494
9.29433
9.27564
9.29652
9.36392
9.48823
9.6748
9.93565
10.294
10.7805
11.4391
12.4365
13.9037
15.9548
18.8943
23.2048
29.5628
38.5387
49.3054
59.9887
81.4331
131.238
185.884
135.835
24.1383
6.23363
50.7284
30.758
27.1702
74.6123
70.0399
25.8233
4.34743
2.53214
8.66685
60.6454
55.8266
8.17216
43.8732
126.771
12.2853
0.560146
0.00975136
4.87512e-05
1.3511e-05
0.17553
1.41575
3.5993
6.53815
10.0467
13.6606
16.7181
18.7345
19.7548
19.9284
19.7058
19.3432
18.7074
17.9251
17.0483
16.1609
15.2822
14.439
13.6245
12.8828
12.2347
11.6991
11.2628
10.8837
10.5497
10.2483
9.98588
9.76538
9.58906
9.44731
9.34383
9.27872
9.25647
9.27566
9.34088
9.45839
9.64101
9.89681
10.2448
10.7118
11.3447
12.273
13.6608
15.6088
18.3718
22.4029
28.3484
36.8099
47.3747
57.8892
75.109
119.041
179.908
166.649
37.5061
0.660678
44.0818
37.5457
18.0331
67.5919
63.7866
28.2263
3.28386
19.1115
12.5837
1.01986
17.7823
160.339
235.737
203.079
46.4884
2.27315
0.0689605
0.0011922
4.31933e-06
2.49092e-06
0.175423
1.40553
3.59788
6.56831
10.066
13.659
16.7161
18.7639
19.7069
19.9179
19.6973
19.3157
18.7318
17.9223
17.0304
16.1354
15.2662
14.4282
13.631
12.8833
12.229
11.7003
11.2694
10.8893
10.5499
10.2591
9.99401
9.77061
9.58613
9.44343
9.33411
9.26494
9.23797
9.25522
9.31816
9.43283
9.60744
9.85744
10.1954
10.6489
11.2549
12.1296
13.4375
15.292
17.9023
21.6876
27.2577
35.2506
45.5074
55.9384
69.9129
108.239
170.571
182.725
58.3368
7.07457
33.9006
43.611
13.4661
58.6456
68.3996
32.8948
3.89764
33.8114
34.1625
32.2191
68.7332
91.0575
285.441
93.7338
127.364
9.9005
0.148158
0.00588837
0.000189751
5.01003e-06
3.29938e-07
0.175304
1.40127
3.57626
6.56636
10.107
13.7083
16.7421
18.7901
19.7351
19.8742
19.6617
19.3039
18.684
17.9409
17.0433
16.1219
15.2437
14.4146
13.6111
12.8818
12.2286
11.6941
11.27
10.8949
10.5584
10.2615
10.006
9.77957
9.58939
9.44056
9.32805
9.25455
9.22283
9.23433
9.29399
9.40572
9.57664
9.81739
10.1466
10.5873
11.1725
11.9979
13.2369
14.9978
17.4747
21.0393
26.2741
33.8189
43.7035
54.0698
65.5322
99.0277
159.433
191.893
83.3464
15.3653
25.4673
45.9507
7.9369
58.5739
70.4521
28.1055
12.1776
27.6578
35.0382
4.54871
36.711
5.6496
7.69447
199.11
151.528
44.2414
0.306685
0.00924838
0.000257722
4.13024e-05
1.91518e-06
9.18382e-08
0.175189
1.40335
3.56551
6.53156
10.1033
13.7311
16.7962
18.8168
19.761
19.8754
19.6249
19.2686
18.6766
17.8961
17.0535
16.1285
15.2183
14.381
13.5905
12.8617
12.2249
11.6924
11.2635
10.8904
10.5629
10.2658
10.0106
9.78709
9.59641
9.44185
9.32495
9.24771
9.21125
9.21921
9.27161
9.3787
9.54475
9.78036
10.0991
10.5269
11.0948
11.8799
13.0541
14.7311
17.0837
20.4503
25.3763
32.5027
41.9975
52.3136
62.9543
91.2581
148.087
195.341
109.806
12.8266
18.6933
44.639
1.20893
57.6467
73.5574
42.7993
13.6422
5.25995
29.7022
14.6961
26.0282
18.3486
2.02818
706.571
73.8585
93.2563
2.92067
0.129895
0.00544674
0.000109669
1.46218e-05
5.49432e-07
1.80463e-08
0.175056
1.40616
3.56892
6.51343
10.0561
13.7266
16.7929
18.8436
19.7585
19.871
19.6259
19.2323
18.6535
17.8705
17.0116
16.1379
15.2235
14.3466
13.5657
12.8402
12.2118
11.6879
11.2607
10.8837
10.5578
10.2688
10.0106
9.78785
9.60191
9.44658
9.3261
9.24203
9.20337
9.20443
9.2534
9.35257
9.51325
9.74229
10.0545
10.4686
11.0205
11.7723
12.8912
14.4878
16.729
19.916
24.5577
31.2954
40.406
50.6714
61.0286
84.8362
137.211
194.449
139.115
22.5633
13.508
41.8573
5.34358
52.8273
77.8673
46.0231
9.83064
10.0558
1.63563
4.95728
21.5773
133.911
72.2773
317.313
341.765
169.171
12.3797
0.547512
0.0430127
0.00132421
4.07447e-05
3.77809e-06
7.10448e-08
1.821e-09
0.174905
1.40509
3.57194
6.51745
10.0303
13.6698
16.789
18.8409
19.7837
19.8713
19.6219
19.2314
18.6238
17.851
16.9728
16.0988
15.2273
14.3482
13.5392
12.8236
12.1972
11.6768
11.2557
10.8844
10.5545
10.2669
10.0127
9.78962
9.60151
9.45266
9.33071
9.24088
9.19626
9.1931
9.23652
9.33072
9.48341
9.70569
10.009
10.4136
10.9473
11.6734
12.7438
14.2697
16.4046
19.4332
23.8169
30.1927
38.9423
49.144
59.3506
79.4668
127.084
190.254
169.463
35.0084
2.34891
40.4468
8.67947
50.0253
80.2368
51.6741
12.2861
11.6667
8.49362
35.485
38.0257
146.356
95.7851
66.3331
253.656
306.678
63.6835
6.14335
0.227859
0.00954981
0.000236514
1.17476e-05
5.13877e-07
5.14479e-09
1.69401e-09
0.174747
1.40345
3.56911
6.5218
10.0336
13.6138
16.7275
18.8379
19.8098
19.9196
19.6189
19.2307
18.6238
17.8352
16.9513
16.0583
15.1916
14.3492
13.5374
12.8066
12.183
11.6641
11.2443
10.8829
10.5544
10.263
10.013
9.793
9.60451
9.45315
9.3346
9.24483
9.19281
9.18417
9.22226
9.31044
9.45598
9.67038
9.9652
10.3595
10.8794
11.58
12.6103
14.0705
16.1125
18.9934
23.1519
29.1963
37.6024
47.7115
57.8352
74.8892
117.898
183.668
188.448
50.9954
3.56415
36.3568
13.7657
45.1842
86.118
56.4476
13.8021
15.474
15.1746
14.2238
52.6712
91.6317
124.924
19.1817
118.263
228.277
168.947
21.7534
1.5037
0.0536488
0.00173967
4.20009e-05
2.31614e-06
5.0806e-08
1.2666e-09
5.8619e-09
0.174578
1.40179
3.56621
6.51666
10.0373
13.6355
16.6675
18.7767
19.8078
19.9686
19.6635
19.2275
18.6204
17.8359
16.953
16.0377
15.1642
14.3159
13.5364
12.8048
12.1623
11.6518
11.2323
10.8718
10.5483
10.2621
10.0058
9.79251
9.60919
9.45478
9.33361
9.24833
9.19401
9.18041
9.20861
9.29317
9.43239
9.63827
9.9239
10.3081
10.8143
11.4977
12.4874
13.8925
15.846
18.5973
22.5507
28.2962
36.3632
46.3677
56.3872
70.9529
109.686
175.495
199.438
69.5475
11.7068
31.4591
13.9753
45.0333
79.5121
35.1775
18.5967
8.83937
17.4178
21.581
107.301
4.4425
124.349
117.488
185.124
171.275
154.437
23.2058
6.54235
0.310199
0.00927216
0.000343571
6.73815e-06
4.28014e-07
1.73909e-08
1.22113e-08
4.43413e-09
0.174403
1.4
3.56205
6.50968
10.03
13.6558
16.7034
18.7171
19.7504
19.9696
19.7097
19.2451
18.6159
17.8325
16.9523
16.0394
15.1424
14.2995
13.5049
12.8019
12.1529
11.6318
11.2197
10.8592
10.5371
10.2553
10.0037
9.78486
9.60759
9.45568
9.33566
9.24571
9.19674
9.17828
9.20445
9.27805
9.41288
9.61003
9.88678
10.2585
10.7524
11.4195
12.3816
13.7296
15.6074
18.2383
22.0086
27.4769
35.2092
45.0094
54.9769
67.5091
102.44
166.454
206.062
90.3239
14.3078
25.487
4.0194
34.7478
78.8627
36.4103
19.2059
5.52668
17.6824
15.8148
30.8456
33.3999
52.927
1.59389
103.291
485.459
99.3402
205.3
36.192
1.48183
0.0502579
0.00169401
5.86927e-05
3.90013e-07
1.38375e-08
4.49606e-09
3.50997e-09
2.17813e-08
0.174218
1.39906
3.5568
6.50396
10.0198
13.6475
16.7391
18.7564
19.6946
19.9158
19.707
19.2881
18.6339
17.8291
16.949
16.0379
15.1318
14.2791
13.4904
12.771
12.1496
11.6228
11.2055
10.8471
10.5244
10.2438
9.99935
9.78185
9.59955
9.45309
9.33498
9.24604
9.19221
9.17675
9.19898
9.26996
9.39379
9.58623
9.85253
10.214
10.6934
11.3421
12.2823
13.5877
15.3901
17.9159
21.5167
26.7348
34.1326
43.6686
53.5833
64.4458
96.0688
157.248
209.025
115.509
21.7353
21.4014
14.0042
27.0661
78.9271
49.1171
24.4996
3.34542
4.17189
28.5259
20.2761
48.2168
13.3002
113.571
128.907
166.901
501.226
506.832
107.683
7.25252
0.253648
0.00860451