/*--------------------------------*- C++ -*----------------------------------*\
| =========                 |                                                 |
| \\      /  F ield         | OpenFOAM: The Open Source CFD Toolbox           |
|  \\    /   O peration     | Version:  v2012                                 |
|   \\  /    A nd           | Website:  www.openfoam.com                      |
|    \\/     M anipulation  |                                                 |
\*---------------------------------------------------------------------------*/
FoamFile
{
    version     2.0;
    format      ascii;
    class       volScalarField;
    location    "3800";
    object      rho;
}
// * * * * * * * * * * * * * * * * * * * * * * * * * * * * * * * * * * * * * //

dimensions      [1 -3 0 0 0 0 0];


internalField   nonuniform List<scalar> 
29502
(
0.0345592
0.0339834
0.0303892
0.0314682
0.0320027
0.0295394
0.0315156
0.0297758
0.0304354
0.029486
0.0316639
0.0298103
0.0284539
0.0291696
0.0299641
0.0318749
0.0299715
0.0285087
0.0274138
0.0281304
0.0308379
0.0320604
0.0301957
0.0287053
0.0275164
0.0266042
0.0272721
0.0319928
0.0321329
0.0303939
0.0289547
0.0277634
0.0267804
0.0259963
0.0265643
0.0334127
0.0322069
0.0304851
0.029172
0.0280451
0.0270906
0.0262698
0.0255676
0.0259882
0.035052
0.0321983
0.0305757
0.0292845
0.028284
0.0274105
0.0266535
0.0259538
0.0252926
0.0255311
0.0369046
0.0321924
0.0305855
0.0293906
0.0284167
0.0276718
0.0270156
0.0264157
0.0257938
0.0251417
0.0251872
0.0389664
0.0321913
0.0305954
0.0294168
0.028536
0.027823
0.0272992
0.0268214
0.026332
0.0257487
0.0250869
0.0249545
0.0412422
0.0322273
0.030607
0.029438
0.0285748
0.0279525
0.0274668
0.0271262
0.0267794
0.0263568
0.0257842
0.0251069
0.0248367
0.0437342
0.0322387
0.0306504
0.0294584
0.0286034
0.0280001
0.0276037
0.0273083
0.0271036
0.0268424
0.0264547
0.0258779
0.025189
0.0248433
0.0464506
0.0321956
0.0306695
0.0295067
0.0286294
0.0280326
0.0276564
0.0274503
0.0272988
0.0271848
0.0269749
0.0266033
0.0260169
0.0253246
0.0249865
0.049398
0.0321919
0.0306381
0.0295303
0.02868
0.0280613
0.0276902
0.0275067
0.0274452
0.0273921
0.0273342
0.027155
0.0267898
0.0261931
0.0255089
0.0252848
0.0525872
0.0321785
0.0306413
0.0295059
0.0287057
0.0281122
0.0277197
0.0275396
0.0275044
0.0275426
0.0275528
0.0275301
0.0273702
0.0270053
0.0264009
0.0257411
0.0257621
0.0560232
0.0321685
0.0306347
0.0295126
0.0286845
0.0281376
0.027769
0.0275687
0.0275359
0.0276039
0.0277069
0.0277595
0.02776
0.0276115
0.0272438
0.0266367
0.0260221
0.0264475
0.0597107
0.0321719
0.0306303
0.0295094
0.0286921
0.0281165
0.0277921
0.0276151
0.0275632
0.0276338
0.0277704
0.0279171
0.0279996
0.028015
0.0278728
0.027502
0.0268989
0.0263566
0.0273944
0.0636674
0.0321508
0.0306377
0.0295077
0.0286898
0.0281228
0.0277685
0.0276349
0.0276065
0.0276592
0.0277989
0.0279826
0.0281607
0.0282645
0.028289
0.0281505
0.0277782
0.0271857
0.0267512
0.0286408
0.0678915
0.0321332
0.0306227
0.0295166
0.0286885
0.0281194
0.027772
0.0276073
0.0276226
0.0276994
0.0278222
0.0280097
0.0282283
0.0284288
0.0285478
0.0285783
0.0284424
0.0280726
0.0274999
0.0272191
0.0302447
0.0723928
0.0321292
0.03061
0.0295045
0.0286971
0.0281165
0.0277657
0.0276066
0.0275904
0.0277118
0.0278594
0.028031
0.0282541
0.0284985
0.0287152
0.0288457
0.0288806
0.0287475
0.0283857
0.0278452
0.0277739
0.0322759
0.077176
0.03212
0.0306098
0.0294938
0.0286857
0.0281233
0.0277598
0.0275963
0.0275852
0.027675
0.0278684
0.0280653
0.0282736
0.0285232
0.0287869
0.0290159
0.0291557
0.0291948
0.0290662
0.0287188
0.028227
0.0284326
0.0348157
0.0822348
0.0321119
0.0306044
0.0294948
0.0286751
0.0281108
0.0277636
0.0275864
0.0275705
0.0276655
0.0278273
0.0280711
0.0283051
0.0285409
0.0288107
0.0290896
0.0293284
0.0294765
0.0295205
0.0293992
0.0290737
0.0286551
0.0292115
0.0379463
0.0875693
0.0321175
0.0305995
0.029491
0.0286755
0.0280988
0.0277485
0.0275865
0.0275565
0.0276466
0.0278138
0.0280261
0.0283079
0.0285698
0.0288267
0.0291123
0.0294038
0.0296512
0.0298074
0.0298581
0.0297487
0.0294548
0.0291367
0.0301234
0.0417512
0.0931668
0.032115
0.0306065
0.0294871
0.0286717
0.0280974
0.0277339
0.0275679
0.0275527
0.0276284
0.0277908
0.0280087
0.0282589
0.0285696
0.0288529
0.0291267
0.0294256
0.029728
0.0299836
0.0301487
0.0302084
0.0301169
0.0298674
0.0296843
0.0311817
0.046292
0.099003
0.0320886
0.0306062
0.0294941
0.0286675
0.0280922
0.0277298
0.0275501
0.0275305
0.0276209
0.0277688
0.0279819
0.0282378
0.0285169
0.0288499
0.0291503
0.0294382
0.0297487
0.0300615
0.0303255
0.0305011
0.030573
0.0305068
0.0303193
0.0303158
0.0324491
0.0516112
0.105056
0.0320621
0.0305841
0.0294942
0.0286735
0.0280865
0.027722
0.0275428
0.0275091
0.027595
0.0277576
0.0279561
0.0282073
0.0284923
0.0287935
0.0291446
0.0294592
0.0297596
0.0300809
0.030404
0.0306775
0.0308657
0.0309543
0.0309228
0.030819
0.0310593
0.0340341
0.0577088
0.111259
0.0320453
0.0305619
0.029474
0.0286728
0.0280908
0.0277141
0.027532
0.0274983
0.0275702
0.0277283
0.0279414
0.0281778
0.0284581
0.0287656
0.0290847
0.0294508
0.0297779
0.0300899
0.0304218
0.0307558
0.0310403
0.0312443
0.0313551
0.0313703
0.0313791
0.0319489
0.0360599
0.0645505
0.117595
0.0320548
0.0305483
0.0294537
0.028653
0.0280885
0.027716
0.0275213
0.0274842
0.0275559
0.0277002
0.0279088
0.0281597
0.028425
0.0287278
0.0290534
0.0293874
0.0297668
0.0301054
0.0304287
0.0307717
0.0311175
0.0314153
0.031639
0.0317791
0.0318562
0.0320164
0.0330329
0.0387117
0.072081
0.123979
0.0320654
0.030559
0.0294413
0.0286329
0.0280679
0.0277115
0.0275207
0.0274704
0.0275387
0.0276827
0.0278776
0.0281239
0.0284036
0.0286914
0.0290122
0.0293529
0.0296998
0.0300916
0.0304413
0.0307762
0.0311309
0.0314903
0.0318043
0.0320525
0.0322311
0.0323893
0.032748
0.0343635
0.0422705
0.0802265
0.130412
0.0320712
0.0305704
0.0294515
0.0286204
0.0280468
0.0276891
0.0275136
0.0274672
0.0275219
0.0276626
0.027857
0.0280896
0.0283646
0.0286666
0.0289723
0.0293083
0.0296621
0.0300211
0.0304246
0.0307856
0.0311327
0.0315005
0.0318759
0.0322099
0.0324883
0.0327171
0.0329829
0.0336044
0.0359925
0.0471508
0.0888905
0.136794
0.0320638
0.0305773
0.0294626
0.0286292
0.0280332
0.0276661
0.0274888
0.0274572
0.027516
0.0276429
0.027834
0.028066
0.0283275
0.0286246
0.0289444
0.029265
0.0296142
0.0299801
0.0303504
0.0307657
0.0311385
0.031499
0.031882
0.0322766
0.0326349
0.0329508
0.0332442
0.0336523
0.0346233
0.0379561
0.0538533
0.0978711
0.143058
0.0320499
0.0305717
0.0294693
0.0286393
0.0280402
0.0276507
0.0274631
0.0274297
0.0275033
0.0276344
0.0278115
0.0280402
0.028301
0.0285846
0.0288994
0.0292339
0.0295676
0.0299287
0.0303061
0.0306877
0.0311152
0.031501
0.0318766
0.0322775
0.0326947
0.0330826
0.033445
0.0338237
0.034416
0.0358536
0.0404154
0.062684
0.10664
0.148757
0.0320266
0.0305602
0.0294642
0.0286452
0.028049
0.0276556
0.0274454
0.0274016
0.0274733
0.0276192
0.0278006
0.028015
0.0282724
0.0285553
0.0288566
0.0291859
0.0295332
0.0298788
0.0302512
0.0306401
0.0310333
0.0314739
0.0318743
0.0322674
0.0326891
0.0331327
0.033556
0.0339787
0.0344663
0.0353054
0.037366
0.043718
0.0732641
0.114984
0.153732
0.0320022
0.03054
0.0294535
0.0286399
0.0280534
0.0276628
0.0274484
0.0273817
0.0274426
0.0275867
0.0277829
0.0280016
0.0282445
0.0285241
0.0288245
0.0291404
0.0294822
0.0298412
0.0301979
0.0305817
0.0309821
0.0313878
0.0318431
0.0322602
0.0326733
0.0331188
0.0335934
0.0340602
0.0345591
0.0351904
0.0363573
0.0392514
0.0482896
0.0847137
0.122767
0.157712
0.0319767
0.0305188
0.0294347
0.0286291
0.0280473
0.0276658
0.0274538
0.0273827
0.0274206
0.0275536
0.027748
0.0279815
0.0282287
0.0284935
0.0287906
0.0291056
0.0294341
0.0297871
0.030157
0.0305248
0.03092
0.0313328
0.0317525
0.0322244
0.0326604
0.0330959
0.033569
0.0340804
0.034601
0.035199
0.0360181
0.0376229
0.0416036
0.0546981
0.0972419
0.129925
0.160475
0.0319592
0.0304964
0.0294148
0.0286105
0.0280357
0.0276583
0.0274552
0.0273862
0.0274195
0.0275294
0.0277126
0.0279443
0.0282062
0.0284753
0.0287574
0.0290691
0.0293966
0.0297363
0.0300999
0.0304805
0.0308596
0.0312669
0.0316935
0.032129
0.0326193
0.0330764
0.0335375
0.0340427
0.0345981
0.035187
0.035912
0.0369811
0.0391687
0.0445119
0.0636445
0.109114
0.136646
0.161922
0.0319475
0.0304814
0.0293938
0.0285907
0.0280165
0.0276452
0.027446
0.0273856
0.0274212
0.0275263
0.0276863
0.0279066
0.0281669
0.0284505
0.0287368
0.0290332
0.0293574
0.0296961
0.0300464
0.0304204
0.0308118
0.0312027
0.0316234
0.0320657
0.0325187
0.0330294
0.0335102
0.0340004
0.0345434
0.0351525
0.0358297
0.036719
0.0381213
0.0410841
0.0483108
0.075601
0.119545
0.142722
0.161966
0.0319448
0.0304716
0.0293796
0.0285699
0.0279961
0.0276248
0.0274311
0.027375
0.027419
0.0275264
0.0276813
0.0278783
0.0281268
0.0284089
0.0287098
0.0290103
0.0293189
0.0296543
0.0300035
0.0303641
0.0307485
0.0311514
0.0315553
0.0319912
0.0324506
0.0329228
0.0334562
0.0339638
0.0344878
0.0350755
0.0357507
0.0365421
0.0376466
0.0394975
0.0434855
0.053724
0.0898908
0.127386
0.148131
0.161172
0.0319483
0.0304699
0.0293704
0.0285556
0.0279748
0.0276031
0.0274091
0.0273584
0.0274068
0.0275227
0.0276798
0.0278714
0.0280965
0.0283666
0.0286659
0.0289809
0.0292935
0.0296132
0.029959
0.0303184
0.0306893
0.0310846
0.0315003
0.031919
0.0323715
0.0328495
0.0333428
0.0339016
0.0344399
0.0350034
0.0356445
0.0364046
0.0373431
0.0387326
0.0411861
0.0465112
0.0615936
0.105091
0.132475
0.152278
0.159442
0.0319674
0.0304739
0.0293688
0.0285462
0.0279596
0.0275807
0.0273858
0.0273347
0.0273884
0.0275089
0.0276746
0.0278684
0.0280878
0.0283344
0.0286215
0.0289348
0.0292618
0.0295853
0.0299152
0.0302711
0.0306409
0.0310226
0.0314301
0.03186
0.0322948
0.0327652
0.0332636
0.0337806
0.0343681
0.0349418
0.0355517
0.0362581
0.0371276
0.0382573
0.0400279
0.0432884
0.0503844
0.0725786
0.119002
0.136889
0.155249
0.157438
0.0319883
0.0304921
0.0293725
0.0285441
0.0279495
0.0275643
0.027362
0.0273095
0.0273629
0.0274887
0.0276593
0.0278616
0.0280833
0.028324
0.0285873
0.0288883
0.0292136
0.0295512
0.0298849
0.0302246
0.0305908
0.0309713
0.031365
0.0317862
0.0322316
0.0326838
0.0331737
0.0336947
0.0342381
0.0348584
0.0354733
0.0361384
0.0369272
0.0379377
0.0393194
0.0416032
0.0459291
0.0557779
0.0874177
0.129893
0.141337
0.156616
0.155003
0.0320085
0.0305121
0.0293893
0.0285471
0.0279464
0.0275529
0.0273439
0.0272841
0.027336
0.0274616
0.0276374
0.0278449
0.028075
0.0283178
0.0285751
0.0288522
0.029165
0.0295009
0.0298483
0.0301917
0.0305416
0.0309183
0.0313107
0.0317179
0.032154
0.0326161
0.0330871
0.0335985
0.0341446
0.0347179
0.0353759
0.0360392
0.0367713
0.0376661
0.0388592
0.0405769
0.0435524
0.0492611
0.0636498
0.104962
0.137114
0.145175
0.157616
0.152435
0.0320226
0.0305313
0.0294081
0.0285624
0.0279485
0.0275486
0.0273311
0.0272641
0.027309
0.0274331
0.0276087
0.0278213
0.0280568
0.028308
0.0285675
0.0288382
0.029127
0.0294501
0.0297958
0.0301527
0.0305059
0.0308662
0.0312548
0.0316606
0.0320823
0.0325343
0.0330146
0.0335061
0.0340413
0.0346156
0.035223
0.0359248
0.0366455
0.0374618
0.0384931
0.0399251
0.042096
0.0459928
0.0535421
0.0749367
0.120714
0.140605
0.148071
0.158139
0.149707
0.0320325
0.0305447
0.029426
0.0285799
0.0279623
0.0275498
0.0273256
0.0272498
0.0272874
0.0274046
0.0275786
0.027791
0.0280316
0.0282884
0.0285562
0.0288291
0.0291113
0.0294103
0.0297429
0.0300978
0.0304643
0.0308278
0.0311997
0.0316016
0.0320218
0.032459
0.0329282
0.0334283
0.0339425
0.0345042
0.0351105
0.0357571
0.0365102
0.0373006
0.0382249
0.0394325
0.0411818
0.0439659
0.0490605
0.059564
0.090948
0.133169
0.142012
0.15041
0.158298
0.147445
0.0320351
0.0305544
0.0294387
0.0285966
0.0279786
0.0275623
0.0273257
0.0272432
0.0272718
0.0273814
0.0275486
0.0277593
0.0279997
0.0282616
0.0285351
0.0288164
0.0291007
0.0293929
0.0297012
0.0300429
0.0304071
0.0307836
0.0311586
0.0315435
0.0319595
0.032395
0.032849
0.033337
0.0338588
0.0343983
0.0349897
0.0356324
0.0363245
0.0371385
0.0380167
0.0390794
0.0405174
0.0426936
0.0462992
0.0529091
0.0685357
0.110248
0.140969
0.143476
0.152275
0.158001
0.145553
0.0320282
0.0305575
0.0294477
0.0286083
0.0279941
0.0275773
0.027337
0.0272423
0.0272638
0.0273643
0.0275238
0.027728
0.0279665
0.0282282
0.0285068
0.0287938
0.0290864
0.0293807
0.0296822
0.0299994
0.0303501
0.030724
0.0311117
0.0314995
0.0318983
0.0323294
0.0327813
0.0332535
0.0337621
0.034308
0.0348756
0.0355008
0.0361854
0.0369309
0.037819
0.0388094
0.0400505
0.0417942
0.0445477
0.0492266
0.0579969
0.0814763
0.128013
0.14357
0.144706
0.153064
0.157495
0.143888
0.03201
0.030552
0.0294506
0.0286165
0.0280049
0.0275918
0.027351
0.0272524
0.0272617
0.027355
0.0275054
0.0277016
0.0279338
0.0281935
0.0284719
0.028764
0.0290624
0.0293649
0.0296684
0.0299786
0.0303046
0.0306648
0.0310497
0.03145
0.0318512
0.0322648
0.032712
0.0331818
0.033674
0.0342052
0.034778
0.0353773
0.036041
0.0367744
0.0375831
0.038565
0.0396989
0.0411727
0.0433279
0.0468587
0.0528964
0.0654682
0.100194
0.139024
0.144031
0.146279
0.153465
0.156943
0.142127
0.0319863
0.0305363
0.0294456
0.028619
0.0280122
0.0276018
0.0273644
0.0272655
0.0272708
0.027352
0.0274949
0.0276817
0.0279058
0.0281593
0.0284357
0.0287276
0.029031
0.0293394
0.029651
0.0299632
0.0302822
0.0306174
0.0309882
0.0313854
0.0317988
0.0322146
0.0326439
0.0331086
0.0335978
0.0341119
0.0346683
0.0352712
0.0359065
0.0366146
0.0374054
0.0382915
0.0393934
0.0407119
0.0424948
0.0452081
0.0497614
0.0576561
0.0766737
0.120852
0.143935
0.144737
0.147351
0.153993
0.156157
0.14043
0.0319545
0.0305155
0.0294311
0.0286139
0.028014
0.0276082
0.0273737
0.0272781
0.0272831
0.02736
0.0274909
0.0276701
0.0278847
0.0281299
0.0284001
0.0286899
0.028993
0.0293064
0.029624
0.0299443
0.0302652
0.0305932
0.0309389
0.0313216
0.0317317
0.0321592
0.0325903
0.0330367
0.0335203
0.0340308
0.0345692
0.0351537
0.0357907
0.0364674
0.0372272
0.0380866
0.039071
0.0403261
0.0418857
0.0440856
0.047554
0.0534023
0.0643842
0.0937608
0.136387
0.145767
0.145424
0.147994
0.154387
0.155199
0.138788
0.0319204
0.0304873
0.0294119
0.0285999
0.0280085
0.0276092
0.0273793
0.0272867
0.0272951
0.0273716
0.0274979
0.0276651
0.0278718
0.0281074
0.0283692
0.0286529
0.0289538
0.0292669
0.0295895
0.0299158
0.0302446
0.0305745
0.0309129
0.0312701
0.0316654
0.0320893
0.0325318
0.0329795
0.0334443
0.0339486
0.0344825
0.035048
0.0356642
0.0363401
0.0370647
0.0378855
0.0388304
0.0399401
0.0413928
0.0432736
0.0460407
0.050501
0.0580589
0.0747332
0.115112
0.14361
0.145873
0.1458
0.148429
0.154889
0.153686
0.13741
0.0318875
0.030457
0.0293857
0.0285812
0.0279944
0.027603
0.0273796
0.0272914
0.027303
0.0273829
0.0275087
0.0276711
0.0278658
0.0280933
0.0283453
0.0286205
0.0289155
0.0292262
0.0295485
0.0298796
0.0302146
0.0305524
0.0308926
0.0312423
0.0316118
0.0320205
0.0324591
0.0329177
0.0333834
0.0338683
0.0343952
0.0349551
0.0355509
0.0362032
0.036924
0.0377046
0.0385994
0.0396531
0.0409232
0.0426352
0.0449506
0.0484838
0.0541929
0.0645475
0.0903203
0.133623
0.146162
0.146192
0.145927
0.149166
0.154922
0.151949
0.136599
0.0318606
0.0304278
0.0293575
0.0285561
0.0279756
0.0275883
0.0273726
0.0272908
0.0273069
0.0273902
0.0275192
0.0276812
0.0278709
0.0280863
0.02833
0.0285953
0.0288816
0.0291866
0.0295063
0.0298371
0.0301767
0.0305208
0.0308689
0.0312204
0.0315822
0.0319646
0.0323876
0.0328419
0.033318
0.0338032
0.03431
0.0348619
0.0354509
0.0360812
0.0367748
0.0375478
0.0383953
0.0393834
0.0405757
0.0420539
0.0441123
0.0470195
0.0515505
0.0589026
0.0746097
0.111542
0.143484
0.147179
0.146231
0.145914
0.15021
0.154822
0.149499
0.136216
0.0318367
0.0304037
0.0293301
0.0285288
0.0279506
0.0275689
0.0273571
0.0272829
0.0273054
0.0273932
0.0275259
0.027691
0.0278801
0.0280904
0.028322
0.0285788
0.0288551
0.0291512
0.0294652
0.0297933
0.0301326
0.0304813
0.0308356
0.031195
0.0315584
0.031933
0.0323293
0.0327676
0.033239
0.0337339
0.0342405
0.0347715
0.0353512
0.035973
0.0366425
0.037384
0.0382183
0.039149
0.0402558
0.041626
0.0433795
0.0459077
0.0496086
0.0553809
0.065493
0.0896683
0.132212
0.146614
0.14703
0.146086
0.14614
0.151117
0.154464
0.14725
0.136014
0.0318186
0.0303826
0.0293077
0.0285023
0.0279234
0.0275433
0.0273367
0.0272665
0.0272966
0.0273909
0.0275282
0.027697
0.0278892
0.0280988
0.0283251
0.0285698
0.0288374
0.0291233
0.0294284
0.0297507
0.0300872
0.0304355
0.0307944
0.0311601
0.0315312
0.0319074
0.0322955
0.0327068
0.0331616
0.0336514
0.034167
0.0346972
0.0352549
0.0358659
0.0365248
0.0372396
0.038037
0.0389462
0.0399823
0.0412403
0.0428432
0.0449672
0.0481325
0.052853
0.0603073
0.0758073
0.11103
0.143441
0.147565
0.146878
0.146071
0.14641
0.151873
0.154065
0.144788
0.135868
0.0318052
0.0303667
0.029288
0.0284805
0.0278971
0.0275157
0.0273101
0.027245
0.0272792
0.0273812
0.0275251
0.0276986
0.0278946
0.0281071
0.0283327
0.0285718
0.0288274
0.0291043
0.0293991
0.0297124
0.0300432
0.0303885
0.0307469
0.0311171
0.0314946
0.0318783
0.032268
0.0326707
0.033098
0.0335708
0.0340807
0.034619
0.0351752
0.0357629
0.0364091
0.0371107
0.0378783
0.0387427
0.0397465
0.040916
0.0423695
0.0442825
0.0469106
0.0509221
0.0568936
0.067304
0.0916157
0.132461
0.147122
0.147524
0.146628
0.146023
0.147058
0.152266
0.153429
0.142451
0.135762
0.0317973
0.0303549
0.0292732
0.0284614
0.0278751
0.0274889
0.0272813
0.0272173
0.0272565
0.0273629
0.0275146
0.0276946
0.0278954
0.028112
0.0283402
0.0285785
0.0288284
0.0290933
0.0293787
0.0296818
0.0300034
0.030343
0.0306983
0.0310678
0.0314497
0.0318398
0.0322369
0.0326411
0.0330596
0.0335043
0.0339965
0.0345286
0.035092
0.0356772
0.0362986
0.036985
0.037736
0.038566
0.0395141
0.0406376
0.041978
0.0436889
0.0460223
0.0493313
0.0544068
0.0621792
0.0783205
0.113386
0.144188
0.147812
0.147261
0.146497
0.146039
0.147637
0.152814
0.152514
0.140372
0.135685
0.0317943
0.0303484
0.0292622
0.0284469
0.027856
0.0274663
0.0272538
0.0271874
0.0272278
0.0273393
0.0274955
0.0276834
0.0278908
0.0281121
0.0283444
0.0285853
0.0288342
0.0290934
0.0293668
0.0296602
0.0299714
0.0303017
0.0306513
0.0310176
0.0313987
0.031793
0.0321964
0.0326079
0.0330277
0.0334633
0.033927
0.0344405
0.0349969
0.0355882
0.0362062
0.0368658
0.0375985
0.0384075
0.0393143
0.0403682
0.0416436
0.0432072
0.0452638
0.0481681
0.0523625
0.0587624
0.0699227
0.095524
0.134729
0.147488
0.147682
0.147163
0.146346
0.145972
0.148706
0.152825
0.150877
0.138744
0.135629
0.0317945
0.030346
0.029256
0.0284361
0.0278412
0.0274465
0.0272302
0.0271588
0.0271969
0.0273096
0.0274709
0.0276635
0.0278787
0.0281066
0.0283438
0.0285888
0.0288402
0.0290983
0.0293658
0.0296471
0.0299485
0.0302683
0.0306084
0.030969
0.0313467
0.0317401
0.0321477
0.0325653
0.0329922
0.0334288
0.033883
0.0343675
0.0349046
0.035488
0.0361106
0.0367657
0.0374692
0.038256
0.039135
0.0401388
0.0413264
0.0427979
0.0446583
0.0471851
0.0508539
0.056134
0.064627
0.0821858
0.118556
0.145392
0.147768
0.147552
0.146939
0.146148
0.146064
0.149819
0.152882
0.148467
0.137538
0.135589
0.031802
0.0303466
0.0292539
0.0284299
0.0278301
0.0274312
0.0272093
0.027134
0.0271671
0.0272776
0.0274403
0.027638
0.0278581
0.0280938
0.0283376
0.0285874
0.028843
0.0291034
0.0293698
0.0296451
0.0299345
0.0302442
0.0305737
0.0309245
0.0312965
0.0316863
0.0320928
0.0325144
0.0329473
0.0333908
0.0338458
0.0343204
0.0348277
0.0353909
0.0360046
0.0366627
0.0373602
0.0381148
0.038966
0.0399329
0.0410591
0.0424178
0.0441473
0.0464106
0.0495717
0.054211
0.0609646
0.0736169
0.101494
0.138627
0.14761
0.14774
0.147416
0.14676
0.146061
0.146346
0.150815
0.152589
0.145634
0.136712
0.13556
0.0318151
0.0303538
0.0292546
0.0284276
0.0278236
0.0274194
0.0271931
0.0271121
0.0271411
0.0272468
0.0274072
0.0276064
0.0278316
0.0280725
0.0283241
0.0285806
0.0288409
0.0291055
0.029374
0.0296482
0.0299313
0.0302291
0.0305482
0.0308883
0.0312504
0.0316344
0.0320371
0.0324575
0.0328942
0.0333436
0.0338051
0.0342801
0.0347771
0.0353098
0.0359022
0.03655
0.0372485
0.0379953
0.03881
0.0397414
0.0408193
0.0421011
0.0436834
0.0457595
0.0485685
0.0525558
0.0583885
0.0678131
0.0878924
0.125772
0.146458
0.147759
0.147639
0.147283
0.146457
0.14599
0.147329
0.151541
0.152232
0.142825
0.136168
0.135541
0.0318304
0.030366
0.0292611
0.028428
0.0278208
0.0274121
0.0271806
0.0270947
0.0271182
0.0272196
0.0273754
0.0275724
0.0277992
0.0280452
0.028302
0.0285663
0.0288333
0.0291027
0.0293754
0.0296516
0.0299335
0.0302249
0.030532
0.0308615
0.0312127
0.0315867
0.0319835
0.0323998
0.0328351
0.0332881
0.0337552
0.0342364
0.0347333
0.0352551
0.0358163
0.0364414
0.0371282
0.0378733
0.0386776
0.0395665
0.0405989
0.0418173
0.043301
0.0451807
0.0477278
0.051268
0.0562616
0.0639119
0.0787561
0.109738
0.142504
0.147632
0.147734
0.147559
0.147044
0.14628
0.146114
0.148104
0.152086
0.150695
0.140313
0.135862
0.13553
0.0318483
0.0303805
0.0292725
0.0284339
0.0278207
0.0274086
0.0271723
0.0270814
0.0270998
0.0271957
0.0273471
0.0275396
0.0277642
0.0280119
0.0282739
0.0285435
0.0288184
0.0290943
0.0293718
0.0296522
0.0299359
0.030226
0.0305268
0.0308442
0.0311845
0.0315474
0.031934
0.0323443
0.0327753
0.0332266
0.0336972
0.0341837
0.0346864
0.0352076
0.0357571
0.0363501
0.0370125
0.037744
0.0385434
0.0394178
0.0404
0.04156
0.042959
0.0447095
0.0469934
0.0501741
0.0546346
0.0609894
0.0722064
0.0962834
0.133571
0.147103
0.147663
0.147683
0.147425
0.146829
0.146143
0.146318
0.149571
0.152016
0.148855
0.138386
0.135703
0.135524
0.0318665
0.0303975
0.0292861
0.0284445
0.0278259
0.0274081
0.0271679
0.0270723
0.0270855
0.0271764
0.0273222
0.0275102
0.0277305
0.027976
0.0282397
0.0285146
0.0287949
0.0290787
0.0293627
0.0296478
0.0299357
0.0302276
0.030527
0.0308379
0.031166
0.0315177
0.0318931
0.0322931
0.0327179
0.0331646
0.0336333
0.0341228
0.0346305
0.0351569
0.0357051
0.0362857
0.036915
0.0376201
0.0384035
0.0392682
0.0402306
0.0413304
0.0426531
0.0442894
0.0463999
0.0492287
0.0532284
0.0588281
0.0676431
0.0855858
0.120568
0.145321
0.14756
0.147622
0.147602
0.147284
0.146602
0.14613
0.14679
0.15033
0.151978
0.145817
0.137087
0.135613
0.13552
0.0318852
0.0304146
0.0293021
0.0284572
0.0278357
0.0274126
0.0271667
0.0270671
0.0270756
0.0271612
0.027302
0.0274844
0.0277002
0.0279414
0.028203
0.0284796
0.0287651
0.0290545
0.0293462
0.0296379
0.0299305
0.0302266
0.0305276
0.0308372
0.0311586
0.0314981
0.0318619
0.0322505
0.0326648
0.0331052
0.0335689
0.0340563
0.0345666
0.0350976
0.0356504
0.0362288
0.0368446
0.0375154
0.03827
0.0391148
0.0400612
0.0411343
0.0423837
0.043919
0.0458728
0.048471
0.0520214
0.0570109
0.0643898
0.0783353
0.106855
0.140454
0.147435
0.147528
0.147545
0.147507
0.147199
0.146516
0.146171
0.147495
0.151202
0.150947
0.142662
0.136314
0.135564
0.135519
0.0319022
0.030432
0.0293181
0.0284722
0.0278477
0.0274216
0.0271707
0.0270651
0.0270696
0.0271503
0.0272859
0.0274633
0.0276734
0.02791
0.0281676
0.028442
0.0287294
0.0290239
0.0293214
0.0296207
0.0299199
0.0302206
0.0305259
0.0308368
0.0311569
0.0314895
0.031841
0.0322178
0.0326204
0.0330501
0.0335073
0.0339894
0.0344973
0.0350304
0.0355872
0.0361693
0.0367819
0.037438
0.0381568
0.0389695
0.0398904
0.0409398
0.042153
0.0435966
0.0454146
0.0477998
0.0510506
0.0554902
0.0618735
0.0728623
0.0957057
0.131771
0.146851
0.147536
0.147452
0.147437
0.147442
0.147173
0.146522
0.146375
0.148559
0.151192
0.149931
0.139832
0.135891
0.135538
0.135518
0.0319178
0.0304478
0.0293345
0.0284874
0.0278619
0.0274329
0.0271791
0.0270684
0.0270669
0.0271437
0.0272743
0.0274464
0.0276513
0.0278824
0.0281352
0.0284058
0.0286908
0.0289874
0.0292901
0.0295951
0.029902
0.0302092
0.0305191
0.0308342
0.0311556
0.0314867
0.0318312
0.0321956
0.0325861
0.0330039
0.0334501
0.0339254
0.0344276
0.0349579
0.0355164
0.0361018
0.0367171
0.0373687
0.0380711
0.0388459
0.0397297
0.0407468
0.041926
0.0433194
0.0450201
0.0472223
0.0501866
0.0542681
0.0598616
0.0688326
0.0868699
0.120373
0.144998
0.147528
0.147484
0.14735
0.147344
0.147419
0.147096
0.146584
0.146801
0.149658
0.151228
0.146931
0.137817
0.135679
0.135526
0.135518
0.0319332
0.0304624
0.0293495
0.0285029
0.0278763
0.0274463
0.0271897
0.0270761
0.0270696
0.0271403
0.0272669
0.027434
0.0276337
0.0278595
0.0281067
0.0283725
0.0286538
0.028948
0.0292527
0.029563
0.0298756
0.0301905
0.0305069
0.0308267
0.0311521
0.0314844
0.0318274
0.0321845
0.0325625
0.0329679
0.033402
0.033866
0.0343612
0.0348853
0.0354404
0.0360269
0.0366447
0.0372976
0.037994
0.0387504
0.0395931
0.0405668
0.0417048
0.0430498
0.0446803
0.0467288
0.0494481
0.0531644
0.0582549
0.0657944
0.0801534
0.108792
0.140662
0.147404
0.147539
0.147383
0.147267
0.147306
0.147365
0.146956
0.146702
0.147361
0.150582
0.150932
0.143597
0.136596
0.135584
0.13552
0.135517
0.0319455
0.030477
0.029363
0.028517
0.0278911
0.02746
0.0272023
0.0270862
0.0270766
0.0271424
0.027263
0.0274259
0.0276205
0.0278411
0.0280831
0.0283431
0.0286196
0.0289101
0.0292125
0.0295249
0.0298427
0.0301634
0.0304874
0.0308136
0.0311437
0.03148
0.0318239
0.0321795
0.0325502
0.0329429
0.0333642
0.0338159
0.0342994
0.0348161
0.0353646
0.0359472
0.0365653
0.0372197
0.0379157
0.0386641
0.0394855
0.0404134
0.0415005
0.0427918
0.0443537
0.0463021
0.0488214
0.0522256
0.0568479
0.0634928
0.0750892
0.098737
0.133561
0.146852
0.147525
0.147445
0.147304
0.147278
0.147325
0.147236
0.146756
0.146664
0.148532
0.150883
0.149255
0.140208
0.135968
0.135543
0.135518
0.135517
0.0319554
0.0304887
0.029377
0.02853
0.0279045
0.0274742
0.0272155
0.0270982
0.0270862
0.0271488
0.0272645
0.0274213
0.0276117
0.0278271
0.0280639
0.0283187
0.0285895
0.0288751
0.0291739
0.0294839
0.0298038
0.0301297
0.0304595
0.0307933
0.0311298
0.0314707
0.0318186
0.0321749
0.0325439
0.0329291
0.0333376
0.0337762
0.0342471
0.0347518
0.0352923
0.0358678
0.0364813
0.0371351
0.0378314
0.0385774
0.039388
0.0402902
0.0413256
0.0425563
0.044047
0.0458977
0.0482781
0.051428
0.0556714
0.0615744
0.0712678
0.0909071
0.124377
0.145464
0.147424
0.147449
0.147345
0.147315
0.147348
0.147358
0.147041
0.146499
0.146913
0.149442
0.150788
0.146745
0.137844
0.135685
0.135526
0.135518
0.135517
0.0319641
0.0304979
0.0293882
0.0285433
0.0279169
0.0274872
0.0272293
0.027111
0.0270978
0.0271579
0.0272703
0.0274223
0.0276065
0.0278176
0.0280491
0.0282987
0.0285642
0.0288442
0.0291381
0.0294445
0.0297619
0.0300899
0.030425
0.0307647
0.0311086
0.0314559
0.0318083
0.0321685
0.0325381
0.0329215
0.0333223
0.0337479
0.0342053
0.0346971
0.0352253
0.0357921
0.0363979
0.0370462
0.0377408
0.0384856
0.0392909
0.0401787
0.0411826
0.0423541
0.0437703
0.045525
0.0477684
0.0507264
0.0546727
0.0600223
0.0682989
0.0842905
0.114576
0.142615
0.147249
0.147402
0.147338
0.147322
0.147407
0.147538
0.147449
0.146843
0.14646
0.14738
0.15033
0.15057
0.142734
0.136486
0.135573
0.13552
0.135517
0.135517
0.0319711
0.0305064
0.0293971
0.0285539
0.0279297
0.0274991
0.0272421
0.0271244
0.0271102
0.0271691
0.0272789
0.0274275
0.0276069
0.0278119
0.0280389
0.0282833
0.0285435
0.0288182
0.0291063
0.0294079
0.0297218
0.0300472
0.0303844
0.0307293
0.0310792
0.0314338
0.0317926
0.0321572
0.0325306
0.0329143
0.0333133
0.033731
0.0341752
0.0346531
0.035168
0.0357221
0.0363185
0.0369583
0.0376464
0.0383881
0.03919
0.0400686
0.0410532
0.0421855
0.0435321
0.0451931
0.0473055
0.0500751
0.0537777
0.0586985
0.0659485
0.0792952
0.105418
0.137877
0.146965
0.147321
0.147299
0.147291
0.147375
0.147539
0.147755
0.147417
0.146829
0.146661
0.148674
0.150401
0.148586
0.139362
0.13586
0.135534
0.135518
0.135517
0.135517
0.0319767
0.0305132
0.0294052
0.0285625
0.0279397
0.0275113
0.0272535
0.0271367
0.027123
0.0271811
0.0272897
0.0274357
0.0276116
0.0278118
0.0280326
0.0282724
0.0285273
0.0287967
0.0290795
0.0293753
0.0296843
0.0300063
0.0303408
0.0306879
0.0310429
0.0314035
0.0317695
0.0321405
0.0325182
0.0329056
0.0333047
0.0337205
0.0341565
0.0346211
0.0351215
0.035662
0.0362451
0.0368747
0.0375533
0.0382873
0.0390839
0.0399561
0.0409268
0.0420332
0.04333
0.0449069
0.0468985
0.049491
0.0529479
0.0575399
0.0640196
0.0752826
0.0976368
0.131415
0.146352
0.147266
0.147236
0.147235
0.147313
0.147474
0.147691
0.147764
0.147376
0.146787
0.147161
0.149566
0.150222
0.144787
0.137117
0.135621
0.135522
0.135518
0.135517
0.135517
0.0319804
0.0305189
0.0294119
0.0285702
0.0279479
0.0275208
0.027265
0.0271479
0.027135
0.0271936
0.0273013
0.0274461
0.0276193
0.0278159
0.028032
0.0282655
0.0285158
0.0287798
0.0290574
0.0293477
0.029651
0.029968
0.030299
0.0306434
0.0310006
0.0313663
0.0317384
0.0321164
0.0325004
0.0328921
0.0332947
0.0337104
0.0341443
0.0346004
0.0350874
0.0356129
0.0361818
0.0367975
0.0374649
0.0381882
0.0389756
0.0398391
0.0407998
0.0418859
0.043148
0.0446605
0.0465462
0.0489832
0.0522121
0.0564968
0.0624187
0.0720955
0.0913201
0.123721
0.145083
0.147223
0.147197
0.147171
0.147247
0.147365
0.147544
0.147666
0.147661
0.146982
0.146943
0.148038
0.150236
0.148452
0.140714
0.136058
0.135544
0.135518
0.135517
0.135517
0.135517
0.0319823
0.0305227
0.0294173
0.0285765
0.0279552
0.0275285
0.0272739
0.0271589
0.0271461
0.0272051
0.0273134
0.0274573
0.0276293
0.0278231
0.0280356
0.0282643
0.0285083
0.0287676
0.0290397
0.0293248
0.0296226
0.0299339
0.0302599
0.0306007
0.0309552
0.0313231
0.0317002
0.0320843
0.0324752
0.0328731
0.0332799
0.033699
0.0341326
0.0345865
0.0350646
0.0355763
0.0361297
0.0367306
0.0373833
0.0380942
0.0388693
0.0397211
0.0406692
0.0417407
0.0429736
0.0444389
0.0462395
0.0485431
0.0515756
0.055584
0.0610226
0.0695212
0.0859857
0.115757
0.142657
0.147148
0.147182
0.147121
0.147197
0.147291
0.147434
0.147508
0.147546
0.147221
0.146861
0.147009
0.149331
0.150383
0.146387
0.137689
0.135664
0.135523
0.135518
0.135517
0.135517
0.135517
0.0319829
0.0305249
0.0294212
0.0285819
0.0279612
0.0275354
0.0272812
0.0271674
0.0271567
0.0272161
0.0273246
0.027469
0.0276402
0.0278326
0.0280423
0.0282673
0.0285065
0.0287594
0.0290269
0.0293065
0.029599
0.0299047
0.030225
0.0305607
0.0309116
0.0312767
0.031656
0.0320451
0.0324421
0.0328468
0.0332597
0.0336828
0.0341196
0.034573
0.0350486
0.0355512
0.0360904
0.0366752
0.0373124
0.0380075
0.0387688
0.039606
0.0405389
0.0415932
0.0428048
0.0442287
0.0459643
0.0481562
0.0510189
0.0547967
0.0598307
0.0673897
0.0813921
0.108215
0.138943
0.146893
0.147161
0.147076
0.147147
0.147261
0.147392
0.147438
0.147496
0.14736
0.147009
0.146493