/*--------------------------------*- C++ -*----------------------------------*\
| =========                 |                                                 |
| \\      /  F ield         | OpenFOAM: The Open Source CFD Toolbox           |
|  \\    /   O peration     | Version:  v2012                                 |
|   \\  /    A nd           | Website:  www.openfoam.com                      |
|    \\/     M anipulation  |                                                 |
\*---------------------------------------------------------------------------*/
FoamFile
{
    version     2.0;
    format      ascii;
    class       volScalarField;
    location    "3800";
    object      T;
}
// * * * * * * * * * * * * * * * * * * * * * * * * * * * * * * * * * * * * * //

dimensions      [0 0 0 1 0 0 0];


internalField   nonuniform List<scalar> 
29502
(
355.869
305.896
405.059
305.151
324.839
416.44
305.465
322.497
341.574
417.068
305.508
322.938
337.477
356.417
409.836
305.466
322.759
337.681
350.281
369.615
397.857
305.387
322.451
336.995
349.858
360.938
381.292
382.965
305.273
322.129
336.272
348.427
359.472
369.377
391.493
366.352
305.163
321.775
335.622
347.177
357.08
366.457
375.567
400.217
348.802
305.047
321.444
334.966
346.16
355.215
362.935
370.916
379.647
407.422
330.851
304.944
321.133
334.404
345.195
353.818
360.406
366.201
373.215
381.925
413.038
312.87
304.858
320.862
333.891
344.42
352.56
358.645
363.015
367.364
373.867
382.766
416.944
295.113
304.793
320.639
333.477
343.731
351.608
357.132
360.933
363.584
367.017
373.348
382.466
418.983
277.787
304.733
320.474
333.14
343.208
350.786
356.053
359.206
361.233
362.729
365.657
371.993
381.226
418.953
261.023
304.657
320.325
332.896
342.788
350.195
355.142
358.042
359.329
360.152
360.946
363.613
370.004
379.19
416.639
244.922
304.603
320.144
332.682
342.491
349.727
354.527
357.076
358.106
358.104
358.183
358.55
361.079
367.515
376.454
411.83
229.534
304.553
320.018
332.428
342.239
349.409
354.037
356.465
357.107
356.84
356.014
355.633
355.729
358.196
364.624
373.066
404.325
214.915
304.509
319.901
332.257
341.948
349.148
353.727
355.977
356.514
355.819
354.722
353.363
352.687
352.619
355.057
361.398
369.053
393.986
201.082
304.471
319.802
332.1
341.758
348.856
353.488
355.698
356.047
355.25
353.685
352.052
350.331
349.475
349.311
351.722
357.881
364.397
380.53
188.03
304.427
319.718
331.968
341.587
348.676
353.228
355.499
355.808
354.812
353.141
351.003
349.005
347.047
346.088
345.863
348.221
354.104
359.036
364.159
175.766
304.39
319.616
331.861
341.448
348.516
353.081
355.29
355.657
354.615
352.733
350.483
347.948
345.712
343.602
342.583
342.312
344.568
350.063
352.888
345.056
164.271
304.359
319.538
331.73
341.337
348.393
352.956
355.196
355.509
354.512
352.579
350.105
347.451
344.648
342.263
340.052
338.995
338.675
340.767
345.731
345.864
323.574
153.518
304.328
319.468
331.63
341.199
348.3
352.87
355.122
355.472
354.422
352.52
349.991
347.102
344.174
341.194
338.715
336.435
335.345
334.96
336.816
341.061
337.879
300.244
143.5
304.301
319.4
331.545
341.099
348.176
352.813
355.087
355.455
354.441
352.482
349.973
347.026
343.852
340.74
337.644
335.105
332.772
331.642
331.163
332.703
336.002
328.905
275.781
134.179
304.283
319.343
331.459
341.018
348.095
352.723
355.077
355.473
354.477
352.551
349.982
347.046
343.811
340.444
337.21
334.036
331.455
329.076
327.891
327.271
328.397
330.481
318.999
250.991
125.547
304.261
319.305
331.389
340.931
348.034
352.675
355.033
355.512
354.546
352.637
350.099
347.099
343.866
340.437
336.938
333.621
330.392
327.779
325.349
324.087
323.27
323.862
324.406
308.224
226.735
117.573
304.231
319.261
331.347
340.864
347.964
352.649
355.028
355.515
354.634
352.754
350.23
347.258
343.96
340.524
336.964
333.373
329.998
326.727
324.082
321.589
320.22
319.137
319.046
317.654
296.239
203.76
110.238
304.201
319.196
331.297
340.83
347.915
352.611
355.044
355.557
354.683
352.886
350.391
347.432
344.158
340.655
337.081
333.431
329.774
326.354
323.046
320.362
317.788
316.275
314.845
313.887
310.068
282.492
182.644
103.521
304.176
319.132
331.217
340.787
347.9
352.592
355.046
355.62
354.769
352.978
350.564
347.633
344.37
340.888
337.246
333.576
329.862
326.155
322.698
319.351
316.617
313.937
312.232
310.356
308.306
301.454
266.665
163.718
97.3927
304.16
319.079
331.14
340.707
347.875
352.604
355.062
355.664
354.877
353.105
350.695
347.845
344.609
341.137
337.512
333.773
330.035
326.274
322.523
319.03
315.639
312.837
310.02
308.067
305.626
302.206
291.602
248.435
147.059
91.8249
304.147
319.048
331.077
340.632
347.809
352.606
355.105
355.72
354.961
353.253
350.859
348.013
344.858
341.41
337.794
334.07
330.262
326.473
322.673
318.883
315.349
311.903
309.01
306.02
303.748
300.599
295.471
280.353
227.545
132.584
86.773
304.133
319.02
331.045
340.573
347.749
352.566
355.141
355.796
355.055
353.373
351.044
348.211
345.059
341.692
338.099
334.382
330.588
326.729
322.9
319.065
315.233
311.651
308.13
305.119
301.916
299.24
295.204
287.96
267.725
204.017
120.111
82.1963
304.117
318.993
331.016
340.554
347.707
352.533
355.134
355.87
355.164
353.502
351.198
348.431
345.288
341.925
338.412
334.717
330.929
327.084
323.185
319.321
315.449
311.569
307.923
304.306
301.145
297.682
294.498
289.358
279.515
253.953
178.649
109.546
78.1893
304.099
318.96
330.987
340.532
347.707
352.516
355.137
355.897
355.272
353.642
351.36
348.617
345.541
342.182
338.673
335.059
331.292
327.452
323.566
319.633
315.734
311.819
307.879
304.15
300.415
297.073
293.285
289.468
282.949
269.949
238.594
153.526
100.925
74.7561
304.079
318.925
330.949
340.51
347.699
352.542
355.151
355.933
355.331
353.779
351.527
348.809
345.756
342.466
338.958
335.348
331.662
327.841
323.962
320.041
316.075
312.136
308.168
304.152
300.322
296.445
292.884
288.688
284.08
275.846
259.049
220.665
131.411
93.9351
71.9032
304.06
318.883
330.908
340.475
347.693
352.553
355.204
355.977
355.399
353.868
351.693
349.003
345.975
342.708
339.269
335.657
331.978
328.238
324.377
320.463
316.51
312.507
308.519
304.482
300.375
296.428
292.382
288.553
283.845
278.251
267.891
246.64
199.865
113.77
88.3032
69.6444
304.04
318.84
330.857
340.438
347.669
352.565
355.237
356.056
355.471
353.966
351.808
349.194
346.194
342.954
339.538
335.995
332.31
328.579
324.8
320.903
316.958
312.969
308.92
304.869
300.752
296.541
292.455
288.206
284.049
278.698
271.875
258.909
232.749
176.498
99.2163
83.6371
67.9774
304.022
318.799
330.807
340.388
347.643
352.56
355.271
356.115
355.578
354.065
351.934
349.334
346.409
343.195
339.808
336.288
332.672
328.934
325.164
321.351
317.422
313.443
309.41
305.302
301.179
296.97
292.638
288.389
283.896
279.324
273.176
264.82
248.72
217.612
151.711
88.6217
79.731
66.8942
304.006
318.763
330.758
340.342
347.605
352.555
355.288
356.174
355.662
354.198
352.057
349.485
346.571
343.432
340.071
336.582
332.989
329.32
325.54
321.739
317.895
313.932
309.911
305.821
301.646
297.442
293.128
288.656
284.212
279.427
274.327
267.19
256.925
237.149
200.604
127.729
81.0914
76.3903
66.3414
303.994
318.731
330.717
340.296
347.571
352.534
355.307
356.212
355.743
354.303
352.216
349.631
346.745
343.615
340.328
336.864
333.304
329.658
325.95
322.136
318.306
314.429
310.424
306.35
302.197
297.946
293.65
289.215
284.579
279.904
274.758
268.991
260.628
248.005
224.077
180.476
107.373
76.4234
73.6694
66.0912
303.984
318.709
330.68
340.259
347.535
352.519
355.308
356.252
355.8
354.404
352.34
349.813
346.914
343.811
340.531
337.141
333.605
329.994
326.309
322.567
318.724
314.864
310.945
306.888
302.753
298.531
294.196
289.794
285.219
280.39
275.441
269.833
263.238
253.347
237.867
209.555
157.564
91.9048
73.8404
71.553
66.1836
303.981
318.691
330.658
340.227
347.512
352.5
355.316
356.277
355.863
354.481
352.461
349.958
347.118
344
340.747
337.362
333.901
330.314
326.665
322.948
319.176
315.302
311.403
307.434
303.318
299.118
294.818
290.388
285.864
281.126
276.07
270.786
264.591
256.967
245.177
226.346
193.498
133.748
81.1022
71.9237
70.1605
66.3187
303.978
318.687
330.64
340.211
347.491
352.494
355.318
356.308
355.91
354.565
352.556
350.096
347.282
344.225
340.954
337.596
334.139
330.628
327.002
323.323
319.577
315.775
311.862
307.915
303.889
299.71
295.437
291.05
286.511
281.847
276.917
271.593
265.888
258.955
250.051
235.926
213.355
174.896
111.151
74.3959
70.1317
69.4616
66.5075
303.975
318.683
330.645
340.2
347.487
352.491
355.336
356.331
355.963
354.631
352.66
350.208
347.439
344.408
341.2
337.822
334.39
330.881
327.333
323.678
319.971
316.196
312.355
308.394
304.394
300.307
296.059
291.705
287.219
282.556
277.728
272.574
266.925
260.682
252.833
242.33
225.401
198.97
153.309
92.3858
70.4595
68.8493
69.0009
66.7145
303.972
318.682
330.647
340.216
347.486
352.503
355.351
356.374
356.006
354.703
352.743
350.33
347.566
344.581
341.4
338.087
334.633
331.149
327.602
324.026
320.343
316.609
312.795
308.908
304.894
300.836
296.684
292.359
287.914
283.316
278.51
273.49
268.071
262.013
255.095
246.105
233.616
213.471
183.111
130.454
80.4286
68.8738
68.0321
68.7155
66.8609
303.967
318.678
330.651
340.229
347.517
352.514
355.378
356.41
356.069
354.764
352.833
350.429
347.704
344.724
341.59
338.304
334.917
331.408
327.886
324.31
320.708
316.997
313.227
309.367
305.428
301.359
297.239
293.013
288.603
284.055
279.329
274.356
269.112
263.37
256.794
249.034
238.62
223.714
200.152
164.685
107.471
72.649
68.201
67.5365
68.5592
66.7782
303.959
318.672
330.652
340.242
347.541
352.56
355.404
356.452
356.122
354.847
352.909
350.535
347.818
344.876
341.746
338.509
335.15
331.709
328.16
324.608
321.008
317.379
313.631
309.816
305.906
301.913
297.784
293.596
289.289
284.783
280.118
275.244
270.076
264.567
258.419
251.194
242.385
230.2
212.473
185.628
143.19
88.7711
68.6959
67.66
67.227
68.5536
66.4533
303.949
318.658
330.648
340.249
347.564
352.597
355.465
356.492
356.183
354.917
353.01
350.626
347.938
345.004
341.913
338.68
335.371
331.958
328.477
324.896
321.32
317.693
314.028
310.236
306.374
302.411
298.359
294.165
289.901
285.504
280.889
276.09
271.045
265.649
259.816
253.153
245.121
235.002
220.65
199.869
169.417
120.635
76.3072
67.4114
67.2157
67.4254
68.5372
66.0293
303.936
318.636
330.634
340.251
347.58
352.631
355.514
356.568
356.237
354.993
353.096
350.743
348.043
345.138
342.053
338.859
335.554
332.195
328.743
325.23
321.622
318.019
314.357
310.648
306.81
302.897
298.878
294.762
290.495
286.149
281.649
276.912
271.958
266.713
261.048
254.801
247.495
238.46
226.711
209.802
186.021
150.112
98.1037
70.3495
67.2122
66.7184
67.7056
68.4646
65.6612
303.92
318.604
330.608
340.241
347.591
352.656
355.56
356.628
356.327
355.06
353.186
350.844
348.175
345.254
342.199
339.01
335.746
332.39
328.993
325.511
321.971
318.335
314.697
310.991
307.237
303.349
299.383
295.302
291.116
286.77
282.329
277.715
272.836
267.704
262.224
256.228
249.456
241.355
231.067
217.311
197.596
170.732
128.346
81.3844
67.6951
66.873
66.49
67.9175
68.3352
65.3556
303.901
318.569
330.568
340.217
347.589
352.678
355.594
356.685
356.398
355.164
353.265
350.949
348.29
345.4
342.326
339.168
335.907
332.593
329.201
325.776
322.267
318.699
315.026
311.345
307.594
303.792
299.852
295.826
291.678
287.416
282.981
278.435
273.689
268.648
263.306
257.545
251.128
243.702
234.611
222.758
206.624
184.151
152.92
105.028
71.9865
66.8915
66.5819
66.6161
68.049
68.1745
65.1496
303.882
318.527
330.522
340.176
347.571
352.686
355.626
356.727
356.463
355.244
353.382
351.039
348.407
345.528
342.486
339.305
336.076
332.765
329.415
325.995
322.546
319.01
315.405
311.688
307.962
304.164
300.311
296.314
292.224
288.002
283.654
279.121
274.453
269.557
264.327
258.74
252.626
245.675
237.44
227.11
213.332
194.596
169.424
131.858
85.6097
68.4482
66.73
66.4181
66.8628
68.0578
68.0398
65.0227
303.864
318.484
330.467
340.128
347.534
352.677
355.643
356.771
356.514
355.32
353.474
351.169
348.51
345.658
342.626
339.477
336.224
332.944
329.597
326.22
322.777
319.302
315.73
312.081
308.319
304.546
300.698
296.789
292.731
288.57
284.266
279.823
275.177
270.372
265.302
259.852
253.965
247.401
239.787
230.541
218.663
202.62
181.37
152.451
109.181
73.7275
67.0587
66.5486
66.4267
67.1216
68.0743
67.8758
64.919
303.848
318.443
330.412
340.069
347.492
352.65
355.646
356.8
356.569
355.379
353.559
351.271
348.651
345.772
342.768
339.629
336.406
333.101
329.785
326.411
323.012
319.544
316.034
312.419
308.726
304.916
301.094
297.191
293.223
289.097
284.858
280.464
275.914
271.139
266.175
260.903
255.19
248.921
241.796
233.356
222.842
209.071
190.605
166.895
131.946
88.5076
68.6243
66.6541
66.4793
66.4856
67.2812
68.0959
67.5294
64.8248
303.833
318.408
330.36
340.01
347.436
352.618
355.631
356.816
356.61
355.445
353.626
351.366
348.763
345.925
342.893
339.782
336.569
333.294
329.951
326.609
323.212
319.789
316.287
312.736
309.077
305.337
301.478
297.602
293.642
289.608
285.407
281.081
276.585
271.913
266.993
261.844
256.335
250.292
243.541
235.718
226.242
214.15
198.19
177.461
150.178
109.894
74.6298
67.1607
66.5791
66.5027
66.5822
67.4321
68.1847
66.9672
64.7431
303.821
318.375
330.315
339.955
347.381
352.574
355.614
356.813
356.637
355.497
353.702
351.441
348.868
346.048
343.057
339.917
336.733
333.467
330.154
326.784
323.419
319.998
316.541
312.999
309.406
305.701
301.912
298
294.067
290.043
285.938
281.654
277.231
272.62
267.81
262.719
257.355
251.556
245.093
237.743
229.049
218.273
204.272
186.054
163.004
129.782
88.8712
68.7635
66.6571
66.6239
66.5154
66.66
67.6581
68.1483
66.3795
64.6771
303.81
318.347
330.273
339.909
347.331
352.529
355.586
356.811
356.648
355.535
353.764
351.527
348.952
346.162
343.191
340.094
336.878
333.643
330.338
326.996
323.603
320.213
316.759
313.263
309.68
306.043
302.29
298.448
294.479
290.485
286.392
282.206
277.83
273.298
268.556
263.586
258.299
252.676
246.504
239.521
231.426
221.637
209.251
193.107
172.868
146.137
107.46
74.504
67.0226
66.6695
66.6088
66.5349
66.7903
67.8158
68.0038
65.8916
64.6235
303.801
318.325
330.24
339.866
347.291
352.488
355.559
356.798
356.661
355.557
353.812
351.598
349.046
346.254
343.314
340.237
337.066
333.797
330.524
327.189
323.824
320.405
316.983
313.489
309.954
306.328
302.644
298.839
294.941
290.912
286.85
282.68
278.406
273.926
269.27
264.377
259.223
253.703
247.752
241.113
233.486
224.459
213.298
199.006
180.755
158.207
125.641
86.9823
68.4169
66.6994
66.7083
66.608
66.5634
66.9911
67.8906
67.7288
65.4825
64.5821
303.795
318.306
330.212
339.832
347.252
352.461
355.53
356.787
356.661
355.582
353.843
351.656
349.126
346.357
343.415
340.37
337.22
333.995
330.687
327.385
324.025
320.635
317.182
313.721
310.188
306.611
302.94
299.206
295.346
291.388
287.292
283.156
278.902
274.528
269.93
265.132
260.067
254.697
248.887
242.521
235.306
226.873
216.673
203.837
187.509
167.379
140.74
103.046
73.2056
66.8924
66.7298
66.718
66.6073
66.6226
67.1753
67.8773
67.3648
65.1564
64.5517
303.789
318.293
330.19
339.805
347.225
352.433
355.516
356.774
356.663
355.593
353.88
351.695
349.192
346.445
343.525
340.478
337.362
334.159
330.895
327.558
324.231
320.845
317.42
313.929
310.429
306.855
303.233
299.514
295.726
291.807
287.783
283.615
279.397
275.048
270.561
265.83
260.869
255.602
249.969
243.789
236.909
228.978
219.532
207.876
193.124
174.93
152.216
119.807
83.1757
67.8472
66.7492
66.7664
66.71
66.6352
66.7521
67.3487
67.8334
66.935
64.9134
64.531
303.787
318.283
330.175
339.785
347.204
352.415
355.505
356.777
356.665
355.608
353.902
351.741
349.24
346.52
343.622
340.598
337.477
334.31
331.069
327.776
324.413
321.06
317.639
314.175
310.644
307.103
303.485
299.817
296.046
292.2
288.216
284.121
279.874
275.565
271.109
266.493
261.609
256.459
250.951
244.983
238.342
230.826
221.999
211.281
197.895
181.21
161.082
133.672
97.0538
71.1176
66.8403
66.7729
66.7777
66.7266
66.6712
66.7933
67.4824
67.7446
66.4269
64.746
64.518
303.787
318.281
330.165
339.773
347.19
352.405
355.501
356.781
356.685
355.623
353.927
351.773
349.295
346.573
343.704
340.701
337.605
334.434
331.23
327.959
324.641
321.25
317.863
314.402
310.898
307.326
303.742
300.078
296.36
292.532
288.624
284.569
280.396
276.061
271.649
267.071
262.31
257.247
251.874
246.062
239.674
232.462
224.154
214.198
201.929
186.687
168.313
144.87
111.993
78.4002
67.3203
66.7835
66.8051
66.7937
66.7284
66.7059
66.8761
67.5803
67.6327
65.8844
64.6431
64.5103
303.788
318.283
330.166
339.765
347.183
352.402
355.5
356.792
356.701
355.657
353.953
351.809
349.335
346.637
343.764
340.79
337.716
334.569
331.361
328.129
324.833
321.486
318.062
314.634
311.133
307.588
303.973
300.344
296.63
292.857
288.969
284.992
280.86
276.6
272.166
267.639
262.922
257.991
252.721
247.07
240.873
233.965
226.045
216.739
205.386
191.346
174.409
153.814
124.77
89.8212
69.1437
66.7942
66.805
66.8375
66.8124
66.7441
66.696
66.997
67.5823
67.4013
65.4123
64.583
64.5056
303.789
318.286
330.173
339.772
347.181
352.404
355.511
356.804
356.725
355.685
353.999
351.843
349.38
346.684
343.834
340.857
337.811
334.687
331.503
328.268
325.012
321.689
318.306
314.842
311.374
307.832
304.243
300.582
296.904
293.137
289.305
285.351
281.299
277.082
272.724
268.179
263.521
258.644
253.515
247.991
241.987
235.315
227.762
218.952
208.398
195.394
179.586
160.905
136.251
102.096
73.7935
66.9794
66.7851
66.8353
66.8749
66.8265
66.7052
66.6791
67.1757
67.5847
67.0379
65.051
64.5453
64.5028
303.79
318.288
330.179
339.784
347.195
352.408
355.527
356.824
356.749
355.72
354.038
351.9
349.422
346.736
343.888
340.933
337.883
334.788
331.628
328.418
325.159
321.876
318.517
315.095
311.59
308.081
304.495
300.86
297.151
293.421
289.597
285.7
281.673
277.537
273.225
268.758
264.088
259.278
254.214
248.848
242.998
236.557
229.297
220.938
211.01
198.948
184.204
166.855
145.107
114.998
81.6957
67.8025
66.7723
66.808
66.8756
66.9197
66.7981
66.6749
66.6691
67.3079
67.5764
66.4535
64.8037
64.5231
64.5013
303.792
318.292
330.187
339.796
347.215
352.43
355.539
356.85
356.781
355.756
354.084
351.949
349.489
346.786
343.946
340.993
337.965
334.866
331.737
328.55
325.317
322.03
318.712
315.313
311.851
308.305
304.752
301.12
297.437
293.677
289.89
286.002
282.035
277.927
273.699
269.28
264.69
259.875
254.89
249.605
243.935
237.679
230.698
222.705
213.332
202.03
188.296
171.997
152.462
125.344
92.1787
70.1198
66.8223
66.7849
66.8454
66.9236
66.9068
66.7541
66.6279
66.7788
67.4345
67.4298
65.8533
64.6549
64.5109
64.5006
303.793
318.298
330.196
339.81
347.233
352.459
355.568
356.874
356.817
355.799
354.129
352.005
349.547
346.862
344.003
341.058
338.031
334.954
331.82
328.665
325.455
322.195
318.874
315.517
312.078
308.574
304.984
301.386
297.705
293.971
290.155
286.306
282.35
278.304
274.106
269.774
265.234
260.504
255.522
250.331
244.767
238.714
231.958
224.306
215.39
204.757
191.868
176.53
158.491
134.844
102.627
74.7858
67.0883
66.7767
66.8206
66.8946
66.9476
66.8777
66.6947
66.6166
66.9593
67.4305
67.2158
65.3184
64.5729
64.5049
64.5002
303.796
318.303
330.206
339.824
347.253
352.483
355.602
356.911
356.85
355.844
354.182
352.059
349.611
346.927
344.087
341.12
338.102
335.024
331.912
328.752
325.575
322.339
319.045
315.685
312.289
308.809
305.262
301.626
297.98
294.248
290.457
286.581
282.665
278.632
274.5
270.201
265.751
261.074
256.182
251.006
245.559
239.638
233.114
225.737
217.241
207.173
195.046
180.54
163.69
142.482
113.099
81.7636
67.9536
66.7882
66.8014
66.8698
66.9262
66.9337
66.8107
66.6558
66.6637
67.1716
67.4431
66.6692
64.9367
64.5327
64.502
64.5001
303.796
318.31
330.215
339.84
347.273
352.512
355.636
356.954
356.895
355.884
354.235
352.121
349.674
346.999
344.159
341.21
338.169
335.1
331.987
328.85
325.667
322.465
319.195
315.863
312.465
309.029
305.505
301.912
298.229
294.531
290.743
286.892
282.95
278.96
274.843
270.613
266.2
261.617
256.782
251.701
246.287
240.512
234.151
227.044
218.888
209.332
197.872
184.157
168.24
148.921
122.419
90.3992
69.9609
66.8434
66.7974
66.8549
66.9071
66.9157
66.8626
66.7321
66.6394
66.7844
67.3227
67.3701
66.0229
64.7051
64.5136
64.5008
64.5
303.795
318.311
330.228
339.854
347.295
352.538
355.673
356.995
356.948
355.937
354.283
352.182
349.743
347.069
344.238
341.289
338.265
335.172
332.067
328.929
325.77
322.563
319.326
316.018
312.649
309.211
305.732
302.163
298.522
294.788
291.035
287.187
283.271
279.256
275.183
270.972
266.631
262.09
257.353
252.336
247.027
241.31
235.123
228.219
220.385
211.249
200.393
187.393
172.245
154.426
130.625
99.3894
73.637
67.023
66.7921
66.8468
66.9027
66.9125
66.8757
66.7756
66.6445
66.6227
66.9636
67.3722
67.0963
65.3965
64.5857
64.5051
64.5003
64.5
303.794
318.311
330.229
339.87
347.314
352.564
355.705
357.038
356.995
355.998
354.343
352.237
349.812
347.147
344.315
341.375
338.35
335.273
332.143
329.013
325.854
322.669
319.429
316.156
312.81
309.401
305.922
302.399
298.781
295.089
291.3
287.488
283.575
279.587
275.493
271.328
267.009
262.544
257.854
252.94
247.703
242.106
236.007
229.313
221.733
212.985
202.632
190.282
175.815
159.061
137.63
107.844
79.032
67.6051
66.7802
66.83
66.902
66.9219
66.8991
66.8106
66.699
66.6041
66.6808
67.1258
67.3505
66.5901
64.9442
64.5319
64.5017
64.5001
64.5
303.792
318.311
330.231
339.875
347.333
352.586
355.734
357.076
357.044
356.052
354.412
352.304
349.874
347.223
344.4
341.458
338.441
335.363
332.249
329.092
325.942
322.757
319.54
316.263
312.953
309.569
306.119
302.596
299.025
295.357
291.609
287.762
283.885
279.901
275.835
271.651
267.382
262.942
258.334
253.472
248.348
242.834
236.874
230.302
222.978
214.549
204.661
192.875
179.021
163.142
143.416
116.499
85.769
68.912
66.7914
66.8066
66.8897
66.923
66.9187
66.8697
66.7742
66.6678
66.585
66.7881
67.2716
67.3332
65.8636
64.6853
64.5108
64.5005
64.5
64.5
303.79
318.309
330.231
339.879
347.341
352.61
355.759
357.11
357.087
356.106
354.472
352.38
349.947
347.29
344.483
341.549
338.53
335.46
332.344
329.203
326.025
322.849
319.632
316.379
313.065
309.717
306.292
302.799
299.23
295.608
291.885
288.079
284.169
280.222
276.159
272.005
267.721
263.334
258.756
253.982
248.918
243.529
237.667
231.259
224.099
215.985
206.491
195.24
181.96
166.797
148.491
123.605
93.1657
71.2681
66.8804
66.7826
66.8669
66.9152
66.9151
66.8847
66.8455
66.7702
66.6539
66.6267
66.9757
67.3307
66.9465
65.2297
64.5659
64.5032
64.5001
64.5
64.5
303.789
318.306
330.229
339.881
347.35
352.624
355.788
357.14
357.128
356.154
354.532
352.446
350.03
347.37
344.556
341.638
338.627
335.554
332.446
329.302
326.139
322.936
319.728
316.474
313.185
309.833
306.446
302.978
299.439
295.821
292.146
288.364
284.494
280.515
276.49
272.341
268.088
263.691
259.169
254.432
249.465
244.148
238.424
232.133
225.168
217.271
208.164
197.382
184.662
170.067
152.957
130.229
100.406
74.8149
67.1507
66.7681
66.8401
66.9032
66.904
66.8763
66.8435
66.8375
66.7535
66.6524
66.7026
67.1436
67.2102
66.2289
64.8031
64.5199
64.5008
64.5
64.5
64.5
303.786
318.3
330.224
339.88
347.355
352.637
355.809
357.171
357.163
356.201
354.586
352.512
350.103
347.46
344.641
341.718
338.722
335.657
332.545
329.409
326.242
323.053
319.818
316.574
313.285
309.958
306.567
303.138
299.625
296.037
292.366
288.633
284.787
280.848
276.794
272.683
268.437
264.073
259.546
254.87
249.947
244.742
239.102
232.966
226.145
218.482
209.656
199.333
187.121
173.052
156.794
135.879
107.291
79.4092
67.7551
66.7698
66.8192
66.8868
66.8953
66.8631
66.8243
66.8212
66.8112
66.6923
66.6565
66.8737
67.2323
66.9459
65.4813
64.6027
64.5051
64.5002
64.5
64.5
64.5
303.783
318.295
330.219
339.877
347.357
352.646
355.829
357.198
357.195
356.241
354.638
352.571
350.175
347.539
344.737
341.809
338.808
335.759
332.654
329.514
326.354
323.161
319.939
316.668
313.388
310.062
306.696
303.264
299.791
296.229
292.59
288.862
285.065
281.15
277.136
272.998
268.791
264.436
259.946
255.269
250.414
245.264
239.753
233.716
227.072
219.587
211.045
201.07
189.357
175.775
160.224
140.76
113.962
84.806
68.8487
66.7985
66.803
66.8723
66.8875
66.8624
66.8092
66.7904
66.7834
66.7416
66.6476
66.6645
67.079
67.2941
66.5749
64.9124
64.5278
64.5011
64.5
64.5
64.5
64.5
303.779
318.287
330.211
339.871
347.356
352.653
355.843
357.225
357.228
356.276
354.683
352.629
350.239
347.616
344.822
341.91
338.905
335.85
332.761
329.627
326.462
323.277
320.051
316.793
313.485
310.169
306.804
303.398
299.922
296.401
292.788
289.092
285.303
281.438
277.447
273.35
269.118
264.804
260.325
255.69
250.84
245.768
240.329
234.435
227.911
220.633
212.311
202.677
191.36
178.255
163.34
145.059
120.32
90.5908
70.6098
66.8607
66.7898
66.8569
66.8813
66.8651
66.8106
66.7891
66.7802
66.7632
66.6695
66.5781
66.8031
67.2183
67.1003
65.6245
64.6293
64.5061
64.5002
64.5
64.5
64.5
64.5
303.775
318.279
330.202
339.864
347.354
352.655
355.853
357.242
357.261
356.314
354.721
352.679
350.302
347.686
344.906
342.001
339.012
335.952
332.857
329.738
326.58
323.39
320.171
316.908
313.614
310.27
306.915
303.509
300.06
296.538
292.966
289.297
285.541
281.684
277.744
273.671
269.48
265.144
260.709
256.088
251.284
246.227
240.88
235.075
228.712
221.581
213.504
204.138
193.212
180.516
166.179
148.933
125.774
96.478
73.1212
67.0096
66.771
66.8403
66.8706
66.8646
66.8227
66.7912
66.7818
66.7826
66.7303
66.637
66.6307
66.995
67.2325
66.4441
64.9919
64.5308
64.5011
64.5
64.5
64.5
64.5
64.5
303.77
318.269
330.191
339.854
347.348
352.658
355.861
357.258
357.284
356.354
354.764
352.721
350.357
347.755
344.981
342.091
339.108
336.064
332.963
329.839
326.696
323.512
320.288
317.032
313.733
310.402
307.02
303.625
300.176
296.681
293.109
289.482
285.753
281.931
278.001
273.978
269.812
265.518
261.063
256.488
251.704
246.701
241.383
235.685
229.43
222.485
214.591
205.514
194.9
182.615
168.714
152.414
130.825
102.195
76.3574
67.3313
66.7497
66.8209
66.8582
66.8589
66.8264
66.8029
66.8053
66.8111
66.7867
66.7359
66.6477
66.7779
67.1654
66.922
65.761
64.6364
64.5055
64.5002
64.5
64.5
64.5
64.5
64.5
303.765
318.257
330.177
339.843
347.341
352.657
355.871
357.274
357.308
356.384
354.81
352.769
350.403
347.814
345.055
342.171
339.203
336.165
333.082
329.95
326.803
323.633
320.415
317.153
313.861
310.525
307.155
303.732
300.295
296.801
293.257
289.631
285.946
282.151
278.256
274.244
270.13
265.86
261.449
256.86
252.124
247.147
241.894
236.242
230.112
223.299
215.624
206.773
196.489
184.53
171.032
155.421
135.237
107.604
80.1997
67.9323
66.7415
66.7982
66.8434
66.8476
66.8223
66.8054
66.8091
66.8217
66.8306
66.8081
66.6954
66.6902
66.9814
67.1269
66.6345
64.9638
64.5274
64.5009
64.5
64.5
64.5
64.5
64.5
64.5
303.76
318.245
330.161
339.828
347.331
352.653
355.876
357.29
357.328
356.412
354.845
352.819
350.455
347.865
345.119
342.25
339.288
336.265
333.187
330.074
326.919
323.744
320.54
317.285
313.986
310.656
307.281
303.871
300.407
296.925
293.382
289.785
286.101
282.35
278.484
274.509
270.407
266.19
261.804
257.26
252.515
247.591
242.374
236.8
230.734
224.069
216.557
207.964
197.948
186.333
173.137
158.106
139.055
112.833
84.4747
68.88
66.7604
66.7794
66.8296
66.8356
66.8122
66.7971
66.8059
66.8184
66.8244
66.8333
66.7285
66.6859
66.7637
67.1393
67.1279
65.6302
64.6195
64.5042
64.5001
64.5
64.5
64.5
64.5
64.5
64.5
303.754
318.232
330.144
339.81
347.318
352.649
355.878
357.301
357.35
356.438
354.879
352.859
350.511
347.921
345.174
342.319
339.373
336.355
333.293
330.186
327.048
323.864
320.656
317.414
314.122
310.785
307.416
304.001
300.549
297.04
293.51
289.915
286.26
282.513
278.692
274.746
270.682
266.48
262.147
257.629
252.931
248.004
242.848
237.322
231.351
224.773
217.438
209.047
199.326
187.996
175.116
160.52
142.48
117.752
88.9797
70.2364
66.8239
66.7704
66.8225
66.826
66.7982
66.782
66.7867
66.799
66.8013
66.7964
66.7469
66.6921
66.6389
66.9736
67.2307
66.4438
64.9075
64.519
64.5006
64.5
64.5
64.5
64.5
64.5
64.5
64.5
303.748
318.218
330.125
339.791
347.302
352.64
355.879
357.309
357.367
356.464
354.91
352.898
350.555
347.981
345.234
342.378
339.447
336.445
333.388
330.296
327.164
323.998
320.78
317.534
314.255
310.925
307.549
304.14
300.682
297.185
293.629
290.047
286.395
282.679
278.862
274.962
270.929
266.765
262.45
257.986
253.316
248.439
243.288
237.833
231.925
225.462
218.242
210.065
200.585
189.566
176.952
162.779
145.535
122.302
93.4775
72.012
66.9479
66.7629
66.8183
66.82
66.7939
66.7595
66.7672
66.7787
66.7709
66.7555
66.7439
66.701
66.5644
66.6664
67.0994
66.8166
65.5104
64.5795
64.5026
64.5001
64.5
64.5
64.5
64.5
64.5
64.5
64.5
303.742
318.203
330.106
339.77
347.283
352.626
355.876
357.317
357.38
356.487
354.941
352.934
350.599
348.03
345.299
342.443
339.511
336.524
333.483
330.397
327.279
324.119
320.919
317.663
314.379
311.062
307.692
304.276
300.824
297.322
293.778
290.171
286.533
282.82
279.034
275.141
271.155
267.023
262.747
258.303
253.689
248.842
243.745
238.306
232.482
226.101
219.022
210.994
201.768
191.016
178.688
164.876
148.358
126.274
97.8919
74.1747
67.1564
66.7628
66.8209
66.8203
66.7938
66.7586
66.7481
66.762
66.7656
66.7465
66.7477
66.7233
66.6041
66.6184
66.971
66.9748
66.3215
64.7807
64.511
64.5003
64.5
64.5
64.5
64.5
64.5
64.5
64.5
64.5
303.736
318.188
330.085
339.748
347.263
352.612
355.867
357.321
357.395
356.506
354.969
352.97
350.639
348.078
345.352
342.511
339.578
336.593
333.567
330.496
327.384
324.239
321.044
317.806
314.512
311.191
307.834
304.423
300.964
297.468
293.918
290.323
286.662
282.963
279.182
275.321
271.343
267.259
263.017
258.614
254.022
249.234
244.168
238.791
232.997
226.715
219.742
211.886
202.85
192.385
180.326
166.854
150.951
129.99
102.107
76.6899
67.4729
66.766
66.8168
66.8198
66.7958
66.759
66.7452
66.7579
66.7644
66.7545
66.7747
66.7574
66.6954
66.6601
66.8529
67.1028
66.9193
65.2407
64.5436
64.5013
64.5
64.5
64.5
64.5
64.5
64.5
64.5
64.5
64.5
303.729
318.173
330.064
339.725
347.242
352.596
355.859
357.319
357.406
356.526
354.993
353.002
350.679
348.122
345.404
342.569
339.651
336.664
333.64
330.585
327.489
324.348
321.168
317.935
314.659
311.327
307.967
304.568
301.115
297.611
294.067
290.467
286.818
283.097
279.331
275.475
271.531
267.458
263.264
258.897
254.348
249.585
244.581
239.24
233.516
227.282
220.428
212.709
203.88
193.642
181.882
168.688
153.363
133.344
106.165
79.4687
67.903
66.7721
66.81
66.8163
66.7899
66.7581
66.7451
66.7618
66.7696
66.7774
66.809
66.8226