/*--------------------------------*- C++ -*----------------------------------*\
| =========                 |                                                 |
| \\      /  F ield         | OpenFOAM: The Open Source CFD Toolbox           |
|  \\    /   O peration     | Version:  v2012                                 |
|   \\  /    A nd           | Website:  www.openfoam.com                      |
|    \\/     M anipulation  |                                                 |
\*---------------------------------------------------------------------------*/
FoamFile
{
    version     2.0;
    format      ascii;
    class       volScalarField;
    location    "3800";
    object      TuM;
}
// * * * * * * * * * * * * * * * * * * * * * * * * * * * * * * * * * * * * * //

dimensions      [0 0 0 0 0 0 0];


internalField   nonuniform List<scalar> 
29502
(
0.0875207
0.0183272
0.0367284
0.0198057
0.00727005
0.0231734
0.0217911
0.0144315
0.00430942
0.0180903
0.0230382
0.0174276
0.0307109
0.003444
0.0160578
0.0236751
0.0188599
0.0381838
0.0547129
0.00353349
0.0152834
0.0239504
0.019547
0.0414852
0.0681051
0.0832782
0.00410172
0.0150632
0.0240574
0.0198371
0.0429874
0.0738988
0.103524
0.114596
0.00487058
0.0150788
0.0240253
0.0199346
0.043545
0.0764498
0.112167
0.141923
0.146671
0.00568629
0.0151925
0.0239432
0.0198926
0.0436728
0.0772901
0.11588
0.153446
0.180462
0.177505
0.0065205
0.0153517
0.0238069
0.0197909
0.0434984
0.0774004
0.116991
0.158301
0.194516
0.216529
0.20558
0.00730116
0.015538
0.0236845
0.0196504
0.0432083
0.0769915
0.117048
0.15966
0.200345
0.232518
0.248478
0.230131
0.00798517
0.0157464
0.023575
0.0195264
0.0428594
0.0764164
0.11634
0.15967
0.201924
0.239068
0.265801
0.275793
0.251156
0.00857933
0.0159734
0.0234671
0.0194208
0.042553
0.0757643
0.115428
0.158661
0.201931
0.240832
0.272827
0.293984
0.298753
0.26916
0.00905311
0.0162174
0.0233118
0.0193025
0.0422938
0.0751935
0.114426
0.157432
0.200689
0.240895
0.27475
0.301309
0.317508
0.318141
0.284446
0.00944369
0.0164767
0.0231962
0.0191407
0.0420058
0.0747068
0.113547
0.156094
0.199231
0.239524
0.27491
0.303367
0.325032
0.337251
0.334453
0.297288
0.00975225
0.0167501
0.0230744
0.0190289
0.0416291
0.0741781
0.112793
0.154924
0.19764
0.237957
0.2735
0.303642
0.327208
0.344888
0.353786
0.348101
0.307933
0.00997784
0.0170361
0.022955
0.018907
0.0413721
0.0735081
0.111986
0.153903
0.196249
0.236222
0.271921
0.302248
0.327595
0.347161
0.361469
0.367603
0.359439
0.316559
0.0102253
0.0173323
0.0228553
0.0187906
0.0410931
0.0730475
0.110985
0.152825
0.19501
0.234705
0.270137
0.300713
0.326238
0.347652
0.363822
0.375292
0.379139
0.368782
0.323219
0.0102245
0.0176391
0.0227458
0.0186947
0.0408289
0.0725519
0.110293
0.151508
0.193714
0.233324
0.268576
0.29894
0.324764
0.346344
0.3644
0.37771
0.386811
0.388764
0.376388
0.327964
0.00996267
0.0179544
0.0226475
0.0185838
0.0406139
0.0720852
0.109552
0.15059
0.192152
0.23189
0.267122
0.297388
0.323027
0.34494
0.363142
0.378355
0.389282
0.396417
0.396779
0.382481
0.330706
0.00945325
0.0182782
0.0225607
0.0184871
0.0403666
0.0717076
0.108856
0.149611
0.191055
0.230177
0.265622
0.295909
0.321509
0.34325
0.361809
0.377144
0.389975
0.398931
0.404433
0.403411
0.387201
0.331168
0.00879681
0.0186095
0.0224763
0.0184068
0.0401531
0.0712788
0.108294
0.148692
0.189884
0.228966
0.263844
0.294391
0.320032
0.341771
0.360171
0.375876
0.388803
0.399655
0.406982
0.411121
0.408837
0.390593
0.328998
0.00804523
0.0189476
0.0223923
0.0183263
0.039979
0.0709107
0.107664
0.147949
0.188779
0.227667
0.26258
0.292606
0.318523
0.340303
0.358736
0.374289
0.387589
0.398512
0.407722
0.413698
0.416687
0.413185
0.392669
0.323815
0.00737559
0.019292
0.0223292
0.0182456
0.0398036
0.0706113
0.107126
0.147125
0.187885
0.226439
0.261217
0.29133
0.316758
0.33881
0.357286
0.372899
0.386048
0.397342
0.406602
0.414449
0.419294
0.42129
0.416558
0.393363
0.315369
0.00684719
0.0196405
0.0222623
0.0181852
0.0396291
0.0703099
0.106687
0.146422
0.186903
0.225438
0.259919
0.289945
0.315493
0.337071
0.355815
0.371469
0.384699
0.39584
0.405464
0.413346
0.420059
0.423943
0.425049
0.419009
0.392545
0.303516
0.00657502
0.0199938
0.022181
0.0181188
0.0394983
0.0700103
0.106245
0.14585
0.186068
0.22435
0.258854
0.288616
0.314109
0.335822
0.354108
0.370021
0.383291
0.394527
0.403992
0.412229
0.418967
0.424731
0.427783
0.428046
0.420534
0.390014
0.287548
0.00648622
0.0203514
0.0220972
0.0180361
0.0393548
0.0697883
0.105809
0.145272
0.185383
0.223427
0.257707
0.287519
0.312771
0.334445
0.352882
0.368349
0.381864
0.393139
0.402711
0.410782
0.417865
0.423648
0.42861
0.430918
0.430324
0.421067
0.385468
0.267217
0.00656024
0.0207159
0.0220251
0.017956
0.0391757
0.0695451
0.105485
0.144702
0.184693
0.222663
0.256737
0.286346
0.311659
0.333105
0.351518
0.367148
0.380224
0.391728
0.40134
0.409526
0.416435
0.422557
0.427539
0.431806
0.433423
0.431896
0.420478
0.378445
0.241923
0.006749
0.0211018
0.0219749
0.0178903
0.039006
0.0692432
0.105134
0.14428
0.184011
0.221894
0.255926
0.285356
0.310479
0.331984
0.350185
0.365802
0.379047
0.390117
0.399942
0.408169
0.415201
0.42114
0.426458
0.430758
0.434399
0.435337
0.432735
0.418564
0.368325
0.21135
0.00701541
0.0214035
0.0219335
0.0178497
0.0388707
0.0689593
0.1047
0.143824
0.183506
0.221132
0.255108
0.284523
0.309484
0.3308
0.34906
0.364478
0.377721
0.388961
0.398353
0.40678
0.413853
0.419923
0.425052
0.429691
0.433394
0.436449
0.436676
0.432764
0.415
0.354397
0.175879
0.00729765
0.0216223
0.0218896
0.0178149
0.0387921
0.0687362
0.104294
0.143265
0.182962
0.220565
0.254297
0.283681
0.308643
0.329804
0.34788
0.363357
0.37641
0.387653
0.397216
0.405208
0.412468
0.418583
0.423849
0.428296
0.432352
0.43551
0.437991
0.437427
0.431864
0.409402
0.336284
0.137269
0.00757723
0.0218592
0.0218384
0.0177747
0.0387245
0.0686098
0.103978
0.142743
0.182302
0.219955
0.253688
0.282843
0.30779
0.328957
0.346888
0.362182
0.375293
0.386356
0.395924
0.404086
0.41091
0.4172
0.422515
0.427106
0.43097
0.434508
0.437151
0.439037
0.437535
0.429835
0.401309
0.314406
0.0994261
0.0078551
0.0221402
0.0217811
0.0177234
0.0386436
0.0685021
0.103801
0.142342
0.181687
0.219227
0.253036
0.282207
0.306938
0.328098
0.34604
0.361197
0.374127
0.385244
0.39464
0.402808
0.409801
0.415651
0.421133
0.425779
0.429794
0.433145
0.436204
0.438333
0.439572
0.43692
0.426375
0.390155
0.287709
0.0672957
0.00806298
0.0224351
0.0217217
0.0176664
0.0385369
0.0683717
0.103652
0.142115
0.181214
0.218549
0.25227
0.281528
0.306283
0.327235
0.345178
0.360351
0.373149
0.384084
0.393532
0.401534
0.408533
0.414551
0.419591
0.424399
0.428474
0.431988
0.434872
0.437463
0.439058
0.439565
0.435425
0.421102
0.375229
0.255681
0.0435569
0.00825447
0.0227145
0.0216624
0.0176056
0.0384163
0.0681977
0.10347
0.141925
0.180943
0.218027
0.251555
0.280745
0.305588
0.326564
0.344308
0.359489
0.372306
0.383114
0.392379
0.400432
0.407269
0.413293
0.418496
0.422861
0.427098
0.430678
0.433737
0.436175
0.438296
0.439319
0.438931
0.432846
0.413478
0.355721
0.218003
0.0275521
0.00843772
0.0229929
0.0216066
0.017547
0.038289
0.0679991
0.103226
0.141694
0.180716
0.217717
0.251002
0.280011
0.304798
0.325859
0.343628
0.358614
0.371445
0.382276
0.391415
0.399286
0.406171
0.412037
0.417245
0.421769
0.425564
0.429307
0.432441
0.435072
0.43707
0.438703
0.439086
0.437564
0.428873
0.402862
0.331242
0.175902
0.0174054
0.00861563
0.0232563
0.0215524
0.0174924
0.0381657
0.067788
0.102945
0.141384
0.180441
0.217457
0.250659
0.279439
0.304056
0.325064
0.342913
0.357927
0.370568
0.381416
0.390581
0.398326
0.405031
0.410944
0.415998
0.420524
0.424474
0.42778
0.431081
0.433796
0.436012
0.437565
0.438671
0.438299
0.435287
0.423093
0.388533
0.302482
0.132982
0.0112248
0.00879525
0.0234694
0.0215082
0.0174422
0.0380522
0.0675856
0.102647
0.141025
0.180073
0.217141
0.25037
0.279071
0.303473
0.324317
0.342119
0.357206
0.369875
0.380539
0.389723
0.397495
0.404075
0.409809
0.41491
0.419286
0.423235
0.426692
0.42956
0.432451
0.434766
0.436566
0.437655
0.438179
0.436862
0.431855
0.41495
0.369778
0.268399
0.0952681
0.00781631
0.00895414
0.0235512
0.0214721
0.0174031
0.0379502
0.0674017
0.102363
0.140647
0.179652
0.216733
0.250023
0.278756
0.303082
0.323723
0.341369
0.356412
0.369148
0.379839
0.388846
0.396639
0.403247
0.408855
0.41378
0.418205
0.422005
0.425459
0.428475
0.43094
0.433442
0.435362
0.436738
0.437324
0.437167
0.43462
0.426917
0.403748
0.345919
0.228725
0.0661259
0.00623756
0.00905781
0.0236315
0.0214408
0.017372
0.0378705
0.0672344
0.102105
0.140287
0.179209
0.216265
0.249584
0.278383
0.302747
0.323311
0.340767
0.355664
0.368356
0.379107
0.388141
0.395763
0.402393
0.408029
0.412828
0.417079
0.42093
0.424238
0.427249
0.429859
0.431946
0.434071
0.435591
0.436517
0.436546
0.435553
0.431358
0.419991
0.388669
0.317183
0.184461
0.0451381
0.0056464
0.00912621
0.023564
0.0214197
0.0173476
0.0378114
0.0671065
0.101873
0.139965
0.178789
0.215779
0.249085
0.277922
0.302353
0.322956
0.340339
0.355058
0.367611
0.378317
0.387403
0.395051
0.401515
0.407176
0.412003
0.416128
0.419811
0.423171
0.426038
0.428642
0.430873
0.432597
0.434345
0.435449
0.435885
0.43527
0.433194
0.426761
0.410445
0.368872
0.283744
0.139345
0.0302306
0.00548887
0.00911887
0.0235135
0.0214045
0.0173342
0.0377662
0.0670123
0.101694
0.13967
0.178416
0.215318
0.248572
0.277401
0.301873
0.322541
0.339966
0.354615
0.367002
0.377576
0.386616
0.394308
0.400801
0.4063
0.411153
0.415305
0.418862
0.42206
0.42498
0.427443
0.429665
0.431534
0.432903
0.434264
0.434922
0.434811
0.433411
0.429883
0.420401
0.397489
0.343902
0.244749
0.10018
0.0197104
0.00545533
0.00906914
0.0235179
0.0213892
0.0173252
0.0377476
0.0669455
0.101565
0.139446
0.178074
0.214912
0.248087
0.276874
0.301335
0.322047
0.339531
0.354227
0.366546
0.376965
0.385877
0.393523
0.400052
0.405582
0.410279
0.414457
0.418041
0.421114
0.423877
0.426395
0.428481
0.430343
0.431859
0.432867
0.43382
0.433987
0.433242
0.430833
0.425324
0.411689
0.380223
0.314018
0.20028
0.0702125
0.0125868
0.00543918
0.00906428
0.023589
0.0213715
0.0173141
0.0377355
0.06692
0.101476
0.139284
0.177811
0.214535
0.247663
0.276377
0.300801
0.321496
0.339023
0.353774
0.366145
0.376499
0.385267
0.392787
0.399267
0.404828
0.409557
0.413585
0.417195
0.420293
0.422936
0.425303
0.427447
0.429177
0.430688
0.43185
0.432485
0.432994
0.432611
0.43109
0.427331
0.419109
0.399874
0.357769
0.279191
0.153384
0.0481078
0.00814155
0.00542454
0.0090863
0.0236681
0.021349
0.0172994
0.037719
0.0669085
0.101448
0.139178
0.177623
0.214247
0.247267
0.275944
0.3003
0.320954
0.338462
0.353253
0.365678
0.376086
0.384794
0.392178
0.398534
0.404042
0.408799
0.412863
0.416327
0.419451
0.422116
0.424367
0.426367
0.428159
0.429544
0.430708
0.431507
0.431743
0.431758
0.43073
0.428214
0.422615
0.410678
0.384057
0.330104
0.238625
0.111778
0.0323363
0.00569322
0.00542363
0.00910701
0.0237806
0.0213226
0.0172782
0.0376927
0.0668884
0.101438
0.139143
0.177499
0.214037
0.246963
0.275539
0.299863
0.32045
0.337918
0.352685
0.365146
0.375606
0.384368
0.391699
0.397926
0.403311
0.408011
0.412102
0.415604
0.418587
0.421278
0.423549
0.425438
0.427096
0.428548
0.429592
0.430402
0.430819
0.430616
0.430072
0.42825
0.424402
0.41628
0.399311
0.363347
0.297828
0.192721
0.079049
0.0210329
0.00455466
0.00541898
0.00911549
0.0239146
0.0212905
0.0172533
0.0376527
0.0668519
0.101417
0.139135
0.177456
0.213897
0.246736
0.275225
0.299451
0.32001
0.337413
0.352139
0.364571
0.375064
0.383876
0.391262
0.397442
0.402704
0.407282
0.411314
0.414843
0.417866
0.420419
0.422714
0.424624
0.426176
0.427504
0.428623
0.429324
0.429765
0.429769
0.429071
0.427866
0.425017
0.419362
0.407783
0.384144
0.337389
0.25973
0.145339
0.0543711
0.013201
0.0041088
0.00540935
0.00912284
0.0240615
0.0212555
0.0172204
0.0376018
0.0667884
0.101372
0.13911
0.177442
0.213837
0.246578
0.274982
0.29913
0.319593
0.33697
0.351632
0.364023
0.374483
0.383326
0.39076
0.396996
0.402216
0.406676
0.410584
0.414054
0.417106
0.419699
0.421861
0.423793
0.425366
0.426599
0.427605
0.428388
0.428733
0.42878
0.428327
0.427062
0.42503
0.42081
0.412681
0.396422
0.364115
0.306422
0.215667
0.104954
0.036239
0.00826227
0.00396369
0.00539268
0.00913179
0.0241995
0.0212136
0.0171822
0.0375321
0.0667072
0.101285
0.139058
0.17741
0.213811
0.246499
0.274809
0.298875
0.319265
0.336551
0.35119
0.363516
0.373933
0.382739
0.390202
0.396487
0.401764
0.406185
0.409979
0.413325
0.416317
0.41894
0.421145
0.422948
0.424541
0.425794
0.426717
0.427402
0.427841
0.42781
0.427427
0.426456
0.424508
0.421397
0.415317
0.403807
0.381196
0.338759
0.270097
0.167319
0.0740482
0.0233311
0.00543038
0.00391335
0.00538569
0.00914389
0.0243409
0.0211686
0.0171387
0.0374512
0.0665933
0.101173
0.138947
0.177343
0.213762
0.246452
0.274706
0.298687
0.319
0.336217
0.350768
0.363072
0.373425
0.382187
0.389611
0.395922
0.401248
0.40573
0.409487
0.41272
0.415587
0.418151
0.420388
0.422236
0.423705
0.424978
0.425922
0.426538
0.426894
0.426971
0.426533
0.425669
0.424099
0.421283
0.416724
0.408107
0.391918
0.361075
0.30843
0.227404
0.122098
0.0505953
0.0145216
0.00400108
0.00389186
0.00537396
0.0091695
0.0245989
0.0211237
0.0170913
0.0373578
0.06646
0.101013
0.138805
0.177212
0.213681
0.246382
0.274637
0.29856
0.318795
0.335941
0.350431
0.36265
0.37298
0.381677
0.389056
0.395327
0.400679
0.405208
0.409029
0.412229
0.414983
0.417422
0.419599
0.421482
0.423
0.424153
0.425115
0.425754
0.42606
0.426074
0.425762
0.424875
0.423464
0.421156
0.417196
0.410659
0.398534
0.376062
0.335769
0.272788
0.17932
0.0863844
0.0331756
0.0088702
0.00339972
0.00387641
0.00538138
0.00923656
0.0247508
0.0210817
0.0170439
0.0372546
0.066305
0.100825
0.138602
0.177042
0.213525
0.246277
0.274541
0.298469
0.318647
0.335723
0.350145
0.36231
0.372558
0.381231
0.388544
0.39477
0.40008
0.404635
0.408505
0.411769
0.414493
0.416819
0.418871
0.420696
0.422251
0.423457
0.424304
0.424961
0.425295
0.425279
0.424926
0.424187
0.422797
0.420734
0.41748
0.411968
0.402714
0.385798
0.355312
0.305487
0.230468
0.131657
0.059753
0.0209812
0.00553738
0.00318683
0.00387212
0.00540974
0.00924991
0.0247783
0.0210399
0.0170005
0.037153
0.0661338
0.100606
0.138364
0.176803
0.213331
0.246099
0.274413
0.298346
0.318533
0.335553
0.349916
0.362017
0.372217
0.38081
0.388096
0.394254
0.39952
0.404033
0.407929
0.411244
0.414033
0.41633
0.418269
0.419969
0.421468
0.422714
0.42362
0.424167
0.424519
0.424538
0.42418
0.423429
0.422214
0.420241
0.417363
0.412847
0.405212
0.392244
0.368971
0.329362
0.269757
0.182384
0.0931234
0.0396096
0.0128684
0.00377334
0.00312005
0.00388214
0.00540915
0.00928086
0.0248103
0.0210054
0.0169599
0.0370609
0.0659637
0.100363
0.138087
0.176526
0.213063
0.245885
0.274211
0.298194
0.318385
0.335417
0.349727
0.361777
0.371918
0.380467
0.387676
0.393806
0.399003
0.403472
0.407326
0.410666
0.413507
0.41587
0.417783
0.419369
0.420742
0.421935
0.422887
0.423499
0.423746
0.423785
0.423472
0.422744
0.42155
0.419798
0.41711
0.413169
0.40694
0.396393
0.378389
0.347062
0.298511
0.227101
0.133587
0.0647423
0.0250846
0.00775477
0.00299862
0.00310719
0.00387693
0.0054015
0.00934444
0.0248389
0.0209742
0.0169252
0.0369729
0.0658094
0.100121
0.13778
0.176203
0.21276
0.245597
0.273979
0.29797
0.318209
0.335246
0.349568
0.361571
0.371668
0.380162
0.387332
0.393385
0.398552
0.402954
0.406762
0.410062
0.412928
0.415345
0.417323
0.418885
0.420146
0.421214
0.422116
0.42278
0.423098
0.423039
0.42275
0.422079
0.420943
0.419251
0.416855
0.413257
0.407888
0.399316
0.384786
0.360137
0.319976
0.261793
0.178663
0.0938472
0.0431286
0.0153574
0.00477376
0.00273121
0.00309789
0.00386627
0.00540777
0.00941896
0.0248647
0.0209468
0.0168954
0.0368982
0.0656638
0.099905
0.137473
0.175846
0.212408
0.245278
0.273675
0.297722
0.317965
0.335046
0.349374
0.361392
0.371447
0.379906
0.387022
0.393041
0.398131
0.402501
0.406242
0.409498
0.412324
0.414766
0.416798
0.418426
0.419664
0.420621
0.421399
0.42202
0.422397
0.422415
0.422037
0.421396
0.420333
0.418739
0.416465
0.413265
0.408462
0.401151
0.389365
0.369469
0.336728
0.288075
0.217826
0.129788
0.0650708
0.0273409
0.00916127
0.00323436
0.0026513
0.00308692
0.00385827
0.00541861
0.00948801
0.0248879
0.0209227
0.0168702
0.0368357
0.0655392
0.0996969
0.137199
0.175492
0.212023
0.244911
0.273347
0.297406
0.317703
0.334785
0.349155
0.361178
0.371252
0.379674
0.38676
0.392728
0.397787
0.402079
0.405789
0.408976
0.41176
0.414162
0.41622
0.417903
0.419208
0.420143
0.420811
0.421309
0.421651
0.421737
0.421443
0.420724
0.419703
0.418202
0.416081
0.413091
0.408843
0.402415
0.392443
0.376283
0.349415
0.308264
0.249727
0.168123
0.0902381
0.0432056
0.0166409
0.00545474
0.00258653
0.00262565
0.00307497
0.00385932
0.00544369
0.00957426
0.0249086
0.0209023
0.0168486
0.0367829
0.0654328
0.0995179
0.136937
0.175179
0.211643
0.244514
0.272976
0.297074
0.317376
0.33451
0.348876
0.360938
0.371019
0.379464
0.386519
0.39246
0.397473
0.401735
0.405366
0.408522
0.411237
0.413598
0.415618
0.417327
0.418688
0.41969
0.420337
0.420727
0.42095
0.42101
0.420794
0.42017
0.419082
0.417636
0.415641
0.412882
0.40897
0.40332
0.394679
0.381065
0.359092
0.324254
0.274776
0.203765
0.120051
0.0619589
0.0271929
0.00983076
0.00343988
0.00236755
0.00261217
0.00306823
0.00386642
0.0054716
0.00968538
0.0249279
0.0208855
0.0168321
0.0367392
0.0653463
0.0993693
0.136711
0.174877
0.21131
0.244128
0.27258
0.296701
0.317039
0.334174
0.34859
0.360643
0.370763
0.379214
0.386297
0.392212
0.397199
0.40142
0.405021
0.408099
0.410781
0.413075
0.415055
0.416728
0.418116
0.419174
0.419887
0.420259
0.420375
0.420322
0.420091
0.419556
0.418574
0.417078
0.415159
0.412574
0.409006
0.403872
0.396323
0.384648
0.366117
0.336843
0.294269
0.234127
0.152937
0.0826483
0.0406406
0.0163862
0.00574433
0.00251261
0.00230355
0.00260406
0.00306555
0.003875
0.00554201
0.00969355
0.0249458
0.0208717
0.0168178
0.0367039
0.0652739
0.0992454
0.13652
0.174615
0.210986
0.24379
0.272197
0.296312
0.316669
0.333835
0.348245
0.360347
0.370452
0.378942
0.386033
0.39198
0.396945
0.401143
0.404705
0.407753
0.410358
0.412617
0.414532
0.416168
0.41752
0.418607
0.419378
0.419813
0.419912
0.419756
0.41942
0.418885
0.418004
0.416629
0.414679
0.412206
0.408884
0.404251
0.397471
0.387329
0.37153
0.346569
0.309517
0.258432
0.185788
0.106869
0.0560021
0.0251625
0.00957785
0.00348844
0.00217707
0.00228633
0.00259762
0.00306745
0.00390898
0.00556453
0.00971262
0.0249626
0.0208621
0.0168091
0.0366766
0.0652166
0.0991428
0.136365
0.174395
0.210706
0.24346
0.271864
0.295938
0.316286
0.333466
0.347905
0.359996
0.370146
0.378618
0.385745
0.391704
0.396705
0.400884
0.404427
0.407436
0.410011
0.412194
0.414074
0.415644
0.416964
0.418018
0.418818
0.419311
0.419473
0.419302
0.418867
0.418235
0.417373
0.416114
0.414302
0.411831
0.408675
0.404396
0.398333
0.389312
0.37563
0.354349
0.321976
0.277448
0.214752
0.134622
0.0730339
0.0359048
0.0149326
0.00552172
0.00241968
0.00207791
0.00228188
0.0025944
0.00308253
0.0039131
0.00560018
0.00972674
0.0249788
0.0208565
0.0168042
0.0366613
0.0651709
0.0990602
0.136235
0.174216
0.210472
0.243179
0.271541
0.295614
0.31592
0.333091
0.347538
0.359654
0.36979
0.378302
0.38541
0.391404
0.39642
0.400639
0.404165
0.407155
0.409694
0.411845
0.41365
0.415187
0.416442
0.417465
0.418236
0.418761
0.418981
0.41887
0.418422
0.417699
0.416752
0.415531
0.413852
0.411545
0.40844
0.404413
0.398859
0.390852
0.378767
0.360318
0.332196
0.292609
0.238301
0.164301
0.0920538
0.0485508
0.0217568
0.00859233
0.00329807
0.00202054
0.00205396
0.00228118
0.00259957
0.00308852
0.0039261
0.00564691
0.00973582
0.0249952
0.0208499
0.0168024
0.0366534
0.0651457
0.0989972
0.13613
0.174064
0.210279
0.242941
0.271266
0.2953
0.315606
0.332734
0.347171
0.359289
0.369444
0.377941
0.385086
0.391058
0.39611
0.400346
0.403916
0.406893
0.409411
0.411527
0.4133
0.414761
0.415984
0.416946
0.417691
0.418189
0.418442
0.418389
0.418
0.417265
0.416236
0.414947
0.41333
0.411176
0.408276
0.404375
0.399197
0.391917
0.38125
0.365014
0.340373
0.305027
0.257474
0.190704
0.11482
0.0623848
0.0302613
0.0126598
0.00488811
0.00225231
0.00190462
0.002049
0.00228556
0.00259839
0.00309487
0.0039508
0.00568626
0.00974305
0.025011
0.0208468
0.0168011
0.0366524
0.0651346
0.0989638
0.136049
0.173941
0.210114
0.242744
0.271033
0.295038
0.315303
0.33243
0.346825
0.358928
0.369081
0.377592
0.384718
0.390726
0.395755
0.400027
0.403618
0.406642
0.409147
0.411243
0.412981
0.41441
0.415558
0.416489
0.417175
0.417652
0.417883
0.417865
0.417534
0.416856
0.415818
0.41446
0.412793
0.410728
0.408014
0.404375
0.399436
0.392711
0.383075
0.368785
0.347062
0.315435
0.273157
0.214231
0.138614
0.077294
0.0403081
0.0178976
0.00715737
0.00291132
0.00186887
0.00187599
0.00205526
0.00228482
0.00259982
0.00310335
0.00398954
0.00569577
0.00974902
0.0250268
0.0208434
0.0168018
0.0366529
0.0651333
0.0989465
0.136004
0.173846
0.20998
0.242575
0.270838
0.294814
0.315052
0.332138
0.34653
0.35859
0.368724
0.377229
0.384366
0.390352
0.395417
0.399666
0.403293
0.406341
0.408895
0.410979
0.412696
0.414092
0.415206
0.416064
0.41672
0.417142
0.417357
0.417321
0.417028
0.416408
0.415425
0.414062
0.412342
0.410249
0.407663
0.404258
0.399663
0.393336
0.384512
0.371658
0.352527
0.324194
0.285824
0.23393
0.163404
0.0938512
0.0512717
0.0243602
0.0101864
0.00403588
0.00202368
0.0017607
0.00187505
0.00205746
0.00228194
0.00260244
0.00311946
0.00401419
0.0057028
0.0097547
0.0250421
0.0208377
0.0168023
0.0366562
0.0651358
0.0989445
0.135983
0.173793
0.209873
0.242431
0.270666
0.294622
0.314836
0.331899
0.346247
0.358305
0.368392
0.376877
0.384003
0.389998
0.395038
0.399323
0.402927
0.406012
0.408592
0.410726
0.412432
0.413806
0.414888
0.41571
0.416296
0.416691
0.416855
0.416809
0.416502
0.415922
0.414999
0.413689
0.411969
0.409842
0.407262
0.404036
0.399743
0.393882
0.38568
0.373984
0.356796
0.33151
0.296486
0.250077
0.185777
0.112882
0.0628394
0.0318799
0.0140277
0.00565631
0.00244732
0.0017189
0.00174003
0.00187672
0.00205701
0.00227733
0.00261343
0.00313354
0.00404391
0.00570715
0.00976026
0.0250578
0.0208391
0.0168008
0.0366589
0.0651418
0.0989485
0.135978
0.173763
0.20981
0.242318
0.270521
0.294451
0.31465
0.331693
0.346022
0.358033
0.368117
0.376549
0.383654
0.389634
0.39468
0.39894
0.402581
0.405643
0.40826
0.410423
0.412179
0.413541
0.414601
0.415392
0.415941
0.416268
0.416408
0.416317
0.416006
0.415419
0.414538
0.413289
0.411622
0.409503
0.406916
0.403743
0.3997
0.394235
0.386668
0.375907
0.360327
0.337484
0.305563
0.263652
0.205666
0.133065
0.0748842
0.0402751
0.0186408
0.00779552
0.0031895
0.00178932
0.00164209
0.00173889
0.00187931
0.00205611
0.00228227
0.00262417
0.00315929
0.00405839
0.00571006
0.00976597
0.0250731
0.0208315
0.0168059
0.0366572
0.0651464
0.0989565
0.135982
0.173753
0.20977
0.242246
0.270404
0.294305
0.314478
0.331511
0.345825
0.357817
0.367857
0.376282
0.383332
0.389287
0.394315
0.39858
0.402192
0.405292
0.407889
0.410089
0.411875
0.413289
0.414336
0.415105
0.415623
0.415913
0.415988
0.415877
0.415527
0.414944
0.414062
0.41286
0.411255
0.40919
0.406622
0.403483
0.399558
0.394438
0.387402
0.377517
0.363282
0.342572
0.31328
0.274946
0.222891
0.153466
0.0884029
0.0490401
0.0240101
0.0104343
0.00426589
0.00202199
0.00158759
0.00162854
0.00174147
0.00188116
0.00205341
0.00228574
0.00264199
0.00318098
0.00406316
0.00571277
0.00977188
0.0250871
0.0208222
0.0167958
0.036673
0.0651459
0.0989624
0.135989
0.17375
0.209751
0.242196
0.270323
0.294185
0.314332
0.331342
0.345649
0.35763
0.367649
0.376032
0.383071
0.388968
0.393968
0.398212
0.401828
0.404902
0.407535
0.409716
0.411541
0.412986
0.414085
0.41484
0.415336
0.415595
0.415633
0.415462
0.415097
0.414482
0.413611
0.412415
0.410862
0.408862
0.406353
0.403252
0.399422
0.394509
0.387946
0.378783
0.36574
0.34688
0.319991
0.284418
0.237377
0.172919
0.10362
0.0582478
0.0299818
0.0135758
0.00566406
0.00245464
0.00159494
0.00154162
0.00162876
0.00174381
0.00188318
0.00205186
0.0022951
0.0026467
0.00320145
0.00406544
0.0057157
0.00977818
0.0251015
0.0208129
0.0167882
0.0366477
0.0651701
0.0989601
0.135993
0.173754
0.209743
0.242167
0.27026
0.294097
0.314209
0.331195
0.345481
0.35746
0.367469
0.375833
0.382829
0.388711
0.393652
0.397865
0.40146
0.404536
0.407141
0.409359
0.411167
0.412653
0.413784
0.414591
0.415071
0.415308
0.415316
0.415108
0.414688
0.414063
0.413169
0.411993
0.410454
0.408515
0.406072
0.403044
0.399285
0.394549
0.388312
0.379797
0.367736
0.350459
0.325771
0.292628
0.249591
0.190332
0.120221
0.067884
0.0365465
0.0171805
0.00738218
0.00309614
0.00168916
0.00148066
0.00153512
0.00163032
0.00174677
0.00188393
0.00205339
0.00229755
0.00266778
0.00321107
0.00406711
0.00571887
0.00978461
0.0251148
0.0208031
0.0167805
0.0366309
0.0651272
0.0989973
0.135988
0.173753
0.209736
0.242145
0.27022
0.294024
0.314115
0.331071
0.345335
0.357295
0.367304
0.375659
0.382638
0.388476
0.393399
0.397549
0.401112
0.404165
0.406774
0.408964
0.410809
0.412279
0.413452
0.414293
0.414824
0.415044
0.41503
0.414792
0.414337
0.413663
0.412765
0.411575
0.410066
0.40815
0.405777
0.402825
0.399161
0.394552
0.388601
0.380575
0.369398
0.353434
0.330678
0.299784
0.260122
0.205892
0.136602
0.0782005
0.0434989
0.0212678
0.00940655
0.00394496
0.00189489
0.0014516
0.00145881
0.0015367
0.00163341
0.00175027
0.00188227
0.00205824
0.00231259
0.00268444
0.00321338
0.00406916
0.00572236
0.00979161
0.0251279
0.0207921
0.0167723
0.0366135
0.0650971
0.0989313
0.136035
0.173741
0.209724
0.242126
0.270187
0.293973
0.314035
0.330971
0.34521
0.35715
0.367145
0.3755
0.382469
0.388292
0.393169
0.397297
0.400797
0.403817
0.406402
0.408595
0.410412
0.411919
0.41308
0.413962
0.414529
0.4148
0.414766
0.414506
0.414023
0.413316
0.41238
0.411192
0.409679
0.407802
0.405463
0.402596
0.399025
0.39455
0.388808
0.381207
0.370745
0.355972
0.334894
0.306045
0.269149
0.219424
0.153227
0.0895041
0.0506288
0.025799
0.0117405
0.00499151
0.00222724
0.00146443
0.00139797
0.00145762
0.00154032
0.00163806
0.00175254
0.00188474
0.00206796
0.00232728
0.00269743
0.00321409
0.00407162
0.00572632
0.00979895
0.0251404
0.0207831
0.016763
0.0365948
0.0650653
0.0988852
0.135943
0.173792
0.209702
0.242101
0.270154
0.293928
0.313971
0.330882
0.345106
0.357022
0.367
0.375343
0.382315
0.388128
0.392989
0.39707
0.400545
0.403501
0.406053
0.408222
0.410042
0.411523
0.412721
0.413594
0.414204
0.414507
0.414524
0.414243
0.413738
0.413005
0.412039
0.410822
0.40932
0.407451
0.405164
0.402345
0.398881
0.394528
0.388984
0.38171
0.37186
0.358095
0.33858
0.311555
0.276824
0.231144
0.168748
0.101867
0.0579421
0.0306847
0.0143657
0.00622932
0.00268779
0.00153196
0.00135443
0.00139006
0.00146072
0.00154534
0.00164179
0.00175313
0.00188493
0.00207999
0.00234157
0.00269985
0.00321532
0.00407458
0.0057306
0.00980683
0.0251533
0.0207725
0.0167528
0.0365727
0.0650316
0.0988363
0.135879
0.173674
0.209751
0.242064
0.270112
0.293881
0.313915
0.330811
0.345011
0.356916
0.366871
0.375201
0.382162
0.387978
0.39283
0.396896
0.40032
0.403248
0.405735
0.407871
0.409668
0.411153
0.412324
0.413237
0.413839
0.414187
0.414236
0.414004
0.413477
0.412723
0.411733
0.41049
0.408969
0.407122
0.404854
0.402103
0.398711
0.394498
0.389124
0.382144
0.372775
0.359872
0.341718
0.316444
0.28359
0.241137
0.183013
0.115044
0.0653989
0.0358606
0.0172583
0.00764221
0.00327016
0.00166512
0.00133023
0.00133398
0.00139175
0.00146479
0.00154686
0.0016453
0.00174681
0.00189183
0.00208256
0.00235464
0.00269967
0.00321732
0.00407789
0.0057354
0.00981511
0.0251662
0.0207625
0.0167435
0.0365516
0.0649938
0.0987841
0.135813
0.173593
0.209607
0.242107
0.270062
0.293823
0.313855
0.330742
0.344931
0.356817
0.366761
0.375073
0.382021
0.387829
0.392684
0.396741
0.400148
0.403024
0.405481
0.407553
0.409317
0.410778
0.411956
0.412842
0.413485
0.413829
0.413923
0.413722
0.413241
0.412462
0.411453
0.410191
0.40865
0.406795
0.404562
0.401844
0.398543
0.394435
0.389249
0.382514
0.373577
0.361349
0.344367
0.320712
0.289592
0.249907
0.195769
0.128317
0.0732831
0.0411459
0.0204165
0.00921825
0.00395991
0.00186932
0.00132894
0.00128788
0.00133323
0.00139531
0.00146743
0.00154962
0.00163758
0.00174867
0.00189499
0.00210299
0.00235722
0.00270019
0.00321989
0.00408155
0.00574064
0.00982405
0.0251799
0.0207498
0.0167319
0.0365259
0.0649515
0.0987247
0.135739
0.173505
0.209507
0.24194
0.270096
0.293761
0.313785
0.330671
0.344852
0.356731
0.366658
0.374959
0.381894
0.387691
0.392539
0.396599
0.399997
0.402854
0.405258
0.407298
0.408998
0.410427
0.411581
0.412475
0.413093
0.413479
0.413572
0.413417
0.412965
0.41223
0.411195
0.409916
0.40836
0.406492
0.404266
0.401596
0.39835
0.394366
0.389329
0.382852
0.374273
0.362657
0.346597
0.324393
0.294914
0.257647
0.207254
0.14128
0.0818673
0.0464747
0.0238056
0.0109582
0.00474801
0.0021411
0.00135545
0.00125128
0.00128272
0.00133663
0.00139974
0.00147131
0.00154864
0.00164155
0.00175425
0.00191104
0.00210775
0.00235685
0.00270183
0.00322284
0.00408556
0.00574648
0.00983355
0.0251942
0.0207365
0.0167196
0.0365014
0.0649083
0.098664
0.135662
0.173416
0.209405
0.241826
0.26991
0.293784
0.313708
0.330588
0.34477
0.356643
0.366569
0.374853
0.381781
0.387566
0.392403
0.396456
0.399858
0.402705
0.40509
0.407075
0.408742
0.410107
0.41123
0.412102
0.412729
0.413092
0.413229
0.413075
0.412668
0.411961
0.410967
0.409662
0.408093
0.406217
0.403985
0.401337
0.398161
0.39426
0.389392
0.383126
0.374907
0.363809
0.348584
0.327559
0.299626
0.264445
0.217417
0.154186
0.091117
0.0519268
0.0273648
0.0128695
0.00563407
0.0024761
0.00141294
0.00122449
0.00123909
0.00128551
0.00134114
0.0014047
0.00147578
0.00155489
0.00164435
0.00176409
0.00191123
0.00211389
0.00235672
0.00270419
0.00322613
0.00409001
0.00575284
0.0098437
0.0252105
0.0207243
0.0167059
0.0364715
0.0648601
0.0985938
0.135575
0.173316
0.209299
0.241708
0.269779
0.293581
0.313721
0.330501
0.344677
0.356552
0.366475
0.374762
0.381672
0.387452
0.392279
0.396323
0.399717
0.402568
0.404942
0.406907
0.408519
0.40985
0.410911
0.411752
0.412359
0.412733
0.412847
0.412739
0.412337
0.411675
0.410706
0.409439
0.407845
0.40596
0.403728
0.401086
0.39795
0.394148
0.389405
0.383366
0.375448
0.364858
0.350357
0.330417
0.30377
0.270323