/*--------------------------------*- C++ -*----------------------------------*\
| =========                 |                                                 |
| \\      /  F ield         | OpenFOAM: The Open Source CFD Toolbox           |
|  \\    /   O peration     | Version:  v2012                                 |
|   \\  /    A nd           | Website:  www.openfoam.com                      |
|    \\/     M anipulation  |                                                 |
\*---------------------------------------------------------------------------*/
FoamFile
{
    version     2.0;
    format      ascii;
    class       volVectorField;
    location    "3800";
    object      U;
}
// * * * * * * * * * * * * * * * * * * * * * * * * * * * * * * * * * * * * * //

dimensions      [0 1 -1 0 0 0 0];


internalField   nonuniform List<vector> 
29502
(
(141.77 1.52935 0)
(27.2193 0.00543446 0)
(392.725 4.69427 0)
(28.8262 -0.000266073 0)
(79.1601 0.0120611 0)
(535.574 8.003 0)
(31.4266 -0.000460544 0)
(84.2659 -0.000128446 0)
(129.56 0.0312365 0)
(649.633 11.2393 0)
(33.0267 -0.000626912 0)
(91.7232 -0.00281118 0)
(138.673 -0.000186989 0)
(179 0.0585931 0)
(744.979 14.3467 0)
(33.8378 0.000649927 0)
(96.2634 -0.00187175 0)
(150.899 -0.00831778 0)
(192.556 -0.00265807 0)
(227.936 0.112849 0)
(826.335 17.0977 0)
(34.188 0.000955713 0)
(98.4724 -0.000215048 0)
(158.093 -0.00447131 0)
(209.475 -0.0169285 0)
(246.16 -0.0088297 0)
(276.749 0.181986 0)
(896.762 19.6188 0)
(34.3205 -0.00026302 0)
(99.365 -6.67036e-05 0)
(161.469 -0.0027405 0)
(219.158 -0.00915514 0)
(267.574 -0.0294458 0)
(299.354 -0.0207586 0)
(325.748 0.300792 0)
(958.377 21.8758 0)
(34.2891 -0.000559903 0)
(99.681 -0.000803597 0)
(162.652 -0.00218083 0)
(223.563 -0.00571878 0)
(279.583 -0.0160958 0)
(324.749 -0.0463736 0)
(351.658 -0.0375041 0)
(375.2 0.410523 0)
(1012.74 23.9548 0)
(34.1813 -0.000669036 0)
(99.5128 -0.00137107 0)
(162.935 -0.00150972 0)
(224.889 -0.00413516 0)
(284.904 -0.00996265 0)
(338.808 -0.0252077 0)
(380.085 -0.0682278 0)
(402.457 -0.0586526 0)
(425.331 0.59285 0)
(1061.03 25.8299 0)
(33.9975 -0.000958666 0)
(99.18 -0.00133343 0)
(162.478 -0.00214384 0)
(225.021 -0.00283899 0)
(286.283 -0.00664355 0)
(344.903 -0.0155597 0)
(395.759 -0.036786 0)
(432.644 -0.0953366 0)
(451.305 -0.0809462 0)
(476.316 0.732196 0)
(1104.16 27.5237 0)
(33.8251 -0.00119568 0)
(98.6276 -0.00161328 0)
(161.793 -0.00175932 0)
(224.187 -0.00320578 0)
(286.21 -0.00516124 0)
(346.276 -0.0107514 0)
(402.444 -0.0226475 0)
(449.395 -0.0508223 0)
(481.865 -0.127621 0)
(498.138 -0.102405 0)
(528.319 0.961295 0)
(1142.87 29.051 0)
(33.6654 -0.00111603 0)
(98.1083 -0.00232703 0)
(160.818 -0.00195352 0)
(223.092 -0.00199593 0)
(284.959 -0.00508059 0)
(345.988 -0.00823754 0)
(403.768 -0.0156948 0)
(456.461 -0.0312432 0)
(499.151 -0.0673318 0)
(527.674 -0.165464 0)
(543.371 -0.120324 0)
(581.45 1.15299 0)
(1177.71 30.4286 0)
(33.5027 -0.00122529 0)
(97.6284 -0.00259938 0)
(159.909 -0.00307358 0)
(221.663 -0.00222329 0)
(283.433 -0.00191565 0)
(344.328 -0.00689147 0)
(403.288 -0.0109898 0)
(457.704 -0.0205624 0)
(506.401 -0.0413026 0)
(545.007 -0.0863694 0)
(570.587 -0.208087 0)
(587.412 -0.134618 0)
(635.805 1.41135 0)
(1209.14 31.6697 0)
(33.2915 -0.00066323 0)
(97.1444 -0.00279986 0)
(159.074 -0.00374613 0)
(220.345 -0.00405334 0)
(281.552 -0.00295159 0)
(342.401 -0.00279889 0)
(401.271 -0.00829721 0)
(457.072 -0.0139306 0)
(507.539 -0.0262989 0)
(552.297 -0.0528537 0)
(587.523 -0.107976 0)
(611.184 -0.254951 0)
(630.431 -0.146461 0)
(691.385 1.68051 0)
(1237.57 32.7888 0)
(33.1167 -0.000742058 0)
(96.5345 -0.00150223 0)
(158.246 -0.00393762 0)
(219.134 -0.00509685 0)
(279.821 -0.0050982 0)
(340.098 -0.004354 0)
(399.012 -0.00415652 0)
(454.77 -0.0103253 0)
(506.792 -0.0178214 0)
(553.312 -0.0334133 0)
(594.715 -0.0659262 0)
(627.268 -0.132302 0)
(649.786 -0.302888 0)
(672.632 -0.159331 0)
(748.098 1.9948 0)
(1263.34 33.7978 0)
(32.9493 -0.000988116 0)
(96.0301 -0.00148802 0)
(157.231 -0.00215409 0)
(217.949 -0.0052189 0)
(278.237 -0.00661187 0)
(337.987 -0.00624134 0)
(396.353 -0.00555954 0)
(452.26 -0.00504453 0)
(504.272 -0.0129092 0)
(552.471 -0.0224115 0)
(595.584 -0.0415335 0)
(634.211 -0.0806151 0)
(664.556 -0.159327 0)
(686.652 -0.349519 0)
(714.226 -0.172109 0)
(805.754 2.3493 0)
(1286.71 34.7131 0)
(32.7906 -0.00124097 0)
(95.5441 -0.00218703 0)
(156.394 -0.00212284 0)
(216.529 -0.00286373 0)
(276.698 -0.00656868 0)
(336.051 -0.00829976 0)
(393.919 -0.0071929 0)
(449.324 -0.0065757 0)
(501.586 -0.005919 0)
(549.776 -0.0156562 0)
(594.664 -0.0275029 0)
(634.905 -0.0508124 0)
(671.095 -0.096921 0)
(699.672 -0.18922 0)
(722.031 -0.39419 0)
(755.334 -0.179937 0)
(863.988 2.7478 0)
(1307.94 35.5402 0)
(32.6489 -0.00040058 0)
(95.0864 -0.002922 0)
(155.592 -0.00311052 0)
(215.36 -0.00303714 0)
(274.883 -0.00363289 0)
(334.179 -0.00802785 0)
(391.673 -0.0101052 0)
(446.636 -0.00832045 0)
(498.443 -0.0076296 0)
(546.955 -0.00684552 0)
(591.823 -0.0187273 0)
(633.908 -0.0332596 0)
(671.575 -0.0613019 0)
(705.65 -0.114961 0)
(732.909 -0.221879 0)
(756.157 -0.434573 0)
(796.22 -0.164905 0)
(922.527 3.19764 0)
(1327.26 36.2719 0)
(32.4984 0.000649721 0)
(94.6818 -0.0012413 0)
(154.841 -0.00420916 0)
(214.245 -0.00422402 0)
(273.392 -0.00409678 0)
(332.005 -0.00444471 0)
(389.518 -0.0095742 0)
(444.136 -0.0120023 0)
(495.562 -0.0101729 0)
(543.654 -0.0086284 0)
(588.896 -0.0078194 0)
(630.947 -0.0220633 0)
(670.497 -0.0396454 0)
(705.875 -0.0730596 0)
(738.157 -0.134703 0)
(764.56 -0.25829 0)
(789.249 -0.475537 0)
(837.276 -0.129381 0)
(980.646 3.71263 0)
(1344.84 36.9153 0)
(32.3583 -0.000196992 0)
(94.2557 0.000484224 0)
(154.182 -0.00215621 0)
(213.205 -0.00572687 0)
(271.973 -0.0054951 0)
(330.219 -0.00533061 0)
(387.045 -0.00524612 0)
(441.758 -0.0111983 0)
(492.862 -0.0139508 0)
(540.627 -0.0122058 0)
(585.468 -0.00955639 0)
(627.942 -0.0088103 0)
(667.43 -0.0256565 0)
(704.695 -0.0466456 0)
(738.081 -0.0861529 0)
(768.893 -0.156401 0)
(794.91 -0.297782 0)
(821.582 -0.519146 0)
(878.784 -0.0739221 0)
(1037.6 4.29559 0)
(1360.85 37.4669 0)
(32.2321 -0.00147835 0)
(93.86 -0.000779084 0)
(153.494 -0.000412958 0)
(212.297 -0.00332012 0)
(270.654 -0.00739028 0)
(328.52 -0.00691136 0)
(385.003 -0.00669899 0)
(439.052 -0.00600201 0)
(490.312 -0.012856 0)
(537.77 -0.0158821 0)
(582.319 -0.0140904 0)
(624.409 -0.0103827 0)
(664.36 -0.00976936 0)
(701.527 -0.0294926 0)
(736.77 -0.0542398 0)
(768.457 -0.100492 0)
(798.111 -0.180186 0)
(824.204 -0.337758 0)
(853.461 -0.556792 0)
(920.879 0.010955 0)
(1092.59 4.94506 0)
(1375.43 37.925 0)
(32.1141 -0.00185553 0)
(93.5041 -0.00295607 0)
(152.86 -0.00160965 0)
(211.357 -0.0010577 0)
(269.508 -0.0046157 0)
(326.946 -0.00921636 0)
(383.065 -0.00840236 0)
(436.806 -0.00812526 0)
(487.437 -0.00662096 0)
(535.09 -0.0145128 0)
(579.327 -0.0177756 0)
(621.157 -0.0158521 0)
(660.747 -0.0110618 0)
(698.402 -0.0106889 0)
(733.493 -0.0335688 0)
(766.975 -0.0623995 0)
(797.246 -0.115942 0)
(826.052 -0.205969 0)
(852.658 -0.3778 0)
(885.188 -0.583791 0)
(963.529 0.131805 0)
(1144.77 5.66525 0)
(1388.72 38.284 0)
(31.9995 -0.00218912 0)
(93.1685 -0.00362005 0)
(152.29 -0.00357668 0)
(210.495 -0.00264427 0)
(268.328 -0.00177528 0)
(325.578 -0.00607072 0)
(381.27 -0.01115 0)
(434.675 -0.00992498 0)
(485.033 -0.00954776 0)
(532.089 -0.00708524 0)
(576.537 -0.0161532 0)
(618.044 -0.0195699 0)
(657.407 -0.0172875 0)
(694.72 -0.011552 0)
(730.314 -0.0115353 0)
(763.579 -0.0378606 0)
(795.539 -0.0710252 0)
(824.668 -0.132383 0)
(852.948 -0.23388 0)
(880.486 -0.419438 0)
(917.033 -0.596933 0)
(1006.41 0.300965 0)
(1193.3 6.45458 0)
(1400.81 38.5339 0)
(31.9059 -0.00219801 0)
(92.8457 -0.0046339 0)
(151.752 -0.00467709 0)
(209.722 -0.00492014 0)
(267.251 -0.00387934 0)
(324.178 -0.00258719 0)
(379.71 -0.00762163 0)
(432.705 -0.0131307 0)
(482.756 -0.0114156 0)
(529.565 -0.0109078 0)
(573.438 -0.00737961 0)
(615.165 -0.0177119 0)
(654.195 -0.0212122 0)
(691.31 -0.0184928 0)
(726.574 -0.0118812 0)
(760.336 -0.0122935 0)
(792.006 -0.0423624 0)
(822.673 -0.0801833 0)
(850.924 -0.149249 0)
(879.013 -0.262939 0)
(907.927 -0.465224 0)
(949.256 -0.568549 0)
(1048.86 0.544006 0)
(1237.53 7.3148 0)
(1411.81 38.6759 0)
(31.8099 -0.0015034 0)
(92.5811 -0.00504046 0)
(151.238 -0.00629681 0)
(208.994 -0.00612665 0)
(266.286 -0.00693077 0)
(322.909 -0.00527864 0)
(378.124 -0.00341619 0)
(430.988 -0.00923035 0)
(480.648 -0.015089 0)
(527.177 -0.0128115 0)
(570.808 -0.0121624 0)
(611.978 -0.00751628 0)
(651.24 -0.019209 0)
(688.01 -0.0226827 0)
(723.1 -0.0194383 0)
(756.541 -0.0119534 0)
(788.688 -0.0129558 0)
(818.979 -0.0470541 0)
(848.577 -0.0900398 0)
(876.199 -0.166799 0)
(904.446 -0.292428 0)
(935.222 -0.513875 0)
(982.12 -0.518062 0)
(1090.28 0.891873 0)
(1276.95 8.23568 0)
(1421.8 38.6936 0)
(31.7005 -0.000425692 0)
(92.3121 -0.0036608 0)
(150.818 -0.00709441 0)
(208.297 -0.0083179 0)
(265.376 -0.00797688 0)
(321.769 -0.00908022 0)
(376.693 -0.00678639 0)
(429.254 -0.00424854 0)
(478.805 -0.0108349 0)
(524.963 -0.0169583 0)
(568.322 -0.0140653 0)
(609.257 -0.0132486 0)
(647.985 -0.00705256 0)
(684.994 -0.0206427 0)
(719.721 -0.023956 0)
(753.004 -0.0200458 0)
(784.832 -0.011644 0)
(815.57 -0.0134471 0)
(844.688 -0.051882 0)
(873.432 -0.100535 0)
(900.675 -0.185495 0)
(929.436 -0.32182 0)
(962.609 -0.56022 0)
(1015.9 -0.453308 0)
(1131.3 1.37214 0)
(1311.39 9.2146 0)
(1430.85 38.5697 0)
(31.5871 0.000218465 0)
(92.0082 -0.00136692 0)
(150.393 -0.00529894 0)
(207.732 -0.00953914 0)
(264.508 -0.0107219 0)
(320.691 -0.0103803 0)
(375.401 -0.011426 0)
(427.693 -0.00835668 0)
(476.957 -0.00504528 0)
(523.017 -0.0123737 0)
(566.017 -0.0186983 0)
(606.688 -0.0151014 0)
(645.193 -0.014101 0)
(681.686 -0.00607515 0)
(716.651 -0.0218626 0)
(749.555 -0.0249905 0)
(781.235 -0.0203241 0)
(811.646 -0.0109725 0)
(841.162 -0.0137557 0)
(869.305 -0.056774 0)
(897.407 -0.111495 0)
(924.525 -0.204728 0)
(954.17 -0.350437 0)
(990.332 -0.593956 0)
(1050.86 -0.370458 0)
(1172.72 2.02187 0)
(1340.95 10.2521 0)
(1439.04 38.3057 0)
(31.4866 0.00103178 0)
(91.6953 0.000110897 0)
(149.915 -0.00227247 0)
(207.162 -0.00733842 0)
(263.805 -0.0122231 0)
(319.668 -0.0135212 0)
(374.181 -0.0131112 0)
(426.275 -0.0139061 0)
(475.293 -0.00992667 0)
(521.083 -0.00576685 0)
(563.985 -0.0138127 0)
(604.301 -0.0202409 0)
(642.554 -0.0158485 0)
(678.832 -0.0147121 0)
(713.301 -0.00478274 0)
(746.432 -0.0227549 0)
(777.719 -0.0257261 0)
(807.984 -0.0201123 0)
(837.159 -0.00981381 0)
(865.631 -0.0136239 0)
(892.987 -0.0616089 0)
(920.659 -0.122662 0)
(947.915 -0.224 0)
(978.838 -0.376989 0)
(1018.64 -0.610625 0)
(1087.25 -0.26101 0)
(1214.19 2.87014 0)
(1365.97 11.3465 0)
(1446.44 37.8579 0)
(31.4094 0.00145526 0)
(91.4205 0.00135286 0)
(149.427 -0.000609142 0)
(206.524 -0.00349326 0)
(263.101 -0.00952681 0)
(318.841 -0.01518 0)
(373.027 -0.0165035 0)
(424.938 -0.0159329 0)
(473.777 -0.0164313 0)
(519.343 -0.0114431 0)
(561.977 -0.00638255 0)
(602.189 -0.0151035 0)
(640.099 -0.0215134 0)
(676.132 -0.0162897 0)
(710.395 -0.0149417 0)
(743.044 -0.0030444 0)
(774.545 -0.0232793 0)
(804.402 -0.0261121 0)
(833.428 -0.0193273 0)
(861.533 -0.00809608 0)
(889.13 -0.012993 0)
(915.883 -0.0661806 0)
(943.336 -0.133802 0)
(971.007 -0.242492 0)
(1003.63 -0.399704 0)
(1047.77 -0.59024 0)
(1125.12 -0.111006 0)
(1255.17 3.93611 0)
(1386.98 12.5053 0)
(1453.11 37.1951 0)
(31.3466 0.000411719 0)
(91.2102 0.00144085 0)
(149.002 0.000445795 0)
(205.876 -0.00151595 0)
(262.315 -0.00475804 0)
(318.016 -0.0119151 0)
(372.094 -0.0183376 0)
(423.676 -0.0196244 0)
(472.347 -0.0188179 0)
(517.743 -0.0189461 0)
(560.169 -0.0128866 0)
(600.117 -0.00683599 0)
(637.913 -0.0162082 0)
(673.621 -0.0224821 0)
(707.644 -0.0162764 0)
(740.092 -0.0146989 0)
(771.121 -0.000719963 0)
(801.176 -0.0231695 0)
(829.775 -0.0259924 0)
(857.723 -0.0179845 0)
(884.917 -0.0056859 0)
(911.804 -0.011835 0)
(938.136 -0.0703348 0)
(965.578 -0.144263 0)
(993.963 -0.259321 0)
(1028.76 -0.417639 0)
(1077.96 -0.534839 0)
(1164.13 0.109783 0)
(1294.8 5.20121 0)
(1404.54 13.7524 0)
(1459.12 36.2898 0)
(31.2833 -0.00107328 0)
(91.0381 -7.43284e-05 0)
(148.68 0.000439801 0)
(205.318 -0.000529633 0)
(261.523 -0.00249242 0)
(317.099 -0.00613549 0)
(371.163 -0.0144162 0)
(422.652 -0.0216317 0)
(470.999 -0.0227806 0)
(516.238 -0.0216674 0)
(558.499 -0.021412 0)
(598.248 -0.0142131 0)
(635.786 -0.0070929 0)
(671.378 -0.0170784 0)
(705.084 -0.0231202 0)
(737.299 -0.0157168 0)
(768.126 -0.0140167 0)
(797.717 0.00227126 0)
(826.49 -0.0224205 0)
(853.994 -0.0252975 0)
(881.015 -0.0158986 0)
(907.45 -0.00248076 0)
(933.798 -0.00977301 0)
(959.898 -0.0736093 0)
(987.523 -0.153717 0)
(1016.94 -0.27265 0)
(1054.42 -0.42769 0)
(1109.4 -0.453745 0)
(1203.29 0.421126 0)
(1331.89 6.60287 0)
(1419.24 15.1101 0)
(1464.54 34.9584 0)
(31.2138 -0.00217504 0)
(90.8643 -0.00227326 0)
(148.416 -0.000942689 0)
(204.896 -0.000501694 0)
(260.844 -0.00148811 0)
(316.177 -0.0035835 0)
(370.134 -0.007575 0)
(421.632 -0.017006 0)
(469.9 -0.0249919 0)
(514.817 -0.0259113 0)
(556.926 -0.024415 0)
(596.513 -0.0237756 0)
(633.869 -0.0153707 0)
(669.202 -0.00712436 0)
(702.789 -0.0176644 0)
(734.696 -0.0232668 0)
(765.294 -0.0145985 0)
(794.678 -0.0127067 0)
(822.994 0.0060124 0)
(850.642 -0.0210013 0)
(877.201 -0.0240095 0)
(903.439 -0.0129578 0)
(929.278 0.00160711 0)
(955.26 -0.00662965 0)
(981.297 -0.0759888 0)
(1009.31 -0.161019 0)
(1040.12 -0.281768 0)
(1080.85 -0.40911 0)
(1142.18 -0.33049 0)
(1241.05 0.869478 0)
(1364.92 8.01493 0)
(1431.57 16.6583 0)
(1469.25 33.4053 0)
(31.137 -0.00264556 0)
(90.6726 -0.0043927 0)
(148.151 -0.00310487 0)
(204.552 -0.00219362 0)
(260.333 -0.00155576 0)
(315.392 -0.00260879 0)
(369.103 -0.00471556 0)
(420.518 -0.00899501 0)
(468.809 -0.019591 0)
(513.658 -0.0283482 0)
(555.445 -0.0289627 0)
(594.881 -0.0270006 0)
(632.077 -0.0259793 0)
(667.242 -0.0163229 0)
(700.574 -0.00676177 0)
(732.354 -0.0179227 0)
(762.653 -0.0227272 0)
(791.808 -0.0127723 0)
(819.915 -0.0107832 0)
(847.107 0.0106256 0)
(873.776 -0.0186984 0)
(899.533 -0.0219664 0)
(925.14 -0.00891151 0)
(950.542 0.0066283 0)
(976.304 -0.00220869 0)
(1002.43 -0.0769022 0)
(1031.08 -0.16552 0)
(1063.68 -0.284003 0)
(1108.27 -0.363101 0)
(1176.32 -0.150584 0)
(1277.59 1.52824 0)
(1392.49 9.30245 0)
(1441.76 18.259 0)
(1473.22 31.921 0)
(31.0578 -0.00309595 0)
(90.4614 -0.00567895 0)
(147.857 -0.00565143 0)
(204.206 -0.00414555 0)
(259.917 -0.00399643 0)
(314.8 -0.00304801 0)
(368.227 -0.00385113 0)
(419.402 -0.00586696 0)
(467.63 -0.0103959 0)
(512.51 -0.0221452 0)
(554.229 -0.0316348 0)
(593.348 -0.0318576 0)
(630.395 -0.0293654 0)
(665.401 -0.0279739 0)
(698.576 -0.0169863 0)
(730.1 -0.00597975 0)
(760.266 -0.0176648 0)
(789.132 -0.0215288 0)
(817.006 -0.010136 0)
(843.985 -0.00820397 0)
(870.193 0.0162512 0)
(896.026 -0.0153637 0)
(921.128 -0.0190266 0)
(946.255 -0.00349411 0)
(971.35 0.0129657 0)
(997.02 0.00364462 0)
(1023.41 -0.0749102 0)
(1052.98 -0.164967 0)
(1087.8 -0.270908 0)
(1136.91 -0.288596 0)
(1211.72 0.0917679 0)
(1313.65 2.48984 0)
(1414.12 10.3772 0)
(1450.28 19.6583 0)
(1476.45 30.3902 0)
(30.9776 -0.00326753 0)
(90.2415 -0.00670666 0)
(147.529 -0.00775896 0)
(203.823 -0.00740979 0)
(259.499 -0.00618404 0)
(314.318 -0.00593676 0)
(367.565 -0.00473407 0)
(418.455 -0.00519385 0)
(466.449 -0.0069701 0)
(511.283 -0.0117197 0)
(553.028 -0.0245924 0)
(592.077 -0.0347691 0)
(628.816 -0.0345281 0)
(663.674 -0.0314479 0)
(696.691 -0.0296886 0)
(728.071 -0.0173673 0)
(757.976 -0.0047913 0)
(786.703 -0.016735 0)
(814.292 -0.0196411 0)
(841.037 -0.00653299 0)
(867.027 -0.00467356 0)
(892.388 0.0230313 0)
(917.533 -0.0108796 0)
(942.124 -0.0149815 0)
(966.888 0.00356791 0)
(991.786 0.0213825 0)
(1017.5 0.0112932 0)
(1044.32 -0.0700595 0)
(1075.17 -0.156626 0)
(1112.69 -0.240019 0)
(1166.95 -0.166602 0)
(1247.96 0.412729 0)
(1348.23 3.83913 0)
(1430.57 11.2556 0)
(1457.5 21.0474 0)
(1478.94 28.8917 0)
(30.9011 -0.00304299 0)
(90.0211 -0.0071371 0)
(147.192 -0.00915165 0)
(203.393 -0.0102598 0)
(259.035 -0.00984846 0)
(313.838 -0.00912611 0)
(367.024 -0.0081186 0)
(417.73 -0.00655188 0)
(465.443 -0.00658799 0)
(510.051 -0.00801848 0)
(551.757 -0.0129094 0)
(590.828 -0.0268663 0)
(627.498 -0.0376822 0)
(662.054 -0.0369016 0)
(694.925 -0.0331713 0)
(726.148 -0.0310469 0)
(755.916 -0.0173296 0)
(784.377 -0.00305978 0)
(811.822 -0.0151907 0)
(838.285 -0.0168463 0)
(864.036 -0.00191523 0)
(889.171 -6.72155e-05 0)
(913.835 0.0311372 0)
(938.428 -0.00500133 0)
(962.62 -0.00943928 0)
(987.118 0.0124329 0)
(1011.93 0.0325861 0)
(1037.83 0.021291 0)
(1065.3 -0.0592161 0)
(1097.8 -0.137986 0)
(1138.56 -0.182744 0)
(1198.43 0.0176107 0)
(1283.91 0.850987 0)
(1379.81 5.53908 0)
(1443.23 11.8997 0)
(1463.61 22.2208 0)
(1480.71 27.3993 0)
(30.825 -0.00239047 0)
(89.8117 -0.00669619 0)
(146.852 -0.00977223 0)
(202.949 -0.0119096 0)
(258.513 -0.0130932 0)
(313.304 -0.0126807 0)
(366.488 -0.0118575 0)
(417.135 -0.0104874 0)
(464.661 -0.00845061 0)
(508.999 -0.00797952 0)
(550.484 -0.00895398 0)
(589.519 -0.0139112 0)
(626.207 -0.0288969 0)
(660.696 -0.0402963 0)
(693.267 -0.0388924 0)
(724.346 -0.0344607 0)
(753.961 -0.0320221 0)
(782.289 -0.016796 0)
(809.465 -0.000689186 0)
(835.774 -0.0130029 0)
(861.246 -0.0130321 0)
(886.134 0.00388954 0)
(910.561 0.00574706 0)
(934.665 0.0407817 0)
(958.811 0.00232907 0)
(982.692 -0.00214348 0)
(1007.02 0.0234057 0)
(1031.87 0.0472815 0)
(1058.1 0.0340203 0)
(1086.51 -0.0420382 0)
(1121.07 -0.103014 0)
(1165.64 -0.0909341 0)
(1231.22 0.279473 0)
(1317.96 1.46839 0)
(1406.86 7.40067 0)
(1453.2 12.2885 0)
(1468.67 23.3382 0)
(1481.84 25.9763 0)
(30.7614 -0.0013958 0)
(89.6072 -0.00544609 0)
(146.531 -0.00917256 0)
(202.505 -0.0126515 0)
(257.974 -0.014903 0)
(312.698 -0.0161633 0)
(365.892 -0.0157599 0)
(416.546 -0.0147552 0)
(464.019 -0.0129835 0)
(508.165 -0.0104378 0)
(549.392 -0.0093333 0)
(588.209 -0.00974325 0)
(624.873 -0.0146464 0)
(659.371 -0.030607 0)
(691.872 -0.0425498 0)
(722.652 -0.0403802 0)
(752.124 -0.0352042 0)
(780.299 -0.0324821 0)
(807.346 -0.0157737 0)
(833.384 0.00238982 0)
(858.694 -0.0100294 0)
(883.305 -0.00804087 0)
(907.474 0.0110893 0)
(931.326 0.0129387 0)
(954.969 0.0521733 0)
(978.751 0.0113856 0)
(1002.41 0.00725344 0)
(1026.68 0.0370416 0)
(1051.67 0.0666394 0)
(1078.41 0.0525212 0)
(1108.11 -0.0147136 0)
(1145.16 -0.0476257 0)
(1194.1 0.0499655 0)
(1264.93 0.626563 0)
(1350.16 2.38228 0)
(1428.26 9.19331 0)
(1461.21 12.6713 0)
(1472.76 24.1395 0)
(1482.43 24.6041 0)
(30.7085 -0.000711626 0)
(89.4338 -0.00345523 0)
(146.218 -0.00763905 0)
(202.089 -0.0119596 0)
(257.438 -0.0157964 0)
(312.077 -0.0181604 0)
(365.219 -0.0194846 0)
(415.904 -0.0189272 0)
(463.387 -0.0177795 0)
(507.477 -0.0155772 0)
(548.511 -0.0124903 0)
(587.08 -0.0106174 0)
(623.528 -0.0103115 0)
(658.008 -0.0150838 0)
(690.515 -0.0319495 0)
(721.224 -0.0443582 0)
(750.4 -0.0413686 0)
(778.431 -0.03525 0)
(805.325 -0.0323089 0)
(831.236 -0.0140632 0)
(856.268 0.00630315 0)
(880.711 -0.00605702 0)
(904.602 -0.00173697 0)
(928.187 0.0198345 0)
(951.558 0.02171 0)
(974.818 0.0656298 0)
(998.32 0.0225513 0)
(1021.85 0.0191867 0)
(1046.15 0.053984 0)
(1071.44 0.0911672 0)
(1098.9 0.0801395 0)
(1130.26 0.028401 0)
(1170.29 0.0384633 0)
(1224.03 0.25633 0)
(1298.85 1.06299 0)
(1380.8 3.67643 0)
(1444.18 10.5185 0)
(1467.58 13.0746 0)
(1475.86 24.8059 0)
(1482.71 23.0941 0)
(30.6621 -5.83974e-06 0)
(89.2893 -0.00207568 0)
(145.952 -0.00511448 0)
(201.679 -0.0101996 0)
(256.937 -0.0149506 0)
(311.461 -0.0191771 0)
(364.531 -0.0216028 0)
(415.177 -0.0229482 0)
(462.703 -0.0222153 0)
(506.804 -0.0208315 0)
(547.779 -0.0182411 0)
(586.15 -0.014566 0)
(622.365 -0.0117833 0)
(656.637 -0.0106258 0)
(689.127 -0.0151573 0)
(719.837 -0.0328419 0)
(748.937 -0.0456564 0)
(776.678 -0.041638 0)
(803.426 -0.0345418 0)
(829.183 -0.0313928 0)
(854.087 -0.0116065 0)
(878.245 0.0112296 0)
(901.966 -0.000935487 0)
(925.268 0.00605039 0)
(948.359 0.0303348 0)
(971.324 0.0323155 0)
(994.279 0.081457 0)
(1017.58 0.0362656 0)
(1041.07 0.034209 0)
(1065.52 0.0750614 0)
(1091.24 0.121271 0)
(1119.75 0.117739 0)
(1153.15 0.0913549 0)
(1196.66 0.165661 0)
(1255.34 0.547326 0)
(1331.8 1.63547 0)
(1408.33 5.49428 0)
(1455.8 11.3626 0)
(1472.52 13.756 0)
(1478.08 25.3887 0)
(1482.69 21.728 0)
(30.6279 0.000630541 0)
(89.1716 -0.000458635 0)
(145.737 -0.00340499 0)
(201.334 -0.0071836 0)
(256.444 -0.0129732 0)
(310.891 -0.0181689 0)
(363.849 -0.0227278 0)
(414.437 -0.0251534 0)
(461.935 -0.0264607 0)
(506.088 -0.025512 0)
(547.069 -0.0239093 0)
(585.376 -0.020946 0)
(621.39 -0.0166402 0)
(655.444 -0.0128051 0)
(687.734 -0.0106568 0)
(718.427 -0.0148569 0)
(747.519 -0.0332352 0)
(775.182 -0.0463586 0)
(801.643 -0.0410255 0)
(827.253 -0.0329935 0)
(852.005 -0.0297292 0)
(876.031 -0.00826407 0)
(899.462 0.0172739 0)
(922.585 0.00546733 0)
(945.388 0.0155139 0)
(968.058 0.0428377 0)
(990.69 0.0450333 0)
(1013.42 0.100105 0)
(1036.6 0.0530615 0)
(1060.15 0.0530299 0)
(1084.87 0.101308 0)
(1111.21 0.159223 0)
(1141.11 0.170536 0)
(1176.97 0.1828 0)
(1224.45 0.350508 0)
(1287.59 0.9384 0)
(1362.7 2.42856 0)
(1431.16 7.56834 0)
(1464.39 11.6087 0)
(1476.2 14.4669 0)
(1479.48 25.7163 0)
(1482.63 20.3918 0)
(30.6024 0.00125868 0)
(89.0777 0.000369249 0)
(145.559 -0.00150519 0)
(201.055 -0.00516344 0)
(256.027 -0.00946266 0)
(310.325 -0.01599 0)
(363.222 -0.0215496 0)
(413.705 -0.0263651 0)
(461.156 -0.0287349 0)
(505.289 -0.0299915 0)
(546.323 -0.0288049 0)
(584.635 -0.0269854 0)
(620.576 -0.0236477 0)
(654.434 -0.0186867 0)
(686.516 -0.0136356 0)
(717.017 -0.0103931 0)
(746.093 -0.0139545 0)
(773.735 -0.0329556 0)
(800.116 -0.046198 0)
(825.44 -0.0395593 0)
(850.045 -0.0304419 0)
(873.919 -0.0272016 0)
(897.214 -0.00389681 0)
(920.044 0.0246184 0)
(942.655 0.0133422 0)
(965.029 0.0268766 0)
(987.347 0.0576126 0)
(1009.72 0.0602157 0)
(1032.29 0.122043 0)
(1055.45 0.0736108 0)
(1079.15 0.0765687 0)
(1104.28 0.134105 0)
(1131.5 0.208389 0)
(1163.15 0.24306 0)
(1201.92 0.312514 0)
(1253.69 0.610677 0)
(1319.97 1.429 0)
(1391.53 3.61102 0)
(1448.4 9.73359 0)
(1470.79 11.4309 0)
(1478.82 15.1675 0)
(1480.2 25.8469 0)
(1482.52 18.9672 0)
(30.5791 0.00122863 0)
(89.012 0.00113076 0)
(145.426 -0.00101926 0)
(200.833 -0.00289941 0)
(255.692 -0.00715236 0)
(309.845 -0.0119786 0)
(362.596 -0.0191647 0)
(413.034 -0.0250131 0)
(460.386 -0.0300162 0)
(504.48 -0.0322951 0)
(545.493 -0.0334741 0)
(583.863 -0.0320215 0)
(619.798 -0.0300292 0)
(653.579 -0.026309 0)
(685.466 -0.0206868 0)
(715.775 -0.0142447 0)
(744.667 -0.00963148 0)
(772.292 -0.0123806 0)
(798.641 -0.0317835 0)
(823.882 -0.0450294 0)
(848.204 -0.0370167 0)
(871.929 -0.0267519 0)
(895.071 -0.0235274 0)
(917.76 0.00167883 0)
(940.072 0.0334514 0)
(962.242 0.022931 0)
(984.251 0.0403923 0)
(1006.28 0.0750006 0)
(1028.46 0.0782921 0)
(1050.96 0.147929 0)
(1074.18 0.0987617 0)
(1098.16 0.105989 0)
(1123.85 0.175532 0)
(1152.28 0.272866 0)
(1186.07 0.342924 0)
(1228.21 0.4952 0)
(1284.22 0.968518 0)
(1351.24 2.0514 0)
(1417.78 5.2211 0)
(1460.59 11.2124 0)
(1475.51 11.2286 0)
(1480.39 15.9221 0)
(1480.64 25.7155 0)
(1482.4 17.3652 0)
(30.5546 0.000799168 0)
(88.9514 0.00107294 0)
(145.332 4.03177e-05 0)
(200.664 -0.00245811 0)
(255.429 -0.00456732 0)
(309.461 -0.00940968 0)
(362.06 -0.0146663 0)
(412.356 -0.0224242 0)
(459.682 -0.0284873 0)
(503.68 -0.0336424 0)
(544.659 -0.0357687 0)
(583.004 -0.0368306 0)
(619.002 -0.0351171 0)
(652.768 -0.032977 0)
(684.579 -0.0289 0)
(714.686 -0.022592 0)
(743.404 -0.0145707 0)
(770.852 -0.0083288 0)
(797.182 -0.0101888 0)
(822.377 -0.0298146 0)
(846.612 -0.0429102 0)
(870.058 -0.0332789 0)
(893.052 -0.0217592 0)
(915.586 -0.0185641 0)
(937.75 0.00866245 0)
(959.612 0.0440079 0)
(981.405 0.0344239 0)
(1003.11 0.0563658 0)
(1024.93 0.095387 0)
(1046.98 0.0997774 0)
(1069.48 0.178497 0)
(1092.87 0.129585 0)
(1117.25 0.142814 0)
(1143.75 0.228686 0)
(1173.73 0.357995 0)
(1210.05 0.479806 0)
(1255.95 0.749019 0)
(1315.44 1.4369 0)
(1380.42 2.89252 0)
(1439.69 7.51868 0)
(1468.92 12.1608 0)
(1478.77 11.2633 0)
(1481.26 16.8305 0)
(1480.89 25.6254 0)
(1482.32 15.6072 0)
(30.525 -0.000257688 0)
(88.8892 0.000263608 0)
(145.247 -2.61534e-05 0)
(200.552 -0.00130698 0)
(255.237 -0.00426257 0)
(309.17 -0.00650555 0)
(361.639 -0.0118757 0)
(411.779 -0.0174429 0)
(458.965 -0.0256917 0)
(502.951 -0.0319286 0)
(543.83 -0.0371621 0)
(582.143 -0.0390788 0)
(618.122 -0.040008 0)
(651.948 -0.0380345 0)
(683.736 -0.0357843 0)
(713.77 -0.0313795 0)
(742.283 -0.0243697 0)
(769.572 -0.0145832 0)
(795.727 -0.00652155 0)
(820.898 -0.00721786 0)
(845.075 -0.0269039 0)
(868.435 -0.0396591 0)
(891.153 -0.0281808 0)
(913.538 -0.015296 0)
(935.542 -0.0121401 0)
(957.248 0.017277 0)
(978.724 0.0566099 0)
(1000.2 0.048172 0)
(1021.67 0.0751484 0)
(1043.33 0.119253 0)
(1065.34 0.12532 0)
(1087.93 0.214737 0)
(1111.59 0.16743 0)
(1136.52 0.189334 0)
(1164.15 0.297706 0)
(1196.01 0.470925 0)
(1235.3 0.667101 0)
(1285.06 1.09653 0)
(1346.28 2.02207 0)
(1407.49 4.10834 0)
(1456 9.79913 0)
(1474.75 12.4752 0)
(1480.6 11.5493 0)
(1481.73 17.7551 0)
(1481.02 25.4488 0)
(1482.39 13.6488 0)
(30.4892 -0.000665289 0)
(88.806 -0.00106185 0)
(145.157 -0.0010612 0)
(200.451 -0.00137587 0)
(255.109 -0.00294274 0)
(308.95 -0.00638654 0)
(361.317 -0.00866721 0)
(411.323 -0.0144758 0)
(458.352 -0.0202682 0)
(502.204 -0.0289444 0)
(543.079 -0.0352611 0)
(581.294 -0.0404859 0)
(617.243 -0.042133 0)
(651.046 -0.0429341 0)
(682.896 -0.0407037 0)
(712.899 -0.0383872 0)
(741.334 -0.0337163 0)
(768.421 -0.0259861 0)
(794.432 -0.0141496 0)
(819.432 -0.00406833 0)
(843.576 -0.00330405 0)
(866.867 -0.022816 0)
(889.5 -0.0351437 0)
(911.611 -0.0215564 0)
(933.464 -0.00717311 0)
(955.005 -0.00402888 0)
(976.313 0.0277961 0)
(997.461 0.0715985 0)
(1018.68 0.0645328 0)
(1039.98 0.0971688 0)
(1061.55 0.147172 0)
(1083.59 0.155721 0)
(1106.37 0.257841 0)
(1130.41 0.214079 0)
(1156.15 0.24887 0)
(1185.2 0.387968 0)
(1219.33 0.621568 0)
(1261.94 0.922671 0)
(1315.12 1.55755 0)
(1375.37 2.74902 0)
(1431.76 5.78705 0)
(1467.05 11.5499 0)
(1478.51 12.0738 0)
(1481.53 11.6707 0)
(1481.99 18.5914 0)
(1481.03 25.2256 0)
(1482.63 11.644 0)
(30.4483 -0.00113355 0)
(88.7109 -0.00195203 0)
(145.036 -0.00231065 0)
(200.343 -0.00239341 0)
(254.995 -0.00301117 0)
(308.807 -0.00488544 0)
(361.074 -0.00876613 0)
(410.974 -0.0109399 0)
(457.867 -0.0171331 0)
(501.563 -0.0230904 0)
(542.309 -0.0321007 0)
(580.525 -0.0383998 0)
(616.376 -0.0435484 0)
(650.153 -0.0448745 0)
(681.977 -0.0455265 0)
(712.035 -0.0430581 0)
(740.433 -0.0407286 0)
(767.439 -0.0358223 0)
(793.255 -0.0273603 0)
(818.124 -0.0132694 0)
(842.099 -0.000851371 0)
(865.348 0.00163588 0)
(887.906 -0.0174803 0)
(909.929 -0.0292148 0)
(931.509 -0.0132273 0)
(952.893 0.00281545 0)
(974.03 0.00602789 0)
(994.998 0.0405223 0)
(1015.88 0.0892912 0)
(1036.9 0.0839804 0)
(1058.08 0.122938 0)
(1079.64 0.179864 0)
(1101.79 0.191978 0)
(1124.86 0.309332 0)
(1149.46 0.272217 0)
(1176.29 0.325851 0)
(1207.08 0.506623 0)
(1243.85 0.823047 0)
(1289.95 1.26798 0)
(1345.19 2.14453 0)
(1402.42 3.77057 0)
(1451.33 8.22265 0)
(1474.18 12.4789 0)
(1480.61 11.8783 0)
(1482.02 12.0421 0)
(1481.87 19.4217 0)
(1481.05 24.8837 0)
(1482.93 9.58307 0)
(30.4022 -0.0014698 0)
(88.6017 -0.0028652 0)
(144.89 -0.00335854 0)
(200.189 -0.00390396 0)
(254.875 -0.00409969 0)
(308.681 -0.00492535 0)
(360.915 -0.00710154 0)
(410.705 -0.0113797 0)
(457.49 -0.0133219 0)
(501.048 -0.0198193 0)
(541.643 -0.0258315 0)
(579.725 -0.0350755 0)
(615.59 -0.0412625 0)
(649.271 -0.0462666 0)
(681.071 -0.0472176 0)
(711.102 -0.0477043 0)
(739.55 -0.0449989 0)
(766.507 -0.0427323 0)
(792.238 -0.0376408 0)
(816.92 -0.0284648 0)
(840.776 -0.0118916 0)
(863.859 0.0032253 0)
(886.368 0.00771883 0)
(908.31 -0.0107435 0)
(929.795 -0.0216865 0)
(950.907 -0.00299019 0)
(971.883 0.0149193 0)
(992.671 0.0183303 0)
(1013.36 0.0558215 0)
(1034.02 0.110135 0)
(1054.91 0.106967 0)
(1076.03 0.153103 0)
(1097.65 0.218226 0)
(1120.01 0.235393 0)
(1143.48 0.371196 0)
(1168.89 0.345609 0)
(1197.09 0.426002 0)
(1229.97 0.66362 0)
(1269.73 1.09333 0)
(1319.01 1.72583 0)
(1374.04 2.84525 0)
(1427.37 5.17555 0)
(1465.14 10.6707 0)
(1478.37 12.9544 0)
(1481.64 11.828 0)
(1482.41 12.477 0)
(1481.68 20.1961 0)
(1481.11 24.3384 0)
(1483.19 7.58244 0)
(30.3462 -0.00172419 0)
(88.4688 -0.0034562 0)
(144.723 -0.00445771 0)
(200.001 -0.00511917 0)
(254.693 -0.00585609 0)
(308.551 -0.00610393 0)
(360.775 -0.00709325 0)
(410.527 -0.00950302 0)
(457.195 -0.0141325 0)
(500.648 -0.0157764 0)
(541.101 -0.0224643 0)
(579.033 -0.0284409 0)
(614.772 -0.0377917 0)
(648.473 -0.043784 0)
(680.176 -0.0485527 0)
(710.185 -0.049056 0)
(738.6 -0.04936 0)
(765.605 -0.0464505 0)
(791.279 -0.0443173 0)
(815.872 -0.039104 0)
(839.547 -0.0292541 0)
(862.522 -0.00983349 0)
(884.864 0.00829052 0)
(906.755 0.0151168 0)
(928.149 -0.00245287 0)
(949.16 -0.0124027 0)
(969.863 0.00937612 0)
(990.485 0.0294056 0)
(1010.98 0.0332307 0)
(1031.43 0.0741296 0)
(1051.94 0.134684 0)
(1072.75 0.134139 0)
(1093.89 0.188444 0)
(1115.65 0.263392 0)
(1138.32 0.287538 0)
(1162.37 0.446501 0)
(1188.87 0.439048 0)
(1218.74 0.557033 0)
(1254.05 0.872373 0)
(1296.97 1.45358 0)
(1348.31 2.31015 0)
(1400.96 3.75453 0)
(1448.62 7.15997 0)
(1473.66 12.4167 0)
(1480.61 12.9194 0)
(1482.22 11.806 0)
(1482.58 12.9951 0)
(1481.53 20.875 0)
(1481.21 23.5726 0)
(1483.41 5.72418 0)
(30.2859 -0.00181321 0)
(88.3169 -0.00392475 0)
(144.521 -0.00507974 0)
(199.783 -0.00634045 0)
(254.467 -0.00721022 0)
(308.343 -0.00811043 0)
(360.63 -0.00834961 0)
(410.369 -0.00946188 0)
(456.994 -0.0120606 0)
(500.324 -0.0169877 0)
(540.678 -0.0182565 0)
(578.467 -0.0250122 0)
(614.056 -0.0308448 0)
(647.635 -0.0401751 0)
(679.367 -0.0458617 0)
(709.279 -0.0503171 0)
(737.673 -0.0503076 0)
(764.642 -0.0504751 0)
(790.355 -0.0473977 0)
(814.884 -0.0454225 0)
(838.47 -0.0401653 0)
(861.267 -0.0295454 0)
(883.511 -0.00704362 0)
(905.235 0.0144931 0)
(926.574 0.0239678 0)
(947.487 0.00757548 0)
(968.081 -0.00117231 0)