/*--------------------------------*- C++ -*----------------------------------*\
| =========                 |                                                 |
| \\      /  F ield         | OpenFOAM: The Open Source CFD Toolbox           |
|  \\    /   O peration     | Version:  v2012                                 |
|   \\  /    A nd           | Website:  www.openfoam.com                      |
|    \\/     M anipulation  |                                                 |
\*---------------------------------------------------------------------------*/
FoamFile
{
    version     2.0;
    format      ascii;
    class       volScalarField;
    location    "3800";
    object      V;
}
// * * * * * * * * * * * * * * * * * * * * * * * * * * * * * * * * * * * * * //

dimensions      [0 3 0 0 0 0 0];


internalField   nonuniform List<scalar> 
29502
(
2.11675e-09
2.06942e-09
2.13971e-09
2.01776e-09
2.10107e-09
2.17541e-09
1.96294e-09
2.053e-09
2.14263e-09
2.2249e-09
1.90474e-09
1.99474e-09
2.09689e-09
2.1958e-09
2.28902e-09
1.84893e-09
1.92597e-09
2.03581e-09
2.15122e-09
2.26227e-09
2.36856e-09
1.79485e-09
1.86036e-09
1.95916e-09
2.08742e-09
2.21825e-09
2.34308e-09
2.46426e-09
1.74341e-09
1.79704e-09
1.88613e-09
2.00424e-09
2.15194e-09
2.29866e-09
2.43947e-09
2.57702e-09
1.69419e-09
1.73827e-09
1.81583e-09
1.92528e-09
2.06319e-09
2.22948e-09
2.39436e-09
2.55221e-09
2.70776e-09
1.64712e-09
1.68334e-09
1.75138e-09
1.84942e-09
1.97901e-09
2.13539e-09
2.3222e-09
2.50576e-09
2.68249e-09
2.85756e-09
1.60204e-09
1.63253e-09
1.69199e-09
1.78042e-09
1.89809e-09
2.04632e-09
2.2228e-09
2.43009e-09
2.63436e-09
2.83144e-09
3.0274e-09
1.55858e-09
1.5851e-09
1.63808e-09
1.71748e-09
1.82494e-09
1.96082e-09
2.12888e-09
2.32498e-09
2.55512e-09
2.78104e-09
2.99996e-09
3.21853e-09
1.51648e-09
1.54001e-09
1.58883e-09
1.66085e-09
1.75871e-09
1.88393e-09
2.03868e-09
2.22598e-09
2.44407e-09
2.69716e-09
2.94709e-09
3.1895e-09
3.43229e-09
1.47578e-09
1.49673e-09
1.54211e-09
1.60979e-09
1.69936e-09
1.81451e-09
1.95791e-09
2.13123e-09
2.3395e-09
2.57959e-09
2.85837e-09
3.13347e-09
3.40154e-09
3.6704e-09
1.43632e-09
1.45524e-09
1.49769e-09
1.56153e-09
1.64641e-09
1.75254e-09
1.88488e-09
2.04628e-09
2.23968e-09
2.46907e-09
2.73372e-09
3.03922e-09
3.34211e-09
3.63739e-09
3.93455e-09
1.39821e-09
1.41555e-09
1.45534e-09
1.5158e-09
1.59646e-09
1.69749e-09
1.82019e-09
1.96977e-09
2.15016e-09
2.36377e-09
2.61674e-09
2.90642e-09
3.24179e-09
3.57375e-09
3.89911e-09
4.22636e-09
1.36113e-09
1.37728e-09
1.41507e-09
1.47251e-09
1.54919e-09
1.64559e-09
1.76265e-09
1.90198e-09
2.0698e-09
2.26954e-09
2.50549e-09
2.78211e-09
3.10026e-09
3.46634e-09
3.83088e-09
4.18792e-09
4.54816e-09
1.32514e-09
1.34022e-09
1.37638e-09
1.43132e-09
1.50468e-09
1.59667e-09
1.70865e-09
1.84184e-09
1.99841e-09
2.18503e-09
2.40573e-09
2.66461e-09
2.96816e-09
3.31509e-09
3.71583e-09
4.11428e-09
4.50689e-09
4.90224e-09
1.29014e-09
1.30452e-09
1.339e-09
1.39198e-09
1.46237e-09
1.55063e-09
1.65775e-09
1.78538e-09
1.93531e-09
2.10982e-09
2.31655e-09
2.55917e-09
2.84317e-09
3.17438e-09
3.55394e-09
3.9906e-09
4.42725e-09
4.85728e-09
5.29093e-09
1.25619e-09
1.26989e-09
1.30318e-09
1.354e-09
1.42198e-09
1.50695e-09
1.60984e-09
1.73214e-09
1.87598e-09
2.04324e-09
2.23703e-09
2.46462e-09
2.73134e-09
3.04165e-09
3.40352e-09
3.81682e-09
4.29406e-09
4.77031e-09
5.24214e-09
5.71706e-09
1.22321e-09
1.23642e-09
1.26849e-09
1.31769e-09
1.38321e-09
1.46524e-09
1.56453e-09
1.68216e-09
1.82018e-09
1.98082e-09
2.16677e-09
2.3806e-09
2.63117e-09
2.92284e-09
3.26231e-09
3.65596e-09
4.10736e-09
4.62659e-09
5.14771e-09
5.66393e-09
6.18385e-09
1.19107e-09
1.20398e-09
1.23503e-09
1.28258e-09
1.34598e-09
1.42533e-09
1.52125e-09
1.6349e-09
1.76778e-09
1.9221e-09
2.10079e-09
2.30616e-09
2.54184e-09
2.81627e-09
3.13585e-09
3.50551e-09
3.93527e-09
4.42587e-09
4.99254e-09
5.5604e-09
6.12569e-09
6.69449e-09
1.15977e-09
1.1724e-09
1.20268e-09
1.24877e-09
1.31018e-09
1.38699e-09
1.47985e-09
1.58974e-09
1.7182e-09
1.86687e-09
2.03861e-09
2.23605e-09
2.46243e-09
2.7214e-09
3.02222e-09
3.37082e-09
3.77433e-09
4.24103e-09
4.77618e-09
5.39209e-09
6.01293e-09
6.6307e-09
7.25235e-09
1.12946e-09
1.1417e-09
1.17123e-09
1.21612e-09
1.27569e-09
1.35014e-09
1.4401e-09
1.54657e-09
1.67086e-09
1.81473e-09
1.98025e-09
2.17022e-09
2.38805e-09
2.63695e-09
2.92104e-09
3.24982e-09
3.63047e-09
4.06934e-09
4.57776e-09
5.15873e-09
5.8307e-09
6.50634e-09
7.18287e-09
7.86184e-09
1.09982e-09
1.11188e-09
1.14052e-09
1.18433e-09
1.24239e-09
1.31467e-09
1.40194e-09
1.50508e-09
1.62556e-09
1.76488e-09
1.92514e-09
2.10841e-09
2.31807e-09
2.55767e-09
2.83086e-09
3.14182e-09
3.50106e-09
3.91549e-09
4.39412e-09
4.94558e-09
5.57883e-09
6.30835e-09
7.04641e-09
7.78526e-09
8.52676e-09
1.07108e-09
1.08292e-09
1.11087e-09
1.15338e-09
1.20994e-09
1.2804e-09
1.36519e-09
1.46534e-09
1.58213e-09
1.7172e-09
1.87245e-09
2.04993e-09
2.25222e-09
2.48298e-09
2.74606e-09
3.04517e-09
3.38555e-09
3.77746e-09
4.22925e-09
4.74882e-09
5.3495e-09
6.0362e-09
6.83151e-09
7.63461e-09
8.44297e-09
9.25239e-09
1.04314e-09
1.05482e-09
1.08207e-09
1.1235e-09
1.1785e-09
1.24715e-09
1.32964e-09
1.42699e-09
1.54049e-09
1.67151e-09
1.82207e-09
1.99402e-09
2.19004e-09
2.41288e-09
2.66626e-09
2.9545e-09
3.28193e-09
3.65367e-09
4.08162e-09
4.57273e-09
5.13855e-09
5.78965e-09
6.53734e-09
7.40042e-09
8.27721e-09
9.15979e-09
1.0043e-08
1.01581e-09
1.02751e-09
1.05415e-09
1.09454e-09
1.148e-09
1.21473e-09
1.29526e-09
1.39007e-09
1.50024e-09
1.62761e-09
1.77368e-09
1.94059e-09
2.13065e-09
2.34662e-09
2.59145e-09
2.86907e-09
3.18465e-09
3.5425e-09
3.94852e-09
4.4146e-09
4.94961e-09
5.56374e-09
6.27171e-09
7.08264e-09
8.02286e-09
8.97602e-09
9.94157e-09
1.09051e-08
9.8939e-10
1.00084e-09
1.02703e-09
1.06632e-09
1.11852e-09
1.18349e-09
1.26169e-09
1.35413e-09
1.4616e-09
1.58532e-09
1.72723e-09
1.88928e-09
2.07383e-09
2.2831e-09
2.52032e-09
2.78892e-09
3.09315e-09
3.43811e-09
3.82887e-09
4.27183e-09
4.77984e-09
5.36107e-09
6.02925e-09
6.7963e-09
7.67944e-09
8.69896e-09
9.73907e-09
1.07926e-08
1.18445e-08
9.6354e-10
9.75085e-10
1.00056e-09
1.03906e-09
1.08979e-09
1.1531e-09
1.2293e-09
1.31925e-09
1.42399e-09
1.54455e-09
1.6826e-09
1.84019e-09
2.01908e-09
2.22241e-09
2.45245e-09
2.71297e-09
3.00704e-09
3.3399e-09
3.71669e-09
4.14324e-09
4.62651e-09
5.17898e-09
5.81179e-09
6.53659e-09
7.37053e-09
8.32717e-09
9.43711e-09
1.05681e-08
1.17203e-08
1.28675e-08
9.38363e-10
9.49863e-10
9.75005e-10
1.01243e-09
1.062e-09
1.12364e-09
1.19788e-09
1.28539e-09
1.38733e-09
1.50506e-09
1.63942e-09
1.79264e-09
1.96678e-09
2.16417e-09
2.38757e-09
2.64024e-09
2.92541e-09
3.24738e-09
3.61096e-09
4.02241e-09
4.48779e-09
5.01453e-09
5.61621e-09
6.30314e-09
7.09116e-09
7.99464e-09
9.03539e-09
1.02387e-08
1.14725e-08
1.27302e-08
1.39815e-08
9.13985e-10
9.2527e-10
9.49966e-10
9.86741e-10
1.03495e-09
1.0951e-09
1.16738e-09
1.25272e-09
1.35189e-09
1.46636e-09
1.59751e-09
1.74688e-09
1.91622e-09
2.10823e-09
2.3254e-09
2.57056e-09
2.84755e-09
3.15954e-09
3.51146e-09
3.9087e-09
4.35768e-09
4.86498e-09
5.43904e-09
6.09338e-09
6.84056e-09
7.69498e-09
8.67654e-09
9.80438e-09
1.11137e-08
1.2454e-08
1.383e-08
1.51943e-08
8.90107e-10
9.01477e-10
9.25535e-10
9.61549e-10
1.00882e-09
1.06731e-09
1.13783e-09
1.22099e-09
1.31764e-09
1.42906e-09
1.55671e-09
1.70244e-09
1.86758e-09
2.05434e-09
2.26548e-09
2.50376e-09
2.77282e-09
3.07574e-09
3.41707e-09
3.80147e-09
4.23507e-09
4.72453e-09
5.27748e-09
5.90257e-09
6.61501e-09
7.42568e-09
8.35472e-09
9.4174e-09
1.06436e-08
1.20626e-08
1.35243e-08
1.50261e-08
1.65144e-08
8.66911e-10
8.78186e-10
9.01917e-10
9.36956e-10
9.8318e-10
1.04048e-09
1.10913e-09
1.19008e-09
1.2844e-09
1.393e-09
1.51732e-09
1.65912e-09
1.82021e-09
2.00225e-09
2.20778e-09
2.4397e-09
2.70111e-09
2.99546e-09
3.3268e-09
3.69986e-09
4.11956e-09
4.59241e-09
5.12611e-09
5.72857e-09
6.40933e-09
7.18369e-09
8.06534e-09
9.07198e-09
1.02268e-08
1.15548e-08
1.30979e-08
1.46855e-08
1.63293e-08
1.79506e-08
8.44395e-10
8.55601e-10
8.78804e-10
9.13186e-10
9.58141e-10
1.01415e-09
1.08125e-09
1.16022e-09
1.252e-09
1.35801e-09
1.47914e-09
1.61727e-09
1.77397e-09
1.95178e-09
2.15193e-09
2.37777e-09
2.63202e-09
2.91829e-09
3.24045e-09
3.60251e-09
4.00973e-09
4.46775e-09
4.98374e-09
5.56518e-09
6.22126e-09
6.9622e-09
7.80467e-09
8.76149e-09
9.85532e-09
1.1106e-08
1.25488e-08
1.42204e-08
1.5951e-08
1.77444e-08
1.95159e-08
8.22374e-10
8.33528e-10
8.56387e-10
8.8993e-10
9.33946e-10
9.88428e-10
1.05404e-09
1.1311e-09
1.22063e-09
1.32386e-09
1.44198e-09
1.57667e-09
1.72945e-09
1.90248e-09
2.09798e-09
2.31806e-09
2.56541e-09
2.84397e-09
3.15713e-09
3.50928e-09
3.90485e-09
4.34934e-09
4.84895e-09
5.41108e-09
6.04485e-09
6.75887e-09
7.56598e-09
8.48078e-09
9.52168e-09
1.07067e-08
1.20648e-08
1.36271e-08
1.54445e-08
1.73236e-08
1.92874e-08
2.12166e-08
8.00995e-10
8.12089e-10
8.34464e-10
8.67316e-10
9.10283e-10
9.63523e-10
1.0274e-09
1.1028e-09
1.19016e-09
1.29079e-09
1.40594e-09
1.53734e-09
1.68616e-09
1.85482e-09
2.04519e-09
2.26e-09
2.50146e-09
2.77239e-09
3.07716e-09
3.41954e-09
3.80416e-09
4.2361e-09
4.72093e-09
5.26559e-09
5.87823e-09
6.56844e-09
7.3462e-09
8.22422e-09
9.21937e-09
1.0348e-08
1.16361e-08
1.31058e-08
1.48033e-08
1.67708e-08
1.88194e-08
2.09603e-08
2.30658e-08
7.80136e-10
7.91277e-10
8.13179e-10
8.45348e-10
8.87271e-10
9.39315e-10
1.0016e-09
1.07508e-09
1.16048e-09
1.25867e-09
1.37102e-09
1.49901e-09
1.64431e-09
1.8085e-09
1.99415e-09
2.20344e-09
2.4388e-09
2.7034e-09
3.00009e-09
3.33338e-09
3.70739e-09
4.12739e-09
4.59849e-09
5.12736e-09
5.72139e-09
6.38833e-09
7.14013e-09
7.98658e-09
8.94219e-09
1.00236e-08
1.12496e-08
1.26462e-08
1.4242e-08
1.60796e-08
1.8216e-08
2.04388e-08
2.2783e-08
2.50812e-08
7.59796e-10
7.70788e-10
7.92478e-10
8.23875e-10
8.64905e-10
9.15613e-10
9.76532e-10
1.04812e-09
1.13147e-09
1.22738e-09
1.33709e-09
1.4618e-09
1.60342e-09
1.76389e-09
1.94472e-09
2.14849e-09
2.37812e-09
2.63614e-09
2.92562e-09
3.25015e-09
3.61419e-09
4.02279e-09
4.48107e-09
4.99484e-09
5.57182e-09
6.21892e-09
6.94561e-09
7.76392e-09
8.6853e-09
9.72459e-09
1.09005e-08
1.22305e-08
1.37475e-08
1.54758e-08
1.74699e-08
1.97831e-08
2.22051e-08
2.47652e-08
2.7269e-08
7.4005e-10
7.50975e-10
7.72218e-10
8.0304e-10
8.43046e-10
8.92628e-10
9.51986e-10
1.02192e-09
1.10307e-09
1.19672e-09
1.30382e-09
1.42574e-09
1.56375e-09
1.72009e-09
1.89665e-09
2.09559e-09
2.31908e-09
2.57075e-09
2.8531e-09
3.16973e-09
3.52447e-09
3.92198e-09
4.3682e-09
4.86783e-09
5.4282e-09
6.0568e-09
6.76237e-09
7.55375e-09
8.44467e-09
9.44698e-09
1.05778e-08
1.18552e-08
1.33004e-08
1.49442e-08
1.68192e-08
1.89795e-08
2.14892e-08
2.41195e-08
2.69185e-08
2.96518e-08
7.20748e-10
7.31599e-10
7.5245e-10
7.82632e-10
8.21838e-10
8.70162e-10
9.28178e-10
9.96383e-10
1.07565e-09
1.16687e-09
1.27147e-09
1.39036e-09
1.52543e-09
1.67773e-09
1.84976e-09
2.04385e-09
2.26216e-09
2.50715e-09
2.78249e-09
3.09145e-09
3.43751e-09
3.82502e-09
4.25909e-09
4.74574e-09
5.29082e-09
5.90194e-09
6.58679e-09
7.35517e-09
8.2171e-09
9.18639e-09
1.02779e-08
1.15072e-08
1.28961e-08
1.44643e-08
1.6248e-08
1.82791e-08
2.06241e-08
2.33379e-08
2.62021e-08
2.92588e-08
3.22411e-08
7.02078e-10
7.12706e-10
7.33171e-10
7.62653e-10
8.01044e-10
8.48308e-10
9.04902e-10
9.71546e-10
1.04885e-09
1.13797e-09
1.23986e-09
1.35607e-09
1.48767e-09
1.63673e-09
1.80458e-09
1.99355e-09
2.20657e-09
2.44569e-09
2.71412e-09
3.01546e-09
3.35305e-09
3.73109e-09
4.15393e-09
4.6279e-09
5.15862e-09
5.75287e-09
6.41898e-09
7.16547e-09
8.00192e-09
8.94035e-09
9.99569e-09
1.11827e-08
1.25204e-08
1.40288e-08
1.57325e-08
1.76667e-08
1.98704e-08
2.24061e-08
2.53526e-08
2.84587e-08
3.18045e-08
3.50578e-08
6.83741e-10
6.94373e-10
7.14377e-10
7.43313e-10
7.80677e-10
8.26985e-10
8.82262e-10
9.47263e-10
1.02279e-09
1.10978e-09
1.2092e-09
1.32235e-09
1.45101e-09
1.59645e-09
1.76039e-09
1.94496e-09
2.15246e-09
2.38598e-09
2.6479e-09
2.9414e-09
3.2709e-09
3.63976e-09
4.05257e-09
4.51419e-09
5.03096e-09
5.60988e-09
6.25761e-09
6.98323e-09
7.79678e-09
8.70775e-09
9.72931e-09
1.08775e-08
1.21691e-08
1.3623e-08
1.52645e-08
1.71121e-08
1.92116e-08
2.15978e-08
2.43516e-08
2.75329e-08
3.09175e-08
3.4566e-08
3.81173e-08
6.65998e-10
6.76451e-10
6.96128e-10
7.2431e-10
7.60964e-10
8.0609e-10
8.60156e-10
9.23639e-10
9.97306e-10
1.08216e-09
1.17928e-09
1.28985e-09
1.41514e-09
1.55704e-09
1.71724e-09
1.89748e-09
2.10024e-09
2.32767e-09
2.58341e-09
2.86995e-09
3.19091e-09
3.55076e-09
3.9536e-09
4.40401e-09
4.90793e-09
5.4715e-09
6.10272e-09
6.80869e-09
7.59932e-09
8.48552e-09
9.4777e-09
1.05893e-08
1.18391e-08
1.32437e-08
1.48265e-08
1.66055e-08
1.86141e-08
2.08909e-08
2.34804e-08
2.64585e-08
2.9911e-08
3.35796e-08
3.75709e-08
4.14458e-08
6.48647e-10
6.59061e-10
6.78282e-10
7.05907e-10
7.41599e-10
7.85711e-10
8.38485e-10
9.00626e-10
9.72514e-10
1.05532e-09
1.14998e-09
1.25804e-09
1.38038e-09
1.51889e-09
1.67503e-09
1.85126e-09
2.04896e-09
2.27126e-09
2.52049e-09
2.80027e-09
3.11356e-09
3.46435e-09
3.85729e-09
4.2971e-09
4.78837e-09
5.33824e-09
5.95289e-09
6.64087e-09
7.41016e-09
8.27153e-09
9.23652e-09
1.03173e-08
1.15275e-08
1.28867e-08
1.44152e-08
1.6135e-08
1.80701e-08
2.02486e-08
2.2721e-08
2.55252e-08
2.8755e-08
3.24815e-08
3.64776e-08
4.08338e-08
4.50622e-08
6.31822e-10
6.42107e-10
6.60966e-10
6.87905e-10
7.22836e-10
7.65839e-10
8.17295e-10
8.77898e-10
9.48298e-10
1.02918e-09
1.12168e-09
1.22691e-09
1.34642e-09
1.48157e-09
1.63417e-09
1.80596e-09
1.99941e-09
2.21629e-09
2.45947e-09
2.73246e-09
3.03811e-09
3.38055e-09
3.76401e-09
4.19265e-09
4.67269e-09
5.2089e-09
5.80806e-09
6.47845e-09
7.2283e-09
8.06655e-09
9.00496e-09
1.00556e-08
1.12324e-08
1.25495e-08
1.40282e-08
1.56908e-08
1.7562e-08
1.96645e-08
2.20293e-08
2.47078e-08
2.77505e-08
3.1245e-08
3.52837e-08
3.96158e-08
4.4378e-08
4.8991e-08
6.15376e-10
6.25542e-10
6.44075e-10
6.70434e-10
7.04469e-10
7.46532e-10
7.96801e-10
8.55836e-10
9.24487e-10
1.00361e-09
1.09392e-09
1.19672e-09
1.31322e-09
1.4453e-09
1.59412e-09
1.7619e-09
1.95044e-09
2.16265e-09
2.40029e-09
2.66654e-09
2.96493e-09
3.29916e-09
3.67321e-09
4.09182e-09
4.55978e-09
5.08324e-09
5.66829e-09
6.32131e-09
7.05219e-09
7.86935e-09
8.78301e-09
9.80495e-09
1.09491e-08
1.22299e-08
1.36628e-08
1.52728e-08
1.70802e-08
1.91141e-08
2.13985e-08
2.39661e-08
2.68751e-08
3.01689e-08
3.39573e-08
3.83194e-08
4.30285e-08
4.82255e-08
5.32593e-08
5.99325e-10
6.09375e-10
6.27562e-10
6.53347e-10
6.8665e-10
7.27682e-10
7.76664e-10
8.34433e-10
9.01379e-10
9.78498e-10
1.0669e-09
1.16723e-09
1.28106e-09
1.40975e-09
1.55525e-09
1.71894e-09
1.90306e-09
2.10996e-09
2.34217e-09
2.60263e-09
2.89367e-09
3.21992e-09
3.585e-09
3.99352e-09
4.45022e-09
4.96083e-09
5.53207e-09
6.16979e-09
6.88204e-09
7.67832e-09
8.56852e-09
9.56399e-09
1.06769e-08
1.19229e-08
1.33176e-08
1.48773e-08
1.66285e-08
1.85935e-08
2.0805e-08
2.32863e-08
2.60773e-08
2.92287e-08
3.28017e-08
3.69007e-08
4.16219e-08
4.67305e-08
5.24035e-08
5.7897e-08
5.83816e-10
5.93595e-10
6.11426e-10
6.3677e-10
6.69223e-10
7.09234e-10
7.57221e-10
8.13406e-10
8.78783e-10
9.54127e-10
1.04018e-09
1.13842e-09
1.24956e-09
1.37528e-09
1.51711e-09
1.67706e-09
1.8568e-09
2.0587e-09
2.2854e-09
2.53977e-09
2.82438e-09
3.14273e-09
3.4991e-09
3.89798e-09
4.34384e-09
4.84237e-09
5.3991e-09
6.02232e-09
6.71712e-09
7.49375e-09
8.3617e-09
9.33164e-09
1.04155e-08
1.16278e-08
1.2985e-08
1.45032e-08
1.61999e-08
1.81039e-08
2.0243e-08
2.26469e-08
2.53435e-08
2.83707e-08
3.17922e-08
3.56626e-08
4.01066e-08
4.52009e-08
5.07512e-08
5.69365e-08
6.29343e-08
5.68646e-10
5.78347e-10
5.95724e-10
6.20413e-10
6.52309e-10
6.91394e-10
7.38027e-10
7.93098e-10
8.56816e-10
9.30238e-10
1.01425e-09
1.11009e-09
1.21879e-09
1.34159e-09
1.48012e-09
1.63607e-09
1.81165e-09
2.00907e-09
2.23013e-09
2.47825e-09
2.75655e-09
3.0676e-09
3.41572e-09
3.80467e-09
4.24015e-09
4.72683e-09
5.27052e-09
5.87809e-09
6.55736e-09
7.31476e-09
8.16112e-09
9.10682e-09
1.01639e-08
1.13448e-08
1.26649e-08
1.41413e-08
1.57939e-08
1.76405e-08
1.97138e-08
2.20382e-08
2.46526e-08
2.75814e-08
3.08678e-08
3.45792e-08
3.87771e-08
4.35837e-08
4.90945e-08
5.51119e-08
6.18593e-08
6.83998e-08
5.53864e-10
5.63421e-10
5.80409e-10
6.04546e-10
6.35606e-10
6.73866e-10
7.19519e-10
7.73051e-10
8.35364e-10
9.07057e-10
9.89135e-10
1.08255e-09
1.18854e-09
1.30865e-09
1.44392e-09
1.59634e-09
1.76771e-09
1.96017e-09
2.17639e-09
2.41873e-09
2.69009e-09
2.99416e-09
3.33409e-09
3.71426e-09
4.13915e-09
4.61431e-09
5.14526e-09
5.73823e-09
6.4012e-09
7.14149e-09
7.96753e-09
8.88957e-09
9.91967e-09
1.10714e-08
1.23575e-08
1.3795e-08
1.54032e-08
1.72017e-08
1.92119e-08
2.14656e-08
2.39935e-08
2.6835e-08
3.00168e-08
3.35848e-08
3.76145e-08
4.21603e-08
4.73681e-08
5.33163e-08
5.98513e-08
6.71965e-08
7.43376e-08
5.39476e-10
5.48869e-10
5.65553e-10
5.89065e-10
6.194e-10
6.56714e-10
7.01277e-10
7.53717e-10
8.14357e-10
8.84345e-10
9.64382e-10
1.05561e-09
1.15917e-09
1.27623e-09
1.40849e-09
1.55745e-09
1.72466e-09
1.91284e-09
2.12376e-09
2.36037e-09
2.62563e-09
2.92227e-09
3.25465e-09
3.62594e-09
4.04084e-09
4.505e-09
5.02341e-09
5.60271e-09
6.24913e-09
6.97209e-09
7.77908e-09
8.67945e-09
9.68458e-09
1.08066e-08
1.20614e-08
1.34619e-08
1.50274e-08
1.6778e-08
1.87357e-08
2.09215e-08
2.33727e-08
2.61232e-08
2.92113e-08
3.26692e-08
3.65438e-08
4.09132e-08
4.5844e-08
5.14762e-08
5.79038e-08
6.49893e-08
7.29895e-08
8.07773e-08
5.25482e-10
5.34705e-10
5.51013e-10
5.74046e-10
6.03591e-10
6.4002e-10
6.83523e-10
7.34651e-10
7.94038e-10
8.62282e-10
9.40348e-10
1.02943e-09
1.13033e-09
1.24467e-09
1.37381e-09
1.51928e-09
1.68282e-09
1.8664e-09
2.07243e-09
2.30361e-09
2.56241e-09
2.85257e-09
3.17677e-09
3.53981e-09
3.94547e-09
4.39841e-09
4.90475e-09
5.47048e-09
6.10236e-09
6.80733e-09
7.59515e-09
8.47496e-09
9.45567e-09
1.05515e-08
1.17736e-08
1.31401e-08
1.46658e-08
1.63696e-08
1.82754e-08
2.04065e-08
2.2785e-08
2.54511e-08
2.84418e-08
3.17997e-08
3.55561e-08
3.97605e-08
4.4504e-08
4.9846e-08
5.59449e-08
6.2882e-08
7.057e-08
7.9266e-08
8.77686e-08
5.11821e-10
5.20924e-10
5.36856e-10
5.59293e-10
5.88255e-10
6.23728e-10
6.66189e-10
7.16095e-10
7.74e-10
8.40702e-10
9.16967e-10
1.00376e-09
1.10249e-09
1.21396e-09
1.33991e-09
1.48193e-09
1.64175e-09
1.82121e-09
2.02233e-09
2.24808e-09
2.50082e-09
2.78414e-09
3.10098e-09
3.45541e-09
3.8517e-09
4.29472e-09
4.78887e-09
5.34153e-09
5.95853e-09
6.64737e-09
7.41627e-09
8.27532e-09
9.23401e-09
1.03025e-08
1.14965e-08
1.28283e-08
1.43166e-08
1.5977e-08
1.78324e-08
1.99088e-08
2.22266e-08
2.48156e-08
2.77149e-08
3.09659e-08
3.46163e-08
3.86967e-08
4.32636e-08
4.84085e-08
5.4202e-08
6.07993e-08
6.82942e-08
7.6617e-08
8.60767e-08
9.535e-08
4.98595e-10
5.07449e-10
5.23082e-10
5.45076e-10
5.73179e-10
6.07916e-10
6.49271e-10
6.97979e-10
7.54496e-10
8.19645e-10
8.94038e-10
9.7879e-10
1.07501e-09
1.18403e-09
1.30689e-09
1.44549e-09
1.60151e-09
1.77682e-09
1.97354e-09
2.19378e-09
2.44086e-09
2.71739e-09
3.02695e-09
3.3731e-09
3.76011e-09
4.19314e-09
4.67627e-09
5.21564e-09
5.81849e-09
6.4915e-09
7.24264e-09
8.08106e-09
9.01698e-09
1.00626e-08
1.12268e-08
1.25277e-08
1.39794e-08
1.55985e-08
1.74068e-08
1.94284e-08
2.16868e-08
2.42109e-08
2.70267e-08
3.01808e-08
3.37147e-08
3.76835e-08
4.21163e-08
4.7073e-08
5.2659e-08
5.89351e-08
6.60798e-08
7.4168e-08
8.31865e-08
9.34523e-08
1.0357e-07
4.85615e-10
4.94384e-10
5.09658e-10
5.31095e-10
5.58652e-10
5.92432e-10
6.32852e-10
6.803e-10
7.35449e-10
7.98969e-10
8.71737e-10
9.54547e-10
1.04827e-09
1.15466e-09
1.27467e-09
1.4099e-09
1.5622e-09
1.73331e-09
1.92563e-09
2.14107e-09
2.38207e-09
2.6522e-09
2.95461e-09
3.29304e-09
3.67096e-09
4.09355e-09
4.56621e-09
5.09363e-09
5.68211e-09
6.33969e-09
7.07344e-09
7.89281e-09
8.80693e-09
9.82687e-09
1.09657e-08
1.22354e-08
1.36519e-08
1.52323e-08
1.69981e-08
1.89669e-08
2.1166e-08
2.36247e-08
2.63719e-08
2.94336e-08
3.28679e-08
3.67084e-08
4.10218e-08
4.58357e-08
5.12219e-08
5.72796e-08
6.40856e-08
7.18135e-08
8.05499e-08
9.03133e-08
1.01449e-07
1.12484e-07
4.7303e-10
4.81564e-10
4.96483e-10
5.17503e-10
5.44364e-10
5.77349e-10
6.16822e-10
6.63134e-10
7.16915e-10
7.78838e-10
8.49808e-10
9.30618e-10
1.02234e-09
1.12612e-09
1.24313e-09
1.37537e-09
1.52387e-09
1.69103e-09
1.87848e-09
2.0892e-09
2.32486e-09
2.58878e-09
2.88379e-09
3.21454e-09
3.58403e-09
3.99698e-09
4.45809e-09
4.97389e-09
5.54927e-09
6.19128e-09
6.90859e-09
7.70863e-09
8.60171e-09
9.59832e-09
1.07108e-08
1.19504e-08
1.33337e-08
1.48762e-08
1.65997e-08
1.85214e-08
2.06665e-08
2.30606e-08
2.57354e-08
2.87249e-08
3.20575e-08
3.57896e-08
3.99663e-08
4.46562e-08
4.98848e-08
5.57333e-08
6.2306e-08
6.96833e-08
7.80462e-08
8.74783e-08
9.80472e-08
1.10113e-07
1.22148e-07
4.60838e-10
4.69133e-10
4.83742e-10
5.04154e-10
5.30466e-10
5.62667e-10
6.01101e-10
6.46369e-10
6.98802e-10
7.59276e-10
8.28449e-10
9.07313e-10
9.96795e-10
1.09819e-09
1.21242e-09
1.34143e-09
1.48651e-09
1.64972e-09
1.83282e-09
2.03816e-09
2.26878e-09
2.5265e-09
2.8152e-09
3.13771e-09
3.49867e-09
3.90237e-09
4.353e-09
4.85673e-09
5.41916e-09
6.04736e-09
6.74762e-09
7.52958e-09
8.40234e-09
9.37509e-09
1.04622e-08
1.16732e-08
1.30258e-08
1.45332e-08
1.62127e-08
1.80881e-08
2.01823e-08
2.25175e-08
2.51244e-08
2.80368e-08
3.12885e-08
3.49151e-08
3.89721e-08
4.35144e-08
4.8611e-08
5.4291e-08
6.06436e-08
6.77777e-08
7.57739e-08
8.48241e-08
9.50019e-08
1.06439e-07
1.19493e-07
1.32624e-07
4.4884e-10
4.57035e-10
4.71241e-10
4.9125e-10
5.16808e-10
5.48331e-10
5.85797e-10
6.29923e-10
6.81112e-10
7.40155e-10
8.07662e-10
8.84541e-10
9.71919e-10
1.07095e-09
1.18249e-09
1.30832e-09
1.44996e-09
1.60928e-09
1.78808e-09
1.98882e-09
2.21363e-09
2.46588e-09
2.7476e-09
3.06304e-09
3.41566e-09
3.80984e-09
4.25025e-09
4.74236e-09
5.29219e-09
5.90571e-09
6.5908e-09
7.35507e-09
8.2073e-09
9.1591e-09
1.02197e-08
1.14037e-08
1.27245e-08
1.41975e-08
1.58389e-08
1.76702e-08
1.97139e-08
2.19921e-08
2.45343e-08
2.73738e-08
3.05425e-08
3.4082e-08
3.80257e-08
4.24394e-08
4.73768e-08
5.29161e-08
5.9087e-08
6.59829e-08
7.37265e-08
8.2396e-08
9.21897e-08
1.03179e-07
1.15542e-07
1.29658e-07
1.43975e-07
4.37238e-10
4.45272e-10
4.59072e-10
4.78585e-10
5.03604e-10
5.34242e-10
5.70956e-10
6.13914e-10
6.6388e-10
7.21368e-10
7.87226e-10
8.6238e-10
9.4761e-10
1.04407e-09
1.1533e-09
1.27607e-09
1.41438e-09
1.56983e-09
1.74437e-09
1.94034e-09
2.15987e-09
2.40614e-09
2.68188e-09
2.98979e-09
3.3342e-09
3.71967e-09
4.15028e-09
4.63097e-09
5.1679e-09
5.768e-09
6.43723e-09
7.18393e-09
8.0173e-09
8.94707e-09
9.98463e-09
1.11409e-08
1.24314e-08
1.38701e-08
1.54755e-08
1.72643e-08
1.92582e-08
2.14833e-08
2.39655e-08
2.67334e-08
2.98238e-08
3.32707e-08
3.71246e-08
4.14142e-08
4.62143e-08
5.15812e-08
5.76008e-08
6.43043e-08
7.17923e-08
8.0197e-08
8.95973e-08
1.00198e-07
1.12055e-07
1.2543e-07
1.40665e-07
1.56275e-07
4.25932e-10
4.33751e-10
4.47332e-10
4.66253e-10
4.9065e-10
5.20618e-10
5.56364e-10
5.98391e-10
6.47104e-10
7.03202e-10
7.67468e-10
8.40683e-10
9.23843e-10
1.01805e-09
1.12429e-09
1.24457e-09
1.37952e-09
1.53128e-09
1.70174e-09
1.89308e-09
2.10762e-09
2.34781e-09
2.61687e-09
2.91827e-09
3.25495e-09
3.63105e-09
4.05189e-09
4.52206e-09
5.04657e-09
5.63263e-09
6.28732e-09
7.01772e-09
7.83214e-09
8.74027e-09
9.75443e-09
1.0886e-08
1.21459e-08
1.3552e-08
1.51204e-08
1.68696e-08
1.88167e-08
2.09901e-08
2.34125e-08
2.61163e-08
2.91274e-08
3.24935e-08
3.62436e-08
4.04387e-08
4.51028e-08
5.03246e-08
5.61599e-08
6.26981e-08
6.99841e-08
7.81169e-08
8.72343e-08
9.74297e-08
1.08895e-07
1.21705e-07
1.36148e-07
1.52589e-07
1.69603e-07
4.14917e-10
4.22567e-10
4.35785e-10
4.54354e-10
4.78031e-10
5.07247e-10
5.42092e-10
5.83126e-10
6.30649e-10
6.85539e-10
7.48153e-10
8.1959e-10
9.00748e-10
9.92666e-10
1.09645e-09
1.21347e-09
1.34541e-09
1.4937e-09
1.66003e-09
1.84688e-09
2.0562e-09
2.29113e-09
2.55396e-09
2.8481e-09
3.17723e-09
3.54512e-09
3.95573e-09
4.4154e-09
4.92816e-09
5.50109e-09
6.14017e-09
6.85439e-09
7.65108e-09
8.53917e-09
9.53049e-09
1.06359e-08
1.1868e-08
1.32426e-08
1.47752e-08
1.64843e-08
1.83887e-08
2.05103e-08
2.28771e-08
2.55161e-08
2.84585e-08
3.17396e-08
3.54008e-08
3.9484e-08
4.40468e-08
4.91202e-08
5.47996e-08
6.11433e-08
6.82461e-08
7.6159e-08
8.49964e-08
9.48894e-08
1.05941e-07
1.18353e-07
1.32183e-07
1.47785e-07
1.65493e-07
1.84058e-07
4.04244e-10
4.11666e-10
4.24629e-10
4.42647e-10
4.65849e-10
4.94277e-10
5.28246e-10
5.68192e-10
6.14646e-10
6.68088e-10
7.29368e-10
7.98943e-10
8.78049e-10
9.67757e-10
1.06924e-09
1.1834e-09
1.31209e-09
1.45682e-09
1.61941e-09
1.80187e-09
2.00629e-09
2.23531e-09
2.49209e-09
2.77942e-09
3.10097e-09
3.46068e-09
3.86237e-09
4.31089e-09
4.81248e-09
5.37207e-09
5.99745e-09
6.69483e-09
7.47359e-09
8.34283e-09
9.31178e-09
1.03918e-08
1.15962e-08
1.29408e-08
1.44381e-08
1.61084e-08
1.79699e-08
2.00451e-08
2.23565e-08
2.4934e-08
2.78088e-08
3.10128e-08
3.45833e-08
3.8569e-08
4.30122e-08
4.79751e-08
5.3494e-08
5.96697e-08
6.6568e-08
7.42863e-08
8.28816e-08
9.24769e-08
1.03213e-07
1.15204e-07
1.28628e-07
1.43583e-07
1.60408e-07
1.79493e-07
1.99732e-07
3.93818e-10
4.01095e-10
4.13644e-10
4.31333e-10
4.53867e-10
4.81601e-10
5.14812e-10
5.53705e-10
5.98931e-10
6.51092e-10
7.1079e-10
7.78946e-10
8.56062e-10
9.43553e-10
1.04226e-09
1.154e-09
1.2795e-09
1.42081e-09
1.57956e-09
1.75757e-09
1.95742e-09
2.18098e-09
2.43182e-09
2.71247e-09
3.02621e-09
3.37767e-09
3.7704e-09
4.20933e-09
4.69887e-09
5.24662e-09
5.8572e-09
6.53894e-09
7.30042e-09
8.1494e-09
9.09779e-09
1.0153e-08
1.13316e-08
1.2645e-08
1.41098e-08
1.57423e-08
1.75618e-08
1.95913e-08
2.1851e-08
2.43702e-08
2.71756e-08
3.03061e-08
3.37947e-08
3.76818e-08
4.20194e-08
4.68545e-08
5.22545e-08
5.82549e-08
6.4972e-08
7.24686e-08
8.08548e-08
9.01943e-08
1.00613e-07
1.12271e-07
1.2527e-07
1.39812e-07
1.55946e-07
1.7414e-07
1.94655e-07
2.16699e-07
3.8364e-10
3.90715e-10
4.02983e-10
4.20193e-10
4.4229e-10
4.69287e-10
5.01575e-10
5.3959e-10
5.83683e-10
6.34511e-10
6.92756e-10
7.59172e-10
8.34635e-10
9.19916e-10
1.01646e-09
1.12515e-09
1.24766e-09
1.38565e-09
1.54048e-09
1.71449e-09
1.90928e-09
2.12821e-09
2.37257e-09
2.64708e-09
2.95364e-09
3.29659e-09
3.68037e-09
4.10932e-09
4.58818e-09
5.12279e-09
5.72007e-09
6.38743e-09
7.13042e-09
7.96121e-09
8.88746e-09
9.92134e-09
1.1073e-08
1.23569e-08
1.37897e-08
1.5385e-08
1.71642e-08
1.91477e-08
2.13581e-08
2.38219e-08
2.65628e-08
2.96214e-08
3.30272e-08
3.68252e-08
4.10585e-08
4.57787e-08
5.10401e-08
5.69154e-08
6.34407e-08
7.07452e-08
7.88928e-08
8.80042e-08
9.81472e-08
1.09467e-07
1.22109e-07
1.36215e-07
1.51946e-07
1.69415e-07
1.89024e-07
2.11102e-07
2.35132e-07
3.73758e-10
3.80678e-10
3.92618e-10
4.09378e-10
4.30883e-10
4.57331e-10
4.88766e-10
5.25849e-10
5.68828e-10
6.18447e-10
6.75206e-10
7.39931e-10
8.13585e-10
8.96879e-10
9.90942e-10
1.09713e-09
1.21674e-09
1.35127e-09
1.50249e-09
1.67219e-09
1.86276e-09
2.07599e-09
2.31525e-09
2.58266e-09
2.88235e-09
3.21772e-09
3.59225e-09
4.01128e-09
4.47973e-09
5.00241e-09
5.58601e-09
6.23727e-09
6.96574e-09
7.77691e-09
8.68305e-09
9.69311e-09
1.08202e-08
1.2076e-08
1.34754e-08
1.50376e-08
1.6776e-08
1.87165e-08
2.08753e-08
2.32847e-08
2.59683e-08
2.89543e-08
3.22844e-08
3.59943e-08
4.01294e-08
4.47351e-08
4.98752e-08
5.55965e-08
6.19896e-08
6.90862e-08
7.70278e-08
8.58854e-08
9.5782e-08
1.06807e-07
1.19093e-07
1.32816e-07
1.48109e-07
1.65162e-07
1.84028e-07
2.05198e-07
2.28952e-07
2.55115e-07
3.64121e-10
3.70933e-10
3.82547e-10
3.98861e-10
4.19804e-10
4.4555e-10
4.76276e-10
5.12385e-10
5.54364e-10
6.02672e-10
6.58137e-10
7.21179e-10
7.92873e-10
8.74341e-10
9.66069e-10
1.06971e-09
1.1863e-09
1.31783e-09
1.46526e-09
1.63108e-09
1.81701e-09
2.02549e-09
2.25883e-09
2.52021e-09
2.81283e-09
3.14027e-09
3.5063e-09
3.91575e-09
4.37276e-09
4.88474e-09
5.455e-09
6.09226e-09
6.80315e-09
7.59711e-09
8.48279e-09
9.46987e-09
1.05712e-08
1.18012e-08
1.31709e-08
1.46961e-08
1.6399e-08
1.82948e-08
2.04068e-08
2.27616e-08
2.53829e-08
2.83069e-08
3.15596e-08
3.51875e-08
3.92245e-08
4.37285e-08
4.87416e-08
5.43326e-08
6.05606e-08
6.7512e-08
7.5234e-08
8.38653e-08
9.34941e-08
1.04244e-07
1.16218e-07
1.2957e-07
1.44459e-07
1.61054e-07
1.79492e-07
1.99929e-07
2.22757e-07
2.48315e-07
2.76799e-07
3.54782e-10
3.6133e-10
3.72764e-10
3.88638e-10
4.09029e-10
4.3411e-10
4.64081e-10
4.99311e-10
5.40187e-10
5.87322e-10
6.41345e-10
7.02991e-10
7.7287e-10
8.52171e-10
9.41923e-10
1.04303e-09
1.15684e-09
1.28493e-09
1.42908e-09
1.59075e-09
1.77225e-09
1.97583e-09
2.20384e-09
2.4593e-09
2.74474e-09
3.06464e-09
3.42251e-09
3.82219e-09
4.26912e-09
4.76838e-09
5.32664e-09
5.9497e-09
6.64407e-09
7.42123e-09
8.2858e-09
9.25214e-09
1.03296e-08
1.15317e-08
1.2871e-08
1.43639e-08
1.60286e-08
1.78827e-08
1.99495e-08
2.22522e-08
2.48178e-08
2.76738e-08
3.08552e-08
3.44006e-08
3.83503e-08
4.27466e-08
4.76469e-08
5.31048e-08
5.91889e-08
6.5965e-08
7.3525e-08
8.19249e-08
9.13065e-08
1.01773e-07
1.13453e-07
1.26452e-07
1.40954e-07
1.57113e-07
1.75113e-07
1.95103e-07
2.17207e-07
2.41841e-07
2.6935e-07
3.00366e-07
3.45691e-10
3.52071e-10
3.63121e-10
3.78708e-10
3.98559e-10
4.23033e-10
4.52231e-10
4.86538e-10
5.26425e-10
5.72391e-10
6.24997e-10
6.85124e-10
7.53393e-10
8.30647e-10
9.18182e-10
1.01683e-09
1.128e-09
1.25304e-09
1.39344e-09
1.55153e-09
1.72849e-09
1.92713e-09
2.14977e-09
2.39935e-09
2.67834e-09
2.9906e-09
3.33978e-09
3.73081e-09
4.1674e-09
4.65561e-09
5.20045e-09
5.80966e-09
6.48982e-09
7.24819e-09
8.09366e-09
9.03939e-09
1.00928e-08
1.12681e-08
1.25779e-08
1.40388e-08
1.56659e-08
1.74803e-08
1.95015e-08
2.17544e-08
2.42616e-08
2.7059e-08
3.01705e-08
3.36387e-08
3.74955e-08
4.17971e-08
4.65842e-08
5.19187e-08
5.78558e-08
6.448e-08
7.18503e-08
8.00713e-08
8.92015e-08
9.9403e-08
1.10777e-07
1.23471e-07
1.37586e-07
1.53332e-07
1.70879e-07
1.90402e-07
2.12041e-07
2.35991e-07
2.62574e-07
2.92232e-07
3.25956e-07
3.36844e-10
3.43056e-10
3.53821e-10
3.68922e-10
3.88385e-10
4.12163e-10
4.40652e-10
4.74133e-10
5.13038e-10
5.57818e-10
6.09138e-10
6.67706e-10
7.34259e-10
8.09684e-10
8.9495e-10
9.91311e-10
1.09971e-09
1.22172e-09
1.35892e-09
1.5129e-09
1.68583e-09
1.8798e-09
2.09703e-09
2.34044e-09
2.6134e-09
2.91816e-09
3.25954e-09
3.64114e-09
4.06768e-09
4.54462e-09
5.07779e-09
5.67273e-09
6.33741e-09
7.0795e-09
7.90635e-09
8.82995e-09