/*--------------------------------*- C++ -*----------------------------------*\
| =========                 |                                                 |
| \\      /  F ield         | OpenFOAM: The Open Source CFD Toolbox           |
|  \\    /   O peration     | Version:  v2012                                 |
|   \\  /    A nd           | Website:  www.openfoam.com                      |
|    \\/     M anipulation  |                                                 |
\*---------------------------------------------------------------------------*/
FoamFile
{
    version     2.0;
    format      ascii;
    class       volScalarField;
    location    "3800";
    object      wallHeatFlux;
}
// * * * * * * * * * * * * * * * * * * * * * * * * * * * * * * * * * * * * * //

dimensions      [1 0 -3 0 0 0 0];


internalField   uniform 0;

boundaryField
{
    base
    {
        type            calculated;
        value           nonuniform List<scalar> 
298
(
-321933
-57395.6
-53395.7
-55096.2
-55510.7
-55461.6
-55205.3
-54733.2
-54253.5
-53714.4
-53220.9
-52806.2
-52495.1
-52201.8
-51814.4
-51540.1
-51282.9
-51054.2
-50854.3
-50619.4
-50419.6
-50252.3
-50082.5
-49934.5
-49832.4
-49708.1
-49540.2
-49371
-49227.7
-49133.1
-49055.3
-48971.2
-48875.7
-48769.6
-48653.1
-48541.4
-48423.1
-48319.5
-48224.8
-48151.1
-48091.1
-48065.7
-48041.8
-48017.7
-47993.5
-47958.4
-47910.8
-47852.5
-47774.1
-47684.1
-47578.6
-47470.3
-47367.3
-47280.5
-47195.5
-47128.1
-47066.1
-47015.1
-46980.5
-46945.9
-46932.7
-46930.9
-46933.1
-46941.2
-46943.5
-46951.3
-46960.2
-46971.4
-46973.2
-46968
-46963.4
-46953.5
-46946.1
-46939.3
-46924.5
-46907.2
-46889.9
-46871.9
-46845.9
-46820.7
-46796.5
-46766.8
-46737.2
-46707.8
-46678.8
-46643.7
-46615.5
-46580.7
-46552.8
-46518.2
-46484.9
-46456.6
-46423.1
-46389.8
-46356.7
-46323.6
-46296.1
-46268.7
-46241.9
-46213.9
-46193.3
-46170.9
-46150.1
-46129
-46113.9
-46098
-46082.4
-46068
-46053.3
-46044.3
-46030.1
-46032.3
-46067.5
-46122.7
-46185.7
-46254.5
-46316.4
-46370.2
-46429.2
-46478.7
-46527.4
-46571.8
-46608
-46655.2
-46698.2
-46743.3
-46785
-46839
-46890.4
-46949.9
-47008.5
-47068.4
-47130.6
-47195.2
-47238.8
-47308.9
-47328.2
-47231.8
-46306.4
-42327.1
-33837.3
-27180.6
-32799.4
-42224
-49123.4
-55006
-58349.6
-64967.2
-74612
-96296.5
-131442
-179361
-230300
-284218
-335341
-397834
-464204
-525746
-582490
-634402
-682189
-723351
-757938
-783703
-805614
-831901
-870398
-921803
-982817
-1.05127e+06
-1.12738e+06
-1.20221e+06
-1.27251e+06
-1.33868e+06
-1.4047e+06
-1.45422e+06
-1.49512e+06
-1.52747e+06
-1.54748e+06
-1.55769e+06
-1.55637e+06
-1.54552e+06
-1.5289e+06
-1.51217e+06
-1.49882e+06
-1.48187e+06
-1.47326e+06
-1.43941e+06
-1.40961e+06
-1.38854e+06
-1.37821e+06
-1.35456e+06
-1.33417e+06
-1.31789e+06
-1.30043e+06
-1.28524e+06
-1.28124e+06
-1.26203e+06
-1.25038e+06
-1.24218e+06
-1.24398e+06
-1.23025e+06
-1.22126e+06
-1.21571e+06
-1.2089e+06
-1.19907e+06
-1.19077e+06
-1.21117e+06
-1.18982e+06
-1.1782e+06
-1.17218e+06
-1.17657e+06
-1.16889e+06
-1.1623e+06
-1.15715e+06
-1.15278e+06
-1.15642e+06
-1.15272e+06
-1.14561e+06
-1.15437e+06
-1.14278e+06
-1.15209e+06
-1.13727e+06
-1.13191e+06
-1.12882e+06
-1.1357e+06
-1.12581e+06
-1.12924e+06
-1.12001e+06
-1.13262e+06
-1.11934e+06
-1.11134e+06
-1.12754e+06
-1.11554e+06
-1.09921e+06
-1.10134e+06
-1.09746e+06
-1.09695e+06
-1.10282e+06
-1.43279e+06
-1.27372e+06
-1.29505e+06
-1.06791e+06
-1.06924e+06
-1.12065e+06
-1.21304e+06
-1.40331e+06
-1.6441e+06
-1.28017e+06
-1.25696e+06
-1.04663e+06
-1.29303e+06
-1.04427e+06
-1.30687e+06
-1.73642e+06
-1.61801e+06
-1.02582e+06
-1.69169e+06
-1.54163e+06
-1.50059e+06
-1.47702e+06
-1.2086e+06
-1.7537e+06
-1.63914e+06
-1.27156e+06
-1.27627e+06
-1.04353e+06
-987676
-980868
-987866
-1.96833e+06
-1.00708e+06
-1.8804e+06
-1.28065e+06
-1.60158e+06
-1.6935e+06
-988824
-1.61495e+06
-1.75071e+06
-1.69758e+06
-885324
-1.96133e+06
-1.6352e+06
-959517
-1.43583e+06
-1.31252e+06
-1.52437e+06
-1.33817e+06
-1.84597e+06
-1.78965e+06
-1.43603e+06
-827533
-1.70776e+06
-1.57977e+06
-1.84173e+06
-1.39058e+06
-855829
-2.05217e+06
)
;
    }
    frontAndBack
    {
        type            empty;
    }
    inlet
    {
        type            calculated;
        value           uniform 0;
    }
    outlet
    {
        type            calculated;
        value           uniform 0;
    }
    top
    {
        type            calculated;
        value           uniform 0;
    }
}


// ************************************************************************* //
