/*--------------------------------*- C++ -*----------------------------------*\
| =========                 |                                                 |
| \\      /  F ield         | OpenFOAM: The Open Source CFD Toolbox           |
|  \\    /   O peration     | Version:  v2012                                 |
|   \\  /    A nd           | Website:  www.openfoam.com                      |
|    \\/     M anipulation  |                                                 |
\*---------------------------------------------------------------------------*/
FoamFile
{
    version     2.0;
    format      ascii;
    class       volScalarField;
    location    "3800";
    object      xx;
}
// * * * * * * * * * * * * * * * * * * * * * * * * * * * * * * * * * * * * * //

dimensions      [0 0 0 0 0 0 0];


internalField   nonuniform List<scalar> 
29502
(
0.000646019
2.33107e-05
0.000494292
2.30795e-05
2.03545e-05
0.000436365
2.76858e-05
6.57878e-05
1.96685e-05
0.000394907
3.0723e-05
9.48437e-05
0.00081254
2.39126e-05
0.00038
3.25043e-05
0.000110009
0.00123911
0.0050282
3.97599e-05
0.000387954
3.33786e-05
0.000118163
0.00144452
0.00766651
0.0187037
7.4627e-05
0.00041341
3.36228e-05
0.000121888
0.001547
0.0088902
0.0283679
0.0501264
0.000133667
0.000448432
3.35789e-05
0.000122735
0.00158574
0.00946795
0.0327199
0.0754164
0.106726
0.000215933
0.000489158
3.3244e-05
0.000122274
0.00158751
0.00964632
0.0346832
0.0864982
0.15912
0.191879
0.000319864
0.000535564
3.27987e-05
0.000120589
0.00157328
0.00961491
0.0351851
0.091312
0.1815
0.284004
0.304147
0.000435892
0.000588732
3.2403e-05
0.000118633
0.00154545
0.00949383
0.0349772
0.0923688
0.190923
0.322525
0.448878
0.43421
0.000553424
0.000650081
3.21208e-05
0.00011692
0.00151686
0.00930662
0.0344653
0.0917176
0.192802
0.33833
0.50854
0.64947
0.565499
0.000668418
0.000720962
3.17941e-05
0.000115708
0.00149196
0.00912477
0.0337598
0.0903113
0.191425
0.341371
0.532518
0.735726
0.861121
0.709799
0.000770635
0.000802871
3.12807e-05
0.000114184
0.00147399
0.00896707
0.0330963
0.0884993
0.188552
0.339119
0.537215
0.768596
0.980895
1.09912
0.867078
0.000872119
0.000897361
3.09244e-05
0.000111971
0.00145221
0.00885069
0.0325204
0.0868218
0.184998
0.334345
0.53414
0.775533
1.02676
1.26293
1.36631
1.03586
0.000966575
0.00100627
3.05691e-05
0.000110515
0.00142252
0.00871484
0.0320892
0.0853714
0.181732
0.328573
0.527229
0.771954
1.03715
1.32594
1.58637
1.66336
1.21765
0.00105793
0.00113146
3.02442e-05
0.000109013
0.00140313
0.00853776
0.0315965
0.0842637
0.178916
0.323278
0.518989
0.763429
1.03329
1.34135
1.67182
1.95306
1.98984
1.41885
0.00116941
0.00127512
2.99847e-05
0.000107664
0.00138326
0.00842083
0.0309739
0.0830141
0.176723
0.318716
0.511399
0.75326
1.02261
1.33775
1.69434
2.06801
2.36219
2.34244
1.61404
0.00126289
0.00144004
2.96663e-05
0.000106599
0.00136556
0.00830239
0.0305588
0.0814715
0.174264
0.315107
0.504864
0.743557
1.00983
1.32492
1.69198
2.10032
2.51554
2.81255
2.71839
1.79975
0.00130949
0.0016288
2.93771e-05
0.00010526
0.00135181
0.00819762
0.0301426
0.0804349
0.171283
0.311067
0.499629
0.734938
0.998074
1.30934
1.67722
2.10074
2.56148
3.01701
3.30283
3.10866
1.97988
0.00129421
0.00184475
2.91383e-05
0.000104077
0.00133474
0.00811697
0.0297754
0.0794006
0.169263
0.306225
0.493746
0.727946
0.988032
1.29483
1.65881
2.08466
2.56705
3.08177
3.57318
3.83177
3.50294
2.15597
0.00123561
0.00209151
2.89092e-05
0.000103156
0.00131989
0.0080187
0.0294947
0.0784933
0.167258
0.302929
0.486779
0.720071
0.97992
1.28255
1.64123
2.06341
2.55042
3.09588
3.66399
4.18295
4.39569
3.89252
2.33539
0.00114566
0.00237257
2.86891e-05
0.000102239
0.00130852
0.00793378
0.0291576
0.0777984
0.165499
0.299667
0.482015
0.710814
0.970555
1.27254
1.62637
2.04257
2.52699
3.07992
3.6914
4.31061
4.84348
4.98519
4.2689
2.53509
0.00107404
0.00269221
2.85364e-05
0.000101353
0.00129716
0.00786913
0.0288675
0.076975
0.164155
0.296816
0.477321
0.704471
0.959748
1.2609
1.61416
2.02497
2.50282
3.05498
3.67813
4.35697
5.02299
5.55112
5.58758
4.62173
2.77244
0.00103815
0.00305409
2.83677e-05
0.000100736
0.0012863
0.00780478
0.0286478
0.0762694
0.162574
0.294632
0.473221
0.698241
0.95246
1.24764
1.59997
2.01047
2.48266
3.02782
3.65265
4.34934
5.09482
5.80014
6.30068
6.18976
4.93841
2.98631
0.00107838
0.00346235
2.81342e-05
0.000100035
0.00127877
0.00774331
0.0284286
0.0757363
0.161226
0.292077
0.470071
0.692808
0.945283
1.23856
1.58368
1.9934
2.46568
3.00499
3.62292
4.32527
5.09746
5.90664
6.63871
7.08318
6.77718
5.20648
2.9404
0.00118504
0.00392143
2.78962e-05
9.90634e-05
0.00127025
0.0077017
0.0282218
0.0752038
0.160206
0.289907
0.466407
0.688626
0.93905
1.22969
1.57254
1.97367
2.44563
2.98523
3.59752
4.29352
5.07786
5.92602
6.79249
7.5332
7.88656
7.33325
5.41785
2.79055
0.00137021
0.00443775
2.77002e-05
9.81302e-05
0.00125838
0.00765449
0.0280822
0.0747047
0.159193
0.288265
0.463301
0.68377
0.93426
1.22203
1.56181
1.96035
2.42237
2.96219
3.5752
4.26613
5.04546
5.9146
6.83721
7.7513
8.47623
8.69552
7.84194
5.57608
2.5284
0.00163846
0.00503183
2.75913e-05
9.73975e-05
0.00124727
0.00758884
0.0279261
0.0743726
0.158244
0.286634
0.460956
0.679672
0.928638
1.21623
1.55239
1.94744
2.40656
2.93517
3.54904
4.2417
5.01667
5.88353
6.83884
7.83064
8.77951
9.45698
9.49196
8.28843
5.71198
2.15624
0.0019962
0.00558618
2.75063e-05
9.70417e-05
0.00123887
0.00752803
0.0277076
0.0739996
0.15762
0.285115
0.458629
0.676589
0.923972
1.20936
1.54528
1.93614
2.39118
2.91677
3.51792
4.21267
4.99058
5.85501
6.81222
7.85025
8.9012
9.87048
10.4609
10.2544
8.66185
5.89035
1.69643
0.00241478
0.00609098
2.74127e-05
9.67538e-05
0.00123529
0.00748345
0.0275081
0.0734819
0.156919
0.284124
0.456472
0.673537
0.920549
1.20359
1.53694
1.9274
2.37785
2.89873
3.49695
4.17722
4.9594
5.82826
6.78597
7.83155
8.94068
10.034
11.0141
11.47
10.9595
8.96066
6.21505
1.20003
0.00287729
0.00666823
2.72854e-05
9.64006e-05
0.00123245
0.00746632
0.0273654
0.0730107
0.155945
0.283005
0.455072
0.670704
0.917177
1.19942
1.52995
1.91734
2.3676
2.88301
3.47626
4.15342
4.91966
5.79506
6.75931
7.81012
8.93284
10.107
11.2476
12.1964
12.4615
11.5824
9.18963
6.68344
0.749034
0.00340865
0.00734133
2.71354e-05
9.58767e-05
0.00122871
0.00745335
0.0273156
0.0726824
0.155068
0.281464
0.453489
0.668879
0.913983
1.19528
1.5249
1.90904
2.35572
2.87116
3.45806
4.13014
4.89284
5.75135
6.72481
7.7853
8.91928
10.1173
11.3667
12.5376
13.3997
13.4096
12.0984
9.35174
6.4097
0.415736
0.00400532
0.00804656
2.69655e-05
9.52648e-05
0.00122273
0.00743529
0.0272804
0.0725772
0.154468
0.280083
0.451317
0.666816
0.91201
1.19137
1.51987
1.90302
2.34584
2.85747
3.44437
4.10954
4.86673
5.72181
6.67778
7.75027
8.89796
10.116
11.4036
12.7182
13.8956
14.6012
14.2828
12.4957
9.47488
5.84684
0.212964
0.00465174
0.00873034
2.67946e-05
9.45619e-05
0.00121553
0.00740445
0.0272275
0.0725092
0.154292
0.279163
0.449386
0.663987
0.909753
1.18902
1.51517
1.89703
2.33869
2.84592
3.42869
4.09388
4.84391
5.69306
6.64627
7.69999
8.86227
10.1019
11.4205
12.7926
14.1572
15.3092
15.772
15.0504
12.7824
9.66939
5.03638
0.102885
0.00532227
0.00938809
2.66314e-05
9.38815e-05
0.00120731
0.00736641
0.0271318
0.0723976
0.154189
0.278912
0.448124
0.661484
0.906573
1.18628
1.51228
1.8915
2.33173
2.83744
3.41549
4.07583
4.82642
5.66774
6.61522
7.6672
8.80722
10.0694
11.4181
12.8357
14.283
15.6754
16.7167
16.8793
15.6833
12.9789
10.1268
4.01321
0.0491296
0.00602592
0.00997066
2.64796e-05
9.32374e-05
0.00119929
0.00732201
0.0270105
0.0721839
0.154003
0.278781
0.447804
0.659879
0.903753
1.18232
1.50889
1.88801
2.32532
2.82949
3.40586
4.061
4.80594
5.64838
6.58707
7.63397
8.77408
10.0133
11.392
12.8508
14.3626
15.8702
17.2602
18.0898
17.8844
16.1565
13.1294
10.7354
2.90061
0.0237782
0.00676833
0.0103845
2.63624e-05
9.26693e-05
0.00119182
0.00727929
0.0268674
0.0719048
0.153618
0.278508
0.447659
0.659512
0.902004
1.17894
1.50416
1.88396
2.32129
2.82198
3.39667
4.05029
4.78935
5.62598
6.56588
7.60374
8.73771
9.98065
11.3367
12.8353
14.4029
15.9996
17.5456
18.8911
19.3994
18.7467
16.4661
13.2925
10.0021
1.91987
0.0130354
0.00750959
0.0104476
2.62791e-05
9.22456e-05
0.00118541
0.0072401
0.0267303
0.0715736
0.153111
0.277928
0.447311
0.659382
0.901819
1.17692
1.50014
1.87859
2.31659
2.81739
3.38787
4.03986
4.77724
5.60769
6.54193
7.58073
8.70648
9.94344
11.3065
12.7841
14.4039
16.075
17.7414
19.2959
20.4655
20.6088
19.4271
16.6414
13.6
8.88676
1.18284
0.00904851
0.00811981
0.0104511
2.62143e-05
9.19506e-05
0.00118061
0.00720607
0.0266055
0.0712579
0.152505
0.277147
0.446526
0.658979
0.901917
1.17684
1.49779
1.87375
2.31033
2.81217
3.38292
4.0301
4.76576
5.59416
6.52218
7.55454
8.68208
9.91136
11.2698
12.7588
14.361
16.1001
17.8648
19.5786
21.1017
21.9636
21.6713
19.9002
16.7471
14.2485
7.37846
0.684686
0.00780857
0.00862529
0.0101134
2.61988e-05
9.17593e-05
0.00117768
0.00718161
0.026499
0.0709751
0.151929
0.276206
0.445444
0.657992
0.901542
1.17705
1.49761
1.87092
2.30455
2.80469
3.37709
4.02451
4.75519
5.58154
6.50726
7.53303
8.6517
9.8864
11.238
12.7245
14.344
16.0711
17.9239
19.766
21.4965
22.8841
23.3516
22.5361
20.1673
16.8905
14.5009
5.57265
0.36555
0.00768174
0.00885234
0.00976528
2.61995e-05
9.17553e-05
0.00117599
0.00716747
0.0264225
0.0707315
0.15142
0.275318
0.444143
0.656602
0.90045
1.17672
1.49802
1.87083
2.30129
2.79793
3.36843
4.01788
4.74904
5.56971
6.49341
7.51674
8.62804
9.8544
11.2133
12.6947
14.3148
16.0673
17.9166
19.8719
21.7678
23.4733
24.5613
24.5834
23.1596
20.2756
17.2603
13.289
3.86092
0.17504
0.0078799
0.00886028
0.00949666
2.62014e-05
9.18056e-05
0.00117683
0.00716168
0.0263825
0.0705628
0.150985
0.274544
0.442922
0.654931
0.898924
1.17545
1.49784
1.87139
2.30156
2.79428
3.36072
4.0082
4.74188
5.5634
6.48053
7.50179
8.6102
9.82973
11.1804
12.6716
14.2891
16.047
17.9321
19.8965
21.9367
23.8528
25.4241
26.1057
25.6024
23.5231
20.3371
18.0543
11.509
2.49005
0.0767487
0.00806704
0.00888189
0.00929836
2.61907e-05
9.1841e-05
0.00117815
0.00716916
0.0263717
0.070481
0.150684
0.273876
0.44187
0.65338
0.897101
1.1736
1.4964
1.8712
2.30215
2.79462
3.35651
3.99956
4.73134
5.55607
6.47386
7.48791
8.59275
9.81123
11.1554
12.6388
14.2696
16.0285
17.9257
19.9395
22.0061
24.1046
25.9964
27.2509
27.4745
26.3551
23.6619
20.5301
18.365
9.13541
1.42955
0.0330973
0.00821026
0.00892602
0.00910887
2.61639e-05
9.18157e-05
0.00117928
0.0071803
0.0264075
0.0704774
0.150561
0.273435
0.440969
0.652062
0.89543
1.17141
1.49415
1.86955
2.30195
2.79553
3.35672
3.99458
4.7215
5.54492
6.46617
7.4806
8.57657
9.79305
11.1367
12.6142
14.2384
16.0151
17.9187
19.9537
22.087
24.2354
26.3555
28.0853
28.9288
28.6123
26.8086
23.6878
21.1658
16.8107
6.74496
0.746508
0.0163935
0.00835249
0.00895506
0.00898332
2.61104e-05
9.16993e-05
0.00117952
0.00719013
0.0264541
0.0705791
0.150584
0.273277
0.440398
0.650938
0.893989
1.16934
1.49145
1.86692
2.30024
2.7956
3.35843
3.9949
4.7158
5.53362
6.45383
7.47145
8.56785
9.77613
11.1183
12.5963
14.2156
15.9876
17.9151
19.9638
22.1306
24.3676
26.5682
28.6604
30.0358
30.409
29.455
26.9898
23.8099
22.2864
14.57
4.55281
0.342003
0.0106126
0.00847982
0.00894056
0.00891627
2.60326e-05
9.14934e-05
0.00117865
0.00719494
0.026497
0.0707124
0.150809
0.273362
0.440225
0.650251
0.892809
1.16766
1.48902
1.86373
2.29707
2.79372
3.35898
3.99747
4.71644
5.52757
6.44155
7.45712
8.55531
9.7675
11.101
12.5782
14.1995
15.9685
17.8942
19.9747
22.165
24.4517
26.7685
28.9803
30.8674
31.8135
31.6297
29.966
27.002
24.3095
21.33
11.5902
2.70112
0.138471
0.00873916
0.00849155
0.00891705
0.00887757
2.59319e-05
9.11685e-05
0.00117641
0.00719219
0.0265229
0.0708339
0.151091
0.273764
0.440405
0.650093
0.892176
1.16633
1.48703
1.86089
2.29335
2.79018
3.35679
3.99823
4.71972
5.52873
6.43525
7.44467
8.53861
9.75429
11.0929
12.5612
14.1828
15.9558
17.8813
19.9643
22.1967
24.52
26.9073
29.269
31.4377
32.9107
33.369
32.5209
30.1502
27.0332
25.3014
19.0825
8.66298
1.35919
0.0545204
0.00825441
0.00847814
0.00890056
0.00882556
2.58008e-05
9.07251e-05
0.00117261
0.00718167
0.0265208
0.0709168
0.151354
0.274256
0.441035
0.650416
0.892182
1.16569
1.48543
1.85856
2.29004
2.78591
3.35276
3.99621
4.72088
5.53265
6.43726
7.43837
8.52525
9.73639
11.0793
12.5541
14.1669
15.9418
17.8741
19.9611
22.202
24.5803
27.0212
29.4802
31.8397
33.739
34.7548
34.6246
33.0268
30.0908
27.4247
25.3113
15.9556
5.82941
0.59777
0.0237259
0.0081477
0.00848412
0.00888497
0.00878936
2.56496e-05
9.01907e-05
0.00116734
0.00716197
0.0264907
0.0709242
0.151536
0.274715
0.441786
0.651306
0.892715
1.16576
1.48468
1.85677
2.28743
2.78211
3.34806
3.99152
4.71893
5.53442
6.44163
7.44085
8.52004
9.7222
11.0604
12.5406
14.1618
15.9283
17.8648
19.9624
22.213
24.6082
27.1206
29.6549
32.1449
34.3814
35.8443
36.3333
35.494
33.1375
30.03
28.432
22.9274
12.4974
3.30136
0.236193
0.0129728
0.00810939
0.00849909
0.00892086
0.00894532
2.54963e-05
8.95717e-05
0.00116084
0.00713354
0.0264292
0.0708639
0.151576
0.275053
0.4425
0.652378
0.893966
1.16659
1.48495
1.85603
2.28536
2.77924
3.34372
3.98617
4.71389
5.53231
6.44356
7.44453
8.52266
9.7173
11.0456
12.521
14.149
15.9263
17.8554
19.9603
22.2268
24.6396
27.1798
29.8062
32.399
34.8652
36.7312
37.709
37.5526
35.9112
32.9839
30.4248
28.7893
19.6796
8.93205
1.54537
0.0885351
0.00941856
0.00809111
0.00858079
0.00897606
0.00899337
2.53487e-05
8.8939e-05
0.00115318
0.00709789
0.0263374
0.0707258
0.151479
0.27514
0.443018
0.653373
0.895358
1.16819
1.48611
1.85652
2.28461
2.77677
3.34057
3.98149
4.70769
5.52701
6.44137
7.44533
8.52723
9.72112
11.0412
12.5059
14.1292
15.9152
17.8581
19.9573
22.2352
24.6708
27.2395
29.9079
32.6183
35.2213
37.4421
38.8561
39.2524
38.3253
35.9058
32.9034
31.5014
26.1138
15.6981
5.46262
0.639768
0.0346533
0.00829973
0.00813234
0.00869277
0.00881108
0.0089255
2.52032e-05
8.83435e-05
0.00114544
0.00705557
0.0262204
0.070513
0.151233
0.275007
0.443178
0.654116
0.896705
1.16996
1.48814
1.85794
2.28519
2.7759
3.33767
3.97779
4.70258
5.52029
6.43533
7.44205
8.52865
9.72715
11.0467
12.5026
14.1143
15.8961
17.85
19.9666
22.2416
24.6944
27.2946
30.0058
32.7765
35.5282
38.0159
39.8027
40.6919
40.3802
38.6073
35.6828
33.4024
31.7025
22.5653
11.5906
2.7039
0.243355
0.0161276
0.00798367
0.00825656
0.00864718
0.00867771
0.00891232
2.50833e-05
8.77903e-05
0.00113822
0.00701229
0.0260799
0.0702377
0.150842
0.274633
0.443016
0.654361
0.89765
1.17168
1.49054
1.86053
2.28713
2.77676
3.33696
3.9746
4.69873
5.51438
6.42818
7.43513
8.52547
9.72948
11.0546
12.5103
14.1127
15.8821
17.8326
19.9634
22.2606
24.7142
27.3392
30.0936
32.9251
35.7605
38.4944
40.5971
41.8991
42.1478
41.0035
38.4782
35.6343
34.5882
28.6301
18.0558
7.45577
1.12944
0.0886262
0.0101932
0.00795717
0.00828365
0.00858211
0.00862247
0.00891063
2.49791e-05
8.7312e-05
0.00113138
0.00697161
0.0259347
0.0699049
0.150329
0.274024
0.442506
0.654171
0.897993
1.17294
1.49262
1.86361
2.29046
2.77919
3.33834
3.97402
4.69525
5.51042
6.42132
7.42713
8.51804
9.72655
11.0581
12.5205
14.1231
15.8828
17.8206
19.9494
22.2646
24.7463
27.3776
30.1666
33.0563
35.9753
38.8228
41.2609
42.9311
43.6525
43.12
41.1111
38.2037
36.3293
34.0183
24.6681
13.4326
3.80146
0.429533
0.0335889
0.00846518
0.00795051
0.00827196
0.00856128
0.00856331
0.0089104
2.48919e-05
8.69149e-05
0.00112547
0.00693364
0.0258009
0.0695591
0.149703
0.273217
0.441658
0.653526
0.897862
1.17342
1.49424
1.8663
2.29415
2.78335
3.34116
3.97613
4.69459
5.50683
6.41687
7.41979
8.50941
9.71869
11.0557
12.5256
14.1364
15.897
17.8247
19.9407
22.256
24.7608
27.4277
30.2304
33.1676
36.1632
39.1232
41.808
43.8033
44.9546
44.9564
43.5369
40.8518
38.3071
37.6543
30.3325
19.8056
8.7315
1.60254
0.153146
0.0154339
0.00798339
0.0079469
0.00826556
0.008555
0.00850621
0.00891104
2.48226e-05
8.65923e-05
0.0011207
0.00690056
0.0256728
0.0692382
0.149054
0.272227
0.440516
0.652425
0.897127
1.17328
1.49487
1.86848
2.29763
2.788
3.34587
3.97966
4.69699
5.50584
6.41315
7.41463
8.50143
9.70949
11.0475
12.524
14.1437
15.9142
17.8437
19.9496
22.2526
24.7606
27.4569
30.3045
33.2653
36.3246
39.3839
42.2878
44.558
46.0662
46.5643
45.7009
43.4483
40.6184
39.3122
35.6339
25.6733
14.5595
4.45295
0.6013
0.0542928
0.00987199
0.00783954
0.00794069
0.00829496
0.00859545
0.00855224
0.00891187
2.47705e-05
8.63376e-05
0.00111682
0.00687317
0.0255601
0.0689333
0.148456
0.271198
0.439121
0.650945
0.89586
1.17243
1.49469
1.86921
2.30033
2.7921
3.35152
3.98509
4.70176
5.50854
6.41225
7.40998
8.49601
9.70094
11.0379
12.5158
14.1434
15.9244
17.8658
19.9748
22.268
24.765
27.4687
30.3537
33.3711
36.4675
39.6107
42.6743
45.2227
47.0381
47.9534
47.6353
45.8557
43.0982
41.0709
40.4217
31.1923
20.3887
9.25347
1.84611
0.21024
0.0215759
0.00827094
0.00778259
0.0079777
0.00834393
0.00853067
0.00875657
0.0089125
2.47325e-05
8.61659e-05
0.00111389
0.00685197
0.0254703
0.0686642
0.147881
0.270253
0.437677
0.649129
0.894137
1.17091
1.49376
1.86903
2.30136
2.79515
3.35658
3.99171
4.70868
5.51445
6.41548
7.4097
8.49108
9.69527
11.0288
12.5059
14.1355
15.926
17.88
20.0033
22.3014
24.7894
27.4844
30.3826
33.4473
36.6146
39.8124
42.9851
45.7923
47.9014
49.1709
49.3326
48.0851
45.5568
43.0027
42.3258
36.5385
25.7582
14.7231
4.54493
0.6775
0.0717772
0.0115034
0.00782547
0.00775865
0.00804994
0.00835709
0.00860666
0.00861292
0.00891281
2.47133e-05
8.60322e-05
0.00111179
0.00683597
0.0253991
0.0684456
0.14737
0.26934
0.436349
0.647242
0.892026
1.16878
1.49188
1.86806
2.30127
2.79678
3.36058
3.99807
4.71662
5.52265
6.4222
7.4131
8.49118
9.69009
11.0231
12.4966
14.1256
15.9188
17.8843
20.0225
22.3379
24.833
27.5207
30.414
33.4996
36.7267
40.0132
43.2626
46.2849
48.658
50.2576
50.832
50.0858
47.9624
45.2201
43.8663
41.3832
31.284
20.0498
8.86131
1.80679
0.23202
0.0264575
0.00862531
0.00770556
0.00778943
0.00810042
0.00848458
0.00843846
0.00856918
0.00891275
2.47109e-05
8.59932e-05
0.00111042
0.00682499
0.0253466
0.068279
0.146963
0.26853
0.435057
0.645511
0.889792
1.1662
1.48931
1.86568
2.29993
2.7968
3.36249
4.00318
4.724
5.53232
6.43129
7.42039
8.49542
9.69072
11.0178
12.4909
14.1162
15.9094
17.8785
20.0307
22.3637
24.8799
27.5777
30.4661
33.5528
36.8108
40.1721
43.532
46.7229
49.3319
51.2176
52.1763
51.8849
50.184
47.539
45.5782
45.3466
36.5752
25.1274
14.0311
4.03292
0.64145
0.0771401
0.0127195
0.00785003
0.0076879
0.00784316
0.00823169
0.00845849
0.00834459
0.00854486
0.00891259
2.47239e-05
8.60168e-05
0.00111023
0.00681762
0.0253102
0.0681569
0.146653
0.267888
0.433925
0.643838
0.887793
1.16357
1.48615
1.86256
2.2974
2.79506
3.36264
4.00547
4.73009
5.54103
6.44258
7.43022
8.5042
9.69597
11.019
12.4855
14.1108
15.9002
17.8701
20.0272
22.3771
24.9143
27.6376
30.5402
33.6256
36.8935
40.2982
43.7515
47.122
49.9339
52.0834
53.3688
53.5165
52.2472
49.7952
47.3937
46.8113
41.3873
30.6012
18.9152
7.71231
1.5172
0.212836
0.0275065
0.00886098
0.00766728
0.00769801
0.00795249
0.00827506
0.00843132
0.00836291
0.00853109
0.00891255
2.47335e-05
8.60856e-05
0.00111072
0.00681707
0.0252884
0.0680734
0.146424
0.267403
0.433029
0.642363
0.885883
1.16113
1.4829
1.85883
2.2937
2.79236
3.36093
4.00599
4.73323
5.54854
6.45278
7.44172
8.51569
9.70648
11.0256
12.4877
14.1057
15.8955
17.8616
20.0205
22.3772
24.9347
27.6832
30.6167
33.7214
36.9924
40.4203
43.9322
47.4184
50.4811
52.861
54.451
54.972
54.1604
52.0074
49.4118
48.2959
45.7891
35.369
24.0287
12.3998
3.20357
0.516566
0.0688835
0.0128179
0.00786827
0.00763084
0.00777609
0.00803345
0.00830762
0.00836976
0.00840563
0.00852443
0.00891254
2.47591e-05
8.61704e-05
0.00111181
0.00682098
0.0252902
0.0680252
0.146274
0.26705
0.432359
0.641214
0.884237
1.15874
1.48001
1.85476
2.28931
2.78812
3.35775
4.00454
4.73399
5.55273
6.46134
7.45177
8.52917
9.71992
11.0381
12.4958
14.109
15.891
17.8581
20.0135
22.3733
24.9399
27.713
30.6768
33.8189
37.1165
40.5518
44.1024
47.6697
50.9503
53.5679
55.4286
56.2991
55.8858
54.1166
51.5344
49.8779
49.7979
40.2656
28.4006
17.1949
6.03215
1.13748
0.165298
0.0244184
0.00881649
0.00763399
0.00767961
0.00782677
0.00809585
0.00831908
0.00834141
0.00830962
0.00852073
0.00891254
2.47855e-05
8.62887e-05
0.00111313
0.00682774
0.0253045
0.0680327
0.146193
0.26683
0.431883
0.640365
0.882974
1.15676
1.47718
1.85134
2.28469
2.78291
3.35284
4.00082
4.73264
5.55343
6.46588
7.46002
8.54089
9.73566
11.0538
12.5107
14.119
15.8959
17.8546
20.012
22.3688
24.9405
27.7255
30.719
33.8976
37.2404
40.712
44.2827
47.9031
51.3716
54.1967
56.3185
57.5078
57.4747
56.0544
53.6296
51.5398
51.2188
44.8219
33.3702
21.5233
9.92706
2.29014
0.369846
0.0525344
0.0117853
0.00782324
0.00763139
0.00771245
0.0078858
0.00814558
0.00834328
0.00821643
0.00826944
0.00851866
0.00891253
2.47971e-05
8.64091e-05
0.00111476
0.00683623
0.0253293
0.0680742
0.14622
0.266711
0.431577
0.639753
0.882072
1.15531
1.47473
1.84815
2.2805
2.77776
3.34675
3.99513
4.72846
5.55161
6.46673
7.46364
8.55065
9.74941
11.0722
12.5291
14.1367
15.9082
17.8616
20.0101
22.3701
24.9396
27.7323
30.7415
33.9561
37.3426
40.869
44.4856
48.1448
51.7533
54.7756
57.1136
58.61
58.9395
57.8817
55.6344
53.2892
52.5601
48.9491
37.8538
25.9523
14.3107
4.19496
0.766156
0.114091
0.0192972
0.00849328
0.00763772
0.0076591
0.00775566
0.00793564
0.00820793
0.00836504
0.00822098
0.00824735
0.00851756
0.00891253
2.48334e-05
8.64902e-05
0.00111639
0.00684618
0.0253607
0.0681385
0.146308
0.266771
0.431442
0.639403
0.881471
1.15426
1.47294
1.84514
2.27657
2.77278
3.34066
3.98816
4.72204
5.54712
6.46485
7.46473
8.55504
9.76085
11.0883
12.5505
14.1583
15.9294
17.8768
20.0197
22.3706
24.9452
27.7368
30.757
33.992
37.4222
41.0013
44.6839
48.4022
52.0838
55.3025
57.8517
59.5995
60.2827
59.5966
57.606
55.1367
53.9885
52.739
42.3571
30.0835
18.4533
6.99323
1.46303
0.237114
0.0362533
0.0103066
0.00774269
0.00762643
0.00769464
0.00778588
0.00802645
0.00826876
0.00826775
0.00815138
0.00823542
0.00851705
0.00891253
2.48401e-05
8.66461e-05
0.00111754
0.006856
0.0253965
0.0682206
0.146439
0.266925
0.431554
0.639266
0.881156
1.15353
1.47174
1.84286
2.27325
2.76792
3.33508
3.98086
4.7141
5.54007
6.46014
7.46239
8.55654
9.76622
11.1017
12.5694
14.1833
15.9546
17.9019
20.0385
22.3838
24.949
27.7484
30.7694
34.0195
37.4763
41.1083
44.8541
48.6518
52.4096
55.794
58.5261
60.5166
61.496
61.1817
59.4935
57.052
55.462
55.4099
46.6884
34.2999
22.3475
10.478
2.596
0.46055
0.0710018
0.0145597
0.00810893
0.00761046
0.00764866
0.00771432
0.00784701
0.00811877
0.00828898
0.00815386
0.00808067
0.00822988
0.00851683
0.00891254
2.48416e-05
8.66348e-05
0.00111984
0.00686376
0.0254314
0.06831
0.146597
0.267144
0.431796
0.639449
0.881098
1.15321
1.47101
1.84148
2.27068
2.7642
3.32944
3.97429
4.70566
5.53127
6.45229
7.4569
8.55421
9.76832
11.1083
12.5852
14.2053
15.9837
17.9316
20.0685
22.4071
24.967
27.757
30.7893
34.0425
37.52
41.1864
44.9961
48.8695
52.7228
56.2406
59.1713
61.3537
62.6185
62.6294
61.2562
58.9137
56.9862
56.7127
50.6855
38.5533
26.17
14.3263
4.27783
0.837996
0.135803
0.0234965
0.00905659
0.00764386
0.00761106
0.0076594
0.00775116
0.00794217
0.00816972
0.00825589
0.00808284
0.00804478
0.00822745
0.00851675
0.00891254
2.48393e-05
8.66394e-05
0.00111949
0.00687655
0.0254589
0.0683971
0.146779
0.267424
0.432129
0.639793
0.881431
1.15322
1.4706
1.8407
2.269
2.76135
3.32475
3.96772
4.69791
5.52172
6.44259
7.44803
8.54826
9.766
11.1112
12.5933
14.224
16.0095
17.9655
20.1033
22.4429
24.9959
27.7812
30.8041
34.0743
37.5576
41.2517
45.1054
49.0561
52.9998
56.6631
59.7571
62.1548
63.648
63.9792
62.9038
60.7065
58.5105
57.9572
54.3558
42.6903
30.1233
18.0962
6.60701
1.43132
0.248303
0.040559
0.0111273
0.0078069
0.00758248
0.00762058
0.00768362
0.00780308
0.00801249
0.00820385
0.00818315
0.00800123
0.0080273
0.00822646
0.00851673
0.00891254
2.48341e-05
8.6628e-05
0.00111954
0.00687502
0.0255061
0.0684691
0.146954
0.267721
0.432541
0.640262
0.881974
1.15369
1.4706
1.84038
2.26796
2.75945
3.32153
3.9624
4.69029
5.51308
6.432
7.43734
8.53836
9.75965
11.109
12.5971
14.2339
16.0316
17.9958
20.1429
22.4839
25.0388
27.8172
30.8367
34.0971
37.6057
41.3088
45.1991
49.2057
53.2429
57.0595
60.3043
62.8922
64.6233
65.2288
64.4716
62.4594
60.1317
59.2453
57.7596
46.8291
33.5507
21.5926
9.52222
2.32131
0.430881
0.0708836
0.0151911
0.00821907
0.00758175
0.00759368
0.00764642
0.00772765
0.0078525
0.00808477
0.00822154
0.0080475
0.00792149
0.00801985
0.00822609
0.00851674
0.00891254
2.48204e-05
8.66059e-05
0.00111934
0.00687521
0.0254996
0.0685906
0.147098
0.268012
0.432991
0.640844
0.882642
1.15438
1.47123
1.84045
2.26772
2.75818
3.31941
3.95871
4.68449
5.50447
6.42258
7.42602
8.52653
9.74878
11.1023
12.5953
14.2391
16.0437
18.0219
20.1784
22.5302
25.0871
27.8686
30.8816
34.1408
37.6375
41.3741
45.2821
49.3364
53.4446
57.4308
60.8198
63.582
65.5281
66.4033
65.9472
64.179
61.8176
60.5741
60.6602
50.7179
37.4474
24.8727
12.7816
3.58623
0.713032
0.121356
0.0225876
0.00907335
0.00762715
0.00756734
0.00762296
0.00769075
0.00776999
0.00794031
0.00811815
0.00820187
0.00797366
0.00788349
0.00801715
0.00822599
0.00851676
0.00891254
2.48137e-05
8.65603e-05
0.001119
0.00687381
0.0255
0.0685693
0.147339
0.268253
0.433421
0.641466
0.883378
1.15522
1.47215
1.8412
2.26817
2.75788
3.31823
3.95634
4.68042
5.49761
6.41293
7.41629
8.51385
9.7356
11.0904
12.5883
14.2377
16.0505
18.0368
20.2094
22.5719
25.1414
27.9258
30.9435
34.1972
37.6966
41.4264
45.3707
49.4531
53.6226
57.7602
61.3063
64.2286
66.3801
67.495
67.3302
65.8188
63.5261
61.9378
61.9004
54.3513
41.1705
28.1426
16.108
5.27801
1.12765
0.200981
0.0351697
0.0106853
0.00776392
0.00754032
0.00759244
0.00766503
0.00772267
0.00782136
0.00800593
0.00817597
0.00808244
0.00784137
0.00786765
0.00801632
0.00822598
0.00851679
0.00891254
2.47967e-05
8.64995e-05
0.00111827
0.00687154
0.0254943
0.068569
0.147287
0.268668
0.433773
0.642052
0.88419
1.15625
1.47335
1.84232
2.26915
2.75854
3.31817
3.95516
4.67781
5.49301
6.40533
7.40655
8.50308
9.72156
11.0759
12.5754
14.2307
16.0499
18.0457
20.2278
22.6086
25.1904
27.9894
31.0114
34.2717
37.7674
41.5017
45.4485
49.5725
53.7827
57.9983
61.7534
64.8347
67.1792
68.5259
68.6088
67.3554
65.158
63.3274
63.052
57.6928
44.9318
31.4467
19.2238
7.40959
1.71075
0.319997
0.0553658
0.013495
0.00805613
0.00753013
0.00755146
0.00763021
0.00768386
0.00776041
0.00787792
0.00809036
0.00814663
0.00790862
0.00777674
0.00786224
0.00801613
0.00822602
0.00851683
0.00891254
2.47806e-05
8.64352e-05
0.00111759
0.0068676
0.0254856
0.0685563
0.147291
0.268555
0.434419
0.642547
0.884995
1.1573
1.47465
1.84385
2.27046
2.76003
3.31887
3.95512
4.67618
5.49012
6.39997
7.39924
8.49218
9.70958
11.0603
12.5595
14.2167
16.043
18.0462
20.2394
22.6314
25.2339
28.0472
31.0861
34.3526
37.8574
41.5904
45.5459
49.682
53.9425
58.2139
62.1526
65.395
67.9243
69.4944
69.8244
68.7845
66.7134
64.681
64.1953
60.8109
48.5968
34.6032
22.1116
9.87948
2.50348
0.490444
0.0859207
0.0180888
0.00859765
0.00755323
0.00751548
0.00758711
0.00764995
0.00771057
0.00778453
0.00797756
0.00813712
0.00804354
0.00777985
0.00775095
0.00786077
0.00801614
0.00822607
0.00851688
0.00891254
2.47489e-05
8.63339e-05
0.00111636
0.006862
0.0254696
0.0685298
0.147254
0.268555
0.434207
0.643464
0.885681
1.15826
1.47601
1.84562
2.27226
2.76183
3.32076
3.95591
4.67589
5.48833
6.39686
7.39411
8.48423
9.69756
11.0472
12.5424
14.1995
16.0281
18.0399
20.2415
22.6464
25.262
28.0989
31.1543
34.4406
37.9539
41.6995
45.6573
49.8086
54.0918
58.4256
62.506
65.9232
68.6106
70.4046
70.9699
70.1564
68.2025
66.0781
65.3723
63.7308
52.1878
37.6394
24.8888
12.5381
3.54043
0.727212
0.130184
0.0251219
0.00951477
0.00762629
0.00748947
0.00754972
0.00761728
0.00767654
0.00771975
0.00785479
0.00804928
0.00815095
0.00787114
0.00769114
0.00774284
0.00786049
0.00801621
0.00822614
0.00851693
0.00891254
2.4714e-05
8.62099e-05
0.00111515
0.00685533
0.0254517
0.0684937
0.147209
0.268506
0.434216
0.643113
0.886831
1.15912
1.47719
1.84732
2.27442
2.7638
3.3229
3.95789
4.67698
5.48801
6.39519
7.3911
8.47866
9.68886
11.0339
12.5279
14.1807
16.0096
18.0242
20.2359
22.6507
25.2813
28.1337
31.2158
34.5213
38.058
41.815
45.7899
49.9484
54.2554
58.625
62.8368
66.4026
69.2615
71.243
72.0642
71.4699
69.6632
67.4891
66.5778
66.4561
55.5898
41.0196
27.584
15.275
4.83734
1.04855
0.192489
0.0354168
0.0109474
0.00777185
0.007479
0.0075202
0.00758754
0.00765208
0.00769126
0.00776594
0.00794079
0.00805786
0.00800852
0.00773097
0.00765672
0.00774094
0.00786051
0.00801631
0.00822623
0.00851699
0.00891254
2.46802e-05
8.60618e-05
0.00111334
0.00684647
0.0254239
0.0684409
0.147131
0.268429
0.434136
0.643116
0.886393
1.16073
1.47824
1.84889
2.27654
2.76629
3.3252
3.96065
4.67938
5.48985
6.39533
7.38946
8.47553
9.68289
11.0244
12.5134
14.165
15.9893
18.0044
20.2197
22.6466
25.2886
28.1585
31.2588
34.5946
38.1537
41.9382
45.9285
50.1098
54.431
58.8354
63.1397
66.8532
69.8639
72.0362
73.08
72.7441
71.095
68.9132
67.7534
67.8865
58.7919
44.3644
30.3176
17.9494
6.41774
1.46798
0.278696
0.05006
0.0130746
0.00801485
0.00748256
0.00749557
0.00756167
0.00763032
0.00767604
0.00773182
0.00784525
0.00798076
0.00802727
0.00784264
0.00761434
0.00764723
0.00774067
0.00786062
0.00801642
0.00822633
0.00851705
0.00891254
2.46412e-05
8.59013e-05
0.00111126
0.00683607
0.0253945
0.0683732
0.147025
0.268292
0.434011
0.643014
0.88634
1.16019
1.48028
1.8501
2.27849
2.7689
3.32826
3.96396
4.68314
5.49327
6.39765
7.38983
8.47389
9.67967
11.0181
12.5032
14.1492
15.9723
17.9825
20.199
22.6301
25.287
28.1697
31.2905
34.6478
38.2413
42.0521
46.0748
50.2767
54.6281
59.0556
63.4326
67.2639
70.4357
72.7745
74.0399
73.9435
72.4954
70.3336
68.9196
68.9377
61.7807
47.7142
33.1167
20.4696
8.26001
2.00517
0.393406
0.0705643
0.016133
0.00838889
0.0075001
0.00747496
0.00753551
0.0076069
0.00765998
0.00770817
0.00779287
0.00788681
0.00803567
0.00799722
0.00765453
0.0075773
0.00764537
0.00774073
0.00786074
0.00801656
0.00822645
0.00851711
0.00891254
2.45968e-05
8.57237e-05
0.00110899
0.00682338
0.0253554
0.068293
0.146889
0.268112
0.433811
0.642849
0.886246
1.1601
1.47971
1.85256
2.2801
2.7713
3.33142
3.96767
4.68759
5.49766
6.40168
7.39202
8.47463
9.67814
11.0148
12.4964
14.1382
15.9551
17.9643
20.1757
22.6086
25.2705
28.1716
31.3071
34.6881
38.307
42.157
46.2104
50.4507
54.8291
59.2961
63.7207