# y+ ()       
# Time        	patch         	min           	max           	average       
12000         	base	6.872796e-03	2.402677e+01	5.514256e+00
