# wallHeatFlux  FACE_DATA 298
# x  y  z  wallHeatFlux
-0.789454 0 0.005 -321933
-0.76864 0 0.005 -57395.6
-0.748373 0 0.005 -53395.7
-0.72864 0 0.005 -55096.2
-0.709426 0 0.005 -55510.7
-0.690719 0 0.005 -55461.6
-0.672503 0 0.005 -55205.3
-0.654767 0 0.005 -54733.2
-0.637498 0 0.005 -54253.5
-0.620683 0 0.005 -53714.4
-0.604311 0 0.005 -53220.9
-0.588369 0 0.005 -52806.2
-0.572847 0 0.005 -52495.1
-0.557734 0 0.005 -52201.8
-0.543018 0 0.005 -51814.4
-0.52869 0 0.005 -51540.1
-0.514738 0 0.005 -51282.9
-0.501153 0 0.005 -51054.2
-0.487926 0 0.005 -50854.3
-0.475046 0 0.005 -50619.4
-0.462505 0 0.005 -50419.6
-0.450294 0 0.005 -50252.3
-0.438403 0 0.005 -50082.5
-0.426826 0 0.005 -49934.5
-0.415552 0 0.005 -49832.4
-0.404575 0 0.005 -49708.1
-0.393887 0 0.005 -49540.2
-0.383478 0 0.005 -49371
-0.373344 0 0.005 -49227.7
-0.363476 0 0.005 -49133.1
-0.353866 0 0.005 -49055.3
-0.34451 0 0.005 -48971.2
-0.335398 0 0.005 -48875.7
-0.326526 0 0.005 -48769.6
-0.317887 0 0.005 -48653.1
-0.309474 0 0.005 -48541.4
-0.301281 0 0.005 -48423.1
-0.293304 0 0.005 -48319.5
-0.285535 0 0.005 -48224.8
-0.277971 0 0.005 -48151.1
-0.270605 0 0.005 -48091.1
-0.263431 0 0.005 -48065.7
-0.256444 0 0.005 -48041.8
-0.249642 0 0.005 -48017.7
-0.243016 0 0.005 -47993.5
-0.236565 0 0.005 -47958.4
-0.230282 0 0.005 -47910.8
-0.224163 0 0.005 -47852.5
-0.218204 0 0.005 -47774.1
-0.2124 0 0.005 -47684.1
-0.206748 0 0.005 -47578.6
-0.201243 0 0.005 -47470.3
-0.195882 0 0.005 -47367.3
-0.190661 0 0.005 -47280.5
-0.185575 0 0.005 -47195.5
-0.180621 0 0.005 -47128.1
-0.175796 0 0.005 -47066.1
-0.171097 0 0.005 -47015.1
-0.16652 0 0.005 -46980.5
-0.162061 0 0.005 -46945.9
-0.157718 0 0.005 -46932.7
-0.153487 0 0.005 -46930.9
-0.149367 0 0.005 -46933.1
-0.145351 0 0.005 -46941.2
-0.14144 0 0.005 -46943.5
-0.13763 0 0.005 -46951.3
-0.133918 0 0.005 -46960.2
-0.130302 0 0.005 -46971.4
-0.126778 0 0.005 -46973.2
-0.123345 0 0.005 -46968
-0.119999 0 0.005 -46963.4
-0.116739 0 0.005 -46953.5
-0.113562 0 0.005 -46946.1
-0.110466 0 0.005 -46939.3
-0.107449 0 0.005 -46924.5
-0.104509 0 0.005 -46907.2
-0.101644 0 0.005 -46889.9
-0.0988499 0 0.005 -46871.9
-0.0961267 0 0.005 -46845.9
-0.0934723 0 0.005 -46820.7
-0.0908845 0 0.005 -46796.5
-0.0883616 0 0.005 -46766.8
-0.0859017 0 0.005 -46737.2
-0.0835029 0 0.005 -46707.8
-0.0811636 0 0.005 -46678.8
-0.0788823 0 0.005 -46643.7
-0.0766572 0 0.005 -46615.5
-0.0744867 0 0.005 -46580.7
-0.0723694 0 0.005 -46552.8
-0.0703036 0 0.005 -46518.2
-0.068288 0 0.005 -46484.9
-0.0663211 0 0.005 -46456.6
-0.0644014 0 0.005 -46423.1
-0.0625277 0 0.005 -46389.8
-0.0606985 0 0.005 -46356.7
-0.0589126 0 0.005 -46323.6
-0.0571687 0 0.005 -46296.1
-0.0554656 0 0.005 -46268.7
-0.0538019 0 0.005 -46241.9
-0.0521766 0 0.005 -46213.9
-0.0505886 0 0.005 -46193.3
-0.0490366 0 0.005 -46170.9
-0.0475196 0 0.005 -46150.1
-0.0460364 0 0.005 -46129
-0.0445861 0 0.005 -46113.9
-0.0431675 0 0.005 -46098
-0.0417798 0 0.005 -46082.4
-0.0404219 0 0.005 -46068
-0.0390927 0 0.005 -46053.3
-0.0377914 0 0.005 -46044.3
-0.0365171 0 0.005 -46030.1
-0.0352688 0 0.005 -46032.3
-0.0340456 0 0.005 -46067.5
-0.0328467 0 0.005 -46122.7
-0.0316712 0 0.005 -46185.7
-0.0305183 0 0.005 -46254.5
-0.0293871 0 0.005 -46316.4
-0.028277 0 0.005 -46370.2
-0.0271869 0 0.005 -46429.2
-0.0261162 0 0.005 -46478.7
-0.0250641 0 0.005 -46527.4
-0.02403 0 0.005 -46571.8
-0.023013 0 0.005 -46608
-0.0220124 0 0.005 -46655.2
-0.0210274 0 0.005 -46698.2
-0.0200575 0 0.005 -46743.3
-0.0191018 0 0.005 -46785
-0.0181598 0 0.005 -46839
-0.0172307 0 0.005 -46890.4
-0.0163139 0 0.005 -46949.9
-0.0154087 0 0.005 -47008.5
-0.0145146 0 0.005 -47068.4
-0.0136307 0 0.005 -47130.6
-0.0127566 0 0.005 -47195.2
-0.0118916 0 0.005 -47238.8
-0.011035 0 0.005 -47308.9
-0.0101864 0 0.005 -47328.2
-0.00934497 0 0.005 -47231.8
-0.00851021 0 0.005 -46306.4
-0.00768153 0 0.005 -42327.1
-0.00685832 0 0.005 -33837.3
-0.00604 0 0.005 -27180.6
-0.00522598 0 0.005 -32799.4
-0.0044157 0 0.005 -42224
-0.00360857 0 0.005 -49123.4
-0.002804 0 0.005 -55006
-0.00200143 0 0.005 -58349.6
-0.00120028 0 0.005 -64967.2
-0.0004 0 0.005 -74612
0.00034641 0.0002 0.005 -96296.5
0.00103936 0.000600074 0.005 -131442
0.00173269 0.00100037 0.005 -179361
0.00242667 0.00140104 0.005 -230300
0.00312154 0.00180222 0.005 -284218
0.00381758 0.00220408 0.005 -335341
0.00451503 0.00260675 0.005 -397834
0.00521415 0.00301039 0.005 -464204
0.0059152 0.00341514 0.005 -525746
0.00661845 0.00382117 0.005 -582490
0.00732415 0.0042286 0.005 -634402
0.00803257 0.00463761 0.005 -682189
0.00874396 0.00504833 0.005 -723351
0.0094586 0.00546093 0.005 -757938
0.0101767 0.00587555 0.005 -783703
0.0108987 0.00629234 0.005 -805614
0.0116246 0.00671146 0.005 -831901
0.0123549 0.00713309 0.005 -870398
0.0130897 0.00755735 0.005 -921803
0.0138294 0.00798441 0.005 -982817
0.0145742 0.00841443 0.005 -1.05127e+06
0.0153244 0.00884757 0.005 -1.12738e+06
0.0160804 0.009284 0.005 -1.20221e+06
0.0168422 0.00972386 0.005 -1.27251e+06
0.0176104 0.0101673 0.005 -1.33868e+06
0.018385 0.0106146 0.005 -1.4047e+06
0.0191664 0.0110657 0.005 -1.45422e+06
0.019955 0.011521 0.005 -1.49512e+06
0.0207509 0.0119805 0.005 -1.52747e+06
0.0215546 0.0124445 0.005 -1.54748e+06
0.0223662 0.0129131 0.005 -1.55769e+06
0.0231861 0.0133865 0.005 -1.55637e+06
0.0240146 0.0138648 0.005 -1.54552e+06
0.0248521 0.0143483 0.005 -1.5289e+06
0.0256987 0.0148371 0.005 -1.51217e+06
0.0265549 0.0153315 0.005 -1.49882e+06
0.0274209 0.0158315 0.005 -1.48187e+06
0.0282971 0.0163373 0.005 -1.47326e+06
0.0291837 0.0168492 0.005 -1.43941e+06
0.0300812 0.0173674 0.005 -1.40961e+06
0.0309898 0.017892 0.005 -1.38854e+06
0.03191 0.0184232 0.005 -1.37821e+06
0.0328419 0.0189613 0.005 -1.35456e+06
0.033786 0.0195063 0.005 -1.33417e+06
0.0347427 0.0200587 0.005 -1.31789e+06
0.0357122 0.0206184 0.005 -1.30043e+06
0.036695 0.0211858 0.005 -1.28524e+06
0.0376913 0.0217611 0.005 -1.28124e+06
0.0387017 0.0223444 0.005 -1.26203e+06
0.0397264 0.022936 0.005 -1.25038e+06
0.0407658 0.0235361 0.005 -1.24218e+06
0.0418202 0.0241449 0.005 -1.24398e+06
0.0428902 0.0247627 0.005 -1.23025e+06
0.0439762 0.0253897 0.005 -1.22126e+06
0.0450784 0.0260261 0.005 -1.21571e+06
0.0461974 0.0266721 0.005 -1.2089e+06
0.0473334 0.0273279 0.005 -1.19907e+06
0.0484871 0.027994 0.005 -1.19077e+06
0.0496586 0.0286704 0.005 -1.21117e+06
0.0508486 0.0293575 0.005 -1.18982e+06
0.0520574 0.0300554 0.005 -1.1782e+06
0.0532855 0.0307644 0.005 -1.17218e+06
0.0545335 0.0314849 0.005 -1.17657e+06
0.0558016 0.0322171 0.005 -1.16889e+06
0.0570903 0.0329612 0.005 -1.1623e+06
0.0584003 0.0337174 0.005 -1.15715e+06
0.0597319 0.0344863 0.005 -1.15278e+06
0.0610857 0.0352678 0.005 -1.15642e+06
0.062462 0.0360624 0.005 -1.15272e+06
0.0638616 0.0368705 0.005 -1.14561e+06
0.0652848 0.0376922 0.005 -1.15437e+06
0.0667321 0.0385279 0.005 -1.14278e+06
0.0682043 0.0393778 0.005 -1.15209e+06
0.0697018 0.0402423 0.005 -1.13727e+06
0.071225 0.0411218 0.005 -1.13191e+06
0.0727747 0.0420165 0.005 -1.12882e+06
0.0743514 0.0429267 0.005 -1.1357e+06
0.0759556 0.043853 0.005 -1.12581e+06
0.0775879 0.0447954 0.005 -1.12924e+06
0.0792491 0.0457545 0.005 -1.12001e+06
0.0809395 0.0467305 0.005 -1.13262e+06
0.08266 0.0477239 0.005 -1.11934e+06
0.0844112 0.0487348 0.005 -1.11134e+06
0.0861936 0.0497639 0.005 -1.12754e+06
0.0880081 0.0508114 0.005 -1.11554e+06
0.089855 0.0518778 0.005 -1.09921e+06
0.0917354 0.0529634 0.005 -1.10134e+06
0.0936497 0.0540687 0.005 -1.09746e+06
0.0955988 0.055194 0.005 -1.09695e+06
0.0975833 0.0563398 0.005 -1.10282e+06
0.0996037 0.0575064 0.005 -1.43279e+06
0.101662 0.0586943 0.005 -1.27372e+06
0.103757 0.0599039 0.005 -1.29505e+06
0.10589 0.0611359 0.005 -1.06791e+06
0.108064 0.0623905 0.005 -1.06924e+06
0.110277 0.0636682 0.005 -1.12065e+06
0.112531 0.0649695 0.005 -1.21304e+06
0.114826 0.0662949 0.005 -1.40331e+06
0.117164 0.0676448 0.005 -1.6441e+06
0.119546 0.0690198 0.005 -1.28017e+06
0.121972 0.0704204 0.005 -1.25696e+06
0.124443 0.0718472 0.005 -1.04663e+06
0.126961 0.0733005 0.005 -1.29303e+06
0.129525 0.0747811 0.005 -1.04427e+06
0.132137 0.0762893 0.005 -1.30687e+06
0.134798 0.0778258 0.005 -1.73642e+06
0.13751 0.0793912 0.005 -1.61801e+06
0.140272 0.080986 0.005 -1.02582e+06
0.143086 0.0826109 0.005 -1.69169e+06
0.145954 0.0842664 0.005 -1.54163e+06
0.148875 0.085953 0.005 -1.50059e+06
0.151852 0.0876716 0.005 -1.47702e+06
0.154884 0.0894226 0.005 -1.2086e+06
0.157975 0.0912068 0.005 -1.7537e+06
0.161123 0.0930248 0.005 -1.63914e+06
0.164332 0.0948773 0.005 -1.27156e+06
0.167602 0.096765 0.005 -1.27627e+06
0.170933 0.0986885 0.005 -1.04353e+06
0.174328 0.100649 0.005 -987676
0.177788 0.102646 0.005 -980868
0.181313 0.104681 0.005 -987866
0.184907 0.106756 0.005 -1.96833e+06
0.188568 0.10887 0.005 -1.00708e+06
0.192299 0.111024 0.005 -1.8804e+06
0.196102 0.113219 0.005 -1.28065e+06
0.199977 0.115456 0.005 -1.60158e+06
0.203926 0.117737 0.005 -1.6935e+06
0.20795 0.120061 0.005 -988824
0.212053 0.122428 0.005 -1.61495e+06
0.216234 0.124843 0.005 -1.75071e+06
0.220494 0.127302 0.005 -1.69758e+06
0.224837 0.129809 0.005 -885324
0.229262 0.132365 0.005 -1.96133e+06
0.233773 0.134969 0.005 -1.6352e+06
0.23837 0.137624 0.005 -959517
0.243057 0.140328 0.005 -1.43583e+06
0.247833 0.143086 0.005 -1.31252e+06
0.2527 0.145896 0.005 -1.52437e+06
0.257662 0.148761 0.005 -1.33817e+06
0.262718 0.151681 0.005 -1.84597e+06
0.267873 0.154657 0.005 -1.78965e+06
0.273127 0.15769 0.005 -1.43603e+06
0.278482 0.160781 0.005 -827533
0.28394 0.163933 0.005 -1.70776e+06
0.289504 0.167145 0.005 -1.57977e+06
0.295175 0.170419 0.005 -1.84173e+06
0.300955 0.173756 0.005 -1.39058e+06
0.306846 0.177158 0.005 -855829
0.312851 0.180625 0.005 -2.05217e+06
