# p  FACE_DATA 398
# x  y  z  p
-0.7975 0 0.025 4473.2
-0.79239 0 0.025 3645.21
-0.787056 0 0.025 2990.71
-0.781492 0 0.025 2848.07
-0.775691 0 0.025 2763.08
-0.769649 0 0.025 2747.87
-0.763362 0 0.025 2754.09
-0.756822 0 0.025 2752.8
-0.750025 0 0.025 2751.43
-0.742968 0 0.025 2741.39
-0.735648 0 0.025 2724.06
-0.72806 0 0.025 2711.77
-0.720203 0 0.025 2700.95
-0.712076 0 0.025 2693.24
-0.703677 0 0.025 2688.32
-0.695006 0 0.025 2684.68
-0.686065 0 0.025 2682.45
-0.676855 0 0.025 2680.06
-0.667379 0 0.025 2679.25
-0.65764 0 0.025 2680.65
-0.647644 0 0.025 2685.52
-0.637397 0 0.025 2688.39
-0.626906 0 0.025 2690.22
-0.616179 0 0.025 2691.23
-0.605224 0 0.025 2692.77
-0.594054 0 0.025 2692.19
-0.582678 0 0.025 2693.24
-0.57111 0 0.025 2694.02
-0.559364 0 0.025 2694.3
-0.547454 0 0.025 2694.74
-0.535396 0 0.025 2695.39
-0.523205 0 0.025 2696.12
-0.510901 0 0.025 2696.61
-0.4985 0 0.025 2696.66
-0.486021 0 0.025 2696
-0.473483 0 0.025 2696.1
-0.460905 0 0.025 2696.72
-0.448308 0 0.025 2697.93
-0.435709 0 0.025 2698.85
-0.42313 0 0.025 2699.07
-0.41059 0 0.025 2698.62
-0.39811 0 0.025 2698.3
-0.385706 0 0.025 2698.32
-0.373398 0 0.025 2698.6
-0.361205 0 0.025 2698.85
-0.349141 0 0.025 2698.5
-0.337226 0 0.025 2698.18
-0.325475 0 0.025 2697.99
-0.313901 0 0.025 2698.63
-0.30252 0 0.025 2699.78
-0.291343 0 0.025 2701.5
-0.280382 0 0.025 2702.65
-0.269646 0 0.025 2703.6
-0.259148 0 0.025 2702.57
-0.248893 0 0.025 2701.52
-0.23889 0 0.025 2699.01
-0.229143 0 0.025 2696.75
-0.219659 0 0.025 2694.88
-0.210441 0 0.025 2694.02
-0.201491 0 0.025 2694.49
-0.192812 0 0.025 2696.07
-0.184405 0 0.025 2697.88
-0.176269 0 0.025 2700.71
-0.168404 0 0.025 2703.28
-0.160808 0 0.025 2705.59
-0.15348 0 0.025 2706.94
-0.146415 0 0.025 2707.46
-0.13961 0 0.025 2707
-0.133063 0 0.025 2706.28
-0.126767 0 0.025 2704.8
-0.120718 0 0.025 2703.03
-0.11491 0 0.025 2700.84
-0.109339 0 0.025 2698.72
-0.103997 0 0.025 2696.59
-0.0988805 0 0.025 2694.75
-0.0939808 0 0.025 2693.12
-0.0892928 0 0.025 2691.84
-0.0848096 0 0.025 2690.79
-0.0805248 0 0.025 2690
-0.0764316 0 0.025 2689.46
-0.0725237 0 0.025 2689.17
-0.0687943 0 0.025 2689.1
-0.065237 0 0.025 2689.39
-0.0618454 0 0.025 2689.73
-0.058613 0 0.025 2690.16
-0.0555337 0 0.025 2690.75
-0.0526013 0 0.025 2691.39
-0.0498099 0 0.025 2692.11
-0.0471536 0 0.025 2692.84
-0.0446266 0 0.025 2693.59
-0.0422235 0 0.025 2694.28
-0.039939 0 0.025 2694.99
-0.0377676 0 0.025 2695.65
-0.0357044 0 0.025 2696.32
-0.0337445 0 0.025 2696.93
-0.0318832 0 0.025 2697.52
-0.0301159 0 0.025 2698.05
-0.0284383 0 0.025 2698.55
-0.0268461 0 0.025 2698.99
-0.0253353 0 0.025 2699.41
-0.023902 0 0.025 2699.79
-0.0225426 0 0.025 2700.15
-0.0212532 0 0.025 2700.47
-0.0200306 0 0.025 2700.77
-0.0188715 0 0.025 2701.04
-0.0177728 0 0.025 2701.3
-0.0167313 0 0.025 2701.54
-0.0157444 0 0.025 2701.75
-0.0148092 0 0.025 2701.96
-0.0139232 0 0.025 2702.15
-0.0130838 0 0.025 2702.32
-0.0122887 0 0.025 2702.48
-0.0115356 0 0.025 2702.63
-0.0108223 0 0.025 2702.77
-0.0101469 0 0.025 2702.89
-0.00950727 0 0.025 2703
-0.00890168 0 0.025 2703.1
-0.00832835 0 0.025 2703.19
-0.00778557 0 0.025 2703.28
-0.00727176 0 0.025 2703.36
-0.0067854 0 0.025 2703.44
-0.00632507 0 0.025 2703.69
-0.00588937 0 0.025 2715.27
-0.00547703 0 0.025 2910.51
-0.0050868 0 0.025 3827.31
-0.00471753 0 0.025 5007.04
-0.0043681 0 0.025 5749.09
-0.00403746 0 0.025 6276.53
-0.00372461 0 0.025 6689.4
-0.0034286 0 0.025 7043.55
-0.00314855 0 0.025 7365.19
-0.0028836 0 0.025 7666.25
-0.00263294 0 0.025 7936.84
-0.00239581 0 0.025 8173.59
-0.0021715 0 0.025 8379.65
-0.00195929 0 0.025 8554.43
-0.00175856 0 0.025 8701.49
-0.00156869 0 0.025 8823.14
-0.00138908 0 0.025 8919.55
-0.0012192 0 0.025 8994.87
-0.00105853 0 0.025 9054.97
-0.000906546 0 0.025 9110.22
-0.000762803 0 0.025 9168.64
-0.000626848 0 0.025 9247.83
-0.000498265 0 0.025 9398.72
-0.000376656 0 0.025 9678.79
-0.000261642 0 0.025 10068.7
-0.00015287 0 0.025 10609.8
-5e-05 0 0.025 11503.7
4.14519e-05 2.79596e-05 0.025 10082.1
0.000125371 8.45641e-05 0.025 10317.4
0.000211347 0.000142556 0.025 10241.6
0.000299429 0.000201968 0.025 10277.8
0.000389669 0.000262835 0.025 10481.2
0.000482118 0.000325193 0.025 10870.7
0.000576831 0.000389077 0.025 11371.4
0.000673861 0.000454524 0.025 11983.3
0.000773265 0.000521574 0.025 12693.6
0.0008751 0.000590262 0.025 13507
0.000979426 0.000660632 0.025 14433.5
0.0010863 0.000732721 0.025 15488.2
0.00119579 0.000806572 0.025 16696.8
0.00130795 0.000882227 0.025 18089.2
0.00142285 0.00095973 0.025 19707.2
0.00154056 0.00103912 0.025 21604.1
0.00166115 0.00112046 0.025 23847.5
0.00178467 0.00120378 0.025 26536.7
0.00191121 0.00128913 0.025 29807
0.00204083 0.00137656 0.025 33746.5
0.00217362 0.00146612 0.025 38725.3
0.00230964 0.00155787 0.025 45083.3
0.00244897 0.00165185 0.025 53235.5
0.00259169 0.00174812 0.025 63602.6
0.00273789 0.00184673 0.025 76620.3
0.00288765 0.00194774 0.025 92489.8
0.00304105 0.00205122 0.025 110278
0.00319818 0.00215719 0.025 132510
0.00335912 0.00226575 0.025 159649
0.00352397 0.00237695 0.025 187924
0.00369283 0.00249085 0.025 200789
0.00386579 0.00260751 0.025 189010
0.00404294 0.00272699 0.025 173779
0.00422438 0.00284938 0.025 153559
0.00441022 0.00297474 0.025 136730
0.00460056 0.00310312 0.025 125518
0.00479552 0.00323462 0.025 119812
0.00499519 0.0033693 0.025 119054
0.00519968 0.00350723 0.025 120482
0.00540911 0.00364849 0.025 121968
0.00562361 0.00379318 0.025 123252
0.00584329 0.00394134 0.025 124310
0.00606826 0.00409309 0.025 125186
0.00629865 0.00424849 0.025 125644
0.0065346 0.00440764 0.025 125559
0.00677623 0.00457063 0.025 124829
0.00702368 0.00473753 0.025 124131
0.00727707 0.00490844 0.025 124167
0.00753655 0.00508347 0.025 125047
0.00780227 0.00526269 0.025 125602
0.00807436 0.00544622 0.025 125823
0.00835298 0.00563415 0.025 125945
0.00863826 0.00582659 0.025 126411
0.00893038 0.00602362 0.025 127066
0.00922949 0.00622537 0.025 127260
0.00953574 0.00643195 0.025 126769
0.00984929 0.00664345 0.025 126376
0.0101703 0.00686 0.025 126669
0.0104991 0.00708171 0.025 127561
0.0108356 0.00730871 0.025 128080
0.0111801 0.0075411 0.025 127851
0.0115329 0.00777902 0.025 127376
0.011894 0.00802259 0.025 127323
0.0122637 0.00827194 0.025 127398
0.0126421 0.00852719 0.025 127478
0.0130295 0.0087885 0.025 127086
0.013426 0.00905597 0.025 126656
0.013832 0.00932978 0.025 126405
0.0142475 0.00961003 0.025 126714
0.0146727 0.0098969 0.025 127235
0.0151081 0.0101905 0.025 127844
0.0155536 0.010491 0.025 127814
0.0160097 0.0107986 0.025 127254
0.0164764 0.0111134 0.025 126454
0.016954 0.0114356 0.025 125800
0.0174427 0.0117653 0.025 125636
0.0179429 0.0121026 0.025 125992
0.0184548 0.0124479 0.025 126549
0.0189786 0.0128013 0.025 126774
0.0195146 0.0131628 0.025 126620
0.020063 0.0135327 0.025 126120
0.0206242 0.0139112 0.025 125453
0.0211983 0.0142984 0.025 124927
0.0217857 0.0146947 0.025 124571
0.0223867 0.0151 0.025 124382
0.0230015 0.0155147 0.025 124198
0.0236304 0.0159389 0.025 124110
0.0242738 0.0163729 0.025 124181
0.0249318 0.0168167 0.025 124419
0.025605 0.0172708 0.025 124713
0.0262935 0.0177352 0.025 124862
0.0269977 0.0182102 0.025 124912
0.0277178 0.0186959 0.025 124893
0.0284544 0.0191927 0.025 124909
0.0292075 0.0197008 0.025 124870
0.0299777 0.0202203 0.025 124954
0.0307653 0.0207514 0.025 125043
0.0315704 0.0212945 0.025 125363
0.0323937 0.0218499 0.025 125716
0.0332354 0.0224176 0.025 125940
0.0340959 0.022998 0.025 125990
0.0349755 0.0235913 0.025 125941
0.0358747 0.0241978 0.025 125845
0.0367938 0.0248178 0.025 125715
0.0377331 0.0254513 0.025 125664
0.0386932 0.0260989 0.025 125593
0.0396743 0.0267606 0.025 125372
0.0406769 0.0274369 0.025 125004
0.0417013 0.0281279 0.025 124630
0.042748 0.0288339 0.025 124513
0.0438175 0.0295552 0.025 124787
0.04491 0.0302922 0.025 125289
0.0460262 0.031045 0.025 125695
0.0471662 0.031814 0.025 125818
0.0483306 0.0325995 0.025 125387
0.0495199 0.0334016 0.025 124597
0.0507344 0.0342208 0.025 123873
0.0519746 0.0350573 0.025 123693
0.0532409 0.0359114 0.025 123891
0.0545339 0.0367835 0.025 124659
0.0558538 0.0376739 0.025 125469
0.0572012 0.0385827 0.025 125867
0.0585766 0.0395104 0.025 125855
0.0599804 0.0404573 0.025 125514
0.061413 0.0414236 0.025 125243
0.0628748 0.0424096 0.025 125180
0.0643665 0.0434157 0.025 125239
0.0658883 0.0444422 0.025 125388
0.0674408 0.0454894 0.025 125431
0.0690245 0.0465576 0.025 125439
0.0706398 0.0476471 0.025 125456
0.0722871 0.0487582 0.025 125498
0.0739669 0.0498912 0.025 125571
0.0756797 0.0510466 0.025 125560
0.0774258 0.0522244 0.025 125401
0.0792059 0.053425 0.025 125187
0.0810203 0.0546489 0.025 125084
0.0828694 0.0558961 0.025 125086
0.0847537 0.0571671 0.025 125376
0.0866737 0.0584622 0.025 125651
0.0886298 0.0597816 0.025 125846
0.0906224 0.0611256 0.025 125892
0.0926518 0.0624944 0.025 125821
0.0947185 0.0638884 0.025 125683
0.096823 0.065308 0.025 125414
0.0989659 0.0667532 0.025 125267
0.101147 0.0682245 0.025 124897
0.103367 0.0697219 0.025 124756
0.105626 0.0712458 0.025 124829
0.107926 0.0727965 0.025 125007
0.110265 0.074374 0.025 125354
0.112644 0.0759789 0.025 124985
0.115063 0.0776111 0.025 125433
0.117524 0.0792709 0.025 125180
0.120026 0.0809585 0.025 124932
0.122569 0.0826741 0.025 125071
0.125155 0.0844179 0.025 125260
0.127782 0.0861901 0.025 125413
0.130451 0.0879908 0.025 125369
0.133163 0.08982 0.025 125412
0.135918 0.0916781 0.025 125300
0.138716 0.0935651 0.025 125159
0.141556 0.095481 0.025 125036
0.14444 0.097426 0.025 124805
0.147367 0.0994004 0.025 123726
0.150337 0.101404 0.025 124691
0.153351 0.103437 0.025 124772
0.156408 0.105498 0.025 123606
0.159508 0.107589 0.025 124951
0.162651 0.10971 0.025 124193
0.165838 0.111859 0.025 120628
0.169069 0.114039 0.025 123876
0.172343 0.116247 0.025 122794
0.175659 0.118483 0.025 122555
0.179018 0.120749 0.025 122217
0.182421 0.123045 0.025 121747
0.185866 0.125368 0.025 121767
0.189353 0.12772 0.025 121448
0.192882 0.1301 0.025 120847
0.196453 0.132509 0.025 120918
0.200065 0.134946 0.025 120208
0.203718 0.13741 0.025 120574
0.207412 0.139901 0.025 121403
0.211146 0.14242 0.025 121005
0.214919 0.144965 0.025 119921
0.218732 0.147537 0.025 120366
0.222583 0.150134 0.025 119164
0.226472 0.152757 0.025 120139
0.230399 0.155406 0.025 119225
0.234362 0.15808 0.025 119294
0.238362 0.160777 0.025 118244
0.242396 0.163498 0.025 120448
0.246466 0.166244 0.025 119428
0.250569 0.169012 0.025 121107
0.254706 0.171801 0.025 120343
0.258874 0.174613 0.025 120190
0.263074 0.177446 0.025 119120
0.267304 0.180299 0.025 119774
0.271564 0.183172 0.025 120294
0.275852 0.186064 0.025 119747
0.280168 0.188975 0.025 120816
0.28451 0.191904 0.025 120209
0.288876 0.19485 0.025 119250
0.293268 0.197812 0.025 120573
0.297683 0.20079 0.025 120515
0.302119 0.203782 0.025 117937
0.306577 0.206788 0.025 119642
0.311054 0.209808 0.025 118808
0.315549 0.212841 0.025 119829
0.320063 0.215885 0.025 119120
0.324591 0.218939 0.025 118853
0.329134 0.222003 0.025 120469
0.333691 0.225077 0.025 119287
0.33826 0.228159 0.025 120897
0.342839 0.231248 0.025 120156
0.347428 0.234343 0.025 121210
0.352025 0.237444 0.025 119381
0.356628 0.240548 0.025 120006
0.361237 0.243658 0.025 120041
0.36585 0.246769 0.025 117519
0.370465 0.249882 0.025 120521
0.375082 0.252996 0.025 119840
0.379698 0.25611 0.025 118310
0.384313 0.259223 0.025 120645
0.388926 0.262333 0.025 119811
0.393534 0.265442 0.025 120532
0.398136 0.268546 0.025 120998
0.40273 0.271645 0.025 119733
0.407317 0.274739 0.025 119588
0.411894 0.277826 0.025 118649
0.41646 0.280906 0.025 120595
0.421014 0.283977 0.025 119638
0.425554 0.28704 0.025 119177
0.430079 0.290092 0.025 119836
0.434588 0.293133 0.025 119152
0.439079 0.296162 0.025 119943
0.443551 0.299179 0.025 119197
0.448004 0.302183 0.025 119028
0.452437 0.305172 0.025 119059
0.456846 0.308146 0.025 119247
0.461232 0.311105 0.025 119084
0.465593 0.314047 0.025 119135
0.469929 0.316971 0.025 118225
0.474238 0.319878 0.025 120094
0.47852 0.322766 0.025 119565
0.482773 0.325635 0.025 119719
0.486996 0.328483 0.025 119050
0.491189 0.331311 0.025 117768
0.49535 0.334118 0.025 119628
