# wallHeatFlux  FACE_DATA 398
# x  y  z  wallHeatFlux
-0.7975 0 0.025 -653693
-0.79239 0 0.025 -120425
-0.787056 0 0.025 -69904.7
-0.781492 0 0.025 -60166.8
-0.775691 0 0.025 -60345.5
-0.769649 0 0.025 -62300.9
-0.763362 0 0.025 -63542.6
-0.756822 0 0.025 -63912.8
-0.750025 0 0.025 -64447.3
-0.742968 0 0.025 -65052.4
-0.735648 0 0.025 -65386
-0.72806 0 0.025 -65863.9
-0.720203 0 0.025 -66163
-0.712076 0 0.025 -66533.8
-0.703677 0 0.025 -66819.7
-0.695006 0 0.025 -66978
-0.686065 0 0.025 -67024.6
-0.676855 0 0.025 -66970
-0.667379 0 0.025 -66856.1
-0.65764 0 0.025 -66801.5
-0.647644 0 0.025 -66979.3
-0.637397 0 0.025 -67118.9
-0.626906 0 0.025 -67212.3
-0.616179 0 0.025 -67278.8
-0.605224 0 0.025 -67357.3
-0.594054 0 0.025 -67358.7
-0.582678 0 0.025 -67441.9
-0.57111 0 0.025 -67496.2
-0.559364 0 0.025 -67522.8
-0.547454 0 0.025 -67572.6
-0.535396 0 0.025 -67631.4
-0.523205 0 0.025 -67690
-0.510901 0 0.025 -67727.7
-0.4985 0 0.025 -67737.8
-0.486021 0 0.025 -67729.8
-0.473483 0 0.025 -67756.6
-0.460905 0 0.025 -67806.3
-0.448308 0 0.025 -67870.9
-0.435709 0 0.025 -67948.9
-0.42313 0 0.025 -67990.2
-0.41059 0 0.025 -67965.3
-0.39811 0 0.025 -67927.1
-0.385706 0 0.025 -67907.5
-0.373398 0 0.025 -67925.3
-0.361205 0 0.025 -67984.6
-0.349141 0 0.025 -68029.7
-0.337226 0 0.025 -68079.9
-0.325475 0 0.025 -68096.7
-0.313901 0 0.025 -68118.5
-0.30252 0 0.025 -68133.5
-0.291343 0 0.025 -68139.4
-0.280382 0 0.025 -68145.1
-0.269646 0 0.025 -68154.7
-0.259148 0 0.025 -68127.4
-0.248893 0 0.025 -68097.2
-0.23889 0 0.025 -68067.8
-0.229143 0 0.025 -68042.8
-0.219659 0 0.025 -68020.4
-0.210441 0 0.025 -67997.6
-0.201491 0 0.025 -68022.4
-0.192812 0 0.025 -68059.8
-0.184405 0 0.025 -68109.5
-0.176269 0 0.025 -68193.7
-0.168404 0 0.025 -68253.9
-0.160808 0 0.025 -68292.8
-0.15348 0 0.025 -68304.3
-0.146415 0 0.025 -68306.4
-0.13961 0 0.025 -68279.6
-0.133063 0 0.025 -68256
-0.126767 0 0.025 -68217.6
-0.120718 0 0.025 -68169.4
-0.11491 0 0.025 -68106.3
-0.109339 0 0.025 -68044.2
-0.103997 0 0.025 -67986.2
-0.0988805 0 0.025 -67934.7
-0.0939808 0 0.025 -67889.7
-0.0892928 0 0.025 -67852.3
-0.0848096 0 0.025 -67825.7
-0.0805248 0 0.025 -67805.2
-0.0764316 0 0.025 -67790.6
-0.0725237 0 0.025 -67786.7
-0.0687943 0 0.025 -67778.6
-0.065237 0 0.025 -67780.4
-0.0618454 0 0.025 -67778.3
-0.058613 0 0.025 -67785.7
-0.0555337 0 0.025 -67800.1
-0.0526013 0 0.025 -67813.5
-0.0498099 0 0.025 -67832.7
-0.0471536 0 0.025 -67852
-0.0446266 0 0.025 -67871.3
-0.0422235 0 0.025 -67890.6
-0.039939 0 0.025 -67910
-0.0377676 0 0.025 -67923.4
-0.0357044 0 0.025 -67938.5
-0.0337445 0 0.025 -67952
-0.0318832 0 0.025 -67960.6
-0.0301159 0 0.025 -67974.5
-0.0284383 0 0.025 -67983.1
-0.0268461 0 0.025 -67986.3
-0.0253353 0 0.025 -67989.5
-0.023902 0 0.025 -67992.8
-0.0225426 0 0.025 -67995.3
-0.0212532 0 0.025 -67995.1
-0.0200306 0 0.025 -67997.6
-0.0188715 0 0.025 -67995.8
-0.0177728 0 0.025 -67999.4
-0.0167313 0 0.025 -67997.9
-0.0157444 0 0.025 -67996.6
-0.0148092 0 0.025 -67994.2
-0.0139232 0 0.025 -67990.6
-0.0130838 0 0.025 -67987.3
-0.0122887 0 0.025 -67984.7
-0.0115356 0 0.025 -67983.5
-0.0108223 0 0.025 -67978.9
-0.0101469 0 0.025 -67974.7
-0.00950727 0 0.025 -67971.4
-0.00890168 0 0.025 -67968.8
-0.00832835 0 0.025 -67967
-0.00778557 0 0.025 -67960.7
-0.00727176 0 0.025 -67955.8
-0.0067854 0 0.025 -67956.9
-0.00632507 0 0.025 -67949.6
-0.00588937 0 0.025 -67981
-0.00547703 0 0.025 -68607.2
-0.0050868 0 0.025 -67878.3
-0.00471753 0 0.025 -61971.5
-0.0043681 0 0.025 -69981.5
-0.00403746 0 0.025 -88520.3
-0.00372461 0 0.025 -100839
-0.0034286 0 0.025 -109151
-0.00314855 0 0.025 -114874
-0.0028836 0 0.025 -119621
-0.00263294 0 0.025 -123450
-0.00239581 0 0.025 -126511
-0.0021715 0 0.025 -128946
-0.00195929 0 0.025 -130524
-0.00175856 0 0.025 -131285
-0.00156869 0 0.025 -131506
-0.00138908 0 0.025 -131613
-0.0012192 0 0.025 -132190
-0.00105853 0 0.025 -134970
-0.000906546 0 0.025 -140283
-0.000762803 0 0.025 -148634
-0.000626848 0 0.025 -160629
-0.000498265 0 0.025 -176911
-0.000376656 0 0.025 -194804
-0.000261642 0 0.025 -209465
-0.00015287 0 0.025 -221187
-5e-05 0 0.025 -175500
4.14519e-05 2.79596e-05 0.025 -118279
0.000125371 8.45641e-05 0.025 -155427
0.000211347 0.000142556 0.025 -190631
0.000299429 0.000201968 0.025 -216849
0.000389669 0.000262835 0.025 -239022
0.000482118 0.000325193 0.025 -258867
0.000576831 0.000389077 0.025 -278135
0.000673861 0.000454524 0.025 -299210
0.000773265 0.000521574 0.025 -322626
0.0008751 0.000590262 0.025 -349087
0.000979426 0.000660632 0.025 -379867
0.0010863 0.000732721 0.025 -415608
0.00119579 0.000806572 0.025 -457895
0.00130795 0.000882227 0.025 -508385
0.00142285 0.00095973 0.025 -568981
0.00154056 0.00103912 0.025 -644639
0.00166115 0.00112046 0.025 -736631
0.00178467 0.00120378 0.025 -846305
0.00191121 0.00128913 0.025 -979261
0.00204083 0.00137656 0.025 -1.13978e+06
0.00217362 0.00146612 0.025 -1.30715e+06
0.00230964 0.00155787 0.025 -1.47637e+06
0.00244897 0.00165185 0.025 -1.6377e+06
0.00259169 0.00174812 0.025 -1.77768e+06
0.00273789 0.00184673 0.025 -1.88712e+06
0.00288765 0.00194774 0.025 -1.96255e+06
0.00304105 0.00205122 0.025 -1.99077e+06
0.00319818 0.00215719 0.025 -1.98721e+06
0.00335912 0.00226575 0.025 -1.9692e+06
0.00352397 0.00237695 0.025 -1.90863e+06
0.00369283 0.00249085 0.025 -1.85008e+06
0.00386579 0.00260751 0.025 -1.74517e+06
0.00404294 0.00272699 0.025 -1.67797e+06
0.00422438 0.00284938 0.025 -1.62758e+06
0.00441022 0.00297474 0.025 -1.58624e+06
0.00460056 0.00310312 0.025 -1.54898e+06
0.00479552 0.00323462 0.025 -1.52435e+06
0.00499519 0.0033693 0.025 -1.51494e+06
0.00519968 0.00350723 0.025 -1.52561e+06
0.00540911 0.00364849 0.025 -1.5334e+06
0.00562361 0.00379318 0.025 -1.54088e+06
0.00584329 0.00394134 0.025 -1.54195e+06
0.00606826 0.00409309 0.025 -1.55096e+06
0.00629865 0.00424849 0.025 -1.55801e+06
0.0065346 0.00440764 0.025 -1.56175e+06
0.00677623 0.00457063 0.025 -1.56016e+06
0.00702368 0.00473753 0.025 -1.55741e+06
0.00727707 0.00490844 0.025 -1.55827e+06
0.00753655 0.00508347 0.025 -1.56778e+06
0.00780227 0.00526269 0.025 -1.57144e+06
0.00807436 0.00544622 0.025 -1.57358e+06
0.00835298 0.00563415 0.025 -1.57571e+06
0.00863826 0.00582659 0.025 -1.5774e+06
0.00893038 0.00602362 0.025 -1.57582e+06
0.00922949 0.00622537 0.025 -1.57692e+06
0.00953574 0.00643195 0.025 -1.57289e+06
0.00984929 0.00664345 0.025 -1.56927e+06
0.0101703 0.00686 0.025 -1.56377e+06
0.0104991 0.00708171 0.025 -1.55483e+06
0.0108356 0.00730871 0.025 -1.5546e+06
0.0111801 0.0075411 0.025 -1.54862e+06
0.0115329 0.00777902 0.025 -1.53452e+06
0.011894 0.00802259 0.025 -1.51749e+06
0.0122637 0.00827194 0.025 -1.50011e+06
0.0126421 0.00852719 0.025 -1.48611e+06
0.0130295 0.0087885 0.025 -1.46907e+06
0.013426 0.00905597 0.025 -1.44702e+06
0.013832 0.00932978 0.025 -1.42593e+06
0.0142475 0.00961003 0.025 -1.40732e+06
0.0146727 0.0098969 0.025 -1.39302e+06
0.0151081 0.0101905 0.025 -1.3797e+06
0.0155536 0.010491 0.025 -1.36677e+06
0.0160097 0.0107986 0.025 -1.35059e+06
0.0164764 0.0111134 0.025 -1.34233e+06
0.016954 0.0114356 0.025 -1.34221e+06
0.0174427 0.0117653 0.025 -1.34089e+06
0.0179429 0.0121026 0.025 -1.34501e+06
0.0184548 0.0124479 0.025 -1.36449e+06
0.0189786 0.0128013 0.025 -1.36318e+06
0.0195146 0.0131628 0.025 -1.36502e+06
0.020063 0.0135327 0.025 -1.37873e+06
0.0206242 0.0139112 0.025 -1.37758e+06
0.0211983 0.0142984 0.025 -1.37655e+06
0.0217857 0.0146947 0.025 -1.38345e+06
0.0223867 0.0151 0.025 -1.39135e+06
0.0230015 0.0155147 0.025 -1.40054e+06
0.0236304 0.0159389 0.025 -1.41794e+06
0.0242738 0.0163729 0.025 -1.42145e+06
0.0249318 0.0168167 0.025 -1.44054e+06
0.025605 0.0172708 0.025 -1.46189e+06
0.0262935 0.0177352 0.025 -1.46527e+06
0.0269977 0.0182102 0.025 -1.47111e+06
0.0277178 0.0186959 0.025 -1.47844e+06
0.0284544 0.0191927 0.025 -1.51957e+06
0.0292075 0.0197008 0.025 -1.51115e+06
0.0299777 0.0202203 0.025 -1.51187e+06
0.0307653 0.0207514 0.025 -1.51811e+06
0.0315704 0.0212945 0.025 -1.52646e+06
0.0323937 0.0218499 0.025 -1.53693e+06
0.0332354 0.0224176 0.025 -1.54847e+06
0.0340959 0.022998 0.025 -1.55978e+06
0.0349755 0.0235913 0.025 -1.56335e+06
0.0358747 0.0241978 0.025 -1.58892e+06
0.0367938 0.0248178 0.025 -1.58057e+06
0.0377331 0.0254513 0.025 -1.58264e+06
0.0386932 0.0260989 0.025 -1.58565e+06
0.0396743 0.0267606 0.025 -1.58794e+06
0.0406769 0.0274369 0.025 -1.58668e+06
0.0417013 0.0281279 0.025 -1.58406e+06
0.042748 0.0288339 0.025 -1.59242e+06
0.0438175 0.0295552 0.025 -1.58874e+06
0.04491 0.0302922 0.025 -1.58954e+06
0.0460262 0.031045 0.025 -1.59947e+06
0.0471662 0.031814 0.025 -1.61866e+06
0.0483306 0.0325995 0.025 -1.6003e+06
0.0495199 0.0334016 0.025 -1.59997e+06
0.0507344 0.0342208 0.025 -1.59129e+06
0.0519746 0.0350573 0.025 -1.58564e+06
0.0532409 0.0359114 0.025 -1.60107e+06
0.0545339 0.0367835 0.025 -1.58883e+06
0.0558538 0.0376739 0.025 -1.59228e+06
0.0572012 0.0385827 0.025 -1.59645e+06
0.0585766 0.0395104 0.025 -1.60331e+06
0.0599804 0.0404573 0.025 -1.61469e+06
0.061413 0.0414236 0.025 -1.59846e+06
0.0628748 0.0424096 0.025 -1.62657e+06
0.0643665 0.0434157 0.025 -1.63064e+06
0.0658883 0.0444422 0.025 -1.60166e+06
0.0674408 0.0454894 0.025 -1.59408e+06
0.0690245 0.0465576 0.025 -1.59837e+06
0.0706398 0.0476471 0.025 -1.59531e+06
0.0722871 0.0487582 0.025 -1.59357e+06
0.0739669 0.0498912 0.025 -1.59386e+06
0.0756797 0.0510466 0.025 -1.6073e+06
0.0774258 0.0522244 0.025 -1.62217e+06
0.0792059 0.053425 0.025 -1.61647e+06
0.0810203 0.0546489 0.025 -1.64504e+06
0.0828694 0.0558961 0.025 -1.60661e+06
0.0847537 0.0571671 0.025 -1.66104e+06
0.0866737 0.0584622 0.025 -1.61717e+06
0.0886298 0.0597816 0.025 -1.62322e+06
0.0906224 0.0611256 0.025 -1.64162e+06
0.0926518 0.0624944 0.025 -1.60354e+06
0.0947185 0.0638884 0.025 -1.65614e+06
0.096823 0.065308 0.025 -1.60871e+06
0.0989659 0.0667532 0.025 -1.71362e+06
0.101147 0.0682245 0.025 -2.13474e+06
0.103367 0.0697219 0.025 -2.02032e+06
0.105626 0.0712458 0.025 -1.54983e+06
0.107926 0.0727965 0.025 -1.5541e+06
0.110265 0.074374 0.025 -1.61101e+06
0.112644 0.0759789 0.025 -2.35391e+06
0.115063 0.0776111 0.025 -1.62058e+06
0.117524 0.0792709 0.025 -2.20507e+06
0.120026 0.0809585 0.025 -2.38268e+06
0.122569 0.0826741 0.025 -2.11119e+06
0.125155 0.0844179 0.025 -1.8954e+06
0.127782 0.0861901 0.025 -1.65283e+06
0.130451 0.0879908 0.025 -1.6102e+06
0.133163 0.08982 0.025 -1.59362e+06
0.135918 0.0916781 0.025 -1.56175e+06
0.138716 0.0935651 0.025 -1.56987e+06
0.141556 0.095481 0.025 -1.59677e+06
0.14444 0.097426 0.025 -2.08786e+06
0.147367 0.0994004 0.025 -3.01639e+06
0.150337 0.101404 0.025 -2.18185e+06
0.153351 0.103437 0.025 -2.12832e+06
0.156408 0.105498 0.025 -2.9026e+06
0.159508 0.107589 0.025 -1.3577e+06
0.162651 0.10971 0.025 -1.99397e+06
0.165838 0.111859 0.025 -4.54774e+06
0.169069 0.114039 0.025 -2.05567e+06
0.172343 0.116247 0.025 -2.53511e+06
0.175659 0.118483 0.025 -2.4222e+06
0.179018 0.120749 0.025 -2.43591e+06
0.182421 0.123045 0.025 -2.52555e+06
0.185866 0.125368 0.025 -2.2443e+06
0.189353 0.12772 0.025 -2.29309e+06
0.192882 0.1301 0.025 -2.46487e+06
0.196453 0.132509 0.025 -2.33181e+06
0.200065 0.134946 0.025 -2.8385e+06
0.203718 0.13741 0.025 -2.57172e+06
0.207412 0.139901 0.025 -1.23899e+06
0.211146 0.14242 0.025 -1.35381e+06
0.214919 0.144965 0.025 -2.24116e+06
0.218732 0.147537 0.025 -1.37403e+06
0.222583 0.150134 0.025 -2.69453e+06
0.226472 0.152757 0.025 -1.39614e+06
0.230399 0.155406 0.025 -2.58338e+06
0.234362 0.15808 0.025 -2.42049e+06
0.238362 0.160777 0.025 -3.46476e+06
0.242396 0.163498 0.025 -2.09207e+06
0.246466 0.166244 0.025 -3.1591e+06
0.250569 0.169012 0.025 -1.28923e+06
0.254706 0.171801 0.025 -2.13247e+06
0.258874 0.174613 0.025 -2.14328e+06
0.263074 0.177446 0.025 -2.78033e+06
0.267304 0.180299 0.025 -2.22685e+06
0.271564 0.183172 0.025 -1.35622e+06
0.275852 0.186064 0.025 -2.34627e+06
0.280168 0.188975 0.025 -1.35733e+06
0.28451 0.191904 0.025 -2.44317e+06
0.288876 0.19485 0.025 -3.34385e+06
0.293268 0.197812 0.025 -2.34765e+06
0.297683 0.20079 0.025 -2.04176e+06
0.302119 0.203782 0.025 -3.46923e+06
0.306577 0.206788 0.025 -2.06127e+06
0.311054 0.209808 0.025 -2.3171e+06
0.315549 0.212841 0.025 -1.65945e+06
0.320063 0.215885 0.025 -1.94257e+06
0.324591 0.218939 0.025 -2.93611e+06
0.329134 0.222003 0.025 -1.67516e+06
0.333691 0.225077 0.025 -3.34402e+06
0.33826 0.228159 0.025 -2.19228e+06
0.342839 0.231248 0.025 -2.88337e+06
0.347428 0.234343 0.025 -1.252e+06
0.352025 0.237444 0.025 -2.83136e+06
0.356628 0.240548 0.025 -2.07233e+06
0.361237 0.243658 0.025 -1.69001e+06
0.36585 0.246769 0.025 -3.92267e+06
0.370465 0.249882 0.025 -1.81346e+06
0.375082 0.252996 0.025 -1.82582e+06
0.379698 0.25611 0.025 -3.81955e+06
0.384313 0.259223 0.025 -1.94019e+06
0.388926 0.262333 0.025 -2.58324e+06
0.393534 0.265442 0.025 -2.08938e+06
0.398136 0.268546 0.025 -1.31101e+06
0.40273 0.271645 0.025 -2.52181e+06
0.407317 0.274739 0.025 -2.59802e+06
0.411894 0.277826 0.025 -3.20609e+06
0.41646 0.280906 0.025 -1.24678e+06
0.421014 0.283977 0.025 -2.36335e+06
0.425554 0.28704 0.025 -2.79835e+06
0.430079 0.290092 0.025 -2.26673e+06
0.434588 0.293133 0.025 -2.77618e+06
0.439079 0.296162 0.025 -1.93768e+06
0.443551 0.299179 0.025 -2.53624e+06
0.448004 0.302183 0.025 -2.57722e+06
0.452437 0.305172 0.025 -2.56731e+06
0.456846 0.308146 0.025 -2.32611e+06
0.461232 0.311105 0.025 -2.37971e+06
0.465593 0.314047 0.025 -2.26584e+06
0.469929 0.316971 0.025 -2.97962e+06
0.474238 0.319878 0.025 -1.49271e+06
0.47852 0.322766 0.025 -1.70641e+06
0.482773 0.325635 0.025 -1.37508e+06
0.486996 0.328483 0.025 -1.85045e+06
0.491189 0.331311 0.025 -3.37961e+06
0.49535 0.334118 0.025 -1.77953e+06
