# p  FACE_DATA 398
# x  y  z  p
-0.7975 -7.61524e-06 0 1136.76
-0.79239 -7.61524e-06 0 893.87
-0.787056 -7.61524e-06 0 734.944
-0.781492 -7.61524e-06 0 707.191
-0.775691 -7.61524e-06 0 674.34
-0.769649 -7.61524e-06 0 653.869
-0.763361 -7.61524e-06 0 643.137
-0.756822 -7.61524e-06 0 635.668
-0.750025 -7.61524e-06 0 629.403
-0.742968 -7.61524e-06 0 618.51
-0.735648 -7.61524e-06 0 612.043
-0.72806 -7.61524e-06 0 602.232
-0.720203 -7.61524e-06 0 600.948
-0.712075 -7.61524e-06 0 603.341
-0.703676 -7.61524e-06 0 606.706
-0.695006 -7.61524e-06 0 610.043
-0.686065 -7.61524e-06 0 613.081
-0.676855 -7.61524e-06 0 614.955
-0.667379 -7.61524e-06 0 615.689
-0.657641 -7.61524e-06 0 616.185
-0.647644 -7.61524e-06 0 616.585
-0.637398 -7.61524e-06 0 616.45
-0.626906 -7.61524e-06 0 615.905
-0.616179 -7.61524e-06 0 615.427
-0.605225 -7.61524e-06 0 614.658
-0.594054 -7.61524e-06 0 613.743
-0.582677 -7.61524e-06 0 612.962
-0.57111 -7.61524e-06 0 612.378
-0.559364 -7.61524e-06 0 611.524
-0.547454 -7.61524e-06 0 610.477
-0.535396 -7.61524e-06 0 609.454
-0.523205 -7.61524e-06 0 608.564
-0.510901 -7.61524e-06 0 607.558
-0.498499 -7.61524e-06 0 606.584
-0.486021 -7.61524e-06 0 605.969
-0.473482 -7.61524e-06 0 605.703
-0.460905 -7.61524e-06 0 605.073
-0.448307 -7.61524e-06 0 604.064
-0.435709 -7.61524e-06 0 602.998
-0.42313 -7.61524e-06 0 602.413
-0.41059 -7.61524e-06 0 602.505
-0.39811 -7.61524e-06 0 602.524
-0.385706 -7.61524e-06 0 601.893
-0.373398 -7.61524e-06 0 600.864
-0.361205 -7.61524e-06 0 599.782
-0.349142 -7.61524e-06 0 599.125
-0.337226 -7.61524e-06 0 599.08
-0.325475 -7.61524e-06 0 599.554
-0.313901 -7.61524e-06 0 599.687
-0.30252 -7.61524e-06 0 599.061
-0.291343 -7.61524e-06 0 597.743
-0.280381 -7.61524e-06 0 596.31
-0.269647 -7.61524e-06 0 595.035
-0.259148 -7.61524e-06 0 594.192
-0.248893 -7.61524e-06 0 593.884
-0.23889 -7.61524e-06 0 594.5
-0.229143 -7.61524e-06 0 595.228
-0.219659 -7.61524e-06 0 595.889
-0.210441 -7.61524e-06 0 596.406
-0.201491 -7.61524e-06 0 596.651
-0.192812 -7.61524e-06 0 596.692
-0.184405 -7.61524e-06 0 596.303
-0.176269 -7.61524e-06 0 595.677
-0.168404 -7.61524e-06 0 594.854
-0.160809 -7.61524e-06 0 593.884
-0.15348 -7.61524e-06 0 592.903
-0.146415 -7.61524e-06 0 592.001
-0.13961 -7.61524e-06 0 591.196
-0.133063 -7.61524e-06 0 590.539
-0.126767 -7.61524e-06 0 590.051
-0.120717 -7.61524e-06 0 589.745
-0.11491 -7.61524e-06 0 589.62
-0.109339 -7.61524e-06 0 589.588
-0.103997 -7.61524e-06 0 589.822
-0.0988804 -7.61524e-06 0 590.107
-0.0939809 -7.61524e-06 0 590.466
-0.0892928 -7.61524e-06 0 590.837
-0.0848096 -7.61524e-06 0 591.188
-0.0805248 -7.61524e-06 0 591.504
-0.0764317 -7.61524e-06 0 591.776
-0.0725237 -7.61524e-06 0 592.018
-0.0687943 -7.61524e-06 0 592.213
-0.065237 -7.61524e-06 0 592.471
-0.0618454 -7.61524e-06 0 594.152
-0.058613 -7.61524e-06 0 611.836
-0.0555337 -7.61524e-06 0 678.623
-0.0526013 -7.61524e-06 0 779.526
-0.0498099 -7.61524e-06 0 861.757
-0.0471536 -7.61524e-06 0 926.126
-0.0446266 -7.61524e-06 0 984.446
-0.0422235 -7.61524e-06 0 1040.31
-0.0399389 -7.61524e-06 0 1094.33
-0.0377676 -7.61524e-06 0 1145.58
-0.0357044 -7.61524e-06 0 1194.17
-0.0337445 -7.61524e-06 0 1239.74
-0.0318832 -7.61524e-06 0 1281.8
-0.0301159 -7.61524e-06 0 1320.54
-0.0284383 -7.61524e-06 0 1356.54
-0.0268462 -7.61524e-06 0 1389.89
-0.0253353 -7.61524e-06 0 1421.05
-0.023902 -7.61524e-06 0 1449.94
-0.0225425 -7.61524e-06 0 1476.79
-0.0212532 -7.61524e-06 0 1501.73
-0.0200306 -7.61524e-06 0 1524.94
-0.0188715 -7.61524e-06 0 1546.47
-0.0177727 -7.61524e-06 0 1566.5
-0.0167313 -7.61524e-06 0 1585.11
-0.0157444 -7.61524e-06 0 1602.39
-0.0148093 -7.61524e-06 0 1618.41
-0.0139232 -7.61524e-06 0 1633.18
-0.0130838 -7.61524e-06 0 1646.72
-0.0122887 -7.61524e-06 0 1659.07
-0.0115355 -7.61524e-06 0 1670.3
-0.0108223 -7.61524e-06 0 1680.47
-0.0101469 -7.61524e-06 0 1689.66
-0.00950727 -7.61524e-06 0 1698.01
-0.00890169 -7.61524e-06 0 1705.65
-0.00832834 -7.61524e-06 0 1712.73
-0.00778557 -7.61524e-06 0 1719.41
-0.00727176 -7.61524e-06 0 1725.84
-0.00678541 -7.61524e-06 0 1732.17
-0.00632507 -7.61524e-06 0 1738.5
-0.00588937 -7.61524e-06 0 1744.97
-0.00547703 -7.61524e-06 0 1751.72
-0.00508681 -7.61524e-06 0 1758.81
-0.00471753 -7.61524e-06 0 1766.31
-0.0043681 -7.61524e-06 0 1774.24
-0.00403746 -7.61524e-06 0 1782.62
-0.00372461 -7.61524e-06 0 1791.55
-0.0034286 -7.61524e-06 0 1801.2
-0.00314855 -7.61524e-06 0 1811.19
-0.00288361 -7.61524e-06 0 1821.56
-0.00263295 -7.61524e-06 0 1832.43
-0.00239582 -7.61524e-06 0 1843.63
-0.00217149 -7.61524e-06 0 1855.02
-0.00195929 -7.61524e-06 0 1866.56
-0.00175856 -7.61524e-06 0 1878.2
-0.00156869 -7.61524e-06 0 1889.69
-0.00138908 -7.61524e-06 0 1900.89
-0.00121921 -7.61524e-06 0 1911.52
-0.00105853 -7.61524e-06 0 1921.3
-0.000906546 -7.61524e-06 0 1929.95
-0.000762803 -7.61524e-06 0 1937.09
-0.000626849 -7.61524e-06 0 1942.43
-0.000498266 -7.61524e-06 0 1945.71
-0.000376656 -7.61524e-06 0 1946.95
-0.000261642 -7.61524e-06 0 1946.46
-0.00015287 -7.61524e-06 0 1945.69
-5e-05 -7.61524e-06 0 1944.7
4.14596e-05 2.03453e-05 0 1930.89
0.000125379 7.69412e-05 0 1932.55
0.000211356 0.000134924 0 1929.72
0.000299438 0.000194328 0 1926.62
0.000389678 0.000255186 0 1922.98
0.000482128 0.000317535 0 1919.19
0.000576841 0.000381409 0 1915.37
0.000673871 0.000446848 0 1911.62
0.000773276 0.000513887 0 1908.04
0.000875112 0.000582565 0 1904.73
0.000979439 0.000652924 0 1901.8
0.00108632 0.000725003 0 1899.36
0.00119581 0.000798843 0 1897.51
0.00130797 0.000874487 0 1896.28
0.00142287 0.000951979 0 1895.81
0.00154058 0.00103136 0 1896.19
0.00166117 0.00111268 0 1897.47
0.00178469 0.00119599 0 1899.58
0.00191123 0.00128133 0 1902.61
0.00204085 0.00136875 0 1906.57
0.00217364 0.0014583 0 1911.47
0.00230966 0.00155003 0 1917.3
0.00244899 0.001644 0 1924.09
0.00259171 0.00174025 0 1931.8
0.00273791 0.00183885 0 1940.39
0.00288767 0.00193985 0 1950.02
0.00304108 0.0020433 0 1960.52
0.0031982 0.00214927 0 1971.98
0.00335915 0.00225781 0 1984.35
0.003524 0.002369 0 1997.65
0.00369286 0.00248287 0 2011.87
0.00386582 0.00259951 0 2027.01
0.00404297 0.00271899 0 2043.11
0.00422442 0.00284136 0 2060.15
0.00441026 0.00296669 0 2078.18
0.0046006 0.00309506 0 2097.2
0.00479556 0.00322653 0 2117.27
0.00499523 0.00336119 0 2138.39
0.00519972 0.00349911 0 2160.65
0.00540916 0.00364036 0 2184.03
0.00562366 0.00378501 0 2208.64
0.00584334 0.00393316 0 2234.5
0.00606831 0.00408489 0 2261.7
0.00629871 0.00424027 0 2290.28
0.00653466 0.0043994 0 2320.33
0.00677629 0.00456236 0 2351.94
0.00702374 0.00472923 0 2385.18
0.00727714 0.00490013 0 2420.14
0.00753663 0.00507513 0 2456.94
0.00780234 0.00525433 0 2495.63
0.00807444 0.00543783 0 2536.34
0.00835306 0.00562573 0 2579.17
0.00863835 0.00581814 0 2624.16
0.00893047 0.00601514 0 2671.43
0.00922958 0.00621687 0 2721
0.00953584 0.00642341 0 2772.96
0.00984939 0.00663489 0 2827.3
0.0101705 0.00685141 0 2884.18
0.0104992 0.00707309 0 2943.54
0.0108357 0.00730005 0 3005.7
0.0111802 0.00753241 0 3071.09
0.011533 0.0077703 0 3140.48
0.0118941 0.00801384 0 3215
0.0122638 0.00826316 0 3295.78
0.0126422 0.00851837 0 3383.89
0.0130296 0.00877964 0 3480.08
0.0134262 0.00904708 0 3585.03
0.0138321 0.00932084 0 3699.12
0.0142476 0.00960107 0 3822.91
0.0146729 0.00988792 0 3956.68
0.0151082 0.0101815 0 4101.26
0.0155538 0.0104819 0 4257.17
0.0160098 0.0107895 0 4425.9
0.0164766 0.0111042 0 4607.52
0.0169542 0.0114263 0 4804.86
0.0174429 0.011756 0 5020.97
0.0179431 0.0120934 0 5270.99
0.018455 0.0124386 0 5590.02
0.0189789 0.0127918 0 5991.77
0.0195149 0.0131533 0 6421.9
0.0200633 0.0135232 0 6848.75
0.0206245 0.0139016 0 7266.89
0.0211986 0.0142888 0 7694.02
0.0217861 0.014685 0 8142.63
0.022387 0.0150903 0 8615.36
0.0230018 0.0155049 0 9100.42
0.0236307 0.0159291 0 9604.37
0.0242741 0.0163629 0 10141.7
0.0249322 0.0168068 0 10726.4
0.0256053 0.0172608 0 11369.4
0.0262939 0.0177251 0 12077.9
0.0269981 0.0182 0 12860.6
0.0277183 0.0186857 0 13720.7
0.0284548 0.0191825 0 14691.3
0.029208 0.0196904 0 15756.3
0.0299782 0.0202098 0 16852.6
0.0307658 0.0207409 0 17904.1
0.031571 0.021284 0 18892.8
0.0323942 0.0218393 0 19844.4
0.033236 0.0224069 0 20811.1
0.0340965 0.0229872 0 21793.5
0.0349762 0.0235805 0 22710.2
0.0358753 0.0241869 0 23395.7
0.0367944 0.0248067 0 23715.8
0.0377338 0.0254403 0 23721.2
0.0386938 0.0260877 0 23155.9
0.039675 0.0267494 0 22367.7
0.0406776 0.0274256 0 21429.7
0.0417021 0.0281165 0 20462.8
0.0427488 0.0288225 0 19511.2
0.0438183 0.0295437 0 18630.3
0.0449109 0.0302805 0 17852.6
0.046027 0.0310332 0 17171.9
0.0471671 0.0318021 0 16580.1
0.0483315 0.0325874 0 16069.6
0.0495209 0.0333895 0 15641.6
0.0507354 0.0342086 0 15287
0.0519756 0.035045 0 15017.9
0.053242 0.0358991 0 14829.1
0.054535 0.036771 0 14702.6
0.0558549 0.0376613 0 14601.5
0.0572024 0.03857 0 14577
0.0585778 0.0394976 0 14616.7
0.0599816 0.0404443 0 14656.5
0.0614142 0.0414105 0 14680.2
0.0628761 0.0423964 0 14692.7
0.0643678 0.0434024 0 14706.3
0.0658897 0.0444287 0 14708.9
0.0674422 0.0454758 0 14677.3
0.069026 0.0465439 0 14607.6
0.0706413 0.0476333 0 14546
0.0722886 0.0487443 0 14531.7
0.0739685 0.0498771 0 14547.6
0.0756813 0.0510323 0 14569.8
0.0774275 0.05221 0 14581
0.0792077 0.0534105 0 14571
0.0810221 0.0546342 0 14549.6
0.0828712 0.0558812 0 14523.6
0.0847556 0.0571521 0 14505.2
0.0866757 0.058447 0 14500.3
0.0886318 0.0597661 0 14517
0.0906244 0.06111 0 14535.4
0.0926539 0.0624787 0 14535.9
0.0947207 0.0638726 0 14515.4
0.0968252 0.0652919 0 14498.2
0.0989682 0.066737 0 14492.9
0.101149 0.068208 0 14492.4
0.103369 0.0697052 0 14500.4
0.105629 0.0712289 0 14506.2
0.107928 0.0727794 0 14531.7
0.110267 0.0743568 0 14543
0.112646 0.0759614 0 14531.9
0.115066 0.0775934 0 14497.8
0.117527 0.079253 0 14471.6
0.120029 0.0809404 0 14453
0.122572 0.0826558 0 14433.7
0.125158 0.0843994 0 14403.8
0.127785 0.0861713 0 14387.4
0.130454 0.0879717 0 14370.2
0.133167 0.0898008 0 14374
0.135921 0.0916586 0 14369.5
0.138719 0.0935453 0 14403.9
0.141559 0.095461 0 14434.8
0.144443 0.0974057 0 14457.7
0.14737 0.0993798 0 14447.5
0.15034 0.101383 0 14378.2
0.153354 0.103415 0 14327
0.156411 0.105477 0 14307.2
0.159511 0.107568 0 14292
0.162655 0.109688 0 14332.6
0.165842 0.111837 0 14361.4
0.169073 0.114016 0 14394
0.172346 0.116223 0 14414
0.175663 0.118461 0 14407.2
0.179022 0.120727 0 14332
0.182425 0.123021 0 14308.4
0.18587 0.125344 0 14319.2
0.189357 0.127696 0 14345.1
0.192886 0.130076 0 14363.1
0.196457 0.132484 0 14334.3
0.200069 0.13492 0 14310.4
0.203722 0.137384 0 14328.5
0.207416 0.139875 0 14339.6
0.21115 0.142393 0 14329.6
0.214924 0.144938 0 14294
0.218736 0.147509 0 14234.5
0.222587 0.150107 0 14210.8
0.226476 0.152729 0 14229.6
0.230403 0.155377 0 14243.8
0.234366 0.15805 0 14211.6
0.238366 0.160748 0 14150
0.242401 0.163469 0 14096.4
0.24647 0.166214 0 14079
0.250573 0.168981 0 14094.9
0.25471 0.17177 0 14096.1
0.258878 0.174582 0 14030.9
0.263078 0.177414 0 13991.4
0.267309 0.180266 0 13948.1
0.271568 0.183139 0 13993.8
0.275856 0.186031 0 14008.9
0.280172 0.188942 0 14008
0.284514 0.19187 0 13939.6
0.288881 0.194815 0 13913.9
0.293272 0.197777 0 13913.9
0.297687 0.200754 0 13949.5
0.302124 0.203746 0 13982.3
0.306581 0.206752 0 13981.5
0.311058 0.209772 0 13935.1
0.315554 0.212804 0 13888
0.320067 0.215847 0 13843.5
0.324595 0.218901 0 13906.9
0.329138 0.221965 0 13955
0.333695 0.225038 0 13972.5
0.338264 0.228119 0 13950.1
0.342843 0.231208 0 13881.3
0.347432 0.234302 0 13828.2
0.352029 0.237402 0 13813.2
0.356632 0.240507 0 13882.3
0.361241 0.243616 0 13942.3
0.365854 0.246727 0 13955.6
0.370469 0.249839 0 13930.8
0.375085 0.252953 0 13861.9
0.379702 0.256066 0 13801.3
0.384317 0.259178 0 13783
0.388929 0.262289 0 13833
0.393537 0.265396 0 13919.7
0.398139 0.2685 0 13991
0.402734 0.271598 0 14011.5
0.407321 0.274692 0 13952.6
0.411898 0.277779 0 13864.4
0.416464 0.280858 0 13778.2
0.421017 0.283929 0 13723.7
0.425557 0.286991 0 13762
0.430082 0.290042 0 13878.4
0.434591 0.293083 0 13973.6
0.439082 0.296112 0 14036.4
0.443555 0.299128 0 14036.8
0.448008 0.302131 0 13960.9
0.45244 0.30512 0 13848
0.456849 0.308094 0 13727.7
0.461235 0.311052 0 13673.4
0.465596 0.313993 0 13695.3
0.469932 0.316917 0 13811.4
0.474241 0.319823 0 13950.1
0.478523 0.322711 0 14065.3
0.482776 0.325579 0 14130.4
0.486999 0.328427 0 14120
0.491191 0.331254 0 14023.4
0.495353 0.334061 0 13869.3
