# p  FACE_DATA 398
# x  y  z  p
-0.7975 0 0.025 4472.64
-0.79239 0 0.025 3633.08
-0.787056 0 0.025 3017.11
-0.781492 0 0.025 2864.88
-0.775691 0 0.025 2743.47
-0.769649 0 0.025 2704.88
-0.763362 0 0.025 2705.96
-0.756822 0 0.025 2723.87
-0.750025 0 0.025 2747.73
-0.742968 0 0.025 2761.31
-0.735648 0 0.025 2766.99
-0.72806 0 0.025 2770.77
-0.720203 0 0.025 2774.37
-0.712076 0 0.025 2774.73
-0.703677 0 0.025 2773.57
-0.695006 0 0.025 2772.63
-0.686065 0 0.025 2771.9
-0.676855 0 0.025 2769.63
-0.667379 0 0.025 2765.32
-0.65764 0 0.025 2763.86
-0.647644 0 0.025 2765.26
-0.637397 0 0.025 2760.65
-0.626906 0 0.025 2758
-0.616179 0 0.025 2756.57
-0.605224 0 0.025 2754.7
-0.594054 0 0.025 2755.03
-0.582678 0 0.025 2751.96
-0.57111 0 0.025 2751.32
-0.559364 0 0.025 2748.74
-0.547454 0 0.025 2746.78
-0.535396 0 0.025 2745.54
-0.523205 0 0.025 2744.31
-0.510901 0 0.025 2744.01
-0.4985 0 0.025 2741.29
-0.486021 0 0.025 2738.54
-0.473483 0 0.025 2737.48
-0.460905 0 0.025 2736.78
-0.448308 0 0.025 2736.92
-0.435709 0 0.025 2735.35
-0.42313 0 0.025 2732.55
-0.41059 0 0.025 2730.28
-0.39811 0 0.025 2731.33
-0.385706 0 0.025 2731.5
-0.373398 0 0.025 2729.37
-0.361205 0 0.025 2726.49
-0.349141 0 0.025 2724.05
-0.337226 0 0.025 2723
-0.325475 0 0.025 2722.9
-0.313901 0 0.025 2725.09
-0.30252 0 0.025 2726.44
-0.291343 0 0.025 2727.02
-0.280382 0 0.025 2725.48
-0.269646 0 0.025 2722.1
-0.259148 0 0.025 2717.71
-0.248893 0 0.025 2713.71
-0.23889 0 0.025 2711.1
-0.229143 0 0.025 2710.45
-0.219659 0 0.025 2712.11
-0.210441 0 0.025 2715.07
-0.201491 0 0.025 2718.24
-0.192812 0 0.025 2721.06
-0.184405 0 0.025 2722.54
-0.176269 0 0.025 2723.12
-0.168404 0 0.025 2721.96
-0.160808 0 0.025 2719.84
-0.15348 0 0.025 2716.85
-0.146415 0 0.025 2713.44
-0.13961 0 0.025 2709.99
-0.133063 0 0.025 2706.98
-0.126767 0 0.025 2704.27
-0.120718 0 0.025 2702.18
-0.11491 0 0.025 2700.63
-0.109339 0 0.025 2699.72
-0.103997 0 0.025 2699.32
-0.0988805 0 0.025 2699.29
-0.0939808 0 0.025 2699.7
-0.0892928 0 0.025 2700.35
-0.0848096 0 0.025 2701.2
-0.0805248 0 0.025 2702.32
-0.0764316 0 0.025 2703.67
-0.0725237 0 0.025 2705.26
-0.0687943 0 0.025 2706.97
-0.065237 0 0.025 2708.72
-0.0618454 0 0.025 2710.4
-0.058613 0 0.025 2711.86
-0.0555337 0 0.025 2713.12
-0.0526013 0 0.025 2714.15
-0.0498099 0 0.025 2715
-0.0471536 0 0.025 2715.67
-0.0446266 0 0.025 2716.2
-0.0422235 0 0.025 2716.59
-0.039939 0 0.025 2716.71
-0.0377676 0 0.025 2732.64
-0.0357044 0 0.025 3120.49
-0.0337445 0 0.025 4538.16
-0.0318832 0 0.025 5798.49
-0.0301159 0 0.025 6527.9
-0.0284383 0 0.025 7036.48
-0.0268461 0 0.025 7446.15
-0.0253353 0 0.025 7795.03
-0.023902 0 0.025 8129.49
-0.0225426 0 0.025 8429.67
-0.0212532 0 0.025 8701.35
-0.0200306 0 0.025 8945.53
-0.0188715 0 0.025 9169.24
-0.0177728 0 0.025 9374.33
-0.0167313 0 0.025 9564.42
-0.0157444 0 0.025 9741.69
-0.0148092 0 0.025 9907.14
-0.0139232 0 0.025 10061
-0.0130838 0 0.025 10203.2
-0.0122887 0 0.025 10333.9
-0.0115356 0 0.025 10454.1
-0.0108223 0 0.025 10564.6
-0.0101469 0 0.025 10665.9
-0.00950727 0 0.025 10758.4
-0.00890168 0 0.025 10842.8
-0.00832835 0 0.025 10919.4
-0.00778557 0 0.025 10988.9
-0.00727176 0 0.025 11052
-0.0067854 0 0.025 11109.6
-0.00632507 0 0.025 11162.7
-0.00588937 0 0.025 11212.5
-0.00547703 0 0.025 11260.1
-0.0050868 0 0.025 11307.2
-0.00471753 0 0.025 11355.2
-0.0043681 0 0.025 11406
-0.00403746 0 0.025 11460.3
-0.00372461 0 0.025 11519.4
-0.0034286 0 0.025 11584.7
-0.00314855 0 0.025 11659.5
-0.0028836 0 0.025 11743.4
-0.00263294 0 0.025 11832.9
-0.00239581 0 0.025 11931.6
-0.0021715 0 0.025 12039.4
-0.00195929 0 0.025 12156
-0.00175856 0 0.025 12280.9
-0.00156869 0 0.025 12413.4
-0.00138908 0 0.025 12552.4
-0.0012192 0 0.025 12695.9
-0.00105853 0 0.025 12842.2
-0.000906546 0 0.025 12987.7
-0.000762803 0 0.025 13126.7
-0.000626848 0 0.025 13250.6
-0.000498265 0 0.025 13346.2
-0.000376656 0 0.025 13401.4
-0.000261642 0 0.025 13404.1
-0.00015287 0 0.025 13396.2
-5e-05 0 0.025 13404.6
4.14519e-05 2.79596e-05 0.025 13118.2
0.000125371 8.45641e-05 0.025 13151.9
0.000211347 0.000142556 0.025 13128.1
0.000299429 0.000201968 0.025 13072.6
0.000389669 0.000262835 0.025 13000.8
0.000482118 0.000325193 0.025 12922
0.000576831 0.000389077 0.025 12839.4
0.000673861 0.000454524 0.025 12755.7
0.000773265 0.000521574 0.025 12675.4
0.0008751 0.000590262 0.025 12603.5
0.000979426 0.000660632 0.025 12544
0.0010863 0.000732721 0.025 12499.3
0.00119579 0.000806572 0.025 12470.3
0.00130795 0.000882227 0.025 12455.3
0.00142285 0.00095973 0.025 12458.7
0.00154056 0.00103912 0.025 12477.6
0.00166115 0.00112046 0.025 12510.2
0.00178467 0.00120378 0.025 12556.8
0.00191121 0.00128913 0.025 12615.8
0.00204083 0.00137656 0.025 12687.2
0.00217362 0.00146612 0.025 12770.4
0.00230964 0.00155787 0.025 12864.2
0.00244897 0.00165185 0.025 12968.6
0.00259169 0.00174812 0.025 13083.7
0.00273789 0.00184673 0.025 13208.9
0.00288765 0.00194774 0.025 13344
0.00304105 0.00205122 0.025 13489.4
0.00319818 0.00215719 0.025 13644.9
0.00335912 0.00226575 0.025 13810.7
0.00352397 0.00237695 0.025 13986.9
0.00369283 0.00249085 0.025 14174.1
0.00386579 0.00260751 0.025 14372.6
0.00404294 0.00272699 0.025 14582.8
0.00422438 0.00284938 0.025 14805.1
0.00441022 0.00297474 0.025 15040.4
0.00460056 0.00310312 0.025 15289.5
0.00479552 0.00323462 0.025 15553.4
0.00499519 0.0033693 0.025 15832.3
0.00519968 0.00350723 0.025 16127.9
0.00540911 0.00364849 0.025 16441.2
0.00562361 0.00379318 0.025 16773.5
0.00584329 0.00394134 0.025 17126.2
0.00606826 0.00409309 0.025 17500.7
0.00629865 0.00424849 0.025 17898.5
0.0065346 0.00440764 0.025 18322
0.00677623 0.00457063 0.025 18772.8
0.00702368 0.00473753 0.025 19253.4
0.00727707 0.00490844 0.025 19765.8
0.00753655 0.00508347 0.025 20312.9
0.00780227 0.00526269 0.025 20897.3
0.00807436 0.00544622 0.025 21521.7
0.00835298 0.00563415 0.025 22190.3
0.00863826 0.00582659 0.025 22905.7
0.00893038 0.00602362 0.025 23673
0.00922949 0.00622537 0.025 24495.6
0.00953574 0.00643195 0.025 25379.9
0.00984929 0.00664345 0.025 26329.3
0.0101703 0.00686 0.025 27353.5
0.0104991 0.00708171 0.025 28456.5
0.0108356 0.00730871 0.025 29646.3
0.0111801 0.0075411 0.025 30934.9
0.0115329 0.00777902 0.025 32331.3
0.011894 0.00802259 0.025 33848
0.0122637 0.00827194 0.025 35499.2
0.0126421 0.00852719 0.025 37287.7
0.0130295 0.0087885 0.025 39242.2
0.013426 0.00905597 0.025 41375.5
0.013832 0.00932978 0.025 43698.8
0.0142475 0.00961003 0.025 46231.1
0.0146727 0.0098969 0.025 48991.4
0.0151081 0.0101905 0.025 52000.6
0.0155536 0.010491 0.025 55280.7
0.0160097 0.0107986 0.025 58863.4
0.0164764 0.0111134 0.025 62755.8
0.016954 0.0114356 0.025 67003.6
0.0174427 0.0117653 0.025 71621.1
0.0179429 0.0121026 0.025 76652.9
0.0184548 0.0124479 0.025 82129
0.0189786 0.0128013 0.025 88103.1
0.0195146 0.0131628 0.025 94668.8
0.020063 0.0135327 0.025 101871
0.0206242 0.0139112 0.025 109713
0.0211983 0.0142984 0.025 118196
0.0217857 0.0146947 0.025 127256
0.0223867 0.0151 0.025 136891
0.0230015 0.0155147 0.025 146973
0.0236304 0.0159389 0.025 157647
0.0242738 0.0163729 0.025 168825
0.0249318 0.0168167 0.025 180053
0.025605 0.0172708 0.025 190110
0.0262935 0.0177352 0.025 196165
0.0269977 0.0182102 0.025 198322
0.0277178 0.0186959 0.025 192299
0.0284544 0.0191927 0.025 185375
0.0292075 0.0197008 0.025 177082
0.0299777 0.0202203 0.025 168598
0.0307653 0.0207514 0.025 160567
0.0315704 0.0212945 0.025 153359
0.0323937 0.0218499 0.025 147020
0.0332354 0.0224176 0.025 141454
0.0340959 0.022998 0.025 136826
0.0349755 0.0235913 0.025 133139
0.0358747 0.0241978 0.025 130169
0.0367938 0.0248178 0.025 127516
0.0377331 0.0254513 0.025 125253
0.0386932 0.0260989 0.025 123798
0.0396743 0.0267606 0.025 123263
0.0406769 0.0274369 0.025 122956
0.0417013 0.0281279 0.025 122533
0.042748 0.0288339 0.025 121839
0.0438175 0.0295552 0.025 121264
0.04491 0.0302922 0.025 121281
0.0460262 0.031045 0.025 121678
0.0471662 0.031814 0.025 122151
0.0483306 0.0325995 0.025 122595
0.0495199 0.0334016 0.025 123095
0.0507344 0.0342208 0.025 123577
0.0519746 0.0350573 0.025 123909
0.0532409 0.0359114 0.025 124145
0.0545339 0.0367835 0.025 124100
0.0558538 0.0376739 0.025 123822
0.0572012 0.0385827 0.025 123553
0.0585766 0.0395104 0.025 123693
0.0599804 0.0404573 0.025 124166
0.061413 0.0414236 0.025 124978
0.0628748 0.0424096 0.025 125433
0.0643665 0.0434157 0.025 125579
0.0658883 0.0444422 0.025 125698
0.0674408 0.0454894 0.025 125726
0.0690245 0.0465576 0.025 126159
0.0706398 0.0476471 0.025 126716
0.0722871 0.0487582 0.025 126916
0.0739669 0.0498912 0.025 126969
0.0756797 0.0510466 0.025 126755
0.0774258 0.0522244 0.025 126546
0.0792059 0.053425 0.025 126380
0.0810203 0.0546489 0.025 126612
0.0828694 0.0558961 0.025 126866
0.0847537 0.0571671 0.025 127140
0.0866737 0.0584622 0.025 127354
0.0886298 0.0597816 0.025 127639
0.0906224 0.0611256 0.025 127867
0.0926518 0.0624944 0.025 128133
0.0947185 0.0638884 0.025 128206
0.096823 0.065308 0.025 127809
0.0989659 0.0667532 0.025 127155
0.101147 0.0682245 0.025 126288
0.103367 0.0697219 0.025 125629
0.105626 0.0712458 0.025 125609
0.107926 0.0727965 0.025 126045
0.110265 0.074374 0.025 126729
0.112644 0.0759789 0.025 127328
0.115063 0.0776111 0.025 127753
0.117524 0.0792709 0.025 127442
0.120026 0.0809585 0.025 126989
0.122569 0.0826741 0.025 126552
0.125155 0.0844179 0.025 126546
0.127782 0.0861901 0.025 127070
0.130451 0.0879908 0.025 127550
0.133163 0.08982 0.025 128005
0.135918 0.0916781 0.025 128109
0.138716 0.0935651 0.025 127791
0.141556 0.095481 0.025 127297
0.14444 0.097426 0.025 126831
0.147367 0.0994004 0.025 126183
0.150337 0.101404 0.025 126862
0.153351 0.103437 0.025 127052
0.156408 0.105498 0.025 126498
0.159508 0.107589 0.025 126921
0.162651 0.10971 0.025 126049
0.165838 0.111859 0.025 124291
0.169069 0.114039 0.025 124432
0.172343 0.116247 0.025 124148
0.175659 0.118483 0.025 124191
0.179018 0.120749 0.025 124251
0.182421 0.123045 0.025 123855
0.185866 0.125368 0.025 123395
0.189353 0.12772 0.025 122415
0.192882 0.1301 0.025 121263
0.196453 0.132509 0.025 120490
0.200065 0.134946 0.025 120020
0.203718 0.13741 0.025 120370
0.207412 0.139901 0.025 121300
0.211146 0.14242 0.025 121433
0.214919 0.144965 0.025 121555
0.218732 0.147537 0.025 122209
0.222583 0.150134 0.025 121942
0.226472 0.152757 0.025 122503
0.230399 0.155406 0.025 122006
0.234362 0.15808 0.025 121575
0.238362 0.160777 0.025 120603
0.242396 0.163498 0.025 120429
0.246466 0.166244 0.025 120061
0.250569 0.169012 0.025 120765
0.254706 0.171801 0.025 120523
0.258874 0.174613 0.025 120814
0.263074 0.177446 0.025 120731
0.267304 0.180299 0.025 121339
0.271564 0.183172 0.025 121548
0.275852 0.186064 0.025 121196
0.280168 0.188975 0.025 121369
0.28451 0.191904 0.025 120974
0.288876 0.19485 0.025 120427
0.293268 0.197812 0.025 120689
0.297683 0.20079 0.025 119813
0.302119 0.203782 0.025 119492
0.306577 0.206788 0.025 119684
0.311054 0.209808 0.025 119520
0.315549 0.212841 0.025 120156
0.320063 0.215885 0.025 119957
0.324591 0.218939 0.025 120719
0.329134 0.222003 0.025 121295
0.333691 0.225077 0.025 121156
0.33826 0.228159 0.025 121691
0.342839 0.231248 0.025 121557
0.347428 0.234343 0.025 122016
0.352025 0.237444 0.025 121093
0.356628 0.240548 0.025 121298
0.361237 0.243658 0.025 121350
0.36585 0.246769 0.025 120513
0.370465 0.249882 0.025 121511
0.375082 0.252996 0.025 120927
0.379698 0.25611 0.025 120730
0.384313 0.259223 0.025 121305
0.388926 0.262333 0.025 120763
0.393534 0.265442 0.025 121010
0.398136 0.268546 0.025 121097
0.40273 0.271645 0.025 120652
0.407317 0.274739 0.025 120633
0.411894 0.277826 0.025 120365
0.41646 0.280906 0.025 121308
0.421014 0.283977 0.025 120833
0.425554 0.28704 0.025 120717
0.430079 0.290092 0.025 121023
0.434588 0.293133 0.025 120910
0.439079 0.296162 0.025 121365
0.443551 0.299179 0.025 121070
0.448004 0.302183 0.025 120939
0.452437 0.305172 0.025 121033
0.456846 0.308146 0.025 121255
0.461232 0.311105 0.025 121240
0.465593 0.314047 0.025 121359
0.469929 0.316971 0.025 121135
0.474238 0.319878 0.025 121909
0.47852 0.322766 0.025 121554
0.482773 0.325635 0.025 121533
0.486996 0.328483 0.025 121180
0.491189 0.331311 0.025 120749
0.49535 0.334118 0.025 121511
