# Wall heat-flux
# Time        	patch         	min           	max           	integral      
13100         	base	-1.226977e+04	3.520522e+04	3.934699e+02
