# p  FACE_DATA 317
# x  y  z  p
-2.24217 0 0.27 23911.2
-2.12942 0 0.27 23881.5
-2.02231 0 0.27 23854.9
-1.92055 0 0.27 23844.7
-1.82389 0 0.27 23842
-1.73207 0 0.27 23837
-1.64485 0 0.27 23829.4
-1.562 0 0.27 23824.9
-1.48331 0 0.27 23824.6
-1.40856 0 0.27 23822.5
-1.33756 0 0.27 23814.5
-1.27013 0 0.27 23800.6
-1.20608 0 0.27 23782.2
-1.14539 0 0.27 23760.9
-1.08787 0 0.27 23741.4
-1.03323 0 0.27 23724.4
-0.981322 0 0.27 23709.4
-0.932014 0 0.27 23697.4
-0.885173 0 0.27 23688.2
-0.84068 0 0.27 23681.3
-0.798416 0 0.27 23676.6
-0.758473 0 0.27 23673.6
-0.720912 0 0.27 23671.9
-0.685558 0 0.27 23671.2
-0.652245 0 0.27 23671.1
-0.620811 0 0.27 23671.2
-0.591171 0 0.27 23671.1
-0.563165 0 0.27 23671.3
-0.536572 0 0.27 23672.2
-0.51125 0 0.27 23673.8
-0.487059 0 0.27 23676.1
-0.463863 0 0.27 23679.5
-0.441526 0 0.27 23684
-0.419915 0 0.27 23689.1
-0.398896 0 0.27 23694.7
-0.378338 0 0.27 23700.5
-0.358104 0 0.27 23706.3
-0.33806 0 0.27 23709.6
-0.318069 0 0.27 23737.6
-0.296809 0 0.27 23754.4
-0.275112 0 0.27 23737.6
-0.255001 0 0.27 23733.7
-0.23636 0 0.27 23760.6
-0.219081 0 0.27 23751.5
-0.203066 0 0.27 23730
-0.188221 0 0.27 23727.6
-0.174462 0 0.27 23725.2
-0.161708 0 0.27 23725.4
-0.149886 0 0.27 23726.2
-0.138929 0 0.27 23725.7
-0.128773 0 0.27 23726.1
-0.119359 0 0.27 23725.3
-0.110632 0 0.27 23725.4
-0.102544 0 0.27 23725.3
-0.0950472 0 0.27 23726
-0.0880983 0 0.27 23726
-0.0816572 0 0.27 23726
-0.0756869 0 0.27 23726.8
-0.070153 0 0.27 23724.6
-0.0650234 0 0.27 23752.3
-0.0602687 0 0.27 24987.9
-0.0558616 0 0.27 32236.9
-0.0517765 0 0.27 41315.4
-0.0479899 0 0.27 44964.2
-0.04448 0 0.27 47287.9
-0.0412265 0 0.27 48891.1
-0.0382106 0 0.27 49999.5
-0.0354151 0 0.27 50926.9
-0.0328237 0 0.27 51710.8
-0.0304215 0 0.27 52374.5
-0.0281948 0 0.27 52959.1
-0.0261306 0 0.27 53478.8
-0.0242171 0 0.27 53946.8
-0.0224431 0 0.27 54368.5
-0.0207985 0 0.27 54750.3
-0.0192738 0 0.27 55096.6
-0.0178602 0 0.27 55411.3
-0.0165496 0 0.27 55697.9
-0.0153345 0 0.27 55958.5
-0.0142077 0 0.27 56195.4
-0.0131629 0 0.27 56411.5
-0.0121939 0 0.27 56609.2
-0.0112952 0 0.27 56790.6
-0.0104616 0 0.27 56957.7
-0.0096884 0 0.27 57112.4
-0.00897103 0 0.27 57256.2
-0.00830536 0 0.27 57390.5
-0.00768758 0 0.27 57516.4
-0.0071141 0 0.27 57634.7
-0.00658165 0 0.27 57746
-0.00608714 0 0.27 57851.5
-0.00562772 0 0.27 57951.1
-0.00520074 0 0.27 58045.5
-0.00480375 0 0.27 58134.9
-0.00443446 0 0.27 58219.7
-0.00409073 0 0.27 58299.8
-0.00377059 0 0.27 58375.7
-0.00347218 0 0.27 58446.4
-0.00319379 0 0.27 58519.6
-0.00293381 0 0.27 58583
-0.00269075 0 0.27 58644.3
-0.00246319 0 0.27 58702.1
-0.00224984 0 0.27 58756.9
-0.00204945 0 0.27 58808.7
-0.00186089 0 0.27 58857.8
-0.00168306 0 0.27 58903.8
-0.00151492 0 0.27 58947.6
-0.00135552 0 0.27 58988.3
-0.00120394 0 0.27 59027.1
-0.00105929 0 0.27 59062.5
-0.000920752 0 0.27 59096.3
-0.000787523 0 0.27 59126.3
-0.000658834 0 0.27 59153.7
-0.000533942 0 0.27 59177.1
-0.000412129 0 0.27 59194
-0.000292693 0 0.27 59210
-0.000174943 0 0.27 59189.3
-5.82025e-05 0 0.27 59389.3
6.0278e-05 2.68374e-05 0.27 58670.1
0.000182584 8.12915e-05 0.27 58892.6
0.000308438 0.000137325 0.27 58850.4
0.000437939 0.000194983 0.27 58837
0.00057119 0.00025431 0.27 58824.6
0.000708293 0.000315353 0.27 58825.7
0.000849358 0.000378158 0.27 58836.4
0.000994492 0.000442776 0.27 58851.8
0.00114381 0.000509256 0.27 58874.5
0.00129743 0.000577649 0.27 58900.5
0.00145545 0.000648007 0.27 58931.8
0.00161801 0.000720386 0.27 58966.3
0.00178523 0.000794839 0.27 59005.2
0.00195724 0.000871423 0.27 59046.9
0.00213417 0.000950195 0.27 59092.5
0.00231614 0.00103122 0.27 59141
0.0025033 0.00111455 0.27 59193
0.00269579 0.00120024 0.27 59247.9
0.00289374 0.00128838 0.27 59306
0.00309731 0.00137901 0.27 59367.3
0.00330663 0.00147221 0.27 59432.2
0.00352187 0.00156804 0.27 59500.6
0.00374317 0.00166657 0.27 59571.2
0.0039707 0.00176788 0.27 59645
0.00420463 0.00187202 0.27 59722.2
0.00444512 0.0019791 0.27 59802.7
0.00469233 0.00208916 0.27 59886.6
0.00494645 0.0022023 0.27 59974
0.00520763 0.00231859 0.27 60064.9
0.00547608 0.00243811 0.27 60159.3
0.00575197 0.00256094 0.27 60257.4
0.00603549 0.00268717 0.27 60359.1
0.00632683 0.00281688 0.27 60464.6
0.00662618 0.00295016 0.27 60574
0.00693375 0.0030871 0.27 60687.4
0.00724974 0.0032278 0.27 60804.8
0.00757435 0.00337232 0.27 60926.5
0.0079078 0.00352077 0.27 61052.5
0.00825029 0.00367327 0.27 61182.9
0.00860204 0.00382988 0.27 61318
0.00896328 0.00399071 0.27 61457.7
0.00933422 0.00415586 0.27 61602.4
0.0097151 0.00432544 0.27 61752
0.0101061 0.00449954 0.27 61907
0.0105076 0.00467828 0.27 62067.6
0.0109197 0.00486175 0.27 62233.9
0.0113426 0.00505007 0.27 62406.2
0.0117768 0.00524333 0.27 62584.5
0.0122222 0.00544166 0.27 62769.4
0.0126792 0.00564515 0.27 62960.7
0.0131482 0.00585394 0.27 63159.2
0.0136292 0.00606812 0.27 63364.8
0.0141227 0.00628781 0.27 63578.1
0.0146288 0.00651313 0.27 63799.2
0.0151477 0.00674419 0.27 64028.1
0.0156799 0.00698113 0.27 64265.5
0.0162254 0.00722403 0.27 64511.4
0.0167847 0.00747303 0.27 64766.3
0.017358 0.00772826 0.27 65030.3
0.0179454 0.00798982 0.27 65303.7
0.0185474 0.00825783 0.27 65586.7
0.0191641 0.00853242 0.27 65879.6
0.0197959 0.00881371 0.27 66182.3
0.0204431 0.00910183 0.27 66495
0.0211057 0.00939688 0.27 66817.7
0.0217843 0.00969898 0.27 67150.6
0.0224789 0.0100083 0.27 67493.8
0.02319 0.0103248 0.27 67847.3
0.0239176 0.0106488 0.27 68211.6
0.0246623 0.0109804 0.27 68586.3
0.025424 0.0113195 0.27 68971.8
0.0262032 0.0116664 0.27 69368
0.0270001 0.0120212 0.27 69774.8
0.0278149 0.012384 0.27 70192.1
0.0286479 0.0127549 0.27 70620.1
0.0294992 0.0131339 0.27 71057.7
0.0303692 0.0135212 0.27 71505.5
0.0312581 0.013917 0.27 71962.9
0.0321659 0.0143213 0.27 72429.9
0.0330931 0.014734 0.27 72906.7
0.0340398 0.0151555 0.27 73393.2
0.0350062 0.0155858 0.27 73889.2
0.0359924 0.0160249 0.27 74394.8
0.0369987 0.0164729 0.27 74910.9
0.0380251 0.0169299 0.27 75435.6
0.0390719 0.0173959 0.27 75969.5
0.0401391 0.0178711 0.27 76511.8
0.041227 0.0183554 0.27 77060.7
0.0423356 0.018849 0.27 77617.5
0.043465 0.0193519 0.27 78181.6
0.0446154 0.0198641 0.27 78750
0.0457867 0.0203856 0.27 79323.1
0.046979 0.0209164 0.27 79898.5
0.0481924 0.0214567 0.27 80475.4
0.0494267 0.0220063 0.27 81051.8
0.0506823 0.0225652 0.27 81625.8
0.0519588 0.0231335 0.27 82195.5
0.0532563 0.0237113 0.27 82758.1
0.0545749 0.0242983 0.27 83312.7
0.0559142 0.0248946 0.27 83856.3
0.0572744 0.0255002 0.27 84388.3
0.0586552 0.0261149 0.27 84907
0.0600565 0.0267388 0.27 85413.4
0.0614781 0.0273718 0.27 85908.1
0.0629198 0.0280137 0.27 86391.5
0.0643815 0.0286645 0.27 86867.1
0.0658629 0.029324 0.27 87334.8
0.0673636 0.0299922 0.27 87798
0.0688836 0.030669 0.27 88257
0.0704223 0.0313541 0.27 88713.5
0.0719795 0.0320474 0.27 89170.2
0.0735549 0.0327488 0.27 89625.8
0.075148 0.0334581 0.27 90080.6
0.0767585 0.0341751 0.27 90534.4
0.0783859 0.0348996 0.27 90984.7
0.0800297 0.0356315 0.27 91432.4
0.0816895 0.0363706 0.27 91877.5
0.0833647 0.0371164 0.27 92311.9
0.085055 0.0378689 0.27 92736.5
0.0867595 0.0386278 0.27 93142.6
0.0884779 0.0393929 0.27 93526.9
0.0902095 0.0401639 0.27 93887.3
0.0919538 0.0409405 0.27 94221.5
0.09371 0.0417224 0.27 94528.3
0.0954776 0.0425094 0.27 94810
0.0972558 0.0433011 0.27 95070.7
0.0990439 0.0440972 0.27 95313.3
0.100841 0.0448975 0.27 95534.3
0.102647 0.0457015 0.27 95736.2
0.104461 0.046509 0.27 95940.3
0.106282 0.0473197 0.27 96130.3
0.108109 0.0481331 0.27 96332.5
0.109941 0.048949 0.27 96526.3
0.111779 0.0497671 0.27 96714.3
0.11362 0.0505868 0.27 96910.3
0.115464 0.051408 0.27 97141.9
0.117311 0.0522302 0.27 97363.9
0.11916 0.0530531 0.27 97582.6
0.121009 0.0538763 0.27 97854.4
0.122857 0.0546995 0.27 98112
0.124705 0.0555223 0.27 98359.4
0.126552 0.0563444 0.27 98613.4
0.128395 0.0571653 0.27 98864.8
0.130236 0.0579847 0.27 99107.7
0.132072 0.0588023 0.27 99339.3
0.133904 0.0596177 0.27 99556.4
0.13573 0.0604306 0.27 99741.2
0.137549 0.0612407 0.27 99884.1
0.139361 0.0620475 0.27 100006
0.141165 0.0628508 0.27 100079
0.14296 0.0636503 0.27 100188
0.144747 0.0644455 0.27 100272
0.146523 0.0652363 0.27 100324
0.148288 0.0660222 0.27 100364
0.150042 0.0668031 0.27 100382
0.151784 0.0675785 0.27 100429
0.153513 0.0683483 0.27 100428
0.155228 0.0691121 0.27 100432
0.15693 0.0698698 0.27 100469
0.158617 0.070621 0.27 100482
0.160289 0.0713654 0.27 100516
0.161946 0.072103 0.27 100539
0.163586 0.0728334 0.27 100564
0.165211 0.0735564 0.27 100616
0.166817 0.0742718 0.27 100671
0.168406 0.0749795 0.27 100752
0.169978 0.0756793 0.27 100848
0.171532 0.0763709 0.27 100937
0.173067 0.0770543 0.27 101041
0.174583 0.0777293 0.27 101140
0.17608 0.0783958 0.27 101280
0.177557 0.0790535 0.27 101444
0.179014 0.0797025 0.27 101528
0.180452 0.0803425 0.27 101633
0.18187 0.0809736 0.27 101790
0.183266 0.0815956 0.27 101955
0.184643 0.0822085 0.27 102153
0.185999 0.0828122 0.27 102326
0.187334 0.0834066 0.27 102491
0.188648 0.0839917 0.27 102691
0.189942 0.0845675 0.27 102871
0.191214 0.0851339 0.27 103111
0.192465 0.085691 0.27 103312
0.193695 0.0862387 0.27 103551
0.194904 0.086777 0.27 103808
0.196093 0.0873059 0.27 104063
0.197259 0.0878254 0.27 104311
0.198405 0.0883357 0.27 104569
0.19953 0.0888366 0.27 104854
0.200635 0.0893284 0.27 105165
0.201718 0.0898108 0.27 105439
0.202782 0.0902841 0.27 105700
0.203824 0.0907483 0.27 105960
0.204846 0.0912035 0.27 106173
0.205848 0.0916496 0.27 106397
0.206831 0.0920869 0.27 106631
0.207793 0.0925153 0.27 106831
0.208735 0.092935 0.27 107059
0.209658 0.093346 0.27 106944
