# wallHeatFlux  FACE_DATA 398
# x  y  z  wallHeatFlux
-0.7975 0 0.025 -653682
-0.79239 0 0.025 -120251
-0.787056 0 0.025 -70990.3
-0.781492 0 0.025 -63607.2
-0.775691 0 0.025 -65199.6
-0.769649 0 0.025 -66180.8
-0.763362 0 0.025 -66972.8
-0.756822 0 0.025 -67073.4
-0.750025 0 0.025 -66727.2
-0.742968 0 0.025 -66030.7
-0.735648 0 0.025 -65088.1
-0.72806 0 0.025 -64112.5
-0.720203 0 0.025 -63190.9
-0.712076 0 0.025 -62280.8
-0.703677 0 0.025 -61390.9
-0.695006 0 0.025 -60558.7
-0.686065 0 0.025 -59747.1
-0.676855 0 0.025 -59014.8
-0.667379 0 0.025 -58265.2
-0.65764 0 0.025 -57558
-0.647644 0 0.025 -56911.5
-0.637397 0 0.025 -56290.3
-0.626906 0 0.025 -55670
-0.616179 0 0.025 -55156.9
-0.605224 0 0.025 -54558.5
-0.594054 0 0.025 -54032.9
-0.582678 0 0.025 -53535.8
-0.57111 0 0.025 -53090.2
-0.559364 0 0.025 -52584.6
-0.547454 0 0.025 -52134.8
-0.535396 0 0.025 -51704.8
-0.523205 0 0.025 -51313.4
-0.510901 0 0.025 -50965.2
-0.4985 0 0.025 -50580.1
-0.486021 0 0.025 -50182.6
-0.473483 0 0.025 -49836.7
-0.460905 0 0.025 -49525.5
-0.448308 0 0.025 -49224.1
-0.435709 0 0.025 -48926.2
-0.42313 0 0.025 -48603.7
-0.41059 0 0.025 -48306.9
-0.39811 0 0.025 -48051.4
-0.385706 0 0.025 -47858.4
-0.373398 0 0.025 -47638.6
-0.361205 0 0.025 -47358.6
-0.349141 0 0.025 -47076.4
-0.337226 0 0.025 -46826.4
-0.325475 0 0.025 -46634.9
-0.313901 0 0.025 -46529.1
-0.30252 0 0.025 -46401
-0.291343 0 0.025 -46263.3
-0.280382 0 0.025 -46072
-0.269646 0 0.025 -45847.6
-0.259148 0 0.025 -45618.4
-0.248893 0 0.025 -45396.4
-0.23889 0 0.025 -45207.1
-0.229143 0 0.025 -45060.1
-0.219659 0 0.025 -44952.5
-0.210441 0 0.025 -44924.9
-0.201491 0 0.025 -44911.2
-0.192812 0 0.025 -44889.8
-0.184405 0 0.025 -44841
-0.176269 0 0.025 -44774.2
-0.168404 0 0.025 -44671.8
-0.160808 0 0.025 -44553.4
-0.15348 0 0.025 -44416.8
-0.146415 0 0.025 -44264.9
-0.13961 0 0.025 -44111.8
-0.133063 0 0.025 -43960.6
-0.126767 0 0.025 -43815.6
-0.120718 0 0.025 -43692.6
-0.11491 0 0.025 -43586.3
-0.109339 0 0.025 -43502.1
-0.103997 0 0.025 -43433.1
-0.0988805 0 0.025 -43384.3
-0.0939808 0 0.025 -43348.9
-0.0892928 0 0.025 -43320.2
-0.0848096 0 0.025 -43307.7
-0.0805248 0 0.025 -43301
-0.0764316 0 0.025 -43300
-0.0725237 0 0.025 -43315
-0.0687943 0 0.025 -43330.8
-0.065237 0 0.025 -43346
-0.0618454 0 0.025 -43362.3
-0.058613 0 0.025 -43372.4
-0.0555337 0 0.025 -43378.1
-0.0526013 0 0.025 -43377.9
-0.0498099 0 0.025 -43372.7
-0.0471536 0 0.025 -43362.1
-0.0446266 0 0.025 -43356.8
-0.0422235 0 0.025 -43346.3
-0.039939 0 0.025 -43330.4
-0.0377676 0 0.025 -43319.5
-0.0357044 0 0.025 -43309.6
-0.0337445 0 0.025 -43298.7
-0.0318832 0 0.025 -43250.6
-0.0301159 0 0.025 -41851.5
-0.0284383 0 0.025 -38082.3
-0.0268461 0 0.025 -45781.8
-0.0253353 0 0.025 -65554.8
-0.023902 0 0.025 -76810.4
-0.0225426 0 0.025 -82435.5
-0.0212532 0 0.025 -86632.8
-0.0200306 0 0.025 -90323.6
-0.0188715 0 0.025 -93244
-0.0177728 0 0.025 -95918.4
-0.0167313 0 0.025 -98518.6
-0.0157444 0 0.025 -100948
-0.0148092 0 0.025 -103371
-0.0139232 0 0.025 -105683
-0.0130838 0 0.025 -107768
-0.0122887 0 0.025 -109567
-0.0115356 0 0.025 -111066
-0.0108223 0 0.025 -112315
-0.0101469 0 0.025 -113350
-0.00950727 0 0.025 -114248
-0.00890168 0 0.025 -115077
-0.00832835 0 0.025 -115924
-0.00778557 0 0.025 -116859
-0.00727176 0 0.025 -117931
-0.0067854 0 0.025 -119167
-0.00632507 0 0.025 -120585
-0.00588937 0 0.025 -122183
-0.00547703 0 0.025 -123942
-0.0050868 0 0.025 -125858
-0.00471753 0 0.025 -127937
-0.0043681 0 0.025 -130201
-0.00403746 0 0.025 -132594
-0.00372461 0 0.025 -135129
-0.0034286 0 0.025 -137818
-0.00314855 0 0.025 -140708
-0.0028836 0 0.025 -143811
-0.00263294 0 0.025 -146973
-0.00239581 0 0.025 -150073
-0.0021715 0 0.025 -153363
-0.00195929 0 0.025 -156802
-0.00175856 0 0.025 -160352
-0.00156869 0 0.025 -164023
-0.00138908 0 0.025 -167830
-0.0012192 0 0.025 -171753
-0.00105853 0 0.025 -175737
-0.000906546 0 0.025 -179780
-0.000762803 0 0.025 -183722
-0.000626848 0 0.025 -187208
-0.000498265 0 0.025 -189404
-0.000376656 0 0.025 -188217
-0.000261642 0 0.025 -179754
-0.00015287 0 0.025 -156566
-5e-05 0 0.025 -101898
4.14519e-05 2.79596e-05 0.025 -71619.8
0.000125371 8.45641e-05 0.025 -84044.6
0.000211347 0.000142556 0.025 -98946.3
0.000299429 0.000201968 0.025 -110007
0.000389669 0.000262835 0.025 -119232
0.000482118 0.000325193 0.025 -128039
0.000576831 0.000389077 0.025 -136374
0.000673861 0.000454524 0.025 -143940
0.000773265 0.000521574 0.025 -150631
0.0008751 0.000590262 0.025 -156495
0.000979426 0.000660632 0.025 -161663
0.0010863 0.000732721 0.025 -166251
0.00119579 0.000806572 0.025 -170371
0.00130795 0.000882227 0.025 -174268
0.00142285 0.00095973 0.025 -177865
0.00154056 0.00103912 0.025 -181297
0.00166115 0.00112046 0.025 -184600
0.00178467 0.00120378 0.025 -187842
0.00191121 0.00128913 0.025 -191091
0.00204083 0.00137656 0.025 -194281
0.00217362 0.00146612 0.025 -197519
0.00230964 0.00155787 0.025 -200820
0.00244897 0.00165185 0.025 -204183
0.00259169 0.00174812 0.025 -207577
0.00273789 0.00184673 0.025 -211099
0.00288765 0.00194774 0.025 -214754
0.00304105 0.00205122 0.025 -218510
0.00319818 0.00215719 0.025 -222391
0.00335912 0.00226575 0.025 -226483
0.00352397 0.00237695 0.025 -230699
0.00369283 0.00249085 0.025 -235110
0.00386579 0.00260751 0.025 -239710
0.00404294 0.00272699 0.025 -244542
0.00422438 0.00284938 0.025 -249625
0.00441022 0.00297474 0.025 -254954
0.00460056 0.00310312 0.025 -260555
0.00479552 0.00323462 0.025 -266431
0.00499519 0.0033693 0.025 -272687
0.00519968 0.00350723 0.025 -279229
0.00540911 0.00364849 0.025 -286195
0.00562361 0.00379318 0.025 -293555
0.00584329 0.00394134 0.025 -301310
0.00606826 0.00409309 0.025 -309609
0.00629865 0.00424849 0.025 -318350
0.0065346 0.00440764 0.025 -327727
0.00677623 0.00457063 0.025 -337725
0.00702368 0.00473753 0.025 -348319
0.00727707 0.00490844 0.025 -359688
0.00753655 0.00508347 0.025 -371769
0.00780227 0.00526269 0.025 -384724
0.00807436 0.00544622 0.025 -398663
0.00835298 0.00563415 0.025 -413566
0.00863826 0.00582659 0.025 -429650
0.00893038 0.00602362 0.025 -446900
0.00922949 0.00622537 0.025 -465483
0.00953574 0.00643195 0.025 -485231
0.00984929 0.00664345 0.025 -507278
0.0101703 0.00686 0.025 -530471
0.0104991 0.00708171 0.025 -556919
0.0108356 0.00730871 0.025 -585674
0.0111801 0.0075411 0.025 -616935
0.0115329 0.00777902 0.025 -653087
0.011894 0.00802259 0.025 -693756
0.0122637 0.00827194 0.025 -735589
0.0126421 0.00852719 0.025 -783726
0.0130295 0.0087885 0.025 -829703
0.013426 0.00905597 0.025 -874758
0.013832 0.00932978 0.025 -918949
0.0142475 0.00961003 0.025 -961758
0.0146727 0.0098969 0.025 -1.00125e+06
0.0151081 0.0101905 0.025 -1.04455e+06
0.0155536 0.010491 0.025 -1.09188e+06
0.0160097 0.0107986 0.025 -1.1421e+06
0.0164764 0.0111134 0.025 -1.19734e+06
0.016954 0.0114356 0.025 -1.25914e+06
0.0174427 0.0117653 0.025 -1.32017e+06
0.0179429 0.0121026 0.025 -1.386e+06
0.0184548 0.0124479 0.025 -1.46325e+06
0.0189786 0.0128013 0.025 -1.51911e+06
0.0195146 0.0131628 0.025 -1.57776e+06
0.020063 0.0135327 0.025 -1.64551e+06
0.0206242 0.0139112 0.025 -1.68904e+06
0.0211983 0.0142984 0.025 -1.71946e+06
0.0217857 0.0146947 0.025 -1.7549e+06
0.0223867 0.0151 0.025 -1.78264e+06
0.0230015 0.0155147 0.025 -1.80313e+06
0.0236304 0.0159389 0.025 -1.82809e+06
0.0242738 0.0163729 0.025 -1.82367e+06
0.0249318 0.0168167 0.025 -1.83312e+06
0.025605 0.0172708 0.025 -1.83623e+06
0.0262935 0.0177352 0.025 -1.80409e+06
0.0269977 0.0182102 0.025 -1.76649e+06
0.0277178 0.0186959 0.025 -1.72638e+06
0.0284544 0.0191927 0.025 -1.71153e+06
0.0292075 0.0197008 0.025 -1.64285e+06
0.0299777 0.0202203 0.025 -1.5898e+06
0.0307653 0.0207514 0.025 -1.55283e+06
0.0315704 0.0212945 0.025 -1.51624e+06
0.0323937 0.0218499 0.025 -1.4845e+06
0.0332354 0.0224176 0.025 -1.45359e+06
0.0340959 0.022998 0.025 -1.42713e+06
0.0349755 0.0235913 0.025 -1.39511e+06
0.0358747 0.0241978 0.025 -1.39345e+06
0.0367938 0.0248178 0.025 -1.3657e+06
0.0377331 0.0254513 0.025 -1.34854e+06
0.0386932 0.0260989 0.025 -1.33561e+06
0.0396743 0.0267606 0.025 -1.32309e+06
0.0406769 0.0274369 0.025 -1.31512e+06
0.0417013 0.0281279 0.025 -1.30306e+06
0.042748 0.0288339 0.025 -1.30917e+06
0.0438175 0.0295552 0.025 -1.29908e+06
0.04491 0.0302922 0.025 -1.29014e+06
0.0460262 0.031045 0.025 -1.29427e+06
0.0471662 0.031814 0.025 -1.30328e+06
0.0483306 0.0325995 0.025 -1.28628e+06
0.0495199 0.0334016 0.025 -1.2827e+06
0.0507344 0.0342208 0.025 -1.28003e+06
0.0519746 0.0350573 0.025 -1.28249e+06
0.0532409 0.0359114 0.025 -1.2948e+06
0.0545339 0.0367835 0.025 -1.28206e+06
0.0558538 0.0376739 0.025 -1.27257e+06
0.0572012 0.0385827 0.025 -1.27627e+06
0.0585766 0.0395104 0.025 -1.28472e+06
0.0599804 0.0404573 0.025 -1.29979e+06
0.061413 0.0414236 0.025 -1.28493e+06
0.0628748 0.0424096 0.025 -1.30324e+06
0.0643665 0.0434157 0.025 -1.29691e+06
0.0658883 0.0444422 0.025 -1.27613e+06
0.0674408 0.0454894 0.025 -1.27452e+06
0.0690245 0.0465576 0.025 -1.27813e+06
0.0706398 0.0476471 0.025 -1.27007e+06
0.0722871 0.0487582 0.025 -1.25933e+06
0.0739669 0.0498912 0.025 -1.2515e+06
0.0756797 0.0510466 0.025 -1.26427e+06
0.0774258 0.0522244 0.025 -1.2826e+06
0.0792059 0.053425 0.025 -1.28073e+06
0.0810203 0.0546489 0.025 -1.30549e+06
0.0828694 0.0558961 0.025 -1.27289e+06
0.0847537 0.0571671 0.025 -1.31117e+06
0.0866737 0.0584622 0.025 -1.2687e+06
0.0886298 0.0597816 0.025 -1.26752e+06
0.0906224 0.0611256 0.025 -1.27765e+06
0.0926518 0.0624944 0.025 -1.24398e+06
0.0947185 0.0638884 0.025 -1.28389e+06
0.096823 0.065308 0.025 -1.24222e+06
0.0989659 0.0667532 0.025 -1.32342e+06
0.101147 0.0682245 0.025 -1.65279e+06
0.103367 0.0697219 0.025 -1.55858e+06
0.105626 0.0712458 0.025 -1.1812e+06
0.107926 0.0727965 0.025 -1.17698e+06
0.110265 0.074374 0.025 -1.21441e+06
0.112644 0.0759789 0.025 -1.78708e+06
0.115063 0.0776111 0.025 -1.21748e+06
0.117524 0.0792709 0.025 -1.66238e+06
0.120026 0.0809585 0.025 -1.81801e+06
0.122569 0.0826741 0.025 -1.62003e+06
0.125155 0.0844179 0.025 -1.451e+06
0.127782 0.0861901 0.025 -1.26199e+06
0.130451 0.0879908 0.025 -1.21947e+06
0.133163 0.08982 0.025 -1.19598e+06
0.135918 0.0916781 0.025 -1.16799e+06
0.138716 0.0935651 0.025 -1.1671e+06
0.141556 0.095481 0.025 -1.1756e+06
0.14444 0.097426 0.025 -1.5353e+06
0.147367 0.0994004 0.025 -2.22988e+06
0.150337 0.101404 0.025 -1.61795e+06
0.153351 0.103437 0.025 -1.56482e+06
0.156408 0.105498 0.025 -2.12416e+06
0.159508 0.107589 0.025 -998956
0.162651 0.10971 0.025 -1.46172e+06
0.165838 0.111859 0.025 -3.28337e+06
0.169069 0.114039 0.025 -1.60156e+06
0.172343 0.116247 0.025 -1.90887e+06
0.175659 0.118483 0.025 -1.81448e+06
0.179018 0.120749 0.025 -1.80555e+06
0.182421 0.123045 0.025 -1.8667e+06
0.185866 0.125368 0.025 -1.64089e+06
0.189353 0.12772 0.025 -1.67156e+06
0.192882 0.1301 0.025 -1.76178e+06
0.196453 0.132509 0.025 -1.66927e+06
0.200065 0.134946 0.025 -2.02682e+06
0.203718 0.13741 0.025 -1.85066e+06
0.207412 0.139901 0.025 -892919
0.211146 0.14242 0.025 -948482
0.214919 0.144965 0.025 -1.5378e+06
0.218732 0.147537 0.025 -952300
0.222583 0.150134 0.025 -1.83658e+06
0.226472 0.152757 0.025 -948415
0.230399 0.155406 0.025 -1.75014e+06
0.234362 0.15808 0.025 -1.64734e+06
0.238362 0.160777 0.025 -2.17442e+06
0.242396 0.163498 0.025 -1.88601e+06
0.246466 0.166244 0.025 -2.01771e+06
0.250569 0.169012 0.025 -899690
0.254706 0.171801 0.025 -1.46188e+06
0.258874 0.174613 0.025 -1.46473e+06
0.263074 0.177446 0.025 -1.84616e+06
0.267304 0.180299 0.025 -1.51105e+06
0.271564 0.183172 0.025 -914823
0.275852 0.186064 0.025 -1.54699e+06
0.280168 0.188975 0.025 -890545
0.28451 0.191904 0.025 -1.57025e+06
0.288876 0.19485 0.025 -2.12701e+06
0.293268 0.197812 0.025 -1.54309e+06
0.297683 0.20079 0.025 -1.81194e+06
0.302119 0.203782 0.025 -2.07036e+06
0.306577 0.206788 0.025 -1.47252e+06
0.311054 0.209808 0.025 -1.5187e+06
0.315549 0.212841 0.025 -1.11745e+06
0.320063 0.215885 0.025 -1.8621e+06
0.324591 0.218939 0.025 -1.34863e+06
0.329134 0.222003 0.025 -1.33249e+06
0.333691 0.225077 0.025 -2.0006e+06
0.33826 0.228159 0.025 -1.69732e+06
0.342839 0.231248 0.025 -1.73696e+06
0.347428 0.234343 0.025 -845402
0.352025 0.237444 0.025 -1.81264e+06
0.356628 0.240548 0.025 -1.35145e+06
0.361237 0.243658 0.025 -1.11238e+06
0.36585 0.246769 0.025 -2.31162e+06
0.370465 0.249882 0.025 -1.06948e+06
0.375082 0.252996 0.025 -1.43652e+06
0.379698 0.25611 0.025 -2.25076e+06
0.384313 0.259223 0.025 -1.34065e+06
0.388926 0.262333 0.025 -1.61271e+06
0.393534 0.265442 0.025 -1.34373e+06
0.398136 0.268546 0.025 -848903
0.40273 0.271645 0.025 -1.53922e+06
0.407317 0.274739 0.025 -1.59754e+06
0.411894 0.277826 0.025 -1.96515e+06
0.41646 0.280906 0.025 -813955
0.421014 0.283977 0.025 -1.51623e+06
0.425554 0.28704 0.025 -1.74745e+06
0.430079 0.290092 0.025 -1.41798e+06
0.434588 0.293133 0.025 -1.71402e+06
0.439079 0.296162 0.025 -1.22633e+06
0.443551 0.299179 0.025 -1.57764e+06
0.448004 0.302183 0.025 -1.60383e+06
0.452437 0.305172 0.025 -1.56918e+06
0.456846 0.308146 0.025 -1.4625e+06
0.461232 0.311105 0.025 -1.48557e+06
0.465593 0.314047 0.025 -1.38049e+06
0.469929 0.316971 0.025 -1.82257e+06
0.474238 0.319878 0.025 -959350
0.47852 0.322766 0.025 -1.06794e+06
0.482773 0.325635 0.025 -849415
0.486996 0.328483 0.025 -1.26118e+06
0.491189 0.331311 0.025 -1.87311e+06
0.49535 0.334118 0.025 -1.22544e+06
