# wallHeatFlux  FACE_DATA 398
# x  y  z  wallHeatFlux
-0.7975 0 0.025 -653671
-0.79239 0 0.025 -120055
-0.787056 0 0.025 -71292.1
-0.781492 0 0.025 -64434.2
-0.775691 0 0.025 -65894.6
-0.769649 0 0.025 -66711.5
-0.763362 0 0.025 -67302
-0.756822 0 0.025 -67206.2
-0.750025 0 0.025 -66695.3
-0.742968 0 0.025 -65961.6
-0.735648 0 0.025 -65072.1
-0.72806 0 0.025 -64085.9
-0.720203 0 0.025 -63105.7
-0.712076 0 0.025 -62232.9
-0.703677 0 0.025 -61460.3
-0.695006 0 0.025 -60660.1
-0.686065 0 0.025 -59918
-0.676855 0 0.025 -59255.3
-0.667379 0 0.025 -58575.3
-0.65764 0 0.025 -57884.3
-0.647644 0 0.025 -57280.8
-0.637397 0 0.025 -56750.9
-0.626906 0 0.025 -56146.9
-0.616179 0 0.025 -55639.4
-0.605224 0 0.025 -55121.7
-0.594054 0 0.025 -54617.9
-0.582678 0 0.025 -54110.3
-0.57111 0 0.025 -53659.6
-0.559364 0 0.025 -53234.8
-0.547454 0 0.025 -52844.3
-0.535396 0 0.025 -52398.5
-0.523205 0 0.025 -51991.1
-0.510901 0 0.025 -51621.5
-0.4985 0 0.025 -51274.1
-0.486021 0 0.025 -50968.2
-0.473483 0 0.025 -50638.5
-0.460905 0 0.025 -50305.8
-0.448308 0 0.025 -49982.9
-0.435709 0 0.025 -49674.2
-0.42313 0 0.025 -49389.2
-0.41059 0 0.025 -49156.9
-0.39811 0 0.025 -48949.7
-0.385706 0 0.025 -48713.5
-0.373398 0 0.025 -48461.3
-0.361205 0 0.025 -48224.1
-0.349141 0 0.025 -47990
-0.337226 0 0.025 -47766.6
-0.325475 0 0.025 -47558.7
-0.313901 0 0.025 -47382.8
-0.30252 0 0.025 -47233
-0.291343 0 0.025 -47089.7
-0.280382 0 0.025 -46935.6
-0.269646 0 0.025 -46786
-0.259148 0 0.025 -46647.6
-0.248893 0 0.025 -46511.1
-0.23889 0 0.025 -46369.7
-0.229143 0 0.025 -46233.1
-0.219659 0 0.025 -46087.7
-0.210441 0 0.025 -45931.3
-0.201491 0 0.025 -45767.6
-0.192812 0 0.025 -45612.2
-0.184405 0 0.025 -45472.3
-0.176269 0 0.025 -45362.6
-0.168404 0 0.025 -45281.5
-0.160808 0 0.025 -45227.3
-0.15348 0 0.025 -45192.2
-0.146415 0 0.025 -45179.3
-0.13961 0 0.025 -45159.7
-0.133063 0 0.025 -45142.2
-0.126767 0 0.025 -45114.8
-0.120718 0 0.025 -45077.4
-0.11491 0 0.025 -45024.6
-0.109339 0 0.025 -44956.4
-0.103997 0 0.025 -44882.1
-0.0988805 0 0.025 -44801.4
-0.0939808 0 0.025 -44712.6
-0.0892928 0 0.025 -44630.5
-0.0848096 0 0.025 -44548.6
-0.0805248 0 0.025 -44472.5
-0.0764316 0 0.025 -44402
-0.0725237 0 0.025 -44336.9
-0.0687943 0 0.025 -44283.2
-0.065237 0 0.025 -44229
-0.0618454 0 0.025 -44186.5
-0.058613 0 0.025 -44143.1
-0.0555337 0 0.025 -44106.2
-0.0526013 0 0.025 -44073.9
-0.0498099 0 0.025 -44042
-0.0471536 0 0.025 -44015.4
-0.0446266 0 0.025 -43994.2
-0.0422235 0 0.025 -43978.4
-0.039939 0 0.025 -43962.5
-0.0377676 0 0.025 -43951.7
-0.0357044 0 0.025 -43947.3
-0.0337445 0 0.025 -43888.2
-0.0318832 0 0.025 -42114.2
-0.0301159 0 0.025 -33536.9
-0.0284383 0 0.025 -31600.3
-0.0268461 0 0.025 -49830.2
-0.0253353 0 0.025 -62133.4
-0.023902 0 0.025 -69955.9
-0.0225426 0 0.025 -75896.6
-0.0212532 0 0.025 -81241.1
-0.0200306 0 0.025 -85918.5
-0.0188715 0 0.025 -90040.3
-0.0177728 0 0.025 -93696.5
-0.0167313 0 0.025 -97015.6
-0.0157444 0 0.025 -100041
-0.0148092 0 0.025 -102818
-0.0139232 0 0.025 -105372
-0.0130838 0 0.025 -107677
-0.0122887 0 0.025 -109728
-0.0115356 0 0.025 -111533
-0.0108223 0 0.025 -113115
-0.0101469 0 0.025 -114506
-0.00950727 0 0.025 -115742
-0.00890168 0 0.025 -116862
-0.00832835 0 0.025 -117935
-0.00778557 0 0.025 -119000
-0.00727176 0 0.025 -120094
-0.0067854 0 0.025 -121249
-0.00632507 0 0.025 -122485
-0.00588937 0 0.025 -123820
-0.00547703 0 0.025 -125267
-0.0050868 0 0.025 -126833
-0.00471753 0 0.025 -128520
-0.0043681 0 0.025 -130336
-0.00403746 0 0.025 -132308
-0.00372461 0 0.025 -134406
-0.0034286 0 0.025 -136657
-0.00314855 0 0.025 -139086
-0.0028836 0 0.025 -141701
-0.00263294 0 0.025 -144356
-0.00239581 0 0.025 -146976
-0.0021715 0 0.025 -149734
-0.00195929 0 0.025 -152590
-0.00175856 0 0.025 -155531
-0.00156869 0 0.025 -158545
-0.00138908 0 0.025 -161664
-0.0012192 0 0.025 -164813
-0.00105853 0 0.025 -168026
-0.000906546 0 0.025 -171255
-0.000762803 0 0.025 -174398
-0.000626848 0 0.025 -177142
-0.000498265 0 0.025 -178618
-0.000376656 0 0.025 -177019
-0.000261642 0 0.025 -168664
-0.00015287 0 0.025 -146501
-5e-05 0 0.025 -95016.8
4.14519e-05 2.79596e-05 0.025 -67791.1
0.000125371 8.45641e-05 0.025 -81385.1
0.000211347 0.000142556 0.025 -96459
0.000299429 0.000201968 0.025 -107531
0.000389669 0.000262835 0.025 -116942
0.000482118 0.000325193 0.025 -125856
0.000576831 0.000389077 0.025 -134233
0.000673861 0.000454524 0.025 -141851
0.000773265 0.000521574 0.025 -148617
0.0008751 0.000590262 0.025 -154599
0.000979426 0.000660632 0.025 -159909
0.0010863 0.000732721 0.025 -164661
0.00119579 0.000806572 0.025 -169029
0.00130795 0.000882227 0.025 -173082
0.00142285 0.00095973 0.025 -176840
0.00154056 0.00103912 0.025 -180470
0.00166115 0.00112046 0.025 -183960
0.00178467 0.00120378 0.025 -187400
0.00191121 0.00128913 0.025 -190830
0.00204083 0.00137656 0.025 -194206
0.00217362 0.00146612 0.025 -197615
0.00230964 0.00155787 0.025 -201076
0.00244897 0.00165185 0.025 -204566
0.00259169 0.00174812 0.025 -208094
0.00273789 0.00184673 0.025 -211732
0.00288765 0.00194774 0.025 -215499
0.00304105 0.00205122 0.025 -219350
0.00319818 0.00215719 0.025 -223332
0.00335912 0.00226575 0.025 -227483
0.00352397 0.00237695 0.025 -231742
0.00369283 0.00249085 0.025 -236200
0.00386579 0.00260751 0.025 -240842
0.00404294 0.00272699 0.025 -245705
0.00422438 0.00284938 0.025 -250804
0.00441022 0.00297474 0.025 -256161
0.00460056 0.00310312 0.025 -261782
0.00479552 0.00323462 0.025 -267653
0.00499519 0.0033693 0.025 -273904
0.00519968 0.00350723 0.025 -280430
0.00540911 0.00364849 0.025 -287375
0.00562361 0.00379318 0.025 -294730
0.00584329 0.00394134 0.025 -302505
0.00606826 0.00409309 0.025 -310825
0.00629865 0.00424849 0.025 -319556
0.0065346 0.00440764 0.025 -328859
0.00677623 0.00457063 0.025 -338735
0.00702368 0.00473753 0.025 -349232
0.00727707 0.00490844 0.025 -360501
0.00753655 0.00508347 0.025 -372581
0.00780227 0.00526269 0.025 -385562
0.00807436 0.00544622 0.025 -399401
0.00835298 0.00563415 0.025 -414309
0.00863826 0.00582659 0.025 -430505
0.00893038 0.00602362 0.025 -447797
0.00922949 0.00622537 0.025 -466455
0.00953574 0.00643195 0.025 -486841
0.00984929 0.00664345 0.025 -509772
0.0101703 0.00686 0.025 -533881
0.0104991 0.00708171 0.025 -560201
0.0108356 0.00730871 0.025 -591247
0.0111801 0.0075411 0.025 -625661
0.0115329 0.00777902 0.025 -663946
0.011894 0.00802259 0.025 -706040
0.0122637 0.00827194 0.025 -752133
0.0126421 0.00852719 0.025 -797975
0.0130295 0.0087885 0.025 -843865
0.013426 0.00905597 0.025 -894215
0.013832 0.00932978 0.025 -938369
0.0142475 0.00961003 0.025 -980769
0.0146727 0.0098969 0.025 -1.0259e+06
0.0151081 0.0101905 0.025 -1.06993e+06
0.0155536 0.010491 0.025 -1.11685e+06
0.0160097 0.0107986 0.025 -1.16499e+06
0.0164764 0.0111134 0.025 -1.21759e+06
0.016954 0.0114356 0.025 -1.2732e+06
0.0174427 0.0117653 0.025 -1.32636e+06
0.0179429 0.0121026 0.025 -1.38483e+06
0.0184548 0.0124479 0.025 -1.45348e+06
0.0189786 0.0128013 0.025 -1.50223e+06
0.0195146 0.0131628 0.025 -1.55347e+06
0.020063 0.0135327 0.025 -1.61296e+06
0.0206242 0.0139112 0.025 -1.65208e+06
0.0211983 0.0142984 0.025 -1.68145e+06
0.0217857 0.0146947 0.025 -1.71738e+06
0.0223867 0.0151 0.025 -1.7482e+06
0.0230015 0.0155147 0.025 -1.77526e+06
0.0236304 0.0159389 0.025 -1.80926e+06
0.0242738 0.0163729 0.025 -1.81686e+06
0.0249318 0.0168167 0.025 -1.83947e+06
0.025605 0.0172708 0.025 -1.85835e+06
0.0262935 0.0177352 0.025 -1.84511e+06
0.0269977 0.0182102 0.025 -1.8296e+06
0.0277178 0.0186959 0.025 -1.80153e+06
0.0284544 0.0191927 0.025 -1.81908e+06
0.0292075 0.0197008 0.025 -1.75061e+06
0.0299777 0.0202203 0.025 -1.70482e+06
0.0307653 0.0207514 0.025 -1.65696e+06
0.0315704 0.0212945 0.025 -1.62065e+06
0.0323937 0.0218499 0.025 -1.59099e+06
0.0332354 0.0224176 0.025 -1.56182e+06
0.0340959 0.022998 0.025 -1.53652e+06
0.0349755 0.0235913 0.025 -1.50182e+06
0.0358747 0.0241978 0.025 -1.49776e+06
0.0367938 0.0248178 0.025 -1.45813e+06
0.0377331 0.0254513 0.025 -1.42923e+06
0.0386932 0.0260989 0.025 -1.40588e+06
0.0396743 0.0267606 0.025 -1.38168e+06
0.0406769 0.0274369 0.025 -1.36788e+06
0.0417013 0.0281279 0.025 -1.34864e+06
0.042748 0.0288339 0.025 -1.34851e+06
0.0438175 0.0295552 0.025 -1.33293e+06
0.04491 0.0302922 0.025 -1.31677e+06
0.0460262 0.031045 0.025 -1.31852e+06
0.0471662 0.031814 0.025 -1.32488e+06
0.0483306 0.0325995 0.025 -1.31091e+06
0.0495199 0.0334016 0.025 -1.30712e+06
0.0507344 0.0342208 0.025 -1.29843e+06
0.0519746 0.0350573 0.025 -1.29987e+06
0.0532409 0.0359114 0.025 -1.30907e+06
0.0545339 0.0367835 0.025 -1.29733e+06
0.0558538 0.0376739 0.025 -1.29374e+06
0.0572012 0.0385827 0.025 -1.29096e+06
0.0585766 0.0395104 0.025 -1.29015e+06
0.0599804 0.0404573 0.025 -1.30217e+06
0.061413 0.0414236 0.025 -1.28661e+06
0.0628748 0.0424096 0.025 -1.30892e+06
0.0643665 0.0434157 0.025 -1.30861e+06
0.0658883 0.0444422 0.025 -1.28472e+06
0.0674408 0.0454894 0.025 -1.27714e+06
0.0690245 0.0465576 0.025 -1.27935e+06
0.0706398 0.0476471 0.025 -1.27208e+06
0.0722871 0.0487582 0.025 -1.26316e+06
0.0739669 0.0498912 0.025 -1.25543e+06
0.0756797 0.0510466 0.025 -1.26487e+06
0.0774258 0.0522244 0.025 -1.27934e+06
0.0792059 0.053425 0.025 -1.27996e+06
0.0810203 0.0546489 0.025 -1.30504e+06
0.0828694 0.0558961 0.025 -1.27437e+06
0.0847537 0.0571671 0.025 -1.31527e+06
0.0866737 0.0584622 0.025 -1.27352e+06
0.0886298 0.0597816 0.025 -1.2733e+06
0.0906224 0.0611256 0.025 -1.28362e+06
0.0926518 0.0624944 0.025 -1.25098e+06
0.0947185 0.0638884 0.025 -1.29438e+06
0.096823 0.065308 0.025 -1.25022e+06
0.0989659 0.0667532 0.025 -1.33534e+06
0.101147 0.0682245 0.025 -1.68048e+06
0.103367 0.0697219 0.025 -1.5842e+06
0.105626 0.0712458 0.025 -1.19527e+06
0.107926 0.0727965 0.025 -1.19473e+06
0.110265 0.074374 0.025 -1.23829e+06
0.112644 0.0759789 0.025 -1.86593e+06
0.115063 0.0776111 0.025 -1.25749e+06
0.117524 0.0792709 0.025 -1.74737e+06
0.120026 0.0809585 0.025 -1.91438e+06
0.122569 0.0826741 0.025 -1.68569e+06
0.125155 0.0844179 0.025 -1.49601e+06
0.127782 0.0861901 0.025 -1.29149e+06
0.130451 0.0879908 0.025 -1.24566e+06
0.133163 0.08982 0.025 -1.22075e+06
0.135918 0.0916781 0.025 -1.19116e+06
0.138716 0.0935651 0.025 -1.19472e+06
0.141556 0.095481 0.025 -1.20604e+06
0.14444 0.097426 0.025 -1.59245e+06
0.147367 0.0994004 0.025 -2.34704e+06
0.150337 0.101404 0.025 -1.67383e+06
0.153351 0.103437 0.025 -1.6188e+06
0.156408 0.105498 0.025 -2.25006e+06
0.159508 0.107589 0.025 -1.03034e+06
0.162651 0.10971 0.025 -1.5268e+06
0.165838 0.111859 0.025 -3.60281e+06
0.169069 0.114039 0.025 -1.65082e+06
0.172343 0.116247 0.025 -1.99709e+06
0.175659 0.118483 0.025 -1.88115e+06
0.179018 0.120749 0.025 -1.87808e+06
0.182421 0.123045 0.025 -1.94697e+06
0.185866 0.125368 0.025 -1.71494e+06
0.189353 0.12772 0.025 -1.75586e+06
0.192882 0.1301 0.025 -1.86486e+06
0.196453 0.132509 0.025 -1.76074e+06
0.200065 0.134946 0.025 -2.12954e+06
0.203718 0.13741 0.025 -1.94569e+06
0.207412 0.139901 0.025 -921474
0.211146 0.14242 0.025 -982012
0.214919 0.144965 0.025 -1.60445e+06
0.218732 0.147537 0.025 -984469
0.222583 0.150134 0.025 -1.92448e+06
0.226472 0.152757 0.025 -977688
0.230399 0.155406 0.025 -1.83132e+06
0.234362 0.15808 0.025 -1.7232e+06
0.238362 0.160777 0.025 -2.33672e+06
0.242396 0.163498 0.025 -1.9735e+06
0.246466 0.166244 0.025 -2.11979e+06
0.250569 0.169012 0.025 -929421
0.254706 0.171801 0.025 -1.52257e+06
0.258874 0.174613 0.025 -1.51954e+06
0.263074 0.177446 0.025 -1.92579e+06
0.267304 0.180299 0.025 -1.5663e+06
0.271564 0.183172 0.025 -942034
0.275852 0.186064 0.025 -1.61327e+06
0.280168 0.188975 0.025 -918257
0.28451 0.191904 0.025 -1.63857e+06
0.288876 0.19485 0.025 -2.22991e+06
0.293268 0.197812 0.025 -1.60336e+06
0.297683 0.20079 0.025 -1.89757e+06
0.302119 0.203782 0.025 -1.90759e+06
0.306577 0.206788 0.025 -1.50528e+06
0.311054 0.209808 0.025 -1.575e+06
0.315549 0.212841 0.025 -1.15493e+06
0.320063 0.215885 0.025 -1.96859e+06
0.324591 0.218939 0.025 -1.42163e+06
0.329134 0.222003 0.025 -1.39813e+06
0.333691 0.225077 0.025 -2.16279e+06
0.33826 0.228159 0.025 -1.78303e+06
0.342839 0.231248 0.025 -1.81764e+06
0.347428 0.234343 0.025 -867516
0.352025 0.237444 0.025 -1.89851e+06
0.356628 0.240548 0.025 -1.39792e+06
0.361237 0.243658 0.025 -1.14212e+06
0.36585 0.246769 0.025 -2.45618e+06
0.370465 0.249882 0.025 -1.04662e+06
0.375082 0.252996 0.025 -1.45423e+06
0.379698 0.25611 0.025 -2.51808e+06
0.384313 0.259223 0.025 -1.38921e+06
0.388926 0.262333 0.025 -1.68693e+06
0.393534 0.265442 0.025 -1.39276e+06
0.398136 0.268546 0.025 -870432
0.40273 0.271645 0.025 -1.59561e+06
0.407317 0.274739 0.025 -1.65729e+06
0.411894 0.277826 0.025 -2.05293e+06
0.41646 0.280906 0.025 -831329
0.421014 0.283977 0.025 -1.56959e+06
0.425554 0.28704 0.025 -1.82009e+06
0.430079 0.290092 0.025 -1.46346e+06
0.434588 0.293133 0.025 -1.78431e+06
0.439079 0.296162 0.025 -1.26168e+06
0.443551 0.299179 0.025 -1.63407e+06
0.448004 0.302183 0.025 -1.66133e+06
0.452437 0.305172 0.025 -1.62369e+06
0.456846 0.308146 0.025 -1.51027e+06
0.461232 0.311105 0.025 -1.53436e+06
0.465593 0.314047 0.025 -1.4218e+06
0.469929 0.316971 0.025 -1.89608e+06
0.474238 0.319878 0.025 -978000
0.47852 0.322766 0.025 -1.09327e+06
0.482773 0.325635 0.025 -868000
0.486996 0.328483 0.025 -1.30044e+06
0.491189 0.331311 0.025 -1.95022e+06
0.49535 0.334118 0.025 -1.26765e+06
