# p  FACE_DATA 80
# x  y  z  p
-0.275972 0 0.05 671.719
-0.22368 0 0.05 671.719
-0.181118 0 0.05 671.719
-0.146477 0 0.05 671.719
-0.118282 0 0.05 671.719
-0.095333 0 0.05 671.719
-0.0766546 0 0.05 671.719
-0.061452 0 0.05 671.719
-0.0490783 0 0.05 671.719
-0.0390072 0 0.05 671.719
-0.0308101 0 0.05 671.719
-0.0241383 0 0.05 671.719
-0.0187081 0 0.05 671.719
-0.0142883 0 0.05 671.719
-0.0106909 0 0.05 671.719
-0.00776298 0 0.05 671.719
-0.00537988 0 0.05 671.719
-0.00344023 0 0.05 671.719
-0.00186151 0 0.05 671.72
-0.000576564 0 0.05 669.994
0.000597823 0 0.05 1192.18
0.00183445 0 0.05 1019.88
0.00315586 0 0.05 889.297
0.00456785 0 0.05 847.484
0.00607663 0 0.05 808.335
0.00768885 0 0.05 785.817
0.00941159 0 0.05 771.032
0.0112524 0 0.05 759.708
0.0132195 0 0.05 750.35
0.0153213 0 0.05 740.674
0.0175673 0 0.05 728.589
0.0199673 0 0.05 712.457
0.0225317 0 0.05 706.663
0.025272 0 0.05 701.005
0.0282001 0 0.05 700.544
0.031329 0 0.05 705.628
0.0346723 0 0.05 711.98
0.0382448 0 0.05 716.392
0.0420623 0 0.05 719.309
0.0461414 0 0.05 721.296
0.0505002 0 0.05 722.176
0.0551578 0 0.05 722.225
0.0601347 0 0.05 721.495
0.0654528 0 0.05 720.645
0.0711354 0 0.05 719.672
0.0772076 0 0.05 718.838
0.0836961 0 0.05 717.971
0.0906293 0 0.05 716.921
0.0980379 0 0.05 715.916
0.105954 0 0.05 715.071
0.114413 0 0.05 714.292
0.123453 0 0.05 713.585
0.133111 0 0.05 712.97
0.143432 0 0.05 712.359
0.15446 0 0.05 711.701
0.166245 0 0.05 711.037
0.178837 0 0.05 710.385
0.192293 0 0.05 709.77
0.20667 0 0.05 709.185
0.222034 0 0.05 708.605
0.238451 0 0.05 708.043
0.255993 0 0.05 707.523
0.274738 0 0.05 707.028
0.294767 0 0.05 706.531
0.31617 0 0.05 706.038
0.33904 0 0.05 705.556
0.363478 0 0.05 705.058
0.389591 0 0.05 704.555
0.417495 0 0.05 704.078
0.447311 0 0.05 703.629
0.479171 0 0.05 703.193
0.513216 0 0.05 702.764
0.549594 0 0.05 702.337
0.588466 0 0.05 701.909
0.630002 0 0.05 701.491
0.674387 0 0.05 701.086
0.721814 0 0.05 700.708
0.772492 0 0.05 700.276
0.826644 0 0.05 700.087
0.884509 0 0.05 699.317
