# wallShearStress  FACE_DATA 80
# x  y  z  wallShearStress_x  wallShearStress_y  wallShearStress_z
-0.275972 0 0.05 -1.76936e-12 -1.17285e-09 0
-0.22368 0 0.05 -7.32911e-12 -1.28746e-08 0
-0.181118 0 0.05 -2.0765e-11 -4.99747e-08 0
-0.146477 0 0.05 -4.74098e-11 -1.27294e-07 0
-0.118282 0 0.05 -9.15581e-11 -2.6416e-07 0
-0.095333 0 0.05 -1.37881e-10 -4.66813e-07 0
-0.0766546 0 0.05 -1.77809e-10 -6.86805e-07 0
-0.061452 0 0.05 -2.08489e-10 -9.11783e-07 0
-0.0490783 0 0.05 -1.73015e-10 -1.11426e-06 0
-0.0390072 0 0.05 3.39608e-11 -1.2099e-06 0
-0.0308101 0 0.05 7.83657e-10 -1.09045e-06 0
-0.0241383 0 0.05 1.39902e-09 -4.06204e-07 0
-0.0187081 0 0.05 1.61973e-09 1.72386e-07 0
-0.0142883 0 0.05 2.17977e-09 7.71475e-07 0
-0.0106909 0 0.05 3.08197e-09 1.45589e-06 0
-0.00776298 0 0.05 4.37987e-09 2.2476e-06 0
-0.00537988 0 0.05 6.01191e-09 3.16331e-06 0
-0.00344023 0 0.05 -6.74282e-08 1.6178e-06 0
-0.00186151 0 0.05 -0.000427833 -0.000131755 0
-0.000576564 0 0.05 -0.0367166 -0.521154 0
0.000597823 0 0.05 -261.68 -26.0389 0
0.00183445 0 0.05 -90.9533 -2.8471 0
0.00315586 0 0.05 -55.2388 -0.565372 0
0.00456785 0 0.05 -41.4403 -0.211012 0
0.00607663 0 0.05 -34.2713 -0.143649 0
0.00768885 0 0.05 -29.2411 -0.0879044 0
0.00941159 0 0.05 -25.7646 -0.057543 0
0.0112524 0 0.05 -23.2198 -0.0406191 0
0.0132195 0 0.05 -21.3361 -0.0276534 0
0.0153213 0 0.05 -20.0478 -0.0170229 0
0.0175673 0 0.05 -19.326 -0.00798192 0
0.0199673 0 0.05 -18.8905 -0.0111038 0
0.0225317 0 0.05 -18.8609 0.00149407 0
0.025272 0 0.05 -19.3485 0.0043954 0
0.0282001 0 0.05 -20.321 0.00553618 0
0.031329 0 0.05 -21.2298 0.00516819 0
0.0346723 0 0.05 -22.0017 0.00254076 0
0.0382448 0 0.05 -22.3399 -0.00449479 0
0.0420623 0 0.05 -22.4036 -0.00615258 0
0.0461414 0 0.05 -22.3039 -0.00721805 0
0.0505002 0 0.05 -22.0291 -0.00910542 0
0.0551578 0 0.05 -21.6553 -0.011593 0
0.0601347 0 0.05 -21.2828 -0.0113603 0
0.0654528 0 0.05 -20.8908 -0.0103297 0
0.0711354 0 0.05 -20.493 -0.0123397 0
0.0772076 0 0.05 -20.1084 -0.0147276 0
0.0836961 0 0.05 -19.7518 -0.0152665 0
0.0906293 0 0.05 -19.4089 -0.0154768 0
0.0980379 0 0.05 -19.0702 -0.0165906 0
0.105954 0 0.05 -18.7459 -0.0177549 0
0.114413 0 0.05 -18.4393 -0.0184893 0
0.123453 0 0.05 -18.1446 -0.0197885 0
0.133111 0 0.05 -17.8602 -0.0218188 0
0.143432 0 0.05 -17.5881 -0.0234461 0
0.15446 0 0.05 -17.3268 -0.024233 0
0.166245 0 0.05 -17.0724 -0.0251088 0
0.178837 0 0.05 -16.8235 -0.0264878 0
0.192293 0 0.05 -16.5816 -0.0278622 0
0.20667 0 0.05 -16.3474 -0.0289952 0
0.222034 0 0.05 -16.1196 -0.0300418 0
0.238451 0 0.05 -15.8964 -0.0312477 0
0.255993 0 0.05 -15.6782 -0.0325711 0
0.274738 0 0.05 -15.465 -0.0338765 0
0.294767 0 0.05 -15.2563 -0.0352108 0
0.31617 0 0.05 -15.0514 -0.0365265 0
0.33904 0 0.05 -14.8502 -0.0378415 0
0.363478 0 0.05 -14.6525 -0.0391922 0
0.389591 0 0.05 -14.4577 -0.0405281 0
0.417495 0 0.05 -14.2661 -0.0418317 0
0.447311 0 0.05 -14.078 -0.0431412 0
0.479171 0 0.05 -13.8934 -0.0443612 0
0.513216 0 0.05 -13.7118 -0.0455484 0
0.549594 0 0.05 -13.5328 -0.0467027 0
0.588466 0 0.05 -13.3565 -0.0478721 0
0.630002 0 0.05 -13.1828 -0.0490084 0
0.674387 0 0.05 -13.0117 -0.0501225 0
0.721814 0 0.05 -12.8446 -0.0512013 0
0.772492 0 0.05 -12.6749 -0.0522963 0
0.826644 0 0.05 -12.5216 -0.0534356 0
0.884509 0 0.05 -12.2503 -0.0546626 0
