/*--------------------------------*- C++ -*----------------------------------*\
| =========                 |                                                 |
| \\      /  F ield         | OpenFOAM: The Open Source CFD Toolbox           |
|  \\    /   O peration     | Version:  v2012                                 |
|   \\  /    A nd           | Website:  www.openfoam.com                      |
|    \\/     M anipulation  |                                                 |
\*---------------------------------------------------------------------------*/
FoamFile
{
    version     2.0;
    format      ascii;
    class       volScalarField;
    location    "2000";
    object      alphat;
}
// * * * * * * * * * * * * * * * * * * * * * * * * * * * * * * * * * * * * * //

dimensions      [1 -1 -1 0 0 0 0];


internalField   nonuniform List<scalar> 
31383
(
1.30209e-11
1.45761e-11
1.28387e-11
1.35115e-11
2.75681e-11
2.36146e-11
1.27402e-11
2.52958e-11
3.29171e-10
1.055e-10
1.21865e-11
2.36487e-11
2.99548e-10
2.54661e-09
4.57043e-10
1.17423e-11
2.24709e-11
2.78074e-10
2.31566e-09
1.22048e-08
1.59436e-09
1.13672e-11
2.15308e-11
2.62756e-10
2.14823e-09
1.10973e-08
4.34552e-08
4.69619e-09
1.10528e-11
2.07444e-11
2.5057e-10
2.02884e-09
1.02942e-08
3.95277e-08
1.26963e-07
1.22615e-08
1.079e-11
2.00843e-11
2.40442e-10
1.93389e-09
9.72137e-09
3.66769e-08
1.1562e-07
3.21013e-07
2.93349e-08
1.05599e-11
1.95334e-11
2.31933e-10
1.85501e-09
9.2658e-09
3.46423e-08
1.07367e-07
2.93e-07
7.22597e-07
6.57109e-08
1.03537e-11
1.90552e-11
2.2484e-10
1.78875e-09
8.88734e-09
3.30233e-08
1.01468e-07
2.72525e-07
6.62042e-07
1.4698e-06
1.39699e-07
1.01629e-11
1.86273e-11
2.18719e-10
1.73352e-09
8.56946e-09
3.16782e-08
9.67702e-08
2.57854e-07
6.17449e-07
1.35402e-06
2.72502e-06
2.84106e-07
9.988e-12
1.82323e-11
2.13248e-10
1.68588e-09
8.30447e-09
3.0548e-08
9.28637e-08
2.46146e-07
5.85367e-07
1.2678e-06
2.5279e-06
4.64074e-06
5.54378e-07
9.82601e-12
1.78712e-11
2.08205e-10
1.64331e-09
8.07595e-09
2.96056e-08
8.95794e-08
2.36394e-07
5.59681e-07
1.20544e-06
2.37889e-06
4.33857e-06
7.32845e-06
1.03812e-06
9.68076e-12
1.75375e-11
2.03605e-10
1.60408e-09
7.87174e-09
2.87928e-08
8.68388e-08
2.28187e-07
5.38229e-07
1.15528e-06
2.27041e-06
4.10618e-06
6.90506e-06
1.08531e-05
1.86178e-06
9.54978e-12
1.724e-11
1.9936e-10
1.56831e-09
7.68358e-09
2.80665e-08
8.4474e-08
2.2133e-07
5.20148e-07
1.11319e-06
2.18267e-06
3.93595e-06
6.57322e-06
1.03013e-05
1.50201e-05
3.18664e-06
9.43371e-12
1.69725e-11
1.95591e-10
1.5353e-09
7.51204e-09
2.73973e-08
8.23607e-08
2.15407e-07
5.05002e-07
1.07766e-06
2.10862e-06
3.7974e-06
6.32871e-06
9.85924e-06
1.44219e-05
1.99584e-05
5.21037e-06
9.32977e-12
1.67353e-11
1.9221e-10
1.50601e-09
7.35377e-09
2.67872e-08
8.04124e-08
2.10112e-07
4.91903e-07
1.04779e-06
2.04604e-06
3.67974e-06
6.12856e-06
9.53184e-06
1.39141e-05
1.92483e-05
2.5967e-05
8.12676e-06
9.23757e-12
1.65242e-11
1.89211e-10
1.47973e-09
7.21326e-09
2.62242e-08
7.86363e-08
2.05225e-07
4.80181e-07
1.0219e-06
1.99316e-06
3.58012e-06
5.95762e-06
9.2629e-06
1.35378e-05
1.86175e-05
2.51256e-05
3.32365e-05
1.20901e-05
9.15494e-12
1.63363e-11
1.86551e-10
1.45642e-09
7.08724e-09
2.57243e-08
7.69971e-08
2.0077e-07
4.69334e-07
9.98718e-07
1.94714e-06
3.49546e-06
5.8123e-06
9.0319e-06
1.32301e-05
1.81446e-05
2.43378e-05
3.22512e-05
4.19171e-05
1.71451e-05
9.0814e-12
1.61692e-11
1.8418e-10
1.43576e-09
6.97548e-09
2.5276e-08
7.55414e-08
1.96656e-07
4.59453e-07
9.77188e-07
1.90592e-06
3.42148e-06
5.68837e-06
8.83432e-06
1.2957e-05
1.77549e-05
2.37477e-05
3.12772e-05
4.08051e-05
5.21972e-05
2.28658e-05
9.01582e-12
1.60205e-11
1.82081e-10
1.41734e-09
6.8764e-09
2.48784e-08
7.42352e-08
1.93e-07
4.50315e-07
9.57596e-07
1.86749e-06
3.35528e-06
5.57957e-06
8.66558e-06
1.27023e-05
1.74196e-05
2.32608e-05
3.05528e-05
3.96278e-05
5.09957e-05
6.42727e-05
2.87011e-05
8.95744e-12
1.58881e-11
1.80213e-10
1.40103e-09
6.78804e-09
2.45258e-08
7.30764e-08
1.89717e-07
4.42188e-07
9.39428e-07
1.83256e-06
3.29324e-06
5.4823e-06
8.51686e-06
1.24848e-05
1.71294e-05
2.28438e-05
2.9954e-05
3.87465e-05
4.9583e-05
6.30403e-05
7.83338e-05
3.51926e-05
8.90505e-12
1.57702e-11
1.78553e-10
1.38651e-09
6.70984e-09
2.42114e-08
7.20487e-08
1.86804e-07
4.34882e-07
9.23251e-07
1.80005e-06
3.23677e-06
5.39077e-06
8.38384e-06
1.22925e-05
1.68832e-05
2.24864e-05
2.94391e-05
3.80179e-05
4.85222e-05
6.13633e-05
7.71655e-05
9.45646e-05
4.25154e-05
8.85751e-12
1.56647e-11
1.77075e-10
1.37362e-09
6.64025e-09
2.39332e-08
7.1132e-08
1.84219e-07
4.28399e-07
9.08665e-07
1.77105e-06
3.18411e-06
5.30727e-06
8.25837e-06
1.21201e-05
1.66636e-05
2.21843e-05
2.89987e-05
3.73904e-05
4.7643e-05
6.00966e-05
7.51968e-05
9.35668e-05
0.000113132
5.06918e-05
8.81367e-12
1.55689e-11
1.75755e-10
1.36213e-09
6.57839e-09
2.36855e-08
7.03204e-08
1.81912e-07
4.22638e-07
8.95728e-07
1.74483e-06
3.13706e-06
5.2293e-06
8.14361e-06
1.19577e-05
1.64647e-05
2.19142e-05
2.86252e-05
3.68523e-05
4.68855e-05
5.90432e-05
7.36964e-05
9.12839e-05
0.000112267
0.000134112
5.96559e-05
8.77346e-12
1.54806e-11
1.74555e-10
1.35188e-09
6.52333e-09
2.34652e-08
6.95979e-08
1.79869e-07
4.17494e-07
8.84215e-07
1.7216e-06
3.09439e-06
5.15947e-06
8.03653e-06
1.18086e-05
1.62782e-05
2.16692e-05
2.82937e-05
3.6394e-05
4.62353e-05
5.81344e-05
7.2446e-05
8.95271e-05
0.000109666
0.000132773
0.000157306
6.93087e-05
8.73676e-12
1.53999e-11
1.73449e-10
1.34256e-09
6.47416e-09
2.32692e-08
6.89554e-08
1.7805e-07
4.12937e-07
8.7393e-07
1.70084e-06
3.05665e-06
5.09602e-06
7.94037e-06
1.16696e-05
1.61076e-05
2.14398e-05
2.79914e-05
3.59903e-05
4.56796e-05
5.7359e-05
7.13654e-05
8.80599e-05
0.000107645
0.00012989
0.000155932
0.000182944
7.94137e-05
8.70328e-12
1.53262e-11
1.7244e-10
1.33398e-09
6.42946e-09
2.30941e-08
6.83834e-08
1.76431e-07
4.08876e-07
8.64808e-07
1.68229e-06
3.02276e-06
5.03989e-06
7.85283e-06
1.15445e-05
1.59479e-05
2.12289e-05
2.77097e-05
3.56227e-05
4.51896e-05
5.66938e-05
7.04453e-05
8.67897e-05
0.000105952
0.000127632
0.000152706
0.000182146
0.000211607
8.94019e-05
8.67289e-12
1.52591e-11
1.71521e-10
1.32614e-09
6.38828e-09
2.2935e-08
6.78726e-08
1.7499e-07
4.05262e-07
8.56677e-07
1.66582e-06
2.99251e-06
4.98933e-06
7.7753e-06
1.14306e-05
1.58047e-05
2.10332e-05
2.74489e-05
3.52782e-05
4.4747e-05
5.61053e-05
6.96584e-05
8.57057e-05
0.000104484
0.000125735
0.000150139
0.000178576
0.000211741
0.000243514
9.82727e-05
8.64539e-12
1.51983e-11
1.70683e-10
1.31901e-09
6.3507e-09
2.27884e-08
6.74081e-08
1.73702e-07
4.0204e-07
8.4943e-07
1.65113e-06
2.96555e-06
4.94424e-06
7.70537e-06
1.13296e-05
1.56742e-05
2.08558e-05
2.72078e-05
3.49595e-05
4.433e-05
5.55739e-05
6.89594e-05
8.47836e-05
0.000103228
0.000124092
0.00014797
0.000175676
0.000207846
0.000245073
0.000278874
0.000105315
8.62074e-12
1.51435e-11
1.69926e-10
1.3125e-09
6.31648e-09
2.26546e-08
6.698e-08
1.72531e-07
3.99162e-07
8.42968e-07
1.63803e-06
2.9415e-06
4.90392e-06
7.64302e-06
1.12384e-05
1.55583e-05
2.06947e-05
2.6989e-05
3.46636e-05
4.39455e-05
5.50749e-05
6.83255e-05
8.39615e-05
0.000102161
0.000122682
0.000146088
0.000173206
0.000204589
0.000240897
0.000282524
0.000317866
0.000112959
8.59863e-12
1.50943e-11
1.69243e-10
1.30662e-09
6.28526e-09
2.25327e-08
6.65892e-08
1.71452e-07
3.96543e-07
8.37191e-07
1.62633e-06
2.92003e-06
4.86796e-06
7.58714e-06
1.11571e-05
1.54543e-05
2.05515e-05
2.67899e-05
3.43973e-05
4.35874e-05
5.46145e-05
6.77334e-05
8.32141e-05
0.00010121
0.000121482
0.000144472
0.000171057
0.000201789
0.000237266
0.00027815
0.000324501
0.000360626
0.000127365
8.57854e-12
1.50502e-11
1.68632e-10
1.30132e-09
6.25703e-09
2.24216e-08
6.62335e-08
1.70466e-07
3.94129e-07
8.31931e-07
1.61587e-06
2.90083e-06
4.8358e-06
7.5373e-06
1.10841e-05
1.53613e-05
2.04228e-05
2.66133e-05
3.41544e-05
4.32655e-05
5.41844e-05
6.71859e-05
8.25172e-05
0.000100344
0.000120414
0.000143097
0.000169212
0.000199346
0.000234107
0.000274138
0.000320067
0.000371427
0.000407215
0.000138083
8.55989e-12
1.50102e-11
1.68085e-10
1.29658e-09
6.23162e-09
2.2321e-08
6.59091e-08
1.69569e-07
3.91925e-07
8.27081e-07
1.60633e-06
2.88366e-06
4.80703e-06
7.49267e-06
1.1019e-05
1.52773e-05
2.03074e-05
2.64541e-05
3.39386e-05
4.29725e-05
5.37986e-05
6.66744e-05
8.18715e-05
9.95363e-05
0.000119441
0.000141872
0.00016764
0.000197244
0.000231338
0.000270591
0.00031568
0.000367149
0.000423736
0.000457573
0.000139048
8.54248e-12
1.4973e-11
1.67587e-10
1.29233e-09
6.20886e-09
2.22305e-08
6.56157e-08
1.6875e-07
3.89916e-07
8.22651e-07
1.59753e-06
2.86799e-06
4.78126e-06
7.4527e-06
1.09606e-05
1.52028e-05
2.02042e-05
2.63118e-05
3.37441e-05
4.27114e-05
5.34478e-05
6.62161e-05
8.12708e-05
9.8788e-05
0.000118537
0.000140755
0.000166239
0.000195454
0.000228953
0.000267465
0.000311722
0.000362417
0.000419941
0.000481863
0.00051147
0.000136402
8.52485e-12
1.49384e-11
1.67125e-10
1.28846e-09
6.18845e-09
2.21493e-08
6.53513e-08
1.6801e-07
3.88083e-07
8.18614e-07
1.5895e-06
2.85353e-06
4.75774e-06
7.41689e-06
1.09083e-05
1.51358e-05
2.01121e-05
2.61846e-05
3.35702e-05
4.24766e-05
5.31347e-05
6.57994e-05
8.07319e-05
9.80937e-05
0.000117699
0.000139717
0.000164961
0.000193856
0.000226919
0.000264767
0.000308207
0.000358031
0.000414928
0.000479024
0.000546222
0.00056801
0.000129942
8.50975e-12
1.49031e-11
1.66695e-10
1.28487e-09
6.1699e-09
2.20766e-08
6.51143e-08
1.67343e-07
3.86426e-07
8.14928e-07
1.58217e-06
2.8403e-06
4.736e-06
7.38416e-06
1.08614e-05
1.50763e-05
2.00292e-05
2.60705e-05
3.34142e-05
4.22665e-05
5.28535e-05
6.54277e-05
8.02418e-05
9.74701e-05
0.000116922
0.000138755
0.000163774
0.000192398
0.000225102
0.000262464
0.000305165
0.000354097
0.000410106
0.000473843
0.000545014
0.000617185
0.000623912
0.000119663
8.5489e-12
1.48736e-11
1.66254e-10
1.28154e-09
6.15269e-09
2.20105e-08
6.49019e-08
1.66745e-07
3.84931e-07
8.11591e-07
1.57547e-06
2.82824e-06
4.71609e-06
7.35387e-06
1.08185e-05
1.50222e-05
1.99552e-05
2.59683e-05
3.32746e-05
4.20775e-05
5.26015e-05
6.5093e-05
7.98043e-05
9.69026e-05
0.000116223
0.000137864
0.000162673
0.000191043
0.000223442
0.000260403
0.000302563
0.000350679
0.000405726
0.000468596
0.000539845
0.000618553
0.000695049
0.000678855
0.000105811
1.40477e-11
1.48664e-11
1.65892e-10
1.27811e-09
6.13671e-09
2.19492e-08
6.47085e-08
1.66209e-07
3.83592e-07
8.08582e-07
1.56941e-06
2.81721e-06
4.69793e-06
7.32612e-06
1.07788e-05
1.49733e-05
1.98888e-05
2.58764e-05
3.31496e-05
4.19088e-05
5.23752e-05
6.47936e-05
7.94105e-05
9.63957e-05
0.000115587
0.000137062
0.000161654
0.000189787
0.0002219
0.000258518
0.000300233
0.00034775
0.000401902
0.000463749
0.000534212
0.000613672
0.000700291
0.000779995
0.000732134
8.90126e-05
9.07924e-12
6.38887e-11
1.65041e-10
1.2753e-09
6.12027e-09
2.18922e-08
6.45292e-08
1.6572e-07
3.82389e-07
8.05885e-07
1.56392e-06
2.80723e-06
4.68133e-06
7.30082e-06
1.07425e-05
1.49276e-05
1.98281e-05
2.57944e-05
3.30373e-05
4.17577e-05
5.21726e-05
6.45247e-05
7.90583e-05
9.59404e-05
0.000115019
0.000136333
0.000160737
0.000188623
0.00022047
0.000256766
0.000298098
0.000345122
0.000398615
0.00045949
0.00052889
0.00060773
0.000696107
0.000790872
0.000872036
0.000782695
7.0381e-05
9.22436e-12
1.90034e-11
9.74379e-10
1.26828e-09
6.10681e-09
2.18337e-08
6.43628e-08
1.65267e-07
3.81294e-07
8.03463e-07
1.559e-06
2.79817e-06
4.6663e-06
7.2777e-06
1.07093e-05
1.4886e-05
1.97714e-05
2.57189e-05
3.29365e-05
4.1622e-05
5.19914e-05
6.42835e-05
7.8742e-05
9.55325e-05
0.000114508
0.000135682
0.000159904
0.000187578
0.000219145
0.000255141
0.000296113
0.00034271
0.000395661
0.000455818
0.000524172
0.000601941
0.00068999
0.000787975
0.000890905
0.000970955
0.000829072
5.15152e-05
1.09188e-11
2.05245e-11
2.38078e-10
7.30974e-09
6.0728e-09
2.17857e-08
6.41915e-08
1.64846e-07
3.80278e-07
8.01256e-07
1.5546e-06
2.79005e-06
4.65267e-06
7.25673e-06
1.0679e-05
1.48481e-05
1.97199e-05
2.56493e-05
3.28442e-05
4.14996e-05
5.1829e-05
6.40676e-05
7.84576e-05
9.51659e-05
0.00011405
0.000135096
0.000159159
0.000186628
0.000217955
0.000253636
0.00029427
0.000340465
0.000392944
0.000452506
0.000520085
0.000596748
0.000683769
0.000781894
0.000890128
0.00100092
0.00107622
0.00086959
3.43494e-05
9.94165e-12
3.29437e-11
2.70476e-10
1.85982e-09
3.39194e-08
2.16635e-08
6.40513e-08
1.64414e-07
3.79335e-07
7.9921e-07
1.55058e-06
2.78276e-06
4.64048e-06
7.23773e-06
1.06514e-05
1.48134e-05
1.96728e-05
2.55856e-05
3.27591e-05
4.13879e-05
5.16818e-05
6.38746e-05
7.8203e-05
9.48362e-05
0.000113638
0.000134571
0.000158489
0.000185778
0.000216874
0.000252286
0.000292563
0.000338379
0.000390411
0.000449453
0.000516387
0.000592226
0.000678101
0.000775318
0.000884407
0.00100342
0.00112132
0.0011869
0.000902663
2.0693e-05
8.79373e-12
2.67545e-11
5.0901e-10
2.1412e-09
8.88689e-09
1.18013e-07
6.36896e-08
1.6406e-07
3.78358e-07
7.97307e-07
1.54685e-06
2.77613e-06
4.62951e-06
7.22075e-06
1.06265e-05
1.47818e-05
1.96299e-05
2.55273e-05
3.26809e-05
4.12847e-05
5.15477e-05
6.36997e-05
7.79754e-05
9.45408e-05
0.000113268
0.000134098
0.000157888
0.000185015
0.000215907
0.000251059
0.000291033
0.000336448
0.000388055
0.000446602
0.000512967
0.000588115
0.00067313
0.000769194
0.000877605
0.000998535
0.00112869
0.00125231
0.00130156
0.00092725
1.15074e-05
8.58998e-12
1.9224e-11
3.85643e-10
4.05503e-09
1.03836e-08
3.13968e-08
3.39716e-07
1.63127e-07
3.7756e-07
7.95328e-07
1.54338e-06
2.76997e-06
4.6195e-06
7.20548e-06
1.06042e-05
1.47533e-05
1.95908e-05
2.54741e-05
3.26096e-05
4.11899e-05
5.14236e-05
6.354e-05
7.77697e-05
9.42766e-05
0.000112936
0.000133673
0.000157348
0.000184329
0.00021504
0.000249961
0.000289644
0.000334718
0.000385874
0.000443947
0.000509767
0.000584296
0.000668582
0.00076377
0.000871078
0.000991717
0.00112532
0.00126669
0.00139381
0.00141811
0.000943669
6.37e-06
8.39774e-12
1.82619e-11
2.41945e-10
3.0146e-09
1.96397e-08
3.72174e-08
9.15617e-08
8.51853e-07
3.75404e-07
7.93714e-07
1.53979e-06
2.76424e-06
4.6102e-06
7.19146e-06
1.05841e-05
1.47279e-05
1.95557e-05
2.5426e-05
3.25443e-05
4.11036e-05
5.13097e-05
6.33923e-05
7.75813e-05
9.40378e-05
0.000112638
0.000133292
0.000156862
0.000183713
0.00021426
0.000248976
0.000288399
0.000333147
0.000383921
0.000441489
0.000506783
0.000580717
0.000664337
0.000758771
0.00086522
0.000984885
0.0011188
0.0012658
0.00141806
0.00154536
0.00152767
0.000955272
3.92538e-06
8.36108e-12
1.47946e-11
2.23268e-10
1.85274e-09
1.44115e-08
7.04271e-08
1.08993e-07
2.32527e-07
1.90602e-06
7.89197e-07
1.53687e-06
2.75832e-06
4.60155e-06
7.17844e-06
1.05658e-05
1.47051e-05
1.95241e-05
2.53824e-05
3.24854e-05
4.10244e-05
5.1206e-05
6.32566e-05
7.74072e-05
9.38191e-05
0.000112369
0.000132951
0.000156426
0.000183159
0.000213558
0.00024809
0.000287282
0.000331738
0.000382147
0.000439289
0.00050402
0.000577371
0.000660346
0.000754076
0.000859764
0.000978638
0.00111183
0.00126006
0.00142098
0.00158324
0.00170596
0.00161633
0.000970783
2.93722e-06
8.34775e-12
1.45505e-11
1.63484e-10
1.69198e-09
8.7552e-09
5.1158e-08
2.07287e-07
2.74794e-07
5.29046e-07
3.83149e-06
1.52828e-06
2.75353e-06
4.59259e-06
7.16635e-06
1.05487e-05
1.46842e-05
1.94958e-05
2.53432e-05
3.24319e-05
4.0953e-05
5.11112e-05
6.31331e-05
7.72471e-05
9.36167e-05
0.000112123
0.000132641
0.000156035
0.000182661
0.000212928
0.000247293
0.000286279
0.000330476
0.000380557
0.000437291
0.000501546
0.00057427
0.000656605
0.000749644
0.000854602
0.000972743
0.00110528
0.00125319
0.0014167
0.00159179
0.00176235
0.00187395
0.00168801
0.000994739
2.61079e-06
8.33809e-12
1.45137e-11
1.60402e-10
1.24779e-09
7.93189e-09
3.07524e-08
1.49411e-07
5.28753e-07
6.14354e-07
1.09466e-06
6.92208e-06
2.73868e-06
4.58535e-06
7.1538e-06
1.05327e-05
1.46648e-05
1.94699e-05
2.53081e-05
3.2384e-05
4.08882e-05
5.10253e-05
6.30202e-05
7.71013e-05
9.34308e-05
0.000111894
0.000132359
0.000155681
0.000182215
0.000212362
0.000246578
0.000285377
0.000329342
0.000379134
0.0004355
0.0004993
0.000571497
0.000653133
0.000745476
0.000849704
0.000967109
0.00109899
0.00124649
0.00141032
0.00158992
0.00177899
0.00195507
0.00204683
0.00174542
0.000971822
2.52668e-06
8.3247e-12
1.44903e-11
1.59571e-10
1.2236e-09
5.94528e-09
2.7652e-08
8.87228e-08
3.79118e-07
1.20009e-06
1.24368e-06
2.07631e-06
1.12952e-05
4.56195e-06
7.14372e-06
1.05161e-05
1.46468e-05
1.94459e-05
2.52761e-05
3.23411e-05
4.08303e-05
5.09476e-05
6.29179e-05
7.69681e-05
9.32616e-05
0.000111685
0.000132096
0.000155357
0.000181811
0.000211854
0.000245935
0.000284565
0.000328322
0.000377854
0.000433897
0.000497287
0.000568977
0.000650031
0.000741603
0.000845081
0.000961727
0.0010929
0.00123988
0.00140369
0.00158458
0.00178086
0.00198307
0.0021605
0.00222106
0.00178867
0.000877479
2.51648e-06
8.31076e-12
1.44594e-11
1.59103e-10
1.21505e-09
5.8253e-09
2.11327e-08
7.91797e-08
2.21743e-07
8.58747e-07
2.44435e-06
2.30967e-06
3.63095e-06
1.68772e-05
7.10993e-06
1.0503e-05
1.46275e-05
1.94234e-05
2.52462e-05
3.23018e-05
4.07784e-05
5.08781e-05
6.28254e-05
7.68474e-05
9.31068e-05
0.000111494
0.000131856
0.000155057
0.000181441
0.000211394
0.000245358
0.000283837
0.000327405
0.000376703
0.000432456
0.000495485
0.000566718
0.000647213
0.000738141
0.000840775
0.000956623
0.00108702
0.00123337
0.0013969
0.00157836
0.00177734
0.00199051
0.00220415
0.00237693
0.00239175
0.00181483
0.000752542
2.52434e-06
8.30278e-12
1.44273e-11
1.58544e-10
1.21038e-09
5.77648e-09
2.06898e-08
6.1971e-08
1.9691e-07
4.95164e-07
1.75365e-06
4.46917e-06
3.96065e-06
5.89434e-06
2.35113e-05
1.04576e-05
1.46127e-05
1.93996e-05
2.52184e-05
3.22649e-05
4.07307e-05
5.08157e-05
6.27428e-05
7.67384e-05
9.29666e-05
0.00011132
0.000131637
0.000154782
0.000181099
0.000210972
0.000244836
0.000283184
0.000326581
0.000375668
0.000431159
0.000493864
0.000564697
0.000644684
0.000734998
0.000836925
0.000951855
0.00108142
0.00122703
0.00139006
0.00157161
0.00177203
0.00198989
0.00221961
0.00244179
0.00260164
0.00252078
0.00181947
0.000603378
2.53469e-06
8.21682e-12
1.44095e-11
1.57966e-10
1.20505e-09
5.7503e-09
2.04942e-08
6.06352e-08
1.58468e-07
4.40534e-07
1.00784e-06
3.2335e-06
7.36147e-06
6.31782e-06
8.96441e-06
3.10521e-05
1.45614e-05
1.93812e-05
2.5189e-05
3.22309e-05
4.0686e-05
5.07584e-05
6.26683e-05
7.66409e-05
9.28398e-05
0.000111161
0.000131436
0.000154531
0.000180784
0.000210581
0.000244356
0.000282592
0.000325842
0.000374738
0.000429993
0.000492407
0.000562879
0.000642423
0.000732175
0.000833429
0.000947592
0.00107617
0.00122092
0.00138328
0.00156456
0.00176564
0.00198619
0.00222341
0.00246854
0.00269478
0.00283064
0.00261154
0.00180037
0.000439889
2.54456e-06
5.19811e-12
1.43019e-11
1.57631e-10
1.19953e-09
5.72106e-09
2.03905e-08
6.00139e-08
1.55001e-07
3.64425e-07
9.03251e-07
1.89162e-06
5.40353e-06
1.10704e-05
9.46316e-06
1.29071e-05
3.93991e-05
1.93183e-05
2.5166e-05
3.21949e-05
4.06447e-05
5.07047e-05
6.26001e-05
7.65532e-05
9.27262e-05
0.000111018
0.000131254
0.000154301
0.000180497
0.000210223
0.000243912
0.000282048
0.000325172
0.000373902
0.000428946
0.000491096
0.000561245
0.000640388
0.000729652
0.000830288
0.000943717
0.00107147
0.00121517
0.00137669
0.00155743
0.00175859
0.00198062
0.00222229
0.0024788
0.00273715
0.00296091
0.00305844
0.00267071
0.00176324
0.000279926
2.55435e-06
1.43636e-13
8.71369e-12
1.56808e-10
1.19622e-09
5.69089e-09
2.02762e-08
5.96867e-08
1.53331e-07
3.56474e-07
7.66279e-07
1.71076e-06
3.2921e-06
8.2868e-06
1.54971e-05
1.34485e-05
1.75765e-05
4.84947e-05
2.50886e-05
3.21664e-05
4.06008e-05
5.0655e-05
6.25361e-05
7.64727e-05
9.26241e-05
0.000110889
0.00013109
0.000154093
0.000180235
0.000209897
0.000243504
0.000281544
0.000324556
0.000373146
0.000428005
0.00048992
0.000559775
0.00063856
0.000727381
0.00082748
0.000940234
0.0010672
0.00121002
0.00137044
0.0015504
0.00175125
0.0019739
0.00221821
0.00248162
0.0027566
0.00302448
0.00323668
0.00327769
0.00270175
0.00172425
0.000147742
2.56265e-06
1.28831e-12
2.49153e-12
9.20534e-11
1.18975e-09
5.67239e-09
2.01584e-08
5.9331e-08
1.5246e-07
3.52542e-07
7.49915e-07
1.48551e-06
3.00626e-06
5.34128e-06
1.18795e-05
2.05952e-05
1.79923e-05
2.31417e-05
5.83136e-05
3.20747e-05
4.0566e-05
5.06021e-05
6.24766e-05
7.63971e-05
9.25304e-05
0.000110772
0.000130942
0.000153905
0.000179998
0.000209598
0.000243133
0.000281081
0.000323985
0.00037245
0.000427151
0.000488862
0.000558455
0.000636915
0.00072534
0.000824952
0.000937121
0.00106335
0.00120533
0.00136484
0.00154368
0.00174387
0.00196656
0.00221227
0.00247996
0.0027652
0.00305679
0.00332861
0.00351694
0.00343959
0.00270363
0.00168669
6.23188e-05
2.56809e-06
1.5797e-12
2.32524e-12
4.9541e-11
6.95571e-10
5.64011e-09
2.00852e-08
5.89618e-08
1.51513e-07
3.50507e-07
7.4168e-07
1.45513e-06
2.66691e-06
4.92429e-06
8.1388e-06
1.62176e-05
2.63916e-05
2.34638e-05
2.99129e-05
6.88571e-05
4.04619e-05
5.05599e-05
6.24136e-05
7.63268e-05
9.24423e-05
0.000110666
0.000130808
0.000153735
0.000179782
0.000209327
0.000242793
0.000280659
0.00032346
0.000371804
0.000426367
0.000487901
0.000557267
0.000635437
0.000723504
0.000822682
0.000934317
0.00105991
0.0012011
0.00135972
0.00153764
0.00173673
0.00195898
0.00220526
0.00247546
0.00276723
0.00307363
0.00337851
0.00364621
0.00379461
0.00353855
0.00266948
0.00153011
2.21989e-05
2.57069e-06
1.57662e-12
2.7126e-12
2.61886e-11
3.86316e-10
3.29445e-09
1.99669e-08
5.87321e-08
1.50537e-07
3.48302e-07
7.37443e-07
1.43966e-06
2.61583e-06
4.45266e-06
7.56879e-06
1.17529e-05
2.13822e-05
3.28974e-05
3.01066e-05
3.81315e-05
8.01525e-05
5.04401e-05
6.23631e-05
7.62523e-05
9.23602e-05
0.000110565
0.000130686
0.000153582
0.000179589
0.000209082
0.000242486
0.000280275
0.000322983
0.000371211
0.000425639
0.000487019
0.00055619
0.000634108
0.000721854
0.000820639
0.0009318
0.00105682
0.00119732
0.0013551
0.0015321
0.00173028
0.00195153
0.00219771
0.00246924
0.00276508
0.00308109
0.00340689
0.00371985
0.00397223
0.00406028
0.00358209
0.00259136
0.00124544
8.01338e-06
2.57124e-06
1.39556e-12
2.73458e-12
2.92701e-11
1.97783e-10
1.82606e-09
1.16695e-08
5.83807e-08
1.49922e-07
3.46022e-07
7.32865e-07
1.43175e-06
2.58959e-06
4.37421e-06
6.95666e-06
1.10101e-05
1.61399e-05
2.74572e-05
3.92193e-05
3.80833e-05
4.80025e-05
9.22621e-05
6.22207e-05
7.61924e-05
9.22734e-05
0.000110472
0.00013057
0.000153442
0.000179415
0.000208862
0.000242208
0.000279926
0.000322548
0.000370672
0.000424969
0.000486198
0.000555198
0.000632902
0.00072037
0.000818802
0.000929533
0.00105403
0.00119392
0.00135098
0.0015271
0.00172435
0.00194475
0.0021901
0.00246206
0.00276034
0.00308255
0.00342212
0.00376406
0.0040774
0.0042995
0.00427003
0.0035746
0.00247912
0.000910821
3.84241e-06
2.57065e-06
1.26785e-12
2.48139e-12
2.98206e-11
2.2101e-10
9.32108e-10
6.44144e-09
3.42107e-08
1.49027e-07
3.44586e-07
7.28122e-07
1.4232e-06
2.57626e-06
4.33374e-06
6.84526e-06
1.02566e-05
1.51835e-05
2.1248e-05
3.39018e-05
4.71383e-05
4.7603e-05
5.9729e-05
0.000105295
7.60179e-05
9.22036e-05
0.000110373
0.000130463
0.00015331
0.000179254
0.000208664
0.000241957
0.00027961
0.000322153
0.00037018
0.000424361
0.000485444
0.000554276
0.000631791
0.000719024
0.000817151
0.000927496
0.00105153
0.00119086
0.00134726
0.00152262
0.00171898
0.00193849
0.00218312
0.00245456
0.00275402
0.00308021
0.0034289
0.00379016
0.00414301
0.00444589
0.00461826
0.0043916
0.0035182
0.00237624
0.000570098
2.74879e-06
2.56918e-06
1.2366e-12
2.30551e-12
2.76847e-11
2.2567e-10
1.04481e-09
3.28834e-09
1.88479e-08
8.78464e-08
3.42587e-07
7.25128e-07
1.41432e-06
2.56186e-06
4.31332e-06
6.78761e-06
1.01075e-05
1.43382e-05
2.00467e-05
2.74217e-05
4.15211e-05
5.69199e-05
5.88676e-05
7.3435e-05
0.00011834
9.19859e-05
0.000110295
0.000130348
0.000153187
0.000179103
0.000208482
0.000241733
0.000279327
0.000321796
0.000369734
0.000423806
0.000484759
0.000553428
0.000630757
0.000717783
0.000815651
0.000925663
0.00104928
0.00118811
0.00134391
0.00151859
0.00171418
0.0019328
0.00217663
0.00244758
0.002747
0.00307547
0.00343024
0.00380456
0.00418408
0.00454002
0.00481769
0.00491582
0.00443435
0.00341501
0.00229547
0.00028735
2.48769e-06
2.56682e-06
1.24564e-12
2.25348e-12
2.62327e-11
2.09963e-10
1.06868e-09
3.69848e-09
9.63176e-09
4.85455e-08
2.04096e-07
7.21165e-07
1.4087e-06
2.54681e-06
4.29112e-06
6.75868e-06
1.00305e-05
1.41562e-05
1.90442e-05
2.5946e-05
3.47417e-05
5.08837e-05
6.8573e-05
7.21068e-05
8.88056e-05
0.000132763
0.000110024
0.000130258
0.000153056
0.000178963
0.00020831
0.000241526
0.000279073
0.000321477
0.000369332
0.000423303
0.000484134
0.000552658
0.000629806
0.000716625
0.000814268
0.000923999
0.00104725
0.00118564
0.0013409
0.00151496
0.00170984
0.0019277
0.0021707
0.00244101
0.00274031
0.00306946
0.00342805
0.00381132
0.00420915
0.00460133
0.00494925
0.00518225
0.00512176
0.0044024
0.00326739
0.0019108
0.000110474
2.43002e-06
2.56505e-06
1.27712e-12
2.27039e-12
2.56915e-11
1.99305e-10
9.94986e-10
3.79001e-09
1.08669e-08
2.48594e-08
1.14056e-07
4.36866e-07
1.4017e-06
2.53729e-06
4.26805e-06
6.7273e-06
9.9922e-06
1.40654e-05
1.8815e-05
2.4754e-05
3.30426e-05
4.35516e-05
6.2124e-05
8.21618e-05
8.7472e-05
0.000106083
0.000150414
0.000129942
0.000152952
0.000178813
0.000208149
0.000241331
0.000278838
0.000321188
0.000368971
0.00042285
0.000483569
0.000551956
0.000628943
0.000715561
0.000812977
0.000922462
0.00104541
0.00118341
0.0013382
0.00151169
0.00170593
0.00192308
0.00216537
0.00243497
0.00273391
0.0030635
0.00342382
0.00381302
0.00422366
0.00464108
0.00503755
0.00536219
0.0055257
0.00521946
0.00429556
0.00308461
0.00140692
3.44818e-05
2.41829e-06
2.56404e-06
1.33819e-12
2.32725e-12
2.58894e-11
1.95259e-10
9.44951e-10
3.53087e-09
1.11581e-08
2.81134e-08
5.86307e-08
2.4985e-07
8.69408e-07
2.52627e-06
4.25335e-06
6.69458e-06
9.95072e-06
1.40206e-05
1.86999e-05
2.44657e-05
3.16741e-05
4.15206e-05
5.40846e-05
7.53557e-05
9.78091e-05
0.000104857
0.000125796
0.000171759
0.000152582
0.000178694
0.000207978
0.000241147
0.000278616
0.000320922
0.000368646
0.000422444
0.000483059
0.000551322
0.000628156
0.000714595
0.000811789
0.000921027
0.00104371
0.00118138
0.00133576
0.00150875
0.00170241
0.00191892
0.00216053
0.00242952
0.00272795
0.00305761
0.00341918
0.00381162
0.00423108
0.00466645
0.00509717
0.00548596
0.0057671
0.00580157
0.00521535
0.00411364
0.00290898
0.000875337
1.05168e-05
2.41564e-06
2.56332e-06
1.41022e-12
2.43086e-12
2.6532e-11
1.96773e-10
9.25991e-10
3.3548e-09
1.0403e-08
2.89274e-08
6.63733e-08
1.29356e-07
5.16975e-07
1.6147e-06
4.23768e-06
6.67377e-06
9.90722e-06
1.3972e-05
1.86423e-05
2.43211e-05
3.13123e-05
3.99843e-05
5.16394e-05
6.65442e-05
9.06737e-05
0.000115618
0.000124008
0.000148223
0.000196696
0.00017826
0.000207842
0.000240952
0.000278409
0.000320672
0.000368346
0.000422078
0.000482603
0.000550751
0.000627445
0.000713715
0.00081071
0.000919704
0.00104212
0.00117951
0.00133354
0.0015061
0.00169924
0.00191518
0.00215617
0.00242455
0.00272254
0.00305202
0.0034143
0.00380918
0.00423394
0.004682
0.00513745
0.00557208
0.0059368
0.0061484
0.00594502
0.00510976
0.00387055
0.00259556
0.000426116
4.19534e-06
2.41495e-06
2.5627e-06
1.47954e-12
2.55035e-12
2.76408e-11
2.01651e-10
9.33209e-10
3.28828e-09
9.88937e-09
2.69952e-08
6.84355e-08
1.46268e-07
2.71158e-07
1.01697e-06
2.80304e-06
6.65337e-06
9.87975e-06
1.39211e-05
1.85832e-05
2.42526e-05
3.11363e-05
3.95393e-05
4.98885e-05
6.36077e-05
8.10987e-05
0.000107962
0.000135496
0.000145788
0.000173676
0.000224755
0.000207333
0.000240797
0.000278188
0.000320438
0.000368064
0.000421742
0.000482193
0.000550239
0.000626806
0.000712921
0.000809729
0.000918504
0.00104065
0.00117775
0.00133149
0.00150369
0.00169639
0.0019118
0.00215224
0.00242007
0.00271759
0.00304689
0.00340949
0.003806
0.00423484
0.00469106
0.00516436
0.00563253
0.00605776
0.0063766
0.0064639
0.00596198
0.00490336
0.00361408
0.00194351
0.000153237
2.70368e-06
2.41476e-06
2.56212e-06
1.54185e-12
2.6597e-12
2.88935e-11
2.1005e-10
9.5633e-10
3.3141e-09
9.69605e-09
2.56795e-08
6.39403e-08
1.51079e-07
3.05228e-07
5.45607e-07
1.9047e-06
4.55755e-06
9.85481e-06
1.38893e-05
1.85204e-05
2.41804e-05
3.10534e-05
3.9325e-05
4.93435e-05
6.16019e-05
7.7632e-05
9.76903e-05
0.000126869
0.000157226
0.000170507
0.000202497
0.000256153
0.0002402
0.00027801
0.000320188
0.0003678
0.000421424
0.000481815
0.000549779
0.000626234
0.000712208
0.000808845
0.000917413
0.00103932
0.00117613
0.00132956
0.00150145
0.00169379
0.00190875
0.00214869
0.00241601
0.0027131
0.00304217
0.003405
0.00380254
0.00423432
0.00469688
0.00518219
0.005675
0.00614507
0.00654267
0.00678749
0.00662992
0.00585264
0.00461009
0.00337882
0.00123103
4.30659e-05
2.38306e-06
2.41468e-06
2.56167e-06
1.59602e-12
2.75301e-12
2.99788e-11
2.19532e-10
9.96186e-10
3.39612e-09
9.77258e-09
2.51855e-08
6.0877e-08
1.41364e-07
3.15614e-07
6.08515e-07
1.06058e-06
3.3898e-06
6.97054e-06
1.38676e-05
1.84803e-05
2.41051e-05
3.09641e-05
3.9228e-05
4.90897e-05
6.09379e-05
7.53413e-05
9.38124e-05
0.000115921
0.000148322
0.000181758
0.00019851
0.000235066
0.000291633
0.00027731
0.000319985
0.000367517
0.000421125
0.000481459
0.000549357
0.00062572
0.00071157
0.000808051
0.00091643
0.00103812
0.00117466
0.00132778
0.00149935
0.00169137
0.00190597
0.00214548
0.00241235
0.00270903
0.00303785
0.0034008
0.00379919
0.00423303
0.00470034
0.00519505
0.005705
0.00620854
0.00666525
0.00701104
0.0071167
0.00664966
0.00561604
0.00426917
0.00287656
0.000603994
1.15701e-05
2.31985e-06
2.4146e-06
2.56125e-06
1.64226e-12
2.82742e-12
3.08481e-11
2.27703e-10
1.04119e-09
3.53765e-09
1.00141e-08
2.5385e-08
5.97275e-08
1.34744e-07
2.95847e-07
6.29168e-07
1.16482e-06
1.99782e-06
5.7148e-06
1.00947e-05
1.84512e-05
2.40565e-05
3.08721e-05
3.91245e-05
4.89685e-05
6.06355e-05
7.45452e-05
9.12601e-05
0.000111839
0.000136693
0.000172614
0.000209416
0.000230183
0.000271801
0.0003315
0.000319166
0.000367287
0.000420807
0.000481123
0.000548958
0.000625249
0.000710998
0.000807341
0.000915549
0.00103703
0.00117333
0.00132616
0.0014974
0.00168909
0.00190338
0.00214255
0.00240903
0.00270534
0.00303393
0.00339693
0.00379592
0.00423149
0.00470231
0.00520423
0.0057277
0.00625512
0.00675658
0.00717924
0.00744213
0.00728107
0.00652065
0.00526651
0.00395318
0.00203291
0.000211312
4.14579e-06
2.30843e-06
2.41455e-06
2.56079e-06