/*--------------------------------*- C++ -*----------------------------------*\
| =========                 |                                                 |
| \\      /  F ield         | OpenFOAM: The Open Source CFD Toolbox           |
|  \\    /   O peration     | Version:  v2012                                 |
|   \\  /    A nd           | Website:  www.openfoam.com                      |
|    \\/     M anipulation  |                                                 |
\*---------------------------------------------------------------------------*/
FoamFile
{
    version     2.0;
    format      ascii;
    class       volScalarField;
    location    "2000";
    object      k;
}
// * * * * * * * * * * * * * * * * * * * * * * * * * * * * * * * * * * * * * //

dimensions      [0 2 -2 0 0 0 0];


internalField   nonuniform List<scalar> 
31383
(
0.791871
0.888861
0.128259
0.825676
0.287224
0.0798838
0.779219
0.26413
1.14662
0.166372
0.745573
0.247168
1.04586
4.11253
0.40007
0.718701
0.234942
0.971905
3.74857
10.9358
0.860549
0.696185
0.225221
0.918764
3.48146
9.96684
24.1374
1.67339
0.677203
0.217143
0.876637
3.28959
9.25573
22.0005
47.1701
3.02339
0.661137
0.210327
0.841824
3.13751
8.74491
20.4319
43.0114
84.4743
5.17926
0.647167
0.204576
0.812432
3.01189
8.34004
19.3047
39.9561
77.1043
141.062
8.5285
0.634946
0.199615
0.787686
2.90584
8.00563
18.4113
37.7594
71.6795
129.014
221.16
13.621
0.623954
0.195265
0.76645
2.81657
7.72332
17.6734
36.0176
67.774
120.114
202.976
325.909
21.206
0.614147
0.191346
0.747808
2.73998
7.48569
17.0503
34.5785
64.6744
113.69
189.454
300.652
451.384
32.2272
0.605245
0.187846
0.730993
2.67275
7.28185
16.5259
33.3631
62.1118
108.582
179.651
281.673
419.053
588.836
47.7933
0.597237
0.184665
0.715965
2.61211
7.10292
16.0759
32.3397
59.9459
104.355
171.835
267.834
394.468
550.437
727.719
68.8472
0.59
0.181821
0.702298
2.55792
6.94152
15.681
31.4617
58.1211
100.776
165.35
256.755
376.435
520.888
684.834
859.332
95.6506
0.58354
0.179259
0.69013
2.50863
6.79729
15.3248
30.691
56.555
97.7573
159.848
247.526
361.917
499.077
651.463
813.503
978.988
128.286
0.577673
0.176973
0.679194
2.46475
6.66612
15.0065
29.9958
55.18
95.1648
155.198
239.688
349.759
481.414
626.679
777.491
931.215
1083.88
165.849
0.572407
0.174913
0.669434
2.42533
6.54936
14.717
29.3745
53.9395
92.8877
151.2
233.032
339.437
466.562
606.513
750.61
893.399
1035.27
1172.52
207.43
0.567612
0.17306
0.660686
2.39015
6.44445
14.4593
28.8095
52.8308
90.8321
147.685
227.3
330.611
453.923
589.501
728.679
865.058
996.53
1124.03
1244.98
252.081
0.563274
0.17139
0.65281
2.35863
6.35083
14.2278
28.3065
51.8224
88.9944
144.508
222.255
322.988
443.061
574.979
710.108
841.899
967.384
1085.08
1197.34
1302.38
296.57
0.559343
0.169882
0.645756
2.33025
6.26696
14.0212
27.8545
50.9246
87.3228
141.671
217.687
316.29
433.638
562.441
694.223
822.238
943.54
1055.66
1158.68
1256.11
1346.39
339.166
0.555793
0.16852
0.639397
2.30484
6.19143
13.836
27.4511
50.1174
85.8338
139.088
213.622
310.205
425.392
551.532
680.46
805.455
923.239
1031.58
1129.4
1218.09
1301.93
1378.94
378.926
0.552571
0.167293
0.633672
2.28193
6.12381
13.6693
27.0896
49.3968
84.4947
136.784
209.907
304.798
417.873
542.017
668.467
790.892
905.887
1011.03
1105.4
1189.22
1264.76
1336.67
1401.91
414.537
0.549632
0.166184
0.628519
2.26132
6.06286
13.5201
26.7641
48.7509
83.2982
134.709
206.59
299.849
411.198
533.32
658.023
778.177
890.813
993.44
1084.91
1165.55
1236.5
1300.48
1362.25
1417.03
444.877
0.546924
0.165172
0.623875
2.24277
6.00801
13.3856
26.4726
48.1691
82.2254
132.854
203.597
295.423
405.086
525.607
648.485
767.109
877.624
978.151
1067.34
1145.32
1213.3
1272.93
1327.1
1380.45
1425.79
469.068
0.544435
0.16424
0.619637
2.22605
5.95864
13.2645
26.2098
47.648
81.2584
131.19
200.921
291.416
399.609
518.555
640.027
757.041
866.147
964.737
1052.06
1127.94
1193.46
1250.28
1300.31
1346.37
1392.68
1429.34
486.72
0.542136
0.163386
0.615736
2.21079
5.91417
13.1555
25.9733
47.1782
80.392
129.688
198.514
287.842
394.635
512.22
632.313
748.107
855.747
953.071
1038.62
1112.84
1176.39
1230.92
1278.26
1320.35
1359.7
1400.14
1428.57
497.794
0.540013
0.1626
0.612168
2.19675
5.87358
13.0573
25.7604
46.7552
79.6105
128.341
196.338
284.609
390.199
506.45
625.366
739.977
846.522
942.536
1026.94
1099.52
1161.55
1214.23
1259.4
1298.91
1334.47
1368.28
1403.55
1424.07
502.269
0.538046
0.161874
0.608889
2.18391
5.83621
12.9677
25.5685
46.3743
78.9064
127.126
194.386
281.686
386.167
501.3
619.03
732.648
838.142
933.203
1016.42
1087.93
1148.46
1199.71
1243.12
1280.57
1313.65
1343.86
1372.86
1403.5
1416.28
499.852
0.536219
0.161206
0.60587
2.17211
5.80205
12.8852
25.3934
46.0311
78.2722
126.03
192.622
279.057
382.525
496.6
613.365
725.959
830.584
924.744
1007.12
1077.55
1137.05
1186.88
1228.94
1264.71
1295.82
1323.65
1349.26
1374.03
1400.47
1405.54
489.235
0.534526
0.160588
0.603096
2.16125
5.77065
12.8098
25.2322
45.7178
77.7005
125.042
191.029
276.675
379.233
492.351
608.179
719.964
823.681
917.107
998.719
1068.38
1126.87
1175.71
1216.41
1250.89
1280.4
1306.33
1329.69
1351.27
1372.28
1394.87
1392.1
467.802
0.532948
0.160019
0.600544
2.15127
5.74174
12.7405
25.0849
45.4294
77.1785
124.151
189.591
274.522
376.249
488.498
603.484
714.463
817.482
910.13
991.118
1060.12
1117.89
1165.76
1205.51
1238.66
1266.94
1291.35
1312.89
1332.34
1350.39
1368.05
1387.04
1376.16
434.845
0.53147
0.15949
0.598198
2.14209
5.71518
12.6767
24.9494
45.1656
76.698
123.337
188.294
272.576
373.545
485.003
599.216
709.48
811.783
903.853
984.172
1052.64
1109.82
1157
1195.8
1228.03
1255.02
1278.24
1298.34
1316.08
1332.13
1347.05
1361.68
1377.22
1357.88
395.452
0.530069
0.158997
0.596028
2.13365
5.69077
12.618
24.8247
44.9231
76.2585
122.587
187.107
270.818
371.095
481.824
595.335
704.934
806.618
898.074
977.916
1045.79
1102.5
1149.15
1187.28
1218.57
1244.65
1266.64
1285.61
1301.98
1316.4
1329.46
1341.6
1353.45
1365.63
1337.37
352.58
0.528739
0.15853
0.594006
2.12585
5.66832
12.5641
24.7102
44.6999
75.8543
121.901
186.015
269.208
368.878
478.938
591.796
700.786
801.887
892.832
972.147
1039.63
1095.8
1142.02
1179.64
1210.27
1235.44
1256.54
1274.32
1289.63
1302.76
1314.28
1324.69
1334.32
1343.58
1352.41
1314.7
308.179
0.527398
0.158089
0.5921
2.11859
5.64756
12.5145
24.6048
44.4948
75.482
121.27
185.014
267.725
366.848
476.324
588.573
696.999
797.559
888.009
966.909
1033.93
1089.77
1135.49
1172.71
1202.86
1227.37
1247.57
1264.5
1278.67
1290.8
1301.11
1310.07
1318.12
1325.45
1332.26
1337.66
1289.92
263.246
0.526327
0.157641
0.590301
2.11174
5.62823
12.4687
24.5078
44.3061
75.1399
120.689
184.094
266.367
364.975
473.924
585.651
693.545
793.601
883.592
962.073
1028.75
1084.18
1129.61
1166.37
1196.12
1220.17
1239.72
1255.78
1269.12
1280.16
1289.53
1297.37
1304.07
1309.97
1315.18
1319.63
1321.45
1262.84
218.653
0.527532
0.157288
0.588464
2.10527
5.61
12.426
24.4182
44.1325
74.8251
120.154
183.245
265.116
363.258
471.709
582.966
690.406
789.989
879.544
957.638
1023.96
1079.1
1124.16
1160.64
1189.95
1213.62
1232.72
1248.15
1260.64
1270.89
1279.24
1286.19
1291.84
1296.5
1300.45
1303.67
1305.81
1303.79
1233.17
175.341
0.852645
0.156852
0.587034
2.09867
5.59283
12.3858
24.3348
43.972
74.5353
119.662
182.463
263.96
361.673
469.678
580.488
687.518
786.696
875.848
953.566
1019.56
1074.39
1119.19
1155.33
1184.39
1207.63
1226.36
1241.35
1253.24
1262.67
1270.25
1276.24
1281.07
1284.76
1287.58
1289.72
1291.04
1290.85
1284.66
1200.36
134.404
0.542844
0.555743
0.582686
2.09353
5.57527
12.3478
24.256
43.8223
74.2671
119.209
181.742
262.895
360.209
467.802
578.215
684.855
783.665
872.466
949.843
1015.51
1070.05
1114.58
1150.49
1179.22
1202.22
1220.53
1235.18
1246.64
1255.49
1262.27
1267.54
1271.46
1274.41
1276.34
1277.46
1277.91
1277.39
1274.82
1263.98
1163.72
97.1702
0.549309
0.18427
2.95303
2.07725
5.56161
12.3091
24.1818
43.6812
74.0171
118.789
181.076
261.91
358.858
466.065
576.112
682.408
780.873
869.356
946.431
1011.8
1066.06
1110.33
1145.99
1174.5
1197.2
1215.28
1229.52
1240.65
1249.09
1255.31
1259.82
1263.05
1265.15
1266.41
1266.73
1266.28
1265.11
1262.78
1257.73
1241.64
1122.37
65.1324
0.650405
0.197839
0.74715
10.2733
5.51807
12.2789
24.106
43.5482
73.7813
118.397
180.46
260.999
357.605
464.459
574.159
680.142
778.301
866.489
943.292
1008.4
1062.4
1106.41
1141.83
1170.11
1192.6
1210.39
1224.42
1235.16
1243.29
1249.11
1253.08
1255.58
1257.04
1257.51
1257.24
1256.08
1254.15
1251.41
1247.25
1239.56
1217.49
1075.21
39.7322
0.598351
0.318049
0.840825
2.65757
26.3561
12.1824
24.0471
43.4123
73.5591
118.027
179.884
260.154
356.447
462.965
572.35
678.034
775.917
863.846
940.395
1005.27
1059.03
1102.81
1138
1166.06
1188.32
1205.92
1219.67
1230.21
1237.97
1243.5
1247.08
1249.07
1249.83
1249.7
1248.7
1247.03
1244.49
1241.14
1236.87
1230.83
1220.29
1191.32
1020.86
21.8322
0.534156
0.26224
1.58742
3.00924
7.00948
56.3529
23.8573
43.3067
73.3313
117.678
179.34
259.364
355.367
461.583
570.663
676.076
773.7
861.393
937.724
1002.38
1055.93
1099.5
1134.47
1162.31
1184.37
1201.75
1215.32
1225.61
1233.17
1238.35
1241.65
1243.27
1243.54
1242.75
1241.2
1238.88
1235.9
1232.05
1227.32
1221.51
1213.53
1199.85
1162.89
957.688
11.0435
0.524768
0.190871
1.22898
5.72379
7.94519
15.3876
106.66
42.9633
73.1543
117.32
178.827
258.617
354.355
460.291
569.098
674.246
771.635
859.111
935.244
999.711
1053.07
1096.45
1131.23
1158.86
1180.71
1197.9
1211.27
1221.38
1228.7
1233.71
1236.67
1238.03
1237.94
1236.68
1234.52
1231.68
1228.13
1223.94
1218.82
1212.74
1205.35
1195.31
1178.14
1131.93
883.884
5.56957
0.514871
0.182838
0.784947
4.37374
15.0904
17.3923
30.014
183.916
72.5708
117.042
178.301
257.911
353.397
459.073
567.63
672.544
769.697
856.979
932.932
997.232
1050.43
1093.63
1128.23
1155.68
1177.34
1194.33
1207.51
1217.44
1224.61
1229.38
1232.18
1233.22
1232.89
1231.29
1228.68
1225.27
1221.26
1216.57
1211.2
1204.85
1197.41
1188.41
1176.15
1155.01
1097.98
798.108
3.14393
0.513343
0.154622
0.733042
2.74955
11.439
32.9369
33.6915
53.8326
292.025
116.104
177.894
257.189
352.49
457.918
566.243
670.941
767.891
854.975
930.769
994.92
1047.97
1091.03
1125.47
1152.75
1174.23
1191.04
1204.03
1213.79
1220.78
1225.41
1227.99
1228.88
1228.25
1226.43
1223.5
1219.67
1215.13
1210.03
1204.25
1197.75
1190.18
1181.36
1170.66
1155.97
1130.3
1060.18
700.982
2.20642
0.512911
0.153086
0.573673
2.55
7.14328
24.8284
63.4736
59.8265
90.3909
427.6
176.466
256.633
351.562
456.826
564.924
669.425
766.186
853.102
928.732
992.753
1045.68
1088.61
1122.91
1150.04
1171.36
1188
1200.83
1210.41
1217.23
1221.7
1224.15
1224.84
1224.06
1221.96
1218.82
1214.69
1209.76
1204.18
1198.05
1191.23
1183.63
1174.83
1164.57
1152.06
1134.69
1103.77
1017.4
597.123
1.89451
0.512506
0.152892
0.566371
2.03626
6.59643
15.4445
47.7057
111.566
99.2554
143.227
578.112
254.583
350.851
455.706
563.674
667.977
764.568
851.327
926.823
990.709
1043.53
1086.35
1120.54
1147.54
1168.71
1185.2
1197.86
1207.29
1213.94
1218.26
1220.56
1221.12
1220.16
1217.93
1214.53
1210.21
1205
1199.05
1192.49
1185.39
1177.56
1168.85
1158.79
1147.04
1132.58
1112.19
1075.16
968.292
491.845
1.79904
0.511853
0.152741
0.564541
2.00954
5.39213
14.221
29.6488
83.9098
181.431
155.27
214.535
727.173
348.083
454.854
562.392
666.603
763.02
849.64
925.008
988.785
1041.49
1084.22
1118.32
1145.21
1166.27
1182.6
1195.12
1204.39
1210.91
1215.06
1217.22
1217.65
1216.57
1214.17
1210.65
1206.09
1200.71
1194.5
1187.61
1180.14
1172.09
1163.26
1153.42
1142.07
1128.73
1112.12
1088.32
1044.12
911.529
388.844
1.76956
0.511339
0.152504
0.563432
2.00063
5.31861
11.8771
27.2616
52.3555
137.294
274.006
229.574
303.485
862.712
451.336
561.426
665.195
761.551
848.023
923.279
986.953
1039.58
1082.21
1116.23
1143.03
1163.99
1180.21
1192.59
1201.72
1208.09
1212.12
1214.12
1214.42
1213.22
1210.71
1207.04
1202.38
1196.77
1190.42
1183.29
1175.51
1167.15
1158.17
1148.34
1137.35
1124.63
1109.58
1090.6
1062.88
1010.32
845.903
291.965
1.75922
0.510921
0.152306
0.561972
1.99549
5.29027
11.7091
23.2203
48.1662
86.714
210.152
384.441
320.636
405.459
979.771
557.187
664.141
760.042
846.488
921.619
985.206
1037.74
1080.31
1114.24
1140.98
1161.85
1177.98
1190.25
1199.25
1205.49
1209.38
1211.26
1211.42
1210.1
1207.48
1203.72
1198.91
1193.22
1186.66
1179.41
1171.41
1162.79
1153.56
1143.66
1132.8
1120.62
1106.45
1089.54
1067.89
1035.64
972.911
770.453
204.908
1.75486
0.505531
0.152169
0.560644
1.98913
5.27436
11.6386
22.8821
41.7684
79.9964
136.008
301.184
503.062
423.346
513.274
1078.27
659.242
758.922
844.907
920.043
983.526
1035.99
1078.49
1112.37
1139.04
1159.84
1175.89
1188.08
1196.97
1203.08
1206.85
1208.61
1208.65
1207.2
1204.47
1200.61
1195.72
1189.9
1183.27
1175.84
1167.75
1158.92
1149.48
1139.4
1128.57
1116.64
1103.2
1087.47
1068.5
1043.83
1006.31
930.643
684.734
131.002
1.75276
0.311881
0.15102
0.559773
1.98319
5.25527
11.5996
22.7324
41.1492
70.5109
126.049
202.579
404.971
620.01
530.468
619.581
1160.21
753.423
843.744
918.416
981.929
1034.31
1076.75
1110.57
1137.19
1157.93
1173.92
1186.03
1194.85
1200.86
1204.5
1206.15
1206.07
1204.52
1201.68
1197.71
1192.74
1186.85
1180.11
1172.62
1164.37
1155.47
1145.86
1135.61
1124.67
1112.88
1099.85
1085.05
1067.62
1046.37
1018.25
974.532
881.941
589.563
73.4294
1.75113
0.00489895
0.0897919
0.556898
1.97928
5.23722
11.5538
22.6504
40.8647
69.4632
112.813
188.891
286.302
514.077
728.895
635.049
718.993
1228.06
837.722
917.23
980.275
1032.71
1075.08
1108.85
1135.42
1156.12
1172.05
1184.11
1192.86
1198.79
1202.34
1203.87
1203.68
1202.02
1199.08
1195.02
1189.96
1183.99
1177.2
1169.61
1161.32
1152.3
1142.63
1132.24
1121.18
1109.37
1096.58
1082.37
1066.13
1046.83
1022.99
990.899
939.92
825.101
488.303
34.4545
1.7497
0.0233492
0.0146298
0.319284
1.96902
5.22525
11.5101
22.5554
40.7104
68.9686
111.166
171.594
268.935
383.668
621.863
826.968
732.247
808.871
1284.09
910.766
979.082
1031.05
1073.48
1107.19
1133.72
1154.38
1170.28
1182.29
1190.98
1196.85
1200.33
1201.76
1201.47
1199.71
1196.67
1192.52
1187.37
1181.33
1174.47
1166.85
1158.48
1149.42
1139.66
1129.25
1118.08
1106.2
1093.48
1079.65
1064.18
1046.35
1024.97
998.212
961.502
901.613
758.601
387.488
13.2166
1.74867
0.0253083
0.00725388
0.0981668
1.12503
5.19726
11.4809
22.464
40.5322
68.7026
110.374
169.197
247.923
363.341
488.428
723.715
913.629
819.98
887.759
1330.23
972.255
1029.85
1071.82
1105.61
1132.08
1152.71
1168.57
1180.55
1189.2
1195.03
1198.44
1199.81
1199.43
1197.57
1194.44
1190.19
1184.96
1178.85
1171.93
1164.25
1155.86
1146.75
1136.97
1126.49
1115.33
1103.38
1090.67
1077
1062.05
1045.22
1025.64
1001.93
971.813
929.713
858.308
681.43
291.687
4.43795
1.74808
0.0235499
0.00747059
0.0275655
0.357819
2.96785
11.4179
22.4032
40.3614
68.3967
109.951
168.031
244.719
339.684
466.315
593.593
816.741
989.295
896.595
955.102
1368.04
1022.75
1070.64
1103.95
1130.52
1151.09
1166.93
1178.88
1187.5
1193.29
1196.66
1197.97
1197.53
1195.59
1192.36
1188.03
1182.73
1176.54
1169.55
1161.83
1153.4
1144.28
1134.47
1123.99
1112.79
1100.89
1088.15
1074.56
1059.89
1043.73
1025.4
1003.88
977.536
943.548
895.127
808.29
593.335
203.601
1.56396
1.74803
0.0200372
0.0070183
0.0271614
0.0972924
0.943672
6.52134
22.2784
40.2468
68.1019
109.465
167.412
243.149
335.762
441.506
570.927
693.454
899.428
1054.67
961.552
1011.36
1398.78
1063.34
1102.79
1128.88
1149.55
1165.34
1177.27
1185.87
1191.63
1194.97
1196.25
1195.75
1193.75
1190.44
1186.02
1180.64
1174.39
1167.35
1159.57
1151.1
1141.96
1132.16
1121.66
1110.49
1098.58
1085.92
1072.35
1057.84
1042.1
1024.63
1004.65
980.953
951.6
913.117
857.007
749.588
495.414
127.373
0.743114
1.74832
0.0177403
0.00612069
0.0257756
0.0957205
0.255768
2.06565
12.7386
40.0214
67.9046
108.995
166.698
242.318
333.835
437.092
546.376
671.219
784.644
971.456
1110.87
1015.28
1057.64
1423.45
1095.38
1127.73
1147.94
1163.83
1175.71
1184.3
1190.04
1193.36
1194.6
1194.07
1192.02
1188.66
1184.17
1178.7
1172.39
1165.29
1157.46
1148.95
1139.79
1129.98
1119.51
1108.35
1096.49
1083.86
1070.41
1055.98
1040.49
1023.58
1004.67
982.844
956.692
923.887
880.154
814.096
680.319
392.703
68.3414
0.529364
1.7488
0.0169695
0.00554164
0.0229948
0.0909962
0.252117
0.559699
4.01875
22.947
67.5285
108.681
166.008
241.354
332.817
434.922
541.749
647.888
763.537
865.613
1033.63
1157.41
1058.8
1095.42
1442.74
1120.27
1146.81
1162.24
1174.23
1182.77
1188.51
1191.81
1193.04
1192.48
1190.4
1186.99
1182.45
1176.92
1170.52
1163.37
1155.5
1146.96
1137.77
1127.95
1117.49
1106.37
1094.55
1081.99
1068.61
1054.34
1039
1022.45
1004.26
983.749
959.859
930.909
894.115
844.236
764.716
599.414
294.872
29.9
0.478152
1.74953
0.0168152
0.00531183
0.0212303
0.0813434
0.239975
0.553102
1.0892
7.21811
38.9346
108.099
165.545
240.423
331.618
433.775
539.486
643.29
741.821
846.001
935.464
1085.98
1194.63
1093.45
1126.17
1457.16
1139.33
1161.12
1172.66
1181.31
1187.01
1190.31
1191.53
1190.96
1188.85
1185.42
1180.84
1175.26
1168.8
1161.57
1153.66
1145.08
1135.88
1126.04
1115.6
1104.51
1092.74
1080.24
1066.97
1052.81
1037.68
1021.35
1003.66
984.061
961.763
935.532
903.375
861.953
804.48
706.887
507.724
204.83
10.4682
0.466944
1.75009
0.0170088
0.00526444
0.0203888
0.0752274
0.214628
0.527207
1.07934
1.95757
12.2441
62.9516
164.714
239.795
330.477
432.41
538.291
641.061
737.396
826.181
917.407
994.316
1128.85
1223.68
1120.69
1151.25
1466.94
1153.66
1171.57
1179.78
1185.59
1188.85
1190.07
1189.5
1187.38
1183.93
1179.32
1173.7
1167.2
1159.92
1151.94
1143.33
1134.1
1124.27
1113.82
1102.75
1091.04
1078.62
1065.44
1051.42
1036.45
1020.39
1003
984.04
962.878
938.569
909.672
873.818
827.001
759.508
638.617
407.823
126.174
3.14765
0.464813
1.75044
0.0176136
0.00532384
0.0202104
0.0722654
0.198566
0.471715
1.03048
1.94527
3.32428
19.8918
97.4919
238.711
329.692
431.122
536.843
639.9
735.284
822.048
899.529
977.599
1042.77
1163.2
1245.85
1141.9
1171.64
1472.29
1164.12
1178.71
1184.08
1187.47
1188.65
1188.08
1185.97
1182.51
1177.88
1172.24
1165.71
1158.39
1150.36
1141.7
1132.44
1122.6
1112.16
1101.11
1089.44
1077.09
1064.01
1050.12
1035.32
1019.48
1002.43
983.875
963.509
940.59
914.002
882.047
841.913
788.621
707.497
558.248
307.926
65.4271
0.95048
0.464477
1.75066
0.0183674
0.00549555
0.020434
0.0716349
0.19078
0.436546
0.922469
1.86065
3.31211
5.41153
31.2081
144.685
328.408
430.225
535.494
638.439
734.193
820.113
895.751
961.496
1027.17
1081.94
1190.35
1262.32
1158.24
1188.08
1473.66
1171.3
1183.03
1185.99
1187.3
1186.7
1184.59
1181.14
1176.51
1170.86
1164.31
1156.96
1148.89
1140.18
1130.88
1121.02
1110.59
1099.57
1087.93
1075.65
1062.66
1048.9
1034.26
1018.63
1001.85
983.716
963.886
941.955
917.051
887.864
852.385
807.275
745.618
646.277
466.135
215.262
27.0525
0.378385
0.46445
1.75085
0.0190905
0.00570512
0.0210371
0.072425
0.189119
0.4195
0.853976
1.66667
3.17461
5.40329
8.52317
47.4707
205.308
428.849
534.544
637.109
732.763
819.115
894.02
958.074
1012.57
1067.17
1113.18
1211.59
1274.08
1170.64
1201.17
1471.59
1175.66
1184.96
1185.86
1185.38
1183.25
1179.81
1175.19
1169.54
1162.97
1155.61
1147.52
1138.78
1129.44
1119.55
1109.12
1098.11
1086.51
1074.28
1061.38
1047.74
1033.26
1017.82
1001.31
983.517
964.19
942.938
919.248
892.087
859.916
820.358
769.331
696.322
573.78
367.367
133.127
8.76549
0.243816
0.464474
1.75104
0.0197282
0.00589401
0.0217582
0.0745499
0.191202
0.41586
0.820802
1.54358
2.84597
5.19052
8.51919
13.06
70.0254
277.874
533.209
636.159
731.49
817.756
893.13
956.552
1009.47
1053.8
1098.93
1137.91
1228
1281.95
1179.72
1211.42
1466.52
1177.63
1184.85
1183.98
1181.97
1178.51
1173.9
1168.26
1161.7
1154.33
1146.23
1137.48
1128.11
1118.19
1107.73
1096.74
1085.17
1073
1060.17
1046.63
1032.3
1017.06
1000.78
983.301
964.4
943.758
920.914
895.23
865.49
829.877
785.582
726.964
638.631
489.028
270.559
68.5502
2.3754
0.214921
0.464499
1.75117
0.0202688
0.00604966
0.0223632
0.0770879
0.196812
0.420435
0.813704
1.48398
2.63727
4.65826
8.20219
13.0426
19.5218
99.9204
358.581
634.974
730.571
816.577
891.869
955.77
1008.13
1050.95
1086.52
1123.85
1157.36
1240.45
1286.57
1185.99
1219.23
1458.8
1177.57
1182.99
1180.6
1177.27
1172.65
1167.03
1160.48
1153.12
1145.01
1136.25
1126.87
1116.93
1106.44
1095.44
1083.9
1071.78
1059.02
1045.58
1031.38
1016.31
1000.26
983.073
964.545
944.419
922.31
897.672
869.718
837.008
797.411
747.457
678.564
570.277
394.073
180.911
27.7053
0.632964
0.209259
0.46452
1.75131
0.020716
0.00616663
0.0228185
0.0792024
0.203512
0.432771
0.822648
1.47119
2.53616
4.3199
7.37171
12.5832
19.4186
28.4703
137.394
442.391
729.609
815.715
890.813
954.617
1007.46
1049.78
1083.82
1112.12
1143.22
1172.57
1249.48
1288.33
1189.91
1224.94
1448.7
1175.76
1179.64
1175.94
1171.45
1165.82
1159.3
1151.95
1143.86
1135.09
1125.71
1115.75
1105.26
1094.23
1082.7
1070.62
1057.93
1044.58
1030.49
1015.59
999.746
982.827
964.641
944.96
923.474
899.72
873.045
842.488
806.346
762.123
704.852
622.053
489.648
296.457
103.619
8.54145
0.226484
0.208249
0.46454
1.75145
0.0210989
0.00624816
0.0230987
0.0807764
0.209088
0.44751
0.846769
1.48733
2.51439
4.15574
6.84331
11.3309
18.7634
28.0854
40.4306
181.54
524.566
815.059
890.019
953.704
1006.42
1049.21
1082.8
1109.5
1131.93
1158.11
1184.17
1255.54
1287.6
1191.84
1228.8
1436.48
1172.46
1175
1170.16
1164.66
1158.13
1150.81
1142.74
1133.99
1124.61
1114.65
1104.15
1093.13
1081.58
1069.51
1056.88
1043.62
1029.65
1014.88
999.231
982.555
964.688
945.412
924.454
901.446
875.833
846.834
813.277
773.151
723.315
656.142
555.096
397.534
205.181
47.3197
2.1228
0.141318
0.208087
0.464564
1.75163
0.0214715
0.00630522
0.0232227
0.0817242
0.213225
0.459756
0.875585
1.53086
2.54185
4.12016
6.58608
10.5335
16.9383
27.1533
39.3462
55.7299
230.607
601.912
889.713
952.986
1005.64
1048.28
1082.3
1108.57
1129.31
1147.07
1169.31
1192.72
1259.03
1284.7
1192.12
1231.01
1422.36
1167.86
1169.24
1163.41
1157.01
1149.69
1141.65
1132.93
1123.56
1113.62
1103.12
1092.09
1080.55
1068.48
1055.88
1042.69
1028.83
1014.2
998.718
982.266
964.683
945.779
925.297
902.915
878.193
850.467
818.799
781.772
737.011
679.778
599.221
475.912
301.131
123.211
16.2784
0.503823
0.125084
0.208068
0.464595
1.75183
0.02188
0.00635897
0.0232386
0.0821137
0.215711
0.468821
0.899496
1.58284
2.61594
4.16474
6.52968
10.1429
15.7763
24.5891
38.0115
53.2266
74.3302
282.607
672.581
953.027
1004.98
1047.6
1081.45
1108.12
1128.41
1144.38
1158.41
1177.39
1198.68
1260.3
1279.92
1191.02
1231.71
1406.56
1162.16
1162.51
1155.81
1148.62
1140.58
1131.89
1122.56
1112.63
1102.15
1091.13
1079.59
1067.54
1054.95
1041.8
1028.03
1013.53
998.211
981.958
964.637
946.063
926.015
904.192
880.211
853.548
823.405
788.656
747.604
697.063
629.808
531.727
385.206
210.123
59.134
4.20287
0.160799
0.122267
0.208074
0.464619
1.75208
0.0223773
0.00642997
0.0232408
0.0821159
0.21672
0.474262
0.917156
1.62589
2.70435
4.28516
6.59917
10.0556
15.201
22.958
34.5495
51.307
69.4207
95.7839
335.87
735.041
1005.36
1047
1080.87
1107.32
1128
1143.45
1155.6
1166.5
1182.82
1202.44
1259.63
1273.5
1188.75
1231
1389.27
1155.48
1154.93
1147.46
1139.56
1130.87
1121.58
1111.69
1101.22
1090.22
1078.7
1066.66
1054.09
1040.96
1027.25
1012.87
997.702
981.638
964.55
946.28
926.616
905.298
881.974
856.186
827.31
794.389
756.071
710.245
651.967
571.223
451.995
290.225
127.107
21.1702
0.91167
0.0959394
0.121824
0.208077
0.464661
1.75231
0.0230177
0.00652854
0.0233291
0.0820678
0.216709
0.476467
0.927734
1.65761
2.7774
4.42874
6.78715
10.1591
15.0678
22.1374
32.351
46.8209
66.69
87.3967
119.403
389.251
788.405
1047.65
1080.31
1106.81
1127.25
1143.05
1154.62
1163.54
1171.86
1186.02
1204.34
1257.25
1265.68
1185.49
1228.96
1370.69
1147.96
1146.61
1138.44
1129.89
1120.62
1110.76
1100.34
1089.37
1077.86
1065.84
1053.29
1040.19
1026.52
1012.22
997.182
981.299
964.432
946.434
927.121
906.247
883.511
858.495
830.655
799.241
763.112
720.648
668.661
599.889
501.691
361.549
200.444
60.8778
5.50614
0.214409
0.0848238
0.121764
0.208088
0.464686
1.75252
0.0238151
0.00668896
0.0235219
0.0823293
0.216562
0.476427
0.931999
1.67655
2.83104
4.547
7.01102
10.4411
15.214
21.9368
31.22
43.9776
61.0957
83.6279
106.633
144.521
442.041
832.175
1081.17
1106.31
1126.79
1142.34
1154.21
1162.48
1168.71
1174.91
1187.34
1204.63
1253.37
1256.66
1181.4
1225.61
1350.97
1139.68
1137.61
1128.82
1119.68
1109.85
1099.48
1088.54
1077.07
1065.07
1052.55
1039.48
1025.85
1011.6
996.663
980.935
964.276
946.533
927.535
907.068
884.845
860.514
833.583
803.399
769.06
729.214
681.643
621.344
538.569
419.947
268.117
118.467
21.3254
1.13555
0.086533
0.0830941
0.121759
0.208096
0.464717
1.75277
0.0247709
0.00689977
0.024007
0.0829609
0.217233
0.476086
0.931885
1.68412
2.8629
4.63339
7.19464
10.7764
15.6187
22.1293
30.9219
42.4738
57.5532
76.8726
101.608
127.109
170.663
493.795
865.834
1107.29
1126.33
1141.92
1153.53
1162.06
1167.55
1171.53
1176.01
1187.07
1203.54
1248.15
1246.61
1176.58
1220.99
1330.29
1130.74
1128.02
1118.66
1108.97
1098.62
1087.74
1076.31
1064.35
1051.86
1038.83
1025.23
1011.03
996.163
980.557
964.08
946.575
927.871
907.767
886.015
862.279
836.146
807.032
774.157
736.433
692.185
637.83
566.29
465.843
329.236
179.954
54.0916
5.29579
0.234443
0.0654328
0.0828511
0.121761
0.208101
0.464742
1.75315
0.0258797
0.00716555
0.0246893
0.0846424
0.21888
0.477542
0.93118
1.68381
2.87545
4.68432
7.32782
11.0499
16.0992
22.6797
31.1524
42.0391
55.6233
72.5885
93.6536
120.267
148.325
197.566
544.293
888.455
1127.35
1141.5
1153.14
1161.39
1167.09
1170.24
1172.38
1175.48
1185.45
1201.24
1241.74
1235.71
1171.13
1215.09
1308.81
1121.2
1117.88
1108
1097.79
1086.94
1075.57
1063.66
1051.21
1038.21
1024.66
1010.5
995.704
980.186
963.855
946.559
928.128
908.361
887.028
863.837
838.394
810.212
778.599
742.619
700.968
651.034
587.494
501.184
381.291
237.801
100.663
17.5545
1.02177
0.0774241
0.0622793
0.0828222
0.121765
0.208108
0.464789
1.75351
0.0271322
0.00748282
0.0255993
0.0870234
0.223301
0.481137
0.933995
1.68244
2.87466
4.70391
7.40548
11.2465
16.4877
23.3325
31.8545
42.2819
55.0064
70.1881
88.5841
111.078
139.399
169.981
225.15
593.342
899.486
1142.48
1152.75
1161.03
1166.42
1169.72
1170.92
1171.54
1173.57
1182.67
1197.85
1234.24
1224.09
1165.09
1207.91
1286.67
1111.13
1107.24
1096.88
1086.16
1074.84
1062.98
1050.59
1037.64
1024.12
1010.02
995.283
979.845
963.622
946.499
928.308
908.852
887.906
865.199
840.386
813.007
782.484
747.994
708.425
661.886
604.304
528.458
424.308
290.22
151.698
41.8739
3.96008
0.196689
0.0529601
0.0618528
0.0828198
0.121768
0.208118
0.464819
1.75395
0.0285059
0.00784733
0.0267185
0.0902145
0.229565
0.490834
0.940985
1.68744
2.8721
4.70191
7.4342
11.3588
16.7631
23.8545
32.6871
43.1144
55.2191
69.3425
85.6748
105.173
128.944
158.913
191.968
253.452
640.693
902.635
1153.64
1160.64
1166.07
1169.05
1170.32
1169.91
1169.28
1170.49
1178.91
1193.49
1225.76
1211.88
1158.5
1199.46
1264
1100.58
1096.14
1085.31
1074.11
1062.31
1049.98
1037.09
1023.63
1009.58
994.897
979.533
963.408
946.417
928.427
909.247
888.654
866.39
842.138
815.49
785.903
752.69
714.874
670.991
617.952
550.043
458.479
336.944
201.33
77.2427
11.9758
0.702676
0.0628429
0.0495125
0.0618015
0.0828212
0.121773
0.208126
0.464854
1.7544
0.0299749
0.00825156
0.0280256
0.0941509
0.237968
0.504575
0.959889
1.69995
2.88034
4.69708
7.42918
11.3974
16.9157
24.2166
33.3427
44.1048
56.1352
69.4741
84.5579
101.721
122.152
147.164
178.79
214.286
282.576
686.076
901.676
1161.43
1165.69
1168.7
1169.62
1169.21
1167.45
1165.83
1166.43
1174.3
1188.23
1216.37
1199.19
1151.38
1189.72
1240.93
1089.59
1084.6
1073.32
1061.65
1049.37
1036.55
1023.16
1009.16
994.543
979.25
963.213
946.34
928.508
909.561
889.282
867.421
843.677
817.679
788.942
756.824
720.508
678.801
629.275
567.449
485.954
376.687
246.434
118.587
27.8854
2.37545
0.1324
0.0434546
0.0490734
0.0617968
0.0828237
0.121778
0.208133
0.464878
1.75486
0.0315469
0.00868821
0.0294913
0.0987494
0.248336
0.523014
0.986694
1.73395
2.90138
4.70987
7.41991
11.3854
16.961
24.4069
33.7837
44.8684
57.2338
70.4148
84.559
100.298
118.129
139.439
165.718
199.048
236.999
312.718
729.311
898.406
1166.36
1168.33
1169.27
1168.46
1166.63
1163.76
1161.36
1161.54
1168.94
1182.13
1206.15
1186.12
1143.71
1178.72
1217.53
1078.21
1072.63
1060.92
1048.77
1036.02
1022.69
1008.77
994.215
978.993
963.039
946.272
928.58
909.819
889.812
868.308
845.023
819.607
791.624
760.498
725.469
685.564
638.883
581.77
508.202
410.293
287.549
160.336
52.4027
6.72444
0.390815
0.0475083
0.0409177
0.0490237
0.0617975
0.0828265
0.121782
0.208137
0.464909
1.75535
0.0331934
0.00915494
0.031089
0.103915
0.26045
0.545769
1.02268
1.78219
2.95902
4.74343
7.43837
11.3673
16.9336
24.4486
33.9958
45.3596
58.0584
71.5595
85.4688
100.128
116.373
134.822
157.023
184.626
219.732
260.203
344.03
770.47
893.631
1168.86
1168.91
1168.1
1165.83
1162.8
1159.04
1156.03
1155.93
1162.92
1175.22
1195.15
1172.74
1135.46
1166.5
1193.79
1066.49
1060.26
1048.11
1035.48
1022.23
1008.39
993.909
978.757
962.885
946.216
928.649
910.054
890.265
869.074
846.195
821.304
793.992
763.741
729.873
691.485
647.123
593.795
526.475
438.041
324.313
199.605
83.45
15.6275
1.1619
0.0787813
0.0361929
0.0406179
0.0490194
0.0617992
0.0828285
0.121786
0.208152
0.464921
1.75585
0.0348654
0.00964404
0.0327925
0.109547
0.274058
0.572357
1.06708
1.84697
3.04081
4.83655
7.48922
11.3914
16.8983
24.3903
34.0117
45.5614
58.5542
72.3893
86.6026
100.965
116.003
132.717
151.796
174.931
203.926
240.901
284.016
376.674
809.801
887.719
1169.3
1167.73
1165.43
1161.93
1157.92
1153.44
1149.98
1149.71
1156.29
1167.53
1183.43
1159.1
1126.59
1153.13
1169.73
1054.48
1047.47
1034.89
1021.76
1008
993.608
978.54
962.748
946.173
928.72
910.273
890.679
869.743
847.224
822.796
796.082
766.606
733.755
696.728
654.276
604.012
541.721
461.093
356.35
235.292
117.021
30.3167
3.09488
0.184966
0.0361892
0.0348308
0.0405868
0.0490202
0.0618009
0.082831
0.121792
0.208163
0.464934
1.75633
0.0365534
0.0101432
0.0345796
0.115549
0.288899
0.602214
1.11896
1.92692
3.15076
4.9689
7.63338
11.4641
16.9248
24.3224
33.8972
45.5171
58.7011
72.8386
87.3873
102.045
116.741
132.13
149.332
169.081
193.205
223.671
262.624
308.562
410.828
847.611
881.173
1167.98
1165.06
1161.5
1156.95
1152.14
1147.09
1143.31
1142.94
1149.08
1159.08
1171.03