/*--------------------------------*- C++ -*----------------------------------*\
| =========                 |                                                 |
| \\      /  F ield         | OpenFOAM: The Open Source CFD Toolbox           |
|  \\    /   O peration     | Version:  v2012                                 |
|   \\  /    A nd           | Website:  www.openfoam.com                      |
|    \\/     M anipulation  |                                                 |
\*---------------------------------------------------------------------------*/
FoamFile
{
    version     2.0;
    format      ascii;
    class       volScalarField;
    location    "2000";
    object      omega;
}
// * * * * * * * * * * * * * * * * * * * * * * * * * * * * * * * * * * * * * //

dimensions      [0 0 -1 0 0 0 0];


internalField   nonuniform List<scalar> 
31383
(
1.83607e+10
1.83838e+10
3.02112e+09
1.84029e+10
3.14531e+09
1.02499e+09
1.84108e+10
3.14872e+09
1.0534e+09
4.78897e+08
1.84133e+10
3.15018e+09
1.05458e+09
4.89372e+08
2.66511e+08
1.84171e+10
3.15071e+09
1.05511e+09
4.89912e+08
2.72201e+08
1.64827e+08
1.84229e+10
3.15144e+09
1.05531e+09
4.90152e+08
2.72451e+08
1.69243e+08
1.09195e+08
1.84265e+10
3.1525e+09
1.05558e+09
4.90246e+08
2.72549e+08
1.69316e+08
1.13606e+08
7.5868e+07
1.84269e+10
3.15317e+09
1.05596e+09
4.90371e+08
2.72577e+08
1.69319e+08
1.13548e+08
8.0811e+07
5.4581e+07
1.84287e+10
3.15329e+09
1.0562e+09
4.90545e+08
2.72628e+08
1.69295e+08
1.13474e+08
8.06463e+07
6.02561e+07
4.03453e+07
1.84347e+10
3.15364e+09
1.05626e+09
4.90658e+08
2.72709e+08
1.69293e+08
1.13402e+08
8.0507e+07
6.0008e+07
4.67281e+07
3.05067e+07
1.84451e+10
3.1547e+09
1.05639e+09
4.90685e+08
2.72759e+08
1.69315e+08
1.13357e+08
8.03928e+07
5.98167e+07
4.64248e+07
3.74054e+07
2.35396e+07
1.84591e+10
3.15652e+09
1.05676e+09
4.90746e+08
2.72763e+08
1.69323e+08
1.13335e+08
8.03092e+07
5.96666e+07
4.61993e+07
3.70787e+07
3.06681e+07
1.8505e+07
1.84753e+10
3.15895e+09
1.05738e+09
4.90917e+08
2.72788e+08
1.69306e+08
1.13308e+08
8.02504e+07
5.95517e+07
4.60242e+07
3.68392e+07
3.03432e+07
2.55652e+07
1.48152e+07
1.84897e+10
3.16174e+09
1.0582e+09
4.91205e+08
2.72874e+08
1.69304e+08
1.1327e+08
8.01938e+07
5.9464e+07
4.58874e+07
3.66537e+07
3.01081e+07
2.5258e+07
2.15468e+07
1.20575e+07
1.85029e+10
3.16424e+09
1.05915e+09
4.91586e+08
2.73025e+08
1.69342e+08
1.13245e+08
8.01359e+07
5.93824e+07
4.57804e+07
3.65066e+07
2.99262e+07
2.50401e+07
2.12632e+07
1.8287e+07
9.93084e+06
1.85142e+10
3.16652e+09
1.05999e+09
4.92024e+08
2.7323e+08
1.69421e+08
1.13249e+08
8.00916e+07
5.93072e+07
4.5681e+07
3.63892e+07
2.97801e+07
2.48717e+07
2.10682e+07
1.80292e+07
1.55794e+07
8.27987e+06
1.85232e+10
3.16847e+09
1.06077e+09
4.92417e+08
2.73466e+08
1.69535e+08
1.13284e+08
8.00697e+07
5.92462e+07
4.5593e+07
3.62815e+07
2.96613e+07
2.47348e+07
2.09174e+07
1.78595e+07
1.53485e+07
1.32944e+07
6.98694e+06
1.85303e+10
3.17003e+09
1.06143e+09
4.92775e+08
2.73678e+08
1.69669e+08
1.13341e+08
8.00717e+07
5.92036e+07
4.55202e+07
3.61873e+07
2.95554e+07
2.46227e+07
2.07934e+07
1.77283e+07
1.52047e+07
1.30891e+07
1.13523e+07
5.98748e+06
1.85356e+10
3.17127e+09
1.06195e+09
4.93081e+08
2.73872e+08
1.69789e+08
1.13414e+08
8.00903e+07
5.91823e+07
4.54626e+07
3.61089e+07
2.94618e+07
2.45246e+07
2.0692e+07
1.76201e+07
1.50939e+07
1.29695e+07
1.11697e+07
9.6993e+06
5.23439e+06
1.85393e+10
3.17219e+09
1.06237e+09
4.93326e+08
2.74037e+08
1.69899e+08
1.13479e+08
8.01219e+07
5.9173e+07
4.54241e+07
3.60429e+07
2.93835e+07
2.44372e+07
2.06049e+07
1.75309e+07
1.50026e+07
1.28773e+07
1.10707e+07
9.53562e+06
8.29379e+06
4.64895e+06
1.85415e+10
3.17282e+09
1.06269e+09
4.93521e+08
2.74168e+08
1.69992e+08
1.13539e+08
8.01502e+07
5.91754e+07
4.53954e+07
3.59936e+07
2.93158e+07
2.43634e+07
2.05266e+07
1.74551e+07
1.49264e+07
1.28015e+07
1.09945e+07
9.45329e+06
8.14575e+06
7.10128e+06
4.17872e+06
1.85427e+10
3.17322e+09
1.0629e+09
4.93667e+08
2.74272e+08
1.70066e+08
1.13589e+08
8.01766e+07
5.91774e+07
4.53774e+07
3.59538e+07
2.92625e+07
2.42998e+07
2.04601e+07
1.73863e+07
1.48613e+07
1.27378e+07
1.0932e+07
9.39025e+06
8.07658e+06
6.96662e+06
6.09176e+06
3.78701e+06
1.85431e+10
3.17344e+09
1.06304e+09
4.93769e+08
2.7435e+08
1.70123e+08
1.13627e+08
8.01974e+07
5.91802e+07
4.53611e+07
3.59232e+07
2.92186e+07
2.42477e+07
2.04035e+07
1.73279e+07
1.48022e+07
1.26833e+07
1.08793e+07
9.33875e+06
8.02409e+06
6.90764e+06
5.96922e+06
5.23862e+06
3.44865e+06
1.85433e+10
3.17352e+09
1.06312e+09
4.93833e+08
2.74403e+08
1.70165e+08
1.13656e+08
8.02117e+07
5.91798e+07
4.53479e+07
3.58955e+07
2.9182e+07
2.42043e+07
2.03556e+07
1.72786e+07
1.4752e+07
1.26337e+07
1.08342e+07
9.29527e+06
7.98144e+06
6.86348e+06
5.91808e+06
5.12782e+06
4.51826e+06
3.14779e+06
1.85435e+10
3.17356e+09
1.06315e+09
4.93868e+08
2.74436e+08
1.70192e+08
1.13675e+08
8.02205e+07
5.91768e+07
4.53327e+07
3.58718e+07
2.9149e+07
2.41671e+07
2.03157e+07
1.72362e+07
1.47098e+07
1.25913e+07
1.07932e+07
9.25799e+06
7.94542e+06
6.82781e+06
5.88043e+06
5.08271e+06
4.41892e+06
3.90988e+06
2.87868e+06
1.85436e+10
3.17361e+09
1.06317e+09
4.93884e+08
2.74453e+08
1.70208e+08
1.13686e+08
8.02239e+07
5.9171e+07
4.53176e+07
3.58473e+07
2.91199e+07
2.41335e+07
2.0281e+07
1.72008e+07
1.46733e+07
1.2556e+07
1.07579e+07
9.2243e+06
7.91446e+06
6.79771e+06
5.85016e+06
5.05009e+06
4.3785e+06
3.81976e+06
3.39482e+06
2.64026e+06
1.85432e+10
3.17363e+09
1.06319e+09
4.93892e+08
2.74459e+08
1.70214e+08
1.13689e+08
8.02221e+07
5.91624e+07
4.53011e+07
3.58248e+07
2.90913e+07
2.41033e+07
2.02496e+07
1.71697e+07
1.46427e+07
1.25254e+07
1.07287e+07
9.19509e+06
7.88662e+06
6.77172e+06
5.82467e+06
5.02401e+06
4.34984e+06
3.78316e+06
3.31083e+06
2.95691e+06
2.42556e+06
1.85424e+10
3.17358e+09
1.0632e+09
4.939e+08
2.74462e+08
1.70214e+08
1.13687e+08
8.02163e+07
5.91513e+07
4.52841e+07
3.58018e+07
2.90652e+07
2.40745e+07
2.0221e+07
1.71415e+07
1.46158e+07
1.24997e+07
1.07034e+07
9.17083e+06
7.86239e+06
6.74846e+06
5.80261e+06
5.00208e+06
4.32706e+06
3.75781e+06
3.27739e+06
2.87709e+06
2.58321e+06
2.23275e+06
1.8541e+10
3.17345e+09
1.06318e+09
4.93905e+08
2.74465e+08
1.70212e+08
1.13682e+08
8.02077e+07
5.91382e+07
4.52661e+07
3.57796e+07
2.90392e+07
2.40478e+07
2.01943e+07
1.71158e+07
1.45913e+07
1.24771e+07
1.06822e+07
9.15005e+06
7.84223e+06
6.72818e+06
5.78288e+06
4.98311e+06
4.30794e+06
3.7378e+06
3.25485e+06
2.84618e+06
2.5063e+06
2.26343e+06
2.05866e+06
1.85389e+10
3.17321e+09
1.06314e+09
4.93898e+08
2.74466e+08
1.7021e+08
1.13676e+08
8.01974e+07
5.9124e+07
4.52477e+07
3.57573e+07
2.90149e+07
2.4022e+07
2.01692e+07
1.70918e+07
1.45689e+07
1.24567e+07
1.06636e+07
9.1327e+06
7.82508e+06
6.7113e+06
5.7657e+06
4.96615e+06
4.29141e+06
3.72103e+06
3.23721e+06
2.82599e+06
2.47742e+06
2.18844e+06
1.98909e+06
1.89556e+06
1.85361e+10
3.17286e+09
1.06306e+09
4.93879e+08
2.7446e+08
1.70208e+08
1.1367e+08
8.0187e+07
5.91094e+07
4.52293e+07
3.57356e+07
2.8991e+07
2.39979e+07
2.01451e+07
1.70692e+07
1.45481e+07
1.24379e+07
1.06468e+07
9.11752e+06
7.81076e+06
6.69697e+06
5.75139e+06
4.95137e+06
4.27665e+06
3.70655e+06
3.22249e+06
2.81038e+06
2.45921e+06
2.16114e+06
1.91521e+06
1.75321e+06
1.73058e+06
1.85325e+10
3.17238e+09
1.06295e+09
4.93843e+08
2.74449e+08
1.70202e+08
1.13664e+08
8.01776e+07
5.90953e+07
4.52113e+07
3.57146e+07
2.89681e+07
2.39745e+07
2.01227e+07
1.70476e+07
1.45284e+07
1.24204e+07
1.06313e+07
9.1037e+06
7.79835e+06
6.68504e+06
5.73924e+06
4.93906e+06
4.26377e+06
3.69365e+06
3.20979e+06
2.7974e+06
2.44531e+06
2.14457e+06
1.88912e+06
1.67978e+06
1.55002e+06
1.56095e+06
1.85284e+10
3.17176e+09
1.06279e+09
4.93789e+08
2.74428e+08
1.70192e+08
1.13656e+08
8.01685e+07
5.90824e+07
4.51943e+07
3.56946e+07
2.89465e+07
2.39523e+07
2.01012e+07
1.70276e+07
1.45097e+07
1.24038e+07
1.06169e+07
9.09102e+06
7.78698e+06
6.67476e+06
5.72914e+06
4.92858e+06
4.25302e+06
3.68238e+06
3.19849e+06
2.78622e+06
2.43381e+06
2.13214e+06
1.87392e+06
1.65456e+06
1.47646e+06
1.37477e+06
1.40825e+06
1.85241e+10
3.17107e+09
1.06258e+09
4.93715e+08
2.74397e+08
1.70177e+08
1.13646e+08
8.01583e+07
5.90703e+07
4.51788e+07
3.5676e+07
2.8926e+07
2.39314e+07
2.00809e+07
1.70085e+07
1.44923e+07
1.23881e+07
1.06031e+07
9.07918e+06
7.77652e+06
6.66529e+06
5.72045e+06
4.91986e+06
4.24385e+06
3.67295e+06
3.18862e+06
2.7763e+06
2.42394e+06
2.12192e+06
1.86273e+06
1.64049e+06
1.45182e+06
1.30052e+06
1.22355e+06
1.27847e+06
1.85197e+10
3.17034e+09
1.06235e+09
4.93621e+08
2.74355e+08
1.70156e+08
1.13633e+08
8.0147e+07
5.90578e+07
4.51643e+07
3.56588e+07
2.8907e+07
2.39118e+07
2.00617e+07
1.69904e+07
1.44757e+07
1.23733e+07
1.05902e+07
9.06787e+06
7.76679e+06
6.65657e+06
5.71242e+06
4.91235e+06
4.2362e+06
3.66489e+06
3.18035e+06
2.76762e+06
2.4152e+06
2.11317e+06
1.85361e+06
1.63034e+06
1.43865e+06
1.27619e+06
1.148e+06
1.09316e+06
1.16919e+06
1.85153e+10
3.16959e+09
1.06211e+09
4.93515e+08
2.74302e+08
1.70128e+08
1.13616e+08
8.01339e+07
5.90449e+07
4.51499e+07
3.56429e+07
2.88895e+07
2.38936e+07
2.00438e+07
1.69733e+07
1.446e+07
1.23593e+07
1.05779e+07
9.05724e+06
7.75745e+06
6.64847e+06
5.70503e+06
4.90541e+06
4.22959e+06
3.65814e+06
3.17325e+06
2.76034e+06
2.40756e+06
2.10545e+06
1.84584e+06
1.62217e+06
1.42939e+06
1.26373e+06
1.12373e+06
1.01558e+06
980899
1.07737e+06
1.85129e+10
3.16884e+09
1.06186e+09
4.93402e+08
2.74242e+08
1.70093e+08
1.13595e+08
8.01184e+07
5.90311e+07
4.51356e+07
3.56274e+07
2.88732e+07
2.38768e+07
2.00272e+07
1.69575e+07
1.44451e+07
1.2346e+07
1.05662e+07
9.04713e+06
7.7487e+06
6.64069e+06
5.69818e+06
4.89902e+06
4.22349e+06
3.6523e+06
3.16731e+06
2.75409e+06
2.40114e+06
2.09871e+06
1.839e+06
1.61524e+06
1.42203e+06
1.25522e+06
1.11182e+06
991156
900464
884245
1.0001e+06
1.84916e+10
3.16844e+09
1.06162e+09
4.93286e+08
2.74179e+08
1.70055e+08
1.1357e+08
8.01004e+07
5.90161e+07
4.51211e+07
3.56124e+07
2.88576e+07
2.38614e+07
2.0012e+07
1.69427e+07
1.44314e+07
1.23335e+07
1.05552e+07
9.03746e+06
7.74033e+06
6.63341e+06
5.6916e+06
4.89311e+06
4.21787e+06
3.6469e+06
3.16215e+06
2.74884e+06
2.39561e+06
2.09303e+06
1.83303e+06
1.60917e+06
1.41583e+06
1.24855e+06
1.10393e+06
979643
875685
800298
800892
935086
1.82019e+10
3.16479e+09
1.06148e+09
4.93172e+08
2.74114e+08
1.70014e+08
1.13542e+08
8.00799e+07
5.89995e+07
4.5106e+07
3.55975e+07
2.88427e+07
2.38466e+07
1.99979e+07
1.69292e+07
1.44186e+07
1.23219e+07
1.05448e+07
9.02829e+06
7.73232e+06
6.62641e+06
5.68544e+06
4.88744e+06
4.21269e+06
3.64193e+06
3.15738e+06
2.74426e+06
2.39096e+06
2.08814e+06
1.828e+06
1.60388e+06
1.41042e+06
1.24298e+06
1.09785e+06
972247
864426
774972
713074
728908
880238
1.79163e+10
2.61157e+09
1.06026e+09
4.93109e+08
2.74049e+08
1.69973e+08
1.13513e+08
8.00579e+07
5.89813e+07
4.509e+07
3.55828e+07
2.88281e+07
2.38325e+07
1.99845e+07
1.69166e+07
1.44069e+07
1.2311e+07
1.05351e+07
9.01968e+06
7.72471e+06
6.61973e+06
5.67951e+06
4.88214e+06
4.20771e+06
3.63737e+06
3.15299e+06
2.74005e+06
2.38691e+06
2.08401e+06
1.82366e+06
1.59941e+06
1.40572e+06
1.23815e+06
1.09282e+06
966661
857427
763839
687029
637088
666634
833402
1.78421e+10
2.90858e+09
9.11214e+08
4.92546e+08
2.74014e+08
1.69931e+08
1.13484e+08
8.00352e+07
5.89624e+07
4.50732e+07
3.55674e+07
2.88138e+07
2.38187e+07
1.99716e+07
1.69047e+07
1.4396e+07
1.23011e+07
1.0526e+07
9.01164e+06
7.71756e+06
6.61337e+06
5.67386e+06
4.87704e+06
4.20308e+06
3.63299e+06
3.14897e+06
2.73616e+06
2.38317e+06
2.08041e+06
1.82e+06
1.59555e+06
1.40174e+06
1.23395e+06
1.08849e+06
962102
852257
757145
675906
610166
570886
612586
792248
1.78658e+10
2.89098e+09
9.42486e+08
4.23314e+08
2.73703e+08
1.69908e+08
1.13454e+08
8.00122e+07
5.89431e+07
4.50561e+07
3.55516e+07
2.87993e+07
2.38054e+07
1.99592e+07
1.68933e+07
1.43856e+07
1.22919e+07
1.05178e+07
9.00417e+06
7.7109e+06
6.60738e+06
5.66849e+06
4.87219e+06
4.19862e+06
3.62892e+06
3.14512e+06
2.73261e+06
2.37973e+06
2.0771e+06
1.8168e+06
1.5923e+06
1.39831e+06
1.23041e+06
1.08473e+06
958201
848096
752317
669431
598942
542940
513225
565355
754245
1.80448e+10
2.89863e+09
9.33506e+08
4.29769e+08
2.34548e+08
1.69717e+08
1.13437e+08
7.99893e+07
5.89238e+07
4.50389e+07
3.55358e+07
2.87846e+07
2.3792e+07
1.99471e+07
1.68824e+07
1.43758e+07
1.22831e+07
1.05101e+07
8.9973e+06
7.70469e+06
6.60181e+06
5.66342e+06
4.86758e+06
4.1944e+06
3.62501e+06
3.14154e+06
2.72921e+06
2.37658e+06
2.07404e+06
1.81385e+06
1.58945e+06
1.39542e+06
1.22735e+06
1.08157e+06
954832
844564
748492
664877
592608
531514
484120
463043
523501
717250
1.81956e+10
2.9417e+09
9.37571e+08
4.22653e+08
2.37639e+08
1.44521e+08
1.1331e+08
7.99755e+07
5.8905e+07
4.50219e+07
3.55201e+07
2.87701e+07
2.37786e+07
1.99352e+07
1.68717e+07
1.43663e+07
1.22748e+07
1.05027e+07
8.99091e+06
7.69898e+06
6.59662e+06
5.6587e+06
4.86323e+06
4.19039e+06
3.62131e+06
3.13811e+06
2.72605e+06
2.37358e+06
2.07126e+06
1.81113e+06
1.58683e+06
1.39288e+06
1.22477e+06
1.07884e+06
951995
841529
745276
661332
588269
525248
472393
432648
419433
485449
680566
1.82977e+10
2.97713e+09
9.57623e+08
4.25028e+08
2.30521e+08
1.47969e+08
9.53273e+07
7.98854e+07
5.88931e+07
4.50053e+07
3.55047e+07
2.87558e+07
2.37655e+07
1.99233e+07
1.68612e+07
1.43571e+07
1.22667e+07
1.04957e+07
8.98482e+06
7.69367e+06
6.59185e+06
5.65432e+06
4.85918e+06
4.18662e+06
3.6178e+06
3.13486e+06
2.72303e+06
2.37079e+06
2.06859e+06
1.80866e+06
1.58441e+06
1.39055e+06
1.22251e+06
1.07653e+06
949551
838979
742529
658388
584954
521068
466129
420528
387612
381635
449477
645698
1.83618e+10
3.0017e+09
9.73951e+08
4.36625e+08
2.31808e+08
1.41087e+08
9.92154e+07
6.58036e+07
5.88251e+07
4.49943e+07
3.54894e+07
2.87418e+07
2.37527e+07
1.99117e+07
1.68508e+07
1.4348e+07
1.22588e+07
1.0489e+07
8.97901e+06
7.6886e+06
6.58741e+06
5.65027e+06
4.85542e+06
4.1831e+06
3.61451e+06
3.13179e+06
2.72018e+06
2.36812e+06
2.06613e+06
1.8063e+06
1.58222e+06
1.38839e+06
1.22043e+06
1.07451e+06
947485
836783
740226
655888
582237
517939
462057
414201
375014
348230
348937
413983
613143
1.83878e+10
3.13308e+09
9.85497e+08
4.46138e+08
2.393e+08
1.4142e+08
9.35627e+07
7.028e+07
4.69087e+07
4.49393e+07
3.54788e+07
2.87279e+07
2.37402e+07
1.99004e+07
1.68406e+07
1.4339e+07
1.22511e+07
1.04824e+07
8.97337e+06
7.68378e+06
6.58317e+06
5.64652e+06
4.85196e+06
4.17984e+06
3.61143e+06
3.12891e+06
2.71749e+06
2.36561e+06
2.06377e+06
1.80412e+06
1.58013e+06
1.38645e+06
1.21851e+06
1.07265e+06
945675
834928
738248
653798
579949
515411
459073
410190
368562
335068
313825
320534
378272
590192
1.84025e+10
3.15402e+09
1.05316e+09
4.52997e+08
2.45684e+08
1.46632e+08
9.28535e+07
6.60973e+07
5.20512e+07
3.43457e+07
3.54313e+07
2.87179e+07
2.37277e+07
1.98893e+07
1.68307e+07
1.43302e+07
1.22435e+07
1.04759e+07
8.96786e+06
7.67907e+06
6.57912e+06
5.64294e+06
4.84874e+06
4.17683e+06
3.60859e+06
3.12623e+06
2.71496e+06
2.36324e+06
2.06155e+06
1.80204e+06
1.57819e+06
1.38459e+06
1.21678e+06
1.07095e+06
944020
833305
736578
652008
578044
513303
456700
407312
364568
328436
300020
283808
295609
343702
579258
1.84089e+10
3.15815e+09
1.05973e+09
4.90441e+08
2.50374e+08
1.51529e+08
9.67155e+07
6.4196e+07
4.92267e+07
4.00285e+07
2.58493e+07
2.86747e+07
2.37187e+07
1.98783e+07
1.68211e+07
1.43216e+07
1.2236e+07
1.04695e+07
8.96246e+06
7.67446e+06
6.57517e+06
5.63952e+06
4.84568e+06
4.17404e+06
3.60596e+06
3.12374e+06
2.71261e+06
2.36102e+06
2.05946e+06
1.80008e+06
1.57635e+06
1.38287e+06
1.21512e+06
1.0694e+06
942496
831824
735121
650499
576417
511553
454740
405062
361762
324415
293151
269284
257674
273455
312341
574336
1.84155e+10
3.16004e+09
1.06185e+09
4.93569e+08
2.73009e+08
1.5513e+08
1.01063e+08
6.72469e+07
4.61785e+07
3.82034e+07
3.17663e+07
2.0047e+07
2.36781e+07
1.98703e+07
1.68116e+07
1.43134e+07
1.22287e+07
1.04632e+07
8.95706e+06
7.66994e+06
6.57131e+06
5.63618e+06
4.84275e+06
4.17138e+06
3.60353e+06
3.12145e+06
2.71043e+06
2.35896e+06
2.05752e+06
1.79824e+06
1.57462e+06
1.38123e+06
1.2136e+06
1.06793e+06
941116
830461
733792
649185
575047
510066
453123
403226
359607
321649
289064
262124
242356
234989
253441
284530
571635
1.84263e+10
3.16197e+09
1.06286e+09
4.94859e+08
2.74829e+08
1.69499e+08
1.04092e+08
7.16048e+07
4.87525e+07
3.43987e+07
3.05681e+07
2.58429e+07
1.60173e+07
1.98316e+07
1.68045e+07
1.43052e+07
1.22217e+07
1.04571e+07
8.9518e+06
7.66542e+06
6.56751e+06
5.63291e+06
4.8399e+06
4.16885e+06
3.60122e+06
3.11933e+06
2.70842e+06
2.35704e+06
2.05569e+06
1.79652e+06
1.57299e+06
1.3797e+06
1.21215e+06
1.06657e+06
939806
829229
732571
647992
573857
508817
451756
401721
357871
319563
286306
257932
234851
218798
215400
234963
259356
569882
1.84306e+10
3.16463e+09
1.06387e+09
4.95477e+08
2.75685e+08
1.70673e+08
1.13256e+08
7.41536e+07
5.32853e+07
3.66987e+07
2.65352e+07
2.50402e+07
2.14048e+07
1.31415e+07
1.67676e+07
1.42991e+07
1.22148e+07
1.04511e+07
8.94668e+06
7.66101e+06
6.56371e+06
5.62969e+06
4.8371e+06
4.16638e+06
3.59901e+06
3.11731e+06
2.70656e+06
2.35528e+06
2.05401e+06
1.79491e+06
1.57147e+06
1.37826e+06
1.21079e+06
1.06529e+06
938598
828061
731468
646895
572781
507735
450610
400455
356456
317904
284264
255155
230517
210895
198229
198477
217403
236424
568666
1.84305e+10
3.16596e+09
1.06514e+09
4.96095e+08
2.76098e+08
1.7127e+08
1.1406e+08
7.98805e+07
5.52262e+07
4.12233e+07
2.8665e+07
2.12027e+07
2.08604e+07
1.79424e+07
1.10214e+07
1.42641e+07
1.22096e+07
1.04453e+07
8.9417e+06
7.65671e+06
6.56e+06
5.62648e+06
4.83435e+06
4.16397e+06
3.59687e+06
3.11538e+06
2.7048e+06
2.35365e+06
2.05247e+06
1.79343e+06
1.57005e+06
1.37692e+06
1.20951e+06
1.06408e+06
937455
826985
730424
645905
571793
506761
449622
399396
355274
316563
282663
253134
227692
206382
189874
180317
183704
200188
215819
567795
1.82008e+10
3.16629e+09
1.06585e+09
4.96843e+08
2.76509e+08
1.71558e+08
1.14489e+08
8.0451e+07
5.88235e+07
4.26032e+07
3.28645e+07
2.31924e+07
1.74857e+07
1.75751e+07
1.51569e+07
9.40778e+06
1.21771e+07
1.0441e+07
8.93675e+06
7.65254e+06
6.55638e+06
5.62333e+06
4.83161e+06
4.1616e+06
3.59478e+06
3.11352e+06
2.70312e+06
2.3521e+06
2.05103e+06
1.79207e+06
1.56874e+06
1.37566e+06
1.20833e+06
1.06295e+06
936384
825967
729464
644971
570903
505869
448735
398488
354290
315451
281379
251571
225671
203482
185145
171458
164776
170573
182941
197546
566997
1.37196e+10
3.12797e+09
1.06613e+09
4.9728e+08
2.76995e+08
1.71844e+08
1.14697e+08
8.07656e+07
5.92369e+07
4.49261e+07
3.38592e+07
2.68303e+07
1.93151e+07
1.47822e+07
1.49183e+07
1.2866e+07
8.14407e+06
1.04111e+07
8.93324e+06
7.64839e+06
6.55287e+06
5.62027e+06
4.82893e+06
4.15924e+06
3.59273e+06
3.1117e+06
2.70149e+06
2.35063e+06
2.04967e+06
1.7908e+06
1.56754e+06
1.37451e+06
1.20722e+06
1.0619e+06
935378
825014
728557
644113
570066
505066
447926
397677
353449
314528
280322
250330
224129
201439
182144
166476
155360
151366
158581
165678
181825
566312
1.00019e+10
2.36065e+09
1.05365e+09
4.97474e+08
2.77287e+08
1.72179e+08
1.14901e+08
8.09166e+07
5.94707e+07
4.5231e+07
3.5405e+07
2.75759e+07
2.22946e+07
1.64069e+07
1.27079e+07
1.27226e+07
1.095e+07
7.12984e+06
8.90595e+06
7.64548e+06
6.54937e+06
5.61731e+06
4.82631e+06
4.15693e+06
3.59069e+06
3.10992e+06
2.69991e+06
2.34921e+06
2.04838e+06
1.78961e+06
1.56643e+06
1.37345e+06
1.2062e+06
1.06092e+06
934445
824121
727709
643303
569296
504313
447199
396940
352703
313744
279449
249315
222916
199903
180060
163348
150085
141328
139801
147241
149026
170119
565842
9.40553e+09
1.72082e+09
7.96211e+08
4.91775e+08
2.77422e+08
1.72383e+08
1.1514e+08
8.10662e+07
5.95819e+07
4.54063e+07
3.5634e+07
2.864e+07
2.28794e+07
1.87513e+07
1.40857e+07
1.1036e+07
1.0875e+07
9.33094e+06
6.29857e+06
7.62085e+06
6.54696e+06
5.61432e+06
4.8238e+06
4.15469e+06
3.58869e+06
3.10815e+06
2.69836e+06
2.34782e+06
2.04714e+06
1.78847e+06
1.56538e+06
1.37246e+06
1.20526e+06
1.06001e+06
933578
823293
726915
642546
568571
503621
446520
396279
352028
313052
278711
248481
221933
198704
178513
161202
146804
135721
129145
129728
136129
133725
163253
565592
9.08251e+09
1.61721e+09
5.80357e+08
3.7199e+08
2.74194e+08
1.72475e+08
1.15287e+08
8.12388e+07
5.96916e+07
4.5489e+07
3.57674e+07
2.88166e+07
2.36409e+07
1.92302e+07
1.58959e+07
1.21467e+07
9.63545e+06
9.30406e+06
7.95817e+06
5.60462e+06
6.52504e+06
5.61231e+06
4.82124e+06
4.15253e+06
3.58675e+06
3.10643e+06
2.69682e+06
2.34647e+06
2.04592e+06
1.78738e+06
1.56437e+06
1.37154e+06
1.20439e+06
1.05918e+06
932775
822523
726178
641839
567895
502971
445896
395663
351423
312429
278065
247781
221128
197741
177317
159629
144578
132259
123165
118624
120768
124929
119697
160682
565548
8.90504e+09
1.56132e+09
5.45045e+08
2.71114e+08
2.0745e+08
1.70301e+08
1.15348e+08
8.13462e+07
5.98188e+07
4.557e+07
3.58296e+07
2.89201e+07
2.37817e+07
1.97964e+07
1.63017e+07
1.35439e+07
1.0498e+07
8.42286e+06
7.96346e+06
6.79577e+06
5.01527e+06
5.59309e+06
4.81953e+06
4.15032e+06
3.58489e+06
3.10474e+06
2.69532e+06
2.34513e+06
2.04473e+06
1.78631e+06
1.56341e+06
1.37065e+06
1.20357e+06
1.05841e+06
932036
821811
725492
641182
567263
502365
445311
395098
350862
311873
277486
247172
220456
196957
176364
158424
142964
129934
119496
112227
109564
112511
113384
106569
159930
565622
8.79108e+09
1.5307e+09
5.26081e+08
2.5446e+08
1.51171e+08
1.28673e+08
1.13637e+08
8.1384e+07
5.9898e+07
4.56644e+07
3.589e+07
2.89678e+07
2.38642e+07
1.99125e+07
1.67361e+07
1.38953e+07
1.15738e+07
9.08199e+06
7.35348e+06
6.81984e+06
5.81481e+06
4.50638e+06
4.80285e+06
4.14886e+06
3.58298e+06
3.10314e+06
2.69385e+06
2.34382e+06
2.04356e+06
1.78528e+06
1.56248e+06
1.36981e+06
1.20279e+06
1.05769e+06
931356
821155
724859
640571
566677
501799
444766
394570
350349
311359
276971
246630
219877
196306
175592
157471
141738
128264
117051
108322
102741
101705
104520
101655
94534.8
159691
565772
8.70589e+09
1.51105e+09
5.15726e+08
2.45546e+08
1.41816e+08
9.37348e+07
8.5519e+07
7.98562e+07
5.99179e+07
4.57233e+07
3.59609e+07
2.90136e+07
2.39017e+07
1.998e+07
1.68345e+07
1.42373e+07
1.18802e+07
9.90436e+06
7.85406e+06
6.41153e+06
5.84653e+06
4.98979e+06
4.05739e+06
4.13447e+06
3.58172e+06
3.10147e+06
2.69246e+06
2.34255e+06
2.04242e+06
1.78425e+06
1.56157e+06
1.36899e+06
1.20204e+06
1.057e+06
930715
820550
724277
640007
566133
501275
444259
394079
349870
310890
276498
246149
219364
195749
174955
156703
140775
127006
115309
105736
98569.3
94565.5
94749.1
96413.8
90449.2
84230.6
159601
566010
8.6349e+09
1.49635e+09
5.09078e+08
2.40693e+08
1.36816e+08
8.79203e+07
6.2254e+07
5.9614e+07
5.84381e+07
4.573e+07
3.60055e+07
2.9068e+07
2.39375e+07
2.00104e+07
1.68909e+07
1.43224e+07
1.21553e+07
1.01703e+07
8.48095e+06
6.78826e+06
5.58843e+06
5.02072e+06
4.2959e+06
3.65114e+06
3.56932e+06
3.10039e+06
2.69101e+06
2.34134e+06
2.04131e+06
1.78325e+06
1.56067e+06
1.36818e+06
1.20132e+06
1.05634e+06
930107
819983
723738
639489
565629
500788
443789
393622
349425
310454
276067
245709
218912
195260
174414
156073
140003
126025
114007
103908
95820.9
90095.6
87531.1
88369.6
88041.6
79813.5
77888.7
159582
566195
8.57697e+09
1.48414e+09
5.04105e+08
2.37576e+08
1.34097e+08
8.48034e+07
5.84153e+07
4.33354e+07
4.30272e+07
4.42498e+07
3.60035e+07
2.91021e+07
2.39801e+07
2.00391e+07
1.69161e+07
1.43704e+07
1.223e+07
1.03938e+07
8.71057e+06
7.26474e+06
5.8673e+06
4.87175e+06
4.32212e+06
3.70997e+06
3.27632e+06
3.08968e+06
2.69007e+06
2.34007e+06
2.04026e+06
1.78227e+06
1.55979e+06
1.3674e+06
1.20061e+06
1.0557e+06
929526
819445
723235
639010
565166
500339
443352
393199
349012
310049
275667
245310
218500
194830
173942
155542
139374
125242
112999
102551
93890.8
87161.2
82776.5
81415.3
82209.8
79224.1
69490.8
75511.4
159609
566308
8.52661e+09
1.4742e+09
4.99989e+08
2.35245e+08
1.32351e+08
8.31064e+07
5.6337e+07
4.07126e+07
3.11923e+07
3.19018e+07
3.45348e+07
2.90956e+07
2.40067e+07
2.00735e+07
1.69395e+07
1.43917e+07
1.22714e+07
1.04598e+07
8.89228e+06
7.46203e+06
6.22734e+06
5.07632e+06
4.24627e+06
3.73159e+06
3.21325e+06
2.92659e+06
2.68083e+06
2.33925e+06
2.03914e+06
1.78136e+06
1.55894e+06
1.36663e+06
1.19992e+06
1.05508e+06
928961
818930
722758
638563
564740
499924
442949
392807
348631
309675
275297
244942
218128
194442
173529
155082
138847
124607
112199
101506
92466.2
85111.8
79630.7
76485.5
75961.2
75845.2
70490.7
59840.3
74931.8
159628
566383
8.48154e+09
1.4655e+09
4.96646e+08
2.33323e+08
1.31046e+08
8.20156e+07
5.51993e+07
3.92646e+07
2.93757e+07
2.30082e+07
2.41843e+07
2.76904e+07
2.39995e+07
2.00948e+07
1.6968e+07
1.44113e+07
1.22899e+07
1.04958e+07
8.95055e+06
7.60977e+06
6.39547e+06
5.34552e+06
4.39965e+06
3.7043e+06
3.23057e+06
2.7908e+06
2.60046e+06
2.33126e+06
2.03843e+06
1.78038e+06
1.55813e+06
1.36588e+06
1.19925e+06
1.05447e+06
928414
818431
722303
638140
564342
499543
442578
392444
348277
309329
274955
244601
217786
194092
173159
154682
138395
124079
111552
100680
91375.2
83606.9
77443.2
73121.2
71055.5
70858.9
69039.6
61894.2
51943.3
74824.6
159639
566445
8.44181e+09
1.45772e+09
4.93704e+08
2.31765e+08
1.29975e+08
8.12036e+07
5.4467e+07
3.84625e+07
2.83389e+07
2.17586e+07
1.72827e+07
1.86988e+07
2.27256e+07
2.00893e+07
1.69853e+07
1.44351e+07
1.23065e+07
1.05118e+07
8.98175e+06
7.66088e+06
6.51553e+06
5.48721e+06
4.5987e+06
3.82117e+06
3.23661e+06
2.80357e+06
2.43034e+06
2.30086e+06
2.03151e+06
1.77975e+06
1.55727e+06
1.36517e+06
1.19859e+06
1.05388e+06
927878
817949
721862
637736
563965
499189
442237
392111
347950
309008
274640
244288
217471
193771
172827
154326
138003
123629
111017
100016
90516.7
82459.9
75844.4
70775.2
67528.5
66277
65774.8
62051.3
53223.1
47246.3
74812.7
159650
566508
8.40644e+09
1.45084e+09
4.91058e+08
2.30388e+08
1.29109e+08
8.05393e+07
5.3925e+07
3.79445e+07
2.77519e+07
2.1006e+07
1.64503e+07
1.31584e+07
1.47281e+07
1.90043e+07
1.69828e+07
1.44497e+07
1.23267e+07
1.0526e+07
8.99548e+06
7.68783e+06
6.56e+06
5.58449e+06
4.71645e+06
3.96741e+06
3.32556e+06
2.83228e+06
2.43861e+06
2.12178e+06
2.03132e+06
1.77375e+06
1.55672e+06
1.36441e+06
1.19796e+06
1.0533e+06
927354
817477
721435
637345
563606
498853
441919
391804
347650
308712
274349
244000
217182
193477
172524
154008
137656
123241
110564
99468.8
89829.1
81561
74630.8
69067.1
65014.2
62713.9
61901
60422.5
55063.2
44727.2
45696.8
74815
159658
566552
8.37497e+09
1.44475e+09
4.88727e+08
2.29144e+08
1.2834e+08
8.00046e+07
5.34843e+07
3.7565e+07
2.73707e+07
2.05644e+07
1.59041e+07
1.26417e+07
1.01168e+07
1.18109e+07
1.61179e+07
1.44509e+07
1.23392e+07
1.05433e+07
9.00777e+06
7.69972e+06
6.58317e+06
5.62279e+06
4.79485e+06
4.06422e+06
3.43215e+06
2.89964e+06
2.48166e+06
2.12578e+06
1.85682e+06
1.79228e+06
1.5515e+06
1.36393e+06
1.1973e+06
1.05275e+06
926842
817014
721019
636967
563260
498534
441620
391520
347373
308440
274079
243733
216916
193208
172248
153719
137348
122900
110176
99008.9
89265.1
80843.6
73683.2
67775.2
63179.4
60066.6
58498.3
57631.8
54681.6
47841.6
37621.5
45355.1
74819.9
159665
566596
8.34663e+09
1.43931e+09
4.8667e+08
2.28049e+08
1.27645e+08
7.95297e+07
5.31316e+07
3.72591e+07
2.70957e+07
2.02752e+07
1.55657e+07
1.22519e+07
9.84069e+06
7.83181e+06
9.63672e+06
1.381e+07
1.23445e+07
1.0554e+07
9.0228e+06
7.71029e+06
6.59349e+06
5.6427e+06
4.82742e+06
4.12697e+06
3.5118e+06
2.97628e+06
2.53283e+06
2.17714e+06
1.85688e+06
1.6286e+06
1.58153e+06
1.35938e+06
1.19687e+06
1.05216e+06
926358
816562
720610
636599
562925
498226
441335
391251
347117
308190
273832
243487
216670
192962
171995
153456
137069
122598
109837
98616.4
88793.6
80257.6
72929.6
66770.4
61795.8
58099.7
55807.8
54664.6
53168.8
48799.7
40291.7
33426.7
45296.8
74822.8
159671
566643
8.3222e+09
1.43445e+09
4.8483e+08
2.27088e+08
1.27033e+08
7.90988e+07
5.28191e+07
3.70165e+07
2.68769e+07
2.0071e+07
1.53411e+07
1.19901e+07
9.57326e+06
7.73362e+06
6.09286e+06
7.99305e+06
1.19198e+07
1.05632e+07
9.03197e+06
7.72331e+06
6.60267e+06
5.65157e+06
4.8445e+06
4.15438e+06
3.56213e+06
3.04201e+06
2.58696e+06
2.21626e+06
1.9122e+06
1.62517e+06
1.43146e+06
1.39587e+06
1.19289e+06
1.05178e+06
925840
816135
720211
636237
562599
497929
441061
390997
346876
307958
273604
243261
216444
192734
171765
153217
136818
122327
109539
98276
88393.1
79770.1
72316.3
65973.7
60724.1
56609.1
53739.4
52077.5
50945
48290.8
42716.5
32975.6
31988.3
45288.9
74824.1
159678
566704
8.30093e+09
1.43024e+09
4.83185e+08
2.26228e+08
1.26499e+08
7.87213e+07
5.25358e+07
3.68032e+07
2.6706e+07
1.99116e+07
1.51872e+07
1.18133e+07
9.37092e+06
7.56379e+06
6.11515e+06
4.76258e+06
6.73085e+06
1.03395e+07
9.04396e+06
7.73113e+06
6.61377e+06
5.65944e+06
4.85201e+06
4.16881e+06
3.58525e+06
3.08265e+06
2.64106e+06
2.25357e+06
1.94246e+06
1.68136e+06
1.425e+06
1.26066e+06
1.23228e+06
1.04829e+06
925502
815677
719833
635884
562279
497639
440796
390752
346647
307741
273395
243053
216236
192525
171553
153000
136590
122083
109273
97977.7
88047.7
79357.8
71808.1
65327.2
59876.7
55459.8
52144.4
49979.7
48676
47054.5
43229.6
36190.4
27472
31676.3
45288.4
74825.7
159688
566769
8.28272e+09
1.42659e+09
4.81762e+08
2.25457e+08
1.26019e+08
7.83921e+07
5.22881e+07
3.66104e+07
2.65577e+07
1.97898e+07
1.50698e+07
1.16963e+07
9.23151e+06
7.40947e+06
6.02275e+06
4.85038e+06
3.74816e+06
5.74639e+06
8.99537e+06
7.7449e+06
6.62022e+06
5.66885e+06
4.85858e+06
4.17519e+06
3.59742e+06
3.10228e+06
2.67392e+06
2.29793e+06
1.96729e+06
1.70515e+06
1.4799e+06
1.25168e+06
1.11226e+06
1.08804e+06
922438
815375
719427
635549
561965
497355
440538
390516
346428
307536
273198
242861
216045
192333
171358
152801
136383
121863
109034
97713.3
87746.8
79004
71380.1
64793.6
59191.1
54553
50905.3
48313.9
46670.3
45354.1
42787.6
37977.5
29365.1
24905.1
31623.7
45289.2
74828.5
159695
566854
8.26724e+09
1.42346e+09
4.80538e+08
2.24793e+08
1.2559e+08
7.80964e+07
5.20727e+07
3.64425e+07
2.64247e+07
1.96868e+07
1.49832e+07
1.161e+07
9.14289e+06
7.30116e+06
5.90813e+06
4.81745e+06
3.85206e+06
2.98128e+06
4.96713e+06
7.83928e+06
6.63483e+06
5.67416e+06
4.86651e+06
4.1807e+06
3.60287e+06
3.1126e+06
2.69061e+06
2.3245e+06
2.00349e+06
1.72082e+06
1.49902e+06
1.30382e+06
1.10127e+06
982967
960824
812674
719156
635190
561668
497077
440286
390287
346217
307339
273012
242682
215870
192156
171179
152617
136194
121664
108819
97476.9
87481.2
78697.2
71014.6
64345.7
58626.8
53821.4
49928.9
46992.7
44998.6
43620
41849.4
38338.1
32214.7
23603.3
24224.9
31616.1
45290.1
74829.2