/*--------------------------------*- C++ -*----------------------------------*\
| =========                 |                                                 |
| \\      /  F ield         | OpenFOAM: The Open Source CFD Toolbox           |
|  \\    /   O peration     | Version:  v2012                                 |
|   \\  /    A nd           | Website:  www.openfoam.com                      |
|    \\/     M anipulation  |                                                 |
\*---------------------------------------------------------------------------*/
FoamFile
{
    version     2.0;
    format      ascii;
    class       volScalarField;
    location    "2000";
    object      p;
}
// * * * * * * * * * * * * * * * * * * * * * * * * * * * * * * * * * * * * * //

dimensions      [1 -1 -2 0 0 0 0];


internalField   nonuniform List<scalar> 
31383
(
23899.9
23870
23899.9
23845.2
23870
23899.9
23835
23845.2
23870
23899.9
23831.7
23835
23845.2
23870
23899.9
23826.7
23831.7
23835
23845.2
23870
23899.9
23819.3
23826.7
23831.7
23835
23845.2
23870
23899.9
23814.6
23819.3
23826.7
23831.7
23835
23845.2
23870
23899.9
23814.1
23814.6
23819.3
23826.7
23831.7
23835
23845.2
23870
23899.9
23811.8
23814.1
23814.6
23819.3
23826.7
23831.7
23835
23845.2
23870
23899.9
23804
23811.8
23814.1
23814.6
23819.3
23826.7
23831.7
23835
23845.2
23870
23899.9
23790.6
23804
23811.8
23814.1
23814.6
23819.3
23826.7
23831.7
23835
23845.2
23870
23899.9
23772.6
23790.6
23804
23811.8
23814.1
23814.6
23819.3
23826.7
23831.7
23835
23845.2
23870
23899.9
23751.8
23772.6
23790.6
23804
23811.8
23814.1
23814.6
23819.3
23826.7
23831.7
23835
23845.2
23870
23900
23733.2
23751.8
23772.6
23790.6
23804
23811.8
23814.1
23814.6
23819.3
23826.7
23831.7
23835
23845.2
23870
23900
23716.3
23733.2
23751.8
23772.6
23790.6
23804
23811.8
23814.1
23814.6
23819.3
23826.7
23831.7
23835
23845.2
23870
23900.1
23701.8
23716.3
23733.2
23751.8
23772.6
23790.6
23804
23811.8
23814.1
23814.6
23819.3
23826.7
23831.7
23835
23845.2
23870
23900.1
23690.3
23701.8
23716.3
23733.2
23751.8
23772.6
23790.6
23804
23811.8
23814.1
23814.6
23819.3
23826.7
23831.7
23835
23845.2
23870
23900.2
23681.2
23690.3
23701.8
23716.3
23733.2
23751.8
23772.6
23790.6
23804
23811.8
23814.1
23814.6
23819.3
23826.7
23831.7
23835
23845.2
23870
23900.3
23674.4
23681.2
23690.3
23701.8
23716.3
23733.2
23751.8
23772.6
23790.6
23804
23811.8
23814.1
23814.6
23819.3
23826.7
23831.7
23835
23845.2
23870
23900.4
23669.8
23674.4
23681.2
23690.3
23701.8
23716.3
23733.2
23751.8
23772.6
23790.6
23804
23811.8
23814.1
23814.6
23819.3
23826.7
23831.7
23835
23845.2
23870.1
23900.5
23666.9
23669.8
23674.4
23681.2
23690.3
23701.8
23716.3
23733.2
23751.8
23772.6
23790.6
23804
23811.8
23814.1
23814.6
23819.3
23826.7
23831.7
23835
23845.2
23870.1
23900.6
23665.4
23666.9
23669.8
23674.4
23681.2
23690.3
23701.8
23716.3
23733.2
23751.8
23772.6
23790.6
23804
23811.8
23814.1
23814.6
23819.3
23826.7
23831.7
23835
23845.2
23870.1
23900.6
23664.8
23665.4
23666.9
23669.8
23674.4
23681.2
23690.3
23701.8
23716.3
23733.2
23751.8
23772.6
23790.6
23804
23811.8
23814.1
23814.6
23819.3
23826.7
23831.7
23835
23845.2
23870.1
23900.7
23664.6
23664.8
23665.4
23666.9
23669.8
23674.4
23681.2
23690.3
23701.8
23716.3
23733.2
23751.8
23772.6
23790.6
23804
23811.8
23814.1
23814.6
23819.3
23826.7
23831.7
23835
23845.2
23870.1
23900.8
23664.4
23664.6
23664.8
23665.4
23666.9
23669.8
23674.4
23681.2
23690.3
23701.8
23716.3
23733.2
23751.8
23772.6
23790.6
23804
23811.8
23814.1
23814.6
23819.3
23826.7
23831.7
23835
23845.2
23870.2
23901
23664.2
23664.4
23664.6
23664.8
23665.4
23666.9
23669.8
23674.4
23681.2
23690.3
23701.8
23716.3
23733.2
23751.8
23772.6
23790.6
23804
23811.8
23814.1
23814.6
23819.3
23826.7
23831.7
23835
23845.2
23870.2
23901.1
23664.7
23664.2
23664.4
23664.6
23664.8
23665.4
23666.9
23669.8
23674.4
23681.2
23690.3
23701.8
23716.3
23733.2
23751.8
23772.6
23790.6
23804
23811.8
23814.1
23814.6
23819.3
23826.7
23831.7
23835
23845.2
23870.3
23901.2
23665.7
23664.7
23664.2
23664.4
23664.6
23664.8
23665.4
23666.9
23669.8
23674.4
23681.2
23690.3
23701.8
23716.3
23733.2
23751.8
23772.6
23790.6
23804
23811.8
23814.1
23814.6
23819.3
23826.7
23831.7
23835
23845.2
23870.3
23901.3
23667.5
23665.7
23664.7
23664.2
23664.4
23664.6
23664.8
23665.4
23666.9
23669.8
23674.4
23681.2
23690.3
23701.8
23716.3
23733.2
23751.8
23772.6
23790.6
23804
23811.8
23814.1
23814.6
23819.3
23826.7
23831.7
23835
23845.2
23870.4
23901.4
23670.2
23667.5
23665.7
23664.7
23664.2
23664.4
23664.6
23664.8
23665.4
23666.9
23669.8
23674.4
23681.2
23690.3
23701.8
23716.3
23733.2
23751.8
23772.6
23790.6
23804
23811.8
23814.1
23814.6
23819.3
23826.8
23831.7
23835
23845.2
23870.4
23901.5
23673.9
23670.2
23667.5
23665.7
23664.7
23664.2
23664.4
23664.6
23664.8
23665.4
23666.9
23669.8
23674.4
23681.2
23690.3
23701.8
23716.3
23733.2
23751.8
23772.6
23790.6
23804
23811.8
23814.1
23814.6
23819.3
23826.8
23831.7
23835
23845.2
23870.5
23901.6
23678.5
23673.9
23670.2
23667.5
23665.7
23664.7
23664.2
23664.4
23664.6
23664.8
23665.4
23666.9
23669.8
23674.4
23681.2
23690.3
23701.8
23716.3
23733.2
23751.8
23772.6
23790.6
23804
23811.8
23814.1
23814.6
23819.3
23826.8
23831.7
23835
23845.2
23870.6
23901.7
23683.7
23678.5
23673.9
23670.2
23667.5
23665.7
23664.7
23664.2
23664.4
23664.6
23664.8
23665.4
23666.9
23669.8
23674.4
23681.2
23690.3
23701.8
23716.3
23733.2
23751.8
23772.6
23790.6
23804
23811.8
23814.1
23814.6
23819.3
23826.8
23831.7
23835
23845.2
23870.8
23901.8
23689.2
23683.7
23678.5
23673.9
23670.2
23667.5
23665.7
23664.7
23664.2
23664.4
23664.6
23664.8
23665.4
23666.9
23669.8
23674.4
23681.2
23690.3
23701.8
23716.3
23733.2
23751.8
23772.6
23790.6
23804
23811.8
23814.1
23814.6
23819.3
23826.8
23831.7
23835
23845.3
23870.9
23901.8
23694.8
23689.2
23683.7
23678.5
23673.9
23670.2
23667.5
23665.7
23664.7
23664.2
23664.4
23664.6
23664.8
23665.4
23666.9
23669.8
23674.4
23681.2
23690.3
23701.8
23716.3
23733.2
23751.8
23772.6
23790.6
23804
23811.8
23814.1
23814.6
23819.3
23826.8
23831.7
23835.1
23845.3
23871.1
23901.9
23700.4
23694.8
23689.2
23683.7
23678.5
23673.9
23670.2
23667.5
23665.7
23664.7
23664.2
23664.4
23664.6
23664.8
23665.4
23666.9
23669.8
23674.4
23681.2
23690.3
23701.8
23716.3
23733.2
23751.8
23772.6
23790.6
23804.1
23811.8
23814.1
23814.6
23819.3
23826.8
23831.7
23835.1
23845.3
23871.3
23901.9
23703.5
23700.4
23694.8
23689.2
23683.7
23678.5
23673.9
23670.2
23667.5
23665.7
23664.7
23664.2
23664.4
23664.6
23664.8
23665.4
23666.9
23669.8
23674.4
23681.2
23690.3
23701.8
23716.3
23733.2
23751.8
23772.6
23790.6
23804.1
23811.8
23814.1
23814.6
23819.3
23826.8
23831.8
23835.1
23845.3
23871.5
23901.9
23730.9
23703.5
23700.4
23694.8
23689.2
23683.7
23678.5
23673.9
23670.2
23667.5
23665.7
23664.7
23664.2
23664.4
23664.6
23664.8
23665.4
23666.9
23669.8
23674.4
23681.2
23690.3
23701.8
23716.3
23733.2
23751.8
23772.6
23790.6
23804.1
23811.8
23814.1
23814.7
23819.3
23826.8
23831.8
23835.1
23845.4
23871.8
23901.9
23747.2
23730.9
23703.5
23700.4
23694.8
23689.2
23683.7
23678.5
23673.9
23670.2
23667.5
23665.7
23664.7
23664.2
23664.4
23664.6
23664.8
23665.4
23666.9
23669.8
23674.4
23681.2
23690.3
23701.8
23716.3
23733.2
23751.8
23772.6
23790.6
23804.1
23811.8
23814.1
23814.7
23819.3
23826.8
23831.8
23835.1
23845.4
23872.1
23901.9
23730
23747.2
23730.9
23703.5
23700.4
23694.8
23689.2
23683.7
23678.5
23673.9
23670.2
23667.5
23665.7
23664.7
23664.2
23664.4
23664.6
23664.8
23665.4
23666.9
23669.8
23674.4
23681.2
23690.3
23701.8
23716.3
23733.2
23751.8
23772.6
23790.6
23804.1
23811.8
23814.1
23814.7
23819.3
23826.8
23831.8
23835.1
23845.5
23872.4
23901.8
23726.9
23730
23747.2
23730.8
23703.5
23700.4
23694.8
23689.2
23683.7
23678.5
23673.9
23670.2
23667.5
23665.7
23664.7
23664.2
23664.4
23664.6
23664.8
23665.4
23666.9
23669.8
23674.4
23681.2
23690.3
23701.8
23716.3
23733.2
23751.8
23772.6
23790.6
23804.1
23811.8
23814.1
23814.7
23819.3
23826.8
23831.8
23835.1
23845.6
23872.7
23901.6
23751.3
23726.9
23730
23747.2
23730.8
23703.5
23700.4
23694.8
23689.2
23683.7
23678.5
23673.9
23670.2
23667.5
23665.7
23664.7
23664.2
23664.4
23664.6
23664.8
23665.4
23666.9
23669.8
23674.4
23681.2
23690.3
23701.8
23716.3
23733.2
23751.8
23772.6
23790.6
23804.1
23811.8
23814.1
23814.7
23819.3
23826.8
23831.8
23835.2
23845.7
23873.1
23901.2
23742.7
23751.3
23726.9
23730
23747.2
23730.8
23703.5
23700.4
23694.8
23689.2
23683.7
23678.5
23673.9
23670.2
23667.5
23665.7
23664.7
23664.2
23664.4
23664.6
23664.8
23665.4
23666.9
23669.8
23674.4
23681.2
23690.3
23701.8
23716.3
23733.2
23751.8
23772.6
23790.6
23804.1
23811.8
23814.1
23814.7
23819.4
23826.8
23831.8
23835.2
23845.8
23873.4
23900
23721.9
23742.7
23751.3
23726.9
23730
23747.2
23730.8
23703.5
23700.4
23694.8
23689.2
23683.7
23678.5
23673.9
23670.2
23667.5
23665.7
23664.7
23664.2
23664.4
23664.6
23664.8
23665.4
23666.9
23669.8
23674.4
23681.2
23690.3
23701.8
23716.3
23733.2
23751.8
23772.6
23790.6
23804.1
23811.8
23814.1
23814.7
23819.4
23826.8
23831.9
23835.2
23845.9
23873.7
23898.9
23719.2
23721.9
23742.7
23751.3
23726.9
23730
23747.2
23730.8
23703.5
23700.4
23694.8
23689.2
23683.7
23678.5
23673.9
23670.2
23667.5
23665.7
23664.7
23664.2
23664.4
23664.6
23664.8
23665.4
23666.9
23669.8
23674.5
23681.2
23690.3
23701.8
23716.3
23733.2
23751.8
23772.6
23790.6
23804.1
23811.8
23814.1
23814.7
23819.4
23826.9
23831.9
23835.3
23846
23873.8
23897.6
23717
23719.2
23721.9
23742.7
23751.3
23726.9
23730
23747.2
23730.8
23703.5
23700.4
23694.8
23689.2
23683.7
23678.5
23673.9
23670.2
23667.5
23665.7
23664.7
23664.2
23664.4
23664.6
23664.8
23665.4
23666.9
23669.8
23674.5
23681.2
23690.3
23701.8
23716.3
23733.2
23751.8
23772.6
23790.6
23804.1
23811.8
23814.2
23814.7
23819.4
23826.9
23831.9
23835.3
23846.2
23874.6
23896.4
23717.2
23717
23719.2
23721.9
23742.7
23751.3
23726.9
23730
23747.2
23730.8
23703.5
23700.4
23694.8
23689.2
23683.7
23678.5
23673.9
23670.2
23667.5
23665.7
23664.7
23664.2
23664.4
23664.6
23664.8
23665.4
23666.9
23669.8
23674.5
23681.2
23690.3
23701.8
23716.3
23733.2
23751.8
23772.6
23790.6
23804.1
23811.8
23814.2
23814.7
23819.4
23826.9
23831.9
23835.4
23846.3
23875.3
23895.6
23718.4
23717.2
23717
23719.2
23721.9
23742.7
23751.3
23726.9
23730
23747.2
23730.8
23703.5
23700.4
23694.8
23689.2
23683.7
23678.5
23673.9
23670.2
23667.5
23665.7
23664.7
23664.2
23664.4
23664.6
23664.9
23665.4
23666.9
23669.8
23674.5
23681.2
23690.3
23701.8
23716.3
23733.2
23751.8
23772.6
23790.6
23804.1
23811.8
23814.2
23814.8
23819.4
23826.9
23832
23835.5
23846.6
23876.3
23894.8
23717.8
23718.4
23717.2
23717
23719.2
23721.9
23742.7
23751.3
23726.9
23730
23747.2
23730.8
23703.5
23700.4
23694.8
23689.2
23683.6
23678.5
23673.9
23670.2
23667.5
23665.7
23664.7
23664.2
23664.4
23664.6
23664.9
23665.4
23666.9
23669.8
23674.5
23681.2
23690.3
23701.8
23716.3
23733.2
23751.8
23772.6
23790.6
23804.1
23811.9
23814.2
23814.8
23819.5
23827
23832
23835.6
23846.8
23876.6
23893.5
23718.4
23717.8
23718.4
23717.2
23717
23719.2
23721.9
23742.7
23751.3
23726.9
23730
23747.2
23730.8
23703.5
23700.4
23694.8
23689.2
23683.6
23678.5
23673.9
23670.2
23667.5
23665.7
23664.7
23664.2
23664.4
23664.6
23664.9
23665.4
23666.9
23669.8
23674.5
23681.2
23690.4
23701.8
23716.3
23733.2
23751.8
23772.6
23790.7
23804.1
23811.9
23814.2
23814.8
23819.5
23827
23832.1
23835.7
23847.1
23876.7
23892.1
23716.4
23718.4
23717.8
23718.4
23717.2
23717
23719.2
23721.9
23742.7
23751.3
23726.9
23730
23747.2
23730.8
23703.5
23700.4
23694.8
23689.2
23683.6
23678.5
23673.9
23670.2
23667.5
23665.7
23664.7
23664.2
23664.4
23664.6
23664.9
23665.4
23666.9
23669.8
23674.5
23681.2
23690.4
23701.8
23716.3
23733.2
23751.8
23772.6
23790.7
23804.1
23811.9
23814.2
23814.8
23819.5
23827.1
23832.2
23835.9
23847.5
23876.6
23890.6
23718.6
23716.4
23718.4
23717.8
23718.4
23717.2
23717
23719.2
23721.9
23742.7
23751.3
23726.9
23730
23747.2
23730.8
23703.5
23700.4
23694.8
23689.2
23683.6
23678.5
23673.9
23670.2
23667.5
23665.7
23664.7
23664.2
23664.4
23664.6
23664.9
23665.4
23667
23669.8
23674.5
23681.2
23690.4
23701.9
23716.3
23733.2
23751.9
23772.6
23790.7
23804.1
23811.9
23814.3
23814.9
23819.6
23827.1
23832.3
23836.1
23848
23876.5
23888.7
23723.2
23718.6
23716.4
23718.4
23717.8
23718.4
23717.2
23717
23719.2
23721.9
23742.7
23751.3
23726.9
23730
23747.2
23730.9
23703.5
23700.4
23694.8
23689.2
23683.6
23678.5
23673.9
23670.2
23667.5
23665.7
23664.7
23664.2
23664.4
23664.6
23664.9
23665.4
23667
23669.8
23674.5
23681.2
23690.4
23701.9
23716.3
23733.2
23751.9
23772.6
23790.7
23804.2
23811.9
23814.3
23814.9
23819.6
23827.2
23832.4
23836.3
23848.5
23876.6
23887.3
24026.2
23723.2
23718.6
23716.4
23718.4
23717.8
23718.4
23717.2
23717
23719.2
23721.9
23742.7
23751.3
23727
23730
23747.2
23730.9
23703.5
23700.4
23694.8
23689.2
23683.6
23678.5
23673.9
23670.2
23667.5
23665.7
23664.7
23664.2
23664.4
23664.6
23664.9
23665.4
23667
23669.8
23674.5
23681.2
23690.4
23701.9
23716.3
23733.3
23751.9
23772.7
23790.7
23804.2
23811.9
23814.3
23814.9
23819.7
23827.3
23832.5
23836.6
23849.1
23876.4
23885.5
31878.4
24026.2
23723.2
23718.6
23716.4
23718.4
23717.8
23718.4
23717.2
23717
23719.2
23721.9
23742.7
23751.3
23727
23730
23747.3
23730.9
23703.5
23700.4
23694.8
23689.2
23683.6
23678.5
23673.9
23670.2
23667.5
23665.7
23664.7
23664.2
23664.4
23664.6
23664.9
23665.4
23667
23669.8
23674.5
23681.2
23690.4
23701.9
23716.3
23733.3
23751.9
23772.7
23790.7
23804.2
23812
23814.4
23815
23819.7
23827.4
23832.7
23837
23849.9
23876.5
23883.6
43731.8
31878.8
24026.3
23723.2
23718.6
23716.4
23718.4
23717.8
23718.4
23717.2
23717
23719.2
23721.9
23742.7
23751.3
23727
23730
23747.3
23730.9
23703.5
23700.4
23694.8
23689.2
23683.6
23678.5
23673.9
23670.2
23667.5
23665.7
23664.7
23664.2
23664.4
23664.6
23664.9
23665.4
23667
23669.8
23674.5
23681.2
23690.4
23701.9
23716.3
23733.3
23751.9
23772.7
23790.7
23804.2
23812
23814.4
23815
23819.8
23827.5
23832.9
23837.4
23850.6
23876.4
23881.6
46505.9
43731.9
31878.5
24026.2
23723.2
23718.6
23716.4
23718.4
23717.8
23718.4
23717.2
23717
23719.2
23721.9
23742.7
23751.3
23727
23730
23747.3
23730.9
23703.5
23700.4
23694.8
23689.2
23683.6
23678.5
23673.9
23670.2
23667.5
23665.7
23664.7
23664.2
23664.4
23664.6
23664.9
23665.4
23667
23669.8
23674.5
23681.2
23690.4
23701.9
23716.3
23733.3
23751.9
23772.7
23790.8
23804.3
23812
23814.4
23815.1
23819.9
23827.6
23833.2
23837.9
23851.3
23876.5
23879.5
48161.6
46506
43731.7
31878.3
24026.3
23723.2
23718.6
23716.4
23718.4
23717.8
23718.4
23717.2
23717
23719.2
23721.9
23742.7
23751.3
23727
23730
23747.3
23730.9
23703.5
23700.4
23694.8
23689.2
23683.7
23678.5
23673.9
23670.2
23667.5
23665.7
23664.7
23664.2
23664.4
23664.6
23664.9
23665.5
23667
23669.8
23674.5
23681.3
23690.4
23701.9
23716.4
23733.3
23751.9
23772.7
23790.8
23804.3
23812.1
23814.5
23815.2
23820
23827.8
23833.5
23838.3
23851.7
23876.9
23877
49123.3
48161.6
46505.9
43731.7
31878.1
24026.2
23723.2
23718.6
23716.4
23718.4
23717.8
23718.4
23717.2
23717
23719.2
23721.9
23742.7
23751.3
23727
23730
23747.3
23730.9
23703.5
23700.4
23694.8
23689.2
23683.7
23678.5
23673.9
23670.2
23667.5
23665.7
23664.7
23664.3
23664.4
23664.6
23664.9
23665.5
23667
23669.9
23674.5
23681.3
23690.4
23701.9
23716.4
23733.3
23752
23772.8
23790.8
23804.3
23812.1
23814.6
23815.3
23820.1
23828
23833.9
23838.8
23851.4
23877
23874.5
49759.4
49123.3
48161.6
46505.9
43731.5
31877.8
24026.2
23723.2
23718.6
23716.4
23718.4
23717.8
23718.4
23717.2
23717
23719.2
23721.9
23742.7
23751.3
23727
23729.9
23747.3
23730.9
23703.5
23700.4
23694.8
23689.2
23683.7
23678.5
23673.9
23670.2
23667.5
23665.7
23664.7
23664.3
23664.4
23664.6
23664.9
23665.5
23667
23669.9
23674.5
23681.3
23690.4
23701.9
23716.4
23733.3
23752
23772.8
23790.9
23804.4
23812.2
23814.6
23815.4
23820.3
23828.2
23834.3
23839.6
23851.3
23877.3
23871.6
50245.1
49759.4
49123.2
48161.6
46505.8
43731.4
31877.5
24026.1
23723.2
23718.6
23716.4
23718.4
23717.8
23718.4
23717.2
23717
23719.2
23721.9
23742.7
23751.3
23727
23729.9
23747.3
23730.9
23703.5
23700.4
23694.8
23689.2
23683.7
23678.5
23673.9
23670.2
23667.5
23665.8
23664.7
23664.3
23664.4
23664.7
23664.9
23665.5
23667
23669.9
23674.5
23681.3
23690.4
23701.9
23716.4
23733.4
23752
23772.8
23790.9
23804.4
23812.3
23814.7
23815.5
23820.5
23828.6
23834.8
23840.3
23851.3
23877
23868.5
50659.7
50245.1
49759.3
49123.2
48161.5
46505.8
43731.2
31877.1
24026
23723.2
23718.6
23716.4
23718.4
23717.8
23718.4
23717.2
23717
23719.2
23721.9
23742.7
23751.4
23727
23729.9
23747.4
23730.9
23703.5
23700.4
23694.8
23689.2
23683.7
23678.5
23673.9
23670.2
23667.5
23665.8
23664.7
23664.3
23664.4
23664.7
23664.9
23665.5
23667
23669.9
23674.5
23681.3
23690.5
23702
23716.4
23733.4
23752
23772.9
23791
23804.5
23812.4
23814.8
23815.6
23820.7
23828.9
23835.3
23841.1
23851.5
23876.8
23864.7
51003.9
50659.7
50245.1
49759.3
49123.2
48161.5
46505.7
43731
31876.9
24025.9
23723.2
23718.6
23716.4
23718.4
23717.8
23718.4
23717.2
23717
23719.2
23721.9
23742.7
23751.4
23727
23729.9
23747.4
23731
23703.5
23700.4
23694.8
23689.2
23683.7
23678.5
23673.9
23670.2
23667.5
23665.8
23664.7
23664.3
23664.4
23664.7
23664.9
23665.5
23667
23669.9
23674.5
23681.3
23690.5
23702
23716.5
23733.4
23752.1
23772.9
23791
23804.6
23812.4
23815
23815.8
23821
23829.3
23835.6
23841.1
23851.9
23876.9
23860.6
51304.6
51003.9
50659.7
50245.1
49759.3
49123.2
48161.5
46505.7
43730.8
31876.6
24025.8
23723.2
23718.6
23716.4
23718.4
23717.8
23718.4
23717.2
23717
23719.2
23721.9
23742.6
23751.4
23727
23729.8
23747.4
23731
23703.5
23700.4
23694.8
23689.2
23683.7
23678.5
23673.9
23670.2
23667.5
23665.8
23664.7
23664.3
23664.4
23664.7
23664.9
23665.5
23667
23669.9
23674.6
23681.3
23690.5
23702
23716.5
23733.5
23752.1
23773
23791.1
23804.7
23812.6
23815.1
23816
23821.3
23829.8
23836.4
23840.9
23852.3
23876.8
23856.1
51573.1
51304.6
51003.9
50659.7
50245.1
49759.3
49123.1
48161.4
46505.6
43730.7
31876
24025.7
23723.2
23718.6
23716.4
23718.4
23717.8
23718.4
23717.2
23717
23719.2
23721.9
23742.6
23751.4
23727
23729.8
23747.4
23731
23703.5
23700.4
23694.8
23689.2
23683.7
23678.5
23673.9
23670.2
23667.5
23665.8
23664.7
23664.3
23664.4
23664.7
23664.9
23665.5
23667
23669.9
23674.6
23681.3
23690.5
23702
23716.5
23733.5
23752.2
23773
23791.2
23804.8
23812.7
23815.3
23816.3
23821.7
23830.3
23837.1
23840.2
23852.7
23876.8
23851
51814.3
51573.1
51304.6
51003.9
50659.6
50245.1
49759.3
49123.1
48161.3
46505.5
43730.4
31875.4
24025.6
23723.2
23718.6
23716.4
23718.4
23717.8
23718.4
23717.2
23717
23719.2
23721.9
23742.6
23751.4
23727
23729.8
23747.5
23731
23703.5
23700.4
23694.8
23689.2
23683.7
23678.5
23673.9
23670.2
23667.6
23665.8
23664.8
23664.3
23664.4
23664.7
23664.9
23665.5
23667
23669.9
23674.6
23681.4
23690.5
23702.1
23716.6
23733.6
23752.2
23773.1
23791.2
23804.9
23812.8
23815.5
23816.6
23822.1
23830.7
23837.9
23840.3
23853.1
23876.8
23845.3
52032.3
51814.3
51573.1
51304.6
51003.9
50659.6
50245.1
49759.3
49123.1
48161.3
46505.4
43730.2
31874.9
24025.5
23723.2
23718.6
23716.4
23718.4
23717.8
23718.4
23717.2
23717
23719.2
23721.9
23742.6
23751.4
23727
23729.8
23747.5
23731
23703.5
23700.4
23694.8
23689.2
23683.7
23678.5
23673.9
23670.2
23667.6
23665.8
23664.8
23664.3
23664.4
23664.7
23664.9
23665.5
23667.1
23669.9
23674.6
23681.4
23690.6
23702.1
23716.6
23733.6
23752.3
23773.2
23791.3
23805
23813
23815.7
23816.9
23822.6
23831.1
23837.5
23840.3
23853.6
23876.8
23839.1
52227.5
52032.3
51814.3
51573
51304.6
51003.9
50659.6
50245
49759.2
49123
48161.2
46505.3
43729.9
31874.3
24025.3
23723.2
23718.6
23716.4
23718.4
23717.8
23718.4
23717.2
23717
23719.2
23721.8
23742.6
23751.4
23727
23729.7
23747.5
23731
23703.5
23700.4
23694.8
23689.2
23683.7
23678.5
23673.9
23670.2
23667.6
23665.8
23664.8
23664.3
23664.4
23664.7
23664.9
23665.5
23667.1
23670
23674.6
23681.4
23690.6
23702.2
23716.7
23733.7
23752.4
23773.3
23791.5
23805.2
23813.2
23816
23817.4
23823
23832.1
23836.9
23840.6
23854.2
23876.7
23832
52402.3
52227.5
52032.3
51814.3
51573
51304.6
51003.9
50659.6
50245
49759.2
49123
48161.1
46505.2
43729.7
31873.5
24025.2
23723.2
23718.6
23716.4
23718.4
23717.8
23718.4
23717.2
23717
23719.2
23721.8
23742.6
23751.5
23727
23729.7
23747.6
23731
23703.5
23700.4
23694.8
23689.2
23683.7
23678.5
23673.9
23670.2
23667.6
23665.8
23664.8
23664.3
23664.4
23664.7
23665
23665.6
23667.1
23670
23674.7
23681.5
23690.7
23702.2
23716.7
23733.8
23752.5
23773.4
23791.6
23805.3
23813.5
23816.4
23817.8
23823.4
23832.8
23836.7
23840.7
23854.7
23876.6
23824.7
52556.4
52402.3
52227.5
52032.2
51814.3
51573
51304.6
51003.8
50659.6
50245
49759.1
49122.9
48161.1
46505.1
43729.5
31872.9
24025
23723.2
23718.6
23716.4
23718.4
23717.8
23718.4
23717.2
23717
23719.2
23721.8
23742.6
23751.5
23727
23729.7
23747.6
23731.1
23703.5
23700.4
23694.8
23689.2
23683.7
23678.5
23673.9
23670.3
23667.6
23665.8
23664.8
23664.3
23664.4
23664.7
23665
23665.6
23667.1
23670
23674.7
23681.5
23690.7
23702.3
23716.8
23733.8
23752.6
23773.5
23791.8
23805.5
23813.7
23816.8
23818.4
23824
23832.5
23836.8
23841
23855.4
23876.5
23816.8
52691.6
52556.4
52402.3
52227.5
52032.2
51814.3
51573
51304.5
51003.8
50659.6
50245
49759.1
49122.8
48161
46505
43729.1
31872.1
24024.9
23723.2
23718.6
23716.4
23718.5
23717.8
23718.4
23717.2
23717
23719.2
23721.8
23742.6
23751.5
23727
23729.7
23747.7
23731.1
23703.5
23700.4
23694.8
23689.2
23683.7
23678.5
23673.9
23670.3
23667.6
23665.8
23664.8
23664.3
23664.5
23664.7
23665
23665.6
23667.1
23670.1
23674.7
23681.6
23690.8
23702.3
23716.9
23733.9
23752.7
23773.7
23792
23805.8
23814.1
23817.2
23818.6
23825.2
23831.3
23836.9
23841.2
23856
23876.3
23808
52808.5
52691.5
52556.4
52402.3
52227.4
52032.2
51814.2
51573
51304.5
51003.8
50659.5
50244.9
49759.1
49122.8
48160.8
46504.9
43728.9
31871.4
24024.7
23723.2
23718.6
23716.4
23718.5
23717.8
23718.4
23717.2
23717
23719.2
23721.8
23742.6
23751.5
23727
23729.6
23747.7
23731.1
23703.5
23700.4
23694.8
23689.2
23683.7
23678.5
23673.9
23670.3
23667.6
23665.8
23664.8
23664.3
23664.5
23664.8
23665
23665.6
23667.2
23670.1
23674.8
23681.6
23690.8
23702.4
23717
23734.1
23752.8
23773.8
23792.2
23806.1
23814.5
23817.8
23819.1
23825.5
23831.4
23837
23841.5
23856.8
23876
23798.3
52908.4
52808.5
52691.5
52556.3
52402.3
52227.4
52032.2
51814.2
51573
51304.5
51003.8
50659.5
50244.9
49759
49122.7
48160.8
46504.7
43728.7
31870.5
24024.5
23723.2
23718.6
23716.4
23718.5
23717.8
23718.4
23717.2
23717
23719.2
23721.8
23742.6
23751.5
23726.9
23729.6
23747.7
23731.1
23703.5
23700.4
23694.8
23689.2
23683.7
23678.5
23673.9
23670.3
23667.6
23665.8
23664.8
23664.3
23664.5
23664.8
23665
23665.7
23667.2
23670.1
23674.8
23681.7
23690.9
23702.5
23717.1
23734.2
23753
23774
23792.4
23806.4
23814.9
23818
23820.3
23824.1
23831.4
23837.2
23841.9
23857.6
23875.6
23787.6
52993.2
52908.4
52808.5
52691.5
52556.3
52402.2
52227.4
52032.2
51814.2
51572.9
51304.5
51003.7
50659.5
50244.9
49759
49122.6
48160.6
46504.5
43728.5
31869.6
24024.3
23723.2
23718.6
23716.4
23718.5
23717.8
23718.4
23717.2
23717
23719.2
23721.8
23742.6
23751.5
23726.9
23729.7
23747.7
23731.2
23703.5
23700.4
23694.8
23689.2
23683.7
23678.5
23673.9
23670.3
23667.6
23665.8
23664.8
23664.4
23664.5
23664.8
23665.1
23665.7
23667.3
23670.2
23674.9
23681.7
23691
23702.6
23717.2
23734.3
23753.2
23774.3
23792.7
23806.8
23815.4
23818.3
23820.9
23824
23831.5
23837.4
23842.3
23858.4
23875.1
23775.6
53064.8
52993.1
52908.4
52808.5
52691.5
52556.3
52402.2
52227.4
52032.1
51814.2
51572.9
51304.5
51003.7
50659.4
50244.8
49758.9
49122.5
48160.5
46504.3
43728.4
31868.2
24024
23723.2
23718.6
23716.4
23718.5
23717.8
23718.4
23717.2
23717
23719.2
23721.8
23742.6
23751.6
23726.9
23729.7
23747.8
23731.2
23703.5
23700.5
23694.8
23689.2
23683.7
23678.5
23673.9
23670.3
23667.6
23665.8
23664.8
23664.4
23664.5
23664.8
23665.1
23665.7
23667.3
23670.2
23675
23681.8
23691.1
23702.7
23717.4
23734.5
23753.4
23774.5
23793.1
23807.2
23815.6
23819.7
23819.6
23824
23831.6
23837.6
23842.8
23859.3
23874.4
23762.4
53125.4
53064.8
52993.1
52908.4
52808.4
52691.5
52556.3
52402.2
52227.4
52032.1
51814.2
51572.9
51304.4
51003.7
50659.4
50244.8
49758.9
49122.4
48160.4
46504.2
43728.7
31867
24023.7
23723.2
23718.6
23716.4
23718.5
23717.8
23718.4
23717.2
23717
23719.2
23721.8
23742.6
23751.6
23726.9
23729.7
23747.8
23731.2
23703.5
23700.5
23694.8
23689.2
23683.7
23678.5
23673.9
23670.3
23667.6
23665.9
23664.9
23664.4
23664.6
23664.9
23665.1
23665.8
23667.4
23670.3
23675
23681.9
23691.2
23702.9
23717.5
23734.7
23753.7
23774.8
23793.4
23807.7
23815.7
23820.4
23819.4
23824.2
23831.7
23837.9
23843.4
23860.3
23873.5
23747.3
53177
53125.4
53064.8
52993.1
52908.3
52808.4
52691.5
52556.3
52402.2
52227.3
52032.1
51814.1
51572.9
51304.4
51003.7
50659.4
50244.7
49758.8
49122.3
48160.2
46504
43727.5
31865.8
24023.5
23723.2
23718.6
23716.4
23718.5
23717.8
23718.4
23717.2
23717
23719.1
23721.7
23742.6
23751.6
23726.8
23729.7
23747.8
23731.3
23703.5
23700.5
23694.9
23689.2
23683.7
23678.5
23673.9
23670.3
23667.6
23665.9
23664.9
23664.4
23664.6
23664.9
23665.2
23665.8
23667.4
23670.4
23675.1
23682
23691.3
23703
23717.7
23735
23753.9
23775.2
23793.9
23807.9
23817.6
23818.7
23819.5
23824.3
23831.8
23838.1
23844.1
23861.2
23872.2
23730.9
53221.8
53177
53125.4
53064.8
52993.1
52908.3
52808.4
52691.4
52556.2
52402.1
52227.3
52032.1
51814.1
51572.8
51304.4
51003.6
50659.3
50244.7
49758.7
49122.2
48160.1
46503.9
43727.1
31864.2
24023.1
23723.2
23718.7
23716.4
23718.5
23717.8
23718.4
23717.2
23716.9
23719.1
23721.7
23742.6
23751.6
23726.8
23729.8
23747.8
23731.3
23703.5
23700.5
23694.9
23689.2
23683.7
23678.6
23674
23670.3
23667.7
23665.9
23664.9
23664.5
23664.6
23664.9
23665.2
23665.9
23667.5
23670.5
23675.2
23682.2
23691.5
23703.2
23717.9
23735.2
23754.3
23775.5
23794.2
23808.2
23817.4
23818.7
23819.7
23824.5
23832
23838.4
23844.9
23862.1
23870.3
23713.2
53261.7
53221.8
53177
53125.4
53064.8
52993.1
52908.3
52808.4
52691.4
52556.2
52402.1
52227.3
52032
51814.1
51572.8
51304.3
51003.6
50659.3
50244.6
49758.6
49122
48159.9
46503.9
43727
31863.1
24022.6
23723.2
23718.7
23716.4
23718.5
23717.8
23718.4
23717.2
23716.9
23719.1
23721.7
23742.7
23751.6
23726.7
23729.8
23747.8
23731.4
23703.5
23700.5
23694.9
23689.2
23683.7
23678.6
23674
23670.3
23667.7
23665.9
23664.9
23664.5
23664.7
23665
23665.3
23666
23667.6
23670.6
23675.4
23682.3
23691.7
23703.4
23718.2
23735.5
23754.6
23776.1
23794.4
23810.1
23815.8
23818.7
23820
23824.7
23832.1
23838.8
23845.8
23862.9
23867.5
23694.3
53298.5
53261.7
53221.8
53177
53125.4
53064.8
52993.1
52908.3
52808.4
52691.4
52556.2
52402.1
52227.2
52032
51814
51572.8
51304.3
51003.5
50659.2
50244.5
49758.5
49121.9
48159.7
46503.6
43726.2
31861.1
24022.1
23723.1
23718.7
23716.4
23718.5
23717.8
23718.4
23717.2
23716.9
23719.1
23721.7
23742.7
23751.6
23726.7
23729.9
23747.7
23731.4
23703.6
23700.5
23694.9
23689.2
23683.8
23678.6
23674
23670.4
23667.7
23666
23665
23664.5
23664.7
23665.1
23665.4
23666
23667.7
23670.7
23675.5
23682.5
23691.9
23703.7
23718.5
23735.9
23755.1
23776.2
23795.5
23808.8
23815.6
23818.9
23820.3
23824.9
23832.2
23839.2
23847
23863.7
23864
23674.4
53332.5
53298.4
53261.7
53221.8
53177
53125.4
53064.7
52993.1
52908.3
52808.3
52691.3
52556.1
52402
52227.2
52031.9
51814
51572.7
51304.3
51003.5
50659.2
50244.5
49758.4
49121.7
48159.4
46503.3
43726.2
31859.3
24021.5
23723.1
23718.7
23716.4
23718.5
23717.8
23718.4
23717.2
23716.9
23719.1
23721.7
23742.7
23751.6
23726.6
23730.1
23747.7
23731.5
23703.6
23700.5
23694.9
23689.3
23683.8
23678.6
23674
23670.4
23667.7
23666
23665
23664.6
23664.8
23665.1
23665.4
23666.1
23667.8
23670.8
23675.7
23682.6
23692.1
23703.9
23718.8
23736.3
23755.5
23776.3
23796.4
23808.1
23815.6
23819.1
23820.6
23825.2
23832.4
23839.6
23848.4
23863.9
23858.2
23653.9
53367.3
53332.5
53298.4
53261.7
53221.8
53177
53125.3
53064.7
52993
52908.2
52808.3
52691.3
52556.1
52402
52227.1
52031.9
51813.9
51572.7
51304.2
51003.4
50659.1
50244.4
49758.3
49121.5
48159.2
46503
43726.1
31857.2
24021.1
23723.1
23718.7
23716.4
23718.5
23717.8
23718.4
23717.2
23716.9
23719.1
23721.7
23742.8
23751.6
23726.6
23730.3
23747.7
23731.5
23703.6
23700.5
23694.9
23689.3
23683.8
23678.6
23674
23670.4
23667.8
23666
23665.1
23664.6
23664.8
23665.2
23665.5
23666.2
23667.9
23671
23675.8
23682.9
23692.4
23704.3
23719.2
23736.8
23755.7
23778.4
23794.6
23807.6
23815.7
23819.3
23821
23825.5
23832.6
23840.2
23850.1
23863.9
23851.6
23633.2
53402.7
53367.3
53332.5
53298.4
53261.7
53221.7
53177
53125.3
53064.7
52993
52908.2
52808.3
52691.3
52556
52402
52227.1
52031.9
51813.9
51572.7
51304.2
51003.4
50659
50244.3
49758.2
49121.3
48158.9
46502.8
43726.1
31854.4
24020.4
23723.1
23718.7
23716.4
23718.5
23717.8
23718.4
23717.2
23716.9
23719.1
23721.7
23742.8
23751.5
23726.5
23730.5
23747.6
23731.4
23703.6
23700.5
23694.9
23689.3
23683.8
23678.6
23674.1
23670.5
23667.8
23666.1
23665.1
23664.7
23664.9
23665.3
23665.6
23666.4
23668.1
23671.2
23676.1
23683.1
23692.7
23704.6
23719.6
23737.1
23756.6
23777.6
23794.1
23807.8
23815.7
23819.5
23821.5
23825.8
23832.7
23840.8
23851.9
23863.8
23841.8
23612.9
53439.5
53402.6
53367.3
53332.5
53298.4
53261.7
53221.7
53177
53125.3
53064.7
52993
52908.2
52808.2
52691.2
52556
52401.9
52227
52031.8
51813.8
51572.6
51304.1
51003.3
50659
50244.2
49758
49121.1
48158.6
46502.6
43726.1
31851.2
24019.8
23723.1
23718.7
23716.4
23718.5
23717.8
23718.4
23717.2
23716.9
23719
23721.7
23742.9
23751.5
23726.4
23730.8
23747.5
23731.4
23703.6
23700.5
23694.9
23689.3
23683.8
23678.7
23674.1
23670.5
23667.9
23666.1
23665.2
23664.8
23665
23665.4
23665.8
23666.5
23668.2
23671.4
23676.3
23683.4
23693
23705
23720
23737.2
23758
23776.1
23794.1
23807.7
23815.7
23819.7
23822
23826.2
23832.9
23841.6
23853.9
23863.7
23829
23593.8
53478.4
53439.4
53402.6
53367.3
53332.5
53298.4
53261.7
53221.7
53176.9
53125.3
53064.6
52993
52908.1
52808.2
52691.2
52556
52401.9
52227
52031.8
51813.8
51572.6
51304.1
51003.3
50658.9
50244.1
49757.9
49120.8
48158.3
46502.4
43726.3
31847.4
24019.1
23723
23718.7
23716.4
23718.5
23717.8
23718.4
23717.2
23716.9
23719
23721.7
23743
23751.5
23726.4
23731.1
23747.4
23731.4
23703.6
23700.6
23695
23689.3
23683.9
23678.7
23674.1
23670.5
23667.9
23666.2
23665.3
23664.9
23665.1
23665.5
23665.9
23666.7
23668.4
23671.6
23676.6
23683.7