/*--------------------------------*- C++ -*----------------------------------*\
| =========                 |                                                 |
| \\      /  F ield         | OpenFOAM: The Open Source CFD Toolbox           |
|  \\    /   O peration     | Version:  v2012                                 |
|   \\  /    A nd           | Website:  www.openfoam.com                      |
|    \\/     M anipulation  |                                                 |
\*---------------------------------------------------------------------------*/
FoamFile
{
    version     2.0;
    format      ascii;
    class       volScalarField;
    location    "2000";
    object      q3;
}
// * * * * * * * * * * * * * * * * * * * * * * * * * * * * * * * * * * * * * //

dimensions      [0 0 0 0 0 0 0];


internalField   nonuniform List<scalar> 
31383
(
0.000155633
0.000163986
0.000189275
0.000157926
0.000281462
0.000252607
0.000153327
0.00026971
0.000947615
0.000519899
0.000149906
0.000260743
0.000904336
0.00255162
0.00105871
0.000147087
0.000254077
0.000871178
0.00243448
0.0054558
0.0019457
0.000144655
0.000248594
0.000846526
0.00234363
0.00520349
0.0101387
0.00330191
0.000142588
0.000243889
0.000826271
0.00227657
0.00500898
0.00966683
0.0171705
0.00529627
0.000140835
0.000239878
0.000808937
0.00222149
0.00486498
0.00930612
0.0163771
0.0271383
0.0081583
0.000139282
0.000236475
0.000794133
0.00217437
0.00474712
0.00903855
0.0157681
0.0259096
0.040477
0.0121951
0.000137881
0.00023348
0.000781558
0.00213411
0.00464549
0.0088182
0.0153158
0.0249665
0.0386693
0.0568007
0.0178021
0.000136574
0.000230776
0.000770541
0.00209992
0.00455906
0.00862935
0.0149439
0.0242629
0.0373242
0.0544971
0.074833
0.0254752
0.000135363
0.000228257
0.000760588
0.00206997
0.00448566
0.00846845
0.0146263
0.0236839
0.0363164
0.0527609
0.0723
0.0926695
0.0356293
0.000134238
0.000225927
0.00075132
0.00204293
0.00442139
0.00833219
0.014354
0.0231875
0.0354854
0.0514515
0.0703528
0.0901221
0.108214
0.0486121
0.00013322
0.000223763
0.000742755
0.00201775
0.00436337
0.00821214
0.0141236
0.0227632
0.0347715
0.0503646
0.0687846
0.0880983
0.105911
0.120356
0.0641995
0.000132296
0.000221813
0.0007348
0.00199449
0.00430934
0.00810413
0.0139212
0.0224029
0.0341589
0.0494658
0.0675136
0.0865382
0.104083
0.118389
0.129888
0.0811866
0.000131472
0.000220046
0.000727657
0.00197289
0.00425946
0.00800358
0.0137384
0.0220866
0.0336378
0.0486199
0.0664448
0.0852227
0.10266
0.116885
0.127946
0.136837
0.0979651
0.00013073
0.000218469
0.000721188
0.00195349
0.00421313
0.00791077
0.0135687
0.0218011
0.0331795
0.0479303
0.065456
0.0840742
0.101472
0.115703
0.12655
0.135099
0.140827
0.112659
0.000130068
0.000217056
0.000715412
0.00193594
0.0041717
0.00782479
0.0134116
0.0215352
0.0327659
0.0473232
0.0646361
0.0830976
0.100386
0.114707
0.125458
0.134028
0.13931
0.142236
0.124303
0.000129471
0.00021579
0.000710247
0.00192026
0.00413389
0.00774734
0.0132661
0.0212896
0.0324035
0.0467731
0.0639348
0.0822081
0.0994747
0.113816
0.124531
0.133187
0.138558
0.140875
0.141707
0.133104
0.000128938
0.000214656
0.000705611
0.00190623
0.00410028
0.00767713
0.0131351
0.0210614
0.0320231
0.0462809
0.0632522
0.0814601
0.0986455
0.113022
0.123755
0.132458
0.137969
0.14043
0.140383
0.139791
0.141009
0.000128461
0.000213644
0.000701479
0.00189364
0.0040702
0.00761454
0.0130169
0.0208566
0.0316915
0.0457834
0.0626352
0.0807391
0.0979391
0.11235
0.12315
0.131827
0.137464
0.140054
0.140145
0.138379
0.136981
0.149894
0.000128035
0.000212739
0.000697787
0.00188251
0.00404321
0.00755865
0.012911
0.0206712
0.0313935
0.0453406
0.0620628
0.0800804
0.0972624
0.111738
0.122616
0.131287
0.13702
0.139737
0.139946
0.138295
0.135369
0.133687
0.158058
0.000127651
0.000211929
0.000694487
0.00187241
0.00401926
0.00750844
0.0128163
0.0205054
0.0311233
0.0449416
0.0615286
0.0794817
0.0966389
0.111166
0.12214
0.13081
0.136626
0.139462
0.139788
0.138234
0.135392
0.131798
0.130254
0.165163
0.000127301
0.000211201
0.000691529
0.00186345
0.00399767
0.00746366
0.0127314
0.0203568
0.0308818
0.0445932
0.0610456
0.0788936
0.0960682
0.110645
0.121695
0.130387
0.136276
0.139218
0.139656
0.138194
0.135422
0.131861
0.128033
0.126913
0.171399
0.000126978
0.000210537
0.000688877
0.00185542
0.00397845
0.00742377
0.0126558
0.0202237
0.0306653
0.0442546
0.0606183
0.0783732
0.0955193
0.110141
0.121288
0.130007
0.135968
0.138999
0.139536
0.138167
0.135466
0.131949
0.128091
0.124524
0.123912
0.177111
0.000126682
0.000209925
0.000686459
0.00184823
0.00396125
0.00738791
0.0125881
0.0201048
0.0304707
0.0439638
0.0602116
0.0778984
0.095012
0.10968
0.1209
0.129639
0.135687
0.138807
0.139428
0.138145
0.135516
0.132047
0.128209
0.124543
0.12195
0.121586
0.182629
0.000126411
0.000209364
0.000684227
0.00184166
0.00394583
0.00735591
0.0125276
0.0199986
0.0302972
0.043702
0.0598664
0.0774708
0.0945565
0.109246
0.120528
0.129296
0.13543
0.138629
0.139328
0.138124
0.135561
0.132151
0.128332
0.124637
0.121877
0.119597
0.119771
0.188508
0.000126162
0.000208851
0.000682185
0.0018356
0.00393174
0.00732718
0.0124734
0.0199036
0.0301419
0.0434681
0.059537
0.0770934
0.0941453
0.108861
0.120194
0.128973
0.135181
0.13847
0.139246
0.138103
0.135604
0.132236
0.128456
0.124754
0.121907
0.119461
0.117423
0.118225
0.195709
0.000125935
0.000208382
0.00068032
0.00183007
0.00391876
0.00730097
0.0124247
0.0198185
0.030003
0.0432586
0.0592508
0.0767369
0.0937735
0.1085
0.119886
0.128676
0.134945
0.138318
0.139166
0.138087
0.135639
0.132312
0.12856
0.124871
0.121966
0.119468
0.117206
0.115446
0.116966
0.205734
0.000125728
0.000207953
0.000678612
0.001825
0.00390688
0.0072768
0.0123804
0.0197421
0.0298785
0.0430709
0.0589946
0.0764307
0.0934417
0.108178
0.119605
0.128405
0.134729
0.13817
0.139099
0.138081
0.13567
0.132388
0.128651
0.124972
0.122037
0.119516
0.117182
0.115127
0.113673
0.11601
0.219344
0.000125542
0.000207563
0.000677054
0.00182037
0.00389601
0.00725469
0.0123395
0.0196724
0.0297665
0.0429027
0.0587642
0.0761431
0.0931379
0.107889
0.11935
0.128153
0.134531
0.138043
0.139033
0.138073
0.135715
0.132454
0.128747
0.125066
0.122103
0.119579
0.117213
0.115064
0.113232
0.11211
0.115376
0.231268
0.000125374
0.000207213
0.000675645
0.00181614
0.0038861
0.00723447
0.012302
0.0196082
0.0296644
0.0427513
0.0585574
0.0758907
0.0928596
0.107625
0.11912
0.127929
0.134349
0.137916
0.13897
0.138065
0.135747
0.13252
0.128832
0.12515
0.122159
0.119638
0.117264
0.115075
0.113122
0.111522
0.11076
0.115088
0.22936
0.000125222
0.000206898
0.000674377
0.00181231
0.003877
0.00721596
0.0122678
0.0195493
0.0295702
0.0426131
0.0583713
0.0756635
0.0926133
0.107383
0.11891
0.127721
0.134181
0.137805
0.138911
0.13805
0.135783
0.132589
0.128917
0.125243
0.122216
0.11969
0.117315
0.115111
0.113106
0.111356
0.109993
0.109627
0.115175
0.232691
0.000125081
0.000206612
0.000673234
0.00180887
0.00386881
0.00719907
0.0122365
0.0194954
0.029484
0.0424854
0.0582012
0.0754589
0.0923916
0.107168
0.118716
0.127534
0.13403
0.137696
0.138853
0.138044
0.135818
0.132658
0.129004
0.125332
0.122276
0.119744
0.117359
0.11515
0.113125
0.11131
0.109762
0.108647
0.108714
0.115682
0.250191
0.000124951
0.000206347
0.000672194
0.00180577
0.0038614
0.00718381
0.0122079
0.0194461
0.0294051
0.0423687
0.058044
0.0752714
0.0921913
0.106973
0.118544
0.127362
0.133891
0.137602
0.138805
0.13803
0.135843
0.13272
0.12909
0.125412
0.122335
0.1198
0.117407
0.115185
0.113151
0.111308
0.109681
0.108336
0.107477
0.108029
0.116677
0.273144
0.000124819
0.000206102
0.000671235
0.00180295
0.00385477
0.00717002
0.0121821
0.0194012
0.0293328
0.0422617
0.0579
0.0750983
0.0920078
0.106798
0.11839
0.127206
0.133764
0.137511
0.138752
0.138022
0.135865
0.132772
0.129156
0.125493
0.122394
0.119858
0.117459
0.115226
0.113176
0.111318
0.109657
0.108215
0.107074
0.106485
0.107582
0.118309
0.303274
0.000124705
0.000205852
0.000670362
0.00180035
0.0038487
0.00715764
0.0121587
0.0193605
0.029267
0.0421636
0.0577679
0.0749393
0.0918378
0.106636
0.118246
0.127066
0.133651
0.137429
0.138705
0.138009
0.135881
0.132813
0.129225
0.12556
0.122448
0.119915
0.117512
0.115271
0.113207
0.111332
0.109651
0.108165
0.106907
0.105969
0.105668
0.10739
0.121186
0.343086
0.000124986
0.000205642
0.000669433
0.00179795
0.00384312
0.00714635
0.0121377
0.0193238
0.0292072
0.0420743
0.057647
0.0747935
0.0916838
0.106488
0.118117
0.126939
0.133541
0.137349
0.138657
0.137997
0.1359
0.132846
0.129281
0.125623
0.122498
0.119967
0.117565
0.115318
0.113245
0.111353
0.10965
0.108139
0.106826
0.105747
0.10502
0.10503
0.107472
0.125228
0.396402
0.000160236
0.000205579
0.000668682
0.00179545
0.00383795
0.00713594
0.0121186
0.0192908
0.0291534
0.0419931
0.0575366
0.0746594
0.091538
0.106351
0.117998
0.126822
0.13345
0.137282
0.138617
0.13798
0.135908
0.132884
0.129328
0.12568
0.122542
0.120014
0.117614
0.115366
0.113285
0.111383
0.10966
0.108125
0.10678
0.105633
0.104732
0.104222
0.104577
0.107857
0.130461
0.469066
0.00012882
0.0154261
0.000666905
0.00179341
0.00383263
0.00712629
0.0121009
0.0192607
0.0291048
0.04192
0.0574382
0.0745372
0.091406
0.106222
0.117886
0.126713
0.133359
0.137219
0.138584
0.137968
0.13592
0.132908
0.129368
0.125732
0.122581
0.120058
0.117658
0.115411
0.113328
0.111416
0.10968
0.108123
0.106749
0.105564
0.10458
0.103858
0.103576
0.104317
0.108581
0.136975
0.569766
0.000129819
0.00093081
0.0485169
0.00178831
0.00382825
0.00711637
0.0120845
0.0192328
0.0290604
0.041854
0.0573449
0.0744275
0.0912854
0.106106
0.117783
0.126613
0.13328
0.137161
0.138547
0.137954
0.13592
0.132936
0.129406
0.125772
0.122615
0.120095
0.117698
0.11545
0.113367
0.111452
0.109705
0.108133
0.106734
0.105515
0.104484
0.103662
0.103122
0.103084
0.104264
0.109691
0.144962
0.710714
0.000141123
0.00160777
0.00263096
0.107079
0.00381726
0.00710822
0.0120677
0.019207
0.0290196
0.0417937
0.0572633
0.0743264
0.0911756
0.105999
0.117689
0.126519
0.133206
0.137109
0.138514
0.13794
0.135928
0.132956
0.129441
0.12581
0.122645
0.120128
0.117733
0.115487
0.113401
0.111485
0.109734
0.108149
0.106734
0.105486
0.104416
0.103535
0.102872
0.102521
0.10275
0.104435
0.111245
0.154654
0.905281
0.000134684
0.00385384
0.0046808
0.00592497
0.189675
0.00708772
0.0120539
0.0191805
0.0289816
0.0417379
0.0571884
0.0742335
0.0910773
0.105902
0.117602
0.126434
0.133132
0.137055
0.138483
0.13793
0.13593
0.132974
0.129468
0.125844
0.122671
0.120157
0.117764
0.115518
0.113434
0.111514
0.109762
0.108171
0.10674
0.105473
0.104371
0.103444
0.102711
0.102209
0.102057
0.102582
0.104856
0.113318
0.166317
1.15514
0.00012675
0.00294217
0.0122709
0.0106268
0.0109739
0.294767
0.0120191
0.0191588
0.0289445
0.0416863
0.0571191
0.0741503
0.0909856
0.105813
0.117523
0.126355
0.133066
0.137011
0.138455
0.137916
0.135937
0.132989
0.129492
0.125875
0.122694
0.120183
0.117791
0.115546
0.113461
0.111541
0.109785
0.108191
0.106754
0.105472
0.104346
0.103383
0.102595
0.102008
0.101671
0.101731
0.102592
0.105559
0.116007
0.180095
1.42105
0.000125281
0.0014412
0.00906913
0.0280627
0.0193835
0.0176532
0.418645
0.0191036
0.0289104
0.0416326
0.0570549
0.0740731
0.0909029
0.105733
0.117451
0.126284
0.133008
0.136967
0.13843
0.13791
0.135942
0.132998
0.129515
0.125899
0.122714
0.120205
0.117815
0.11557
0.113485
0.111564
0.109806
0.108208
0.106767
0.105476
0.104334
0.103344
0.102514
0.101863
0.101422
0.101258
0.101551
0.102796
0.106585
0.119439
0.195796
1.62601
0.000123878
0.00119703
0.00415936
0.0206002
0.0508708
0.0307956
0.0265557
0.551292
0.0288283
0.0415886
0.0569903
0.0740014
0.0908263
0.10566
0.117385
0.126217
0.132951
0.136924
0.138407
0.1379
0.135946
0.133016
0.129535
0.12592
0.122732
0.120224
0.117835
0.115591
0.113506
0.111584
0.109825
0.108225
0.106779
0.105484
0.10433
0.10332
0.10246
0.10176
0.101244
0.100953
0.100972
0.101524
0.103215
0.107985
0.124173
0.212414
1.75022
0.000123604
0.000392264
0.00340899
0.00940722
0.0372239
0.0804437
0.0452358
0.0375397
0.672708
0.041475
0.0569343
0.0739276
0.0907551
0.10559
0.117325
0.126156
0.132901
0.136885
0.138383
0.137888
0.135946
0.133028
0.129559
0.125945
0.122748
0.120242
0.117854
0.11561
0.113524
0.111601
0.10984
0.108238
0.106789
0.105487
0.104329
0.103307
0.102423
0.101688
0.101116
0.100736
0.100602
0.100819
0.101663
0.103877
0.109828
0.131359
0.227232
1.87105
0.000123504
0.000327068
0.00115064
0.00771445
0.0170375
0.0587149
0.116195
0.06209
0.051121
0.752037
0.0567899
0.0738675
0.0906819
0.105527
0.117268
0.126101
0.132855
0.13685
0.138359
0.137884
0.135947
0.133035
0.129572
0.12597
0.122763
0.120258
0.11787
0.115626
0.11354
0.111616
0.109854
0.108249
0.106797
0.105491
0.104326
0.103297
0.1024
0.101638
0.101025
0.100579
0.100338
0.100369
0.100805
0.101986
0.10482
0.112197
0.140627
0.237786
2
0.000123429
0.000221017
0.000971002
0.0027623
0.0141849
0.0270886
0.0849915
0.156435
0.0816055
0.0671098
0.773949
0.0737024
0.0906228
0.105461
0.117216
0.126049
0.13281
0.136818
0.138338
0.137868
0.135947
0.13305
0.129591
0.125981
0.122777
0.120273
0.117885
0.115641
0.113554
0.111629
0.109865
0.108259
0.106803
0.105494
0.104324
0.103287
0.102381
0.101603
0.100958
0.100466
0.100147
0.100052
0.100261
0.100942
0.102514
0.106088
0.115198
0.151755
0.255575
2
0.000123327
0.000210878
0.000702597
0.00239587
0.00555107
0.0228742
0.0396823
0.115091
0.197366
0.101991
0.0835756
0.743227
0.0904531
0.105408
0.117162
0.126
0.132767
0.136786
0.138315
0.137857
0.135948
0.13305
0.1296
0.125999
0.12279
0.120286
0.117899
0.115654
0.113566
0.111641
0.109875
0.108267
0.106809
0.105495
0.104321
0.103278
0.102363
0.101575
0.100911
0.100381
0.100008
0.099821
0.0998789
0.100284
0.101245
0.103275
0.107742
0.118971
0.164745
0.291703
2
0.000123227
0.00021803
0.000675794
0.00184193
0.00476899
0.00969674
0.0335794
0.0548946
0.147233
0.232151
0.122124
0.0992648
0.68258
0.105252
0.117117
0.12595
0.13273
0.136759
0.138296
0.13785
0.135943
0.133058
0.12961
0.126011
0.122801
0.120299
0.117911
0.115666
0.113578
0.111651
0.109884
0.108273
0.106813
0.105497
0.104317
0.10327
0.102347
0.101548
0.100872
0.100319
0.0999035
0.0996519
0.0996022
0.0998253
0.100448
0.101733
0.104308
0.109856
0.123705
0.179816
0.341603
2
0.000123152
0.000212164
0.000691121
0.00178726
0.00386817
0.00835285
0.0153257
0.0467392
0.0734787
0.177913
0.254547
0.13811
0.113641
0.613614
0.116983
0.12591
0.132692
0.13673
0.13828
0.137837
0.135939
0.133065
0.129618
0.126028
0.122811
0.12031
0.117924
0.115678
0.113589
0.11166
0.109891
0.108278
0.106816
0.105497
0.104314
0.10326
0.102332
0.101524
0.100836
0.100268
0.0998249
0.0995239
0.0993974
0.0994926
0.0998975
0.100769
0.102431
0.105659
0.112525
0.131149
0.197374
0.413216
2
0.000123108
0.0002045
0.000675696
0.00181419
0.00378099
0.00708562
0.0135504
0.0230019
0.0630174
0.0939323
0.203131
0.26126
0.150161
0.123253
0.547193
0.12577
0.132661
0.136705
0.138259
0.137828
0.135937
0.133064
0.129624
0.126035
0.122819
0.12032
0.117934
0.115689
0.113599
0.111669
0.109898
0.108283
0.106819
0.105497
0.10431
0.103252
0.102318
0.101503
0.100803
0.100222
0.0997601
0.0994262
0.0992414
0.0992465
0.0994995
0.100107
0.101263
0.103371
0.107389
0.115872
0.141321
0.217567
0.523053
2
0.000122977
0.000203952
0.000656437
0.00178298
0.00381533
0.00695983
0.0119071
0.0207787
0.0335169
0.0819548
0.115544
0.218674
0.258624
0.156106
0.130259
0.487655
0.132534
0.136682
0.138247
0.137813
0.135934
0.133062
0.129635
0.126039
0.122826
0.120328
0.117943
0.115699
0.113609
0.111677
0.109905
0.108289
0.106821
0.105495
0.104305
0.103244
0.102304
0.101482
0.100775
0.100181
0.0997024
0.0993459
0.0991218
0.0990583
0.0992034
0.0996298
0.100468
0.101956
0.104596
0.109573
0.120054
0.153936
0.239354
0.70505
2
0.000113699
0.000203878
0.000655753
0.00174558
0.00376248
0.00700335
0.0118002
0.0187887
0.0311405
0.0470059
0.100661
0.135191
0.225379
0.248359
0.157402
0.134169
0.436128
0.136565
0.13823
0.13781
0.135929
0.133065
0.129637
0.126047
0.12283
0.120334
0.11795
0.115707
0.113617
0.111686
0.109913
0.108293
0.106823
0.105495
0.104301
0.103236
0.102291
0.101463
0.100748
0.100144
0.0996511
0.0992745
0.0990236
0.098913
0.0989772
0.0992755
0.0998956
0.100997
0.102878
0.106158
0.112309
0.12528
0.168923
0.259557
1.03058
2
6.02157e-05
0.000183331
0.000655669
0.00174475
0.00370272
0.006928
0.0118599
0.0187355
0.0285095
0.0444589
0.0623719
0.119993
0.149829
0.224016
0.235431
0.155723
0.136562
0.391833
0.138115
0.1378
0.135926
0.133071
0.129638
0.126054
0.122834
0.120338
0.117956
0.115713
0.113624
0.111692
0.109919
0.108298
0.106826
0.105495
0.104298
0.103228
0.102279
0.101446
0.100723
0.100109
0.0996054
0.099212
0.0989376
0.098794
0.0988018
0.0990039
0.099471
0.100311
0.10172
0.104067
0.108123
0.115723
0.133204
0.186368
0.275772
1.63189
2
4.75537e-05
0.000132723
0.000576619
0.00174677
0.00370433
0.00684008
0.0117375
0.0189361
0.0282491
0.0411004
0.0597275
0.0797386
0.136268
0.159259
0.216975
0.221311
0.154301
0.137069
0.354098
0.137681
0.135927
0.133068
0.129644
0.126053
0.122837
0.120342
0.117961
0.115718
0.11363
0.111698
0.109924
0.108302
0.106828
0.105495
0.104294
0.103221
0.102268
0.101429
0.1007
0.100078
0.0995632
0.0991562
0.0988613
0.0986902
0.0986581
0.0987925
0.0991455
0.0998015
0.100895
0.102667
0.105573
0.110577
0.11998
0.144269
0.206639
0.306173
2
2
5.57117e-05
8.86027e-05
0.000503866
0.0015318
0.00370943
0.00684676
0.0116389
0.01874
0.0285177
0.0406889
0.0561097
0.076275
0.0965065
0.147262
0.164775
0.20744
0.207216
0.151094
0.135865
0.321433
0.135806
0.133074
0.129644
0.126056
0.12284
0.120345
0.117963
0.115722
0.113633
0.111702
0.109928
0.108307
0.106832
0.105496
0.104292
0.103215
0.102257
0.101413
0.100678
0.100049
0.0995248
0.0991053
0.0987948
0.0985994
0.0985342
0.0986206
0.0988912
0.0994118
0.100284
0.101673
0.103874
0.107458
0.113631
0.125291
0.158388
0.230264
0.365055
2
2
5.12429e-05
8.59523e-05
0.000310699
0.00134628
0.00324568
0.00686105
0.0116174
0.0185757
0.0282309
0.0407574
0.0556396
0.0727992
0.0932409
0.111106
0.15435
0.167227
0.196795
0.198182
0.147106
0.133146
0.293208
0.132953
0.12965
0.126068
0.122842
0.120347
0.117966
0.115724
0.113636
0.111705
0.109931
0.108309
0.106833
0.105496
0.104291
0.10321
0.102248
0.101399
0.100658
0.100023
0.0994894
0.099059
0.0987334
0.0985193
0.0984262
0.0984725
0.0986852
0.0991073
0.0998164
0.100938
0.102675
0.105392
0.109803
0.117426
0.132808
0.1756
0.256017
0.456538
2
2
4.87763e-05
8.18317e-05
0.000257745
0.00082558
0.00283959
0.00599328
0.0115992
0.0184852
0.0279174
0.0404747
0.0556957
0.072437
0.0898973
0.108385
0.122431
0.158857
0.166802
0.188065
0.187489
0.142114
0.129813
0.269611
0.129543
0.126073
0.122846
0.12035
0.117968
0.115726
0.113638
0.111707
0.109933
0.108311
0.106834
0.105496
0.10429
0.103206
0.102241
0.101387
0.100641
0.0999983
0.0994572
0.0990166
0.0986787
0.098447
0.0983318
0.0983446
0.098509
0.0988605
0.0994507
0.100377
0.10179
0.10394
0.107283
0.112711
0.12215
0.143714
0.195985
0.277952
0.612043
2
2
4.74591e-05
8.06789e-05
0.000255688
0.000680431
0.0017376
0.00520812
0.0101184
0.0183989
0.0278176
0.0400589
0.05538
0.0725739
0.0895375
0.1052
0.120202
0.130573
0.160453
0.16391
0.178835
0.175575
0.137057
0.126192
0.251341
0.125983
0.122851
0.120355
0.117971
0.115728
0.113639
0.111708
0.109933
0.108312
0.106834
0.105497
0.104288
0.103203
0.102234
0.101376
0.100625
0.0999764
0.0994274
0.0989778
0.0986281
0.0983821
0.098246
0.0982324
0.0983574
0.0986511
0.0991557
0.0999384
0.101115
0.102872
0.105519
0.109626
0.116318
0.128051
0.157958
0.219414
0.291581
0.904912
2
2
4.67662e-05
7.94868e-05
0.000260896
0.00067874
0.0014405
0.00318401
0.00873223
0.0160314
0.0277564
0.0400398
0.054926
0.0721641
0.0896884
0.104634
0.117023
0.128342
0.137113
0.1594
0.159886
0.168596
0.164581
0.132013
0.123199
0.234698
0.122781
0.12036
0.117975
0.11573
0.11364
0.111707
0.109933
0.108311
0.106834
0.105495
0.104286
0.1032
0.102229
0.101368
0.100611
0.0999565
0.0994009
0.0989428
0.0985822
0.0983228
0.0981695
0.0981313
0.098225
0.0984714
0.0989068
0.0995851
0.100588
0.102059
0.104226
0.107476
0.112522
0.120799
0.136768
0.175711
0.245369
0.337686
1.51376
2
2
4.69055e-05
7.89249e-05
0.00026015
0.000694414
0.00143879
0.00265887
0.00533937
0.0137573
0.024187
0.0399838
0.0549399
0.0718283
0.0892301
0.104799
0.116708
0.125892
0.135185
0.140459
0.156931
0.154346
0.158866
0.153963
0.127279
0.120657
0.217429
0.120293
0.11798
0.115733
0.113641
0.111708
0.109932
0.10831
0.106832
0.105493
0.104283
0.103196
0.102223
0.10136
0.1006
0.0999395
0.0993768
0.0989108
0.0985407
0.0982689
0.0981001
0.0980418
0.0981066
0.0983149
0.0986937
0.0992881
0.100164
0.101424
0.103244
0.105905
0.109891
0.116107
0.126388
0.14904
0.197339
0.271853
0.416479
2
2
2
4.74831e-05
7.91288e-05
0.000259903
0.00069306
0.00147299
0.00265712
0.00449566
0.00842636
0.0206639
0.0349391
0.0549608
0.0717758
0.0888964
0.104415
0.116935
0.125828
0.133118
0.139302
0.141681
0.152589
0.148612
0.149586
0.14471
0.12332
0.118196
0.200461
0.117916
0.115738
0.113643
0.111708
0.109931
0.108307
0.10683
0.10549
0.10428
0.103192
0.102218
0.101352
0.100589
0.0999246
0.099356
0.0988821
0.0985033
0.0982202
0.0980367
0.0979608
0.0980017
0.0981761
0.0985088
0.0990351
0.0998097
0.100915
0.102478
0.104716
0.107976
0.112871
0.120554
0.133956
0.164996
0.223057
0.292828
0.551997
2
2
2
4.84905e-05
8.00498e-05
0.000260575
0.000692539
0.00146977
0.00272018
0.00449008
0.00715762
0.0127184
0.0298033
0.048328
0.0717268
0.088757
0.103871
0.116587
0.126081
0.132888
0.137338
0.14077
0.140834
0.147709
0.142385
0.141056
0.137056
0.120474
0.11591
0.184672
0.115678
0.113648
0.11171
0.109931
0.108306
0.106827
0.105486
0.104275
0.103186
0.102211
0.101344
0.100579
0.0999114
0.0993378
0.0988573
0.0984697
0.0981761
0.0979799
0.0978867
0.0979067
0.0980527
0.0983459
0.0988179
0.0995106
0.100493
0.101866
0.103789
0.10653
0.110527
0.116554
0.1261
0.145164
0.185095
0.251879
0.318145
0.819885
2
2
2
4.97583e-05
8.15785e-05
0.000263289
0.000694558
0.00146917
0.0027155
0.00459761
0.00714643
0.0109106
0.0185574
0.0413871
0.0638891
0.0886652
0.103861
0.116255
0.125748
0.133137
0.137188
0.139184
0.140219
0.138519
0.142547
0.136431
0.134069
0.130849
0.117793
0.113757
0.171094
0.113592
0.111714
0.109931
0.108304
0.106823
0.105481
0.10427
0.10318
0.102204
0.101336
0.100569
0.099899
0.0993218
0.0988357
0.09844
0.0981368
0.0979288
0.0978207
0.0978213
0.0979423
0.0982019
0.0986255
0.0992523
0.100135
0.101359
0.103051
0.105407
0.108762
0.113669
0.121122
0.133433
0.160171
0.209862
0.279577
0.386978
1.41242
2
2
2
5.10699e-05
8.3549e-05
0.000267915
0.000702159
0.00147407
0.00271406
0.00459272
0.00731685
0.0108933
0.0160855
0.026272
0.0551084
0.080313
0.103932
0.116255
0.125472
0.132859
0.137587
0.139072
0.138948
0.138168
0.135364
0.136912
0.131185
0.129072
0.126059
0.115386
0.111763
0.159326
0.111661
0.109935
0.108303
0.106821
0.105477
0.104264
0.103173
0.102197
0.101327
0.100559
0.0998864
0.0993061
0.0988156
0.0984139
0.098102
0.0978829
0.0977613
0.0977445
0.0978428
0.098073
0.0984564
0.0990258
0.0998289
0.100933
0.102442
0.104513
0.107394
0.111504
0.11755
0.126822
0.14439
0.179503
0.239083
0.300041
0.50276
2
2
2
2
5.2211e-05
8.55171e-05
0.000274169
0.000714395
0.00149025
0.0027238
0.00459089
0.00731398
0.011156
0.0160629
0.0230755
0.0361432
0.0700999
0.0961192
0.11625
0.125393
0.132646
0.137383
0.139479
0.138858
0.137135
0.135198
0.131533
0.13183
0.127072
0.124532
0.122177
0.113213
0.109967
0.149294
0.109886
0.108307
0.106819
0.105474
0.104259
0.103166
0.102189
0.101318
0.100549
0.0998745
0.0992912
0.0987974
0.0983902
0.0980709
0.0978422
0.0977077
0.0976754
0.0977533
0.0979571
0.098306
0.0988277
0.0995621
0.100569
0.101932
0.103779
0.106308
0.109831
0.11488
0.122367
0.134461
0.159197
0.203834
0.270168
0.333676
0.733236
2
2
2
2
5.31675e-05
8.72571e-05
0.000279974
0.00073073
0.00151651
0.00275417
0.00460643
0.00731139
0.011151
0.016437
0.0230195
0.0322123
0.0481157
0.0847514
0.109892
0.125415
0.132737
0.137163
0.139432
0.139229
0.137203
0.134462
0.131502
0.127662
0.127629
0.123304
0.120782
0.118779
0.111231
0.10835
0.140747
0.10826
0.106822
0.105471
0.104254
0.10316
0.10218
0.101309
0.100538
0.0998619
0.099277
0.0987795
0.0983682
0.0980432
0.097806
0.0976604
0.0976132
0.0976737
0.097853
0.0981704
0.0986511
0.0993281
0.100253
0.101497
0.103166
0.10542
0.108507
0.112824
0.119052
0.128385
0.145742
0.178473
0.2333
0.295673
0.412807
1.2725
2
2
2
2
5.3962e-05
8.85778e-05
0.000284806
0.000746154
0.00155143
0.002803
0.00465971
0.0073373
0.011149
0.016441
0.0235455
0.0321264
0.0436721
0.061502
0.0975315
0.121331
0.132734
0.137298
0.139291
0.139254
0.137688
0.134476
0.131076
0.127717
0.124342
0.124081
0.120114
0.11758
0.115893
0.109437
0.10684
0.133628
0.106778
0.105473
0.10425
0.103154
0.102172
0.101299
0.100526
0.0998489
0.0992618
0.0987621
0.0983474
0.0980173
0.0977729
0.097618
0.0975577
0.0976014
0.0977601
0.0980494
0.0984928
0.0991214
0.099977
0.101122
0.102646
0.104681
0.107428
0.111202
0.116509
0.124236
0.136775
0.160976
0.203018
0.265535
0.312271
0.553786
2
2
2
2
2
5.46511e-05
8.96254e-05
0.000288397
0.000759322
0.00158412
0.00286776
0.0047435
0.00742351
0.0111937
0.0164351
0.0235551
0.0328172
0.0435449
0.0570942
0.0745547
0.107371
0.128442
0.137329
0.139284
0.139141
0.137609
0.134837
0.131087
0.127353
0.124355
0.121641
0.120939
0.117189
0.114779
0.113402
0.107794
0.105555
0.127501
0.10543
0.104251
0.103149
0.102165
0.101289
0.100515
0.0998356
0.0992471
0.0987451
0.0983273
0.097993
0.0977429
0.0975794
0.0975086
0.0975375
0.0976767
0.0979417
0.0983519
0.0989364
0.0997324
0.100794
0.102198
0.104056
0.106534
0.109885
0.114511
0.12107
0.13073
0.148855
0.180884
0.233055
0.293199
0.379839
0.863106
2
2
2
2
2
5.53014e-05
9.05458e-05
0.000291291
0.000768748
0.00161197
0.00292939
0.00485129
0.00756071
0.0113212
0.0165061
0.0235524
0.0328491
0.044407
0.0569699
0.0713318
0.0850701
0.114026
0.133352
0.139352
0.139179
0.137405
0.134878
0.131323
0.127435
0.123959
0.121722
0.119053
0.11802
0.114563
0.112305
0.111299
0.106321
0.10439
0.122367
0.104211
0.103148
0.102158
0.101281
0.100504
0.0998227
0.0992317
0.0987281
0.0983078
0.0979698
0.0977148
0.0975445
0.0974641
0.0974799
0.0976021
0.0978448
0.0982264
0.0987714
0.0995157
0.100506
0.101809
0.10352
0.10578
0.108796
0.112894
0.118592
0.126755
0.140307
0.165055
0.20637
0.266182
0.310452
0.493576
1.64745
2
2
2
2
2
5.6007e-05
9.14853e-05
0.000293697
0.00077595
0.001632
0.002981
0.00495731
0.0077357
0.0115351
0.0166983
0.0236492
0.0328478
0.044456
0.0579604
0.0713179
0.0842032
0.091174
0.117943
0.135975
0.139297
0.137491
0.134788
0.131375
0.127709
0.124045
0.12142
0.119184
0.116598
0.115358
0.112209
0.110189
0.109411
0.104978
0.103391
0.118101
0.103109
0.102157
0.101272
0.100494
0.0998095
0.0992167
0.0987106
0.0982878
0.0979468
0.0976876
0.0975113
0.0974233
0.0974281
0.0975358
0.0977585
0.0981143
0.0986248
0.0993224
0.10025
0.101467
0.103055
0.105135
0.107882
0.111563
0.116596
0.123657
0.134206
0.153634
0.186257
0.237541
0.294969
0.371706
0.73006
2
2
2
2
2
2
5.68644e-05
9.24875e-05
0.00029632
0.000782175
0.00164737
0.00301802
0.00504656
0.00790138
0.0118002
0.0170078
0.0239386
0.0329924
0.044472
0.0580259
0.0723112
0.0846272
0.09333
0.092695
0.119787
0.136813
0.137691
0.134816
0.131409
0.127703
0.12435
0.121505
0.11901
0.116773
0.1143
0.113044
0.110102
0.108349
0.107766
0.103757
0.102506
0.114517
0.102118
0.101269
0.100484
0.0997978
0.099202
0.0986933
0.0982681
0.0979242
0.097661
0.0974803
0.0973851
0.0973808
0.097475
0.0976809
0.0980132
0.0984937
0.0991517
0.100024
0.101164
0.102649
0.104578
0.107103
0.110449
0.114957
0.121172
0.129993
0.145221
0.171371
0.213422
0.271457
0.313544
0.479728
1.34499
2
2
2
2
2
2
5.79249e-05
9.3906e-05
0.000299051
0.000789076
0.00166059
0.0030478
0.00510902
0.00803953
0.0120506
0.0174047
0.024375
0.0333724
0.044663
0.0580726
0.0724262
0.0855504
0.0947249
0.0971014
0.0909457
0.12021
0.136255
0.134978
0.131489
0.127739
0.124319
0.121787
0.119099
0.116705
0.114545
0.112221
0.110909
0.10822
0.106741
0.106339
0.102659
0.101785
0.111569
0.10123
0.100479
0.0997861
0.0991883
0.0986766
0.0982483
0.0979018
0.0976354
0.0974503
0.0973488
0.0973363
0.09742
0.0976107
0.0979235
0.0983765
0.0989982
0.0998229
0.100898
0.10229
0.104092
0.106432
0.109503
0.113591
0.119141
0.126874
0.139019
0.160217
0.194521
0.246208
0.300457
0.378726
0.70182
2
2
2
2
2
2
2
5.92196e-05
9.56774e-05
0.000303633
0.000796282
0.00167518
0.0030708
0.00515943
0.00813911
0.0122572
0.0177644
0.0249183
0.0339751
0.0451645
0.0583137
0.0724855
0.0856628
0.0954629
0.10012
0.0958692
0.0875613
0.11976
0.134703
0.131628
0.127885
0.124361
0.121824
0.119361
0.11684
0.114529
0.11254
0.110306
0.108956
0.106579
0.10535
0.105142
0.101717
0.101168
0.10908
0.100439
0.0997805
0.0991748
0.0986607
0.0982294
0.0978796
0.0976102
0.0974209
0.0973139
0.0972947
0.0973685
0.0975467
0.0978416
0.0982715
0.0988612
0.0996436
0.100661
0.101974
0.103664
0.105848
0.10869
0.112435
0.117455
0.124334
0.134316
0.151773
0.180055
0.22402
0.280176
0.322315
0.493133
1.29721
2
2
2
2
2
2
2
6.07486e-05
9.78824e-05
0.000309434
0.000808879
0.00168961
0.00309643
0.00519625
0.0082185
0.0124054
0.018058
0.025428
0.0346989
0.0459197
0.0589134
0.0727711
0.0857888
0.0956003
0.100732
0.10067
0.091226
0.0837572
0.118843
0.13244
0.128003
0.1245
0.121861
0.119446
0.117082
0.114668
0.112551
0.110619
0.10852
0.107254
0.105093
0.104165
0.104054
0.100877
0.100659
0.107008
0.0997358
0.0991675
0.0986453
0.0982114
0.0978581
0.097585
0.0973922
0.0972804
0.0972549
0.0973209
0.0974871
0.0977671
0.0981768
0.0987385
0.0994834
0.100451
0.101694
0.103288
0.105336
0.107985
0.111445
0.116032
0.122236
0.130837
0.145297
0.168898
0.205859
0.258638
0.308311
0.398853
0.736622
2
2
2
2
2
2
2
2
6.24922e-05
0.000100569
0.000316731
0.000824778
0.0017162
0.00312323
0.00523773
0.00828036
0.0125248
0.0182812
0.0258507
0.0353729
0.0468349
0.0597973
0.0734131
0.086068
0.0957877
0.100876
0.101333
0.0974823
0.0850381
0.0802394
0.117772
0.129759
0.124598
0.121955
0.119436
0.11712
0.114922
0.112648
0.110696
0.108848
0.106919
0.105697
0.103798
0.103139
0.103094
0.100135
0.100244
0.105264
0.099117
0.0986359
0.0981936
0.0978376
0.0975605
0.0973638
0.0972483
0.0972168
0.0972755
0.0974316
0.0976983
0.0980903
0.0986282