/*--------------------------------*- C++ -*----------------------------------*\
| =========                 |                                                 |
| \\      /  F ield         | OpenFOAM: The Open Source CFD Toolbox           |
|  \\    /   O peration     | Version:  v2012                                 |
|   \\  /    A nd           | Website:  www.openfoam.com                      |
|    \\/     M anipulation  |                                                 |
\*---------------------------------------------------------------------------*/
FoamFile
{
    version     2.0;
    format      ascii;
    class       volVectorField;
    location    "0";
    object      wallShearStress;
}
// * * * * * * * * * * * * * * * * * * * * * * * * * * * * * * * * * * * * * //

dimensions      [1 -1 -2 0 0 0 0];


internalField   uniform (0 0 0);

boundaryField
{
    base
    {
        type            calculated;
        value           nonuniform List<vector> 
317
(
(-170.794 -0.32248 0)
(-180.011 -0.000253814 0)
(-173.514 -7.20126e-05 0)
(-168.578 0.000220682 0)
(-164.909 -6.89325e-05 0)
(-161.92 -0.000307953 0)
(-159.371 -0.000177762 0)
(-157.191 9.35498e-05 0)
(-155.321 0.000235036 0)
(-153.677 0.000132614 0)
(-152.223 -5.41185e-05 0)
(-150.904 -0.00018343 0)
(-149.718 -0.000206588 0)
(-148.633 -0.000164344 0)
(-147.649 -8.87323e-05 0)
(-146.755 -3.20334e-05 0)
(-145.952 -1.24864e-05 0)
(-145.219 -9.16032e-06 0)
(-144.558 -1.13539e-05 0)
(-143.953 -1.18673e-05 0)
(-143.404 -1.08015e-05 0)
(-142.904 -6.68204e-06 0)
(-142.451 -1.5777e-05 0)
(-142.039 -4.25317e-05 0)
(-141.662 -8.9784e-05 0)
(-141.314 -0.000153968 0)
(-140.993 -0.000218627 0)
(-140.695 -0.000284578 0)
(-140.42 -0.000324639 0)
(-140.165 -0.00034603 0)
(-139.927 -0.000350416 0)
(-139.707 -0.000330239 0)
(-139.501 -0.000279312 0)
(-139.308 -0.000210291 0)
(-139.125 -0.000140493 0)
(-138.95 -9.22192e-05 0)
(-138.775 -3.29768e-05 0)
(-138.634 -5.90759e-05 0)
(-138.8 0.000837167 0)
(-171.138 8.1228e-05 0)
(-138.365 -0.000641788 0)
(-138.789 0.000247109 0)
(-150.552 0.000212985 -4.59095e-27)
(-145.355 -0.00048941 -9.17859e-27)
(-138.233 -0.000635957 -4.71699e-27)
(-137.437 -0.000660558 0)
(-136.592 -0.000874057 0)
(-136.498 -0.00100012 0)
(-136.501 -0.00107629 0)
(-136.47 -0.00119311 0)
(-136.41 -0.00120417 0)
(-136.377 -0.00132175 0)
(-136.344 -0.00104679 1.8235e-28)
(-135.63 -0.000664343 0)
(-106.553 0.0982988 0)
(-12.0562 0.479825 0)
(29.148 0.252082 0)
(30.3498 0.100551 0)
(29.2798 0.0374183 0)
(27.0048 0.0249754 0)
(25.4045 -0.0048684 0)
(24.8464 -0.0143404 0)
(24.7338 -0.0222922 -2.00522e-27)
(24.8763 -0.0240137 5.89862e-28)
(25.3152 -0.0254921 0)
(25.8514 -0.0271687 0)
(26.3564 -0.0290772 9.00467e-28)
(26.7946 -0.028808 0)
(27.161 -0.0268759 0)
(27.4607 -0.0252167 0)
(27.7158 -0.0244373 0)
(27.9622 -0.0232658 0)
(28.2293 -0.0224933 0)
(28.5506 -0.0218669 0)
(28.9578 -0.021319 1.23254e-27)
(29.4566 -0.0207785 1.30272e-27)
(30.0429 -0.0201606 0)
(30.7092 -0.0191127 0)
(31.4437 -0.0181394 0)
(32.2313 -0.0172429 0)
(33.0527 -0.0158998 1.51817e-27)
(33.9084 -0.0152725 0)
(34.7839 -0.0145542 0)
(35.6512 -0.0135768 1.66101e-27)
(36.5047 -0.0129407 0)
(37.334 -0.0128219 2.87965e-27)
(38.1303 -0.0126768 -1.14013e-27)
(38.8883 -0.0126823 -1.22705e-27)
(39.6064 -0.0128255 1.32183e-27)
(40.3035 -0.0131791 0)
(41.016 -0.0138441 5.71545e-27)
(41.5678 -0.0136227 -1.85189e-27)
(41.9662 -0.0147325 -4.81871e-27)
(42.3909 -0.0152545 0)
(42.7748 -0.0158172 8.35828e-27)
(43.0957 -0.016342 9.22504e-27)
(43.3477 -0.0167936 0)
(43.534 -0.0172726 -1.11086e-26)
(43.6636 -0.0176556 3.90237e-27)
(43.7399 -0.0179754 -4.17763e-27)
(43.7488 -0.0182599 0)
(43.686 -0.0185601 -1.51529e-26)
(43.5494 -0.0187119 0)
(43.352 -0.0190021 3.42123e-26)
(43.0791 -0.018806 6.40153e-27)
(42.7403 -0.0194734 -1.34672e-26)
(42.3114 -0.0178962 3.49281e-29)
(41.7929 -0.0187443 -3.20175e-26)
(41.1384 -0.0229941 -4.67016e-27)
(40.3475 -0.0251838 5.00611e-27)
(39.3261 -0.0203007 -8.45616e-27)
(37.9709 -0.0177403 2.87475e-26)
(36.0651 -0.00801102 0)
(33.1167 0.00576705 -1.07202e-28)
(28.9314 0.019037 -2.50946e-25)
(21.2721 0.046999 0)
(13.127 -0.0246611 6.41829e-26)
(-4.5623 0.270444 0)
(-9.89841 -4.47735 1.29592e-20)
(0.712273 0.24885 1.04124e-20)
(4.68305 2.04032 6.50631e-21)
(7.64757 3.36497 -2.67579e-27)
(10.7084 4.72235 1.0011e-25)
(14.3292 6.33273 0)
(17.7439 7.85886 7.28353e-21)
(20.8672 9.2501 -6.87681e-21)
(23.5849 10.4642 0)
(25.9193 11.5036 0)
(27.9726 12.4222 0)
(29.7925 13.2357 -4.33516e-21)
(31.4198 13.958 -4.53501e-28)
(32.8859 14.6141 1.82589e-21)
(34.2369 15.2178 -5.19382e-26)
(35.507 15.7817 6.68787e-21)
(36.6621 16.297 5.84855e-21)
(37.716 16.7677 0)
(38.7422 17.227 -2.76755e-21)
(39.7132 17.6597 4.80154e-21)
(40.5787 18.0423 3.24663e-27)
(41.434 18.4289 -2.35147e-21)
(42.2519 18.7907 3.30372e-26)
(43.0199 19.1345 5.89877e-21)
(43.7436 19.4558 3.59156e-21)
(44.4429 19.7705 -1.77447e-21)
(45.1099 20.0662 1.80941e-28)
(45.7602 20.3569 -1.68205e-21)
(46.3718 20.6307 2.71392e-21)
(46.9529 20.8886 2.89671e-21)
(47.5343 21.1483 4.35916e-21)
(48.0807 21.3925 0)
(48.6053 21.6253 -4.26517e-21)
(49.103 21.8504 -1.59331e-26)
(49.5889 22.0658 -5.45251e-21)
(50.0774 22.2856 -1.91046e-21)
(50.5358 22.4857 0)
(50.9333 22.6657 2.88133e-21)
(51.3695 22.8629 -1.49853e-21)
(51.8093 23.0577 -2.60743e-21)
(52.1555 23.2096 1.80945e-21)
(52.5455 23.3873 0)
(52.8849 23.5346 0)
(53.1981 23.6881 -9.96967e-27)
(53.6399 23.8621 5.23711e-21)
(53.8962 23.987 1.69758e-26)
(54.1317 24.0901 -2.21377e-27)
(54.4393 24.2321 -1.52788e-21)
(54.7139 24.3517 -2.34963e-27)
(54.942 24.4611 2.90831e-21)
(55.1918 24.5659 -1.18405e-21)
(55.4023 24.6535 1.42695e-26)
(55.5727 24.7378 -1.95923e-21)
(55.7556 24.8197 -1.01272e-21)
(55.9101 24.8881 2.90674e-21)
(56.0331 24.9458 -1.52571e-21)
(56.1517 24.9967 0)
(56.2507 25.0528 0)
(56.2904 25.0602 5.07221e-22)
(56.3529 25.0946 9.87219e-22)
(56.4037 25.1239 0)
(56.3628 25.0979 5.30829e-24)
(56.2973 25.0556 -1.95451e-21)
(56.1678 25.004 0)
(56.0733 24.9655 0)
(56.0169 24.9408 0)
(55.7579 24.8141 -1.54504e-26)
(55.6071 24.8211 1.16469e-26)
(55.4087 24.6098 1.50841e-26)
(54.8723 24.4299 1.15336e-21)
(54.6266 24.3274 -3.70281e-21)
(54.1933 24.0977 6.45259e-27)
(53.7249 23.9188 -3.9339e-21)
(53.3139 23.7584 6.29645e-27)
(52.5893 23.3897 9.00432e-21)
(51.9281 23.1488 1.41637e-28)
(51.1592 22.7512 1.12563e-26)
(50.2656 22.3591 -1.21151e-26)
(49.5269 22.0522 0)
(48.5431 21.6882 2.51976e-20)
(47.5285 21.0451 1.79333e-20)
(46.4446 20.753 0)
(45.2338 20.11 -5.16241e-22)
(43.7609 19.4855 -6.05277e-27)
(42.3685 18.8624 0)
(40.9525 18.2016 -6.55363e-21)
(39.4422 17.6617 5.68688e-20)
(37.8412 16.7565 -1.9835e-26)
(35.8541 15.9277 2.21561e-26)
(33.8196 15.0566 -7.74269e-28)
(31.9949 14.2498 -7.89142e-27)
(29.9007 13.3601 -2.44264e-20)
(27.741 12.3081 -9.2656e-21)
(25.5104 11.3651 -7.28162e-27)
(23.1424 10.3056 1.00869e-27)
(20.7495 9.14203 2.10138e-20)
(18.131 8.23129 0)
(15.6656 6.79699 3.76518e-20)
(12.88 5.73066 0)
(10.148 4.51695 9.56196e-22)
(7.35464 3.26933 0)
(4.48547 1.96656 0)
(1.47484 0.883204 -1.41929e-26)
(-1.39264 -0.747742 1.42759e-26)
(-4.45569 -1.9692 -8.29218e-21)
(-7.5402 -3.3595 -1.48451e-27)
(-10.6183 -4.74455 0)
(-13.9341 -6.26758 4.45031e-20)
(-17.1566 -7.67176 5.42329e-20)
(-20.3915 -9.14892 7.10416e-20)
(-23.818 -10.6492 3.0018e-20)
(-27.3102 -12.2756 -9.31502e-20)
(-31.0186 -13.8567 1.27574e-19)
(-34.6928 -15.4975 1.22359e-26)
(-38.528 -17.0905 -1.88387e-26)
(-42.0223 -18.9311 2.51904e-20)
(-46.1908 -20.6434 0)
(-50.4576 -22.5179 0)
(-54.4192 -24.2795 -1.53123e-19)
(-59.0279 -26.366 -1.77574e-26)
(-63.1827 -28.1974 -4.02345e-20)
(-67.6242 -30.1471 1.28097e-26)
(-71.8291 -32.1156 5.91291e-21)
(-75.9783 -33.8497 3.37184e-20)
(-80.0014 -35.6502 -1.10545e-26)
(-84.252 -37.5785 -4.45314e-20)
(-87.7985 -39.1072 3.58813e-20)
(-92.9079 -41.3969 1.13105e-20)
(-95.9974 -42.724 0)
(-101.789 -45.3106 2.78058e-20)
(-104.964 -46.7977 -3.70722e-20)
(-106.419 -47.3551 0)
(-113.057 -50.3287 0)
(-118.036 -52.7351 0)
(-115.638 -51.4479 0)
(-121.322 -54.0016 -3.83279e-21)
(-127.943 -56.9983 -4.14519e-20)
(-121.753 -54.1217 3.69978e-21)
(-123.834 -55.1453 1.26651e-20)
(-131.922 -58.7816 6.28228e-20)
(-135.151 -60.1919 -7.30083e-20)
(-135.928 -60.5116 5.82589e-21)
(-134.358 -59.8618 -6.76585e-21)
(-137.126 -61.0499 -3.64747e-20)
(-136.862 -60.9596 0)
(-142.574 -63.4985 0)
(-150.097 -66.8555 2.53491e-26)
(-146.66 -65.2978 -4.00516e-21)
(-157.53 -70.1316 -1.0124e-20)
(-149.791 -66.8654 0)
(-152.379 -67.8381 1.13734e-20)
(-156.82 -69.8183 0)
(-161.704 -71.9998 1.30667e-20)
(-173.078 -77.0078 -3.21681e-20)
(-164.486 -73.2172 1.04996e-20)
(-178.09 -79.2983 0)
(-182.556 -81.2384 -6.18728e-20)
(-175.4 -78.1162 1.97847e-26)
(-182.874 -81.4066 3.06176e-26)
(-183.329 -81.5799 0)
(-187.81 -83.6287 0)
(-193.052 -85.9127 0)
(-192.541 -85.7275 2.84417e-26)
(-192.043 -85.4527 1.14265e-19)
(-193.789 -86.3146 0)
(-194.989 -86.739 -6.39482e-20)
(-196.532 -87.529 -1.63871e-20)
(-199.894 -88.9332 1.12925e-19)
(-198.222 -88.46 0)
(-195.685 -86.9674 0)
(-185.667 -82.6836 0)
(-198.592 -88.4309 1.54139e-20)
(-203.164 -90.4586 4.86449e-20)
(-190.995 -84.8713 0)
(-187.954 -83.8876 0)
(-184.748 -82.1545 4.7959e-20)
(-187.889 -83.7635 0)
(-202.893 -90.1197 0)
(-193.103 -86.2147 -5.2256e-20)
(-207.024 -92.1935 0)
(-198.457 -88.3417 1.24883e-20)
(-208.299 -92.7918 -6.50415e-20)
(-206.881 -92.156 -2.44287e-20)
(-208.947 -92.8615 -6.44791e-20)
(-208.149 -92.9047 0)
(-208.133 -92.4674 4.45836e-21)
(-209.389 -93.4504 7.20065e-20)
(-208.391 -92.6496 -7.2283e-20)
(-196.706 -87.7994 0)
(-199.558 -88.8696 0)
(-203.09 -90.2254 0)
(-199.322 -88.8595 0)
(-202.889 -90.3074 0)
(-200.324 -89.3033 0)
(-197.896 -88.1521 0)
(-197.253 -87.8167 -5.16228e-20)
(-203.654 -90.5121 -4.22545e-20)
(-200.944 -89.5773 7.61388e-20)
(-204.933 -91.2374 0)
)
;
    }
    frontAndBack
    {
        type            empty;
    }
    inlet
    {
        type            calculated;
        value           uniform (0 0 0);
    }
    outlet
    {
        type            calculated;
        value           uniform (0 0 0);
    }
    top
    {
        type            calculated;
        value           uniform (0 0 0);
    }
}


// ************************************************************************* //
