# wallHeatFlux  FACE_DATA 212
# x  y  z  wallHeatFlux
-0.809577 0 0.035 -1.09884e+06
-0.807489 0 0.035 -212051
-0.805219 0 0.035 -121126
-0.802746 0 0.035 -89172.9
-0.800052 0 0.035 -77230.1
-0.797114 0 0.035 -82007.2
-0.793909 0 0.035 -88270.5
-0.790405 0 0.035 -91879.9
-0.786574 0 0.035 -93525.3
-0.782377 0 0.035 -94321.5
-0.777777 0 0.035 -94215.4
-0.772724 0 0.035 -93737.7
-0.767167 0 0.035 -93153.8
-0.761044 0 0.035 -92410.7
-0.754285 0 0.035 -91189.9
-0.746806 0 0.035 -89862.9
-0.738515 0 0.035 -88589
-0.729297 0 0.035 -87421.3
-0.719017 0 0.035 -86253.5
-0.707518 0 0.035 -84926.5
-0.694609 0 0.035 -83652.6
-0.680056 0 0.035 -82484.9
-0.663575 0 0.035 -81157.9
-0.644813 0 0.035 -79937.1
-0.624813 0 0.035 -78644.2
-0.605117 0 0.035 -77439.7
-0.586017 0 0.035 -76380.1
-0.567487 0 0.035 -75479.1
-0.549504 0 0.035 -74629.2
-0.532047 0 0.035 -73886.8
-0.515094 0 0.035 -73249.1
-0.498626 0 0.035 -72719.1
-0.482623 0 0.035 -72187.6
-0.467067 0 0.035 -71710.6
-0.451943 0 0.035 -71179.8
-0.437233 0 0.035 -70702.2
-0.422924 0 0.035 -70277.5
-0.409002 0 0.035 -69959.1
-0.395453 0 0.035 -69746.8
-0.382267 0 0.035 -69481.4
-0.369432 0 0.035 -69163.9
-0.356936 0 0.035 -68844.5
-0.344773 0 0.035 -68473.9
-0.332933 0 0.035 -68154.5
-0.321409 0 0.035 -67890.1
-0.310192 0 0.035 -67677.9
-0.299278 0 0.035 -67571.8
-0.288661 0 0.035 -67464.6
-0.278335 0 0.035 -67360.7
-0.268297 0 0.035 -67199.3
-0.258541 0 0.035 -67042.4
-0.249066 0 0.035 -66829
-0.239868 0 0.035 -66616.7
-0.230945 0 0.035 -66350.1
-0.222294 0 0.035 -66139.1
-0.213914 0 0.035 -65926.9
-0.205804 0 0.035 -65714.7
-0.197961 0 0.035 -65608.6
-0.190386 0 0.035 -65501.1
-0.183077 0 0.035 -65396.5
-0.176032 0 0.035 -65343.5
-0.169252 0 0.035 -65343.6
-0.162736 0 0.035 -65289
-0.156483 0 0.035 -65292.6
-0.150493 0 0.035 -65289.1
-0.144764 0 0.035 -65236.1
-0.139298 0 0.035 -65232.2
-0.134091 0 0.035 -65142.7
-0.129093 0 0.035 -65121.4
-0.124253 0 0.035 -65075
-0.119563 0 0.035 -64968.8
-0.115017 0 0.035 -64915.7
-0.110611 0 0.035 -64809.6
-0.106339 0 0.035 -64703.4
-0.102196 0 0.035 -64650.3
-0.0981766 0 0.035 -64544.2
-0.094276 0 0.035 -64438
-0.0904897 0 0.035 -64331.8
-0.086813 0 0.035 -64225.7
-0.0832415 0 0.035 -64119.5
-0.0797709 0 0.035 -64066.5
-0.0763968 0 0.035 -63960.3
-0.0731154 0 0.035 -63854.1
-0.0699225 0 0.035 -63801.1
-0.0668143 0 0.035 -63748
-0.0637871 0 0.035 -63641.8
-0.0608371 0 0.035 -63588.7
-0.0579609 0 0.035 -63535.7
-0.0551548 0 0.035 -63482.6
-0.0524156 0 0.035 -63482.6
-0.0497398 0 0.035 -63429.5
-0.0471243 0 0.035 -63376.4
-0.0445659 0 0.035 -63323.3
-0.0420615 0 0.035 -63164.1
-0.0396081 0 0.035 -59289.3
-0.0372026 0 0.035 -52123.7
-0.0348422 0 0.035 -63535.7
-0.032524 0 0.035 -75478.5
-0.0302452 0 0.035 -83281.1
-0.028003 0 0.035 -88589
-0.0257948 0 0.035 -92888.4
-0.0236178 0 0.035 -96657
-0.0214695 0 0.035 -100054
-0.0193471 0 0.035 -103451
-0.0172482 0 0.035 -106424
-0.0151702 0 0.035 -109024
-0.0131106 0 0.035 -111254
-0.0110667 0 0.035 -113642
-0.00903637 0 0.035 -116774
-0.00701697 0 0.035 -121551
-0.00500605 0 0.035 -129194
-0.00300121 0 0.035 -142836
-0.001 0 0.035 -162210
0.000866025 0.0005 0.035 -164565
0.0025844 0.00149211 0.035 -193004
0.0042763 0.00246893 0.035 -220461
0.00594322 0.00343132 0.035 -248822
0.00758636 0.00437998 0.035 -281906
0.00920737 0.00531588 0.035 -321219
0.0108073 0.00623962 0.035 -368910
0.0123876 0.00715197 0.035 -426281
0.0139495 0.00805371 0.035 -493297
0.0154937 0.00894529 0.035 -571493
0.017022 0.00982768 0.035 -662614
0.0185348 0.0107011 0.035 -766425
0.0200339 0.0115665 0.035 -881786
0.0215202 0.0124247 0.035 -1.01842e+06
0.0229941 0.0132756 0.035 -1.17074e+06
0.0244573 0.0141204 0.035 -1.34635e+06
0.0259099 0.0149591 0.035 -1.54469e+06
0.0273538 0.0157927 0.035 -1.74761e+06
0.0287897 0.0166217 0.035 -1.97335e+06
0.0302178 0.0174463 0.035 -2.22105e+06
0.0316401 0.0182674 0.035 -2.47259e+06
0.0330561 0.0190849 0.035 -2.70148e+06
0.0344679 0.0199001 0.035 -2.85853e+06
0.0358755 0.0207127 0.035 -3.00459e+06
0.0372803 0.0215238 0.035 -3.03686e+06
0.0386833 0.0223338 0.035 -2.97438e+06
0.0400841 0.0231425 0.035 -2.76602e+06
0.041485 0.0239514 0.035 -2.61194e+06
0.0428849 0.0247596 0.035 -2.47037e+06
0.0442867 0.025569 0.035 -2.32588e+06
0.0456908 0.0263796 0.035 -2.15653e+06
0.0470966 0.0271912 0.035 -2.05374e+06
0.0485064 0.0280052 0.035 -1.96608e+06
0.0499192 0.0288209 0.035 -1.89546e+06
0.0513378 0.0296399 0.035 -1.79524e+06
0.0527619 0.0304621 0.035 -1.74602e+06
0.0541923 0.031288 0.035 -1.70471e+06
0.0556307 0.0321184 0.035 -1.6671e+06
0.057076 0.0329529 0.035 -1.64484e+06
0.0585312 0.033793 0.035 -1.64714e+06
0.0599949 0.034638 0.035 -1.6318e+06
0.0614698 0.0354896 0.035 -1.60363e+06
0.062957 0.0363482 0.035 -1.57779e+06
0.064455 0.0372131 0.035 -1.57171e+06
0.0659672 0.0380862 0.035 -1.53473e+06
0.0674915 0.0389663 0.035 -1.55391e+06
0.0690319 0.0398556 0.035 -1.54653e+06
0.0705882 0.0407541 0.035 -1.53556e+06
0.0721604 0.0416619 0.035 -1.49089e+06
0.0737453 0.0425769 0.035 -1.49064e+06
0.0753344 0.0434943 0.035 -1.49071e+06
0.0769309 0.0444161 0.035 -1.48462e+06
0.0785326 0.0453408 0.035 -1.46128e+06
0.0801411 0.0462695 0.035 -1.45644e+06
0.0817575 0.0472026 0.035 -1.48032e+06
0.0833785 0.0481386 0.035 -1.44373e+06
0.0850077 0.0490792 0.035 -1.46046e+06
0.0866416 0.0500226 0.035 -1.42033e+06
0.0882842 0.0509709 0.035 -1.41469e+06
0.0899348 0.0519239 0.035 -1.40086e+06
0.0915911 0.0528801 0.035 -1.37773e+06
0.0932563 0.0538416 0.035 -1.38163e+06
0.0949268 0.054806 0.035 -1.36747e+06
0.0966067 0.0557759 0.035 -1.38121e+06
0.0982939 0.05675 0.035 -1.36856e+06
0.0999887 0.0577286 0.035 -1.36865e+06
0.101694 0.0587128 0.035 -1.38808e+06
0.103404 0.0597003 0.035 -1.34528e+06
0.105124 0.0606937 0.035 -1.34989e+06
0.106851 0.0616907 0.035 -1.32317e+06
0.108589 0.0626936 0.035 -1.32663e+06
0.110336 0.0637025 0.035 -1.34984e+06
0.11209 0.0647152 0.035 -1.31944e+06
0.113855 0.0657342 0.035 -1.33089e+06
0.115626 0.0667569 0.035 -1.28129e+06
0.117409 0.0677863 0.035 -1.40966e+06
0.119202 0.0688211 0.035 -1.42452e+06
0.121003 0.069861 0.035 -1.26451e+06
0.122816 0.0709077 0.035 -1.25879e+06
0.124635 0.0719584 0.035 -1.36206e+06
0.126467 0.0730161 0.035 -1.3695e+06
0.128308 0.0740787 0.035 -1.28945e+06
0.13016 0.0751479 0.035 -1.28794e+06
0.132024 0.0762243 0.035 -1.24199e+06
0.133897 0.0773051 0.035 -1.24666e+06
0.135782 0.0783935 0.035 -1.26214e+06
0.137675 0.0794865 0.035 -1.23341e+06
0.139581 0.0805871 0.035 -1.34537e+06
0.1415 0.081695 0.035 -1.36107e+06
0.143428 0.0828082 0.035 -1.28496e+06
0.145371 0.0839295 0.035 -1.18432e+06
0.147321 0.0850557 0.035 -1.19417e+06
0.149285 0.08619 0.035 -1.44144e+06
0.151261 0.0873308 0.035 -1.46483e+06
0.153249 0.0884787 0.035 -1.17885e+06
0.155253 0.0896352 0.035 -1.19776e+06
0.157264 0.0907968 0.035 -1.18808e+06
0.159292 0.0919673 0.035 -1.16077e+06
0.161329 0.093143 0.035 -1.1667e+06
