# wallHeatFlux  FACE_DATA 298
# x  y  z  wallHeatFlux
-0.789454 0 0.005 1.2191e+06
-0.76864 0 0.005 1.21418e+06
-0.748373 0 0.005 1.21246e+06
-0.72864 0 0.005 1.21354e+06
-0.709426 0 0.005 1.21766e+06
-0.690719 0 0.005 1.22147e+06
-0.672503 0 0.005 1.22507e+06
-0.654767 0 0.005 1.22807e+06
-0.637498 0 0.005 1.23049e+06
-0.620683 0 0.005 1.23232e+06
-0.604311 0 0.005 1.23365e+06
-0.588369 0 0.005 1.23472e+06
-0.572847 0 0.005 1.23559e+06
-0.557734 0 0.005 1.23626e+06
-0.543018 0 0.005 1.23674e+06
-0.52869 0 0.005 1.23711e+06
-0.514738 0 0.005 1.23738e+06
-0.501153 0 0.005 1.23756e+06
-0.487926 0 0.005 1.23766e+06
-0.475046 0 0.005 1.2377e+06
-0.462505 0 0.005 1.23767e+06
-0.450294 0 0.005 1.23765e+06
-0.438403 0 0.005 1.23757e+06
-0.426826 0 0.005 1.23749e+06
-0.415552 0 0.005 1.23736e+06
-0.404575 0 0.005 1.2372e+06
-0.393887 0 0.005 1.23703e+06
-0.383478 0 0.005 1.23683e+06
-0.373344 0 0.005 1.23659e+06
-0.363476 0 0.005 1.23637e+06
-0.353866 0 0.005 1.23617e+06
-0.34451 0 0.005 1.23594e+06
-0.335398 0 0.005 1.2357e+06
-0.326526 0 0.005 1.23545e+06
-0.317887 0 0.005 1.23522e+06
-0.309474 0 0.005 1.23497e+06
-0.301281 0 0.005 1.23468e+06
-0.293304 0 0.005 1.2345e+06
-0.285535 0 0.005 1.23427e+06
-0.277971 0 0.005 1.23403e+06
-0.270605 0 0.005 1.23386e+06
-0.263431 0 0.005 1.23362e+06
-0.256444 0 0.005 1.23342e+06
-0.249642 0 0.005 1.23321e+06
-0.243016 0 0.005 1.233e+06
-0.236565 0 0.005 1.23279e+06
-0.230282 0 0.005 1.23267e+06
-0.224163 0 0.005 1.23254e+06
-0.218204 0 0.005 1.23231e+06
-0.2124 0 0.005 1.23219e+06
-0.206748 0 0.005 1.23209e+06
-0.201243 0 0.005 1.23192e+06
-0.195882 0 0.005 1.23174e+06
-0.190661 0 0.005 1.23171e+06
-0.185575 0 0.005 1.23158e+06
-0.180621 0 0.005 1.2315e+06
-0.175796 0 0.005 1.23141e+06
-0.171097 0 0.005 1.23134e+06
-0.16652 0 0.005 1.23127e+06
-0.162061 0 0.005 1.2312e+06
-0.157718 0 0.005 1.23114e+06
-0.153487 0 0.005 1.23109e+06
-0.149367 0 0.005 1.23101e+06
-0.145351 0 0.005 1.23108e+06
-0.14144 0 0.005 1.231e+06
-0.13763 0 0.005 1.23092e+06
-0.133918 0 0.005 1.23102e+06
-0.130302 0 0.005 1.23089e+06
-0.126778 0 0.005 1.23094e+06
-0.123345 0 0.005 1.23094e+06
-0.119999 0 0.005 1.23096e+06
-0.116739 0 0.005 1.23098e+06
-0.113562 0 0.005 1.23107e+06
-0.110466 0 0.005 1.23103e+06
-0.107449 0 0.005 1.23106e+06
-0.104509 0 0.005 1.23103e+06
-0.101644 0 0.005 1.23113e+06
-0.0988499 0 0.005 1.23122e+06
-0.0961267 0 0.005 1.23124e+06
-0.0934723 0 0.005 1.23128e+06
-0.0908845 0 0.005 1.23135e+06
-0.0883616 0 0.005 1.23141e+06
-0.0859017 0 0.005 1.23147e+06
-0.0835029 0 0.005 1.23154e+06
-0.0811636 0 0.005 1.23162e+06
-0.0788823 0 0.005 1.23168e+06
-0.0766572 0 0.005 1.23179e+06
-0.0744867 0 0.005 1.23186e+06
-0.0723694 0 0.005 1.23197e+06
-0.0703036 0 0.005 1.23204e+06
-0.068288 0 0.005 1.23215e+06
-0.0663211 0 0.005 1.23225e+06
-0.0644014 0 0.005 1.23235e+06
-0.0625277 0 0.005 1.23246e+06
-0.0606985 0 0.005 1.23258e+06
-0.0589126 0 0.005 1.23269e+06
-0.0571687 0 0.005 1.23281e+06
-0.0554656 0 0.005 1.23294e+06
-0.0538019 0 0.005 1.23308e+06
-0.0521766 0 0.005 1.23319e+06
-0.0505886 0 0.005 1.23335e+06
-0.0490366 0 0.005 1.23347e+06
-0.0475196 0 0.005 1.23363e+06
-0.0460364 0 0.005 1.23378e+06
-0.0445861 0 0.005 1.23395e+06
-0.0431675 0 0.005 1.2341e+06
-0.0417798 0 0.005 1.23425e+06
-0.0404219 0 0.005 1.23444e+06
-0.0390927 0 0.005 1.23462e+06
-0.0377914 0 0.005 1.23481e+06
-0.0365171 0 0.005 1.23501e+06
-0.0352688 0 0.005 1.23521e+06
-0.0340456 0 0.005 1.23544e+06
-0.0328467 0 0.005 1.23562e+06
-0.0316712 0 0.005 1.23587e+06
-0.0305183 0 0.005 1.23613e+06
-0.0293871 0 0.005 1.23636e+06
-0.028277 0 0.005 1.23665e+06
-0.0271869 0 0.005 1.23693e+06
-0.0261162 0 0.005 1.23725e+06
-0.0250641 0 0.005 1.23754e+06
-0.02403 0 0.005 1.23787e+06
-0.023013 0 0.005 1.23826e+06
-0.0220124 0 0.005 1.23866e+06
-0.0210274 0 0.005 1.23909e+06
-0.0200575 0 0.005 1.23957e+06
-0.0191018 0 0.005 1.2401e+06
-0.0181598 0 0.005 1.24068e+06
-0.0172307 0 0.005 1.24133e+06
-0.0163139 0 0.005 1.24205e+06
-0.0154087 0 0.005 1.24288e+06
-0.0145146 0 0.005 1.2439e+06
-0.0136307 0 0.005 1.24497e+06
-0.0127566 0 0.005 1.24639e+06
-0.0118916 0 0.005 1.24811e+06
-0.011035 0 0.005 1.25011e+06
-0.0101864 0 0.005 1.25234e+06
-0.00934497 0 0.005 1.25541e+06
-0.00851021 0 0.005 1.25928e+06
-0.00768153 0 0.005 1.26378e+06
-0.00685832 0 0.005 1.26904e+06
-0.00604 0 0.005 1.27625e+06
-0.00522598 0 0.005 1.28576e+06
-0.0044157 0 0.005 1.29716e+06
-0.00360857 0 0.005 1.31083e+06
-0.002804 0 0.005 1.32168e+06
-0.00200143 0 0.005 1.33111e+06
-0.00120028 0 0.005 1.32945e+06
-0.0004 0 0.005 1.31474e+06
0.00034641 0.0002 0.005 1.24461e+06
0.00103936 0.000600074 0.005 1.2545e+06
0.00173269 0.00100037 0.005 1.25888e+06
0.00242667 0.00140104 0.005 1.25705e+06
0.00312154 0.00180222 0.005 1.25378e+06
0.00381758 0.00220408 0.005 1.24816e+06
0.00451503 0.00260675 0.005 1.24332e+06
0.00521415 0.00301039 0.005 1.23976e+06
0.0059152 0.00341514 0.005 1.23717e+06
0.00661845 0.00382117 0.005 1.23552e+06
0.00732415 0.0042286 0.005 1.23311e+06
0.00803257 0.00463761 0.005 1.23125e+06
0.00874396 0.00504833 0.005 1.23032e+06
0.0094586 0.00546093 0.005 1.2294e+06
0.0101767 0.00587555 0.005 1.22961e+06
0.0108987 0.00629234 0.005 1.2297e+06
0.0116246 0.00671146 0.005 1.22863e+06
0.0123549 0.00713309 0.005 1.22863e+06
0.0130897 0.00755735 0.005 1.22916e+06
0.0138294 0.00798441 0.005 1.22863e+06
0.0145742 0.00841443 0.005 1.22504e+06
0.0153244 0.00884757 0.005 1.225e+06
0.0160804 0.009284 0.005 1.22557e+06
0.0168422 0.00972386 0.005 1.22249e+06
0.0176104 0.0101673 0.005 1.22143e+06
0.018385 0.0106146 0.005 1.22394e+06
0.0191664 0.0110657 0.005 1.22398e+06
0.019955 0.011521 0.005 1.22091e+06
0.0207509 0.0119805 0.005 1.22091e+06
0.0215546 0.0124445 0.005 1.22091e+06
0.0223662 0.0129131 0.005 1.2209e+06
0.0231861 0.0133865 0.005 1.22091e+06
0.0240146 0.0138648 0.005 1.22091e+06
0.0248521 0.0143483 0.005 1.22091e+06
0.0256987 0.0148371 0.005 1.22091e+06
0.0265549 0.0153315 0.005 1.22091e+06
0.0274209 0.0158315 0.005 1.22091e+06
0.0282971 0.0163373 0.005 1.22394e+06
0.0291837 0.0168492 0.005 1.22397e+06
0.0300812 0.0173674 0.005 1.22091e+06
0.0309898 0.017892 0.005 1.2209e+06
0.03191 0.0184232 0.005 1.22394e+06
0.0328419 0.0189613 0.005 1.22397e+06
0.033786 0.0195063 0.005 1.22091e+06
0.0347427 0.0200587 0.005 1.22091e+06
0.0357122 0.0206184 0.005 1.22091e+06
0.036695 0.0211858 0.005 1.22091e+06
0.0376913 0.0217611 0.005 1.22394e+06
0.0387017 0.0223444 0.005 1.22397e+06
0.0397264 0.022936 0.005 1.22091e+06
0.0407658 0.0235361 0.005 1.22091e+06
0.0418202 0.0241449 0.005 1.22394e+06
0.0428902 0.0247627 0.005 1.22397e+06
0.0439762 0.0253897 0.005 1.22091e+06
0.0450784 0.0260261 0.005 1.22091e+06
0.0461974 0.0266721 0.005 1.22091e+06
0.0473334 0.0273279 0.005 1.22091e+06
0.0484871 0.027994 0.005 1.22091e+06
0.0496586 0.0286704 0.005 1.22394e+06
0.0508486 0.0293575 0.005 1.22703e+06
0.0520574 0.0300554 0.005 1.22397e+06
0.0532855 0.0307644 0.005 1.22091e+06
0.0545335 0.0314849 0.005 1.22091e+06
0.0558016 0.0322171 0.005 1.22091e+06
0.0570903 0.0329612 0.005 1.22091e+06
0.0584003 0.0337174 0.005 1.22091e+06
0.0597319 0.0344863 0.005 1.22091e+06
0.0610857 0.0352678 0.005 1.22091e+06
0.062462 0.0360624 0.005 1.22395e+06
0.0638616 0.0368705 0.005 1.22397e+06
0.0652848 0.0376922 0.005 1.22395e+06
0.0667321 0.0385279 0.005 1.22397e+06
0.0682043 0.0393778 0.005 1.22395e+06
0.0697018 0.0402423 0.005 1.22397e+06
0.071225 0.0411218 0.005 1.22091e+06
0.0727747 0.0420165 0.005 1.22091e+06
0.0743514 0.0429267 0.005 1.22091e+06
0.0759556 0.043853 0.005 1.22091e+06
0.0775879 0.0447954 0.005 1.22091e+06
0.0792491 0.0457545 0.005 1.22091e+06
0.0809395 0.0467305 0.005 1.22395e+06
0.08266 0.0477239 0.005 1.22397e+06
0.0844112 0.0487348 0.005 1.22091e+06
0.0861936 0.0497639 0.005 1.22091e+06
0.0880081 0.0508114 0.005 1.22091e+06
0.089855 0.0518778 0.005 1.22091e+06
0.0917354 0.0529634 0.005 1.22091e+06
0.0936497 0.0540687 0.005 1.22091e+06
0.0955988 0.055194 0.005 1.22091e+06
0.0975833 0.0563398 0.005 1.22395e+06
0.0996037 0.0575064 0.005 1.24876e+06
0.101662 0.0586943 0.005 1.23926e+06
0.103757 0.0599039 0.005 1.20884e+06
0.10589 0.0611359 0.005 1.20884e+06
0.108064 0.0623905 0.005 1.20884e+06
0.110277 0.0636682 0.005 1.21403e+06
0.112531 0.0649695 0.005 1.21403e+06
0.114826 0.0662949 0.005 1.23913e+06
0.117164 0.0676448 0.005 1.23926e+06
0.119546 0.0690198 0.005 1.20884e+06
0.121972 0.0704204 0.005 1.20884e+06
0.124443 0.0718472 0.005 1.20884e+06
0.126961 0.0733005 0.005 1.20884e+06
0.129525 0.0747811 0.005 1.20884e+06
0.132137 0.0762893 0.005 1.20884e+06
0.134798 0.0778258 0.005 1.23914e+06
0.13751 0.0793912 0.005 1.23925e+06
0.140272 0.080986 0.005 1.21403e+06
0.143086 0.0826109 0.005 1.25011e+06
0.145954 0.0842664 0.005 1.24459e+06
0.148875 0.085953 0.005 1.23915e+06
0.151852 0.0876716 0.005 1.23924e+06
0.154884 0.0894226 0.005 1.20884e+06
0.157975 0.0912068 0.005 1.24451e+06
0.161123 0.0930248 0.005 1.2502e+06
0.164332 0.0948773 0.005 1.21928e+06
0.167602 0.096765 0.005 1.21928e+06
0.170933 0.0986885 0.005 1.21403e+06
0.174328 0.100649 0.005 1.19855e+06
0.177788 0.102646 0.005 1.1885e+06
0.181313 0.104681 0.005 1.1885e+06
0.184907 0.106756 0.005 1.23992e+06
0.188568 0.10887 0.005 1.29767e+06
0.192299 0.111024 0.005 1.23987e+06
0.196102 0.113219 0.005 1.1885e+06
0.199977 0.115456 0.005 1.18851e+06
0.203926 0.117737 0.005 1.23992e+06
0.20795 0.120061 0.005 1.27274e+06
0.212053 0.122428 0.005 1.21787e+06
0.216234 0.124843 0.005 1.23992e+06
0.220494 0.127302 0.005 1.23987e+06
0.224837 0.129809 0.005 1.1885e+06
0.229262 0.132365 0.005 1.27081e+06
0.233773 0.134969 0.005 1.33273e+06
0.23837 0.137624 0.005 1.27275e+06
0.243057 0.140328 0.005 1.21786e+06
0.247833 0.143086 0.005 1.18851e+06
0.2527 0.145896 0.005 1.2178e+06
0.257662 0.148761 0.005 1.21787e+06
0.262718 0.151681 0.005 1.27081e+06
0.267873 0.154657 0.005 1.27084e+06
0.273127 0.15769 0.005 1.1885e+06
0.278482 0.160781 0.005 1.1885e+06
0.28394 0.163933 0.005 1.23991e+06
0.289504 0.167145 0.005 1.23988e+06
0.295175 0.170419 0.005 1.23991e+06
0.300955 0.173756 0.005 1.29767e+06
0.306846 0.177158 0.005 1.29767e+06
0.312851 0.180625 0.005 1.23988e+06
