# wallHeatFlux  FACE_DATA 448
# x  y  z  wallHeatFlux
-0.778 -3.80769e-06 0 -198882
-0.773968 -3.80769e-06 0 -40154.3
-0.769872 -3.80769e-06 0 -24476.2
-0.76571 -3.80769e-06 0 -19627.1
-0.761486 -3.80769e-06 0 -16565.7
-0.757196 -3.80769e-06 0 -14607.2
-0.752841 -3.80769e-06 0 -13270.9
-0.748422 -3.80769e-06 0 -12247.7
-0.743939 -3.80769e-06 0 -11454.3
-0.739391 -3.80769e-06 0 -10807.6
-0.73478 -3.80769e-06 0 -10271.1
-0.730104 -3.80769e-06 0 -9818.97
-0.725364 -3.80769e-06 0 -9440.76
-0.720562 -3.80769e-06 0 -9157.91
-0.715696 -3.80769e-06 0 -8997.32
-0.710769 -3.80769e-06 0 -9130.51
-0.705778 -3.80769e-06 0 -9509.85
-0.700727 -3.80769e-06 0 -10162.3
-0.695615 -3.80769e-06 0 -10917
-0.690443 -3.80769e-06 0 -11624.3
-0.685211 -3.80769e-06 0 -12187.7
-0.67992 -3.80769e-06 0 -12622.9
-0.674571 -3.80769e-06 0 -12945.8
-0.669166 -3.80769e-06 0 -13194
-0.663704 -3.80769e-06 0 -13383.2
-0.658187 -3.80769e-06 0 -13524.2
-0.652616 -3.80769e-06 0 -13622.2
-0.646993 -3.80769e-06 0 -13677.2
-0.641317 -3.80769e-06 0 -13700.2
-0.635592 -3.80769e-06 0 -13711
-0.629817 -3.80769e-06 0 -13701.8
-0.623994 -3.80769e-06 0 -13674.6
-0.618125 -3.80769e-06 0 -13632.2
-0.61221 -3.80769e-06 0 -13583.8
-0.606252 -3.80769e-06 0 -13535.2
-0.600253 -3.80769e-06 0 -13475.5
-0.594213 -3.80769e-06 0 -13415.6
-0.588134 -3.80769e-06 0 -13350
-0.582018 -3.80769e-06 0 -13289.6
-0.575867 -3.80769e-06 0 -13228.9
-0.569683 -3.80769e-06 0 -13162.4
-0.563467 -3.80769e-06 0 -13095.7
-0.557221 -3.80769e-06 0 -13029.1
-0.550946 -3.80769e-06 0 -12972
-0.544647 -3.80769e-06 0 -12915.7
-0.538323 -3.80769e-06 0 -12853.4
-0.531979 -3.80769e-06 0 -12796.2
-0.525613 -3.80769e-06 0 -12733.4
-0.51923 -3.80769e-06 0 -12681
-0.512832 -3.80769e-06 0 -12633.9
-0.50642 -3.80769e-06 0 -12581.1
-0.499995 -3.80769e-06 0 -12528.5
-0.493562 -3.80769e-06 0 -12474.9
-0.487123 -3.80769e-06 0 -12421.5
-0.480677 -3.80769e-06 0 -12373.3
-0.47423 -3.80769e-06 0 -12340.7
-0.467782 -3.80769e-06 0 -12303.1
-0.461335 -3.80769e-06 0 -12265.3
-0.454892 -3.80769e-06 0 -12215.5
-0.448455 -3.80769e-06 0 -12166.8
-0.442026 -3.80769e-06 0 -12122.1
-0.435607 -3.80769e-06 0 -12078.2
-0.429202 -3.80769e-06 0 -12050.1
-0.42281 -3.80769e-06 0 -12027.2
-0.416434 -3.80769e-06 0 -11999
-0.410078 -3.80769e-06 0 -11964.3
-0.403743 -3.80769e-06 0 -11919.6
-0.39743 -3.80769e-06 0 -11874.7
-0.391141 -3.80769e-06 0 -11828.9
-0.38488 -3.80769e-06 0 -11794.6
-0.378648 -3.80769e-06 0 -11760
-0.372446 -3.80769e-06 0 -11752.3
-0.366277 -3.80769e-06 0 -11739.3
-0.360142 -3.80769e-06 0 -11719.9
-0.354042 -3.80769e-06 0 -11696
-0.347981 -3.80769e-06 0 -11660.9
-0.341959 -3.80769e-06 0 -11620.6
-0.335978 -3.80769e-06 0 -11574.3
-0.33004 -3.80769e-06 0 -11533.3
-0.324146 -3.80769e-06 0 -11504
-0.318298 -3.80769e-06 0 -11473.8
-0.312497 -3.80769e-06 0 -11465.5
-0.306744 -3.80769e-06 0 -11462.4
-0.301041 -3.80769e-06 0 -11459.4
-0.29539 -3.80769e-06 0 -11450.6
-0.28979 -3.80769e-06 0 -11437.4
-0.284243 -3.80769e-06 0 -11423.2
-0.278752 -3.80769e-06 0 -11398.6
-0.273316 -3.80769e-06 0 -11368.7
-0.267937 -3.80769e-06 0 -11333.4
-0.262614 -3.80769e-06 0 -11297.8
-0.25735 -3.80769e-06 0 -11257.9
-0.252146 -3.80769e-06 0 -11227.7
-0.247001 -3.80769e-06 0 -11203.3
-0.241916 -3.80769e-06 0 -11184.2
-0.236893 -3.80769e-06 0 -11176
-0.231931 -3.80769e-06 0 -11167.6
-0.227031 -3.80769e-06 0 -11165.7
-0.222195 -3.80769e-06 0 -11168
-0.217421 -3.80769e-06 0 -11165.4
-0.212711 -3.80769e-06 0 -11167.8
-0.208064 -3.80769e-06 0 -11160.7
-0.203482 -3.80769e-06 0 -11152
-0.198964 -3.80769e-06 0 -11139.4
-0.19451 -3.80769e-06 0 -11126.5
-0.19012 -3.80769e-06 0 -11103
-0.185796 -3.80769e-06 0 -11085.2
-0.181535 -3.80769e-06 0 -11061.3
-0.17734 -3.80769e-06 0 -11032.2
-0.173208 -3.80769e-06 0 -11009.7
-0.169141 -3.80769e-06 0 -10985.5
-0.165138 -3.80769e-06 0 -10957.9
-0.161199 -3.80769e-06 0 -10939.9
-0.157325 -3.80769e-06 0 -10922.3
-0.153513 -3.80769e-06 0 -10904.8
-0.149765 -3.80769e-06 0 -10892.2
-0.14608 -3.80769e-06 0 -10886
-0.142457 -3.80769e-06 0 -10879.9
-0.138897 -3.80769e-06 0 -10877.6
-0.135398 -3.80769e-06 0 -10877.6
-0.131961 -3.80769e-06 0 -10881.6
-0.128584 -3.80769e-06 0 -10880.2
-0.125268 -3.80769e-06 0 -10885.3
-0.122011 -3.80769e-06 0 -10890.5
-0.118815 -3.80769e-06 0 -10894.1
-0.115677 -3.80769e-06 0 -10899.4
-0.112597 -3.80769e-06 0 -10898.8
-0.109574 -3.80769e-06 0 -10899
-0.106609 -3.80769e-06 0 -10898.1
-0.1037 -3.80769e-06 0 -10892.5
-0.100846 -3.80769e-06 0 -10886.6
-0.098048 -3.80769e-06 0 -10881.4
-0.0953042 -3.80769e-06 0 -10876
-0.0926143 -3.80769e-06 0 -10870.6
-0.0899773 -3.80769e-06 0 -10865.3
-0.0873927 -3.80769e-06 0 -10854.6
-0.0848599 -3.80769e-06 0 -10844.3
-0.082378 -3.80769e-06 0 -10833.7
-0.0799465 -3.80769e-06 0 -10823.4
-0.0775645 -3.80769e-06 0 -10813.2
-0.0752312 -3.80769e-06 0 -10802.8
-0.0729462 -3.80769e-06 0 -10792.7
-0.0707085 -3.80769e-06 0 -10782.6
-0.0685175 -3.80769e-06 0 -10767.2
-0.0663725 -3.80769e-06 0 -10757.1
-0.0642727 -3.80769e-06 0 -10747.2
-0.0622173 -3.80769e-06 0 -10737.4
-0.0602058 -3.80769e-06 0 -10727.4
-0.0582373 -3.80769e-06 0 -10712.3
-0.0563111 -3.80769e-06 0 -10702.6
-0.0544265 -3.80769e-06 0 -10698.3
-0.0525827 -3.80769e-06 0 -10688.6
-0.0507792 -3.80769e-06 0 -10679.1
-0.0490152 -3.80769e-06 0 -10669.6
-0.0472898 -3.80769e-06 0 -10660.2
-0.0456025 -3.80769e-06 0 -10656.1
-0.0439526 -3.80769e-06 0 -10646.8
-0.0423394 -3.80769e-06 0 -10642.8
-0.0407622 -3.80769e-06 0 -10633.7
-0.0392203 -3.80769e-06 0 -10630
-0.0377131 -3.80769e-06 0 -10620.9
-0.0362398 -3.80769e-06 0 -10617.3
-0.0347999 -3.80769e-06 0 -10613.8
-0.0333926 -3.80769e-06 0 -10605
-0.0320175 -3.80769e-06 0 -10601.7
-0.0306737 -3.80769e-06 0 -10598.4
-0.0293607 -3.80769e-06 0 -10595.5
-0.0280779 -3.80769e-06 0 -10592.2
-0.0268246 -3.80769e-06 0 -10584.3
-0.0256004 -3.80769e-06 0 -10581.3
-0.0244045 -3.80769e-06 0 -10584.3
-0.0232363 -3.80769e-06 0 -10592.9
-0.0220954 -3.80769e-06 0 -10579.7
-0.0209812 -3.80769e-06 0 -10384.6
-0.019893 -3.80769e-06 0 -9710.8
-0.0188303 -3.80769e-06 0 -8568.99
-0.0177927 -3.80769e-06 0 -7523.42
-0.0167794 -3.80769e-06 0 -7236.45
-0.0157901 -3.80769e-06 0 -7660.37
-0.0148243 -3.80769e-06 0 -8398.23
-0.0138814 -3.80769e-06 0 -9062.34
-0.0129608 -3.80769e-06 0 -9615.13
-0.0120623 -3.80769e-06 0 -10061.4
-0.0111851 -3.80769e-06 0 -10430.6
-0.0103289 -3.80769e-06 0 -10748.4
-0.00949328 -3.80769e-06 0 -11026.5
-0.00867767 -3.80769e-06 0 -11260.1
-0.00788168 -3.80769e-06 0 -11457.7
-0.00710485 -3.80769e-06 0 -11614.5
-0.00634675 -3.80769e-06 0 -11747.3
-0.00560698 -3.80769e-06 0 -11857.9
-0.0048851 -3.80769e-06 0 -12009.2
-0.00418071 -3.80769e-06 0 -12250.8
-0.00349342 -3.80769e-06 0 -12666
-0.00282284 -3.80769e-06 0 -13424.8
-0.00216857 -3.80769e-06 0 -14432.4
-0.00153026 -3.80769e-06 0 -15530.1
-0.00090752 -3.80769e-06 0 -15878.8
-0.0003 -3.80769e-06 0 -14385.8
0.000259937 0.000146262 2.25537e-21 -13176.5
0.000779437 0.000446185 0 -16188.6
0.00129893 0.000746101 0 -19342.9
0.00181858 0.00104611 2.2554e-21 -21851.9
0.00233835 0.00134618 -2.25541e-21 -23986.7
0.00285828 0.00164636 2.25542e-21 -25925.6
0.00337841 0.00194664 0 -27910
0.00389877 0.00224706 0 -29949.9
0.00441941 0.00254764 -2.25544e-21 -32108.8
0.00494034 0.00284839 2.25545e-21 -34337.9
0.00546162 0.00314934 -2.25546e-21 -36668.9
0.00598328 0.0034505 2.25547e-21 -39109.9
0.00650535 0.00375191 2.25547e-21 -41701.7
0.00702786 0.00405357 2.25548e-21 -44490.4
0.00755087 0.00435552 0 -47503.3
0.00807439 0.00465776 -2.25549e-21 -50728.1
0.00859847 0.00496033 2.2555e-21 -54123.2
0.00912315 0.00526324 0 -57643.5
0.00964845 0.00556651 2.25551e-21 -61219.9
0.0101744 0.00587017 0 -64826
0.0107011 0.00617424 0 -68467.8
0.0112285 0.00647873 -2.25552e-21 -72129.6
0.0117567 0.00678367 0 -75840.2
0.0122857 0.00708907 0 -79652.5
0.0128156 0.00739497 0 -83525.2
0.0133463 0.00770137 -2.25554e-21 -87501.2
0.0138779 0.00800831 0 -91526.6
0.0144106 0.0083158 0 -95545
0.0149442 0.00862387 0 -99574
0.0154788 0.00893253 0 -103637
0.0160145 0.00924181 0 -107845
0.0165513 0.00955172 2.25556e-21 -112451
0.0170893 0.00986231 -2.25556e-21 -117754
0.0176284 0.0101736 0 -123936
0.0181687 0.0104855 0 -130904
0.0187103 0.0107982 2.25556e-21 -138459
0.0192532 0.0111117 2.25557e-21 -146528
0.0197975 0.0114259 2.25557e-21 -154793
0.0203431 0.0117408 0 -162917
0.0208901 0.0120566 4.51114e-21 -170649
0.0214385 0.0123732 -4.51114e-21 -177863
0.0219884 0.0126907 0 -184862
0.0225398 0.0130091 4.51114e-21 -191733
0.0230928 0.0133283 0 -198573
0.0236474 0.0136485 0 -204802
0.0242037 0.0139697 0 -210219
0.0247616 0.0142918 -4.51113e-21 -214226
0.0253212 0.0146148 -4.51113e-21 -217251
0.0258825 0.0149389 -4.51114e-21 -218643
0.0264456 0.015264 0 -219973
0.0270106 0.0155902 0 -220945
0.0275774 0.0159174 -4.51112e-21 -221516
0.0281462 0.0162457 0 -221805
0.0287168 0.0165752 4.51111e-21 -222085
0.0292895 0.0169059 -4.51111e-21 -222242
0.0298642 0.0172376 0 -222048
0.0304409 0.0175706 0 -221053
0.0310198 0.0179048 4.5111e-21 -220046
0.0316007 0.0182402 4.5111e-21 -218829
0.0321839 0.0185768 -4.51107e-21 -217356
0.0327693 0.0189148 0 -216459
0.0333569 0.0192541 0 -215395
0.0339469 0.0195947 4.51106e-21 -214788
0.0345392 0.0199366 0 -213735
0.0351339 0.02028 0 -212054
0.035731 0.0206247 4.51105e-21 -210200
0.0363305 0.0209708 -4.51103e-21 -208459
0.0369326 0.0213184 4.51102e-21 -206592
0.0375373 0.0216675 0 -204818
0.0381445 0.0220181 0 -202725
0.0387543 0.0223702 0 -201442
0.0393668 0.0227238 4.51099e-21 -199162
0.0399821 0.023079 -4.51097e-21 -197783
0.0406001 0.0234358 4.51097e-21 -195602
0.041221 0.0237942 0 -194214
0.0418446 0.0241542 0 -192641
0.0424712 0.024516 4.51092e-21 -190989
0.0431006 0.0248794 -4.51094e-21 -189949
0.0437331 0.0252445 0 -188591
0.0443686 0.0256114 4.51089e-21 -186805
0.0450071 0.02598 4.51089e-21 -185808
0.0456487 0.0263505 0 -184350
0.0462935 0.0267227 0 -183423
0.0469415 0.0270968 -4.51085e-21 -181747
0.0475927 0.0274728 0 -180536
0.0482473 0.0278507 -4.51081e-21 -179124
0.0489051 0.0282305 4.51081e-21 -177551
0.0495663 0.0286122 -4.51079e-21 -176359
0.050231 0.0289959 0 -175284
0.0508991 0.0293816 -4.51077e-21 -174142
0.0515707 0.0297694 4.51073e-21 -173113
0.0522459 0.0301592 -4.51073e-21 -172635
0.0529247 0.0305511 0 -171238
0.0536071 0.0309451 0 -170946
0.0542933 0.0313412 -4.51067e-21 -169797
0.0549832 0.0317395 0 -169294
0.0556769 0.03214 0 -168367
0.0563744 0.0325427 0 -167675
0.0570758 0.0329477 -4.5106e-21 -167002
0.0577812 0.0333549 0 -166241
0.0584905 0.0337645 0 -165041
0.0592039 0.0341763 -4.51056e-21 -164595
0.0599214 0.0345905 4.51053e-21 -163308
0.060643 0.0350071 0 -162821
0.0613688 0.0354262 4.51049e-21 -161757
0.0620989 0.0358477 -4.51048e-21 -161274
0.0628332 0.0362716 4.51046e-21 -160554
0.0635719 0.0366981 0 -159918
0.0643149 0.037127 4.51041e-21 -159855
0.0650624 0.0375586 0 -159029
0.0658144 0.0379927 0 -159014
0.0665709 0.0384295 4.51035e-21 -158155
0.0673321 0.0388689 -4.51035e-21 -157772
0.0680979 0.039311 0 -157210
0.0688683 0.0397558 -4.51029e-21 -156057
0.0696435 0.0402034 4.51029e-21 -155482
0.0704236 0.0406537 0 -154570
0.0712085 0.0411069 0 -154230
0.0719983 0.0415628 0 -153342
0.0727931 0.0420217 0 -152954
0.0735929 0.0424834 0 -152706
0.0743978 0.0429481 0 -152132
0.0752078 0.0434158 0 -151889
0.076023 0.0438864 4.5101e-21 -151061
0.0768435 0.0443601 -4.51009e-21 -150851
0.0776693 0.0448369 -4.51004e-21 -150141
0.0785004 0.0453167 4.51003e-21 -149442
0.079337 0.0457997 0 -149129
0.080179 0.0462858 0 -148329
0.0810266 0.0467751 0 -147729
0.0818797 0.0472677 0 -147757
0.0827385 0.0477635 0 -146994
0.083603 0.0482626 0 -146981
0.0844733 0.0487651 4.50985e-21 -146630
0.0853495 0.0492709 -4.50983e-21 -146217
0.0862316 0.0497801 0 -145956
0.0871195 0.0502927 -4.50978e-21 -144992
0.0880135 0.0508089 0 -144656
0.0889136 0.0513285 0 -144211
0.0898198 0.0518517 0 -143381
0.0907322 0.0523785 0 -142961
0.0916509 0.0529089 0 -142388
0.0925758 0.0534429 4.50963e-21 -142022
0.0935072 0.0539806 4.50959e-21 -141615
0.094445 0.054522 0 -141363
0.0953894 0.0550672 4.50953e-21 -141041
0.0963404 0.0556162 0 -140734
0.0972979 0.0561691 0 -140203
0.0982622 0.0567258 0 -140004
0.0992333 0.0572865 0 -139709
0.100211 0.057851 0 -139221
0.101196 0.0584196 0 -138342
0.102188 0.0589922 4.50935e-21 -138441
0.103187 0.0595689 4.50932e-21 -138022
0.104193 0.0601497 -4.50928e-21 -136947
0.105206 0.0607347 0 -137150
0.106226 0.0613239 0 -136395
0.107254 0.0619172 0 -136151
0.10829 0.0625149 4.50918e-21 -135620
0.109332 0.0631169 4.50915e-21 -135335
0.110382 0.0637232 -4.50911e-21 -135214
0.11144 0.064334 -4.50908e-21 -134683
0.112506 0.0649492 4.50905e-21 -134699
0.11358 0.0655688 4.50902e-21 -133774
0.114661 0.066193 0 -133770
0.11575 0.0668218 0 -133683
0.116847 0.0674552 0 -133533
0.117952 0.0680932 0 -133233
0.119065 0.068736 0 -133156
0.120187 0.0693834 4.50884e-21 -132235
0.121316 0.0700357 0 -132201
0.122455 0.0706928 0 -132064
0.123601 0.0713548 -4.50875e-21 -130849
0.124756 0.0720217 0 -131353
0.12592 0.0726935 -4.5087e-21 -130711
0.127093 0.0733704 0 -130512
0.128274 0.0740524 0 -129850
0.129464 0.0747395 4.50859e-21 -129911
0.130663 0.0754317 0 -129563
0.131871 0.0761292 4.50853e-21 -128928
0.133088 0.0768319 4.50851e-21 -129411
0.134315 0.0775399 0 -128881
0.13555 0.0782532 4.50845e-21 -128325
0.136795 0.078972 0 -128519
0.13805 0.0796962 0 -127655
0.139314 0.080426 -4.50834e-21 -127867
0.140587 0.0811613 -4.50831e-21 -127089
0.14187 0.0819021 4.50827e-21 -126825
0.143163 0.0826487 0 -126554
0.144466 0.0834009 0 -126476
0.145779 0.0841589 0 -126457
0.147102 0.0849227 4.50815e-21 -125538
0.148435 0.0856924 4.50811e-21 -125699
0.149779 0.0864679 0 -125380
0.151133 0.0872495 4.50805e-21 -124958
0.152497 0.0880371 4.50801e-21 -124730
0.153871 0.0888307 4.50798e-21 -125206
0.155257 0.0896305 0 -124493
0.156653 0.0904364 4.50791e-21 -124135
0.15806 0.0912487 4.50787e-21 -124458
0.159478 0.0920672 0 -123555
0.160907 0.092892 0 -123262
0.162347 0.0937233 0 -123429
0.163798 0.0945611 4.50774e-21 -122376
0.16526 0.0954054 0 -122821
0.166734 0.0962563 0 -122652
0.168219 0.0971138 0 -122051
0.169716 0.097978 4.50761e-21 -122186
0.171225 0.098849 4.50758e-21 -121668
0.172745 0.0997268 4.50754e-21 -121800
0.174278 0.100611 0 -120814
0.175822 0.101503 0 -121066
0.177379 0.102402 0 -120152
0.178947 0.103308 4.50741e-21 -120865
0.180529 0.10422 4.50737e-21 -120494
0.182122 0.10514 4.50734e-21 -119781
0.183728 0.106068 0 -120304
0.185347 0.107002 -4.50727e-21 -119844
0.186979 0.107944 0 -118937
0.188623 0.108894 0 -119509
0.190281 0.109851 4.50716e-21 -118918
0.191952 0.110815 0 -119119
0.193636 0.111787 -4.5071e-21 -118268
0.195333 0.112767 -4.50707e-21 -118454
0.197044 0.113755 -4.50702e-21 -118016
0.198768 0.114751 -4.507e-21 -117740
0.200506 0.115754 -4.50696e-21 -117459
0.202258 0.116766 0 -117735
0.204024 0.117785 4.50688e-21 -117025
0.205805 0.118813 4.50686e-21 -117472
0.207599 0.119849 0 -116930
0.209408 0.120893 -4.50679e-21 -116643
0.211231 0.121946 -4.50676e-21 -116251
0.213068 0.123007 0 -116886
0.214921 0.124076 0 -115971
0.216788 0.125154 0 -115148
0.21867 0.126241 0 -116115
0.220567 0.127336 0 -115379
0.22248 0.12844 0 -114663
0.224408 0.129553 0 -115595
0.226351 0.130675 0 -114696
0.22831 0.131806 0 -114766
0.230284 0.132946 9.01282e-21 -114348
0.232275 0.134095 0 -114395
0.234282 0.135254 9.01268e-21 -113566
0.236304 0.136421 0 -114033
0.238344 0.137598 9.01253e-21 -113631
0.2404 0.138785 0 -113010
0.242472 0.139982 0 -112382
