# p  FACE_DATA 80
# x  y  z  p
-0.275972 0 0.05 671.719
-0.22368 0 0.05 671.719
-0.181118 0 0.05 671.719
-0.146477 0 0.05 671.719
-0.118282 0 0.05 671.719
-0.0953328 0 0.05 671.719
-0.0766546 0 0.05 671.719
-0.061452 0 0.05 671.719
-0.0490784 0 0.05 671.719
-0.0390072 0 0.05 671.719
-0.0308101 0 0.05 671.719
-0.0241383 0 0.05 671.719
-0.0187081 0 0.05 671.719
-0.0142883 0 0.05 671.719
-0.0106909 0 0.05 671.719
-0.00776298 0 0.05 671.719
-0.00537988 0 0.05 671.719
-0.00344023 0 0.05 671.719
-0.00186151 0 0.05 671.719
-0.000576565 0 0.05 671.719
0.000597825 0 0.05 671.719
0.00183445 0 0.05 671.719
0.00315586 0 0.05 671.719
0.00456785 0 0.05 671.719
0.00607663 0 0.05 671.719
0.00768886 0 0.05 671.719
0.00941159 0 0.05 671.719
0.0112525 0 0.05 671.719
0.0132195 0 0.05 671.719
0.0153214 0 0.05 671.719
0.0175673 0 0.05 671.719
0.0199672 0 0.05 671.719
0.0225317 0 0.05 671.719
0.025272 0 0.05 671.719
0.0282001 0 0.05 671.719
0.031329 0 0.05 671.719
0.0346723 0 0.05 671.719
0.0382449 0 0.05 671.719
0.0420623 0 0.05 671.719
0.0461415 0 0.05 671.719
0.0505002 0 0.05 671.719
0.0551578 0 0.05 671.719
0.0601347 0 0.05 671.719
0.0654528 0 0.05 671.719
0.0711354 0 0.05 671.719
0.0772076 0 0.05 671.719
0.083696 0 0.05 671.719
0.0906293 0 0.05 671.719
0.0980379 0 0.05 671.719
0.105955 0 0.05 671.719
0.114413 0 0.05 671.719
0.123453 0 0.05 671.719
0.133112 0 0.05 671.719
0.143433 0 0.05 671.719
0.154461 0 0.05 671.719
0.166244 0 0.05 671.719
0.178837 0 0.05 671.719
0.192293 0 0.05 671.719
0.206671 0 0.05 671.719
0.222034 0 0.05 671.719
0.238451 0 0.05 671.719
0.255993 0 0.05 671.719
0.274738 0 0.05 671.719
0.294767 0 0.05 671.719
0.31617 0 0.05 671.719
0.33904 0 0.05 671.719
0.363478 0 0.05 671.719
0.389591 0 0.05 671.719
0.417495 0 0.05 671.719
0.447311 0 0.05 671.719
0.479171 0 0.05 671.719
0.513216 0 0.05 671.719
0.549594 0 0.05 671.719
0.588466 0 0.05 671.719
0.630003 0 0.05 671.719
0.674386 0 0.05 671.719
0.721813 0 0.05 671.719
0.772492 0 0.05 671.719
0.826645 0 0.05 671.719
0.884509 0 0.05 671.719
