# Wall heat-flux
# Time        	patch         	min           	max           	integral      
7400          	base	-3.638472e+06	-3.290733e+04	-9.617881e+03
