# Wall heat-flux
# Time        	patch         	min           	max           	integral      
6500          	base	-2.077360e+05	-7.941986e+03	-1.215997e+02
