# Wall heat-flux
# Time        	patch         	min           	max           	integral      
0             	base	-2.843955e+06	-3.843669e+04	-9.225153e+03
