# p  FACE_DATA 235
# x  y  z  p
-0.57565 0 0.0205 3669.84
-0.556783 0 0.0205 3041.99
-0.538647 0 0.0205 2864.14
-0.521213 0 0.0205 2795.24
-0.504453 0 0.0205 2780.06
-0.48834 0 0.0205 2775.99
-0.472849 0 0.0205 2774.87
-0.457957 0 0.0205 2775.32
-0.443638 0 0.0205 2775.85
-0.429872 0 0.0205 2775.56
-0.416636 0 0.0205 2774.93
-0.40391 0 0.0205 2774.53
-0.391674 0 0.0205 2774.11
-0.379908 0 0.0205 2773.65
-0.368594 0 0.0205 2772.86
-0.357715 0 0.0205 2772.16
-0.347254 0 0.0205 2771.47
-0.337194 0 0.0205 2771.02
-0.327521 0 0.0205 2770.54
-0.318219 0 0.0205 2770.24
-0.309273 0 0.0205 2769.8
-0.300671 0 0.0205 2769.44
-0.292398 0 0.0205 2768.98
-0.284442 0 0.0205 2768.59
-0.27679 0 0.0205 2768.15
-0.269431 0 0.0205 2767.79
-0.262355 0 0.0205 2767.4
-0.255549 0 0.0205 2767.06
-0.249003 0 0.0205 2766.69
-0.242707 0 0.0205 2766.34
-0.236652 0 0.0205 2765.99
-0.230829 0 0.0205 2765.69
-0.225228 0 0.0205 2765.38
-0.219841 0 0.0205 2765.07
-0.21466 0 0.0205 2764.75
-0.209676 0 0.0205 2764.3
-0.204883 0 0.0205 2764.29
-0.200177 0 0.0205 2763.75
-0.1955 0 0.0205 2763.49
-0.190906 0 0.0205 2763.18
-0.186428 0 0.0205 2762.95
-0.182051 0 0.0205 2762.79
-0.177762 0 0.0205 2762.67
-0.17358 0 0.0205 2762.48
-0.169482 0 0.0205 2762.22
-0.165477 0 0.0205 2761.89
-0.161572 0 0.0205 2761.5
-0.157735 0 0.0205 2761.14
-0.153994 0 0.0205 2760.77
-0.150346 0 0.0205 2760.41
-0.146761 0 0.0205 2760.13
-0.143265 0 0.0205 2759.85
-0.139847 0 0.0205 2759.59
-0.136496 0 0.0205 2759.35
-0.133229 0 0.0205 2759.08
-0.130025 0 0.0205 2758.85
-0.126893 0 0.0205 2758.62
-0.123837 0 0.0205 2758.37
-0.120834 0 0.0205 2758.18
-0.117903 0 0.0205 2757.97
-0.115044 0 0.0205 2757.74
-0.112234 0 0.0205 2757.54
-0.109492 0 0.0205 2757.32
-0.106804 0 0.0205 2757.09
-0.104153 0 0.0205 2756.89
-0.101546 0 0.0205 2756.67
-0.0989719 0 0.0205 2756.48
-0.0964343 0 0.0205 2756.28
-0.0939374 0 0.0205 2756.07
-0.0914684 0 0.0205 2755.89
-0.0890386 0 0.0205 2755.68
-0.0866475 0 0.0205 2755.46
-0.0842832 0 0.0205 2755.26
-0.0819566 0 0.0205 2755.04
-0.0796635 0 0.0205 2754.83
-0.0774002 0 0.0205 2754.63
-0.0751735 0 0.0205 2754.41
-0.0729758 0 0.0205 2754.23
-0.0708106 0 0.0205 2754.05
-0.0686812 0 0.0205 2753.84
-0.0665768 0 0.0205 2753.67
-0.0645079 0 0.0205 2753.48
-0.0624742 0 0.0205 2753.28
-0.0604652 0 0.0205 2753.1
-0.0584911 0 0.0205 2752.87
-0.0565486 0 0.0205 2752.81
-0.054634 0 0.0205 2752.89
-0.0527543 0 0.0205 2820.79
-0.050906 0 0.0205 5023.94
-0.0490962 0 0.0205 8436.85
-0.0473279 0 0.0205 10675.7
-0.04559 0 0.0205 11518
-0.0438927 0 0.0205 12129
-0.0422356 0 0.0205 12541.7
-0.0406076 0 0.0205 12840.3
-0.039019 0 0.0205 13069.7
-0.0374658 0 0.0205 13271.4
-0.0359442 0 0.0205 13468.1
-0.0344609 0 0.0205 13662.9
-0.0330083 0 0.0205 13856.9
-0.0315898 0 0.0205 14052
-0.0302086 0 0.0205 14246.1
-0.0288534 0 0.0205 14445.5
-0.0275349 0 0.0205 14649.4
-0.0262527 0 0.0205 14856.8
-0.0249956 0 0.0205 15068
-0.023774 0 0.0205 15281.4
-0.0225842 0 0.0205 15494.5
-0.021422 0 0.0205 15706.3
-0.0202944 0 0.0205 15913.9
-0.0191938 0 0.0205 16116.1
-0.0181234 0 0.0205 16311
-0.0170867 0 0.0205 16496.6
-0.016072 0 0.0205 16673.7
-0.0150901 0 0.0205 16840.4
-0.0141406 0 0.0205 16995.6
-0.013212 0 0.0205 17141
-0.012315 0 0.0205 17275.6
-0.0114453 0 0.0205 17399.4
-0.010599 0 0.0205 17514.6
-0.00978278 0 0.0205 17621.4
-0.0089888 0 0.0205 17722.4
-0.0082203 0 0.0205 17823.4
-0.00748044 0 0.0205 17927.6
-0.00675745 0 0.0205 18040.2
-0.00606198 0 0.0205 18166.5
-0.0053934 0 0.0205 18313.3
-0.00473991 0 0.0205 18502
-0.004112 0 0.0205 18739.2
-0.00350529 0 0.0205 19005.3
-0.00291537 0 0.0205 19328.8
-0.00234888 0 0.0205 19707.9
-0.0017977 0 0.0205 20142.9
-0.00126472 0 0.0205 20617.2
-0.0007527 0 0.0205 21226.5
-0.00025 0 0.0205 22654.1
0.00020726 0.000139798 0.0205 20565.3
0.00062196 0.000419517 0.0205 20563.7
0.00103721 0.000699604 0.0205 20219.2
0.00145336 0.000980299 0.0205 19928
0.00187079 0.00126186 0.0205 19758.4
0.00228985 0.00154452 0.0205 19755
0.00271091 0.00182854 0.0205 19846.3
0.00313435 0.00211415 0.0205 20020.1
0.00356054 0.00240162 0.0205 20248.3
0.00398984 0.00269118 0.0205 20530.9
0.00442264 0.0029831 0.0205 20855.6
0.00485931 0.00327765 0.0205 21208.4
0.00530023 0.00357505 0.0205 21596.8
0.00574579 0.00387559 0.0205 22017.8
0.00619639 0.00417951 0.0205 22470.7
0.00665241 0.0044871 0.0205 22955.5
0.00711424 0.00479861 0.0205 23473.1
0.00758231 0.00511434 0.0205 24024.5
0.00805703 0.00543453 0.0205 24612.4
0.00853879 0.00575948 0.0205 25238.5
0.00902802 0.00608948 0.0205 25905.8
0.00952516 0.0064248 0.0205 26616.8
0.0100306 0.00676576 0.0205 27373.8
0.0105449 0.00711263 0.0205 28178.7
0.0110684 0.00746574 0.0205 29044.6
0.0116016 0.00782537 0.0205 29968.1
0.0121449 0.00819186 0.0205 30951.4
0.0126989 0.00856552 0.0205 31998.8
0.013264 0.00894669 0.0205 33118.6
0.0138407 0.00933568 0.0205 34315.2
0.0144295 0.00973285 0.0205 35597.7
0.015031 0.0101386 0.0205 36970.8
0.0156456 0.0105531 0.0205 38447.1
0.016274 0.0109769 0.0205 40035.7
0.0169165 0.0114103 0.0205 41756
0.0175739 0.0118537 0.0205 43613.8
0.0182466 0.0123075 0.0205 45642
0.0189354 0.0127721 0.0205 47858.8
0.0196407 0.0132478 0.0205 50282.2
0.0203631 0.0137352 0.0205 52956.2
0.0211035 0.0142345 0.0205 55913.9
0.0218623 0.0147463 0.0205 59190.6
0.0226403 0.0152711 0.0205 62839.6
0.023438 0.0158092 0.0205 66917.1
0.0242564 0.0163611 0.0205 71498.5
0.0250958 0.0169274 0.0205 76696.4
0.0259573 0.0175084 0.0205 82596.4
0.0268416 0.0181049 0.0205 89250.8
0.0277493 0.0187172 0.0205 96710.5
0.0286813 0.0193458 0.0205 104977
0.0296385 0.0199914 0.0205 113942
0.0306216 0.0206545 0.0205 123457
0.0316314 0.0213357 0.0205 133422
0.032669 0.0220355 0.0205 143810
0.0337352 0.0227547 0.0205 154706
0.034831 0.0234938 0.0205 165693
0.0359572 0.0242533 0.0205 176085
0.0371148 0.0250343 0.0205 185500
0.038305 0.0258371 0.0205 192183
0.0395287 0.0266625 0.0205 198977
0.040787 0.0275112 0.0205 191318
0.0420811 0.0283841 0.0205 185691
0.043412 0.0292818 0.0205 177375
0.0447809 0.0302051 0.0205 167750
0.046189 0.0311548 0.0205 157696
0.0476375 0.0321318 0.0205 148552
0.0491277 0.0331371 0.0205 141048
0.0506609 0.0341713 0.0205 135627
0.0522386 0.0352353 0.0205 132073
0.0538619 0.0363303 0.0205 130212
0.0555324 0.0374571 0.0205 129236
0.0572515 0.0386166 0.0205 128778
0.0590207 0.03981 0.0205 127568
0.0608417 0.0410383 0.0205 125033
0.0627159 0.0423024 0.0205 122830
0.064645 0.0436036 0.0205 121679
0.0666306 0.044943 0.0205 121672
0.0686746 0.0463217 0.0205 122354
0.0707788 0.0477409 0.0205 122854
0.0729449 0.0492019 0.0205 123487
0.0751749 0.0507061 0.0205 124740
0.0774706 0.0522546 0.0205 126498
0.0798342 0.0538489 0.0205 128099
0.0822678 0.0554903 0.0205 128987
0.0847732 0.0571803 0.0205 127962
0.087353 0.0589204 0.0205 126611
0.0900092 0.060712 0.0205 125684
0.0927443 0.0625568 0.0205 125454
0.0955605 0.0644564 0.0205 125488
0.0984604 0.0664124 0.0205 125632
0.101446 0.0684266 0.0205 126206
0.104521 0.0705006 0.0205 126643
0.107688 0.0726364 0.0205 127350
0.110949 0.0748358 0.0205 128063
0.114306 0.0771006 0.0205 128258
0.117764 0.079433 0.0205 128701
0.121326 0.081835 0.0205 128511
0.124992 0.0843085 0.0205 128056
0.128769 0.0868559 0.0205 126641
