# wallHeatFlux  FACE_DATA 235
# x  y  z  wallHeatFlux
-0.57565 0 0.0205 -355842
-0.556783 0 0.0205 -82750.3
-0.538647 0 0.0205 -77707.8
-0.521213 0 0.0205 -76805.4
-0.504453 0 0.0205 -76699.3
-0.48834 0 0.0205 -76752.4
-0.472849 0 0.0205 -76699.3
-0.457957 0 0.0205 -76593.1
-0.443638 0 0.0205 -76380.8
-0.429872 0 0.0205 -76062.3
-0.416636 0 0.0205 -75743.9
-0.40391 0 0.0205 -75372.3
-0.391674 0 0.0205 -75053.8
-0.379908 0 0.0205 -74735.3
-0.368594 0 0.0205 -74363.8
-0.357715 0 0.0205 -73992.2
-0.347254 0 0.0205 -73673.8
-0.337194 0 0.0205 -73355.3
-0.327521 0 0.0205 -73036.8
-0.318219 0 0.0205 -72771.4
-0.309273 0 0.0205 -72506
-0.300671 0 0.0205 -72240.6
-0.292398 0 0.0205 -71975.2
-0.284442 0 0.0205 -71709.8
-0.27679 0 0.0205 -71444.4
-0.269431 0 0.0205 -71232.1
-0.262355 0 0.0205 -70966.7
-0.255549 0 0.0205 -70754.4
-0.249003 0 0.0205 -70542.1
-0.242707 0 0.0205 -70382.9
-0.236652 0 0.0205 -70170.5
-0.230829 0 0.0205 -70011.3
-0.225228 0 0.0205 -69799
-0.219841 0 0.0205 -69639.8
-0.21466 0 0.0205 -69480.5
-0.209676 0 0.0205 -69321.3
-0.204883 0 0.0205 -69268.2
-0.200177 0 0.0205 -69002.8
-0.1955 0 0.0205 -68896.7
-0.190906 0 0.0205 -68737.4
-0.186428 0 0.0205 -68631.3
-0.182051 0 0.0205 -68472
-0.177762 0 0.0205 -68365.9
-0.17358 0 0.0205 -68206.6
-0.169482 0 0.0205 -68100.5
-0.165477 0 0.0205 -67994.3
-0.161572 0 0.0205 -67835.1
-0.157735 0 0.0205 -67728.9
-0.153994 0 0.0205 -67622.8
-0.150346 0 0.0205 -67516.6
-0.146761 0 0.0205 -67410.4
-0.143265 0 0.0205 -67251.2
-0.139847 0 0.0205 -67145
-0.136496 0 0.0205 -67038.9
-0.133229 0 0.0205 -66932.7
-0.130025 0 0.0205 -66879.6
-0.126893 0 0.0205 -66773.5
-0.123837 0 0.0205 -66667.3
-0.120834 0 0.0205 -66561.2
-0.117903 0 0.0205 -66508.1
-0.115044 0 0.0205 -66401.9
-0.112234 0 0.0205 -66295.8
-0.109492 0 0.0205 -66242.7
-0.106804 0 0.0205 -66136.5
-0.104153 0 0.0205 -66083.5
-0.101546 0 0.0205 -65977.3
-0.0989719 0 0.0205 -65924.2
-0.0964343 0 0.0205 -65818.1
-0.0939374 0 0.0205 -65765
-0.0914684 0 0.0205 -65711.9
-0.0890386 0 0.0205 -65605.7
-0.0866475 0 0.0205 -65552.7
-0.0842832 0 0.0205 -65499.6
-0.0819566 0 0.0205 -65393.4
-0.0796635 0 0.0205 -65340.4
-0.0774002 0 0.0205 -65287.3
-0.0751735 0 0.0205 -65181.1
-0.0729758 0 0.0205 -65128
-0.0708106 0 0.0205 -65075
-0.0686812 0 0.0205 -65021.9
-0.0665768 0 0.0205 -64968.8
-0.0645079 0 0.0205 -64862.6
-0.0624742 0 0.0205 -64809.6
-0.0604652 0 0.0205 -64756.5
-0.0584911 0 0.0205 -64703.4
-0.0565486 0 0.0205 -64650.3
-0.054634 0 0.0205 -64650.3
-0.0527543 0 0.0205 -69958.2
-0.050906 0 0.0205 -219323
-0.0490962 0 0.0205 -174206
-0.0473279 0 0.0205 -151063
-0.04559 0 0.0205 -143207
-0.0438927 0 0.0205 -136519
-0.0422356 0 0.0205 -133282
-0.0406076 0 0.0205 -132273
-0.039019 0 0.0205 -132008
-0.0374658 0 0.0205 -133335
-0.0359442 0 0.0205 -136307
-0.0344609 0 0.0205 -140819
-0.0330083 0 0.0205 -146180
-0.0315898 0 0.0205 -151488
-0.0302086 0 0.0205 -156530
-0.0288534 0 0.0205 -161413
-0.0275349 0 0.0205 -165766
-0.0262527 0 0.0205 -169694
-0.0249956 0 0.0205 -172985
-0.023774 0 0.0205 -175479
-0.0225842 0 0.0205 -177178
-0.021422 0 0.0205 -178027
-0.0202944 0 0.0205 -178186
-0.0191938 0 0.0205 -177762
-0.0181234 0 0.0205 -176753
-0.0170867 0 0.0205 -175480
-0.016072 0 0.0205 -174152
-0.0150901 0 0.0205 -172773
-0.0141406 0 0.0205 -171870
-0.013212 0 0.0205 -171552
-0.012315 0 0.0205 -171711
-0.0114453 0 0.0205 -172613
-0.010599 0 0.0205 -174259
-0.00978278 0 0.0205 -176700
-0.0089888 0 0.0205 -179991
-0.0082203 0 0.0205 -183972
-0.00748044 0 0.0205 -189015
-0.00675745 0 0.0205 -195013
-0.00606198 0 0.0205 -201753
-0.0053934 0 0.0205 -209822
-0.00473991 0 0.0205 -219377
-0.004112 0 0.0205 -229354
-0.00350529 0 0.0205 -239971
-0.00291537 0 0.0205 -251383
-0.00234888 0 0.0205 -262849
-0.0017977 0 0.0205 -273570
-0.00126472 0 0.0205 -279938
-0.0007527 0 0.0205 -280213
-0.00025 0 0.0205 -250793
0.00020726 0.000139798 0.0205 -159340
0.00062196 0.000419517 0.0205 -188485
0.00103721 0.000699604 0.0205 -232984
0.00145336 0.000980299 0.0205 -255416
0.00187079 0.00126186 0.0205 -273758
0.00228985 0.00154452 0.0205 -286216
0.00271091 0.00182854 0.0205 -297223
0.00313435 0.00211415 0.0205 -307709
0.00356054 0.00240162 0.0205 -317851
0.00398984 0.00269118 0.0205 -327991
0.00442264 0.0029831 0.0205 -338964
0.00485931 0.00327765 0.0205 -349938
0.00530023 0.00357505 0.0205 -361548
0.00574579 0.00387559 0.0205 -373529
0.00619639 0.00417951 0.0205 -386040
0.00665241 0.0044871 0.0205 -399346
0.00711424 0.00479861 0.0205 -413341
0.00758231 0.00511434 0.0205 -428132
0.00805703 0.00543453 0.0205 -443665
0.00853879 0.00575948 0.0205 -460152
0.00902802 0.00608948 0.0205 -477280
0.00952516 0.0064248 0.0205 -495516
0.0100306 0.00676576 0.0205 -514843
0.0105449 0.00711263 0.0205 -535056
0.0110684 0.00746574 0.0205 -556884
0.0116016 0.00782537 0.0205 -580305
0.0121449 0.00819186 0.0205 -604156
0.0126989 0.00856552 0.0205 -630752
0.013264 0.00894669 0.0205 -657853
0.0138407 0.00933568 0.0205 -686926
0.0144295 0.00973285 0.0205 -715804
0.015031 0.0101386 0.0205 -748644
0.0156456 0.0105531 0.0205 -783395
0.016274 0.0109769 0.0205 -818828
0.0169165 0.0114103 0.0205 -854052
0.0175739 0.0118537 0.0205 -897632
0.0182466 0.0123075 0.0205 -939970
0.0189354 0.0127721 0.0205 -983642
0.0196407 0.0132478 0.0205 -1.03363e+06
0.0203631 0.0137352 0.0205 -1.08493e+06
0.0211035 0.0142345 0.0205 -1.14103e+06
0.0218623 0.0147463 0.0205 -1.20076e+06
0.0226403 0.0152711 0.0205 -1.26197e+06
0.023438 0.0158092 0.0205 -1.33255e+06
0.0242564 0.0163611 0.0205 -1.40932e+06
0.0250958 0.0169274 0.0205 -1.49901e+06
0.0259573 0.0175084 0.0205 -1.60274e+06
0.0268416 0.0181049 0.0205 -1.71331e+06
0.0277493 0.0187172 0.0205 -1.84649e+06
0.0286813 0.0193458 0.0205 -1.98788e+06
0.0296385 0.0199914 0.0205 -2.13624e+06
0.0306216 0.0206545 0.0205 -2.28389e+06
0.0316314 0.0213357 0.0205 -2.43338e+06
0.032669 0.0220355 0.0205 -2.57277e+06
0.0337352 0.0227547 0.0205 -2.6945e+06
0.034831 0.0234938 0.0205 -2.79116e+06
0.0359572 0.0242533 0.0205 -2.85444e+06
0.0371148 0.0250343 0.0205 -2.95914e+06
0.038305 0.0258371 0.0205 -2.97371e+06
0.0395287 0.0266625 0.0205 -3.10473e+06
0.040787 0.0275112 0.0205 -2.91336e+06
0.0420811 0.0283841 0.0205 -2.85005e+06
0.043412 0.0292818 0.0205 -2.68896e+06
0.0447809 0.0302051 0.0205 -2.47817e+06
0.046189 0.0311548 0.0205 -2.19741e+06
0.0476375 0.0321318 0.0205 -1.95622e+06
0.0491277 0.0331371 0.0205 -1.73619e+06
0.0506609 0.0341713 0.0205 -1.61178e+06
0.0522386 0.0352353 0.0205 -1.57504e+06
0.0538619 0.0363303 0.0205 -1.60406e+06
0.0555324 0.0374571 0.0205 -1.63083e+06
0.0572515 0.0386166 0.0205 -1.66607e+06
0.0590207 0.03981 0.0205 -1.68908e+06
0.0608417 0.0410383 0.0205 -1.63143e+06
0.0627159 0.0423024 0.0205 -1.53299e+06
0.064645 0.0436036 0.0205 -1.47694e+06
0.0666306 0.044943 0.0205 -1.44179e+06
0.0686746 0.0463217 0.0205 -1.428e+06
0.0707788 0.0477409 0.0205 -1.40349e+06
0.0729449 0.0492019 0.0205 -1.39029e+06
0.0751749 0.0507061 0.0205 -1.43146e+06
0.0774706 0.0522546 0.0205 -1.48157e+06
0.0798342 0.0538489 0.0205 -1.51451e+06
0.0822678 0.0554903 0.0205 -1.56401e+06
0.0847732 0.0571803 0.0205 -1.5276e+06
0.087353 0.0589204 0.0205 -1.46072e+06
0.0900092 0.060712 0.0205 -1.43647e+06
0.0927443 0.0625568 0.0205 -1.4226e+06
0.0955605 0.0644564 0.0205 -1.39388e+06
0.0984604 0.0664124 0.0205 -1.39534e+06
0.101446 0.0684266 0.0205 -1.54362e+06
0.104521 0.0705006 0.0205 -1.3714e+06
0.107688 0.0726364 0.0205 -1.40485e+06
0.110949 0.0748358 0.0205 -1.47729e+06
0.114306 0.0771006 0.0205 -1.46034e+06
0.117764 0.079433 0.0205 -1.5811e+06
0.121326 0.081835 0.0205 -1.6463e+06
0.124992 0.0843085 0.0205 -1.57833e+06
0.128769 0.0868559 0.0205 -1.38806e+06
