# wallHeatFlux  FACE_DATA 398
# x  y  z  wallHeatFlux
-0.7975 0 0.025 -653677
-0.79239 0 0.025 -120156
-0.787056 0 0.025 -71154.4
-0.781492 0 0.025 -64301.7
-0.775691 0 0.025 -65740.8
-0.769649 0 0.025 -66653.1
-0.763362 0 0.025 -67381.6
-0.756822 0 0.025 -67328.4
-0.750025 0 0.025 -66886.6
-0.742968 0 0.025 -66184.9
-0.735648 0 0.025 -65359.4
-0.72806 0 0.025 -64447.9
-0.720203 0 0.025 -63473.2
-0.712076 0 0.025 -62526
-0.703677 0 0.025 -61684.2
-0.695006 0 0.025 -60889.6
-0.686065 0 0.025 -60126.2
-0.676855 0 0.025 -59399.5
-0.667379 0 0.025 -58639.4
-0.65764 0 0.025 -57927.1
-0.647644 0 0.025 -57307.6
-0.637397 0 0.025 -56734.8
-0.626906 0 0.025 -56098.7
-0.616179 0 0.025 -55569.7
-0.605224 0 0.025 -55041.3
-0.594054 0 0.025 -54532
-0.582678 0 0.025 -54008.3
-0.57111 0 0.025 -53536.1
-0.559364 0 0.025 -53111.2
-0.547454 0 0.025 -52720.7
-0.535396 0 0.025 -52264
-0.523205 0 0.025 -51840.5
-0.510901 0 0.025 -51449.4
-0.4985 0 0.025 -51075.1
-0.486021 0 0.025 -50785.3
-0.473483 0 0.025 -50466.3
-0.460905 0 0.025 -50090.6
-0.448308 0 0.025 -49740.8
-0.435709 0 0.025 -49437.4
-0.42313 0 0.025 -49147.1
-0.41059 0 0.025 -48893.3
-0.39811 0 0.025 -48686.1
-0.385706 0 0.025 -48450
-0.373398 0 0.025 -48170.9
-0.361205 0 0.025 -47890.8
-0.349141 0 0.025 -47635.3
-0.337226 0 0.025 -47422.7
-0.325475 0 0.025 -47241.8
-0.313901 0 0.025 -47060.7
-0.30252 0 0.025 -46900.2
-0.291343 0 0.025 -46735.5
-0.280382 0 0.025 -46565.5
-0.269646 0 0.025 -46410.6
-0.259148 0 0.025 -46261.6
-0.248893 0 0.025 -46109.1
-0.23889 0 0.025 -45957.1
-0.229143 0 0.025 -45804.6
-0.219659 0 0.025 -45648.6
-0.210441 0 0.025 -45476.3
-0.201491 0 0.025 -45307.3
-0.192812 0 0.025 -45152
-0.184405 0 0.025 -45012.2
-0.176269 0 0.025 -44907.9
-0.168404 0 0.025 -44826.9
-0.160808 0 0.025 -44778
-0.15348 0 0.025 -44748.3
-0.146415 0 0.025 -44740.8
-0.13961 0 0.025 -44732
-0.133063 0 0.025 -44714.4
-0.126767 0 0.025 -44687.1
-0.120718 0 0.025 -44649.6
-0.11491 0 0.025 -44596.8
-0.109339 0 0.025 -44528.7
-0.103997 0 0.025 -44454.4
-0.0988805 0 0.025 -44373.6
-0.0939808 0 0.025 -44290.1
-0.0892928 0 0.025 -44197.3
-0.0848096 0 0.025 -44110
-0.0805248 0 0.025 -44017.8
-0.0764316 0 0.025 -43931.2
-0.0725237 0 0.025 -43850
-0.0687943 0 0.025 -43774.9
-0.065237 0 0.025 -43704.6
-0.0618454 0 0.025 -43645.9
-0.058613 0 0.025 -43591.8
-0.0555337 0 0.025 -43538.7
-0.0526013 0 0.025 -43495.7
-0.0498099 0 0.025 -43458.3
-0.0471536 0 0.025 -43426.3
-0.0446266 0 0.025 -43394.3
-0.0422235 0 0.025 -43367.7
-0.039939 0 0.025 -43346.4
-0.0377676 0 0.025 -43324.8
-0.0357044 0 0.025 -43315
-0.0337445 0 0.025 -43298.7
-0.0318832 0 0.025 -43004
-0.0301159 0 0.025 -40103.9
-0.0284383 0 0.025 -37910.8
-0.0268461 0 0.025 -56243.3
-0.0253353 0 0.025 -70767.5
-0.023902 0 0.025 -78757.3
-0.0225426 0 0.025 -83513.6
-0.0212532 0 0.025 -87662.9
-0.0200306 0 0.025 -91128.5
-0.0188715 0 0.025 -94086.5
-0.0177728 0 0.025 -96787.8
-0.0167313 0 0.025 -99366.7
-0.0157444 0 0.025 -101887
-0.0148092 0 0.025 -104348
-0.0139232 0 0.025 -106628
-0.0130838 0 0.025 -108616
-0.0122887 0 0.025 -110325
-0.0115356 0 0.025 -111780
-0.0108223 0 0.025 -113013
-0.0101469 0 0.025 -114065
-0.00950727 0 0.025 -115006
-0.00890168 0 0.025 -115900
-0.00832835 0 0.025 -116827
-0.00778557 0 0.025 -117833
-0.00727176 0 0.025 -118959
-0.0067854 0 0.025 -120222
-0.00632507 0 0.025 -121645
-0.00588937 0 0.025 -123227
-0.00547703 0 0.025 -124966
-0.0050868 0 0.025 -126860
-0.00471753 0 0.025 -128913
-0.0043681 0 0.025 -131151
-0.00403746 0 0.025 -133528
-0.00372461 0 0.025 -136063
-0.0034286 0 0.025 -138769
-0.00314855 0 0.025 -141681
-0.0028836 0 0.025 -144753
-0.00263294 0 0.025 -147791
-0.00239581 0 0.025 -150887
-0.0021715 0 0.025 -154134
-0.00195929 0 0.025 -157482
-0.00175856 0 0.025 -160925
-0.00156869 0 0.025 -164477
-0.00138908 0 0.025 -168142
-0.0012192 0 0.025 -171875
-0.00105853 0 0.025 -175682
-0.000906546 0 0.025 -179507
-0.000762803 0 0.025 -183194
-0.000626848 0 0.025 -186442
-0.000498265 0 0.025 -188307
-0.000376656 0 0.025 -186769
-0.000261642 0 0.025 -177986
-0.00015287 0 0.025 -154649
-5e-05 0 0.025 -100353
4.14519e-05 2.79596e-05 0.025 -70394.8
0.000125371 8.45641e-05 0.025 -83163.7
0.000211347 0.000142556 0.025 -98107.9
0.000299429 0.000201968 0.025 -109240
0.000389669 0.000262835 0.025 -118591
0.000482118 0.000325193 0.025 -127516
0.000576831 0.000389077 0.025 -135994
0.000673861 0.000454524 0.025 -143724
0.000773265 0.000521574 0.025 -150566
0.0008751 0.000590262 0.025 -156570
0.000979426 0.000660632 0.025 -161850
0.0010863 0.000732721 0.025 -166524
0.00119579 0.000806572 0.025 -170703
0.00130795 0.000882227 0.025 -174631
0.00142285 0.00095973 0.025 -178266
0.00154056 0.00103912 0.025 -181729
0.00166115 0.00112046 0.025 -185048
0.00178467 0.00120378 0.025 -188301
0.00191121 0.00128913 0.025 -191550
0.00204083 0.00137656 0.025 -194723
0.00217362 0.00146612 0.025 -197934
0.00230964 0.00155787 0.025 -201193
0.00244897 0.00165185 0.025 -204502
0.00259169 0.00174812 0.025 -207838
0.00273789 0.00184673 0.025 -211280
0.00288765 0.00194774 0.025 -214850
0.00304105 0.00205122 0.025 -218499
0.00319818 0.00215719 0.025 -222269
0.00335912 0.00226575 0.025 -226234
0.00352397 0.00237695 0.025 -230306
0.00369283 0.00249085 0.025 -234567
0.00386579 0.00260751 0.025 -238997
0.00404294 0.00272699 0.025 -243644
0.00422438 0.00284938 0.025 -248519
0.00441022 0.00297474 0.025 -253624
0.00460056 0.00310312 0.025 -258987
0.00479552 0.00323462 0.025 -264608
0.00499519 0.0033693 0.025 -270620
0.00519968 0.00350723 0.025 -276885
0.00540911 0.00364849 0.025 -283528
0.00562361 0.00379318 0.025 -290542
0.00584329 0.00394134 0.025 -297931
0.00606826 0.00409309 0.025 -305880
0.00629865 0.00424849 0.025 -314249
0.0065346 0.00440764 0.025 -323218
0.00677623 0.00457063 0.025 -332762
0.00702368 0.00473753 0.025 -342794
0.00727707 0.00490844 0.025 -353580
0.00753655 0.00508347 0.025 -365099
0.00780227 0.00526269 0.025 -377446
0.00807436 0.00544622 0.025 -390708
0.00835298 0.00563415 0.025 -404959
0.00863826 0.00582659 0.025 -420289
0.00893038 0.00602362 0.025 -436707
0.00922949 0.00622537 0.025 -454441
0.00953574 0.00643195 0.025 -473496
0.00984929 0.00664345 0.025 -494475
0.0101703 0.00686 0.025 -516591
0.0104991 0.00708171 0.025 -541805
0.0108356 0.00730871 0.025 -569506
0.0111801 0.0075411 0.025 -598573
0.0115329 0.00777902 0.025 -633630
0.011894 0.00802259 0.025 -672895
0.0122637 0.00827194 0.025 -714810
0.0126421 0.00852719 0.025 -762044
0.0130295 0.0087885 0.025 -809209
0.013426 0.00905597 0.025 -857395
0.013832 0.00932978 0.025 -903793
0.0142475 0.00961003 0.025 -950319
0.0146727 0.0098969 0.025 -995803
0.0151081 0.0101905 0.025 -1.03765e+06
0.0155536 0.010491 0.025 -1.08308e+06
0.0160097 0.0107986 0.025 -1.13055e+06
0.0164764 0.0111134 0.025 -1.18239e+06
0.016954 0.0114356 0.025 -1.23798e+06
0.0174427 0.0117653 0.025 -1.29323e+06
0.0179429 0.0121026 0.025 -1.35407e+06
0.0184548 0.0124479 0.025 -1.42495e+06
0.0189786 0.0128013 0.025 -1.47755e+06
0.0195146 0.0131628 0.025 -1.53373e+06
0.020063 0.0135327 0.025 -1.59922e+06
0.0206242 0.0139112 0.025 -1.64519e+06
0.0211983 0.0142984 0.025 -1.68137e+06
0.0217857 0.0146947 0.025 -1.72318e+06
0.0223867 0.0151 0.025 -1.75895e+06
0.0230015 0.0155147 0.025 -1.78888e+06
0.0236304 0.0159389 0.025 -1.82301e+06
0.0242738 0.0163729 0.025 -1.82716e+06
0.0249318 0.0168167 0.025 -1.84408e+06
0.025605 0.0172708 0.025 -1.85649e+06
0.0262935 0.0177352 0.025 -1.83789e+06
0.0269977 0.0182102 0.025 -1.8167e+06
0.0277178 0.0186959 0.025 -1.78386e+06
0.0284544 0.0191927 0.025 -1.79393e+06
0.0292075 0.0197008 0.025 -1.72802e+06
0.0299777 0.0202203 0.025 -1.66177e+06
0.0307653 0.0207514 0.025 -1.61617e+06
0.0315704 0.0212945 0.025 -1.57198e+06
0.0323937 0.0218499 0.025 -1.53293e+06
0.0332354 0.0224176 0.025 -1.49603e+06
0.0340959 0.022998 0.025 -1.46612e+06
0.0349755 0.0235913 0.025 -1.43066e+06
0.0358747 0.0241978 0.025 -1.4259e+06
0.0367938 0.0248178 0.025 -1.39087e+06
0.0377331 0.0254513 0.025 -1.36687e+06
0.0386932 0.0260989 0.025 -1.34969e+06
0.0396743 0.0267606 0.025 -1.33342e+06
0.0406769 0.0274369 0.025 -1.32641e+06
0.0417013 0.0281279 0.025 -1.31387e+06
0.042748 0.0288339 0.025 -1.31547e+06
0.0438175 0.0295552 0.025 -1.30201e+06
0.04491 0.0302922 0.025 -1.28935e+06
0.0460262 0.031045 0.025 -1.29067e+06
0.0471662 0.031814 0.025 -1.29783e+06
0.0483306 0.0325995 0.025 -1.28656e+06
0.0495199 0.0334016 0.025 -1.2877e+06
0.0507344 0.0342208 0.025 -1.28634e+06
0.0519746 0.0350573 0.025 -1.28872e+06
0.0532409 0.0359114 0.025 -1.29872e+06
0.0545339 0.0367835 0.025 -1.2866e+06
0.0558538 0.0376739 0.025 -1.28046e+06
0.0572012 0.0385827 0.025 -1.27712e+06
0.0585766 0.0395104 0.025 -1.27555e+06
0.0599804 0.0404573 0.025 -1.28412e+06
0.061413 0.0414236 0.025 -1.27147e+06
0.0628748 0.0424096 0.025 -1.29818e+06
0.0643665 0.0434157 0.025 -1.30263e+06
0.0658883 0.0444422 0.025 -1.2796e+06
0.0674408 0.0454894 0.025 -1.26835e+06
0.0690245 0.0465576 0.025 -1.26986e+06
0.0706398 0.0476471 0.025 -1.26148e+06
0.0722871 0.0487582 0.025 -1.25893e+06
0.0739669 0.0498912 0.025 -1.25936e+06
0.0756797 0.0510466 0.025 -1.26973e+06
0.0774258 0.0522244 0.025 -1.2808e+06
0.0792059 0.053425 0.025 -1.26995e+06
0.0810203 0.0546489 0.025 -1.2881e+06
0.0828694 0.0558961 0.025 -1.26074e+06
0.0847537 0.0571671 0.025 -1.30586e+06
0.0866737 0.0584622 0.025 -1.26975e+06
0.0886298 0.0597816 0.025 -1.2727e+06
0.0906224 0.0611256 0.025 -1.28579e+06
0.0926518 0.0624944 0.025 -1.25158e+06
0.0947185 0.0638884 0.025 -1.29235e+06
0.096823 0.065308 0.025 -1.24925e+06
0.0989659 0.0667532 0.025 -1.33312e+06
0.101147 0.0682245 0.025 -1.67016e+06
0.103367 0.0697219 0.025 -1.57307e+06
0.105626 0.0712458 0.025 -1.1873e+06
0.107926 0.0727965 0.025 -1.18161e+06
0.110265 0.074374 0.025 -1.22484e+06
0.112644 0.0759789 0.025 -1.82915e+06
0.115063 0.0776111 0.025 -1.24339e+06
0.117524 0.0792709 0.025 -1.72073e+06
0.120026 0.0809585 0.025 -1.88316e+06
0.122569 0.0826741 0.025 -1.6614e+06
0.125155 0.0844179 0.025 -1.47435e+06
0.127782 0.0861901 0.025 -1.2731e+06
0.130451 0.0879908 0.025 -1.22726e+06
0.133163 0.08982 0.025 -1.20307e+06
0.135918 0.0916781 0.025 -1.17349e+06
0.138716 0.0935651 0.025 -1.17684e+06
0.141556 0.095481 0.025 -1.18723e+06
0.14444 0.097426 0.025 -1.55683e+06
0.147367 0.0994004 0.025 -2.26578e+06
0.150337 0.101404 0.025 -1.63938e+06
0.153351 0.103437 0.025 -1.58358e+06
0.156408 0.105498 0.025 -2.14592e+06
0.159508 0.107589 0.025 -1.00981e+06
0.162651 0.10971 0.025 -1.48114e+06
0.165838 0.111859 0.025 -3.3644e+06
0.169069 0.114039 0.025 -1.62969e+06
0.172343 0.116247 0.025 -1.94395e+06
0.175659 0.118483 0.025 -1.8315e+06
0.179018 0.120749 0.025 -1.82173e+06
0.182421 0.123045 0.025 -1.87487e+06
0.185866 0.125368 0.025 -1.65106e+06
0.189353 0.12772 0.025 -1.69184e+06
0.192882 0.1301 0.025 -1.80136e+06
0.196453 0.132509 0.025 -1.70244e+06
0.200065 0.134946 0.025 -2.08789e+06
0.203718 0.13741 0.025 -1.88359e+06
0.207412 0.139901 0.025 -903936
0.211146 0.14242 0.025 -959016
0.214919 0.144965 0.025 -1.55186e+06
0.218732 0.147537 0.025 -958040
0.222583 0.150134 0.025 -1.84019e+06
0.226472 0.152757 0.025 -951458
0.230399 0.155406 0.025 -1.75517e+06
0.234362 0.15808 0.025 -1.65646e+06
0.238362 0.160777 0.025 -2.18578e+06
0.242396 0.163498 0.025 -1.91046e+06
0.246466 0.166244 0.025 -2.06187e+06
0.250569 0.169012 0.025 -914012
0.254706 0.171801 0.025 -1.48537e+06
0.258874 0.174613 0.025 -1.48086e+06
0.263074 0.177446 0.025 -1.86084e+06
0.267304 0.180299 0.025 -1.51722e+06
0.271564 0.183172 0.025 -918618
0.275852 0.186064 0.025 -1.55828e+06
0.280168 0.188975 0.025 -895899
0.28451 0.191904 0.025 -1.58354e+06
0.288876 0.19485 0.025 -2.13892e+06
0.293268 0.197812 0.025 -1.55126e+06
0.297683 0.20079 0.025 -1.81228e+06
0.302119 0.203782 0.025 -2.06338e+06
0.306577 0.206788 0.025 -1.47725e+06
0.311054 0.209808 0.025 -1.52087e+06
0.315549 0.212841 0.025 -1.12209e+06
0.320063 0.215885 0.025 -1.87012e+06
0.324591 0.218939 0.025 -1.36847e+06
0.329134 0.222003 0.025 -1.35401e+06
0.333691 0.225077 0.025 -2.04745e+06
0.33826 0.228159 0.025 -1.73595e+06
0.342839 0.231248 0.025 -1.76703e+06
0.347428 0.234343 0.025 -851082
0.352025 0.237444 0.025 -1.8326e+06
0.356628 0.240548 0.025 -1.36127e+06
0.361237 0.243658 0.025 -1.11686e+06
0.36585 0.246769 0.025 -2.31878e+06
0.370465 0.249882 0.025 -1.07603e+06
0.375082 0.252996 0.025 -1.44547e+06
0.379698 0.25611 0.025 -2.26857e+06
0.384313 0.259223 0.025 -1.3522e+06
0.388926 0.262333 0.025 -1.62949e+06
0.393534 0.265442 0.025 -1.35498e+06
0.398136 0.268546 0.025 -853649
0.40273 0.271645 0.025 -1.55038e+06
0.407317 0.274739 0.025 -1.60934e+06
0.411894 0.277826 0.025 -1.97586e+06
0.41646 0.280906 0.025 -817958
0.421014 0.283977 0.025 -1.52681e+06
0.425554 0.28704 0.025 -1.75903e+06
0.430079 0.290092 0.025 -1.42648e+06
0.434588 0.293133 0.025 -1.72633e+06
0.439079 0.296162 0.025 -1.2334e+06
0.443551 0.299179 0.025 -1.58898e+06
0.448004 0.302183 0.025 -1.61425e+06
0.452437 0.305172 0.025 -1.57932e+06
0.456846 0.308146 0.025 -1.47171e+06
0.461232 0.311105 0.025 -1.4953e+06
0.465593 0.314047 0.025 -1.3883e+06
0.469929 0.316971 0.025 -1.83202e+06
0.474238 0.319878 0.025 -962290
0.47852 0.322766 0.025 -1.07303e+06
0.482773 0.325635 0.025 -853608
0.486996 0.328483 0.025 -1.27256e+06
0.491189 0.331311 0.025 -1.89671e+06
0.49535 0.334118 0.025 -1.24353e+06
