# Wall heat-flux
# Time        	patch         	min           	max           	integral      
12700         	base	-1.231827e+04	3.515405e+04	3.934759e+02
