# wallHeatFlux  FACE_DATA 398
# x  y  z  wallHeatFlux
-0.7975 0 0.025 -653677
-0.79239 0 0.025 -120055
-0.787056 0 0.025 -71318.6
-0.781492 0 0.025 -64471.3
-0.775691 0 0.025 -65857.5
-0.769649 0 0.025 -66483.3
-0.763362 0 0.025 -66866.6
-0.756822 0 0.025 -66616.6
-0.750025 0 0.025 -66036.3
-0.742968 0 0.025 -65142.7
-0.735648 0 0.025 -64135.8
-0.72806 0 0.025 -63106.5
-0.720203 0 0.025 -62141.7
-0.712076 0 0.025 -61252.2
-0.703677 0 0.025 -60436.4
-0.695006 0 0.025 -59619.6
-0.686065 0 0.025 -58855.5
-0.676855 0 0.025 -58202.8
-0.667379 0 0.025 -57490.1
-0.65764 0 0.025 -56798.4
-0.647644 0 0.025 -56226.4
-0.637397 0 0.025 -55658.4
-0.626906 0 0.025 -55069.8
-0.616179 0 0.025 -54572.5
-0.605224 0 0.025 -54043.6
-0.594054 0 0.025 -53582.1
-0.582678 0 0.025 -53090.1
-0.57111 0 0.025 -52622.9
-0.559364 0 0.025 -52176.2
-0.547454 0 0.025 -51801.5
-0.535396 0 0.025 -51398.4
-0.523205 0 0.025 -51039.1
-0.510901 0 0.025 -50642.4
-0.4985 0 0.025 -50230.4
-0.486021 0 0.025 -49897.4
-0.473483 0 0.025 -49626.8
-0.460905 0 0.025 -49337.2
-0.448308 0 0.025 -49051.9
-0.435709 0 0.025 -48727.1
-0.42313 0 0.025 -48383
-0.41059 0 0.025 -48107.8
-0.39811 0 0.025 -47911.5
-0.385706 0 0.025 -47729.4
-0.373398 0 0.025 -47509.6
-0.361205 0 0.025 -47272.6
-0.349141 0 0.025 -47028
-0.337226 0 0.025 -46794.2
-0.325475 0 0.025 -46575.8
-0.313901 0 0.025 -46384.1
-0.30252 0 0.025 -46213.2
-0.291343 0 0.025 -46070.2
-0.280382 0 0.025 -45937.9
-0.269646 0 0.025 -45826.1
-0.259148 0 0.025 -45704.1
-0.248893 0 0.025 -45589.3
-0.23889 0 0.025 -45453.5
-0.229143 0 0.025 -45306.5
-0.219659 0 0.025 -45134.5
-0.210441 0 0.025 -44951.6
-0.201491 0 0.025 -44772
-0.192812 0 0.025 -44611.6
-0.184405 0 0.025 -44466.4
-0.176269 0 0.025 -44362.3
-0.168404 0 0.025 -44286.7
-0.160808 0 0.025 -44243.3
-0.15348 0 0.025 -44224.3
-0.146415 0 0.025 -44222.2
-0.13961 0 0.025 -44213.3
-0.133063 0 0.025 -44195.8
-0.126767 0 0.025 -44168.5
-0.120718 0 0.025 -44131
-0.11491 0 0.025 -44083.6
-0.109339 0 0.025 -44020.7
-0.103997 0 0.025 -43946.4
-0.0988805 0 0.025 -43865.6
-0.0939808 0 0.025 -43782
-0.0892928 0 0.025 -43699.9
-0.0848096 0 0.025 -43612.6
-0.0805248 0 0.025 -43536.4
-0.0764316 0 0.025 -43460.4
-0.0725237 0 0.025 -43400.6
-0.0687943 0 0.025 -43341.5
-0.065237 0 0.025 -43292.5
-0.0618454 0 0.025 -43244.5
-0.058613 0 0.025 -43206.4
-0.0555337 0 0.025 -43169.4
-0.0526013 0 0.025 -43142.3
-0.0498099 0 0.025 -43115.6
-0.0471536 0 0.025 -43094.3
-0.0446266 0 0.025 -43073
-0.0422235 0 0.025 -43057
-0.039939 0 0.025 -43041.1
-0.0377676 0 0.025 -43030.1
-0.0357044 0 0.025 -43014.9
-0.0337445 0 0.025 -43009.3
-0.0318832 0 0.025 -42966.5
-0.0301159 0 0.025 -41803.2
-0.0284383 0 0.025 -35058.5
-0.0268461 0 0.025 -33658
-0.0253353 0 0.025 -51370.2
-0.023902 0 0.025 -63310.5
-0.0225426 0 0.025 -70784.6
-0.0212532 0 0.025 -76342.9
-0.0200306 0 0.025 -81288
-0.0188715 0 0.025 -85511.2
-0.0177728 0 0.025 -89177.5
-0.0167313 0 0.025 -92453.1
-0.0157444 0 0.025 -95418.5
-0.0148092 0 0.025 -98227.6
-0.0139232 0 0.025 -100904
-0.0130838 0 0.025 -103364
-0.0122887 0 0.025 -105555
-0.0115356 0 0.025 -107477
-0.0108223 0 0.025 -109161
-0.0101469 0 0.025 -110642
-0.00950727 0 0.025 -111947
-0.00890168 0 0.025 -113125
-0.00832835 0 0.025 -114230
-0.00778557 0 0.025 -115326
-0.00727176 0 0.025 -116468
-0.0067854 0 0.025 -117692
-0.00632507 0 0.025 -119018
-0.00588937 0 0.025 -120460
-0.00547703 0 0.025 -122019
-0.0050868 0 0.025 -123692
-0.00471753 0 0.025 -125474
-0.0043681 0 0.025 -127381
-0.00403746 0 0.025 -129438
-0.00372461 0 0.025 -131593
-0.0034286 0 0.025 -133874
-0.00314855 0 0.025 -136323
-0.0028836 0 0.025 -138979
-0.00263294 0 0.025 -141739
-0.00239581 0 0.025 -144361
-0.0021715 0 0.025 -147148
-0.00195929 0 0.025 -150060
-0.00175856 0 0.025 -153061
-0.00156869 0 0.025 -156166
-0.00138908 0 0.025 -159382
-0.0012192 0 0.025 -162660
-0.00105853 0 0.025 -166011
-0.000906546 0 0.025 -169406
-0.000762803 0 0.025 -172707
-0.000626848 0 0.025 -175621
-0.000498265 0 0.025 -177296
-0.000376656 0 0.025 -175864
-0.000261642 0 0.025 -167685
-0.00015287 0 0.025 -145654
-5e-05 0 0.025 -94220.8
4.14519e-05 2.79596e-05 0.025 -66582.6
0.000125371 8.45641e-05 0.025 -80013.5
0.000211347 0.000142556 0.025 -95370.8
0.000299429 0.000201968 0.025 -106589
0.000389669 0.000262835 0.025 -115984
0.000482118 0.000325193 0.025 -124919
0.000576831 0.000389077 0.025 -133344
0.000673861 0.000454524 0.025 -140992
0.000773265 0.000521574 0.025 -147772
0.0008751 0.000590262 0.025 -153750
0.000979426 0.000660632 0.025 -159024
0.0010863 0.000732721 0.025 -163724
0.00119579 0.000806572 0.025 -168056
0.00130795 0.000882227 0.025 -172067
0.00142285 0.00095973 0.025 -175815
0.00154056 0.00103912 0.025 -179424
0.00166115 0.00112046 0.025 -182910
0.00178467 0.00120378 0.025 -186360
0.00191121 0.00128913 0.025 -189807
0.00204083 0.00137656 0.025 -193195
0.00217362 0.00146612 0.025 -196641
0.00230964 0.00155787 0.025 -200144
0.00244897 0.00165185 0.025 -203666
0.00259169 0.00174812 0.025 -207279
0.00273789 0.00184673 0.025 -210998
0.00288765 0.00194774 0.025 -214855
0.00304105 0.00205122 0.025 -218807
0.00319818 0.00215719 0.025 -222890
0.00335912 0.00226575 0.025 -227164
0.00352397 0.00237695 0.025 -231588
0.00369283 0.00249085 0.025 -236216
0.00386579 0.00260751 0.025 -241033
0.00404294 0.00272699 0.025 -246077
0.00422438 0.00284938 0.025 -251384
0.00441022 0.00297474 0.025 -256958
0.00460056 0.00310312 0.025 -262814
0.00479552 0.00323462 0.025 -268955
0.00499519 0.0033693 0.025 -275482
0.00519968 0.00350723 0.025 -282300
0.00540911 0.00364849 0.025 -289554
0.00562361 0.00379318 0.025 -297238
0.00584329 0.00394134 0.025 -305336
0.00606826 0.00409309 0.025 -314023
0.00629865 0.00424849 0.025 -323184
0.0065346 0.00440764 0.025 -332965
0.00677623 0.00457063 0.025 -343390
0.00702368 0.00473753 0.025 -354470
0.00727707 0.00490844 0.025 -366365
0.00753655 0.00508347 0.025 -378996
0.00780227 0.00526269 0.025 -392712
0.00807436 0.00544622 0.025 -407271
0.00835298 0.00563415 0.025 -422847
0.00863826 0.00582659 0.025 -439786
0.00893038 0.00602362 0.025 -458627
0.00922949 0.00622537 0.025 -478346
0.00953574 0.00643195 0.025 -499607
0.00984929 0.00664345 0.025 -523495
0.0101703 0.00686 0.025 -550064
0.0104991 0.00708171 0.025 -579059
0.0108356 0.00730871 0.025 -613863
0.0111801 0.0075411 0.025 -650787
0.0115329 0.00777902 0.025 -689487
0.011894 0.00802259 0.025 -734054
0.0122637 0.00827194 0.025 -778144
0.0126421 0.00852719 0.025 -822808
0.0130295 0.0087885 0.025 -866151
0.013426 0.00905597 0.025 -909951
0.013832 0.00932978 0.025 -953237
0.0142475 0.00961003 0.025 -996270
0.0146727 0.0098969 0.025 -1.03836e+06
0.0151081 0.0101905 0.025 -1.08233e+06
0.0155536 0.010491 0.025 -1.128e+06
0.0160097 0.0107986 0.025 -1.17403e+06
0.0164764 0.0111134 0.025 -1.22381e+06
0.016954 0.0114356 0.025 -1.27636e+06
0.0174427 0.0117653 0.025 -1.327e+06
0.0179429 0.0121026 0.025 -1.38221e+06
0.0184548 0.0124479 0.025 -1.44724e+06
0.0189786 0.0128013 0.025 -1.48973e+06
0.0195146 0.0131628 0.025 -1.53961e+06
0.020063 0.0135327 0.025 -1.59742e+06
0.0206242 0.0139112 0.025 -1.63451e+06
0.0211983 0.0142984 0.025 -1.66213e+06
0.0217857 0.0146947 0.025 -1.69614e+06
0.0223867 0.0151 0.025 -1.72589e+06
0.0230015 0.0155147 0.025 -1.7511e+06
0.0236304 0.0159389 0.025 -1.78246e+06
0.0242738 0.0163729 0.025 -1.7852e+06
0.0249318 0.0168167 0.025 -1.80019e+06
0.025605 0.0172708 0.025 -1.80699e+06
0.0262935 0.0177352 0.025 -1.78002e+06
0.0269977 0.0182102 0.025 -1.74985e+06
0.0277178 0.0186959 0.025 -1.70999e+06
0.0284544 0.0191927 0.025 -1.72251e+06
0.0292075 0.0197008 0.025 -1.66834e+06
0.0299777 0.0202203 0.025 -1.61875e+06
0.0307653 0.0207514 0.025 -1.58825e+06
0.0315704 0.0212945 0.025 -1.55745e+06
0.0323937 0.0218499 0.025 -1.53169e+06
0.0332354 0.0224176 0.025 -1.50523e+06
0.0340959 0.022998 0.025 -1.48214e+06
0.0349755 0.0235913 0.025 -1.45027e+06
0.0358747 0.0241978 0.025 -1.44877e+06
0.0367938 0.0248178 0.025 -1.41505e+06
0.0377331 0.0254513 0.025 -1.39227e+06
0.0386932 0.0260989 0.025 -1.37548e+06
0.0396743 0.0267606 0.025 -1.35852e+06
0.0406769 0.0274369 0.025 -1.34979e+06
0.0417013 0.0281279 0.025 -1.33448e+06
0.042748 0.0288339 0.025 -1.33585e+06
0.0438175 0.0295552 0.025 -1.32275e+06
0.04491 0.0302922 0.025 -1.31022e+06
0.0460262 0.031045 0.025 -1.31194e+06
0.0471662 0.031814 0.025 -1.31868e+06
0.0483306 0.0325995 0.025 -1.31008e+06
0.0495199 0.0334016 0.025 -1.31282e+06
0.0507344 0.0342208 0.025 -1.3086e+06
0.0519746 0.0350573 0.025 -1.30462e+06
0.0532409 0.0359114 0.025 -1.30667e+06
0.0545339 0.0367835 0.025 -1.29418e+06
0.0558538 0.0376739 0.025 -1.29335e+06
0.0572012 0.0385827 0.025 -1.29285e+06
0.0585766 0.0395104 0.025 -1.29173e+06
0.0599804 0.0404573 0.025 -1.29998e+06
0.061413 0.0414236 0.025 -1.28179e+06
0.0628748 0.0424096 0.025 -1.30654e+06
0.0643665 0.0434157 0.025 -1.31147e+06
0.0658883 0.0444422 0.025 -1.28432e+06
0.0674408 0.0454894 0.025 -1.27516e+06
0.0690245 0.0465576 0.025 -1.27416e+06
0.0706398 0.0476471 0.025 -1.27042e+06
0.0722871 0.0487582 0.025 -1.26662e+06
0.0739669 0.0498912 0.025 -1.26509e+06
0.0756797 0.0510466 0.025 -1.27474e+06
0.0774258 0.0522244 0.025 -1.28606e+06
0.0792059 0.053425 0.025 -1.27927e+06
0.0810203 0.0546489 0.025 -1.30028e+06
0.0828694 0.0558961 0.025 -1.27102e+06
0.0847537 0.0571671 0.025 -1.3143e+06
0.0866737 0.0584622 0.025 -1.27414e+06
0.0886298 0.0597816 0.025 -1.27433e+06
0.0906224 0.0611256 0.025 -1.28574e+06
0.0926518 0.0624944 0.025 -1.25158e+06
0.0947185 0.0638884 0.025 -1.29437e+06
0.096823 0.065308 0.025 -1.2535e+06
0.0989659 0.0667532 0.025 -1.33931e+06
0.101147 0.0682245 0.025 -1.68972e+06
0.103367 0.0697219 0.025 -1.59469e+06
0.105626 0.0712458 0.025 -1.20182e+06
0.107926 0.0727965 0.025 -1.19628e+06
0.110265 0.074374 0.025 -1.2338e+06
0.112644 0.0759789 0.025 -1.83346e+06
0.115063 0.0776111 0.025 -1.23721e+06
0.117524 0.0792709 0.025 -1.70873e+06
0.120026 0.0809585 0.025 -1.87905e+06
0.122569 0.0826741 0.025 -1.66911e+06
0.125155 0.0844179 0.025 -1.49164e+06
0.127782 0.0861901 0.025 -1.29459e+06
0.130451 0.0879908 0.025 -1.24897e+06
0.133163 0.08982 0.025 -1.22663e+06
0.135918 0.0916781 0.025 -1.19637e+06
0.138716 0.0935651 0.025 -1.19726e+06
0.141556 0.095481 0.025 -1.20664e+06
0.14444 0.097426 0.025 -1.58841e+06
0.147367 0.0994004 0.025 -2.34567e+06
0.150337 0.101404 0.025 -1.66735e+06
0.153351 0.103437 0.025 -1.6163e+06
0.156408 0.105498 0.025 -2.25633e+06
0.159508 0.107589 0.025 -1.02566e+06
0.162651 0.10971 0.025 -1.51555e+06
0.165838 0.111859 0.025 -3.65936e+06
0.169069 0.114039 0.025 -1.60508e+06
0.172343 0.116247 0.025 -1.98275e+06
0.175659 0.118483 0.025 -1.88118e+06
0.179018 0.120749 0.025 -1.87731e+06
0.182421 0.123045 0.025 -1.94774e+06
0.185866 0.125368 0.025 -1.70676e+06
0.189353 0.12772 0.025 -1.74191e+06
0.192882 0.1301 0.025 -1.84774e+06
0.196453 0.132509 0.025 -1.74561e+06
0.200065 0.134946 0.025 -2.18299e+06
0.203718 0.13741 0.025 -1.94053e+06
0.207412 0.139901 0.025 -926448
0.211146 0.14242 0.025 -988453
0.214919 0.144965 0.025 -1.61973e+06
0.218732 0.147537 0.025 -989752
0.222583 0.150134 0.025 -1.94491e+06
0.226472 0.152757 0.025 -978972
0.230399 0.155406 0.025 -1.8351e+06
0.234362 0.15808 0.025 -1.72852e+06
0.238362 0.160777 0.025 -2.35629e+06
0.242396 0.163498 0.025 -1.94777e+06
0.246466 0.166244 0.025 -2.11231e+06
0.250569 0.169012 0.025 -932624
0.254706 0.171801 0.025 -1.53492e+06
0.258874 0.174613 0.025 -1.53807e+06
0.263074 0.177446 0.025 -1.96104e+06
0.267304 0.180299 0.025 -1.58447e+06
0.271564 0.183172 0.025 -949602
0.275852 0.186064 0.025 -1.6277e+06
0.280168 0.188975 0.025 -924445
0.28451 0.191904 0.025 -1.65354e+06
0.288876 0.19485 0.025 -2.2786e+06
0.293268 0.197812 0.025 -1.61083e+06
0.297683 0.20079 0.025 -1.90856e+06
0.302119 0.203782 0.025 -2.25127e+06
0.306577 0.206788 0.025 -1.40321e+06
0.311054 0.209808 0.025 -1.58222e+06
0.315549 0.212841 0.025 -1.1671e+06
0.320063 0.215885 0.025 -2.01883e+06
0.324591 0.218939 0.025 -1.4229e+06
0.329134 0.222003 0.025 -1.4119e+06
0.333691 0.225077 0.025 -2.21886e+06
0.33826 0.228159 0.025 -1.78332e+06
0.342839 0.231248 0.025 -1.83101e+06
0.347428 0.234343 0.025 -875690
0.352025 0.237444 0.025 -1.93853e+06
0.356628 0.240548 0.025 -1.41551e+06
0.361237 0.243658 0.025 -1.15548e+06
0.36585 0.246769 0.025 -2.57802e+06
0.370465 0.249882 0.025 -1.02245e+06
0.375082 0.252996 0.025 -1.42575e+06
0.379698 0.25611 0.025 -2.62839e+06
0.384313 0.259223 0.025 -1.37405e+06
0.388926 0.262333 0.025 -1.70922e+06
0.393534 0.265442 0.025 -1.40929e+06
0.398136 0.268546 0.025 -880838
0.40273 0.271645 0.025 -1.63062e+06
0.407317 0.274739 0.025 -1.68649e+06
0.411894 0.277826 0.025 -2.11702e+06
0.41646 0.280906 0.025 -836542
0.421014 0.283977 0.025 -1.59566e+06
0.425554 0.28704 0.025 -1.86368e+06
0.430079 0.290092 0.025 -1.48356e+06
0.434588 0.293133 0.025 -1.82843e+06
0.439079 0.296162 0.025 -1.27955e+06
0.443551 0.299179 0.025 -1.66673e+06
0.448004 0.302183 0.025 -1.69625e+06
0.452437 0.305172 0.025 -1.6543e+06
0.456846 0.308146 0.025 -1.53659e+06
0.461232 0.311105 0.025 -1.56238e+06
0.465593 0.314047 0.025 -1.44761e+06
0.469929 0.316971 0.025 -1.93638e+06
0.474238 0.319878 0.025 -993359
0.47852 0.322766 0.025 -1.11363e+06
0.482773 0.325635 0.025 -883635
0.486996 0.328483 0.025 -1.32948e+06
0.491189 0.331311 0.025 -2.01986e+06
0.49535 0.334118 0.025 -1.28779e+06
