# p  FACE_DATA 298
# x  y  z  p
-0.789454 0 0.005 3530.4
-0.76864 0 0.005 2983.39
-0.748373 0 0.005 2755.85
-0.72864 0 0.005 2762.63
-0.709426 0 0.005 2776.36
-0.690719 0 0.005 2794.81
-0.672503 0 0.005 2811.41
-0.654767 0 0.005 2817.22
-0.637498 0 0.005 2823.09
-0.620683 0 0.005 2822.54
-0.604311 0 0.005 2821.05
-0.588369 0 0.005 2820.09
-0.572847 0 0.005 2822.74
-0.557734 0 0.005 2825
-0.543018 0 0.005 2820.94
-0.52869 0 0.005 2819.17
-0.514738 0 0.005 2817.5
-0.501153 0 0.005 2818.88
-0.487926 0 0.005 2817.96
-0.475046 0 0.005 2814.37
-0.462505 0 0.005 2813.09
-0.450294 0 0.005 2813.14
-0.438403 0 0.005 2811.84
-0.426826 0 0.005 2811.67
-0.415552 0 0.005 2811.44
-0.404575 0 0.005 2810.03
-0.393887 0 0.005 2807.64
-0.383478 0 0.005 2805.6
-0.373344 0 0.005 2804.87
-0.363476 0 0.005 2805.92
-0.353866 0 0.005 2806.22
-0.34451 0 0.005 2806.19
-0.335398 0 0.005 2805.2
-0.326526 0 0.005 2803.94
-0.317887 0 0.005 2801.89
-0.309474 0 0.005 2799.81
-0.301281 0 0.005 2797.44
-0.293304 0 0.005 2795.42
-0.285535 0 0.005 2793.82
-0.277971 0 0.005 2793.39
-0.270605 0 0.005 2794.06
-0.263431 0 0.005 2795.8
-0.256444 0 0.005 2797.91
-0.249642 0 0.005 2799.87
-0.243016 0 0.005 2801.18
-0.236565 0 0.005 2801.95
-0.230282 0 0.005 2802
-0.224163 0 0.005 2800.95
-0.218204 0 0.005 2798.87
-0.2124 0 0.005 2796.33
-0.206748 0 0.005 2793.14
-0.201243 0 0.005 2790.08
-0.195882 0 0.005 2787.17
-0.190661 0 0.005 2784.74
-0.185575 0 0.005 2782.53
-0.180621 0 0.005 2780.81
-0.175796 0 0.005 2779.55
-0.171097 0 0.005 2778.94
-0.16652 0 0.005 2778.78
-0.162061 0 0.005 2779.31
-0.157718 0 0.005 2780.23
-0.153487 0 0.005 2781.55
-0.149367 0 0.005 2782.94
-0.145351 0 0.005 2784.43
-0.14144 0 0.005 2785.87
-0.13763 0 0.005 2787.28
-0.133918 0 0.005 2788.49
-0.130302 0 0.005 2789.64
-0.126778 0 0.005 2790.82
-0.123345 0 0.005 2791.87
-0.119999 0 0.005 2792.76
-0.116739 0 0.005 2793.58
-0.113562 0 0.005 2794.24
-0.110466 0 0.005 2794.72
-0.107449 0 0.005 2794.96
-0.104509 0 0.005 2795.03
-0.101644 0 0.005 2794.85
-0.0988499 0 0.005 2794.56
-0.0961267 0 0.005 2794.09
-0.0934723 0 0.005 2793.57
-0.0908845 0 0.005 2792.97
-0.0883616 0 0.005 2792.33
-0.0859017 0 0.005 2791.62
-0.0835029 0 0.005 2790.86
-0.0811636 0 0.005 2790.04
-0.0788823 0 0.005 2789.2
-0.0766572 0 0.005 2788.29
-0.0744867 0 0.005 2787.36
-0.0723694 0 0.005 2786.39
-0.0703036 0 0.005 2785.41
-0.068288 0 0.005 2784.38
-0.0663211 0 0.005 2783.35
-0.0644014 0 0.005 2782.31
-0.0625277 0 0.005 2781.29
-0.0606985 0 0.005 2780.3
-0.0589126 0 0.005 2779.36
-0.0571687 0 0.005 2778.47
-0.0554656 0 0.005 2777.66
-0.0538019 0 0.005 2776.88
-0.0521766 0 0.005 2776.17
-0.0505886 0 0.005 2775.51
-0.0490366 0 0.005 2774.89
-0.0475196 0 0.005 2774.31
-0.0460364 0 0.005 2773.77
-0.0445861 0 0.005 2773.24
-0.0431675 0 0.005 2772.77
-0.0417798 0 0.005 2772.29
-0.0404219 0 0.005 2771.87
-0.0390927 0 0.005 2771.46
-0.0377914 0 0.005 2771.1
-0.0365171 0 0.005 2770.71
-0.0352688 0 0.005 2770.28
-0.0340456 0 0.005 2769.97
-0.0328467 0 0.005 2769.71
-0.0316712 0 0.005 2769.45
-0.0305183 0 0.005 2769.26
-0.0293871 0 0.005 2769.09
-0.028277 0 0.005 2768.95
-0.0271869 0 0.005 2768.81
-0.0261162 0 0.005 2768.72
-0.0250641 0 0.005 2768.6
-0.02403 0 0.005 2768.57
-0.023013 0 0.005 2768.41
-0.0220124 0 0.005 2768.36
-0.0210274 0 0.005 2768.28
-0.0200575 0 0.005 2768.33
-0.0191018 0 0.005 2768.18
-0.0181598 0 0.005 2768.23
-0.0172307 0 0.005 2768.12
-0.0163139 0 0.005 2768.35
-0.0154087 0 0.005 2768.14
-0.0145146 0 0.005 2768.3
-0.0136307 0 0.005 2768.1
-0.0127566 0 0.005 2768.72
-0.0118916 0 0.005 2768.2
-0.011035 0 0.005 2768.56
-0.0101864 0 0.005 2768
-0.00934497 0 0.005 2769.32
-0.00851021 0 0.005 2767.43
-0.00768153 0 0.005 2770.67
-0.00685832 0 0.005 2816.48
-0.00604 0 0.005 3121.06
-0.00522598 0 0.005 3853.18
-0.0044157 0 0.005 4676.95
-0.00360857 0 0.005 5295.86
-0.002804 0 0.005 5951.46
-0.00200143 0 0.005 6262.61
-0.00120028 0 0.005 6518.07
-0.0004 0 0.005 6665.07
0.00034641 0.0002 0.005 7776.46
0.00103936 0.000600074 0.005 8841.88
0.00173269 0.00100037 0.005 10856.4
0.00242667 0.00140104 0.005 13033.9
0.00312154 0.00180222 0.005 15410.8
0.00381758 0.00220408 0.005 17802
0.00451503 0.00260675 0.005 20145.2
0.00521415 0.00301039 0.005 22360.9
0.0059152 0.00341514 0.005 24431.3
0.00661845 0.00382117 0.005 26413.4
0.00732415 0.0042286 0.005 28322
0.00803257 0.00463761 0.005 30036
0.00874396 0.00504833 0.005 31421.5
0.0094586 0.00546093 0.005 32622.6
0.0101767 0.00587555 0.005 33811.5
0.0108987 0.00629234 0.005 35091.4
0.0116246 0.00671146 0.005 36576.5
0.0123549 0.00713309 0.005 38378.7
0.0130897 0.00755735 0.005 40711.2
0.0138294 0.00798441 0.005 43516.2
0.0145742 0.00841443 0.005 47072.3
0.0153244 0.00884757 0.005 51448.2
0.0160804 0.009284 0.005 56319.2
0.0168422 0.00972386 0.005 61277.2
0.0176104 0.0101673 0.005 66108.9
0.018385 0.0106146 0.005 70555.5
0.0191664 0.0110657 0.005 74865.8
0.019955 0.011521 0.005 79260.8
0.0207509 0.0119805 0.005 83743.2
0.0215546 0.0124445 0.005 88177.2
0.0223662 0.0129131 0.005 92170.5
0.0231861 0.0133865 0.005 95526.8
0.0240146 0.0138648 0.005 98259.1
0.0248521 0.0143483 0.005 100705
0.0256987 0.0148371 0.005 102899
0.0265549 0.0153315 0.005 104152
0.0274209 0.0158315 0.005 104256
0.0282971 0.0163373 0.005 103398
0.0291837 0.0168492 0.005 103269
0.0300812 0.0173674 0.005 104086
0.0309898 0.017892 0.005 104474
0.03191 0.0184232 0.005 104566
0.0328419 0.0189613 0.005 104126
0.033786 0.0195063 0.005 103996
0.0347427 0.0200587 0.005 103999
0.0357122 0.0206184 0.005 103934
0.036695 0.0211858 0.005 103832
0.0376913 0.0217611 0.005 103201
0.0387017 0.0223444 0.005 102772
0.0397264 0.022936 0.005 102477
0.0407658 0.0235361 0.005 102258
0.0418202 0.0241449 0.005 102177
0.0428902 0.0247627 0.005 102233
0.0439762 0.0253897 0.005 102392
0.0450784 0.0260261 0.005 102494
0.0461974 0.0266721 0.005 102447
0.0473334 0.0273279 0.005 102227
0.0484871 0.027994 0.005 102126
0.0496586 0.0286704 0.005 102168
0.0508486 0.0293575 0.005 102450
0.0520574 0.0300554 0.005 102570
0.0532855 0.0307644 0.005 102538
0.0545335 0.0314849 0.005 102414
0.0558016 0.0322171 0.005 102467
0.0570903 0.0329612 0.005 102728
0.0584003 0.0337174 0.005 103087
0.0597319 0.0344863 0.005 103289
0.0610857 0.0352678 0.005 103255
0.062462 0.0360624 0.005 103020
0.0638616 0.0368705 0.005 102758
0.0652848 0.0376922 0.005 102577
0.0667321 0.0385279 0.005 102575
0.0682043 0.0393778 0.005 102710
0.0697018 0.0402423 0.005 102813
0.071225 0.0411218 0.005 102887
0.0727747 0.0420165 0.005 102931
0.0743514 0.0429267 0.005 102936
0.0759556 0.043853 0.005 102935
0.0775879 0.0447954 0.005 102740
0.0792491 0.0457545 0.005 102530
0.0809395 0.0467305 0.005 102261
0.08266 0.0477239 0.005 102101
0.0844112 0.0487348 0.005 102145
0.0861936 0.0497639 0.005 102359
0.0880081 0.0508114 0.005 102595
0.089855 0.0518778 0.005 102715
0.0917354 0.0529634 0.005 102823
0.0936497 0.0540687 0.005 102866
0.0955988 0.055194 0.005 102866
0.0975833 0.0563398 0.005 102706
0.0996037 0.0575064 0.005 102383
0.101662 0.0586943 0.005 102172
0.103757 0.0599039 0.005 102107
0.10589 0.0611359 0.005 102221
0.108064 0.0623905 0.005 102430
0.110277 0.0636682 0.005 102785
0.112531 0.0649695 0.005 103083
0.114826 0.0662949 0.005 103244
0.117164 0.0676448 0.005 103054
0.119546 0.0690198 0.005 103325
0.121972 0.0704204 0.005 103402
0.124443 0.0718472 0.005 103382
0.126961 0.0733005 0.005 103289
0.129525 0.0747811 0.005 103305
0.132137 0.0762893 0.005 103279
0.134798 0.0778258 0.005 102665
0.13751 0.0793912 0.005 102641
0.140272 0.080986 0.005 102993
0.143086 0.0826109 0.005 102405
0.145954 0.0842664 0.005 102425
0.148875 0.085953 0.005 102723
0.151852 0.0876716 0.005 102903
0.154884 0.0894226 0.005 103143
0.157975 0.0912068 0.005 102431
0.161123 0.0930248 0.005 102168
0.164332 0.0948773 0.005 102170
0.167602 0.096765 0.005 101938
0.170933 0.0986885 0.005 102091
0.174328 0.100649 0.005 102558
0.177788 0.102646 0.005 103161
0.181313 0.104681 0.005 103475
0.184907 0.106756 0.005 102740
0.188568 0.10887 0.005 103131
0.192299 0.111024 0.005 101575
0.196102 0.113219 0.005 101450
0.199977 0.115456 0.005 100591
0.203926 0.117737 0.005 100334
0.20795 0.120061 0.005 100805
0.212053 0.122428 0.005 100088
0.216234 0.124843 0.005 99747.5
0.220494 0.127302 0.005 99400.6
0.224837 0.129809 0.005 99373.8
0.229262 0.132365 0.005 97895.9
0.233773 0.134969 0.005 97653.6
0.23837 0.137624 0.005 97978.9
0.243057 0.140328 0.005 97370.8
0.247833 0.143086 0.005 97445.9
0.2527 0.145896 0.005 97205.3
0.257662 0.148761 0.005 97299.8
0.262718 0.151681 0.005 96338.1
0.267873 0.154657 0.005 96209.4
0.273127 0.15769 0.005 96381.6
0.278482 0.160781 0.005 96828.2
0.28394 0.163933 0.005 96408.3
0.289504 0.167145 0.005 96604.6
0.295175 0.170419 0.005 96707.2
0.300955 0.173756 0.005 97324
0.306846 0.177158 0.005 97257.7
0.312851 0.180625 0.005 96398
