# wallHeatFlux  FACE_DATA 298
# x  y  z  wallHeatFlux
-0.789454 0 0.005 -321928
-0.76864 0 0.005 -57416.7
-0.748373 0 0.005 -53474.6
-0.72864 0 0.005 -55180.5
-0.709426 0 0.005 -55626.9
-0.690719 0 0.005 -55551.7
-0.672503 0 0.005 -55263.7
-0.654767 0 0.005 -54749.2
-0.637498 0 0.005 -54194.8
-0.620683 0 0.005 -53575.4
-0.604311 0 0.005 -52996.1
-0.588369 0 0.005 -52484.8
-0.572847 0 0.005 -52087.7
-0.557734 0 0.005 -51735.2
-0.543018 0 0.005 -51283.2
-0.52869 0 0.005 -50912.2
-0.514738 0 0.005 -50579.6
-0.501153 0 0.005 -50361.5
-0.487926 0 0.005 -50102.6
-0.475046 0 0.005 -49797.9
-0.462505 0 0.005 -49549.8
-0.450294 0 0.005 -49344.8
-0.438403 0 0.005 -49132.2
-0.426826 0 0.005 -48968.1
-0.415552 0 0.005 -48823.2
-0.404575 0 0.005 -48645.3
-0.393887 0 0.005 -48461.5
-0.383478 0 0.005 -48297.9
-0.373344 0 0.005 -48165.4
-0.363476 0 0.005 -48055
-0.353866 0 0.005 -47950.5
-0.34451 0 0.005 -47839.8
-0.335398 0 0.005 -47712.4
-0.326526 0 0.005 -47590.4
-0.317887 0 0.005 -47463.4
-0.309474 0 0.005 -47335.9
-0.301281 0 0.005 -47217.9
-0.293304 0 0.005 -47098.4
-0.285535 0 0.005 -46998.6
-0.277971 0 0.005 -46925.1
-0.270605 0 0.005 -46876
-0.263431 0 0.005 -46850.8
-0.256444 0 0.005 -46827.1
-0.249642 0 0.005 -46803.3
-0.243016 0 0.005 -46768.6
-0.236565 0 0.005 -46723
-0.230282 0 0.005 -46670.2
-0.224163 0 0.005 -46590.6
-0.218204 0 0.005 -46491
-0.2124 0 0.005 -46390.4
-0.206748 0 0.005 -46279.7
-0.201243 0 0.005 -46176.9
-0.195882 0 0.005 -46079.4
-0.190661 0 0.005 -45992.7
-0.185575 0 0.005 -45913.2
-0.180621 0 0.005 -45840.6
-0.175796 0 0.005 -45784
-0.171097 0 0.005 -45743.7
-0.16652 0 0.005 -45709.2
-0.162061 0 0.005 -45690.7
-0.157718 0 0.005 -45677.6
-0.153487 0 0.005 -45675.8
-0.149367 0 0.005 -45672.8
-0.145351 0 0.005 -45675.5
-0.14144 0 0.005 -45677.8
-0.13763 0 0.005 -45680.3
-0.133918 0 0.005 -45678.5
-0.130302 0 0.005 -45684.5
-0.126778 0 0.005 -45675.5
-0.123345 0 0.005 -45670.3
-0.119999 0 0.005 -45660.3
-0.116739 0 0.005 -45655.7
-0.113562 0 0.005 -45643
-0.110466 0 0.005 -45630.9
-0.107449 0 0.005 -45616
-0.104509 0 0.005 -45598.7
-0.101644 0 0.005 -45576
-0.0988499 0 0.005 -45547.2
-0.0961267 0 0.005 -45521.1
-0.0934723 0 0.005 -45490.6
-0.0908845 0 0.005 -45461
-0.0883616 0 0.005 -45431.2
-0.0859017 0 0.005 -45401.6
-0.0835029 0 0.005 -45366.7
-0.0811636 0 0.005 -45337.6
-0.0788823 0 0.005 -45302.5
-0.0766572 0 0.005 -45268.9
-0.0744867 0 0.005 -45239.3
-0.0723694 0 0.005 -45205.9
-0.0703036 0 0.005 -45171.2
-0.068288 0 0.005 -45137.8
-0.0663211 0 0.005 -45109.4
-0.0644014 0 0.005 -45075.8
-0.0625277 0 0.005 -45042.4
-0.0606985 0 0.005 -45009.1
-0.0589126 0 0.005 -44981.3
-0.0571687 0 0.005 -44953.6
-0.0554656 0 0.005 -44926.1
-0.0538019 0 0.005 -44899.2
-0.0521766 0 0.005 -44876.3
-0.0505886 0 0.005 -44855.6
-0.0490366 0 0.005 -44833
-0.0475196 0 0.005 -44817.5
-0.0460364 0 0.005 -44796.2
-0.0445861 0 0.005 -44780.9
-0.0431675 0 0.005 -44759.5
-0.0417798 0 0.005 -44743.7
-0.0404219 0 0.005 -44729.1
-0.0390927 0 0.005 -44714.2
-0.0377914 0 0.005 -44705
-0.0365171 0 0.005 -44690.7
-0.0352688 0 0.005 -44698
-0.0340456 0 0.005 -44738.3
-0.0328467 0 0.005 -44793.3
-0.0316712 0 0.005 -44856
-0.0305183 0 0.005 -44919.1
-0.0293871 0 0.005 -44980.8
-0.028277 0 0.005 -45039.7
-0.0271869 0 0.005 -45093
-0.0261162 0 0.005 -45147.5
-0.0250641 0 0.005 -45190.5
-0.02403 0 0.005 -45239.9
-0.023013 0 0.005 -45281.1
-0.0220124 0 0.005 -45322.5
-0.0210274 0 0.005 -45359.7
-0.0200575 0 0.005 -45398.9
-0.0191018 0 0.005 -45434.6
-0.0181598 0 0.005 -45466.5
-0.0172307 0 0.005 -45500.9
-0.0163139 0 0.005 -45532.7
-0.0154087 0 0.005 -45568.8
-0.0145146 0 0.005 -45600.5
-0.0136307 0 0.005 -45623.7
-0.0127566 0 0.005 -45654.1
-0.0118916 0 0.005 -45673.9
-0.011035 0 0.005 -45703.6
-0.0101864 0 0.005 -45720
-0.00934497 0 0.005 -45761.3
-0.00851021 0 0.005 -45792.9
-0.00768153 0 0.005 -45699
-0.00685832 0 0.005 -44363.9
-0.00604 0 0.005 -38603.2
-0.00522598 0 0.005 -30071.7
-0.0044157 0 0.005 -31931.1
-0.00360857 0 0.005 -42321.9
-0.002804 0 0.005 -50344.3
-0.00200143 0 0.005 -54480.4
-0.00120028 0 0.005 -62210.3
-0.0004 0 0.005 -72033.9
0.00034641 0.0002 0.005 -96145.4
0.00103936 0.000600074 0.005 -135840
0.00173269 0.00100037 0.005 -190727
0.00242667 0.00140104 0.005 -247097
0.00312154 0.00180222 0.005 -293661
0.00381758 0.00220408 0.005 -355534
0.00451503 0.00260675 0.005 -421654
0.00521415 0.00301039 0.005 -481152
0.0059152 0.00341514 0.005 -531795
0.00661845 0.00382117 0.005 -577136
0.00732415 0.0042286 0.005 -618022
0.00803257 0.00463761 0.005 -652206
0.00874396 0.00504833 0.005 -675873
0.0094586 0.00546093 0.005 -693993
0.0101767 0.00587555 0.005 -710828
0.0108987 0.00629234 0.005 -728956
0.0116246 0.00671146 0.005 -750471
0.0123549 0.00713309 0.005 -778904
0.0130897 0.00755735 0.005 -815615
0.0138294 0.00798441 0.005 -860711
0.0145742 0.00841443 0.005 -917168
0.0153244 0.00884757 0.005 -986420
0.0160804 0.009284 0.005 -1.05862e+06
0.0168422 0.00972386 0.005 -1.12666e+06
0.0176104 0.0101673 0.005 -1.1874e+06
0.018385 0.0106146 0.005 -1.24195e+06
0.0191664 0.0110657 0.005 -1.28472e+06
0.019955 0.011521 0.005 -1.32646e+06
0.0207509 0.0119805 0.005 -1.36813e+06
0.0215546 0.0124445 0.005 -1.40477e+06
0.0223662 0.0129131 0.005 -1.43378e+06
0.0231861 0.0133865 0.005 -1.45026e+06
0.0240146 0.0138648 0.005 -1.45841e+06
0.0248521 0.0143483 0.005 -1.46263e+06
0.0256987 0.0148371 0.005 -1.46232e+06
0.0265549 0.0153315 0.005 -1.45274e+06
0.0274209 0.0158315 0.005 -1.43068e+06
0.0282971 0.0163373 0.005 -1.41541e+06
0.0291837 0.0168492 0.005 -1.3845e+06
0.0300812 0.0173674 0.005 -1.36901e+06
0.0309898 0.017892 0.005 -1.35651e+06
0.03191 0.0184232 0.005 -1.3484e+06
0.0328419 0.0189613 0.005 -1.3251e+06
0.033786 0.0195063 0.005 -1.30746e+06
0.0347427 0.0200587 0.005 -1.29606e+06
0.0357122 0.0206184 0.005 -1.28327e+06
0.036695 0.0211858 0.005 -1.27116e+06
0.0376913 0.0217611 0.005 -1.26158e+06
0.0387017 0.0223444 0.005 -1.24535e+06
0.0397264 0.022936 0.005 -1.23276e+06
0.0407658 0.0235361 0.005 -1.2241e+06
0.0418202 0.0241449 0.005 -1.22094e+06
0.0428902 0.0247627 0.005 -1.21124e+06
0.0439762 0.0253897 0.005 -1.20417e+06
0.0450784 0.0260261 0.005 -1.19859e+06
0.0461974 0.0266721 0.005 -1.19198e+06
0.0473334 0.0273279 0.005 -1.18471e+06
0.0484871 0.027994 0.005 -1.17867e+06
0.0496586 0.0286704 0.005 -1.19668e+06
0.0508486 0.0293575 0.005 -1.17703e+06
0.0520574 0.0300554 0.005 -1.16977e+06
0.0532855 0.0307644 0.005 -1.16507e+06
0.0545335 0.0314849 0.005 -1.16604e+06
0.0558016 0.0322171 0.005 -1.15694e+06
0.0570903 0.0329612 0.005 -1.15285e+06
0.0584003 0.0337174 0.005 -1.14997e+06
0.0597319 0.0344863 0.005 -1.14861e+06
0.0610857 0.0352678 0.005 -1.15237e+06
0.062462 0.0360624 0.005 -1.14476e+06
0.0638616 0.0368705 0.005 -1.13829e+06
0.0652848 0.0376922 0.005 -1.14359e+06
0.0667321 0.0385279 0.005 -1.13322e+06
0.0682043 0.0393778 0.005 -1.13933e+06
0.0697018 0.0402423 0.005 -1.12333e+06
0.071225 0.0411218 0.005 -1.12106e+06
0.0727747 0.0420165 0.005 -1.11643e+06
0.0743514 0.0429267 0.005 -1.12366e+06
0.0759556 0.043853 0.005 -1.11381e+06
0.0775879 0.0447954 0.005 -1.11979e+06
0.0792491 0.0457545 0.005 -1.10779e+06
0.0809395 0.0467305 0.005 -1.11538e+06
0.08266 0.0477239 0.005 -1.10299e+06
0.0844112 0.0487348 0.005 -1.09402e+06
0.0861936 0.0497639 0.005 -1.1145e+06
0.0880081 0.0508114 0.005 -1.10416e+06
0.089855 0.0518778 0.005 -1.09093e+06
0.0917354 0.0529634 0.005 -1.09367e+06
0.0936497 0.0540687 0.005 -1.0886e+06
0.0955988 0.055194 0.005 -1.08559e+06
0.0975833 0.0563398 0.005 -1.09008e+06
0.0996037 0.0575064 0.005 -1.41155e+06
0.101662 0.0586943 0.005 -1.25526e+06
0.103757 0.0599039 0.005 -1.27712e+06
0.10589 0.0611359 0.005 -1.05521e+06
0.108064 0.0623905 0.005 -1.05593e+06
0.110277 0.0636682 0.005 -1.10626e+06
0.112531 0.0649695 0.005 -1.19861e+06
0.114826 0.0662949 0.005 -1.38241e+06
0.117164 0.0676448 0.005 -1.61961e+06
0.119546 0.0690198 0.005 -1.26381e+06
0.121972 0.0704204 0.005 -1.23885e+06
0.124443 0.0718472 0.005 -1.03363e+06
0.126961 0.0733005 0.005 -1.27674e+06
0.129525 0.0747811 0.005 -1.03176e+06
0.132137 0.0762893 0.005 -1.29285e+06
0.134798 0.0778258 0.005 -1.71701e+06
0.13751 0.0793912 0.005 -1.60335e+06
0.140272 0.080986 0.005 -1.01728e+06
0.143086 0.0826109 0.005 -1.67244e+06
0.145954 0.0842664 0.005 -1.52359e+06
0.148875 0.085953 0.005 -1.48385e+06
0.151852 0.0876716 0.005 -1.46088e+06
0.154884 0.0894226 0.005 -1.19417e+06
0.157975 0.0912068 0.005 -1.72633e+06
0.161123 0.0930248 0.005 -1.61035e+06
0.164332 0.0948773 0.005 -1.24785e+06
0.167602 0.096765 0.005 -1.24919e+06
0.170933 0.0986885 0.005 -1.02255e+06
0.174328 0.100649 0.005 -971120
0.177788 0.102646 0.005 -969246
0.181313 0.104681 0.005 -979637
0.184907 0.106756 0.005 -1.9501e+06
0.188568 0.10887 0.005 -997271
0.192299 0.111024 0.005 -1.84888e+06
0.196102 0.113219 0.005 -1.25771e+06
0.199977 0.115456 0.005 -1.56642e+06
0.203926 0.117737 0.005 -1.65057e+06
0.20795 0.120061 0.005 -973490
0.212053 0.122428 0.005 -1.59219e+06
0.216234 0.124843 0.005 -1.73142e+06
0.220494 0.127302 0.005 -1.68238e+06
0.224837 0.129809 0.005 -877141
0.229262 0.132365 0.005 -1.91924e+06
0.233773 0.134969 0.005 -1.60115e+06
0.23837 0.137624 0.005 -942638
0.243057 0.140328 0.005 -1.4011e+06
0.247833 0.143086 0.005 -1.28363e+06
0.2527 0.145896 0.005 -1.48724e+06
0.257662 0.148761 0.005 -1.30661e+06
0.262718 0.151681 0.005 -1.78685e+06
0.267873 0.154657 0.005 -1.73556e+06
0.273127 0.15769 0.005 -1.40266e+06
0.278482 0.160781 0.005 -814715
0.28394 0.163933 0.005 -1.67796e+06
0.289504 0.167145 0.005 -1.56185e+06
0.295175 0.170419 0.005 -1.83112e+06
0.300955 0.173756 0.005 -1.37944e+06
0.306846 0.177158 0.005 -846562
0.312851 0.180625 0.005 -2.01135e+06
