# p  FACE_DATA 317
# x  y  z  p
-2.24217 0 0.27 23911.1
-2.12942 0 0.27 23883
-2.02231 0 0.27 23856.2
-1.92055 0 0.27 23845.9
-1.82389 0 0.27 23843.2
-1.73207 0 0.27 23838.2
-1.64485 0 0.27 23830.5
-1.562 0 0.27 23825.9
-1.48331 0 0.27 23825.6
-1.40856 0 0.27 23823.6
-1.33756 0 0.27 23815.6
-1.27013 0 0.27 23801.7
-1.20608 0 0.27 23783.2
-1.14539 0 0.27 23761.8
-1.08787 0 0.27 23742.3
-1.03323 0 0.27 23725.1
-0.981322 0 0.27 23710.1
-0.932014 0 0.27 23698
-0.885173 0 0.27 23688.8
-0.84068 0 0.27 23681.9
-0.798416 0 0.27 23677.1
-0.758473 0 0.27 23674.1
-0.720912 0 0.27 23672.4
-0.685558 0 0.27 23671.7
-0.652245 0 0.27 23671.6
-0.620811 0 0.27 23671.6
-0.591171 0 0.27 23671.5
-0.563165 0 0.27 23671.7
-0.536572 0 0.27 23672.7
-0.51125 0 0.27 23674.2
-0.487059 0 0.27 23676.6
-0.463863 0 0.27 23680.1
-0.441526 0 0.27 23684.5
-0.419915 0 0.27 23689.6
-0.398896 0 0.27 23695.1
-0.378338 0 0.27 23700.9
-0.358104 0 0.27 23706.6
-0.33806 0 0.27 23710
-0.318069 0 0.27 23737.9
-0.296809 0 0.27 23755.7
-0.275112 0 0.27 23738.3
-0.255001 0 0.27 23734.4
-0.23636 0 0.27 23762.1
-0.219081 0 0.27 23753.3
-0.203066 0 0.27 23730.9
-0.188221 0 0.27 23728.6
-0.174462 0 0.27 23726.1
-0.161708 0 0.27 23726.3
-0.149886 0 0.27 23727.1
-0.138929 0 0.27 23726.6
-0.128773 0 0.27 23727
-0.119359 0 0.27 23726.2
-0.110632 0 0.27 23726.3
-0.102544 0 0.27 23726.3
-0.0950472 0 0.27 23726.9
-0.0880983 0 0.27 23727
-0.0816572 0 0.27 23727
-0.0756869 0 0.27 23727.9
-0.070153 0 0.27 23725.7
-0.0650234 0 0.27 23757.9
-0.0602687 0 0.27 25186
-0.0558616 0 0.27 32902.4
-0.0517765 0 0.27 41828.8
-0.0479899 0 0.27 45279.3
-0.04448 0 0.27 47498.6
-0.0412265 0 0.27 49095.3
-0.0382106 0 0.27 50145.3
-0.0354151 0 0.27 51045.2
-0.0328237 0 0.27 51833.2
-0.0304215 0 0.27 52467.9
-0.0281948 0 0.27 53042.7
-0.0261306 0 0.27 53555.8
-0.0242171 0 0.27 54018.5
-0.0224431 0 0.27 54432.6
-0.0207985 0 0.27 54807.5
-0.0192738 0 0.27 55147.7
-0.0178602 0 0.27 55456.8
-0.0165496 0 0.27 55738.5
-0.0153345 0 0.27 55994.6
-0.0142077 0 0.27 56227.4
-0.0131629 0 0.27 56439.9
-0.0121939 0 0.27 56634.4
-0.0112952 0 0.27 56813
-0.0104616 0 0.27 56977.5
-0.0096884 0 0.27 57129.9
-0.00897103 0 0.27 57271.6
-0.00830536 0 0.27 57404
-0.00768758 0 0.27 57528.2
-0.0071141 0 0.27 57645
-0.00658165 0 0.27 57754.8
-0.00608714 0 0.27 57858.9
-0.00562772 0 0.27 57957.3
-0.00520074 0 0.27 58050.6
-0.00480375 0 0.27 58138.9
-0.00443446 0 0.27 58222.6
-0.00409073 0 0.27 58301.7
-0.00377059 0 0.27 58376.7
-0.00347218 0 0.27 58447.3
-0.00319379 0 0.27 58519.1
-0.00293381 0 0.27 58581.9
-0.00269075 0 0.27 58642.5
-0.00246319 0 0.27 58699.7
-0.00224984 0 0.27 58754.1
-0.00204945 0 0.27 58805.4
-0.00186089 0 0.27 58854
-0.00168306 0 0.27 58899.6
-0.00151492 0 0.27 58943.1
-0.00135552 0 0.27 58983.4
-0.00120394 0 0.27 59021.8
-0.00105929 0 0.27 59056.9
-0.000920752 0 0.27 59090.6
-0.000787523 0 0.27 59120.2
-0.000658834 0 0.27 59147.5
-0.000533942 0 0.27 59170.7
-0.000412129 0 0.27 59187.4
-0.000292693 0 0.27 59203.5
-0.000174943 0 0.27 59182.7
-5.82025e-05 0 0.27 59385.3
6.0278e-05 2.68374e-05 0.27 58661.8
0.000182584 8.12915e-05 0.27 58886.2
0.000308438 0.000137325 0.27 58843.7
0.000437939 0.000194983 0.27 58829.3
0.00057119 0.00025431 0.27 58816
0.000708293 0.000315353 0.27 58815.8
0.000849358 0.000378158 0.27 58825.4
0.000994492 0.000442776 0.27 58839.7
0.00114381 0.000509256 0.27 58861.4
0.00129743 0.000577649 0.27 58886.3
0.00145545 0.000648007 0.27 58916.6
0.00161801 0.000720386 0.27 58950.1
0.00178523 0.000794839 0.27 58987.9
0.00195724 0.000871423 0.27 59028.7
0.00213417 0.000950195 0.27 59073.2
0.00231614 0.00103122 0.27 59120.6
0.0025033 0.00111455 0.27 59171.6
0.00269579 0.00120024 0.27 59225.5
0.00289374 0.00128838 0.27 59282.6
0.00309731 0.00137901 0.27 59342.7
0.00330663 0.00147221 0.27 59406.4
0.00352187 0.00156804 0.27 59473.9
0.00374317 0.00166657 0.27 59543.5
0.0039707 0.00176788 0.27 59616.2
0.00420463 0.00187202 0.27 59692.3
0.00444512 0.0019791 0.27 59771.6
0.00469233 0.00208916 0.27 59854.3
0.00494645 0.0022023 0.27 59940.5
0.00520763 0.00231859 0.27 60030.2
0.00547608 0.00243811 0.27 60123.4
0.00575197 0.00256094 0.27 60220.3
0.00603549 0.00268717 0.27 60320.7
0.00632683 0.00281688 0.27 60425
0.00662618 0.00295016 0.27 60533.1
0.00693375 0.0030871 0.27 60645.2
0.00724974 0.0032278 0.27 60761.2
0.00757435 0.00337232 0.27 60881.5
0.0079078 0.00352077 0.27 61006.1
0.00825029 0.00367327 0.27 61135.1
0.00860204 0.00382988 0.27 61268.7
0.00896328 0.00399071 0.27 61407
0.00933422 0.00415586 0.27 61550.2
0.0097151 0.00432544 0.27 61698.3
0.0101061 0.00449954 0.27 61851.6
0.0105076 0.00467828 0.27 62010.6
0.0109197 0.00486175 0.27 62175.1
0.0113426 0.00505007 0.27 62345.7
0.0117768 0.00524333 0.27 62522.3
0.0122222 0.00544166 0.27 62705.5
0.0126792 0.00564515 0.27 62895.1
0.0131482 0.00585394 0.27 63091.8
0.0136292 0.00606812 0.27 63295.5
0.0141227 0.00628781 0.27 63506.9
0.0146288 0.00651313 0.27 63726.2
0.0151477 0.00674419 0.27 63953.3
0.0156799 0.00698113 0.27 64188.8
0.0162254 0.00722403 0.27 64432.8
0.0167847 0.00747303 0.27 64685.8
0.017358 0.00772826 0.27 64947.7
0.0179454 0.00798982 0.27 65219.2
0.0185474 0.00825783 0.27 65500.1
0.0191641 0.00853242 0.27 65790.9
0.0197959 0.00881371 0.27 66091.6
0.0204431 0.00910183 0.27 66402.3
0.0211057 0.00939688 0.27 66722.9
0.0217843 0.00969898 0.27 67053.6
0.0224789 0.0100083 0.27 67394.6
0.02319 0.0103248 0.27 67745.8
0.0239176 0.0106488 0.27 68107.6
0.0246623 0.0109804 0.27 68479.8
0.025424 0.0113195 0.27 68862.6
0.0262032 0.0116664 0.27 69256.1
0.0270001 0.0120212 0.27 69660.3
0.0278149 0.012384 0.27 70075
0.0286479 0.0127549 0.27 70500.5
0.0294992 0.0131339 0.27 70935.8
0.0303692 0.0135212 0.27 71381.6
0.0312581 0.013917 0.27 71837
0.0321659 0.0143213 0.27 72301.9
0.0330931 0.014734 0.27 72776.4
0.0340398 0.0151555 0.27 73260.6
0.0350062 0.0155858 0.27 73754.2
0.0359924 0.0160249 0.27 74257.2
0.0369987 0.0164729 0.27 74770.7
0.0380251 0.0169299 0.27 75292.8
0.0390719 0.0173959 0.27 75824.1
0.0401391 0.0178711 0.27 76364
0.041227 0.0183554 0.27 76910.8
0.0423356 0.018849 0.27 77466.1
0.043465 0.0193519 0.27 78028.9
0.0446154 0.0198641 0.27 78597
0.0457867 0.0203856 0.27 79170.6
0.046979 0.0209164 0.27 79747.2
0.0481924 0.0214567 0.27 80326.3
0.0494267 0.0220063 0.27 80905.7
0.0506823 0.0225652 0.27 81483.1
0.0519588 0.0231335 0.27 82056.8
0.0532563 0.0237113 0.27 82623.8
0.0545749 0.0242983 0.27 83182.7
0.0559142 0.0248946 0.27 83730.3
0.0572744 0.0255002 0.27 84265.7
0.0586552 0.0261149 0.27 84787.2
0.0600565 0.0267388 0.27 85295.4
0.0614781 0.0273718 0.27 85790.8
0.0629198 0.0280137 0.27 86273.6
0.0643815 0.0286645 0.27 86747.4
0.0658629 0.029324 0.27 87212.3
0.0673636 0.0299922 0.27 87671.9
0.0688836 0.030669 0.27 88127.1
0.0704223 0.0313541 0.27 88579.8
0.0719795 0.0320474 0.27 89033.3
0.0735549 0.0327488 0.27 89486.7
0.075148 0.0334581 0.27 89940.6
0.0767585 0.0341751 0.27 90395.1
0.0783859 0.0348996 0.27 90847.8
0.0800297 0.0356315 0.27 91299.7
0.0816895 0.0363706 0.27 91750
0.0833647 0.0371164 0.27 92190.9
0.085055 0.0378689 0.27 92622.2
0.0867595 0.0386278 0.27 93034.6
0.0884779 0.0393929 0.27 93424.2
0.0902095 0.0401639 0.27 93788.5
0.0919538 0.0409405 0.27 94124.9
0.09371 0.0417224 0.27 94431.9
0.0954776 0.0425094 0.27 94712.2
0.0972558 0.0433011 0.27 94970.2
0.0990439 0.0440972 0.27 95209.8
0.100841 0.0448975 0.27 95428.6
0.102647 0.0457015 0.27 95629.8
0.104461 0.046509 0.27 95835.8
0.106282 0.0473197 0.27 96030.1
0.108109 0.0481331 0.27 96239.4
0.109941 0.048949 0.27 96443.4
0.111779 0.0497671 0.27 96644.5
0.11362 0.0505868 0.27 96853.8
0.115464 0.051408 0.27 97099.8
0.117311 0.0522302 0.27 97335.4
0.11916 0.0530531 0.27 97564.8
0.121009 0.0538763 0.27 97844.6
0.122857 0.0546995 0.27 98107.2
0.124705 0.0555223 0.27 98354.6
0.126552 0.0563444 0.27 98603.4
0.128395 0.0571653 0.27 98844.2
0.130236 0.0579847 0.27 99071.2
0.132072 0.0588023 0.27 99281.7
0.133904 0.0596177 0.27 99474.2
0.13573 0.0604306 0.27 99632.8
0.137549 0.0612407 0.27 99750.1
0.139361 0.0620475 0.27 99849.1
0.141165 0.0628508 0.27 99904.6
0.14296 0.0636503 0.27 100001
0.144747 0.0644455 0.27 100078
0.146523 0.0652363 0.27 100129
0.148288 0.0660222 0.27 100174
0.150042 0.0668031 0.27 100201
0.151784 0.0675785 0.27 100259
0.153513 0.0683483 0.27 100274
0.155228 0.0691121 0.27 100305
0.15693 0.0698698 0.27 100370
0.158617 0.070621 0.27 100423
0.160289 0.0713654 0.27 100504
0.161946 0.072103 0.27 100577
0.163586 0.0728334 0.27 100653
0.165211 0.0735564 0.27 100754
0.166817 0.0742718 0.27 100854
0.168406 0.0749795 0.27 100971
0.169978 0.0756793 0.27 101094
0.171532 0.0763709 0.27 101197
0.173067 0.0770543 0.27 101302
0.174583 0.0777293 0.27 101392
0.17608 0.0783958 0.27 101512
0.177557 0.0790535 0.27 101649
0.179014 0.0797025 0.27 101703
0.180452 0.0803425 0.27 101768
0.18187 0.0809736 0.27 101887
0.183266 0.0815956 0.27 102012
0.184643 0.0822085 0.27 102175
0.185999 0.0828122 0.27 102313
0.187334 0.0834066 0.27 102447
0.188648 0.0839917 0.27 102618
0.189942 0.0845675 0.27 102770
0.191214 0.0851339 0.27 102983
0.192465 0.085691 0.27 103157
0.193695 0.0862387 0.27 103370
0.194904 0.086777 0.27 103603
0.196093 0.0873059 0.27 103834
0.197259 0.0878254 0.27 104064
0.198405 0.0883357 0.27 104302
0.19953 0.0888366 0.27 104569
0.200635 0.0893284 0.27 104869
0.201718 0.0898108 0.27 105135
0.202782 0.0902841 0.27 105391
0.203824 0.0907483 0.27 105648
0.204846 0.0912035 0.27 105861
0.205848 0.0916496 0.27 106086
0.206831 0.0920869 0.27 106323
0.207793 0.0925153 0.27 106528
0.208735 0.092935 0.27 106759
0.209658 0.093346 0.27 106644
