/*--------------------------------*- C++ -*----------------------------------*\
| =========                 |                                                 |
| \\      /  F ield         | OpenFOAM: The Open Source CFD Toolbox           |
|  \\    /   O peration     | Version:  v2012                                 |
|   \\  /    A nd           | Website:  www.openfoam.com                      |
|    \\/     M anipulation  |                                                 |
\*---------------------------------------------------------------------------*/
FoamFile
{
    version     2.0;
    format      ascii;
    class       volScalarField;
    location    "12000";
    object      alphat;
}
// * * * * * * * * * * * * * * * * * * * * * * * * * * * * * * * * * * * * * //

dimensions      [1 -1 -1 0 0 0 0];


internalField   nonuniform List<scalar> 
27324
(
1.08467e-06
1.08568e-06
3.12657e-06
1.07033e-06
3.05036e-06
2.92366e-06
1.05149e-06
2.90693e-06
2.81622e-06
1.92281e-06
1.0268e-06
2.74307e-06
2.65095e-06
1.82315e-06
1.03908e-06
9.908e-07
2.55295e-06
2.46915e-06
1.68951e-06
9.63521e-07
5.13509e-07
9.46864e-07
2.3216e-06
2.26427e-06
1.55039e-06
8.72434e-07
4.67383e-07
2.4342e-07
9.00119e-07
2.0645e-06
2.02839e-06
1.40287e-06
7.84286e-07
4.1596e-07
2.19666e-07
1.16732e-07
8.5164e-07
1.7999e-06
1.77609e-06
1.25649e-06
6.98909e-07
3.69444e-07
1.94527e-07
1.06155e-07
6.05147e-08
7.75241e-07
1.53215e-06
1.5244e-06
1.11942e-06
6.30863e-07
3.27284e-07
1.72862e-07
9.52405e-08
5.65319e-08
3.4976e-08
6.1309e-07
1.22087e-06
1.28169e-06
9.92535e-07
5.7968e-07
2.98169e-07
1.53927e-07
8.62151e-08
5.23832e-08
3.3603e-08
2.16716e-08
3.7627e-07
8.47223e-07
1.02316e-06
8.73152e-07
5.36061e-07
2.7958e-07
1.41653e-07
7.85957e-08
4.90937e-08
3.20123e-08
2.11146e-08
1.37772e-08
1.6761e-07
5.13019e-07
7.40115e-07
7.44025e-07
4.92046e-07
2.64797e-07
1.34472e-07
7.3875e-08
4.64032e-08
3.07267e-08
2.03443e-08
1.34764e-08
8.76569e-09
9.90217e-08
2.86668e-07
4.72301e-07
5.79263e-07
4.42237e-07
2.4868e-07
1.29095e-07
7.12798e-08
4.48221e-08
2.96393e-08
1.9678e-08
1.30209e-08
8.56169e-09
5.56672e-09
8.6173e-08
2.14609e-07
2.8415e-07
4.01903e-07
3.61728e-07
2.30058e-07
1.23169e-07
6.93418e-08
4.40082e-08
2.89919e-08
1.90845e-08
1.26185e-08
8.2562e-09
5.42327e-09
3.51102e-09
8.29081e-08
1.99955e-07
2.13933e-07
2.77611e-07
2.76435e-07
1.94804e-07
1.14894e-07
6.71833e-08
4.3348e-08
2.86564e-08
1.87116e-08
1.22589e-08
7.99006e-09
5.2207e-09
3.40845e-09
2.23189e-09
8.1184e-08
1.9515e-07
1.97219e-07
2.29621e-07
2.14553e-07
1.61128e-07
9.96037e-08
6.24178e-08
4.2369e-08
2.83475e-08
1.84986e-08
1.20188e-08
7.75441e-09
5.05491e-09
3.26989e-09
2.16342e-09
1.44156e-09
7.99379e-08
1.91961e-07
1.90757e-07
2.16614e-07
1.87069e-07
1.36991e-07
8.67584e-08
5.47857e-08
3.88117e-08
2.75911e-08
1.82823e-08
1.18691e-08
7.57746e-09
4.91225e-09
3.16047e-09
2.07627e-09
1.40147e-09
9.65055e-10
7.85387e-08
1.89219e-07
1.85785e-07
2.09598e-07
1.79015e-07
1.22737e-07
7.82441e-08
4.91303e-08
3.44571e-08
2.48311e-08
1.74876e-08
1.16844e-08
7.45436e-09
4.78845e-09
3.06556e-09
2.00676e-09
1.34919e-09
9.42647e-10
6.84114e-10
7.70043e-08
1.85835e-07
1.81058e-07
2.03533e-07
1.7366e-07
1.18704e-07
7.06831e-08
4.55035e-08
3.22972e-08
2.24356e-08
1.55435e-08
1.07739e-08
7.2209e-09
4.67409e-09
2.96332e-09
1.9445e-09
1.29562e-09
9.08193e-10
6.68929e-10
5.0644e-10
7.52777e-08
1.81867e-07
1.76032e-07
1.98432e-07
1.68921e-07
1.15978e-07
6.83634e-08
4.15844e-08
3.12565e-08
2.22444e-08
1.44961e-08
9.52036e-09
6.43395e-09
4.30215e-09
2.80271e-09
1.84773e-09
1.23466e-09
8.46238e-10
6.47677e-10
4.69195e-10
4.09832e-10
7.33647e-08
1.77235e-07
1.70959e-07
1.93522e-07
1.65067e-07
1.13473e-07
6.71244e-08
3.93485e-08
2.90072e-08
2.28233e-08
1.52317e-08
9.31504e-09
5.80008e-09
3.7358e-09
2.46266e-09
1.61885e-09
1.08852e-09
7.58174e-10
5.54769e-10
4.12717e-10
3.32449e-10
2.88004e-10
7.13581e-08
1.72063e-07
1.65951e-07
1.88974e-07
1.61504e-07
1.11194e-07
6.60295e-08
3.87135e-08
2.66759e-08
2.18419e-08
1.65158e-08
1.02721e-08
6.02647e-09
3.56838e-09
2.19758e-09
1.39803e-09
9.18145e-10
6.29458e-10
4.51623e-10
3.41246e-10
2.74645e-10
2.37965e-10
2.52218e-10
6.93429e-08
1.66686e-07
1.6115e-07
1.84764e-07
1.58204e-07
1.08838e-07
6.48245e-08
3.83055e-08
2.61567e-08
2.01269e-08
1.64372e-08
1.15831e-08
6.87217e-09
3.90953e-09
2.26964e-09
1.36156e-09
8.54893e-10
5.6912e-10
4.03004e-10
3.05347e-10
2.48938e-10
2.18584e-10
2.14793e-10
2.68902e-10
6.74048e-08
1.61418e-07
1.56728e-07
1.80818e-07
1.55029e-07
1.06487e-07
6.34303e-08
3.78222e-08
2.59856e-08
1.9453e-08
1.52911e-08
1.1902e-08
8.02621e-09
4.55189e-09
2.55565e-09
1.48149e-09
8.9577e-10
5.76623e-10
3.98648e-10
2.98385e-10
2.42633e-10
2.13997e-10
2.03511e-10
2.31765e-10
3.13925e-10
6.56084e-08
1.56566e-07
1.52766e-07
1.77175e-07
1.51853e-07
1.04113e-07
6.2003e-08
3.7237e-08
2.5828e-08
1.93089e-08
1.44564e-08
1.11945e-08
8.53076e-09
5.38243e-09
2.97461e-09
1.68587e-09
9.92116e-10
6.21811e-10
4.19154e-10
3.07876e-10
2.46929e-10
2.15248e-10
2.01729e-10
2.11287e-10
2.7603e-10
3.68725e-10
6.39887e-08
1.52363e-07
1.49266e-07
1.73738e-07
1.48618e-07
1.01738e-07
6.05797e-08
3.66447e-08
2.56214e-08
1.92202e-08
1.4315e-08
1.05211e-08
8.22132e-09
5.87176e-09
3.48811e-09
1.93673e-09
1.11216e-09
6.81181e-10
4.49242e-10
3.2347e-10
2.54938e-10
2.1904e-10
2.02123e-10
2.00234e-10
2.44886e-10
3.34287e-10
4.69821e-10
6.25359e-08
1.48857e-07
1.46129e-07
1.70348e-07
1.45233e-07
9.93471e-08
5.92735e-08
3.60752e-08
2.54068e-08
1.91087e-08
1.42542e-08
1.03057e-08
7.68443e-09
5.85549e-09
3.88682e-09
2.22705e-09
1.25031e-09
7.47822e-10
4.82719e-10
3.40762e-10
2.63898e-10
2.23113e-10
2.03511e-10
1.96639e-10
2.19654e-10
3.00225e-10
4.11962e-10
7.64477e-10
6.12e-08
1.45887e-07
1.43137e-07
1.66827e-07
1.41644e-07
9.69463e-08
5.80544e-08
3.55926e-08
2.51967e-08
1.89942e-08
1.41959e-08
1.02579e-08
7.37131e-09
5.50209e-09
4.0246e-09
2.49305e-09
1.40506e-09
8.22345e-10
5.19519e-10
3.59747e-10
2.73736e-10
2.28017e-10
2.05104e-10
1.95968e-10
2.02949e-10
2.65909e-10
3.6911e-10
6.0965e-10
1.73072e-09
5.99027e-08
1.43167e-07
1.40064e-07
1.62991e-07
1.37902e-07
9.45667e-08
5.68962e-08
3.51662e-08
2.5018e-08
1.88808e-08
1.41384e-08
1.02283e-08
7.30939e-09
5.21614e-09
3.85038e-09
2.67584e-09
1.5689e-09
9.06298e-10
5.60298e-10
3.80678e-10
2.84754e-10
2.33831e-10
2.07496e-10
1.9619e-10
1.95211e-10
2.35651e-10
3.31498e-10
5.05808e-10
1.25687e-09
4.99236e-09
5.84816e-08
1.40342e-07
1.36768e-07
1.58774e-07
1.34133e-07
9.22145e-08
5.57938e-08
3.47706e-08
2.48632e-08
1.87818e-08
1.40866e-08
1.02008e-08
7.28536e-09
5.10851e-09
3.60352e-09
2.64052e-09
1.73804e-09
1.00156e-09
6.05872e-10
4.03448e-10
2.96955e-10
2.40527e-10
2.10763e-10
1.96944e-10
1.92783e-10
2.12806e-10
2.94662e-10
4.32945e-10
9.3718e-10
3.47883e-09
1.61145e-08
5.6896e-08
1.37126e-07
1.33209e-07
1.54317e-07
1.30401e-07
8.99531e-08
5.4735e-08
3.43964e-08
2.47243e-08
1.86922e-08
1.40494e-08
1.01772e-08
7.26773e-09
5.08394e-09
3.46284e-09
2.4693e-09
1.77212e-09
1.10649e-09
6.56827e-10
4.27897e-10
3.10044e-10
2.48022e-10
2.14812e-10
1.98231e-10
1.92284e-10
1.9846e-10
2.5994e-10
3.79129e-10
7.20186e-10
2.43927e-09
1.1206e-08
5.38462e-08
5.5147e-08
1.3343e-07
1.2928e-07
1.49865e-07
1.26771e-07
8.77956e-08
5.37024e-08
3.40383e-08
2.45959e-08
1.86073e-08
1.40196e-08
1.01661e-08
7.25356e-09
5.07052e-09
3.42061e-09
2.32661e-09
1.69293e-09
1.15878e-09
7.11449e-10
4.53929e-10
3.2362e-10
2.56131e-10
2.19552e-10
2.00355e-10
1.9232e-10
1.92225e-10
2.30523e-10
3.35212e-10
5.73529e-10
1.72517e-09
7.76398e-09
3.80104e-08
1.78995e-07
5.32744e-08
1.29175e-07
1.25223e-07
1.45509e-07
1.23314e-07
8.57361e-08
5.27191e-08
3.36906e-08
2.44704e-08
1.8524e-08
1.39926e-08
1.01627e-08
7.24921e-09
5.06027e-09
3.40726e-09
2.25511e-09
1.57037e-09
1.1541e-09
7.59491e-10
4.8234e-10
3.37523e-10
2.6459e-10
2.24881e-10
2.03166e-10
1.92946e-10
1.90223e-10
2.08783e-10
2.95508e-10
4.73063e-10
1.23972e-09
5.35366e-09
2.66313e-08
1.29175e-07
5.82821e-07
5.138e-08
1.24594e-07
1.2132e-07
1.41646e-07
1.2006e-07
8.37516e-08
5.18079e-08
3.33678e-08
2.43406e-08
1.84389e-08
1.39666e-08
1.01631e-08
7.25143e-09
5.05656e-09
3.39968e-09
2.2381e-09
1.49044e-09
1.07908e-09
7.82677e-10
5.12449e-10
3.51907e-10
2.73031e-10
2.3063e-10
2.06675e-10
1.94078e-10
1.89722e-10
1.95691e-10
2.59645e-10
4.01965e-10
9.12138e-10
3.68508e-09
1.84752e-08
9.23863e-08
4.31168e-07
1.84838e-06
4.95823e-08
1.2002e-07
1.17758e-07
1.38359e-07
1.17015e-07
8.17523e-08
5.09827e-08
3.30791e-08
2.42087e-08
1.83505e-08
1.3941e-08
1.01644e-08
7.25639e-09
5.05777e-09
3.39537e-09
2.23158e-09
1.45178e-09
9.97617e-10
7.57786e-10
5.38054e-10
3.67391e-10
2.81152e-10
2.3651e-10
2.10714e-10
1.96021e-10
1.89726e-10
1.90036e-10
2.29908e-10
3.48075e-10
6.92608e-10
2.54166e-09
1.2708e-08
6.53127e-08
3.15925e-07
1.40293e-06
5.73323e-06
4.79889e-08
1.15799e-07
1.1466e-07
1.35535e-07
1.13994e-07
7.97417e-08
5.01828e-08
3.28322e-08
2.408e-08
1.82647e-08
1.39146e-08
1.01652e-08
7.26148e-09
5.06126e-09
3.39488e-09
2.22762e-09
1.44475e-09
9.51066e-10
6.9864e-10
5.40201e-10
3.82732e-10
2.88804e-10
2.42082e-10
2.15158e-10
1.98696e-10
1.90501e-10
1.88309e-10
2.07771e-10
3.03434e-10
5.4514e-10
1.76659e-09
8.67391e-09
4.56682e-08
2.28865e-07
1.05398e-06
4.46896e-06
1.74534e-05
4.66245e-08
1.12063e-07
1.12093e-07
1.32933e-07
1.10974e-07
7.76653e-08
4.94151e-08
3.25994e-08
2.39639e-08
1.81847e-08
1.38914e-08
1.0165e-08
7.26538e-09
5.06457e-09
3.39632e-09
2.22522e-09
1.44076e-09
9.29974e-10
6.4324e-10
5.15937e-10
3.94133e-10
2.96654e-10
2.46953e-10
2.19767e-10
2.01996e-10
1.91785e-10
1.87973e-10
1.94076e-10
2.64562e-10
4.44749e-10
1.24602e-09
5.88624e-09
3.15804e-08
1.63976e-07
7.83229e-07
3.4462e-06
1.39739e-05
5.21049e-05
4.54242e-08
1.09079e-07
1.09844e-07
1.30366e-07
1.079e-07
7.55699e-08
4.86948e-08
3.2382e-08
2.38418e-08
1.81142e-08
1.38726e-08
1.01667e-08
7.268e-09
5.06652e-09
3.39831e-09
2.22487e-09
1.43767e-09
9.26065e-10
6.12733e-10
4.70546e-10
3.91196e-10
3.03834e-10
2.50992e-10
2.24185e-10
2.05808e-10
1.93912e-10
1.88173e-10
1.87759e-10
2.32848e-10
3.73632e-10
9.00195e-10
3.97798e-09
2.16176e-08
1.16122e-07
5.7599e-07
2.63045e-06
1.10674e-05
4.28038e-05
0.000151884
4.43364e-08
1.06618e-07
1.07967e-07
1.27709e-07
1.04781e-07
7.35323e-08
4.80285e-08
3.21738e-08
2.37213e-08
1.80526e-08
1.38622e-08
1.01718e-08
7.27136e-09
5.06726e-09
3.39929e-09
2.22518e-09
1.43606e-09
9.2362e-10
5.98407e-10
4.29881e-10
3.69461e-10
3.08966e-10
2.54817e-10
2.27981e-10
2.09972e-10
1.96731e-10
1.88908e-10
1.85669e-10
2.08837e-10
3.19802e-10
6.71619e-10
2.68907e-09
1.46589e-08
8.12701e-08
4.19025e-07
1.98809e-06
8.68475e-06
3.47937e-05
0.000127795
0.000430237
4.32889e-08
1.04381e-07
1.06015e-07
1.24905e-07
1.01643e-07
7.16141e-08
4.74274e-08
3.19798e-08
2.36074e-08
1.79995e-08
1.3855e-08
1.01839e-08
7.2775e-09
5.06856e-09
3.39952e-09
2.22541e-09
1.43513e-09
9.21487e-10
5.95469e-10
4.07106e-10
3.33714e-10
3.04904e-10
2.5836e-10
2.30804e-10
2.1419e-10
2.00151e-10
1.90286e-10
1.85229e-10
1.92929e-10
2.76134e-10
5.20558e-10
1.82827e-09
9.84869e-09
5.6185e-08
3.01557e-07
1.48736e-06
6.75432e-06
2.80622e-05
0.000106445
0.000370069
0.0011775
4.22203e-08
1.02108e-07
1.03862e-07
1.21788e-07
9.85981e-08
6.98178e-08
4.68868e-08
3.18079e-08
2.35013e-08
1.79554e-08
1.38551e-08
1.01993e-08
7.28909e-09
5.07214e-09
3.40043e-09
2.22558e-09
1.43493e-09
9.2044e-10
5.93703e-10
3.95362e-10
3.00596e-10
2.87601e-10
2.60873e-10
2.32807e-10
2.17989e-10
2.04002e-10
1.92439e-10
1.85343e-10
1.84775e-10
2.40712e-10
4.19288e-10
1.26033e-09
6.56264e-09
3.84074e-08
2.14581e-07
1.1016e-06
5.20408e-06
2.2461e-05
8.81039e-05
0.000315198
0.00103451
0.00306756
4.10492e-08
9.96392e-08
1.01471e-07
1.18537e-07
9.5604e-08
6.81835e-08
4.63848e-08
3.16553e-08
2.34065e-08
1.79219e-08
1.38601e-08
1.02189e-08
7.30392e-09
5.0798e-09
3.40286e-09
2.22642e-09
1.43518e-09
9.20327e-10
5.92551e-10
3.93014e-10
2.80809e-10
2.59032e-10
2.57868e-10
2.34663e-10
2.20867e-10
2.08105e-10
1.95286e-10
1.86048e-10
1.81574e-10
2.13433e-10
3.48719e-10
8.89776e-10
4.34623e-09
2.59521e-08
1.50925e-07
8.0739e-07
3.97247e-06
1.78341e-05
7.24771e-05
0.000267111
0.000899864
0.00275694
0.00733337
3.97803e-08
9.69999e-08
9.89515e-08
1.15188e-07
9.27332e-08
6.66652e-08
4.59161e-08
3.15124e-08
2.33211e-08
1.79011e-08
1.3872e-08
1.02418e-08
7.32271e-09
5.09151e-09
3.40828e-09
2.22817e-09
1.43589e-09
9.21053e-10
5.91888e-10
3.92077e-10
2.71392e-10
2.29861e-10
2.44853e-10
2.35738e-10
2.226e-10
2.12125e-10
1.98731e-10
1.8737e-10
1.8074e-10
1.93937e-10
2.96493e-10
6.50032e-10
2.87239e-09
1.73398e-08
1.04862e-07
5.85592e-07
3.00332e-06
1.40466e-05
5.92384e-05
0.000225275
0.000779342
0.00245191
0.00676928
0.0152126
3.84416e-08
9.42224e-08
9.63738e-08
1.11781e-07
8.99321e-08
6.52229e-08
4.54268e-08
3.1365e-08
2.32415e-08
1.78903e-08
1.38923e-08
1.02686e-08
7.34524e-09
5.10675e-09
3.41682e-09
2.23194e-09
1.43741e-09
9.22263e-10
5.9231e-10
3.91638e-10
2.6907e-10
2.10068e-10
2.22348e-10
2.34502e-10
2.23579e-10
2.15583e-10
2.02614e-10
1.89471e-10
1.80727e-10
1.8248e-10
2.55541e-10
4.95518e-10
1.90433e-09
1.1463e-08
7.1941e-08
4.20071e-07
2.24913e-06
1.09711e-05
4.81036e-05
0.000189055
0.000672252
0.00217122
0.00618135
0.0144659
0.0265279
3.71283e-08
9.15451e-08
9.38919e-08
1.08289e-07
8.71743e-08
6.3861e-08
4.49358e-08
3.11748e-08
2.31635e-08
1.78854e-08
1.39165e-08
1.02987e-08
7.37057e-09
5.12447e-09
3.4279e-09
2.23822e-09
1.44005e-09
9.23888e-10
5.93388e-10
3.9206e-10
2.68665e-10
2.00533e-10
1.95605e-10
2.26619e-10
2.2435e-10
2.18005e-10
2.06787e-10
1.92371e-10
1.81185e-10
1.77031e-10
2.23832e-10
3.94807e-10
1.27794e-09
7.50528e-09
4.87118e-08
2.97937e-07
1.66787e-06
8.4982e-06
3.87965e-05
0.00015788
0.000577614
0.00191505
0.00561842
0.0136103
0.0258544
0.0405489
3.60025e-08
8.91263e-08
9.1573e-08
1.04874e-07
8.4407e-08
6.25971e-08
4.44772e-08
3.09576e-08
2.30667e-08
1.78859e-08
1.39412e-08
1.03264e-08
7.39701e-09
5.14397e-09
3.44089e-09
2.246e-09
1.44414e-09
9.2617e-10
5.94906e-10
3.92952e-10
2.68649e-10
1.97179e-10
1.7374e-10
2.10108e-10
2.23646e-10
2.19221e-10
2.10963e-10
1.95814e-10
1.82327e-10
1.75094e-10
2.00216e-10
3.26805e-10
8.78856e-10
4.87546e-09
3.2537e-08
2.0884e-07
1.22464e-06
6.52663e-06
3.10797e-05
0.000131172
0.000494458
0.00168289
0.00508461
0.0127522
0.0249492
0.0402019
0.056837
3.50347e-08
8.70107e-08
8.92816e-08
1.01393e-07
8.16624e-08
6.13925e-08
4.4076e-08
3.07359e-08
2.29648e-08
1.78778e-08
1.39647e-08
1.03496e-08
7.41969e-09
5.16389e-09
3.45472e-09
2.25483e-09
1.44913e-09
9.2904e-10
5.96642e-10
3.94184e-10
2.69045e-10
1.96816e-10
1.61136e-10
1.86792e-10
2.20132e-10
2.19768e-10
2.14657e-10
1.99795e-10
1.84209e-10
1.7458e-10
1.8415e-10
2.78217e-10
6.29203e-10
3.14777e-09
2.14343e-08
1.44535e-07
8.90169e-07
4.96978e-06
2.47259e-05
0.000108433
0.000421699
0.00147393
0.00458279
0.0118982
0.0240174
0.0394599
0.0570682
0.0733173
3.41799e-08
8.5184e-08
8.69376e-08
9.78453e-08
7.89708e-08
6.02682e-08
4.36908e-08
3.05349e-08
2.28711e-08
1.78694e-08
1.39814e-08
1.03665e-08
7.43691e-09
5.18035e-09
3.46776e-09
2.26385e-09
1.45463e-09
9.32209e-10
5.984e-10
3.95464e-10
2.69677e-10
1.96845e-10
1.55319e-10
1.62892e-10
2.09557e-10
2.19986e-10
2.17342e-10
2.04119e-10
1.86888e-10
1.74625e-10
1.74938e-10
2.41685e-10
4.72789e-10
2.03134e-09
1.39261e-08
9.87095e-08
6.40116e-07
3.75198e-06
1.95373e-05
8.91763e-05
0.000358385
0.00128689
0.00411497
0.0110568
0.0230595
0.0386718
0.0567252
0.0744546
0.0855298
3.33083e-08
8.33469e-08
8.44905e-08
9.42841e-08
7.64661e-08
5.9263e-08
4.33287e-08
3.03427e-08
2.28e-08
1.78657e-08
1.39942e-08
1.0373e-08
7.44628e-09
5.19156e-09
3.47828e-09
2.27193e-09
1.45996e-09
9.35485e-10
6.0006e-10
3.96534e-10
2.7038e-10
1.96885e-10
1.53848e-10
1.45172e-10
1.91764e-10
2.18823e-10
2.18816e-10
2.08593e-10
1.90158e-10
1.75349e-10
1.70553e-10
2.13981e-10
3.74446e-10
1.32571e-09
8.93669e-09
6.64383e-08
4.5518e-07
2.80725e-06
1.53345e-05
7.29751e-05
0.000303509
0.00112052
0.00368197
0.0102342
0.0220784
0.0378239
0.056334
0.074876
0.0875646
0.0921055
3.23655e-08
8.12365e-08
8.17055e-08
9.07653e-08
7.41945e-08
5.83782e-08
4.29658e-08
3.01411e-08
2.27437e-08
1.78743e-08
1.40067e-08
1.03738e-08
7.44885e-09
5.19611e-09
3.48495e-09
2.27838e-09
1.46446e-09
9.38507e-10
6.01558e-10
3.9735e-10
2.70959e-10
1.97044e-10
1.53605e-10
1.35482e-10
1.68881e-10
2.1467e-10
2.195e-10
2.12803e-10
1.93957e-10
1.76781e-10
1.68934e-10
1.93559e-10
3.10975e-10
8.87767e-10
5.67165e-09
4.40327e-08
3.19704e-07
2.08141e-06
1.19535e-05
5.94368e-05
0.000256193
0.000973227
0.00328461
0.00943574
0.0210766
0.0369298
0.0558619
0.0752722
0.0888574
0.0947
0.0943138
3.13415e-08
7.88065e-08
7.87287e-08
8.74067e-08
7.2245e-08
5.75669e-08
4.26025e-08
2.99404e-08
2.26994e-08
1.78879e-08
1.4025e-08
1.0375e-08
7.44869e-09
5.19551e-09
3.48674e-09
2.28229e-09
1.46804e-09
9.409e-10
6.02867e-10
3.97923e-10
2.71352e-10
1.97346e-10
1.53528e-10
1.31003e-10
1.46799e-10
2.0405e-10
2.19914e-10
2.1622e-10
1.9814e-10
1.79007e-10
1.68436e-10
1.79958e-10
2.67924e-10
6.20624e-10
3.57249e-09
2.86905e-08
2.21598e-07
1.52831e-06
9.25535e-06
4.81875e-05
0.000215618
0.000843501
0.00292246
0.00866794
0.0200589
0.0359914
0.0553256
0.0755755
0.0901906
0.096581
0.0971932
0.0934379
3.02235e-08
7.61885e-08
7.57144e-08
8.43143e-08
7.05368e-08
5.68636e-08
4.22247e-08
2.97453e-08
2.26681e-08
1.79107e-08
1.40481e-08
1.0384e-08
7.45018e-09
5.19282e-09
3.48499e-09
2.28368e-09
1.47012e-09
9.42817e-10
6.04013e-10
3.98383e-10
2.71608e-10
1.9771e-10
1.53601e-10
1.30046e-10
1.30819e-10
1.86542e-10
2.19e-10
2.18488e-10
2.02633e-10
1.81924e-10
1.68464e-10
1.72156e-10
2.36849e-10
4.60278e-10
2.24855e-09
1.83666e-08
1.5133e-07
1.11092e-06
7.11562e-06
3.89027e-05
0.000180983
0.000729822
0.00259487
0.0079357
0.0190326
0.0350111
0.0547243
0.0758061
0.0914733
0.0985467
0.0994083
0.096435
0.0903301
2.90918e-08
7.33937e-08
7.27588e-08
8.14767e-08
6.89974e-08
5.61514e-08
4.18119e-08
2.95512e-08
2.26545e-08
1.79418e-08
1.40763e-08
1.04012e-08
7.4577e-09
5.19176e-09
3.48243e-09
2.28267e-09
1.47127e-09
9.4399e-10
6.04994e-10
3.9893e-10
2.71833e-10
1.98056e-10
1.53856e-10
1.29932e-10
1.22055e-10
1.64428e-10
2.15535e-10
2.19718e-10
2.07193e-10
1.85233e-10
1.69837e-10
1.68486e-10
2.13689e-10
3.65212e-10
1.43234e-09
1.15456e-08
1.01684e-07
7.98563e-07
5.43152e-06
3.12755e-05
0.000151602
0.000630603
0.00230061
0.0072441
0.0180039
0.0339933
0.0540558
0.0759556
0.0927319
0.1005
0.101728
0.0988232
0.0933394
0.0855883
2.79575e-08
7.06867e-08
7.00238e-08
7.88766e-08
6.75948e-08
5.54125e-08
4.13124e-08
2.93608e-08
2.26478e-08
1.79816e-08
1.41082e-08
1.04225e-08
7.47362e-09
5.19586e-09
3.48112e-09
2.2811e-09
1.47178e-09
9.45006e-10
6.05852e-10
3.99628e-10
2.72138e-10
1.98369e-10
1.54251e-10
1.29975e-10
1.17951e-10
1.42795e-10
2.06487e-10
2.20553e-10
2.11395e-10
1.88949e-10
1.71774e-10
1.66914e-10
1.96807e-10
3.07097e-10
9.29206e-10
7.13721e-09
6.70869e-08
5.67142e-07
4.11406e-06
2.50448e-05
0.000126786
0.0005445
0.00203769
0.00659725
0.0169811
0.0329414
0.0533219
0.0760383
0.0939543
0.102472
0.104057
0.101324
0.0957956
0.0885373
0.0796788
2.68238e-08
6.8044e-08
6.75244e-08
7.6556e-08
6.62888e-08
5.4655e-08
4.07429e-08
2.91314e-08
2.265e-08
1.80191e-08
1.41417e-08
1.04469e-08
7.4933e-09
5.20753e-09
3.48333e-09
2.28068e-09
1.47206e-09
9.45899e-10
6.06816e-10
4.00407e-10
2.72636e-10
1.98676e-10
1.54688e-10
1.30175e-10
1.17064e-10
1.26521e-10
1.90045e-10
2.20787e-10
2.14694e-10
1.93012e-10
1.7447e-10
1.66353e-10
1.85577e-10
2.69594e-10
6.35264e-10
4.356e-09
4.33801e-08
3.97216e-07
3.09114e-06
1.99736e-05
0.000105935
0.000470127
0.00180431
0.00599731
0.0159736
0.0318611
0.0525242
0.0760536
0.095139
0.104453
0.106427
0.103846
0.0983653
0.0909865
0.0825138
0.0729964
2.56839e-08
6.539e-08
6.52147e-08
7.44729e-08
6.50916e-08
5.38726e-08
4.01423e-08
2.88895e-08
2.26396e-08
1.80568e-08
1.4168e-08
1.04718e-08
7.51511e-09
5.22148e-09
3.49097e-09
2.28225e-09
1.47273e-09
9.46704e-10
6.07812e-10
4.01238e-10
2.73258e-10
1.98993e-10
1.55073e-10
1.30486e-10
1.1695e-10
1.16931e-10
1.69036e-10
2.18845e-10
2.16876e-10
1.97449e-10
1.77558e-10
1.67394e-10
1.79105e-10
2.43623e-10
4.66421e-10
2.64259e-09
2.74408e-08
2.73814e-07
2.30176e-06
1.58663e-05
8.84644e-05
0.000406273
0.00159822
0.00544604
0.0149895
0.0307592
0.0516676
0.0759983
0.0962805
0.10644
0.108829
0.106423
0.100966
0.093547
0.084899
0.0756764
0.0658866
2.45497e-08
6.26547e-08
6.30864e-08
7.26337e-08
6.39743e-08
5.30696e-08
3.95219e-08
2.86672e-08
2.26275e-08
1.80765e-08
1.41821e-08
1.04886e-08
7.53652e-09
5.23621e-09
3.49995e-09
2.28681e-09
1.47389e-09
9.47458e-10
6.08819e-10
4.02077e-10
2.73932e-10
1.99319e-10
1.55375e-10
1.30866e-10
1.16976e-10
1.12183e-10
1.47113e-10
2.12478e-10
2.1836e-10
2.02092e-10
1.80997e-10
1.69533e-10
1.7591e-10
2.24564e-10
3.70837e-10
1.61629e-09
1.69402e-08
1.8532e-07
1.697e-06
1.25511e-05
7.38761e-05
0.000351677
0.00141756
0.00494323
0.0140385
0.0296428
0.0507577
0.0758707
0.0973724
0.108429
0.111262
0.109044
0.103627
0.0961443
0.0873914
0.0779538
0.0683812
0.0586478
2.33969e-08
5.98021e-08
6.11165e-08
7.10295e-08
6.28978e-08
5.2232e-08
3.89024e-08
2.84583e-08
2.26203e-08
1.80843e-08
1.41801e-08
1.04966e-08
7.55083e-09
5.24968e-09
3.50897e-09
2.29226e-09
1.47639e-09
9.48122e-10
6.09614e-10
4.02868e-10
2.74535e-10
1.99661e-10
1.55604e-10
1.3119e-10
1.17071e-10
1.10708e-10
1.29276e-10
1.98846e-10
2.19522e-10
2.06474e-10
1.84775e-10
1.72623e-10
1.74396e-10
2.10721e-10
3.16867e-10
1.01897e-09
1.02009e-08
1.22746e-07
1.23703e-06
9.88679e-06
6.17139e-05
0.000305203
0.0012602
0.00448872
0.0131274
0.0285232
0.0497993
0.0756712
0.0984076
0.110417
0.113722
0.111708
0.106339
0.0988053
0.0899244
0.0803328
0.0705181
0.0609365
0.0515277
2.22466e-08
5.69458e-08
5.93491e-08
6.96169e-08
6.18364e-08
5.13334e-08
3.82905e-08
2.82819e-08
2.2621e-08
1.80855e-08
1.41708e-08
1.04926e-08
7.55697e-09
5.25793e-09
3.51623e-09
2.29763e-09
1.47877e-09
9.48763e-10
6.1003e-10
4.03418e-10
2.74977e-10
2.00026e-10
1.55777e-10
1.3142e-10
1.17317e-10
1.10451e-10
1.17594e-10
1.80047e-10
2.19339e-10
2.10125e-10
1.88917e-10
1.76158e-10
1.73778e-10
2.01607e-10
2.83918e-10
6.76061e-10
5.99997e-09
7.93276e-08
8.89504e-07
7.75376e-06
5.1602e-05
0.000265715
0.00112421
0.00408142
0.0122632
0.0274113
0.0488011
0.0754002
0.0993791
0.112397
0.116205
0.114412
0.109102
0.101522
0.0925225
0.0827546
0.0727496
0.0629101
0.0535994
0.0447205
2.11459e-08
5.41608e-08
5.77889e-08
6.83597e-08
6.07325e-08
5.03442e-08
3.76754e-08
2.81281e-08
2.26354e-08
1.80851e-08
1.41575e-08
1.04822e-08
7.55612e-09
5.26059e-09
3.52046e-09
2.30153e-09
1.48073e-09
9.48962e-10
6.09984e-10
4.03497e-10
2.75291e-10
2.00363e-10
1.55914e-10
1.31556e-10
1.17641e-10
1.10429e-10
1.11274e-10
1.58766e-10
2.16273e-10
2.12789e-10
1.93433e-10
1.79985e-10
1.75893e-10
1.9631e-10
2.61558e-10
4.90676e-10
3.47109e-09
4.98267e-08
6.29319e-07
6.04946e-06
4.32205e-05
0.000232235
0.00100736
0.00372067
0.0114513
0.0263207
0.0477711
0.0750614
0.100278
0.114364
0.118706
0.117153
0.111912
0.104293
0.0951779
0.0852413
0.0750251
0.0649708
0.0553964
0.0465724
0.0383671
2.00721e-08
5.15509e-08
5.64506e-08
6.72064e-08
5.96064e-08
4.9257e-08
3.70546e-08
2.79834e-08
2.26523e-08
1.80869e-08
1.41464e-08
1.04719e-08
7.55244e-09
5.25909e-09
3.52085e-09
2.3037e-09
1.48195e-09
9.48889e-10
6.09771e-10
4.03311e-10
2.75381e-10
2.00637e-10
1.5606e-10
1.31639e-10
1.17946e-10
1.10519e-10
1.08536e-10
1.39335e-10
2.07382e-10
2.14593e-10
1.9833e-10
1.84179e-10
1.78847e-10
1.93533e-10
2.45061e-10
3.93434e-10
2.00525e-09
3.03083e-08
4.364e-07
4.69119e-06
3.62889e-05
0.000203916
0.000907476
0.00340488
0.010698
0.0252594
0.0467211
0.074658
0.101097
0.116309
0.121219
0.119924
0.114765
0.107114
0.0978899
0.0877856
0.0773637
0.0670753
0.0572723
0.0481874
0.0400035
0.0325594
1.90419e-08
4.91538e-08
5.52571e-08
6.61028e-08
5.84536e-08
4.81023e-08
3.64417e-08
2.78365e-08
2.2663e-08
1.8085e-08
1.41411e-08
1.04666e-08
7.55003e-09
5.25643e-09
3.52009e-09
2.30399e-09
1.48274e-09
9.49116e-10
6.09542e-10
4.02893e-10
2.75422e-10
2.00835e-10
1.56248e-10
1.31707e-10
1.18187e-10
1.10831e-10
1.07889e-10
1.24606e-10
1.92116e-10
2.16023e-10
2.03502e-10
1.88705e-10
1.82865e-10
1.92119e-10
2.33041e-10
3.42449e-10
1.19133e-09
1.77715e-08
2.95386e-07
3.60937e-06
3.05758e-05
0.000180032
0.000822393
0.00313209
0.0100085
0.0242341
0.0456635
0.0741983
0.101826
0.118224
0.123735
0.122719
0.117655
0.109983
0.100654
0.090387
0.0797592
0.0692402
0.059191
0.0498733
0.0414379
0.0339902
0.0273475
1.81079e-08
4.69818e-08
5.41668e-08
6.49619e-08
5.72564e-08
4.69095e-08
3.58349e-08
2.76893e-08
2.26614e-08
1.80774e-08
1.41361e-08
1.04664e-08
7.55082e-09
5.25629e-09
3.51989e-09
2.30433e-09
1.48307e-09
9.49441e-10
6.09508e-10
4.02517e-10
2.75388e-10
2.01e-10
1.56431e-10
1.31809e-10
1.18363e-10
1.11232e-10
1.07792e-10
1.15195e-10
1.73722e-10
2.14624e-10
2.08514e-10
1.93543e-10
1.87458e-10
1.93161e-10
2.25182e-10
3.13582e-10
7.58481e-10
1.00213e-08
1.94076e-07
2.74962e-06
2.58725e-05
0.000160012
0.000750099
0.00289935
0.0093891
0.0232522
0.0446143
0.0736928
0.102459
0.120099
0.126246
0.12553
0.120576
0.112892
0.103467
0.0930409
0.0822108
0.07146
0.0611665
0.0516
0.0429354
0.0352505
0.0285862
0.0227467
1.72597e-08
4.50663e-08
5.3179e-08
6.37394e-08
5.59938e-08
4.57165e-08
3.52433e-08
2.75391e-08
2.26401e-08
1.80584e-08
1.41328e-08
1.04671e-08
7.5536e-09
5.25764e-09
3.52106e-09
2.30501e-09
1.48384e-09
9.49754e-10
6.09783e-10
4.02259e-10
2.75367e-10
2.01089e-10
1.56591e-10
1.31984e-10
1.185e-10
1.11638e-10
1.07871e-10
1.09858e-10
1.54647e-10
2.10475e-10
2.1291e-10
1.98638e-10
1.92547e-10
1.95677e-10
2.20536e-10
2.93645e-10
5.37118e-10
5.44518e-09
1.23027e-07
2.06739e-06
2.20084e-05
0.000143342
0.000689073
0.00270251
0.00884554
0.0223248
0.0435835
0.0731511
0.102993
0.121926
0.128742
0.128349
0.12352
0.115835
0.106322
0.0957441
0.0847144
0.0737342
0.0631942
0.0533794
0.0444711
0.0365666
0.0296825
0.0238091
0.0187462
1.64935e-08
4.34513e-08
5.23401e-08
6.23878e-08
5.46412e-08
4.45262e-08
3.46834e-08
2.73899e-08
2.25929e-08
1.80288e-08
1.41255e-08
1.04708e-08
7.5558e-09
5.25871e-09
3.52252e-09
2.3058e-09
1.48466e-09
9.50131e-10
6.10299e-10
4.02234e-10
2.75369e-10
2.01087e-10
1.567e-10
1.32191e-10
1.18609e-10
1.11904e-10
1.0805e-10
1.07621e-10
1.38123e-10
2.01294e-10
2.15797e-10
2.04165e-10
1.98048e-10
1.99728e-10
2.1791e-10
2.78112e-10
4.34325e-10
2.89286e-09
7.46161e-08
1.52827e-06
1.88374e-05
0.000129583
0.000638093
0.00253749
0.00837993
0.0214682
0.0425797
0.0725841
0.10345
0.123693
0.131212
0.131165
0.126478
0.118805
0.109214
0.0984908
0.0872669
0.0760587
0.0652735
0.0552075
0.0460551
0.037918
0.0308281
0.0247539
0.0196491
0.0153162
1.57768e-08
4.20963e-08
5.16638e-08
6.09458e-08
5.31773e-08
4.33436e-08
3.41555e-08
2.72381e-08
2.25291e-08
1.7985e-08
1.41127e-08
1.04736e-08
7.55897e-09
5.25867e-09
3.52275e-09
2.30649e-09
1.4855e-09
9.50436e-10
6.10711e-10
4.02462e-10
2.7542e-10
2.01001e-10
1.56736e-10
1.32415e-10
1.18695e-10
1.12054e-10
1.0852e-10
1.06993e-10
1.25817e-10
1.87099e-10
2.17294e-10
2.10526e-10
2.03962e-10
2.04841e-10
2.17152e-10
2.66097e-10
3.87013e-10
1.56448e-09
4.2848e-08
1.10415e-06
1.62475e-05
0.000118325
0.000596286
0.00240061
0.00799058
0.0207023
0.0416123
0.0720035
0.10385
0.125395
0.133644
0.133966
0.12944
0.121794
0.112135
0.101275
0.0898629
0.0784309
0.0674009
0.0570839
0.047684
0.0393131
0.0320058
0.0257419
0.0204561
0.0160768
0.0124145
1.50795e-08
4.08762e-08
5.10589e-08
5.94349e-08
5.16266e-08
4.21858e-08
3.36335e-08
2.70892e-08
2.24545e-08
1.79365e-08
1.40902e-08
1.04731e-08
7.56275e-09
5.25729e-09
3.52154e-09
2.30646e-09
1.4861e-09
9.50604e-10
6.11018e-10
4.02611e-10
2.75541e-10
2.00872e-10
1.56747e-10
1.32591e-10
1.18797e-10
1.1213e-10
1.09038e-10
1.06869e-10
1.17713e-10
1.71306e-10
2.15414e-10
2.17467e-10
2.10239e-10
2.10657e-10
2.18185e-10
2.58004e-10
3.62945e-10
9.2539e-10
2.29875e-08
7.73312e-07
1.41481e-05
0.000109236
0.000562815
0.00228967
0.00767136
0.0200478
0.0406989
0.0714124
0.104202
0.127022
0.136024
0.136738
0.132392
0.12479
0.115077
0.10409
0.0924967
0.0808458
0.0695739
0.0590056
0.0493575
0.0407491
0.0332227
0.026759
0.0213007
0.0167596
0.0130491
0.00999109
1.43882e-08
3.96792e-08
5.04193e-08
5.7876e-08
5.00196e-08
4.10829e-08
3.31142e-08
2.69257e-08
2.2377e-08
1.78901e-08
1.40598e-08
1.04647e-08
7.56455e-09
5.25691e-09
3.51969e-09
2.30513e-09
1.4863e-09
9.50761e-10
6.11227e-10
4.02653e-10
2.75636e-10
2.00767e-10
1.56721e-10
1.32693e-10
1.18922e-10
1.12184e-10
1.09465e-10
1.07012e-10
1.12911e-10
1.5565e-10
2.10491e-10
2.24166e-10
2.16808e-10
2.17082e-10
2.21162e-10
2.53302e-10
3.44597e-10
6.43399e-10
1.13829e-08
5.18638e-07
1.24718e-05
0.000102045
0.000536927
0.00220327
0.00741597
0.0195145
0.0398744
0.0708027
0.104513
0.128566
0.138337
0.139463
0.135319
0.12778
0.11803
0.106928
0.0951629
0.0832981
0.071788
0.0609703
0.051073
0.0422259
0.0344765
0.0278111
0.0221717
0.0174755
0.0136215
0.0105153
0.00799233
1.36918e-08
3.8384e-08
4.96639e-08
5.62651e-08
4.83848e-08
4.00434e-08
3.26069e-08
2.67379e-08
2.22893e-08
1.78435e-08
1.40291e-08
1.04494e-08
7.56385e-09
5.25753e-09
3.51775e-09
2.30306e-09
1.48577e-09
9.5087e-10
6.11534e-10
4.0258e-10
2.75722e-10
2.00713e-10
1.56674e-10
1.32748e-10
1.1908e-10
1.12249e-10
1.09738e-10
1.07745e-10
1.11115e-10
1.42285e-10
2.02009e-10
2.29549e-10
2.23765e-10
2.24059e-10
2.2556e-10
2.50528e-10
3.28357e-10
5.3779e-10
5.26577e-09
3.26466e-07
1.1167e-05
9.656e-05
0.000517884
0.00214044
0.00722022
0.0190993
0.0391817
0.0701734
0.104765
0.130016
0.140561
0.142118
0.1382
0.130747
0.120979
0.109779
0.0978531
0.0857831
0.0740386
0.0629741
0.0528285
0.0437411
0.0357671
0.0288962
0.0230735
0.018215
0.0142228
0.0109902
0.00842068
0.00636389
1.29298e-08
3.69451e-08
4.87427e-08
5.45931e-08
4.67482e-08
3.90486e-08
3.21178e-08
2.65284e-08
2.21894e-08
1.7799e-08
1.39962e-08
1.04295e-08
7.5568e-09
5.25691e-09
3.51807e-09
2.30102e-09
1.48435e-09
9.50871e-10
6.12032e-10
4.0253e-10
2.75733e-10
2.00737e-10
1.56678e-10
1.32748e-10
1.19186e-10
1.12321e-10
1.09894e-10
1.08793e-10
1.10629e-10
1.32459e-10
1.91086e-10
2.32371e-10
2.31337e-10
2.31562e-10
2.31333e-10
2.50506e-10
3.14759e-10