/*--------------------------------*- C++ -*----------------------------------*\
| =========                 |                                                 |
| \\      /  F ield         | OpenFOAM: The Open Source CFD Toolbox           |
|  \\    /   O peration     | Version:  v2012                                 |
|   \\  /    A nd           | Website:  www.openfoam.com                      |
|    \\/     M anipulation  |                                                 |
\*---------------------------------------------------------------------------*/
FoamFile
{
    version     2.0;
    format      ascii;
    class       volScalarField;
    location    "12000";
    object      betann;
}
// * * * * * * * * * * * * * * * * * * * * * * * * * * * * * * * * * * * * * //

dimensions      [0 0 0 0 0 0 0];


internalField   nonuniform List<scalar> 
27324
(
0.896794
0.892531
0.884953
0.890021
0.881503
0.882473
0.887284
0.879303
0.879512
0.880039
0.884499
0.876572
0.877203
0.877193
0.878001
0.882355
0.873568
0.874316
0.874595
0.875614
0.879643
0.880648
0.870504
0.87109
0.871576
0.873131
0.878327
0.885759
0.878876
0.867165
0.867861
0.868381
0.870499
0.875996
0.885222
0.894964
0.87705
0.863247
0.864505
0.865543
0.867567
0.873426
0.882114
0.889128
0.856132
0.878503
0.85873
0.860767
0.862863
0.865173
0.869972
0.878858
0.89275
0.854826
0.854146
0.859254
0.855604
0.856418
0.859871
0.863097
0.867574
0.874686
0.89744
0.854578
0.843766
0.843661
2.18061
0.873182
0.85401
0.856203
0.860707
0.866217
0.87296
0.913525
0.850033
0.85322
0.827663
0.840939
1.1585
2.02389
0.874839
0.853789
0.857628
0.864922
0.872952
0.897845
0.839805
0.85742
0.843178
0.820409
0.840343
0.883607
1.3244
2.00251
0.914821
0.8575
0.862596
0.872347
0.883606
0.852622
0.852764
0.855559
0.837607
0.821104
0.845438
0.908099
0.894736
1.46294
2.02468
1.14951
0.895562
0.974514
0.923111
0.926901
0.858381
0.854589
0.851586
0.833035
0.826059
0.852615
0.910776
0.8908
0.892158
1.66257
2.1683
1.68248
0.805396
0.803746
0.895937
0.855329
0.864795
0.85119
0.84877
0.830782
0.838241
0.926682
0.905166
0.890374
0.887487
0.891382
1.92462
2.29513
2.00561
0.804471
0.797957
0.816868
0.882076
0.85728
0.852495
0.843029
0.833611
0.86397
1.09048
0.903178
0.888528
0.886865
0.88728
0.893506
2.15224
2.27491
2.12318
0.800239
0.802147
0.825101
0.885724
0.854903
0.859893
0.835044
0.890629
1.05569
1.1963
0.901374
0.888084
0.886133
0.887269
0.888626
0.899103
2.17406
2.25116
2.16634
1.59411
0.795176
0.815109
0.824252
0.851779
0.87791
0.941193
1.12386
0.959952
0.96968
0.899885
0.88727
0.886552
0.887826
0.888706
0.890354
0.898646
2.17675
2.12776
2.12456
2.17922
1.41462
0.791555
0.795348
0.773325
0.82752
0.887244
1.21782
1.00929
1.25323
0.898991
0.886734
0.886697
0.887947
0.889862
0.889414
0.892076
0.821555
2.1356
1.37272
1.69232
2.26623
2.26334
1.78112
0.770731
0.779846
0.8357
1.02871
1.1122
1.57086
2.30242
0.898635
0.886465
0.887045
0.888278
0.889474
0.889022
0.888648
0.903561
0.804381
1.89527
0.772876
0.894797
2.09807
2.2946
2.50194
2.65629
2.73836
2.68725
2.92276
2.89885
2.86287
2.8993
0.898719
0.886455
0.88739
0.888524
0.889255
0.888159
0.886882
0.894779
0.905825
1.38109
1.21087
0.789502
0.801741
0.881097
2.22399
2.7516
2.90393
2.93867
2.92314
2.87059
2.82206
2.61356
2.80083
0.899243
0.886759
0.887719
0.888688
0.888658
0.887485
0.886602
0.894641
0.908776
0.8298
1.96471
0.785609
0.828133
0.820917
0.853195
0.913462
1.04343
1.19787
1.33642
1.38555
1.39882
1.29399
0.861835
1.78189
0.900072
0.887435
0.888104
0.888663
0.887931
0.886834
0.886472
0.895962
0.906901
0.916636
0.810147
2.10149
0.796205
0.888694
0.969355
0.980808
0.924476
0.871713
0.881451
0.938969
0.927816
0.991382
0.877069
1.37031
1.41714
0.901138
0.888346
0.888396
0.888371
0.887229
0.886478
0.886735
0.896502
0.90648
0.910249
0.916795
0.87028
1.93162
0.807958
0.945716
1.09764
1.02128
1.20391
1.19497
1.08006
0.865135
0.992123
0.989449
1.28449
1.499
1.20469
0.90189
0.889234
0.888387
0.887823
0.886596
0.886512
0.887378
0.896702
0.910676
0.908151
0.922473
0.837248
1.81353
1.15379
0.819364
1.1653
0.949294
1.07546
1.19185
1.13652
0.973811
0.930422
0.988992
1.01018
1.53991
1.42082
0.932829
0.901834
0.889707
0.888028
0.887059
0.886194
0.886869
0.888129
0.896405
0.922471
0.913243
0.919843
0.947438
0.807948
2.17572
0.873086
1.05376
0.989962
0.912008
1.13408
1.17035
1.06532
0.868161
0.990153
0.991959
1.40035
1.49509
1.188
0.970528
0.900916
0.889517
0.887542
0.886292
0.886287
0.887354
0.888743
0.895802
0.924575
0.932196
0.941375
0.935522
0.89281
0.917872
2.20116
0.966419
0.953535
0.991633
0.969921
1.15908
1.12316
0.957002
0.989857
0.980745
1.19567
1.58256
1.30836
0.909205
0.996142
0.899952
0.888912
0.887017
0.885893
0.886677
0.887842
0.889005
0.894987
0.916702
0.938224
0.928699
0.926219
0.963636
0.817134
2.19657
1.35644
1.07783
0.989038
0.959075
1.07473
1.14628
1.03588
0.89849
0.984946
0.897898
1.51429
1.4169
1.0236
0.963972
1.01225
0.898372
0.887912
0.886604
0.885955
0.887188
0.888145
0.88863
0.894134
0.908309
0.928708
0.919292
0.895934
0.949639
0.987698
0.856556
2.61693
1.08594
0.972779
0.992647
0.905145
1.12935
1.09325
0.908669
0.990899
0.990733
1.33588
1.52411
1.18238
0.944239
0.993519
0.971574
0.896122
0.886667
0.885971
0.886409
0.88768
0.888073
0.887914
0.893513
0.903917
0.917946
0.929534
0.885991
0.927787
0.996582
1.02284
1.73299
2.37462
1.22819
0.991508
0.994617
1.04644
1.12071
0.991188
0.949257
0.979264
1.13106
1.5748
1.30446
0.898263
0.975082
0.965357
0.970718
0.894896
0.885412
0.886105
0.88735
0.888032
0.887604
0.887098
0.893294
0.903675
0.910071
0.944646
0.888044
0.920946
0.98651
0.996805
1.05046
2.76054
1.30476
1.10279
0.984451
0.867758
1.10868
1.06064
0.875049
0.984928
0.868809
1.49578
1.39863
1.02309
0.968126
0.970012
0.963493
0.980905
0.894211
0.884947
0.886798
0.888529
0.888523
0.886853
0.886492
0.893441
0.90335
0.907344
0.950266
0.89832
0.919817
0.965398
0.9962
1.17841
1.49323
2.70485
1.29683
0.990197
0.991514
1.03416
1.0966
0.93975
0.99046
0.98934
1.30489
1.50873
1.16446
0.941087
1.02136
0.968051
0.971882
0.98611
0.894369
0.885099
0.88749
0.889683
0.888188
0.885664
0.886365
0.893862
0.902978
0.910331
0.941908
0.911636
0.923593
0.957699
0.980894
0.991371
1.191
2.85007
1.52559
1.00406
0.985948
0.862103
1.09699
1.00863
0.935216
0.979256
1.1025
1.5633
1.27954
0.899578
0.983344
0.969211
0.97386
0.975993
0.956461
0.894756
0.885781
0.888369
0.890132
0.88756
0.88488
0.886459
0.89426
0.904432
0.917194
0.943292
0.920407
0.928574
0.962469
0.977511
0.993236
0.923639
1.40335
2.86093
1.34449
0.990555
0.99112
1.04211
1.0629
0.858817
0.987416
0.875774
1.48923
1.36512
1.00357
0.952354
0.970947
0.973117
0.975708
0.947607
0.924205
0.895845
0.886356
0.889123
0.889864
0.887192
0.884298
0.887418
0.895115
0.907022
0.925921
0.952076
0.924553
0.932172
0.973012
0.99573
0.994501
0.987441
1.32031
2.85489
1.62865
1.01053
0.981587
0.906268
1.08332
0.953045
0.990839
0.988823
1.30546
1.45776
1.12983
0.93481
0.97098
0.974788
0.971483
0.944423
0.919458
0.899023
0.897088
0.887871
0.889447
0.889373
0.886917
0.884374
0.888416
0.895603
0.906724
0.933671
0.953232
0.917731
0.933142
0.98453
0.947383
0.974233
0.9905
0.956033
1.47624
2.83533
1.37536
0.989946
0.976912
1.06066
1.02399
0.911493
0.979261
1.12046
1.54493
1.24006
0.910566
1.03015
0.977786
0.967527
0.939574
0.916857
0.896248
0.881919
0.896769
0.888371
0.889305
0.888969
0.886794
0.885002
0.889236
0.895401
0.903416
0.938891
0.947194
0.909514
0.931351
0.996171
0.983468
0.983136
0.993565
0.983211
1.3674
2.85395
1.56329
0.915951
0.985404
0.9704
1.07027
0.863399
0.98877
0.856834
1.49793
1.32238
0.984756
0.986227
0.981398
0.963382
0.935524
0.912663
0.897006
0.878392
0.870735
0.895587
0.887941
0.888171
0.887794
0.88672
0.885687
0.889617
0.895122
0.901566
0.937787
0.94396
0.903569
0.9288
0.997653
0.999119
0.994603
0.993185
0.986255
0.91827
1.69863
2.78006
1.31182
0.988578
0.894261
1.07956
0.964807
0.991179
0.990135
1.33734
1.39674
1.08562
0.938437
0.982919
0.959593
0.930817
0.908627
0.895629
0.881958
0.866039
0.862799
0.894098
0.887148
0.887663
0.887306
0.887083
0.886124
0.889651
0.894804
0.899258
0.936326
0.941522
0.900368
0.927328
0.993642
0.99947
0.993509
0.993346
0.990875
0.985255
1.35636
2.8628
1.45457
0.93013
0.991056
1.03854
1.03007
0.912528
0.978436
1.16816
1.48307
1.18705
0.913492
0.980982
0.956501
0.926061
0.904845
0.893743
0.882322
0.870962
0.857586
0.855919
0.892818
0.886348
0.887536
0.887716
0.887432
0.886815
0.889671
0.894482
0.899344
0.931533
0.943117
0.902096
0.925739
0.99258
1.00039
0.992261
0.993662
0.992999
0.984771
0.873724
2.19372
2.49301
1.16064
0.981726
0.93631
1.06769
0.856562
0.986658
0.959955
1.5031
1.26949
0.960644
1.03807
0.953939
0.921565
0.901194
0.891408
0.88266
0.871852
0.863005
0.850608
0.849265
0.890266
0.885706
0.887882
0.888033
0.887295
0.886917
0.889102
0.894432
0.899578
0.918756
0.949068
0.908746
0.926967
0.993964
1.00123
0.992295
0.991139
0.992984
0.988424
0.986894
1.38662
2.85492
1.39891
0.991515
0.932395
1.06832
0.958249
0.989813
0.948629
1.39304
1.33435
1.02372
0.975013
0.950408
0.917668
0.897797
0.88879
0.882445
0.873281
0.86396
0.856274
0.843932
0.893993
0.889903
0.88493
0.888402
0.888257
0.886955
0.88637
0.888807
0.893524
0.899898
0.912538
0.940935
0.921917
0.930845
1.00566
1.00099
0.992161
0.989291
0.992077
0.991219
0.982028
1.02653
2.6563
1.98885
0.921368
0.989288
1.01788
1.02077
0.928777
0.983875
1.23579
1.40589
1.11179
0.970293
0.946239
0.91441
0.894417
0.886084
0.881731
0.874427
0.865706
0.857242
0.849514
0.837262
0.944756
0.890529
0.88549
0.889863
0.888487
0.886453
0.886211
0.888954
0.89342
0.900281
0.913161
0.924174
0.950276
0.935943
1.02413
0.999612
0.99138
0.987563
0.989609
0.991982
0.98537
0.989788
1.53335
2.77508
1.28333
0.982661
0.900978
1.05734
0.855096
0.983306
1.07035
1.46749
1.19237
0.943409
0.942319
0.911791
0.89107
0.883426
0.880577
0.875308
0.867366
0.859049
0.850516
0.86423
0.890521
0.901748
0.891438
0.886294
0.890659
0.88835
0.885988
0.886317
0.889233
0.892921
0.901049
0.913907
0.92458
0.935355
0.958839
1.00997
0.997642
0.990225
0.986162
0.987542
0.990771
0.989553
0.97961
1.18526
2.76918
1.46711
0.983033
0.946392
1.06091
0.94219
0.99049
0.849811
1.43865
1.25668
0.911217
0.964106
0.907868
0.887757
0.880913
0.879111
0.875791
0.86904
0.860808
0.852398
0.856191
0.918049
0.895073
0.957176
0.892957
0.887168
0.89032
0.887703
0.88555
0.886519
0.889492
0.892254
0.901362
0.913886
0.924357
0.935439
0.962818
0.990715
0.997299
0.990213
0.986715
0.986661
0.990199
0.991147
0.985483
0.930101
2.12688
2.27771
1.0336
0.988186
1.01609
1.00149
0.95056
0.990695
1.31661
1.31078
0.958981
1.05325
0.904731
0.884568
0.878587
0.877475
0.875839
0.870567
0.862706
0.854188
0.854171
0.909252
0.892701
0.956844
1
0.892329
0.887655
0.88983
0.88724
0.885657
0.887433
0.889617
0.891587
0.901737
0.913738
0.923417
0.934889
0.963278
0.996378
0.996993
0.991402
0.988368
0.987385
0.988144
0.991171
0.98936
0.979812
1.33333
2.78617
1.34008
0.984328
0.919269
1.04299
0.877087
0.978437
1.17312
1.36184
1.03471
0.93982
0.901352
0.881574
0.876445
0.875798
0.875482
0.871807
0.864668
0.85611
0.851818
0.905597
0.887854
0.955718
1
1
0.89
0.886426
0.8883
0.886846
0.886348
0.888185
0.889361
0.890969
0.901977
0.919656
0.925727
0.934345
0.963381
0.997115
0.996933
0.991995
0.989662
0.987729
0.986795
0.989688
0.990807
0.982166
1.04707
2.68313
1.56328
0.960175
0.923656
1.0546
0.90647
0.987633
1.0103
1.38732
1.11646
0.980071
0.897697
0.87896
0.874448
0.874158
0.874802
0.872671
0.866615
0.858128
0.850566
0.90112
0.883373
0.954008
1
1
1
0.887949
0.884762
0.886942
0.886602
0.887045
0.88861
0.888666
0.890151
0.902611
0.924345
0.939116
0.946596
0.962343
0.997079
0.996925
0.991157
0.98847
0.9871
0.985283
0.986628
0.990899
0.985123
0.991594
1.80596
2.395
1.04756
0.990206
1.02667
0.969141
0.991549
0.879754
1.34937
1.1747
0.989393
0.887077
0.876934
0.87252
0.872591
0.873902
0.873127
0.868415
0.860243
0.851354
0.897452
0.890926
0.953047
1
1
1
1
0.885728
0.883529
0.886626
0.887048
0.888033
0.888756
0.888013
0.890138
0.907158
0.929423
0.945907
0.940356
0.951332
0.995241
0.997001
0.989466
0.986409
0.984682
0.983254
0.982979
0.988892
0.988637
0.978689
1.27135
2.7503
1.32992
0.981532
0.953324
1.01729
0.908402
0.990745
1.24492
1.21198
0.956838
1.03583
0.875756
0.870572
0.871115
0.872881
0.873212
0.869919
0.862421
0.853494
0.894433
0.898152
0.952098
0.999358
1
1
1
1
0.884278
0.882594
0.88661
0.887343
0.888392
0.888536
0.887254
0.890163
0.912065
0.935087
0.947052
0.930005
0.938475
1.02672
0.996951
0.989665
0.985415
0.98379
0.982326
0.980734
0.985112
0.988949
0.980543
0.985487
2.65064
1.57625
0.986799
0.880444
1.03958
0.847113
0.982343
1.09655
1.23254
0.895623
1.14534
0.874637
0.868517
0.869713
0.871831
0.873019
0.871025
0.864555
0.855721
0.892169
0.904804
0.951249
0.998514
1
1
1
1
1
0.884886
0.882601
0.887136
0.8876
0.888325
0.888031
0.885903
0.890382
0.916009
0.937243
0.947199
0.927674
0.936049
1.01154
0.997463
0.991276
0.986193
0.984984
0.982646
0.980567
0.981883
0.988627
0.984992
0.989912
1.75443
2.32764
1.01151
0.991685
1.03515
0.938962
0.990396
0.92548
1.22877
0.895054
0.940122
0.873889
0.866327
0.86836
0.870846
0.872631
0.871718
0.866494
0.858035
0.890709
0.910636
0.950465
0.997724
1
1
1
1
1
1
0.885349
0.883264
0.888062
0.887881
0.888393
0.887842
0.885467
0.890974
0.917796
0.939501
0.946527
0.930151
0.937815
1.00372
0.997464
0.992295
0.987311
0.985989
0.983557
0.980502
0.980175
0.987039
0.988325
0.977242
1.25461
2.70926
1.28314
0.982003
0.991476
0.980383
0.918256
0.938297
1.17749
0.938898
0.967073
0.872813
0.864141
0.867048
0.869981
0.872118
0.872055
0.868077
0.860394
0.890046
0.915737
0.949745
0.996983
1
1
1
1
1
1
1
0.885163
0.883404
0.888089
0.887981
0.888481
0.887706
0.885207
0.891662
0.918503
0.938238
0.949573
0.93372
0.943085
1.00688
0.997297
0.992399
0.98762
0.985628
0.983127
0.97994
0.979347
0.984587
0.989414
0.982412
0.996553
2.64045
1.50966
0.991761
0.912203
1.01525
0.856983
1.00429
1.05465
0.973319
0.980575
0.946895
0.862526
0.865744
0.86925
0.871542
0.872129
0.869212
0.862674
0.890312
0.919637
0.949114
0.996537
1
1
1
1
1
1
1
1
0.883524
0.882856
0.887896
0.888059
0.888587
0.887477
0.884902
0.892118
0.914837
0.931939
0.950722
0.928608
0.951445
1.01665
0.996758
0.991382
0.98622
0.984424
0.982023
0.979706
0.979213
0.982206
0.988643
0.986804
0.981036
1.8865
2.20385
0.891022
0.905449
1.03156
0.924936
0.985469
0.909769
0.983565
0.969077
1.08405
0.861418
0.8644
0.868612
0.870958
0.872022
0.869931
0.864673
0.891774
0.921729
0.948465
0.994013
1
1
1
1
1
1
1
1
1
0.880871
0.88126
0.887393
0.888466
0.888801
0.887029
0.884815
0.892849
0.909468
0.922321
0.951398
0.919157
0.948853
1.01773
0.996172
0.990317
0.985501
0.983512
0.981234
0.980079
0.979258
0.980415
0.987466
0.988763
0.978801
1.29263
2.66246
1.19109
0.990057
1.02479
0.955276
0.903562
0.952918
0.975615
0.94873
1.1165
0.861131
0.862936
0.867984
0.870445
0.871793
0.870348
0.866211
0.894335
0.923528
0.947745
0.991814
1
1
1
1
1
1
1
1
1
1
0.878601
0.879463
0.886972
0.888839
0.888841
0.886624
0.884789
0.894068
0.910422
0.910334
0.946925
0.913735
0.943846
1.0174
0.995151
0.989228
0.985443
0.984018
0.981633
0.980654
0.97933
0.979123
0.984384
0.989326
0.980462
1.08395
2.63335
1.3897
0.982281
0.987456
0.977555
0.894232
1.04349
0.934038
0.914394
0.887412
0.860951
0.861331
0.867279
0.870063
0.871499
0.870587
0.867235
0.897131
0.92557
0.946778
0.989919
1
1
1
1
1
1
1
1
1
1
1
0.877118
0.878418
0.886997
0.88939
0.888836
0.885911
0.884824
0.895159
0.911054
0.909973
0.931244
0.916437
0.939433
1.00339
0.994814
0.989223
0.985764
0.984514
0.98204
0.980368
0.979126
0.978236
0.981375
0.988315
0.985156
0.888431
2.26658
1.86585
0.967204
0.936306
0.998722
0.931046
0.994051
0.859016
0.876406
0.949597
0.851986
0.859637
0.866443
0.869843
0.871229
0.870699
0.86786
0.89855
0.928601
0.94545
0.988256
1
1
1
1
1
1
1
1
1
1
1
1
0.876562
0.877937
0.887655
0.889838
0.888747
0.88529
0.885064
0.896058
0.910518
0.909303
0.919244
0.930002
0.93854
0.985313
0.995713
0.9893
0.98584
0.984039
0.981924
0.979855
0.979177
0.97813
0.979227
0.986994
0.988127
0.987117
1.41818
2.47794
1.06258
0.873119
1.00585
0.956202
0.849471
0.952594
0.858278
0.960496
0.986874
0.858199
0.865487
0.869739
0.871088
0.870702
0.868273
0.897089
0.933047
0.943802
0.986345
1
1
1
1
1
1
1
1
1
1
1
1
1
0.875775
0.878004
0.888409
0.889978
0.888924
0.884619
0.885777
0.897032
0.923855
0.9084
0.920188
0.950075
0.942976
0.972686
0.996551
0.989325
0.986646
0.984057
0.981522
0.979712
0.979368
0.978709
0.978053
0.984144
0.989064
0.977411
1.1732
2.62851
1.2812
0.96249
0.986869
0.968071
0.925309
1.00451
0.87217
0.953325
1.07949
0.857353
0.864405
0.869672
0.871159
0.870648
0.868587
0.892443
0.938339
0.942223
0.985469
1
1
1
1
1
1
1
1
1
1
1
1
1
1
0.87411
0.877944
0.888951
0.890056
0.888811
0.884532
0.886419
0.898127
0.934343
0.917337
0.920273
0.940685
0.950858
0.980977
0.997092
0.990033
0.987373
0.985256
0.981455
0.980136
0.979201
0.979001
0.977566
0.981509
0.988662
0.984028
0.958178
2.47454
1.49109
0.991468
0.956247
0.976861
0.941668
1.03522
0.903478
0.939205
0.959743
0.857164
0.863187
0.869546
0.871445
0.870646
0.868804
0.885713
0.942866
0.941286
0.986
1
1
1
1
1
1
1
1
1
1
1
1
1
1
1
0.872783
0.87759
0.889696
0.889879
0.888508
0.884562
0.887294
0.899403
0.928381
0.937634
0.944564
0.940174
0.962644
0.996284
0.99705
0.991844
0.987019
0.986792
0.982482
0.980449
0.978798
0.978942
0.977854
0.979338
0.988134
0.988046
0.971415
1.77817
2.09467
0.97535
0.919503
0.983143
0.957139
0.936521
0.923319
0.926581
0.925481
0.857254
0.861823
0.86928
0.871878
0.870877
0.868883
0.878223
0.94494
0.941151
0.986319
1
1
1
1
1
1
1
1
1
1
1
1
1
1
1
1
0.8721
0.877679
0.890846
0.889593
0.888192
0.884387
0.888226
0.900266
0.914731
0.940881
0.943126
0.937677
0.961285
1.00853
0.996408
0.993805
0.986942
0.986988
0.983961
0.980401
0.97896
0.978416
0.978492
0.977848
0.985247
0.989502
0.980509
1.28716
2.3795
1.00701
0.91491
0.987257
0.973145
0.949709
0.952766
0.915023
0.948916
0.840796
0.860431
0.868853
0.872395
0.871462
0.868874
0.870305
0.944174
0.941491
0.986915
1
1
1
1
1
1
1
1
1
1
1
1
1
1
1
1
1
0.871556
0.877718
0.892458
0.889046
0.887589
0.884552
0.888729
0.900447
0.904637
0.92943
0.936409
0.911201
0.954637
1.00916
0.995384
0.994125
0.989081
0.985264
0.985834
0.980592
0.979406
0.978051
0.978953
0.977226
0.983332
0.990131
0.981382
1.12034
2.43631
1.22956
0.935923
0.982937
0.979106
1.00537
0.983555
0.906299
0.952527
0.978106
0.85943
0.86832
0.872927
0.872371
0.869006
0.868569
0.941729
0.941973
0.987688
1
1
1
1
1
1
1
1
1
1
1
1
1
1
1
1
1
1
0.870842
0.877577
0.893114
0.888719
0.886808
0.884862
0.889176
0.89993
0.904052
0.909715
0.947945
0.897934
0.943016
1.01603
0.996448
0.991826
0.991848
0.985649
0.985287
0.981548
0.979237
0.978681
0.978719
0.977994
0.980931
0.988363
0.987811
0.926322
2.03167
1.39239
0.890171
0.964345
0.982234
0.980635
1.00216
0.904082
0.943079
1.01768
0.860008
0.867698
0.873431
0.873456
0.869563
0.86845
0.938773
0.94249
0.988492
1
1
1
1
1
1
1
1
1
1
1
1
1
1
1
1
1
1
1
0.869093
0.877043
0.893256
0.888557
0.886254
0.885532
0.889318
0.898946
0.903301
0.911068
0.92972
0.904256
0.938566
1.02307
0.997003
0.991554
0.991179
0.988143
0.982663
0.983924
0.978753
0.979773
0.977857
0.979208
0.978694
0.987434
0.990005
0.980597
1.48278
1.66732
1.03502
0.943056
0.983377
0.973992
0.914049
0.915752
0.930267
0.905784
0.861388
0.866929
0.873842
0.874557
0.870648
0.868203
0.935312
0.94358
0.989451
1
1
1
1
1
1
1
1
1
1
1
1
1
1
1
1
1
1
1
1
0.867054
0.875651
0.892759
0.888561
0.886075
0.886191
0.889908
0.897535
0.902687
0.910919
0.921024
0.932916
0.935677
1.0129
0.996226
0.993865
0.987434
0.991583
0.981387
0.984814
0.98036
0.980237
0.977579
0.980009
0.977168
0.985052
0.989769
0.983854
1.18806
1.83503
0.963372
0.949473
0.984777
0.972376
0.961585
0.939484
0.919334
0.944684
0.860713
0.866445
0.874129
0.875609
0.872105
0.868341
0.930325
0.945987
0.991212
1
1
1
1
1
1
1
1
1
1
1
1
1
1
1
1
1
1
1
1
1
0.864653
0.873899
0.892161
0.888695
0.88601
0.886627
0.89001
0.89708
0.913224
0.920977
0.920871
0.940172
0.946238
1.00001
0.99457
0.994534
0.987248
0.990891
0.984422
0.982421
0.983901
0.97926
0.97937
0.979784
0.977427
0.983893
0.989796
0.990711
0.977151
1.6621
0.855918
1.01685
0.983213
0.972349
1.06221
0.965256
0.909799
0.954322
0.84679
0.867332
0.874303
0.87662
0.873693
0.869341
0.92327
0.950466
0.992905
1
1
1
1
1
1
1
1
1
1
1
1
1
1
1
1
1
1
1
1
1
1
0.861755
0.87197
0.891821
0.889331
0.88629
0.886731
0.890005
0.89668
0.911653
0.94041
0.936287
0.941919
0.965929
1.00625
0.996772
0.992242
0.991617
0.986626
0.988314
0.979887
0.985877
0.978496
0.981618
0.978152
0.979752
0.983048
0.989927
0.993407
0.921326
1.39083
0.938229
1.15561
0.977281
0.973076
1.03344
0.986941
0.905098
0.945377
0.947479
0.867776
0.874404
0.877615
0.875304
0.871565
0.916251
0.958002
0.994062
1
1
1
1
1
1
1
1
1
1
1
1
1
1
1
1
1
1
1
1
1
1
1
0.859025
0.869954
0.891508
0.890312
0.886937
0.886583
0.889846
0.896308
0.904853
0.935571
0.948708
0.945919
0.957533
1.01513
0.991642
0.993324
0.992656
0.986007
0.987333
0.982572
0.985161
0.98108
0.982366
0.977348
0.982225
0.982192
0.989985
0.943348
1.02922
1.04753
1.01539
1.01325
0.962518
0.973128
0.98804
0.973184
0.910603
0.930215
0.887482
0.868435
0.875689
0.878552
0.877025
0.874452
0.91291
0.970628
0.995943
1
1
1
1
1
1
1
1
1
1
1
1
1
1
1
1
1
1
1
1
1
1
1
1
0.856989
0.868232
0.891799
0.891005
0.887412
0.885943
0.889516
0.895636
0.905376
0.910994
0.946508
0.915963
0.962757
1.01972
0.996487
0.99563
0.988521
0.990146
0.982782
0.986876
0.980672
0.984801
0.980066
0.980516
0.982861
0.981071
0.989925
0.906684
0.935301
0.837554
1.10241
0.930789
0.960765
0.971886
0.967645
0.878367
0.926933
0.915191
0.942392
0.867717
0.876484
0.879446
0.879739
0.878275
0.914397
0.980859
0.998526
1
1
1
1
1
1
1
1
1
1
1
1
1
1
1
1
1
1
1
1
1
1
1
1
1
0.856207
0.867187
0.89274
0.891158
0.887817
0.884901
0.889064
0.895315
0.904999
0.909916
0.947002
0.906947
0.950572
1.01357
0.995231
0.9971
0.98837
0.990958
0.983253
0.987322
0.980422
0.985848
0.977521
0.983944
0.980324
0.981606
0.991802
0.873154
0.863408
0.983399
1.05054
0.910741
0.996717
0.964927
0.955075
1.01934
0.95133
0.902487
0.944577
0.863156
0.875493
0.882492
0.883811
0.883457
0.918872
0.991366
1
1
1
1
1
1
1
1
1
1
1
1
1
1
1
1
1
1
1
1
1
1
1
1
1
1
1
0.855825
0.867191
0.894125
0.891293
0.88785
0.88387
0.888559
0.895446
0.907005
0.909401
0.924467
0.92212
0.943546
1.02255
0.994247
0.994621
0.993056
0.985981
0.989492
0.983027
0.986458
0.983437
0.98318
0.984412
0.977562
0.986653
0.965774
0.847043
0.956624
1.01246
0.922418
0.8867
1.18083
0.955314
0.944575
1.06684
0.976338
0.887527
0.922734
0.86237
0.875217
0.884749
0.888619
0.890446
0.923452
0.998536
1
1
1
1
1
1
1
1
1
1
1
1
1
1
1
1
1
1
1
1
1
1
1
1
1
1
1
1
0.854611
0.867202
0.895761
0.891178
0.887897
0.883299
0.888015
0.896033
0.904967
0.917862
0.925419
0.948255
0.943226
0.998312
0.997094
0.993154
0.993937
0.98632
0.991264
0.981398
0.989473
0.978853
0.988469
0.982915
0.984267
0.991341
0.91886
0.928525
0.997639
0.886844
0.883331
0.862392
1.19324
0.942261
0.936371
1.01546
0.995984
0.88342
0.89719
0.86513
0.876513
0.887134
0.893203
0.89749
0.925865
1
1
1
1
1
1
1
1
1
1
1
1
1
1
1
1
1
1
1
1
1
1
1
1
1
1
1
1
1
1
0.853666
0.865255
0.895199
0.890259
0.88762
0.88315
0.887567
0.896696
0.905393
0.921741
0.949784
0.948577
0.958179
0.970471
0.994385
0.995089
0.98914
0.991702
0.986591
0.98758
0.988821
0.984028
0.989006
0.978896
0.99025
0.998387
0.871508
0.976096
1.05472
0.985821
0.92361
0.83485
0.895509
0.931372
0.928725
0.9615
0.956141
0.899947
0.865988
0.868249
0.877882
0.890561
0.899092
0.905876
0.936849
1.00064
1
1
1
1
1
1
1
1
1
1
1
1
1
1
1
1
1
1
1
1
1
1
1
1
1
1
1
1
1
1
0.849969
0.863465
0.892416
0.887986
0.886299
0.883332
0.887592
0.897255
0.905413
0.913456
0.943978
0.944871
0.969712
0.998689
0.99707
0.994053
0.990805
0.99158
0.982899
0.990166
0.981329
0.988732
0.987275
0.982535
0.992962
0.955901
0.874707
1.0379
1.10397
1.1284
0.950628
0.870562
0.908689
0.946719
0.920796
0.926389
0.874706
0.923588
0.898959
0.863617
0.877641
0.895025
0.906288
0.915116
0.958933
1.00137
1
1
1
1
1
1
1
1
1
1
1
1
1
1
1
1
1
1
1
1
1
1
1
1
1
1
1
1
1
1
1
0.847067
0.859699
0.890043
0.887001
0.885119
0.883711
0.887551
0.898678
0.9155
0.914073
0.950475
0.919422
0.967006
1.01204
0.997414
0.992491
0.99514
0.985985
0.991037
0.988163
0.985448
0.990826
0.978103
0.991956
0.936721
0.875315
0.957668
1.09152
1.14498
1.1658
0.952269
0.854479
0.896082
1.02202
0.911092
0.912254
0.969654
0.953381
0.943328
0.845812
0.877502
0.900942
0.91411
0.923932
0.986727
0.99924
1
1
1
1
1
1
1
1
1
1
1
1
1
1
1
1
1
1
1
1
1
1
1
1
1
1
1
1
1
1
1
1
0.803668
0.860677
0.887273
0.886633
0.885188
0.885271
0.887753
0.899192
0.909874
0.936793
0.934595
0.924669
0.938682
1.01819
0.993769
0.996449
0.993096
0.988977
0.991662
0.982746
0.990692
0.987582
0.988501
1.00207
0.883084
0.913869
1.02634
1.13745
1.1778
1.18284
0.852052
0.865929
0.875962
1.21509
0.898815
0.901365
0.981949
0.987517
1.00304
0.820557
0.881394
0.908136
0.920865
0.93035
0.997989
0.997775
1.00003
1
1
1
1
1
1
1
1
1
1
1
1
1
1
1
1
1
1
1
1
1
1
1
1
1
1
1
1
1
1
1
1
0.867629
0.818276
0.895554
0.885981
0.885434
0.886498
0.888028
0.898218
0.909588
0.937849
0.952008
0.948226
0.932456
1.00724
0.990982
0.99536
0.992449
0.992287
0.987584
0.989879
0.991717
0.980233
0.967541
1.00922
0.852526
1.00027
1.09293
1.17678
1.20434
1.20045
0.989536
0.899108
0.853702
1.07474
0.885942
0.892957
0.935112
1.02765
1.06193
0.824942
0.890575
0.918938
0.930996
0.940013
1
0.997559
1.00017
1
1
1
1
1
1
1
1
1
1
1
1
1
1
1
1
1
1
1
1
1
1
1
1
1
1
1
1
1
1
1
1
1
0.898364
0.886234
0.809944
0.898848
0.885906
0.886088
0.889123
0.896882
0.909349
0.916834
0.926839
0.94442
0.961315
0.968571
0.996594
0.990917
0.975192
0.989733
0.990384
0.991647
0.985648
0.989717
0.902139
0.918814
0.952473
1.08533
1.15191
1.21019
1.2263
1.21687
1.15249
0.921453
0.838262
0.916058
0.880828
0.884512
0.899594
1.03049
1.10619
0.889859
0.892916
0.925777
0.935938
0.945215
0.999795
0.998677
1.0003
1
1
1
1
1
1
1
1
1
1
1
1
1
1
1
1
1
1
1
1
1
1
1
1
1
1
1
1
1
1
1
1
1
1
0.900123
0.885767
0.902396
0.815915
0.892791
0.88662
0.887797
0.898482
0.946605
0.915973
0.927171
0.901215
0.964623
1.00586
0.996919
0.995711
0.993883
0.991608
0.954896
0.990311
0.989922
1.01035
0.864621
0.906967
1.03112
1.15671
1.20226
1.23823
1.24465
1.2326
1.2132
0.931358
0.932935
0.913541
0.892681
0.883532
0.883981
0.954464
1.1201
0.929164
0.884245
0.922917
0.933628
0.947921
0.997328
1.00005
1.00036
1
1
1
1
1
1
1
1
1
1
1
1
1
1
1
1
1
1
1
1
1
1
1
1
1
1
1
1
1
1
1
1
1
1
1
0.899308
0.886728
0.885753
0.904819
0.811869
0.825541
0.899723
0.898224
0.918716
0.917681
0.929144
0.927118
0.931501
1.00872
0.991058
0.991507
0.992806
0.972344
0.992032
0.985142
0.897424
1.01905
0.941452
1.04355
1.12002
1.21444
1.24303
1.26135
1.26002
1.24634
1.23053
0.927292
0.946998
0.893146
0.933934
0.903163
0.885599
0.917495
1.10831
0.953337
0.872907
0.917725
0.92991
0.946561
0.992813
1.00113
1.00041
1
1
1
1
1
1
1
1
1
1
1
1
1
1
1
1
1
1
1
1
1
1
1
1
1
1
1
1
1
1
1
1
1
1
1
1
0.898291
0.887939
0.886321
0.88809
0.905446
0.804786
0.806019
0.83646
0.929302
0.917456
0.896383
0.945088
0.91534
0.999286
0.994434
0.943597
0.929168
0.992903
0.990815
1.00979
0.9252
0.86952
1.04259
1.15251
1.20089
1.26
1.27476
1.28012
1.27277
1.25686
1.23276
0.871908
0.865793
0.863835
1.01032
0.907124
0.911651
0.940177
1.06329
0.967992
0.860052
0.909708
0.92509
0.942918
0.98377
1.00158
1.00044
1
1
1
1
1
1
1
1
1
1
1
1
1
1
1
1
1
1
1
1
1
1
1
1
1
1
1
1
1
1
1
1
1
1
1
1
1
0.897735
0.888261
0.888032
0.886996
0.89027
0.845307
0.79691
0.794231
0.80763
0.863551
0.923795
0.939834
0.970223
0.914347
1.09333
0.926867
0.989635
0.994597
0.943935
1.02491
1.02575
1.07813
1.14451
1.23599
1.26532
1.29544
1.29911
1.29532
1.28329
1.2646
1.23676
1.00944
0.876116
0.870683
0.940929
0.893367
0.972382
0.940076
0.969165
0.977789
0.848505
0.900027
0.919867
0.93882
0.975392
1.00145
1.00046
1
1
1
1
1
1
1
1
1
1
1
1
1
1
1
1
1
1
1
1
1
1
1
1
1
1
1
1
1
1
1
1
1
1
1
1
1
1
0.897099
0.888369
0.889282
0.886686
0.888095
0.882907
0.793397
0.789527
0.786261
0.793286
0.8136
0.836112
0.904032
0.896058
1.13005
1.0018
1.13649
1.00962
1.12569
1.00425
1.17493
1.23576
1.24769
1.30094
1.31314
1.32253
1.31776
1.30766
1.29178
1.26981
1.23774
1.13331
0.913166
1.02489
1.00072
0.860423
1.04769
0.904386
0.910288
0.986443
0.839287
0.889378
0.914454
0.934696
0.968707
1.00137
1.00048
1
1
1
1
1
1
1
1
1
1
1
1
1
1
1
1
1
1
1
1
1
1
1
1
1
1
1
1
1
1
1
1
1
1
1
1
1
1
1
0.89749
0.88839
0.890202
0.88672
0.885722
0.886473
0.976227
1.00202
0.790459
0.782705
0.783084
0.793821
0.803545
0.8121
0.984076
1.16932
1.2603
1.29123
1.32665
1.32207
1.29339
1.32967
1.33094
1.34793
1.34691
1.34291
1.33218
1.31759
1.29805
1.27168
1.23343
1.15547
0.943352
1.17327
0.898548
0.893056
1.13735
0.858029
0.992002
0.998575
0.832416
0.878065
0.90872
0.930312
0.962371
1.00149
1.00049
1
1
1
1
1
1
1
1
1
1
1
1
1
1
1
1
1
1
1
1
1
1
1
1
1
1
1
1
1
1
1
1
1
1
1
1
1
1
1
1
0.898955
0.888356
0.890395
0.886858
0.88376
0.889195
0.997769
0.98993
1.07926
0.791137
0.782461
0.780474
0.783089
0.785041
0.919677
1.08201
1.20862
1.29432
1.34385
1.40243
1.4042
1.40041
1.38695
1.38154
1.37046
1.35837
1.34342
1.32506
1.30122
1.26846
1.22014
1.13421
0.979673
1.26396
1.12378
0.929166
1.18073
0.944776
0.982882
1.01863
0.827271
0.866534
0.902392
0.925459
0.956077
1.00148
1.00049
1
1
1
1
1
1
1
1
1
1
1
1
1
1
1
1
1
1
1
1
1
1
1
1
1
1
1
1
1
1
1
1
1
1
1
1
1
1
1
1
1
0.901321
0.887933
0.890121
0.886727
0.882079
0.892166
0.981639
0.987854
0.995153
1.05274
0.787707
0.781
0.784313
0.780321
0.826191
1.03224
1.16116
1.26825
1.34064
1.39248
1.42334
1.44278
1.42449
1.40487
1.38725
1.37042
1.35184
1.32929
1.2994
1.25685
1.19224
1.08036
1.03079
1.35506
1.32154
0.99205
1.18153
1.02163
0.990853
1.03664
0.823851
0.855419
0.89529
0.920076
0.949468
1.00089
1.0005
1
1
1
1
1
1
1
1
1
1
1
1
1
1
1
1
1
1
1
1
1
1
1
1
1
1
1
1
1
1
1
1
1
1
1
1
1
1
1
1
1
1
0.904156
0.88737
0.88865
0.886821
0.881204
0.895766
1.02349
0.99513
0.982261
1.01989
1.17653
0.790113
0.782106
0.784892
0.772382
0.940211
1.11702
1.23147
1.31343
1.37027
1.40025
1.43
1.44697
1.42132
1.3998
1.37929
1.35658
1.32821
1.28906
1.23115
1.14082
0.987346
1.02585
1.32699
1.46244
0.992552
1.16416
1.09133
0.976978
1.04525
0.822827
0.845412
0.887303
0.914382
0.948323