/*--------------------------------*- C++ -*----------------------------------*\
| =========                 |                                                 |
| \\      /  F ield         | OpenFOAM: The Open Source CFD Toolbox           |
|  \\    /   O peration     | Version:  v2012                                 |
|   \\  /    A nd           | Website:  www.openfoam.com                      |
|    \\/     M anipulation  |                                                 |
\*---------------------------------------------------------------------------*/
FoamFile
{
    version     2.0;
    format      ascii;
    class       volScalarField;
    location    "12000";
    object      c;
}
// * * * * * * * * * * * * * * * * * * * * * * * * * * * * * * * * * * * * * //

dimensions      [0 1 -1 0 0 0 0];


internalField   nonuniform List<scalar> 
27324
(
258.044
259.927
255.937
261.047
257.669
252.804
262.206
258.697
254.421
249.409
263.198
259.757
255.384
250.952
246.44
263.805
260.662
256.377
251.869
247.976
244.253
264.141
261.211
257.227
252.81
248.895
245.822
242.763
264.391
261.512
257.741
253.624
249.829
246.768
244.359
241.707
264.627
261.731
258.037
254.128
250.631
247.72
245.32
243.322
240.959
263.587
261.958
258.255
254.407
251.128
248.535
246.278
244.298
242.587
240.456
258.314
260.862
258.44
254.595
251.406
249.056
247.104
245.254
243.577
242.081
240.157
247.031
255.887
257.37
254.729
251.605
249.355
247.66
246.071
244.519
243.086
241.756
240.039
235.512
245.152
252.704
253.741
251.757
249.556
247.99
246.656
245.328
244.016
242.763
241.585
240.056
230.14
234.15
242.676
249.053
250.608
249.667
248.186
247.009
245.962
244.803
243.667
242.587
241.5
240.156
229.077
228.932
232.399
239.699
245.731
248.24
248.218
247.202
246.34
245.482
244.414
243.484
242.456
241.453
240.344
228.905
227.875
227.377
230.256
236.731
243.142
246.495
247.037
246.515
245.876
245.141
244.193
243.36
242.31
241.464
240.557
228.972
227.711
226.342
225.472
227.844
234.339
240.974
244.991
246.2
246.012
245.574
244.927
244.032
243.26
242.164
241.458
240.722
229.096
227.757
226.19
224.444
223.212
225.74
232.608
238.941
243.265
245.314
245.63
245.406
244.712
243.932
243.125
241.983
241.555
240.938
229.238
227.849
226.198
224.287
222.153
220.931
224.446
231.318
236.907
241.313
244.209
245.182
245.209
244.461
243.817
242.838
241.962
241.703
240.932
229.377
227.968
226.3
224.3
221.985
219.737
219.165
223.908
230.336
234.778
238.904
242.527
244.381
244.731
244.038
243.506
242.364
241.765
241.381
240.58
229.49
228.083
226.416
224.406
221.994
219.519
217.676
218.212
224.018
229.569
232.71
236.037
239.739
242.367
243.237
242.866
242.543
240.681
241.545
238.754
240.436
229.58
228.186
226.534
224.52
222.095
219.536
217.423
216.262
217.969
224.617
228.998
230.944
233.062
235.766
238.285
239.424
239.327
238.612
237.307
235.648
233.543
234.291
229.651
228.266
226.64
224.628
222.193
219.637
217.412
215.915
215.437
218.377
225.484
228.664
229.713
230.659
231.807
232.857
233.136
232.615
231.418
229.75
228.136
226.689
230.73
229.72
228.329
226.714
224.718
222.284
219.729
217.503
215.887
214.924
214.984
219.389
226.579
228.53
229.094
229.326
229.438
229.16
228.41
227.323
226.169
225.263
224.897
225.468
232.092
229.783
228.38
226.768
224.779
222.371
219.822
217.599
215.971
214.872
214.174
214.963
221.097
227.639
228.661
228.915
228.938
228.49
227.516
226.335
225.265
224.621
224.502
224.803
227.573
235.404
229.839
228.426
226.818
224.824
222.44
219.903
217.69
216.055
214.96
214.076
213.658
215.583
223.255
228.514
228.898
229.04
228.9
228.211
227.055
225.807
224.898
224.481
224.66
225.966
231.955
237.771
229.894
228.474
226.873
224.874
222.483
219.97
217.773
216.141
215.051
214.111
213.47
213.403
217.176
225.373
229.162
229.218
229.177
228.793
227.842
226.563
225.437
224.834
224.673
225.084
229.422
235.863
238.944
229.946
228.524
226.925
224.924
222.515
220.017
217.836
216.224
215.147
214.2
213.494
212.999
213.706
219.711
227.018
229.35
229.344
229.153
228.526
227.353
226.07
225.138
224.808
224.853
227.042
233.902
238.024
239.54
229.987
228.556
226.978
224.964
222.559
220.051
217.884
216.288
215.243
214.283
213.574
212.977
212.834
214.733
222.86
228.029
229.352
229.296
228.989
228.082
226.734
225.569
224.907
224.824
225.607
231.26
237.046
239.07
239.974
229.989
228.566
227.016
225.014
222.607
220.088
217.926
216.338
215.318
214.372
213.654
213.033
212.735
212.89
216.979
225.808
228.652
229.312
229.251
228.722
227.461
226.115
225.168
224.827
224.998
228.627
235.455
238.642
239.686
240.36
229.977
228.562
227.039
225.072
222.649
220.142
217.968
216.385
215.376
214.452
213.735
213.106
212.758
212.553
213.558
220.445
227.872
229.251
229.393
229.189
228.199
226.767
225.541
224.924
224.842
226.554
233.309
237.928
239.475
240.134
240.7
229.959
228.544
227.042
225.124
222.684
220.172
218.009
216.434
215.424
214.519
213.811
213.185
212.82
212.533
212.612
215.366
224.187
228.945
229.5
229.442
228.847
227.488
226.048
225.072
224.823
225.354
230.741
236.874
239.152
239.998
240.482
240.921
229.921
228.492
227.015
225.101
222.718
220.193
218.045
216.48
215.466
214.575
213.872
213.274
212.89
212.572
212.484
213.054
218.797
226.972
229.342
229.529
229.299
228.218
226.662
225.378
224.821
224.859
228.219
235.33
238.702
239.819
240.361
240.716
240.999
229.871
228.434
226.963
225.085
222.714
220.212
218.083
216.522
215.501
214.625
213.921
213.353
212.979
212.629
212.496
212.543
214.495
223.151
228.523
229.537
229.522
228.874
227.365
225.789
224.922
224.718
226.276
233.258
238.032
239.602
240.225
240.592
240.837
241.143
229.824
228.381
226.9
225.064
222.705
220.209
218.111
216.558
215.534
214.67
213.962
213.419
213.061
212.712
212.545
212.493
212.835
217.889
226.681
229.358
229.606
229.358
228.105
226.336
225.105
224.687
225.163
230.804
237.038
239.306
240.086
240.457
240.73
241.038
241.746
229.822
228.338
226.847
225.008
222.676
220.2
218.092
216.58
215.564
214.712
213.998
213.475
213.128
212.799
212.617
212.516
212.52
214.141
222.621
228.668
229.641
229.615
228.799
226.983
225.435
224.678
224.717
228.362
235.608
238.89
239.925
240.331
240.607
240.966
241.744
242.641
229.845
228.314
226.801
224.93
222.645
220.143
218.069
216.583
215.587
214.743
214.027
213.52
213.178
212.875
212.706
212.572
212.5
212.794
217.598
226.623
229.443
229.693
229.332
227.702
225.891
224.826
224.608
226.405
233.684
238.286
239.724
240.209
240.488
240.883
241.711
242.817
243.658
229.881
228.321
226.752
224.872
222.577
220.103
218.024
216.579
215.565
214.758
214.047
213.552
213.21
212.932
212.787
212.641
212.525
212.549
214.086
222.801
228.755
229.704
229.62
228.427
226.481
225.044
224.594
225.203
231.358
237.408
239.458
240.087
240.377
240.798
241.685
242.904
244.064
244.685
229.96
228.368
226.795
224.846
222.527
220.051
217.976
216.532
215.547
214.759
214.058
213.575
213.226
212.967
212.846
212.716
212.563
212.538
212.776
217.934
227.008
229.515
229.69
229.061
227.178
225.422
224.621
224.67
228.938
236.154
239.092
239.95
240.28
240.71
241.653
242.994
244.277
245.279
245.723
230.043
228.428
226.849
224.865
222.512
220.014
217.916
216.489
215.508
214.737
214.06
213.588
213.232
212.985
212.878
212.774
212.625
212.539
212.504
214.34
223.543
228.965
229.683
229.502
227.946
225.932
224.743
224.516
226.855
234.453
238.576
239.779
240.199
240.623
241.627
243.05
244.495
245.607
246.449
246.809
230.09
228.479
226.911
224.885
222.514
219.992
217.868
216.439
215.465
214.699
214.054
213.59
213.234
212.993
212.889
212.806
212.673
212.558
212.47
212.831
218.921
227.538
229.563
229.7
228.701
226.575
224.976
224.491
225.431
232.329
237.842
239.553
240.122
240.546
241.602
243.116
244.69
245.959
246.861
247.62
247.951
230.107
228.507
226.964
224.954
222.518
220.004
217.835
216.396
215.42
214.653
214.025
213.58
213.22
212.994
212.889
212.817
212.71
212.588
212.464
212.442
215.01
224.67
229.263
229.741
229.324
227.315
225.355
224.49
224.696
229.978
236.809
239.243
240.04
240.503
241.581
243.177
244.871
246.284
247.312
248.086
248.823
249.061
230.115
228.528
227.021
225.014
222.587
220.033
217.857
216.372
215.38
214.607
214.001
213.555
213.205
212.992
212.884
212.809
212.727
212.622
212.471
212.36
213.07
220.453
228.251
229.747
229.71
228.107
225.865
224.589
224.432
227.748
235.4
238.813
239.942
240.491
241.555
243.24
245.04
246.594
247.739
248.605
249.327
249.996
250.002
230.084
228.494
227.05
225.064
222.626
220.073
217.888
216.386
215.362
214.567
213.981
213.531
213.186
212.99
212.878
212.8
212.729
212.652
212.481
212.333
212.498
216.218
226.213
229.549
229.86
228.863
226.51
224.793
224.377
226.004
233.584
238.216
239.805
240.515
241.534
243.304
245.202
246.887
248.152
249.102
249.891
250.539
251.001
250.778
230.053
228.447
227.007
225.083
222.656
220.102
217.938
216.406
215.363
214.546
213.969
213.507
213.169
212.996
212.887
212.799
212.728
212.669
212.533
212.324
212.395
213.57
222.72
229.031
229.886
229.464
227.252
225.145
224.37
224.924
231.434
237.397
239.599
240.555
241.524
243.373
245.363
247.167
248.549
249.59
250.434
251.144
251.587
251.802
251.738
230.042
228.405
226.983
225.069
222.669
220.125
217.988
216.439
215.383
214.541
213.965
213.491
213.156
213.001
212.899
212.808
212.734
212.68
212.584
212.383
212.389
212.576
218.49
227.663
229.886
229.818
228.053
225.645
224.42
224.423
229.178
236.296
239.289
240.611
241.534
243.447
245.527
247.435
248.93
250.065
250.975
251.728
252.24
252.413
252.66
254.029
230.048
228.374
226.923
225.047
222.652
220.137
218.025
216.473
215.411
214.559
213.969
213.479
213.154
213.011
212.921
212.839
212.762
212.7
212.638
212.451
212.4
212.363
214.978
225.187
229.611
229.942
228.834
226.265
224.585
224.263
227.147
234.855
238.849
240.622
241.569
243.528
245.696
247.695
249.295
250.525
251.506
252.31
252.872
253.094
253.234
254.728
258.161
230.094
228.372
226.874
224.988
222.61
220.11
218.037
216.499
215.438
214.589
213.995
213.473
213.148
213.027
212.947
212.876
212.806
212.737
212.689
212.534
212.481
212.351
213.137
221.459
228.955
229.964
229.478
227.001
224.892
224.227
225.619
233.067
238.241
240.603
241.643
243.62
245.874
247.952
249.648
250.969
252.027
252.885
253.503
253.757
253.883
255.178
258.723
262.955
230.163
228.411
226.898
224.948
222.572
220.101
218.033
216.512
215.457
214.618
214.015
213.473
213.136
213.034
212.971
212.915
212.86
212.784
212.737
212.608
212.564
212.374
212.535
217.418
227.423
229.956
229.88
227.804
225.353
224.225
224.693
231.044
237.409
240.461
241.756
243.723
246.06
248.208
249.99
251.397
252.534
253.453
254.127
254.423
254.534
255.681
259.083
263.563
267.452
230.196
228.437
226.899
224.946
222.548
220.074
217.997
216.483
215.458
214.643
214.031
213.471
213.124
213.031
212.979
212.947
212.907
212.836
212.781
212.66
212.649
212.394
212.425
214.365
224.798
229.666
230.045
228.615
225.938
224.317
224.26
228.99
236.312
240.246
241.945
243.841
246.253
248.468
250.326
251.81
253.026
254.01
254.744
255.088
255.195
256.188
259.474
263.957
268.161
271.433
230.213
228.439
226.929
224.943
222.546
220.043
217.963
216.46
215.433
214.658
214.04
213.466
213.111
213.01
212.968
212.962
212.937
212.879
212.817
212.693
212.709
212.434
212.409
212.839
221.101
229.003
230.085
229.33
226.636
224.557
224.119
227.17
234.952
239.881
242.137
243.972
246.452
248.736
250.66
252.211
253.501
254.557
255.353
255.748
255.861
256.712
259.862
264.37
268.632
272.245
274.877
230.228
228.456
226.962
224.982
222.572
220.093
217.933
216.43
215.41
214.662
214.039
213.458
213.099
212.985
212.931
212.946
212.949
212.903
212.844
212.707
212.74
212.488
212.408
212.346
217.258
227.51
230.086
229.84
227.413
224.942
224.082
225.805
233.362
239.325
242.334
244.114
246.657
249.015
250.992
252.603
253.96
255.088
255.951
256.403
256.528
257.249
260.257
264.774
269.123
272.798
275.786
277.814
230.203
228.411
226.979
225.002
222.609
220.114
217.945
216.411
215.39
214.657
214.021
213.452
213.088
212.96
212.889
212.909
212.925
212.907
212.859
212.712
212.75
212.542
212.431
212.252
214.398
224.976
229.901
230.1
228.237
225.482
224.079
224.992
231.617
238.546
242.543
244.267
246.87
249.307
251.329
252.989
254.403
255.601
256.539
257.051
257.197
257.8
260.656
265.176
269.607
273.371
276.413
278.807
280.292
230.195
228.385
226.967
225.009
222.631
220.14
217.958
216.413
215.376
214.654
214.005
213.444
213.083
212.94
212.85
212.853
212.885
212.886
212.855
212.722
212.753
212.581
212.494
212.242
212.949
221.438
229.332
230.178
229.033
226.113
224.357
224.63
229.871
237.606
242.401
244.49
247.095
249.612
251.671
253.37
254.835
256.096
257.113
257.692
257.865
258.362
261.061
265.573
270.086
273.94
277.064
279.501
281.36
282.375
230.187
228.373
226.966
225.014
222.644
220.149
217.978
216.41
215.395
214.652
213.996
213.44
213.097
212.933
212.821
212.804
212.834
212.857
212.848
212.737
212.758
212.609
212.571
212.255
212.46
217.679
228.081
230.193
229.698
226.834
224.68
224.482
228.339
236.426
242.164
244.744
247.335
249.927
252.022
253.751
255.258
256.574
257.669
258.323
258.529
258.934
261.471
265.965
270.56
274.505
277.711
280.218
282.107
283.506
284.13
230.197
228.349
226.951
225.014
222.644
220.143
217.997
216.418
215.43
214.676
213.993
213.443
213.114
212.953
212.809
212.772
212.784
212.825
212.84
212.755
212.784
212.634
212.651
212.307
212.368
214.722
225.821
230.098
230.127
227.626
225.192
224.454
227.23
235.077
241.736
245.061
247.595
250.25
252.385
254.133
255.675
257.035
258.203
258.941
259.188
259.513
261.888
266.352
271.028
275.067
278.359
280.936
282.882
284.297
285.314
285.614
230.219
228.35
226.941
225.017
222.631
220.12
218.009
216.418
215.463
214.689
213.995
213.454
213.141
212.98
212.84
212.758
212.76
212.793
212.833
212.777
212.821
212.658
212.711
212.381
212.358
213.044
222.627
229.682
230.319
228.475
225.798
224.692
226.605
233.649
241.127
245.372
247.869
250.574
252.762
254.519
256.09
257.485
258.717
259.545
259.841
260.097
262.31
266.733
271.49
275.625
279.004
281.654
283.658
285.118
286.137
286.843
286.883
230.232
228.331
226.925
225.012
222.618
220.091
217.988
216.389
215.488
214.693
213.995
213.466
213.172
213.012
212.877
212.79
212.757
212.773
212.829
212.8
212.864
212.684
212.753
212.47
212.363
212.375
218.963
228.697
230.39
229.324
226.495
225.119
226.353
232.246
240.311
245.684
248.156
250.9
253.151
254.913
256.501
257.927
259.208
260.126
260.483
260.682
262.736
267.109
271.945
276.179
279.648
282.375
284.438
285.942
286.996
287.691
288.149
287.98
230.282
228.327
226.898
225.002
222.618
220.077
217.97
216.368
215.491
214.687
213.991
213.471
213.191
213.044
212.918
212.825
212.788
212.76
212.822
212.822
212.898
212.713
212.779
212.536
212.39
212.18
215.775
226.877
230.398
230.05
227.273
225.713
226.271
231.042
239.394
245.509
248.467
251.233
253.554
255.319
256.912
258.363
259.683
260.683
261.114
261.27
263.167
267.479
272.392
276.728
280.291
283.096
285.22
286.771
287.858
288.58
289.015
289.278
288.945
230.314
228.313
226.868
224.973
222.605
220.067
217.952
216.361
215.493
214.66
213.976
213.467
213.195
213.06
212.948
212.863
212.82
212.771
212.804
212.828
212.915
212.746
212.795
212.578
212.457
212.139
213.685
224.159
230.161
230.568
228.123
226.402
226.298
230.223
238.298
245.328
248.818
251.578
253.965
255.74
257.325
258.793
260.143
261.212
261.726
261.859
263.602
267.844
272.83
277.271
280.93
283.817
286.006
287.605
288.727
289.471
289.926
290.155
290.265
289.806
230.333
228.312
226.855
224.939
222.588
220.056
217.935
216.363
215.491
214.624
213.951
213.455
213.19
213.044
212.962
212.882
212.845
212.771
212.785
212.809
212.903
212.776
212.803
212.596
212.542
212.131
212.668
220.794
229.5
230.849
229.035
227.182
226.805
229.809
237.134
244.877
249.207
251.939
254.379
256.172
257.743
259.219
260.597
261.716
262.316
262.449
264.038
268.2
273.26
277.807
281.567
284.538
286.794
288.444
289.601
290.371
290.841
291.084
291.151
291.145
290.59
230.325
228.307
226.863
224.917
222.554
220.043
217.905
216.387
215.499
214.601
213.924
213.437
213.176
213.028
212.938
212.888
212.856
212.771
212.767
212.77
212.882
212.798
212.813
212.599
212.614
212.157
212.301
217.488
228.123
230.953
229.997
228.064
227.461
229.667
236.014
244.314
249.565
252.313
254.791
256.617
258.17
259.64
261.042
262.2
262.879
263.033
264.477
268.549
273.677
278.335
282.199
285.258
287.583
289.286
290.481
291.277
291.763
292.015
292.092
292.034
291.941
291.318
230.282
228.271
226.882
224.91
222.525
220.025
217.862
216.43
215.51
214.595
213.912
213.419
213.159
213.003
212.922
212.87
212.857
212.773
212.751
212.731
212.851
212.803
212.829
212.6
212.665
212.248
212.214
214.848
225.948
230.973
230.968
229.021
228.325
229.671
235.122
243.601
249.869
252.697
255.201
257.071
258.608
260.06
261.478
262.669
263.412
263.601
264.915
268.889
274.081
278.854
282.825
285.975
288.374
290.132
291.367
292.19
292.693
292.955
293.035
292.983
292.831
292.676
292.008
230.236
228.209
226.886
224.909
222.519
219.988
217.82
216.454
215.509
214.597
213.917
213.414
213.149
212.985
212.908
212.861
212.835
212.77
212.744
212.703
212.815
212.804
212.845
212.612
212.699
212.358
212.2
213.174
223.234
230.509
231.846
230.043
229.301
229.933
234.594
242.786
249.672
253.103
255.615
257.529
259.058
260.481
261.904
263.127
263.921
264.146
265.355
269.219
274.471
279.36
283.444
286.69
289.164
290.979
292.256
293.109
293.632
293.904
293.988
293.934
293.785
293.564
293.365
292.674
230.232
228.152
226.867
224.903
222.512
219.975
217.807
216.467
215.487
214.602
213.932
213.419
213.132
212.968
212.9
212.86
212.833
212.768
212.745
212.68
212.786
212.807
212.861
212.638
212.721
212.466
212.215
212.334
220.191
229.642
232.53
231.103
230.385
230.588
234.368
241.811
249.459
253.545
256.037
257.988
259.516
260.908
262.32
263.575
264.41
264.661
265.788
269.541
274.843
279.853
284.054
287.4
289.953
291.828
293.15
294.033
294.577
294.86
294.951
294.896
294.741
294.52
294.251
294.028
293.332
230.237
228.143
226.841
224.892
222.481
219.975
217.813
216.473
215.441
214.602
213.954
213.436
213.125
212.949
212.899
212.862
212.836
212.77
212.748
212.695
212.765
212.784
212.857
212.673
212.735
212.529
212.269
211.991
217.41
228.125
232.886
232.229
231.554
231.422
234.306
240.851
249.082
253.992
256.465
258.441
259.979
261.343
262.731
264.007
264.888
265.146
266.21
269.858
275.2
280.331
284.654
288.103
290.74
292.678
294.045
294.962
295.528
295.825
295.921
295.868
295.707
295.477
295.204
294.907
294.676
293.993
230.275
228.141
226.829
224.878
222.432
219.956
217.851
216.486
215.398
214.582
213.964
213.463
213.126
212.932
212.889
212.875
212.847
212.778
212.751
212.704
212.759
212.76
212.836
212.712
212.745
212.558
212.413
211.886
215.26
225.995
233.038
233.491
232.807
232.468
234.316
240.086
248.628
254.338
256.896
258.884
260.442
261.783
263.142
264.421
265.353
265.607
266.607
270.164
275.54
280.793
285.242
288.8
291.523
293.527
294.942
295.894
296.483
296.796
296.899
296.848
296.685
296.445
296.16
295.856
295.545
295.321
294.67
230.332
228.159
226.813
224.876
222.391
219.928
217.893
216.498
215.386
214.554
213.95
213.477
213.134
212.922
212.871
212.871
212.853
212.784
212.748
212.712
212.757
212.732
212.82
212.74
212.76
212.564
212.559
211.851
213.876
223.608
232.499
234.815
234.126
233.632
234.823
239.656
248.077
254.551
257.327
259.32
260.903
262.226
263.557
264.82
265.803
266.055
266.977
270.455
275.862
281.237
285.815
289.487
292.301
294.374
295.84
296.828
297.443
297.772
297.885
297.836
297.671
297.425
297.128
296.807
296.488
296.18
295.977
295.376
230.405
228.168
226.809
224.861
222.387
219.906
217.922
216.494
215.386
214.548
213.917
213.465
213.148
212.927
212.855
212.857
212.853
212.798
212.733
212.707
212.753
212.713
212.796
212.749
212.78
212.567
212.675
211.893
213.177
221.122
231.63
236.011
235.482
234.911
235.439
239.49
247.273
254.393
257.782
259.751
261.357
262.668
263.976
265.21
266.226
266.493
267.324
270.716
276.168
281.66
286.371
290.162
293.072
295.218
296.738
297.764
298.405
298.752
298.875
298.832
298.666
298.414
298.106
297.772
297.431
297.111
296.821
296.654
296.12
230.488
228.179
226.774
224.834
222.403
219.911
217.932
216.469
215.405
214.55
213.9
213.423
213.138
212.952
212.855
212.822
212.833
212.802
212.742
212.702
212.741
212.691
212.769
212.745
212.808
212.568
212.743
212.122
212.931
218.907
230.368
236.932
236.889
236.283
236.348
239.556
246.392
254.278
258.264
260.177
261.797
263.105
264.395
265.597
266.619
266.914
267.66
270.937
276.447
282.063
286.909
290.823
293.831
296.055
297.633
298.7
299.371
299.737
299.871
299.834
299.668
299.411
299.096
298.747
298.389
298.044
297.738
297.48
297.364
296.915
230.503
228.168
226.765
224.785
222.434
219.925
217.949
216.429
215.408
214.569
213.899
213.379
213.108
212.965
212.883
212.81
212.789
212.799
212.758
212.703
212.724
212.721
212.755
212.742
212.829
212.583
212.779
212.433
212.878
217.287
228.829
237.405
238.374
237.737
237.444
239.783
245.614
254.072
258.653
260.586
262.217
263.534
264.81
265.982
266.986
267.301
267.991
271.117
276.679
282.439
287.42
291.462
294.577
296.882
298.523
299.634
300.336
300.723
300.872
300.841
300.677
300.417
300.093
299.732
299.359
298.993
298.659
298.381
298.169
298.117
297.77
230.481
228.129
226.762
224.784
222.463
219.96
217.963
216.412
215.4
214.574
213.913
213.364
213.051
212.963
212.93
212.815
212.743
212.788
212.778
212.716
212.694
212.723
212.754
212.717
212.841
212.647
212.803
212.811
212.982
216.353
226.902
237.621
239.946
239.261
238.687
240.125
245.094
253.792
258.885
260.969
262.619
263.952
265.213
266.356
267.331
267.638
268.302
271.272
276.843
282.778
287.904
292.075
295.3
297.695
299.402
300.563
301.301
301.712
301.875
301.852
301.691
301.43
301.101
300.729
300.339
299.954
299.595
299.284
299.048
298.897
298.923
298.696
230.436
228.034
226.761
224.808
222.52
219.994
217.972
216.414
215.393
214.552
213.923
213.361
213.038
212.921
212.936
212.858
212.732
212.739
212.788
212.749
212.684
212.714
212.759
212.703
212.81
212.702
212.856
213.15
213.151
215.987
225.072
236.842
241.552
240.843
240.038
240.695
244.789
253.167
258.941
261.349
263.006
264.352
265.598
266.711
267.653
267.924
268.564
271.411
276.937
283.052
288.352
292.653
295.996
298.487
300.27
301.486
302.262
302.7
302.881
302.868
302.711
302.449
302.114
301.733
301.33
300.926
300.545
300.205
299.931
299.75
299.674
299.793
299.698
230.434
227.955
226.74
224.856
222.59
220.046
217.957
216.436
215.396
214.52
213.904
213.384
213.041
212.876
212.932
212.899
212.737
212.694
212.767
212.791
212.691
212.699
212.759
212.689
212.776
212.781
212.947
213.469
213.711
215.915
223.528
236.143
242.921
242.449
241.49
241.495
244.999
252.378
258.954
261.747
263.378
264.726
265.953
267.033
267.939
268.16
268.753
271.525
276.985
283.233
288.748
293.188
296.655
299.254
301.117
302.39
303.209
303.679
303.882
303.883
303.733
303.473
303.135
302.746
302.33
301.91
301.506
301.139
300.833
300.609
300.497
300.511
300.733
300.783
230.533
227.971
226.747
224.902
222.628
220.121
217.944
216.441
215.398
214.512
213.859
213.384
213.087
212.878
212.858
212.898
212.801
212.683
212.7
212.807
212.712
212.675
212.742
212.722
212.758
212.865
213.091
213.815
214.375
216.328
222.558
235.178
243.887
244.093
243.031
242.473
245.237
251.498
258.922
262.076
263.717
265.057
266.262
267.309
268.173
268.347
268.867
271.594
277.014
283.32
289.059
293.683
297.276
299.983
301.925
303.268
304.142
304.649
304.879
304.898
304.757
304.5
304.16
303.765
303.339
302.903
302.48
302.087
301.749
301.487
301.328
301.299
301.415
301.75
301.949
230.58
228.214
226.848
224.95
222.637
220.166
217.932
216.446
215.387
214.512
213.846
213.359
213.108
212.909
212.825
212.858
212.857
212.697
212.624
212.807
212.79
212.682
212.688
212.796
212.761
212.947
213.31
214.214
215.157
216.838
222.116
233.976
244.327
245.801
244.644
243.616
245.651
250.696
258.844
262.288
263.999
265.331
266.514
267.525
268.347
268.48
268.921
271.648
277.034
283.366
289.26
294.123
297.853
300.658
302.695
304.116
305.049
305.603
305.867
305.906
305.78
305.529
305.189
304.79
304.354
303.905
303.463
303.047
302.679
302.381
302.179
302.096
302.163
302.393
302.846
303.194
230.593
228.345
227.087
225.093
222.636
220.161
217.919
216.462
215.37
214.518
213.848
213.34
213.104
212.957
212.831
212.782
212.858
212.78
212.599
212.765
212.861
212.719
212.578
212.849
212.773
213.029
213.62
214.706
216.041
217.735
222.338
232.629
244.483
247.568
246.304
244.889
246.127
250.078
258.275
262.362
264.228
265.539
266.696
267.674
268.458
268.554
268.943
271.439
277.071
283.433
289.371
294.465
298.368
301.277
303.42
304.922
305.922
306.531
306.835
306.906
306.798
306.558
306.222
305.819
305.376
304.916
304.456
304.018
303.623
303.291
303.047
302.916
302.925
303.099
303.448
304.019
304.51
232.061
228.308
227.167
225.238
222.66
220.138
217.887
216.474
215.364
214.513
213.866
213.361
213.068
212.964
212.888
212.775
212.8
212.822
212.605
212.671
212.844
212.826
212.51
212.859
212.844
213.174
214.023
215.316
217.011
218.838
222.673
231.476
244.136
249.246
247.987
246.223
246.668
249.636
257.611
262.41
264.403
265.672
266.804
267.752
268.51
268.579
268.944
271.313
276.748
283.51
289.478
294.653
298.801
301.849
304.091
305.681
306.756
307.426
307.779
307.886
307.805
307.581
307.252
306.852
306.403
305.931
305.458
304.999
304.579
304.214
303.932
303.754
303.708
303.819
304.108
304.581
305.266
305.89
232.327
229.413
227.09
225.291
222.73
220.13
217.883
216.446
215.372
214.513
213.863
213.402
213.072
212.927
212.91
212.814
212.689
212.827
212.738
212.683
212.811
212.927
212.47
212.834
213.105
213.407
214.547
216.066
218.064
220.091
223.233
230.596
243.811
250.596
249.668
247.628
247.409
249.794
256.734
262.38
264.469
265.716
266.836
267.769
268.515
268.568
268.858
271.159
276.529
283.299
289.615
294.779
299.102
302.369
304.699
306.384
307.537
308.275
308.687
308.841
308.793
308.593
308.279
307.883
307.434
306.954
306.467
305.991
305.546
305.152
304.832
304.61
304.512
304.562
304.783
305.192
305.785
306.577
307.321
248.05
233.644
228.234
225.165
222.779
220.141
217.936
216.425
215.359
214.542
213.858
213.414
213.115
212.905
212.893
212.894
212.674
212.755
212.839
212.696
212.633
212.956
212.495
212.81
213.398
213.768
215.203
216.964
219.206
221.414
224.015
229.996
243.432
251.468
251.356
249.1
248.253
249.937
255.762
262.04
264.452
265.711
266.836
267.767
268.511
268.528
268.759
270.967
276.276
283.11
289.64
295.02
299.194
302.766
305.262
307.024
308.265
309.073
309.551
309.759
309.756
309.588
309.296
308.91
308.463
307.98
307.482
306.99
306.523
306.102
305.748
305.483
305.335
305.327
305.484
305.821
306.349
307.058
307.944
308.794
249.69
246.604
233.359
226.195
222.706
220.151
218.089
216.438
215.355
214.552
213.896
213.402
213.133
212.939
212.813
212.912
212.737
212.669
212.853
212.803
212.493
212.964
212.75
212.872
213.762
214.305
216.008
218.009
220.436
222.809
225.132
230.605
242.534
251.828
253.066
250.617
249.173
250.235
254.729
261.493
264.258
265.554
266.693
267.619
268.358
268.398
268.604
270.725
275.97
282.874
289.516
295.17
299.531
302.795
305.758
307.605
308.931
309.819
310.359
310.632
310.682
310.554
310.292
309.927
309.489
309.008
308.502
307.996
307.51
307.063
306.676
306.372
306.177
306.113
306.206
306.475
306.931
307.574
308.386
309.356
310.298
249.615
248.866
245.829
232.819
224.249
220.138
218.204
216.439
215.39
214.547
213.931
213.43
213.114
212.986
212.803
212.869
212.862
212.666
212.762
212.923
212.435
212.858
213.12
212.977
214.21
215.046
216.977
219.203
221.758
224.262
226.466
231.053
241.523
252.118
254.774
252.172
250.13
250.582
253.761
260.689
263.98
265.344
266.508
267.453
268.202
268.239
268.421
270.464
275.643
282.592
289.367
295.179
299.844
303.241
305.72
308.198
309.514
310.506
311.117
311.448
311.56
311.486
311.263
310.926
310.506
310.03
309.523
309.007
308.504
308.034
307.617
307.277
307.036
306.919
306.951
307.153
307.539
308.11
308.859
309.764
310.803
311.827
249.598
248.824
247.22
243.868
232.351
222.706
218.352
216.448
215.473
214.604
213.913
213.503
213.108
212.979
212.887
212.796
212.883
212.746
212.541
212.956
212.605
212.798
213.502
213.412
214.785
215.996
218.127
220.54
223.178
225.764
227.972
231.86
240.405
252.269
256.201
253.77
251.088
250.927
252.932
259.644
263.554
265.068
266.279
267.252
268.021
268.069
268.233
270.203
275.312
282.297
289.192
295.136
299.933
303.673
306.252
308.108
310.194
311.087
311.823
312.214
312.381
312.368
312.195
311.896
311.504
311.043
310.541
310.021
309.505
309.014
308.57
308.194
307.911
307.743
307.716
307.853
308.169
308.671
309.35
310.195
311.18
312.28
313.373
249.567
248.811
247.127
244.997
242.324
232.182
221.901
217.027
215.665
214.692
213.926
213.484
213.247
212.91
212.935
212.807
212.749
212.866
212.459
212.846
213.019
212.792
213.888
214
215.565
217.173
219.47
222.016
224.695
227.306
229.584
232.774
239.383
252.223
257.273
255.279
251.992
251.212
252.298
258.4
262.989
264.723
266.004
267.027
267.826
267.887
268.045
269.949
274.983
281.995
289.009
295.082
299.986
303.828
306.772
308.693
310.062
311.835
312.397
312.934
313.155
313.193
313.08
312.832
312.474
312.04
311.551
311.033
310.508
310.002
309.533
309.125
308.801
308.586
308.503
308.576
308.824
309.255
309.866
310.645
311.572
312.628
313.777
314.936
249.555
248.782
247.11
244.878
242.716
241.153
232.71
222.508
216.916
215.047
214.115
213.38
213.3
212.91
212.869
212.972
212.607
212.891
212.653
212.764
213.418
213.019
214.339
214.879
216.616
218.588
221.013
223.626
226.305
228.9
231.182
233.771
238.496
252.015
257.929
256.674
252.983
251.453
251.874
257.029
262.269
264.325
265.695
266.779
267.616
267.699
267.856
269.7
274.661
281.692
288.828
295.025
300.033
303.954
306.977
309.274
310.679
311.669
313.195
313.505
313.884
313.97
313.906
313.716
313.407
313.007
312.541
312.033
311.51
310.992
310.505
310.068
309.707
309.446
309.309
309.321
309.501
309.862
310.403
311.117
311.984
312.985
314.1
315.292
316.513
249.576
248.765
247.072
244.853
242.596
241.329
241.551
233.887
224.025
217.559
215.034
213.649
213.15
213.236
212.77
213.001
212.74
212.731
213.14
212.747
213.838
213.773
215.031
216.111
218.031
220.242
222.741
225.363
228.001
230.538
232.784
235.023
238.929
251.038
258.231
257.966
253.975
251.659
251.628