/*--------------------------------*- C++ -*----------------------------------*\
| =========                 |                                                 |
| \\      /  F ield         | OpenFOAM: The Open Source CFD Toolbox           |
|  \\    /   O peration     | Version:  v2012                                 |
|   \\  /    A nd           | Website:  www.openfoam.com                      |
|    \\/     M anipulation  |                                                 |
\*---------------------------------------------------------------------------*/
FoamFile
{
    version     2.0;
    format      ascii;
    class       volScalarField;
    location    "12000";
    object      Fs;
}
// * * * * * * * * * * * * * * * * * * * * * * * * * * * * * * * * * * * * * //

dimensions      [0 0 0 0 0 0 0];


internalField   nonuniform List<scalar> 
27324
(
1.82134e-05
1.61406e-05
1.69285e-05
1.82461e-05
1.50325e-05
1.55029e-05
1.92356e-05
1.7017e-05
1.37724e-05
1.41163e-05
2.5448e-05
1.79767e-05
1.56411e-05
1.24959e-05
1.2819e-05
3.31843e-05
2.42354e-05
1.6617e-05
1.42958e-05
1.12732e-05
1.17265e-05
3.69502e-05
3.23699e-05
2.2925e-05
1.53269e-05
1.30864e-05
1.01648e-05
1.07792e-05
3.57489e-05
3.63143e-05
3.14019e-05
2.16205e-05
1.41426e-05
1.20229e-05
9.16944e-06
9.98013e-06
5.4877e-05
3.52233e-05
3.55807e-05
3.02382e-05
2.0229e-05
1.31625e-05
1.11778e-05
8.26696e-06
9.32167e-06
0.000364525
5.54813e-05
3.45462e-05
3.48076e-05
2.87831e-05
1.89443e-05
1.24798e-05
1.0446e-05
7.45541e-06
8.81851e-06
0.0559501
0.00042214
5.71429e-05
3.41023e-05
3.37388e-05
2.74101e-05
1.76876e-05
1.19744e-05
9.85679e-06
6.71712e-06
8.57505e-06
0.896537
0.0866015
0.000536931
5.90198e-05
3.46896e-05
3.26952e-05
2.56492e-05
1.62935e-05
1.17539e-05
9.30168e-06
6.18558e-06
8.64283e-06
0.257034
0.948878
0.158845
0.000729515
6.34726e-05
3.67318e-05
3.10212e-05
2.37975e-05
1.4788e-05
1.17585e-05
8.80818e-06
5.90674e-06
9.16734e-06
0.000498638
0.388277
0.977539
0.282321
0.00117398
7.1557e-05
4.01053e-05
2.97632e-05
2.17453e-05
1.33069e-05
1.19564e-05
8.18145e-06
6.2088e-06
1.01792e-05
6.78533e-05
0.000601245
0.523946
0.989778
0.486935
0.00222051
8.98171e-05
4.48206e-05
2.97516e-05
1.91591e-05
1.21467e-05
1.19923e-05
7.52007e-06
7.22556e-06
1.17849e-05
4.70325e-05
7.05977e-05
0.000727019
0.685439
0.994719
0.683242
0.0055306
0.000141193
4.87566e-05
3.16395e-05
1.60743e-05
1.18004e-05
1.1512e-05
6.77898e-06
9.70334e-06
1.36207e-05
4.12216e-05
4.64702e-05
7.37633e-05
0.000994857
0.816873
0.995812
0.823003
0.0201182
0.000339558
5.84233e-05
3.6103e-05
1.34988e-05
1.24404e-05
9.82247e-06
7.22869e-06
1.2777e-05
1.38121e-05
3.96454e-05
4.09844e-05
4.62254e-05
7.87944e-05
0.00152514
0.893999
0.994163
0.901599
0.11499
0.00155992
9.75824e-05
4.40366e-05
1.32805e-05
1.44216e-05
7.74074e-06
9.03481e-06
1.64395e-05
1.29e-05
3.93107e-05
3.92673e-05
4.07444e-05
4.62117e-05
8.57858e-05
0.00292163
0.925678
0.983797
0.926211
0.568795
0.0192408
0.000404341
6.51268e-05
1.97694e-05
2.10819e-05
7.71937e-06
1.65147e-05
2.75427e-05
2.1994e-05
3.96516e-05
3.88726e-05
3.87908e-05
4.062e-05
4.66663e-05
9.91299e-05
0.00729
0.93152
0.907261
0.891761
0.930095
0.443466
0.00940515
0.000338746
8.23606e-05
6.01595e-05
2.10453e-05
0.000218586
4.31808e-05
0.000955851
4.11668e-05
3.93117e-05
3.83638e-05
3.84041e-05
4.05273e-05
4.78004e-05
0.000129133
0.0249973
0.897681
0.445688
0.626875
0.974722
0.978924
0.669742
0.0424089
0.00762375
0.00262229
0.00583471
0.0183561
0.0938992
0.488574
4.20619e-05
4.08474e-05
3.88428e-05
3.79361e-05
3.78432e-05
4.02052e-05
4.96235e-05
0.000202887
0.112287
0.741592
0.0425353
0.0984546
0.880238
0.994601
0.995539
0.97283
0.928493
0.81876
0.971891
0.941749
0.997565
0.982644
4.24213e-05
4.18777e-05
4.04629e-05
3.83888e-05
3.74055e-05
3.73454e-05
4.06709e-05
5.30891e-05
0.000415821
0.437382
0.316815
0.00264201
0.00464484
0.0871075
0.746767
0.965782
0.981796
0.984647
0.979523
0.968902
0.902752
0.658186
0.888273
4.24815e-05
4.23565e-05
4.15885e-05
4.00658e-05
3.78457e-05
3.70278e-05
3.72835e-05
4.09918e-05
6.0761e-05
0.00142212
0.787685
0.0425671
0.000285911
0.000299773
0.000919408
0.0038255
0.014389
0.0349049
0.0478019
0.0321601
0.00992579
0.00194808
0.00945198
0.106361
4.23748e-05
4.25049e-05
4.21438e-05
4.12594e-05
3.95863e-05
3.75404e-05
3.68644e-05
3.70612e-05
4.17704e-05
7.89427e-05
0.00976292
0.878511
0.00366187
6.0623e-05
5.5632e-05
5.68979e-05
5.7305e-05
5.98735e-05
7.424e-05
8.88518e-05
8.89083e-05
7.71971e-05
0.00016524
0.0325079
0.00587703
4.23052e-05
4.22685e-05
4.22143e-05
4.18986e-05
4.08703e-05
3.94799e-05
3.70588e-05
3.6728e-05
3.72801e-05
4.33062e-05
0.000134235
0.124974
0.771029
0.000456813
2.53063e-05
2.72387e-05
2.08693e-05
1.12719e-05
8.19896e-06
9.31312e-06
1.47982e-05
2.66931e-05
5.00969e-05
0.00199301
0.0498211
0.000538869
4.26324e-05
4.21881e-05
4.2021e-05
4.19813e-05
4.16541e-05
4.0798e-05
3.87424e-05
3.68046e-05
3.67164e-05
3.81995e-05
4.63445e-05
0.000413944
0.701301
0.289829
0.000154424
2.86137e-05
2.50419e-05
1.50544e-05
7.4415e-06
6.2472e-06
9.0127e-06
1.75658e-05
3.41036e-05
0.000258008
0.031024
0.00608729
0.000154513
4.33488e-05
4.24606e-05
4.19739e-05
4.18123e-05
4.19685e-05
4.14612e-05
4.00954e-05
3.83163e-05
3.65549e-05
3.69528e-05
3.97261e-05
5.74236e-05
0.00354647
0.921272
0.0252483
0.000120925
4.2472e-05
2.5444e-05
1.09824e-05
6.59378e-06
7.73854e-06
1.48907e-05
3.04728e-05
7.56259e-05
0.00792627
0.0211056
0.000554832
8.55912e-05
4.47331e-05
4.31016e-05
4.22929e-05
4.18405e-05
4.18635e-05
4.16755e-05
4.09066e-05
3.97764e-05
3.76961e-05
3.66059e-05
3.73556e-05
4.22717e-05
9.9174e-05
0.0950969
0.834099
0.00150455
8.42532e-05
3.8183e-05
1.81274e-05
7.84986e-06
6.75996e-06
1.09264e-05
2.44474e-05
4.63945e-05
0.00101701
0.0457326
0.00165562
0.000141876
6.62742e-05
4.61255e-05
4.477e-05
4.30926e-05
4.22741e-05
4.16913e-05
4.15844e-05
4.12243e-05
4.07369e-05
3.9112e-05
3.72115e-05
3.67132e-05
3.83646e-05
4.56139e-05
0.000394338
0.789929
0.176909
0.000134361
4.43683e-05
2.70736e-05
1.0996e-05
6.27971e-06
8.21914e-06
1.71926e-05
3.66593e-05
0.000185815
0.0263753
0.00761483
0.000227822
8.0155e-05
6.1874e-05
4.78165e-05
4.60357e-05
4.46749e-05
4.3309e-05
4.21458e-05
4.11085e-05
4.1305e-05
4.10147e-05
4.01858e-05
3.84615e-05
3.66619e-05
3.74285e-05
4.01773e-05
5.87592e-05
0.00717801
0.943187
0.00578308
4.66804e-05
3.26295e-05
1.7823e-05
7.11773e-06
6.61406e-06
1.22946e-05
2.98296e-05
7.07288e-05
0.00524245
0.026584
0.000557361
9.22146e-05
6.71482e-05
6.46039e-05
4.90264e-05
4.77092e-05
4.62388e-05
4.43442e-05
4.31162e-05
4.16628e-05
4.12344e-05
4.09536e-05
4.06622e-05
3.96091e-05
3.76187e-05
3.64873e-05
3.83111e-05
4.29394e-05
0.000135116
0.353611
0.710278
0.000565553
4.55192e-05
2.84513e-05
1.04154e-05
6.08543e-06
8.98628e-06
2.16987e-05
4.8212e-05
0.000753288
0.0420241
0.00183712
0.000130469
6.76426e-05
6.87555e-05
6.70612e-05
4.99779e-05
4.90029e-05
4.79192e-05
4.64458e-05
4.41597e-05
4.25713e-05
4.19102e-05
4.09889e-05
4.09159e-05
4.02881e-05
3.88873e-05
3.67658e-05
3.64306e-05
3.97055e-05
4.92252e-05
0.0013724
0.928224
0.0387606
0.000133334
4.08558e-05
1.81438e-05
6.80057e-06
6.9654e-06
1.56175e-05
3.80678e-05
0.000163697
0.0215608
0.00731043
0.000223656
7.56955e-05
6.5903e-05
7.23789e-05
5.99734e-05
4.99949e-05
4.99022e-05
4.9162e-05
4.81124e-05
4.60733e-05
4.4364e-05
4.27849e-05
4.15311e-05
4.11464e-05
4.07118e-05
3.98763e-05
3.79751e-05
3.58209e-05
3.70438e-05
4.1899e-05
8.28779e-05
0.107393
0.829283
0.000864738
5.15089e-05
2.97387e-05
9.59279e-06
6.05337e-06
1.09651e-05
2.90468e-05
6.97062e-05
0.00438704
0.0233104
0.000508532
9.10844e-05
6.73725e-05
6.92393e-05
6.48271e-05
4.5291e-05
4.87543e-05
4.99563e-05
5.01068e-05
4.92883e-05
4.79817e-05
4.635e-05
4.44848e-05
4.2523e-05
4.18473e-05
4.10895e-05
4.05901e-05
3.92372e-05
3.69221e-05
3.55612e-05
3.82659e-05
4.53331e-05
0.000584137
0.893258
0.0713895
0.000111909
3.8733e-05
1.6424e-05
6.29857e-06
8.07257e-06
2.046e-05
4.54599e-05
0.000689744
0.0363058
0.00155036
0.00012442
7.04956e-05
6.84617e-05
6.33807e-05
4.76255e-05
3.0508e-05
4.64191e-05
4.82232e-05
5.01015e-05
5.00126e-05
4.94618e-05
4.82715e-05
4.66447e-05
4.42237e-05
4.29104e-05
4.17352e-05
4.13614e-05
4.03635e-05
3.85616e-05
3.59985e-05
3.58361e-05
4.03472e-05
6.6992e-05
0.0514928
0.872216
0.0014365
5.54041e-05
2.8718e-05
8.46486e-06
6.43237e-06
1.36518e-05
3.44109e-05
0.000159036
0.0210147
0.005649
0.00020279
7.76299e-05
6.71914e-05
6.31124e-05
4.68488e-05
3.11118e-05
1.90052e-05
4.4119e-05
4.60841e-05
4.77237e-05
5.02769e-05
5.00581e-05
4.99716e-05
4.83062e-05
4.62789e-05
4.44214e-05
4.28814e-05
4.20547e-05
4.15275e-05
4.03245e-05
3.77761e-05
3.54486e-05
3.77351e-05
4.38363e-05
0.000447238
0.857448
0.0846658
0.000142062
4.22704e-05
1.45e-05
5.94942e-06
9.27102e-06
2.47701e-05
6.66392e-05
0.00517519
0.0179476
0.000417732
9.16435e-05
6.69397e-05
6.13153e-05
4.68428e-05
3.08681e-05
1.85301e-05
1.18261e-05
4.20716e-05
4.40071e-05
4.64695e-05
4.82015e-05
5.07175e-05
5.06638e-05
4.97424e-05
4.82921e-05
4.66764e-05
4.44282e-05
4.32441e-05
4.25132e-05
4.20764e-05
4.00901e-05
3.71582e-05
3.62241e-05
4.09613e-05
6.64063e-05
0.0496174
0.854202
0.00119471
6.00119e-05
2.6707e-05
6.83857e-06
6.5714e-06
1.67769e-05
4.31068e-05
0.000922637
0.0322511
0.00112001
0.000119217
6.87257e-05
5.86332e-05
4.62216e-05
3.03575e-05
1.89186e-05
1.10605e-05
8.18975e-06
4.097e-05
4.20407e-05
4.3651e-05
4.62563e-05
4.91226e-05
5.08806e-05
5.0695e-05
5.00005e-05
4.84655e-05
4.62459e-05
4.50746e-05
4.3757e-05
4.34064e-05
4.24797e-05
3.98446e-05
3.718e-05
3.83234e-05
4.56726e-05
0.000566162
0.870457
0.0571798
0.000131386
4.13322e-05
1.01006e-05
5.1871e-06
1.11247e-05
3.2125e-05
0.000210313
0.0244408
0.00365392
0.000178851
7.38594e-05
5.54812e-05
4.50585e-05
2.96932e-05
1.89657e-05
1.18975e-05
7.36639e-06
6.44565e-06
4.08368e-05
4.1282e-05
4.19188e-05
4.38293e-05
4.5848e-05
4.87933e-05
5.09406e-05
5.07606e-05
4.99248e-05
4.83951e-05
4.62522e-05
4.50032e-05
4.45944e-05
4.42267e-05
4.29081e-05
3.9591e-05
3.85273e-05
4.33061e-05
8.01167e-05
0.0951065
0.773036
0.000836589
5.70139e-05
1.7668e-05
4.96052e-06
7.45984e-06
2.35006e-05
8.08491e-05
0.00802679
0.0116444
0.000325225
8.38058e-05
5.30272e-05
4.29946e-05
2.88944e-05
1.8806e-05
1.20599e-05
8.15157e-06
5.63051e-06
5.65959e-06
4.23777e-05
4.15222e-05
4.12706e-05
4.22007e-05
4.38487e-05
4.60325e-05
4.86317e-05
5.09304e-05
5.06011e-05
4.97436e-05
4.80379e-05
4.62497e-05
4.53491e-05
4.53173e-05
4.50566e-05
4.29082e-05
3.95706e-05
4.15156e-05
5.15817e-05
0.00113809
0.894735
0.0216533
9.42366e-05
2.97629e-05
6.24994e-06
5.44721e-06
1.59333e-05
4.7202e-05
0.0016583
0.0256166
0.000740243
0.000103013
5.1719e-05
3.98197e-05
2.80415e-05
1.83308e-05
1.22498e-05
8.3073e-06
6.31322e-06
4.85365e-06
5.36671e-06
4.48409e-05
4.33025e-05
4.18532e-05
4.12714e-05
4.21735e-05
4.36493e-05
4.65652e-05
4.86423e-05
5.0709e-05
5.02181e-05
4.92341e-05
4.7519e-05
4.63092e-05
4.57573e-05
4.60282e-05
4.54314e-05
4.17643e-05
4.07908e-05
4.62519e-05
0.000110612
0.25821
0.534944
0.000362152
4.10625e-05
1.03734e-05
4.51401e-06
1.05485e-05
3.40173e-05
0.000359961
0.0282479
0.00206842
0.000141407
5.18855e-05
3.633e-05
2.7151e-05
1.7863e-05
1.23351e-05
8.58491e-06
6.41459e-06
5.46965e-06
4.55381e-06
5.34341e-06
4.80795e-05
4.5154e-05
4.35e-05
4.1717e-05
4.08782e-05
4.1885e-05
4.36445e-05
4.64573e-05
4.87575e-05
5.01044e-05
4.93791e-05
4.83941e-05
4.69138e-05
4.5978e-05
4.61249e-05
4.64642e-05
4.43805e-05
4.0626e-05
4.40193e-05
5.52352e-05
0.00381071
0.890212
0.00475149
6.47892e-05
1.93868e-05
4.63288e-06
7.08778e-06
2.44065e-05
0.000115895
0.0140597
0.00628019
0.00022399
5.46229e-05
3.30168e-05
2.60847e-05
1.73001e-05
1.22939e-05
8.83752e-06
6.66566e-06
5.52168e-06
5.15395e-06
4.48901e-06
5.40341e-06
5.13321e-05
4.76652e-05
4.53864e-05
4.31461e-05
4.13743e-05
4.10577e-05
4.16603e-05
4.37933e-05
4.62151e-05
4.84779e-05
4.88881e-05
4.8395e-05
4.713e-05
4.56522e-05
4.52347e-05
4.6085e-05
4.55566e-05
4.19542e-05
4.08848e-05
4.65357e-05
0.000194515
0.5829
0.148283
0.000150163
3.24434e-05
6.23714e-06
5.10961e-06
1.66168e-05
5.72676e-05
0.00379529
0.0162555
0.0004211
6.17939e-05
3.03e-05
2.47018e-05
1.66817e-05
1.21263e-05
9.06012e-06
6.92891e-06
5.71694e-06
5.17405e-06
5.11239e-06
4.48612e-06
3.57168e-06
5.32204e-05
4.94884e-05
4.77104e-05
4.52848e-05
4.30873e-05
4.15079e-05
4.09665e-05
4.20576e-05
4.40972e-05
4.61437e-05
4.77399e-05
4.73452e-05
4.70097e-05
4.49952e-05
4.39937e-05
4.4453e-05
4.50632e-05
4.27007e-05
3.84857e-05
4.15115e-05
6.0165e-05
0.0226796
0.767376
0.000982533
4.85397e-05
1.07795e-05
4.21121e-06
1.04291e-05
3.77346e-05
0.000840302
0.0263583
0.000948238
7.70806e-05
2.84531e-05
2.30374e-05
1.60246e-05
1.1842e-05
9.23592e-06
7.21549e-06
5.93151e-06
5.32407e-06
5.12205e-06
5.13406e-06
3.0689e-06
2.36947e-06
5.19522e-05
5.04342e-05
4.88236e-05
4.7582e-05
4.54958e-05
4.32499e-05
4.12604e-05
4.14427e-05
4.23516e-05
4.44105e-05
4.62318e-05
4.68825e-05
4.55197e-05
4.45811e-05
4.29027e-05
4.23352e-05
4.30192e-05
4.22184e-05
3.80567e-05
3.67225e-05
4.36887e-05
0.000588691
0.795955
0.0186224
8.44556e-05
2.01559e-05
4.2131e-06
7.07854e-06
2.64819e-05
0.000226081
0.021589
0.00246195
0.00010794
2.81291e-05
2.11394e-05
1.5337e-05
1.14787e-05
9.34005e-06
7.51078e-06
6.19624e-06
5.48426e-06
5.2565e-06
5.15431e-06
3.85607e-06
1.96783e-06
1.77259e-06
4.98645e-05
4.84413e-05
4.94199e-05
4.89344e-05
4.77518e-05
4.55067e-05
4.30646e-05
4.17056e-05
4.18522e-05
4.30194e-05
4.46393e-05
4.63014e-05
4.57945e-05
4.34527e-05
4.22128e-05
4.07015e-05
4.04454e-05
4.06381e-05
3.80788e-05
3.47498e-05
3.8386e-05
8.63085e-05
0.192407
0.356236
0.000260886
3.33281e-05
5.5325e-06
4.93773e-06
1.79359e-05
9.08124e-05
0.00901399
0.00647312
0.000172657
2.9512e-05
1.90804e-05
1.46007e-05
1.10733e-05
9.36993e-06
7.78658e-06
6.50048e-06
5.68926e-06
5.388e-06
5.30652e-06
4.15767e-06
2.40373e-06
1.49837e-06
1.45595e-06
4.56522e-05
4.66954e-05
4.8053e-05
4.98508e-05
4.91757e-05
4.75465e-05
4.53047e-05
4.34171e-05
4.2027e-05
4.25776e-05
4.37289e-05
4.53328e-05
4.62665e-05
4.44582e-05
4.18651e-05
3.99613e-05
3.87056e-05
3.90848e-05
3.84431e-05
3.43139e-05
3.48209e-05
4.6463e-05
0.00530043
0.807514
0.00205762
5.1714e-05
9.27899e-06
3.94332e-06
1.15559e-05
4.866e-05
0.00243083
0.0133509
0.000325703
3.36365e-05
1.70826e-05
1.38198e-05
1.06616e-05
9.32173e-06
8.02532e-06
6.82795e-06
5.94478e-06
5.54976e-06
5.44661e-06
4.6102e-06
2.4961e-06
1.77545e-06
1.23124e-06
1.28248e-06
4.23136e-05
4.43557e-05
4.58048e-05
4.79509e-05
4.97328e-05
4.85768e-05
4.73668e-05
4.55264e-05
4.35483e-05
4.27282e-05
4.3653e-05
4.50129e-05
4.67231e-05
4.59026e-05
4.3375e-05
4.04956e-05
3.84522e-05
3.81676e-05
3.89637e-05
3.62933e-05
3.37067e-05
4.05228e-05
0.000306175
0.673787
0.0377373
9.65978e-05
1.72044e-05
3.74569e-06
7.57598e-06
3.20149e-05
0.000602953
0.0171732
0.000705195
4.13644e-05
1.52e-05
1.30023e-05
1.02862e-05
9.19428e-06
8.215e-06
7.16594e-06
6.24913e-06
5.74702e-06
5.60903e-06
5.1016e-06
2.67872e-06
1.85757e-06
1.4407e-06
1.01711e-06
1.30548e-06
3.97412e-05
4.29089e-05
4.41901e-05
4.60356e-05
4.74861e-05
4.89327e-05
4.86652e-05
4.73299e-05
4.5446e-05
4.38733e-05
4.37964e-05
4.51827e-05
4.71927e-05
4.78874e-05
4.56753e-05
4.2648e-05
4.01427e-05
3.84512e-05
3.95723e-05
3.88952e-05
3.52971e-05
3.90261e-05
7.70742e-05
0.0955144
0.436931
0.000314132
2.9306e-05
4.5481e-06
5.26395e-06
2.11034e-05
0.00018206
0.0121151
0.00160869
5.67051e-05
1.40459e-05
1.22244e-05
9.9557e-06
9.00472e-06
8.34266e-06
7.49181e-06
6.60166e-06
5.98888e-06
5.79299e-06
5.67198e-06
2.88833e-06
1.98953e-06
1.50755e-06
1.20593e-06
9.52836e-07
1.50004e-06
3.9503e-05
4.26335e-05
4.32334e-05
4.4221e-05
4.55883e-05
4.77987e-05
4.89228e-05
4.84041e-05
4.70101e-05
4.54103e-05
4.45193e-05
4.53023e-05
4.73347e-05
4.93558e-05
4.87959e-05
4.58613e-05
4.29098e-05
4.06407e-05
4.05404e-05
4.15888e-05
3.84049e-05
3.76491e-05
4.91114e-05
0.00327796
0.77305
0.00237326
4.83725e-05
7.0531e-06
4.03468e-06
1.37307e-05
7.27652e-05
0.00487561
0.00337361
9.12091e-05
1.39824e-05
1.15207e-05
9.66175e-06
8.7571e-06
8.41093e-06
7.78404e-06
6.98923e-06
6.28812e-06
6.00101e-06
5.93633e-06
3.1374e-06
2.12608e-06
1.60945e-06
1.24824e-06
1.14749e-06
1.01943e-06
1.80609e-06
4.1411e-05
4.25644e-05
4.30361e-05
4.32332e-05
4.38299e-05
4.50027e-05
4.72606e-05
4.87546e-05
4.7592e-05
4.65574e-05
4.54248e-05
4.53093e-05
4.7196e-05
4.96949e-05
5.13765e-05
4.98257e-05
4.6388e-05
4.35028e-05
4.21494e-05
4.35679e-05
4.20005e-05
3.71125e-05
4.22841e-05
0.000261227
0.575211
0.0378842
8.9562e-05
1.27005e-05
3.57144e-06
8.61526e-06
3.7756e-05
0.00137454
0.00556331
0.000168875
1.48105e-05
1.08506e-05
9.36501e-06
8.48171e-06
8.4169e-06
8.04095e-06
7.38487e-06
6.64976e-06
6.24576e-06
6.11803e-06
3.4301e-06
2.28433e-06
1.7169e-06
1.31655e-06
1.17344e-06
1.25323e-06
1.1585e-06
2.20546e-06
4.56363e-05
4.39536e-05
4.34659e-05
4.30263e-05
4.32359e-05
4.37319e-05
4.5111e-05
4.61046e-05
4.75377e-05
4.6721e-05
4.60512e-05
4.50687e-05
4.63667e-05
4.92282e-05
5.18951e-05
5.32878e-05
5.01319e-05
4.65358e-05
4.41197e-05
4.40152e-05
4.41165e-05
3.79432e-05
3.83236e-05
7.2976e-05
0.0769889
0.384481
0.000273704
2.2805e-05
3.77004e-06
5.92602e-06
2.05072e-05
0.000367085
0.00624338
0.000334414
1.97028e-05
9.99906e-06
9.03162e-06
8.20979e-06
8.37288e-06
8.25171e-06
7.77025e-06
7.06687e-06
6.5428e-06
6.32339e-06
3.77396e-06
2.46574e-06
1.83954e-06
1.39096e-06
1.2248e-06
1.2769e-06
1.45507e-06
1.35373e-06
2.69544e-06
4.92376e-05
4.5784e-05
4.46016e-05
4.38524e-05
4.32447e-05
4.34415e-05
4.38316e-05
4.5119e-05
4.561e-05
4.62607e-05
4.5626e-05
4.47718e-05
4.48958e-05
4.74939e-05
5.09377e-05
5.40895e-05
5.27199e-05
4.89391e-05
4.58679e-05
4.33477e-05
4.41895e-05
3.93529e-05
3.51602e-05
4.5757e-05
0.00344687
0.728296
0.00172079
3.96153e-05
4.99743e-06
4.27926e-06
1.19535e-05
0.000119325
0.00427017
0.000678598
3.0136e-05
9.23332e-06
8.65475e-06
7.98845e-06
8.27851e-06
8.42194e-06
8.11608e-06
7.52575e-06
6.90291e-06
6.56054e-06
4.17511e-06
2.6777e-06
1.97821e-06
1.47722e-06
1.27894e-06
1.32851e-06
1.48296e-06
1.72896e-06
1.60673e-06
3.28946e-06
5.11144e-05
4.70252e-05
4.58524e-05
4.48236e-05
4.41545e-05
4.37198e-05
4.37513e-05
4.42196e-05
4.45353e-05
4.5159e-05
4.49402e-05
4.38841e-05
4.35035e-05
4.48685e-05
4.80021e-05
5.18652e-05
5.40376e-05
4.98756e-05
4.64616e-05
4.22312e-05
4.26289e-05
4.04932e-05
3.40349e-05
3.85129e-05
0.000308154
0.580328
0.0235999
7.27642e-05
8.03252e-06
3.43407e-06
7.5838e-06
4.5654e-05
0.00182228
0.00124823
4.70141e-05
8.794e-06
8.26094e-06
7.84382e-06
8.14886e-06
8.54589e-06
8.42401e-06
7.99403e-06
7.34303e-06
6.84004e-06
4.63891e-06
2.926e-06
2.13573e-06
1.57488e-06
1.34031e-06
1.38195e-06
1.54332e-06
1.76348e-06
2.0781e-06
1.93133e-06
4.00872e-06
5.00247e-05
4.81346e-05
4.68322e-05
4.58224e-05
4.49076e-05
4.45396e-05
4.42935e-05
4.42395e-05
4.4056e-05
4.43867e-05
4.43831e-05
4.32061e-05
4.23756e-05
4.23228e-05
4.44119e-05
4.80481e-05
5.14984e-05
5.06719e-05
4.62583e-05
4.14157e-05
4.06219e-05
4.10376e-05
3.48826e-05
3.50877e-05
8.29987e-05
0.118032
0.24878
0.0001946
1.42575e-05
3.03231e-06
4.79225e-06
1.9232e-05
0.000571541
0.0017731
8.28754e-05
8.99517e-06
7.90914e-06
7.78409e-06
7.9913e-06
8.61797e-06
8.6957e-06
8.44181e-06
7.85422e-06
7.18991e-06
5.17183e-06
3.21355e-06
2.31542e-06
1.68507e-06
1.40934e-06
1.44195e-06
1.60577e-06
1.83659e-06
2.11878e-06
2.519e-06
2.34906e-06
4.88243e-06
4.65806e-05
4.79666e-05
4.75383e-05
4.6668e-05
4.55899e-05
4.52636e-05
4.4944e-05
4.47347e-05
4.43623e-05
4.46184e-05
4.43211e-05
4.3236e-05
4.16085e-05
4.10242e-05
4.11932e-05
4.42368e-05
4.77849e-05
4.95755e-05
4.55845e-05
4.14719e-05
3.93859e-05
4.10605e-05
3.70769e-05
3.30599e-05
4.89643e-05
0.00713122
0.648582
0.000964317
2.4107e-05
3.10222e-06
3.48849e-06
8.36974e-06
0.000167825
0.00180118
0.000158076
1.03798e-05
7.7034e-06
7.77748e-06
7.83809e-06
8.62332e-06
8.94261e-06
8.84554e-06
8.41589e-06
7.63537e-06
5.7836e-06
3.54159e-06
2.51916e-06
1.80971e-06
1.48629e-06
1.50863e-06
1.67591e-06
1.91213e-06
2.20681e-06
2.56262e-06
3.07561e-06
2.88772e-06
5.94216e-06
4.43693e-05
4.68787e-05
4.77621e-05
4.72689e-05
4.6323e-05
4.5667e-05
4.571e-05
4.58002e-05
4.52029e-05
4.52925e-05
4.52033e-05
4.43467e-05
4.24303e-05
4.04682e-05
3.99328e-05
4.1071e-05
4.42763e-05
4.77648e-05
4.58945e-05
4.17792e-05
3.94693e-05
4.07124e-05
3.95252e-05
3.38394e-05
4.05771e-05
0.000610864
0.630744
0.00912455
4.58243e-05
3.85286e-06
2.61827e-06
4.16893e-06
5.78561e-05
0.00128429
0.000293388
1.60545e-05
7.57977e-06
7.75902e-06
7.72048e-06
8.56783e-06
9.16257e-06
9.21699e-06
8.97842e-06
8.1997e-06
6.49189e-06
3.90665e-06
2.75138e-06
1.95151e-06
1.57366e-06
1.58177e-06
1.75333e-06
1.99665e-06
2.29662e-06
2.66672e-06
3.11956e-06
3.77791e-06
3.5811e-06
7.22091e-06
4.25555e-05
4.48688e-05
4.68328e-05
4.76461e-05
4.69113e-05
4.61494e-05
4.56508e-05
4.59694e-05
4.62596e-05
4.67457e-05
4.6217e-05
4.57787e-05
4.43241e-05
4.23626e-05
4.01039e-05
3.99608e-05
4.22496e-05
4.56298e-05
4.7118e-05
4.3891e-05
4.12823e-05
4.02525e-05
4.16637e-05
3.6049e-05
3.68947e-05
0.00012906
0.230736
0.104109
0.000103883
5.6663e-06
2.0543e-06
2.34538e-06
2.18285e-05
0.000630022
0.000495097
2.7685e-05
7.50063e-06
7.66743e-06
7.66577e-06
8.4734e-06
9.3506e-06
9.57028e-06
9.50666e-06
8.86672e-06
7.32966e-06
4.30251e-06
3.01599e-06
2.11452e-06
1.67419e-06
1.66408e-06
1.83953e-06
2.09101e-06
2.39871e-06
2.77275e-06
3.2402e-06
3.81784e-06
4.6615e-06
4.46399e-06
8.73843e-06
4.48209e-05
4.39367e-05
4.5083e-05
4.67401e-05
4.75339e-05
4.66128e-05
4.58138e-05
4.53197e-05
4.62099e-05
4.72732e-05
4.77678e-05
4.70277e-05
4.63262e-05
4.48625e-05
4.24912e-05
4.08786e-05
4.18814e-05
4.50687e-05
4.84598e-05
4.68322e-05
4.46039e-05
4.04915e-05
4.30158e-05
3.95095e-05
3.4472e-05
5.79989e-05
0.0221021
0.456769
0.000397665
9.11544e-06
1.69369e-06
1.50274e-06
7.93566e-06
0.000239338
0.000681238
4.65297e-05
7.66901e-06
7.52482e-06
7.70752e-06
8.37505e-06
9.48031e-06
9.93353e-06
9.98339e-06
9.59737e-06
8.32902e-06
4.73025e-06
3.31816e-06
2.30576e-06
1.7923e-06
1.75957e-06
1.93727e-06
2.19662e-06
2.51327e-06
2.89301e-06
3.36122e-06
3.95662e-06
4.69097e-06
5.7564e-06
5.57385e-06
1.05122e-05
4.76655e-05
4.47058e-05
4.42429e-05
4.53446e-05
4.6946e-05
4.73533e-05
4.63901e-05
4.50871e-05
4.53282e-05
4.67329e-05
4.80983e-05
4.85429e-05
4.78047e-05
4.73535e-05
4.51775e-05
4.34204e-05
4.31102e-05
4.5427e-05
4.92018e-05
5.05352e-05
4.74873e-05
4.15025e-05
4.32741e-05
4.25568e-05
3.36972e-05
4.09006e-05
0.00187742
0.617419
0.00270313
1.58285e-05
1.5371e-06
1.0332e-06
3.10226e-06
8.63673e-05
0.000686523
8.63195e-05
8.62862e-06
7.42172e-06
7.84421e-06
8.31886e-06
9.53381e-06
1.03038e-05
1.04338e-05
1.03113e-05
9.50691e-06
5.22055e-06
3.6616e-06
2.53332e-06
1.93498e-06
1.87242e-06
2.05042e-06
2.31784e-06
2.64269e-06
3.02925e-06
3.50193e-06
4.09346e-06
4.84696e-06
5.77106e-06
7.09466e-06
6.94277e-06
1.25294e-05
4.84151e-05
4.61588e-05
4.46119e-05
4.45232e-05
4.54373e-05
4.72245e-05
4.74022e-05
4.53466e-05
4.46866e-05
4.53016e-05
4.71693e-05
4.85272e-05
4.87987e-05
4.86801e-05
4.7555e-05
4.55017e-05
4.50777e-05
4.52261e-05
4.90331e-05
5.25052e-05
4.9658e-05
4.30282e-05
4.27635e-05
4.40275e-05
3.50271e-05
3.40746e-05
0.000287967
0.402619
0.0277401
3.03176e-05
1.56008e-06
7.51265e-07
1.50602e-06
3.26092e-05
0.00049641
0.000155823
1.11677e-05
7.4983e-06
8.04346e-06
8.3263e-06
9.5368e-06
1.0644e-05
1.09075e-05
1.09583e-05
1.03693e-05
5.83939e-06
4.04917e-06
2.80502e-06
2.10781e-06
2.00768e-06
2.18372e-06
2.4583e-06
2.79128e-06
3.18429e-06
3.66084e-06
4.25188e-06
4.99841e-06
5.94328e-06
7.08588e-06
8.68931e-06
8.59174e-06
1.47693e-05
4.68823e-05
4.73376e-05
4.57954e-05
4.44988e-05
4.48215e-05
4.57796e-05
4.79135e-05
4.61281e-05
4.50319e-05
4.41278e-05
4.53673e-05
4.74742e-05
4.82922e-05
4.86465e-05
4.80485e-05
4.671e-05
4.62445e-05
4.51362e-05
4.75691e-05
5.19062e-05
5.08646e-05
4.44469e-05
4.23165e-05
4.37838e-05
3.72713e-05
3.07214e-05
9.08856e-05
0.0918989
0.160488
8.93222e-05
1.77274e-06
5.83892e-07
8.17534e-07
1.24832e-05
0.000268325
0.000264371
1.93147e-05
7.68772e-06
8.22225e-06
8.42522e-06
9.52593e-06
1.09192e-05
1.14386e-05
1.15328e-05
1.12448e-05
6.64131e-06
4.48833e-06
3.12221e-06
2.31447e-06
2.1692e-06
2.34132e-06
2.62168e-06
2.96267e-06
3.36196e-06
3.84171e-06
4.43378e-06
5.17606e-06
6.10781e-06
7.27283e-06
8.65436e-06
1.05512e-05
1.05278e-05
1.71928e-05
4.52617e-05
4.68718e-05
4.71556e-05
4.58581e-05
4.43834e-05
4.52431e-05
4.68032e-05
4.73275e-05
4.60336e-05
4.41321e-05
4.37202e-05
4.55965e-05
4.73716e-05
4.81352e-05
4.72465e-05
4.62754e-05
4.60728e-05
4.48665e-05
4.62496e-05
5.01089e-05
5.08374e-05
4.58106e-05
4.26226e-05
4.23553e-05
3.98669e-05
2.93992e-05
4.91382e-05
0.0101042
0.382169
0.000424683
2.24975e-06
4.86498e-07
5.11518e-07
4.61287e-06
0.000121357
0.000391145
3.56126e-05
7.97183e-06
8.3315e-06
8.62887e-06
9.56101e-06
1.1108e-05
1.20105e-05
1.20982e-05
1.20543e-05
7.64413e-06
5.01139e-06
3.47673e-06
2.55818e-06
2.35916e-06
2.52704e-06
2.81213e-06
3.16054e-06
3.56748e-06
4.05007e-06
4.64239e-06
5.37897e-06
6.30328e-06
7.4483e-06
8.85391e-06
1.04865e-05
1.26649e-05
1.27403e-05
1.97421e-05
4.45966e-05
4.55232e-05
4.70897e-05
4.70348e-05
4.58242e-05
4.46064e-05
4.54342e-05
4.72287e-05
4.78784e-05
4.52583e-05
4.32085e-05
4.38287e-05
4.6e-05
4.75556e-05
4.70959e-05
4.55281e-05
4.50615e-05
4.41806e-05
4.50365e-05
4.74582e-05
4.99253e-05
4.75002e-05
4.39109e-05
4.09341e-05
4.1776e-05
3.14752e-05
3.60008e-05
0.00130885
0.387948
0.00267511
4.26832e-06
4.33637e-07
3.53908e-07
1.91423e-06
5.37031e-05
0.000455905
5.92745e-05
8.69949e-06
8.43469e-06
8.95807e-06
9.68382e-06
1.12431e-05
1.25468e-05
1.27575e-05
1.27266e-05
8.80936e-06
5.68786e-06
3.86578e-06
2.84038e-06
2.58284e-06
2.74454e-06
3.03438e-06
3.39042e-06
3.80322e-06
4.28984e-06
4.88068e-06
5.61337e-06
6.52739e-06
7.65696e-06
9.03715e-06
1.06914e-05
1.25688e-05
1.5001e-05
1.51932e-05
2.2353e-05
4.54001e-05
4.45289e-05
4.53742e-05
4.73363e-05
4.7022e-05
4.55678e-05
4.4439e-05
4.58614e-05
4.84788e-05
4.73107e-05
4.45105e-05
4.25708e-05
4.44906e-05
4.68512e-05
4.72934e-05
4.54377e-05
4.42505e-05
4.36306e-05
4.43936e-05
4.55065e-05
4.82381e-05
4.90397e-05
4.61895e-05
4.00188e-05
4.27255e-05
3.51325e-05
2.99118e-05
0.000276281
0.16713
0.0187112
9.43796e-06
3.79391e-07
2.62221e-07
9.33056e-07
2.40646e-05
0.000379222
0.000103461
1.08693e-05
8.68267e-06
9.40511e-06
9.92436e-06
1.13811e-05
1.29761e-05
1.35389e-05
1.33344e-05
9.98992e-06
6.59423e-06
4.31638e-06
3.1609e-06
2.84729e-06
3.00063e-06
3.29563e-06
3.65745e-06
4.07295e-06
4.56254e-06
5.15352e-06
5.88204e-06
6.78451e-06
7.89866e-06
9.25574e-06
1.08746e-05
1.27733e-05
1.48738e-05
1.75145e-05
1.78356e-05
2.49598e-05
4.56241e-05
4.48991e-05
4.48096e-05
4.52789e-05
4.76358e-05
4.68699e-05
4.47378e-05
4.4571e-05
4.66594e-05
4.91969e-05
4.67094e-05
4.35929e-05
4.27679e-05
4.56094e-05
4.79536e-05
4.65463e-05
4.43085e-05
4.34194e-05
4.45381e-05
4.48123e-05
4.69848e-05
5.00768e-05
4.81291e-05
4.03796e-05
4.26515e-05
3.95785e-05
2.71139e-05
9.16425e-05
0.0317784
0.0656165
3.19681e-05
3.48923e-07
2.06667e-07
5.08675e-07
9.4863e-06
0.000232922
0.000172063
1.59106e-05
9.19693e-06
9.92443e-06
1.02768e-05
1.15865e-05
1.32748e-05
1.4375e-05
1.40439e-05
1.10169e-05
7.75058e-06
4.9018e-06
3.5212e-06
3.16176e-06
3.30846e-06
3.60521e-06
3.96911e-06
4.38528e-06
4.87408e-06
5.46338e-06
6.187e-06
7.07926e-06
8.17775e-06
9.5101e-06
1.11003e-05
1.29523e-05
1.50735e-05
1.73589e-05
2.01438e-05
2.05961e-05
2.74914e-05
4.60819e-05
4.53435e-05
4.48039e-05
4.49476e-05
4.57147e-05
4.78317e-05
4.61683e-05
4.46585e-05
4.49918e-05
4.7499e-05
4.99448e-05
4.59372e-05
4.29763e-05
4.39996e-05
4.75883e-05
4.84757e-05
4.58403e-05
4.35432e-05
4.47215e-05
4.55171e-05
4.65937e-05
4.96632e-05
4.93604e-05
4.16385e-05
4.19228e-05
4.29993e-05
2.65852e-05
4.36185e-05
0.00418308
0.107245
0.00015275
4.06776e-07
1.77374e-07
3.20143e-07
3.87075e-06
0.000120803
0.000286457
2.8091e-05
9.78436e-06
1.04286e-05
1.0758e-05
1.18917e-05
1.35259e-05
1.51198e-05
1.50177e-05
1.18886e-05
9.02929e-06
5.75113e-06
3.94358e-06
3.53669e-06
3.68643e-06
3.98037e-06
4.33978e-06
4.75213e-06
5.23346e-06
5.81531e-06
6.53161e-06
7.41478e-06
8.49671e-06
9.80508e-06
1.13615e-05
1.31777e-05
1.52427e-05
1.75451e-05
1.99619e-05
2.28185e-05
2.33945e-05
2.98946e-05
4.56677e-05
4.48662e-05
4.53988e-05
4.48511e-05
4.48861e-05
4.6097e-05
4.73527e-05
4.63225e-05
4.42824e-05
4.54659e-05
4.91209e-05
4.90459e-05
4.5154e-05
4.27452e-05
4.61836e-05
4.97408e-05
4.81742e-05
4.40347e-05
4.4116e-05
4.58873e-05
4.71284e-05
4.87147e-05
5.00635e-05
4.34657e-05
4.12435e-05
4.41658e-05
2.79455e-05
2.42743e-05
0.000630965
0.0784565
0.000684426
7.6676e-07
1.62461e-07
2.22041e-07
1.86037e-06
5.90188e-05
0.00040192
4.80072e-05
1.05566e-05
1.09223e-05
1.14033e-05
1.23252e-05
1.38311e-05
1.5708e-05
1.62449e-05
1.28547e-05
1.01883e-05
6.99757e-06
4.52075e-06
3.98337e-06
4.15414e-06
4.44542e-06
4.79476e-06
5.19056e-06
5.65659e-06
6.22185e-06
6.92532e-06
7.79326e-06
8.8577e-06
1.01409e-05
1.16659e-05
1.3439e-05
1.54582e-05
1.76964e-05
2.01284e-05
2.26205e-05
2.54708e-05
2.61531e-05
3.11051e-05
4.47875e-05
4.44236e-05
4.514e-05
4.55376e-05
4.47411e-05
4.48243e-05
4.6213e-05
4.7507e-05
4.54844e-05
4.39849e-05
4.63085e-05
5.06471e-05
4.75244e-05
4.32872e-05
4.31571e-05
4.88025e-05
5.07422e-05
4.56803e-05
4.28693e-05
4.51102e-05
4.76334e-05
4.68409e-05
4.92302e-05
4.54789e-05
4.16118e-05
4.3644e-05
2.99112e-05
1.54936e-05
0.000144391
0.0266705
0.00288277
2.03659e-06
1.49053e-07
1.65802e-07
9.39868e-07
2.75461e-05
0.000409158
7.64426e-05
1.25555e-05
1.16548e-05
1.22506e-05
1.28942e-05
1.42913e-05
1.62182e-05
1.75664e-05
1.4275e-05
1.11526e-05
8.62705e-06
5.45795e-06
4.53968e-06
4.73939e-06
5.03762e-06
5.36863e-06
5.73194e-06
6.16454e-06
6.69885e-06
7.37556e-06
8.2202e-06
9.26277e-06
1.05226e-05
1.20129e-05
1.37438e-05
1.57094e-05
1.78946e-05
2.02577e-05
2.27613e-05
2.52638e-05
2.80335e-05
2.78533e-05
3.1661e-05
4.4521e-05
4.40145e-05
4.40781e-05
4.52824e-05
4.50724e-05
4.47597e-05
4.47137e-05
4.69758e-05
4.67929e-05
4.48494e-05
4.39743e-05
4.75749e-05
5.15007e-05
4.60167e-05
4.12766e-05