/*--------------------------------*- C++ -*----------------------------------*\
| =========                 |                                                 |
| \\      /  F ield         | OpenFOAM: The Open Source CFD Toolbox           |
|  \\    /   O peration     | Version:  v2012                                 |
|   \\  /    A nd           | Website:  www.openfoam.com                      |
|    \\/     M anipulation  |                                                 |
\*---------------------------------------------------------------------------*/
FoamFile
{
    version     2.0;
    format      ascii;
    class       volScalarField;
    location    "12000";
    object      I1_4;
}
// * * * * * * * * * * * * * * * * * * * * * * * * * * * * * * * * * * * * * //

dimensions      [0 0 0 0 0 0 0];


internalField   nonuniform List<scalar> 
27324
(
-2.45409
-2.53903
-2.6327
-2.64908
-2.82512
-2.68849
-2.75734
-2.88502
-3.0036
-2.76893
-2.82854
-3.00051
-2.99283
-3.18224
-2.89195
-2.85476
-3.15579
-3.11276
-3.16594
-3.34898
-2.98792
-2.8469
-3.3413
-3.34874
-3.35542
-3.34818
-3.34779
-3.05949
-2.86377
-3.62231
-3.64973
-3.70487
-3.50084
-3.28614
-3.38716
-3.1671
-2.96149
-3.59809
-4.05672
-3.88259
-3.77129
-3.48715
-3.42677
-3.44692
-3.21836
-2.69812
-2.38799
-3.51837
-3.78346
-3.65375
-3.95248
-3.68564
-3.48063
-3.4609
-3.29962
-2.18885
-2.86932
-2.6636
-2.75457
-3.56177
-3.98948
-4.20584
-3.76654
-3.4936
-3.48683
-3.41997
-1.58101
-2.30681
-3.32037
-2.77725
-2.47303
-4.4204
-3.85362
-4.35211
-3.81354
-3.47191
-3.54586
-3.60044
-1.12858
-1.60031
-2.52759
-3.63273
-2.47795
-2.04524
-3.83385
-3.56149
-4.43539
-3.80844
-3.48407
-3.54715
-3.94013
-0.870484
-1.17542
-1.64324
-2.78445
-3.91743
-2.53572
-1.43188
-3.29198
-3.35461
-4.44997
-3.77396
-3.49715
-3.60817
-4.62046
-0.803916
-0.868216
-1.26988
-1.67001
-3.1738
-4.37246
-2.74493
-1.30443
-2.88959
-3.39418
-4.26627
-3.66389
-3.68066
-3.58175
-5.26808
-7.0431
-0.74159
-0.827422
-1.41071
-1.69014
-3.55208
-4.701
-3.08845
-1.56453
-2.65049
-3.68063
-3.96295
-3.49688
-3.63828
-3.56143
-5.88629
-0.271221
-1.17479
-0.612053
-0.779068
-1.557
-1.69839
-3.69968
-4.92842
-3.45891
-2.01595
-2.53822
-3.90233
-3.48655
-3.26617
-3.5273
-3.22594
-5.01732
-0.545718
-0.879996
-0.497982
-0.511075
-0.728747
-1.75705
-1.70388
-3.59591
-4.89992
-4.01527
-2.6849
-2.53849
-3.6493
-2.99811
-3.24258
-2.83818
-2.99548
-4.90064
-0.497487
-1.4256
-1.97092
-0.445729
-0.470911
-0.701682
-1.97973
-1.6696
-3.25595
-4.65266
-4.56606
-3.52284
-3.09693
-3.6046
-3.1788
-3.01103
-3.82163
-3.93904
-4.08403
-0.593523
-1.19902
-1.39139
-1.19488
-0.429907
-0.437455
-0.724439
-2.18714
-1.63763
-2.74825
-4.04651
-4.76122
-4.53229
-4.06504
-4.14091
-3.74692
-5.73462
-4.0788
-7.74832
-4.27782
-0.690583
-1.32781
-1.01636
-0.916107
-0.648514
-0.484027
-0.420414
-0.798829
-2.35574
-1.63827
-2.19293
-3.1529
-4.19017
-4.84318
-4.76431
-4.86147
-4.67776
-4.98648
-5.43789
-4.98865
-3.16851
-0.816727
-1.31874
-0.915799
-0.645733
-0.619403
-0.509587
-0.433782
-0.439013
-0.942164
-2.39654
-1.7134
-1.7045
-2.24898
-2.96594
-3.67036
-3.81868
-3.78544
-3.33264
-3.03262
-2.55211
-1.74599
-2.59652
-1.0318
-1.21201
-0.784696
-0.584202
-0.519368
-0.609254
-0.916829
-0.381869
-0.491136
-1.15349
-2.30285
-1.97067
-1.33756
-1.57707
-1.86475
-2.19295
-2.25255
-2.16151
-1.96066
-1.6144
-1.41251
-1.01424
-1.7615
-1.61491
-1.03049
-0.646883
-0.483145
-0.54396
-0.787365
-1.21683
-0.898148
-0.387314
-0.573506
-1.4267
-2.12056
-2.26612
-0.98556
-1.13348
-1.26309
-1.41396
-1.43079
-1.37506
-1.31131
-1.2441
-1.53401
-1.68596
-2.58067
-2.0604
-0.909476
-0.467143
-0.402861
-0.543117
-1.22717
-1.32455
-0.895452
-0.87645
-0.392967
-0.716323
-1.73069
-1.89181
-1.57718
-0.327588
-0.627988
-1.02894
-1.25195
-1.32807
-1.36046
-1.59557
-1.89557
-2.63819
-1.09898
-3.14674
-1.512
-0.68218
-0.343383
-0.385139
-0.675555
-2.10822
-1.2917
-1.11656
-0.655489
-0.793092
-0.435595
-0.933074
-1.9644
-1.66505
-1.57102
-2.68807
-1.29575
-1.76511
-1.78519
-1.74371
-1.8514
-1.8825
-2.27109
-1.52834
-1.54673
-3.71525
-0.828736
-0.484629
-0.310533
-0.492648
-1.66006
-5.32687
-1.07648
-1.15983
-0.918287
-0.621205
-0.566692
-0.519287
-1.2295
-2.05456
-1.39714
-1.53223
-2.14944
-2.22164
-2.35391
-2.09899
-2.03047
-1.81566
-1.48799
-1.50892
-1.73681
-2.47748
-4.23835
-0.356027
-0.410509
-0.349499
-0.873446
-7.62761
-15.9798
-0.871728
-1.0269
-0.94776
-0.905478
-0.468754
-0.448585
-0.657555
-1.57251
-1.95872
-1.37652
-2.39653
-2.0058
-2.22843
-1.94855
-1.74762
-1.57139
-1.79236
-1.92324
-1.4451
-2.50972
-3.31524
-4.52471
-0.09258
-0.411029
-0.49814
-1.66622
-16.5286
-4.55143
-0.674223
-1.00802
-0.888548
-0.949474
-0.679402
-0.722594
-0.453415
-0.873924
-1.86508
-1.74285
-1.46657
-1.35463
-2.14562
-1.9739
-1.81959
-1.61221
-1.71189
-0.923931
-1.55113
-1.8594
-3.63982
-3.39805
-4.97419
-0.169898
-0.416465
-1.00591
-2.50749
-11.8336
-0.844516
-0.631514
-0.899388
-0.835833
-0.912322
-0.847372
-0.816505
-0.556502
-0.557167
-1.17795
-1.98699
-1.57349
-1.32186
-1.8788
-2.03401
-1.926
-1.68226
-1.63844
-3.29607
-1.9662
-1.55106
-2.87091
-4.39089
-2.85416
-5.34665
-8.63844
-1.58163
-1.31747
-2.48849
-2.961
-0.429235
-0.736928
-0.754213
-0.792725
-0.874047
-0.952045
-1.0871
-0.495947
-0.464374
-0.725122
-1.53358
-1.92189
-1.64723
-1.53126
-2.07664
-2.03208
-1.76908
-1.61707
-2.2407
-2.89398
-1.43658
-2.2581
-4.00031
-4.33852
-2.28307
-5.04253
-12.7226
-0.557254
-0.154375
-0.655672
-0.816148
-0.350887
-0.891828
-0.611646
-0.930175
-0.848905
-1.02089
-1.06905
-0.999921
-0.671461
-0.528927
-0.96908
-1.89588
-1.9005
-3.0026
-2.01185
-2.09036
-1.85062
-1.6581
-1.66305
-2.51043
-1.61807
-1.75001
-3.55097
-4.29533
-3.92403
-1.98527
-4.84028
-2.14312
-0.395968
-0.222461
-0.440195
-0.557457
-0.332136
-1.14158
-0.557729
-1.25756
-0.955438
-1.06014
-1.06977
-0.937543
-1.01271
-0.559077
-0.666039
-1.30003
-2.17743
-1.9355
-1.23169
-2.08345
-1.93063
-1.73784
-1.62054
-3.11657
-2.35984
-1.45621
-2.8758
-4.39099
-3.92988
-3.30859
-2.23235
-5.73095
-1.06556
-0.453068
-0.35869
-1.69639
-0.426207
-0.43729
-1.28296
-0.600694
-1.71697
-1.09524
-1.19857
-0.946055
-0.97301
-0.883772
-0.692845
-0.543442
-0.867575
-1.66433
-2.1894
-1.68924
-1.97134
-2.00929
-1.81117
-1.64006
-1.81257
-3.91333
-1.38245
-2.22374
-4.15889
-4.29289
-3.25501
-3.25322
-2.90228
-5.55487
-0.591519
-0.520259
-0.716967
-3.10869
-1.28501
-1.0131
-1.30106
-0.829078
-1.52135
-1.14019
-1.23866
-0.844555
-0.911959
-1.01717
-0.976872
-0.688388
-0.675098
-1.15966
-2.01046
-2.33262
-1.93081
-2.10023
-1.89663
-1.65883
-1.73813
-9.66186
-1.59824
-1.72356
-3.66116
-4.48652
-3.63348
-3.10888
-3.90321
-3.33068
-3.84871
-0.287241
-0.706667
-1.46135
-3.04069
-6.75452
-0.55184
-0.853615
-1.10735
-1.21436
-1.07318
-1.06322
-0.757728
-0.900526
-0.950487
-0.91264
-0.824127
-0.610338
-0.833394
-1.5928
-2.34118
-3.77409
-2.34855
-1.95779
-1.71438
-1.58654
-4.91562
-2.40966
-1.42798
-2.98441
-4.55763
-3.93143
-3.34377
-3.59862
-4.34817
-2.94337
-3.69613
-4.62475
-0.950481
-2.92375
-2.55784
-1.36379
-0.332789
-0.830884
-1.13367
-1.02011
-1.11101
-1.02073
-0.756828
-0.987686
-0.967996
-0.951303
-0.960161
-0.602127
-0.727066
-1.08403
-2.08382
-2.76794
-2.64696
-1.98603
-1.75143
-1.64486
-2.1794
-4.21837
-1.34628
-2.31261
-4.38351
-4.20005
-3.53977
-3.74861
-4.01293
-3.53832
-3.1126
-3.7675
-0.836122
-0.256293
-0.210884
-2.09971
-0.49812
-0.455523
-0.8953
-1.10914
-0.95232
-1.31527
-1.09927
-0.949413
-1.11462
-1.00229
-0.939437
-0.958684
-0.770177
-0.687979
-0.838155
-1.51581
-2.57741
-3.35648
-1.93616
-1.7947
-1.68024
-1.73285
-1.89375
-1.53289
-1.78305
-3.92099
-4.45169
-3.69422
-4.0906
-3.87523
-3.4077
-3.51522
-3.29627
-3.96798
-0.424476
-0.285187
-0.15189
-2.70843
-0.432733
-0.651869
-1.08705
-1.02057
-1.03741
-1.08133
-1.12615
-1.07539
-1.06342
-1.07454
-0.986642
-0.935888
-0.865045
-0.0839442
-0.806649
-1.0572
-2.1679
-3.42317
-1.59416
-1.86536
-1.75667
-1.6429
-5.44751
-2.2487
-1.44655
-3.25138
-4.60248
-4.0113
-4.80357
-3.65499
-3.42177
-3.44427
-3.6841
-3.51864
-4.18952
-0.36437
-0.388188
-0.421287
-1.61221
-0.656714
-1.084
-1.39175
-1.24137
-0.893467
-1.07158
-1.18303
-1.0699
-1.09164
-1.08813
-1.04059
-1.03438
-0.934162
-1.01099
-0.884537
-0.847395
-1.54865
-2.91386
-0.737236
-2.03286
-1.80698
-1.63665
-2.22782
-3.93365
-1.30943
-2.54611
-4.52731
-4.37563
-5.17743
-3.46443
-3.41181
-3.48548
-3.62958
-3.91153
-3.76361
-4.399
-0.364158
-0.866625
-0.744044
-2.48235
-1.22388
-1.02329
-1.30487
-1.36391
-0.84261
-0.932228
-1.12963
-1.17114
-1.12346
-1.07951
-1.05159
-1.01443
-0.975558
-0.838433
-1.44359
-0.844274
-1.07061
-2.3663
-4.52393
-2.40758
-1.8503
-1.66449
-1.81395
-0.17915
-1.40406
-1.95172
-4.19307
-4.61789
-5.17663
-3.33067
-3.39366
-3.50307
-3.67788
-3.88434
-4.15558
-4.01437
-4.58737
-0.766351
-3.44152
-1.91117
-1.36266
-1.02641
-0.724081
-1.42993
-1.04862
-1.09362
-0.622121
-1.00035
-1.15462
-1.17448
-1.14251
-1.03989
-1.02662
-0.952093
-0.937494
-0.946013
-0.99742
-0.848557
-1.68542
-3.4103
-1.26703
-1.9207
-1.7113
-1.62193
-11.2256
-1.9032
-1.53645
-3.62185
-4.69739
-5.25589
-3.27489
-3.41662
-3.55726
-3.69173
-3.95179
-4.152
-4.39367
-4.25211
-4.73037
-1.87138
-0.584777
-3.55295
-1.11436
-0.375327
-0.744425
-0.958355
-1.40264
-1.07703
-0.878538
-0.704588
-1.13325
-1.14715
-1.13928
-1.06105
-1.04939
-0.960187
-0.978102
-0.883453
-1.06301
-0.861117
-1.15169
-2.77595
-10.2813
-2.20271
-1.72897
-1.62564
-2.77993
-3.3507
-1.31008
-2.92748
-4.62931
-5.1819
-3.28984
-3.40668
-3.61659
-3.71318
-3.99188
-4.24017
-4.42092
-4.6059
-4.42967
-4.87903
-0.626438
-0.212798
-1.21908
-0.96111
-0.610169
-0.836799
-0.661744
-1.17316
-1.38502
-1.04168
-1.04534
-0.641838
-0.946628
-1.03947
-1.07712
-1.03188
-0.981977
-0.904109
-0.945867
-1.12246
-1.15036
-0.866861
-1.9674
-4.83821
-2.64821
-1.74361
-1.64638
-1.88635
-2.26017
-1.28033
-2.26762
-4.39685
-4.95066
-3.41399
-3.36092
-3.68074
-3.73193
-4.0348
-4.30012
-4.53189
-4.65425
-4.77056
-4.56261
-4.87265
-0.7199
-0.322767
-0.936535
-1.87656
-1.25828
-1.99351
-0.425717
-1.24533
-1.31311
-1.23541
-1.10166
-1.07817
-0.260383
-0.858567
-1.00175
-1.07298
-0.952986
-0.913902
-0.832378
-1.08982
-2.22297
-0.826688
-1.31893
-3.47096
-4.14294
-1.83029
-1.68427
-1.64069
-21.298
-1.52131
-1.75401
-3.9553
-4.72806
-3.69346
-3.30775
-3.72641
-3.75921
-4.07603
-4.36173
-4.61601
-4.77862
-4.83966
-4.89631
-4.65545
-5.00165
-2.56133
-0.817279
-1.94893
-1.98926
-1.97989
-1.99014
-0.830544
-1.22231
-1.17464
-1.2785
-1.26648
-1.05524
-1.22171
-2.27715
-0.948447
-1.03266
-0.940715
-0.862731
-0.938333
-0.993864
-11.4828
-1.0003
-0.93234
-2.50222
-14.6876
-2.19931
-1.69636
-1.61099
-4.41008
-2.36301
-1.42111
-3.33888
-4.63131
-4.17207
-3.26122
-3.74732
-3.7964
-4.11705
-4.42225
-4.70301
-4.88501
-4.97934
-4.97245
-4.93061
-5.12958
-5.22415
-0.289785
-6.29199
-2.85509
-1.17052
-0.693785
-2.02497
-1.33175
-1.68991
-0.952754
-0.957974
-1.36417
-1.24906
-1.07836
-1.13706
-0.944041
-0.883509
-0.990956
-0.784999
-0.955015
-0.786042
-0.927149
-1.27959
-0.794487
-1.70815
-5.31947
-2.66738
-1.69212
-1.65113
-1.90763
-3.93383
-1.26472
-2.71937
-4.71434
-4.73724
-3.2067
-3.73612
-3.84709
-4.15878
-4.483
-4.78181
-4.99669
-5.10487
-5.11184
-5.05485
-5.15822
-6.24099
-5.02548
-0.134424
-0.266379
-2.46817
-0.378403
-0.423715
-1.68839
-1.81867
-1.55854
-1.53013
-0.423519
-1.10715
-1.25809
-1.22588
-1.05195
-0.950561
-1.32615
-0.992133
-0.892837
-1.06244
-0.835602
-0.852731
-0.63975
-0.898233
-1.13052
-3.53708
-5.16316
-1.76699
-1.67727
-1.7317
-0.616911
-1.30387
-2.16274
-4.40391
-5.06461
-3.15256
-3.68934
-3.91303
-4.20148
-4.54348
-4.85565
-5.10564
-5.23617
-5.24256
-5.21364
-5.2892
-5.79679
-6.72654
-4.65862
-0.106308
-0.413036
-1.69805
-0.849812
-0.509627
-2.33688
-1.60257
-1.70835
-1.46164
-1.14537
-0.633397
-0.9663
-1.19908
-1.19316
-0.962795
-0.981478
-1.0377
-0.901324
-1.16075
-0.914424
-0.917228
-3.20294
-1.36354
-0.846508
-2.36566
-18.8263
-2.1196
-1.68854
-1.58794
-12.2903
-1.66988
-1.72251
-3.83756
-4.87869
-3.10583
-3.63639
-3.99129
-4.24609
-4.60457
-4.92876
-5.2081
-5.36793
-5.37894
-5.3587
-5.40927
-6.03835
-5.99218
-6.12234
-4.31708
-0.153057
-1.0939
-3.17211
-2.18821
-1.20961
-8.71914
-1.49845
-1.31691
-1.72099
-1.31761
-1.16695
-0.168086
-0.951397
-1.26481
-1.09405
-0.919159
-1.09525
-0.959931
-1.32259
-1.20695
-0.832742
-0.950072
-2.47255
-0.783799
-1.54578
-6.12823
-2.59372
-1.65818
-1.64763
-2.69067
-2.78532
-1.4277
-3.25549
-4.55719
-3.25665
-3.59848
-4.07257
-4.2949
-4.66391
-5.00241
-5.30308
-5.50211
-5.51932
-5.50899
-5.54655
-6.133
-6.45628
-5.47126
-5.38982
-3.9995
-1.62932
-3.15168
-3.58474
-2.5583
-1.39543
-0.961524
-1.38925
-1.04567
-1.46636
-1.60452
-1.24666
-1.34806
-0.358669
-1.28342
-1.07036
-1.05213
-1.35107
-1.35373
-1.26771
-1.47694
-0.903069
-0.721058
-0.772588
-0.96114
-1.02978
-3.77888
-2.3081
-1.68459
-1.69504
-1.76434
-4.15977
-1.28966
-2.69274
-4.17996
-3.58783
-3.58692
-4.13914
-4.34917
-4.72093
-5.07965
-5.39193
-5.63226
-5.66595
-5.66175
-5.68328
-6.2719
-6.68101
-5.94625
-4.86419
-4.74639
-3.69839
-0.106343
-0.0413209
-4.44045
-0.776241
-0.830401
-0.977867
-2.37468
-0.437142
-1.33661
-1.67426
-1.5437
-1.21773
-1.22861
-1.20757
-1.13584
-1.03701
-0.396933
-1.79821
-1.05522
-1.10619
-0.89211
-0.729337
-1.44264
-1.58367
-0.79508
-2.38171
-86.1783
-1.92006
-1.70837
-1.57133
-0.0186937
-1.32586
-2.19082
-3.8332
-4.07513
-3.61815
-4.17138
-4.41139
-4.77728
-5.16154
-5.47896
-5.75268
-5.81749
-5.81909
-5.82333
-6.40149
-6.96124
-6.18324
-5.27579
-4.32467
-4.20818
-3.44009
-0.101323
-0.232689
-1.45797
-0.358618
-0.541616
-1.35788
-1.97895
-1.40364
-0.781061
-1.47793
-1.25889
-1.52094
-1.11647
-0.893399
-1.12383
-1.20513
-0.803013
-1.89887
-0.99747
-0.921199
-0.910972
-0.72958
-1.01905
-3.27573
-0.764873
-1.52483
-9.25594
-2.55346
-1.65849
-1.55269
-3.32298
-1.61326
-1.84612
-3.59369
-4.78093
-3.63621
-4.1641
-4.48427
-4.83738
-5.24407
-5.56951
-5.86236
-5.97304
-5.98036
-5.96439
-6.53167
-7.22904
-6.50858
-5.48066
-4.67084
-3.8717
-3.78358
-3.22076
-0.212597
-0.751843
-2.36952
-2.74544
-0.293123
-1.03906
-2.47459
-2.16335
-1.19381
-0.680429
-0.989764
-1.20554
-1.49457
-0.929616
-1.02974
-1.18564
-0.897893
-1.43511
-0.969051
-0.835267
-1.04384
-0.807197
-0.793363
-0.886708
-0.967757
-1.01511
-4.53159
-0.395995
-1.59485
-1.70883
-1.89547
-2.35889
-1.63072
-3.20493
-5.08333
-3.62089
-4.13192
-4.56904
-4.90596
-5.32356
-5.66448
-5.9617
-6.12471
-6.14845
-6.1037
-6.66802
-7.49901
-6.83632
-5.76333
-4.83405
-4.15841
-3.50812
-3.45655
-3.04199
-0.502741
-2.09806
-1.88971
-3.03656
-1.7679
-0.454406
-2.11759
-2.53617
-1.67646
-1.21969
-0.617121
-1.01342
-1.33753
-1.26147
-0.758753
-1.37734
-1.03388
-0.963421
-0.752595
-0.748264
-1.42221
-0.851197
-0.763853
-2.19519
-1.5817
-0.778072
-2.6699
-16.1242
-1.61117
-1.78713
-1.68368
-3.47195
-1.49925
-2.73812
-4.68056
-3.6105
-4.0889
-4.66194
-4.98681
-5.39974
-5.76481
-6.05997
-6.2676
-6.32234
-6.24277
-6.80881
-7.76241
-7.18845
-6.04905
-5.06215
-4.284
-3.74637
-3.22757
-3.20813
-2.89646
-0.252599
-1.05349
-1.61197
-2.04817
-3.31434
-2.20792
-4.60486
-2.91434
-1.57102
-1.8886
-1.09918
-0.601826
-1.36326
-1.10234
-1.13053
-1.97496
-1.23354
-0.923986
-0.154199
-0.650317
-1.58085
-0.774469
-0.845368
-0.957467
-2.90113
-0.739505
-1.66378
-20.3421
-1.83448
-1.7874
-1.51506
-3.72292
-1.45239
-2.31431
-4.10481
-3.91694
-4.09039
-4.74884
-5.07908
-5.47284
-5.86595
-6.16177
-6.39815
-6.49593
-6.38906
-6.94931
-8.02207
-7.55586
-6.36124
-5.29038
-4.4643
-3.84421
-3.4285
-3.01563
-3.01902
-2.78029
-0.519049
-6.99622
-0.469544
-1.60708
-2.54828
-2.36162
-1.44775
-1.52829
-1.17296
-1.97456
-1.74622
-0.910993
-0.532821
-1.29814
-0.988625
-1.22972
-1.89303
-0.86235
-1.1078
-0.781546
-1.28988
-0.84532
-1.02105
-0.739229
-0.631835
-0.903389
-1.09805
-5.75547
-1.77341
-1.67351
-1.64678
-2.27889
-1.51265
-2.01221
-3.71056
-4.35683
-4.15122
-4.81029
-5.18018
-5.54819
-5.96133
-6.27262
-6.51697
-6.66506
-6.54853
-7.08978
-8.26818
-7.94117
-6.69183
-5.54086
-4.64283
-3.98769
-3.50628
-3.18594
-2.85565
-2.87476
-2.68778
-7.1326
-0.752782
-0.787798
-1.60337
-1.86472
-2.10784
-1.587
-1.79725
-0.00151842
-3.84144
-1.83069
-1.53361
-0.741629
-0.86357
-1.21109
-0.874692
-1.76663
-1.01923
-0.916645
-0.747054
-1.22164
-1.00069
-1.54106
-0.744195
-1.53747
-1.46593
-0.806295
-3.30391
-1.10834
-1.53706
-1.76985
-1.29173
-1.61824
-1.87024
-3.37268
-5.04966
-4.26309
-4.82971
-5.28472
-5.63345
-6.05048
-6.39201
-6.63194
-6.81748
-6.72352
-7.23031
-8.50261
-8.34129
-7.04938
-5.80358
-4.83538
-4.12536
-3.62051
-3.24898
-3.00347
-2.73526
-2.76672
-2.61686
-0.441242
-0.160381
-0.876024
-5.40951
-0.268087
-1.63242
-1.5239
-2.58692
-2.14122
-0.21201
-6.52854
-1.5705
-1.55868
-0.516373
-1.06874
-0.878735
-1.16712
-1.03101
-0.998966
-0.874868
-1.7629
-0.81555
-2.45197
-0.77193
-0.724754
-2.96662
-0.716013
-1.96042
-328.519
-1.47042
-1.89505
-1.49638
-1.76685
-1.80977
-3.02636
-5.28319
-4.31686
-4.81474
-5.38832
-5.73399
-6.13765
-6.5116
-6.75336
-6.94676
-6.9155
-7.37279
-8.71708
-8.75204
-7.43192
-6.08418
-5.03734
-4.27297
-3.72965
-3.3443
-3.05606
-2.86606
-2.64717
-2.68543
-2.56048
-0.821876
-0.075408
-0.457454
-2.24589
-5.19633
-0.0739618
-1.15602
-2.99618
-2.91646
-1.05573
-0.438228
-7.45226
-1.01944
-0.980045
-1.00892
-1.05777
-1.0735
-0.75035
-0.912032
-1.35569
-3.48297
-0.62244
-2.09567
-0.792462
-0.640686
-4.12488
-0.795503
-1.2972
-10.1799
-1.40143
-1.92462
-1.69248
-2.24422
-1.78617
-2.63028
-4.90431
-4.39494
-4.79726
-5.48846
-5.85117
-6.22806
-6.62421
-6.89065
-7.06618
-7.11114
-7.51957
-8.90774
-9.17504
-7.83874
-6.38645
-5.25047
-4.42425
-3.84418
-3.43139
-3.13527
-2.91193
-2.76326
-2.58217
-2.62669
-2.52177
-0.730021
-2.5638
-23.7859
-0.884754
-1.76892
-2.54723
-0.032556
-1.64025
-2.7486
-1.47403
-1.12519
-0.565799
-0.624124
-0.89248
-2.12199
-4.68013
-1.48586
-0.255376
-0.97568
-1.3243
-1.08651
-0.584492
-1.33502
-0.817435
-0.628759
-6.5199
-1.12893
-0.925596
-4.19262
-0.599763
-1.87449
-1.92989
-2.86579
-1.8159
-2.32563
-4.34988
-4.70968
-4.8306
-5.57852
-5.98045
-6.32811
-6.7244
-7.03602
-7.18763
-7.28572
-7.67457
-9.06886
-9.60498
-8.28083
-6.71094
-5.47551
-4.58313
-3.95992
-3.52215
-3.20874
-2.98011
-2.80363
-2.68723
-2.5381
-2.58634
-2.49383
-1.89101
-0.37226
-1.23401
-2.0821
-0.639761
-1.93926
-0.547598
-0.153762
-1.81236
-2.31384
-1.42279
-1.08596
-0.781337
-0.817514
-1.2907
-2.28956
-1.34103
-0.753782
-1.0584
-1.2777
-0.605384
-0.650029
-1.04872
-0.886658
-0.759246
-1.17982
-1.95399
-0.754525
-2.52666
-7.06327
-1.83655
-2.07383
-2.57742
-1.82166
-2.15323
-3.96889
-5.26052
-4.93967
-5.64143
-6.11226
-6.4424
-6.81891
-7.17555
-7.32527
-7.42662
-7.84422
-9.21321
-10.0437
-8.75963
-7.06279
-5.71465
-4.74855
-4.0786
-3.61271
-3.28283
-3.04093
-2.86359
-2.72346
-2.63194
-2.50761
-2.5611
-2.47782
-0.277968
-0.171317
-0.524683
-1.70484
-0.139687
-0.365512
-1.19857
-0.52868
-0.507881
-2.52784
-3.1429
-0.812203
-1.42897
-0.621214
-0.951752
-1.93388
-1.46185
-0.865458
-0.477581
-1.43355
-0.73665
-0.689734
-0.941808
-1.14581
-1.10734
-0.660775
-3.29487
-0.73311
-1.67885
-9.5687
-1.87078
-2.21039
-2.31219
-1.99444
-2.08854
-3.63651
-5.93681
-5.09136
-5.66074
-6.2399
-6.5686
-6.92063
-7.29808
-7.48557
-7.55182
-8.01263
-9.3674
-10.4886
-9.27093
-7.44577
-5.96904
-4.91883
-4.19914
-3.70295
-3.35459
-3.10356
-2.91702
-2.77721
-2.66559
-2.59361
-2.49197
-2.54933
-2.47476
-0.0443661
-0.156503
-16.6678
-0.828022
-2.18944
-0.00424164
-0.528311
-2.27194
-13.7638
-1.09343
-2.94785
-1.73181
-1.91345
-3.35805
-0.239632
-1.49643
-1.3813
-1.09791
-0.889844
-3.79912
-0.857013
-0.369572
-0.848167
-1.04827
-2.00322
-0.584179
-0.0733118
-0.87882
-1.21547
-3.62638
-1.90866
-2.30577
-2.21612
-2.33454
-2.10206
-3.27835
-5.94867
-5.16328
-5.65241
-6.36435
-6.70179
-7.04133
-7.39832
-7.65504
-7.68259
-8.14821
-9.53661
-10.9168
-9.81388
-7.85865
-6.24286
-5.09575
-4.32064
-3.79415
-3.42589
-3.16363
-2.96984
-2.8251
-2.71483
-2.62591
-2.57133
-2.48805
-2.55194
-2.48352
-0.115512
-0.0918842
-2.37809
-3.26931
-0.683509
-2.13774
-0.420794
-1.66531
-2.32077
-0.364686
-1.22601
-4.06318
-0.416862
-2.27257
-33.875
-0.311246
-2.69432
-1.1007
-1.25454
-0.513757
-0.879296
-0.816813
-0.928093
-0.696215
-7.74151
-0.657914
-1.54201
-1.3437
-0.951436
-3.00997
-3.2441
-2.36775
-2.24722
-2.72538
-2.1543
-2.94742
-5.44087
-5.31571
-5.66136
-6.48505
-6.8401
-7.18062
-7.49432
-7.81127
-7.84033
-8.24887
-9.69816
-11.3225
-10.381
-8.30719
-6.53479
-5.28053
-4.44562
-3.88426
-3.49647
-3.2211
-3.02059
-2.87195
-2.75718
-2.67184
-2.60109
-2.56126
-2.4947
-2.56767
-2.50529
-0.156045
-3.85157
-1.12812
-4.46221
-0.0845012
-0.986998
-1.94662
-0.20292
-1.1625
-2.87142
-0.217568
-1.48871
-0.84926
-0.920263
-2.59362
-0.571016
-1.59372
-6.52176
-2.05866
-0.0645977
-1.09345
-0.839763
-0.678422
-0.532658
-10.3903
-0.719297
-0.642335
-2.48094
-0.838813
-2.14535
-14.8633
-2.38907
-2.31943
-2.90338
-2.24848
-2.67668
-4.91571
-5.88576
-5.74435
-6.59097
-6.98303
-7.32926
-7.60679
-7.92875
-8.02394
-8.32842
-9.81559
-11.7249
-10.9712
-8.79516
-6.84544
-5.4744
-4.57207
-3.97133
-3.56339
-3.27673
-3.0695
-2.91519
-2.7992
-2.71024
-2.643
-2.58924
-2.56311
-2.51311
-2.59847
-2.54324
-0.0138494
-0.3534
-11.6065
-1.15498
-0.460206
-0.090371
-0.704294
-1.5496
-0.202903
-1.63814
-9.26124
-0.865818
-1.74951
-0.140265
-1.3306
-3.05443
-0.560414
-2.75514
-3.37884
-0.206365
-1.17137
-0.948635
-0.138667
-0.438832
-1.43498
-0.684103
-0.575027
-4.97089
-0.846041
-1.56831
-5.26957
-2.3977
-2.40418
-2.80371
-2.39621
-2.57816
-4.5763
-6.64832
-5.9045
-6.65599
-7.12792
-7.47445
-7.74461
-8.01921
-8.20714
-8.43614
-9.85336
-12.0951
-11.587
-9.31911
-7.17611
-5.67411
-4.69609
-4.05573
-3.62646
-3.3282
-3.11457
-2.95633
-2.83847
-2.7483
-2.67967
-2.62866
-2.59058
-2.5776
-2.54379
-2.64531
-2.59551
-0.00588678
-0.0616304
-1.59044
-0.314887
-0.174495
-0.66327
-0.0781192
-1.70858
-2.76241
-0.570621
-1.65988
-0.166173
-1.21856
-2.38042
-0.598601
-2.33034
-0.0767322
-1.41393
-1.66227
-1.08755
-0.0354933
-1.74672
-0.264301
-0.413181
-0.842674
-0.572302
-0.58281
-11.2163
-0.967962
-1.23207
-2.97749
-2.72756
-2.52161
-2.7584
-2.69615
-2.57576
-4.1498
-7.23983
-6.03907
-6.66558
-7.27562
-7.61419
-7.89894
-8.10739
-8.35751
-8.60288
-9.82018
-12.3756
-12.2402
-9.89169
-7.53553
-5.87656
-4.81652
-4.13624
-3.68469
-3.3748
-3.15486
-2.99423
-2.87431
-2.78335
-2.71448
-2.66315
-2.62776
-2.60374
-2.60368
-2.58659
-2.70955
-2.66769
-0.100859
-0.877454
-0.0090517
-0.189701
-0.0461728
-0.376246
-2.75189
-0.108706
-1.97244
-4.57312
-1.01484
-1.68699
-0.81644
-1.28532
-2.27159
-1.38092
-15.5249
-0.702404
-1.53217
-19.4579
-0.15871
-7.11087
-0.354223
-0.0793382
-0.681717
-0.553246
-0.588712
-1.15094
-1.19466
-1.02962
-2.51395
-3.79862
-2.66455
-2.77827
-3.17491
-2.64196
-3.75271
-6.86508
-6.01486
-6.66819
-7.4315
-7.75474
-8.05085
-8.22232
-8.45443
-8.79761
-9.81337
-12.415
-12.9598
-10.5452
-7.93861
-6.09111
-4.93664
-4.21025
-3.73729
-3.41689
-3.19172
-3.02751
-2.90655
-2.8145
-2.74596
-2.69518
-2.65956
-2.63791
-2.62803
-2.64379
-2.64504
-2.79671
-2.76326
-0.0832206
-3.83775
-0.0303858
-0.00217315
-5.91525
-0.198548
-1.21917
-1.30545
-0.388136
-1.57292
-1.77532
-1.2937
-1.88402
-1.02169
-1.29947
-0.514195
-1.31484
-0.30442
-1.16116
-26.8379
-0.145042
-0.0325781
-0.529781
-0.605838
-0.629053
-0.162941
-0.369405
-0.657813
-1.43273
-1.00274
-2.12724
-5.64309
-2.82586
-2.85215
-3.55836
-2.76421
-3.40766
-6.29611
-6.50236
-6.74183
-7.59185
-7.89623
-8.18919
-8.36677
-8.53436
-8.96456
-9.92125
-12.2167
-13.6515
-11.2967
-8.37149
-6.30787
-5.04842
-4.27406
-3.78224
-3.45177
-3.22211
-3.05587
-2.93391
-2.84252
-2.77371
-2.72333
-2.68785
-2.66648
-2.65976
-2.6659
-2.69988
-2.72135
-2.91126
-2.88497
-0.00845629
-3.13269
-8.61254
-0.0550773
-0.258422
-1.46948
-0.010777
-1.01846
-2.3555
-0.715396
-1.59318
-0.323852
-1.37996
-0.0139604
-1.26105
-5.77912
-0.913429
-38.5641
-0.784383
-3.36772
-0.178209
-0.0860933
-1.01382
-0.747076
-0.642307
-0.230513
-3.28118
-0.765506
-1.62126
-1.0802
-1.75979
-5.4579
-2.86067
-2.96853
-3.61065
-2.88018
-3.26294
-5.8361
-7.40794
-6.92772
-7.71902
-8.02783
-8.31166
-8.51681
-8.63311
-9.0367
-10.1266
-12.0716
-14.0103
-12.2163
-8.85217
-6.51706
-5.14659
-4.32739
-3.81468
-3.47762
-3.24547
-3.07964
-2.95706
-2.86491
-2.798
-2.7486
-2.714
-2.69338
-2.68657
-2.69514
-2.71823
-2.77405
-2.82004
-3.05795
-3.04024
-0.408169
-0.212408
-1.39887
-17.6786
-0.0760686
-0.034904
-0.880573
-0.0387991
-1.45228
-2.33651
-1.11598
-1.3253
-0.787908
-1.74293
-0.617986
-1.45914
-0.461207
-1.4868
-0.450087
-1.1386
-0.139837
-1.29018
-7.30572
-0.570422
-0.141629
-0.337715
-1.3403
-1.0549
-1.89761
-1.20225
-1.41924
-3.85952
-2.96347
-3.12641
-3.56499
-3.05813
-3.1605
-5.27929
-8.40357
-7.14061
-7.75615
-8.14243
-8.42546
-8.65478
-8.77036
-9.02174
-10.3326
-12.3677
-13.6219
-13.2901
-9.40961
-6.76235
-5.26295
-4.38425
-3.84527
-3.49627
-3.26096
-3.09515
-2.97345
-2.88138
-2.81781
-2.76938
-2.73699
-2.71727
-2.71175
-2.71941
-2.74521
-2.78861
-2.86878
-2.94536
-3.24481
-3.23308
-0.349756
-0.175529
-5.79312
-0.629929
-0.109731
-0.309605
-0.628414
-2.84466
-0.198408
-1.55693
-5.9504
-1.75891
-1.84938
-1.30832
-3.8501
-1.12097
-2.66586
-0.85216
-28.1355
-0.732028
-2.07413
-0.694431
-0.752576
-0.512559
-0.452115
-0.563096
-1.80632
-1.63356
-2.36662
-1.25584
-1.27618
-2.91709
-3.65116
-3.32799
-3.56991
-3.54695
-3.21311
-4.74304
-8.47017
-7.0918
-7.73068
-8.24793
-8.5427
-8.78369
-8.91831
-9.0062
-10.4291
-13.1819
-12.9462
-14.0247
-10.1442
-7.09013
-5.39521
-4.3944
-3.79251
-3.43248
-3.21311
-3.06821
-2.96402
-2.88987
-2.83275
-2.78551
-2.75512
-2.73713
-2.73296
-2.74174
-2.76699
-2.81155
-2.87873
-2.99225
-3.10142
-3.48194
-3.47174
-1.59337
-1.8239
-0.480693
-0.206342
-0.133106
-0.0833577
-2.08414
-0.202546
-4.78177
-0.26629
-1.44463
-0.196196
-1.31726
-0.384279
-1.3106
-0.408029
-1.15425
-0.498833
-1.05502
-0.464161
-1.49225
-0.39037
-6.03501
-0.0269878
-0.551688
-1.53292
-1.98176
-1.34302
-2.15899
-1.3001
-1.25757
-2.49646
-5.28605
-3.54276
-3.63161
-4.06746
-3.29169
-4.29226
-8.1477
-7.41967
-7.73327
-8.37712
-8.67278
-8.91547
-9.03201
-9.0757
-10.3697
-13.8298
-13.0303
-13.0827
-11.2849
-7.5185
-5.44685
-4.24781
-3.66555
-3.37733
-3.19813
-3.06687
-2.96914
-2.89603
-2.83648
-2.7952
-2.76833
-2.75307
-2.74988
-2.76029
-2.78555
-2.82925
-2.89789
-2.99423
-3.14792
-3.29979
-3.7804
-3.76189
-0.897186
-0.49847
-2.57209
-4.21321
-1.20501
-0.0925658
-1.86364
-1.7115
-0.713158
-6.00053
-0.648858
-1.38203
-0.862146
-1.3432
-0.882548
-2.54931
-0.864886
-11.5703
-0.75053
-0.0971071
-0.691753
-0.126373
-1.67173
-0.0990315
-0.682763
-1.64961
-1.87884
-1.29048
-1.62853
-1.35193
-1.33394
-2.24132
-6.64231
-3.75213
-3.75842
-4.54312
-3.3863
-4.01023
-7.76481
-8.25036
-7.84336
-8.52669
-8.81368
-9.07407
-9.1382
-9.1619
-10.6177
-13.4197
-14.1282
-11.3886
-12.5294
-7.87542
-5.31658
-4.04703
-3.58864
-3.35284
-3.18956
-3.06688
-2.97245
-2.89925
-2.84102
-2.80137
-2.77611
-2.76362
-2.76221
-2.77439
-2.80043
-2.84393
-2.9103
-3.00716
-3.14141
-3.34444
-3.54671
-4.14951
-4.11048
-3.06648
-0.310035
-0.31501
-0.912527
-0.375884
-0.222497
-1.7522
-0.338371
-1.92119
-1.30161
-2.69878
-1.4467
-3.58295
-1.58122
-0.297446
-1.14941
-0.279154
-1.19653
-0.574382
-1.83384
-0.577376
-26.434
-0.661565
-0.188642
-1.45772
-1.26843
-1.72487
-1.15193
-1.43329
-1.52094
-1.39616
-2.01206
-5.58117
-3.94559
-3.94855
-4.7449
-3.4013
-3.83281
-7.05523
-9.35472
-8.04122
-8.64112
-8.96075
-9.2422
-9.28373
-9.31301
-9.77026
-11.3588
-14.503
-11.9119
-11.3799
-7.87306
-5.0525
-3.92606
-3.52878
-3.27091
-3.09775
-2.99121
-2.92055
-2.86962
-2.83086
-2.80282
-2.78123
-2.76803
-2.77016
-2.78353
-2.81119
-2.85573
-2.92208
-3.01537
-3.14757
-3.3258
-3.59012
-3.85044
-4.60501
-4.52269
-0.379097
-1.22591
-0.450231
-0.463685
-1.8488
-0.313746
-0.453053
-1.62453
-0.477494
-2.23638
-1.7143
-0.0705654
-1.55091
-0.169229
-1.39811
-0.773476
-1.90234
-0.899545
-5.1696
-0.676621
-0.265711
-1.22204
-0.542811
-3.022
-2.95696
-1.26871
-1.53697
-1.113
-1.32216
-1.65543
-1.50024
-1.83663
-4.23327
-4.39429
-4.18976
-4.64336
-3.42482
-3.82416
-6.196
-9.63243
-8.0202
-8.71373
-9.11757
-9.38834
-9.47409
-9.41963
-10.278
-7.1104
-5.40519
-16.0157
-8.39354
-7.52103
-4.77882
-3.90127
-3.3623
-3.08309
-2.95684
-2.89644
-2.85772
-2.82906
-2.80567
-2.787
-2.77517
-2.76929
-2.77276
-2.78852
-2.81823
-2.8634
-2.92955
-3.02064
-3.14802
-3.32343
-3.55761
-3.89701
-4.22134
-5.15946
-5.00109
-0.0864208
-0.718462
-0.293197
-1.7809
-2.92057
-1.22369
-0.249849
-0.0159661
-3.3317
-0.40972
-3.12536
-1.35969
-0.555666
-1.48252
-0.812833
-5.05355
-1.0184
-0.255069
-0.948421
-0.603248
-3.06129
-0.588015
-0.829513
-2.62446
-2.35745
-1.18984
-1.37318
-1.10133
-1.2814
-1.65604
-1.60465
-1.76098
-3.52635
-5.64365
-4.46891
-4.597
-3.79149
-3.84841
-5.579
-9.70362
-8.33744
-8.62315
-9.08654
-9.28546
-9.42635
-9.33371
-9.90767
-6.99021
-2.48438
-2.66763
-13.5915
-6.77727
-4.78892
-3.83142
-3.09659
-2.838
-2.77663
-2.75691
-2.75601
-2.75678
-2.75676
-2.75689
-2.75698
-2.76062
-2.77033
-2.78901
-2.8196
-2.86605
-2.93106
-3.02208
-3.14615
-3.3148
-3.54426
-3.84561
-4.27515
-4.66535
-5.81836
-5.55055
-2.02016
-0.507726
-0.676585
-0.194331
-1.9538
-2.70404
-0.983849
-0.553713
-0.0813023
-3.37288
-1.22206
-0.735261
-2.11343
-1.40987
-6.8185
-1.34441
-0.604719
-1.50139
-0.665987
-0.0396289
-0.845611
-0.49543
-1.52353
-1.0617
-1.71885
-1.13471
-1.26825
-1.1194
-1.27903
-1.61307
-1.72481
-1.79684
-3.21888
-8.37147
-4.78136
-4.62793
-4.37137
-3.95758
-5.04803
-9.6978
-9.20179
-8.76013
-9.2142
-9.33285
-9.2429
-9.00469
-8.82077
-5.06952
-1.95276
-1.87226
-7.35289
-9.16675
-11.3187
-3.9841
-2.92012
-2.58292
-2.5338
-2.5632
-2.61103
-2.65326
-2.68541
-2.70926
-2.72538
-2.73997
-2.75796
-2.78163
-2.81537
-2.86332
-2.92915
-3.01942
-3.14024
-3.30379
-3.52298
-3.81975
-4.20045
-4.7322
-5.18702
-6.60165
-6.17361
-2.97432
-6.1958
-0.458404
-0.69159
-0.552276
-3.35821
-0.78457
-0.379023
-1.3285
-0.223716
-2.66411
-1.95004
-0.591585
-0.0349173
-1.16669
-0.51035
-2.24277
-0.931641
-0.406461
-1.44719
-0.607283
-0.00916671
-0.700322
-1.10629
-1.55283
-1.12469
-1.22173
-1.15726
-1.31401
-1.61936
-2.01757
-1.88043
-2.97095