/*--------------------------------*- C++ -*----------------------------------*\
| =========                 |                                                 |
| \\      /  F ield         | OpenFOAM: The Open Source CFD Toolbox           |
|  \\    /   O peration     | Version:  v2012                                 |
|   \\  /    A nd           | Website:  www.openfoam.com                      |
|    \\/     M anipulation  |                                                 |
\*---------------------------------------------------------------------------*/
FoamFile
{
    version     2.0;
    format      ascii;
    class       volScalarField;
    location    "12000";
    object      I2_1;
}
// * * * * * * * * * * * * * * * * * * * * * * * * * * * * * * * * * * * * * //

dimensions      [0 0 0 0 0 0 0];


internalField   nonuniform List<scalar> 
27324
(
0.0700375
0.0747692
0.0876885
0.0789983
0.0921063
0.0908883
0.082882
0.0952888
0.0945977
0.0934746
0.0876888
0.0990329
0.0978385
0.0968967
0.0943838
0.0910048
0.103405
0.101831
0.100719
0.0968093
0.0866899
0.0932445
0.107698
0.10672
0.105151
0.101013
0.085985
0.0652565
0.0955538
0.11232
0.111517
0.110539
0.105174
0.0911269
0.0599656
0.0338271
0.0983085
0.117938
0.116412
0.115096
0.111033
0.0958258
0.0691757
0.0251368
0.00552982
0.0854319
0.124788
0.122003
0.119002
0.115254
0.104996
0.0772798
0.0362743
0.00100246
0.00120593
0.00597637
0.126052
0.128879
0.123352
0.11814
0.110914
0.0929907
0.0466058
0.00609716
0.00653804
0.0103804
0.00817805
0.0666505
0.12742
0.12929
0.12176
0.113425
0.102412
0.0667259
0.0141014
0.000827653
0.0219209
0.0158421
0.00801734
0.00369417
0.0682338
0.124527
0.127617
0.116864
0.104382
0.0814046
0.0297241
0.000361353
0.00998814
0.0312131
0.0154557
0.0149564
0.00126977
0.00551017
0.057662
0.11134
0.123209
0.108828
0.0868464
0.0454212
0.00514234
0.00407051
0.0170784
0.0343285
0.0121634
0.0568939
0.0531501
0.00171467
0.00427056
0.0259946
0.0729329
0.116461
0.0985473
0.0608147
0.0125225
0.000347907
0.0125695
0.017628
0.034414
0.00850375
0.0594964
0.0786784
0.0538317
0.00204764
2.27981e-05
0.00339136
0.0278668
0.0925259
0.0849907
0.0391928
0.000204761
0.0053383
0.0158315
0.0164109
0.0329868
0.0064833
0.0617634
0.0801974
0.082709
0.0537423
1.78771e-08
0.00505555
1.37236e-06
0.0103305
0.0399614
0.0718581
0.0290489
0.000763425
0.00887678
0.015964
0.014982
0.0253102
0.00628127
0.0643486
0.0826942
0.0853368
0.0836312
0.0431344
0.00757443
0.013882
0.000600329
0.0038519
0.0109783
0.0427151
0.0399065
7.88968e-05
0.00820131
0.0104496
0.0153464
0.0180305
0.00764044
0.0667277
0.0839601
0.0869681
0.0857691
0.0813048
0.0132265
0.0190499
0.0196822
0.000845824
0.000922473
0.00182505
0.00812194
0.0652952
0.0174107
0.00073316
0.00193974
0.00800644
0.0129968
0.00076735
0.0690992
0.085151
0.0869435
0.0855743
0.0838204
0.0746111
0.00496391
0.0186976
0.0234371
0.000768256
0.000150277
0.00041778
0.00156607
0.0375727
0.0990003
0.0906666
0.0781071
0.00667245
0.109554
0.0147687
0.0707127
0.0861731
0.0868356
0.0850138
0.0828975
0.0811116
0.0602415
0.0213578
0.0122976
0.0264128
0.000688214
3.93238e-07
0.000147217
0.000833786
0.00885769
0.0130688
0.0265348
0.00984576
0.00120755
0.000787939
0.00831062
0.0715477
0.0867044
0.086444
0.0844957
0.0821685
0.0818501
0.0796654
0.0142454
0.00968407
0.00680628
0.0302193
0.00057796
1.31867e-05
7.35807e-05
0.000711629
0.00308016
0.00264397
0.00717198
3.96416e-05
0.00384378
0.00276412
0.0041263
0.0718148
0.0868819
0.0858639
0.0839886
0.0821493
0.0826173
0.0828662
0.0709298
0.0140182
0.00366305
0.00244487
0.0330971
0.00063817
2.10078e-05
0.000329507
0.00157207
0.0031868
0.00287295
0.00221631
0.000913637
2.67061e-05
0.00470839
0.016198
0.0716282
0.0867752
0.0852013
0.0835615
0.0824984
0.0836553
0.0844616
0.0750469
0.0469337
0.0162702
0.00105489
3.03544e-05
0.0243023
0.000424508
0.00120409
0.00665584
0.0131052
0.013869
0.0102117
0.00490163
0.000764066
0.000982967
0.0783039
0.00599688
0.0708064
0.0862295
0.0845928
0.0831841
0.083331
0.0848196
0.0855418
0.0748318
0.0600639
0.0147134
0.00479521
0.000153427
0.00231392
0.0223657
6.62988e-05
0.0340118
0.0917305
0.120941
0.115495
0.0832654
0.033189
1.48727e-05
0.00147393
8.19287e-05
9.29123e-05
0.0694134
0.0850879
0.0840148
0.0832087
0.0843081
0.0858289
0.0862956
0.0748959
0.0621513
0.0536237
0.0130472
0.000843585
2.48963e-05
0.0147782
0.012055
0.000601424
0.00520275
0.00173542
0.00109514
0.00156353
0.00396599
0.00259383
0.00363333
0.00109154
0.00044734
0.000762397
0.0679266
0.0837216
0.083654
0.0838172
0.0853582
0.0864085
0.0863084
0.0748269
0.0625297
0.0576551
0.0336798
0.00437282
0.000114896
6.4404e-05
0.0100043
0.00458162
0.00478842
0.00504183
0.00380361
0.00456444
0.00647843
0.00734817
1.97731e-05
0.00190558
0.000201056
2.81519e-05
2.88949e-05
0.0672563
0.0826037
0.0839176
0.084863
0.0863264
0.0864608
0.0855768
0.07483
0.063027
0.0581208
0.0409791
0.000640987
0.00040227
1.11366e-06
0.000511832
0.00989077
2.20338e-05
0.00247453
0.0020661
0.00201262
0.00256333
0.00255892
0.00118242
0.00222962
0.000115602
5.51451e-06
5.90862e-05
8.51338e-07
0.067714
0.0822515
0.0846591
0.086117
0.0868584
0.0860202
0.0846351
0.0745191
0.06326
0.0591463
0.0428177
0.0217783
0.00343966
5.1537e-05
0.000160308
0.000284951
0.01111
3.05563e-05
0.00139028
0.00112004
0.00110091
0.00137066
0.000939421
0.000182852
5.59042e-05
8.2065e-06
4.73077e-05
1.08542e-05
6.99537e-05
0.0687569
0.082653
0.0854601
0.0872268
0.0866957
0.085348
0.0837304
0.0744635
0.0626691
0.0603219
0.0446066
0.0261291
0.00416633
0.000104351
2.48958e-07
0.000746223
0.0185194
0.000271229
0.00234309
0.00167366
0.00104764
0.000980784
0.00110778
0.000121105
2.03612e-05
1.37454e-06
6.20679e-05
8.90014e-08
8.91977e-05
7.62867e-05
0.070279
0.0837196
0.0860457
0.0877128
0.0862639
0.0846562
0.083269
0.0745621
0.0620585
0.0607215
0.0466178
0.0289843
0.0093349
0.000904808
1.0708e-05
2.49694e-06
0.00137569
0.04828
0.00131945
0.00267557
0.00107113
0.000775009
0.000529215
0.000158296
3.47451e-06
1.41462e-06
5.00661e-05
4.33311e-07
0.000122147
0.000120237
1.58901e-06
0.0731517
0.0853459
0.0872279
0.087538
0.0856278
0.0842161
0.0836246
0.0748479
0.0617478
0.0610178
0.0474855
0.0303105
0.0107813
0.00127071
0.000243779
1.99576e-06
9.09908e-06
9.64675e-05
0.00278968
0.00189193
0.000938945
0.000528664
0.000324463
1.86152e-05
1.82701e-06
3.60014e-05
1.7977e-05
1.90096e-06
0.000110538
0.000112552
2.03572e-06
0.00016349
0.0753597
0.0872781
0.0875844
0.0867454
0.0850169
0.0842401
0.0842883
0.0753211
0.0621331
0.0611804
0.0477706
0.0299819
0.0103444
0.00236523
0.000192482
5.6176e-05
5.4894e-06
2.26195e-05
0.00196996
7.67734e-05
0.000744451
0.000382191
0.000149389
2.18338e-08
0.00012643
0.000182852
8.42141e-08
5.44212e-06
8.26287e-05
0.000116469
2.81908e-06
0.000246394
4.41662e-05
0.0769534
0.0884077
0.0869154
0.0849481
0.0839593
0.084755
0.0851536
0.0758322
0.0632287
0.0613705
0.0474944
0.029396
0.00943914
0.00224422
1.33106e-05
0.000589011
1.37622e-06
6.47841e-05
0.000786021
0.00121051
0.000763449
0.000383073
7.50448e-05
3.43792e-05
0.000375844
0.000181686
8.33504e-06
2.99074e-06
3.9733e-05
0.000108676
3.97285e-06
0.000195311
1.65667e-05
0.000845794
0.0775806
0.0888397
0.0857723
0.0831017
0.0834933
0.0859503
0.0859932
0.076202
0.0646996
0.0615552
0.0472109
0.0287637
0.00955543
0.00217981
4.52888e-05
0.000219464
4.48138e-05
1.11463e-06
0.000115352
0.00472123
0.000216387
0.000479709
2.71474e-05
8.48353e-05
0.000377251
1.5477e-05
1.85945e-05
1.33847e-06
8.56433e-06
8.68821e-05
4.80962e-06
0.000174426
2.52968e-06
0.00234524
0.0010569
0.0773583
0.0884735
0.0846342
0.0816073
0.0841481
0.0872967
0.0863236
0.0763037
0.0660523
0.0617678
0.047349
0.0287154
0.0102247
0.00239098
5.94506e-05
8.36932e-05
0.000288091
1.68305e-05
7.39811e-07
8.14893e-06
0.000650242
0.000309917
4.35027e-07
0.000140569
0.000201232
3.82798e-05
1.74221e-05
2.36827e-05
3.62076e-08
5.53532e-05
6.22368e-06
0.000133655
7.55518e-06
0.00249563
0.00379932
4.41844e-07
0.0766072
0.0879025
0.0835105
0.081309
0.084723
0.0884606
0.0861074
0.0759996
0.0670927
0.061693
0.0479346
0.0299282
0.0116057
0.00297734
1.1472e-05
0.000177051
5.3975e-08
0.000134545
6.68749e-06
1.4163e-06
2.98785e-05
1.65315e-06
0.000130786
0.000183957
0.000110081
1.88088e-06
7.22487e-06
4.77031e-05
2.06168e-06
2.46798e-05
6.19128e-06
9.11241e-05
5.35395e-05
0.0034874
0.00462241
0.000277958
0.00128711
0.0744422
0.0860205
0.0828464
0.0817275
0.0852212
0.0891559
0.0849284
0.0753384
0.0676022
0.0619435
0.0487271
0.0318705
0.0138848
0.00405538
2.73804e-05
5.78033e-05
7.05388e-06
0.000448726
4.67946e-06
1.6624e-08
2.8015e-05
5.93865e-05
0.000647594
0.000168267
2.87689e-05
1.94723e-06
4.72309e-08
4.3407e-05
1.57813e-07
4.3379e-06
4.21534e-06
5.07084e-05
0.000144354
0.00447365
0.0061322
0.00120479
0.00159369
0.00359393
0.0736447
0.0846779
0.0822075
0.0822057
0.0856049
0.0888487
0.0837865
0.0746398
0.0682245
0.0600945
0.0493341
0.0341177
0.016381
0.00540731
0.000312568
9.62452e-07
2.96035e-05
9.38027e-06
2.65561e-06
1.61439e-06
3.38145e-06
0.000388306
0.000488317
6.48423e-05
5.79184e-09
4.77693e-06
2.31783e-08
2.95505e-05
1.92004e-05
5.89461e-07
2.50346e-06
2.65091e-05
0.000275613
0.00559339
0.00731651
0.00272948
0.000102755
0.0066252
0.00536081
0.0741691
0.0845385
0.0835614
0.0837761
0.0858624
0.0881141
0.0826325
0.0742116
0.0676038
0.0587206
0.0493638
0.0354681
0.0186614
0.00654421
0.000968898
0.000219167
0.000570954
2.50337e-05
0.000237688
3.42835e-06
1.02453e-05
0.000261972
0.00015363
1.88402e-07
2.60841e-05
1.11301e-05
5.86145e-08
4.33294e-06
5.89595e-05
5.78475e-06
1.69559e-06
1.16731e-05
0.000498288
0.00651788
0.00856271
0.0042432
3.82483e-05
0.00243816
0.0110599
0.00630294
0.0757188
0.0851784
0.0847055
0.085064
0.085927
0.087471
0.0819578
0.0736258
0.0675542
0.0575129
0.0480701
0.0363782
0.0200305
0.00732397
0.00149399
0.000668298
0.00152491
0.000466706
1.55961e-05
8.43421e-05
4.63136e-06
6.57193e-05
2.56661e-06
4.46999e-05
6.79664e-05
1.05806e-05
1.35642e-07
4.11599e-07
6.96614e-05
1.92062e-06
2.95952e-06
1.22686e-06
0.000952163
0.00670097
0.0097961
0.00534032
0.000549466
0.0013949
0.00545236
0.0136876
0.00685535
0.0769807
0.0861333
0.0854022
0.0850374
0.0853696
0.0865504
0.0816777
0.0734553
0.0670947
0.0564275
0.0463474
0.0358867
0.0203737
0.00783271
0.0019522
0.00073721
0.0021936
0.00100184
0.000602296
0.000664855
1.09693e-06
6.20579e-05
4.20165e-06
2.19419e-05
9.89359e-05
7.30509e-06
6.51079e-06
1.63111e-05
5.57677e-05
6.04078e-06
8.10569e-06
2.92975e-06
0.00178493
0.0059907
0.0109286
0.00647867
0.0014783
0.000448853
0.00449865
0.00754143
0.015239
0.00766319
0.080275
0.0867378
0.085262
0.0847464
0.0851854
0.0857872
0.0817556
0.0734427
0.0670261
0.0547375
0.0441725
0.0335082
0.0193781
0.00735344
0.00236728
0.000652515
0.00194502
0.00160004
0.00162227
0.000203695
1.25517e-05
1.07843e-05
2.40241e-07
0.000152424
0.000113777
3.38952e-06
9.37557e-06
9.01591e-06
4.49221e-05
5.15112e-05
1.63408e-05
2.33101e-05
0.00336054
0.00484879
0.0116076
0.00738888
0.00260215
2.72193e-05
0.00296117
0.00703543
0.0087533
0.0171794
0.00831448
0.0818305
0.0881954
0.0847233
0.0843066
0.0854056
0.0862653
0.0822091
0.0745486
0.0671393
0.053069
0.0412078
0.0313528
0.0165257
0.0058711
0.00240489
0.000616038
0.001181
0.0013064
0.00187762
0.000222263
5.95112e-05
1.82892e-06
2.75987e-07
0.000306344
6.15564e-05
3.85646e-07
1.07316e-05
1.10493e-05
1.55647e-06
9.75485e-05
1.49847e-05
5.90051e-05
0.00567669
0.00388404
0.0115588
0.00825638
0.00371228
0.000107719
0.00169255
0.00559341
0.00860215
0.010119
0.0190432
0.0068489
0.0818533
0.0879
0.0828255
0.0840449
0.0859974
0.0866884
0.0825989
0.0754048
0.0679573
0.0523865
0.0382473
0.0287039
0.0138403
0.0038885
0.00169797
0.000447113
0.000625119
0.00055956
0.000670917
0.000138885
3.32045e-06
2.23128e-05
2.02838e-13
3.44563e-05
4.08261e-05
1.73974e-06
6.51887e-06
2.60546e-06
9.05748e-08
9.80832e-05
1.12969e-06
9.67266e-05
0.00790928
0.00355799
0.0107038
0.00906206
0.00467856
0.000615929
0.000715261
0.00424574
0.00740882
0.0101285
0.0118068
0.0169543
0.00127312
0.0814168
0.0870634
0.0809333
0.0834825
0.0866367
0.0869324
0.0826932
0.0766455
0.0680474
0.0520308
0.0372208
0.0262087
0.0108652
0.00196672
0.000765926
0.000109462
0.000159035
6.71611e-05
7.26174e-05
1.49421e-06
3.36864e-06
7.42078e-05
3.02943e-05
2.62213e-07
5.95321e-05
1.0338e-05
1.80276e-06
9.46363e-06
4.57572e-06
8.58279e-05
1.69658e-05
0.000126325
0.00861968
0.00488068
0.00924322
0.00982012
0.00544986
0.00140225
0.000141562
0.00286149
0.00629947
0.00899682
0.0121605
0.0112271
0.00571519
0.00297013
0.0798224
0.0862502
0.0805534
0.0842244
0.0875753
0.0868884
0.0826273
0.0780016
0.0682517
0.0517955
0.0372332
0.0258288
0.00840534
0.00060383
0.000143358
5.17085e-06
9.90615e-06
2.35476e-05
3.85816e-05
0.000136657
0.000135428
0.00033195
8.06551e-05
9.50873e-06
3.00965e-05
7.9219e-06
9.57982e-08
3.38156e-06
1.92444e-05
3.17435e-05
8.67643e-05
0.000127865
0.0077777
0.00897947
0.0073454
0.0104619
0.00604448
0.00230846
6.81425e-06
0.00163233
0.00503167
0.00801099
0.011206
0.0121664
0.00389964
0.000988546
0.0146713
0.0789306
0.0849152
0.0810428
0.0848971
0.0879652
0.0861664
0.082421
0.0791899
0.0685505
0.0525665
0.0388597
0.026949
0.00740015
0.000218903
1.68037e-06
6.65088e-05
0.000141366
0.000142134
0.000130634
0.000362402
0.00052159
0.000113366
5.42621e-05
4.03314e-06
1.27709e-08
2.86921e-05
4.1972e-07
1.99961e-06
8.6455e-08
2.43557e-07
0.000165745
0.000169127
0.00632592
0.018564
0.00578155
0.0108686
0.00652947
0.00318844
0.000257848
0.000691878
0.00369156
0.00688371
0.0103867
0.0118632
0.00496764
0.00132284
0.0125538
0.0215174
0.0809439
0.0856666
0.0824946
0.0854673
0.0873871
0.084972
0.0820628
0.0798461
0.0685618
0.053885
0.04189
0.0304274
0.00760546
0.000108307
7.8335e-07
5.15412e-05
0.000188279
0.000215643
0.000119105
0.000290094
0.000392018
1.81283e-05
5.92352e-06
9.41882e-06
2.35289e-05
1.9203e-05
6.53277e-06
1.66241e-07
9.25812e-06
2.72321e-05
0.000233176
0.000357307
0.00549632
0.0329458
0.00441012
0.0109058
0.0070058
0.00394581
0.000789441
0.000140415
0.00237931
0.00567091
0.00936944
0.0116701
0.00551043
0.000939271
0.0135456
0.0202843
0.0236531
0.0832824
0.0876097
0.0849216
0.0864693
0.0866823
0.0838801
0.0822068
0.0807363
0.0680975
0.0549765
0.0453344
0.0338061
0.00957323
7.67594e-05
3.81982e-06
6.14423e-06
8.06525e-05
0.000152656
6.68933e-05
0.0001026
8.5813e-05
2.42396e-05
1.30704e-05
2.59891e-05
2.50211e-05
7.43136e-06
8.9408e-06
3.66536e-08
6.5954e-06
2.84646e-05
0.000407841
0.000866421
0.00504632
0.0457633
0.00438593
0.0105988
0.00756147
0.00454136
0.00148095
4.45977e-06
0.00124071
0.00435807
0.00823811
0.0112401
0.00604825
0.000680594
0.0133879
0.0220544
0.0225234
0.0243096
0.0851114
0.0892113
0.0856254
0.0860768
0.0851284
0.0832322
0.0825799
0.0805198
0.0661024
0.0550831
0.0481714
0.0372133
0.0119887
0.000214818
2.04747e-07
5.63509e-07
6.7393e-06
1.04156e-05
6.60417e-07
1.59071e-06
6.87055e-06
0.000241775
1.23301e-06
7.06566e-06
1.46935e-07
6.46116e-07
1.7048e-05
8.96588e-08
8.56121e-06
2.21017e-05
0.000651029
0.00197014
0.00516565
0.0501281
0.00627538
0.00983349
0.00822415
0.00496515
0.00221791
0.000224151
0.000425904
0.00300806
0.00699399
0.0106217
0.00648889
0.000437861
0.0133528
0.0227628
0.0246269
0.0230603
0.0243751
0.0884478
0.0901034
0.0857348
0.0853859
0.0840217
0.0827005
0.0827523
0.0802778
0.0645614
0.0537705
0.0494239
0.0395673
0.0146133
0.000690589
1.78095e-06
3.38974e-05
6.57031e-08
5.48009e-05
0.000125943
6.84632e-05
0.00011744
0.000347968
7.38694e-05
4.4409e-07
4.5354e-05
2.95105e-05
0.000106407
6.08705e-06
4.70261e-06
1.76843e-05
8.50095e-05
0.00423695
0.00588325
0.0464537
0.0106369
0.00904282
0.00899129
0.00526519
0.00290929
0.000700568
3.51591e-05
0.00173702
0.00564229
0.00981032
0.00682887
0.000253416
0.0132383
0.0235493
0.0257078
0.0252832
0.0230009
0.0239977
0.0881301
0.0909761
0.0856333
0.0849835
0.0838213
0.0832014
0.0845377
0.0798583
0.0622502
0.0525054
0.0495539
0.040012
0.0164793
0.00169388
4.00005e-05
0.00015373
5.16518e-05
0.000140977
0.000360805
0.000205128
0.000118797
0.000254301
5.01105e-05
1.55112e-06
0.000104074
3.79022e-05
2.91134e-05
3.34619e-05
2.28644e-06
4.05987e-07
0.000952699
0.00892073
0.00730827
0.0385769
0.0296567
0.0075253
0.00976859
0.00553943
0.00348757
0.00132944
6.50895e-05
0.000716154
0.00419622
0.00883373
0.00703408
0.000121287
0.013086
0.0243128
0.0268891
0.0264519
0.0253091
0.0225406
0.0232607
0.0876434
0.0900071
0.0842499
0.0848165
0.0837987
0.0838217
0.0857875
0.0798539
0.0604301
0.0505086
0.0486146
0.0378108
0.0166978
0.00286932
0.000333634
0.000169601
0.000166743
2.37096e-05
0.000299333
0.000227166
5.6329e-05
6.77374e-05
5.65915e-06
1.00139e-07
9.28371e-05
1.1825e-06
8.91155e-08
1.07957e-05
2.68188e-06
1.62805e-05
0.00188412
0.0161266
0.0100685
0.0321721
0.058653
0.0063477
0.0104389
0.00590509
0.00390433
0.00202898
0.00042511
0.000118703
0.0027255
0.00768949
0.00710404
4.17737e-05
0.012898
0.0250579
0.0280972
0.0277152
0.0265161
0.0248958
0.0217828
0.0223013
0.0877577
0.0898439
0.0838805
0.0845226
0.0837473
0.0842468
0.0868218
0.0794028
0.0587138
0.0489491
0.0471555
0.0350909
0.0139011
0.0031762
0.000922029
3.84469e-05
0.000210234
3.30852e-06
7.64652e-05
4.95992e-05
6.06645e-06
1.92013e-07
1.27411e-05
2.64948e-05
0.000110647
3.63156e-05
4.6825e-05
1.61795e-05
1.47224e-05
7.17686e-05
0.00168909
0.0179587
0.0169915
0.0294472
0.0797143
0.00760806
0.0106491
0.00648358
0.00414868
0.00273371
0.000999495
2.34178e-05
0.00138191
0.00636537
0.00703597
5.60731e-06
0.0126831
0.025793
0.0293318
0.0290178
0.0278091
0.0261237
0.0241495
0.0208543
0.0212548
0.0891453
0.0902688
0.0841646
0.0846335
0.0836977
0.0845496
0.0876244
0.0792128
0.057536
0.0495444
0.0457004
0.0318349
0.0109704
0.00183296
0.000997945
2.14521e-06
6.18753e-05
4.09122e-05
4.09557e-06
2.28229e-06
1.28171e-05
1.33609e-05
5.03387e-05
6.49177e-05
7.42237e-05
7.96522e-05
7.12875e-05
8.62362e-06
5.3146e-05
0.00022644
0.00227771
1.5149e-07
0.0330551
0.030625
0.0875615
0.0115528
0.0105418
0.00734053
0.00426865
0.00335634
0.00171251
0.000368208
0.00040196
0.00486267
0.00682349
1.47619e-06
0.0124634
0.026513
0.0305929
0.0303533
0.0291409
0.0274248
0.0253659
0.0232033
0.0198833
0.0202567
0.092209
0.0919534
0.0845881
0.0842657
0.0835608
0.0851218
0.0885674
0.0789487
0.0573732
0.0517196
0.0471577
0.0293666
0.00797698
0.000818512
0.000244494
4.44291e-06
1.78103e-06
6.58907e-07
3.62642e-07
2.11588e-05
4.92369e-05
2.31998e-05
4.40029e-05
4.27502e-05
2.91107e-07
3.61469e-05
2.49565e-05
4.9956e-06
3.8151e-07
0.000579279
0.0028533
0.00681121
0.0599645
0.0343047
0.0838558
0.0209196
0.0102295
0.00845655
0.00438248
0.00381024
0.00250758
0.000999808
4.25848e-06
0.00321764
0.00644707
1.82177e-05
0.0122449
0.0272279
0.031873
0.0317268
0.0305081
0.0287694
0.0266593
0.0243758
0.022184
0.0189892
0.019408
0.0951261
0.0942513
0.0852015
0.0834647
0.0832818
0.0855776
0.0890443
0.0788341
0.0574241
0.0542868
0.0487077
0.0293903
0.00687444
0.000327388
3.79157e-05
3.50523e-05
1.53377e-05
2.65742e-05
5.54496e-05
3.10206e-06
5.25562e-05
2.60814e-05
1.62352e-05
6.69296e-08
2.47748e-05
3.29951e-06
1.03853e-05
8.0809e-05
2.00108e-05
0.00106658
0.0037097
0.0105504
0.0760117
0.0409523
0.0750163
0.0496882
0.0100683
0.00970044
0.00462616
0.00403786
0.00333871
0.00179518
0.000228441
0.00163878
0.00585118
4.72512e-05
0.0120513
0.0279344
0.0331838
0.033133
0.0319114
0.0301467
0.0279928
0.0256374
0.0232916
0.0211935
0.0182492
0.0187822
0.0980923
0.0960639
0.085297
0.0826527
0.0830007
0.0861585
0.0889554
0.0775742
0.0568532
0.05675
0.0501032
0.0305122
0.00757269
0.000466392
7.21927e-06
5.0357e-05
1.01154e-05
2.28314e-05
0.000101756
2.10454e-05
1.11465e-05
1.41909e-05
6.5654e-07
3.08713e-05
0.000132481
1.67012e-06
9.0389e-05
8.29399e-05
0.000367655
0.001501
0.00474936
0.0116338
0.0414126
0.0549093
0.0687915
0.0828826
0.0103311
0.0108126
0.00512218
0.0040687
0.00411811
0.0027081
0.000906331
0.000470853
0.00492327
8.40387e-05
0.0118891
0.0286412
0.0345226
0.034574
0.0333486
0.0315621
0.0293612
0.0269409
0.0244983
0.0222163
0.0203284
0.0177311
0.0184379
0.0991947
0.0974027
0.0849442
0.0818477
0.0830056
0.0870991
0.0889172
0.076214
0.056838
0.0583277
0.0509423
0.031314
0.00905109
0.000952892
0.000103677
4.61761e-06
2.21886e-05
1.96551e-11
2.49749e-05
2.08e-05
6.48987e-07
4.5217e-08
6.71709e-06
9.40775e-05
0.000125463
2.50478e-06
0.000117236
5.02069e-05
0.000139924
0.00170592
0.00633861
0.0126465
0.000967396
0.0797969
0.067435
0.102536
0.0143926
0.0115889
0.00596755
0.00402133
0.00469264
0.00375438
0.00181437
4.04053e-06
0.00364173
0.000123131
0.0117585
0.0293542
0.0358913
0.036062
0.0348184
0.0330062
0.0307701
0.0282802
0.0257407
0.0233513
0.0212481
0.0196431
0.0174694
0.0184082
0.100379
0.0976957
0.0841293
0.0814353
0.0828867
0.0879068
0.088484
0.0746286
0.0571761
0.0598057
0.0504865
0.03098
0.0100533
0.00158355
0.000339755
7.00576e-05
6.58154e-06
1.20977e-05
4.88859e-06
6.33679e-06
3.59147e-06
1.14124e-05
3.92602e-05
0.000102482
0.000112907
5.95941e-07
9.06051e-05
8.15046e-07
2.6105e-06
0.00164583
0.009317
0.0142917
0.00730024
0.103748
0.0720739
0.108275
0.0230881
0.0120101
0.00719068
0.00404191
0.00496281
0.0048987
0.00283866
0.000265174
0.00217825
0.000141031
0.0116313
0.0300733
0.0372933
0.0375931
0.036321
0.0344849
0.0322067
0.0296561
0.0270322
0.0245182
0.0222902
0.0204511
0.01919
0.0175032
0.0186945
0.10243
0.0980486
0.0836432
0.0814636
0.0828247
0.0887043
0.0874639
0.0728556
0.0573681
0.0606738
0.0495812
0.0298986
0.0101273
0.00207564
0.000284394
0.00022094
6.56074e-05
0.000133155
6.60754e-06
5.12644e-05
3.32939e-05
8.56639e-06
8.46257e-05
5.53901e-05
3.03565e-05
9.20846e-06
8.10442e-05
3.50774e-05
2.23769e-05
0.000454149
0.014294
0.0160321
0.0150217
0.0967611
0.0824366
0.104888
0.0404248
0.0124703
0.00871909
0.00425588
0.00496684
0.00597147
0.00402812
0.000998361
0.000905826
0.000102298
0.0114758
0.0307962
0.0387235
0.0391741
0.0378618
0.0359907
0.0336748
0.0310669
0.0283597
0.0257307
0.0233672
0.0213875
0.0198817
0.0190096
0.0178451
0.0193458
0.10473
0.0985959
0.0828929
0.081496
0.0832827
0.0892456
0.0866528
0.0707839
0.058259
0.0611506
0.0489366
0.0282806
0.00950349
0.00220439
0.000258494
0.000178671
6.47283e-05
0.00018305
2.45814e-06
3.85859e-05
4.86591e-05
1.07702e-06
9.75731e-05
1.87559e-05
4.14348e-07
3.05965e-05
4.05834e-05
9.65689e-05
1.59344e-06
0.014672
0.0192812
0.0175358
0.0194078
0.0470528
0.0994188
0.0967959
0.0745663
0.013469
0.0103393
0.00477631
0.00484725
0.00673794
0.00548434
0.00192247
0.000165415
2.33978e-05
0.0113179
0.0314989
0.0401658
0.040804
0.0394419
0.0375286
0.03517
0.0325062
0.0297206
0.0269894
0.0244889
0.0223517
0.0206977
0.0195742
0.0191133
0.0185043
0.020368
0.10603
0.0989833
0.0816075
0.0816444
0.0836958
0.0894908
0.0858981
0.0688947
0.0598781
0.06143
0.0486848
0.0278938
0.00851944
0.00185379
0.000179288
0.000140431
2.82701e-05
0.000131972
3.01943e-05
9.85269e-06
1.29977e-05
2.83696e-08
6.41113e-05
9.63349e-07
1.78354e-06
3.67277e-05
6.26806e-07
9.33139e-05
3.78215e-05
0.0106954
0.0190176
0.0188846
0.0212004
0.00414639
0.117608
0.090435
0.101844
0.0157899
0.0117874
0.00568314
0.00477251
0.00707416
0.00711353
0.00300865
4.19881e-06
1.46585e-05
0.0113137
0.0321292
0.0416112
0.0424783
0.0410643
0.0390967
0.0366886
0.033972
0.0311079
0.0282842
0.0256477
0.0233659
0.0215375
0.0202504
0.0195403
0.0195243
0.0195109
0.0217726
0.106541
0.0986414
0.0797549
0.0821122
0.0842428
0.089779
0.0847647
0.0679572
0.0606645
0.0606215
0.0483956
0.0284384
0.00838609
0.00144153
7.69721e-05
8.80289e-05
1.80071e-05
3.06203e-05
1.16636e-05
1.34273e-06
1.15304e-07
1.20305e-07
2.90165e-05
3.12195e-06
3.44052e-07
1.8147e-06
3.47498e-05
9.12828e-05
0.000223801
0.00473825
0.0139014
0.0210274
0.0227583
0.0027696
0.123352
0.0890778
0.113462
0.0240254
0.0129431
0.00699922
0.00489652
0.00704958
0.00859198
0.00446578
0.000166994
0.000207302
0.0116762
0.0326683
0.0430245
0.0441927
0.0427246
0.0406974
0.0382349
0.0354578
0.0325245
0.0296022
0.0268505
0.0244237
0.0224227
0.0209657
0.0200734
0.0198172
0.0202659
0.0208673
0.023599
0.10743
0.0983626
0.0778841
0.082581
0.0850797
0.0895728
0.0838796
0.0683838
0.0619601
0.0587351
0.0475314
0.0292465
0.00921179
0.0012637
7.00933e-06
4.52765e-05
1.01907e-05
9.77319e-06
1.74563e-06
1.33141e-06
2.70307e-06
1.78081e-06
1.54088e-06
1.21603e-05
6.40257e-07
9.97729e-07
7.29592e-05
0.000198444
0.000710777
0.00303411
0.00102869
0.0256567
0.0242711
0.012569
0.103679
0.0966324
0.114947
0.0393919
0.0139462
0.00871533
0.00530047
0.0069169
0.00952669
0.00642811
0.000452229
0.000553056
0.0125703
0.0331969
0.0443752
0.0459418
0.0444141
0.0423309
0.0398123
0.0369688
0.033963
0.0309486
0.0280859
0.0255134
0.0233612
0.021719
0.0206507
0.0202051
0.0204108
0.0213448
0.0225832
0.0258255
0.109261
0.0986952
0.0770902
0.0831238
0.0859397
0.0886455
0.0831232
0.0689745
0.0637215
0.0565404
0.0461532
0.030313
0.0103496
0.00164013
1.9731e-06
2.29762e-05
2.00593e-05
2.25712e-05
1.15522e-06
2.77176e-09
6.66285e-08
4.09655e-06
1.31825e-05
1.5703e-05
8.56362e-06
2.32906e-06
1.53077e-05
0.000575923
0.00177784
0.00343804
0.0647835
0.0305567
0.0257656
0.0195511
0.0525509
0.11115
0.110617
0.0636932
0.0154222
0.0107388
0.00602636
0.006907
0.00979612
0.00863605
0.00094133
0.000797243
0.013902
0.0339196
0.0456267
0.0476884
0.0461342
0.0439949
0.0414146
0.0385071
0.035427
0.0323216
0.0293469
0.0266412
0.0243306
0.0225137
0.0212663
0.0206219
0.02064
0.0213375
0.0228041
0.0246825
0.0284718
0.112203
0.0999521
0.0770839
0.0835199
0.0867582
0.0874804
0.0820353
0.0701489
0.0652692
0.0563191
0.0439031
0.0294591
0.0117699
0.00249802
4.38697e-06
5.64111e-07
3.63491e-05
0.000108406
6.0396e-06
9.41056e-08
4.01898e-07
1.31369e-06
2.59447e-05
1.0882e-05
3.3004e-05
1.19985e-07
1.0429e-05
0.000612135
0.00444095
0.00509707
0.0813863
0.0301834
0.0270065
0.0235769
0.0093705
0.125112
0.100653
0.0925138
0.0182525
0.0128466
0.00713048
0.00714638
0.00968453
0.0104186
0.00191666
0.00083901
0.0151315
0.035074
0.0467965
0.0493919
0.0478642
0.0456784
0.0430424
0.040074
0.0369119
0.0337168
0.0306331
0.0277968
0.0253371
0.0233541
0.0219146
0.0210813
0.0208958
0.0214081
0.0226332
0.0246574
0.0271713
0.0315268
0.115141
0.102533
0.0779863
0.0836033
0.0873448
0.0865929
0.0810486
0.0710698
0.0662244
0.057393
0.0442581
0.0268309
0.0111422
0.00304302
1.86077e-05
1.66519e-05
4.03801e-06
0.000174117
9.68135e-06
1.57863e-08
1.90222e-06
1.10062e-06
2.29253e-05
1.39089e-06
6.12792e-05
1.7901e-07
1.51522e-05
0.00181278
0.0126155
0.00840356
0.0604433
0.0209217
0.0284828
0.0265318
6.84327e-05
0.129351
0.0936844
0.108326
0.0240139
0.0148476
0.00868428
0.00767501
0.00958457
0.0112974
0.00349859
0.000892506
0.0155393
0.0366477
0.0480325
0.0509975
0.0495784
0.0473665
0.0446836
0.0416522
0.0384184
0.0351284
0.0319422
0.0289807
0.026376
0.0242261
0.0226151
0.0215855
0.021205
0.0215093
0.0225356
0.0243063
0.0268921
0.030024
0.0348995
0.119164
0.104787
0.0793133
0.0835893
0.0874888
0.0861518
0.0806784
0.0716408
0.0656088
0.0579546
0.046928
0.0247959
0.00851439
0.0027267
0.000117017
1.10589e-05
3.07588e-05
0.000158288
8.74031e-06
1.44542e-07
5.57796e-06
2.65643e-05
7.87702e-06
5.59049e-07
6.15328e-05
1.62192e-06
5.19951e-05
0.00566139
0.0334046
0.0140922
0.0462452
0.00138492
0.0308172
0.0287184
0.00765845
0.114682
0.0957097
0.114307
0.0370602
0.0168435
0.0107495
0.00847977
0.00978001
0.0114083
0.00519182
0.00128251
0.0149419
0.0381127
0.0495745
0.0524875
0.0512291
0.0490379
0.0463228
0.0432373
0.0399379
0.0365643
0.0332714
0.030188
0.0274416
0.0251408
0.0233488
0.0221403
0.0215614
0.0216647
0.0224715
0.0240308
0.0263688
0.0295105
0.0332071
0.0385008
0.122839
0.107495
0.0797549
0.0827867
0.0869236
0.0859602
0.0808057
0.0722122
0.0640243
0.0580247
0.0483484
0.0284331
0.00458494
0.00139084
0.000128645
8.64067e-05
9.98958e-05
2.72964e-05
6.66292e-06
5.19086e-06
1.32736e-06
2.73393e-05
1.50417e-06
2.03091e-06
1.25229e-05
0.000116236
4.1349e-06
0.00759864
0.0524128
0.0258982
0.0418596
0.0295748
0.0336436
0.030664
0.0175334
0.0762559
0.105278
0.111568
0.0571193
0.0192795
0.0132857
0.00961739
0.0103206
0.0113313
0.00623061
0.00220089
0.014098
0.0386416
0.0514723
0.0539693
0.0527627
0.0506466
0.0479289
0.0448177
0.041465
0.0380168
0.0346225
0.0314243
0.028543
0.0260796
0.0241183
0.0227256
0.0219567
0.0218541
0.0224547
0.0238004
0.025913
0.0288139
0.0324995
0.0366372
0.042208
0.126728
0.109812
0.0795593
0.0817259
0.0857496
0.0859745
0.0807905
0.0733798
0.0629205
0.0567691
0.0488128
0.0311049
0.00523654
0.000164282
9.80342e-05
0.000313139
2.62063e-05
2.61094e-05
2.70441e-07
1.1535e-05
1.52442e-06
4.76376e-06
1.19355e-08
9.71844e-08
1.56111e-05
0.000458098
0.000118856
0.00713509
0.013225
0.0538293
0.0448726
0.123576
0.0339433
0.0325796
0.0247823
0.0300904
0.116164
0.100011
0.0792696
0.0228598
0.0161105
0.0112173
0.0111542
0.0115629
0.00640443
0.00334134
0.0140581
0.0379162
0.0532141
0.0557086
0.0541244
0.052134
0.0494673
0.0463737
0.0430015
0.0394937
0.0360084
0.0326894
0.0296765
0.0270504
0.0249286
0.0233471
0.0223893
0.0220784
0.0224744
0.0235964
0.0255005
0.0281977
0.0316321
0.0357926
0.0402287
0.0458644
0.12936
0.112199
0.0790565
0.0807455
0.0848375
0.0863109
0.0808004
0.0739086
0.0634952
0.0559677
0.0463987
0.0318529
0.00893344
3.7347e-05
6.74096e-06
0.000523796
5.9663e-05
8.56977e-05
1.32031e-07
9.61303e-06
7.63559e-06
4.56527e-06
1.39221e-06
1.69368e-07
5.13224e-05
0.000662491
4.59533e-05
0.0041352
0.000102859
0.101984
0.059225
0.134217
0.0275661
0.0347909
0.0299403
0.00369028
0.127857
0.087146
0.0934051
0.0289494
0.0190295
0.0133854
0.0123338
0.0121979
0.00621746
0.00393814
0.0149149
0.0366682
0.0539505
0.0577728
0.0554218
0.0534211
0.050928
0.0479002
0.0444731
0.0408995
0.0373389
0.0339386
0.0307997
0.0280538
0.025761
0.0240081
0.0228618
0.0223496
0.022538
0.0234469
0.0251238
0.027591
0.0308414
0.0347871
0.039274
0.043846
0.0492927
0.13148
0.113813
0.0777886
0.0805788
0.0839589
0.0873437
0.0810642
0.0740272
0.063824
0.0574633
0.0430457
0.0297965
0.00977989
0.000170356
5.00585e-05
0.000477931
0.000139275
2.45543e-05
9.48497e-07
3.59516e-05
2.77263e-06
8.24609e-06
1.58812e-06
1.26054e-09
0.000221554
0.000634477
2.03016e-08
0.00162744
0.00410308
0.115969
0.0819772
0.120603