/*--------------------------------*- C++ -*----------------------------------*\
| =========                 |                                                 |
| \\      /  F ield         | OpenFOAM: The Open Source CFD Toolbox           |
|  \\    /   O peration     | Version:  v2012                                 |
|   \\  /    A nd           | Website:  www.openfoam.com                      |
|    \\/     M anipulation  |                                                 |
\*---------------------------------------------------------------------------*/
FoamFile
{
    version     2.0;
    format      ascii;
    class       volScalarField;
    location    "12000";
    object      I2_2;
}
// * * * * * * * * * * * * * * * * * * * * * * * * * * * * * * * * * * * * * //

dimensions      [0 0 0 0 0 0 0];


internalField   nonuniform List<scalar> 
27324
(
-0.0167949
-0.00186044
-0.0243418
-0.00194343
-0.0259654
-0.00164828
-0.0216045
-0.00175623
-0.02703
-0.00201079
-0.024044
-0.00175888
-0.0286807
-0.00237683
-0.0262516
-0.00122012
-0.0318507
-0.00187739
-0.0295584
-0.00289911
-0.0227226
-0.000861603
-0.0344879
-0.00148845
-0.0316438
-0.00294403
-0.0222263
0.000151555
-0.0285785
-0.000597565
-0.0363011
-0.00193428
-0.0307966
-0.00260904
-0.0144305
0.00305368
-0.0319434
-0.000683127
-0.039053
-0.00125193
-0.0341024
-0.00296035
-0.0170059
0.00425341
-0.00255085
0.019144
-0.0449095
-0.000758432
-0.040149
-0.00194901
-0.0302746
-0.000751336
-0.00887555
0.00261772
-0.000572738
0.0402149
-0.0561303
0.000955264
-0.0423367
-0.00140332
-0.0339852
-0.00263948
-0.0112518
0.00312307
-0.000229847
0.00125068
-0.00690392
0.052804
-0.0586441
0.00128658
-0.0411832
-0.00210538
-0.0290926
0.000632653
-0.00458311
0.00124679
0.00313343
0.00199743
-0.0048333
0.0355515
-0.0706371
0.0192689
-0.0480366
-0.00149088
-0.0307194
-0.00168693
-0.00750258
0.00204015
0.000731442
0.00567921
0.0019169
0.0220289
-0.0232147
0.0369587
-0.0724214
0.0340441
-0.0487192
-0.00135935
-0.0227669
0.00214425
-0.00293949
0.00123701
0.00216259
0.00639753
0.00130165
0.00291002
-0.03073
0.0230125
-0.0335568
0.0607326
-0.0757659
0.0144843
-0.0306928
-0.000435466
-0.00406166
0.00124235
0.00119691
0.00265839
0.00638413
0.00109294
-0.0146672
0.00213841
-0.0314959
0.0220127
-0.0195216
0.0418472
-0.0722894
0.0380275
-0.0262824
0.000963099
-0.00160975
0.00107302
0.00187319
0.00240915
0.0059892
0.000766814
-0.0149256
0.000103772
-0.0260743
0.0200842
-0.0131188
0.00652722
-0.0277708
0.0637207
-0.0727412
0.00929714
-0.00521997
0.000949419
0.000606582
0.0024553
0.00176901
0.00416806
0.000413305
-0.000563579
-0.0234379
0.000119485
-0.0265585
0.0219586
-0.0011579
0.00318517
-0.0215576
0.0530221
-0.0668806
0.0394629
-0.00739267
0.00121131
0.000483263
0.00164564
0.00187769
0.00296975
0.000662224
-0.000606729
-0.0238525
-0.000345288
-0.0252361
0.0027898
-0.0219703
0.00263481
0.00244403
0.0186806
-0.0394975
0.0499694
-0.0579126
0.0149935
-0.0049064
0.00210395
-0.000702072
0.000838986
0.00147872
0.00020912
-0.0175661
-0.000504113
-0.0251172
-0.000326427
-0.0243953
0.00421293
-0.00270361
0.00323322
0.00348918
0.0173552
-0.0298467
0.0377101
-0.049804
0.0709067
-0.0577924
0.00862277
-0.0201255
0.00182821
-0.0334766
0.00224232
-0.0183472
-0.00047164
-0.0250317
-0.000503527
-0.023526
0.000213822
-0.023451
0.00327235
-0.00316996
0.00438399
-0.0164296
0.0237974
-0.0299881
0.0402717
-0.0639105
0.067813
-0.0792659
0.0575563
-0.0432717
0.043076
-0.0127298
-0.000356389
-0.0251726
-0.000520195
-0.0240169
-0.000533562
-0.0229796
0.000565618
-0.0165336
0.00691981
-0.0131745
0.00527282
-0.016128
0.0215083
-0.0262184
0.0340165
-0.0471219
0.0513174
-0.0624129
0.0399142
-0.0614424
0.032778
-0.00759862
-0.000312539
-0.0253316
-0.000398431
-0.0238256
-0.000562187
-0.0230897
-0.000484893
-0.0203545
0.00188721
-0.0150582
0.030538
0.00601156
0.0145626
-0.0227439
0.0290305
-0.0366557
0.0450353
-0.047671
0.04896
-0.0439832
0.0336089
-0.0320898
0.00207544
-0.018871
-0.000239973
-0.0245581
-0.000395899
-0.023158
-0.000664204
-0.0236899
-0.000594489
-0.0137481
0.00376318
-0.0259756
0.0549138
0.00258451
0.0105581
-0.0248659
0.0407407
-0.0526919
0.055922
-0.052442
0.0412891
-0.0266359
0.008608
0.0177202
0.0224835
-0.018538
-0.000229079
-0.0243333
-0.000308587
-0.0236371
-0.000618182
-0.024111
-0.0010661
-0.0142032
0.00820502
-0.0124539
0.0373792
-0.0827701
0.0118432
-0.000529093
0.00486071
-0.0322238
0.00288721
-0.0497872
0.0164644
-0.0189361
0.00102481
-0.00458975
0.0923252
-0.0636823
-0.000306291
-0.0245704
-0.000267254
-0.0237413
-0.000318225
-0.0246852
-0.000891034
-0.0193679
-0.000999738
-0.0121665
0.00152
-0.0262946
0.0468714
-0.100107
0.000868737
-1.11944e-05
0.000844366
-0.00170764
0.00221998
-0.0015589
0.000891119
0.000131708
0.00021414
-0.0499263
0.103873
-0.0455236
-0.000277572
-0.023966
-0.000283424
-0.0240176
-0.000251124
-0.0250549
-0.000732203
-0.0193455
-0.00104285
-0.0128761
0.000279847
-0.00864885
0.0348377
-0.0538131
0.0640672
-0.00103256
0.000331438
-0.000276293
0.00173591
-0.000752013
0.00134289
0.000603625
3.66428e-05
-0.0256734
0.0772705
-0.0770441
0.0124008
-0.0172226
-0.00023476
-0.024024
-0.00025056
-0.0251438
-0.000290672
-0.0244352
-0.000945447
-0.0146923
-0.000983781
-0.00774842
0.000765728
-0.0261682
0.0436788
-0.0530682
0.00649127
-5.40759e-06
0.000477086
-0.00125967
0.0018663
-0.00107731
0.000756169
4.01328e-05
0.00300343
-0.0633753
0.0751784
-0.0369501
0.00202219
-0.0175257
-0.000180822
-0.0243805
-0.000242366
-0.0253751
-0.000283355
-0.0241092
-0.000776466
-0.0148556
-0.0010244
-0.00827115
-0.000127741
-0.00180073
0.0343203
-0.0555158
0.0503952
0.00114907
3.33969e-05
-0.000888338
0.00192718
-0.00161043
0.00127103
-0.000110522
7.16035e-07
-0.0353371
0.0787219
-0.0493984
0.0100668
-0.00045483
4.28651e-05
-0.0237073
-0.000179501
-0.025551
-0.000235712
-0.0246218
-0.000473044
-0.0196498
-0.000875904
-0.0136791
-0.000486739
-0.0041682
9.26786e-06
-0.0203005
0.0407952
-0.0696491
0.0578328
-4.45728e-06
0.000283094
-0.00137602
0.00191448
-0.00148036
0.00070807
1.19042e-06
0.00947624
-0.069819
0.0660665
-0.0179989
0.00208942
-0.000221568
0.000215903
-0.0242699
-4.70367e-05
-0.0258365
-0.000212833
-0.0242696
-0.000460809
-0.0197194
-0.000755503
-0.0139028
-0.000558704
-0.00487909
0.000163391
-5.85334e-05
0.0331969
-0.048361
0.0739792
-0.0124772
5.08147e-05
-0.000512117
0.0019374
-0.00175494
0.00132819
-8.98906e-05
0.000325833
-0.0511338
0.0749647
-0.0345164
0.00338584
-0.000686183
0.000181747
-0.0201473
0.000181109
-0.0258519
-5.64964e-05
-0.0248951
-0.000322055
-0.0237177
-0.000648564
-0.0146354
-0.000909996
-0.00960962
0.000138958
-0.0014072
1.60147e-05
-0.0140945
0.0382705
-0.0549006
0.0400423
-0.00015532
0.000169948
-0.00162659
0.00207216
-0.00174587
0.000660064
2.46768e-09
0.0248692
-0.0766146
0.0515859
-0.00876833
0.000601622
-0.000508131
0.000106684
-0.021177
0.000289915
-0.0261483
8.68698e-05
-0.0246887
-0.000252187
-0.0240827
-0.000650285
-0.0148172
-0.000840059
-0.00971094
0.000118743
-0.00152727
0.000153912
-3.39643e-05
0.0284061
-0.0461948
0.0584385
-0.0085703
7.80562e-07
-0.00101515
0.00217449
-0.00211461
0.00142816
-2.73582e-05
0.00461752
-0.0684388
0.0662346
-0.0186867
0.00130784
-0.000250601
0.000399014
-3.99316e-05
0.000516147
-0.026644
0.000318924
-0.0249399
1.53409e-05
-0.0245714
-0.000288123
-0.0202924
-0.000631053
-0.0143891
-0.000637087
-0.00492297
0.000647126
-0.000371907
2.35982e-07
-0.00622702
0.0357442
-0.0577124
0.0580164
-0.000274145
0.000166846
-0.0019774
0.00238113
-0.00204431
0.000437125
-5.77706e-05
0.0498271
-0.0755335
0.0333824
-0.00302655
0.000307351
-0.000186897
0.000242228
-2.59185e-05
0.000386967
-0.0268383
0.000373025
-0.0242043
0.000137703
-0.0252665
-8.22394e-05
-0.020586
-0.000547398
-0.0145106
-0.000602228
-0.00468718
0.000517199
-0.000450879
8.39308e-06
-3.27944e-06
0.021961
-0.0450285
0.06229
-0.0242433
3.20767e-06
-0.00128797
0.0025392
-0.00249232
0.00121549
-6.29153e-08
0.0247046
-0.0777948
0.0494601
-0.00730632
0.000438679
-0.000176473
0.000183314
-0.000148587
2.34447e-05
-0.0216392
0.000224484
-0.0249753
0.000291438
-0.0246544
0.000253325
-0.0255348
-0.000196033
-0.0165705
-0.000657803
-0.00971862
-0.00018652
-0.00129719
0.000372315
-2.68731e-05
7.66085e-07
-0.00188822
0.0348526
-0.0548577
0.0472598
-0.000358884
0.000278072
-0.00258427
0.00277918
-0.00186935
4.99295e-05
-0.00521524
0.0707421
-0.063506
0.0156706
-0.000869314
0.000153102
-0.000231899
4.00081e-06
-0.000303916
3.17961e-05
-0.0210702
5.14911e-05
-0.024304
0.000306499
-0.0249666
0.000410854
-0.0256266
0.000114125
-0.0172447
-0.00048171
-0.0099684
-0.000252359
-0.00135205
0.000288747
-5.07879e-05
4.51855e-06
-4.93863e-09
0.019392
-0.0456792
0.0595822
-0.0144311
5.02267e-07
-0.00221236
0.00297481
-0.00227812
0.000433007
-0.000124586
0.0531586
-0.0733448
0.0282988
-0.00206483
0.000159607
-0.000209656
4.23639e-06
-0.000389132
0.000148777
3.27643e-05
-0.000352688
-0.0251074
4.82515e-05
-0.0235408
0.000371232
-0.0270793
0.000517079
-0.0211289
0.000294289
-0.0152125
-0.000378984
-0.00539304
-1.02002e-05
-0.000402165
5.58593e-05
-1.78869e-05
1.76224e-06
-0.00155951
0.0329045
-0.0558913
0.043001
-0.000108876
0.00097421
-0.002981
0.00249324
-0.00107813
2.31006e-09
-0.0283983
0.0774135
-0.0431432
0.0050007
-0.000239852
0.00015576
-0.000342028
-4.74279e-05
-0.000213173
0.000187068
0.000208578
-0.00046748
-0.0243655
-0.000165923
-0.0236173
0.000271989
-0.0269466
0.000608828
-0.0211281
0.000653143
-0.0149243
-7.85416e-05
-0.00607042
-7.25987e-05
-0.000429071
4.78033e-05
-3.44928e-05
3.48273e-05
-3.40814e-08
0.015111
-0.0466007
0.0550569
-0.00696637
2.11653e-05
-0.00260753
0.00257969
-0.00168521
4.24045e-05
-0.00758694
0.0734126
-0.0572473
0.0110595
-0.000507517
9.3559e-05
-0.000452938
-6.77676e-05
-0.000378507
0.000114958
0.000489532
0.000425925
-0.0197166
-0.000320902
-0.0238735
-0.000100529
-0.0252122
0.000282522
-0.0243723
0.000853994
-0.0185323
0.000725462
-0.0111514
-7.35748e-05
-0.00249305
-1.05445e-05
-4.49609e-05
3.94436e-05
-0.000115234
5.5764e-07
-0.000675799
0.0328347
-0.0561541
0.0289828
9.20772e-07
0.00142838
-0.00262004
0.0020872
-0.000397428
0.00038676
-0.0593956
0.068403
-0.0210737
0.00124891
-7.27697e-05
-0.000118062
-0.000930433
0.00024794
-0.000189099
0.000218297
0.00112392
0.000548534
-0.0205068
-0.000287528
-0.0243336
-0.000204803
-0.0250999
4.09355e-05
-0.0238181
0.000869577
-0.0186513
0.0010892
-0.0111852
0.000161547
-0.00284069
-3.12657e-06
-5.70006e-05
1.24273e-05
-0.000172945
2.23949e-05
-5.12882e-07
0.0149736
-0.0497025
0.0497047
-0.00289019
0.000167816
-0.00254111
0.00239068
-0.00106754
6.71396e-10
-0.0367612
0.0751489
-0.0340067
0.00323338
-9.42899e-05
-0.000148895
-0.00113197
0.000287225
-0.000283717
0.000194662
0.00036405
0.00180146
0.000553065
-6.84802e-05
-0.0251295
-0.000263956
-0.0245242
-0.000221838
-0.0252987
0.000100632
-0.0204029
0.00111736
-0.0145915
0.000996446
-0.00725897
0.000125618
-0.000705727
5.07872e-06
-2.01098e-05
5.94198e-05
-8.25345e-05
2.20833e-06
-0.00117102
0.037162
-0.0553249
0.022491
1.02519e-07
0.00206194
-0.00260256
0.00175401
-2.28157e-05
0.0138057
-0.075556
0.0475434
-0.00776203
0.000117418
-0.000489107
-0.000122225
-0.000904598
0.000375493
-0.000164214
0.000451903
0.000616423
0.00212976
0.000654858
0.000296279
-0.025553
-0.000136128
-0.0244224
-0.000323362
-0.0248251
-0.000221062
-0.0200437
0.000681637
-0.0139273
0.000985783
-0.0067882
0.000205495
-0.000651903
8.21184e-06
-2.09302e-05
1.43368e-06
-0.000135973
2.85108e-06
2.83029e-06
0.0197965
-0.0540203
0.0441485
-0.00049655
0.000881635
-0.00276152
0.00220967
-0.000309441
0.00186748
-0.0672356
0.0595946
-0.0159418
0.000371719
-0.000408543
-0.000133627
-0.00106016
0.000458424
-0.000259448
0.000341093
0.000527543
0.00098173
0.00219125
0.000823739
-0.0240837
0.000202947
-0.0246798
-0.000157576
-0.0246734
-0.000356451
-0.0231451
-0.000242565
-0.0175597
0.000687308
-0.00912764
0.000622245
-0.00232282
5.60893e-06
-0.000116924
2.12686e-06
-4.08965e-05
3.7114e-05
-0.000142022
1.49693e-06
-0.00454917
0.0448349
-0.0565717
0.0111621
-4.94862e-05
0.00273126
-0.00252586
0.000955908
-1.03127e-05
0.0493668
-0.0687939
0.0275306
-0.00184839
6.27926e-05
-0.00147923
0.000359555
-0.000730464
0.000361923
-0.000103499
0.000620828
0.00072806
0.00120174
0.00257844
0.000638902
-0.0242997
0.000316903
-0.0240206
-1.86637e-05
-0.0250556
-0.000310292
-0.0232391
-0.000468599
-0.017488
0.000155765
-0.00791451
0.000336181
-0.00177629
-3.49587e-06
-7.37285e-05
7.02655e-07
-1.55332e-05
1.19839e-05
-0.000104066
1.00326e-05
-7.5132e-05
0.0288554
-0.0593995
0.0324715
-4.68882e-07
0.0021936
-0.00273201
0.00161977
-6.0687e-07
0.0259834
-0.0737257
0.0408752
-0.00575432
0.000109898
-0.00138222
0.000392286
-0.000888375
0.000481163
-0.000235787
0.000518185
0.000543596
0.00125694
0.00124354
0.00242383
-0.000123066
0.000713483
-0.0260472
0.000242802
-0.0242502
1.31079e-05
-0.0254635
-0.000460601
-0.0206628
-0.000509
-0.0116908
0.000128589
-0.00445519
1.00151e-05
-8.67305e-05
1.3178e-05
-5.47805e-06
3.93493e-06
-4.25495e-06
3.66077e-05
-3.22484e-05
2.42641e-08
-0.0119848
0.0549066
-0.0491294
0.00134535
-0.000923107
0.00287294
-0.00214252
0.000148649
-0.00745408
0.0722337
-0.0541041
0.0136124
-0.000502588
0.000104969
-0.00152698
0.000654646
-0.000614136
0.000363756
-4.47494e-05
0.000778002
0.000756383
0.0015618
0.00115581
0.000805451
-0.00105339
0.000428937
-0.0255231
0.000276838
-0.0246724
0.000184458
-0.0256348
-0.000267694
-0.0212644
-0.000585399
-0.0113887
-0.000125771
-0.00426884
1.6199e-05
-2.00551e-05
7.21844e-06
-1.10114e-06
1.80683e-06
-3.68318e-07
5.28512e-06
-1.95401e-05
1.60445e-06
-0.00151238
0.041314
-0.0570793
0.0137725
-6.37562e-05
0.00284924
-0.00242222
0.000756193
-0.000616561
0.0622633
-0.0651653
0.0261051
-0.0010048
0.000232334
-0.00166886
0.000716184
-0.000765306
0.000470052
-0.000216337
0.000678277
0.000586933
0.00144188
0.00129837
0.000507009
-0.00108628
0.00139117
-0.022127
4.27157e-05
-0.023235
0.000302042
-0.0263696
0.000179445
-0.0236374
-0.000284169
-0.0173832
-0.00045668
-0.00740814
-7.63113e-06
-0.000671062
6.42113e-07
-1.20791e-06
5.73831e-07
1.45926e-06
1.84416e-06
1.31475e-06
1.68228e-05
1.1337e-05
2.37153e-07
-0.0216316
0.0586068
-0.0330709
2.8155e-07
-0.00233713
0.00267233
-0.00141032
9.19714e-08
-0.0441364
0.0731306
-0.0410929
-0.000556888
-0.000836402
0.000524185
-0.00126556
0.000810357
-0.000594217
0.000439791
-2.34965e-05
0.000927301
0.000953474
0.00148921
0.000186014
0.00098759
-0.00281945
0.00126636
-0.0226429
-0.000109242
-0.023701
0.000179111
-0.026132
0.000237604
-0.0237145
5.20022e-05
-0.0176301
-0.000446107
-0.00829931
-4.96633e-05
-0.000722918
1.21674e-07
-1.32361e-07
3.92085e-07
2.5792e-06
3.41543e-06
1.28396e-06
7.57392e-06
2.46286e-06
1.14181e-07
-0.00547874
0.0517513
-0.0486976
0.00153193
-0.00114801
0.00284481
-0.00201725
3.05874e-05
-0.0226983
0.0773875
-0.0567544
-0.000689563
-0.000773431
0.000582179
-0.00137746
0.000899851
-0.000731811
0.000525504
-0.000223966
0.000834993
0.000765989
0.00149384
0.00025165
0.000965623
-0.0028551
0.00169649
-0.0044295
-0.000612201
-0.0257478
-9.0284e-05
-0.0254748
0.000133486
-0.0245509
0.000349676
-0.0232879
3.06718e-05
-0.0125987
-0.000266966
-0.00618951
0.000112993
-3.10039e-06
1.5836e-09
-3.28084e-09
7.24313e-07
1.45534e-06
6.94533e-07
5.42444e-07
1.70797e-05
-9.08002e-06
0.00014159
-0.0360573
0.0575628
-0.0132635
0.00015428
-0.002925
0.00234968
-0.000429597
0.00696168
-0.0766216
0.070243
-0.0142529
0.000638418
-0.00180488
0.000902059
-0.00118868
0.000883201
-0.000654413
0.000563094
-1.91873e-05
0.0011546
0.00110135
0.00076597
-0.000909408
0.0016068
-0.00433047
0.00161244
-0.00445282
-0.000614821
-0.026463
-0.000154648
-0.0251696
-1.68233e-05
-0.0241506
0.000371755
-0.0233533
0.00033027
-0.0129092
-0.000162475
-0.00717512
0.000156035
-1.98275e-05
5.35089e-07
-1.24208e-09
1.79923e-08
-1.37845e-06
1.49799e-06
-6.66941e-07
1.3022e-05
-5.45582e-05
1.6792e-08
-0.0169111
0.0602332
-0.0315654
-6.68452e-08
-0.00263907
0.00261484
-0.00116363
0.000706274
-0.0693489
0.0803147
-0.0293712
0.00078044
-0.00170004
0.000965473
-0.00130032
0.00101571
-0.000799289
0.000636496
-0.000243952
0.00105305
0.000975956
0.000829733
-0.000876972
0.00160497
-0.00446887
0.00133182
-0.00450473
0.000936753
-0.0259109
-0.00015974
-0.024939
-0.000157533
-0.0242141
-8.52529e-05
-0.0239852
0.000554101
-0.016821
0.000213061
-0.0110077
-9.02631e-07
-0.00193478
5.24672e-05
-5.32768e-06
1.97923e-07
-7.63155e-10
1.05095e-06
-5.97422e-06
9.94307e-07
-5.62265e-06
7.94445e-05
-2.31899e-06
0.00382865
-0.0532853
0.047589
-0.000784391
0.00170479
-0.00283414
0.00182126
-1.33789e-06
0.0550499
-0.0871635
0.0419909
-0.00203629
0.000707316
-0.00181002
0.00115048
-0.0011863
0.000971433
-0.000764613
0.000704227
9.33339e-05
0.00134998
0.000400166
0.00085843
-0.00282031
0.00140341
-0.00495569
0.00123718
-0.00443124
0.000869267
-0.0262394
-5.6338e-05
-0.0249343
-0.000160154
-0.0240984
-0.000160075
-0.0245253
0.000123375
-0.015911
0.000242888
-0.0111934
-3.64171e-05
-0.00220557
8.82858e-05
-2.63422e-05
1.92067e-06
3.47025e-07
8.98125e-07
-7.91887e-06
1.18363e-06
-1.73839e-06
5.23471e-05
-1.75738e-05
0.000125274
-0.0369899
0.0576383
-0.00939582
0.000502648
-0.00301649
0.00213227
3.60934e-06
0.0354013
-0.0907172
0.063092
-0.00554661
0.000820445
-0.00198832
0.00124073
-0.00132503
0.00113282
-0.000933028
0.000770652
-0.000165479
0.00127154
0.00041355
0.000829925
-0.00279605
0.00136479
-0.00517595
0.00118741
-0.00470058
0.00144723
-0.00400465
0.000449134
-0.027048
-4.39593e-05
-0.0246056
-0.000151314
-0.0240984
-0.00018133
-0.0225271
1.46251e-05
-0.0114943
6.56541e-05
-0.00727569
-3.34385e-05
-0.000201105
5.4966e-05
2.10133e-06
2.16271e-06
-3.46272e-06
5.26216e-07
-6.04341e-06
2.11423e-07
-1.52804e-05
4.20857e-05
-5.0189e-11
0.0177838
-0.061549
0.0261869
-4.73815e-06
0.00301926
-0.00224717
0.000435464
-0.0166486
0.0897577
-0.0817374
-0.00248168
-0.0013734
0.00121041
-0.00162338
0.00135121
-0.00127993
0.00112415
-0.000898817
0.000860012
0.000401602
0.000973016
-0.000804453
0.00161535
-0.00488065
0.00116139
-0.00523356
0.00110161
-0.00454902
0.00140803
-0.00375689
0.000625442
-0.0270416
3.86475e-05
-0.0245465
-8.01972e-05
-0.0243223
-0.000184261
-0.0222041
-0.000185874
-0.0107593
-7.53829e-05
-0.00639312
-5.19067e-05
-0.000176026
2.78095e-05
-4.94756e-07
3.25463e-06
-9.07541e-07
5.07728e-07
-2.80737e-06
4.16973e-07
-1.9815e-06
3.69536e-05
-3.54776e-07
0.00477609
-0.0558062
0.0424864
-5.07507e-05
0.00252684
-0.00236196
0.000799274
-0.0025887
0.0825902
-0.0921405
0.00172062
-0.00175791
0.00129937
-0.00177194
0.00144408
-0.00144615
0.00131324
-0.00110299
0.000894901
0.000147483
0.000999061
-0.00078928
0.00161749
-0.00501261
0.00108678
-0.00547982
0.00101315
-0.00476952
0.00105256
-0.00389162
0.00071765
-0.0271025
0.000177106
-0.0245251
3.43474e-05
-0.0241885
-5.29486e-05
-0.0258251
-0.000168768
-0.0135425
-0.000196601
-0.00959916
-0.000216909
-0.00113746
3.08052e-05
-3.27009e-05
4.39066e-07
3.71078e-09
2.61706e-07
-3.33183e-08
3.21647e-07
-3.37329e-07
2.25739e-07
-1.58698e-05
1.08487e-05
-0.000304668
0.0398819
-0.0549883
0.00440889
-0.0014034
0.00248286
-0.000771714
8.48657e-05
-0.0700173
0.0958396
-0.0441792
0.00160187
-0.00229685
0.00155104
-0.00163415
0.00157156
-0.00146909
0.00132612
-0.00097217
0.00102867
0.000311488
0.000779489
-0.0026955
0.00122822
-0.00589604
0.000936946
-0.00540131
0.000941225
-0.00455393
0.00100044
-0.00366218
0.000657902
-0.0281111
0.000175058
-0.0247615
7.95845e-05
-0.0241672
1.14777e-05
-0.0263438
-6.65368e-05
-0.0135374
-0.000151675
-0.0100504
-0.000194627
-0.000753345
3.57424e-05
-2.1815e-05
7.01629e-08
-3.17217e-07
6.54027e-07
-3.41877e-10
9.73595e-08
6.32148e-09
1.6731e-07
-3.31745e-06
3.50551e-05
-5.24653e-08
0.020185
-0.0607451
0.0188058
-0.000286949
0.0025782
-0.000797783
0.000562327
-0.0499253
0.0967808
-0.0637965
0.00183671
-0.00229672
0.00166774
-0.00172855
0.0016936
-0.00166141
0.00154847
-0.00122234
0.000988143
0.000223025
0.000776193
-0.00266007
0.00117728
-0.0061535
0.000842292
-0.00565966
0.00084305
-0.00477174
0.000931356
-0.00384434
0.00121897
-0.00302806
-0.000127773
-0.0290604
0.000185157
-0.0242225
4.38878e-05
-0.0250712
8.69548e-05
-0.0222433
-6.18846e-05
-0.0126195
-4.2021e-05
-0.00492168
2.42267e-05
-2.77418e-05
1.15233e-05
-1.45176e-07
1.23912e-07
-9.77023e-07
9.93624e-08
-2.31662e-07
6.37681e-07
5.50686e-08
7.15192e-07
-4.84417e-05
1.6128e-06
-0.00604615
0.0591886
-0.0352126
-8.95057e-08
-0.00228583
0.00144301
0.00106667
0.00549403
-0.0960411
0.06136
-0.0111932
0.00155958
-0.00246259
0.00174916
-0.00185244
0.00185043
-0.00172035
0.00147891
-0.000785495
0.00100324
-0.000775688
0.00162037
-0.00539617
0.000829829
-0.00629246
0.000719754
-0.00549162
0.00078309
-0.00450488
0.000873684
-0.00359029
0.00111503
-0.00284506
-0.000339865
-0.0297683
0.000125704
-0.0238958
7.66383e-05
-0.0253519
7.41531e-05
-0.0217196
0.00011784
-0.0137997
0.000179947
-0.00538183
-1.52193e-05
-2.08007e-05
5.03191e-06
-2.46169e-07
1.38681e-07
-1.11214e-07
1.7089e-06
-3.45266e-07
7.59381e-08
-6.0231e-07
1.65334e-07
-3.30846e-05
3.07902e-05
-0.000642458
0.0469012
-0.0497804
0.00146758
-0.00168247
0.0015902
0.00121113
-0.000386309
-0.0855452
0.0748076
-0.0233907
0.00175185
-0.00272487
0.0018879
-0.00193977
0.00200671
-0.00193431
0.00174162
-0.00110014
0.00097404
-0.000781909
0.00161954
-0.00552191
0.000732499
-0.00659048
0.000610818
-0.0057597
0.000674723
-0.00472544
0.000778163
-0.00375769
0.000772888
-0.00303692
0.000411525
-0.0311812
-8.54153e-05
-0.0247511
8.95925e-05
-0.0240397
9.55406e-05
-0.0265966
-5.81538e-06
-0.0136708
0.000445699
-0.0120613
0.000273626
-0.000900643
-2.35969e-07
-4.50737e-06
1.08104e-06
1.03784e-07
1.59138e-11
-2.09917e-06
1.89123e-07
-1.17819e-09
2.26902e-06
-1.83994e-07
1.24771e-05
-7.49051e-05
2.76844e-06
-0.0285452
0.058334
-0.0125854
0.00100481
-0.000356762
0.00165283
-0.000733486
0.0494027
-0.0954749
0.00274807
-0.0034845
0.00206852
-0.00222077
0.00198873
-0.00220264
0.00215718
-0.00193395
0.00138827
-0.000338744
0.000805205
-0.00257541
0.00100292
-0.00699059
0.000525856
-0.00651749
0.000512364
-0.00550911
0.000622276
-0.00442243
0.000713538
-0.00350254
0.000668485
-0.00288348
0.000312957
-0.0320971
-4.51863e-05
-0.02432
9.43191e-06
-0.023968
0.000155857
-0.0264634
-7.07666e-05
-0.0136581
0.00034472
-0.0120107
0.000602096
-0.00116824
2.64631e-05
-6.26332e-06
1.1515e-06
-3.38135e-07
-3.62932e-10
-2.20403e-08
8.47753e-07
4.39186e-09
2.06798e-06
-6.58434e-07
2.12157e-06
-8.24038e-05
2.17805e-07
-0.0121887
0.0600211
-0.029889
0.000242165
0.000184652
0.00195585
0.000561422
0.0166564
-0.0963915
0.0189641
-0.00532645
0.00220088
-0.00248724
0.00209032
-0.002323
0.00233915
-0.00216316
0.00166865
-0.000634297
0.000830677
-0.00254894
0.000933679
-0.00729209
0.000406972
-0.0068319
0.000390817
-0.00578098
0.000506432
-0.00463934
0.000620075
-0.00365753
0.000623881
-0.00297178
0.000699828
-0.00261759
0.000417064
-0.0307678
-6.83209e-05
-0.0232047
2.47685e-05
-0.0265764
0.000262949
-0.0195897
-0.000115617
-0.0149729
0.000443377
-0.00575065
0.000272085
-0.000166216
8.10038e-06
-3.35804e-06
5.93347e-09
-1.53274e-06
2.40235e-08
3.12705e-08
1.92132e-07
-3.50253e-07
1.34665e-06
-6.48271e-07
3.42486e-05
-1.6226e-05
0.00311603
-0.0532866
0.0450546
7.94643e-06
0.0028279
0.00199071
0.00188456
-0.0288542
0.071403
-0.0694648
0.00174838
-0.00327495
0.00239786
-0.00223754
0.00235151
-0.00261574
0.00240647
-0.00189434
0.0010448
-0.000859493
0.0016015
-0.00589466
0.000395771
-0.00758743
0.000250618
-0.00664543
0.000313266
-0.00546198
0.000458197
-0.00431451
0.00055042
-0.0034108
0.000516564
-0.00284834
0.000542854
-0.00267543
0.000255965
-0.0311357
1.29601e-05
-0.0232052
-1.92721e-05
-0.0267279
0.000327293
-0.0188564
-7.08593e-05
-0.0149085
2.83481e-05
-0.00510267
0.00020194
-0.00017549
8.93913e-06
-4.01639e-06
3.74935e-07
-2.47933e-06
1.57977e-07
2.12753e-07
5.04552e-07
-6.44897e-09
2.01e-06
-2.56876e-07
5.79758e-06
-6.41868e-05
0.000256206
-0.0395037
0.055903
-0.0104894
0.00340273
0.00228827
0.00270536
-0.0108339
0.0511822
-0.0798169
-0.00199171
-0.00357472
0.00257327
-0.00241186
0.00243747
-0.00279448
0.00259791
-0.00211843
0.0012118
-0.000927395
0.00158999
-0.00601124
0.000270154
-0.00795865
0.000119425
-0.00697048
0.000182009
-0.00573366
0.000337576
-0.00452524
0.000456051
-0.0035576
0.000449486
-0.00294106
0.000310961
-0.00272306
1.57588e-05
-0.0345612
0.000158018
-0.0234314
1.43089e-05
-0.0241579
2.61599e-05
-0.0253669
0.000203999
-0.0147525
-0.000230162
-0.0104751
4.29466e-05
-0.000894387
4.54025e-05
-4.97279e-06
4.82082e-07
-2.59711e-07
3.93005e-08
-2.63846e-07
3.10184e-08
-1.07605e-06
-4.01949e-12
-1.4942e-06
4.50087e-07
-2.83444e-07
8.62239e-05
-5.07884e-08
0.0229404
-0.0610497
0.0429576
0.0025683
0.00283598
0.0030868
0.00198185
-0.0640846
0.0629889
-0.0331048
0.00285008
-0.00347816
0.0025586
-0.00255233
0.00272852
-0.00294728
0.00238299
-0.00140853
0.00102178
-0.00246318
0.000698086
-0.00825563
1.11614e-05
-0.00788101
-2.5813e-06
-0.00667981
0.000122705
-0.00536358
0.000292877
-0.00419151
0.000384959
-0.00332727
0.000345384
-0.00284984
0.000191451
-0.00280329
-7.50233e-05
-0.0346813
3.63884e-05
-0.0226468
8.88366e-05
-0.0244883
-4.02391e-05
-0.0246926
0.000209892
-0.015383
-3.52125e-05
-0.0102905
-0.000142298
-0.000796382
2.53451e-05
-1.4502e-06
-9.44869e-09
-7.98574e-08
1.00259e-07
-4.33005e-08
-1.15776e-09
-1.14991e-06
1.17061e-08
-2.44044e-07
1.08686e-06
-1.20224e-08
6.25846e-05
-1.04652e-05
0.00993908
-0.0606836
0.058991
0.00163756
0.0032558
0.00343311
0.000847187
-0.047482
0.0663379
-0.046222
0.00316162
-0.00376987
0.00275646
-0.00265421
0.00280681
-0.00320074
0.00258413
-0.00157367
0.00113378
-0.00248752
0.000623837
-0.00858539
-0.000128484
-0.0082716
-0.000140511
-0.00700953
-1.43849e-05
-0.00563021
0.000170792
-0.00439243
0.000292776
-0.00346229
0.000286764
-0.00292433
0.000173724
-0.00284006
8.25893e-05
-0.00339569
-2.54131e-05
-0.0307828
2.90763e-06
-0.0238465
0.000125497
-0.0268402
-0.000123749
-0.0179208
0.000584255
-0.0146183
-0.000171648
-0.00477391
-1.79227e-05
-5.69001e-05
1.22737e-07
-2.98897e-07
6.71134e-08
-1.28728e-07
1.81043e-09
-1.50369e-09
3.52918e-07
-4.07477e-08
8.64733e-09
-1.78985e-06
9.02471e-09
-1.79317e-05
0.000114182
-0.00321797
0.0545951
-0.0708386
0.000184867
0.00410177
0.00378613
0.00129691
-0.00322277
-0.0855801
0.0216293
-0.00919593
0.00305421
-0.00325623
0.00275403
-0.00302458
0.00297476
-0.00288961
0.00173441
-0.00120877
0.00148146
-0.00627189
-0.000109075
-0.00920487
-0.000292399
-0.0080533
-0.000232724
-0.00663011
-5.733e-05
-0.00522649
0.000131318
-0.00406079
0.000225003
-0.00325653
0.000190942
-0.00287517
6.50325e-05
-0.00298886
-5.39076e-05
-0.00386319
-2.94778e-05
-0.0309567
-3.70932e-05
-0.0239609
0.000173334
-0.0265363
-0.000120111
-0.0179851
0.00025373
-0.0142494
0.000247855
-0.00508264
-1.80297e-05
-6.82518e-05
2.01427e-08
-1.68362e-07
1.36552e-07
-3.50205e-07
-1.02228e-09
-1.77247e-10
9.54872e-09
-2.06802e-08
4.85404e-08
-9.75737e-07
9.40672e-08
-2.21265e-06
0.000195695
-0.000786326
0.0453969
-0.078037
-0.00201599
0.00534045
0.00413826
0.00270288
0.00179276
-0.0764375
0.0346975
-0.0152702
0.00320217
-0.00363301
0.00289623
-0.00308299
0.00303651
-0.00320446
0.00188857
-0.00125254
0.00138534
-0.00638566
-0.000223684
-0.0096574
-0.000430724
-0.00845532
-0.000374396
-0.0069606
-0.000196467
-0.00548503
1.14225e-05
-0.00424956
0.000137733
-0.00337877
0.000137167
-0.00293572
3.61203e-05
-0.00298419
-0.000125426
-0.00361665
-0.000289052
-0.0376134
-1.36012e-05
-0.0213661
-2.11328e-05
-0.025602
0.000221482
-0.0235247
-0.00011182
-0.0166262
0.000440731
-0.0102122
6.26413e-05
-0.00124332
7.9136e-07
8.18085e-10
4.04602e-08
-2.37979e-07
1.11761e-06
-1.456e-08
-1.44933e-11
2.54496e-10
1.54841e-09
1.09762e-07
1.21008e-07
-8.13945e-07
5.66963e-08
-0.000153977
1.73975e-06
-0.0357618
0.0814907
-0.0627699
0.00524962
0.0044381
0.00376991
-0.00357325
0.0209257
-0.0775875
-0.00235098
-0.0050025
0.00326704
-0.00319328
0.00301251
-0.00348437
0.00294304
-0.00201543
0.00127866
-0.0028177
0.000295206
-0.00950598
-0.000539015
-0.0095695
-0.000558018
-0.00811036
-0.000440036
-0.00651356
-0.000223332
-0.00506259
-1.98552e-05
-0.00392847
7.75088e-05
-0.00320039
5.36807e-05
-0.00292758
-5.60934e-05
-0.00319829
-0.000210338
-0.00413181
-0.000333199
-0.0390147
-4.79907e-05
-0.0217959
-1.58466e-05
-0.0257945
7.64842e-05
-0.0232471
0.000128747
-0.0168573
2.67737e-05
-0.0101399
0.000641923
-0.00116462
2.24025e-05
-1.62854e-07
7.72002e-08
-2.00207e-07
1.20202e-06
-3.76114e-08
5.29249e-11
1.84718e-09
1.13469e-08
-1.23091e-07
1.72192e-09
-2.15241e-06
7.3846e-10
-3.74779e-05
7.82014e-05
-0.0292575
0.0828393
-0.0923016
0.00325178
0.00480697
0.00441933
-0.00144986
0.00340109
-0.0828172
0.00232053
-0.00622595
0.00338268
-0.00346111
0.00308364
-0.00350142
0.00296016
-0.00220159
0.00126613
-0.00281329
9.93799e-05
-0.00982189
-0.000659503
-0.0100364
-0.000692198
-0.00851492
-0.000583011
-0.00683865
-0.000360593
-0.00530951
-0.000133783
-0.00410339
-2.45843e-06
-0.0033095
6.70894e-06
-0.00297181
-7.65317e-05
-0.00317116
-0.000209237
-0.00407687
-0.000360336
-0.00613393
-0.000203635
-0.0338314
5.0757e-06
-0.0242075
-3.87917e-05
-0.025251
6.65054e-05
-0.0194971
-6.95195e-06
-0.0137082
0.000204302
-0.00488584
0.000125466
-0.000153334
2.04425e-06
-5.0545e-08
1.92283e-07
-1.99917e-06
2.18675e-07
-7.9139e-11
2.62639e-08
-1.37565e-07
1.63978e-07
-4.11683e-10
1.30512e-06
1.1789e-09
1.93567e-06
0.000425771
0.0188407
-0.0785116
0.0978103
-0.000499456
0.00541029
0.00486355
0.00166101
-0.0341116
0.0557505
-0.0486719
0.0030083
-0.00476308
0.00328299
-0.0034123
0.00313234
-0.00358539
0.00225752
-0.00124244
0.00112271
-0.00716092
-0.000588863
-0.0109913
-0.000812503
-0.00977259
-0.000790694
-0.00805497
-0.000623282
-0.00634073
-0.000370667
-0.00488006
-0.000154191
-0.00380294
-5.12046e-05
-0.00316518
-6.25135e-05
-0.00301595
-0.000152107
-0.00345429
-0.00027728
-0.00469328
-0.000416685
-0.00716586
-0.000188979
-0.035116
-8.41391e-05
-0.0238393
-2.33206e-05
-0.025148
-8.71824e-05
-0.0196581
0.000227273
-0.0138698
-0.000230445
-0.00517015
0.000395401
-5.36854e-05
1.22025e-05
-8.04516e-07