/*--------------------------------*- C++ -*----------------------------------*\
| =========                 |                                                 |
| \\      /  F ield         | OpenFOAM: The Open Source CFD Toolbox           |
|  \\    /   O peration     | Version:  v2012                                 |
|   \\  /    A nd           | Website:  www.openfoam.com                      |
|    \\/     M anipulation  |                                                 |
\*---------------------------------------------------------------------------*/
FoamFile
{
    version     2.0;
    format      ascii;
    class       volScalarField;
    location    "12000";
    object      I2_3;
}
// * * * * * * * * * * * * * * * * * * * * * * * * * * * * * * * * * * * * * //

dimensions      [0 0 0 0 0 0 0];


internalField   nonuniform List<scalar> 
27324
(
0.0739551
0.0795862
0.0887701
0.0825711
0.0934091
0.0920157
0.0859184
0.0962656
0.0959666
0.0953175
0.0890068
0.0998411
0.0988933
0.0991572
0.098613
0.0913698
0.103706
0.102688
0.102494
0.102113
0.0980341
0.0934133
0.107755
0.106993
0.106583
0.105274
0.100565
0.0932371
0.0957426
0.112366
0.111539
0.110974
0.108728
0.103056
0.095441
0.0857004
0.0982314
0.117956
0.116462
0.115113
0.112282
0.105942
0.0980979
0.0877161
0.0691053
0.100693
0.124504
0.121982
0.119085
0.115411
0.109152
0.101489
0.0890545
0.069981
0.0436576
0.0914104
0.130805
0.12828
0.123271
0.118358
0.111802
0.104687
0.0912921
0.0690743
0.0453319
0.0160165
0.0732903
0.127851
0.132682
0.128045
0.121508
0.114087
0.106085
0.0931491
0.0702498
0.0424039
0.0184146
0.000819696
0.0586753
0.111344
0.133272
0.132767
0.124887
0.11601
0.106556
0.092432
0.0712012
0.0431057
0.013907
0.00235014
3.54071e-05
0.0591374
0.0879968
0.118226
0.136424
0.131001
0.117324
0.105993
0.0921887
0.0681324
0.0439434
0.0140214
0.000682078
4.03114e-05
0.00142061
0.0595883
0.0815804
0.0936119
0.122452
0.132738
0.121502
0.107009
0.090571
0.0680438
0.0394961
0.0147502
0.000526034
4.64023e-11
2.97586e-07
0.00239982
0.0596145
0.0805138
0.0861732
0.0998702
0.118325
0.12366
0.107257
0.0893021
0.0656457
0.039144
0.0118316
0.000567487
8.05597e-06
9.22704e-05
3.02713e-08
0.00115575
0.0619263
0.0803981
0.0853679
0.0898999
0.10056
0.105254
0.117449
0.104201
0.0595453
0.0340614
0.00953442
0.000335792
2.10348e-05
0.000635668
0.000176172
2.92801e-07
0.000652611
0.0645878
0.0828078
0.0856986
0.0872037
0.0916025
0.0921366
0.0878103
0.110235
0.104493
0.0439418
0.00641865
1.94468e-06
3.26696e-05
0.00107432
0.000732134
0.000388628
2.63346e-07
0.000516357
0.0669763
0.0840641
0.0871339
0.0863184
0.0866724
0.0907461
0.0788429
0.0675128
0.0938488
0.0943364
0.033731
1.80704e-06
0.00072016
0.000631396
0.000963273
0.000419248
2.68639e-05
0.000221054
3.88696e-05
0.0693011
0.0852435
0.087075
0.0857907
0.0846796
0.0847812
0.0900073
0.0628979
0.0410065
0.0608387
0.0764988
0.0448432
0.00175841
3.66512e-10
1.63888e-10
7.92565e-05
0.00371389
1.01419e-08
0.0119512
5.08794e-14
0.0708094
0.0862315
0.0869414
0.0851622
0.0832029
0.082642
0.0855448
0.0873677
0.0372414
0.0202723
0.0076458
0.0296044
0.055999
0.0406188
0.0170843
0.0140707
0.0116473
0.0136029
0.0267876
0.0212249
0.000153209
0.071608
0.0867219
0.0864979
0.0845981
0.0823677
0.0823702
0.0828576
0.0845659
0.0763306
0.0217565
0.00834611
0.00473382
0.00274129
0.0105558
0.0417779
0.032038
0.0260575
0.00710636
0.00212951
0.00177442
0.0429199
0.000136162
0.0718647
0.0868945
0.0858658
0.0840201
0.0822674
0.0829467
0.0838639
0.0788797
0.0774558
0.064596
0.0117469
0.00464646
0.0172439
0.0322809
0.0254432
0.00151738
0.000414252
0.0023803
0.0106237
0.0306248
0.0289115
0.0589022
0.00408379
0.0716767
0.0867899
0.0852048
0.0835375
0.0825154
0.0838291
0.0851002
0.077271
0.0682804
0.0802295
0.0340284
0.00609685
0.00163474
0.00767938
0.0196758
0.0276627
0.0221076
0.0213591
0.0191007
0.0127259
0.00588083
1.24042e-06
0.000230882
4.01474e-05
0.0708583
0.0862475
0.0846045
0.0831722
0.0832793
0.084829
0.0858931
0.0763811
0.0647429
0.0688559
0.07326
0.000464534
0.0079356
0.000337531
0.000860119
0.00415813
0.00408754
0.00442285
0.00257201
0.000715275
2.10293e-06
4.89678e-07
3.8115e-05
0.0262428
0.000140049
0.0694653
0.0851091
0.0840372
0.083214
0.0842809
0.0857328
0.0863659
0.0757934
0.0652227
0.0621451
0.0634969
0.0459716
0.000744052
0.00465082
0.000109121
1.5549e-05
6.51427e-06
3.71414e-05
9.28898e-05
5.26891e-05
1.28608e-05
9.36599e-09
1.19792e-06
9.03483e-05
0.0126946
0.000105038
0.0679618
0.0837381
0.0836817
0.0838388
0.0853595
0.0863565
0.0861723
0.0751488
0.0643827
0.0622286
0.0510348
0.0542376
0.00613124
0.000266209
0.00220637
2.60508e-06
6.81033e-09
2.67403e-07
1.3519e-06
8.31915e-08
8.52344e-12
1.31122e-07
3.35676e-11
2.90126e-06
0.000786415
3.17091e-05
5.51911e-05
0.0672665
0.0826087
0.0839362
0.0848896
0.0863525
0.0864551
0.0855067
0.0746535
0.0639199
0.0610163
0.0476673
0.0361863
0.0464267
0.00473609
5.13683e-06
8.42684e-05
8.68936e-08
1.43989e-09
9.5153e-09
1.51749e-06
1.76237e-05
1.53756e-05
2.99766e-08
3.79288e-07
0.00151458
7.61194e-08
1.83007e-05
3.41579e-05
0.0676998
0.0822386
0.0846601
0.0861313
0.0868888
0.0860524
0.0846412
0.0744138
0.0632427
0.060641
0.0473348
0.030746
0.0280059
0.0269245
0.0167002
0.00027212
3.81933e-09
9.03033e-10
4.1021e-07
2.88869e-06
1.17026e-05
2.235e-05
3.67894e-08
1.32059e-07
1.32318e-05
0.00110841
0.000364635
1.42199e-05
2.54369e-05
0.0687403
0.0826257
0.0854285
0.0872165
0.0867045
0.085397
0.0838002
0.0745011
0.0626629
0.0606228
0.0471425
0.0319702
0.0163662
0.0260493
4.23825e-05
0.00120281
2.37002e-05
5.17956e-05
1.57568e-06
2.65388e-06
5.36284e-06
2.56707e-05
7.7633e-07
1.23249e-06
2.96789e-06
0.00244593
3.73e-05
0.000195865
3.21327e-06
1.12093e-05
0.0702887
0.0836921
0.0859959
0.087665
0.0862331
0.0846796
0.0833739
0.0747529
0.0622423
0.0609588
0.0477786
0.0319776
0.0148892
0.00907184
0.0184536
0.00730161
0.000354344
1.09251e-10
7.85129e-11
2.18076e-06
1.9707e-06
2.47234e-05
3.65945e-06
8.54587e-08
2.15901e-06
0.000890632
1.80025e-05
0.000352656
4.92877e-05
4.49397e-08
7.95197e-07
0.0731987
0.0853304
0.0871815
0.08747
0.0855577
0.0841638
0.083665
0.0751223
0.0621695
0.0614717
0.0484557
0.0323054
0.0136327
0.00491098
0.00495863
0.00537865
0.008422
9.1999e-07
5.01868e-06
1.93651e-06
1.66763e-06
2.31864e-05
7.13617e-06
2.5971e-08
1.21858e-06
1.61306e-06
0.00168381
0.000456585
9.75724e-05
9.30718e-06
3.2968e-07
5.36192e-09
0.0754465
0.087283
0.0875506
0.0866751
0.0849125
0.084116
0.0841799
0.0754505
0.062634
0.0619252
0.0487694
0.0321358
0.0129271
0.00443656
0.000339169
0.0100506
7.03706e-06
0.00171564
1.11457e-05
1.94763e-06
2.13068e-06
2.1294e-05
7.74672e-06
4.38834e-07
5.93771e-07
8.84278e-06
0.0033057
9.09324e-05
0.000260685
1.47819e-05
2.3759e-07
1.00691e-05
6.32621e-07
0.0770517
0.0884329
0.0869063
0.0848893
0.083834
0.0845744
0.0849192
0.0756602
0.0634203
0.0621785
0.0486936
0.0313931
0.0125021
0.00405239
0.000121751
0.00069932
0.0108682
0.00163823
7.08215e-06
1.02519e-07
1.9596e-06
1.76424e-05
8.88584e-06
1.69371e-06
1.75291e-09
5.94156e-07
0.00101929
1.07822e-05
0.000538848
3.8306e-05
4.59409e-07
9.15064e-08
2.5409e-05
2.18206e-07
0.0776462
0.0888826
0.0857941
0.0830673
0.0833957
0.0857548
0.0856455
0.0757339
0.0643156
0.061839
0.0483438
0.0306755
0.0120832
0.00419305
0.000101548
1.42797e-05
0.00580035
0.000357923
0.000673457
3.69668e-05
1.80015e-06
1.20598e-05
8.48444e-06
5.09306e-06
8.92897e-13
5.07265e-06
1.74462e-06
0.00153607
0.00067451
9.84891e-05
1.95835e-06
3.96791e-08
5.9587e-06
1.11084e-07
2.12153e-05
0.0773881
0.0885191
0.0846983
0.0816079
0.0841004
0.087146
0.0859597
0.0755606
0.0651216
0.0611422
0.0475527
0.0301031
0.0121045
0.00408107
0.000100562
5.0029e-06
0.000451666
0.00744066
0.000305759
0.00043344
2.66502e-05
4.65305e-06
1.00705e-05
6.71328e-06
9.85232e-07
1.67961e-05
1.16963e-05
0.00341407
0.000239329
0.000258769
5.94874e-06
1.00627e-10
8.87662e-06
4.44281e-10
2.10952e-06
1.13962e-05
0.0766418
0.0879432
0.0835816
0.0813856
0.0847198
0.0883959
0.0858273
0.0751988
0.0656937
0.0602177
0.0467548
0.0298094
0.0123833
0.00406071
0.000108927
1.49584e-06
8.42687e-05
0.000916468
0.00476539
0.00212508
0.000128116
2.79891e-06
1.18234e-05
1.19067e-05
1.5598e-06
3.78229e-06
1.55033e-06
0.00125763
4.30467e-09
0.000571686
1.77417e-05
1.2549e-09
6.35348e-06
8.79726e-08
9.10245e-06
1.19166e-06
2.79886e-07
0.0745185
0.0860608
0.0829205
0.0818219
0.0853158
0.0891607
0.0847795
0.0747322
0.0661665
0.0596395
0.0461151
0.0297847
0.0128509
0.00397308
0.000112514
1.36078e-06
6.07988e-05
2.01013e-06
0.00794347
2.35528e-09
0.00125164
1.76827e-05
1.23459e-05
1.40661e-05
3.83799e-06
7.51124e-08
1.02714e-05
4.75332e-06
0.000811157
0.00084722
5.55205e-05
4.0223e-08
3.11306e-06
4.74932e-07
4.89111e-06
1.13189e-05
1.64951e-09
1.0849e-13
0.0737614
0.0847285
0.0822898
0.0823058
0.0857533
0.0889898
0.0837808
0.0743627
0.0671591
0.057555
0.0456443
0.0300758
0.0132601
0.00377984
0.000124669
7.71143e-07
4.59964e-05
1.72767e-07
0.000692832
0.0074294
0.0028007
0.000287592
1.39343e-05
7.35577e-06
4.02164e-06
1.81758e-10
1.8937e-05
2.12826e-05
0.00314377
0.000557088
0.000163751
5.83538e-07
7.36828e-07
1.95385e-06
2.83143e-06
8.88437e-06
3.76843e-07
2.52483e-06
3.22072e-08
0.0742772
0.0845833
0.0836411
0.0838937
0.0860141
0.0883569
0.08292
0.0742391
0.0670966
0.0568746
0.0454896
0.0301781
0.0136683
0.00350326
0.000136011
1.3938e-06
3.72572e-05
1.37385e-10
1.33208e-05
0.00678619
3.491e-07
0.00137673
0.000238348
8.27107e-07
6.24178e-06
1.31913e-07
4.24934e-06
8.41934e-06
0.0019894
2.24419e-05
0.000401448
4.80091e-06
2.17277e-07
5.09482e-06
1.47633e-06
1.07319e-05
2.29308e-07
7.57898e-09
1.83627e-06
9.96365e-06
0.0757417
0.0851925
0.0847589
0.0851547
0.0860821
0.0877253
0.0824339
0.0742655
0.067603
0.05666
0.045068
0.0309193
0.0138411
0.00322988
0.000146956
1.17455e-06
3.57705e-05
3.42116e-09
4.16372e-06
0.000272946
0.00850508
0.00302412
0.000270754
5.61011e-08
7.62418e-06
9.43121e-07
5.81187e-07
1.88579e-06
6.4964e-05
0.000119361
0.000727972
2.30773e-05
4.72037e-08
9.53613e-06
5.23338e-07
1.14084e-05
6.95648e-07
3.50259e-08
3.44845e-09
1.44483e-10
8.70397e-05
0.0769467
0.0861043
0.0853963
0.0850828
0.0854883
0.0867934
0.0821846
0.0744333
0.0682379
0.0564742
0.0448971
0.0315009
0.0139822
0.00301683
0.000181731
1.15294e-06
2.58741e-05
8.85339e-11
1.85784e-06
2.42065e-07
0.0085499
1.96073e-05
0.00149381
2.41525e-05
3.59958e-06
2.21796e-06
1.37199e-10
2.82486e-05
1.61982e-05
0.00207718
0.000774428
8.03735e-05
1.43266e-11
1.37676e-05
1.81378e-07
1.31883e-05
9.7054e-07
1.08739e-08
7.11352e-08
1.0783e-06
8.43269e-06
0.000137014
0.0802685
0.0866896
0.0852034
0.08472
0.085244
0.085985
0.0822546
0.0744698
0.0688206
0.0565504
0.0440248
0.0312067
0.0141195
0.00262045
0.000217192
1.25746e-06
2.08385e-05
3.18067e-08
7.60964e-07
1.20881e-07
0.000115017
0.00813369
0.00436186
0.000180813
5.51059e-08
7.05929e-06
7.39896e-08
1.10616e-05
6.55626e-05
0.00289061
0.000250458
0.000218766
5.0531e-08
1.60387e-05
1.96644e-08
1.52295e-05
1.51812e-06
4.88767e-09
8.71127e-08
2.3349e-07
3.9669e-05
3.18528e-05
7.97437e-05
0.0819398
0.0881521
0.0846421
0.0842227
0.0853609
0.0863539
0.0826048
0.0755615
0.068984
0.0561604
0.0435589
0.0309569
0.013575
0.00233767
0.000246748
1.43877e-06
1.26454e-05
2.10394e-08
1.13513e-06
5.61173e-07
2.66615e-05
0.0167724
0.00118932
0.0010892
5.67476e-09
1.07017e-05
6.93992e-07
7.46663e-07
5.42584e-08
0.000604623
2.98051e-13
0.000453856
1.21764e-06
1.32487e-05
3.18165e-16
1.74454e-05
2.12771e-06
1.03806e-09
1.50227e-07
1.36105e-07
2.67585e-05
0.0001044
1.53956e-05
0.000192087
0.0820723
0.0878845
0.0827442
0.0839291
0.0858693
0.0866028
0.0827714
0.0761616
0.0697636
0.0555628
0.0427523
0.0314682
0.0134069
0.00212042
0.000292387
1.33915e-06
8.29444e-06
1.18246e-07
2.33418e-07
4.08615e-07
1.38167e-05
0.00216302
0.00251077
0.00364352
0.000111496
2.08288e-06
1.95028e-06
6.64145e-11
5.47205e-05
1.30677e-08
0.000546422
0.000617136
9.38339e-06
5.79715e-06
3.65148e-08
1.82106e-05
3.04167e-06
4.85292e-11
2.14232e-07
4.19214e-08
2.48456e-05
9.38618e-05
5.91129e-05
3.29713e-05
0.00389364
0.0815916
0.0870956
0.0808835
0.0833739
0.0864747
0.0867176
0.0825419
0.0769509
0.069379
0.0550518
0.0420084
0.0319719
0.0136917
0.00191805
0.000327855
1.88687e-06
5.40343e-06
2.62656e-07
9.37376e-07
4.71977e-07
1.11292e-06
1.01598e-07
0.0210562
0.00413087
0.000609616
2.41273e-10
6.79118e-06
1.26182e-07
1.88002e-05
0.000166861
0.002483
0.000385251
4.61412e-05
5.90546e-07
5.10316e-07
1.64177e-05
4.40471e-06
2.41884e-13
2.81344e-07
8.71149e-09
2.03882e-05
0.00010356
5.55977e-05
6.31304e-05
0.0022277
0.0183422
0.0799343
0.0862866
0.0805778
0.0841662
0.0874352
0.0866267
0.0822107
0.077678
0.0687607
0.0539254
0.041662
0.0322694
0.0137912
0.00186432
0.000362241
1.18663e-06
2.16485e-06
5.80971e-07
1.0542e-06
2.23574e-09
1.02478e-07
8.48872e-07
0.0121807
1.67808e-05
0.00244761
1.33956e-08
1.21632e-05
3.99844e-07
5.46156e-08
7.11223e-05
0.00195956
3.77146e-05
0.000235549
7.37066e-10
2.56751e-06
1.16238e-05
6.54168e-06
4.04525e-10
3.27858e-07
4.24774e-10
1.66675e-05
0.000106503
6.73098e-05
4.33539e-05
0.00202656
0.0158445
0.0312194
0.078978
0.0849619
0.0811058
0.0849241
0.0878863
0.0859367
0.0819172
0.078368
0.0679363
0.0532634
0.0418152
0.032824
0.0135199
0.0017859
0.000407964
2.02952e-06
1.23222e-06
1.19697e-06
9.23214e-07
1.97555e-08
1.79436e-07
3.0418e-07
1.93273e-05
0.0107779
0.00562777
0.000109717
2.14958e-06
1.80445e-06
1.98442e-14
8.61366e-08
0.00011704
7.89267e-06
0.00045904
1.78593e-06
6.75029e-06
6.2958e-06
1.0012e-05
5.21772e-09
3.47336e-07
1.53773e-13
1.30453e-05
0.000109513
7.80833e-05
3.82921e-05
0.00147922
0.0152292
0.0302124
0.0358876
0.0810444
0.0857333
0.0825792
0.0855518
0.0874302
0.0848322
0.0816404
0.0789024
0.0670316
0.0527337
0.0426675
0.0340189
0.0132896
0.00157071
0.000438617
3.76567e-06
6.02947e-07
1.50307e-06
1.39888e-06
7.10787e-08
9.37904e-08
2.49372e-06
0.000220172
0.0235038
0.00352495
0.000725914
1.35274e-08
6.6419e-06
7.5871e-07
1.41268e-05
3.62237e-05
0.000877363
0.000454848
1.35328e-05
1.82206e-05
2.28304e-06
1.51393e-05
2.69769e-08
3.388e-07
9.6456e-10
9.6674e-06
0.000110795
9.18767e-05
3.24403e-05
0.00109655
0.0139356
0.0302658
0.036103
0.0359702
0.0834706
0.0876755
0.0850253
0.0865824
0.086803
0.0839307
0.0819833
0.07997
0.0663546
0.0523902
0.0434737
0.0345179
0.0131935
0.00140014
0.000427443
5.0801e-06
2.63067e-07
2.30789e-06
2.09159e-06
3.68026e-07
1.81964e-07
1.81994e-08
1.93458e-05
0.00722764
1.79608e-05
0.00274123
4.79263e-07
2.16944e-05
8.13595e-07
9.72311e-07
0.000487196
0.00273767
0.000206949
3.66109e-05
1.37116e-05
6.19458e-07
2.13892e-05
9.03393e-08
3.15372e-07
9.93705e-09
6.64426e-06
0.000110425
0.000108016
2.99115e-05
0.000779611
0.0127379
0.0297781
0.0368126
0.0366061
0.034982
0.085267
0.0892544
0.0857089
0.0861959
0.0852754
0.0834345
0.0826701
0.0801089
0.0646683
0.0522342
0.0443779
0.0346154
0.0129122
0.00139979
0.000503279
4.92902e-06
1.139e-07
4.6301e-06
1.49546e-06
3.02604e-07
3.55696e-08
2.73094e-09
1.40961e-14
1.16327e-07
0.0166481
0.00547656
5.31689e-05
1.26279e-05
1.20038e-06
6.72213e-08
0.000192715
0.00221436
4.74685e-06
6.9086e-05
2.268e-06
5.62582e-08
2.67355e-05
2.54748e-07
2.84732e-07
3.43945e-08
4.25229e-06
0.000107222
0.000126503
2.90812e-05
0.000535835
0.0115116
0.029315
0.0371243
0.0375701
0.03576
0.033842
0.0884741
0.090106
0.0857839
0.0854771
0.0841791
0.0829433
0.0831209
0.0805263
0.0637702
0.0515069
0.045381
0.0346018
0.0122992
0.00139512
0.000495559
8.13772e-06
9.83566e-08
6.1554e-06
9.28992e-07
4.9867e-08
2.07035e-08
4.50056e-09
3.56186e-08
0.000355148
0.0253513
0.0026537
0.000868691
3.24267e-08
4.84789e-06
4.27851e-06
1.52569e-07
0.000293132
5.14972e-05
0.000118159
5.87758e-10
1.71694e-09
2.77889e-05
6.36009e-07
2.45386e-07
7.41e-08
2.53373e-06
0.000100908
0.000147927
3.01231e-05
0.000353077
0.0102978
0.028729
0.0374705
0.0382233
0.0367573
0.0347168
0.032574
0.0880736
0.0909256
0.0856194
0.0850271
0.0839323
0.0834345
0.0849845
0.0805742
0.0627333
0.0512825
0.046483
0.0348054
0.0117786
0.00126722
0.000556397
7.58332e-06
4.4198e-08
9.85853e-06
6.52533e-07
1.6514e-09
7.16174e-09
1.64408e-09
3.29186e-10
3.20742e-05
0.00651287
0.000152746
0.00315917
5.6072e-07
3.14294e-05
1.03068e-05
2.79353e-08
2.86666e-07
0.000787125
9.15575e-05
1.8528e-05
1.02252e-09
2.34493e-05
1.4558e-06
1.93575e-07
1.31154e-07
1.44651e-06
9.1317e-05
0.000170509
3.30974e-05
0.000222908
0.00909783
0.0280649
0.0377432
0.0389482
0.037471
0.0357106
0.0335386
0.0311538
0.0876611
0.0899391
0.0841611
0.0847845
0.083841
0.0839723
0.0861568
0.0806713
0.061837
0.0512442
0.0471045
0.0340192
0.0117906
0.00119031
0.000484849
1.31296e-05
2.34433e-08
5.45233e-06
5.29931e-07
4.31367e-14
2.54878e-10
4.90303e-10
1.30744e-08
7.73436e-10
3.84605e-06
0.0184109
0.00576192
1.85641e-06
8.13001e-05
7.40186e-07
4.87738e-06
0.000256643
0.00161437
4.54748e-05
0.000136472
5.74068e-07
1.72673e-05
3.0882e-06
1.24723e-07
2.06949e-07
8.15294e-07
8.01797e-05
0.000192571
3.85197e-05
0.00013362
0.0079337
0.0273186
0.0379654
0.0396555
0.0382649
0.0364468
0.0345053
0.0322075
0.0296204
0.0878705
0.089798
0.0837756
0.084419
0.0836979
0.0842866
0.0870323
0.0800677
0.0601981
0.051139
0.0482973
0.0335774
0.0108765
0.00127988
0.000438088
1.73649e-05
2.37393e-08
2.83562e-06
2.58619e-07
5.28803e-09
5.76255e-11
1.05076e-08
2.10664e-08
3.22868e-07
0.000600447
0.0289001
0.00324701
0.00107662
4.90669e-05
2.09773e-07
1.95192e-05
0.000394442
0.00161994
7.01721e-12
0.000137077
1.76555e-07
8.22737e-06
5.86621e-06
5.93479e-08
3.19568e-07
4.39698e-07
6.88897e-05
0.000210555
4.69423e-05
7.62733e-05
0.00681331
0.0264921
0.0381388
0.0403704
0.0390563
0.0372634
0.0352616
0.0331156
0.0307512
0.0280419
0.0892531
0.0902665
0.0840932
0.0845163
0.0835698
0.0844664
0.0876636
0.0795456
0.0586972
0.0517371
0.0487586
0.0337654
0.0104953
0.00116328
0.000475771
1.83947e-05
1.64214e-08
5.54705e-06
1.06183e-07
2.38363e-09
3.67016e-10
1.52319e-08
1.81369e-11
1.90703e-10
8.95375e-05
0.0104418
2.73357e-06
0.00273013
2.39786e-06
1.37842e-06
7.13756e-05
0.000216857
0.000872809
0.000129597
6.49314e-05
1.76572e-09
4.87162e-06
9.40187e-06
1.58882e-08
4.71567e-07
2.2234e-07
5.88612e-05
0.000223243
5.82452e-05
4.17706e-05
0.00575147
0.0255945
0.0382575
0.0410784
0.0398654
0.0380776
0.0360841
0.0338783
0.0315813
0.0292324
0.0265084
0.0922502
0.0919964
0.0845756
0.084183
0.0834166
0.0849483
0.0884282
0.0789735
0.0579186
0.0532687
0.049972
0.0334201
0.0104674
0.00112091
0.000390239
1.98019e-05
3.73718e-10
8.06154e-06
5.76603e-07
1.12626e-09
2.34537e-12
6.12946e-08
6.81522e-09
2.54494e-08
1.36607e-09
5.31433e-07
0.0128804
0.00462383
9.20312e-07
3.24239e-05
2.79536e-05
0.00055205
0.000183336
0.000971544
2.68657e-05
5.01858e-06
3.64075e-06
1.19446e-05
1.40029e-09
6.37927e-07
9.47983e-08
5.07944e-05
0.000229958
7.22835e-05
2.25443e-05
0.00475921
0.0246238
0.0383213
0.0417765
0.0406867
0.0389131
0.0369126
0.0346971
0.032335
0.0299724
0.0277336
0.0250991
0.0951563
0.0943051
0.0852621
0.083441
0.0831752
0.0853795
0.088776
0.0785538
0.057348
0.0548072
0.0504486
0.0325766
0.010249
0.00126554
0.000338347
2.65102e-05
5.8508e-10
6.99047e-06
1.23238e-06
2.12627e-14
4.1259e-10
6.49426e-08
1.43523e-07
2.78599e-08
1.64491e-10
0.00081769
0.0301615
0.00437303
0.000344793
0.000153374
6.23052e-06
0.00129469
1.33512e-05
0.00132615
1.13268e-08
0.000121424
3.39348e-06
1.14682e-05
1.43031e-13
7.66143e-07
2.95107e-08
4.44176e-05
0.000233062
8.79007e-05
1.23155e-05
0.00384942
0.0235856
0.0383186
0.0424655
0.0415238
0.0397656
0.0377622
0.0355266
0.0331333
0.0307035
0.028361
0.0263184
0.0238814
0.0981243
0.0961032
0.085389
0.0827143
0.0829622
0.086009
0.0886566
0.0770993
0.0562867
0.0565293
0.0504882
0.0322596
0.00963624
0.00143454
0.00027367
2.57463e-05
8.30602e-08
7.76121e-06
1.23283e-06
2.01661e-10
3.17099e-12
6.09501e-09
3.18937e-07
2.15631e-09
5.85049e-07
0.000340351
0.0192932
3.27407e-05
0.00278436
0.000165886
5.83143e-07
0.000579737
3.84363e-08
0.000999588
2.87175e-06
0.000389676
6.57469e-07
8.64857e-06
4.71431e-10
7.86193e-07
5.51116e-09
3.86104e-05
0.00023603
0.000104171
7.13809e-06
0.00303508
0.0224798
0.0382515
0.0431399
0.0423727
0.040638
0.0386319
0.036376
0.0339494
0.031466
0.0290551
0.0268336
0.0250637
0.0229275
0.099161
0.097403
0.0850158
0.0819573
0.0830758
0.087039
0.088682
0.0756907
0.056111
0.0576781
0.0505873
0.0313389
0.00999295
0.00134512
0.000282344
3.06874e-05
2.07441e-07
1.03673e-05
1.65269e-06
5.49531e-09
6.94546e-12
6.51078e-12
2.24806e-07
5.46799e-12
2.96065e-06
2.12461e-06
0.00105853
0.00472182
0.0056261
8.36612e-05
8.77197e-07
0.000246581
1.7072e-05
0.000591858
0.000336648
0.000267
7.74586e-06
5.83013e-06
7.83914e-09
6.86942e-07
3.70226e-10
3.26868e-05
0.00023996
0.000121876
4.31554e-06
0.00232554
0.0213135
0.0381181
0.0437975
0.0432399
0.0415276
0.0395199
0.0372494
0.0347872
0.0322478
0.0297695
0.0274752
0.0254582
0.0240203
0.0222844
0.100378
0.0976537
0.0841266
0.0815233
0.083027
0.0879922
0.088365
0.074168
0.0564
0.0590574
0.049893
0.0303961
0.0096768
0.00171938
0.000253212
4.52068e-05
5.67578e-07
5.95296e-06
1.96521e-06
5.05358e-09
2.39819e-10
2.10839e-10
8.37917e-08
6.3569e-11
3.64886e-06
5.67533e-07
0.000280492
0.0231423
0.00529278
0.000397711
8.7344e-06
4.04103e-05
0.000371362
0.000250169
0.0015709
6.77672e-05
1.99916e-05
4.92623e-06
2.61312e-08
5.30964e-07
9.49901e-13
2.68466e-05
0.000244105
0.000142701
2.59564e-06
0.00173075
0.0200955
0.0379164
0.0444326
0.0441198
0.0424338
0.0404304
0.0381411
0.0356447
0.0330591
0.0305065
0.0281273
0.0260342
0.0243014
0.0232521
0.0219774
0.102477
0.0980194
0.0835732
0.0814634
0.0829378
0.0889076
0.0875772
0.0725623
0.056637
0.0598843
0.0490108
0.0295075
0.00948662
0.00177689
0.00020142
4.38148e-05
4.01672e-07
5.47378e-06
1.02789e-06
7.77647e-12
1.18686e-08
1.07048e-11
1.33252e-08
1.73606e-09
3.28249e-07
1.82069e-09
0.000940295
0.0265762
0.00166351
0.00381157
3.3886e-05
6.53374e-06
0.000674855
0.000136443
0.00260946
8.0255e-06
0.000210573
6.60893e-06
3.19044e-08
3.99971e-07
3.73655e-12
2.15276e-05
0.000244199
0.000169659
1.4624e-06
0.00124478
0.0188438
0.0376474
0.0450414
0.0450148
0.0433589
0.0413579
0.0390558
0.0365271
0.0338911
0.0312709
0.0288101
0.0266154
0.0248047
0.0234289
0.0227978
0.0220713
0.104762
0.0986094
0.082834
0.0814149
0.0832889
0.089411
0.0870122
0.0708853
0.0577291
0.060299
0.048286
0.0282845
0.00939384
0.0018685
0.00014175
3.89114e-05
5.80002e-07
5.06299e-06
3.76922e-07
3.59091e-10
5.19972e-09
1.23495e-09
4.43001e-10
3.00561e-08
1.70002e-11
1.53029e-06
0.000126109
0.0106892
1.143e-05
0.00328436
5.95109e-05
1.96831e-07
0.000665281
1.31781e-05
0.00243749
7.86627e-07
0.00074451
9.40958e-06
1.00931e-08
3.14622e-07
6.45724e-11
1.7493e-05
0.000237914
0.00020326
8.34077e-07
0.0008576
0.0175832
0.0373085
0.0456136
0.0459235
0.0443016
0.0423073
0.0399915
0.0374316
0.0347472
0.0320632
0.0295179
0.0272242
0.0253026
0.0238415
0.0228678
0.0226896
0.0225849
0.106041
0.0990142
0.0816166
0.0815669
0.083597
0.0895098
0.0862154
0.0695077
0.0598937
0.0606494
0.0477899
0.0279138
0.00913285
0.00199226
9.13001e-05
3.768e-05
6.72398e-07
6.6191e-06
3.26869e-07
1.96737e-10
3.55974e-09
1.86854e-08
4.02336e-13
4.12679e-08
6.48733e-09
4.86937e-06
1.97955e-09
7.20746e-05
0.00602648
0.00200901
0.000362962
1.10851e-09
0.000605452
2.02323e-08
0.00158427
7.71206e-05
0.00107346
4.79619e-06
2.42336e-10
2.58708e-07
2.33316e-10
1.5152e-05
0.000224955
0.00024102
5.48838e-07
0.000555483
0.0163478
0.036896
0.0461474
0.0468453
0.0452635
0.0432746
0.0409452
0.0383564
0.0356218
0.0328802
0.0302464
0.0278627
0.0258271
0.0242375
0.0231737
0.022659
0.0229764
0.0235386
0.106537
0.0986602
0.0798118
0.0821073
0.084138
0.0896495
0.0848197
0.0686145
0.0615373
0.0603388
0.0472665
0.0278733
0.00913222
0.0020526
7.96781e-05
2.90526e-05
2.48395e-06
4.23124e-06
3.43679e-08
1.5241e-10
7.11002e-10
5.67623e-08
3.17426e-12
4.30441e-10
6.71784e-08
1.33766e-06
6.38164e-09
0.000716889
0.0163122
0.00279302
0.00390827
8.69903e-10
0.000353748
4.14673e-05
0.000696884
0.000779155
0.000590522
3.7141e-05
2.765e-12
2.23463e-07
4.35819e-10
1.39319e-05
0.000210583
0.000276181
4.72436e-07
0.000332571
0.01513
0.0364244
0.0466325
0.0477775
0.0462427
0.0442599
0.0419175
0.0392982
0.0365207
0.0337142
0.0310058
0.0285286
0.0263787
0.0246778
0.0234661
0.0228572
0.0228369
0.0236766
0.024976
0.107421
0.098359
0.0779269
0.0826496
0.0850629
0.0894142
0.0836627
0.0685906
0.063125
0.0595729
0.0466262
0.0278965
0.00930913
0.00204055
5.34244e-05
2.8878e-05
3.0997e-06
6.47124e-06
5.77903e-09
1.04328e-16
8.66831e-09
3.55259e-07
1.42069e-14
2.89945e-10
1.04884e-07
1.38539e-07
5.71628e-06
0.00152049
0.0145711
0.000287543
0.00880519
1.23131e-09
0.000175989
7.16565e-05
0.000333373
0.00222094
0.000190899
0.000152293
7.26338e-13
2.40805e-07
6.50955e-10
1.32248e-05
0.000200641
0.000300348
5.38758e-07
0.000181456
0.0139221
0.0359099
0.047079
0.0487259
0.0472349
0.0452634
0.0429117
0.0402624
0.0374403
0.0345718
0.0317899
0.0292147
0.0269671
0.0251396
0.0238095
0.0230429
0.0229094
0.0234145
0.0248096
0.0268752
0.109251
0.0986812
0.0770891
0.0831825
0.0860291
0.0886023
0.0828183
0.0686359
0.0642401
0.0583946
0.0465266
0.0285686
0.00918318
0.00210658
3.76596e-05
3.54054e-05
6.5521e-06
9.42993e-06
3.10128e-10
2.18719e-12
5.56494e-10
8.27492e-07
3.41105e-09
5.93799e-09
5.27869e-09
3.66533e-08
2.27359e-05
0.000598477
0.00465001
0.000368213
0.00477789
9.39423e-08
6.12667e-05
0.000114016
0.000105911
0.0025803
5.35409e-05
0.000719588
8.8994e-10
4.14232e-07
7.66196e-10
1.25194e-05
0.000196787
0.00031569
6.60317e-07
9.05052e-05
0.0127152
0.0353668
0.0474909
0.0496758
0.0482475
0.0462889
0.0439243
0.0412478
0.0383831
0.0354542
0.0325955
0.0299304
0.027574
0.0256275
0.0241741
0.0232642
0.0229722
0.0233534
0.0244387
0.0264058
0.0292543
0.112198
0.0999466
0.0770594
0.0835245
0.0868428
0.0876117
0.0818986
0.0695587
0.0649068
0.0574768
0.046554
0.0286516
0.00949207
0.0019477
2.04852e-05
3.4827e-05
1.08402e-05
2.20476e-05
1.98389e-10
7.39104e-11
4.99786e-08
8.30162e-07
3.545e-14
4.45768e-10
9.18575e-15
7.89949e-09
1.85748e-05
0.000103702
7.76423e-05
0.00624716
0.00124768
0.000207553
3.7139e-05
5.40375e-05
6.96813e-06
0.00159542
1.52041e-14
0.00150233
4.89975e-09
1.06274e-06
7.57708e-10
1.1774e-05
0.000197556
0.000327509
6.98223e-07
4.18755e-05
0.0115198
0.0347976
0.0478768
0.0506237
0.0492733
0.0473317
0.0449591
0.0422563
0.0393432
0.0363574
0.0334242
0.0306681
0.0282097
0.0261489
0.0245588
0.0235124
0.0230683
0.0232915
0.0242299
0.0259233
0.0284731
0.0320966
0.115147
0.102535
0.0779791
0.0835819
0.0873565
0.0867375
0.0812614
0.0707566
0.0653277
0.0571133
0.0468135
0.0292237
0.00933678
0.00158407
1.87804e-05
2.98566e-05
1.3404e-05
2.06692e-05
6.71049e-09
1.97797e-08
4.4041e-08
1.86373e-07
2.83967e-08
7.16692e-13
1.39957e-09
1.39083e-11
5.56891e-06
0.000113914
3.08089e-05
0.0131893
0.000405323
0.00322912
3.29393e-05
3.15537e-05
2.57845e-07
0.000996633
5.92263e-05
0.00133002
1.86954e-09
2.32345e-06
4.74346e-10
1.12055e-05
0.000197915
0.000344206
6.10095e-07
1.7399e-05
0.0103802
0.0341747
0.0482455
0.0515656
0.0503157
0.0483893
0.0460081
0.0432762
0.0403209
0.0372738
0.0342725
0.0314312
0.0288723
0.0266942
0.0249839
0.0237943
0.0232045
0.0232663
0.0240298
0.0255461
0.0278524
0.0309828
0.0353048
0.119177
0.104798
0.079325
0.083582
0.0874641
0.0861736
0.0809806
0.0720097
0.0649734
0.0566756
0.0472847
0.0294903
0.00916573
0.00141707
1.02148e-05
3.56819e-05
2.38293e-05
2.51749e-05
4.35369e-08
2.04537e-08
7.12264e-07
7.89157e-08
1.80583e-08
1.98165e-11
2.28566e-08
5.02072e-09
3.30876e-06
0.00030781
0.000184033
0.00815524
2.66802e-06
0.00831793
4.1065e-05
9.17303e-06
1.96282e-05
0.000365425
0.000577103
0.000742789
2.5839e-06
2.98256e-06
1.87331e-10
1.08428e-05
0.000196412
0.000364472
4.83157e-07
5.83713e-06
0.00934053
0.0334688
0.0486005
0.0524976
0.0513658
0.049462
0.0470702
0.0443094
0.0413132
0.0382119
0.0351396
0.0322161
0.0295578
0.0272754
0.0254344
0.0241163
0.0233782
0.0232835
0.0238687
0.0251945
0.027312
0.0302238
0.0338955
0.0387826
0.122864
0.107507
0.0797778
0.0828072
0.0869117
0.0859185
0.080879
0.0728145
0.0644662
0.0569025
0.0468526
0.0302743
0.00876555
0.000944039
1.25216e-05
5.23511e-05
1.47768e-05
2.61252e-05
1.35088e-07
2.9747e-07
1.36371e-06
4.45573e-08
5.3919e-09
3.81565e-10
1.87541e-08
1.45474e-07
3.07456e-07
0.000467218
0.000174087
0.00133116
0.000328247
0.0105412
3.4789e-07
1.35167e-06
2.66996e-05
0.000208994
0.000987771
0.000345875
8.23058e-05
1.93761e-06
3.51881e-10
1.04398e-05
0.000193466
0.000382421
4.41295e-07
1.20009e-06
0.00840703
0.0327023
0.0489157
0.0534194
0.0524181
0.050539
0.0481377
0.0453589
0.0423253
0.0391725
0.0360294
0.0330297
0.0302754
0.027877
0.0259144
0.0244608
0.0235802
0.0233254
0.023744
0.024892
0.0268022
0.0295166
0.0330181
0.0371194
0.0423997
0.126741
0.109823
0.0795637
0.0817459
0.085781
0.0859478
0.0807193
0.0735817
0.063975
0.0571051
0.0471144
0.0299498
0.00873807
0.000842846
1.028e-05
5.85542e-05
1.82367e-05
3.55985e-05
2.10338e-07
5.77109e-08
7.19131e-07
5.16102e-08
1.04138e-07
1.13528e-07
5.51474e-09
4.92254e-07
4.62415e-09
0.000345959
0.000220586
8.19335e-06
0.00739754
0.00532874
1.1113e-07
1.30824e-07
1.2386e-05
0.000121248
0.000830832
3.5945e-05
0.00044583
9.16677e-07
7.01279e-09
9.82584e-06
0.000190714
0.000394349
4.66259e-07
7.59437e-08
0.00756652
0.0319382
0.049134
0.05435
0.0534552
0.0516047
0.0492144
0.0464283
0.0433715
0.0401717
0.0369609
0.0338705
0.0310235
0.0285082
0.0264297
0.0248355
0.0238118
0.0233928
0.0236476
0.0246066
0.0263381
0.0288636
0.0321447
0.0361619
0.0405588
0.0459924
0.129343
0.112196
0.0790552
0.0807327
0.0848639
0.0863586
0.0807497
0.0737915
0.0639583
0.0576961
0.046254
0.0298397
0.00908598
0.00055176
7.643e-06
0.000106399
2.08637e-05
5.84208e-05
2.36591e-07
3.35518e-10
4.35366e-07
7.94882e-08
2.07823e-07
1.30632e-07
3.81471e-07
2.35539e-06
5.68855e-07
0.000104414
0.000490423
2.20238e-12
0.0114902
0.000735684
0.000421732
7.39269e-08
4.26932e-06
1.45557e-06
0.00035196
5.31974e-08
0.000576498
2.37471e-06
7.47632e-08
9.33623e-06
0.000190772
0.000400997
5.06296e-07
3.60467e-12
0.00677905
0.0312101
0.0492384
0.0552612
0.0544685
0.0526512
0.0502935
0.0475094
0.0443784
0.0411013