/*--------------------------------*- C++ -*----------------------------------*\
| =========                 |                                                 |
| \\      /  F ield         | OpenFOAM: The Open Source CFD Toolbox           |
|  \\    /   O peration     | Version:  v2012                                 |
|   \\  /    A nd           | Website:  www.openfoam.com                      |
|    \\/     M anipulation  |                                                 |
\*---------------------------------------------------------------------------*/
FoamFile
{
    version     2.0;
    format      ascii;
    class       volScalarField;
    location    "12000";
    object      I2_4;
}
// * * * * * * * * * * * * * * * * * * * * * * * * * * * * * * * * * * * * * //

dimensions      [0 0 0 0 0 0 0];


internalField   nonuniform List<scalar> 
27324
(
1.50563
1.61167
1.73278
1.75441
1.99532
1.807
1.90074
2.08084
2.2554
1.91674
2.00016
2.25077
2.23925
2.53166
2.09085
2.03741
2.48975
2.42232
2.5058
2.80392
2.23192
2.0262
2.79107
2.80352
2.81472
2.80257
2.80193
2.34012
2.0503
3.28029
3.33013
3.43152
3.06397
2.69968
2.86822
2.50763
2.1926
3.23656
4.11425
3.76863
3.55565
3.04005
2.93569
2.97031
2.58945
1.81996
1.42562
3.09473
3.57865
3.33746
3.90553
3.39599
3.02869
2.99445
2.72187
1.19776
2.05825
1.77369
1.89692
3.17155
3.97898
4.42228
3.54671
3.05131
3.0395
2.92405
0.624902
1.33034
2.75621
1.92829
1.52897
4.88499
3.7126
4.73521
3.63578
3.01354
3.14328
3.24079
0.318422
0.640248
1.59718
3.29918
1.53506
1.04575
3.67461
3.17105
4.91817
3.62605
3.03469
3.14557
3.88116
0.189436
0.345403
0.675057
1.93829
3.83656
1.60746
0.51257
2.70928
2.81335
4.95055
3.56069
3.05752
3.25472
5.33716
0.16157
0.18845
0.403146
0.697234
2.51825
4.7796
1.88366
0.425387
2.08743
2.88012
4.55026
3.35602
3.38682
3.20723
6.93818
12.4013
0.137489
0.171157
0.497524
0.714145
3.15432
5.52484
2.38464
0.611935
1.75627
3.38675
3.92624
3.05704
3.30926
3.17094
8.6621
0.0183902
0.345033
0.0936521
0.151737
0.606064
0.721129
3.42191
6.07234
2.99101
1.01601
1.61064
3.80704
3.039
2.66696
3.11047
2.60167
6.29337
0.074452
0.193598
0.0619964
0.0652994
0.132768
0.771809
0.725798
3.23265
6.0023
4.0306
1.80217
1.61098
3.32935
2.24717
2.62859
2.01382
2.24323
6.00407
0.0618734
0.508087
0.971132
0.0496685
0.0554394
0.123089
0.979828
0.696887
2.65031
5.41182
5.21223
3.10259
2.39775
3.24828
2.52619
2.26657
3.65122
3.87901
4.16982
0.0880674
0.359414
0.48399
0.356937
0.0462049
0.0478417
0.131203
1.1959
0.67046
1.88822
4.09357
5.66729
5.13541
4.13114
4.28678
3.50984
8.22146
4.15916
15.0091
4.57495
0.119226
0.440769
0.258244
0.209813
0.105143
0.0585705
0.0441869
0.159532
1.38738
0.670986
1.20223
2.48519
4.38938
5.86409
5.67466
5.90848
5.47036
6.21623
7.39266
6.22167
2.50986
0.166761
0.434768
0.209672
0.104243
0.095915
0.0649197
0.0470416
0.0481831
0.221918
1.43586
0.733934
0.726327
1.26448
2.19921
3.36789
3.64558
3.58239
2.77662
2.29919
1.62831
0.762123
1.68548
0.26615
0.367239
0.153937
0.0853229
0.0674357
0.0927975
0.210144
0.0364559
0.0603037
0.332636
1.32578
0.970889
0.447268
0.621786
0.869326
1.20226
1.2685
1.16803
0.961045
0.651574
0.498795
0.257173
0.775717
0.65198
0.265476
0.104614
0.0583573
0.0739732
0.154986
0.370168
0.201667
0.0375031
0.0822273
0.508869
1.1242
1.28382
0.242832
0.321193
0.398846
0.499822
0.511788
0.472698
0.429884
0.386946
0.588293
0.710617
1.66496
1.06131
0.206787
0.0545557
0.0405742
0.0737441
0.37649
0.438607
0.200458
0.192041
0.0386058
0.12828
0.748822
0.89474
0.621878
0.0268284
0.0985922
0.26468
0.391845
0.44094
0.462715
0.636458
0.898298
1.74002
0.301941
2.47549
0.571539
0.116342
0.0294779
0.037083
0.114094
1.11115
0.417125
0.311674
0.107417
0.157249
0.0474357
0.217657
0.964714
0.693097
0.617025
1.80643
0.419739
0.778904
0.796725
0.760132
0.856917
0.885952
1.28946
0.583957
0.59809
3.45076
0.171701
0.0587164
0.0241077
0.0606755
0.688951
7.09388
0.289702
0.336304
0.210813
0.0964739
0.0802849
0.0674147
0.377918
1.0553
0.488003
0.586936
1.15502
1.23392
1.38522
1.10144
1.0307
0.824154
0.553532
0.569208
0.754124
1.53448
4.49091
0.0316889
0.0421294
0.0305373
0.190727
14.5451
63.8384
0.189977
0.263631
0.224562
0.204973
0.0549326
0.0503072
0.108094
0.618194
0.959144
0.473699
1.43584
1.0058
1.24147
0.949211
0.76354
0.617319
0.803137
0.924717
0.522077
1.57468
2.7477
5.11826
0.00214277
0.0422363
0.0620359
0.694068
68.2986
5.17888
0.113644
0.254026
0.197379
0.225375
0.115397
0.130535
0.0513962
0.190936
0.869631
0.759386
0.537707
0.458753
1.15092
0.974071
0.827725
0.649804
0.732646
0.213412
0.601502
0.864338
3.31207
2.88669
6.18563
0.00721634
0.0433607
0.252964
1.57187
35.0085
0.178302
0.0997024
0.202225
0.174654
0.208083
0.17951
0.16667
0.0774235
0.0776088
0.346889
0.987028
0.618967
0.43683
0.882477
1.0343
0.927372
0.7075
0.671123
2.71602
0.966489
0.601447
2.06053
4.81997
2.03656
7.14665
18.6557
0.625386
0.43393
1.54814
2.19188
0.0460606
0.135766
0.142209
0.157103
0.190989
0.226597
0.295449
0.0614907
0.0539108
0.13145
0.587964
0.923419
0.678338
0.58619
1.07811
1.03234
0.78241
0.653727
1.25518
2.09378
0.515941
1.27475
4.00062
4.70568
1.3031
6.35676
40.4662
0.077633
0.00595794
0.107477
0.166525
0.0307804
0.198839
0.0935276
0.216306
0.18016
0.260555
0.285718
0.249961
0.112715
0.069941
0.234779
0.898591
0.902974
2.25391
1.01188
1.09241
0.856197
0.687325
0.69143
1.57557
0.654537
0.765629
3.15235
4.61246
3.8495
0.985325
5.85709
1.14824
0.0391976
0.0123722
0.048443
0.0776896
0.0275785
0.325801
0.0777653
0.395363
0.228215
0.280974
0.286102
0.219747
0.256396
0.0781418
0.110902
0.42252
1.1853
0.936542
0.379265
1.08519
0.931836
0.755022
0.656535
2.42825
1.39221
0.530137
2.06756
4.82019
3.86098
2.7367
1.24585
8.21094
0.283853
0.0513177
0.0321645
0.719436
0.0454131
0.0478056
0.411494
0.0902084
0.736996
0.299885
0.359142
0.223755
0.236687
0.195263
0.120008
0.0738322
0.188172
0.692496
1.19837
0.713386
0.971541
1.00931
0.820087
0.672452
0.821355
3.82854
0.47779
1.23625
4.3241
4.60723
2.64878
2.64586
2.1058
7.71415
0.0874736
0.0676674
0.128511
2.41598
0.412811
0.256594
0.423188
0.171843
0.578623
0.325008
0.383567
0.178318
0.207917
0.258657
0.23857
0.11847
0.113939
0.336203
1.01049
1.36028
0.93201
1.10274
0.899298
0.687933
0.755275
23.3379
0.638589
0.742663
3.35103
5.03222
3.30054
2.41628
3.80876
2.77336
3.70314
0.0206268
0.124844
0.533887
2.31146
11.4059
0.0761319
0.182164
0.306557
0.368665
0.287931
0.282608
0.143538
0.202737
0.225856
0.208228
0.169796
0.0931281
0.173636
0.634254
1.37029
3.56094
1.37892
0.958236
0.734773
0.629274
6.04084
1.45161
0.509779
2.22668
5.19301
3.86404
2.79521
3.23752
4.72664
2.16586
3.41535
5.34709
0.225854
2.13708
1.63564
0.46498
0.0276872
0.172592
0.3213
0.260158
0.308586
0.260472
0.143197
0.243881
0.234254
0.226244
0.230477
0.0906393
0.132156
0.293779
1.08558
1.91537
1.7516
0.986076
0.766881
0.676394
1.18745
4.44867
0.453117
1.33704
4.8038
4.41011
3.13249
3.51302
4.0259
3.12994
2.42207
3.54851
0.174775
0.0164215
0.0111181
1.10219
0.0620309
0.0518753
0.200391
0.30755
0.226728
0.432483
0.302099
0.225346
0.310592
0.251149
0.220635
0.229769
0.148293
0.118329
0.175626
0.574423
1.66076
2.81649
0.937177
0.805238
0.705797
0.750695
0.896576
0.587437
0.794816
3.84353
4.95439
3.41182
4.18325
3.75435
2.9031
3.08919
2.71634
3.93623
0.0450449
0.020333
0.00576761
1.8339
0.0468144
0.106233
0.29542
0.260389
0.269053
0.292317
0.317056
0.289116
0.282715
0.288659
0.243366
0.218971
0.187076
0.00176166
0.162671
0.279418
1.17495
2.92952
0.63534
0.869895
0.771469
0.674779
7.41883
1.26417
0.52313
2.64286
5.2957
4.02263
5.76858
3.33974
2.92712
2.96575
3.39315
3.09521
4.38802
0.0331913
0.0376725
0.0443707
0.649803
0.107818
0.293764
0.484242
0.385253
0.199571
0.287071
0.34989
0.286169
0.297921
0.296008
0.270704
0.267488
0.218165
0.255525
0.195601
0.17952
0.599582
2.12265
0.135879
1.03313
0.816297
0.669655
1.24079
3.8684
0.42865
1.62067
5.12413
4.78653
6.70144
3.00057
2.91011
3.03714
3.29346
3.82501
3.54118
4.83779
0.0331529
0.18776
0.1384
1.54051
0.374473
0.26178
0.42567
0.465062
0.177498
0.217262
0.319017
0.342894
0.315541
0.291334
0.276463
0.257266
0.237929
0.175743
0.520985
0.1782
0.28655
1.39984
5.11649
1.44911
0.855904
0.692629
0.8226
0.00802371
0.492848
0.952299
4.39546
5.33123
6.69936
2.77334
2.87923
3.06787
3.3817
3.77203
4.31721
4.0288
5.261
0.146823
2.96102
0.913143
0.464211
0.263381
0.131073
0.511178
0.274904
0.299001
0.0967585
0.250175
0.333285
0.344853
0.326332
0.270344
0.263486
0.22662
0.219724
0.223735
0.248712
0.180012
0.710158
2.90753
0.401342
0.92227
0.732136
0.657663
31.5033
0.905547
0.590171
3.27946
5.51636
6.90611
2.68122
2.91833
3.16352
3.40722
3.90417
4.30979
4.82609
4.52012
5.59409
0.875515
0.0854911
3.15587
0.310447
0.0352177
0.138542
0.229611
0.491853
0.29
0.192957
0.124111
0.321065
0.32899
0.324492
0.281455
0.275303
0.23049
0.239171
0.195122
0.2825
0.185381
0.331596
1.92648
26.4263
1.21299
0.747332
0.66068
1.932
2.80679
0.429079
2.14253
5.35763
6.71302
2.70577
2.90137
3.26993
3.44692
3.98378
4.49475
4.88613
5.30357
4.9055
5.95123
0.0981062
0.0113208
0.371539
0.230933
0.0930765
0.175058
0.109476
0.344075
0.479574
0.271274
0.273183
0.102989
0.224026
0.270126
0.290048
0.266193
0.24107
0.204353
0.223666
0.314978
0.330831
0.187862
0.967665
5.85208
1.75325
0.760047
0.677642
0.889575
1.27709
0.409814
1.28553
4.83307
6.12726
2.91383
2.82395
3.38695
3.48183
4.0699
4.62276
5.1345
5.4155
5.68955
5.20434
5.93567
0.129564
0.0260447
0.219275
0.880373
0.395818
0.993517
0.0453088
0.387711
0.431063
0.381558
0.303413
0.290612
0.0169498
0.184284
0.250875
0.287822
0.227046
0.208804
0.173213
0.296927
1.23539
0.170853
0.434895
3.01188
4.291
0.837487
0.709194
0.672964
113.401
0.578595
0.769142
3.9111
5.58865
3.41041
2.7353
3.47153
3.53291
4.15351
4.75617
5.32689
5.70879
5.85558
5.99345
5.41831
6.25412
1.64011
0.166986
0.949586
0.989286
0.97999
0.99016
0.172451
0.373513
0.344943
0.408644
0.400994
0.27838
0.373147
1.29635
0.224888
0.266597
0.221236
0.186076
0.220117
0.246941
32.9638
0.25015
0.217314
1.56528
53.9313
1.20924
0.719408
0.64882
4.86219
1.39596
0.50489
2.78703
5.36227
4.35155
2.65889
3.51059
3.60316
4.23753
4.88908
5.52959
5.96582
6.19846
6.1813
6.07774
6.57814
6.82295
0.0209939
9.89728
2.03789
0.34253
0.120335
1.02513
0.443389
0.713952
0.226935
0.229429
0.46524
0.390035
0.290713
0.323229
0.222803
0.195147
0.245499
0.154056
0.228013
0.154465
0.214901
0.409337
0.157802
0.729446
7.07419
1.77872
0.715819
0.681558
0.909763
3.86876
0.399881
1.84874
5.55624
5.61036
2.57073
3.48964
3.70003
4.32386
5.02433
5.71643
6.24174
6.51492
6.53274
6.38787
6.6518
9.73749
6.31386
0.00451746
0.0177394
1.52296
0.0357973
0.0448835
0.712666
0.826893
0.607262
0.585327
0.0448422
0.306443
0.395699
0.375697
0.276649
0.225891
0.439668
0.246082
0.19929
0.282194
0.174558
0.181788
0.10232
0.201706
0.31952
3.12773
6.66455
0.780564
0.703305
0.749696
0.0951448
0.425017
1.16936
4.8486
6.41256
2.48467
3.40281
3.82796
4.4131
5.16081
5.89432
6.51689
6.85438
6.87111
6.79551
6.99391
8.40069
11.3116
5.4257
0.00282534
0.0426497
0.720844
0.180545
0.0649299
1.36525
0.642055
0.729616
0.534094
0.327967
0.100298
0.233434
0.359449
0.355907
0.231744
0.240825
0.269205
0.203096
0.336838
0.209043
0.210327
2.56471
0.464812
0.179144
1.39909
88.6077
1.12318
0.712796
0.630388
37.7626
0.697122
0.741758
3.68172
5.9504
2.41155
3.30584
3.98259
4.50732
5.30051
6.07317
6.78109
7.20366
7.23324
7.17893
7.31504
9.11543
8.97655
9.37075
4.6593
0.00585659
0.299153
2.51557
1.19706
0.365787
19.0059
0.561335
0.433564
0.740454
0.434023
0.340446
0.00706324
0.226289
0.399937
0.299236
0.211213
0.299891
0.230367
0.437311
0.364184
0.173365
0.225659
1.52838
0.153585
0.597361
9.38881
1.68184
0.687393
0.678673
1.80993
1.9395
0.509582
2.64955
5.192
2.65145
3.23726
4.14645
4.61153
5.43801
6.25603
7.03067
7.56831
7.61574
7.58725
7.69105
9.40343
10.4209
7.48367
7.26253
3.99899
0.663675
2.48328
3.21259
1.63622
0.486808
0.231132
0.482502
0.273354
0.537552
0.643622
0.388538
0.454316
0.0321609
0.411794
0.286417
0.276747
0.456347
0.458144
0.401773
0.545336
0.203883
0.129981
0.149223
0.230947
0.265111
3.56998
1.33183
0.709459
0.718286
0.778228
4.32592
0.415806
1.81271
4.36801
3.21813
3.21649
4.28311
4.72881
5.57179
6.45072
7.26821
7.93058
8.02575
8.01385
8.07493
9.83419
11.159
8.83949
5.91508
5.63205
3.41953
0.00282721
0.000426854
4.9294
0.150638
0.172392
0.239056
1.40978
0.0477734
0.446629
0.700788
0.595753
0.370719
0.377373
0.364559
0.322533
0.268845
0.039389
0.808388
0.278371
0.305913
0.198965
0.132983
0.520304
0.627003
0.158038
1.41813
1856.67
0.921661
0.729633
0.617272
8.73634e-05
0.439479
1.19992
3.67335
4.15167
3.27275
4.3501
4.8651
5.70559
6.66039
7.50475
8.27333
8.46079
8.46544
8.4778
10.2448
12.1147
9.55811
6.95849
4.6757
4.42719
2.95855
0.00256657
0.0135361
0.531421
0.0321516
0.073337
0.460961
0.979057
0.492552
0.152514
0.546073
0.396202
0.578316
0.311628
0.19954
0.315747
0.363088
0.161207
0.901425
0.248737
0.212152
0.207468
0.133072
0.259617
2.6826
0.146258
0.581277
21.4181
1.63004
0.687651
0.602712
2.76055
0.650653
0.85204
3.22866
5.71432
3.3055
4.33494
5.02717
5.85005
6.87507
7.75487
8.59183
8.91931
8.94117
8.89348
10.6657
13.0647
10.5904
7.50941
5.45418
3.74752
3.57887
2.59332
0.0112993
0.141317
1.40366
1.88436
0.0214802
0.269914
1.5309
1.17002
0.356297
0.115746
0.244908
0.363335
0.558435
0.216047
0.265091
0.351435
0.201553
0.514883
0.234765
0.174418
0.272399
0.162892
0.157356
0.196563
0.234138
0.25761
5.13382
0.0392031
0.635883
0.730029
0.898203
1.39109
0.664813
2.5679
6.46005
3.27772
4.26818
5.21904
6.01711
7.08507
8.02158
8.88545
9.37801
9.45086
9.31379
11.1156
14.0588
11.6838
8.304
5.84201
4.3231
3.07672
2.98694
2.31343
0.0631872
1.10046
0.892748
2.30517
0.781369
0.0516213
1.12105
1.60803
0.702626
0.37191
0.0952096
0.256753
0.447244
0.397828
0.143926
0.47427
0.267229
0.232045
0.1416
0.139975
0.505668
0.181134
0.145868
1.20472
0.625446
0.151349
1.78209
64.9971
0.648969
0.798455
0.708698
3.0136
0.561937
1.87432
5.4769
3.25893
4.17978
5.43343
6.21708
7.28929
8.30827
9.1808
9.8207
9.993
9.74303
11.59
15.0638
12.9185
9.14776
6.40635
4.58815
3.50881
2.6043
2.57303
2.09737
0.0159515
0.277458
0.649608
1.04875
2.74622
1.21873
5.30119
2.12335
0.617029
0.891704
0.302047
0.0905486
0.464623
0.303788
0.319525
0.975112
0.380402
0.213437
0.0059443
0.105728
0.62477
0.14995
0.178662
0.229186
2.10414
0.136717
0.69204
103.451
0.841329
0.7987
0.573855
3.46503
0.527361
1.339
4.21237
3.83561
4.18282
5.63788
6.44927
7.48799
8.60235
9.49186
10.2341
10.5493
10.205
12.0732
16.0884
14.2728
10.1163
6.99702
4.98249
3.69449
2.93866
2.27351
2.27862
1.9325
0.0673529
12.2368
0.0551178
0.64568
1.62343
1.39432
0.523994
0.583915
0.343957
0.974726
0.762319
0.207477
0.0709746
0.421293
0.244345
0.37805
0.895888
0.185912
0.306806
0.152704
0.415945
0.178641
0.260637
0.136615
0.0998038
0.204028
0.301426
8.28137
0.786247
0.700155
0.677968
1.29834
0.572025
1.01225
3.44207
4.7455
4.30816
5.78472
6.70857
7.6956
8.88436
9.83645
10.6177
11.1058
10.7208
12.5662
17.0907
15.7655
11.1952
7.67527
5.38896
3.97542
3.0735
2.53755
2.03868
2.06606
1.80604
12.7185
0.14167
0.155156
0.642696
0.869292
1.11075
0.629643
0.80753
5.76401e-07
3.68917
0.83786
0.587989
0.137503
0.186438
0.366685
0.191272
0.780244
0.259707
0.210059
0.139522
0.373104
0.250347
0.593719
0.138457
0.590955
0.537236
0.162528
2.72895
0.307102
0.590638
0.783088
0.417144
0.654677
0.874448
2.84374
6.37476
4.54349
5.83153
6.98207
7.93393
9.15209
10.2145
10.9956
11.6195
11.3014
13.0694
18.0736
17.3943
12.4234
8.42039
5.84523
4.25465
3.27703
2.63896
2.25522
1.87041
1.91368
1.71198
0.0486737
0.00643054
0.191855
7.31569
0.0179676
0.666195
0.580565
1.67303
1.1462
0.0112371
10.6555
0.616617
0.607373
0.0666603
0.285553
0.193044
0.340544
0.265747
0.249483
0.191349
0.776956
0.166281
1.50304
0.148969
0.131317
2.20021
0.128169
0.960812
26981.2
0.54053
0.897802
0.559789
0.78044
0.818819
2.28971
6.97804
4.65882
5.79543
7.25849
8.21965
9.4177
10.6002
11.402
12.0644
11.956
13.5895
18.9969
19.1496
13.8084
9.25431
6.3437
4.56457
3.47757
2.79609
2.33488
2.05357
1.75188
1.80289
1.63902
0.16887
0.00142159
0.052316
1.26101
6.75046
0.00136759
0.334097
2.24427
2.12643
0.278641
0.048011
13.8841
0.259813
0.240122
0.25448
0.279717
0.288101
0.140756
0.207951
0.459473
3.03276
0.0968579
1.09796
0.156999
0.10262
4.25367
0.158206
0.42068
25.9074
0.491003
0.926045
0.716125
1.25914
0.797604
1.72959
6.01308
4.82888
5.75342
7.53079
8.55906
9.69718
10.97
11.8703
12.4827
12.6421
14.136
19.837
21.0453
15.3614
10.1967
6.89185
4.89351
3.69442
2.94362
2.45748
2.11983
1.9089
1.66691
1.72488
1.58983
0.133233
1.64327
141.442
0.195697
0.782266
1.62209
0.000264973
0.672607
1.8887
0.543194
0.316511
0.080032
0.0973826
0.19913
1.12571
5.47591
0.551943
0.0163042
0.237988
0.438445
0.295127
0.0854078
0.445569
0.16705
0.0988344
10.6273
0.318622
0.214182
4.39451
0.0899291
0.878425
0.93112
2.05319
0.824375
1.35214
4.73035
5.54528
5.83367
7.77998
8.94144
10.0112
11.3044
12.3764
12.9155
13.2704
14.7248
20.561
23.0639
17.143
11.2592
7.49531
5.25128
3.92025
3.10138
2.574
2.22026
1.96509
1.80529
1.61049
1.67228
1.5548
0.893975
0.0346444
0.380698
1.08378
0.102323
0.940183
0.0749658
0.00591068
0.821165
1.33847
0.506081
0.294829
0.152622
0.167082
0.416477
1.31052
0.449592
0.142047
0.280054
0.408129
0.0916225
0.105635
0.274956
0.19654
0.144113
0.347993
0.95452
0.142327
1.596
12.4724
0.843225
1.07519
1.66077
0.829612
1.15909
3.93801
6.91827
6.10008
7.95644
9.33992
10.3761
11.6244
12.8721
13.4149
13.7887
15.3829
21.2208
25.2191
19.1828
12.4708
8.16432
5.63718
4.15874
3.26291
2.69424
2.31181
2.05004
1.85431
1.73177
1.57203
1.6398
1.53489
0.0193165
0.00733739
0.0688229
0.726622
0.0048781
0.0333998
0.359141
0.0698755
0.0644858
1.5975
2.46946
0.164918
0.510485
0.0964767
0.226458
0.93497
0.534253
0.187254
0.0570209
0.513766
0.135663
0.118933
0.22175
0.328222
0.306548
0.109156
2.71405
0.134363
0.704637
22.89
0.874958
1.22146
1.33656
0.994449
1.0905
3.30606
8.81143
6.4805
8.01099
9.7341
10.7866
11.9738
13.3155
14.0084
14.2575
16.0506
21.937
27.5025
21.4875
13.8599
8.90737
6.04872
4.4082
3.42797
2.81332
2.40802
2.12725
1.92822
1.77634
1.6817
1.55247
1.62478
1.53111
0.000492088
0.00612331
69.4539
0.171405
1.19841
4.49787e-06
0.0697782
1.29042
47.3603
0.298896
2.17246
0.749795
0.915321
2.81913
0.0143559
0.559824
0.477
0.30135
0.197955
3.60832
0.183618
0.0341459
0.179847
0.274715
1.00323
0.0853163
0.00134366
0.193081
0.36934
3.28766
0.910742
1.32914
1.22779
1.36252
1.10467
2.6869
8.84666
6.66487
7.98744
10.1262
11.2285
12.3951
13.6838
14.6499
14.7555
16.5983
22.7367
29.7943
24.0781
15.4396
9.74332
6.49167
4.66699
3.59889
2.93418
2.50215
2.20499
1.9953
1.84257
1.72385
1.65294
1.5476
1.6281
1.54197
0.00333576
0.00211067
1.41383
2.6721
0.116796
1.14249
0.0442669
0.693311
1.3465
0.033249
0.375777
4.12737
0.0434435
1.29115
286.879
0.0242185
1.81484
0.302886
0.393469
0.0659866
0.19329
0.166796
0.215339
0.121179
14.9828
0.108213
0.594451
0.451384
0.226308
2.26498
2.63105
1.40157
1.2625
1.85692
1.16026
2.17181
7.40077
7.0642
8.01275
10.514
11.6968
12.8903
14.0412
15.254
15.3677
17.011
23.5136
32.0499
26.9413
17.2523
10.6759
6.97099
4.94088
3.77187
3.05632
2.59386
2.28099
2.06202
1.90051
1.78468
1.69141
1.64001
1.55588
1.64823
1.56911
0.00608751
3.70864
0.318162
4.97784
0.00178511
0.243541
0.94733
0.0102941
0.337849
2.06127
0.011834
0.554064
0.18031
0.211721
1.68172
0.0815148
0.634988
10.6333
1.05952
0.00104321
0.298908
0.1763
0.115064
0.0709311
26.9896
0.129347
0.103149
1.53876
0.175902
1.15064
55.2292
1.42691
1.34494
2.10741
1.26392
1.79116
6.04105
8.66054
8.2494
10.8602
12.1907
13.4295
14.4658
15.7163
16.0959
17.3407
24.0865
34.3683
30.0919
19.3387
11.715
7.49226
5.22595
3.94287
3.17443
2.68424
2.35546
2.12458
1.95888
1.83635
1.74636
1.67604
1.64238
1.57893
1.68801
1.61702
4.79514e-05
0.0312229
33.6774
0.333496
0.0529475
0.00204173
0.124007
0.600314
0.0102924
0.670874
21.4426
0.18741
0.765194
0.00491856
0.442622
2.33238
0.0785159
1.8977
2.85414
0.0106467
0.343026
0.224977
0.00480711
0.0481434
0.514789
0.116999
0.082664
6.17745
0.178946
0.614899
6.94209
1.43724
1.44502
1.96519
1.43546
1.66172
5.23564
11.05
8.71577
11.0756
12.7018
13.9669
14.9947
16.0769
16.8393
17.7921
24.2722
36.5726
33.5649
21.7115
12.8741
8.04889
5.51332
4.11223
3.28781
2.76922
2.42514
2.18497
2.01422
1.88829
1.79516
1.72747
1.67778
1.661
1.61772
1.74941
1.68417
8.66354e-06
0.000949577
0.632375
0.0247885
0.00761214
0.109982
0.00152565
0.729814
1.90773
0.0814021
0.688799
0.00690336
0.371224
1.4166
0.0895807
1.35762
0.00147196
0.499801
0.690786
0.295694
0.000314944
0.762756
0.0174637
0.0426795
0.177525
0.0818825
0.0849169
31.4514
0.234238
0.3795
2.21636
1.8599
1.58963
1.9022
1.81731
1.65863
4.30521
13.1038
9.11758
11.1075
13.2337
14.494
15.5983
16.4325
17.462
18.5024
24.109
38.2888
37.4558
24.4614
14.196
8.63349
5.79971
4.27712
3.39424
2.84732
2.48828
2.24135
2.06541
1.93676
1.8421
1.77309
1.72628
1.69486
1.69479
1.67261
1.83542
1.77915
0.00254312
0.192481
2.04833e-05
0.00899661
0.000532983
0.0353903
1.89322
0.00295422
0.972627
5.22835
0.257477
0.711481
0.166644
0.413009
1.29004
0.476735
60.2559
0.123343
0.586888
94.6521
0.00629722
12.6411
0.0313686
0.00157364
0.116184
0.0765203
0.0866454
0.331169
0.356802
0.265027
1.57998
3.60738
1.77496
1.9297
2.52001
1.74499
3.52071
11.7823
9.04465
11.1162
13.8068
15.034
16.204
16.9016
17.8693
19.3495
24.0755
38.533
41.9893
27.8002
15.7554
9.2754
6.0926
4.43156
3.49184
2.91879
2.54676
2.29145
2.11201
1.98035
1.88507
1.816
1.76831
1.73965
1.72663
1.74741
1.74906
1.9554
1.9089
0.00173142
3.68208
0.000230824
1.18065e-06
8.74754
0.00985528
0.371591
0.426053
0.0376624
0.618517
0.787937
0.418417
0.88738
0.260961
0.422156
0.066099
0.432204
0.0231678
0.337072
180.068
0.00525929
0.000265333
0.070167
0.0917599
0.0989269
0.00663744
0.034115
0.108179
0.513178
0.25137
1.13128
7.96111
1.99637
2.03369
3.16548
1.91022
2.90304
9.91024
10.5702
11.3631
14.4091
15.5876
16.7657
17.5007
18.2088
20.0908
24.6078
37.312
46.5911
31.9037
17.5205
9.94731
6.37163
4.5669
3.57634
2.97867
2.5955
2.33458
2.15195
2.01998
1.92337
1.85413
1.80613
1.77752
1.76859
1.77676
1.82234
1.85143
2.11886
2.08077
1.78772e-05
2.45344
18.544
0.000758379
0.0166955
0.53984
2.9036e-05
0.259314
1.3871
0.127948
0.634553
0.02622
0.476073
4.87229e-05
0.39756
8.34955
0.208588
371.797
0.153814
2.83538
0.00793958
0.00185301
0.256956
0.139531
0.10314
0.0132841
2.69154
0.1465
0.657123
0.291709
0.774213
7.44716
2.04585
2.20305
3.25919
2.07386
2.6617
8.51501
13.7194
11.9983
14.8958
16.1115
17.2709
18.134
18.6326
20.4155
25.6371
36.4306
49.0721
37.3093
19.5902
10.618
6.62185
4.68159
3.63794
3.02346
2.63327
2.37104
2.18605
2.05192
1.95719
1.8887
1.84145
1.81357
1.80441
1.81594
1.84719
1.92384
1.98816
2.33777
2.31076
0.0416504
0.0112793
0.489206
78.1336
0.00144661
0.000304572
0.193852
0.000376342
0.527281
1.36482
0.311355
0.439106
0.1552
0.759453
0.0954765
0.532271
0.0531779
0.552642
0.0506446
0.324104
0.0048886
0.41614
13.3434
0.0813452
0.00501468
0.0285128
0.449103
0.278203
0.900231
0.361352
0.503559
3.72398
2.19554
2.44361
3.17729
2.33804
2.49718
6.96772
17.655
12.7471
15.0395
16.5748
17.7471
18.7263
19.2298
20.348
26.6906
38.2402
46.389
44.1564
22.1352
11.4323
6.92467
4.80541
3.69653
3.05597
2.65847
2.39499
2.21035
2.07559
1.98501
1.91737
1.87278
1.84589
1.8384
1.8488
1.88404
1.94409
2.05748
2.16878
2.6322
2.6132
0.0305822
0.0077026
8.39005
0.0992026
0.00301022
0.0239638
0.098726
2.02302
0.00984142
0.606011
8.85183
0.773438
0.855056
0.427928
3.70581
0.314141
1.7767
0.181544
197.902
0.133966
1.0755
0.120558
0.141593
0.0656791
0.0511019
0.0792691
0.815696
0.667132
1.40022
0.394281
0.407161
2.12735
3.33274
2.76888
3.18607
3.14521
2.58102
5.62411
17.9359
12.5734
14.9409
17.0071
18.2444
19.2883
19.884
20.2779
27.1914
43.4409
41.9012
49.1728
25.7263
12.5675
7.27707
4.82768
3.59578
2.94549
2.58102
2.35347
2.19635
2.08783
2.00612
1.93977
1.89768
1.87297
1.86727
1.87928
1.91406
1.9762
2.07178
2.23839
2.4047
3.03098
3.01324
0.63471
0.83165
0.0577665
0.0106442
0.00442932
0.00173713
1.08591
0.0102562
5.71633
0.0177276
0.521737
0.00962325
0.433795
0.0369176
0.429416
0.0416218
0.333075
0.0622087
0.278268
0.0538614
0.556703
0.0380971
9.10533
0.000182085
0.0760899
0.587457
0.981841
0.450924
1.16531
0.422567
0.395372
1.55808
6.98557
3.13778
3.29715
4.13605
2.7088
4.60588
16.5963
13.7629
14.9509
17.544
18.8043
19.8714
20.3943
20.5921
26.8827
47.8159
42.4469
42.7895
31.837
14.132
7.41703
4.51096
3.35906
2.8516
2.55701
2.35142
2.20396
2.09674
2.01141
1.95329
1.91592
1.89485
1.89045
1.9048
1.93982
2.00116
2.09945
2.24135
2.47736
2.72215
3.57286
3.53795
0.201236
0.0621181
1.65391
4.43779
0.363013
0.00214211
0.868293
0.732308
0.127149
9.00159
0.105254
0.477499
0.185824
0.45105
0.194723
1.62474
0.187007
33.4679
0.140824
0.00235745
0.11963
0.00399252
0.698669
0.00245181
0.116541
0.680301
0.882506
0.416336
0.663024
0.456929
0.444846
1.25588
11.0301
3.51962
3.53143
5.15999
2.86676
4.02048
15.0731
17.0171
15.3796
18.1761
19.4202
20.5847
20.8767
20.9851
28.1839
45.0219
49.9015
32.425
39.2465
15.5056
7.06651
4.09461
3.21959
2.81038
2.54333
2.35145
2.20887
2.10141
2.01785
1.96192
1.92669
1.90939
1.90746
1.92431
1.9606
2.02199
2.11746
2.26076
2.46712
2.79632
3.14478
4.30462
4.22401
2.35082
0.0240305
0.0248077
0.208176
0.0353223
0.0123762
0.76755
0.0286238
0.922746
0.42355
1.82085
0.523234
3.20939
0.625065
0.0221185
0.330287
0.0194817
0.357924
0.0824786
0.840745
0.0833408
174.689
0.109417
0.00889643
0.531236
0.402229
0.743798
0.331734
0.513582
0.578315
0.487315
1.0121
7.78737
3.89192
3.89776
5.62851
2.89221
3.67262
12.4441
21.8777
16.1653
18.6672
20.0737
21.3546
21.5469
21.683
23.8645
32.2555
52.5846
35.4731
32.3758
15.4963
6.38195
3.85349
3.11308
2.67472
2.39901
2.23684
2.13241
2.05867
2.00344
1.96395
1.9338
1.9155
1.91845
1.93702
1.9757
2.0388
2.13463
2.27311
2.4768
2.76523
3.22223
3.70647
5.30153
5.11368
0.0359287
0.375714
0.0506769
0.0537508
0.854512
0.0246091
0.0513142
0.659775
0.0570001
1.25035
0.734705
0.00124487
0.601328
0.00715965
0.488675
0.149566
0.904729
0.202295
6.68119
0.114454
0.0176506
0.373345
0.0736608
2.28311
2.1859
0.402409
0.590571
0.309695
0.437029
0.685111
0.562678
0.8433
4.48014
4.82744
4.38851
5.39019
2.93234
3.65605
9.5976
23.1959
16.0809
18.9823
20.7825
22.0352
22.4396
22.1824
26.4095
12.6395
7.30402
64.1257
17.6129
14.1415
5.70927
3.80497
2.82627
2.37635
2.18572
2.09734
2.04165
2.00089
1.96795
1.94184
1.92539
1.91724
1.92205
1.94396
1.98561
2.04976
2.14557
2.28106
2.47751
2.7613
3.16414
3.79666
4.45494
6.655
6.25272
0.00186714
0.129047
0.0214911
0.792905
2.13243
0.374351
0.0156061
6.3729e-05
2.77506
0.0419675
2.44196
0.462186
0.0771912
0.549464
0.165174
6.38458
0.259282
0.0162651
0.224876
0.090977
2.34287
0.0864405
0.172023
1.72194
1.38939
0.353928
0.471404
0.303232
0.410497
0.685618
0.643725
0.775258
3.10878
7.96271
4.99278
5.28311
3.59385
3.70256
7.78132
23.54
17.3782
18.5897
20.6413
21.5549
22.214
21.7796
24.5405
12.2158
1.54304
1.77906
46.1823
11.4828
5.73344
3.66994
2.39722
2.01357
1.92742
1.90014
1.89889
1.89996
1.89993
1.90012
1.90023
1.90525
1.91868
1.94464
1.98754
2.05356
2.14778
2.28324
2.47457
2.74697
3.14044
3.69718
4.56924
5.44137
8.46334
7.70216
1.02027
0.0644465
0.114442
0.00944117
0.954329
1.82795
0.24199
0.0766494
0.00165252
2.84408
0.37336
0.135152
1.11665
0.496936
11.623
0.451859
0.0914213
0.563543
0.110885
0.000392612
0.178765
0.0613628
0.580288
0.281801
0.738613
0.321894
0.402112
0.313262
0.408976
0.650498
0.743742
0.80716
2.5903
17.5204
5.71535
5.35442
4.77723
3.91561
6.37065
23.5118
21.1682
19.185
21.2254
21.7755
21.3578
20.2711
19.4515
6.42501
0.953318
0.87634
13.5163
21.0073
32.0283
3.96827
2.13177
1.66786
1.60504
1.6425
1.70438
1.75994
1.80285
1.83503
1.85692
1.87686
1.90159
1.93436
1.98158
2.04965
2.14497
2.27922
2.46528
2.72875
3.10284
3.64763
4.41094
5.59843
6.7263
10.8954
9.52838
2.21165
9.59698
0.0525336
0.119574
0.0762523
2.81939
0.153888
0.0359146
0.441226
0.0125122
1.77436
0.95066
0.0874933
0.000304804
0.340293
0.0651142
1.25751
0.216989
0.0413026
0.523593
0.0921983
2.10071e-05
0.122613
0.305972
0.602819
0.316231
0.373158
0.334813
0.431655
0.65558
1.01764
0.884008
2.20663
26.1308
6.51275
5.71007
5.93598
4.04036
5.36271
21.8489
22.3666
19.7738
22.8241
23.0604
23.7089
23.1496
14.3615
2.44153
0.385159
0.293048
0.490138
11925.6
0.929294
61.4261
2.85778
1.46911
1.28599
1.34968
1.46139
1.57315
1.66381
1.73379
1.78918
1.8302
1.86792
1.91237
1.9656
2.03708
2.13468
2.26694
2.4493
2.70406
3.06445
3.57923
4.32432
5.36788
6.97742
8.39081
14.1371
11.8107
0.000328809
1.92322
1.13019
0.117736
0.0472965
0.0922534
0.150197
8.48596
0.019058
0.8561
0.164361
0.00636084
1.26053
1.37941
0.144017
1.20382
0.254413
0.0886194
0.465444
0.114654
0.0632608
1.14648
0.0843536
0.394876
0.511419
0.330963
0.363097
0.367431
0.471682
0.69769
1.23977
1.00692
1.84344
15.5808
7.08116
6.34443
6.53885
3.6562
4.52991
18.639
27.3211
20.1927
24.4864
23.5352
22.0974
20.4406
9.12201
1.86743
0.285349
0.201521
0.278592
1.0974
14.1703
0.497613
55.6797
2.33716
1.03545
1.06546
1.19053
1.33916
1.48331
1.59905
1.68707
1.75851
1.81876
1.87568
1.9385
2.01549
2.1146
2.24624
2.42562
2.67181
3.01887
3.51029
4.21769
5.23288
6.64488
8.78897
10.4965
18.4205
14.6443
0.205316
5.91179e-06
1.68106
2.98626
0.219002
0.0518821
0.0283092
0.604495
0.381711
0.0673474
1.60541
1.34759
0.725709
0.354767
0.699746
0.388316
0.0631718
3.97983
0.123597
0.0493705
0.144338
0.258255
0.306848
0.44515
0.466248
0.333901
0.368476
0.410842
0.530089
0.7606
1.45483
1.14278
1.48685
9.66925
8.34884
6.16712
6.07683
2.89138
4.2037
14.719
27.8598
20.1958
24.0117
25.693
25.4196
22.5889
9.22377
1.6975
0.263037
0.234887
0.30148
1.51733
100.217
1.8238
3.66297
37.8366
2.07666
0.782316
0.927516
1.08371
1.25559
1.41811
1.55057
1.65641
1.74555
1.82275
1.89668
1.98095
2.08421
2.21627
2.39257
2.63278
2.9666
3.43685
4.10569
5.07045
6.44516
8.32232
11.1427
13.1181
24.1411
18.1705
0.186056
0.510974
0.00967624
1.05572
3.96054
0.450292
0.0826304
0.00784114
0.132288
3.84418
0.29994
5.40601
0.72949
0.923633
0.246938
0.0145699
0.383288
0.249442
0.0431706
22.7975
0.158035
0.297611
0.750528
0.483596
0.396865
0.343621
0.389911
0.466954
0.605528
0.839536
1.56273