/*--------------------------------*- C++ -*----------------------------------*\
| =========                 |                                                 |
| \\      /  F ield         | OpenFOAM: The Open Source CFD Toolbox           |
|  \\    /   O peration     | Version:  v2012                                 |
|   \\  /    A nd           | Website:  www.openfoam.com                      |
|    \\/     M anipulation  |                                                 |
\*---------------------------------------------------------------------------*/
FoamFile
{
    version     2.0;
    format      ascii;
    class       volScalarField;
    location    "12000";
    object      k;
}
// * * * * * * * * * * * * * * * * * * * * * * * * * * * * * * * * * * * * * //

dimensions      [0 2 -2 0 0 0 0];


internalField   nonuniform List<scalar> 
27324
(
0.0742175
0.0723137
0.378411
0.0704091
0.357884
0.33766
0.0679888
0.334017
0.310807
0.168079
0.0652701
0.305932
0.282629
0.150304
0.0576506
0.0621037
0.27492
0.251987
0.132952
0.0497584
0.0168862
0.0585731
0.240114
0.219947
0.115501
0.0425019
0.0142197
0.00486062
0.0548398
0.203337
0.186795
0.0985493
0.0358515
0.0118901
0.00406525
0.00152258
0.0509322
0.166762
0.154018
0.0833804
0.0299837
0.00990208
0.00339213
0.00129133
0.000568515
0.0462087
0.131533
0.123166
0.0702281
0.025679
0.00825035
0.00283945
0.00109894
0.000500043
0.000258115
0.0381161
0.0970154
0.0952567
0.0586781
0.0226134
0.00718014
0.00239072
0.00094454
0.00044376
0.000235536
0.000134483
0.0257314
0.0655043
0.0704727
0.0483451
0.0200944
0.00652256
0.00211281
0.000821243
0.000399063
0.000216602
0.000125279
7.61183e-05
0.0123412
0.043188
0.0508806
0.0393552
0.0176557
0.00601538
0.00195495
0.000746544
0.000363651
0.000201156
0.000117161
7.16378e-05
4.4738e-05
0.00711648
0.0281039
0.0366936
0.0319076
0.0156091
0.00548985
0.00184155
0.000706568
0.000342125
0.000188632
0.00011028
6.75186e-05
4.2266e-05
2.7086e-05
0.00613455
0.0223382
0.0266362
0.0268653
0.0137776
0.00510292
0.00172675
0.000678779
0.000331325
0.000180489
0.000104608
6.39723e-05
3.99213e-05
2.56794e-05
1.65487e-05
0.0059256
0.021063
0.0215215
0.0245231
0.0138744
0.00479591
0.00164408
0.000652594
0.000324086
0.000176463
0.000100584
6.11108e-05
3.78557e-05
2.43341e-05
1.57153e-05
1.03274e-05
0.00584387
0.0207468
0.0199665
0.0232315
0.0157229
0.0054783
0.00160778
0.000626253
0.000317394
0.000173893
9.84736e-05
5.8933e-05
3.62363e-05
2.31161e-05
1.49122e-05
9.84758e-06
6.61743e-06
0.0057806
0.0205916
0.0193606
0.0222657
0.0170558
0.00719544
0.00192379
0.000626688
0.000303415
0.000171057
9.72841e-05
5.76444e-05
3.49306e-05
2.22022e-05
1.4155e-05
9.38701e-06
6.34657e-06
4.44405e-06
0.00570567
0.0203915
0.0188584
0.0215618
0.0169611
0.00852795
0.00264943
0.000740177
0.000309548
0.00016341
9.51483e-05
5.70219e-05
3.40313e-05
2.14597e-05
1.35658e-05
8.94294e-06
6.0929e-06
4.29311e-06
3.19214e-06
0.00561049
0.0201031
0.0182901
0.02089
0.016524
0.0088237
0.0032045
0.000978429
0.000364335
0.000169975
9.19485e-05
5.44444e-05
3.3439e-05
2.08463e-05
1.30896e-05
8.57087e-06
5.83071e-06
4.15392e-06
3.10874e-06
2.43074e-06
0.00549337
0.0196974
0.0176903
0.0202692
0.0160573
0.00871705
0.00337132
0.00118053
0.000470427
0.00020066
9.74778e-05
5.34268e-05
3.18468e-05
1.97384e-05
1.24603e-05
8.22254e-06
5.53579e-06
3.94807e-06
3.00945e-06
2.31758e-06
1.98975e-06
0.00535786
0.0191831
0.0170734
0.0197014
0.0156515
0.00853786
0.00336023
0.00120492
0.000568921
0.000256147
0.000115317
5.76418e-05
3.19217e-05
1.8952e-05
1.17859e-05
7.54914e-06
5.10006e-06
3.61415e-06
2.75302e-06
2.12139e-06
1.80811e-06
1.5579e-06
0.00521128
0.0185893
0.0164781
0.0191846
0.0153072
0.00834621
0.00330718
0.00120517
0.000563293
0.000312581
0.000145395
6.81143e-05
3.50674e-05
1.94747e-05
1.15452e-05
7.1846e-06
4.71552e-06
3.29465e-06
2.43934e-06
1.91464e-06
1.59804e-06
1.44417e-06
1.44828e-06
0.00506248
0.0179634
0.0159309
0.0187356
0.0149961
0.00815199
0.00323018
0.0011942
0.000562208
0.000319001
0.000178091
8.42903e-05
4.13624e-05
2.17195e-05
1.22045e-05
7.24229e-06
4.58251e-06
3.12117e-06
2.27894e-06
1.77847e-06
1.48639e-06
1.32405e-06
1.33053e-06
1.57565e-06
0.00491948
0.0173527
0.0154499
0.018349
0.0147119
0.00795464
0.00314147
0.00117371
0.000560457
0.000313239
0.000188393
0.000101618
5.10236e-05
2.57284e-05
1.37308e-05
7.81757e-06
4.74844e-06
3.13036e-06
2.23643e-06
1.72545e-06
1.43626e-06
1.28597e-06
1.24144e-06
1.44119e-06
1.80968e-06
0.00478974
0.016806
0.0150437
0.0180204
0.0144375
0.00775576
0.00304899
0.00114896
0.000555918
0.00031201
0.000180766
0.000109965
6.07149e-05
3.12213e-05
1.6132e-05
8.89661e-06
5.2115e-06
3.31277e-06
2.30463e-06
1.75351e-06
1.45052e-06
1.29226e-06
1.22677e-06
1.31152e-06
1.66877e-06
2.0822e-06
0.00467899
0.0163645
0.0147073
0.0177286
0.0141518
0.00756017
0.00295769
0.00112366
0.000549503
0.000309984
0.000179735
0.000106891
6.71869e-05
3.66117e-05
1.90737e-05
1.02416e-05
5.82351e-06
3.58936e-06
2.43004e-06
1.81361e-06
1.48083e-06
1.30653e-06
1.2276e-06
1.23871e-06
1.50968e-06
1.95426e-06
2.61217e-06
0.00458787
0.0160395
0.0144217
0.017437
0.0138372
0.00736238
0.00287688
0.00109974
0.000542744
0.000307171
0.00017891
0.000104881
6.67963e-05
4.09761e-05
2.22601e-05
1.18405e-05
6.54595e-06
3.91963e-06
2.57726e-06
1.88162e-06
1.51499e-06
1.3241e-06
1.23382e-06
1.21186e-06
1.37844e-06
1.79188e-06
2.33612e-06
4.19416e-06
0.00451081
0.015806
0.0141546
0.0171092
0.0134849
0.00716222
0.00280366
0.00108066
0.000536238
0.000304214
0.000177819
0.000104492
6.40551e-05
4.20241e-05
2.49496e-05
1.36343e-05
7.38656e-06
4.30408e-06
2.74969e-06
1.95749e-06
1.55104e-06
1.34237e-06
1.24193e-06
1.20613e-06
1.27596e-06
1.63232e-06
2.12938e-06
3.38654e-06
9.3549e-06
0.0044381
0.0156152
0.0138715
0.0167211
0.0131027
0.00696371
0.00273571
0.00106474
0.000531198
0.000301333
0.0001767
0.000104109
6.35451e-05
4.04677e-05
2.63717e-05
1.52399e-05
8.34274e-06
4.7471e-06
2.95178e-06
2.04501e-06
1.58993e-06
1.36216e-06
1.25139e-06
1.20738e-06
1.22459e-06
1.48174e-06
1.96003e-06
2.83895e-06
6.85844e-06
2.6534e-05
0.00435519
0.0154121
0.013552
0.0162691
0.0127122
0.00676879
0.00267197
0.00105058
0.000527241
0.000299005
0.000175629
0.000103711
6.33497e-05
3.94902e-05
2.58317e-05
1.64205e-05
9.37888e-06
5.25663e-06
3.18487e-06
2.14808e-06
1.6333e-06
1.38337e-06
1.26267e-06
1.21128e-06
1.20669e-06
1.35574e-06
1.78716e-06
2.46729e-06
5.1532e-06
1.86484e-05
8.41913e-05
0.00425396
0.0151509
0.0131942
0.0157773
0.0123292
0.00658291
0.00261145
0.00103747
0.00052396
0.00029708
0.000174839
0.000103328
6.31625e-05
3.93174e-05
2.48001e-05
1.65723e-05
1.01626e-05
5.83029e-06
3.44961e-06
2.26784e-06
1.68308e-06
1.40597e-06
1.2751e-06
1.21678e-06
1.2032e-06
1.26515e-06
1.61955e-06
2.203e-06
3.99834e-06
1.31618e-05
5.9044e-05
0.000276825
0.00413127
0.0147961
0.0127842
0.0152818
0.0119663
0.00641052
0.00255304
0.00102504
0.000521023
0.000295363
0.000174276
0.000103091
6.29947e-05
3.92162e-05
2.44804e-05
1.59499e-05
1.05387e-05
6.31947e-06
3.74615e-06
2.40284e-06
1.74109e-06
1.43042e-06
1.28826e-06
1.2238e-06
1.20435e-06
1.22432e-06
1.46941e-06
1.99495e-06
3.2202e-06
9.37863e-06
4.11584e-05
0.000197107
0.000907619
0.00399068
0.014336
0.0123525
0.0148214
0.011634
0.0062521
0.0024991
0.00101308
0.000518156
0.000293694
0.000173849
0.000103001
6.28984e-05
3.91317e-05
2.44078e-05
1.53696e-05
1.03588e-05
6.63782e-06
4.0552e-06
2.55335e-06
1.80757e-06
1.45795e-06
1.30178e-06
1.23206e-06
1.20753e-06
1.21044e-06
1.3465e-06
1.80414e-06
2.69539e-06
6.79414e-06
2.85714e-05
0.000138948
0.000660042
0.00291883
0.00384204
0.0138114
0.0119464
0.0144472
0.0113473
0.00610465
0.00245091
0.00100257
0.000515164
0.000291986
0.000173481
0.000103012
6.28833e-05
3.90815e-05
2.43619e-05
1.52654e-05
9.92642e-06
6.71025e-06
4.27403e-06
2.71961e-06
1.88154e-06
1.4898e-06
1.31586e-06
1.24079e-06
1.21219e-06
1.20797e-06
1.26422e-06
1.6267e-06
2.33397e-06
5.04502e-06
1.98031e-05
9.70394e-05
0.000474776
0.00217005
0.00920275
0.0036981
0.0132742
0.0115941
0.0141661
0.0110955
0.00596182
0.0024095
0.000994081
0.000512275
0.000290227
0.000173139
0.000103076
6.29259e-05
3.90729e-05
2.43337e-05
1.52358e-05
9.61378e-06
6.49351e-06
4.38582e-06
2.88965e-06
1.96273e-06
1.52601e-06
1.3311e-06
1.2497e-06
1.21814e-06
1.20942e-06
1.22715e-06
1.47336e-06
2.06826e-06
3.87254e-06
1.37576e-05
6.71803e-05
0.000337784
0.00159689
0.00699899
0.0283049
0.00357085
0.0127758
0.0113053
0.0139568
0.0108478
0.0058173
0.00237322
0.000988102
0.0005097
0.000288607
0.000172816
0.000103162
6.2997e-05
3.91e-05
2.43256e-05
1.5217e-05
9.57262e-06
6.22217e-06
4.33896e-06
2.97441e-06
2.05011e-06
1.56514e-06
1.34839e-06
1.2584e-06
1.22508e-06
1.21308e-06
1.21518e-06
1.34865e-06
1.84934e-06
3.09014e-06
9.63707e-06
4.61515e-05
0.00023766
0.00116228
0.00527313
0.0220349
0.0849874
0.00346133
0.0123432
0.0110793
0.0137773
0.0105922
0.0056678
0.00234091
0.000984205
0.000507769
0.000287272
0.000172594
0.000103262
6.30786e-05
3.91465e-05
2.43402e-05
1.52067e-05
9.55716e-06
6.0625e-06
4.16102e-06
2.99415e-06
2.13405e-06
1.60672e-06
1.36773e-06
1.26723e-06
1.23231e-06
1.21842e-06
1.21407e-06
1.26435e-06
1.65271e-06
2.56547e-06
6.85704e-06
3.15254e-05
0.000165351
0.00083676
0.00392943
0.0170174
0.0677155
0.249498
0.00337136
0.012019
0.0108964
0.0135862
0.0103202
0.00551393
0.00231371
0.000981515
0.000506362
0.00028633
0.000172531
0.000103405
6.31655e-05
3.92016e-05
2.43688e-05
1.52087e-05
9.54552e-06
6.04278e-06
3.98297e-06
2.92216e-06
2.16392e-06
1.64995e-06
1.3881e-06
1.27691e-06
1.23947e-06
1.22491e-06
1.21685e-06
1.22416e-06
1.48903e-06
2.20192e-06
5.00432e-06
2.1457e-05
0.000113848
0.000595516
0.00289785
0.0130022
0.0536281
0.203237
0.717468
0.00329386
0.011781
0.0107451
0.0133653
0.010025
0.00536302
0.00229074
0.000979988
0.000505285
0.000285904
0.000172693
0.000103622
6.32738e-05
3.92631e-05
2.44052e-05
1.52223e-05
9.54027e-06
6.0366e-06
3.87745e-06
2.78438e-06
2.14191e-06
1.69011e-06
1.40889e-06
1.28794e-06
1.24641e-06
1.23232e-06
1.22156e-06
1.21027e-06
1.35661e-06
1.93107e-06
3.78048e-06
1.46137e-05
7.76331e-05
0.000418897
0.00211405
0.00983883
0.0420474
0.164882
0.596594
2.02212
0.00322105
0.0115749
0.0105711
0.0130846
0.00971018
0.00521579
0.00227186
0.000979263
0.000504675
0.000285852
0.000173069
0.000103955
6.34246e-05
3.93395e-05
2.44474e-05
1.52437e-05
9.54309e-06
6.03214e-06
3.86311e-06
2.6591e-06
2.06186e-06
1.69962e-06
1.43022e-06
1.29946e-06
1.25356e-06
1.23987e-06
1.22788e-06
1.2088e-06
1.26089e-06
1.70883e-06
2.97622e-06
1.00167e-05
5.24596e-05
0.000291041
0.00152566
0.00736918
0.0326877
0.132569
0.494973
1.71369
5.58016
0.00314629
0.0113617
0.0103567
0.0127503
0.00938716
0.00507402
0.00225369
0.000979262
0.000504326
0.000286115
0.000173629
0.000104385
6.36412e-05
3.94441e-05
2.44998e-05
1.52718e-05
9.55293e-06
6.03306e-06
3.8592e-06
2.5701e-06
1.9471e-06
1.66146e-06
1.45019e-06
1.31025e-06
1.26142e-06
1.24721e-06
1.23552e-06
1.21197e-06
1.21036e-06
1.52514e-06
2.4436e-06
6.96914e-06
3.51649e-05
0.000199844
0.00108864
0.00546383
0.0251776
0.105843
0.40745
1.4511
4.8141
15.0157
0.00306464
0.0111165
0.0101093
0.0123902
0.00907649
0.00494048
0.00223562
0.000978703
0.00050418
0.000286605
0.000174346
0.000104891
6.39181e-05
3.95883e-05
2.45686e-05
1.53075e-05
9.57005e-06
6.03995e-06
3.85837e-06
2.55832e-06
1.8467e-06
1.58419e-06
1.45512e-06
1.32059e-06
1.2698e-06
1.25416e-06
1.24396e-06
1.21738e-06
1.18999e-06
1.37837e-06
2.07831e-06
4.97474e-06
2.34414e-05
0.000135593
0.000767902
0.00400861
0.0192149
0.0838474
0.333587
1.22034
4.15341
13.1851
39.0054
0.00296968
0.0108477
0.00984759
0.0120225
0.0087788
0.00481899
0.00221498
0.000977416
0.000503667
0.000287299
0.000175184
0.000105469
6.42436e-05
3.97719e-05
2.4659e-05
1.53527e-05
9.59295e-06
6.053e-06
3.86049e-06
2.55779e-06
1.77933e-06
1.48196e-06
1.41377e-06
1.32991e-06
1.27741e-06
1.26116e-06
1.25262e-06
1.22461e-06
1.18563e-06
1.26482e-06
1.8101e-06
3.68355e-06
1.56014e-05
9.09383e-05
0.000535021
0.00291003
0.0145238
0.0659062
0.271424
1.02215
3.56108
11.582
34.9045
95.8893
0.00286675
0.0105487
0.00958638
0.0116538
0.00849331
0.00470342
0.00219203
0.000973578
0.000502723
0.000287938
0.00017613
0.00010609
6.46129e-05
3.99864e-05
2.47709e-05
1.54103e-05
9.62206e-06
6.07106e-06
3.86702e-06
2.55997e-06
1.76486e-06
1.38963e-06
1.34458e-06
1.33333e-06
1.28348e-06
1.26857e-06
1.26111e-06
1.23333e-06
1.18803e-06
1.1955e-06
1.59661e-06
2.85438e-06
1.04264e-05
6.03361e-05
0.000368034
0.00208912
0.0108732
0.0513811
0.219487
0.85213
3.04383
10.1125
31.2443
87.6621
217.099
0.0027656
0.0102675
0.00934901
0.0112868
0.00821586
0.00459769
0.00216811
0.000967238
0.000500822
0.000288462
0.000177027
0.000106734
6.50074e-05
4.0225e-05
2.48994e-05
1.54798e-05
9.6578e-06
6.09249e-06
3.87818e-06
2.56479e-06
1.76532e-06
1.32868e-06
1.24968e-06
1.31089e-06
1.28868e-06
1.27591e-06
1.26939e-06
1.24314e-06
1.19318e-06
1.1617e-06
1.42865e-06
2.31903e-06
7.06153e-06
3.96457e-05
0.000249816
0.00148266
0.00805942
0.0397308
0.176336
0.70718
2.5924
8.80553
27.7965
80.1553
203.091
439.288
0.00267995
0.0100246
0.00913788
0.0109334
0.00794281
0.00450464
0.00214713
0.000959195
0.000498093
0.000288699
0.000177817
0.000107316
6.54055e-05
4.04762e-05
2.50395e-05
1.55581e-05
9.69906e-06
6.11726e-06
3.89222e-06
2.57244e-06
1.76791e-06
1.30336e-06
1.15473e-06
1.25154e-06
1.29118e-06
1.28187e-06
1.27788e-06
1.2535e-06
1.20034e-06
1.14955e-06
1.29778e-06
1.96261e-06
4.90758e-06
2.5863e-05
0.000167189
0.00103976
0.00591372
0.030462
0.140752
0.584095
2.20077
7.64388
24.66
72.8342
190.079
420.69
771.186
0.00260879
0.00981814
0.00892706
0.0105623
0.00766945
0.00442254
0.00213187
0.000951198
0.000495037
0.000288688
0.000178419
0.000107798
6.57664e-05
4.07238e-05
2.5185e-05
1.56415e-05
9.74425e-06
6.14408e-06
3.90798e-06
2.58181e-06
1.77173e-06
1.3023e-06
1.08535e-06
1.16782e-06
1.28395e-06
1.28603e-06
1.28698e-06
1.26385e-06
1.20934e-06
1.14811e-06
1.2035e-06
1.70971e-06
3.55648e-06
1.67979e-05
0.000110303
0.000719798
0.0042948
0.0231563
0.111596
0.480178
1.86218
6.61819
21.8087
65.9798
176.834
403.537
754.522
1153.14
0.00254965
0.00965065
0.00869968
0.0101724
0.00740195
0.00435291
0.00212104
0.000944933
0.000492418
0.000288603
0.000178842
0.000108128
6.60709e-05
4.09496e-05
2.53254e-05
1.57267e-05
9.7915e-06
6.17191e-06
3.92412e-06
2.59205e-06
1.77677e-06
1.30449e-06
1.04327e-06
1.07041e-06
1.24533e-06
1.28906e-06
1.29608e-06
1.27428e-06
1.21972e-06
1.15112e-06
1.14795e-06
1.51749e-06
2.71358e-06
1.09198e-05
7.17222e-05
0.000491591
0.00308497
0.017451
0.0878903
0.392848
1.57088
5.71612
19.2361
59.5654
164.059
384.937
740.299
1147.54
1495.55
0.00248636
0.00947118
0.00843637
0.00976545
0.00715532
0.00429672
0.0021128
0.000940127
0.000490973
0.000288742
0.000179165
0.000108306
6.62795e-05
4.11418e-05
2.54531e-05
1.58081e-05
9.83902e-06
6.20012e-06
3.93998e-06
2.60207e-06
1.78239e-06
1.30695e-06
1.03303e-06
9.84761e-07
1.17642e-06
1.28892e-06
1.30384e-06
1.28507e-06
1.23086e-06
1.1566e-06
1.12094e-06
1.36852e-06
2.18758e-06
7.18635e-06
4.60323e-05
0.000330791
0.00219084
0.0130319
0.0687637
0.319894
1.32109
4.92692
16.9261
53.6118
151.694
366.339
722.976
1146.25
1505.03
1749.5
0.00241369
0.0092354
0.00811625
0.00934617
0.00692915
0.00425212
0.00210513
0.00093549
0.000490589
0.000289396
0.000179525
0.000108402
6.64099e-05
4.12793e-05
2.55628e-05
1.58828e-05
9.88446e-06
6.22778e-06
3.95522e-06
2.61134e-06
1.78813e-06
1.30968e-06
1.03328e-06
9.27176e-07
1.08655e-06
1.27824e-06
1.30976e-06
1.29673e-06
1.2423e-06
1.16422e-06
1.11114e-06
1.2539e-06
1.85218e-06
4.86203e-06
2.92203e-05
0.000219121
0.00153649
0.00964198
0.0534327
0.259321
1.10788
4.23891
14.8651
48.1148
139.813
347.62
705.048
1140.69
1521.27
1772.95
1908.3
0.00233157
0.00894261
0.00776752
0.00895317
0.00673938
0.00421074
0.00209624
0.000931012
0.000490997
0.000290517
0.000180074
0.000108507
6.65069e-05
4.13726e-05
2.5642e-05
1.59484e-05
9.92682e-06
6.2537e-06
3.96998e-06
2.61979e-06
1.79354e-06
1.31306e-06
1.03485e-06
8.93067e-07
9.88967e-07
1.23719e-06
1.31458e-06
1.30893e-06
1.2539e-06
1.17352e-06
1.10977e-06
1.17493e-06
1.62702e-06
3.43967e-06
1.84265e-05
0.000142662
0.00106321
0.0070631
0.0412392
0.209283
0.926706
3.64166
13.0351
43.0757
128.455
328.939
686.197
1134.32
1533.02
1805.39
1942.42
1985.73
0.00223597
0.00861134
0.00741579
0.00860024
0.00658305
0.00417197
0.00208271
0.000926396
0.000491949
0.000291966
0.000180814
0.00010873
6.66199e-05
4.14483e-05
2.56966e-05
1.60028e-05
9.96519e-06
6.27823e-06
3.98455e-06
2.62783e-06
1.79862e-06
1.31695e-06
1.03688e-06
8.8681e-07
9.06991e-07
1.16547e-06
1.31645e-06
1.32045e-06
1.26597e-06
1.18386e-06
1.1119e-06
1.12795e-06
1.46436e-06
2.58439e-06
1.16276e-05
9.12195e-05
0.000724678
0.00512063
0.0316009
0.168207
0.773353
3.12524
11.4193
38.484
117.674
310.366
666.599
1126.61
1544.49
1833.74
1987.08
2027.03
2000.84
0.00213856
0.00825087
0.00707529
0.00828623
0.00644877
0.00413044
0.00206194
0.000920371
0.000493395
0.00029364
0.000181683
0.000109084
6.68019e-05
4.1533e-05
2.57417e-05
1.60431e-05
9.99948e-06
6.30123e-06
3.99872e-06
2.63627e-06
1.80367e-06
1.32109e-06
1.03954e-06
8.87661e-07
8.52851e-07
1.07395e-06
1.30906e-06
1.33038e-06
1.27901e-06
1.19477e-06
1.11731e-06
1.10491e-06
1.34073e-06
2.07835e-06
7.43049e-06
5.72425e-05
0.000485861
0.00367023
0.0240393
0.134635
0.644228
2.68003
9.99979
34.3296
107.501
292.016
646.175
1117.68
1554.98
1862.67
2028.22
2079.73
2046.37
1971.63
0.00204092
0.00790746
0.00677159
0.00800954
0.00633313
0.00408489
0.00203369
0.000913047
0.000494628
0.000295467
0.000182605
0.000109517
6.70642e-05
4.16575e-05
2.57921e-05
1.60759e-05
1.00314e-05
6.32303e-06
4.01298e-06
2.64537e-06
1.80903e-06
1.3253e-06
1.04285e-06
8.89549e-07
8.20922e-07
9.74672e-07
1.27657e-06
1.33923e-06
1.29322e-06
1.2057e-06
1.12521e-06
1.09599e-06
1.24804e-06
1.77376e-06
4.86953e-06
3.53013e-05
0.000319726
0.00259849
0.0181431
0.107342
0.535909
2.29793
8.75731
30.5974
97.9741
273.984
625.029
1107.52
1564.59
1891.46
2070.65
2129.48
2103.62
2019.15
1912.91
0.00194394
0.00757535
0.00649977
0.00777126
0.00623181
0.00403795
0.00200019
0.000903842
0.000495778
0.000297068
0.000183525
0.000109981
6.73766e-05
4.18272e-05
2.58635e-05
1.61114e-05
1.00613e-05
6.34446e-06
4.0274e-06
2.6549e-06
1.81503e-06
1.32956e-06
1.04651e-06
8.91899e-07
8.14781e-07
8.89615e-07
1.20693e-06
1.34669e-06
1.30781e-06
1.217e-06
1.13408e-06
1.09395e-06
1.18357e-06
1.57997e-06
3.35657e-06
2.14842e-05
0.000206134
0.00181396
0.0135805
0.0852313
0.445456
1.9711
7.6749
27.2641
89.1203
256.379
603.269
1096.14
1573.38
1920.24
2113.7
2181.04
2158.38
2078.3
1960.83
1835.92
0.00184692
0.00724505
0.0062533
0.00756255
0.00614227
0.00398932
0.00196513
0.000894209
0.000496546
0.000298409
0.000184238
0.000110444
6.77049e-05
4.20194e-05
2.59582e-05
1.61562e-05
1.00893e-05
6.36521e-06
4.04208e-06
2.66471e-06
1.8215e-06
1.33389e-06
1.0502e-06
8.94703e-07
8.15459e-07
8.31114e-07
1.11755e-06
1.34783e-06
1.32165e-06
1.22908e-06
1.14361e-06
1.09673e-06
1.14404e-06
1.44595e-06
2.49033e-06
1.3012e-05
0.000129965
0.00124618
0.0100719
0.0674025
0.370107
1.69289
6.73518
24.3072
80.9507
239.308
581.032
1083.55
1581.31
1948.93
2157.5
2233.8
2215.28
2135.29
2020.01
1883.16
1748.7
0.00174826
0.00689966
0.00603049
0.00738639
0.00606118
0.00393729
0.00192945
0.000886182
0.00049738
0.000299318
0.000184695
0.000110793
6.80278e-05
4.22148e-05
2.60633e-05
1.621e-05
1.01177e-05
6.38409e-06
4.05663e-06
2.67454e-06
1.82815e-06
1.33826e-06
1.05369e-06
8.97824e-07
8.17209e-07
7.95873e-07
1.01663e-06
1.33045e-06
1.33461e-06
1.24263e-06
1.15334e-06
1.10335e-06
1.12355e-06
1.34649e-06
2.00017e-06
7.95683e-06
7.99504e-05
0.00084045
0.00739425
0.0530744
0.307532
1.45678
5.9235
21.6974
73.4767
222.865
558.467
1069.79
1588.31
1977.48
2202.02
2287.9
2273.76
2194.62
2077.29
1941.14
1794.58
1656.82
0.00164676
0.00652974
0.00582798
0.00724402
0.00598474
0.00388043
0.00189374
0.000879724
0.000498801
0.000299993
0.000184889
0.00011103
6.8289e-05
4.2401e-05
2.61675e-05
1.62704e-05
1.01488e-05
6.40117e-06
4.07006e-06
2.68403e-06
1.83468e-06
1.34268e-06
1.05695e-06
9.00984e-07
8.19199e-07
7.85477e-07
9.23942e-07
1.27242e-06
1.34737e-06
1.25762e-06
1.16319e-06
1.11184e-06
1.11458e-06
1.27178e-06
1.72471e-06
5.02143e-06
4.79563e-05
0.000554588
0.00536621
0.0416093
0.255635
1.25714
5.22543
19.4086
66.6882
207.161
535.713
1054.93
1594.33
2005.84
2247.2
2343.33
2333.98
2255.75
2136.97
1997.41
1850.6
1700.9
1563.99
0.00154351
0.00615277
0.0056489
0.00713017
0.00590889
0.00381522
0.00185819
0.000875165
0.000500981
0.000300712
0.000184971
0.00011112
6.84926e-05
4.25537e-05
2.62641e-05
1.63299e-05
1.01807e-05
6.41658e-06
4.082e-06
2.69267e-06
1.84085e-06
1.34718e-06
1.06002e-06
9.03925e-07
8.21584e-07
7.84853e-07
8.54797e-07
1.19263e-06
1.35738e-06
1.27324e-06
1.17327e-06
1.12093e-06
1.1111e-06
1.21943e-06
1.55914e-06
3.35414e-06
2.80829e-05
0.000356961
0.00384104
0.0324712
0.212696
1.08855
4.62852
17.4125
60.572
192.287
512.947
1039.05
1599.3
2033.93
2293.03
2400.08
2395.95
2318.84
2198.56
2056.07
1905.03
1754.52
1606.03
1472.64
0.00144575
0.00578253
0.00549369
0.00703622
0.00582787
0.00373845
0.00182196
0.000871691
0.000503625
0.000301535
0.000185098
0.00011117
6.86236e-05
4.26771e-05
2.63464e-05
1.63856e-05
1.02104e-05
6.43035e-06
4.09067e-06
2.69999e-06
1.84659e-06
1.35161e-06
1.06296e-06
9.06613e-07
8.24362e-07
7.86385e-07
8.10645e-07
1.09705e-06
1.35681e-06
1.28847e-06
1.18396e-06
1.12971e-06
1.11377e-06
1.18661e-06
1.4467e-06
2.44756e-06
1.61741e-05
0.000223224
0.00270492
0.0252047
0.177265
0.946415
4.12009
15.6857
55.1017
178.344
490.33
1022.27
1603.18
2061.68
2339.47
2458.14
2459.66
2383.93
2262.21
2116.65
1961.8
1806.63
1656.99
1512.49
1384.31
0.00135225
0.00544116
0.00536513
0.00695412
0.00573992
0.00365165
0.00178541
0.000868849
0.000506303
0.000302403
0.000185343
0.000111287
6.87425e-05
4.276e-05
2.64143e-05
1.64333e-05
1.02389e-05
6.44241e-06
4.09822e-06
2.70576e-06
1.85164e-06
1.35586e-06
1.06589e-06
9.09113e-07
8.27225e-07
7.8834e-07
7.89552e-07
9.99856e-07
1.32938e-06
1.30328e-06
1.196e-06
1.1381e-06
1.12107e-06
1.16822e-06
1.36162e-06
1.97402e-06
9.31402e-06
0.000135145
0.00186699
0.0194433
0.148086
0.826803
3.6887
14.2033
50.2562
165.386
468.06
1004.74
1605.96
2089.02
2386.45
2517.5
2525.13
2450.99
2327.96
2179.32
2020.46
1861
1706.53
1560.7
1421.9
1299.99
0.00126407
0.00513565
0.00525657
0.00687346
0.00564419
0.0035555
0.00175069
0.000866503
0.000508744
0.00030314
0.000185698
0.000111497
6.8893e-05
4.28386e-05
2.64696e-05
1.64744e-05
1.02658e-05
6.45566e-06
4.10562e-06
2.71014e-06
1.85625e-06
1.35991e-06
1.06894e-06
9.11571e-07
8.29963e-07
7.90882e-07
7.85541e-07
9.17791e-07
1.26497e-06
1.31831e-06
1.21e-06
1.14623e-06
1.12938e-06
1.15877e-06
1.29596e-06
1.72609e-06
5.5234e-06
7.88589e-05
0.00125777
0.01488
0.124132
0.726357
3.32367
12.9426
46.0051
153.449
446.317
986.63
1607.61
2115.84
2433.93
2578.08
2592.35
2520.08
2395.81
2244.11
2081.18
1917.2
1758.22
1607.54
1467.33
1335.29
1220.28
0.00118446
0.00486702
0.00516483
0.0067862
0.00553744
0.0034517
0.00171747
0.000864759
0.000510767
0.000303685
0.00018605
0.000111782
6.90885e-05
4.29422e-05
2.65288e-05
1.65126e-05
1.02917e-05
6.47052e-06
4.11391e-06
2.71418e-06
1.86062e-06
1.36375e-06
1.07201e-06
9.14101e-07
8.32508e-07
7.9392e-07
7.86381e-07
8.58137e-07
1.18479e-06
1.32804e-06
1.22556e-06
1.15413e-06
1.13825e-06
1.15658e-06
1.24842e-06
1.58665e-06
3.51679e-06
4.42378e-05
0.000822397
0.0112749
0.10449
0.642445
3.0153
11.88
42.3248
142.549
425.304
968.141
1608.17
2142.07
2481.82
2639.9
2661.27
2591.17
2465.79
2311.01
2143.97
1975.39
1811.68
1656.44
1511.45
1377.96
1253.28
1145.57
0.00111262
0.00463409
0.00509039
0.0066892
0.00541888
0.00334564
0.00168506
0.000863572
0.00051227
0.00030401
0.000186369
0.00011206
6.93053e-05
4.3064e-05
2.65965e-05
1.65523e-05
1.03175e-05
6.48554e-06
4.12389e-06
2.71852e-06
1.86475e-06
1.36736e-06
1.07499e-06
9.16883e-07
8.34916e-07
7.97081e-07
7.8834e-07
8.18842e-07
1.09547e-06
1.32259e-06
1.24145e-06
1.16192e-06
1.14663e-06
1.16038e-06
1.21713e-06
1.49155e-06
2.50206e-06
2.39001e-05
0.000518701
0.00843233
0.088419
0.57273
2.75617
10.99
39.1901
132.715
405.18
949.313
1607.69
2167.58
2530.06
2702.83
2731.89
2664.24
2537.9
2380.07
2208.85
2035.59
1867.03
1707.01
1557.52
1419.36
1293.22
1176.25
1076.13
0.00104873
0.00444408
0.00503653
0.00657481
0.00528842
0.00323987
0.00165453
0.000862048
0.000513272
0.000304247
0.00018663
0.000112322
6.95053e-05
4.31861e-05
2.66693e-05
1.65913e-05
1.03428e-05
6.50018e-06
4.13504e-06
2.72395e-06
1.86881e-06
1.37061e-06
1.07784e-06
9.19822e-07
8.37228e-07
8.00022e-07
7.9063e-07
8.02677e-07
1.00943e-06
1.29078e-06
1.2572e-06
1.17026e-06
1.15451e-06
1.16759e-06
1.19797e-06
1.41502e-06
2.02645e-06
1.26294e-05
0.000312958
0.00620092
0.0752863
0.515266
2.54023
10.2501
36.5656
123.987
386.097
930.277
1606.33
2192.29
2578.53
2766.84
2804.11
2739.28
2612.1
2451.28
2275.85
2097.8
1924.3
1759.38
1605.17
1462.62
1331.95
1213.51
1104.47
1012.16
0.000990348
0.00429133
0.00500384
0.00644161
0.00514375
0.00313728
0.0016266
0.000859733
0.000513669
0.000304458
0.000186904
0.000112562
6.96875e-05
4.32981e-05
2.67416e-05
1.66317e-05
1.03671e-05
6.51384e-06
4.14622e-06
2.73022e-06
1.87294e-06
1.37352e-06
1.08041e-06
9.22821e-07
8.39464e-07
8.02588e-07
7.93576e-07
7.99244e-07
9.38076e-07
1.23047e-06
1.27117e-06
1.18026e-06
1.16184e-06
1.17682e-06
1.18758e-06
1.35129e-06
1.80809e-06
6.80577e-06
0.000178778
0.00445741
0.0646038
0.46827
2.36306
9.64043
34.4081
116.404
368.197
911.278
1604.25
2216.35
2627.18
2831.77
2877.89
2816.2
2688.41
2524.62
2344.97
2162.07
1983.51
1813.59
1654.54
1507.39
1372.45
1249.62
1139.09
1038.11
953.879
0.000934583
0.00415806
0.00498024
0.00628929
0.00498417
0.00304145
0.00160085
0.000857104
0.0005134
0.000304672
0.000187188
0.000112796
6.98526e-05
4.33913e-05
2.68065e-05
1.66707e-05
1.03909e-05
6.52698e-06
4.15673e-06
2.73665e-06
1.87742e-06
1.37618e-06
1.08277e-06
9.25738e-07
8.41699e-07
8.04891e-07
7.97032e-07
8.00175e-07
8.84809e-07
1.159e-06
1.27717e-06
1.19243e-06
1.16872e-06
1.18617e-06
1.18373e-06
1.30239e-06
1.69507e-06
4.01845e-06
9.54142e-05
0.00310644
0.0559767
0.430303
2.22066
9.14743
32.6632
110.004
351.657
892.519
1601.66
2239.94
2675.88
2897.52
2953.06
2894.96
2766.73
2600.09
2416.18
2228.39
2044.68
1869.64
1705.64
1553.77
1414.37
1287.4
1172.6
1070.11
977.351
901.494
0.00087849
0.00402581
0.00495317
0.00612335
0.0048113
0.0029532
0.0015772
0.000854036
0.000512776
0.000304721
0.000187452
0.000113033
7.00079e-05
4.34772e-05
2.6862e-05
1.67063e-05
1.0415e-05
6.53929e-06
4.1667e-06
2.74274e-06
1.88204e-06
1.3787e-06
1.08498e-06
9.28432e-07
8.43997e-07
8.07134e-07
8.00318e-07
8.02475e-07
8.47749e-07
1.0836e-06
1.26583e-06
1.20585e-06
1.17526e-06
1.19511e-06
1.18491e-06
1.26934e-06
1.61266e-06
2.79588e-06
4.69848e-05
0.00207325
0.0491096
0.400182
2.10959
8.76171
31.2819
104.763
336.761
874.117
1598.76
2263.08
2724.57
2963.9
3029.5
2975.4
2847.04
2677.62
2489.51
2296.74
2107.83
1927.56
1758.49
1601.8
1457.82
1326.54
1207.72
1101.06
1006.75
922.384
855.256
0.000820782
0.00386902
0.00490822
0.0059469
0.00463249
0.00286962
0.00155503
0.000850474
0.000512001
0.000304654
0.000187613
0.000113255
7.01738e-05
4.35616e-05
2.69092e-05
1.67384e-05
1.0438e-05
6.55204e-06
4.17637e-06
2.74809e-06
1.88678e-06
1.38144e-06
1.08709e-06
9.3091e-07
8.4637e-07
8.0948e-07
8.03163e-07
8.06222e-07
8.33774e-07
1.01274e-06
1.23045e-06
1.21968e-06
1.18181e-06
1.20359e-06
1.19002e-06
1.24804e-06
1.53742e-06
2.33667e-06
2.16041e-05
0.00129883
0.0437752
0.377066
2.02663
8.47666
30.2274
100.602
323.82
856.241
1595.64
2285.84
2773.12
3030.74
3106.97
3057.39
2929.15
2757.18
2564.87
2367.15
2172.92
1987.36
1813.12
1651.47
1502.84
1367.13
1244.14
1133.56
1035.12
949.148
873.418
815.437
0.000757096
0.00367977
0.00483333
0.00576046
0.00445381
0.00279022
0.0015324
0.000846393
0.000511342
0.000304613
0.000187628
0.000113413
7.03294e-05
4.36522e-05
2.696e-05
1.67646e-05
1.04589e-05
6.56588e-06
4.18685e-06
2.7533e-06
1.89144e-06
1.3846e-06
1.08925e-06
9.33083e-07
8.48644e-07
8.11901e-07
8.05524e-07
8.11349e-07
8.30348e-07
9.5401e-07
1.17938e-06
1.23018e-06
1.18895e-06
1.21159e-06
1.19762e-06
1.23616e-06
1.47116e-06
2.16798e-06
1.02396e-05
0.000737331
0.0398
0.360369
1.96938
8.28533
29.48
97.4037
313.04
839.281
1592.13
2308.35
2820.99
3097.36
3185.12
3140.77
3013.15
2838.7
2642.25
2439.54
2239.98
2049.01
1869.52
1702.83
1549.41
1409.2
1281.93
1167.29
1065.01
974.933
897.506
830.697
782.303
0.000688784
0.00345376
0.00473048
0.00557442
0.0042826
0.00271458
0.0015096
0.000841522
0.000510834
0.000304638
0.000187636
0.000113467
7.04462e-05
4.3748e-05
2.7016e-05
1.67894e-05
1.04773e-05
6.57964e-06
4.19808e-06
2.75846e-06
1.8959e-06
1.38788e-06
1.09163e-06
9.35132e-07
8.50691e-07
8.14858e-07
8.07639e-07
8.17083e-07
8.31146e-07
9.10307e-07
1.121e-06
1.23258e-06
1.19772e-06
1.21917e-06
1.20656e-06
1.23048e-06
1.41828e-06
2.08337e-06
6.23946e-06
0.000352064
0.0370736
0.349702
1.9362
8.18065
29.0254
95.075
304.352
823.948
1588.03
2329.28
2867.28
3163.71
3264.02
3225.49
3098.79
2922.19
2721.68
2513.93
2308.95
2112.55
1927.69
1755.88
1597.58
1452.75
1321.13
1202.34
1096.08
1002.19
920.644
852.042
794.473
756.068
0.000618524
0.00319955
0.00460898
0.00539812
0.00412666
0.00264239
0.00148796
0.000835756
0.000510132
0.000304666
0.000187651
0.000113503
7.05111e-05
4.38259e-05
2.70754e-05
1.68192e-05
1.04932e-05
6.59208e-06
4.20995e-06
2.76434e-06
1.90024e-06
1.39127e-06
1.09434e-06
9.37068e-07
8.52514e-07
8.18195e-07
8.09805e-07
8.22646e-07
8.33468e-07
8.81196e-07
1.06019e-06
1.21742e-06
1.20842e-06
1.22648e-06
1.21584e-06
1.22902e-06
1.37834e-06
2.01152e-06
5.31334e-06
0.000120234
0.0355437
0.344877
1.92607
8.15585
28.8457
93.561
297.472
810.936
1581.97
2347.09
2912.95
3230.31
3343.68
3311.43
3185.96
3007.34
2802.96
2590.27
2379.9
2177.91
1987.65
1810.6
1647.34
1497.81
1361.74
1238.73
1128.42
1030.6
945.241
872.45
812.992
764.967
736.825
0.000549941
0.00292675
0.00447733
0.0052353
0.00398626
0.00257269
0.00146806
0.000830057
0.000508951
0.0003045
0.000187702
0.000113546
7.05437e-05