/*--------------------------------*- C++ -*----------------------------------*\
| =========                 |                                                 |
| \\      /  F ield         | OpenFOAM: The Open Source CFD Toolbox           |
|  \\    /   O peration     | Version:  v2012                                 |
|   \\  /    A nd           | Website:  www.openfoam.com                      |
|    \\/     M anipulation  |                                                 |
\*---------------------------------------------------------------------------*/
FoamFile
{
    version     2.0;
    format      ascii;
    class       volScalarField;
    location    "12000";
    object      lambda2;
}
// * * * * * * * * * * * * * * * * * * * * * * * * * * * * * * * * * * * * * //

dimensions      [0 0 0 0 0 0 0];


internalField   nonuniform List<scalar> 
27324
(
-0.543894
-0.56422
-0.595886
-0.574704
-0.611258
-0.606682
-0.586237
-0.620534
-0.61957
-0.617471
-0.59668
-0.631953
-0.628946
-0.629785
-0.628054
-0.604549
-0.64407
-0.640899
-0.640294
-0.639101
-0.626208
-0.611272
-0.656521
-0.654196
-0.652943
-0.648918
-0.63424
-0.610695
-0.618846
-0.670422
-0.667948
-0.666257
-0.659478
-0.642046
-0.617871
-0.585493
-0.626838
-0.686894
-0.68253
-0.678566
-0.67017
-0.650974
-0.626412
-0.592338
-0.525758
-0.634644
-0.705702
-0.698517
-0.690173
-0.679443
-0.660763
-0.637145
-0.59684
-0.529079
-0.417888
-0.604683
-0.72334
-0.716324
-0.702198
-0.688064
-0.668735
-0.647107
-0.604292
-0.52564
-0.425826
-0.253113
-0.541444
-0.715124
-0.72851
-0.715668
-0.697161
-0.675534
-0.651414
-0.610407
-0.530094
-0.411844
-0.271401
-0.0572607
-0.48446
-0.667364
-0.730128
-0.728743
-0.706786
-0.681205
-0.652859
-0.608053
-0.533671
-0.415238
-0.235856
-0.0969564
-0.0119008
-0.486364
-0.593285
-0.687681
-0.738712
-0.723881
-0.685052
-0.65113
-0.607252
-0.522044
-0.419254
-0.236824
-0.0522332
-0.0126982
-0.0753821
-0.488214
-0.571246
-0.611921
-0.699863
-0.728664
-0.697142
-0.654245
-0.6019
-0.521704
-0.397473
-0.2429
-0.0458709
-1.36238e-05
-0.00109103
-0.0979759
-0.488322
-0.567499
-0.587105
-0.632045
-0.687968
-0.703306
-0.655003
-0.597669
-0.512429
-0.395697
-0.217547
-0.047644
-0.00567661
-0.0192115
-0.000347973
-0.0679927
-0.4977
-0.567091
-0.584356
-0.599666
-0.634224
-0.648858
-0.685417
-0.645603
-0.488038
-0.369115
-0.195289
-0.0366493
-0.00917275
-0.0504249
-0.0265459
-0.00108222
-0.0510925
-0.508283
-0.575527
-0.585486
-0.590605
-0.605318
-0.60708
-0.592656
-0.664034
-0.646508
-0.419246
-0.160233
-0.00278904
-0.0114315
-0.0655535
-0.0541159
-0.0394273
-0.00102634
-0.045447
-0.517596
-0.579876
-0.590369
-0.5876
-0.588804
-0.602482
-0.561579
-0.519664
-0.612695
-0.614285
-0.36732
-0.00268852
-0.0536716
-0.0502552
-0.0620733
-0.0409511
-0.0103661
-0.0297357
-0.0124691
-0.526502
-0.58393
-0.590169
-0.585801
-0.581995
-0.582344
-0.600024
-0.501589
-0.405001
-0.49331
-0.553168
-0.423524
-0.0838668
-3.8289e-05
-2.56038e-05
-0.0178052
-0.121883
-0.000201414
-0.218643
-4.51129e-07
-0.532201
-0.587304
-0.589716
-0.583651
-0.576898
-0.57495
-0.584961
-0.591161
-0.385961
-0.284761
-0.174881
-0.344119
-0.473282
-0.403082
-0.261414
-0.23724
-0.215845
-0.233263
-0.327338
-0.291375
-0.0247555
-0.535194
-0.588972
-0.588211
-0.581715
-0.573995
-0.574004
-0.5757
-0.581604
-0.55256
-0.295001
-0.182714
-0.137605
-0.104715
-0.205483
-0.408793
-0.357983
-0.322847
-0.168598
-0.0922931
-0.0842477
-0.414342
-0.0233377
-0.536152
-0.589558
-0.586057
-0.579724
-0.573646
-0.576009
-0.579185
-0.561711
-0.556618
-0.508315
-0.216766
-0.13633
-0.262632
-0.359338
-0.319019
-0.077907
-0.0407064
-0.0975767
-0.206142
-0.349999
-0.340068
-0.485395
-0.127809
-0.53545
-0.589203
-0.583797
-0.578057
-0.57451
-0.579065
-0.583439
-0.555953
-0.52261
-0.566496
-0.368936
-0.156165
-0.0808638
-0.175264
-0.280541
-0.332642
-0.297372
-0.292295
-0.276411
-0.225618
-0.153373
-0.00222748
-0.0303896
-0.0126724
-0.532384
-0.587358
-0.581737
-0.576792
-0.577163
-0.582508
-0.58615
-0.552742
-0.508893
-0.524808
-0.541332
-0.0431061
-0.178164
-0.036744
-0.0586556
-0.128967
-0.127868
-0.133009
-0.10143
-0.0534892
-0.0029003
-0.00139954
-0.0123475
-0.323993
-0.0236684
-0.527125
-0.583469
-0.579784
-0.576937
-0.580623
-0.585603
-0.587761
-0.550612
-0.510775
-0.498578
-0.503972
-0.42882
-0.0545546
-0.136394
-0.0208922
-0.00788645
-0.00510461
-0.0121887
-0.0192759
-0.0145174
-0.0071724
-0.000193556
-0.00218899
-0.0190103
-0.225341
-0.0204976
-0.52139
-0.578751
-0.578556
-0.579099
-0.584327
-0.58773
-0.587102
-0.548266
-0.507475
-0.498913
-0.451818
-0.465779
-0.156604
-0.0326318
-0.0939439
-0.00322805
-0.000165049
-0.00103422
-0.00232542
-0.000576859
-5.83899e-06
-0.000724216
-1.15875e-05
-0.00340662
-0.0560862
-0.0112622
-0.0148581
-0.518716
-0.574835
-0.579435
-0.582716
-0.587716
-0.588065
-0.58483
-0.546456
-0.505648
-0.49403
-0.436657
-0.380454
-0.430937
-0.137639
-0.00453291
-0.0183596
-0.000589554
-7.58917e-05
-0.000195093
-0.00246373
-0.00839612
-0.00784234
-0.000346275
-0.00123173
-0.0778352
-0.000551795
-0.00855585
-0.011689
-0.520384
-0.573545
-0.581928
-0.586963
-0.589538
-0.586694
-0.581863
-0.545578
-0.502962
-0.492508
-0.435131
-0.350691
-0.334699
-0.328174
-0.258458
-0.0329921
-0.000123601
-6.0101e-05
-0.00128095
-0.00339923
-0.00684182
-0.00945516
-0.000383611
-0.000726797
-0.00727511
-0.0665855
-0.0381908
-0.00754186
-0.010087
-0.524367
-0.574894
-0.584563
-0.590649
-0.588913
-0.584455
-0.578965
-0.545898
-0.500651
-0.492434
-0.434247
-0.357604
-0.255861
-0.322796
-0.0130204
-0.0693632
-0.00973657
-0.0143938
-0.00251052
-0.00325814
-0.00463156
-0.0101333
-0.00176219
-0.00222035
-0.00344551
-0.0989127
-0.0122148
-0.0279903
-0.00358512
-0.00669607
-0.53024
-0.578592
-0.586501
-0.592166
-0.587309
-0.581995
-0.577491
-0.546819
-0.498968
-0.493797
-0.437167
-0.357646
-0.244043
-0.190492
-0.271688
-0.170899
-0.0376481
-2.09046e-05
-1.77215e-05
-0.00295348
-0.00280763
-0.00994452
-0.00382594
-0.000584666
-0.00293872
-0.0596869
-0.00848586
-0.0375583
-0.014041
-0.00042398
-0.00178348
-0.541105
-0.584227
-0.59053
-0.591507
-0.585005
-0.58022
-0.578498
-0.548169
-0.498676
-0.49587
-0.440253
-0.359474
-0.233518
-0.140157
-0.140835
-0.146679
-0.183543
-0.00191832
-0.00448048
-0.00278317
-0.00258274
-0.00963045
-0.00534272
-0.000322311
-0.00220779
-0.00254012
-0.0820685
-0.0427357
-0.0197557
-0.00610154
-0.00114836
-0.00014645
-0.54935
-0.590874
-0.591779
-0.588813
-0.582795
-0.580055
-0.580275
-0.549365
-0.500536
-0.497696
-0.441676
-0.358529
-0.227395
-0.133215
-0.0368331
-0.200505
-0.00530549
-0.0828405
-0.00667703
-0.00279115
-0.00291937
-0.00922909
-0.00556658
-0.00132489
-0.00154113
-0.00594736
-0.11499
-0.0190717
-0.0322915
-0.00768945
-0.000974864
-0.00634637
-0.00159075
-0.555164
-0.594753
-0.589597
-0.582715
-0.579082
-0.581634
-0.582818
-0.550128
-0.503668
-0.498712
-0.441333
-0.354362
-0.223626
-0.127317
-0.0220681
-0.0528893
-0.208501
-0.08095
-0.00532246
-0.00064037
-0.00279972
-0.00840057
-0.00596183
-0.00260285
-8.37356e-05
-0.00154163
-0.0638525
-0.00656726
-0.0464262
-0.0123784
-0.00135559
-0.000605
-0.0100815
-0.000934251
-0.557301
-0.596264
-0.585813
-0.576428
-0.577566
-0.585679
-0.585305
-0.550396
-0.50721
-0.497349
-0.439745
-0.350288
-0.219847
-0.129508
-0.0201542
-0.00755771
-0.15232
-0.0378377
-0.0519021
-0.0121601
-0.00268339
-0.00694545
-0.00582561
-0.00451356
-1.88986e-06
-0.00450451
-0.00264168
-0.0783855
-0.0519427
-0.0198483
-0.00279882
-0.000398392
-0.00488209
-0.000666586
-0.00921202
-0.556374
-0.595043
-0.582059
-0.571342
-0.580001
-0.59041
-0.586378
-0.549766
-0.510379
-0.494539
-0.436132
-0.347005
-0.220041
-0.127767
-0.0200561
-0.00447343
-0.0425049
-0.172518
-0.0349719
-0.0416384
-0.0103248
-0.00431418
-0.00634681
-0.005182
-0.00198518
-0.0081966
-0.00683998
-0.11686
-0.0309405
-0.0321726
-0.00487801
-2.00626e-05
-0.00595873
-4.21559e-05
-0.00290484
-0.00675164
-0.553685
-0.593104
-0.57821
-0.570563
-0.582133
-0.594629
-0.585926
-0.548448
-0.512616
-0.490786
-0.432457
-0.345308
-0.22256
-0.127447
-0.0208736
-0.00244609
-0.0183596
-0.0605464
-0.138064
-0.0921972
-0.0226377
-0.00334599
-0.00687702
-0.00690121
-0.00249784
-0.00388962
-0.00249025
-0.0709261
-0.00013122
-0.0478199
-0.00842418
-7.08491e-05
-0.00504122
-0.000593204
-0.00603405
-0.00218327
-0.00105809
-0.545962
-0.586723
-0.575918
-0.572091
-0.584177
-0.597196
-0.582338
-0.546744
-0.514457
-0.488424
-0.429489
-0.345165
-0.226723
-0.126065
-0.0212146
-0.00233305
-0.0155947
-0.00283558
-0.178252
-9.70625e-05
-0.070757
-0.00841017
-0.00702734
-0.00750096
-0.00391816
-0.000548133
-0.00640981
-0.00436042
-0.0569616
-0.0582141
-0.0149024
-0.000401113
-0.00352877
-0.00137831
-0.00442317
-0.00672871
-8.12284e-05
-6.58756e-07
-0.543181
-0.582163
-0.573724
-0.57378
-0.585673
-0.596623
-0.578898
-0.54539
-0.518301
-0.479813
-0.42729
-0.346848
-0.230305
-0.122961
-0.022331
-0.0017563
-0.0135641
-0.000831305
-0.0526434
-0.172388
-0.105843
-0.0339171
-0.00746574
-0.0054243
-0.0040108
-2.69635e-05
-0.00870334
-0.0092266
-0.112139
-0.0472054
-0.0255931
-0.00152779
-0.00171677
-0.00279561
-0.00336537
-0.00596133
-0.00122775
-0.00317794
-0.000358927
-0.545077
-0.581664
-0.578415
-0.579288
-0.586563
-0.594498
-0.575917
-0.544937
-0.51806
-0.476968
-0.426566
-0.347437
-0.233823
-0.118377
-0.0233247
-0.00236119
-0.0122077
-2.34423e-05
-0.00729955
-0.164757
-0.00118169
-0.0742087
-0.0308771
-0.00181891
-0.00499671
-0.000726398
-0.00412279
-0.00580322
-0.0892053
-0.00947457
-0.0400723
-0.0043822
-0.000932261
-0.00451434
-0.00243009
-0.00655191
-0.000957721
-0.000174115
-0.00271018
-0.00631305
-0.550424
-0.583755
-0.582268
-0.583625
-0.586795
-0.592369
-0.574226
-0.545034
-0.520012
-0.476067
-0.424585
-0.351678
-0.235296
-0.113664
-0.0242451
-0.00216754
-0.0119617
-0.000116981
-0.00408104
-0.0330421
-0.184446
-0.109984
-0.0329092
-0.000473713
-0.00552238
-0.00194229
-0.00152471
-0.00274648
-0.01612
-0.0218505
-0.0539619
-0.00960777
-0.000434528
-0.00617613
-0.00144684
-0.00675526
-0.00166811
-0.000374304
-0.000117447
-2.40402e-05
-0.018659
-0.554785
-0.586871
-0.584453
-0.583379
-0.584768
-0.589214
-0.573357
-0.545649
-0.522448
-0.475286
-0.423779
-0.35497
-0.236492
-0.109851
-0.0269615
-0.0021475
-0.0101733
-1.88185e-05
-0.00272605
-0.000984001
-0.184931
-0.00885602
-0.0772997
-0.00982904
-0.00379451
-0.00297856
-2.34264e-05
-0.0106299
-0.0080494
-0.0911522
-0.0556571
-0.0179302
-7.57011e-06
-0.00742093
-0.00085177
-0.00726313
-0.00197032
-0.000208556
-0.000533424
-0.00207682
-0.00580782
-0.0234106
-0.566634
-0.588862
-0.583792
-0.582134
-0.583932
-0.586464
-0.573601
-0.545783
-0.524674
-0.475607
-0.419642
-0.353308
-0.237651
-0.102381
-0.0294748
-0.00224273
-0.00912983
-0.000356689
-0.00174466
-0.000695359
-0.0214492
-0.180374
-0.132089
-0.0268933
-0.000469493
-0.00531387
-0.000544021
-0.00665179
-0.0161942
-0.107529
-0.0316518
-0.0295815
-0.000449582
-0.00800968
-0.000280459
-0.00780499
-0.00246424
-0.000139824
-0.000590297
-0.000966416
-0.0125967
-0.0112877
-0.0178599
-0.572502
-0.593808
-0.581866
-0.580423
-0.584332
-0.587721
-0.574821
-0.549769
-0.525296
-0.473964
-0.417415
-0.351891
-0.233023
-0.0966989
-0.0314165
-0.00239898
-0.00711208
-0.000290099
-0.00213085
-0.00149823
-0.010327
-0.259016
-0.0689729
-0.0660062
-0.000150662
-0.00654268
-0.00166612
-0.00172819
-0.000465869
-0.0491782
-1.09188e-06
-0.0426078
-0.00220694
-0.00727974
-3.56743e-08
-0.00835354
-0.00291734
-6.4438e-05
-0.000775182
-0.000737849
-0.0103457
-0.0204352
-0.00784746
-0.0277191
-0.572965
-0.592906
-0.575306
-0.57941
-0.586069
-0.588567
-0.5754
-0.551948
-0.528256
-0.471435
-0.413532
-0.354785
-0.231576
-0.0920959
-0.0341987
-0.00231443
-0.00576001
-0.00068774
-0.000966267
-0.00127846
-0.00743416
-0.0930166
-0.100215
-0.120723
-0.0211183
-0.00288644
-0.00279305
-1.6299e-05
-0.0147947
-0.000228628
-0.0467513
-0.0496844
-0.00612647
-0.00481546
-0.000382177
-0.00853477
-0.00348808
-1.39326e-05
-0.000925704
-0.000409494
-0.00996908
-0.0193765
-0.015377
-0.0114841
-0.124798
-0.571285
-0.590239
-0.5688
-0.577491
-0.588132
-0.588957
-0.574602
-0.5548
-0.526798
-0.469263
-0.409919
-0.357614
-0.234023
-0.0875911
-0.0362135
-0.00274727
-0.00464905
-0.001025
-0.00193636
-0.00137401
-0.0021099
-0.000637488
-0.290215
-0.128544
-0.0493808
-3.10659e-05
-0.00521198
-0.000710441
-0.00867184
-0.0258349
-0.0996595
-0.0392556
-0.0135855
-0.00153694
-0.00142873
-0.00810375
-0.00419748
-9.83634e-07
-0.00106084
-0.000186671
-0.00903066
-0.0203528
-0.0149128
-0.0158909
-0.094397
-0.270866
-0.565453
-0.587492
-0.567725
-0.580228
-0.591389
-0.588648
-0.573448
-0.557415
-0.524445
-0.464437
-0.408225
-0.359274
-0.234872
-0.0863555
-0.0380653
-0.00217865
-0.00294269
-0.00152443
-0.00205349
-9.45671e-05
-0.000640244
-0.00184269
-0.220732
-0.00819289
-0.0989467
-0.000231479
-0.00697515
-0.00126466
-0.000467399
-0.0168668
-0.0885338
-0.0122824
-0.0306952
-5.42979e-05
-0.00320469
-0.00681874
-0.00511534
-4.02256e-05
-0.00114518
-4.12201e-05
-0.00816518
-0.0206401
-0.0164085
-0.0131687
-0.0900346
-0.25175
-0.35338
-0.56206
-0.582965
-0.569582
-0.582835
-0.592912
-0.586299
-0.572424
-0.559886
-0.521292
-0.461577
-0.408975
-0.362348
-0.23255
-0.0845198
-0.0403962
-0.00284922
-0.00222011
-0.00218812
-0.00192168
-0.000281109
-0.000847197
-0.00110305
-0.00879256
-0.207634
-0.150037
-0.0209492
-0.00293229
-0.0026866
-2.81739e-07
-0.000586981
-0.021637
-0.00561878
-0.0428504
-0.00267278
-0.00519626
-0.00501829
-0.00632835
-0.000144468
-0.0011787
-7.84279e-07
-0.00722365
-0.0209297
-0.0176729
-0.0123761
-0.0769212
-0.246813
-0.347634
-0.37888
-0.569366
-0.585605
-0.574732
-0.584985
-0.591372
-0.582519
-0.571456
-0.561791
-0.517809
-0.459277
-0.413122
-0.368884
-0.230561
-0.0792645
-0.0418863
-0.00388107
-0.00155299
-0.00245199
-0.00236549
-0.000533212
-0.000612504
-0.0031583
-0.0296764
-0.306619
-0.118743
-0.0538856
-0.000232615
-0.00515438
-0.00174208
-0.00751713
-0.0120372
-0.0592406
-0.0426543
-0.00735739
-0.00853713
-0.00302195
-0.00778186
-0.000328493
-0.00116413
-6.21147e-05
-0.00621849
-0.0210519
-0.0191705
-0.0113913
-0.0662283
-0.236098
-0.347942
-0.380016
-0.379316
-0.577826
-0.592201
-0.583182
-0.588498
-0.589247
-0.579416
-0.572655
-0.565579
-0.515188
-0.457778
-0.417007
-0.37158
-0.229726
-0.074837
-0.0413494
-0.00450782
-0.0010258
-0.00303835
-0.00289246
-0.0012133
-0.000853144
-0.000269811
-0.00879677
-0.170031
-0.00847604
-0.104714
-0.00138458
-0.00931545
-0.00180399
-0.00197212
-0.044145
-0.104645
-0.0287715
-0.0121014
-0.00740585
-0.00157411
-0.00924969
-0.00060113
-0.00112316
-0.00019937
-0.00515529
-0.0210166
-0.0207862
-0.0109383
-0.055843
-0.225725
-0.345127
-0.383732
-0.382654
-0.374069
-0.58401
-0.59751
-0.585522
-0.587183
-0.584039
-0.577701
-0.575048
-0.56607
-0.508599
-0.457096
-0.421321
-0.372104
-0.227264
-0.0748274
-0.0448677
-0.00444028
-0.000674981
-0.00430353
-0.00244578
-0.00110019
-0.000377198
-0.000104517
-2.37454e-07
-0.000682136
-0.258055
-0.148008
-0.0145834
-0.00710716
-0.00219124
-0.000518541
-0.0277644
-0.094114
-0.00435745
-0.0166236
-0.00301198
-0.000474376
-0.0103413
-0.00100945
-0.00106721
-0.000370915
-0.00412422
-0.0207096
-0.0224947
-0.0107854
-0.0462962
-0.214584
-0.342432
-0.385353
-0.38766
-0.378206
-0.367924
-0.594892
-0.600353
-0.585778
-0.584729
-0.580273
-0.575998
-0.576614
-0.567543
-0.505055
-0.453902
-0.426056
-0.372031
-0.221803
-0.0747026
-0.0445223
-0.00570534
-0.000627237
-0.00496202
-0.00192768
-0.000446619
-0.000287774
-0.000134172
-0.000377458
-0.0376907
-0.318442
-0.103028
-0.0589471
-0.000360149
-0.00440359
-0.00413691
-0.000781202
-0.0342422
-0.0143523
-0.0217402
-4.84874e-05
-8.28719e-05
-0.010543
-0.001595
-0.00099073
-0.000544426
-0.00318354
-0.0200906
-0.024325
-0.0109769
-0.0375807
-0.202957
-0.338993
-0.387146
-0.391016
-0.383444
-0.372649
-0.360965
-0.593544
-0.603077
-0.585216
-0.583188
-0.579421
-0.577701
-0.583042
-0.567712
-0.500932
-0.452913
-0.431198
-0.373124
-0.217059
-0.0711962
-0.0471761
-0.00550757
-0.000420466
-0.00627966
-0.00161559
-8.12749e-05
-0.000169254
-8.10946e-05
-3.6287e-05
-0.0113268
-0.161405
-0.0247181
-0.112413
-0.00149762
-0.0112124
-0.00642086
-0.000334277
-0.00107082
-0.0561115
-0.0191371
-0.00860883
-6.39539e-05
-0.0096849
-0.00241313
-0.000879943
-0.000724304
-0.00240542
-0.019112
-0.0261158
-0.0115061
-0.0298602
-0.190765
-0.335051
-0.388552
-0.394706
-0.387149
-0.377945
-0.366271
-0.353009
-0.592152
-0.599797
-0.580211
-0.582356
-0.579106
-0.57956
-0.58705
-0.568054
-0.497341
-0.452744
-0.434072
-0.368886
-0.21717
-0.0690018
-0.0440386
-0.00724696
-0.000306224
-0.00467005
-0.00145593
-4.15388e-07
-3.19298e-05
-4.42856e-05
-0.000228686
-5.56214e-05
-0.00392227
-0.271373
-0.151815
-0.002725
-0.0180333
-0.00172068
-0.00441696
-0.0320402
-0.0803585
-0.013487
-0.0233642
-0.00151535
-0.00831078
-0.00351465
-0.000706322
-0.000909834
-0.00180587
-0.0179086
-0.027754
-0.0124128
-0.0231188
-0.178143
-0.330567
-0.389694
-0.398274
-0.391228
-0.381821
-0.371512
-0.358929
-0.344212
-0.592859
-0.599326
-0.57888
-0.581099
-0.578612
-0.580643
-0.590025
-0.565925
-0.490706
-0.452279
-0.439533
-0.366483
-0.208581
-0.0715507
-0.0418611
-0.00833425
-0.000308151
-0.00336786
-0.00101709
-0.000145438
-1.51823e-05
-0.000205013
-0.000290285
-0.00113643
-0.049008
-0.34
-0.113965
-0.0656239
-0.0140096
-0.00091602
-0.00883611
-0.0397211
-0.0804969
-5.298e-06
-0.023416
-0.000840368
-0.00573668
-0.00484405
-0.000487228
-0.00113061
-0.00132619
-0.0166
-0.029021
-0.0137029
-0.0174669
-0.165086
-0.325528
-0.390583
-0.401848
-0.395253
-0.386075
-0.375562
-0.363954
-0.35072
-0.334914
-0.597505
-0.600888
-0.579977
-0.581434
-0.578169
-0.581262
-0.592161
-0.564076
-0.48455
-0.454916
-0.441627
-0.367507
-0.204893
-0.0682138
-0.0436243
-0.0085778
-0.000256292
-0.00471044
-0.000651714
-9.76448e-05
-3.83153e-05
-0.000246835
-8.51748e-06
-2.7619e-05
-0.0189249
-0.20437
-0.0033067
-0.104501
-0.003097
-0.00234812
-0.0168968
-0.0294521
-0.0590867
-0.0227682
-0.016116
-8.40408e-05
-0.00441435
-0.00613249
-0.000252097
-0.00137341
-0.000943059
-0.0153442
-0.0298826
-0.0152637
-0.012926
-0.151677
-0.319966
-0.391191
-0.405356
-0.399327
-0.39027
-0.379916
-0.368121
-0.355422
-0.34195
-0.325628
-0.607454
-0.606618
-0.581638
-0.580286
-0.577639
-0.582918
-0.594738
-0.562044
-0.481326
-0.4616
-0.447088
-0.365623
-0.204621
-0.0669599
-0.0395089
-0.00889986
-3.86636e-05
-0.00567857
-0.00151869
-6.71196e-05
-3.06292e-06
-0.000495155
-0.000165109
-0.000319057
-7.39209e-05
-0.00145799
-0.226984
-0.135997
-0.00191866
-0.0113884
-0.0105742
-0.0469915
-0.0270803
-0.0623392
-0.0103664
-0.00448044
-0.00381615
-0.00691219
-7.48409e-05
-0.00159741
-0.000615787
-0.014254
-0.0303287
-0.0170039
-0.00949617
-0.137974
-0.31384
-0.391517
-0.408786
-0.403419
-0.394528
-0.384253
-0.372543
-0.359639
-0.346251
-0.333068
-0.316854
-0.616948
-0.614183
-0.583993
-0.577723
-0.576802
-0.584396
-0.595906
-0.560549
-0.478949
-0.468219
-0.449215
-0.36098
-0.202475
-0.0711489
-0.0367884
-0.0102976
-4.83768e-05
-0.0052879
-0.00222025
-2.91635e-07
-4.06246e-05
-0.000509677
-0.000757688
-0.000333826
-2.56508e-05
-0.0571906
-0.347341
-0.132258
-0.0371372
-0.0247689
-0.0049922
-0.0719635
-0.00730786
-0.0728326
-0.000212855
-0.0220385
-0.00368428
-0.00677295
-7.56388e-07
-0.00175059
-0.000343573
-0.0133293
-0.0305327
-0.0187511
-0.00701868
-0.124087
-0.307152
-0.391503
-0.412143
-0.407548
-0.398826
-0.38865
-0.37697
-0.364051
-0.350448
-0.336814
-0.324459
-0.309072
-0.626496
-0.62001
-0.584428
-0.575202
-0.576063
-0.586546
-0.595505
-0.555335
-0.474496
-0.475518
-0.449392
-0.359219
-0.196329
-0.0757505
-0.0330859
-0.0101482
-0.000576403
-0.00557179
-0.00222066
-2.84014e-05
-3.56146e-06
-0.000156141
-0.00112949
-9.28721e-05
-0.00152977
-0.0368972
-0.2778
-0.0114439
-0.105534
-0.0257593
-0.00152728
-0.0481555
-0.000392103
-0.0632325
-0.00338925
-0.0394804
-0.00162169
-0.00588169
-4.34249e-05
-0.00177335
-0.000148474
-0.0124275
-0.0307265
-0.0204128
-0.00534344
-0.110183
-0.299866
-0.39116
-0.415403
-0.411693
-0.403178
-0.3931
-0.38145
-0.368507
-0.354773
-0.340911
-0.32762
-0.316631
-0.302837
-0.629797
-0.624189
-0.583149
-0.572564
-0.576457
-0.590047
-0.59559
-0.550239
-0.473755
-0.480325
-0.449832
-0.354056
-0.199929
-0.0733517
-0.0336062
-0.0110792
-0.000910915
-0.00643964
-0.00257114
-0.000148261
-5.27085e-06
-5.10325e-06
-0.000948274
-4.67675e-06
-0.00344131
-0.00291521
-0.0650702
-0.137431
-0.150015
-0.0182933
-0.00187318
-0.0314058
-0.00826365
-0.0486562
-0.0366959
-0.0326803
-0.00556628
-0.00482913
-0.000177078
-0.00165764
-3.84825e-05
-0.0114345
-0.0309813
-0.0220795
-0.00415477
-0.0964477
-0.291983
-0.390477
-0.418557
-0.415884
-0.407566
-0.397592
-0.386002
-0.373027
-0.359153
-0.345077
-0.331513
-0.319112
-0.30997
-0.298559
-0.63365
-0.624992
-0.580092
-0.571046
-0.576288
-0.59327
-0.594525
-0.544676
-0.474974
-0.486035
-0.446735
-0.34869
-0.196741
-0.0829309
-0.0318253
-0.0134472
-0.00150675
-0.00487974
-0.00280372
-0.000142177
-3.09722e-05
-2.90406e-05
-0.000578936
-1.5946e-05
-0.0038204
-0.0015067
-0.0334958
-0.304252
-0.145503
-0.0398854
-0.0059108
-0.0127138
-0.0385415
-0.0316334
-0.0792692
-0.0164642
-0.00894239
-0.00443902
-0.000323303
-0.00145735
-1.94926e-06
-0.0103627
-0.0312477
-0.0238915
-0.0032222
-0.0832047
-0.283517
-0.389442
-0.421581
-0.420094
-0.411989
-0.402146
-0.390595
-0.377596
-0.363643
-0.349322
-0.335424
-0.322702
-0.311778
-0.304973
-0.296495
-0.640239
-0.626161
-0.578181
-0.570836
-0.575979
-0.596347
-0.591869
-0.538748
-0.475971
-0.489425
-0.442768
-0.343555
-0.194799
-0.0843063
-0.0283845
-0.0132385
-0.00126755
-0.00467922
-0.0020277
-5.57726e-06
-0.000217886
-6.54364e-06
-0.00023087
-8.33321e-05
-0.00114586
-8.53391e-05
-0.0613284
-0.326044
-0.0815722
-0.123476
-0.0116423
-0.00511224
-0.0519559
-0.0233618
-0.102166
-0.00566586
-0.0290222
-0.00514157
-0.000357236
-0.00126487
-3.86603e-06
-0.00927957
-0.0312538
-0.0260506
-0.0024186
-0.0705628
-0.274546
-0.388059
-0.424459
-0.424334
-0.416456
-0.406733
-0.395251
-0.382241
-0.368191
-0.353671
-0.339471
-0.326284
-0.31499
-0.30613
-0.301979
-0.297129
-0.64734
-0.628043
-0.575618
-0.570666
-0.577196
-0.598034
-0.589957
-0.532486
-0.480537
-0.491117
-0.439482
-0.33636
-0.193844
-0.0864524
-0.0238118
-0.0124758
-0.00152316
-0.00450022
-0.00122788
-3.78994e-05
-0.000144218
-7.02836e-05
-4.20952e-05
-0.000346734
-8.24627e-06
-0.0024741
-0.0224597
-0.206777
-0.00676166
-0.114619
-0.0154287
-0.000887313
-0.0515861
-0.00726034
-0.0987419
-0.00177384
-0.0545714
-0.00613501
-0.000200929
-0.00112182
-1.60714e-05
-0.00836493
-0.0308489
-0.0285139
-0.00182656
-0.0585696
-0.265204
-0.386308
-0.427147
-0.428595
-0.420959
-0.411375
-0.399957
-0.386945
-0.372812
-0.358124
-0.343615
-0.329995
-0.318136
-0.308814
-0.302442
-0.301262
-0.300566
-0.651278
-0.629331
-0.571372
-0.571198
-0.578263
-0.598364
-0.587249
-0.527286
-0.489464
-0.492542
-0.437218
-0.334149
-0.191132
-0.0892694
-0.0191102
-0.0122768
-0.00164
-0.00514552
-0.00114345
-2.80526e-05
-0.000119327
-0.000273389
-1.2686e-06
-0.00040629
-0.000161088
-0.00441333
-8.89842e-05
-0.0169794
-0.155261
-0.0896439
-0.0381031
-6.65887e-05
-0.0492119
-0.000284481
-0.0796058
-0.0175637
-0.0655274
-0.00438004
-3.11343e-05
-0.00101727
-3.05494e-05
-0.00778513
-0.029997
-0.0310496
-0.00148167
-0.0471374
-0.255717
-0.384167
-0.429639
-0.432875
-0.425505
-0.416051
-0.404698
-0.391696
-0.377475
-0.362658
-0.34783
-0.333842
-0.321416
-0.311368
-0.304458
-0.301058
-0.303159
-0.306846
-0.652801
-0.628204
-0.56502
-0.573087
-0.580131
-0.598831
-0.582477
-0.523888
-0.496134
-0.491279
-0.434817
-0.333906
-0.191125
-0.0906112
-0.0178525
-0.0107801
-0.00315211
-0.004114
-0.000370772
-2.46909e-05
-5.33293e-05
-0.000476497
-3.56329e-06
-4.14941e-05
-0.000518376
-0.00231314
-0.00015977
-0.0535496
-0.255438
-0.105698
-0.125032
-5.89882e-05
-0.0376164
-0.012879
-0.0527971
-0.0558267
-0.0486013
-0.0121887
-3.32566e-06
-0.000945437
-4.17525e-05
-0.00746509
-0.029023
-0.0332374
-0.00137468
-0.036473
-0.246008
-0.381703
-0.431891
-0.437162
-0.430082
-0.420761
-0.409475
-0.396475
-0.382208
-0.367229
-0.352169
-0.337808
-0.32483
-0.314183
-0.306373
-0.302372
-0.302238
-0.307744
-0.316076
-0.655501
-0.627245
-0.558308
-0.574977
-0.583311
-0.598044
-0.57849
-0.523796
-0.502494
-0.488151
-0.431862
-0.334045
-0.192968
-0.090345
-0.0146184
-0.0107476
-0.00352119
-0.00508773
-0.00015204
-2.04282e-08
-0.000186207
-0.00119207
-2.38385e-07
-3.40555e-05
-0.000647717
-0.000744416
-0.00478175
-0.077987
-0.241421
-0.0339142
-0.187672
-7.01802e-05
-0.0265322
-0.01693
-0.036517
-0.0942536
-0.0276333
-0.0246814
-1.70451e-06
-0.000981437
-5.10277e-05
-0.0072732
-0.0283296
-0.0346611
-0.001468
-0.0269411
-0.235984
-0.378998
-0.433954
-0.441479
-0.434672
-0.425504
-0.414303
-0.40131
-0.38699
-0.37187
-0.356594
-0.341846
-0.328433
-0.317109
-0.308607
-0.303598
-0.302717
-0.306036
-0.315021
-0.327873
-0.661064
-0.628271
-0.555298
-0.576827
-0.586614
-0.595323
-0.575563
-0.523969
-0.506913
-0.483299
-0.4314
-0.338045
-0.191658
-0.0917949
-0.0122735
-0.0119005
-0.00511941
-0.00614164
-3.52209e-05
-2.95783e-06
-4.71802e-05
-0.00181933
-0.000116808
-0.000154117
-0.000145309
-0.000382901
-0.00953643
-0.0489276
-0.136382
-0.0383777
-0.138245
-0.000613
-0.0156546
-0.0213556
-0.0205826
-0.101593
-0.0146343
-0.0536503
-5.96637e-05
-0.00128722
-5.53605e-05
-0.00707655
-0.0280561
-0.0355354
-0.0016252
-0.0190268
-0.225523
-0.376121
-0.435848
-0.445761
-0.439306
-0.430297
-0.419163
-0.406191
-0.391832
-0.376586
-0.361085
-0.346008
-0.332108
-0.320172
-0.310961
-0.305052
-0.303132
-0.305636
-0.312658
-0.324997
-0.342078
-0.669919
-0.632287
-0.555192
-0.578012
-0.589382
-0.591986
-0.572359
-0.52748
-0.509536
-0.479486
-0.431528
-0.338536
-0.194855
-0.0882655
-0.00905211
-0.0118029
-0.0065849
-0.00939098
-2.81701e-05
-1.71942e-05
-0.000447118
-0.00182226
-3.76563e-07
-4.22265e-05
-1.91685e-07
-0.000177758
-0.0086197
-0.0203669
-0.017623
-0.158078
-0.070645
-0.0288134
-0.0121884
-0.014702
-0.00527944
-0.0798854
-2.4661e-07
-0.0775199
-0.000139996
-0.00206179
-5.5053e-05
-0.00686265
-0.028111
-0.0361944
-0.00167119
-0.0129423
-0.214661
-0.373082
-0.437615
-0.449994
-0.443952
-0.435117
-0.424071
-0.411127
-0.396702
-0.381353
-0.365646
-0.350246
-0.335915
-0.323413
-0.313425
-0.306675
-0.303765
-0.305231
-0.311319
-0.322014
-0.33748
-0.35831
-0.678666
-0.640421
-0.558495
-0.578211
-0.591123
-0.589024
-0.570128
-0.532002
-0.511186
-0.477968
-0.432729
-0.341899
-0.193254
-0.0796008
-0.00866728
-0.0109282
-0.0073223
-0.00909267
-0.000163835
-0.000281281
-0.000419719
-0.000863419
-0.000337027
-1.69315e-06
-7.48216e-05
-7.45878e-06
-0.00471971
-0.0213461
-0.0111012
-0.22969
-0.0402653
-0.113651
-0.0114786
-0.0112345
-0.00101557
-0.063139
-0.0153917
-0.0729388
-8.64764e-05
-0.00304858
-4.3559e-05
-0.00669492
-0.0281365
-0.0371056
-0.00156217
-0.00834242
-0.203766
-0.369728
-0.439297
-0.454161
-0.448623
-0.439952
-0.42899
-0.416059
-0.401601
-0.386129
-0.370257
-0.354577
-0.339837
-0.326767
-0.316126
-0.308508
-0.30466
-0.305066
-0.310031
-0.319663
-0.33378
-0.352039
-0.375791
-0.690442
-0.64745
-0.563294
-0.578211
-0.591486
-0.587107
-0.569142
-0.536692
-0.509798
-0.476133
-0.434901
-0.343455
-0.191476
-0.0752881
-0.00639213
-0.0119469
-0.00976305
-0.0100349
-0.00041731
-0.000286033
-0.00168792
-0.000561839
-0.000268763
-8.90316e-06
-0.000302368
-0.000141714
-0.003638
-0.035089
-0.0271318
-0.180613
-0.00326681
-0.182405
-0.0128164
-0.0060574
-0.00886075
-0.0382322
-0.0480459
-0.0545083
-0.0032149
-0.00345402
-2.73738e-05
-0.00658568
-0.0280294
-0.0381823
-0.00139019
-0.00483203
-0.193293
-0.365889
-0.44091
-0.458247
-0.45328
-0.444801
-0.433914
-0.420996
-0.406513
-0.390957
-0.374911
-0.358977
-0.343848
-0.330306
-0.318963
-0.310588
-0.305798
-0.305178
-0.30899
-0.317456
-0.330527
-0.3477
-0.368215
-0.393866
-0.70104
-0.655766
-0.564899
-0.575525
-0.589616
-0.586237
-0.568785
-0.539683
-0.507804
-0.477085
-0.432909
-0.34799
-0.187249
-0.0614504
-0.00707718
-0.0144708
-0.00768812
-0.0102226
-0.000735087
-0.00109082
-0.00233556
-0.000422172
-0.000146859
-3.90674e-05
-0.000273891
-0.000762822
-0.00110898
-0.0432304
-0.0263884
-0.0729702
-0.0362352
-0.205341
-0.00117964
-0.00232523
-0.0103343
-0.0289133
-0.0628577
-0.0371954
-0.0181445
-0.00278396
-3.7517e-05
-0.00646215
-0.0278184
-0.0391112
-0.0013286
-0.00219097
-0.18338
-0.361675
-0.442338
-0.462253
-0.4579
-0.449618
-0.438806
-0.425953
-0.411462
-0.395841
-0.379628
-0.363482
-0.347997
-0.333928
-0.321959
-0.312799
-0.307117
-0.305453
-0.308182
-0.315544
-0.327428
-0.343608
-0.363417
-0.385328
-0.411824
-0.712014
-0.662791
-0.564141
-0.571825
-0.585768
-0.586337
-0.568223
-0.542519
-0.505866
-0.477934
-0.434117
-0.34612
-0.186955
-0.0580636
-0.00641249
-0.0153041
-0.00854088
-0.0119329
-0.000917252
-0.000480462
-0.00169603
-0.000454357
-0.00064541
-0.000673879
-0.000148523
-0.00140322
-0.000136002
-0.0372
-0.0297043
-0.00572481
-0.172018
-0.145996
-0.000666723
-0.000723393
-0.00703875
-0.0220225
-0.0576483
-0.0119908
-0.0422294
-0.00191486
-0.000167485
-0.00626924
-0.0276199
-0.0397165
-0.00136566
-0.000551158
-0.173971
-0.357425
-0.443324
-0.466262
-0.462408
-0.454333
-0.443687
-0.430945
-0.416516
-0.400858
-0.384504
-0.368079
-0.35227
-0.337687
-0.325144
-0.315186
-0.308622
-0.305894
-0.307555
-0.31373
-0.32458
-0.339786
-0.358579
-0.380326
-0.402784
-0.428917
-0.719285
-0.669913
-0.562335
-0.56827
-0.582628
-0.587737
-0.56833
-0.543292
-0.5058
-0.4804
-0.430135
-0.345483
-0.190641
-0.0469792
-0.00552919
-0.0206299
-0.00913536
-0.0152867
-0.000972812
-3.66343e-05
-0.00131964
-0.000563873
-0.000911752
-0.00072286
-0.00123527
-0.00306946
-0.00150845
-0.0204366
-0.044291
-2.96809e-06
-0.214385
-0.054247
-0.0410723
-0.00054379
-0.00413247
-0.00241294
-0.0375212
-0.000461291
-0.0480207
-0.00308202
-0.000546857
-0.00611105
-0.027624
-0.0400498
-0.00142309
-3.7972e-06
-0.16467
-0.353328
-0.443795
-0.470154
-0.46677
-0.458917
-0.448524
-0.435933
-0.421324
-0.405469
-0.388992
-0.372452
-0.356418
-0.341536
-0.328414
-0.317768
-0.310341
-0.306596
-0.307161
-0.312208
-0.321881
-0.335987