/*--------------------------------*- C++ -*----------------------------------*\
| =========                 |                                                 |
| \\      /  F ield         | OpenFOAM: The Open Source CFD Toolbox           |
|  \\    /   O peration     | Version:  v2012                                 |
|   \\  /    A nd           | Website:  www.openfoam.com                      |
|    \\/     M anipulation  |                                                 |
\*---------------------------------------------------------------------------*/
FoamFile
{
    version     2.0;
    format      ascii;
    class       volScalarField;
    location    "12000";
    object      lambda1;
}
// * * * * * * * * * * * * * * * * * * * * * * * * * * * * * * * * * * * * * //

dimensions      [0 0 0 0 0 0 0];


internalField   nonuniform List<scalar> 
27324
(
0.546932
0.567128
0.596552
0.576918
0.611935
0.607363
0.588116
0.621098
0.620311
0.618554
0.59758
0.632556
0.629616
0.631012
0.630463
0.604856
0.644535
0.641717
0.64144
0.641901
0.632942
0.61136
0.656749
0.654948
0.654401
0.651572
0.642263
0.630121
0.619079
0.670459
0.668345
0.667676
0.662831
0.649597
0.640893
0.63394
0.627603
0.687068
0.682589
0.679348
0.673426
0.659933
0.647174
0.648809
0.636832
0.643628
0.706647
0.698839
0.690298
0.681273
0.66903
0.659359
0.647645
0.657199
0.645299
0.693491
0.727864
0.718184
0.702859
0.688425
0.673365
0.666773
0.655433
0.643607
0.675045
0.65826
0.772751
0.744098
0.736471
0.719499
0.698698
0.676747
0.66281
0.656629
0.642114
0.649434
0.695085
0.666419
0.735381
0.766966
0.763915
0.743639
0.715679
0.685015
0.657101
0.636728
0.640069
0.631682
0.662374
0.707912
0.664645
0.537629
0.707244
0.781946
0.784902
0.755736
0.707427
0.660946
0.621248
0.596403
0.63569
0.622732
0.678621
0.705871
0.650296
0.488178
0.576388
0.714422
0.799975
0.811445
0.774247
0.708636
0.627873
0.561984
0.575742
0.638931
0.619072
0.69514
0.684885
0.623167
0.487924
0.564636
0.582589
0.724432
0.825345
0.850595
0.817453
0.725262
0.58481
0.491417
0.591689
0.636894
0.628328
0.707426
0.633946
0.586239
0.497648
0.566393
0.578994
0.585565
0.74365
0.859015
0.891826
0.873265
0.771841
0.567879
0.408298
0.626633
0.623329
0.654702
0.695168
0.57351
0.570949
0.508453
0.575311
0.584254
0.58239
0.581932
0.78139
0.892039
0.920372
0.913091
0.848665
0.641674
0.400868
0.641275
0.586492
0.691921
0.652955
0.498886
0.569153
0.517818
0.579863
0.589985
0.585731
0.575776
0.576962
0.836527
0.913228
0.935721
0.937818
0.907133
0.792861
0.588802
0.612203
0.51951
0.699795
0.515792
0.252481
0.410684
0.526726
0.583995
0.590101
0.585224
0.579045
0.558732
0.626429
0.884032
0.91976
0.941975
0.951976
0.941912
0.900365
0.811435
0.714929
0.633296
0.69654
0.632561
0.662574
0.75292
0.532337
0.587426
0.589794
0.583514
0.576013
0.569652
0.53854
0.752106
0.909095
0.914413
0.939463
0.957011
0.958663
0.94727
0.923521
0.898587
0.878594
0.880842
0.888274
0.905919
0.912359
0.535267
0.589083
0.588408
0.581796
0.573756
0.572464
0.564797
0.501232
0.847543
0.92017
0.892872
0.923915
0.95195
0.961833
0.961971
0.956738
0.950852
0.945935
0.945706
0.944089
0.946113
0.936232
0.5362
0.589614
0.586262
0.579998
0.573747
0.575563
0.576153
0.535034
0.557108
0.900992
0.920907
0.837592
0.880039
0.9268
0.947844
0.955598
0.956307
0.954303
0.950448
0.945219
0.935399
0.91652
0.917789
0.535494
0.589226
0.58391
0.578354
0.574898
0.57921
0.582564
0.548836
0.455533
0.728962
0.929676
0.909947
0.698074
0.742345
0.83255
0.883599
0.908054
0.915695
0.913159
0.899728
0.867813
0.798799
0.807334
0.873179
0.532436
0.587365
0.581788
0.576959
0.577591
0.583111
0.586405
0.550806
0.491686
0.401697
0.849351
0.942993
0.878475
0.41701
0.173302
0.431674
0.628066
0.711582
0.721576
0.675241
0.550092
0.305198
0.529759
0.862371
0.808994
0.527193
0.583478
0.579794
0.577006
0.58086
0.586269
0.588898
0.551393
0.506561
0.46401
0.460382
0.912387
0.944447
0.811051
0.516197
0.36959
0.4595
0.631158
0.672631
0.635976
0.510341
0.265738
0.13946
0.792417
0.864595
0.665959
0.521469
0.578781
0.57856
0.579106
0.584416
0.588102
0.588416
0.5511
0.509264
0.490568
0.367415
0.719426
0.94071
0.934563
0.683461
0.414573
0.374116
0.553705
0.677464
0.684162
0.611456
0.427855
0.157157
0.63423
0.857544
0.799679
0.452298
0.518793
0.574891
0.579473
0.582713
0.587703
0.588226
0.585605
0.549758
0.511566
0.496493
0.417492
0.186871
0.860619
0.951312
0.907088
0.529075
0.0370495
0.362611
0.620537
0.684698
0.646536
0.49745
0.186394
0.316038
0.827346
0.835818
0.645023
0.25738
0.52045
0.573635
0.582006
0.586998
0.589515
0.586711
0.582228
0.547604
0.510074
0.501736
0.438442
0.303013
0.4641
0.922826
0.949311
0.838507
0.363215
0.106891
0.498069
0.665556
0.67136
0.576913
0.310866
0.0284968
0.740602
0.854592
0.730126
0.416424
0.152057
0.524444
0.574992
0.584714
0.590746
0.588971
0.584424
0.579063
0.546869
0.505317
0.504184
0.450115
0.358174
0.129181
0.762922
0.947403
0.931485
0.66085
0.0359365
0.311823
0.607189
0.681266
0.629544
0.446986
0.0817906
0.545833
0.846263
0.798251
0.520212
0.234684
0.119714
0.530339
0.57869
0.586675
0.592354
0.587483
0.582092
0.577458
0.547097
0.501398
0.501971
0.458833
0.381986
0.231014
0.177585
0.890197
0.952766
0.882922
0.440215
0.194491
0.479202
0.66555
0.661903
0.542109
0.207497
0.222892
0.805189
0.834818
0.640094
0.289126
0.158721
0.125343
0.54121
0.584317
0.590692
0.591743
0.585278
0.580535
0.5787
0.548167
0.499587
0.500274
0.456907
0.397852
0.26999
0.0876751
0.622677
0.937244
0.94289
0.774073
0.10566
0.269048
0.606445
0.67439
0.60523
0.367154
0.00914967
0.704885
0.847539
0.730702
0.396919
0.160678
0.152911
0.12774
0.549451
0.59094
0.591938
0.589058
0.583163
0.580559
0.580883
0.54987
0.500832
0.499495
0.451753
0.393417
0.297196
0.164729
0.0680157
0.84446
0.950951
0.906664
0.542249
0.0343473
0.469916
0.661924
0.646279
0.478841
0.0848022
0.494482
0.836268
0.792252
0.514491
0.20837
0.132462
0.158888
0.0821947
0.555218
0.594793
0.589727
0.582961
0.579517
0.582264
0.583749
0.551489
0.504924
0.49946
0.446368
0.378764
0.301159
0.21907
0.0391766
0.462951
0.924765
0.94501
0.801422
0.117939
0.239281
0.610281
0.665935
0.56467
0.243239
0.187352
0.792609
0.827446
0.62666
0.279133
0.141351
0.139714
0.12135
0.0581727
0.557288
0.596247
0.585895
0.576639
0.577944
0.586353
0.586507
0.552489
0.51007
0.499558
0.44251
0.364541
0.28281
0.250898
0.123895
0.0296443
0.797727
0.947695
0.912045
0.539871
0.060846
0.486934
0.662647
0.619184
0.392243
0.00787379
0.690938
0.840348
0.716087
0.377331
0.160555
0.134615
0.113614
0.0994198
0.186562
0.556289
0.594941
0.581999
0.571469
0.580261
0.590985
0.587644
0.552526
0.514643
0.499451
0.440732
0.355925
0.261416
0.243707
0.186364
0.0670533
0.329679
0.914938
0.943805
0.813478
0.146446
0.254541
0.623961
0.652074
0.506247
0.127235
0.484955
0.831091
0.778398
0.489592
0.200862
0.127119
0.116919
0.101004
0.219045
0.32947
0.553597
0.59297
0.578006
0.570438
0.582266
0.595003
0.587019
0.551395
0.518137
0.497868
0.441595
0.355754
0.248245
0.2126
0.200788
0.129443
0.0101933
0.774165
0.944231
0.908862
0.552521
0.0187769
0.522978
0.662643
0.582734
0.28744
0.172192
0.79293
0.816125
0.598437
0.265098
0.127086
0.109726
0.1191
0.230616
0.350452
0.4344
0.545955
0.5866
0.57567
0.571809
0.584007
0.597381
0.583154
0.549312
0.520157
0.497927
0.442972
0.362187
0.249062
0.181008
0.166491
0.175656
0.0595477
0.319054
0.911056
0.940183
0.796178
0.149566
0.318541
0.645114
0.632594
0.428237
0.00779777
0.705949
0.833036
0.68938
0.351666
0.141199
0.096676
0.134074
0.250998
0.359184
0.446504
0.498773
0.543253
0.582079
0.573463
0.573435
0.585244
0.596369
0.57937
0.547277
0.523204
0.490404
0.444257
0.370973
0.260424
0.163482
0.11691
0.160484
0.134129
0.00643606
0.78151
0.941694
0.898708
0.501828
0.0682597
0.582373
0.659806
0.527364
0.148501
0.532655
0.829754
0.75613
0.453853
0.174401
0.0809799
0.149627
0.268437
0.373858
0.447525
0.506843
0.535152
0.545208
0.581647
0.578245
0.578898
0.586047
0.59377
0.575418
0.546
0.521725
0.486112
0.444575
0.376744
0.273879
0.164315
0.0802683
0.118419
0.153815
0.0257655
0.391078
0.914139
0.933969
0.759609
0.0979341
0.443506
0.663161
0.597065
0.296053
0.254463
0.802376
0.799603
0.558294
0.227383
0.0740839
0.163888
0.286899
0.387658
0.454317
0.503676
0.542066
0.553443
0.550557
0.583825
0.58223
0.583381
0.586281
0.591513
0.572745
0.543919
0.522039
0.482668
0.440512
0.381837
0.28306
0.171172
0.0776297
0.0705453
0.152522
0.0836379
0.072947
0.812719
0.939727
0.876437
0.383752
0.215384
0.63427
0.639482
0.428388
0.00287291
0.737719
0.823177
0.650797
0.303422
0.0815319
0.176967
0.304965
0.401525
0.461648
0.505797
0.537324
0.560245
0.559123
0.554915
0.587002
0.584578
0.583336
0.58443
0.588417
0.571611
0.542498
0.520361
0.478831
0.434802
0.381138
0.286252
0.177221
0.0893895
0.0543067
0.124507
0.113516
0.0510144
0.506168
0.92119
0.922709
0.678196
0.0229986
0.552792
0.661164
0.526774
0.117551
0.608106
0.828564
0.723437
0.397578
0.10313
0.190747
0.322111
0.414649
0.469825
0.507711
0.537411
0.55501
0.566448
0.552006
0.566794
0.589026
0.584022
0.582314
0.58387
0.585907
0.571917
0.542056
0.518751
0.471597
0.425064
0.370713
0.280579
0.172074
0.098604
0.0545384
0.0908466
0.130091
0.0849656
0.114033
0.852409
0.935856
0.832923
0.198412
0.388552
0.658758
0.594356
0.272526
0.382062
0.814229
0.774837
0.498257
0.145375
0.207462
0.337899
0.427275
0.478688
0.510607
0.536619
0.554649
0.561139
0.560912
0.528955
0.57273
0.593987
0.582145
0.580745
0.584594
0.587601
0.573718
0.546189
0.518285
0.462423
0.409885
0.358952
0.260148
0.153365
0.0981458
0.0511073
0.068801
0.100951
0.128251
0.0332655
0.638225
0.927297
0.901414
0.523395
0.151826
0.623646
0.637121
0.406549
0.0816805
0.773204
0.807075
0.59285
0.212269
0.22604
0.353021
0.440045
0.48797
0.514307
0.536254
0.553081
0.561086
0.555973
0.540481
0.478642
0.573222
0.593061
0.575629
0.57981
0.586541
0.589002
0.57519
0.549716
0.521529
0.457868
0.393056
0.341071
0.238161
0.125055
0.0877004
0.0452538
0.0503491
0.0675578
0.146958
0.0615497
0.189758
0.88635
0.926803
0.752803
0.025365
0.535594
0.658144
0.516648
0.0563825
0.688516
0.822423
0.672668
0.302963
0.244287
0.367512
0.452806
0.49739
0.518733
0.53624
0.551514
0.559756
0.556855
0.536588
0.491217
0.424068
0.571418
0.590285
0.569067
0.577895
0.588682
0.589728
0.575464
0.554415
0.522605
0.456398
0.386111
0.325169
0.208491
0.0903376
0.0736141
0.052191
0.0440582
0.0479547
0.132173
0.142905
0.0125358
0.758861
0.929456
0.860552
0.312816
0.369363
0.657625
0.583162
0.229287
0.53337
0.82088
0.73442
0.403867
0.261405
0.38261
0.465606
0.506643
0.523706
0.536788
0.549796
0.558286
0.556399
0.538707
0.488624
0.431649
0.417938
0.565431
0.587428
0.567764
0.5805
0.591894
0.589537
0.575002
0.559181
0.523711
0.456326
0.386137
0.321951
0.183581
0.0602089
0.0568417
0.0660236
0.0689952
0.0590158
0.112062
0.17649
0.0844196
0.407758
0.910154
0.907886
0.606128
0.139455
0.626073
0.629648
0.375478
0.291704
0.799951
0.777547
0.50346
0.280165
0.398789
0.478416
0.515529
0.529059
0.537996
0.548206
0.556403
0.555817
0.539252
0.492968
0.429273
0.419423
0.433319
0.561893
0.582816
0.569416
0.582852
0.593257
0.587121
0.574181
0.562978
0.524729
0.460154
0.395295
0.328326
0.173134
0.0325535
0.0458367
0.0751843
0.0994454
0.0854637
0.096318
0.178476
0.152359
0.023936
0.849329
0.924426
0.781193
0.0476261
0.548857
0.653789
0.485704
0.0115449
0.751417
0.803233
0.595563
0.310988
0.417415
0.490924
0.523866
0.534624
0.539867
0.546949
0.554235
0.554785
0.539784
0.49613
0.432982
0.415458
0.436641
0.434904
0.569218
0.585385
0.574439
0.584733
0.59133
0.583084
0.572998
0.565142
0.524003
0.46566
0.410402
0.348956
0.176871
0.021706
0.0182778
0.063348
0.10329
0.104334
0.0843401
0.132849
0.181097
0.0460006
0.682358
0.921581
0.866927
0.348645
0.405477
0.658393
0.564037
0.140863
0.658407
0.813697
0.672263
0.365951
0.436733
0.502561
0.531564
0.540304
0.542326
0.546177
0.551897
0.553355
0.539908
0.499257
0.435874
0.414093
0.433923
0.441906
0.424584
0.577871
0.592022
0.582838
0.588116
0.588863
0.579347
0.57361
0.568422
0.52191
0.469377
0.426665
0.367754
0.19973
0.0361882
0.00425192
0.0244517
0.0671848
0.0998737
0.073643
0.0804777
0.155758
0.0872734
0.319601
0.896134
0.905916
0.616838
0.196546
0.637414
0.613843
0.316509
0.494279
0.808737
0.728464
0.439924
0.454029
0.512571
0.538731
0.546043
0.545263
0.545972
0.549585
0.551492
0.539719
0.501944
0.438727
0.411924
0.433231
0.441294
0.433393
0.412223
0.584214
0.597417
0.585274
0.586786
0.583536
0.57705
0.574935
0.56785
0.514441
0.469396
0.439191
0.38582
0.223243
0.0674173
0.035282
0.0024828
0.0189342
0.060514
0.0627777
0.0381466
0.102133
0.128837
0.0247992
0.825784
0.919119
0.777463
0.0179168
0.580722
0.643756
0.442866
0.219357
0.785027
0.76638
0.526215
0.465052
0.519934
0.545686
0.551829
0.548536
0.54631
0.547528
0.54925
0.539153
0.504262
0.441409
0.409845
0.431935
0.44321
0.433604
0.422037
0.400885
0.595108
0.600398
0.585656
0.584448
0.579747
0.575155
0.575391
0.567075
0.508616
0.464011
0.44463
0.397834
0.245134
0.0919185
0.0799376
0.0448253
0.00366465
0.0269662
0.0517694
0.0262332
0.048987
0.143347
0.0373385
0.647064
0.914557
0.859976
0.309785
0.472105
0.65548
0.537706
0.0680057
0.733668
0.788846
0.608459
0.472523
0.527019
0.552935
0.557581
0.551981
0.547075
0.545897
0.546777
0.538191
0.506189
0.443878
0.407714
0.430459
0.444567
0.436815
0.422244
0.411627
0.390029
0.593735
0.603258
0.585294
0.583076
0.57907
0.576919
0.581509
0.565203
0.499433
0.4586
0.445333
0.400111
0.257686
0.111116
0.100049
0.100443
0.046813
0.027804
0.0425535
0.0338128
0.0260734
0.123159
0.0971899
0.279295
0.888148
0.898603
0.583167
0.297723
0.649438
0.591563
0.292326
0.639536
0.79726
0.670417
0.483752
0.534465
0.560799
0.563106
0.55543
0.548162
0.544778
0.544278
0.536776
0.507727
0.446071
0.405526
0.428636
0.445823
0.439573
0.425714
0.411696
0.401767
0.379036
0.59234
0.600024
0.580522
0.582481
0.578992
0.579075
0.585831
0.565172
0.491655
0.449624
0.440989
0.389093
0.258699
0.115854
0.100842
0.114079
0.0865573
0.0433333
0.0352217
0.0411119
0.0190056
0.0851397
0.152388
0.000954204
0.820298
0.912887
0.750326
0.0408847
0.618012
0.629138
0.442141
0.481347
0.790409
0.718763
0.513273
0.542277
0.568935
0.568131
0.558759
0.549504
0.544169
0.542022
0.534946
0.508779
0.447917
0.403259
0.426526
0.446818
0.442457
0.428755
0.415299
0.401659
0.391849
0.367732
0.593011
0.599496
0.579244
0.581458
0.578793
0.580532
0.589356
0.563627
0.484698
0.4425
0.434368
0.375864
0.239901
0.113309
0.0775395
0.0815487
0.108305
0.0475587
0.020946
0.0408672
0.0255008
0.0526814
0.16797
0.0699686
0.659369
0.90997
0.842059
0.202402
0.55194
0.649856
0.532641
0.268039
0.766371
0.753403
0.564835
0.554596
0.575926
0.572481
0.561899
0.551039
0.543937
0.540157
0.532826
0.509214
0.449376
0.400876
0.424125
0.447653
0.445332
0.431997
0.418483
0.405409
0.391473
0.381596
0.356228
0.597498
0.600941
0.58024
0.581838
0.578613
0.581555
0.592048
0.56295
0.479931
0.445375
0.42787
0.359599
0.220969
0.107329
0.0659341
0.0262897
0.0702692
0.0542188
0.0066576
0.0401698
0.0480358
0.0369348
0.145795
0.131307
0.335555
0.888367
0.885571
0.507786
0.436218
0.65881
0.595384
0.337384
0.721215
0.773765
0.625461
0.564441
0.581324
0.576225
0.564911
0.552744
0.543982
0.538717
0.530665
0.508866
0.450392
0.398428
0.421494
0.448317
0.448208
0.435285
0.421878
0.408711
0.395324
0.380904
0.371026
0.344872
0.607343
0.606516
0.581718
0.580581
0.578138
0.583513
0.595209
0.561974
0.479171
0.454953
0.434662
0.345557
0.198661
0.103145
0.0810431
0.0098265
0.0217181
0.0438713
0.00134092
0.0342017
0.0669003
0.0346025
0.101205
0.173304
0.0215802
0.834388
0.904399
0.701158
0.260766
0.65297
0.628871
0.492708
0.650011
0.78054
0.680469
0.569905
0.583541
0.579767
0.567847
0.554548
0.54419
0.53759
0.528712
0.507649
0.450884
0.395984
0.41867
0.448843
0.451078
0.438662
0.425345
0.412257
0.398734
0.384807
0.370001
0.36037
0.334076
0.616869
0.614021
0.583831
0.577827
0.577177
0.585074
0.596807
0.561555
0.47927
0.465992
0.441407
0.343526
0.178825
0.0967999
0.0935825
0.0501424
0.01273
0.0271691
0.015682
0.0331814
0.0646617
0.0398924
0.0580449
0.164627
0.0477065
0.714727
0.906116
0.807867
0.00913838
0.627322
0.653684
0.589113
0.560755
0.774156
0.719286
0.578253
0.584861
0.583694
0.570713
0.556304
0.544461
0.536615
0.527096
0.505708
0.450709
0.393672
0.415708
0.449196
0.453955
0.442132
0.428921
0.415883
0.402401
0.38827
0.373903
0.358936
0.349868
0.324278
0.626535
0.619885
0.58413
0.575019
0.576211
0.58706
0.596509
0.557056
0.476956
0.476739
0.447855
0.349436
0.175687
0.0683195
0.0843991
0.0739312
0.0288829
0.00975319
0.0284675
0.0160602
0.0361821
0.0498137
0.0286466
0.128877
0.114843
0.471818
0.891846
0.864655
0.346526
0.577013
0.671478
0.647074
0.514993
0.753149
0.748571
0.601906
0.586691
0.588381
0.573375
0.557839
0.544693
0.535646
0.525735
0.503423
0.449758
0.391599
0.412615
0.449371
0.456804
0.445666
0.432591
0.419623
0.406142
0.392008
0.37736
0.362775
0.348062
0.339941
0.316028
0.629909
0.624201
0.582905
0.572192
0.576241
0.590263
0.596382
0.552138
0.476883
0.483564
0.452826
0.355319
0.191373
0.0624961
0.0475742
0.0596161
0.0333973
0.000479356
0.0344228
0.0150007
0.00359466
0.0515356
0.0180854
0.0742213
0.156849
0.113583
0.854591
0.891164
0.61191
0.497716
0.682874
0.681334
0.556847
0.718941
0.76741
0.640476
0.595272
0.592799
0.575575
0.559019
0.544789
0.534602
0.524394
0.501284
0.448068
0.389735
0.409338
0.449306
0.45959
0.449267
0.436325
0.42344
0.410011
0.395833
0.381085
0.366165
0.35176
0.33775
0.330951
0.309758
0.633735
0.625129
0.580113
0.570737
0.575815
0.593011
0.59494
0.546369
0.478231
0.489373
0.45122
0.357039
0.207217
0.0879771
0.0370213
0.0304331
0.0239038
0.00695955
0.0329264
0.0495675
0.00822734
0.0402526
0.0223338
0.0349944
0.16987
0.0335478
0.77731
0.899489
0.755063
0.365438
0.684869
0.704401
0.625275
0.676152
0.775029
0.684306
0.601564
0.59549
0.577189
0.55979
0.544676
0.533477
0.522905
0.499565
0.445869
0.387763
0.40573
0.448932
0.462259
0.452892
0.440101
0.427329
0.413948
0.399761
0.384934
0.369827
0.355003
0.341225
0.32845
0.323417
0.305782
0.640234
0.626258
0.578428
0.570842
0.575586
0.595691
0.591549
0.539836
0.479086
0.492642
0.446158
0.350904
0.213945
0.111634
0.0470505
0.0297642
0.0165718
0.0231737
0.0297148
0.0736372
0.0282759
0.0196347
0.0325161
0.0186117
0.138711
0.137164
0.622168
0.893693
0.832034
0.128297
0.676972
0.72124
0.676314
0.633385
0.771191
0.721518
0.607044
0.595044
0.578547
0.560226
0.544263
0.53216
0.521145
0.498101
0.443449
0.385097
0.401629
0.448218
0.464789
0.456545
0.443918
0.431252
0.417954
0.403784
0.38889
0.373611
0.358551
0.344253
0.331644
0.320706
0.317762
0.304623
0.647275
0.628022
0.575824
0.570956
0.577177
0.597481
0.588837
0.532129
0.482751
0.494821
0.442433
0.338732
0.204568
0.113743
0.0514814
0.0322258
0.0185731
0.0272729
0.0172118
0.0652261
0.0436738
0.00459192
0.0384489
0.014055
0.0919174
0.195977
0.342317
0.87282
0.868124
0.398781
0.661189
0.733107
0.711892
0.620143
0.757356
0.74659
0.617513
0.594206
0.580283
0.560384
0.543451
0.530491
0.519113
0.496547
0.441279
0.381562
0.397068
0.447175
0.467173
0.460243
0.447788
0.435237
0.422013
0.407872
0.39294
0.377536
0.362212
0.347563
0.334354
0.323467
0.314854
0.314372
0.306442
0.651246
0.629245
0.571368
0.571471
0.578611
0.598301
0.5862
0.525127
0.489439
0.495945
0.442095
0.334052
0.189417
0.101122
0.0371614
0.026277
0.0123046
0.0238821
0.013291
0.0417201
0.0481633
0.000833777
0.0316928
0.0205822
0.0468392
0.219701
0.0198995
0.828796
0.885146
0.656047
0.640266
0.74095
0.735227
0.641659
0.734232
0.763973
0.643167
0.595348
0.582547
0.560143
0.542067
0.528326
0.516817
0.494675
0.439498
0.377394
0.392333
0.445817
0.469439
0.464019
0.451743
0.439285
0.426123
0.412012
0.397039
0.381559
0.365982
0.351017
0.337335
0.325704
0.317032
0.311326
0.313698
0.311321
0.652822
0.628145
0.564844
0.573121
0.580493
0.599268
0.582288
0.521529
0.493152
0.492432
0.441362
0.338742
0.183622
0.086024
0.0269289
0.0188257
0.00892535
0.0161932
0.00728323
0.0141596
0.0401761
0.011195
0.0157008
0.0339136
0.0225654
0.185566
0.107563
0.748181
0.888035
0.767847
0.577342
0.744725
0.75101
0.676599
0.704241
0.772845
0.678392
0.604182
0.58387
0.559192
0.539997
0.525555
0.514144
0.492466
0.437697
0.372926
0.387581
0.444155
0.471536
0.467874
0.455798
0.443422
0.430305
0.416205
0.401216
0.385631
0.369888
0.354622
0.340458
0.328316
0.318742
0.312864
0.310473
0.315933
0.319384
0.655529
0.627261
0.558154
0.574761
0.583383
0.598575
0.579256
0.523016
0.498644
0.485248
0.436258
0.346758
0.193013
0.0759549
0.0177565
0.0134635
0.0114182
0.0170666
0.00622512
0.00234768
0.0220885
0.024401
0.0039994
0.0447242
0.0150201
0.121932
0.214254
0.604753
0.877696
0.82984
0.489988
0.747739
0.762411
0.708835
0.675937
0.773686
0.713203
0.609626
0.582317
0.557469
0.537216
0.522197
0.5109
0.489987
0.435294
0.368336
0.383014
0.442228
0.473428
0.471801
0.459925
0.447653
0.434592
0.420493
0.40547
0.389786
0.373888
0.358317
0.343792
0.331048
0.320865
0.313979
0.311215
0.312432
0.321169
0.330252
0.661095
0.628318
0.555306
0.576624
0.586337
0.595486
0.57663
0.525293
0.504998
0.477682
0.430144
0.350061
0.211982
0.0810997
0.0191613
0.0143687
0.0133823
0.0224751
0.00481101
0.00110545
0.0074334
0.0361007
0.00887288
0.0382809
0.0194474
0.0513403
0.258624
0.346635
0.852995
0.858235
0.531369
0.748578
0.770722
0.735039
0.666567
0.76621
0.740197
0.615129
0.577892
0.55552
0.533898
0.518301
0.506933
0.487215
0.431804
0.363314
0.378633
0.440239
0.475016
0.475663
0.464109
0.451974
0.438965
0.42488
0.409823
0.394042
0.37797
0.362142
0.347213
0.333939
0.323112
0.315407
0.311594
0.312307
0.317461
0.329454
0.343744
0.669941
0.632304
0.555283
0.577998
0.589095
0.59159
0.572847
0.529738
0.510971
0.475308
0.424536
0.343433
0.223798
0.104107
0.0129409
0.0303954
0.0127647
0.0314299
0.00650926
0.000663545
0.00295557
0.0321288
0.0195481
0.021584
0.0316135
0.010793
0.266852
0.0528626
0.805891
0.870295
0.680636
0.741913
0.775728
0.753131
0.676595
0.749703
0.758798
0.629523
0.57631
0.554072
0.530058
0.513827
0.502192
0.483616
0.427062
0.357179
0.373775
0.438451
0.476239
0.479324
0.468251
0.456319
0.443414
0.429363
0.414252
0.398388
0.382153
0.366058
0.350773
0.337015
0.325493
0.317002
0.312264
0.31192
0.316388
0.325502
0.340603
0.359451
0.678651
0.640418
0.55852
0.578287
0.591085
0.588538
0.56945
0.533216
0.514788
0.479138
0.424466
0.334679
0.211183
0.124292
0.0109355
0.0432063
0.0273565
0.0320126
0.0116639
0.00107185
0.00557947
0.0244354
0.0282872
0.00595209
0.0427503
0.0020838
0.234589
0.255321
0.723388
0.870142
0.767405
0.715654
0.778301
0.765947
0.695696
0.723155
0.771198
0.658498
0.580077
0.552408
0.525411
0.508634
0.496603
0.478526
0.421008
0.34898
0.367077
0.436805
0.477166
0.482609
0.472269
0.460613
0.447852
0.433856
0.418743
0.402784
0.386416
0.370092
0.354462
0.340216
0.328114
0.318824
0.313192
0.311831
0.315153
0.323391
0.336232
0.354161
0.376558
0.690408
0.647423
0.563253
0.578236
0.591573
0.587036
0.568091
0.535503
0.512285
0.481792
0.433483
0.329348
0.189945
0.113551
0.0378205
0.0286044
0.0568977
0.0254054
0.0252085
0.00104773
0.00847398
0.0150452
0.0216059
0.0015105
0.0384912
0.00328802
0.194867
0.400351
0.594259
0.857561
0.818114
0.679192
0.780419
0.775471
0.717421
0.694785
0.776546
0.692716
0.586665
0.547358
0.519618
0.502621
0.489967
0.471311
0.412848
0.337726
0.357336
0.434409
0.478055
0.485368
0.475992
0.464753
0.452196
0.438307
0.423244
0.407258
0.39076
0.374228
0.35827
0.343608
0.330881
0.320899
0.314377
0.312018
0.31421
0.321254
0.333183
0.34937
0.369616
0.394375
0.70098
0.65574
0.564834
0.575454
0.589657
0.586383
0.568536
0.537551
0.506222
0.481813
0.440325
0.33976
0.178183
0.0754659
0.0701352
0.0188081
0.0696945
0.0311836
0.0276085
0.0142943
0.0116782
0.0116827
0.00808557
0.00823788
0.0222643
0.03087
0.170736
0.473933
0.457984
0.828936
0.846721
0.666622
0.779241
0.782481
0.736722
0.675366
0.773943
0.722159
0.585853
0.537035
0.513222
0.495757
0.481738
0.461335
0.400891
0.322442
0.344299
0.42958
0.479038
0.487679
0.479211
0.468533
0.456299
0.442662
0.42774
0.411793
0.395203
0.378507
0.362248
0.347114
0.333816
0.323111
0.315748
0.312381
0.3135
0.319445
0.330158
0.345444
0.364521
0.386232
0.412159
0.71203
0.662757
0.564137
0.571767
0.585661
0.586429
0.568492
0.541777
0.502042
0.476656
0.442765
0.353187
0.168804
0.0634464
0.0367105
0.0704017
0.023015
0.058025
0.00644837
0.0443358
0.00700183
0.0113906
0.00215262
0.0100669
0.0121335
0.0716734
0.192767
0.517943
0.478835
0.784096
0.857901
0.714466
0.774986
0.78743
0.751933
0.670656
0.761103
0.746173
0.590546
0.529487
0.507655
0.487759
0.470897
0.447628
0.38296
0.301502
0.328511
0.421197
0.479416
0.490041
0.481699
0.471753
0.460116
0.446958
0.432324
0.416471
0.39983
0.382923
0.366378
0.350782
0.336963
0.325511
0.317312
0.312917
0.312984
0.317739
0.327407
0.341688
0.359813
0.381036
0.403357
0.429138
0.719333
0.669924
0.56234
0.568321
0.582554
0.587576
0.568509
0.543772
0.503966
0.47444
0.430809
0.361401
0.189041
0.0777319
0.0145807
0.110784
0.0221556
0.0749869
0.0139699
0.066816
0.0116379
0.0210429
0.00497988
0.00381648
0.0144515
0.114472
0.256305
0.538621
0.574423
0.72778
0.857603
0.776221
0.760657
0.78779
0.763434
0.681531
0.739958
0.764093
0.611292
0.531346
0.502858
0.477293
0.455913
0.428619
0.357122
0.272271
0.310422
0.41023
0.47758
0.49285
0.483683
0.474357
0.463708
0.451056
0.436393
0.420472
0.40385
0.386984
0.370325
0.354536
0.340212
0.328124
0.3191
0.31372
0.312706
0.316333
0.32481
0.337974
0.355296
0.375791
0.3981
0.420202
0.444564
0.725303
0.674727
0.557823
0.567728
0.579525
0.591108
0.569437
0.544168
0.50536
0.479474
0.417283
0.345827
0.209909
0.0413949
0.0899314
0.0531915
0.0996944
0.0221749
0.0906802
0.0423417
0.05887
0.0248861
0.0148421
0.00573904
0.029977
0.168278
0.328031
0.57228
0.652132
0.691829
0.847668
0.81732
0.735612
0.786144
0.771931
0.695945
0.710293
0.775224
0.646248
0.535491
0.493952
0.461884
0.435007
0.402503
0.32199
0.232967
0.290877
0.399801
0.472766
0.495406
0.486228
0.476551
0.466871
0.454163
0.439703
0.424114
0.407644
0.390803
0.374118
0.358156
0.343452
0.330937
0.32106
0.31479
0.312666
0.315165
0.322478
0.334579
0.350886
0.370605
0.392509
0.415025
0.435931
0.457995
0.726439
0.677097
0.552396
0.566371
0.578657
0.595164
0.572569
0.542367
0.507661
0.484685
0.412733
0.324052
0.209085
0.0699923
0.0844844
0.0378757
0.132033
0.0321027
0.150037
0.00941815
0.114064
0.00722906
0.0517317
0.0254391
0.0677571
0.23936
0.41578
0.611056
0.698847
0.698598
0.829258
0.841406
0.708875
0.783543
0.77796
0.710902
0.676438
0.777273
0.681494
0.531524
0.475732
0.439913
0.407087
0.368365
0.277782
0.186436
0.273245
0.392266
0.466856
0.495662
0.490456
0.478892
0.468935
0.456663
0.442595
0.427359
0.411492
0.395001
0.378321
0.362082
0.346969
0.3338
0.323257
0.31612
0.312909
0.314298
0.320428
0.331352
0.346652
0.36557
0.386993
0.409318
0.431163
0.450063
0.469177
0.727294
0.677826
0.542129
0.564554
0.578551
0.597613
0.577635
0.542645
0.505862
0.484606
0.418267
0.307712
0.172264
0.116988
0.00461006
0.116564
0.0401005
0.127532
0.0774766
0.080518
0.126506
0.037515
0.100839
0.0392657
0.131966
0.318496
0.503282
0.654249
0.73202
0.72903
0.804475
0.854053
0.718189
0.778554
0.781272
0.724009
0.64866
0.76801
0.715042
0.527909
0.454459
0.412335
0.372544
0.327284
0.226589
0.137356
0.239846
0.388778
0.463288
0.492822
0.494603
0.48194
0.469926
0.458745
0.444991
0.430648
0.415131
0.398827
0.38225
0.36596
0.350606
0.336903
0.325692
0.317584
0.313487
0.31367
0.318592
0.328295
0.342521
0.360585
0.38149
0.403726
0.425601
0.445798
0.462192
0.477996
0.734975
0.68032
0.549007
0.567201
0.578965
0.598953
0.581075
0.544458
0.507946
0.476834
0.414412
0.316065
0.159081
0.0660587
0.0766135
0.05701
0.0635933
0.155769
0.0142894
0.158478
0.038857
0.135532
0.107922
0.0302003
0.240552
0.411708
0.577705
0.694883
0.755928
0.757336
0.781048
0.85724
0.761684
0.768245
0.781428
0.734474
0.631318
0.748779
0.743838
0.538126
0.437671
0.381679
0.333735
0.283715
0.175587
0.09558
0.212599
0.373665
0.461364
0.489827
0.494011
0.486384
0.471093
0.459953
0.447316
0.433331
0.418142
0.402151
0.385869
0.36971
0.354197
0.340126
0.328327
0.319423
0.314233
0.313271
0.317046
0.325494
0.338632
0.355735
0.375993
0.397977
0.420126
0.440638
0.458467
0.47207
0.484722
0.747278
0.688687
0.554266
0.578019
0.586673
0.599008
0.582649
0.543462
0.513413
0.472674
0.400961
0.322358
0.158363
0.0513482
0.0911907
0.046843
0.189864
0.0518034
0.159074
0.123634
0.0674423
0.191334
0.0271005
0.0870578
0.358522
0.510259
0.643394
0.730713
0.77462
0.778109
0.765779
0.853821
0.802616
0.745142
0.777554
0.742233
0.632774
0.719071
0.762977
0.573789
0.42267
0.350092
0.297546
0.246805
0.135822
0.0594675
0.189529
0.361339
0.458411
0.487994
0.489533
0.488838
0.475393
0.460678
0.449431
0.435211
0.420528
0.405064
0.389095
0.373119
0.357665
0.34339
0.331088
0.321445
0.315283
0.313225
0.315679
0.323007
0.334921
0.351071
0.370574
0.392199
0.414374
0.435452
0.453944
0.469068
0.479852
0.489606
0.966027
0.707206
0.56077
0.579245
0.593352
0.598509
0.584031
0.539227
0.510532
0.47517
0.39374
0.307997
0.198902
0.0528088
0.00312491
0.162503
0.0755222
0.0765618
0.23519
0.025329
0.228247
0.163741
0.124698
0.222962
0.470682
0.600189
0.696919
0.760435
0.789782
0.79269
0.764144
0.845993
0.828684
0.709739
0.770731
0.74814
0.63937
0.677541
0.771815
0.616573
0.406662
0.323641
0.272707
0.223921
0.110997
0.0370082
0.167858
0.349118
0.453399
0.492979
0.488751
0.481926
0.481408
0.463733
0.450277
0.437061
0.422221
0.40735
0.391846
0.376212
0.360918
0.346547
0.33389
0.323682
0.316664
0.313465
0.314774
0.320791
0.331468
0.346593
0.365216
0.386417
0.40852
0.430033
0.449277
0.465202
0.477505
0.485699
0.492949
0.855931
0.804005
0.565083
0.573824
0.592707
0.596664
0.584193
0.538141
0.498923
0.468607
0.402187
0.292058
0.211736
0.0646155
0.104069
0.117268
0.0806581
0.207707
0.09387
0.164485
0.280507
0.0513943
0.335962
0.347531
0.553736
0.673032
0.739532
0.784319
0.802088
0.802976
0.777083
0.831782
0.84466
0.680017
0.762347
0.751652
0.647532
0.617815
0.770582
0.661594
0.401482
0.300814
0.247813
0.197945
0.0936532
0.0314069
0.144704
0.337205
0.447448
0.491527
0.494849
0.481642
0.471517
0.472461
0.450342
0.438601
0.424099
0.408878
0.394018
0.37883
0.363806
0.349504
0.336699
0.326013