/*--------------------------------*- C++ -*----------------------------------*\
| =========                 |                                                 |
| \\      /  F ield         | OpenFOAM: The Open Source CFD Toolbox           |
|  \\    /   O peration     | Version:  v2012                                 |
|   \\  /    A nd           | Website:  www.openfoam.com                      |
|    \\/     M anipulation  |                                                 |
\*---------------------------------------------------------------------------*/
FoamFile
{
    version     2.0;
    format      ascii;
    class       volScalarField;
    location    "12000";
    object      Mg;
}
// * * * * * * * * * * * * * * * * * * * * * * * * * * * * * * * * * * * * * //

dimensions      [0 0 0 0 0 0 0];


internalField   nonuniform List<scalar> 
27324
(
0.000379441
0.000399147
0.00103659
0.000406873
0.00106007
0.00103184
0.000414869
0.00105632
0.00103259
0.000769063
0.000420102
0.00105215
0.00101678
0.00075776
0.00047592
0.000420457
0.00104194
0.0010025
0.000739793
0.000458967
0.000260417
0.000417938
0.0010203
0.000984204
0.000723297
0.00043952
0.000245494
0.000136188
0.000415922
0.00099164
0.000955946
0.000703293
0.000420988
0.000230829
0.00012794
7.44373e-05
0.000413733
0.000961835
0.000919979
0.000677912
0.000401541
0.000219029
0.000120366
7.08869e-05
4.29294e-05
0.00041459
0.000929265
0.000881284
0.000651037
0.000383654
0.000207861
0.000115785
6.61154e-05
4.19902e-05
2.75799e-05
0.000412273
0.000879174
0.000844282
0.00062797
0.000370803
0.000197675
0.000110487
6.38315e-05
3.86053e-05
2.84649e-05
1.98368e-05
0.000460851
0.000757307
0.000790229
0.000613888
0.000365101
0.000191037
0.000102861
6.10256e-05
3.72694e-05
2.55308e-05
2.13976e-05
1.5119e-05
0.000276498
0.00064506
0.000745429
0.000617977
0.000368815
0.000189877
9.68487e-05
5.4702e-05
3.64091e-05
2.37395e-05
1.86663e-05
1.67271e-05
1.15194e-05
0.000115984
0.000403216
0.000655809
0.000661554
0.000413774
0.000199635
9.56288e-05
5.05248e-05
3.08723e-05
2.41891e-05
1.58771e-05
1.47847e-05
1.26268e-05
8.54753e-06
0.000100515
0.000253064
0.000409908
0.000625973
0.000493465
0.00025445
0.00011267
5.11891e-05
2.75781e-05
1.95486e-05
1.70654e-05
1.13997e-05
1.22143e-05
8.93774e-06
6.08531e-06
9.91519e-05
0.000244744
0.000255603
0.000416475
0.000514725
0.000363006
0.000176891
7.34751e-05
3.01926e-05
1.55896e-05
1.4339e-05
1.23684e-05
8.98201e-06
1.01317e-05
5.62977e-06
4.21247e-06
0.000101733
0.000244864
0.000252574
0.000270488
0.000358219
0.00039814
0.000293293
0.000159964
6.10265e-05
2.06652e-05
8.84781e-06
1.20951e-05
8.85765e-06
7.8212e-06
7.54362e-06
3.58201e-06
3.18597e-06
0.000104915
0.000251805
0.000253945
0.000272288
0.000227793
0.000280389
0.000310503
0.000253543
0.000165322
6.86723e-05
1.93161e-05
6.79119e-06
1.00182e-05
6.03602e-06
7.34187e-06
4.98551e-06
2.2281e-06
2.5695e-06
0.000107571
0.000254611
0.000255896
0.00027172
0.000234327
0.000150274
0.000233255
0.000242149
0.000224883
0.000171451
8.50414e-05
2.74444e-05
9.76277e-06
7.80707e-06
4.15599e-06
6.33901e-06
2.45592e-06
6.66232e-07
1.32771e-06
0.000109942
0.000256481
0.000251989
0.000266934
0.000234581
0.000160439
9.59666e-05
0.000209944
0.000184073
0.000187366
0.000168478
0.000105202
4.66257e-05
1.95924e-05
1.01193e-05
5.91371e-06
6.18307e-06
3.17665e-06
4.06714e-06
4.04463e-06
0.000110889
0.000256943
0.000247413
0.000261171
0.000228709
0.000166571
9.22077e-05
9.5932e-05
0.000193146
0.000127074
0.000137043
0.0001449
0.00011538
7.04233e-05
3.90045e-05
2.37165e-05
1.64149e-05
1.38157e-05
1.24652e-05
1.32835e-05
1.23238e-05
0.000110598
0.000255
0.000241713
0.000255753
0.000223854
0.000166496
0.000102613
4.49914e-05
0.00012398
0.000166307
7.50123e-05
8.35267e-05
0.000100861
9.80868e-05
7.75312e-05
5.48554e-05
3.94475e-05
3.06642e-05
2.55815e-05
2.27163e-05
2.07023e-05
1.59497e-05
0.000109398
0.000251427
0.000235513
0.000250622
0.00022127
0.000166364
0.000106028
5.5692e-05
2.98968e-05
0.000151834
0.00012852
3.58111e-05
4.00107e-05
5.14422e-05
5.66442e-05
5.31428e-05
4.40914e-05
3.52137e-05
2.7915e-05
2.22518e-05
1.70036e-05
1.18929e-05
1.14765e-05
0.000107528
0.000246741
0.000229529
0.000246118
0.000219833
0.000166521
0.00010717
5.82136e-05
2.89119e-05
4.57878e-05
0.000167216
8.68782e-05
1.30898e-05
1.29747e-05
1.68356e-05
1.99558e-05
2.08473e-05
1.89651e-05
1.5649e-05
1.17244e-05
7.77615e-06
4.38362e-06
3.80448e-06
7.64652e-06
0.000104848
0.000240816
0.000224253
0.000242284
0.000219788
0.000166768
0.000107122
5.80423e-05
3.28871e-05
1.69568e-05
7.47463e-05
0.000158017
5.00322e-05
4.89768e-06
1.22744e-06
2.90415e-06
4.60796e-06
5.31598e-06
4.69844e-06
3.33671e-06
1.83651e-06
6.43764e-07
1.32646e-06
7.09549e-06
5.34265e-06
0.000101567
0.000233618
0.000219646
0.0002401
0.000220255
0.000166523
0.000106455
5.75175e-05
3.43731e-05
2.24281e-05
1.19663e-05
0.00010601
0.000124765
2.46804e-05
5.12397e-06
2.02742e-06
2.00219e-06
3.09556e-06
3.08899e-06
2.3237e-06
1.30307e-06
5.03352e-07
3.65402e-07
4.35662e-06
7.76214e-06
2.85512e-06
9.83968e-05
0.000226594
0.000216158
0.000239907
0.000220854
0.000165468
0.00010464
5.68e-05
3.44644e-05
2.43785e-05
1.22982e-05
2.68023e-05
0.000125654
8.0706e-05
1.01153e-05
2.8289e-06
1.55574e-06
2.33617e-06
3.15328e-06
2.80569e-06
1.87441e-06
8.93304e-07
3.41288e-07
2.07757e-06
7.02471e-06
5.22497e-06
1.45198e-06
9.652e-05
0.000221162
0.000214706
0.000240998
0.000220983
0.00016333
0.000102129
5.59288e-05
3.45048e-05
2.47197e-05
1.44848e-05
4.05367e-06
5.03879e-05
0.000119863
4.26764e-05
3.74809e-06
2.93283e-07
1.2622e-06
2.6079e-06
2.90648e-06
2.22898e-06
1.20466e-06
3.52241e-07
7.00292e-07
5.44055e-06
6.32968e-06
2.70573e-06
9.1642e-07
9.62402e-05
0.000218528
0.000214618
0.000242425
0.000219555
0.000160184
9.95752e-05
5.5024e-05
3.4134e-05
2.50277e-05
1.54265e-05
7.44701e-06
7.80546e-06
7.62579e-05
8.89679e-05
1.80919e-05
1.57351e-06
4.4471e-07
1.73577e-06
2.75134e-06
2.52413e-06
1.6309e-06
6.15995e-07
1.25177e-07
3.22751e-06
7.01157e-06
3.73805e-06
1.44941e-06
8.69484e-07
9.67861e-05
0.000218261
0.000214525
0.000242909
0.000215945
0.000156613
9.72235e-05
5.44725e-05
3.34383e-05
2.51282e-05
1.59749e-05
8.93631e-06
2.67529e-06
2.12868e-05
8.9782e-05
5.04509e-05
6.26362e-06
2.78873e-07
9.05068e-07
2.21436e-06
2.65732e-06
2.00823e-06
1.00182e-06
1.8923e-07
1.4515e-06
6.35132e-06
5.155e-06
1.89885e-06
1.08804e-06
1.22031e-06
9.78564e-05
0.00021975
0.000213539
0.000240959
0.000211513
0.000153065
9.55107e-05
5.41429e-05
3.28769e-05
2.48645e-05
1.64035e-05
9.66093e-06
4.28408e-06
2.03918e-06
4.13729e-05
7.8063e-05
2.21909e-05
2.50865e-06
5.75129e-07
1.41165e-06
2.51332e-06
2.30195e-06
1.41433e-06
4.12261e-07
4.55914e-07
4.66357e-06
6.27555e-06
2.74351e-06
1.16733e-06
1.27947e-06
2.16e-06
0.000100447
0.000222381
0.00021381
0.000236705
0.000206606
0.000150082
9.48292e-05
5.39941e-05
3.25712e-05
2.4657e-05
1.62898e-05
1.01476e-05
4.93853e-06
1.5294e-06
9.21969e-06
5.96777e-05
4.94368e-05
7.97121e-06
4.9598e-07
6.72954e-07
2.02022e-06
2.44491e-06
1.79142e-06
7.78426e-07
4.9503e-08
2.7026e-06
6.62969e-06
3.82969e-06
1.49884e-06
1.08498e-06
2.122e-06
3.78618e-06
0.000101902
0.00022518
0.000211446
0.000230706
0.000201956
0.000148105
9.44931e-05
5.39808e-05
3.2615e-05
2.45257e-05
1.60157e-05
9.9886e-06
5.37917e-06
2.37985e-06
9.36658e-07
2.21802e-05
6.0616e-05
2.28596e-05
2.34707e-06
1.37779e-07
1.26492e-06
2.34123e-06
2.11295e-06
1.14563e-06
2.21772e-07
1.19472e-06
5.90037e-06
5.04279e-06
1.99925e-06
1.14287e-06
1.57688e-06
3.81322e-06
5.00522e-06
0.000102233
0.00022486
0.000206216
0.000222232
0.000196525
0.000147159
9.44519e-05
5.39653e-05
3.29813e-05
2.44543e-05
1.57277e-05
9.53385e-06
5.41193e-06
2.96634e-06
5.6772e-07
4.18595e-06
3.9118e-05
4.20021e-05
7.95882e-06
4.30554e-07
5.48147e-07
1.92562e-06
2.29805e-06
1.55231e-06
5.1332e-07
3.74017e-07
4.33178e-06
6.01709e-06
2.73622e-06
1.28959e-06
1.38309e-06
2.88271e-06
5.82516e-06
9.06231e-06
0.000101075
0.000221941
0.000200036
0.000214469
0.000192995
0.000147592
9.447e-05
5.38709e-05
3.34733e-05
2.43913e-05
1.55193e-05
9.11464e-06
5.09553e-06
3.33778e-06
1.27458e-06
4.86626e-07
1.29119e-05
4.53996e-05
2.02343e-05
2.19738e-06
1.76992e-07
1.24782e-06
2.27826e-06
1.90213e-06
8.72546e-07
6.06092e-08
2.56347e-06
6.32362e-06
3.69269e-06
1.57218e-06
1.27886e-06
2.3428e-06
4.74839e-06
1.12774e-05
3.39732e-05
9.88196e-05
0.000216586
0.000194342
0.000208511
0.000192467
0.000148345
9.40656e-05
5.36491e-05
3.39109e-05
2.4312e-05
1.54226e-05
8.87919e-06
4.76477e-06
3.26076e-06
1.793e-06
6.19719e-07
2.0961e-06
2.72648e-05
3.33309e-05
7.1164e-06
4.25807e-07
5.49179e-07
1.97108e-06
2.16626e-06
1.27211e-06
2.88786e-07
1.17992e-06
5.7151e-06
4.7524e-06
2.00953e-06
1.29651e-06
1.87212e-06
4.1723e-06
9.81416e-06
3.58115e-05
9.71725e-05
9.61754e-05
0.000210974
0.0001892
0.000206273
0.000191718
0.000148745
9.31492e-05
5.32744e-05
3.42369e-05
2.41202e-05
1.54617e-05
8.90629e-06
4.60023e-06
2.92739e-06
1.93958e-06
1.01499e-06
1.67949e-07
8.9875e-06
3.4219e-05
1.6168e-05
1.88702e-06
8.6734e-08
1.38938e-06
2.2635e-06
1.65718e-06
5.8974e-07
3.64525e-07
4.35172e-06
5.64974e-06
2.62991e-06
1.42138e-06
1.56562e-06
3.40754e-06
9.47816e-06
3.28183e-05
9.43316e-05
0.000230213
9.2156e-05
0.000202593
0.000185771
0.000206011
0.000190703
0.000148138
9.12368e-05
5.27767e-05
3.44136e-05
2.40752e-05
1.55355e-05
9.13095e-06
4.68023e-06
2.62865e-06
1.68648e-06
1.34478e-06
4.7689e-07
1.61348e-06
2.07904e-05
2.57634e-05
5.51517e-06
3.52154e-07
7.12551e-07
2.11067e-06
1.98781e-06
9.66607e-07
5.00581e-08
2.74065e-06
6.0384e-06
3.43486e-06
1.65082e-06
1.4254e-06
2.65943e-06
8.82816e-06
3.09927e-05
8.74078e-05
0.000212911
0.000478326
9.00566e-05
0.000196614
0.000182739
0.000205801
0.000189133
0.000145603
8.94867e-05
5.23321e-05
3.47248e-05
2.34277e-05
1.56079e-05
9.43379e-06
4.92923e-06
2.49671e-06
1.34347e-06
1.27708e-06
8.9028e-07
1.27344e-07
7.42161e-06
2.67103e-05
1.22632e-05
1.38471e-06
2.16874e-07
1.66285e-06
2.20333e-06
1.35026e-06
3.19768e-07
1.38936e-06
5.67757e-06
4.3502e-06
2.00363e-06
1.41699e-06
2.01469e-06
8.13834e-06
2.85777e-05
8.19137e-05
0.000196802
0.000432424
0.000906807
8.95939e-05
0.0001943
0.00018457
0.000208159
0.00018697
0.00014226
8.78043e-05
5.20634e-05
3.45075e-05
2.30629e-05
1.56308e-05
9.63894e-06
5.21003e-06
2.54567e-06
1.12295e-06
1.06031e-06
1.04689e-06
2.50985e-07
1.57521e-06
1.76024e-05
1.95449e-05
3.96038e-06
2.28584e-07
1.02388e-06
2.22369e-06
1.73071e-06
6.10123e-07
5.2039e-07
4.60602e-06
5.19767e-06
2.49991e-06
1.49858e-06
1.62603e-06
7.34461e-06
2.62278e-05
7.56134e-05
0.00018142
0.000398858
0.000816132
0.00160974
9.02689e-05
0.000194077
0.000185674
0.000209309
0.000184166
0.000139156
8.66329e-05
5.16765e-05
3.45253e-05
2.27843e-05
1.54246e-05
9.82331e-06
5.40367e-06
2.64457e-06
1.14078e-06
8.05951e-07
1.08393e-06
5.47964e-07
3.45911e-07
7.24581e-06
2.15626e-05
8.693e-06
8.7939e-07
4.3958e-07
1.97693e-06
2.03328e-06
9.69979e-07
2.54e-08
3.16849e-06
5.71677e-06
3.1416e-06
1.68048e-06
1.47065e-06
6.47153e-06
2.38443e-05
6.89959e-05
0.000166814
0.000364527
0.000755144
0.00145414
0.00270842
9.05958e-05
0.000194496
0.000185312
0.000206518
0.000179856
0.000135699
8.59521e-05
5.14428e-05
3.43203e-05
2.24991e-05
1.51435e-05
9.81242e-06
5.47622e-06
2.72766e-06
1.25952e-06
7.10034e-07
9.65738e-07
6.89837e-07
3.41136e-07
1.88348e-06
1.60855e-05
1.44634e-05
2.55081e-06
8.25862e-08
1.46176e-06
2.21661e-06
1.35983e-06
2.70385e-07
1.81281e-06
5.66777e-06
3.89596e-06
1.96097e-06
1.44174e-06
5.61505e-06
2.1435e-05
6.24172e-05
0.000152601
0.000333053
0.000689077
0.00135374
0.00246527
0.00428656
9.32575e-05
0.000193796
0.000182674
0.000202775
0.000176437
0.000132661
8.56916e-05
5.13607e-05
3.41464e-05
2.19782e-05
1.4682e-05
9.48067e-06
5.36779e-06
2.66342e-06
1.35338e-06
7.05317e-07
7.94588e-07
7.74781e-07
4.79821e-07
3.73223e-07
7.95645e-06
1.75715e-05
5.73555e-06
4.3025e-07
8.31885e-07
2.19506e-06
1.73141e-06
5.60612e-07
8.24593e-07
4.97126e-06
4.66533e-06
2.34024e-06
1.52812e-06
4.8637e-06
1.90047e-05
5.59456e-05
0.00013884
0.000303891
0.000628951
0.00124111
0.00231469
0.00394124
0.00629787
9.37722e-05
0.000194974
0.00017905
0.00019857
0.000173947
0.000131805
8.58304e-05
5.20708e-05
3.4087e-05
2.13513e-05
1.39853e-05
9.12706e-06
4.97113e-06
2.42523e-06
1.35412e-06
6.81184e-07
6.58698e-07
6.52402e-07
6.20058e-07
2.10097e-07
2.57533e-06
1.52216e-05
1.02565e-05
1.3883e-06
3.17629e-07
1.9138e-06
2.03596e-06
9.03675e-07
2.03317e-07
3.79152e-06
5.2779e-06
2.82025e-06
1.70202e-06
4.21744e-06
1.66388e-05
4.98641e-05
0.000125513
0.000276699
0.000573384
0.00113793
0.00213989
0.0037445
0.00585903
0.00828419
9.22972e-05
0.000191652
0.000172581
0.000194827
0.000172291
0.000130866
8.58154e-05
5.2605e-05
3.44369e-05
2.10627e-05
1.32542e-05
8.60967e-06
4.56493e-06
2.0661e-06
1.23915e-06
6.27393e-07
5.36236e-07
4.91274e-07
6.48212e-07
2.82004e-07
4.9921e-07
9.24853e-06
1.39649e-05
3.44745e-06
1.08535e-07
1.39365e-06
2.21133e-06
1.31207e-06
1.56761e-07
2.47972e-06
5.52103e-06
3.39704e-06
1.94988e-06
3.65746e-06
1.4384e-05
4.41649e-05
0.000112694
0.000251119
0.000522196
0.00104138
0.00197832
0.00350181
0.005646
0.0077605
0.0108665
9.0081e-05
0.0001872
0.00016648
0.000190425
0.000170774
0.00012972
8.5412e-05
5.3298e-05
3.44884e-05
2.09773e-05
1.29859e-05
8.1654e-06
4.04482e-06
1.62339e-06
1.06368e-06
6.23235e-07
4.5734e-07
3.65875e-07
5.67294e-07
4.74178e-07
8.77489e-08
3.8301e-06
1.43122e-05
6.69903e-06
6.59173e-07
7.94733e-07
2.20415e-06
1.66327e-06
4.66844e-07
1.36312e-06
5.23778e-06
4.0432e-06
2.23117e-06
3.20226e-06
1.23339e-05
3.88802e-05
0.000100433
0.000226919
0.000475015
0.000952229
0.00182471
0.00327517
0.00534358
0.00757474
0.0101957
0.0166685
8.68043e-05
0.000183083
0.000163866
0.000189208
0.000169907
0.000128306
8.48476e-05
5.39718e-05
3.45179e-05
2.09716e-05
1.3016e-05
8.0978e-06
3.619e-06
1.19747e-06
8.4113e-07
6.54327e-07
5.29329e-07
3.71428e-07
4.71489e-07
5.49149e-07
2.4735e-07
1.00869e-06
1.08296e-05
1.04098e-05
1.81591e-06
3.07994e-07
1.94607e-06
1.97861e-06
8.06779e-07
5.88994e-07
4.43936e-06
4.65686e-06
2.55221e-06
2.85682e-06
1.05054e-05
3.40042e-05
8.88307e-05
0.000204011
0.000431394
0.000870156
0.00168075
0.00305544
0.00505654
0.00727606
0.00993664
0.0159431
0.0243545
8.45648e-05
0.000178179
0.000162962
0.000187607
0.000167823
0.00012603
8.42943e-05
5.44767e-05
3.45301e-05
2.12378e-05
1.34457e-05
8.3057e-06
3.44672e-06
8.26421e-07
6.76454e-07
6.88609e-07
6.58732e-07
4.63955e-07
4.08013e-07
5.43124e-07
3.84238e-07
1.22851e-07
5.9954e-06
1.2639e-05
3.91295e-06
1.5087e-07
1.46935e-06
2.17595e-06
1.16873e-06
6.10382e-08
3.31711e-06
5.07545e-06
2.96052e-06
2.67601e-06
8.96353e-06
2.94915e-05
7.79685e-05
0.00018238
0.000390846
0.000794862
0.00154668
0.00284554
0.00477432
0.00700087
0.00958164
0.0154691
0.0240901
0.0300513
8.57823e-05
0.000178278
0.000163784
0.000185411
0.000163737
0.000123216
8.37234e-05
5.47163e-05
3.43577e-05
2.16323e-05
1.41695e-05
8.94684e-06
3.51443e-06
6.55968e-07
3.93022e-07
6.12949e-07
6.73647e-07
5.36547e-07
3.69485e-07
4.21357e-07
4.55552e-07
1.45345e-07
2.37557e-06
1.18835e-05
6.8697e-06
7.44299e-07
9.04954e-07
2.21608e-06
1.5402e-06
3.04201e-07
2.15653e-06
5.16101e-06
3.45887e-06
2.67437e-06
7.61307e-06
2.53001e-05
6.7909e-05
0.0001621
0.000353096
0.000725647
0.00142275
0.002646
0.00450104
0.00671914
0.00925392
0.0149154
0.02372
0.0304522
0.0327967
8.73606e-05
0.000180921
0.000166251
0.000183918
0.000159562
0.000120787
8.37557e-05
5.52248e-05
3.40635e-05
2.19163e-05
1.49852e-05
9.55934e-06
3.91477e-06
8.1912e-07
2.07435e-07
3.40884e-07
4.98549e-07
5.25791e-07
3.40375e-07
2.9184e-07
4.12474e-07
2.41025e-07
6.42945e-07
8.55833e-06
9.87177e-06
1.88389e-06
4.13869e-07
2.03995e-06
1.85012e-06
6.46115e-07
1.1849e-06
4.82597e-06
3.96933e-06
2.78418e-06
6.44329e-06
2.14057e-05
5.87272e-05
0.00014323
0.000317926
0.000661748
0.00130874
0.0024581
0.00423753
0.00643761
0.00892354
0.0143438
0.0233403
0.0304898
0.0336063
0.0337163
8.80663e-05
0.000182229
0.000164493
0.000179059
0.000154007
0.000119185
8.4015e-05
5.49787e-05
3.31867e-05
2.19443e-05
1.56513e-05
1.01765e-05
4.34483e-06
1.21276e-06
5.66848e-07
1.1637e-07
2.27387e-07
3.86663e-07
3.22521e-07
1.88419e-07
3.1072e-07
3.31794e-07
9.0839e-08
4.68773e-06
1.1371e-05
3.82281e-06
8.85981e-08
1.65281e-06
2.07905e-06
9.98494e-07
4.54885e-07
4.09236e-06
4.42373e-06
3.01254e-06
5.38064e-06
1.77838e-05
5.04552e-05
0.000125836
0.000285127
0.000602509
0.00120425
0.00228255
0.00398479
0.00615783
0.00859495
0.0137659
0.0229182
0.0306097
0.0339473
0.0347489
0.0335954
9.00749e-05
0.000181289
0.00016112
0.000173738
0.000149795
0.000117772
8.39901e-05
5.47016e-05
3.25445e-05
2.15878e-05
1.59671e-05
1.06079e-05
4.76491e-06
1.54824e-06
9.65877e-07
4.88209e-07
9.55358e-08
2.70721e-07
3.16037e-07
1.75264e-07
2.05465e-07
3.62953e-07
1.32199e-07
1.90273e-06
1.04526e-05
6.4638e-06
6.60662e-07
1.13873e-06
2.17937e-06
1.38114e-06
1.83638e-07
3.10747e-06
4.72498e-06
3.32299e-06
4.46737e-06
1.46329e-05
4.31166e-05
0.000109907
0.000254588
0.000547385
0.00110826
0.00212028
0.00374422
0.00588194
0.00826708
0.0131907
0.0224612
0.0306718
0.0344516
0.0352339
0.0347712
0.0327676
8.77823e-05
0.000179832
0.000157211
0.000169419
0.000147661
0.000117964
8.55849e-05
5.42137e-05
3.15717e-05
2.12494e-05
1.60385e-05
1.07014e-05
5.02252e-06
1.83869e-06
1.18028e-06
8.48077e-07
3.91326e-07
2.92327e-07
3.0457e-07
2.12878e-07
1.502e-07
3.22385e-07
2.33682e-07
5.17859e-07
7.59707e-06
9.0491e-06
1.68328e-06
6.29181e-07
2.12897e-06
1.6695e-06
5.44324e-07
2.09801e-06
4.76218e-06
3.59779e-06
3.88587e-06
1.19072e-05
3.66434e-05
9.54086e-05
0.000226169
0.000496097
0.00101968
0.00197141
0.00351725
0.00561133
0.00794158
0.0126181
0.021965
0.0307026
0.0349171
0.0359242
0.035327
0.0340444
0.0314556
8.54076e-05
0.000173951
0.000150934
0.000165935
0.000146091
0.000118277
8.64973e-05
5.40309e-05
3.07974e-05
2.06757e-05
1.58449e-05
1.03236e-05
5.05184e-06
1.96232e-06
1.25255e-06
9.38588e-07
5.93448e-07
3.39714e-07
2.75402e-07
2.35802e-07
1.23875e-07
2.42397e-07
3.21731e-07
1.6966e-08
4.35342e-06
1.04231e-05
3.35575e-06
1.37165e-07
1.88853e-06
1.92022e-06
9.22587e-07
1.2385e-06
4.45227e-06
3.92554e-06
3.58152e-06
9.61981e-06
3.09023e-05
8.22459e-05
0.000199824
0.000448479
0.000937597
0.00183515
0.00330574
0.00534712
0.00761749
0.0120533
0.0214337
0.0306891
0.03539
0.0365869
0.0361179
0.0346247
0.0328058
0.0298512
8.36372e-05
0.000169969
0.000146979
0.000162534
0.000144664
0.00011824
8.70052e-05
5.35198e-05
3.01117e-05
2.02484e-05
1.55343e-05
9.8813e-06
4.6816e-06
1.95561e-06
1.12884e-06
7.52192e-07
7.05893e-07
3.35742e-07
1.97022e-07
2.17942e-07
1.3072e-07
1.68302e-07
3.42954e-07
1.5983e-07
1.9293e-06
9.78867e-06
5.71153e-06
4.31432e-07
1.49183e-06
2.07788e-06
1.27301e-06
6.37108e-07
3.86442e-06
4.2644e-06
3.50781e-06
7.91602e-06
2.56756e-05
7.03679e-05
0.000175518
0.000404405
0.000861311
0.00170993
0.00311109
0.00509082
0.00729603
0.0114977
0.0208709
0.030641
0.0358569
0.0372784
0.0368876
0.0354689
0.0333745
0.0312463
0.0281105
8.2984e-05
0.000167269
0.000144527
0.000160319
0.000143409
0.000117999
8.7133e-05
5.31196e-05
2.96569e-05
2.04973e-05
1.5234e-05
9.35406e-06
4.31011e-06
1.81853e-06
1.04336e-06
3.89756e-07
5.265e-07
3.50554e-07
9.9395e-08
1.95684e-07
1.77647e-07
1.27246e-07
3.0115e-07
2.54484e-07
6.1583e-07
7.5234e-06
8.03073e-06
1.30305e-06
1.01279e-06
2.14544e-06
1.59219e-06
6.71366e-07
3.13583e-06
4.4963e-06
3.61439e-06
6.47745e-06
2.0977e-05
5.97225e-05
0.00015334
0.000363621
0.000790731
0.00159354
0.0029339
0.00484378
0.00697864
0.0109563
0.0202851
0.0305569
0.0363195
0.0379832
0.0376944
0.0362916
0.0342313
0.0317823
0.0295222
0.0263614
8.38938e-05
0.000167004
0.000142526
0.000157431
0.00014214
0.000118134
8.7369e-05
5.26532e-05
2.95998e-05
2.1218e-05
1.56175e-05
8.92403e-06
3.88358e-06
1.69103e-06
1.08118e-06
2.38049e-07
2.76241e-07
3.23372e-07
4.49119e-08
1.68273e-07
2.17509e-07
1.19651e-07
2.25771e-07
3.23766e-07
7.70317e-08
4.7095e-06
9.54928e-06
2.69961e-06
5.41873e-07
2.08322e-06
1.80356e-06
1.04059e-06
2.39442e-06
4.51023e-06
3.82518e-06
5.26866e-06
1.67488e-05
5.02887e-05
0.000133301
0.000325887
0.000725434
0.0014848
0.00277201
0.00461008
0.00666704
0.0104333
0.0196824
0.0304407
0.036776
0.0387062
0.038525
0.0371595
0.0350708
0.0326222
0.0300144
0.0277593
0.0246939
8.45891e-05
0.000167634
0.00014105
0.000154048
0.000140718
0.000118044
8.70912e-05
5.23456e-05
2.96323e-05
2.20583e-05
1.5999e-05
8.88336e-06
3.5639e-06
1.55949e-06
1.13384e-06
5.32722e-07
2.2592e-07
2.65625e-07
1.70953e-07
1.73075e-07
2.1207e-07
1.31718e-07
1.53498e-07
3.16139e-07
1.29897e-07
2.39011e-06
9.48608e-06
4.62919e-06
6.72129e-08
1.87291e-06
1.98089e-06
1.45456e-06
1.77183e-06
4.27028e-06
4.01221e-06
4.45723e-06
1.31745e-05
4.20182e-05
0.000115349
0.000290912
0.000665092
0.00138331
0.00262206
0.00439337
0.00636454
0.00993331
0.0190712
0.0302894
0.0372279
0.0394479
0.0393841
0.0380558
0.0359578
0.0334488
0.0308182
0.0281944
0.0260415
0.0231689
8.51491e-05
0.000166735
0.00013883
0.000151028
0.000139341
0.000118046
8.6194e-05
5.13342e-05
2.94416e-05
2.28994e-05
1.63588e-05
9.08145e-06
3.55407e-06
1.28932e-06
1.03836e-06
6.99253e-07
3.00462e-07
1.65272e-07
2.32661e-07
1.31616e-07
1.47948e-07
1.56359e-07
1.00828e-07
2.65438e-07
2.3808e-07
9.5083e-07
7.9005e-06
6.81364e-06
7.69624e-07
1.54592e-06
2.11982e-06
1.8224e-06
1.45535e-06
3.81354e-06
4.25153e-06
3.99073e-06
1.02661e-05
3.47919e-05
9.92999e-05
0.000258587
0.000609095
0.00128928
0.00248043
0.00419584
0.00607896
0.00945929
0.018455
0.030104
0.0376702
0.0402051
0.0402702
0.038986
0.0368749
0.0343242
0.0316107
0.0289487
0.0264208
0.0244376
0.0218332
8.35024e-05
0.00016454
0.000136093
0.000148342
0.000138479
0.000118431
8.53484e-05
5.03211e-05
2.94984e-05
2.34647e-05
1.66329e-05
9.26812e-06
3.83803e-06
1.2961e-06
7.68619e-07
6.25633e-07
3.22856e-07
2.78181e-08
2.40486e-07
1.27688e-07
4.6724e-08
1.6683e-07
8.35242e-08
1.85036e-07
3.00893e-07
2.19043e-07
5.53517e-06
8.50185e-06
1.90766e-06
1.16649e-06
2.20691e-06
2.0994e-06
1.46238e-06
3.2792e-06
4.45061e-06
3.80713e-06
8.19219e-06
2.83871e-05
8.48942e-05
0.000228921
0.000556851
0.00120284
0.00234568
0.00401691
0.00581922
0.00901177
0.0178342
0.0298804
0.0380982
0.0409793
0.0411806
0.0399457
0.0378295
0.0352314
0.0324491
0.0296936
0.0271159
0.0247583
0.0229867
0.0207082
8.20078e-05
0.00016008
0.000132867
0.000146618
0.000137326
0.000118424
8.40713e-05
4.92121e-05
2.97126e-05
2.39714e-05
1.6548e-05
9.31071e-06
4.1096e-06
1.61917e-06
7.30262e-07
4.71443e-07
3.00204e-07
1.38034e-07
2.11465e-07
2.2387e-07
5.80393e-08
1.48354e-07
1.00093e-07
1.21597e-07
3.20797e-07
9.85132e-08
3.29713e-06
9.0577e-06
3.50043e-06
7.36341e-07
2.19589e-06
2.31327e-06
1.69762e-06
2.76902e-06
4.49989e-06
3.86786e-06
6.48678e-06
2.26619e-05
7.19393e-05
0.000201909
0.000508145
0.00112362
0.00221882
0.0038518
0.0055913
0.00859171
0.0172022
0.0296145
0.0385049
0.0417645
0.042113
0.0409359
0.0388146
0.0361731
0.033323
0.0304819
0.0278029
0.0253891
0.0232549
0.0217244
0.0197976
8.13433e-05
0.000155958
0.000130502
0.000145828
0.000136195
0.000118206
8.22052e-05
4.80159e-05
2.98762e-05
2.42792e-05
1.62865e-05
9.11853e-06
4.21736e-06
1.8991e-06
8.09656e-07
5.05135e-07
2.81601e-07
2.72411e-07
1.9681e-07
2.84252e-07
1.19782e-07
9.93197e-08
1.25605e-07
8.71028e-08
2.68982e-07
2.52938e-07
1.63574e-06
8.2917e-06
5.43799e-06
2.61755e-07
2.08149e-06
2.48638e-06
2.02642e-06
2.32787e-06
4.33816e-06
4.05741e-06
5.17164e-06
1.76049e-05
6.03407e-05
0.000177532
0.000463036
0.00105017
0.0021019
0.00369423
0.00539256
0.00819879
0.016553
0.029306
0.0388867
0.042562
0.043068
0.0419518
0.0398319
0.0371493
0.0342311
0.0313037
0.0285336
0.0260136
0.0238215
0.0219483
0.0206662
0.0191184
8.08699e-05
0.000152567
0.000127957
0.000145044
0.000135848
0.000117422
8.06139e-05
4.66716e-05
3.03218e-05
2.44885e-05
1.61043e-05
8.7566e-06
4.05997e-06
1.93123e-06
8.44119e-07
5.15601e-07
2.95445e-07
3.00215e-07
1.56094e-07
2.62339e-07
1.61074e-07
4.58291e-08
1.38031e-07
7.17833e-08
1.94344e-07
3.40918e-07
6.17602e-07
6.62024e-06
7.05397e-06
1.01067e-06
1.91397e-06
2.61831e-06
2.34193e-06
2.09672e-06
4.01618e-06
4.23952e-06
4.30622e-06
1.34294e-05
5.00537e-05
0.000155598
0.000421757
0.000981106
0.00199627
0.00354227
0.00521651
0.00783964
0.0158963
0.0289578
0.0392408
0.043373
0.0440477
0.0429979
0.0408799
0.0381574
0.0351724
0.0321617
0.0292947
0.0266761
0.0243785
0.0224446
0.020847
0.0198187
0.0186608
7.95407e-05
0.000149264
0.000124818
0.000144387
0.000135259
0.000116064
7.90986e-05
4.54996e-05
3.108e-05
2.46044e-05
1.6096e-05
8.63405e-06
3.80799e-06
1.77993e-06
7.00138e-07
4.62258e-07
2.33846e-07
2.76331e-07
1.53472e-07
1.98658e-07
1.80112e-07
1.85882e-08
1.22523e-07
8.01073e-08
1.21344e-07
3.79304e-07
7.27192e-08
4.61359e-06
8.08273e-06
2.38227e-06
1.75976e-06
2.70786e-06
2.6043e-06
2.05247e-06
3.58864e-06
4.41669e-06
3.86624e-06
1.01507e-05
4.09339e-05
0.000135762
0.000384302
0.000916079
0.00190022
0.00340103
0.00504963
0.00751884
0.0152631
0.0285716
0.0395701
0.0442021
0.0450572
0.0440755
0.0419584
0.0391966
0.0361428
0.033052
0.0300859
0.0273695
0.0249693
0.0229274
0.0212696
0.0199628
0.0191922
0.0184145
7.75776e-05
0.00014507
0.00012107
0.000144206
0.000134721
0.000114683
7.72488e-05
4.49042e-05
3.15192e-05
2.43261e-05
1.60652e-05
8.78302e-06
3.72558e-06
1.59532e-06
5.68952e-07
3.86599e-07
1.98732e-07
2.10049e-07
1.12161e-07
1.13165e-07
1.66458e-07
6.85975e-08
8.4025e-08
1.02831e-07
7.7867e-08
3.29222e-07
2.17899e-07
2.85476e-06
8.1421e-06
3.84687e-06
1.40517e-06
2.73906e-06
2.80483e-06
2.16089e-06
3.12483e-06
4.49341e-06
3.76437e-06
7.83838e-06
3.27277e-05
0.000117576
0.000350679
0.000855497
0.0018104
0.00327713
0.00487994
0.00723008
0.0146781
0.0281494
0.039866
0.0450485
0.0460989
0.0451882
0.0430719
0.040267
0.0371465
0.0339697
0.0309113
0.0280949
0.0255877
0.0234497
0.0216813
0.0203157
0.0192987
0.0187791
0.0183782
7.61352e-05
0.00014159
0.000117614
0.00014382
0.000134508
0.000112567
7.5708e-05
4.50964e-05
3.21504e-05
2.37439e-05
1.58072e-05
9.03013e-06
3.89725e-06
1.47812e-06
4.15379e-07
3.19629e-07
2.12487e-07
2.03515e-07
9.36661e-08
5.01405e-08
1.20803e-07
1.02901e-07
3.91654e-08
1.20675e-07
6.40644e-08
2.35588e-07
3.82494e-07
1.5537e-06
7.23153e-06
5.46696e-06
1.1284e-06
2.74259e-06
2.96073e-06
2.37086e-06
2.72642e-06
4.4387e-06
3.91774e-06
5.96185e-06
2.53202e-05
0.00010081
0.000320734
0.000800578
0.0017239
0.00317147
0.00471079
0.00694889
0.0141603
0.0277024
0.0401236
0.045911
0.0471687
0.0463384
0.0442254
0.0413752
0.0381836
0.0349193
0.0317671
0.0288467
0.0262409
0.0239951
0.0221325
0.0206591
0.0195786
0.0188445
0.0185705
0.018524
7.565e-05
0.000139701
0.000116062
0.000143323
0.000134116
0.000109526
7.43455e-05
4.53885e-05
3.28827e-05
2.31396e-05
1.54933e-05
9.15654e-06
4.2247e-06
1.56554e-06
3.90369e-07
3.13086e-07
2.37548e-07
2.41918e-07
8.19829e-08
2.70911e-08
6.41482e-08
1.30442e-07
4.05616e-08
1.08077e-07
7.7783e-08
1.30194e-07
4.54335e-07
6.4902e-07
5.78804e-06
6.63613e-06
1.64421e-06
2.7168e-06
3.07803e-06
2.62232e-06
2.49169e-06
4.2318e-06
4.16787e-06
4.60216e-06
1.88962e-05
8.5428e-05
0.000294448
0.000752095
0.00164056
0.0030773
0.00455572
0.00664852
0.0136995
0.0272647
0.0403298
0.0467698
0.0482656
0.0475255
0.0454173
0.0425228
0.0392582
0.0359035
0.0326526
0.0296301
0.026918
0.0245672
0.0226047
0.0210313
0.0198508
0.0190536
0.0186035
0.0185615
0.0188454
7.61702e-05
0.00013963
0.000115787
0.000142323
0.000133379
0.000106322
7.27441e-05
4.60197e-05
3.3557e-05
2.29769e-05
1.51851e-05
8.96205e-06
4.45751e-06
1.86294e-06
2.96989e-07
4.26001e-07
2.43202e-07
3.10184e-07
1.02568e-07
2.58377e-08
3.40969e-08
1.22884e-07
7.10088e-08
7.449e-08
1.0533e-07
5.16528e-08
4.69165e-07
1.58713e-07
4.17337e-06
7.23447e-06
2.8366e-06
2.62688e-06
3.14607e-06
2.8378e-06
2.38598e-06
3.87453e-06
4.38819e-06
3.82757e-06
1.38128e-05
7.13694e-05
0.000271608
0.000710025
0.00156278
0.00298183
0.00442436
0.00632622
0.0132368
0.0268743
0.0404807
0.0476041
0.0493734
0.04874
0.0466465
0.0437108
0.0403679
0.0369221
0.0335699
0.0304415
0.0276243
0.0251694
0.0230985
0.0214251
0.0201477
0.0192593
0.0187413
0.0185623
0.0187392
0.019328
7.65406e-05
0.000141786
0.000116804
0.000140589
0.000132004
0.000103618
7.13202e-05
4.64959e-05
3.3978e-05
2.3285e-05
1.52051e-05
8.66891e-06
4.24748e-06
2.10532e-06
3.4892e-07
4.98228e-07
3.23474e-07
3.23345e-07
1.35867e-07
2.89434e-08
4.69286e-08
1.08529e-07
9.37336e-08
3.52294e-08
1.27194e-07
1.87526e-08
4.07119e-07
4.09567e-07
2.74467e-06
7.14033e-06
4.09766e-06
2.37169e-06
3.17073e-06
3.00855e-06
2.40069e-06
3.39978e-06
4.54655e-06
3.60029e-06
9.93739e-06
5.82509e-05
0.000251846
0.000673718
0.00149278
0.00287717
0.00430769
0.00600215
0.0126909
0.0265258
0.0405969
0.0483832
0.0504772
0.0499691
0.0479001
0.0449266
0.0415118
0.0379705
0.0345184
0.0312842
0.0283598
0.0257965
0.0236239
0.0218455
0.0204707
0.0194885
0.0188805
0.0186264
0.018698
0.0190811
0.0199359
7.77297e-05
0.000142871
0.000118262
0.00013854
0.00012975
0.000101581
7.0472e-05
4.67728e-05
3.36599e-05
2.34902e-05
1.57049e-05
8.48385e-06
3.8455e-06
1.97759e-06
6.93299e-07
3.82236e-07
4.69399e-07
2.89788e-07
1.99128e-07
3.16251e-08
5.77691e-08
9.30173e-08
8.1844e-08
2.3299e-08
1.20294e-07
2.094e-08
3.39472e-07
6.82842e-07
1.71432e-06
6.38203e-06
5.325e-06
2.20656e-06
3.18095e-06
3.1457e-06
2.48793e-06
2.95922e-06
4.5874e-06
3.78166e-06
7.05246e-06
4.55246e-05
0.000234855
0.000642571
0.00143097
0.00276272
0.00417395
0.00569743
0.0120274
0.0261209
0.0407283
0.0490817
0.051545
0.0511939
0.049164
0.0461627
0.0426829
0.0390534
0.0354979
0.0321572
0.0291235
0.0264556
0.0241734
0.0222952
0.0208198
0.0197427
0.0190412
0.0186991
0.0186958
0.0189975
0.0195681
0.0206444
7.81465e-05
0.000144029
0.000118023
0.00013502
0.000126318
9.99215e-05
7.0063e-05
4.70042e-05
3.29439e-05
2.34904e-05
1.60706e-05
8.86481e-06
3.50873e-06
1.49247e-06
9.84001e-07
3.88413e-07
5.24261e-07
2.89938e-07
2.08234e-07
1.18521e-07
7.7273e-08
8.38043e-08
4.63858e-08
5.10072e-08
8.49169e-08
7.57287e-08
3.06783e-07
8.7941e-07
1.1404e-06
5.18986e-06
6.33412e-06
2.42219e-06
3.12897e-06
3.24841e-06