/*--------------------------------*- C++ -*----------------------------------*\
| =========                 |                                                 |
| \\      /  F ield         | OpenFOAM: The Open Source CFD Toolbox           |
|  \\    /   O peration     | Version:  v2012                                 |
|   \\  /    A nd           | Website:  www.openfoam.com                      |
|    \\/     M anipulation  |                                                 |
\*---------------------------------------------------------------------------*/
FoamFile
{
    version     2.0;
    format      ascii;
    class       volScalarField;
    location    "12000";
    object      nk;
}
// * * * * * * * * * * * * * * * * * * * * * * * * * * * * * * * * * * * * * //

dimensions      [0 0 0 0 0 0 0];


internalField   nonuniform List<scalar> 
27324
(
5.91461e-07
5.87662e-07
2.94648e-06
5.79013e-07
2.83541e-06
2.54827e-06
5.6612e-07
2.67429e-06
2.38237e-06
1.22847e-06
5.49419e-07
2.47658e-06
2.18694e-06
1.11427e-06
4.10302e-07
5.26307e-07
2.24692e-06
1.9692e-06
9.9417e-07
3.58959e-07
1.17916e-07
4.98258e-07
1.97402e-06
1.7336e-06
8.71388e-07
3.09123e-07
1.00642e-07
3.35194e-08
4.6785e-07
1.67696e-06
1.48e-06
7.49183e-07
2.6296e-07
8.48578e-08
2.84178e-08
1.04086e-08
4.35672e-07
1.37846e-06
1.22366e-06
6.36845e-07
2.21547e-07
7.12773e-08
2.39098e-08
8.94766e-09
3.86283e-09
3.90587e-07
1.08951e-06
9.80446e-07
5.37791e-07
1.90646e-07
5.98289e-08
2.01816e-08
7.67791e-09
3.44375e-09
1.74679e-09
3.04393e-07
7.93979e-07
7.5966e-07
4.5024e-07
1.68355e-07
5.23153e-08
1.71148e-08
6.65347e-09
3.08172e-09
1.61543e-09
9.07935e-10
1.84476e-07
5.09363e-07
5.56113e-07
3.71599e-07
1.49892e-07
4.76485e-08
1.5199e-08
5.82615e-09
2.79366e-09
1.49809e-09
8.56926e-10
5.13395e-10
8.04863e-08
3.0419e-07
3.83739e-07
2.99656e-07
1.31876e-07
4.40141e-08
1.41036e-08
5.32337e-09
2.56351e-09
1.40224e-09
8.08142e-10
4.89316e-10
3.01774e-10
4.46057e-08
1.81189e-07
2.53133e-07
2.32497e-07
1.15295e-07
4.01999e-08
1.33081e-08
5.05401e-09
2.42509e-09
1.32382e-09
7.6651e-10
4.65042e-10
2.8849e-10
1.82858e-10
3.81656e-08
1.38646e-07
1.69532e-07
1.80698e-07
9.73877e-08
3.6881e-08
1.24823e-08
4.8637e-09
2.35641e-09
1.27417e-09
7.31742e-10
4.43958e-10
2.74657e-10
1.75213e-10
1.11894e-10
3.68284e-08
1.29786e-07
1.32136e-07
1.53548e-07
9.10738e-08
3.31596e-08
1.17053e-08
4.66972e-09
2.30866e-09
1.2501e-09
7.0802e-10
4.26659e-10
2.62428e-10
1.67217e-10
1.07237e-10
6.99499e-11
3.63468e-08
1.27704e-07
1.21706e-07
1.40677e-07
9.66682e-08
3.5306e-08
1.09242e-08
4.40238e-09
2.25491e-09
1.23339e-09
6.95774e-10
4.14043e-10
2.52636e-10
1.60115e-10
1.02347e-10
6.71936e-11
4.48812e-11
3.59905e-08
1.26792e-07
1.17872e-07
1.33858e-07
1.01609e-07
4.35865e-08
1.22449e-08
4.18982e-09
2.10197e-09
1.20594e-09
6.87684e-10
4.06653e-10
2.44951e-10
1.54661e-10
9.79349e-11
6.43293e-11
4.33392e-11
3.01941e-11
3.55627e-08
1.25632e-07
1.14801e-07
1.29458e-07
1.0033e-07
5.00278e-08
1.59159e-08
4.66811e-09
2.03667e-09
1.11373e-09
6.64367e-10
4.01474e-10
2.39671e-10
1.50164e-10
9.44081e-11
6.17247e-11
4.17477e-11
2.93525e-11
2.16873e-11
3.50056e-08
1.23938e-07
1.11401e-07
1.2541e-07
9.76373e-08
5.13709e-08
1.85957e-08
5.85795e-09
2.28175e-09
1.10013e-09
6.14518e-10
3.7479e-10
2.33831e-10
1.46209e-10
9.1267e-11
5.94898e-11
4.00846e-11
2.84152e-11
2.11986e-11
1.6467e-11
3.43027e-08
1.21512e-07
1.07817e-07
1.21759e-07
9.48881e-08
5.06932e-08
1.93843e-08
6.81006e-09
2.81925e-09
1.24981e-09
6.21165e-10
3.49118e-10
2.14273e-10
1.35701e-10
8.62924e-11
5.67646e-11
3.81141e-11
2.67678e-11
2.05492e-11
1.54711e-11
1.34638e-11
3.34742e-08
1.18403e-07
1.04129e-07
1.18439e-07
9.25629e-08
4.96702e-08
1.92909e-08
6.86637e-09
3.27803e-09
1.5414e-09
7.1531e-10
3.62582e-10
2.03949e-10
1.2359e-10
7.83834e-11
5.06636e-11
3.42011e-11
2.40984e-11
1.81686e-11
1.38214e-11
1.15938e-11
1.00459e-11
3.2571e-08
1.14781e-07
1.00564e-07
1.15429e-07
9.06031e-08
4.85977e-08
1.89847e-08
6.85275e-09
3.19518e-09
1.80585e-09
8.80063e-10
4.21517e-10
2.1863e-10
1.2225e-10
7.30825e-11
4.58321e-11
3.01438e-11
2.09797e-11
1.53971e-11
1.19403e-11
9.85248e-12
8.81451e-12
9.0962e-12
3.16499e-08
1.10953e-07
9.72737e-08
1.12818e-07
8.88384e-08
4.74995e-08
1.85511e-08
6.78902e-09
3.17917e-09
1.80461e-09
1.03533e-09
5.14095e-10
2.55716e-10
1.34817e-10
7.58812e-11
4.50642e-11
2.84574e-11
1.92797e-11
1.39705e-11
1.08158e-11
8.98366e-12
7.98266e-12
8.05302e-12
9.99509e-12
3.07627e-08
1.07214e-07
9.43796e-08
1.10562e-07
8.72214e-08
4.6377e-08
1.80498e-08
6.67591e-09
3.16831e-09
1.76317e-09
1.06535e-09
5.97433e-10
3.1348e-10
1.59211e-10
8.51216e-11
4.8471e-11
2.93482e-11
1.92154e-11
1.36162e-11
1.04286e-11
8.64295e-12
7.73239e-12
7.47988e-12
8.8505e-12
1.17687e-11
2.99586e-08
1.03871e-07
9.19419e-08
1.0864e-07
8.56409e-08
4.52333e-08
1.75264e-08
6.53844e-09
3.1443e-09
1.75515e-09
1.01418e-09
6.24413e-10
3.6204e-10
1.93e-10
9.99961e-11
5.52014e-11
3.23039e-11
2.04345e-11
1.41015e-11
1.06375e-11
8.74514e-12
7.76911e-12
7.38434e-12
7.96498e-12
1.05752e-11
1.37921e-11
2.92748e-08
1.01186e-07
8.99353e-08
1.0693e-07
8.39719e-08
4.40972e-08
1.70094e-08
6.39781e-09
3.10969e-09
1.74409e-09
1.00728e-09
5.99005e-10
3.85263e-10
2.21439e-10
1.18454e-10
6.36272e-11
3.61686e-11
2.22316e-11
1.49507e-11
1.10594e-11
8.96062e-12
7.87364e-12
7.38998e-12
7.47764e-12
9.39301e-12
1.27537e-11
1.74644e-11
2.87149e-08
9.92253e-08
8.82392e-08
1.05209e-07
8.21128e-08
4.29437e-08
1.6551e-08
6.26473e-09
3.07322e-09
1.72918e-09
1.00285e-09
5.86331e-10
3.74983e-10
2.38742e-10
1.36172e-10
7.3631e-11
4.07037e-11
2.43397e-11
1.59328e-11
1.15373e-11
9.20716e-12
7.99602e-12
7.43423e-12
7.30405e-12
8.4339e-12
1.15208e-11
1.55051e-11
2.81757e-11
2.82437e-08
9.7821e-08
8.6648e-08
1.03257e-07
8.00238e-08
4.17763e-08
1.61357e-08
6.15847e-09
3.03815e-09
1.71343e-09
9.97279e-10
5.84086e-10
3.57715e-10
2.37374e-10
1.48378e-10
8.3998e-11
4.59331e-11
2.67544e-11
1.70546e-11
1.20638e-11
9.46951e-12
8.13018e-12
7.48814e-12
7.26811e-12
7.73003e-12
1.02915e-11
1.40247e-11
2.26644e-11
6.30648e-11
2.77959e-08
9.6666e-08
8.49402e-08
1.00932e-07
7.77565e-08
4.0625e-08
1.575e-08
6.06969e-09
3.0111e-09
1.69817e-09
9.91538e-10
5.82138e-10
3.54644e-10
2.26068e-10
1.51024e-10
9.24579e-11
5.16214e-11
2.95121e-11
1.83422e-11
1.26602e-11
9.75617e-12
8.28092e-12
7.55853e-12
7.27578e-12
7.38811e-12
9.16717e-12
1.27515e-11
1.89348e-11
4.61277e-11
1.79436e-10
2.72807e-08
9.54135e-08
8.29934e-08
9.82136e-08
7.54428e-08
3.95031e-08
1.53881e-08
5.99075e-09
2.98987e-09
1.68591e-09
9.86064e-10
5.80139e-10
3.53593e-10
2.20171e-10
1.44874e-10
9.61347e-11
5.77135e-11
3.26657e-11
1.98109e-11
1.33423e-11
1.00743e-11
8.44771e-12
7.64608e-12
7.30405e-12
7.27242e-12
8.26695e-12
1.14396e-11
1.63632e-11
3.45999e-11
1.25878e-10
5.70919e-10
2.66472e-08
9.37832e-08
8.07869e-08
9.52513e-08
7.31807e-08
3.84351e-08
1.5044e-08
5.91797e-09
2.97222e-09
1.67573e-09
9.8212e-10
5.78239e-10
3.52672e-10
2.19186e-10
1.38304e-10
9.39821e-11
6.09714e-11
3.61521e-11
2.14742e-11
1.41115e-11
1.0429e-11
8.62881e-12
7.74822e-12
7.34459e-12
7.25045e-12
7.65128e-12
1.01727e-11
1.44901e-11
2.67764e-11
8.87451e-11
3.99683e-10
1.88061e-09
2.58733e-08
9.15442e-08
7.8242e-08
9.22323e-08
7.1045e-08
3.7445e-08
1.47109e-08
5.84916e-09
2.95636e-09
1.66659e-09
9.79332e-10
5.77187e-10
3.51878e-10
2.18678e-10
1.36417e-10
8.92017e-11
6.10407e-11
3.86457e-11
2.32944e-11
1.49605e-11
1.08232e-11
8.82387e-12
7.86139e-12
7.40234e-12
7.25729e-12
7.37946e-12
9.06485e-12
1.29662e-11
2.1488e-11
6.31455e-11
2.78337e-10
1.33682e-09
6.16984e-09
2.49841e-08
8.8647e-08
7.55563e-08
8.94402e-08
6.90883e-08
3.65325e-08
1.44022e-08
5.78293e-09
2.94069e-09
1.65762e-09
9.77224e-10
5.76933e-10
3.51531e-10
2.18283e-10
1.36022e-10
8.56954e-11
5.84221e-11
3.95498e-11
2.50712e-11
1.5898e-11
1.12545e-11
9.03536e-12
7.98281e-12
7.47326e-12
7.28147e-12
7.28887e-12
8.19495e-12
1.15438e-11
1.78906e-11
4.56641e-11
1.93002e-10
9.41418e-10
4.48095e-09
1.98651e-08
2.40433e-08
8.5353e-08
7.30363e-08
8.71706e-08
6.74057e-08
3.56743e-08
1.41254e-08
5.72458e-09
2.92414e-09
1.64836e-09
9.75397e-10
5.77213e-10
3.51628e-10
2.18111e-10
1.35805e-10
8.50883e-11
5.54319e-11
3.86416e-11
2.60882e-11
1.6911e-11
1.17221e-11
9.26458e-12
8.11108e-12
7.55454e-12
7.31864e-12
7.27243e-12
7.63571e-12
1.02222e-11
1.53712e-11
3.38277e-11
1.33621e-10
6.5675e-10
3.22038e-09
1.47563e-08
6.29443e-08
2.31358e-08
8.19939e-08
7.08559e-08
8.54641e-08
6.5915e-08
3.48375e-08
1.38838e-08
5.6772e-09
2.90797e-09
1.63875e-09
9.7369e-10
5.77761e-10
3.52014e-10
2.18176e-10
1.35705e-10
8.49339e-11
5.3588e-11
3.65379e-11
2.60482e-11
1.78789e-11
1.22312e-11
9.50716e-12
8.24532e-12
7.64293e-12
7.37114e-12
7.28073e-12
7.38945e-12
9.09828e-12
1.34713e-11
2.58795e-11
9.27081e-11
4.54202e-10
2.28888e-09
1.08524e-08
4.78702e-08
1.95045e-07
2.23385e-08
7.88995e-08
6.90777e-08
8.41841e-08
6.44401e-08
3.39749e-08
1.3672e-08
5.64342e-09
2.89349e-09
1.62985e-09
9.72053e-10
5.78406e-10
3.52521e-10
2.18424e-10
1.35732e-10
8.48558e-11
5.33539e-11
3.47284e-11
2.49534e-11
1.8141e-11
1.27581e-11
9.75621e-12
8.38411e-12
7.73482e-12
7.43626e-12
7.31007e-12
7.31197e-12
8.21525e-12
1.18708e-11
2.05519e-11
6.48359e-11
3.1172e-10
1.60887e-09
7.8935e-09
3.60563e-08
1.52062e-07
5.90671e-07
2.16572e-08
7.62357e-08
6.76944e-08
8.30884e-08
6.28946e-08
3.30863e-08
1.34817e-08
5.62123e-09
2.88192e-09
1.62244e-09
9.70951e-10
5.79093e-10
3.53048e-10
2.18754e-10
1.35879e-10
8.4831e-11
5.32773e-11
3.37875e-11
2.34209e-11
1.77939e-11
1.32159e-11
1.0016e-11
8.52186e-12
7.82885e-12
7.51061e-12
7.35314e-12
7.30465e-12
7.63852e-12
1.04276e-11
1.69447e-11
4.60336e-11
2.12719e-10
1.11835e-09
5.67884e-09
2.68624e-08
1.17522e-07
4.72251e-07
1.74928e-06
2.11057e-08
7.42727e-08
6.66139e-08
8.19308e-08
6.12479e-08
3.21733e-08
1.33217e-08
5.60451e-09
2.87347e-09
1.61715e-09
9.70672e-10
5.79984e-10
3.53568e-10
2.19106e-10
1.36087e-10
8.48781e-11
5.32262e-11
3.3675e-11
2.2244e-11
1.68287e-11
1.32379e-11
1.02716e-11
8.65319e-12
7.92413e-12
7.59084e-12
7.41137e-12
7.3227e-12
7.36903e-12
9.2326e-12
1.44023e-11
3.34973e-11
1.44621e-10
7.69397e-10
4.03869e-09
1.98054e-08
8.9861e-08
3.74684e-07
1.43224e-06
5.07557e-06
2.06327e-08
7.28491e-08
6.57211e-08
8.06102e-08
5.9474e-08
3.12834e-08
1.3186e-08
5.59459e-09
2.86659e-09
1.61454e-09
9.71593e-10
5.81248e-10
3.54185e-10
2.19471e-10
1.36319e-10
8.49814e-11
5.32182e-11
3.36405e-11
2.16197e-11
1.5684e-11
1.27979e-11
1.04804e-11
8.78228e-12
8.01776e-12
7.6744e-12
7.48227e-12
7.35708e-12
7.27787e-12
8.28947e-12
1.24674e-11
2.52013e-11
9.83608e-11
5.24308e-10
2.83888e-09
1.44453e-08
6.80296e-08
2.94321e-07
1.16526e-06
4.24736e-06
1.44419e-05
2.01862e-08
7.16089e-08
6.46865e-08
7.89161e-08
5.75982e-08
3.04214e-08
1.30748e-08
5.5891e-09
2.86238e-09
1.61389e-09
9.73649e-10
5.8312e-10
3.5503e-10
2.19904e-10
1.36565e-10
8.51155e-11
5.32503e-11
3.36192e-11
2.15351e-11
1.48437e-11
1.19544e-11
1.0434e-11
8.90758e-12
8.101e-12
7.75963e-12
7.56151e-12
7.40682e-12
7.2678e-12
7.62946e-12
1.08589e-11
1.9725e-11
6.72972e-11
3.54072e-10
1.97115e-09
1.04227e-08
5.09822e-08
2.29188e-07
9.39765e-07
3.53667e-06
1.23274e-05
4.02608e-05
1.9722e-08
7.03043e-08
6.33927e-08
7.69167e-08
5.56808e-08
2.96008e-08
1.29693e-08
5.58798e-09
2.85963e-09
1.61493e-09
9.7659e-10
5.85495e-10
3.5621e-10
2.2049e-10
1.36858e-10
8.52759e-11
5.33183e-11
3.36304e-11
2.15119e-11
1.43146e-11
1.10179e-11
1.00003e-11
9.01265e-12
8.17065e-12
7.84291e-12
7.64544e-12
7.47217e-12
7.28685e-12
7.28726e-12
9.52698e-12
1.60645e-11
4.67059e-11
2.37186e-10
1.35302e-09
7.43587e-09
3.78197e-08
1.76805e-07
7.52444e-07
2.92297e-06
1.04821e-05
3.5007e-05
0.000109437
1.92104e-08
6.87868e-08
6.18854e-08
7.47631e-08
5.38645e-08
2.88308e-08
1.28685e-08
5.58426e-09
2.85811e-09
1.61723e-09
9.80422e-10
5.88244e-10
3.57727e-10
2.21292e-10
1.3724e-10
8.54693e-11
5.34202e-11
3.36763e-11
2.15076e-11
1.42425e-11
1.03282e-11
9.27334e-12
8.97851e-12
8.23542e-12
7.91679e-12
7.73083e-12
7.54947e-12
7.32424e-12
7.15186e-12
8.47502e-12
1.35153e-11
3.32253e-11
1.57985e-10
9.17925e-10
5.24399e-09
2.77616e-08
1.3513e-07
5.97695e-07
2.40219e-06
8.85642e-06
3.03413e-05
9.69179e-05
0.000286763
1.86096e-08
6.70862e-08
6.02826e-08
7.25645e-08
5.21205e-08
2.81309e-08
1.27535e-08
5.57758e-09
2.85486e-09
1.62075e-09
9.84956e-10
5.91404e-10
3.59509e-10
2.22313e-10
1.37741e-10
8.57148e-11
5.35493e-11
3.3756e-11
2.15201e-11
1.42377e-11
9.91743e-12
8.44628e-12
8.60053e-12
8.28179e-12
7.97276e-12
7.81555e-12
7.6358e-12
7.37794e-12
7.123e-12
7.68341e-12
1.16102e-11
2.44852e-11
1.0503e-10
6.15743e-10
3.65302e-09
2.01644e-08
1.02283e-07
4.71019e-07
1.96179e-06
7.45147e-06
2.61484e-05
8.55608e-05
0.000258992
0.000709923
1.79576e-08
6.52002e-08
5.86594e-08
7.03533e-08
5.04405e-08
2.74616e-08
1.26261e-08
5.55644e-09
2.84946e-09
1.62415e-09
9.90169e-10
5.94816e-10
3.61539e-10
2.23517e-10
1.38374e-10
8.60332e-11
5.3712e-11
3.3861e-11
2.15625e-11
1.42496e-11
9.83058e-12
7.7937e-12
7.98886e-12
8.27253e-12
8.01214e-12
7.8952e-12
7.72728e-12
7.44821e-12
7.13708e-12
7.20898e-12
1.00793e-11
1.88516e-11
7.00758e-11
4.0867e-10
2.51266e-09
1.44845e-08
7.66803e-08
3.68118e-07
1.59207e-06
6.23975e-06
2.24625e-05
7.51254e-05
0.000233107
0.000655276
0.00162047
1.73192e-08
6.34382e-08
5.71973e-08
6.81423e-08
4.87973e-08
2.68464e-08
1.24929e-08
5.52128e-09
2.83902e-09
1.62709e-09
9.95172e-10
5.98393e-10
3.6372e-10
2.24856e-10
1.39102e-10
8.64235e-11
5.39138e-11
3.39839e-11
2.16308e-11
1.42818e-11
9.83259e-12
7.40795e-12
7.22455e-12
8.05509e-12
8.04452e-12
7.96106e-12
7.82172e-12
7.53309e-12
7.17046e-12
6.98149e-12
8.87336e-12
1.51851e-11
4.73424e-11
2.68648e-10
1.70569e-09
1.02862e-08
5.69175e-08
2.85328e-07
1.28348e-06
5.20095e-06
1.92272e-05
6.57745e-05
0.000208663
0.000602657
0.00152932
0.00334506
1.67837e-08
6.19274e-08
5.58976e-08
6.60066e-08
4.71645e-08
2.63032e-08
1.23755e-08
5.47626e-09
2.82402e-09
1.62866e-09
9.99633e-10
6.0163e-10
3.65941e-10
2.26271e-10
1.39904e-10
8.68743e-11
5.4153e-11
3.41272e-11
2.17154e-11
1.43307e-11
9.8475e-12
7.25776e-12
6.53179e-12
7.56024e-12
8.04429e-12
8.00543e-12
7.91759e-12
7.6283e-12
7.22151e-12
6.90103e-12
7.94611e-12
1.27099e-11
3.27859e-11
1.7527e-10
1.14186e-09
7.21843e-09
4.18256e-08
2.19272e-07
1.02788e-06
4.31398e-06
1.64038e-05
5.74117e-05
0.000186232
0.000551192
0.00143933
0.00322588
0.00609823
1.63459e-08
6.06731e-08
5.46036e-08
6.37449e-08
4.55196e-08
2.58178e-08
1.22892e-08
5.43106e-09
2.80719e-09
1.62896e-09
1.0032e-09
6.04322e-10
3.67945e-10
2.27676e-10
1.40738e-10
8.73569e-11
5.44197e-11
3.42852e-11
2.18094e-11
1.43903e-11
9.87334e-12
7.25141e-12
6.07152e-12
6.8814e-12
7.96194e-12
8.0327e-12
8.01055e-12
7.73054e-12
7.29081e-12
6.89069e-12
7.29161e-12
1.09241e-11
2.36451e-11
1.13819e-10
7.53797e-10
5.00098e-09
3.04226e-08
1.67067e-07
8.1759e-07
3.56112e-06
1.39483e-05
4.99804e-05
0.000165697
0.000502528
0.00134756
0.0031085
0.00600223
0.00955302
1.5987e-08
5.96754e-08
5.32314e-08
6.13697e-08
4.39168e-08
2.54101e-08
1.22272e-08
5.39533e-09
2.79268e-09
1.62883e-09
1.00571e-09
6.06184e-10
3.69621e-10
2.28947e-10
1.41543e-10
8.78513e-11
5.47006e-11
3.44512e-11
2.19052e-11
1.44543e-11
9.90616e-12
7.26463e-12
5.81518e-12
6.14684e-12
7.63954e-12
8.05117e-12
8.09044e-12
7.83808e-12
7.37649e-12
6.90868e-12
6.9114e-12
9.55252e-12
1.7923e-11
7.39046e-11
4.90598e-10
3.41845e-09
2.18882e-08
1.26194e-07
6.45939e-07
2.92512e-06
1.1823e-05
4.34033e-05
0.000147034
0.000456628
0.00125826
0.00298048
0.005912
0.00957138
0.0129834
1.55981e-08
5.85863e-08
5.1625e-08
5.89068e-08
4.24459e-08
2.50824e-08
1.21781e-08
5.36653e-09
2.78456e-09
1.6299e-09
1.00764e-09
6.07182e-10
3.70766e-10
2.30017e-10
1.42265e-10
8.83208e-11
5.49811e-11
3.46202e-11
2.19988e-11
1.45151e-11
9.94243e-12
7.27924e-12
5.75431e-12
5.54995e-12
7.08763e-12
8.03353e-12
8.14854e-12
7.94977e-12
7.4737e-12
6.94588e-12
6.72915e-12
8.48846e-12
1.43259e-11
4.8552e-11
3.15366e-10
2.30257e-09
1.55705e-08
9.44593e-08
5.06938e-07
2.39117e-06
9.98975e-06
3.76129e-05
0.000130157
0.000413676
0.00117108
0.00285124
0.00579826
0.00960288
0.013174
0.0158812
1.51444e-08
5.71316e-08
4.9669e-08
5.63749e-08
4.11101e-08
2.48222e-08
1.21327e-08
5.33898e-09
2.78194e-09
1.63375e-09
1.00973e-09
6.07706e-10
3.71474e-10
2.30759e-10
1.42869e-10
8.8745e-11
5.52437e-11
3.47844e-11
2.20881e-11
1.45701e-11
9.97779e-12
7.29624e-12
5.75509e-12
5.17787e-12
6.3875e-12
7.9294e-12
8.1879e-12
8.06274e-12
7.57954e-12
7.00301e-12
6.66397e-12
7.67863e-12
1.20034e-11
3.27517e-11
2.00507e-10
1.52694e-09
1.09391e-08
7.0057e-08
3.95129e-07
1.94575e-06
8.41578e-06
3.25327e-05
0.000114994
0.000373697
0.00108657
0.00272019
0.00567859
0.00960128
0.013389
0.016254
0.0180577
1.46275e-08
5.53112e-08
4.75357e-08
5.40197e-08
4.00017e-08
2.45946e-08
1.20803e-08
5.3122e-09
2.78387e-09
1.6401e-09
1.01282e-09
6.08273e-10
3.71993e-10
2.31248e-10
1.43282e-10
8.91017e-11
5.54832e-11
3.49345e-11
2.21733e-11
1.46191e-11
1.00097e-11
7.31751e-12
5.76374e-12
4.97289e-12
5.67326e-12
7.59452e-12
8.21812e-12
8.16829e-12
7.69171e-12
7.07738e-12
6.65407e-12
7.12755e-12
1.04185e-11
2.30668e-11
1.26648e-10
9.95346e-10
7.58318e-09
5.14491e-08
3.05906e-07
1.57615e-06
7.07079e-06
2.80948e-05
0.000101438
0.000336755
0.00100506
0.00258838
0.0055508
0.00959204
0.0135707
0.016662
0.0185949
0.019517
1.40205e-08
5.32276e-08
4.53808e-08
5.19013e-08
3.90916e-08
2.4377e-08
1.20041e-08
5.285e-09
2.78894e-09
1.64821e-09
1.01691e-09
6.09502e-10
3.72605e-10
2.31638e-10
1.43554e-10
8.93856e-11
5.56884e-11
3.5073e-11
2.22559e-11
1.4665e-11
1.00385e-11
7.34166e-12
5.77579e-12
4.9353e-12
5.11244e-12
7.03053e-12
8.21879e-12
8.25556e-12
7.81073e-12
7.16602e-12
6.66676e-12
6.80472e-12
9.25656e-12
1.72238e-11
8.00566e-11
6.37267e-10
5.17836e-09
3.73989e-08
2.35147e-07
1.27147e-06
5.9262e-06
2.42332e-05
8.93866e-05
0.000302831
0.000926995
0.0024563
0.00541619
0.00957112
0.0137509
0.0170433
0.0191736
0.0201889
0.020347
1.34065e-08
5.09814e-08
4.32885e-08
5.00087e-08
3.83046e-08
2.41419e-08
1.1886e-08
5.25063e-09
2.79699e-09
1.65764e-09
1.02171e-09
6.11448e-10
3.73612e-10
2.32087e-10
1.43776e-10
8.95813e-11
5.58656e-11
3.51975e-11
2.23338e-11
1.47132e-11
1.00668e-11
7.36664e-12
5.79267e-12
4.93977e-12
4.76559e-12
6.32776e-12
8.13936e-12
8.32231e-12
7.93576e-12
7.26341e-12
6.71173e-12
6.64939e-12
8.36851e-12
1.37487e-11
5.10989e-11
4.00666e-10
3.47874e-09
2.68806e-08
1.79456e-07
1.02143e-06
4.95759e-06
2.08836e-05
7.87281e-05
0.000271903
0.000852682
0.00232477
0.00527395
0.00953925
0.0139238
0.0174342
0.0197351
0.0209045
0.0211219
0.0206666
1.27941e-08
4.88563e-08
4.14281e-08
4.83353e-08
3.76215e-08
2.38794e-08
1.17248e-08
5.20881e-09
2.80445e-09
1.66796e-09
1.02687e-09
6.13852e-10
3.75107e-10
2.32771e-10
1.44036e-10
8.97411e-11
5.60258e-11
3.5314e-11
2.24118e-11
1.47656e-11
1.00969e-11
7.39155e-12
5.81369e-12
4.95068e-12
4.57382e-12
5.60654e-12
7.86735e-12
8.37866e-12
8.0621e-12
7.36649e-12
6.77392e-12
6.58909e-12
7.70543e-12
1.16261e-11
3.34217e-11
2.47626e-10
2.29412e-09
1.90864e-08
1.35889e-07
8.17363e-07
4.14124e-06
1.79919e-05
6.93361e-05
0.000243915
0.000782481
0.00219444
0.00512488
0.00949614
0.0140902
0.017829
0.0203176
0.021613
0.0219383
0.0215142
0.0205954
1.219e-08
4.68066e-08
3.97619e-08
4.68912e-08
3.70185e-08
2.36048e-08
1.15323e-08
5.1566e-09
2.81177e-09
1.67735e-09
1.03205e-09
6.16445e-10
3.76878e-10
2.33747e-10
1.44427e-10
8.99257e-11
5.61751e-11
3.54278e-11
2.24906e-11
1.48207e-11
1.0132e-11
7.41657e-12
5.83677e-12
4.96529e-12
4.53707e-12
5.02493e-12
7.32238e-12
8.41966e-12
8.17818e-12
7.47662e-12
6.8511e-12
6.57554e-12
7.25079e-12
1.02491e-11
2.29559e-11
1.51117e-10
1.48247e-09
1.33634e-08
1.02066e-07
6.51405e-07
3.45651e-06
1.55048e-05
6.10994e-05
0.000218736
0.000716687
0.00206612
0.00496968
0.00944169
0.0142503
0.0182288
0.0209165
0.0223535
0.0227574
0.022398
0.0214899
0.0202404
1.15854e-08
4.47738e-08
3.82523e-08
4.56301e-08
3.64843e-08
2.33171e-08
1.13295e-08
5.10166e-09
2.81687e-09
1.68513e-09
1.03611e-09
6.19065e-10
3.78759e-10
2.34851e-10
1.44985e-10
9.01719e-11
5.63221e-11
3.5538e-11
2.25709e-11
1.48775e-11
1.01702e-11
7.44202e-12
5.85941e-12
4.98315e-12
4.54047e-12
4.64749e-12
6.6358e-12
8.40173e-12
8.27613e-12
7.59608e-12
6.93729e-12
6.60285e-12
6.97835e-12
9.27897e-12
1.69465e-11
9.17707e-11
9.36978e-10
9.20816e-09
7.59684e-08
5.17086e-07
2.88368e-06
1.33773e-05
5.39024e-05
0.000196243
0.000655475
0.00194064
0.0048094
0.00937586
0.0144035
0.0186327
0.0215331
0.0231219
0.0236173
0.0232929
0.0224128
0.02116
0.0196887
1.09672e-08
4.26354e-08
3.68858e-08
4.45683e-08
3.60044e-08
2.30084e-08
1.11205e-08
5.05484e-09
2.82214e-09
1.69039e-09
1.03872e-09
6.21052e-10
3.80622e-10
2.35977e-10
1.45601e-10
9.04945e-11
5.64787e-11
3.56404e-11
2.26508e-11
1.49345e-11
1.02098e-11
7.46775e-12
5.88028e-12
5.00317e-12
4.55025e-12
4.4329e-12
5.89481e-12
8.23554e-12
8.36147e-12
7.72622e-12
7.02993e-12
6.66197e-12
6.84139e-12
8.5509e-12
1.35205e-11
5.627e-11
5.7788e-10
6.22902e-09
5.59804e-08
4.08742e-07
2.40603e-06
1.15635e-05
4.76487e-05
0.000176246
0.000599033
0.00181877
0.00464512
0.00929875
0.014549
0.0190402
0.0221672
0.0239206
0.0245155
0.0242358
0.0233538
0.0220997
0.0206169
0.0190087
1.03304e-08
4.03368e-08
3.564e-08
4.37138e-08
3.55575e-08
2.26744e-08
1.09116e-08
5.01712e-09
2.83033e-09
1.69418e-09
1.03981e-09
6.22383e-10
3.82119e-10
2.37051e-10
1.46214e-10
9.08539e-11
5.66622e-11
3.5735e-11
2.2724e-11
1.49897e-11
1.02482e-11
7.49389e-12
5.89936e-12
5.02284e-12
4.56194e-12
4.37004e-12
5.25167e-12
7.77657e-12
8.44183e-12
7.86027e-12
7.12832e-12
6.74043e-12
6.78292e-12
8.00551e-12
1.15726e-11
3.54573e-11
3.47599e-10
4.1231e-09
4.0784e-08
3.21731e-07
2.0083e-06
1.00236e-05
4.22422e-05
0.000158586
0.000547371
0.00170144
0.0044779
0.00921083
0.0146859
0.0194508
0.0228189
0.0247501
0.0254549
0.0252252
0.0243478
0.023063
0.0215561
0.0199321
0.0182518
9.68122e-09
3.79934e-08
3.45368e-08
4.30254e-08
3.51102e-08
2.22924e-08
1.07044e-08
4.99076e-09
2.84269e-09
1.69799e-09
1.04019e-09
6.22879e-10
3.83257e-10
2.3792e-10
1.46774e-10
9.12099e-11
5.68496e-11
3.58249e-11
2.27879e-11
1.50387e-11
1.02834e-11
7.52066e-12
5.91697e-12
5.0406e-12
4.5769e-12
4.36558e-12
4.79732e-12
7.15503e-12
8.48993e-12
7.98781e-12
7.23295e-12
6.82777e-12
6.76302e-12
7.63058e-12
1.03705e-11
2.36472e-11
2.04197e-10
2.66243e-09
2.93086e-08
2.5212e-07
1.67795e-06
8.71808e-06
3.75988e-05
0.000143083
0.000500467
0.0015895
0.00430908
0.0091126
0.0148133
0.0198634
0.0234881
0.0256112
0.0264369
0.0262645
0.0253948
0.0240827
0.0225232
0.0208586
0.0191606
0.0174559
9.06789e-09
3.57025e-08
3.35844e-08
4.24519e-08
3.46274e-08
2.18425e-08
1.04938e-08
4.97112e-09
2.85763e-09
1.70225e-09
1.04076e-09
6.23111e-10
3.83987e-10
2.38578e-10
1.4724e-10
9.15311e-11
5.70234e-11
3.59025e-11
2.2834e-11
1.50779e-11
1.03144e-11
7.54688e-12
5.93358e-12
5.05629e-12
4.59454e-12
4.37399e-12
4.52188e-12
6.43719e-12
8.44617e-12
8.09993e-12
7.34602e-12
6.91853e-12
6.80307e-12
7.40317e-12
9.53483e-12
1.71887e-11
1.18021e-10
1.6706e-09
2.07228e-08
1.96546e-07
1.40441e-06
7.61333e-06
3.36294e-05
0.000129594
0.000458201
0.00148385
0.00413992
0.00900489
0.0149304
0.0202771
0.0241746
0.0265048
0.0274631
0.0273564
0.0264982
0.0251593
0.0235485
0.0218157
0.020065
0.0183424
0.0166485
8.48166e-09
3.35941e-08
3.2801e-08
4.1951e-08
3.40972e-08
2.13328e-08
1.02811e-08
4.95587e-09
2.87296e-09
1.70685e-09
1.04194e-09
6.23709e-10
3.84635e-10
2.39021e-10
1.4759e-10
9.17982e-11
5.71834e-11
3.59704e-11
2.2874e-11
1.51069e-11
1.03409e-11
7.57172e-12
5.95016e-12
5.07057e-12
4.61231e-12
4.3856e-12
4.39452e-12
5.74492e-12
8.19495e-12
8.19922e-12
7.47181e-12
7.01306e-12
6.87893e-12
7.28108e-12
8.89649e-12
1.37964e-11
6.81865e-11
1.01501e-09
1.4361e-08
1.52296e-07
1.17838e-06
6.68047e-06
3.02515e-05
0.000117962
0.000420496
0.001385
0.00397204
0.00888881
0.0150365
0.0206906
0.0248777
0.0274312
0.0285352
0.0285024
0.0276614
0.0262974
0.0246336
0.0228319
0.0210023
0.0192187
0.0175072
0.01585
7.92702e-09
3.17034e-08
3.21428e-08
4.14643e-08
3.352e-08
2.07666e-08
1.0078e-08
4.9442e-09
2.88708e-09
1.71092e-09
1.04379e-09
6.24806e-10
3.85462e-10
2.39436e-10
1.47882e-10
9.20164e-11
5.73307e-11
3.60459e-11
2.29131e-11
1.51283e-11
1.03643e-11
7.5948e-12
5.96756e-12
5.0846e-12
4.62883e-12
4.40215e-12
4.36982e-12
5.18855e-12
7.68083e-12
8.29509e-12
7.61242e-12
7.11108e-12
6.97205e-12
7.22235e-12
8.40965e-12
1.19907e-11
4.05486e-11
5.94435e-10
9.71394e-09
1.17087e-07
9.92242e-07
5.89483e-06
2.73858e-05
0.000108043
0.000387207
0.00129323
0.00380695
0.00876566
0.0151307
0.0211023
0.0255968
0.0283904
0.0296543
0.0297059
0.028887
0.0275005
0.0257831
0.0239093
0.0219985
0.0201292
0.0183511
0.0166766
0.0150752
7.42455e-09
3.00333e-08
3.15862e-08
4.0944e-08
3.28836e-08
2.01527e-08
9.88359e-09
4.9353e-09
2.8987e-09
1.71399e-09
1.04574e-09
6.26338e-10
3.86541e-10
2.40004e-10
1.48203e-10
9.2227e-11
5.7464e-11
3.61283e-11
2.29585e-11
1.5149e-11
1.03862e-11
7.61642e-12
5.98492e-12
5.09946e-12
4.64374e-12
4.42203e-12
4.37399e-12
4.80288e-12
7.06304e-12
8.32832e-12
7.75981e-12
7.21263e-12
7.07563e-12
7.22223e-12
8.06875e-12
1.09468e-11
2.57712e-11
3.3476e-10
6.37749e-09
8.91333e-08
8.39138e-07
5.23715e-06
2.49595e-05
9.96726e-05
0.000358252
0.00120876
0.00364641
0.0086371
0.0152128
0.0215105
0.0263305
0.0293828
0.0308215
0.0309682
0.0301786
0.0287716
0.0270009
0.0250527
0.0230566
0.0210979
0.0192299
0.0174855
0.0158668
0.0143355
6.97273e-09
2.85833e-08
3.11295e-08
4.03646e-08
3.21783e-08
1.95292e-08
9.69566e-09
4.92913e-09
2.90695e-09
1.7159e-09
1.04757e-09
6.27873e-10
3.87717e-10
2.40674e-10
1.48582e-10
9.24505e-11
5.76035e-11
3.6211e-11
2.30138e-11
1.51724e-11
1.04073e-11
7.63679e-12
6.00168e-12
5.11623e-12
4.65754e-12
4.44262e-12
4.3851e-12
4.56035e-12
6.40161e-12
8.24267e-12
7.90003e-12
7.31723e-12
7.18336e-12
7.28034e-12
7.85301e-12
1.02075e-11
1.82995e-11
1.81629e-10
4.0393e-09
6.69742e-08
7.13482e-07
4.69014e-06
2.29181e-05
9.26623e-05
0.000333542
0.00113197
0.00349167
0.00850365
0.0152828
0.0219134
0.0270777
0.0304076
0.0320379
0.0322916
0.0315387
0.0301151
0.0282909
0.0262664
0.0241809
0.0221278
0.0201656
0.0183291
0.0166387
0.0150897
0.0136402
6.57227e-09
2.74091e-08
3.0797e-08
3.96755e-08
3.13972e-08
1.89099e-08
9.52035e-09
4.92068e-09
2.9119e-09
1.71725e-09
1.04915e-09
6.29353e-10
3.88806e-10
2.41336e-10
1.48993e-10
9.26743e-11
5.77447e-11
3.62923e-11
2.30756e-11
1.52049e-11
1.04286e-11
7.65422e-12
6.017e-12
5.13414e-12
4.67055e-12
4.46085e-12
4.39904e-12
4.46148e-12
5.79564e-12
7.95825e-12
8.02141e-12
7.43079e-12
7.29444e-12
7.37012e-12
7.7258e-12
9.60751e-12
1.47704e-11
9.63928e-11
2.44759e-09
4.94808e-08
6.10472e-07
4.23927e-06
2.12176e-05
8.68401e-05
0.000312886
0.00106339
0.00334383
0.00836654
0.015342
0.0223093
0.0278367
0.0314643
0.0333035
0.0336781
0.0329701
0.0315342
0.0296573
0.0275543
0.0253763
0.0232238
0.0211618
0.0192282
0.0174451
0.0158235
0.014355
0.0129971
6.20831e-09
2.64678e-08
3.05973e-08
3.88698e-08
3.0527e-08
1.83075e-08
9.36193e-09
4.90801e-09
2.91338e-09
1.71826e-09
1.05073e-09
6.3077e-10
3.89808e-10
2.41935e-10
1.49388e-10
9.29114e-11
5.78842e-11
3.63694e-11
2.3137e-11
1.52419e-11
1.0451e-11
7.66981e-12
6.02994e-12
5.15263e-12
4.68295e-12
4.4762e-12
4.41884e-12
4.43984e-12
5.3149e-12
7.47497e-12
8.11968e-12
7.56493e-12
7.40893e-12
7.48578e-12
7.65938e-12
9.11779e-12
1.31247e-11
5.21197e-11
1.40426e-09
3.5732e-08
5.26425e-07
3.87096e-06
1.98272e-05
8.20545e-05
0.000295987
0.00100365
0.0032039
0.00822776
0.0153915
0.0226988
0.0286062
0.0325512
0.0346189
0.0351291
0.0344762
0.0330325
0.0311044
0.0289215
0.026647
0.0243909
0.0222231
0.0201867
0.0183053
0.0165912
0.01505
0.0136707
0.0124138
5.86105e-09
2.56498e-08
3.04516e-08
3.79504e-08
2.95681e-08
1.77432e-08
9.21679e-09
4.89363e-09
2.91161e-09
1.71918e-09
1.05225e-09
6.32128e-10
3.90738e-10
2.42438e-10
1.4973e-10
9.31318e-11
5.80212e-11
3.64418e-11
2.31935e-11
1.52794e-11
1.04755e-11
7.68402e-12
6.04178e-12
5.1703e-12
4.69546e-12
4.48966e-12
4.44155e-12
4.44434e-12
4.97126e-12
6.92779e-12
8.12544e-12
7.71965e-12
7.52676e-12
7.61099e-12
7.66403e-12
8.75747e-12
1.22435e-11
3.08377e-11
7.52735e-10
2.50153e-08
4.5837e-07
3.57427e-06
1.87181e-05
7.82089e-05
0.000282423
0.000953381
0.00307348
0.00808845
0.0154333
0.0230826
0.0293835
0.0336668
0.0359832
0.0366458
0.0360589
0.0346142
0.0326362
0.0303724
0.0279982
0.0256331
0.0233544
0.0212087
0.019223
0.0174107
0.0157779
0.0143264
0.0130445
0.0118978
5.51156e-09
2.48346e-08
3.0285e-08
3.69445e-08
2.85374e-08
1.72237e-08
9.0825e-09
4.87631e-09
2.90808e-09
1.71933e-09
1.05352e-09
6.33433e-10
3.91638e-10
2.42919e-10
1.50017e-10
9.3326e-11
5.81573e-11
3.65137e-11
2.32449e-11
1.5313e-11
1.05006e-11
7.69817e-12
6.05255e-12
5.18602e-12
4.70838e-12
4.50273e-12
4.46242e-12
4.45853e-12
4.74316e-12
6.37161e-12
8.00193e-12
7.87829e-12
7.64739e-12
7.74282e-12
7.70776e-12
8.52378e-12
1.15649e-11
2.14226e-11
3.72392e-10
1.67709e-08
4.04096e-07
3.34016e-06
1.7865e-05
7.52428e-05
0.000271798
0.000912582
0.00295551
0.00794845
0.0154688
0.0234601
0.0301664
0.0348078
0.0373949
0.0382283
0.0377213
0.0362825
0.034258
0.0319118
0.0294347
0.0269561
0.0245603
0.0222994
0.0202027
0.018286
0.0165557
0.0150137
0.0136605
0.0124838
0.0114572
5.15277e-09
2.38689e-08
2.99997e-08
3.58704e-08
2.74749e-08
1.67347e-08
8.95535e-09
4.8554e-09
2.904e-09
1.71894e-09
1.05426e-09
6.34547e-10
3.92556e-10
2.43425e-10
1.50276e-10
9.34856e-11
5.82815e-11
3.65885e-11
2.32988e-11
1.53426e-11
1.05253e-11
7.7136e-12
6.06285e-12
5.20006e-12
4.72183e-12
4.51639e-12
4.47963e-12
4.48575e-12
4.65807e-12
5.87064e-12
7.70726e-12
8.0258e-12
7.77409e-12
7.88031e-12
7.79545e-12
8.38519e-12
1.09401e-11
1.78839e-11
1.72078e-10
1.05537e-08
3.61917e-07
3.16238e-06
1.72434e-05
7.31166e-05
0.000263834
0.000880641
0.00285337
0.00780826
0.015497
0.0238306
0.0309514
0.0359704
0.0388502
0.0398755
0.0394631
0.0380408
0.0359731
0.0335453
0.0309617
0.0283649
0.0258462
0.0234632
0.0212494
0.0192215
0.0173877
0.0157494
0.0143063
0.0130593
0.0119963
0.0111007
4.75532e-09
2.27034e-08
2.95377e-08
3.47296e-08
2.64158e-08
1.62713e-08
8.82598e-09
4.83096e-09
2.90031e-09
1.71885e-09
1.05431e-09
6.35277e-10
3.93363e-10