/*--------------------------------*- C++ -*----------------------------------*\
| =========                 |                                                 |
| \\      /  F ield         | OpenFOAM: The Open Source CFD Toolbox           |
|  \\    /   O peration     | Version:  v2012                                 |
|   \\  /    A nd           | Website:  www.openfoam.com                      |
|    \\/     M anipulation  |                                                 |
\*---------------------------------------------------------------------------*/
FoamFile
{
    version     2.0;
    format      ascii;
    class       volScalarField;
    location    "12000";
    object      nut;
}
// * * * * * * * * * * * * * * * * * * * * * * * * * * * * * * * * * * * * * //

dimensions      [0 2 -1 0 0 0 0];


internalField   nonuniform List<scalar> 
27324
(
9.84923e-07
9.50775e-07
2.79289e-06
9.17741e-07
2.62514e-06
2.5481e-06
8.82126e-07
2.44786e-06
2.36294e-06
1.6311e-06
8.45566e-07
2.25852e-06
2.17551e-06
1.48832e-06
8.60584e-07
8.06797e-07
2.06214e-06
1.98053e-06
1.34864e-06
7.68057e-07
4.17787e-07
7.66294e-07
1.8535e-06
1.78122e-06
1.20936e-06
6.80098e-07
3.66162e-07
1.95636e-07
7.25054e-07
1.6377e-06
1.57675e-06
1.0731e-06
5.97555e-07
3.18771e-07
1.70076e-07
9.30011e-08
6.83028e-07
1.42083e-06
1.37169e-06
9.49603e-07
5.22257e-07
2.7685e-07
1.47351e-07
8.15132e-08
4.79121e-08
6.34246e-07
1.20427e-06
1.17162e-06
8.40356e-07
4.65679e-07
2.40625e-07
1.28103e-07
7.15618e-08
4.31635e-08
2.75725e-08
5.53661e-07
9.78835e-07
9.80707e-07
7.41396e-07
4.24952e-07
2.1654e-07
1.1197e-07
6.3413e-08
3.91425e-08
2.55657e-08
1.70354e-08
4.24257e-07
7.51735e-07
7.9933e-07
6.49362e-07
3.91097e-07
2.01613e-07
1.01772e-07
5.67701e-08
3.59351e-08
2.38401e-08
1.60354e-08
1.08115e-08
2.41341e-07
5.69816e-07
6.4196e-07
5.66306e-07
3.57712e-07
1.90071e-07
9.59112e-08
5.268e-08
3.33777e-08
2.24335e-08
1.51269e-08
1.02347e-08
6.86908e-09
1.60566e-07
4.07496e-07
5.1434e-07
4.90482e-07
3.29675e-07
1.78054e-07
9.16656e-08
5.04446e-08
3.18108e-08
2.12829e-08
1.4355e-08
9.68654e-09
6.50828e-09
4.35589e-09
1.43071e-07
3.44135e-07
3.97074e-07
4.27476e-07
3.00732e-07
1.69497e-07
8.73722e-08
4.88706e-08
3.09873e-08
2.05225e-08
1.37059e-08
9.21423e-09
6.15473e-09
4.13075e-09
2.74084e-09
1.38128e-07
3.28471e-07
3.38053e-07
3.79067e-07
2.87347e-07
1.60812e-07
8.44274e-08
4.73998e-08
3.04058e-08
2.01153e-08
1.3237e-08
8.82202e-09
5.84659e-09
3.9077e-09
2.59988e-09
1.73825e-09
1.35286e-07
3.21732e-07
3.19573e-07
3.55966e-07
2.84712e-07
1.64585e-07
8.24654e-08
4.61551e-08
2.99008e-08
1.98396e-08
1.29704e-08
8.51982e-09
5.59684e-09
3.71081e-09
2.45902e-09
1.65369e-09
1.11901e-09
1.32785e-07
3.16494e-07
3.10279e-07
3.44979e-07
2.83109e-07
1.76259e-07
8.76762e-08
4.59585e-08
2.91103e-08
1.95854e-08
1.28047e-08
8.33224e-09
5.39413e-09
3.55719e-09
2.33063e-09
1.56993e-09
1.06926e-09
7.48179e-10
1.30146e-07
3.10898e-07
3.02124e-07
3.3517e-07
2.79095e-07
1.80749e-07
9.77003e-08
4.9357e-08
2.95706e-08
1.91295e-08
1.26059e-08
8.23259e-09
5.25344e-09
3.43076e-09
2.22936e-09
1.49127e-09
1.02081e-09
7.19516e-10
5.28792e-10
1.27265e-07
3.04538e-07
2.93456e-07
3.2544e-07
2.71969e-07
1.80798e-07
1.01325e-07
5.51094e-08
3.23619e-08
1.98559e-08
1.24802e-08
8.0177e-09
5.17414e-09
3.33105e-09
2.14601e-09
1.42617e-09
9.72483e-10
6.92404e-10
5.12464e-10
3.98199e-10
1.24129e-07
2.97189e-07
2.84563e-07
3.1625e-07
2.64548e-07
1.77566e-07
1.01943e-07
5.80742e-08
3.66411e-08
2.22667e-08
1.32911e-08
8.08513e-09
5.06427e-09
3.21551e-09
2.05871e-09
1.37062e-09
9.24693e-10
6.58829e-10
4.95377e-10
3.82222e-10
3.22793e-10
1.20789e-07
2.88939e-07
2.75587e-07
3.07618e-07
2.57678e-07
1.73772e-07
1.00751e-07
5.76817e-08
3.93731e-08
2.58252e-08
1.52355e-08
8.83021e-09
5.24188e-09
3.19207e-09
2.00491e-09
1.29031e-09
8.69907e-10
6.14956e-10
4.63505e-10
3.58122e-10
3.01801e-10
2.61855e-10
1.17347e-07
2.80054e-07
2.66894e-07
2.9953e-07
2.51432e-07
1.69753e-07
9.91425e-08
5.72547e-08
3.85405e-08
2.86189e-08
1.80041e-08
1.02636e-08
5.85371e-09
3.39553e-09
2.04276e-09
1.27405e-09
8.33218e-10
5.78639e-10
4.26562e-10
3.34355e-10
2.79083e-10
2.49816e-10
2.42481e-10
1.1392e-07
2.70964e-07
2.58739e-07
2.92139e-07
2.45566e-07
1.65701e-07
9.7042e-08
5.66882e-08
3.82723e-08
2.86082e-08
2.05968e-08
1.21909e-08
6.84859e-09
3.84708e-09
2.21992e-09
1.3296e-09
8.40212e-10
5.69038e-10
4.13284e-10
3.21552e-10
2.67837e-10
2.3742e-10
2.29899e-10
2.50858e-10
1.10619e-07
2.62101e-07
2.51304e-07
2.85388e-07
2.40041e-07
1.61655e-07
9.47082e-08
5.58196e-08
3.80704e-08
2.81947e-08
2.12727e-08
1.41469e-08
8.19803e-09
4.51732e-09
2.51952e-09
1.46037e-09
8.90447e-10
5.84901e-10
4.1556e-10
3.19113e-10
2.63998e-10
2.34087e-10
2.21207e-10
2.37017e-10
2.72361e-10
1.07542e-07
2.53918e-07
2.44674e-07
2.79243e-07
2.34715e-07
1.57654e-07
9.2319e-08
5.48132e-08
3.77568e-08
2.80506e-08
2.07557e-08
1.5091e-08
9.58609e-09
5.37196e-09
2.93481e-09
1.65797e-09
9.79356e-10
6.22655e-10
4.3122e-10
3.25947e-10
2.67268e-10
2.35495e-10
2.20008e-10
2.23868e-10
2.57363e-10
3.03917e-10
1.04765e-07
2.4679e-07
2.388e-07
2.7351e-07
2.29381e-07
1.53783e-07
8.99766e-08
5.37955e-08
3.73663e-08
2.78699e-08
2.0645e-08
1.49306e-08
1.05881e-08
6.26378e-09
3.43124e-09
1.89777e-09
1.09118e-09
6.73227e-10
4.53923e-10
3.36494e-10
2.72401e-10
2.37771e-10
2.20373e-10
2.16304e-10
2.41131e-10
2.86793e-10
3.78092e-10
1.02297e-07
2.40821e-07
2.33495e-07
2.67864e-07
2.23863e-07
1.49954e-07
8.78736e-08
5.28288e-08
3.6964e-08
2.76479e-08
2.05426e-08
1.47649e-08
1.07223e-08
7.08669e-09
3.98588e-09
2.17883e-09
1.22296e-09
7.33468e-10
4.80504e-10
3.48394e-10
2.7806e-10
2.40473e-10
2.21314e-10
2.13538e-10
2.27561e-10
2.68558e-10
3.37795e-10
6.09247e-10
1.00062e-07
2.3577e-07
2.28446e-07
2.61981e-07
2.18064e-07
1.46141e-07
8.59403e-08
5.20229e-08
3.65731e-08
2.74188e-08
2.04205e-08
1.47033e-08
1.05007e-08
7.44247e-09
4.53953e-09
2.49937e-09
1.37629e-09
8.04155e-10
5.1177e-10
3.61848e-10
2.84112e-10
2.4337e-10
2.22472e-10
2.1297e-10
2.16894e-10
2.51537e-10
3.08918e-10
4.90147e-10
1.37226e-09
9.79301e-08
2.31193e-07
2.23321e-07
2.55654e-07
2.1204e-07
1.42378e-07
8.41204e-08
5.13226e-08
3.62453e-08
2.71929e-08
2.02958e-08
1.46379e-08
1.04387e-08
7.36521e-09
4.93333e-09
2.83007e-09
1.55309e-09
8.85906e-10
5.48667e-10
3.77468e-10
2.90748e-10
2.46484e-10
2.23797e-10
2.13152e-10
2.11431e-10
2.35793e-10
2.86833e-10
4.10109e-10
1.00153e-09
3.94089e-09
9.56854e-08
2.26597e-07
2.17924e-07
2.48843e-07
2.05991e-07
1.38673e-07
8.23878e-08
5.06825e-08
3.59663e-08
2.69976e-08
2.01771e-08
1.45719e-08
1.03979e-08
7.26964e-09
4.99295e-09
3.13266e-09
1.75116e-09
9.80182e-10
5.91407e-10
3.95903e-10
2.9824e-10
2.4983e-10
2.25391e-10
2.13612e-10
2.09534e-10
2.22645e-10
2.66759e-10
3.56108e-10
7.49633e-10
2.75715e-09
1.26558e-08
9.32137e-08
2.21574e-07
2.12231e-07
2.41756e-07
2.00066e-07
1.35095e-07
8.07217e-08
5.00788e-08
3.5719e-08
2.68268e-08
2.00811e-08
1.45099e-08
1.03572e-08
7.23708e-09
4.90593e-09
3.28007e-09
1.93847e-09
1.08722e-09
6.40078e-10
4.17531e-10
3.0691e-10
2.53445e-10
2.27152e-10
2.14243e-10
2.09083e-10
2.13152e-10
2.48459e-10
3.1867e-10
5.79539e-10
1.9379e-09
8.83933e-09
4.20597e-08
9.04919e-08
2.15819e-07
2.06111e-07
2.34712e-07
1.94389e-07
1.31711e-07
7.91036e-08
4.94997e-08
3.5489e-08
2.66704e-08
2.00024e-08
1.44638e-08
1.03198e-08
7.21006e-09
4.86105e-09
3.25946e-09
2.08195e-09
1.19308e-09
6.95019e-10
4.42066e-10
3.17097e-10
2.57439e-10
2.29008e-10
2.15062e-10
2.09131e-10
2.08743e-10
2.32476e-10
2.90935e-10
4.65558e-10
1.37494e-09
6.13871e-09
2.98393e-08
1.39024e-07
8.75668e-08
2.0923e-07
1.99844e-07
2.28066e-07
1.89062e-07
1.28537e-07
7.75864e-08
4.89394e-08
3.52647e-08
2.65197e-08
1.99341e-08
1.44327e-08
1.02917e-08
7.18517e-09
4.84191e-09
3.19752e-09
2.12652e-09
1.29005e-09
7.54762e-10
4.69682e-10
3.29007e-10
2.62011e-10
2.30936e-10
2.16067e-10
2.09382e-10
2.07225e-10
2.19513e-10
2.6785e-10
3.89162e-10
9.91975e-10
4.24399e-09
2.09677e-08
1.0078e-07
4.48558e-07
8.45732e-08
2.02145e-07
1.93879e-07
2.2229e-07
1.84225e-07
1.25545e-07
7.62002e-08
4.84289e-08
3.50386e-08
2.63698e-08
1.98716e-08
1.44119e-08
1.02739e-08
7.16563e-09
4.8253e-09
3.17729e-09
2.09697e-09
1.35427e-09
8.09397e-10
5.00507e-10
3.42361e-10
2.67384e-10
2.32996e-10
2.17117e-10
2.09784e-10
2.06823e-10
2.10809e-10
2.47824e-10
3.37413e-10
7.33914e-10
2.92898e-09
1.45917e-08
7.2291e-08
3.32496e-07
1.41188e-06
8.16861e-08
1.95008e-07
1.88496e-07
2.17435e-07
1.79769e-07
1.22643e-07
7.4969e-08
4.79853e-08
3.48202e-08
2.62192e-08
1.98135e-08
1.43968e-08
1.02637e-08
7.15237e-09
4.81138e-09
3.16639e-09
2.05752e-09
1.36192e-09
8.56333e-10
5.33565e-10
3.57196e-10
2.73685e-10
2.35295e-10
2.18183e-10
2.10346e-10
2.06835e-10
2.06768e-10
2.31087e-10
3.00905e-10
5.61786e-10
2.02632e-09
1.00653e-08
5.1279e-08
2.43997e-07
1.07051e-06
4.32687e-06
7.90768e-08
1.8828e-07
1.83792e-07
2.13296e-07
1.75399e-07
1.19736e-07
7.38428e-08
4.76233e-08
3.46173e-08
2.60778e-08
1.97587e-08
1.43847e-08
1.02576e-08
7.14456e-09
4.80076e-09
3.15666e-09
2.04827e-09
1.33949e-09
8.81395e-10
5.59732e-10
3.73478e-10
2.80601e-10
2.37984e-10
2.19237e-10
2.11058e-10
2.07063e-10
2.0541e-10
2.17734e-10
2.73012e-10
4.47494e-10
1.41378e-09
6.88873e-09
3.5972e-08
1.77089e-07
8.04055e-07
3.35687e-06
1.29419e-05
7.67388e-08
1.82217e-07
1.79769e-07
2.09473e-07
1.71001e-07
1.16789e-07
7.27846e-08
4.73218e-08
3.44422e-08
2.59529e-08
1.97124e-08
1.43749e-08
1.02535e-08
7.13996e-09
4.79383e-09
3.14823e-09
2.04149e-09
1.3173e-09
8.78015e-10
5.80669e-10
3.90354e-10
2.88156e-10
2.41149e-10
2.20345e-10
2.11768e-10
2.07452e-10
2.05113e-10
2.08736e-10
2.49891e-10
3.71621e-10
1.00228e-09
4.68745e-09
2.49505e-08
1.27138e-07
5.97427e-07
2.58269e-06
1.02742e-05
3.78088e-05
7.46807e-08
1.77176e-07
1.76225e-07
2.05565e-07
1.66486e-07
1.13814e-07
7.18177e-08
4.70496e-08
3.42881e-08
2.58504e-08
1.96792e-08
1.43711e-08
1.02511e-08
7.13707e-09
4.79017e-09
3.14216e-09
2.03517e-09
1.31207e-09
8.62079e-10
5.88888e-10
4.02488e-10
2.96285e-10
2.4459e-10
2.21615e-10
2.12448e-10
2.07994e-10
2.05223e-10
2.04332e-10
2.31398e-10
3.20314e-10
7.29285e-10
3.17733e-09
1.71236e-08
9.02347e-08
4.39336e-07
1.9666e-06
8.10118e-06
3.0693e-05
0.000107743
7.28109e-08
1.72962e-07
1.73044e-07
2.01404e-07
1.61792e-07
1.10902e-07
7.09324e-08
4.68073e-08
3.4146e-08
2.57755e-08
1.9664e-08
1.4376e-08
1.02523e-08
7.13556e-09
4.78797e-09
3.13833e-09
2.02996e-09
1.30831e-09
8.47335e-10
5.82788e-10
4.09995e-10
3.04635e-10
2.48272e-10
2.23155e-10
2.13097e-10
2.08658e-10
2.05516e-10
2.02766e-10
2.16866e-10
2.83973e-10
5.49725e-10
2.15546e-09
1.16365e-08
6.33001e-08
3.19613e-07
1.48318e-06
6.32741e-06
2.47888e-05
8.9332e-05
0.000298851
7.10282e-08
1.691e-07
1.69708e-07
1.96734e-07
1.56949e-07
1.08082e-07
7.01294e-08
4.65879e-08
3.4022e-08
2.57206e-08
1.96653e-08
1.43934e-08
1.02595e-08
7.13674e-09
4.78716e-09
3.13624e-09
2.02637e-09
1.3048e-09
8.43902e-10
5.71353e-10
4.09702e-10
3.10164e-10
2.52194e-10
2.24894e-10
2.13783e-10
2.0929e-10
2.05961e-10
2.02406e-10
2.06518e-10
2.56259e-10
4.32474e-10
1.47207e-09
7.83487e-09
4.38594e-08
2.30024e-07
1.10731e-06
4.90018e-06
1.98541e-05
7.38005e-05
0.000252731
0.000803397
6.92481e-08
1.65248e-07
1.66039e-07
1.91609e-07
1.52044e-07
1.0538e-07
6.93682e-08
4.63914e-08
3.391e-08
2.56831e-08
1.96801e-08
1.44211e-08
1.02754e-08
7.14249e-09
4.78848e-09
3.13579e-09
2.02435e-09
1.30233e-09
8.41632e-10
5.59836e-10
4.02371e-10
3.11136e-10
2.5624e-10
2.26617e-10
2.14593e-10
2.09871e-10
2.06572e-10
2.02532e-10
2.00958e-10
2.34619e-10
3.55835e-10
1.02094e-09
5.23244e-09
3.00305e-08
1.6369e-07
8.18417e-07
3.76038e-06
1.57896e-05
6.05376e-05
0.000213202
0.000692762
0.00206234
6.7388e-08
1.61195e-07
1.62093e-07
1.86262e-07
1.47269e-07
1.02797e-07
6.86396e-08
4.61941e-08
3.38087e-08
2.56598e-08
1.97064e-08
1.44564e-08
1.0299e-08
7.15424e-09
4.79285e-09
3.13707e-09
2.02397e-09
1.30104e-09
8.39907e-10
5.57533e-10
3.92828e-10
3.07153e-10
2.58904e-10
2.28394e-10
2.15554e-10
2.10397e-10
2.07293e-10
2.02876e-10
1.98633e-10
2.17957e-10
3.04761e-10
7.26878e-10
3.47425e-09
2.03132e-08
1.15158e-07
5.98588e-07
2.85946e-06
1.24605e-05
4.93828e-05
0.000178762
0.000596212
0.00181698
0.00486941
6.53665e-08
1.57006e-07
1.58026e-07
1.80855e-07
1.4265e-07
1.00382e-07
6.78775e-08
4.59924e-08
3.37024e-08
2.56508e-08
1.97412e-08
1.44985e-08
1.03287e-08
7.17176e-09
4.801e-09
3.1403e-09
2.02492e-09
1.30104e-09
8.38756e-10
5.56516e-10
3.84761e-10
2.98927e-10
2.56981e-10
2.30159e-10
2.165e-10
2.10935e-10
2.07982e-10
2.0339e-10
1.97971e-10
2.05427e-10
2.69179e-10
5.37384e-10
2.3037e-09
1.35788e-08
8.0027e-08
4.33224e-07
2.15375e-06
9.75741e-06
4.00358e-05
0.000149246
0.000510248
0.00159762
0.00440287
0.00999087
6.32468e-08
1.52628e-07
1.53976e-07
1.75448e-07
1.38208e-07
9.80743e-08
6.70836e-08
4.57297e-08
3.35895e-08
2.56448e-08
1.97848e-08
1.45441e-08
1.03635e-08
7.19346e-09
4.81267e-09
3.14586e-09
2.02721e-09
1.30214e-09
8.38435e-10
5.55942e-10
3.82417e-10
2.89721e-10
2.51802e-10
2.31504e-10
2.17319e-10
2.11553e-10
2.08623e-10
2.04075e-10
1.9799e-10
1.97756e-10
2.42724e-10
4.16543e-10
1.53416e-09
8.97781e-09
5.4909e-08
3.10085e-07
1.60684e-06
7.57887e-06
3.22593e-05
0.000124015
0.000435139
0.00139676
0.00397282
0.00929898
0.0173265
6.11581e-08
1.48463e-07
1.50156e-07
1.70081e-07
1.33921e-07
9.59349e-08
6.62864e-08
4.54045e-08
3.34467e-08
2.56382e-08
1.9828e-08
1.45906e-08
1.04009e-08
7.2181e-09
4.82693e-09
3.15337e-09
2.03079e-09
1.304e-09
8.38994e-10
5.55787e-10
3.81932e-10
2.82925e-10
2.4292e-10
2.30221e-10
2.18097e-10
2.12255e-10
2.09223e-10
2.04901e-10
1.98292e-10
1.93916e-10
2.22922e-10
3.39605e-10
1.03597e-09
5.87723e-09
3.71768e-08
2.19425e-07
1.18698e-06
5.83919e-06
2.58258e-05
0.000102579
0.000369679
0.00121688
0.00356303
0.00864188
0.0165097
0.0266415
5.93211e-08
1.44682e-07
1.4659e-07
1.64875e-07
1.29748e-07
9.40039e-08
6.5559e-08
4.50399e-08
3.32771e-08
2.56208e-08
1.98659e-08
1.46325e-08
1.04378e-08
7.24454e-09
4.84292e-09
3.16223e-09
2.03526e-09
1.30652e-09
8.40134e-10
5.56106e-10
3.81726e-10
2.79565e-10
2.32986e-10
2.25158e-10
2.18659e-10
2.12834e-10
2.09841e-10
2.05733e-10
1.98781e-10
1.92457e-10
2.08072e-10
2.89869e-10
7.18472e-10
3.81896e-09
2.48158e-08
1.53436e-07
8.68044e-07
4.46104e-06
2.05429e-05
8.44446e-05
0.000312979
0.0010563
0.00318312
0.00798618
0.0157256
0.0257538
0.0382383
5.77044e-08
1.41279e-07
1.43038e-07
1.59551e-07
1.25625e-07
9.22435e-08
6.49493e-08
4.46837e-08
3.30995e-08
2.55938e-08
1.98926e-08
1.46661e-08
1.04702e-08
7.27046e-09
4.85961e-09
3.17185e-09
2.04025e-09
1.30935e-09
8.41615e-10
5.56744e-10
3.81684e-10
2.7912e-10
2.25156e-10
2.16914e-10
2.18316e-10
2.13247e-10
2.10546e-10
2.06533e-10
1.99461e-10
1.92044e-10
1.97593e-10
2.56369e-10
5.20174e-10
2.47016e-09
1.63278e-08
1.0592e-07
6.28314e-07
3.37928e-06
1.62323e-05
6.91923e-05
0.000264062
0.000914013
0.00283218
0.00735301
0.014918
0.0249131
0.0373759
0.0508278
5.62736e-08
1.38252e-07
1.39338e-07
1.54095e-07
1.21614e-07
9.0643e-08
6.44231e-08
4.43805e-08
3.2942e-08
2.55659e-08
1.99084e-08
1.46862e-08
1.04961e-08
7.29301e-09
4.87531e-09
3.18166e-09
2.04547e-09
1.31228e-09
8.43175e-10
5.57557e-10
3.81825e-10
2.79015e-10
2.20057e-10
2.06423e-10
2.148e-10
2.13573e-10
2.11319e-10
2.07315e-10
2.00308e-10
1.921e-10
1.91376e-10
2.32556e-10
3.97293e-10
1.60031e-09
1.05861e-08
7.21389e-08
4.49829e-07
2.53788e-06
1.27415e-05
5.64242e-05
0.000222083
0.000788556
0.0025108
0.00674278
0.0141201
0.0240235
0.0365731
0.0502554
0.0610281
5.4811e-08
1.35168e-07
1.35309e-07
1.48509e-07
1.17861e-07
8.92221e-08
6.3933e-08
4.41185e-08
3.2831e-08
2.55504e-08
1.99185e-08
1.46931e-08
1.05109e-08
7.31087e-09
4.88898e-09
3.19076e-09
2.05069e-09
1.31521e-09
8.4468e-10
5.58361e-10
3.82072e-10
2.78932e-10
2.18536e-10
1.96606e-10
2.08078e-10
2.13631e-10
2.11987e-10
2.08121e-10
2.01211e-10
1.92399e-10
1.88264e-10
2.15136e-10
3.2167e-10
1.04998e-09
6.77289e-09
4.8411e-08
3.18404e-07
1.88872e-06
9.93608e-06
4.5799e-05
0.000186192
0.000678623
0.00221839
0.00615947
0.0133287
0.0231349
0.0356889
0.0497511
0.0608764
0.0674349
5.32462e-08
1.31649e-07
1.30757e-07
1.42852e-07
1.14375e-07
8.79623e-08
6.34521e-08
4.38555e-08
3.27601e-08
2.55606e-08
1.99306e-08
1.46925e-08
1.05167e-08
7.32114e-09
4.89994e-09
3.19882e-09
2.05561e-09
1.31805e-09
8.46073e-10
5.5907e-10
3.82369e-10
2.78891e-10
2.18277e-10
1.89841e-10
1.98488e-10
2.12675e-10
2.12465e-10
2.09022e-10
2.02108e-10
1.92895e-10
1.87017e-10
2.02284e-10
2.74808e-10
7.08782e-10
4.285e-09
3.19832e-08
2.2258e-07
1.39263e-06
7.69585e-06
3.70104e-05
0.000155651
0.00058272
0.00195444
0.00560532
0.0125467
0.0222418
0.0347928
0.0491415
0.0608289
0.0676089
0.0706207
5.1573e-08
1.27678e-07
1.25936e-07
1.37483e-07
1.11306e-07
8.67814e-08
6.29551e-08
4.35955e-08
3.27151e-08
2.5593e-08
1.99546e-08
1.46933e-08
1.05188e-08
7.32525e-09
4.90628e-09
3.20554e-09
2.06013e-09
1.32064e-09
8.47402e-10
5.5967e-10
3.82654e-10
2.78959e-10
2.18181e-10
1.85652e-10
1.87449e-10
2.08683e-10
2.12856e-10
2.1002e-10
2.02994e-10
1.93589e-10
1.86594e-10
1.93572e-10
2.4493e-10
5.01127e-10
2.69166e-09
2.07685e-08
1.53527e-07
1.01665e-06
5.92061e-06
2.9777e-05
0.000129788
0.000499479
0.00171769
0.00508318
0.0117766
0.0213491
0.0338774
0.0485006
0.0606872
0.067919
0.0710192
0.071325
4.9739e-08
1.23401e-07
1.2109e-07
1.3255e-07
1.08613e-07
8.56703e-08
6.24035e-08
4.33337e-08
3.26885e-08
2.56389e-08
1.99905e-08
1.47052e-08
1.05231e-08
7.32624e-09
4.9088e-09
3.21069e-09
2.06415e-09
1.32312e-09
8.48755e-10
5.60237e-10
3.82925e-10
2.79125e-10
2.18147e-10
1.84702e-10
1.77721e-10
2.0147e-10
2.12977e-10
2.11014e-10
2.03907e-10
1.94412e-10
1.86536e-10
1.88372e-10
2.24831e-10
3.77287e-10
1.69135e-09
1.32449e-08
1.04316e-07
7.34514e-07
4.52241e-06
2.38601e-05
0.000107971
0.000427565
0.00150685
0.00459479
0.0110224
0.0204579
0.0329489
0.0478175
0.0605249
0.0681494
0.0715735
0.0718828
0.0700881
4.78881e-08
1.18888e-07
1.16368e-07
1.28057e-07
1.06195e-07
8.45456e-08
6.17522e-08
4.30482e-08
3.26801e-08
2.56942e-08
2.00335e-08
1.47285e-08
1.05352e-08
7.32854e-09
4.90973e-09
3.21358e-09
2.06769e-09
1.32548e-09
8.50086e-10
5.60901e-10
3.83221e-10
2.79354e-10
2.18203e-10
1.84582e-10
1.71245e-10
1.91583e-10
2.12251e-10
2.11814e-10
2.04908e-10
1.95239e-10
1.8679e-10
1.85757e-10
2.10583e-10
3.04961e-10
1.07732e-09
8.28901e-09
6.97256e-08
5.24638e-07
3.4293e-06
1.90408e-05
8.96639e-05
0.00036566
0.00132032
0.00414189
0.0102875
0.0195717
0.032007
0.0470964
0.0603306
0.0683729
0.0720581
0.0726052
0.0707593
0.067332
4.60341e-08
1.14522e-07
1.12029e-07
1.23999e-07
1.04021e-07
8.33911e-08
6.09804e-08
4.27383e-08
3.26701e-08
2.57558e-08
2.00787e-08
1.47578e-08
1.05557e-08
7.33613e-09
4.91128e-09
3.21514e-09
2.07092e-09
1.32774e-09
8.51496e-10
5.6169e-10
3.83585e-10
2.79614e-10
2.18356e-10
1.84587e-10
1.67348e-10
1.80279e-10
2.09053e-10
2.12533e-10
2.06041e-10
1.96044e-10
1.87314e-10
1.84589e-10
2.00399e-10
2.62638e-10
7.04833e-10
5.09713e-09
4.57475e-08
3.70145e-07
2.57988e-06
1.51358e-05
7.43573e-05
0.000312633
0.00115614
0.00372557
0.00957586
0.0186928
0.0310554
0.0463481
0.0601061
0.0685791
0.0725435
0.0732664
0.0715965
0.0680802
0.0634199
4.4193e-08
1.10256e-07
1.08047e-07
1.2039e-07
1.02039e-07
8.22347e-08
6.0122e-08
4.23803e-08
3.26615e-08
2.58082e-08
2.01222e-08
1.47885e-08
1.05809e-08
7.34932e-09
4.91578e-09
3.21686e-09
2.0738e-09
1.32996e-09
8.52965e-10
5.62553e-10
3.84057e-10
2.79896e-10
2.1857e-10
1.84646e-10
1.66448e-10
1.70171e-10
2.0215e-10
2.13124e-10
2.07261e-10
1.9686e-10
1.87956e-10
1.84091e-10
1.93488e-10
2.37173e-10
4.85975e-10
3.09197e-09
2.94088e-08
2.57495e-07
1.92482e-06
1.19825e-05
6.16167e-05
0.000267376
0.00101251
0.00334582
0.00889185
0.0178246
0.0300966
0.0455755
0.0598513
0.0687701
0.0730203
0.0739331
0.0723798
0.0689903
0.0642136
0.0586822
4.23555e-08
1.06007e-07
1.04373e-07
1.17146e-07
1.00215e-07
8.10667e-08
5.92366e-08
4.20113e-08
3.26411e-08
2.58495e-08
2.01518e-08
1.4818e-08
1.06068e-08
7.36467e-09
4.92338e-09
3.2198e-09
2.07607e-09
1.33204e-09
8.54467e-10
5.63464e-10
3.84581e-10
2.80192e-10
2.18796e-10
1.84763e-10
1.66333e-10
1.63149e-10
1.92686e-10
2.13219e-10
2.08432e-10
1.97734e-10
1.88626e-10
1.84076e-10
1.89273e-10
2.20948e-10
3.61456e-10
1.86562e-09
1.84889e-08
1.7629e-07
1.42283e-06
9.44794e-06
5.10369e-05
0.000228941
0.000887444
0.00300244
0.008239
0.0169708
0.0291354
0.0447792
0.0595657
0.0689446
0.0734902
0.0745966
0.0731719
0.0698531
0.0651614
0.059494
0.0534217
4.05123e-08
1.01635e-07
1.00998e-07
1.14279e-07
9.85056e-08
7.98635e-08
5.83367e-08
4.16829e-08
3.26235e-08
2.58703e-08
2.01642e-08
1.48372e-08
1.06311e-08
7.37998e-09
4.93195e-09
3.22383e-09
2.07805e-09
1.33368e-09
8.55922e-10
5.64371e-10
3.85119e-10
2.80493e-10
2.19002e-10
1.84924e-10
1.6634e-10
1.58907e-10
1.81439e-10
2.11491e-10
2.09492e-10
1.98739e-10
1.89292e-10
1.84469e-10
1.86964e-10
2.0986e-10
2.92066e-10
1.13677e-09
1.13413e-08
1.18494e-07
1.04106e-06
7.41733e-06
4.22778e-05
0.000196399
0.000779202
0.00269414
0.00762134
0.0161347
0.0281762
0.0439616
0.059248
0.0691021
0.0739522
0.0752584
0.0739647
0.0707271
0.066068
0.0604494
0.0542277
0.0479075
3.86306e-08
9.7057e-08
9.78949e-08
1.11792e-07
9.68667e-08
7.86064e-08
5.74311e-08
4.13924e-08
3.26234e-08
2.58793e-08
2.01588e-08
1.4846e-08
1.0648e-08
7.39362e-09
4.94011e-09
3.22859e-09
2.08017e-09
1.33482e-09
8.5712e-10
5.65208e-10
3.85634e-10
2.80799e-10
2.19182e-10
1.85095e-10
1.66373e-10
1.57526e-10
1.70689e-10
2.05919e-10
2.10548e-10
1.99889e-10
1.89951e-10
1.85044e-10
1.85755e-10
2.01998e-10
2.54274e-10
7.16019e-10
6.78302e-09
7.79344e-08
7.52955e-07
5.79738e-06
3.50352e-05
0.000168947
0.000685988
0.00241965
0.00704148
0.0153213
0.0272227
0.0431254
0.0588973
0.0692419
0.0744052
0.0759175
0.0747594
0.0716049
0.0669876
0.0613691
0.0551655
0.0486884
0.0423685
3.67264e-08
9.24236e-08
9.50938e-08
1.09621e-07
9.52535e-08
7.72571e-08
5.65246e-08
4.11471e-08
3.26449e-08
2.58867e-08
2.01458e-08
1.48407e-08
1.0658e-08
7.40282e-09
4.94706e-09
3.23309e-09
2.08219e-09
1.33547e-09
8.58027e-10
5.65898e-10
3.86111e-10
2.81115e-10
2.19338e-10
1.85244e-10
1.66455e-10
1.57309e-10
1.62435e-10
1.97874e-10
2.1138e-10
2.01124e-10
1.90613e-10
1.85654e-10
1.85113e-10
1.96633e-10
2.33033e-10
4.7831e-10
3.96024e-09
5.00023e-08
5.37106e-07
4.51011e-06
2.90602e-05
0.000145818
0.000606209
0.00217712
0.00650205
0.014535
0.0262805
0.0422741
0.0585132
0.0693631
0.0748489
0.0765728
0.0755551
0.0724873
0.0679133
0.0623031
0.0560725
0.0495883
0.0431093
0.0369881
3.49048e-08
8.78665e-08
9.25985e-08
1.07671e-07
9.36041e-08
7.57794e-08
5.56067e-08
4.09265e-08
3.26769e-08
2.5895e-08
2.01345e-08
1.48305e-08
1.06594e-08
7.40837e-09
4.95187e-09
3.23701e-09
2.08378e-09
1.3357e-09
8.5828e-10
5.66394e-10
3.86542e-10
2.81417e-10
2.19477e-10
1.85365e-10
1.66586e-10
1.57299e-10
1.57217e-10
1.8767e-10
2.11241e-10
2.02366e-10
1.9132e-10
1.86215e-10
1.85136e-10
1.93184e-10
2.20001e-10
3.49978e-10
2.27304e-09
3.11706e-08
3.76948e-07
3.48962e-06
2.41435e-05
0.000126363
0.00053821
0.00196491
0.0060045
0.0137814
0.0253544
0.0414128
0.0580948
0.0694651
0.0752821
0.0772236
0.0763503
0.0733733
0.0688458
0.063245
0.0569946
0.0504618
0.0439562
0.0376783
0.0319037
3.31393e-08
8.36035e-08
9.04268e-08
1.05858e-07
9.18997e-08
7.41835e-08
5.46833e-08
4.07201e-08
3.27022e-08
2.59012e-08
2.01282e-08
1.48238e-08
1.06587e-08
7.40869e-09
4.95464e-09
3.23979e-09
2.08526e-09
1.33562e-09
8.58272e-10
5.66655e-10
3.86887e-10
2.81691e-10
2.19619e-10
1.85468e-10
1.6673e-10
1.5734e-10
1.54643e-10
1.76861e-10
2.08614e-10
2.03527e-10
1.92149e-10
1.86729e-10
1.85558e-10
1.91114e-10
2.11029e-10
2.83867e-10
1.30432e-09
1.88127e-08
2.59301e-07
2.68309e-06
2.01047e-05
0.000110028
0.000480483
0.0017809
0.00555068
0.0130645
0.0244504
0.0405466
0.0576424
0.0695473
0.075704
0.0778689
0.0771445
0.0742614
0.069784
0.0641953
0.057926
0.0513509
0.0447808
0.038462
0.0325369
0.0272095
3.14554e-08
7.97116e-08
8.85006e-08
1.04076e-07
9.0125e-08
7.24802e-08
5.37878e-08
4.05231e-08
3.27125e-08
2.58963e-08
2.01263e-08
1.48242e-08
1.06608e-08
7.40792e-09
4.9556e-09
3.24172e-09
2.08658e-09
1.33578e-09
8.58188e-10
5.66645e-10
3.87176e-10
2.8195e-10
2.19782e-10
1.85567e-10
1.66864e-10
1.57446e-10
1.54033e-10
1.67404e-10
2.02497e-10
2.04694e-10
1.93162e-10
1.87208e-10
1.86068e-10
1.89888e-10
2.04445e-10
2.5054e-10
7.71661e-10
1.0943e-08
1.74113e-07
2.04646e-06
1.67968e-05
9.63367e-05
0.000431615
0.00162298
0.00514142
0.0123881
0.0235739
0.0396827
0.0571562
0.0696089
0.0761137
0.0785074
0.0779362
0.0751509
0.0707263
0.0651531
0.058867
0.0522502
0.0456209
0.0392271
0.0332514
0.0277824
0.0229619
2.99205e-08
7.62169e-08
8.67805e-08
1.02247e-07
8.82489e-08
7.06871e-08
5.29164e-08
4.03358e-08
3.27046e-08
2.58763e-08
2.01196e-08
1.48293e-08
1.06667e-08
7.40988e-09
4.95685e-09
3.24323e-09
2.08783e-09
1.33627e-09
8.58241e-10
5.66529e-10
3.87421e-10
2.82185e-10
2.19942e-10
1.85676e-10
1.66976e-10
1.57609e-10
1.53951e-10
1.60497e-10
1.94405e-10
2.05418e-10
1.94324e-10
1.87657e-10
1.86616e-10
1.89405e-10
1.99721e-10
2.33251e-10
4.90923e-10
6.1191e-09
1.13478e-07
1.54535e-06
1.40906e-05
8.49159e-05
0.00039032
0.00148872
0.00477784
0.0117552
0.0227315
0.0388283
0.0566376
0.0696495
0.07651
0.079138
0.0787239
0.0760402
0.0716718
0.0661165
0.0598166
0.0531598
0.0464717
0.0400073
0.0339508
0.0284255
0.0234739
0.019186
2.85169e-08
7.31226e-08
8.52582e-08
1.00339e-07
8.62673e-08
6.88658e-08
5.20591e-08
4.01564e-08
3.26752e-08
2.5842e-08
2.01085e-08
1.48322e-08
1.0674e-08
7.41361e-09
4.95893e-09
3.24469e-09
2.08902e-09
1.33682e-09
8.58568e-10
5.66427e-10
3.87608e-10
2.82386e-10
2.20093e-10
1.85816e-10
1.67073e-10
1.57786e-10
1.53988e-10
1.55946e-10
1.85023e-10
2.04816e-10
1.95509e-10
1.88087e-10
1.87106e-10
1.89478e-10
1.96539e-10
2.2281e-10
3.49899e-10
3.29532e-09
7.13462e-08
1.15177e-06
1.18811e-05
7.54344e-05
0.000355597
0.00137538
0.00446048
0.0111703
0.0219285
0.0379886
0.0560886
0.0696685
0.0768918
0.0797592
0.0795066
0.0769275
0.0726189
0.0670847
0.0607732
0.0540789
0.0473331
0.0407982
0.0346645
0.0290564
0.0240459
0.0196383
0.0158828
2.72436e-08
7.04936e-08
8.3951e-08
9.82844e-08
8.41735e-08
6.70483e-08
5.12333e-08
3.99656e-08
3.26239e-08
2.58009e-08
2.00917e-08
1.48332e-08
1.06787e-08
7.41698e-09
4.96142e-09
3.24573e-09
2.08998e-09
1.33731e-09
8.59107e-10
5.66475e-10
3.87743e-10
2.82536e-10
2.20232e-10
1.85972e-10
1.67158e-10
1.57938e-10
1.5406e-10
1.53967e-10
1.75649e-10
2.01776e-10
1.96661e-10
1.88563e-10
1.87541e-10
1.89841e-10
1.94478e-10
2.1519e-10
2.84714e-10
1.73526e-09
4.29118e-08
8.44078e-07
1.00795e-05
6.76177e-05
0.000326618
0.00128037
0.00418836
0.0106388
0.0211704
0.0371692
0.0555257
0.0696654
0.0772577
0.0803695
0.080282
0.0778115
0.0735656
0.0680559
0.0617358
0.0550058
0.0482045
0.0415998
0.0353887
0.0297009
0.0246086
0.0201416
0.0162778
0.0130353
2.60619e-08
6.82731e-08
8.2856e-08
9.60673e-08
8.19463e-08
6.52618e-08
5.04508e-08
3.97508e-08
3.25467e-08
2.57566e-08
2.00721e-08
1.48312e-08
1.06809e-08
7.41849e-09
4.96359e-09
3.2467e-09
2.09053e-09
1.33758e-09
8.59631e-10
5.66639e-10
3.87848e-10
2.8263e-10
2.20338e-10
1.86131e-10
1.67234e-10
1.58048e-10
1.54204e-10
1.53438e-10
1.67732e-10
1.96046e-10
1.97677e-10
1.89193e-10
1.8792e-10
1.90401e-10
1.93225e-10
2.09085e-10
2.55965e-10
9.3228e-10
2.44362e-08
6.04684e-07
8.61692e-06
6.12171e-05
0.00030276
0.00120142
0.00395932
0.0101666
0.0204627
0.0363777
0.0549614
0.0696418
0.077607
0.0809669
0.0810487
0.07869
0.0745106
0.0690281
0.0627026
0.0559397
0.0490843
0.0424115
0.0361234
0.0303554
0.0251837
0.020638
0.016716
0.0133764
0.0106144
2.4925e-08
6.62893e-08
8.18491e-08
9.36843e-08
7.9585e-08
6.35469e-08
4.96984e-08
3.95231e-08
3.2443e-08
2.57084e-08
2.00517e-08
1.48269e-08
1.06803e-08
7.41712e-09
4.96463e-09
3.24739e-09
2.09082e-09
1.33764e-09
8.60057e-10
5.66829e-10
3.87981e-10
2.82674e-10
2.20417e-10
1.86278e-10
1.6731e-10
1.58128e-10
1.54404e-10
1.5336e-10
1.61805e-10
1.89008e-10
1.97912e-10
1.90021e-10
1.8825e-10
1.90972e-10
1.9263e-10
2.04398e-10
2.42577e-10
5.49708e-10
1.3e-08
4.19993e-07
7.43777e-06
5.60327e-05
0.000283459
0.00113692
0.00376958
0.00975963
0.0198126
0.0356206
0.0544032
0.0695993
0.0779384
0.0815495
0.0818038
0.0795611
0.0754512
0.07
0.0636716
0.0568786
0.0499715
0.0432318
0.0368681
0.03102
0.0257685
0.021146
0.0171495
0.0137539
0.0109053
0.00858334
2.37882e-08
6.4359e-08
8.08e-08
9.1187e-08
7.7108e-08
6.19217e-08
4.89717e-08
3.92772e-08
3.2323e-08
2.565e-08
2.00281e-08
1.48201e-08
1.06781e-08
7.41432e-09
4.96411e-09
3.24767e-09
2.09109e-09
1.33749e-09
8.60382e-10
5.66971e-10
3.88125e-10
2.8267e-10
2.20474e-10
1.864e-10
1.67394e-10
1.58201e-10
1.54585e-10
1.53427e-10
1.57646e-10
1.81321e-10
1.9668e-10
1.90946e-10
1.88543e-10
1.91502e-10
1.92469e-10
2.01157e-10
2.34086e-10
3.82615e-10
6.3808e-09
2.79367e-07
6.50012e-06
5.18999e-05
0.000268231
0.00108569
0.00361556
0.00941979
0.0192319
0.0349018
0.0538575
0.069539
0.0782512
0.0821149
0.0825451
0.0804216
0.0763857
0.0709688
0.0646415
0.0578208
0.0508646
0.0440599
0.0376213
0.0316941
0.0263627
0.0216629
0.0175937
0.0141285
0.0112267
0.00882784
0.00690085
2.26295e-08
6.22388e-08
7.95741e-08
8.86045e-08
7.45781e-08
6.03623e-08
4.82645e-08
3.9009e-08
3.219e-08
2.55818e-08
1.99958e-08
1.48103e-08
1.06759e-08
7.41097e-09
4.96208e-09
3.24734e-09
2.09129e-09
1.33737e-09
8.60619e-10
5.67018e-10
3.88299e-10
2.82674e-10
2.20511e-10
1.86498e-10
1.67484e-10
1.58285e-10
1.54716e-10
1.53646e-10
1.55992e-10
1.73953e-10
1.93394e-10
1.91859e-10
1.88832e-10
1.91986e-10
1.92608e-10
1.98961e-10
2.26969e-10
3.20595e-10
2.92464e-09
1.74429e-07
5.77153e-06
4.86999e-05
0.000256634
0.00104683
0.00349445
0.00914518
0.0187334
0.0342271
0.0533275
0.0694622
0.0785442
0.0826609
0.0832691
0.081269
0.0773105
0.0719325
0.0656096
0.058765
0.0517616
0.0448943
0.0383824
0.0323767
0.026966
0.0221887
0.0180462
0.0145131
0.011547
0.00909814
0.00710308
0.00552433
2.13628e-08
5.98401e-08
7.80598e-08
8.59414e-08
7.20545e-08
5.88556e-08
4.75556e-08
3.87205e-08
3.20539e-08
2.55088e-08
1.99511e-08
1.47937e-08
1.06716e-08
7.40788e-09
4.95997e-09
3.24593e-09
2.09123e-09
1.33741e-09
8.60887e-10
5.67034e-10
3.88465e-10
2.82729e-10
2.20543e-10
1.8656e-10