/*--------------------------------*- C++ -*----------------------------------*\
| =========                 |                                                 |
| \\      /  F ield         | OpenFOAM: The Open Source CFD Toolbox           |
|  \\    /   O peration     | Version:  v2012                                 |
|   \\  /    A nd           | Website:  www.openfoam.com                      |
|    \\/     M anipulation  |                                                 |
\*---------------------------------------------------------------------------*/
FoamFile
{
    version     2.0;
    format      ascii;
    class       volScalarField;
    location    "12000";
    object      omega;
}
// * * * * * * * * * * * * * * * * * * * * * * * * * * * * * * * * * * * * * //

dimensions      [0 0 -1 0 0 0 0];


internalField   nonuniform List<scalar> 
27324
(
75353.6
76057.6
135491
76720
136330
132514
77073.8
136452
131534
103046
77191
135457
129914
100989
66990.2
76975.6
133318
127232
98581.6
64784.8
40418.2
76436.8
129546
123481
95505.9
62493.8
38834.4
24845.3
75635.4
124161
118468
91836.4
59997
37299.8
23902.6
16371.7
74568.2
117369
112283
87805.6
57411.7
35766.9
23020.7
15842
11865.8
72856.1
109222
105125
83569.5
55143.2
34287.2
22165.4
15356.5
11584.9
9361.35
68843.8
99113.1
97130.6
79145.4
53213.9
33158.5
21351.5
14895
11337
9212.96
7894.33
60650.4
87137.5
88164.7
74450.2
51379.5
32351.8
20760.1
14466.1
11105.1
9085.65
7812.65
7040.49
51135.9
75792.9
79258.2
69494.6
49357.2
31648
20383
14171.3
10895
8966.74
7745.21
6999.52
6512.96
44321.1
68967.3
71341.2
65053.5
47347
30832.5
20089.9
14006.8
10755
8863.12
7682.32
6970.35
6494.19
6218.25
42877.5
64911.2
67081.1
62846.2
45813.6
30106.3
19763.2
13889.3
10692.3
8794.7
7632.34
6942.76
6486.28
6216.64
6037.82
42899.5
64124.4
63663
64693.3
48284.6
29823.1
19473.3
13767.9
10658.7
8772.58
7598.73
6927.08
6474.84
6227.22
6044.61
5941.26
43196.4
64484.7
62478.9
65263.1
55223.8
33285.4
19496.4
13568.4
10614.9
8764.96
7592.2
6917.16
6474.41
6229.4
6064.29
5954.93
5913.66
43533.7
65061.6
62397.3
64542.3
60244.5
40823.2
21941.9
13635.9
10422.9
8733.89
7597.51
6918.24
6475.68
6241.5
6073.47
5979.25
5935.5
5939.82
43840.6
65589
62419.4
64330.9
60771.7
47181.3
27117.9
14996.4
10468.1
8542.29
7547.9
6926.37
6477.91
6255.1
6085.07
5996.87
5968.71
5966.67
6036.66
44085
66011.5
62326.5
64189.8
60756.7
48804.1
31625.8
17754.3
11258.2
8560.43
7367.52
6790.53
6462.73
6258.19
6099.52
6009.73
5995.69
5999.27
6066.25
6104.34
44255.4
66278.9
62166.6
64092.2
60697.1
49092
33070.6
20327.9
12838.8
9011.66
7334.04
6608.04
6288.54
6138.48
6052.47
5999.15
5986.63
5992.56
6075.06
6063.44
6164.16
44357.3
66391.5
61952.8
64045
60740.5
49132.6
33351.9
20889.2
14449.5
9918.48
7569.01
6527.79
6089.73
5937.2
5878.51
5850.63
5862.76
5877.08
5939.56
5923.66
5991.08
5949.48
44409.3
66377.7
61740.3
64049
60880.4
49166.9
33357.8
21049.2
14615.6
10922.2
8075.68
6636.48
5990.63
5735.41
5651.77
5639.18
5659.41
5693.8
5718.6
5726.36
5726.05
5780.95
5972.78
44438.7
66294.5
61571.4
64132.7
61067.4
49196.9
33286.4
21066.1
14689.7
11150.7
8646.55
6914.22
6039.56
5645.7
5497.72
5446.96
5453.99
5484.99
5514.22
5530.9
5549.61
5576.83
5787.46
6281.06
44472.2
66206.3
61479
64294.9
61289.1
49207.5
33170
21026.9
14721.6
11109.9
8856.06
7183.08
6223.88
5695.5
5449.79
5353.15
5332.64
5351.95
5381.73
5407
5440.4
5493.57
5612.13
6080.54
6644.42
44538.3
66187
61484.7
64533
61510.7
49194.7
33026.7
20961.4
14723.7
11123.1
8709.22
7286.78
6333.65
5811.91
5496.77
5365.96
5321.36
5320.39
5344.45
5379.73
5427.22
5487.41
5576.03
5858.46
6484.11
6851.23
44661.6
66309.3
61588.3
64818.9
61695.4
49161.2
32871.8
20887.5
14705.9
11122.5
8706
7159.21
6345.51
5844.98
5558.84
5396.67
5336.88
5331.58
5353.41
5389.73
5436.22
5494.91
5570.56
5726.71
6260.81
6814.19
6908.84
44848.6
66603.4
61764.7
65096.6
61811.1
49097.5
32738.8
20817.1
14683
11110.1
8709.24
7103.38
6229.67
5782.12
5584.74
5434.34
5352.54
5343.96
5363.65
5400.83
5448.44
5506.21
5574.99
5675.18
6057.45
6672.23
6915.8
6884.17
45080.2
67039.8
61960.4
65306.8
61839.3
49008.9
32623.3
20772.8
14662.1
11095.1
8707.88
7106.75
6100.05
5646.52
5496.07
5455.11
5366.99
5352.31
5372.91
5409.7
5459.27
5515.74
5582.4
5663.4
5882.84
6489.38
6893.03
6909.25
6817.13
45319.1
67541.8
62114.7
65405
61793.4
48910
32521.4
20746
14655.6
11081.3
8706.24
7112.28
6087.48
5494.45
5345.62
5384.98
5371.72
5358.47
5379.91
5417.7
5468.42
5526.37
5591.64
5664.44
5791.94
6284.08
6833.35
6922.44
6847.97
6732.99
45515.8
68015.6
62186.8
65378.9
61712.3
48811.2
32431.6
20728.7
14659.3
11075.3
8704.37
7117.19
6092.56
5432.21
5173.64
5241.72
5355.8
5362.92
5385.25
5425.78
5476.44
5537.25
5602.12
5670.46
5758.93
6089.26
6699.52
6928.49
6874.3
6763.65
6652.36
45636.7
68378.5
62169
65261.3
61625.4
48728
32351.2
20716.8
14668.9
11074
8706.65
7121.17
6098.41
5432.78
5055.13
5052.43
5242.58
5362.58
5389.36
5431.55
5483.95
5547.42
5613.42
5679.42
5754.64
5935.43
6518.37
6913.09
6899.17
6791.82
6679.68
6581.72
45653.5
68557.7
62025.8
65108.8
61558.7
48671.2
32274.6
20708.1
14681.2
11074.6
8712.78
7127.54
6104.27
5439.1
5036.02
4893.41
5061.93
5296.75
5390
5435.48
5490.71
5556.35
5625.41
5690.45
5758.84
5865.22
6320.72
6857.01
6916.86
6821.11
6704.72
6605.64
6528.49
45572.9
68518
61810.8
64987.4
61535.3
48640.6
32210.5
20700.7
14693.3
11074.5
8721.18
7136.67
6111.56
5446.18
5040.95
4806.74
4871.22
5145.39
5372.82
5436.34
5494.03
5564.44
5636.97
5702.2
5767.11
5841.22
6134.03
6735.62
6926.12
6849.1
6732.21
6626.79
6549.33
6507.13
45428.5
68324.5
61617.9
64992.3
61594.9
48625.2
32164
20702
14702.7
11072.8
8730.11
7147.69
6120.68
5454.02
5048.79
4804.54
4733.7
4954.89
5280.52
5433.7
5495.78
5571.75
5647.54
5714.86
5778.31
5840.62
5997.02
6563.94
6917.27
6874.13
6761.1
6650.32
6567.56
6526.54
6518.09
45272
68070.1
61508.4
65150.8
61721.2
48611.3
32139.9
20716.4
14712
11069.2
8738.45
7159.62
6130.94
5462.93
5057.53
4811.72
4672.51
4767.91
5121.62
5415.74
5494.81
5575.78
5657.15
5727.76
5791.14
5847.25
5934.95
6375.77
6873.45
6893.26
6789.46
6674.43
6587.18
6544.74
6538.02
6541.66
45156.8
67855.1
61511.1
65434.1
61846.2
48584.5
32138.8
20748.3
14723.9
11067.2
8746.34
7171.68
6141.52
5472.69
5067.03
4820.6
4673.52
4645.19
4922.83
5313.99
5489.25
5577.83
5665.86
5739.89
5804.45
5858.53
5915.85
6194.03
6773.84
6905.42
6816.55
6699.56
6606.8
6563.27
6558.17
6564.13
6566.83
45105.4
67739.2
61630.8
65771.4
61942.5
48530.4
32162.2
20798.1
14742.6
11069
8755.61
7183.45
6151.88
5482.73
5077.4
4830.25
4681.46
4602.23
4739.12
5156.38
5466.96
5575.86
5671.73
5751.13
5819.16
5873.29
5919.03
6057.16
6613.71
6903.45
6841.46
6725.49
6627.14
6581.51
6577.25
6589.02
6590.82
6598.95
45143.6
67836.6
61832.2
66091.6
61988.4
48446.8
32216.4
20861.3
14767.9
11076.4
8767.18
7195.34
6161.81
5492.68
5087.26
4840.2
4690.28
4605.52
4620.19
4962.16
5376.36
5568.8
5675.2
5761.84
5834.22
5889.16
5929.39
5991.01
6434.92
6874.25
6861.95
6753.16
6648.58
6599.64
6595.97
6611.51
6619.79
6621.59
6659.05
45238.6
68113.2
62095.1
66360.6
61962.3
48358.2
32294.8
20936.7
14797.8
11092.1
8782.16
7207.97
6171.67
5502.46
5097.19
4850.43
4699.73
4614.04
4576.05
4777.69
5224.24
5547.97
5674.79
5771.49
5849.01
5905.94
5943.87
5968.81
6255.5
6800.19
6877.04
6779.83
6671.51
6617.64
6614.41
6633.59
6645.28
6651.49
6678.39
6766.32
45348.9
68450.4
62290
66509.2
61868.3
48257.8
32395.2
21019.7
14833.8
11113.8
8800.74
7222.4
6182.02
5512.25
5106.87
4860.5
4709.45
4623.04
4577.67
4654.04
5032.58
5479.74
5671.12
5778.12
5863.67
5924.2
5961.7
5972.16
6105.46
6668.38
6881.86
6804.53
6695.66
6635.77
6632.61
6655.06
6670.72
6677.14
6706.91
6780.69
6945.7
45435.1
68755.4
62375.1
66543.1
61739.7
48149.7
32488.8
21108.7
14872.5
11140.2
8822.56
7238.34
6193.55
5522.45
5116.4
4870.15
4719
4632.51
4585.38
4590.8
4839.07
5339.98
5659.5
5781.79
5878.19
5942.77
5981.05
5984.1
6022.95
6500.51
6867.23
6826.22
6720.55
6654.72
6650.6
6676.1
6695.51
6703.3
6730.53
6806.21
6949.14
7280.94
45477.5
68963.2
62367.6
66520.1
61632.1
48060.3
32570.4
21186.7
14912.7
11169.4
8847.21
7255.65
6206.21
5533.54
5126.08
4879.56
4728.36
4642.4
4593.81
4588.65
4701.02
5157.67
5620.32
5782.05
5890.86
5960.94
6001
6000.59
5990.9
6324.01
6819.46
6843.99
6747.17
6675.11
6668.23
6696.78
6719.75
6729.05
6755.13
6826.63
6966.34
7256.59
8010.3
45431.3
69091
62316.2
66475.9
61540.7
48006.4
32632
21251.7
14944.5
11200.4
8874.03
7274.51
6219.88
5545.62
5136.23
4888.93
4737.44
4652.42
4602.64
4596.08
4624.51
4957.6
5501.44
5778.23
5900.29
5978.92
6022.74
6020.98
5988.94
6157.01
6724.51
6854.6
6772.34
6697.06
6685.51
6717.14
6743.49
6754.48
6779.54
6848.74
6979.12
7249.53
7927.67
9597.69
45326.3
69113.4
62258.7
66423.2
61453.1
47957.7
32676.1
21289.8
14966.7
11227.9
8902.28
7294.38
6234.67
5558.71
5147.03
4898.61
4746.45
4662.38
4612.19
4604.74
4615.02
4796.45
5339.84
5759.41
5905.96
5996.46
6044.9
6043.53
6000.47
6045.35
6577.88
6852.55
6796.12
6720.58
6702.62
6737.23
6766.82
6779.52
6803.85
6871.17
6995.06
7239.95
7864.51
9427.06
12529.9
45220.5
69158.8
62262
66361.4
61348.4
47925.1
32708.2
21302.7
14973.7
11251.2
8928.1
7315.27
6250.16
5572.8
5158.44
4908.98
4755.68
4672.18
4622.42
4614.7
4622.07
4696.21
5144.43
5694.05
5908.74
6011.21
6067.16
6067.04
6017.29
5990.71
6408.73
6828.61
6816.36
6745.64
6719.67
6757.03
6789.85
6804.16
6827.91
6893.97
7012.57
7236.16
7801.36
9275.22
12301.4
16488.9
45177
69287
62336.4
66313.1
61217.4
47919.7
32751.2
21296.6
14968
11268.2
8950.86
7334.05
6266.18
5587.13
5170.33
4919.97
4765.52
4682.11
4632.86
4625.82
4631.35
4662.1
4956.23
5558.49
5904.96
6022.86
6089.74
6092.83
6038.53
5973
6237.2
6770.66
6830.57
6772.26
6737.2
6776.52
6812.7
6828.44
6851.61
6916.9
7031.68
7236.43
7747.11
9120.04
12087.2
16335.1
20167.9
45209.6
69494.7
62410.5
66199.9
61050.3
47944.2
32823.7
21287.3
14956
11279.6
8969.13
7350.15
6281.3
5601.27
5182.52
4931.36
4776.01
4692.46
4643.43
4637.34
4641.88
4665.74
4820.46
5383.78
5881.14
6030.7
6112.59
6119.35
6063.04
5978.37
6090.81
6668.93
6837.09
6800.34
6755.54
6795.69
6835.43
6852.42
6874.95
6939.76
7052.05
7240.81
7700.32
8973.17
11853.7
16197.8
20187.4
22687.2
45308.1
69804.8
62436
66013.6
60864.1
48022.6
32923.6
21291.6
14948
11288.6
8983.21
7362.52
6294.81
5614.91
5194.62
4942.94
4786.92
4703.21
4653.99
4648.95
4653.37
4675.35
4740.88
5185.52
5797.63
6035.72
6133.29
6146.61
6089.23
5992.27
5998.38
6525.24
6830.17
6823.56
6775.13
6814.5
6858.1
6876.19
6897.93
6962.41
7073.37
7248.84
7661.34
8833.96
11618.8
16023.4
20241.6
22834.1
24505.9
45362.5
70069.8
62348.8
65756.5
60709.9
48157.5
33047.1
21309.2
14954.6
11300.9
8994.88
7371.19
6305.8
5627.48
5206.22
4954.33
4797.9
4714.15
4664.47
4660.2
4665.07
4685.54
4727.06
5008.79
5653.74
6033.4
6150.57
6174.65
6117.28
6011.46
5954.1
6361.19
6800.69
6844.25
6796.55
6832.98
6880.68
6899.87
6920.6
6984.74
7095.34
7260.17
7629.89
8703.97
11381
15834.9
20257.7
23039.7
24722.7
25943.6
45330.8
70151.8
62071.4
65425.7
60582.9
48340.3
33176.7
21331.2
14975.2
11321.9
9007.5
7378.05
6314.74
5638.38
5216.96
4965.21
4808.53
4725
4674.8
4670.87
4676.45
4696.03
4733.79
4883.96
5474.11
6010.27
6164.58
6203.81
6146.69
6035.51
5941.36
6198.69
6739.91
6859.7
6819.22
6851.13
6903.08
6923.57
6943.05
7006.7
7117.68
7274.35
7605.81
8583.78
11143.4
15629.1
20264.2
23212.3
25009
26223.7
27021.9
45209.2
70040.3
61678.3
65121.8
60548.2
48521.3
33297.4
21355.7
15008.3
11351.4
9024.19
7384.78
6322.65
5647.94
5226.37
4975.26
4818.55
4735.34
4684.88
4680.95
4687.1
4706.99
4743.08
4810.45
5275.94
5928.53
6175.91
6232.4
6177.02
6061.89
5947.53
6069.75
6642.78
6863.87
6845.77
6869.13
6925.2
6947.4
6965.36
7028.35
7140.14
7290.92
7588.75
8474.17
10907.7
15407.6
20255.3
23387.8
25261
26581.5
27350.6
27840.6
44954.2
69783.1
61242
64883
60610
48697.9
33374.8
21378.2
15049.6
11387.6
9045
7393.98
6330.82
5657.52
5234.81
4984.24
4827.74
4745.02
4694.59
4690.57
4697.06
4718.13
4753.11
4801.31
5103.45
5784.82
6181.18
6257.66
6208.58
6089.47
5960.8
5987.9
6513.17
6849.93
6874.76
6887.17
6946.93
6971.45
6987.63
7049.72
7162.58
7309.38
7578.26
8375.57
10675.8
15170.9
20231.3
23560.5
25518.2
26907.7
27762.8
28199
28547.5
44657.5
69400.1
60801
64707.5
60725.7
48854.5
33390.6
21380
15097.7
11428.3
9068.99
7406.29
6340.86
5667.29
5243
4992.27
4836.06
4753.94
4703.9
4700.05
4706.59
4729.1
4764.11
4809.03
4980.31
5605.68
6167.53
6280.87
6241.86
6119.52
5981.63
5948.16
6366.75
6815.13
6897.17
6905.83
6968.18
6995.74
7009.98
7070.9
7184.92
7329.3
7573.76
8288.39
10449.7
14920.3
20188.5
23731.8
25774.4
27242.8
28147
28644.4
28920.2
29282.2
44334.9
69047.5
60445
64593.8
60883.1
48984.7
33350
21363.7
15140.1
11471.8
9094.49
7420.96
6353.34
5678.4
5251.61
5000.07
4843.95
4762.25
4712.86
4709.67
4716.1
4739.74
4775.9
4819.13
4905.49
5406.46
6106.44
6301.27
6276.51
6150.14
6007.11
5937.47
6227.78
6753.64
6908.78
6925.72
6988.92
7020.19
7032.54
7091.96
7207.21
7350.26
7574.61
8212.8
10231.4
14657.2
20126.3
23895.7
26030.5
27580.7
28543.6
29064.9
29381.7
29658.4
30162.7
43987.6
68706.9
60156.7
64550.7
61072.8
49102.7
33268.8
21326.9
15179.3
11510.6
9120.52
7436.96
6367.74
5691.3
5261.33
5008.43
4851.64
4770.43
4721.65
4719.38
4725.93
4750.2
4787.99
4830.31
4895.1
5227.78
5970.49
6318.82
6309.98
6182.04
6033.72
5942.43
6117.03
6661.67
6906.88
6948.37
7009.27
7044.65
7055.44
7112.99
7229.46
7372.03
7580.06
8148.7
10022.7
14383.5
20044.4
24051.1
26288.1
27922.6
28946.7
29500.2
29820.2
30124.5
30536
31285.7
43605.2
68344.9
59913.1
64556.8
61290.8
49210.3
33174.3
21285
15212.3
11544.1
9142.5
7453.34
6383.19
5705.53
5272.44
5017.76
4859.81
4778.53
4730.53
4729.17
4736.31
4760.63
4799.89
4842.43
4902.56
5094.2
5799.86
6321.31
6340.89
6215.83
6062.86
5958
6044.4
6544.31
6889.7
6974.6
7029.37
7068.91
7078.78
7134.1
7251.74
7394.44
7589.4
8095.8
9825.3
14101.2
19942.5
24197.5
26547.3
28268.1
29357.7
29945
30275
30568.3
31000
31652.9
32734
43153.8
67886.8
59709
64634.4
61531.3
49300.2
33074.3
21260.1
15246.1
11569.9
9159.53
7467.24
6398.94
5720.17
5284.58
5028.17
4868.83
4786.82
4739.49
4738.97
4746.97
4771.1
4811.31
4855.1
4912.88
5008.42
5603.17
6290.81
6370.71
6252.57
6092.92
5981.21
6009.45
6416.11
6848.36
6999.49
7049.52
7092.75
7102.61
7155.46
7274.08
7417.46
7602.01
8053.55
9640.93
13812.7
19820.6
24334.6
26807.9
28616.8
29776.2
30400.5
30741.1
31029.4
31441.7
32111.8
33093.3
34583.8
42628.5
67277.4
59533
64799.2
61783.3
49365.3
32974.2
21253.2
15289.7
11592
9171.6
7478.81
6413.35
5734.81
5296.93
5039.48
4878.81
4795.53
4748.53
4748.75
4757.57
4781.65
4822.25
4867.69
4923.86
4986.32
5413.03
6179.24
6399.35
6291.58
6123.63
6008.51
6000.26
6296.01
6782.87
7012.98
7070.05
7116.09
7126.86
7177.25
7296.52
7441.03
7617.38
8021.23
9470.76
13521.1
19678.9
24461.8
27069.6
28968.6
30202.1
30866.8
31219.9
31502.7
31901
32547.5
33546.3
34934.5
36914.1
42027.1
66571.3
59403.4
65043.8
62033.4
49383.5
32873.9
21269.2
15346.4
11616.4
9181.61
7487.47
6426.42
5748.32
5309.04
5050.86
4889.43
4804.75
4757.42
4758.22
4767.68
4792.27
4832.83
4879.65
4935.77
4989.25
5262.41
6027.23
6421.49
6330.62
6155.25
6037.75
6002.25
6201.55
6690.66
7012.49
7091.22
7138.9
7151.36
7199.65
7319.15
7465.12
7635.18
7997.97
9315.83
13229.3
19518.1
24578.8
27332.3
29323
30635.5
31343.7
31711.4
31989.7
32373
33001.1
33974.5
35381.7
37254.8
39813.9
41419.7
65810.4
59328
65349
62260.9
49333.3
32765.1
21299
15412.3
11644.5
9193.07
7496.08
6437.84
5760.66
5320.49
5061.95
4899.92
4814.21
4766.12
4766.99
4777.21
4802.88
4843.14
4890.95
4948.58
4999.29
5156.22
5845.64
6423.06
6367.03
6188.42
6066.67
6015.98
6142.38
6575.88
6993.47
7115.63
7161.37
7175.85
7222.78
7342.15
7489.62
7655.17
7982.95
9176.74
12941
19339.1
24685
27596
29679.4
31076
31831.5
32215.4
32490.4
32859.1
33467.5
34420.8
35801.9
37696.5
40142.1
43390.4
40804.9
65082.9
59331.2
65693
62458.5
49224.5
32650
21337.1
15482.2
11675.2
9208.12
7507.31
6449.4
5771.59
5331.22
5072.32
4910.14
4823.53
4774.97
4774.96
4785.99
4813.28
4853.35
4901.74
4961.46
5010.42
5105.66
5653.35
6372.42
6403.46
6224.33
6094.92
6041.6
6112.69
6452.3
6954.04
7140.91
7183.74
7200.09
7246.62
7365.76
7514.49
7677.07
7975.38
9054.06
12659.2
19143.2
24779.9
27860.7
30037.4
31523.4
32329.9
32732.5
33004.9
33359.6
33948.2
34880.1
36240.8
38108.5
40577.7
43701.3
47777
40186.3
64427.8
59395.9
66042.5
62626.3
49054.8
32548.1
21382.9
15552
11705.9
9226.66
7521.24
6462.26
5782.8
5341.35
5081.99
4919.93
4832.87
4784.06
4782.78
4794.33
4823.21
4863.64
4912.36
4973.9
5023.18
5099.83
5482.5
6246.83
6440.38
6264.16
6122.76
6069.73
6102.37
6338.94
6889.48
7157.81
7206.36
7223.88
7271.09
7390.19
7539.77
7700.53
7974.61
8947.94
12386.8
18932.7
24863
28126.6
30396.1
31977.5
32838.8
33262.5
33533.6
33874.3
34443.6
35353.9
36692.8
38539.9
40980.3
44128.5
48062.6
53143.5
39586.9
63857.5
59516
66370.9
62748
48830.8
32456.3
21439
15617.6
11736
9247.21
7537.88
6477.02
5795.27
5351.96
5091.39
4929.39
4842.24
4793.42
4790.89
4802.57
4832.82
4874.03
4923.11
4985.8
5037.27
5108
5346.76
6094.43
6465.08
6306.77
6150.22
6099.42
6106.4
6250.79
6802.31
7163.63
7229.47
7247.22
7296.01
7415.6
7565.65
7725.21
7979.95
8858.56
12126.4
18709.9
24933.9
28394
30754.9
32437.8
33358.1
33805.1
34076.4
34403.9
34953.5
35842.4
37159.4
38984.6
41403.4
44518.8
48476.2
53390.4
59708.4
39016.4
63374.2
59705.6
66666.2
62815
48581.9
32368.3
21505.2
15677.6
11764.2
9268.2
7555.19
6492.94
5808.77
5363.35
5101.35
4938.91
4851.48
4803.22
4799.43
4810.92
4842.17
4884.24
4934.35
4997.31
5051.65
5119.49
5250.79
5920.7
6457.44
6349.82
6177.55
6128.24
6124.07
6192.82
6694.24
7150.79
7252.74
7270.2
7321.18
7441.98
7592.42
7750.83
7990.55
8786.07
11881
18477.3
24989.4
28663.4
31112.8
32904.1
33887.4
34360.6
34633.1
34948.2
35478.5
36345.7
37641
39444.4
41840.3
44931.2
48848.4
53781.3
59895.9
67754.2
38494.6
63042.3
59993.7
66895.7
62827.7
48321.5
32294.1
21569.7
15733
11792.1
9288.9
7572.38
6508.77
5822.59
5375.33
5111.74
4948.78
4860.65
4813.18
4808.6
4819.71
4851.1
4894.12
4946.02
5008.59
5065.41
5131.94
5213.29
5746.87
6397.08
6392.72
6206.17
6156.01
6150.36
6159.95
6575.66
7117.48
7278.1
7293.05
7346.38
7469.27
7620.28
7777.39
8005.6
8730.27
11654.2
18237.6
25028.2
28929.5
31468.8
33375.7
34426.5
34928.3
35204
35507.1
36018.6
36864.3
38137.7
39919.6
42293.1
45358.3
49245
54125.5
60249.1
67850.8
77647.7
37999.9
62855.3
60392
67053.1
62769.8
48072.2
32241.4
21628.1
15782.5
11820.6
9311.65
7589.54
6524.51
5836.51
5387.56
5122.64
4959.1
4869.89
4823.25
4818.27
4829.06
4859.78
4903.41
4957.91
5019.69
5078.12
5146.26
5208.89
5592.69
6276.43
6430.56
6238.38
6182.67
6180.77
6146.11
6462.88
7063.81
7300.13
7316.09
7371.47
7497.32
7649.33
7805.07
8024.22
8690.42
11449.6
17993.6
25050.4
29188.6
31825
33852.3
34974.4
35508.1
35788.5
36080.9
36573.8
37398.3
38650
40410.2
42761.8
45802.4
49657.9
54497.4
60549.3
68143.3
77607.3
89866.2
37495.9
62726
60846.7
67132.7
62627
47861.5
32211.2
21686.1
15824.7
11851.1
9335.27
7607.49
6540.3
5850.16
5399.49
5133.55
4969.79
4879.49
4833.09
4828
4838.95
4868.42
4912.36
4969.67
5030.77
5090.11
5162
5217.63
5468.35
6132
6453.25
6275.27
6208.35
6211.23
6145.08
6371.83
6987.77
7310.16
7339.58
7396.39
7526.01
7679.49
7834.17
8045.79
8664.96
11271.3
17749.1
25056.2
29440.5
32183.3
34333.3
35530.8
36099.2
36386.7
36669.1
37144.2
37947.6
39178
40917
43246.8
46263.5
50089.2
54887.7
60881.7
68375
77804.5
89621.9
105028
36929.7
62552.4
61301.6
67151.6
62396.9
47692.6
32206.3
21743.8
15864.1
11880
9359.47
7626.97
6556.21
5863.95
5411.23
5144.1
4980.64
4889.21
4842.85
4837.54
4849.04
4877.42
4921.13
4980.86
5041.98
5101.95
5177.22
5230.35
5377.53
5976.18
6435.98
6315.15
6233.37
6240.69
6156.37
6310.21
6889.18
7307.29
7363.47
7421.22
7555.19
7710.65
7864.81
8070.17
8652.04
11121.6
17510.6
25045
29685
32544
34818.3
36094.5
36701.1
36997.5
37271.9
37729.6
38512.6
39721.7
41440
43748.6
46741.8
50539.2
55298.7
61235.7
68645.3
77931.5
89674.2
104486
123935
36270.4
62164.2
61681.1
67117.3
62115.9
47540
32219
21802
15905.6
11909
9382.59
7646.99
6573.09
5877.98
5422.96
5154.48
4991.19
4899.2
4852.75
4846.56
4859.1
4887.04
4929.85
4991.52
5053.44
5114.07
5191.2
5247.27
5344.98
5821.9
6362.39
6357.2
6258.54
6269.17
6178.46
6272.8
6773.72
7288.53
7386.92
7446.15
7584.68
7742.66
7896.96
8097.48
8650.12
11000.6
17285.7
25016.5
29921.5
32907.7
35306.5
36664.8
37312.4
37620.6
37888.2
38330
39093
40281.6
41979.4
44267.5
47238.2
51008.1
55730.8
61613.9
68941.6
78105.9
89644.2
104323
122963
147608
35439.9
61493.4
61918.3
67027.8
61811.7
47407.9
32223.4
21859
15952.6
11941.5
9404.37
7666.26
6590.33
5892.67
5435.52
5164.81
5001.32
4909.4
4863.41
4855.61
4869.01
4897.26
4938.97
5001.51
5064.7
5126.43
5203.84
5268.14
5340.96
5687.02
6252.78
6394.36
6285.06
6296.62
6205.73
6255.83
6660.32
7251.66
7409.79
7471.32
7614.34
7775.41
7930.43
8127.84
8658.43
10906.6
17081.1
24973.1
30147.2
33275.4
35794.5
37236.5
37929
38251.9
38515.3
38943.4
39689
40857.3
42535.8
44803.7
47752.8
51496.5
56183.9
62016.2
69267
78312.6
89673.6
104062
122491
146033
177338
34440.4
60484.5
62017.5
66930.8
61525.2
47294.8
32225
21907.1
16004.4
11977.2
9427.68
7683.92
6606.58
5907.98
5448.85
5175.53
5011.26
4919.34
4874.58
4864.97
4878.69
4907.52
4948.79
5011.31
5075.39
5140.25
5215.81
5290.11
5350.22
5580.74
6124.39
6410.56
6315.24
6323.22
6235.26
6252.07
6563.71
7194.7
7424.4
7496.9
7644.12
7808.83
7965.01
8161.07
8676.77
10838.3
16899.2
24921.9
30359
33639.5
36277.3
37810
38552.9
38893.3
39153.5
39568.5
40296.8
41448.8
43109
45357.8
48285.9
52004.9
56659
62443
69621.1
78555.1
89744.1
103877
121897
145125
174932
214712
33293.9
59167.1
62024.2
66872.3
61307
47198.5
32237.8
21944.3
16054.7
12013.6
9452.32
7701.22
6622.16
5922.65
5462.5
5187.54
5021.61
4928.87
4886.02
4875.26
4888.36
4918.04
4959.37
5021.02
5085.49
5155.15
5227.98
5311.12
5362.67
5507.32
5987.69
6385.05
6349.92
6349.25
6265.2
6255.72
6490.62
7113.1
7431.07
7522.79
7674.04
7842.77
8000.61
8196.79
8704.76
10794.4
16737.7
24871.5
30549.4
33991
36761.1
38389.2
39184.5
39544.2
39802.6
40205.2
40917.5
42052.6
43697
45929.7
48838.3
52533.5
57156.4
62895
70004.3
78832.7
89859.6
103745
121402
144063
173431
211200
261642
32049.6
57585.4
61981.7
66873.1
61166.2
47109.9
32267.6
21983.6
16098.5
12047.8
9478.98
7719.17
6637.32
5936.47
5475.61
5200.12
5032.8
4938.2
4897.35
4886.19
4898.32
4927.79
4970.24
5031.78
5094.68
5170.44
5241.24
5330.03
5380.36
5476.51
5859.34
6301.97
6387.62
6376.39
6295.09
6272.04
6442.88
7012.22
7428.07
7548.72
7704.13
7877.13
8036.98
8234.19
8739.6
10773.3
16592.6
24809.2
30718.5
34329.3
37247.9
38975.5
39824
40203.4
40461.3
40852.8
41550.1
42669.9
44299.2
46517.4
49410
53083.3
57676.4
63372.5
70417.1
79145.9
90019.3
103671
120974
143127
171725
208917
256703
320357
30754.2
55865
61958.2
66919.1
61113.7
47002.9
32307.4
22031.5
16143.3
12075.2
9504.27
7739.01
6654.11
5950.45
5487.46
5212.52
5045.46
4948.02
4907.4
4897.13
4910.03
4937.24
4981.27
5043.29
5103.56
5186.1
5255.57
5347.25
5403.15
5467.73
5753
6204.47
6423.06
6405.46
6325.1
6296.65
6419.71
6901.2
7412.78
7572.55
7733.92
7911.01
8073.09
8271.59
8774.94
10756.1
16441.7
24728.9
30894.1
34658.7
37730.7
39570.4
40471
40870.8
41127.6
41509.6
42194.1
43300.2
44916.6
47121.5
50000
53654.4
58220.1
63876
70860
79494.9
90223.3
103653
120622
142279
170179
206349
253429
313648
393399
29522.4
54200.5
62064.4
67061.4
61140.3
46882.5
32334.6
22084.5
16190
12101.3
9525.79
7759.48
6671.93
5965.41
5498.92
5223.96
5058.82
4958.78
4916.56
4908
4923.22
4946.78
4991.72
5056.61
5112.5
5201.41
5270.86
5364.57
5424.91
5467.88
5673.87
6093.76
6441.89
6437.84
6355.36
6326.07
6415.36
6793.45
7382.71
7592.16
7763.32
7944.53
8109.17
8309.43
8811.55
10747.4
16306.5
24651.3
31081.6
34993.3
38198.1
40170.6
41127.1
41544.2
41801.4
42175.7
42848.9
43942.9
45547.8
47741.9
50608.1
54247
58787.9
64406.5
71333.5
79880.4
90471.9
103691
120342
141528
168745
203983
249749
309175
384579
483622
28354.6
52685.5
62403.1
67325.5
61245.5
46772.8
32353.3
22128.1
16235.6
12129.3
9548.02
7778.28
6690.15
5981.1
5511.16
5234.13
5071.73
4970.91
4926.37
4917.72
4936.93
4957.01
5000.72
5070.13
5123.1
5216.31
5287.04
5381.14
5444.83
5474.2
5612.68
5974.8
6424.25
6475.21
6386.15
6359.09
6422.34
6704.37
7329.73
7606.96
7792.47
7977.75
8144.98
8347.19
8849.18
10745.3
16187.7
24571.4
31272.1
35352.8
38649.5
40765
41792.2
42224.2
42484
42849.5
43511.5
44595.7
46191.8
48377.4
51234.3
54860.3
59381.5
64964.5
71838.6
80302.7
90765.5
103786
120136
140871
167435
201752
246309
304110
378727
472377
594246
27435.8
51224.8
62801.9
67712.2
61382
46683
32386.4
22169.7
16271.7
12157.1
9572.39
7796.14
6707.7
5997.88
5525.62
5244.52
5082.98
4983.6
4937.62
4926.28
4950.11
4969.52
5009.52
5082.6
5136.54
5230.19
5304.07
5396.66
5461.39
5485.99
5564.33
5864.84
6360.34
6516.71
6418.16
6394.17
6436.34
6640.73
7252.76
7617.59
7820.98
8010.34
8180.1
8384.42
8887.83
10748.2
16081.4
24498.4
31452
35736.5
39113.3
41336.3
42462.6
42915.2
43173.8
43529
44180.7
45256.5
46846.5
49026.9
51877.5
55494.2
59999
65554
72375.6
80762.9
91104.8
103938
120001
140309
166246
199677
243028
299320
372012
465024
580299
728994
26471.6
50281
63086.6
67992.9
61431.9
46563
32425.1
22230.5
16303.2
12179.8
9598.64
7815
6723.87
6013.58
5540.78
5256.36
5092.24
4995.65
4951.34
4935.63
4961.65
4982.92
5019.02
5094.28
5151.75
5242.83
5321.58
5409.94
5473.43
5497.42
5532.68
5768.91
6272.03
6558.86
6452.58
6430.67
6460.09
6602.84
7159.36
7622.56
7847.82
8041.87
8214.22
8420.88
8927.65
10755.4
15984.7
24431
31621.3
36121
39613.7
41898.9
43119
43622.2
43868.7
44214.8
44855.1
45923.6
47509.8
49688.4
52536.7
56147.7
60640.5
66172
72951
81261.2
91490.6
104147
119940
139840
165178
197753
239932
294698
365589
456431
571398
712092
892333
27696
49903.2
63730.6
68218.8
61408.3
46351.2
32421.3
22301.1
16343.9
12202.7
9621.75
7835.48
6740.74
6027.65
5555.5
5269.91
5102.22
5005.73
4966.38
4946.6
4969.36
4995.58
5031.37
5104.35
5169.13
5255.63
5337.66
5419.63
5480.28
5505.85
5510.44
5687.78
6184.12
6595
6490.56
6468.95
6492.07
6590.42
7059.87
7612.3
7873.12
8072.8
8247.92
8456.82
8967.88
10765.5
15893.8
24365.1
31790.3
36478.3
40123.6
42526.8
43733.9
44333.1
44577.7
44904.7
45535.3
46595.1
48179.5
50359.5
53209.8
56819.9
61305.2
66818.4
73561.4
81805.3
91924
104415
119952
139465
164231
195983
237020
290284
359320
448119
560760
701666
872209
1.08983e+06
28513.7
59482.5
66468.5
68843.1
61484.8
46184.4
32317.5
22351.7
16391.7
12235.7
9645.38
7854.6
6758.79
6042.44
5568.19
5283.41
5115.06
5013.87
4980.31
4958.98
4975.62
5007.61
5047.08
5113.27
5186.55
5268.17
5350.21
5424.36
5481.67
5510.14
5496.35
5625.63
6088.02
6607.89
6533.27
6509.09
6528.11
6598.85
6966.85
7584.69
7894.52
8101.15
8279.25
8491.11
9006.92
10777.3
15807.5
24296.1
31955.4
36837.3
40595.2
43189
44423.4
44966.1
45317.2
45603.4
46218.4
47271.9
48853.1
51037.7
53894.1
57508.6
61992.2
67492.6
74206.2
82394.1
92409.3
104742
120038
139186
163407
194368
234298
286081
353265
439912
550357
688885
860327
1.06615e+06
1.32864e+06
28300.4
63543.2
75814.3
72311.8
61909.3
46258.5
32203.2
22337.4
16430.7
12275.3
9674.17
7873.24
6776.11
6058.08
5580.12
5295.14
5129.83
5022.92
4989.97
4972.71
4983.73
5016.64
5065.48
5123.61
5203.51
5278.83
5357.04
5422.89
5477.54
5510.68
5489.75
5576.44
5984.36
6593.75
6581.62
6551.69
6567.12
6620
6888.57
7542.02
7910.55
8126.41
8307.51
8523.03
9044.1
10789.8
15724
24221.3
32112.5
37201.5
41061.4
43811.4
45175.6
45663.2
45946.4
46354.1
46901.9
47950.5
49531.4
51719.7
54586.9
58211.1
62699.4
68193.9
74884.7
83025.1
92953.8
105131
120200
139002
162705
192909
231769
282102
347432
431892
539967
676259
845357
1.05288e+06
1.30095e+06
1.61811e+06
28231.7
62919.8
84145
74569.8
63961.1
46641.8
32282.3
22284
16450.7
12306
9707.69
7894.6
6791.96
6074.37
5594.95
5304.75
5144.54
5034.93
4994.61
4985.63
4996.73
5023.91
5083.67
5134.71
5217.22
5284.92
5355.91
5419.42
5474.79
5507.69
5486.29
5533.22
5885.03
6550.5
6632
6596.9
6608.51
6648.41
6831.56
7480.22
7920.96
8149.85
8334.46
8554.04
9080.74
10803.7
15641.7
24138.5
32260.3
37565.2
41541.6
44423.7
45885.6
46444.1
46618.6
46970.2
47654.2
48621.4
50210.6
52405.9
55283.9
58924
63423.6
68920.2
75596.5
83697.7
93551.3
105597
120438
138915
162128
191610
229437
278354
341845
424077
529693
663510
830436
1.03569e+06
1.28629e+06
1.58578e+06
1.97058e+06
28208.4
62737.2
83705.9
81754.9
52626.7
44979.6
32654.8
22402
16454.1
12325.4
9731.38
7921.53
6810.07
6087.39
5611.57
5315.23
5154.72
5048.24
5000.62
4995.08
5013.99
5030.48
5100.75
5146.92
5224.7
5282.54
5353.44
5419.65
5474
5505.06
5484.52
5497.91
5792.22
6475.2
6680.24
6643.76
6651.58
6679.61
6798.15
7402.32
7921.97
8170.22
8359.36
8584.05
9117.21
10819.9
15561.8
24047.1
32396
37928.9
42030
45059.3
46577.1
47191.4
47397.3
47605.6
48256.3
49373.3
50874.9
53091.8
55984.9
59642.3
64161.3
69668.1
76339.6
84411.7
94200.7
106130
120773
138925
161676
190470
227306
274846
336517
416504
519565
650758
815218
1.01842e+06
1.2668e+06
1.56961e+06
1.93275e+06
2.4026e+06
28238.8
62848.7
83647.3
82017.7
55816.4
21451.2
29056.9
22517.8
16625.4
12341.8
9754.26
7939.94
6830.58
6100.49
5625.72
5328.85
5159.89
5061.36
5013.52
5001.12
5032.87
5039.23
5114.05
5155.58
5221.86
5283.31
5356.38
5423.3
5475.15
5502.69
5482.63
5475.49
5709.43
6393.69
6724.05
6692.24
6694.55
6712.01
6786.12
7313.95
7911.35
8187.4
8382.35
8613.04
9153.37
10838.3
15484.9
23947.8
32519.2
38291.1
42530
45710.4
47294.7
47908.7
48150
48367.5
48856.4
49964.9
51629
53757.4
56684.7
60364.9
64906.4
70433.5
77110.2
85164.9
94901.9
106729
121197
139055
161353
189494
225380
271587
331469
409199
509635
638039
799835
1.00067e+06
1.24712e+06
1.54764e+06
1.91477e+06
2.35814e+06
2.93657e+06
28341.9
63225.9
83871.1
82392.5
55959.4
20576.7
8500.32
19297.5
16283.1
12450.7
9799.47
7963.69
6849.33
6117.71
5636.14
5342.95
5170.1
5069.89
5031.45
5006.26
5049.11
5052.37
5119.08
5152.03
5221.18
5291.06
5364.55
5430.09
5477.89
5500.45
5479.36
5463.42
5642.89
6299.92
6757.15
6742.35
6737.05
6745.46
6789.87
7224.27
7886.07
8200.95
8403.61
8641.15
9189.45
10859.1
15411.7
23841.3
32629.9
38651.2
43041.7
46382.9
48032.9
48650.9
48862.5
49110.4
49598
50535.8
52215.7
54519.5
57359.6
61085.9
65656.7
71209.3
77903.9
85953.6
95652.9