/*--------------------------------*- C++ -*----------------------------------*\
| =========                 |                                                 |
| \\      /  F ield         | OpenFOAM: The Open Source CFD Toolbox           |
|  \\    /   O peration     | Version:  v2012                                 |
|   \\  /    A nd           | Website:  www.openfoam.com                      |
|    \\/     M anipulation  |                                                 |
\*---------------------------------------------------------------------------*/
FoamFile
{
    version     2.0;
    format      ascii;
    class       volScalarField;
    location    "12000";
    object      p;
}
// * * * * * * * * * * * * * * * * * * * * * * * * * * * * * * * * * * * * * //

dimensions      [1 -1 -2 0 0 0 0];


internalField   nonuniform List<scalar> 
27324
(
52378.4
55106.2
52378.2
56768.5
55105.6
52378.3
58537.4
56767.9
55105.1
52378.2
60086.2
58535.5
56767.3
55103.5
52378
61046.4
60083.3
58532.5
56765.9
55100.9
52377.7
61579.3
61045
60078.1
58525.6
56763.2
55095.2
52377.3
61986.1
61580
61042.2
60066.4
58513.3
56757.2
55087.2
52378.3
62367.6
61985.5
61580.9
61036.9
60045.4
58492.1
56749.7
55073.8
52380.9
60659.2
62361.3
61984.7
61582.5
61025.5
60011.2
58460.6
56735.5
55053
52388.8
52777.7
60625.4
62349.4
61982.5
61584.6
61008.3
59957.7
58412.7
56713.7
55019.1
52408.4
38658.4
52710.9
60562.5
62320.8
61978.5
61588.1
60979
59878.9
58345.4
56676.4
54970.6
52446
27514.9
38649.2
52588
60421.3
62274.2
61973.3
61589.1
60940.5
59766.3
58254.2
56614.4
54892.3
52527.5
23331
27549.6
38627.2
52324.8
60176.7
62184.7
61962.6
61581.5
60887.1
59613.3
58136
56504.1
54802.6
52648.3
22576.4
23345.6
27606.9
38584.5
51879.2
59743.4
62039.5
61933.2
61559.2
60807.5
59414.8
57991.4
56325.9
54672.4
52855.2
22464.6
22578.7
23370
27734.1
38509.7
51153.3
59060.9
61784.8
61882.9
61517.7
60676.9
59186.5
57811.9
56030.1
54598.2
53072.6
22472.7
22465.4
22583
23424
27943.3
38400.8
50097.6
57977.9
61349.5
61768.1
61435.8
60446.8
58934.8
57577.9
55700.7
54480.8
53321.8
22568.9
22473
22467.1
22593.4
23515.7
28289.9
38243
48613.2
56356.8
60555.7
61531.1
61277.3
60087.7
58692.7
57254.7
55315.1
54627.1
53484.5
22651.6
22569.1
22473.6
22470
22610.8
23674.8
28817.2
38044.5
46714
53991.3
59095
60942.4
60941.5
59579.4
58388.4
56682
55271
54669.4
53641.9
22739.4
22651.8
22569.2
22474.7
22475
22643.8
23933.8
29568.6
37820.5
44487
50774.4
56457
59533.7
60029.9
58739.9
57746.5
55899
54761.5
54324.2
52579.5
22813.5
22739.4
22651.7
22569.4
22476.7
22481.9
22696.4
24354.3
30577.9
37606.5
42188.4
46859.5
52156.9
56137.7
57532.4
56797.1
56105.3
53146.8
54486.5
49982
52426.4
22866.5
22813.5
22739
22651.7
22570.1
22480.1
22496.5
22788.8
25001.6
31848.8
37448
40188.5
42930.2
46467.1
49816.8
51370.9
51193.9
50139.5
48144.8
45711.1
42915.2
43124.2
22907.8
22866.5
22813.1
22738.6
22651.5
22570.8
22486.2
22515.9
22946.5
25997
33314.5
37378.6
38803.7
39936.8
41290.9
42499
42780.3
42044.5
40500.3
38480.6
36584.7
34964.5
39553.2
22944
22907.8
22866.3
22812.7
22737.3
22651.8
22572.7
22495.3
22549.6
23225.9
27436.5
34842.1
37432.7
38096.9
38406
38505.1
38165.6
37270.2
35993.1
34696.3
33687.7
33261.3
33925.4
41243.9
22980.9
22944
22907.8
22866
22811.6
22736.3
22651.3
22574.7
22510.2
22606
23725.3
29376.2
36238.2
37632.8
37966.8
37979.3
37514.3
36450.6
35102
33891.6
33122.4
32911.1
33209.6
36172.7
45622.4
23019.7
22980.9
22943.9
22907.5
22865.5
22810.6
22733.6
22651.1
22577.8
22533.3
22710.9
24625.7
31682.7
37371.8
37931.9
38101.6
37912.9
37149.7
35794
34401.3
33378.7
32899.4
33056.2
34422.1
41218.3
48993.3
23057.5
23019.6
22980.7
22944.1
22907.6
22865
22807.6
22730.6
22650.6
22582.6
22569.5
22922.2
26158.9
34009.9
38132.8
38299.7
38237.1
37831.6
36697.7
35245.7
33974.1
33262.8
33069.7
33499.3
38181.4
46317.3
50675.5
23088.3
23057.4
23019.5
22980.9
22944.2
22907.8
22863.1
22804.4
22725.6
22650.6
22590.7
22618.9
23379.2
28490.1
35897.3
38404
38410.6
38241.9
37474.8
36112.3
34646.2
33591.4
33195.3
33255.5
35540.6
43686.5
49353.5
51428.1
23108
23088.1
23057.3
23019.5
22981.3
22944.5
22906.6
22861.4
22798.7
22720.6
22649.8
22603.8
22713.3
24349
31452
37047
38358.6
38404.2
38021.2
36942.3
35379.1
34051.1
33310.4
33221.8
34018.6
40383.1
47956.7
50778.1
51879.1
23110.9
23107.9
23087.9
23057
23019.9
22980.5
22944.2
22906.4
22857.7
22791.5
22713.6
22651.2
22635.2
22926.9
26246.5
34436.1
37724.3
38424.7
38335.8
37684.7
36194.2
34645.3
33577
33231.9
33386.1
37313.3
45765.7
50170.9
51497.7
52276.7
23089.5
23110.7
23107.6
23087.1
23056.8
23019
22981.7
22944.6
22904.9
22853.1
22781
22708.1
22654.2
22677.2
23511.2
29258.4
36811.9
38358.7
38506
38234.7
37035.9
35363.2
33976.7
33316.7
33223.1
35041.9
42947.6
49160.4
51211.4
51969.9
52692.2
23055.5
23089.5
23110.5
23107.4
23086.5
23055.5
23019.5
22981.6
22944.8
22903.1
22845.7
22769.3
22701.5
22665.3
22790.7
24941.2
32819
38103.8
38606.2
38536.4
37789.9
36173.9
34515.5
33479.5
33202.9
33774.3
39786.8
47681.7
50767.3
51786.4
52368.1
53077.2
23011.3
23055.7
23089.4
23109.6
23106.4
23085.1
23054.8
23018.3
22982.6
22944.8
22899.8
22835.9
22754.3
22698.6
22693.2
23143.6
27805.1
35739.4
38457.9
38641.1
38328.2
37013.5
35181.6
33801.2
33201.1
33257.5
36890.4
45577.5
50138
51545.1
52192.4
52722.7
53413.6
22962.5
23011.7
23055.4
23088.6
23108.6
23104.2
23083.4
23052.8
23018.2
22982.5
22944.6
22894.6
22821.8
22743.2
22696.8
22757.2
24268.1
31820.4
37535.9
38648
38603.1
37784.8
35956.8
34240.6
33299.1
33110.8
34784.4
42876.7
49196.2
51247.8
51997.9
52514.2
53103.4
53968.2
22920.4
22962.9
23011.5
23055.2
23087.6
23106.7
23103
23080.3
23050.8
23016.8
22982.8
22942.6
22886
22806.3
22734.7
22718.7
22997.5
27020.2
35491.3
38471.7
38706.2
38368.6
36788.3
34831.6
33484.6
33078.4
33616.1
39865.4
47812
50838.9
51800.6
52291.4
52900.1
53814.9
54649
22899.9
22920.6
22963
23011.6
23053.9
23086.9
23104.2
23096.8
23076.1
23046.9
23015.7
22981.6
22938.9
22872.8
22786.9
22735.5
22762.9
23993
31326.1
37663.4
38743
38686.8
37585.2
35541.3
33828.7
33074.5
33150.9
37059.4
45866.6
50255.6
51574.1
52088.4
52668
53701.2
54705.1
55721.9
22899.9
22900.1
22921.6
22963.4
23012
23053.9
23083.8
23099.4
23093.1
23070.2
23042.2
23012.5
22979.3
22929.9
22853.2
22777.1
22750.7
22964.8
26807.9
35404.2
38534.7
38786.3
38213.4
36345.5
34312.7
33217
33034.6
34938.5
43352.2
49407.2
51292.2
51895.4
52445.6
53564
54703.1
56066.5
57189.7
22934
22900.1
22900.1
22921.7
22964.5
23011.7
23051.5
23081
23093.8
23083
23062
23034.6
23007.5
22972
22913.3
22828.2
22768.6
22781.2
23983.8
31504.7
37739.5
38799.8
38567.3
37172.7
34947.6
33442.9
33019.6
33681.7
40477.9
48181
50917.3
51702.5
52239.1
53417.4
54698.2
56235.2
57869.4
58935
22975
22933.9
22900.6
22901.1
22923.4
22965.3
23011.2
23049.7
23075.5
23084.9
23072
23049.7
23024.7
22997.9
22957
22885
22798.5
22773.5
22984.9
27107.7
35776.4
38585.4
38670.6
37912.2
35712.2
33839.1
33045
33130.2
37672.2
46465.4
50401.3
51488.8
52061.6
53260
54686.1
56412.8
58228.1
59929.1
60797.1
23017.3
22974.6
22934.1
22901.7
22903.6
22925.2
22967
23010.8
23046.1
23068.4
23072.9
23056.3
23034.2
23010
22981.2
22928.4
22844.7
22778.9
22779.8
24205.5
32164.9
37979
38675
38435.6
36569.5
34376.8
33162.5
32969.3
35398.3
44216.9
49671.1
51233.5
51914.9
53097.5
54673.8
56559.1
58606.2
60478.5
62063.2
62639.3
23046.9
23016.8
22974.6
22934.8
22903.6
22905.2
22929.1
22969.2
23009.9
23041.6
23058.1
23056
23037.8
23013.7
22988.9
22953
22880.6
22791.4
22752.7
23053.9
27883.9
36354
38562.6
38677.7
37431.2
35067.6
33401.6
32942.3
33910.7
41545.3
48636.1
50908.1
51770.3
52945.3
54660
56708.6
58948.7
61075.9
62783
64130.9
64362.8
23059.2
23046.1
23016.1
22974.6
22935.1
22905.5
22909.6
22933.4
22972.4
23008.8
23034.8
23044.3
23035.7
23011.6
22988.6
22960.4
22908.3
22815.1
22745.1
22766
24668.7
33327.5
38222.9
38730.6
38158.7
35876.6
33793.2
32941.9
33159
38759.5
47199
50470.3
51619.5
52840.5
54646.9
56854.4
59273.2
61631.5
63582
64993.5
66039.3
65904.6
23040.1
23058.4
23045.4
23015.4
22974.1
22937.5
22909.5
22915.7
22939.9
22976.8
23007.2
23026.7
23026.4
23008.2
22983
22958.1
22920.3
22842.3
22749.1
22706.8
23180.7
29275.5
37064.5
38737.5
38619.6
36761.6
34328.8
33040.3
32888.5
36280.2
45290
49866.4
51444
52779.6
54622.6
57003
59582.9
62165.9
64340.7
65964.5
67017.4
67735.3
67233.4
23012.3
23039.8
23057.3
23044.2
23013.8
22974.6
22939.2
22915.3
22924.4
22949.7
22981.9
23006.3
23015.1
23004.3
22979.4
22950.5
22921.1
22866.7
22757
22688.2
22750.3
25677.8
34826.6
38549.9
38802.8
37623.9
35017.5
33251.3
32830.7
34443.5
42926.9
49030.1
51215.9
52764
54602.3
57155.1
59886.3
62676.4
65082.6
66901.5
68126.9
68810.1
69187.8
68399
22976.9
23012.4
23038.5
23055.6
23042.2
23012.5
22973.8
22943.4
22923.1
22936.7
22962.3
22988.9
23004.8
23004.9
22982.9
22948.4
22919.4
22881.1
22793.2
22684.3
22671.9
23622.8
31287
37953.2
38835.5
38326.2
35825.7
33616.1
32823.2
33345
40278.7
47887.7
50899.8
52775.4
54591.9
57313.7
60191.2
63168
65799.2
67832.8
69209.1
70032.4
70345
70453.1
69304.7
22947.6
22977.4
23011.4
23037.1
23053.1
23039.4
23009.3
22974.5
22947.9
22935.2
22951.4
22979.5
22998.4
23007.1
22992
22960.1
22922.4
22891.2
22830.5
22727.6
22665.3
22877.7
27456.8
36442.6
38830.4
38747.9
36716.3
34144.2
32871
32843.1
37669.3
46365.6
50452.5
52807.5
54599.7
57480.3
60504.7
63645.4
66491.4
68745.7
70298.3
71230.8
71662.7
71673.3
71407.1
70155.1
22942.2
22948.6
22977.1
23010.7
23035.8
23049.8
23035.1
23006.5
22974.5
22955.4
22949
22972.7
22998.8
23012.5
23007.7
22982.1
22943
22907.7
22869.3
22781
22678.6
22720
24616.8
33799.8
38516.9
38900
37603.8
34805.4
33045.3
32683.3
35462.7
44418
49845.6
52797.3
54651.8
57657.4
60832.3
64115
67160.7
69637.3
71381
72444.9
72958.7
73060.5
72671.7
72348.7
70759.8
22960.1
22943.2
22948.5
22977.4
23009.5
23032
23044.1
23029.2
23001.7
22975.6
22962.7
22970.2
22996.7
23022.8
23026.4
23010.4
22975.5
22936.9
22906.7
22844
22731.8
22711.7
23221.9
30166.8
37754.6
38929
38349
35606.1
33363.6
32646.7
33886.3
42106.7
49039.6
52693.1
54751.8
57848.5
61177.6
64583.2
67811.2
70504.4
72453.8
73662.2
74275.7
74425.8
74123.4
73669.3
73003.5
71242.2
22983
22961.1
22944.2
22950.2
22977.1
23007.5
23028.4
23037.7
23021.4
22996
22976
22976.3
22990.6
23026.1
23044
23039.9
23015.4
22974
22942
22900.7
22794.6
22728.5
22773.1
26644.4
36042
38905.6
38822.2
36496.2
33844
32645.1
32964.5
39626
47909.2
52425
54918.6
58056.9
61541.1
65057
68448.2
71346.8
73510
74881.3
75601
75818.7
75574.9
75167.2
74364.4
73510.3
71606.3
23001.4
22983.7
22962.4
22946.4
22951.8
22978.4
23005
23022.5
23027.5
23010.5
22988.7
22979.5
22984.5
23018.9
23051.2
23063
23051.3
23014.5
22974.1
22940.8
22857.6
22744.1
22690.9
24236.1
33265.6
38591.9
39018.4
37416.8
34460
32756.6
32543.9
37253.4
46432.6
52053.6
55170.7
58285.2
61921.3
65543.5
69078.1
72166.5
74544.1
76096.9
76934.6
77225.2
77054.5
76645.7
75909.4
74899.1
73882.6
71878.1
23010.5
23001
22984.7
22964.1
22948.4
22953
22978.1
23001.8
23015
23015.7
22997.3
22981.1
22977.2
23002.4
23041.2
23073.5
23073.4
23048.6
23001.5
22965.9
22901.5
22774.4
22678.6
23092.3
29709.6
37810.2
39065.7
38245.6
35208.9
33009.6
32408.9
35271.4
44619.6
51481.5
55431.4
58533.2
62315.9
66049.8
69707.4
72967.9
75552
77302.7
78273.5
78645.2
78550.6
78157
77443.6
76468.1
75296.3
74154.5
72076.4
23008.4
23010.3
23001.7
22985.9
22966.8
22952.5
22957.4
22978.6
22997
23004.9
22999.4
22980.9
22969.2
22981.4
23015.3
23061
23081.6
23067
23021.2
22977.5
22924.3
22815.4
22676.9
22727.1
26403.5
36151.1
39068
38847.1
36057.3
33419.7
32375.9
33858.5
42550.2
50667.6
55674.1
58801.6
62724.7
66582.5
70342.7
73756.8
76533.2
78491
79614.3
80075.4
80062.9
79689.2
79011.9
78029.4
76884.7
75588.1
74349.2
72220.5
23000.8
23007.7
23009.9
23002
22987.5
22970.5
22957.4
22962.7
22979.6
22991.9
22992.2
22980.8
22962.2
22960.9
22982.9
23030.1
23064
23071.7
23031.4
22981.9
22931.9
22855.5
22696.3
22656.9
24168.3
33474.1
38820.7
39158.1
36976.2
33983
32390.7
33045.6
40366.9
49586.9
55862
59099.6
63151.1
67146.1
70990.2
74538.7
77490.3
79654.9
80951.5
81514
81587.7
81242
80602.5
79626.6
78468.4
77189.3
75798.4
74488.7
72323.9
22993.7
23000
23006.4
23009.2
23002.4
22990
22975.5
22964.5
22968.8
22981.6
22985.3
22980.7
22958
22944.7
22953.2
22987
23033.9
23054.8
23031.8
22988.2
22933.8
22885.2
22741.4
22649.6
23086.6
30060.5
38147.6
39256.1
37886.4
34647.7
32691.1
32690.9
38300.2
48293.4
55800.8
59471.5
63600.5
67741
71656.2
75319
78428.9
80789.9
82277.7
82958.3
83121.6
82812.3
82215.5
81247.9
80088.1
78788.6
77408.5
75950
74589.4
72396.8
22985.4
22993.7
22999
23004.9
23008.4
23003.5
22992.7
22981.6
22973.1
22977
22983.7
22981.4
22965.1
22937.6
22931.2
22949.7
22995.1
23034
23024.8
22999.4
22938.7
22906.1
22800.5
22659.3
22725.2
26808.5
36701.7
39277.3
38666
35422.5
33066.4
32547.9
36574.3
46685.3
55223
59909.7
64078.9
68362.8
72346.9
76102.7
79355.8
81895.4
83583.7
84404.9
84660.5
84395.7
83847.6
82893.8
81733
80424.2
79018.9
77566.1
76059.4
74662.8
72447.3
22974
22985.7
22992.4
22997.4
23002.2
23006.8
23003.3
22996.2
22988.8
22983.5
22987.7
22988
22974.5
22952.3
22922.2
22926.3
22956.7
23010.5
23019.9
23012.9
22958.1
22923.7
22859.8
22697.9
22656.7
24485.2
34244.1
39177.9
39184.2
36286.2
33623.4
32517.8
35373
44868.2
54562.5
60432.9
64590.6
69004.2
73068.2
76895.7
80277.1
82975.5
84860.6
85847.8
86201.2
85987
85495.8
84561.5
83403.8
82085.9
80665.9
79184.3
77679.7
76138.5
74716.6
72481.4
22956.5
22974.7
22985.6
22991.9
22995.1
22999.4
23005.5
23005.6
22999.7
22997.4
22997
22999
22991.1
22971.5
22943.5
22918.1
22936.7
22987.1
23015.7
23028
22987.1
22941.3
22906.1
22753.8
22648
23235.8
31056.9
38675.5
39425.5
37232.8
34280.9
32793.5
34708
42996.3
53590.3
60915.7
65133.5
69658.3
73824.4
77705.2
81197
84037.3
86102.4
87277.4
87740.4
87581.9
87156
86249
85098.3
83774.4
82339.8
80839.3
79303.6
77762.1
76196
74756.5
72503.8
22943.6
22956.9
22975.2
22985.5
22990
22991.9
22995
23002.1
23005.2
23004.9
23005.9
23009
23010.4
22995.5
22970.6
22942.2
22932.4
22972.7
23013.8
23044
23021.1
22959.7
22938
22819.2
22653.2
22743.9
27767.4
37533.4
39519
38197.6
35037.1
33268.1
34433.1
41226.6
52374.5
61301.6
65702
70323.4
74617.2
78540
82118.7
85088.2
87309.1
88681
89273.3
89177.2
88824.2
87953.1
86815
85488.1
84041.3
82521.9
80964.5
79390.1
77822
76237.8
74786.4
72518.1
22941.3
22944.4
22957.9
22976
22985.5
22988
22987.6
22990.3
22998.5
23005.6
23007.9
23014
23021.7
23019
23000.6
22970.4
22954.5
22966.5
23010.1
23060
23048.3
22980.4
22958.6
22868.8
22672.8
22599.9
25187.6
35503.6
39532.9
39047.4
35889.8
33947.5
34333.9
39775.3
51012.6
61269.3
66317.3
71007.4
75443.9
79407.8
83046.2
86133
88486.8
90046.4
90791.6
90772.1
90495.6
89670.6
88550.9
87225.3
85768.8
84232.7
82653.5
81055.4
79453.2
77865.9
76268.5
74808.9
72527
22950.8
22941
22944.6
22959.1
22977.6
22985
22985.1
22982.6
22984.5
22994.7
23004.5
23012.4
23019.7
23030
23022.4
23000.4
22976.1
22973.3
22997.5
23064.6
23060.5
23003.7
22971.2
22899.6
22723.7
22569.9
23611.7
32657.4
39263.3
39672
36840.8
34739.9
34339.1
38816.4
49418.5
60763.8
66997.9
71721.9
76297.1
80314.1
83985.1
87173.3
89644.7
91366.5
92282.6
92368.2
92164.7
91397
90302.5
88983
87520.4
85969.8
84371.1
82749.2
81121.9
79499.7
77898.3
76291.1
74825.9
72532.3
22957.5
22950.4
22940.8
22945.6
22961.6
22979.3
22985.7
22981.2
22976.2
22979.2
22990.5
23002.8
23012.8
23020.9
23030.7
23015.6
22994.5
22974
22985
23044.8
23058.6
23024.2
22978.7
22912
22786.6
22565.2
22865.1
29458.4
38517.7
40025.9
37883.3
35632
34908.9
38333.5
47753
60051.5
67740.7
72473.7
77165.7
81259.7
84944.2
88208.7
90791.1
92643.1
93733.8
93965.1
93825.2
93126.4
92064.7
90757.2
89292.8
87731.2
86115
84471.7
82819.4
81171
79534.1
77922.5
76307.9
74838.9
72535.5
22951
22957.3
22949.3
22940.5
22946.7
22964
22982.3
22983.9
22977.2
22971
22973.8
22986.6
23000.1
23009.8
23015.2
23018.8
22999.3
22973.6
22973.3
23015.3
23040.9
23037.9
22987.5
22914.6
22841.6
22583.2
22595.5
26617.7
36951.8
40171.1
39000.1
36644.9
35619.4
38153.5
46204.3
59091.7
68395.1
73259.6
78040.8
82241.7
85932.9
89240.9
91927.9
93885.8
95134.6
95548.4
95471.4
94850.8
93830.6
92542.8
91082.1
89513.3
87883.2
86220.6
84545.7
82871.3
81207.6
79559.9
77940.6
76320.4
74848.8
72537.4
22930.2
22951.3
22956.9
22948.6
22940.1
22948.8
22969.5
22983.6
22983.1
22971.7
22964.8
22970.7
22984.6
22995.3
23002.2
23004.1
22997.2
22976.8
22963.4
22983.4
23020.4
23040.5
23001.5
22914.3
22880.9
22651
22531.2
24541.8
34596.5
40215.3
40144
37764.3
36596.2
38120.4
45010.6
57936.2
68849.5
74073.3
78921.7
83254.1
86957.5
90276.2
93051.8
95106.9
96478.3
97093.3
97101
96562.7
95592.9
94333.3
92883.2
91312.4
89671.9
87993.7
86298.4
84600.6
82910.2
81235.2
79579.4
77954.3
76329.9
74856.3
72538.5
22914.9
22930.6
22950.8
22956
22946.7
22939.8
22950
22973.4
22986.8
22980.2
22965.3
22961.4
22972.1
22984.6
22992.1
22994.9
22984.1
22975.6
22959.3
22960.4
22995.2
23040.7
23015.1
22921.2
22906.7
22733
22520
23297.3
31808.2
39653.8
41198.2
38985.6
37725.8
38512.4
44321.7
56604.3
68792.8
74938.5
79818.8
84288.8
88018.7
91324.5
94157.5
96314.3
97771.3
98580.8
98712
98256.2
97344.1
96122
94690.1
93123.5
91477.6
89787.2
88075.1
86356.3
84642
82939.7
81256.2
79594.3
77964.8
76337
74862.1
72539.1
22915.9
22915.1
22930.7
22951
22954.8
22945
22940
22953.6
22981.2
22987.4
22976.1
22959.5
22961.5
22975.4
22988.5
22991.2
22982.3
22973.4
22961
22944.9
22976.1
23034.9
23026.2
22939.9
22924.6
22813.6
22534.3
22686.6
28945.8
38709.1
42058.8
40289
39014.8
39221.7
44025
55044.5
68233.1
75874.9
80742.8
85334.8
89111.2
92395.3
95245.6
97504.7
99031.1
99993.7
100290
99928.9
99077.4
97902
96496.7
94941.5
93295.7
91597.5
89872.1
88135.8
86400
84673.5
82962.4
81272.4
79605.9
77973
76342.5
74866.6
72539.5
22923
22916
22915.3
22931.6
22951
22953.3
22940.9
22939.5
22959.6
22986.5
22988
22969.6
22956.3
22965.4
22986.1
22992
22985.1
22974.4
22966.6
22944.8
22963.8
23017.5
23027
22964
22937
22859.4
22572.5
22437.6
26549.2
37083.2
42509.4
41708.8
40443.5
40246.7
43938.5
53550.8
67602.8
76820.5
81693.3
86379.4
90226.3
93492.9
96325.3
98666.7
100275
101331
101811
101578
100787
99665.5
98295.9
96760.1
95121.2
93420.6
91686
89935.6
88181.9
86433.5
84697.8
82980
81285
79614.8
77979.2
76346.7
74870
72539.8
22928.8
22923.1
22915.7
22915.7
22933.2
22951.4
22950.1
22938.3
22939.9
22965.8
22991.7
22984.7
22961.4
22956.9
22975.4
22995
22994.5
22979
22968.8
22953.2
22960.4
22994.9
23016.6
22991.9
22945.4
22880.5
22680.2
22361.4
24826.7
34816.5
42639.9
43332.5
42018.6
41528.6
44073.3
52398.6
66760.2
77538.8
82657.4
87414.4
91354.6
94614.4
97411.1
99791.3
101503
102611
103246
103192
102468
101404
100080
98572.2
96948.1
95251.5
93512.8
91752.4
89984
88217.4
86459.6
84716.9
82993.8
81295
79621.9
77984.1
76349.8
74872.6
72540
22926.2
22928.5
22922.8
22915.7
22916.5
22935.3
22950.2
22946.9
22934.5
22940.7
22975.4
22993.2
22975.8
22953.1
22958.9
22988.8
23001.9
22983.2
22968.3
22955.6
22962.2
22970.5
23006.4
23010.4
22958
22885.8
22790.2
22339.5
23769.9
32369.8
42026
45073.1
43727.1
43007.6
44612.5
51784.8
65771.5
77913.6
83635.7
88441.3
92488
95752.3
98513.7
100883
102700
103860
104583
104745
104114
103108
101837
100369
98768.9
97084.2
95347.8
93582.1
91803.2
90021.5
88245.3
86480.2
84732
83004.8
81302.8
79627.4
77988
76352.3
74874.5
72540.2
22935.1
22926.3
22928.7
22922.7
22915.6
22917.3
22937.3
22950.4
22940.2
22932.2
22945.8
22982.6
22989.1
22961.1
22945.7
22970.5
23001.9
22992.5
22964.2
22951.3
22960.9
22954.7
22991.5
23014.9
22974.9
22886.8
22877.7
22368.5
23248.9
29980.4
41014.3
46708.3
45546.5
44681.6
45496.5
51588.2
64292.2
77731.8
84675.1
89469.6
93615.2
96897.1
99633.7
101956
103840
105090
105833
106195
105716
104766
103556
102138
100574
98911
97184.9
95420.3
93635.5
91842.7
90051.1
88267.4
86496.7
84744.1
83013.6
81309.1
79631.8
77991
76354.1
74876
72540.3
22959.1
22935.7
22926
22928.6
22922
22915.6
22918.9
22941.6
22948.8
22934
22929
22955.2
22989.7
22979.6
22942.6
22944.7
22987.2
22998.2
22971.4
22944.1
22955
22943.4
22975
23011.5
22999.2
22888.2
22930
22538.1
23068.5
27997.4
39595.5
47975
47498.1
46540.4
46726.6
51615.2
62734.3
77472.1
85780.7
90495.6
94721.2
98039.3
100762
103026
104912
106277
107030
107501
107241
106369
105223
103867
102351
100722
99016.1
97260.8
95476.4
93677.1
91874.2
90074.9
88285.2
86509.9
84753.9
83020.6
81314.1
79635.2
77993.3
76355.5
74877.1
72540.4
22969.8
22958.7
22935.4
22926.7
22928.7
22921.3
22915.3
22923.1
22943.6
22946.3
22926.3
22927.7
22971
22989.3
22960.5
22931.6
22956.4
22996.9
22986.4
22940.7
22942.5
22948.2
22969.3
23003.1
23013.7
22892.8
22958.6
22770.1
23033.4
26629
37891.5
48625.2
49634.4
48583.1
48273.1
52064.2
61403.2
77049.9
86682.9
91492.6
95790.7
99170.1
101885
104093
105924
107375
108190
108657
108628
107897
106819
105535
104083
102502
100831
99095.4
97320
95520.2
93710.8
91899.5
90094.1
88299.7
86520.7
84761.7
83026.3
81318
79637.9
77995.1
76356.5
74877.8
72540.5
22955.1
22969.9
22958.4
22936
22926.7
22928.6
22920.6
22915.4
22927
22947.9
22940.8
22919.8
22932.9
22985.1
22989.3
22932.7
22925.7
22982.8
23003.4
22947.7
22927
22950.3
22971.3
22976.8
23019.6
22938.3
22978.6
23053.6
23112.4
25865.5
35805.5
48775.6
51956.5
50806.3
50070.4
52570.6
60582
76465.6
87222.2
92436.9
96821.1
100280
102985
105138
106885
108344
109273
109698
109808
109312
108327
107119
105747
104235
102615
100914
99158.8
97367
95556.8
93737.7
91920.3
90109.9
88311.6
86529.5
84768.1
83030.8
81321.2
79640.1
77996.5
76357.2
74878.4
72540.5
22935.5
22954.5
22969.2
22957.8
22935.4
22927.4
22928.7
22919.4
22915.8
22935.2
22949.3
22932.2
22917.4
22949.5
22996.3
22964.8
22915.5
22949.1
23012
22971.9
22917.9
22939.9
22981.1
22962.7
23010.5
22978.8
23019.7
23309.9
23249.5
25578
33900.5
47942.9
54412.8
53206.7
52089.3
53492.4
60234.5
75116.9
87346.5
93383.1
97823.5
101353
104041
106129
107788
109173
110197
110653
110764
110534
109718
108592
107324
105905
104358
102707
100984
99209.9
97406.7
95584.8
93760.4
91937.4
90122.9
88321.3
86536.7
84773.3
83034.5
81323.7
79641.7
77997.5
76357.8
74878.7
72540.5
22976.2
22936.6
22954.2
22969.6
22958.1
22935.4
22928.9
22928.4
22917.3
22917.3
22944
22951.4
22918.1
22914.9
22979.5
22992.9
22926.8
22915.9
23000.9
23000
22920
22923.4
22983.3
22958.7
22989.6
23035.6
23093.3
23551.7
23686.5
25553.6
32385.8
46992.2
56581.9
55741.5
54336.5
54767.7
60468.9
73476.1
87384.7
94380.6
98795.2
102360
105019
107030
108598
109862
110899
111486
111556
111476
110942
109940
108795
107486
106019
104424
102751
101017
99239
97430.7
95610
93778.6
91951.7
90133.6
88329.3
86542.5
84777.5
83037.4
81325.7
79643
77998.3
76358.1
74878.9
72540.6
23092.1
22977.9
22937.4
22953.6
22968.5
22957.3
22935.9
22930.2
22928.9
22915.6
22920.2
22953.9
22946.8
22910.8
22930
22994.7
22971.9
22908.3
22953.5
23011.1
22952.7
22902.3
22976.6
22972.1
22977.2
23093.2
23206.1
23816.6
24208.7
25866.2
31490.6
45755.6
58156
58444.9
56812.3
56363.9
60967
71711.2
87258.8
95212.9
99689.4
103258
105876
107804
109264
110412
111373
112124
112259
112136
111917
111156
110139
108924
107550
106071
104489
102810
101066
99276
97459
95627
93794.4
91963.4
90142.5
88335.9
86547.3
84780.8
83039.7
81327.2
79643.9
77998.9
76358.3
74878.9
72540.5
23121.5
23090.4
22978.1
22939
22953.8
22967.9
22957.5
22935.3
22933.2
22927.8
22913.8
22929.5
22958
22932.6
22905.4
22959.9
23011.8
22925
22896.6
23007.2
23011.8
22898.7
22945.5
23011.3
22978
23151.3
23377.2
24124.4
24838.3
26310
31169.8
44196.4
58867.7
61368.3
59509
58267.1
61669.2
70211.3
86969.4
95750.4
100441
104005
106572
108412
109759
110809
111660
112589
112858
112657
112576
112195
111320
110189
108979
107634
106145
104542
102853
101099
99303.1
97480.6
95645.2
93806.9
91973.3
90149.8
88341.2
86551.1
84783.5
83041.5
81328.3
79644.6
77999.2
76358.4
74878.9
72540.5
23035.9
23124.2
23088.6
22980.5
22942.5
22953.8
22967
22954.8
22936.3
22936.2
22926.3
22912.9
22946.1
22962.8
22907.4
22905.6
23017.3
22980.3
22878.5
22963.2
23063.5
22916.8
22875.8
23048.4
23004.5
23214.9
23619.8
24509.7
25563.9
27074.5
31303.1
42506.3
59042.3
64521.4
62399.8
60447.2
62501.3
69171.2
85663.9
95942.2
101055
104574
107074
108824
110074
111036
111839
112613
113328
113182
112976
112914
112291
111307
110276
109057
107693
106196
104587
102890
101129
99326.9
97499.2
95659.2
93817.6
91981.4
90155.9
88345.6
86554.2
84785.6
83042.9
81329.2
79645.1
77999.5
76358.4
74878.9
72540.5
23851.2
23036
23124.6
23084.2
22982.8
22944.1
22954.7
22966
22951.9
22937.6
22940.6
22921.9
22916.1
22965.4
22956.2
22897.7
22969.5
23016.7
22892.3
22900.4
23069.4
22992.9
22825.1
23051.6
23090.2
23315.7
23942.3
24996
26380.8
28039
31712.7
41132
58563.8
67641.4
65454.3
62810.4
63451
68625.4
84022
96071.4
101533
104937
107363
109034
110221
111121
111913
112622
113235
113619
113340
113192
113028
112299
111392
110329
109112
107745
106240
104624
102920
101154
99346.7
97514.7
95671.3
93826.7
91988.2
90160.8
88349.2
86556.7
84787.3
83044
81329.9
79645.5
77999.6
76358.4
74878.8
72540.4
24111.5
23918.6
23042.5
23123.6
23077
22988.7
22950.2
22956.7
22966.7
22945.2
22940.8
22944.3
22915.2
22930.4
22977.5
22925.9
22890.4
23019.1
22985
22892.5
23038.6
23065.6
22803.9
23026
23269.8
23484.3
24363.3
25606.3
27292.7
29167.6
32264.7
40221.3
58000.8
70242.2
68634.3
65386.2
64782.2
68740.4
81968.9
96056.5
101723
105063
107446
109074
110239
111115
111855
112542
113114
113548
113744
113306
113430
113144
112327
111435
110376
109157
107786
106277
104655
102946
101175
99363.5
97527.8
95681.3
93834.3
91993.7
90164.8
88352
86558.6
84788.6
83044.7
81330.3
79645.7
77999.7
76358.3
74878.6
72540.3
55210.1
28412.6
23958.7
23053.3
23121.4
23072.1
22989.8
22952.7
22962.9
22966.8
22937.9
22949.5
22944.6
22910.4
22970.9
22982.4
22877.8
22964.6
23069
22909.9
22909.9
23087.8
22849.9
23001.6
23501.9
23756.7
24896.1
26355.2
28310
30404.9
33083.7
39824.8
57362.3
71953.7
71971.2
68181.6
66312.3
69195.7
79764.9
95034.5
101718
105069
107453
109029
110174
110985
111631
112323
112926
113350
113845
113676
113215
113743
113174
112363
111477
110412
109196
107822
106308
104682
102969
101193
99377.7
97538.8
95689.7
93840.5
91998.3
90168.1
88354.3
86560.2
84789.5
83045.3
81330.6
79645.8
77999.7
76358.2
74878.5
72540.3
55097.8
55052.1
29914
24226.6
23076.4
23117.2
23055.1
23001.1
22956.7
22973.4
22963.5
22933.9
22958.9
22934.5
22912.9
22995.8
22932.6
22898.9
23086.9
22984.4
22808.1
23088.2
23035.8
23014.1
23799.3
24172.2
25560
27254.4
29442.4
31760.2
34253.4
40404.8
55836
72649.8
75514.4
71170.3
68005.4
69757
77601.3
93646.2
101148
104592
106998
108616
109781
110634
111295
111947
112544
113052
113523
113856
113587
113185
114013
113173
112401
111511
110444
109229
107853
106335
104705
102988
101208
99389.7
97548
95696.6
93845.6
92002
90170.7
88356
86561.3
84790.3
83045.7
81330.8
79645.9
77999.6
76358.1
74878.4
72540.2
55003.6
55094.9
55527.2
32269.7
24604.2
23133.3
23111.8
23055.5
23002.6
22959.8
22990.1
22952
22936.1
22970
22905.1
22957.9
23026.3
22893.8
22998.6
23069.2
22771.5
23010.3
23298.9
23148.6
24153.2
24756.1
26376.4
28314.8
30702.9
33228.2
35685.8
41074.5
54273.4
73178.6
79226.9
74341.2
69805.3
70439.3
75683.3
91544.9
100429
104027
106469
108118
109315
110186
110865
111513
112134
112627
113170
113483
113963
113472
113131
114237
113143
112441
111542
110473
109259
107880
106359
104725
103004
101221
99399.7
97555.6
95702.3
93849.8
92004.9
90172.7
88357.4
86562.2
84790.8
83046
81330.9
79645.9
77999.6
76358
74878.3
72540.1
54965.8
55006.1
55095
55321.5
34835.6
25432.7
23264.5
23100.7
23054.3
23000.4
22973.5
23010.5
22927.5
22970.9
22968.6
22905.6
23050
22958.5
22849.4
23090.9
22886.3
22966.8
23598.5
23443.8
24608.6
25530.9
27372.4
29546.9
32107.1
34808.2
37353.5
42088.9
52743.3
73436.5
82452.5
77649.3
71710.2
71097.6
74143.1
88909.3
99284.3
103264
105803
107536
108795
109711
110424
111077
111710
112194
112747
113126
113576
114000
113386
113095
114424
113113
112479
111569
110499
109285
107903
106379
104742
103018
101232
99408.1
97562
95707
93853
92007.3
90174.3
88358.4
86562.8
84791.1
83046.2
81330.9
79645.8
77999.5
76357.9
74878.2
72540.1
54906.3
54966.1
55007.2
55092.1
55767.4
37563.4
26687.4
23579.9
23121.9
23084
22966.3
23009
23017.4
22923.5
23009.6
22913.5
22945.6
23046.6
22789.9
23009
23198.1
22965.1
23899.7
23907.8
25235.7
26526.9
28576
30962
33667.1
36503.3
39207.6
43258.4
51597.6
73442.6
84934
80893
73600.8
71608.9
73027.1
85870.9
97787.7
102327
105017
106881
108233
109210
109982
110653
111298
111769
112327
112683
113213
113601
114036
113311
113077
114573
113087
112513
111594
110523
109308
107924
106397
104757
103030
101242
99415.1
97567.2
95710.8
93856
92009.2
90175.6
88359.2
86563.3
84791.4
83046.2
81330.9
79645.8
77999.4
76357.8
74878.1
72540
54876.7
54906
54966.4
55010
55092
55439.8
40392.3
28589.3
24238.7
23213.4
23154.3
22924.7
23070.8
22970.8
22948.1
23039.3
22845.2
23059.6
22939.8
22940.1
23523.5
23190.2
24255.5
24612.2
26110.1
27770.7
30011.6
32572.2
35393.1
38329.7
41135.4
44563.2
50944.8
72687
86441.3
83972.4
75614.9
72034.8
72313.6
82665.7
95887.1
101249
104142
106166
107633
108687
109535
110236
110907
111369
111921
112237
112787
113236
113637
114059
113260
113074
114683
113074
112543
111617
110544
109328
107941
106412
104769
103039
101249
99420.9
97571.5
95713.8
93858.1
92010.6
90176.5
88359.8
86563.6
84791.5
83046.3
81330.9
79645.7
77999.4
76357.8
74877.9
72540
54909.9
54878.7
54906.2
54967.1
55011.9
55093
55766.9
43099.1
31068.8
25487.7
23669.9
23240.1
22968.8
23166.6
22876.7
23062.4
22929.8
22945
23306.8
22931.1
23847.1
23672.8
24804
25630.5
27318
29286.8
31693.2
34386.8
37292.6
40289.9
43156.5
46246.2
51459.6
70710.6
87097.6
86900.2
77762.3
72497.6
71902.2
79550.6
93589.8
100027
103197
105412
107014
108153
109087
109822
110531
110991
111533
111799
112361
112813
113272
113666
114079
113232
113091
114759
113069
112569
111638
110564
109346
107957
106425
104780
103048
101256
99425.6
97574.9
95716.3
93859.7
92011.7
90177.2
88360.2
86563.8
84791.6
83046.3
81330.9
79645.6
77999.3
76357.7
74877.9
72539.9
54875.3
54905.9
54879.1
54906.5
54965.3
55016.5
55081.1
55594.9
45680.8
34079.6
27490.2
24666.1
23693.2
23259.5
23252.1
22987.5
23335.1
22915.4
23691.5
23369.7
24256.9
24514
25753.7
27034.5
28902.3
31096.2
33629.7
36411.9
39366
42376.6
45238.3
48048.3
51991.7
68114.5