/*--------------------------------*- C++ -*----------------------------------*\
| =========                 |                                                 |
| \\      /  F ield         | OpenFOAM: The Open Source CFD Toolbox           |
|  \\    /   O peration     | Version:  v2012                                 |
|   \\  /    A nd           | Website:  www.openfoam.com                      |
|    \\/     M anipulation  |                                                 |
\*---------------------------------------------------------------------------*/
FoamFile
{
    version     2.0;
    format      ascii;
    class       volScalarField;
    location    "12000";
    object      p1;
}
// * * * * * * * * * * * * * * * * * * * * * * * * * * * * * * * * * * * * * //

dimensions      [0 1 0 0 0 0 0];


internalField   nonuniform List<scalar> 
27324
(
3.61534e-06
3.53564e-06
4.54016e-06
3.45864e-06
4.38813e-06
4.38509e-06
3.38308e-06
4.2355e-06
4.23845e-06
3.97856e-06
3.30971e-06
4.0833e-06
4.09216e-06
3.83894e-06
3.58419e-06
3.23747e-06
3.93291e-06
3.94542e-06
3.69872e-06
3.44318e-06
3.21506e-06
3.16626e-06
3.78255e-06
3.79803e-06
3.55846e-06
3.29889e-06
3.07064e-06
2.80609e-06
3.09616e-06
3.63181e-06
3.64822e-06
3.41831e-06
3.15591e-06
2.92339e-06
2.66746e-06
2.3834e-06
3.02651e-06
3.47933e-06
3.4952e-06
3.28859e-06
3.01608e-06
2.78216e-06
2.52998e-06
2.26834e-06
2.00943e-06
2.9505e-06
3.32053e-06
3.33841e-06
3.17108e-06
2.90601e-06
2.64914e-06
2.40404e-06
2.15871e-06
1.93024e-06
1.7162e-06
2.83589e-06
3.1426e-06
3.17754e-06
3.06064e-06
2.82591e-06
2.55547e-06
2.29e-06
2.06333e-06
1.85813e-06
1.66583e-06
1.46899e-06
2.64483e-06
2.93717e-06
3.01103e-06
2.95332e-06
2.75897e-06
2.49638e-06
2.21412e-06
1.981e-06
1.79886e-06
1.61985e-06
1.43265e-06
1.2392e-06
2.17247e-06
2.74191e-06
2.84598e-06
2.85463e-06
2.6921e-06
2.45067e-06
2.1692e-06
1.92805e-06
1.75031e-06
1.58173e-06
1.39752e-06
1.20921e-06
1.02698e-06
1.90337e-06
2.43075e-06
2.68506e-06
2.74585e-06
2.63874e-06
2.4031e-06
2.13606e-06
1.89775e-06
1.71982e-06
1.54961e-06
1.36696e-06
1.17885e-06
1.00108e-06
8.36959e-07
1.82668e-06
2.30253e-06
2.43297e-06
2.60806e-06
2.56208e-06
2.37275e-06
2.1026e-06
1.87579e-06
1.70238e-06
1.52758e-06
1.34006e-06
1.15203e-06
9.74107e-07
8.15148e-07
6.73755e-07
1.79438e-06
2.26327e-06
2.30435e-06
2.42063e-06
2.43949e-06
2.32211e-06
2.0822e-06
1.85547e-06
1.68899e-06
1.51426e-06
1.31985e-06
1.12852e-06
9.50247e-07
7.92161e-07
6.55833e-07
5.409e-07
1.76971e-06
2.23367e-06
2.26161e-06
2.33545e-06
2.2706e-06
2.22366e-06
2.05664e-06
1.84436e-06
1.67835e-06
1.5045e-06
1.30705e-06
1.10982e-06
9.29762e-07
7.71811e-07
6.36782e-07
5.26973e-07
4.34999e-07
1.74647e-06
2.20557e-06
2.22994e-06
2.31192e-06
2.1678e-06
2.07789e-06
1.99896e-06
1.83587e-06
1.67121e-06
1.49749e-06
1.29822e-06
1.09745e-06
9.12678e-07
7.54934e-07
6.19467e-07
5.12409e-07
4.24436e-07
3.54908e-07
1.72297e-06
2.17718e-06
2.20005e-06
2.28256e-06
2.14302e-06
1.95728e-06
1.8981e-06
1.81418e-06
1.68072e-06
1.49646e-06
1.29233e-06
1.09022e-06
9.00543e-07
7.4059e-07
6.05281e-07
4.98673e-07
4.13553e-07
3.47259e-07
2.95968e-07
1.69906e-06
2.14789e-06
2.16988e-06
2.25166e-06
2.11575e-06
1.92473e-06
1.78994e-06
1.76182e-06
1.69544e-06
1.52299e-06
1.30152e-06
1.08661e-06
8.94768e-07
7.29568e-07
5.93154e-07
4.87144e-07
4.02737e-07
3.39727e-07
2.90651e-07
2.55406e-07
1.67476e-06
2.11753e-06
2.13949e-06
2.22133e-06
2.0877e-06
1.90184e-06
1.75573e-06
1.69023e-06
1.68936e-06
1.5719e-06
1.3462e-06
1.10613e-06
8.97394e-07
7.23761e-07
5.83219e-07
4.77984e-07
3.93013e-07
3.31574e-07
2.85557e-07
2.51072e-07
2.28837e-07
1.65018e-06
2.08616e-06
2.10911e-06
2.19161e-06
2.05968e-06
1.88064e-06
1.73806e-06
1.66172e-06
1.65072e-06
1.61361e-06
1.41876e-06
1.16306e-06
9.2778e-07
7.33239e-07
5.84002e-07
4.69619e-07
3.85199e-07
3.23476e-07
2.79351e-07
2.45878e-07
2.24444e-07
2.09793e-07
1.62554e-06
2.05404e-06
2.07915e-06
2.16254e-06
2.03222e-06
1.85811e-06
1.72398e-06
1.64926e-06
1.62387e-06
1.61872e-06
1.49312e-06
1.2436e-06
9.88506e-07
7.69433e-07
6.01196e-07
4.75319e-07
3.83702e-07
3.18788e-07
2.73116e-07
2.41638e-07
2.20769e-07
2.07879e-07
2.01488e-07
1.60111e-06
2.0217e-06
2.04994e-06
2.13429e-06
2.0053e-06
1.83525e-06
1.70744e-06
1.64042e-06
1.61412e-06
1.60175e-06
1.5434e-06
1.32784e-06
1.06487e-06
8.25481e-07
6.35444e-07
4.94065e-07
3.92498e-07
3.22094e-07
2.73768e-07
2.41117e-07
2.19687e-07
2.06331e-07
1.99308e-07
1.99847e-07
1.57714e-06
1.98968e-06
2.02179e-06
2.10683e-06
1.97902e-06
1.8125e-06
1.68974e-06
1.62932e-06
1.60811e-06
1.59304e-06
1.54986e-06
1.40338e-06
1.14769e-06
8.90583e-07
6.79936e-07
5.22308e-07
4.08633e-07
3.30586e-07
2.77879e-07
2.42938e-07
2.20285e-07
2.06424e-07
1.98534e-07
1.97432e-07
2.02462e-07
1.5539e-06
1.95866e-06
1.99485e-06
2.08018e-06
1.95342e-06
1.79017e-06
1.67191e-06
1.61708e-06
1.60136e-06
1.58803e-06
1.54376e-06
1.4391e-06
1.23025e-06
9.61406e-07
7.30696e-07
5.55859e-07
4.29001e-07
3.42099e-07
2.84052e-07
2.46146e-07
2.21914e-07
2.07161e-07
1.98635e-07
1.95481e-07
1.99227e-07
2.10617e-07
1.53159e-06
1.9292e-06
1.9691e-06
2.05417e-06
1.9282e-06
1.76866e-06
1.65445e-06
1.60484e-06
1.59402e-06
1.58295e-06
1.53992e-06
1.44413e-06
1.29174e-06
1.03521e-06
7.85658e-07
5.93005e-07
4.52173e-07
3.55347e-07
2.9119e-07
2.49865e-07
2.23849e-07
2.08017e-07
1.98898e-07
1.94348e-07
1.96251e-07
2.05153e-07
2.33935e-07
1.51028e-06
1.90151e-06
1.94432e-06
2.02851e-06
1.90308e-06
1.74763e-06
1.63832e-06
1.59303e-06
1.58666e-06
1.57751e-06
1.53581e-06
1.44173e-06
1.31193e-06
1.10708e-06
8.44813e-07
6.33196e-07
4.77998e-07
3.70475e-07
2.99308e-07
2.53983e-07
2.25909e-07
2.08981e-07
1.99242e-07
1.93975e-07
1.93822e-07
2.00624e-07
2.21007e-07
2.97489e-07
1.48985e-06
1.87533e-06
1.92015e-06
2.00289e-06
1.87784e-06
1.72683e-06
1.62306e-06
1.58252e-06
1.57937e-06
1.57202e-06
1.53136e-06
1.43837e-06
1.31203e-06
1.14807e-06
9.08823e-07
6.76882e-07
5.06396e-07
3.87614e-07
3.08626e-07
2.58629e-07
2.28127e-07
2.10055e-07
1.99631e-07
1.93919e-07
1.92013e-07
1.96879e-07
2.11698e-07
2.66347e-07
4.48661e-07
1.47e-06
1.85013e-06
1.89613e-06
1.97707e-06
1.85242e-06
1.70617e-06
1.6083e-06
1.57285e-06
1.57262e-06
1.56651e-06
1.52682e-06
1.43461e-06
1.30949e-06
1.15779e-06
9.60663e-07
7.24948e-07
5.37701e-07
4.06606e-07
3.1935e-07
2.63957e-07
2.30583e-07
2.1119e-07
2.00059e-07
1.93984e-07
1.91061e-07
1.93707e-07
2.04879e-07
2.43399e-07
3.82429e-07
7.65056e-07
1.44991e-06
1.82525e-06
1.87199e-06
1.95094e-06
1.827e-06
1.68553e-06
1.59385e-06
1.56366e-06
1.56636e-06
1.56129e-06
1.52251e-06
1.43088e-06
1.30639e-06
1.15683e-06
9.82382e-07
7.73071e-07
5.71809e-07
4.27516e-07
3.3139e-07
2.70124e-07
2.33364e-07
2.1241e-07
2.00582e-07
1.9409e-07
1.90746e-07
1.91216e-07
1.99544e-07
2.2671e-07
3.30225e-07
6.38469e-07
1.3793e-06
1.42917e-06
1.80011e-06
1.84764e-06
1.92469e-06
1.8018e-06
1.66506e-06
1.57961e-06
1.55477e-06
1.56046e-06
1.55644e-06
1.51869e-06
1.42744e-06
1.30321e-06
1.15417e-06
9.85132e-07
8.05733e-07
6.08075e-07
4.50268e-07
3.44626e-07
2.77257e-07
2.3657e-07
2.13745e-07
2.01161e-07
1.94224e-07
1.90612e-07
1.89504e-07
1.95235e-07
2.14701e-07
2.8983e-07
5.3416e-07
1.15036e-06
2.52792e-06
1.40789e-06
1.77426e-06
1.82291e-06
1.89866e-06
1.77701e-06
1.64503e-06
1.56555e-06
1.54607e-06
1.55477e-06
1.55185e-06
1.51517e-06
1.42453e-06
1.30022e-06
1.15135e-06
9.82476e-07
8.16145e-07
6.41324e-07
4.74603e-07
3.5909e-07
2.85184e-07
2.40316e-07
2.1525e-07
2.01766e-07
1.94406e-07
1.90564e-07
1.88653e-07
1.91781e-07
2.05983e-07
2.59437e-07
4.48967e-07
9.5686e-07
2.12538e-06
4.61465e-06
1.38617e-06
1.74747e-06
1.7981e-06
1.87334e-06
1.75283e-06
1.6256e-06
1.55201e-06
1.53758e-06
1.54921e-06
1.54747e-06
1.51186e-06
1.42208e-06
1.29768e-06
1.14861e-06
9.80058e-07
8.15606e-07
6.60719e-07
5.00719e-07
3.74804e-07
2.93933e-07
2.44713e-07
2.16995e-07
2.02406e-07
1.94659e-07
1.90542e-07
1.88351e-07
1.89172e-07
1.99415e-07
2.3704e-07
3.80569e-07
7.93977e-07
1.77878e-06
3.92273e-06
8.30262e-06
1.36443e-06
1.72006e-06
1.77383e-06
1.8494e-06
1.72942e-06
1.60683e-06
1.53919e-06
1.52948e-06
1.54375e-06
1.5432e-06
1.50871e-06
1.41997e-06
1.29559e-06
1.14622e-06
9.77616e-07
8.13209e-07
6.65573e-07
5.228e-07
3.91509e-07
3.03499e-07
2.4959e-07
2.19065e-07
2.03117e-07
1.94914e-07
1.90539e-07
1.88178e-07
1.87489e-07
1.94307e-07
2.20858e-07
3.26749e-07
6.58187e-07
1.48126e-06
3.31772e-06
7.13759e-06
1.47176e-05
1.34326e-06
1.69257e-06
1.75059e-06
1.82686e-06
1.70663e-06
1.58837e-06
1.52728e-06
1.52194e-06
1.53844e-06
1.53905e-06
1.50579e-06
1.41804e-06
1.29386e-06
1.14423e-06
9.75361e-07
8.11208e-07
6.63585e-07
5.34456e-07
4.08901e-07
3.13881e-07
2.54963e-07
2.21551e-07
2.03942e-07
1.95172e-07
1.90583e-07
1.88078e-07
1.86652e-07
1.9038e-07
2.09232e-07
2.85478e-07
5.46306e-07
1.22802e-06
2.7901e-06
6.10584e-06
1.27959e-05
2.57183e-05
1.32331e-06
1.66576e-06
1.72857e-06
1.80546e-06
1.68406e-06
1.56987e-06
1.51579e-06
1.51502e-06
1.53333e-06
1.53503e-06
1.50302e-06
1.41625e-06
1.29236e-06
1.14258e-06
9.73371e-07
8.09214e-07
6.6202e-07
5.36992e-07
4.23134e-07
3.24549e-07
2.60841e-07
2.24291e-07
2.04947e-07
1.95437e-07
1.90687e-07
1.87999e-07
1.86339e-07
1.87489e-07
2.00758e-07
2.54565e-07
4.55416e-07
1.01402e-06
2.33339e-06
5.1944e-06
1.10726e-05
2.26141e-05
4.43937e-05
1.30435e-06
1.64011e-06
1.70788e-06
1.78462e-06
1.66152e-06
1.55129e-06
1.50434e-06
1.50841e-06
1.52848e-06
1.53122e-06
1.50047e-06
1.41461e-06
1.29102e-06
1.14117e-06
9.71674e-07
8.07324e-07
6.60364e-07
5.35005e-07
4.3043e-07
3.35577e-07
2.67212e-07
2.27331e-07
2.06198e-07
1.95738e-07
1.90765e-07
1.87939e-07
1.86154e-07
1.85637e-07
1.94381e-07
2.32016e-07
3.82754e-07
8.34846e-07
1.94034e-06
4.39516e-06
9.5306e-06
1.97982e-05
3.94825e-05
7.56935e-05
1.28619e-06
1.61611e-06
1.68821e-06
1.76361e-06
1.63883e-06
1.53273e-06
1.49306e-06
1.50178e-06
1.52374e-06
1.52769e-06
1.49821e-06
1.41325e-06
1.28983e-06
1.1399e-06
9.70361e-07
8.05717e-07
6.5872e-07
5.33752e-07
4.3196e-07
3.44494e-07
2.7361e-07
2.30661e-07
2.07601e-07
1.96119e-07
1.90825e-07
1.87931e-07
1.86041e-07
1.8468e-07
1.89631e-07
2.15862e-07
3.26006e-07
6.85926e-07
1.60485e-06
3.69766e-06
8.1613e-06
1.72468e-05
3.49826e-05
6.80831e-05
0.000127201
1.26865e-06
1.59353e-06
1.66935e-06
1.74212e-06
1.6159e-06
1.51438e-06
1.48202e-06
1.49521e-06
1.51905e-06
1.52439e-06
1.49636e-06
1.41225e-06
1.28887e-06
1.13877e-06
9.69193e-07
8.04377e-07
6.57215e-07
5.32494e-07
4.30311e-07
3.49258e-07
2.80142e-07
2.34328e-07
2.09165e-07
1.96635e-07
1.90875e-07
1.87963e-07
1.85947e-07
1.84312e-07
1.86194e-07
2.04352e-07
2.8273e-07
5.63847e-07
1.32069e-06
3.09279e-06
6.95131e-06
1.49528e-05
3.08572e-05
6.10475e-05
0.000115656
0.00021016
1.2515e-06
1.57175e-06
1.6506e-06
1.71988e-06
1.59274e-06
1.49655e-06
1.47133e-06
1.48875e-06
1.51444e-06
1.52128e-06
1.49483e-06
1.4117e-06
1.28824e-06
1.13785e-06
9.68192e-07
8.03275e-07
6.55955e-07
5.31261e-07
4.29362e-07
3.50378e-07
2.85324e-07
2.37912e-07
2.10879e-07
1.97285e-07
1.90943e-07
1.87957e-07
1.85869e-07
1.84097e-07
1.83916e-07
1.96033e-07
2.50684e-07
4.65119e-07
1.08173e-06
2.5709e-06
5.88904e-06
1.2899e-05
2.71031e-05
5.45294e-05
0.000104898
0.00019306
0.000340101
1.23455e-06
1.5503e-06
1.63155e-06
1.6969e-06
1.56929e-06
1.47939e-06
1.46121e-06
1.48248e-06
1.50998e-06
1.51837e-06
1.49354e-06
1.4115e-06
1.28804e-06
1.13726e-06
9.67424e-07
8.02422e-07
6.54965e-07
5.30216e-07
4.28424e-07
3.4921e-07
2.88358e-07
2.41382e-07
2.12782e-07
1.97977e-07
1.91067e-07
1.87923e-07
1.85844e-07
1.8397e-07
1.82662e-07
1.8998e-07
2.27632e-07
3.86731e-07
8.82368e-07
2.1243e-06
4.96114e-06
1.1072e-05
2.36986e-05
4.85336e-05
9.48392e-05
0.000176988
0.000315738
0.000532213
1.21729e-06
1.52886e-06
1.61214e-06
1.67335e-06
1.5458e-06
1.46251e-06
1.4517e-06
1.4766e-06
1.50569e-06
1.5157e-06
1.49245e-06
1.41154e-06
1.28821e-06
1.13705e-06
9.66952e-07
8.0181e-07
6.54254e-07
5.29388e-07
4.27591e-07
3.48572e-07
2.89072e-07
2.44034e-07
2.14629e-07
1.98748e-07
1.91289e-07
1.87872e-07
1.85857e-07
1.83873e-07
1.82087e-07
1.85648e-07
2.114e-07
3.25894e-07
7.1758e-07
1.74446e-06
4.15568e-06
9.45433e-06
2.06284e-05
4.3032e-05
8.55009e-05
0.000161821
0.000292548
0.000500391
0.000779675
1.1995e-06
1.50747e-06
1.59244e-06
1.64943e-06
1.52249e-06
1.44604e-06
1.44225e-06
1.47111e-06
1.50172e-06
1.51333e-06
1.49151e-06
1.41175e-06
1.28864e-06
1.1372e-06
9.66815e-07
8.01454e-07
6.53781e-07
5.28818e-07
4.26888e-07
3.47972e-07
2.88445e-07
2.45554e-07
2.16129e-07
1.9958e-07
1.91554e-07
1.87829e-07
1.8583e-07
1.83794e-07
1.81813e-07
1.8266e-07
2.00074e-07
2.79996e-07
5.83234e-07
1.42393e-06
3.4598e-06
8.0309e-06
1.78713e-05
3.80077e-05
7.68465e-05
0.00014762
0.00027039
0.000469442
0.000745238
0.00102028
1.18126e-06
1.48606e-06
1.57263e-06
1.62523e-06
1.49967e-06
1.43004e-06
1.43282e-06
1.46559e-06
1.49809e-06
1.5113e-06
1.49079e-06
1.41205e-06
1.28928e-06
1.13758e-06
9.66973e-07
8.01369e-07
6.53529e-07
5.28475e-07
4.26364e-07
3.47466e-07
2.8786e-07
2.4577e-07
2.17153e-07
2.00489e-07
1.91824e-07
1.87829e-07
1.85775e-07
1.83759e-07
1.81647e-07
1.80865e-07
1.92094e-07
2.46549e-07
4.75123e-07
1.1558e-06
2.8622e-06
6.78423e-06
1.54097e-05
3.34351e-05
6.88572e-05
0.000134345
0.000249413
0.000439232
0.000710745
0.000993184
0.00117593
1.16295e-06
1.46516e-06
1.55296e-06
1.60092e-06
1.47749e-06
1.41484e-06
1.42359e-06
1.45993e-06
1.49456e-06
1.50954e-06
1.49026e-06
1.41228e-06
1.29e-06
1.13808e-06
9.67333e-07
8.01478e-07
6.53471e-07
5.28297e-07
4.26034e-07
3.47042e-07
2.87459e-07
2.4545e-07
2.17301e-07
2.01077e-07
1.92122e-07
1.87909e-07
1.857e-07
1.83774e-07
1.81532e-07
1.79916e-07
1.86505e-07
2.23008e-07
3.89849e-07
9.33415e-07
2.35213e-06
5.69856e-06
1.32218e-05
2.92947e-05
6.15011e-05
0.000121982
0.000229601
0.000410081
0.00067581
0.000965255
0.00115849
0.00127111
1.1459e-06
1.44505e-06
1.53349e-06
1.57681e-06
1.45584e-06
1.40061e-06
1.41482e-06
1.45426e-06
1.49105e-06
1.50788e-06
1.48978e-06
1.4125e-06
1.29064e-06
1.1387e-06
9.6782e-07
8.01707e-07
6.53513e-07
5.28247e-07
4.25843e-07
3.46724e-07
2.87093e-07
2.44878e-07
2.16815e-07
2.01264e-07
1.92432e-07
1.87983e-07
1.85629e-07
1.83757e-07
1.81435e-07
1.79503e-07
1.82646e-07
2.06912e-07
3.24322e-07
7.50941e-07
1.91922e-06
4.75839e-06
1.12878e-05
2.55598e-05
5.47564e-05
0.000110492
0.000210974
0.000382061
0.000640998
0.000935774
0.00114062
0.00125562
0.00137695
1.12977e-06
1.42581e-06
1.5139e-06
1.55247e-06
1.43448e-06
1.38707e-06
1.40667e-06
1.44882e-06
1.48766e-06
1.50633e-06
1.48926e-06
1.41257e-06
1.29108e-06
1.1393e-06
9.68345e-07
8.01997e-07
6.53595e-07
5.28236e-07
4.25733e-07
3.46492e-07
2.86751e-07
2.44588e-07
2.16121e-07
2.00725e-07
1.92669e-07
1.88043e-07
1.85593e-07
1.83714e-07
1.81378e-07
1.79229e-07
1.80114e-07
1.96067e-07
2.75828e-07
6.02694e-07
1.55465e-06
3.94795e-06
9.58751e-06
2.2207e-05
4.85909e-05
9.9852e-05
0.000193506
0.00035529
0.000606466
0.000905231
0.00112183
0.00124018
0.00136068
0.00149679
1.11446e-06
1.40732e-06
1.49388e-06
1.52784e-06
1.41355e-06
1.37387e-06
1.39884e-06
1.44375e-06
1.48451e-06
1.50491e-06
1.48869e-06
1.41235e-06
1.29129e-06
1.13968e-06
9.68778e-07
8.02294e-07
6.53685e-07
5.28221e-07
4.25643e-07
3.46311e-07
2.86449e-07
2.4429e-07
2.15446e-07
1.99518e-07
1.92483e-07
1.88108e-07
1.85619e-07
1.83652e-07
1.81371e-07
1.79048e-07
1.78619e-07
1.88785e-07
2.41179e-07
4.8428e-07
1.25e-06
3.25363e-06
8.09882e-06
1.92115e-05
4.29785e-05
9.00228e-05
0.000177192
0.000329824
0.000572471
0.000873658
0.0011024
0.00122445
0.00134418
0.00148354
0.00157808
1.09922e-06
1.3889e-06
1.47316e-06
1.50282e-06
1.39333e-06
1.36115e-06
1.3909e-06
1.43889e-06
1.48168e-06
1.50363e-06
1.4881e-06
1.41185e-06
1.29107e-06
1.1398e-06
9.69054e-07
8.02518e-07
6.5377e-07
5.28198e-07
4.25544e-07
3.46143e-07
2.86183e-07
2.43989e-07
2.15013e-07
1.98122e-07
1.91843e-07
1.8817e-07
1.85651e-07
1.83591e-07
1.81362e-07
1.78901e-07
1.77818e-07
1.83902e-07
2.17485e-07
3.91677e-07
9.98258e-07
2.66175e-06
6.80258e-06
1.65449e-05
3.7891e-05
8.09753e-05
0.000161992
0.000305732
0.000539213
0.000841226
0.00108219
0.00120872
0.00132731
0.00146948
0.00156919
0.00161223
1.0838e-06
1.3699e-06
1.4514e-06
1.47764e-06
1.37401e-06
1.34894e-06
1.38295e-06
1.43385e-06
1.47906e-06
1.50254e-06
1.4875e-06
1.41116e-06
1.29051e-06
1.13949e-06
9.6914e-07
8.02649e-07
6.53829e-07
5.28159e-07
4.25424e-07
3.45966e-07
2.85945e-07
2.43698e-07
2.14734e-07
1.97156e-07
1.90419e-07
1.8811e-07
1.85649e-07
1.83555e-07
1.81331e-07
1.78774e-07
1.77418e-07
1.80647e-07
2.01924e-07
3.21443e-07
7.92698e-07
2.16063e-06
5.67835e-06
1.41825e-05
3.3293e-05
7.26784e-05
0.000147879
0.00028303
0.000506919
0.000808092
0.0010611
0.00119294
0.00131033
0.00145501
0.00155958
0.00160566
0.00161662
1.06806e-06
1.35016e-06
1.42892e-06
1.45299e-06
1.35584e-06
1.33736e-06
1.37502e-06
1.42877e-06
1.47641e-06
1.50154e-06
1.48702e-06
1.41056e-06
1.28984e-06
1.13885e-06
9.68893e-07
8.02681e-07
6.53866e-07
5.28101e-07
4.253e-07
3.45779e-07
2.85727e-07
2.43444e-07
2.14476e-07
1.96452e-07
1.88491e-07
1.87617e-07
1.85649e-07
1.83571e-07
1.81281e-07
1.78705e-07
1.77125e-07
1.78581e-07
1.9202e-07
2.70202e-07
6.27046e-07
1.73881e-06
4.70844e-06
1.20969e-05
2.91549e-05
6.50899e-05
0.000134823
0.000261738
0.000475759
0.000774496
0.00103906
0.00117713
0.00129326
0.00144005
0.00154997
0.00159848
0.00161141
0.0016006
1.05187e-06
1.3298e-06
1.40614e-06
1.4293e-06
1.33866e-06
1.32636e-06
1.3674e-06
1.42373e-06
1.47379e-06
1.50049e-06
1.48665e-06
1.41025e-06
1.28926e-06
1.13796e-06
9.6836e-07
8.026e-07
6.53881e-07
5.28057e-07
4.25199e-07
3.45599e-07
2.85525e-07
2.43229e-07
2.14233e-07
1.96135e-07
1.86611e-07
1.86621e-07
1.85623e-07
1.83632e-07
1.81226e-07
1.78678e-07
1.769e-07
1.77366e-07
1.85794e-07
2.34689e-07
4.96007e-07
1.38677e-06
3.87507e-06
1.02645e-05
2.54402e-05
5.81768e-05
0.000122778
0.000241858
0.000445913
0.000740672
0.00101611
0.00116125
0.00127617
0.00142463
0.00154008
0.00159145
0.00160563
0.0015966
0.00156689
1.03554e-06
1.30885e-06
1.38344e-06
1.40677e-06
1.32241e-06
1.31551e-06
1.35992e-06
1.41897e-06
1.47125e-06
1.49943e-06
1.48627e-06
1.4102e-06
1.28898e-06
1.13716e-06
9.67696e-07
8.02317e-07
6.53878e-07
5.2803e-07
4.25111e-07
3.45456e-07
2.85346e-07
2.43046e-07
2.14012e-07
1.95914e-07
1.8543e-07
1.84869e-07
1.85511e-07
1.8364e-07
1.81185e-07
1.78618e-07
1.76713e-07
1.76718e-07
1.81867e-07
2.11536e-07
3.95219e-07
1.09558e-06
3.16327e-06
8.6599e-06
2.21179e-05
5.18925e-05
0.000111711
0.000223361
0.000417526
0.00070691
0.000992207
0.00114532
0.00125913
0.00140873
0.00152994
0.00158422
0.00160002
0.00159208
0.00156419
0.00151638
1.01898e-06
1.28787e-06
1.3614e-06
1.38552e-06
1.30711e-06
1.30476e-06
1.35222e-06
1.41439e-06
1.46896e-06
1.49838e-06
1.48586e-06
1.4102e-06
1.28897e-06
1.13663e-06
9.67054e-07
8.01884e-07
6.53855e-07
5.2802e-07
4.25059e-07
3.45345e-07
2.85194e-07
2.42886e-07
2.13824e-07
1.95711e-07
1.84701e-07
1.82607e-07
1.85027e-07
1.83654e-07
1.81183e-07
1.7854e-07
1.76584e-07
1.7632e-07
1.79383e-07
1.97201e-07
3.19405e-07
8.57888e-07
2.55846e-06
7.26125e-06
1.91533e-05
4.61975e-05
0.000101573
0.000206237
0.000390684
0.000673521
0.000967432
0.00112931
0.00124218
0.0013927
0.00151956
0.00157686
0.00159421
0.0015877
0.00156101
0.00151508
0.00145003
1.00233e-06
1.26678e-06
1.34019e-06
1.36567e-06
1.29259e-06
1.29412e-06
1.34431e-06
1.40967e-06
1.46687e-06
1.49737e-06
1.48535e-06
1.41014e-06
1.28905e-06
1.13637e-06
9.66603e-07
8.01429e-07
6.5379e-07
5.28007e-07
4.25029e-07
3.45254e-07
2.85072e-07
2.4274e-07
2.13658e-07
1.95516e-07
1.84399e-07
1.8042e-07
1.84006e-07
1.83653e-07
1.81236e-07
1.78449e-07
1.76497e-07
1.76009e-07
1.77851e-07
1.88687e-07
2.65256e-07
6.67078e-07
2.04834e-06
6.04581e-06
1.65171e-05
4.10438e-05
9.23202e-05
0.000190444
0.00036548
0.000640778
0.000941897
0.00111321
0.00122536
0.00137657
0.00150889
0.00156936
0.00158826
0.00158309
0.00155795
0.00151333
0.00145013
0.00136956
9.85566e-07
1.24542e-06
1.31988e-06
1.34708e-06
1.2787e-06
1.28349e-06
1.33627e-06
1.4049e-06
1.46482e-06
1.49639e-06
1.48465e-06
1.41e-06
1.28906e-06
1.13613e-06
9.6633e-07
8.0105e-07
6.53599e-07
5.27973e-07
4.25004e-07
3.45176e-07
2.84954e-07
2.42603e-07
2.13503e-07
1.95333e-07
1.84195e-07
1.78959e-07
1.8227e-07
1.83658e-07
1.81304e-07
1.78357e-07
1.76385e-07
1.75772e-07
1.76957e-07
1.83744e-07
2.29049e-07
5.17193e-07
1.6218e-06
4.99388e-06
1.41774e-05
3.63914e-05
8.38922e-05
0.000175958
0.000341954
0.000608987
0.000915724
0.00109704
0.00120871
0.00136036
0.00149792
0.00156171
0.00158217
0.00157833
0.00155464
0.00151167
0.00144982
0.00137098
0.00127749
9.68911e-07
1.22357e-06
1.30058e-06
1.3297e-06
1.26527e-06
1.27277e-06
1.32809e-06
1.40022e-06
1.4628e-06
1.49533e-06
1.48373e-06
1.4096e-06
1.28895e-06
1.13586e-06
9.6606e-07
8.00722e-07
6.53305e-07
5.2784e-07
4.24963e-07
3.45097e-07
2.84832e-07
2.42466e-07
2.1335e-07
1.95163e-07
1.84005e-07
1.78123e-07
1.79948e-07
1.83355e-07
1.81338e-07
1.78284e-07
1.7626e-07
1.75617e-07
1.76385e-07
1.80855e-07
2.06513e-07
4.02999e-07
1.26838e-06
4.08734e-06
1.21068e-05
3.21962e-05
7.62372e-05
0.00016272
0.000320155
0.000578384
0.000889111
0.00108079
0.00119229
0.00134408
0.00148664
0.00155394
0.00157595
0.0015734
0.00155115
0.00150975
0.00144958
0.00137203
0.00128009
0.00117697
9.51952e-07
1.2011e-06
1.28233e-06
1.31347e-06
1.25214e-06
1.26188e-06
1.31973e-06
1.39556e-06
1.46071e-06
1.49416e-06
1.48255e-06
1.40892e-06
1.28852e-06
1.13545e-06
9.65733e-07
8.00412e-07
6.5297e-07
5.27586e-07
4.24855e-07
3.44996e-07
2.84705e-07
2.42331e-07
2.13195e-07
1.95e-07
1.83818e-07
1.77741e-07
1.77575e-07
1.82549e-07
1.81388e-07
1.78244e-07
1.76123e-07
1.75491e-07
1.75948e-07
1.79119e-07
1.93617e-07
3.1953e-07
9.79491e-07
3.30936e-06
1.02786e-05
2.84209e-05
6.92938e-05
0.000150681
0.000300093
0.000549232
0.000862263
0.00106449
0.00117616
0.00132777
0.00147505
0.00154604
0.00156958
0.00156829
0.00154745
0.00150764
0.00144909
0.00137314
0.00128236
0.00118055
0.00107133
9.34814e-07
1.17828e-06
1.26523e-06
1.29821e-06
1.23916e-06
1.25077e-06
1.31128e-06
1.39089e-06
1.45849e-06
1.49281e-06
1.48127e-06
1.40787e-06
1.28781e-06
1.13482e-06
9.65307e-07
8.00067e-07
6.52575e-07
5.27207e-07
4.24683e-07
3.44863e-07
2.84579e-07
2.42199e-07
2.13037e-07
1.9484e-07
1.83642e-07
1.77566e-07
1.7569e-07
1.8119e-07
1.81432e-07
1.78242e-07
1.75976e-07
1.75353e-07
1.75615e-07
1.78065e-07
1.86627e-07
2.61167e-07
7.47309e-07
2.64654e-06
8.66634e-06
2.50287e-05
6.30114e-05
0.000139761
0.000281775
0.000521736
0.000835438
0.00104819
0.00116038
0.00131147
0.00146315
0.00153801
0.00156308
0.00156301
0.00154356
0.00150531
0.00144839
0.00137401
0.00128469
0.00118386
0.00107571
0.000963859
9.17994e-07
1.15549e-06
1.24932e-06
1.2836e-06
1.22614e-06
1.23938e-06
1.30274e-06
1.38619e-06
1.45608e-06
1.49124e-06
1.47993e-06
1.40656e-06
1.28676e-06
1.13403e-06
9.64737e-07
7.99675e-07
6.52127e-07
5.26735e-07
4.24358e-07
3.44696e-07
2.84453e-07
2.42061e-07
2.12878e-07
1.94678e-07
1.83476e-07
1.77382e-07
1.74616e-07
1.79177e-07
1.8135e-07
1.78279e-07
1.75828e-07
1.752e-07
1.75425e-07
1.77344e-07
1.82909e-07
2.23704e-07
5.65193e-07
2.08629e-06
7.24776e-06
2.19804e-05
5.7344e-05
0.000129892
0.000265154
0.000496122
0.000808899
0.00103196
0.00114501
0.00129524
0.00145093
0.00152987
0.00155644
0.00155757
0.00153948
0.00150277
0.00144747
0.00137468
0.00128679
0.00118721
0.00107984
0.000968827
0.000857478
9.0119e-07
1.13339e-06
1.23455e-06
1.26941e-06
1.213e-06
1.22762e-06
1.29415e-06
1.38146e-06
1.45336e-06
1.48946e-06
1.47849e-06
1.4052e-06
1.28556e-06
1.13298e-06
9.64035e-07
7.99201e-07
6.51678e-07
5.2621e-07
4.23962e-07
3.44489e-07
2.84319e-07
2.41917e-07
2.12723e-07
1.94517e-07
1.83317e-07
1.77208e-07
1.74036e-07
1.76874e-07
1.80934e-07
1.78281e-07
1.757e-07
1.75034e-07
1.75253e-07
1.76819e-07
1.80848e-07
2.02041e-07
4.27381e-07
1.61826e-06
6.00113e-06
1.9242e-05
5.22444e-05
0.000121004
0.000250173
0.000472545
0.000782981
0.00101588
0.00113015
0.00127917
0.00143839
0.00152163
0.00154968
0.00155196
0.00153519
0.0015
0.00144633
0.00137513
0.00128869
0.00119035
0.00108401
0.000973581
0.00086286
0.00075466
8.84723e-07
1.11231e-06
1.22066e-06
1.25535e-06
1.19962e-06
1.21554e-06
1.28552e-06
1.37663e-06
1.45032e-06
1.48736e-06
1.47693e-06
1.40392e-06
1.28441e-06
1.13183e-06
9.63214e-07
7.98677e-07
6.51235e-07
5.25733e-07
4.23538e-07
3.44204e-07
2.84178e-07
2.41779e-07
2.12576e-07
1.94359e-07
1.83161e-07
1.77042e-07
1.73792e-07
1.7474e-07
1.80045e-07
1.78278e-07
1.75602e-07
1.74859e-07
1.75086e-07
1.76401e-07
1.79589e-07
1.90698e-07
3.28339e-07
1.23228e-06
4.90942e-06
1.67765e-05
4.76745e-05
0.000113036
0.000236749
0.00045113
0.000758019
0.00100005
0.00111586
0.00126335
0.00142552
0.00151329
0.0015428
0.00154618
0.00153071
0.00149702
0.00144496
0.00137535
0.00129038
0.00119331
0.00108799
0.000978376
0.00086805
0.000760292
0.000657324
8.69378e-07
1.0925e-06
1.20752e-06
1.24118e-06
1.18592e-06
1.20316e-06
1.27687e-06
1.37165e-06
1.4471e-06
1.48488e-06
1.47504e-06
1.40261e-06
1.2833e-06
1.13075e-06
9.62379e-07
7.98126e-07
6.50804e-07
5.25319e-07
4.23138e-07
3.43877e-07
2.84024e-07
2.41639e-07
2.12428e-07
1.94204e-07
1.83003e-07
1.76886e-07
1.73606e-07
1.73256e-07
1.78603e-07
1.78251e-07
1.75534e-07
1.74677e-07
1.74916e-07
1.76118e-07
1.7875e-07
1.85176e-07
2.61782e-07
9.20005e-07
3.95703e-06
1.45536e-05
4.35904e-05
0.000105943
0.000224779
0.000431925
0.000734403
0.000984578
0.00110225
0.0012479
0.00141234
0.00150488
0.0015358
0.00154025
0.00152603
0.00149381
0.00144335
0.00137534
0.00129185
0.00119607
0.00109181
0.000982996
0.00087328
0.000765755
0.000663072
0.000566859
8.54921e-07
1.07416e-06
1.19498e-06
1.22682e-06
1.1719e-06
1.1906e-06
1.2682e-06
1.36649e-06
1.44368e-06
1.48211e-06
1.47296e-06
1.40113e-06
1.28216e-06
1.12973e-06
9.61559e-07
7.97525e-07
6.50363e-07
5.24927e-07
4.22786e-07
3.43539e-07
2.83846e-07
2.41491e-07
2.12278e-07
1.94056e-07
1.82846e-07
1.76733e-07
1.73432e-07
1.72336e-07
1.76778e-07
1.78095e-07
1.7547e-07
1.74491e-07
1.74733e-07
1.75898e-07
1.78148e-07
1.82439e-07
2.21205e-07
6.74059e-07
3.13265e-06
1.25427e-05
3.99562e-05
9.9677e-05
0.000214193
0.00041488
0.000712514
0.000969632
0.0010894
0.00123296
0.00139886
0.0014964
0.00152868
0.00153416
0.00152115
0.00149037
0.00144149
0.00137509
0.00129309
0.00119863
0.00109544
0.000987468
0.000878352
0.000771251
0.000668659
0.000572602
0.000484168
8.41263e-07
1.05745e-06
1.18293e-06
1.21211e-06
1.15748e-06
1.17794e-06
1.25955e-06
1.3612e-06
1.44e-06
1.47918e-06
1.47071e-06
1.39959e-06
1.28088e-06
1.12864e-06
9.60729e-07
7.96841e-07
6.49862e-07
5.24528e-07
4.22482e-07
3.43227e-07
2.83636e-07
2.41333e-07
2.1213e-07
1.93908e-07
1.82686e-07
1.76578e-07
1.73263e-07
1.71854e-07
1.74826e-07
1.77601e-07
1.75395e-07
1.74308e-07
1.74542e-07
1.75689e-07
1.77683e-07
1.80901e-07
2.00005e-07
4.88285e-07
2.42568e-06
1.0719e-05
3.6735e-05
9.41987e-05
0.000204929
0.000399917
0.000692642
0.000955445
0.00107741
0.00121864
0.0013854
0.00148788
0.00152144
0.00152791
0.00151607
0.00148671
0.00143939
0.00137458
0.00129409
0.00120096
0.00109888
0.000991768
0.000883291
0.000776611
0.000674283
0.000578191
0.000489804
0.000409728
8.28155e-07
1.04221e-06
1.17131e-06
1.19696e-06
1.14259e-06
1.16515e-06
1.25091e-06
1.3557e-06
1.43604e-06
1.47613e-06
1.46819e-06
1.39791e-06
1.27947e-06
1.12741e-06
9.59846e-07
7.96113e-07
6.49271e-07
5.24082e-07
4.22169e-07
3.42932e-07
2.834e-07
2.41158e-07
2.11981e-07
1.93758e-07
1.82526e-07
1.76418e-07
1.73102e-07
1.71631e-07
1.7318e-07
1.76735e-07
1.75329e-07
1.74147e-07
1.7434e-07
1.75514e-07
1.77309e-07
1.79866e-07
1.90358e-07
3.57362e-07
1.82759e-06
9.05706e-06
3.39018e-05
8.94592e-05
0.000196952
0.000386942
0.000674978
0.00094231
0.0010664
0.00120507
0.00137222
0.00147928
0.00151411
0.00152152
0.00151081
0.00148282
0.00143705
0.00137381
0.00129484
0.00120305
0.00110211
0.000995895
0.000888077
0.000781852
0.000679786
0.000583821
0.000495286
0.000415163
0.000343677
8.15314e-07
1.02801e-06
1.15981e-06
1.18132e-06
1.12729e-06
1.15227e-06
1.24213e-06
1.35e-06
1.43183e-06
1.47285e-06
1.46559e-06
1.39606e-06
1.27789e-06
1.12599e-06
9.58887e-07
7.95352e-07
6.48617e-07
5.23578e-07
4.21843e-07
3.42643e-07
2.83158e-07
2.40963e-07
2.11825e-07
1.93605e-07
1.82366e-07
1.76255e-07
1.7295e-07
1.71443e-07
1.72016e-07
1.75566e-07
1.75124e-07
1.74014e-07
1.74132e-07
1.75346e-07
1.77051e-07
1.79104e-07
1.86318e-07
2.74222e-07
1.33087e-06
7.53549e-06
3.14368e-05
8.54191e-05
0.000190216
0.000375907
0.000659573
0.00093053
0.00105653
0.00119232
0.00135938
0.00147058
0.00150667
0.00151498
0.00150535
0.0014787
0.00143444
0.00137279
0.00129533
0.00120491
0.00110512
0.000999827
0.000892699
0.000786954
0.000685183
0.000589346
0.000500815
0.000420445
0.000348828
0.000285875
8.02588e-07
1.01434e-06
1.14807e-06
1.1653e-06
1.11165e-06
1.13945e-06
1.23311e-06
1.34401e-06
1.42741e-06
1.46938e-06
1.46283e-06
1.39396e-06
1.27621e-06
1.12445e-06
9.57796e-07
7.94567e-07
6.47954e-07
5.2303e-07
4.21498e-07
3.42348e-07
2.82917e-07
2.40738e-07
2.11664e-07
1.93451e-07
1.82209e-07
1.76091e-07
1.72796e-07
1.71271e-07
1.71219e-07
1.74185e-07
1.74813e-07
1.73885e-07
1.73918e-07
1.75175e-07
1.76815e-07
1.78544e-07
1.84333e-07
2.28825e-07
9.30885e-07
6.13551e-06
2.93317e-05
8.20423e-05
0.000184676
0.000366785
0.00064644
0.000920315
0.001048
0.00118049
0.00134696
0.00146177
0.00149914
0.00150831
0.00149971
0.00147435
0.00143158
0.00137149
0.00129555
0.0012065
0.00110789
0.00100355
0.000897149
0.00079191
0.000690458
0.000594779
0.000506258
0.000425787
0.000353829
0.000290668
0.000235969
7.89881e-07
1.0006e-06
1.13582e-06
1.14898e-06
1.09573e-06
1.12682e-06
1.22393e-06
1.33762e-06
1.42261e-06
1.46564e-06
1.45985e-06
1.39168e-06
1.27444e-06
1.12286e-06
9.56564e-07
7.93729e-07
6.47298e-07
5.22472e-07
4.21126e-07
3.42044e-07
2.82686e-07
2.40503e-07
2.11494e-07
1.93295e-07
1.82051e-07
1.75929e-07
1.72637e-07
1.71117e-07
1.70835e-07
1.72856e-07
1.74346e-07
1.73723e-07
1.737e-07
1.74996e-07
1.76562e-07
1.78095e-07
1.8305e-07
2.09729e-07
6.29223e-07
4.83999e-06
2.75852e-05
7.93083e-05
0.000180272
0.000359553
0.000635592
0.000911773
0.00104103
0.00116969
0.00133501
0.00145287
0.00149152
0.0015015
0.00149388
0.00146977
0.00142846
0.00136992
0.00129549
0.00120783
0.00111042