/*--------------------------------*- C++ -*----------------------------------*\
| =========                 |                                                 |
| \\      /  F ield         | OpenFOAM: The Open Source CFD Toolbox           |
|  \\    /   O peration     | Version:  v2012                                 |
|   \\  /    A nd           | Website:  www.openfoam.com                      |
|    \\/     M anipulation  |                                                 |
\*---------------------------------------------------------------------------*/
FoamFile
{
    version     2.0;
    format      ascii;
    class       volScalarField;
    location    "12000";
    object      PD;
}
// * * * * * * * * * * * * * * * * * * * * * * * * * * * * * * * * * * * * * //

dimensions      [0 0 0 0 0 0 0];


internalField   nonuniform List<scalar> 
27324
(
0.72564
0.837158
1.03616
0.898071
1.16167
1.1226
0.974033
1.2449
1.23748
1.2211
1.04403
1.35909
1.32864
1.343
1.33733
1.10182
1.49212
1.45948
1.45631
1.46157
1.36316
1.15666
1.64425
1.62067
1.61359
1.57758
1.46573
1.33382
1.22596
1.83811
1.80646
1.7966
1.72701
1.55301
1.45009
1.37371
1.30827
2.11213
2.03353
1.9789
1.88369
1.68696
1.52351
1.54333
1.40489
1.48152
2.50378
2.3375
2.17117
2.01112
1.81665
1.67916
1.52919
1.6502
1.50113
2.23156
3.03768
2.77776
2.42131
2.13668
1.88275
1.78337
1.62698
1.48128
1.90915
1.66435
4.75512
3.54787
3.29545
2.81135
2.33463
1.93637
1.72671
1.64267
1.46402
1.551
2.26249
1.77821
3.2613
4.47236
4.3321
3.53199
2.71518
2.07564
1.6489
1.40374
1.44077
1.34996
1.72061
2.53208
1.75266
0.679918
2.51708
5.25509
5.43058
3.9835
2.52119
1.70083
1.24632
1.03502
1.39248
1.26047
1.96689
2.4866
1.56165
0.483965
0.894649
2.68442
6.458
7.42167
4.83202
2.54847
1.31098
0.807035
0.890496
1.42803
1.2259
2.26358
2.07336
1.26464
0.48313
0.822411
0.935661
2.94211
8.86935
12.6726
8.00481
2.96486
0.950865
0.494746
0.999803
1.40556
1.31556
2.52116
1.37378
0.960803
0.516207
0.832776
0.911625
0.956097
3.5324
14.4406
25.932
18.3117
4.70911
0.841663
0.281943
1.29857
1.26621
1.61749
2.26411
0.876316
0.860355
0.555788
0.887736
0.947035
0.934311
0.931212
5.22296
26.0433
50.1532
41.6075
12.3101
1.45898
0.268069
1.45443
0.962573
2.20161
1.59506
0.520583
0.849362
0.592723
0.917373
0.987417
0.957257
0.890716
0.898356
10.3275
41.748
78.8869
84.5801
36.0868
5.94344
0.978921
1.16401
0.599673
2.3571
0.584514
0.0917999
0.286542
0.630323
0.945255
0.988256
0.953731
0.911965
0.788621
1.29655
22.2712
49.3426
97.7757
145.005
97.5541
31.003
7.4207
2.69678
1.36689
2.29119
1.35914
1.7234
3.872
0.655334
0.969143
0.986037
0.941959
0.892236
0.852404
0.684253
3.84051
37.7826
42.9951
89.473
182.392
197.772
119.392
54.6466
29.838
20.1352
20.9816
24.1652
35.0908
40.8658
0.668821
0.98093
0.976106
0.930299
0.877863
0.869759
0.82335
0.52899
12.1058
49.884
26.4866
55.2494
144.847
233.142
234.884
180.028
138.206
113.332
112.335
105.66
114.111
80.2223
0.673181
0.984744
0.960962
0.918267
0.877805
0.889349
0.893138
0.667737
0.779598
31.4297
50.879
10.4831
20.6737
59.9674
122.145
170.592
176.375
160.734
135.878
110.264
78.0622
45.3484
46.8552
0.669882
0.981958
0.944672
0.907423
0.885104
0.913052
0.935488
0.735412
0.387983
3.06908
65.2736
38.5542
2.32196
3.48773
9.77375
22.0896
36.8687
44.4046
41.6768
30.578
16.6766
6.36894
7.05526
18.284
0.655783
0.968712
0.930244
0.898335
0.902439
0.939208
0.96196
0.745678
0.495654
0.269584
12.4373
101.46
20.0918
0.29909
0.0457785
0.330262
1.31292
2.61657
2.8655
1.91225
0.74194
0.137131
0.64371
15.2411
7.20021
0.632363
0.94171
0.916916
0.898642
0.92401
0.961009
0.979608
0.748767
0.54863
0.410852
0.400903
40.8947
107.09
7.38543
0.586144
0.216399
0.398521
1.34451
1.87135
1.39558
0.563029
0.101884
0.031972
5.91316
15.8063
1.77154
0.607831
0.910226
0.908775
0.912364
0.948147
0.973936
0.976166
0.747221
0.558886
0.491898
0.213174
2.8095
93.459
75.9782
2.04854
0.294194
0.223256
0.761075
1.94798
2.06071
1.1575
0.321849
0.0388257
1.37681
14.1081
6.43548
0.379602
0.596715
0.885058
0.914787
0.936499
0.971103
0.974813
0.956379
0.740199
0.567781
0.512155
0.300068
0.0521824
14.8158
140.931
36.0485
0.640661
0.00511353
0.206202
1.23959
2.07008
1.51584
0.515507
0.0519481
0.148381
9.10861
10.2257
1.49786
0.0954327
0.603571
0.877099
0.931714
0.966125
0.984032
0.964111
0.933215
0.729076
0.562
0.530817
0.345706
0.134952
0.411102
53.6057
129.617
10.6193
0.207067
0.0212362
0.517691
1.76574
1.85181
0.89804
0.142921
0.00371225
3.42918
13.472
3.10286
0.297905
0.0367713
0.620449
0.8857
0.950206
0.992929
0.980132
0.948202
0.912083
0.725321
0.543977
0.539775
0.374046
0.199947
0.028333
4.28774
120.02
68.9656
1.6995
0.00492432
0.143918
1.12114
2.011
1.32791
0.366229
0.014439
0.720068
11.8785
6.32801
0.602583
0.0794638
0.02519
0.646303
0.909626
0.963856
1.00469
0.969545
0.932295
0.901574
0.726482
0.529591
0.531669
0.396729
0.235656
0.0770804
0.0477425
25.0997
150.085
21.8102
0.349867
0.0560188
0.455352
1.76565
1.71406
0.701526
0.0629924
0.0719875
6.8738
10.0844
1.44106
0.121756
0.0394694
0.0270352
0.697133
0.947467
0.992537
1.0002
0.954107
0.921838
0.909695
0.731963
0.523082
0.525541
0.391601
0.262624
0.105292
0.0159256
1.25993
82.9645
101.078
4.823
0.0208745
0.104529
1.11494
1.89881
1.1049
0.212789
0.00100688
2.46499
12.1051
3.11973
0.260961
0.0402832
0.037111
0.027842
0.738603
0.994338
1.00163
0.980752
0.939562
0.921998
0.924169
0.74078
0.527549
0.522753
0.378207
0.254808
0.129289
0.0419998
0.0112028
11.5682
138.788
35.6973
0.702216
0.0046577
0.427596
1.71434
1.51277
0.45424
0.0151919
0.505181
10.2901
5.90194
0.579306
0.0634803
0.0294685
0.0395383
0.0145391
0.76925
1.02283
0.985559
0.938187
0.915082
0.933455
0.943568
0.749272
0.542514
0.522629
0.364704
0.230504
0.133125
0.069676
0.00548082
0.407921
56.5817
109.39
6.56996
0.0246223
0.0825254
1.14735
1.7712
0.822607
0.0852294
0.0524194
5.9262
9.1208
1.29884
0.112922
0.0326683
0.0320652
0.0257192
0.00909277
0.780597
1.03383
0.958398
0.896266
0.904745
0.961601
0.962675
0.754575
0.561983
0.522977
0.355329
0.208978
0.116111
0.0906485
0.0265539
0.0038932
6.28915
121.423
40.5539
0.690641
0.00964947
0.479891
1.72442
1.22694
0.252776
0.000853368
2.18311
10.9009
2.72524
0.228247
0.0402318
0.0302268
0.0232668
0.0190865
0.0520306
0.775095
1.02395
0.931667
0.863571
0.920014
0.994666
0.970684
0.754769
0.579913
0.522596
0.351092
0.196842
0.0985079
0.0855535
0.0519337
0.0109891
0.163635
43.5646
104.551
7.61228
0.0345861
0.0933143
1.27232
1.5839
0.547452
0.027671
0.473481
9.58075
5.05427
0.488641
0.0593663
0.0276315
0.024299
0.019533
0.0696607
0.163391
0.760493
1.00924
0.905145
0.857213
0.933467
1.02441
0.966275
0.748775
0.594026
0.516982
0.353142
0.196607
0.088743
0.0658818
0.0593266
0.0284228
0.00113502
4.82776
106.223
37.575
0.754744
0.00226921
0.614197
1.72437
0.936641
0.120228
0.0452777
5.94811
7.87067
1.05065
0.101378
0.0276204
0.0220814
0.0249927
0.0768247
0.189465
0.336398
0.720681
0.963326
0.890035
0.865679
0.945337
1.0425
0.939501
0.73788
0.602353
0.51719
0.35644
0.205596
0.0893264
0.0493499
0.04276
0.0468515
0.0093776
0.151644
39.5933
91.7441
6.17628
0.0357918
0.151084
1.49894
1.35949
0.322681
0.000844333
2.4883
9.83918
2.15418
0.191079
0.0326119
0.0183245
0.0300353
0.0907208
0.201356
0.365039
0.520184
0.707168
0.932208
0.876019
0.875845
0.953868
1.03476
0.914106
0.727402
0.615154
0.49135
0.359546
0.218474
0.0977449
0.0414667
0.0242963
0.0402021
0.0300547
0.000684699
5.22988
96.7921
29.915
0.531149
0.0112572
0.934192
1.68522
0.633112
0.0353777
0.656782
9.40847
3.99945
0.383607
0.0462772
0.0142392
0.0358156
0.104037
0.22286
0.367564
0.549688
0.668289
0.716917
0.929293
0.90671
0.910994
0.959459
1.01517
0.88842
0.720913
0.608905
0.477217
0.360318
0.227328
0.108486
0.0418222
0.0140647
0.0247751
0.0374724
0.00329047
0.250774
42.7022
74.5464
4.14383
0.0186721
0.357728
1.73164
1.04007
0.1282
0.0932571
6.64518
6.42969
0.786174
0.0747729
0.012587
0.0416396
0.119741
0.244984
0.384811
0.537904
0.701318
0.759669
0.74437
0.944086
0.933226
0.941048
0.961096
0.998517
0.871514
0.710471
0.610224
0.466187
0.35057
0.235415
0.11633
0.0448206
0.0134259
0.011772
0.0369562
0.0148989
0.0123228
7.54039
90.295
19.3679
0.238523
0.0674962
1.37723
1.43419
0.323012
0.000288679
3.33516
8.6197
1.56788
0.135357
0.0143751
0.0474559
0.136897
0.269269
0.404346
0.545767
0.678476
0.79713
0.79081
0.767602
0.966153
0.949261
0.940742
0.948243
0.97617
0.864449
0.703439
0.603202
0.454209
0.337312
0.23429
0.11916
0.0475737
0.0163708
0.00830899
0.0267569
0.0232363
0.00766127
0.547156
51.2677
53.4335
1.95992
0.00287605
0.756186
1.70383
0.630532
0.024499
1.12884
9.25868
2.91514
0.262135
0.0201404
0.0541119
0.155014
0.294346
0.427334
0.552966
0.678888
0.768122
0.833103
0.752006
0.835163
0.980522
0.945438
0.933794
0.944397
0.958482
0.866352
0.701266
0.596545
0.432489
0.315836
0.218082
0.114167
0.0452249
0.0188584
0.00835525
0.0167534
0.0286455
0.0152332
0.0233964
13.0271
79.2359
9.82388
0.0580639
0.246485
1.67103
1.01955
0.107366
0.235778
7.68448
4.86283
0.518354
0.034178
0.0629731
0.173461
0.320591
0.45377
0.564055
0.675149
0.766163
0.802202
0.800909
0.640132
0.871416
1.01679
0.932653
0.923241
0.949374
0.970384
0.877622
0.721868
0.594631
0.40647
0.284994
0.201031
0.0975332
0.0372921
0.0187309
0.00767929
0.0113783
0.0195181
0.0280156
0.0044786
1.42019
60.8395
31.721
0.615969
0.03668
1.26927
1.40804
0.278617
0.0144118
4.77823
7.03302
1.00835
0.0656918
0.073932
0.192896
0.349466
0.483282
0.578572
0.673435
0.757728
0.801901
0.773366
0.69359
0.453629
0.874501
1.00991
0.889774
0.917019
0.962914
0.98035
0.886963
0.739977
0.608081
0.39415
0.254181
0.177389
0.0817715
0.0269391
0.0159322
0.00657127
0.00753257
0.0111009
0.0347825
0.00979804
0.0536149
23.2792
59.9736
3.86744
0.00322967
0.670348
1.6628
0.587964
0.00872671
2.13834
8.53505
1.87192
0.134903
0.0859566
0.213316
0.380906
0.515296
0.596469
0.673367
0.749405
0.794367
0.778207
0.675005
0.494075
0.313717
0.863256
0.989585
0.848842
0.904423
0.978066
0.985564
0.888718
0.764899
0.612616
0.390257
0.242406
0.158449
0.0635484
0.0166193
0.0124775
0.00789066
0.00635193
0.00707548
0.0293675
0.0332468
0.00143065
4.11221
64.8433
14.7997
0.144959
0.216061
1.65586
0.939552
0.0759765
0.660056
8.3655
3.23155
0.27359
0.098499
0.236664
0.415309
0.548935
0.617293
0.675945
0.740395
0.786131
0.7757
0.685051
0.485436
0.330207
0.300974
0.827082
0.969155
0.840969
0.921609
1.0013
0.984186
0.885764
0.791134
0.617314
0.390067
0.24245
0.154837
0.0505806
0.0095157
0.00882009
0.0107623
0.0114219
0.00926703
0.0227899
0.0472353
0.0150953
0.280913
38.745
36.7245
1.11231
0.0319704
1.29302
1.32897
0.225357
0.124123
6.45618
5.00765
0.53711
0.113809
0.264305
0.452934
0.583457
0.640592
0.681662
0.732165
0.77572
0.772513
0.687662
0.499998
0.324948
0.304014
0.333951
0.806513
0.937198
0.850963
0.937445
1.01136
0.966994
0.880552
0.812761
0.621675
0.400285
0.25809
0.162064
0.0457022
0.00436178
0.00667907
0.012845
0.0190937
0.0153595
0.0182261
0.0481576
0.0368912
0.00301499
12.4332
56.0443
5.21161
0.00701349
0.735524
1.60572
0.475896
0.00130427
3.81415
6.71372
1.02863
0.143047
0.299911
0.49309
0.617974
0.665835
0.690618
0.725729
0.763924
0.766898
0.690219
0.510888
0.333191
0.295963
0.341528
0.337544
0.849756
0.954847
0.882184
0.950335
0.997178
0.939023
0.873099
0.825378
0.618562
0.415461
0.285995
0.187492
0.0474116
0.00268695
0.00219953
0.0101815
0.0201863
0.0204881
0.0150753
0.029604
0.0493921
0.00670949
2.02957
51.8128
16.4304
0.187084
0.276596
1.66613
0.818908
0.0324878
1.66632
7.63324
1.86567
0.211027
0.341739
0.533817
0.651822
0.692731
0.702591
0.721807
0.751433
0.759194
0.69082
0.521903
0.339763
0.293239
0.335317
0.353884
0.314814
0.904267
1.00224
0.937349
0.974029
0.979355
0.913955
0.876946
0.844934
0.609682
0.426038
0.319273
0.213673
0.0587621
0.00496694
0.000437921
0.00309206
0.0110182
0.019214
0.0124843
0.014116
0.0382559
0.0158221
0.152243
28.3296
35.0886
1.20535
0.0570846
1.41125
1.17845
0.148886
0.504482
7.1775
3.05479
0.349182
0.384064
0.571713
0.685165
0.721126
0.717195
0.720771
0.739297
0.749288
0.689907
0.531571
0.34637
0.288962
0.333752
0.352425
0.334118
0.289547
0.946757
1.04278
0.954082
0.964634
0.942105
0.898926
0.885338
0.841484
0.579107
0.426093
0.347457
0.241923
0.0722028
0.0110697
0.00481402
0.000247503
0.00229126
0.00957968
0.0100593
0.00530204
0.0198543
0.0282152
0.00314425
8.92114
48.5126
5.00304
0.00214941
0.923092
1.48301
0.356184
0.0698478
5.43812
4.44499
0.628098
0.413756
0.601427
0.719328
0.75107
0.733862
0.722478
0.728684
0.737554
0.687188
0.540064
0.352699
0.284917
0.330843
0.357014
0.334595
0.309438
0.268099
1.0252
1.06599
0.956733
0.948367
0.9166
0.886743
0.88825
0.836843
0.556407
0.410854
0.360451
0.262593
0.0865474
0.0170375
0.013984
0.00649239
0.000373693
0.00347433
0.00780821
0.0033618
0.00727138
0.0334122
0.00516299
1.52217
43.1496
14.6637
0.1418
0.433977
1.62759
0.680287
0.0112005
3.20851
5.67697
1.13182
0.435208
0.6316
0.75695
0.782216
0.751875
0.726371
0.720388
0.724853
0.682587
0.547234
0.358625
0.280829
0.327563
0.360299
0.341929
0.309871
0.28838
0.248985
1.01492
1.08882
0.95422
0.938971
0.91213
0.898078
0.928362
0.825742
0.522531
0.396104
0.362166
0.266692
0.0956637
0.0225014
0.0192632
0.0193745
0.00686087
0.00360408
0.00607923
0.00456897
0.00333738
0.0263112
0.0184661
0.113061
24.1058
29.8481
0.939586
0.129794
1.55106
0.998883
0.124699
1.43479
6.25484
1.83747
0.469631
0.665099
0.800271
0.813499
0.770403
0.731937
0.714762
0.712262
0.67589
0.553026
0.363974
0.276689
0.323554
0.363364
0.348354
0.317226
0.288516
0.269713
0.230935
1.00458
1.06305
0.921755
0.934928
0.911613
0.912161
0.957953
0.825555
0.49555
0.372809
0.3517
0.247398
0.09643
0.0239639
0.0194872
0.0234106
0.0156383
0.00622008
0.00480389
0.00582146
0.00230127
0.0152773
0.0369028
9.14403e-05
8.30265
41.3985
3.77285
0.00578115
1.2161
1.32377
0.354445
0.462026
5.77878
2.79249
0.574477
0.70235
0.848043
0.843181
0.788771
0.738877
0.711719
0.7011
0.667331
0.557031
0.368537
0.272461
0.318973
0.365814
0.355203
0.323814
0.295644
0.269515
0.252097
0.213641
1.00954
1.0589
0.913277
0.928018
0.910305
0.921818
0.982886
0.816518
0.472657
0.355306
0.336326
0.225957
0.0829446
0.0231726
0.0134043
0.0143793
0.0216556
0.00700079
0.00257712
0.00577805
0.00325025
0.00798697
0.0434047
0.0116412
1.6793
38.575
11.172
0.0601947
0.751659
1.55621
0.65672
0.103717
4.44457
3.89084
0.823577
0.765877
0.891676
0.869863
0.806548
0.7469
0.710563
0.692023
0.657563
0.558694
0.372185
0.268084
0.313838
0.367883
0.362163
0.330983
0.302087
0.276469
0.251451
0.235027
0.197257
1.0434
1.07028
0.919873
0.930579
0.90912
0.928672
1.00244
0.812599
0.457611
0.362269
0.321883
0.201936
0.070818
0.0213657
0.0107427
0.00337044
0.0117093
0.00829145
0.00071038
0.00565487
0.0070908
0.00509394
0.0343378
0.029066
0.170608
24.2096
22.9334
0.553253
0.340552
1.67173
1.02728
0.172832
2.85598
4.80709
1.28699
0.82127
0.927122
0.893601
0.824023
0.75593
0.710786
0.685098
0.647767
0.557363
0.374748
0.263656
0.308303
0.369535
0.369264
0.338414
0.309105
0.282734
0.258141
0.233914
0.218553
0.182198
1.12243
1.11553
0.929768
0.922151
0.90601
0.941952
1.02596
0.806978
0.455259
0.386468
0.336994
0.183076
0.0581953
0.0201446
0.0142547
0.00108972
0.0026887
0.00631786
0.000130032
0.00463349
0.0109553
0.00470024
0.0195902
0.0457794
0.0026687
10.0245
33.899
2.38539
0.0980075
1.59526
1.32106
0.499114
1.55813
5.1743
1.99759
0.853947
0.942145
0.916735
0.841471
0.765618
0.711824
0.679735
0.639053
0.552733
0.375993
0.259304
0.302469
0.370848
0.376487
0.346218
0.316437
0.289614
0.264205
0.240253
0.217014
0.203021
0.16883
1.20563
1.18002
0.944126
0.90398
0.899751
0.952691
1.0381
0.804576
0.455565
0.416397
0.352694
0.180482
0.048321
0.0183586
0.0174827
0.00749274
0.00145564
0.00350564
0.0018444
0.00446475
0.0104652
0.00560609
0.00906646
0.0419558
0.00702863
2.69184
35.25
7.10139
0.00100551
1.30545
1.60438
0.981148
0.80002
4.82729
2.80589
0.906761
0.951219
0.943187
0.858906
0.775175
0.713176
0.675129
0.63194
0.545433
0.375551
0.255252
0.296465
0.371735
0.383872
0.354424
0.324177
0.296816
0.270876
0.246011
0.222928
0.201009
0.188692
0.157442
1.2976
1.23348
0.946179
0.885876
0.893509
0.966564
1.03582
0.779314
0.448473
0.447813
0.368383
0.188122
0.0468655
0.0112705
0.0150902
0.0125514
0.00377289
0.0010807
0.00370766
0.00189537
0.00496589
0.00742952
0.00373575
0.0282289
0.0236478
0.433134
25.9425
15.8218
0.184326
0.898685
1.85362
1.5223
0.58131
3.88089
3.70764
1.07795
0.963966
0.975916
0.875463
0.783648
0.714333
0.670588
0.626014
0.536973
0.373148
0.251667
0.290318
0.372172
0.391329
0.362981
0.332314
0.304426
0.277848
0.25237
0.228291
0.206437
0.186321
0.175982
0.14837
1.33164
1.27466
0.937802
0.868063
0.893703
0.989424
1.03486
0.752708
0.448252
0.469031
0.380955
0.196013
0.0544276
0.00999917
0.00700372
0.00939186
0.00450032
4.50951e-05
0.00467028
0.00175322
0.000366103
0.00776261
0.0021728
0.0126191
0.0386998
0.023257
13.4719
25.5888
1.16145
0.516444
2.03842
2.01216
0.778164
2.79705
4.49328
1.44537
1.02644
1.00797
0.889424
0.790225
0.714813
0.665736
0.620233
0.52918
0.368915
0.248486
0.283939
0.37201
0.398763
0.371913
0.3408
0.312389
0.285239
0.259039
0.234204
0.211338
0.191206
0.17328
0.165124
0.141773
1.37153
1.28372
0.919031
0.859053
0.890967
1.00954
1.02394
0.72278
0.452366
0.487914
0.376849
0.198375
0.0628366
0.0160036
0.00510871
0.00401886
0.00301019
0.000745567
0.00442285
0.00738232
0.000895555
0.00566946
0.00277843
0.00476577
0.0442416
0.00452515
4.99473
30.4208
3.95649
0.210279
2.07307
2.45447
1.28515
1.9268
4.87292
2.06321
1.07523
1.02809
0.899828
0.794561
0.714251
0.660547
0.613886
0.523004
0.363479
0.24516
0.277072
0.371073
0.40602
0.381125
0.349598
0.320709
0.292952
0.266058
0.240461
0.216754
0.195581
0.177583
0.162207
0.156474
0.137718
1.44264
1.29485
0.90791
0.859696
0.889494
1.0296
0.998776
0.69047
0.454994
0.498892
0.364189
0.190065
0.0666583
0.0226591
0.00690534
0.00391224
0.00196475
0.00290189
0.00390438
0.0124829
0.00367768
0.00238998
0.00435566
0.00224609
0.0316986
0.0311383
1.25506
26.934
9.70489
0.0280311
1.94
2.85665
1.9294
1.36783
4.67661
2.86396
1.11993
1.02472
0.908692
0.797019
0.712187
0.654527
0.606472
0.517801
0.357589
0.24073
0.269459
0.369288
0.413023
0.390644
0.358723
0.329323
0.301007
0.273434
0.247056
0.222481
0.200472
0.181407
0.165938
0.153458
0.150239
0.136554
1.52472
1.31248
0.89102
0.860398
0.89975
1.04327
0.979172
0.654388
0.466451
0.506351
0.355145
0.174486
0.0613735
0.0233067
0.00775204
0.0043083
0.00224071
0.0035217
0.00205222
0.0105879
0.00628192
0.000475538
0.00535433
0.0016281
0.0170372
0.0567881
0.178953
18.1699
16.7642
0.264291
1.70418
3.19148
2.62387
1.23589
4.04956
3.63574
1.21152
1.01843
0.920162
0.797916
0.708149
0.646986
0.598032
0.512344
0.352388
0.234971
0.261226
0.366697
0.419733
0.400524
0.368216
0.338304
0.309388
0.28113
0.25398
0.228569
0.205632
0.185671
0.169163
0.15653
0.147115
0.146603
0.138384
1.57349
1.32486
0.862943
0.863584
0.90911
1.04959
0.960529
0.623388
0.488133
0.510246
0.354337
0.168801
0.0534448
0.0195667
0.00513266
0.00336849
0.00140099
0.00300696
0.00152825
0.0059298
0.00711493
7.95688e-05
0.00422168
0.00252489
0.00686577
0.0700541
0.00242753
9.28763
22.7477
1.63502
1.443
3.44078
3.25653
1.4588
3.22577
4.33475
1.47616
1.02701
0.935376
0.79655
0.701321
0.637344
0.588649
0.505846
0.348179
0.228345
0.252932
0.36335
0.426218
0.410877
0.378182
0.347679
0.318105
0.289135
0.261174
0.234967
0.211072
0.190215
0.172772
0.159057
0.14945
0.1434
0.145888
0.143394
1.59338
1.31371
0.823628
0.873869
0.921564
1.05712
0.933616
0.60808
0.500626
0.498177
0.352587
0.174498
0.0505999
0.0155021
0.00346859
0.00227604
0.000979639
0.00191337
0.000783518
0.00164185
0.00565598
0.00126009
0.00184693
0.00458567
0.00281236
0.0515429
0.0214351
3.69334
24.0527
4.51397
0.900825
3.56974
3.79867
1.93399
2.451
4.75989
1.96314
1.09632
0.944394
0.791197
0.691246
0.625235
0.577926
0.498293
0.343972
0.221434
0.244856
0.359297
0.43231
0.421729
0.388678
0.357525
0.327221
0.297464
0.268704
0.241612
0.216844
0.195063
0.176625
0.162052
0.151304
0.14501
0.142513
0.148268
0.152005
1.62824
1.30484
0.785398
0.884228
0.941066
1.05172
0.913358
0.614357
0.519725
0.474425
0.340646
0.184626
0.0552611
0.0130269
0.00212724
0.0015507
0.00128825
0.00203231
0.000660353
0.000233357
0.0027426
0.00308447
0.000410186
0.00647382
0.0017558
0.0259088
0.0668378
1.10098
19.8106
9.41942
0.489958
3.67721
4.26509
2.55302
1.92336
4.80301
2.65503
1.14174
0.933817
0.781595
0.677965
0.61089
0.56519
0.489957
0.338435
0.214533
0.237322
0.354655
0.437882
0.433085
0.399666
0.367882
0.336834
0.306224
0.276583
0.248572
0.222905
0.200146
0.18082
0.165237
0.153634
0.146186
0.143283
0.144556
0.153969
0.164303
1.70288
1.31545
0.769727
0.896171
0.961489
1.02805
0.896209
0.624101
0.542789
0.450686
0.326866
0.188947
0.0655273
0.0142686
0.00232317
0.00166943
0.00154012
0.00279912
0.000499939
0.000106452
0.000801205
0.00495211
0.000973282
0.00532525
0.0023635
0.00772458
0.096373
0.184467
13.1446
14.2628
0.650941
3.70787
4.65331
3.25068
1.78037
4.43706
3.41579
1.18991
0.9044
0.770894
0.662483
0.594694
0.550026
0.480807
0.330553
0.207208
0.230297
0.349925
0.442618
0.444561
0.411129
0.378772
0.346929
0.315444
0.284874
0.255896
0.229251
0.205532
0.185216
0.168666
0.156132
0.147705
0.143679
0.144424
0.149912
0.163373
0.180759
1.83029
1.35645
0.769603
0.905092
0.981019
0.999078
0.872151
0.643617
0.565467
0.443493
0.31471
0.180364
0.0725435
0.0204222
0.00148287
0.00401282
0.00146011
0.00417913
0.000693172
6.29188e-05
0.000297465
0.00429249
0.00237773
0.00266925
0.00420884
0.00120965
0.102768
0.00802264
6.93253
17.3946
2.00039
3.4731
4.90983
3.8802
1.93392
3.74952
4.10958
1.3277
0.894144
0.763049
0.645045
0.576669
0.532471
0.469196
0.320131
0.198567
0.222733
0.345725
0.446298
0.455731
0.422806
0.390049
0.357506
0.325145
0.293556
0.263585
0.235925
0.211183
0.18989
0.172381
0.158818
0.149417
0.144379
0.144019
0.148756
0.158828
0.176806
0.201729
1.96738
1.44471
0.787438
0.906983
0.995389
0.977034
0.851172
0.659347
0.580489
0.455154
0.314561
0.169553
0.0650703
0.0266853
0.0012275
0.00619708
0.00353463
0.0042736
0.00131934
0.000103107
0.000586498
0.00308962
0.00367944
0.000628998
0.00611468
0.000205912
0.0794015
0.0938928
2.91381
17.3492
4.49305
2.71455
5.04896
4.42488
2.2745
2.90754
4.67694
1.66754
0.918791
0.75414
0.624612
0.556478
0.512539
0.453271
0.307292
0.187524
0.212675
0.341906
0.449111
0.465999
0.434459
0.401528
0.368377
0.335165
0.302619
0.271584
0.242913
0.21715
0.194846
0.176323
0.161819
0.151394
0.145355
0.143926
0.147434
0.156445
0.171429
0.194436
0.227037
2.17322
1.5265
0.814351
0.906654
0.998952
0.966392
0.84294
0.669924
0.570591
0.463424
0.334321
0.163249
0.0537089
0.0232474
0.0052458
0.00372912
0.00883151
0.00323579
0.00320599
0.00010071
0.000925145
0.00175916
0.00267243
0.000147162
0.00536166
0.000333018
0.0562133
0.267127
1.01882
14.1119
8.07265
1.97632
5.16738
4.89619
2.7585
2.25662
4.95352
2.21671
0.963782
0.727814
0.600118
0.534036
0.489889
0.431651
0.290777
0.173251
0.198784
0.336419
0.451825
0.474813
0.445555
0.412921
0.379339
0.34539
0.311973
0.27996
0.25023
0.223427
0.20008
0.180587
0.165041
0.15367
0.146608
0.144122
0.14643
0.154064
0.167763
0.188036
0.216438
0.256477
2.38167
1.63099
0.823569
0.888649
0.985051
0.961809
0.845622
0.679549
0.547355
0.463489
0.350128
0.175756
0.0480206
0.0129113
0.0116789
0.00227357
0.0115793
0.00413938
0.0035737
0.0016596
0.00132116
0.00132172
0.000878606
0.000896817
0.00276828
0.00408891
0.0446265
0.439381
0.39446
9.30514
11.9591
1.78116
5.10108
5.28627
3.3034
1.91425
4.81625
2.88092
0.958106
0.67711
0.574275
0.509592
0.463254
0.403491
0.268111
0.155384
0.181465
0.325623
0.454847
0.482327
0.45538
0.423614
0.389996
0.355694
0.321601
0.288704
0.257928
0.230098
0.205683
0.185087
0.168519
0.156131
0.14807
0.144502
0.14568
0.152072
0.164193
0.182932
0.208949
0.242607
0.289423
2.62713
1.72597
0.819494
0.86542
0.956772
0.962134
0.845356
0.699899
0.531928
0.447562
0.355943
0.193121
0.0437709
0.0102027
0.00505568
0.0117394
0.00287847
0.00906236
0.000686123
0.00640264
0.000750511
0.00128475
0.000213046
0.00111938
0.0013791
0.0120294
0.0551352
0.59323
0.45422
5.38196
14.1878
2.6855
4.87066
5.58683
3.83388
1.84109
4.20792
3.62086
0.991476
0.642494
0.552756
0.48259
0.430444
0.36782
0.237234
0.133462
0.162278
0.307685
0.456014
0.490137
0.463132
0.432943
0.400182
0.366161
0.331714
0.298
0.266182
0.237174
0.211651
0.189903
0.172318
0.158838
0.149752
0.145065
0.145135
0.150214
0.161005
0.178162
0.202237
0.234126
0.272643
0.324652
2.80709
1.83005
0.809077
0.844326
0.935418
0.970203
0.84546
0.709739
0.538971
0.440892
0.328338
0.204479
0.0532571
0.0134504
0.00169745
0.0224007
0.0027524
0.0127985
0.00161693
0.0109367
0.00131604
0.00259107
0.000518832
0.000390206
0.00168035
0.0235327
0.0946268
0.68464
0.882082
3.03528
14.1211
4.93609
4.18863
5.60957
4.31053
2.01549
3.40788
4.34015
1.15608
0.650838
0.534902
0.449499
0.38898
0.323516
0.198489
0.107156
0.14246
0.285662
0.450375
0.499599
0.469409
0.440644
0.410014
0.37643
0.340956
0.306179
0.273558
0.243858
0.2175
0.194946
0.176318
0.16183
0.151695
0.145912
0.144843
0.148697
0.158043
0.173553
0.195981
0.225843
0.263068
0.305622
0.36029
2.966
1.90411
0.783557
0.840754
0.915135
0.995556
0.85109
0.711711
0.544136
0.456195
0.299643
0.183424
0.0643473
0.0058718
0.0165126
0.00808756
0.0191636
0.00275521
0.0167095
0.00604115
0.0092368
0.00315734
0.00173212
0.000604657
0.00394607
0.0435397
0.161724
0.86861
1.58464
2.19987
12.1284
7.99119
3.26852
5.50658
4.7136
2.2794
2.5865
4.88314
1.5124
0.669865
0.503362
0.404992
0.337779
0.271065
0.15488
0.0783423
0.123359
0.266131
0.435923
0.508375
0.477593
0.447244
0.418877
0.38441
0.34866
0.313814
0.280695
0.250303
0.22326
0.199921
0.180388
0.165106
0.153849
0.147047
0.144801
0.147446
0.155424
0.169433
0.19004
0.21792
0.253235
0.295097
0.339893
0.394488
2.99753
1.94203
0.754077
0.832645
0.909409
1.02562
0.870415
0.702793
0.552776
0.472615
0.290551
0.157188
0.0638821
0.0116466
0.0151117
0.00525531
0.0293185
0.00428824
0.035976
0.00103963
0.0234058
0.00077715
0.00780084
0.0032409
0.0111452
0.0825789
0.296609
1.15403
2.33765
2.33259
9.34565
11.0675
2.55392
5.34894
5.03023
2.60066
1.9314
4.99274
2.01486
0.651645
0.444769
0.349155
0.279636
0.214576
0.111768
0.0519689
0.10796
0.252815
0.418835
0.509263
0.491523
0.454397
0.424767
0.390957
0.355534
0.320773
0.288116
0.257573
0.229805
0.205446
0.1849
0.168499
0.156294
0.148468
0.145057
0.146524
0.153151
0.165595
0.184489
0.210471
0.243873
0.283901
0.329124
0.373917
0.425462
3.02152
1.95387
0.701624
0.821928
0.908716
1.04428
0.902727
0.704162
0.546008
0.472362
0.301645
0.139674
0.0453099
0.0243209
0.000477554
0.024187
0.00564267
0.0277715
0.0133892
0.0141259
0.0274251
0.00519327
0.0194863
0.00549637
0.0292951
0.151036
0.536455
1.61164
3.1588
3.07106
6.81473
13.3602
2.7779
5.06291
5.21614
2.93059
1.54151
4.52174
2.69952
0.635505
0.38518
0.289768
0.220853
0.160863
0.0742745
0.0312076
0.0829073
0.246867
0.408852
0.499503
0.5056
0.463889
0.427623
0.396493
0.361331
0.327982
0.295308
0.264372
0.236082
0.211039
0.189669
0.172244
0.159044
0.150046
0.145666
0.145859
0.15114
0.162028
0.17921
0.203325
0.234855
0.273327
0.316984
0.363303
0.405834
0.451645
3.24869
1.99508
0.736298
0.837595
0.911439
1.05466
0.925452
0.713159
0.553859
0.448101
0.293875
0.148409
0.0396184
0.01077
0.0131832
0.00885439
0.0102343
0.0382604
0.00165896
0.0393689
0.00542516
0.0305527
0.0215417
0.00398167
0.0833869
0.288538
0.903181
2.25855
3.99125
4.04873
5.20331
14.0406
4.23321
4.53295
5.22515
3.23323
1.34617
3.71527
3.53887
0.68228
0.343911
0.23516
0.168422
0.116906
0.0468198
0.0180241
0.0658815
0.222564
0.403571
0.489425
0.503564
0.4781
0.431015
0.399741
0.367045
0.333977
0.30139
0.270417
0.242005
0.216578
0.194485
0.176211
0.162065
0.152048
0.146455
0.145438
0.149464
0.158819
0.174362
0.196582
0.226156
0.262849
0.305464
0.350868
0.395748
0.433875
0.472733
3.6605
2.14146
0.764094
0.905231
0.963842
1.05509
0.936068
0.708202
0.575028
0.435652
0.268239
0.15529
0.0393214
0.00772611
0.0168444
0.00686648
0.0536682
0.00781484
0.0396153
0.0264677
0.0110753
0.0544081
0.00349506
0.0157667
0.200432
0.562713
1.4788
3.12006
4.85148
5.03836
4.41711
13.3126
6.6643
3.58436
5.00802
3.48391
1.36138
2.80037
4.29015
0.878072
0.310765
0.188988
0.129624
0.0877218
0.0306564
0.0093609
0.0535004
0.204391
0.395598
0.483361
0.488445
0.486143
0.443748
0.401706
0.372323
0.338245
0.306295
0.275823
0.247401
0.221728
0.199241
0.180309
0.165284
0.154275
0.147572
0.14539
0.147995
0.156015
0.169845
0.190287
0.217873
0.2527
0.293798
0.338796
0.383843
0.42515
0.457366
0.48869
296.168
2.51623
0.800105
0.913283
1.01206
1.05121
0.945501
0.687542
0.563768
0.44308
0.25537
0.139965
0.0583226
0.00801205
0.000315533
0.041051
0.0129246
0.0131709
0.079797
0.00322422
0.075317
0.0415769
0.0268201
0.0720305
0.429818
1.06434
2.29876
4.17909
5.73766
5.93176
4.34245
11.8313
9.27354
2.5737
4.6538
3.69183
1.43293
1.94923
4.70781
1.20294
0.278832
0.156725
0.107516
0.0726193
0.0224655
0.00510647
0.0433556
0.187705
0.382432
0.500035
0.485855
0.463847
0.462218
0.410084
0.374456
0.342496
0.309823
0.280136
0.252093
0.226498
0.203794
0.184353
0.168607
0.156771
0.149053
0.145643
0.14703
0.153552
0.165732
0.184413
0.209955
0.242913
0.282369
0.326622
0.371938
0.414178
0.450145
0.475881
0.499936
13.7554
6.77632
0.825032
0.878294
1.00729
1.03701
0.946612
0.682351
0.520714
0.423826
0.270483
0.12445
0.0653866
0.0104551
0.0204114
0.0244093
0.0141602
0.0631095
0.0175602
0.0418953
0.114105
0.00773508
0.171101
0.185629
0.761242
1.87757
3.39388
5.39534
6.62233
6.69303
4.98243
9.67152
11.602
1.99003
4.26227
3.82311
1.52782
1.21429
4.64643
1.70977
0.26919
0.132788
0.0884354
0.0578177
0.0175018
0.00417542
0.0339233
0.172613
0.367374
0.495119
0.506446
0.462952
0.432255
0.435023
0.37462
0.346077
0.313783
0.283055
0.255855
0.230608
0.207916
0.188213
0.171997
0.159409
0.1507
0.146315
0.146365
0.151468
0.162098
0.178859
0.202541
0.233487
0.271297
0.314348
0.359738
0.40311
0.440518
0.470065
0.489582
0.507619
0.681512
2.71106
14.216
0.933523
0.883249
0.997871
0.970376
0.697194
0.492402
0.368595
0.282015
0.130398
0.0479354
0.0324729
0.0053381
0.0029415
0.0834864
0.0182723
0.0332036