/*--------------------------------*- C++ -*----------------------------------*\
| =========                 |                                                 |
| \\      /  F ield         | OpenFOAM: The Open Source CFD Toolbox           |
|  \\    /   O peration     | Version:  v2012                                 |
|   \\  /    A nd           | Website:  www.openfoam.com                      |
|    \\/     M anipulation  |                                                 |
\*---------------------------------------------------------------------------*/
FoamFile
{
    version     2.0;
    format      ascii;
    class       volScalarField;
    location    "12000";
    object      q1;
}
// * * * * * * * * * * * * * * * * * * * * * * * * * * * * * * * * * * * * * //

dimensions      [0 0 0 0 0 0 0];


internalField   nonuniform List<scalar> 
27324
(
0.497337
0.497408
0.499387
0.498007
0.499365
0.499365
0.498288
0.499464
0.499297
0.498975
0.499171
0.499418
0.499356
0.498819
0.497685
0.499715
0.499542
0.499199
0.49888
0.497264
0.493527
0.499918
0.499771
0.499248
0.498544
0.497365
0.492187
0.481572
0.49978
0.499962
0.499594
0.498549
0.496607
0.492558
0.477884
0.454757
0.499266
0.499815
0.499938
0.499183
0.496642
0.491027
0.479831
0.446532
0.40033
0.491239
0.498952
0.499649
0.499866
0.498081
0.491581
0.478026
0.451763
0.383892
0.309247
0.412531
0.494741
0.497883
0.499274
0.499616
0.49523
0.480257
0.450915
0.393894
0.289663
0.190575
0.277041
0.465987
0.490576
0.495635
0.498327
0.498738
0.488554
0.455379
0.398988
0.30144
0.178241
0.0660914
0.275566
0.387629
0.458382
0.482191
0.490023
0.495981
0.495755
0.472733
0.403895
0.318746
0.177595
0.0785526
0.0269985
0.456078
0.387983
0.388614
0.440536
0.461558
0.47575
0.490159
0.486831
0.434342
0.31833
0.202112
0.0595949
0.0235909
0.0832899
0.500031
0.49538
0.396791
0.376684
0.391047
0.408425
0.442965
0.475551
0.464827
0.351644
0.19612
0.0687691
0.000738174
0.00706658
0.108375
0.500338
0.502553
0.504103
0.404168
0.328799
0.304577
0.310372
0.372492
0.436629
0.419702
0.207773
0.0659929
0.0208676
0.0295048
0.00484179
0.0974369
0.500044
0.500623
0.504855
0.51292
0.384349
0.246409
0.220819
0.222792
0.24267
0.33609
0.309097
0.0586744
0.027463
0.0639404
0.0373572
0.0107837
0.086306
0.499854
0.500194
0.501119
0.507477
0.521446
0.31653
0.164319
0.157167
0.160264
0.135738
0.142205
0.0312954
0.0289194
0.0952129
0.0577527
0.055581
0.0135746
0.0810487
0.499808
0.500012
0.500351
0.501701
0.511802
0.523299
0.218226
0.107074
0.108493
0.105733
0.0713511
0.00668452
0.083768
0.0743717
0.113904
0.0472332
0.0425858
0.171032
0.0658115
0.499806
0.499941
0.500062
0.500525
0.502668
0.521136
0.475199
0.133678
0.069551
0.0668105
0.0674341
0.0535717
0.0214919
0.000685226
0.000928219
0.03801
0.0960915
0.00369093
0.167154
0.000102459
0.499881
0.499889
0.499929
0.500124
0.500797
0.504752
0.541175
0.337415
0.0741234
0.0497464
0.0222881
0.0305591
0.0449182
0.0455669
0.0407279
0.0495673
0.0548324
0.057653
0.0754481
0.0560707
0.00868631
0.499936
0.499898
0.49982
0.499926
0.500215
0.501383
0.509761
0.569932
0.199824
0.0480701
0.0417043
0.0232475
0.0117846
0.01603
0.0335403
0.0322308
0.0324882
0.0192541
0.0122006
0.0117948
0.048286
0.00600322
0.499958
0.499948
0.499814
0.499753
0.49991
0.500402
0.502734
0.523424
0.499566
0.117322
0.0353458
0.0514471
0.0648587
0.0547999
0.0340317
0.00881498
0.0056771
0.0106352
0.0209539
0.0397418
0.0453474
0.0928341
0.0238061
0.499961
0.499978
0.499897
0.499732
0.499651
0.499869
0.500793
0.506272
0.556855
0.342581
0.0543274
0.030602
0.0725551
0.103685
0.0975243
0.0800201
0.0559415
0.0503205
0.0489921
0.0467874
0.0451551
0.00585385
0.0232908
0.00882131
0.499955
0.499994
0.499954
0.49985
0.499615
0.499454
0.499769
0.501706
0.514686
0.603014
0.191497
0.00774343
0.0466056
0.115112
0.309444
0.226317
0.127199
0.0962234
0.076484
0.0612707
0.019439
0.030524
0.0446561
0.0921745
0.0199225
0.499941
0.499992
0.49999
0.499937
0.499786
0.499395
0.498963
0.499312
0.50361
0.529294
0.53693
0.0817296
0.00875731
0.0607176
0.0620969
0.0591358
0.0352755
0.0311099
0.0341488
0.0336199
0.0356734
0.0130869
0.0760852
0.0193487
0.0638368
0.036295
0.499931
0.499973
0.499996
0.499993
0.499919
0.49966
0.498803
0.497508
0.498467
0.507108
0.571233
0.277824
0.019918
0.0075308
0.0847838
0.0322437
0.00819537
0.0112973
0.0107731
0.00511655
0.000674974
0.0144136
0.0051735
0.0156004
0.0241856
0.0138455
0.0633122
0.499933
0.499949
0.499966
0.500003
0.500012
0.499853
0.499296
0.497099
0.494929
0.497901
0.516185
0.678865
0.129626
0.0146862
0.00359396
0.0554856
0.0945305
0.00577241
0.00380239
0.0107728
0.0239897
0.0390135
0.02435
0.027547
0.0370383
0.00225168
0.0243754
0.105322
0.499943
0.49992
0.499929
0.499968
0.500021
0.499984
0.499669
0.498222
0.493912
0.492132
0.497206
0.542517
0.391082
0.0520916
0.0265269
0.0200238
0.00735742
0.0158298
0.0152409
0.0137851
0.019492
0.0329741
0.0156055
0.120044
0.0148817
0.0276402
0.0397237
0.0496761
0.148696
0.499934
0.499912
0.499863
0.499911
0.499946
0.500029
0.499912
0.499148
0.496012
0.489979
0.486613
0.499504
0.645931
0.160092
0.00351475
0.0127511
0.024574
0.36822
0.0400427
0.0168623
0.0152135
0.0283149
0.02126
0.109892
0.0215706
0.0384021
0.0146018
0.0720532
0.0634777
0.144172
0.499915
0.499912
0.499842
0.499827
0.499842
0.499912
0.50003
0.499757
0.497926
0.493029
0.481723
0.479013
0.513373
0.515352
0.0612031
0.0169648
0.0152293
0.00232419
0.00532986
0.024913
0.0124747
0.0247536
0.0230707
0.0287664
0.0602281
0.0356732
0.00949452
0.05667
0.103599
0.0307699
0.0744603
0.499908
0.499918
0.499852
0.499784
0.499752
0.499716
0.499818
0.500002
0.499223
0.496244
0.48595
0.467093
0.463679
0.587211
0.138341
0.0200343
0.0218765
0.0062182
0.129646
0.0491391
0.0149841
0.0231416
0.022011
0.0117495
0.317935
0.0100396
0.0334608
0.0423863
0.0876264
0.112412
0.0517944
0.0215498
0.499911
0.499939
0.499854
0.499776
0.499666
0.499545
0.49945
0.499556
0.499747
0.498465
0.491498
0.470038
0.431986
0.456929
0.402331
0.0667477
0.00199657
0.0198889
0.0308731
0.196909
0.0255351
0.0237721
0.0192862
0.016536
0.0904587
0.0340691
0.045788
0.0194023
0.0794822
0.102694
0.0533204
0.115511
0.0936731
0.499952
0.499963
0.499881
0.499777
0.499607
0.499429
0.499155
0.498802
0.498926
0.499362
0.495752
0.478917
0.424511
0.386692
0.414179
0.123027
0.0324277
0.0112776
0.0091267
0.0472895
0.0551274
0.0274836
0.0185123
0.0174718
0.00940096
0.0508283
0.0400029
0.00868384
0.0674216
0.100526
0.0596621
0.0405347
0.172726
0.0902427
0.500012
0.500016
0.499925
0.49981
0.499659
0.499386
0.498907
0.498156
0.49755
0.498116
0.497667
0.487606
0.437328
0.359045
0.233484
0.314028
0.0711265
0.00653178
0.0137083
0.042825
0.142988
0.0378809
0.018528
0.019133
0.000820748
0.424903
0.0108815
0.0341256
0.0509119
0.0933606
0.077105
0.0339498
0.128726
0.0544183
0.122525
0.500076
0.500094
0.500054
0.499886
0.499766
0.499474
0.498847
0.49757
0.496339
0.495812
0.496117
0.492208
0.457855
0.363284
0.178436
0.170212
0.161501
0.0312807
0.00670363
0.0271199
0.154299
0.0645815
0.0225045
0.0181549
0.018557
0.152206
0.0378219
0.0479289
0.0276936
0.0857593
0.084628
0.0080547
0.138665
0.0138339
0.0608137
0.0623034
0.500078
0.500123
0.500184
0.500112
0.49988
0.499657
0.499005
0.497409
0.495253
0.493968
0.492289
0.49087
0.473516
0.393543
0.172185
0.0847416
0.582581
0.0426602
0.0169193
0.0208942
0.0576332
0.27884
0.0334569
0.0202786
0.0160457
0.0544175
0.0689457
0.0427422
0.0012376
0.0757134
0.0869404
0.0150918
0.133673
0.0452297
0.0835422
0.0326786
0.0170934
0.500006
0.500112
0.500223
0.500252
0.500154
0.499829
0.499261
0.497744
0.495094
0.49191
0.488622
0.485159
0.477092
0.426425
0.19829
0.0657202
0.306555
0.041531
0.0336649
0.000311546
0.0419134
0.138009
0.0659622
0.0227068
0.0168907
0.0125026
0.473274
0.0132679
0.0291091
0.0610325
0.0871166
0.0328362
0.122779
0.0625675
0.0662597
0.0563736
0.00449553
0.000337762
0.499937
0.500076
0.500234
0.500309
0.500391
0.500234
0.499574
0.498345
0.495773
0.491008
0.485683
0.479049
0.469609
0.443075
0.252695
0.0614266
0.185738
0.25394
0.0375925
0.0211906
0.0257681
0.0850219
0.210994
0.0240831
0.0153847
0.00196416
0.140974
0.0378472
0.0469308
0.0399748
0.0844555
0.0536813
0.098019
0.0812997
0.0541763
0.0504865
0.0176509
0.0236027
0.00703692
0.499885
0.500015
0.500154
0.500353
0.50047
0.500668
0.500449
0.499068
0.496841
0.492246
0.484803
0.474609
0.460279
0.434856
0.313174
0.0887092
0.161426
0.0248135
0.0529987
0.0304122
0.00123542
0.0522922
0.318812
0.0218565
0.0170454
0.00808199
0.0543648
0.0749373
0.047221
0.0125972
0.078071
0.0721626
0.0776747
0.0957542
0.0430199
0.0506767
0.0152094
0.00543984
0.0192939
0.0288515
0.499883
0.499937
0.500034
0.500222
0.500468
0.500784
0.50133
0.500977
0.498252
0.494405
0.486556
0.473952
0.453129
0.418851
0.323179
0.118955
0.160817
0.0261703
0.155709
0.0236958
0.0232138
0.032718
0.119818
0.0250484
0.0201092
0.0114173
0.0209985
0.49406
0.0233325
0.0174158
0.0675957
0.0813994
0.0505748
0.105111
0.031065
0.0492238
0.0196938
0.00794784
0.00397446
0.00165288
0.0506681
0.499886
0.499881
0.499887
0.500039
0.500307
0.500728
0.501567
0.502759
0.5018
0.496997
0.490692
0.477413
0.451373
0.405422
0.315366
0.137877
0.170631
0.00850178
0.158823
0.012964
0.0306437
0.00424531
0.0762314
0.381048
0.0221448
0.0130937
0.00183413
0.180548
0.0270763
0.0408966
0.0514597
0.0830661
0.00579842
0.108393
0.0223936
0.0489918
0.020872
0.00587681
0.00853462
0.0160813
0.0263989
0.058818
0.499857
0.49985
0.499792
0.499837
0.500056
0.500507
0.501511
0.503263
0.50511
0.503394
0.495416
0.484915
0.45786
0.398953
0.31167
0.140269
0.196696
0.0329949
0.095802
0.0504405
0.0140613
0.0242763
0.0518163
0.196283
0.0132063
0.0179206
0.00704536
0.0751897
0.082642
0.050154
0.0285992
0.0796586
0.033959
0.105152
0.0121198
0.0488378
0.0227337
0.00475714
0.00900966
0.010877
0.0406254
0.0383215
0.0546774
0.499796
0.499836
0.499747
0.499709
0.499762
0.500109
0.500992
0.503144
0.506049
0.509757
0.506377
0.493851
0.472697
0.412146
0.320757
0.149886
0.205735
0.0358732
0.0798172
0.152903
0.0276873
0.0383335
0.0186182
0.116732
0.0190941
0.0228977
0.0106443
0.024059
0.0522475
0.0376357
0.000118315
0.0721052
0.0545502
0.0933149
0.000129022
0.0485688
0.0240468
0.00318148
0.0103613
0.00953123
0.0365474
0.0538368
0.0338278
0.0817021
0.49977
0.499858
0.499709
0.499639
0.499571
0.499603
0.500189
0.501965
0.505815
0.511464
0.517386
0.512012
0.4932
0.44332
0.350335
0.157567
0.221113
0.0712209
0.0490739
0.101031
0.108934
0.0265603
0.0176274
0.0751236
0.473011
0.0203795
0.0128151
0.00158342
0.307817
0.00313978
0.027548
0.0591726
0.0648618
0.0708925
0.0127858
0.0471447
0.025561
0.00145323
0.0113422
0.0071067
0.0359916
0.0521265
0.0491489
0.048731
0.226348
0.499881
0.499958
0.499762
0.499635
0.499498
0.499296
0.499224
0.50034
0.503624
0.510867
0.52025
0.528559
0.527228
0.494501
0.386955
0.157404
0.215954
0.105514
0.0745707
0.0595629
0.276339
0.00381738
0.041695
0.0417653
0.183755
0.00360441
0.0178174
0.00840412
0.100526
0.0660478
0.0456648
0.0396018
0.0703478
0.0375392
0.023652
0.0440244
0.0272854
0.00037893
0.0121358
0.00480629
0.0343112
0.0536404
0.0479998
0.0584762
0.188008
0.372439
0.50002
0.500058
0.499965
0.499754
0.499538
0.499189
0.498604
0.498436
0.500634
0.50685
0.518793
0.532868
0.55642
0.561373
0.436397
0.124026
0.138679
0.112389
0.0861963
0.0133738
0.059609
0.0247587
0.0409601
0.00490266
0.115466
0.0252666
0.0234776
0.00950452
0.0137721
0.112763
0.0476295
0.0164348
0.0799957
0.00655811
0.0338317
0.0385746
0.0293655
0.00238675
0.012567
0.0022604
0.0327289
0.0541624
0.0504672
0.0521308
0.184079
0.353967
0.43213
0.500149
0.500135
0.500148
0.499984
0.499684
0.499252
0.498422
0.497254
0.497032
0.501202
0.511622
0.529845
0.566538
0.65058
0.480082
0.129874
0.0969478
0.106176
0.092459
0.0227804
0.0447308
0.158031
0.00872653
0.0324572
0.0767108
0.377425
0.0196333
0.0127767
0.000230897
0.170987
0.0258086
0.00929488
0.0716796
0.0414506
0.0408191
0.0315446
0.0319293
0.00445284
0.0126718
0.000312046
0.0308972
0.0547695
0.0524603
0.0499152
0.166295
0.352515
0.424464
0.452565
0.500133
0.5002
0.500263
0.500229
0.500038
0.499488
0.498616
0.497019
0.494659
0.494608
0.502305
0.517308
0.559985
0.693995
0.622077
0.164946
0.0797186
0.0984418
0.111041
0.0395824
0.033121
0.179038
0.0419862
0.049171
0.037455
0.173334
0.00875733
0.0176593
0.014234
0.136447
0.0278427
0.0337517
0.0540767
0.0577344
0.0496498
0.0233277
0.034703
0.00660946
0.0124851
0.00279723
0.0287748
0.0552086
0.0548264
0.0472715
0.151355
0.343664
0.42697
0.447678
0.461586
0.499959
0.500164
0.500312
0.500348
0.500351
0.500063
0.499142
0.497463
0.494211
0.490201
0.491835
0.5033
0.532529
0.61583
0.785372
0.279693
0.0863958
0.112103
0.132404
0.0835165
0.0441127
0.0383044
0.073711
0.0380452
0.00510923
0.115612
0.0462817
0.0262688
0.0121099
0.0348718
0.101002
0.0508238
0.0338742
0.0590465
0.0435943
0.0161276
0.0371338
0.00880119
0.0121346
0.00503542
0.0262803
0.0555008
0.0573556
0.045857
0.136242
0.335613
0.425128
0.451341
0.457038
0.467506
0.499815
0.500085
0.500225
0.500362
0.500457
0.500587
0.500102
0.498412
0.494987
0.489609
0.484914
0.488232
0.504246
0.517765
0.537467
0.576522
0.143228
0.177085
0.134666
0.123841
0.040463
0.0181133
0.00260155
0.00268641
0.0425775
0.0773743
0.470552
0.0279439
0.0119534
0.0115777
0.184977
0.0538649
0.00995669
0.0530569
0.0263684
0.00853945
0.0385007
0.0112316
0.0116884
0.00688323
0.0235504
0.0554636
0.0600224
0.0451713
0.121642
0.326616
0.423883
0.451114
0.461115
0.462779
0.471813
0.499802
0.499958
0.500111
0.500256
0.500476
0.500758
0.501101
0.500418
0.496952
0.491465
0.484327
0.477934
0.475836
0.46365
0.404213
0.23325
0.285026
0.278338
0.134878
0.100482
0.0572364
0.0188706
0.0764026
0.0553381
0.0558481
0.035711
0.20347
0.00873254
0.0164389
0.0243927
0.0753643
0.036636
0.0168486
0.046501
0.00317863
0.00345599
0.0379592
0.0139141
0.0111188
0.00833927
0.0206982
0.0549932
0.0628788
0.0453109
0.107516
0.317
0.422139
0.451498
0.461268
0.467073
0.466791
0.475027
0.499824
0.499832
0.499929
0.500101
0.500317
0.500705
0.501389
0.502238
0.50128
0.495199
0.488074
0.476941
0.458311
0.421244
0.374901
0.14732
0.0704782
0.300738
0.138771
0.0388091
0.064065
0.0165286
0.0132026
0.0960572
0.039416
0.0101398
0.135028
0.0324351
0.0277363
0.0254815
0.0155754
0.00840178
0.0358979
0.0343122
0.0428532
0.00295674
0.0353125
0.0168931
0.0103408
0.00960509
0.0179721
0.0539492
0.0657151
0.046231
0.0941026
0.306648
0.420242
0.451639
0.462083
0.467309
0.471269
0.469642
0.477506
0.499828
0.49979
0.499718
0.499886
0.500103
0.500438
0.501109
0.502571
0.504842
0.502633
0.494163
0.482665
0.457439
0.408434
0.363366
0.154295
0.0409771
0.218147
0.146545
0.00252937
0.0343186
0.0160001
0.0234174
0.190765
0.00690811
0.0482546
0.0897461
0.178517
0.0404902
0.0111581
0.0346313
0.0877792
0.0470499
0.0230447
0.0666567
0.014292
0.0316434
0.020174
0.00913816
0.0107381
0.0155371
0.0524514
0.0683899
0.0479803
0.0813991
0.295644
0.418101
0.451773
0.462683
0.468219
0.471541
0.474242
0.471716
0.479531
0.49986
0.499843
0.499671
0.499675
0.499836
0.500101
0.500611
0.502047
0.505105
0.50825
0.504358
0.491915
0.466851
0.41849
0.39995
0.200857
0.0351456
0.18093
0.162952
0.0459625
0.0201687
0.0464951
0.0243513
0.0884256
0.0617561
0.063282
0.043741
0.296327
0.0443928
0.00744972
0.0369884
0.188223
0.0533579
0.000350755
0.0563587
0.0101305
0.0253742
0.0234965
0.00748349
0.011934
0.0132719
0.050635
0.0706023
0.0505235
0.0696704
0.283941
0.415704
0.451826
0.463292
0.46891
0.472484
0.474543
0.476382
0.473323
0.481299
0.500007
0.499951
0.499762
0.499634
0.499599
0.499735
0.500103
0.501002
0.503918
0.508051
0.51161
0.506848
0.482478
0.42047
0.433154
0.345311
0.043159
0.195353
0.227724
0.0382905
0.0217083
0.0628743
0.00471636
0.00921091
0.103826
0.0478959
0.00380757
0.161542
0.029404
0.011678
0.0423506
0.130055
0.0539335
0.0237382
0.0370286
0.00305348
0.021693
0.026256
0.00530367
0.0131055
0.011148
0.0487468
0.0722714
0.0536074
0.0591456
0.271503
0.413021
0.451785
0.463842
0.469599
0.473195
0.475479
0.476701
0.478008
0.47471
0.48296
0.500104
0.500095
0.499928
0.499733
0.49955
0.49946
0.499567
0.500062
0.501826
0.505612
0.510484
0.51747
0.506706
0.424591
0.38399
0.486297
0.0349354
0.235238
0.516166
0.0351265
0.00499989
0.0905681
0.0271427
0.0248664
0.0479475
0.00374753
0.0447867
0.101916
0.0420518
0.0275928
0.0290475
0.105169
0.0452006
0.0420412
0.0234959
0.0227592
0.0199443
0.0276272
0.00284582
0.0140728
0.00896708
0.0470136
0.0733336
0.0570564
0.0501739
0.258246
0.409978
0.451621
0.464327
0.470224
0.473894
0.476187
0.47761
0.478331
0.479363
0.476072
0.484602
0.500075
0.500153
0.500148
0.499906
0.499662
0.499384
0.499171
0.499107
0.499727
0.501882
0.506588
0.515234
0.527519
0.446114
0.35
0.281308
0.0521989
0.284357
0.256742
0.00242005
0.018464
0.0847064
0.0818785
0.0265347
0.0178897
0.0543486
0.067616
0.0604504
0.693102
0.0467488
0.0176883
0.099937
0.0303996
0.0480454
0.0026446
0.0520639
0.0194897
0.0269552
0.000281693
0.0146609
0.00666429
0.0454875
0.0739926
0.0605473
0.0428446
0.244099
0.406525
0.451313
0.464743
0.470799
0.474531
0.476874
0.478299
0.479194
0.479677
0.480627
0.477544
0.486275
0.499963
0.500119
0.500271
0.500164
0.499867
0.499532
0.499077
0.498479
0.497917
0.498966
0.501297
0.508527
0.524389
0.517631
0.351905
0.230754
0.107257
0.424007
0.195919
0.0356057
0.007985
0.0421835
0.145806
0.0170782
0.0735666
0.0977808
0.0615986
0.00895386
0.251623
0.0570495
0.00888194
0.0639843
0.00788615
0.048668
0.00953918
0.0668594
0.0126588
0.0246037
0.00212237
0.0146798
0.00435937
0.043944
0.0745802
0.0638825
0.0372868
0.229068
0.402609
0.450878
0.465096
0.471328
0.475128
0.477505
0.478965
0.479855
0.480479
0.480913
0.481943
0.479222
0.487992
0.499892
0.499988
0.500222
0.500333
0.500195
0.499803
0.499271
0.498328
0.497351
0.497253
0.497474
0.498899
0.509802
0.52704
0.44588
0.266953
0.122168
0.795826
0.189945
0.0811488
0.0348229
0.00765046
0.16977
0.00575457
0.0867872
0.100942
0.0272273
0.0337581
0.149642
0.0612911
0.00941607
0.0435676
0.0328881
0.048313
0.0324471
0.0521907
0.0233166
0.0218287
0.00427177
0.014121
0.00221003
0.042168
0.0752487
0.0671416
0.0329105
0.213276
0.398264
0.450355
0.465411
0.471838
0.4757
0.478103
0.479579
0.48049
0.481092
0.481642
0.482175
0.483388
0.481143
0.489739
0.499918
0.499869
0.499981
0.500276
0.500425
0.500237
0.499618
0.498516
0.497241
0.497164
0.496215
0.492715
0.488225
0.489568
0.476812
0.383001
0.180879
0.452096
0.201413
0.040432
0.0531225
0.0211312
0.123052
0.0171245
0.0858945
0.152613
0.0291932
0.062712
0.0850947
0.140348
0.0170572
0.0237572
0.0607186
0.0446668
0.0505646
0.0298269
0.02933
0.0206832
0.0057573
0.013182
0.000496046
0.0401544
0.0759715
0.0704958
0.0290752
0.197188
0.393602
0.449793
0.465713
0.472339
0.476262
0.478688
0.480166
0.481075
0.481689
0.4822
0.482816
0.483547
0.485009
0.483306
0.491458
0.500005
0.499907
0.499777
0.499995
0.500354
0.500604
0.500293
0.499051
0.497361
0.497263
0.497139
0.493559
0.478631
0.449168
0.422455
0.384089
0.199909
0.290237
0.184599
0.0063161
0.0690011
0.015494
0.0655374
0.0551037
0.0557458
0.0156044
0.0810049
0.0714436
0.0370727
0.49258
0.0253897
0.013484
0.0599419
0.0442331
0.0611851
0.0142244
0.0550085
0.0223795
0.00602632
0.0122402
0.000699854
0.0380255
0.0764074
0.0742805
0.0252922
0.181116
0.388803
0.44922
0.466006
0.472838
0.476822
0.479268
0.480744
0.481641
0.482239
0.482738
0.483305
0.484089
0.485077
0.486794
0.485641
0.493104
0.500064
0.500019
0.499815
0.499741
0.500018
0.500509
0.501022
0.50031
0.498122
0.496847
0.49751
0.497904
0.487847
0.450075
0.383373
0.364958
0.204701
0.2666
0.19386
0.0177395
0.0439843
0.10419
0.0260758
0.123631
0.00657559
0.0618221
0.111124
0.0554388
0.00652199
0.22999
0.0315646
0.00512937
0.0516168
0.0245192
0.063943
0.0068703
0.0767054
0.0246406
0.00447674
0.0115047
0.00143287
0.0361871
0.0763435
0.0784701
0.0220651
0.164997
0.383941
0.44861
0.466261
0.473315
0.477365
0.479839
0.481316
0.482195
0.482767
0.483239
0.483777
0.484493
0.485512
0.486766
0.488691
0.488042
0.494611
0.500031
0.500082
0.500004
0.499755
0.499686
0.500058
0.500955
0.501868
0.500022
0.497102
0.495884
0.500086
0.501998
0.477484
0.401818
0.391761
0.252773
0.297143
0.211716
0.0203225
0.0377957
0.361199
0.00517935
0.109384
0.0444732
0.074637
0.0548066
0.0145346
0.0392938
0.0911289
0.0571137
0.00132884
0.045248
0.00424317
0.0616063
0.0215394
0.0783017
0.0205491
0.00173749
0.0109528
0.00198704
0.035089
0.0757075
0.0827574
0.0199477
0.148287
0.378972
0.447932
0.466449
0.473738
0.477868
0.480381
0.48187
0.482741
0.483285
0.483723
0.484211
0.484889
0.485824
0.487087
0.488572
0.490615
0.490395
0.495924
0.499979
0.500057
0.500157
0.49997
0.499672
0.499596
0.500171
0.502036
0.50254
0.499019
0.494477
0.495721
0.508827
0.509238
0.439954
0.421476
0.363115
0.319751
0.173843
0.0356548
0.0285084
0.158672
0.0130301
0.0279204
0.116451
0.0625858
0.0255614
0.0448898
0.0588306
0.0636889
0.147417
0.00122744
0.0357139
0.0268732
0.0540748
0.0408051
0.057095
0.0343371
0.000563678
0.0105861
0.00234123
0.0346379
0.0749597
0.086554
0.0193152
0.13081
0.37368
0.447233
0.466576
0.474095
0.478311
0.480874
0.482389
0.483264
0.483791
0.484191
0.484633
0.485253
0.486127
0.487308
0.488782
0.490428
0.492474
0.492566
0.497017
0.499972
0.499984
0.500136
0.500194
0.499934
0.499511
0.499308
0.500674
0.503287
0.502466
0.496289
0.488794
0.499947
0.530421
0.472184
0.468408
0.345237
0.338241
0.127207
0.00279944
0.0734316
0.161897
0.00718375
0.0214178
0.157519
0.0496809
0.079362
0.0997325
0.0611287
0.0215882
0.246751
0.00131992
0.0274887
0.027317
0.0486179
0.0571762
0.035408
0.0497274
0.000405678
0.0108554
0.00261455
0.0345498
0.0747233
0.0892918
0.0201317
0.112837
0.367794
0.446546
0.466716
0.474416
0.478701
0.481313
0.48286
0.483747
0.484269
0.484644
0.485044
0.485599
0.48641
0.487519
0.48891
0.490542
0.492241
0.494176
0.49446
0.497881
0.499968
0.499955
0.499993
0.500183
0.500252
0.49985
0.49904
0.498856
0.501639
0.504763
0.501061
0.489442
0.477147
0.521913
0.436765
0.473422
0.370716
0.325311
0.0741623
0.0477036
0.0682968
0.15962
0.0950759
0.0491381
0.0700212
0.0637804
0.0946815
0.165544
0.046212
0.0189856
0.180383
0.00393969
0.0195011
0.0276889
0.0362926
0.0624707
0.0218507
0.0765573
0.00244962
0.0125554
0.00275536
0.0344985
0.0752623
0.0913252
0.021449
0.0953942
0.361169
0.445763
0.466969
0.47476
0.479076
0.481715
0.48328
0.484184
0.484711
0.485071
0.485436
0.485937
0.486678
0.487711
0.489036
0.490583
0.492277
0.493924
0.495657
0.496022
0.498534
0.499978
0.499983
0.499919
0.500013
0.500262
0.500362
0.499562
0.498043
0.49877
0.50354
0.505905
0.495685
0.468149
0.470142
0.450294
0.365971
0.409457
0.332429
0.0573156
0.136055
0.273122
0.169561
0.00376347
0.0365899
0.00202137
0.104389
0.0874045
0.357974
0.017142
0.0453226
0.0713109
0.0318629
0.0165246
0.020582
0.0166218
0.0575304
7.3521e-05
0.0912897
0.00378441
0.0160735
0.00278445
0.0344534
0.0764817
0.0932991
0.0221
0.0795472
0.354324
0.444672
0.467423
0.475228
0.479495
0.482116
0.483676
0.484582
0.485108
0.485461
0.485799
0.486259
0.486937
0.487896
0.48914
0.490626
0.49225
0.493904
0.495409
0.496876
0.497243
0.49901
0.500016
0.500003
0.499977
0.499931
0.500035
0.500444
0.500606
0.498946
0.496907
0.499009
0.506978
0.506376
0.479864
0.419204
0.467803
0.307907
0.320743
0.326017
0.0967296
0.335087
0.205778
0.140445
0.0846624
0.015346
0.0323907
0.054153
0.0728182
0.143481
0.0202782
0.0621665
0.0343102
0.0847543
0.015768
0.0166274
0.00650525
0.0557532
0.0192691
0.0791533
0.00292917
0.0197893
0.00251557
0.034598
0.0778791
0.0960971
0.021785
0.0651029
0.348651
0.443189
0.468055
0.475958
0.480037
0.48257
0.484086
0.484965
0.485474
0.485812
0.486131
0.486555
0.487182
0.488071
0.489243
0.490656
0.492229
0.493834
0.495355
0.496652
0.497828
0.498149
0.499341
0.500035
0.500027
0.500036
0.499977
0.499921
0.500065
0.500939
0.501035
0.497866
0.495204
0.501197
0.512479
0.501781
0.426616
0.264672
0.376114
0.259264
0.369929
0.0994987
0.339621
0.297053
0.147962
0.088193
0.0689105
0.0676019
0.165317
0.0751169
0.118004
0.0553658
0.0557339
0.00636011
0.137249
0.0165688
0.0113131
0.0184238
0.0462926
0.0364602
0.0578231
0.0180369
0.0214855
0.00203266
0.0349885
0.0793502
0.099824
0.0210922
0.0510931
0.345521
0.441914
0.46866
0.477063
0.480814
0.483163
0.484577
0.485384
0.485838
0.486139
0.486429
0.486821
0.4874
0.488238
0.489338
0.490684
0.492197
0.493767
0.49526
0.496581
0.49764
0.498538
0.498791
0.499567
0.500066
0.500026
0.500058
0.500064
0.499962
0.499867
0.500222
0.50186
0.501355
0.495992
0.493742
0.507233
0.510833
0.465297
0.203177
0.462467
0.211322
0.344037
0.122693
0.200975
0.295345
0.147562
0.110444
0.0592738
0.0875511
0.117588
0.0466393
0.106187
0.084788
0.0351205
0.0199882
0.157019
0.00470216
0.00656722
0.0183359
0.042534
0.0437396
0.0405217
0.0455386
0.0199037
0.0024338
0.0354344
0.0810777
0.104285
0.0214472
0.0360264
0.345312
0.442336
0.46903
0.47848
0.481985
0.484031
0.485243
0.485899
0.486235
0.486457
0.486693
0.487051
0.487587
0.488379
0.489424
0.490705
0.492161
0.493689
0.495166
0.496481
0.497567
0.498387
0.499044
0.499227
0.499716
0.499983
0.500034
0.500003
0.500052
0.500097
0.499916
0.49976
0.500649
0.503269
0.501082
0.492702
0.493818
0.522057
0.485299
0.268619
0.281036
0.362807
0.278742
0.263461
0.0775101
0.319891
0.154185
0.348861
0.192879
0.0906325
0.0962079
0.0148517
0.0851508
0.0848305
0.0104744
0.0534274
0.101691
0.00359004
0.00349579
0.0138374
0.037099
0.0441679
0.0190181
0.0722941
0.0168389
0.00526269
0.0358038
0.0835271
0.10962
0.0230894
0.0193601
0.347637
0.445686
0.46954
0.479857
0.48368
0.485286
0.486137
0.486489
0.486644
0.486763
0.486933
0.48724
0.487748
0.488496
0.489491
0.490718
0.492122
0.493606
0.495063
0.496377
0.497474
0.498324
0.498928
0.499391
0.499513
0.499813
0.499945
0.499988
0.499996
0.499954
0.500068
0.500147
0.49984
0.49958
0.501569
0.50505
0.499431
0.486119
0.501866
0.417188
0.369061
0.251601
0.376678
0.272263
0.193671
0.0171687
0.237651
0.12538
0.290817
0.295577
0.210477
0.102899
0.0379138
0.0570284
0.0784621
0.000297085
0.064404
0.0393841
0.0359195
0.00301514
0.00982939
0.0107985
0.0375742
0.00315076
0.072615
0.0213903
0.00972642
0.0365587
0.0874938
0.116579
0.025719
0.00178614
0.351831
0.45134
0.471486
0.480757
0.485682
0.486951
0.487184
0.487242
0.487275
0.487295
0.487352
0.487537
0.487956
0.488615
0.489543
0.490716
0.492075
0.49352
0.494955
0.496266
0.497376
0.498243
0.498877
0.499305
0.499619
0.499696
0.499876
0.500045
0.50003
0.500034
0.499948
0.499915
0.500132
0.500335
0.499658
0.49936
0.503591
0.507508
0.493285
0.467864
0.547421
0.155862
0.337489
0.175437
0.455675
0.0727265
0.0717637
0.119635
0.166373
0.0719683
0.0655685
0.0197097
0.13612
0.0459203
0.0361298
0.0707027
0.00641438
0.0610101
0.00204568
0.0990297
0.00155123
0.00550289
0.00446117
0.0288577
0.0194998
0.0614223
0.0131056
0.0133461
0.0388303
0.0938306
0.126533
0.0284648
0.016067
0.358107
0.456961
0.475681
0.481469
0.487178
0.4888
0.488464
0.488435
0.488292
0.488068
0.487915
0.487927
0.488202
0.488753
0.489604
0.49071
0.492014
0.49343
0.494841
0.496149
0.49727
0.49816
0.498814
0.499266
0.499558
0.499766
0.499811
0.499916
0.49994
0.500086
0.500204
0.500088
0.499885
0.499844
0.500268
0.50074
0.499281
0.499452
0.507805
0.509184
0.468579
0.447517
0.158546
0.426079
0.161135
0.400031
0.0327607
0.0558569
0.109034
0.322585
0.0180199
0.208793
0.0139123
0.100164
0.0399197
0.0331803
0.0388122
0.00716831
0.0435161
0.0170146
0.13727
0.00200822
0.000337679
0.0174315
0.0225405
0.0314714
0.049016
0.0114229
0.0134892
0.0430937
0.103189
0.140957
0.0325323
0.038233
0.368286
0.460633
0.480651
0.483537
0.487224
0.490316
0.490263
0.489982
0.489502
0.488928
0.488498
0.488306
0.48843
0.488888
0.489654
0.490699
0.491954
0.493329
0.494721
0.496027
0.497159
0.498069
0.498747
0.49922
0.49953
0.499722
0.499858
0.499881
0.499943
0.500388
0.499797
0.50018
0.500317
0.500176
0.499804
0.499601
0.500647
0.501319
0.498631
0.500466
0.515416
0.505645
0.369016
0.626175
0.255424
0.237779
0.187559
0.0766291
0.00961297
0.0780349
0.222555
0.0422031
0.197411
0.023101
0.0717216
0.0344317
0.0189641
0.0236283
0.0268104
0.0331843
0.03298
0.119781
0.00609589
0.00425748
0.024251
0.0234817
0.0338454
0.0281853
0.0386027
0.0105527
0.048138
0.116158
0.16009
0.0391892
0.0661705
0.377114
0.462983
0.483737
0.48762
0.486962
0.490921
0.492552
0.491629
0.490863
0.489961
0.489251
0.488846
0.48877
0.489074
0.489728
0.490692
0.491885
0.493218
0.494596
0.495897
0.49704
0.49797
0.498674
0.49917
0.499498
0.499704
0.499827
0.499915
0.499924
0.49996
0.498446
0.50045
0.499394
0.500276
0.50051
0.500372
0.499606
0.499016
0.501363
0.502083
0.496917
0.507382
0.524788
0.437525
0.191953
0.384689
0.219443
0.147977
0.0699364
0.0675239
0.149817
0.0148216
0.0561729
0.245175
0.0189083
0.0630765
0.0276848
0.0107531
0.0118356
0.0307601
0.0164658
0.0456533
0.0600028
0.00712824
0.00677745
0.0221662
0.0297608
0.0257916
0.00252936
0.0416322
0.0132544
0.0538299
0.132384
0.18259
0.0483918
0.0999044
0.394751
0.4669
0.485017
0.491526
0.489446
0.490091
0.494357
0.493612
0.492379
0.491212
0.490267
0.489633
0.489323
0.489401
0.48988
0.490713
0.491822
0.49311
0.494458
0.495757
0.496914
0.497864
0.498594
0.499114
0.499462
0.499682
0.499815
0.499893
0.499949
0.499951
0.499971
0.556407
0.500999
0.500656
0.499284
0.50037
0.500912
0.500825
0.499155
0.498143
0.502973
0.502509
0.49359
0.534082
0.513618
0.141295
0.453964
0.12732
0.168634
0.0153234
0.0464576
0.108479
0.0834357
0.0524517
0.179525
0.0340753
0.0515016
0.0194449
0.00349943
0.00391831
0.0244938
0.00791968
0.0516203
0.012843
0.0487787
0.00746385
0.0191715
0.00552346
0.0172842
0.0168579
0.044592
0.004909
0.0566337
0.146095
0.200816
0.0489135
0.186443
0.407531
0.473816
0.486446
0.493411
0.494599
0.490486
0.493164
0.49563
0.493885
0.492725
0.491557
0.490604
0.49004
0.489875
0.490136
0.490807
0.491802
0.493009
0.494318
0.495609
0.496776
0.497752
0.498507
0.499053
0.499423
0.499658
0.499801
0.499885
0.499933
0.499969
0.499968
0.499979
0.115799
0.53089
0.505516
0.500655
0.49903
0.5007
0.501587
0.50208
0.498308
0.49676
0.506209
0.498706
0.489284
0.519368
0.489709
0.235396
0.299705
0.157204
0.0259629
0.135236
0.0169553
0.0844347
0.07313
0.0459523
0.0384099
0.0418248
0.0123338
0.00158342
0.00211891
0.0132829
0.00641102