/*--------------------------------*- C++ -*----------------------------------*\
| =========                 |                                                 |
| \\      /  F ield         | OpenFOAM: The Open Source CFD Toolbox           |
|  \\    /   O peration     | Version:  v2012                                 |
|   \\  /    A nd           | Website:  www.openfoam.com                      |
|    \\/     M anipulation  |                                                 |
\*---------------------------------------------------------------------------*/
FoamFile
{
    version     2.0;
    format      ascii;
    class       volScalarField;
    location    "12000";
    object      q2;
}
// * * * * * * * * * * * * * * * * * * * * * * * * * * * * * * * * * * * * * //

dimensions      [0 0 0 0 0 0 0];


internalField   nonuniform List<scalar> 
27324
(
2.096e-19
1.47546e-19
3.81137e-20
1.2035e-19
2.75793e-20
3.18148e-20
9.76103e-20
2.22707e-20
2.43146e-20
4.08334e-20
8.16626e-20
1.77845e-20
2.02034e-20
3.24858e-20
9.08324e-20
7.22632e-20
1.44553e-20
1.65298e-20
2.76676e-20
7.64741e-20
3.24536e-19
6.62292e-20
1.22387e-20
1.36841e-20
2.329e-20
6.87155e-20
2.90161e-19
1.35517e-18
6.07865e-20
1.06331e-20
1.17729e-20
2.00025e-20
6.15764e-20
2.74978e-19
1.21366e-18
4.88867e-18
5.59797e-20
9.25767e-21
1.04452e-20
1.80884e-20
5.6384e-20
2.55249e-19
1.15725e-18
4.20484e-18
1.53314e-17
5.39012e-20
8.0829e-21
9.37975e-21
1.69867e-20
5.37524e-20
2.40124e-19
1.05059e-18
4.25707e-18
1.23133e-17
3.70575e-17
6.4434e-20
7.9188e-21
8.42748e-21
1.60482e-20
5.20037e-20
2.34728e-19
9.95704e-19
3.98959e-18
1.39403e-17
2.54293e-17
6.44486e-17
8.00585e-20
1.28479e-20
8.84796e-21
1.48869e-20
4.94293e-20
2.30667e-19
1.04041e-18
3.96493e-18
1.38998e-17
3.30845e-17
3.82786e-17
8.9651e-17
4.52664e-19
3.37061e-20
1.18778e-20
1.43581e-20
4.54144e-20
2.21293e-19
1.10205e-18
4.68771e-18
1.40232e-17
3.8323e-17
5.56124e-17
4.84982e-17
1.18582e-16
5.59274e-18
2.03321e-19
2.9493e-20
1.47096e-20
3.57534e-20
1.97731e-19
1.11762e-18
5.24179e-18
2.02115e-17
3.60578e-17
8.36969e-17
6.77357e-17
6.46228e-17
1.63863e-16
8.62965e-18
9.68734e-19
1.85234e-19
3.01324e-20
2.84097e-20
1.1881e-19
8.14891e-19
5.236e-18
2.51538e-17
6.31136e-17
6.7964e-17
1.31445e-16
7.04827e-17
1.00082e-16
2.49433e-16
8.70132e-18
1.16754e-18
8.76115e-19
1.63759e-19
4.26963e-20
5.50576e-20
2.68123e-19
2.47796e-18
2.25162e-17
1.17264e-16
1.10886e-16
1.03236e-16
1.51126e-16
7.03761e-17
2.09376e-16
4.09627e-16
7.73084e-18
1.15009e-18
1.02767e-18
7.12355e-19
1.94317e-19
6.7997e-20
7.64999e-20
2.70757e-19
3.68288e-18
7.01005e-17
6.07396e-16
1.11767e-16
1.53529e-16
1.28332e-16
9.36972e-17
4.49196e-16
5.09477e-16
6.70006e-18
1.01894e-18
1.00561e-18
8.50853e-19
8.21759e-19
2.91857e-19
1.02334e-19
9.1615e-20
1.94853e-19
1.79354e-18
6.47841e-17
1.16165e-15
1.19558e-16
2.64217e-16
9.14078e-17
1.74027e-16
1.0298e-15
5.38709e-16
5.91212e-18
9.36999e-19
9.45432e-19
8.66497e-19
9.92051e-19
1.61511e-18
3.86011e-19
1.60116e-19
1.13704e-19
1.38065e-19
6.04301e-19
1.12262e-17
2.07533e-16
1.92492e-16
6.01644e-16
9.12882e-17
8.27886e-16
1.35661e-14
2.76848e-15
5.25671e-18
8.7109e-19
9.38878e-19
8.80945e-19
1.02553e-18
1.9877e-18
3.76197e-18
4.27271e-19
2.97905e-19
1.69394e-19
1.11506e-19
2.10015e-19
1.24699e-18
1.18651e-17
6.33952e-17
1.97728e-16
1.01334e-16
2.48503e-16
1.70982e-16
6.12982e-17
4.86269e-18
8.20881e-19
9.4078e-19
8.93185e-19
1.07294e-18
1.95542e-18
6.408e-18
4.46086e-18
4.79262e-19
7.23024e-19
3.49585e-19
1.32862e-19
1.11029e-19
2.23939e-19
7.40217e-19
2.01272e-18
3.92763e-18
4.35298e-18
3.38951e-18
2.53617e-18
1.89217e-18
4.65725e-18
7.94885e-19
9.55697e-19
9.0422e-19
1.08859e-18
1.93106e-18
5.94092e-18
2.86991e-17
2.65085e-18
6.27091e-19
2.55914e-18
1.15034e-18
2.96109e-19
1.35889e-19
1.23527e-19
1.82069e-19
2.83479e-19
4.1776e-19
4.76257e-19
6.32313e-19
6.73766e-19
1.29246e-18
4.57539e-18
7.85088e-19
9.79749e-19
9.13292e-19
1.07287e-18
1.85565e-18
5.49115e-18
2.83511e-17
7.32953e-17
1.42508e-18
1.02583e-18
1.54621e-17
7.1125e-18
1.58856e-18
5.51645e-19
3.29942e-19
3.20592e-19
3.96108e-19
5.79241e-19
9.43051e-19
1.91373e-18
5.02362e-18
3.76545e-18
4.58273e-18
7.86626e-19
1.00599e-18
9.17877e-19
1.04089e-18
1.77002e-18
5.16718e-18
2.73406e-17
1.45454e-16
4.0089e-17
8.70968e-19
2.27337e-18
1.98833e-16
1.29389e-16
3.03713e-17
9.55986e-18
4.73605e-18
3.91066e-18
4.85199e-18
8.88813e-18
2.52708e-17
1.196e-16
9.77489e-17
1.37485e-17
4.70217e-18
8.01534e-19
1.02785e-18
9.17767e-19
9.91659e-19
1.6835e-18
4.99667e-18
2.74559e-17
1.34343e-16
3.93407e-16
1.23441e-17
6.85168e-19
7.73157e-18
5.12215e-15
7.70352e-14
5.06708e-15
7.59904e-16
3.03407e-16
3.02158e-16
6.35409e-16
2.96439e-15
4.03941e-14
4.06405e-15
2.58326e-17
4.3555e-17
4.92279e-18
8.32377e-19
1.04462e-18
9.01563e-19
9.3974e-19
1.61459e-18
4.90554e-18
2.77181e-17
1.22724e-16
3.70311e-16
7.45067e-16
3.69706e-18
7.96805e-19
4.07365e-17
2.14746e-15
1.05919e-14
4.6125e-15
8.19138e-16
5.66686e-16
1.00837e-15
4.44007e-15
6.33981e-14
3.75525e-13
1.34904e-16
1.77697e-17
3.27837e-16
5.15962e-18
8.66458e-19
1.04832e-18
8.65212e-19
8.90247e-19
1.57336e-18
4.96641e-18
2.81678e-17
1.22681e-16
3.24357e-16
1.51402e-15
2.07702e-16
1.46218e-18
1.49152e-18
3.13064e-16
6.52573e-15
1.07278e-14
1.84017e-15
5.03841e-16
5.31125e-16
1.44489e-15
1.09831e-14
2.84053e-13
1.36267e-15
2.77392e-17
5.43683e-17
3.59215e-15
5.22145e-18
8.87436e-19
1.02425e-18
8.17396e-19
8.49082e-19
1.56725e-18
5.13741e-18
2.87101e-17
1.22022e-16
3.21777e-16
1.33583e-15
8.31285e-15
3.0139e-17
8.9036e-19
4.80015e-18
1.97271e-15
2.99109e-12
1.26665e-14
9.43699e-16
4.97662e-16
9.17493e-16
5.2598e-15
1.81522e-13
4.01684e-14
6.86721e-17
3.27841e-17
4.86154e-16
3.40269e-14
5.04354e-18
8.78444e-19
9.82644e-19
7.68613e-19
8.27004e-19
1.5931e-18
5.34844e-18
2.91885e-17
1.24304e-16
3.14561e-16
1.20805e-15
6.84801e-15
4.54928e-15
5.66531e-18
9.81897e-19
3.12408e-17
1.17526e-14
3.77942e-13
3.37034e-15
5.98511e-16
6.45812e-16
2.21163e-15
3.93362e-14
9.97009e-12
3.56943e-16
2.78333e-17
1.7482e-16
6.36978e-15
1.78452e-13
4.75925e-18
8.43676e-19
9.43426e-19
7.30919e-19
8.29832e-19
1.63521e-18
5.55597e-18
2.92298e-17
1.28364e-16
3.09632e-16
1.13506e-15
4.99076e-15
4.75232e-14
2.94358e-16
1.75724e-18
2.3051e-18
5.14148e-16
2.17364e-12
2.24486e-14
1.12815e-15
5.4072e-16
1.17857e-15
9.37871e-15
1.30438e-12
4.04443e-15
4.37634e-17
6.82352e-17
2.24687e-15
5.84309e-14
4.2245e-13
4.42763e-18
7.92523e-19
9.17366e-19
7.16437e-19
8.42932e-19
1.68108e-18
5.6727e-18
2.90141e-17
1.31413e-16
3.09857e-16
1.06175e-15
4.35482e-15
3.0913e-14
9.00092e-14
2.54683e-17
1.09858e-18
1.19051e-17
5.63422e-15
9.15239e-14
4.20334e-15
6.22823e-16
7.64584e-16
3.4285e-15
1.45039e-13
1.30824e-13
1.24949e-16
4.12312e-17
6.34897e-16
3.04025e-14
2.23784e-13
5.41854e-13
3.93414e-18
7.34431e-19
8.77076e-19
7.23166e-19
8.63802e-19
1.71225e-18
5.62205e-18
2.85919e-17
1.32059e-16
3.08048e-16
1.0497e-15
3.9167e-15
2.55554e-14
2.76559e-13
2.51366e-15
4.1886e-18
1.62746e-18
1.1143e-16
3.86522e-13
3.73429e-14
1.18346e-15
6.2108e-16
1.66703e-15
2.30293e-14
5.94609e-11
6.80974e-16
3.99938e-17
2.1465e-16
9.81837e-15
2.11037e-13
3.38269e-13
7.50968e-13
3.61814e-18
6.78747e-19
8.71562e-19
7.48077e-19
8.84512e-19
1.71245e-18
5.5196e-18
2.80909e-17
1.29158e-16
3.05197e-16
1.0633e-15
3.99921e-15
2.17065e-14
1.51081e-13
1.81507e-12
1.03142e-16
1.59792e-18
6.60377e-18
2.05874e-15
3.62264e-12
4.81157e-15
6.85593e-16
9.92501e-16
7.19014e-15
1.33984e-12
7.84869e-15
6.56227e-17
9.32831e-17
3.03153e-15
1.06755e-13
4.75274e-13
4.31982e-13
2.99166e-12
3.43611e-18
6.53254e-19
9.03448e-19
8.04505e-19
9.19979e-19
1.68067e-18
5.37531e-18
2.76729e-17
1.23691e-16
3.02605e-16
1.08723e-15
4.38931e-15
2.12579e-14
9.47436e-14
5.04289e-12
1.66739e-14
9.18057e-18
1.71914e-18
7.65657e-17
3.23873e-13
5.55431e-14
1.1919e-15
7.43042e-16
2.85159e-15
1.01253e-13
2.39411e-13
1.86318e-16
5.83786e-17
9.39199e-16
4.50114e-14
4.0446e-13
6.01807e-13
1.19276e-12
1.03931e-11
3.40432e-18
6.50188e-19
9.53135e-19
8.63163e-19
9.33887e-19
1.60744e-18
5.2353e-18
2.74077e-17
1.17659e-16
3.03716e-16
1.1101e-15
4.79933e-15
2.43884e-14
6.93296e-14
7.54103e-13
1.39118e-11
3.00633e-16
2.33021e-18
5.92544e-18
2.20473e-15
1.3309e-12
4.24036e-15
7.32302e-16
1.4987e-15
1.94802e-14
6.03701e-11
9.61477e-16
5.62729e-17
3.30702e-16
1.57947e-14
2.93e-13
6.55085e-13
1.41059e-12
3.24804e-12
1.75616e-12
3.48177e-18
6.68442e-19
1.00251e-18
9.08206e-19
9.06737e-19
1.53079e-18
5.17877e-18
2.73904e-17
1.12556e-16
3.07667e-16
1.13369e-15
5.06916e-15
2.79922e-14
7.37821e-14
2.90976e-13
3.64644e-12
7.27167e-14
1.56389e-17
2.04753e-18
6.38097e-17
1.94312e-13
4.82312e-14
1.09756e-15
9.71872e-16
5.93692e-15
5.97258e-13
1.00975e-14
8.68605e-17
1.46227e-16
5.13608e-15
1.62445e-13
7.47345e-13
1.30113e-12
3.00345e-12
9.8782e-13
1.42018e-12
3.60984e-18
6.89764e-19
1.04903e-18
9.08003e-19
8.8426e-19
1.46826e-18
5.21878e-18
2.76092e-17
1.08828e-16
3.15578e-16
1.1432e-15
5.078e-15
2.99024e-14
9.7312e-14
2.3684e-13
9.12016e-13
2.62767e-11
5.02643e-16
3.13154e-18
7.0294e-18
2.01905e-15
1.03234e-11
3.13968e-15
8.10097e-16
2.55587e-15
6.78115e-14
3.45382e-13
2.19655e-16
8.874e-17
1.68477e-15
7.2676e-14
7.44012e-13
1.49595e-12
1.9938e-12
7.43411e-13
8.23253e-13
5.14042e-12
3.9122e-18
7.42536e-19
1.06987e-18
8.82818e-19
8.64933e-19
1.43862e-18
5.43763e-18
2.80264e-17
1.06193e-16
3.18636e-16
1.1455e-15
4.87239e-15
2.88146e-14
1.30198e-13
3.72893e-13
4.28624e-13
4.25592e-12
9.44638e-14
1.9509e-17
2.58607e-18
9.15349e-17
1.956e-13
2.50014e-14
9.46542e-16
1.39452e-15
1.51572e-14
5.62466e-11
9.41017e-16
7.8812e-17
6.07988e-16
2.82026e-14
5.76453e-13
1.97953e-12
1.46699e-12
5.23209e-13
5.61024e-13
2.79018e-12
5.88386e-11
4.00113e-18
7.73438e-19
1.08511e-18
8.55491e-19
8.52617e-19
1.46436e-18
5.64719e-18
2.83492e-17
1.02146e-16
3.45124e-16
1.14409e-15
4.57351e-15
2.60339e-14
1.55516e-13
8.01121e-13
5.33616e-13
8.90875e-13
2.64512e-10
4.80038e-16
3.6792e-18
1.01399e-17
3.56323e-15
1.10769e-12
1.83339e-15
9.57169e-16
5.33558e-15
4.80894e-13
7.4143e-15
1.06328e-16
2.6387e-16
1.0046e-14
3.38576e-13
2.90601e-12
1.09804e-12
3.92123e-13
3.74897e-13
1.73387e-12
3.10431e-11
1.26825e-09
3.88163e-18
7.64304e-19
1.01416e-18
7.95977e-19
8.46649e-19
1.51648e-18
5.84286e-18
2.84083e-17
1.02721e-16
3.57003e-16
1.14017e-15
4.38928e-15
2.3233e-14
1.58469e-13
1.59872e-12
1.08318e-12
6.47073e-13
2.93827e-11
4.78517e-14
1.78669e-17
3.52881e-18
1.72367e-16
4.27174e-13
7.47512e-15
8.66631e-16
2.42888e-15
7.11356e-14
1.40547e-13
2.22477e-16
1.48942e-16
3.51469e-15
1.63874e-13
3.49766e-12
8.58464e-13
2.97258e-13
2.6235e-13
1.04259e-12
1.84372e-11
6.83897e-10
3.61582e-08
3.63109e-18
7.32077e-19
9.58588e-19
7.49989e-19
8.47328e-19
1.56516e-18
5.94655e-18
2.84805e-17
1.01147e-16
3.63858e-16
1.17094e-15
4.15526e-15
2.1568e-14
1.5234e-13
1.66162e-12
3.23683e-12
6.547e-13
3.02812e-12
4.20407e-12
2.8917e-16
4.00633e-18
1.94973e-17
1.23435e-14
8.96393e-14
1.15332e-15
1.42399e-15
1.74334e-14
3.0184e-10
7.39183e-16
1.16131e-16
1.30587e-15
6.72511e-14
2.86578e-12
6.94785e-13
2.30838e-13
1.90138e-13
6.43692e-13
1.03678e-11
4.1365e-10
2.04103e-08
1.13745e-06
3.44226e-18
6.95231e-19
9.26891e-19
7.46585e-19
8.66326e-19
1.62996e-18
5.96774e-18
2.83351e-17
1.00325e-16
3.71064e-16
1.20531e-15
4.08525e-15
2.08646e-14
1.46387e-13
1.25132e-12
5.36438e-12
1.04508e-12
1.5432e-12
8.51956e-12
1.58408e-14
1.36433e-17
5.53935e-18
5.46655e-16
6.26841e-12
2.69926e-15
1.03743e-15
6.17913e-15
9.76017e-13
4.0999e-15
1.30171e-16
5.54472e-16
2.51501e-14
1.72539e-12
5.63647e-13
1.83837e-13
1.43368e-13
4.08724e-13
5.8848e-12
2.34979e-10
1.29351e-08
6.77339e-07
3.53508e-05
3.03192e-18
6.72616e-19
9.30353e-19
7.52842e-19
8.73648e-19
1.68009e-18
5.90791e-18
2.81119e-17
9.94782e-17
3.82404e-16
1.28711e-15
4.33907e-15
2.14294e-14
1.61055e-13
1.01595e-12
5.28161e-12
2.04253e-12
1.1155e-12
3.13107e-12
1.79679e-12
1.32766e-16
4.47905e-18
5.3425e-17
1.02537e-13
1.40492e-14
1.00428e-15
2.87676e-15
1.11466e-13
4.39303e-14
2.14725e-16
2.87876e-16
9.21274e-15
7.75202e-13
4.44676e-13
1.50432e-13
1.11736e-13
2.68287e-13
3.34567e-12
1.33692e-10
7.68143e-09
4.54309e-07
2.2313e-05
0.000907999
2.86106e-18
6.33787e-19
9.50438e-19
7.65034e-19
8.67599e-19
1.65157e-18
5.76126e-18
2.67007e-17
9.88983e-17
4.01201e-16
1.39681e-15
4.6303e-15
2.49834e-14
2.02916e-13
9.98178e-13
5.92532e-12
3.59179e-12
1.96525e-12
1.25412e-12
2.04683e-11
4.02924e-15
9.87404e-18
1.12583e-17
3.19005e-15
2.40997e-13
1.43002e-15
1.68031e-15
2.62714e-14
2.94309e-12
5.30574e-16
1.93768e-16
3.51001e-15
2.89465e-13
3.47097e-13
1.25075e-13
8.90421e-14
1.82801e-13
1.92119e-12
7.52249e-11
4.56935e-09
2.84593e-07
1.60086e-05
0.000616045
0.0159437
2.87558e-18
6.40348e-19
1.02331e-18
7.73191e-19
8.50557e-19
1.62862e-18
5.65589e-18
2.56906e-17
9.53622e-17
4.13106e-16
1.53616e-15
4.97018e-15
2.88341e-14
2.86178e-13
1.16588e-12
7.40094e-12
6.50786e-12
4.51561e-12
9.04527e-13
6.47823e-12
5.45249e-13
5.50155e-17
5.9499e-18
2.15124e-16
3.7859e-12
3.54996e-15
1.2332e-15
8.28597e-15
4.76143e-12
2.00963e-15
1.77112e-16
1.4647e-15
9.83935e-14
2.7537e-13
1.0534e-13
7.2365e-14
1.29623e-13
1.12205e-12
4.20179e-11
2.6881e-09
1.78618e-07
1.06563e-05
0.000481961
0.0120309
0.124653
2.95951e-18
6.60058e-19
1.09978e-18
7.92112e-19
8.33671e-19
1.61647e-18
5.63566e-18
2.45614e-17
9.5184e-17
4.18282e-16
1.60733e-15
5.2464e-15
3.37891e-14
4.47221e-13
1.48067e-12
5.58262e-12
8.40862e-12
8.70498e-12
1.1476e-12
1.03879e-12
1.03879e-10
8.4608e-16
7.78706e-18
3.26341e-17
2.83354e-14
1.8821e-14
1.16423e-15
3.92064e-15
2.35782e-13
1.23423e-14
2.27005e-16
7.01517e-16
3.43477e-14
2.22966e-13
8.85544e-14
5.97147e-14
9.57223e-14
6.72335e-13
2.33104e-11
1.56833e-09
1.11033e-07
7.09956e-06
0.000348574
0.0103922
0.110501
0.32514
3.16358e-18
6.78193e-19
1.11211e-18
7.72343e-19
8.10352e-19
1.61895e-18
5.64829e-18
2.35596e-17
9.56649e-17
4.26324e-16
1.61045e-15
5.23762e-15
3.84347e-14
6.54205e-13
2.0197e-12
3.55049e-12
3.71464e-12
5.74341e-12
1.65548e-12
6.09385e-13
3.66767e-12
4.91088e-14
2.37399e-17
1.05637e-17
1.42671e-15
3.25639e-13
1.58473e-15
2.20848e-15
4.59843e-14
1.51758e-13
4.12534e-16
4.09919e-16
1.26896e-14
1.77773e-13
7.37471e-14
4.98727e-14
7.35002e-14
4.16355e-13
1.28879e-11
9.05237e-10
6.86292e-08
4.67886e-06
0.000252351
0.00826458
0.103571
0.316255
0.681456
3.27072e-18
7.06348e-19
1.08915e-18
7.5674e-19
8.05133e-19
1.66097e-18
5.6613e-18
2.27619e-17
9.66783e-17
4.22423e-16
1.52392e-15
4.96049e-15
4.11571e-14
9.48752e-13
2.43737e-12
2.68818e-12
1.73874e-12
2.67401e-12
2.28597e-12
5.83762e-13
9.51554e-13
4.19048e-11
1.61005e-16
7.83413e-18
1.50868e-16
1.97278e-12
3.50314e-15
1.56309e-15
1.45068e-14
1.35532e-10
1.0767e-15
3.09919e-16
4.94879e-15
1.24853e-13
5.99729e-14
4.21511e-14
5.8529e-14
2.68212e-13
7.13251e-12
5.16636e-10
4.21394e-08
3.06443e-06
0.000180026
0.00656065
0.0918161
0.307635
0.649621
0.992803
3.00018e-18
6.76086e-19
1.03013e-18
7.47376e-19
8.29939e-19
1.7291e-18
5.68536e-18
2.22408e-17
9.87356e-17
4.1371e-16
1.37557e-15
4.30404e-15
4.07006e-14
1.20734e-12
4.51314e-12
3.68146e-12
1.59221e-12
1.72335e-12
2.98519e-12
1.19364e-12
6.07011e-13
1.23049e-11
2.66779e-15
1.27878e-17
3.13114e-17
2.1449e-14
1.46547e-14
1.38375e-15
6.15101e-15
1.11071e-12
4.13629e-15
3.10212e-16
2.14259e-15
6.95588e-14
4.83577e-14
3.61672e-14
4.81435e-14
1.80424e-13
3.9773e-12
2.91432e-10
2.57028e-08
1.99541e-06
0.000127203
0.00513807
0.0812744
0.297207
0.624317
0.987711
1
2.72094e-18
6.19858e-19
9.4108e-19
7.27528e-19
8.59011e-19
1.78423e-18
5.57809e-18
2.13873e-17
1.00951e-16
4.06928e-16
1.2346e-15
3.84599e-15
3.57377e-14
1.07827e-12
6.60019e-12
1.87026e-11
3.8999e-12
1.8661e-12
3.87882e-12
3.55027e-12
8.77385e-13
3.6055e-12
1.31147e-13
4.29101e-17
1.28623e-17
1.38847e-15
1.52798e-13
1.65895e-15
3.38174e-15
1.15235e-13
2.56274e-14
4.17863e-16
1.11017e-15
3.28875e-14
3.98025e-14
3.16829e-14
4.0675e-14
1.26857e-13
2.25152e-12
1.62719e-10
1.55499e-08
1.29426e-06
8.90131e-05
0.00398512
0.0714207
0.288118
0.597273
0.982815
1
1
2.54449e-18
5.8053e-19
9.26253e-19
7.46519e-19
9.15137e-19
1.80662e-18
5.41676e-18
2.13739e-17
1.08205e-16
4.05869e-16
1.12569e-15
3.47819e-15
3.13761e-14
6.89056e-13
2.7292e-12
2.09933e-10
3.96447e-11
5.02059e-12
5.30662e-12
1.50196e-11
2.32134e-12
1.50243e-12
4.44685e-11
2.90776e-16
1.10449e-17
1.76183e-16
8.68202e-12
2.94961e-15
2.25512e-15
3.03161e-14
4.77265e-13
7.68645e-16
7.0847e-16
1.38836e-14
3.49373e-14
2.86048e-14
3.50332e-14
9.31068e-14
1.30367e-12
9.02066e-11
9.32067e-09
8.36667e-07
6.18257e-05
0.00305865
0.0623122
0.27908
0.571401
0.975586
1
1
1
2.27714e-18
5.63805e-19
9.38406e-19
7.74633e-19
9.52758e-19
1.82356e-18
5.30905e-18
2.12667e-17
1.13013e-16
4.21435e-16
1.06267e-15
3.24884e-15
2.80768e-14
4.92024e-13
1.1221e-12
6.56295e-12
4.9931e-10
1.98162e-11
7.69474e-12
2.98528e-11
1.03508e-11
1.15325e-12
2.08e-11
4.44383e-15
1.88167e-17
4.05865e-17
3.50906e-14
8.73744e-15
1.83639e-15
1.10287e-14
7.92647e-12
1.97497e-15
5.67431e-16
5.9327e-15
3.17557e-14
2.59445e-14
3.04871e-14
7.11432e-14
7.78433e-13
4.98449e-11
5.53346e-09
5.39047e-07
4.26897e-05
0.00232471
0.0539747
0.270197
0.546997
0.966266
0.999999
1
1
1
2.35084e-18
5.51594e-19
9.617e-19
7.93512e-19
9.55478e-19
1.76666e-18
4.92647e-18
2.14239e-17
1.20216e-16
4.3212e-16
1.0263e-15
3.17908e-15
2.63966e-14
3.94486e-13
7.71092e-13
1.38773e-12
7.81869e-12
1.77847e-11
1.10943e-11
1.90228e-11
3.30043e-11
1.63275e-12
3.08036e-12
2.19658e-13
6.01224e-17
1.77506e-17
2.20726e-15
5.17972e-14
1.84072e-15
5.89932e-15
2.13681e-13
7.25573e-15
5.81818e-16
3.02364e-15
2.77362e-14
2.3453e-14
2.66244e-14
5.64563e-14
4.82626e-13
2.75933e-11
3.25503e-09
3.45983e-07
2.93801e-05
0.00175061
0.0464367
0.261461
0.52429
0.954506
0.999999
1
1
1
1
2.4357e-18
5.80989e-19
1.03536e-18
8.04697e-19
9.50186e-19
1.70848e-18
4.69107e-18
2.13766e-17
1.26295e-16
4.48446e-16
1.02758e-15
3.42949e-15
2.60837e-14
3.77085e-13
7.85596e-13
1.03876e-12
2.27999e-12
9.00566e-12
1.56171e-11
1.31715e-11
5.75753e-11
3.65461e-12
1.07768e-12
8.91861e-09
3.53397e-16
1.49392e-17
2.92988e-16
5.06571e-12
2.47326e-15
3.65887e-15
4.31741e-14
4.08738e-14
7.83533e-16
1.7342e-15
2.01967e-14
2.10887e-14
2.33475e-14
4.64229e-14
3.1248e-13
1.53667e-11
1.9017e-09
2.20902e-07
2.01904e-05
0.00130892
0.0396945
0.252812
0.503303
0.940104
0.999996
1
1
1
1
1
2.47146e-18
5.92858e-19
1.06861e-18
8.1875e-19
9.45436e-19
1.6687e-18
4.53526e-18
2.17999e-17
1.34224e-16
4.60644e-16
1.0251e-15
3.70455e-15
3.09569e-14
3.7857e-13
1.20769e-12
2.06511e-12
1.39845e-12
7.83138e-12
3.90676e-11
1.31794e-11
3.41201e-11
9.55407e-12
8.33852e-13
6.59185e-12
4.17735e-15
2.34828e-17
6.51113e-17
1.25106e-13
4.7891e-15
2.69774e-15
1.64696e-14
3.65506e-13
1.36766e-15
1.16501e-15
1.20329e-14
1.80436e-14
2.08301e-14
3.94338e-14
2.11896e-13
8.6537e-12
1.10699e-09
1.40401e-07
1.3864e-05
0.000974615
0.0337264
0.244286
0.484101
0.923073
0.99999
1
1
1
1
1
1
2.40929e-18
5.91387e-19
1.07125e-18
8.17251e-19
9.40086e-19
1.6405e-18
4.44415e-18
2.21717e-17
1.40675e-16
4.43406e-16
1.03723e-15
3.98099e-15
3.57894e-14
4.2059e-13
1.45873e-12
1.37654e-11
3.50948e-12
5.971e-12
2.50582e-10
1.35267e-11
1.05028e-11
1.85451e-11
1.17063e-12
1.67637e-12
1.28911e-13
6.33571e-17
2.75545e-17
5.41303e-15
1.50453e-14
2.26591e-15
8.00423e-15
1.7772e-13
3.00778e-15
9.61305e-16
6.34302e-15
1.57834e-14
1.89609e-14
3.44197e-14
1.50505e-13
4.94844e-12
6.44391e-10
8.8968e-08
9.51296e-06
0.000725146
0.0285072
0.235713
0.466466
0.903515
0.999976
1
1
1
1
1
1
1
2.2207e-18
5.64384e-19
1.06572e-18
8.2773e-19
9.35248e-19
1.5981e-18
4.34206e-18
2.2634e-17
1.42575e-16
4.0438e-16
9.66986e-16
4.2803e-15
4.13133e-14
4.47203e-13
1.15311e-12
4.12383e-11
3.18299e-11
8.51682e-12
1.15368e-09
1.81066e-11
5.42204e-12
2.05858e-11
2.68165e-12
8.36609e-13
6.67219e-11
2.87968e-16
2.05178e-17
6.43405e-16
9.4611e-14
2.26136e-15
5.19584e-15
3.57019e-14
8.06767e-15
9.9275e-16
3.43995e-15
1.44597e-14
1.79016e-14
3.06145e-14
1.11728e-13
2.8893e-12
3.76245e-10
5.64285e-08
6.52107e-06
0.000540918
0.0239986
0.226945
0.450406
0.881507
0.999946
1
1
1
1
1
1
1
1
2.06164e-18
5.29529e-19
1.05091e-18
8.48836e-19
9.33239e-19
1.56308e-18
4.31753e-18
2.2936e-17
1.43282e-16
3.67099e-16
9.1905e-16
4.40698e-15
4.73447e-14
4.6147e-13
9.39322e-13
4.78179e-12
7.92938e-11
1.88661e-11
5.67007e-11
1.90344e-11
5.74708e-12
1.57051e-11
8.34163e-12
9.40189e-13
1.55548e-11
2.26741e-15
2.70554e-17
1.3728e-16
5.94395e-12
2.83521e-15
3.65266e-15
1.24312e-14
2.27419e-14
1.2779e-15
2.21035e-15
1.28743e-14
1.70913e-14
2.74744e-14
8.64318e-14
1.73235e-12
2.21127e-10
3.59619e-08
4.47361e-06
0.00040486
0.0201689
0.217695
0.43582
0.857407
0.999883
1
1
1
1
1
1
1
1
1
1.91899e-18
5.09365e-19
1.05683e-18
8.67268e-19
9.3054e-19
1.52184e-18
4.37473e-18
2.41952e-17
1.47162e-16
3.32978e-16
8.85333e-16
4.29744e-15
5.02211e-14
6.37249e-13
1.15342e-12
2.37763e-12
1.85314e-11
7.13706e-11
2.14891e-11
6.81549e-11
1.74273e-11
1.03083e-11
3.03029e-11
1.68369e-12
2.47686e-12
3.5633e-14
5.83981e-17
4.93515e-17
3.02918e-14
4.63946e-15
2.75268e-15
6.13616e-15
3.71769e-14
2.02475e-15
1.58397e-15
9.81534e-15
1.62332e-14
2.46924e-14
6.94984e-14
1.07317e-12
1.31201e-10
2.31274e-08
3.08275e-06
0.000303806
0.0169573
0.207784
0.422752
0.831586
0.999758
1
1
1
1
1
1
1
1
1
1
1.9254e-18
5.00334e-19
1.07861e-18
8.83929e-19
9.17448e-19
1.46504e-18
4.41411e-18
2.54738e-17
1.46411e-16
3.12063e-16
8.58578e-16
4.27013e-15
4.38134e-14
7.11267e-13
2.51932e-12
3.43469e-12
1.40032e-11
2.44477e-10
1.52269e-11
7.53919e-11
8.62504e-10
9.5949e-12
6.65525e-11
5.5783e-12
1.16419e-12
2.86327e-12
1.955e-16
3.08521e-17
2.15699e-15
1.00944e-14
2.22218e-15
3.7966e-15
2.39469e-14
3.64734e-15
1.32162e-15
6.47298e-15
1.42879e-14
2.24089e-14
5.79758e-14
6.90379e-13
7.88698e-11
1.50494e-08
2.14633e-06
0.00022812
0.0142799
0.197352
0.411391
0.80461
0.999523
1
1
1
1
1
1
1
1
1
1
1
1.92235e-18
5.11558e-19
1.11715e-18
8.85946e-19
9.11435e-19
1.42217e-18
4.51679e-18
2.69331e-17
1.42813e-16
2.9245e-16
8.76882e-16
4.33888e-15
3.99983e-14
4.4069e-13
3.4281e-12
8.99842e-12
2.4331e-11
1.08089e-10
1.62506e-11
8.7737e-12
2.23457e-10
1.52333e-11
4.71932e-11
2.38322e-11
9.39774e-13
3.22232e-11
9.84995e-16
3.23033e-17
3.68809e-16
3.62397e-14
2.00772e-15
2.63402e-15
1.07617e-14
6.74754e-15
1.32312e-15
3.93269e-15
1.2861e-14
2.08202e-14
5.00216e-14
4.62457e-13
4.82115e-11
9.93067e-09
1.51662e-06
0.000171591
0.0120367
0.187068
0.402134
0.777207
0.999101
1
1
1
1
1
1
1
1
1
1
1
1
1.86316e-18
5.20896e-19
1.13731e-18
8.72268e-19
9.0596e-19
1.38858e-18
4.71614e-18
2.86072e-17
1.39583e-16
2.80581e-16
9.14764e-16
4.59049e-15
3.84737e-14
3.22392e-13
2.82751e-12
9.27324e-12
4.49569e-11
2.41856e-11
1.98486e-11
3.99164e-12
2.66561e-11
5.52495e-11
2.43996e-11
7.28166e-11
1.54181e-12
1.85645e-12
8.17596e-15
5.2965e-17
1.08549e-16
2.78988e-13
2.0474e-15
1.94787e-15
5.53333e-15
1.15668e-14
1.59519e-15
2.53441e-15
1.16807e-14
2.00867e-14
4.42805e-14
3.2281e-13
3.00763e-11
6.6675e-09
1.09204e-06
0.000129996
0.0101509
0.178044
0.395426
0.750034
0.998384
1
1
1
1
1
1
1
1
1
1
1
1
1
1.79668e-18
5.25218e-19
1.16459e-18
8.57299e-19
8.84827e-19
1.37775e-18
4.88402e-18
3.06113e-17
1.32009e-16
2.72851e-16
9.42925e-16
5.06662e-15
4.11731e-14
3.06275e-13
2.75676e-12
8.5238e-12
3.6507e-11
1.88213e-11
5.13506e-11
5.09823e-12
1.19596e-11
6.0643e-10
1.78763e-11
1.14402e-10
3.8892e-12
7.3871e-13
1.5153e-13
1.24728e-16
5.8513e-17
2.24931e-14
2.29291e-15
1.52486e-15
3.25088e-15
1.36033e-14
2.20622e-15
1.90017e-15
1.01228e-14
1.95037e-14
3.97798e-14
2.34626e-13
1.92311e-11
4.57239e-09
8.03063e-07
9.99316e-05
0.0085466
0.170585
0.391093
0.723676
0.997218
1
1
1
1
1
1
1
1
1
1
1
1
1
1
1.79395e-18
5.31779e-19
1.21369e-18
8.38682e-19
8.66556e-19
1.38752e-18
5.07747e-18
3.24227e-17
1.20328e-16
2.66977e-16
9.49012e-16
5.22663e-15
4.63667e-14
3.43683e-13
4.75472e-12
1.1189e-11
6.8784e-11
2.23264e-11
7.78834e-11
1.21269e-11
9.902e-12
5.92779e-09
2.5363e-11
5.92352e-11
1.50095e-11
5.28815e-13
9.73137e-11
4.12397e-16
4.75917e-17
1.66775e-15
2.71864e-15
1.25474e-15
2.17221e-15
1.03466e-14
3.346e-15
1.59263e-15
7.4865e-15
1.85481e-14
3.60589e-14
1.77686e-13
1.2656e-11
3.21758e-09
6.04018e-07
7.84023e-05
0.00719907
0.164348
0.38836
0.698708
0.9954
1
1
1
1
1
1
1
1
1
1
1
1
1
1
1
1.83835e-18
5.50938e-19
1.29029e-18
8.11967e-19
8.44931e-19
1.39571e-18
5.37093e-18
3.3407e-17
1.12814e-16
2.71409e-16
9.56564e-16
5.07051e-15
4.79583e-14
4.023e-13
7.23174e-12
1.78047e-11
9.0224e-11
4.14966e-11
2.19311e-10
8.27905e-11
1.39356e-11
1.34646e-10
8.69953e-11
2.45102e-11
5.54921e-11
8.27056e-13
3.69314e-12
1.83094e-15
5.81445e-17
3.86569e-16
4.97007e-15
1.09128e-15
1.58318e-15
6.46395e-15
5.27847e-15
1.53845e-15
5.03005e-15
1.61659e-14
3.3396e-14
1.40435e-13
8.60574e-12
2.33274e-09
4.6617e-07
6.29383e-05
0.00611552
0.15888
0.387103
0.675559
0.992693
1
1
1
1
1
1
1
1
1
1
1
1
1
1
1
1
1.85101e-18
5.65076e-19
1.36733e-18
7.89833e-19
8.16287e-19
1.42781e-18
5.61708e-18
3.29354e-17
1.05213e-16
2.84058e-16
9.89022e-16
4.81352e-15
4.40591e-14
4.52309e-13
1.27364e-11
2.51697e-11
6.27707e-11
3.58981e-11
2.91084e-10
1.54007e-09
4.07557e-11
3.49327e-11
8.26153e-10
1.44847e-11
1.08765e-10
2.29798e-12
6.56859e-13
1.15913e-14
1.02095e-16
1.45072e-16
1.06465e-14
9.55293e-16
1.2159e-15
3.97925e-15
7.75647e-15
1.69338e-15
3.31606e-15
1.46099e-14
3.21843e-14
1.15685e-13
6.05968e-12
1.7477e-09
3.70665e-07
5.17624e-05
0.00528853
0.15405
0.387106
0.65442
0.988896
1
1
1
1
1
1
1
1
1
1
1
1
1
1
1
1
1
1.79906e-18
5.62486e-19
1.38189e-18
7.69579e-19
7.91437e-19
1.49634e-18
5.81461e-18
3.22712e-17
9.87671e-17
3.0099e-16
1.01498e-15
4.59522e-15
3.85776e-14
4.148e-13
1.32273e-11
2.17998e-11
4.40598e-11
2.28519e-11
4.48774e-10
4.9458e-09
2.57037e-10
1.71497e-11
2.21264e-10
1.91642e-11
7.21656e-11
1.3943e-11
3.70458e-13
1.64043e-13
2.36801e-16
9.4173e-17
7.37449e-15
8.55742e-16
9.70655e-16
2.55202e-15
8.70599e-15
2.1012e-15
2.39043e-15
1.32525e-14
3.22045e-14
9.84749e-14
4.42235e-12
1.3556e-09
3.04949e-07
4.36765e-05
0.00469236
0.150538
0.388749
0.635018
0.983898
1
1
1
1
1
1
1
1
1
1
1
1
1
1
1
1
1
1
1.68297e-18
5.40029e-19
1.34992e-18
7.55813e-19
7.73488e-19
1.57914e-18
6.0605e-18
3.06903e-17
9.37786e-17
3.09019e-16
1.03704e-15
4.7143e-15
3.44474e-14
3.26743e-13
2.4212e-11
9.18819e-12
4.11142e-11
1.22166e-11
2.74308e-10
1.04663e-08
9.33518e-10
2.10175e-11
5.86369e-11
5.3632e-11
3.0388e-11
2.20345e-10
3.3077e-13
1.273e-11
7.27199e-16
8.72937e-17
1.48468e-15
8.51145e-16
8.12042e-16
1.78988e-15
7.52787e-15
2.89591e-15
1.93241e-15
1.10366e-14
3.13853e-14
8.57017e-14
3.35324e-12
1.09177e-09
2.60304e-07
3.80772e-05
0.00428679
0.149633
0.394168
0.616931
0.977654
1
1
1
1
1
1
1
1
1
1
1
1
1
1
1
1
1
1
1
1.58106e-18
4.95364e-19
1.2736e-18
7.51722e-19
7.65758e-19
1.65164e-18
6.26383e-18
2.91875e-17
9.04196e-17
3.03515e-16
1.02597e-15
4.81749e-15
3.77396e-14
2.76442e-13
2.92688e-11
5.59751e-12
1.44481e-11
1.19341e-11
1.0265e-10
3.66585e-09
3.70602e-10
3.50338e-11
2.99521e-11
4.66376e-10
1.71807e-11
3.16357e-09
4.80956e-13
4.53239e-13
2.94025e-15
1.11071e-16
4.7096e-16
1.10722e-15
7.04836e-16
1.33557e-15
5.62375e-15
4.39964e-15
1.74296e-15
7.90677e-15
2.89238e-14
7.65971e-14
2.6584e-12
9.16328e-10
2.31179e-07
3.4582e-05
0.00404054
0.153142
0.407568
0.600852
0.970134
0.999999
1
1
1
1
1
1
1
1
1
1
1
1
1
1
1
1
1
1
1
1.4355e-18
4.63947e-19
1.18731e-18
7.51458e-19
7.71764e-19
1.69901e-18
6.35124e-18
2.79299e-17
9.14764e-17
2.99909e-16
9.64478e-16
4.88225e-15
4.39806e-14
3.26416e-13
6.47375e-12
9.83949e-12
4.1395e-12
1.5816e-11
2.68855e-11
3.73232e-09
1.60236e-10
8.07234e-11
4.81427e-11
4.06419e-09
2.06052e-11
1.44849e-09
7.96452e-13
9.34168e-14
1.46562e-14
1.89556e-16
2.18112e-16
1.61033e-15
6.14578e-16
1.03745e-15
3.93342e-15
6.56205e-15
1.76951e-15
5.26512e-15
2.58612e-14
7.2501e-14
2.21924e-12
8.04499e-10
2.14265e-07
3.29822e-05
0.00396629
0.163368
0.433565
0.589832
0.961195
0.999998
1
1
1
1
1
1
1
1
1
1
1
1
1
1
1
1
1
1
1
1
1.33924e-18
4.32305e-19
1.15179e-18
7.75776e-19
7.99092e-19
1.72623e-18
6.35053e-18
2.70241e-17
9.45782e-17
2.95702e-16
9.34422e-16
4.49248e-15
4.88963e-14
6.50108e-13
2.11061e-12
1.42677e-11
2.94547e-12
1.17661e-11
2.24159e-11
7.19878e-11
9.37774e-11
1.23237e-10
2.51793e-10
2.69417e-10
5.47757e-11
3.44805e-11
1.12177e-12
4.30501e-14
6.06941e-14
4.23553e-16
1.39604e-16
1.77325e-15
5.63135e-16
8.32553e-16
2.76205e-15
8.30219e-15
2.02971e-15
3.6608e-15
2.51774e-14
7.39567e-14
1.94659e-12
7.41175e-10
2.08567e-07
3.32666e-05
0.00413186
0.183768
0.475244
0.588659
0.950837
0.999994
1
1
1
1
1
1
1
1
1
1
1
1
1
1
1
1
1
1
1
1
1
1.26151e-18
4.15982e-19
1.15115e-18
8.09253e-19
8.46137e-19
1.73656e-18
6.36698e-18
2.58836e-17
9.6824e-17
2.99579e-16
9.08993e-16
4.20151e-15
5.20828e-14
8.24333e-13
6.67099e-12
2.24143e-12
1.72494e-11
4.22491e-12
2.27043e-10
1.02414e-11
2.05899e-10
1.27159e-10
1.46853e-09
1.78261e-10
1.54565e-10
6.81453e-12
8.1231e-13
2.66075e-14
4.85065e-14
1.08548e-15
1.28987e-16
9.77811e-16
5.39574e-16
6.87497e-16
2.01424e-15
8.64523e-15
2.66944e-15
2.70948e-15
2.33216e-14
7.4556e-14
1.77449e-12
7.20473e-10
2.15549e-07
3.58199e-05
0.00467795
0.222081
0.533406
0.600231
0.940194
0.999986
1
1
1
1
1
1
1
1
1
1
1
1
1
1
1
1
1
1
1
1
1
1
1.26588e-18
4.06635e-19
1.17089e-18
8.40056e-19
8.84644e-19
1.72428e-18
6.34886e-18
2.5367e-17
9.51318e-17
2.96703e-16
9.77523e-16
3.99738e-15
4.38245e-14
7.57155e-13
2.64435e-11
8.87474e-13
1.75324e-11
2.54145e-12
6.85724e-11
4.59441e-12
1.03606e-10
4.49867e-11
4.43523e-10
7.34875e-10
1.04631e-10
2.45315e-12
3.56672e-13
2.0867e-14
1.76055e-14
2.73032e-15
1.55648e-16
4.16868e-16
6.01862e-16
6.11374e-16
1.53037e-15
7.26905e-15
3.82852e-15
2.22178e-15
1.84145e-14
6.91429e-14
1.68891e-12
7.50764e-10
2.40186e-07
4.17786e-05
0.00588362
0.297446
0.608496
0.621821
0.931605
0.999968
1
1
1
1
1
1
1
1
1
1
1
1
1
1
1
1
1
1
1
1
1
1
1
1.29836e-18
4.15252e-19
1.23185e-18
8.44685e-19
9.19876e-19
1.66838e-18
6.24623e-18
2.50979e-17
9.42472e-17
2.82409e-16
1.05864e-15
4.47513e-15
3.97068e-14
1.25835e-12
1.28211e-12
3.36536e-12
1.41306e-12
1.39255e-11
2.21124e-12
1.09953e-11
6.19171e-12
3.23824e-11
9.03557e-11
4.79289e-10
3.2092e-11
9.44801e-13
1.57142e-13
1.4181e-14
6.97013e-15
4.50376e-15