/*--------------------------------*- C++ -*----------------------------------*\
| =========                 |                                                 |
| \\      /  F ield         | OpenFOAM: The Open Source CFD Toolbox           |
|  \\    /   O peration     | Version:  v2012                                 |
|   \\  /    A nd           | Website:  www.openfoam.com                      |
|    \\/     M anipulation  |                                                 |
\*---------------------------------------------------------------------------*/
FoamFile
{
    version     2.0;
    format      ascii;
    class       volScalarField;
    location    "12000";
    object      q3;
}
// * * * * * * * * * * * * * * * * * * * * * * * * * * * * * * * * * * * * * //

dimensions      [0 0 0 0 0 0 0];


internalField   nonuniform List<scalar> 
27324
(
2
2
2
2
2
2
2
2
2
2
2
2
2
2
2
2
2
2
2
2
2
2
2
2
2
2
2
2
2
2
2
2
2
2
2
2
2
2
2
2
2
2
2
2
2
2
2
2
2
2
2
2
2
2
2
2
2
2
2
2
2
2
2
2
2
2
2
2
2
2
2
2
2
2
2
2
2
2
2
2
2
2
2
2
2
2
2
2
2
2
2
2
2
2
2
2
2
2
2
2
2
2
2
2
2
2
2
2
2
2
2
2
2
2
2
2
2
2
2
2
2
2
2
2
2
2
2
2
2
2
2
2
2
2
2
1.61697
2
2
2
2
2
2
2
2
2
2
2
2
2
2
2
1.60878
1.289
2
2
2
2
2
2
2
2
2
2
2
2
2
2
2
1.58786
1.28434
1.04852
2
2
2
2
2
2
2
2
2
2
2
2
2
2
1.99746
1.57697
1.26896
1.04674
0.882384
2
2
2
2
2
2
2
2
2
2
2
2
2
2
1.97032
1.56421
1.25131
1.03084
0.878582
0.74817
2
2
2
2
2
2
2
2
2
2
2
2
2
2
1.89528
1.51485
1.22194
0.984138
0.865841
0.705118
0.666685
2
2
2
2
2
2
2
2
2
2
2
2
2
2
1.6631
1.35084
1.09915
0.903796
0.758116
0.633341
0.551388
0.503124
2
2
2
2
2
2
2
2
2
2
2
2
2
1.83912
1.44163
1.15259
0.930735
0.761393
0.631252
0.532855
0.463098
0.419537
0.450595
2
2
2
2
2
2
2
2
2
2
2
2
2
1.87815
1.40866
1.07994
0.84719
0.681338
0.561953
0.477829
0.421822
0.388258
0.387932
0.474443
2
2
2
2
2
2
2
2
2
2
2
2
2
2
1.48237
1.11153
0.852653
0.672588
0.547654
0.463435
0.410021
0.379938
0.368987
0.413919
0.533926
2
2
2
2
2
2
2
2
2
2
2
2
2
2
1.60554
1.18852
0.89952
0.700889
0.563312
0.471943
0.414217
0.380802
0.365571
0.381115
0.4771
0.586756
2
2
2
2
2
2
2
2
2
2
2
2
2
2
1.751
1.27984
0.956692
0.739181
0.588948
0.488466
0.423956
0.385915
0.365801
0.363283
0.429689
0.546128
0.652692
2
2
2
2
2
2
2
2
2
2
2
2
2
2
1.81451
1.37828
1.01741
0.778364
0.615672
0.506235
0.434854
0.391277
0.367677
0.357445
0.390245
0.501546
0.605792
0.806486
2
2
2
2
2
2
2
2
2
2
2
2
2
1.90052
1.74651
1.44332
1.07923
0.818083
0.6426
0.524838
0.446679
0.397835
0.369836
0.356329
0.363965
0.452669
0.566647
0.718349
1.16382
2
2
2
2
2
2
2
2
2
2
2
2
2
1.78661
1.58073
1.44643
1.13491
0.859491
0.66977
0.544163
0.459709
0.405784
0.373346
0.356612
0.35183
0.407731
0.525844
0.652182
0.991557
1.88339
2
2
2
2
2
2
2
2
2
2
2
2
2
1.75121
1.44668
1.33849
1.18227
0.903373
0.697933
0.563547
0.473695
0.415008
0.378236
0.35779
0.348027
0.373
0.479909
0.599329
0.856229
1.57261
2
2
2
2
2
2
2
2
2
2
2
2
2
2
1.7468
1.38632
1.20095
1.13355
0.947591
0.727574
0.582322
0.487871
0.425267
0.384392
0.35988
0.347372
0.350997
0.432702
0.554186
0.749684
1.31799
2
2
2
2
2
2
2
2
2
2
2
2
2
2
2
1.74646
1.37312
1.11713
1.02676
0.941486
0.756332
0.60058
0.501296
0.4361
0.391696
0.363395
0.347524
0.341503
0.390643
0.510733
0.666959
1.10903
2
2
2
2
2
2
2
2
2
2
2
2
2
2
2
2
1.74708
1.37113
1.08351
0.924469
0.888777
0.773559
0.61917
0.51344
0.446881
0.399936
0.368016
0.348696
0.338488
0.358682
0.465068
0.602106
0.940193
1.85204
2
2
2
2
2
2
2
2
2
2
2
2
2
2
2
2
1.74944
1.3715
1.0785
0.871018
0.795902
0.763155
0.637088
0.524856
0.456781
0.408726
0.373879
0.350745
0.337906
0.339209
0.419367
0.5491
0.8057
1.53781
2
2
2
2
2
2
2
2
2
2
2
2
2
2
2
2
2
1.75291
1.37293
1.07802
0.850965
0.719772
0.707461
0.646793
0.536405
0.465088
0.417446
0.380683
0.354176
0.338096
0.330883
0.378999
0.501905
0.700232
1.27787
2
2
2
2
2
2
2
2
2
2
2
2
2
2
2
2
2
2
1.75664
1.37554
1.07876
0.848846
0.682945
0.630301
0.62803
0.546211
0.471907
0.42519
0.388186
0.358814
0.339618
0.328429
0.347786
0.456001
0.618071
1.06546
2
2
2
2
2
2
2
2
2
2
2
2
2
2
2
2
2
2
2
1.75997
1.37853
1.08011
0.848628
0.67028
0.570485
0.580109
0.549069
0.478255
0.431112
0.395889
0.364623
0.342016
0.328169
0.328104
0.41063
0.553254
0.894149
1.83278
2
2
2
2
2
2
2
2
2
2
2
2
2
2
2
2
2
2
2
1.7626
1.3812
1.0821
0.848916
0.669029
0.541503
0.515379
0.532234
0.482759
0.435205
0.403062
0.37139
0.345824
0.328718
0.31907
0.37046
0.499567
0.758435
1.50752
2
2
2
2
2
2
2
2
2
2
2
2
2
2
2
2
2
2
2
2
1.76462
1.38326
1.08405
0.849909
0.668839
0.53087
0.464416
0.490943
0.483234
0.438529
0.408813
0.378805
0.350791
0.330167
0.316146
0.33839
0.451679
0.652469
1.23971
2
2
2
2
2
2
2
2
2
2
2
2
2
2
2
2
2
2
2
2
2
1.76649
1.38478
1.08565
0.85099
0.668842
0.52943
0.438405
0.435388
0.469694
0.441014
0.41251
0.386277
0.356901
0.332715
0.315767
0.316485
0.406554
0.570362
1.02176
2
2
2
2
2
2
2
2
2
2
2
2
2
2
2
2
2
2
2
2
2
2
1.76866
1.38626
1.08689
0.852159
0.6694
0.529016
0.427184
0.388054
0.43667
0.441321
0.414639
0.392873
0.363833
0.336526
0.316177
0.30519
0.365693
0.505924
0.847132
1.81905
2
2
2
2
2
2
2
2
2
2
2
2
2
2
2
2
2
2
2
2
2
2
1.77165
1.38793
1.08813
0.853233
0.670364
0.529016
0.425423
0.361616
0.389018
0.432483
0.416325
0.397599
0.371253
0.341479
0.317549
0.300849
0.331818
0.453085
0.709713
1.48135
2
2
2
2
2
2
2
2
2
2
2
2
2
2
2
2
2
2
2
2
2
2
2
1.7755
1.39033
1.08947
0.85427
0.671616
0.529296
0.425139
0.350248
0.343073
0.407806
0.416486
0.400158
0.37851
0.347554
0.319942
0.299918
0.306439
0.407035
0.603476
1.20452
2
2
2
2
2
2
2
2
2
2
2
2
2
2
2
2
2
2
2
2
2
2
2
2
1.78023
1.39359
1.09143
0.855506
0.672935
0.530323
0.425284
0.347955
0.313254
0.368576
0.412424
0.401354
0.384683
0.35445
0.32359
0.300172
0.291197
0.36539
0.522437
0.980295
2
2
2
2
2
2
2
2
2
2
2
2
2
2
2
2
2
2
2
2
2
2
2
2
2
1.78561
1.39759
1.09435
0.857155
0.674347
0.531701
0.426261
0.347919
0.299427
0.324022
0.397394
0.402115
0.388838
0.361897
0.328518
0.301124
0.283994
0.329639
0.460195
0.801732
1.83917
2
2
2
2
2
2
2
2
2
2
2
2
2
2
2
2
2
2
2
2
2
2
2
2
2
1.79143
1.40218
1.09784
0.859534
0.676078
0.533299
0.427622
0.348341
0.295106
0.288451
0.368098
0.400212
0.390853
0.369347
0.33443
0.303183
0.281532
0.301089
0.410563
0.662763
1.48504
2
2
2
2
2
2
2
2
2
2
2
2
2
2
2
2
2
2
2
2
2
2
2
2
2
2
1.79743
1.40705
1.10176
0.862393
0.678187
0.534995
0.429251
0.34927
0.294912
0.268382
0.32813
0.393436
0.391703
0.375888
0.341309
0.30641
0.281133
0.280822
0.368856
0.557915
1.19464
2
2
2
2
2
2
2
2
2
2
2
2
2
2
2
2
2
2
2
2
2
2
2
2
2
2
2
1.80256
1.41173
1.10576
0.865548
0.68052
0.536683
0.430869
0.350459
0.295315
0.259507
0.287875
0.374897
0.391955
0.380533
0.348811
0.310876
0.281492
0.269008
0.332782
0.479448
0.959434
2
2
2
2
2
2
2
2
2
2
2
2
2
2
2
2
2
2
2
2
2
2
2
2
2
2
2
2
1.80627
1.41561
1.10939
0.868611
0.682942
0.538297
0.432245
0.3517
0.295741
0.257564
0.258367
0.344209
0.389757
0.383051
0.356576
0.316332
0.282891
0.263446
0.302458
0.421092
0.774194
1.90321
2
2
2
2
2
2
2
2
2
2
2
2
2
2
2
2
2
2
2
2
2
2
2
2
2
2
2
2
1.80833
1.4182
1.11236
0.871207
0.685198
0.539794
0.433355
0.352745
0.296332
0.257494
0.242304
0.305402
0.382482
0.384251
0.363843
0.322708
0.285403
0.261533
0.278522
0.376664
0.631723
1.52109
2
2
2
2
2
2
2
2
2
2
2
2
2
2
2
2
2
2
2
2
2
2
2
2
2
2
2
2
2
1.80915
1.41928
1.11422
0.873283
0.68702
0.541126
0.434216
0.353528
0.297097
0.257674
0.235132
0.268184
0.364516
0.384976
0.369655
0.329759
0.289108
0.261193
0.261946
0.341258
0.525376
1.21123
2
2
2
2
2
2
2
2
2
2
2
2
2
2
2
2
2
2
2
2
2
2
2
2
2
2
2
2
2
2
1.80963
1.41935
1.11501
0.874503
0.688478
0.542284
0.434944
0.354112
0.297909
0.25809
0.233791
0.241398
0.335016
0.38343
0.373406
0.337338
0.293863
0.261568
0.252307
0.311784
0.448599
0.963755
2
2
2
2
2
2
2
2
2
2
2
2
2
2
2
2
2
2
2
2
2
2
2
2
2
2
2
2
2
2
2
1.81053
1.41929
1.11492
0.875191
0.689369
0.543277
0.435723
0.354628
0.298653
0.258782
0.23385
0.22666
0.298099
0.377589
0.375491
0.345007
0.29931
0.26398
0.247833
0.287373
0.394903
0.770483
2
2
2
2
2
2
2
2
2
2
2
2
2
2
2
2
2
2
2
2
2
2
2
2
2
2
2
2
2
2
2
2
1.8128
1.41969
1.11475
0.875523
0.690124
0.544115
0.436624
0.355214
0.299323
0.259677
0.234169
0.219904
0.262087
0.362687
0.376891
0.35201
0.305447
0.267185
0.246075
0.268334
0.356202
0.618478
1.63362
2
2
2
2
2
2
2
2
2
2
2
2
2
2
2
2
2
2
2
2
2
2
2
2
2
2
2
2
2
2
2
2
1.8173
1.42126
1.11518
0.875775
0.690792
0.545018
0.43759
0.356016
0.299965
0.260615
0.234764
0.218609
0.235034
0.335658
0.377294
0.357399
0.312176
0.271514
0.245682
0.255201
0.326814
0.509143
1.28222
2
2
2
2
2
2
2
2
2
2
2
2
2
2
2
2
2
2
2
2
2
2
2
2
2
2
2
2
2
2
2
2
2
1.82255
1.42478
1.11648
0.876433
0.691426
0.545945
0.438598
0.356977
0.300615
0.261453
0.235546
0.218637
0.218991
0.301395
0.373963
0.360894
0.319515
0.276494
0.247553
0.247545
0.303275
0.432915
1.0033
2
2
2
2
2
2
2
2
2
2
2
2
2
2
2
2
2
2
2
2
2
2
2
2
2
2
2
2
2
2
2
2
2
2
1.82813
1.42884
1.11917
0.877526
0.692151
0.546902
0.439617
0.35801
0.301275
0.262149
0.236438
0.218912
0.211085
0.265691
0.363686
0.363294
0.327162
0.28205
0.250937
0.243919
0.284014
0.381758
0.787529
2
2
2
2
2
2
2
2
2
2
2
2
2
2
2
2
2
2
2
2
2
2
2
2
2
2
2
2
2
2
2
2
2
2
2
1.83348
1.43301
1.12226
0.879461
0.69297
0.547756
0.440609
0.358958
0.301961
0.262726
0.23722
0.219312
0.208757
0.236596
0.341852
0.365131
0.334331
0.288161
0.255695
0.242419
0.269088
0.347927
0.626183
1.87701
2
2
2
2
2
2
2
2
2
2
2
2
2
2
2
2
2
2
2
2
2
2
2
2
2
2
2
2
2
2
2
2
2
2
2
1.83738
1.43661
1.12538
0.881406
0.693937
0.548352
0.441382
0.359696
0.302678
0.263213
0.237833
0.219984
0.208478
0.217526
0.311855
0.364735
0.340247
0.294867
0.261134
0.242019
0.258973
0.323423
0.5083
1.44702
2
2
2
2
2
2
2
2
2
2
2
2
2
2
2
2
2
2
2
2
2
2
2
2
2
2
2
2
2
2
2
2
2
2
2
2
1.83959
1.43919
1.12784
0.883186
0.694703
0.54873
0.441681
0.360265
0.303361
0.263643
0.238276
0.220791
0.208653
0.207102
0.278086
0.359798
0.344491
0.302168
0.267044
0.245229
0.253195
0.304007
0.430698
1.10687
2
2
2
2
2
2
2
2
2
2
2
2
2
2
2
2
2
2
2
2
2
2
2
2
2
2
2
2
2
2
2
2
2
2
2
2
2
1.84077
1.44039
1.12958
0.884516
0.695343
0.549051
0.441745
0.360553
0.303957
0.264083
0.238624
0.221556
0.209028
0.202679
0.24723
0.345802
0.347407
0.310045
0.273524
0.249594
0.250355
0.288081
0.382371
0.845634
2
2
2
2
2
2
2
2
2
2
2
2
2
2
2
2
2
2
2
2
2
2
2
2
2
2
2
2
2
2
2
2
2
2
2
2
2
2
1.84172
1.44131
1.13046
0.88559
0.696142
0.549393
0.441652
0.360787
0.304431
0.264581
0.238941
0.222197
0.209815
0.201754
0.223794
0.321929
0.349729
0.318308
0.280526
0.255443
0.249116
0.27587
0.352618
0.653936
2
2
2
2
2
2
2
2
2
2
2
2
2
2
2
2
2
2
2
2
2
2
2
2
2
2
2
2
2
2
2
2
2
2
2
2
2
2
2
1.84342
1.44248
1.13141
0.886377
0.696928
0.549883
0.441659
0.360937
0.304858
0.265078
0.239318
0.222719
0.210759
0.201787
0.208665
0.293456
0.347512
0.326274
0.288018
0.262113
0.250868
0.26782
0.332523
0.522194
1.79079
2
2
2
2
2
2
2
2
2
2
2
2
2
2
2
2
2
2
2
2
2
2
2
2
2
2
2
2
2
2
2
2
2
2
2
2
2
2
2
1.84557
1.44419
1.13259
0.887442
0.697679
0.550589
0.441808
0.361136
0.305178
0.265535
0.239817
0.223169
0.21171
0.202138
0.20006
0.263932
0.341096
0.333273
0.295917
0.269511
0.254456
0.26318
0.316053
0.437624
1.32809
2
2
2
2
2
2
2
2
2
2
2
2
2
2
2
2
2
2
2
2
2
2
2
2
2
2
2
2
2
2
2
2
2
2
2
2
2
2
2
2
1.84772
1.44604
1.13395
0.888608
0.698487
0.551452
0.442183
0.361406
0.305376
0.265904
0.240376
0.223569
0.212402
0.202671
0.196536
0.23836
0.327125
0.337936
0.304469
0.277515
0.26003
0.260726
0.301877
0.391383
0.974018
2
2
2
2
2
2
2
2
2
2
2
2
2
2
2
2
2
2
2
2
2
2
2
2
2
2
2
2
2
2
2
2
2
2
2
2
2
2
2
2
2
1.84972
1.44746
1.13533
0.889921
0.699304
0.552233
0.442816
0.361773
0.305467
0.266155
0.24097
0.223929
0.21288
0.203742
0.195644
0.219188
0.305546
0.34041
0.314245
0.286132
0.266952
0.260366
0.290497
0.366423
0.719736
2
2
2
2
2
2
2
2
2
2
2
2
2
2
2
2
2
2
2
2
2
2
2
2
2
2
2
2
2
2
2
2
2
2
2
2
2
2
2
2
2
2
1.85157
1.44841
1.1364
0.891184
0.700102
0.552937
0.443352
0.36224
0.305519
0.266368
0.241481
0.224317
0.213222
0.204894
0.19563
0.206459
0.281619
0.33786
0.324853
0.295291
0.274796
0.261989
0.282862
0.351086
0.554796
2
2
2
2
2
2
2
2
2
2
2
2
2
2
2
2
2
2
2
2
2
2
2
2
2
2
2
2
2
2
2
2
2
2
2
2
2
2
2
2
2
2
2
1.85397
1.4493
1.13687
0.892217
0.700951
0.553579
0.443781
0.362676
0.305644
0.266527
0.24186
0.224747
0.213523
0.20588
0.196087
0.198957
0.257908
0.330726
0.335105
0.304895
0.283454
0.265917
0.278578
0.336925
0.462262
1.82275
2
2
2
2
2
2
2
2
2
2
2
2
2
2
2
2
2
2
2
2
2
2
2
2
2
2
2
2
2
2
2
2
2
2
2
2
2
2
2
2
2
2
2
1.85682
1.45037
1.13705
0.892797
0.70178
0.554347
0.444096
0.363083
0.30586
0.266661
0.242156
0.225241
0.213843
0.206584
0.197609
0.196232
0.237576
0.31825
0.343475
0.315068
0.292861
0.271592
0.276222
0.323299
0.421568
1.24746
2
2
2
2
2
2
2
2
2
2
2
2
2
2
2
2
2
2
2
2
2
2
2
2
2
2
2
2
2
2
2
2
2
2
2
2
2
2
2
2
2
2
2
2
1.85931
1.45249
1.13742
0.892865
0.702501
0.555322
0.444449
0.363391
0.306188
0.266894
0.242357
0.225642
0.214177
0.207076
0.19969
0.195628
0.222596
0.302192
0.348234
0.326131
0.30299
0.278884
0.27677
0.311508
0.404507
0.865242
2
2
2
2
2
2
2
2
2
2
2
2
2
2
2
2
2
2
2
2
2
2
2
2
2
2
2
2
2
2
2
2
2
2
2
2
2
2
2
2
2
2
2
2
2
1.86104
1.45518
1.13826
0.892835
0.702882
0.556372
0.444946
0.363675
0.30657
0.267212
0.242402
0.225945
0.214863
0.207481
0.202169
0.196202
0.213031
0.283145
0.349018
0.33817
0.313809
0.287328
0.278027
0.303051
0.394397
0.678399
2
2
2
2
2
2
2
2
2
2
2
2
2
2
2
2
2
2
2
2
2
2
2
2
2
2
2
2
2
2
2
2
2
2
2
2
2
2
2
2
2
2
2
2
2
2
1.86056
1.45714
1.14041
0.893211
0.702833
0.557316
0.445751
0.36398
0.306833
0.267644
0.242536
0.226164
0.215572
0.208027
0.20446
0.197326
0.207971
0.264966
0.343188
0.35102
0.325301
0.296694
0.281397
0.29778
0.382584
0.626653
2
2
2
2
2
2
2
2
2
2
2
2
2
2
2
2
2
2
2
2
2
2
2
2
2
2
2
2
2
2
2
2
2
2
2
2
2
2
2
2
2
2
2
2
2
2
2
1.85959
1.45757
1.14247
0.894323
0.70268
0.557947
0.446645
0.364404
0.306971
0.26802
0.242822
0.226226
0.216399
0.208838
0.206583
0.200523
0.206285
0.249874
0.332811
0.362648
0.337369
0.306956
0.286555
0.295501
0.370118
0.61967
1.55152
2
2
2
2
2
2
2
2
2
2
2
2
2
2
2
2
2
2
2
2
2
2
2
2
2
2
2
2
2
2
2
2
2
2
2
2
2
2
2
2
2
2
2
2
2
2
2
1.85968
1.45643
1.14374
0.896446
0.702971
0.557784
0.447346
0.365379
0.30705
0.268341
0.243212
0.22632
0.217238
0.209961
0.20879
0.204389
0.207318
0.239645
0.320457
0.371162
0.350208
0.31811
0.293286
0.29573
0.357112
0.616742
1.56307
2
2
2
2
2
2
2
2
2
2
2
2
2
2
2
2
2
2
2
2
2
2
2
2
2
2
2
2
2
2
2
2
2
2
2
2
2
2
2
2
2
2
2
2
2
2
2
2
1.86168
1.45571
1.1434
0.89857
0.703877
0.557282
0.447851
0.366676
0.307257
0.268437
0.243876
0.22649
0.218064
0.211531
0.211223
0.208838
0.209642
0.234086
0.305909
0.374586
0.364122
0.330111
0.301432
0.297498
0.345803
0.612694
1.57173
2
2
2
2
2
2
2
2
2
2
2
2
2
2
2
2
2
2
2
2
2
2
2
2
2
2
2
2
2
2
2
2
2
2
2
2
2
2
2
2
2
2
2
2
2
2
2
2
2
1.86443
1.45599
1.14208
0.899885
0.705721
0.557341
0.447643
0.367915
0.307689
0.268128
0.244584
0.226964
0.218915
0.213631
0.214075
0.213733
0.213928
0.231392
0.290586
0.373419
0.379264
0.342856
0.310825
0.300391
0.337671
0.603067
1.57922
2
2
2
2
2
2
2
2
2
2
2
2
2
2
2
2
2
2
2
2
2
2
2
2
2
2
2
2
2
2
2
2
2
2
2
2
2
2
2
2
2
2
2
2
2
2
2
2
2
2
1.86602
1.45921
1.14178
0.899355
0.707325
0.558121
0.447153
0.368733
0.308848
0.267912
0.244974
0.228037
0.219962
0.216294
0.217463
0.218967
0.219448
0.23106
0.277597
0.36659
0.394457
0.35626
0.321033
0.304155
0.333197
0.590613
1.58801
2
2
2
2
2
2
2
2
2
2
2
2
2
2
2
2
2
2
2
2
2
2
2
2
2
2
2
2
2
2
2
2
2
2
2
2
2
2
2
2
2
2
2
2
2
2
2
2
2
2
2
1.86491
1.46138
1.14294
0.897541
0.708219
0.56048
0.447164
0.368913
0.310029
0.267981
0.24509
0.22975
0.221442
0.219564
0.221467
0.224488
0.225771
0.232025
0.268019
0.357661
0.407387
0.370254
0.3321
0.309675
0.331993
0.576087
1.59738
2
2
2
2
2
2
2
2
2
2
2
2
2
2
2
2
2
2
2
2
2
2
2
2
2
2
2
2
2
2
2
2
2
2
2
2
2
2
2
2
2
2
2
2
2
2
2
2
2
2
2
2
1.86355
1.46242
1.14567
0.897072
0.707592
0.56294
0.447716
0.367722
0.310711
0.268837
0.245108
0.232055
0.223604
0.223426
0.226097
0.230295
0.232466
0.234875
0.262086
0.348619
0.415883
0.385064
0.344067
0.316306
0.334128
0.561745
1.5941
2
2
2
2
2
2
2
2
2
2
2
2
2
2
2
2
2
2
2
2
2
2
2
2
2
2
2
2
2
2
2
2
2
2
2
2
2
2
2
2
2
2
2
2
2
2
2
2
2
2
2
2
2
1.86483
1.46044
1.14701
0.899051
0.706206
0.564212
0.449125
0.366568
0.311163
0.270985
0.245227
0.234869
0.226651
0.227885
0.231328
0.236397
0.239487
0.239675
0.260791
0.335276
0.4187
0.400992
0.356839
0.323784
0.337753
0.549759
1.58687
2
2
2
2
2
2
2
2
2
2
2
2
2
2
2
2
2
2
2
2
2
2
2
2
2
2
2
2
2
2
2
2
2
2
2
2
2
2
2
2
2
2
2
2
2
2
2
2
2
2
2
2
2
2
1.86749
1.45966
1.1462
0.902711
0.705769
0.563017
0.450885
0.366162
0.310698
0.273945
0.246646
0.237937
0.230646
0.232935
0.237118
0.242823
0.246786
0.245907
0.261014
0.321739
0.419062
0.417986
0.370404
0.331871
0.342807
0.541732
1.57022
2
2
2
2
2
2
2
2
2
2
2
2
2
2
2
2
2
2
2
2
2
2
2
2
2
2
2
2
2
2
2
2
2
2
2
2
2
2
2
2
2
2
2
2
2
2
2
2
2
2
2
2
2
2
2
1.8686
1.46291
1.14401
0.904504
0.707302
0.560241
0.451773
0.367793
0.310369
0.277303
0.249023
0.241445
0.235589
0.238586
0.243683
0.249961
0.254336
0.253242
0.262796
0.309016
0.416201
0.43329
0.384513
0.340599
0.34852
0.538821
1.54601
2
2
2
2
2
2
2
2
2
2
2
2
2
2
2
2
2
2
2
2
2
2
2
2
2
2
2
2
2
2
2
2
2
2
2
2
2
2
2
2
2
2
2
2
2
2
2
2
2
2
2
2
2
2
2
2
1.86542
1.46633
1.14358
0.901985
0.709878
0.558572
0.451042
0.372272
0.310206
0.280532
0.252751
0.245685
0.241421
0.245284
0.251336
0.257885
0.262326
0.261369
0.265573
0.298824
0.410247
0.445584
0.398482
0.349507
0.354188
0.541304
1.51652
2
2
2
2
2
2
2
2
2
2
2
2
2
2
2
2
2
2
2
2
2
2
2
2
2
2
2
2
2
2
2
2
2
2
2
2
2
2
2
2
2
2
2
2
2
2
2
2
2
2
2
2
2
2
2
2
2
1.86838
1.46431
1.14856
0.898202
0.710871
0.561367
0.45001
0.377101
0.312549
0.283828
0.257948
0.25091
0.248824
0.253465
0.260097
0.266623
0.27081
0.26968
0.269576
0.29192
0.400232
0.453729
0.411955
0.35871
0.359885
0.548804
1.48614
2
2
2
2
2
2
2
2
2
2
2
2
2
2
2
2
2
2
2
2
2
2
2
2
2
2
2
2
2
2
2
2
2
2
2
2
2
2
2
2
2
2
2
2
2
2
2
2
2
2
2
2
2
2
2
2
2
2
1.88025
1.45956
1.15052
0.899535
0.70872
0.568959
0.449149
0.381475
0.316852
0.287916
0.264572
0.258245
0.258078
0.263166
0.269964
0.276164
0.279765
0.278165
0.275563
0.289435
0.385194
0.457962
0.425041
0.36841
0.366183
0.560311
1.46018
2
2
2
2
2
2
2
2
2
2
2
2
2
2
2
2
2
2
2
2
2
2
2
2
2
2
2
2
2
2
2
2
2
2
2
2
2
2
2
2
2
2
2
2
2
2
2
2
2
2
2
2
1.47987
0.741101
2
2
2
2
2
1.88893
1.47691
1.14814
0.912793
0.706482
0.576666
0.454881
0.385815
0.324411
0.293999
0.274322
0.268358
0.269209
0.274355
0.280901
0.286451
0.289106
0.286759
0.2825
0.288288
0.367321
0.460481
0.437195
0.378153
0.3728
0.574598
1.44386
2
2
2
2
2
2
2
2
2
2
2
2
2
2
2
2
2
2
2
2
2
2
2
2
2
2
2
2
2
2
2
2
2
2
2
2
2
2
2
2
2
2
2
2
2
2
2
2
2
2
2
2
2
1.47968
0.652886
0.616431
2
2
2
2
1.97052
1.51754
1.17409
0.926601
0.722182
0.583275
0.465279
0.392761
0.336121
0.305017
0.287212
0.281176
0.282171
0.286937
0.292823
0.297357
0.298634
0.295324
0.28975
0.288485
0.348702
0.460677
0.446006
0.387631
0.380037
0.591138
1.44105
2
2
2
2
2
2
2
2
2
2
2
2
2
2
2
2
2
2
2
2
2
2
2
2
2
2
2
2
2
2
2
2
2
2
2
2
2
2
2
2
2
2
2
2
2
2
2
2
2
2
2
2
2
2
1.4864
0.656571
0.623762
0.498819
2
2
2
2
1.64765
1.24838
0.965064
0.755414
0.603653
0.488009
0.409275
0.354148
0.321011
0.303128
0.296419
0.29683
0.300766
0.305566
0.308626
0.307983
0.303638
0.296719
0.290333
0.331222
0.449522
0.450645
0.396911
0.388286
0.60938
1.45367
2
2
2
2
2
2
2
2
2
2
2
2
2
2
2
2
2
2
2
2
2
2
2
2
2
2
2
2
2
2
2
2
2
2
2
2
2
2
2
2
2
2
2
2
2
2
2
2
1.9435
2
2
2
2
2
2
1.48401
0.661003
0.624456
0.503044
0.463034
2
2
2
1.89614
1.40023
1.05962
0.819606
0.647047
0.523204
0.43625
0.377567
0.341404
0.321859
0.31375
0.312971
0.315588
0.318795
0.319794
0.317009
0.311399
0.302902
0.2928
0.315953
0.432088
0.453673
0.406751
0.39792
0.62887
1.48119
2
2
2
2
2
2
2
2
2
2
2
2
2
2
2
2
2
2
2
2
2
2
2
2
2
2
2
2
2
2
2
2
2
2
2
2
2
2
2
2
2
2
2
2
2
2
2
2
1.97997
1.57497
2
2
2
2
2
2
1.49272
0.6653
0.625561
0.506414
0.467468
0.450867
2
2
2
1.59091
1.19256
0.909687
0.709689
0.568636
0.470864
0.405592
0.365036
0.342821
0.33273
0.330214
0.330939
0.33192
0.330136
0.325461
0.318246
0.307943
0.295159
0.303483
0.408052
0.455655
0.416303
0.408656
0.649929
1.52169
2
2
2
2
2
2
2
2
2
2
2
2
2
2
2
2
2
2
2
2
2
2
2
2
2
2
2
2
2
2
2
2
2
2
2
2
2
2
2
2
2
2
2
2
2
2
2
2
2
1.60542
1.25973
2
2
2
2
2
2
1.50017
0.669473
0.626391
0.510377
0.470895
0.455445
0.446472
2
2
1.68559
1.30606
1.00117
0.777337
0.618455
0.508636
0.43572
0.390416
0.365088
0.352561
0.347781
0.345966
0.343976
0.339323
0.332872
0.323843
0.311717
0.297084
0.293673
0.381505
0.456084
0.42467
0.420534
0.674252
1.57328
2
2
2
2
2
2
2
2
2
2
2
2
2
2
2
2
2
2
2
2
2
2
2
2
2
2
2
2
2
2
2
2
2
2
2
2
2
2
2
2
2
2
2
2
2
2
2
2
2
1.62629
1.28497
0.989934
2
2
2
2
2
2
1.48445
0.66944
0.627718
0.514413
0.474607
0.458958
0.450643
0.445305
1.39923
1.4941
1.2949
1.04189
0.824203
0.659445
0.542548
0.464159
0.415041
0.386924
0.3718
0.364315
0.359308
0.353679
0.347226
0.338856
0.32802
0.314353
0.298553
0.287867
0.355143
0.452079
0.431216
0.433612
0.700625
1.6325
2
2
2
2
2
2
2
2
2
2
2
2
2
2
2
2
2
2
2
2
2
2
2
2
2
2
2
2
2
2
2
2
2
2
2
2
2
2
2
2
2
2
2
2
2
2
2
2
2
1.64784
1.30185
1.01066
0.758061
2
2
2
2
2
2
1.47533
0.669996
0.629667
0.518902
0.478272
0.462729
0.454042
0.44905
0.442931
0.963046
1.06751
0.966657
0.81296
0.671342
0.561434
0.484538
0.434966
0.405493
0.388145
0.377835
0.369283
0.361726
0.353371
0.343246
0.330902
0.316166
0.299685
0.284943
0.331007
0.442333
0.436568
0.447992
0.730019
1.69709
2
2
2
2
2
2
2
2
2
2
2
2
2
2
2
2
2
2
2
2
2
2
2
2
2
2
2
2
2
2
2
2
2
2
2
2
2
2
2
2
2
2
2
2
2
2
2
2
2
1.66874
1.31952
1.02416
0.774924
0.557512
2
2
2
2
2
2
1.45599
0.670707
0.632282
0.523444
0.482026
0.466502
0.457587
0.452528
0.446356
0.442534
0.68612
0.761152
0.719104
0.635716
0.553569
0.489514
0.445332
0.417305
0.398922
0.386316
0.376713
0.367625
0.357723
0.346211
0.332843
0.317489
0.300627
0.283846
0.310425
0.425154
0.440704
0.463206
0.761822
1.76571
2
2
2
2
2
2
2
2
2
2
2
2
2
2
2
2
2
2
2
2
2
2
2
2
2
2
2
2
2
2
2
2
2
2
2
2
2
2
2
2
2
2
2
2
2
2
2
2
2
1.68951
1.33664
1.03849
0.785623
0.571019
0.382733
2
2
2
2
2
2
1.45028
0.670395
0.636448
0.528019
0.48608
0.470411
0.46115
0.456073
0.449964
0.44588
0.441447
0.535546
0.574805
0.557414
0.516995
0.47599
0.443289
0.420059
0.403915
0.391885
0.381604
0.371519
0.36055
0.348187
0.334243
0.318575
0.301478
0.283742
0.294056
0.401229
0.443621
0.478784
0.795861
1.84169
2
2
2
2
2
2
2
2
2
2
2
2
2
2
2
2
2
2
2
2
2
2
2
2
2
2
2
2
2
2
2
2
2
2
2
2
2
2
2
2
2
2
2
2
2
2
2
2
2
1.70995
1.35363
1.05235
0.79712
0.579369
0.393225
0.230505
2
2
2
2
2
2
1.4386
0.672505
0.641528
0.532756
0.490298
0.474307
0.464879
0.45959
0.453663
0.449584
0.444876
0.439372
0.467849
0.481501
0.473021
0.454476
0.435093
0.418855
0.405811
0.394861
0.384535
0.373925
0.36242
0.349631
0.335392
0.319557
0.302301
0.284103
0.281779
0.373925
0.445524
0.493813
0.832137
1.92443
2
2
2
2
2
2
2
2
2
2
2
2
2
2
2
2
2
2
2
2
2
2
2
2
2
2
2
2
2
2
2
2
2
2
2
2
2
2
2
2
2
2
2
2
2
2
2
2
2
1.73004
1.37036
1.06612
0.808246
0.588445
0.39957
0.238041
0.10188
2
2
2
2
2
2
1.41716
0.673832
0.648329
0.537356
0.495065
0.478231
0.46868
0.463176
0.457385
0.453347
0.448687
0.442969
0.437359
0.441419
0.44288
0.436903
0.426945
0.416367
0.406162
0.396348
0.38628
0.375551
0.36384
0.350846
0.336442
0.320496
0.303116
0.284649
0.273875
0.345941
0.444966
0.507081
0.870515
2
2
2
2
2
2
2
2
2
2
2
2
2
2
2
2
2
2
2
2
2
2
2
2
2
2
2
2
2
2
2
2
2
2
2
2
2
2
2
2
2
2
2
2
2
2
2
2
2
2
1.74967
1.38678
1.07967
0.819284
0.597231
0.406539
0.242531
0.106182
0.025265
2
2
2
2
2
2
1.41483
0.675134
0.655669
0.542527
0.499627
0.482461
0.4726
0.466784
0.461175
0.457145
0.452569
0.4469
0.441195
0.434511
0.43135
0.42798
0.422038
0.414612
0.40626
0.397341
0.387601
0.376898
0.3651
0.351977
0.33745
0.321402
0.30391
0.285252
0.269766
0.319917
0.437441
0.517764
0.910972
2
2
2
2
2
2
2
2
2
2
2
2
2
2
2
2
2
2
2
2
2
2
2
2
2
2
2
2
2
2
2
2
2
2
2
2
2
2
2
2
2
2
2
2
2
2
2
2
2
2
1.76877
1.4028
1.09295
0.83015
0.605954
0.413292
0.247515
0.10873
0.0263818
0.00207172
2
2
2
2
2
2
1.41142
0.67692
0.66295
0.547011
0.504493
0.486548
0.47666
0.470479
0.46505
0.460971
0.456467
0.450881
0.445288
0.4385
0.431988
0.425974
0.420684
0.414329
0.406822
0.398389
0.388878
0.378193
0.366319
0.353083
0.338447
0.322289
0.304656
0.285857
0.268003
0.297509
0.422208
0.526779
0.953785
2
2
2
2
2
2
2
2
2
2
2
2
2
2
2
2
2
2
2
2
2
2
2
2
2
2
2
2
2
2
2
2
2
2
2
2
2
2
2
2
2
2
2
2
2
2
2
2
2
2
1.78724
1.4184
1.10593
0.840808
0.614536
0.42
0.252356
0.111604
0.0270424
0.00214909
2
2
2
2
2
2
1.40569
0.680892
0.670408
0.551134
0.509148
0.490773
0.480818
0.474434
0.469059
0.464841
0.460343
0.454876
0.449401
0.442677
0.436088
0.42856
0.421324
0.415109
0.407834
0.399622
0.39021
0.379505
0.367535
0.354183
0.33943
0.323125
0.305369
0.286426
0.26748
0.279625
0.398401
0.533996
0.997982
2
2
2
2
2
2
2
2
2
2
2
2
2
2
2
2
2
2
2
2
2
2
2
2
2
2
2
2
2
2
2
2
2
2
2
2
2
2
2
2
2
2
2
2
2
2
2
2
2
2
1.80497
1.43346
1.11854
0.851206
0.622953
0.426602
0.257177
0.114415
0.0277929
0.00219387
2
2
2
2
2
2
1.40415
0.683814
0.676976
0.555151
0.513647
0.494875
0.485114
0.478502
0.473234
0.468793
0.464218
0.45885
0.45351
0.446852
0.440329
0.432681
0.424339
0.416461
0.409175
0.401023
0.391616
0.380863
0.368753
0.355274
0.340364
0.323924
0.306009
0.286952
0.267528
0.266356
0.370491
0.539439
1.04209
2
2
2
2
2
2
2
2
2
2
2
2
2
2
2
2
2
2
2
2
2
2
2
2
2
2
2
2
2
2
2
2
2
2
2
2
2
2
2
2
2
2
2
2
2
2
2
2
2
2
1.82187
1.44788
1.13071
0.861319
0.631165
0.433084
0.261928
0.117236
0.0285293
0.00224481
2
2
2
2
2
2
1.40769
0.686308
0.682689
0.55863
0.518033
0.498822
0.489192
0.482637
0.477457
0.47285
0.46815
0.462817
0.457605
0.45104
0.44459
0.43694
0.428481
0.419637
0.410717
0.402544
0.393086
0.382244
0.369959
0.356346
0.341255
0.324647
0.306572
0.287449
0.267852
0.257316
0.340559
0.542289
1.08371
2
2
2
2
2
2
2
2
2
2
2
2
2
2
2
2
2
2
2
2
2
2
2
2
2
2
2
2
2
2
2
2
2
2
2
2
2
2
2
2
2
2
2
2
2
2
2
2
2
2
1.83783
1.46161
1.14235
0.871069
0.639161
0.439409
0.266602
0.120035
0.0292708
0.00229426
2
2
2
2
2
2
1.41058
0.689199
0.686831
0.561361
0.521656
0.502699
0.493154
0.486638
0.481695
0.476944
0.47214
0.466759
0.461654
0.455173
0.44882
0.441263
0.432689
0.423748
0.41385
0.404103
0.394561
0.383598
0.371146
0.357334
0.342063
0.325267
0.307078
0.287967
0.268303
0.25277
0.3128
0.539728
1.12002
2
2
2
2
2
2
2
2
2
2
2
2
2
2
2
2
2
2
2
2
2
2
2
2
2
2
2
2
2
2
2
2
2
2
2
2
2
2
2
2
2
2
2
2
2
2
2
2
2
2
1.85268
1.4745
1.15341
0.880394
0.646862
0.445572
0.271171
0.122804
0.0300086
0.00234365
2
2
2
2
2
2
1.41031
0.692691
0.69038
0.563785
0.524987
0.505774
0.496987
0.490631
0.485872
0.481024
0.476148
0.470661
0.465536
0.459242
0.452971
0.445548
0.436936
0.427856
0.417872
0.40712
0.396
0.384911
0.37225
0.358253
0.342749
0.325801
0.307609
0.28854
0.268835
0.251003
0.289226
0.523143
1.14917
2
2
2
2
2
2
2
2
2
2
2
2
2
2
2
2
2
2
2
2
2
2
2
2
2
2
2
2
2
2
2
2
2
2
2
2
2
2
2
2
2
2
2
2
2
2
2
2
2
2
1.86634
1.48647
1.16378
0.889243
0.654225
0.451508
0.275629
0.125526
0.0307412
0.0023923
2
2
2
2
2
2
1.4099
0.69705
0.692198
0.566638
0.528205
0.508687
0.500243
0.494323
0.489947
0.485064
0.480124
0.474518
0.469343
0.463094
0.457044
0.449722
0.44114
0.431923
0.421821
0.411037
0.398902
0.386141
0.373258
0.359013
0.343323
0.326326
0.30822
0.289162
0.269411
0.250695
0.270931
0.495849
1.17318
2
2
2
2
2
2
2
2
2
2
2
2
2
2
2
2
2
2
2
2
2
2
2
2
2
2
2
2
2
2
2
2
2
2
2
2
2
2
2
2
2
2
2
2
2
2
2
2
2
2
1.87872
1.49738
1.17337
0.897528
0.661211
0.457184
0.27993
0.128195
0.0314622
0.00244006
2
2
2
2
2
2
1.39389
0.702394
0.693124
0.569677
0.531284
0.511551
0.503171
0.497634
0.493645
0.488857
0.484119
0.478284
0.473047
0.466766
0.460866
0.453766
0.445255
0.435947
0.425696
0.414815
0.40259
0.388686
0.374098
0.359653
0.343873
0.326934
0.308906
0.289811
0.270071
0.25103
0.257964
0.462182
1.19196
2
2
2
2
2
2
2
2
2
2
2
2
2
2
2
2
2
2
2
2
2
2
2
2
2
2
2
2
2
2
2
2
2
2
2
2
2
2
2
2
2
2
2
2
2
2
2
2
2
2
1.88969
1.50716
1.18208
0.90517
0.667751
0.462572
0.28405
0.130781
0.0321683
0.00248654
2
2
2
2
2
2
1.39701
0.706617
0.694772
0.573248
0.533976
0.514458
0.506015
0.500762
0.49704
0.492474
0.487814
0.481947
0.476654
0.470216
0.464475
0.457493
0.449174
0.439882
0.429449
0.418435
0.406109
0.392193
0.376228
0.360253
0.344502
0.32765
0.309632
0.290548
0.270747
0.251605
0.24943
0.425438
1.20569
2
2
2
2
2
2
2
2
2
2
2
2
2
2
2
2
2
2
2
2
2
2
2
2
2
2
2
2
2
2
2
2
2
2
2
2
2
2
2
2
2
2
2
2
2
2
2
2
2
2
1.89916
1.5157
1.18982
0.912072
0.673774
0.467615
0.287962
0.133266
0.0328531
0.00253147
2
2
2
2
2
2
1.3677
0.707863
0.69657
0.577607
0.536636
0.517178
0.508862
0.503836
0.500337
0.495868
0.491355
0.485502
0.480085
0.473502
0.467774
0.46094
0.452735
0.443626
0.433013
0.421853
0.409405
0.395512
0.379583
0.362346
0.345252
0.328432
0.310417
0.291307
0.271436
0.25226
0.24595
0.391828
1.2015
2
2
2
2
2
2
2
2
2
2
2
2
2
2
2
2
2
2
2
2
2
2
2
2
2
2
2
2
2
2
2
2
2
2
2
2
2
2
2
2
2
2
2
2
2
2
2
2
2
2
1.90705
1.52289
1.1965
0.918172
0.679204
0.472252
0.291626
0.135631
0.0335117
0.00257434
2
2
2
2
2
2
1.34444
0.709606
0.700126
0.582034
0.53961
0.520159
0.511634
0.506826
0.503592
0.499278
0.494855
0.488971
0.483439
0.476646
0.470861
0.46411
0.456076
0.447092
0.436415
0.425143
0.4126
0.398816
0.383088
0.365866
0.347466
0.329313
0.311259
0.292091
0.272109
0.252929
0.245448
0.365298
1.1644
2
2
2
2
2
2
2
2
2
2
2
2
2
2
2
2
2
2
2
2
2
2
2
2
2
2
2
2
2
2
2
2
2
2
2
2
2
2
2
2
2
2
2
2
2
2
2
2
2
2
1.91328
1.52868
1.20202
0.923384
0.683983
0.476425
0.294988
0.137845
0.034137
0.00261483
2
2
2
2
2
2
1.31932
0.707787
0.706199
0.586796
0.542978
0.523449
0.514658
0.509779
0.506762
0.502646
0.498411
0.492496
0.486858
0.479892
0.473861
0.467093
0.459216
0.450429
0.439775
0.42848
0.415892
0.402258
0.386749
0.369499
0.351015
0.331568
0.312143
0.292861
0.272748
0.253584
0.246433
0.34715
1.10002
2
2
2
2
2
2
2
2
2
2
2
2
2
2
2
2
2
2
2
2
2
2
2
2
2
2
2
2
2
2
2
2
2
2
2
2
2
2
2
2
2
2
2
2
2
2
2
2
2
2
1.91778
1.53299
1.20632
0.927634
0.688048
0.480093
0.298016
0.139877
0.0347183
0.00265245
2
2
2
2
2
2
1.28416
0.703866
0.714028
0.592081
0.546971
0.527015
0.517941
0.512934
0.509901
0.505979
0.501962
0.496105
0.490468
0.483338
0.477044
0.470122
0.462331
0.453753
0.44325
0.432033
0.419391
0.40587
0.39049
0.373349
0.354799
0.33514
0.314268
0.293578
0.273335
0.254221
0.248087
0.337352
1.02173
2
2
2
2
2
2
2
2
2
2
2
2
2
2
2
2
2
2
2
2
2
2
2
2
2
2
2
2
2
2
2
2
2
2
2
2
2
2
2
2
2
2
2
2
2
2
2
2
2
2
1.92048
1.53578
1.20935
0.930855
0.691327
0.483202
0.300672
0.1417
0.0352477
0.00268649
2
2
2
2
2
2
1.23192
0.702406
0.722848
0.597584
0.551614
0.531208