/*--------------------------------*- C++ -*----------------------------------*\
| =========                 |                                                 |
| \\      /  F ield         | OpenFOAM: The Open Source CFD Toolbox           |
|  \\    /   O peration     | Version:  v2012                                 |
|   \\  /    A nd           | Website:  www.openfoam.com                      |
|    \\/     M anipulation  |                                                 |
\*---------------------------------------------------------------------------*/
FoamFile
{
    version     2.0;
    format      ascii;
    class       volScalarField;
    location    "12000";
    object      q4;
}
// * * * * * * * * * * * * * * * * * * * * * * * * * * * * * * * * * * * * * //

dimensions      [0 0 0 0 0 0 0];


internalField   uniform 0;

boundaryField
{
    top
    {
        type            calculated;
        value           uniform 0;
    }
    base
    {
        type            calculated;
        value           nonuniform List<scalar> 
276
(
0.0197431
0.020106
0.0246145
0.0252591
0.0252148
0.0250582
0.0248843
0.0247196
0.0245704
0.0244395
0.0243247
0.0242229
0.0241313
0.0240491
0.0239748
0.0239082
0.0238484
0.0237941
0.0237443
0.0236986
0.0236567
0.0236188
0.0235843
0.0235528
0.0235244
0.0234986
0.0234756
0.0234554
0.0234377
0.0234226
0.0234099
0.0233994
0.0233907
0.023384
0.0233788
0.0233751
0.0233728
0.0233717
0.0233717
0.0233726
0.0233743
0.0233767
0.0233798
0.0233834
0.0233873
0.0233917
0.0233963
0.0234009
0.0234058
0.0234106
0.0234153
0.0234195
0.0234234
0.0234268
0.0234297
0.0234324
0.0234346
0.0234366
0.0234382
0.0234397
0.0234408
0.0234416
0.0234422
0.0234426
0.0234426
0.0234426
0.0234424
0.0234422
0.0234418
0.0234412
0.0234407
0.02344
0.0234393
0.0234387
0.023438
0.0234373
0.0234361
0.0234355
0.0234343
0.0234347
0.0234351
0.0234355
0.0234358
0.0234359
0.0234361
0.0234361
0.0234361
0.0234362
0.0234365
0.0234367
0.0234368
0.0234369
0.0234369
0.0234368
0.0234366
0.0234365
0.0234365
0.0234362
0.0234356
0.0234353
0.0234349
0.0234344
0.0234339
0.0234335
0.0234331
0.0234325
0.0234317
0.023431
0.0234302
0.0234293
0.0234286
0.0234279
0.023427
0.0234259
0.0234248
0.023424
0.0234227
0.0234211
0.0234193
0.0234184
0.0234177
0.023416
0.0234144
0.023413
0.0234115
0.0234096
0.0234067
0.0234067
0.0234055
0.023404
0.0234022
0.0233998
0.0233977
0.0233959
0.023394
0.0233915
0.0233896
0.0233873
0.0233849
0.023382
0.0233798
0.0233776
0.0233739
0.0233713
0.023369
0.0233664
0.0233646
0.0233604
0.0233568
0.0233535
0.0233501
0.0233467
0.0233419
0.0233385
0.0233356
0.0233315
0.0233277
0.0233236
0.0233196
0.0233142
0.0233094
0.0233057
0.0233014
0.0232973
0.0232911
0.023285
0.0232809
0.023276
0.02327
0.0232645
0.0232585
0.023253
0.0232465
0.0232424
0.0232197
0.0223671
0.0137935
0.00976355
0.0136372
0.0147939
0.0150386
0.0153151
0.0157271
0.0161059
0.0164268
0.016732
0.0169684
0.0171407
0.0175669
0.0188582
0.0212476
0.0234182
0.0236022
0.0232528
0.0219011
0.019587
0.0162667
0.0118416
0.00483928
0.0102746
0.0160335
0.0205183
0.0242924
0.0274582
0.0300756
0.032226
0.0340442
0.0358066
0.0376189
0.0395062
0.0413838
0.0431981
0.0449271
0.046564
0.048109
0.0495642
0.0509407
0.0522421
0.0534754
0.0546491
0.0557711
0.0568469
0.057877
0.0588568
0.0597809
0.0606439
0.0614409
0.0621715
0.0628383
0.0634412
0.0640024
0.0645418
0.0650738
0.0656016
0.0661181
0.0666299
0.0671327
0.0676111
0.0680553
0.0684598
0.0688268
0.0691598
0.0694664
0.0697504
0.0700251
0.0703007
0.0707529
0.0709475
0.0711464
0.0716866
0.0718215
0.0719503
0.0721686
0.0722898
0.0723389
0.0723122
0.0721987
0.0719989
0.0717155
0.0713562
0.0709289
0.0704418
0.0699009
0.0693147
0.0686893
0.0680322
0.0673478
0.0666398
0.0659126
0.0651695
0.064413
0.063645
0.0628747
0.0620722
0.0614315
0.0600889
)
;
    }
    frontAndBack
    {
        type            empty;
    }
    inlet
    {
        type            calculated;
        value           uniform 0;
    }
    outlet
    {
        type            calculated;
        value           uniform 0;
    }
}


// ************************************************************************* //
