/*--------------------------------*- C++ -*----------------------------------*\
| =========                 |                                                 |
| \\      /  F ield         | OpenFOAM: The Open Source CFD Toolbox           |
|  \\    /   O peration     | Version:  v2012                                 |
|   \\  /    A nd           | Website:  www.openfoam.com                      |
|    \\/     M anipulation  |                                                 |
\*---------------------------------------------------------------------------*/
FoamFile
{
    version     2.0;
    format      ascii;
    class       volScalarField;
    location    "12000";
    object      Rekd;
}
// * * * * * * * * * * * * * * * * * * * * * * * * * * * * * * * * * * * * * //

dimensions      [0 0 0 0 0 0 0];


internalField   nonuniform List<scalar> 
27324
(
122.399
125.275
280.746
126.254
283.393
271.584
126.802
279.803
270.653
196.669
126.568
273.869
263.877
193.257
117.836
124.857
264.637
254.922
185.882
113.743
64.8329
122.004
250.221
242.841
177.298
107.495
61.7846
35.1561
118.607
231.746
226.478
167.005
101.012
57.7562
33.3743
19.8123
114.801
210.9
206.99
155.479
94.1896
53.9015
31.1609
18.931
12.1559
107.194
188.112
186
143.651
88.2392
50.1481
29.1411
17.8473
11.8218
8.2055
88.1996
158.38
164.302
131.965
83.3787
47.3615
27.2412
16.9028
11.3795
8.12183
5.9223
58.0407
117.594
138.414
120.311
78.9751
45.4604
25.9283
16.0494
11.0162
7.95696
5.91644
4.4477
31.4759
76.2779
105.931
106.063
74.2914
43.8596
25.1234
15.4996
10.7013
7.8215
5.84386
4.45848
3.40085
21.2246
48.0793
71.6501
85.8471
68.1208
42.0052
24.4931
15.194
10.5199
7.70107
5.77893
4.41877
3.40761
2.6376
19.246
37.9982
47.5736
62.709
57.3866
39.3568
23.7406
14.954
10.4347
7.64146
5.71704
4.38189
3.37702
2.63838
2.05522
18.8501
36.0176
37.8165
46.6695
46.0594
34.0526
22.3626
14.6471
10.3597
7.61951
5.69119
4.34569
3.35023
2.61353
2.0497
1.61697
18.7154
35.618
35.5209
40.0098
38.4078
29.413
19.6276
13.6901
10.1898
7.58623
5.68152
4.33235
3.32307
2.59725
2.0252
1.60878
1.289
18.6734
35.4823
34.845
38.1274
35.0758
26.7612
17.5896
12.0718
9.37426
7.41843
5.65324
4.32664
3.308
2.58039
2.01215
1.58786
1.28434
1.04852
18.5968
35.4316
34.3978
37.3671
33.9538
25.454
16.7063
10.955
8.27535
6.6809
5.43217
4.28754
3.29812
2.56407
1.99746
1.57697
1.26896
1.04674
0.882384
18.49
35.2724
33.9888
36.7838
33.3627
25.034
16.0039
10.4478
7.68927
5.93123
4.79421
3.96659
3.21545
2.54064
1.97032
1.56421
1.25131
1.03084
0.878582
0.74817
18.3377
35.0142
33.5146
36.3516
32.888
24.7535
15.7802
9.95243
7.46828
5.6977
4.32275
3.44318
2.85663
2.35725
1.89528
1.51485
1.22194
0.984138
0.865841
0.705118
0.666685
18.138
34.6356
33.0177
35.9329
32.575
24.492
15.6518
9.57883
7.0931
5.69488
4.3098
3.20405
2.49087
2.02047
1.6631
1.35084
1.09915
0.903796
0.758116
0.633341
0.551388
0.503124
17.9092
34.1505
32.5123
35.5603
32.3024
24.291
15.5223
9.49553
6.6309
5.4328
4.4404
3.30439
2.42909
1.83912
1.44163
1.15259
0.930735
0.761393
0.631252
0.532855
0.463098
0.419537
0.450595
17.6691
33.6126
32.0215
35.2279
32.0673
24.0725
15.3865
9.44604
6.5411
5.05926
4.27531
3.48977
2.57131
1.87815
1.40866
1.07994
0.84719
0.681338
0.561953
0.477829
0.421822
0.388258
0.387932
0.474443
17.4362
33.0738
31.5765
34.925
31.8409
23.848
15.2133
9.39037
6.5226
4.91656
3.96063
3.39281
2.78642
2.02688
1.48237
1.11153
0.852653
0.672588
0.547654
0.463435
0.410021
0.379938
0.368987
0.413919
0.533926
17.2254
32.5878
31.1939
34.6599
31.5975
23.6074
15.0296
9.31505
6.51034
4.89558
3.75924
3.11193
2.76283
2.22016
1.60554
1.18852
0.89952
0.700889
0.563312
0.471943
0.414217
0.380802
0.365571
0.381115
0.4771
0.586756
17.0448
32.1976
30.8778
34.4179
31.3287
23.3493
14.8396
9.23689
6.48802
4.88873
3.73173
2.91455
2.53586
2.24933
1.751
1.27984
0.956692
0.739181
0.588948
0.488466
0.423956
0.385915
0.365801
0.363283
0.429689
0.546128
0.652692
16.8929
31.9146
30.6141
34.173
31.0192
23.075
14.6626
9.16066
6.46356
4.87714
3.72584
2.85963
2.33379
2.09748
1.81451
1.37828
1.01741
0.778364
0.615672
0.506235
0.434854
0.391277
0.367677
0.357445
0.390245
0.501546
0.605792
0.806486
16.7588
31.7146
30.3648
33.895
30.6591
22.7886
14.496
9.09815
6.43967
4.86483
3.72138
2.85299
2.23853
1.90052
1.74651
1.44332
1.07923
0.818083
0.6426
0.524838
0.446679
0.397835
0.369836
0.356329
0.363965
0.452669
0.566647
0.718349
1.16382
16.6249
31.5471
30.0893
33.5481
30.2591
22.4984
14.3372
9.04445
6.42145
4.8528
3.71732
2.85223
2.22402
1.78661
1.58073
1.44643
1.13491
0.859491
0.66977
0.544163
0.459709
0.405784
0.373346
0.356612
0.35183
0.407731
0.525844
0.652182
0.991557
1.88339
16.4554
31.3462
29.7602
33.1178
29.8415
22.2074
14.1869
8.99523
6.40723
4.84348
3.71419
2.85198
2.22197
1.75121
1.44668
1.33849
1.18227
0.903373
0.697933
0.563547
0.473695
0.415008
0.378236
0.35779
0.348027
0.373
0.479909
0.599329
0.856229
1.57261
3.20896
16.2417
31.0556
29.3677
32.6271
29.4169
21.9291
14.0431
8.94931
6.39554
4.83541
3.71372
2.85226
2.22201
1.7468
1.38632
1.20095
1.13355
0.947591
0.727574
0.582322
0.487871
0.425267
0.384392
0.35988
0.347372
0.350997
0.432702
0.554186
0.749684
1.31799
2.67563
5.53692
15.9803
30.6589
28.8882
32.1201
28.9969
21.6637
13.9019
8.90594
6.38558
4.82768
3.71441
2.85495
2.22277
1.74646
1.37312
1.11713
1.02676
0.941486
0.756332
0.60058
0.501296
0.4361
0.391696
0.363395
0.347524
0.341503
0.390643
0.510733
0.666959
1.10903
2.22866
4.64883
9.48677
15.6796
30.1362
28.3676
31.6083
28.5953
21.4084
13.7664
8.86368
6.3758
4.81967
3.71542
2.8589
2.22578
1.74708
1.37113
1.08351
0.924469
0.888777
0.773559
0.61917
0.51344
0.446881
0.399936
0.368016
0.348696
0.338488
0.358682
0.465068
0.602106
0.940193
1.85204
3.89175
8.05388
16.0565
15.3629
29.5306
27.8596
31.1675
28.2174
21.1573
13.6411
8.82518
6.36444
4.81077
3.71623
2.86327
2.23006
1.74944
1.3715
1.0785
0.871018
0.795902
0.763155
0.637088
0.524856
0.456781
0.408726
0.373879
0.350745
0.337906
0.339209
0.419367
0.5491
0.8057
1.53781
3.24218
6.81059
13.8173
26.6996
15.0591
28.9083
27.4006
30.8197
27.8691
20.8921
13.5286
8.79223
6.35177
4.80067
3.71662
2.86754
2.23457
1.75291
1.37293
1.07802
0.850965
0.719772
0.707461
0.646793
0.536405
0.465088
0.417446
0.380683
0.354176
0.338096
0.330883
0.378999
0.501905
0.700232
1.27787
2.68997
5.72523
11.835
23.3085
43.7732
14.7948
28.3409
27.0195
30.5485
27.5137
20.6185
13.4173
8.76647
6.33906
4.7907
3.71641
2.87137
2.23873
1.75664
1.37554
1.07876
0.848846
0.682945
0.630301
0.62803
0.546211
0.471907
0.42519
0.388186
0.358814
0.339618
0.328429
0.347786
0.456001
0.618071
1.06546
2.22355
4.78679
10.078
20.2364
38.8043
70.8578
14.5832
27.8552
26.7346
30.3118
27.1481
20.3221
13.3125
8.74248
6.32853
4.78157
3.71654
2.87468
2.24226
1.75997
1.37853
1.08011
0.848628
0.67028
0.570485
0.580109
0.549069
0.478255
0.431112
0.395889
0.364623
0.342016
0.328169
0.328104
0.41063
0.553254
0.894149
1.83278
3.98068
8.53367
17.4711
34.1795
63.7884
113.17
14.4083
27.5163
26.5034
30.0808
26.7615
20.0133
13.2176
8.72248
6.31581
4.77408
3.71708
2.87791
2.24514
1.7626
1.3812
1.0821
0.848916
0.669029
0.541503
0.515379
0.532234
0.482759
0.435205
0.403062
0.37139
0.345824
0.328718
0.31907
0.37046
0.499567
0.758435
1.50752
3.2945
7.1832
15.0041
29.9484
57.0189
103.361
177.989
14.2576
27.2765
26.3449
29.831
26.3566
19.7096
13.1338
8.70447
6.30334
4.76812
3.7189
2.8814
2.24785
1.76462
1.38326
1.08405
0.849909
0.668839
0.53087
0.464416
0.490943
0.483234
0.438529
0.408813
0.378805
0.350791
0.330167
0.316146
0.33839
0.451679
0.652469
1.23971
2.71467
6.01051
12.8152
26.1075
50.7257
93.7011
164.71
275.079
14.1116
27.0743
26.1625
29.5533
25.9391
19.4241
13.0637
8.6895
6.29214
4.76381
3.72077
2.88594
2.25084
1.76649
1.38478
1.08565
0.85099
0.668842
0.52943
0.438405
0.435388
0.469694
0.441014
0.41251
0.386277
0.356901
0.332715
0.315767
0.316485
0.406554
0.570362
1.02176
2.22676
4.9988
10.8862
22.6419
44.9147
84.6065
151.261
257.567
417.034
13.9523
26.8513
25.9304
29.2061
25.5381
19.1566
13.0042
8.67941
6.28236
4.76126
3.72401
2.89072
2.25478
1.76866
1.38626
1.08689
0.852159
0.6694
0.529016
0.427184
0.388054
0.43667
0.441321
0.414639
0.392873
0.363833
0.336526
0.316177
0.30519
0.365693
0.505924
0.847132
1.81905
4.13551
9.19521
19.5366
39.5772
76.0853
138.477
239.299
394.662
619.111
13.7576
26.5695
25.6385
28.8265
25.1389
18.9242
12.9494
8.6722
6.27487
4.76076
3.72807
2.89618
2.25908
1.77165
1.38793
1.08813
0.853233
0.670364
0.529016
0.425423
0.361616
0.389018
0.432483
0.416325
0.397599
0.371253
0.341479
0.317549
0.300849
0.331818
0.453085
0.709713
1.48135
3.40285
7.72099
16.7688
34.7075
68.1352
126.357
221.798
370.506
591.808
896.556
13.5301
26.2327
25.3112
28.4183
24.7573
18.7135
12.9024
8.66519
6.26849
4.76266
3.73361
2.90223
2.26412
1.7755
1.39033
1.08947
0.85427
0.671616
0.529296
0.425139
0.350248
0.343073
0.407806
0.416486
0.400158
0.37851
0.347554
0.319942
0.299918
0.306439
0.407035
0.603476
1.20452
2.78538
6.44346
14.3181
30.2882
60.759
114.908
205.053
347.181
561.026
865.834
1255.56
13.2767
25.8486
24.9624
27.9883
24.3749
18.5134
12.8489
8.65715
6.26223
4.76619
3.7409
2.90922
2.26997
1.78023
1.39359
1.09143
0.855506
0.672935
0.530323
0.425284
0.347955
0.313254
0.368576
0.412424
0.401354
0.384683
0.35445
0.32359
0.300172
0.291197
0.36539
0.522437
0.980295
2.26855
5.34357
12.1583
26.3055
53.9459
104.136
189.089
324.662
530.975
829.005
1226.5
1671.28
13.025
25.4724
24.6276
27.5256
23.9821
18.3216
12.7925
8.63801
6.25598
4.77045
3.74876
2.91726
2.27652
1.78561
1.39759
1.09435
0.857155
0.674347
0.531701
0.426261
0.347919
0.299427
0.324022
0.397394
0.402115
0.388838
0.361897
0.328518
0.301124
0.283994
0.329639
0.460195
0.801732
1.83917
4.40275
10.2663
22.7352
47.6923
94.033
173.913
303.026
501.618
792.456
1187.36
1653.37
2071.43
12.818
25.1446
24.3243
27.0655
23.5662
18.1415
12.7404
8.61127
6.24451
4.77579
3.75661
2.92467
2.28356
1.79143
1.40218
1.09784
0.859534
0.676078
0.533299
0.427622
0.348341
0.295106
0.288451
0.368098
0.400212
0.390853
0.369347
0.33443
0.303183
0.281532
0.301089
0.410563
0.662763
1.48504
3.60418
8.61792
19.5534
41.9801
84.6085
159.518
282.305
473.137
756.113
1147.54
1620.48
2079.03
2341.34
12.6515
24.8788
24.0225
26.5774
23.1394
17.966
12.6986
8.58172
6.2311
4.77857
3.76427
2.93109
2.28978
1.79743
1.40705
1.10176
0.862393
0.678187
0.534995
0.429251
0.34927
0.294912
0.268382
0.32813
0.393436
0.391703
0.375888
0.341309
0.30641
0.281133
0.280822
0.368856
0.557915
1.19464
2.93106
7.18875
16.7338
36.7924
75.8523
145.917
262.497
445.614
720.294
1106.82
1586.08
2066.06
2378.98
2419.7
12.5123
24.6765
23.7052
26.0609
22.708
17.8065
12.6582
8.55556
6.21883
4.78084
3.77023
2.93634
2.29473
1.80256
1.41173
1.10576
0.865548
0.68052
0.536683
0.430869
0.350459
0.295315
0.259507
0.287875
0.374897
0.391955
0.380533
0.348811
0.310876
0.281492
0.269008
0.332782
0.479448
0.959434
2.3685
5.95719
14.245
32.1078
67.7618
133.105
243.625
419.102
685.174
1065.72
1549.68
2050.82
2393.71
2479.18
2325.42
12.3623
24.4646
23.362
25.5303
22.3068
17.6732
12.6249
8.53042
6.21131
4.78389
3.77515
2.93922
2.298
1.80627
1.41561
1.10939
0.868611
0.682942
0.538297
0.432245
0.3517
0.295741
0.257564
0.258367
0.344209
0.389757
0.383051
0.356576
0.316332
0.282891
0.263446
0.302458
0.421092
0.774194
1.90321
4.90121
12.0597
27.8953
60.3262
121.094
225.681
393.679
650.891
1024.45
1511.45
2031.96
2407.42
2517.08
2394.23
2123.88
12.1833
24.1758
22.9307
24.9963
21.9485
17.5667
12.5911
8.50351
6.20694
4.78971
3.78005
2.94088
2.29979
1.80833
1.4182
1.11236
0.871207
0.685198
0.539794
0.433355
0.352745
0.296332
0.257494
0.242304
0.305402
0.382482
0.384251
0.363843
0.322708
0.285403
0.261533
0.278522
0.376664
0.631723
1.52109
4.00171
10.1474
24.1277
53.5196
109.888
208.679
369.353
617.636
983.264
1471.54
2010.16
2418.18
2555.56
2444.56
2192.64
1875.37
11.9717
23.7956
22.4428
24.4798
21.6582
17.4727
12.5566
8.47689
6.20595
4.79654
3.7862
2.94248
2.30095
1.80915
1.41928
1.11422
0.873283
0.68702
0.541126
0.434216
0.353528
0.297097
0.257674
0.235132
0.268184
0.364516
0.384976
0.369655
0.329759
0.289108
0.261193
0.261946
0.341258
0.525376
1.21123
3.23995
8.48237
20.7705
47.3207
99.4765
192.636
346.162
585.529
942.433
1430.18
1985.43
2426.57
2592.5
2496.62
2246.25
1938.88
1619.59
11.7223
23.3573
21.9332
24.005
21.4175
17.4024
12.5147
8.45149
6.20844
4.806
3.7934
2.94567
2.30242
1.80963
1.41935
1.11501
0.874503
0.688478
0.542284
0.434944
0.354112
0.297909
0.25809
0.233791
0.241398
0.335016
0.38343
0.373406
0.337338
0.293863
0.261568
0.252307
0.311784
0.448599
0.963755
2.60063
7.03836
17.7932
41.6929
89.8523
177.557
324.13
554.693
902.223
1387.67
1957.74
2432.35
2628.58
2548.39
2302.09
1990.2
1675.73
1378.17
11.4613
22.8606
21.4229
23.5686
21.2075
17.3262
12.4604
8.42452
6.21544
4.81773
3.80195
2.95068
2.30525
1.81053
1.41929
1.11492
0.875191
0.689369
0.543277
0.435723
0.354628
0.298653
0.258782
0.23385
0.22666
0.298099
0.377589
0.375491
0.345007
0.29931
0.26398
0.247833
0.287373
0.394903
0.770483
2.06931
5.79355
15.1603
36.6057
80.9841
163.465
303.257
525.225
862.925
1344.29
1927.27
2435.14
2663.47
2600.56
2358.43
2043.78
1722.09
1426.53
1161.03
11.1934
22.3762
20.9514
23.1665
21.0196
17.239
12.3817
8.39733
6.22327
4.83183
3.81165
2.95671
2.31019
1.8128
1.41969
1.11475
0.875523
0.690124
0.544115
0.436624
0.355214
0.299323
0.259677
0.234169
0.219904
0.262087
0.362687
0.376891
0.35201
0.305447
0.267185
0.246075
0.268334
0.356202
0.618478
1.63362
4.72592
12.8408
32.0182
72.8444
150.352
283.592
497.163
824.832
1300.39
1894.12
2434.86
2697.08
2652.84
2415.94
2098.19
1770.54
1467.05
1202.07
971.401
10.9179
21.8982
20.5234
22.8118
20.8451
17.1431
12.2829
8.35962
6.23274
4.84516
3.82201
2.96374
2.31614
1.8173
1.42126
1.11518
0.875775
0.690792
0.545018
0.43759
0.356016
0.299965
0.260615
0.234764
0.218609
0.235034
0.335658
0.377294
0.357399
0.312176
0.271514
0.245682
0.255201
0.326814
0.509143
1.28222
3.81693
10.8014
27.897
65.3896
138.217
265.161
470.58
788.141
1256.4
1858.48
2431.37
2729.22
2705.3
2474.41
2154.02
1819.9
1509.38
1236.75
1005.9
808.887
10.6318
21.405
20.1264
22.4973
20.6909
17.0376
12.1746
8.31835
6.23858
4.85845
3.83091
2.97109
2.32286
1.82255
1.42478
1.11648
0.876433
0.691426
0.545945
0.438598
0.356977
0.300615
0.261453
0.235546
0.218637
0.218991
0.301395
0.373963
0.360894
0.319515
0.276494
0.247553
0.247545
0.303275
0.432915
1.0033
3.04949
9.01424
24.2009
58.5836
127.018
248.012
445.509
753.056
1212.7
1820.65
2424.65
2759.75
2757.8
2533.81
2211.11
1870.69
1552.58
1272.95
1035.19
837.714
671.318
10.337
20.8759
19.7584
22.2285
20.5516
16.9251
12.0604
8.28192
6.24387
4.86725
3.83712
2.97673
2.32968
1.82813
1.42884
1.11917
0.877526
0.692151
0.546902
0.439617
0.35801
0.301275
0.262149
0.236438
0.218912
0.211085
0.265691
0.363686
0.363294
0.327162
0.28205
0.250937
0.243919
0.284014
0.381758
0.787529
2.4071
7.45406
20.8941
52.3813
116.723
232.147
422.052
719.696
1169.75
1780.96
2414.75
2788.48
2810.24
2594.07
2269.49
1922.77
1597.08
1309.95
1065.76
862.26
695.325
555.842
10.0271
20.2982
19.4138
22.0062
20.4177
16.8017
11.9464
8.24907
6.25081
4.87315
3.83963
2.98042
2.33488
1.83348
1.43301
1.12226
0.879461
0.69297
0.547756
0.440609
0.358958
0.301961
0.262726
0.23722
0.219312
0.208757
0.236596
0.341852
0.365131
0.334331
0.288161
0.255695
0.242419
0.269088
0.347927
0.626183
1.87701
6.09782
17.9397
46.7432
107.277
217.566
400.285
688.21
1127.89
1739.92
2401.66
2815.32
2862.43
2655.13
2329.05
1976.16
1642.8
1348.1
1097.02
887.854
715.782
575.779
459.458
9.70894
19.703
19.1072
21.822
20.2834
16.6593
11.8344
8.22542
6.26052
4.87789
3.84042
2.98153
2.33806
1.83738
1.43661
1.12538
0.881406
0.693937
0.548352
0.441382
0.359696
0.302678
0.263213
0.237833
0.219984
0.208478
0.217526
0.311855
0.364735
0.340247
0.294867
0.261134
0.242019
0.258973
0.323423
0.5083
1.44702
4.92784
15.2997
41.6268
98.6426
204.217
380.308
658.74
1087.47
1698.1
2385.53
2840.1
2914.21
2716.87
2389.81
2030.83
1689.73
1387.3
1129.26
914.044
737.094
592.769
475.989
379.332
9.39764
19.1091
18.8419
21.6718
20.1328
16.4884
11.7205
8.20844
6.27488
4.88291
3.8403
2.98131
2.33971
1.83959
1.43919
1.12784
0.883186
0.694703
0.54873
0.441681
0.360265
0.303361
0.263643
0.238276
0.220791
0.208653
0.207102
0.278086
0.359798
0.344491
0.302168
0.267044
0.245229
0.253195
0.304007
0.430698
1.10687
3.92645
12.9431
36.9811
90.7859
192.047
362.138
631.517
1048.78
1656.18
2366.52
2862.75
2965.33
2779.11
2451.66
2086.75
1737.84
1427.58
1162.41
941.048
758.91
610.455
490.062
393.015
312.911
9.08676
18.5428
18.6258
21.5443
19.9735
16.2869
11.6039
8.19419
6.29135
4.88923
3.84102
2.98128
2.34075
1.84077
1.44039
1.12958
0.884516
0.695343
0.549051
0.441745
0.360553
0.303957
0.264083
0.238624
0.221556
0.209028
0.202679
0.24723
0.345802
0.347407
0.310045
0.273524
0.249594
0.250355
0.288081
0.382371
0.845634
3.0791
10.8398
32.7592
83.6665
181.014
345.764
606.752
1012.23
1614.56
2344.93
2883.15
3015.61
2841.71
2514.47
2143.82
1787.13
1468.91
1196.48
968.828
781.412
628.566
504.709
404.659
324.222
257.966
8.78076
18.0157
18.4394
21.4279
19.8057
16.0632
11.4886
8.17974
6.30749
4.89561
3.84363
2.98251
2.34211
1.84172
1.44131
1.13046
0.88559
0.696142
0.549393
0.441652
0.360787
0.304431
0.264581
0.238941
0.222197
0.209815
0.201754
0.223794
0.321929
0.349729
0.318308
0.280526
0.255443
0.249116
0.27587
0.352618
0.653936
2.37097
8.96871
28.9087
77.252
171.078
331.116
584.637
978.175
1573.54
2321.2
2901.27
3064.78
2904.39
2578.12
2201.97
1837.5
1511.24
1231.43
997.373
804.557
647.247
519.706
416.764
333.84
267.304
212.587
8.49747
17.5319
18.2722
21.2985
19.6242
15.826
11.3739
8.16605
6.3211
4.90173
3.84718
2.98525
2.34438
1.84342
1.44248
1.13141
0.886377
0.696928
0.549883
0.441659
0.360937
0.304858
0.265078
0.239318
0.222719
0.210759
0.201787
0.208665
0.293456
0.347512
0.326274
0.288018
0.262113
0.250868
0.26782
0.332523
0.522194
1.79079
7.31094
25.3864
71.4933
162.235
318.091
565.26
947.145
1533.52
2295.87
2917.17
3112.61
2966.97
2642.42
2261.1
1888.89
1554.55
1267.26
1026.67
828.338
666.456
535.176
429.165
343.835
275.239
220.29
175.159
8.2364
17.1041
18.1273
21.1423
19.421
15.5863
11.2625
8.15245
6.33012
4.9057
3.85173
2.98858
2.34732
1.84557
1.44419
1.13259
0.887442
0.697679
0.550589
0.441808
0.361136
0.305178
0.265535
0.239817
0.223169
0.21171
0.202138
0.20006
0.263932
0.341096
0.333273
0.295917
0.269511
0.254456
0.26318
0.316053
0.437624
1.32809
5.85406
22.1477
66.3472
154.469
306.654
548.527
919.726
1495.05
2269.29
2930.83
3158.98
3029.15
2707.22
2321.04
1941.21
1598.76
1303.9
1056.69
852.744
686.203
551.083
441.956
354.075
283.481
226.826
181.501
144.325
7.99854
16.7519
18.023
20.9451
19.1881
15.3436
11.1597
8.13979
6.33306
4.90738
3.85564
2.99292
2.35034
1.84772
1.44604
1.13395
0.888608
0.698487
0.551452
0.442183
0.361406
0.305376
0.265904
0.240376
0.223569
0.212402
0.202671
0.196536
0.23836
0.327125
0.337936
0.304469
0.277515
0.26003
0.260726
0.301877
0.391383
0.974018
4.58533
19.1577
61.7674
147.762
296.803
534.302
896.312
1459.03
2241.69
2942.26
3203.81
3090.67
2772.27
2381.68
1994.35
1643.79
1341.32
1087.4
877.757
706.46
567.433
455.107
364.637
291.928
233.616
186.879
149.537
118.952
7.77212
16.4668
17.9667
20.72
18.9173
15.1
11.0657
8.12748
6.33261
4.90559
3.85874
2.99732
2.35393
1.84972
1.44746
1.13533
0.889921
0.699304
0.552233
0.442816
0.361773
0.305467
0.266155
0.24097
0.223929
0.21288
0.203742
0.195644
0.219188
0.305546
0.34041
0.314245
0.286132
0.266952
0.260366
0.290497
0.366423
0.719736
3.49481
16.3811
57.7274
142.073
288.589
522.433
877.033
1426.59
2213.36
2951.62
3247.1
3151.39
2837.34
2442.76
2048.17
1689.56
1379.45
1118.76
903.347
727.221
584.214
468.625
375.499
300.643
240.577
192.466
153.955
123.225
98.0945
7.54557
16.2103
17.9323
20.4739
18.6149
14.861
10.9737
8.11718
6.33014
4.90325
3.85943
3.00114
2.35801
1.85157
1.44841
1.1364
0.891184
0.700102
0.552937
0.443352
0.36224
0.305519
0.266368
0.241481
0.224317
0.213222
0.204894
0.19563
0.206459
0.281619
0.33786
0.324853
0.295291
0.274796
0.261989
0.282862
0.351086
0.554796
2.57469
13.7894
54.2095
137.365
282.036
512.918
861.661
1398.98
2185.01
2958.67
3288.9
3211.19
2902.13
2504.06
2102.48
1735.95
1418.21
1150.72
929.469
748.458
601.405
482.5
386.663
309.603
247.757
198.193
158.542
126.844
101.586
80.9687
7.31383
15.9477
17.8888
20.2109
18.2892
14.6352
10.8833
8.10417
6.32785
4.90207
3.85837
3.00327
2.36169
1.85397
1.4493
1.13687
0.892217
0.700951
0.553579
0.443781
0.362676
0.305644
0.266527
0.24186
0.224747
0.213523
0.20588
0.196087
0.198957
0.257908
0.330726
0.335105
0.304895
0.283454
0.265917
0.278578
0.336925
0.462262
1.82275
11.3583
51.2163
133.602
277.135
505.836
849.9
1376.88
2158.17
2962.82
3329.11
3269.79
2966.29
2565.25
2157.05
1782.78
1457.5
1183.21
956.1
770.146
618.994
496.712
398.118
318.815
255.144
204.104
163.249
130.604
104.544
83.8117
66.9231
7.0718
15.639
17.8108
19.9275
17.9485
14.4249
10.7969
8.08602
6.32434
4.90182
3.8578
3.00381
2.36475
1.85682
1.45037
1.13705
0.892797
0.70178
0.554347
0.444096
0.363083
0.30586
0.266661
0.242156
0.225241
0.213843
0.206584
0.197609
0.196232
0.237576
0.31825
0.343475
0.315068
0.292861
0.271592
0.276222
0.323299
0.421568
1.24746
9.06345
48.7617
130.78
273.838
501.298
841.59
1360.2
2134.87
2963.59
3367.02
3326.95
3029.38
2625.95
2211.57
1829.87
1497.19
1216.16
983.173
792.244
636.948
511.254
409.859
328.269
262.738
210.185
168.108
134.465
107.616
86.2181
69.2258
55.4155
6.79422
15.2684
17.6831
19.6195
17.5992
14.2256
10.7146
8.06303
6.31865
4.90325
3.85753
3.00354
2.36613
1.85931
1.45249
1.13742
0.892865
0.702501
0.555322
0.444449
0.363391
0.306188
0.266894
0.242357
0.225642
0.214177
0.207076
0.19969
0.195628
0.222596
0.302192
0.348234
0.326131
0.30299
0.278884
0.27677
0.311508
0.404507
0.865242
6.88243
46.8692
128.905
272.096
499.292
836.828
1348.32
2116.54
2961.71
3401.1
3382.3
3090.74
2685.48
2265.59
1876.93
1537.13
1249.46
1010.63
814.719
655.251
526.099
421.867
337.955
270.531
216.439
173.108
138.451
110.774
88.7196
71.1743
57.2693
45.9951
6.47753
14.8044
17.512
19.3081
17.2517
14.0315
10.6358
8.03841
6.31141
4.90359
3.85956
3.00364
2.36542
1.86104
1.45518
1.13826
0.892835
0.702882
0.556372
0.444946
0.363675
0.30657
0.267212
0.242402
0.225945
0.214863
0.207481
0.202169
0.196202
0.213031
0.283145
0.349018
0.33817
0.313809
0.287328
0.278027
0.303051
0.394397
0.678399
4.79077
45.5821
127.998
271.878
499.7
835.723
1340.74
2102.97
2959.28
3429.56
3433.9
3149.36
2743.27
2318.74
1923.69
1577.1
1283
1038.41
837.523
673.865
541.232
434.131
347.864
278.517
222.858
178.252
142.557
114.038
91.2949
73.2022
58.8378
47.4769
38.2856
6.13541
14.2515
17.2938
19.0144
16.9323
13.8387
10.5621
8.01204
6.30444
4.9021
3.86078
3.00581
2.36521
1.86056
1.45714
1.14041
0.893211
0.702833
0.557316
0.445751
0.36398
0.306833
0.267644
0.242536
0.226164
0.215572
0.208027
0.20446
0.197326
0.207971
0.264966
0.343188
0.35102
0.325301
0.296694
0.281397
0.29778
0.382584
0.626653
2.82011
44.9612
128.083
273.153
502.306
838.154
1337.34
2092.56
2958.34
3450.46
3478.79
3205.14
2799.02
2370.68
1969.87
1616.9
1316.59
1066.38
860.59
692.761
556.619
446.63
357.983
286.689
229.438
183.534
146.781
117.4
93.958
75.2926
60.4717
48.7308
39.4612
31.9727
5.79568
13.6292
17.0372
18.7269
16.6479
13.6532
10.4927
7.98622
6.29733
4.89838
3.86112
3.00825
2.36575
1.85959
1.45757
1.14247
0.894323
0.70268
0.557947
0.446645
0.364404
0.306971
0.26802
0.242822
0.226226
0.216399
0.208838
0.206583
0.200523
0.206285
0.249874
0.332811
0.362648
0.337369
0.306956
0.286555
0.295501
0.370118
0.61967
1.55152
45.0733
129.172
275.746
506.382
842.862
1337.84
2083.67
2954.66
3464.64
3515.11
3257.12
2852.63
2421.14
2015.01
1655.94
1349.64
1094.1
883.641
711.78
572.214
459.348
368.3
295.034
236.17
188.949
151.12
120.863
96.7054
77.4573
62.1599
50.038
40.4555
32.8984
26.7933
5.4635
13.0029
16.7773
18.4333
16.3892
13.4699
10.4302
7.96161
6.29277
4.89373
3.85855
3.00963
2.36881
1.85968
1.45643
1.14374
0.896446
0.702971
0.557784
0.447346
0.365379
0.30705
0.268341
0.243212
0.22632
0.217238
0.209961
0.20879
0.204389
0.207318
0.239645
0.320457
0.371162
0.350208
0.31811
0.293286
0.29573
0.357112
0.616742
1.56307
45.4752
130.34
278.092
510.043
847
1337.58
2071.23
2945.56
3477.47
3543.43
3303.14
2903.94
2469.62
2058.21
1693.55
1382.22
1121.84
906.846
730.987
587.998
472.236
378.788
303.545
243.048
194.491
155.571
124.422
99.5363
79.6934
63.9107
51.3916
41.4925
33.6802
27.518
22.5294
5.12976
12.4142
16.5853
18.1743
16.1457
13.2816
10.3715
7.93998
6.28692
4.89038
3.85569
3.00791
2.37098
1.86168
1.45571
1.1434
0.89857
0.703877
0.557282
0.447851
0.366676
0.307257
0.268437
0.243876
0.22649
0.218064
0.211531
0.211223
0.208838
0.209642
0.234086
0.305909
0.374586
0.364122
0.330111
0.301432
0.297498
0.345803
0.612694
1.57173
45.8728
131.498
280.46
513.804
851.183
1337.67
2058.45
2933.32
3488.98
3568.31
3340.89
2951.83
2515.47
2098.99
1730.16
1414.19
1149.07
929.795
750.126
603.841
485.255
389.436
312.199
250.06
200.153
160.128
128.074
102.448
82.0004
65.7219
52.7988
42.5697
34.4956
28.128
23.0948
19.0015
4.77679
11.848
16.5014
17.9862
15.9327
13.0904
10.3053
7.92014
6.28023
4.88624
3.85503
3.0059
2.37135
1.86443
1.45599
1.14208
0.899885
0.705721
0.557341
0.447643
0.367915
0.307689
0.268128
0.244584
0.226964
0.218915
0.213631
0.214075
0.213733
0.213928
0.231392
0.290586
0.373419
0.379264
0.342856
0.310825
0.300391
0.337671
0.603067
1.57922
46.3202
132.711
282.842
517.481
855.213
1337.66
2046.58
2915.83
3496.61
3594.37
3371.47
2992.61
2557.87
2137.85
1765.35
1444.83
1175.51
952.334
769.112
619.662
498.336
400.179
320.976
257.196
205.929
164.784
131.815
105.439
84.3753
67.5935
54.2574
43.6921
35.345
28.7635
23.5685
19.4432
16.0645
4.62843
11.2569
16.4033
17.8876
15.7668
12.9119
10.2342
7.89721
6.27273
4.88104
3.85501
3.0054
2.36998
1.86602
1.45921
1.14178
0.899355
0.707325
0.558121
0.447153
0.368733
0.308848
0.267912
0.244974
0.228037
0.219962
0.216294
0.217463
0.218967
0.219448
0.23106
0.277597
0.36659
0.394457
0.35626
0.321033
0.304155
0.333197
0.590613
1.58801
46.8067
133.941
285.16
520.961
859.005
1337.53
2035.09
2897.95
3494.97
3618.58
3401.74
3022.94
2596.36
2175.25
1798.4
1473.98
1200.93
974.225
787.727
635.329
511.388
410.969
329.835
264.43
211.806
169.537
135.64
108.505
86.8175
69.5235
55.7678
44.8585
36.233
29.4279
24.0603
19.8102
16.4112
13.6031
4.40931
11.1738
16.2118
17.726
15.6041
12.7608
10.1652
7.87566
6.26198
4.87491
3.85405
3.00674
2.36967
1.86491
1.46138
1.14294
0.897541
0.708219
0.56048
0.447164
0.368913
0.310029
0.267981
0.24509
0.22975
0.221442
0.219564
0.221467
0.224488
0.225771
0.232025
0.268019
0.357661
0.407387
0.370254
0.3321
0.309675
0.331993
0.576087
1.59738
47.2914
135.148
287.393
524.286
862.654
1337.63
2024.12
2880.06
3489.02
3633.06
3435.18
3049.01
2628.35
2211
1829.32
1501.55
1225.08
995.21
805.782
650.678
524.304
421.728
338.728
271.731
217.765
174.372
139.544
111.64
89.3222
71.5098
57.3278
46.0688
37.1578
30.1236
24.5756
20.1893
16.6968
13.8781
11.5273
9.27452
12.5253
16.6588
17.5019
15.3942
12.6094
10.1018
7.85892
6.25073
4.87001
3.85146
3.00736
2.37193
1.86355
1.46242
1.14567
0.897072
0.707592
0.56294
0.447716
0.367722
0.310711
0.268837
0.245108
0.232055
0.223604
0.223426
0.226097
0.230295
0.232466
0.234875
0.262086
0.348619
0.415883
0.385064
0.344067
0.316306
0.334128
0.561745
1.5941
47.8068
136.431
289.761
527.612
866.14
1337.19
2011.42
2860.62
3482.27
3639.58
3462.35
3083.3
2646.85
2243.75
1859.69
1527.36
1247.92
1015.1
823.072
665.556
536.951
432.372
347.594
279.058
223.776
179.276
143.518
114.841
91.8867
73.5495
58.9357
47.3218
38.12
30.8502
25.116
20.5868
16.9891
14.1017
11.748
9.76729
9.3322
25.2435
20.6007
18.1451
15.1693
12.4544
10.0175
7.8539
6.24146
4.86725
3.85219
3.00491
2.37394
1.86483
1.46044
1.14701
0.899051
0.706206
0.564212
0.449125
0.366568
0.311163
0.270985
0.245227
0.234869
0.226651
0.227885
0.231328
0.236397
0.239487
0.239675
0.260791
0.335276
0.4187
0.400992
0.356839
0.323784
0.337753
0.549759
1.58687
48.1824
137.38
291.391
530.013
868.339
1335.49
1998.48
2838.85
3470.89
3643.62
3476.41
3116.04
2678.08
2255.22
1891.78
1552.31
1269.3
1033.95
839.436
679.786
549.201
442.79
356.362
286.361
229.809
184.222
147.55
118.102
94.5075
75.6403
60.5901
48.6163
39.1186
31.6085
25.6819
21.0038
17.2951
14.3285
11.9254
9.94663
8.2687
9.0799
26.2491
39.6976
23.7313
15.8462
12.347
9.9324
7.83433
6.24309
4.86468
3.85627
3.00555
2.37238
1.86749
1.45966
1.1462
0.902711
0.705769
0.563017
0.450885
0.366162
0.310698
0.273945
0.246646
0.237937
0.230646
0.232935
0.237118
0.242823
0.246786
0.245907
0.261014
0.321739
0.419062
0.417986
0.370404
0.331871
0.342807
0.541732
1.57022
48.5613
138.364
293.033
532.205
870.096
1333.15
1984.93
2816.41
3458.75
3644.55
3488.91
3133.26
2712.74
2279.37
1897.72
1582.14
1289.28
1051.65
854.951
693.23
560.911
452.869
364.939
293.58
235.821
189.186
151.617
121.413
97.1778
77.7796
62.2882
49.9502
40.1529
32.3975
26.2737
21.4409
17.6157
14.5649
12.1029
10.0891
8.41617
6.98894
8.91698
25.415
42.9646
37.0867
21.246
13.2782
9.93715
7.79914
6.23747
4.86818
3.85748
3.01235
2.37115
1.8686
1.46291
1.14401
0.904504
0.707302
0.560241
0.451773
0.367793
0.310369
0.277303
0.249023
0.241445
0.235589
0.238586
0.243683
0.249961
0.254336
0.253242
0.262796
0.309016
0.416201
0.43329
0.384513
0.340599
0.34852
0.538821
1.54601
48.8316
139.257
294.528
534.252
871.719
1330.83
1971.72
2794.12
3445.77
3644.78
3500.03
3150.45
2730.55
2311.97
1916.32
1584.53
1316.21
1067.5
869.543
705.978
571.952
462.5
373.233
300.64
241.764
194.135
155.698
124.752
99.8906
79.9605
64.0269
51.3219
41.2214
33.2171
26.8913
21.8988
17.9516
14.8116
12.2871
10.2301
8.53198
7.11137
5.89426
8.77456
24.8759
41.8004
39.7628
20.0505
17.4709
11.1535
7.92661
6.22617
4.87583
3.85506
3.0166
2.37813
1.86542
1.46633
1.14358
0.901985
0.709878
0.558572
0.451042
0.372272
0.310206
0.280532
0.252751
0.245685
0.241421
0.245284
0.251336
0.257885
0.262326
0.261369
0.265573
0.298824
0.410247
0.445584
0.398482
0.349507
0.354188
0.541304
1.51652
48.9918
140.064
295.896
536.166
873.272
1328.62
1959.08
2772.16
3432.45
3644.73
3511.04
3165.96
2747.79
2328.27
1945.39
1598.57
1316.52
1091.15
882.114
717.988
582.414
471.566