/*--------------------------------*- C++ -*----------------------------------*\
| =========                 |                                                 |
| \\      /  F ield         | OpenFOAM: The Open Source CFD Toolbox           |
|  \\    /   O peration     | Version:  v2012                                 |
|   \\  /    A nd           | Website:  www.openfoam.com                      |
|    \\/     M anipulation  |                                                 |
\*---------------------------------------------------------------------------*/
FoamFile
{
    version     2.0;
    format      ascii;
    class       volScalarField;
    location    "12000";
    object      Res;
}
// * * * * * * * * * * * * * * * * * * * * * * * * * * * * * * * * * * * * * //

dimensions      [0 0 0 0 0 0 0];


internalField   nonuniform List<scalar> 
27324
(
5.69523e+07
6.40135e+07
1.00118e+08
6.84305e+07
1.11523e+08
1.06336e+08
7.33371e+07
1.19737e+08
1.16322e+08
9.79243e+07
7.76936e+07
1.29072e+08
1.23716e+08
1.05714e+08
7.52076e+07
8.0838e+07
1.3827e+08
1.32316e+08
1.11512e+08
7.97136e+07
4.95986e+07
8.31883e+07
1.46092e+08
1.40903e+08
1.1818e+08
8.25909e+07
5.16189e+07
3.15088e+07
8.56241e+07
1.53045e+08
1.48047e+08
1.24328e+08
8.57951e+07
5.25141e+07
3.29115e+07
2.15341e+07
8.80981e+07
1.60325e+08
1.53965e+08
1.28405e+08
8.83458e+07
5.39934e+07
3.33186e+07
2.2948e+07
1.59329e+07
9.06328e+07
1.68033e+08
1.59679e+08
1.30944e+08
8.95094e+07
5.50452e+07
3.45241e+07
2.26616e+07
1.74917e+07
1.30285e+07
9.71489e+07
1.70598e+08
1.66063e+08
1.33607e+08
9.02254e+07
5.50709e+07
3.50034e+07
2.31892e+07
1.65805e+07
1.49856e+07
1.15541e+07
1.0311e+08
1.531e+08
1.65739e+08
1.37985e+08
9.20013e+07
5.50096e+07
3.39616e+07
2.30673e+07
1.64904e+07
1.36113e+07
1.38003e+07
1.06068e+07
5.7932e+07
1.24485e+08
1.59216e+08
1.43296e+08
9.61842e+07
5.60808e+07
3.28546e+07
2.11724e+07
1.6338e+07
1.27855e+07
1.21871e+07
1.30029e+07
9.68313e+06
2.05446e+07
6.83554e+07
1.29996e+08
1.52602e+08
1.09679e+08
6.04933e+07
3.3059e+07
1.98756e+07
1.38573e+07
1.30522e+07
1.05466e+07
1.16514e+07
1.18559e+07
8.66117e+06
1.64052e+07
3.43227e+07
6.9749e+07
1.30892e+08
1.31238e+08
7.96644e+07
3.98792e+07
2.03028e+07
1.22629e+07
1.05072e+07
1.13294e+07
9.33456e+06
1.15211e+07
1.025e+07
7.50504e+06
1.635e+07
3.17947e+07
3.48787e+07
7.19877e+07
1.22279e+08
1.14589e+08
6.73016e+07
3.0242e+07
1.33211e+07
7.87839e+06
9.58189e+06
1.01196e+07
8.93258e+06
1.15216e+07
8.01447e+06
6.37104e+06
1.70174e+07
3.20791e+07
3.30216e+07
3.66939e+07
6.96975e+07
1.10824e+08
1.0786e+08
7.07154e+07
2.93474e+07
1.02977e+07
5.12956e+06
9.86072e+06
8.88421e+06
9.4131e+06
1.04702e+07
6.21371e+06
5.93224e+06
1.78556e+07
3.3429e+07
3.35138e+07
3.49782e+07
3.43548e+07
6.51033e+07
9.98339e+07
1.03779e+08
8.06339e+07
3.86955e+07
1.16899e+07
4.52485e+06
9.65615e+06
7.37583e+06
1.0545e+07
8.50941e+06
4.71228e+06
5.82624e+06
1.86177e+07
3.43888e+07
3.4263e+07
3.51778e+07
3.29357e+07
2.73157e+07
6.29548e+07
8.70182e+07
9.75151e+07
9.14422e+07
5.61254e+07
2.12537e+07
8.00484e+06
8.21588e+06
5.59135e+06
1.05564e+07
5.06333e+06
1.95427e+06
3.38091e+06
1.93614e+07
3.52402e+07
3.43624e+07
3.50672e+07
3.31916e+07
2.56101e+07
2.26826e+07
6.2447e+07
7.10591e+07
8.57918e+07
9.86181e+07
7.99363e+07
4.42041e+07
2.08656e+07
1.19354e+07
8.16259e+06
1.01507e+07
7.56964e+06
8.40679e+06
1.207e+07
1.98679e+07
3.59482e+07
3.43484e+07
3.49343e+07
3.28188e+07
2.66539e+07
1.65695e+07
2.5762e+07
6.06193e+07
5.29513e+07
6.75396e+07
9.32195e+07
9.89077e+07
7.82801e+07
5.25628e+07
3.76419e+07
3.01127e+07
2.90926e+07
3.15768e+07
3.48362e+07
3.84756e+07
2.01536e+07
3.63352e+07
3.41762e+07
3.48054e+07
3.26989e+07
2.69487e+07
1.82143e+07
9.36293e+06
3.33624e+07
5.55298e+07
3.476e+07
4.54071e+07
7.13961e+07
9.25558e+07
9.55007e+07
8.39208e+07
7.24053e+07
6.36497e+07
6.09362e+07
5.54431e+07
5.4216e+07
4.36893e+07
2.02722e+07
3.64821e+07
3.38946e+07
3.47018e+07
3.28779e+07
2.73627e+07
1.89699e+07
1.05076e+07
8.04806e+06
4.19218e+07
4.71562e+07
1.90749e+07
2.46873e+07
4.07186e+07
5.79918e+07
6.88693e+07
6.95341e+07
6.47976e+07
5.70781e+07
4.84885e+07
3.82889e+07
2.76432e+07
3.05812e+07
2.02612e+07
3.64561e+07
3.35917e+07
3.46454e+07
3.32284e+07
2.78267e+07
1.94342e+07
1.10295e+07
5.63489e+06
1.23315e+07
4.97515e+07
3.61756e+07
8.12895e+06
9.34696e+06
1.51652e+07
2.23392e+07
2.82893e+07
3.01645e+07
2.80742e+07
2.29472e+07
1.61994e+07
9.65911e+06
1.03283e+07
1.98649e+07
2.00885e+07
3.62275e+07
3.33481e+07
3.46386e+07
3.37718e+07
2.83189e+07
1.96931e+07
1.11167e+07
6.37482e+06
3.57139e+06
2.00378e+07
5.39813e+07
2.40389e+07
2.73775e+06
1.02068e+06
2.65934e+06
5.16066e+06
7.0426e+06
7.06795e+06
5.52393e+06
3.31226e+06
1.38633e+06
2.97894e+06
1.60167e+07
1.35234e+07
1.97843e+07
3.57745e+07
3.31662e+07
3.48388e+07
3.43708e+07
2.87196e+07
1.98462e+07
1.11348e+07
6.72262e+06
4.40407e+06
3.4285e+06
3.06566e+07
5.1332e+07
1.38024e+07
3.6807e+06
2.16276e+06
2.85706e+06
5.0837e+06
5.74738e+06
4.74299e+06
2.89354e+06
1.19342e+06
657418
9.27746e+06
1.81951e+07
6.89702e+06
1.94773e+07
3.53006e+07
3.31268e+07
3.5316e+07
3.4987e+07
2.8953e+07
1.97711e+07
1.1115e+07
6.79322e+06
4.82767e+06
2.48801e+06
7.50017e+06
4.1921e+07
4.16517e+07
6.97893e+06
2.5453e+06
2.15776e+06
3.88336e+06
5.98043e+06
5.87648e+06
4.20963e+06
2.14075e+06
723963
4.29211e+06
1.57166e+07
1.25612e+07
3.10038e+06
1.94e+07
3.50218e+07
3.33863e+07
3.5991e+07
3.5537e+07
2.89793e+07
1.953e+07
1.10535e+07
6.85311e+06
4.93141e+06
2.9551e+06
1.0046e+06
1.51257e+07
4.94636e+07
2.8212e+07
3.78809e+06
328517
2.04156e+06
4.85186e+06
6.00508e+06
4.89617e+06
2.73427e+06
840254
1.38906e+06
1.16129e+07
1.48696e+07
6.05056e+06
1.45857e+06
1.96251e+07
3.5143e+07
3.38535e+07
3.67394e+07
3.58498e+07
2.88142e+07
1.92554e+07
1.09684e+07
6.82448e+06
5.02534e+06
3.17731e+06
1.61557e+06
2.41666e+06
2.66559e+07
4.78636e+07
1.51074e+07
2.09314e+06
658149
3.1738e+06
5.64663e+06
5.50471e+06
3.65061e+06
1.39917e+06
219088
6.70821e+06
1.56973e+07
8.50395e+06
2.56382e+06
832701
2.00087e+07
3.56198e+07
3.43208e+07
3.73647e+07
3.58143e+07
2.85622e+07
1.90034e+07
1.0943e+07
6.72403e+06
5.0729e+06
3.31121e+06
1.97113e+06
631547
7.02772e+06
3.94375e+07
3.60238e+07
5.93866e+06
317413
1.68558e+06
4.57091e+06
5.8409e+06
4.50352e+06
2.25617e+06
432284
2.98628e+06
1.3494e+07
1.1645e+07
3.62263e+06
1.22362e+06
625442
2.0497e+07
3.63703e+07
3.46442e+07
3.76211e+07
3.56353e+07
2.83066e+07
1.88676e+07
1.09568e+07
6.64643e+06
5.04186e+06
3.41692e+06
2.14532e+06
1.04319e+06
727494
1.61412e+07
4.61156e+07
2.08398e+07
2.6745e+06
1.05602e+06
2.94792e+06
5.57228e+06
5.20284e+06
3.15525e+06
905392
935555
9.51292e+06
1.37751e+07
5.52721e+06
1.51474e+06
783478
581872
2.13208e+07
3.73045e+07
3.51661e+07
3.75073e+07
3.53523e+07
2.81448e+07
1.89322e+07
1.1005e+07
6.61849e+06
5.02003e+06
3.40291e+06
2.27044e+06
1.22224e+06
420076
3.45589e+06
2.95172e+07
4.04492e+07
9.88962e+06
646197
1.42192e+06
4.49871e+06
5.57637e+06
4.01265e+06
1.67262e+06
110514
5.40908e+06
1.3908e+07
7.9406e+06
2.21232e+06
793014
682005
523452
2.19241e+07
3.82964e+07
3.52399e+07
3.70868e+07
3.50802e+07
2.81533e+07
1.90626e+07
1.10799e+07
6.6607e+06
5.01352e+06
3.3526e+06
2.24309e+06
1.35795e+06
683731
323645
1.01221e+07
4.07071e+07
2.53611e+07
3.73911e+06
300957
2.81802e+06
5.39558e+06
4.77011e+06
2.46537e+06
429570
2.39324e+06
1.17852e+07
1.04915e+07
3.27609e+06
996705
608863
624254
328532
2.23028e+07
3.87863e+07
3.48185e+07
3.61986e+07
3.46276e+07
2.83362e+07
1.9243e+07
1.11522e+07
6.76849e+06
5.01882e+06
3.30034e+06
2.14006e+06
1.38253e+06
883063
226606
1.84478e+06
2.27155e+07
3.97243e+07
1.12071e+07
692144
1.24521e+06
4.48678e+06
5.2534e+06
3.35551e+06
1.02102e+06
765337
8.32519e+06
1.22675e+07
4.84698e+06
1.32959e+06
642231
563183
439277
217011
2.23694e+07
3.88431e+07
3.41996e+07
3.53569e+07
3.44512e+07
2.87626e+07
1.94226e+07
1.12024e+07
6.90107e+06
5.02514e+06
3.26516e+06
2.04384e+06
1.29572e+06
1.01069e+06
500163
179920
7.08338e+06
3.58962e+07
2.6297e+07
3.65289e+06
426754
2.938e+06
5.27896e+06
4.15784e+06
1.76871e+06
97572.4
4.82151e+06
1.24113e+07
6.87204e+06
1.88681e+06
714040
547631
419791
320822
390668
2.21994e+07
3.84803e+07
3.36199e+07
3.47572e+07
3.47843e+07
2.92298e+07
1.94953e+07
1.12178e+07
7.0206e+06
5.02637e+06
3.25229e+06
1.98926e+06
1.19748e+06
985544
701823
302888
1.11961e+06
1.90207e+07
3.74774e+07
1.19049e+07
808310
1.30431e+06
4.61244e+06
4.80373e+06
2.62779e+06
556220
2.20013e+06
1.07324e+07
9.02964e+06
2.74627e+06
868504
524406
430387
329817
476857
422459
2.19336e+07
3.80774e+07
3.31069e+07
3.47441e+07
3.50686e+07
2.96281e+07
1.94393e+07
1.11917e+07
7.11506e+06
5.00205e+06
3.2676e+06
1.99326e+06
1.14002e+06
867937
753079
488654
93234.1
5.97959e+06
3.25241e+07
2.4838e+07
3.75834e+06
203857
3.24813e+06
5.10407e+06
3.48031e+06
1.16512e+06
676449
7.8797e+06
1.06696e+07
3.98618e+06
1.13527e+06
525143
411251
377695
523177
507493
275713
2.13564e+07
3.71539e+07
3.28879e+07
3.50615e+07
3.53085e+07
2.98199e+07
1.91651e+07
1.11285e+07
7.17566e+06
5.00598e+06
3.28853e+06
2.04302e+06
1.14675e+06
753542
641851
629639
268594
1.04398e+06
1.76677e+07
3.46717e+07
1.05498e+07
809537
1.62351e+06
4.84572e+06
4.25908e+06
1.92286e+06
92392.6
4.85606e+06
1.10951e+07
5.60585e+06
1.55641e+06
571502
375366
417908
589124
575999
338045
122359
2.11999e+07
3.6655e+07
3.27325e+07
3.54269e+07
3.54609e+07
2.96202e+07
1.89132e+07
1.10729e+07
7.25953e+06
4.88299e+06
3.30829e+06
2.11042e+06
1.20223e+06
692541
485416
585488
482209
70183.8
6.07341e+06
3.08203e+07
2.19799e+07
3.10247e+06
444343
3.88721e+06
4.82844e+06
2.7235e+06
599425
2.43873e+06
1.00334e+07
7.41338e+06
2.19626e+06
681720
331544
459503
649138
659081
396077
151382
43965.3
2.14175e+07
3.68049e+07
3.3484e+07
3.62856e+07
3.55384e+07
2.92515e+07
1.8667e+07
1.10493e+07
7.23071e+06
4.81669e+06
3.31757e+06
2.1569e+06
1.26903e+06
696990
370323
461219
540302
154176
1.30881e+06
1.81953e+07
3.12593e+07
8.53842e+06
572327
2.43337e+06
4.9909e+06
3.54029e+06
1.14668e+06
912350
7.84443e+06
8.97734e+06
3.11895e+06
867046
312413
497959
712371
742353
469281
180143
54005.9
14385.6
2.18993e+07
3.73431e+07
3.41272e+07
3.70223e+07
3.5529e+07
2.89383e+07
1.85251e+07
1.09979e+07
7.24774e+06
4.76616e+06
3.2774e+06
2.19925e+06
1.3165e+06
722893
362587
318830
538282
328832
289981
7.19466e+06
2.9956e+07
1.76719e+07
2.04044e+06
1.06303e+06
4.53713e+06
4.22984e+06
1.83497e+06
50759.1
5.26196e+06
9.753e+06
4.34261e+06
1.16571e+06
334574
533658
775408
826516
551072
218246
63871.6
17414.3
4552.61
2.22925e+07
3.79957e+07
3.4522e+07
3.7092e+07
3.52788e+07
2.85528e+07
1.84943e+07
1.09771e+07
7.21609e+06
4.71104e+06
3.2204e+06
2.19793e+06
1.33496e+06
746067
401127
268451
459342
411812
228969
1.89478e+06
1.99067e+07
2.68967e+07
5.80066e+06
219796
3.41714e+06
4.70072e+06
2.59346e+06
468536
2.97232e+06
9.38187e+06
5.78439e+06
1.61771e+06
396782
571918
836754
908090
641131
263595
77119.3
20271
5417.02
1447.25
2.32573e+07
3.84192e+07
3.44857e+07
3.70039e+07
3.51976e+07
2.82785e+07
1.85586e+07
1.09949e+07
7.1881e+06
4.60467e+06
3.12186e+06
2.12448e+06
1.30901e+06
728778
431255
269709
364325
458614
323495
390911
9.32787e+06
2.8862e+07
1.26171e+07
987756
1.97212e+06
4.75151e+06
3.34614e+06
985623
1.34332e+06
7.9364e+06
7.20442e+06
2.26172e+06
517745
619246
894766
986779
737686
318192
93068.4
24118.4
6185.14
1689.11
490.646
2.37142e+07
3.91894e+07
3.42441e+07
3.68157e+07
3.53e+07
2.8463e+07
1.87343e+07
1.1188e+07
7.1883e+06
4.47279e+06
2.97179e+06
2.04368e+06
1.21218e+06
663130
430599
259003
300827
379678
439658
171212
2.98955e+06
2.21656e+07
2.12302e+07
3.20501e+06
764603
4.22302e+06
4.00283e+06
1.6004e+06
331585
5.8741e+06
8.22422e+06
3.12209e+06
718239
673623
951623
1.06437e+06
838297
382821
112731
28678.1
7229.95
1885.25
558.966
188.337
2.36755e+07
3.90534e+07
3.34137e+07
3.66909e+07
3.55477e+07
2.8625e+07
1.88803e+07
1.13598e+07
7.27957e+06
4.41366e+06
2.81338e+06
1.92396e+06
1.11224e+06
564926
397993
240045
245214
287085
491441
253695
578233
1.25083e+07
2.62593e+07
7.91647e+06
227240
3.11904e+06
4.43752e+06
2.35184e+06
258478
3.77122e+06
8.47094e+06
4.18231e+06
1.02839e+06
729384
1.0076e+06
1.14064e+06
940037
457985
136883
34226.5
8444.59
2159.39
606.185
207.418
91.2779
2.34443e+07
3.8653e+07
3.26172e+07
3.63967e+07
3.57914e+07
2.87141e+07
1.89394e+07
1.1569e+07
7.31671e+06
4.40087e+06
2.75419e+06
1.82307e+06
982774
444861
353090
263711
225633
229755
453093
468968
94577.5
5.03171e+06
2.39876e+07
1.48783e+07
1.52292e+06
1.78912e+06
4.52312e+06
3.01801e+06
765579
2.05419e+06
7.79257e+06
5.35148e+06
1.45988e+06
784234
1.06739e+06
1.21628e+06
1.03995e+06
543242
166586
40961.1
9895.35
2472.19
675.366
217.66
96.4868
58.7885
2.29226e+07
3.82977e+07
3.24829e+07
3.66959e+07
3.61286e+07
2.87055e+07
1.89486e+07
1.17753e+07
7.3486e+06
4.40956e+06
2.76108e+06
1.80646e+06
879064
337531
297689
308875
303384
263640
400520
561287
307979
1.29916e+06
1.65437e+07
2.16892e+07
4.19187e+06
691509
4.08079e+06
3.6543e+06
1.32824e+06
885100
6.38499e+06
6.40564e+06
2.03269e+06
846365
1.13416e+06
1.29187e+06
1.13561e+06
637333
202967
49196.5
11617.3
2840.74
752.04
235.03
98.7361
60.551
40.2696
2.26637e+07
3.77761e+07
3.26976e+07
3.69294e+07
3.61959e+07
2.84579e+07
1.89409e+07
1.19392e+07
7.37554e+06
4.47416e+06
2.85554e+06
1.8521e+06
837584
229165
259809
338520
393510
340480
359410
569280
483321
134663
8.74767e+06
2.39486e+07
8.90901e+06
324486
3.13292e+06
4.10039e+06
1.95134e+06
90739.2
4.64164e+06
7.03213e+06
2.7844e+06
951299
1.21472e+06
1.36675e+06
1.22507e+06
737947
247214
59309.9
13669.1
3270.98
841.549
253.867
103.356
61.2406
41.7038
25.9873
2.33261e+07
3.83265e+07
3.33028e+07
3.70648e+07
3.58062e+07
2.80658e+07
1.89069e+07
1.20373e+07
7.35822e+06
4.56466e+06
3.01186e+06
1.99598e+06
854806
180318
149523
302369
406037
394600
327972
448259
561740
201406
3.42811e+06
2.03241e+07
1.50878e+07
1.6764e+06
1.94467e+06
4.27005e+06
2.59714e+06
453907
2.96352e+06
7.02594e+06
3.68554e+06
1.15502e+06
1.30449e+06
1.43867e+06
1.30736e+06
842198
300348
71780.8
16119
3773.73
944.699
275.457
108.082
62.5347
42.3432
27.0861
17.0326
2.41066e+07
3.94549e+07
3.43184e+07
3.73899e+07
3.53755e+07
2.77419e+07
1.90074e+07
1.21847e+07
7.31041e+06
4.62928e+06
3.18768e+06
2.13363e+06
953161
245641
66881.9
167132
301003
383510
299426
310675
496589
310115
933754
1.3583e+07
2.03116e+07
4.22991e+06
889144
4.01871e+06
3.17037e+06
977336
1.6041e+06
6.35657e+06
4.59331e+06
1.48249e+06
1.39241e+06
1.5038e+06
1.38279e+06
947110
363076
87170.7
19059.9
4359.46
1063.9
299.829
113.239
63.7024
43.3253
27.5502
17.7464
11.7501
2.46585e+07
4.03328e+07
3.45066e+07
3.70692e+07
3.46296e+07
2.75978e+07
1.91575e+07
1.21643e+07
7.13238e+06
4.63857e+06
3.33104e+06
2.27268e+06
1.05784e+06
367229
222136
47403.9
137660
271711
269600
190988
359107
415449
134329
7.18347e+06
2.13488e+07
8.45952e+06
173075
3.31707e+06
3.62883e+06
1.52616e+06
593875
5.18694e+06
5.33818e+06
1.977e+06
1.45524e+06
1.55606e+06
1.45327e+06
1.04995e+06
435614
106112
22607.2
5041.86
1201.11
327.486
118.855
64.9394
44.2613
28.2832
17.9788
12.2466
8.40739
2.55888e+07
4.07381e+07
3.43648e+07
3.66229e+07
3.41664e+07
2.75027e+07
1.92476e+07
1.2136e+07
7.00266e+06
4.56441e+06
3.39937e+06
2.37009e+06
1.15935e+06
456050
378987
243185
55723.5
164085
238182
152464
217971
453733
172459
2.88974e+06
1.78614e+07
1.38388e+07
1.40842e+06
2.31052e+06
3.88574e+06
2.13736e+06
237898
3.79043e+06
5.74761e+06
2.62576e+06
1.50284e+06
1.60758e+06
1.52223e+06
1.14842e+06
517314
129310
26900.5
5837.76
1358.64
358.848
124.984
66.2155
45.2114
29.0062
18.4008
12.3656
8.77611
6.15659
2.53174e+07
4.10469e+07
3.40975e+07
3.63414e+07
3.41448e+07
2.77978e+07
1.97221e+07
1.20621e+07
6.80098e+06
4.49368e+06
3.41478e+06
2.39162e+06
1.22021e+06
524647
445075
420437
239093
167489
210663
178133
148019
404099
327052
784335
1.21379e+07
1.82429e+07
3.61141e+06
1.27598e+06
3.88165e+06
2.63293e+06
795938
2.45818e+06
5.69673e+06
3.28906e+06
1.57062e+06
1.6626e+06
1.59272e+06
1.24038e+06
606683
157483
32106.9
6768.08
1538.51
394.411
131.664
67.5345
46.1453
29.7635
18.8123
12.6223
8.84151
6.43986
4.59381
2.50197e+07
4.0346e+07
3.32829e+07
3.61878e+07
3.42227e+07
2.81248e+07
2.00579e+07
1.20628e+07
6.64199e+06
4.37326e+06
3.3735e+06
2.30748e+06
1.22686e+06
542081
447942
462282
361256
220329
187649
201516
123169
308924
464053
22336.4
6.73118e+06
1.92985e+07
7.1308e+06
270784
3.51598e+06
3.08825e+06
1.35572e+06
1.37522e+06
5.15594e+06
3.96006e+06
1.74311e+06
1.72237e+06
1.66422e+06
1.32389e+06
701288
191412
38407.9
7860.64
1743.04
434.511
138.943
68.8938
47.0658
30.5416
19.249
12.8693
9.0129
6.47415
4.81623
3.49291
2.48968e+07
4.00706e+07
3.29371e+07
3.59947e+07
3.42982e+07
2.83657e+07
2.03053e+07
1.19969e+07
6.50505e+06
4.28483e+06
3.30826e+06
2.20972e+06
1.14029e+06
533970
371861
362443
425290
234008
137670
201243
146699
224015
505465
252631
2.94861e+06
1.65812e+07
1.18172e+07
876958
2.82035e+06
3.41856e+06
1.86914e+06
648414
4.28063e+06
4.52286e+06
2.07313e+06
1.81437e+06
1.72907e+06
1.39779e+06
798244
231788
46001.1
9143.56
1975.35
479.325
146.869
70.2891
47.9679
31.3372
19.7031
13.1327
9.17716
6.59337
4.82969
3.66986
2.7109
2.51018e+07
4.00953e+07
3.29041e+07
3.60197e+07
3.43795e+07
2.85482e+07
2.04639e+07
1.19546e+07
6.41955e+06
4.34144e+06
3.24635e+06
2.09402e+06
1.05629e+06
514124
333424
175641
312848
254920
72404.9
199579
217261
179392
451555
400602
935830
1.19227e+07
1.57563e+07
2.66151e+06
1.92689e+06
3.62308e+06
2.37679e+06
837163
3.29156e+06
4.82066e+06
2.56903e+06
1.89723e+06
1.78428e+06
1.4625e+06
894676
279251
55094.9
10646.5
2239.25
528.873
155.468
71.7361
48.8577
32.1476
20.1777
13.4067
9.35276
6.7065
4.9128
3.66964
2.8531
2.15239
2.57882e+07
4.0713e+07
3.29501e+07
3.58599e+07
3.44421e+07
2.88143e+07
2.06451e+07
1.1895e+07
6.41801e+06
4.49933e+06
3.33095e+06
1.99897e+06
960302
500759
385137
100035
150070
222740
31032.1
181115
270892
172792
342415
504902
117188
7.20672e+06
1.73647e+07
5.4775e+06
1.04342e+06
3.6243e+06
2.74648e+06
1.43542e+06
2.37021e+06
4.76604e+06
3.15171e+06
1.95292e+06
1.81887e+06
1.52068e+06
988097
334103
65919.6
12392.6
2539.38
583.022
164.751
73.2535
49.7357
32.9767
20.6736
13.6934
9.53608
6.82866
4.99135
3.72722
2.84425
2.26737
1.75173
2.64365e+07
4.15826e+07
3.30895e+07
3.55479e+07
3.4459e+07
2.90323e+07
2.07005e+07
1.18652e+07
6.43449e+06
4.68208e+06
3.41531e+06
1.98909e+06
877690
479625
427857
263050
110608
166136
117089
178241
265642
189230
233732
485612
190617
3.61656e+06
1.58112e+07
9.20638e+06
106369
3.35845e+06
3.08969e+06
2.04185e+06
1.67893e+06
4.37997e+06
3.65343e+06
2.0275e+06
1.84719e+06
1.57657e+06
1.07638e+06
396213
78698.3
14401.8
2879.08
641.978
174.652
74.8798
50.6046
33.8208
21.1935
13.9937
9.72841
6.95649
5.07678
3.78121
2.88372
2.25265
1.8444
1.46363
2.70821e+07
4.21271e+07
3.30195e+07
3.52761e+07
3.44782e+07
2.92836e+07
2.06138e+07
1.16703e+07
6.40044e+06
4.86517e+06
3.4955e+06
2.03425e+06
866585
377031
398799
341531
178556
92396.5
166313
116429
183554
218460
150473
399978
350636
1.43781e+06
1.22402e+07
1.29739e+07
1.44707e+06
2.84822e+06
3.39562e+06
2.59345e+06
1.42588e+06
3.75691e+06
4.08244e+06
2.21705e+06
1.8794e+06
1.63379e+06
1.15752e+06
464785
93656.7
16686.1
3259.4
706.287
185.096
76.6461
51.4603
34.6771
21.7358
14.3068
9.92981
7.0911
5.16629
3.84053
2.92019
2.27917
1.82629
1.53803
1.25761
2.70559e+07
4.23901e+07
3.27989e+07
3.50412e+07
3.46187e+07
2.96412e+07
2.05443e+07
1.14751e+07
6.41857e+06
4.98846e+06
3.55847e+06
2.07881e+06
935670
356082
272490
296382
195560
18914
186937
112217
49963.5
223956
115055
268337
450363
333054
8.19666e+06
1.51645e+07
3.62758e+06
2.19738e+06
3.64678e+06
3.04748e+06
1.65014e+06
3.08772e+06
4.3342e+06
2.54975e+06
1.96069e+06
1.68762e+06
1.22962e+06
538413
110973
19257.3
3677.25
776.866
196.044
78.5472
52.2853
35.5369
22.2997
14.6333
10.1397
7.23179
5.26099
3.90302
2.96062
2.30316
1.84339
1.51767
1.31596
1.11244
2.70687e+07
4.20878e+07
3.24329e+07
3.50185e+07
3.46787e+07
2.99101e+07
2.03733e+07
1.12598e+07
6.47343e+06
5.09847e+06
3.54234e+06
2.09307e+06
1.00689e+06
451339
233280
194398
160373
77060.3
182183
230538
78302.4
191936
130415
165349
483733
147186
4.78095e+06
1.49097e+07
6.60771e+06
1.41933e+06
3.77186e+06
3.44498e+06
2.15108e+06
2.51574e+06
4.32886e+06
3.01361e+06
2.03032e+06
1.72954e+06
1.2916e+06
615356
130759
22121.6
4128.26
853.975
207.564
80.4921
53.0448
36.387
22.8825
14.9715
10.3574
7.37882
5.35995
3.96894
3.00372
2.33022
1.8583
1.52773
1.29433
1.15675
1.01359
2.73476e+07
4.18316e+07
3.22533e+07
3.52205e+07
3.47534e+07
3.01272e+07
2.00551e+07
1.1024e+07
6.52144e+06
5.16835e+06
3.48638e+06
2.05074e+06
1.03848e+06
537893
271640
192211
129849
152321
171432
300006
158879
124937
163680
113774
411235
387174
2.35322e+06
1.26351e+07
9.96915e+06
522591
3.74663e+06
3.81032e+06
2.68521e+06
2.1021e+06
4.06442e+06
3.49021e+06
2.09394e+06
1.75027e+06
1.34517e+06
693702
153031
25265.6
4605.69
936.45
219.72
82.3048
53.6952
37.2173
23.4831
15.322
10.5835
7.53138
5.46354
4.03842
3.04946
2.35927
1.87585
1.53597
1.29907
1.13439
1.04551
0.952462
2.76776e+07
4.17072e+07
3.19971e+07
3.54423e+07
3.50514e+07
3.02116e+07
1.97936e+07
1.07509e+07
6.63384e+06
5.221e+06
3.44879e+06
1.9675e+06
997940
546365
288241
201995
138932
168147
124489
276468
207885
55848.4
181945
97072.9
302617
525319
885771
9.50868e+06
1.22583e+07
1.61541e+06
3.60714e+06
4.13466e+06
3.20784e+06
1.99298e+06
3.64722e+06
3.84221e+06
2.19244e+06
1.76744e+06
1.39411e+06
771556
177632
28652.9
5102.63
1021.85
232.708
83.9077
54.2312
38.0209
24.1024
15.686
10.8185
7.69055
5.5716
4.11121
3.09777
2.39057
1.89486
1.54623
1.30206
1.13449
1.02225
0.972323
0.92297
2.76934e+07
4.15297e+07
3.15477e+07
3.57016e+07
3.53195e+07
3.01678e+07
1.95416e+07
1.05139e+07
6.81605e+06
5.25636e+06
3.45246e+06
1.93877e+06
932960
501546
234934
178883
110027
155671
107626
207099
221452
22890.3
161976
121175
192722
586606
103292
6.39298e+06
1.31215e+07
3.99307e+06
3.40364e+06
4.41235e+06
3.67058e+06
2.184e+06
3.17502e+06
4.07423e+06
2.42401e+06
1.79746e+06
1.44051e+06
846469
204216
32215
5611.17
1107.44
246.417
85.3357
54.6894
38.7901
24.7433
16.0655
11.0642
7.85652
5.68425
4.18729
3.14837
2.42383
1.9154
1.55782
1.3067
1.1329
1.01804
0.947979
0.931315
0.921887
2.74716e+07
4.10446e+07
3.09012e+07
3.60734e+07
3.56193e+07
3.01365e+07
1.92092e+07
1.0406e+07
6.92897e+06
5.20774e+06
3.45287e+06
1.97549e+06
909738
447353
193525
147307
92178.6
124405
77225.5
109119
197679
91243.5
107395
163767
123701
505877
307780
3.88584e+06
1.22604e+07
6.51795e+06
2.74792e+06
4.62249e+06
4.08051e+06
2.55382e+06
2.72884e+06
4.11878e+06
2.77249e+06
1.88097e+06
1.47783e+06
915529
232234
35860.8
6117.67
1191.09
260.191
86.6438
55.0859
39.5134
25.4022
16.4613
11.3214
8.0304
5.8022
4.26677
3.20165
2.45879
1.93769
1.57083
1.31244
1.13318
1.01254
0.939754
0.905169
0.918729
0.948726
2.74091e+07
4.07054e+07
3.03108e+07
3.6391e+07
3.60122e+07
2.99141e+07
1.8957e+07
1.04842e+07
7.08126e+06
5.09392e+06
3.40255e+06
2.03721e+06
952886
410959
151880
121840
105926
128459
71058.9
41210.4
137858
142941
50717.5
195186
98001.1
360148
545453
2.09008e+06
1.0161e+07
9.05501e+06
2.05582e+06
4.83218e+06
4.45707e+06
3.00205e+06
2.40105e+06
3.98542e+06
3.18925e+06
1.94407e+06
1.49615e+06
976645
261038
39484.1
6603.64
1270.89
273.097
87.8334
55.445
40.1851
26.0643
16.8731
11.5898
8.21264
5.92627
4.35051
3.25774
2.4958
1.96155
1.585
1.31965
1.13437
1.00893
0.930586
0.892545
0.889712
0.933007
1.00363
2.76707e+07
4.07701e+07
3.02126e+07
3.67082e+07
3.63621e+07
2.94303e+07
1.87499e+07
1.0594e+07
7.25619e+06
4.97332e+06
3.34143e+06
2.06641e+06
1.04036e+06
431037
159022
126688
116096
151063
61961.8
27897.5
74649.5
181304
78253
177601
113986
197272
659043
852748
7.68337e+06
1.04584e+07
2.38785e+06
5.0127e+06
4.8056e+06
3.48111e+06
2.31176e+06
3.70742e+06
3.5584e+06
2.00417e+06
1.49583e+06
1.03049e+06
289936
42973.6
7047.14
1344.59
284.197
88.7431
55.7511
40.8208
26.711
17.2946
11.869
8.40348
6.05641
4.43872
3.31703
2.53512
1.98698
1.6006
1.32778
1.1366
1.00618
0.922916
0.87937
0.872246
0.900379
0.974779
1.08954
2.82923e+07
4.13253e+07
3.04538e+07
3.69424e+07
3.66405e+07
2.8877e+07
1.84736e+07
1.07903e+07
7.42515e+06
4.94215e+06
3.28512e+06
2.02419e+06
1.0979e+06
516839
127259
196789
113314
184971
73109.7
21491.7
45583
168963
122498
126106
152506
78263.3
685010
178018
5.29141e+06
1.07162e+07
4.15944e+06
5.01903e+06
5.10037e+06
3.91879e+06
2.42793e+06
3.33262e+06
3.82081e+06
2.12682e+06
1.50873e+06
1.07928e+06
317955
46188.7
7428.1
1407.17
292.887
89.0854
55.8569
41.447
27.3309
17.7184
12.1555
8.60144
6.19269
4.53165
3.37943
2.57678
2.01418
1.61747
1.33713
1.14004
1.00432
0.916259
0.867686
0.85478
0.877216
0.937145
1.046
1.21058
2.88853e+07
4.25301e+07
3.10467e+07
3.70153e+07
3.67801e+07
2.84435e+07
1.82334e+07
1.09527e+07
7.54379e+06
5.01734e+06
3.28965e+06
1.96694e+06
1.04281e+06
592374
115987
244892
176690
187473
101063
27562.6
64137.4
143540
152591
61360.7
184331
32365.8
605553
611041
3.32125e+06
9.87879e+06
6.11299e+06
4.58062e+06
5.34692e+06
4.32087e+06
2.67611e+06
2.89931e+06
3.95375e+06
2.38008e+06
1.55037e+06
1.12037e+06
343543
48965.8
7726.74
1452.55
298.722
88.5041
55.4738
42.0475
27.9247
18.1334
12.446
8.8045
6.33358
4.62811
3.44495
2.62055
2.04311
1.63584
1.34769
1.14446
1.00374
0.910797
0.857369
0.838972
0.854643
0.906915
1.00109
1.14966
1.3708
2.98292e+07
4.34672e+07
3.17776e+07
3.70162e+07
3.66928e+07
2.81981e+07
1.81372e+07
1.10684e+07
7.50038e+06
5.0754e+06
3.39782e+06
1.93355e+06
949951
554537
240261
190202
279755
163496
157900
27283.9
80709.4
108494
130214
29740.3
173138
41259.9
511731
1.03959e+06
1.94135e+06
8.2703e+06
7.90594e+06
4.00981e+06
5.59674e+06
4.7008e+06
3.01432e+06
2.53901e+06
3.93182e+06
2.73046e+06
1.60904e+06
1.14105e+06
364855
51136.2
7923.76
1474.94
300.579
86.67
54.3512
42.4826
28.5127
18.5292
12.733
9.00974
6.47738
4.7275
3.5131
2.66677
2.07385
1.65567
1.35948
1.15018
1.00413
0.906619
0.848374
0.824719
0.833961
0.878115
0.962565
1.09531
1.29017
1.57527
3.05256e+07
4.45028e+07
3.20996e+07
3.6619e+07
3.62667e+07
2.80601e+07
1.8164e+07
1.11721e+07
7.36598e+06
5.09146e+06
3.48493e+06
2.00973e+06
900121
414423
359508
148743
320687
185301
167159
110947
96608
94231.9
74791.6
73539.4
124739
144936
457477
1.34841e+06
1.20583e+06
6.33284e+06
9.17204e+06
3.86538e+06
5.76297e+06
5.05874e+06
3.39133e+06
2.34799e+06
3.75483e+06
3.08515e+06
1.6219e+06
1.13355e+06
381150
52552
7993.86
1469.81
296.507
83.3313
52.4537
42.4921
29.1051
18.9087
13.0064
9.21001
6.62008
4.82819
3.5832
2.7152
2.10665
1.67728
1.3728
1.15692
1.00561
0.903344
0.840475
0.811654
0.814948
0.851716
0.92617
1.04654
1.22423
1.47211
1.82827
3.11453e+07
4.50767e+07
3.21091e+07
3.61078e+07
3.55721e+07
2.80016e+07
1.81651e+07
1.13615e+07
7.28039e+06
5.01835e+06
3.52425e+06
2.1111e+06
860517
369293
237309
338691
160062
274593
73452.7
218378
72929.8
93105.3
36906
82245.2
88241.4
249611
509995
1.58726e+06
1.29937e+06
4.63046e+06
9.40408e+06
4.76437e+06
5.84569e+06
5.39216e+06
3.76798e+06
2.31708e+06
3.42704e+06
3.41307e+06
1.66069e+06
1.13057e+06
393089
53049.8
7904.56
1432.89
284.478
78.1331
49.9381
41.9014
29.6296
19.3056
13.2554
9.39857
6.76094
4.93136
3.65677
2.76647
2.14176
1.70068
1.38764
1.16492
1.00834
0.90115
0.833677
0.799759
0.797387
0.826931
0.892555
1.00118
1.16282
1.39251
1.70034
2.13106
3.11117e+07
4.54237e+07
3.19281e+07
3.56679e+07
3.50503e+07
2.8055e+07
1.81795e+07
1.14626e+07
7.3485e+06
4.99424e+06
3.39463e+06
2.17842e+06
950914
424581
137884
469410
156788
326624
113056
286228
96736.2
132458
57738.5
48629.7
97587.4
350571
670547
1.72548e+06
1.8228e+06
3.40501e+06
8.82636e+06
6.36539e+06
5.63277e+06
5.60727e+06
4.12954e+06
2.45662e+06
3.03982e+06
3.64714e+06
1.7967e+06
1.15923e+06
399607
52324.9
7621.13
1359.74
263.525
70.5683
46.961
40.856
29.9306
19.7495
13.4884
9.573
6.90114
5.03465
3.72648
2.81318
2.17372
1.72278
1.40223
1.17392
1.01198
0.900139
0.828078
0.789269
0.78137
0.80424
0.861193
0.95849
1.10591
1.31625
1.60438
1.97748
2.47975
3.08439e+07
4.51035e+07
3.139e+07
3.56031e+07
3.46076e+07
2.83658e+07
1.82604e+07
1.15016e+07
7.40411e+06
5.09221e+06
3.25191e+06
2.06932e+06
1.04763e+06
280880
430792
282974
414815
151679
364177
213382
256810
146421
105739
60662.9
149728
479090
880891
1.96479e+06
2.48421e+06
2.88174e+06
7.75297e+06
7.88173e+06
5.14636e+06
5.76794e+06
4.47181e+06
2.66402e+06
2.63449e+06
3.75374e+06
2.05488e+06
1.19253e+06
393224
49983.9
7127.86
1250.94
234.53
60.6052
43.7426
39.8624
29.9334
20.1921
13.7537
9.73879
7.03547
5.12415
3.78887
2.85817
2.20531
1.74445
1.41682
1.18291
1.01615
0.900285
0.823517
0.780159
0.766831
0.783378
0.832278
0.919269
1.05274
1.24506
1.51073
1.86347
2.30159
2.86517
2.98815e+07
4.42746e+07
3.07632e+07
3.54237e+07
3.44792e+07
2.8737e+07
1.84983e+07
1.14549e+07
7.48722e+06
5.19492e+06
3.20875e+06
1.92075e+06
1.04734e+06
396430
412402
228670
515072
189562
534692
88746.8
410283
72732.6
224865
140803
251976
662925
1.20045e+06
2.29014e+06
3.07769e+06
2.98744e+06
6.55424e+06
8.96486e+06
4.66447e+06
5.90722e+06
4.79174e+06
2.91631e+06
2.28261e+06
3.67139e+06
2.36409e+06
1.18732e+06
371920
46578.6
6509.65
1118.52
200.636
49.5783
40.9435
39.246
29.8182
20.4869
14.1056
9.91403
7.14713
5.20576
3.8479
2.90094
2.23864
1.76947
1.43429
1.19386
1.02186
0.901136
0.820192
0.772387
0.753856
0.764415
0.805721
0.882777
1.00342
1.17889
1.4234
1.75044
2.17066
2.66685
3.27203
2.88273e+07
4.32157e+07
2.97555e+07
3.52389e+07
3.44619e+07
2.89278e+07
1.88752e+07
1.14959e+07
7.46506e+06
5.20757e+06
3.27636e+06
1.81388e+06
884677
574694
73408.9
491084
226838
483738
326223
327804
446128
188338
355845
184034
409239
900755
1.62772e+06
2.74001e+06
3.65871e+06
3.4704e+06
5.48536e+06
9.44059e+06
4.92088e+06
5.98112e+06
5.06804e+06
3.18518e+06
2.05439e+06
3.38902e+06
2.71793e+06
1.18028e+06
347701
42504
5793.22
970.84
164.365
38.5518
35.8874
39.1523
29.9316
20.5724
14.4623
10.1178
7.23562
5.28219
3.9023
2.94573
2.27176
1.79338
1.45134
1.20538
1.02864
0.903317
0.818129
0.765591
0.742538
0.74712
0.781199
0.848873
0.957387
1.11711
1.34164
1.64513
2.03774
2.52099
3.06062
3.68003
2.86027e+07
4.24719e+07
3.07341e+07
3.57379e+07