/*--------------------------------*- C++ -*----------------------------------*\
| =========                 |                                                 |
| \\      /  F ield         | OpenFOAM: The Open Source CFD Toolbox           |
|  \\    /   O peration     | Version:  v2012                                 |
|   \\  /    A nd           | Website:  www.openfoam.com                      |
|    \\/     M anipulation  |                                                 |
\*---------------------------------------------------------------------------*/
FoamFile
{
    version     2.0;
    format      ascii;
    class       volScalarField;
    location    "12000";
    object      Rew;
}
// * * * * * * * * * * * * * * * * * * * * * * * * * * * * * * * * * * * * * //

dimensions      [0 0 0 0 0 0 0];


internalField   nonuniform List<scalar> 
27324
(
5.63489e+07
6.33533e+07
9.98727e+07
6.78872e+07
1.1124e+08
1.06067e+08
7.28367e+07
1.1948e+08
1.15995e+08
9.75236e+07
7.74363e+07
1.28772e+08
1.23397e+08
1.05216e+08
7.45145e+07
8.07459e+07
1.38017e+08
1.31893e+08
1.11013e+08
7.88461e+07
4.83308e+07
8.31609e+07
1.45959e+08
1.4048e+08
1.17494e+08
8.17251e+07
5.00305e+07
2.92689e+07
8.55487e+07
1.53022e+08
1.47806e+08
1.23608e+08
8.46387e+07
5.09738e+07
3.01233e+07
1.79604e+07
8.784e+07
1.60206e+08
1.53927e+08
1.27986e+08
8.7167e+07
5.20897e+07
3.07347e+07
1.85142e+07
1.06365e+07
8.75112e+07
1.67329e+08
1.59455e+08
1.30874e+08
8.88248e+07
5.32221e+07
3.16173e+07
1.86738e+07
1.08989e+07
5.8328e+06
6.82198e+07
1.67047e+08
1.64662e+08
1.33219e+08
9.0087e+07
5.40301e+07
3.23442e+07
1.90432e+07
1.07752e+07
6.11087e+06
2.72035e+06
3.95122e+07
1.33597e+08
1.59607e+08
1.35596e+08
9.13877e+07
5.47327e+07
3.24415e+07
1.92875e+07
1.09473e+07
5.8735e+06
2.9933e+06
750630
2.20366e+07
7.87985e+07
1.34748e+08
1.33439e+08
9.24207e+07
5.51865e+07
3.23014e+07
1.89826e+07
1.107e+07
5.98207e+06
2.63176e+06
1.10849e+06
268684
1.72266e+07
4.33333e+07
8.2629e+07
1.20162e+08
9.40181e+07
5.48969e+07
3.17828e+07
1.88555e+07
1.06404e+07
6.09522e+06
2.67157e+06
738370
286449
786931
1.64073e+07
3.36943e+07
4.58808e+07
7.91009e+07
8.42761e+07
5.50005e+07
3.17126e+07
1.84098e+07
1.0651e+07
5.69873e+06
2.764e+06
689334
8510.87
72948.2
912222
1.63722e+07
3.21211e+07
3.54559e+07
4.88311e+07
5.99005e+07
5.01871e+07
3.02896e+07
1.79518e+07
1.03242e+07
5.69806e+06
2.51299e+06
715008
190374
350278
38993.2
687791
1.70204e+07
3.21591e+07
3.36692e+07
3.86405e+07
4.3512e+07
3.62374e+07
3.05674e+07
2.02711e+07
9.40375e+06
5.213e+06
2.29487e+06
614635
250877
642991
406314
67737.2
560349
1.78452e+07
3.3455e+07
3.36642e+07
3.60401e+07
3.7434e+07
3.01508e+07
1.96303e+07
1.93522e+07
1.5389e+07
6.07739e+06
1.93796e+06
146182
287566
776176
646330
500796
64847.8
513856
1.86034e+07
3.43904e+07
3.43111e+07
3.5418e+07
3.45282e+07
2.99858e+07
1.75733e+07
1.04347e+07
1.18672e+07
1.08116e+07
4.3123e+06
143027
731856
660124
718749
523333
225217
403204
238178
1.93464e+07
3.52318e+07
3.43709e+07
3.51409e+07
3.35477e+07
2.78709e+07
2.05387e+07
9.63592e+06
5.31166e+06
6.14216e+06
7.13111e+06
4.52472e+06
970897
14307.5
11089
322519
1.07909e+06
28042.5
1.68726e+06
1236.81
1.98584e+07
3.59322e+07
3.43386e+07
3.49517e+07
3.29236e+07
2.71654e+07
1.95434e+07
1.31191e+07
4.85303e+06
2.77204e+06
1.53965e+06
2.9385e+06
4.6517e+06
3.73728e+06
2.23166e+06
1.96312e+06
1.74694e+06
1.77989e+06
2.57683e+06
2.06932e+06
337140
2.01485e+07
3.63204e+07
3.41516e+07
3.47951e+07
3.2727e+07
2.70981e+07
1.89395e+07
1.24079e+07
8.33143e+06
2.80411e+06
1.51273e+06
1.08072e+06
851409
1.50784e+06
3.31429e+06
2.79492e+06
2.43131e+06
1.24958e+06
752643
661743
2.7507e+06
263861
2.02688e+07
3.64745e+07
3.38694e+07
3.46675e+07
3.2866e+07
2.74068e+07
1.91785e+07
1.15405e+07
8.03412e+06
5.57209e+06
1.72785e+06
1.03457e+06
1.71224e+06
2.36074e+06
2.04309e+06
612481
397006
696541
1.2216e+06
2.00678e+06
1.81878e+06
2.82884e+06
745773
2.02581e+07
3.64529e+07
3.35779e+07
3.46083e+07
3.3182e+07
2.78121e+07
1.94959e+07
1.13097e+07
7.08078e+06
6.42592e+06
2.85814e+06
1.14199e+06
635938
1.08125e+06
1.63879e+06
1.94307e+06
1.67632e+06
1.59832e+06
1.44627e+06
1.12634e+06
766076
56876
246290
176794
2.00849e+07
3.62267e+07
3.33419e+07
3.46178e+07
3.37198e+07
2.82571e+07
1.96749e+07
1.11928e+07
6.76063e+06
5.42488e+06
4.74603e+06
421262
1.17511e+06
356146
457377
777910
752097
749812
585355
360546
65663.7
43648.8
139246
1.62623e+06
274897
1.97797e+07
3.57734e+07
3.31649e+07
3.48301e+07
3.43415e+07
2.86501e+07
1.97641e+07
1.11042e+07
6.82041e+06
4.95223e+06
3.97535e+06
2.72855e+06
453501
892224
243693
135935
104470
163232
203206
165006
107041
15825.2
54139
183049
1.24072e+06
259755
1.94719e+07
3.52967e+07
3.31263e+07
3.53151e+07
3.49757e+07
2.89136e+07
1.96766e+07
1.10048e+07
6.75169e+06
4.9669e+06
3.3147e+06
2.88535e+06
851953
316051
646514
84804.1
17829.8
44372.9
65129.4
30222
2843.31
31307.2
3764.9
68019.8
389536
176358
209559
1.93948e+07
3.50147e+07
3.33817e+07
3.59914e+07
3.55386e+07
2.89623e+07
1.94751e+07
1.0926e+07
6.71551e+06
4.89018e+06
3.15281e+06
2.12368e+06
2.25269e+06
737259
101759
222532
34297
11853.2
18519.1
65396.2
120345
111004
20970.8
39348.3
446666
33557.2
151170
171703
1.96206e+07
3.51317e+07
3.38439e+07
3.67347e+07
3.58528e+07
2.88124e+07
1.92299e+07
1.08906e+07
6.66029e+06
4.86964e+06
3.14199e+06
1.91586e+06
1.55211e+06
1.46485e+06
1.30427e+06
308690
15514.3
10585.9
49120.2
78927.2
109431
124480
22180.9
29888
101338
446211
351782
134018
145447
2.00034e+07
3.56073e+07
3.43019e+07
3.73514e+07
3.58067e+07
2.85655e+07
1.89967e+07
1.09058e+07
6.61762e+06
4.87355e+06
3.13853e+06
1.96723e+06
1.15213e+06
1.33954e+06
139102
465274
149613
184997
70310.4
78397.8
90233.6
131233
49008.2
53369.6
65836.1
538890
172557
281290
82937.2
105361
2.049e+07
3.63574e+07
3.46223e+07
3.75951e+07
3.56128e+07
2.82967e+07
1.88699e+07
1.09461e+07
6.59152e+06
4.90321e+06
3.17593e+06
1.97248e+06
1.10053e+06
773585
1.05229e+06
795843
322283
6230.52
5658.58
75317.9
70390.8
132058
74512.9
26816.3
59957.9
351910
132041
332044
175061
24872.9
46812
2.1313e+07
3.72923e+07
3.51452e+07
3.74748e+07
3.53173e+07
2.81128e+07
1.89184e+07
1.10051e+07
6.59794e+06
4.94516e+06
3.21689e+06
1.99004e+06
1.0567e+06
597578
554852
603447
904677
61880.4
96256.3
73482.4
68434.5
132103
90310.2
19886.1
51514.3
54855.9
481484
351470
212477
100434
37253.6
11528.7
2.19163e+07
3.8287e+07
3.52193e+07
3.70536e+07
3.50334e+07
2.81021e+07
1.90207e+07
1.10603e+07
6.65396e+06
4.98283e+06
3.24049e+06
1.98945e+06
1.03275e+06
575277
217867
723946
81437
514641
119115
73791
73844.2
131388
93806.5
41452.7
42722.9
84411.3
565517
207586
282874
114071
34293.4
81524.9
33955.3
2.22985e+07
3.87806e+07
3.48019e+07
3.61663e+07
3.45732e+07
2.82716e+07
1.91781e+07
1.10989e+07
6.73947e+06
5.00603e+06
3.24473e+06
1.96689e+06
1.01982e+06
556772
160212
258796
761298
453103
103226
34355.8
72649.9
126798
99086.9
59669.2
9689.65
40983.9
346909
107462
350417
148596
40748
23792.9
91716.3
21526.2
2.23704e+07
3.88455e+07
3.41893e+07
3.53301e+07
3.44043e+07
2.86921e+07
1.93379e+07
1.11201e+07
6.83377e+06
4.98742e+06
3.23483e+06
1.94497e+06
1.00708e+06
566162
152352
82364.7
542394
236007
365499
163434
71201.7
115676
99655.1
81103.7
1452.86
72090.2
53042.3
438508
368636
194293
59655.8
19245.3
62022.1
18463.3
54550.5
2.22061e+07
3.84947e+07
3.36273e+07
3.47414e+07
3.47517e+07
2.91683e+07
1.94056e+07
1.11093e+07
6.91854e+06
4.94287e+06
3.20217e+06
1.92821e+06
1.01131e+06
562311
152429
62130.8
215646
614195
252930
331858
147477
90049.7
106191
88823.8
49685.9
99858.8
86484.1
540290
257185
257610
80295
4258.23
69287.1
4626.66
30877.2
28069.5
2.19405e+07
3.80961e+07
3.31313e+07
3.47597e+07
3.50518e+07
2.95875e+07
1.93621e+07
1.10763e+07
6.98122e+06
4.8828e+06
3.16834e+06
1.92176e+06
1.02533e+06
563222
156640
45243.3
130125
266458
559756
530046
229852
78822.4
112434
105646
56754.7
67051.5
50091.8
351834
13221.1
326529
108099
8046.78
63455.4
17892.3
47691.7
17144.4
4794.84
2.13569e+07
3.71705e+07
3.29174e+07
3.50969e+07
3.53303e+07
2.97996e+07
1.91085e+07
1.10285e+07
7.03622e+06
4.84657e+06
3.14219e+06
1.92523e+06
1.04628e+06
560223
158752
44290.8
118739
45236.3
615504
10805.2
461522
129611
114653
112587
73174.9
24345.2
83016.6
65296
332650
364378
148528
19403.1
52537.5
27892.6
41805.2
34411
1526.55
41.3421
2.11946e+07
3.66661e+07
3.27632e+07
3.54708e+07
3.55163e+07
2.96479e+07
1.88811e+07
1.09998e+07
7.1378e+06
4.71047e+06
3.1241e+06
1.94068e+06
1.06445e+06
550968
164139
38318.3
109995
23888.8
237233
667238
581362
288289
118825
95926.4
75444.7
5359.92
98370.9
95929.6
494061
308688
202597
38671.6
36029.1
40663.4
37182.3
35043.9
7116.73
3659.4
311.572
2.14077e+07
3.68071e+07
3.35046e+07
3.63368e+07
3.56052e+07
2.93298e+07
1.87006e+07
1.10082e+07
7.13993e+06
4.66956e+06
3.12185e+06
1.94842e+06
1.08224e+06
536306
168857
44897.1
104008
3923
73247.4
570715
38666.2
471129
267862
54373.4
86547
28845.7
65923.1
73907.5
388780
114532
264119
67434.6
26310.2
52730.8
32023.8
39628.2
7247.74
985.31
1062.49
427.377
2.18891e+07
3.73336e+07
3.41318e+07
3.70551e+07
3.55956e+07
2.90291e+07
1.86239e+07
1.10409e+07
7.19724e+06
4.66068e+06
3.10576e+06
1.98145e+06
1.09083e+06
521011
173134
43047.2
103154
8836.9
53480.1
174621
711919
597745
277761
27311.3
93110.4
48851
39358
49567.2
125708
172867
314822
103296
17822.4
62682.1
24860.3
42790.6
11070.7
1748.48
254.868
28.8314
242.984
2.22823e+07
3.79776e+07
3.45064e+07
3.70978e+07
3.53221e+07
2.86361e+07
1.86106e+07
1.1099e+07
7.26823e+06
4.65479e+06
3.10269e+06
2.00794e+06
1.09831e+06
508717
184773
42932.5
94503
3531.16
43231.8
24886.5
629297
114671
478683
135314
77385.5
62366.3
4765.48
103231
82719.3
400047
313812
146550
2314.13
69528.2
19167.2
46780.8
13666.9
1558.26
663.849
331.312
146.881
90.4439
2.3244e+07
3.83962e+07
3.4457e+07
3.69798e+07
3.52055e+07
2.83358e+07
1.86712e+07
1.11393e+07
7.33653e+06
4.66761e+06
3.06515e+06
2.00005e+06
1.10551e+06
483736
195268
44004.4
89208.3
15648.2
34275.1
20765.2
133033
718095
689499
241229
26392.9
86703.6
23742
80133.9
121015
419060
212107
195759
18200.2
72766.7
10977.4
50666.6
17160.5
1520.92
846.138
265.22
261.914
67.3086
28.3789
2.36949e+07
3.91637e+07
3.42095e+07
3.67729e+07
3.52664e+07
2.84754e+07
1.88088e+07
1.13296e+07
7.36436e+06
4.65083e+06
3.04858e+06
1.99402e+06
1.08665e+06
464923
203341
45665.5
77922.2
14127.1
38136.2
30904.1
85129.4
883555
402766
423571
14883.6
98963.5
43066
39453.3
18279.6
229722
973.166
242613
41440.6
69328.5
122.796
54334.1
20655.1
1221.83
1180.27
275.968
274.26
107.271
19.5706
16.7565
2.36537e+07
3.90312e+07
3.33748e+07
3.66379e+07
3.54868e+07
2.85796e+07
1.88946e+07
1.14494e+07
7.45087e+06
4.62081e+06
3.01609e+06
2.01868e+06
1.08239e+06
449887
214619
44897.7
69612.2
22014.3
25361.5
28511.5
70689.7
341290
471189
643020
203964
64886.7
57605.3
3729.84
114947
11878.1
239968
263043
71329.8
55653.3
13049.8
56435.8
24658.6
666.528
1570.36
244.979
315.282
118.752
31.3333
10.6255
26.7053
2.34331e+07
3.86465e+07
3.25861e+07
3.63436e+07
3.57195e+07
2.86334e+07
1.88807e+07
1.15847e+07
7.42353e+06
4.59642e+06
2.9867e+06
2.04395e+06
1.09597e+06
435181
222870
49263.4
62147.3
27102.1
36510.1
29702.2
36115.6
19281.5
1.04368e+06
648481
342844
6472.04
82052.4
25578.7
85561.6
145270
372874
220667
110471
30587.8
25857.6
56012.1
29171.5
205.929
2046.49
197.822
351.585
140.126
34.052
13.5184
22.3405
34.8892
2.29244e+07
3.83066e+07
3.24783e+07
3.66598e+07
3.60618e+07
2.86126e+07
1.88431e+07
1.17019e+07
7.36727e+06
4.53206e+06
2.97675e+06
2.06067e+06
1.10268e+06
431987
230500
43732.5
48847.2
33382
37779.8
7608.29
19522
32982.1
706574
106859
547201
17925
98110.5
35065.6
18548.1
112492
319323
107034
176745
5587.19
39714.2
51832.7
34356.6
1524.8
2583.16
111.456
393.086
162.672
39.9706
12.9261
22.2758
33.1765
30.6438
2.26772e+07
3.77965e+07
3.2717e+07
3.69271e+07
3.61502e+07
2.83728e+07
1.88218e+07
1.18088e+07
7.28849e+06
4.49573e+06
2.99145e+06
2.08724e+06
1.09473e+06
426679
239902
50527.3
42245.5
40445.1
36616.2
13270.7
22631.7
25275.2
77008.8
803382
740199
196714
62741.3
53067.3
450.662
18715.3
122968
65976.1
214995
41137.1
51694
44517.9
40405.9
3300.65
3172.85
18.5132
435.801
189.53
46.5921
13.3376
20.6159
33.3417
30.757
21.4837
2.33385e+07
3.83572e+07
3.33379e+07
3.70988e+07
3.58117e+07
2.80084e+07
1.88025e+07
1.18947e+07
7.20267e+06
4.46726e+06
3.03976e+06
2.13912e+06
1.08787e+06
408947
246121
59726
35172.6
43086.7
40967.4
18474.4
19242.7
43923.4
150242
1.05104e+06
587104
351504
17180.6
76761.4
37501.5
71720.1
84875.6
245421
210695
70770.6
68151.5
34362.5
47000.4
5603.51
3797.28
201.35
477.562
220.517
54.7989
13.6673
19.2762
32.7438
31.5504
21.9544
14.6022
2.41027e+07
3.94808e+07
3.43613e+07
3.74421e+07
3.54252e+07
2.77488e+07
1.89423e+07
1.20617e+07
7.14306e+06
4.45132e+06
3.08525e+06
2.16198e+06
1.08581e+06
393766
244735
64896.9
28464.6
48420.8
45695.4
28310.9
22916.8
12351.9
74305
537207
104309
552954
43148
108415
38863.5
35312.8
180219
340363
161050
93029
63468.1
24650.2
53328.6
8409.71
4459.9
441.162
514.421
256.171
64.7336
14.41
17.8615
32.1791
32.0398
22.6635
14.9381
10.3161
2.46403e+07
4.03466e+07
3.45376e+07
3.71228e+07
3.4693e+07
2.76627e+07
1.91653e+07
1.20873e+07
6.9908e+06
4.4497e+06
3.13592e+06
2.16817e+06
1.07597e+06
394286
258124
64535.5
23012.9
58470.1
41955.9
26995.4
15143.3
7663.95
350.376
19349.7
949400
709442
153822
95356.5
43901.8
17876.4
134786
295300
53685.1
110771
39411.4
13402.4
58192.6
11926.5
5151.87
735.457
545.25
296.06
76.697
15.4928
16.4601
31.498
32.5656
23.2451
15.3842
10.5496
7.51006
2.55685e+07
4.07313e+07
3.438e+07
3.66604e+07
3.42315e+07
2.75862e+07
1.93325e+07
1.21563e+07
6.91779e+06
4.4112e+06
3.19273e+06
2.16973e+06
1.05246e+06
394234
257124
73978.5
22214.3
63285.8
37134
17031.3
13233.3
8726.91
14266.3
169281
1.05653e+06
512498
359774
20354.5
64944.9
53439.7
19390.4
144147
98498.7
128055
4792.2
5575.03
60062.4
16204.7
5816.61
1087.42
568.559
339.719
91.162
17.0314
15.0566
30.7326
33.0279
23.8764
15.755
10.8376
7.68295
5.57085
2.52996e+07
4.10193e+07
3.40878e+07
3.63561e+07
3.41882e+07
2.78762e+07
1.98319e+07
1.21705e+07
6.83589e+06
4.40821e+06
3.25567e+06
2.18075e+06
1.03239e+06
381861
266932
72639.9
18128.5
72033.6
33944.4
7192.29
10131.9
6791.46
4375.72
83347.1
498060
186875
563766
42773.9
110734
68845.3
12593.2
20828
212115
116865
70319.5
4930.44
58301.6
21313.9
6339.12
1527.31
587.589
385.955
108.214
19.1179
13.677
29.8684
33.4488
24.5137
16.1602
11.073
7.8806
5.70262
4.19828
2.50025e+07
4.03121e+07
3.32454e+07
3.61713e+07
3.42369e+07
2.81741e+07
2.0147e+07
1.21875e+07
6.7719e+06
4.41956e+06
3.29564e+06
2.15284e+06
1.03438e+06
374268
255668
84341.2
15435.7
61474.7
32220.8
511
4377.23
5023.19
11127.5
5265.47
46823.1
978454
703058
58844.3
148370
34847.9
48634.5
132332
254563
93411.1
124488
24973
54382.3
27258.2
6467.58
2077.72
606.164
435.125
127.957
21.8987
12.3121
28.9172
33.8173
25.1682
16.5752
11.3311
8.04217
5.83979
4.30052
3.21817
2.48829e+07
4.00456e+07
3.28939e+07
3.5948e+07
3.42758e+07
2.83771e+07
2.03549e+07
1.20956e+07
6.63925e+06
4.42861e+06
3.36644e+06
2.1394e+06
998492
384277
247856
91096.4
15491.6
51691.6
26800.9
9695.25
3019.63
10923.5
12615.9
24506
194080
1.12018e+06
540542
369300
131019
25658.5
71791.8
150345
241280
1586.97
123817
18568.5
45015.9
33633.4
6018.69
2799.56
618.732
487.677
150.058
25.5058
10.9987
27.8719
34.1272
25.8293
17.0079
11.5952
8.21978
5.9545
4.39399
3.29809
2.51543
2.51025e+07
4.00873e+07
3.28728e+07
3.5967e+07
3.43244e+07
2.85179e+07
2.04723e+07
1.20026e+07
6.52096e+06
4.48354e+06
3.40069e+06
2.15217e+06
984759
373016
254786
92640.7
14111.3
61889.8
21350.3
7946.24
4821
12035.9
2139.79
3724.22
108420
599776
60222.6
512779
58374.6
42810.2
105110
125154
187646
117216
98785.4
5810.9
39564.6
39434.7
4770.37
3708.31
621.125
545.579
174.441
29.9574
9.77332
26.7352
34.3782
26.4929
17.4561
11.8698
8.40098
6.07944
4.47533
3.36043
2.57837
2.01051
2.57989e+07
4.07285e+07
3.29405e+07
3.58217e+07
3.43801e+07
2.87521e+07
2.06094e+07
1.1898e+07
6.46507e+06
4.60148e+06
3.47364e+06
2.14371e+06
986410
369507
240075
94698.3
5432.53
68514.2
33105.9
6593.56
1361.24
17207.9
9553.35
12875.2
5901.84
27109
814174
621594
45803.6
102842
82164.9
168704
112207
209164
75833.9
45481.9
37014.3
43205.8
2819.97
4768.9
596.455
611.362
200.959
35.278
8.70283
25.5037
34.559
27.1582
17.9202
12.1542
8.58969
6.20778
4.56349
3.41758
2.61877
2.06027
1.64706
2.64445e+07
4.1608e+07
3.31091e+07
3.55346e+07
3.44125e+07
2.89608e+07
2.0632e+07
1.18229e+07
6.42747e+06
4.71746e+06
3.50651e+06
2.11411e+06
979929
386303
230385
102962
6091.56
66013.1
40445.7
432.399
4997.08
17512.4
20844.3
13236.8
3472.2
207852
1.14662e+06
592337
240226
164703
55635.6
226714
52639.1
221058
9687.48
111357
36716.7
43673.9
303.294
5895.28
527.987
686.319
230.053
41.3752
7.81786
24.1805
34.6636
27.8188
18.4014
12.4494
8.78534
6.34143
4.65443
3.4791
2.65845
2.0846
1.68585
1.38542
2.70781e+07
4.21471e+07
3.30553e+07
3.52992e+07
3.44598e+07
2.92287e+07
2.05378e+07
1.15995e+07
6.34734e+06
4.84509e+06
3.51368e+06
2.10484e+06
955460
404592
216541
102450
21452.4
68016.1
40523
4298.59
1477.48
9621.28
25684.9
6949.57
27843.4
155828
803474
117216
486543
172320
30430
177283
11334.1
192195
39318.2
158851
24095.9
41211.3
2461.91
6924.6
410.072
766.958
262.677
48.1984
7.16894
22.774
34.6814
28.473
18.8992
12.755
8.98874
6.48051
4.74915
3.54305
2.70074
2.11155
1.69898
1.4153
1.19862
2.70441e+07
4.23881e+07
3.2828e+07
3.50879e+07
3.46457e+07
2.96178e+07
2.04845e+07
1.13986e+07
6.35093e+06
4.93394e+06
3.5227e+06
2.06967e+06
973091
396798
219263
107933
27216.3
73722.6
43833.7
9910.54
1802.65
1726.58
23527.1
1553.1
42800.2
37393.8
229419
529812
638366
143473
34664.7
138819
56115.6
156750
145348
140401
46808.1
37660.5
5275.17
7711.84
245.797
847.793
299.225
55.9141
6.67146
21.2937
34.6054
29.1174
19.414
13.0728
9.19979
6.62494
4.84812
3.60986
2.74486
2.14003
1.71648
1.42006
1.2203
1.0677
2.70599e+07
4.20657e+07
3.24305e+07
3.50573e+07
3.47377e+07
2.99385e+07
2.03422e+07
1.11931e+07
6.40238e+06
5.04095e+06
3.48911e+06
2.03295e+06
960557
432891
212602
120672
35413.6
63585.3
45948.6
9713.87
4392.99
4143.39
18299.6
2880.85
45454.2
26508.1
143768
997580
614579
231722
65454
83834.9
139053
117624
230544
92650.1
61348.8
36527.9
7479.2
8219.95
64.8947
925.441
339.416
64.7675
6.21569
19.7706
34.4305
29.7464
19.9456
13.4018
9.41855
6.7755
4.95095
3.67945
2.79149
2.17002
1.73481
1.43039
1.21898
1.082
0.97954
2.73481e+07
4.18161e+07
3.22245e+07
3.52197e+07
3.48026e+07
3.02001e+07
2.00786e+07
1.09822e+07
6.45296e+06
5.11208e+06
3.44671e+06
1.99857e+06
953352
438617
198696
119865
32444
62287.5
38810.4
1906.91
11775.4
1966.25
11479.5
6634.95
24278
6137.41
207425
972148
383812
507307
97604
52080.8
171220
97285.7
264889
50362.7
121890
40066.9
8155.57
8596.26
107.175
998.712
381.022
75.1415
5.7014
18.2036
34.1573
30.3547
20.4933
13.7431
9.64574
6.93168
5.05833
3.75236
2.84024
2.2018
1.75463
1.44123
1.22378
1.07601
0.987135
0.926547
2.76847e+07
4.17104e+07
3.19734e+07
3.54055e+07
3.50539e+07
3.02733e+07
1.98747e+07
1.07642e+07
6.58419e+06
5.15556e+06
3.41461e+06
1.95107e+06
950578
447161
179207
116086
35759.5
61123.5
29937.2
4992.97
9564.37
6495.65
4871.38
13694.3
2003.06
34616.4
110736
558090
80473.1
482499
117569
21317.6
174591
50094.5
249145
26579.7
182144
44650.9
6269.13
8979.82
254.889
1075.79
421.75
87.0122
5.25057
16.5802
33.7981
30.9338
21.0553
14.0964
9.88145
7.09439
5.17019
3.82849
2.89135
2.2355
1.77577
1.45321
1.22873
1.07599
0.977033
0.926903
0.903287
2.76969e+07
4.15433e+07
3.15482e+07
3.56666e+07
3.52751e+07
3.01749e+07
1.96164e+07
1.05927e+07
6.81664e+06
5.19578e+06
3.39609e+06
1.93943e+06
940445
458322
157813
115217
37220.1
65812.4
28906
4296.09
8698.72
12942.9
843.295
14882.4
8969.87
47313.9
5989.36
94290
536680
400369
206169
5871.13
173957
9306.57
208443
89688.6
205929
37711.1
2507.24
9373.9
406.593
1171.5
459.603
99.9175
5.0155
14.8573
33.3733
31.4732
21.6314
14.4621
10.1262
7.26326
5.28644
3.90787
2.94467
2.271
1.79813
1.46642
1.23464
1.07585
0.972538
0.913049
0.896209
0.906979
2.74692e+07
4.10541e+07
3.09205e+07
3.60691e+07
3.55726e+07
3.00879e+07
1.92223e+07
1.04911e+07
6.99973e+06
5.18735e+06
3.37742e+06
1.94197e+06
942435
464196
152027
107318
52554.9
58476.3
16250.1
4034.45
5800.88
17208.2
1417.84
4703.78
16303.6
33774.5
8073.68
182633
766375
443358
475133
5680.8
151128
70524.7
155997
175217
167881
66883.6
833.49
9795.59
544.988
1286.71
495.739
112.862
5.12461
13.0396
32.8658
31.9695
22.2188
14.8396
10.3801
7.43869
5.40738
3.99038
3.00058
2.30807
1.82213
1.48083
1.24158
1.07708
0.968104
0.904447
0.878325
0.89181
0.937474
2.74061e+07
4.07028e+07
3.03273e+07
3.64192e+07
3.60028e+07
2.98556e+07
1.89046e+07
1.05124e+07
7.17497e+06
5.14442e+06
3.35242e+06
1.9479e+06
952685
464205
135871
107359
55851.7
65658.5
10356.6
115.69
10925.4
27612
366.978
4271.94
18323.3
18827.8
47019.8
231541
661569
199794
673451
6386.54
125982
84309.9
122699
241690
117070
101733
607.2
10718.2
684.286
1412.99
533.295
124.606
5.61089
11.1714
32.2559
32.4228
22.8108
15.2304
10.6427
7.62088
5.53343
4.07658
3.05901
2.34707
1.84761
1.49626
1.24981
1.07912
0.965151
0.896035
0.865266
0.869224
0.912557
0.995164
2.76671e+07
4.07629e+07
3.02118e+07
3.67352e+07
3.63988e+07
2.94126e+07
1.8678e+07
1.05456e+07
7.3039e+06
5.06898e+06
3.35564e+06
1.98095e+06
949419
470551
123315
113900
68393
72837.2
4963.32
1397.48
5472.05
34436.6
8221.66
9177.98
8582.38
13439.2
68925.1
169173
372268
202402
525524
19826.6
95578.5
99133.2
87059.2
247037
79490.4
166154
3673.21
13102.8
801.088
1535.5
573.551
135.136
6.22937
9.3583
31.5194
32.8314
23.4005
15.6324
10.9155
7.81052
5.66447
4.16652
3.12019
2.38812
1.8745
1.51303
1.25886
1.08207
0.962998
0.888794
0.852617
0.851303
0.884871
0.959391
1.08317
2.82898e+07
4.13225e+07
3.0444e+07
3.69443e+07
3.66789e+07
2.89189e+07
1.84412e+07
1.07062e+07
7.38871e+06
5.01262e+06
3.36365e+06
1.98955e+06
966399
458590
104245
113590
78567.3
92109.4
4445.1
3384.53
17127.7
34499.4
462.758
4789.44
308.895
9122.05
65607.4
99257.3
92287.6
508741
319389
165184
85697.5
82351.3
41038.7
203431
280.93
213662
5731.33
17631.3
887.803
1648.14
615.162
144.797
6.61909
7.69891
30.6523
33.1882
23.9873
16.0456
11.1978
8.00737
5.80112
4.26053
3.18395
2.43116
1.90293
1.53095
1.26904
1.08615
0.961618
0.882535
0.8412
0.834189
0.861255
0.925507
1.03453
1.20579
2.88872e+07
4.25306e+07
3.10439e+07
3.70051e+07
3.67852e+07
2.84941e+07
1.82776e+07
1.09066e+07
7.45104e+06
4.99748e+06
3.38277e+06
2.01775e+06
962064
427560
101953
108951
83432.2
90683.9
10822.7
13890.3
16617.6
23453.3
14113.6
956.315
6170.49
1853.05
47558.3
102360
68743
654839
217190
424178
85661.1
73059.8
17522.8
171190
77682.1
204584
4554.64
22619
866.386
1754.84
652.573
154.426
6.65259
6.16311
29.6938
33.4673
24.5707
16.4696
11.4903
8.21131
5.94286
4.35789
3.25043
2.47593
1.93282
1.55017
1.28032
1.09112
0.961459
0.877379
0.831125
0.818532
0.838909
0.894851
0.992431
1.14118
1.36719
2.98335e+07
4.34718e+07
3.17822e+07
3.70128e+07
3.66812e+07
2.82054e+07
1.82055e+07
1.11143e+07
7.43663e+06
4.97895e+06
3.41413e+06
2.03254e+06
956742
412594
86479
114664
97917
95992.6
17446.7
14031.6
34106.3
18840.7
12594.7
2201.09
12553.1
8171.91
41561.6
139088
113784
488142
50604.5
637893
94293.8
53789.3
56577.5
123243
148779
167573
29555.1
25054.2
743.136
1854.05
682.944
163.562
6.47649
4.66667
28.6939
33.6393
25.1492
16.9037
11.7919
8.42273
6.08974
4.45897
3.31958
2.5229
1.96425
1.57063
1.29264
1.09731
0.962205
0.873451
0.8223
0.804409
0.818298
0.866188
0.953521
1.08892
1.28395
1.57254
3.05336e+07
4.45075e+07
3.21071e+07
3.66284e+07
3.62612e+07
2.80452e+07
1.81801e+07
1.12555e+07
7.406e+06
5.01049e+06
3.39877e+06
2.06873e+06
939988
360631
91668.9
127972
85926.2
97185.6
23377.6
27905.9
40491.6
16312.1
9285.87
4633.61
11968.9
19313.8
22380.2
160194
111711
230508
187072
719991
27226.4
33441.5
63344.6
104306
171747
130295
77383.1
23020
929.906
1930.56
705.308
171.126
6.49863
3.11433
27.6664
33.7045
25.7099
17.3482
12.1018
8.63991
6.24051
4.56332
3.3912
2.57198
1.99742
1.5926
1.30629
1.10436
0.963951
0.870371
0.814528
0.791421
0.799342
0.839812
0.9172
1.03981
1.21956
1.46756
1.8262
3.11431e+07
4.50829e+07
3.21095e+07
3.61153e+07
3.55859e+07
2.79922e+07
1.81477e+07
1.1391e+07
7.37622e+06
5.04013e+06
3.42286e+06
2.05954e+06
939943
348197
87158.2
132391
91136.7
106121
26274.2
18348.7
34302.8
16972.3
19773.1
19654.3
8794.62
26570.9
7688.47
147736
120443
49014.5
530794
539341
21061.9
18916
52870.6
89273.5
158359
66168.7
129414
19363.6
2079.65
1969.92
720.419
176.412
6.72367
1.54253
26.6114
33.69
26.2268
17.8104
12.4174
8.86123
6.39615
4.67186
3.4665
2.62377
2.03266
1.61604
1.32126
1.11251
0.966832
0.868301
0.807813
0.779563
0.781796
0.815032
0.883581
0.994489
1.15784
1.38912
1.69703
2.12947
3.11049e+07
4.54216e+07
3.19276e+07
3.56614e+07
3.50598e+07
2.80715e+07
1.81678e+07
1.14433e+07
7.39475e+06
5.09615e+06
3.38691e+06
2.06073e+06
958040
303924
80654.1
157809
94748
122198
27154.7
5000.02
30156
18988.3
23677.1
20405.1
26015.6
40211.1
26424.8
104352
155198
1011.88
607584
260973
209865
16957.8
40993.8
26817.4
118678
11527.6
140683
25338.3
3924.92
1985.52
730.736
179.435
6.95649
0.12627
25.4908
33.6091
26.7009
18.2857
12.7374
9.08602
6.55621
4.78412
3.54152
2.67376
2.06646
1.63898
1.33627
1.12165
0.970516
0.86732
0.802239
0.769074
0.76576
0.792318
0.8522
0.951778
1.10095
1.3126
1.60194
1.97508
2.47852
3.08495e+07
4.5109e+07
3.13944e+07
3.55957e+07
3.45958e+07
2.83807e+07
1.82849e+07
1.14859e+07
7.38519e+06
5.16589e+06
3.35106e+06
2.01447e+06
921101
339741
79541.7
144150
88257.5
126976
28562.5
16497
34898.5
29222.3
8200
4256.68
3010.42
75489.4
42397.7
73648.1
189004
18603.9
503743
16156.6
565660
8961.29
24744.1
11937.9
78284.4
74652.8
134475
15836.3
5319
2019.3
738.064
181.215
6.87146
0.989644
24.4037
33.5438
27.1567
18.7489
13.0659
9.31206
6.71815
4.89247
3.61548
2.72494
2.10122
1.6622
1.3515
1.13086
0.974759
0.867441
0.797625
0.759921
0.751169
0.771404
0.82324
0.912527
1.04776
1.24141
1.50806
1.86173
2.29985
2.86421
2.98744e+07
4.42898e+07
3.07884e+07
3.54361e+07
3.44633e+07
2.87191e+07
1.85182e+07
1.14889e+07
7.46572e+06
5.18354e+06
3.31052e+06
1.99263e+06
923490
321113
77704.7
169764
98938.7
126391
18110.2
5250.39
50209.5
34635.3
4126.39
37156.7
3555.02
73792.3
49914
78595.3
124275
21569.5
298191
155174
742171
11886.9
1618.62
51737.5
52637.5
119298
121851
13719.4
5085.52
2097.64
749.014
183.532
6.74663
1.97088
23.8698
33.5171
27.5964
19.1809
13.4027
9.53728
6.87408
5.00125
3.68965
2.77525
2.13796
1.68859
1.36942
1.14195
0.980432
0.868222
0.794212
0.752047
0.738106
0.752364
0.796615
0.875983
0.998404
1.17522
1.42073
1.7485
2.16943
2.66558
3.27128
2.88721e+07
4.31806e+07
2.97769e+07
3.52835e+07
3.44862e+07
2.89051e+07
1.88451e+07
1.15257e+07
7.50457e+06
5.17914e+06
3.28248e+06
1.92929e+06
904882
336096
122964
168464
70763.4
111675
27072.8
3181.75
37760.2
53914.7
15679.5
45266.4
9677.4
69595.1
58043.6
52966.3
88541.1
95606.2
188276
321969
669636
36683.9
21669.3
79163.8
49400.5
118721
78827.4
47391.6
3708.31
2149.53
761.368
185.045
6.70406
2.73175
21.7273
33.7546
28.0458
19.5783
13.7273
9.75696
7.02322
5.10823
3.76223
2.82977
2.17614
1.71511
1.38758
1.15383
0.987226
0.870298
0.791995
0.745101
0.72666
0.734959
0.772003
0.842007
0.952322
1.1134
1.33895
1.64318
2.03633
2.52012
3.05969
3.67944
2.84255e+07
4.25483e+07
3.06597e+07
3.57774e+07
3.46317e+07
2.90333e+07
1.91035e+07
1.15549e+07
7.58325e+06
5.12798e+06
3.2034e+06
1.9294e+06
915612
298519
91830.6
185819
86123.8
99015.3
8647.11
39646.2
35118.1
6889.86
22262.7
51070
13348.1
84222.8
60769.9
35767.6
50468.3
129214
79559.7
441646
387352
42355.9
35979.8
78268.7
59516.6
79464.9
7750.9
53305.7
4421.24
2175.2
770.919
184.91
6.65714
3.26039
20.861
32.8523
28.4485
19.9675
13.9871
9.97223
7.16714
5.21012
3.83871
2.88283
2.2134
1.74156
1.40641
1.16665
0.99485
0.873449
0.790961
0.739764
0.716324
0.719094
0.749511
0.810716
0.909834
1.05598
1.26248
1.5435
1.91167
2.36886
2.90341
3.46397
4.07047
3.76741e+07
4.28141e+07
3.1622e+07
3.73838e+07
3.57322e+07
2.90431e+07
1.93229e+07
1.15474e+07
7.65058e+06
5.08652e+06
3.13916e+06
1.87235e+06
948406
344225
72203.9
217972
102418
52458.8
8769.7
21869.1
34754
55901.5
8341.99
68630.8
38095.5
95397.9
54865.6
13812.2
18747.1
117168
35000.1
469417
97553.3
280028
40369.3
72404.4
10977.8
45199.8
56296.8
65125.7
1542.4
2048.47
755.481
179.86
5.45753
4.86055
19.814
32.641
28.7683
20.2914
14.217
10.1732
7.30481
5.30729
3.91464
2.93272
2.24971
1.76797
1.42524
1.17962
1.0032
0.877628
0.791038
0.735635
0.707471
0.705024
0.728727
0.782095
0.870421
1.00288
1.19133
1.45012
1.79256
2.22518
2.73861
3.3051
3.86035
4.42833
3.4435e+07
5.28071e+07
3.30524e+07
3.7965e+07
3.658e+07
2.89518e+07
1.95005e+07
1.15418e+07
7.59947e+06
5.01484e+06
3.11728e+06
1.81979e+06
967602
359219
57835.4
197976
147347
62781.1
21437.7
24534.9
12863.6
49749.4
32981.7
32337.2
63690
106260
43765
7362.26
11300.6
70244.6
28233.3
352447
83225.2
597028
63596.5
59670.6
20275.2
4258.15
89321.8
69412.6
5407.84
2123.43
770.955
182.519
5.03275
5.5174
18.8358
32.2155
29.0205
20.9006
14.5065
10.2429
7.44506
5.40615
3.97928
2.9825
2.28333
1.79324
1.44379
1.19302
1.01219
0.882532
0.79206
0.732851
0.700331
0.692533
0.710315
0.755869
0.834201
0.953783
1.12512
1.36284
1.68024
2.08727
2.57923
3.13241
3.70604
4.23131
4.74321
6.41135e+07
2.55903e+07
4.19539e+07
3.85907e+07
3.68142e+07
2.84751e+07
1.94957e+07
1.15631e+07
7.50943e+06
4.9032e+06
3.09149e+06
1.803e+06
971860
434728
80068
147479
155333
84130.7
33284.9
12010.7
87192.4
105642
31652.4
60080.6
70602.1
89124.2
29410.6
26852
32062
35647.2
98630.7
210773
226326
727704
123739
33677.5
57229.7
16279.7
136275
68788
8912.13
2361.41
781.11
178.301
5.15752
6.07836
17.8318
31.9094
29.2438
21.1612
14.8678
10.5376
7.39249
5.50169
4.03436
3.03024
2.31711
1.81604
1.46151
1.20614
1.02135
0.888053
0.794116
0.731166
0.694404
0.68204
0.693727
0.732027
0.80117
0.90825
1.06396
1.28143
1.57488
1.95543
2.42426
2.96296
3.53309
4.08776
4.5646
5.01475
2.76605e+07
9.23315e+07
4.80656e+07
4.61974e+07
3.72297e+07
2.82618e+07
1.94779e+07
1.16866e+07
7.33193e+06
4.82725e+06
3.07675e+06
1.8072e+06
980076
437903
107904
121989