/*--------------------------------*- C++ -*----------------------------------*\
| =========                 |                                                 |
| \\      /  F ield         | OpenFOAM: The Open Source CFD Toolbox           |
|  \\    /   O peration     | Version:  v2012                                 |
|   \\  /    A nd           | Website:  www.openfoam.com                      |
|    \\/     M anipulation  |                                                 |
\*---------------------------------------------------------------------------*/
FoamFile
{
    version     2.0;
    format      ascii;
    class       volScalarField;
    location    "12000";
    object      rho;
}
// * * * * * * * * * * * * * * * * * * * * * * * * * * * * * * * * * * * * * //

dimensions      [1 -3 0 0 0 0 0];


internalField   nonuniform List<scalar> 
27324
(
1.10127
1.14189
1.11947
1.16627
1.16198
1.14739
1.192
1.18754
1.19183
1.17884
1.21433
1.21454
1.21854
1.22497
1.20741
1.22807
1.23802
1.24671
1.25275
1.25449
1.22912
1.23564
1.25255
1.27119
1.28199
1.28281
1.27644
1.24425
1.24145
1.26062
1.28644
1.30731
1.31249
1.30488
1.29158
1.25517
1.24686
1.2668
1.29482
1.32317
1.33825
1.33445
1.32016
1.3023
1.26303
1.2223
1.27227
1.30111
1.33207
1.35472
1.36014
1.3494
1.33089
1.30971
1.26851
1.10734
1.24727
1.3069
1.33874
1.36411
1.37697
1.37472
1.35958
1.33827
1.31438
1.27215
0.88689
1.12702
1.28002
1.34463
1.37066
1.38672
1.39186
1.38446
1.36618
1.3428
1.31675
1.27431
0.694494
0.900323
1.1529
1.31382
1.37554
1.39315
1.40205
1.40233
1.39024
1.36968
1.3449
1.31674
1.27611
0.616702
0.703487
0.918266
1.18101
1.34143
1.39665
1.40833
1.41303
1.40902
1.39264
1.37082
1.34423
1.31551
1.27798
0.602308
0.62362
0.715611
0.940176
1.20282
1.3573
1.40971
1.41889
1.4202
1.41269
1.39242
1.36946
1.34144
1.3129
1.281
0.600229
0.608745
0.632837
0.732353
0.962028
1.21138
1.36086
1.41738
1.42565
1.42461
1.41358
1.38958
1.36662
1.336
1.311
1.28399
0.600091
0.606561
0.617134
0.645064
0.753581
0.978996
1.20783
1.35235
1.41698
1.42883
1.42622
1.41068
1.3855
1.36221
1.32975
1.30824
1.28825
0.602012
0.606523
0.614792
0.627905
0.660768
0.777215
0.989532
1.19207
1.33326
1.40876
1.42777
1.42448
1.40476
1.38094
1.35606
1.32252
1.3107
1.28987
0.603466
0.608622
0.614929
0.625348
0.641414
0.679046
0.800858
0.995405
1.16525
1.29805
1.38725
1.41929
1.41895
1.39574
1.37508
1.34567
1.32169
1.31011
1.29373
0.60507
0.610217
0.616985
0.625407
0.638528
0.656552
0.697585
0.825693
0.998001
1.12992
1.24545
1.34377
1.39558
1.40319
1.38085
1.36344
1.33228
1.31165
1.30532
1.27182
0.606448
0.611957
0.618604
0.627451
0.638525
0.653157
0.670602
0.716057
0.853043
0.998998
1.09066
1.17751
1.27046
1.33794
1.36139
1.3481
1.33522
1.28446
1.30744
1.22755
1.26964
0.607381
0.6134
0.620345
0.629098
0.640594
0.653002
0.666242
0.682166
0.736727
0.883763
0.999751
1.05491
1.10649
1.17034
1.22832
1.25461
1.2513
1.23289
1.1969
1.15245
1.10155
1.09986
0.608097
0.614394
0.621786
0.630904
0.642339
0.655036
0.666006
0.676164
0.692153
0.763199
0.917338
1.00082
1.02951
1.0509
1.07579
1.09731
1.10193
1.08783
1.05875
1.02061
0.984098
0.952563
1.04016
0.608696
0.615161
0.622829
0.632452
0.644244
0.656832
0.668005
0.675722
0.683437
0.703536
0.798047
0.950149
1.00344
1.01623
1.0224
1.02404
1.01747
1.00014
0.975125
0.949606
0.92944
0.920664
0.934293
1.07193
0.609341
0.61586
0.62366
0.633586
0.645844
0.658729
0.669744
0.677578
0.682568
0.689952
0.71881
0.841314
0.979041
1.00765
1.01434
1.01447
1.00598
0.985846
0.959303
0.935045
0.919071
0.914176
0.92
0.97784
1.1526
0.610073
0.616601
0.624365
0.634483
0.64697
0.660391
0.671616
0.679344
0.684061
0.68836
0.696503
0.741799
0.889911
1.00195
1.01356
1.01683
1.01303
0.998644
0.97202
0.94456
0.923901
0.914022
0.916917
0.943802
1.07253
1.21324
0.610781
0.61738
0.625067
0.635216
0.647908
0.661565
0.673283
0.681185
0.685683
0.68964
0.693387
0.704668
0.776467
0.937414
1.01658
1.02053
1.01923
1.01181
0.989686
0.961295
0.935894
0.921223
0.917184
0.925706
1.01557
1.16561
1.24261
0.611319
0.618123
0.625836
0.635949
0.648759
0.662517
0.674531
0.682871
0.687339
0.691147
0.693886
0.697984
0.716679
0.826266
0.975147
1.02213
1.02236
1.01957
1.00461
0.978094
0.949069
0.927805
0.919561
0.920865
0.965254
1.11791
1.21956
1.25479
0.611622
0.61877
0.626568
0.63679
0.64955
0.663374
0.675521
0.684172
0.68894
0.692745
0.695179
0.697659
0.70198
0.739283
0.886568
0.997473
1.02091
1.02262
1.01514
0.994192
0.963481
0.936914
0.921935
0.920167
0.935706
1.05713
1.19485
1.24381
1.26122
0.611688
0.619251
0.627188
0.637544
0.650358
0.664195
0.676367
0.6852
0.690242
0.694328
0.696616
0.698754
0.700223
0.708213
0.780483
0.945502
1.01018
1.02302
1.0212
1.0085
0.979384
0.948667
0.927162
0.920422
0.923284
0.999396
1.15572
1.23335
1.25496
1.26681
0.611186
0.619348
0.627596
0.63805
0.651159
0.664978
0.677209
0.686048
0.691293
0.695687
0.698148
0.700032
0.700657
0.702719
0.721722
0.842901
0.992506
1.02181
1.02446
1.01906
0.995691
0.962764
0.9351
0.921973
0.920055
0.955809
1.1046
1.21577
1.25019
1.26175
1.27328
0.610383
0.618874
0.627661
0.638318
0.651789
0.665851
0.67807
0.686845
0.692189
0.696774
0.699635
0.701397
0.701708
0.702486
0.705848
0.752818
0.914182
1.01773
1.02617
1.02483
1.01021
0.978602
0.945675
0.92526
0.919652
0.931071
1.04621
1.18972
1.24269
1.25872
1.26774
1.28023
0.609413
0.61825
0.627236
0.638505
0.652151
0.666579
0.678887
0.687648
0.693056
0.697679
0.700895
0.702865
0.70288
0.703257
0.703676
0.713802
0.813146
0.971249
1.02364
1.02684
1.02057
0.994917
0.958711
0.931615
0.919617
0.920868
0.9916
1.15219
1.23192
1.25472
1.26476
1.27384
1.28751
0.608386
0.617385
0.626602
0.638015
0.652239
0.667016
0.679489
0.688413
0.693906
0.698498
0.701946
0.704146
0.704373
0.704265
0.703703
0.705269
0.738466
0.894617
1.00627
1.02695
1.02589
1.00984
0.973781
0.940294
0.921501
0.917955
0.951118
1.10326
1.21559
1.24975
1.26147
1.27011
1.28175
1.29932
0.607521
0.616359
0.625754
0.637214
0.6517
0.667105
0.679891
0.689006
0.694679
0.699244
0.702843
0.705185
0.705811
0.705668
0.704553
0.704405
0.710761
0.796796
0.966988
1.02386
1.02788
1.02112
0.989845
0.951908
0.925133
0.917315
0.928289
1.0477
1.19132
1.24284
1.25814
1.26615
1.27798
1.29676
1.30916
0.606986
0.615459
0.624725
0.636323
0.650919
0.666589
0.68005
0.689358
0.695248
0.699888
0.70361
0.706016
0.706999
0.707147
0.705696
0.704771
0.705598
0.732507
0.88492
1.00841
1.02854
1.02728
1.00516
0.96577
0.931899
0.917279
0.91908
0.994901
1.15676
1.23287
1.25432
1.26255
1.27367
1.29479
1.31052
1.32503
0.606864
0.615036
0.623855
0.635435
0.649914
0.665981
0.67959
0.689415
0.695607
0.700392
0.704229
0.706666
0.707915
0.708407
0.707156
0.70569
0.705352
0.710022
0.792652
0.965105
1.02478
1.02923
1.01722
0.981394
0.941425
0.920019
0.916745
0.954243
1.11143
1.21821
1.24956
1.25915
1.26955
1.29238
1.31083
1.33129
1.3486
0.607575
0.614998
0.623541
0.634606
0.648967
0.665007
0.678922
0.688888
0.695771
0.70068
0.704705
0.707136
0.708572
0.709327
0.708479
0.706817
0.705741
0.705972
0.732607
0.888521
1.00968
1.02949
1.02407
0.997376
0.953855
0.924481
0.916437
0.929768
1.05871
1.19678
1.24318
1.25575
1.26572
1.28975
1.311
1.33434
1.3601
1.37812
0.608246
0.615653
0.623315
0.634183
0.648101
0.663977
0.678033
0.688253
0.695336
0.700732
0.704937
0.707442
0.708995
0.709888
0.709436
0.708071
0.706411
0.705803
0.710762
0.799041
0.971944
1.02548
1.02618
1.01159
0.968747
0.932294
0.916923
0.91889
1.00627
1.16645
1.23435
1.25199
1.26244
1.28689
1.31105
1.33756
1.36614
1.39458
1.40968
0.608925
0.616423
0.623932
0.634094
0.647626
0.663039
0.677103
0.687367
0.694703
0.700379
0.704951
0.707558
0.709242
0.710142
0.709966
0.709032
0.707432
0.705964
0.706223
0.737628
0.901134
1.01422
1.02636
1.02162
0.985335
0.942839
0.919187
0.91568
0.962974
1.12617
1.22174
1.24756
1.25973
1.28389
1.31104
1.34042
1.37256
1.40361
1.43057
1.43964
0.609461
0.617277
0.624693
0.634894
0.647616
0.662593
0.676284
0.686439
0.693887
0.699809
0.704539
0.707537
0.709341
0.710207
0.710132
0.709579
0.708227
0.706228
0.705614
0.71253
0.814528
0.983041
1.02445
1.02628
1.0019
0.956335
0.923894
0.915136
0.934198
1.07756
1.20368
1.24197
1.25703
1.28103
1.31098
1.34323
1.37838
1.41342
1.44233
1.46428
1.46565
0.609697
0.61791
0.625526
0.635606
0.648483
0.662533
0.675912
0.685642
0.693048
0.699112
0.704015
0.707247
0.709373
0.710136
0.710127
0.709734
0.708835
0.706763
0.705419
0.706211
0.747063
0.92436
1.01808
1.02732
1.01583
0.972036
0.931582
0.915127
0.91947
1.02597
1.17832
1.23448
1.25422
1.27895
1.31089
1.34601
1.38392
1.42252
1.45536
1.4784
1.49331
1.48742
0.609148
0.61813
0.626006
0.636396
0.64918
0.663281
0.675774
0.685268
0.692322
0.698442
0.703331
0.706873
0.709184
0.71004
0.709986
0.709712
0.709093
0.707377
0.705495
0.704917
0.714839
0.843332
0.996
1.02745
1.02465
0.989109
0.942081
0.917053
0.914118
0.979241
1.14424
1.22411
1.25098
1.2776
1.31059
1.34882
1.38924
1.43125
1.46766
1.49423
1.5093
1.51732
1.50601
0.608574
0.617811
0.626172
0.636907
0.650074
0.664113
0.676455
0.685165
0.691971
0.697876
0.70269
0.706405
0.708964
0.709938
0.709911
0.70954
0.709107
0.707934
0.705674
0.70452
0.705353
0.768954
0.952806
1.02424
1.02817
1.00564
0.95552
0.921233
0.912963
0.944067
1.10147
1.20962
1.24686
1.27697
1.31033
1.35171
1.39446
1.43958
1.47964
1.50942
1.52738
1.53472
1.53747
1.52265
0.607803
0.617332
0.6259
0.637114
0.650701
0.665035
0.677167
0.685877
0.691928
0.697617
0.702168
0.70603
0.708762
0.709916
0.709964
0.709485
0.709058
0.708268
0.706447
0.704459
0.703602
0.725069
0.883027
1.01295
1.0288
1.01905
0.971194
0.928437
0.912811
0.922754
1.05281
1.1896
1.24129
1.27682
1.31019
1.35469
1.39972
1.44759
1.49116
1.52445
1.54491
1.55447
1.55591
1.55564
1.53106
0.607086
0.61662
0.625296
0.636687
0.650936
0.66567
0.677903
0.6866
0.692548
0.697607
0.701859
0.705842
0.708645
0.709948
0.710162
0.709786
0.709109
0.708505
0.707262
0.705414
0.703437
0.708784
0.805222
0.984354
1.02867
1.02709
0.988359
0.938848
0.913727
0.912926
1.00408
1.16255
1.23357
1.27701
1.31027
1.35781
1.40514
1.45537
1.50224
1.5391
1.56247
1.57374
1.57686
1.57493
1.56602
1.52202
0.60691
0.616016
0.62469
0.636082
0.650548
0.665899
0.678431
0.687338
0.69317
0.698101
0.701765
0.705715
0.708672
0.710048
0.710499
0.710257
0.709563
0.708884
0.708108
0.706614
0.703774
0.705307
0.745712
0.933156
1.02281
1.03001
1.00535
0.951787
0.917228
0.909782
0.962247
1.12742
1.22323
1.27664
1.31114
1.36108
1.4108
1.46303
1.51292
1.55335
1.57984
1.59319
1.59736
1.59679
1.58653
1.56101
1.48639
0.607141
0.615879
0.624182
0.63549
0.650049
0.665548
0.678621
0.687853
0.693813
0.698521
0.702008
0.705681
0.708649
0.710256
0.710905
0.710887
0.71027
0.709542
0.708925
0.708017
0.70489
0.705131
0.715663
0.861135
1.00832
1.03058
1.01953
0.967378
0.923534
0.90906
0.931968
1.08522
1.2096
1.27432
1.31274
1.36457
1.41676
1.47066
1.52326
1.56713
1.59697
1.6126
1.61811
1.61814
1.60996
1.5839
1.52687
1.44246
0.607387
0.61615
0.623935
0.634968
0.649355
0.664896
0.678186
0.688026
0.694286
0.698955
0.702287
0.705864
0.708541
0.710317
0.71129
0.711533
0.711147
0.710375
0.709699
0.709281
0.706285
0.705501
0.705814
0.789118
0.975592
1.03003
1.0285
0.984588
0.933001
0.909031
0.914105
1.03925
1.19002
1.26934
1.31551
1.36832
1.42302
1.47839
1.53336
1.58046
1.61374
1.63195
1.63891
1.6398
1.6331
1.60975
1.55101
1.48152
1.40148
0.607695
0.616618
0.624424
0.63487
0.648782
0.664219
0.67772
0.687755
0.694466
0.699233
0.70257
0.705977
0.708435
0.710114
0.711453
0.712034
0.711938
0.71128
0.710399
0.710175
0.707669
0.705853
0.703993
0.738388
0.921594
1.02431
1.03222
1.00227
0.94507
0.911383
0.905928
0.994632
1.16407
1.2626
1.31948
1.37238
1.42957
1.48633
1.54332
1.59338
1.63009
1.65117
1.65975
1.66153
1.65646
1.63493
1.57847
1.50501
1.4384
1.36584
0.607847
0.61707
0.624866
0.635381
0.648697
0.663672
0.677138
0.687283
0.694249
0.699292
0.702775
0.706061
0.708291
0.709741
0.711224
0.712256
0.712422
0.712043
0.711
0.710734
0.708632
0.706526
0.703718
0.713662
0.850835
1.00938
1.03311
1.01809
0.959669
0.916461
0.903307
0.956864
1.13161
1.25253
1.32361
1.37674
1.43636
1.49459
1.55324
1.60595
1.64594
1.67014
1.68059
1.68336
1.67985
1.66037
1.60556
1.53174
1.46078
1.4007
1.3355
0.607713
0.617228
0.625148
0.635762
0.649066
0.663355
0.676712
0.686777
0.69385
0.698937
0.702846
0.706105
0.708129
0.709261
0.710668
0.711982
0.712595
0.712455
0.711429
0.710996
0.709133
0.707437
0.703674
0.705638
0.783141
0.977796
1.03316
1.02952
0.976089
0.924673
0.902687
0.929668
1.09388
1.23846
1.32725
1.38144
1.44338
1.50327
1.56324
1.61828
1.6613
1.68876
1.70139
1.70522
1.70329
1.68586
1.63311
1.55824
1.48616
1.422
1.36855
1.31003
0.607642
0.617403
0.625274
0.636094
0.649431
0.663749
0.67664
0.686423
0.693456
0.698576
0.70274
0.706145
0.707983
0.708798
0.709947
0.711274
0.712215
0.712571
0.711646
0.711097
0.709299
0.708322
0.70412
0.704085
0.73609
0.925903
1.02828
1.03542
0.993753
0.935766
0.903118
0.913917
1.05345
1.21997
1.32944
1.3867
1.45068
1.51245
1.57341
1.63045
1.67622
1.70693
1.72205
1.72711
1.72671
1.71137
1.66089
1.58532
1.51133
1.44604
1.3889
1.34156
1.28881
0.607496
0.617333
0.625248
0.636254
0.649723
0.664155
0.677091
0.686468
0.69322
0.698281
0.702637
0.706196
0.707887
0.70843
0.709292
0.710318
0.711552
0.71219
0.711685
0.71123
0.709338
0.708978
0.705103
0.703925
0.712749
0.85826
1.01547
1.03731
1.01115
0.948752
0.909237
0.907024
1.01475
1.19757
1.32954
1.39288
1.45835
1.52212
1.58386
1.64256
1.69078
1.72456
1.74246
1.74898
1.75008
1.73686
1.68887
1.61277
1.53706
1.46988
1.41175
1.3611
1.31911
1.27114
0.607321
0.617232
0.62505
0.636108
0.649818
0.664489
0.677471
0.686992
0.693228
0.698157
0.702649
0.70624
0.708015
0.708256
0.708802
0.709488
0.710689
0.71174
0.711515
0.711474
0.709458
0.709439
0.70642
0.704138
0.704824
0.792076
0.987727
1.03773
1.02599
0.963805
0.917039
0.904248
0.982077
1.16928
1.31834
1.40024
1.46646
1.53222
1.59467
1.65467
1.70509
1.74166
1.76249
1.7708
1.77333
1.76226
1.717
1.64059
1.56314
1.49422
1.43441
1.38295
1.33799
1.30049
1.25637
0.606968
0.617146
0.624953
0.6359
0.649643
0.664622
0.677671
0.68738
0.693477
0.698193
0.70279
0.706424
0.70819
0.708574
0.708603
0.708977
0.709836
0.711225
0.711419
0.711767
0.709883
0.709821
0.707729
0.704995
0.703308
0.743497
0.94012
1.03596
1.03587
0.980454
0.928247
0.903642
0.959112
1.1367
1.30719
1.40881
1.47507
1.54261
1.60594
1.6669
1.71926
1.7583
1.78201
1.79248
1.79643
1.78748
1.74519
1.66874
1.58959
1.51887
1.4575
1.4046
1.35902
1.31883
1.28499
1.24393
0.60639
0.616845
0.624825
0.635729
0.649519
0.664546
0.67766
0.687661
0.69359
0.698534
0.703062
0.706689
0.708521
0.708991
0.70906
0.708819
0.709383
0.710716
0.711334
0.712092
0.710533
0.710203
0.708757
0.706234
0.703105
0.716713
0.877262
1.02638
1.04051
0.998561
0.941326
0.909372
0.946275
1.10263
1.29039
1.41647
1.48418
1.5532
1.61773
1.67934
1.73334
1.77458
1.80092
1.81387
1.81934
1.81248
1.77336
1.69718
1.61637
1.54384
1.48087
1.42665
1.37985
1.3392
1.3029
1.272
1.23333
0.605982
0.61647
0.62463
0.635579
0.649449
0.664503
0.677479
0.687743
0.693595
0.698736
0.70333
0.706916
0.708913
0.709516
0.709649
0.709347
0.70927
0.710409
0.711302
0.712434
0.711292
0.7106
0.709467
0.707677
0.703236
0.705968
0.810816
1.00467
1.04233
1.01687
0.95618
0.919031
0.940878
1.07006
1.2697
1.42182
1.49368
1.56396
1.63007
1.69213
1.7474
1.79062
1.81924
1.83481
1.842
1.83721
1.80144
1.72584
1.64347
1.56911
1.50452
1.44892
1.40103
1.35937
1.32275
1.28957
1.261
1.22419
0.605658
0.616155
0.624308
0.635374
0.649323
0.664475
0.677375
0.687525
0.693376
0.698795
0.703422
0.707037
0.709134
0.710028
0.710301
0.709986
0.709744
0.7103
0.711236
0.712778
0.711905
0.711046
0.709929
0.708771
0.703665
0.702789
0.757378
0.965649
1.04263
1.03294
0.972754
0.932876
0.938848
1.04318
1.24617
1.4231
1.50389
1.57499
1.6429
1.70539
1.76148
1.8065
1.83705
1.85511
1.86429
1.86166
1.82933
1.75468
1.67083
1.59465
1.52841
1.47144
1.42242
1.37987
1.3424
1.30901
1.2783
1.25156
1.21618
0.605739
0.616138
0.624111
0.635068
0.649178
0.664449
0.677412
0.687337
0.692941
0.698638
0.703411
0.707013
0.709044
0.71026
0.710773
0.710659
0.710199
0.710436
0.710968
0.712882
0.712172
0.711543
0.710216
0.709444
0.704796
0.702128
0.723946
0.909907
1.03765
1.04475
0.991105
0.948848
0.938765
1.02529
1.21836
1.41344
1.51505
1.58648
1.65611
1.71919
1.77569
1.82224
1.8545
1.87469
1.88605
1.88588
1.85693
1.7836
1.69841
1.62042
1.55253
1.49416
1.44401
1.40055
1.36236
1.32826
1.29742
1.26865
1.24334
1.20905
0.605816
0.616399
0.62408
0.634891
0.648824
0.664352
0.677533
0.687284
0.692705
0.698402
0.703147
0.706801
0.708867
0.710086
0.710936
0.711005
0.710597
0.710459
0.710704
0.712397
0.71219
0.711979
0.710391
0.709712
0.706187
0.702032
0.707776
0.845984
1.02382
1.05151
1.01105
0.966543
0.950075
1.01618
1.18889
1.40202
1.52707
1.59852
1.66951
1.73356
1.79015
1.83783
1.87169
1.89356
1.90711
1.90987
1.88414
1.81252
1.72611
1.64635
1.57682
1.51706
1.46577
1.4214
1.38248
1.34779
1.31635
1.28752
1.26026
1.23605
1.20259
0.605688
0.616611
0.624268
0.634873
0.648603
0.663988
0.677622
0.687212
0.692684
0.698301
0.702814
0.706423
0.708567
0.709854
0.710616
0.711066
0.710676
0.710447
0.710464
0.711741
0.711786
0.712258
0.710597
0.70977
0.707409
0.702423
0.701854
0.787825
0.994093
1.05437
1.03217
0.986343
0.963832
1.01266
1.16127
1.38598
1.5374
1.61106
1.68299
1.74843
1.805
1.85331
1.88867
1.91189
1.92733
1.93344
1.91085
1.84129
1.75386
1.67238
1.60122
1.54007
1.48767
1.4424
1.40276
1.36748
1.33556
1.30621
1.27895
1.25286
1.22948
1.19662
0.605362
0.616645
0.624369
0.635137
0.648584
0.66366
0.677509
0.686928
0.692793
0.698363
0.702618
0.706048
0.708204
0.709568
0.710326
0.71073
0.710606
0.710533
0.710266
0.711015
0.711363
0.712305
0.710923
0.709753
0.708284
0.703931
0.70043
0.744343
0.948735
1.05535
1.05353
1.008
0.982784
1.01175
1.13987
1.36685
1.54385
1.62401
1.69652
1.76371
1.82033
1.86877
1.90539
1.92984
1.94664
1.95624
1.93704
1.86979
1.78154
1.6984
1.62566
1.56315
1.50964
1.46349
1.42315
1.3873
1.35491
1.32517
1.29745
1.2714
1.2462
1.22344
1.19099
0.605199
0.616423
0.624181
0.635345
0.648806
0.663622
0.677198
0.68647
0.692911
0.698608
0.702602
0.705795
0.707887
0.709363
0.710106
0.710505
0.710342
0.710518
0.710183
0.710497
0.710824
0.7123
0.711237
0.709889
0.708862
0.705746
0.700171
0.71774
0.893608
1.04481
1.07302
1.03137
1.00451
1.01983
1.12748
1.3444
1.54501
1.63771
1.71026
1.77928
1.83616
1.88436
1.92176
1.94754
1.96513
1.97803
1.96266
1.89791
1.80903
1.72434
1.65005
1.58622
1.53163
1.48463
1.44362
1.40723
1.37438
1.34425
1.31621
1.28976
1.26464
1.2401
1.21779
1.18558
0.605247
0.616311
0.623741
0.635243
0.649073
0.663848
0.676986
0.685797
0.692882
0.698799
0.702831
0.705705
0.707667
0.709188
0.710045
0.710395
0.710306
0.71046
0.710233
0.710169
0.710427
0.712105
0.711475
0.710291
0.709269
0.707524
0.700518
0.704462
0.835826
1.02763
1.089
1.0561
1.02908
1.03272
1.1221
1.31792
1.53506
1.6524
1.72436
1.79496
1.85239
1.90022
1.9378
1.96492
1.98309
1.99858
1.98753
1.92561
1.83625
1.75009
1.67432
1.6092
1.55358
1.50577
1.46411
1.42721
1.39394
1.36346
1.33509
1.30838
1.2829
1.25847
1.23441
1.21238
1.18028
0.605407
0.616386
0.62346
0.634769
0.64915
0.664091
0.67697
0.685337
0.692526
0.698767
0.703052
0.705906
0.707557
0.70901
0.709982
0.710411
0.710369
0.710481
0.710387
0.710064
0.710186
0.711721
0.711522
0.710808
0.709558
0.708528
0.701347
0.698985
0.786359
0.997609
1.0973
1.08274
1.05602
1.05208
1.12049
1.2924
1.52548
1.66711
1.73883
1.81057
1.86889
1.9164
1.95364
1.98184
2.00076
2.01791
2.01129
1.9528
1.8631
1.77554
1.69836
1.63203
1.57542
1.52683
1.48458
1.4472
1.41355
1.38274
1.35409
1.32711
1.30141
1.27666
1.25274
1.22899
1.20711
1.17498
0.605361
0.616587
0.623537
0.634407
0.648929
0.66415
0.677006
0.685221
0.692209
0.698269
0.703102
0.706189
0.70771
0.708859
0.709718
0.710412
0.710584
0.710566
0.710433
0.710262
0.710123
0.71118
0.711344
0.711406
0.709752
0.708988
0.703741
0.697305
0.750105
0.954365
1.09924
1.11276
1.08537
1.07584
1.12383
1.27267
1.51198
1.67812
1.75346
1.826
1.88554
1.93287
1.9695
1.99815
2.01817
2.0363
2.03357
1.97933
1.8895
1.80057
1.72206
1.65458
1.59706
1.54776
1.50496
1.46715
1.43316
1.40206
1.37317
1.34595
1.32003
1.2951
1.27089
1.24731
1.22374
1.20188
1.16959
0.604995
0.616634
0.623818
0.634417
0.648697
0.663854
0.676752
0.685402
0.692121
0.697691
0.702693
0.706356
0.7081
0.708805
0.709326
0.710249
0.710777
0.71066
0.710439
0.710287
0.710191
0.710613
0.711137
0.711791
0.710039
0.709111
0.706185
0.696849
0.7275
0.906345
1.08844
1.14444
1.11681
1.10308
1.13267
1.26227
1.49621
1.68342
1.76827
1.84125
1.90219
1.94951
1.98553
2.01393
2.03507
2.05416
2.05419
2.0048
1.91537
1.82505
1.74528
1.67675
1.61841
1.56848
1.52519
1.487
1.45271
1.42137
1.39227
1.36487
1.33876
1.31364
1.28928
1.26544
1.24206
1.21854
1.19659
1.16401
0.604846
0.616529
0.624001
0.634695
0.648695
0.663466
0.676189
0.685531
0.692291
0.697468
0.702006
0.706115
0.708416
0.709021
0.709027
0.70978
0.710777
0.710852
0.710413
0.710184
0.710172
0.710253
0.710837
0.711872
0.71043
0.709125
0.708124
0.697477
0.716227
0.858426
1.07022
1.17397
1.14992
1.13357
1.14908
1.25923
1.47209
1.68158
1.78393
1.85647
1.9187
1.96618
2.00173
2.02937
2.05113
2.07165
2.07335
2.02863
1.94054
1.84883
1.76785
1.69838
1.63933
1.58887
1.54518
1.50669
1.47216
1.44063
1.41136
1.3838
1.35755
1.33229
1.30778
1.28381
1.26021
1.2369
1.21331
1.19116
1.15817
0.605041
0.616721
0.624121
0.635014
0.64878
0.663383
0.675587
0.685427
0.692431
0.697509
0.7016
0.70555
0.708497
0.709424
0.708927
0.709214
0.710455
0.711
0.710574
0.709996
0.710075
0.710051
0.710503
0.711795
0.710993
0.709157
0.709288
0.701254
0.712313
0.817949
1.04455
1.19645
1.18499
1.16706
1.17108
1.25919
1.44671
1.67748
1.80048
1.87162
1.93485
1.98276
2.01799
2.0447
2.0662
2.08845
2.09154
2.05023
1.96456
1.87176
1.78958
1.71929
1.65968
1.60882
1.56485
1.52614
1.49144
1.45976
1.43038
1.40272
1.37637
1.35101
1.32638
1.30229
1.27858
1.25508
1.23173
1.20796
1.1855
1.15198
0.605247
0.617398
0.624427
0.635236
0.648789
0.663464
0.675373
0.685124
0.692253
0.697759
0.701524
0.704995
0.708123
0.709638
0.709293
0.708892
0.709799
0.71098
0.710932
0.709887
0.709801
0.709999
0.71042
0.711553
0.711303
0.709204
0.709933
0.706398
0.711584
0.789612
1.01309
1.20784
1.22291
1.20343
1.1987
1.26774
1.42499
1.67104
1.81395
1.8863
1.95042
1.9991
2.03409
2.0599
2.08039
2.10393
2.10899
2.06953
1.98663
1.8936
1.81027
1.73925
1.67923
1.62814
1.58404
1.54525
1.51048
1.47873
1.44929
1.42157
1.39516
1.36974
1.34504
1.32087
1.29706
1.27348
1.24996
1.22646
1.2024
1.17953
1.14537
0.604974
0.617912
0.625072
0.635497
0.648567
0.663466
0.675445
0.685006
0.691804
0.697779
0.701878
0.704851
0.707324
0.70952
0.709873
0.708889
0.709152
0.710621
0.711323
0.710017
0.70952
0.710045
0.710489
0.710905
0.711402
0.710184
0.710392
0.712653
0.713328
0.773611
0.973642
1.20938
1.2634
1.24252
1.23041
1.27643
1.41191
1.66203
1.82197
1.90018
1.96537
2.01508
2.0498
2.07473
2.09385
2.11757
2.12516
2.08698
2.00584
1.91383
1.82965
1.75795
1.69773
1.64664
1.60262
1.5639
1.52918
1.49746
1.46803
1.4403
1.41389
1.38844
1.36371
1.3395
1.31564
1.29199
1.26842
1.24478
1.22102
1.19656
1.17318
1.13828
0.604692
0.618012
0.625368
0.635968
0.648477
0.663226
0.675627
0.68511
0.691515
0.697534
0.702071
0.705249
0.706936
0.708706
0.710045
0.709596
0.708913
0.709901
0.711525
0.710545
0.709303
0.709789
0.710758
0.710564
0.71133
0.711072
0.711306
0.718289
0.716416
0.767607
0.936894
1.19656
1.30559
1.28418
1.26566
1.29267
1.40731
1.64079
1.82378
1.91405
1.97988
2.03048
2.06482
2.08872
2.10647
2.12921
2.13896
2.10299
2.02192
1.93148
1.8474
1.77509
1.71496
1.66415
1.62043
1.58195
1.54744
1.51586
1.48653
1.45885
1.43249
1.40707
1.38236
1.35815
1.33427
1.31059
1.28697
1.26331
1.23944
1.21532
1.19037
1.16639
1.13068
0.60578
0.617959
0.62508
0.63602
0.648713
0.663142
0.675722
0.685242
0.691536
0.697195
0.702037
0.705688
0.706933
0.707937
0.709557
0.710192
0.709228
0.709179
0.711322
0.711129
0.709325
0.709374
0.710828
0.710538
0.710908
0.712296
0.712967
0.723569
0.726065
0.767384
0.907443
1.17979
1.34238
1.3276
1.30443
1.31473
1.41036
1.61499
1.82439
1.92862
1.99391
2.04487
2.07867
2.10138
2.11776
2.13889
2.14955
2.11704
2.03568
1.94546
1.86289
1.79057
1.73075
1.68035
1.63697
1.5988
1.5647
1.53353
1.50453
1.4771
1.45093
1.42558
1.40093
1.37676
1.35291
1.32924
1.30562
1.28194
1.25807
1.23388
1.2093
1.18376
1.15911
1.12254
0.608308
0.618984
0.624584
0.635322
0.648783
0.663327
0.676014
0.685264
0.691877
0.6972
0.7016
0.705765
0.707514
0.707792
0.708522
0.710253
0.710192
0.709018
0.710302
0.711364
0.710197
0.708885
0.710733
0.71073
0.710645
0.713515
0.715483
0.729339
0.73748
0.773809
0.89007
1.15819
1.36882
1.37329
1.34663
1.34215
1.41922
1.58725
1.82222
1.94075
2.00679
2.05766
2.09077
2.11221
2.12704
2.1466
2.15691
2.12807
2.04807
1.95577
1.87522
1.80428
1.74481
1.69457
1.65173
1.61462
1.58142
1.55083
1.52222
1.49508
1.46907
1.44389
1.41939
1.3953
1.37152
1.3479
1.32431
1.30065
1.2768
1.25264
1.22801
1.20288
1.17667
1.15131
1.11389
0.608836
0.620689
0.625134
0.634645
0.648318
0.663359
0.676721
0.68538
0.692079
0.697571
0.701492
0.70518
0.707721
0.708262
0.707978
0.709441
0.711055
0.709435
0.709044
0.711249
0.711505
0.708727
0.710136
0.711444
0.710652
0.71476
0.719282
0.73602
0.751168
0.783389
0.884509
1.13024
1.38058
1.42202
1.39201
1.37449
1.43073
1.56401
1.81727
1.94855
2.01759
2.06827
2.10054
2.12068
2.13391
2.15218
2.16161
2.13604
2.05871
1.96422
1.88364
1.8157
1.7567
1.70656
1.66518
1.62929
1.59694
1.56713
1.53915
1.51251
1.48687
1.46198
1.43765
1.41371
1.39005
1.36652
1.34301
1.31941
1.29561
1.27149
1.24693
1.22178
1.19601
1.16907
1.14299
1.10476
0.606515
0.620885
0.62682
0.634983
0.648003
0.662982
0.677083
0.685864
0.69228
0.697787
0.701861
0.704795
0.707384
0.708876
0.708004
0.708273
0.711217
0.710598
0.70865
0.710167
0.712625
0.709038
0.708708
0.712238
0.711388
0.716169
0.72464
0.744351
0.766803
0.799525
0.886522
1.09965
1.38291
1.47382
1.44002
1.41113
1.44444
1.54847
1.79788
1.95136
2.02642
2.07632
2.10755
2.12638
2.13826
2.1554
2.16472
2.13979
2.06673
1.97244
1.88888
1.82309
1.76591
1.71679
1.67695
1.64212
1.61099
1.58229
1.55523
1.52929
1.50418
1.47969
1.45565
1.43194
1.40845
1.38506
1.36167
1.33818
1.31446
1.29042
1.26593
1.24088
1.21511
1.18864
1.16096
1.13419
1.09523
0.620062
0.61872
0.627353
0.637027
0.649001
0.66284
0.67692
0.686124
0.692785
0.697862
0.70218
0.704934
0.706693
0.708906
0.709132
0.708072
0.710127
0.71144
0.709042
0.708853
0.71292
0.710677
0.707593
0.712268
0.713566
0.718304
0.731765
0.754821
0.784247
0.819681
0.895421
1.07472
1.37561
1.52435
1.49008
1.45045
1.45996
1.5417
1.77253
1.95326
2.0333
2.08144
2.11154
2.12924
2.14029
2.15665
2.16613
2.14196
2.06986
1.97898
1.89356
1.82525
1.77235
1.72554
1.68646
1.65303
1.62336
1.59604
1.57014
1.54518
1.52082
1.4969
1.4733
1.44991
1.42667
1.40348
1.38025
1.3569
1.33331
1.30939
1.28501
1.26006
1.23443
1.20798
1.18077
1.15234
1.12494
1.08537
0.625394
0.636252
0.625548
0.637818
0.651253
0.664175
0.676809
0.686021
0.693182
0.698094
0.70221
0.705354
0.706644
0.708073
0.709642
0.708685
0.708421
0.711483
0.711018
0.708526
0.712191
0.712246
0.7072
0.711648
0.717351
0.721921
0.741005
0.767892
0.803535
0.842992
0.90644
1.05896
1.36601
1.56595
1.5415
1.49284
1.48167
1.54233
1.74104
1.95341
2.03609
2.08325
2.11266
2.12975
2.14055
2.15672
2.1664
2.14286
2.07092
1.98069
1.89852
1.82552
1.77508
1.73255
1.69383
1.66195
1.63383
1.60806
1.58363
1.5599
1.53657
1.51344
1.49044
1.46752
1.44462
1.4217
1.39869
1.37553
1.35211
1.32835
1.30412
1.27931
1.25381
1.22752
1.20035
1.1724
1.14328
1.11534
1.07528
1.25623
0.728668
0.643918
0.636592
0.652218
0.666523
0.67765
0.686037
0.69315
0.69856
0.70215
0.705434
0.707259
0.7076
0.709551
0.709898
0.708134
0.710277
0.712943
0.708975
0.7094
0.712741
0.708459
0.711053
0.72252
0.727827
0.752599
0.783828
0.824829
0.868285
0.922973
1.054
1.35519
1.593
1.59481
1.53833
1.50637
1.55076
1.70713
1.93764
2.03625
2.08346
2.1128
2.1289
2.13935
2.15483
2.16365
2.14173
2.07126
1.97988
1.89988
1.82849
1.77062
1.73716
1.70031
1.66881
1.64235
1.61816
1.5954
1.57321
1.55115
1.52909
1.50691
1.48462
1.46221
1.43966
1.41695
1.39402
1.37082
1.34725
1.32321
1.29859
1.27326
1.24713
1.22013
1.19222
1.16356
1.13382
1.10546
1.06505
1.23726
1.26736
0.769051
0.662909
0.651378
0.667761
0.678622
0.687402
0.692989
0.698693
0.702688
0.705033
0.707586
0.708122
0.708293
0.710195
0.709409
0.708818
0.713399
0.710567
0.707178
0.7127
0.712515
0.711025
0.729177
0.736849
0.76692
0.802813
0.848274
0.895665
0.946147
1.06371
1.32891
1.60382
1.65078
1.58638
1.53345
1.55962
1.67433
1.91733
2.02782
2.07645
2.1061
2.12319
2.13416
2.15009
2.15963
2.13837
2.06884
1.97797
1.89612
1.82953
1.77245
1.7283
1.70737
1.6745
1.64883
1.62641
1.60525
1.5848
1.56433
1.54358
1.52249
1.50105
1.47929
1.45724
1.43493
1.41232
1.38939
1.36606
1.34225
1.31785
1.29273
1.26681
1.23999
1.21225
1.18361
1.15431
1.12407
1.09539
1.05475
1.23588
1.2454
1.28637
0.833462
0.68498
0.668306
0.679576
0.689018
0.694151
0.698316
0.70327
0.705404
0.707007
0.708903
0.708115
0.709312
0.711466
0.70868
0.711284
0.712387
0.70643
0.711002
0.718151
0.714473
0.736925
0.749459
0.78436
0.824992
0.874077
0.924958
0.974135
1.07715
1.30256
1.61178
1.7088
1.63668
1.56202
1.57052
1.64543
1.88589
2.01764
2.0685
2.0986
2.11608
2.12757
2.14393
2.15421
2.1342
2.0662
1.97447
1.89217
1.82343
1.7746
1.72759
1.69458
1.68374
1.65347
1.63272
1.61331
1.59446
1.5758
1.55665
1.53691
1.51658
1.49569
1.47432
1.45254
1.43035
1.40776
1.38473
1.36119
1.33704
1.31218
1.2865
1.25991
1.23236
1.20388
1.17457
1.14472
1.11409
1.08521
1.04443
1.2352
1.24381
1.26204
1.3023
0.903366
0.717887
0.683134
0.690316
0.695176
0.699176
0.702881
0.706717
0.706782
0.708975
0.709521
0.708179
0.71206
0.710145
0.708137
0.712834
0.708855
0.710055
0.724781
0.720637
0.746806
0.76613
0.805416
0.850486
0.902454
0.956097
1.00623
1.09608
1.27764
1.61552
1.75861
1.68805
1.59242
1.58084
1.62253
1.84637
2.0011
2.05761
2.08907
2.10785
2.12031
2.1374
2.14865
2.12996
2.06334
1.971
1.88739
1.81822
1.76753
1.73069
1.6925
1.66788
1.66486
1.63635
1.61951
1.60238
1.58532
1.56803
1.54992
1.53096
1.5112
1.49073
1.46963
1.448
1.42585
1.40319
1.37997
1.35613