/*--------------------------------*- C++ -*----------------------------------*\
| =========                 |                                                 |
| \\      /  F ield         | OpenFOAM: The Open Source CFD Toolbox           |
|  \\    /   O peration     | Version:  v2012                                 |
|   \\  /    A nd           | Website:  www.openfoam.com                      |
|    \\/     M anipulation  |                                                 |
\*---------------------------------------------------------------------------*/
FoamFile
{
    version     2.0;
    format      ascii;
    class       volScalarField::Internal;
    location    "12000";
    object      Rstream;
}
// * * * * * * * * * * * * * * * * * * * * * * * * * * * * * * * * * * * * * //

dimensions      [0 0 -1 0 0 0 0];


value           nonuniform List<scalar> 
27324
(
-3.93522e-09
-1.2938e-09
-3.41609e-09
-2.3578e-09
1.06303e-09
1.43838e-09
-1.1158e-09
-3.55409e-11
-1.21273e-10
1.24612e-09
-1.41913e-09
1.94141e-09
-8.8019e-10
-9.83001e-10
-2.23517e-09
-3.7872e-10
5.60505e-11
-8.76576e-10
7.8025e-10
-7.97377e-10
1.01034e-09
-5.03304e-10
3.48215e-10
-5.27788e-10
-8.95586e-10
1.45602e-09
6.09485e-10
1.71008e-09
-3.40582e-10
8.14124e-13
-7.87937e-12
5.41077e-10
-6.50337e-10
6.50679e-10
-6.26075e-10
-6.63466e-10
3.5172e-10
2.71633e-10
-1.88934e-10
-2.92751e-10
5.22522e-10
4.76544e-10
1.94399e-11
5.53315e-10
5.59008e-10
4.9853e-09
-2.1666e-12
1.87929e-11
2.06115e-10
-2.95595e-10
-3.77194e-11
-4.53246e-10
-4.13317e-10
7.68442e-10
-3.39245e-10
9.43491e-09
-8.24443e-11
2.35848e-10
-2.40653e-10
1.82106e-10
1.5555e-10
1.05701e-10
3.83204e-10
3.52391e-10
4.09859e-10
-3.6793e-10
3.30567e-08
-7.92664e-09
2.1034e-09
-2.71942e-10
-9.84009e-11
-1.1967e-11
-1.50855e-10
-1.73627e-10
5.88082e-10
3.97656e-10
-3.59507e-10
8.18489e-12
1.17721e-08
3.80287e-11
1.13995e-09
-2.56786e-09
3.21876e-11
8.21401e-11
2.84376e-12
2.91265e-10
2.57356e-10
2.11267e-10
-1.91139e-10
-3.16952e-11
3.5894e-10
5.30565e-09
-1.03164e-08
1.20747e-08
6.1086e-09
-2.86215e-09
-1.83794e-10
-3.43288e-12
-8.65479e-11
3.41233e-10
2.76495e-10
-2.80836e-10
1.42003e-11
-8.76704e-11
-3.62149e-10
4.93572e-10
5.43842e-11
3.12424e-10
-1.04183e-08
5.9096e-09
-8.59538e-10
4.31646e-10
-3.77728e-12
8.84248e-11
1.57885e-10
-9.23657e-11
1.47723e-11
-2.4195e-10
2.23782e-10
-1.62424e-10
9.85289e-11
-7.56315e-10
1.20398e-09
7.55303e-09
-1.84324e-08
-6.20982e-09
9.98305e-11
1.93822e-10
-1.99601e-10
4.97228e-11
-1.08254e-10
7.91772e-11
-1.60565e-10
-3.67484e-10
3.509e-11
3.66341e-11
-1.17356e-10
-1.2982e-12
3.92603e-10
-1.00409e-09
4.5374e-09
-7.14054e-09
4.92182e-09
8.60521e-10
-6.94992e-10
-3.65656e-11
-6.02929e-11
3.7438e-12
-1.13626e-10
1.87774e-10
-7.73436e-11
1.62307e-10
9.58797e-11
-3.30309e-10
9.70183e-11
-1.99724e-11
4.90888e-10
-4.53737e-09
-4.7008e-09
-2.33363e-11
-4.12094e-09
-3.19619e-09
-1.09723e-09
1.25888e-10
1.97104e-11
2.71285e-11
-1.37961e-10
-7.62702e-11
-8.00947e-11
-1.23332e-10
1.01083e-10
-3.55951e-10
4.29313e-12
-1.26572e-11
-2.29427e-11
1.46612e-10
-1.9615e-09
4.79145e-09
3.84138e-09
-6.65483e-09
-1.79577e-09
9.60412e-10
-1.68109e-10
-3.33159e-11
3.19298e-11
-3.30827e-11
5.15883e-11
4.54335e-11
6.91476e-12
-4.80657e-12
1.78117e-10
5.73664e-12
-1.34348e-10
-8.62575e-11
5.90935e-11
-4.66488e-10
6.34911e-10
-3.9115e-09
-2.49646e-09
-2.6639e-09
2.00352e-09
-2.45978e-10
-4.19206e-10
6.46947e-10
2.24751e-10
2.32858e-10
-3.59952e-11
6.91205e-11
-6.64021e-11
-3.24276e-10
-2.50404e-10
6.78679e-12
-1.41332e-10
1.14789e-10
-7.23638e-11
7.24495e-11
-1.05123e-10
2.4638e-09
-3.68432e-09
-2.32502e-09
2.11026e-09
4.60161e-10
-5.42321e-10
-2.45075e-09
3.53103e-10
-6.18118e-10
-3.2879e-10
-2.55709e-10
-1.66828e-10
3.02125e-10
-3.18781e-10
-1.0034e-10
-7.9651e-13
5.30261e-12
1.16876e-10
1.0913e-10
7.84125e-11
-3.47409e-12
-1.95264e-10
-1.85147e-09
-1.86625e-09
1.07527e-09
5.16418e-11
1.06259e-09
3.98557e-09
-6.2244e-10
1.14066e-09
1.80408e-09
-6.07872e-10
-5.94575e-10
-2.59941e-11
-7.43967e-10
-8.02314e-10
-1.78699e-10
8.83656e-11
-9.84473e-11
1.06102e-11
1.04957e-10
5.6031e-12
-5.94795e-11
3.27541e-11
-3.61158e-10
-2.0685e-09
1.44895e-09
-1.36955e-10
-6.93832e-11
1.28715e-09
3.32281e-10
-2.05888e-09
-7.90501e-10
1.84579e-09
-5.01006e-10
-4.83246e-11
-2.38043e-10
-4.51502e-10
-5.5091e-10
-9.36057e-11
5.57142e-12
-9.00382e-12
9.54291e-11
1.42042e-11
-4.79631e-12
-1.07111e-11
5.21075e-11
6.56787e-11
-9.42097e-10
2.7197e-09
-3.58416e-11
2.64015e-10
-4.18649e-10
1.79632e-10
8.64322e-10
1.73748e-10
-3.69814e-11
-1.87789e-10
-4.41854e-11
-4.35629e-10
8.67106e-11
-2.81575e-11
-1.83769e-11
-1.96494e-10
1.4577e-10
-5.63841e-11
-5.76362e-11
1.48254e-10
1.67057e-10
1.05694e-13
-6.95097e-11
6.92056e-11
6.65115e-11
1.89354e-11
1.37167e-10
7.52749e-11
3.6686e-12
-2.12061e-11
9.68942e-11
-1.86991e-11
2.85466e-10
6.55945e-11
2.77629e-11
2.33016e-11
-2.15741e-11
2.40729e-11
-5.83023e-11
-1.39285e-10
-1.02029e-10
5.10772e-12
-5.91585e-11
5.83147e-11
-5.37341e-11
6.68192e-11
-7.38023e-11
-6.34977e-11
5.20419e-11
5.15437e-11
1.1823e-10
5.84244e-11
8.51554e-10
1.88015e-10
-6.34867e-11
1.31644e-10
5.61565e-11
-6.18912e-12
-2.60355e-11
-3.39936e-12
3.17956e-11
-2.12889e-11
2.16459e-12
7.4237e-11
-1.42051e-10
-3.34191e-11
-1.69286e-10
7.40651e-11
-5.74024e-11
-5.2047e-11
1.05549e-10
5.03892e-11
6.05971e-12
7.70661e-11
3.5682e-11
3.72288e-11
-4.36977e-12
2.70387e-10
1.22812e-09
8.01125e-10
-3.54869e-10
-1.47836e-11
-7.09964e-12
-2.56333e-11
-7.74802e-11
4.1304e-11
8.54793e-11
9.79328e-12
5.58417e-12
1.06939e-11
-1.89975e-10
1.02792e-10
-2.83874e-11
-1.13491e-10
-2.73947e-14
-5.14975e-12
6.09442e-11
-4.50699e-11
4.6917e-11
-4.1977e-11
-3.9573e-11
4.64978e-11
4.44005e-11
-3.40278e-11
-5.41955e-12
6.44378e-10
2.67874e-11
1.02048e-10
-9.42581e-11
-8.97195e-12
6.37679e-12
-9.16593e-11
6.52913e-12
-2.21766e-11
-1.42796e-11
-2.45632e-12
9.67194e-12
-2.72162e-11
-2.65813e-11
-3.21314e-11
-7.69037e-12
-8.86125e-12
-1.61461e-12
-5.79687e-11
-6.3463e-11
5.71442e-11
3.93154e-11
2.57472e-12
4.29948e-11
3.21406e-11
-7.3805e-11
-2.1803e-11
1.95418e-11
3.54488e-11
1.04323e-09
8.69789e-10
-2.76477e-11
-1.28612e-11
4.77611e-12
-2.92815e-11
-6.83885e-14
-7.65602e-12
-1.76339e-11
3.37594e-12
1.44518e-12
1.46059e-11
9.08349e-11
-5.96712e-11
-2.15679e-11
1.64069e-11
6.69622e-11
1.14519e-11
-3.95749e-11
5.31864e-11
-5.39655e-11
2.40041e-12
-3.67536e-11
-2.83721e-11
6.7729e-11
4.34782e-11
-2.59413e-11
6.11203e-12
1.63995e-11
-1.74163e-10
6.94933e-10
-1.17369e-09
5.07581e-11
1.11392e-11
-1.85675e-11
3.27091e-11
-1.52527e-11
-4.52266e-12
-1.93025e-11
-2.1858e-11
-5.7578e-11
1.97307e-11
-5.09894e-11
-8.04084e-12
-9.14659e-12
-1.0329e-12
8.65723e-11
-3.43631e-12
-6.96044e-12
3.14978e-11
4.59982e-11
3.69491e-11
1.18722e-13
3.23412e-11
2.69016e-11
3.126e-11
-2.92907e-11
2.75482e-11
-1.09184e-11
-1.61865e-11
-1.95775e-10
7.37546e-10
-2.89943e-11
4.30261e-12
-2.1163e-12
4.09608e-11
-3.67956e-11
-6.7663e-11
-2.65875e-11
5.19733e-12
3.31891e-13
-6.13863e-11
-1.72256e-11
-1.16101e-11
-1.56279e-12
-1.03834e-11
-1.2143e-11
2.32637e-10
-4.40776e-11
5.84754e-12
-2.96893e-11
2.663e-11
4.14775e-12
-3.805e-11
-2.7166e-11
4.79298e-11
3.2911e-11
-3.82494e-11
1.0299e-11
-4.9363e-12
-2.13708e-11
1.0507e-11
-1.33886e-10
2.64446e-10
-1.16131e-10
-1.89804e-11
-2.43844e-11
4.48046e-11
-1.18331e-12
-3.31866e-11
-1.95598e-11
-1.01122e-11
3.2622e-11
2.86327e-11
1.46053e-11
-5.28005e-12
7.60384e-13
9.15586e-12
5.68108e-13
1.43e-10
-2.90472e-12
6.21059e-13
-1.98253e-11
-1.17941e-11
-3.59588e-12
-2.01264e-13
3.16938e-11
2.35306e-11
2.31876e-11
-1.95187e-11
-3.19327e-12
-1.83988e-11
2.0997e-11
-4.45461e-12
2.11953e-10
5.09107e-11
3.80137e-10
2.80465e-11
9.48396e-12
5.28604e-11
5.00056e-12
-1.91675e-11
-1.03481e-11
6.1242e-12
3.00285e-11
1.88574e-11
-6.14713e-11
-1.40873e-11
3.36747e-12
1.76889e-11
3.90814e-12
9.86934e-12
2.65572e-10
-1.00321e-10
6.06375e-11
5.1427e-11
-2.0579e-11
6.92441e-12
7.89023e-12
-2.83816e-11
4.26782e-11
2.39086e-11
-2.207e-11
4.28412e-12
-7.7702e-12
-2.94852e-11
1.73479e-12
-8.91743e-12
-3.18183e-10
1.15192e-09
3.26066e-14
1.37892e-11
1.08514e-11
1.90045e-11
-1.17927e-11
-6.31365e-12
-6.22671e-12
-4.96717e-12
-5.68622e-11
-1.4422e-11
1.85947e-11
-3.58978e-12
-7.26384e-12
-5.16348e-12
4.2839e-12
-1.1348e-11
9.60815e-11
-7.16446e-12
5.45765e-12
-6.82828e-11
5.35442e-11
-1.21157e-11
-9.78565e-12
-2.1985e-11
1.73479e-11
1.96674e-11
-1.24264e-11
-3.16986e-12
-1.89794e-11
2.59493e-11
-1.10114e-11
7.92523e-12
-2.5911e-11
-4.35146e-11
2.46962e-10
1.37694e-11
1.73749e-11
2.64935e-11
-4.52456e-11
-3.22057e-11
4.35339e-12
3.8608e-12
-6.99297e-12
-7.6433e-11
3.65621e-12
1.72325e-11
5.57541e-12
-1.79064e-12
4.16057e-13
-1.45497e-12
-5.5074e-12
5.32028e-11
-6.27489e-11
8.59999e-11
6.7003e-11
-1.02509e-10
-1.99241e-11
5.55132e-12
-3.77548e-12
6.38193e-12
1.82206e-11
-1.49044e-11
8.16221e-13
-9.16266e-12
-3.43758e-11
6.3372e-12
-7.7792e-12
1.35599e-11
-7.26272e-11
2.72098e-10
-4.36301e-11
1.207e-11
2.19936e-11
-6.90338e-11
1.25795e-11
-1.69077e-11
-1.08405e-11
1.48423e-11
1.00808e-11
-2.27578e-11
-5.29634e-12
-2.60217e-12
-7.54361e-12
-1.48196e-11
-2.06928e-12
1.6004e-12
-2.08881e-11
-8.29678e-11
-2.71592e-12
4.04881e-12
-8.74749e-11
5.73724e-11
-4.75794e-11
2.80149e-11
1.67264e-11
5.99024e-12
9.11409e-12
-1.07316e-11
-1.68833e-12
-1.22346e-11
1.75145e-11
2.34398e-11
1.96253e-11
7.56272e-12
1.43765e-10
3.83347e-10
1.42542e-11
1.11832e-11
1.29783e-11
2.00589e-11
-8.95002e-11
4.25194e-11
-1.08743e-11
4.20157e-12
-1.44678e-11
-1.95164e-11
8.58326e-12
3.9229e-12
5.9643e-12
1.23768e-11
-5.12193e-13
-3.14601e-12
4.26086e-12
-7.74067e-12
-1.04305e-10
1.36406e-14
2.37193e-11
5.06351e-11
-6.90341e-11
-4.61665e-11
1.25826e-12
-1.0147e-11
-9.70187e-12
9.74494e-12
-2.35319e-12
1.0334e-12
-6.37793e-12
-1.86477e-11
-1.29752e-11
-1.44903e-11
-8.31232e-12
-5.70952e-12
-1.10183e-10
-5.71999e-11
-3.53034e-11
-1.89154e-11
-8.65157e-12
4.0663e-11
2.80146e-12
-3.731e-12
9.73386e-14
-2.13749e-13
2.91806e-11
1.67927e-11
-3.10249e-12
-1.31955e-11
-5.90459e-12
8.2072e-12
-1.30377e-11
-1.12393e-11
-3.48626e-12
1.32518e-11
-2.74773e-10
7.00775e-11
-3.20098e-11
-1.36018e-11
4.31263e-11
-6.55742e-12
4.14405e-11
2.70045e-11
-2.54781e-11
-4.79055e-12
4.13216e-12
-2.22697e-12
-4.82717e-12
3.93217e-12
-7.34316e-12
1.65285e-11
9.05284e-12
-1.37175e-12
-1.15539e-11
2.43147e-10
-2.42361e-10
1.29819e-12
-2.59593e-12
-1.11215e-11
2.41536e-11
-1.63029e-12
9.787e-12
5.13318e-12
3.58206e-11
4.2074e-11
8.03888e-13
-1.38512e-11
6.48417e-12
-8.98738e-12
1.52988e-11
6.67965e-12
-1.52282e-11
5.98961e-12
9.34173e-12
-1.48029e-10
2.92045e-13
-8.16419e-12
2.88387e-11
-5.64495e-12
-3.0651e-11
-6.40597e-13
-4.01562e-11
-2.75876e-11
-4.97655e-12
1.94486e-12
4.5322e-12
-4.03516e-12
2.44862e-12
2.541e-12
-3.65183e-12
-7.94049e-12
1.05099e-12
1.96398e-11
-2.02141e-10
1.55784e-10
5.27021e-11
4.29343e-12
-1.28161e-12
-4.2961e-11
-9.64817e-12
-6.33889e-12
3.35844e-13
-4.53045e-12
2.32252e-11
8.50486e-12
-2.63627e-12
-1.87339e-12
-1.02941e-11
8.38507e-12
-1.64346e-11
3.55853e-12
7.02922e-12
-9.91599e-14
-2.19996e-11
-1.83338e-10
9.16695e-11
-8.34809e-11
-5.42358e-11
2.10485e-11
-5.95981e-12
2.71404e-11
2.9309e-11
-4.74614e-11
-2.71206e-11
1.17096e-11
-4.12203e-13
-1.37863e-11
3.14694e-12
-6.85786e-13
-7.73361e-12
-1.56545e-12
-9.13613e-12
6.33258e-12
-6.36081e-12
-4.38998e-10
-2.04057e-10
3.60778e-12
-1.28547e-11
1.25411e-11
-3.47224e-11
5.23931e-12
4.45914e-12
-5.03531e-11
-1.58344e-11
-2.5627e-11
5.49704e-12
5.7414e-12
-1.13598e-11
-4.42284e-12
5.20231e-12
-8.68754e-12
-1.0302e-12
8.28904e-13
-1.92427e-12
2.51102e-12
-1.27546e-11
-4.48317e-12
-1.21335e-11
6.97457e-11
-4.24953e-11
-6.09609e-12
5.47539e-14
-1.56401e-11
-2.19079e-11
-1.4426e-11
1.18826e-11
-9.38174e-12
-1.0873e-11
-1.08845e-11
-8.04902e-12
3.94363e-12
-6.01855e-12
-3.02941e-12
2.83231e-12
-1.18193e-11
-4.69905e-11
-2.99139e-11
5.75831e-11
-2.34318e-11
8.02594e-13
-9.7079e-12
1.45445e-11
-6.20954e-12
1.30576e-12
-3.09622e-11
9.64144e-12
9.38893e-12
-5.27521e-12
1.1377e-12
2.92175e-12
-2.9657e-11
-1.09336e-11
2.83079e-12
-8.20298e-13
-1.51702e-11
1.01194e-12
-4.70151e-12
1.69598e-10
1.5942e-11
-4.24556e-11
-6.63441e-11
6.17934e-11
3.08581e-11
-1.287e-12
2.39098e-11
-2.42277e-11
-1.53728e-11
1.80912e-11
-1.08459e-12
1.28058e-11
1.23646e-11
4.84246e-12
2.2912e-12
-3.95404e-12
-1.19582e-11
4.65936e-12
1.8508e-13
-1.24463e-10
-5.07622e-10
1.38489e-10
1.24633e-11
6.73598e-12
4.84407e-11
-1.54146e-11
-5.07876e-12
-1.12895e-12
-9.89229e-12
-3.34993e-11
-7.42057e-12
-6.94502e-12
5.00377e-12
9.84703e-13
-1.39355e-12
-1.65505e-11
-8.20157e-12
1.739e-11
2.70486e-13
8.6164e-12
2.61706e-12
1.00464e-11
3.56821e-10
3.22619e-12
-1.11466e-12
3.74066e-11
-5.06823e-11
-6.7109e-13
-3.53945e-11
-1.51374e-11
2.87305e-12
-2.09331e-11
1.10785e-11
-8.91244e-13
4.01844e-12
-7.95677e-12
6.89516e-13
-4.07346e-12
-7.95633e-12
-3.41966e-12
-3.74889e-12
3.22146e-13
-2.03977e-11
-2.65675e-10
7.97221e-12
1.08506e-11
1.34884e-11
-1.68575e-11
6.30339e-12
-2.5526e-12
5.72161e-12
1.8585e-11
-1.25027e-11
-2.15493e-11
9.81728e-12
1.99964e-11
3.52764e-12
-1.52218e-11
-5.57989e-12
6.76425e-12
-5.27651e-12
-1.46565e-11
-2.07865e-12
-1.89085e-14
2.27957e-11
1.09196e-11
2.34903e-10
7.62003e-12
4.07166e-11
7.33812e-12
6.02673e-11
3.42541e-11
-1.43042e-12
3.24953e-11
3.9676e-12
-4.36737e-12
8.50404e-12
-7.11912e-13
7.1238e-13
-7.62042e-14
8.21335e-13
-1.99775e-12
9.00571e-14
-1.65518e-12
-3.50143e-12
-2.83624e-12
-9.68287e-12
-9.35446e-11
3.76406e-10
-7.51484e-11
1.46335e-11
4.32186e-11
1.6603e-11
1.80978e-11
-9.23279e-13
3.41119e-11
7.17974e-12
-1.71598e-11
1.17679e-11
-3.86408e-12
-7.75435e-12
-3.36819e-11
-4.33358e-12
-1.16974e-11
2.18079e-11
-3.45592e-11
5.73686e-12
-4.78796e-13
9.48679e-12
-8.28472e-12
-5.99115e-12
3.93849e-10
-1.16115e-10
6.46137e-11
-4.60634e-11
6.25364e-12
1.34594e-11
-3.19107e-11
-2.37365e-11
3.03041e-11
2.52206e-12
1.67074e-12
-9.32188e-13
1.10487e-12
1.03734e-12
-1.75821e-12
-5.97141e-12
1.41252e-12
3.41481e-12
-7.5891e-12
2.95126e-14
1.08076e-12
1.97786e-11
-3.36375e-11
1.99916e-10
1.5078e-12
1.07635e-11
-2.79644e-11
9.60002e-12
5.92267e-12
-3.42841e-12
3.9542e-11
-8.81527e-12
2.33406e-12
5.07798e-12
-1.39698e-12
-5.82876e-12
-2.47328e-11
8.94558e-12
-5.67779e-12
-1.87172e-11
7.53095e-12
-8.83776e-12
4.54121e-12
-9.47117e-13
1.14058e-11
9.41336e-12
1.47282e-10
2.97864e-12
6.56625e-12
-5.45419e-11
-4.75476e-11
8.21834e-13
-6.37808e-12
3.20188e-11
1.95129e-11
1.4114e-11
-2.76404e-12
-7.17565e-13
1.2132e-12
-1.26674e-11
-7.34111e-12
-5.21389e-12
-8.53767e-12
-3.08394e-12
-8.53891e-12
2.86258e-12
4.30994e-12
-2.3442e-11
-4.58962e-11
-2.8736e-11
1.48196e-11
-9.28579e-12
-1.40639e-11
-2.59912e-11
5.74555e-12
-1.84535e-12
1.61867e-11
2.50878e-11
-3.25118e-12
6.79447e-12
1.62389e-12
-1.07864e-11
-2.31645e-11
5.80105e-12
1.19183e-11
3.28574e-12
-2.80022e-12
8.86189e-12
-2.7733e-12
6.54712e-12
-3.36643e-12
4.44886e-12
-4.50479e-12
-3.49633e-11
-4.78715e-11
6.13434e-11
7.1276e-11
-8.43066e-11
-2.41394e-11
5.48727e-12
-1.39674e-11
3.7697e-11
1.40748e-11
3.05928e-12
-1.84148e-13
1.30389e-11
1.17627e-11
-4.91175e-12
1.62404e-11
1.19282e-11
-1.59887e-11
-5.5884e-14
-1.25893e-11
5.45898e-12
-1.01092e-12
1.88417e-11
3.86698e-10
-3.97077e-11
7.63745e-12
2.37495e-12
-1.27875e-11
-7.65712e-12
1.84296e-12
-1.03667e-11
1.09066e-11
-1.50995e-11
1.22005e-11
1.70364e-11
1.06201e-11
-1.30309e-11
-6.27478e-13
2.46063e-11
-1.50297e-11
3.93195e-12
-1.02107e-11
-3.31769e-12
-6.5086e-12
4.82698e-12
-7.29505e-12
-7.26232e-13
-9.04813e-12
-8.71466e-11
9.69265e-14
4.34737e-12
-3.29972e-11
4.87018e-11
-2.96224e-11
3.44522e-13
-2.52401e-12
9.31912e-12
1.18252e-11
-4.9931e-12
-6.40658e-13
1.00978e-11
-2.69154e-12
-5.90239e-12
-8.59703e-12
-1.21114e-11
-7.10515e-13
-3.76883e-12
2.15332e-12
1.02168e-11
-4.57367e-12
2.84634e-11
4.94194e-11
1.10267e-10
2.06026e-11
2.14653e-12
-5.59494e-13
-8.08804e-12
-4.50004e-12
1.05501e-11
2.59108e-12
-1.91815e-11
-1.58919e-13
2.17887e-12
-2.98227e-11
1.04377e-11
2.57525e-11
1.60689e-11
-1.72684e-11
1.99653e-12
9.84678e-12
-1.01831e-11
1.50904e-11
-1.56931e-11
1.59242e-11
-1.06653e-11
-1.40019e-11
-1.50066e-12
-3.91303e-10
-4.27666e-12
-2.26808e-11
6.24996e-12
-5.78968e-11
-3.44675e-11
4.40622e-13
3.68348e-12
2.76824e-12
6.25311e-12
-6.84777e-12
1.93181e-13
3.61852e-13
5.29138e-12
1.80781e-12
7.27294e-12
4.65905e-12
-1.77164e-11
-6.14982e-12
-3.09754e-13
3.59334e-12
1.95576e-12
2.32078e-12
2.65086e-10
-7.68789e-11
4.31015e-12
-6.80946e-12
-3.12076e-11
1.35317e-11
5.61117e-12
-2.68735e-12
2.97366e-11
-1.16439e-11
1.08634e-11
8.13053e-12
6.07392e-12
-2.86491e-11
-1.00428e-11
7.25198e-12
-1.69317e-12
-2.5559e-12
-1.1257e-12
-8.64012e-13
4.2932e-14
1.3826e-11
-6.5053e-12
-5.12972e-12
-3.42273e-12
-1.07428e-11
-6.81085e-12
-2.43962e-13
7.7733e-11
-9.45146e-11
2.15982e-11
4.15427e-12
-3.34416e-11
2.91877e-11
1.41662e-11
-1.89819e-11
-2.96221e-12
-4.15442e-12
3.40808e-14
3.66462e-12
-4.16589e-12
-1.88098e-12
-3.02327e-12
-4.9058e-12
-3.27274e-12
-4.06659e-12
1.60101e-12
5.33585e-12
-4.19158e-12
6.44963e-13
8.10286e-11
1.76887e-11
7.08922e-11
-1.62433e-11
2.80794e-12
5.05119e-12
-1.62624e-11
-3.91558e-12
-1.23791e-11
3.79038e-11
-3.08155e-11
-7.70626e-12
7.6502e-12
-1.51497e-11
1.20787e-11
4.1156e-12
-1.36853e-11
-7.32013e-12
-1.90117e-12
2.37641e-12
-5.67363e-12
-4.36213e-12
2.40428e-12
-2.05248e-11
-1.04929e-11
2.5055e-12
-4.34829e-12
-1.91436e-11
-1.72617e-10
6.25098e-13
-5.67054e-11
-2.25256e-12
5.17342e-12
-3.55644e-12
-5.52753e-13
-1.9918e-11
-1.32541e-11
-6.9005e-12
-3.62267e-12
-5.9974e-12
-2.00342e-12
1.47727e-11
-7.43668e-12
4.89414e-12
-9.30503e-13
-4.62779e-13
-5.124e-13
-1.45746e-13
4.14308e-12
2.77699e-12
-2.22496e-12
4.40109e-13
1.83586e-10
-4.32119e-13
-7.65973e-12
-2.86615e-13
7.71667e-12
3.36852e-12
8.29024e-13
5.21717e-12
1.46354e-11
-8.73829e-12
2.11056e-11
1.13462e-11
-9.95068e-12
-3.30807e-12
2.07098e-11
6.68178e-12
-8.41474e-12
-7.30149e-12
-1.17371e-11
-6.72077e-12
-8.37998e-12
6.0238e-12
4.64954e-12
7.02008e-12
1.48705e-13
4.25208e-13
1.52646e-11
-3.42305e-12
-1.79574e-11
1.10085e-10
-4.32498e-11
-1.77502e-13
2.52893e-11
1.1119e-11
-7.81047e-12
9.18166e-12
-2.12405e-11
-5.54351e-12
9.93922e-13
-5.03963e-12
-1.0168e-11
-8.28769e-12
4.80887e-12
-1.49773e-11
-7.53528e-12
-1.45322e-12
1.06789e-12
3.75516e-12
1.17798e-13
2.44704e-12
-2.84883e-13
1.64336e-11
-1.07308e-10
8.30403e-11
1.10539e-11
9.32022e-12
-1.23942e-11
-1.92665e-11
3.82033e-12
-7.58332e-13
-8.49319e-12
1.21637e-11
1.24587e-11
-1.39008e-11
-5.8464e-12
2.12624e-11
5.2853e-12
-8.05106e-12
1.63977e-11
-1.08403e-11
3.52043e-12
5.17774e-12
-1.20832e-11
4.50907e-12
-2.41433e-12
-1.26143e-11
-3.57222e-12
3.87225e-12
2.31237e-13
1.0938e-11
-8.5422e-13
5.52155e-14
-5.77e-12
-1.95923e-11
3.07571e-11
1.41582e-12
2.09838e-11
-9.87335e-13
2.06058e-12
3.51088e-12
-4.40839e-12
-1.27905e-12
-3.7385e-12
-1.36297e-12
9.98894e-12
-1.11301e-12
1.21487e-11
7.10688e-12
9.36995e-13
5.91102e-14
-5.88225e-13
1.72466e-12
2.1839e-12
-4.03577e-12
-3.35543e-13
-4.78476e-12
-1.18995e-10
5.11648e-12
-7.77862e-12
1.23034e-11
-7.81573e-12
6.55358e-12
7.5428e-13
-4.76479e-11
-1.40557e-11
3.40737e-12
-1.86674e-11
-1.64637e-11
1.50299e-12
1.48459e-11
-6.40218e-12
7.71478e-13
5.21372e-12
1.05974e-11
-4.97741e-13
-2.36466e-12
1.15043e-12
-1.75579e-12
4.94392e-12
-8.33483e-12
5.96257e-12
6.93355e-12
-5.35035e-12
-3.91882e-12
-9.31826e-12
3.83171e-10
4.69996e-12
8.49636e-12
-3.25589e-12
1.59486e-11
1.88596e-11
-1.6599e-11
-7.47118e-12
1.23524e-11
5.24376e-13
-1.52644e-12
1.51988e-13
-7.37799e-12
-1.36152e-12
4.57187e-12
-1.43792e-11
-8.99647e-12
3.50127e-12
-1.25711e-13
6.99697e-13
2.25123e-12
-2.89771e-12
-8.48712e-13
-5.54349e-12
-4.36383e-11
6.52349e-11
5.10718e-11
-5.01286e-12
-2.60369e-12
-2.44867e-11
-3.36249e-12
-2.33181e-12
4.50098e-11
2.28948e-11
2.32244e-11
-1.43737e-12
-3.87087e-11
9.55174e-12
1.37854e-11
-1.62726e-11
2.38097e-11
-8.17291e-12
-1.8774e-12
4.52566e-13
6.01724e-12
-1.36921e-11
-9.41802e-12
5.23718e-12
-1.21706e-11
3.92038e-13
-6.6937e-12
1.12096e-11
-1.20217e-11
-1.52713e-11
8.85642e-12
1.65277e-12
-7.60529e-11
2.89418e-11
3.89924e-13
-1.03607e-12
7.72382e-12
-1.9549e-11
2.00049e-13
-5.53108e-12
8.6292e-12
-2.94811e-12
-1.85847e-13
7.40795e-12
-1.26807e-11
1.21562e-12
4.15e-12
7.12103e-12
-4.8994e-12
-2.20068e-13
2.58562e-12
-5.59824e-14
3.59181e-12
-4.98335e-13
2.73513e-12
1.37666e-11
-1.053e-10
5.00667e-11
9.77412e-12
-7.03284e-13
-9.17966e-12
6.67672e-12
2.32602e-12
-1.04497e-11
-1.8977e-11
-2.68843e-11
-1.98047e-11
-9.70654e-12
5.59367e-12
-1.05625e-11
1.10514e-11
-2.05135e-11
2.93292e-13
-1.65392e-11
-2.12701e-12
-9.38854e-12
6.92077e-12
-1.56541e-11
-5.10696e-12
-2.36828e-12
-3.99036e-12
1.78741e-11
-7.2108e-12
1.84914e-12
-3.3967e-15
1.37131e-12
5.45365e-12
9.33419e-11
-2.2927e-12
4.31278e-11
-2.03198e-11
2.87562e-12
-6.60232e-13
-4.98767e-12
6.68294e-12
3.71504e-12
5.66252e-12
-5.58688e-12
1.37553e-12
-1.45935e-12
-1.93646e-11
-5.03747e-12
2.31496e-12
-3.47353e-13
6.61075e-12
-3.43627e-14
6.57494e-13
-9.85006e-13
-2.64433e-12
-8.56414e-13
-1.09632e-11
-1.23845e-12
3.08106e-11
1.24844e-10
4.16593e-12
-3.54744e-12
2.02084e-12
-1.6659e-11
-6.7991e-12
-1.01564e-11
1.51902e-11
-7.69912e-12
1.01665e-11
-1.77292e-11
-1.07309e-11
1.6819e-11
9.39275e-13
1.55765e-11
-6.89119e-12
8.29099e-12
1.18913e-11
1.08637e-11
9.63235e-13
4.32668e-12
-4.68933e-12
-1.07773e-12
-8.40721e-12
4.40125e-12
8.36194e-12
-7.16574e-12
-7.43485e-12
-1.23672e-12
7.29025e-12
2.19151e-12
-3.65416e-11
-3.61339e-11
9.15283e-11
1.7256e-12
-1.61514e-11
-1.1526e-13
-1.03598e-12
2.32638e-12
5.86147e-15
-1.21143e-12
3.89432e-12
-2.53181e-13
-5.66818e-12
1.28601e-11
-7.38854e-12
-7.76866e-12
-1.02806e-12
5.34872e-12
-8.9429e-13
-8.55373e-13
1.1333e-12
-2.83015e-12
1.34274e-12
1.15179e-12
-5.59879e-13
1.95981e-11
5.42934e-11
-3.28923e-11
8.65345e-12
-1.33838e-11
1.49206e-11
1.17324e-11
-1.6889e-12
-1.7626e-11
-1.06423e-11
-2.96317e-12
-1.09559e-11
2.52378e-12
3.07807e-13
-7.20153e-12
6.19167e-12
3.5911e-12
-1.93856e-11
5.73422e-12
-1.60351e-11
1.69105e-12
-1.56907e-11
-4.54269e-12
6.24746e-12
6.77454e-12
1.3345e-11
-8.7277e-12
-2.01086e-12
-6.39803e-13
-4.36062e-12
-8.09025e-13
-5.008e-13
-1.34319e-11
3.11599e-12
5.03055e-11
1.99299e-11
-3.01254e-12
7.3867e-13
-1.11659e-11
-1.27055e-12
-5.49836e-12
-2.29725e-12
-5.50766e-12
-4.06023e-14
2.52752e-12
-1.062e-12
-1.61361e-11
3.24467e-12
-9.3959e-12
4.34743e-12
-6.38856e-13
1.55993e-12
7.77191e-13
1.58733e-12
4.10244e-12
-8.81122e-14
-6.58567e-12
2.31795e-12
-1.14082e-12
-8.15576e-12
-6.05915e-12
-4.94042e-12
-1.27477e-11
5.66811e-12
2.23978e-12
-8.9837e-13
-1.69054e-11
1.93123e-11
1.15959e-13
-1.70348e-11
-6.12051e-12
1.52359e-11
4.32915e-13
4.05143e-12
-2.92265e-11
1.43028e-11
2.88029e-12
9.72112e-12
1.81671e-14
-1.13151e-11
1.64149e-11
-3.60861e-12
-1.33464e-12
-7.48982e-13
2.3079e-11
-1.14098e-11
-6.00317e-12
-7.57374e-12
-3.6321e-12
1.11762e-11
1.65462e-12
-4.48759e-12
-4.82465e-11
-1.94577e-12
-1.30388e-11
-6.98195e-12
-2.7644e-11
-1.34699e-11
3.2484e-13
7.67499e-13
-6.11326e-12
8.33045e-12
-7.35999e-12
-7.76919e-14
1.85884e-12
1.62246e-12
-3.84949e-12
1.11218e-11
3.94025e-12
-1.03792e-13
4.98052e-13
-6.49058e-13
8.82313e-13
-1.55764e-12
-6.7608e-13
-4.42999e-12
-5.64187e-12
4.22363e-12
1.817e-11
-1.88566e-11
-1.94767e-11
-1.13564e-11
3.29225e-12
3.46256e-13
-5.36791e-12
1.82049e-11
-6.68406e-12
-3.02889e-11
-1.31819e-11
6.43767e-12
-4.93497e-13
-1.31951e-11
1.53332e-11
-8.18194e-12
-7.52119e-12
-1.97675e-11
-3.87647e-12
9.29782e-12
-1.6021e-11
-8.95926e-12
2.47468e-12
9.36541e-12
1.21069e-11
-1.58247e-11
1.70159e-11
-5.86498e-12
-9.34372e-12
4.84462e-12
-1.26497e-11
-2.86612e-12
-4.7172e-15
6.03987e-12
7.84245e-11
2.2398e-11
-5.13352e-11
-5.71866e-13
-5.36439e-12
-2.03337e-11
9.73262e-12
-1.09936e-12
3.305e-12
-4.31511e-12
1.89404e-12
1.94226e-11
-1.18759e-11
4.24117e-12
1.26356e-13
-6.81502e-12
-2.99623e-12
1.52571e-13
-1.0112e-12
5.61638e-13
-1.26265e-12
2.53353e-12
6.47391e-13
7.29932e-13
6.04374e-13
2.51495e-13
1.29951e-11
1.64379e-11
-8.59667e-12
5.08001e-13
7.51351e-12
2.71439e-11
1.2958e-11
2.42616e-12
-1.56153e-11
4.02721e-11
-3.20107e-11
-1.825e-11
2.38303e-12
1.14813e-11
-1.45563e-11
-1.08656e-11
-1.77492e-11
8.36218e-12
2.37682e-11
6.42489e-12
2.49577e-12
-3.7111e-12
2.02889e-12
9.88031e-12
1.38778e-11
-3.49071e-13
-4.47291e-12
-1.29106e-11
3.6096e-12
-3.42588e-12
-3.19739e-12
5.31772e-12
-5.34779e-12
-6.07952e-12
-7.56084e-12
1.94615e-10
-6.49152e-13
-1.26585e-11
7.83589e-13
-4.88409e-12
-1.82929e-11
1.30485e-11
-3.90316e-12
1.11368e-13
-8.91676e-13
6.07588e-12
4.80262e-13
4.78632e-13
1.32563e-11
-2.68515e-12
-6.55572e-13
9.41939e-13
8.34731e-13
4.46141e-12
-4.12131e-12
-1.27618e-12
1.66769e-12
-2.77973e-13
6.39247e-13
3.14338e-12
1.41014e-12
1.67588e-11
-6.53186e-11
-6.47222e-12
-7.22503e-12
1.60948e-11
-1.60361e-11
-8.59592e-12
1.68041e-11
5.84277e-11
-1.79136e-11
-9.85416e-12
1.14774e-11
-3.92829e-12
-3.454e-11
1.6336e-11
-2.05167e-11
-2.91934e-12
1.8407e-11
-2.15098e-11
2.36916e-11
-1.70368e-11
-1.07528e-11
-3.91322e-12
5.07166e-12
-8.58257e-12
1.24659e-11
3.5767e-12
-9.53049e-12
3.88224e-12
3.50953e-12
-2.07525e-11
1.16671e-11
-1.67374e-12
-1.36932e-12
2.2111e-12
1.86494e-12
7.58642e-11
-4.68731e-11
1.34434e-11
-1.87976e-12
1.21072e-11
8.91196e-13
2.71814e-11
-1.7661e-12
-1.06563e-12
-3.239e-12
5.51971e-13
6.21084e-12
-1.48343e-11
-5.19129e-12
4.15817e-12
9.47982e-13
1.20086e-12
-6.63533e-13
7.9061e-13
-3.76142e-12
-3.55522e-12
4.81485e-13
-5.30919e-13
2.34918e-13
-1.97456e-12
-1.16023e-12
4.95274e-12
5.45962e-12
-7.62724e-11
5.45393e-12
1.35957e-11
2.44393e-11
2.02126e-11
1.44889e-11
5.66859e-11
-1.64043e-11
-2.30316e-11
-3.11886e-12
2.35235e-11
-1.89312e-12
4.18663e-12
1.09803e-11
-1.74042e-12
-1.1656e-11
-1.57559e-11
-1.83168e-11
9.27371e-12
4.03531e-12
5.72575e-12
-2.69759e-12
1.07451e-11
-7.69171e-12
-4.91289e-12
-5.58768e-12
1.27956e-11
7.35175e-12
1.01081e-11
1.9871e-12
-1.34421e-11
2.66778e-12
8.11234e-12
-1.53165e-13
-1.46846e-11
-3.68995e-11
-2.67184e-11
3.90963e-11
-1.49499e-11
9.8121e-14
6.85599e-12
8.20847e-12
-2.19059e-11
-3.02011e-12
2.25301e-12
8.84337e-14
1.87987e-13
-1.23564e-11
1.12725e-11
-2.90129e-12
1.4957e-12
2.09009e-13
-4.28907e-13
1.12384e-12
1.89588e-13
-4.37409e-12
-1.85739e-13
-2.09016e-13
-8.85219e-13
1.32976e-12
6.91907e-13
4.26255e-13
-3.66313e-11
-1.65515e-10
-7.47529e-12
-9.19474e-12
5.31738e-12
-6.11507e-12
9.99369e-12
1.33445e-11
-3.26032e-12
-7.48992e-12
7.62145e-12
-1.91289e-12
-1.35796e-11
1.73718e-11
-2.59734e-11
7.46495e-13
1.21437e-12
-4.66636e-13
-1.23744e-11
-2.97015e-11
2.40499e-12
4.92079e-12
1.17021e-11
-4.74842e-12
1.0803e-12
-9.28668e-12
-7.99679e-12
9.1452e-12
1.54338e-11
-1.08315e-11
8.86906e-12
-1.01328e-11
-1.16141e-11
-5.6281e-12
7.01129e-12
-6.35792e-12
7.62788e-12
-3.25847e-11
5.75174e-12
3.46743e-11
-1.44388e-12
-3.06634e-12
1.26455e-11
-1.19451e-12
-2.92797e-11
1.62695e-12
-6.2322e-13
3.73317e-12
-1.24933e-15
-4.33877e-13
-5.34104e-13
2.436e-12
-3.69253e-13
-4.38465e-14
-1.10363e-12
8.35663e-13
-9.78221e-13
-1.65136e-12
-1.81155e-13
-5.33992e-14
1.4371e-12
-1.00479e-12
3.71921e-12
-1.22481e-12
-2.20536e-11
-3.26217e-11
2.35588e-11
1.72436e-11
-8.72746e-12
1.32194e-11
1.28476e-11
-2.74227e-11
-6.49968e-11
7.66427e-13
1.48e-11
2.40845e-11
1.76583e-11
-5.77608e-12
4.19959e-12
-3.02894e-11
-3.08334e-12
-3.68686e-12
1.91389e-11
-2.75261e-11
-3.64334e-12
-5.0111e-14
1.21593e-11
1.63652e-11
-6.28749e-12
-7.92808e-12
-3.84227e-12
-3.06937e-12
8.19505e-12
1.04148e-11
5.89108e-12
-8.93996e-13
-1.01219e-11
-6.70011e-12
1.08627e-11
-6.67575e-13
-7.67354e-12
8.95178e-12
1.22173e-11
1.82559e-12
-3.05603e-12
-3.45667e-11
3.77345e-13
-8.98518e-13
-1.33853e-11
-6.67872e-13
-1.18757e-11
-6.62507e-12
-2.19105e-13
-1.96145e-11
5.67547e-12
-2.05411e-12
1.81723e-12
1.18434e-12
1.57575e-13
-1.64151e-12
-2.73549e-13
-5.92637e-14
-3.15025e-13
-2.41584e-12
1.78824e-13
-3.23876e-12
1.33814e-12
-3.20323e-13
2.28079e-13
1.23535e-12
-3.32245e-12
3.42383e-12
-6.53274e-12
-3.18326e-12
-2.18164e-11
1.89131e-11
1.25082e-11
-1.15131e-11
1.67584e-13
1.07292e-11
2.89981e-11
-1.82763e-11
1.97965e-11
-1.28259e-11
1.0111e-11
-1.20036e-12
-5.39839e-12
-1.95177e-11
-2.6883e-11
1.51776e-11
-2.30238e-12
6.01632e-12
-6.02533e-12
7.55553e-12
1.40932e-12
-6.32521e-12
-8.56524e-12
-7.24899e-12
2.65836e-11
-4.62589e-13
-9.19002e-13
1.08217e-12
-3.48808e-12
-5.99812e-13
9.25836e-12
-1.84937e-12
-2.62672e-12
-3.66877e-13
4.45395e-11
1.19287e-11
-1.41026e-11
1.19003e-13
-2.27458e-12
-1.16474e-11
7.16543e-14
5.84385e-12
-5.5535e-12
-1.63539e-11
-3.78766e-12
-1.5691e-12
8.52308e-13
-4.40695e-13
-2.27095e-12
-3.72452e-13
7.06608e-13
2.01852e-12
-1.48362e-12
-2.09706e-13
-5.04537e-13
-9.52904e-13
2.35504e-13
-2.66853e-12
-1.56681e-12
-1.80727e-12
6.32046e-13
-5.80617e-12
-5.66246e-11
-4.16156e-12
1.80593e-12
1.319e-11
2.06338e-11
2.09739e-11
-5.94566e-12
-2.4384e-11
-9.40595e-12
9.82979e-12
2.68989e-11
-8.74337e-12
-2.36798e-11
6.98845e-12
-1.83446e-11
-8.10098e-12
-1.62959e-11
-1.0404e-11
-1.6526e-11
-7.56678e-12
3.62458e-12
4.37328e-12
3.40257e-11
-2.38068e-11
-3.79424e-12
-4.19894e-12
8.996e-12
4.02474e-12
-5.28439e-12
-1.12656e-11
-7.78044e-12
3.38317e-12
8.37804e-12
-1.29398e-12
-8.25088e-12
-1.19703e-11
8.45529e-12
1.99863e-12
9.40501e-12
4.2561e-11
-1.67852e-12
-1.47682e-11
1.04952e-11
-6.04644e-14
1.63402e-12
2.38843e-11
-4.49394e-12
-2.84445e-12
6.31785e-12
1.75326e-11
4.83461e-12
1.20146e-11
3.41703e-12
1.18569e-12
2.12565e-12
2.99131e-13
-7.07563e-13
6.60407e-14
3.85278e-14
6.94266e-14
-3.07231e-12
6.08666e-13
8.93905e-13
-2.36742e-13
7.85372e-14
-2.98708e-12
5.49318e-13
-7.02442e-12
4.3634e-12
8.25448e-12
1.66431e-11
-5.98631e-12
2.97293e-11
1.51809e-11
-9.14397e-12
-1.62314e-11
-1.67814e-11
2.51018e-11
-8.92162e-12
9.72377e-12
-1.46279e-11
4.52588e-12
6.82545e-12
2.47343e-11
-1.86689e-11
-1.69126e-11
3.04384e-12
-1.3106e-11
6.63929e-12
-1.99629e-11
2.05703e-11
-2.30957e-12
-7.03706e-12
-7.14626e-12
-2.17015e-12
1.20281e-11
1.37315e-11
-1.09494e-11
-6.0374e-12
-5.01021e-12
6.36269e-12
-4.53202e-12
2.66809e-13
1.09968e-11
-7.12308e-12
1.23078e-11
5.4071e-12