/*--------------------------------*- C++ -*----------------------------------*\
| =========                 |                                                 |
| \\      /  F ield         | OpenFOAM: The Open Source CFD Toolbox           |
|  \\    /   O peration     | Version:  v2012                                 |
|   \\  /    A nd           | Website:  www.openfoam.com                      |
|    \\/     M anipulation  |                                                 |
\*---------------------------------------------------------------------------*/
FoamFile
{
    version     2.0;
    format      ascii;
    class       volSymmTensorField;
    location    "12000";
    object      Sp;
}
// * * * * * * * * * * * * * * * * * * * * * * * * * * * * * * * * * * * * * //

dimensions      [0 0 -1 0 0 0 0];


internalField   nonuniform List<symmTensor> 
27324
(
(-383.141 -13472.3 -1.82778e-08 1535.91 1.97239e-09 -1152.77)
(-81.7258 -14611.2 -5.90444e-09 1396.66 6.4847e-10 -1314.94)
(-480.404 -29184.6 -3.60796e-08 1652.39 1.73866e-09 -1171.98)
(-216.356 -15303.1 -1.37461e-08 1380.26 1.18234e-09 -1163.9)
(-214.365 -31094.7 1.19362e-08 1536.49 -5.41831e-10 -1322.12)
(-566.462 -29706.9 1.43806e-08 1762.72 -7.41471e-10 -1196.26)
(-197.993 -16033.9 -7.04495e-09 1299.45 5.59567e-10 -1101.45)
(-328.141 -32234.8 -7.93079e-10 1506.5 1.84173e-11 -1178.35)
(-326.555 -30958.6 -1.34241e-09 1663.22 6.27551e-11 -1336.67)
(-633.492 -24054.1 1.07554e-08 1851.91 -6.48695e-10 -1218.42)
(-66.0937 -16688.2 -1.47065e-08 811.284 7.11793e-10 -745.19)
(-308.337 -33445.8 2.61753e-08 1425.49 -9.91008e-10 -1117.15)
(-422.216 -31698.9 -9.68794e-09 1620.7 4.5452e-10 -1198.48)
(-416.007 -24719.3 -7.98536e-09 1770.08 5.10909e-10 -1354.07)
(-670.045 -16278.2 -1.32252e-08 1905.11 1.16222e-09 -1235.06)
(-0.578923 -17128.2 -9.20045e-09 405.013 1.90084e-10 -404.434)
(-155.409 -34523 5.56611e-10 914.863 -2.8308e-11 -759.454)
(-397.689 -32547.5 -1.13141e-08 1532.62 4.54293e-10 -1134.93)
(-501.698 -25145.8 6.66478e-09 1718.83 -4.05407e-10 -1217.13)
(-465.411 -16447 -4.71846e-09 1834.6 4.14957e-10 -1369.19)
(-677.629 -9748.34 2.99383e-09 1922.96 -5.18786e-10 -1245.33)
(-11.1636 -17433.5 -1.59125e-08 277.186 2.52498e-10 -266.022)
(-57.825 -35231.8 1.35078e-08 467.996 -1.77693e-10 -410.171)
(-225.428 -33321 -1.023e-08 999.442 2.73417e-10 -774.014)
(-476.655 -25656.3 -8.82574e-09 1624.82 4.67026e-10 -1148.17)
(-540.007 -16508.7 8.61291e-09 1767.01 -7.56017e-10 -1227)
(-469.232 -9685.06 2.03909e-09 1855.04 -3.1423e-10 -1385.81)
(-672.165 -5644.98 3.29595e-09 1920.25 -8.74555e-10 -1248.09)
(-96.6954 -17757.4 -8.94033e-09 405.747 1.70928e-10 -309.051)
(-59.2954 -35706.1 -2.11003e-10 330.315 -3.69482e-13 -271.019)
(-102.287 -33769.8 -7.78527e-10 520.738 4.3201e-12 -418.451)
(-288.025 -26076.8 7.97081e-09 1074.86 -2.82057e-10 -786.84)
(-503.587 -16600.5 -3.60342e-09 1658.46 3.36286e-10 -1154.87)
(-528.836 -9616.87 2.18915e-09 1763.79 -3.34921e-10 -1234.95)
(-472.498 -5613.72 -1.39516e-09 1870.26 3.21506e-10 -1397.76)
(-668.376 -3380.46 -8.13145e-11 1911.57 3.32353e-10 -1243.19)
(-109.026 -18089.1 -1.71694e-08 -136.434 -1.76698e-10 245.46)
(-139.278 -36180.1 1.33296e-08 447.618 -1.38925e-10 -308.341)
(-90.9387 -33962.8 -1.09721e-08 367.847 9.81402e-11 -276.908)
(-136.93 -26192 -7.07223e-09 568.852 1.51772e-10 -431.922)
(-304.437 -16656.8 5.46788e-09 1107.37 -2.72507e-10 -802.936)
(-490.942 -9642 2.19825e-09 1646.29 -2.47383e-10 -1155.34)
(-530.385 -5623.21 9.004e-11 1759.77 -1.02318e-11 -1229.39)
(-481.966 -3401.25 3.00133e-10 1889.2 -2.78987e-10 -1407.23)
(-654.586 -1968.88 8.86615e-10 1885.88 -2.87821e-10 -1231.3)
(15.9534 -18324.7 -1.80316e-08 -2702.08 -2.50293e-09 2686.13)
(-144.226 -36660 -2.91038e-11 -99.6868 1.08002e-12 243.913)
(-161.579 -34090.2 -1.74623e-10 472.313 -9.32232e-12 -310.734)
(-96.8085 -26117.1 8.74934e-09 379.428 -1.07605e-10 -282.62)
(-144.048 -16570.8 -4.09273e-09 597.624 1.52284e-10 -453.576)
(-314.91 -9699.24 6.89397e-10 1133.06 1.69393e-11 -818.149)
(-487.413 -5753.15 -9.02219e-10 1624.69 2.31466e-10 -1137.28)
(-522.835 -3406.5 -1.01227e-09 1741.51 2.13959e-10 -1218.68)
(-484.367 -2010.75 4.0086e-10 1899.05 -3.88127e-10 -1414.69)
(-634.658 -1052.69 2.11131e-10 1841.76 1.67207e-10 -1207.1)
(2469.87 -15556 -5.71526e-09 -11535.4 -4.72937e-09 9065.54)
(210.526 -36386.4 6.25732e-10 -2911.1 4.22915e-11 2700.58)
(-84.065 -34338.4 -1.07175e-08 -177.83 -1.20181e-10 261.895)
(-154.239 -26119.2 -7.38873e-09 458.897 1.25112e-10 -304.658)
(-102.033 -16492.8 4.5693e-09 397.778 -9.44169e-11 -295.745)
(-169.219 -9616.83 1.80535e-09 642.593 -8.04903e-11 -473.374)
(-330.39 -5870.88 3.63798e-12 1163.23 -5.28644e-11 -832.839)
(-467.258 -3525.19 5.14319e-10 1577.11 -1.95087e-10 -1109.86)
(-507.945 -2023.53 3.06045e-10 1708.73 -1.78943e-10 -1200.79)
(-488.692 -1157.15 1.06979e-10 1905.97 -2.06228e-10 -1417.27)
(-604.24 -449.922 -3.2388e-10 1769.71 1.8849e-10 -1165.47)
(6265.1 -10778.9 -8.34734e-09 -20957.1 -1.65564e-08 14692)
(2997.82 -31143.1 1.05283e-08 -12078.4 4.03088e-09 9080.62)
(567.032 -33633 -1.1587e-08 -3367.68 -1.08867e-09 2800.65)
(-30.8664 -26477.2 8.08723e-09 -248.683 1.38783e-10 279.549)
(-134.465 -16646.5 -4.01087e-09 402.758 5.27507e-11 -268.293)
(-133.855 -9534.36 -4.35648e-10 442.146 6.42331e-12 -308.29)
(-184.597 -5720.26 -1.52522e-09 690.256 7.85008e-11 -505.659)
(-345.293 -3636.2 -1.05956e-10 1201.41 8.73115e-11 -856.117)
(-435.874 -2150.7 6.8826e-10 1502.5 -2.99792e-10 -1066.62)
(-492.005 -1205.89 3.21393e-10 1672.59 -2.02363e-10 -1180.58)
(-486.577 -609.584 -3.45835e-10 1889.89 1.84855e-10 -1403.31)
(-558.775 -49.9735 -9.92202e-11 1660.76 -2.44538e-12 -1101.99)
(4498.54 -7216.53 -5.05315e-09 -14796.4 -5.89716e-09 10297.9)
(6832.43 -21644.6 -9.49512e-10 -21536.1 -2.91038e-11 14703.7)
(3759.75 -30992.6 -2.11367e-09 -13034.7 -5.9481e-10 9275)
(779.045 -27257.6 7.37055e-09 -3726.46 1.32059e-09 2947.42)
(-66.537 -17245.1 8.21819e-09 -267.865 -1.16955e-11 334.402)
(-100.854 -9665.59 1.86265e-09 299.985 -4.31442e-11 -199.132)
(-148.057 -5520.05 -1.2642e-10 485.718 -1.25056e-12 -337.661)
(-197.468 -3436.34 2.78305e-10 738.435 -1.46372e-10 -540.966)
(-366.158 -2294.43 8.81073e-10 1254.36 -1.33923e-10 -888.199)
(-395.04 -1333.82 3.92106e-10 1405.03 -1.09594e-10 -1009.99)
(-480.846 -705.026 -3.28384e-10 1640 9.99307e-11 -1159.15)
(-467.536 -277.323 4.745e-11 1831.26 1.50067e-11 -1363.73)
(-500.857 185.766 2.14364e-10 1511.59 -1.8369e-10 -1010.73)
(610.883 -6315.17 -6.65386e-09 -3308.98 -2.65618e-09 2698.1)
(4875.39 -13973.3 4.32556e-09 -15251.3 5.18958e-09 10375.9)
(7516.26 -22242.7 -5.72618e-09 -22236.3 -6.14818e-09 14720.1)
(4299.68 -27424.3 -6.85031e-09 -13744.3 -3.17777e-09 9444.57)
(973.219 -19278.2 4.6457e-09 -4204.86 1.46474e-09 3231.64)
(-77.6011 -10364.5 2.14823e-09 -350.322 9.35643e-11 427.923)
(-26.7471 -5554.9 -1.29876e-09 136.762 3.38218e-12 -110.015)
(-151.523 -3257.78 -6.21185e-10 505.605 4.43947e-11 -354.082)
(-213.924 -2088.71 3.20597e-10 798.365 -1.71724e-10 -584.441)
(-390.896 -1513.98 2.7228e-10 1311.26 -1.4029e-10 -920.364)
(-356.291 -801.542 -1.78147e-10 1303.04 1.42563e-10 -946.748)
(-478.846 -459.238 1.32644e-10 1629.36 -9.20863e-12 -1150.52)
(-419.93 -116.983 9.46265e-11 1684.54 4.18368e-11 -1264.61)
(-439.623 327.161 -1.72356e-10 1338.88 1.85011e-10 -899.253)
(71.9565 -6284.47 -1.76169e-09 -522.33 -2.46928e-10 450.373)
(729.293 -12175.6 7.43967e-10 -3475.33 -2.59206e-11 2746.04)
(5214.44 -13982.9 -1.00044e-09 -15548.5 -1.69166e-10 10334.1)
(8092.18 -20751.5 7.75799e-09 -22700.2 5.43696e-09 14608.1)
(4760.42 -19937.8 -5.07862e-09 -14449.1 -3.08501e-09 9688.69)
(1285.68 -12555.7 5.73891e-10 -4924.88 4.35648e-10 3639.2)
(-7.8281 -6624.24 -9.42237e-10 -597.77 -2.16943e-10 605.598)
(5.21534 -3373.49 8.74024e-10 5.52761 7.24754e-13 -10.7429)
(-128.399 -1951.92 7.15772e-10 464.414 -4.58726e-11 -336.015)
(-255.911 -1347.35 6.63931e-11 904.776 -7.92397e-11 -648.864)
(-408.374 -996.171 -1.79455e-10 1346.69 4.78622e-11 -938.315)
(-326.475 -497.248 7.30154e-11 1223.66 -8.41283e-12 -897.181)
(-494.037 -429.36 7.37259e-11 1641.26 1.19599e-10 -1147.22)
(-353.212 -5.9044 9.86518e-11 1464.68 -1.14369e-10 -1111.47)
(-374.324 389.214 -2.39055e-10 1147.29 8.73803e-11 -772.965)
(26.8084 -6324.98 -5.88898e-09 -66.4151 -4.9333e-11 39.6067)
(94.0672 -12311.7 9.52605e-09 -561.179 3.80794e-10 467.112)
(835.8 -12179.3 -5.22596e-09 -3613.77 -6.18002e-10 2777.97)
(5699.18 -13895.5 -5.56611e-09 -16079.5 -3.88718e-09 10380.3)
(8232.75 -15299.2 7.90897e-09 -22529.2 9.54424e-09 14296.4)
(5081.37 -13713.9 3.59069e-09 -14944.4 3.23053e-09 9863.01)
(1710.76 -9029.28 -2.93767e-10 -5948.37 -5.41149e-11 4237.61)
(167.08 -4778.97 -7.86258e-10 -1118.84 -9.84528e-11 951.765)
(12.2439 -2202.78 6.67569e-10 -69.0447 9.89431e-11 56.8007)
(-75.1064 -1225.71 1.26192e-11 347.084 -2.48974e-11 -271.978)
(-321.856 -939.278 2.94392e-10 1063.05 5.24096e-11 -741.195)
(-396.932 -665.608 -1.60071e-10 1307.53 -3.7744e-11 -910.6)
(-322.544 -404.135 3.66214e-11 1201.42 7.96945e-11 -878.872)
(-523.424 -438.302 -2.69154e-10 1677.44 1.89857e-10 -1154.01)
(-246.442 71.7525 -9.39124e-11 1135.01 -1.4893e-11 -888.566)
(-335.337 335.342 -1.45526e-10 992.843 -1.41469e-11 -657.505)
(-29.252 -6581.11 -2.75577e-09 137.347 5.87335e-11 -108.095)
(-7.07949 -12483.2 4.36557e-10 -17.5996 6.60805e-13 24.6791)
(103.141 -12629 -4.93674e-09 -587.068 -1.98781e-10 483.928)
(1060.18 -12563.6 4.58203e-09 -3971.99 5.23869e-10 2911.81)
(5978.25 -10842.3 -3.76349e-09 -16359.2 -2.37378e-09 10381)
(7857.36 -9204.95 1.51158e-09 -21513 3.65617e-09 13655.6)
(5308.96 -10748.5 -1.63982e-09 -15250.2 -2.53749e-09 9941.28)
(2343.08 -8344.87 -3.56522e-10 -7428.81 -4.37467e-10 5085.73)
(457.828 -4067.12 5.8435e-10 -2057.06 3.49587e-10 1599.24)
(-11.7861 -1679.71 -7.34417e-11 -178.355 1.83675e-11 190.142)
(12.0381 -816.125 1.50408e-10 151.781 2.96581e-11 -163.819)
(-389.97 -795.575 -6.87805e-12 1212.24 -1.81899e-12 -822.266)
(-352.017 -493.788 -1.97844e-10 1183.41 5.95719e-11 -831.398)
(-363.895 -421.734 2.09084e-10 1296.6 -9.78844e-11 -932.705)
(-484.195 -429.006 -1.34492e-10 1545.26 4.22915e-11 -1061.06)
(-188.696 154.023 -8.0874e-11 883.791 -7.86713e-11 -695.095)
(-320.908 301.632 1.93886e-10 940.915 -5.41327e-11 -620.007)
(-56.7234 -6879.68 -5.93172e-09 208.557 1.65329e-10 -151.833)
(-67.0607 -13002.3 4.36012e-09 175.202 -4.88143e-11 -108.141)
(-41.4143 -12881.1 -5.31145e-09 23.4196 9.83924e-12 17.9947)
(128.93 -13205.7 -3.90901e-09 -646.548 -2.48519e-10 517.617)
(1318.58 -11048.3 5.8335e-09 -4428.76 2.30875e-09 3110.18)
(5958.39 -5351.47 1.66892e-09 -16275 2.4138e-09 10316.6)
(7161.91 -5148.14 -8.18545e-10 -19751.9 -4.36557e-11 12589.9)
(5495.79 -9456.48 1.08321e-09 -15406.3 2.1264e-09 9910.55)
(3195.01 -8694.18 1.00499e-09 -9444.52 1.62709e-09 6249.51)
(1038.98 -4553.54 6.66887e-10 -3698.22 5.532e-10 2659.24)
(55.546 -1734.09 5.55929e-11 -602.955 -6.29825e-11 547.409)
(67.013 -757.094 -1.94376e-10 -46.3344 -9.19798e-12 -20.6786)
(-373.16 -861.913 1.43189e-10 1164.87 -1.50067e-11 -791.709)
(-278.22 -433.753 -1.47068e-10 978.781 7.13953e-11 -700.561)
(-451.68 -597.507 -6.7871e-11 1477.39 3.96767e-11 -1025.7)
(-408.178 -266.318 1.5774e-12 1295.1 4.00178e-11 -886.927)
(-85.9066 258.797 -5.57776e-11 617.065 6.36078e-11 -531.159)
(-355.21 143.989 4.91145e-11 981.08 -5.23137e-11 -625.869)
(-66.4807 -7154.32 -5.45424e-09 227.913 1.78147e-10 -161.433)
(-97.5129 -13323.2 -9.73159e-10 250.954 -2.04636e-12 -153.441)
(-88.7892 -13155.8 -8.98581e-10 196.539 6.45173e-12 -107.75)
(-47.9569 -13351.7 4.3965e-09 31.2906 1.15747e-11 16.6663)
(182.28 -12128.9 -3.3524e-09 -742.66 -7.71365e-11 560.381)
(1586.93 -7204.57 1.95541e-09 -5054.72 9.99535e-10 3467.79)
(5667.09 -409.703 -1.427e-09 -15717.3 -2.46655e-09 10050.2)
(6195.49 -2938.98 1.43245e-10 -17274.1 -1.9154e-09 11078.6)
(5575.42 -8657.15 1.98997e-09 -15157.6 3.47973e-09 9582.21)
(4259.84 -9106.12 8.59472e-10 -11857.3 9.33142e-10 7597.44)
(2066.17 -5724.82 -2.3374e-10 -6381.56 -4.83396e-10 4315.38)
(476.555 -2527.6 -4.03588e-11 -1960.85 8.40146e-11 1484.3)
(111.547 -1294.03 1.17723e-10 -344.44 1.62856e-11 232.893)
(-232.209 -1108.85 2.07194e-10 741.238 -1.8531e-11 -509.03)
(-132.032 -652.414 6.44889e-11 578.015 1.53477e-11 -445.983)
(-458.984 -877.233 9.23706e-11 1435.9 -2.8308e-11 -976.918)
(-251.049 -199.666 2.17014e-10 780.658 -3.02975e-11 -529.608)
(43.3888 -22.747 -1.47686e-11 206.002 -2.92744e-12 -249.39)
(-198.095 -257.271 3.18821e-11 542.342 1.13687e-12 -344.247)
(-69.3824 -7419.78 3.25053e-09 221.242 -8.91589e-11 -151.86)
(-106.229 -13610.9 1.03864e-09 270.441 -2.98428e-12 -164.211)
(-103.356 -13140.2 -3.9945e-09 260.113 6.79563e-11 -156.757)
(-81.4173 -13296.4 -3.25417e-09 185.745 4.38263e-11 -104.328)
(-22.2084 -12308 4.19823e-09 -2.03613 -2.94662e-11 24.2445)
(239.143 -9125.24 2.44927e-09 -885.618 2.37208e-10 646.475)
(1862.68 -2783.87 7.41238e-11 -5848.28 -3.16504e-10 3985.6)
(5243.82 2887.7 4.529e-10 -14831.3 1.98634e-09 9587.47)
(4983.84 -1640.24 6.45286e-10 -14114 1.31695e-09 9130.15)
(5243.93 -7719.18 4.93401e-10 -13954.1 1.38061e-09 8710.2)
(5272.18 -9408.62 -4.57931e-10 -14029 -1.02955e-09 8756.82)
(3630.76 -7605.8 -9.54969e-12 -10190.6 1.22782e-10 6559.81)
(1589.93 -4555.41 4.54747e-12 -5026.6 2.09639e-10 3436.67)
(496.48 -2902.72 -1.97247e-10 -1728.46 -3.23098e-10 1231.98)
(126.427 -2038.29 -6.18456e-11 -473.11 -1.11555e-10 346.683)
(137.164 -1456.3 -1.64789e-10 -292.814 -1.13232e-10 155.65)
(-237.608 -1774.08 -1.28807e-10 640.961 2.20552e-11 -403.353)
(410.868 -413.938 -5.39728e-11 -1195.41 -3.26281e-11 784.545)
(148.708 -1683.42 5.0477e-11 -124.876 3.13918e-11 -23.8315)
(731.493 -419.032 7.46354e-11 -2113.01 1.59275e-10 1381.52)
(-49.782 -7597.33 -8.15544e-09 159.605 1.25382e-10 -109.823)
(-100.278 -13838.2 1.6189e-10 252.697 -3.41061e-12 -152.419)
(-107.681 -13091.3 -3.46699e-09 275.557 7.13953e-11 -167.876)
(-93.6584 -13192.3 4.21824e-09 250.67 -5.86624e-11 -157.012)
(-59.5699 -12160.8 -2.78851e-09 159.431 3.70051e-11 -99.8606)
(8.51181 -9614.53 8.2764e-11 -51.1522 -3.62212e-11 42.6404)
(305.796 -5628.28 -1.31331e-09 -1119.57 4.95675e-11 813.775)
(2248.98 840.069 -4.90218e-10 -6943.38 -1.24101e-09 4694.39)
(4610.53 4973.39 -1.85082e-10 -13412.4 1.83354e-09 8801.87)
(3625.92 -843.791 3.11331e-10 -10505.4 1.20417e-09 6879.52)
(4364.43 -6274.78 -5.27962e-10 -11492.8 -1.11595e-09 7128.37)
(5581.47 -8866.65 -1.86901e-10 -14500 -2.45564e-10 8918.49)
(5289.22 -9338.84 1.23691e-10 -14020.2 2.77396e-10 8731.02)
(3643.9 -7737.63 7.23503e-10 -10143.5 1.24146e-09 6499.64)
(2082.81 -6130.56 -2.26692e-10 -6075.08 -1.77806e-10 3992.27)
(1416.2 -4721.79 3.50383e-10 -4245.74 3.05818e-10 2829.54)
(1031.94 -4225.97 2.35787e-10 -3162.78 1.60526e-10 2130.85)
(1261.01 -3830.98 -6.91216e-11 -3677.03 1.30058e-10 2416.01)
(1399.49 -3689.22 7.50333e-11 -4266.67 8.16271e-11 2867.18)
(1719.55 -4343.09 -1.61208e-10 -5198.31 -1.45519e-10 3478.75)
(1986.59 -3282.76 9.64064e-11 -6302.93 1.57911e-10 4316.34)
(-44.7949 -7693.74 -4.29281e-09 130.513 5.02496e-11 -85.7176)
(-70.6405 -13947.2 -1.8008e-10 182.52 4.12115e-13 -111.879)
(-94.7682 -12981 3.91083e-10 250.367 -2.72848e-12 -155.599)
(-95.4551 -13100.3 2.72848e-09 264.06 -5.93161e-11 -168.605)
(-85.3248 -12069 2.79215e-09 245.537 -5.5735e-11 -160.212)
(-42.1519 -9718.6 2.49111e-09 142.607 -4.01457e-11 -100.455)
(-6.49161 -6418.87 1.72804e-11 -62.7001 1.73861e-12 69.1918)
(411.594 -2596.71 7.99901e-10 -1511.13 1.00272e-10 1099.54)
(2794.39 3531.85 -3.32399e-10 -8375.16 9.1768e-10 5580.77)
(3687.27 5873.84 -4.99995e-10 -11294.7 8.93124e-10 7607.47)
(2262.95 -255.319 4.21238e-10 -6854.55 -4.90218e-10 4591.6)
(3041.06 -4431.72 -3.79032e-10 -8017.82 -7.09406e-11 4976.76)
(4645.22 -7117.22 -2.46018e-10 -12002.3 -5.59339e-10 7357.04)
(5653.96 -9234.04 -1.10504e-09 -14638.3 -2.08638e-09 8984.3)
(5381.17 -9875.08 -2.86491e-11 -14137.1 3.10138e-10 8755.95)
(4328.66 -9509.7 -3.94721e-10 -11709.3 -5.82986e-10 7380.64)
(3525.37 -8513.4 -5.21595e-10 -10034.3 -9.09495e-10 6508.94)
(3058.48 -8313.86 1.67802e-10 -8727.32 3.04681e-10 5668.84)
(3014.83 -7053.11 1.45519e-10 -9351.82 2.97405e-10 6337)
(2772.07 -7931.55 -5.13865e-11 -8447.13 1.27329e-11 5675.06)
(2840.58 -6580.56 2.33968e-10 -9586.67 3.7744e-10 6746.09)
(3458.26 -3929.18 1.74467e-10 -9140.89 4.08249e-10 5682.63)
(-46.3156 -7728.1 -7.64703e-09 122.494 8.94858e-11 -76.1781)
(-53.6177 -13972.1 4.6457e-09 139.152 -4.44658e-11 -85.5342)
(-62.4109 -12837.2 -5.37875e-09 177.279 4.99938e-11 -114.868)
(-82.665 -13016.6 9.84073e-10 240.223 -5.59908e-12 -157.558)
(-92.1639 -12095.9 2.00816e-09 262.691 -5.3376e-11 -170.527)
(-89.1751 -9831.47 -2.91038e-11 250.711 -2.78533e-12 -161.535)
(-68.4208 -6685.33 -1.75169e-09 153.906 3.05675e-11 -85.4851)
(2.2375 -3644.21 -4.36557e-10 -116.973 -1.64455e-11 114.736)
(634.214 -426.402 8.19227e-10 -2174.73 1.84627e-10 1540.52)
(3322.82 5448.26 -1.78716e-10 -9844.42 1.02864e-09 6521.59)
(2552.03 5955.88 2.40561e-10 -8613.77 -7.03949e-10 6061.74)
(1132.17 156.79 -1.8516e-10 -3705.63 4.502e-11 2573.47)
(1669.64 -2511.87 1.13346e-10 -4470.58 4.95675e-11 2800.94)
(2758.52 -4487.73 -3.96994e-10 -7177.93 -6.96673e-10 4419.4)
(3802.78 -6634.24 -1.67802e-10 -9928.28 -1.85537e-10 6125.5)
(4387.49 -8340.03 6.01176e-10 -11440.7 1.08957e-09 7053.16)
(4266.69 -9018.59 3.41515e-10 -11325.1 4.22006e-10 7058.44)
(3912.84 -8770.96 -4.6748e-10 -10714 -9.5315e-10 6801.13)
(3460.39 -8124.45 2.72848e-12 -9787.58 2.51021e-10 6327.19)
(3109.11 -7095.12 -9.77707e-12 -8926.7 2.36469e-11 5817.59)
(2720.15 -5550.85 -5.02496e-11 -7751.25 1.15961e-10 5031.1)
(1478.25 -4035.01 1.23578e-10 -5652.51 2.36469e-10 4174.25)
(2893.43 314.758 -2.89617e-11 -7514.15 2.73928e-10 4620.72)
(-52.1781 -7714.21 -2.68938e-09 126.793 4.68532e-11 -74.6145)
(-45.0576 -13935.1 7.67614e-10 118.556 -2.82796e-12 -73.4981)
(-44.2268 -12693.8 -9.24047e-10 131.746 4.60432e-12 -87.5195)
(-51.2178 -12957.9 5.04042e-09 168.639 -4.88001e-11 -117.421)
(-85.5721 -12184 7.63976e-11 245.879 -7.13385e-12 -160.307)
(-109.425 -9967.13 -1.03046e-09 278.096 3.0127e-12 -168.671)
(-110.961 -6823.11 1.74623e-10 264.105 5.22959e-12 -153.144)
(-60.4639 -3829.37 4.80668e-10 135.306 -2.63327e-11 -74.8421)
(41.5267 -1911.84 8.74479e-10 -243.742 -3.255e-11 202.216)
(995.559 1021.1 5.66047e-10 -3265.25 4.75438e-10 2269.69)
(3636.47 7041.06 5.07498e-10 -10862.1 -1.33696e-09 7225.66)
(1434.44 5296.39 1.95996e-10 -5753.53 4.00178e-11 4319.1)
(367.771 453.734 -9.70886e-11 -1474.68 -1.46201e-10 1106.91)
(602.584 -1026.27 1.83149e-10 -1685.81 2.35787e-10 1083.23)
(996.729 -1972.36 -2.72848e-12 -2642.29 -9.09495e-11 1645.56)
(1458.73 -3260.88 -1.34378e-10 -3770.36 -4.52474e-10 2311.62)
(1854.55 -4482.9 -6.9349e-11 -4718.42 -9.54969e-11 2863.87)
(1996.18 -5003.61 -2.08956e-10 -5146.25 -3.18323e-12 3150.07)
(1940.79 -4742.75 -2.11458e-11 -5082.09 9.23137e-11 3141.3)
(1720.8 -3814.47 1.13687e-12 -4531.2 2.22826e-11 2810.39)
(1316.48 -2543.64 5.9174e-11 -3509.39 2.23963e-10 2192.92)
(885.055 -1223.09 -5.21823e-11 -2346.66 -4.83169e-11 1461.61)
(38.0886 743.789 -7.04006e-11 -2038.41 7.27596e-12 2000.33)
(1110.96 2599.28 -3.78293e-11 -4025.2 3.63798e-12 2914.24)
(-56.9135 -7638.19 -7.68523e-09 134.367 9.8396e-11 -77.4539)
(-41.2159 -13822.4 1.19198e-08 111.03 -7.35412e-11 -69.8144)
(-32.2552 -12577.9 -3.8508e-09 106.539 2.85638e-11 -74.284)
(-35.8288 -12926.2 -3.89082e-09 125.695 2.94591e-11 -89.8657)
(-60.8411 -12349 6.6193e-09 181.565 -7.61133e-11 -120.724)
(-113.923 -10111.6 4.45016e-09 271.297 -8.60041e-11 -157.374)
(-119.667 -6894.09 -6.82121e-11 281.675 0 -162.008)
(-101.385 -3841.25 -8.76753e-10 250.167 3.55556e-11 -148.782)
(-47.1783 -2195.6 2.93767e-10 104.943 -3.48024e-11 -57.7645)
(95.3726 -1060.27 1.26647e-10 -458.402 -3.31681e-11 363.029)
(1598.93 2755.08 -1.50038e-10 -4967.18 -1.13687e-11 3368.25)
(3494.56 7964.66 3.5925e-11 -10824.3 -6.63931e-11 7329.76)
(517.567 4008.27 -6.13909e-12 -3150.16 -3.86535e-11 2632.59)
(-111.511 611.596 -7.7307e-12 -54.1159 -2.89901e-12 165.626)
(10.9739 -170.436 -7.0802e-11 -121.964 1.10845e-12 110.99)
(93.6752 -609.653 -9.26832e-11 -211.04 -6.12772e-11 117.365)
(211.398 -1256.14 1.10504e-10 -326.599 2.37037e-11 115.201)
(295.604 -1790.13 -3.4504e-11 -425.622 -1.47935e-10 130.017)
(346.995 -1848.7 4.54747e-11 -566.481 -2.7967e-11 219.486)
(324.215 -1454.35 -3.10365e-11 -609.246 -1.71099e-11 285.03)
(238.328 -825.308 -8.97558e-11 -510.626 -2.03215e-11 272.298)
(96.9661 -225.343 8.52651e-13 -302.954 1.09139e-11 205.988)
(192.336 449.846 2.70006e-11 -674.133 -9.54969e-12 481.797)
(-54.0555 3331.85 3.7403e-11 -2344.57 3.3765e-11 2398.62)
(208.056 2477.32 -2.359e-11 -1969.6 6.65068e-11 1761.54)
(-54.9968 -7511.63 -4.37376e-09 134.326 5.11022e-11 -79.3293)
(-41.2894 -13624.3 -9.05857e-10 117.023 -2.50111e-12 -75.734)
(-26.3426 -12488.7 -5.30054e-09 98.9801 3.00702e-11 -72.6375)
(-30.2321 -12976.5 4.26917e-09 105.653 -2.97575e-11 -75.421)
(-53.7631 -12541.7 -2.75395e-09 146.395 2.7498e-11 -92.6318)
(-94.6779 -10227.7 1.70894e-09 210.37 -3.41061e-11 -115.692)
(-115.495 -6927.44 -1.34878e-09 273.493 3.78861e-11 -157.998)
(-107.276 -3836.16 -7.567e-10 262.739 3.2486e-11 -155.463)
(-86.6108 -2299.15 2.66255e-10 223.305 -2.63185e-11 -136.694)
(-51.1642 -1510.25 -2.32376e-10 82.1041 -2.55937e-11 -30.9399)
(243.174 -88.2177 -7.79892e-11 -917.696 -5.92308e-11 674.522)
(2375.63 4786.56 -1.59162e-11 -7181.5 -2.95586e-11 4805.87)
(2832.02 7622.55 7.36691e-11 -9420.88 -4.21096e-10 6588.86)
(-55.9467 2632.44 2.21462e-10 -1265.73 -6.68479e-11 1321.68)
(-322.951 578.989 -9.14042e-11 641.953 1.97247e-11 -319.001)
(-189.034 134.135 1.10042e-10 454.699 -5.15854e-11 -265.665)
(-125.654 -270.095 2.06754e-10 510.722 -9.66338e-13 -385.068)
(-154.432 -714.393 -9.5099e-11 810.805 -8.92442e-12 -656.373)
(-182.254 -874.459 -5.61045e-11 948.487 6.53699e-12 -766.233)
(-186.291 -722.493 8.30198e-11 860.179 1.05729e-11 -673.888)
(-163.36 -358.31 6.40341e-11 618.077 -9.66338e-12 -454.717)
(-101.25 -29.1488 -6.29043e-11 307.255 4.78906e-12 -206.006)
(-20.9615 204.193 -1.99094e-11 -15.748 -2.93454e-12 36.7095)
(368.336 1960.61 -2.41016e-11 -1732.25 -3.97904e-11 1363.91)
(-111.492 3791.01 -5.35465e-11 -2402.55 6.37783e-11 2514.04)
(-29.8769 1364.07 -3.78009e-12 -843.39 1.62856e-11 873.267)
(-41.1327 -7385.23 -8.23002e-09 111.81 8.4782e-11 -70.6768)
(-36.0651 -13419.4 5.38421e-09 113.843 -3.73461e-11 -77.7778)
(-26.6712 -12454 -4.82396e-09 103.903 2.91749e-11 -77.2321)
(-36.4595 -13133.2 -3.20142e-09 110.05 2.64606e-11 -73.5901)
(-57.5599 -12742.9 6.25732e-09 133.448 -5.40012e-11 -75.8882)
(-83.4689 -10290.2 1.66165e-09 171.994 -2.57216e-11 -88.525)
(-84.2603 -6885.53 -8.74024e-10 207.705 -2.55795e-12 -123.445)
(-106.295 -3818.79 1.2069e-09 260.308 -3.96483e-11 -154.012)
(-94.8744 -2315.55 3.40833e-10 242.202 -1.82467e-11 -147.327)
(-78.9652 -1640.47 -7.34417e-11 192.213 -1.85167e-11 -113.248)
(-30.4629 -852.134 -2.14868e-11 17.6331 2.20268e-12 12.8299)
(550.39 1093.91 4.89308e-10 -1856.03 -1.33582e-10 1305.64)
(3084.53 6668.5 2.70802e-10 -9288.5 -6.04814e-10 6203.98)
(1878.93 6133.07 9.54969e-11 -7017.3 -3.92902e-10 5138.37)
(-117.882 1339.48 -3.10365e-11 -551.249 1.74907e-10 669.13)
(-194.867 395.633 4.41958e-12 435.081 8.04334e-12 -240.214)
(-152.628 5.05217 -2.39506e-11 447.775 3.97904e-13 -295.147)
(-165.899 -424.205 -1.76641e-11 687.27 1.06297e-11 -521.371)
(-253.853 -769.264 -2.08047e-11 1066.21 3.64935e-11 -812.352)
(-275.488 -769.762 1.41256e-11 1122.16 -1.92131e-11 -846.669)
(-242.448 -490.756 8.79368e-11 899.811 -3.41061e-11 -657.363)
(-152.006 -133.495 3.90479e-11 520.949 -1.25056e-12 -368.944)
(-71.2201 114.61 4.33431e-13 177.833 -2.76401e-12 -106.613)
(182.536 954.579 1.47509e-11 -806.532 -3.97904e-12 623.996)
(286.171 3282.33 -9.23137e-11 -2598.57 8.39009e-11 2312.4)
(-66.0869 2486.89 5.28644e-12 -1651.05 -5.12728e-11 1717.13)
(-14.8789 615.781 -5.13438e-11 -405.698 3.87956e-12 420.577)
(-18.454 -7348.63 -6.75118e-09 70.4021 5.6815e-11 -51.9481)
(-30.1939 -13291.4 -2.94676e-10 101.15 2.84217e-14 -70.9557)
(-30.1882 -12530.9 -4.05635e-10 108.567 2.6148e-12 -78.3791)
(-49.5841 -13362.6 3.51974e-09 126.977 -3.09797e-11 -77.3926)
(-64.062 -12920.5 -2.80488e-09 133.338 2.30784e-11 -69.2761)
(-74.8555 -10281.9 2.5002e-09 150.027 -2.41442e-11 -75.1715)
(-61.6776 -6789.34 -1.69166e-09 158.432 2.17e-11 -96.7542)
(-82.791 -3791.91 -6.72117e-10 207.295 2.02505e-11 -124.504)
(-95.9604 -2329.83 8.70159e-10 246.432 -2.42437e-11 -150.471)
(-85.6177 -1667.42 -2.41243e-10 220.686 -2.18563e-11 -135.069)
(-48.211 -1000.34 3.37309e-10 131.179 1.64988e-11 -82.9676)
(19.0982 -259.781 -3.3225e-10 -157.647 2.96296e-12 138.548)
(1151.5 2584.36 4.85727e-10 -3604.62 -3.18551e-10 2453.13)
(3240.7 7859.64 2.87855e-10 -10097.3 2.72848e-12 6856.59)
(1037.86 4054.81 -4.29736e-11 -4473.57 -5.63887e-11 3435.71)
(71.9255 398.378 9.38485e-11 -582.151 5.97424e-11 510.225)
(15.4344 64.2675 7.94955e-11 17.638 1.506e-11 -33.0725)
(-83.0739 -218.457 -2.92957e-11 357.015 -7.07701e-12 -273.941)
(-190.893 -651.244 -7.95239e-11 830.314 3.61524e-11 -639.421)
(-243.105 -865.923 -5.05906e-11 1069.51 -9.15179e-12 -826.406)
(-237.626 -704.192 -4.74074e-11 959.056 6.19593e-12 -721.43)
(-166.973 -364.452 3.94209e-11 600.655 1.09424e-11 -433.682)
(-73.6192 -32.1499 -8.03535e-12 222.29 4.9738e-13 -148.671)
(72.4538 335.81 -2.55227e-11 -255.51 -7.19069e-12 183.056)
(295.483 2506.22 -1.92131e-11 -2099.74 1.15961e-11 1804.25)
(120.968 2960.96 2.45564e-11 -2260.58 1.75078e-11 2139.61)
(-34.5454 1191.01 -2.13163e-11 -821.887 1.21361e-11 856.433)
(-7.56264 304.648 -2.60201e-11 -204.341 -1.5774e-12 211.903)
(12.9508 -7429.4 -4.31646e-09 3.64488 4.43556e-12 -16.5957)
(-24.5787 -13318.4 -6.91216e-10 79.649 8.31335e-13 -55.0703)
(-34.9578 -12686.4 -4.60932e-09 105.78 2.9388e-11 -70.8223)
(-57.8203 -13616.2 -3.7744e-09 134.601 3.22871e-11 -76.7806)
(-70.0697 -13012.1 3.5925e-09 141.561 -2.93312e-11 -71.4918)
(-63.3341 -10207.1 2.55568e-09 134.252 -2.03357e-11 -70.9183)
(-48.296 -6683.67 -1.01863e-10 129.457 -1.25056e-12 -81.1606)
(-63.5909 -3758.1 3.25599e-10 160.678 -2.16716e-11 -97.0875)
(-78.4451 -2319.22 -4.63842e-11 207.609 -1.60298e-11 -129.164)
(-90.1343 -1694.02 -5.04997e-10 231.462 3.76019e-11 -141.327)
(-70.0722 -1062.76 -1.3506e-10 191.333 1.11271e-11 -121.261)
(-31.9469 -547.657 1.23578e-10 74.0035 -9.97602e-12 -42.0566)
(158.098 339.243 1.58892e-10 -595.861 -1.77636e-11 437.763)
(2053.38 4554.84 1.95769e-10 -6219.57 -5.18412e-10 4166.19)
(2588.63 7631.27 2.57387e-10 -8761.86 -4.15639e-10 6173.24)
(421.578 2249.46 -4.09273e-12 -2234.69 1.3415e-11 1813.11)
(77.2857 55.1751 -1.81942e-10 -384.308 -1.7593e-11 307.022)
(-17.6244 -94.0185 2.30571e-12 99.556 -2.10321e-12 -81.9316)
(-126.319 -417.897 9.76286e-12 540.835 1.60298e-11 -414.516)
(-214.909 -833.851 -2.32205e-11 969.036 -2.78533e-12 -754.127)
(-244.117 -847.189 -6.37783e-11 1022.87 -3.12639e-12 -778.754)
(-191.507 -561.923 -5.68434e-12 746.737 8.29914e-12 -555.23)
(-101.826 -182.317 6.02398e-11 332.74 3.86535e-12 -230.914)
(-7.69485 72.1599 -5.33973e-12 -0.0945735 -1.2097e-12 7.78943)
(292.111 1425.87 -1.10845e-11 -1370.44 -8.41283e-12 1078.33)
(169.911 3288.87 -9.09495e-12 -2559.76 -4.718e-11 2389.85)
(42.3039 1680.92 -6.58247e-11 -1267.89 1.7792e-11 1225.59)
(-41.31 541.106 -4.27463e-11 -338.774 2.11742e-12 380.084)
(-11.6101 200.436 3.66533e-11 -111.714 -5.25802e-13 123.324)
(36.5331 -7572.34 -5.97993e-09 -54.4218 -3.35305e-11 17.8888)
(-0.558284 -13484.1 3.76895e-09 15.3368 -5.75007e-12 -14.7785)
(-33.4614 -12843.9 -4.54929e-09 85.565 2.0087e-11 -52.1036)
(-54.606 -13824.7 4.62751e-09 121.693 -2.72138e-11 -67.0874)
(-72.4659 -12976.5 -2.79033e-09 147.618 2.75833e-11 -75.1519)
(-47.4553 -10102.2 -1.76442e-10 120.191 -1.15108e-12 -72.7357)
(-43.8714 -6587.12 -1.2742e-09 119.027 1.88152e-11 -75.1559)
(-50.6597 -3745.06 -9.94532e-10 130.234 1.46372e-11 -79.5742)
(-61.4051 -2284.91 6.27779e-10 164.997 -3.42908e-11 -103.592)
(-79.877 -1709.75 2.91948e-10 210.473 -2.20552e-11 -130.596)
(-81.0771 -1102.24 -1.14483e-10 213.189 1.31593e-11 -132.112)
(-65.1246 -647.926 2.18847e-11 164.375 -3.09797e-12 -99.2507)
(-21.517 -216.389 1.49583e-10 18.8587 -8.45901e-12 2.65831)
(524.641 1273.62 2.21661e-10 -1677.5 8.74252e-11 1152.86)
(2841.72 6616.4 6.00267e-11 -8701.14 -3.45608e-10 5859.42)
(1466.68 5866.42 -2.45336e-10 -5805.54 5.64796e-10 4338.86)
(-96.8541 1236.27 1.78488e-11 -440.199 -2.3249e-11 537.053)
(-39.1441 64.1118 1.77742e-11 50.0057 -3.25606e-12 -10.8616)
(-79.5861 -161.4 1.02744e-11 313.225 1.0715e-11 -233.639)
(-174.041 -640.813 8.01492e-11 785.118 -6.36646e-12 -611.077)
(-240.979 -897.914 -5.74119e-11 1052.46 1.08002e-12 -811.483)
(-214.647 -721.684 -2.21405e-11 882.407 0 -667.76)
(-131.553 -348.367 -1.5774e-11 494.264 8.21387e-12 -362.711)
(-45.3939 -24.6519 -7.42277e-11 122.072 4.2526e-12 -76.6785)
(195.732 599.49 -1.39835e-11 -683.138 2.76259e-11 487.406)
(270.733 2947.65 -6.13909e-12 -2439.55 -1.06866e-11 2168.82)
(56.2783 2379.71 -3.49587e-11 -1792.13 1.96678e-11 1735.85)
(-0.471186 760.656 1.32729e-11 -536.583 6.82121e-12 537.054)
(-49.8421 297.941 -3.54561e-12 -135.266 3.9222e-12 185.108)
(-9.79005 166.96 -1.28662e-11 -88.9679 -2.25953e-12 98.7579)
(65.9797 -7761.16 -3.69346e-09 -124.375 -4.33573e-11 58.3956)
(10.6941 -13760.9 -1.60253e-09 -25.4963 1.68932e-12 14.8022)
(-19.3726 -12951.2 -1.05501e-10 35.4271 3.48166e-12 -16.0545)
(-36.4398 -13901.1 4.01269e-09 80.7791 -1.61506e-11 -44.3392)
(-56.5857 -12889.6 3.68163e-09 122.176 -2.37037e-11 -65.5908)
(-44.2297 -9996.63 2.21917e-09 126.538 -1.91136e-11 -82.3084)
(-44.4081 -6531 -6.93035e-10 118.047 1.84741e-13 -73.6386)
(-45.0591 -3745.35 4.97948e-10 119.665 -1.63851e-11 -74.6057)
(-50.8104 -2257.53 4.84306e-10 135.591 -1.37277e-11 -84.781)
(-65.8128 -1701.04 6.22094e-10 174.76 -1.61577e-11 -108.948)
(-83.8815 -1135.87 1.01863e-10 216.902 1.45093e-11 -133.02)
(-75.6308 -700.299 2.3374e-10 189.498 -1.42251e-11 -113.867)
(-46.4426 -334.247 -1.37675e-10 114.847 5.7554e-12 -68.4042)
(39.2161 96.5469 -1.56092e-10 -176.551 8.35598e-12 137.335)