/*--------------------------------*- C++ -*----------------------------------*\
| =========                 |                                                 |
| \\      /  F ield         | OpenFOAM: The Open Source CFD Toolbox           |
|  \\    /   O peration     | Version:  v2012                                 |
|   \\  /    A nd           | Website:  www.openfoam.com                      |
|    \\/     M anipulation  |                                                 |
\*---------------------------------------------------------------------------*/
FoamFile
{
    version     2.0;
    format      ascii;
    class       volScalarField;
    location    "12000";
    object      T;
}
// * * * * * * * * * * * * * * * * * * * * * * * * * * * * * * * * * * * * * //

dimensions      [0 0 0 1 0 0 0];


internalField   nonuniform List<scalar> 
27324
(
165.696
168.123
163.001
169.575
165.215
159.035
171.085
166.536
161.076
154.793
172.382
167.904
162.297
156.714
151.129
173.178
169.076
163.563
157.862
153.019
148.459
173.619
169.789
164.65
159.043
154.156
150.373
146.652
173.948
170.181
165.309
160.069
155.315
151.532
148.588
145.379
174.259
170.466
165.688
160.705
156.314
152.703
149.759
147.329
144.481
172.891
170.762
165.968
161.058
156.934
153.71
150.93
148.514
146.44
143.879
166.044
169.335
166.204
161.297
157.282
154.354
151.945
149.677
147.638
145.83
143.521
151.854
162.937
164.831
161.467
157.531
154.726
152.63
150.678
148.783
147.044
145.439
143.381
138.024
149.553
158.909
160.217
157.721
154.975
153.037
151.394
149.768
148.171
146.653
145.233
143.401
131.799
136.431
146.548
154.351
156.283
155.113
153.278
151.828
150.543
149.128
147.747
146.44
145.131
143.521
130.584
130.419
134.399
142.974
150.261
153.344
153.318
152.065
151.007
149.956
148.654
147.526
146.282
145.074
143.745
130.387
129.216
128.653
131.931
139.456
147.112
151.196
151.863
151.221
150.438
149.54
148.386
147.375
146.106
145.087
144
130.464
129.031
127.484
126.506
129.182
136.651
144.5
149.358
150.834
150.604
150.068
149.279
148.19
147.253
145.93
145.081
144.198
130.605
129.083
127.313
125.355
123.983
126.807
134.641
142.071
147.26
149.752
150.138
149.864
149.017
148.069
147.091
145.712
145.198
144.456
130.768
129.187
127.322
125.18
122.809
121.462
125.357
133.151
139.663
144.906
148.405
149.59
149.624
148.712
147.928
146.744
145.688
145.375
144.449
130.927
129.322
127.437
125.195
122.624
120.153
119.528
124.757
132.023
137.163
142.028
146.368
148.615
149.041
148.198
147.551
146.171
145.449
144.987
144.027
131.055
129.453
127.568
125.312
122.633
119.914
117.909
118.49
124.879
131.145
134.759
138.639
143.022
146.175
147.226
146.777
146.388
144.149
145.184
141.85
143.854
131.157
129.569
127.7
125.44
122.745
119.933
117.635
116.382
118.227
125.548
130.494
132.722
135.167
138.321
141.292
142.646
142.531
141.68
140.135
138.183
135.725
136.596
131.239
129.66
127.82
125.561
122.853
120.043
117.623
116.009
115.496
118.67
126.52
130.113
131.309
132.393
133.715
134.928
135.253
134.649
133.266
131.352
129.513
127.876
132.476
131.317
129.732
127.903
125.662
122.954
120.144
117.722
115.979
114.946
115.011
119.772
127.752
129.961
130.602
130.868
130.996
130.678
129.823
128.592
127.29
126.271
125.861
126.501
134.044
131.389
129.79
127.964
125.73
123.05
120.245
117.825
116.069
114.892
114.145
114.988
121.644
128.95
130.109
130.399
130.426
129.916
128.81
127.476
126.274
125.553
125.42
125.756
128.874
137.896
131.453
129.843
128.021
125.78
123.126
120.334
117.923
116.159
114.985
114.042
113.597
115.653
124.031
129.943
130.38
130.542
130.382
129.598
128.289
126.882
125.863
125.396
125.596
127.061
133.886
140.683
131.517
129.897
128.083
125.836
123.174
120.407
118.015
116.252
115.083
114.079
113.396
113.325
117.368
126.395
130.681
130.745
130.698
130.259
129.18
127.733
126.466
125.791
125.611
126.072
130.977
138.435
142.075
131.576
129.954
128.141
125.892
123.209
120.459
118.083
116.341
115.186
114.173
113.422
112.896
113.647
120.123
128.246
130.895
130.888
130.67
129.956
128.626
127.178
126.132
125.762
125.812
128.273
136.142
140.983
142.785
131.623
129.991
128.202
125.937
123.258
120.496
118.134
116.41
115.287
114.262
113.507
112.874
112.722
114.742
123.592
129.391
130.897
130.833
130.483
129.452
127.925
126.615
125.873
125.78
126.657
133.083
139.827
142.225
143.303
131.625
130.001
128.245
125.993
123.312
120.536
118.18
116.465
115.368
114.357
113.592
112.933
112.616
112.781
117.155
126.884
130.099
130.852
130.782
130.179
128.748
127.229
126.165
125.783
125.975
130.071
137.956
141.716
142.96
143.764
131.612
129.997
128.271
126.058
123.358
120.596
118.226
116.514
115.43
114.442
113.679
113.01
112.641
112.425
113.49
120.928
129.214
130.782
130.945
130.711
129.584
127.963
126.583
125.892
125.8
127.723
135.453
140.87
142.707
143.494
144.17
131.591
129.977
128.274
126.115
123.397
120.629
118.27
116.567
115.482
114.513
113.759
113.094
112.707
112.403
112.486
115.42
125.068
130.434
131.067
131.001
130.322
128.778
127.153
126.058
125.778
126.374
132.488
139.624
142.323
143.331
143.91
144.435
131.548
129.918
128.243
126.091
123.435
120.652
118.309
116.617
115.527
114.573
113.824
113.188
112.781
112.445
112.351
112.956
119.127
128.195
130.886
131.1
130.837
129.607
127.844
126.401
125.776
125.819
129.608
137.81
141.788
143.118
143.765
144.191
144.529
131.49
129.851
128.184
126.073
123.43
120.673
118.351
116.661
115.564
114.627
113.875
113.272
112.876
112.504
112.365
112.413
114.488
123.914
129.954
131.109
131.092
130.352
128.639
126.862
125.89
125.661
127.41
135.393
140.993
142.858
143.603
144.042
144.335
144.702
131.436
129.792
128.114
126.049
123.42
120.67
118.381
116.7
115.6
114.675
113.919
113.343
112.963
112.592
112.416
112.361
112.723
118.14
127.866
130.905
131.187
130.904
129.478
127.477
126.094
125.626
126.159
132.56
139.818
142.507
143.436
143.88
144.207
144.576
145.426
131.434
129.742
128.054
125.986
123.388
120.659
118.359
116.724
115.631
114.72
113.958
113.402
113.034
112.684
112.492
112.386
112.389
114.111
123.327
130.117
131.228
131.198
130.267
128.208
126.465
125.616
125.66
129.77
138.136
142.011
143.244
143.73
144.06
144.49
145.424
146.506
131.461
129.715
128.001
125.898
123.353
120.597
118.335
116.728
115.657
114.753
113.989
113.45
113.086
112.765
112.586
112.445
112.368
112.68
117.824
127.801
131.001
131.286
130.875
129.021
126.976
125.782
125.538
127.555
135.888
141.294
143.004
143.584
143.918
144.39
145.385
146.718
147.737
131.503
129.723
127.946
125.834
123.279
120.552
118.286
116.724
115.633
114.77
114.01
113.483
113.12
112.825
112.672
112.517
112.395
112.42
114.051
123.527
130.216
131.299
131.203
129.843
127.641
126.026
125.523
126.204
133.197
140.254
142.687
143.438
143.784
144.289
145.353
146.823
148.229
148.985
131.592
129.776
127.995
125.805
123.223
120.496
118.234
116.673
115.614
114.771
114.022
113.508
113.137
112.863
112.734
112.597
112.435
112.409
112.661
118.189
128.236
131.084
131.285
130.565
128.428
126.451
125.553
125.607
130.425
138.777
142.251
143.274
143.668
144.183
145.316
146.933
148.488
149.709
150.25
131.688
129.845
128.055
125.825
123.207
120.456
118.169
116.626
115.572
114.746
114.025
113.522
113.144
112.882
112.769
112.658
112.5
112.41
112.373
114.322
124.35
130.457
131.275
131.068
129.297
127.023
125.689
125.436
128.062
136.785
141.638
143.069
143.571
144.079
145.284
146.999
148.753
150.11
151.14
151.582
131.741
129.903
128.125
125.849
123.208
120.432
118.117
116.573
115.526
114.706
114.017
113.524
113.146
112.89
112.78
112.692
112.551
112.429
112.336
112.718
119.262
128.835
131.138
131.296
130.155
127.747
125.95
125.407
126.46
134.318
140.768
142.8
143.479
143.987
145.254
147.08
148.991
150.54
151.646
152.58
152.988
131.76
129.935
128.186
125.925
123.213
120.444
118.081
116.527
115.478
114.657
113.987
113.513
113.131
112.891
112.78
112.704
112.59
112.461
112.33
112.307
115.038
125.607
130.796
131.342
130.866
128.583
126.375
125.407
125.637
131.612
139.548
142.431
143.382
143.935
145.229
147.153
149.211
150.939
152.201
153.156
154.066
154.361
131.77
129.958
128.251
125.992
123.29
120.476
118.105
116.5
115.435
114.607
113.961
113.487
113.115
112.889
112.774
112.696
112.608
112.498
112.337
112.22
112.972
120.937
129.644
131.349
131.307
129.481
126.947
125.517
125.342
129.072
137.892
141.92
143.264
143.921
145.198
147.23
149.417
151.318
152.727
153.797
154.691
155.522
155.529
131.735
129.92
128.283
126.049
123.333
120.52
118.139
116.516
115.416
114.565
113.94
113.461
113.095
112.886
112.769
112.686
112.61
112.529
112.348
112.192
112.366
116.335
127.339
131.122
131.477
130.339
127.673
125.746
125.28
127.104
135.772
141.211
143.1
143.95
145.172
147.308
149.615
151.678
153.237
154.411
155.391
156.198
156.775
156.496
131.699
129.866
128.234
126.07
123.366
120.552
118.193
116.537
115.416
114.543
113.927
113.436
113.076
112.893
112.777
112.684
112.61
112.547
112.404
112.182
112.257
113.503
123.437
130.531
131.508
131.025
128.512
126.139
125.272
125.892
133.285
140.242
142.856
143.998
145.161
147.391
149.812
152.021
153.727
155.018
156.068
156.953
157.508
157.777
157.698
131.686
129.818
128.207
126.054
123.38
120.578
118.247
116.572
115.437
114.537
113.923
113.42
113.064
112.899
112.791
112.694
112.616
112.559
112.458
112.244
112.251
112.448
118.792
128.977
131.507
131.43
129.419
126.7
125.329
125.332
130.699
138.944
142.486
144.064
145.172
147.481
150.011
152.351
154.199
155.608
156.742
157.684
158.326
158.544
158.854
160.58
131.694
129.783
128.14
126.029
123.361
120.591
118.287
116.61
115.467
114.557
113.927
113.406
113.061
112.909
112.814
112.727
112.646
112.58
112.514
112.317
112.263
112.224
115.005
126.187
131.193
131.572
130.308
127.398
125.512
125.153
128.392
137.254
141.962
144.077
145.214
147.579
150.218
152.673
154.652
156.181
157.406
158.415
159.121
159.4
159.577
161.465
165.847
131.746
129.781
128.085
125.964
123.315
120.561
118.3
116.637
115.497
114.589
113.955
113.399
113.055
112.927
112.841
112.766
112.693
112.618
112.568
112.404
112.348
112.211
113.043
122.043
130.445
131.597
131.042
128.228
125.856
125.112
126.671
135.172
141.24
144.055
145.302
147.69
150.436
152.989
155.089
156.735
158.059
159.138
159.916
160.237
160.396
162.036
166.569
172.063
131.824
129.826
128.111
125.918
123.273
120.551
118.296
116.651
115.517
114.619
113.976
113.4
113.042
112.933
112.867
112.808
112.749
112.669
112.619
112.482
112.436
112.235
112.405
117.63
128.705
131.588
131.501
129.136
126.373
125.11
125.633
132.835
140.254
143.884
145.439
147.815
150.663
153.306
155.515
157.269
158.696
159.853
160.704
161.08
161.22
162.676
167.034
172.86
177.999
131.863
129.855
128.112
125.917
123.246
120.521
118.256
116.62
115.518
114.646
113.993
113.398
113.029
112.93
112.876
112.842
112.8
112.724
112.665
112.537
112.527
112.256
112.289
114.349
125.75
131.256
131.69
130.058
127.029
125.214
125.15
130.484
138.963
143.627
145.666
147.958
150.9
153.627
155.933
157.787
159.315
160.557
161.485
161.921
162.058
163.322
167.537
173.377
178.944
183.337
131.882
129.857
128.146
125.913
123.243
120.487
118.22
116.595
115.491
114.662
114.002
113.392
113.016
112.909
112.863
112.858
112.831
112.77
112.704
112.572
112.589
112.298
112.272
112.727
121.648
130.499
131.735
130.873
127.816
125.482
124.992
128.418
137.367
143.192
145.899
148.116
151.144
153.958
156.348
158.29
159.914
161.248
162.258
162.761
162.904
163.99
168.04
173.92
179.574
184.436
188.02
131.899
129.877
128.183
125.957
123.272
120.542
118.188
116.563
115.467
114.667
114.001
113.384
113.003
112.882
112.824
112.84
112.844
112.794
112.733
112.587
112.622
112.356
112.271
112.206
117.456
128.803
131.737
131.455
128.694
125.912
124.951
126.88
135.515
142.529
146.136
148.289
151.395
154.303
156.764
158.783
160.493
161.922
163.02
163.596
163.756
164.677
168.551
174.453
180.231
185.185
189.265
192.058
131.871
129.825
128.203
125.979
123.314
120.565
118.2
116.543
115.446
114.661
113.983
113.377
112.991
112.855
112.78
112.801
112.818
112.799
112.748
112.593
112.633
112.412
112.296
112.106
114.385
125.95
131.524
131.752
129.628
126.517
124.948
125.968
133.495
141.603
146.386
148.476
151.657
154.665
157.184
159.268
161.054
162.574
163.77
164.424
164.611
165.383
169.068
174.983
180.879
185.965
190.127
193.435
195.5
131.862
129.796
128.189
125.987
123.338
120.593
118.215
116.544
115.431
114.658
113.966
113.368
112.986
112.834
112.738
112.741
112.776
112.777
112.744
112.602
112.636
112.454
112.362
112.096
112.844
122.02
130.874
131.841
130.533
127.226
125.258
125.563
131.491
140.489
146.215
148.748
151.933
155.044
157.613
159.749
161.601
163.205
164.503
165.245
165.467
166.106
169.594
175.507
181.523
186.739
191.023
194.397
196.993
198.418
131.852
129.782
128.188
125.992
123.353
120.603
118.237
116.542
115.451
114.655
113.956
113.365
113.001
112.827
112.708
112.69
112.722
112.746
112.737
112.619
112.641
112.484
112.444
112.11
112.326
117.913
129.45
131.859
131.293
128.04
125.618
125.398
129.743
139.096
145.931
149.056
152.23
155.437
158.053
160.229
162.138
163.814
165.215
166.055
166.32
166.842
170.128
176.025
182.16
187.511
191.917
195.398
198.04
200.01
200.89
131.864
129.755
128.172
125.992
123.353
120.597
118.256
116.55
115.489
114.682
113.952
113.368
113.019
112.848
112.696
112.656
112.669
112.713
112.728
112.639
112.669
112.51
112.527
112.164
112.229
114.73
126.899
131.751
131.784
128.934
126.192
125.366
128.486
137.514
145.415
149.443
152.549
155.838
158.509
160.711
162.669
164.404
165.901
166.851
167.17
167.589
170.67
176.538
182.791
188.279
192.812
196.399
199.13
201.127
202.568
202.995
131.889
129.756
128.16
125.996
123.338
120.572
118.27
116.55
115.524
114.695
113.954
113.38
113.047
112.876
112.728
112.641
112.643
112.679
112.721
112.661
112.708
112.536
112.592
112.243
112.218
112.945
123.334
131.274
132.003
129.899
126.872
125.632
127.781
135.849
144.683
149.822
152.888
156.242
158.982
161.2
163.196
164.98
166.561
167.629
168.012
168.343
171.22
177.044
183.414
189.044
193.708
197.406
200.224
202.291
203.739
204.746
204.802
131.903
129.735
128.142
125.99
123.324
120.54
118.248
116.519
115.551
114.7
113.955
113.393
113.08
112.911
112.767
112.676
112.64
112.657
112.717
112.685
112.754
112.563
112.636
112.336
112.223
112.237
119.307
130.151
132.085
130.865
127.656
126.11
127.496
134.222
143.705
150.204
153.241
156.649
159.473
161.7
163.721
165.546
167.195
168.381
168.844
169.102
171.777
177.543
184.029
189.804
194.603
198.417
201.326
203.462
204.965
205.958
206.615
206.373
131.961
129.73
128.112
125.979
123.324
120.525
118.227
116.496
115.554
114.693
113.95
113.398
113.1
112.944
112.811
112.713
112.673
112.644
112.709
112.709
112.79
112.594
112.664
112.406
112.252
112.031
115.858
128.088
132.094
131.695
128.535
126.776
127.403
132.833
142.612
149.99
153.626
157.065
159.981
162.216
164.246
166.106
167.807
169.102
169.662
169.866
172.341
178.036
184.635
190.559
195.498
199.431
202.436
204.644
206.197
207.233
207.858
208.236
207.757
131.998
129.714
128.078
125.947
123.309
120.514
118.208
116.489
115.556
114.665
113.935
113.394
113.105
112.962
112.843
112.753
112.707
112.655
112.69
112.715
112.807
112.629
112.68
112.451
112.323
111.987
113.625
125.037
131.823
132.289
129.498
127.551
127.434
131.893
141.308
149.769
154.059
157.497
160.5
162.75
164.774
166.66
168.404
169.79
170.459
170.632
172.911
178.52
185.23
191.308
196.392
200.448
203.553
205.836
207.444
208.515
209.171
209.501
209.661
208.997
132.02
129.712
128.062
125.908
123.29
120.501
118.19
116.491
115.554
114.626
113.909
113.38
113.099
112.945
112.858
112.773
112.734
112.655
112.67
112.695
112.795
112.661
112.689
112.469
112.412
111.979
112.546
121.311
131.066
132.612
130.536
128.432
128.007
131.42
139.93
149.218
154.541
157.949
161.023
163.302
165.31
167.209
168.99
170.446
171.228
171.402
173.485
178.996
185.814
192.049
197.283
201.468
204.675
207.037
208.702
209.813
210.491
210.844
210.942
210.933
210.129
132.01
129.707
128.072
125.884
123.252
120.487
118.157
116.517
115.562
114.602
113.88
113.361
113.084
112.927
112.833
112.778
112.745
112.655
112.651
112.655
112.773
112.683
112.7
112.473
112.489
112.006
112.158
117.705
129.498
132.731
131.635
129.431
128.748
131.258
138.613
148.533
154.986
158.419
161.545
163.869
165.858
167.753
169.568
171.077
171.963
172.166
174.061
179.462
186.382
192.78
198.169
202.489
205.804
208.248
209.973
211.124
211.83
212.194
212.307
212.223
212.088
211.183
131.962
129.666
128.093
125.876
123.22
120.467
118.111
116.563
115.574
114.595
113.867
113.343
113.066
112.901
112.815
112.76
112.746
112.658
112.634
112.613
112.74
112.689
112.716
112.474
112.543
112.102
112.066
114.865
127.04
132.755
132.748
130.52
129.727
131.262
137.566
147.667
155.364
158.901
162.066
164.449
166.422
168.295
170.136
171.69
172.663
172.91
174.638
179.916
186.933
193.499
199.05
203.509
206.937
209.467
211.255
212.45
213.183
213.564
213.68
213.606
213.384
213.156
212.184
131.909
129.596
128.097
125.875
123.214
120.427
118.065
116.589
115.572
114.597
113.872
113.338
113.055
112.882
112.8
112.751
112.724
112.654
112.627
112.583
112.702
112.69
112.733
112.487
112.578
112.218
112.052
113.082
124.007
132.221
133.759
131.687
130.839
131.561
136.95
146.682
155.119
159.412
162.591
165.036
167.001
168.841
170.691
172.29
173.33
173.626
175.218
180.359
187.464
194.202
199.922
204.527
208.072
210.693
212.547
213.788
214.552
214.95
215.073
214.994
214.777
214.453
214.163
213.154
131.904
129.532
128.076
125.868
123.206
120.413
118.05
116.603
115.549
114.602
113.888
113.343
113.038
112.864
112.792
112.75
112.72
112.652
112.627
112.559
112.671
112.693
112.75
112.515
112.602
112.333
112.067
112.193
120.649
131.229
134.549
132.904
132.079
132.312
136.685
145.506
154.854
159.969
163.128
165.625
167.593
169.395
171.234
172.876
173.973
174.303
175.792
180.791
187.973
194.888
200.783
205.541
209.21
211.924
213.848
215.139
215.935
216.352
216.483
216.404
216.175
215.852
215.457
215.131
214.113
131.91
129.521
128.047
125.856
123.172
120.413
118.058
116.61
115.5
114.602
113.912
113.36
113.03
112.843
112.79
112.751
112.724
112.654
112.631
112.574
112.649
112.669
112.747
112.551
112.617
112.399
112.124
111.831
117.621
129.5
134.962
134.202
133.423
133.271
136.613
144.352
154.388
160.534
163.676
166.206
168.191
169.96
171.771
173.443
174.602
174.942
176.349
181.215
188.461
195.555
201.632
206.549
210.346
213.16
215.156
216.499
217.331
217.769
217.91
217.832
217.596
217.256
216.857
216.418
216.08
215.08
131.954
129.519
128.034
125.84
123.118
120.392
118.099
116.623
115.454
114.581
113.922
113.389
113.031
112.825
112.78
112.766
112.736
112.663
112.634
112.585
112.642
112.643
112.724
112.593
112.627
112.429
112.276
111.72
115.306
127.094
135.138
135.665
134.871
134.479
136.625
143.435
153.825
160.972
164.225
166.777
168.791
170.533
172.308
173.987
175.217
175.552
176.877
181.627
188.926
196.2
202.465
207.549
211.481
214.398
216.471
217.869
218.738
219.2
219.353
219.277
219.036
218.683
218.262
217.815
217.357
217.029
216.073
132.018
129.54
128.016
125.838
123.072
120.361
118.144
116.636
115.441
114.551
113.907
113.404
113.04
112.815
112.761
112.761
112.742
112.669
112.63
112.592
112.64
112.614
112.707
112.623
112.643
112.436
112.431
111.683
113.828
124.423
134.515
137.208
136.404
135.829
137.217
142.924
153.144
161.241
164.777
167.339
169.389
171.111
172.852
174.513
175.81
176.145
177.367
182.019
189.37
196.821
203.28
208.537
212.611
215.637
217.792
219.248
220.156
220.644
220.812
220.74
220.495
220.13
219.691
219.217
218.746
218.291
217.994
217.108
132.102
129.549
128.011
125.821
123.068
120.337
118.176
116.632
115.442
114.545
113.872
113.391
113.054
112.82
112.744
112.746
112.742
112.684
112.615
112.588
112.636
112.593
112.681
112.632
112.664
112.439
112.553
111.728
113.085
121.672
133.511
138.608
137.989
137.32
137.937
142.725
152.152
161.041
165.36
167.896
169.978
171.688
173.402
175.027
176.37
176.726
177.828
182.371
189.79
197.414
204.073
209.511
213.734
216.875
219.115
220.633
221.584
222.1
222.283
222.218
221.971
221.597
221.141
220.644
220.14
219.667
219.237
218.992
218.204
132.198
129.562
127.972
125.791
123.086
120.343
118.186
116.605
115.462
114.547
113.854
113.346
113.044
112.847
112.744
112.709
112.721
112.688
112.624
112.582
112.623
112.57
112.653
112.627
112.694
112.441
112.625
111.969
112.824
119.246
132.06
139.693
139.641
138.928
139.005
142.804
151.07
160.895
165.98
168.447
170.551
172.26
173.953
175.538
176.892
177.284
178.276
182.669
190.173
197.978
204.838
210.465
214.844
218.108
220.439
222.022
223.02
223.565
223.767
223.71
223.463
223.081
222.611
222.092
221.56
221.049
220.596
220.213
220.041
219.377
132.215
129.55
127.961
125.736
123.121
120.358
118.205
116.562
115.465
114.568
113.853
113.3
113.012
112.861
112.774
112.696
112.674
112.685
112.641
112.582
112.605
112.602
112.638
112.624
112.716
112.456
112.663
112.297
112.768
117.488
130.301
140.251
141.398
140.643
140.297
143.075
150.118
160.634
166.48
168.977
171.1
172.822
174.499
176.047
177.38
177.797
178.717
182.911
190.493
198.507
205.571
211.392
215.936
219.329
221.758
223.413
224.461
225.04
225.262
225.216
224.97
224.582
224.099
223.56
223.002
222.459
221.961
221.548
221.233
221.156
220.643
132.189
129.505
127.958
125.735
123.152
120.396
118.219
116.543
115.457
114.572
113.868
113.284
112.952
112.859
112.823
112.702
112.626
112.673
112.662
112.596
112.574
112.605
112.637
112.598
112.729
112.524
112.689
112.698
112.878
116.48
128.116
140.506
143.27
142.452
141.77
143.483
149.483
160.281
166.778
169.474
171.625
173.371
175.031
176.544
177.839
178.247
179.133
183.119
190.718
198.984
206.264
212.283
216.998
220.531
223.068
224.801
225.905
226.521
226.767
226.733
226.491
226.099
225.605
225.048
224.466
223.891
223.355
222.892
222.539
222.315
222.354
222.017
132.138
129.397
127.957
125.762
123.216
120.434
118.23
116.546
115.448
114.549
113.879
113.281
112.938
112.814
112.83
112.747
112.614
112.621
112.673
112.631
112.564
112.594
112.642
112.583
112.696
112.582
112.745
113.057
113.059
116.086
126.058
139.587
145.193
144.343
143.379
144.164
149.111
159.492
166.85
169.969
172.131
173.897
175.54
177.015
178.267
178.628
179.482
183.308
190.848
199.371
206.906
213.123
218.02
221.706
224.362
226.183
227.349
228.008
228.28
228.261
228.024
227.63
227.126
226.554
225.949
225.345
224.773
224.265
223.856
223.586
223.473
223.649
223.51
132.134
129.307
127.932
125.816
123.293
120.491
118.214
116.569
115.452
114.515
113.858
113.305
112.942
112.766
112.826
112.79
112.619
112.573
112.651
112.676
112.57
112.579
112.642
112.568
112.661
112.666
112.842
113.395
113.653
116.01
124.334
138.763
146.843
146.274
145.119
145.125
149.367
158.501
166.867
170.486
172.618
174.389
176.009
177.442
178.648
178.943
179.736
183.462
190.913
199.624
207.473
213.905
218.993
222.846
225.629
227.541
228.775
229.485
229.793
229.794
229.568
229.174
228.663
228.077
227.452
226.82
226.213
225.663
225.204
224.869
224.702
224.723
225.054
225.129
132.25
129.326
127.94
125.867
123.335
120.572
118.199
116.575
115.454
114.506
113.811
113.306
112.99
112.769
112.747
112.79
112.687
112.562
112.579
112.694
112.592
112.553
112.624
112.603
112.641
112.755
112.994
113.764
114.36
116.453
123.257
137.632
148.013
148.265
146.977
146.303
149.658
157.396
166.826
170.915
173.062
174.825
176.42
177.808
178.96
179.192
179.888
183.555
190.955
199.748
207.922
214.626
219.91
223.933
226.842
228.864
230.184
230.954
231.303
231.331
231.118
230.728
230.213
229.615
228.972
228.315
227.676
227.086
226.577
226.185
225.946
225.903
226.077
226.579
226.878
132.303
129.602
128.055
125.921
123.345
120.622
118.187
116.581
115.442
114.506
113.796
113.279
113.012
112.801
112.713
112.748
112.746
112.577
112.5
112.693
112.675
112.56
112.567
112.682
112.644
112.842
113.226
114.188
115.196
117.003
122.768
136.229
148.549
150.347
148.934
147.685
150.164
156.394
166.725
171.192
173.433
175.186
176.753
178.097
179.192
179.37
179.959
183.629
190.982
199.813
208.211
215.27
220.765
224.942
228
230.146
231.56
232.403
232.803
232.865
232.672
232.29
231.774
231.168
230.508
229.828
229.159
228.531
227.977
227.529
227.224
227.101
227.201
227.547
228.228
228.753
132.318
129.751
128.324
126.082
123.344
120.617
118.172
116.598
115.424
114.513
113.799
113.259
113.008
112.852
112.718
112.667
112.747
112.664
112.473
112.649
112.75
112.6
112.451
112.738
112.657
112.929
113.555
114.714
116.144
117.973
123.013
134.664
148.739
152.515
150.962
149.232
150.746
155.624
165.994
171.288
173.733
175.462
176.995
178.295
179.34
179.469
179.99
183.347
191.032
199.906
208.37
215.772
221.529
225.871
229.095
231.368
232.89
233.817
234.281
234.388
234.223
233.857
233.344
232.732
232.058
231.358
230.661
229.999
229.4
228.9
228.532
228.334
228.347
228.609
229.137
230.001
230.744
134.007
129.708
128.415
126.244
123.37
120.591
118.138
116.61
115.418
114.507
113.818
113.281
112.97
112.86
112.779
112.66
112.686
112.709
112.479
112.549
112.732
112.714
112.379
112.749
112.732
113.082
113.985
115.367
117.19
119.171
123.384
133.333
148.316
154.59
153.032
150.863
151.409
155.074
165.141
171.351
173.965
175.638
177.137
178.398
179.41
179.503
179.99
183.176
190.587
200.015
208.525
216.046
222.174
226.728
230.109
232.521
234.158
235.183
235.724
235.889
235.763
235.42
234.918
234.305
233.622
232.903
232.181
231.486
230.847
230.296
229.868
229.599
229.53
229.697
230.134
230.85
231.89
232.839
134.315
130.966
128.328
126.303
123.448
120.583
118.134
116.58
115.427
114.507
113.814
113.324
112.974
112.82
112.802
112.701
112.568
112.714
112.621
112.562
112.697
112.821
112.336
112.722
113.009
113.329
114.543
116.172
118.33
120.54
124.006
132.321
147.922
156.27
155.114
152.59
152.321
155.27
164.019
171.312
174.051
175.697
177.179
178.42
179.417
179.488
179.875
182.968
190.286
199.718
208.722
216.233
222.62
227.51
231.03
233.593
235.353
236.486
237.118
237.354
237.281
236.973
236.49
235.883
235.195
234.463
233.718
232.993
232.315
231.718
231.232
230.895
230.746
230.822
231.158
231.777
232.68
233.887
235.023
153.11
135.842
129.625
126.161
123.502
120.594
118.191
116.557
115.412
114.538
113.81
113.337
113.02
112.797
112.784
112.785
112.552
112.638
112.727
112.576
112.509
112.851
112.363
112.697
113.32
113.713
115.245
117.138
119.572
121.993
124.876
131.634
147.462
157.359
157.218
154.409
153.362
155.449
162.779
170.869
174.028
175.689
177.18
178.418
179.412
179.434
179.744
182.708
189.938
199.451
208.758
216.585
222.758
228.107
231.885
234.568
236.469
237.711
238.445
238.768
238.762
238.503
238.051
237.46
236.774
236.033
235.27
234.517
233.804
233.162
232.623
232.221
231.995
231.983
232.221
232.735
233.538
234.619
235.977
237.28
155.142
151.332
135.511
127.319
123.421
120.606
118.357
116.571
115.408
114.549
113.849
113.324
113.038
112.833
112.699
112.804
112.619
112.547
112.743
112.689
112.361
112.859
112.632
112.762
113.706
114.286
116.108
118.271
120.918
123.535
126.124
132.332
146.377
157.809
159.365
156.296
154.499
155.819
161.467
170.156
173.773
175.481
176.991
178.221
179.206
179.26
179.536
182.383
189.516
199.119
208.581
216.805
223.259
228.152
232.638
235.457
237.49
238.859
239.692
240.114
240.191
239.996
239.59
239.026
238.352
237.609
236.833
236.057
235.312
234.628
234.038
233.575
233.275
233.178
233.32
233.731
234.428
235.409
236.656
238.145
239.598
155.048
154.119
150.382
134.885
125.137
120.591
118.481
116.573
115.446
114.544
113.887
113.354
113.018
112.883
112.689
112.758
112.752
112.544
112.645
112.816
112.299
112.747
113.025
112.874
114.184
115.077
117.153
119.569
122.372
125.152
127.623
132.846
145.159
158.173
161.523
158.241
155.688
156.252
160.241
169.111
173.408
175.205
176.745
177.999
178.999
179.049
179.292
182.03
189.069
198.723
208.366
216.819
223.726
228.824
232.581
236.367
238.389
239.92
240.865
241.377
241.551
241.436
241.09
240.569
239.919
239.185
238.403
237.61
236.836
236.115
235.476
234.955
234.586
234.408
234.457
234.766
235.356
236.232
237.381
238.775
240.38
241.964
155.028
154.067
152.087
147.991
134.342
123.421
118.643
116.582
115.534
114.605
113.867
113.432
113.012
112.876
112.778
112.682
112.774
112.629
112.412
112.851
112.479
112.684
113.431
113.335
114.798
116.096
118.399
121.032
123.945
126.833
129.326
133.776
143.818
158.363
163.339
160.253
156.884
156.683
159.196
167.758
172.848
174.84
176.441
177.734
178.757
178.821
179.04
181.681
188.614
198.306
208.112
216.755
223.859
229.476
233.393
236.229
239.438
240.818
241.959
242.567
242.826
242.806
242.537
242.074
241.464
240.751
239.974
239.171
238.375
237.62
236.937
236.361
235.926
235.669
235.629
235.838
236.322
237.092
238.138
239.439
240.964
242.668
244.371
154.99
154.05
151.972
149.364
146.124
134.148
122.531
117.207
115.74
114.699
113.881
113.411
113.159
112.803
112.829
112.693
112.631
112.756
112.325
112.734
112.919
112.678
113.841
113.96
115.633
117.365
119.86
122.657
125.636
128.573
131.162
134.833
142.598
158.306
164.709
162.164
158.015
157.039
158.4
166.155
172.109
174.385
176.077
177.433
178.497
178.58
178.789
181.339
188.164
197.882
207.85
216.676
223.938
229.711
234.184
237.127
239.233
241.977
242.853
243.686
244.03
244.089
243.914
243.526
242.971
242.295
241.535
240.733
239.924
239.141
238.419
237.791
237.293
236.962
236.835
236.947
237.327
237.989
238.931
240.134
241.571
243.211
245.001
246.814
154.973
154.015
151.951
149.22
146.596
144.714
134.759
123.202
117.087
115.079
114.083
113.301
113.216
112.802
112.759
112.868
112.481
112.782
112.53
112.648
113.342
112.918
114.321
114.898
116.764
118.899
121.551
124.443
127.443
130.382
132.994
135.991
141.542
158.044
165.549
163.942
159.261
157.34
157.868
164.396
171.167
173.86
175.668
177.103
178.217
178.327
178.537
181.003
187.723
197.459
207.589
216.592
224.009
229.902
234.497
238.019
240.188
241.722
244.093
244.576
245.168
245.302
245.203
244.907
244.425
243.801
243.076
242.287
241.474
240.673
239.917
239.243
238.686
238.284
238.074
238.092
238.369
238.924
239.76
240.864
242.209
243.766
245.506
247.373
249.292
155
153.994
151.905
149.189
146.451
144.926
145.191
136.125
124.887
117.782
115.064
113.586
113.056
113.148
112.654
112.899
112.622
112.614
113.046
112.629
113.787
113.718
115.061
116.219
118.293
120.706
123.46
126.383
129.36
132.255
134.844
137.45
142.058
156.821
165.937
165.597
160.512
157.597
157.559
162.606