/*--------------------------------*- C++ -*----------------------------------*\
| =========                 |                                                 |
| \\      /  F ield         | OpenFOAM: The Open Source CFD Toolbox           |
|  \\    /   O peration     | Version:  v2012                                 |
|   \\  /    A nd           | Website:  www.openfoam.com                      |
|    \\/     M anipulation  |                                                 |
\*---------------------------------------------------------------------------*/
FoamFile
{
    version     2.0;
    format      ascii;
    class       volScalarField;
    location    "12000";
    object      TuM;
}
// * * * * * * * * * * * * * * * * * * * * * * * * * * * * * * * * * * * * * //

dimensions      [0 0 0 0 0 0 0];


internalField   nonuniform List<scalar> 
27324
(
0.00149305
0.0014631
0.0033991
0.00143751
0.0032834
0.00325065
0.00140634
0.00315942
0.0030989
0.00232466
0.00137274
0.00301134
0.00294395
0.00218479
0.00137786
0.00133595
0.00284473
0.00276901
0.00204733
0.00127215
0.000752386
0.00129577
0.00265297
0.00257844
0.00190114
0.00117139
0.000686024
0.000406143
0.00125261
0.00243855
0.00237145
0.00175046
0.00107183
0.000624912
0.000369003
0.000228306
0.00120608
0.00220652
0.00215089
0.00160692
0.000977063
0.000568089
0.000335752
0.000208859
0.00013994
0.00115333
0.00195794
0.00192181
0.00147313
0.000902421
0.000516848
0.00030599
0.000191903
0.000130362
9.44899e-05
0.00106886
0.00168859
0.0016889
0.00134556
0.000845907
0.000481155
0.000279834
0.000177219
0.000122307
8.96568e-05
6.82894e-05
0.000918323
0.0014145
0.00145871
0.00122071
0.00079677
0.000458043
0.000262476
0.000164699
0.000115537
8.56223e-05
6.54752e-05
5.14016e-05
0.000667083
0.00119884
0.00126235
0.00110567
0.000746407
0.000439521
0.000252144
0.000156657
0.000109928
8.21984e-05
6.30557e-05
4.95469e-05
3.9404e-05
0.000518388
0.00101252
0.00111631
0.00101431
0.000705033
0.000419694
0.000244529
0.000152187
0.00010635
7.93426e-05
6.09491e-05
4.79026e-05
3.80709e-05
3.06474e-05
0.000483531
0.000923278
0.000993154
0.000967041
0.000675525
0.000406961
0.000236754
0.000149049
0.000104498
7.73965e-05
5.91795e-05
4.64558e-05
3.6854e-05
2.96808e-05
2.39367e-05
0.000475583
0.000900698
0.000912439
0.000961816
0.000703666
0.0004028
0.000232632
0.000146243
0.000103277
7.64057e-05
5.78581e-05
4.52731e-05
3.57546e-05
2.87906e-05
2.3218e-05
1.88926e-05
0.000472152
0.000894554
0.000882878
0.000956006
0.000778294
0.000446678
0.00023532
0.000144457
0.000102336
7.58054e-05
5.7147e-05
4.43259e-05
3.48851e-05
2.79513e-05
2.25516e-05
1.83797e-05
1.51127e-05
0.000469337
0.000891023
0.000869963
0.000940211
0.000827432
0.000531416
0.000266667
0.000148167
0.000101264
7.53984e-05
5.67876e-05
4.3753e-05
3.41556e-05
2.73177e-05
2.18847e-05
1.79058e-05
1.47492e-05
1.23737e-05
0.000465995
0.000886324
0.000858578
0.000925876
0.000829066
0.000591126
0.000324324
0.000166331
0.000105027
7.49159e-05
5.64876e-05
4.3556e-05
3.36447e-05
2.67989e-05
2.13636e-05
1.74156e-05
1.44271e-05
1.21232e-05
1.04873e-05
0.000461811
0.000879576
0.000845159
0.000911286
0.000818934
0.000604556
0.000365278
0.000197565
0.000117193
7.85327e-05
5.67628e-05
4.3026e-05
3.34637e-05
2.6384e-05
2.09663e-05
1.70027e-05
1.40899e-05
1.19221e-05
1.03301e-05
9.16484e-06
0.000456742
0.000870215
0.000830758
0.00089722
0.000807253
0.000601489
0.000377229
0.000222677
0.000136924
8.72634e-05
6.00001e-05
4.37939e-05
3.32896e-05
2.59238e-05
2.05234e-05
1.66975e-05
1.37188e-05
1.16752e-05
1.01569e-05
9.0174e-06
8.29689e-06
0.000450897
0.000858393
0.000815722
0.000884114
0.000796624
0.000595228
0.000377046
0.000226994
0.000154756
0.000100767
6.63177e-05
4.64918e-05
3.42836e-05
2.61133e-05
2.03751e-05
1.62291e-05
1.33447e-05
1.12675e-05
9.88803e-06
8.74101e-06
8.14254e-06
7.53406e-06
0.000444547
0.000844707
0.000801001
0.000872021
0.000787467
0.00058824
0.000374077
0.000227382
0.000155798
0.000114496
7.56265e-05
5.1043e-05
3.6457e-05
2.7057e-05
2.07295e-05
1.6279e-05
1.31726e-05
1.10352e-05
9.54453e-06
8.51733e-06
7.83636e-06
7.4971e-06
7.37626e-06
0.000438024
0.000830134
0.000787331
0.000861411
0.000779105
0.00058111
0.000369541
0.000226375
0.00015602
0.000117491
8.60244e-05
5.73038e-05
3.97992e-05
2.87692e-05
2.15438e-05
1.65878e-05
1.32107e-05
1.09385e-05
9.39156e-06
8.33882e-06
7.65407e-06
7.23576e-06
7.23506e-06
7.64864e-06
0.000431675
0.00081572
0.000775168
0.000852246
0.000771385
0.000573792
0.000364272
0.000224337
0.000155814
0.000116866
9.02993e-05
6.44789e-05
4.43766e-05
3.1371e-05
2.28923e-05
1.72716e-05
1.34872e-05
1.09977e-05
9.34417e-06
8.24655e-06
7.54538e-06
7.14348e-06
7.00932e-06
7.46028e-06
8.08169e-06
0.000425842
0.000802605
0.00076474
0.000844412
0.000763921
0.000566364
0.00035872
0.000221873
0.000155118
0.000116689
8.89926e-05
6.87903e-05
4.93584e-05
3.45802e-05
2.48152e-05
1.84169e-05
1.41043e-05
1.12791e-05
9.45549e-06
8.2934e-06
7.5734e-06
7.1616e-06
6.97222e-06
7.16738e-06
7.87606e-06
8.58257e-06
0.000420788
0.000791826
0.000755961
0.000837362
0.000756177
0.000559007
0.000353172
0.000219329
0.000154155
0.000116291
8.88166e-05
6.8515e-05
5.33759e-05
3.79685e-05
2.69519e-05
1.97447e-05
1.48915e-05
1.17107e-05
9.6758e-06
8.40617e-06
7.63384e-06
7.18975e-06
6.97417e-06
6.99285e-06
7.57395e-06
8.38199e-06
9.56577e-06
0.000416576
0.000783752
0.000748413
0.000830261
0.000747619
0.000551527
0.000348213
0.000216898
0.000153136
0.000115714
8.86028e-05
6.79965e-05
5.40847e-05
4.1203e-05
2.93913e-05
2.12178e-05
1.57766e-05
1.22183e-05
9.9348e-06
8.53257e-06
7.69976e-06
7.22813e-06
6.98761e-06
6.92378e-06
7.31313e-06
8.09348e-06
9.08116e-06
1.20909e-05
0.000412989
0.000777916
0.000741276
0.000822273
0.000737894
0.000543895
0.000343679
0.000214945
0.000152148
0.000115111
8.82991e-05
6.78771e-05
5.31802e-05
4.26938e-05
3.16967e-05
2.29003e-05
1.67585e-05
1.27955e-05
1.0241e-05
8.67509e-06
7.76803e-06
7.26393e-06
7.00745e-06
6.90828e-06
7.08078e-06
7.813e-06
8.70582e-06
1.0886e-05
1.80248e-05
0.000409644
0.000773175
0.000733701
0.000812713
0.000727203
0.000536216
0.000339423
0.000213306
0.000151378
0.000114517
8.79879e-05
6.77348e-05
5.29929e-05
4.22585e-05
3.34708e-05
2.44493e-05
1.78646e-05
1.3437e-05
1.05985e-05
8.84207e-06
7.83966e-06
7.29961e-06
7.02594e-06
6.91176e-06
6.95554e-06
7.52964e-06
8.40889e-06
9.98498e-06
1.5452e-05
3.03078e-05
0.00040582
0.000768144
0.000725129
0.000801448
0.000716152
0.000528527
0.00033538
0.000211837
0.000150773
0.000114031
8.76873e-05
6.75821e-05
5.29056e-05
4.18111e-05
3.3657e-05
2.5996e-05
1.90064e-05
1.41435e-05
1.10022e-05
9.04372e-06
7.92018e-06
7.33507e-06
7.04587e-06
6.91992e-06
6.90933e-06
7.26827e-06
8.10337e-06
9.33639e-06
1.34058e-05
2.54321e-05
5.39105e-05
0.000401108
0.000761665
0.000715485
0.000789061
0.000705168
0.000521148
0.000331498
0.000210464
0.000150269
0.000113628
8.74588e-05
6.74322e-05
5.28119e-05
4.17236e-05
3.31249e-05
2.67318e-05
2.01098e-05
1.49152e-05
1.1445e-05
9.28213e-06
8.01717e-06
7.37131e-06
7.06459e-06
6.93106e-06
6.89991e-06
7.05863e-06
7.79988e-06
8.86145e-06
1.18244e-05
2.13779e-05
4.51877e-05
9.76661e-05
0.000395347
0.000752866
0.000704364
0.000776648
0.000694607
0.00051423
0.000327716
0.000209155
0.000149818
0.00011327
8.72932e-05
6.73268e-05
5.27244e-05
4.16621e-05
3.29305e-05
2.65096e-05
2.09829e-05
1.56633e-05
1.19351e-05
9.55081e-06
8.13811e-06
7.41133e-06
7.08172e-06
6.94158e-06
6.90327e-06
6.95909e-06
7.51163e-06
8.48797e-06
1.06316e-05
1.80593e-05
3.77468e-05
8.24823e-05
0.000176788
0.000388646
0.000741257
0.000692529
0.000764913
0.000684908
0.000507793
0.000324178
0.000207891
0.000149381
0.000112923
8.71663e-05
6.72723e-05
5.2662e-05
4.16062e-05
3.28797e-05
2.60856e-05
2.12204e-05
1.63279e-05
1.24621e-05
9.84504e-06
8.28396e-06
7.46088e-06
7.09676e-06
6.95229e-06
6.90926e-06
6.92386e-06
7.25236e-06
8.14356e-06
9.75415e-06
1.53848e-05
3.14675e-05
6.92882e-05
0.000150861
0.000316843
0.000381418
0.000727735
0.000681238
0.000755268
0.000676444
0.000501776
0.000320996
0.000206776
0.000148927
0.00011257
8.70572e-05
6.72551e-05
5.26354e-05
4.15632e-05
3.28412e-05
2.60031e-05
2.09348e-05
1.68132e-05
1.28979e-05
1.01684e-05
8.44868e-06
7.52602e-06
7.11188e-06
6.96003e-06
6.91697e-06
6.91777e-06
7.06204e-06
7.81493e-06
9.11474e-06
1.32737e-05
2.62129e-05
5.79365e-05
0.000128006
0.000273316
0.000561197
0.000374208
0.000713578
0.000671274
0.000748069
0.000668984
0.000495892
0.000318302
0.000205877
0.000148488
0.000112209
8.69566e-05
6.72585e-05
5.26367e-05
4.15417e-05
3.28111e-05
2.5975e-05
2.0633e-05
1.68288e-05
1.33038e-05
1.05131e-05
8.6277e-06
7.60839e-06
7.13125e-06
6.96505e-06
6.92375e-06
6.92219e-06
6.97154e-06
7.51703e-06
8.63231e-06
1.16497e-05
2.1863e-05
4.82309e-05
0.000108025
0.000234529
0.000489414
0.000980577
0.000367676
0.000700127
0.000662997
0.000742782
0.000661565
0.000489971
0.000315929
0.000205254
0.000148098
0.000111879
8.68636e-05
6.72723e-05
5.26542e-05
4.15413e-05
3.27919e-05
2.59521e-05
2.05907e-05
1.65778e-05
1.3538e-05
1.07625e-05
8.82529e-06
7.70273e-06
7.16075e-06
6.96717e-06
6.92945e-06
6.9281e-06
6.94082e-06
7.25401e-06
8.22991e-06
1.04329e-05
1.83137e-05
3.99962e-05
9.06566e-05
0.000200154
0.000424866
0.000864552
0.00169204
0.000361937
0.00068815
0.000656479
0.000738179
0.000653923
0.000483723
0.000313837
0.000204852
0.000147832
0.000111612
8.67999e-05
6.72949e-05
5.26804e-05
4.15548e-05
3.27893e-05
2.5935e-05
2.05717e-05
1.63826e-05
1.3475e-05
1.09833e-05
9.03123e-06
7.804e-06
7.20288e-06
6.96941e-06
6.93176e-06
6.9366e-06
6.93806e-06
7.06114e-06
7.8583e-06
9.54122e-06
1.54651e-05
3.30733e-05
7.56529e-05
0.000169888
0.000366801
0.000759498
0.00150784
0.00288696
0.00035708
0.000678913
0.000650913
0.000733127
0.00064562
0.000477224
0.000312077
0.000204617
0.00014764
0.000111429
8.67795e-05
6.7334e-05
5.27127e-05
4.15771e-05
3.27995e-05
2.59275e-05
2.05554e-05
1.63567e-05
1.32646e-05
1.10928e-05
9.16419e-06
7.91477e-06
7.25409e-06
6.9766e-06
6.93052e-06
6.94337e-06
6.94517e-06
6.9645e-06
7.53788e-06
8.88628e-06
1.32319e-05
2.73011e-05
6.28001e-05
0.000143373
0.000315036
0.000663632
0.00134069
0.00259929
0.00487496
0.000352824
0.000671982
0.000646225
0.000727082
0.000636361
0.000470727
0.000310609
0.000204498
0.00014751
0.000111357
8.68194e-05
6.74005e-05
5.27562e-05
4.16062e-05
3.28189e-05
2.59321e-05
2.05438e-05
1.63483e-05
1.31045e-05
1.10097e-05
9.25881e-06
8.02976e-06
7.30843e-06
6.99321e-06
6.9265e-06
6.94862e-06
6.95483e-06
6.92962e-06
7.26097e-06
8.3822e-06
1.15256e-05
2.25468e-05
5.18761e-05
0.000120291
0.000269108
0.000577154
0.00118608
0.00233809
0.00443229
0.00814813
0.000348832
0.000665928
0.000640797
0.00071934
0.000626284
0.000464267
0.000309395
0.00020447
0.00014745
0.000111367
8.69163e-05
6.75082e-05
5.28186e-05
4.16452e-05
3.28456e-05
2.59464e-05
2.05423e-05
1.63408e-05
1.30824e-05
1.08355e-05
9.27592e-06
8.10283e-06
7.36741e-06
7.01835e-06
6.92339e-06
6.9501e-06
6.96557e-06
6.92618e-06
7.04435e-06
7.9572e-06
1.02579e-05
1.86842e-05
4.26576e-05
0.000100298
0.000228635
0.000499357
0.00104494
0.0020935
0.00403045
0.00747645
0.0134732
0.000344735
0.000659685
0.000634116
0.000709874
0.000615768
0.00045789
0.000308201
0.00020451
0.00014743
0.000111442
8.70685e-05
6.76509e-05
5.29123e-05
4.17003e-05
3.28809e-05
2.59689e-05
2.05492e-05
1.63398e-05
1.30761e-05
1.06721e-05
9.17805e-06
8.11363e-06
7.42835e-06
7.04618e-06
6.92619e-06
6.94794e-06
6.97544e-06
6.93527e-06
6.92431e-06
7.59424e-06
9.33536e-06
1.5605e-05
3.4937e-05
8.31266e-05
0.000193149
0.000429874
0.000916399
0.00186814
0.00365011
0.0068669
0.0124705
0.022003
0.00034022
0.00065247
0.000626338
0.000699592
0.000605304
0.000451764
0.000306933
0.000204475
0.000147436
0.000111561
8.72579e-05
6.78227e-05
5.30309e-05
4.17767e-05
3.29278e-05
2.60002e-05
2.0566e-05
1.63464e-05
1.30743e-05
1.06517e-05
9.01966e-06
8.07424e-06
7.47396e-06
7.07375e-06
6.93749e-06
6.94308e-06
6.98343e-06
6.94767e-06
6.87388e-06
7.29027e-06
8.66091e-06
1.32082e-05
2.85365e-05
6.84753e-05
0.000162237
0.000368109
0.000800015
0.00166065
0.00329705
0.00628413
0.0115597
0.0205411
0.0353293
0.000334952
0.000644627
0.0006181
0.000688978
0.00059519
0.000446094
0.000305468
0.000204327
0.000147373
0.000111717
8.74756e-05
6.80169e-05
5.31706e-05
4.1874e-05
3.29892e-05
2.60397e-05
2.05904e-05
1.63618e-05
1.30773e-05
1.0652e-05
8.87746e-06
7.96234e-06
7.43339e-06
7.10479e-06
6.95372e-06
6.93946e-06
6.98776e-06
6.96194e-06
6.86297e-06
7.03741e-06
8.14561e-06
1.1394e-05
2.32937e-05
5.6072e-05
0.000135432
0.000313555
0.000695073
0.00147055
0.00296907
0.00573978
0.0106796
0.0192102
0.0332874
0.0552219
0.000329141
0.000635812
0.000609963
0.000678274
0.000585354
0.000440655
0.000303813
0.000203906
0.000147234
0.000111852
8.77163e-05
6.82246e-05
5.33275e-05
4.19856e-05
3.30626e-05
2.60887e-05
2.06217e-05
1.63849e-05
1.30851e-05
1.0657e-05
8.84557e-06
7.80593e-06
7.36291e-06
7.13e-06
6.96942e-06
6.94158e-06
6.98849e-06
6.97579e-06
6.87013e-06
6.87469e-06
7.72125e-06
1.00646e-05
1.90589e-05
4.56655e-05
0.000112331
0.000265597
0.000601013
0.00129696
0.00266567
0.00523047
0.00985215
0.017907
0.0314204
0.0525849
0.0827741
0.000323297
0.000627396
0.000602428
0.000667553
0.000575681
0.000435627
0.000302081
0.000203211
0.000146942
0.000111957
8.79409e-05
6.84362e-05
5.34931e-05
4.21096e-05
3.31464e-05
2.61463e-05
2.06593e-05
1.64129e-05
1.31008e-05
1.0664e-05
8.84697e-06
7.66853e-06
7.23574e-06
7.11222e-06
6.98354e-06
6.9509e-06
6.98677e-06
6.98796e-06
6.88344e-06
6.79194e-06
7.37572e-06
9.11406e-06
1.57051e-05
3.70082e-05
9.25436e-05
0.000223682
0.000517092
0.00113925
0.00238566
0.00475583
0.00907268
0.016671
0.0295594
0.0501613
0.0797672
0.116683
0.000318243
0.000620015
0.000595742
0.000657083
0.000566078
0.000431173
0.000300565
0.000202332
0.000146522
0.000111993
8.81356e-05
6.86265e-05
5.36572e-05
4.22389e-05
3.3236e-05
2.62085e-05
2.07008e-05
1.64447e-05
1.31212e-05
1.06765e-05
8.85298e-06
7.6027e-06
7.06905e-06
7.02576e-06
6.99868e-06
6.96336e-06
6.98616e-06
6.99777e-06
6.89901e-06
6.76115e-06
7.09266e-06
8.4359e-06
1.31167e-05
2.98895e-05
7.56967e-05
0.000187254
0.000442636
0.000996499
0.00212828
0.00431426
0.00834168
0.0154966
0.0277722
0.0476871
0.0769945
0.113873
0.152126
0.000313927
0.000613601
0.000588957
0.000646002
0.000556356
0.000427278
0.000299478
0.000201463
0.000146053
0.000111975
8.82737e-05
6.87825e-05
5.38066e-05
4.23646e-05
3.33284e-05
2.62741e-05
2.07446e-05
1.64779e-05
1.31446e-05
1.06918e-05
8.85918e-06
7.60005e-06
6.9126e-06
6.90097e-06
6.99905e-06
6.97398e-06
6.99133e-06
7.00381e-06
6.91537e-06
6.75802e-06
6.87642e-06
7.93406e-06
1.11946e-05
2.40902e-05
6.1466e-05
0.000155743
0.000376942
0.000867924
0.00189239
0.00390478
0.00765737
0.0143867
0.0260523
0.0452692
0.0740736
0.11133
0.150147
0.182631
0.000310256
0.000608242
0.000581348
0.000634082
0.00054666
0.000423919
0.000298723
0.000200786
0.000145654
0.000111944
8.83702e-05
6.88875e-05
5.39341e-05
4.24807e-05
3.34175e-05
2.63407e-05
2.07896e-05
1.65115e-05
1.31687e-05
1.07092e-05
8.8683e-06
7.60562e-06
6.79647e-06
6.72967e-06
6.93942e-06
6.98243e-06
7.00372e-06
7.00788e-06
6.93077e-06
6.76693e-06
6.74353e-06
7.54022e-06
9.81273e-06
1.94347e-05
4.9541e-05
0.000128653
0.000319227
0.000752677
0.00167711
0.00352588
0.00701885
0.0133404
0.0244075
0.0428998
0.0711654
0.10852
0.148518
0.181767
0.204489
0.000306336
0.000602492
0.00057248
0.000621273
0.000537535
0.000421226
0.000298191
0.000200302
0.000145439
0.000111958
8.84433e-05
6.89449e-05
5.40223e-05
4.25809e-05
3.35002e-05
2.64048e-05
2.08353e-05
1.65451e-05
1.31926e-05
1.07273e-05
8.87876e-06
7.61208e-06
6.76653e-06
6.54677e-06
6.82345e-06
6.99088e-06
7.01964e-06
7.01251e-06
6.94432e-06
6.78022e-06
6.67658e-06
7.22478e-06
8.85138e-06
1.57802e-05
3.96579e-05
0.000105484
0.000268806
0.000649752
0.00148145
0.00317648
0.00642416
0.0123581
0.0228397
0.0405934
0.0682538
0.105657
0.146549
0.181394
0.204594
0.217926
0.000301805
0.000594939
0.000561439
0.000607799
0.000528976
0.000419093
0.000297695
0.000199829
0.000145399
0.000112076
8.85285e-05
6.89772e-05
5.40785e-05
4.2656e-05
3.35742e-05
2.64652e-05
2.08805e-05
1.65786e-05
1.32158e-05
1.07447e-05
8.89056e-06
7.61858e-06
6.76786e-06
6.39801e-06
6.6673e-06
6.982e-06
7.03432e-06
7.02228e-06
6.95503e-06
6.79525e-06
6.65152e-06
6.97102e-06
8.19178e-06
1.29995e-05
3.15715e-05
8.5806e-05
0.00022493
0.000558289
0.00130417
0.00285542
0.00587194
0.0114382
0.021353
0.0383568
0.065356
0.102712
0.144504
0.18067
0.205333
0.218727
0.22475
0.000296607
0.000585389
0.000549166
0.000594779
0.000521621
0.000416954
0.000297106
0.000199377
0.000145475
0.000112291
8.86642e-05
6.9013e-05
5.41212e-05
4.27093e-05
3.36319e-05
2.65219e-05
2.0924e-05
1.66113e-05
1.32387e-05
1.07613e-05
8.90271e-06
7.62646e-06
6.77304e-06
6.29379e-06
6.47338e-06
6.91405e-06
7.04722e-06
7.03959e-06
6.96355e-06
6.81066e-06
6.64852e-06
6.78871e-06
7.73004e-06
1.09594e-05
2.50508e-05
6.91953e-05
0.000186953
0.000477295
0.00114422
0.0025612
0.00536069
0.0105797
0.0199487
0.0361999
0.062482
0.0997056
0.142343
0.17989
0.205749
0.220272
0.226003
0.226841
0.000290493
0.000574558
0.000536547
0.000582887
0.000515448
0.000414991
0.00029613
0.0001989
0.000145629
0.000112574
8.88534e-05
6.9086e-05
5.41699e-05
4.27534e-05
3.36744e-05
2.65717e-05
2.09668e-05
1.66435e-05
1.32621e-05
1.07776e-05
8.91488e-06
7.63582e-06
6.77893e-06
6.27449e-06
6.28196e-06
6.78625e-06
7.05793e-06
7.06252e-06
6.97173e-06
6.82423e-06
6.65497e-06
6.67563e-06
7.38872e-06
9.53062e-06
1.98826e-05
5.5296e-05
0.000154212
0.000405922
0.00100028
0.00229264
0.00488857
0.00978125
0.0186286
0.0341299
0.059647
0.0966428
0.140081
0.179006
0.206146
0.221529
0.228068
0.228371
0.225689
0.000284105
0.000562467
0.000524113
0.000572129
0.000510114
0.000412871
0.000294632
0.00019825
0.000145853
0.000112897
8.90735e-05
6.9201e-05
5.42451e-05
4.28011e-05
3.37101e-05
2.66122e-05
2.10068e-05
1.66756e-05
1.32859e-05
1.07944e-05
8.92726e-06
7.64639e-06
6.78562e-06
6.2778e-06
6.13304e-06
6.61842e-06
7.05555e-06
7.08663e-06
6.98319e-06
6.83648e-06
6.66287e-06
6.61775e-06
7.12362e-06
8.58058e-06
1.59034e-05
4.37636e-05
0.000126156
0.000343239
0.000871251
0.00204804
0.00445427
0.00904027
0.0173935
0.032155
0.0568629
0.0935383
0.137704
0.178029
0.206478
0.222807
0.229876
0.230747
0.227376
0.222383
0.000277554
0.000550667
0.000512742
0.000562484
0.00050549
0.000410571
0.000292579
0.000197462
0.000146022
0.000113249
8.93031e-05
6.93393e-05
5.4348e-05
4.28666e-05
3.37476e-05
2.66454e-05
2.10452e-05
1.67067e-05
1.331e-05
1.08122e-05
8.94031e-06
7.65755e-06
6.79393e-06
6.28408e-06
6.03099e-06
6.41398e-06
7.00565e-06
7.10968e-06
7.00155e-06
6.84582e-06
6.6768e-06
6.59533e-06
6.91911e-06
7.9665e-06
1.28869e-05
3.4332e-05
0.000102239
0.000288444
0.000755844
0.00182596
0.00405584
0.00835548
0.016242
0.0302827
0.0541453
0.0904042
0.13522
0.176956
0.206753
0.22406
0.231726
0.232892
0.229924
0.224149
0.217694
0.000270868
0.000539036
0.000502379
0.000554054
0.000501431
0.000408217
0.000290136
0.000196457
0.000146168
0.000113543
8.9529e-05
6.94851e-05
5.447e-05
4.29497e-05
3.37962e-05
2.66788e-05
2.10815e-05
1.67374e-05
1.33344e-05
1.08307e-05
8.95402e-06
7.66897e-06
6.80331e-06
6.29085e-06
6.01099e-06
6.21212e-06
6.88004e-06
7.1324e-06
7.02782e-06
6.85392e-06
6.68781e-06
6.59003e-06
6.7709e-06
7.56187e-06
1.07182e-05
2.67485e-05
8.20063e-05
0.000240688
0.000652994
0.00162463
0.00369172
0.00772462
0.0151736
0.0285173
0.0515096
0.0872562
0.132634
0.175789
0.206975
0.225297
0.233578
0.235093
0.23226
0.226776
0.219489
0.21216
0.000263997
0.000527151
0.000492784
0.000546555
0.000497844
0.000405793
0.000287565
0.000195407
0.000146258
0.000113792
8.97019e-05
6.96276e-05
5.45956e-05
4.30429e-05
3.38532e-05
2.67177e-05
2.11133e-05
1.67673e-05
1.33591e-05
1.08497e-05
8.96841e-06
7.68057e-06
6.81334e-06
6.29851e-06
6.01378e-06
6.05167e-06
6.71537e-06
7.14833e-06
7.05901e-06
6.86223e-06
6.69783e-06
6.5914e-06
6.67522e-06
7.27825e-06
9.25543e-06
2.07904e-05
6.50437e-05
0.000199236
0.000561513
0.00144256
0.00335959
0.00714623
0.0141862
0.026864
0.0489687
0.0841122
0.129957
0.174527
0.207143
0.226514
0.23544
0.237312
0.234658
0.229202
0.222135
0.213951
0.206143
0.000256834
0.000514475
0.00048396
0.000540163
0.000494576
0.000403191
0.00028497
0.000194555
0.000146364
0.000113963
8.98129e-05
6.97336e-05
5.47178e-05
4.31363e-05
3.39157e-05
2.6758e-05
2.11433e-05
1.67938e-05
1.33834e-05
1.08685e-05
8.98293e-06
7.6922e-06
6.82332e-06
6.30687e-06
6.02009e-06
5.94064e-06
6.51217e-06
7.13268e-06
7.09133e-06
6.87443e-06
6.70557e-06
6.5987e-06
6.62256e-06
7.06591e-06
8.32291e-06
1.62371e-05
5.09566e-05
0.000163407
0.000480376
0.0012781
0.00305753
0.00661782
0.0132787
0.0253242
0.0465382
0.0809887
0.127202
0.173171
0.207254
0.227709
0.237309
0.239556
0.237083
0.231695
0.224588
0.216579
0.207912
0.199889
0.000249213
0.000500502
0.000475821
0.000534956
0.000491447
0.000400295
0.000282344
0.000193864
0.000146571
0.000114094
8.9862e-05
6.98065e-05
5.48178e-05
4.32249e-05
3.39769e-05
2.68035e-05
2.11727e-05
1.68172e-05
1.3406e-05
1.08866e-05
8.99752e-06
7.70384e-06
6.83302e-06
6.31598e-06
6.02665e-06
5.90714e-06
6.29994e-06
7.03137e-06
7.12492e-06
6.89394e-06
6.71108e-06
6.60663e-06
6.59846e-06
6.90287e-06
7.75816e-06
1.29081e-05
3.94156e-05
0.000132563
0.000408581
0.00112986
0.00278317
0.00613729
0.012449
0.0239001
0.0442292
0.0779074
0.12438
0.171726
0.207305
0.228881
0.239181
0.241824
0.239543
0.23422
0.22711
0.219019
0.210499
0.201623
0.193561
0.00024124
0.000485869
0.000468515
0.000530803
0.000488353
0.000396935
0.000279704
0.000193366
0.00014689
0.000114245
8.98878e-05
6.98361e-05
5.48984e-05
4.32993e-05
3.40347e-05
2.68476e-05
2.12027e-05
1.68366e-05
1.34268e-05
1.09038e-05
9.01194e-06
7.71553e-06
6.84245e-06
6.32503e-06
6.0335e-06
5.90593e-06
6.11888e-06
6.88988e-06
7.15869e-06
6.92102e-06
6.71499e-06
6.61339e-06
6.58736e-06
6.78336e-06
7.41031e-06
1.05574e-05
3.012e-05
0.000106207
0.000345117
0.000996474
0.00253462
0.00570146
0.0116956
0.0225919
0.0420536
0.0748896
0.121507
0.170197
0.207294
0.230027
0.241058
0.244112
0.242035
0.236785
0.229666
0.221528
0.212901
0.204157
0.195253
0.187265
0.000233456
0.000471027
0.000462061
0.000527376
0.00048503
0.000392941
0.000276985
0.000192981
0.000147279
0.000114421
8.99292e-05
6.98559e-05
5.49522e-05
4.33653e-05
3.40858e-05
2.6891e-05
2.12311e-05
1.68546e-05
1.34422e-05
1.09196e-05
9.02646e-06
7.72713e-06
6.85165e-06
6.3339e-06
6.0413e-06
5.91191e-06
5.98725e-06
6.70874e-06
7.17781e-06
6.95383e-06
6.71865e-06
6.61645e-06
6.58051e-06
6.70349e-06
7.17316e-06
9.0351e-06
2.28226e-05
8.38668e-05
0.000289142
0.000876443
0.00231015
0.00530748
0.0110154
0.0214011
0.0400196
0.0719613
0.118602
0.168593
0.207219
0.231144
0.242936
0.246422
0.244558
0.239387
0.232263
0.224071
0.215371
0.206505
0.197723
0.188909
0.181072
0.000225789
0.000456922
0.000456606
0.000524341
0.00048143
0.000388376
0.000274231
0.000192645
0.000147664
0.000114598
9.00001e-05
6.98986e-05
5.50034e-05
4.34108e-05
3.41335e-05
2.69294e-05
2.12597e-05
1.68704e-05
1.34558e-05
1.09332e-05
9.03971e-06
7.73848e-06
6.86077e-06
6.34253e-06
6.04971e-06
5.91854e-06
5.91907e-06
6.50204e-06
7.14778e-06
6.99052e-06
6.72449e-06
6.61528e-06
6.58301e-06
6.65546e-06
6.99205e-06
8.13284e-06
1.72942e-05
6.5159e-05
0.000239829
0.000768447
0.00210798
0.00495272
0.010405
0.0203272
0.0381377
0.0691439
0.115685
0.166924
0.207083
0.23223
0.244814
0.248749
0.247112
0.242024
0.234901
0.226657
0.217876
0.208922
0.200011
0.191312
0.182664
0.175032
0.000218343
0.000443979
0.000451925
0.000521308
0.00047746
0.000383261
0.000271605
0.000192346
0.000148012
0.00011474
9.00913e-05
6.99701e-05
5.5068e-05
4.34556e-05
3.41719e-05
2.69653e-05
2.12875e-05
1.68876e-05
1.34689e-05
1.09441e-05
9.05229e-06
7.74985e-06
6.87007e-06
6.35106e-06
6.05825e-06
5.92554e-06
5.90644e-06
6.30603e-06
7.03959e-06
7.03011e-06
6.7353e-06
6.61114e-06
6.58237e-06
6.62838e-06
6.84726e-06
7.62725e-06
1.33017e-05
4.96981e-05
0.000196532
0.000671063
0.0019267
0.00463465
0.00986029
0.0193694
0.0364151
0.0664583
0.112779
0.165204
0.206884
0.233281
0.24669
0.251093
0.249693
0.244696
0.237575
0.229283
0.220423
0.211372
0.202364
0.193532
0.184996
0.17657
0.169181
0.000211398
0.000432329
0.000447956
0.00051799
0.000472936
0.000377688
0.000269068
0.000192131
0.000148307
0.000114842
9.01746e-05
7.00611e-05
5.51487e-05
4.3512e-05
3.42123e-05
2.69977e-05
2.13164e-05
1.69073e-05
1.34829e-05
1.09537e-05
9.06447e-06
7.76072e-06
6.87941e-06
6.35952e-06
6.06659e-06
5.93383e-06
5.90997e-06
6.14554e-06
6.89566e-06
7.07022e-06
6.75279e-06
6.6044e-06
6.58003e-06
6.61458e-06
6.73562e-06
7.33721e-06
1.06223e-05
3.71633e-05
0.000158661
0.000583102
0.00176464
0.00435168
0.00937645
0.0185249
0.0348609
0.0639224
0.10991
0.163447
0.206626
0.234298
0.248561
0.253453
0.252299
0.247401
0.240286
0.231946
0.223008
0.213863
0.204751
0.195818
0.187147
0.178826
0.170659
0.163546
0.000204891
0.000421961
0.000444754
0.000514289
0.00046786
0.000371861
0.000266533
0.000191987
0.00014854
0.000114902
9.02454e-05
7.01466e-05
5.52393e-05
4.3577e-05
3.42571e-05
2.70302e-05
2.13434e-05
1.6927e-05
1.34992e-05
1.09636e-05
9.07576e-06
7.7709e-06
6.88846e-06
6.3684e-06
6.07473e-06
5.94259e-06
5.91692e-06
6.02692e-06
6.72228e-06
7.08232e-06
6.77643e-06
6.59627e-06
6.57313e-06
6.60662e-06
6.65711e-06
7.14262e-06
8.96737e-06
2.72684e-05
0.000125797
0.000503372
0.00162041
0.00410207
0.00895027
0.0177873
0.033483
0.0615581
0.107103
0.161657
0.206315
0.235273
0.250426
0.255822
0.254929
0.250135
0.243032
0.234646
0.225631
0.216393
0.207177
0.198136
0.189361
0.180903
0.172836
0.164959
0.158157
0.000198917
0.000413237
0.000442444
0.000509898
0.000462259
0.000365937
0.0002641
0.000191812
0.000148717
0.000114946
9.02994e-05
7.02231e-05
5.5321e-05
4.36428e-05
3.43042e-05
2.70619e-05
2.13692e-05
1.6946e-05
1.35173e-05
1.09738e-05
9.08652e-06
7.78097e-06
6.89769e-06
6.37757e-06
6.08273e-06
5.9518e-06
5.92399e-06
5.97678e-06
6.53542e-06
7.04318e-06
6.80884e-06
6.5878e-06
6.56238e-06
6.60321e-06
6.60625e-06
6.9847e-06
8.08239e-06
1.97873e-05
9.75505e-05
0.000430905
0.00149257
0.00388437
0.00857906
0.01715
0.0322841
0.0593907
0.104385
0.15984
0.205961
0.236207
0.252281
0.258202
0.257578
0.252897
0.245808
0.237381
0.228291
0.218959
0.20964
0.200492
0.191608
0.183045
0.174838
0.167052
0.159495
0.153039
0.000193269
0.000406076
0.000441029
0.000504738
0.000455992
0.000360127
0.000261815
0.000191544
0.000148804
0.000114997
9.03616e-05
7.02891e-05
5.53933e-05
4.37027e-05
3.43523e-05
2.7093e-05
2.13932e-05
1.69631e-05
1.35354e-05
1.09859e-05
9.09683e-06
7.79009e-06
6.9066e-06
6.38677e-06
6.09056e-06
5.96052e-06
5.931e-06
5.96695e-06
6.36314e-06
6.94147e-06
6.84212e-06
6.58012e-06
6.54775e-06
6.59943e-06
6.57726e-06
6.84736e-06
7.64848e-06
1.45058e-05
7.36063e-05
0.000364713
0.00138017
0.00369677
0.00826156
0.0166061
0.0312623
0.0574459
0.101785
0.15802
0.205573
0.237109
0.254124
0.260583
0.260243
0.255681
0.248614
0.240147
0.230985
0.22156
0.212141
0.202885
0.193891
0.185218
0.176904
0.168976
0.161499
0.154291
0.148226
0.000187702
0.000399689
0.000440019
0.000498738
0.000448946
0.00035463
0.000259686
0.00019124
0.000148773
0.000115052
9.0436e-05
7.03574e-05
5.54567e-05
4.37517e-05
3.43968e-05
2.71253e-05
2.14172e-05
1.69798e-05
1.35527e-05
1.09985e-05
9.10778e-06
7.79866e-06
6.91467e-06
6.39601e-06
6.09823e-06
5.96889e-06
5.93983e-06
5.9714e-06
6.21983e-06
6.80878e-06
6.87414e-06
6.57666e-06
6.53011e-06
6.59258e-06
6.5524e-06
6.73436e-06
7.42202e-06
1.1137e-05
5.36829e-05
0.000303956
0.00128245
0.00353774
0.00799617
0.0161515
0.0304078
0.0557504
0.0993346
0.156217
0.205167
0.237991
0.255955
0.262965
0.262919
0.258486
0.251444
0.242943
0.233709
0.224196
0.214674
0.205313
0.196211
0.187426
0.179
0.170961
0.163337
0.156197
0.149376
0.143754
0.000181925
0.000393267
0.000438829
0.000492147
0.0004411
0.000349482
0.000257725
0.000190901
0.000148683
0.000115065
9.05138e-05
7.04355e-05
5.55147e-05
4.3794e-05
3.44351e-05
2.71561e-05
2.1442e-05
1.69947e-05
1.35699e-05
1.1011e-05
9.11912e-06
7.8065e-06
6.9225e-06
6.40505e-06
6.10598e-06
5.97713e-06
5.94882e-06
5.97879e-06
6.10814e-06
6.65761e-06
6.86922e-06
6.58005e-06
6.51065e-06
6.58135e-06
6.53853e-06
6.653e-06
7.26291e-06
9.29543e-06
3.76046e-05
0.000247904
0.00119913
0.00340593
0.00778125
0.0157841
0.0297106
0.0543166
0.0970818
0.154449
0.204755
0.238858
0.257772
0.265342
0.265599
0.261304
0.254295
0.245763
0.236464
0.226862
0.217242
0.207774
0.198563
0.18967
0.181132
0.172978
0.165239
0.157943
0.151176
0.144784
0.139668
0.000175784
0.000385514
0.000436901
0.000485064
0.000432793
0.000344492
0.000255896
0.000190524
0.000148558
0.000115051
9.05596e-05
7.05185e-05
5.55829e-05
4.38313e-05
3.44652e-05
2.71866e-05
2.14677e-05
1.70109e-05
1.35851e-05
1.1022e-05
9.13114e-06
7.81507e-06
6.93009e-06
6.41372e-06
6.11375e-06
5.98576e-06
5.95747e-06
5.98628e-06
6.06458e-06
6.50136e-06
6.80965e-06
6.59195e-06
6.48999e-06
6.56632e-06
6.52739e-06
6.59511e-06
7.11681e-06
8.5017e-06
2.54518e-05
0.000195894
0.00113023
0.00330061
0.00761464
0.0155026
0.0291625
0.0531431
0.0950787
0.152737
0.204348
0.239713
0.259571
0.267708
0.268278
0.26413
0.257161
0.248606
0.239243
0.229556
0.219838
0.210268
0.20095
0.191948
0.1833
0.175032
0.167173
0.159756
0.152818
0.146462
0.140552
0.136012
0.000168816
0.000375985
0.000433573
0.000477503
0.000424306
0.000339672
0.000254007
0.000190101
0.00014846
0.000115033
9.05637e-05
7.05822e-05
5.56524e-05
4.38742e-05
3.44932e-05
2.72095e-05
2.14936e-05
1.70291e-05
1.36011e-05
1.10324e-05
9.14314e-06
7.8229e-06
6.93743e-06
6.42128e-06
6.12136e-06
5.9943e-06
5.96522e-06
5.99649e-06
6.05362e-06
6.35707e-06
6.71168e-06
6.60708e-06
6.46902e-06
6.54782e-06
6.51798e-06
6.55743e-06
6.98379e-06
8.1957e-06
1.7496e-05
0.000147365
0.00107596
0.00322145
0.00749455
0.0153045
0.0287601
0.0522159
0.0933673
0.151116
0.203952
0.24057
0.261336
0.270041
0.270944
0.266962
0.260044
0.251468
0.242044
0.232275
0.222462
0.21279
0.203367
0.194257
0.185499
0.17712
0.169144
0.161601
0.154531
0.14799
0.142092
0.136726
0.132838
0.000161035
0.000364318
0.000428941
0.00046973
0.000416017
0.000334983
0.000252095