/*--------------------------------*- C++ -*----------------------------------*\
| =========                 |                                                 |
| \\      /  F ield         | OpenFOAM: The Open Source CFD Toolbox           |
|  \\    /   O peration     | Version:  v2012                                 |
|   \\  /    A nd           | Website:  www.openfoam.com                      |
|    \\/     M anipulation  |                                                 |
\*---------------------------------------------------------------------------*/
FoamFile
{
    version     2.0;
    format      ascii;
    class       volSymmTensorField;
    location    "12000";
    object      turbulenceProperties:R;
}
// * * * * * * * * * * * * * * * * * * * * * * * * * * * * * * * * * * * * * //

dimensions      [0 2 -2 0 0 0 0];


internalField   nonuniform List<symmTensor> 
27324
(
(0.0502331 0.0265384 3.60044e-14 0.0464528 -3.88531e-15 0.0517491)
(0.0483645 0.0277839 1.12276e-14 0.0455533 -1.2331e-15 0.0507096)
(0.254957 0.163019 2.01532e-13 0.243044 -9.71177e-15 0.25882)
(0.0473365 0.0280886 2.52307e-14 0.044406 -2.17017e-15 0.0490757)
(0.239715 0.163255 -6.26682e-14 0.230522 2.84476e-15 0.245531)
(0.227993 0.151393 -7.32867e-14 0.216123 3.7787e-15 0.231203)
(0.0456752 0.0282878 1.24291e-14 0.0430333 -9.87216e-16 0.0472691)
(0.224284 0.157813 3.88271e-15 0.215303 -9.01662e-17 0.228447)
(0.208748 0.146306 6.34409e-15 0.199344 -2.96573e-16 0.213522)
(0.114119 0.0784695 -3.50863e-14 0.106011 2.11618e-15 0.116027)
(0.0436252 0.0282219 2.48707e-14 0.0421414 -1.20374e-15 0.0447736)
(0.205347 0.151076 -1.18235e-13 0.197516 4.47642e-15 0.209001)
(0.190256 0.137923 4.21524e-14 0.181368 -1.97762e-15 0.193634)
(0.101441 0.0735803 2.37696e-14 0.0949338 -1.52079e-15 0.104233)
(0.039587 0.0280174 2.27627e-14 0.0351547 -2.00038e-15 0.0405595)
(0.0414034 0.027638 1.48458e-14 0.0407489 -3.06719e-16 0.0420551)
(0.183921 0.142382 -2.29562e-15 0.179507 1.1675e-16 0.186412)
(0.169567 0.128923 4.48159e-14 0.161921 -1.79948e-15 0.172487)
(0.0899879 0.0678258 -1.79769e-14 0.0839985 1.0935e-15 0.0919176)
(0.0338872 0.0252645 7.24809e-15 0.0303541 -6.37421e-16 0.0352755)
(0.0118237 0.00814546 -2.50157e-15 0.00965069 4.33484e-16 0.012298)
(0.0390658 0.0267184 2.43874e-14 0.0386239 -3.86976e-16 0.0394564)
(0.16029 0.130605 -5.00736e-14 0.158341 6.58708e-16 0.161597)
(0.147434 0.118704 3.64438e-14 0.143071 -9.74032e-16 0.149389)
(0.0781536 0.0620555 2.1347e-14 0.0730707 -1.1296e-15 0.0797778)
(0.0290691 0.022455 -1.17152e-14 0.0259311 1.02833e-15 0.0300036)
(0.00982343 0.00709261 -1.49327e-15 0.00812131 2.30119e-16 0.0104947)
(0.00350341 0.00220872 -1.28961e-15 0.00248908 3.42188e-16 0.00372875)
(0.0367001 0.0257501 1.29645e-14 0.0359715 -2.47865e-16 0.037008)
(0.135752 0.116951 6.91113e-16 0.134476 1.21019e-18 0.136446)
(0.124853 0.106493 2.45509e-15 0.122888 -1.36235e-17 0.12585)
(0.0663177 0.0559658 -1.71069e-14 0.0633927 6.05349e-16 0.0673882)
(0.0245028 0.0198395 4.30648e-15 0.021919 -4.01898e-16 0.0252812)
(0.00826389 0.00613116 -1.39568e-15 0.00680224 2.13527e-16 0.00871407)
(0.00287089 0.00190951 4.74567e-16 0.002074 -1.09361e-16 0.00318562)
(0.00113937 0.000628771 1.51246e-17 0.000659499 -6.18182e-17 0.00124629)
(0.0341037 0.0247108 2.34544e-14 0.0341412 2.41379e-16 0.0336195)
(0.11157 0.102812 -3.78782e-14 0.109903 3.9478e-16 0.112051)
(0.102928 0.0931731 3.01009e-14 0.10167 -2.69237e-16 0.103438)
(0.055847 0.0497439 1.34316e-14 0.0545066 -2.88246e-16 0.0564072)
(0.0203071 0.0173983 -5.71129e-15 0.0188325 2.84638e-16 0.0208278)
(0.00687322 0.00533878 -1.21717e-15 0.00568984 1.36976e-16 0.0072411)
(0.00241773 0.00165717 -2.6535e-17 0.00174281 3.01534e-18 0.00262372)
(0.00093946 0.000554493 -4.89296e-17 0.000552898 4.54823e-17 0.0010903)
(0.000441735 0.000188666 -8.49591e-17 0.000198297 2.75802e-17 0.000496998)
(0.0307856 0.0232448 2.2873e-14 0.0342334 3.17495e-15 0.0273985)
(0.088036 0.0882972 7.00979e-17 0.0879288 -2.60129e-18 0.0871012)
(0.0824893 0.0798811 4.09182e-16 0.0810039 2.18443e-17 0.0828388)
(0.0469814 0.0438953 -1.47051e-14 0.046181 1.80852e-16 0.0472937)
(0.0172535 0.0154333 3.81179e-15 0.0165627 -1.4183e-16 0.0175418)
(0.00565178 0.00466776 -3.31772e-16 0.00495495 -8.15205e-18 0.00589397)
(0.00201784 0.00147399 2.31154e-16 0.00147671 -5.9303e-17 0.00218434)
(0.000807457 0.000487552 1.4488e-16 0.000483375 -3.06226e-17 0.000907049)
(0.000375176 0.000173582 -3.46049e-17 0.000169423 3.35057e-17 0.000455487)
(0.000207075 5.80506e-05 -1.16428e-17 7.05131e-05 -9.22061e-18 0.000238642)
(0.0226758 0.0172254 6.32863e-15 0.0381841 5.23693e-15 0.0153723)
(0.0642648 0.0712326 -1.22498e-15 0.0703759 -8.27928e-17 0.0593901)
(0.0636694 0.0673519 2.10214e-14 0.0638533 2.35725e-16 0.0629908)
(0.0393474 0.0387294 1.0956e-14 0.0384383 -1.85516e-16 0.0395705)
(0.0151623 0.0140173 -3.88348e-15 0.0147375 8.02455e-17 0.015327)
(0.00486005 0.00416486 -7.81859e-16 0.00450847 3.48587e-17 0.00499177)
(0.0016678 0.00131472 -8.14686e-19 0.00133332 1.18384e-17 0.00178032)
(0.000688954 0.000447087 -6.52293e-17 0.000429674 2.47421e-17 0.000770452)
(0.000335605 0.000158412 -2.39588e-17 0.000162071 1.40086e-17 0.000389844)
(0.000182012 5.91665e-05 -5.47001e-18 5.95692e-05 1.05447e-17 0.000229491)
(0.000110242 1.53292e-05 1.10348e-17 2.936e-05 -6.422e-18 0.000129364)
(0.0118382 0.00914604 7.08285e-15 0.0349367 1.40484e-14 0.00468786)
(0.0391624 0.0468227 -1.5829e-14 0.0618291 -6.06031e-15 0.0300171)
(0.0460753 0.0537678 1.85236e-14 0.0523656 1.74041e-15 0.0425045)
(0.0322702 0.0343865 -1.05031e-14 0.032553 -1.80241e-16 0.031867)
(0.0135014 0.0130208 3.13728e-15 0.0130812 -4.12613e-17 0.0136061)
(0.00440235 0.00384451 1.75665e-16 0.00417009 -2.59005e-18 0.00447268)
(0.00144611 0.00116433 3.10452e-16 0.00126804 -1.59785e-17 0.00151146)
(0.0005867 0.000412855 1.20303e-17 0.000411087 -9.91338e-18 0.000644699)
(0.000297368 0.000154571 -4.94654e-17 0.000158057 2.15461e-17 0.0003427)
(0.00016786 5.74968e-05 -1.5324e-17 6.46524e-05 9.64865e-18 0.000200691)
(9.91242e-05 1.95499e-05 1.10912e-17 2.29092e-05 -5.92844e-18 0.000128525)
(6.28279e-05 1.08058e-06 2.14544e-18 1.48348e-05 5.28764e-20 7.45738e-05)
(0.0060561 0.00348329 2.43907e-15 0.0153694 2.84646e-15 0.00325686)
(0.0210055 0.0246669 1.08209e-15 0.0533352 3.31677e-17 0.0120352)
(0.0290932 0.0397921 2.71378e-15 0.050656 7.63688e-16 0.022012)
(0.0253544 0.0308723 -8.34797e-15 0.0304574 -1.49571e-15 0.0228985)
(0.0118181 0.0123376 -5.87951e-15 0.0119621 8.36728e-18 0.0115312)
(0.00404859 0.0036743 -7.08071e-16 0.00389622 1.64009e-17 0.00408595)
(0.0013317 0.00105886 2.425e-17 0.00121013 2.39884e-19 0.00136807)
(0.000518501 0.000362053 -2.93223e-17 0.000419895 1.54217e-17 0.000554692)
(0.000266877 0.000153166 -5.88165e-17 0.000158699 8.94011e-18 0.000301726)
(0.000151828 5.98447e-05 -1.75927e-17 7.10644e-05 4.91717e-18 0.000179419)
(9.26547e-05 2.13297e-05 9.93488e-18 2.84912e-05 -3.02328e-18 0.000113176)
(5.73287e-05 5.67663e-06 -9.71271e-19 1.02738e-05 -3.07177e-19 7.56731e-05)
(3.67062e-05 -2.55208e-06 -2.94496e-18 9.05889e-06 2.52356e-18 4.37109e-05)
(0.00454815 0.00202801 2.13677e-15 0.00580694 8.52986e-16 0.00387787)
(0.0147625 0.0113882 -3.52529e-15 0.0311656 -4.22946e-15 0.0102796)
(0.0167306 0.0228806 5.8904e-15 0.0473365 6.32451e-15 0.00932016)
(0.0170539 0.0269023 6.71992e-15 0.0347544 3.11729e-15 0.0120069)
(0.00976438 0.012711 -3.06314e-15 0.0131785 -9.65776e-16 0.00827529)
(0.00368753 0.00369088 -7.65001e-16 0.00378465 -3.3319e-17 0.00350751)
(0.0012326 0.00101838 2.38103e-16 0.00120263 -6.20059e-19 0.00124787)
(0.000486332 0.000328675 6.26709e-17 0.000420035 -4.47895e-18 0.000506768)
(0.000241694 0.000132887 -2.03969e-17 0.00017729 1.09253e-17 0.000265266)
(0.000142393 6.44433e-05 -1.15898e-17 6.99401e-05 5.97151e-18 0.000164931)
(8.37491e-05 2.30123e-05 5.11462e-18 3.61097e-05 -4.093e-18 0.000100701)
(5.42891e-05 8.89686e-06 -2.56973e-18 1.34466e-05 1.784e-19 6.73015e-05)
(3.36434e-05 1.52272e-06 -1.23171e-18 6.25038e-06 -5.44571e-19 4.46382e-05)
(2.18872e-05 -2.85015e-06 1.50153e-18 6.39334e-06 -1.61178e-18 2.58914e-05)
(0.00406911 0.00179826 5.04096e-16 0.00423916 7.06567e-17 0.00396083)
(0.0143902 0.00838007 -5.1205e-16 0.0172841 1.78404e-17 0.0130021)
(0.0136164 0.0111045 7.94502e-16 0.0301053 1.34343e-16 0.00955069)
(0.0109918 0.0177416 -6.63272e-15 0.0373179 -4.64835e-15 0.00542099)
(0.00632185 0.0119918 3.0546e-15 0.0178757 1.85552e-15 0.00335768)
(0.00296611 0.00425629 -1.94545e-16 0.00507145 -1.47682e-16 0.00216828)
(0.00115253 0.00115755 1.6465e-16 0.00125562 3.79095e-17 0.00104534)
(0.00045201 0.000329729 -8.54283e-17 0.000451979 -7.08383e-20 0.000453569)
(0.000228841 0.000120969 -4.43596e-17 0.000192101 2.84293e-18 0.000241708)
(0.00013083 5.5302e-05 -2.7251e-18 8.31895e-05 3.25239e-18 0.000146959)
(8.09329e-05 2.73068e-05 4.91917e-18 3.28235e-05 -1.31199e-18 9.54596e-05)
(4.86646e-05 9.16354e-06 -1.34556e-18 2.00981e-05 1.55036e-19 5.91819e-05)
(3.26955e-05 5.28519e-06 -9.07526e-19 6.4112e-06 -1.47219e-18 4.07359e-05)
(2.00377e-05 4.87792e-08 -8.15012e-19 5.01914e-06 9.4486e-19 2.6302e-05)
(1.30844e-05 -2.13354e-06 1.31042e-18 4.7434e-06 -4.78991e-19 1.52696e-05)
(0.00394299 0.00174731 1.62686e-15 0.00396875 1.36285e-17 0.00393946)
(0.0139802 0.00808808 -6.25806e-15 0.0144107 -2.5016e-16 0.0137351)
(0.0137826 0.00823454 3.53331e-15 0.016791 4.17835e-16 0.0124695)
(0.012028 0.0105347 4.21986e-15 0.0285392 2.947e-15 0.00847905)
(0.0045183 0.00879232 -4.54522e-15 0.022197 -5.485e-15 0.00103355)
(0.00156298 0.00441072 -1.15485e-15 0.00800374 -1.03901e-15 2.50937e-05)
(0.000807183 0.00152464 4.96039e-17 0.00210046 9.13757e-18 0.000380513)
(0.000419224 0.000453044 7.45368e-17 0.000541128 9.33326e-18 0.000344836)
(0.000215313 0.000133955 -4.05959e-17 0.000220256 -6.01688e-18 0.000212603)
(0.000120664 4.9311e-05 -5.07679e-19 0.000103679 1.00164e-18 0.000128584)
(7.55768e-05 2.48664e-05 -7.79371e-18 3.89129e-05 -1.38749e-18 8.66783e-05)
(4.7744e-05 1.1744e-05 2.8243e-18 1.76704e-05 6.65957e-19 5.68072e-05)
(2.90087e-05 4.72562e-06 -4.2822e-19 1.11888e-05 -9.31881e-19 3.55139e-05)
(2.03135e-05 3.42551e-06 2.10354e-18 3.1129e-06 -1.48381e-18 2.52418e-05)
(1.17583e-05 -3.73096e-07 4.88323e-19 4.57508e-06 7.74401e-20 1.50972e-05)
(8.05073e-06 -1.16582e-06 5.05922e-19 3.43331e-06 4.91817e-20 9.17075e-06)
(0.00390383 0.00178066 7.45634e-16 0.00385875 -1.58916e-17 0.00392516)
(0.0138358 0.00803248 -2.80909e-16 0.0138425 -4.25204e-19 0.0138153)
(0.0132451 0.00807177 3.15528e-15 0.0136862 1.2705e-16 0.0130017)
(0.0147329 0.00894448 -3.2621e-15 0.0183155 -3.7296e-16 0.0134147)
(0.00707777 0.0061739 2.14302e-15 0.0197973 1.35169e-15 0.00457074)
(0.00106578 0.00303001 -4.97569e-16 0.0107336 -1.20351e-15 -0.00084283)
(0.000196242 0.00177276 2.70457e-16 0.00358709 4.18511e-16 -0.000567772)
(0.000201211 0.000770319 3.29107e-17 0.00110326 4.03828e-17 -5.19645e-05)
(0.000184217 0.000243221 -3.49451e-17 0.000334612 -2.09059e-17 0.000115959)
(0.000116396 6.66495e-05 2.9141e-18 0.000123006 -7.28808e-19 0.000108384)
(6.53368e-05 2.11709e-05 -3.90168e-18 6.17118e-05 -7.69352e-19 6.98987e-05)
(4.59336e-05 1.35563e-05 1.172e-19 1.86326e-05 3.09949e-20 5.32998e-05)
(2.80979e-05 5.52731e-06 2.2146e-18 1.09107e-05 -6.6683e-19 3.34639e-05)
(1.81114e-05 3.12995e-06 -1.55174e-18 5.78787e-06 7.2646e-19 2.23329e-05)
(1.23228e-05 2.10987e-06 6.61434e-19 2.34183e-06 -2.07991e-19 1.51598e-05)
(7.18914e-06 -5.09412e-07 2.6748e-19 3.64203e-06 2.60195e-19 8.86399e-06)
(5.12982e-06 -6.75057e-07 -4.33919e-19 2.30584e-06 1.2115e-19 5.79921e-06)
(0.0038688 0.00182703 1.57528e-15 0.00379835 -4.39063e-17 0.00389406)
(0.0137702 0.0082303 -2.7599e-15 0.0136168 3.08988e-17 0.0137962)
(0.0129328 0.00799348 3.29607e-15 0.0128925 -6.10583e-18 0.0128959)
(0.0147548 0.00911135 2.69705e-15 0.0152899 1.71468e-16 0.0144867)
(0.0106239 0.00625578 -3.30304e-15 0.0138782 -1.30726e-15 0.00960949)
(0.00269652 0.00188648 -5.88324e-16 0.0105342 -8.50906e-16 0.00116019)
(2.66632e-05 0.000902742 1.43534e-16 0.00474608 7.65517e-18 -0.000925159)
(-8.73664e-05 0.000869214 -9.95656e-17 0.0018339 -1.95453e-16 -0.000493159)
(1.62607e-05 0.000506183 -5.85115e-17 0.000752144 -9.47303e-17 -0.000161575)
(7.33403e-05 0.000178366 -2.61225e-17 0.0002589 -2.16693e-17 9.8733e-06)
(6.34336e-05 4.44091e-05 -1.4237e-18 8.02974e-05 1.61295e-18 5.08372e-05)
(3.73129e-05 1.26166e-05 3.23917e-18 3.92017e-05 1.53279e-19 3.87742e-05)
(2.73128e-05 9.29852e-06 -1.54475e-18 1.07202e-05 1.61896e-19 3.18282e-05)
(1.67808e-05 3.08588e-06 1.0463e-18 7.83805e-06 -5.07934e-19 1.97855e-05)
(1.15421e-05 2.78513e-06 3.16364e-19 2.5502e-06 -1.84943e-19 1.42177e-05)
(7.53963e-06 8.362e-07 -4.95283e-21 2.19156e-06 -1.2565e-19 9.04283e-06)
(4.41476e-06 -5.5344e-07 1.19281e-19 2.91145e-06 -1.36026e-19 5.36694e-06)
(3.49422e-06 -2.1546e-07 -7.34929e-20 1.49465e-06 7.82801e-20 3.89922e-06)
(0.00382108 0.00186221 1.41969e-15 0.00374446 -4.63702e-17 0.0038458)
(0.013655 0.00828431 6.05107e-16 0.0134383 1.27242e-18 0.0136897)
(0.0126259 0.00794938 5.42966e-16 0.0124535 -3.89844e-18 0.0126374)
(0.0144067 0.0089502 -2.94715e-15 0.0143536 -7.75902e-18 0.0143634)
(0.0112057 0.00677026 1.87128e-15 0.0117219 4.30569e-17 0.0109946)
(0.00511163 0.00260443 -7.06876e-16 0.00751257 -3.61329e-16 0.0044317)
(0.000658933 8.00563e-05 2.78836e-16 0.00483747 4.81966e-16 -0.00019754)
(-0.00011813 0.000290118 -1.41403e-17 0.00219864 1.89076e-16 -0.000600158)
(-0.000123371 0.000511994 -1.17689e-16 0.00110281 -2.05795e-16 -0.000360338)
(-5.40376e-05 0.000348392 -3.28826e-17 0.000562588 -3.57011e-17 -0.000181731)
(1.13402e-05 0.000144333 5.89302e-18 0.000224323 1.21873e-17 -4.53666e-05)
(3.0168e-05 4.16173e-05 6.64515e-19 7.03003e-05 -1.38331e-18 1.35754e-05)
(2.15155e-05 1.35963e-05 -1.2369e-18 2.63065e-05 -1.71111e-19 2.02406e-05)
(1.58998e-05 7.60837e-06 -1.42166e-18 9.22046e-06 1.2715e-19 1.77992e-05)
(9.63256e-06 2.90893e-06 -2.87538e-19 6.46666e-06 -6.84311e-20 1.10324e-05)
(7.3309e-06 2.61638e-06 -2.75498e-19 1.67933e-06 8.44297e-20 8.87565e-06)
(4.57448e-06 4.07642e-07 -4.43059e-19 2.46813e-06 6.18559e-20 5.14319e-06)
(2.79964e-06 3.27337e-08 2.12525e-20 2.56563e-06 4.21267e-21 3.22095e-06)
(2.3376e-06 2.72086e-07 -3.3718e-20 1.55452e-06 -1.20233e-21 2.49216e-06)
(0.00375799 0.00188856 -8.2736e-16 0.00368401 2.26937e-17 0.00377898)
(0.0134668 0.00829012 -6.32615e-16 0.0132373 1.81766e-18 0.0135021)
(0.0122541 0.00771216 2.34442e-15 0.0120407 -3.98844e-17 0.0122854)
(0.0139797 0.00865437 2.11808e-15 0.0138058 -2.85257e-17 0.0139946)
(0.0110281 0.00669481 -2.28358e-15 0.0110171 1.60278e-17 0.0110028)
(0.00579599 0.00329966 -8.85648e-16 0.0062027 -8.57735e-17 0.0056487)
(0.00175886 0.000564154 -1.50213e-17 0.00332149 6.41399e-17 0.00132865)
(7.43187e-05 -0.000318279 -4.99181e-17 0.00228697 -2.18932e-16 -0.000404434)
(-7.96814e-05 0.000106162 -4.17652e-17 0.0011564 -8.52375e-17 -0.000348045)
(-9.49294e-05 0.000306543 -1.95938e-17 0.00066746 -5.48266e-17 -0.000232581)
(-7.02973e-05 0.000234844 1.14302e-17 0.00041147 2.5698e-17 -0.000157276)
(-2.19243e-05 0.000121962 1.53133e-19 0.000199706 -1.96885e-18 -6.88929e-05)
(5.83966e-06 4.71405e-05 -4.70584e-20 7.43092e-05 -2.16939e-18 -1.32709e-05)
(1.05899e-05 1.93382e-05 1.31407e-18 2.54127e-05 2.15251e-18 5.68995e-06)
(8.18377e-06 8.74835e-06 2.65442e-19 1.0757e-05 4.78796e-19 7.23843e-06)
(5.32268e-06 4.15386e-06 4.70033e-19 6.54912e-06 3.22975e-19 5.26995e-06)
(4.34928e-06 3.45053e-06 2.50526e-19 2.64049e-06 -4.28967e-20 4.67165e-06)
(2.20031e-06 5.73225e-07 7.4742e-20 4.4247e-06 4.51837e-20 1.68284e-06)
(1.92008e-06 1.72539e-06 -5.17353e-20 2.20048e-06 -3.21744e-20 2.09692e-06)
(1.03793e-06 3.33716e-07 -5.94394e-20 3.30329e-06 -1.26846e-19 5.20258e-07)
(0.00367461 0.00188609 2.02465e-15 0.00362262 -3.11271e-17 0.00368951)
(0.0131912 0.00822516 -9.62241e-17 0.0129814 2.02719e-18 0.0132222)
(0.0118548 0.0074506 1.97315e-15 0.0116367 -4.06329e-17 0.0118891)
(0.013572 0.00834416 -2.66804e-15 0.0133543 3.7104e-17 0.0136121)
(0.0107364 0.00643425 1.47539e-15 0.0106205 -1.95792e-17 0.0107577)
(0.00580834 0.00341442 -2.93921e-17 0.00582953 1.28633e-17 0.00579622)
(0.0021852 0.00114753 2.67766e-16 0.00247581 -1.01061e-17 0.00208163)
(0.000525803 -9.75729e-05 5.69382e-17 0.00159348 1.44141e-16 0.000241772)
(-2.42509e-05 -0.00036446 1.35632e-17 0.00129651 -1.34366e-16 -0.000331401)
(-2.77015e-05 3.75769e-05 -1.38647e-17 0.000601617 -5.36258e-17 -0.000172595)
(-5.10312e-05 0.000166798 1.40344e-17 0.00037049 2.96645e-17 -0.000124503)
(-5.46359e-05 0.000143376 3.02224e-18 0.000270086 3.97082e-18 -0.000108596)
(-3.23408e-05 9.45886e-05 -1.25281e-18 0.000163235 -2.80961e-18 -6.72011e-05)
(-1.02751e-05 4.9761e-05 -4.65288e-18 7.83924e-05 -7.98388e-18 -2.86405e-05)
(-2.68946e-07 2.52421e-05 9.33386e-19 3.33206e-05 7.32104e-19 -8.13102e-06)
(1.59955e-06 1.29435e-05 -9.60482e-19 1.71203e-05 -8.38318e-19 -2.27473e-06)
(1.78208e-06 7.81544e-06 -4.3606e-19 9.53973e-06 -2.96874e-19 -2.50229e-07)
(9.70463e-07 5.04792e-06 9.10786e-20 7.47711e-06 -1.71372e-19 -5.51432e-07)
(6.19747e-07 3.65512e-06 -7.43397e-20 6.23353e-06 -8.08726e-20 -8.34374e-07)
(2.30553e-07 3.32005e-06 1.23234e-19 5.51887e-06 1.11241e-19 -1.11426e-06)
(4.39849e-08 2.11931e-06 -6.22387e-20 5.39559e-06 -1.01945e-19 -1.46007e-06)
(0.00358273 0.00185863 1.03705e-15 0.00354038 -1.21392e-17 0.00359261)
(0.0128296 0.00805981 1.04064e-16 0.0126833 -2.38152e-19 0.0128534)
(0.0114345 0.00715478 -2.15555e-16 0.0112443 1.50387e-18 0.011468)
(0.013193 0.00805977 -1.67866e-15 0.0129718 3.64934e-17 0.013238)
(0.0104783 0.00621983 -1.43895e-15 0.0103078 2.87234e-17 0.0105169)
(0.00570656 0.00337764 -8.65768e-16 0.00564234 1.39524e-17 0.00572682)
(0.00224146 0.00129341 -3.48203e-18 0.00225279 -3.50332e-19 0.00222621)
(0.000755797 0.000299564 -9.22789e-17 0.000977609 -1.15677e-17 0.000676434)
(0.000159233 -0.00027812 2.61751e-17 0.00103879 -7.22637e-17 -6.01832e-05)
(-1.96843e-05 -0.000303386 2.5825e-17 0.000754143 -4.61303e-17 -0.000222165)
(7.92403e-06 7.77978e-06 -1.28355e-17 0.000285742 1.49373e-17 -6.30317e-05)
(-1.52786e-05 7.8266e-05 6.69387e-18 0.000180026 1.25284e-18 -4.94638e-05)
(-2.74184e-05 7.46153e-05 2.5792e-18 0.00014711 5.86399e-18 -5.58485e-05)
(-2.34611e-05 5.89515e-05 7.05472e-18 0.000106088 1.33198e-17 -4.47225e-05)
(-1.37203e-05 3.95973e-05 1.14878e-19 6.45447e-05 -1.2436e-18 -2.72526e-05)
(-6.13788e-06 2.4541e-05 1.01863e-18 3.52501e-05 1.50447e-18 -1.40139e-05)
(-2.73345e-06 1.48117e-05 9.07479e-19 2.08579e-05 1.58235e-18 -7.92431e-06)
(-1.35223e-06 1.02253e-05 -2.06382e-19 1.31433e-05 -3.74731e-19 -4.56275e-06)
(-9.59434e-07 6.53831e-06 -1.34898e-19 1.05046e-05 -2.75698e-19 -4.03912e-06)
(-5.71219e-07 5.68092e-06 3.68052e-20 7.46446e-06 -9.11987e-21 -2.65046e-06)
(-5.09167e-07 3.97203e-06 -1.41223e-19 6.99192e-06 -2.27823e-19 -2.86654e-06)
(-7.72527e-07 2.05775e-06 -9.13699e-20 5.82577e-06 -2.13804e-19 -1.93745e-06)
(0.00348506 0.00181373 1.79471e-15 0.00344544 -2.10017e-17 0.00349207)
(0.0124229 0.00782586 -2.60209e-15 0.0123149 2.49056e-17 0.0124408)
(0.0110187 0.00685233 2.87111e-15 0.0108908 -2.66861e-17 0.0110467)
(0.0128393 0.00779774 -5.89519e-16 0.0126458 3.35418e-18 0.0128841)
(0.0102511 0.00608257 -1.00983e-15 0.0100727 2.68407e-17 0.0102906)
(0.00559442 0.00333784 9.8809e-18 0.00547902 9.45633e-19 0.00561898)
(0.00221835 0.0013256 3.47334e-16 0.00217427 -6.06109e-18 0.00222174)
(0.00080319 0.000417297 4.99901e-17 0.000816841 1.88317e-18 0.000790308)
(0.000326643 3.28675e-05 -6.31469e-17 0.000543159 -1.42313e-17 0.000256784)
(1.81964e-05 -0.000311846 1.02293e-17 0.000771859 -5.88769e-17 -0.000164894)
(5.03637e-06 -0.00021446 -8.66216e-18 0.000407096 2.53479e-17 -0.000121342)
(2.21693e-05 -3.21847e-06 3.80083e-18 0.000121476 -9.24136e-19 -7.41666e-06)
(3.83112e-06 2.94075e-05 -1.32699e-18 7.57172e-05 -5.80307e-19 -9.41349e-06)
(-5.75011e-06 3.04764e-05 2.69601e-18 6.17287e-05 4.73113e-18 -1.70292e-05)
(-7.83954e-06 2.71043e-05 6.85557e-19 4.8259e-05 7.58014e-19 -1.7329e-05)
(-6.39004e-06 2.12512e-05 -1.53186e-18 3.39417e-05 -2.77635e-18 -1.31824e-05)
(-3.96648e-06 1.50289e-05 -5.69113e-19 2.20163e-05 -7.03245e-19 -8.61876e-06)
(-2.3318e-06 1.01504e-05 5.41004e-19 1.45954e-05 1.10306e-18 -5.67435e-06)
(-1.32592e-06 6.93117e-06 -2.32774e-21 9.97625e-06 -2.14152e-19 -3.77166e-06)
(-8.02668e-07 4.74459e-06 6.53803e-21 7.24581e-06 -1.58129e-20 -2.61386e-06)
(-4.52931e-07 3.09829e-06 2.80476e-20 5.39183e-06 -6.47251e-20 -1.74282e-06)
(2.242e-07 2.01601e-06 -6.17432e-20 3.78695e-06 -1.18147e-19 -1.12281e-06)
(-4.37679e-07 -1.52645e-07 1.40453e-20 4.60958e-06 -1.32844e-19 -1.27534e-06)
(0.00338687 0.00175761 6.1275e-16 0.0033461 -1.06751e-17 0.00339199)
(0.012 0.00755179 -4.15991e-16 0.0119114 1.53255e-18 0.0120154)
(0.0106435 0.00656876 4.78173e-16 0.0105524 -2.38263e-18 0.0106659)
(0.0125203 0.007571 -2.945e-15 0.0123919 2.85127e-17 0.012559)
(0.0100394 0.00598394 -3.75213e-17 0.00987664 3.50367e-18 0.0100761)
(0.00547092 0.00330313 3.41496e-16 0.0053425 -9.98417e-19 0.00549056)
(0.00217499 0.00132426 -3.38915e-17 0.00210219 -1.01498e-18 0.00218318)
(0.000802989 0.000434161 -5.44964e-17 0.000780793 2.98551e-18 0.000804619)
(0.000371627 0.000146341 -6.69366e-17 0.000393462 2.49152e-18 0.000359327)
(0.000155705 -5.84237e-05 -3.23871e-17 0.000399493 -2.72028e-17 8.28038e-05)
(-3.10716e-05 -0.000290046 -2.09056e-17 0.000566177 5.5074e-17 -0.000178923)
(2.12195e-05 -0.000129135 -4.77872e-18 0.000196475 -9.75702e-19 -4.91134e-05)
(2.25375e-05 -6.21487e-06 1.32984e-18 4.77738e-05 2.00254e-18 1.24134e-05)
(9.84328e-06 7.89632e-06 -1.40918e-18 2.74506e-05 -1.81418e-18 6.14512e-06)
(3.71102e-06 8.75696e-06 1.2114e-20 1.98677e-05 4.03801e-19 8.30322e-07)
(9.49124e-07 8.67134e-06 3.57338e-19 1.48543e-05 1.20322e-18 -1.31888e-06)
(-6.14266e-08 7.53317e-06 1.16536e-19 1.0984e-05 1.60475e-19 -1.75752e-06)
(-1.91024e-07 5.69449e-06 2.37808e-19 7.93761e-06 3.62276e-21 -1.50424e-06)
(-8.49047e-08 3.92021e-06 1.74784e-20 5.71999e-06 -7.63036e-20 -1.0772e-06)
(7.89918e-08 2.4531e-06 -7.31124e-22 4.09967e-06 -1.433e-20 -6.21726e-07)
(2.85725e-07 1.36256e-06 -3.1698e-20 2.87082e-06 -1.19971e-19 -1.83762e-07)
(4.62441e-07 5.80774e-07 2.47782e-20 1.99699e-06 2.29428e-20 1.88671e-07)
(8.69507e-07 -3.41992e-07 3.237e-20 1.82428e-06 -3.34547e-21 -3.2725e-08)
(4.93049e-07 -1.30409e-06 1.89795e-20 3.06994e-06 -1.82523e-21 -4.11686e-07)
(0.00329224 0.00168986 1.70027e-15 0.00324993 -2.1769e-17 0.00329679)
(0.0115901 0.00724572 -6.24839e-15 0.0115103 3.85503e-17 0.0116051)
(0.0103161 0.00632174 1.93544e-15 0.0102464 -1.43564e-17 0.0103373)
(0.0122531 0.00737795 2.22079e-15 0.0121609 -1.68146e-17 0.012284)
(0.00983714 0.00592852 -3.17781e-15 0.00972077 3.65407e-17 0.00986589)
(0.00533993 0.00326919 -1.43878e-15 0.00521538 2.7806e-17 0.00535397)
(0.00211698 0.00130585 1.29205e-17 0.00204096 -0 0.002125)
(0.000793792 0.000428833 9.78797e-17 0.000754545 -3.96938e-18 0.000799083)
(0.00037723 0.000167174 -2.23676e-17 0.000365648 2.64988e-18 0.000378036)
(0.000203448 5.97876e-05 -7.14153e-18 0.000234675 1.87032e-18 0.000188355)
(5.75679e-05 -0.000117216 6.38346e-18 0.000336927 4.83687e-19 -1.77087e-05)
(-3.11286e-05 -0.00022535 -1.01645e-18 0.000374005 1.87851e-18 -0.000139641)
(2.55297e-05 -6.57199e-05 1.00657e-19 8.5666e-05 6.33766e-19 -9.14847e-06)
(1.81597e-05 -5.52555e-06 6.98441e-20 1.76412e-05 2.61916e-20 1.56559e-05)
(9.09857e-06 8.58828e-07 3.56773e-19 9.76844e-06 -5.58548e-21 8.59459e-06)
(4.93811e-06 1.78064e-06 2.70703e-19 5.82811e-06 1.78975e-19 4.86892e-06)
(2.78915e-06 2.23705e-06 -1.96795e-19 3.74727e-06 -4.22138e-20 2.96047e-06)
(1.74111e-06 2.09409e-06 4.03628e-20 2.5848e-06 1.73055e-19 1.93481e-06)
(1.20256e-06 1.53649e-06 -3.77949e-20 1.96177e-06 2.32439e-20 1.30853e-06)
(9.43377e-07 9.28208e-07 1.98084e-20 1.53914e-06 1.092e-20 9.68386e-07)
(8.3167e-07 4.35761e-07 4.73909e-20 1.22712e-06 1.07297e-20 8.13734e-07)
(8.11916e-07 1.05499e-07 -3.99188e-22 9.99148e-07 -5.10961e-21 7.60875e-07)
(7.42535e-07 -1.99018e-07 -1.19454e-20 1.12587e-06 4.22491e-21 6.14473e-07)
(9.86417e-07 -1.57941e-06 -1.77303e-20 2.0722e-06 -1.60057e-20 -1.76234e-07)
(1.09312e-06 -1.34945e-06 1.285e-20 2.27933e-06 -3.62277e-20 2.46904e-07)
(0.00320499 0.00161563 9.40726e-16 0.00316427 -1.09913e-17 0.00321022)
(0.011225 0.00691889 4.60025e-16 0.0111446 1.27015e-18 0.0112425)
(0.010042 0.0061113 2.5938e-15 0.0099807 -1.47148e-17 0.0100647)
(0.0120305 0.00724722 -2.38427e-15 0.0119546 1.66192e-17 0.0120557)
(0.00965024 0.00588743 1.29279e-15 0.00955628 -1.29084e-17 0.00966848)
(0.00520036 0.00322488 -5.38844e-16 0.00510418 1.07539e-17 0.00520699)
(0.00205398 0.00127907 2.49036e-16 0.00198216 -6.99522e-18 0.00206183)
(0.000777734 0.000420543 8.29542e-17 0.00073717 -3.56132e-18 0.000783016)
(0.000377152 0.000173616 -2.01058e-17 0.00035375 1.9874e-18 0.000380934)
(0.000210877 8.47268e-05 1.30366e-17 0.000203401 1.43584e-18 0.000209742)
(0.000110416 3.66204e-06 3.23744e-18 0.000158606 2.45876e-18 9.25103e-05)
(1.60861e-06 -0.000144468 4.80382e-19 0.000290062 8.92139e-19 -7.17411e-05)
(-1.38194e-05 -0.000146141 -1.4124e-18 0.000221095 8.07332e-18 -8.58461e-05)
(2.14153e-05 -2.82827e-05 -2.37937e-18 3.44131e-05 7.18207e-19 6.6142e-06)
(1.26503e-05 -3.39845e-06 5.36509e-19 6.98664e-06 -1.15776e-19 1.26271e-05)
(6.5579e-06 -4.44784e-07 -3.64892e-19 4.42332e-06 1.71054e-19 6.812e-06)
(3.72045e-06 5.29037e-07 -4.04971e-19 2.47398e-06 1.89278e-21 4.22857e-06)
(2.40083e-06 8.89641e-07 1.18428e-19 1.19881e-06 1.11137e-20 3.0259e-06)
(1.6936e-06 7.54168e-07 4.83866e-20 7.18408e-07 -5.63776e-21 2.19725e-06)
(1.29045e-06 4.7099e-07 -5.41202e-20 6.0826e-07 -6.89241e-21 1.60831e-06)
(1.05433e-06 1.91529e-07 -3.42285e-20 6.36629e-07 5.16542e-21 1.21008e-06)
(9.09194e-07 1.37288e-08 2.96274e-20 7.16792e-07 -2.2556e-21 9.58533e-07)
(8.2707e-07 -8.98479e-08 8.76045e-21 8.24776e-07 1.29124e-21 8.01694e-07)
(7.0943e-07 -8.77836e-07 1.07911e-20 1.64994e-06 1.78156e-20 2.63675e-07)
(1.1699e-06 -1.95133e-06 2.75618e-20 2.34917e-06 -3.28284e-20 -1.81529e-07)
(1.40629e-06 -8.29125e-07 2.29766e-21 1.90077e-06 -9.89894e-21 8.57333e-07)
(0.00312795 0.00154743 1.72444e-15 0.0030959 -1.77644e-17 0.00313414)
(0.0109275 0.00662355 -2.65754e-15 0.0108535 1.84333e-17 0.0109481)
(0.0098176 0.00594802 2.30393e-15 0.00975524 -1.39339e-17 0.00984175)
(0.011839 0.00718411 1.75124e-15 0.0117589 -1.44745e-17 0.0118593)
(0.00946094 0.00584597 -2.87063e-15 0.00937331 2.47738e-17 0.00946935)
(0.00506579 0.00316492 -5.11067e-16 0.00498721 7.91112e-18 0.00506734)
(0.00198696 0.00123907 1.57283e-16 0.00193442 4.60312e-19 0.00199401)
(0.000760543 0.00041087 -1.29852e-16 0.0007211 4.26582e-18 0.000765677)
(0.000373426 0.000173046 -2.54713e-17 0.000348235 1.36362e-18 0.000377345)
(0.000211058 9.14396e-05 4.09364e-18 0.000195942 1.03212e-18 0.000212968)
(0.000121081 3.51846e-05 8.87189e-19 0.000119095 -9.09486e-20 0.000119294)
(5.48254e-05 -3.26654e-05 -1.46113e-17 0.000126684 3.98891e-18 3.22727e-05)
(-2.05273e-05 -0.000141213 -5.73456e-18 0.000241486 1.28077e-17 -8.65854e-05)
(8.69389e-07 -7.68325e-05 -1.19634e-18 0.000112317 4.9221e-18 -3.99635e-05)
(1.35248e-05 -9.19213e-06 2.12987e-19 1.64987e-05 -1.2003e-18 8.12391e-06)
(7.56736e-06 -1.50164e-06 -1.67746e-20 5.17637e-06 -3.05287e-20 7.73947e-06)
(4.21543e-06 -1.10257e-08 5.2269e-20 2.90513e-06 -8.68372e-22 4.52646e-06)
(2.61628e-06 5.71172e-07 2.37839e-20 1.46753e-06 -1.43124e-20 3.09491e-06)
(1.85049e-06 6.98375e-07 1.88875e-20 6.52075e-07 -3.31305e-20 2.35752e-06)
(1.39447e-06 5.1804e-07 -9.50634e-21 4.53876e-07 1.29302e-20 1.77887e-06)
(1.11931e-06 2.67365e-07 -4.79081e-20 4.97002e-07 1.8581e-20 1.34535e-06)
(9.43305e-07 6.34827e-08 -1.85689e-20 6.23287e-07 5.94691e-22 1.04647e-06)
(8.4979e-07 -5.05136e-08 -1.91033e-22 7.40021e-07 1.21823e-21 8.65389e-07)
(7.4684e-07 -4.12958e-07 -6.38134e-21 1.17472e-06 1.72136e-21 5.55861e-07)
(8.68443e-07 -1.58295e-06 4.45195e-20 2.25965e-06 -4.04623e-20 -1.08733e-07)
(1.34075e-06 -1.42645e-06 -3.03222e-21 2.24986e-06 2.94093e-20 3.17917e-07)
(1.7527e-06 -4.65643e-07 3.88253e-20 2.04823e-06 -2.93366e-21 1.42341e-06)
(0.00306236 0.00150348 1.38125e-15 0.00304418 -1.1624e-17 0.00306921)
(0.0107075 0.00640168 1.41928e-16 0.0106443 -1.36891e-20 0.0107272)
(0.00962856 0.00585177 1.89427e-16 0.00956377 -1.22108e-18 0.00965107)
(0.0116512 0.00715873 -1.88562e-15 0.0115566 1.65966e-17 0.0116661)
(0.00925348 0.00578483 1.25582e-15 0.0091651 -1.03328e-17 0.00925582)
(0.0049307 0.00308364 -7.49832e-16 0.00486326 7.24106e-18 0.0049308)
(0.00192876 0.00119321 2.97305e-16 0.00189008 -3.81371e-18 0.00193492)
(0.000741907 0.000400643 7.10141e-17 0.000711258 -2.13961e-18 0.000746315)
(0.000368924 0.00017224 -6.43293e-17 0.000343611 1.79229e-18 0.000372953)
(0.000209515 9.22013e-05 1.33398e-17 0.000192578 1.20856e-18 0.000212249)
(0.000121254 4.10992e-05 -1.38584e-17 0.000113884 -6.77855e-19 0.000122682)
(6.93567e-05 7.6713e-06 9.8113e-18 7.4576e-05 -8.7496e-20 6.58293e-05)
(1.98375e-05 -5.54206e-05 -1.04162e-17 0.00012183 6.83118e-18 -8.07537e-06)
(-1.86142e-05 -0.000111398 -4.07988e-18 0.00017043 -3.86718e-20 -6.98637e-05)
(6.56648e-06 -3.2324e-05 3.42575e-19 5.05023e-05 4.49517e-19 -1.25486e-05)
(7.58024e-06 -1.736e-06 -4.0896e-19 1.04305e-05 -2.60337e-19 5.67028e-06)
(4.32622e-06 -1.57193e-07 -1.9444e-19 4.32083e-06 -3.68355e-20 4.44486e-06)
(2.73495e-06 3.20463e-07 4.2975e-20 2.08937e-06 1.03815e-20 3.01494e-06)
(1.90162e-06 6.25852e-07 7.64233e-20 9.20233e-07 -3.47428e-20 2.33266e-06)
(1.42381e-06 6.03366e-07 3.5251e-20 5.0919e-07 6.37687e-21 1.83024e-06)
(1.14214e-06 3.91615e-07 2.63642e-20 4.76644e-07 -3.44567e-21 1.41119e-06)
(9.63039e-07 1.75283e-07 -1.89594e-20 5.93849e-07 -5.2627e-21 1.09131e-06)
(8.55133e-07 1.42304e-08 3.55666e-21 7.24155e-07 -2.20154e-22 8.88352e-07)
(7.76964e-07 -1.43416e-07 1.09001e-20 9.17028e-07 3.07096e-21 7.29728e-07)
(7.84479e-07 -1.14063e-06 8.7443e-21 1.8746e-06 -5.27762e-21 9.78048e-08)
(1.12961e-06 -1.59038e-06 -1.31896e-20 2.40878e-06 -9.4037e-21 4.5367e-08)