/*--------------------------------*- C++ -*----------------------------------*\
| =========                 |                                                 |
| \\      /  F ield         | OpenFOAM: The Open Source CFD Toolbox           |
|  \\    /   O peration     | Version:  v2012                                 |
|   \\  /    A nd           | Website:  www.openfoam.com                      |
|    \\/     M anipulation  |                                                 |
\*---------------------------------------------------------------------------*/
FoamFile
{
    version     2.0;
    format      ascii;
    class       volVectorField;
    location    "12000";
    object      U;
}
// * * * * * * * * * * * * * * * * * * * * * * * * * * * * * * * * * * * * * //

dimensions      [0 1 -1 0 0 0 0];


internalField   nonuniform List<vector> 
27324
(
(500.962 -0.131093 0)
(496.091 -0.131721 0)
(506.809 -0.430066 0)
(493.157 -0.123462 0)
(502.432 -0.434304 0)
(514.791 -0.797506 0)
(490.094 -0.11577 0)
(499.798 -0.407631 0)
(510.805 -0.806216 0)
(523.104 -1.24668 0)
(487.439 -0.0738861 0)
(497.051 -0.385544 0)
(508.398 -0.756961 0)
(519.402 -1.26231 0)
(530.106 -1.78885 0)
(485.796 -0.0382445 0)
(494.679 -0.251308 0)
(505.892 -0.715603 0)
(517.167 -1.18579 0)
(526.53 -1.8151 0)
(535.169 -2.43281 0)
(484.883 -0.0257868 0)
(493.228 -0.130904 0)
(503.732 -0.468911 0)
(514.874 -1.12193 0)
(524.386 -1.70504 0)
(531.576 -2.47253 0)
(538.524 -3.1862 0)
(484.183 -0.0345138 0)
(492.449 -0.0877056 0)
(502.42 -0.2455 0)
(512.917 -0.741186 0)
(522.182 -1.61083 0)
(529.368 -2.31632 0)
(534.879 -3.24466 0)
(540.875 -4.06435 0)
(483.539 0.0235889 0)
(491.888 -0.11473 0)
(501.731 -0.167968 0)
(511.717 -0.390443 0)
(520.264 -1.07003 0)
(527.107 -2.18407 0)
(532.668 -3.02731 0)
(537.237 -4.15624 0)
(542.518 -5.08176 0)
(486.427 0.277312 0)
(491.379 0.0552721 0)
(501.243 -0.21285 0)
(511.05 -0.26561 0)
(519.027 -0.56888 0)
(525.163 -1.46293 0)
(530.455 -2.84583 0)
(535.019 -3.85556 0)
(538.868 -5.22634 0)
(543.591 -6.24799 0)
(500.439 1.04269 0)
(494.345 0.844787 0)
(500.787 0.105461 0)
(510.541 -0.330684 0)
(518.305 -0.381594 0)
(523.922 -0.788029 0)
(528.555 -1.93121 0)
(532.833 -3.60551 0)
(536.63 -4.80526 0)
(539.968 -6.47949 0)
(544.226 -7.57318 0)
(528.171 1.77308 0)
(507.139 3.25046 0)
(503.433 1.60592 0)
(510.098 0.177374 0)
(517.801 -0.458333 0)
(523.238 -0.52821 0)
(527.275 -1.06235 0)
(530.952 -2.49188 0)
(534.483 -4.45837 0)
(537.714 -5.89372 0)
(540.674 -7.94498 0)
(544.47 -9.04137 0)
(553.773 1.2186 0)
(532.843 5.66136 0)
(514.924 6.04065 0)
(512.506 2.54793 0)
(517.458 0.276937 0)
(522.818 -0.58216 0)
(526.523 -0.713555 0)
(529.6 -1.40556 0)
(532.638 -3.16949 0)
(535.61 -5.40283 0)
(538.424 -7.13725 0)
(541.032 -9.61711 0)
(544.414 -10.6315 0)
(564.875 0.2849 0)
(556.956 4.0197 0)
(538.339 10.315 0)
(523.822 9.4041 0)
(520.339 3.76667 0)
(522.616 0.405617 0)
(526.075 -0.674725 0)
(528.778 -0.953969 0)
(531.179 -1.83323 0)
(533.822 -3.9964 0)
(536.381 -6.42838 0)
(538.798 -8.56098 0)
(541.187 -11.486 0)
(544.151 -12.2828 0)
(566.983 0.0456475 0)
(567.656 0.970204 0)
(560.517 7.25032 0)
(545.068 15.8496 0)
(531.752 13.5328 0)
(526.018 5.36796 0)
(525.996 0.625104 0)
(528.318 -0.703531 0)
(530.293 -1.22992 0)
(532.259 -2.37819 0)
(534.687 -4.99755 0)
(536.781 -7.54232 0)
(539.068 -10.2233 0)
(541.242 -13.4055 0)
(543.689 -13.9673 0)
(567.27 0.00660155 0)
(569.72 0.157669 0)
(570.741 1.74828 0)
(565.061 11.1599 0)
(551.53 22.3479 0)
(537.512 18.5282 0)
(529.958 7.56707 0)
(528.677 1.03652 0)
(529.865 -0.680477 0)
(531.335 -1.51223 0)
(533.027 -3.11104 0)
(535.186 -6.17604 0)
(537.053 -8.77826 0)
(539.352 -12.1599 0)
(541.166 -15.3226 0)
(543.173 -15.5931 0)
(567.064 -0.0114306 0)
(570.017 0.0152829 0)
(572.809 0.287733 0)
(574.695 2.73683 0)
(570.129 15.787 0)
(556.281 29.7359 0)
(541.989 24.4817 0)
(533.285 10.6508 0)
(530.575 1.89659 0)
(531.013 -0.612366 0)
(532.033 -1.7282 0)
(533.53 -4.10873 0)
(535.547 -7.45303 0)
(537.251 -10.2279 0)
(539.625 -14.4677 0)
(541.134 -16.8714 0)
(542.76 -17.2682 0)
(566.771 -0.0166993 0)
(569.921 -0.0398873 0)
(573.151 0.0158601 0)
(576.78 0.453736 0)
(579.395 3.97409 0)
(574.209 21.2587 0)
(559.276 37.8186 0)
(546.036 31.5068 0)
(537.09 15.1528 0)
(532.613 3.65346 0)
(531.914 -0.367198 0)
(532.45 -1.80049 0)
(534.019 -5.37687 0)
(535.752 -8.76417 0)
(537.515 -12.132 0)
(539.968 -16.6495 0)
(540.867 -18.4816 0)
(542.214 -19.2138 0)
(566.462 -0.0178629 0)
(569.757 -0.0586665 0)
(573.185 -0.0785478 0)
(577.155 0.013574 0)
(581.468 0.664357 0)
(583.864 5.59541 0)
(576.343 27.5038 0)
(561.226 46.3243 0)
(549.908 39.6972 0)
(541.269 21.7483 0)
(535.146 7.20431 0)
(532.975 0.527556 0)
(532.898 -1.68573 0)
(534.578 -6.61752 0)
(535.992 -9.9445 0)
(538.104 -14.5892 0)
(539.942 -18.827 0)
(540.501 -19.4769 0)
(542.138 -21.5671 0)
(566.17 -0.0174579 0)
(569.567 -0.0635885 0)
(573.031 -0.11226 0)
(577.189 -0.123716 0)
(581.788 0.0111634 0)
(586.113 0.948365 0)
(587.017 7.7514 0)
(576.941 34.5079 0)
(562.449 54.7528 0)
(553.738 48.8182 0)
(546.151 31.1917 0)
(538.828 14.0441 0)
(534.787 3.5998 0)
(534 -1.01828 0)
(535.528 -7.18962 0)
(536.69 -10.4847 0)
(539.104 -16.9454 0)
(540.361 -19.5706 0)
(541.213 -19.6332 0)
(542.91 -21.7732 0)
(565.94 -0.0125248 0)
(569.39 -0.0605374 0)
(572.847 -0.120468 0)
(577.01 -0.173404 0)
(581.762 -0.171737 0)
(586.442 0.0246789 0)
(589.779 1.34465 0)
(588.717 10.6901 0)
(576.15 42.1417 0)
(563.207 62.4667 0)
(557.202 58.1423 0)
(551.515 43.5723 0)
(544.586 26.0843 0)
(539.233 11.7695 0)
(537.386 2.96832 0)
(538.221 -4.99952 0)
(538.893 -8.89413 0)
(542.866 -16.8223 0)
(541.046 -13.0586 0)
(547.024 -19.1228 0)
(543.598 -8.45067 0)
(565.79 -0.0104785 0)
(569.237 -0.0438119 0)
(572.65 -0.113012 0)
(576.788 -0.185659 0)
(581.533 -0.243634 0)
(586.329 -0.221106 0)
(590.232 0.0534568 0)
(592.418 1.95463 0)
(588.976 14.7939 0)
(574.33 50.0054 0)
(563.644 68.7816 0)
(559.95 66.3889 0)
(556.572 57.1261 0)
(552.074 43.6539 0)
(547.613 29.0603 0)
(545.635 17.105 0)
(546.059 7.70843 0)
(547.671 2.421 0)
(550.502 0.443939 0)
(554.044 2.84971 0)
(558.343 12.7895 0)
(556.497 21.654 0)
(565.681 -0.0100787 0)
(569.129 -0.0346621 0)
(572.462 -0.0819675 0)
(576.547 -0.172226 0)
(581.288 -0.259841 0)
(586.073 -0.326637 0)
(590.258 -0.278943 0)
(593.071 0.0930321 0)
(593.785 2.93264 0)
(588.018 20.5418 0)
(571.94 57.4822 0)
(563.766 73.1711 0)
(561.751 72.3075 0)
(560.312 68.2328 0)
(558.745 61.2699 0)
(557.537 51.6773 0)
(557.776 41.8799 0)
(559.387 34.147 0)
(562.072 30.5366 0)
(565.397 32.0517 0)
(568.316 37.5571 0)
(570.575 46.0897 0)
(561.192 59.1584 0)
(565.601 -0.010583 0)
(569.035 -0.0313197 0)
(572.318 -0.0634253 0)
(576.314 -0.12412 0)
(581.037 -0.241272 0)
(585.871 -0.349402 0)
(590.124 -0.425583 0)
(593.13 -0.344227 0)
(594.712 0.196812 0)
(594.575 4.59639 0)
(585.857 28.2531 0)
(569.072 63.8319 0)
(563.732 75.5601 0)
(562.587 75.5178 0)
(562.314 74.0049 0)
(562.506 70.7685 0)
(563.728 65.3632 0)
(565.951 58.9742 0)
(568.646 53.779 0)
(571.186 51.0959 0)
(572.969 51.1473 0)
(573.56 52.5402 0)
(572.124 55.8277 0)
(555.337 82.9792 0)
(565.539 -0.0109748 0)
(568.949 -0.0313232 0)
(572.188 -0.0552386 0)
(576.128 -0.0949147 0)
(580.815 -0.174278 0)
(585.698 -0.325838 0)
(589.991 -0.457092 0)
(592.98 -0.541546 0)
(594.802 -0.404087 0)
(596.082 0.412407 0)
(594.656 7.53127 0)
(582.023 37.8307 0)
(566.429 68.4692 0)
(563.354 76.3656 0)
(562.852 76.2486 0)
(562.935 75.3057 0)
(564.164 72.8868 0)
(566.69 68.415 0)
(569.67 63.0156 0)
(572.293 58.209 0)
(573.863 55.0947 0)
(574.224 53.7194 0)
(573.611 53.9588 0)
(566.75 66.8493 0)
(545.718 98.6513 0)
(565.471 -0.0113148 0)
(568.854 -0.0331247 0)
(572.052 -0.0529812 0)
(575.972 -0.0809749 0)
(580.658 -0.133033 0)
(585.596 -0.238648 0)
(589.856 -0.430762 0)
(592.83 -0.577509 0)
(594.645 -0.66448 0)
(596.269 -0.457079 0)
(597.055 0.884513 0)
(593.345 12.6655 0)
(577.118 48.3608 0)
(564.341 71.103 0)
(562.947 75.7851 0)
(562.656 75.8359 0)
(563.119 74.5091 0)
(564.903 71.5414 0)
(567.839 66.4924 0)
(570.938 60.9557 0)
(573.184 56.4954 0)
(574.25 53.8804 0)
(573.956 53.2632 0)
(570.86 58.656 0)
(555.55 83.4589 0)
(539.057 106.576 0)
(565.385 -0.00956258 0)
(568.731 -0.0331249 0)
(571.895 -0.0561585 0)
(575.842 -0.0786271 0)
(580.569 -0.113833 0)
(585.565 -0.185736 0)
(589.722 -0.318403 0)
(592.675 -0.547644 0)
(594.485 -0.707708 0)
(596.21 -0.792824 0)
(597.386 -0.494835 0)
(597.404 1.96832 0)
(590.206 21.0035 0)
(572.073 58.3341 0)
(562.877 72.2101 0)
(562.45 74.6674 0)
(562.522 74.7614 0)
(563.513 73.2026 0)
(565.974 68.8971 0)
(569.207 63.0785 0)
(572.019 57.5647 0)
(573.561 53.8727 0)
(573.976 52.7767 0)
(573.051 54.0632 0)
(562.335 72.2979 0)
(544.773 98.4039 0)
(535.613 110.727 0)
(565.284 -0.00579982 0)
(568.59 -0.0284113 0)
(571.732 -0.0562677 0)
(575.737 -0.0830225 0)
(580.542 -0.112484 0)
(585.564 -0.160604 0)
(589.608 -0.247974 0)
(592.528 -0.409004 0)
(594.313 -0.679452 0)
(596.052 -0.84987 0)
(597.329 -0.912172 0)
(598.125 -0.455793 0)
(596.861 4.48209 0)
(584.97 32.8058 0)
(567.928 66.318 0)
(562.369 73.201 0)
(562.217 74.5051 0)
(562.653 74.1551 0)
(564.304 71.2522 0)
(567.323 65.7741 0)
(570.558 59.6067 0)
(572.877 54.7865 0)
(573.732 52.5455 0)
(573.654 52.4715 0)
(568.374 61.9025 0)
(550.343 90.5106 0)
(538.369 107.216 0)
(533.805 112.993 0)
(565.173 -0.000646656 0)
(568.473 -0.0197642 0)
(571.59 -0.0500635 0)
(575.666 -0.0847301 0)
(580.536 -0.122666 0)
(585.563 -0.155351 0)
(589.5 -0.212988 0)
(592.411 -0.316882 0)
(594.14 -0.518058 0)
(595.897 -0.825304 0)
(597.166 -0.997403 0)
(598.16 -0.992895 0)
(598.444 -0.147571 0)
(594.958 9.96409 0)
(578.053 46.3848 0)
(565.224 71.803 0)
(562.215 74.4083 0)
(562.305 74.5663 0)
(563.135 73.0498 0)
(565.515 68.673 0)
(568.957 62.2429 0)
(571.873 56.3948 0)
(573.501 52.9376 0)
(573.751 52.021 0)
(571.884 55.492 0)
(557.549 79.7286 0)
(541.252 103.473 0)
(535.194 111.401 0)
(532.559 114.266 0)
(565.097 0.00466846 0)
(568.397 -0.00363562 0)
(571.505 -0.0376375 0)
(575.617 -0.0771967 0)
(580.533 -0.124941 0)
(585.516 -0.163014 0)
(589.4 -0.202778 0)
(592.316 -0.268674 0)
(593.992 -0.403326 0)
(595.728 -0.645064 0)
(597.005 -0.983538 0)
(598.061 -1.14631 0)
(598.631 -1.03753 0)
(598.342 0.928022 0)
(590.615 20.3089 0)
(571.176 58.4765 0)
(563.671 74.1802 0)
(562.246 74.7333 0)
(562.48 73.9774 0)
(563.91 71.1869 0)
(567.174 65.1673 0)
(570.575 58.5822 0)
(572.915 53.7443 0)
(573.752 51.9516 0)
(573.35 52.6572 0)
(564.393 68.7863 0)
(545.858 97.2518 0)
(536.472 109.833 0)
(533.413 113.304 0)
(531.493 115.169 0)
(565.055 0.0108841 0)
(568.383 0.0102293 0)
(571.472 -0.00778632 0)
(575.587 -0.057626 0)
(580.519 -0.1111 0)
(585.403 -0.16858 0)
(589.302 -0.207565 0)
(592.228 -0.255135 0)
(593.873 -0.339503 0)
(595.576 -0.505237 0)
(596.843 -0.797344 0)
(597.944 -1.15354 0)
(598.597 -1.28779 0)
(598.934 -1.00815 0)
(597.152 4.23227 0)
(583.402 35.4499 0)
(566.227 66.3471 0)
(562.484 73.8663 0)
(562.16 74.1856 0)
(562.749 72.8608 0)
(565.346 68.0871 0)
(569.005 61.2119 0)
(572.038 55.2411 0)
(573.553 52.0642 0)
(573.73 51.8433 0)
(569.562 59.9117 0)
(551.882 88.7538 0)
(538.596 107.147 0)
(534.046 112.556 0)
(532.18 114.354 0)
(530.512 116.144 0)
(565.049 0.0146257 0)
(568.423 0.0269269 0)
(571.526 0.0139561 0)
(575.567 -0.018223 0)
(580.476 -0.0777463 0)
(585.275 -0.14787 0)
(589.215 -0.216852 0)
(592.129 -0.261896 0)
(593.777 -0.319792 0)
(595.455 -0.423232 0)
(596.694 -0.636265 0)
(597.819 -0.979021 0)
(598.492 -1.31792 0)
(598.963 -1.37761 0)
(598.858 -0.537482 0)
(593.73 12.4108 0)
(575.051 51.6953 0)
(563.517 70.6433 0)
(561.994 73.7666 0)
(562.14 73.5969 0)
(563.719 70.6484 0)
(567.237 64.1894 0)
(570.833 57.3016 0)
(573.194 52.8129 0)
(573.778 51.7253 0)
(572.467 54.6309 0)
(558.81 78.3763 0)
(541.705 103.082 0)
(535.013 111.388 0)
(532.592 113.868 0)
(531.186 115.305 0)
(529.696 117.566 0)
(565.107 0.0172686 0)
(568.556 0.0374122 0)
(571.652 0.0413552 0)
(575.653 0.0175047 0)
(580.401 -0.0327086 0)
(585.147 -0.102196 0)
(589.147 -0.187209 0)
(592.023 -0.271721 0)
(593.697 -0.324554 0)
(595.359 -0.396875 0)
(596.58 -0.532263 0)
(597.677 -0.801284 0)
(598.37 -1.17903 0)
(598.886 -1.47283 0)
(599.086 -1.40424 0)
(598.007 1.43871 0)
(586.971 27.6774 0)
(568.262 64.2227 0)
(562.37 73.315 0)
(561.944 73.7841 0)
(562.565 72.4764 0)
(565.412 67.2693 0)
(569.347 59.8979 0)
(572.473 54.1006 0)
(573.782 51.7214 0)
(573.642 52.4711 0)
(565.321 67.9084 0)
(546.169 97.0311 0)
(536.363 109.708 0)
(533.129 113.233 0)
(531.558 114.854 0)
(530.339 116.746 0)
(529.191 119.031 0)
(565.206 0.0161794 0)
(568.718 0.0447918 0)
(571.817 0.0606626 0)
(575.696 0.0589849 0)
(580.333 0.0286834 0)
(585.044 -0.0363773 0)
(589.105 -0.132305 0)
(591.92 -0.235366 0)
(593.636 -0.332162 0)
(595.278 -0.398363 0)
(596.491 -0.489782 0)
(597.548 -0.669113 0)
(598.208 -1.00409 0)
(598.781 -1.39749 0)
(599.064 -1.59111 0)
(598.917 -1.20479 0)
(595.445 8.04769 0)
(577.509 46.3972 0)
(564.347 70.7642 0)
(561.931 73.8223 0)
(561.99 73.3756 0)
(563.748 70.0654 0)
(567.616 62.9102 0)
(571.481 55.9862 0)
(573.529 52.3136 0)
(573.963 51.9631 0)
(570.152 59.5305 0)
(551.989 88.7758 0)
(538.365 107.157 0)
(533.783 112.455 0)
(531.972 114.362 0)
(530.726 116.27 0)
(529.722 118.295 0)
(528.753 119.521 0)
(565.326 0.0116107 0)
(568.885 0.0441663 0)
(571.958 0.0758199 0)
(575.734 0.0900614 0)
(580.247 0.0909546 0)
(585.016 0.0414283 0)
(589.085 -0.0494975 0)
(591.835 -0.168655 0)
(593.593 -0.287041 0)
(595.21 -0.404163 0)
(596.417 -0.480831 0)
(597.435 -0.603835 0)
(598.054 -0.841836 0)
(598.633 -1.25192 0)
(598.979 -1.60237 0)
(599.008 -1.64975 0)
(598.455 0.100934 0)
(588.871 23.1899 0)
(569.125 61.294 0)
(562.437 72.8201 0)
(561.795 73.5645 0)
(562.504 72.1198 0)
(565.765 66.1055 0)
(570.147 58.4894 0)
(573.085 53.24 0)
(574.031 51.903 0)
(572.859 54.4616 0)
(558.622 78.7978 0)
(541.299 103.324 0)
(534.669 111.384 0)
(532.392 113.87 0)
(531.142 115.768 0)
(530.079 117.784 0)
(529.139 118.869 0)
(527.657 118.268 0)
(565.408 0.00541595 0)
(569.021 0.0316963 0)
(572.065 0.076544 0)
(575.769 0.115784 0)
(580.225 0.132397 0)
(585.034 0.120172 0)
(589.148 0.0518377 0)
(591.778 -0.0643238 0)
(593.57 -0.205131 0)
(595.152 -0.347194 0)
(596.351 -0.475951 0)
(597.337 -0.576765 0)
(597.929 -0.739908 0)
(598.478 -1.06223 0)
(598.853 -1.51528 0)
(598.97 -1.78704 0)
(599 -1.60444 0)
(596.158 5.972 0)
(578.62 44.1007 0)
(564.286 69.4845 0)
(561.732 73.4574 0)
(561.842 73.1908 0)
(563.996 69.157 0)
(568.544 61.4712 0)
(572.282 54.8561 0)
(574.038 52.0117 0)
(573.936 52.2782 0)
(564.953 68.5911 0)
(545.441 97.7499 0)
(535.918 109.846 0)
(532.874 113.31 0)
(531.525 115.317 0)
(530.492 117.179 0)
(529.415 118.369 0)
(527.822 117.554 0)
(526.346 114.89 0)
(565.423 -0.0052967 0)
(569.078 0.00661734 0)
(572.12 0.0492102 0)
(575.828 0.118842 0)
(580.24 0.158908 0)
(585.19 0.175719 0)
(589.207 0.145563 0)
(591.759 0.0641553 0)
(593.555 -0.0766766 0)
(595.107 -0.246844 0)
(596.296 -0.408917 0)
(597.253 -0.551352 0)
(597.836 -0.679549 0)
(598.347 -0.915034 0)
(598.694 -1.33049 0)
(598.876 -1.79655 0)
(599.025 -1.89634 0)
(598.609 -0.546378 0)
(589.318 21.6756 0)
(569.375 61.0979 0)
(562.218 72.7475 0)
(561.647 73.5021 0)
(562.603 71.6344 0)
(566.733 64.8019 0)
(571.174 56.9968 0)
(573.708 52.4612 0)
(574.205 51.6682 0)
(569.835 60.1373 0)
(550.862 90.1677 0)
(537.719 107.581 0)
(533.474 112.61 0)
(531.892 114.889 0)
(530.894 116.574 0)
(529.743 117.74 0)
(528.026 116.974 0)
(526.121 114.064 0)
(525.201 109.221 0)
(565.373 -0.0125754 0)
(569.049 -0.0135163 0)
(572.13 0.0162042 0)
(575.873 0.0701536 0)
(580.365 0.163814 0)
(585.326 0.204766 0)
(589.298 0.216668 0)
(591.755 0.183366 0)
(593.618 0.0795814 0)
(595.082 -0.102265 0)
(596.251 -0.287588 0)
(597.188 -0.467566 0)
(597.777 -0.624144 0)
(598.25 -0.803498 0)
(598.55 -1.12681 0)
(598.761 -1.63182 0)
(598.971 -1.97685 0)
(599.047 -1.87889 0)
(596.066 5.54846 0)
(578.418 44.374 0)
(563.979 69.8608 0)
(561.622 73.5579 0)
(561.813 73.2087 0)
(564.877 68.1721 0)
(569.726 59.6995 0)
(573.186 53.472 0)
(574.24 51.5596 0)
(572.758 54.717 0)
(557.181 80.8579 0)
(540.314 104.24 0)
(534.271 111.664 0)
(532.264 114.449 0)
(531.275 115.987 0)
(530.09 117.042 0)
(528.251 116.234 0)
(526.073 113.366 0)
(524.448 108.314 0)
(524.317 101.732 0)
(565.22 -0.0165809 0)
(568.898 -0.0340342 0)
(571.971 -0.0217995 0)
(575.891 0.0327458 0)
(580.515 0.100992 0)
(585.461 0.212881 0)
(589.372 0.260576 0)
(591.827 0.272983 0)
(593.666 0.220569 0)
(595.078 0.0921097 0)
(596.228 -0.105919 0)
(597.142 -0.322364 0)
(597.748 -0.517369 0)
(598.191 -0.697722 0)
(598.443 -0.940025 0)
(598.635 -1.37563 0)
(598.894 -1.90565 0)
(599.069 -2.07009 0)
(598.428 -0.676152 0)
(588.854 23.0871 0)
(568.36 62.4053 0)
(562.081 73.0092 0)
(561.575 73.914 0)
(563.228 71.122 0)
(568.002 62.7979 0)
(572.291 55.0634 0)
(574.189 51.549 0)
(574.042 52.1559 0)
(563.496 70.9323 0)
(543.958 99.4172 0)
(535.364 110.341 0)
(532.684 113.934 0)
(531.612 115.454 0)
(530.461 116.26 0)
(528.502 115.405 0)
(526.057 112.467 0)
(524.107 107.562 0)
(523.109 100.79 0)
(523.492 93.1059 0)
(565.053 -0.0173228 0)
(568.714 -0.0447781 0)
(571.831 -0.0575399 0)
(575.85 -0.0330064 0)
(580.622 0.0330179 0)
(585.548 0.13332 0)
(589.449 0.273624 0)
(591.89 0.32536 0)
(593.745 0.331338 0)
(595.114 0.265059 0)
(596.225 0.105221 0)
(597.118 -0.111161 0)
(597.739 -0.346639 0)
(598.162 -0.555938 0)
(598.381 -0.761026 0)
(598.539 -1.10225 0)
(598.775 -1.63567 0)
(599.07 -2.09378 0)
(598.909 -1.95054 0)
(595.829 6.88122 0)
(576.59 47.6636 0)
(563.452 71.07 0)
(561.56 74.1535 0)
(562.069 73.1461 0)
(566.085 66.1101 0)
(571.07 57.2392 0)
(573.903 52.086 0)
(574.416 51.3339 0)
(568.729 62.1017 0)
(548.785 92.806 0)
(536.904 108.427 0)
(533.203 113.311 0)
(531.898 114.978 0)
(530.844 115.407 0)
(528.765 114.478 0)
(526.145 111.458 0)
(523.798 106.587 0)
(522.482 100.043 0)
(521.949 92.157 0)
(522.474 83.9789 0)
(564.919 -0.0121601 0)
(568.578 -0.0469833 0)
(571.7 -0.0757227 0)
(575.854 -0.0883195 0)
(580.663 -0.052364 0)
(585.579 0.0338069 0)
(589.506 0.171923 0)
(591.962 0.340351 0)
(593.823 0.395356 0)
(595.18 0.394279 0)
(596.243 0.310123 0)
(597.116 0.12329 0)
(597.739 -0.118649 0)
(598.153 -0.358165 0)
(598.359 -0.568822 0)
(598.488 -0.82301 0)
(598.684 -1.2919 0)
(599.039 -1.81624 0)
(598.974 -2.04127 0)
(598.564 -0.0304065 0)
(586.676 27.6464 0)
(567.037 65.2344 0)
(561.802 74.1817 0)
(561.539 74.0867 0)
(564.176 69.3063 0)
(569.513 59.9768 0)
(573.361 53.019 0)
(574.48 51.1669 0)
(572.203 55.8171 0)
(554.621 84.4408 0)
(539.082 105.648 0)
(533.882 112.497 0)
(532.181 114.478 0)
(531.214 114.507 0)
(529.043 113.446 0)
(526.228 110.329 0)
(523.567 105.477 0)
(521.84 99.0708 0)
(521.102 91.4379 0)
(520.702 83.0382 0)
(521.142 74.8374 0)
(564.857 -0.000770716 0)
(568.52 -0.0294928 0)
(571.618 -0.0766071 0)
(575.791 -0.114415 0)
(580.67 -0.120724 0)
(585.517 -0.0701978 0)
(589.527 0.0516047 0)
(592.021 0.209242 0)
(593.903 0.413201 0)
(595.263 0.465779 0)
(596.307 0.45902 0)
(597.135 0.352806 0)
(597.766 0.138421 0)
(598.152 -0.118378 0)
(598.358 -0.346831 0)
(598.476 -0.568532 0)
(598.611 -0.906022 0)
(598.986 -1.4801 0)
(598.994 -1.90691 0)
(599.237 -1.61959 0)
(594.421 10.2782 0)
(573.969 53.2974 0)
(562.624 72.569 0)
(561.427 74.3031 0)
(562.579 71.9467 0)
(567.695 63.1268 0)
(572.459 54.6777 0)
(574.482 51.1494 0)
(573.968 52.402 0)
(560.848 74.9814 0)
(542.112 101.676 0)
(534.811 111.372 0)
(532.482 113.932 0)
(531.51 113.585 0)
(529.333 112.313 0)
(526.344 109.101 0)
(523.398 104.214 0)
(521.282 97.9594 0)
(520.191 90.5118 0)
(519.699 82.3532 0)
(519.194 73.9207 0)
(519.643 66.0173 0)
(564.854 0.0120734 0)
(568.521 -0.00591576 0)
(571.586 -0.0451132 0)
(575.719 -0.109033 0)
(580.527 -0.155253 0)
(585.425 -0.15342 0)
(589.453 -0.0842087 0)
(592.049 0.068381 0)
(593.975 0.255298 0)
(595.348 0.48431 0)
(596.368 0.535628 0)
(597.18 0.518976 0)
(597.793 0.387762 0)
(598.157 0.15542 0)
(598.364 -0.0994113 0)
(598.497 -0.32231 0)
(598.576 -0.569622 0)
(598.92 -1.05417 0)
(598.99 -1.61246 0)
(599.373 -1.73443 0)
(597.999 1.42464 0)
(583.456 35.2792 0)
(565.161 68.7524 0)
(561.415 74.318 0)
(561.576 73.6127 0)
(565.715 66.5068 0)
(571.237 56.8963 0)
(574.253 51.5582 0)
(574.604 51.0702 0)
(566.529 65.7508 0)
(546.165 96.1975 0)
(536.102 109.771 0)
(532.843 113.281 0)
(531.736 112.652 0)
(529.647 111.102 0)
(526.47 107.783 0)
(523.279 102.817 0)
(520.789 96.6836 0)
(519.357 89.4614 0)
(518.595 81.4859 0)
(518.076 73.2691 0)
(517.512 65.1374 0)
(518.291 57.7565 0)
(564.938 0.0251329 0)
(568.679 0.0251519 0)
(571.589 -0.0106284 0)
(575.639 -0.063532 0)
(580.401 -0.145762 0)
(585.331 -0.203151 0)
(589.367 -0.196428 0)
(592.014 -0.104894 0)
(594.011 0.0824341 0)
(595.421 0.301104 0)
(596.422 0.550757 0)
(597.221 0.596894 0)
(597.826 0.568295 0)
(598.165 0.410705 0)
(598.371 0.165083 0)
(598.521 -0.0801301 0)
(598.569 -0.293488 0)
(598.859 -0.629654 0)
(598.981 -1.24433 0)
(599.412 -1.58091 0)
(599.022 -1.15335 0)
(592.146 16.6499 0)
(570.247 59.849 0)
(561.918 73.5726 0)
(561.184 74.2718 0)
(563.796 69.7505 0)
(569.671 59.7173 0)
(573.773 52.4409 0)
(574.743 50.7193 0)
(570.823 58.2677 0)
(551.253 89.0587 0)
(537.891 107.484 0)
(533.331 112.435 0)
(531.881 111.714 0)
(529.963 109.815 0)
(526.606 106.379 0)
(523.195 101.293 0)
(520.358 95.2508 0)
(518.576 88.2542 0)
(517.555 80.5184 0)
(516.834 72.4546 0)
(516.28 64.5226 0)
(515.976 56.9191 0)
(517.152 50.0203 0)
(565.048 0.0323385 0)
(568.84 0.0539533 0)
(571.707 0.0364334 0)
(575.581 -0.0110216 0)
(580.315 -0.0843543 0)
(585.274 -0.189164 0)
(589.256 -0.254617 0)
(591.973 -0.240364 0)
(594.016 -0.124326 0)
(595.458 0.0892371 0)
(596.454 0.346404 0)
(597.256 0.60149 0)
(597.856 0.646611 0)
(598.157 0.584618 0)
(598.355 0.398486 0)
(598.532 0.146321 0)
(598.568 -0.0674288 0)
(598.821 -0.311606 0)
(598.898 -0.812766 0)
(599.418 -1.40986 0)
(599.21 -1.53233 0)
(597.146 4.50236 0)
(578.443 44.9135 0)
(563.262 71.3239 0)
(561.112 74.412 0)
(562.237 72.3995 0)
(567.841 62.9377 0)
(572.94 53.9891 0)
(574.762 50.6588 0)
(573.423 53.4373 0)
(557.074 80.4955 0)
(540.331 104.254 0)
(534.033 111.282 0)
(531.987 110.772 0)
(530.263 108.467 0)
(526.747 104.883 0)
(523.132 99.6548 0)
(519.983 93.6661 0)
(517.856 86.8902 0)
(516.547 79.416 0)
(515.643 71.5607 0)
(514.909 63.758 0)
(514.618 56.3412 0)
(514.742 49.2239 0)
(515.419 43.067 0)
(565.127 0.0321384 0)
(568.947 0.0721579 0)
(571.755 0.0791798 0)
(575.562 0.0597125 0)
(580.288 -0.00877702 0)
(585.25 -0.109019 0)
(589.148 -0.238274 0)
(591.918 -0.308545 0)
(593.981 -0.28834 0)
(595.462 -0.14384 0)
(596.466 0.103899 0)
(597.273 0.382996 0)
(597.878 0.621543 0)
(598.151 0.658914 0)
(598.332 0.546325 0)
(598.524 0.334966 0)
(598.555 0.101325 0)
(598.792 -0.10197 0)
(598.815 -0.491025 0)
(599.305 -1.19725 0)
(599.227 -1.55964 0)
(598.93 -0.346013 0)
(587.591 26.28 0)
(566.714 65.7008 0)
(561.114 74.4194 0)
(561.299 74.0347 0)
(565.839 66.3849 0)
(571.744 56.1822 0)
(574.664 50.6534 0)
(574.619 51.0639 0)
(562.957 71.3308 0)
(543.579 99.7879 0)
(535.057 109.689 0)
(532.063 109.81 0)
(530.525 107.073 0)
(526.89 103.291 0)
(523.077 97.9127 0)
(519.653 91.9396 0)
(517.194 85.3666 0)
(515.587 78.1734 0)
(514.467 70.5559 0)
(513.587 62.9265 0)
(513.104 55.6246 0)
(513.298 48.6962 0)
(513.22 42.3746 0)
(510.346 36.2954 0)
(565.112 0.0240629 0)
(568.993 0.0589926 0)
(571.796 0.104416 0)
(575.571 0.110304 0)
(580.356 0.0791613 0)
(585.249 -0.0117161 0)
(589.065 -0.135625 0)
(591.87 -0.288178 0)
(593.931 -0.365171 0)
(595.418 -0.331603 0)
(596.46 -0.1537 0)
(597.286 0.120759 0)
(597.883 0.402869 0)
(598.136 0.598586 0)
(598.292 0.603261 0)
(598.477 0.448827 0)
(598.506 0.209027 0)
(598.747 -0.00713337 0)
(598.728 -0.30212 0)
(599.175 -0.924029 0)
(599.212 -1.56748 0)
(599.3 -1.57851 0)
(594.53 10.3121 0)
(572.748 55.1771 0)
(561.81 73.3979 0)
(560.955 74.6975 0)
(563.856 69.7248 0)
(570.243 58.8873 0)
(574.258 51.5978 0)
(575.003 50.2481 0)
(568.061 62.8658 0)
(547.75 93.8195 0)
(536.473 107.555 0)
(532.249 108.782 0)
(530.733 105.64 0)
(527.033 101.592 0)
(523.019 96.0771 0)
(519.357 90.0829 0)
(516.589 83.6868 0)
(514.68 76.7796 0)
(513.321 69.4364 0)
(512.273 62.001 0)
(511.638 54.8483 0)
(511.687 48.059 0)
(511.846 41.8867 0)
(508.631 35.7023 0)
(500.488 29.8404 0)
(564.977 0.00662705 0)
(568.894 0.0457429 0)
(571.819 0.0821042 0)
(575.667 0.139293 0)
(580.494 0.141772 0)
(585.317 0.0976371 0)
(589.024 -0.0104845 0)
(591.845 -0.162152 0)
(593.879 -0.343571 0)
(595.352 -0.414997 0)
(596.407 -0.359313 0)
(597.291 -0.164968 0)
(597.896 0.13945 0)
(598.109 0.396145 0)
(598.246 0.523172 0)
(598.419 0.486601 0)
(598.427 0.256295 0)
(598.674 0.00802719 0)
(598.645 -0.245995 0)
(599.02 -0.709206 0)
(599.074 -1.46257 0)
(599.318 -1.86494 0)
(597.929 1.56478 0)
(581.264 39.3127 0)
(563.497 70.6623 0)
(560.888 74.8567 0)
(562.197 72.4976 0)
(568.44 62.0638 0)
(573.541 52.8637 0)
(575.093 50.0299 0)
(571.783 56.2983 0)
(552.765 86.415 0)
(538.372 104.775 0)
(532.532 107.597 0)
(530.857 104.165 0)
(527.169 99.7783 0)
(522.951 94.1558 0)
(519.083 88.1092 0)
(516.03 81.8571 0)
(513.827 75.2281 0)
(512.21 68.1897 0)
(510.979 60.9809 0)
(510.174 53.9894 0)
(510.113 47.3752 0)
(510.287 41.2841 0)
(507.526 35.2767 0)
(499.048 29.2589 0)
(488.39 24.2477 0)
(564.77 -0.00987872 0)
(568.716 0.00806635 0)
(571.719 0.05425 0)
(575.771 0.109296 0)
(580.594 0.179356 0)
(585.331 0.175775 0)
(589.014 0.124555 0)
(591.843 -0.0101197 0)
(593.843 -0.192119 0)
(595.288 -0.389969 0)
(596.366 -0.450201 0)
(597.285 -0.383654 0)
(597.918 -0.154702 0)
(598.098 0.154309 0)
(598.204 0.359759 0)
(598.356 0.406522 0)
(598.334 0.26425 0)
(598.581 -0.00161398 0)
(598.567 -0.249565 0)
(598.878 -0.574187 0)
(598.931 -1.32764 0)
(599.275 -1.96024 0)
(599.005 -1.38533 0)
(589.753 21.7034 0)
(567.341 64.3917 0)
(560.902 74.8722 0)
(561.138 74.31 0)
(566.447 65.4894 0)
(572.439 54.9381 0)
(575.099 49.9996 0)
(573.992 52.1854 0)
(558.251 77.9155 0)
(540.936 100.957 0)
(533.156 106.091 0)
(530.905 102.601 0)
(527.291 97.8518 0)
(522.869 92.155 0)
(518.818 86.0304 0)
(515.509 79.8874 0)
(513.028 73.5172 0)
(511.143 66.8042 0)
(509.707 59.858 0)
(508.726 53.0481 0)
(508.528 46.6107 0)
(508.717 40.6308 0)
(506.288 34.7528 0)
(498.122 28.8676 0)
(486.756 23.6487 0)
(476.448 19.6081 0)
(564.627 -0.0296555 0)
(568.616 -0.0280094 0)
(571.693 -0.00122599 0)
(575.809 0.0581614 0)
(580.646 0.123364 0)
(585.327 0.220964 0)
(589.054 0.215299 0)
(591.918 0.145585 0)
(593.835 -0.0139737 0)
(595.237 -0.217421 0)
(596.333 -0.425153 0)
(597.285 -0.472385 0)
(597.936 -0.372222 0)
(598.104 -0.108231 0)
(598.186 0.166813 0)
(598.306 0.290177 0)
(598.252 0.22289 0)
(598.481 0.0191585 0)
(598.498 -0.271038 0)
(598.776 -0.508273 0)
(598.783 -1.06207 0)
(599.238 -1.88773 0)
(599.201 -1.93942 0)
(595.658 7.97658 0)
(573.684 53.3923 0)
(561.648 73.734 0)
(560.69 75.1308 0)
(564.398 68.9377 0)
(571.034 57.4864 0)
(574.872 50.5377 0)
(575.013 50.1962 0)
(563.624 69.0679 0)
(544.247 95.9013 0)
(534.042 104.049 0)
(530.801 100.896 0)
(527.391 95.825 0)
(522.776 90.0762 0)
(518.55 83.8571 0)
(515.014 77.7876 0)
(512.278 71.6512 0)
(510.124 65.2691 0)
(508.462 58.6236 0)
(507.294 52.0187 0)
(506.947 45.7691 0)
(507.12 39.9121 0)
(505.041 34.1861 0)
(497.116 28.3993 0)
(485.692 23.2629 0)
(474.462 18.9979 0)
(465.374 15.8524 0)
(564.586 -0.0311081 0)
(568.597 -0.0565481 0)
(571.676 -0.0475763 0)
(575.823 -0.0123515 0)
(580.605 0.0644219 0)
(585.326 0.154635 0)
(589.082 0.261359 0)
(591.978 0.253355 0)
(593.882 0.166731 0)
(595.208 -0.0124588 0)
(596.314 -0.236129 0)
(597.292 -0.444649 0)
(597.953 -0.457943 0)
(598.138 -0.302664 0)
(598.206 -0.0348633 0)
(598.283 0.169034 0)
(598.205 0.200235 0)
(598.397 0.0627847 0)
(598.441 -0.241419 0)
(598.708 -0.463187 0)
(598.683 -0.807991 0)
(599.165 -1.57404 0)
(599.233 -1.97362 0)
(598.439 0.88878 0)
(582.059 37.6637 0)
(563.351 70.9983 0)
(560.575 75.3754 0)
(562.562 71.9979 0)
(569.333 60.5261 0)
(574.302 51.6597 0)
(575.352 49.4693 0)
(568.231 60.8948 0)
(548.269 89.5 0)
(535.392 101.282 0)
(530.704 99.0811 0)
(527.467 93.7274 0)
(522.675 87.9151 0)
(518.269 81.5976 0)
(514.535 75.5675 0)
(511.568 69.6385 0)
(509.158 63.5781 0)
(507.253 57.2662 0)
(505.882 50.897 0)
(505.371 44.8439 0)
(505.507 39.1273 0)
(503.749 33.5655 0)
(496.114 27.9057 0)
(484.573 22.7983 0)
(473.13 18.616 0)
(463.009 15.2466 0)
(455.383 12.8471 0)
(564.617 -0.0229806 0)
(568.644 -0.065228 0)
(571.671 -0.0769625 0)
(575.741 -0.0671686 0)
(580.478 -0.0213746 0)
(585.159 0.0724124 0)
(589.111 0.191613 0)
(592.046 0.306208 0)
(593.923 0.287375 0)
(595.204 0.186524 0)
(596.312 -0.00915838 0)
(597.303 -0.248427 0)
(597.972 -0.429816 0)
(598.18 -0.385103 0)
(598.268 -0.18747 0)
(598.316 0.0608802 0)
(598.19 0.194801 0)
(598.351 0.134673 0)
(598.403 -0.111366 0)
(598.671 -0.360215 0)
(598.632 -0.576011 0)
(599.066 -1.18591 0)
(599.238 -1.85836 0)
(599.31 -1.45588 0)
(590.091 20.8341 0)
(567.108 64.8061 0)
(560.567 75.4108 0)
(561.228 74.2544 0)
(567.417 63.8536 0)
(573.38 53.4867 0)
(575.442 49.271 0)
(571.605 54.3547 0)
(552.845 81.8293 0)
(537.325 97.5552 0)
(530.616 97.1265 0)
(527.512 91.5928 0)
(522.566 85.6581 0)
(517.962 79.2573 0)
(514.059 73.2375 0)
(510.888 67.4905 0)
(508.242 61.73 0)
(506.086 55.7733 0)
(504.493 49.6772 0)
(503.806 43.8316 0)
(503.881 38.2711 0)
(502.42 32.8897 0)
(495.097 27.3664 0)
(483.473 22.314 0)
(471.736 18.1539 0)
(461.384 14.8734 0)
(452.642 12.261 0)
(446.55 10.4581 0)
(564.762 -0.00118149 0)
(568.829 -0.0465385 0)
(571.686 -0.0866839 0)
(575.68 -0.101147 0)
(580.346 -0.0843441 0)
(585.053 -0.0320246 0)
(589.066 0.0732458 0)
(592.094 0.201985 0)
(593.957 0.343826 0)
(595.217 0.313065 0)
(596.335 0.206013 0)
(597.313 -0.0152679 0)
(597.988 -0.242212 0)
(598.223 -0.364056 0)
(598.336 -0.258428 0)
(598.383 -0.00805726 0)
(598.24 0.206907 0)
(598.339 0.225463 0)
(598.387 0.0756096 0)
(598.65 -0.189957 0)
(598.618 -0.375406 0)
(598.966 -0.785475 0)
(599.2 -1.67833 0)
(599.475 -1.91856 0)
(595.614 7.82621 0)
(573.238 54.2551 0)
(561.058 74.5993 0)
(560.529 75.5033 0)